/*--------------------------------*- C++ -*----------------------------------*\
  =========                 |
  \\      /  F ield         | OpenFOAM: The Open Source CFD Toolbox
   \\    /   O peration     | Website:  https://openfoam.org
    \\  /    A nd           | Version:  9
     \\/     M anipulation  |
\*---------------------------------------------------------------------------*/
FoamFile
{
    format      ascii;
    class       volScalarField;
    location    "500";
    object      nut;
}
// * * * * * * * * * * * * * * * * * * * * * * * * * * * * * * * * * * * * * //

dimensions      [0 2 -1 0 0 0 0];

internalField   nonuniform List<scalar> 
10720
(
0.0568572
0.0588629
0.0610723
0.0632843
0.0656661
0.0677832
0.0694393
0.0705783
0.0709928
0.0705622
0.0690817
0.0662739
0.0618661
0.0556144
0.047341
0.0372271
0.0259528
0.014203
0.0144107
0.0158953
0.0156961
0.0158342
0.0178355
0.0193386
0.020548
0.0216173
0.0224432
0.0228238
0.0223653
0.0207709
0.0181866
0.0145952
0.0115485
0.0130041
0.0158996
0.0240885
0.0296447
0.0298753
0.0355611
0.055029
0.0529514
0.0507148
0.047904
0.0447331
0.0411003
0.0368898
0.032013
0.0265153
0.0206439
0.0167116
0.015124
0.0142076
0.0155723
0.0183583
0.0206122
0.0224241
0.0240321
0.0255803
0.027138
0.0287399
0.0303984
0.0321162
0.0338726
0.0355926
0.0371961
0.0386633
0.0399978
0.0412087
0.042296
0.0432748
0.0441887
0.0450616
0.0458946
0.0466862
0.0474488
0.0481717
0.0490056
0.0473424
0.0682983
0.0676527
0.0666029
0.065184
0.0636013
0.0620245
0.0611218
0.0615963
0.0632082
0.0655648
0.068439
0.071672
0.0750113
0.0781139
0.0803659
0.0809312
0.0793313
0.0764118
0.0780864
0.0803527
0.0712995
0.0574896
0.0494349
0.0483595
0.0485372
0.0488175
0.048342
0.0468057
0.0441549
0.0401635
0.0367079
0.0363534
0.0368593
0.0313525
0.028047
0.0502975
0.067167
0.0822881
0.087317
0.0689515
0.0691907
0.0696039
0.0694395
0.0689636
0.0681124
0.0667324
0.0647877
0.062398
0.0597301
0.0567688
0.0537255
0.0506631
0.0474535
0.0443699
0.0415223
0.038946
0.0366287
0.0345703
0.0327473
0.0311521
0.0297628
0.0285641
0.0274969
0.0265349
0.0257014
0.0249995
0.0244316
0.0239933
0.0236735
0.0235366
0.0238899
0.0247015
0.0257897
0.0269755
0.0281376
0.0292298
0.0303495
0.0307836
0.0967618
0.0960946
0.0949954
0.0934514
0.0916618
0.0894746
0.0869178
0.084001
0.0807553
0.0774753
0.0746423
0.0721762
0.0701399
0.0712873
0.0751724
0.0812686
0.0886799
0.0963611
0.105583
0.116338
0.119976
0.115844
0.111615
0.109118
0.10897
0.109474
0.108285
0.104603
0.0985845
0.0888661
0.0779036
0.0735292
0.0722586
0.0674011
0.0648952
0.113362
0.135472
0.156487
0.167893
0.0973627
0.09761
0.0979377
0.0978291
0.0974123
0.0966408
0.0953869
0.093595
0.0913318
0.0887162
0.0858117
0.0827208
0.0794628
0.0760905
0.0727117
0.0693822
0.0661617
0.0630841
0.0601824
0.0574511
0.0548977
0.0525039
0.050248
0.0480307
0.0457952
0.0435845
0.0414216
0.0393315
0.0373305
0.0354335
0.033653
0.0320054
0.0306311
0.0303306
0.0306331
0.0310964
0.0315273
0.0325524
0.0313687
0.112004
0.111542
0.110795
0.109756
0.108513
0.106946
0.105032
0.102799
0.100065
0.0967721
0.0928786
0.0884065
0.0841601
0.0806648
0.0772099
0.0769254
0.0816804
0.0917305
0.106689
0.126289
0.144467
0.153861
0.156217
0.157738
0.161922
0.167253
0.170683
0.169903
0.162879
0.147633
0.126523
0.115623
0.110334
0.100029
0.097301
0.168632
0.19364
0.226765
0.257108
0.112388
0.112574
0.112762
0.1127
0.112421
0.111897
0.111039
0.1098
0.108202
0.106281
0.104062
0.101626
0.0989624
0.0961058
0.0931303
0.0900832
0.087018
0.0839796
0.0810106
0.0781252
0.0753453
0.0726669
0.0700737
0.0674731
0.0647995
0.0620964
0.0593896
0.0567077
0.0540714
0.0514998
0.049008
0.0466114
0.0443247
0.0422306
0.0403782
0.038736
0.0376208
0.038075
0.0347111
0.120611
0.12029
0.119768
0.119041
0.118159
0.11703
0.115637
0.113986
0.11202
0.109697
0.106908
0.103462
0.0992866
0.094323
0.0894978
0.0849566
0.0807216
0.0835405
0.0954823
0.117611
0.1464
0.171858
0.18724
0.196299
0.206781
0.21945
0.23074
0.236478
0.23227
0.214272
0.183288
0.162327
0.156617
0.134083
0.126812
0.224264
0.252172
0.295306
0.35323
0.120854
0.120982
0.121097
0.121063
0.12088
0.12053
0.119954
0.119121
0.118039
0.116719
0.115167
0.113414
0.111464
0.109315
0.107012
0.104576
0.102047
0.0994566
0.096844
0.0942276
0.0916333
0.0890653
0.0865152
0.0839033
0.0811696
0.0783506
0.0754726
0.0725649
0.0696508
0.0667538
0.0638933
0.0610901
0.0583625
0.0557388
0.0532399
0.0509109
0.048599
0.0475435
0.0416768
0.125864
0.125652
0.125296
0.124798
0.124188
0.123399
0.122423
0.121253
0.119842
0.118156
0.11616
0.113834
0.111112
0.107322
0.102265
0.0965039
0.0905335
0.0846314
0.0867024
0.102097
0.13238
0.169953
0.202034
0.223932
0.242803
0.263989
0.284718
0.299457
0.30189
0.285694
0.24828
0.212841
0.208156
0.171468
0.15681
0.283738
0.314241
0.364407
0.455589
0.126011
0.126089
0.126154
0.126128
0.125997
0.125751
0.12535
0.124773
0.124026
0.123114
0.122042
0.120818
0.119435
0.117886
0.116198
0.114375
0.112436
0.110401
0.108295
0.106133
0.103934
0.101703
0.0994329
0.09706
0.0945295
0.0918676
0.0890966
0.086242
0.0833259
0.0803721
0.0774026
0.074442
0.0715129
0.0686437
0.0658502
0.0631929
0.0604623
0.0589134
0.0524617
0.129272
0.129129
0.128877
0.128523
0.128083
0.127514
0.126808
0.125961
0.124933
0.12372
0.122333
0.120777
0.119016
0.116786
0.113627
0.108804
0.102217
0.0948526
0.0877705
0.0911407
0.112904
0.15288
0.198891
0.237541
0.268669
0.299722
0.331055
0.356507
0.368418
0.358537
0.320149
0.267226
0.263584
0.220306
0.190438
0.349042
0.383118
0.438801
0.564006
0.129359
0.129404
0.129438
0.129414
0.129314
0.129133
0.128841
0.128425
0.127891
0.127245
0.12649
0.125627
0.124647
0.123541
0.12232
0.120983
0.119538
0.117997
0.116374
0.114676
0.112914
0.11109
0.109197
0.107182
0.104996
0.102654
0.100171
0.0975628
0.0948473
0.0920448
0.0891755
0.086264
0.0833345
0.0804175
0.0775305
0.0747392
0.0718337
0.0700167
0.063598
0.131615
0.131521
0.131347
0.1311
0.130792
0.130395
0.129906
0.129326
0.128635
0.127841
0.126935
0.12587
0.124602
0.123061
0.121101
0.118193
0.113545
0.106397
0.0976248
0.0909027
0.0984612
0.12972
0.180477
0.234656
0.281837
0.325366
0.368566
0.406267
0.429826
0.429794
0.395813
0.326638
0.321976
0.281201
0.230851
0.421886
0.462759
0.527088
0.678421
0.131661
0.131683
0.131696
0.131671
0.13159
0.13145
0.131229
0.130918
0.130524
0.130054
0.129509
0.128885
0.128177
0.127377
0.126491
0.125514
0.124448
0.123295
0.122064
0.120756
0.11938
0.117936
0.116414
0.114771
0.112965
0.111002
0.108887
0.106629
0.104235
0.101719
0.0990978
0.0963905
0.0936199
0.0908146
0.0879934
0.0852218
0.0823042
0.0803501
0.0742037
0.13331
0.133271
0.133193
0.133061
0.132889
0.13267
0.132387
0.132038
0.131601
0.131084
0.130476
0.129736
0.128817
0.127662
0.126209
0.124323
0.121544
0.11678
0.10913
0.0994003
0.0946391
0.11029
0.154087
0.216129
0.279674
0.338907
0.395923
0.447414
0.484583
0.49713
0.471934
0.394208
0.382389
0.350103
0.28116
0.504028
0.556752
0.627715
0.798657
0.133313
0.133317
0.133314
0.133286
0.133215
0.133101
0.132929
0.132691
0.132394
0.132046
0.131644
0.131182
0.130659
0.130069
0.129416
0.128694
0.127903
0.127042
0.126114
0.125117
0.124054
0.122924
0.121718
0.120403
0.118945
0.117346
0.115602
0.113715
0.111686
0.109521
0.107228
0.104821
0.102317
0.0997394
0.0971058
0.0944767
0.0916751
0.0896956
0.0839716
0.134633
0.13469
0.134746
0.134748
0.134711
0.134635
0.134502
0.134309
0.134043
0.133698
0.133261
0.13271
0.132022
0.131152
0.130035
0.128607
0.126752
0.123954
0.118924
0.110573
0.10012
0.100518
0.128663
0.187131
0.261593
0.337866
0.411372
0.478464
0.531108
0.558618
0.546231
0.473556
0.444409
0.42498
0.3431
0.59728
0.664665
0.737049
0.924377
0.134552
0.134533
0.134513
0.134481
0.134417
0.134329
0.134199
0.134015
0.133784
0.133516
0.13321
0.13286
0.132466
0.132023
0.131533
0.130991
0.130397
0.129748
0.129044
0.128282
0.127464
0.126584
0.125636
0.124593
0.123429
0.122142
0.120728
0.119183
0.117504
0.115692
0.113748
0.111679
0.109495
0.107213
0.104846
0.102446
0.0998554
0.0979428
0.0927488
0.13573
0.135884
0.136026
0.136112
0.136151
0.136147
0.136092
0.135985
0.135821
0.135593
0.135294
0.134905
0.134404
0.133761
0.132929
0.131838
0.130415
0.12858
0.125682
0.119886
0.109929
0.100927
0.111178
0.155613
0.230675
0.320751
0.412605
0.497721
0.567672
0.612365
0.616635
0.560911
0.508431
0.503908
0.420645
0.703547
0.785521
0.853794
1.05505
0.135566
0.135508
0.135459
0.135423
0.135372
0.135327
0.135244
0.135092
0.134897
0.134674
0.134423
0.134144
0.133834
0.133491
0.133114
0.1327
0.132246
0.13175
0.13121
0.130623
0.129989
0.129301
0.128555
0.127729
0.126803
0.125774
0.124637
0.123387
0.122019
0.120528
0.118912
0.117173
0.115315
0.11335
0.111285
0.109162
0.106841
0.105062
0.100475
0.136639
0.136822
0.136992
0.13711
0.137185
0.137221
0.137213
0.137162
0.137069
0.136925
0.13673
0.136469
0.136123
0.135667
0.135066
0.13427
0.133187
0.131785
0.129978
0.126617
0.119224
0.108148
0.104483
0.129388
0.193438
0.288756
0.397613
0.502955
0.592524
0.65634
0.680594
0.64583
0.575884
0.581607
0.519201
0.824652
0.919723
0.977571
1.18994
0.136484
0.136395
0.13632
0.136285
0.136253
0.13627
0.136227
0.136082
0.135892
0.135682
0.135453
0.135208
0.134943
0.134658
0.134353
0.134022
0.133664
0.133275
0.132853
0.132394
0.131897
0.131355
0.130763
0.130105
0.129365
0.128541
0.127628
0.126621
0.125513
0.124299
0.122974
0.121536
0.119985
0.118327
0.116563
0.114727
0.112699
0.11109
0.107132
0.13738
0.137541
0.137703
0.137826
0.137914
0.137972
0.137993
0.137981
0.137935
0.13785
0.13773
0.137561
0.137333
0.137024
0.136607
0.136047
0.135274
0.134197
0.132841
0.130934
0.12669
0.117701
0.107054
0.113445
0.157904
0.246589
0.366059
0.49186
0.60344
0.68865
0.735424
0.724958
0.649598
0.6578
0.635218
0.961738
1.06862
1.10853
1.32748
0.137282
0.137231
0.137194
0.13718
0.137177
0.137247
0.137219
0.137053
0.136856
0.136647
0.136424
0.136188
0.135939
0.135676
0.135402
0.135114
0.134811
0.134489
0.134145
0.133774
0.133374
0.13294
0.132465
0.131935
0.131339
0.130674
0.129937
0.129122
0.128225
0.127239
0.126158
0.12498
0.123701
0.122323
0.120844
0.119288
0.117553
0.116123
0.112765
0.137968
0.138093
0.138233
0.13835
0.138441
0.138509
0.138549
0.138561
0.138546
0.138502
0.138431
0.138325
0.138178
0.137976
0.137698
0.137314
0.136786
0.136022
0.134953
0.133658
0.131512
0.125714
0.114808
0.108672
0.130863
0.201626
0.320591
0.462971
0.597987
0.706996
0.778702
0.79637
0.734299
0.736496
0.766422
1.11447
1.23399
1.24732
1.46566
0.137932
0.137944
0.13798
0.138026
0.138085
0.138179
0.138145
0.13797
0.137778
0.137586
0.13738
0.137154
0.136909
0.136647
0.136375
0.136096
0.13581
0.135517
0.135214
0.134895
0.134559
0.134198
0.133806
0.133372
0.132884
0.132342
0.131742
0.131079
0.130348
0.129545
0.128663
0.127699
0.126649
0.125512
0.124285
0.122984
0.121523
0.120281
0.117466
0.138427
0.138517
0.138635
0.138743
0.138832
0.138905
0.138955
0.138982
0.138987
0.138971
0.138932
0.138869
0.138778
0.138648
0.138468
0.138213
0.137857
0.137348
0.136571
0.135544
0.134326
0.131346
0.123439
0.112229
0.115715
0.16177
0.26713
0.41697
0.574023
0.708866
0.807847
0.857921
0.832291
0.826924
0.91077
1.28058
1.4165
1.39518
1.60288
0.138436
0.13849
0.138575
0.138668
0.138775
0.138873
0.138844
0.138714
0.138564
0.138419
0.138258
0.138069
0.137849
0.137599
0.137328
0.13704
0.136747
0.136452
0.136156
0.135857
0.135552
0.135233
0.134895
0.134527
0.134119
0.133669
0.133174
0.132628
0.132029
0.13137
0.130647
0.129856
0.128994
0.128057
0.127043
0.125962
0.124744
0.123683
0.121344
0.138778
0.138843
0.138943
0.139043
0.139129
0.139203
0.139258
0.139295
0.139313
0.139314
0.139297
0.139264
0.13921
0.139131
0.139017
0.138854
0.138617
0.138283
0.137771
0.136976
0.136063
0.134725
0.130269
0.119989
0.112028
0.133006
0.213705
0.357712
0.530704
0.691801
0.820096
0.906439
0.928723
0.930002
1.06606
1.45598
1.61201
1.55414
1.73812
0.138811
0.138886
0.138989
0.139092
0.139194
0.13927
0.139248
0.13918
0.139104
0.139017
0.138918
0.138795
0.138642
0.138448
0.138213
0.13794
0.137645
0.137338
0.13703
0.136726
0.136425
0.136122
0.135812
0.135484
0.13513
0.134746
0.134329
0.133874
0.133376
0.132831
0.132234
0.131582
0.13087
0.130097
0.129258
0.128361
0.127348
0.126449
0.124514
0.139043
0.139094
0.139182
0.139274
0.139357
0.139431
0.139489
0.13953
0.139557
0.139569
0.139568
0.139554
0.139527
0.139482
0.139414
0.139313
0.139162
0.138942
0.138622
0.138077
0.137311
0.136572
0.13462
0.127742
0.116094
0.117625
0.168233
0.292173
0.46973
0.654055
0.812919
0.938228
1.01466
1.04407
1.23016
1.63581
1.81251
1.72709
1.87136
0.139085
0.139165
0.139268
0.139361
0.139439
0.139491
0.139471
0.139431
0.139391
0.139343
0.139286
0.139218
0.139135
0.13903
0.138892
0.138701
0.138454
0.138163
0.137852
0.137535
0.137223
0.136916
0.136612
0.136302
0.13598
0.13564
0.135279
0.134891
0.134471
0.134014
0.133517
0.132975
0.132384
0.131743
0.131046
0.130301
0.129457
0.128697
0.127096
0.139245
0.139287
0.139367
0.139455
0.139534
0.139607
0.139665
0.13971
0.139741
0.139761
0.13977
0.13977
0.13976
0.139739
0.139702
0.139644
0.139554
0.139414
0.139213
0.138882
0.138296
0.137676
0.136973
0.133627
0.123841
0.114301
0.136281
0.22909
0.396138
0.595645
0.784115
0.949754
1.08586
1.16853
1.40129
1.81583
2.01225
1.9182
2.00395
0.139287
0.139363
0.139457
0.139534
0.139592
0.139632
0.139617
0.139588
0.139561
0.13953
0.139494
0.139453
0.139405
0.139348
0.139278
0.139183
0.139048
0.138851
0.138587
0.138282
0.137964
0.137646
0.137334
0.137025
0.136716
0.136402
0.136077
0.135737
0.135375
0.134986
0.134566
0.134111
0.133617
0.133082
0.132501
0.131878
0.131174
0.13053
0.129199
0.139399
0.139437
0.139512
0.139595
0.139672
0.139742
0.139801
0.139846
0.139881
0.139906
0.139922
0.139931
0.139933
0.139928
0.139912
0.139883
0.139834
0.139753
0.139628
0.139441
0.139064
0.138499
0.138133
0.137051
0.131087
0.118725
0.119478
0.176665
0.317986
0.519466
0.73267
0.93818
1.13824
1.30168
1.57899
1.99286
2.20824
2.1304
2.13907
0.139438
0.139505
0.139585
0.139648
0.139697
0.139733
0.139723
0.139701
0.139681
0.139659
0.139635
0.139607
0.139576
0.13954
0.139498
0.139447
0.139381
0.139285
0.139138
0.138918
0.138634
0.13832
0.138001
0.137684
0.137373
0.137069
0.136765
0.136456
0.136135
0.135797
0.135436
0.135049
0.134632
0.134181
0.133693
0.13317
0.132579
0.132034
0.13092
0.13952
0.139555
0.139626
0.139705
0.139779
0.139847
0.139904
0.13995
0.139987
0.140015
0.140036
0.140051
0.140062
0.140067
0.140066
0.140057
0.140036
0.139996
0.139923
0.139818
0.139619
0.139186
0.138788
0.13865
0.136273
0.126526
0.115773
0.140314
0.244777
0.431802
0.659754
0.902237
1.16759
1.42223
1.75149
2.16424
2.3987
2.349
2.28238
0.139552
0.139607
0.139674
0.139729
0.139775
0.13981
0.139804
0.139787
0.139771
0.139754
0.139738
0.139719
0.139699
0.139676
0.139648
0.139615
0.139576
0.139525
0.139455
0.139344
0.139169
0.138917
0.138616
0.1383
0.137984
0.137676
0.137378
0.137083
0.136788
0.136485
0.136168
0.135834
0.135476
0.135093
0.13468
0.134238
0.133739
0.133275
0.132336
0.139614
0.139648
0.139716
0.139791
0.139862
0.139928
0.139984
0.14003
0.140067
0.140097
0.140121
0.140141
0.140158
0.140171
0.140181
0.140186
0.140183
0.14017
0.140135
0.140077
0.13999
0.139736
0.139313
0.139274
0.138988
0.133559
0.120298
0.121193
0.185011
0.34171
0.569547
0.841742
1.17095
1.52073
1.90702
2.32756
2.58227
2.5619
2.4411
0.139637
0.139682
0.139739
0.139792
0.139838
0.139873
0.139868
0.139854
0.139841
0.139828
0.139816
0.139804
0.139791
0.139776
0.139758
0.139737
0.13971
0.139678
0.139637
0.139582
0.139495
0.139353
0.13914
0.138867
0.138563
0.138255
0.137953
0.13766
0.137374
0.137089
0.1368
0.136502
0.13619
0.135859
0.135504
0.135127
0.134703
0.134308
0.133511
0.139686
0.139721
0.139786
0.139858
0.139926
0.13999
0.140044
0.140089
0.140127
0.140158
0.140185
0.140208
0.140229
0.140249
0.140266
0.140281
0.140292
0.140297
0.14029
0.140263
0.140229
0.140128
0.139799
0.139578
0.139979
0.138325
0.128237
0.116582
0.143898
0.259153
0.46937
0.758811
1.14703
1.59263
2.04242
2.48063
2.75783
2.7678
2.62144
0.139701
0.139738
0.139793
0.139846
0.139893
0.139926
0.139921
0.139909
0.139898
0.139887
0.139878
0.13987
0.139861
0.139852
0.139841
0.139827
0.13981
0.139788
0.139761
0.139727
0.139681
0.139609
0.139491
0.139313
0.139079
0.138807
0.138517
0.138223
0.137936
0.137654
0.137376
0.137097
0.136812
0.136517
0.136206
0.135879
0.135514
0.135175
0.134493
0.139741
0.139777
0.13984
0.13991
0.139975
0.140037
0.140089
0.140134
0.140171
0.140203
0.140231
0.140256
0.140281
0.140304
0.140328
0.14035
0.140371
0.140389
0.140402
0.1404
0.140389
0.140378
0.140208
0.139882
0.140147
0.140549
0.135339
0.121074
0.122094
0.19252
0.368682
0.658299
1.09506
1.63456
2.15555
2.62126
2.92428
2.96699
2.82642
0.13975
0.139786
0.139842
0.139896
0.13994
0.139967
0.139961
0.139952
0.139943
0.139935
0.139928
0.139922
0.139917
0.139911
0.139905
0.139896
0.139886
0.139871
0.139853
0.139829
0.1398
0.139759
0.139696
0.139596
0.139449
0.139258
0.139028
0.138771
0.138497
0.138218
0.137941
0.137667
0.137393
0.137117
0.136832
0.136538
0.136215
0.135919
0.135331
0.139785
0.139821
0.139882
0.139949
0.140012
0.140071
0.140122
0.140165
0.140203
0.140235
0.140264
0.14029
0.140317
0.140344
0.140371
0.140399
0.140427
0.140454
0.140481
0.1405
0.140505
0.140526
0.140498
0.140231
0.140148
0.141058
0.139961
0.129217
0.11623
0.146515
0.277153
0.547597
1.01653
1.6439
2.24386
2.74709
3.0803
3.15868
3.02545
0.139795
0.139833
0.139888
0.139934
0.139967
0.139988
0.139984
0.139978
0.139972
0.139968
0.139965
0.139962
0.13996
0.139958
0.139954
0.13995
0.139943
0.139934
0.139922
0.139906
0.139885
0.139858
0.13982
0.139764
0.139677
0.139558
0.139403
0.139216
0.139001
0.138764
0.138512
0.138251
0.137986
0.137718
0.137446
0.137172
0.136871
0.136613
0.136094
0.139825
0.139858
0.139915
0.139979
0.140039
0.140095
0.140145
0.140187
0.140224
0.140256
0.140285
0.140313
0.140341
0.14037
0.140399
0.140431
0.140463
0.140497
0.140533
0.140568
0.140591
0.140619
0.140668
0.140555
0.140273
0.140823
0.141903
0.136658
0.120496
0.12134
0.202528
0.435464
0.915267
1.61909
2.30428
2.85544
3.2242
3.34168
3.21979
0.139839
0.139876
0.139919
0.139947
0.139965
0.139982
0.139981
0.139982
0.139982
0.139983
0.139985
0.139987
0.139989
0.13999
0.139991
0.13999
0.139987
0.139982
0.139975
0.139964
0.13995
0.13993
0.139905
0.13987
0.139818
0.139744
0.139646
0.139523
0.139374
0.139201
0.139007
0.138795
0.138569
0.138334
0.138086
0.137841
0.137552
0.137349
0.136867
0.139864
0.139892
0.139945
0.140004
0.14006
0.140113
0.140161
0.140201
0.140237
0.140269
0.140299
0.140327
0.140356
0.140386
0.140417
0.14045
0.140486
0.140524
0.140565
0.14061
0.14065
0.140682
0.140751
0.140782
0.14053
0.140535
0.142041
0.141464
0.129023
0.1134
0.149065
0.330633
0.797151
1.55984
2.33347
2.94319
3.35389
3.51441
3.4118
0.139878
0.139902
0.13992
0.139923
0.139928
0.139947
0.139953
0.139962
0.13997
0.139978
0.139987
0.139995
0.140002
0.140009
0.140013
0.140016
0.140018
0.140017
0.140013
0.140007
0.139998
0.139984
0.139967
0.139943
0.139909
0.139863
0.1398
0.13972
0.139622
0.139506
0.139371
0.139218
0.13905
0.138868
0.138671
0.138477
0.138229
0.138082
0.137645
0.139897
0.139923
0.139971
0.140025
0.140077
0.140127
0.140172
0.140211
0.140246
0.140277
0.140307
0.140335
0.140364
0.140394
0.140427
0.140461
0.140499
0.14054
0.140583
0.140633
0.140686
0.140728
0.140789
0.140898
0.14081
0.14049
0.141416
0.143394
0.137235
0.11694
0.117151
0.240233
0.669382
1.46762
2.32806
3.00676
3.46673
3.67491
3.60168
0.139899
0.139897
0.139883
0.13987
0.139874
0.139897
0.139909
0.139925
0.139941
0.139957
0.139972
0.139987
0.14
0.140012
0.140022
0.140029
0.140035
0.140038
0.140039
0.140037
0.140032
0.140023
0.140011
0.139995
0.139973
0.139943
0.139902
0.139849
0.139785
0.139708
0.139618
0.139515
0.139399
0.139271
0.139128
0.138988
0.138802
0.1387
0.138334
0.139912
0.139941
0.139987
0.140039
0.140089
0.140136
0.140179
0.140216
0.14025
0.140281
0.14031
0.140338
0.140367
0.140398
0.140431
0.140466
0.140505
0.140547
0.140593
0.140643
0.140702
0.140757
0.140808
0.140928
0.14101
0.140677
0.140792
0.14329
0.142876
0.126012
0.103931
0.168985
0.539587
1.34555
2.28519
3.04202
3.5595
3.82076
3.78779
0.139888
0.139856
0.139823
0.139814
0.13983
0.139856
0.13987
0.139889
0.139909
0.139929
0.13995
0.139969
0.139987
0.140004
0.140018
0.14003
0.14004
0.140048
0.140053
0.140055
0.140054
0.14005
0.140043
0.140032
0.140018
0.139998
0.139971
0.139936
0.139894
0.139843
0.139784
0.139716
0.139639
0.139554
0.139456
0.139361
0.139232
0.139174
0.138889
0.139896
0.139937
0.139987
0.140039
0.140089
0.140136
0.140178
0.140215
0.140248
0.140279
0.140308
0.140336
0.140365
0.140396
0.14043
0.140466
0.140505
0.140548
0.140596
0.140647
0.140706
0.140771
0.140822
0.140915
0.141095
0.14095
0.140515
0.142247
0.145367
0.135831
0.104589
0.118881
0.415134
1.19832
2.20272
3.0444
3.62838
3.94879
3.9667
0.139843
0.139797
0.139775
0.139792
0.139827
0.139851
0.13986
0.139875
0.139893
0.139913
0.139934
0.139954
0.139974
0.139993
0.14001
0.140025
0.140038
0.140049
0.140057
0.140063
0.140066
0.140066
0.140063
0.140057
0.140049
0.140036
0.140019
0.139996
0.139969
0.139936
0.139897
0.139853
0.139804
0.139749
0.139685
0.139624
0.139536
0.139514
0.139311
0.139852
0.139906
0.139963
0.140021
0.140074
0.140123
0.140166
0.140204
0.140238
0.14027
0.140299
0.140329
0.140358
0.14039
0.140423
0.14046
0.1405
0.140544
0.140592
0.140644
0.140703
0.140772
0.140831
0.140894
0.141083
0.141171
0.140598
0.141139
0.145372
0.143535
0.113672
0.089469
0.302491
1.03213
2.07973
3.00905
3.66875
4.05502
4.13317
0.139787
0.139758
0.139775
0.139824
0.139873
0.1399
0.139898
0.139902
0.139911
0.139925
0.13994
0.139957
0.139974
0.139991
0.140007
0.140022
0.140036
0.140048
0.140058
0.140065
0.140071
0.140074
0.140075
0.140073
0.140069
0.140062
0.140052
0.140038
0.140021
0.14
0.139976
0.139948
0.139918
0.139884
0.139845
0.139807
0.139749
0.139748
0.139615
0.139801
0.139861
0.139925
0.139988
0.140044
0.140096
0.140143
0.140183
0.140219
0.140252
0.140284
0.140314
0.140345
0.140377
0.140412
0.140449
0.14049
0.140534
0.140583
0.140636
0.140694
0.140763
0.140833
0.14088
0.141022
0.141269
0.140881
0.140438
0.143965
0.147901
0.126211
0.0783332
0.207031
0.854259
1.917
2.93113
3.67526
4.13465
4.28087
0.139757
0.139771
0.13983
0.139895
0.139954
0.139998
0.139987
0.139976
0.139972
0.139974
0.13998
0.139988
0.139997
0.140008
0.140019
0.14003
0.140041
0.140052
0.140061
0.140069
0.140076
0.14008
0.140083
0.140084
0.140083
0.14008
0.140075
0.140067
0.140057
0.140045
0.140031
0.140016
0.139998
0.139979
0.139957
0.139937
0.1399
0.139911
0.139828
0.139779
0.13983
0.139892
0.139955
0.140013
0.140067
0.140115
0.140157
0.140195
0.140229
0.140262
0.140294
0.140326
0.14036
0.140395
0.140433
0.140475
0.140519
0.140568
0.140622
0.14068
0.140747
0.140824
0.140874
0.140957
0.141245
0.141181
0.140257
0.142162
0.149043
0.138331
0.0817258
0.132815
0.673086
1.7172
2.80621
3.64186
4.1821
4.40346
0.139782
0.139837
0.139913
0.139975
0.140047
0.140123
0.140111
0.140087
0.140068
0.140056
0.14005
0.140047
0.140046
0.140048
0.140052
0.140056
0.140062
0.140068
0.140074
0.14008
0.140085
0.140089
0.140092
0.140093
0.140094
0.140094
0.140092
0.140088
0.140084
0.140078
0.140071
0.140064
0.140056
0.140047
0.140037
0.14003
0.140009
0.140027
0.139978
0.139809
0.139837
0.139888
0.139944
0.139996
0.140047
0.140093
0.140133
0.140171
0.140206
0.140239
0.140272
0.140305
0.140338
0.140375
0.140413
0.140455
0.1405
0.140549
0.140604
0.140662
0.140726
0.140804
0.140868
0.14091
0.141147
0.14137
0.140478
0.140672
0.147786
0.147539
0.0950266
0.0823956
0.497874
1.48542
2.63096
3.56189
4.19097
4.49425
0.139854
0.139918
0.13998
0.140039
0.140139
0.140244
0.140239
0.140207
0.140176
0.140151
0.140134
0.14012
0.140111
0.140104
0.1401
0.140097
0.140096
0.140097
0.140098
0.1401
0.140102
0.140104
0.140105
0.140106
0.140107
0.140108
0.140107
0.140106
0.140105
0.140103
0.140102
0.1401
0.140098
0.140097
0.140095
0.140098
0.140089
0.140111
0.140083
0.139879
0.139884
0.139918
0.139961
0.140004
0.140046
0.140086
0.140122
0.140156
0.140188
0.14022
0.140251
0.140283
0.140317
0.140352
0.140391
0.140433
0.140478
0.140527
0.140581
0.140639
0.140701
0.140776
0.140853
0.140884
0.14103
0.141405
0.140881
0.139845
0.145235
0.152659
0.113347
0.0564613
0.338583
1.22963
2.40374
3.42856
4.15405
4.54596
0.13993
0.139967
0.140009
0.140091
0.140227
0.140335
0.140337
0.140304
0.140265
0.140232
0.140206
0.140187
0.140172
0.14016
0.14015
0.140142
0.140137
0.140132
0.140129
0.140127
0.140126
0.140124
0.140124
0.140123
0.140123
0.140123
0.140123
0.140123
0.140123
0.140124
0.140126
0.140128
0.140131
0.140135
0.140139
0.140148
0.140149
0.140173
0.140159
0.139941
0.139939
0.139962
0.139993
0.140026
0.14006
0.140092
0.140122
0.140151
0.14018
0.140208
0.140236
0.140266
0.140298
0.140332
0.140369
0.14041
0.140454
0.140502
0.140555
0.140613
0.140674
0.140743
0.140827
0.14087
0.140933
0.141309
0.141256
0.139721
0.142451
0.15366
0.131931
0.0533393
0.205346
0.961173
2.12591
3.23535
4.06331
4.55068
0.139958
0.139967
0.140022
0.140153
0.14031
0.140386
0.140389
0.140358
0.140316
0.140279
0.140249
0.140227
0.14021
0.140197
0.140186
0.140178
0.14017
0.140164
0.140158
0.140154
0.14015
0.140146
0.140143
0.140141
0.14014
0.140139
0.140138
0.140139
0.14014
0.140142
0.140146
0.140151
0.140157
0.140165
0.140173
0.140186
0.140193
0.140221
0.140215
0.139949
0.139961
0.139984
0.140012
0.140041
0.140071
0.1401
0.140126
0.140151
0.140176
0.140201
0.140227
0.140254
0.140283
0.140314
0.140349
0.140388
0.140431
0.140478
0.140529
0.140585
0.140645
0.140709
0.14079
0.140854
0.140873
0.141146
0.141466
0.140114
0.140257
0.15139
0.146869
0.0685853
0.107314
0.695057
1.80292
2.97717
3.91024
4.49984
0.139931
0.139951
0.140063
0.140236
0.140373
0.140401
0.140398
0.140369
0.140328
0.14029
0.140259
0.140236
0.140221
0.140209
0.1402
0.140193
0.140187
0.140182
0.140176
0.140172
0.140167
0.140163
0.140159
0.140156
0.140153
0.140151
0.140151
0.140151
0.140153
0.140156
0.140161
0.140168
0.140176
0.140187
0.140198
0.140214
0.140226
0.140257
0.140256
0.139903
0.13993
0.139962
0.139996
0.14003
0.140063
0.140093
0.14012
0.140146
0.14017
0.140194
0.140218
0.140243
0.14027
0.1403
0.140332
0.140368
0.140409
0.140454
0.140503
0.140557
0.140615
0.140675
0.140748
0.140827
0.140843
0.140983
0.141468
0.140723
0.139111
0.147273
0.155607
0.0950448
0.0506653
0.449985
1.44599
2.65187
3.68627
4.38424
0.139894
0.139978
0.140155
0.140321
0.140398
0.140393
0.140383
0.140357
0.14032
0.140282
0.140252
0.14023
0.140214
0.140204
0.140197
0.140193
0.140189
0.140185
0.140182
0.140178
0.140174
0.14017
0.140167
0.140163
0.140161
0.140159
0.140158
0.140159
0.140161
0.140165
0.140171
0.140179
0.140189
0.140202
0.140216
0.140234
0.14025
0.140283
0.140288
0.139855
0.139877
0.139912
0.139954
0.139993
0.140032
0.140068
0.140099
0.140128
0.140154
0.140179
0.140205
0.14023
0.140257
0.140285
0.140316
0.14035
0.140388
0.14043
0.140478
0.140529
0.140585
0.140643
0.140706
0.140788
0.140827
0.140864
0.141309
0.141251
0.139048
0.142938
0.157517
0.123818
0.03581
0.246791
1.07372
2.26236
3.38406
4.19419
0.139914
0.140076
0.140271
0.140371
0.140382
0.140379
0.140366
0.140344
0.140313
0.14028
0.140251
0.140228
0.140213
0.140202
0.140195
0.14019
0.140187
0.140184
0.140181
0.140179
0.140176
0.140173
0.14017
0.140167
0.140165
0.140163
0.140163
0.140164
0.140166
0.140171
0.140178
0.140187
0.140199
0.140213
0.140229
0.140249
0.140267
0.140303
0.140312
0.139872
0.139858
0.13988
0.139916
0.139955
0.139996
0.140034
0.140069
0.140101
0.14013
0.140158
0.140185
0.140212
0.140239
0.140268
0.140299
0.140332
0.140368
0.140408
0.140453
0.140502
0.140556
0.140612
0.140668
0.140742
0.140806
0.140802
0.141083
0.141505
0.139735
0.139753
0.153963
0.146569
0.0550725
0.104743
0.713431
1.8198
2.99936
3.92012
0.140023
0.140217
0.140357
0.140369
0.140346
0.140367
0.140361
0.140345
0.140321
0.140294
0.140269
0.140248
0.140231
0.140219
0.14021
0.140203
0.140198
0.140194
0.14019
0.140187
0.140184
0.14018
0.140177
0.140175
0.140173
0.140172
0.140172
0.140173
0.140176
0.140181
0.140188
0.140198
0.14021
0.140225
0.140242
0.140264
0.140284
0.140322
0.140334
0.139981
0.139915
0.139905
0.139921
0.139947
0.139979
0.140012
0.140045
0.140076
0.140105
0.140134
0.140162
0.14019
0.140218
0.140248
0.140279
0.140313
0.140348
0.140387
0.140429
0.140476
0.140527
0.14058
0.140633
0.140695
0.140772
0.140779
0.140885
0.141456
0.140643
0.138398
0.147756
0.158276
0.0928857
0.0347327
0.39983
1.34714
2.53448
3.55403
0.140183
0.140332
0.140375
0.14033
0.140318
0.140363
0.140365
0.140356
0.14034
0.140322
0.140303
0.140286
0.140271
0.140259
0.140249
0.14024
0.140232
0.140225
0.14022
0.140214
0.140209
0.140205
0.140202
0.140199
0.140197
0.140196
0.140196
0.140197
0.1402
0.140204
0.140211
0.14022
0.140232
0.140247
0.140265
0.140287
0.140308
0.140346
0.140361
0.140141
0.140039
0.139993
0.139977
0.139981
0.139996
0.140017
0.140041
0.140065
0.140091
0.140117
0.140143
0.14017
0.140198
0.140227
0.140258
0.140292
0.140327
0.140365
0.140406
0.14045
0.140498
0.14055
0.140601
0.140653
0.140727
0.140767
0.140766
0.141212
0.141299
0.138696
0.141965
0.158791
0.13057
0.0314708
0.16907
0.882292
2.00322
3.09234
0.140314
0.140368
0.140334
0.140291
0.140318
0.140369
0.140373
0.140367
0.140358
0.140348
0.140337
0.140327
0.140319
0.14031
0.140302
0.140293
0.140285
0.140278
0.14027
0.140263
0.140257
0.140252
0.140248
0.140246
0.140244
0.140243
0.140243
0.140244
0.140246
0.14025
0.140256
0.140264
0.140275
0.140289
0.140306
0.140327
0.140349
0.140386
0.140402
0.140274
0.140173
0.140106
0.140064
0.140046
0.140042
0.140047
0.140058
0.140074
0.140091
0.140111
0.140133
0.140157
0.140182
0.140209
0.140239
0.140271
0.140305
0.140343
0.140382
0.140425
0.140471
0.140519
0.140569
0.140616
0.140679
0.140744
0.140723
0.140937
0.141492
0.139838
0.138634
0.152255
0.154257
0.0708423
0.0451901
0.477099
1.43718
2.54103
0.14036
0.14033
0.140278
0.140279
0.140338
0.140379
0.14038
0.140372
0.140365
0.14036
0.140358
0.140357
0.140356
0.140354
0.140352
0.140348
0.140344
0.140338
0.140332
0.140326
0.140321
0.140316
0.140313
0.140312
0.140312
0.140312
0.140313
0.140314
0.140316
0.14032
0.140325
0.140333
0.140342
0.140355
0.14037
0.14039
0.140411
0.140447
0.140461
0.140325