/*--------------------------------*- C++ -*----------------------------------*\
  =========                 |
  \\      /  F ield         | OpenFOAM: The Open Source CFD Toolbox
   \\    /   O peration     | Website:  https://openfoam.org
    \\  /    A nd           | Version:  9
     \\/     M anipulation  |
\*---------------------------------------------------------------------------*/
FoamFile
{
    format      ascii;
    class       surfaceScalarField;
    location    "500";
    object      phi;
}
// * * * * * * * * * * * * * * * * * * * * * * * * * * * * * * * * * * * * * //

dimensions      [0 3 -1 0 0 0 0];

internalField   nonuniform List<scalar> 
21254
(
-0.128673
0.13307
-0.0043936
0.138231
-0.00516466
0.141213
-0.00297955
0.142851
-0.00164039
0.143489
-0.000636356
0.141804
0.00168457
0.138004
0.00379926
0.132325
0.00568078
0.124304
0.00802124
0.114343
0.0099619
0.102389
0.011955
0.0882529
0.0141367
0.0720273
0.0162262
0.0538729
0.018155
0.034538
0.0193357
0.0157935
0.0187463
0.000307147
0.015489
-0.0101625
0.0104708
-0.0160439
0.00587935
-0.0194033
0.00335016
-0.0216258
0.00221934
-0.0234488
0.00181528
-0.0253204
0.00187585
-0.0275267
0.00220472
-0.0300272
0.00248227
-0.0324798
0.00243113
-0.0342836
0.0018203
-0.0347765
0.000533047
-0.0337383
-0.000985531
-0.0310902
-0.00254871
-0.0268528
-0.00426806
-0.021438
-0.00523397
-0.0175781
-0.0042101
-0.0183535
-0.000422593
-0.0275259
0.0103242
-0.0395206
0.0121365
-0.0461706
0.00665273
-0.0321128
-0.0140535
0.0218514
-0.0536754
-0.122205
-0.00647118
-0.115642
-0.00655955
-0.10643
-0.00921248
-0.0955477
-0.0108813
-0.0834734
-0.0120723
-0.0702022
-0.0132717
-0.0561625
-0.0140395
-0.0422192
-0.0139431
-0.0290573
-0.0131621
-0.0169042
-0.0121523
-0.00596641
-0.0109364
0.0038336
-0.00979691
0.0126415
-0.00880612
0.0204286
-0.00778542
0.0273271
-0.00689803
0.0334685
-0.00614027
0.0390265
-0.00555766
0.0441273
-0.00509891
0.0489046
-0.00477653
0.0534396
-0.00453137
0.0578155
-0.00437589
0.0620648
-0.00424654
0.0661815
-0.00412304
0.069969
-0.00379576
0.0733465
-0.00338423
0.0764037
-0.00305955
0.0791366
-0.00272991
0.0815866
-0.00244439
0.0837663
-0.00217025
0.0857058
-0.00193881
0.0874296
-0.00171555
0.0889669
-0.00153194
0.0903562
-0.001383
0.0916449
-0.00128966
0.0928812
-0.00122406
0.0940998
-0.0012088
0.0953269
-0.00128686
0.0964443
-0.00170416
0.100789
-0.00386568
-0.120926
0.127416
-0.0108811
0.133724
-0.0114752
0.139795
-0.00904856
0.144978
-0.00682483
0.149763
-0.00542042
0.153944
-0.00249694
0.157392
0.000352955
0.159941
0.00313109
0.161087
0.00687647
0.160424
0.0106255
0.157429
0.0149509
0.151442
0.0201243
0.141665
0.0260047
0.127131
0.0326891
0.107093
0.0393749
0.081745
0.0440957
0.0531121
0.0441239
0.0256577
0.0379275
0.00446702
0.0270729
-0.00857631
0.0163954
-0.0159315
0.00958033
-0.0204574
0.00634684
-0.0236744
0.0051058
-0.026375
0.0049173
-0.0287569
0.00486853
-0.0307521
0.00442762
-0.0321682
0.00324831
-0.0327552
0.00113675
-0.0320035
-0.00171589
-0.0291198
-0.00536212
-0.0237474
-0.00958949
-0.016988
-0.0118497
-0.0139151
-0.00734162
-0.0197658
0.00494301
-0.0308275
0.0219642
-0.0378242
0.0191898
-0.0384688
0.00730353
-0.0282177
-0.0242414
0.0180009
-0.0998396
-0.113959
-0.0134382
-0.106373
-0.0141429
-0.0972097
-0.0183756
-0.0870925
-0.0209961
-0.075862
-0.0233033
-0.0636348
-0.0254976
-0.0509576
-0.0267167
-0.0383482
-0.0265527
-0.0262178
-0.0252926
-0.0147229
-0.0236466
-0.00408323
-0.0215756
0.00557974
-0.0194588
0.0142535
-0.0174795
0.0220508
-0.0155815
0.0291097
-0.0139561
0.0355413
-0.0125696
0.0414494
-0.0114636
0.0469438
-0.0105894
0.0521279
-0.00995704
0.0570685
-0.00946658
0.0618372
-0.00914123
0.0664821
-0.0088872
0.070993
-0.00863523
0.0752279
-0.0080333
0.0790805
-0.00724054
0.082614
-0.00659537
0.0858277
-0.0059454
0.0887419
-0.00535992
0.0913736
-0.00480357
0.0937336
-0.00430289
0.0958486
-0.00383206
0.097749
-0.00343408
0.0994584
-0.00309403
0.101026
-0.00285787
0.102504
-0.00269669
0.103946
-0.00261759
0.105366
-0.00269699
0.10667
-0.00345206
0.110868
-0.00721227
-0.118251
0.124538
-0.0171751
0.130513
-0.0174473
0.136544
-0.0150834
0.141579
-0.0118581
0.145702
-0.00954376
0.148998
-0.00579302
0.151234
-0.00188376
0.152812
0.00155505
0.153785
0.00590382
0.154479
0.00993291
0.154862
0.0145691
0.154807
0.0201796
0.153657
0.0271543
0.150353
0.0359938
0.142634
0.0470931
0.128043
0.0586869
0.104652
0.067514
0.0740918
0.0684875
0.041796
0.0593672
0.0151845
0.0430029
-0.00208174
0.0268432
-0.0117782
0.0160379
-0.0174524
0.010778
-0.0212189
0.00867933
-0.0241074
0.00774096
-0.0265664
0.00687192
-0.0286062
0.00530014
-0.0298328
0.00239132
-0.0295716
-0.00194273
-0.0269191
-0.00797232
-0.021257
-0.0153119
-0.0137614
-0.019272
-0.00989185
-0.011435
-0.0166043
0.0110859
-0.0274769
0.0333231
-0.0321291
0.0239237
-0.0312402
0.00640827
-0.0232673
-0.0322369
0.0134047
-0.136387
-0.11162
-0.0200647
-0.103903
-0.0218609
-0.0942755
-0.0280007
-0.0838106
-0.0314608
-0.072434
-0.034678
-0.0601291
-0.0378029
-0.0474438
-0.0394018
-0.0351521
-0.038845
-0.0233516
-0.0370931
-0.0121762
-0.0348223
-0.00185831
-0.0318924
0.00759458
-0.0289109
0.0162104
-0.0260938
0.0240658
-0.0234361
0.0312583
-0.0211474
0.0378771
-0.0191879
0.04401
-0.0175955
0.0497472
-0.0163259
0.0551729
-0.0153817
0.0603582
-0.0146507
0.0653802
-0.0141627
0.0702676
-0.0137746
0.0750078
-0.0133803
0.0795046
-0.0125377
0.0836522
-0.0113957
0.0874752
-0.0104219
0.0909963
-0.00946593
0.0942301
-0.0085888
0.0972065
-0.00776972
0.0999233
-0.00701775
0.102423
-0.00632359
0.104716
-0.00571938
0.106846
-0.00521708
0.108836
-0.00485016
0.110742
-0.00459137
0.1126
-0.00447738
0.1144
-0.00457789
0.116225
-0.0056505
0.119142
-0.0100267
-0.115769
0.122716
-0.0241195
0.12931
-0.0240448
0.136129
-0.0219021
0.141941
-0.0176722
0.147029
-0.0146329
0.151275
-0.0100388
0.154619
-0.00522671
0.156836
-0.000663015
0.158023
0.00471854
0.158207
0.00975075
0.15757
0.0152062
0.156433
0.0213175
0.155207
0.0283807
0.154136
0.0370661
0.152823
0.0484064
0.148809
0.0627008
0.137921
0.0784032
0.116301
0.0901083
0.0846637
0.0910064
0.0497721
0.0778971
0.0205534
0.0560662
0.00148784
0.03511
-0.0092454
0.0215212
-0.0153791
0.0148234
-0.0194011
0.0117687
-0.0225648
0.0100404
-0.0252182
0.00796182
-0.0270273
0.00420956
-0.0272769
-0.00168291
-0.0250032
-0.0102074
-0.0193947
-0.0208883
-0.0114968
-0.0270662
-0.0063922
-0.0165211
-0.012667
0.0171507
-0.0237001
0.0446745
-0.0276241
0.0278753
-0.0258883
0.00467638
-0.0189412
-0.0391384
0.00967113
-0.164966
-0.108716
-0.0271184
-0.100827
-0.0297494
-0.0909359
-0.0378909
-0.080358
-0.0420376
-0.0688955
-0.0461405
-0.0565014
-0.0501959
-0.0438732
-0.0520303
-0.0317252
-0.0509933
-0.0201454
-0.0486731
-0.00920198
-0.0457656
0.000873611
-0.0419674
0.0101112
-0.0381479
0.018628
-0.0346095
0.0264668
-0.0312743
0.033712
-0.028391
0.0404526
-0.0259272
0.0467539
-0.0238941
0.0526865
-0.022256
0.0583308
-0.0210222
0.0637509
-0.0200675
0.0689953
-0.0194034
0.0741047
-0.0188817
0.0790743
-0.0183496
0.0838042
-0.0172696
0.0881967
-0.0157906
0.0922648
-0.0144928
0.0960231
-0.0132267
0.0994918
-0.0120601
0.102687
-0.0109674
0.105632
-0.00996746
0.108357
-0.00905236
0.110887
-0.00825203
0.113256
-0.00758799
0.115507
-0.00710178
0.117686
-0.00676425
0.119834
-0.00658936
0.121921
-0.00664008
0.124138
-0.00811937
0.126579
-0.0117168
-0.115108
0.122359
-0.0313672
0.12929
-0.0309764
0.136655
-0.0292681
0.142766
-0.0237853
0.148303
-0.0201685
0.153034
-0.0147716
0.156779
-0.00897307
0.159457
-0.00333852
0.161258
0.00291841
0.161974
0.00903574
0.161753
0.0154281
0.160662
0.0224095
0.159053
0.0299894
0.157232
0.0388872
0.15594
0.0496982
0.155264
0.0633757
0.152965
0.0807021
0.143656
0.0994171
0.1219
0.112762
0.0886122
0.111183
0.0519947
0.092682
0.022035
0.0650669
0.00288269
0.0406713
-0.00775594
0.025458
-0.0139196
0.0179209
-0.0182044
0.014316
-0.0216338
0.0114009
-0.0241143
0.00671451
-0.0249606
-0.000813184
-0.023208
-0.0119379
-0.0179226
-0.0262365
-0.00989984
-0.0350462
-0.00357321
-0.0230268
-0.00880874
0.0219338
-0.0200172
0.0562366
-0.0239848
0.0319154
-0.0217229
0.00240336
-0.0152189
-0.0456594
0.0070711
-0.187169
-0.107592
-0.0346347
-0.0993526
-0.0379872
-0.0888788
-0.0483646
-0.0778903
-0.0530253
-0.0660512
-0.0579781
-0.0533348
-0.0629121
-0.0404548
-0.0649104
-0.0282089
-0.0632395
-0.0166854
-0.0601974
-0.00587079
-0.05658
0.00404497
-0.0518831
0.0131032
-0.0472049
0.0214943
-0.043
0.0292704
-0.0390489
0.0365157
-0.0356355
0.043321
-0.0327308
0.0497432
-0.0303153
0.05584
-0.0283512
0.0616737
-0.0268549
0.0672999
-0.025692
0.0727645
-0.0248676
0.078092
-0.0242088
0.0832837
-0.0235449
0.0882499
-0.0222408
0.0928887
-0.0204369
0.097199
-0.0188079
0.101192
-0.0172217
0.104888
-0.0157539
0.108304
-0.0143758
0.111453
-0.013114
0.114369
-0.0119603
0.11709
-0.0109657
0.119646
-0.0101368
0.122071
-0.00953005
0.12444
-0.00912307
0.126779
-0.00894269
0.129057
-0.00900394
0.131448
-0.0107102
0.133691
-0.0141243
-0.114909
0.12258
-0.039039
0.130109
-0.0385052
0.138015
-0.0371726
0.144659
-0.030429
0.150623
-0.0261368
0.155964
-0.0201111
0.160156
-0.0131641
0.163471
-0.00665459
0.165767
0.000624458
0.167094
0.00770974
0.167481
0.0150422
0.166879
0.0230124
0.165468
0.0314008
0.163399
0.0409562
0.161087
0.0520107
0.159558
0.0649052
0.159095
0.0811653
0.157236
0.101277
0.147414
0.122585
0.12362
0.134978
0.0878507
0.128455
0.0503266
0.102596
0.0210947
0.0699107
0.00313985
0.0434212
-0.00684058
0.0279081
-0.0129966
0.0204772
-0.0175388
0.0159508
-0.0208888
0.0100706
-0.0224878
0.000793455
-0.0214053
-0.0129957
-0.0166747
-0.030947
-0.00876429
-0.0428632
-0.00149713
-0.0302465
-0.00536285
0.0256802
-0.0164652
0.0675735
-0.0209857
0.0364522
-0.0185003
-7.99489e-05
-0.0121202
-0.0519971
0.00556926
-0.204816
-0.10698
-0.0425611
-0.0983804
-0.0465862
-0.0873457
-0.0593982
-0.0758233
-0.0645462
-0.0635016
-0.070299
-0.0503347
-0.0760785
-0.0370874
-0.0781578
-0.0246365
-0.0756908
-0.0130373
-0.0717966
-0.00223262
-0.0673846
0.00759482
-0.06171
0.0165304
-0.0561396
0.0248063
-0.051275
0.0324946
-0.0467357
0.0397054
-0.0428451
0.0465332
-0.0395566
0.0530321
-0.0368123
0.0592526
-0.0345688
0.0652463
-0.0328457
0.0710563
-0.0314989
0.076721
-0.0305294
0.0822618
-0.0297474
0.0876718
-0.0289541
0.092885
-0.0274548
0.0977756
-0.025329
0.102325
-0.0233598
0.106563
-0.0214618
0.110489
-0.0196834
0.114128
-0.0180161
0.11749
-0.0164809
0.120611
-0.0150848
0.123518
-0.0138752
0.126245
-0.0128666
0.128852
-0.0121373
0.131375
-0.0116359
0.133877
-0.0114066
0.136303
-0.0113925
0.138794
-0.0132905
0.140912
-0.0156201
-0.115517
0.123735
-0.0472608
0.131644
-0.0464108
0.140142
-0.0456714
0.147288
-0.0375775
0.153751
-0.0325973
0.159487
-0.0258496
0.164168
-0.017847
0.167828
-0.0103113
0.170588
-0.00213436
0.172364
0.00593461
0.1732
0.0142071
0.173206
0.0230074
0.172368
0.0322383
0.170734
0.0425904
0.168479
0.0542654
0.165947
0.0674373
0.164256
0.082855
0.163956
0.101577
0.161726
0.124814
0.149573
0.147131
0.122028
0.155998
0.0836578
0.140965
0.0462883
0.107279
0.019086
0.0706213
0.00294543
0.0440426
-0.00635571
0.0297733
-0.0125807
0.0221872
-0.0171104
0.0146219
-0.0196875
0.00339213
-0.0194662
-0.0132032
-0.0155087
-0.034963
-0.00795687
-0.0503867
-0.000163449
-0.0382024
-0.00248649
0.0276144
-0.0130825
0.0784678
-0.018475
0.0419129
-0.0160523
-0.00252141
-0.00961718
-0.0584425
0.0049908
-0.21935
-0.107083
-0.0509924
-0.0979984
-0.0556716
-0.0863567
-0.0710388
-0.0742493
-0.076652
-0.0613764
-0.0831709
-0.0476098
-0.0898443
-0.0338777
-0.0918899
-0.0210682
-0.0885006
-0.00924436
-0.0836206
0.00169006
-0.0783193
0.0114943
-0.0715136
0.0203601
-0.065005
0.0285461
-0.0594597
0.036148
-0.0543368
0.0432992
-0.0499945
0.0501233
-0.0463796
0.0566598
-0.0433468
0.0629668
-0.0408747
0.0690894
-0.0389661
0.075063
-0.0374716
0.0809122
-0.0363768
0.0866537
-0.0354895
0.0922869
-0.034588
0.0977291
-0.0329019
0.102873
-0.0304776
0.107683
-0.0281765
0.112163
-0.025945
0.116332
-0.023854
0.120197
-0.0218764
0.123782
-0.0200656
0.127108
-0.0184038
0.130214
-0.0169738
0.133136
-0.015784
0.135908
-0.0149118
0.138609
-0.014331
0.141262
-0.0140782
0.143832
-0.0140585
0.146407
-0.0159672
0.148427
-0.017952
-0.116621
0.125377
-0.0560063
0.133859
-0.0548933
0.14299
-0.0548011
0.150575
-0.0451611
0.157516
-0.0395435
0.163716
-0.0320481
0.168781
-0.0229111
0.172941
-0.0144719
0.176026
-0.00521735
0.17822
0.00374205
0.179541
0.0128873
0.179948
0.0226005
0.179542
0.0326444
0.178409
0.0437234
0.176585
0.0560901
0.174129
0.0698938
0.171493
0.0854911
0.169924
0.103147
0.169707
0.125032
0.165942
0.150898
0.149696
0.172247
0.11747
0.173194
0.0771106
0.147644
0.0412737
0.106465
0.0168878
0.0684344
0.00253666
0.0441303
-0.00631214
0.0310426
-0.0124821
0.0207976
-0.0163424
0.00725908
-0.0172294
-0.0122992
-0.0142692
-0.0379114
-0.00733392
-0.0572397
0.000554286
-0.0460317
-0.000228056
0.0283286
-0.00997
0.0883933
-0.0163391
0.0482904
-0.0142417
-0.00461784
-0.00769069
-0.0649535
0.00509442
-0.232077
-0.107701
-0.0599163
-0.0981339
-0.0652375
-0.0857557
-0.0834166
-0.072969
-0.0894378
-0.0594413
-0.0966974
-0.0450355
-0.10425
-0.0307023
-0.106223
-0.0174237
-0.101779
-0.00529091
-0.0957534
0.00582303
-0.0894327
0.0157145
-0.0814045
0.0245662
-0.0738557
0.0326952
-0.0675876
0.0402228
-0.061863
0.0473225
-0.0570926
0.0541174
-0.0531727
0.0606656
-0.049893
0.0670293
-0.047236
0.0732493
-0.0451836
0.0793572
-0.0435766
0.0853685
-0.0423858
0.0913017
-0.0414204
0.0971488
-0.040434
0.102828
-0.0385812
0.108222
-0.0358722
0.113286
-0.0332415
0.118021
-0.0306821
0.122439
-0.0282748
0.126544
-0.025982
0.130353
-0.0238773
0.133902
-0.0219559
0.137213
-0.0202869
0.140331
-0.0189036
0.143294
-0.017873
0.146158
-0.0171834
0.14897
-0.0168485
0.151693
-0.0167352
0.154341
-0.0186001
0.156308
-0.0194029
-0.118323
0.127595
-0.0652838
0.136638
-0.0639341
0.146386
-0.0645474
0.154482
-0.0532605
0.161976
-0.047035
0.168658
-0.0387333
0.174173
-0.028426
0.178631
-0.0189275
0.182161
-0.00874629
0.184689
0.00121489
0.186308
0.0112694
0.187084
0.0218255
0.18709
0.0326384
0.186344
0.044469
0.184939
0.0574949
0.182944
0.0718886
0.180308
0.0881269
0.177601
0.105853
0.176336
0.126298
0.175901
0.151332
0.169195
0.178953
0.147275
0.195114
0.110318
0.1846
0.0694016
0.147381
0.0362707
0.101564
0.0148134
0.0655867
0.00188422
0.0439836
-0.00661849
0.0293215
-0.0121786
0.0128404
-0.0144879
-0.00997706
-0.0127733
-0.0396781
-0.00672969
-0.063257
0.000855018
-0.0537713
0.00141613
0.027424
-0.00725896
0.0973196
-0.0144928
0.0555884
-0.0129393
-0.00619506
-0.00627286
-0.0716212
0.0056104
-0.243906
-0.108778
-0.0694608
-0.098641
-0.0753761
-0.0855176
-0.0965408
-0.0720658
-0.102888
-0.0577792
-0.110983
-0.0426287
-0.119399
-0.0275601
-0.121291
-0.0137529
-0.115586
-0.00121301
-0.108293
0.010193
-0.100838
0.0202269
-0.0914381
0.0291368
-0.0827644
0.0372592
-0.0757094
0.0447423
-0.0693447
0.0517808
-0.0641302
0.0585379
-0.059928
0.0650711
-0.0564251
0.0714691
-0.053632
0.0777591
-0.0514726
0.0839788
-0.0497944
0.0901409
-0.0485473
0.0962479
-0.0475263
0.102293
-0.0464805
0.108207
-0.0444973
0.113858
-0.0415277
0.119172
-0.0385601
0.124165
-0.0356817
0.128829
-0.0329417
0.133186
-0.030338
0.137235
-0.0279288
0.141008
-0.0257257
0.14454
-0.0238141
0.147859
-0.0222176
0.151017
-0.0210358
0.154074
-0.0202371
0.157057
-0.0198583
0.159924
-0.0197015
0.16266
-0.0213974
0.164604
-0.0217082
-0.120385
0.130309
-0.0752067
0.139947
-0.0735696
0.150399
-0.0749991
0.159013
-0.0618735
0.166932
-0.0549592
0.174134
-0.0459338
0.180056
-0.0343464
0.184921
-0.0237927
0.188804
-0.0126281
0.191666
-0.00164584
0.193628
0.00930854
0.194783
0.0206714
0.195084
0.0323377
0.194635
0.0449185
0.193604
0.0585253
0.191935
0.0735577
0.189689
0.0903741
0.186783
0.10876
0.184202
0.12888
0.183499
0.152037
0.181982
0.180472
0.170545
0.206554
0.142077
0.213072
0.101483
0.187979
0.0615167
0.141535
0.0316866
0.0954217
0.0128677
0.0628077
0.000975893
0.0412184
-0.00684506
0.0206672
-0.0109803
-0.00583011
-0.010807
-0.0398463
-0.00596828
-0.0680284
0.000938631
-0.0606213
0.0025131
0.0258109
-0.00501056
0.104989
-0.0128676
0.0634499
-0.012028
-0.0070346
-0.00533329
-0.0782783
0.00627423
-0.255437
-0.110317
-0.0795321
-0.0995675
-0.0861284
-0.0856097
-0.110498
-0.0713291
-0.117168
-0.0562987
-0.126012
-0.0402745
-0.135423
-0.0244661
-0.137099
-0.0100073
-0.130044
0.00301455
-0.121314
0.0147945
-0.112618
0.0250464
-0.101689
0.0340504
-0.0917676
0.0422112
-0.0838688
0.0496873
-0.0768198
0.0566833
-0.0711244
0.0633921
-0.0666357
0.0699172
-0.062948
0.0763149
-0.060028
0.0826599
-0.0578149
0.0889681
-0.0561008
0.0952495
-0.0548261
0.101519
-0.0537945
0.107764
-0.0527235
0.113904
-0.0506365
0.119794
-0.0474181
0.12537
-0.0441366
0.130615
-0.0409278
0.135542
-0.0378701
0.140147
-0.0349431
0.144442
-0.0322252
0.148458
-0.0297431
0.15221
-0.0275661
0.155749
-0.025757
0.159114
-0.0243972
0.162361
-0.0234682
0.165515
-0.0229685
0.168555
-0.0226879
0.17139
-0.0241557
0.173307
-0.0231921
-0.122937
0.133463
-0.0857278
0.143689
-0.0837943
0.154842
-0.0861523
0.164086
-0.0711204
0.172585
-0.0634556
0.180283
-0.0536336
0.186557
-0.0406211
0.191852
-0.0290844
0.19609
-0.0168658
0.199292
-0.00484566
0.201538
0.00706289
0.202923
0.0192872
0.203552
0.0317084
0.203463
0.0450074
0.202643
0.059345
0.201266
0.074935
0.199344
0.0922957
0.196815
0.111289
0.193701
0.131995
0.191534
0.154205
0.191204
0.180802
0.187145
0.210614
0.169188
0.23103
0.134375
0.222793
0.091717
0.184193
0.053994
0.133147
0.0276747
0.0891361
0.010964
0.0579494
9.5494e-05
0.0315557
-0.00637174
0.00065386
-0.00812915
-0.0381343
-0.00485035
-0.0712866
0.00101754
-0.0666235
0.0031881
0.0233198
-0.0032029
0.111594
-0.0114033
0.0717064
-0.01141
-0.00705111
-0.00482048
-0.0848653
0.00684482
-0.267061
-0.112179
-0.090295
-0.100815
-0.0974923
-0.0859773
-0.125336
-0.0708535
-0.13229
-0.0549215
-0.141943
-0.0380342
-0.152309
-0.021364
-0.153768
-0.00619581
-0.145212
0.00741096
-0.134921
0.0195888
-0.124795
0.0301396
-0.112239
0.0393189
-0.100946
0.047572
-0.092121
0.0550504
-0.0842972
0.0620227
-0.0780956
0.0687089
-0.0733207
0.075201
-0.0694389
0.0816085
-0.0664342
0.0879738
-0.0641788
0.0943476
-0.0624734
0.100741
-0.0612177
0.107154
-0.0602074
0.113583
-0.0591517
0.119942
-0.0569978
0.126077
-0.0535557
0.131904
-0.0499683
0.137415
-0.046444
0.1426
-0.0430606
0.147469
-0.0398145
0.152016
-0.0367773
0.156269
-0.0339979
0.160266
-0.0315617
0.164027
-0.0295175
0.167609
-0.0279844
0.171055
-0.0269186
0.174402
-0.0263462
0.177607
-0.0259984
0.180543
-0.0271427
0.182467
-0.0254944
-0.125805
0.13705
-0.096974
0.147951
-0.0946932
0.159849
-0.098051
0.169645
-0.080916
0.1787
-0.072515
0.186934
-0.0618654
0.193738
-0.0474245
0.199387
-0.0347328
0.203968
-0.0214454
0.207468
-0.00834368
0.210041
0.00449045
0.211753
0.0175759
0.212598
0.0308632
0.212729
0.0448764
0.212208
0.0598669
0.211054
0.0760894
0.209339
0.0940108
0.20711
0.113519
0.204162
0.134943
0.201044
0.157325
0.199682
0.182166
0.19902
0.211279
0.190371
0.239681
0.164925
0.248242
0.124717
0.224405
0.0816941
0.176174
0.0472796
0.123555
0.0241839
0.0810489
0.00918963
0.0465545
-0.000253199
0.0101041
-0.0044555
-0.0339325
-0.00315568
-0.0725383
0.0013213
-0.0710546
0.00365317
0.0209632
-0.0017219
0.117091
-0.0100404
0.0800281
-0.011009
-0.00608258
-0.00473394
-0.0911062
0.00707505
-0.278781
-0.114398
-0.101701
-0.102303
-0.109588
-0.0865763
-0.141062
-0.0705288
-0.148336
-0.0536763
-0.158794
-0.0358375
-0.170147
-0.0182173
-0.171387
-0.00229056
-0.161138
0.0119375
-0.149148
0.0246328
-0.137489
0.035549
-0.123155
0.0449535
-0.110349
0.0533073
-0.100474
0.0608549
-0.0918435
0.0678321
-0.0850721
0.0744913
-0.0799782
0.0809609
-0.0759075
0.0873506
-0.0728219
0.0937396
-0.0705665
0.100159
-0.0688906
0.106635
-0.0676921
0.113177
-0.0667475
0.119785
-0.0657578
0.126359
-0.0635705
0.132731
-0.0599274
0.13881
-0.0560477
0.144578
-0.0522125
0.150032
-0.0485146
0.155155
-0.0449372
0.159966
-0.0415889
0.164475
-0.0385066
0.168712
-0.0357966
0.172715
-0.0335182
0.176513
-0.0317762
0.180176
-0.0305628
0.183714
-0.0298392
0.187092
-0.0293171
0.190167
-0.0301035
0.192123
-0.0270892
-0.12911
0.140997
-0.108857
0.15261
-0.106308
0.165301
-0.110742
0.175774
-0.091392
0.185441
-0.0821795
0.194211
-0.0706373
0.201478
-0.0546908
0.207566
-0.0408178
0.212462
-0.0263405
0.216281
-0.0121611
0.219114
0.00165809
0.221064
0.015626
0.222219
0.029709
0.222604
0.0444909
0.222285
0.0601866
0.221309
0.0770649
0.219774
0.0955457
0.217768
0.115525
0.215179
0.137533
0.211843
0.160661
0.209119
0.184891
0.208613
0.211786
0.205954
0.242343
0.190741
0.263457
0.157643
0.257504
0.113619
0.2202
0.0722078
0.164975
0.0415642
0.111707
0.0211217
0.0670168
0.00785617
0.0233875
0.000570321
-0.0266825
-0.000602792
-0.0713461
0.0021102
-0.0738911
0.00416249
0.0186284
-0.000384475
0.121813
-0.0087083
0.0884049
-0.0107582
-0.00405726
-0.00504821
-0.0968085
0.00676994
-0.290575
-0.116901
-0.113911
-0.104146
-0.122342
-0.0874051
-0.157801
-0.0704108
-0.165329
-0.0525242
-0.176679
-0.0336155
-0.189054
-0.0150531
-0.189949
0.00174412
-0.177934
0.0166608
-0.164064
0.0299216
-0.15075
0.0412386
-0.134471
0.0509143
-0.120025
0.059469
-0.109028
0.067096
-0.0994702
0.0741126
-0.0920875
0.0807735
-0.0866386
0.08722
-0.0823526
0.0935859
-0.0791869
0.099972
-0.0769511
0.106432
-0.0753496
0.11298
-0.0742393
0.119643
-0.0734093
0.126403
-0.0725172
0.133184
-0.0703519
0.139789
-0.0665341
0.146116
-0.0623788
0.152144
-0.0582446
0.157855
-0.0542316
0.163251
-0.0503385
0.168328
-0.0466731
0.1731
-0.0432849
0.177596
-0.0402961
0.18184
-0.0377668
0.185876
-0.0358224
0.189756
-0.0344505
0.193507
-0.0336266
0.197071
-0.0329901
0.20026
-0.0333476
0.202279
-0.0294435
-0.132703
0.145353
-0.121507
0.157722
-0.118677
0.17126
-0.124282
0.182412
-0.102544
0.192683
-0.0924537
0.202035
-0.0799875
0.20981
-0.0624643
0.216291
-0.0472982
0.221578
-0.0316254
0.225694
-0.0162759
0.228842
-0.00148917
0.231037
0.0134316
0.232418
0.0283281
0.233021
0.0438886
0.232852
0.0603556
0.232104
0.0778137
0.230725
0.0969246
0.228826
0.117425
0.226505
0.139854
0.22346
0.163707
0.220012
0.188341
0.21827
0.21353
0.217967
0.242648
0.211157
0.27027
0.18781
0.280854
0.147607
0.260406
0.102146
0.210438
0.0638736
0.149983
0.0366964
0.0941968
0.0185237
0.0415635
0.00736465
-0.0155272
0.00312074
-0.0670732
0.00365931
-0.0744035
0.00500123
0.0172649
0.00101812
0.125898
-0.0073233
0.0967514
-0.0105906
-0.00079061
-0.00575389
-0.101615
0.00578348
-0.302023
-0.119805
-0.126809
-0.106162
-0.135983
-0.0884309
-0.175532
-0.0703812
-0.183376
-0.0514637
-0.195595
-0.0314672
-0.20905
-0.0117902
-0.209624
0.00590264
-0.195626
0.0216086
-0.179769
0.0354839
-0.164625
0.0472787
-0.146265
0.0572766
-0.130022
0.066041
-0.117791
0.0737985
-0.107227
0.0808573
-0.0991453
0.087533
-0.0933137
0.0939762
-0.0887943
0.100329
-0.0855382
0.106714
-0.0833344
0.113194
-0.081829
0.119804
-0.0808468
0.12656
-0.0801636
0.133476
-0.0794318
0.140452
-0.0773263
0.147279
-0.07336
0.153849
-0.0689491
0.160134
-0.064529
0.166116
-0.0602141
0.171783
-0.0560047
0.177132
-0.052021
0.182171
-0.0483226
0.186924
-0.0450467
0.191427
-0.0422643
0.195706
-0.0400931
0.199817
-0.0385406
0.203781
-0.0375442
0.207539
-0.0366864
0.210894
-0.0365716
0.21298
-0.0312259
-0.136638
0.150132
-0.135002
0.163264
-0.131811
0.177697
-0.138716
0.189535
-0.114385
0.20047
-0.103386
0.210493
-0.0900129
0.218734
-0.0707041
0.225674
-0.0542351
0.231392
-0.0373422
0.235837
-0.0207192
0.239229
-0.00488114
0.241683
0.0109786
0.243217
0.0267938
0.244031
0.0430749
0.244115
0.0602716
0.243513
0.0784163
0.242299
0.0981387
0.240502
0.119222
0.238223
0.142134
0.235479
0.166452
0.232009
0.191812
0.228973
0.216567
0.228423
0.243199
0.226724
0.271971
0.21331
0.294269
0.181028
0.292691
0.135789
0.255683
0.0913775
0.194406
0.0567053
0.128884
0.0324262
0.0658587
0.016437
0.000434109
0.00838047
-0.0590056
0.00625849
-0.0723739
0.0064393
0.0168242
0.0026991
0.12979
-0.0057795
0.105277
-0.0104311
0.00384576
-0.0068248
-0.105213
0.0040345
-0.312875
-0.122931
-0.140515
-0.108542
-0.150372
-0.0896596
-0.194412
-0.0705269
-0.202508
-0.0504724
-0.215648
-0.0292645
-0.230255
-0.008484
-0.230404
0.0102283
-0.214337
0.0267277
-0.196268
0.041312
-0.179209
0.0536109
-0.158564
0.0639997
-0.14041
0.0730361
-0.126828
0.0809492
-0.115139
0.088112
-0.106308
0.0948136
-0.100014
0.101258
-0.0952387
0.107613
-0.091891
0.113991
-0.0897122
0.120484
-0.0883204
0.127135
-0.0874962
0.133984
-0.0870112
0.141036
-0.0864835
0.1482
-0.0844903
0.155249
-0.0804093
0.162056
-0.0757586
0.168594
-0.071071
0.174837
-0.0664626
0.180778
-0.0619515
0.186397
-0.0576492
0.191714
-0.0536485
0.196746
-0.0500872
0.201505
-0.0470331
0.206044
-0.0446495
0.210399
-0.0429107
0.214587
-0.0417721
0.218548
-0.0407572
0.222056
-0.0401482
0.224244
-0.0337146
-0.140962
0.155308
-0.149348
0.169247
-0.14575
0.184599
-0.154069
0.197171
-0.126957
0.208855
-0.115074
0.219521
-0.100676
0.228312
-0.0794936
0.235731
-0.0616543
0.241823
-0.043432
0.246574
-0.0254693
0.250245
-0.00855056
0.252942
0.00828178
0.254762
0.0249735
0.255725
0.0421118
0.255964
0.060034
0.255506
0.078874
0.25442
0.0992258
0.252724
0.120918
0.250562
0.144298
0.247968
0.169046
0.244731
0.19505
0.241105
0.220194
0.239204
0.245103
0.239318
0.271858
0.233718
0.299872
0.211456
0.314954
0.171017
0.296125
0.123563
0.241863
0.0816967
0.170753
0.050287
0.0972696
0.0283985
0.0223158
0.0155785
-0.0461695
0.0101755
-0.0669661
0.00873208
0.0182457
0.00486299
0.133738
-0.00395874
0.114106
-0.0101898
0.0100761
-0.00821781
-0.10716
0.00148126
-0.322492
-0.126368
-0.155109
-0.111078
-0.165661
-0.0910585
-0.214431
-0.0707645
-0.2228
-0.0495111
-0.2369
-0.0270398
-0.252727
-0.00504196
-0.252401
0.0147175
-0.234095
0.0321258
-0.213676
0.0474528
-0.194535
0.0603386
-0.171449
0.0711446
-0.151216
0.0804624
-0.136145
0.0885966
-0.123273
0.0958556
-0.113566
0.102639
-0.106796
0.109091
-0.10169
0.115447
-0.0982456
0.121821
-0.0960853
0.128327
-0.0948238
0.135019
-0.094187
0.141939
-0.0939296
0.149122
-0.0936647
0.156461
-0.0918279
0.163722
-0.0876696
0.170759
-0.082794
0.177546
-0.0778584
0.184054
-0.0729697
0.190268
-0.0681659
0.196172
-0.0635525
0.20177
-0.0592442
0.207071
-0.0553843
0.212113
-0.0520683
0.216912
-0.0494385
0.221521
-0.0474972
0.225945
-0.0461518
0.230115
-0.0448651
0.233808
-0.0437062
0.236145
-0.0358015
-0.145584
0.16079
-0.164555
0.175631
-0.160593
0.191988
-0.170427
0.205356
-0.140327
0.217797
-0.127512
0.229117
-0.111997
0.238514
-0.0888907
0.246437
-0.0695743
0.252914
-0.0499076
0.258019
-0.0305728
0.262033
-0.0125638
0.264945
0.00537059
0.266953
0.0229651
0.268113
0.0409516
0.268484
0.0596636
0.268173
0.0791849
0.267184
0.100215
0.265605
0.122497
0.263451
0.146453
0.260938
0.17156
0.257952
0.198038
0.254296
0.223852
0.251186
0.248214
0.250808
0.272238
0.249859
0.300823
0.237353
0.327463
0.205335
0.328146
0.159011
0.288194
0.111691
0.218083
0.0727242
0.136247
0.0438861
0.0511326
0.025188
-0.0274628
0.0157019
-0.057558
0.0121021
0.0216539
0.00770696
0.138257
-0.00172124
0.123585
-0.00975486
0.0181018
-0.00985428
-0.107052
-0.00189505
-0.330445
-0.130092
-0.1706
-0.113891
-0.181862
-0.0926468
-0.235672
-0.0710961
-0.244351
-0.0485885
-0.259407
-0.0247982
-0.276515
-0.00146868
-0.275729
0.0193889
-0.254953
0.0377778
-0.232064
0.0538986
-0.210656
0.0674046
-0.184954
0.0786714
-0.162483
0.0883626
-0.145836
0.0967126
-0.131623
0.104138
-0.12099
0.110996
-0.113655
0.117503
-0.108196
0.123864
-0.104605
0.130244
-0.102464
0.136753
-0.101332
0.143473
-0.100905
0.150465
-0.10092
0.157767
-0.100966
0.165283
-0.0993433
0.172736
-0.0951228
0.180002
-0.0900607
0.187032
-0.0848911
0.193805
-0.0797469
0.200289
-0.0746552
0.206476
-0.0697475
0.212358
-0.0651371
0.217952
-0.0609906
0.22327
-0.0574021
0.228341
-0.05453
0.233218
-0.0524002
0.237884
-0.0508601
0.242285
-0.0493784
0.24617
-0.0476665
0.248653
-0.0385145
-0.150591
0.166747
-0.180713
0.182536
-0.176382
0.199853
-0.187746
0.214145
-0.154619
0.227292
-0.140662
0.239396
-0.124098
0.249366
-0.0988592
0.257812
-0.0780199
0.264752
-0.056846
0.270238
-0.0360579
0.274467
-0.0167922
0.277673
0.00216501
0.279847
0.0207914
0.281177
0.0396217
0.281742
0.0590989
0.281515
0.079412
0.280654
0.101077
0.279151
0.124001
0.277082
0.148522
0.274537
0.174106
0.271671
0.200905
0.268296
0.227229
0.264566
0.251945
0.262777
0.274029
0.263269
0.300332
0.258336
0.332397
0.236505
0.349979
0.195595
0.329106
0.145965
0.267716
0.100029
0.182183
0.0634574
0.0877005
0.0377484
-0.00174681
0.0231801
-0.0429945
0.016782
0.0280294
0.0114162
0.143679
0.00108436
0.133921
-0.00899097
0.0281753
-0.0116289
-0.104394
-0.00603
-0.335974
-0.134153
-0.187038
-0.116955
-0.19906
-0.0943875
-0.25824
-0.0715588
-0.267177
-0.047677
-0.283287
-0.0224697
-0.301723
0.00218936
-0.300386
0.0242972
-0.27706
0.0436894
-0.251455
0.0606948
-0.227661
0.0748826
-0.199141
0.0866759
-0.174275
0.0967424
-0.155902
0.105373
-0.140253
0.112971
-0.128588
0.119939
-0.120622
0.126513
-0.114769
0.132893
-0.110985
0.139277
-0.108846
0.145801
-0.107854
0.152552
-0.107653
0.159601
-0.107968
0.167015
-0.108378
0.17469
-0.107017
0.182343
-0.102775
0.189824
-0.0975406
0.19709
-0.092157
0.204115
-0.0867715
0.210876
-0.0814159
0.217342
-0.0762131
0.223518
-0.0713121
0.229397
-0.0668654
0.235011
-0.063009
0.240374
-0.0598811
0.245511
-0.0575156
0.250451
-0.0557602
0.255078
-0.0539488
0.259202
-0.0516629
0.26189
-0.0409953
-0.15593
0.173089
-0.197873
0.189808
-0.193103
0.208301
-0.20624
0.223376
-0.169696
0.237439
-0.154722
0.250273
-0.136934
0.26095
-0.109534
0.269892
-0.0869604
0.277294
-0.0642467
0.283134
-0.0418966
0.287737
-0.0213948
0.291141
-0.00123852
0.293578
0.0183549
0.295068
0.0381309
0.295751
0.0584166
0.295656
0.0795072
0.294862
0.101872
0.293403
0.12546
0.291354
0.150572
0.288804
0.176656
0.28596
0.20375
0.282771
0.230418
0.279023
0.255695
0.276024
0.277029
0.275834
0.300523
0.275236
0.332997
0.263113
0.362105
0.230904
0.36132
0.182958
0.315668
0.131966
0.233181
0.0875285
0.132125
0.0538352
0.0319498
0.0329995
-0.0222112
0.0229941
0.037903
0.0161759
0.150601
0.00462874
0.145515
-0.00773078
0.0405398
-0.013388
-0.0987257
-0.010802
-0.33855
-0.138495
-0.204472
-0.120251