/*--------------------------------*- C++ -*----------------------------------*\
  =========                 |
  \\      /  F ield         | OpenFOAM: The Open Source CFD Toolbox
   \\    /   O peration     | Website:  https://openfoam.org
    \\  /    A nd           | Version:  9
     \\/     M anipulation  |
\*---------------------------------------------------------------------------*/
FoamFile
{
    format      ascii;
    class       volScalarField;
    location    "150";
    object      p;
}
// * * * * * * * * * * * * * * * * * * * * * * * * * * * * * * * * * * * * * //

dimensions      [0 2 -2 0 0 0 0];

internalField   nonuniform List<scalar> 
112055
(
0.0191534
0.00628125
-0.00290862
-0.00467203
0.00663285
0.00873626
0.0185844
-0.00452039
-0.000734205
0.0192062
0.00631324
0.0175847
-0.000561072
0.0175974
0.0289046
0.000805295
-0.0539652
0.0235969
0.00630225
-0.00111123
0.00127956
0.00222484
0.00631934
0.00167134
-0.000328066
0.00339879
0.0404909
0.00703457
0.00869756
0.00129893
0.0100684
-0.0134656
0.000761728
-0.0604547
-0.000754682
0.000683798
-0.00116571
0.06189
-0.0078252
0.000534744
0.000599712
-0.00696945
0.00235339
-0.00283379
0.0241286
0.000764742
-0.0593147
0.000825084
0.000485076
-0.00677826
-0.00435196
-0.022621
0.00163727
-0.00758388
-0.00142561
0.0186959
-0.00901488
-0.00500215
-0.013872
0.000741034
0.0161319
0.00118544
-2.20956e-05
-3.24243e-05
0.0127087
-0.00109434
0.0643994
0.00217281
0.00362014
0.000290688
-0.00529392
-0.0668528
0.00177808
0.0375104
-0.0462715
-0.0372739
0.00539451
0.0190218
-0.0152982
-0.00731911
-0.00575764
-0.0406937
-0.00422545
0.00335869
0.000807847
0.00402102
-0.00282808
-0.0013961
-0.0217015
-0.00135391
0.000546152
0.000686577
-0.00315621
0.00660637
-0.0447972
0.00535848
-0.00598195
0.0285724
0.0100706
-0.0092572
-0.000540507
0.000582764
0.00080573
0.00710698
-0.0304127
-0.0533557
0.0127005
0.00229379
0.000482939
0.00400403
-0.0663427
-0.00719446
-0.000729817
0.00702476
0.00364029
0.0217749
0.0119606
0.000764167
-0.0212866
-0.000801167
0.00794324
0.00704551
0.0191483
-0.00132869
0.000606019
0.00703041
-0.0743862
-5.61029e-05
-0.00100487
-0.0300819
-0.00136612
0.0401599
-0.00102182
0.0524993
-0.00808904
0.000548795
0.000913786
0.00318128
-0.00189092
-0.0177636
0.0031056
-0.0248523
-0.00361342
0.0127255
0.00229866
-0.00207348
0.0216249
0.00162366
0.000762705
0.00338539
-0.0542768
0.00214366
0.0168009
0.00162727
-0.00187592
0.00849335
0.0107953
0.00712234
-0.0130994
-0.00414992
-0.000716819
-0.000877426
-0.000138984
-0.00118056
0.000471306
0.00105853
0.0107266
-0.013678
0.000536977
0.0126037
0.00995196
0.00847182
-0.000146018
0.0125366
-0.0102805
-0.000821625
0.000399328
-0.00124725
-0.00334734
0.00283349
-0.0101724
0.00126694
0.000892851
0.010094
-0.00964337
0.0174954
-0.00100963
0.000466101
-0.00395514
0.00010788
0.00407979
0.000766899
-0.00131412
0.0079647
-0.00172669
-0.000134907
-0.00583354
-0.00775189
-1.86408e-05
0.0107576
0.0627842
0.0139272
0.0162209
-0.00290893
0.00239321
0.0215347
0.0667925
0.0108136
-0.0533965
0.000818844
0.00299133
0.000569463
0.0212502
0.000809902
-0.00570726
0.0109314
0.010047
-0.00357501
-1.79831e-07
-0.00500508
0.000852402
-0.0198609
-0.00108154
-0.00432903
-0.0332
0.000522215
0.000579762
0.00984784
0.00576316
0.000708385
0.000672642
-1.86107e-05
-0.00952589
0.00616348
-0.0226552
-0.00494335
-0.00013181
0.000675111
-0.069066
0.0984051
0.00309791
-0.0095292
-9.37114e-05
0.00318193
0.000249117
-0.0225345
-0.00351959
-0.00666928
-0.000310804
-0.00485055
-0.000296826
0.00123255
-0.0697704
-0.000104298
-0.00560869
0.00343431
0.00404751
-0.00103211
-0.0139442
0.000798082
-0.0337114
0.0198544
0.00101023
0.0178579
0.0526462
0.000176476
0.00231877
-0.00120852
0.0150037
0.00213259
-0.000284227
0.00779021
4.79859e-05
-0.0214831
5.81279e-05
-0.0216865
-0.0478294
-0.0663488
-0.0660298
-0.0699537
0.000480787
0.00563658
0.0142502
0.0090098
0.00686363
-0.00349405
0.00727792
0.000647642
3.17317e-05
0.0152754
-0.0021747
0.000166282
0.00730063
0.000204001
0.00619722
0.00684289
0.0116242
-0.000478176
0.000489247
0.000558841
0.00587998
0.0100976
0.00970868
0.00711003
-0.00499525
-0.00115125
0.000862472
-0.0015184
7.65437e-05
0.000552019
-0.00113063
0.00402744
0.00109971
-0.00968405
-0.0078213
-0.0203747
-0.0083253
-0.00474056
9.77161e-05
0.000493421
0.000240215
0.0535735
0.0306654
-0.000459133
-0.00329018
-0.00353656
-0.0252785
0.00241244
0.00568842
0.000905334
0.00574552
-0.00397803
0.0117843
-0.0036797
-0.0038359
0.00166674
0.000717192
-0.00633707
0.00412074
-0.0125218
0.0628
-0.0734094
-0.000445759
-0.000309871
-0.00208203
-0.0068204
0.00157317
-0.00777076
0.0125253
-0.00533547
0.0270139
0.0161163
0.0175534
-0.0259529
-0.0014384
-0.00145166
0.0376635
0.00291739
0.000795019
0.0181388
-0.0510521
0.000791242
-0.00370528
0.108716
-2.78628e-05
-0.0689925
-0.0109607
-0.0046482
0.00578596
-0.000461904
0.0239121
0.0243314
0.012081
0.0176566
0.141106
0.000195198
0.000181342
-0.00214637
-0.0029903
-0.000726287
0.00108668
0.00923132
0.0181621
-0.00143647
-0.00163134
7.27447e-05
6.63617e-05
-0.00331209
0.0140634
0.0234025
0.00119028
0.00282991
-0.00920094
-0.0211543
0.0371676
-0.00231968
0.00401769
-0.00609837
-0.0047138
-0.00960658
0.0191277
0.00196739
-0.0160453
0.0167775
0.00190801
-0.0392392
-0.00617102
0.000263425
0.00126436
0.00458596
-0.00364902
0.000366772
8.97235e-05
0.00035801
0.0016231
-0.00668443
0.00773472
-0.00768405
-3.92607e-05
0.00838961
0.0311059
-0.000710312
0.00245168
0.00853176
0.00726962
-0.0035823
0.0118352
-0.00410847
-0.00813884
-0.00632612
0.000102772
0.0119453
-0.00188618
-0.0115496
-0.0116725
0.0267065
0.000507139
-0.00789754
0.0976576
0.0264696
-0.00349816
-0.00566151
0.007766
-0.028102
0.00526917
3.21339e-05
0.0372192
0.0261057
-0.0040264
-0.0058315
-0.0192209
0.00788637
-0.000707167
0.00895596
-0.00344558
-0.0554266
-0.000889842
-0.00278784
0.0109417
0.000561163
0.00153361
-0.00189982
0.000163832
-0.0115895
-0.00922285
-0.000691004
0.000706733
0.0167594
0.0072866
-0.000428962
0.00925913
0.000570377
-0.00185119
0.000789015
0.00820527
-0.00418141
3.86692e-05
0.00083615
-0.000266351
-0.0100524
-0.0250076
-0.0729513
-0.00156544
-0.0155602
0.000472251
-0.0131541
0.0141057
-0.00203541
-6.9851e-05
5.89275e-05
0.00015689
-0.0451968
-0.00506969
-0.000643077
0.0116189
-0.000809314
0.0085294
0.000446098
0.000220945
0.00127386
0.00270867
0.00146338
-0.000792636
0.0115492
-0.000559816
0.00731325
0.000211915
-0.0560151
0.000456605
0.00070344
-0.0041982
0.0243518
0.00475044
0.00453505
0.063362
0.000659787
0.000628959
0.000144183
-0.0280173
-0.00811691
0.00960724
-0.000478229
0.000651745
-0.00114709
0.00406589
-0.00699076
0.00129792
0.0674635
-0.000278014
0.000644772
0.00793249
-0.00214863
-0.0556635
0.0521845
0.000424797
0.0140805
-0.00528337
-0.0911038
-0.0010564
0.000921353
0.000511663
0.000856908
-0.0886741
0.0271645
-0.00160723
-0.00522867
-0.00215709
0.00378932
0.00833019
0.000837032
0.0272396
0.00759473
0.0107532
-0.0248325
0.00853853
-0.000333652
-0.0139296
0.000227418
-0.000835438
-0.0114019
-0.0274608
0.000585153
0.000472942
0.00275518
0.106547
-0.00115259
-0.00197926
-0.0662798
0.000468176
-0.0658746
-0.0114735
0.0083847
0.00059739
-0.0578215
0.00282224
0.00577932
0.00794426
0.000230959
0.0108065
-0.0369265
-5.34394e-05
4.58581e-05
0.013993
0.00630974
0.0102479
0.00135206
0.0098077
0.00357778
0.00818244
0.00287409
0.00789272
0.0019481
0.000663149
0.00192797
-0.000614457
0.00850139
0.00488661
-0.000101368
0.00693883
-0.00170964
0.0002539
-0.000705081
-0.0106657
0.00743974
-6.12989e-05
0.00406942
-0.000917749
0.00987024
0.0112681
0.000619266
-0.000785391
0.0121775
-0.000470376
-0.00275066
0.0492764
0.00761851
-0.000606611
0.000669239
-0.00105627
0.00529179
-0.0185913
0.0104488
0.00712839
-0.000826979
0.00735133
-0.054626
1.00633e-05
-0.00555438
-0.000369944
-0.00451158
0.00062025
-0.0700733
0.000600389
-0.0623998
0.00343716
0.000430282
0.00125386
0.0036155
-0.0049155
0.00632829
0.000740257
-0.00483399
-0.000632257
-0.00196659
-0.000402909
0.0245212
0.0757734
0.00991964
-0.0288397
-0.0028006
-0.0727399
0.000585344
0.000779096
0.0203235
0.000725782
0.000434409
0.0117897
0.0155681
-0.00307338
-0.00357871
0.0112849
0.010006
-0.00376237
0.0179497
1.54927e-06
-0.00034551
-0.0190377
-0.0565714
0.000631402
0.00697975
-0.00732873
-0.0241782
0.00254602
0.0186142
1.48551e-06
0.00109756
0.00665271
0.0200873
0.0783698
0.00127574
0.000718077
0.000390301
0.000388357
-0.0468489
-0.00118809
0.0139612
-0.00316875
0.000255595
-0.0468437
0.00513011
-0.00149903
0.00917404
0.00641863
0.00835904
0.0244191
0.0180638
0.0239289
0.0135755
4.1592e-05
-0.0225308
-0.000810881
0.000288447
0.0098101
0.000389331
-0.000349878
0.00422305
-0.000637016
0.000851557
0.130649
-0.00145581
0.0106888
0.000276543
0.000389111
-0.0048308
0.00283342
-0.00671632
0.0134863
0.00194507
0.00595233
0.000500579
-0.000545017
-0.000561943
0.000581354
-0.00976395
0.000444285
0.0113178
0.0138798
0.0118576
0.00202647
0.00211715
0.000378056
0.0163918
-0.0561766
-0.00104664
0.00833981
0.00073767
0.0476983
-0.00331184
0.000192879
-0.000597056
-0.00972792
0.000459545
-0.0131377
0.0081803
-0.0662668
0.00238599
-0.00823966
0.0120578
0.00599665
0.00658133
0.000640842
0.000538548
0.000175913
-0.00755676
0.000229985
0.0123078
0.00829296
0.00070332
0.0175442
0.000916751
0.000181023
-0.00663459
-0.00329981
-0.0272742
0.0385925
0.0623691
0.00824176
-0.000433199
0.000467062
-0.000339199
0.000541864
-0.00323892
0.00344643
0.000740717
0.000742065
0.0074382
-0.0548089
-0.000214418
0.000216723
0.015942
-0.00965726
0.0185646
-0.000472715
-0.000128915
-0.0852059
-0.00343534
0.000558985
0.00075894
-0.00103198
-0.00936904
-0.000221833
-0.00130315
0.000800672
-0.0136285
-0.00159497
-0.00355952
-0.0493301
-0.00118951
0.00586477
0.000564288
-0.000604234
0.0151576
-0.000988
0.00281414
-0.101015
0.000463447
0.00568448
0.0073941
0.00293708
0.000578404
-0.0236733
0.000391928
-0.00575276
0.014139
-0.0010684
-0.00930518
0.000673567
0.00989396
0.000519607
-0.00155724
-0.000135134
0.00843115
0.00226159
0.00966902
0.000214951
-0.00967026
0.0166347
-0.00511044
-0.00947468
-4.37829e-05
0.000521078
0.017029
0.0182406
3.62106e-05
0.129508
0.00711229
0.000267147
0.00683699
0.0123014
-0.0050902
2.58857e-05
0.13977
0.01554
-0.000564057
0.000788823
0.0006702
-0.0204344
-0.000420425
0.0101712
0.00057542
-0.00129412
0.00285221
0.0384971
0.000573059
-0.00936064
-0.00174534
0.0183232
0.000943846
0.00904417
0.00116949
0.0783967
0.000655707
-0.000617156
-0.0131153
-0.0105171
0.000330774
0.00682772
0.0103055
-0.0460323
3.20044e-05
-0.00549264
0.00815255
0.0154157
-0.0825927
-0.0262346
0.00738946
0.0089935
0.00309825
-0.0134186
0.00576234
0.00042982
0.000753825
0.000145542
7.96907e-05
0.000148806
-0.000661251
0.00202088
0.0147836
0.000651083
0.00506705
0.0016476
0.00666334
-0.000595398
-0.011752
-0.0381624
0.00293113
-0.00324166
0.0861426
-0.000528094
-0.0545012
-0.00325261
0.00595422
-0.0064902
0.00065019
-0.00808357
-0.0374681
-0.000656024
0.00564328
-0.00127999
0.00554114
0.017454
-0.00113546
0.0035438
0.00501338
-0.0547426
0.00939531
0.000496907
-0.00171155
-0.00549578
0.000527119
0.00132939
0.000152908
0.00159663
-0.00154575
0.00269513
0.00614234
0.00133054
0.009873
0.000459449
0.00113795
0.000227674
0.00343697
-0.000369824
0.000213426
-0.00335611
-0.000726856
-0.0121404
0.000526926
0.0101343
0.000623508
0.0141106
0.0111157
0.000470009
0.00472034
-0.0258578
0.00102156
0.000759511
0.00250209
-0.010032
0.0205192
-0.0616711
0.0067346
0.000660631
0.00425788
-0.00432362
0.0217386
0.000204036
-0.00104854
-0.0115732
-0.035894
0.000788056
3.24322e-05
-0.00350677
-0.000132408
-0.00170327
0.00069583
-0.0365143
0.000996322
-0.0934295
0.000737737
0.00921404
-0.0034043
0.0072686
-0.00865595
-0.00529255
-0.000625117
-0.0373019
0.0361029
-0.000272664
0.01828
0.004673
0.000648297
0.000638003
-0.0219163
0.0104268
0.00569392
0.000663764
-0.0152349
0.00482098
0.000584545
-0.0081554
0.0182266
0.000640306
-0.00428477
0.0105672
0.00713017
0.00032243
0.0120586
-0.0004685
0.0104654
-0.00122539
-0.00105842
0.000498035
-0.0015783
-0.00254775
0.0378903
-0.00303239
-0.0213917
0.00408843
-0.000354258
-0.0723308
0.00344867
0.000261863
0.000330611
-0.0220717
0.00691214
0.00768562
0.00962294
0.000244927
0.00699202
-0.00281795
-0.0526201
0.000885786
0.000934083
-0.00200933
-0.0100444
0.000578346
0.00640731
0.000380804
-0.00243963
0.0233852
-0.00223621
-0.00251021
-0.00100606
0.000453975
0.0623386
0.00234837
-0.00619064
-0.00050565
0.00501528
0.0078352
0.0164355
0.000395512
-0.0509669
0.00925646
-0.00123107
0.00152199
0.00666837
-0.000644142
-0.0436118
0.00158834
-0.0120861
0.000635802
0.000802378
0.00768421
-0.014652
0.000627403
0.00266138
-0.000476146
0.000972859
0.00647756
0.02356
-0.00114113
0.0751494
-0.0273634
-0.00367353
-0.00461779
-0.00825808
0.000707044
0.0167571
0.0103634
0.0111615
-0.0229061
0.000907348
-0.0721882
0.000102936
-0.00303734
-0.0492843
-6.26113e-05
0.0105974
-0.000114242
2.75868e-06
-6.79704e-05
0.00572431
-0.00204818
-0.000435743
-7.52396e-05
0.000700499
-0.00103766
-0.000370871
-0.011943
-0.00419895
-0.00217083
0.00213728
0.00245173
0.000653525
0.00252495
0.0484279
0.000572544
0.0102514
-0.00901379
-0.00248214
0.00726354
5.96701e-05
0.00152667
0.00419333
-0.00791622
-0.000312165
0.000763788
0.000649098
-0.0148941
-0.00619479
0.000128416
0.00092643
-4.98923e-05
-0.00438732
0.0216431
0.00550947
0.000851846
0.000501424
0.00722804
-0.000357421
0.0742033
-0.001315
-0.00121971
0.113686
0.0057869
-0.0543735
0.011024
0.00277987
0.00685776
-0.00111975
-0.0154618
0.014808
0.0274174
-0.0193963
0.000502051
0.0818495
0.00150628
-0.0577764
-0.0102597
-0.00391206
-0.000575684
-0.0100568
0.000756726
-0.000839882
0.000534607
0.000677906
-0.00159141
0.0160936
-9.06889e-05
0.010602
0.00176614
-0.00183392
-0.0184269
-0.00207075
0.00274287
0.000298453
0.0159755
-0.00665591
-0.000746967
0.0169608
0.00871606
0.00153131
0.000481092
0.000289928
-0.00133193
-0.00583535
0.00929694
0.00725076
0.0249099
0.000793387
0.00482462
-0.00131541
-0.000412557
-0.00826145
-9.05447e-05
0.0312696
0.00664153
-0.000576208
0.0355681
0.000678059
-0.0899894
0.0177585
0.000664945
0.00699439
-0.00835486
0.109383
0.00128044
-0.0663246
0.00111596
0.00199045
0.00177279
0.00232708
-0.0019179
0.00127723
-0.00679466
-0.0380008
-0.014503
-0.0033526
0.00100609
-0.0102075
-0.070476
-0.081185
0.0005867
0.0920588
-0.0793145
-0.000673414
0.00710673
0.000483447
-0.00171248
0.00188403
-0.000313863
0.000856292
0.000612536
0.000579059
0.0106381
-0.0229559
-0.00161317
0.00175983
-0.0428708
-0.0376363
0.00957198
-0.00170562
0.000205728
-0.00156224
0.00710634
-0.00112983
0.0073305
0.0121275
-0.00965456
0.0581514
-0.0038611
0.0296537
-0.0202215
0.00104946
0.00846083
0.000651191
0.00099642
0.0146515
-0.00838449
-0.00031341
0.0164759
0.000639101
0.000417822
-0.00236707
-0.00182381
-0.0741771
-0.00799707
0.0107583
0.000873459
0.000947121
0.00275349
0.0743883
-0.0409401
0.0100567
0.00102744
0.00251522
0.0433804
0.000356623
-0.00112557
0.000409531
0.0052556
-0.00174716
-0.000486168
0.0079064
-0.0119908
0.000613039
-0.000619395
0.00108502
0.000423914
0.00887522
-0.000128508
0.00125323
0.00863187
0.00474405
-0.0117178
-0.00359427
0.00760434
0.0623852
0.0168445
0.000856725
-0.000932978
0.00515134
0.0108043
-0.000437114
-0.00618028
0.0138832
2.2262e-05
0.0560158
-0.0539877
0.00086352
-0.00325214
0.00855005
0.000287618
-0.0041318
-0.00426261
0.000146385
-0.00614096
-0.0526937
0.0100068
-0.000535515
0.0888501
0.000846116
-0.000156876
0.00929884
0.00699472
0.00706198
0.000651367
-0.00177973
0.0112281
0.000501195
-0.0592895
-0.0681872
-0.00833534
-0.000341519
-0.000902171
-0.000491035
0.000338199
0.00064751
-0.00227442
-0.000337428
-0.000917611
0.0108161
0.0161401
-0.00214374
-0.00945658
-0.000406571
-0.00570793
-0.00645
0.000575805
0.00305755
0.00247847
-0.00116686
-0.00818802
0.00875672
-0.0537397
-0.00392184
0.00243492
0.0126546
0.000553688
-0.019512
0.00102256
0.010374
0.000597729
-0.000198685
-0.0046854
-0.000225625
0.0583978
-0.000456444
-0.00731427
0.000712313
-0.00592663
-0.00246731
-0.00527695
0.00798944
0.00468465
0.0462815
-0.00347147
0.0112893
-0.000826596
-0.0100919
-0.00478094
-0.00078222
0.000434196
0.00108399
-0.00401464
0.00123601
-8.95612e-05
0.0108479
-0.0127699
-0.0755467
0.00302344
0.00131359
0.0046862
0.00906766
0.00485581
0.0253981
-0.000127348
0.000204091
-0.00540476
0.00606359
0.00441174
0.00911909
-0.0205696
-0.0174076
-0.00113896
-0.060168
-0.000835573
0.0125129
-0.00420229
0.000596607
4.98983e-05
0.00902574
0.0245885
0.00294437
-0.00487725
0.0596643
0.00213352
-0.0140751
0.00083098
0.0102535
-0.0628127
-0.0261589
-0.00265072
-0.00505188
-0.00862372
0.0061838
0.00645653
-0.0696841
-0.00319126
0.0254193
0.00712667
0.000447506
0.0147438
-0.011989
-0.000461884
0.00692893
-0.0313505
0.00345557
-0.000577428
0.000700991
-0.00243695
-0.00794157
0.000538214
-0.0663271
-0.0532564
0.00249324
-0.00256643
-0.0122395
0.0122924
-0.000469761
-0.000424574
-0.041777
0.0148973
-0.00229385
0.00454908
0.0862341
0.0058664
-0.0127121
-0.00850709
0.0106237
0.0003115
-0.0629597
-9.29035e-05
0.00458317
-0.0946472
0.11178
0.00349122
0.00856704
-0.0121825
-0.000399475
0.0111392
0.00238012
-0.00102473
-0.00103758
-0.00251227
0.0128599
0.0982603
0.00911586
0.000135209
0.000653174
0.000147255
-0.000292278
-0.000242533
0.0468088
0.000227841
0.0480535
0.000549856
-0.00105688
-0.0376391
-0.00201275
-0.00465713
-0.00224643
-0.000745644
0.000523516
0.0104171
0.000518552
0.000190556
0.00358413
0.000661268
0.0452354
0.00601522
0.0172723
-0.0440062
0.000187817
0.0083243
-0.0829463
0.00444844
0.00943507
0.000698606
0.0227603
0.0364047
-0.0547128
-0.00511821
-0.000604318
-0.00121849
-0.00687527
0.000787375
-0.00290345
0.0115536
-0.00160574
-0.00182482
0.0351892
-0.00288015
-0.00112442
0.0109506
-0.101285
0.00521606
0.000178541
0.00950067
0.000682699
0.00877658
0.00137885
0.000663861
0.00771179
0.000300236
-0.000572357
0.012353
0.00212065
-0.000234888
-0.000337912
-0.0111141
0.00678804
0.00801957
-0.00157583
-0.00795418
-0.00144588
-0.0146157
0.00147555
0.00372711
-0.000245503
0.000681363
0.125446
0.00287037
0.00677334
-0.00206744
-0.078618
0.00313141
0.000710746
-0.0113102
0.0103742
-0.00145163
0.0183425
-0.0594441
-0.00512173
0.0108536
0.0472079
6.58359e-05
0.0114166
0.000949593
0.00685665
0.000927159
-0.0192716
-0.0120776
0.000560423
-0.0110199
0.00855871
0.00804631
0.0133077
0.000678107
-0.000238062
0.00151741
0.00235511
0.00974275
0.000571852
0.000733136
-0.0154459
0.000843943
0.00195881
0.0005766
-0.0692022
0.000578126
0.00692743
0.00876994
-0.0115821
0.0103392
0.00667915
0.0073307
-0.0144246
0.00242925
0.000230933
0.00629901
2.35508e-05
-0.00403361
0.000710086
-0.0660998
0.00407396
0.00999153
0.0181355
0.000495309
-0.00310023
-0.00327975
0.000248678
0.00425389
0.00909516
0.0096326
0.00092931
0.0341432
0.00863103
0.00295588
0.00040756
0.0222721
0.000163015
0.00960518
0.000593301
0.00265323
-0.0141471
-0.0387676
-0.000363201
0.0069094
0.0282286
0.0660435
0.0118697
0.00522259
-0.0196313
-0.000623166
7.13895e-05
-0.00158752
0.00145649
0.000260697
0.000315409
0.00951621
0.000478622
0.00401252
-0.00106294
0.000514548
-8.30518e-06
-0.0774481
-0.0581367
-0.000345729
0.000548061
-0.0252041
0.000682626
0.0186582
-0.00233033
0.0145366
0.0078613
0.000656498
-0.00675295
-0.0115485
0.000660964
0.000690807
-0.000239084
-0.000751218
-0.00769903
0.00874988
0.0146986
-0.071709
-0.00334424
0.0015326
0.000628922
0.000644564
0.000757567
0.000399865
0.000600379
-0.0504828
-0.0228642
-0.000848329
0.00179854
-0.025404
0.00242212
0.00578398
-0.00148679
-0.0014586
-0.0128929
0.0114572
0.0088969
-0.00476238
0.00853654
0.000204892
-0.000130302
0.000740908
0.000621921
0.0213417
-0.0700544
-0.0653889
0.0344388
0.00484864
0.00700552
0.00079169
0.022238
0.00739376
0.00993643
-0.0563999
0.00773597
-0.0871587
-5.73151e-05
-0.0202962
0.00325188
0.00457044
-0.0062535
0.0458059
-0.0755341
0.000927134
-0.00313958
-0.000415204
-0.0117891
0.000242082
0.0093381
0.000709919
0.00690456
0.00859686
0.00023289
0.00131087
-0.0399844
-0.0329982
0.00832914
6.88813e-05
0.00059286
-0.0820095
0.0069393
0.000411247
-3.40743e-06
0.000793826
-0.000864676
0.00943385
-0.000426935
0.0175482
0.00940991
0.000126623
0.000703932
-0.0116747
-0.0761112
0.00608921
0.0102367
0.000111456
-0.00150035
0.00739664
0.00137514
-0.00570811
0.0414573
0.00068991
0.000434905
0.0111991
-0.0106244
-0.02508
-0.0659961
0.0090798
-0.0416902
0.000772715
-0.0162186
-0.00163936
-0.000520255
0.000598466
0.0117416
4.58388e-05
-0.00800638
-0.0085289
-0.00113509
-0.0596672
0.0100269
0.00667883
-0.0184362
0.00642344
-0.00137281
-0.00476629
0.00782348
-0.00123374
0.00156712
0.0123501
0.00453394
0.000767749
-0.00303208
0.0104936
-0.00115653
-0.00589575
-0.00957813
0.000323
-0.0089755
0.0069418
-0.000248099
-0.00585725
-0.000535523
0.00686814
0.000313796
0.0118555
0.00072763
0.011812
-0.000295678
0.00335055
0.00731933
0.00973424
-0.00117744
-0.00648172
-0.000659796
-0.000697096
0.0118167
-0.0399004
0.00068478
-0.0549162
-0.000271636
-0.00261025
-0.00146576
-0.00791504
-0.00436142
0.0035351
-0.00401155
0.00737975
-0.0177274
0.000448665
0.000644609
-0.0207438
-0.00550572
-0.000900356
-0.00229366
0.00697201
-0.00616739
-0.0126161
0.0107737
-0.00141852
0.00984257
-0.000968966
0.0263697
-0.00188478
0.00327642
0.00192007
0.00104749
0.00213827
-0.00158475
-0.00152584
0.00131613
0.00784197
0.00666469
0.00884555
0.0118959
-0.00033063
0.0162239
0.00536631
-0.0594925
-0.00327105
0.000846003
-0.0624672
0.00703051
-0.0553086
0.006041
-0.00181632
-0.00138132
0.00871333
-0.0217903
3.83746e-05
-0.00860205
0.00146014
0.000572073
0.000301688
0.00605347
-0.00788969
0.000956784
-0.00279969
0.00786878
-0.000894992
0.00968524
6.41454e-05
0.00790633
-0.0549693
0.053634
0.00936532
-0.0230168
0.00125848
0.0063117
0.00277208
0.000650557
0.00109684
0.00101545
-0.0110464
0.0279202
0.000449142
0.00136503
-0.00323192
-0.000800626
0.00360721
0.00145296
0.000266024
0.000619696
0.00960779
0.000426068
0.001989
0.000317932
-0.00175582
0.0109221
0.0123912
0.000495225
0.0400707
-0.0134515
0.000828349
0.00691705
0.000722752
0.000160323
0.0102082
0.000742207
0.000505554
-0.00474417
-0.00327326
-0.00142387
0.000406116
0.00958769
-0.000270752
0.0262382
0.00837632
0.0012367
0.0035072
-0.0817737
-0.00475729
0.0057135
0.0006636
0.000187042
-0.0105001
1.65412e-06
-0.00120503
0.0199298
0.00125855
-0.0158338
0.000692393
0.0105388
0.000159548
-0.0116788
0.00436037
-6.99376e-05
0.0100123
-0.000857692
0.00448869
-0.00368263
0.00929734
0.00439006
0.000572542
-3.18655e-06
-0.0368959
-0.059663
-0.0477825
0.000331001
0.00844987
0.0382662
-0.00274128
0.00076185
0.0117267
-0.000335964
0.00321184
-0.0316076
-0.00632513
0.000441936
-0.00591107
0.00170099
-0.00688984
0.00234102
0.0117929
-0.048707
-0.000828863
-0.000838658
-0.00225179
0.00276513
0.00158892
-0.000388105
0.000667776
-0.0123728
0.000201869
-0.0345216
-0.00336628
0.0106451
0.012152
0.00492446
0.00181045
-0.00148014
0.0024203
0.00527978
0.000953557
0.0205612
0.0108362
-0.00169368
0.000727552
0.00281039
0.0874896
0.0180391
-0.000511958
0.0280122
0.00740386
0.00170178
0.00919538
0.000178017
0.00344637
-0.00805552
0.00131556
0.00583191
0.000727204
0.0239076
-0.000224244
0.000652277
0.0125811
0.000373665
-0.00524039
0.00596768
0.0175964
0.000701608
0.0182084
-0.0133904
-0.00749999
0.000620279
0.0372319
-0.0584121
0.00730835
0.00133312
-0.000574148
-0.000745172
0.00422254
0.00736715
0.00746288
-0.0081291
0.00709736
-0.0337135
-0.00239945
-0.0471234
0.00296932
-0.000677492
0.000116383
0.000296821
0.0183365
-0.000443172
0.0585977
-0.00783186
5.32506e-05
-0.00266365
0.000478573
0.00861946
0.00611849
0.0055915
-0.000848501
-0.00131001
-0.0536428
-0.0037143
-0.0168179
0.000601065
0.000822556
0.00186083
0.00521453
-0.000917369
0.0100731
-0.00280388
0.00586971
0.00749471
0.000926392
0.0314465
0.00656926
0.0311951
-0.000347101
0.00173229
-0.0170585
0.009746
-0.0498736
0.0035117
0.00153639
-0.00664029
-0.00155528
0.00952672
-0.00212218
0.0123562
0.00062057
4.55008e-05
0.000260822
0.000100241
-0.0120146
0.0211804
-0.0127171
-0.00605491
-0.0285402
-0.000405019
0.000640816
0.0234777
0.0174555
0.000294496
0.000122784
0.00869767
0.00434352
0.000598617
-5.11175e-05
-0.0161395
-0.0568689
0.000314968
0.0096595
0.000138997
-0.00219058
0.00129966
0.0320135
0.0148159
-0.00112311
-0.00144614
0.00377664
-8.15807e-05
-0.0540967
-0.00398633
-0.0668852
0.00576352
0.0133473
0.000437945
-0.00280153
-0.066102
0.077907
0.000597207
-0.00131583
-0.000675585
0.000366486
-0.00413052
0.000591356
0.008652
0.0220995
-0.00118429
0.00894232
-0.0463082
0.00708282
-0.00214822
-0.0315416
-2.8782e-05
0.0315146
0.000732554
-0.0814885
0.00711309
-0.000324068
0.000251876
-0.025118
0.000568981
-0.0109221
0.0101536
-0.02237
0.0087707
0.0133666
-0.0127271
0.00873797
-0.000223284
0.00979278
-0.0420181
0.0127919
0.0078142
0.000460202
0.0150702
0.00663588
0.000624543
0.00846562
0.00603246
0.0058153
-0.0845682
-0.00799805
-0.0464965
-0.000402692
0.0301012
-5.02381e-06
0.000620318
0.0150297
-0.0527334
-0.00412763
0.00134992
0.000871863
0.028831
0.00724924
0.0170871
0.000362264
-0.000464529
-0.0834893
0.00707818
0.00476595
0.000260524
0.00850585
0.000443647
-0.00118176
0.000629468
-0.00331312
0.000774528
0.000502414
0.00318088
0.00962868
-0.0066823
0.00493368
-0.0120254
0.000668243
-0.0291844
0.00128839
-0.00539254
-0.00402319
-0.00141622
0.00479835
-0.00526228
0.0113042
-0.00828113
0.0243758
-0.000110336
-0.00182927
0.00699221
0.000952293
-0.0121338
0.00233169
0.0216858
0.00801928
0.0779129
0.00012311
0.00400463
0.00845576
0.0169521
0.0204726
-0.00190402
0.000568428
-0.000160585
0.00138825
-0.000121315
-0.00134797
0.070807
0.0949708
-0.0108976
-0.00614384
0.0100742
0.0151517
-0.00280765
-0.0052352
-0.097753
0.00984412
-0.000863368
0.00735489
6.26101e-05
0.000938741
-0.00730127
0.00480979
0.00101061
0.0222403
0.000648519
-0.0653855
-0.00133723
0.00737326
-0.00765703
0.000659735
-0.00962429
0.00394892
-0.00296049
0.000212097
0.00159138
-0.000727801
-0.0668508
-0.0188607
0.00919192
0.00158463
0.019002
0.00615133
-0.0519247
-0.00704002
0.0133232
-0.012909
0.0095155
0.00812994
-0.000283141
0.00916045
-0.00825856
0.00768151
-0.00113742
0.000830753
0.00335117
0.000591207
-0.000436117
-0.0814495
-0.0059146
0.000495848
-0.0016068
0.000652689
0.00355726
-0.0617018
-0.0601011
0.00636436
0.0290216
-0.07984
-0.000615024
-0.0851875
0.00410156
-0.0170058
0.00986133
0.00988455
0.00821457
-0.0129251
0.00225653
-0.0666708
-0.0540388
0.00335428
-0.0032363
0.00999363
-0.0233024
-0.00186855
0.000308208
-0.0714708
-0.0664932
-0.0576613
0.00576288
0.000567755
0.00824724
0.00128744
0.00148447
-0.000607597
-0.00158189
0.00992217
-0.00661021
0.000565462
0.000400678
0.00660749
0.00807932
0.0108628
-0.072119
-0.000805062
0.000646269
0.000147026
0.00704655
-0.0116639
0.0176759
-0.00386687
0.00846127
-0.0191643
0.000246071
0.00641889
0.000661514
0.00965212
0.00753564
-0.00121589
-0.0495931
0.00425897
0.0298216
-0.000194414
0.00803663
-0.0009057
-0.000243561
-0.0599308
-0.000190422
-0.00443775
-0.0065105
-0.00960614
-0.000790921
-0.0676832
-0.0324824
0.00424116
0.00535231
0.000118381
0.000167889
0.00788278
0.0167006
0.00245256
-0.0116687
0.000417694
0.000125403
-0.00110391
-0.0105782
0.000118208
0.0101376
0.000349835
-0.023274
-0.00114911
0.030003
0.00296238
0.00670279
-0.00879215
6.59081e-05
-0.0107147
6.80241e-05
0.0021966
0.000836304
-0.0194502
-0.0810837
0.00340427
0.0221341
-0.0094613
-0.0389178
-0.00122341
-0.000880623
7.58791e-05
-0.043469
-0.019072
0.000255369
0.000360593
-0.070027
0.0105433
-0.00203814
0.00826822
0.0417293
0.00117942
0.00741994
0.000390774
0.0478427
0.00286562
0.00639586
0.00743067
0.000489473
0.000493695
0.00069322
-0.0164155
-0.0121949
-0.0447656
-0.0151071
0.0105176
0.000800713
0.0080293
0.00143396
0.000746787
0.000695899
0.000676641
-0.000125716
0.000623677
-0.00133795
-0.0811696
0.0014827
-0.0589033
0.0118455
0.000853063
0.000646478
-0.00214806
-0.0038316
0.000685921
-0.00322449
-0.0179233
0.00877037
0.00156441
0.00025941
0.000754812
0.00514346
-0.00111782
-0.0520561
-0.00346492
0.000275701
3.04804e-05
0.00605688
0.0150535
-0.000839029
0.00289995
-0.0488681
0.000690935
0.010791
0.00694557
0.00639451
0.00237738
0.00952601
0.00703804
0.0304624
0.00974552
-0.000346663
-0.00825045
0.00215838
-0.00735526
0.00487907
-0.0314017
-0.0018267
0.00742734
0.000762314
-0.00969534
0.00830726
-1.66112e-05
-0.00451695
0.000836455
-0.00167655
-0.0236274
0.000123257
0.0444612
0.000923977
-0.0123129
0.00108495
0.00759647
-0.0796601
0.0010184
0.0316457
-0.00495292
-0.00669784
0.000593623
0.0013803
-0.00153132
0.00894952
0.000106403
0.000978451
0.0097701
0.0298335
0.00513428
0.00788846
-0.00155232
-0.0253465
0.00944174
-0.00912143
-7.39941e-05
-0.0117976
-0.00883022
-0.00123728
0.00461456
0.00525292
0.00981873
0.00665732
0.00582696
0.00184637
0.000590865
0.041199
0.00807739
0.000394776
0.00748913
-0.0084505
0.00541962
0.00688778
-0.00543338
0.000386976
7.16784e-05
0.00220814
0.0092142
-0.0015987
-0.000891638
0.0108648
-0.00371779
0.000670626
-0.0048523
0.0114578
-0.00432016
-0.00782185
0.000273394
-0.0258284
-1.09352e-05
-0.000989774
1.53126e-05
0.00257889
-0.00165795
0.000505364
-0.00862009
-0.000736925
0.000460375
0.00683404
-0.0096686
-0.0630634
0.000838742
0.000720808
0.00546185
-0.00098933
-0.0130163
0.00772639
0.00336021
-0.00123075
0.00104836
-0.00170085
0.0164916
0.000748879
0.00549175
0.00048217
-0.00176231
0.0165837
-0.0259291
0.00933545
-0.0242506
0.000285445
-0.0018607
0.000704696
-0.0250395
-0.000766458
0.00730613
-0.00324294
0.00727663
0.000702826
0.00131425
-0.000494586
-0.0631252
0.0162292
-0.0427667
0.00558501
0.00553413
-0.000448125
0.000450021
-0.00923158
0.000624874
-0.000229597
0.000349401
4.1144e-05
-0.000240778
0.00668953
0.000558611
0.00749741
-0.00895788
-0.0116207
-0.000245177
-0.0114153
0.0044137
-0.024364
0.00671866
0.0117337
-0.019419
0.00179007
-0.000223578
0.0151242
-0.00189159
-0.00528784
0.0411315
-0.0507063
-0.0446895
-0.0559227
0.000654297
0.0128272
0.000616418
0.000792711
0.00128222
-0.00383649
0.00619566
0.00461579
0.00698953
-0.0144232
0.00012851
0.000372739