/*--------------------------------*- C++ -*----------------------------------*\
  =========                 |
  \\      /  F ield         | OpenFOAM: The Open Source CFD Toolbox
   \\    /   O peration     | Website:  https://openfoam.org
    \\  /    A nd           | Version:  9
     \\/     M anipulation  |
\*---------------------------------------------------------------------------*/
FoamFile
{
    format      ascii;
    class       surfaceScalarField;
    location    "150";
    object      phi;
}
// * * * * * * * * * * * * * * * * * * * * * * * * * * * * * * * * * * * * * //

dimensions      [0 3 -1 0 0 0 0];

internalField   nonuniform List<scalar> 
167688
(
-0.0423775
0.0255091
0.0168683
0.00811848
-0.0735494
0.0654309
0.0354664
0.0483261
-0.0837925
0.038581
-0.0847031
0.0461221
0.0893745
-0.0776186
-0.0117558
-0.0731105
0.013169
0.0599415
0.0420983
-0.0248045
-0.0172938
-0.0385224
0.0771034
-0.124744
0.0422804
0.0824635
-0.0261702
-0.00376859
0.0299388
-0.0515932
0.0597117
-0.061866
0.0351178
0.0267482
0.116887
-0.0894507
-0.0274364
-0.0466449
-0.015221
-0.03752
0.0171065
0.0204136
0.0418847
0.0329312
-0.0748159
0.0190454
-0.00259448
-0.0164509
0.021405
-0.02606
0.00465502
0.0301853
0.0387781
-0.0689635
0.1079
-0.0661164
-0.041784
-0.0840211
-0.0216127
0.105634
0.0471616
0.0497804
-0.096942
0.0625967
-0.0324113
-0.0887551
0.0646275
0.0241275
0.0938393
-0.0320449
-0.0617944
-0.0739697
0.0306778
0.0432919
0.012551
0.0104397
-0.0229906
0.0718462
-0.0802023
0.00835611
-0.0911842
0.0180737
-0.00133454
-0.0826866
0.0117328
0.0692021
-0.0809349
0.0607784
-0.0570546
-0.00372377
0.136259
-0.122658
-0.0136014
-0.0108678
0.0138752
-0.0030074
-0.0709883
-0.0537556
-0.118783
0.0793942
0.0393884
0.0522851
0.0556154
0.00447914
-0.0143471
0.00986795
0.0262736
0.038527
-0.0648006
-0.0590979
-0.0369942
0.0960922
0.0338639
-0.0922837
0.0584198
-0.0638001
0.0146535
0.0491466
-0.0742749
-0.0109104
0.0851853
0.0648297
-0.0293634
0.0413307
-0.0199257
0.040103
-0.0669613
0.0268584
-0.00238432
-0.00848351
-0.0927038
0.00614792
0.0865559
-0.100614
0.0385858
0.0620278
-0.00255883
-0.0612413
0.069589
-0.0285368
-0.0410521
-0.0272434
0.023746
0.00349737
0.0896179
-0.0870339
-0.00258404
-0.0554184
0.081692
0.00633958
-0.0698747
0.0635351
0.0229094
0.0191889
-0.0742413
0.0514137
0.0228276
0.0848283
-0.0521051
-0.0327231
-0.0350227
0.00488325
0.0301395
0.0723227
-0.0322197
0.00861733
0.0326571
-0.0412744
-0.041252
-0.0514518
0.119759
-0.0352972
-0.084462
-0.000591492
0.120351
-0.0071997
-0.0295821
0.0367818
0.125495
-0.0728477
-0.0526477
0.0145489
-0.0100697
0.101399
-0.0849975
-0.0164012
-0.0614062
0.00562542
0.0557808
-0.0852913
-0.016326
0.101617
0.0456167
0.0392116
-0.00418954
0.0027496
0.00143994
-0.0617198
-0.0270353
-0.0271051
0.0213843
0.00572082
-0.0157374
0.0448201
-0.0290826
-0.00951191
0.0125416
-0.00302966
0.0903113
-0.0056639
-0.0846474
-0.019468
0.0460902
-0.0230494
-0.0230408
-0.05872
0.00330168
0.0238311
0.0622371
-0.0860682
-0.00219384
-0.00731808
0.0474961
0.0220929
-0.0588508
-0.0151189
0.112644
-0.0707589
0.0157304
-0.0698962
0.0541658
0.0717997
-0.0509867
-0.020813
0.0667446
-0.060405
-0.00342036
0.0237852
-0.0203648
-0.0662019
0.0841921
-0.0179902
0.138037
-0.0597801
-0.0782569
-0.049649
-0.0691336
0.035614
0.0361857
0.0305586
0.0588158
0.0331088
-0.0488462
0.118404
-0.0280929
0.0697915
-0.0469961
-0.0227954
-0.0282884
-0.00923169
0.0787639
-0.0670311
-0.0644754
-0.00976591
0.058887
0.0580002
0.113716
-0.109042
-0.00467387
-0.0931354
0.0678393
0.0252961
0.0631507
-0.102606
0.0394553
-0.00991488
0.0365451
-0.0266303
-0.0159422
0.0035614
0.0123808
-0.0484947
0.041295
-0.0552888
0.0900423
-0.0347534
0.078948
-0.118298
0.0393497
-0.0639243
0.0796547
-0.000139919
-0.00404962
-0.0395304
0.0430912
-0.00356078
0.0451652
0.0316523
-0.0768174
-0.0725771
0.0469172
0.0256599
-0.0754556
0.0140494
-0.0578754
0.0202851
0.0375903
0.0424175
-0.00475915
-0.0376583
0.00684885
-0.0729676
0.0661188
-0.0175724
0.0141521
-0.12707
0.0893409
0.0377288
0.0510845
-0.0822873
0.0312028
-0.00808112
0.0799273
-0.0400098
0.0138395
0.0679458
-0.087722
0.0197761
-0.0555916
0.0894555
-0.0200702
0.0832209
-0.00384236
-0.0184589
0.0223012
0.00381886
0.0661228
-0.0699416
-0.0850436
0.0217897
0.0632539
0.0285312
-0.0384461
-0.0209057
0.0888516
0.030613
-0.0180621
0.0278036
0.0739198
-0.101723
0.021057
-0.00435196
-0.0167051
-0.016077
0.0546039
-0.105566
0.0464684
0.128315
-0.0898371
-0.0384782
0.102816
-0.0744205
-0.0283952
-0.0438268
-0.0277681
0.0715949
0.0646241
-0.0328471
-0.0317769
0.0397711
0.0630446
-0.0570271
0.0627011
-0.00567404
-0.0622083
-0.00332546
0.0655338
-0.00850116
0.013314
-0.00481288
0.0196071
-0.0748959
-0.06948
0.0389859
0.0304941
0.0239191
0.00562753
-0.0295466
-0.113524
0.0354578
0.0780666
0.0762527
-0.0694039
-0.0765155
0.0758191
0.000696401
-0.0164883
0.000546152
-0.0327888
0.0799504
-0.0366581
0.0515228
-0.0148647
0.00733829
0.0822796
-0.0867033
0.0428766
0.0707137
-0.0351565
-0.0355571
-0.0864284
0.0749866
0.0114418
-0.0256573
-0.0469198
-0.0367474
0.00172473
0.0371671
-0.00193972
-0.0352274
0.0976376
-0.0524724
-0.101693
0.0587446
0.042948
0.00768259
0.045332
-0.0530146
-0.0730034
0.0364023
0.0366011
-0.0867932
0.0941711
-0.00737795
0.0841776
-0.00539591
-0.0787817
0.0522746
0.0050098
-0.0572843
0.0228606
0.0379178
-0.0880328
0.0072027
0.0808301
-0.0564725
0.0604739
-0.00400147
0.017898
0.0426042
-0.0605021
0.0651435
0.00557019
0.0892771
-0.0815945
-0.0188513
0.0103502
-0.0154396
-0.0476015
0.0630411
-0.0451303
-0.0819393
-0.0911017
-0.00951188
0.121332
-0.0303154
-0.0910162
0.0649391
-0.0499907
-0.0149485
0.00109506
-0.0733167
0.0722217
-0.051477
0.0360375
0.0837209
0.0191192
-0.10284
-0.115634
0.0125267
0.103107
0.0722147
-0.10216
0.0299454
-0.0718344
0.0444106
0.0274238
-0.0455842
0.0331669
0.0124173
-0.0649152
-0.0367774
-0.00406269
-0.0827305
-0.0682679
0.00605963
-0.0691295
0.0191668
0.0499628
0.0102982
0.0495542
-0.0598524
0.0851954
0.0510637
-0.106691
0.0404889
-0.0199175
0.071002
0.100388
-0.04753
-0.0528584
-0.142375
0.0987374
0.043638
0.0563418
-0.0649426
0.00860079
-0.00139825
-0.0381322
0.103931
-0.04489
-0.059041
-0.0293438
-0.0570846
0.00129578
-0.0133991
0.0121033
-0.0179648
0.042342
-0.0243772
-0.0284186
0.0370359
0.0286137
-0.0832967
0.054683
-0.0873488
-0.0165018
0.103851
-0.0348586
-0.0230169
-0.0195458
0.00443541
0.0151104
0.0201314
-0.0445737
0.0244423
0.029407
-0.0103617
0.0762511
0.0151918
-0.0914429
-0.0983872
0.0745479
0.0238393
0.114681
0.00241728
-0.117098
-0.0154628
0.0393819
-0.0168843
0.0756643
-0.00587278
-0.0201648
0.0402962
0.0554951
-0.0375971
-0.0569207
-0.00508179
0.0620025
-0.134033
0.0434041
0.0906287
0.0830735
-0.0302453
-0.0528283
-0.10634
0.0215799
0.0847598
0.0196764
-0.043113
0.0234366
0.0948637
0.0306318
-0.008367
0.0455341
0.0654637
-0.0148852
-0.0505785
-0.112485
0.0244526
0.0176471
0.0960686
-0.0185748
0.0472759
-0.0287011
-0.0420786
0.0701502
-0.0280715
0.0740048
-0.105675
0.0316702
-0.113769
0.0393096
0.0744595
-0.0723676
-0.0616652
-0.0418653
-0.0299691
-0.114848
0.0489362
0.0659117
0.0294492
-3.56394e-05
-0.0294136
-0.0791146
0.00985349
0.0692611
-0.087012
-0.0553634
-0.034375
-9.61327e-05
0.000328737
-0.000232604
-0.00169737
-0.00472369
0.00642106
-0.0579791
-0.0158569
0.073836
-0.038136
0.0487305
-0.0105944
0.112639
-0.0795667
-0.0330728
-0.103428
0.0454488
-0.0162122
-0.067181
0.0833933
0.0396935
-0.0102443
0.0644259
0.00811635
-0.0725422
0.0301633
-0.063287
0.0331237
0.11962
-0.0525288
-0.0670907
0.0210758
0.0619978
0.0241454
0.0355823
-0.0597277
0.101778
-0.0180569
0.0206601
-0.020428
-0.000232099
0.0920315
-0.0372603
-0.0547712
0.00230978
0.0540321
-0.00184359
-0.0746719
0.0581966
-0.0478985
-0.0907895
0.00574586
0.00797443
-0.00767742
-0.000297016
-0.0179411
0.0857804
0.0568778
0.00858595
0.0298844
-0.0290566
-0.000827787
0.0222498
0.0619278
-0.0159392
-0.029645
-0.0029524
-0.0134121
0.0163645
-0.0768808
0.0077513
-0.00267644
-0.0846723
0.045133
0.0761986
-0.00954768
-0.0327621
0.0423098
0.0346551
0.0667436
0.0631314
-0.038986
-0.013281
-0.0232435
0.0365245
0.0700519
0.0338791
-0.0336275
0.0063841
0.0321057
0.0428674
-0.0749731
0.020959
0.0196843
-0.0406432
0.0257629
0.0240226
-0.0497855
-9.88173e-05
8.08076e-05
1.80097e-05
-9.90533e-05
2.3598e-07
0.00330862
0.0173515
-0.0026353
0.0815833
-0.0813258
0.0660801
0.0152457
-0.0228401
-0.0149804
0.0378205
0.0549543
-0.0625288
0.00757455
0.101387
-0.0836761
-0.0177104
0.0323716
0.0325675
0.100961
-0.0264059
-0.0745551
0.12463
-0.0310438
-0.0935866
0.0882904
-0.0844715
-0.0349058
0.0253581
-0.0994794
0.0524378
0.0470416
0.0102393
0.0616078
-0.0718471
-0.0459609
-0.0300921
0.076053
0.110646
-0.0560409
-0.0546052
-0.0680807
-0.0467671
0.0574286
0.043958
-0.0533992
0.0687892
-0.01539
0.0849967
-0.0836821
-0.00131464
0.101826
-0.0597727
-0.0420532
0.105398
0.0326387
0.106353
-0.0412051
-0.0651484
0.081467
-0.00925223
0.0242301
-0.0428049
-0.109995
0.102379
0.00761561
-0.0787833
0.0623525
0.0164308
-0.0513009
0.0791045
0.00325604
-0.11889
0.0531231
-0.0743279
0.0212047
0.0855167
-0.053411
-0.00165617
-0.0723949
0.0740511
-0.0207183
-0.0958796
0.0506089
0.0452707
-0.12613
0.0391224
0.0870071
-0.109828
0.0160552
0.0937725
0.000734863
0.0423928
-0.0431277
0.0472033
-0.0275269
-0.024706
-0.0350728
0.0597788
-0.0864607
0.00734608
-0.104638
0.0729112
0.0317271
0.0968598
0.00496606
-0.0835432
0.067331
0.0219435
-0.00088649
0.0105092
-0.0312179
0.0207087
0.105225
-0.0202278
0.0649243
-0.0004984
0.0528311
-0.0859975
0.0331664
-0.0116807
-0.0453463
-0.0824132
0.00813827
-0.0586456
-0.0226803
0.0807697
0.0475457
-0.0666947
0.0246161
-0.077294
0.00909602
0.068198
0.0545807
-0.0121633
0.0659984
-0.000422306
-0.0655761
0.0980355
-0.0415414
-0.0564941
-0.0177017
-0.0524893
0.070191
-0.0223435
0.0963483
0.0603208
0.0477847
-0.108105
-0.0125524
-0.0833271
-0.0234206
-0.00448103
0.0279016
-0.00997398
0.0112698
-0.0251501
0.0213077
0.0957884
-0.00194913
-0.111209
0.0879578
0.0232513
-0.0881818
0.0291006
0.0590812
-0.0292453
0.0594086
-0.121363
0.00783838
0.0648867
-0.0538405
-0.0110462
-0.00789942
-0.048573
-0.0569489
0.08078
0.00609122
0.0183187
-0.0244099
0.010517
0.0262732
-0.0367902
-0.000260296
-0.0240589
0.0243192
0.008534
0.00928823
-0.0178222
-0.0637286
-0.00259666
0.0663253
-0.0729329
0.00920427
-0.0187918
-0.00772162
0.0265134
-0.0779908
0.0790858
0.125015
-0.124521
-0.000493699
0.0165259
0.0229836
-0.0395095
-0.0343453
0.0115978
0.0227475
0.0542574
0.0707575
0.0814287
0.0166069
-0.00779462
0.00658828
0.00120634
0.0251563
0.0944632
0.000250063
-0.000346196
-0.00498887
-0.0184317
-0.0126374
-0.0361219
0.0487594
0.079873
0.0264804
0.0473694
-0.0802251
0.0328557
-0.027756
-0.00826944
0.0360254
0.0065716
-0.0343276
-0.0307945
-0.0130714
0.0438659
0.0179536
0.00625722
-0.0242108
-0.000429884
0.000298263
0.000131621
0.129379
-0.0433021
-0.086077
0.070502
0.0588771
0.0774068
-0.0801053
0.00269859
-0.0316677
-0.00866327
0.040331
0.107529
-0.0525403
-0.0549884
-0.0587754
-0.0673541
0.0876725
-0.0969377
0.00926525
0.0371407
-0.0206147
-0.0352984
0.072489
-0.0371906
0.0054977
0.0476254
0.106312
-0.00656995
-0.0997424
0.0224063
0.0839061
0.00143984
-0.0583606
-0.0392275
0.0163874
-0.0294754
0.0311404
-0.00166499
-0.0358582
0.000294292
0.0355639
0.00591555
-0.0752102
0.0692947
-0.0105104
0.0831002
-0.0725898
0.02586
0.0261816
-0.0520416
-0.0277107
0.000605554
-0.0858497
-0.0136297
-0.0990703
0.0654011
0.0336692
-0.0456922
-0.0213659
0.0670581
-0.0165342
0.0134663
0.00306788
-0.0760423
0.0655319
0.00449917
0.0253853
-0.00790589
-0.0279523
-0.00421287
0.00458456
-0.000371684
0.0521467
-0.0213678
-0.0307789
0.0195628
-0.0744809
0.0549182
-0.0250982
0.0236747
0.00142353
0.0701986
-0.0359347
-0.034264
0.00537565
-0.090667
0.101417
-0.021788
-0.0796291
0.111257
-0.0931991
-0.0180578
0.0685324
-0.00253401
0.0670012
-0.0922048
0.0252036
-0.0423059
-0.0437249
0.0860307
0.0949813
-0.0279802
-0.0708267
0.053125
0.0472751
-0.0673638
0.0200886
0.0310748
0.0432392
-0.0743139
0.0513085
-0.0505737
-0.099919
0.0907413
0.00917769
0.0558723
-0.0668124
0.01094
-0.0157001
0.0262093
0.0788957
-0.109977
0.0310812
0.0626374
0.00237281
-0.0650102
0.0831604
-0.0805257
-0.00263471
0.089615
0.011346
0.063044
0.0108659
-0.0739099
0.00946474
-0.0428016
0.0333369
0.0974452
-0.0282153
-0.0692299
0.0316922
-0.0563982
0.0272988
0.0428998
0.0529841
-0.09529
-0.0583466
0.0275522
-0.0709618
0.00807529
0.0628865
0.0149118
0.0038003
-0.0187121
0.00697121
-0.0324267
0.0254554
0.0241609
-0.0180697
0.0656019
0.0249954
-0.0905973
-0.00363635
0.0685231
-0.00830418
0.0066068
-0.0241137
-0.00216026
0.026274
0.0600614
0.00298262
-0.0213343
0.0816551
0.0738984
-0.0428236
-0.00137492
0.0351865
-0.0338116
-0.0938854
0.00985572
0.0840297
-0.133855
0.120742
0.0131139
-0.0250786
0.00628674
0.00824683
-0.0323606
-0.0840238
0.00672982
0.0197002
-0.0653925
0.043095
0.0215291
-0.0379194
0.0890363
-0.0511169
0.0150604
0.0638353
-0.0138785
0.0688327
-0.0116177
0.0644488
0.00325174
-0.00153914
-0.00171259
0.0709483
-0.088519
0.0175708
-0.0544031
0.0830169
0.029844
0.0194063
-0.0492502
-0.0765865
0.0749303
0.0306003
0.0708168
-0.0583766
-0.0111034
0.0674359
-0.0571966
0.0692435
-0.0792794
0.0100358
-0.00646388
-0.0316722
0.0626395
0.0287968
-0.0914363
0.0724506
0.00903814
-0.0814888
0.0504679
0.00167876
0.0430684
-0.0890293
0.101276
-0.0400491
-0.0612269
0.0145201
0.0731523
0.0541229
0.060558
-0.083142
0.0121803
-0.0635704
0.00259751
0.0609729
-0.011479
0.0442554
-0.0327764
-0.026426
-0.0366136
0.0630397
0.132385
-0.0801457
-0.0522389
-0.0372418
-0.069098
-0.0881435
0.0918592
-0.0037157
-0.0247714
-0.0850563
0.0212767
-0.0127427
0.000634003
-0.000401157
-0.000232846
-0.0683004
0.033002
0.0512858
-0.00519556
-0.0160378
-0.0507049
0.0667427
0.000912679
0.00706175
-0.0205701
-0.0253328
0.0459029
-0.0821691
-0.00601274
0.0547841
0.0578553
0.0497115
0.0826732
0.0944284
-0.0343193
-0.0601091
0.0550368
-0.0607563
0.0057195
-0.0301658
-0.0486175
-0.0343752
0.0970147
0.0439102
-0.0344455
-0.087763
-0.00430383
0.0920668
-0.121407
0.0945323
0.0268751
-0.0902788
0.0145167
0.0757621
0.113501
-0.00285507
0.114325
-0.0564932
-0.0578323
-0.0344987
-0.0345533
0.069052
0.0910822
0.0232433
0.00601271
-0.0937757
-0.00314782
-0.0502514
0.132587
-0.0686972
-0.0638902
-0.0891893
-0.0128259
0.102015
0.141792
-0.0481962
-0.0935955
0.0235694
0.014726
-0.0382954
0.117202
-0.111959
-0.00524288
0.106928
-0.0344777
0.0210701
-0.0094174
0.0228138
-0.0133964
0.00620977
0.041248
-0.0474578
0.0441458
0.0671111
-0.000782867
0.0105346
-0.00975174
-0.0709616
0.0830297
-0.0120681
0.0480731
-0.119035
0.109118
-0.0146894
0.0293175
-0.0306924
-0.0165066
-0.0368967
0.0534034
0.0904647
-0.0266474
-0.0638173
-0.015126
-0.0448092
0.0599351
0.0641671
0.0604633
-0.0899983
0.0850948
0.00490356
-0.0268372
-0.0216766
0.0485138
-0.000702816
0.0268957
-0.0261929
-0.0959283
-0.0176129
0.113541
-0.0191693
-0.000376473
-0.0968756
0.00873211
0.114364
-0.0826349
-0.0317291
-0.0943957
0.0564763
0.019007
0.0583997
-0.00240614
0.0168444
-0.0144383
-0.0193719
0.0164195
-0.125334
0.0601268
0.0652075
0.0610061
-0.0277222
-0.033284
-0.0276745
0.07678
-0.0491056
0.00677485
-0.0125478
0.00577295
-0.0979456
0.0861799
0.0117657
0.127906
-0.0172962
-0.11061
0.112817
-0.0472148
0.0858742
0.0420321
-0.00541699
0.0121918
0.0383518
-0.027425
-0.0109268
-0.0654155
0.0162147
0.0492008
-0.0579197
-0.0615416
-0.00387391
0.0377789
-0.0519381
0.0141592
0.0635089
-0.00763661
-0.0185144
-0.0616294
0.0801439
0.0290939
0.00925795
-0.0837586
0.00327682
0.0804818
0.0384805
0.0346592
-0.0731398
0.0197689
-0.0473106
0.0275416
-0.0586759
-0.0627314
-0.0366326
-0.0745766
0.025648
0.0121764
-0.0378244
0.0582485
0.099745
0.0357147
-0.0287435
0.00795768
-0.00660427
-0.00135341
-0.0979936
0.107166
-0.00917197
0.0720919
-0.0838064
0.0117145
-0.0625244
0.0280257
-0.00720313
-0.000591493
0.0207038
-0.110702
-0.0798329
0.0766047
0.00322817
-2.86774e-05
0.000109485
-0.0830156
0.0669778
-6.7213e-05
-3.18402e-05
0.0622294
-0.012084
-0.0501454
0.0311748
-0.0426538
-0.0709133
-0.00134987
0.0722632
-0.00718142
-0.0287526
0.035934
0.098092
-0.021589
-0.076503
-0.0583442
0.0996441
-0.0412999
0.0728982
-0.00950101
-0.0633972
-0.0591893
-0.00438103
0.096902
-0.0446275
-0.0302738
0.00517557
-0.0136071
-0.0863119
-0.0485738
-0.0852816
-0.065849
0.0290649
0.036784
-0.01973
0.0826115
-0.0628815
-0.0137
0.0618374
-0.0481374
-0.0149781
-0.0809503
-0.04319
0.0484945
-0.00530451
0.000309
0.0374699
-0.0824588
-0.0071489
0.0896077
-0.000976728
0.0533711
-0.0523944
0.0849893
-0.0120911
0.0257667
-0.0590844
0.0333177
-0.0154618
0.129826
0.0686815
-0.0429147
0.0896664
0.0178623
0.0118355
0.0713249
0.0753291
-0.0914363
0.0161072
0.018712
-0.0721848
0.0534728
-0.0482087
0.0882802
-0.0400715
0.060059
0.0403294
-0.0342869
-0.0490325
0.0833194
-0.0129981
-0.0379998
0.050998
0.00461142
0.0646321
-0.00251758
-0.0479161
0.0504337
0.0908476
0.00118392
-0.0503378
0.0235006
0.0641705
0.0162332
-0.0804036
0.0925011
-0.0223552
-0.0701458
0.0385429
-0.0342896
-0.00425332
-0.144073
0.0498181
0.0942549
0.00736212
-0.0587531
0.0513909
-0.052805
-0.00525002
0.058055
0.00590473
-0.0782507
0.072346
-0.0888587
0.0372544
0.0516043
0.0139044
0.00704986
-0.0209543
-0.112631
0.0288721
0.0982123
0.0918189
-0.0405285
-0.0512903
0.0421313
-0.0551294
0.0245187
-0.0444401
-0.00871795
0.053158
-0.0928679
0.0712871
0.0215808
-0.0408518
-0.0691427
-0.0711501
0.0770549
-0.0162229
-0.0729663
-0.0148969
0.0384663
0.106235
-0.0580847
-0.0481503
-0.0811691
0.0465415
0.0346276
-0.0228123
0.0701817
-0.0552821
0.0426447
-0.0066608
-0.00987335
-0.000364129
0.000499248
-0.000135119
0.0931326
-0.0639241
-0.0292085
-0.00595809
0.00169605
0.00426204
0.0705902
-0.0204705
-0.0501197
-0.100583
-0.024751
0.116045
-0.0632471
-0.0527976
0.091105
-0.0205148
0.105325
-0.0985099
-0.00681552
0.0584008
-0.0781309
-0.117658
0.0671691
0.0504893
0.0376196
0.0677058
-0.0980935
0.0819757
0.0161178
-0.0277499
-0.0520829
-0.0286553
0.0303329
-0.00167754
-0.0265367
0.0333612
-0.00682448
-0.0157118
0.0146528
0.00105896
-0.00122276
-0.0407306
0.0419534
0.00118366
0.00677402
-0.043435
-0.0454238
0.000138162
0.000495841
-0.051778
0.0884831
-0.0367051
0.0450155
-0.0815537
0.0365382
-0.044909
0.0403628
0.00454618
-0.0371721
0.0821876
-0.00819414
0.0802861
-0.0733472
0.0324134
0.0409337
-0.0428301
0.0574777
-0.0146476
-0.0699445
0.0382768
0.0651397
-0.0148329
-0.0503068
0.0395591
0.0178978
-0.0574569
-0.0413129
0.0400901
0.104448
-0.00700251
0.0433407
-0.0139499
-0.0293907
0.0723619
0.00667473
-0.0790366
-0.060965
-0.0292932
0.0902582
-0.0576369
0.0131968
0.0321031
-0.0392845
-0.0712526
-0.0728205
0.0231251
-0.0713338
-0.0716678
0.0562191
0.0154487
-0.0229746
0.0427435
0.0895691
-0.0574287
-0.0321404
-0.000108477
0.0210631
-0.0209546
0.0960688
-0.045105
-0.0509638
0.110336
-0.0382783
-0.072058
0.0392769
0.0286299
-0.0679068
-0.0220516
-0.0228574
0.0101893
0.000610293
-0.0107996
0.094432
0.0217302
0.0705357
-0.0922659
0.00587637
-0.0576544
-0.0225523
0.0785174
-0.0559651
-0.018221
0.0439839
0.103399
-0.0231326
-0.0802669
-0.0583549
0.0403901
-0.0689011
-0.00215909
0.0710602
0.0625632
-0.0968501
-0.0402609
0.0387598
0.00150106
-0.0416908
0.0479005
-0.0401166
-0.0376503
0.0777669
-0.0905932
0.0722745
0.0183187
0.0449518
0.0296014
-0.0745532
0.0462356
0.00739926
-0.0536349
-0.0344918
0.0079551
0.0342417
0.00909899
0.0107031
-0.0201205
-0.0588179
0.0312032
0.0276147
0.084646
-0.0106293
-0.0740167
0.0562579
-0.0352989
-0.0650314
0.0723935
-0.0796562
0.128906
-0.04925
0.0014031
-0.0445931
0.0119918
-0.091648
-0.099042
0.038077
0.0451666
-0.00435508
-0.0408115
-0.0980935
-0.0875641
0.0690497
-0.0003611
-0.00134464
0.00170574
0.0348259
-0.0749424
0.0493004
-0.0194564
-0.0101763
-0.0477315
0.0579077
0.0540683
-0.0766206
-0.0658597
0.0581671
0.00769257
-0.0613981
0.0673137
-0.06346
0.085084
-0.021624
-0.0453547
-0.0134632
0.0841552
-0.0645924
-0.0541994
-0.0211292
0.0753287
0.0471995
0.0602761
-0.107476
-0.0874134
0.0515121
0.0359012
0.0292426
0.0455518
-0.0747945
-0.0389241
-0.0590696
0.052409
0.00374889
-0.0561579
0.0342332
0.0829689
0.0816357
-0.0420767
-0.0343073
-0.0315416
0.00552411
0.0136791
-0.0192032
0.00649002
-0.0874945
0.0810045
-0.0349335
-0.0059711
0.0409046
0.0880035
-0.0900752
0.00207171
0.00382126
0.0290956
-0.0329169
0.0143114
-0.0167175
0.035313
-0.0882616
0.0529486
0.0517725
0.0256429
-0.0774153
-0.0278009
-0.0898575
-0.00344914
0.0173536
0.0664405
-0.0836255
0.017185
-0.0898856
-0.00134922
0.0912348
0.0206495
0.043382
-0.0640315
-0.0509344
0.0497546
0.00117981
-0.0146166
-0.0756623
0.0162191
-0.0214599
0.00524077
0.0563599
-0.0101242
0.0248552
-0.0185816
-0.00627364
0.0825446
-0.0199073
0.0200002
-0.0650275
0.0450272
-0.0682798
0.0154748
0.0983387
-0.0348344
-0.0635043
-0.0254749
0.0647518
-0.0585091
0.106203
-0.0476939
0.104716
0.00755886
-0.112275
-0.0681296
-0.00796127
0.0760908
0.00946426
-0.081132
0.101142
-0.0715263
-0.0296154
-0.0387173
0.0565157
-0.0177983
0.0985424
-0.0467699
-0.0588594
0.0805896
0.0362962
-0.0365565
0.0119492
-0.0820155
0.0700663
-0.0932097
0.0250801
0.0189615
-0.0196643
0.0686141
-0.00347441
0.0655599
-0.0344817
-0.0310782
-0.0276029
0.0159436
0.0116593
0.00943238
-0.0102152
-0.0281538
-0.054305
0.0944834
-0.0698932
-0.0245902
0.0120904
-0.0754557
0.0633653
-0.110859
0.0388682
0.0719903
0.0193941
0.085322
0.0805508
-0.0141102
0.0217193
0.0480198
-0.0697392
-0.132087
0.0606456
0.0714411
-0.0983668
-0.0337199
-0.0423591
0.0700617
-0.0277026
0.00614765
-0.00608123
-6.64237e-05
-0.0752605
-0.0182238
0.0934843
-0.00514647
-0.0691265
0.0742729
0.0375821
-0.0270651
0.00457974
-0.0390194
0.0344396
0.0392005
-0.039309
-0.108249
-0.00260954
0.0910571
-0.0723451
0.0120821
-0.0212084
0.0091263
0.0817795
0.000300301
-0.0820798
0.0394598
-0.0907114
0.0512516
-0.0348049
0.0832418
-0.0484368
-0.125039
0.0529355
0.0721033
0.0369361
-0.0323564
0.0423283
-0.117589
0.034382
-0.065892
0.03151
-0.103052
0.0645728
0.0384788
0.0511763
-0.0382239
-0.0129524
0.10389
-0.0519828
-0.051907
-0.00460454
-0.0719464
0.0765509
-0.0272464
-0.00709893
0.0903606
0.0130389
0.0303966
-0.0627866
0.03239
0.0863079
-0.0468482
-0.0303167
-0.0560485
0.0863651
-0.0383555
0.00561579
0.0327397
-0.0706585
-0.0543804
0.0674152
0.0221539
0.00563661
0.00115926
-0.00679588
-0.0785815
0.0906719
-0.054713
0.0179407
0.0367723
-0.0595045
0.0462235
-0.00538243
0.0551522
-0.0497697
-0.0411856
-0.0459227
0.0871083
-0.0352502
0.0387494
-0.00349927
0.00709096
0.0809126
-0.0523469
-0.0288222
-0.0599143
0.0393443
-0.0419605
-0.0559851
-0.063599
0.00506974
0.0585293
0.0152218
0.0779108
0.0357403
0.0567608
0.0285826
-0.0846465
0.0560639
0.0614223
0.0424675
-0.0143805
-0.0458418
0.0602223
-0.0800597
0.0311951
0.0488646
-0.0919611
0.0166179
0.0753433
-0.0940433
0.0190639
0.0749793
-0.0414111
-0.052483
0.0938942
-0.00648511
0.00227224
-0.00694346
-0.0297146
-0.0777742
0.0543911
0.023383
-0.00305956
0.0554685
0.116357
-0.106228
-0.0101294
-0.0481835
0.0767661
0.0344259
-0.0164723
-0.00512997
0.0319619
-0.0268319
-0.030823
0.0981123
-0.0672893
0.00201844
-0.00237954
0.0610057
-0.0695944
0.00858862
-0.0872658
0.0539041
0.0333617
-0.0732516
-0.0234749
0.0967265
0.0101537
-0.048871
-0.0686838
-0.00909031
0.0454862
-0.0763092
-4.38281e-05
-0.000386056
-0.00713329
0.0404822
-0.0333489
0.0966393
-0.0673967
-0.0610389
-0.0420127
0.0715939
-0.0954127
0.0238188
0.00300681
-0.00220183
-0.000804976
-0.049535
-0.0378783
-0.0181545
-0.0266637
0.0448181
0.0488732
-0.0963684
0.0474952
-0.0314726
0.0658546
-0.0622974
0.0569149
-0.0238199
-0.00378302
-0.0412819
0.0901551
-0.0747572
0.0111582
0.0668701
-0.0660653
-0.000804785
-0.0469188
0.0313744
0.0155443
-0.0836298
0.095579
-0.00797055
0.0637534
-0.0557828
0.0949268
0.0154095
0.0155515
-0.00536212
-0.0446043
0.0804851
-0.0358808
0.0987259
-0.0340948
-0.0646311
0.0421071
0.00906927
0.00579025
0.0564392
-0.037664
-0.0496019
0.0200884
-0.09334
-0.0505597
0.0324053
0.0368158
0.107143
-0.0110743
-0.0302101
0.0762724
-0.0460624
0.0704469
-0.0441029
-0.026344
0.000828188
-0.0436583
0.00476073
0.0108662
-0.015627
0.0232495
-0.00154619
-0.0217033
-0.0666614
0.0641438
0.0517077
-0.0596782
-0.0479173
-0.0504699
0.00829739
0.0199138
-0.0282112
0.0567001
-0.0263036
-0.0882231
0.072801
0.0154221
-0.1051
0.0702954
-0.0198247
-0.0580873
0.0779119
-0.0597162
-0.0449221
-0.0946221
0.00475355
0.0898685
0.0905163
0.00820966
-0.0516573
0.0581473
-0.036437
0.00542964
0.0310074
-0.118595
0.0688018
0.0497937
0.113413
-0.0380509
-0.0753623
-0.0580325
0.023099
0.0760521
-0.0760521
0.0631105
-0.0934272
0.0322975
-0.0173857
-0.046175
0.0345611
0.0116139
-0.0740407
0.0730639
0.00519651
-0.0740976
-0.00786608
0.0135219
-0.00565584
-0.0871377
0.0720117
0.00240959
0.000842149
0.0770948
-0.013103
-0.0639918
0.0883676
0.00997104
0.0679727
-0.0149384
-0.0530343
-0.0967678
0.0382588
-0.0821138
0.0335259
0.0485879
-0.0174752
-0.0286998
0.0710789
-0.117759
0.0466799
-0.00845523
-0.0564627
0.064918
0.0839668
-0.0768702
-0.00709661
0.0994168
-0.0942901
-0.00512663
-0.0262093
-0.00257318
0.0287825
0.0614591
-0.0726922
0.0112331
0.0149434
-0.0571336
0.0421901
0.0483013
0.0651119
0.00013739
0.00601026
-0.0256413
0.00268114
0.0229601
0.0856741
-0.0384746
-0.0878745
0.0886118
-0.000737308
0.0569387
-0.0975224
0.0405837
0.0773068
0.0334261
-0.110733
0.00753395
0.0759562
-0.0834902
-0.10722
0.087395
0.0917031
-0.0333891
-0.058314
0.0928737
-0.0246647
-0.068209
-0.0668906
-0.015184
0.0820747
0.0325819
0.0591971
-0.0917789
-0.0117206
-0.0687163
0.0804369
0.0863232
0.00209826
-0.0884214
0.124827
-0.0440307
-0.0807962
-0.0599623
0.100275
-0.0403129
-0.135958
0.0765375
0.0594201
-0.10267
0.0265085
0.0761613
0.0806954
-0.078069
-0.00262631
-0.0702434
0.0650969
0.0226339
-0.0766344
0.0540005
-0.0098269
0.0809058
-0.000382147
-0.0252056
0.0255877
-0.0350639
0.112371
0.0390546
0.0355457
-0.0746003
-0.0882211
-0.0160803
0.104301
0.0419373
0.0190689
0.0834442
-0.0646954
-0.0187488
0.134316
-0.0271664
-0.10715
-0.0673947
0.0339218
0.0334729
0.0438311
-0.0452857
0.00145459
0.106619
-0.0352103
-0.0714083
-0.0306262
0.102644
-0.0720176
-0.0336085
-0.0499759
0.0835843
0.07704
-0.0326294
0.01705
0.0102008
-0.0272509
0.00556151
0.00922289
-0.0147844
0.0469083
8.88997e-06
-0.0894574
0.0182336
0.0712239
0.0678366
-0.0942856
0.026449
0.0445787
-0.000122152
-0.0444566
-0.0261691
0.0433376
-0.0171685
0.0946938
0.00644788
0.0799978
-0.0446847
0.0956082
-0.0485021
-0.0471061
-0.0145666
-0.0250351
0.0396017
0.11603
-0.058399
-0.0576308
0.0139817
0.0673167
-0.0812984
0.0358911
0.0288944
-0.0647855
-0.125015
0.0524239
0.0725908
0.0602892
0.0300882
-0.0903774
-0.0912364
0.0440355
0.0472009
-0.00370591
0.00370591
-0.0100294
0.116648
0.000748649
-0.000634963
-0.000113686
0.0300062
0.0574173
-0.0874235
0.0600123
-0.0322062
-0.0278062
-0.0894882
0.0361093
0.0533789
-0.0531384
-0.0464375
0.0995758
-0.0513999
0.0539769
-0.00257701
-0.00692199
-0.0610311
0.0679531
0.0130927
0.0657126
-0.0788053
-0.0516855
0.0609609
-0.00927542
0.00477482
0.0227551
-0.0275299
-0.0516411
0.0898123
-0.0381712
0.00916625
-0.0339708
-0.111706
0.0488995
0.0628066
-0.00444219
0.0803201
-0.075878
0.10336
0.000796344
-0.104157
-0.0153667
-0.00369202
0.0190587
0.0183161
0.0459457
-0.0642618
0.049011
-0.0574663
-0.0215494
0.0931434
0.0300247
-0.0529548
0.0229301
-0.0508899
-0.0165047
-0.0296797
-0.0539182
0.0835978
0.0867171
-0.0649711
-0.021746
0.026555
-0.0441391
0.0175841
0.061255
0.0421054
0.0380532
0.0486955
-0.0867487
-0.103942
0.0289188
0.0750236
-0.0499066
-0.0528816
0.102788
-0.0207199
0.0632003
-0.0424804
-0.00061773
0.0530072
-0.0523894
0.0964088
-0.0508336
-0.0455752
0.0233864
-0.0734653
0.0500789
0.112023
-0.0530425
-0.0589806
0.0786275
-0.0171684
0.0810465
-0.0338731
-0.0471733
-0.10937
0.043553
0.065817
0.0518726
-0.101211
0.0493387
-0.0192693
0.00291817
0.0163511
0.0807468
-0.00365198
-0.00647993
-0.0355572
0.0420372
0.076681
-0.0994402
0.0227591
0.0595289
0.0240225
-0.0835514
-0.0120578
0.0300446
-0.0179868
0.0107538
-0.0521136
0.0413598
-0.138487
0.0795752
0.0589114
0.0727796
-0.0951416
0.022362
0.0677227
-0.0305831
-0.0371396
0.0482367
-0.0192067
-0.02903
-0.0567905
0.00391742
0.0528731
-0.0910439
0.0772653
0.0137786
-0.107367
0.0401861
-0.0831203
0.0510902
0.0320301
-0.0387046
0.0556455
-0.0169409
0.0198763
0.00710597
-0.0269822
-0.000311081
0.0464398
-0.0461287
0.131219
-0.0725384
-0.0586806
0.0676131
-0.0532388
-0.0143743
-0.0473045
-0.0042723
0.0515768
-0.00736452
0.100253
-0.0928888
-0.0691154
0.0313232
0.0377922
-0.0264257
-0.0452706
0.0716963
-0.0604012
-0.0263013
0.0867025
-0.0345121
0.00503675
0.0768007
-0.0994454
0.0226447
0.0919909
-0.0632977
-0.0286932
-0.0812109
0.0879327
-0.00672178
-0.129297
0.0669076
0.0623899
0.0131297
-0.0132622
0.000132547
0.0307475
-0.0251638
-0.00558372
0.0748359
-0.0775201
0.00268418
0.097217
-0.0786175
-0.0185995
-0.00895757
-0.0551014
0.064059
0.0686176
0.0313824
0.0310279
0.00372026
-0.0347481
0.0229207
0.0641664
-0.0870871
0.0370129
-0.0318994
-0.00511352
0.0397109
0.00223211
-0.041943
0.0854444
0.0265787
0.105731
-0.114103
0.00837187
-0.0711834
-0.000433958
0.0716174
0.0994524
-0.0204637
-0.0789887
-0.0477485
0.0135323
0.0342162
0.0104377
0.0952936
0.0551242
0.0051109
-0.0602351
0.104692
0.00707614
-0.111768
0.0815709
0.0139281
-0.095499
0.047753
0.0245747
-0.0723277
0.0407965
0.0269587
-0.0677552
0.00438123
0.10031
0.0854731
-0.00436322
-0.0811099
0.0797171
0.0197353
-0.0735533
0.0291178
0.0444355
0.0418922
-0.0456592
0.00376692
-0.0375755
0.0342727
0.00330281
0.0646874
-0.0359301
-0.0287573
-0.00881464
-0.00151247
0.0103271
0.0436565
0.0219035
-0.0597728
0.040459
0.0193138
-0.0352178
0.0681393
-0.0329215
0.0241505
0.013066
-0.0372165
-0.107763
0.107818
-5.57298e-05
-0.0522829
0.0192579
0.033025
-0.0157186
-0.0626464
0.078365
0.0380521
-0.0635128
0.0254606
0.03938
-0.0349384
-0.00444152
0.102021
-0.108726
0.00670501
0.0218487
-0.0229506
0.00110192
-0.0166794
-0.0637817
0.0804611
0.0399299
-0.0829948
0.0430649
0.0407664
-0.0183949
-0.0223715
0.0315971
-0.0459776
0.0568219
-0.0886021
0.0317802
0.117417
-0.0174021
-0.100015
-0.116422
0.0132539