/*--------------------------------*- C++ -*----------------------------------*\
  =========                 |
  \\      /  F ield         | OpenFOAM: The Open Source CFD Toolbox
   \\    /   O peration     | Website:  https://openfoam.org
    \\  /    A nd           | Version:  9
     \\/     M anipulation  |
\*---------------------------------------------------------------------------*/
FoamFile
{
    format      ascii;
    class       volVectorField;
    location    "150";
    object      U;
}
// * * * * * * * * * * * * * * * * * * * * * * * * * * * * * * * * * * * * * //

dimensions      [0 1 -1 0 0 0 0];

internalField   nonuniform List<vector> 
112055
(
(0.480305 0.0160343 0)
(0.503209 -0.00429459 0)
(0.522175 -0.000735541 -1.0208e-20)
(0.528342 -0.00879526 3.51368e-21)
(0.444403 0.0124823 8.78274e-21)
(0.499833 0.00422217 0)
(0.481445 0.0153743 -6.46886e-20)
(0.527759 -0.00851126 0)
(0.516313 -4.94126e-05 -3.00368e-21)
(0.481324 -0.0024188 3.60387e-21)
(0.503195 -0.00438071 1.86727e-20)
(0.483141 0.0192698 -4.30909e-20)
(0.516233 -0.000177568 1.23107e-21)
(0.483147 0.0189059 4.11987e-20)
(0.460798 -0.00566125 -2.63977e-20)
(0.518876 -0.00210287 -9.81764e-22)
(0.406091 -0.0249619 6.22766e-20)
(0.470624 -0.0466835 -2.4377e-21)
(0.503806 -0.00624518 0)
(0.516788 0.00525687 -3.18629e-21)
(0.513377 -0.00151194 -9.05236e-21)
(0.50027 -0.00434904 0)
(0.503818 -0.0063373 -1.08299e-20)
(0.513302 -0.00934267 -2.93423e-21)
(0.406486 0.0925825 0)
(0.493392 0.00732293 -1.16581e-20)
(0.433023 0.0261642 -1.96687e-20)
(0.500518 0.00174435 0)
(0.499881 0.00416956 0)
(0.513193 -0.00121076 9.11373e-21)
(0.499992 1.07969e-05 -4.5493e-20)
(0.540891 0.0168375 0)
(0.516528 0.000199508 0)
(0.146886 -0.0669688 -3.69095e-20)
(0.516339 -4.28102e-05 2.85283e-21)
(0.516783 -0.000574952 1.33998e-21)
(0.516888 0.00518437 0)
(0.35996 0.121816 1.57378e-20)
(0.533972 -0.0107677 0)
(0.517012 0.000229284 -9.42252e-22)
(0.515848 3.08116e-05 -2.37356e-21)
(0.532237 -0.0110694 8.54402e-21)
(0.510718 -0.00449123 1.52622e-21)
(0.521973 -0.000711076 1.70768e-20)
(0.469561 -0.0469343 0)
(0.514669 -0.00698598 0)
(0.150018 -0.0665365 0)
(0.377548 -0.0221604 0)
(0.516236 -0.0238514 3.15252e-21)
(0.531865 -0.0113657 1.72613e-21)
(0.527168 -0.0077408 9.67512e-21)
(0.547967 0.102878 0)
(0.508486 0.000646301 6.83432e-21)
(0.533413 -0.0103445 2.33064e-20)
(0.517216 0.00131309 7.85438e-21)
(0.481193 0.0158417 3.1678e-20)
(0.396024 0.00728202 7.54156e-22)
(0.376528 -0.112983 0)
(0.538072 0.0621818 0)
(0.514681 -0.00686628 -1.26185e-21)
(0.487744 -0.00850043 2.36961e-20)
(0.379806 -0.0289172 1.47389e-21)
(0.519058 0.00196402 -1.89865e-22)
(0.518944 0.0020385 2.00747e-22)
(0.494663 -0.00119578 0)
(0.516657 -2.60525e-05 -4.40298e-21)
(0.354173 0.122816 0)
(0.481725 -0.020783 0)
(0.508355 0.0131336 7.92512e-22)
(0.519338 -0.0025651 1.25724e-21)
(0.374035 -0.108541 1.37318e-20)
(-0.0762213 -0.013129 -9.08427e-22)
(0.513126 -0.0093497 0)
(0.441246 0.00737011 7.30689e-20)
(0.612498 0.0241875 -1.35269e-19)
(0.256483 -0.204177 -7.68062e-21)
(0.502554 0.000643992 -2.83639e-21)
(0.480558 0.0157432 -3.34656e-20)
(0.542311 0.0397788 -2.48797e-20)
(0.532928 -0.0105118 -3.06541e-20)
(0.508497 -0.0285452 -2.30012e-20)
(0.219984 -0.189383 -7.82204e-21)
(0.526931 -0.00781966 0)
(0.492266 0.00507406 -1.01301e-20)
(0.518969 -0.00232083 -2.8694e-21)
(0.506806 -0.000949935 8.87242e-21)
(0.525194 -0.0327812 -9.21471e-21)
(0.517136 0.00125486 8.0728e-21)
(0.135809 0.200802 8.65113e-20)
(0.517003 0.00135433 0)
(0.520484 0.00269829 1.99395e-21)
(0.51674 -0.000569299 -1.38729e-21)
(0.52574 -0.0326747 0)
(0.447265 0.0169108 -1.74863e-20)
(0.611771 0.0226665 0)
(0.502634 0.00072261 4.56016e-21)
(0.51437 0.0196694 -3.89451e-20)
(0.461437 -0.00564641 4.49761e-20)
(0.499989 6.96603e-06 2.02739e-20)
(0.396896 0.0164801 0)
(0.516211 -0.000178374 1.06812e-21)
(0.516166 -0.000152903 -4.13896e-24)
(0.518615 0.00126136 -1.78993e-21)
(0.502307 -0.00525868 -3.52791e-20)
(0.5507 -0.0193634 0)
(0.316779 -0.0149893 -2.45524e-20)
(0.494691 -0.00129895 0)
(0.495041 -0.00503043 0)
(0.515687 -2.31432e-05 7.3113e-22)
(0.50683 -0.000767275 0)
(-0.0767196 -0.0164855 6.98617e-20)
(0.510783 0.022991 -5.18775e-21)
(0.516948 7.76182e-05 0)
(0.502765 0.0217409 1.32392e-20)
(0.5083 0.0130211 0)
(0.475393 0.009227 6.34669e-20)
(0.493878 0.0201638 0)
(0.518448 -0.000453674 0)
(0.143941 0.201382 -1.00104e-19)
(0.516561 -0.000245771 -1.7424e-21)
(0.50053 -0.0024934 9.77188e-21)
(0.500523 0.00178256 0)
(0.481455 -0.00216752 0)
(0.519702 -0.0390156 4.97557e-21)
(0.515873 2.63583e-05 4.54446e-21)
(0.502411 -0.00527763 1.13577e-20)
(0.527773 0.0173606 -7.45879e-20)
(0.53486 -0.00114447 1.57833e-22)
(0.520155 0.0020619 -3.04145e-21)
(0.551852 -0.0179189 0)
(0.516461 -0.0414868 -5.69579e-22)
(0.433645 0.0274671 -7.07395e-20)
(0.53083 -0.0267203 5.06388e-21)
(0.40517 0.0201441 8.31225e-20)
(0.53452 -0.0106136 9.46289e-21)
(0.517038 0.000198823 0)
(0.517709 0.00204391 -1.652e-21)
(0.50783 0.00611368 0)
(0.521842 0.00106368 2.94086e-21)
(0.323097 -0.144497 -2.50683e-20)
(0.50795 0.00612652 0)
(0.386248 -0.0248944 0)
(0.503636 0.0197442 -2.71429e-21)
(0.44725 -0.218288 0)
(0.493994 -0.00597379 -4.84812e-21)
(0.51957 0.0192955 2.78688e-21)
(0.475483 -0.0359098 8.38705e-21)
(0.502924 -0.00174614 0)
(0.518298 -0.000406346 -3.17222e-21)
(0.447289 -0.0111557 0)
(0.330598 -0.0168609 0)
(0.501337 -0.00480207 0)
(0.486061 0.00269675 0)
(0.508744 -0.00042528 1.76305e-22)
(0.521724 0.00101233 0)
(0.501576 -0.0122608 3.21187e-20)
(0.498505 0.000100131 -1.58097e-20)
(0.502607 0.0214288 0)
(0.536711 0.0620557 -1.28585e-20)
(0.52285 0.0359935 1.26038e-20)
(0.516909 7.86528e-05 1.9556e-23)
(0.405428 0.0689465 -3.70275e-21)
(0.51798 0.00240574 -1.08426e-22)
(0.516918 0.00492384 3.16913e-21)
(0.515436 4.24543e-05 1.6166e-21)
(0.511918 0.00532644 2.83883e-21)
(0.497751 0.00336615 -5.03335e-21)
(0.541251 0.0164443 8.47812e-22)
(0.517343 0.000192704 -2.37599e-21)
(0.494536 0.00273085 0)
(0.499001 -0.00858073 -6.27418e-20)
(0.501629 -0.012375 1.81146e-20)
(0.517956 0.00233342 4.40346e-22)
(0.447409 -0.211812 2.68917e-21)
(0.544734 9.03647e-05 -9.56117e-21)
(0.516583 -0.000242382 2.79652e-21)
(0.517524 -0.0236199 -1.33576e-21)
(0.518364 -0.00094978 5.15409e-21)
(0.522181 0.0153002 1.71998e-20)
(0.48654 -0.0128737 1.15656e-20)
(0.544142 2.30865e-05 4.74094e-20)
(0.514747 0.0027411 3.64181e-21)
(0.518047 0.00877551 -6.30716e-21)
(0.499938 2.6711e-05 -6.66306e-20)
(0.5381 -0.0126695 -3.7856e-20)
(0.483051 -0.0499796 2.85495e-20)
(0.405833 0.0674891 4.71694e-21)
(0.515445 4.24159e-05 -1.83391e-21)
(0.503474 0.0219195 1.90815e-21)
(0.514895 0.0117335 -6.10808e-22)
(0.50841 -0.00855575 0)
(0.516519 0.000163972 5.15941e-21)
(0.516882 0.00139067 -3.0374e-21)
(0.500532 -0.00257133 1.75642e-20)
(0.520026 -0.000368973 -3.77362e-21)
(0.522337 0.00300039 6.83557e-23)
(0.522555 0.00926302 0)
(0.515004 0.0207541 -7.2988e-21)
(0.528202 -0.0110933 1.80552e-23)
(0.498572 0.000116563 4.8533e-20)
(0.37922 -0.000955265 -2.69906e-20)
(0.491924 0.00271059 3.67984e-20)
(0.487535 -0.00818815 4.88068e-20)
(0.530553 0.00785098 0)
(0.476274 -0.0212023 1.12267e-21)
(0.475861 0.00902277 -5.37507e-20)
(0.361365 -0.073172 0)
(0.496156 0.0174129 2.75413e-20)
(0.426116 -0.0263327 -5.78264e-20)
(0.518464 0.00142412 0)
(0.510153 -0.0072761 4.25363e-21)
(0.515403 -2.51568e-05 0)
(0.476219 -0.0361981 -3.4017e-20)
(0.518451 0.00132975 2.82335e-23)
(0.514024 0.0188514 2.17826e-20)
(0.495929 0.0175488 1.63085e-21)
(0.49885 -0.00862484 3.88133e-20)
(0.526133 -0.0208207 0)
(0.51586 0.00010671 -1.11381e-23)
(0.529419 -0.00782402 0)
(0.517491 -0.00191811 -9.98974e-22)
(0.550431 0.0205741 0)
(0.516646 -3.14048e-05 4.01504e-21)
(0.523219 0.0356444 -1.51715e-20)
(0.589722 -0.000322036 1.45653e-19)
(0.517288 0.000201896 1.67285e-21)
(0.516163 -0.000147185 4.93039e-22)
(0.497784 0.0197151 -2.18352e-20)
(0.505956 -0.0109635 -8.48594e-21)
(0.517237 0.000423364 4.17056e-23)
(0.51679 -0.000545004 1.54869e-21)
(0.515884 0.000109763 -3.2822e-23)
(0.537944 -0.0131523 -2.57141e-20)
(0.501169 0.000894828 -1.35151e-20)
(0.555918 -0.0990988 0)
(0.385016 0.0908721 -1.50123e-20)
(0.522633 0.00278761 -4.37051e-22)
(0.516768 -0.000547804 0)
(-0.00872585 -0.0116118 9.38788e-21)
(0.25874 0.0550593 5.14012e-20)
(0.446593 0.0205223 -1.17924e-20)
(0.533347 0.0231853 -2.9756e-20)
(0.518736 -0.00128059 -4.28349e-22)
(0.443032 0.0183658 4.38192e-23)
(0.515729 -0.000221212 -1.20401e-21)
(0.55612 -0.0976201 1.94766e-20)
(0.517073 0.00560386 -8.62152e-21)
(0.530248 -0.00212193 2.54349e-20)
(0.509832 0.0409295 1.72756e-21)
(0.528928 -0.00798204 6.30223e-21)
(0.515947 0.0141306 0)
(0.515008 0.00281193 -5.78549e-21)
(0.279914 -0.008943 0)
(0.518452 0.00414495 5.49028e-22)
(0.522377 0.00882842 1.31342e-21)
(0.446081 -0.00807058 -1.1243e-22)
(0.508425 -0.00845579 1.10769e-20)
(0.520173 0.00201683 5.52445e-21)
(0.049838 0.0608377 3.05541e-20)
(0.518595 0.00117529 4.10218e-21)
(0.590389 0.00120313 -1.59598e-19)
(0.473039 0.066688 -4.25515e-21)
(0.512003 0.00529379 -6.28194e-21)
(0.482569 -0.0492649 -5.36751e-20)
(0.403628 0.0300566 0)
(0.514772 0.0118201 5.30871e-22)
(0.479304 -0.0220369 2.67557e-22)
(0.518309 -0.000954274 -2.74457e-21)
(0.489631 -0.0286661 -1.77878e-20)
(0.481326 -0.0229501 4.33111e-21)
(0.515909 0.0138467 1.25591e-21)
(0.444624 -0.0603114 0)
(0.527552 -0.0114771 -1.7868e-23)
(0.546138 0.10222 -2.70412e-21)
(0.519469 -0.00158495 1.16985e-23)
(0.356476 0.0177056 7.82477e-20)
(0.606759 0.044882 5.6345e-20)
(-0.00210589 -0.00353336 0)
(-0.00182186 -0.00286481 -1.00197e-20)
(0.272102 -0.00528031 5.9591e-20)
(0.515697 -2.40406e-05 2.19534e-22)
(0.50439 0.00951646 -9.84109e-21)
(0.490755 -0.0388492 4.33219e-20)
(0.49957 0.00505111 0)
(0.500311 0.000970913 0)
(0.522385 0.0152706 -1.92889e-20)
(0.500173 -0.000290976 1.45084e-20)
(0.515796 3.08333e-05 3.86661e-21)
(0.533589 -0.000989276 4.00549e-24)
(0.488996 -0.0286497 -4.20877e-20)
(0.540201 0.0180406 3.31647e-21)
(0.518577 -0.000127945 0)
(0.500721 -0.00156216 0)
(0.515769 0.000153509 0)
(0.501108 0.000862562 0)
(0.500343 0.00098687 0)
(0.496285 0.00318179 0)
(0.517079 0.000641249 0)
(0.515808 0.000151944 0)
(0.520263 0.00276857 2.83634e-21)
(0.503944 0.00916202 -2.40951e-20)
(0.499925 5.32774e-05 2.96981e-20)
(0.498046 0.0195989 0)
(0.500401 -9.317e-05 0)
(0.527085 -0.00362006 -1.61553e-20)
(0.529694 -0.0285946 -7.66669e-21)
(0.518551 0.00910694 6.36589e-21)
(0.518233 0.0108743 -9.12735e-21)
(0.519599 -0.00159961 5.6839e-23)
(0.519025 -0.00547842 1.14521e-21)
(0.51679 0.00500095 -5.05436e-22)
(0.506687 0.00785344 2.08915e-22)
(0.515026 0.000794661 2.37089e-21)
(0.483626 -0.0426184 0)
(0.529598 0.00687764 0)
(0.551226 0.0203519 2.98346e-22)
(0.543887 -0.0298857 0)
(0.381641 0.0809513 -1.03737e-20)
(0.515808 -0.000293384 -2.08875e-23)
(0.515788 0.000146256 1.06815e-21)
(0.515694 -0.000212562 1.04203e-21)
(0.402687 0.0192644 8.97273e-22)
(0.456522 -0.0250119 -2.13872e-22)
(0.51702 0.000632817 -4.47206e-22)
(0.517362 0.00466475 1.13036e-20)
(0.524446 -0.00838599 -1.06767e-20)
(0.387726 -0.0312833 3.59638e-20)
(0.510618 -0.00455215 -1.78599e-21)
(0.504268 0.00940381 0)
(0.517827 0.00202902 0)
(0.505933 -0.0108505 9.31698e-21)
(0.409304 -0.108869 -1.81281e-20)
(0.494157 0.0203006 1.4096e-20)
(0.524908 -0.00443626 8.73345e-23)
(0.52475 0.00180851 1.61273e-20)
(0.509154 -0.00276306 -8.23667e-21)
(0.517334 0.000439018 1.82923e-21)
(0.565457 0.00792913 -2.69311e-20)
(0.506526 0.00779439 2.17228e-22)
(0.230792 0.106332 5.89435e-20)
(0.37883 -0.00336305 -8.81884e-21)
(0.546611 0.019816 3.80803e-20)
(0.410927 0.0940528 -3.68501e-22)
(0.523141 0.00816541 -4.58353e-23)
(0.403502 0.0243774 -8.78347e-21)
(0.530494 -0.00192813 -2.53339e-20)
(0.503503 -0.000582831 0)
(0.53325 -0.00632735 0)
(0.494681 0.00272479 1.21266e-20)
(0.514181 -0.0244121 0)
(0.464477 -0.0262065 -5.35159e-20)
(0.487579 -0.0172777 -1.04778e-20)
(0.484608 0.00036013 5.11523e-22)
(0.299935 -0.0781931 -4.21042e-20)
(0.519003 -0.00131334 1.0071e-20)
(0.518999 -0.00129245 -9.50575e-21)
(0.441113 -0.014456 0)
(0.484081 -0.0148632 0)
(0.516567 0.000265681 0)
(0.483536 -0.00379523 -1.27634e-22)
(0.591932 0.127171 -9.9988e-22)
(0.516557 0.000224331 -3.56213e-21)
(0.524627 0.00174531 -8.23676e-21)
(0.223556 -0.0650971 0)
(0.507497 0.039555 -1.8743e-22)
(-0.00969468 -0.0129462 1.88375e-20)
(0.228495 0.101099 -1.64535e-20)
(0.525001 0.011841 -1.08193e-20)
(0.504088 0.00921362 7.29202e-21)
(0.516903 -0.00231267 3.83011e-22)
(0.470381 -0.0394291 -8.15462e-20)
(0.469591 -0.0389439 7.28584e-20)
(0.495451 -0.0169679 0)
(0.482429 -0.0567251 0)
(0.00881986 -0.0088601 -2.13705e-20)
(0.5166 0.000161404 3.83717e-22)
(0.516613 0.000151564 -3.44419e-22)
(0.521383 -0.00844642 0)
(0.521463 0.00999471 2.33421e-21)
(0.525073 0.0190856 -1.15902e-21)
(0.515013 0.000639744 1.93403e-21)
(0.499917 -0.00137666 5.24226e-21)
(0.483487 -0.00409808 1.98543e-22)
(0.43143 0.0834128 8.9457e-21)
(0.518501 0.0108837 9.7538e-21)
(0.51666 0.00019714 1.45815e-22)
(0.516673 0.000209296 0)
(0.525588 -0.0207783 -1.68231e-21)
(0.491196 -0.0381631 -1.76667e-20)
(0.472519 -0.0151422 0)
(0.508797 0.0759734 3.08131e-22)
(0.50945 -0.00297286 -1.91672e-21)
(0.508927 0.0732819 0)
(0.555691 0.0297237 -6.31427e-20)
(0.442019 0.00660892 -5.4501e-20)
(0.54103 0.0171521 -4.78138e-21)
(0.507718 -0.00564026 3.25785e-21)
(0.530858 -0.0154602 -1.84592e-20)
(0.355871 -0.296295 -5.45169e-22)
(0.502808 0.0718447 0)
(0.474182 0.0672609 -5.53061e-22)
(0.50744 0.0748009 0)
(0.142306 -0.122289 0)
(0.484736 0.0190118 0)
(0.50446 0.00179482 3.98143e-21)
(0.568578 0.14545 -4.21726e-20)
(0.527603 0.0181092 -1.07116e-20)
(0.519335 -0.00243422 -9.58566e-22)
(0.503341 -0.00598589 -2.99378e-21)
(0.505092 0.0053082 0)
(0.524818 -0.00456161 0)
(0.520201 0.00258203 0)
(0.520664 -0.000971552 -1.54218e-22)
(0.520443 0.00273609 3.54702e-22)
(0.509782 -0.0025768 -4.41162e-21)
(0.530993 0.00471687 0)
(0.500106 0.00119945 1.83709e-20)
(0.52953 0.00655303 -7.60507e-21)
(0.515876 4.75671e-05 -3.43528e-22)
(0.500948 -0.00641752 0)
(0.455566 -0.0244399 1.46096e-20)
(0.517286 0.000356312 0)
(0.510064 0.010369 -1.33299e-20)
(0.50021 -0.00265587 4.2498e-20)
(0.500198 -0.000316494 -6.28165e-20)
(0.522757 0.00232135 3.37329e-21)
(0.495959 -0.0214262 2.19485e-20)
(0.465475 0.0456364 9.15245e-21)
(0.543462 -0.0286167 0)
(0.527852 0.0180136 -3.80022e-21)
(0.520781 -0.000840542 1.94883e-22)
(0.495692 -0.0168702 0)
(0.518606 0.00150989 1.56498e-20)
(0.528338 -0.130407 0)
(0.535912 0.0416118 1.66798e-20)
(0.465049 -0.0267327 0)
(0.517026 -0.000437916 0)
(0.533418 -0.00611387 -2.073e-21)
(0.263245 0.0598365 -5.15731e-20)
(0.465065 -0.0396093 -2.59699e-20)
(0.52286 0.00218438 0)
(0.567428 0.00299412 2.29964e-20)
(0.500093 0.00122968 4.28818e-23)
(0.360573 -0.11764 -2.98775e-20)
(0.502801 0.000763959 0)
(0.516225 -1.3411e-05 1.66189e-22)
(0.442196 -0.0152559 -1.70355e-20)
(0.465997 -0.0389659 -1.12604e-20)
(0.408147 -0.108759 1.6061e-20)
(0.530321 -0.0154306 2.99798e-20)
(0.335418 -0.131893 1.53082e-20)
(0.500492 -0.0021967 -3.05466e-20)
(0.517315 0.00038113 8.99875e-22)
(0.499623 0.00514077 -1.2166e-20)
(0.524235 -0.00813838 1.0697e-20)
(0.0487384 -0.0164728 -8.66846e-20)
(0.536981 -0.00142426 -6.0116e-21)
(0.532891 0.00901845 1.19668e-20)
(0.497657 -0.0274507 0)
(0.518973 -0.00598395 0)
(0.502941 -0.00445181 -3.20352e-21)
(0.519279 0.0193183 0)
(0.518658 -0.000119934 0)
(0.357341 -0.00314465 6.33083e-20)
(0.532834 0.0232088 2.44862e-20)
(0.535203 -0.00124402 2.54443e-21)
(0.518472 0.000443854 0)
(0.484686 0.0194139 -3.6741e-22)
(0.500726 -0.00152119 0)
(0.534086 -0.0106906 2.89591e-21)
(0.499897 -0.00140828 2.11418e-20)
(0.515403 -2.53381e-05 -8.48089e-22)
(0.51852 0.00155335 -1.09732e-20)
(0.496508 0.00152177 1.27812e-21)
(0.500679 0.0202675 9.66419e-21)
(0.52663 -0.00848932 7.52618e-21)
(0.516613 -0.000761208 0)
(0.517629 -0.00196232 0)
(0.51635 0.000336377 0)
(0.48256 -0.0355984 6.29455e-23)
(0.31493 -0.0761896 7.93721e-20)
(0.0122994 -0.00856563 1.99017e-20)
(0.428464 0.0846594 -6.84493e-21)
(0.542813 0.0387458 0)
(0.515662 2.21168e-08 -2.97459e-21)
(0.0554308 0.0699446 0)
(0.491481 0.00352307 -8.80431e-21)
(0.402147 0.0182216 8.26198e-21)
(0.518703 -0.00132514 0)
(0.516593 -0.000758481 0)
(0.516895 0.000186907 0)
(0.60878 0.0383941 -1.73198e-20)
(0.527182 -0.00367876 1.66046e-20)
(0.534593 -0.000372475 -4.34522e-21)
(0.496358 -0.0214543 6.77394e-21)
(0.516949 -0.000360852 3.7143e-21)
(0.500014 0.00160993 -3.57679e-20)
(0.525025 0.00811045 1.78827e-21)
(0.515758 0.000153667 0)
(0.489052 0.0310758 -4.07465e-22)
(0.511039 -0.00850425 0)
(0.486985 0.0298194 -5.49034e-22)
(0.516903 -0.000382657 -2.8655e-21)
(0.496431 0.00320682 5.16251e-21)
(0.532905 -0.00228801 1.01256e-21)
(0.500941 -0.00211509 0)
(0.515701 -0.000221987 6.97694e-22)
(0.605977 0.0216097 0)
(0.516919 0.0003274 0)
(0.518418 0.000404311 0)
(0.526642 -0.00809542 -1.02468e-20)
(0.46188 -0.0981468 -2.3315e-20)
(0.494082 -0.0294731 8.5324e-21)
(0.50519 0.00534315 0)
(0.284265 0.243962 0)
(0.518402 -0.00738705 0)
(0.518138 -0.00721214 8.04449e-23)
(0.516949 0.000184634 0)
(0.373964 -0.125608 0)
(0.543122 -0.0240364 -7.95227e-21)
(0.499559 -0.00277818 -2.85617e-20)
(0.519193 -0.0363612 8.99087e-22)
(0.515796 2.99117e-05 2.69335e-21)
(0.51637 0.000294968 3.38531e-22)
(0.50813 0.0224671 4.22385e-21)
(0.516315 0.120967 4.54957e-21)
(0.513385 0.00323933 0)
(0.363051 -0.0687543 0)
(0.516373 0.000335074 3.83305e-23)
(0.521795 -0.00230913 5.56018e-21)
(0.500459 -0.00219484 0)
(0.521357 -0.00818609 0)
(0.423942 -0.0298393 -2.89816e-20)
(0.404887 0.0322958 0)
(0.516022 -0.000109752 8.99686e-22)
(0.489798 0.0213915 -4.87172e-21)
(0.530322 -0.00847304 -1.64932e-20)
(0.430053 0.210044 -2.5604e-20)
(0.518421 0.000343727 -2.90475e-21)
(0.522364 -0.0129816 0)
(0.517033 -0.000474658 0)
(0.52286 -0.0126457 0)
(0.455979 0.219464 -5.5306e-20)
(0.463959 -0.0340066 0)
(0.503709 0.00909252 6.52969e-21)
(0.530047 -0.00808694 0)
(0.504887 0.0110017 -7.43705e-21)
(0.508499 0.0296811 1.55308e-20)
(0.501027 -0.00645255 0)
(0.516142 0.000169815 5.33123e-21)
(0.463577 -0.0350449 0)
(0.500141 -0.000632152 3.79378e-20)
(0.49859 -0.000812472 0)
(0.558327 0.0315374 -5.64298e-22)
(0.500009 0.00156094 1.60487e-20)
(0.523505 0.00811615 0)
(0.542979 0.0102721 4.06382e-20)
(0.515689 -0.000217542 -7.85135e-22)
(0.536359 -0.000241426 2.42665e-21)
(0.53547 0.0409644 0)
(0.018095 -0.103777 3.31311e-21)
(0.515468 1.81139e-05 1.29839e-21)
(0.445021 0.0585912 1.30945e-21)
(0.510899 -0.00832502 -1.68496e-22)
(0.232279 -0.063755 -3.33538e-20)
(0.516368 0.000313442 1.08784e-21)
(0.520829 -0.00740049 2.90599e-21)
(-0.00330486 -0.00476852 1.0415e-20)
(0.515623 -2.26144e-06 0)
(-0.00222405 -0.00276077 2.57212e-21)
(0.528613 -0.101736 -4.86476e-20)
(0.500346 0.0203476 9.80946e-21)
(0.516248 -0.000200621 5.60775e-23)
(0.570974 0.0321164 1.02024e-19)
(0.454145 0.0338381 0)
(0.501991 0.00140971 0)
(0.501087 -0.00461653 -5.48392e-21)
(0.497976 0.00346664 0)
(0.497636 0.00329621 0)
(0.564544 0.14522 4.10157e-20)
(0.515893 4.38789e-05 2.6497e-22)
(0.516214 -2.39716e-06 -9.51191e-24)
(0.492092 -0.00204022 -1.84119e-20)
(0.500913 0.00086534 2.02855e-24)
(0.499558 -0.000461874 4.78112e-20)
(0.512934 0.00290879 0)
(0.499867 -0.035643 1.25066e-20)
(0.50889 0.0295222 -9.90577e-21)
(0.501259 -0.00674157 1.10145e-20)
(0.479178 -0.000260879 -8.12403e-21)
(0.50116 -0.00463802 0)
(0.510751 0.00875957 7.05123e-21)
(0.521445 -0.00237157 -3.87159e-21)
(0.51083 0.00884467 -1.76459e-20)
(0.524146 0.019556 4.77983e-22)
(0.500251 -0.00268778 -4.86087e-20)
(0.504258 0.00410281 -3.84638e-22)
(0.513928 0.0020349 2.75295e-22)
(0.500873 0.00249952 -3.15789e-20)
(0.520012 -0.000341502 3.70913e-21)
(0.528895 -0.00189547 -5.25167e-22)
(0.501808 0.00512581 -1.70279e-21)
(0.35696 -0.01742 -4.18268e-20)
(0.502035 -0.00590073 -1.41953e-20)
(0.518296 0.00401079 -2.22117e-22)
(0.508112 0.0221979 -5.01661e-22)
(0.517895 -0.000894399 5.74594e-22)
(0.499671 -0.00124674 5.98034e-20)
(0.493877 0.0374449 -3.73897e-20)
(0.516796 -0.00142842 3.6709e-21)
(0.516942 -0.00132464 -2.09704e-21)
(0.494516 0.00810383 1.59823e-20)
(0.546127 -0.0183183 2.16642e-21)
(0.521842 -0.00105137 8.40882e-21)
(0.396585 0.109371 5.04062e-20)
(0.500107 -0.000606021 -1.53016e-20)
(0.533 -0.00135333 1.02103e-21)
(0.515543 4.58385e-05 2.80671e-21)
(0.503845 0.00495046 -6.79521e-22)
(0.502761 0.000739734 -4.31641e-21)
(0.547943 0.00543833 0)
(0.499058 0.000667703 0)
(0.500367 -9.75828e-05 0)
(0.548137 -0.0197411 0)
(0.500892 -0.00210421 0)
(0.604314 0.0211829 -5.12287e-20)
(0.515528 -0.00369272 0)
(0.532176 -0.014861 2.24586e-22)
(0.516677 -0.00205613 0)
(0.524717 0.0117593 9.21667e-21)
(0.353616 -0.29801 1.40296e-21)
(-0.00571725 0.0220757 0)
(0.518773 -0.0151147 -9.34787e-23)
(-0.0810766 -0.0606732 -6.71798e-20)
(0.446688 0.0439047 -4.65197e-21)
(0.516014 -0.000108343 -1.68369e-21)
(0.51398 -0.000704677 0)
(0.43975 0.0436269 0)
(0.525845 -0.0146511 1.41629e-21)
(0.500896 0.000898721 -4.01369e-20)
(0.516204 0.000120968 0)
(0.528879 -0.00884558 9.73514e-21)
(0.51655 2.25995e-06 5.82866e-22)
(0.520822 -0.00748722 0)
(0.511435 0.0795566 0)
(0.469704 0.00611083 -5.99271e-20)
(0.343398 -0.0365691 0)
(0.499132 -0.0106869 4.0357e-23)
(0.00483496 -0.102683 0)
(0.521941 -0.000996996 8.96944e-21)
(0.013851 -0.00914022 -1.20992e-22)
(0.507988 -0.00574217 0)
(0.525349 0.0220535 1.72061e-21)
(0.478897 0.000417155 0)
(0.526944 0.0207405 0)
(0.441058 0.0585365 0)
(0.496031 -0.00857616 2.03311e-20)
(0.48825 0.00682892 -6.87211e-20)
(0.521593 0.0102086 0)
(0.513581 0.00873554 3.4514e-21)
(0.49754 -0.000865909 -4.66575e-21)
(0.498989 -0.0106952 -2.14322e-20)
(0.462423 0.0485341 0)
(0.481087 0.0336128 -2.85723e-20)
(0.517387 0.000808245 -4.02641e-24)
(0.516301 0.000161942 -1.35789e-21)
(0.548248 0.00523884 0)
(0.582614 0.0314028 5.40301e-20)
(0.516723 -0.00131368 1.18635e-23)
(0.500823 0.00250478 3.15738e-20)
(0.538552 -0.00999788 -2.95091e-20)
(0.557221 0.0308757 -7.3937e-20)
(0.498885 -0.0165464 -2.11881e-21)
(0.482438 -0.00240618 -2.83964e-20)
(0.519954 -6.75418e-05 -7.58941e-23)
(0.507399 0.0158908 -7.15608e-21)
(0.502398 0.00701036 0)
(0.479337 0.000515609 2.66702e-20)
(0.329763 0.0500985 7.73184e-20)
(0.514008 -0.000855409 -1.47469e-21)
(0.515976 -0.000631646 0)
(0.508994 -0.00609719 -1.31217e-23)
(0.515658 0.000124845 0)
(0.606455 0.0453534 -4.36188e-20)
(0.516486 0.000787835 0)
(0.491888 0.00245445 0)
(0.522583 0.000715523 0)
(0.528338 -0.00192516 -5.02844e-22)
(0.597637 -0.0266987 1.22699e-20)
(0.491701 -0.0311417 0)
(0.416837 -0.079163 2.94488e-21)
(0.499871 -0.00238817 1.52248e-20)
(0.501991 -0.0011897 0)
(0.500456 0.0171188 -3.1073e-20)
(0.469982 0.00553574 5.38956e-20)
(0.480946 0.0340648 0)
(0.46302 -0.0966222 2.41247e-20)
(0.491157 0.0162866 3.60767e-20)
(0.511076 0.0338414 4.12756e-22)
(0.368859 0.0281999 -1.46985e-19)
(0.517032 -0.0013633 -8.64268e-22)
(0.532415 0.00600039 0)
(0.499851 -0.0350023 0)
(0.53116 0.00599571 0)
(0.516297 0.000155086 1.27911e-21)
(0.507346 0.0357952 2.84106e-21)
(0.51655 2.33e-07 0)
(0.516038 0.000114974 0)
(0.0824357 0.0350302 -9.32737e-21)
(0.420254 -0.0777414 -5.0285e-21)
(0.498186 -0.0274971 -2.63124e-20)
(0.517153 -0.0137324 0)
(0.515675 0.00012841 0)
(0.525156 0.0146577 1.04815e-20)
(0.509475 -0.00320627 1.9813e-21)
(0.384927 -0.145481 1.44591e-20)
(0.491338 0.0160164 0)
(0.503263 0.0019789 3.77355e-21)
(0.50144 0.000328133 1.38971e-20)
(0.516021 0.000202753 0)
(0.518296 -0.0107001 1.91756e-21)
(0.516164 -0.000143068 -1.29644e-21)
(0.515478 1.99818e-05 1.14069e-21)
(0.535068 0.00459081 4.12133e-20)
(0.516931 0.000331414 4.14568e-22)
(0.497473 -0.000802468 3.03936e-20)
(0.492284 -0.00202481 -4.527e-20)
(0.470214 0.14974 3.03419e-21)
(0.509808 0.00478004 -9.73239e-22)
(0.363759 -0.0828971 4.25175e-21)
(0.516609 0.0032288 0)
(0.487026 -0.0183822 -4.80418e-20)
(0.44957 -0.033199 -2.86494e-20)
(0.517147 -0.000349237 2.22123e-21)
(0.500443 -0.00332752 -5.1569e-21)
(0.516205 0.000113381 0)
(0.400226 0.111479 -3.87384e-20)
(0.523393 -0.00115119 0)
(0.51971 -0.00215106 0)
(0.388571 -0.0737501 -1.34251e-21)
(0.539144 -0.0235138 0)
(0.525362 0.0075894 -1.53272e-21)
(0.176958 0.0741413 -5.32818e-20)
(0.500754 0.017246 2.79896e-20)
(0.510638 -0.0663985 7.49637e-20)
(0.510191 0.01027 1.57558e-20)
(0.535049 0.00412047 3.68338e-20)
(0.494736 0.00800027 -2.87186e-21)
(0.502736 -0.000554156 1.54675e-20)
(0.502508 0.00704351 1.93696e-20)
(0.5174 -0.000254777 -1.24019e-21)
(0.515673 3.63072e-05 0)
(0.519172 -0.00040249 0)
(0.539164 -0.00967698 2.86673e-20)
(0.526731 6.70113e-05 -1.28671e-21)
(0.495433 -0.00287747 -2.55606e-20)
(0.500481 -0.00335539 1.73903e-20)
(0.516135 -0.000716419 -1.34589e-21)
(0.484661 0.000121521 -3.79042e-22)
(0.514701 -0.0151587 -1.42961e-21)
(0.519242 -0.000468353 2.44058e-22)
(0.51641 0.118417 -7.24289e-21)
(0.513634 0.00776473 -5.47765e-21)
(0.576051 -0.0241397 -7.96876e-20)
(0.436391 0.0375603 3.90995e-20)
(0.293379 0.239323 0)
(0.501171 -0.00668221 -1.27282e-20)
(0.517989 -0.00104286 0)
(0.516059 5.84138e-05 1.37612e-21)
(0.454813 0.0488559 -8.85026e-22)
(0.515666 3.2883e-05 0)
(0.523199 -0.00119144 4.58894e-21)
(0.491866 -0.00590926 0)
(0.516672 0.000526397 2.85199e-21)
(0.51664 0.000517154 1.51455e-21)
(0.502912 -0.00972998 1.26082e-20)
(0.142898 -0.00717533 6.67295e-20)
(0.51589 -0.000175445 -1.59903e-21)
(0.51621 7.58171e-05 9.79493e-22)
(0.48792 -0.0174477 5.74517e-20)
(0.538902 -0.041059 -2.77002e-21)
(0.482588 -0.00259053 -6.36921e-22)
(0.456107 0.0492962 -2.04448e-22)
(0.513997 0.00212472 -2.31052e-22)
(0.579097 0.188537 2.40195e-20)
(0.513027 0.0309584 1.3068e-20)
(0.516994 0.000124748 0)
(0.516338 0.000168984 0)
(0.516168 0.00224284 -2.35025e-21)
(0.538435 -0.0404234 2.88833e-21)
(0.515883 -0.000162433 1.03636e-21)
(0.518657 -0.00114029 0)
(0.518149 0.00198452 -3.81263e-21)
(0.52297 0.000769493 0)
(0.518946 -0.000914952 4.25756e-21)
(0.548903 -0.0410987 0)
(0.589539 0.128641 2.67077e-20)
(0.516494 0.00076507 3.8518e-21)
(0.504309 0.0115015 0)
(0.517018 0.000128139 2.38548e-21)
(0.516279 -0.000194614 -2.67867e-21)
(0.487886 0.0190938 0)
(0.516096 0.00225771 -4.15589e-21)
(0.499842 -0.0183624 2.24745e-21)
(0.217766 -0.0647693 -3.41111e-21)
(0.516039 5.28578e-05 1.131e-21)
(0.453186 0.00781692 0)
(0.459788 -0.0587408 0)
(0.425232 0.0498494 7.9137e-21)
(0.521042 -0.00018626 3.77002e-21)
(0.556207 0.0201975 0)
(0.516577 0.00304496 0)
(0.532646 -0.0147362 0)
(0.491446 0.0031857 -3.13015e-20)
(0.51843 0.00031841 2.63632e-21)
(0.529583 0.0141794 0)
(0.517859 -0.0153771 1.70254e-21)
(0.499638 -0.00128382 -4.01327e-20)
(0.516528 -2.04231e-05 -2.47852e-21)
(0.518901 -0.000923567 0)
(0.518635 -0.01735 -1.58665e-22)
(0.500569 -0.00442237 0)
(0.487704 -0.012218 0)
(0.499375 0.00227011 -1.42007e-20)
(0.515866 0.000200362 -6.42821e-22)
(0.179266 -0.161272 3.425e-21)
(0.486364 0.002855 2.16999e-20)
(0.528818 -0.015931 9.94085e-21)
(0.534492 0.0046054 -4.39663e-20)
(0.522646 0.000665195 -2.678e-23)
(0.516564 -1.21014e-05 0)
(0.483625 -0.0565506 0)
(0.481744 0.0199347 0)
(0.515897 -0.0003219 0)
(0.0923865 0.0451168 1.98591e-20)
(0.502612 -0.00633199 -5.9634e-21)
(0.403113 -0.0266627 -9.90554e-22)
(0.500023 0.000196262 2.69829e-20)
(0.495461 -0.002797 0)
(0.528788 -0.0162016 -1.86852e-20)
(0.515877 -0.000317132 0)
(0.014795 -0.00479914 6.60679e-20)
(0.488873 -0.00984236 -5.4559e-20)
(0.516168 -0.000106276 1.09609e-21)
(0.518294 0.00199518 3.83282e-21)
(0.518854 -0.000942106 0)
(0.0115873 -0.0319414 -2.0206e-20)
(0.518075 -0.0107343 1.41778e-21)
(0.498919 -0.0163336 0)
(0.517756 0.000443027 2.9255e-21)
(0.51869 -0.00117584 0)
(0.418748 0.0497132 0)
(0.436946 0.0362648 -3.91016e-20)
(0.517652 0.00040868 -4.47632e-24)
(0.5301 0.013807 0)
(0.397647 -0.0413417 -8.60744e-22)
(0.481305 0.0238232 0)
(0.514762 -0.0137566 -1.4142e-21)
(0.499664 0.00324677 -1.75777e-20)
(0.506624 0.0147869 3.11157e-21)
(0.329495 0.0538034 -8.19497e-20)
(0.521415 0.00787478 3.29762e-21)
(0.515434 0.00400189 0)
(0.523612 0.00211398 -9.61885e-21)
(0.525636 -0.100686 5.52249e-20)
(0.402657 -0.0215056 0)
(0.500016 0.000171321 0)
(0.498674 -0.0163266 2.23062e-20)
(0.607597 0.0423802 5.58458e-20)
(0.520148 7.52459e-06 0)
(0.40747 0.121914 -5.56356e-20)
(0.500711 0.0104636 -2.02169e-22)
(0.488542 0.00691301 7.63634e-20)
(0.497767 0.0510251 3.53942e-20)
(0.137646 0.189515 -6.52964e-20)
(0.502071 -0.00581982 0)
(0.499713 0.00326735 -6.30469e-21)
(0.509954 -0.00725902 1.38187e-20)
(0.539803 -0.0930594 -1.15984e-20)
(0.504454 0.0114812 0)
(0.515605 -3.41207e-05 1.26027e-21)
(0.516308 0.00016157 0)
(0.522539 -0.00243624 -3.40198e-22)
(0.515829 -0.000298183 2.95278e-22)
(0.519502 0.00109733 0)
(0.515519 0.00396453 -4.44152e-22)
(0.509788 0.00461519 -4.0083e-21)
(0.489329 -0.0456866 0)
(0.521554 -0.000859976 3.33853e-22)
(0.503168 0.000316487 2.60269e-20)
(0.364301 -0.0905609 3.27029e-21)
(0.500019 8.52405e-07 5.84377e-20)
(0.516248 -0.00016169 3.43284e-21)
(0.5288 -0.128142 0)
(0.587589 -0.0768752 0)
(0.475031 -0.000560373 -2.69304e-21)
(0.522744 0.000752953 0)
(0.311493 -0.000437334 0)
(0.520037 -0.0382938 8.28297e-22)
(0.0557045 -0.0167997 6.05786e-20)
(0.52103 -0.0219532 5.0613e-21)
(0.50282 -0.000513645 0)
(0.529705 -0.00104819 -1.44389e-20)
(0.517459 -0.000297847 1.37863e-21)
(0.530529 0.00660657 0)
(0.586434 -0.0780004 0)
(0.538262 0.0130775 -4.67125e-21)
(0.503651 0.00626925 0)
(0.525508 -0.00509096 5.39454e-22)
(0.502526 0.00188023 -1.45131e-21)
(0.481777 0.0354774 1.30935e-20)
(0.518336 -0.00359413 0)
(0.508065 0.0104018 -1.11562e-20)
(0.503268 0.000312266 -5.50908e-21)
(0.131877 -0.00737152 -6.98659e-20)
(0.482311 0.124433 3.55515e-21)
(0.515991 0.000193616 0)
(0.518528 6.43115e-05 0)
(0.443267 -0.00201007 0)
(0.515776 3.94904e-05 -1.62217e-23)
(0.510739 0.000928031 -5.65392e-22)
(0.522185 -0.00223559 5.26235e-22)
(0.512468 -0.00528961 3.87359e-21)
(0.523805 0.00280287 -1.02828e-20)
(0.447142 -0.0661542 -1.13001e-20)
(0.501167 0.000756236 0)
(0.521534 0.0197385 9.56996e-21)
(0.499101 0.00258238 4.63829e-20)
(0.503098 -0.034082 -2.18477e-21)
(0.513552 -0.00784408 3.84663e-21)