/*--------------------------------*- C++ -*----------------------------------*\
  =========                 |
  \\      /  F ield         | OpenFOAM: The Open Source CFD Toolbox
   \\    /   O peration     | Website:  https://openfoam.org
    \\  /    A nd           | Version:  9
     \\/     M anipulation  |
\*---------------------------------------------------------------------------*/
FoamFile
{
    format      ascii;
    class       surfaceScalarField;
    location    "85";
    object      phi;
}
// * * * * * * * * * * * * * * * * * * * * * * * * * * * * * * * * * * * * * //

dimensions      [0 3 -1 0 0 0 0];

internalField   nonuniform List<scalar> 
167688
(
-0.0421976
0.025439
0.0167586
0.00800773
-0.0735527
0.065545
0.0359004
0.0487568
-0.0846572
0.0394194
-0.085815
0.0463956
0.10263
-0.0897462
-0.012884
-0.0730245
0.0130866
0.0599379
0.0419246
-0.0246603
-0.0172643
-0.0386917
0.0781111
-0.125426
0.0424982
0.0829278
-0.0261281
-0.00370724
0.0298353
-0.0517076
0.0597154
-0.0616493
0.0349204
0.0267289
0.117472
-0.089841
-0.0276307
-0.0464161
-0.0152332
-0.0372878
0.016955
0.0203328
0.0420556
0.032138
-0.0741937
0.0188958
-0.00286479
-0.016031
0.0211199
-0.0259368
0.00481692
0.0300488
0.0389449
-0.0689937
0.108564
-0.0663931
-0.0421705
-0.0825646
-0.0225301
0.105095
0.0464621
0.0522238
-0.0986859
0.0625966
-0.0325478
-0.0890778
0.0646854
0.0243924
0.0940463
-0.0178011
-0.0762451
-0.0784037
0.0307585
0.0476452
0.0124015
0.0103666
-0.0227682
0.0718168
-0.0802085
0.00839168
-0.0911604
0.0181359
0.000205331
-0.08277
0.0117404
0.0691951
-0.0809355
0.0612063
-0.0581232
-0.00308308
0.135705
-0.121647
-0.0140571
-0.00787681
0.00741326
0.000463554
-0.0713606
-0.0540654
-0.117784
0.0782141
0.0395703
0.052784
0.0557796
0.00443265
-0.0140748
0.00964213
0.0271435
0.0381778
-0.0653214
-0.0572551
-0.0367572
0.0940122
0.0341929
-0.092024
0.0578311
-0.0637912
0.0141307
0.0496605
-0.0746445
-0.0108059
0.0854504
0.0655059
-0.0296056
0.0410679
-0.019948
0.0405585
-0.0672628
0.0267043
-0.00423239
-0.00364443
-0.101049
0.0015399
0.0995095
-0.0996936
0.0371633
0.0625303
-0.00200815
-0.061783
0.07061
-0.029178
-0.0414319
-0.026365
0.0234142
0.00295084
0.0895865
-0.0878674
-0.00171911
-0.0550744
0.082218
0.00646558
-0.0704064
0.0639408
0.0227686
0.019156
-0.068074
0.0476527
0.0204213
0.066096
-0.0317732
-0.0343228
-0.034299
0.00419034
0.0301086
0.0727222
-0.0321637
0.00851724
0.0326143
-0.0411315
-0.0404249
-0.0606244
0.117168
-0.0348779
-0.0822898
-0.000253909
0.117422
-0.00717432
-0.0295592
0.0367335
0.126332
-0.0733143
-0.0530173
0.0142769
-0.00984421
0.109636
-0.0871105
-0.0225258
-0.061166
0.0053333
0.0558327
-0.0860212
-0.0156621
0.101683
0.0427279
0.0233682
-0.00385499
0.00261665
0.00123834
-0.0621327
-0.0269451
-0.026861
0.0212312
0.00562976
-0.0128286
0.0414758
-0.0286471
-0.00938959
0.0123648
-0.00297519
0.0903639
-0.00564864
-0.0847153
-0.019429
0.0463403
-0.0238154
-0.0225248
-0.0590084
0.00393403
0.0165636
0.0666441
-0.0832077
-0.00216863
-0.00722096
0.048041
0.022569
-0.063643
-0.0147607
0.111788
-0.0697325
0.0158076
-0.0700733
0.0542657
0.0719233
-0.0507421
-0.0211812
0.0672475
-0.0607819
-0.00464542
0.00435636
0.000289055
-0.0665898
0.0848068
-0.018217
0.135679
-0.058524
-0.0771548
-0.0496995
-0.0680849
0.0353197
0.0366036
0.0329145
0.0697158
0.0336928
-0.0465214
0.118504
-0.02814
0.0752063
-0.049483
-0.0257233
-0.0281614
-0.00912639
0.0787698
-0.0670294
-0.0578248
-0.0102493
0.059256
0.0582156
0.112092
-0.107792
-0.00429991
-0.0925338
0.0664688
0.0260651
0.0633195
-0.102679
0.0393593
-0.00657181
0.0359356
-0.0293638
-0.0152771
0.00295483
0.0123223
-0.0484297
0.0412554
-0.0567314
0.0923883
-0.0356568
0.0778946
-0.116627
0.0387322
-0.0640425
0.07985
-0.000171214
-0.00368378
-0.0450007
0.0467643
-0.00176362
0.0454096
0.0319251
-0.0773347
-0.0723356
0.047011
0.0253246
-0.075453
0.014287
-0.0576089
0.0202003
0.0374087
0.0424268
-0.00490649
-0.0375203
0.00594268
-0.0719955
0.0660529
-0.00396751
-0.000677906
-0.127798
0.0899187
0.0378796
0.0510172
-0.0822688
0.0312516
-0.00811904
0.0799358
-0.0398969
0.0137688
0.0609638
-0.0847128
0.023749
-0.0549248
0.0891177
-0.0199331
0.0832526
-0.00198217
-0.0174439
0.0194261
0.00242662
0.0649402
-0.0673668
-0.0859853
0.0223279
0.0636574
0.032941
-0.0395128
-0.0279629
0.0889267
0.0303028
-0.0179013
0.0215556
0.0737241
-0.0952797
0.0208652
-0.00436425
-0.016501
-0.0167923
0.0549701
-0.103226
0.0459709
0.127844
-0.090563
-0.0372808
0.103118
-0.0745254
-0.0285922
-0.0445645
-0.0278946
0.0724591
0.0534173
-0.0097385
-0.0436788
0.0400174
0.0631002
-0.0618966
0.0575406
0.00435599
-0.068744
-0.00182073
0.0705647
-0.00832279
0.0132349
-0.00491213
0.0203841
-0.0771155
-0.069589
0.0387636
0.0308254
0.0239974
0.00544633
-0.0294437
-0.116185
0.0376828
0.0785024
0.0750416
-0.0690989
-0.0846943
0.0865613
-0.00186701
-0.0161185
0.000841444
-0.0350686
0.0815307
-0.0365563
0.0513788
-0.0148225
0.00580936
0.0837772
-0.0877672
0.0432027
0.0706311
-0.0349721
-0.0356589
-0.0864077
0.0749569
0.0114508
-0.0253734
-0.0469622
-0.0365737
0.00227478
0.0375796
-0.00243592
-0.0351437
0.0982745
-0.0528649
-0.108637
0.0731899
0.0354468
0.00718282
0.0460197
-0.0532025
-0.0734223
0.0364637
0.0369587
-0.086418
0.0938787
-0.00746063
0.0846081
-0.00556735
-0.0790408
0.052198
0.00505495
-0.057253
0.022305
0.0389013
-0.0886739
0.00795262
0.0807212
-0.0563737
0.0603938
-0.0040201
0.0177423
0.0427052
-0.0604475
0.0651943
0.00543672
0.0896191
-0.0824363
-0.0186658
0.010343
-0.0158423
-0.048169
0.0640113
-0.0454756
-0.0823227
-0.0914954
-0.0081982
0.12226
-0.0303986
-0.0918616
0.0652078
-0.0505821
-0.0146257
-0.000763229
-0.0754922
0.0762555
-0.0523352
0.0364929
0.0828069
0.0206191
-0.103426
-0.1152
0.0124847
0.102715
0.0721999
-0.102156
0.0299562
-0.0721178
0.043949
0.0281688
-0.0454951
0.0329434
0.0125517
-0.0592511
-0.0493856
-0.00391694
-0.0825011
-0.073408
0.00466403
-0.069555
0.0195308
0.0500242
0.0106434
0.0494549
-0.0600983
0.0852616
0.050443
-0.107433
0.0408428
-0.0200045
0.0710217
0.101349
-0.047989
-0.0533599
-0.138208
0.0957744
0.0424333
0.0592198
-0.0675462
0.00832637
-0.00377735
-0.0412233
0.102585
-0.0440115
-0.0585737
-0.0293466
-0.0570611
0.00139303
-0.0133183
0.0119253
-0.0179537
0.0422701
-0.0243165
-0.0284143
0.0369315
0.0281909
-0.0801493
0.0519584
-0.0904388
-0.0203442
0.110783
-0.0347073
-0.0229016
-0.0194223
0.00430688
0.0151154
0.0198761
-0.0443753
0.0244992
0.028871
-0.00997527
0.0748641
0.0160505
-0.0909146
-0.0985446
0.0748331
0.0237115
0.113828
0.00250679
-0.116335
-0.0152828
0.0392801
-0.0176697
0.0802544
-0.00504814
-0.0203177
0.0401938
0.0553952
-0.0376529
-0.0564486
-0.00560272
0.0620513
-0.134432
0.0435938
0.0908384
0.0841639
-0.0308131
-0.0533508
-0.104647
0.0214844
0.0831625
0.0184858
-0.0434362
0.0249504
0.0955194
0.0308122
-0.00793276
0.0455124
0.0631723
-0.0131723
-0.05
-0.112564
0.0238902
0.0170668
0.0950251
-0.018266
0.0470698
-0.0288038
-0.0418631
0.0701811
-0.028318
0.0742752
-0.105074
0.0307992
-0.112873
0.0394476
0.0734252
-0.0725291
-0.0619031
-0.0425105
-0.0296072
-0.11488
0.0489702
0.0659102
0.0296426
-0.000434899
-0.0292077
-0.0702607
0.0196954
0.0505653
-0.0846691
-0.0535386
-0.0346588
-7.04706e-05
0.000402304
-0.000331834
-0.00182903
-0.00451384
0.00634287
-0.0595577
-0.0224942
0.0820519
-0.0377968
0.0489052
-0.0111084
0.1131
-0.0805671
-0.0325324
-0.117372
0.057814
-0.0165489
-0.066857
0.083406
0.0395511
-0.00990851
0.0675828
0.00845912
-0.0760419
0.0296923
-0.0637709
0.0340787
0.121201
-0.0586142
-0.0625864
0.0216653
0.0624986
0.0247385
0.0353545
-0.060093
0.10201
-0.0192029
0.0133664
-0.0116548
-0.00171165
0.0926645
-0.0372559
-0.0554086
0.00314651
0.0560733
-0.000369103
-0.0843252
0.0585001
-0.0478566
-0.0915039
0.00551858
0.0110124
-0.00602671
-0.00498565
-0.018627
0.0850958
0.0561556
0.00701669
0.0297098
-0.0287432
-0.00096664
0.0225049
0.0621033
-0.0160538
-0.0294413
-0.00297867
-0.0132214
0.0162001
-0.0770529
0.00749784
-0.000231832
-0.0902069
0.0453107
0.0769494
-0.00978988
-0.0325021
0.042292
0.0428199
0.0668164
0.0635507
-0.0388121
-0.0254943
-0.0210125
0.0465069
0.0692724
0.0333128
-0.0330728
0.00670778
0.0331708
0.0423992
-0.0755701
0.010811
0.0186415
-0.0294525
0.0273992
0.0202941
-0.0476934
-0.000262461
0.000233043
2.94177e-05
-0.000242883
-1.95783e-05
0.00390576
0.00946065
-0.00250879
0.0804034
-0.0812746
0.0661961
0.0150785
-0.0225418
-0.0151751
0.0377168
0.0550324
-0.0625213
0.00748892
0.101404
-0.0836726
-0.0177317
0.0322588
0.0329491
0.100963
-0.0263977
-0.0745655
0.123783
-0.0310445
-0.0927387
0.0851094
-0.0826828
-0.0349481
0.0251582
-0.0973075
0.0510643
0.0462432
0.0106436
0.0597437
-0.0703873
-0.0459147
-0.0301466
0.0760613
0.110827
-0.0562631
-0.0545641
-0.0681204
-0.0467601
0.0574211
0.0439832
-0.0533089
0.0687196
-0.0154107
0.0852618
-0.0841981
-0.00106372
0.101393
-0.05976
-0.0416335
0.103883
0.0317957
0.1065
-0.041394
-0.0651056
0.0814674
-0.00926745
0.0243574
-0.0426234
-0.110012
0.102394
0.00761845
-0.0799982
0.0629751
0.0170232
-0.0536557
0.0752113
0.00302693
-0.118227
0.0531156
-0.0746993
0.0215837
0.0861672
-0.0529964
0.0006499
-0.0725149
0.071865
-0.0206383
-0.0961138
0.0505599
0.0455539
-0.125926
0.0382893
0.0876369
-0.115283
0.0207696
0.0945131
0.00179943
0.0428404
-0.0446398
0.0471
-0.0286142
-0.02355
-0.0357539
0.0593039
-0.0700201
-0.000240612
-0.104655
0.0731056
0.0315496
0.0966909
0.00470262
-0.0837369
0.067188
0.0216773
-0.00081214
0.0103315
-0.0309953
0.0206638
0.105778
-0.0205159
0.068218
-0.000635251
0.0536358
-0.0865968
0.032961
-0.0224431
-0.0394535
-0.0826593
0.00801471
-0.0587675
-0.0225071
0.0796474
0.0481965
-0.066692
0.0248289
-0.0592478
-0.00946705
0.0687148
0.0544022
-0.0119754
0.0667163
-0.000255667
-0.0664607
0.100335
-0.0425626
-0.0577726
-0.0194689
-0.051744
0.0712129
-0.0214299
0.0957051
0.0511281
0.0486489
-0.099777
-0.0127433
-0.0833705
-0.0339916
0.00824803
0.0257436
-0.00978837
0.0111814
-0.0219704
0.0199883
0.110364
-0.0163182
-0.108241
0.0851616
0.0230789
-0.0972962
0.0378891
0.0594071
-0.0302986
0.0599909
-0.122887
0.00670159
0.0647796
-0.0545033
-0.0102763
-0.00785478
-0.0485189
-0.0621781
0.0787417
0.00618727
0.0181343
-0.0243216
0.010655
0.0260572
-0.0367122
-0.000239836
-0.0239964
0.0242362
0.0125069
0.00333712
-0.015844
-0.0645134
-0.00244777
0.0669612
-0.0736506
0.00913716
-0.0185638
-0.00775929
0.0263231
-0.0833145
0.0825512
0.124034
-0.124168
0.000133582
0.0165342
0.0228754
-0.0394096
-0.0333503
0.0108997
0.0224506
0.053366
0.0706681
0.0831984
0.0171368
-0.00765454
0.00658691
0.00106762
0.0300332
0.0911674
0.000376368
-0.000446839
-0.0174782
-0.0165134
-0.0122192
-0.0367167
0.0489359
0.0798187
0.0266809
0.0489511
-0.0818304
0.0328794
-0.0277909
-0.00810071
0.0358916
0.00640082
-0.0341917
-0.0305667
-0.013217
0.0437837
0.0180771
0.00604436
-0.0241214
-0.000474507
0.000350692
0.000123815
0.126477
-0.0426077
-0.0838692
0.0692807
0.0571962
0.0782073
-0.0805492
0.00234185
-0.0321668
-0.0084635
0.0406303
0.107024
-0.0520569
-0.0549673
-0.0578358
-0.0680904
0.0876299
-0.0969366
0.00930672
0.0370434
-0.0205093
-0.0145828
0.0675627
-0.05298
0.00511236
0.0480032
0.104122
-0.00684319
-0.097279
0.0223152
0.081807
0.00209458
-0.0585432
-0.0390679
0.0165262
-0.0294239
0.03098
-0.00155615
-0.0351715
-1.8168e-05
0.0351897
0.00581744
-0.0753638
0.0695464
-0.0211086
0.0864027
-0.0652941
0.0290919
0.0239329
-0.0530248
-0.0275072
0.000646213
-0.0845066
-0.0128009
-0.0992642
0.065632
0.0336322
-0.0452453
-0.0219667
0.067212
-0.0163724
0.0133632
0.00300916
-0.0793715
0.0582629
0.00462071
0.0250891
-0.00735175
-0.0278198
-0.00415214
0.00452021
-0.000368064
0.051969
-0.0213715
-0.0305975
0.0208955
-0.0758786
0.0549831
-0.0241754
0.0232291
0.000946321
0.0705674
-0.0357331
-0.0348344
0.00450047
-0.0905217
0.106124
-0.022977
-0.0831475
0.111328
-0.0933633
-0.0179648
0.0694287
-0.00271232
0.066585
-0.0897115
0.0231264
-0.0412537
-0.0449708
0.0862245
0.0925191
-0.0259341
-0.0721497
0.0526808
0.0475916
-0.0681538
0.0205622
0.0310503
0.0432592
-0.0743095
0.0533644
-0.051565
-0.100191
0.0910026
0.00918854
0.0560036
-0.0668461
0.0108425
-0.015699
0.0260306
0.0795412
-0.110749
0.0312082
0.0630744
0.00208006
-0.0651545
0.0832303
-0.0805271
-0.00270321
0.0896273
0.0113359
0.0648829
0.0114823
-0.0763652
0.00971173
-0.0428571
0.0331454
0.0972693
-0.02143
-0.0758394
0.0324637
-0.0560138
0.0270477
0.0435198
0.0539655
-0.0952192
-0.0582104
0.0276437
-0.0714332
0.00803988
0.0633933
0.0150199
0.00357914
-0.018599
0.00802574
-0.0327379
0.0247121
0.0240947
-0.0179075
0.0653543
0.0238549
-0.0892091
-0.00428424
0.0690639
-0.00825182
0.00642279
-0.023862
-0.00232742
0.0261895
0.0620333
0.00284961
-0.0247815
0.0759096
0.0738887
-0.0428384
-0.00148942
0.0185302
-0.0170407
-0.0939416
0.00983848
0.0841031
-0.130574
0.117456
0.013118
-0.0248839
0.00632004
0.00832052
-0.0321826
-0.0808852
0.0216374
0.0203167
-0.065562
0.050873
0.0025443
-0.0379993
0.0890568
-0.0510575
0.015311
0.0642302
-0.0137615
0.0687939
-0.0112593
0.0648952
0.00368938
-0.00177545
-0.00191393
0.0663223
-0.0835953
0.017273
-0.0512112
0.0794021
0.0300616
0.0191574
-0.049219
-0.0734138
0.0740637
0.0325387
0.0735857
-0.058775
-0.010814
0.066209
-0.0555654
0.052628
-0.0566465
0.00401851
-0.00563104
-0.0321657
0.0585295
0.0283121
-0.0868416
0.0705269
0.00947028
-0.0799972
0.0502162
0.00175276
0.0431121
-0.0890268
0.0989637
-0.0384086
-0.0605551
0.0144686
0.0731614
0.0536359
0.0601919
-0.083782
0.0123488
-0.0697771
0.00337129
0.0664058
-0.0117493
0.0443434
-0.0325941
-0.0265025
-0.0374159
0.0639184
0.132711
-0.0800535
-0.0526576
-0.0369209
-0.067726
-0.0884348
0.0922874
-0.00385258
-0.0285567
-0.0867261
0.021085
-0.00857809
0.000532073
-0.000437101
-9.49715e-05
-0.0689528
0.05437
0.050755
-0.00441476
-0.0164048
-0.0503179
0.0667227
0.00598574
0.00502661
-0.020558
-0.0252595
0.0458175
-0.0864875
-0.0108087
0.0544192
0.0586803
0.0495247
0.0831864
0.0925247
-0.0341584
-0.0583663
0.0501889
-0.0574807
0.00729182
-0.0310915
-0.0489067
-0.0335278
0.0920574
0.0439344
-0.0342226
-0.0883912
-0.0043345
0.0927257
-0.121407
0.0945134
0.026894
-0.0892026
0.0144114
0.0747912
0.113482
-0.00265463
0.117726
-0.0613519
-0.0563739
-0.0343305
-0.0348876
0.0692181
0.0971228
0.0206031
0.00605544
-0.0944466
-0.00309165
-0.0502173
0.126637
-0.0667872
-0.0598496
-0.0892606
-0.0127835
0.102044
0.141819
-0.0483943
-0.0934242
0.0253262
0.0125119
-0.0378382
0.114328
-0.109666
-0.00466177
0.104824
-0.034297
0.0215385
-0.00916205
0.0225985
-0.0134365
0.0128273
0.041897
-0.0547244
0.0440598
0.0672683
-0.000771123
0.0102396
-0.00946847
-0.0723742
0.0821587
-0.00978445
0.0453101
-0.117684
0.106374
-0.0138492
0.0161484
-0.0176378
-0.0156016
-0.0372689
0.0528705
0.0904833
-0.026699
-0.0637843
-0.0187697
-0.042025
0.0607947
0.0639576
0.0598256
-0.0906237
0.0856744
0.00494929
-0.026384
-0.0220187
0.0484026
-0.000227439
0.0260792
-0.0258518
-0.0934561
-0.0185591
0.112015
-0.0189484
-0.00047395
-0.0973424
0.00890761
0.111505
-0.0808176
-0.0306875
-0.0944331
0.0564338
0.0196004
0.0586069
-0.00185367
0.0160442
-0.0141906
-0.0191876
0.016209
-0.123378
0.0590123
0.064366
0.0607682
-0.0274966
-0.0332716
-0.0276545
0.0775509
-0.0498964
0.00654689
-0.0120174
0.00547049
-0.0987787
0.0868138
0.0119648
0.124339
-0.0135619
-0.110777
0.111306
-0.0459513
0.085584
0.0387549
-0.0051284
0.0116753
0.03816
-0.0271783
-0.0109817
-0.070083
0.0169415
0.0531415
-0.0584676
-0.0664024
-0.00368051
0.0380532
-0.0518988
0.0138456
0.0635166
-0.00751299
-0.0173811
-0.0624217
0.0798028
0.0290631
0.00909693
-0.0837813
0.00329708
0.0804842
0.0385015
0.0346174
-0.0731189
0.0212955
-0.0479439
0.0266484
-0.0586931
-0.0627143
-0.0362379
-0.0720026
0.0254317
0.0129097
-0.0383413
0.0580816
0.0946344
0.0362296
-0.0282039
0.00111863
-3.96438e-06
-0.00111467
-0.097302
0.106545
-0.00924269
0.0713294
-0.0932627
0.0219333
-0.0626306
0.0283
-0.00719855
-0.000455986
0.0208314
-0.111455
-0.0805377
0.076985
0.00355276
1.92895e-05
0.000213754
-0.0829981
0.0665932
-7.17372e-05
-0.000171145
0.0628054
-0.0165962
-0.0462092
0.0308962
-0.0426455
-0.0703466
-0.00101822
0.0713648
-0.00507539
-0.0260646
0.03114
0.110753
-0.0299206
-0.0808326
-0.0583296
0.0996914
-0.0413618
0.0729978
-0.00960818
-0.0633896
-0.0646332
-0.00514386
0.0968332
-0.0446352
-0.0296091
0.00543365
-0.013604
-0.0865871
-0.047627
-0.0829473
-0.0657489
0.0290392
0.0367097
-0.0197633
0.0826473
-0.062884
-0.0137336
0.0618536
-0.04812
-0.0130421
-0.080414
-0.0428503
0.0484469
-0.00559664
0.000684613
0.0373686
-0.0825592
-0.00704272
0.0896019
0.000545638
0.0556175
-0.0561632
0.0850225
-0.0120247
0.0255469
-0.0591453
0.0335985
-0.0153874
0.126893
0.068749
-0.0432021
0.0897189
0.0173054
0.0119183
0.071312
0.0755234
-0.0915427
0.0160193
0.0186855
-0.0725178
0.0538323
-0.0482901
0.0883266
-0.0400365
0.0606134
0.0407355
-0.0349086
-0.0465231
0.0814317
-0.0141741
-0.0412361
0.0554103
0.00612563
0.0465023
-0.00238986
-0.0480178
0.0504077
0.0918193
0.000845216
-0.0501751
0.0237912
0.0643628
0.0166171
-0.0809799
0.0924713
-0.0223213
-0.07015
0.0384972
-0.0340239
-0.00447325
-0.14162
0.0482758
0.0933442
0.00731173
-0.0591109
0.0517992
-0.0526298
-0.00535413
0.0579839
0.0118086
-0.078018
0.0662095
-0.0897932
0.0376096
0.0521837
0.0136644
0.00692512
-0.0205895
-0.112635
0.0288536
0.093109
0.0909183
-0.0400106
-0.0509077
0.0452458
-0.0594199
0.0245623
-0.0470329
-0.0081257
0.0551587
-0.0928513
0.0712675
0.0215838
-0.0408614
-0.0691508
-0.0648166
0.0766252
-0.0162825
-0.072978
-0.013175
0.0385012
0.106829
-0.0582755
-0.0485538
-0.0819309
0.0473361
0.0345948
-0.0225407
0.0714917
-0.0554556
0.0432364
-0.00656498
-0.00980737
2.45844e-05
0.000115929
-0.000140513
0.0926358
-0.0640272
-0.0286086
-0.00338584
-0.000339887
0.00372573
0.0722418
-0.0151558
-0.057086
-0.0988323
-0.024546
0.11655
-0.0627518
-0.0537984
0.102406
-0.0301641
0.101921
-0.0985198
-0.00340121
0.0583914
-0.0781547
-0.116434
0.0667804
0.0496537
0.0342873
0.0676338
-0.0987279
0.0824994
0.0162285
-0.0282545
-0.0522832
-0.0280114
0.0299487
-0.00193725
-0.026382
0.0331854
-0.00680332
-0.0154496
0.014527
0.000922598
-0.00138816
-0.0406188
0.042007
0.000947539
0.000171094
-0.0438304
-0.0459628
-2.61566e-05
0.000558229
-0.0539344
0.0918335
-0.0378991
0.0378999
-0.0769025
0.0390027
-0.0447572
0.0402039
0.00455328
-0.0395578
0.0774577
-0.0179444
0.0892738
-0.0732881
0.0324545
0.0408335
-0.0426797
0.0573223
-0.0146426
-0.0705219
0.0383551
0.0691391
-0.0161543
-0.0529848
0.0395153
0.0179087
-0.057424
-0.0413827
0.0399946
0.113391
-0.0161221
0.0430097
-0.0137141
-0.0292956
0.0715465
0.00561519
-0.0771617
-0.0613637
-0.0293618
0.0907255
-0.0599584
0.0129254
0.0296686
-0.0347439
-0.0693269
-0.0722932
0.0230603
-0.0713504
-0.0724234
0.0566245
0.0157989
-0.0218544
0.0431499
0.0973549
-0.0605801
-0.0367748
-5.23175e-05
0.0209655
-0.0209132
0.097384
-0.0466576
-0.0507264
0.112084
-0.0402809
-0.0718035
0.0394658
0.028484
-0.0679498
-0.0220019
-0.0227553
0.00992211
0.000726038
-0.0106481
0.09402
0.0201355
0.0703014
-0.0904369
0.00573557
-0.05967
-0.0222186
0.0782632
-0.0560446
-0.0142588
0.0416581
0.10414
-0.0233379
-0.0808017
-0.0582625
0.0403089
-0.0697044
-0.00205619
0.0717605
0.0601808
-0.0950894
-0.0392725
0.0377272
0.00154533
-0.0422731
0.0551005
-0.0251071
-0.0518753
0.0769825
-0.0905648
0.0722958
0.018269
0.0450223
0.0295878
-0.07461
0.0464179
0.00710913
-0.053527
-0.0343173
0.00793526
0.0340738
0.00893589
0.0108128
-0.0199748
-0.0585903
0.0311767
0.0274136
0.081407
-0.00686202
-0.074545
0.0404271
-0.0296161
-0.0655874
0.0728991
-0.0800729
0.126188
-0.046115
0.00166277
-0.044513
0.00959665
-0.0896696
-0.0995718
0.0382081
0.0448228
-0.00398246
-0.0408403
-0.0987279
-0.0872318
0.0698507
-0.000505427
-0.00117329
0.00167872
0.0482572
-0.0733643
0.0492616
-0.0192
-0.00971691
-0.0482006
0.0579175
0.0542177
-0.0764363
-0.0660708
0.0587268
0.00734398
-0.0616655
0.067483
-0.0361089
0.0582526
-0.0221438
-0.0452878
-0.0133024
0.0863761
-0.0654806
-0.0542125
-0.0211487
0.0753612
0.0466293
0.0604063
-0.107036
-0.0877233
0.0519913
0.035732
0.029446
0.045854
-0.0753
-0.0384785
-0.0588235
0.0542043
0.00269039
-0.0568947
0.0330024
0.0813256
0.0815823
-0.042067
-0.0342758
-0.0314731
0.00559878
0.0133202
-0.018919
0.00671359
-0.0878293
0.0811157
-0.0371079
0.00228415
0.0348238
0.088485
-0.0910471
0.00256209
0.00399303
0.0289453
-0.0329383
0.0142937
-0.0161474
0.0357095
-0.0889187
0.0532092
0.0518701
0.0255675
-0.0774377
-0.0278367
-0.0885974
-0.00337757
0.017042
0.0672834
-0.0845619
0.0172785
-0.0907263
-0.000414022
0.0911403
0.0351861
0.0344397
-0.0696257
-0.0515174
0.049753
0.0017644
-0.0147125
-0.0744901
0.00841903
-0.0060296
-0.00238942
0.0563302
-0.00991233
0.0240905
-0.0181875
-0.00590301
0.082834
-0.0197596
0.0205756
-0.0660303
0.0454548
-0.0681698
0.0155399
0.0984337
-0.0348797
-0.0635539
-0.0253206
0.0647864
-0.0569052
0.104031
-0.0471262
0.104056
0.00778084
-0.111837
-0.0660964
-0.00832172
0.0744181
0.00939167
-0.081815
0.101512
-0.0704544
-0.0310573
-0.0387212
0.0564746
-0.0177534
0.0985782
-0.0467081
-0.0589128
0.0790483
0.0362103
-0.0364501
0.0135948
-0.0826595
0.0690647
-0.09107
0.0249736
0.0189077
-0.0191352
0.0725705
-0.00343143
0.0653248
-0.0349685
-0.0303563
-0.0273224
0.0157813
0.0115411
0.00916725
-0.00993837
-0.0282826
-0.0542766
0.095174
-0.0700998
-0.0250743
0.0116442
-0.0738994
0.0622552
-0.112579
0.0321251
0.0804539
0.0190414
0.0850148
0.0814341
-0.0141507
0.021014
0.051846
-0.07286
-0.130494
0.0603129
0.0701806
-0.0968207
-0.0336729
-0.0421897
0.0700255
-0.0278358
0.0059364
-0.00629358
0.000357186
-0.0756175
-0.0181524
0.09377
-0.0052962
-0.0674714
0.0727676
0.0375855
-0.0269305
0.00535079
-0.0392143
0.0338635
0.0391233
-0.0391756
-0.117519
0.00493978
0.0914612
-0.0727757
0.0118501
-0.0204636
0.00861346
0.0846371
-0.00467879
-0.0799583
0.0392468
-0.0889423
0.0496954
-0.0351051
0.0825481
-0.047443
-0.125844
0.0533524
0.0724914
0.0373055
-0.0319548
0.0423718
-0.117989
0.0349455
-0.0665749
0.0316294
-0.102595
0.0647889
0.0378064
0.0561187
-0.0413914
-0.0147272
0.104875
-0.0523884
-0.0524866
-0.00133022
-0.0697961
0.0711263
-0.0268687
-0.00648159
0.0909718
0.0131678
0.0306824
-0.0628829
0.0322005
0.0848264
-0.0455795
-0.0305153
-0.0564358
0.0869511
-0.03814
0.00548754
0.0326525
-0.0712039
-0.0546399
0.0759054
0.0214495
0.00547865
0.00114089
-0.00661954
-0.0772068
0.0888509
-0.0633374
0.0203167
0.0430206
-0.0751369
0.0496426
0.00325216
0.0596279
-0.06288
-0.0414207
-0.0445109
0.0859317
-0.0368754
0.0391901
-0.00231471
0.00664565
0.0818393
-0.0524428
-0.0294881
-0.0598143
0.0392563
-0.0424157
-0.0563629
-0.064409
0.00371969
0.0606893
0.0145033
0.0781325
0.0356852
0.0567862
0.0285922
-0.0836124
0.0550202
0.0619129
0.0429621
-0.0138863
-0.04628
0.0601662
-0.0801312
0.0312905
0.0488406
-0.0965925
0.0178384
0.0787541
-0.0940077
0.0190347
0.074973
-0.0416833
-0.0523414
0.0940246
-0.00640141
0.00224927
-0.00692153
-0.0296348
-0.078338
0.0543126
0.0240254
-0.00216837
0.0563726
0.113306
-0.102995
-0.0103104
-0.0471708
0.0757631
0.0343648
-0.0162877
-0.00498916
0.0317552
-0.026766
-0.0311769
0.098402
-0.067225
0.00185282
-0.00235824
0.0611453
-0.0696316
0.00848629
-0.100009
0.068262
0.0317466
-0.0732473
-0.0234788
0.0967261
0.0101067
-0.0488279
-0.0687355
-0.00960257
0.045296
-0.0764729
-0.000117807
-0.000356699
-0.007028
0.0403348
-0.0333068
0.0972943
-0.0678483
-0.0602867
-0.0423086
0.0698699
-0.0940109
0.024141
-0.000538182
-0.0015918
0.00212998
-0.0499456
-0.0377778
-0.0183664
-0.0264721
0.0448385
0.0474953
-0.0948444
0.0473491
-0.0315571
0.0665027
-0.0731816
0.0764337
-0.023581
-0.00374136
-0.0410989
0.0885941
-0.0771527
0.0127437
0.0772777
-0.0700979
-0.00717974
-0.0466761
0.0312792
0.0153969
-0.0824099
0.0960046
-0.00789669
0.0637034
-0.0558067
0.0953415
0.016743
0.0152573
-0.00533523
-0.0443459
0.0798418
-0.0354959
0.0993665
-0.0345016
-0.0648649
0.0458933
0.0102254
0.0106604
0.0521451
-0.0393362
-0.0606724
0.0200927
-0.09334
-0.0505999
0.0322335
0.0359301
0.107664
-0.0102804
-0.0142218
0.059051
-0.0448292
0.0704742
-0.0439979
-0.0264763
0.000868625
-0.0435484
0.0049235
0.00975951
-0.014683
0.00660422
-0.00461636
-0.00198785
-0.0666195
0.0642297
0.0517383
-0.059635
-0.0477806
-0.050764
0.00864566
0.0195227
-0.0281684
0.0567885
-0.0261061
-0.088129
0.0725276
0.0156014
-0.104305
0.0692
-0.0205437
-0.0556154
0.0761591
-0.0594833
-0.045172
-0.0910757
0.00353271
0.087543
0.0909682
0.00839826
-0.0517065
0.0584201
-0.0361576
0.00518627
0.0309713
-0.115829
0.0675738
0.0482548
0.113524
-0.0380815
-0.0754428
-0.0501776
0.0130697
0.0760523
-0.0760523
0.063543
-0.0940584
0.0321895
-0.0171696
-0.0457569
0.0345772
0.0111798
-0.0782824
0.0788281
0.00509107
-0.0747954
-0.00762375
0.0132995
-0.00567577
-0.0881232
0.0693535
0.00277905
0.000910326
0.0777703
-0.0120603
-0.0657099
0.0884434
0.00999025
0.0686993
-0.0146421
-0.0540572
-0.0947779
0.0378728
-0.0845108
0.0352129
0.0492979
-0.0170122
-0.0287448
0.0710449
-0.113127
0.0420822
-0.00865587
-0.0564101
0.065066
0.0873776
-0.078295
-0.00908262
0.0994418
-0.0943618
-0.00507998
-0.026202
-0.00238294
0.0285849
0.0629419
-0.0739268
0.0109849
0.0152823
-0.0573172
0.0420349
0.0483395
0.0651848
-0.000435564
0.00637196
-0.0253433
0.002792
0.0225513
0.085365
-0.0387357
-0.0885987
0.0893529
-0.00075422
0.0612097
-0.104217
0.0430074
0.0765624
0.0336536
-0.110216
0.0076154
0.0762156
-0.083831
-0.104877
0.0843336
0.0921683
-0.0337548
-0.0584135
0.0934339
-0.0243242
-0.0691098
-0.0669005
-0.0263658
0.0932663
0.0326162
0.0591938
-0.09181
-0.00513103
-0.0702223
0.0753533
0.0863228
0.00205742
-0.0883802
0.130403
-0.050809
-0.079594
-0.0602594
0.100901
-0.0406415
-0.131275
0.0741153
0.0571593
-0.102939
0.0265685
0.0763707
0.0812159
-0.0788851
-0.00233078
-0.0687939
0.0634977
0.0232368
-0.0775433
0.0543065
-0.00627624
0.0773212
0.000152764
-0.0250821
0.0249293
-0.0352491
0.111811
0.038994
0.0355961
-0.0745901
-0.0866239
-0.0160399
0.102664
0.0418759
0.0188923
0.0833328
-0.0646818
-0.018651
0.132311
-0.0272936
-0.105017
-0.0675696
0.0341803
0.0333893
0.0472326
-0.0465455
-0.000687053
0.104456
-0.0330863
-0.0713693
-0.0296066
0.101613
-0.0720066
-0.0337851
-0.0500569
0.083842
0.0776519
-0.0337029
0.0171709
0.00989736
-0.0270683
0.00701432
0.00382195
-0.0108363
0.0466765
0.000334507
-0.0880601
0.0177812
0.0702789
0.0680972
-0.0944717
0.0263745
0.0452654
-0.000693283
-0.0445721
-0.0260734
0.043121
-0.0170476
0.0935455
0.00796633
0.0806187
-0.0449092
0.0982053
-0.0479758
-0.0502295
-0.0157993
-0.0234802
0.0392795
0.114957
-0.0590076
-0.0559492
0.0143738
0.067493
-0.0818668
0.0352631
0.0295308
-0.0647939
-0.125261
0.052183
0.0730776
0.0612705
0.0301355
-0.0914061
-0.0962326
0.0387015
0.0575311
-0.00364666
0.00364666
-0.0111653
0.115621
0.000604808
-0.000494715
-0.000110092
0.0287806
0.0571139
-0.0858945
0.0599455
-0.0323579
-0.0275876
-0.0905807
0.0366391
0.0539416
-0.0530941
-0.0465009
0.099595
-0.0518642
0.0547854
-0.0029212
-0.00629645
-0.0618713
0.0681677
0.0139285
0.0667058
-0.0806344
-0.0510032
0.0590758
-0.00807264
0.00459896
0.0227309
-0.0273298
-0.0514482
0.0901275
-0.0386793
0.0091942
-0.0338545
-0.111817
0.0488444
0.0629731
-0.00479641
0.0787684
-0.0739719
0.102487
0.0011209
-0.103608
-0.00126743
-0.00215561
0.00342304
0.0182415
0.0459831
-0.0642246
0.0489174
-0.0575732
-0.0222158
0.0920857
0.0291758
-0.052848
0.0236722
-0.0508373
-0.0167322
-0.0291014
-0.0535776
0.082679
0.0834238
-0.0662647
-0.017159
0.0265085
-0.0439925
0.017484
0.0610474
0.0414395
0.0382422
0.049534
-0.0877762
-0.103914
0.0288781
0.0750355
-0.0498907
-0.0528966
0.102787
-0.0203499
0.0632224
-0.0428725
-0.000472839
0.0528193
-0.0523464
0.0969039
-0.0509354
-0.0459685
0.023515
-0.0734989
0.0499839
0.112808
-0.0533956
-0.0594127
0.0800935
-0.0171516
0.0846362
-0.0336443
-0.0509918
-0.110351
0.0439374
0.066414
0.0526505
-0.102323
0.0496721
-0.0188604
0.00281745
0.016043
0.0828098
-0.00503953
-0.00646573
-0.0296094
0.0360751
0.0768498
-0.0995963
0.0227466
0.0594731
0.024539
-0.0840121
-0.0101553
0.0277423
-0.017587
0.0106779
-0.0521971
0.0415192
-0.134656
0.0782894
0.0563666
0.0727362
-0.0949732
0.022237
0.0645646
-0.0236731
-0.0408915
0.0481936
-0.0194074
-0.0287862
-0.0565826
0.00365377
0.0529288
-0.0909388
0.077293
0.0136458
-0.107299
0.0404425
-0.0831477
0.0512496
0.0318981
-0.0402802
0.0512646
-0.0109844
0.0188518
0.00778213
-0.0266339
0.000269791
0.0459628
-0.0462326
0.13073
-0.0754466
-0.0552838
0.0680421
-0.0530507
-0.0149914
-0.0167521
-0.00519564
0.0219478
-0.00737566
0.0994289
-0.0920532
-0.0690455
0.03108
0.0379655
-0.026244
-0.0442943
0.0705384
-0.0727025
-0.0176957
0.0903982
-0.0343641
0.00494016
0.0773447
-0.100263
0.0229183
0.093281
-0.0643766
-0.0289044
-0.0821423
0.0886556
-0.00651327
-0.127174
0.0654806
0.0616932
0.0128177
-0.0129342
0.000116549
0.0303038
-0.0246147
-0.00568909
0.060669
-0.072589
0.0119201
0.0977504
-0.0791508
-0.0185995
-0.00874346
-0.0553297
0.0640732
0.068615
0.031385
0.0309516
0.00370059
-0.0346522
0.022367
0.0631798
-0.0855468
0.0372781
-0.0310845
-0.0061936
0.0394246
0.00245057
-0.0418752
0.0860284
0.0267799
0.107978
-0.11433
0.00635151
-0.0710897
-0.000623221
0.071713
0.100556
-0.00907488
-0.0914814
-0.0469803
0.0135856
0.0333947
0.0142941
0.0936843
0.0568522
0.00478712
-0.0616393
0.102445
0.00639819
-0.108843
0.0804437
0.014312
-0.0947557
0.0479167
0.0244489
-0.0723656
0.0400197
0.0282177
-0.0682374
0.00466315
0.0977816
0.0876436
-0.00215526
-0.0854883
0.0924931
0.00806314
-0.0738493
0.0290924
0.0447569
0.0421143
-0.0455947
0.00348043
-0.0374791
0.0341067
0.00337246
0.0646054
-0.035539
-0.0290664
-0.00856442
-0.00151834
0.0100828
0.04297
0.0223548
-0.0600735
0.0401233
0.0199502
-0.0363207
0.0699433
-0.0336226
0.0269071
0.0133828
-0.0402899
-0.105807
0.106479
-0.000672039
-0.0521426
0.0191571
0.0329855
-0.0156179
-0.062693
0.0783109
0.0381256
-0.06341
0.0252844
0.0390852
-0.0342065
-0.00487873
0.099164
-0.106968
0.00780436
0.0216024
-0.0225883
0.000985925
-0.0165567
-0.0640261
0.0805829
0.0404776
-0.0838546
0.043377
0.0400533
-0.0179945
-0.0220589
0.0319987
-0.045885
0.0568473
-0.0885953
0.031748
0.118386
-0.0181108
-0.100275
-0.113208
0.0127953
0.0386197