/*--------------------------------*- C++ -*----------------------------------*\
  =========                 |
  \\      /  F ield         | OpenFOAM: The Open Source CFD Toolbox
   \\    /   O peration     | Website:  https://openfoam.org
    \\  /    A nd           | Version:  9
     \\/     M anipulation  |
\*---------------------------------------------------------------------------*/
FoamFile
{
    format      ascii;
    class       volVectorField;
    location    "85";
    object      U;
}
// * * * * * * * * * * * * * * * * * * * * * * * * * * * * * * * * * * * * * //

dimensions      [0 1 -1 0 0 0 0];

internalField   nonuniform List<vector> 
112055
(
(0.478123 0.0166916 0)
(0.503643 -0.00492904 0)
(0.527608 -0.000194733 -2.72404e-20)
(0.535142 -0.00652246 8.13377e-21)
(0.516196 0.00618995 -2.39051e-21)
(0.499719 0.00475354 0)
(0.479362 0.0160426 -6.44515e-20)
(0.534675 -0.00635364 0)
(0.519135 -0.000157982 -1.96816e-20)
(0.479725 -0.00288877 3.49982e-21)
(0.503624 -0.00502594 1.20898e-20)
(0.480971 0.0202491 -4.31821e-20)
(0.518683 -0.000630299 9.62792e-21)
(0.481002 0.0198645 4.12303e-20)
(0.458212 -0.00657907 -2.62672e-20)
(0.513729 -0.00491755 1.46998e-21)
(0.397755 -0.0301449 6.76321e-20)
(0.468215 -0.0489817 -2.36184e-21)
(0.50425 -0.00716007 0)
(0.519824 0.00679138 -1.23924e-20)
(0.513679 0.00500408 8.39033e-21)
(0.511952 0.00492672 0)
(0.504259 -0.00726451 -6.98215e-21)
(0.514998 -0.0113434 2.4204e-21)
(0.475788 0.0149058 0)
(0.525613 -0.00446246 1.44619e-20)
(0.428907 0.0254539 -2.00306e-20)
(0.500561 0.0019705 0)
(0.499772 0.00469413 0)
(0.513686 0.00508217 -8.47193e-21)
(0.499991 -2.0396e-05 -3.90968e-20)
(0.547203 0.0254757 0)
(0.513946 0.00369402 0)
(0.0854195 -0.000795204 -3.40806e-20)
(0.519193 -0.00014629 1.81888e-20)
(0.511878 0.00264484 -2.65227e-21)
(0.519962 0.00670934 0)
(0.353152 0.118711 1.62746e-20)
(0.537209 -0.0171076 0)
(0.506492 -0.00230835 4.68652e-22)
(0.513214 0.00204923 7.84451e-21)
(0.535458 -0.01693 1.33701e-20)
(0.512476 -0.00548599 -5.61167e-22)
(0.527368 -0.000205973 4.57164e-20)
(0.467123 -0.0492187 0)
(0.516921 -0.00876698 0)
(0.0913444 -0.00209888 0)
(0.424152 0.00566559 0)
(0.515368 -0.0138857 -1.38026e-20)
(0.535008 -0.0171396 2.7554e-21)
(0.534117 -0.00579831 2.30755e-20)
(0.536946 0.110394 0)
(0.513184 0.00583457 -4.31188e-21)
(0.536785 -0.0165348 3.6068e-20)
(0.520904 0.00178619 2.84855e-20)
(0.479077 0.0165256 3.16244e-20)
(0.360746 0.00570698 4.18316e-22)
(0.306158 -0.0374288 0)
(0.532623 0.0711993 0)
(0.516961 -0.00862826 4.08846e-21)
(0.486606 -0.00933044 2.232e-20)
(0.430917 0.00484788 3.99231e-21)
(0.506377 0.00395883 -5.82989e-22)
(0.506366 0.0040444 6.14829e-22)
(0.494099 -0.00132784 0)
(0.520124 -0.000177943 -2.07303e-20)
(0.347395 0.119577 0)
(0.507892 0.00624012 0)
(0.508965 0.0152896 4.73339e-22)
(0.52016 -0.00665331 -1.61753e-20)
(0.303076 -0.0347152 4.95247e-22)
(-0.070098 -0.0136984 3.79815e-23)
(0.514794 -0.0113443 0)
(0.437793 0.0065069 7.37338e-20)
(0.583082 0.00408625 -1.25642e-19)
(0.252769 -0.201735 -7.58929e-21)
(0.50294 0.000754155 -1.97301e-21)
(0.478409 0.0163954 -3.34022e-20)
(0.541253 0.0505207 -2.37354e-20)
(0.536254 -0.0165627 -4.74299e-20)
(0.517071 0.00383948 -3.86632e-21)
(0.216842 -0.187026 -7.75151e-21)
(0.53391 -0.00584936 0)
(0.525109 -0.0046085 1.44531e-20)
(0.51378 -0.00501969 4.41991e-21)
(0.507942 -0.00113228 3.08664e-21)
(0.5248 -0.0373342 -1.75456e-20)
(0.520806 0.00170009 2.98858e-20)
(-0.00651157 0.0439871 1.0471e-19)
(0.520624 0.00182992 0)
(0.511883 0.0044191 -2.81174e-21)
(0.51193 0.00264014 2.74553e-21)
(0.525382 -0.0372669 0)
(0.518302 0.00620088 5.26076e-21)
(0.585326 0.0027355 0)
(0.503033 0.00084642 3.14759e-21)
(0.545319 0.00677452 -1.06311e-19)
(0.458878 -0.00655692 4.47453e-20)
(0.499989 -2.60894e-05 1.79879e-20)
(0.362127 0.00732364 0)
(0.518624 -0.000641732 8.86045e-21)
(0.510199 0.00159705 8.20885e-24)
(0.515191 -0.00400964 3.98416e-21)
(0.502582 -0.00597648 -2.47949e-20)
(0.577516 0.0174373 0)
(0.310144 -0.022979 -2.63617e-20)
(0.494129 -0.00144032 0)
(0.508908 -0.00638402 0)
(0.508334 0.000376397 -1.27356e-21)
(0.507972 -0.000913322 0)
(-0.070666 -0.0142675 6.20053e-20)
(0.55973 0.000727963 -2.38503e-20)
(0.520453 0.000406275 0)
(0.501934 0.0242754 1.22871e-20)
(0.50892 0.0151514 0)
(0.473177 0.00931406 6.32511e-20)
(0.492421 0.021836 0)
(0.513709 -0.00398927 0)
(-0.00650376 0.0448713 -1.26698e-19)
(0.519583 -0.000782347 -1.12925e-20)
(0.500621 -0.00287281 7.35272e-21)
(0.500566 0.00201493 0)
(0.47986 -0.00261684 0)
(0.512575 -0.00645078 1.08728e-21)
(0.513207 0.00210156 -1.4954e-20)
(0.5027 -0.00600271 8.06117e-21)
(0.473252 0.0360309 -5.87513e-20)
(0.518642 -0.00646033 2.60888e-21)
(0.524617 0.00416867 -1.76997e-20)
(0.579142 0.0179899 0)
(0.512322 -0.00667758 -1.50224e-22)
(0.429478 0.0268027 -7.21713e-20)
(0.512669 -0.00547049 1.65093e-21)
(0.400876 0.0186577 8.42065e-20)
(0.537798 -0.0170802 1.39687e-20)
(0.506557 -0.00234256 0)
(0.515806 -0.00414675 3.31858e-21)
(0.508938 0.00724084 0)
(0.527699 0.00255873 1.15113e-20)
(0.316267 0.0174457 -2.26489e-20)
(0.509084 0.00725811 0)
(0.346538 0.0477965 0)
(0.543896 0.00763638 -1.30556e-20)
(0.443278 -0.21974 0)
(0.508969 -0.00649479 2.94357e-22)
(0.521118 0.0235449 4.80726e-21)
(0.473384 -0.0379999 8.0793e-21)
(0.509778 0.00641134 0)
(0.513629 -0.00391334 6.04985e-21)
(0.505113 0.000189425 0)
(0.323165 -0.0248254 0)
(0.512131 0.00484544 0)
(0.484711 0.00269148 0)
(0.513186 0.00559393 1.16232e-22)
(0.527525 0.00243327 0)
(0.501513 -0.0137208 2.50415e-20)
(0.498333 8.65126e-06 -1.3979e-20)
(0.501796 0.0239242 0)
(0.531369 0.0708612 -1.02651e-20)
(0.521947 0.0424079 1.24758e-20)
(0.520388 0.000399239 2.14301e-23)
(0.440331 -0.00250223 1.58891e-22)
(0.521697 0.00520295 -3.59545e-21)
(0.520024 0.00640098 1.1473e-20)
(0.51377 0.000644191 -8.50918e-21)
(0.513883 0.00653492 -3.86706e-21)
(0.497425 0.00372559 -4.52527e-21)
(0.547799 0.025059 7.26621e-22)
(0.517182 0.00390683 1.28635e-20)
(0.493904 0.00298184 0)
(0.498807 -0.00952298 -5.23727e-20)
(0.501567 -0.0138456 1.4104e-20)
(0.521627 0.00510272 1.27955e-20)
(0.443456 -0.213361 2.61485e-21)
(0.552994 -0.00143579 -1.73398e-20)
(0.519635 -0.00078205 1.66279e-20)
(0.515794 -0.0140327 5.9063e-21)
(0.522791 -0.00222332 2.49579e-20)
(0.524809 0.0193732 2.89819e-20)
(0.509285 -0.00618989 -2.3689e-21)
(0.552303 -0.00116722 8.62504e-20)
(0.51631 -0.00468157 -5.40216e-21)
(0.515843 0.00822345 1.11851e-20)
(0.49993 -4.17796e-05 -5.77752e-20)
(0.540616 -0.0198398 -5.30398e-20)
(0.48085 -0.0525947 2.7003e-20)
(0.440099 -0.00257628 -1.52327e-22)
(0.513837 0.000660123 1.00053e-20)
(0.544017 0.0079237 7.02729e-21)
(0.516741 0.0143132 8.58485e-21)
(0.5094 -0.01006 0)
(0.513898 0.00368977 -1.21536e-20)
(0.520476 0.00186993 -1.16172e-20)
(0.500622 -0.00296082 1.33262e-20)
(0.524992 -0.000279888 -1.4138e-20)
(0.507096 0.00376611 5.74247e-23)
(0.543419 0.00364127 0)
(0.563579 0.0014239 -3.17622e-20)
(0.521397 -0.0127503 -3.9846e-21)
(0.498404 2.22077e-05 4.28855e-20)
(0.375161 -0.00306944 -2.71469e-20)
(0.491047 0.00288565 3.46434e-20)
(0.486385 -0.00899701 4.603e-20)
(0.508701 0.00403408 0)
(0.507946 -0.010249 -1.59058e-22)
(0.473677 0.00910545 -5.34397e-20)
(0.358001 -0.0755879 0)
(0.495059 0.0190449 2.63701e-20)
(0.4179 -0.0310457 -7.0453e-20)
(0.515312 -0.00402284 0)
(0.511536 -0.00871325 -8.9771e-23)
(0.511905 0.000502209 0)
(0.474137 -0.038309 -3.27164e-20)
(0.51524 -0.0039912 -6.19552e-23)
(0.545046 0.00668191 5.91942e-20)
(0.494802 0.0191725 1.56746e-21)
(0.498637 -0.00956761 3.2521e-20)
(0.527182 -0.0254248 0)
(0.517253 0.0005069 7.51899e-21)
(0.535909 -0.00572566 0)
(0.50835 -0.0036287 3.30085e-22)
(0.555967 0.0340763 0)
(0.520101 -0.000187514 1.88963e-20)
(0.522411 0.0420597 -1.4975e-20)
(0.580562 -0.0145466 1.54385e-19)
(0.517195 0.00387916 -8.949e-21)
(0.510141 0.00158598 -9.73841e-22)
(0.496678 0.021663 -2.09585e-20)
(0.506433 -0.012571 -5.09159e-21)
(0.51426 -0.00329241 -1.11998e-22)
(0.511725 0.00258056 -2.99408e-21)
(0.517328 0.000518085 -6.74228e-21)
(0.54035 -0.0202628 -3.63486e-20)
(0.501324 0.00103217 -1.01785e-20)
(0.551705 -0.103765 0)
(0.316779 0.027762 -5.94727e-22)
(0.507142 0.00371961 -4.17103e-22)
(0.511772 0.00257772 0)
(-0.0105354 -0.0160382 8.80215e-21)
(0.254409 0.0508118 5.15685e-20)
(0.504192 -0.0071486 4.07046e-23)
(0.536121 0.0306028 -3.52313e-20)
(0.521159 -0.00524561 -1.65985e-20)
(0.503736 -0.0072876 -3.87588e-23)
(0.515616 -0.0017435 1.46993e-20)
(0.551976 -0.102335 2.01618e-20)
(0.542793 0.00545558 -3.41086e-20)
(0.536991 -0.00749487 4.476e-20)
(0.514054 0.010422 2.46803e-21)
(0.535523 -0.00587833 1.44334e-20)
(0.517659 0.0172082 0)
(0.51632 -0.00464812 8.32644e-21)
(0.169212 0.0195842 0)
(0.522606 0.00684266 2.32517e-20)
(0.543116 0.00371204 3.34339e-21)
(0.504483 0.00046988 -6.40379e-24)
(0.509432 -0.00994858 3.77023e-21)
(0.524651 0.00409839 3.27922e-20)
(0.0794573 0.0236017 8.44723e-20)
(0.515125 -0.00398363 -8.98739e-21)
(0.580957 -0.0135138 -1.68387e-19)
(0.467532 0.0685283 -4.65708e-21)
(0.513996 0.00649944 8.90775e-21)
(0.480376 -0.0518485 -5.08349e-20)
(0.399073 0.0286 0)
(0.516571 0.0144016 -7.46143e-21)
(0.508557 -0.0104059 -4.62151e-23)
(0.522688 -0.0022426 -1.28473e-20)
(0.488226 -0.0308024 -1.63761e-20)
(0.507819 0.00609548 -2.30804e-22)
(0.517653 0.0168863 7.95078e-21)
(0.533912 0.0018887 0)
(0.521048 -0.0127014 3.94229e-21)
(0.535315 0.109603 -2.04458e-21)
(0.521309 -0.00613176 -3.70419e-23)
(0.257037 0.0470043 3.06777e-20)
(0.567434 0.0153732 5.09907e-20)
(-0.00384286 -0.00922002 0)
(-0.00353268 -0.00891865 -9.1989e-21)
(0.157091 0.0221535 4.54531e-20)
(0.508306 0.000407755 -3.80545e-22)
(0.5047 0.0109426 -7.45262e-21)
(0.489073 -0.0414138 3.9678e-20)
(0.499402 0.00568899 0)
(0.500341 0.00109051 0)
(0.525061 0.0193427 -3.26591e-20)
(0.500207 -0.000345562 1.03948e-20)
(0.511928 -0.00157495 -1.00773e-20)
(0.51839 -0.00634903 3.14062e-22)
(0.487564 -0.0307694 -3.89265e-20)
(0.529339 0.0209261 1.04839e-20)
(0.506557 0.00259893 0)
(0.500846 -0.00181213 0)
(0.516256 0.00106685 0)
(0.501255 0.000993921 0)
(0.500376 0.00110955 0)
(0.495812 0.00350946 0)
(0.520154 0.00180244 0)
(0.514409 0.00181941 0)
(0.511803 0.00443616 -3.70265e-21)
(0.504218 0.0105179 -1.87141e-20)
(0.499918 -2.10516e-05 2.57775e-20)
(0.496976 0.0215534 0)
(0.500476 -0.000109927 0)
(0.532961 -0.00770692 -3.13344e-20)
(0.512732 -0.00557923 -1.92297e-21)
(0.51598 0.0083481 -1.13137e-20)
(0.520814 0.0136626 -2.40814e-20)
(0.521362 -0.00623424 1.05547e-22)
(0.508516 0.00405316 -6.27121e-22)
(0.519862 0.00648527 -1.87469e-21)
(0.507475 0.00918585 2.56071e-22)
(0.516385 -0.00500765 -4.50616e-21)
(0.496133 -0.0199768 0)
(0.543198 -0.000441208 0)
(0.556925 0.0341528 -2.91116e-23)
(0.541752 -0.0217446 0)
(0.316664 0.0245368 -3.73268e-22)
(0.516335 -0.00160587 -3.9176e-23)
(0.514329 0.00178519 -5.35317e-21)
(0.515597 -0.00164508 -1.6176e-20)
(0.398381 0.0177193 9.10513e-22)
(0.453908 -0.0266163 -2.32473e-22)
(0.520046 0.00178999 -4.98265e-21)
(0.54249 0.00554025 4.47733e-20)
(0.528102 -0.0121107 -2.303e-20)
(0.353814 0.0469554 1.75618e-20)
(0.512345 -0.00555597 3.82923e-22)
(0.504573 0.0108104 0)
(0.515771 -0.00415766 0)
(0.50642 -0.0124461 5.62327e-21)
(0.419788 -0.012274 -2.99425e-21)
(0.492699 0.0219965 1.37883e-20)
(0.5316 -0.0034024 2.21296e-22)
(0.536776 0.00264581 4.86698e-20)
(0.513148 0.00509301 4.75213e-21)
(0.514257 -0.00332481 -4.69851e-21)
(0.535049 -0.02308 -2.12974e-20)
(0.507285 0.00911039 2.43218e-22)
(0.287655 -0.00283007 1.64023e-19)
(0.374812 -0.00548967 -8.86362e-21)
(0.495632 0.0394296 2.99765e-20)
(0.482606 0.0133303 -1.22438e-21)
(0.507477 0.00437164 5.25604e-24)
(0.433169 -0.00456302 3.66717e-22)
(0.537362 -0.0073822 -4.47239e-20)
(0.509901 0.00642861 0)
(0.537944 -0.0126754 0)
(0.49406 0.00297557 1.12068e-20)
(0.518021 0.00405202 0)
(0.46211 -0.0278645 -5.25578e-20)
(0.486333 -0.0187362 -9.78493e-21)
(0.48319 0.000142634 4.93608e-22)
(0.266504 -0.00777857 -6.8052e-20)
(0.524039 -0.00260713 4.25995e-20)
(0.524006 -0.00254898 -4.01337e-20)
(0.438021 -0.015864 0)
(0.508402 -0.00627407 0)
(0.51404 0.0039205 0)
(0.482096 -0.00432478 -1.48693e-22)
(0.57511 0.135303 -8.62316e-22)
(0.513992 0.00390348 8.10904e-21)
(0.536713 0.00288563 -2.37541e-20)
(0.220911 -0.0685877 0)
(0.513731 0.0103941 8.06838e-22)
(-0.0118236 -0.0183247 1.7672e-20)
(0.289632 -0.00224511 -4.44703e-20)
(0.52872 0.0156487 -1.7867e-20)
(0.504375 0.0105759 5.57903e-21)
(0.526729 -0.00664595 4.68829e-21)
(0.468075 -0.0415406 -7.92141e-20)
(0.467271 -0.0410315 7.07806e-20)
(0.494723 -0.0185897 0)
(0.480054 -0.0594514 0)
(0.00874659 -0.0110822 -2.11875e-20)
(0.504547 -0.00214264 -2.31032e-22)
(0.504503 -0.00220015 2.13102e-22)
(0.524575 -0.0114943 0)
(0.524792 0.0129951 4.69475e-21)
(0.523489 0.0162185 -7.24473e-21)
(0.516431 -0.00502711 -3.86505e-21)
(0.499919 -0.00164833 4.29171e-21)
(0.482048 -0.00465009 2.02665e-22)
(0.484859 0.00163941 1.04694e-22)
(0.521114 0.0137208 2.52549e-20)
(0.504689 0.00255119 -2.19852e-22)
(0.504658 0.00263249 0)
(0.526631 -0.0253314 -3.25994e-21)
(0.489553 -0.0407191 -1.62708e-20)
(0.470495 -0.0163845 0)
(0.502353 0.0808162 1.64808e-21)
(0.511046 -0.00360876 1.01662e-22)
(0.505265 0.0310756 0)
(0.561257 0.00358935 -7.67056e-20)
(0.438607 0.00574355 -5.50078e-20)
(0.529987 0.0209041 -1.4925e-20)
(0.508811 -0.00667246 1.06845e-21)
(0.532971 -0.0208884 -2.94907e-20)
(0.351985 -0.294701 -6.11166e-22)
(0.502055 0.0318359 0)
(0.468642 0.0691764 -6.10209e-22)
(0.501138 0.0795781 0)
(0.140257 -0.120685 0)
(0.482687 0.0200516 0)
(0.512579 0.00612009 -1.98834e-21)
(0.55317 0.150846 -3.3531e-20)
(0.530664 0.0235172 -1.4572e-20)
(0.520262 -0.0065853 1.21823e-20)
(0.525684 -0.00800666 1.46999e-20)
(0.505771 0.00620755 0)
(0.531592 -0.00351949 0)
(0.506053 -0.00456115 0)
(0.52278 -0.00692812 9.70543e-21)
(0.506074 -0.0046299 -5.72498e-23)
(0.513244 0.00511741 2.80029e-21)
(0.537014 0.00748042 0)
(0.500106 0.00131579 1.51662e-20)
(0.542838 -0.00057925 -1.42166e-20)
(0.517396 0.00018824 -2.93032e-20)
(0.50102 -0.00720277 0)
(0.452924 -0.0260294 1.44437e-20)
(0.520785 0.00105835 0)
(0.51122 0.012303 -3.38103e-21)
(0.500256 -0.0030607 3.3401e-20)
(0.500236 -0.00037537 -4.49787e-20)
(0.539815 0.00453904 1.16013e-20)
(0.495121 -0.0233825 1.93186e-20)
(0.490453 0.00434284 4.3522e-23)
(0.54191 -0.0210508 0)
(0.531009 0.0234292 -5.24342e-21)
(0.52295 -0.0070416 -9.0715e-21)
(0.494986 -0.0184923 0)
(0.522649 0.00214581 4.86191e-20)
(0.523975 -0.133823 0)
(0.534313 0.050808 1.55209e-20)
(0.4627 -0.0284113 0)
(0.508567 0.00288583 0)
(0.538244 -0.0125312 -3.3264e-21)
(0.258791 0.0555803 -5.17389e-20)
(0.462613 -0.0416596 -2.53832e-20)
(0.539548 0.00463391 0)
(0.534092 -0.0229852 1.8277e-20)
(0.500091 0.00134932 4.81141e-23)
(0.184656 -0.0697541 -1.7999e-20)
(0.503228 0.000895385 0)
(0.502746 -0.00163851 -1.05704e-22)
(0.439137 -0.0166753 -1.70278e-20)
(0.463579 -0.0410092 -1.09901e-20)
(0.415007 -0.0128426 2.64208e-21)
(0.532433 -0.0207821 4.80193e-20)
(0.331465 0.023647 1.16538e-20)
(0.500579 -0.00254114 -2.29627e-20)
(0.520812 0.00111704 6.61982e-21)
(0.499458 0.00579201 -1.05916e-20)
(0.527935 -0.0118023 2.29528e-20)
(0.0563189 -0.0187648 -9.35456e-20)
(0.508388 0.00397706 -5.66742e-22)
(0.508756 0.00405546 2.08895e-22)
(0.496682 -0.0298222 0)
(0.508543 0.00412036 0)
(0.525657 -0.00761236 1.23061e-20)
(0.520794 0.0235474 0)
(0.506572 0.00262558 0)
(0.262557 -0.0227506 1.31076e-20)
(0.535493 0.030575 2.88864e-20)
(0.508296 0.00395686 4.07031e-22)
(0.508971 -0.00271023 0)
(0.482607 0.0204847 -3.67366e-22)
(0.500852 -0.00176531 0)
(0.523181 -0.0142167 2.195e-20)
(0.499896 -0.00168479 1.7334e-20)
(0.511842 0.000477053 3.26257e-21)
(0.522535 0.00220261 -3.41013e-20)
(0.543427 0.00607151 -2.02322e-20)
(0.499803 0.0224863 9.06296e-21)
(0.533815 -0.00641413 1.84994e-20)
(0.517859 -0.0030905 0)
(0.508393 -0.00361611 0)
(0.518756 0.00112858 0)
(0.495578 -0.0191545 6.91991e-23)
(0.286178 -0.00940813 1.34103e-19)
(0.00900115 -0.0124028 1.87297e-20)
(0.48031 0.00183118 2.95968e-22)
(0.541979 0.0495134 0)
(0.514007 -0.00155785 1.54476e-20)
(0.0861713 0.0234098 0)
(0.490548 0.00375343 -8.32734e-21)
(0.432767 -0.00480278 -1.61156e-22)
(0.521013 -0.00526365 0)
(0.517778 -0.00310246 0)
(0.504465 -0.00281672 0)
(0.578646 0.0105376 -1.65446e-20)
(0.53297 -0.00775303 3.27586e-20)
(0.508256 0.00395296 -7.01808e-22)
(0.495545 -0.0234269 5.93106e-21)
(0.520655 -0.000348911 2.37933e-20)
(0.499989 0.00173995 -3.03626e-20)
(0.518086 0.00887047 -7.52574e-21)
(0.516171 0.00109804 0)
(0.511037 0.01043 -8.25532e-23)
(0.512452 -0.0101939 0)
(0.510721 0.0104039 -7.72086e-23)
(0.520596 -0.00039148 -1.82914e-20)
(0.495972 0.0035376 4.70802e-21)
(0.508189 0.00391346 2.10972e-22)
(0.501096 -0.00243741 0)
(0.515698 -0.00159389 -1.04076e-20)
(0.591747 0.0526365 0)
(0.506029 -0.00219056 0)
(0.508914 -0.00268381 0)
(0.533782 -0.00611438 -2.51796e-20)
(0.458621 -0.100778 -2.27265e-20)
(0.54652 0.00499419 -2.32305e-20)
(0.505879 0.00624994 0)
(0.276354 0.23684 0)
(0.508657 0.00432769 0)
(0.50868 0.00434489 -5.82204e-24)
(0.504422 -0.00293292 0)
(0.204655 -0.0720418 0)
(0.542886 -0.0184574 -1.47878e-20)
(0.499524 -0.00318743 -2.37606e-20)
(0.514371 -0.017866 5.60283e-21)
(0.511871 -0.00157044 -6.87726e-21)
(0.519894 0.000375221 1.46153e-21)
(0.50779 0.0256407 3.49423e-21)
(0.505804 0.124854 7.50311e-22)
(0.507732 -0.00456469 0)
(0.359663 -0.0711556 0)
(0.518813 0.00113143 5.83908e-22)
(0.509631 -0.00367372 -3.40575e-21)
(0.50054 -0.00254069 0)
(0.524606 -0.0111972 0)
(0.411573 -0.037389 -2.96149e-20)
(0.40028 0.0308927 0)
(0.507637 0.00114068 -1.3551e-21)
(0.487953 0.0229016 -4.8867e-21)
(0.536698 -0.00627173 -3.66099e-20)
(0.409988 0.202587 -2.1849e-20)
(0.522552 0.00107146 -1.56443e-20)
(0.514273 0.00334199 0)
(0.50857 0.00293199 0)
(0.51431 0.00338666 0)
(0.435323 0.212112 -4.6975e-20)
(0.461526 -0.0358987 0)
(0.543521 0.00655918 4.59592e-20)
(0.536458 -0.00594654 0)
(0.543589 0.00670312 -5.50888e-20)
(0.507392 0.0334905 1.48378e-20)
(0.501108 -0.00724444 0)
(0.516386 -0.00461285 -1.49592e-20)
(0.461129 -0.0369605 0)
(0.500169 -0.000751865 2.79716e-20)
(0.498435 -0.00100747 0)
(0.558843 0.0475212 -2.5417e-22)
(0.499987 0.00168414 1.36299e-20)
(0.507496 0.00433718 0)
(0.552947 0.0171231 5.67775e-20)
(0.515629 -0.00160256 1.21692e-20)
(0.508345 0.00397168 2.89835e-22)
(0.534044 0.0500706 0)
(0.0215698 -0.00111572 4.57811e-21)
(0.512282 -0.000859033 -4.16092e-21)
(0.493854 0.0144656 -8.17143e-22)
(0.512306 -0.00997991 -2.03955e-22)
(0.229544 -0.0671851 -3.30815e-20)
(0.519897 0.000392664 4.63537e-21)
(0.52422 -0.0101765 8.43723e-21)
(-0.00547438 -0.0114122 9.5986e-21)
(0.513986 -0.00150074 0)
(-0.00396254 -0.0106399 2.35355e-21)
(0.507804 -0.0504964 -4.87931e-20)
(0.499431 0.0225565 9.24361e-21)
(0.510515 0.00173732 -1.12252e-22)
(0.507186 0.0177615 8.66093e-20)
(0.504618 -0.00650915 0)
(0.502272 0.00164346 0)
(0.501223 -0.00522196 -4.13746e-21)
(0.543406 0.00632489 0)
(0.497297 0.00364646 0)
(0.549488 0.150436 3.26421e-20)
(0.517458 0.000191612 2.31204e-20)
(0.502842 -0.00157123 -4.63117e-24)
(0.491297 -0.00227836 -1.71521e-20)
(0.50103 0.000993252 2.85634e-24)
(0.499513 -0.000657237 4.13719e-20)
(0.50783 -0.00460424 0)
(0.498613 -0.0384623 1.05568e-20)
(0.507842 0.0333773 -9.4493e-21)
(0.501359 -0.00757719 8.44959e-21)
(0.508046 -0.00709343 2.82504e-22)
(0.501305 -0.0052461 0)
(0.512173 0.0105037 -1.88052e-22)
(0.50954 -0.00365621 2.34873e-21)
(0.512247 0.0106032 5.56906e-22)
(0.52296 0.0161687 3.50097e-21)
(0.500305 -0.00309555 -3.81323e-20)
(0.504848 0.00479827 -2.5484e-22)
(0.516634 0.00260611 7.5823e-21)
(0.500951 0.00285198 -2.51545e-20)
(0.52498 -0.000224136 1.45589e-20)
(0.514269 0.00432434 1.65736e-21)
(0.543476 0.00642727 -3.05843e-20)
(0.259383 -0.025749 -7.96929e-21)
(0.502254 -0.00668098 -1.03106e-20)
(0.522436 0.00674235 -1.91442e-20)
(0.507809 0.0253358 -5.38999e-22)
(0.521783 -0.00259479 3.44948e-21)
(0.499644 -0.00151954 5.06397e-20)
(0.491104 0.04021 -3.94275e-20)
(0.508994 0.00384802 -2.62035e-21)
(0.520637 -0.00176701 -1.33041e-20)
(0.493724 0.00885345 1.49945e-20)
(0.526906 0.0079632 9.91011e-21)
(0.527361 -0.000683581 2.32676e-20)
(0.389599 0.107483 5.27549e-20)
(0.500129 -0.000721272 -1.12596e-20)
(0.508181 0.00392074 2.25766e-22)
(0.510661 -0.000898557 -5.95952e-21)
(0.543526 0.00644908 -2.9003e-22)
(0.503182 0.000866568 -2.97948e-21)
(0.568174 0.0161575 0)
(0.498939 0.000616699 0)
(0.500436 -0.00011507 0)
(0.527568 0.00810653 0)
(0.501039 -0.00242621 0)
(0.591687 0.0523522 -3.53857e-20)
(0.51848 -0.00482933 0)
(0.537689 -0.0108713 2.88057e-22)
(0.526717 -0.00667938 0)
(0.528407 0.0155154 1.54956e-20)
(0.349868 -0.296627 1.36859e-21)
(-0.00474173 0.00450883 0)
(0.51748 -0.0117111 -2.01203e-22)
(-0.0773762 -0.0185111 -6.1011e-20)
(0.488154 0.00441688 -1.81593e-21)
(0.507686 0.00113767 2.55504e-21)
(0.513784 0.00504599 0)
(0.484238 0.00239325 0)
(0.519084 0.004651 2.50006e-22)
(0.50101 0.00103144 -3.05762e-20)
(0.510804 -0.0022463 0)
(0.519258 0.00513551 1.85414e-21)
(0.519867 2.75347e-05 5.93514e-21)
(0.524165 -0.0102795 0)
(0.504567 0.0846063 0)
(0.467284 0.00586704 -5.9754e-20)
(0.339755 -0.039155 0)
(0.498893 -0.011861 4.78495e-23)
(0.00828298 -0.000490224 0)
(0.527431 -0.000599002 2.42938e-20)
(0.0104074 -0.0135786 -1.1618e-22)
(0.526531 -0.00808746 0)
(0.506673 -0.00540357 -2.49882e-23)
(0.477109 8.37043e-05 0)
(0.506694 -0.00539835 0)
(0.491271 0.0145502 0)
(0.495557 -0.00944269 1.7879e-20)
(0.486967 0.00720515 -6.62388e-20)
(0.524928 0.0132603 0)
(0.543607 0.00597519 1.39372e-20)
(0.497269 -0.00100933 -4.15229e-21)
(0.498736 -0.0118657 -1.79118e-20)
(0.488764 0.00438902 0)
(0.477992 0.0352499 -2.95166e-20)
(0.505489 0.0049645 -9.54834e-23)
(0.518862 0.000544766 -1.78725e-20)
(0.568818 0.0166759 0)
(0.523487 0.015748 4.6798e-20)
(0.509049 0.0038613 -5.08997e-23)
(0.500894 0.00285653 2.51496e-20)
(0.543113 -0.00845557 -5.80752e-20)
(0.558085 0.0465458 -7.22492e-20)
(0.545191 0.0059638 9.57921e-21)
(0.480908 -0.00286107 -2.74957e-20)
(0.524145 -0.00664756 -3.73882e-20)
(0.511894 0.00774687 2.98023e-21)
(0.502557 0.00803928 0)
(0.477574 0.000191119 2.60653e-20)
(0.324877 0.0469846 7.80971e-20)
(0.513731 0.00499882 1.40073e-21)
(0.509523 0.00426046 0)
(0.526753 -0.00819574 3.21598e-22)
(0.514928 0.00124649 0)
(0.569852 0.0152819 -3.98826e-20)
(0.520019 0.00104517 0)
(0.49101 0.00260607 0)
(0.527675 0.00173895 0)
(0.514183 0.00430018 1.44372e-21)
(0.582283 -0.025171 1.30579e-20)
(0.546584 0.00470542 0)
(0.443795 -0.00605193 2.98131e-22)
(0.499873 -0.00277062 1.24362e-20)
(0.502314 -0.00137072 0)
(0.499797 0.0190414 -2.85227e-20)
(0.467591 0.00526955 5.37647e-20)
(0.477801 0.0357172 0)
(0.459787 -0.0992682 2.35205e-20)
(0.489695 0.0175152 3.52776e-20)
(0.513771 0.00959054 -3.03556e-21)
(0.27685 0.0508534 -5.71195e-20)
(0.520753 -0.00182531 -5.23987e-21)
(0.518752 -0.00520381 0)
(0.498629 -0.0378028 0)
(0.518552 -0.00511093 0)
(0.518875 0.000515014 1.60788e-20)
(0.505438 0.0398842 3.02966e-21)
(0.519881 9.67408e-06 0)
(0.516427 -0.00468839 0)
(0.0806587 0.0295736 -9.27824e-21)
(0.449522 -0.00678766 -4.65719e-22)
(0.497234 -0.0298956 -2.25337e-20)
(0.518747 -0.0166989 0)
(0.514962 0.00128774 0)
(0.528436 0.0190096 1.62567e-20)
(0.511066 -0.00389029 -1.05073e-22)
(0.287254 -0.053709 3.9028e-21)
(0.489906 0.0172293 0)
(0.512369 0.00615105 -1.75754e-21)
(0.501643 0.000380398 1.02642e-20)
(0.514767 0.00222513 0)
(0.520539 -0.013486 1.2676e-20)
(0.519646 -0.000174758 -1.0932e-20)
(0.512356 -0.000895614 -3.89374e-21)
(0.544564 -0.00472528 6.67024e-20)
(0.506003 -0.00218865 -2.23848e-22)
(0.497192 -0.000936625 2.70918e-20)
(0.491507 -0.00226279 -4.20478e-20)
(0.460041 0.149917 4.14328e-21)
(0.511388 0.00577059 9.58976e-23)
(0.343261 -0.0115342 6.08238e-21)
(0.521202 0.0065655 0)
(0.485729 -0.0199016 -4.50099e-20)
(0.43724 -0.0405165 -2.93897e-20)
(0.52069 -0.00103705 1.10845e-20)
(0.500516 -0.00379632 -4.0088e-21)
(0.510859 -0.00224711 0)
(0.393123 0.109686 -4.04794e-20)
(0.529082 -0.000365345 0)
(0.52083 -0.00661929 0)
(0.40289 -0.0112923 9.14987e-21)
(0.539592 -0.0300542 0)
(0.518268 0.00879504 6.39613e-21)
(0.055778 -0.0134127 -5.28105e-20)
(0.500115 0.0191815 2.57432e-20)
(0.496362 -0.0706959 7.23631e-20)
(0.511379 0.0121927 4.00907e-21)
(0.542063 0.00679872 6.25031e-20)
(0.493966 0.00874959 -2.6857e-21)
(0.503178 -0.000641072 9.51962e-21)
(0.502685 0.00807976 1.54229e-20)
(0.507405 -0.00253281 7.00688e-22)
(0.513351 -0.00150315 0)
(0.506862 0.00276438 0)
(0.543694 -0.00832916 5.63582e-20)
(0.524666 -0.00978513 2.086e-20)
(0.494957 -0.00317268 -2.31006e-20)
(0.500559 -0.00382694 1.34584e-20)
(0.509462 0.00417927 9.03661e-22)
(0.483254 -0.00011009 -3.65834e-22)
(0.513978 -0.00859977 1.70042e-21)
(0.506919 0.00278831 -3.4014e-22)
(0.506114 0.122513 -2.74933e-21)
(0.543339 0.0059585 -2.47061e-20)
(0.571661 -0.0330185 -8.80087e-20)
(0.431925 0.0371679 4.00976e-20)
(0.28543 0.232513 0)
(0.501263 -0.00750857 -9.78742e-21)
(0.521136 -0.00390395 0)
(0.506111 -0.000765477 -1.14793e-21)
(0.495765 0.00633359 1.81225e-23)
(0.51329 -0.00149046 0)
(0.528862 -0.00046321 1.1638e-20)
(0.516758 0.00249138 0)
(0.509512 -0.00223244 -3.33303e-21)
(0.509566 -0.00223635 -1.82174e-21)
(0.503092 -0.0109995 9.11483e-21)
(0.146562 -0.0175635 7.14133e-20)
(0.517391 -0.00074248 -2.90595e-20)
(0.504438 -0.00121296 -6.59739e-22)
(0.486693 -0.0189221 5.35974e-20)
(0.537496 -0.046638 -3.47495e-21)
(0.481074 -0.0030528 -6.16096e-22)
(0.496019 0.00630953 -5.98216e-24)
(0.516712 0.00271443 -6.36364e-21)
(0.554564 0.187363 2.03146e-20)
(0.507538 0.00456885 1.61849e-22)
(0.506656 -0.00224793 0)
(0.51079 -0.0024569 0)
(0.519468 0.00296274 -1.02414e-20)
(0.537109 -0.0460191 3.6271e-21)
(0.51741 -0.000692916 1.84455e-20)
(0.523367 -0.00253128 0)
(0.51585 0.00547955 9.02239e-21)
(0.570609 0.00791298 0)
(0.523692 -0.00169993 1.6175e-20)
(0.521306 -0.0245745 0)
(0.57292 0.13653 2.18789e-20)
(0.520037 0.0010163 1.58511e-20)
(0.504484 0.0131475 0)
(0.506666 -0.0022889 -1.22377e-21)
(0.519788 -0.000230794 -2.12815e-20)
(0.486043 0.0203276 0)
(0.519359 0.00298415 -1.84234e-20)
(0.545412 0.00620526 -1.02813e-20)
(0.211951 -0.0633963 -3.29629e-21)
(0.506092 -0.000709121 -9.23997e-22)
(0.529254 0.00346142 0)
(0.539338 0.00240788 0)
(0.510341 0.0103968 -9.4588e-22)
(0.512314 0.00382433 -5.82804e-21)
(0.561764 0.036727 0)
(0.521115 0.00646917 0)
(0.538087 -0.0108662 0)
(0.490514 0.0033871 -2.95462e-20)
(0.522569 0.00102122 1.41612e-20)
(0.546798 0.00189583 0)
(0.517129 -0.0116344 -6.1846e-21)
(0.499606 -0.00156072 -3.39874e-20)
(0.508999 0.00201579 3.78604e-21)
(0.52364 -0.00173387 0)
(0.519836 -0.020798 -5.0877e-21)
(0.500643 -0.00499265 0)
(0.509763 -0.00883886 0)
(0.499256 0.0024524 -1.24081e-20)
(0.516377 0.0014025 1.04718e-20)
(0.17678 -0.159319 3.44555e-21)
(0.485036 0.0028632 2.08907e-20)
(0.530864 -0.0209873 1.68927e-20)
(0.544191 -0.00453777 -7.12119e-20)
(0.507248 0.00343922 -1.63565e-22)
(0.509015 0.00205837 0)
(0.481274 -0.0592979 0)
(0.479488 0.0208907 0)
(0.51667 -0.00164397 0)
(0.090364 0.0394756 1.9771e-20)
(0.502891 -0.00718951 -4.22056e-21)
(0.469555 0.00814349 -3.99142e-22)
(0.500026 0.000218455 2.12894e-20)
(0.494984 -0.00308495 0)
(0.530752 -0.0212335 -3.14246e-20)
(0.51667 -0.0015861 0)
(0.0145511 -0.00772483 6.54565e-20)
(0.487809 -0.010778 -5.10452e-20)
(0.51965 -0.000130593 9.24197e-21)
(0.515975 0.00550777 -9.5748e-21)
(0.511997 0.00332671 0)
(0.0276845 0.0134145 -3.0405e-20)
(0.52027 -0.0135054 1.38715e-20)
(0.498472 -0.0180367 0)
(0.510247 0.00311091 -4.04785e-21)
(0.523447 -0.0026222 0)
(0.507472 0.0111245 0)
(0.432533 0.0358754 -4.0111e-20)
(0.510161 0.00306627 2.96822e-23)
(0.546736 0.00159703 0)
(0.432681 -0.00639137 4.04002e-23)
(0.478793 0.0249784 0)
(0.513905 -0.00831019 1.40999e-21)
(0.499556 0.00360313 -1.522e-20)
(0.511719 0.00767196 -1.26967e-21)
(0.324499 0.0506825 -8.27421e-20)
(0.516968 0.0082881 -8.72623e-21)
(0.518319 0.00515694 0)
(0.571424 0.00759437 -2.43444e-20)
(0.507289 -0.0494452 5.6112e-20)
(0.468982 0.00855755 0)
(0.500018 0.000190679 0)
(0.498207 -0.0180202 1.88305e-20)
(0.575977 0.012679 5.6286e-20)
(0.524111 -0.00677449 0)
(0.35598 0.0407794 -7.74392e-21)
(0.500479 0.0117671 -2.14506e-22)
(0.487279 0.00730332 7.36115e-20)
(0.459349 0.0574306 2.93261e-20)
(-0.0202338 0.0529954 -7.42587e-20)
(0.502297 -0.00659285 0)
(0.49961 0.00362724 -5.44757e-21)
(0.511304 -0.00868379 1.21632e-21)
(0.536114 -0.0974233 -1.24229e-20)
(0.504655 0.0131294 0)
(0.514272 -0.00148687 -7.28636e-21)
(0.510775 -0.00240537 0)
(0.507745 0.00349731 5.14308e-22)
(0.516417 -0.00160248 -1.28382e-20)
(0.505465 -0.00466316 0)
(0.518444 0.00511023 -2.58027e-21)
(0.511375 0.00557913 5.85622e-22)
(0.487386 -0.0483859 0)
(0.509589 -0.00346984 -2.28229e-22)
(0.503662 0.000371169 1.73713e-20)
(0.328708 -0.0160955 5.95093e-21)
(0.500021 9.55824e-07 4.55577e-20)
(0.519752 -0.000189752 2.75052e-20)
(0.524487 -0.131598 0)
(0.583369 -0.0828973 0)
(0.507789 -0.00725578 7.52912e-23)
(0.52785 0.00178938 0)
(0.307497 -0.00351343 0)
(0.514189 -0.0185146 3.92866e-21)
(0.0630294 -0.0177286 6.5561e-20)
(0.531181 -0.0139448 1.46413e-20)
(0.503277 -0.000593999 0)
(0.537226 -0.00620709 -2.64959e-20)
(0.507467 -0.00257436 -7.40405e-22)
(0.543295 -0.00141723 0)
(0.582172 -0.0839891 0)
(0.512222 -0.00337747 -2.37469e-21)
(0.504042 0.00725936 0)
(0.539797 0.00941468 4.18823e-21)
(0.502889 0.00219572 -1.02787e-21)
(0.478597 0.0372086 1.35993e-20)
(0.527155 -0.00607515 0)
(0.508881 0.012181 -6.06565e-21)
(0.503779 0.000366641 -3.65402e-21)
(0.136285 -0.0174245 -7.47283e-20)
(0.473004 0.125984 5.09482e-21)
(0.51472 0.00216301 0)
(0.522809 8.60809e-06 0)
(0.472932 0.00212497 0)
(0.513755 -0.00179817 -4.75291e-23)
(0.512706 0.00114058 5.20131e-22)
(0.507712 0.00346134 -8.24919e-22)
(0.514506 -0.00655293 -3.97937e-21)
(0.529178 0.00661429 -4.96097e-20)
(0.526495 -0.00713404 6.13406e-21)
(0.501324 0.000872652 0)
(0.506904 -0.0052723 -2.79417e-22)
(0.498942 0.00281559 4.08661e-20)
(0.508061 0.00457577 3.2691e-22)
(0.516599 -0.00837349 -7.35225e-21)
(0.510948 -0.00415091 2.85063e-22)
(0.50931 -0.000178992 2.63663e-21)