/*--------------------------------*- C++ -*----------------------------------*\
  =========                 |
  \\      /  F ield         | OpenFOAM: The Open Source CFD Toolbox
   \\    /   O peration     | Website:  https://openfoam.org
    \\  /    A nd           | Version:  9
     \\/     M anipulation  |
\*---------------------------------------------------------------------------*/
FoamFile
{
    format      ascii;
    class       volScalarField;
    location    "900";
    object      k;
}
// * * * * * * * * * * * * * * * * * * * * * * * * * * * * * * * * * * * * * //

dimensions      [0 2 -2 0 0 0 0];

internalField   nonuniform List<scalar> 
4000
(
4.80621e-05
4.11329e-05
3.12996e-05
1.85889e-05
1.08423e-05
9.22033e-06
8.189e-06
7.6121e-06
7.37527e-06
7.15646e-06
6.83371e-06
6.55739e-06
6.91563e-06
7.55307e-06
8.54228e-06
9.2484e-06
9.62892e-06
1.36428e-05
2.5465e-05
3.57262e-05
5.70394e-05
5.13131e-05
4.19679e-05
3.23666e-05
2.57365e-05
1.69658e-05
9.74683e-06
9.2558e-06
9.32378e-06
9.39865e-06
9.23459e-06
8.9299e-06
9.51299e-06
1.04182e-05
1.11287e-05
2.09312e-05
2.9481e-05
3.79476e-05
4.6681e-05
5.13622e-05
6.2231e-05
5.76897e-05
4.93545e-05
4.00377e-05
3.21909e-05
2.45781e-05
1.80687e-05
1.07588e-05
1.09829e-05
1.14701e-05
1.177e-05
1.22415e-05
1.38465e-05
1.75437e-05
2.45456e-05
3.06582e-05
3.92694e-05
4.80862e-05
5.48564e-05
5.82092e-05
6.53987e-05
6.24157e-05
5.49864e-05
4.56583e-05
3.57684e-05
2.77202e-05
2.1623e-05
1.68129e-05
1.45313e-05
1.58159e-05
1.79344e-05
2.02433e-05
2.29388e-05
2.61984e-05
3.05263e-05
3.74402e-05
4.59224e-05
5.41919e-05
6.02031e-05
6.20793e-05
6.76725e-05
6.66118e-05
6.16658e-05
5.51134e-05
4.8337e-05
4.16806e-05
3.67095e-05
3.48571e-05
3.40565e-05
3.37415e-05
3.54968e-05
3.77345e-05
3.9957e-05
4.22215e-05
4.51505e-05
4.962e-05
5.52501e-05
6.0866e-05
6.46366e-05
6.47244e-05
6.95782e-05
7.07418e-05
6.91543e-05
6.63928e-05
6.3441e-05
6.05716e-05
5.81324e-05
5.61835e-05
5.46579e-05
5.36595e-05
5.52111e-05
5.75408e-05
5.95688e-05
6.12413e-05
6.2831e-05
6.45658e-05
6.64324e-05
6.8193e-05
6.88344e-05
6.68649e-05
7.14781e-05
7.50585e-05
7.6735e-05
7.73068e-05
7.73962e-05
7.7014e-05
7.61603e-05
7.4921e-05
7.32271e-05
7.11357e-05
7.23147e-05
7.50353e-05
7.71306e-05
7.82988e-05
7.86417e-05
7.82695e-05
7.72979e-05
7.58116e-05
7.32566e-05
6.89653e-05
7.36135e-05
7.97036e-05
8.4435e-05
8.78376e-05
9.03471e-05
9.1963e-05
9.26651e-05
9.2274e-05
9.04936e-05
8.73021e-05
8.82247e-05
9.16138e-05
9.37813e-05
9.4285e-05
9.33248e-05
9.10985e-05
8.78462e-05
8.36321e-05
7.80928e-05
7.12885e-05
7.64125e-05
8.55356e-05
9.32454e-05
9.92828e-05
0.000104085
0.000107645
0.000109915
0.00011057
0.000108942
0.000104615
0.000105563
0.000109988
0.000112095
0.000111637
0.000109167
0.000105011
9.9496e-05
9.26835e-05
8.41502e-05
7.42584e-05
8.04597e-05
9.26308e-05
0.000103258
0.000111653
0.000118617
0.00012435
0.000128753
0.000131394
0.000131452
0.000127816
0.00012872
0.000132247
0.00013232
0.000129782
0.000125281
0.000119213
0.000111725
0.000102679
9.13411e-05
7.8438e-05
4.11329e-05
3.6022e-05
2.81193e-05
1.76271e-05
1.28548e-05
1.21414e-05
1.16356e-05
1.03204e-05
9.91558e-06
9.64514e-06
9.21429e-06
8.86589e-06
9.30226e-06
1.02786e-05
1.21796e-05
1.25814e-05
1.21872e-05
1.33711e-05
1.97127e-05
2.52865e-05
5.13131e-05
6.36939e-05
5.18629e-05
4.04298e-05
3.49936e-05
3.04349e-05
2.05144e-05
1.64106e-05
1.58785e-05
1.59056e-05
1.56297e-05
1.53322e-05
1.53314e-05
1.65795e-05
2.10352e-05
3.16615e-05
3.84679e-05
4.6845e-05
5.56336e-05
4.5092e-05
5.76897e-05
6.88878e-05
6.48366e-05
5.13864e-05
4.03385e-05
3.2871e-05
2.80605e-05
2.28787e-05
1.83953e-05
1.78373e-05
1.69226e-05
1.6922e-05
1.93295e-05
2.54066e-05
3.23563e-05
3.82688e-05
4.88077e-05
6.09491e-05
6.46396e-05
5.33781e-05
6.24157e-05
7.00911e-05
6.69478e-05
5.68262e-05
4.35852e-05
3.40452e-05
2.76107e-05
2.28875e-05
2.03905e-05
2.0441e-05
1.94767e-05
2.06815e-05
2.39727e-05
2.82765e-05
3.43481e-05
4.32854e-05
5.57561e-05
6.44556e-05
6.66526e-05
5.88897e-05
6.66118e-05
7.43488e-05
7.29019e-05
6.4836e-05
5.20062e-05
4.1408e-05
3.42318e-05
2.9534e-05
2.6531e-05
2.4676e-05
2.4692e-05
2.69877e-05
3.14333e-05
3.68437e-05
4.31197e-05
5.29218e-05
6.29958e-05
6.98065e-05
7.06587e-05
6.36448e-05
7.07418e-05
7.94529e-05
7.98668e-05
7.52157e-05
6.75631e-05
5.59964e-05
4.81599e-05
4.26802e-05
3.93996e-05
3.82016e-05
3.88854e-05
4.12677e-05
4.557e-05
5.13793e-05
5.92802e-05
6.72344e-05
7.31911e-05
7.69324e-05
7.60496e-05
6.81468e-05
7.50585e-05
8.46054e-05
8.6492e-05
8.52979e-05
8.35955e-05
7.91207e-05
7.0807e-05
6.34658e-05
5.83627e-05
5.58604e-05
5.69486e-05
6.1375e-05
6.73332e-05
7.38543e-05
7.94113e-05
8.25821e-05
8.3645e-05
8.4376e-05
8.18757e-05
7.28061e-05
7.97036e-05
9.08441e-05
9.46693e-05
9.709e-05
0.000100782
0.000103244
0.000102721
9.92749e-05
9.31164e-05
8.5691e-05
8.56819e-05
9.22399e-05
9.81301e-05
0.000101612
0.000102503
0.000100103
9.64664e-05
9.3908e-05
8.90244e-05
7.76855e-05
8.55356e-05
0.000100092
0.000109606
0.000116757
0.000122919
0.000127289
0.000129702
0.00012916
0.000123437
0.000112296
0.000113733
0.000125764
0.000133264
0.00013456
0.000131787
0.000125765
0.000118456
0.000110174
9.92193e-05
8.36552e-05
9.26308e-05
0.000106825
0.000119649
0.000130369
0.000139852
0.000148255
0.000155287
0.000160095
0.000161279
0.000157553
0.000158441
0.000162344
0.000161483
0.000156972
0.000149909
0.000141093
0.000130971
0.000119485
0.000105856
9.08453e-05
3.12996e-05
2.81193e-05
2.08862e-05
1.5188e-05
1.40602e-05
1.41943e-05
1.32908e-05
1.1993e-05
1.17066e-05
1.1617e-05
1.11351e-05
1.06546e-05
1.11076e-05
1.21374e-05
1.39707e-05
1.50356e-05
1.39137e-05
1.31666e-05
1.48731e-05
1.7018e-05
4.19679e-05
5.18629e-05
4.62522e-05
4.05981e-05
3.77889e-05
3.33312e-05
2.37086e-05
2.04122e-05
2.02916e-05
2.04958e-05
1.99847e-05
1.90867e-05
1.88966e-05
2.01858e-05
2.38168e-05
3.29348e-05
3.78033e-05
4.18803e-05
4.45132e-05
3.49926e-05
4.93545e-05
6.48366e-05
6.1809e-05
5.14636e-05
4.26224e-05
3.66354e-05
3.31363e-05
2.80886e-05
2.35888e-05
2.26185e-05
2.13735e-05
2.10386e-05
2.32589e-05
2.95571e-05
3.64464e-05
4.0307e-05
4.76368e-05
5.67495e-05
5.95321e-05
4.60638e-05
5.49864e-05
6.69478e-05
6.58487e-05
5.72948e-05
4.60595e-05
3.74744e-05
3.18894e-05
2.81447e-05
2.64594e-05
2.5003e-05
2.33444e-05
2.40712e-05
2.72051e-05
3.10591e-05
3.64761e-05
4.43162e-05
5.49088e-05
6.30431e-05
6.31234e-05
5.18366e-05
6.16658e-05
7.29019e-05
7.14521e-05
6.37482e-05
5.15175e-05
4.10234e-05
3.39991e-05
2.9364e-05
2.64095e-05
2.53418e-05
2.44752e-05
2.56411e-05
2.94504e-05
3.43542e-05
4.06351e-05
4.99088e-05
6.07371e-05
6.77506e-05
6.87076e-05
5.88514e-05
6.91543e-05
7.98668e-05
7.85482e-05
7.14386e-05
6.04829e-05
4.8597e-05
4.01078e-05
3.43368e-05
3.05979e-05
2.88621e-05
2.83463e-05
3.01899e-05
3.48033e-05
4.08914e-05
4.87924e-05
5.85861e-05
6.85195e-05
7.52302e-05
7.6381e-05
6.67938e-05
7.6735e-05
8.6492e-05
8.62102e-05
7.9387e-05
6.97851e-05
6.01373e-05
5.16829e-05
4.54453e-05
4.12996e-05
3.93126e-05
3.93549e-05
4.17367e-05
4.60554e-05
5.19483e-05
5.92635e-05
6.82071e-05
7.7778e-05
8.4138e-05
8.40959e-05
7.47957e-05
8.4435e-05
9.46694e-05
9.8575e-05
9.53015e-05
8.72044e-05
8.08648e-05
7.5541e-05
7.02531e-05
6.43282e-05
5.85767e-05
5.8287e-05
6.41992e-05
7.01487e-05
7.50507e-05
8.00842e-05
8.86936e-05
9.59226e-05
9.82876e-05
9.33519e-05
8.26922e-05
9.32454e-05
0.000109606
0.000128249
0.000144316
0.000155464
0.000160713
0.000163728
0.000163006
0.000152342
0.000133467
0.000135999
0.000160129
0.00017471
0.000176594
0.000172006
0.000160909
0.00014794
0.000129797
0.000109094
9.15409e-05
0.000103258
0.000119649
0.000134445
0.000147198
0.000158856
0.000169634
0.000179172
0.000186228
0.00018875
0.000184874
0.000185537
0.000189805
0.000187832
0.000181318
0.000171803
0.000160481
0.000148063
0.000134434
0.000118762
0.00010149
1.85889e-05
1.76271e-05
1.5188e-05
1.45748e-05
1.51329e-05
1.55178e-05
1.40899e-05
1.30456e-05
1.30413e-05
1.32771e-05
1.2716e-05
1.21015e-05
1.2442e-05
1.32842e-05
1.45737e-05
1.60092e-05
1.49839e-05
1.34564e-05
1.21095e-05
1.06168e-05
3.23666e-05
4.04298e-05
4.05981e-05
3.95662e-05
3.75092e-05
3.16656e-05
2.42173e-05
2.27387e-05
2.35583e-05
2.41308e-05
2.31145e-05
2.16603e-05
2.13386e-05
2.23182e-05
2.44005e-05
3.06487e-05
3.54255e-05
3.69104e-05
3.60084e-05
2.74037e-05
4.00377e-05
5.13864e-05
5.14636e-05
4.63966e-05
4.11992e-05
3.78004e-05
3.52739e-05
3.0101e-05
2.73268e-05
2.70738e-05
2.52926e-05
2.39457e-05
2.54104e-05
3.06163e-05
3.76482e-05
4.04507e-05
4.32027e-05
4.71457e-05
4.69912e-05
3.70107e-05
4.56583e-05
5.68262e-05
5.72948e-05
5.17354e-05
4.41219e-05
3.80759e-05
3.40677e-05
3.15386e-05
3.04741e-05
2.97493e-05
2.75315e-05
2.68984e-05
2.94985e-05
3.29211e-05
3.69289e-05
4.23443e-05
4.8933e-05
5.41657e-05
5.36183e-05
4.33337e-05
5.51134e-05
6.4836e-05
6.37482e-05
5.74924e-05
4.84109e-05
4.02185e-05
3.45578e-05
3.10674e-05
2.96217e-05
3.00211e-05
2.85111e-05
2.79892e-05
3.01627e-05
3.37608e-05
3.88623e-05
4.60595e-05
5.42503e-05
6.02399e-05
6.10599e-05
5.24558e-05
6.63928e-05
7.52157e-05
7.14386e-05
6.42526e-05
5.46426e-05
4.49073e-05
3.76518e-05
3.27634e-05
2.97075e-05
2.88148e-05
2.80382e-05
2.84167e-05
3.20514e-05
3.71059e-05
4.37076e-05
5.22356e-05
6.13225e-05
6.84558e-05
7.218e-05
6.42531e-05
7.73068e-05
8.52979e-05
7.9387e-05
7.10055e-05
6.16693e-05
5.24856e-05
4.51587e-05
4.00041e-05
3.67122e-05
3.56406e-05
3.54157e-05
3.65031e-05
3.98099e-05
4.47302e-05
5.13498e-05
5.99771e-05
6.94428e-05
7.82609e-05
8.37819e-05
7.56253e-05
8.78376e-05
9.709e-05
9.53015e-05
8.81851e-05
8.28373e-05
7.7752e-05
7.39017e-05
7.04201e-05
6.55149e-05
5.94731e-05
5.96102e-05
6.69958e-05
7.30413e-05
7.626e-05
7.91528e-05
8.41408e-05
8.96395e-05
9.65126e-05
9.68864e-05
8.62772e-05
9.92828e-05
0.000116757
0.000144316
0.00017052
0.000181178
0.000191041
0.000200654
0.000203551
0.000191504
0.00016734
0.000168424
0.000197749
0.00021638
0.000216826
0.000205739
0.000192863
0.000178609
0.000147614
0.000116889
9.76458e-05
0.000111653
0.000130369
0.000147198
0.000162105
0.000176299
0.000190051
0.000202706
0.000212526
0.000217107
0.000214394
0.000214407
0.000217433
0.000213754
0.000204688
0.000192159
0.000177922
0.000162906
0.000147012
0.000129264
0.000109667
1.08423e-05
1.28548e-05
1.40602e-05
1.51329e-05
1.60485e-05
1.56046e-05
1.44464e-05
1.37396e-05
1.41213e-05
1.48291e-05
1.4159e-05
1.33347e-05
1.34158e-05
1.38916e-05
1.45049e-05
1.5166e-05
1.50232e-05
1.32382e-05
1.11047e-05
8.47484e-06
2.57365e-05
3.49936e-05
3.77889e-05
3.75092e-05
3.39077e-05
2.80563e-05
2.41921e-05
2.443e-05
2.64256e-05
2.74571e-05
2.5829e-05
2.38e-05
2.3279e-05
2.3769e-05
2.44014e-05
2.66656e-05
3.08376e-05
3.27798e-05
3.08476e-05
2.10335e-05
3.21909e-05
4.03385e-05
4.26224e-05
4.11992e-05
3.9231e-05
3.78614e-05
3.47631e-05
3.03633e-05
2.98352e-05
3.08653e-05
2.8572e-05
2.61633e-05
2.65883e-05
2.9889e-05
3.59993e-05
3.9858e-05
4.01357e-05
3.98766e-05
3.7359e-05
2.94072e-05
3.57684e-05
4.35852e-05
4.60595e-05
4.41219e-05
4.04052e-05
3.71823e-05
3.47226e-05
3.32564e-05
3.29371e-05
3.38386e-05
3.13312e-05
2.89015e-05
3.04402e-05
3.36046e-05
3.63874e-05
3.95594e-05
4.25297e-05
4.4095e-05
4.17686e-05
3.40683e-05
4.8337e-05
5.20062e-05
5.15175e-05
4.84109e-05
4.32056e-05
3.80999e-05
3.43565e-05
3.23083e-05
3.26401e-05
3.51887e-05
3.35431e-05
3.05793e-05
3.10255e-05
3.32585e-05
3.68055e-05
4.14636e-05
4.62378e-05
4.93082e-05
4.97598e-05
4.57823e-05
6.3441e-05
6.75631e-05
6.04829e-05
5.46426e-05
4.80106e-05
4.13675e-05
3.61836e-05
3.28595e-05
3.18003e-05
3.39881e-05
3.34886e-05
3.05249e-05
3.17824e-05
3.52387e-05
4.01247e-05
4.62793e-05
5.27778e-05
5.87127e-05
6.55015e-05
6.14515e-05
7.73962e-05
8.35955e-05
6.97851e-05
6.16693e-05
5.47268e-05
4.81255e-05
4.28268e-05
3.93221e-05
3.80425e-05
4.02242e-05
4.08422e-05
3.85376e-05
3.95078e-05
4.27661e-05
4.7731e-05
5.42187e-05
6.14969e-05
6.98052e-05
8.26089e-05
7.58079e-05
9.03471e-05
0.000100782
8.72044e-05
8.28373e-05
8.10731e-05
7.92691e-05
7.78994e-05
7.60145e-05
7.17017e-05
6.63572e-05
6.72573e-05
7.4417e-05
8.03659e-05
8.25191e-05
8.3245e-05
8.46751e-05
8.66685e-05
9.09599e-05
0.000101331
8.87702e-05
0.000104085
0.000122919
0.000155464
0.000181178
0.000204988
0.000226745
0.000244176
0.000248123
0.00022892
0.000194884
0.000194943
0.000232567
0.000258923
0.000260088
0.000242957
0.000217886
0.000190723
0.000160281
0.000123528
0.000102299
0.000118617
0.000139852
0.000158856
0.000176299
0.000194194
0.000211917
0.000228466
0.000241896
0.000249704
0.000249711
0.00024901
0.000248924
0.000241882
0.000229279
0.000213065
0.000195056
0.000176425
0.000157989
0.000138116
0.000116127
9.22033e-06
1.21414e-05
1.41943e-05
1.55178e-05
1.56046e-05
1.5143e-05
1.45905e-05
1.43489e-05
1.50707e-05
1.6499e-05
1.56652e-05
1.44715e-05
1.41109e-05
1.40781e-05
1.40987e-05
1.38931e-05
1.33062e-05
1.22037e-05
1.03369e-05
7.56906e-06
1.69658e-05
3.04349e-05
3.33312e-05
3.16656e-05
2.80563e-05
2.52628e-05
2.45521e-05
2.60146e-05
2.95357e-05
3.13729e-05
2.88849e-05
2.61028e-05
2.51365e-05
2.49051e-05
2.46076e-05
2.40035e-05
2.47212e-05
2.55866e-05
2.37127e-05
1.23688e-05
2.45781e-05
3.2871e-05
3.66354e-05
3.78004e-05
3.78614e-05
3.60395e-05
3.24547e-05
3.04277e-05
3.22513e-05
3.4753e-05
3.19645e-05
2.82972e-05
2.75421e-05
2.89529e-05
3.25655e-05
3.68409e-05
3.76749e-05
3.55857e-05
3.11384e-05
2.24926e-05
2.77202e-05
3.40452e-05
3.74744e-05
3.80759e-05
3.71823e-05
3.58008e-05
3.4439e-05
3.36141e-05
3.45298e-05
3.75651e-05
3.48949e-05
3.03803e-05
3.04219e-05
3.32042e-05
3.55601e-05
3.6969e-05
3.7698e-05
3.68632e-05
3.34347e-05
2.71507e-05
4.16806e-05
4.1408e-05
4.10234e-05
4.02185e-05
3.80999e-05
3.5573e-05
3.35594e-05
3.28252e-05
3.48036e-05
3.98049e-05
3.82522e-05
3.25731e-05
3.1422e-05
3.25742e-05
3.47573e-05
3.73155e-05
3.95072e-05
4.05117e-05
4.04729e-05
3.85593e-05
6.05716e-05
5.59964e-05
4.8597e-05
4.49073e-05
4.13675e-05
3.76352e-05
3.45455e-05
3.29133e-05
3.42395e-05
4.03101e-05
4.03464e-05
3.34099e-05
3.19466e-05
3.37555e-05
3.69958e-05
4.08899e-05
4.47843e-05
4.87379e-05
5.5281e-05
5.85971e-05
7.7014e-05
7.91207e-05
6.01373e-05
5.24856e-05
4.81255e-05
4.43492e-05
4.12666e-05
3.96232e-05
4.09246e-05
4.7848e-05
4.97576e-05
4.2544e-05
4.05881e-05
4.2044e-05
4.51947e-05
4.93237e-05
5.41716e-05
6.15717e-05
7.80088e-05
7.52884e-05
9.1963e-05
0.000103244
8.08648e-05
7.7752e-05
7.92691e-05
8.10483e-05
8.23272e-05
8.15561e-05
7.72298e-05
7.36021e-05
7.53787e-05
8.05636e-05
8.66623e-05
8.84101e-05
8.71495e-05
8.51864e-05
8.35412e-05
8.57474e-05
0.000104097
9.00898e-05
0.000107645
0.000127289
0.000160713
0.000191041
0.000226745
0.000258106
0.000281028
0.000282206
0.000251817
0.000211754
0.000211202
0.000252126
0.000288776
0.000294314
0.000273916
0.000240113
0.000200611
0.000166032
0.000127653
0.000105384
0.00012435
0.000148255
0.000169634
0.000190051
0.000211917
0.000233913
0.000254999
0.000273284
0.000286472
0.000292382
0.00029096
0.000284355
0.000271587
0.000254069
0.000233442
0.000211338
0.000188867
0.000167504
0.000145424
0.00012105
8.189e-06
1.16356e-05
1.32908e-05
1.40899e-05
1.44464e-05
1.45905e-05
1.47785e-05
1.50358e-05
1.60942e-05
1.84394e-05
1.75e-05
1.56162e-05
1.46304e-05
1.41162e-05
1.3651e-05
1.2883e-05
1.18061e-05
1.05054e-05
8.86861e-06
6.69703e-06
9.74682e-06
2.05144e-05
2.37086e-05
2.42172e-05
2.41921e-05
2.45521e-05
2.55085e-05
2.82047e-05
3.34259e-05
3.70639e-05
3.34675e-05
2.93089e-05
2.73258e-05
2.58531e-05
2.46608e-05
2.34175e-05
2.17575e-05
1.98324e-05
1.6386e-05
8.79835e-06
1.80687e-05
2.80605e-05
3.31363e-05
3.52739e-05
3.47631e-05
3.24547e-05
3.06691e-05
3.14669e-05
3.56197e-05
4.08869e-05
3.73367e-05
3.12564e-05
2.90181e-05
2.87262e-05
2.96617e-05
3.18717e-05
3.33864e-05
3.17668e-05
2.66034e-05
1.64941e-05
2.1623e-05
2.76107e-05
3.18894e-05
3.40677e-05
3.47226e-05
3.4439e-05
3.36922e-05
3.35999e-05
3.69664e-05
4.48933e-05
4.15546e-05
3.25698e-05
3.03498e-05
3.19758e-05
3.43018e-05
3.5048e-05
3.42677e-05
3.19679e-05
2.7663e-05
2.16233e-05
3.67095e-05
3.42318e-05
3.39991e-05
3.45578e-05
3.43565e-05
3.35594e-05
3.28057e-05
3.32452e-05
3.75765e-05
4.91253e-05
4.70223e-05
3.48621e-05
3.15725e-05
3.19194e-05
3.30821e-05
3.42e-05
3.46912e-05
3.43799e-05
3.39237e-05
3.34835e-05
5.81324e-05
4.81599e-05
4.01078e-05
3.76518e-05
3.61836e-05
3.45455e-05
3.31529e-05
3.32048e-05
3.79008e-05
5.30327e-05
5.27856e-05
3.70554e-05
3.234e-05
3.25778e-05
3.44294e-05
3.66413e-05
3.87638e-05
4.15419e-05
4.83925e-05
5.59633e-05
7.61603e-05
7.0807e-05
5.16829e-05
4.51587e-05
4.28268e-05
4.12666e-05
4.00997e-05
4.03985e-05
4.56097e-05
6.31087e-05
6.4986e-05
4.76372e-05
4.19453e-05
4.16341e-05
4.31536e-05
4.53276e-05
4.81558e-05
5.39614e-05
6.94269e-05
7.40542e-05
9.26651e-05
0.000102721
7.5541e-05
7.39017e-05
7.78994e-05
8.23272e-05
8.52099e-05
8.46321e-05
8.16898e-05
8.7513e-05
8.90829e-05
8.45507e-05
8.94031e-05
9.15396e-05
8.92757e-05
8.48837e-05
8.05231e-05
8.0956e-05
0.000103347
9.01842e-05
0.000109915
0.000129702
0.000163728
0.000200654
0.000244176
0.000281028
0.000303487
0.000296044
0.000260239
0.000239897
0.000238019
0.00025786
0.000298146
0.000311863
0.000292506
0.000254335
0.00020711
0.000166194
0.00012852
0.000106789
0.000128753
0.000155287
0.000179172
0.000202706
0.000228466
0.000254999
0.000281529
0.00030681
0.000329647
0.000348285
0.000346089
0.000326152
0.000303301
0.000278555
0.000252429
0.000225837
0.000199533
0.00017517
0.000150905
0.000124369
7.6121e-06
1.03204e-05
1.1993e-05
1.30456e-05
1.37396e-05
1.43489e-05
1.50358e-05
1.58687e-05
1.73771e-05
2.06598e-05
1.97425e-05
1.68839e-05
1.52545e-05
1.43585e-05
1.34223e-05
1.2329e-05
1.10896e-05
9.69874e-06
8.18181e-06
6.31829e-06
9.2558e-06
1.64106e-05
2.04122e-05
2.27387e-05
2.443e-05
2.60146e-05
2.82047e-05
3.23987e-05
3.91461e-05
4.50787e-05
4.00851e-05
3.41969e-05
3.05101e-05
2.72066e-05
2.50828e-05
2.33621e-05
2.14718e-05
1.89454e-05
1.52281e-05
8.51091e-06
1.07588e-05
2.28787e-05
2.80886e-05
3.0101e-05
3.03633e-05
3.04277e-05
3.14669e-05
3.48459e-05
4.21652e-05
6.00398e-05
5.52479e-05
3.71326e-05
3.19882e-05
2.98141e-05
2.88109e-05
2.83869e-05
2.80711e-05
2.65901e-05
2.19678e-05
1.08527e-05
1.68129e-05
2.28875e-05
2.81447e-05
3.15386e-05
3.32564e-05
3.36141e-05
3.35999e-05
3.57739e-05
4.60096e-05
8.17211e-05
7.66118e-05
4.08095e-05
3.22255e-05
3.11907e-05
3.23827e-05
3.32165e-05
3.21109e-05
2.88347e-05
2.37039e-05
1.73176e-05
3.48571e-05
2.9534e-05
2.9364e-05
3.10674e-05
3.23083e-05
3.28252e-05
3.32452e-05
3.58455e-05
5.0161e-05
0.000107254
0.000103583
4.59435e-05
3.32768e-05
3.18374e-05
3.20966e-05
3.20944e-05
3.13894e-05
3.00743e-05
2.92532e-05
3.03049e-05
5.61835e-05
4.26802e-05
3.43368e-05
3.27634e-05
3.28595e-05
3.29133e-05
3.32048e-05
3.62513e-05
5.49508e-05
0.000131788
0.000128166
5.21109e-05
3.48055e-05
3.23867e-05
3.27462e-05
3.35175e-05
3.42873e-05
3.61454e-05
4.29333e-05
5.35829e-05
7.4921e-05
6.34658e-05
4.54453e-05
4.00041e-05
3.93221e-05
3.96232e-05
4.03985e-05
4.43112e-05
6.62528e-05
0.000153738
0.000149959
6.57604e-05
4.55035e-05
4.20758e-05
4.18483e-05
4.22435e-05
4.33078e-05
4.75771e-05
6.16255e-05
7.22705e-05
9.2274e-05
9.92749e-05
7.02531e-05
7.04201e-05
7.60145e-05
8.15561e-05
8.46321e-05
8.54841e-05
9.83933e-05
0.000174155
0.00016934
9.76545e-05
8.87725e-05
9.01331e-05
8.80773e-05
8.26393e-05
7.64406e-05
7.50999e-05
9.91738e-05
8.90618e-05
0.00011057
0.00012916
0.000163006
0.000203551
0.000248123
0.000282206
0.000296044
0.000283558
0.000277797
0.000333602
0.00032933
0.000271187
0.000282553
0.000300653
0.000289717
0.000254253
0.000205217
0.000160133
0.000125714
0.000106377
0.000131394
0.000160095
0.000186228
0.000212526
0.000241896
0.000273284
0.00030681
0.000343022
0.000383239
0.000426358
0.000423408
0.000378347
0.000337768
0.000301867
0.000268648
0.000237123
0.000207112
0.00017997
0.000153899
0.00012578
7.37526e-06
9.91558e-06
1.17066e-05
1.30413e-05
1.41213e-05
1.50707e-05
1.60942e-05
1.73771e-05
1.88947e-05
2.2344e-05
2.13919e-05
1.79883e-05
1.61045e-05
1.46779e-05
1.33291e-05
1.20279e-05
1.07796e-05
9.49907e-06
8.03986e-06
6.16642e-06
9.32378e-06
1.58785e-05
2.02916e-05
2.35583e-05
2.64256e-05
2.95357e-05
3.34259e-05
3.91461e-05
4.58606e-05
9.8927e-05
9.43213e-05
4.07606e-05
3.51892e-05
3.0305e-05
2.69929e-05
2.45093e-05
2.20776e-05
1.90999e-05
1.50908e-05
8.3647e-06
1.09829e-05
1.83953e-05
2.35888e-05
2.73268e-05
2.98352e-05
3.22513e-05
3.56197e-05
4.21652e-05
6.61243e-05
0.000215535
0.000213556
5.93457e-05
3.74039e-05
3.23649e-05
2.95935e-05
2.76062e-05
2.54708e-05
2.26006e-05
1.81636e-05
1.03415e-05
1.45313e-05
2.03905e-05
2.64594e-05
3.04741e-05
3.29371e-05
3.45298e-05
3.69664e-05
4.60096e-05
9.626e-05
0.000336525
0.000337407
8.83223e-05
4.05041e-05
3.28981e-05
3.11805e-05
3.07199e-05
2.96879e-05
2.6788e-05
2.13315e-05
1.42293e-05
3.40565e-05
2.6531e-05
2.64095e-05
2.96217e-05
3.26401e-05
3.48036e-05
3.75765e-05
5.0161e-05
0.000131926
0.0004591
0.000463762
0.000125181
4.48341e-05
3.39598e-05
3.21768e-05
3.10085e-05
2.91865e-05
2.70736e-05
2.61698e-05
2.88176e-05
5.46579e-05
3.93996e-05
3.05979e-05
2.97075e-05
3.18003e-05
3.42395e-05
3.79008e-05
5.49508e-05
0.000167697
0.000564896
0.000569133
0.000159947
5.00989e-05
3.53366e-05
3.26964e-05
3.15154e-05
3.07949e-05
3.19538e-05
3.8964e-05
5.15841e-05
7.32271e-05
5.83627e-05
4.12996e-05
3.67122e-05
3.80425e-05
4.09246e-05
4.56097e-05
6.62528e-05
0.000198517
0.00062727
0.000627048
0.000189886
6.35372e-05
4.57688e-05
4.20667e-05
4.00671e-05
3.91673e-05
4.23231e-05
5.5916e-05
7.00947e-05
9.04936e-05
9.31164e-05
6.43282e-05
6.55149e-05
7.17017e-05
7.72298e-05
8.16898e-05
9.83933e-05
0.000225599
0.000635872
0.000628886
0.000213106
9.645e-05
8.50046e-05
8.22924e-05
7.68614e-05
6.98529e-05
6.77822e-05
9.24902e-05
8.6709e-05
0.000108942
0.000123437
0.000152342
0.000191504
0.00022892
0.000251817
0.000260239
0.000277797
0.000369583
0.000581791
0.000575773
0.000357542
0.000270732
0.000261783
0.000257126
0.000231912
0.000189143
0.000145811
0.000118543
0.000103931
0.000131452
0.000161279
0.00018875
0.000217107
0.000249704
0.000286472
0.000329647
0.000383239
0.000451771
0.000529534
0.00052617
0.000445569
0.000376115
0.000322839
0.000280064
0.000243087
0.000209702
0.000180477
0.000153539
0.00012483
7.15645e-06
9.64514e-06
1.1617e-05
1.32771e-05
1.48291e-05
1.6499e-05
1.84394e-05
2.06598e-05
2.2344e-05
2.41293e-05
2.23844e-05
1.98014e-05
1.72236e-05
1.52451e-05
1.3702e-05
1.2445e-05
1.12184e-05
9.86089e-06
8.26006e-06
6.20812e-06
9.39865e-06
1.59056e-05
2.04958e-05
2.41308e-05
2.74571e-05
3.13729e-05
3.70639e-05
4.50787e-05
9.8927e-05
9.55906e-05
9.01235e-05
8.9909e-05
4.00784e-05
3.34044e-05
2.83889e-05
2.49337e-05
2.19032e-05
1.87129e-05
1.47174e-05
8.15354e-06
1.14701e-05
1.78373e-05
2.26185e-05
2.70738e-05
3.08653e-05
3.4753e-05
4.08869e-05
6.00398e-05
0.000215535
0.000173144
0.00016417
0.000197407
5.01742e-05
3.51152e-05
3.03373e-05
2.72499e-05
2.41395e-05
2.08374e-05
1.68075e-05
1.0151e-05
1.58159e-05
2.0441e-05
2.5003e-05
2.97493e-05
3.38386e-05
3.75651e-05
4.48933e-05
8.17211e-05
0.000336525
0.000262299
0.000250309
0.000317351
6.8158e-05
3.7223e-05
3.13643e-05
2.87962e-05
2.63523e-05
2.38496e-05
2.00889e-05
1.20655e-05
3.37415e-05
2.4676e-05
2.53418e-05
3.00211e-05
3.51887e-05
3.98049e-05
4.91253e-05
0.000107254
0.0004591
0.000362244
0.000348563
0.000447883
9.35697e-05
4.08844e-05
3.33441e-05
3.04775e-05
2.75335e-05
2.48717e-05
2.45909e-05
2.90567e-05
5.36595e-05
3.82016e-05
2.88622e-05
2.88148e-05
3.39881e-05
4.03101e-05
5.30327e-05
0.000131788
0.000564896
0.000466119
0.000452426
0.000562142
0.000118258
4.59677e-05
3.55245e-05
3.11187e-05
2.82816e-05
2.89917e-05
3.66751e-05
5.03322e-05
7.11357e-05
5.58604e-05
3.93126e-05
3.56406e-05
4.02242e-05
4.7848e-05
6.31087e-05
0.000153738
0.00062727
0.00055873
0.000546794
0.000630017
0.00014217
5.8975e-05
4.59276e-05
3.967e-05
3.60079e-05
3.84673e-05
5.22365e-05
6.81034e-05
8.73021e-05
8.5691e-05
5.85767e-05
5.94731e-05
6.63572e-05
7.36021e-05
8.7513e-05
0.000174155
0.000635872
0.000614401
0.000605835
0.000633382
0.000161338
8.60534e-05
7.62871e-05
6.96044e-05
6.18863e-05
6.06103e-05
8.61761e-05
8.38249e-05
0.000104615
0.000112296
0.000133467
0.00016734
0.000194884
0.000211754
0.000239897
0.000333602
0.000581791
0.000639256
0.000633259
0.000575493
0.000318817
0.000233741
0.000215056
0.000197131
0.000163663
0.00012686
0.00010863
9.99438e-05
0.000127816
0.000157553
0.000184874
0.000214394
0.000249711
0.000292382
0.000348285
0.000426358
0.000529534
0.000582829
0.000579101
0.000523355
0.000417144
0.000339371
0.000284524
0.000241924
0.000205831
0.000175567
0.00014925
0.000121144
6.83371e-06
9.21429e-06
1.11351e-05
1.2716e-05
1.4159e-05
1.56652e-05
1.75e-05
1.97425e-05
2.13919e-05
2.23844e-05
2.02201e-05
1.84271e-05
1.6252e-05
1.47323e-05
1.35134e-05
1.24705e-05
1.14109e-05
1.01884e-05
8.64757e-06
6.53242e-06
9.23459e-06
1.56297e-05
1.99847e-05
2.31145e-05
2.5829e-05
2.88849e-05
3.34675e-05
4.00851e-05
9.43213e-05
9.01235e-05
8.10689e-05
8.22298e-05
3.51325e-05
2.99766e-05
2.59637e-05
2.31867e-05
2.06669e-05
1.79251e-05
1.42792e-05
7.94996e-06
1.177e-05
1.69226e-05
2.13735e-05
2.52926e-05
2.8572e-05
3.19645e-05
3.73367e-05
5.52479e-05
0.000213556
0.00016417
0.000146513
0.00019309
4.60278e-05
3.24616e-05
2.82713e-05
2.53882e-05
2.24233e-05
1.93298e-05
1.57578e-05
9.87172e-06
1.79344e-05
1.94767e-05
2.33444e-05
2.75315e-05
3.13312e-05
3.48949e-05
4.15546e-05
7.66117e-05
0.000337407
0.000250309
0.000221984
0.000319288
6.45516e-05
3.54753e-05
2.99868e-05
2.70945e-05
2.4123e-05
2.14361e-05
1.85991e-05
1.27349e-05
3.54968e-05
2.4692e-05
2.44752e-05
2.85111e-05
3.35431e-05
3.82522e-05
4.70223e-05
0.000103583
0.000463761
0.000348563
0.000308384
0.000455191
9.06465e-05
4.1165e-05
3.36325e-05
3.01581e-05
2.6444e-05
2.34745e-05
2.39769e-05
3.08842e-05
5.52111e-05
3.88854e-05
2.83463e-05
2.80382e-05
3.34886e-05
4.03464e-05
5.27856e-05
0.000128166
0.000569133
0.000452426
0.000401602
0.000571841
0.000116252
4.90162e-05
3.80149e-05
3.18519e-05
2.72914e-05
2.78728e-05
3.65863e-05
5.17987e-05
7.23147e-05
5.69486e-05
3.93549e-05
3.54157e-05
4.08422e-05
4.97576e-05
6.4986e-05
0.000149959
0.000627048
0.000546794
0.00048908
0.000634884
0.000137926
6.20908e-05
4.85496e-05
4.01996e-05
3.48223e-05
3.73412e-05
5.20627e-05
6.92602e-05
8.82247e-05
8.56819e-05
5.8287e-05
5.96102e-05
6.72573e-05
7.53787e-05
8.90829e-05
0.00016934
0.000628886
0.000605835
0.000547428
0.000625086
0.000153062
8.70496e-05
7.7414e-05
6.94981e-05
6.08964e-05
5.93822e-05
8.67686e-05
8.47925e-05
0.000105563
0.000113733
0.000135999
0.000168424
0.000194943
0.000211202
0.000238019
0.00032933
0.000575773
0.000633259
0.000579975
0.000564577
0.000310291
0.000229985
0.000214012
0.000196374
0.000164037
0.000128345
0.000109844
0.000100827
0.00012872
0.000158441
0.000185537
0.000214407
0.00024901
0.00029096
0.000346089
0.000423408
0.00052617
0.000579101
0.000541927
0.00050478
0.000404013
0.000329954
0.000277972
0.000237511
0.00020318
0.000174325
0.000148984
0.000121649
6.55739e-06
8.86589e-06
1.06546e-05
1.21015e-05
1.33347e-05
1.44715e-05
1.56162e-05
1.68839e-05
1.79883e-05
1.98014e-05
1.84271e-05
1.61885e-05
1.52623e-05
1.43539e-05
1.3541e-05
1.27874e-05
1.19454e-05
1.08485e-05
9.30819e-06
7.00101e-06
8.9299e-06
1.53322e-05
1.90867e-05
2.16603e-05
2.38e-05
2.61028e-05
2.93089e-05
3.41969e-05
4.07605e-05
8.9909e-05
8.22298e-05
3.33363e-05
2.8823e-05
2.56413e-05
2.35391e-05
2.17837e-05
1.9935e-05
1.76788e-05
1.42883e-05
7.95571e-06
1.22415e-05
1.6922e-05
2.10386e-05
2.39457e-05
2.61633e-05
2.82972e-05
3.12564e-05
3.71326e-05
5.93457e-05
0.000197407
0.00019309
4.92722e-05
3.14077e-05
2.73943e-05
2.50901e-05
2.33134e-05
2.151e-05
1.90654e-05
1.54401e-05
1.0097e-05
2.02433e-05
2.06815e-05
2.40712e-05
2.68984e-05
2.89015e-05
3.03803e-05
3.25698e-05
4.08095e-05
8.83223e-05
0.000317351
0.000319288
7.66932e-05
3.56374e-05
2.9146e-05
2.72348e-05
2.62444e-05
2.5029e-05
2.27789e-05
1.86437e-05
1.49095e-05
3.77345e-05
2.69877e-05
2.56411e-05
2.79892e-05
3.05793e-05
3.25731e-05
3.48621e-05
4.59435e-05
0.000125181
0.000447882
0.000455191
0.000113256
4.22055e-05
3.31375e-05
3.14008e-05
2.99202e-05
2.74534e-05
2.46193e-05
2.50495e-05
3.36307e-05
5.75408e-05
4.12677e-05
3.01899e-05
2.84167e-05
3.05249e-05
3.34099e-05
3.70554e-05
5.21109e-05
0.000159947
0.000562142
0.000571841
0.000148598
4.96969e-05
3.7057e-05
3.36058e-05
3.05601e-05
2.79142e-05
2.89068e-05
3.83583e-05
5.45683e-05
7.50353e-05
6.1375e-05
4.17367e-05
3.65031e-05
3.85376e-05
4.2544e-05
4.76372e-05
6.57604e-05
0.000189886
0.000630016
0.000634884
0.000177753
6.33279e-05
4.76164e-05
4.25966e-05
3.83185e-05
3.56153e-05
3.94733e-05
5.67029e-05
7.22874e-05
9.16138e-05
9.22399e-05
6.41992e-05
6.69958e-05
7.4417e-05
8.05636e-05
8.45507e-05
9.76545e-05
0.000213106
0.000633381
0.000625085
0.000195588
9.40445e-05
8.48329e-05
8.05506e-05
7.35306e-05
6.56325e-05
6.37499e-05
9.30855e-05
8.83637e-05
0.000109988
0.000125764
0.000160129
0.000197749
0.000232567
0.000252126
0.00025786
0.000271187
0.000357542
0.000575493
0.000564577
0.000335174
0.000261781
0.000261247
0.000251427
0.000223969
0.000184654
0.000146209
0.000120348
0.000105159
0.000132247
0.000162344
0.000189805
0.000217433
0.000248924
0.000284355
0.000326152
0.000378347
0.000445569
0.000523355
0.00050478
0.000426491
0.000361451
0.000311744
0.000271241
0.000236253
0.000205029
0.000177915
0.000152504
0.000124952
6.91563e-06
9.30226e-06
1.11076e-05
1.2442e-05
1.34158e-05
1.41109e-05
1.46304e-05
1.52545e-05
1.61045e-05
1.72236e-05
1.6252e-05
1.52623e-05
1.4918e-05
1.45391e-05
1.4088e-05
1.36018e-05
1.29114e-05
1.18384e-05
1.01856e-05
7.55433e-06
9.513e-06
1.53314e-05
1.88966e-05
2.13386e-05
2.3279e-05
2.51365e-05
2.73258e-05
3.05101e-05
3.51892e-05
4.00784e-05
3.51325e-05
2.8823e-05
2.55695e-05
2.37742e-05
2.27146e-05
2.15578e-05
2.0108e-05
1.81e-05
1.48457e-05
8.39329e-06
1.38465e-05
1.93296e-05
2.32589e-05
2.54104e-05
2.65883e-05
2.75421e-05
2.90181e-05
3.19882e-05
3.74039e-05
5.01742e-05
4.60278e-05
3.14077e-05
2.74224e-05
2.54036e-05
2.43457e-05
2.36581e-05
2.27999e-05
2.09552e-05
1.70009e-05
1.05716e-05
2.29388e-05
2.39727e-05
2.72051e-05
2.94985e-05
3.04402e-05
3.04219e-05
3.03498e-05
3.22255e-05
4.05041e-05