/*--------------------------------*- C++ -*----------------------------------*\
  =========                 |
  \\      /  F ield         | OpenFOAM: The Open Source CFD Toolbox
   \\    /   O peration     | Website:  https://openfoam.org
    \\  /    A nd           | Version:  9
     \\/     M anipulation  |
\*---------------------------------------------------------------------------*/
FoamFile
{
    format      ascii;
    class       surfaceScalarField;
    location    "900";
    object      phi;
}
// * * * * * * * * * * * * * * * * * * * * * * * * * * * * * * * * * * * * * //

dimensions      [1 0 -1 0 0 0 0];

internalField   nonuniform List<scalar> 
11200
(
0.00257574
-0.00515143
0.00257574
0.00258367
-0.00180368
0.00179578
0.000293806
0.00157526
0.000714666
-0.00191805
0.00220973
1.96676e-06
-0.00263302
0.000729463
-1.44726e-05
-0.00262477
-0.000115807
0.000107582
-0.00210661
-0.00072399
0.000205859
-0.00167668
-0.000700091
0.000270226
-0.00113105
-0.000859207
0.00031366
-0.000499942
-0.00095598
0.000324979
0.000167455
-0.000985671
0.000318379
0.00079375
-0.00101194
0.000385748
0.0012655
-0.000899495
0.000427834
0.0016438
-0.000728422
0.000350189
0.00230959
-0.000975177
0.000309449
0.00197321
0.000184011
0.000152396
0.00117158
0.000669641
0.000132014
-7.52849e-05
0.000829035
0.000417783
-0.00100024
-0.000127077
0.00105205
-0.00261631
0.00161616
0.00198571
-0.00912281
0.00198571
0.00332557
-0.00503357
0.00189006
0.00391866
-0.000629917
0.00161199
0.00317892
0.00162715
0.00132218
0.000985079
0.0019649
0.00095833
-0.00120572
0.00148667
0.000588307
-0.00215848
0.000230631
-1.84998e-06
-0.00191106
-0.000783649
-0.000163825
-0.0014527
-0.00102901
-0.000288501
-0.000790395
-0.00127579
-0.000342402
2.77106e-05
-0.00149779
-0.000305873
0.000825599
-0.00171069
-9.89942e-05
0.0014003
-0.00158066
0.000106592
0.00139161
-0.000886947
0.000167299
-4.04922e-05
0.000144487
0.000312486
-0.00234125
0.00160776
0.000877058
-0.00405914
0.000968029
0.00141947
-0.00402036
-0.00129792
0.00208812
-0.00237961
-0.00431059
0.00254279
-0.00758324
0.00258734
0.00124141
-0.0116056
0.00124141
0.00233355
-0.00766301
0.00153733
0.00351834
-0.00344844
0.00163374
0.00383504
-0.000198523
0.0015089
0.00299737
0.00156142
0.00124108
0.00173317
0.00181185
0.00093898
5.90512e-05
0.0012768
0.00062793
-0.000801929
8.1085e-05
-3.73981e-06
-0.000657594
-0.000688753
-0.000484551
-0.000224772
-0.00113864
-0.000569912
0.000131664
-0.00142277
-0.000431376
8.59984e-05
-0.00157016
-9.47694e-05
-0.000602405
-0.00118695
0.000294777
-0.00197412
-0.00018822
0.000673059
-0.00366027
0.000753022
0.00107764
-0.00412635
0.000642952
0.00143087
-0.00388907
-0.000981765
0.00171251
-0.00300014
-0.00415925
0.00197241
-0.00161229
-0.00774345
0.00204503
-0.0109287
0.00173319
0.000665534
-0.0129366
0.000665534
0.000937881
-0.00921838
0.00128305
0.00132223
-0.00538472
0.00155196
0.00190088
-0.00246843
0.00169127
0.00220529
-0.000377878
0.00163484
0.0019889
0.000611013
0.00141719
0.00148474
0.000672203
0.00110873
0.000662774
0.000240333
0.000662724
0.000185076
-0.000368232
0.000157207
0.000120193
-0.000899548
-0.00017415
-6.02257e-06
-0.00132796
3.14824e-05
-0.000557382
-0.00145373
0.000435008
-0.00142827
-0.00123834
0.000922348
-0.00220444
-0.000828995
0.00141699
-0.00244442
-0.000715809
0.00170883
-0.00223266
-0.00144812
0.00187931
-0.00174242
-0.00334636
0.00187438
-0.00139501
-0.0062197
0.00171305
-0.000935408
-0.00968361
0.00148057
-0.0127388
0.000874687
0.00021223
-0.0133611
0.00021223
-0.000158679
-0.0099771
0.00112964
-0.000439407
-0.00668395
0.00157998
-0.000475762
-0.00430052
0.00186846
-0.000219048
-0.00266705
0.00203246
0.000128007
-0.0016934
0.00195734
0.000345291
-0.00127393
0.00172882
0.000421146
-0.00126825
0.00143272
0.000379683
-0.00148412
0.00115737
0.000394195
-0.00188019
0.000966161
0.0004194
-0.00235897
0.00100585
0.000292763
-0.00255955
0.00123251
0.000140587
-0.00260377
0.00151765
0.000101094
-0.00263452
0.00184504
0.000170727
-0.00289358
0.00210816
0.000247429
-0.00368034
0.00215553
0.000176855
-0.00520223
0.00192646
-0.000156538
-0.00749541
0.00160912
-0.000449903
-0.0105344
0.00114414
-0.0134253
0.000236604
-0.000153436
-0.0130542
-0.000153435
-0.000935652
-0.0101871
0.000992255
-0.0015193
-0.00758257
0.00148228
-0.00176349
-0.00581025
0.00175393
-0.00166615
-0.00465735
0.00189297
-0.00130827
-0.00395824
0.00190697
-0.000799116
-0.00357474
0.00179166
-0.000287213
-0.00341818
0.00163804
0.000140417
-0.00343734
0.00152559
0.000443491
-0.00366575
0.0014825
0.000685135
-0.00406066
0.00146006
0.000948535
-0.00430717
0.00148423
0.00123963
-0.00446734
0.00157249
0.00152432
-0.00464711
0.00172792
0.00171551
-0.00496122
0.00187645
0.00171006
-0.00556373
0.00188885
0.00138369
-0.0066216
0.00174575
0.000731735
-0.00828658
0.00144314
1.35662e-06
-0.010714
0.000910049
-0.013209
-0.000214905
-0.000473143
-0.0121079
-0.000473142
-0.00156799
-0.00984879
0.000756533
-0.00237059
-0.00794965
0.00116969
-0.00272869
-0.00680406
0.0013519
-0.00264459
-0.00612794
0.00138649
-0.00222138
-0.00575609
0.00137465
-0.00158486
-0.0055438
0.00133253
-0.000848574
-0.00543031
0.00127584
-0.000155751
-0.00539467
0.00126451
0.000364872
-0.00549494
0.00130857
0.000829955
-0.00576785
0.00124211
0.00137715
-0.0059972
0.00114284
0.00195954
-0.00615624
0.00110651
0.00246419
-0.00630862
0.00115687
0.00276947
-0.006516
0.0012495
0.00275426
-0.00686495
0.00131645
0.00231399
-0.00746799
0.00128667
0.00145068
-0.00851761
0.00109434
0.000369782
-0.0102701
0.000636938
-0.0122785
-0.000560737
-0.00093848
-0.0102309
-0.00093848
-0.00232283
-0.00854417
7.97299e-05
-0.00330396
-0.00737794
0.000409417
-0.0037303
-0.00679341
0.000415675
-0.00362983
-0.00649568
0.000267255
-0.00311356
-0.006367
9.46162e-05
-0.00231053
-0.00630989
-3.69571e-05
-0.00135386
-0.0062626
-0.00012439
-0.000420141
-0.00620697
-0.000121442
0.000259566
-0.00619812
2.34583e-05
0.00091771
-0.00636728
-5.87233e-05
0.00174093
-0.0065889
-0.000231531
0.00259176
-0.00672852
-0.000278554
0.00330982
-0.00680844
-0.000218254
0.00375985
-0.00687125
-9.47934e-05
0.0038044
-0.00698777
7.8269e-05
0.00331332
-0.00724326
0.000266338
0.00227827
-0.00776441
0.000281854
0.000892548
-0.00882848
-5.58504e-05
-0.0103717
-0.00101422
-0.00178072
-0.00666946
-0.00178072
-0.00349595
-0.0057165
-0.00111245
-0.0045528
-0.00525781
-0.0010633
-0.00495129
-0.00517917
-0.00121577
-0.00477584
-0.00524032
-0.00143084
-0.0041474
-0.00537181
-0.00162365
-0.0031707
-0.0055079
-0.00177873
-0.00196835
-0.00559331
-0.00187167
-0.000747403
-0.00559369
-0.00183426
0.000156775
-0.00553543
-0.00156689
0.00107965
-0.00562294
-0.00166724
0.00223544
-0.00577166
-0.00197305
0.00338057
-0.00580059
-0.00207309
0.00431479
-0.00573008
-0.0020126
0.00490809
-0.0056078
-0.00185678
0.00503841
-0.00548429
-0.00163382
0.00459816
-0.00541298
-0.00139005
0.00350748
-0.00546286
-0.00121088
0.00177861
-0.00586996
-0.00122966
-0.00674657
-0.0018465
-0.00333473
-0.00333473
-0.00546627
-0.00358498
-0.0065133
-0.00421082
-0.00682952
-0.00486298
-0.00655262
-0.00551726
-0.00578141
-0.00614306
-0.00458778
-0.00670158
-0.00304974
-0.00713139
-0.00133973
-0.00730374
8.68489e-05
-0.00696205
0.0015665
-0.00710263
0.00326197
-0.00746717
0.00476491
-0.00730357
0.00592883
-0.00689402
0.00667393
-0.00635293
0.00692518
-0.00573556
0.00658287
-0.0050707
0.00551055
-0.00439056
0.00335602
-0.00371544
-0.00339055
0.00179578
-0.00180368
0.00258367
0.00166417
0.000263258
0.00166417
-4.71729e-05
0.00219199
0.00023407
-0.00153197
0.0017821
-0.000295453
-0.00205995
0.000649021
-0.000135507
-0.00211334
3.53544e-05
0.000125616
-0.00173056
-0.000576223
0.000399319
-0.00144978
-0.000593374
0.000582869
-0.00103435
-0.000782221
0.000680543
-0.000512565
-0.00090893
0.00071222
5.80636e-05
-0.000981005
0.00072886
0.000599252
-0.000992133
0.000836797
0.00104417
-0.000894545
0.000877552
0.00139003
-0.000731622
0.000736015
0.00196786
-0.000856178
0.000587855
0.00179119
6.64876e-05
0.000262575
0.00118598
0.000610733
0.000126511
0.000435109
0.000852804
0.000315828
-0.000191091
0.000965862
0.000712404
0.000368602
0.00105652
0.00189006
-0.00503357
0.00332557
0.00325779
-0.0024722
0.00325779
0.00392224
0.000194395
0.00294501
0.00315996
0.00163107
0.00223534
0.00145878
0.00187304
0.00143541
-0.000283765
0.00154887
0.000817312
-0.001348
0.000314049
0.000172123
-0.0014883
-0.000559675
-5.71984e-05
-0.00123584
-0.0011701
-0.000153011
-0.00075331
-0.00155
-0.000183765
-0.00012962
-0.00182099
-8.94574e-05
0.000534015
-0.00190125
0.000146624
0.00101795
-0.0016137
0.000341927
0.000958208
-0.000887078
0.00038257
-0.000305051
0.000174152
0.000545466
-0.00208025
0.00150653
0.00121226
-0.00352004
0.00141283
0.00205714
-0.00359594
-0.000131943
0.0031487
-0.00220752
-0.00181111
0.00393125
-0.00336541
0.0041138
0.00153733
-0.00766301
0.00233355
0.00301445
-0.00542643
0.00301445
0.00413303
-0.00241833
0.0031279
0.00430258
0.000225822
0.00274454
0.00348792
0.00179945
0.00212928
0.00236468
0.00201932
0.00159173
0.000909464
0.00140251
0.000994662
-0.00010171
0.000249592
0.000198175
-0.000419415
-0.000915188
-0.000421715
-0.000312063
-0.00163945
-0.00058775
-0.000198799
-0.00195267
-0.00041288
-0.000351651
-0.00184667
3.59284e-06
-0.000978542
-0.00116222
0.000470272
-0.00223564
6.91496e-05
0.000973989
-0.00377182
0.00110094
0.00168704
-0.00442491
0.00119454
0.00239594
-0.00423115
-7.99675e-05
0.00301153
-0.00337413
-0.00254038
0.00352383
-0.00182055
-0.00506347
0.00374383
-0.00680118
0.00334843
0.00128305
-0.00921838
0.000937881
0.0021515
-0.00716329
0.0021515
0.00278065
-0.00418526
0.00268976
0.00321505
-0.00124417
0.00272686
0.00321991
0.00096637
0.00246304
0.00275014
0.00181894
0.0020873
0.00207552
0.00159616
0.00158967
0.00121811
0.000843946
0.000925786
0.000423217
-5.31251e-05
9.00573e-05
-2.88491e-05
-0.000925374
-0.000436112
-0.000486704
-0.00127182
-0.000191442
-0.00132431
-0.00102139
0.000447404
-0.00240747
-0.000336703
0.00118005
-0.00330688
0.00046497
0.00192062
-0.00371964
0.000801065
0.00242148
-0.00364413
0.000158668
0.00283967
-0.00312458
-0.00181674
0.00309161
-0.00243831
-0.00456356
0.00304998
-0.00143574
-0.00715959
0.00257415
-0.00885119
0.00148897
0.00112964
-0.0099771
-0.000158679
0.00150831
-0.00792059
0.00150831
0.0015243
-0.00501072
0.00238946
0.00155176
-0.00213042
0.00272727
0.00167598
8.69694e-05
0.00278764
0.00163458
0.00126857
0.00254909
0.00140339
0.00141674
0.00213942
0.00104095
0.00103849
0.00160062
0.000660496
0.000471707
0.00101302
0.000326901
-0.000110714
0.000485137
-6.96955e-05
-0.000455044
0.000585727
-0.000699934
-0.000333165
0.00117457
-0.00134673
-9.40621e-06
0.0018372
-0.00177018
0.000311495
0.00242199
-0.00190792
0.000195317
0.00285167
-0.00187137
-0.000789362
0.00306702
-0.00186168
-0.00283788
0.00293792
-0.00177918
-0.00555939
0.00252248
-0.00127171
-0.00812677
0.00160386
-0.00987396
-1.23246e-05
0.000992255
-0.0101871
-0.000935652
0.00102203
-0.00798014
0.00102203
0.000655131
-0.00525606
0.00209454
0.000350527
-0.00264617
0.00257429
0.000344815
-0.000773932
0.0027596
0.000492836
0.000349595
0.00267793
0.000536187
0.000781147
0.00238391
0.000495283
0.000713512
0.00200393
0.000439083
0.000399701
0.00165382
0.000447711
-3.30898e-05
0.00139628
0.000327238
-0.000263861
0.00138938
9.87559e-05
-0.000289276
0.00166885
-0.000148151
-0.0002259
0.00203591
-0.000313256
-0.000242916
0.00244745
-0.000437055
-0.000578712
0.0027743
-0.000634284
-0.00155286
0.00284959
-0.000975011
-0.00335951
0.00260812
-0.00128763
-0.00584794
0.00204432
-0.00113874
-0.00827018
0.000904586
-0.0102101
-0.00101751
0.000756533
-0.00984879
-0.00156799
0.000483557
-0.00743418
0.000483558
-0.00012217
-0.00508835
0.00160771
-0.000455325
-0.00309122
0.00213011
-0.000536303
-0.00165158
0.00234512
-0.000362564
-0.000758967
0.00230948
-8.95195e-05
-0.00032271
0.00216335
0.00016471
-0.000236286
0.00197142
0.000338563
-0.00032803
0.0018184
0.000379378
-0.000484751
0.00171943
0.000392151
-0.000731075
0.00169657
0.000423463
-0.000934777
0.00175705
0.000482146
-0.00103467
0.00185661
0.000533021
-0.0011819
0.00204499
0.000494756
-0.00153944
0.0022485
0.000269376
-0.00232075
0.00230972
-0.000126399
-0.00369238
0.00201531
-0.000711634
-0.00560262
0.00143427
-0.000885139
-0.00773424
0.000274512
-0.00993164
-0.00172433
7.97297e-05
-0.00854417
-0.00232283
-0.000417479
-0.00643977
-0.000417478
-0.00112482
-0.00458319
0.000611584
-0.00145825
-0.00333993
0.000997814
-0.00146017
-0.00247484
0.00109243
-0.00123622
-0.00194812
0.00105981
-0.000820634
-0.00168398
0.000908726
-0.000347737
-0.00158003
0.000746458
6.61971e-05
-0.00154015
0.000676746
0.000335953
-0.00148039
0.000749345
0.000519299
-0.00163121
0.00065807
0.000802992
-0.0019153
0.000465302
0.00113284
-0.00208502
0.000441952
0.00140676
-0.00224925
0.000575164
0.00150055
-0.00250243
0.000774415
0.0013936
-0.00296169
0.000826154
0.000988658
-0.0037704
0.000749298
0.000235907
-0.00494346
0.000375437
-0.000203188
-0.0066558
-0.0006952
-0.00866024
-0.00248881
-0.00111245
-0.0057165
-0.00349595
-0.00223196
-0.00420077
-0.00223196
-0.00300559
-0.00324124
-0.00163163
-0.00329618
-0.00275613
-0.00150901
-0.00310951
-0.00248743
-0.00160494
-0.0026124
-0.00236978
-0.00169912
-0.00191952
-0.00231735
-0.00183826
-0.00112777
-0.00225674
-0.00198672
-0.000360007
-0.00214625
-0.00199595
0.000237808
-0.00190891
-0.0017362
0.000782177
-0.00196714
-0.00187569
0.00142957
-0.00227118
-0.00226457
0.00213973
-0.00240546
-0.00246283
0.00276909
-0.0024805
-0.00241071
0.00320947
-0.00255324
-0.00224637
0.00331682
-0.00268258
-0.00202028
0.00296888
-0.00294132
-0.0018712
0.00216723
-0.00340002
-0.00195268
0.00108086
-0.00431291
-0.00248619
-0.00578412
-0.00364178
-0.00358498
-0.00546627
-0.00568538
-0.00568538
-0.00670881
-0.00642867
-0.00701273
-0.00731523
-0.00676068
-0.00825679
-0.00605772
-0.00921585
-0.00496705
-0.0101097
-0.0035331
-0.0108221
-0.00181936
-0.0111638
0.000122945
-0.0108133
0.00205759
-0.0110045
0.00373556
-0.0114164
0.0051219
-0.0110954
0.00616595
-0.0104186
0.00682443
-0.00956469
0.00703915
-0.0086329
0.00670609
-0.00767899
0.00566708
-0.0067516
0.0035734
-0.00593469
-0.0056013
0.000714667
0.00157526
0.000293806
0.00023407
0.00219199
-4.71733e-05
-0.00074661
0.00196126
-0.000746611
-0.00137904
0.00104872
-0.000711777
-0.00161602
0.000433742
-0.000332265
-0.00159456
-2.22844e-05
0.000126418
-0.00133963
-0.000444051
0.000588435
-0.00118775
-0.000481936
0.000912968
-0.000894684
-0.00071647
0.00110402
-0.000486727
-0.000884633
0.00118899
-3.68677e-05
-0.000975118
0.00125422
0.000410321
-0.00096993
0.00135964
0.000799476
-0.000861506
0.00134999
0.00108644
-0.000693351
0.00114246
0.00153305
-0.000761511
0.000902801
0.00159204
-0.000219244
0.000422835
0.00121919
0.000452375
4.69899e-05
0.000786008
0.000797408
-4.84142e-05
0.000343446
0.00118291
-2.79544e-05
0.00155611
-0.000156127
0.00161199
-0.000629918
0.00391866
0.00294501
0.000194395
0.00392224
0.00331811
0.00121492
0.00331811
0.00256265
0.00168499
0.00235442
0.00120833
0.00181101
0.00141238
-0.00013374
0.00135296
0.000784133
-0.00097004
0.000282616
0.000281762
-0.0011522
-0.00051762
0.000160663
-0.00104494
-0.00115072
0.000174045
-0.000691197
-0.0016338
0.000211763
-0.000179015
-0.00191722
0.000340584
0.000378704
-0.00191567
0.000534774
0.00081282
-0.00157387
0.000620277
0.000883406
-0.000928087
0.000546787
3.30516e-05
5.3546e-05
0.000580801
-0.001293
0.00118258
0.00113655
-0.00240329
0.00169146
0.00192833
-0.00264115
0.00116699
0.00301691
-0.0017181
0.000255394
0.00393562
-0.000269777
0.00422149
0.00163374
-0.00344844
0.00351834
0.0031279
-0.00241833
0.00413303
0.00410604
-0.000741409
0.00410604
0.0041365
0.000934068
0.00346494
0.00344985
0.00195806
0.00266883
0.00240115
0.00202046
0.00197288
0.00110756
0.00137074
0.00120011
0.000185623
0.000188707
0.000413794
-0.000240677
-0.00104101
-0.00010508
-0.000312711
-0.00187218
-0.000277272
-0.000296788
-0.00223687
-0.000109078
-0.000435061
-0.00203216
0.000258437
-0.000912493
-0.00125827
0.000632174
-0.00196949
2.30503e-05
0.0010799
-0.00328928
0.00118074
0.00187967
-0.00401918
0.00147499
0.0028334
-0.00392702
0.000932073
0.00367873
-0.00307409
-0.000541541
0.00437942
-0.00169238
-0.001996
0.00461351
-0.00287483
0.0042611
0.00155196
-0.00538472
0.00132223
0.00268976
-0.00418526
0.00278065
0.00352503
-0.00241193
0.00352503
0.00392957
-0.000266787
0.00352318
0.00378108
0.00145722
0.00311234
0.00319174
0.00211919
0.00257788
0.00241628
0.00177855
0.0019573
0.00147287
0.000829854
0.00122805
0.000577466
-0.000389175
0.000333649
-4.55128e-05
-0.00144659
-0.000238683
-0.000620694
-0.00179257
-6.05013e-05
-0.00149814
-0.00132722
0.000619961
-0.0026114
-0.000350085
0.00138518
-0.00358924
0.00071608
0.00220548
-0.00411499
0.00126111
0.00286687
-0.00421758
0.000923465
0.00349379
-0.00370641
-0.000467008
0.00397953
-0.00280342
-0.00242063
0.00402609
-0.00161784
-0.00400477
0.00339735
-0.00509625
0.00209257
0.00157998
-0.00668395
-0.000439406
0.00238946
-0.00501072
0.0015243
0.00276332
-0.00315964
0.00276332
0.00294814
-0.000990535
0.00326622
0.00295947
0.000956401
0.00327714
0.00268629
0.00197175
0.00296971
0.00218615
0.0019369
0.0024812
0.00154735
0.001237
0.00183228
0.00084099
0.00029687
0.00103336
0.000198094
-0.000575665
0.000257148
-0.000493412
-0.000868318
0.000353028
-0.00140696
-0.000421676
0.00118263
-0.00230524
0.000316855
0.00206858
-0.00294218
0.000987371
0.00278767
-0.00328788
0.00114531
0.00331319
-0.00328394
0.000348157
0.0036384
-0.0030355
-0.00137888
0.00360137
-0.00258067
-0.0033713
0.00301834
-0.00170427
-0.00500388
0.00172657
-0.00658457
-0.000228269
0.00148228
-0.00758257
-0.0015193
0.00209454
-0.00525606
0.000655131
0.00215321
-0.00327696
0.00215321
0.00199783
-0.0011448
0.00288396
0.00191383
0.000624158
0.00317585
0.0017827
0.0017071
0.00307372
0.00151393
0.00186626
0.00272331
0.00111369
0.001428
0.00221318
0.000675532
0.000764712
0.00162416
0.000309349
0.000127698
0.00105913
-0.000128172
-0.00010555
0.00106416
-0.000717492
0.000161852
0.00167468
-0.00133959
0.000668669
0.00230623
-0.00183393
0.00106433
0.00286485
-0.00216455
0.000989573
0.00326066
-0.00232816
2.24359e-06
0.00335913
-0.00247392
-0.00159059
0.0029656
-0.00234328
-0.00357083
0.00211322
-0.0016348
-0.00532335
0.000515587
-0.00759877
-0.0016381
0.00116969
-0.00794965
-0.00237059
0.00160771
-0.00508835
-0.00012217
0.00151172
-0.00308497
0.00151172
0.0012339
-0.00111264
0.00237578
0.00103048
0.000435391
0.00273732
0.000987829
0.0013077
0.00275154
0.000954091
0.00151742
0.00254594
0.000845784
0.00128527
0.00222248
0.000646275
0.000909943
0.0018727
0.000352017
0.000595053
0.00154636
-1.95636e-05
0.000469929
0.00149271
-0.000441407
0.000558889
0.00178188
-0.000781609
0.000761851
0.00210366
-0.00103484
0.000912329
0.00245025
-0.00125317
0.000755648
0.00270077
-0.00159035
-1.82711e-05
0.00266743
-0.00183339
-0.00156948
0.00223727
-0.00185287
-0.00338469
0.0012676
-0.00129767
-0.00520963
-0.000394403
-0.00802816
-0.00259261
0.000409417
-0.00737794
-0.00330396
0.000611584
-0.00458319
-0.00112482
0.000349756
-0.00256131
0.000349756
0.000176242
-0.00110438
0.00116307
0.000223662
-0.000132212
0.00161262
0.000333855
0.000572055
0.00168527
0.000454413
0.000761051
0.00154455
0.00051007
0.000642349
0.00133373
0.000466579
0.000461834
0.00116836
0.000205936
0.000509479
0.00109557
-0.000100256
0.000412069
0.00102213
-0.000218447
0.00016278
0.000979611
-0.000298015
0.000239541
0.00104384
-0.000331982
0.000286753
0.00123472
-0.000286479
6.80264e-05
0.00141654
-0.000335171
-0.000422099
0.00127868
-0.000589228
-0.00139663
0.000830509
-0.000766479
-0.00277914
-5.28563e-05
-0.00048741
-0.00471548
-0.00146842
-0.0074697
-0.00353469
-0.0010633
-0.00525781
-0.0045528
-0.00163163
-0.00324124
-0.00300559
-0.00191934
-0.00198592
-0.00191934
-0.00189679
-0.00125885
-0.00137709
-0.00154782
-0.000753754
-0.00133238
-0.000925249
-0.000396064
-0.00135359
-0.000340735
-0.000179331
-0.0014824
8.1604e-05
-7.53455e-05
-0.00169137
0.000267345
8.73068e-05
-0.00180716
0.000273674
0.000428827
-0.00166188
0.000223184
0.000402943
-0.00181607
0.000327433
-4.41795e-06
-0.00220162
0.000657905
-0.000223135
-0.00233063
0.0011491
-0.000414031
-0.00220113
0.00159447
-0.000621574
-0.00200214
0.00185796
-0.000916535
-0.00178934
0.00183705
-0.00138341
-0.00186353
0.00155619
-0.002083
-0.00236797
0.00103288
-0.00330915
-0.00336923
-0.00530636
-0.00477225
-0.00421082
-0.0065133
-0.00642867
-0.00670881
-0.00742166
-0.00742166
-0.00765693
-0.00833886
-0.00734644
-0.00932109
-0.00660004
-0.0103584
-0.00548072
-0.0114084
-0.00402716
-0.0123511
-0.00219043
-0.0129133
0.000105694
-0.0126807
0.00239268
-0.0128885
0.00419361
-0.0132218
0.00560875
-0.0127337
0.00665387
-0.0118778
0.00733664
-0.0108691
0.00761754
-0.00983037
0.00736414
-0.00880904
0.00637657
-0.00784706
0.00418454
-0.00705184
-0.00672314
1.96698e-06
0.00220973
-0.00191805
-0.000295453
0.0017821
-0.00153197
-0.000711776
0.00104872
-0.00137904
-0.000986164
0.000548775
-0.000986165
-0.00110126
0.000226281
-0.000443462
-0.000978298
-0.000195139
0.000198575
-0.000875262
-0.000318678
0.000804066
-0.000862935
-0.000358762
0.00125942
-0.00070356
-0.000642012
0.00158673
-0.000430516
-0.000846389
0.00176243
-0.000116201
-0.000935763
0.00187577
0.000218053
-0.000911061
0.00193654
0.000523276
-0.000782599
0.00182745
0.000728326
-0.000605385
0.00154284
0.000994237
-0.000567661
0.00120458
0.00123223
-0.000494376
0.000679231
0.00105061
0.000147538
8.10465e-05
0.000715504
0.000583452
-0.000296769
0.000363135
0.000901945
-0.000577552
0.00113725
-0.000930272
0.00132218
0.00162715
0.00317892
0.00223534
0.00163107
0.00315996
0.00235442
0.00168499
0.00256265
0.00173402
0.0017895
0.00173402
0.000726531
0.00166563
0.000980478
-0.000177184
0.000940813
0.000551899
-0.000715779
0.000162025
0.000339652
-0.000836876
-0.000505377
0.000428391
-0.000832347
-0.00106442
0.000591979
-0.000608346
-0.00158632
0.000727785
-0.000223226
-0.0018473
0.00086711
0.000216819
-0.00179757
0.000981352
0.000588771
-0.00146176
0.00092757
0.000765058
-0.000962052
0.000727223
0.000326132
-0.000122801
0.000574891
-0.00047612
0.000660483
0.000783976
-0.00125162
0.00153349
0.00131789
-0.00151788
0.00174695
0.00211964
-0.00105211
0.00159013
0.0027816
0.00147375
0.0028328
0.0015089
-0.000198523
0.00383504
0.00274454
0.000225822
0.00430258
0.00346494
0.000934068
0.0041365
0.00350344
0.00171244
0.00350344
0.00299501
0.00209529
0.00274755
0.00205718
0.00187377
0.0019777
0.00103504
0.00116555
0.00121872
0.000309517
3.60016e-05
0.000597944
-8.38245e-05
-0.0010603
0.000284185
-0.0002828
-0.00186027
0.000195716
-0.000357563
-0.00221144
0.000329898
-0.000454479
-0.00201584
0.000573699
-0.000721418
-0.00133883
0.00077625
-0.00146263
-0.000203314
0.00106243
-0.00244039
0.00101153
0.00172312
-0.00317455
0.00158406
0.00264396
-0.00315349
0.0016141
0.00357703
-0.00247978
0.00117229
0.00428033
-0.00140155
0.000568339
0.00455704
4.89687e-05
0.0042843
0.00169127
-0.00246843
0.00190088
0.00272686
-0.00124417
0.00321505
0.00352318
-0.000266787
0.00392957
0.00391217
0.000934448
0.00391217
0.00377131
0.00188894
0.00345952
0.00321911
0.00215272
0.00285112
0.00247137
0.00167237
0.0021982
0.00156406
0.000690579
0.00148079
0.000684953
-0.00054041
0.000692887
-3.25599e-05
-0.0015684
0.000186995
-0.000670112
-0.00193362
0.000299279
-0.00144201
-0.00148853
0.00086459
-0.00240412
-0.000509245
0.00151776
-0.00332022
0.000630073
0.00228822
-0.00385269
0.00137325
0.00303765
-0.00397711
0.00147263
0.00372963
-0.00355756
0.000861929
0.00431213
-0.00270373
-0.000127706
0.00447224
-0.00162702
-0.00101439
0.00390337
-0.0022043
0.00271882
0.00186846
-0.00430052
-0.000475762
0.00272727
-0.00213042
0.00155176
0.00326622
-0.000990535
0.00294814
0.003573
0.000320889
0.003573
0.00358061
0.00155768
0.0036008
0.00325664
0.00216847
0.00327792
0.00267894
0.00195903
0.00277224
0.00193945
0.00114713
0.00211522
0.00104466
9.27809e-05
0.00129497
0.000136792
-0.000910939
0.000507587
-0.000786713
-0.00121188
0.000554834
-0.00180879
-0.000659976
0.0013762
-0.00277145
0.000253481
0.00226855
-0.00345195
0.00108475
0.00301351
-0.00382317
0.00148309
0.00357459
-0.00381219
0.00114644
0.00395361
-0.00346436
0.000146594
0.00396889
-0.00288883
-0.00101974
0.00333485
-0.00199762
-0.00209843
0.00191941
-0.00421245
-0.000217737
0.00175393
-0.00581025
-0.00176349
0.00257429
-0.00264617
0.000350528
0.00288396
-0.00114481
0.00199783
0.00296451
0.000159799
0.00296451
0.00292497
0.0014063
0.00336678
0.00272342
0.00211681
0.00332694
0.00232236
0.00208234
0.00300107
0.00172337
0.00148773
0.00247157
0.000995488
0.000656659
0.00178817
0.000228866
-0.000133161
0.00104799
-0.000612383
-0.000323968
0.00101752
-0.00148027
9.25869e-05
0.00179003
-0.00227426
0.000817289
0.00253644
-0.00285564
0.00140597
0.00312504
-0.00318254
0.00156919
0.00350148
-0.00327109
0.0010465
0.00354763
-0.003176
-6.6106e-05
0.00308321
-0.00283833
-0.00123968
0.0019955
-0.00193873
-0.00268716
0.000204722
-0.00582218
-0.0019671
0.0013519
-0.00680406
-0.00272869
0.00213011
-0.00309122
-0.000455325
0.00237578
-0.00111264
0.0012339
0.00225231
0.000406754
0.00225231
0.00216709
0.00139212
0.00283673
0.00208044
0.00196527
0.00298974
0.00190596
0.00196088
0.00284189
0.00156041
0.00155858
0.00249719
0.00101554
0.00104747
0.00202678
0.000261723
0.000661979
0.00150506
-0.00054758
0.000555295
0.00142277
-0.0013262
0.000756191
0.00189692
-0.00188858
0.0011221
0.00236125
-0.00224853
0.00147845
0.00273773
-0.00246396
0.00156517
0.00292023
-0.00260912
0.00111489
0.0027442
-0.00271808
0.000213334
0.0020668
-0.00239109
-0.00123162
0.000932556
-0.00148899
-0.00317341
-0.000810247
-0.00686779
-0.00303599
0.000415675
-0.00679341
-0.0037303
0.000997813
-0.00333993
-0.00145825
0.00116307
-0.00110438
0.000176243
0.00124613
0.000240644
0.00124613
0.00126386
0.00120753
0.00177949
0.00135828
0.00158343
0.00197269
0.0014062
0.00154871
0.0019088
0.0012828
0.00131407
0.00170164
0.000917584
0.00110732
0.00147372
0.000191103
0.00119791
0.00128613
-0.000593917
0.00117867
0.00118378
-0.00108061
0.000986457
0.00123605
-0.00137678
0.00108942
0.00137269
-0.00148528
0.00126114
0.00156054
-0.00148
0.0013258
0.00165064
-0.00152129
0.000990179
0.00144469
-0.00138645
4.4248e-05
0.00086476
-0.00116055
-0.00120003
-0.00031034
-0.000489689
-0.00340816
-0.00190454
-0.00685712
-0.00403506
-0.00121577
-0.00517917
-0.00495129
-0.00150901
-0.00275613
-0.00329618
-0.00137709
-0.00125885
-0.00189679
-0.00111175
-0.000290047
-0.00111175
-0.000681982
0.000282402
-0.000837035
-0.000169186
0.000516671
-0.000799637
0.000270843
0.000617093
-0.000990824
0.000511409
0.00070924
-0.00132712
0.000496209
0.000903572
-0.00158822
0.000223846
0.00140535
-0.00159696
-6.98942e-05
0.00141951
-0.00176317
-0.000169662
0.000892996
-0.0020084
-9.93708e-05
0.000653259
-0.00196476
0.000144914
0.000523977
-0.00170826
0.000527727
0.000415084
-0.00147425
0.000970158
0.000198632
-0.00144023
0.00126764
-0.000379033
-0.00173775
0.00143866
-0.00129284
-0.00244619
0.00119413
-0.00277528
-0.00375761
-0.00519722
-0.00523804
-0.00486298
-0.00682952
-0.00731523
-0.00701273
-0.00833886
-0.00765693
-0.00848391
-0.00848391
-0.00807388
-0.00944876
-0.0073073
-0.0106083
-0.00621192
-0.0118867
-0.00472701
-0.0131268
-0.00271888
-0.0140179
4.53197e-05
-0.0140396
0.00281704
-0.0142408
0.00481077
-0.0143225
0.00626879
-0.0135385
0.00730539
-0.0123905
0.00801308
-0.0111617
0.00839015
-0.0100089
0.00822314
-0.0090211
0.00723061
-0.0081474
0.00482364
-0.00742018
-0.00709675
-1.44724e-05
0.000729463
-0.00263302
-0.000135506
0.000649021
-0.00205995
-0.000332265
0.000433742
-0.00161602
-0.000443461
0.000226281
-0.00110126
-0.000419703
-4.75493e-05
-0.000419703
-0.000300578
-0.000257237
0.00033667
-0.000328727
-0.000158115
0.000990305
-0.000441513
-0.000221204
0.00159341
-0.000437598
-0.000543724
0.0021266
-0.000346043
-0.000789166
0.00246012
-0.000200464
-0.000871262
0.00260154
5.33992e-07
-0.000808616
0.00254425
0.000190897
-0.000642614
0.00227976
0.000306077
-0.000445686
0.00187338
0.000429383
-0.000348952
0.00143023
0.000613114
-0.000440341
0.00093585
0.000634408
-0.000255304
0.000315048
0.000449546
0.000145722
-0.000257653
0.00020733
0.000350842
-0.000686192
0.00037282
-0.00109577
0.00095833
0.0019649
0.000985078
0.00143541
0.00187304
0.00145878
0.00141238
0.00181101
0.00120833
0.000980478
0.00166563
0.00072653
0.000377409
0.00115859
0.000377408
-0.000121015
0.000505174
0.000287913
-0.000395769
4.51694e-05
0.00041111
-0.000481943
-0.000433964
0.000727333
-0.000568626
-0.000934343
0.00106933
-0.000498988
-0.00146197
0.00133104
-0.000279518
-0.00169405
0.00147052
6.32036e-06
-0.00159092
0.00147791
0.000286948
-0.00126386
0.00126826
0.000508603
-0.000892255
0.000952173
0.000442336
-0.000325065
0.000617285
5.08451e-05
0.000255803
0.000479336
-0.000429442
0.000908057
0.000634843
-0.000667948
0.00151756
0.000986318
-0.000542479
0.00176607
0.00124087
0.00182775
0.000835357
0.00124109
0.00156142
0.00299737
0.00212928
0.00179945
0.00348792
0.00266883
0.00195806
0.00344985
0.00274755
0.00209529
0.00299501
0.0023308
0.00199206
0.0023308
0.00158789
0.00157619
0.00164955
0.000900093
0.000828762
0.00112291
0.000395129
-0.000124746
0.000793697
5.46187e-05
-0.00101904
0.000709424
-0.000232744
-0.00171561
0.00073677
-0.00040472
-0.00202861
0.000836505
-0.000499804
-0.0018585
0.000936419
-0.000595611
-0.00133659
0.000944839
-0.000978754
-0.000460871
0.00101422
-0.00157718
0.000618357
0.00137815
-0.0021645
0.00142909
0.00205798
-0.00229959
0.00177253
0.00284762
-0.00186238
0.00187279
0.00348785
-0.00107544
0.00183336
0.00370278
0.0017014
0.00333518
0.00163484
-0.000377879
0.00220529
0.00246304
0.00096637
0.00321991
0.00311234
0.00145722
0.00378108
0.00345952
0.00188894
0.00377131
0.00337229
0.0021665
0.00337229
0.00294069
0.00203688
0.00282201
0.00229565
0.0014315
0.00224049
0.00151874
0.000501529
0.00163143
0.000725657
-0.000585104
0.00105205
-7.1651e-06
-0.00147521
0.000679451
-0.000658132
-0.00182132
0.000742993
-0.00130006
-0.00147815
0.00112621
-0.00203111
-0.000651913
0.00156417
-0.00276574
0.000406525
0.00215549
-0.00325098
0.00126197
0.00287929
-0.0033337
0.00171153
0.00352992
-0.00301762
0.00171019
0.00405839