/*--------------------------------*- C++ -*----------------------------------*\
  =========                 |
  \\      /  F ield         | OpenFOAM: The Open Source CFD Toolbox
   \\    /   O peration     | Website:  https://openfoam.org
    \\  /    A nd           | Version:  9
     \\/     M anipulation  |
\*---------------------------------------------------------------------------*/
FoamFile
{
    format      ascii;
    class       volVectorField;
    location    "900";
    object      U;
}
// * * * * * * * * * * * * * * * * * * * * * * * * * * * * * * * * * * * * * //

dimensions      [0 1 -1 0 0 0 0];

internalField   nonuniform List<vector> 
4000
(
(0.00593462 -0.0147539 0.00593462)
(0.00997399 -0.00372722 0.00498254)
(0.00679138 0.00622496 0.003013)
(-0.00356683 0.00710657 0.000679374)
(-0.00965483 -0.000714645 0.000220067)
(-0.00928769 -0.00341826 0.000364548)
(-0.00833107 -0.00254656 0.000333188)
(-0.00642724 -0.00214899 0.000433672)
(-0.00491234 -0.00235957 0.00053562)
(-0.00289704 -0.00236078 0.000560089)
(-0.000563911 -0.00201373 0.000527588)
(0.00181584 -0.00154941 0.000681423)
(0.00351868 -0.00142307 0.000809195)
(0.00489218 -0.0015891 0.000659496)
(0.00702009 -0.00322198 0.00061245)
(0.00780976 -0.00350797 0.000361979)
(0.00631117 -0.000162951 0.000333648)
(0.00208893 0.00684454 0.00138634)
(-0.00300562 0.00776159 0.00361283)
(-0.00347023 -0.00208592 0.00475729)
(0.00364538 -0.0257557 0.00364538)
(0.00915602 -0.0118085 0.00395237)
(0.0135908 0.00283584 0.00388264)
(0.0125432 0.00789202 0.00324939)
(0.00865274 0.00657658 0.00257441)
(-0.000483346 0.00293474 0.00149991)
(-0.00807691 -0.00233772 -0.000359159)
(-0.00715129 -0.00296757 -0.000701461)
(-0.00589176 -0.00345869 -0.000956116)
(-0.00395537 -0.00407423 -0.00106114)
(-0.00144779 -0.00457775 -0.000984193)
(0.00165771 -0.00524208 -0.000480159)
(0.00401848 -0.00509972 0.000159669)
(0.00492582 -0.00411447 0.000400576)
(0.00514543 -0.00286806 0.000735846)
(-0.00545247 0.00520055 0.00257383)
(-0.0124194 0.00545062 0.00387572)
(-0.0146789 -0.000240472 0.00510622)
(-0.0113602 -0.00933193 0.00557381)
(-0.00468678 -0.0195863 0.00481932)
(0.00207173 -0.0370449 0.00207173)
(0.00615945 -0.0231955 0.00300001)
(0.00954098 -0.00822229 0.00339923)
(0.0136006 0.00265007 0.00345426)
(0.0129939 0.00660725 0.00307734)
(0.00856695 0.00659277 0.00248611)
(0.00368157 0.00405143 0.00178851)
(-0.0031523 -0.00215374 -0.0003443)
(-0.00268405 -0.00392345 -0.0012756)
(-0.00157441 -0.00473432 -0.00136951)
(4.20088e-05 -0.0054314 -0.000977891)
(0.000789798 -0.00611759 -0.000156418)
(-0.000153149 -0.00513758 0.000966197)
(-0.00390981 -0.00114951 0.00197673)
(-0.0108714 0.0039123 0.00292774)
(-0.0140949 0.00498223 0.00360589)
(-0.0147948 0.000296307 0.00407016)
(-0.011559 -0.0104942 0.00416626)
(-0.00798415 -0.0224871 0.00391403)
(-0.00298961 -0.0337356 0.00276276)
(0.00104537 -0.0431591 0.00104537)
(0.00323078 -0.0298661 0.00242979)
(0.00318037 -0.0157085 0.00302861)
(0.00521931 -0.00460904 0.00371236)
(0.00775705 0.00335124 0.00408021)
(0.00799715 0.00622802 0.00382726)
(0.00612151 0.00538563 0.00323396)
(0.00372028 0.00296627 0.00220558)
(0.00110755 -0.00013158 0.00100009)
(0.000304385 -0.00240347 0.000213747)
(0.000554085 -0.00373496 0.00069944)
(-0.00062215 -0.0039742 0.00166217)
(-0.00341895 -0.00241298 0.00279581)
(-0.00663717 9.60176e-05 0.00394499)
(-0.00868136 0.00139951 0.00452395)
(-0.00858938 -0.000793207 0.00462627)
(-0.00673547 -0.00783443 0.00408796)
(-0.00475091 -0.0186815 0.00333808)
(-0.00447049 -0.031086 0.00271038)
(-0.00173756 -0.0419029 0.00121854)
(0.000245211 -0.0460653 0.000245212)
(0.000896254 -0.0336297 0.00193466)
(-0.00181105 -0.0210253 0.00258507)
(-0.00164772 -0.0118032 0.00335173)
(-0.00146272 -0.00559184 0.00407317)
(-6.58278e-05 -0.00174425 0.0043668)
(0.00101836 -0.000282769 0.00408576)
(0.00132682 -0.000943526 0.00356879)
(0.00143193 -0.00206759 0.00308504)
(0.00131769 -0.00342197 0.00284139)
(0.00151611 -0.00508246 0.00273337)
(0.00123767 -0.00582743 0.00284127)
(0.000727838 -0.00591907 0.00316089)
(0.000327095 -0.00572871 0.00375132)
(0.000362949 -0.00632296 0.00428928)
(0.000819793 -0.00906368 0.00415212)
(0.000749869 -0.0149263 0.00341207)
(0.000735384 -0.0240246 0.00263861)
(-0.00188701 -0.0356111 0.00192491)
(-0.000834039 -0.045959 0.000149697)
(-0.000506941 -0.0463354 -0.00050694)
(-0.000954725 -0.0353784 0.0012983)
(-0.0050667 -0.0251865 0.00161505)
(-0.00590122 -0.0180467 0.00192085)
(-0.00618543 -0.013314 0.00207805)
(-0.00526091 -0.0105198 0.00211915)
(-0.0036965 -0.00905516 0.00198771)
(-0.00190472 -0.00845364 0.00178397)
(-0.000117882 -0.00868457 0.00165425)
(0.0010608 -0.00974023 0.00167353)
(0.00200015 -0.0112854 0.00145132)
(0.00273615 -0.0121354 0.00120337)
(0.00379427 -0.0126029 0.00117101)
(0.00483251 -0.0131486 0.00139201)
(0.00571082 -0.0143171 0.00171091)
(0.00615154 -0.0167416 0.00187084)
(0.00554303 -0.0210771 0.00182754)
(0.00444794 -0.0277993 0.00156321)
(0.000204964 -0.0372834 0.00119133)
(-4.94962e-07 -0.0467862 -0.000705448)
(-0.00145807 -0.044153 -0.00145807)
(-0.00261434 -0.0353815 0.000278131)
(-0.00765498 -0.0277201 5.5726e-05)
(-0.0091584 -0.02284 -0.000186991)
(-0.00959673 -0.0198357 -0.00055569)
(-0.00860211 -0.0180967 -0.00091696)
(-0.00669083 -0.0171351 -0.00126292)
(-0.00426582 -0.0167018 -0.00151867)
(-0.00156771 -0.016646 -0.00156461)
(0.000422552 -0.0171295 -0.00132798)
(0.00210755 -0.0182695 -0.00158867)
(0.00367005 -0.0191291 -0.0019358)
(0.00580024 -0.0197123 -0.00198366)
(0.00775515 -0.0202969 -0.00174125)
(0.00923147 -0.0211647 -0.00132609)
(0.00985936 -0.022711 -0.000863311)
(0.0090922 -0.0254201 -0.000384097)
(0.00731651 -0.0299278 -5.29122e-05)
(0.00217413 -0.0370126 0.000154824)
(0.00110173 -0.0447334 -0.00165264)
(-0.00296671 -0.0386249 -0.00296671)
(-0.0048721 -0.0322407 -0.00152665)
(-0.010583 -0.0273709 -0.00223699)
(-0.0125838 -0.0247839 -0.00299403)
(-0.0130591 -0.0234563 -0.00377191)
(-0.0118872 -0.0228884 -0.00445106)
(-0.00952501 -0.0226241 -0.00501192)
(-0.00641358 -0.0225041 -0.00540022)
(-0.00284946 -0.0224833 -0.00552066)
(-0.000286002 -0.0227449 -0.00521472)
(0.00213374 -0.0234265 -0.00540806)
(0.00441796 -0.0240539 -0.00577294)
(0.00754159 -0.0244151 -0.00573741)
(0.0103408 -0.0246612 -0.00537133)
(0.0124434 -0.0249578 -0.00479161)
(0.0134277 -0.0255301 -0.0040927)
(0.0127274 -0.0266799 -0.00324148)
(0.010501 -0.0289907 -0.00240741)
(0.00470205 -0.0334195 -0.00166883)
(0.00275481 -0.0391615 -0.00310797)
(-0.00559403 -0.0288828 -0.00559402)
(-0.00875222 -0.0245422 -0.00496698)
(-0.0147644 -0.022172 -0.00596843)
(-0.0168882 -0.0214261 -0.00712428)
(-0.0171547 -0.0213751 -0.00824915)
(-0.0156612 -0.0217065 -0.00922819)
(-0.0128233 -0.0221508 -0.0100385)
(-0.00898723 -0.0224887 -0.0106095)
(-0.00448094 -0.0225967 -0.0107377)
(-0.00120888 -0.0225528 -0.0100209)
(0.00239668 -0.0229367 -0.0103186)
(0.00556842 -0.0234547 -0.0110612)
(0.00979666 -0.0235077 -0.0110429)
(0.0134683 -0.0232427 -0.0105346)
(0.016177 -0.0228374 -0.00972768)
(0.0175373 -0.0225035 -0.00870077)
(0.0171182 -0.0224976 -0.00750307)
(0.0148472 -0.0231178 -0.00626293)
(0.00879269 -0.0252622 -0.00517543)
(0.00547811 -0.0292569 -0.0057114)
(-0.00985865 -0.0179827 -0.00985865)
(-0.015562 -0.0140675 -0.0110588)
(-0.0215336 -0.0122212 -0.0132137)
(-0.023525 -0.011555 -0.0153308)
(-0.0234673 -0.0112499 -0.0174227)
(-0.0215588 -0.011057 -0.0194087)
(-0.0180989 -0.0107911 -0.0211735)
(-0.0133165 -0.0103311 -0.0225311)
(-0.00748895 -0.00966655 -0.0231094)
(-0.00278565 -0.00900957 -0.0220522)
(0.00352748 -0.00921013 -0.022477)
(0.00827862 -0.0099975 -0.0235179)
(0.0139827 -0.0107195 -0.0229671)
(0.018664 -0.0112162 -0.0216605)
(0.0220209 -0.0115319 -0.0199436)
(0.0238381 -0.0117699 -0.0179812)
(0.0238059 -0.0120834 -0.0158563)
(0.0217199 -0.012711 -0.0136503)
(0.0156972 -0.0144575 -0.0113496)
(0.00979394 -0.0181629 -0.00996252)
(0.00498254 -0.00372722 0.00997399)
(0.00695031 0.00397797 0.0069503)
(0.00374248 0.00830966 0.0024325)
(-0.00369099 0.0054175 -0.000547254)
(-0.00728015 -0.00106706 -0.000273388)
(-0.00748401 -0.0030982 0.000419417)
(-0.00663402 -0.0022432 0.00106098)
(-0.00542478 -0.00171465 0.00142075)
(-0.00438792 -0.00192977 0.00162806)
(-0.00280682 -0.00199896 0.00168174)
(-0.000739936 -0.00176739 0.00168472)
(0.00118422 -0.00132682 0.00202348)
(0.0028422 -0.00141428 0.00220806)
(0.00412985 -0.00165737 0.00185412)
(0.00589253 -0.00302858 0.00156963)
(0.00678618 -0.00361197 0.00070786)
(0.00572049 -0.00148772 0.000543753)
(0.00290399 0.00351339 0.00154463)
(-0.000176061 0.00870121 0.00351408)
(-0.00153005 0.00830434 0.00544941)
(0.00395237 -0.0118085 0.00915602)
(0.00930956 -0.00293531 0.00930956)
(0.012991 0.00593904 0.00813634)
(0.0126647 0.00754459 0.0062359)
(0.0090615 0.0062375 0.0042726)
(0.00234514 0.00352392 0.00263186)
(-0.00443762 -0.0016896 0.000359076)
(-0.00522757 -0.00271906 -0.000519058)
(-0.00482991 -0.00371873 -0.000982444)
(-0.00352199 -0.00461736 -0.00115733)
(-0.00157624 -0.0053562 -0.000926416)
(0.000747183 -0.00577121 -9.62718e-05)
(0.00284315 -0.00523373 0.000703495)
(0.0036753 -0.00406045 0.000926437)
(0.00300585 -0.00248311 0.00160942)
(-0.0048832 0.00431201 0.00386475)
(-0.0107624 0.00627207 0.00639189)
(-0.0130453 0.00355277 0.00950523)
(-0.0103885 -0.00129017 0.0116307)
(-0.00501309 -0.00639002 0.0120985)
(0.00300001 -0.0231955 0.00615945)
(0.00803311 -0.0150614 0.00803311)
(0.0121648 -0.00494205 0.00843155)
(0.0153791 0.00336448 0.00747963)
(0.0143555 0.0066766 0.00588737)
(0.0104437 0.00672573 0.0043782)
(0.00597798 0.00403009 0.00278601)
(0.000629045 -0.000885688 0.000334433)
(-0.0013888 -0.00444203 -0.00179881)
(-0.00129879 -0.0060905 -0.00223464)
(-0.000767633 -0.0071294 -0.00165492)
(-0.000735096 -0.00722037 -0.000337942)
(-0.00178734 -0.00551286 0.00129396)
(-0.00498779 -0.00133159 0.00290646)
(-0.0113329 0.00386621 0.00487842)
(-0.0146338 0.00557455 0.00672046)
(-0.0157299 0.00304247 0.00837324)
(-0.0132195 -0.00504537 0.00974696)
(-0.00914201 -0.013161 0.0101017)
(-0.00369744 -0.0191099 0.00869189)
(0.00242979 -0.0298661 0.00323078)
(0.00655916 -0.0225935 0.00655916)
(0.00813214 -0.0122155 0.00791884)
(0.0102227 -0.00218252 0.00796883)
(0.0118424 0.00500828 0.00715475)
(0.0108273 0.00727544 0.00605548)
(0.00843854 0.00599158 0.00464256)
(0.00572113 0.00287727 0.00269003)
(0.00267716 -0.00138731 0.000193837)
(0.000502114 -0.00469597 -0.00127836)
(-0.000654284 -0.00581802 -0.000391789)
(-0.00281881 -0.00477831 0.00155231)
(-0.00657359 -0.00181006 0.00371414)
(-0.0103212 0.00193204 0.0058246)
(-0.0125626 0.00382374 0.00718001)
(-0.0133945 0.00244235 0.00824947)
(-0.0116175 -0.00392757 0.00887878)
(-0.00928258 -0.013256 0.00869119)
(-0.00725957 -0.0221813 0.00744334)
(-0.00283436 -0.0279737 0.00437551)
(0.00193466 -0.0336297 0.000896255)
(0.00564727 -0.0265959 0.00564727)
(0.00484337 -0.0163604 0.00790743)
(0.00511312 -0.00613744 0.00876545)
(0.00559224 0.00180989 0.00892468)
(0.00606444 0.00547652 0.0081749)
(0.00544429 0.0055276 0.00699096)
(0.00422586 0.00359416 0.0055449)
(0.00286588 0.00117068 0.00417612)
(0.00168301 -0.00106688 0.00305786)
(0.000693086 -0.00224791 0.00339794)
(-0.0012447 -0.0017204 0.00479376)
(-0.00363099 -0.000203841 0.00638208)
(-0.00562688 0.00145578 0.00794236)
(-0.00679019 0.00174115 0.00912889)
(-0.00643971 -0.00142936 0.00967195)
(-0.00638007 -0.00849216 0.00918381)
(-0.0059738 -0.018099 0.0080911)
(-0.00631005 -0.027076 0.00569461)
(-0.00229443 -0.0329659 0.00111589)
(0.0012983 -0.0353784 -0.000954723)
(0.00497197 -0.0280243 0.00497197)
(0.0023849 -0.0181943 0.00772826)
(0.00171848 -0.00854666 0.00892134)
(0.000773251 -0.00125343 0.00943528)
(0.0015993 0.0030623 0.0093324)
(0.00188851 0.0039934 0.00863144)
(0.00179152 0.00330477 0.00779118)
(0.00160788 0.00198251 0.00717134)
(0.0015091 0.00049013 0.0068713)
(0.00145703 -0.000619708 0.00692266)
(0.000760339 -0.000551081 0.00731595)
(-6.11505e-05 7.23439e-05 0.00794939)
(-0.00094368 0.000458817 0.00879717)
(-0.00129617 -0.000578331 0.00952737)
(-0.00168869 -0.00425178 0.00960671)
(-0.00276937 -0.0111317 0.00896775)
(-0.00350989 -0.0202427 0.00753222)
(-0.00564913 -0.0289437 0.00453108)
(-0.00162949 -0.0352539 -0.00125838)
(0.000278131 -0.0353815 -0.00261434)
(0.00395418 -0.0274426 0.00395418)
(-0.000107636 -0.0184186 0.00677508)
(-0.00102267 -0.0102611 0.00796306)
(-0.00195303 -0.00459425 0.00839894)
(-0.00167557 -0.00106472 0.00853585)
(-0.000740629 0.000719022 0.00851136)
(0.000148274 0.000899892 0.00834531)
(0.000975395 0.000142122 0.00827911)
(0.00127103 -0.000942161 0.00831351)
(0.00138625 -0.00177624 0.00818604)
(0.00134563 -0.00200485 0.00793966)
(0.00155793 -0.00209682 0.00778406)
(0.00177136 -0.00257782 0.00789393)
(0.00184955 -0.00397725 0.00814014)
(0.00149471 -0.00712033 0.00823137)
(0.000257761 -0.0126241 0.00770007)
(-0.000882535 -0.0204593 0.00635376)
(-0.00456344 -0.0284935 0.003299)
(-0.000520118 -0.0356014 -0.00309179)
(-0.00152665 -0.0322407 -0.0048721)
(0.00150011 -0.0243749 0.00150012)
(-0.00368429 -0.0172521 0.00391805)
(-0.00466315 -0.0117135 0.00462748)
(-0.00521723 -0.00742545 0.00453672)
(-0.00472832 -0.00459387 0.00433479)
(-0.00360084 -0.00306374 0.00396204)
(-0.00203927 -0.0023517 0.00368725)
(-0.000331409 -0.00204756 0.00383288)
(0.000747455 -0.00184074 0.0045679)
(0.00151743 -0.0026805 0.00417633)
(0.00217676 -0.00404308 0.00301473)
(0.00335104 -0.0050368 0.00255173)
(0.00444022 -0.0059754 0.00274355)
(0.00510326 -0.00727779 0.00330404)
(0.00515022 -0.00961286 0.00386137)
(0.0042964 -0.0135477 0.00400984)
(0.00307373 -0.0187296 0.00333341)
(-0.00195509 -0.0252826 0.000692083)
(0.00139058 -0.0326084 -0.00533054)
(-0.00496698 -0.0245422 -0.00875222)
(-0.004671 -0.0186627 -0.004671)
(-0.00982974 -0.0145195 -0.00339609)
(-0.0112138 -0.0124071 -0.00354153)
(-0.0113191 -0.0112757 -0.00423006)
(-0.0100317 -0.0108952 -0.00496944)
(-0.00791499 -0.0109739 -0.00558461)
(-0.00529337 -0.0112603 -0.00591965)
(-0.00239996 -0.0115145 -0.00563762)
(-0.000362833 -0.0113699 -0.00432018)
(0.00201489 -0.0116522 -0.00480988)
(0.00370945 -0.012278 -0.00635799)
(0.00619179 -0.0121816 -0.00697936)
(0.00855165 -0.0119758 -0.00683199)
(0.0104722 -0.0119429 -0.0062292)
(0.0115216 -0.0122956 -0.00535833)
(0.0111823 -0.0133282 -0.00453688)
(0.00961436 -0.0152976 -0.00426898)
(0.00450506 -0.0191955 -0.0053755)
(0.00485185 -0.0248835 -0.00914649)
(-0.0110588 -0.0140675 -0.015562)
(-0.0162511 -0.00859427 -0.0162511)
(-0.0222945 -0.00563574 -0.0187176)
(-0.0241706 -0.00408533 -0.0215586)
(-0.0241417 -0.00305542 -0.0245223)
(-0.0224088 -0.00223626 -0.0274388)
(-0.0192752 -0.00137621 -0.0300761)
(-0.0148904 -0.000315398 -0.0321326)
(-0.00926502 0.000934053 -0.0330632)
(-0.00400792 0.0023704 -0.0318987)
(0.00488441 0.00229228 -0.0325013)
(0.0100437 0.000911376 -0.0338143)
(0.0155079 -0.000378214 -0.0329326)
(0.0197408 -0.00147968 -0.0309684)
(0.0226973 -0.00242617 -0.0284318)
(0.0242862 -0.00333324 -0.0255868)
(0.0242003 -0.00441319 -0.0225915)
(0.0222409 -0.00596258 -0.0196319)
(0.016205 -0.00886655 -0.0169435)
(0.0109481 -0.01423 -0.0159051)
(0.00301301 0.00622496 0.00679138)
(0.0024325 0.00830966 0.00374248)
(-0.000607091 0.00690489 -0.000607092)
(-0.00417363 0.00144567 -0.0016474)
(-0.00567182 -0.0021124 -0.000727324)
(-0.0056578 -0.00274441 0.000457785)
(-0.00502091 -0.00184426 0.00173216)
(-0.00428584 -0.00129903 0.00257205)
(-0.00371724 -0.00165708 0.0030398)
(-0.0025833 -0.00183392 0.00322029)
(-0.00079585 -0.00166788 0.00336733)
(0.000602418 -0.00130695 0.00375556)
(0.00215677 -0.00142363 0.00382759)
(0.00318897 -0.00155521 0.00324472)
(0.00460099 -0.00261152 0.00259499)
(0.00542577 -0.00336683 0.00124892)
(0.00525475 -0.00267356 0.000313774)
(0.0035645 0.000272527 0.000547672)
(0.00183244 0.004932 0.00139696)
(0.000174338 0.00849499 0.00196053)
(0.00388264 0.00283584 0.0135907)
(0.00813634 0.00593904 0.012991)
(0.0111394 0.00740744 0.0111394)
(0.0109085 0.00668546 0.00842432)
(0.00736887 0.00560997 0.00538645)
(0.00192806 0.00270748 0.00307608)
(-0.00298028 -0.00146452 0.000883811)
(-0.00392531 -0.00235688 0.000155433)
(-0.0039 -0.00356618 -5.13353e-05)
(-0.003099 -0.00472083 -8.52735e-05)
(-0.0015621 -0.00553514 0.000326088)
(0.000333424 -0.00573862 0.0011375)
(0.00219409 -0.00499528 0.00167803)
(0.00308495 -0.00388431 0.00167736)
(0.00280485 -0.00288014 0.00203734)
(-0.00247183 0.00229832 0.00440488)
(-0.00725463 0.00623042 0.00743495)
(-0.00949336 0.00602416 0.011315)
(-0.00788222 0.00457173 0.014248)
(-0.00409994 0.00345206 0.0150797)
(0.00339923 -0.00822229 0.00954097)
(0.00843156 -0.00494205 0.0121648)
(0.01266 0.000433383 0.01266)
(0.0149245 0.00494083 0.0110533)
(0.0137562 0.00703003 0.00860535)
(0.010431 0.00649194 0.0063905)
(0.00633064 0.00364466 0.00399117)
(0.00160956 -0.000959515 0.00114248)
(-0.000458004 -0.00445038 -0.00101867)
(-0.00101686 -0.00660079 -0.00170634)
(-0.00101933 -0.0077543 -0.00109302)
(-0.00116557 -0.00753933 0.000394893)
(-0.00201293 -0.00568642 0.00197119)
(-0.00430348 -0.00184494 0.0037457)
(-0.00983637 0.0034107 0.00652972)
(-0.0131417 0.00578651 0.00939713)
(-0.0142249 0.00547456 0.0119349)
(-0.0124382 0.00158438 0.0140746)
(-0.00847693 -0.00340563 0.0146675)
(-0.00367808 -0.00623762 0.013041)
(0.00302861 -0.0157085 0.00318037)
(0.00791885 -0.0122155 0.00813214)
(0.0106014 -0.00632867 0.0106014)
(0.0130605 0.000764995 0.0108888)
(0.0138859 0.00592668 0.00979686)
(0.0124711 0.00742701 0.00821575)
(0.00979862 0.00584235 0.00623877)
(0.00682224 0.00234242 0.00377018)
(0.00341782 -0.00241626 0.000578824)
(0.0007923 -0.00602026 -0.00145896)
(-0.00103092 -0.007313 -0.000741494)
(-0.0034036 -0.00591965 0.00176979)
(-0.00719081 -0.00239147 0.00453406)
(-0.0111829 0.00205143 0.00731403)
(-0.0136321 0.00459997 0.00935195)
(-0.0149212 0.00426803 0.0111737)
(-0.0139165 0.000417473 0.0123536)
(-0.0111527 -0.0060433 0.0120806)
(-0.00812389 -0.0112996 0.00990131)
(-0.00333911 -0.0144062 0.00553323)
(0.00258507 -0.0210253 -0.00181105)
(0.00790743 -0.0163604 0.00484337)
(0.00884663 -0.0101926 0.00884663)
(0.00975567 -0.00272845 0.0104774)
(0.0103966 0.00393364 0.0106981)
(0.0101018 0.00708 0.00973685)
(0.00862668 0.00658919 0.00812379)
(0.00651684 0.00375754 0.00596495)
(0.00410507 -3.74314e-05 0.00335831)
(0.00182811 -0.00358916 0.000793565)
(-0.000346856 -0.00469972 0.00121099)
(-0.00324178 -0.00301579 0.00397914)
(-0.0065946 5.99071e-05 0.00689006)
(-0.00935455 0.00293492 0.00922666)
(-0.0111425 0.00401695 0.0109075)
(-0.0115722 0.00179001 0.011816)
(-0.0108569 -0.00389347 0.0113687)
(-0.00969504 -0.0106952 0.00945038)
(-0.00833575 -0.0161217 0.00531503)
(-0.00303537 -0.0204018 -0.00113507)
(0.00161505 -0.0251865 -0.0050667)
(0.00772826 -0.0181943 0.0023849)
(0.00726467 -0.0115399 0.00726467)
(0.0071654 -0.00400286 0.00964493)
(0.00662734 0.00275304 0.0106117)
(0.0065543 0.00655482 0.0102362)
(0.00587288 0.00685857 0.00900126)
(0.00459819 0.00500431 0.00728766)
(0.00304149 0.00243894 0.00550225)
(0.00167989 0.000168591 0.0040048)
(0.000471039 -0.000623989 0.00397605)
(-0.0013858 0.000570849 0.00563356)
(-0.00359214 0.00239796 0.00754257)
(-0.00571014 0.00398024 0.00942063)
(-0.00708218 0.00389834 0.0107977)
(-0.00775981 0.000713687 0.011109)
(-0.00833108 -0.00555558 0.00979337)
(-0.00834857 -0.0124927 0.00704813)
(-0.00830831 -0.0183563 0.00192695)
(-0.00206807 -0.0250567 -0.00535788)
(5.57258e-05 -0.0277201 -0.00765498)
(0.00677508 -0.0184186 -0.000107635)
(0.00512548 -0.0113145 0.00512549)
(0.00481535 -0.00424769 0.00789327)
(0.00379525 0.00107963 0.00915368)
(0.00347562 0.00460904 0.0089899)
(0.00342474 0.00530352 0.00815013)
(0.00313997 0.00399282 0.00704998)
(0.00262088 0.00193619 0.00605994)
(0.0017601 0.000214107 0.00530259)
(0.000658761 -0.000520402 0.00524662)
(-0.000814793 -6.95835e-06 0.00591064)
(-0.0021359 0.00131944 0.00675017)
(-0.00321182 0.00247711 0.00789896)
(-0.00399972 0.00216327 0.00892344)
(-0.00490092 -0.000843218 0.00902596)
(-0.00597929 -0.00584281 0.00736223)
(-0.00623974 -0.0124107 0.00433919)
(-0.00731846 -0.0187135 -0.00100632)
(-0.000364546 -0.0279247 -0.00827575)
(-0.00223699 -0.0273709 -0.010583)
(0.00391805 -0.0172521 -0.00368429)
(0.00110114 -0.00991896 0.00110114)
(0.000927927 -0.00295594 0.00337629)
(0.000517342 0.00260977 0.0044917)
(0.000982621 0.00558486 0.00459743)
(0.00139444 0.00659503 0.00391887)
(0.00172377 0.00646899 0.00303841)
(0.00182641 0.00594005 0.00242197)
(0.00126199 0.00530214 0.00228412)
(0.000120693 0.00505651 0.00198185)
(-0.000700499 0.00529009 0.00159886)
(-0.000914276 0.00541341 0.00181866)
(-0.0011535 0.00518418 0.00263806)
(-0.00118345 0.00413728 0.00354992)
(-0.000891987 0.000936498 0.00322007)
(-0.00168317 -0.00445952 0.00221619)
(-0.0019208 -0.0108768 -4.8066e-05)
(-0.00421205 -0.017734 -0.00468359)
(0.00207073 -0.0276905 -0.0112516)
(-0.00596843 -0.022172 -0.0147644)
(-0.00339609 -0.0145195 -0.00982974)
(-0.00684439 -0.00931344 -0.00684439)
(-0.006739 -0.00628495 -0.00576698)
(-0.0061324 -0.00430316 -0.00567661)
(-0.00419812 -0.00332573 -0.00528688)
(-0.00206766 -0.00346692 -0.00530146)
(-0.000326819 -0.00418028 -0.00571466)
(0.000837704 -0.00470642 -0.00590631)
(0.000948067 -0.00380102 -0.00540973)
(0.00088871 -0.00404279 -0.00585148)
(0.000719269 -0.00545366 -0.00706506)
(0.00162799 -0.00513468 -0.00799536)
(0.00303388 -0.00457714 -0.00803365)
(0.00474368 -0.00449119 -0.00780788)
(0.00604431 -0.00516373 -0.00732351)
(0.00650107 -0.00690594 -0.00719717)
(0.00652084 -0.00980194 -0.00815938)
(0.00324286 -0.0148562 -0.0108938)
(0.00585514 -0.022433 -0.0153936)
(-0.0132137 -0.0122212 -0.0215336)
(-0.0187177 -0.00563574 -0.0222945)
(-0.0248717 -0.00221515 -0.0248717)
(-0.0265166 -0.000340914 -0.028079)
(-0.0262205 0.000984265 -0.0314733)
(-0.0243119 0.00214313 -0.0349196)
(-0.0211112 0.00339239 -0.0382274)
(-0.0167028 0.00491535 -0.0410264)
(-0.0108559 0.00665476 -0.0424675)
(-0.00500366 0.00863927 -0.041273)
(0.00573354 0.00864863 -0.0420116)
(0.0115219 0.00679409 -0.0435487)
(0.0172128 0.00499238 -0.0422193)
(0.021442 0.00344176 -0.0396289)
(0.0243901 0.00209914 -0.0364505)
(0.0261233 0.000864364 -0.0330329)
(0.026322 -0.00051272 -0.0295505)
(0.0246575 -0.00239162 -0.0261887)
(0.0185878 -0.00579377 -0.0233364)
(0.0130722 -0.0123284 -0.0221388)
(0.000679374 0.00710657 -0.00356683)
(-0.000547253 0.00541749 -0.00369099)
(-0.0016474 0.00144567 -0.00417363)
(-0.00306276 -0.00155366 -0.00306276)
(-0.00383953 -0.00268321 -0.00145386)
(-0.00358088 -0.00230202 0.000561479)
(-0.00309027 -0.00123993 0.00241698)
(-0.00291963 -0.00088041 0.00376237)
(-0.00284824 -0.001432 0.00462753)
(-0.00218964 -0.00174305 0.00505159)
(-0.000808224 -0.00160656 0.00536367)
(8.74756e-05 -0.00129451 0.00566322)
(0.00139653 -0.00131437 0.00547145)
(0.00211524 -0.00124672 0.00463324)
(0.0029885 -0.00174732 0.00363769)
(0.00384589 -0.0027633 0.00191562)
(0.00416024 -0.00303986 0.00012141)
(0.00319759 -0.00196932 -0.000823557)
(0.00186668 0.000438876 -0.00148225)
(0.000521605 0.00260093 -0.00279505)
(0.00324939 0.00789202 0.0125432)
(0.0062359 0.00754459 0.0126647)
(0.00842432 0.00668546 0.0109085)
(0.00778424 0.00589926 0.00778424)
(0.00474559 0.00449269 0.00460422)
(0.000742289 0.00102347 0.00247308)
(-0.0021388 -0.00131942 0.0011175)
(-0.00280367 -0.00187063 0.00102119)
(-0.00294762 -0.00321112 0.00129628)
(-0.00259345 -0.00453384 0.00157054)
(-0.00152779 -0.00530846 0.00203621)
(-6.86358e-05 -0.00531849 0.00258529)
(0.00149595 -0.00448224 0.00266748)
(0.00246098 -0.00349166 0.00222989)
(0.00252167 -0.00270536 0.00204927)
(2.42573e-05 -0.000353259 0.00342382)
(-0.00353032 0.00427634 0.00607064)
(-0.00540987 0.00640205 0.00960794)
(-0.00476954 0.00647291 0.012487)
(-0.00276105 0.0061728 0.0131341)
(0.00345426 0.00265007 0.0136006)
(0.00747963 0.00336448 0.0153791)
(0.0110533 0.00494083 0.0149245)
(0.01259 0.00668549 0.01259)
(0.0116561 0.00715587 0.00974078)
(0.00909465 0.0056934 0.00716163)
(0.0054552 0.00267029 0.0044017)
(0.00174386 -0.00141047 0.00179184)
(0.000227256 -0.00423369 0.000306529)
(-0.000676974 -0.00642921 -0.000202073)
(-0.00117542 -0.00750599 0.000328429)
(-0.0014117 -0.0072178 0.00141572)
(-0.00189886 -0.00564739 0.00246888)
(-0.00313591 -0.00262758 0.0038279)
(-0.00702876 0.00217306 0.00658294)
(-0.0102961 0.00523246 0.00998216)
(-0.0113617 0.00649917 0.0130482)
(-0.0100686 0.00589905 0.0155857)
(-0.00686016 0.00437191 0.0167742)
(-0.00328726 0.00355018 0.016014)
(0.00371236 -0.00460904 0.00521931)
(0.00796883 -0.00218252 0.0102227)
(0.0108888 0.000764994 0.0130605)
(0.0131402 0.00452982 0.0131402)
(0.0137096 0.00707876 0.0116572)
(0.0124248 0.00726384 0.00963773)
(0.00994028 0.00527365 0.00734777)
(0.00711837 0.00170435 0.00478047)
(0.0037782 -0.00280056 0.00177638)
(0.00111979 -0.00615791 -0.000190604)
(-0.00127695 -0.00747234 0.000309449)
(-0.00349456 -0.00627308 0.00254401)
(-0.00664429 -0.00305415 0.00511846)
(-0.0102929 0.00141488 0.00798817)
(-0.0126494 0.00464092 0.0104805)
(-0.01394 0.00564812 0.0128599)
(-0.0133412 0.0044027 0.0147341)
(-0.0109256 0.00157476 0.0150779)
(-0.00774208 -0.00114236 0.0127548)
(-0.00377866 -0.00348841 0.00800807)
(0.00335173 -0.0118032 -0.00164772)
(0.00876545 -0.00613744 0.00511312)
(0.0104774 -0.00272845 0.00975567)
(0.011895 0.00166137 0.011895)
(0.0125965 0.00571346 0.0120326)
(0.0121148 0.00745537 0.0109347)
(0.0104556 0.00640315 0.00916793)
(0.00809893 0.00329427 0.00683975)
(0.00523286 -0.000832241 0.0039208)
(0.00219897 -0.00450998 0.00108359)
(-0.00115829 -0.00569997 0.00134132)
(-0.00449197 -0.00387742 0.00434575)
(-0.00815377 -0.000419044 0.00755144)
(-0.0110445 0.00297862 0.0101528)
(-0.0128858 0.00484782 0.0120815)
(-0.013454 0.00423352 0.0133175)
(-0.0126864 0.00118967 0.0132197)
(-0.0111099 -0.00265689 0.0108474)
(-0.00911995 -0.00578253 0.00601642)
(-0.00394292 -0.0111579 -0.000786741)
(0.00192085 -0.0180467 -0.00590122)
(0.00892134 -0.00854666 0.00171848)
(0.00964492 -0.00400286 0.0071654)
(0.0101526 0.00061912 0.0101526)
(0.0102097 0.00505101 0.0113863)
(0.00994263 0.00753201 0.0111229)
(0.00890116 0.00724004 0.00989432)
(0.00711231 0.00490672 0.00800438)
(0.00475605 0.00173317 0.00567388)
(0.00227369 -0.00118255 0.00324784)
(-0.000670965 -0.00202374 0.00322167)
(-0.00365635 -0.000174675 0.0057809)
(-0.00661743 0.00242598 0.00830567)
(-0.00910499 0.00466726 0.0103953)
(-0.0106575 0.0054177 0.0117931)
(-0.0112563 0.00369813 0.0120415)
(-0.011231 -0.000114599 0.0104967)
(-0.0106839 -0.00427704 0.00706145)
(-0.00956286 -0.00858665 0.00124304)
(-0.00253876 -0.0179317 -0.00643149)
(-0.000186991 -0.02284 -0.0091584)
(0.00796306 -0.0102611 -0.00102266)
(0.00789327 -0.00424769 0.00481535)
(0.00813213 0.000254517 0.00813213)
(0.00761743 0.00419008 0.00973551)
(0.00737644 0.00662007 0.00995846)
(0.0069904 0.0066064 0.0092509)
(0.00609287 0.00470488 0.00799016)
(0.0045695 0.00208052 0.00646984)
(0.00241127 -6.89705e-05 0.00493907)
(-0.000526397 -0.000746391 0.00469601)
(-0.0033596 0.000442165 0.00609517)
(-0.00567595 0.00246775 0.00758023)
(-0.00727828 0.0043323 0.00896167)
(-0.00821829 0.004794 0.00981201)
(-0.00883292 0.00296897 0.00951096)
(-0.00941175 -0.000571918 0.00761499)
(-0.00903637 -0.00467169 0.00386985)
(-0.00852143 -0.0105229 -0.00213503)
(-0.000182681 -0.0230173 -0.0100604)
(-0.00299403 -0.0247839 -0.0125838)
(0.00462748 -0.0117135 -0.00466314)
(0.00337629 -0.00295594 0.000927929)
(0.00446907 0.00319548 0.00446908)
(0.00430424 0.00641632 0.00608711)
(0.00455081 0.00805878 0.0064709)
(0.00484703 0.00823555 0.00608721)
(0.00475682 0.00754499 0.00536444)
(0.00401488 0.00666094 0.00470672)
(0.00220313 0.00596709 0.00426998)
(-0.000877196 0.00581615 0.00403132)
(-0.0030942 0.0061784 0.00412184)
(-0.00434433 0.0067373 0.00445964)
(-0.0050403 0.00723399 0.00509115)
(-0.00518498 0.00718989 0.00555903)
(-0.0052235 0.00571977 0.00508282)
(-0.00535039 0.00256611 0.00329392)
(-0.00420183 -0.00337024 -0.000520454)
(-0.00490066 -0.0119726 -0.00604563)
(0.00282933 -0.025023 -0.0135084)
(-0.00712428 -0.0214261 -0.0168882)
(-0.00354154 -0.0124071 -0.0112138)
(-0.00576698 -0.00628495 -0.006739)
(-0.00410806 -0.0025215 -0.00410806)
(-0.002946 -0.000110888 -0.00308815)
(-0.00144813 0.000528279 -0.00325362)
(0.000268508 -9.36652e-05 -0.00401192)
(0.00146827 -0.00110007 -0.00506379)
(0.00193323 -0.00163473 -0.00574579)
(0.00133293 -0.000371703 -0.0054938)
(0.000202166 -0.000336083 -0.00603704)
(-0.000606805 -0.00187573 -0.00715469)
(-0.000563766 -0.00169239 -0.00708574)
(-4.53471e-05 -0.000946175 -0.00620505)
(0.00107964 -0.00031041 -0.00524406)
(0.0023153 -0.00080403 -0.00482978)
(0.0037956 -0.00291236 -0.00613555)
(0.00538159 -0.00650112 -0.00848605)
(0.00344092 -0.012535 -0.0126555)
(0.00701807 -0.0215746 -0.0177706)
(-0.0153308 -0.011555 -0.023525)
(-0.0215586 -0.00408533 -0.0241706)
(-0.028079 -0.000340914 -0.0265166)
(-0.0295134 0.00172828 -0.0295134)
(-0.0288056 0.00325354 -0.0327145)
(-0.0267443 0.00462904 -0.0363621)
(-0.0236353 0.00618022 -0.0403131)
(-0.0192587 0.00806278 -0.0440213)
(-0.013108 0.0102746 -0.0464572)
(-0.00643849 0.0128391 -0.0459999)
(0.00676554 0.0129004 -0.0467061)
(0.0134303 0.0104133 -0.0475244)
(0.0195238 0.008199 -0.0454786)
(0.0237545 0.00628246 -0.0421042)
(0.0266432 0.00465266 -0.0383125)
(0.0285372 0.00321218 -0.0346588)
(0.0291084 0.00166489 -0.0313034)
(0.0277011 -0.000388761 -0.0281282)
(0.0213485 -0.00413053 -0.0254883)
(0.0151537 -0.0115812 -0.0243626)
(0.000220068 -0.000714645 -0.00965483)
(-0.000273387 -0.00106706 -0.00728015)
(-0.000727323 -0.0021124 -0.00567182)
(-0.00145386 -0.00268321 -0.00383953)
(-0.00156165 -0.00239891 -0.00156165)
(-0.00119967 -0.00167837 0.00091851)
(-0.0009048 -0.000546317 0.00313154)
(-0.00125511 -0.000482565 0.00498911)
(-0.00166867 -0.00117249 0.00642863)
(-0.00157952 -0.00164767 0.00723791)
(-0.000847474 -0.00153062 0.00768599)
(-0.00045419 -0.00120378 0.00772697)
(0.000440728 -0.00104314 0.00711029)
(0.000833464 -0.000740695 0.005937)
(0.00121281 -0.000770382 0.00459043)
(0.00183963 -0.00169192 0.00277372)
(0.00219251 -0.00237064 0.000628216)
(0.00199421 -0.00273498 -0.00121026)