/*--------------------------------*- C++ -*----------------------------------*\
  =========                 |
  \\      /  F ield         | OpenFOAM: The Open Source CFD Toolbox
   \\    /   O peration     | Website:  https://openfoam.org
    \\  /    A nd           | Version:  9
     \\/     M anipulation  |
\*---------------------------------------------------------------------------*/
FoamFile
{
    format      ascii;
    class       volScalarField;
    location    "80";
    object      p;
}
// * * * * * * * * * * * * * * * * * * * * * * * * * * * * * * * * * * * * * //

dimensions      [0 2 -2 0 0 0 0];

internalField   nonuniform List<scalar> 
112055
(
0.0191873
0.00389334
-0.00767258
-0.0106153
-0.00788402
0.00752942
0.0185613
-0.0104375
-0.0046566
0.0185752
0.00393196
0.0176877
-0.00442077
0.0176772
0.0287019
-0.00109166
-0.0612581
0.0225964
0.00392622
-0.00418029
-0.00119971
-0.000922996
0.003947
-0.00152028
-0.00242844
-0.0067729
0.0413172
0.00561679
0.00748562
-0.00119381
0.00866109
-0.0170929
-0.00175257
-0.0505923
-0.00468466
-0.00131313
-0.00426454
0.0642135
-0.0119447
-0.000224777
-0.00198403
-0.0110657
-0.00087096
-0.00757573
0.0231468
-0.00272393
-0.0504828
-0.00230033
-0.00137934
-0.0108441
-0.0102214
-0.0164242
-0.00105539
-0.0117484
-0.0051682
0.018696
-0.000168166
-0.000621368
-0.0107882
-0.00276267
0.0150911
-0.0022831
-7.43124e-05
-6.91175e-05
0.0115623
-0.00507026
0.0666889
-9.31658e-05
0.00224852
-0.0034098
-0.000826437
-0.0597146
-0.00139484
0.0378621
-0.0377221
-0.0378835
0.00376241
0.0190338
-0.0144549
-0.0114637
-0.000595734
-0.0413507
-0.0101004
-0.00689545
-0.00107041
0.00114205
-0.00547628
-0.00513202
-0.0262304
-0.00504697
-0.00063619
-0.00133514
-0.0058341
-0.00774262
-0.0373498
0.00372132
-0.0186151
0.0283539
0.00865644
-0.000238072
-0.00439099
-0.00110694
-0.00171527
0.00487917
-0.0429075
-0.0601365
0.0115469
-4.38661e-05
-0.000800304
0.00112086
-0.0595737
-0.0382879
-0.00523363
0.00661847
0.00225589
0.0216841
0.0117803
-0.0013599
-0.0254529
-0.00478198
0.00588732
0.00562968
0.0185233
-0.000106035
-0.00197081
0.00478809
-0.056097
-0.00107444
-0.00613341
-0.0422272
-0.000102988
0.0410354
-0.000170161
0.0532044
-0.0122335
-0.000226404
-0.00187966
0.0012995
-0.00750847
-0.0044239
0.001207
0.000392664
-0.019043
0.0115805
-3.96095e-05
-0.00367333
0.0206041
-0.00020863
-0.00136939
-0.000929144
-0.0608156
-0.0009382
0.0161647
-0.00106086
-0.00745403
0.00648836
0.00948926
0.00669491
-0.0101124
-0.00394721
-0.00521189
2.54011e-05
-0.00479989
-0.00431419
-0.00241538
-0.00135456
0.00962311
-0.0174596
-0.00288781
0.0116246
0.00818466
0.00646385
-0.00479339
0.0114026
-0.0184237
-0.00480852
-0.00143851
-0.0057197
-0.00565651
-0.00135786
-0.0181656
-0.00194779
-0.00130017
0.00869112
-0.0135826
0.0162272
4.53029e-05
-0.00244117
-0.0194004
-0.00198289
0.00132079
-0.00173013
-0.00498505
0.00591313
-0.00675859
-9.14489e-05
-0.0159498
-0.0382677
-0.00240208
0.00945019
0.0630878
0.0130681
0.015194
-4.72708e-05
-0.000175973
0.021422
0.0661644
0.0104168
-0.0607573
-0.00175165
-8.11223e-06
-0.00176911
0.0202069
-0.0017486
-0.0183741
0.0105504
0.00829338
-0.00675304
-0.00385783
-0.0109269
-0.00022817
-0.0222369
-0.00506093
-0.00418839
-0.0329289
-0.00291751
-0.00109673
0.00950821
0.00333797
-0.00182754
-0.00128445
-0.00390056
-0.0134295
0.0046385
-0.0242573
-0.0023251
-9.77672e-05
-0.00130419
-0.0668438
0.0987897
4.34827e-05
-0.011306
-0.00422985
5.49831e-05
-0.00295663
-0.0241913
-0.0155233
-0.0120509
-0.000178486
-0.0107647
-0.00220948
-0.00194844
-0.0429502
-0.00493404
-0.0156948
-0.000896802
0.00127865
-0.00616298
-0.0430907
-0.00171099
-0.0331477
0.0220436
-0.00142289
0.0166066
0.0535476
-0.00188266
-0.000187366
-0.00566391
0.0136156
-8.78027e-05
-0.00222616
-0.0165789
-0.00233997
-0.0154654
-0.00399716
-0.00141587
-0.0360504
-0.0627415
-0.0617855
-0.0424394
-0.000792053
0.00431705
0.0128035
0.00785547
0.00542074
-0.00584537
0.00508998
-0.00160412
-0.00108396
0.0139079
-0.00503834
-0.000210948
0.00511609
-0.00336988
0.00467633
0.00539803
0.0105846
-0.00491252
-0.00248474
-0.000623867
0.00456905
0.00869989
0.00934846
0.00488729
-0.0100839
-0.000166413
-0.00128745
-0.00404638
-0.00397235
-0.000244177
-0.00423996
0.00238358
-0.00211239
-9.51036e-06
-0.0154591
-0.0227904
-0.0124518
-0.00260312
-0.00327946
-0.00246003
-0.00296652
0.0542675
0.0301655
-0.00487511
-0.0151796
-0.00772523
5.26356e-05
-0.000793848
0.00436649
-0.00185106
0.00331523
-0.0013834
0.0116103
-0.0091881
-0.0115763
-0.001051
-0.0017982
-0.00154047
0.00249333
-0.0324758
0.063061
-0.0556531
-0.00238612
-5.93793e-05
9.63981e-05
-0.0122315
-0.00022085
-0.0124009
0.0115413
-0.000611934
0.0263531
0.0149117
0.0168956
-0.0510079
-0.00612743
-0.0061247
0.0375586
-0.00133477
-0.00170303
0.0173919
-0.0408016
-0.00169165
-0.0115104
0.107657
-0.000164078
-0.0667514
-0.0334346
-0.00771881
0.00446728
-0.00659188
0.0229716
0.0234142
0.0104947
0.0163927
0.139679
-9.34669e-05
-8.94189e-05
-0.00611344
-0.00597404
-0.00445269
-0.0021407
0.00746589
0.017406
-0.000477149
-0.00417483
-9.4135e-05
-8.96608e-05
-0.0064775
0.0126044
0.022736
0.00433263
-0.000309967
0.000658538
-0.0247039
0.0374909
-0.00519409
0.001191
-0.00976828
-0.00585195
0.000757697
0.021347
0.00501353
-0.0170554
0.0168184
-0.000969327
-0.030219
-0.00849488
-0.00347594
-0.00726058
0.00292045
-0.00919116
-4.54469e-05
-0.00422836
-4.22627e-05
-0.00106848
-0.011636
0.00637455
-0.0152025
-0.00393864
0.00639123
0.0306314
-0.00525777
0.000683745
0.00659621
0.00507994
-0.013095
0.0102049
3.39048e-05
-0.0125456
-0.00871366
-0.00423704
0.0103455
-0.00581645
-0.0127474
-0.0107124
0.0260234
-0.000482166
-0.0125731
0.0981345
0.0256335
-0.0128734
-0.00162085
0.00640864
-0.00835448
0.00361897
-1.86203e-05
0.0370905
0.0252583
-0.00123118
-0.0094939
-0.00390852
0.0058207
-0.00525835
0.00780126
-0.00764863
-0.0628102
-9.24751e-05
-5.35653e-05
0.00923684
-0.000239883
-0.00717767
-0.00347916
-0.000203154
-0.0022346
-0.0109447
-9.99528e-05
-0.00052269
0.0168251
0.00509912
-0.00239342
0.00749932
-0.00175286
-0.0057599
-0.0175579
0.00777167
-0.0100968
-0.00357044
-0.000236226
-0.00445555
5.53665e-06
-0.0515424
-0.070635
-0.000440565
-0.0148336
-0.00234721
-0.0422993
0.0132946
0.00010124
-0.00416626
-0.00352766
-7.08084e-05
-0.0353918
-0.0101164
-0.000101604
0.00996758
-0.00529823
0.00722978
-0.00145057
-0.00332433
-8.61748e-05
-0.000310643
-7.51505e-05
-0.00526949
0.0105037
-0.000111766
0.0051309
-0.00302281
-0.0461645
-0.000191601
-0.000520548
-0.0100783
0.0232632
-0.0162079
0.00286576
0.0670767
-0.000229319
-0.000230451
-6.38403e-05
-0.00762883
-0.0130482
0.00789456
-0.000883421
-0.00158103
-0.00491976
0.0034636
-0.00154495
-9.67893e-05
0.0668765
-0.00448057
-0.000334282
0.00587648
-0.00614205
-0.0598917
0.0531388
-0.000593407
0.0140964
-0.0112523
-0.0763433
-0.0058455
-0.000897228
-0.000475489
-0.000888743
-0.0741086
0.0264123
-0.0177319
-0.011159
-0.0178026
0.00374933
0.00632095
-0.0023168
0.0264805
0.00547271
0.0093751
-0.0241715
0.00723747
-6.17462e-05
-0.0199889
-0.00298732
-9.41002e-05
-0.0105483
-0.0479549
-0.00183353
0.000182706
-0.000260464
0.105543
-0.00491912
-0.00603978
-0.0628917
-0.00235201
-0.0615192
-0.00613541
0.0079732
-0.00116351
-0.040823
2.99775e-05
0.00420842
0.00587706
-0.0176126
0.00970873
-0.0281919
-0.0039719
-2.53015e-05
0.0129431
0.00480282
0.00879814
-9.83527e-05
0.00806232
0.00350567
0.00614579
5.24135e-06
0.00581534
-2.63425e-05
-0.00032918
-3.64807e-05
-0.0043285
0.00655877
0.00323343
-0.00310374
0.00552189
-0.0067503
-0.000745962
-0.0174058
-0.00265504
0.0052727
-0.00487089
0.003436
-0.00526331
0.00826602
0.0120342
-0.000376935
-0.00516037
0.0114188
-0.00181195
-0.00756238
0.0518261
0.00550152
-0.000107726
-0.00133728
-0.0171611
0.00364447
-0.0290486
0.00915452
0.00490946
-0.00176079
0.0051769
-0.0454583
-0.00387722
-0.0115496
-0.0065527
-0.00757706
-0.000608008
-0.0592296
-0.0019047
-0.0576467
-0.00262269
-0.00060589
-0.00124567
-0.00286669
-0.000565294
0.00482386
-0.0011339
-0.000546665
-0.0050604
-0.00599964
0.00300076
0.0244518
0.0755103
0.00812342
-0.0479689
-0.00759576
-0.0703405
-0.00730892
3.36098e-06
0.0198474
2.25403e-06
0.000216133
0.0102769
0.0150016
-0.00605315
-0.016616
0.0099839
0.00822187
5.45823e-05
0.0187075
-2.35339e-05
-0.00458298
-0.0296003
-0.0404034
-0.00038563
0.00556737
-0.0136478
-0.023743
-0.0159033
0.0179456
-0.00486649
-0.000261064
0.00533995
0.0195996
0.0792029
-0.00122913
-0.00039113
-0.00736736
-0.00280263
-0.0358583
-0.00488499
0.0130956
-0.00770653
-0.000754377
-0.0479713
-0.0163614
0.000176909
0.00737791
0.00405333
0.00774361
0.0243259
0.0188623
0.0228345
0.0133145
-0.000204661
-0.000760274
-0.00519503
-0.00123254
0.00805973
-0.0012612
-0.00458857
0.0046852
-0.00506769
-0.00230659
0.129977
0.000163626
0.00896117
-0.00292368
-0.00280687
-0.00750139
-0.000302947
-0.00255985
0.0132027
-0.000941453
0.00439771
-0.00251675
-0.00405416
-0.00490283
-0.00185775
-0.0159862
-0.000189569
0.0100266
0.0128207
0.0167793
-0.000173447
-0.00811054
-0.00431267
0.0151935
-0.0603667
-0.00516406
0.00635925
-0.00115473
0.0503264
-0.0082346
-0.0036636
-0.00108752
-0.0129986
-0.00150442
-0.0212906
0.00755713
-0.0658271
0.000596561
-0.0139383
0.0112867
0.00354384
0.0052598
-0.000304253
-0.00210422
-0.000212005
-0.0138956
-0.00367013
0.0110381
0.00630251
-0.000398784
0.0168742
-0.000593926
-0.000213935
-0.00130105
-0.0163041
-0.0295193
0.0397308
0.0660174
0.00621609
-0.00466168
-0.00033351
6.49528e-05
-0.00208635
-0.00813913
-0.00316945
-0.000802491
-0.000814393
0.00527161
-0.0618671
-0.00384744
-0.000120598
0.0147197
-0.0122945
0.0178843
3.10747e-05
-0.00313479
-0.0707375
-2.03181e-05
-0.000253129
-0.00108292
-0.00443602
-0.0120255
-0.00385699
-0.00588578
-0.00183267
-0.0401897
-0.0061292
-0.00064522
-0.0392953
-0.00489837
0.00467685
-0.000246864
-0.00497077
0.0151218
-0.00436434
-0.0156503
-0.0994242
-0.000332276
-0.02116
-0.0161496
-0.00215621
-0.000832246
-0.025655
-0.00428221
-0.0117416
0.0133203
-0.00585485
-0.0179139
-0.00184969
0.00829383
-0.000738701
-0.00609298
-0.00319791
0.00645753
-0.000314307
0.00844319
-0.00337085
-0.0107496
0.0159914
-0.00872863
-0.0157692
-0.000143045
-0.000733411
0.015743
0.0183776
-0.00341652
0.128959
0.00488557
4.21724e-05
0.00538832
0.0110369
-0.00866983
-0.00343255
0.138517
0.0144145
-0.00490691
-0.00186614
-0.0010066
-0.045755
-0.00390227
0.00837661
-0.000729517
-0.00589508
-0.00224347
0.0395965
-0.000730266
-0.01779
0.000136851
0.0186584
-0.000618532
0.00782001
-0.00025861
0.0793206
-0.00143258
-0.00365643
-0.0396765
-0.0061429
8.00321e-05
0.00537806
0.00852729
-0.0353702
-0.00478829
-0.000298326
0.00715903
0.0148414
-0.0664326
-0.0291032
0.00521342
0.00776668
0.00011935
-0.0150932
0.00455693
-0.00246013
-0.00109006
-0.000191795
-0.00331963
-2.60608e-05
-0.00372923
-0.000189046
0.0133779
-0.000377516
0.00338325
-0.00762827
0.00519579
-0.00495702
-0.0129769
-0.040511
9.6919e-06
-0.00778529
0.0862042
-0.000796348
-0.0622776
-0.00961118
0.00349266
-0.0121573
-0.000302578
-0.0154482
-0.0397413
-0.000334585
0.0041723
-0.011228
0.00394123
0.0182844
-0.00701891
0.00196827
0.00332113
-0.0619186
0.0138477
-0.00251801
-0.00593595
1.9797e-06
-0.00219014
-0.00119168
-0.000197449
-0.00178262
-0.00748336
-0.00305197
0.00461394
-1.15413e-05
0.00867238
-9.80935e-05
-0.00208346
-0.000290926
0.000420231
-0.00522456
-0.000122299
-0.00839453
-0.000335706
-0.00634974
-0.00218081
0.00860528
-0.000591544
0.0141531
0.0101658
-0.000543588
0.00213092
-0.0335975
-0.001091
-0.00148162
0.000321609
-0.0139729
0.0193603
-0.0496467
0.0063092
-0.000792976
0.00147428
-0.00626751
0.0218612
-0.00356615
-0.00517666
-0.000150796
-0.0303496
-0.00104078
-0.00376794
-0.00351269
-0.00381101
-0.00736127
-0.0112938
-0.0371504
-0.00108846
-0.0758356
-0.000668897
0.00730488
-0.00850906
0.0050771
-0.0145199
-0.00950587
-0.00666575
-0.0363733
0.035367
-0.00356773
0.0182379
0.00301528
-0.000362107
-0.00173411
-0.027286
0.00885482
0.00423375
-0.00100432
-0.0148636
0.00224723
-0.00134049
-0.000384964
0.0175093
-0.00171561
-0.0100477
0.00917068
0.00571266
-0.00283751
0.0114048
-0.0043854
0.00877148
-0.00503952
-0.00699059
-0.0141853
-0.00647284
-0.00749883
0.0415747
-0.00946885
0.00199751
0.00225436
-0.00431201
-0.0560664
0.000451628
-5.25645e-05
-0.0026647
-0.0251925
0.0050634
0.00707745
0.00858729
-0.0029734
0.00576577
-0.00892642
-0.0423338
0.00105367
-0.00221771
-0.00556912
-0.00762451
-0.00148487
0.00413978
-0.000498283
4.17432e-05
0.0227304
-0.00626099
-0.00867002
-0.00557663
-0.000536792
0.0654834
0.00726045
0.00167746
-0.00488725
0.00242
0.00576465
0.0158159
-0.000558217
-0.0420402
0.00741515
-0.00506324
-0.000206506
0.00534283
6.16e-05
-0.045057
-0.000193184
-0.0227203
-0.000361585
-0.00103632
0.00555638
-0.018632
-0.000351718
-0.000361138
-3.96853e-05
-0.00263919
0.00447774
0.0229962
-0.00385129
0.0774392
-0.0295409
-0.00654198
-0.0127256
-0.0450344
-0.000649946
0.0159048
0.00873238
0.010613
-0.0170746
-0.000114031
-0.0715967
-0.00362355
-0.00754847
-0.0573012
-0.00312956
0.00919015
-0.00418965
-1.61057e-05
-0.000135367
0.00418116
-0.0106483
-0.006301
-0.00484059
-0.000421887
-0.00560307
-0.00234358
-0.0162401
-0.00927944
-0.00235981
0.000106057
1.20592e-05
-0.000634921
-0.000379071
0.0505068
-8.08599e-05
0.00891963
-0.0361149
-0.00319413
0.00507111
-7.27278e-05
-0.00187114
0.00139474
-0.0127991
-0.00403943
-0.000664609
-0.000630364
-0.0189507
-0.0114169
-0.000187072
-0.00113997
1.67695e-05
-0.000240519
0.0205448
0.00390624
-0.000927059
-0.00224731
0.00502835
-0.00464202
0.0724594
-0.00580272
-0.00380113
0.111433
0.00421613
-0.0549669
0.010475
-0.00277449
0.00615991
-0.00583906
-0.00440038
0.0138692
0.0284984
-0.0201743
-0.000803212
0.0797605
0.000145216
-0.0289003
-0.0475
-0.00869314
-0.0048705
-0.0164586
-0.00214168
-0.000171742
-0.00329754
-0.00130799
0.000109539
0.0159352
-0.000145957
0.00918932
-0.000165846
-0.00646647
-0.0211751
-0.00715273
0.00060221
-0.000338878
0.015163
-0.0102495
-0.00606137
0.0160046
0.00683777
-0.00167509
-0.000651638
-0.000331678
-0.0239638
-0.0110752
0.00801515
0.00615525
0.0246976
-0.000548836
0.00315977
-0.00561831
-0.00464515
-0.0196502
1.68047e-05
0.0303663
0.00432671
-0.00550423
0.0355886
-0.00127155
-0.0731783
0.0185774
-0.000367487
0.00474598
-0.000102002
0.110313
-0.00228028
-0.0608818
-0.000637648
-0.000928013
-0.000735327
-0.000459476
-0.00698415
-2.24137e-05
-0.0130177
-0.040043
-0.0176922
-0.0105207
-0.000582554
-0.0363959
-0.0371466
-0.0597742
-0.00134233
0.0903231
-0.0624339
-0.00510119
0.00505777
-0.00964727
-6.64377e-05
-0.000172213
-0.00402204
-0.00141825
-0.00243944
-0.000868799
0.00921488
-0.0409651
-0.00625139
-0.00345201
-0.0459698
-0.0390157
0.00791584
-0.000931025
-0.00339058
-0.00563371
0.00568641
-0.00543648
0.00515165
0.0121045
-0.0143166
0.0571033
-0.00021104
0.0307914
-0.0233704
-0.00254028
0.00649362
-0.00115629
-0.000549161
0.0136553
-0.0157248
-0.00422862
0.0152523
-0.00422381
-0.000337972
-0.00791461
-0.00729288
-0.0606107
-0.0123037
0.00937465
-0.00199676
-0.013821
0.000918481
0.074132
-0.0443005
0.00866238
-0.00264927
0.00118546
0.0425402
-0.00328231
-0.00727097
-0.000339222
0.00361958
-0.00515895
-0.0048528
0.00656258
-0.018543
-0.00194438
-0.00521832
-0.000305992
-0.000810707
0.00757468
-0.00472882
-0.00134469
0.00665244
0.00309462
-0.0157029
-0.00905837
0.00546326
0.0656332
0.0161737
-0.00197907
-0.00628793
0.0029101
0.00936716
-0.0054439
0.000459637
0.0124946
-0.00313799
0.0566399
-0.0565651
-0.00010955
-0.00738072
0.00728841
-0.0114544
-0.0406224
-0.00977834
-0.00349351
-0.00885266
-0.0556942
0.00864609
-0.00516345
0.0911922
-0.00162569
-0.00428491
0.0074231
0.00474642
0.00563819
-0.00166584
-0.00329576
0.0100566
-0.00297761
-0.0300885
-0.0523354
-0.0210426
-0.00427923
-0.0107923
-0.00552604
-0.00330877
-0.00485964
-0.0063295
-0.00516812
-0.00443364
0.00938634
0.0159657
-0.0118416
-0.0140458
-0.00470266
-0.000269479
-0.00154868
-0.000965948
-0.00062283
-7.42125e-05
-0.0110819
-0.044415
0.00688385
-0.0515301
-0.000274712
-6.11984e-05
0.0110965
-0.000315738
-0.0233694
-0.00159236
0.00873911
-0.00117685
-0.00428809
-0.0073111
-7.27064e-06
0.056952
-0.00101929
-0.01232
-0.000567279
-0.00020095
-0.0073949
-0.00903239
0.00671941
0.00307195
0.0475017
-0.00284403
0.00973543
-0.00537416
-0.0140926
-0.00713084
-0.00605646
-0.000201362
-0.000380603
-0.0188154
-7.92581e-05
-0.00414028
0.00925348
-0.0201104
-0.0607558
6.71328e-05
-3.29278e-05
0.00203287
0.00727562
0.00219884
0.0243763
-0.00424318
-5.12936e-05
-0.00824048
0.00504255
0.00301687
0.00732596
-0.0229528
-0.0219123
-0.00506112
-0.0606646
-0.00410599
0.0109423
-0.000268431
-8.51162e-05
-8.7906e-05
0.00716558
0.0243759
7.20035e-05
-0.0478085
0.0601031
0.000197844
-0.0204499
-0.000383292
0.00881062
-0.036858
-0.0287272
-0.00959907
-0.0102055
-0.0144022
0.00689215
0.00458533
-0.0593652
-0.00732341
0.0258123
0.0120935
-0.000207555
0.0133362
-0.0160796
-0.00475625
0.00466855
-0.0173499
0.00167124
-0.00509695
-0.00123649
-0.00267997
-0.0363773
-0.00208568
-0.0594169
-0.0566685
-0.000587871
-0.000250475
-0.0257518
0.0117643
-0.00266503
-0.00473352
-0.0332953
0.0139724
-0.000255602
0.00288799
0.0841422
0.0043418
-0.0203122
-0.0161517
0.00899701
-0.00277606
-0.0633389
-0.00180738
0.00190943
-0.0767324
0.109411
0.00189596
0.0073095
-0.023498
-0.00480801
0.00944658
-0.00167359
-0.00568492
-0.00500285
-6.58903e-05
0.0170292
0.0985186
0.00733345
-0.0038628
-0.00309373
-0.00351121
-0.0044901
-0.00393614
0.0465351
3.17206e-06
0.0499043
-0.00105294
-0.00630676
-0.0396083
-0.0062688
-0.0108536
-0.00105964
-0.00423325
-0.000811142
0.00912044
-0.00079372
-0.000225517
0.00171548
-0.00164679
0.045686
0.00356724
0.0160591
-0.045864
-0.000223479
0.00699913
-0.066567
0.00166607
0.0083275
-0.00043698
0.0225392
0.0349217
-0.0474462
-0.00980436
-0.0050244
-0.00483307
-0.012591
-0.00235567
-0.00844327
0.0103593
-0.00831492
-0.0111882
0.0369424
-0.00744688
-0.00489983
0.015325
-0.0996607
0.00390551
-0.00309497
0.00778683
-0.00101783
0.00687263
-0.00191453
-0.00101951
0.00708135
-0.00280744
-0.0066838
0.01113
8.74062e-05
-0.00392307
-0.0045603
-0.000322511
0.00449866
0.00598782
-0.00060001
-0.0130399
-0.0066204
-0.0187732
-0.00179409
-0.00416332
1.03955e-06
-0.00102283
0.124495
-0.000904126
0.00531828
-0.00971531
-0.0562467
0.00640843
-0.000942815
-0.000246946
0.00866638
-0.000611817
0.0172109
-0.0596633
-0.00204015
0.00976688
0.049046
-3.95063e-05
0.0106805
-0.00237295
0.00541004
-0.00199768
-0.0136009
-0.00703148
-0.000235151
-0.0179918
0.00760849
0.00598248
0.01284
-0.000926943
-0.0039727
-0.00365117
2.04424e-05
0.00847873
-0.0021593
-0.000669413
-0.0121074
-0.000938956
-1.70833e-05
-0.000877565
-0.0447002
-0.000841679
0.0054882
0.00772016
-0.0120923
0.0086032
0.00436781
0.00523858
-0.00821949
-0.000395833
-3.74754e-05
0.00679913
-0.00380363
-0.00774154
-0.0018718
-0.0622229
0.00224964
0.00869008
0.0181021
-0.0138896
-0.00783316
-0.00872812
-0.0027346
0.00248779
0.00729547
0.00840265
-0.00079652
0.0323826
0.00670468
-0.00016393
-0.00250898
0.0234465
-0.00373705
0.00788924
-0.000837689
-0.000226885
-0.0203235
-0.0451295
-0.0062157
0.00546951
0.0280946
0.0654843
0.0106272
0.0035831
-0.0243425
-0.00492842
-9.57474e-05
-0.00567504
-0.000391806
-0.00033722
-0.000389539
0.00825717
-0.000656434
0.0011501
-0.00219978
-0.00295309
-0.000146505
-0.0598105
-0.0585732
-0.00104066
-0.00030316
-0.027242
-0.0022791
0.0175379
-0.00640755
0.0137402
0.00578994
-0.00304719
-0.0117717
0.00243605
-0.000953624
-0.00223994
-0.00504983
-0.000100412
-0.00201795
0.00744449
0.0132821
-0.0592744
-0.0087796
-1.45426e-05
-0.00404524
-0.000934709
-0.000666222
-0.000181189
-0.00246207
-0.0417589
-0.0255359
-9.29377e-05
2.68197e-05
-0.02971
-0.000371067
0.00422617
-0.00734909
-0.004196
-0.000420295
0.0106929
0.00704142
-0.0109015
0.00661051
-0.0029735
-0.00341551
-0.0015127
-0.00118686
0.0209276
-0.0591615
-0.062957
0.036262
0.00216002
0.00558163
-0.00158832
0.0228541
-0.0166514
0.00828207
-0.0477453
0.00640398
-0.0727663
-0.00474875
-0.0242526
0.000198605
-0.00327759
-0.0112557
0.0470752
-0.0548097
-0.000198138
-0.00644864
-0.0042704
-0.0232234
-0.00367286
0.00805704
-0.00218886
0.0046391
0.00797805
-0.00328739
-0.00699539
-0.0342627
-0.0167706
0.00631802
-0.00465162
-0.00142554
-0.0658754
0.00468106
-0.00280341
-2.44804e-05
1.25156e-06
-0.00616094
0.0081347
2.78934e-05
0.0175789
0.00758706
-0.00018434
-0.000818908
-0.0150295
-0.0625013
0.00455229
0.00911145
-0.00013329
-8.78426e-05
0.00608765
-0.00219228
-0.0086992
0.0422686
-0.00214152
-0.000413733
0.0100187
-0.000421265
-0.0275288
-0.0611089
0.00728865
-0.0435353
-0.00109936
-0.0228084
-0.00740315
-0.00511093
-0.00195223
0.0102268
-3.32531e-05
-0.0113563
-0.00949071
-0.00472116
-0.0628458
0.00865427
0.005213
-0.0246684
0.0040651
-0.00142272
-0.0129632
0.00575031
-0.00509943
-0.00108604
0.0115522
0.0031561
-0.00111532
-0.00252307
0.0092242
-0.00518552
-0.0101512
-0.0075353
-0.00379853
-0.0163348
0.00468275
-6.17051e-06
-0.0019441
-0.00438927
0.0054227
-0.000262066
0.0108717
-0.0024426
0.0108164
-0.00451368
-0.000895166
0.00514
0.0102817
-0.00438059
-0.012223
-0.00340728
-0.00526037
0.010383
-0.0383472
-0.000326947
-0.044412
-0.00444834
-0.00793295
-0.00471414
-0.0121641
-0.00636204
0.00158011
-0.000302291
0.00520779
-0.0204909
-0.00067019
-0.000632896
-0.0230334
-0.00209159
-0.00565043
-0.00788179
0.00554486
-0.00975556
-0.0191582
0.00916982
-0.00488488
0.00861062
-0.00545093
0.0266754
-0.00595595
0.000910762
-0.000408428
-0.00184436
-0.000106122
-0.00326628
1.63442e-05
-0.00121128
0.00651514
0.00519729
0.00754351
0.0112348
-0.00444391
0.0150091
0.0038594
-0.0588303
5.14534e-05
-7.13689e-05
-0.049024
0.00580094
-0.044545
0.00360043
-0.010961
2.00319e-05
0.00683489
-0.0134885
-0.00376782
-0.0114598
-0.00208136
-0.00119644
-9.37551e-05
0.00361332
-0.00549397
3.07831e-07
-0.00307849
0.00577068
-0.00521776
0.00852642
-4.15234e-05
0.00781097
-0.0548975
0.0566634
0.00812551
-0.025502
-0.00231256
0.00392937
0.000729267
-0.00166151
-0.000703292
-0.00183543
-0.0140684
0.028979
-0.00237797
-7.78558e-06
-0.00824699
-0.00320404
0.00104375
-0.00055844
-0.00145593
-0.000211319
0.00796231
-0.000213598
0.000147112
-0.00299392
-0.00502833
0.0112046
0.0109419
-0.000271476
0.0390551
-0.00427856
-0.000849211
0.00620302
-0.000245706
-7.83545e-06
0.00891255
-0.000883941
-0.000262678
-0.00941949
-0.00704435
-0.000859672
0.00371577
0.00854168
-0.00508565
0.0281082
0.00640217
-0.0011253
0.000507157
-0.0588593
-0.00936477
0.00320801
-0.000807871
-0.000146623
-0.0188312
-0.0016933
-0.00525819
0.0191421
-0.00110808
-0.0154005
-0.000969639
0.00889915
-0.011165
-0.0160262
0.00155797
-0.00413908
0.00864784
-0.00614209
0.0017871
-9.73133e-06
0.007547
0.00167013
-0.000866633
-2.03021e-05
-0.0309843
-0.0481023
-0.0498997
-0.00042284
0.0064973
0.0394332
-0.0147125
-0.00105909
0.0102295
-0.00010014
-0.000937045
-0.0215426
-0.011337
-0.00251024
-0.0378589
-0.00162513
-0.000212033
-0.000910551
0.0108121
-0.0508442
-0.00533372
-0.00535342
0.000323829
0.000606586
-0.00176562
-0.00434482
-0.00093399
-0.0189373
-0.000207986
-0.0402869
-0.000908059
0.00938248
0.0116145
0.00344991
0.0030669
-0.00496541
-0.00164469
0.00366505
-0.00296773
0.0197448
0.00946037
-0.00522655
-0.000514687
-0.000895354
0.0878568
0.0186006
-0.00379228
0.0272614
0.00523145
-0.000531421
0.00790973
-0.000201794
0.00311405
-0.0136945
-0.00127778
0.00430021
-0.00301353
0.0244715
-0.00310559
-0.000389214
0.0167135
-0.00288739
-0.00993703
0.00441499
0.0172263
-0.00116225
0.0171362
0.000496432
-0.0208685
-0.00170675
0.0365161
-0.0486725
0.00595792
-0.00117513
-0.00548409
-0.00410177
0.00174572
0.0051978
0.00607475
-0.03579
0.00487189
-0.0247991
-0.00505711
-0.0369506
0.00176291
-0.00512979
-0.0237301
-0.0037655
0.0232432
-0.00434582
0.0586198
-0.0104985
-9.63916e-05
-0.000455588
-0.000671232
0.00669212
0.00458525
0.00400926
-0.00413625
-0.00754847
-0.0495094
-0.0185315
-0.0176137
-0.000241938
-0.00102718
-0.000504049
0.00358972
-0.00561508
0.00872367
-0.00837591
0.00414791
0.00624683
-1.0859e-05
0.0326678
0.00731754
0.0306829
-0.00191368
-0.00171318
-0.0193372
0.0079597
-0.0601369
-0.00405327
-0.00100019
-0.0022093
-0.00685199
0.00782081
-0.000447322
0.0113171
-0.00155344
-0.00390378
-0.000328986
-0.000140977
-0.0213364
0.0207907
-0.0157117
-0.00906898
-0.0305916
-0.00436114
-0.00274418
0.022923
0.0181729
-0.00372749
-0.000142684
0.00748064
0.00261277
-0.00275215
-0.0039611
-0.0154085
-0.0615363
-0.00300958
0.00839609
-0.00385903
-0.00766019
1.58225e-05
0.0311335
0.0134704
-0.00490304
-0.00546171
0.00233911
-0.00499397
-0.0576077
-0.000835809
-0.0637587
0.00418291
0.0128651
-0.00268318
-1.79006e-05
-0.0610203
0.0775585
-0.00052889
-0.00383872
-0.00510333
-0.000802134
-0.000770905
-0.000515844
0.00770379
0.0221668
-0.00651775
0.00709674
-0.0496001
0.00567102
-0.0116608
-0.0313988
-0.0013991
0.0319393
-0.000788486
-0.0651667
0.00580358
-0.000108536
-0.000324384
-0.0331594
-0.00120499
-0.0180259
0.00888261
-0.0230823
0.00680815
0.0134777
0.00130923
0.0081177
-0.00331397
0.00856031
-0.0450036
0.0115614
0.00571346
-0.000550063
0.0163323
0.00431978
-0.00178404
0.00645743
0.00359498
0.00426011
-0.0692088
-5.77651e-05
-0.0481692
-0.00460977
0.0295891
-2.8553e-05
-0.0024073
0.0141116
-0.0413275
-0.000544208
-0.000311218
-0.000979692
0.035227
0.00516294
0.0168459
-0.000502125
-0.00339465
-0.0694004
0.00497724
0.00303673
-0.000148
0.00657357
-0.00265327
-0.0052356
-0.00177991
-0.00789883
-0.00143082
-0.000460449
5.11114e-05
0.00836716
-0.00982778
0.00270749
-0.0281634
-0.00117064
-0.0264902
-0.000561514
-0.00976072
-0.00881265
-0.00311231
0.00212781
-0.00961413
0.0111557
-0.0123568
0.0233245
-0.0047249
-0.00818743
0.00556413
-0.00088656
-0.00445004
0.000948555
0.0216167
0.00675486
0.0800544
-0.00345126
0.00216929
0.00651968
0.0159847
0.020277
-0.000843135
-0.000724443
-6.49054e-07
-0.00211622
-0.0037825
-0.0058879
0.0691007
0.0953052
-0.00654263
-0.011773
0.00858094
0.0144704
-0.00861765
3.08485e-05
-0.079553
0.00891484
-0.000573875
0.00600739
-0.00413344
-0.000906566
-0.0117889
-0.0211517
-0.000826186
0.0211227
-0.000639847
-0.0650065
-0.00250257
0.00599642
-0.0213763
-0.000713237
-0.0230752
0.00105231
-0.0145279
-0.00356399
-0.000565719
-0.000579808
-0.0520333
-0.0229361
0.00789487
-0.00108594
0.0178384
0.00467926
-0.0429926
-0.0440961
0.0127508
-0.00485427
0.00821387
0.00610675
-0.00415063
0.0072449
-0.0115752
0.00939893
-0.00601154
-8.38901e-06
0.000883835
-0.00180788
-0.00468292
-0.0653563
-0.000819342
-0.00266748
-0.00693796
-0.0016972
0.00201999
-0.0493293
-0.0630107
0.00486608
0.0285524
-0.0640459
-0.0039235
-0.0699054
0.00129214
-0.00360986
0.00866542
0.0104745
0.00622524
-0.0188289
0.000339093
-0.0630148
-0.0560579
0.00135338
-0.00696922
0.0086349
-0.0460583
-0.00445201
-0.00282035
-0.0692671
-0.0619355
-0.0516123
0.00326333
-0.00280005
0.00691784
-0.000135823
-3.81108e-05
-0.00522075
0.000115515
0.00862985
-0.012459
-0.00181987
-0.0033906
0.00435806
0.00747324
0.00975467
-0.0569097
-0.00534285
-0.00114189
3.54612e-06
0.00480774
-0.00931364
0.0172243
-0.00915
0.00651489
-0.00254728
-0.000284058
0.0049229
-0.000843733
0.00787379
0.00616171
-0.00584214
-0.02748
-0.0214296
0.0290169
-0.0048531
0.00597196
-0.00521468
-0.0106087
-0.0622202
-0.00425753
-0.0102683
-0.0357525
-0.0394722
-0.00413031
-0.0670615
-0.0274992
0.00246886
0.00394972
-0.0019949
-0.00140839
0.00581543
0.0160131
-5.50149e-05
-0.00599371
-0.00323322
-0.000144642
-0.00128893
-0.00866175
-0.000141108
0.00881748
-0.00287372
-0.00909908
-0.00515856
0.0294285
0.000565557
0.00439592
-0.00339737
-9.24549e-05
-0.0154812
-9.57748e-05
-0.000615427
-0.00106074
-0.00190529
-0.0593914
0.000536794
0.0221819
-0.0138056
-0.0386069
-0.00512214
-0.00516528
-0.00466037
-0.0455122
-0.0208603
0.000307439
-0.000403795
-0.0679126
0.00922264
-0.000415143
0.00693983
0.0407389
-0.000566793
0.00525874
-0.000271221
0.0471035
0.00122359
0.004901
0.00617567
-0.00077932
-0.000791934
-0.000234247
-0.0102899
-0.0363786
-0.0499273
-0.0120301
0.00911359
-0.000193409
0.00599978
-0.00055209
-0.00214454
-0.000606643
-0.000992436
-0.00413046
-0.000205253
-0.00647743
-0.0651361
-0.0019952
-0.0485895
0.0106067
-0.00100234
-0.00202976
-0.00987169
0.000142119
-0.00127685
-2.52515e-05
-0.00989604
0.00690138
-0.000575224
-0.000326301
-0.00210334
0.00347886
-0.00369509
-0.0602817
-0.000933157
-0.000804568
-0.0033664
0.00492044
0.0152763
-0.00420111
-0.00325172
-0.0556697
-0.000605965
0.00919427
0.00550813
0.00489559
0.000497068
0.00780735
0.0047998
0.0319618
0.00859166
-0.000118551
-0.000366673
0.000167386
-0.000632744
0.0021964
-0.0242171
-0.000861556
0.00526688
-0.00019745
-0.0150645
0.00628948
6.04301e-05
-0.0103973
-0.000232555
-0.00735527
-0.0305367
-0.00319789
0.0449072
-0.000367352
-0.00408446
-6.30566e-09
0.00545753
-0.0565432
-0.000838645
0.0327491
-0.000641851
-0.00980567
-0.000830562
-0.000534956
-0.00474593
0.00766823
-0.00012231
2.07595e-06
0.00817334
0.0288363
0.00380341
0.00654415
-0.00113292
-0.0272257
0.00774136
-0.00903462
-0.000127461
-0.0281058
-0.0145133
-0.001316
0.00298733
0.00327256
0.0086942
0.00518912
0.00335184
-0.000524232
-0.000838824
0.0419602
0.00708595
-0.000560154
0.00610321
-0.0153004
0.00425332
0.00461892
-0.00821353
-0.00275332
-8.90531e-05
-0.000152415
0.00732909
-6.33325e-05
-0.0114232
0.0116379
-0.00606101
-0.00131903
-0.000630651
0.0104912
-0.00992211
-0.0196037
-0.000156944
-0.0314852
-0.000731883
-0.0100859
-0.00339519
-0.000320271
-5.9618e-05
-0.000787527
-0.0155041
0.000129867
-0.000275556
0.00538639
-0.0172389
-0.0495878
-0.000682672
-0.000459146
0.00391187
0.000142866
-0.0160324
0.00563264
0.00136011
-0.00583541
-0.00156111
-0.00425252
0.0158885
-0.00105711
0.00391851
-0.000767742
-0.00636488
0.015342
-0.0279824
0.0075041
-0.0260338
0.000128131
-0.00695007
-0.00148596
-0.0371415
-3.73322e-05
0.005124
0.000134305
0.00596365
-0.000830118
-0.00119077
-0.00344681
-0.0511664
0.0150531
-0.0483996
0.0040001
0.00399425
-0.00576993
-0.000565914
-0.0169896
-0.000198466
-5.74245e-05
-0.002853
-0.00387708
0.00014262
0.0053591
-0.000537088
0.00611971
-0.00358124
-0.0138637
-5.15583e-05