/*--------------------------------*- C++ -*----------------------------------*\
  =========                 |
  \\      /  F ield         | OpenFOAM: The Open Source CFD Toolbox
   \\    /   O peration     | Website:  https://openfoam.org
    \\  /    A nd           | Version:  9
     \\/     M anipulation  |
\*---------------------------------------------------------------------------*/
FoamFile
{
    format      ascii;
    class       surfaceScalarField;
    location    "80";
    object      phi;
}
// * * * * * * * * * * * * * * * * * * * * * * * * * * * * * * * * * * * * * //

dimensions      [0 3 -1 0 0 0 0];

internalField   nonuniform List<scalar> 
167688
(
-0.0421968
0.0254392
0.0167575
0.00800919
-0.0735526
0.0655434
0.035907
0.0487425
-0.0846495
0.0396653
-0.0858094
0.0461441
0.104659
-0.0946598
-0.009999
-0.0730219
0.0130835
0.0599384
0.0419239
-0.024659
-0.0172649
-0.0384469
0.0781123
-0.125357
0.0424729
0.0828839
-0.0261269
-0.00370849
0.0298354
-0.051706
0.0597152
-0.0616491
0.0349188
0.0267303
0.117398
-0.0897776
-0.0276202
-0.0464147
-0.0152344
-0.037288
0.0169542
0.0203339
0.0418797
0.0320529
-0.0739326
0.0189938
-0.00262838
-0.0163655
0.0211275
-0.0259413
0.00481374
0.0300497
0.0389429
-0.0689925
0.108549
-0.0663903
-0.0421588
-0.0827645
-0.0224917
0.105256
0.0469823
0.0525923
-0.0995746
0.0625957
-0.032546
-0.0890769
0.0646836
0.0243932
0.0928168
-0.0114091
-0.0814077
-0.0793916
0.0296048
0.0497868
0.0123951
0.0103691
-0.0227642
0.0718164
-0.0802082
0.00839182
-0.0911604
0.0181385
9.80319e-05
-0.0828626
0.0117418
0.0691938
-0.0809356
0.0613242
-0.058169
-0.00315518
0.135513
-0.121477
-0.0140356
-0.00713966
0.0052198
0.00191986
-0.0713189
-0.0540379
-0.117611
0.0780612
0.0395498
0.0527685
0.0557805
0.00443789
-0.0140623
0.00962443
0.0271966
0.0381379
-0.0653345
-0.0567534
-0.0369944
0.0937478
0.0341619
-0.0918987
0.0577368
-0.0637722
0.0140924
0.0496798
-0.0746439
-0.010806
0.0854499
0.0655036
-0.0295966
0.0410769
-0.0199494
0.0405588
-0.0672637
0.0267049
-0.00528493
-0.00185473
-0.107038
0.000969287
0.106068
-0.0990496
0.0359693
0.0630802
-0.00197425
-0.061798
0.0706934
-0.0293718
-0.0413216
-0.0263124
0.023407
0.00290534
0.0901023
-0.0881245
-0.00197789
-0.0550343
0.0822309
0.0064575
-0.0703906
0.0639331
0.0227672
0.0191567
-0.0730377
0.0461282
0.0269094
0.0609957
-0.0161974
-0.0447983
-0.0342833
0.00414927
0.030134
0.0727233
-0.0321645
0.00851936
0.0326133
-0.0411327
-0.0428026
-0.0642351
0.117614
-0.0355169
-0.0820966
0.000280306
0.117333
-0.00717943
-0.0295556
0.036735
0.126287
-0.0732833
-0.0530037
0.0142669
-0.00982896
0.109662
-0.0875021
-0.0221603
-0.0611749
0.00533789
0.055837
-0.0857835
-0.0156699
0.101453
0.0490628
0.011933
-0.0040248
0.00227246
0.00175235
-0.0621331
-0.0269437
-0.0268577
0.0212315
0.00562623
-0.011873
0.0401093
-0.0282363
-0.00941502
0.0123993
-0.00298428
0.0903641
-0.00564851
-0.0847156
-0.0194295
0.0464077
-0.0238725
-0.0225352
-0.0590094
0.00397509
0.0140664
0.0669191
-0.0809856
-0.0021743
-0.00724071
0.04799
0.0227034
-0.0659314
-0.0134601
0.111377
-0.0694974
0.0158074
-0.0700726
0.0542651
0.0718894
-0.0507229
-0.0211665
0.0672324
-0.0607749
0.00339172
-0.00532747
0.00193575
-0.0665833
0.0847893
-0.018206
0.135154
-0.0582526
-0.0769011
-0.0496582
-0.0679528
0.0353061
0.0365833
0.0299826
0.0746762
0.0335633
-0.0454362
0.118504
-0.0281403
0.0764137
-0.0503706
-0.0260431
-0.0281625
-0.00912558
0.0787709
-0.0670291
-0.0578399
-0.0151978
0.0592273
0.0581705
0.111869
-0.107598
-0.00427161
-0.0923677
0.0661862
0.0261815
0.0633161
-0.102677
0.039361
-0.00676959
0.0367384
-0.0299688
-0.0157948
0.00328712
0.0125077
-0.0484325
0.0412531
-0.0566759
0.0920909
-0.0354151
0.0777518
-0.116412
0.0386598
-0.0640419
0.0798493
-0.000696991
-0.00332781
-0.047394
0.0470995
0.000294459
0.0453795
0.0319231
-0.0773027
-0.0723411
0.0470164
0.0253247
-0.0754596
0.0142847
-0.0576078
0.0202001
0.0374077
0.04243
-0.00490912
-0.0375209
0.00585585
-0.0717738
0.0659179
0.00384303
-0.000451312
-0.127729
0.0898801
0.0378491
0.0510181
-0.0822693
0.0312513
-0.00811922
0.0799356
-0.0398963
0.0137694
0.0606254
-0.0840339
0.0234085
-0.0548315
0.0889934
-0.0199356
0.0832516
-0.00166525
-0.0174219
0.0190872
0.00191093
0.0646645
-0.0665754
-0.0859083
0.0223121
0.0635962
0.0334955
-0.0402651
-0.0275047
0.0881301
0.0302958
-0.0179007
0.0217848
0.0730422
-0.094827
0.0208662
-0.0043701
-0.0164961
-0.0168396
0.0549775
-0.102895
0.0461421
0.127734
-0.0906682
-0.0370658
0.103117
-0.0745273
-0.0285895
-0.0446089
-0.0278062
0.0724151
0.0501626
-0.00296786
-0.0471947
0.040014
0.0631027
-0.0548035
0.0491706
0.00563294
-0.0701315
-0.00236406
0.0724956
-0.00833988
0.0132532
-0.00491333
0.0201231
-0.0767989
-0.0696088
0.0387821
0.0308267
0.0239966
0.0054497
-0.0294463
-0.115638
0.0372032
0.0784352
0.074804
-0.0689482
-0.0867687
0.0890286
-0.00225989
-0.0164911
0.000696299
-0.0351807
0.082163
-0.0365546
0.0513784
-0.0148238
0.00613008
0.0839723
-0.0877308
0.043122
0.0706291
-0.0349729
-0.0356562
-0.0864064
0.0749573
0.0114492
-0.025374
-0.0469671
-0.0365939
0.00231067
0.037606
-0.00244606
-0.03516
0.0982309
-0.0528513
-0.111436
0.0745607
0.0368756
0.00719303
0.0460119
-0.0532049
-0.0734138
0.0364664
0.0369474
-0.0862991
0.0937561
-0.00745709
0.084601
-0.00556182
-0.0790392
0.0521942
0.00505923
-0.0572535
0.022426
0.0388982
-0.088629
0.00804011
0.0805888
-0.0563694
0.0603935
-0.00402412
0.0177465
0.0427007
-0.0604472
0.065191
0.00543807
0.0896168
-0.0824237
-0.018694
0.0103542
-0.0159898
-0.0476459
0.0636357
-0.0454649
-0.0822644
-0.0921429
-0.0069067
0.122212
-0.030354
-0.0918585
0.0652212
-0.050575
-0.0146462
-0.00192185
-0.0765326
0.0784544
-0.0521642
0.0361744
0.0827712
0.0208818
-0.103653
-0.115217
0.0129224
0.102295
0.0721978
-0.102156
0.0299578
-0.0720934
0.0438806
0.0282128
-0.0454981
0.0329513
0.0125468
-0.0613817
-0.0500545
-0.00390399
-0.0823951
-0.0753127
0.00518119
-0.0695523
0.0195217
0.0500306
0.0106443
0.0494528
-0.0600971
0.0851395
0.0503732
-0.107413
0.0408297
-0.0200038
0.0710219
0.101325
-0.0480092
-0.0533157
-0.138087
0.0953427
0.0427442
0.0594792
-0.0680987
0.00861945
-0.00610421
-0.0412898
0.101769
-0.0441142
-0.0576551
-0.0293449
-0.0570615
0.00140356
-0.0133243
0.0119207
-0.0179578
0.042271
-0.0243132
-0.0284125
0.0369318
0.0275904
-0.0797645
0.0521741
-0.0892604
-0.0219997
0.11126
-0.034707
-0.0229008
-0.0194355
0.00430241
0.0151331
0.019874
-0.0443755
0.0245015
0.0293074
-0.0103136
0.0745772
0.0161925
-0.0907697
-0.0985426
0.0748323
0.0237103
0.113655
0.00250828
-0.116163
-0.0152865
0.039283
-0.0177905
0.0817087
-0.005295
-0.020321
0.0401951
0.0553963
-0.0376498
-0.0564184
-0.00561257
0.062031
-0.134329
0.0435664
0.0907626
0.0841462
-0.030932
-0.0532142
-0.104423
0.0215251
0.082898
0.0185788
-0.0435646
0.0249858
0.0954915
0.0307956
-0.00793024
0.0455363
0.062308
-0.0127779
-0.0495301
-0.112413
0.0237843
0.0170127
0.0948566
-0.0182639
0.047071
-0.0288071
-0.0418616
0.0701781
-0.0283165
0.0742408
-0.104901
0.0306605
-0.112709
0.0394246
0.0732847
-0.072468
-0.061861
-0.0425339
-0.0295596
-0.11488
0.0489704
0.0659099
0.0295837
-0.000356252
-0.0292275
-0.0815465
0.0275948
0.0539516
-0.0850209
-0.053066
-0.0346482
-6.30723e-05
0.000419484
-0.000356411
-0.00184979
-0.00449468
0.00634446
-0.059888
-0.0221986
0.0820866
-0.0378479
0.0489519
-0.011104
0.112902
-0.080504
-0.0323983
-0.11731
0.0574216
-0.0165537
-0.0667679
0.0833216
0.0395488
-0.00996505
0.0677409
0.00926654
-0.0770074
0.0297044
-0.0638384
0.034134
0.119851
-0.0584313
-0.0614196
0.0218885
0.0622577
0.0247249
0.0353689
-0.0600938
0.102167
-0.0193962
0.0111528
-0.00876681
-0.00238596
0.0927149
-0.0373354
-0.0553796
0.00286722
0.056612
-8.8827e-05
-0.0866799
0.0584992
-0.0478549
-0.0914133
0.00550505
0.0156845
-0.00460528
-0.0110792
-0.018728
0.0849142
0.0556196
0.00668844
0.029707
-0.0287344
-0.000972549
0.0224979
0.0621031
-0.0160501
-0.029448
-0.0029856
-0.0132141
0.0161997
-0.0770597
0.00750739
0.00146492
-0.0907253
0.0452573
0.0769552
-0.00978431
-0.032506
0.0422903
0.0425396
0.0671228
0.06355
-0.0388251
-0.0312446
-0.0170162
0.0482608
0.0681885
0.0335808
-0.0330542
0.00674184
0.0331637
0.0422601
-0.0754238
0.00591814
0.0159787
-0.0218968
0.0278256
0.0188542
-0.0466797
-0.00029887
0.000266471
3.23995e-05
-0.000275105
-2.37653e-05
0.00429825
0.00685451
-0.00250276
0.0802545
-0.0812784
0.0661986
0.0150799
-0.0225495
-0.0151682
0.0377177
0.0550368
-0.0625223
0.0074855
0.101404
-0.0836725
-0.0177314
0.0322773
0.0329439
0.100963
-0.0263975
-0.0745659
0.123579
-0.0310067
-0.0925724
0.084086
-0.0821751
-0.0349457
0.0251614
-0.096015
0.0512438
0.0447712
0.0110588
0.0593403
-0.0703991
-0.045915
-0.0301466
0.0760616
0.110726
-0.0562246
-0.054501
-0.0681205
-0.0467598
0.057421
0.0439828
-0.0533044
0.0687193
-0.0154149
0.0851973
-0.0841546
-0.0010427
0.101247
-0.0596887
-0.0415585
0.103513
0.0316404
0.106504
-0.0413954
-0.0651083
0.0814677
-0.00926986
0.0243606
-0.0426245
-0.110013
0.102394
0.0076185
-0.08006
0.063026
0.017034
-0.0529365
0.0747213
0.00252467
-0.117742
0.0531283
-0.0746995
0.0215712
0.0859825
-0.0528188
0.000613586
-0.0723708
0.0717572
-0.0206452
-0.0961153
0.0505635
0.0455518
-0.126041
0.0382541
0.0877865
-0.113377
0.0211115
0.0922652
0.0017795
0.0430736
-0.0448531
0.0472662
-0.0286874
-0.0220609
-0.0364708
0.0585317
-0.0781092
-0.00343732
-0.104548
0.0730416
0.031506
0.0965658
0.00468137
-0.0836634
0.0671097
0.0216715
-0.000805292
0.0103315
-0.0309981
0.0206666
0.105716
-0.0205189
0.0691261
-0.0013852
0.0536574
-0.0866161
0.0329587
-0.0204386
-0.034365
-0.0826587
0.00801479
-0.0587697
-0.0225088
0.0794291
0.0483049
-0.0666893
0.0248277
-0.0595017
-0.0147502
0.0742519
0.0544034
-0.0119734
0.0666593
-0.000155967
-0.0665034
0.100561
-0.0428427
-0.0577188
-0.0194149
-0.0520471
0.071462
-0.0212897
0.0955305
0.0486941
0.045958
-0.0946521
-0.0127412
-0.0833741
-0.0389405
0.0145296
0.0244109
-0.00978113
0.0111847
-0.0215813
0.019916
0.114718
-0.0219013
-0.10781
0.0852079
0.0226018
-0.0993145
0.0378047
0.0615098
-0.0303622
0.0600667
-0.122607
0.00696907
0.0647695
-0.0545479
-0.0102216
-0.00784955
-0.0485199
-0.0628688
0.0769352
0.00618766
0.0181361
-0.0243237
0.0106524
0.0260597
-0.0367121
-0.00024142
-0.0239956
0.0242371
0.0145215
0.00286358
-0.017385
-0.0645547
-0.00240662
0.0669613
-0.0736556
0.00910095
-0.0185617
-0.00776313
0.0263249
-0.0862842
0.0843623
0.12387
-0.123987
0.000117618
0.0165326
0.0228765
-0.0394091
-0.0332881
0.0108397
0.0224484
0.0533009
0.0705688
0.0831434
0.0174181
-0.00765285
0.0065992
0.00105366
0.0302273
0.0896237
0.0004056
-0.000468673
-0.0235869
-0.0153536
-0.0122552
-0.036693
0.0489482
0.0798223
0.0266814
0.0493778
-0.0820892
0.0327113
-0.0277922
-0.00810393
0.0358961
0.00640368
-0.0341959
-0.0305689
-0.0132139
0.0437828
0.0180723
0.00605291
-0.0241252
-0.000482685
0.000359665
0.000123019
0.12597
-0.0426905
-0.0832794
0.0693297
0.0566401
0.0782212
-0.0805588
0.00233759
-0.0321472
-0.00847793
0.0406251
0.106247
-0.0509518
-0.0552949
-0.057837
-0.0682037
0.0876289
-0.096937
0.00930802
0.0370431
-0.0205105
-0.0126206
0.0675983
-0.0549776
0.00513141
0.0479969
0.103961
-0.00730151
-0.0966597
0.0226994
0.0812618
0.00210933
-0.0585278
-0.0390703
0.0165208
-0.0294247
0.0309813
-0.00155657
-0.0351464
-3.72357e-05
0.0351837
0.00581751
-0.0753632
0.0695457
-0.0257111
0.085087
-0.0593759
0.0300162
0.0232532
-0.0532694
-0.0275068
0.000649129
-0.0826219
-0.0133931
-0.0992625
0.0656311
0.0336314
-0.0452064
-0.0219876
0.067194
-0.0164073
0.01339
0.00301725
-0.0779823
0.0522712
0.00462664
0.0250804
-0.00732232
-0.0278241
-0.00416439
0.00453345
-0.000369062
0.0519689
-0.021373
-0.030596
0.0204765
-0.076085
0.0556085
-0.0241104
0.0232095
0.000900841
0.0705978
-0.0357679
-0.0348299
0.00452826
-0.0903118
0.108019
-0.023753
-0.0842657
0.111331
-0.0933647
-0.0179662
0.0694608
-0.00280149
0.0670646
-0.0896577
0.0225931
-0.0409388
-0.0449968
0.0859357
0.0925489
-0.0254844
-0.0723053
0.0528904
0.0475735
-0.0680837
0.0205102
0.0310512
0.0432583
-0.0743095
0.0535807
-0.0518012
-0.100112
0.0909317
0.00917985
0.0559992
-0.0668444
0.0108452
-0.0157016
0.026033
0.0795171
-0.1107
0.0311833
0.06307
0.00208716
-0.0651571
0.0832302
-0.0805275
-0.00270269
0.0896277
0.0113357
0.0647653
0.011941
-0.0767063
0.00970713
-0.0428538
0.0331467
0.0985235
-0.022132
-0.0763914
0.0331805
-0.0552414
0.027081
0.0435168
0.0538991
-0.094838
-0.0582098
0.0276409
-0.0714247
0.00804471
0.06338
0.015005
0.00361017
-0.0186152
0.00806744
-0.0327786
0.0247112
0.0240969
-0.0179093
0.0651826
0.023824
-0.0890066
-0.00433425
0.0691037
-0.00826005
0.00641026
-0.0238671
-0.00232604
0.0261932
0.0622525
0.00251278
-0.0236662
0.0723603
0.0738888
-0.0428377
0.000197806
0.00888536
-0.00908317
-0.0939419
0.00983836
0.0841035
-0.129555
0.116363
0.0131915
-0.0248848
0.00632307
0.00832039
-0.0321875
-0.0871397
0.027638
0.0203394
-0.0655458
0.0516618
-0.00149922
-0.0379992
0.0890572
-0.051058
0.0153217
0.0641954
-0.013757
0.0687938
-0.0112536
0.064911
0.00365033
-0.00140744
-0.00224289
0.0659366
-0.0834313
0.0174947
-0.051624
0.0792144
0.0300549
0.0191612
-0.049216
-0.0733304
0.073944
0.0338727
0.074146
-0.058784
-0.0108248
0.0663481
-0.0552893
0.0545474
-0.0550187
0.000471284
-0.0056647
-0.0321832
0.058094
0.0286366
-0.0867307
0.070357
0.00948423
-0.0798413
0.0502146
0.00175431
0.0431122
-0.0890272
0.0980026
-0.0385787
-0.0594239
0.0144671
0.0731619
0.0535503
0.0601047
-0.083766
0.0123413
-0.0724084
0.00515602
0.0672524
-0.0117526
0.0443479
-0.0325953
-0.0263108
-0.0376558
0.0639666
0.132576
-0.0799576
-0.0526188
-0.0369357
-0.0674874
-0.0883699
0.0922311
-0.00386126
-0.0284741
-0.0849026
0.0233898
-0.0088683
0.000561483
-0.000458426
-0.000103057
-0.0698816
0.057261
0.0508045
-0.00439677
-0.0164203
-0.0502346
0.066655
0.0127892
0.00289529
-0.0205619
-0.025256
0.045818
-0.089188
-0.0101265
0.0542705
0.0586318
0.0494603
0.0831161
0.0923931
-0.0345206
-0.0578725
0.0481965
-0.0559942
0.00779764
-0.0311175
-0.0489425
-0.0337583
0.0918523
0.0439314
-0.0342243
-0.0883791
-0.00432137
0.0927005
-0.121407
0.0945136
0.0268932
-0.0883318
0.0139893
0.0743426
0.113357
-0.00263175
0.116506
-0.0613565
-0.0551491
-0.0343286
-0.0348881
0.0692167
0.0969282
0.0195775
0.00604135
-0.0944205
-0.00308572
-0.0502187
0.126537
-0.0669834
-0.0595538
-0.0892605
-0.012784
0.102045
0.141675
-0.0483573
-0.0933172
0.0257
0.0122488
-0.0379488
0.113753
-0.109468
-0.00428481
0.104609
-0.0342523
0.0216792
-0.00917494
0.0226155
-0.0134406
0.016938
0.0398206
-0.0567586
0.0440621
0.0672688
-0.000774261
0.0102227
-0.00944843
-0.0722025
0.0820295
-0.00982701
0.045284
-0.117487
0.105819
-0.0134262
0.00952787
-0.00933006
-0.0143038
-0.0375104
0.0518142
0.090483
-0.026698
-0.063785
-0.0217124
-0.040015
0.0617274
0.0638653
0.0597138
-0.0906008
0.0856558
0.00494503
-0.0263873
-0.0220224
0.0484097
-0.000190482
0.0260306
-0.0258401
-0.0930926
-0.0186972
0.11179
-0.0189537
-0.000481754
-0.0972843
0.00891445
0.11111
-0.0806256
-0.0304846
-0.0944335
0.0564343
0.0196073
0.0586139
-0.00206126
0.0163965
-0.0143353
-0.0191884
0.0162028
-0.123143
0.0588985
0.0642448
0.0607683
-0.0274946
-0.0332737
-0.0273581
0.0773484
-0.0499903
0.00653406
-0.0119825
0.00544842
-0.098743
0.0867629
0.0119801
0.124109
-0.0129628
-0.111146
0.111049
-0.0458659
0.0858123
0.0382964
-0.00510706
0.0116411
0.0381651
-0.0271825
-0.0109826
-0.0721081
0.0185233
0.0535848
-0.0582901
-0.0676088
-0.00449929
0.0380642
-0.0519086
0.0138443
0.0635156
-0.00751635
-0.0173087
-0.0624669
0.0797756
0.0290663
0.00909874
-0.0837821
0.00329773
0.0804844
0.0384995
0.0346193
-0.0731188
0.0214113
-0.0480903
0.026679
-0.058692
-0.0627148
-0.0356865
-0.0721232
0.0256496
0.0127789
-0.0384285
0.0580111
0.0945733
0.0362799
-0.0282125
0.00224225
0.000803309
-0.00304556
-0.0971464
0.106384
-0.00923805
0.069166
-0.0925859
0.0234199
-0.0626291
0.0283004
-0.00721119
-0.000441668
0.0208303
-0.111431
-0.0805498
0.0769962
0.00355359
2.83709e-05
0.0002381
-0.082914
0.0664937
-7.4814e-05
-0.000200291
0.0643879
-0.0207671
-0.0436209
0.0308964
-0.0426489
-0.0702366
-0.00099472
0.0712314
-0.0044689
-0.0250307
0.0294996
0.110767
-0.0297805
-0.0809869
-0.0583292
0.0996916
-0.0413624
0.0729952
-0.0096053
-0.0633899
-0.0658087
-0.0065997
0.096833
-0.0446387
-0.0295742
0.00546382
-0.0135892
-0.0865224
-0.0473888
-0.082166
-0.0657478
0.0290362
0.0367117
-0.0197635
0.0826473
-0.0628838
-0.0137353
0.0618547
-0.0481194
-0.0128039
-0.0802888
-0.0428554
0.0484427
-0.00558723
0.000689038
0.0373752
-0.0825555
-0.00704532
0.0896008
0.000196133
0.0555737
-0.0557699
0.0850217
-0.0120265
0.0255555
-0.0591492
0.0335937
-0.0154245
0.126535
0.0687539
-0.0431983
0.0899503
0.0162964
0.0119177
0.0713125
0.0755239
-0.0915439
0.01602
0.0186889
-0.0725119
0.053823
-0.0482913
0.0883271
-0.0400358
0.0605681
0.0407567
-0.035259
-0.0459865
0.0812455
-0.0156332
-0.041418
0.0570512
0.00751829
0.0470291
-0.00239252
-0.0480153
0.0504079
0.0918102
0.000904691
-0.050182
0.0237947
0.0642806
0.0166588
-0.0809394
0.0924709
-0.0223204
-0.0701505
0.0385019
-0.0340218
-0.00448011
-0.141314
0.0482123
0.0931015
0.00733023
-0.0591144
0.0517842
-0.0526265
-0.005359
0.0579855
0.0132229
-0.0771765
0.0639536
-0.0897935
0.0376027
0.0521908
0.0136493
0.00692257
-0.0205719
-0.112635
0.028853
0.092779
0.0907617
-0.039938
-0.0508236
0.0452847
-0.0609179
0.0245626
-0.0469442
-0.00852516
0.0554693
-0.0928509
0.0712675
0.0215834
-0.0408616
-0.0691511
-0.0623711
0.0755939
-0.0162821
-0.0729784
-0.0129942
0.0386942
0.10683
-0.05828
-0.0485501
-0.0817256
0.0475364
0.0341892
-0.0222811
0.0716589
-0.0554701
0.0432149
-0.00657997
-0.0098273
8.90725e-05
5.2876e-05
-0.000141949
0.0920154
-0.0644189
-0.0275964
-0.00204208
-0.00154498
0.00358706
0.076092
-0.0146274
-0.0614646
-0.0986426
-0.0245007
0.116598
-0.0628473
-0.0537508
0.109645
-0.0335533
0.0997157
-0.0976908
-0.00202488
0.058391
-0.0781546
-0.116216
0.0666566
0.0495596
0.0324093
0.0673064
-0.0986887
0.0824655
0.0162232
-0.02826
-0.0522898
-0.0279849
0.0299396
-0.00195474
-0.0263811
0.0331847
-0.00680356
-0.0154443
0.0145335
0.00091083
-0.00138454
-0.0406197
0.0420042
0.00395438
-0.00171213
-0.0438208
-0.0459727
-2.05931e-05
0.000582076
-0.054939
0.0929943
-0.0380553
0.0377437
-0.0769667
0.039223
-0.0447567
0.040204
0.00455277
-0.0398022
0.0775459
-0.0193056
0.0884716
-0.0732864
0.0324514
0.040835
-0.0426774
0.0573221
-0.0146447
-0.0705101
0.0383629
0.0696375
-0.0157377
-0.0538998
0.0395197
0.0179047
-0.0574244
-0.0413795
0.039995
0.114302
-0.0157782
0.0430052
-0.0137094
-0.0292958
0.0720853
0.00496564
-0.077051
-0.0613373
-0.0293374
0.0906747
-0.0602589
0.0133147
0.0287076
-0.0331765
-0.0692253
-0.0720885
0.0230592
-0.0713504
-0.0722266
0.0562429
0.0159838
-0.0218658
0.0432771
0.0978683
-0.0592929
-0.0385754
-5.39351e-05
0.0209663
-0.0209124
0.0973035
-0.0468539
-0.0504497
0.111626
-0.0404365
-0.0711899
0.0394685
0.0284832
-0.0679518
-0.022001
-0.0227557
0.00990346
0.000742095
-0.0106456
0.0941064
0.0202049
0.0700637
-0.0902686
0.00539463
-0.0603336
-0.0221679
0.0781572
-0.0559892
-0.0127806
0.0406062
0.104116
-0.0233281
-0.0807877
-0.0582647
0.0403069
-0.0696909
-0.00205123
0.0717421
0.0597138
-0.0949728
-0.0390053
0.0371619
0.00184345
-0.0396704
0.0566084
-0.0257058
-0.0525065
0.0782123
-0.0905652
0.072296
0.0182692
0.0450217
0.0295883
-0.07461
0.0464223
0.0071076
-0.0535299
-0.0343167
0.00793561
0.0340727
0.00893249
0.0108124
-0.0199874
-0.0585899
0.0311783
0.0274116
0.0801572
-0.00638289
-0.0737743
0.028819
-0.0229009
-0.0655633
0.0728936
-0.0802572
0.125458
-0.0452004
0.00165512
-0.0445106
0.00888534
-0.0891426
-0.0995177
0.0381804
0.0448256
-0.00397525
-0.0408504
-0.0986887
-0.0872222
0.0699134
-0.000526268
-0.00115301
0.00167927
0.0488135
-0.0745193
0.0492585
-0.0192036
-0.00970992
-0.0482022
0.0579121
0.0541691
-0.076337
-0.0660931
0.058724
0.00736912
-0.0616649
0.0674824
-0.022381
0.0585195
-0.0361386
-0.0452895
-0.0133004
0.0866039
-0.0661274
-0.0542123
-0.0211488
0.0753612
0.0465357
0.0603396
-0.106875
-0.0877236
0.0519954
0.0357282
0.0294372
0.0458469
-0.0752841
-0.0384039
-0.0587425
0.054452
0.00258768
-0.0570397
0.0325093
0.0812439
0.0815835
-0.0420638
-0.0342721
-0.0314757
0.00560463
0.0133006
-0.0189052
0.00670723
-0.0878257
0.0811184
-0.0418141
0.00476143
0.0370527
0.0886217
-0.0911651
0.00254338
0.00399015
0.0289467
-0.0329368
0.0143226
-0.0163838
0.0357249
-0.088894
0.0531691
0.0518685
0.0255691
-0.0774376
-0.0277873
-0.0884289
-0.00337875
0.0170281
0.0673007
-0.084555
0.0172542
-0.0905014
-0.000409585
0.090911
0.0407492
0.0286534
-0.0694026
-0.0514944
0.0497072
0.00178725
-0.0143289
-0.0740029
0.0153998
-0.0110408
-0.00435906
0.056334
-0.00991173
0.0242484
-0.0182628
-0.00598562
0.0828349
-0.019765
0.0204637
-0.065887
0.0454232
-0.0681703
0.0155437
0.0984334
-0.0348795
-0.0635539
-0.0253197
0.0647883
-0.0566477
0.103772
-0.0471243
0.103893
0.00779298
-0.111686
-0.0658069
-0.00857661
0.0743835
0.00910539
-0.081332
0.100739
-0.0697394
-0.0309995
-0.0387156
0.0564724
-0.0177569
0.0985779
-0.0467095
-0.058687
0.0788918
0.0362087
-0.0364501
0.0143487
-0.0825528
0.0682041
-0.0909627
0.0251559
0.0189151
-0.0191056
0.0737253
-0.00408778
0.0649977
-0.0347824
-0.0302153
-0.0273158
0.0157754
0.0115404
0.00914687
-0.00992113
-0.0282788
-0.0542767
0.0950986
-0.0699991
-0.0250996
0.0114816
-0.0736632
0.0621816
-0.113257
0.0324038
0.0808533
0.0189912
0.0849022
0.0814286
-0.0141278
0.0201093
0.0539129
-0.0740222
-0.130262
0.0602082
0.0700537
-0.0966471
-0.0336148
-0.0421902
0.0700237
-0.0278335
0.00639445
-0.00656463
0.000170174
-0.0755655
-0.0181271
0.0936926
-0.00554896
-0.066999
0.072548
0.037584
-0.0269316
0.0053164
-0.0391684
0.033852
0.039122
-0.0391759
-0.118137
0.00487996
0.0914546
-0.0727657
0.0118448
-0.0204179
0.00857314
0.0841198
-0.00416349
-0.0799563
0.0394751
-0.0887787
0.0493036
-0.0350376
0.0823919
-0.0473542
-0.125824
0.05334
0.072484
0.0372563
-0.0319399
0.0423301
-0.117896
0.0349983
-0.0665872
0.0315889
-0.102336
0.0645698
0.0377666
0.056708
-0.0426851
-0.0140229
0.104878
-0.052368
-0.0525095
0.00190715
-0.0696459
0.0677388
-0.0268627
-0.00642539
0.0909554
0.0131604
0.0306829
-0.0628859
0.032203
0.0847897
-0.0453146
-0.0305126
-0.0564199
0.0869325
-0.0381386
0.00548547
0.0326531
-0.0711881
-0.0546359
0.0781418
0.0197266
0.00550826
0.0011437
-0.00665195
-0.0771062
0.0885878
-0.0678995
0.0237115
0.044188
-0.0787122
0.0474676
0.0081637
0.0581396
-0.0663033
-0.0414713
-0.0442691
0.0857404
-0.0370196
0.0393455
-0.00232584
0.00665954
0.0819622
-0.0519355
-0.0297901
-0.0598161
0.0392542
-0.0424225
-0.0563205
-0.0648424
0.00362895
0.0612135
0.0135296
0.0784857
0.0356839
0.056787
0.0285375
-0.0834406
0.0549031
0.0618923
0.0429852
-0.0138773
-0.0462786
0.0601558
-0.080129
0.0312877
0.0488413
-0.0975065
0.0188209
0.0786856
-0.0940068
0.0190337
0.0749732
-0.0416657
-0.0522697
0.0939354
-0.0064194
0.00225501
-0.00691917
-0.0296355
-0.0783361
0.0542909
0.0240452
-0.00209447
0.0565465
0.11345
-0.102812
-0.010638
-0.047067
0.0756044
0.0343675
-0.0162952
-0.00498677
0.0317533
-0.0267665
-0.0311662
0.0983167
-0.0671505
0.00183469
-0.00236096
0.0611424
-0.0696303
0.0084879
-0.100168
0.0674717
0.0326967
-0.0732475
-0.0234786
0.0967261
0.0101116
-0.0488272
-0.0687152
-0.00962092
0.0452368
-0.076403
-0.000129128
-0.000353557
-0.00703017
0.040336
-0.0333058
0.0972724
-0.0678352
-0.060177
-0.0421594
0.0696333
-0.0938093
0.0241761
0.00228815
-0.0049879
0.00269975
-0.0499486
-0.037775
-0.0183625
-0.0264733
0.0448359
0.0473501
-0.0945982
0.0472481
-0.0315077
0.066506
-0.074147
0.0823107
-0.0235775
-0.0037383
-0.0410139
0.088364
-0.077765
0.0129226
0.0791157
-0.0711942
-0.00792147
-0.0466744
0.0312794
0.015395
-0.0814853
0.095834
-0.00789395
0.0637018
-0.0558079
0.0945911
0.0170354
0.0152439
-0.00534047
-0.0437171
0.0793212
-0.0356041
0.0993511
-0.034488
-0.0648631
0.0473311
0.00937685
0.014959
0.049429
-0.0401489
-0.0600194
0.0200925
-0.09334
-0.0505968
0.0322342
0.035416
0.10734
-0.0100364
-0.00660087
0.0509577
-0.0443568
0.0704775
-0.0439985
-0.026479
0.000871046
-0.0435484
0.00496383
0.00965171
-0.0146155
-0.00436515
0.000752413
0.00361273
-0.06662
0.0642275
0.0517398
-0.0596337
-0.0477789
-0.0507637
0.00858688
0.0195745
-0.0281614
0.0567913
-0.0261084
-0.0880331
0.0724324
0.0156008
-0.104108
0.0690708
-0.0207093
-0.0554222
0.0761315
-0.0594071
-0.0451404
-0.0905196
0.00300938
0.0875103
0.0909602
0.0083909
-0.0517088
0.058416
-0.0361658
0.00519486
0.0309709
-0.115534
0.0674686
0.0480657
0.113525
-0.0380816
-0.0754432
-0.0520187
0.0102046
0.0760523
-0.0760523
0.0635261
-0.0940388
0.0322041
-0.0171991
-0.0458035
0.034502
0.0113014
-0.0782976
0.0784937
0.0050823
-0.0747732
-0.00760755
0.0132939
-0.00568635
-0.0894244
0.0677119
0.00306767
0.00058266
0.0778022
-0.011302
-0.0665002
0.0884433
0.0099901
0.0688023
-0.0146603
-0.054142
-0.0945372
0.0378895
-0.0849001
0.0353753
0.0495248
-0.017124
-0.0286795
0.0715647
-0.11313
0.0415654
-0.00865631
-0.0564113
0.0650676
0.0873947
-0.0775599
-0.0098348
0.0994419
-0.0943624
-0.00507958
-0.0262044
-0.00237809
0.0285824
0.0632584
-0.0741047
0.0108462
0.0152774
-0.0573182
0.0420408
0.0483397
0.0651851
-0.000163806
0.00655826
-0.0253318
0.00279993
0.0225318
0.0852414
-0.0387057
-0.0885766
0.0893453
-0.000768704
0.0632699
-0.106271
0.043001
0.0764189
0.0336415
-0.11006
0.00761312
0.0762125
-0.0838256
-0.104813
0.0841034
0.092168
-0.0337541
-0.0584138
0.0931551
-0.0241982
-0.0689569
-0.0614239
-0.0302159
0.0916398
0.0326164
0.0591935
-0.0918099
-0.00485381
-0.0704407
0.0752945
0.0863241
0.00205493
-0.088379
0.130646
-0.0508939
-0.0797518
-0.0609129
0.101221
-0.0403083
-0.130841
0.0736797
0.0571611
-0.102938
0.0265683
0.07637
0.0811989
-0.0788314
-0.00236757
-0.0685507
0.0630017
0.0232119
-0.0775671
0.0543552
-0.00569859
0.0772633
0.000196209
-0.0250884
0.0248922
-0.0352309
0.11165
0.038993
0.0355972
-0.0745902
-0.0864608
-0.0160192
0.10248
0.0418779
0.0188904
0.0833321
-0.0646854
-0.0186467
0.132029
-0.0272279
-0.104801
-0.0675667
0.0341793
0.0333875
0.0475065
-0.0469758
-0.000530744
0.10432
-0.0329007
-0.0714194
-0.029538
0.101471
-0.0719326
-0.033782
-0.0500575
0.0838395
0.0776528
-0.0337722
0.0171678
0.00990934
-0.0270772
0.00801203
0.0016612
-0.00967322
0.0466799
0.000336528
-0.0879032
0.0177475
0.0701557
0.0680962
-0.0944701
0.0263738
0.0452615
-0.000672185
-0.0445893
-0.026073
0.0431196
-0.0170465
0.0926856
0.00805322
0.0806002
-0.0448753
0.0975618
-0.046855
-0.0507069
-0.0159536
-0.0233784
0.039332
0.114857
-0.0591044
-0.0557525
0.0143682
0.0674983
-0.0818665
0.0352717
0.029552
-0.0648237
-0.125135
0.0521069
0.0730283
0.0612584
0.0300446
-0.091303
-0.0938143
0.0351879
0.0586264
-0.00365834
0.00365834
-0.0112885
0.115609
0.000583308
-0.00047328
-0.000110029
0.028713
0.0570245
-0.0857375
0.0599433
-0.0323545
-0.0275888
-0.0905984
0.0366759
0.0539226
-0.0530948
-0.0465006
0.0995954
-0.0518494
0.0546647
-0.00281525
-0.00626873
-0.0619053
0.068174
0.01422
0.0667859
-0.081006
-0.0503963
0.0582702
-0.00787394
0.00459969
0.0227396
-0.0273393
-0.0514405
0.0901239
-0.0386833
0.00919544
-0.0338545
-0.11182
0.0488462
0.0629734
-0.00487374
0.0786195
-0.0737457
0.102302
0.00114541
-0.103448
0.000129303
0.0044803
-0.0046096
0.0182454
0.0459802
-0.0642256
0.0489185
-0.0575748
-0.0222882
0.0919214
0.0291934
-0.0529138
0.0237205
-0.0508349
-0.0167318
-0.029036
-0.0535001
0.0825361
0.0871514
-0.0735894
-0.013562
0.0265075
-0.0439929
0.0174855
0.0609608
0.0413413
0.038039
0.0496724
-0.0877115
-0.103914
0.0288789
0.0750348
-0.0498912
-0.0528959
0.102787
-0.0203429
0.0632161
-0.0428732
-0.000468952
0.0528176
-0.0523487
0.0968348
-0.0508808
-0.045954
0.0235099
-0.0734949
0.049985
0.112782
-0.0533882
-0.0593941
0.0803284
-0.01707
0.0839682
-0.0321673
-0.0518009
-0.110336
0.043963
0.0663733
0.0526153
-0.102325
0.0497095
-0.0188411
0.00281536
0.0160257
0.0837151
-0.00591293
-0.00710525
-0.0214058
0.028511
0.0768495
-0.0995968
0.0227473
0.0593849
0.0245596
-0.0839444
-0.00991131
0.0275259
-0.0176146
0.0106778
-0.0521966
0.0415188
-0.134319
0.0785923
0.0557269
0.0726587
-0.0948634
0.0222047
0.0636375
-0.0209748
-0.0426627
0.0481864
-0.0193953
-0.0287911
-0.0565857
0.00365259
0.0529331
-0.0909381
0.077297
0.0136411
-0.107185
0.0404174
-0.0831504
0.0512527
0.0318977
-0.063639
0.0638084
-0.000169423
0.0187663
0.00787178
-0.0266381
0.000278944
0.0459691
-0.046248
0.129826
-0.0759175
-0.0539089
0.0680452
-0.0530407
-0.0150045
-0.00107004
-0.0182866
0.0193567
-0.00736816
0.0992738
-0.0919057
-0.0690415
0.0310791
0.0379624
-0.0262092
-0.0442005
0.0704096
-0.0736421
-0.0183969
0.092039
-0.0343652
0.00494049
0.0773322
-0.100242
0.0229094
0.0932235
-0.0644584
-0.0287651
-0.0821689
0.0886221
-0.00645321
-0.126912
0.0653491
0.0615625
0.0128009
-0.0129129
0.000111981
0.0302854
-0.0245865
-0.00569892
0.0504427
-0.0682642
0.0178215
0.097697
-0.079118
-0.018579
-0.0087431
-0.0553281
0.0640712
0.0686149
0.0313851
0.0309533
0.00369832
-0.0346516
0.0223178
0.0630647
-0.0853825
0.0374261
-0.0310734
-0.00635265
0.0394269
0.00244582
-0.0418727
0.0860148
0.0267676
0.107667
-0.114298
0.00663091
-0.0710901
-0.000625418
0.0717155
0.101943
-0.0102504
-0.091693
-0.0463418
0.0130619
0.0332799
0.0138402
0.0938266
0.0569806
0.004176
-0.0611566
0.10223
0.00627712
-0.108507
0.0801825
0.0141895
-0.0943719
0.0479132
0.0244499
-0.0723631
0.0398563
0.0283592
-0.0682155
0.00476054
0.0974694
0.0885509
-0.00289495
-0.085656
0.093006
0.00893739
-0.0738497
0.029095
0.0447547
0.0421015
-0.0455894
0.00348785
-0.03748
0.0341075
0.00337244
0.0645844
-0.0355284
-0.0290561
-0.00854467
-0.00152413
0.0100688
0.0427461
0.0222515
-0.0600479
0.0401031
0.0199448
-0.0361436
0.0700722
-0.0339286
0.0271587
0.0155478
-0.0427065
-0.105608
0.106293
-0.000684879
-0.0521429
0.0191594
0.0329835
-0.015623
-0.0626887
0.0783117
0.038129
-0.0634121
0.025283
0.0390984
-0.0341763
-0.00492216
0.0987244
-0.106844
0.00811935
0.0216412
-0.0226508
0.00100959
-0.0165263
-0.0639824
0.0805087
0.0404734
-0.0838356
0.0433622
0.0404668
-0.0177679
-0.0226989
0.0319997
-0.045877
0.0568461
-0.0885948
0.0317488
0.118246
-0.0181464
-0.100099
-0.111997
0.0126026
0.0390476
0.0744025