/*--------------------------------*- C++ -*----------------------------------*\
  =========                 |
  \\      /  F ield         | OpenFOAM: The Open Source CFD Toolbox
   \\    /   O peration     | Website:  https://openfoam.org
    \\  /    A nd           | Version:  9
     \\/     M anipulation  |
\*---------------------------------------------------------------------------*/
FoamFile
{
    format      ascii;
    class       volScalarField;
    location    "0.2";
    object      p;
}
// * * * * * * * * * * * * * * * * * * * * * * * * * * * * * * * * * * * * * //

dimensions      [1 -1 -2 0 0 0 0];

internalField   nonuniform List<scalar> 
7700
(
2228.46
2232.39
2238.17
2242.45
2243.89
2242.23
2237.89
2231.33
2222.89
2212.79
2201.17
2188.09
2173.55
2157.53
2139.95
2120.72
2099.72
2076.83
2051.9
2024.8
1995.39
1963.56
1929.24
1892.41
1853.15
1811.63
1768.23
1723.56
1678.52
1634.44
1593.14
1557.1
1529.6
1515.02
1519.21
1549.55
1611.25
1709.5
1847.56
2023.41
2225.74
2433.19
2618.83
2762.24
2852.62
2914.6
2179.39
2182.77
2186.26
2188.43
2188.38
2185.83
2180.96
2174.07
2165.4
2155.1
2143.28
2129.96
2115.15
2098.8
2080.83
2061.14
2039.61
2016.12
1990.52
1962.67
1932.45
1899.77
1864.56
1826.82
1786.66
1744.31
1700.17
1654.88
1609.42
1565.14
1523.91
1488.18
1461.12
1446.61
1448.93
1472.87
1526.85
1617.31
1749.6
1924.86
2135.85
2363.23
2576.77
2744.5
2839.33
2912.74
2130.13
2134.07
2135.87
2135.79
2133.87
2129.9
2123.98
2116.28
2106.95
2096.06
2083.66
2069.76
2054.33
2037.3
2018.57
1998.05
1975.6
1951.09
1924.38
1895.35
1863.88
1829.88
1793.33
1754.27
1712.83
1669.29
1624.1
1577.97
1531.9
1487.28
1445.98
1410.39
1383.55
1369.11
1371.27
1394.91
1445.83
1530.02
1651.52
1812.21
2009.76
2234.67
2466.1
2673.48
2825.66
2962.42
2079.32
2084.33
2085.52
2084.06
2080.74
2075.52
2068.52
2059.91
2049.77
2038.14
2025.03
2010.41
1994.23
1976.4
1956.81
1935.35
1911.88
1886.26
1858.37
1828.07
1795.27
1759.89
1721.93
1681.45
1638.62
1593.74
1547.3
1500.02
1452.92
1407.38
1365.2
1328.7
1300.74
1284.74
1284.68
1304.95
1350.57
1426.73
1537.31
1684.42
1867.47
2081.62
2314.98
2548.06
2760
2968.03
2027.23
2032.98
2033.94
2031.75
2027.57
2021.5
2013.71
2004.38
1993.56
1981.29
1967.54
1952.27
1935.4
1916.83
1896.44
1874.11
1849.7
1823.06
1794.07
1762.6
1728.57
1691.9
1652.61
1610.75
1566.51
1520.21
1472.34
1423.61
1375
1327.85
1283.86
1245.2
1214.54
1195.01
1190.26
1204.3
1241.5
1306.53
1403.38
1534.99
1702.5
1904.17
2133.31
2378.09
2628.41
2895.67
1973.81
1979.96
1980.79
1978.21
1973.53
1966.94
1958.65
1948.82
1937.53
1924.77
1910.52
1894.71
1877.27
1858.07
1836.98
1813.89
1788.63
1761.07
1731.09
1698.56
1663.38
1625.5
1584.92
1541.71
1496.06
1448.26
1398.79
1348.33
1297.8
1248.45
1201.86
1160
1125.27
1100.51
1088.92
1094.05
1119.78
1170.2
1249.21
1360.26
1506.08
1687.92
1904.29
2150.01
2421.54
2728.54
1919.08
1925.37
1926.1
1923.34
1918.4
1911.54
1902.98
1892.87
1881.27
1868.19
1853.58
1837.37
1819.46
1799.74
1778.07
1754.3
1728.3
1699.93
1669.04
1635.52
1599.28
1560.25
1518.42
1473.88
1426.77
1377.4
1326.2
1273.8
1221.04
1169.05
1119.23
1073.34
1033.48
1002.08
981.876
975.827
987.132
1019.23
1075.61
1159.68
1275.13
1425.73
1615.86
1849.03
2127.52
2458.95
1863.1
1869.35
1869.99
1867.2
1862.2
1855.25
1846.59
1836.37
1824.63
1811.37
1796.53
1780.05
1761.8
1741.67
1719.51
1695.18
1668.53
1639.42
1607.72
1573.3
1536.06
1495.93
1452.91
1407.04
1358.49
1307.51
1254.48
1199.98
1144.76
1089.78
1036.29
985.767
939.966
900.866
870.631
851.535
845.962
856.529
885.918
936.752
1012.57
1119.38
1268.45
1472.68
1738.72
2073.75
1805.99
1812.06
1812.64
1809.92
1804.99
1798.1
1789.49
1779.29
1767.54
1754.23
1739.29
1722.65
1704.17
1683.74
1661.2
1636.4
1609.21
1579.46
1547.02
1511.78
1473.61
1432.45
1388.29
1341.15
1291.16
1238.55
1183.66
1126.97
1069.14
1010.98
953.532
897.984
845.713
798.208
757.004
723.635
699.645
686.643
685.506
695.413
718.535
765.386
863.878
1031.46
1261.6
1551.97
1747.87
1753.68
1754.21
1751.65
1746.89
1740.16
1731.71
1721.65
1710.01
1696.76
1681.83
1665.13
1646.53
1625.89
1603.08
1577.92
1550.26
1519.97
1486.9
1450.91
1411.9
1369.79
1324.54
1276.18
1224.81
1170.6
1113.85
1054.95
994.464
933.049
871.512
810.767
751.8
695.602
643.1
595.141
552.37
514.085
474.854
425.46
377.026
362.806
421.649
559.02
731.513
891.42
-2.70947
-2.71439
-2.70623
-2.68466
-2.64749
-2.59604
-2.53369
-2.46357
-2.38875
-2.31174
-2.23447
-2.15832
-2.08431
-2.01308
-1.94506
-1.88052
-1.81952
-1.76212
-1.70827
-1.65789
-1.6109
-1.56719
-1.52666
-1.4892
-1.45481
-1.42297
-1.39347
-1.36644
-1.34215
-1.32011
-1.30022
-1.28245
-1.26686
-1.25321
-1.24126
-1.23135
-1.22348
-1.21739
-1.2132
-1.21095
-2.76064
-2.76506
-2.75983
-2.73912
-2.70283
-2.65163
-2.58885
-2.518
-2.44225
-2.36421
-2.28586
-2.2087
-2.13375
-2.06171
-1.99301
-1.9279
-1.86647
-1.80875
-1.75465
-1.70409
-1.65693
-1.61309
-1.57243
-1.5348
-1.49993
-1.46793
-1.43868
-1.41196
-1.38743
-1.36528
-1.34538
-1.32758
-1.3118
-1.2981
-1.28645
-1.27665
-1.2688
-1.26297
-1.25905
-1.25702
-2.82172
-2.827
-2.82213
-2.80124
-2.76391
-2.71177
-2.64765
-2.57519
-2.49772
-2.41792
-2.3379
-2.2592
-2.18292
-2.10973
-2.04007
-1.97418
-1.91216
-1.85401
-1.79962
-1.74883
-1.70151
-1.65754
-1.61678
-1.57909
-1.54427
-1.51227
-1.48296
-1.45617
-1.43171
-1.40958
-1.38969
-1.37192
-1.35623
-1.34263
-1.33104
-1.32136
-1.31372
-1.30805
-1.30429
-1.30194
-2.89177
-2.89925
-2.89547
-2.87289
-2.83299
-2.77761
-2.71015
-2.63445
-2.55397
-2.47149
-2.38911
-2.30841
-2.23049
-2.15598
-2.08525
-2.01853
-1.95589
-1.89732
-1.84267
-1.79173
-1.74431
-1.70028
-1.65951
-1.62185
-1.58713
-1.55521
-1.52596
-1.49921
-1.47485
-1.45281
-1.433
-1.41533
-1.39976
-1.38627
-1.37478
-1.36527
-1.35776
-1.3522
-1.34842
-1.34591
-2.97325
-2.98405
-2.98142
-2.95561
-2.91084
-2.84988
-2.77677
-2.69589
-2.6109
-2.52462
-2.4391
-2.35591
-2.27605
-2.20008
-2.12825
-2.0607
-1.99748
-1.93853
-1.88367
-1.83264
-1.78521
-1.74122
-1.70056
-1.66306
-1.62853
-1.59679
-1.56768
-1.54107
-1.51686
-1.49496
-1.4753
-1.45779
-1.44238
-1.42901
-1.41766
-1.4083
-1.40089
-1.39537
-1.39151
-1.38886
-3.07066
-3.08474
-3.08271
-3.05124
-2.99887
-2.92937
-2.84801
-2.75979
-2.66865
-2.57736
-2.48787
-2.40162
-2.3195
-2.2419
-2.16892
-2.10058
-2.03683
-1.97756
-1.92256
-1.87152
-1.82418
-1.78037
-1.73994
-1.70271
-1.66846
-1.63698
-1.6081
-1.5817
-1.55771
-1.53603
-1.51658
-1.49927
-1.48404
-1.47085
-1.45965
-1.45041
-1.44308
-1.43757
-1.43361
-1.43085
-3.19413
-3.20676
-3.20424
-3.16279
-3.09872
-3.01689
-2.92413
-2.82615
-2.72707
-2.62953
-2.53524
-2.44539
-2.36065
-2.28123
-2.20706
-2.13795
-2.07376
-2.01428
-1.95926
-1.90833
-1.86123
-1.81773
-1.77766
-1.7408
-1.70691
-1.67577
-1.6472
-1.62111
-1.5974
-1.576
-1.55681
-1.53975
-1.52475
-1.51174
-1.5007
-1.49158
-1.48433
-1.47882
-1.47478
-1.47194
-3.36704
-3.36039
-3.35512
-3.29533
-3.21283
-3.11328
-3.00513
-2.89454
-2.7856
-2.68058
-2.58073
-2.48682
-2.3992
-2.31784
-2.24243
-2.17261
-2.10809
-2.04857
-1.99369
-1.94305
-1.89633
-1.85328
-1.81368
-1.77729
-1.74386
-1.71315
-1.68499
-1.65928
-1.63594
-1.61488
-1.59601
-1.57923
-1.56448
-1.55168
-1.54081
-1.53183
-1.52466
-1.51915
-1.51505
-1.51217
-3.67124
-3.5716
-3.55258
-3.45698
-3.34444
-3.21938
-3.09066
-2.96413
-2.84325
-2.72953
-2.62349
-2.52524
-2.43466
-2.35136
-2.27479
-2.20439
-2.13971
-2.08034
-2.0258
-1.97563
-1.92945
-1.88698
-1.84798
-1.81218
-1.77931
-1.74913
-1.72147
-1.69623
-1.67333
-1.65267
-1.63417
-1.61772
-1.60324
-1.59068
-1.58
-1.57116
-1.56408
-1.5586
-1.55447
-1.55157
-4.28097
-3.90452
-3.81825
-3.65711
-3.49678
-3.33543
-3.17974
-3.03355
-2.89865
-2.77516
-2.66248
-2.55983
-2.46641
-2.38138
-2.30387
-2.23312
-2.16852
-2.10952
-2.05553
-2.00603
-1.96056
-1.91883
-1.88055
-1.84546
-1.81327
-1.78373
-1.75667
-1.73199
-1.70959
-1.6894
-1.6713
-1.65521
-1.64104
-1.62874
-1.61828
-1.60961
-1.60264
-1.5972
-1.59307
-1.59017
1688.35
1693.83
1694.35
1692
1687.49
1681.02
1672.82
1662.99
1651.55
1638.45
1623.62
1606.96
1588.33
1567.6
1544.6
1519.17
1491.16
1460.41
1426.78
1390.14
1350.36
1307.38
1261.14
1211.64
1158.94
1103.19
1044.61
983.545
920.415
855.742
790.115
724.173
658.542
593.772
530.291
468.224
405.854
335.546
247.857
159.175
111.927
101.04
120.16
180.003
253.663
104.533
1627.25
1632.38
1632.92
1630.82
1626.6
1620.46
1612.59
1603.07
1591.91
1579.05
1564.41
1547.88
1529.32
1508.58
1485.48
1459.88
1431.61
1400.5
1366.41
1329.2
1288.75
1244.99
1197.84
1147.28
1093.36
1036.15
975.844
912.688
847.008
779.177
709.599
638.673
566.749
494.073
420.597
344.377
258.199
158.405
74.3435
33.0306
25.0617
25.4101
26.4441
27.1578
44.1582
-6.31641
1564.94
1569.72
1570.3
1568.48
1564.6
1558.83
1551.35
1542.2
1531.39
1518.84
1504.47
1488.16
1469.75
1449.08
1426
1400.31
1371.87
1340.49
1306.04
1268.37
1227.36
1182.92
1134.97
1083.47
1028.43
969.9
907.997
842.904
774.849
704.081
630.858
555.426
477.999
398.605
315.668
222.73
121.046
44.3471
14.424
9.69816
8.47881
8.7133
9.21401
7.94792
1.12247
16.3918
1501.55
1505.97
1506.62
1505.09
1501.58
1496.22
1489.16
1480.45
1470.04
1457.88
1443.85
1427.82
1409.64
1389.15
1366.15
1340.48
1311.96
1280.42
1245.71
1207.69
1166.23
1121.23
1072.6
1020.3
964.278
904.569
841.239
774.403
704.208
630.815
554.4
475.18
393.358
307.919
213.245
110.168
35.0143
9.14767
5.52287
4.94939
5.04307
5.31034
5.69564
5.99537
-1.90599
8.98096
1437.19
1441.26
1442
1440.77
1437.63
1432.71
1426.12
1417.88
1407.93
1396.2
1382.58
1366.91
1349.04
1328.79
1305.97
1280.4
1251.91
1220.31
1185.45
1147.2
1105.41
1059.99
1010.83
957.853
901.016
840.301
775.734
707.38
635.33
559.701
480.688
398.611
313.177
220.183
116.178
35.2673
7.55304
3.99071
3.54358
3.70434
3.90919
4.062
4.10755
4.11842
-0.881601
3.21645
1371.96
1375.7
1376.53
1375.6
1372.85
1368.39
1362.29
1354.55
1345.11
1333.88
1320.71
1305.47
1287.97
1268.05
1245.5
1220.12
1191.75
1160.2
1125.31
1086.95
1044.98
999.279
949.733
896.251
838.763
777.224
711.628
642.005
568.423
491.026
410.142
326.063
236.4
134.59
43.6939
8.07954
3.38504
2.73369
2.84394
3.05678
3.21651
3.28228
3.17157
2.9879
0.990452
8.16883
1305.97
1309.37
1310.32
1309.68
1307.32
1303.33
1297.75
1290.55
1281.65
1270.94
1258.29
1243.54
1226.49
1206.96
1184.76
1159.68
1131.53
1100.14
1065.35
1027.02
985.007
939.174
889.401
835.579
777.616
715.446
649.042
578.42
503.67
425.053
343.059
256.848
160.245
61.1628
10.7668
3.03075
2.13964
2.18805
2.3882
2.58331
2.71534
2.76344
2.68409
2.61309
2.63344
3.17145
1239.29
1242.39
1243.45
1243.09
1241.12
1237.61
1232.56
1225.92
1217.6
1207.47
1195.38
1181.17
1164.63
1145.58
1123.81
1099.11
1071.29
1040.19
1005.63
967.464
925.549
879.739
829.901
775.908
717.651
655.049
588.071
516.746
441.248
362.035
279.281
188.988
88.1121
18.8258
3.12463
1.63223
1.62306
1.82126
2.02495
2.20394
2.3266
2.38202
2.36673
2.32929
2.45556
0.061732
1172.02
1174.81
1175.99
1175.9
1174.33
1171.3
1166.79
1160.74
1153.03
1143.51
1132.04
1118.41
1102.45
1083.94
1062.69
1038.47
1011.1
980.4
946.2
908.345
866.677
821.045
771.301
717.306
658.938
596.114
528.81
457.112
381.358
302.119
217.897
121.631
34.4013
4.77544
1.50106
1.16665
1.32852
1.527
1.71371
1.87761
1.9924
2.05353
2.07008
2.03339
2.08864
1.00001
1104.24
1106.72
1108
1108.18
1107
1104.46
1100.52
1095.07
1088
1079.13
1068.31
1055.33
1040
1022.11
1001.45
977.814
951.004
920.835
887.134
849.733
808.465
763.168
713.683
659.86
601.571
538.742
471.381
399.687
324.214
245
157.112
61.5643
9.49157
1.52654
0.813732
0.893035
1.0821
1.26077
1.43217
1.5827
1.69171
1.75327
1.7836
1.75697
1.76074
1.14429
1035.99
1038.16
1039.56
1040
1039.21
1037.17
1033.8
1028.99
1022.58
1014.4
1004.27
991.987
977.35
960.145
940.163
917.202
891.062
861.553
828.492
791.697
750.991
706.199
657.147
603.677
545.669
483.064
415.941
344.681
269.887
189.664
97.3434
22.0756
2.61464
0.625291
0.497808
0.67504
0.848914
1.01254
1.17141
1.31143
1.41694
1.48127
1.51662
1.50835
1.5036
1.18162
967.341
969.201
970.709
971.388
970.997
969.476
966.71
962.55
956.831
949.37
939.975
928.443
914.56
898.114
878.897
856.709
831.351
802.628
770.348
734.316
694.341
650.23
601.797
548.88
491.365
429.235
362.683
292.296
218.075
134.869
46.4903
5.67943
0.651749
0.208334
0.307074
0.472396
0.625902
0.779131
0.927736
1.0595
1.1628
1.23119
1.27174
1.27642
1.27184
1.14791
898.338
899.872
901.482
902.403
902.423
901.437
899.293
895.818
890.826
884.121
875.505
864.77
851.702
836.09
817.728
796.416
771.955
744.146
712.791
677.682
638.61
595.364
547.746
495.589
438.797
377.414
311.806
242.563
167.795
81.8703
15.9245
1.45863
0.0065865
-0.039815
0.124039
0.270652
0.413078
0.558438
0.698487
0.823653
0.924968
0.996241
1.03997
1.05283
1.04669
0.989686
829.019
830.2
831.91
833.068
833.518
833.096
831.607
828.851
824.623
818.715
810.922
801.034
788.842
774.14
756.724
736.395
712.952
686.196
655.917
621.895
583.904
541.713
495.112
443.935
388.11
327.785
263.494
195.243
118.405
37.951
3.75299
-0.0170151
-0.312555
-0.202138
-0.0576177
0.0744716
0.210789
0.349141
0.481673
0.60117
0.700097
0.772402
0.817404
0.833209
0.822358
0.774803
759.416
760.192
762
763.396
764.308
764.491
763.699
761.704
758.283
753.216
746.292
737.303
726.048
712.327
695.945
676.705
654.409
628.85
599.81
567.052
530.331
489.397
444.029
394.065
339.48
280.56
217.786
149.458
71.5231
12.6306
0.688642
-0.505065
-0.516682
-0.36559
-0.238097
-0.112884
0.0184736
0.15007
0.275812
0.389944
0.485883
0.557623
0.602793
0.619591
0.607067
0.558166
689.545
689.813
691.738
693.378
694.803
695.649
695.612
694.433
691.868
687.69
681.685
673.649
663.388
650.718
635.453
617.406
596.381
572.168
544.536
513.231
477.984
438.529
394.633
346.146
293.121
235.979
174.661
105.198
32.9485
2.57122
-0.568138
-0.767046
-0.657139
-0.529387
-0.413021
-0.291187
-0.164957
-0.039904
0.0795135
0.18839
0.280813
0.351045
0.395734
0.41284
0.400283
0.352019
619.406
618.965
621.071
622.984
624.998
626.593
627.389
627.091
625.44
622.203
617.167
610.137
600.931
589.38
575.313
558.558
538.924
516.203
490.151
460.496
426.945
389.215
347.062
300.356
249.256
194.136
133.556
64.1962
10.7126
0.116929
-0.942008
-0.940827
-0.803894
-0.691297
-0.579815
-0.461354
-0.340529
-0.221693
-0.108294
-0.00462059
0.0839123
0.151871
0.195463
0.212301
0.19999
0.153906
549.005
547.491
549.876
552.152
554.876
557.335
559.068
559.735
559.063
556.821
552.803
546.829
538.735
528.369
515.581
500.214
482.091
461.005
436.707
408.908
377.297
341.568
301.463
256.895
208.129
155.111
94.4393
30.1677
1.8163
-1.01268
-1.15895
-1.06166
-0.950562
-0.84784
-0.738828
-0.624279
-0.508808
-0.395764
-0.28813
-0.189713
-0.105408
-0.0403316
0.00159749
0.0178828
0.00615473
-0.0369958
478.093
475.192
477.955
480.785
484.404
487.89
490.69
492.427
492.813
491.622
488.667
483.79
476.852
467.727
456.29
442.403
425.907
406.603
384.241
358.524
329.123
295.707
258.005
215.983
169.88
118.614
58.7938
9.65163
-0.379271
-1.32656
-1.3135
-1.19422
-1.09615
-0.997374
-0.890851
-0.780455
-0.669991
-0.562295
-0.460175
-0.367082
-0.287349
-0.22563
-0.185772
-0.170239
-0.181038
-0.220668
405.563
401.857
405.118
408.77
413.524
418.259
422.303
425.235
426.766
426.686
424.837
421.09
415.34
407.494
397.46
385.128
370.364
352.985
332.751
309.365
282.482
251.743
216.867
177.865
134.65
84.4214
29.0749
1.50011
-1.31896
-1.50641
-1.42432
-1.32757
-1.23733
-1.14013
-1.03641
-0.930071
-0.824209
-0.721495
-0.624676
-0.536919
-0.462002
-0.403991
-0.366439
-0.351717
-0.361384
-0.397219
330.523
327.625
330.986
336.029
342.243
348.468
353.95
358.22
360.992
362.084
361.377
358.783
354.239
347.691
339.089
328.364
315.416
300.095
282.186
261.4
237.386
209.757
178.211
142.722
102.498
53.881
9.46692
-0.819598
-1.67993
-1.64993
-1.54636
-1.46071
-1.3728
-1.27676
-1.17589
-1.07336
-0.971818
-0.873849
-0.782147
-0.699658
-0.629632
-0.575501
-0.540348
-0.526371
-0.534841
-0.566894
255.022
251.499
255.557
262.622
270.759
278.752
285.825
291.519
295.581
297.876
298.326
296.888
293.545
288.294
281.133
272.042
260.973
247.828
232.436
214.539
193.793
169.802
142.203
110.638
72.9134
28.5076
1.62053
-1.5124
-1.83601
-1.76059
-1.66971
-1.589
-1.50164
-1.40722
-1.30931
-1.2105
-1.11319
-1.01988
-0.933157
-0.855747
-0.790501
-0.740241
-0.707481
-0.694146
-0.7014
-0.729781
177.183
172.876
178.334
188.426
199.242
209.45
218.325
225.495
230.811
234.251
235.806
235.476
233.289
229.292
223.543
216.08
206.921
196.038
183.333
168.603
151.555
131.85
109.021
82.1373
47.3491
10.2874
-1.06804
-1.99544
-1.95805
-1.86601
-1.78993
-1.7113
-1.6242
-1.53159
-1.4366
-1.34148
-1.2484
-1.15971
-1.07783
-1.00526
-0.944531
-0.897985
-0.867541
-0.854743
-0.860721
-0.885566
85.8279
88.8653
99.3815
114.285
128.222
140.73
151.542
160.275
166.838
171.363
173.941
174.629
173.498
170.652
166.22
160.302
152.994
144.373
134.453
123.133
110.268
95.6927
78.5452
56.8441
27.6568
2.65951
-1.49914
-2.11235
-2.06223
-1.97663
-1.90511
-1.82693
-1.74056
-1.64985
-1.55766
-1.46609
-1.37716
-1.29301
-1.21582
-1.14786
-1.09135
-1.04826
-1.01999
-1.00764
-1.01225
-1.03368
10.1128
18.901
30.7321
46.4441
61.4985
74.8528
86.3983
95.9279
103.294
108.685
112.15
113.731
113.516
111.655
108.376
103.845
98.2682
91.8942
84.9378
77.5022
69.8195
61.9857
51.9652
36.0055
12.8779
-0.57604
-2.29522
-2.23322
-2.15436
-2.08726
-2.01657
-1.93698
-1.85101
-1.76202
-1.67241
-1.58418
-1.49921
-1.41943
-1.34678
-1.28322
-1.23066
-1.19073
-1.16445
-1.15247
-1.15565
-1.17375
-2.19122
-0.71998
1.40402
7.27638
14.6157
22.5625
30.6346
38.0313
44.0792
48.7835
52.066
53.8273
54.059
52.9064
50.7029
47.654
44.0936
40.4828
37.237
34.5488
33.1419
34.0351
32.7763
21.6373
2.81579
-1.78866
-2.41661
-2.34933
-2.26256
-2.19449
-2.12156
-2.04076
-1.95528
-1.8679
-1.78076
-1.69574
-1.61459
-1.53902
-1.47073
-1.41138
-1.36253
-1.32548
-1.30097
-1.2893
-1.29105
-1.30597
-1.96096
-1.70963
-1.85311
-1.83206
-0.933108
1.51996
3.9944
5.74121
6.88432
7.63494
8.21704
8.50811
8.27
7.5291
6.62093
5.69651
5.05337
5.09831
6.03202
7.46392
9.46574
14.4282
19.8466
11.6276
-1.32633
-2.5636
-2.48797
-2.42795
-2.36409
-2.29504
-2.21893
-2.13729
-2.05263
-1.96708
-1.88256
-1.80083
-1.72349
-1.65206
-1.588
-1.53269
-1.48734
-1.45293
-1.42998
-1.41858
-1.41901
-1.431
-1.96149
-1.91197
-1.96057
-1.93437
-1.99721
-2.19347
-2.28126
-2.03517
-1.72657
-1.40929
-1.1741
-1.10056
-1.19844
-1.42317
-1.59972
-1.74568
-1.83523
-1.82446
-1.70585
-1.57778
-1.50895
-0.474476
3.00789
-0.974322
-2.73206
-2.75624
-2.61789
-2.53241
-2.46085
-2.38628
-2.30746
-2.22564
-2.14233
-2.05913
-1.97766
-1.89953
-1.82617
-1.75893
-1.69904
-1.64761
-1.60557
-1.5736
-1.55206
-1.54092
-1.54023
-1.54964
-2.01715
-1.98164
-2.01059
-2.02128
-2.05753
-2.09791
-2.11649
-2.18712
-2.3686
-2.4913
-2.55027
-2.59084
-2.62594
-2.65912
-2.69161
-2.72412
-2.75737
-2.78793
-2.80962
-2.81965
-2.79484
-2.81387
-2.95505
-2.78154
-2.79742
-2.77609
-2.68792
-2.61098
-2.53805
-2.46287
-2.38467
-2.30457
-2.22383
-2.14384
-2.06609
-1.99201
-1.92292
-1.85998
-1.80424
-1.75658
-1.71769
-1.68803
-1.66781
-1.65697
-1.65536
-1.6626
-2.08975
-2.06888
-2.08272
-2.09838
-2.1281
-2.16236
-2.18933
-2.21409
-2.26107
-2.30639
-2.34228
-2.37451
-2.40727
-2.44236
-2.48063
-2.52262
-2.56859
-2.61784
-2.66974
-2.72349
-2.77673
-2.83783
-2.90383
-2.90904
-2.85015
-2.79681
-2.73068
-2.66484
-2.59677
-2.52522
-2.4506
-2.37417
-2.29734
-2.22154
-2.14821
-2.07869
-2.01416
-1.95566
-1.90407
-1.86008
-1.82419
-1.79673
-1.77781
-1.76731
-1.76499
-1.77041
-2.1686
-2.15398
-2.16131
-2.17427
-2.19709
-2.22766
-2.26033
-2.29477
-2.33639
-2.37852
-2.41693
-2.4525
-2.48725
-2.52259
-2.55925
-2.59735
-2.63682
-2.67753
-2.71901
-2.76008
-2.79966
-2.83769
-2.86907
-2.877
-2.84705
-2.8074
-2.75829
-2.70311
-2.64228
-2.57658
-2.50721
-2.43579
-2.36391
-2.29309
-2.22476
-2.16019
-2.10047
-2.0465
-1.99902
-1.95859
-1.92559
-1.90024
-1.88258
-1.87248
-1.86963
-1.87356
-2.24609
-2.23988
-2.24366
-2.25336
-2.2704
-2.29469
-2.32404
-2.35801
-2.39647
-2.43575
-2.47322
-2.50892
-2.54368
-2.57806
-2.6124
-2.64688
-2.68155
-2.7163
-2.75068
-2.78366
-2.81378
-2.84013
-2.85915
-2.86196
-2.84645
-2.81884
-2.78029
-2.73353
-2.67976
-2.62037
-2.55693
-2.49122
-2.42491
-2.35958
-2.29662
-2.23725
-2.18244
-2.13301
-2.08956
-2.05257
-2.02235
-1.99903
-1.98264
-1.973
-1.96975
-1.97253
-2.32274
-2.32442
-2.32674
-2.33431
-2.34756
-2.36694
-2.39165
-2.42087
-2.45358
-2.48761
-2.52149
-2.55475
-2.58738
-2.61944
-2.6511
-2.68257
-2.71389
-2.74491
-2.77509
-2.80341
-2.82849
-2.84916
-2.86285
-2.86477
-2.85417
-2.83244
-2.80059
-2.76021
-2.71263
-2.65932
-2.6019
-2.54213
-2.48166
-2.42203
-2.36459
-2.31049
-2.2606
-2.21563
-2.17612
-2.14246
-2.1149
-2.09357
-2.07842
-2.06929
-2.06585
-2.0678
-2.39835
-2.40543
-2.40767
-2.4143
-2.42534
-2.44145
-2.46235
-2.48725
-2.51505
-2.54447
-2.57453
-2.6046
-2.63428
-2.66345
-2.6922
-2.72071
-2.74899
-2.77681
-2.80345
-2.8278
-2.84879
-2.86525
-2.87523
-2.87622
-2.86729
-2.84874
-2.82118
-2.78565
-2.74332
-2.69555
-2.64388
-2.58993
-2.53527
-2.48134
-2.4294
-2.38049
-2.3354
-2.29478
-2.2591
-2.22868
-2.20373
-2.18433
-2.17041
-2.16187
-2.15844
-2.15982
-2.47222
-2.48205
-2.48481
-2.49136
-2.50132
-2.51539
-2.53347
-2.55493
-2.5789
-2.60449
-2.63092
-2.65759
-2.68408
-2.71023
-2.73607
-2.76168
-2.78698
-2.81161
-2.83485
-2.85572
-2.87318
-2.88614
-2.89328
-2.89301
-2.88454
-2.86782
-2.84318
-2.81138
-2.77346
-2.73061
-2.68424
-2.63581
-2.58675
-2.53836
-2.49177
-2.44789
-2.40746
-2.37103
-2.33903
-2.31175
-2.28935
-2.27187
-2.25924
-2.25134
-2.24804
-2.24912
-2.54361
-2.55378
-2.55725
-2.56458
-2.57431
-2.58716
-2.60317
-2.62194
-2.64281
-2.66508
-2.68817
-2.71157
-2.73495
-2.75816
-2.78118
-2.80392
-2.82619
-2.84759
-2.86751
-2.88509
-2.89943
-2.90962
-2.91453
-2.91311
-2.90475
-2.88924
-2.86682
-2.83809
-2.80397
-2.76553
-2.72404
-2.68079
-2.63705
-2.59393
-2.55244
-2.51339
-2.47741
-2.44501
-2.41656
-2.39231
-2.37238
-2.35681
-2.34552
-2.33839
-2.33533
-2.33624
-2.61165
-2.61965
-2.62599
-2.63405
-2.64391
-2.65604
-2.67054
-2.68715
-2.70541
-2.72481
-2.74487
-2.76527
-2.78575
-2.80618
-2.82643
-2.84632
-2.86558
-2.88384
-2.90056
-2.91509
-2.92669
-2.93453
-2.93772
-2.93544
-2.92715
-2.91265
-2.89213
-2.86612
-2.83544
-2.80107
-2.76412
-2.72573
-2.68698
-2.64885
-2.61218
-2.57769
-2.54594
-2.51737
-2.4923
-2.47094
-2.45341
-2.43971
-2.42979
-2.42353
-2.42085
-2.42168
-2.67524
-2.6828
-2.69093
-2.70004
-2.71023
-2.72194
-2.73531
-2.75019
-2.76626
-2.78316
-2.80058
-2.81832
-2.83618
-2.85398
-2.87152
-2.88861
-2.90497
-2.92027
-2.9341
-2.94593
-2.95515
-2.96103
-2.96284
-2.95987
-2.95168
-2.9381
-2.91932
-2.89584
-2.86839
-2.83784
-2.80516
-2.77132
-2.73725
-2.70379
-2.67164
-2.64143
-2.61364
-2.58867
-2.56678
-2.54816
-2.5329
-2.52102
-2.51246
-2.50714
-2.50495
-2.5058
-2.73577
-2.74366
-2.75308
-2.76318
-2.77377
-2.78526
-2.79778
-2.81125
-2.82548
-2.84028
-2.85547
-2.8709
-2.88639
-2.90173
-2.91671
-2.93113
-2.94479
-2.95744
-2.96873
-2.97824
-2.98541
-2.98962
-2.99022
-2.98665
-2.97857
-2.96588
-2.94877
-2.9277
-2.90332
-2.87639
-2.84772
-2.81814
-2.78843
-2.75929
-2.73134
-2.70509
-2.68098
-2.65933
-2.64038
-2.62431
-2.61119
-2.60104
-2.59383
-2.58946
-2.58781
-2.58876
-2.79433
-2.80273
-2.81317
-2.82413
-2.83512
-2.84647
-2.85833
-2.87066
-2.8834
-2.89648
-2.9098
-2.92324
-2.9366
-2.94968
-2.9623
-2.97431
-2.98558
-2.9959
-3.00502
-3.01252
-3.01791
-3.02064
-3.02019
-3.01612
-3.00821
-2.9964
-2.98092
-2.96217
-2.9407
-2.91716
-2.89222
-2.86659
-2.84089
-2.81573
-2.79162
-2.76899
-2.74823
-2.72963
-2.71338
-2.69965
-2.6885
-2.67997
-2.67403
-2.6706
-2.6695
-2.67059
-2.85174
-2.86062
-2.87188
-2.88353
-2.89483
-2.90605
-2.91733
-2.92873
-2.94027
-2.95196
-2.96373
-2.97544
-2.9869
-2.99796
-3.0085
-3.01842
-3.02764
-3.03602
-3.04327
-3.04905
-3.05291
-3.05438
-3.05306
-3.04864
-3.04098
-3.0301
-3.01621
-2.99965
-2.98091
-2.9605
-2.939
-2.91696
-2.89491
-2.87334
-2.85269
-2.83334
-2.8156
-2.79974
-2.78593
-2.77432
-2.76497
-2.75792
-2.75315
-2.75059
-2.75004
-2.7513
-2.90872
-2.91795
-2.92981
-2.94194
-2.95342
-2.96445
-2.97523
-2.98586
-2.99643
-3.00698
-3.01743
-3.02762
-3.03741
-3.04671
-3.05547
-3.06366
-3.0712
-3.07796
-3.08367
-3.08802
-3.0906
-3.09106
-3.08909
-3.0845
-3.07721
-3.06728
-3.05492
-3.04043
-3.0242
-3.00665
-2.98824
-2.96942
-2.95062
-2.93225
-2.91469
-2.89824
-2.8832
-2.86978
-2.85815
-2.84844
-2.84071
-2.83499
-2.83128
-2.8295
-2.82944
-2.8309
-2.96585
-2.97528
-2.98752
-2.99992
-3.01141
-3.0222
-3.03252
-3.04251
-3.05227
-3.06183
-3.07108
-3.07993
-3.08827
-3.0961
-3.10341
-3.11021
-3.11641
-3.12187
-3.12634
-3.12953
-3.13111
-3.13081
-3.12842
-3.12383
-3.11701
-3.10807
-3.09718
-3.0846
-3.07064
-3.05565
-3.03998
-3.024
-3.00807
-2.99251
-2.97765
-2.96377
-2.9511
-2.93984
-2.93015
-2.92212
-2.91583
-2.9113
-2.90851
-2.90741
-2.9078
-2.90947
-3.02365
-3.03314
-3.04553
-3.05796
-3.06932
-3.07983
-3.08973
-3.09916
-3.10819
-3.11681
-3.12498
-3.13263
-3.13976
-3.1464
-3.15259
-3.1583
-3.16347
-3.16791
-3.17139
-3.17366
-3.17448
-3.17364
-3.17103
-3.16658
-3.16033
-3.15239
-3.1429
-3.13207
-3.12016
-3.10742
-3.09416
-3.08066
-3.06721
-3.0541
-3.0416
-3.02996
-3.01937
-3.01003
-3.00205
-2.99552
-2.9905
-2.987
-2.98502
-2.98449
-2.98525
-2.98715
-3.0826
-3.09201
-3.10432
-3.11661
-3.12772
-3.13791
-3.14739
-3.15626
-3.16458
-3.17232
-3.1795
-3.18614
-3.1923
-3.19802
-3.20335
-3.20824
-3.21257
-3.21618
-3.21886
-3.2204
-3.22064
-3.21945
-3.21678
-3.21261
-3.20701
-3.20005
-3.19188
-3.18266
-3.17256
-3.16181
-3.15063
-3.13927
-3.12798
-3.11699
-3.10655
-3.09687
-3.08812
-3.08046
-3.074
-3.06879
-3.06489
-3.0623
-3.061
-3.06096
-3.06205
-3.06418
-3.14311
-3.1523
-3.16437
-3.17636
-3.18716
-3.19697
-3.20599
-3.21429
-3.22189
-3.22883
-3.23517
-3.24099
-3.24637
-3.25139
-3.25603
-3.26023
-3.26385
-3.26674
-3.26874
-3.2697
-3.26951
-3.26813
-3.26554
-3.26177
-3.25685
-3.25087
-3.24393
-3.23613
-3.22764
-3.21861
-3.20924
-3.19973
-3.1903
-3.18117
-3.17253
-3.16457
-3.15745
-3.15129
-3.14616
-3.14213
-3.13921
-3.13741
-3.13671
-3.13709
-3.13848
-3.14081
-3.20547
-3.21435
-3.22604
-3.23765
-3.24806
-3.25743
-3.26594
-3.27364
-3.28057
-3.2868
-3.29244
-3.2976
-3.30238
-3.3068
-3.31083
-3.3144
-3.31736
-3.31961
-3.32102
-3.32153
-3.32107
-3.31965
-3.31727
-3.31395
-3.30973
-3.30467
-3.29884
-3.29231
-3.2852
-3.27766
-3.26985
-3.26195
-3.25415
-3.24665
-3.2396
-3.23318
-3.2275
-3.22266
-3.21872
-3.21572
-3.21367
-3.21258
-3.21241
-3.21316
-3.21481
-3.21735
-3.26985
-3.27836
-3.28958
-3.30072
-3.31065
-3.31953
-3.32748
-3.33459
-3.34092
-3.34656
-3.35165
-3.35629
-3.36054
-3.36442
-3.36788
-3.37083
-3.37319
-3.37487
-3.37581
-3.376
-3.37541
-3.37405
-3.37195
-3.36911
-3.36557
-3.36133
-3.35647
-3.35103
-3.34513
-3.33887
-3.33242
-3.32594
-3.31958
-3.31351
-3.30788
-3.30281
-3.29841
-3.29474
-3.29186
-3.28977
-3.2885
-3.28802
-3.28834
-3.28943
-3.29133
-3.29405
-3.33637
-3.34446
-3.35511
-3.36567
-3.37507
-3.3834
-3.39081
-3.39739
-3.40322
-3.4084
-3.41305
-3.41724
-3.42103
-3.42439
-3.42728
-3.42966
-3.43148
-3.43269
-3.43328
-3.43327
-3.43264
-3.43142
-3.42962
-3.42724
-3.42428
-3.42076
-3.41673
-3.41223
-3.40736
-3.40223
-3.39697
-3.39173
-3.38664
-3.38185
-3.37747
-3.37361
-3.37034
-3.36771
-3.36574
-3.36447
-3.36387
-3.36396
-3.36471
-3.36613
-3.36824
-3.37112
-3.40509
-3.41271
-3.42272
-3.43263
-3.44143
-3.44923
-3.45615
-3.46228
-3.46772
-3.47254
-3.47682
-3.48062
-3.48396
-3.48682
-3.48919
-3.49106
-3.49241
-3.49325
-3.4936
-3.49346
-3.49285
-3.49179
-3.49026
-3.48826
-3.4858
-3.48289
-3.47956
-3.47587
-3.47189
-3.46775
-3.46354
-3.4594
-3.45544
-3.45178
-3.44851
-3.4457
-3.44342
-3.44168
-3.44053
-3.43996
-3.43996
-3.44055
-3.44169
-3.44341
-3.44573
-3.44872
-3.476
-3.48312
-3.49245
-3.50168
-3.5099
-3.5172
-3.52371
-3.52949
-3.5346
-3.53911
-3.54306
-3.54648
-3.54939
-3.55179
-3.5537
-3.55512
-3.5561
-3.55665
-3.55681
-3.55659
-3.55602
-3.55509
-3.55379
-3.55211
-3.55006
-3.54765
-3.54492
-3.54192
-3.53874
-3.53546
-3.53218
-3.52901
-3.52605
-3.52337
-3.52106
-3.51917
-3.51774
-3.51678
-3.51632
-3.51636
-3.51689
-3.5179
-3.5194
-3.52138
-3.52387
-3.52694
-3.54902
-3.55564
-3.56429
-3.57287
-3.58055
-3.58742
-3.59357
-3.59904
-3.60387
-3.60808
-3.6117
-3.61475
-3.61726
-3.61924
-3.62075
-3.62182
-3.6225
-3.62284
-3.62286
-3.62259
-3.62204
-3.62121
-3.62009
-3.61867
-3.61696
-3.61497
-3.61276
-3.61037
-3.60788
-3.60536
-3.6029
-3.60058
-3.59848
-3.59667
-3.59518
-3.59407
-3.59336
-3.59306
-3.59319
-3.59374
-3.59471
-3.59609
-3.59789
-3.60009
-3.60272
-3.60582
-3.62402
-3.63017
-3.63819
-3.64616
-3.65335
-3.65982
-3.66563
-3.6708
-3.67533
-3.67923
-3.68252
-3.68523
-3.68738
-3.68903
-3.69022
-3.69102
-3.69149
-3.69167
-3.69159
-3.69129
-3.69076
-3.69
-3.68901
-3.68779
-3.68637
-3.68475
-3.68299
-3.68113
-3.67925
-3.6774
-3.67565
-3.67408
-3.67272
-3.67164
-3.67085
-3.6704
-3.6703
-3.67055
-3.67116
-3.67213
-3.67345
-3.67513
-3.67716
-3.67954
-3.68226
-3.68535
-3.70088
-3.70658
-3.71399
-3.7214
-3.72812
-3.7342
-3.73966
-3.7445
-3.74871
-3.75231
-3.75529
-3.75769
-3.75957
-3.76096
-3.76193
-3.76256
-3.76288
-3.76296
-3.76281
-3.76248
-3.76195
-3.76124
-3.76037
-3.75932
-3.75814
-3.75685
-3.75548
-3.7541
-3.75275
-3.75149
-3.75036
-3.74942
-3.7487
-3.74823
-3.74804
-3.74813
-3.74852
-3.74921
-3.75021
-3.75151
-3.75311
-3.755
-3.7572
-3.75969
-3.76245
-3.76549
-3.77945
-3.78472
-3.79157
-3.79842
-3.80467
-3.81033
-3.81541
-3.81991
-3.8238
-3.8271
-3.82982
-3.83199
-3.83366
-3.83488
-3.83572
-3.83623
-3.83647
-3.83647
-3.83628
-3.83592
-3.8354
-3.83474
-3.83395
-3.83306
-3.8321
-3.8311
-3.83009
-3.82913
-3.82825
-3.8275
-3.82691
-3.82651
-3.82632
-3.82636
-3.82665
-3.82718
-3.82797
-3.829
-3.83029
-3.83183
-3.83361
-3.83565
-3.83794
-3.84048
-3.84324
-3.8462
-3.8596
-3.86447
-3.87076
-3.87706
-3.88282
-3.88804
-3.89273
-3.89688
-3.90047
-3.90351
-3.90602
-3.90801
-3.90954
-3.91065
-3.9114
-3.91184
-3.91202
-3.91198
-3.91175
-3.91137
-3.91086
-3.91024
-3.90955
-3.90881
-3.90806
-3.90733
-3.90666
-3.90608
-3.90561
-3.90531
-3.90517
-3.90522
-3.90547
-3.90593
-3.9066
-3.90747
-3.90855
-3.90983
-3.91132
-3.91301
-3.9149
-3.917
-3.91932
-3.92186
-3.92457
-3.92743
-3.94119
-3.94567
-3.95142
-3.95718
-3.96244
-3.96723
-3.97154
-3.97536
-3.97867
-3.98149
-3.98381
-3.98567
-3.98709
-3.98812
-3.9888
-3.98918