/*--------------------------------*- C++ -*----------------------------------*\
  =========                 |
  \\      /  F ield         | OpenFOAM: The Open Source CFD Toolbox
   \\    /   O peration     | Website:  https://openfoam.org
    \\  /    A nd           | Version:  9
     \\/     M anipulation  |
\*---------------------------------------------------------------------------*/
FoamFile
{
    format      ascii;
    class       surfaceScalarField;
    location    "0.11";
    object      phi;
}
// * * * * * * * * * * * * * * * * * * * * * * * * * * * * * * * * * * * * * //

dimensions      [0 3 -1 0 0 0 0];

internalField   nonuniform List<scalar> 
24170
(
3.13359e-06
5.48115e-08
3.04825e-06
8.534e-08
2.97311e-06
7.51454e-08
2.90424e-06
6.88655e-08
2.83937e-06
6.48689e-08
2.7821e-06
5.72705e-08
2.73314e-06
4.89601e-08
2.69155e-06
4.15981e-08
2.65602e-06
3.55297e-08
2.62538e-06
3.0634e-08
2.59867e-06
2.67138e-08
2.57506e-06
2.36097e-08
2.55385e-06
2.12102e-08
2.53433e-06
1.95205e-08
2.5158e-06
1.85323e-08
2.49624e-06
1.95527e-08
2.47428e-06
2.19628e-08
4.20829e-08
2.4322e-06
3.45361e-06
1.845e-08
3.45616e-06
8.27915e-08
3.4496e-06
8.16999e-08
3.43797e-06
8.05014e-08
3.42346e-06
7.93782e-08
3.40589e-06
7.48396e-08
3.38622e-06
6.86259e-08
3.36527e-06
6.25477e-08
3.34381e-06
5.69938e-08
3.32244e-06
5.20087e-08
3.30155e-06
4.76035e-08
3.28136e-06
4.37942e-08
3.26199e-06
4.05817e-08
3.24341e-06
3.81026e-08
3.22566e-06
3.62793e-08
3.20857e-06
3.66459e-08
3.19308e-06
3.7455e-08
4.97399e-08
3.18542e-06
3.66535e-06
1.56157e-08
3.67824e-06
6.98995e-08
3.68529e-06
7.46509e-08
3.68956e-06
7.62371e-08
3.69121e-06
7.77274e-08
3.69005e-06
7.60011e-08
3.68656e-06
7.21146e-08
3.68132e-06
6.77894e-08
3.67474e-06
6.3564e-08
3.66719e-06
5.95604e-08
3.65894e-06
5.58592e-08
3.65019e-06
5.25465e-08
3.64108e-06
4.96874e-08
3.63172e-06
4.74598e-08
3.6221e-06
4.59063e-08
3.61266e-06
4.60765e-08
3.60302e-06
4.70963e-08
5.30835e-08
3.59968e-06
3.92465e-06
1.63582e-08
3.93579e-06
5.87564e-08
3.94252e-06
6.79209e-08
3.94798e-06
7.07808e-08
3.95236e-06
7.33408e-08
3.95525e-06
7.31129e-08
3.95676e-06
7.06014e-08
3.9572e-06
6.73554e-08
3.95674e-06
6.40225e-08
3.95553e-06
6.07655e-08
3.95371e-06
5.76831e-08
3.95137e-06
5.48846e-08
3.94859e-06
5.24646e-08
3.94546e-06
5.05926e-08
3.942e-06
4.93688e-08
3.93869e-06
4.93868e-08
3.93554e-06
5.02454e-08
5.30905e-08
3.93553e-06
4.20776e-06
1.57213e-08
4.21599e-06
5.05338e-08
4.22164e-06
6.2272e-08
4.22655e-06
6.58697e-08
4.23122e-06
6.86689e-08
4.23514e-06
6.919e-08
4.2382e-06
6.75473e-08
4.24051e-06
6.50358e-08
4.24221e-06
6.23287e-08
4.24336e-06
5.96138e-08
4.24405e-06
5.69978e-08
4.24433e-06
5.45983e-08
4.24428e-06
5.25213e-08
4.24396e-06
5.09104e-08
4.24346e-06
4.98646e-08
4.24317e-06
4.96789e-08
4.2433e-06
5.01129e-08
5.12451e-08
4.24515e-06
4.51044e-06
1.43722e-08
4.51685e-06
4.41212e-08
4.52214e-06
5.69766e-08
4.52678e-06
6.12323e-08
4.53137e-06
6.40841e-08
4.53552e-06
6.50344e-08
4.53906e-06
6.40064e-08
4.54206e-06
6.20435e-08
4.54458e-06
5.98053e-08
4.54669e-06
5.75032e-08
4.54844e-06
5.52496e-08
4.54987e-06
5.31622e-08
4.55105e-06
5.13454e-08
4.55205e-06
4.99114e-08
4.55298e-06
4.89311e-08
4.55414e-06
4.85214e-08
4.55577e-06
4.84838e-08
4.85631e-08
4.55845e-06
4.83412e-06
1.2975e-08
4.83957e-06
3.86725e-08
4.8448e-06
5.17416e-08
4.84937e-06
5.66653e-08
4.85385e-06
5.96041e-08
4.85804e-06
6.08423e-08
4.86176e-06
6.02856e-08
4.86504e-06
5.87617e-08
4.86795e-06
5.68974e-08
4.87053e-06
5.4926e-08
4.87281e-06
5.29648e-08
4.87485e-06
5.11261e-08
4.87669e-06
4.95052e-08
4.87842e-06
4.81842e-08
4.88015e-06
4.72012e-08
4.88209e-06
4.65725e-08
4.88446e-06
4.61165e-08
4.55333e-08
4.88749e-06
5.1809e-06
1.1659e-08
5.18569e-06
3.38785e-08
5.19081e-06
4.66246e-08
5.19536e-06
5.21102e-08
5.1998e-06
5.51711e-08
5.20402e-06
5.662e-08
5.20786e-06
5.64473e-08
5.21132e-06
5.53e-08
5.21446e-06
5.37554e-08
5.21732e-06
5.20638e-08
5.21994e-06
5.03478e-08
5.22235e-06
4.87116e-08
5.22462e-06
4.72387e-08
5.22682e-06
4.5986e-08
5.22905e-06
4.49649e-08
5.23149e-06
4.41414e-08
5.23425e-06
4.33556e-08
4.23599e-08
5.23742e-06
5.5526e-06
1.03996e-08
5.55684e-06
2.96397e-08
5.56174e-06
4.17248e-08
5.56628e-06
4.75675e-08
5.5707e-06
5.07455e-08
5.57497e-06
5.23501e-08
5.57892e-06
5.24959e-08
5.58254e-06
5.16833e-08
5.58587e-06
5.04251e-08
5.58895e-06
4.89809e-08
5.59182e-06
4.74777e-08
5.59452e-06
4.60115e-08
5.59711e-06
4.46537e-08
5.59965e-06
4.34427e-08
5.60224e-06
4.23731e-08
5.60499e-06
4.13924e-08
5.60798e-06
4.03692e-08
3.91278e-08
5.61121e-06
5.95098e-06
9.19365e-09
5.95474e-06
2.58787e-08
5.95938e-06
3.70871e-08
5.96389e-06
4.30574e-08
5.96832e-06
4.63192e-08
5.97263e-06
4.80335e-08
5.97669e-06
4.84354e-08
5.98046e-06
4.79168e-08
5.98397e-06
4.6918e-08
5.98725e-06
4.56967e-08
5.99035e-06
4.43829e-08
5.99329e-06
4.30644e-08
5.99615e-06
4.18017e-08
5.99897e-06
4.06217e-08
6.00183e-06
3.95113e-08
6.0048e-06
3.84181e-08
6.00793e-06
3.72418e-08
3.58712e-08
6.01119e-06
6.37795e-06
8.05444e-09
6.38131e-06
2.2518e-08
6.38568e-06
3.27198e-08
6.39013e-06
3.86045e-08
6.39455e-06
4.18973e-08
6.39891e-06
4.36792e-08
6.40307e-06
4.42747e-08
6.40698e-06
4.40049e-08
6.41066e-06
4.32376e-08
6.41414e-06
4.22173e-08
6.41745e-06
4.10737e-08
6.42063e-06
3.98874e-08
6.42372e-06
3.87101e-08
6.42678e-06
3.75622e-08
6.42986e-06
3.64303e-08
6.43301e-06
3.52716e-08
6.43623e-06
3.40152e-08
3.25993e-08
6.4395e-06
5.74175e-06
7.14303e-09
5.74432e-06
1.99425e-08
5.74781e-06
2.92348e-08
5.75151e-06
3.48988e-08
5.75524e-06
3.81666e-08
5.75895e-06
3.99765e-08
5.76253e-06
4.06891e-08
5.76594e-06
4.05911e-08
5.76919e-06
3.99963e-08
5.77227e-06
3.91295e-08
5.77523e-06
3.81169e-08
5.77808e-06
3.70338e-08
5.78087e-06
3.59265e-08
5.78362e-06
3.48126e-08
5.78637e-06
3.36821e-08
5.78913e-06
3.25032e-08
5.79192e-06
3.12256e-08
2.98202e-08
5.7947e-06
6.99913e-06
6.16911e-09
7.00185e-06
1.72187e-08
7.00562e-06
2.54638e-08
7.00977e-06
3.07544e-08
7.01402e-06
3.39144e-08
7.01829e-06
3.57101e-08
7.02247e-06
3.65091e-08
7.02649e-06
3.65659e-08
7.03035e-06
3.61396e-08
7.03405e-06
3.5429e-08
7.03761e-06
3.45529e-08
7.04107e-06
3.35812e-08
7.04444e-06
3.2555e-08
7.04776e-06
3.14919e-08
7.05105e-06
3.03871e-08
7.05434e-06
2.92216e-08
7.0576e-06
2.79652e-08
2.66134e-08
7.0608e-06
8.53187e-06
5.14172e-09
8.53472e-06
1.43727e-08
8.53875e-06
2.14328e-08
8.54333e-06
2.61764e-08
8.54813e-06
2.91161e-08
8.553e-06
3.08341e-08
8.55784e-06
3.16712e-08
8.56256e-06
3.18499e-08
8.56712e-06
3.15767e-08
8.57153e-06
3.10184e-08
8.5758e-06
3.0282e-08
8.57995e-06
2.94309e-08
8.584e-06
2.85025e-08
8.58798e-06
2.75149e-08
8.5919e-06
2.64705e-08
8.59576e-06
2.53621e-08
8.59955e-06
2.41761e-08
2.29251e-08
8.60324e-06
1.04003e-05
4.07114e-09
1.04032e-05
1.14209e-08
1.04075e-05
1.71591e-08
1.04125e-05
2.11687e-08
1.04179e-05
2.37472e-08
1.04234e-05
2.52993e-08
1.0429e-05
2.61077e-08
1.04345e-05
2.63587e-08
1.04398e-05
2.62103e-08
1.04451e-05
2.57932e-08
1.04502e-05
2.51976e-08
1.04551e-05
2.44791e-08
1.04599e-05
2.36711e-08
1.04647e-05
2.27927e-08
1.04693e-05
2.1852e-08
1.04738e-05
2.08519e-08
1.04782e-05
1.979e-08
1.86885e-08
1.04824e-05
1.26779e-05
2.96244e-09
1.2681e-05
8.35372e-09
1.26855e-05
1.26316e-08
1.26909e-05
1.57165e-08
1.26969e-05
1.77688e-08
1.27032e-05
1.90407e-08
1.27096e-05
1.97359e-08
1.27159e-05
1.99956e-08
1.27222e-05
1.99323e-08
1.27283e-05
1.96394e-08
1.27344e-05
1.91853e-08
1.27402e-05
1.86148e-08
1.27459e-05
1.79561e-08
1.27515e-05
1.72278e-08
1.27569e-05
1.64411e-08
1.27622e-05
1.56043e-08
1.27672e-05
1.47217e-08
1.38186e-08
1.27721e-05
1.54543e-05
1.80375e-09
1.54576e-05
5.11787e-09
1.54624e-05
7.77946e-09
1.54684e-05
9.74507e-09
1.54751e-05
1.10911e-08
1.54822e-05
1.19486e-08
1.54895e-05
1.24335e-08
1.54968e-05
1.26311e-08
1.55042e-05
1.26085e-08
1.55114e-05
1.24214e-08
1.55184e-05
1.21123e-08
1.55254e-05
1.17107e-08
1.55321e-05
1.1237e-08
1.55386e-05
1.07055e-08
1.55449e-05
1.01269e-08
1.5551e-05
9.51066e-09
1.55569e-05
8.86259e-09
8.2068e-09
1.55625e-05
1.88389e-05
5.52467e-10
1.88424e-05
1.57927e-09
1.88478e-05
2.41202e-09
1.88545e-05
3.0428e-09
1.88621e-05
3.49507e-09
1.88702e-05
3.7992e-09
1.88787e-05
3.97815e-09
1.88873e-05
4.05064e-09
1.88959e-05
4.03461e-09
1.89043e-05
3.94581e-09
1.89126e-05
3.79653e-09
1.89208e-05
3.59622e-09
1.89286e-05
3.35252e-09
1.89363e-05
3.07206e-09
1.89436e-05
2.7608e-09
1.89507e-05
2.42498e-09
1.89575e-05
2.06871e-09
1.71134e-09
1.8964e-05
2.29648e-05
-9.00034e-10
2.29689e-05
-2.56735e-09
2.29753e-05
-3.91355e-09
2.29832e-05
-4.89372e-09
2.29922e-05
-5.5233e-09
2.30019e-05
-5.88823e-09
2.3012e-05
-6.08152e-09
2.30222e-05
-6.16184e-09
2.30324e-05
-6.16619e-09
2.30424e-05
-6.12618e-09
2.30523e-05
-6.06748e-09
2.30619e-05
-6.00666e-09
2.30712e-05
-5.95298e-09
2.30802e-05
-5.91138e-09
2.30888e-05
-5.88417e-09
2.30971e-05
-5.8712e-09
2.31051e-05
-5.8724e-09
-5.8752e-09
2.31127e-05
1.68119e-05
-2.05102e-09
1.68151e-05
-5.81752e-09
1.68201e-05
-8.86644e-09
1.68262e-05
-1.10518e-08
1.68331e-05
-1.24214e-08
1.68404e-05
-1.32086e-08
1.6848e-05
-1.36173e-08
1.68556e-05
-1.37556e-08
1.68631e-05
-1.36986e-08
1.68705e-05
-1.35172e-08
1.68777e-05
-1.32666e-08
1.68847e-05
-1.29813e-08
1.68914e-05
-1.26822e-08
1.68979e-05
-1.23827e-08
1.69041e-05
-1.20912e-08
1.691e-05
-1.18117e-08
1.69157e-05
-1.15465e-08
-1.12873e-08
1.69211e-05
1.46357e-05
-3.16561e-09
1.46389e-05
-8.99294e-09
1.46437e-05
-1.37163e-08
1.46496e-05
-1.69686e-08
1.46561e-05
-1.88953e-08
1.46629e-05
-1.99706e-08
1.46697e-05
-2.04966e-08
1.46766e-05
-2.06073e-08
1.46833e-05
-2.04228e-08
1.46899e-05
-2.00596e-08
1.46962e-05
-1.9597e-08
1.47023e-05
-1.90807e-08
1.47081e-05
-1.85395e-08
1.47138e-05
-1.79938e-08
1.47191e-05
-1.74564e-08
1.47242e-05
-1.69339e-08
1.47291e-05
-1.64303e-08
-1.59399e-08
1.47338e-05
1.27412e-05
-4.21939e-09
1.27444e-05
-1.2219e-08
1.27494e-05
-1.86986e-08
1.27552e-05
-2.2796e-08
1.27614e-05
-2.50505e-08
1.27677e-05
-2.63065e-08
1.27741e-05
-2.68681e-08
1.27803e-05
-2.68622e-08
1.27864e-05
-2.64804e-08
1.27922e-05
-2.58942e-08
1.27978e-05
-2.51987e-08
1.28032e-05
-2.44436e-08
1.28083e-05
-2.36634e-08
1.28132e-05
-2.28827e-08
1.28179e-05
-2.21167e-08
1.28223e-05
-2.13727e-08
1.28265e-05
-2.06548e-08
-1.99586e-08
1.28306e-05
1.10918e-05
-5.1017e-09
1.10951e-05
-1.55554e-08
1.11005e-05
-2.40166e-08
1.11063e-05
-2.86077e-08
1.11122e-05
-3.09289e-08
1.11181e-05
-3.22693e-08
1.1124e-05
-3.27769e-08
1.11297e-05
-3.25709e-08
1.11352e-05
-3.19431e-08
1.11404e-05
-3.11099e-08
1.11454e-05
-3.01686e-08
1.11501e-05
-2.91706e-08
1.11546e-05
-2.81556e-08
1.11589e-05
-2.71512e-08
1.11629e-05
-2.61724e-08
1.11668e-05
-2.52259e-08
1.11704e-05
-2.43148e-08
-2.34355e-08
1.11739e-05
9.65583e-06
-5.72025e-09
9.65937e-06
-1.90924e-08
9.66499e-06
-2.96378e-08
9.6707e-06
-3.43177e-08
9.67637e-06
-3.66006e-08
9.68205e-06
-3.79433e-08
9.68752e-06
-3.82547e-08
9.69271e-06
-3.77544e-08
9.69762e-06
-3.68498e-08
9.70227e-06
-3.57634e-08
9.70668e-06
-3.45751e-08
9.71084e-06
-3.33365e-08
9.71478e-06
-3.20924e-08
9.7185e-06
-3.08722e-08
9.72202e-06
-2.96901e-08
9.72534e-06
-2.8552e-08
9.72849e-06
-2.7459e-08
-2.64062e-08
9.73146e-06
8.40544e-06
-5.8043e-09
8.40982e-06
-2.34781e-08
8.41534e-06
-3.51582e-08
8.42056e-06
-3.95309e-08
8.42601e-06
-4.2059e-08
8.43152e-06
-4.34475e-08
8.43671e-06
-4.34424e-08
8.44151e-06
-4.25553e-08
8.44598e-06
-4.13223e-08
8.45016e-06
-3.99436e-08
8.45406e-06
-3.84764e-08
8.4577e-06
-3.6973e-08
8.46109e-06
-3.54811e-08
8.46424e-06
-3.40297e-08
8.46719e-06
-3.26326e-08
8.46993e-06
-3.12955e-08
8.47249e-06
-3.00192e-08
-2.87997e-08
8.47488e-06
7.31506e-06
-3.58101e-09
7.32196e-06
-3.03723e-08
7.32742e-06
-4.06226e-08
7.33221e-06
-4.43183e-08
7.33754e-06
-4.73947e-08
7.34294e-06
-4.88493e-08
7.34794e-06
-4.84353e-08
7.35245e-06
-4.70709e-08
7.35653e-06
-4.54032e-08
7.3602e-06
-4.36107e-08
7.36348e-06
-4.17525e-08
7.3664e-06
-3.9892e-08
7.36899e-06
-3.80786e-08
7.3713e-06
-3.63385e-08
7.37335e-06
-3.46833e-08
7.37518e-06
-3.31175e-08
7.37679e-06
-3.16383e-08
-3.02393e-08
7.37823e-06
6.36222e-06
4.26117e-09
6.37296e-06
-4.11049e-08
6.38009e-06
-4.77609e-08
6.38629e-06
-5.05137e-08
6.39228e-06
-5.33828e-08
6.39759e-06
-5.41585e-08
6.40197e-06
-5.28186e-08
6.40557e-06
-5.06748e-08
6.40851e-06
-4.8341e-08
6.41083e-06
-4.59295e-08
6.41259e-06
-4.35081e-08
6.41385e-06
-4.11544e-08
6.41469e-06
-3.8917e-08
6.41516e-06
-3.68154e-08
6.41534e-06
-3.48565e-08
6.41526e-06
-3.30412e-08
6.41498e-06
-3.13611e-08
-2.9796e-08
6.41454e-06
5.53608e-06
1.36439e-08
5.54776e-06
-5.27847e-08
5.55746e-06
-5.74568e-08
5.56604e-06
-5.90947e-08
5.57282e-06
-6.01647e-08
5.57726e-06
-5.85965e-08
5.57942e-06
-5.49848e-08
5.57988e-06
-5.1131e-08
5.57905e-06
-4.75098e-08
5.57721e-06
-4.40927e-08
5.57459e-06
-4.08873e-08
5.57137e-06
-3.79312e-08
5.56769e-06
-3.52379e-08
5.56367e-06
-3.27991e-08
5.55942e-06
-3.06004e-08
5.55501e-06
-2.86388e-08
5.55056e-06
-2.69051e-08
-2.53382e-08
5.5461e-06
4.85751e-06
-1.62568e-08
4.86091e-06
-5.61893e-08
4.86151e-06
-5.80557e-08
4.85885e-06
-5.64361e-08
4.85486e-06
-5.61686e-08
4.84818e-06
-5.19156e-08
4.83894e-06
-4.57485e-08
4.82771e-06
-3.98996e-08
4.81512e-06
-3.49227e-08
4.80177e-06
-3.07406e-08
4.7881e-06
-2.72173e-08
4.77442e-06
-2.42496e-08
4.76093e-06
-2.17467e-08
4.74776e-06
-1.96295e-08
4.73499e-06
-1.78351e-08
4.72271e-06
-1.63534e-08
4.71101e-06
-1.5211e-08
-1.49011e-08
4.70057e-06
4.18642e-06
4.13023e-06
4.07217e-06
4.01574e-06
3.95957e-06
3.90765e-06
3.86191e-06
3.82201e-06
3.78708e-06
3.75634e-06
3.72913e-06
3.70488e-06
3.68313e-06
3.6635e-06
3.64566e-06
3.62931e-06
3.6141e-06
3.5992e-06
1.12622e-08
-1.12622e-08
2.71494e-08
-1.58872e-08
4.17856e-08
-1.46362e-08
5.26349e-08
-1.08493e-08
5.83961e-08
-5.76119e-09
5.84789e-08
-8.27862e-11
5.30701e-08
5.40882e-09
4.26786e-08
1.03915e-08
2.81101e-08
1.45685e-08
1.02545e-08
1.78556e-08
-1.00578e-08
2.03123e-08
-3.2183e-08
2.21252e-08
-5.56979e-08
2.35149e-08
-8.03679e-08
2.467e-08
-1.06099e-07
2.57311e-08
-1.32879e-07
2.67801e-08
-1.60727e-07
2.78482e-08
-1.89656e-07
2.89287e-08
-2.19656e-07
3.00004e-08
-2.5073e-07
3.10734e-08
-2.82957e-07
3.22277e-08
-3.16479e-07
3.35216e-08
-3.51239e-07
3.47603e-08
-3.86783e-07
3.55437e-08
-4.22644e-07
3.58614e-08
-4.59179e-07
3.65348e-08
-4.99115e-07
3.99355e-08
-5.40682e-07
4.15672e-08
-5.81367e-07
4.06852e-08
-6.2374e-07
4.2373e-08
-6.66319e-07
4.25783e-08
-7.12866e-07
4.65471e-08
-7.60321e-07
4.74555e-08
-8.04391e-07
4.40697e-08
-8.46586e-07
4.2195e-08
-8.87459e-07
4.08734e-08
-9.29512e-07
4.20525e-08
-9.71846e-07
4.23338e-08
-1.01416e-06
4.23126e-08
-1.05628e-06
4.21218e-08
-1.09812e-06
4.18437e-08
-1.13965e-06
4.15301e-08
-1.18087e-06
4.12117e-08
-1.22177e-06
4.09058e-08
-1.26239e-06
4.06213e-08
-1.30275e-06
4.03615e-08
-1.34288e-06
4.01268e-08
-1.3828e-06
3.99148e-08
-1.42252e-06
3.97223e-08
-1.46206e-06
3.95451e-08
-1.50144e-06
3.93784e-08
-1.54066e-06
3.92175e-08
-1.57972e-06
3.90575e-08
-1.61861e-06
3.88937e-08
-1.65733e-06
3.87216e-08
-1.69587e-06
3.8537e-08
-1.7342e-06
3.83359e-08
-1.77232e-06
3.81146e-08
-1.81019e-06
3.78699e-08
-1.84779e-06
3.75986e-08
-1.88509e-06
3.72983e-08
-1.92205e-06
3.69664e-08
-1.95865e-06
3.6601e-08
-1.99485e-06
3.62002e-08
-2.03062e-06
3.57625e-08
-2.0659e-06
3.52868e-08
-2.10067e-06
3.47719e-08
-2.13489e-06
3.42171e-08
-2.16851e-06
3.36219e-08
-2.2015e-06
3.29857e-08
-2.23381e-06
3.23086e-08
-2.2654e-06
3.15902e-08
-2.29623e-06
3.08307e-08
-2.32626e-06
3.00304e-08
-2.35545e-06
2.91894e-08
-2.38376e-06
2.83082e-08
-2.41114e-06
2.73873e-08
-2.43757e-06
2.6427e-08
-2.463e-06
2.5428e-08
-2.48739e-06
2.43906e-08
-2.51071e-06
2.33155e-08
-2.53291e-06
2.22028e-08
-2.55396e-06
2.1053e-08
-2.57383e-06
1.98661e-08
-2.59247e-06
1.86419e-08
-2.60985e-06
1.73801e-08
-2.62593e-06
1.60796e-08
-2.64067e-06
1.47391e-08
-2.65402e-06
1.33562e-08
-2.66595e-06
1.19277e-08
-2.6764e-06
1.04491e-08
-2.68531e-06
8.91285e-09
-2.69262e-06
7.30906e-09
-2.69825e-06
5.62297e-09
-2.70209e-06
3.84425e-09
-2.70407e-06
1.98042e-09
-2.70402e-06
-4.60982e-11
-2.70235e-06
-1.67625e-09
-2.69911e-06
-3.24066e-09
-2.69433e-06
-4.77438e-09
-2.68803e-06
-6.30073e-09
-2.6802e-06
-7.83411e-09
-2.67082e-06
-9.3773e-09
-2.65989e-06
-1.09304e-08
-2.6474e-06
-1.24917e-08
-2.63334e-06
-1.40596e-08
-2.61771e-06
-1.56318e-08
-2.6005e-06
-1.72062e-08
-2.58172e-06
-1.87806e-08
-2.56137e-06
-2.03529e-08
-2.53945e-06
-2.19207e-08
-2.51597e-06
-2.34818e-08
-2.49093e-06
-2.50339e-08
-2.46436e-06
-2.65748e-08
-2.43625e-06
-2.81023e-08
-2.40664e-06
-2.9614e-08
-2.37553e-06
-3.11076e-08
-2.34295e-06
-3.2581e-08
-2.30892e-06
-3.40319e-08
-2.27346e-06
-3.54583e-08
-2.2366e-06
-3.68578e-08
-2.19838e-06
-3.82286e-08
-2.15881e-06
-3.95684e-08
-2.11793e-06
-4.08754e-08
-2.07578e-06
-4.21475e-08
-2.0324e-06
-4.33827e-08
-1.98782e-06
-4.45792e-08
-1.94209e-06
-4.57353e-08
-1.89524e-06
-4.68493e-08
-1.84732e-06
-4.79197e-08
-1.79837e-06
-4.89451e-08
-1.74845e-06
-4.99242e-08
-1.69759e-06
-5.08556e-08
-1.64585e-06
-5.17383e-08
-1.59328e-06
-5.25713e-08
-1.53993e-06
-5.3354e-08
-1.48584e-06
-5.40857e-08
-1.43108e-06
-5.47661e-08
-1.37568e-06
-5.53949e-08
-1.31971e-06
-5.5972e-08
-1.26321e-06
-5.64975e-08
-1.20624e-06
-5.69721e-08
-1.14885e-06
-5.73961e-08
-1.09107e-06
-5.77705e-08
-1.03298e-06
-5.80963e-08
-9.74603e-07
-5.83749e-08
-9.15996e-07
-5.86078e-08
-8.57199e-07
-5.87968e-08
-7.98255e-07
-5.89439e-08
-7.39204e-07
-5.90512e-08
-6.80082e-07
-5.91214e-08
-6.20925e-07
-5.9157e-08
-5.61765e-07
-5.91605e-08
-5.0263e-07
-5.91349e-08
-4.43547e-07
-5.90829e-08
-3.8454e-07
-5.90067e-08
-3.25632e-07
-5.89085e-08
-2.66842e-07
-5.87902e-08
-2.08191e-07
-5.865e-08
-1.497e-07
-5.84912e-08
-9.13838e-08
-5.83165e-08
-3.32635e-08
-5.81203e-08
2.4644e-08
-5.79075e-08
8.23325e-08
-5.76885e-08
1.39837e-07
-5.75043e-08
1.97209e-07
-5.73722e-08
2.54502e-07
-5.72933e-08
3.11758e-07
-5.7256e-08
3.69008e-07
-5.72494e-08
4.26269e-07
-5.7261e-08
4.83543e-07
-5.7274e-08
5.40805e-07
-5.72622e-08
5.97987e-07
-5.71825e-08
6.54947e-07
-5.69594e-08
7.11393e-07
-5.64465e-08
7.66746e-07
-5.5353e-08
8.19655e-07
-5.29082e-08
8.66945e-07
-4.72902e-08
8.99429e-07
-3.24838e-08
1.2727e-08
8.86702e-07
1.49356e-08
-2.61978e-08
2.54664e-08
-2.64181e-08
2.99697e-08
-1.91395e-08
2.96599e-08
-1.05395e-08
2.54246e-08
-1.52591e-09
1.78693e-08
7.47251e-09
7.17158e-09
1.61066e-08
-6.53744e-09
2.41005e-08
-2.31904e-08
3.12214e-08
-4.26794e-08
3.73447e-08
-6.48496e-08
4.24825e-08
-8.94958e-08
4.67713e-08
-1.16404e-07
5.04232e-08
-1.45393e-07
5.36593e-08
-1.7633e-07
5.66671e-08
-2.09129e-07
5.95792e-08
-2.4375e-07
6.24691e-08
-2.80181e-07
6.53605e-08
-3.18431e-07
6.825e-08
-3.58497e-07
7.11396e-08
-4.0032e-07
7.40503e-08
-4.43761e-07
7.69632e-08
-4.88725e-07
7.97238e-08
-5.35281e-07
8.20996e-08
-5.83465e-07
8.40457e-08
-6.32826e-07
8.58954e-08
-6.80914e-07
8.80235e-08
-7.2899e-07
8.96441e-08
-7.78352e-07
9.00466e-08
-8.26362e-07
9.03829e-08
-8.74304e-07
9.05206e-08
-9.18573e-07
9.08159e-08
-9.61617e-07
9.04996e-08
-1.00622e-06
8.86757e-08
-1.05082e-06
8.67923e-08
-1.09507e-06
8.51245e-08
-1.13713e-06
8.41084e-08
-1.17797e-06
8.31726e-08
-1.21791e-06
8.22575e-08
-1.25717e-06
8.13763e-08
-1.29586e-06
8.0539e-08
-1.33408e-06
7.9754e-08
-1.3719e-06
7.90258e-08
-1.40935e-06
7.83552e-08
-1.44647e-06
7.77398e-08
-1.48328e-06
7.71745e-08
-1.51981e-06
7.66526e-08
-1.55606e-06
7.61662e-08
-1.59204e-06
7.57066e-08
-1.62776e-06
7.52648e-08
-1.66321e-06
7.48321e-08
-1.6984e-06
7.43997e-08
-1.7333e-06
7.39592e-08
-1.76791e-06
7.35027e-08
-1.80221e-06
7.30227e-08
-1.83618e-06
7.25125e-08
-1.86981e-06
7.19656e-08
-1.90308e-06
7.13766e-08
-1.93595e-06
7.07401e-08
-1.9684e-06
7.00515e-08
-2.00041e-06
6.9307e-08
-2.03194e-06
6.85029e-08
-2.06298e-06
6.76362e-08
-2.09348e-06
6.67042e-08
-2.12343e-06
6.57049e-08
-2.15278e-06
6.46365e-08
-2.1815e-06
6.34976e-08
-2.20957e-06
6.22872e-08
-2.23695e-06
6.10044e-08
-2.26362e-06
5.9649e-08
-2.28953e-06
5.82206e-08
-2.31466e-06
5.67194e-08
-2.33897e-06
5.51455e-08
-2.36244e-06
5.34994e-08
-2.38503e-06
5.17818e-08
-2.40672e-06
4.99931e-08
-2.42747e-06
4.81344e-08
-2.44725e-06
4.62063e-08
-2.46603e-06
4.42099e-08
-2.48378e-06
4.2146e-08
-2.50048e-06
4.00155e-08
-2.5161e-06
3.78191e-08
-2.5306e-06
3.55576e-08
-2.54397e-06
3.32315e-08
-2.55617e-06
3.08413e-08
-2.56718e-06
2.83869e-08
-2.57696e-06
2.58685e-08
-2.58551e-06
2.32856e-08
-2.59279e-06
2.06377e-08
-2.59879e-06
1.79242e-08
-2.60348e-06
1.5145e-08
-2.60687e-06
1.23005e-08
-2.60896e-06
9.3932e-09
-2.60976e-06
6.42937e-09
-2.60934e-06
3.42228e-09
-2.6078e-06
4.43222e-10
-2.60525e-06
-2.5955e-09
-2.60141e-06
-5.52493e-09
-2.59616e-06
-8.48349e-09
-2.58946e-06
-1.14725e-08
-2.58128e-06
-1.44878e-08
-2.57158e-06
-1.75291e-08
-2.56037e-06
-2.05942e-08
-2.54762e-06
-2.36801e-08
-2.53333e-06
-2.67828e-08
-2.51749e-06
-2.98983e-08
-2.5001e-06
-3.30223e-08
-2.48115e-06
-3.61506e-08
-2.46065e-06
-3.92787e-08
-2.4386e-06
-4.24023e-08
-2.41501e-06
-4.55168e-08
-2.38987e-06
-4.86178e-08
-2.3632e-06
-5.1701e-08
-2.33502e-06
-5.47618e-08
-2.30532e-06
-5.77956e-08
-2.27414e-06
-6.0798e-08
-2.24148e-06
-6.37646e-08
-2.20737e-06
-6.66906e-08
-2.17183e-06
-6.9572e-08
-2.13489e-06
-7.24042e-08
-2.09656e-06
-7.51832e-08
-2.05689e-06
-7.79047e-08
-2.01589e-06
-8.05647e-08
-1.97361e-06
-8.31591e-08
-1.93007e-06
-8.56842e-08
-1.88532e-06
-8.81359e-08
-1.83939e-06
-9.05105e-08
-1.79232e-06
-9.28045e-08
-1.74415e-06
-9.50146e-08
-1.69493e-06
-9.71379e-08
-1.64471e-06
-9.91714e-08
-1.59352e-06
-1.01113e-07
-1.54141e-06
-1.02959e-07
-1.48844e-06
-1.04708e-07
-1.43466e-06
-1.06358e-07
-1.3801e-06
-1.07908e-07
-1.32483e-06
-1.09356e-07
-1.2689e-06
-1.10701e-07
-1.21235e-06
-1.11944e-07
-1.15524e-06
-1.13083e-07
-1.09762e-06
-1.14119e-07
-1.03954e-06
-1.15053e-07
-9.81046e-07
-1.15887e-07
-9.22196e-07
-1.16621e-07
-8.63034e-07
-1.17258e-07
-8.03609e-07
-1.178e-07
-7.43966e-07
-1.18251e-07
-6.84149e-07
-1.18614e-07
-6.24201e-07
-1.18892e-07
-5.64161e-07
-1.19091e-07
-5.04067e-07
-1.19216e-07
-4.43953e-07
-1.19271e-07
-3.83852e-07
-1.19262e-07
-3.23793e-07
-1.19194e-07
-2.63802e-07
-1.19074e-07
-2.03903e-07
-1.18906e-07
-1.44117e-07
-1.18694e-07
-8.44616e-08
-1.18445e-07
-2.49518e-08
-1.1816e-07
3.43978e-08
-1.17841e-07
9.35762e-08
-1.17495e-07
1.52583e-07
-1.17127e-07
2.11433e-07
-1.16758e-07
2.70155e-07
-1.1641e-07
3.28767e-07
-1.16117e-07
3.87299e-07
-1.15904e-07
4.45778e-07
-1.15773e-07
5.04235e-07
-1.15713e-07
5.62694e-07
-1.15708e-07
6.2117e-07
-1.15737e-07
6.79662e-07
-1.15766e-07
7.38143e-07
-1.15743e-07
7.96541e-07
-1.15581e-07
8.54712e-07
-1.1513e-07
9.12372e-07
-1.14106e-07
9.68984e-07
-1.11965e-07
1.02349e-06
-1.07412e-07
1.07406e-06
-9.78664e-08
1.1173e-06
-7.57149e-08
-2.24584e-08
1.15248e-06
8.82141e-09
-3.50192e-08
9.82082e-09
-2.74175e-08
5.99629e-09
-1.53149e-08
-1.28486e-09
-3.25836e-09
-1.13007e-08
8.48998e-09
-2.36724e-08
1.98442e-08
-3.82407e-08
3.06749e-08
-5.49715e-08
4.08312e-08
-7.39204e-08
5.01703e-08
-9.51786e-08
5.86028e-08
-1.18819e-07
6.61233e-08
-1.44864e-07
7.28157e-08
-1.73271e-07
7.88301e-08
-2.03953e-07
8.43422e-08
-2.36801e-07
8.95144e-08
-2.71691e-07
9.44695e-08
-3.085e-07
9.92777e-08
-3.47098e-07
1.03959e-07
-3.87343e-07
1.08495e-07
-4.29052e-07
1.12849e-07
-4.71973e-07
1.16971e-07
-5.15791e-07
1.20781e-07
-5.60213e-07
1.24145e-07
-6.05036e-07
1.26923e-07
-6.50058e-07
1.29068e-07
-6.94834e-07
1.30671e-07
-7.38613e-07
1.31802e-07
-7.81343e-07
1.32375e-07
-8.23581e-07
1.32284e-07
-8.64929e-07
1.31732e-07
-9.05276e-07
1.30867e-07
-9.44162e-07
1.29702e-07
-9.81845e-07
1.28182e-07
-1.01942e-06
1.26248e-07
-1.05681e-06
1.24182e-07
-1.09389e-06
1.22212e-07
-1.13024e-06
1.20453e-07
-1.16593e-06
1.1886e-07
-1.20108e-06
1.17409e-07
-1.23578e-06
1.16083e-07
-1.27012e-06
1.14871e-07
-1.30413e-06
1.13765e-07
-1.33786e-06
1.12754e-07
-1.37133e-06
1.1183e-07
-1.40457e-06
1.10981e-07
-1.4376e-06
1.10197e-07
-1.47041e-06
1.09466e-07
-1.50302e-06
1.08775e-07
-1.53542e-06
1.08112e-07
-1.56762e-06
1.07464e-07
-1.59961e-06
1.0682e-07
-1.63138e-06
1.06169e-07
-1.66292e-06
1.05498e-07
-1.69421e-06
1.04798e-07
-1.72525e-06
1.0406e-07
-1.75601e-06
1.03274e-07
-1.78648e-06
1.02432e-07
-1.81663e-06
1.01527e-07
-1.84644e-06
1.00552e-07
-1.87589e-06
9.95018e-08
-1.90495e-06
9.83704e-08
-1.9336e-06
9.71532e-08
-1.96181e-06
9.58463e-08
-1.98956e-06
9.44463e-08
-2.0168e-06
9.29503e-08
-2.04352e-06
9.13558e-08
-2.06969e-06
8.9661e-08
-2.09526e-06
8.78645e-08
-2.12022e-06
8.59651e-08
-2.14454e-06
8.39623e-08
-2.16817e-06
8.18556e-08
-2.1911e-06
7.96452e-08
-2.21328e-06
7.73312e-08
-2.2347e-06
7.49142e-08
-2.25531e-06
7.23949e-08
-2.27509e-06
6.97742e-08
-2.29401e-06
6.70533e-08
-2.31204e-06
6.42332e-08
-2.32914e-06
6.13152e-08
-2.3453e-06
5.83008e-08
-2.36047e-06
5.51914e-08
-2.37464e-06
5.19881e-08
-2.38778e-06
4.86925e-08
-2.39985e-06
4.53059e-08
-2.41084e-06
4.18295e-08
-2.42072e-06
3.82644e-08
-2.42946e-06
3.46121e-08
-2.43705e-06
3.08736e-08
-2.44346e-06
2.70508e-08
-2.44868e-06
2.31457e-08
-2.4527e-06
1.91616e-08
-2.4555e-06
1.51032e-08
-2.45709e-06
1.09774e-08
-2.45745e-06
6.79444e-09
-2.4566e-06
2.56979e-09
-2.45448e-06
-1.67585e-09
-2.45112e-06
-5.95511e-09
-2.44639e-06
-1.02598e-08
-2.44025e-06
-1.46171e-08
-2.4327e-06
-1.90274e-08
-2.4237e-06
-2.34866e-08
-2.41324e-06
-2.79893e-08
-2.4013e-06
-3.25298e-08
-2.38788e-06
-3.71019e-08
-2.37296e-06
-4.16997e-08
-2.35655e-06
-4.63167e-08
-2.33862e-06
-5.09465e-08
-2.31919e-06
-5.55828e-08
-2.29825e-06
-6.02188e-08
-2.2758e-06
-6.48482e-08
-2.25186e-06
-6.94643e-08
-2.22641e-06
-7.40607e-08
-2.19948e-06
-7.86305e-08
-2.17108e-06
-8.31674e-08
-2.14121e-06
-8.76645e-08
-2.10989e-06
-9.21152e-08
-2.07714e-06
-9.65127e-08
-2.04298e-06
-1.00851e-07
-2.00743e-06
-1.05122e-07
-1.97052e-06
-1.09321e-07
-1.93226e-06
-1.13441e-07
-1.89269e-06
-1.17475e-07
-1.85184e-06
-1.21419e-07
-1.80973e-06
-1.25265e-07
-1.7664e-06
-1.29009e-07
-1.7219e-06
-1.32644e-07
-1.67624e-06
-1.36164e-07
-1.62948e-06
-1.39565e-07
-1.58166e-06
-1.42841e-07
-1.53281e-06
-1.45989e-07
-1.48297e-06
-1.49003e-07
-1.43221e-06
-1.5188e-07
-1.38055e-06
-1.54616e-07
-1.32805e-06
-1.57208e-07
-1.27475e-06
-1.59653e-07
-1.22071e-06
-1.61948e-07
-1.16598e-06
-1.64092e-07
-1.11059e-06
-1.66084e-07
-1.05462e-06
-1.67923e-07
-9.9809e-07
-1.69608e-07
-9.4107e-07
-1.7114e-07
-8.83603e-07
-1.7252e-07
-8.25741e-07
-1.73749e-07
-7.67531e-07
-1.74831e-07
-7.09021e-07
-1.75768e-07
-6.50257e-07
-1.76563e-07
-5.91286e-07
-1.77223e-07
-5.32149e-07
-1.7775e-07
-4.72888e-07
-1.78153e-07
-4.13544e-07
-1.78436e-07
-3.54152e-07
-1.78608e-07
-2.94747e-07
-1.78676e-07
-2.3536e-07
-1.78648e-07
-1.76022e-07
-1.78533e-07
-1.16756e-07
-1.78339e-07
-5.75862e-08
-1.78076e-07
1.46937e-09
-1.7775e-07
6.03928e-08
-1.77369e-07
1.19171e-07
-1.76938e-07
1.77798e-07
-1.76467e-07
2.36271e-07
-1.75968e-07
2.94604e-07
-1.7546e-07
3.52823e-07
-1.74977e-07
4.1096e-07
-1.74546e-07
4.69027e-07
-1.74184e-07
5.27035e-07
-1.73912e-07
5.85002e-07
-1.7374e-07
6.4295e-07
-1.7366e-07
7.00896e-07
-1.73654e-07
7.58852e-07
-1.73694e-07
8.16818e-07
-1.73731e-07
8.74764e-07
-1.73689e-07
9.32624e-07
-1.73441e-07
9.90264e-07
-1.7277e-07
1.04744e-06
-1.71281e-07
1.10371e-06
-1.68241e-07
1.1584e-06
-1.62102e-07
1.2105e-06
-1.49958e-07
1.25952e-06
-1.24741e-07
-7.27686e-08
1.30983e-06
-1.25025e-09
-3.3769e-08
-8.53764e-09
-2.01301e-08
-1.87299e-08
-5.12271e-09
-3.10308e-08
9.04253e-09
-4.51435e-08
2.26027e-08
-6.09379e-08
3.56386e-08
-7.83891e-08
4.81262e-08
-9.75442e-08
5.99863e-08
-1.18502e-07
7.1128e-08
-1.41383e-07
8.14841e-08
-1.66295e-07
9.10356e-08
-1.93301e-07
9.98208e-08
-2.22396e-07
1.07925e-07
-2.53511e-07
1.15458e-07
-2.8652e-07
1.22523e-07
-3.21249e-07
1.29198e-07
-3.57489e-07
1.35518e-07
-3.95006e-07
1.41475e-07
-4.3354e-07
1.47028e-07
-4.72804e-07
1.52114e-07
-5.1249e-07
1.56657e-07
-5.52283e-07
1.60575e-07
-5.9192e-07
1.63782e-07
-6.31214e-07
1.66216e-07
-6.7002e-07
1.67874e-07
-7.08163e-07
1.68815e-07
-7.45474e-07
1.69113e-07
-7.81912e-07
1.68812e-07
-8.17599e-07
1.67971e-07
-8.52571e-07
1.66703e-07
-8.86811e-07
1.65107e-07
-9.20359e-07
1.63251e-07
-9.53347e-07
1.6117e-07
-9.86024e-07
1.58925e-07
-1.01848e-06
1.56641e-07
-1.05071e-06
1.54441e-07
-1.08265e-06
1.52391e-07
-1.1143e-06
1.50506e-07
-1.14567e-06
1.48781e-07
-1.17679e-06
1.47208e-07
-1.2077e-06
1.45775e-07
-1.2384e-06
1.44471e-07
-1.26893e-06
1.4328e-07
-1.29929e-06
1.42191e-07
-1.32949e-06
1.41187e-07
-1.35955e-06
1.40254e-07
-1.38946e-06
1.39376e-07
-1.41922e-06
1.38539e-07
-1.44884e-06
1.37727e-07
-1.4783e-06
1.36925e-07
-1.5076e-06
1.36119e-07
-1.53672e-06
1.35295e-07
-1.56567e-06
1.34439e-07
-1.59441e-06
1.33541e-07
-1.62294e-06
1.32588e-07
-1.65123e-06
1.3157e-07
-1.67928e-06
1.30476e-07
-1.70705e-06
1.29299e-07
-1.73453e-06
1.28029e-07
-1.76168e-06
1.2666e-07
-1.7885e-06
1.25185e-07
-1.81494e-06
1.23598e-07
-1.84099e-06
1.21896e-07
-1.86662e-06
1.20072e-07
-1.89179e-06
1.18124e-07
-1.91648e-06
1.16048e-07
-1.94067e-06
1.13843e-07
-1.96431e-06
1.11506e-07
-1.98738e-06
1.09036e-07
-2.00985e-06
1.06433e-07
-2.03169e-06
1.03695e-07
-2.05287e-06
1.00822e-07
-2.07335e-06
9.78154e-08
-2.09311e-06
9.46752e-08
-2.11212e-06
9.14023e-08
-2.13034e-06
8.79979e-08
-2.14775e-06
8.44634e-08
-2.16432e-06
8.08003e-08
-2.18001e-06
7.70103e-08
-2.19481e-06
7.30953e-08
-2.20867e-06
6.90573e-08
-2.22158e-06
6.48982e-08
-2.23351e-06
6.062e-08
-2.24443e-06
5.6225e-08
-2.25432e-06
5.17151e-08
-2.26314e-06
4.70927e-08
-2.27089e-06
4.23601e-08
-2.27754e-06
3.75199e-08
-2.28306e-06
3.2575e-08
-2.28745e-06
2.75291e-08
-2.29067e-06
2.23868e-08
-2.29272e-06
1.71539e-08
-2.29358e-06
1.18372e-08
-2.29323e-06
6.44525e-09
-2.29165e-06
9.87419e-10
-2.2888e-06
-4.5293e-09
-2.28465e-06
-1.01068e-08
-2.27915e-06
-1.57508e-08
-2.2723e-06
-2.14699e-08
-2.26407e-06
-2.72608e-08
-2.25444e-06
-3.31178e-08
-2.24339e-06
-3.90333e-08
-2.23092e-06
-4.49994e-08
-2.21702e-06
-5.10078e-08
-2.20167e-06
-5.70503e-08
-2.18487e-06
-6.31182e-08
-2.16661e-06
-6.92033e-08
-2.14689e-06
-7.52968e-08
-2.12572e-06
-8.13904e-08
-2.1031e-06
-8.74753e-08
-2.07902e-06
-9.3543e-08
-2.05349e-06
-9.95848e-08
-2.02653e-06
-1.05592e-07
-1.99814e-06
-1.11556e-07
-1.96834e-06
-1.17468e-07
-1.93713e-06
-1.2332e-07
-1.90455e-06