/*--------------------------------*- C++ -*----------------------------------*\
  =========                 |
  \\      /  F ield         | OpenFOAM: The Open Source CFD Toolbox
   \\    /   O peration     | Website:  https://openfoam.org
    \\  /    A nd           | Version:  9
     \\/     M anipulation  |
\*---------------------------------------------------------------------------*/
FoamFile
{
    format      ascii;
    class       volVectorField;
    location    "0.11";
    object      U;
}
// * * * * * * * * * * * * * * * * * * * * * * * * * * * * * * * * * * * * * //

dimensions      [0 1 -1 0 0 0 0];

internalField   nonuniform List<vector> 
12225
(
(9.86107 -0.874316 0)
(9.67245 -0.700186 0)
(9.45888 -0.387581 0)
(9.2245 -0.188462 0)
(9.00321 -0.0843742 0)
(8.80999 -0.0328507 0)
(8.64454 -0.00751774 0)
(8.50334 0.00506741 0)
(8.3829 0.0113913 0)
(8.27972 0.0145433 0)
(8.19036 0.0160603 0)
(8.11195 0.016761 0)
(8.04202 0.0170939 0)
(7.97873 0.017367 0)
(7.9189 0.0177778 0)
(7.86357 0.0192267 0)
(7.7899 0.0223622 0)
(7.76318 0.0341312 0)
(10.0547 0.263072 0)
(10.1201 0.36075 0)
(10.118 0.273837 0)
(10.0825 0.187114 0)
(10.0404 0.131197 0)
(9.99373 0.0969726 0)
(9.93984 0.0756171 0)
(9.87999 0.0618273 0)
(9.81728 0.0524438 0)
(9.75418 0.0456561 0)
(9.69212 0.0405246 0)
(9.63191 0.036595 0)
(9.5739 0.0336212 0)
(9.51849 0.0316118 0)
(9.46477 0.0304231 0)
(9.41552 0.0320467 0)
(9.36273 0.0338081 0)
(9.33903 0.0572137 0)
(9.99919 0.0460911 0)
(10.0244 0.0342236 0)
(10.0538 0.0149743 0)
(10.0707 0.0218491 0)
(10.0777 0.036725 0)
(10.0781 0.0460775 0)
(10.0719 0.0500378 0)
(10.0599 0.0512537 0)
(10.0434 0.0511922 0)
(10.0238 0.0505177 0)
(10.0021 0.0496059 0)
(9.9788 0.0487112 0)
(9.95432 0.0479952 0)
(9.92912 0.0477251 0)
(9.90308 0.0479966 0)
(9.87734 0.0503488 0)
(9.85091 0.0538819 0)
(9.83091 0.067422 0)
(9.99679 0.00643343 0)
(10.0085 0.025036 0)
(10.0342 0.0389689 0)
(10.0527 0.0503485 0)
(10.0643 0.0571726 0)
(10.0729 0.059251 0)
(10.0787 0.0589662 0)
(10.0812 0.0580799 0)
(10.081 0.0571163 0)
(10.0788 0.0561547 0)
(10.0749 0.0552536 0)
(10.0695 0.0545098 0)
(10.063 0.0540281 0)
(10.0554 0.054036 0)
(10.047 0.0547007 0)
(10.0383 0.0570444 0)
(10.0299 0.0607232 0)
(10.0245 0.0687256 0)
(9.99922 0.00674488 0)
(10.0081 0.0335975 0)
(10.0271 0.0460847 0)
(10.0417 0.050906 0)
(10.0523 0.0539978 0)
(10.062 0.0556139 0)
(10.0705 0.0559939 0)
(10.077 0.0558513 0)
(10.0817 0.0555352 0)
(10.085 0.0551414 0)
(10.0872 0.0547507 0)
(10.0883 0.0544787 0)
(10.0886 0.0544505 0)
(10.0881 0.0548711 0)
(10.0871 0.0559254 0)
(10.086 0.0581958 0)
(10.0856 0.0614979 0)
(10.0874 0.0664585 0)
(10.0002 0.00908372 0)
(10.0078 0.0321547 0)
(10.0225 0.0419629 0)
(10.0349 0.0457409 0)
(10.0447 0.0492287 0)
(10.054 0.0517983 0)
(10.0627 0.0529775 0)
(10.0701 0.0533792 0)
(10.0761 0.0534822 0)
(10.0812 0.0534554 0)
(10.0855 0.0533975 0)
(10.089 0.0534271 0)
(10.0919 0.0536704 0)
(10.0943 0.0542962 0)
(10.0963 0.055456 0)
(10.0986 0.0574434 0)
(10.1015 0.0600943 0)
(10.106 0.0632685 0)
(10.0003 0.00881247 0)
(10.0068 0.0275545 0)
(10.0189 0.0371452 0)
(10.0302 0.0418318 0)
(10.0394 0.0457856 0)
(10.048 0.0486495 0)
(10.0563 0.0501069 0)
(10.0637 0.0507584 0)
(10.07 0.0510934 0)
(10.0757 0.0512893 0)
(10.0807 0.0514397 0)
(10.0852 0.0516547 0)
(10.0891 0.0520494 0)
(10.0928 0.0527535 0)
(10.0963 0.0538696 0)
(10.1 0.055516 0)
(10.1044 0.0575181 0)
(10.1099 0.0595263 0)
(10.0004 0.00785183 0)
(10.0057 0.0237384 0)
(10.016 0.033443 0)
(10.0263 0.0386946 0)
(10.035 0.0426281 0)
(10.0431 0.0454669 0)
(10.0509 0.0470751 0)
(10.0581 0.047921 0)
(10.0644 0.0484332 0)
(10.0702 0.0487901 0)
(10.0755 0.0490858 0)
(10.0803 0.0494209 0)
(10.0848 0.0498951 0)
(10.0891 0.0506016 0)
(10.0933 0.0515973 0)
(10.0977 0.0528997 0)
(10.1027 0.0543301 0)
(10.1084 0.0555403 0)
(10.0004 0.00696826 0)
(10.0049 0.0207586 0)
(10.0136 0.030121 0)
(10.0229 0.0355254 0)
(10.0311 0.0393538 0)
(10.0387 0.0421653 0)
(10.0461 0.0439163 0)
(10.053 0.0449353 0)
(10.0593 0.0455904 0)
(10.065 0.0460679 0)
(10.0704 0.0464655 0)
(10.0754 0.0468735 0)
(10.0801 0.0473745 0)
(10.0847 0.0480315 0)
(10.0893 0.0488661 0)
(10.0941 0.0498443 0)
(10.0992 0.0508005 0)
(10.1048 0.0514586 0)
(10.0004 0.00618396 0)
(10.0042 0.0181805 0)
(10.0115 0.026896 0)
(10.0199 0.0322802 0)
(10.0276 0.0360382 0)
(10.0348 0.0388249 0)
(10.0418 0.0406757 0)
(10.0485 0.041827 0)
(10.0546 0.0425922 0)
(10.0603 0.0431584 0)
(10.0656 0.0436248 0)
(10.0707 0.0440704 0)
(10.0755 0.0445609 0)
(10.0803 0.0451367 0)
(10.085 0.0457966 0)
(10.0899 0.0464866 0)
(10.095 0.0470665 0)
(10.1004 0.0473419 0)
(10.0003 0.00544963 0)
(10.0036 0.0158653 0)
(10.0098 0.0238222 0)
(10.0172 0.0290683 0)
(10.0244 0.0327402 0)
(10.0312 0.0354661 0)
(10.0379 0.0373569 0)
(10.0443 0.0385958 0)
(10.0502 0.0394409 0)
(10.0558 0.0400691 0)
(10.0611 0.0405773 0)
(10.0662 0.0410335 0)
(10.0711 0.041489 0)
(10.0759 0.0419685 0)
(10.0807 0.0424592 0)
(10.0856 0.0429056 0)
(10.0906 0.0431976 0)
(10.0957 0.0432102 0)
(10.0003 0.00479944 0)
(10.0031 0.0139268 0)
(10.0085 0.0211591 0)
(10.0152 0.0261768 0)
(10.0218 0.029726 0)
(10.0283 0.0323621 0)
(10.0346 0.034244 0)
(10.0408 0.0355248 0)
(10.0466 0.0364155 0)
(10.0521 0.0370769 0)
(10.0573 0.0376009 0)
(10.0624 0.0380472 0)
(10.0673 0.0384558 0)
(10.0721 0.0388425 0)
(10.0769 0.0391911 0)
(10.0817 0.0394536 0)
(10.0865 0.0395468 0)
(10.0914 0.0393963 0)
(10.0003 0.00419514 0)
(10.0027 0.0121661 0)
(10.0074 0.0186555 0)
(10.0134 0.0233539 0)
(10.0196 0.0267374 0)
(10.0257 0.0292593 0)
(10.0317 0.0310975 0)
(10.0376 0.0323871 0)
(10.0433 0.0332991 0)
(10.0487 0.0339741 0)
(10.0538 0.0344974 0)
(10.0588 0.0349211 0)
(10.0637 0.0352774 0)
(10.0685 0.0355764 0)
(10.0732 0.035803 0)
(10.0779 0.0359193 0)
(10.0826 0.0358651 0)
(10.0872 0.035603 0)
(10.0003 0.00356553 0)
(10.0024 0.0103346 0)
(10.0064 0.0159742 0)
(10.0117 0.0202224 0)
(10.0173 0.0233524 0)
(10.0231 0.0257013 0)
(10.0288 0.0274438 0)
(10.0344 0.0286993 0)
(10.0398 0.0296013 0)
(10.0451 0.0302654 0)
(10.0502 0.030767 0)
(10.0551 0.031151 0)
(10.0599 0.0314428 0)
(10.0646 0.0316495 0)
(10.0692 0.0317601 0)
(10.0738 0.0317488 0)
(10.0783 0.031577 0)
(10.0827 0.0312352 0)
(10.0002 0.00290889 0)
(10.002 0.00843087 0)
(10.0055 0.0131249 0)
(10.0101 0.0167877 0)
(10.0152 0.0195544 0)
(10.0205 0.0216522 0)
(10.0259 0.0232316 0)
(10.0312 0.0243945 0)
(10.0365 0.0252407 0)
(10.0416 0.0258591 0)
(10.0465 0.0263118 0)
(10.0513 0.0266363 0)
(10.056 0.0268525 0)
(10.0606 0.0269671 0)
(10.0651 0.0269742 0)
(10.0695 0.0268605 0)
(10.0738 0.0266048 0)
(10.078 0.0262166 0)
(10.0002 0.00222528 0)
(10.0017 0.00645494 0)
(10.0047 0.0101113 0)
(10.0087 0.0130493 0)
(10.0134 0.0153236 0)
(10.0183 0.0170709 0)
(10.0233 0.0184028 0)
(10.0283 0.0193986 0)
(10.0333 0.0201286 0)
(10.0382 0.0206558 0)
(10.043 0.0210264 0)
(10.0477 0.0212695 0)
(10.0523 0.0214011 0)
(10.0567 0.0214278 0)
(10.0611 0.0213491 0)
(10.0653 0.021161 0)
(10.0693 0.0208547 0)
(10.0733 0.0204505 0)
(10.0002 0.0015112 0)
(10.0015 0.00438903 0)
(10.0041 0.00690901 0)
(10.0077 0.0089807 0)
(10.0118 0.0106202 0)
(10.0164 0.0118983 0)
(10.021 0.0128826 0)
(10.0258 0.0136244 0)
(10.0306 0.0141674 0)
(10.0353 0.0145498 0)
(10.0399 0.0148014 0)
(10.0445 0.0149414 0)
(10.0489 0.0149813 0)
(10.0532 0.0149273 0)
(10.0573 0.0147818 0)
(10.0613 0.0145462 0)
(10.0652 0.0142187 0)
(10.0689 0.013823 0)
(10.0001 0.000748434 0)
(10.0013 0.00217559 0)
(10.0037 0.00343605 0)
(10.0069 0.00449015 0)
(10.0108 0.00534152 0)
(10.015 0.00601567 0)
(10.0195 0.00653814 0)
(10.024 0.00692933 0)
(10.0286 0.00720696 0)
(10.0331 0.00738655 0)
(10.0376 0.00748002 0)
(10.042 0.00749531 0)
(10.0462 0.0074374 0)
(10.0503 0.00730948 0)
(10.0543 0.00711384 0)
(10.0582 0.00685325 0)
(10.0618 0.00652819 0)
(10.0654 0.00616079 0)
(10.0001 -0.000110427 0)
(10.0013 -0.000319645 0)
(10.0035 -0.000500347 0)
(10.0067 -0.000638654 0)
(10.0104 -0.00073105 0)
(10.0146 -0.000790737 0)
(10.0189 -0.000836598 0)
(10.0233 -0.000882405 0)
(10.0278 -0.000937006 0)
(10.0322 -0.00100801 0)
(10.0366 -0.00110255 0)
(10.0408 -0.00122642 0)
(10.0449 -0.00138375 0)
(10.0489 -0.00157724 0)
(10.0528 -0.00180835 0)
(10.0565 -0.00207684 0)
(10.06 -0.00238347 0)
(10.0634 -0.00271154 0)
(10.0001 -0.000937601 0)
(10.0014 -0.00272971 0)
(10.0038 -0.0043089 0)
(10.0071 -0.00559209 0)
(10.0111 -0.00657225 0)
(10.0154 -0.00731046 0)
(10.0199 -0.00787348 0)
(10.0244 -0.00830658 0)
(10.0289 -0.00864448 0)
(10.0333 -0.00891957 0)
(10.0377 -0.00915888 0)
(10.0419 -0.00938161 0)
(10.046 -0.00960089 0)
(10.0499 -0.00982601 0)
(10.0537 -0.0100635 0)
(10.0573 -0.0103168 0)
(10.0608 -0.0105893 0)
(10.0641 -0.01087 0)
(10.0002 -0.00165491 0)
(10.0015 -0.00484324 0)
(10.0042 -0.00764891 0)
(10.008 -0.00986778 0)
(10.0123 -0.0115147 0)
(10.0169 -0.0127461 0)
(10.0216 -0.0136796 0)
(10.0263 -0.0143745 0)
(10.031 -0.0148853 0)
(10.0355 -0.0152713 0)
(10.0399 -0.0155799 0)
(10.0442 -0.0158417 0)
(10.0483 -0.0160768 0)
(10.0522 -0.0162997 0)
(10.0559 -0.0165206 0)
(10.0595 -0.0167456 0)
(10.063 -0.0169795 0)
(10.0662 -0.0172149 0)
(10.0002 -0.00234025 0)
(10.0017 -0.00694213 0)
(10.0049 -0.0110019 0)
(10.0093 -0.014061 0)
(10.0141 -0.0162128 0)
(10.0191 -0.0177948 0)
(10.0241 -0.0189871 0)
(10.0291 -0.019854 0)
(10.0339 -0.020468 0)
(10.0386 -0.0209117 0)
(10.0431 -0.0212471 0)
(10.0474 -0.0215125 0)
(10.0515 -0.0217346 0)
(10.0554 -0.021933 0)
(10.0592 -0.0221212 0)
(10.0628 -0.0223072 0)
(10.0662 -0.0224966 0)
(10.0694 -0.0226845 0)
(10.0002 -0.00297908 0)
(10.0019 -0.00906072 0)
(10.0056 -0.0143998 0)
(10.0109 -0.0182105 0)
(10.0164 -0.0207953 0)
(10.0218 -0.0226542 0)
(10.0271 -0.0239817 0)
(10.0324 -0.0248836 0)
(10.0375 -0.0254978 0)
(10.0423 -0.025936 0)
(10.0469 -0.0262585 0)
(10.0512 -0.0265006 0)
(10.0554 -0.0266912 0)
(10.0593 -0.0268535 0)
(10.0631 -0.0270026 0)
(10.0667 -0.0271469 0)
(10.0701 -0.0272921 0)
(10.0733 -0.027435 0)
(10.0001 -0.00355812 0)
(10.0019 -0.0115004 0)
(10.0065 -0.0178678 0)
(10.0127 -0.0219678 0)
(10.019 -0.024923 0)
(10.0249 -0.0271945 0)
(10.0306 -0.0287068 0)
(10.0361 -0.0295894 0)
(10.0414 -0.0301194 0)
(10.0463 -0.0304748 0)
(10.051 -0.0307221 0)
(10.0555 -0.0308934 0)
(10.0597 -0.0310184 0)
(10.0636 -0.0311208 0)
(10.0674 -0.0312146 0)
(10.0709 -0.0313068 0)
(10.0743 -0.031401 0)
(10.0774 -0.0314934 0)
(9.99997 -0.00368082 0)
(10.0018 -0.0151523 0)
(10.0076 -0.0226037 0)
(10.0148 -0.0259133 0)
(10.0215 -0.028455 0)
(10.0278 -0.0308949 0)
(10.0342 -0.0326503 0)
(10.0402 -0.0336659 0)
(10.0457 -0.0342431 0)
(10.0509 -0.0345907 0)
(10.0557 -0.0347924 0)
(10.0601 -0.034897 0)
(10.0643 -0.0349471 0)
(10.0682 -0.0349724 0)
(10.0718 -0.0349894 0)
(10.0752 -0.0350066 0)
(10.0784 -0.0350277 0)
(10.0813 -0.0350504 0)
(9.99898 -0.00130253 0)
(10 -0.0179534 0)
(10.0085 -0.0290339 0)
(10.0174 -0.0326424 0)
(10.0245 -0.0340494 0)
(10.0313 -0.0352582 0)
(10.0384 -0.0361871 0)
(10.0451 -0.036811 0)
(10.051 -0.0372428 0)
(10.0562 -0.0375228 0)
(10.061 -0.0376656 0)
(10.0652 -0.0377075 0)
(10.069 -0.0376898 0)
(10.0723 -0.0376422 0)
(10.0753 -0.0375829 0)
(10.0779 -0.0375234 0)
(10.0803 -0.0374672 0)
(10.0823 -0.0374137 0)
(9.99528 0.00387362 0)
(9.99335 -0.0102981 0)
(10.0071 -0.0270803 0)
(10.0213 -0.0388915 0)
(10.0312 -0.0448165 0)
(10.0393 -0.0464094 0)
(10.0467 -0.045912 0)
(10.0532 -0.0449409 0)
(10.0583 -0.0440513 0)
(10.0624 -0.0432644 0)
(10.0655 -0.0425369 0)
(10.0679 -0.0418661 0)
(10.0695 -0.0412583 0)
(10.0705 -0.0407134 0)
(10.071 -0.040229 0)
(10.0711 -0.0398043 0)
(10.0708 -0.0394297 0)
(10.0702 -0.0390785 0)
(9.99144 -0.0172903 0)
(9.99189 0.000375197 0)
(10.01 0.0176818 0)
(10.0296 0.0116123 0)
(10.0442 -0.00507474 0)
(10.0542 -0.0187817 0)
(10.0601 -0.0271197 0)
(10.0624 -0.0319885 0)
(10.0619 -0.0348615 0)
(10.0593 -0.0364583 0)
(10.0552 -0.0372267 0)
(10.0499 -0.0374917 0)
(10.0436 -0.0374664 0)
(10.0367 -0.0372804 0)
(10.0292 -0.0370174 0)
(10.0213 -0.0367387 0)
(10.0133 -0.0364998 0)
(10.0052 -0.0362695 0)
(10.0235 -0.206005 0)
(10.0684 -0.312332 0)
(10.0789 -0.25558 0)
(10.0704 -0.184159 0)
(10.0606 -0.134878 0)
(10.0499 -0.102698 0)
(10.0343 -0.0811321 0)
(10.0131 -0.0665805 0)
(9.988 -0.0565835 0)
(9.96082 -0.0494227 0)
(9.93266 -0.0440604 0)
(9.90422 -0.0399072 0)
(9.876 -0.0366049 0)
(9.84832 -0.0339207 0)
(9.82142 -0.0317066 0)
(9.79542 -0.0298993 0)
(9.77057 -0.0284683 0)
(9.74688 -0.0277303 0)
(9.94226 0.671596 0)
(9.87997 0.567459 0)
(9.77449 0.338474 0)
(9.63246 0.18333 0)
(9.48777 0.0949179 0)
(9.35671 0.0470972 0)
(9.24121 0.0213153 0)
(9.13978 0.00709699 0)
(9.05091 -0.000959311 0)
(8.97301 -0.00559753 0)
(8.90434 -0.00828383 0)
(8.84335 -0.00984331 0)
(8.78882 -0.0107462 0)
(8.73974 -0.0112614 0)
(8.69529 -0.0115496 0)
(8.65476 -0.0117356 0)
(8.61732 -0.0119131 0)
(8.58256 -0.0124435 0)
(0.00464331 -0.00746491 -3.6031e-20)
(0.0174325 -0.0168546 3.49451e-20)
(0.0309987 -0.0191346 0)
(0.0426755 -0.0165099 0)
(0.0503328 -0.0108273 0)
(0.0531532 -0.00362086 -3.15512e-20)
(0.0507334 0.00386422 0)
(0.0435802 0.0106018 0)
(0.0323257 0.0160057 0)
(0.0177252 0.0198757 0)
(0.000557297 0.0223244 2.89188e-20)
(-0.0184709 0.0237129 0)
(-0.0388774 0.0244764 0)
(-0.0604062 0.0249746 0)
(-0.0829209 0.025446 0)
(-0.106386 0.0260131 2.53047e-20)
(-0.130815 0.0267062 0)
(-0.15623 0.0274897 0)
(-0.182628 0.0283092 0)
(-0.210013 0.0292052 0)
(-0.238445 0.0304217 0)
(-0.267999 0.0321507 0)
(-0.298658 0.0338837 0)
(-0.330257 0.0345952 2.22753e-20)
(-0.362544 0.0345324 -2.20375e-20)
(-0.395737 0.0365403 2.18105e-20)
(-0.429531 0.0474803 2.22876e-20)
(-0.465389 0.0497158 0)
(-0.50407 0.0431193 0)
(-0.541013 0.046342 -2.40015e-20)
(-0.580437 0.0464865 -2.29239e-20)
(-0.620759 0.0613354 0)
(-0.66205 0.0636595 0)
(-0.705279 0.0495605 -2.27335e-20)
(-0.743654 0.040192 0)
(-0.782114 0.0334495 0)
(-0.819427 0.0354776 2.19014e-20)
(-0.858154 0.0356676 0)
(-0.896892 0.0355134 2.13826e-20)
(-0.935584 0.0351602 4.22726e-20)
(-0.974102 0.034709 0)
(-1.0124 0.0342211 0)
(-1.05045 0.0337315 0)
(-1.08827 0.0332592 0)
(-1.12588 0.0328137 0)
(-1.16329 0.0323987 3.96531e-20)
(-1.20052 0.0320143 3.92625e-20)
(-1.23761 0.0316584 3.88823e-20)
(-1.27457 0.0313274 0)
(-1.31142 0.0310172 -3.81497e-20)
(-1.34816 0.0307234 0)
(-1.38481 0.0304413 3.74491e-20)
(-1.42137 0.0301666 3.71091e-20)
(-1.45784 0.0298949 0)
(-1.49421 0.0296222 0)
(-1.53048 0.0293449 0)
(-1.56663 0.0290598 3.58047e-20)
(-1.60264 0.0287638 0)
(-1.6385 0.0284544 0)
(-1.67418 0.0281292 0)
(-1.70966 0.0277865 0)
(-1.74491 0.0274246 0)
(-1.7799 0.0270421 0)
(-1.8146 0.0266382 0)
(-1.84898 0.0262119 0)
(-1.88299 0.0257627 -3.30564e-20)
(-1.91661 0.0252904 0)
(-1.9498 0.0247947 0)
(-1.98252 0.0242757 3.21524e-20)
(-2.01473 0.0237336 3.18483e-20)
(-2.0464 0.0231686 0)
(-2.07748 0.0225812 -3.12333e-20)
(-2.10795 0.0219718 3.09214e-20)
(-2.13775 0.0213411 0)
(-2.16685 0.0206896 -3.02864e-20)
(-2.19521 0.0200181 0)
(-2.22279 0.0193271 0)
(-2.24956 0.0186174 2.92994e-20)
(-2.27548 0.0178897 0)
(-2.30051 0.0171443 -2.8613e-20)
(-2.32462 0.016382 0)
(-2.34776 0.0156028 2.79e-20)
(-2.3699 0.014807 2.75324e-20)
(-2.391 0.0139943 2.71569e-20)
(-2.41103 0.0131642 5.35464e-20)
(-2.42995 0.0123156 -5.27615e-20)
(-2.44772 0.0114469 0)
(-2.46431 0.0105555 0)
(-2.47966 0.00963813 0)
(-2.49375 0.00869072 -4.94355e-20)
(-2.50651 0.0077089 -4.85543e-20)
(-2.5179 0.00668785 4.76522e-20)
(-2.52786 0.00562237 0)
(-2.5363 0.00451109 -4.57839e-20)
(-2.54317 0.00336463 -4.48177e-20)
(-2.54835 0.00221249 -4.383e-20)
(-2.55172 0.00109716 0)
(-2.5532 7.79807e-05 0)
(-2.55337 -0.000786576 0)
(-2.55207 -0.00161493 -3.96158e-20)
(-2.54935 -0.00242795 0)
(-2.54519 -0.00323548 0)
(-2.53958 -0.00403945 3.61757e-20)
(-2.53251 -0.00484016 0)
(-2.52396 -0.00563704 0)
(-2.51392 -0.00642929 3.24926e-20)
(-2.50239 -0.00721601 0)
(-2.48935 -0.00799625 0)
(-2.4748 -0.00876907 -2.85659e-20)
(-2.45874 -0.00953353 -2.72034e-20)
(-2.44116 -0.0102887 0)
(-2.42206 -0.0110336 2.43995e-20)
(-2.40145 -0.0117674 0)
(-2.37932 -0.0124892 -2.14928e-20)
(-2.35569 -0.013198 0)
(-2.33057 -0.013893 -1.84871e-20)
(-2.30396 -0.0145734 -1.69486e-20)
(-2.27588 -0.0152383 0)
(-2.24635 -0.0158869 0)
(-2.21537 -0.0165185 0)
(-2.18297 -0.0171324 0)
(-2.14918 -0.0177278 0)
(-2.114 -0.0183041 0)
(-2.07748 -0.0188606 0)
(-2.03963 -0.0193966 -3.88717e-21)
(-2.00049 -0.0199116 2.17452e-21)
(-1.96008 -0.020405 0)
(-1.91845 -0.0208763 0)
(-1.87561 -0.0213252 0)
(-1.83162 -0.0217511 0)
(-1.78651 -0.0221538 -1.31508e-20)
(-1.74031 -0.0225329 0)
(-1.69307 -0.0228882 2.02759e-20)
(-1.64483 -0.0232196 -2.38541e-20)
(-1.59564 -0.0235268 0)
(-1.54553 -0.02381 0)
(-1.49456 -0.0240691 0)
(-1.44276 -0.0243042 3.82032e-20)
(-1.39018 -0.0245156 4.17847e-20)
(-1.33688 -0.0247034 0)
(-1.2829 -0.0248681 4.89199e-20)
(-1.22827 -0.0250102 5.24678e-20)
(-1.17306 -0.0251301 -5.59985e-20)
(-1.11731 -0.0252285 0)
(-1.06105 -0.0253061 0)
(-1.00434 -0.0253637 -6.64604e-20)
(-0.947214 -0.0254024 0)
(-0.889719 -0.0254229 0)
(-0.831891 -0.0254265 0)
(-0.77377 -0.0254142 0)
(-0.715389 -0.0253874 8.33065e-20)
(-0.656783 -0.0253471 8.65662e-20)
(-0.597981 -0.0252948 0)
(-0.539012 -0.0252319 9.29606e-20)
(-0.479902 -0.0251594 0)
(-0.420672 -0.0250785 0)
(-0.361343 -0.0249898 1.02217e-19)
(-0.301936 -0.0248939 0)
(-0.242466 -0.0247894 1.0815e-19)
(-0.182952 -0.0246704 0)
(-0.123407 -0.0245334 0)
(-0.0638363 -0.0243745 1.16682e-19)
(-0.00427558 -0.0241489 0)
(0.0552081 -0.0238306 1.20574e-19)
(0.114722 -0.0235068 0)
(0.174296 -0.0232181 0)
(0.233979 -0.0229602 0)
(0.293823 -0.022725 -1.24053e-19)
(0.353868 -0.0225061 0)
(0.414145 -0.0222979 1.25379e-19)
(0.47467 -0.0220935 0)
(0.535435 -0.0218831 0)
(0.596403 -0.0216513 0)
(0.657465 -0.0213722 0)
(0.718436 -0.0209952 0)
(0.778754 -0.0204233 0)
(0.837986 -0.0193857 0)
(0.891561 -0.0172162 -2.57557e-19)
(0.943728 -0.0118219 0)
(0.944935 0.00703123 0)
(0.00812889 -0.0375947 1.06737e-19)
(0.0199981 -0.0445852 -1.00233e-19)
(0.0255426 -0.0362869 0)
(0.0271519 -0.0240666 5.8569e-20)
(0.0251599 -0.0103606 0)
(0.0199027 0.00357172 2.71807e-20)
(0.0118368 0.0168277 -5.29187e-20)
(0.000996452 0.0287182 -5.17181e-20)
(-0.0125338 0.038813 0)
(-0.0286697 0.0469587 -4.91966e-20)
(-0.0472898 0.0532649 -2.39913e-20)
(-0.0682199 0.0580601 0)
(-0.0912688 0.0617819 0)
(-0.116261 0.064839 0)
(-0.143058 0.0675447 0)
(-0.171569 0.0701005 -2.12652e-20)
(-0.201744 0.0726053 0)
(-0.233568 0.0750807 4.08808e-20)
(-0.267049 0.0775146 0)
(-0.302205 0.0799205 0)
(-0.338994 0.0823644 -3.92226e-20)
(-0.377297 0.0848622 0)
(-0.417038 0.0872008 3.85548e-20)
(-0.458316 0.0890168 -1.91867e-20)
(-0.50122 0.0902139 1.90399e-20)
(-0.545256 0.0912095 -1.88886e-20)
(-0.588868 0.0927872 -1.87878e-20)
(-0.633107 0.0952784 0)
(-0.67716 0.0964874 0)
(-0.721276 0.0970612 1.85133e-20)
(-0.764984 0.0970385 -1.81906e-20)
(-0.805947 0.0961734 0)
(-0.846507 0.0962467 0)
(-0.886185 0.0957213 1.76734e-20)
(-0.927159 0.0950523 0)
(-0.96763 0.0940968 0)
(-1.00705 0.0933751 -1.70099e-20)
(-1.04503 0.0923488 0)
(-1.08206 0.0910834 1.65328e-20)
(-1.11845 0.0897157 -3.28481e-20)
(-1.15433 0.088322 0)
(-1.18979 0.0869502 0)
(-1.22492 0.0856278 -6.34657e-20)
(-1.25974 0.0843684 -6.2821e-20)
(-1.29429 0.0831764 -6.21966e-20)
(-1.32861 0.0820503 3.07145e-20)
(-1.36271 0.0809845 -3.05822e-20)
(-1.39661 0.0799712 -9.07239e-20)
(-1.43031 0.0790016 5.98684e-20)
(-1.46382 0.0780659 2.97434e-20)
(-1.49713 0.0771546 0)
(-1.53026 0.0762582 -2.92139e-20)
(-1.56319 0.075368 2.87903e-20)
(-1.5959 0.0744756 0)
(-1.6284 0.0735734 0)
(-1.66066 0.0726547 0)
(-1.69266 0.0717135 -2.79639e-20)
(-1.7244 0.0707444 0)
(-1.75583 0.0697429 5.48076e-20)
(-1.78695 0.0687051 0)
(-1.81773 0.0676277 5.38663e-20)
(-1.84814 0.0665083 0)
(-1.87816 0.0653447 -5.29339e-20)
(-1.90776 0.0641356 0)
(-1.93691 0.0628797 5.20047e-20)
(-1.96559 0.0615766 -2.56965e-20)
(-1.99375 0.060226 0)
(-2.02139 0.0588282 -5.06039e-20)
(-2.04845 0.0573835 -2.51346e-20)
(-2.07492 0.0558927 -2.48951e-20)
(-2.10076 0.0543568 0)
(-2.12595 0.052777 -2.42837e-20)
(-2.15045 0.0511545 -2.4162e-20)
(-2.17424 0.0494908 0)
(-2.19727 0.0477876 2.36572e-20)
(-2.21954 0.0460465 -4.66904e-20)
(-2.24099 0.0442693 0)
(-2.26161 0.0424575 -2.28693e-20)
(-2.28137 0.040613 0)
(-2.30023 0.0387374 6.68721e-20)
(-2.31817 0.0368324 0)
(-2.33515 0.0348993 -6.51671e-20)
(-2.35116 0.0329395 -2.14521e-20)
(-2.36616 0.0309542 2.10875e-20)
(-2.38013 0.0289442 4.15708e-20)
(-2.39304 0.0269102 -4.09528e-20)
(-2.40486 0.0248524 0)
(-2.41556 0.0227704 0)
(-2.42512 0.0206634 0)
(-2.43353 0.0185299 1.15086e-19)
(-2.44075 0.016368 3.76672e-20)
(-2.44677 0.0141757 -3.69416e-20)
(-2.45159 0.0119492 0)
(-2.45522 0.00968489 -3.54582e-20)
(-2.45768 0.00738829 3.46618e-20)
(-2.45906 0.00509173 3.38671e-20)
(-2.45944 0.00285207 0)
(-2.45889 0.000694925 0)
(-2.45699 -0.00135866 0)
(-2.45375 -0.00337439 3.04676e-20)
(-2.44913 -0.0053674 0)
(-2.44309 -0.00734631 -5.74481e-20)
(-2.43562 -0.0093122 -8.33175e-20)
(-2.42671 -0.0112641 5.3707e-20)
(-2.41633 -0.0131999 0)
(-2.40448 -0.0151172 2.50101e-20)
(-2.39115 -0.0170136 0)
(-2.37633 -0.0188865 4.57779e-20)
(-2.36001 -0.0207334 -2.19787e-20)
(-2.34219 -0.022552 -2.09321e-20)
(-2.32287 -0.0243399 0)
(-2.30205 -0.0260947 -5.5756e-20)
(-2.27973 -0.0278143 3.50585e-20)
(-2.25591 -0.0294965 1.62403e-20)
(-2.23061 -0.0311391 0)
(-2.20382 -0.03274 1.39326e-20)
(-2.17557 -0.0342974 3.86458e-20)
(-2.14586 -0.0358092 0)
(-2.1147 -0.0372737 2.11287e-20)
(-2.08213 -0.0386892 1.87086e-20)
(-2.04814 -0.0400542 1.62639e-20)
(-2.01277 -0.0413672 0)
(-1.97604 -0.0426267 0)
(-1.93797 -0.0438316 0)
(-1.8986 -0.0449805 -3.37271e-21)
(-1.85794 -0.0460724 -1.61767e-21)
(-1.81603 -0.0471062 0)
(-1.7729 -0.0480811 1.41045e-21)
(-1.72859 -0.0489964 3.99524e-21)
(-1.68313 -0.0498516 0)
(-1.63656 -0.0506464 9.72295e-21)
(-1.58892 -0.0513804 2.35986e-20)
(-1.54025 -0.0520535 -1.49555e-20)
(-1.49059 -0.0526657 -1.64738e-20)
(-1.43998 -0.0532171 0)
(-1.38847 -0.0537082 0)
(-1.3361 -0.0541396 0)
(-1.28293 -0.054512 -2.80234e-20)
(-1.22898 -0.0548263 2.94794e-20)
(-1.17431 -0.0550835 6.52645e-20)
(-1.11897 -0.0552849 -3.57768e-20)
(-1.06301 -0.055432 3.71868e-20)
(-1.00646 -0.0555266 4.08777e-20)
(-0.949376 -0.0555703 0)
(-0.891802 -0.0555653 0)
(-0.833781 -0.0555138 -4.72471e-20)
(-0.775357 -0.0554182 0)
(-0.716571 -0.0552811 0)
(-0.657461 -0.0551053 1.10274e-19)
(-0.598068 -0.0548935 0)
(-0.538425 -0.0546488 5.9326e-20)
(-0.478566 -0.0543744 -6.27728e-20)
(-0.418523 -0.0540732 0)
(-0.358322 -0.0537485 6.62421e-20)
(-0.29799 -0.0534031 0)
(-0.237549 -0.0530396 0)
(-0.177019 -0.0526602 -7.39417e-20)
(-0.116416 -0.0522647 1.51096e-19)
(-0.0557554 -0.0518534 -7.81765e-20)
(0.00495048 -0.0514254 0)
(0.0656916 -0.0509803 0)
(0.126468 -0.0505262 8.1516e-20)
(0.187283 -0.0500714 0)
(0.248151 -0.0496052 8.37677e-20)
(0.309123 -0.0491479 0)
(0.370218 -0.0487297 0)
(0.431468 -0.0483545 0)
(0.492908 -0.048016 8.87286e-20)
(0.554571 -0.0477058 0)
(0.616481 -0.0474135 -9.04447e-20)
(0.678654 -0.0471256 0)
(0.74108 -0.0468209 0)
(0.803718 -0.0464654 1.84564e-19)
(0.866465 -0.0460009 -1.85921e-19)
(0.929129 -0.0453149 0)
(0.99124 -0.044195 0)
(1.05232 -0.0420806 0)
(1.10959 -0.0378976 5.74211e-19)
(1.16555 -0.0277687 0)
(1.19912 -0.00267962 -3.91336e-19)
(0.00576561 -0.0628682 -4.24167e-23)
(0.00987928 -0.055323 1.29398e-19)
(0.00767017 -0.0355365 0)
(0.0026302 -0.0153138 -1.08748e-19)
(-0.00505402 0.00440129 0)
(-0.0150211 0.0232449 0)
(-0.0270026 0.0409102 6.52669e-24)
(-0.0409195 0.0570855 4.54221e-20)
(-0.0567909 0.0714909 4.4198e-20)
(-0.0746936 0.0839789 4.31279e-20)
(-0.0947104 0.0945903 0)
(-0.116888 0.103552 0)
(-0.141219 0.111213 -4.02641e-20)
(-0.167646 0.117954 -7.87947e-20)
(-0.19608 0.124112 7.71592e-20)
(-0.226418 0.129935 0)
(-0.258554 0.13557 7.42267e-20)
(-0.292379 0.141074 -3.64858e-20)
(-0.327781 0.146444 0)
(-0.364625 0.15166 7.06932e-20)
(-0.402717 0.156688 3.48756e-20)
(-0.441787 0.161426 -6.88198e-20)
(-0.481562 0.165641 -3.39975e-20)
(-0.521846 0.169055 0)
(-0.562471 0.171586 6.62662e-20)
(-0.603113 0.173468 6.53867e-20)
(-0.643175 0.174878 0)
(-0.682384 0.1753 6.37139e-20)
(-0.720944 0.174503 0)
(-0.75892 0.17312 6.19888e-20)
(-0.796059 0.171282 3.0582e-20)
(-0.832044 0.169139 0)
(-0.866883 0.166088 0)
(-0.901178 0.161943 0)
(-0.935505 0.157677 0)
(-0.969649 0.153785 0)
(-1.00334 0.150449 0)
(-1.0364 0.147415 5.56278e-20)
(-1.06896 0.1446 -8.2437e-20)
(-1.10113 0.141964 0)
(-1.13298 0.139489 0)
(-1.16456 0.137163 0)
(-1.19591 0.134977 8.62114e-23)
(-1.22707 0.132918 5.1935e-20)
(-1.25805 0.130976 1.02671e-19)
(-1.28887 0.129135 -1.01595e-19)
(-1.31955 0.127381 -5.02255e-20)
(-1.35008 0.125699 4.9814e-20)
(-1.38047 0.124072 -1.01172e-22)
(-1.41072 0.122486 4.87292e-20)
(-1.44083 0.120927 0)
(-1.47079 0.119381 4.77848e-20)
(-1.50059 0.117835 -1.05856e-22)
(-1.53022 0.116278 0)
(-1.55967 0.1147 0)
(-1.58893 0.113092 -4.59902e-20)
(-1.61797 0.111446 0)
(-1.64678 0.109755 0)
(-1.67535 0.108013 4.45968e-20)
(-1.70364 0.106214 8.8563e-20)
(-1.73163 0.104356 -4.39674e-20)
(-1.75931 0.102435 0)
(-1.78665 0.100447 4.31337e-20)
(-1.81362 0.0983927 0)
(-1.84019 0.0962697 4.21043e-20)
(-1.86635 0.0940777 4.18881e-20)
(-1.89205 0.0918167 -8.27519e-20)
(-1.91728 0.0894874 -4.08666e-20)
(-1.942 0.0870904 0)
(-1.96619 0.0846272 8.02468e-20)
(-1.98982 0.0820993 0)
(-2.01285 0.0795086 1.17909e-19)
(-2.03526 0.0768571 7.769e-20)
(-2.05702 0.074147 7.68212e-20)
(-2.0781 0.0713809 -7.59424e-20)
(-2.09847 0.0685613 1.1265e-19)
(-2.1181 0.0656906 0)
(-2.13696 0.0627716 0)
(-2.15502 0.0598068 -7.23072e-20)
(-2.17225 0.0567989 -1.07102e-19)
(-2.18863 0.0537503 0)
(-2.20413 0.0506636 3.47619e-20)
(-2.21872 0.0475409 0)
(-2.23236 0.0443846 -1.01171e-19)
(-2.24505 0.0411965 -6.9173e-23)
(-2.25674 0.0379786 5.961e-23)
(-2.26743 0.0347326 6.42646e-20)
(-2.27707 0.0314603 0)
(-2.28566 0.0281635 -6.20542e-20)
(-2.29316 0.0248445 -1.91311e-23)
(-2.29957 0.0215066 0)
(-2.30487 0.0181548 0)
(-2.30906 0.0147963 0)
(-2.31212 0.011442 5.60979e-20)
(-2.31406 0.00810627 0)
(-2.31485 0.00480806 0)
(-2.31448 0.00156716 0)
(-2.3129 -0.00163563 0)
(-2.31002 -0.00483922 0)
(-2.30581 -0.00803475 4.80893e-20)
(-2.30025 -0.0112181 0)
(-2.29331 -0.0143855 4.50748e-20)
(-2.28499 -0.0175333 4.35755e-20)
(-2.27526 -0.0206573 -4.20499e-20)
(-2.26412 -0.0237536 0)
(-2.25154 -0.0268178 -3.89204e-20)
(-2.23751 -0.0298459 0)
(-2.22204 -0.0328336 -3.56885e-20)
(-2.20512 -0.035777 3.40351e-20)
(-2.18673 -0.0386722 9.75055e-20)
(-2.16689 -0.0415154 0)
(-2.14558 -0.0443029 8.72743e-20)
(-2.12282 -0.0470312 2.76869e-20)
(-2.0986 -0.0496967 0)
(-2.07293 -0.0522961 4.77999e-20)
(-2.04582 -0.0548262 4.42025e-20)
(-2.01727 -0.0572837 -6.05552e-20)
(-1.98731 -0.0596657 0)
(-1.95595 -0.0619693 -1.62784e-20)
(-1.9232 -0.064192 -1.43987e-20)
(-1.88907 -0.0663312 -3.81786e-20)
(-1.8536 -0.0683847 0)
(-1.8168 -0.0703504 0)
(-1.77869 -0.0722262 0)
(-1.73931 -0.0740104 -5.53341e-21)
(-1.69868 -0.0757012 0)
(-1.65682 -0.0772971 0)
(-1.61378 -0.0787968 -1.07663e-21)
(-1.56959 -0.0801994 -3.04665e-21)
(-1.52427 -0.0815042 0)
(-1.47787 -0.0827107 0)
(-1.43042 -0.0838186 -1.79438e-20)
(-1.38197 -0.0848279 0)
(-1.33255 -0.0857385 2.58416e-20)
(-1.28221 -0.0865509 2.89344e-20)
(-1.23098 -0.087266 0)
(-1.17892 -0.0878848 0)
(-1.12606 -0.0884086 -4.06678e-20)
(-1.07245 -0.0888391 -8.67452e-22)
(-1.01814 -0.0891779 -8.70384e-22)
(-0.963169 -0.0894273 0)
(-0.907585 -0.0895899 -1.13002e-19)
(-0.851433 -0.0896685 0)
(-0.794757 -0.089666 0)
(-0.737602 -0.0895858 0)
(-0.68001 -0.0894316 7.19025e-20)
(-0.622024 -0.0892075 0)
(-0.563684 -0.0889176 -1.56621e-19)
(-0.50503 -0.0885664 -8.27536e-20)
(-0.446099 -0.0881584 0)
(-0.386925 -0.0876988 -8.97835e-20)
(-0.327542 -0.0871923 0)
(-0.26798 -0.0866441 0)
(-0.208266 -0.0860591 -2.9831e-19)
(-0.148426 -0.0854422 2.04948e-19)
(-0.0884808 -0.0847974 0)
(-0.0284493 -0.0841294 2.17884e-19)
(0.0316528 -0.0834418 -1.12475e-19)
(0.0918132 -0.0827369 0)
(0.152024 -0.0820171 0)
(0.212282 -0.0812868 0)
(0.272596 -0.080556 -3.61336e-19)
(0.332983 -0.0798431 0)
(0.393491 -0.0791642 -1.24846e-19)
(0.454142 -0.0785273 0)
(0.514945 -0.0779427 0)
(0.575922 -0.0774125 0)
(0.637095 -0.0769315 0)
(0.698492 -0.07649 0)
(0.760132 -0.0760737 0)
(0.822028 -0.0756617 -2.72273e-19)
(0.884171 -0.0752212 0)
(0.94652 -0.0746986 -1.39656e-19)
(1.00898 -0.0740029 4.21754e-19)
(1.07137 -0.0729676 0)
(1.13332 -0.0712801 0)
(1.19446 -0.068251 -2.88635e-19)
(1.25295 -0.0625481 -2.92604e-19)
(1.31143 -0.0507055 2.9498e-19)
(1.35786 -0.0252877 3.00563e-19)
(0.000456155 -0.0692464 -2.08708e-19)
(-0.00349238 -0.0477163 -1.8841e-19)
(-0.0117606 -0.0215222 -1.11483e-19)
(-0.0217048 0.00336787 -5.06733e-20)
(-0.0334239 0.0269458 0)
(-0.0467232 0.049255 8.91889e-20)
(-0.0615099 0.070208 -4.27275e-20)
(-0.0777911 0.089647 0)
(-0.0956397 0.107411 -4.01585e-20)
(-0.115163 0.123407 0)
(-0.136473 0.137654 7.65555e-20)
(-0.159652 0.150296 0)
(-0.184729 0.161572 3.66661e-20)
(-0.211676 0.171759 7.18266e-20)
(-0.240404 0.181114 -7.03872e-20)
(-0.270779 0.18983 0)
(-0.302633 0.198013 -6.77182e-20)
(-0.335769 0.205685 0)
(-0.369969 0.212801 0)
(-0.404993 0.219277 -6.42222e-20)
(-0.440571 0.225004 0)
(-0.476417 0.229844 -1.39494e-23)
(-0.512265 0.233629 0)
(-0.547917 0.23622 0)
(-0.583233 0.237604 2.35096e-23)
(-0.618068 0.23791 -5.82688e-20)
(-0.652254 0.237279 -5.73589e-20)
(-0.685696 0.235687 -5.64047e-20)
(-0.718443 0.23318 0)
(-0.750571 0.230038 -1.09326e-19)
(-0.782076 0.22642 0)
(-0.812958 0.222458 -5.30033e-20)
(-0.843308 0.218109 0)
(-0.873313 0.213384 0)
(-0.903141 0.208597 5.0681e-20)
(-0.932821 0.203993 0)
(-0.962301 0.199712 -4.92673e-20)
(-0.991546 0.195737 -1.1021e-23)
(-1.02057 0.19204 9.59555e-20)
(-1.0494 0.188596 -9.4722e-20)
(-1.07806 0.185381 0)
(-1.10656 0.182373 0)
(-1.13494 0.179551 -4.56381e-20)
(-1.1632 0.176893 0)
(-1.19136 0.174378 -4.46756e-20)
(-1.21942 0.171985 4.41852e-20)
(-1.24739 0.169694 4.37083e-20)
(-1.27526 0.167483 0)
(-1.30305 0.165333 -4.27903e-20)
(-1.33074 0.163225 -4.2347e-20)
(-1.35833 0.161141 8.37272e-20)
(-1.3858 0.159065 -4.14872e-20)
(-1.41316 0.156982 -4.1069e-20)
(-1.44039 0.154877 0)
(-1.46748 0.152739 0)