/*--------------------------------*- C++ -*----------------------------------*\
  =========                 |
  \\      /  F ield         | OpenFOAM: The Open Source CFD Toolbox
   \\    /   O peration     | Website:  https://openfoam.org
    \\  /    A nd           | Version:  9
     \\/     M anipulation  |
\*---------------------------------------------------------------------------*/
FoamFile
{
    format      ascii;
    class       surfaceScalarField;
    location    "0.5";
    object      phi;
}
// * * * * * * * * * * * * * * * * * * * * * * * * * * * * * * * * * * * * * //

dimensions      [0 3 -1 0 0 0 0];

internalField   nonuniform List<scalar> 
1740
(
6.09227e-09
-6.11212e-09
5.34428e-09
7.47983e-10
-7.33113e-09
1.26754e-08
-3.15908e-08
2.42597e-08
-6.5323e-08
3.37321e-08
-1.05844e-07
4.05208e-08
-1.50381e-07
4.45376e-08
-1.96307e-07
4.59255e-08
-2.41233e-07
4.49259e-08
-2.83051e-07
4.18189e-08
-3.1995e-07
3.68987e-08
-3.50414e-07
3.04643e-08
-3.73232e-07
2.28172e-08
-3.87495e-07
1.42638e-08
-3.92614e-07
5.11914e-09
-3.88326e-07
-4.28864e-09
-3.74711e-07
-1.3615e-08
-3.52213e-07
-2.2498e-08
-3.21653e-07
-3.05599e-08
-2.8424e-07
-3.74128e-08
-2.41572e-07
-4.26682e-08
-1.95621e-07
-4.59505e-08
-1.48706e-07
-4.69156e-08
-1.03432e-07
-4.52741e-08
-6.26062e-08
-4.0826e-08
-2.90835e-08
-3.35228e-08
-5.49136e-09
-2.35922e-08
6.28422e-09
-1.17754e-08
6.28816e-09
-3.71088e-12
6.28826e-09
-4.42164e-10
-5.66997e-09
-2.00543e-08
2.03601e-08
-6.50045e-08
5.76256e-08
-1.34691e-07
9.39462e-08
-2.25228e-07
1.24269e-07
-3.31089e-07
1.46382e-07
-4.46124e-07
1.59572e-07
-5.64176e-07
1.63978e-07
-6.79436e-07
1.60186e-07
-7.86642e-07
1.49024e-07
-8.81186e-07
1.31443e-07
-9.59184e-07
1.08462e-07
-1.01751e-06
8.11481e-08
-1.05385e-06
5.06025e-08
-1.0667e-06
1.79693e-08
-1.05543e-06
-1.55603e-08
-1.0203e-06
-4.87424e-08
-9.62521e-07
-8.02822e-08
-8.84236e-07
-1.08845e-07
-7.88569e-07
-1.3308e-07
-6.79578e-07
-1.51659e-07
-5.62197e-07
-1.63332e-07
-4.42113e-07
-1.66999e-07
-3.25575e-07
-1.61812e-07
-2.19089e-07
-1.47312e-07
-1.2897e-07
-1.23643e-07
-6.06332e-08
-9.19289e-08
-1.75519e-08
-5.48571e-08
3.51618e-10
-1.79075e-08
6.64009e-09
-1.20642e-08
6.39426e-09
-5.71946e-08
6.54904e-08
-1.38131e-07
1.38562e-07
-2.52599e-07
2.08414e-07
-3.95008e-07
2.66678e-07
-5.57809e-07
3.09183e-07
-7.32544e-07
3.34307e-07
-9.10601e-07
3.42034e-07
-1.08372e-06
3.33305e-07
-1.24431e-06
3.0962e-07
-1.38569e-06
2.72817e-07
-1.50216e-06
2.2493e-07
-1.58914e-06
1.68129e-07
-1.64322e-06
1.04689e-07
-1.66223e-06
3.69784e-08
-1.64526e-06
-3.25311e-08
-1.59274e-06
-1.01268e-07
-1.50645e-06
-1.66568e-07
-1.38959e-06
-2.25704e-07
-1.24673e-06
-2.75941e-07
-1.08377e-06
-3.14618e-07
-9.07836e-07
-3.39269e-07
-7.27055e-07
-3.4778e-07
-5.50264e-07
-3.38603e-07
-3.86547e-07
-3.11029e-07
-2.44601e-07
-2.65588e-07
-1.31877e-07
-2.04653e-07
-5.34725e-08
-1.33262e-07
-1.08031e-08
-6.05771e-08
-4.16287e-09
-2.40715e-08
3.04658e-08
-9.62229e-08
1.37642e-07
-2.14303e-07
2.56642e-07
-3.73094e-07
3.67205e-07
-5.64798e-07
4.58382e-07
-7.79906e-07
5.24291e-07
-1.00805e-06
5.62454e-07
-1.23874e-06
5.72717e-07
-1.46185e-06
5.56424e-07
-1.6681e-06
5.15863e-07
-1.8492e-06
4.53923e-07
-1.99815e-06
3.73872e-07
-2.10925e-06
2.79234e-07
-2.17829e-06
1.73732e-07
-2.20258e-06
6.1259e-08
-2.18098e-06
-5.41252e-08
-2.11405e-06
-1.68201e-07
-2.004e-06
-2.76613e-07
-1.85479e-06
-3.7492e-07
-1.67204e-06
-4.58686e-07
-1.46303e-06
-5.23625e-07
-1.2365e-06
-5.65798e-07
-1.00241e-06
-5.81872e-07
-7.71558e-07
-5.69459e-07
-5.55043e-07
-5.27544e-07
-3.63584e-07
-4.57047e-07
-2.06655e-07
-3.61582e-07
-9.15366e-08
-2.4838e-07
-2.24293e-08
-1.29685e-07
-2.65921e-08
-3.53202e-08
6.5786e-08
-1.34089e-07
2.3641e-07
-2.89054e-07
4.11608e-07
-4.91425e-07
5.69576e-07
-7.30749e-07
6.97706e-07
-9.95389e-07
7.88931e-07
-1.27316e-06
8.40223e-07
-1.55192e-06
8.51478e-07
-1.82009e-06
8.2459e-07
-2.06701e-06
7.62784e-07
-2.28324e-06
6.70161e-07
-2.46077e-06
5.51395e-07
-2.59309e-06
4.1156e-07
-2.67539e-06
2.56028e-07
-2.70456e-06
9.04273e-08
-2.67931e-06
-7.93748e-08
-2.60022e-06
-2.47286e-07
-2.46981e-06
-4.07027e-07
-2.29253e-06
-5.52203e-07
-2.07477e-06
-6.7644e-07
-1.82481e-06
-7.73587e-07
-1.55261e-06
-8.38001e-07
-1.26956e-06
-8.64916e-07
-9.88105e-07
-8.50915e-07
-7.2115e-07
-7.94499e-07
-4.81407e-07
-6.9679e-07
-2.80602e-07
-5.62387e-07
-1.28704e-07
-4.00278e-07
-3.33614e-08
-2.25028e-07
-5.99537e-08
-4.56885e-08
1.11474e-07
-1.70058e-07
3.60779e-07
-3.61079e-07
6.02629e-07
-6.06174e-07
8.1467e-07
-8.91937e-07
9.83469e-07
-1.20441e-06
1.1014e-06
-1.52952e-06
1.16534e-06
-1.8536e-06
1.17556e-06
-2.16376e-06
1.13474e-06
-2.44824e-06
1.04727e-06
-2.69671e-06
9.1863e-07
-2.90039e-06
7.55067e-07
-3.05218e-06
5.63355e-07
-3.14681e-06
3.50661e-07
-3.18087e-06
1.2449e-07
-3.15291e-06
-1.07343e-07
-3.06347e-06
-3.36724e-07
-2.91521e-06
-5.55291e-07
-2.71288e-06
-7.54526e-07
-2.4634e-06
-9.25921e-07
-2.17574e-06
-1.06125e-06
-1.86083e-06
-1.15292e-06
-1.53127e-06
-1.19448e-06
-1.20098e-06
-1.18121e-06
-8.84658e-07
-1.11082e-06
-5.97147e-07
-9.84302e-07
-3.52708e-07
-8.06826e-07
-1.64371e-07
-5.88615e-07
-4.35037e-08
-3.45894e-07
-1.03457e-07
-5.53675e-08
1.66842e-07
-2.04364e-07
5.09776e-07
-4.30588e-07
8.28852e-07
-7.17652e-07
1.10173e-06
-1.04903e-06
1.31485e-06
-1.40827e-06
1.46064e-06
-1.77935e-06
1.53642e-06
-2.14704e-06
1.54324e-06
-2.49726e-06
1.48497e-06
-2.81734e-06
1.36735e-06
-3.09621e-06
1.1975e-06
-3.32452e-06
9.83385e-07
-3.49478e-06
7.33614e-07
-3.60137e-06
4.57247e-07
-3.64062e-06
1.63744e-07
-3.61091e-06
-1.37052e-07
-3.5127e-06
-4.34935e-07
-3.34863e-06
-7.19363e-07
-3.12358e-06
-9.79571e-07
-2.84475e-06
-1.20476e-06
-2.52159e-06
-1.3844e-06
-2.16578e-06
-1.50872e-06
-1.791e-06
-1.56926e-06
-1.41261e-06
-1.5596e-06
-1.04715e-06
-1.47627e-06
-7.11793e-07
-1.31966e-06
-4.23615e-07
-1.095e-06
-1.98986e-07
-8.13244e-07
-5.31096e-08
-4.91771e-07
-1.56567e-07
-6.46379e-08
2.3148e-07
-2.37623e-07
6.82761e-07
-4.98465e-07
1.08969e-06
-8.2699e-07
1.43026e-06
-1.20344e-06
1.6913e-06
-1.60875e-06
1.86595e-06
-2.02485e-06
1.95251e-06
-2.43496e-06
1.95336e-06
-2.82388e-06
1.87388e-06
-3.17813e-06
1.7216e-06
-3.48608e-06
1.50545e-06
-3.73801e-06
1.23531e-06
-3.92612e-06
9.21726e-07
-4.04458e-06
5.75704e-07
-4.08953e-06
2.08693e-07
-4.05915e-06
-1.67435e-07
-3.95372e-06
-5.4036e-07
-3.77575e-06
-8.97333e-07
-3.53006e-06
-1.22527e-06
-3.22389e-06
-1.51093e-06
-2.86698e-06
-1.74131e-06
-2.47159e-06
-1.90412e-06
-2.05234e-06
-1.98851e-06
-1.62601e-06
-1.98593e-06
-1.2111e-06
-1.89119e-06
-8.27285e-07
-1.70347e-06
-4.94747e-07
-1.42754e-06
-2.33448e-07
-1.07454e-06
-6.25441e-08
-6.62675e-07
-2.19111e-07
-7.37719e-08
3.05252e-07
-2.70529e-07
8.79518e-07
-5.65788e-07
1.38495e-06
-9.35559e-07
1.80003e-06
-1.35676e-06
2.1125e-06
-1.80758e-06
2.31678e-06
-2.26786e-06
2.41279e-06
-2.71929e-06
2.40479e-06
-3.14561e-06
2.30021e-06
-3.53269e-06
2.10868e-06
-3.86849e-06
1.84125e-06
-4.14307e-06
1.50989e-06
-4.3485e-06
1.12716e-06
-4.47885e-06
7.06051e-07
-4.53011e-06
2.5995e-07
-4.50025e-06
-1.97289e-07
-4.38932e-06
-6.51293e-07
-4.19951e-06
-1.08714e-06
-3.93539e-06
-1.48939e-06
-3.60403e-06
-1.84229e-06
-3.21523e-06
-2.13012e-06
-2.78157e-06
-2.33777e-06
-2.31852e-06
-2.45156e-06
-1.84422e-06
-2.46023e-06
-1.37921e-06
-2.35619e-06
-9.45887e-07
-2.1368e-06
-5.67786e-07
-1.80564e-06
-2.68771e-07
-1.37356e-06
-7.21793e-08
-8.59267e-07
-2.9129e-07
-8.30048e-08
3.88256e-07
-3.0373e-07
1.10024e-06
-6.33601e-07
1.71482e-06
-1.04468e-06
2.21111e-06
-1.5104e-06
2.57822e-06
-2.00614e-06
2.81252e-06
-2.50958e-06
2.91623e-06
-3.00094e-06
2.89614e-06
-3.46302e-06
2.76229e-06
-3.8812e-06
2.52685e-06
-4.24325e-06
2.2033e-06
-4.53923e-06
1.80587e-06
-4.76125e-06
1.34919e-06
-4.90339e-06
8.48193e-07
-4.96159e-06
3.18145e-07
-4.93361e-06
-2.25265e-07
-4.81915e-06
-7.65751e-07
-4.61997e-06
-1.28632e-06
-4.34014e-06
-1.76923e-06
-3.98628e-06
-2.19614e-06
-3.56795e-06
-2.54845e-06
-3.09784e-06
-2.80788e-06
-2.59201e-06
-2.95739e-06
-2.06989e-06
-2.98236e-06
-1.55407e-06
-2.87202e-06
-1.06984e-06
-2.62102e-06
-6.44423e-07
-2.23106e-06
-3.05958e-07
-1.71202e-06
-8.23607e-08
-1.08286e-06
-3.73651e-07
-9.25376e-08
4.80794e-07
-3.37805e-07
1.34551e-06
-7.02836e-07
2.07985e-06
-1.15547e-06
2.66374e-06
-1.66546e-06
3.08821e-06
-2.20523e-06
3.3523e-06
-2.75032e-06
3.46132e-06
-3.27956e-06
3.42538e-06
-3.775e-06
3.25773e-06
-4.22177e-06
2.97362e-06
-4.60773e-06
2.58926e-06
-4.92317e-06
2.12131e-06
-5.16052e-06
1.58653e-06
-5.31404e-06
1.00172e-06
-5.3797e-06
3.83805e-07
-5.35509e-06
-2.49877e-07
-5.23948e-06
-8.81363e-07
-5.034e-06
-1.49179e-06
-4.74197e-06
-2.06126e-06
-4.36926e-06
-2.56885e-06
-3.92479e-06
-2.99292e-06
-3.42098e-06
-3.31168e-06
-2.8742e-06
-3.50417e-06
-2.30494e-06
-3.55162e-06
-1.73782e-06
-3.43914e-06
-1.20117e-06
-3.15767e-06
-7.26238e-07
-2.70599e-06
-3.45949e-07
-2.09231e-06
-9.34066e-08
-1.33541e-06
-4.67058e-07
-1.02551e-07
5.83345e-07
-3.73279e-07
1.61624e-06
-7.74318e-07
2.48089e-06
-1.26884e-06
3.15826e-06
-1.82263e-06
3.642e-06
-2.40501e-06
3.93468e-06
-2.9894e-06
4.04571e-06
-3.55339e-06
3.98936e-06
-4.07858e-06
3.78292e-06
-4.55018e-06
3.44522e-06
-4.9565e-06
2.99558e-06
-5.28845e-06
2.45326e-06
-5.53902e-06
1.83711e-06
-5.70295e-06
1.16564e-06
-5.77635e-06
4.57212e-07
-5.75669e-06
-2.69537e-07
-5.64275e-06
-9.95305e-07
-5.43485e-06
-1.69969e-06
-5.13525e-06
-2.36086e-06
-4.74866e-06
-2.95545e-06
-4.28289e-06
-3.45869e-06
-3.74962e-06
-3.84495e-06
-3.16502e-06
-4.08877e-06
-2.55033e-06
-4.16631e-06
-1.93203e-06
-4.05744e-06
-1.3416e-06
-3.7481e-06
-8.14673e-07
-3.23291e-06
-3.89632e-07
-2.51735e-06
-1.05618e-07
-1.61942e-06
-5.72676e-07
-1.13225e-07
6.9657e-07
-4.10671e-07
1.91369e-06
-8.48818e-07
2.91904e-06
-1.38555e-06
3.69499e-06
-1.98222e-06
4.23867e-06
-2.60491e-06
4.55737e-06
-3.22497e-06
4.66577e-06
-3.81905e-06
4.58344e-06
-4.36866e-06
4.33254e-06
-4.85959e-06
3.93614e-06
-5.28108e-06
3.41707e-06
-5.62509e-06
2.79727e-06
-5.88562e-06
2.09764e-06
-6.05812e-06
1.33814e-06
-6.13913e-06
5.3822e-07
-6.12604e-06
-2.82633e-07
-6.01708e-06
-1.10426e-06
-5.8116e-06
-1.90517e-06
-5.51045e-06
-2.66201e-06
-5.11668e-06
-3.34922e-06
-4.63644e-06
-3.93893e-06
-4.07996e-06
-4.40143e-06
-3.46261e-06
-4.70612e-06
-2.8058e-06
-4.82312e-06
-2.13754e-06
-4.7257e-06
-1.49246e-06
-4.39318e-06
-9.11024e-07
-3.81435e-06
-4.37858e-07
-2.99052e-06
-1.19295e-07
-1.93798e-06
-6.91971e-07
-1.24771e-07
8.21342e-07
-4.50568e-07
2.23948e-06
-9.27153e-07
3.39562e-06
-1.50621e-06
4.27405e-06
-2.14414e-06
4.87659e-06
-2.80355e-06
5.21678e-06
-3.45391e-06
5.31613e-06
-4.0713e-06
5.20083e-06
-4.63774e-06
4.89899e-06
-5.1402e-06
4.4386e-06
-5.56948e-06
3.84635e-06
-5.9192e-06
3.14699e-06
-6.18482e-06
2.36326e-06
-6.36296e-06
1.51627e-06
-6.45078e-06
6.26047e-07
-6.44577e-06
-2.87644e-07
-6.34562e-06
-1.20441e-06
-6.14846e-06
-2.10232e-06
-5.85341e-06
-2.95706e-06
-5.46133e-06
-3.7413e-06
-4.97595e-06
-4.42431e-06
-4.40522e-06
-4.97215e-06
-3.76281e-06
-5.34853e-06
-3.06949e-06
-5.51645e-06
-2.35424e-06
-5.44095e-06
-1.65468e-06
-5.09274e-06
-1.01647e-06
-4.45256e-06
-4.91492e-07
-3.5155e-06
-1.34758e-07
-2.29472e-06
-8.26729e-07
-1.37467e-07
9.58809e-07
-4.93724e-07
2.59574e-06
-1.01031e-06
3.91221e-06
-1.63149e-06
4.89523e-06
-2.30795e-06
5.55305e-06
-2.9987e-06
5.90754e-06
-3.67158e-06
5.98901e-06
-4.30273e-06
5.83198e-06
-4.87545e-06
5.4717e-06
-5.37871e-06
4.94187e-06
-5.8057e-06
4.27334e-06
-6.15236e-06
3.49365e-06
-6.41626e-06
2.62716e-06
-6.59561e-06
1.69562e-06
-6.68859e-06
7.19024e-07
-6.69293e-06
-2.83303e-07
-6.60581e-06
-1.29153e-06
-6.42405e-06
-2.28408e-06
-6.14462e-06
-3.2365e-06
-5.76559e-06
-4.12032e-06
-5.28747e-06
-4.90243e-06
-4.71489e-06
-5.54474e-06
-4.0586e-06
-6.00481e-06
-3.33759e-06
-6.23746e-06
-2.58089e-06
-6.19765e-06
-1.82867e-06
-5.84496e-06
-1.1321e-06
-5.14913e-06
-5.51464e-07
-4.09614e-06
-1.52377e-07
-2.6938e-06
-9.79106e-07
-1.51717e-07
1.11053e-06
-5.41201e-07
2.98522e-06
-1.09963e-06
4.47064e-06
-1.76215e-06
5.55774e-06
-2.47286e-06
6.26376e-06
-3.18706e-06
6.62174e-06
-3.87149e-06
6.67345e-06
-4.50326e-06
6.46375e-06
-5.06798e-06
6.03642e-06
-5.55774e-06
5.43163e-06
-5.96904e-06
4.68464e-06
-6.30104e-06
3.82565e-06
-6.55405e-06
2.88018e-06
-6.72844e-06
1.87001e-06
-6.82376e-06
8.14344e-07
-6.83827e-06
-2.68789e-07
-6.76874e-06
-1.36107e-06
-6.61053e-06
-2.44229e-06
-6.35821e-06
-3.48882e-06
-6.00646e-06
-4.47207e-06
-5.55162e-06
-5.35726e-06
-4.99377e-06
-6.10259e-06
-4.33927e-06
-6.65931e-06
-3.60372e-06
-6.97302e-06
-2.81476e-06
-6.98662e-06
-2.01426e-06
-6.64545e-06
-1.25898e-06
-5.90441e-06
-6.1886e-07
-4.73626e-06
-1.72618e-07
-3.14005e-06
-1.15172e-06
-1.68138e-07
1.27866e-06
-5.94563e-07
3.41165e-06
-1.197e-06
5.07308e-06
-1.89916e-06
6.25991e-06
-2.63756e-06
7.00215e-06
-3.36388e-06
7.34806e-06
-4.04468e-06
7.35425e-06
-4.65933e-06
7.0784e-06
-5.19724e-06
6.57433e-06
-5.65492e-06
5.88931e-06
-6.03336e-06
5.06308e-06
-6.33583e-06
4.12812e-06
-6.56615e-06
3.1105e-06
-6.72737e-06
2.03122e-06
-6.82085e-06
9.07823e-07
-6.84567e-06
-2.43966e-07
-6.79834e-06
-1.40839e-06
-6.67284e-06
-2.56779e-06
-6.46107e-06
-3.70059e-06
-6.15382e-06
-4.77933e-06
-5.74236e-06
-5.76872e-06
-5.22082e-06
-6.62413e-06
-4.58936e-06
-7.29077e-06
-3.85805e-06
-7.70432e-06
-3.05109e-06
-7.79358e-06
-2.21048e-06
-7.48606e-06
-1.39815e-06
-6.71674e-06
-6.95051e-07
-5.43936e-06
-1.9611e-07
-3.63899e-06
-1.34783e-06
-1.87689e-07
1.46635e-06
-6.56147e-07
3.88011e-06
-1.30507e-06
5.722e-06
-2.04371e-06
6.99855e-06
-2.79986e-06
7.75831e-06
-3.5222e-06
8.0704e-06
-4.17864e-06
8.01068e-06
-4.75275e-06
7.65252e-06
-5.2396e-06
7.06119e-06
-5.64177e-06
6.29147e-06
-5.966e-06
5.38731e-06
-6.22063e-06
4.38276e-06
-6.41367e-06
3.30353e-06
-6.55136e-06
2.16891e-06
-6.63727e-06
9.93737e-07
-6.67163e-06
-2.09608e-07
-6.65095e-06
-1.42908e-06
-6.56795e-06
-2.65079e-06
-6.41187e-06
-3.85667e-06
-6.16928e-06
-5.02193e-06
-5.82557e-06
-6.11242e-06
-5.36756e-06
-7.08214e-06
-4.78712e-06
-7.87122e-06
-4.08611e-06
-8.40533e-06
-3.28228e-06
-8.59741e-06
-2.41518e-06
-8.35315e-06
-1.55071e-06
-7.58122e-06
-7.81878e-07
-6.20818e-06
-2.23768e-07
-4.1971e-06
-1.5716e-06
-2.11893e-07
1.67825e-06
-7.29443e-07
4.39766e-06
-1.42752e-06
6.42008e-06
-2.19688e-06
7.76791e-06
-2.95584e-06
8.51726e-06
-3.65148e-06
8.76603e-06
-4.25561e-06
8.61481e-06
-4.75877e-06
8.15568e-06
-5.16409e-06
7.46651e-06
-5.48207e-06
6.60944e-06
-5.72651e-06
5.63176e-06
-5.91168e-06
4.56792e-06
-6.05026e-06
3.44211e-06
-6.15207e-06
2.27072e-06
-6.22315e-06
1.06482e-06
-6.26516e-06
-1.67593e-07
-6.27497e-06
-1.41927e-06
-6.24438e-06
-2.68137e-06
-6.16024e-06
-3.9408e-06
-6.0049e-06
-5.17727e-06
-5.75745e-06
-6.35987e-06
-5.39619e-06
-7.4434e-06
-4.90251e-06
-8.36489e-06
-4.26685e-06
-9.04099e-06
-3.49645e-06
-9.36781e-06
-2.62438e-06
-9.22523e-06
-1.71771e-06
-8.48789e-06
-8.81931e-07
-7.04396e-06
-2.56988e-07
-4.82204e-06
-1.82859e-06
-2.43198e-07
1.92144e-06
-8.19614e-07
4.97407e-06
-1.56907e-06
7.16954e-06
-2.35888e-06
8.55773e-06
-3.09801e-06
9.25639e-06
-3.73501e-06
9.40303e-06
-4.24964e-06
9.12945e-06
-4.64318e-06
8.54922e-06
-4.92977e-06
7.75309e-06
-5.12975e-06
6.80943e-06
-5.26512e-06
5.76713e-06
-5.35656e-06
4.65936e-06
-5.42162e-06
3.50717e-06
-5.47371e-06
2.32281e-06
-5.5214e-06
1.11252e-06
-5.568e-06
-1.20992e-07
-5.61109e-06
-1.37619e-06
-5.64215e-06
-2.65032e-06
-5.64625e-06
-3.9367e-06
-5.6021e-06
-5.22142e-06
-5.48266e-06
-6.4793e-06
-5.25705e-06
-7.66902e-06
-4.89428e-06
-8.72766e-06
-4.36981e-06
-9.56547e-06
-3.67518e-06
-1.00624e-05
-2.83084e-06
-1.00696e-05
-1.89991e-06
-9.41881e-06
-9.98927e-07
-7.94495e-06
-2.98002e-07
-5.52296e-06
-2.12659e-06
-2.85601e-07
2.20705e-06
-9.34148e-07
5.62262e-06
-1.73507e-06
7.97046e-06
-2.52699e-06
9.34965e-06
-3.21186e-06
9.94126e-06
-3.74554e-06
9.9367e-06
-4.12194e-06
9.50585e-06
-4.35801e-06
8.78529e-06
-4.48211e-06
7.8772e-06
-4.52617e-06
6.85348e-06
-4.5209e-06
5.76186e-06
-4.49327e-06
4.63173e-06
-4.46528e-06
3.47918e-06
-4.45344e-06
2.31097e-06
-4.46857e-06
1.12765e-06
-4.51559e-06
-7.39656e-08
-4.59321e-06
-1.29857e-06
-4.69334e-06
-2.55018e-06
-4.80044e-06
-3.8296e-06
-4.89084e-06
-5.13103e-06
-4.93247e-06
-6.43767e-06
-4.88568e-06
-7.71581e-06
-4.70608e-06
-8.90726e-06
-4.35077e-06
-9.92078e-06
-3.78949e-06
-1.06237e-05
-3.02144e-06
-1.08376e-05
-2.09682e-06
-1.03434e-05
-1.13815e-06
-8.90361e-06
-3.50486e-07
-6.31063e-06
-2.47708e-06
-3.45718e-07
2.55276e-06
-1.0835e-06
6.3604e-06
-1.92991e-06
8.81688e-06
-2.69111e-06
1.01109e-05
-3.26929e-06
1.05194e-05
-3.63785e-06
1.03053e-05
-3.81369e-06
9.68169e-06
-3.83532e-06
8.80692e-06
-3.74827e-06
7.79015e-06
-3.59683e-06
6.70204e-06
-3.4199e-06
5.58494e-06
-3.24958e-06
4.46141e-06
-3.11094e-06
3.34054e-06
-3.02243e-06
2.22247e-06
-2.99634e-06
1.10155e-06
-3.03892e-06
-3.13837e-08
-3.15029e-06
-1.1872e-06
-3.32376e-06
-2.37671e-06
-3.54478e-06
-3.60858e-06
-3.78945e-06
-4.88635e-06
-4.02311e-06
-6.20402e-06
-4.19939e-06
-7.53952e-06
-4.2612e-06
-8.84546e-06
-4.14528e-06
-1.00367e-05
-3.79329e-06
-1.09757e-05
-3.17203e-06
-1.14589e-05
-2.30428e-06
-1.12112e-05
-1.30672e-06
-9.90117e-06
-4.2061e-07
-7.19674e-06
-2.89769e-06
-4.34549e-07
2.98731e-06
-1.28102e-06
7.20687e-06
-2.15212e-06
9.68798e-06
-2.82438e-06
1.07831e-05
-3.21667e-06
1.09117e-05
-3.33657e-06
1.04252e-05
-3.23538e-06
9.58051e-06
-2.9789e-06
8.55043e-06
-2.63128e-06
7.44254e-06
-2.248e-06
6.31875e-06
-1.87378e-06
5.21071e-06
-1.54312e-06
4.13075e-06
-1.28172e-06
3.07914e-06
-1.108e-06
2.04875e-06
-1.0343e-06
1.02785e-06
-1.06758e-06
1.90228e-09
-1.20952e-06
-1.04526e-06
-1.45582e-06
-2.1304e-06
-1.79491e-06
-3.26949e-06
-2.20572e-06
-4.47555e-06
-2.65487e-06
-5.75487e-06
-3.09366e-06
-7.10073e-06
-3.45594e-06
-8.48318e-06
-3.65913e-06
-9.8335e-06
-3.61237e-06
-1.10225e-05
-3.23744e-06
-1.18338e-05
-2.50854e-06
-1.19401e-05
-1.51277e-06
-1.08969e-05
-5.18702e-07
-8.19082e-06
-3.41639e-06
-5.70039e-07
3.55735e-06
-1.54001e-06
8.17684e-06
-2.38205e-06
1.053e-05
-2.86403e-06
1.12651e-05
-2.95394e-06
1.10016e-05
-2.71733e-06
1.01886e-05
-2.25205e-06
9.11523e-06
-1.65416e-06
7.95254e-06
-1.00418e-06
6.79256e-06
-3.64173e-07
5.67875e-06
2.2032e-07
4.62622e-06
7.16902e-07
3.63417e-06
1.10294e-06
2.69311e-06
1.3628e-06
1.78888e-06
1.48595e-06
9.04706e-07
1.46571e-06
2.21341e-08
1.29902e-06
-8.78571e-07
9.86847e-07
-1.81823e-06
5.35696e-07
-2.81834e-06
-3.97725e-08
-3.90008e-06
-7.12807e-07
-5.08184e-06
-1.43931e-06
-6.37422e-06
-2.1519e-06
-7.77059e-06
-2.75515e-06
-9.23025e-06
-3.12673e-06
-1.06509e-05
-3.13298e-06
-1.18276e-05
-2.67243e-06
-1.24006e-05
-1.76095e-06
-1.18084e-05
-6.614e-07
-9.29036e-06
-4.07779e-06
-7.78751e-07
4.3361e-06
-1.8605e-06
9.25859e-06
-2.55172e-06
1.12212e-05
-2.674e-06
1.13874e-05
-2.29938e-06
1.0627e-05
-1.57931e-06
9.46849e-06
-6.64985e-07
8.2009e-06
3.21987e-07
6.96557e-06
1.29391e-06
5.82064e-06
2.19158e-06
4.78109e-06
2.9767e-06
3.8411e-06
3.6252e-06
2.98567e-06
4.12202e-06
2.19629e-06
4.45747e-06
1.45343e-06
4.62486e-06
7.37313e-07
4.61908e-06
2.79174e-08
4.43602e-06
-6.95515e-07
4.07288e-06
-1.45508e-06
3.52935e-06
-2.27481e-06
2.8102e-06
-3.18093e-06
1.92961e-06
-4.20124e-06
9.1794e-07
-5.36256e-06
-1.68654e-07
-6.684e-06
-1.23641e-06
-8.16249e-06
-2.14343e-06
-9.74387e-06
-2.70049e-06
-1.12705e-05
-2.70427e-06
-1.23969e-05
-2.03613e-06
-1.24766e-05
-8.7184e-07
-1.04547e-05
-4.94963e-06
-1.08671e-06
5.42281e-06
-2.18362e-06
1.03555e-05
-2.47499e-06
1.15126e-05
-1.97513e-06
1.08875e-05
-9.35481e-07
9.58735e-06
3.89261e-07
8.14375e-06
1.80558e-06
6.78458e-06
3.18615e-06
5.585e-06
4.45506e-06
4.55172e-06
5.57073e-06
3.66542e-06
6.51248e-06
2.89935e-06
7.27134e-06
2.22681e-06
7.84412e-06
1.62351e-06
8.22976e-06
1.06779e-06
8.42711e-06
5.39957e-07
8.43369e-06
2.13385e-08
8.24505e-06
-5.06871e-07
7.85474e-06
-1.06477e-06
7.25499e-06
-1.67506e-06
6.43848e-06
-2.36442e-06
5.40187e-06
-3.16464e-06
4.15243e-06
-4.11312e-06
2.71928e-06
-5.25084e-06
1.17116e-06
-6.61436e-06
-3.5913e-07
-8.21359e-06
-1.65028e-06
-9.97934e-06
-2.391e-06
-1.16561e-05
-2.25329e-06
-1.26143e-05
-1.16624e-06
-1.15417e-05
-6.11587e-06
-1.46922e-06
6.89203e-06
-2.26052e-06
1.11468e-05
-1.69721e-06
1.09493e-05
-2.26628e-07
9.41693e-06
1.66314e-06
7.69759e-06
3.64322e-06
6.16366e-06
5.52572e-06
4.90208e-06
7.2186e-06
3.89212e-06
8.68596e-06
3.08436e-06
9.92103e-06
2.43035e-06
1.09302e-05
1.89018e-06
1.17244e-05
1.43264e-06
1.23143e-05
1.03353e-06
1.27086e-05
6.73556e-07
1.29119e-05
3.36618e-07
1.2925e-05
8.27946e-09
1.27437e-05
-3.256e-07
1.23591e-05
-6.8013e-07
1.17569e-05
-1.07292e-06
1.09184e-05
-1.52588e-06
9.82127e-06
-2.06753e-06
8.44404e-06
-2.73589e-06
6.77466e-06
-3.58147e-06
4.82881e-06
-4.66852e-06
2.68336e-06
-6.06813e-06
5.2911e-07
-7.82509e-06
-1.26601e-06
-9.86102e-06
-2.12773e-06
-1.17525e-05
-1.4958e-06
-1.21736e-05
-7.61167e-06
-1.68447e-06
8.57651e-06
-1.32039e-06
1.07827e-05
8.00184e-07
8.82873e-06
3.55096e-06
6.66615e-06
6.30117e-06
4.94738e-06
8.78529e-06
3.67954e-06
1.09198e-05
2.76758e-06
1.2704e-05
2.10795e-06
1.41687e-05
1.6196e-06
1.53522e-05
1.24683e-06
1.62899e-05
9.52495e-07
1.70109e-05
7.11648e-07
1.75375e-05
5.06992e-07
1.78851e-05
3.2596e-07
1.80629e-05
1.58767e-07
1.80741e-05
-2.9279e-09
1.79156e-05
-1.67094e-07
1.75777e-05
-3.4222e-07
1.70432e-05
-5.38459e-07
1.62864e-05
-7.69054e-07
1.52714e-05
-1.05253e-06
1.39516e-05
-1.41612e-06
1.22714e-05
-1.90127e-06
1.01748e-05
-2.57191e-06
7.63129e-06
-3.52459e-06
4.6962e-06
-4.89e-06
1.63262e-06
-6.79744e-06
-8.7546e-07
-9.24446e-06
-1.57636e-06
-1.14727e-05
-9.18804e-06
-4.83325e-07
9.05983e-06
2.87257e-06
7.42682e-06
7.14143e-06
4.55987e-06
1.09523e-05
2.85525e-06
1.40424e-05
1.85733e-06
1.64704e-05
1.25155e-06
1.83623e-05
8.75656e-07
1.98365e-05
6.33706e-07
2.09864e-05
4.69746e-07
2.18808e-05
3.52398e-07
2.25694e-05
2.63927e-07
2.30872e-05
1.9389e-07
2.34584e-05
1.35775e-07
2.36991e-05
8.52255e-08
2.38188e-05
3.90591e-08
2.38212e-05
-5.3256e-09
2.37045e-05
-5.03414e-08
2.34608e-05
-9.8574e-08
2.30755e-05
-1.53166e-07
2.25249e-05
-2.18396e-07
2.1773e-05
-3.0064e-07
2.0767e-05
-4.10151e-07
1.94303e-05
-5.6455e-07
1.76541e-05
-7.95751e-07
1.52926e-05
-1.16302e-06
1.21774e-05
-1.77485e-06
8.20467e-06
-2.82471e-06
3.62216e-06
-4.66195e-06
-1.5028e-07
-7.70029e-06
-9.33832e-06
9.05983e-06
1.64867e-05
2.10465e-05
2.39018e-05
2.57591e-05
2.70107e-05
2.78863e-05
2.852e-05
2.89898e-05
2.93422e-05
2.96061e-05
2.98e-05
2.99357e-05
3.0021e-05
3.006e-05
3.00547e-05
3.00044e-05
2.99058e-05
2.97526e-05
2.95342e-05
2.92336e-05
2.88234e-05
2.82589e-05
2.74631e-05
2.63001e-05
2.45253e-05
2.17006e-05
1.70386e-05
9.33832e-06
)
;

boundaryField
{
    movingWall
    {
        type            calculated;
        value           uniform 0;
    }
    fixedWalls
    {
        type            calculated;
        value           uniform 0;
    }
    frontAndBack
    {
        type            empty;
        value           nonuniform List<scalar> 0();
    }
}


// ************************************************************************* //
