/*--------------------------------*- C++ -*----------------------------------*\
  =========                 |
  \\      /  F ield         | OpenFOAM: The Open Source CFD Toolbox
   \\    /   O peration     | Website:  https://openfoam.org
    \\  /    A nd           | Version:  9
     \\/     M anipulation  |
\*---------------------------------------------------------------------------*/
FoamFile
{
    format      ascii;
    class       volVectorField;
    location    "0.5";
    object      U;
}
// * * * * * * * * * * * * * * * * * * * * * * * * * * * * * * * * * * * * * //

dimensions      [0 1 -1 0 0 0 0];

internalField   nonuniform List<vector> 
900
(
(0.000360996 -0.000360501 0)
(0.000679829 -0.000170427 0)
(3.62993e-05 0.000249236 0)
(-0.00169426 0.000645364 0)
(-0.00436904 0.000954735 0)
(-0.00774901 0.00116704 0)
(-0.0115834 0.0012887 0)
(-0.0156375 0.00133127 0)
(-0.0197002 0.0013062 0)
(-0.0235854 0.00122324 0)
(-0.0271296 0.00109038 0)
(-0.0301902 0.000914329 0)
(-0.0326447 0.000701206 0)
(-0.0343904 0.0004573 0)
(-0.035347 0.000189759 0)
(-0.0354594 -9.28484e-05 0)
(-0.0347023 -0.000380181 0)
(-0.033085 -0.000660014 0)
(-0.0306555 -0.000918429 0)
(-0.0275041 -0.00114029 0)
(-0.0237649 -0.00130999 0)
(-0.0196147 -0.00141245 0)
(-0.0152692 -0.00143411 0)
(-0.0109751 -0.00136413 0)
(-0.00699936 -0.00119551 0)
(-0.0036139 -0.000927151 0)
(-0.00107388 -0.000568381 0)
(0.000420144 -0.000149184 0)
(0.00081864 0.000248102 0)
(0.000375858 0.000372362 0)
(0.000188122 -0.000694468 0)
(-0.000516322 0.000539093 0)
(-0.00351402 0.00250564 0)
(-0.00884368 0.00439426 0)
(-0.0162116 0.00592855 0)
(-0.0251576 0.00701945 0)
(-0.035147 0.00765905 0)
(-0.045639 0.00787599 0)
(-0.0561221 0.00771138 0)
(-0.0661284 0.00720808 0)
(-0.0752387 0.00640718 0)
(-0.0830844 0.00534804 0)
(-0.0893492 0.00407002 0)
(-0.0937728 0.002615 0)
(-0.096156 0.00102995 0)
(-0.0963691 -0.000630948 0)
(-0.0943609 -0.0023051 0)
(-0.0901684 -0.00392149 0)
(-0.0839259 -0.00540199 0)
(-0.0758701 -0.00666428 0)
(-0.0663418 -0.00762604 0)
(-0.0557804 -0.0082104 0)
(-0.0447117 -0.00835223 0)
(-0.0337258 -0.00800519 0)
(-0.0234465 -0.00714971 0)
(-0.0144881 -0.00580451 0)
(-0.00739491 -0.00404629 0)
(-0.00255645 -0.0020446 0)
(-9.6328e-05 -0.000148136 0)
(0.000272026 0.000826397 0)
(-0.00022024 -8.87643e-05 0)
(-0.00250113 0.00352914 0)
(-0.00835006 0.00825602 0)
(-0.0174219 0.0127537 0)
(-0.0292142 0.0164514 0)
(-0.043111 0.019111 0)
(-0.0583884 0.0206714 0)
(-0.0742955 0.0211665 0)
(-0.0901068 0.020674 0)
(-0.105147 0.0192889 0)
(-0.118804 0.0171117 0)
(-0.130535 0.0142459 0)
(-0.139878 0.0107993 0)
(-0.14645 0.00688877 0)
(-0.149965 0.00264465 0)
(-0.150239 -0.00178498 0)
(-0.147206 -0.0062323 0)
(-0.140929 -0.0105104 0)
(-0.13161 -0.0144175 0)
(-0.119598 -0.0177439 0)
(-0.105388 -0.0202834 0)
(-0.089611 -0.0218473 0)
(-0.0730176 -0.0222808 0)
(-0.0564418 -0.0214814 0)
(-0.0407579 -0.019421 0)
(-0.0268184 -0.0161727 0)
(-0.0153703 -0.0119508 0)
(-0.00695198 -0.00716886 0)
(-0.00185366 -0.00255348 0)
(-7.80887e-05 0.000506153 0)
(-0.00063488 0.00163728 0)
(-0.00458235 0.00900592 0)
(-0.0134283 0.0174355 0)
(-0.0262815 0.0252487 0)
(-0.0423515 0.0316321 0)
(-0.0608576 0.0362053 0)
(-0.0809155 0.0388482 0)
(-0.101612 0.0395947 0)
(-0.12206 0.0385607 0)
(-0.141432 0.0359018 0)
(-0.158971 0.0317928 0)
(-0.174006 0.0264206 0)
(-0.185961 0.0199852 0)
(-0.194363 0.0127052 0)
(-0.198857 0.00482426 0)
(-0.19922 -0.00338265 0)
(-0.195369 -0.0116073 0)
(-0.187385 -0.0195097 0)
(-0.175517 -0.026726 0)
(-0.160194 -0.0328815 0)
(-0.142022 -0.0376106 0)
(-0.121772 -0.0405814 0)
(-0.100362 -0.041526 0)
(-0.0788088 -0.0402729 0)
(-0.0581838 -0.0367853 0)
(-0.0395366 -0.031204 0)
(-0.0238008 -0.023903 0)
(-0.0116886 -0.015557 0)
(-0.0037492 -0.00725192 0)
(-0.000443967 -0.000814021 0)
(-0.00100911 0.0044569 0)
(-0.00656628 0.0169659 0)
(-0.0183792 0.0299854 0)
(-0.0349588 0.0416839 0)
(-0.0551772 0.0511026 0)
(-0.0780657 0.0577676 0)
(-0.102582 0.0615214 0)
(-0.127669 0.0624085 0)
(-0.152313 0.0605896 0)
(-0.175568 0.0562888 0)
(-0.196568 0.0497654 0)
(-0.214544 0.0413029 0)
(-0.228836 0.0312091 0)
(-0.238901 0.0198223 0)
(-0.244331 0.00751999 0)
(-0.244862 -0.00527454 0)
(-0.240398 -0.0180889 0)
(-0.231019 -0.0304051 0)
(-0.217001 -0.041671 0)
(-0.198823 -0.0513199 0)
(-0.177166 -0.0588002 0)
(-0.152906 -0.0636122 0)
(-0.127087 -0.0653526 0)
(-0.100881 -0.0637641 0)
(-0.0755319 -0.0587894 0)
(-0.052281 -0.0506291 0)
(-0.0322644 -0.0398067 0)
(-0.0164084 -0.0272336 0)
(-0.00558449 -0.0142973 0)
(-0.00077421 -0.00313186 0)
(-0.00134106 0.00828189 0)
(-0.00841102 0.0273187 0)
(-0.0230842 0.0458365 0)
(-0.0432817 0.0619823 0)
(-0.0675178 0.0747469 0)
(-0.0946165 0.0836257 0)
(-0.123371 0.0884633 0)
(-0.152591 0.0893383 0)
(-0.181151 0.0864717 0)
(-0.208008 0.0801677 0)
(-0.232214 0.0707804 0)
(-0.252927 0.0587002 0)
(-0.269421 0.0443536 0)
(-0.281099 0.0282104 0)
(-0.287504 0.0107942 0)
(-0.288336 -0.00730903 0)
(-0.283471 -0.0254472 0)
(-0.272977 -0.0429064 0)
(-0.257134 -0.0589262 0)
(-0.236441 -0.0727253 0)
(-0.211628 -0.0835406 0)
(-0.183643 -0.0906774 0)
(-0.153637 -0.0935697 0)
(-0.122919 -0.0918471 0)
(-0.0929039 -0.085406 0)
(-0.0650392 -0.0744819 0)
(-0.0406923 -0.0597202 0)
(-0.0210456 -0.042234 0)
(-0.00733325 -0.0236628 0)
(-0.00106778 -0.0063774 0)
(-0.0016396 0.0130281 0)
(-0.0101271 0.0399407 0)
(-0.0275336 0.0648687 0)
(-0.05122 0.086026 0)
(-0.079342 0.102435 0)
(-0.110506 0.113627 0)
(-0.143335 0.119497 0)
(-0.176507 0.120189 0)
(-0.208796 0.116008 0)
(-0.239081 0.107355 0)
(-0.266347 0.0946888 0)
(-0.289696 0.078516 0)
(-0.308354 0.0593882 0)
(-0.321675 0.0379127 0)
(-0.32916 0.0147652 0)
(-0.330468 -0.00929917 0)
(-0.325438 -0.0334401 0)
(-0.314108 -0.0567365 0)
(-0.296734 -0.0782039 0)
(-0.273814 -0.0968257 0)
(-0.246096 -0.111602 0)
(-0.214578 -0.12161 0)
(-0.180498 -0.126086 0)
(-0.145298 -0.124507 0)
(-0.110572 -0.116683 0)
(-0.0779959 -0.102845 0)
(-0.0492034 -0.0837232 0)
(-0.0256745 -0.0605966 0)
(-0.00903821 -0.0353245 0)
(-0.00133904 -0.0104978 0)
(-0.001915 0.0186297 0)
(-0.0117415 0.0547135 0)
(-0.0317614 0.0869511 0)
(-0.0588074 0.113682 0)
(-0.090684 0.134031 0)
(-0.125776 0.147628 0)
(-0.162537 0.154468 0)
(-0.199516 0.154803 0)
(-0.235395 0.149051 0)
(-0.268985 0.137725 0)
(-0.299221 0.121404 0)
(-0.325164 0.100716 0)
(-0.346001 0.0763419 0)
(-0.361049 0.0490269 0)
(-0.369766 0.0195977 0)
(-0.371767 -0.0110213 0)
(-0.366838 -0.0418003 0)
(-0.354969 -0.0716058 0)
(-0.336371 -0.0992179 0)
(-0.311509 -0.123366 0)
(-0.281121 -0.142784 0)
(-0.246231 -0.156286 0)
(-0.208148 -0.162863 0)
(-0.168441 -0.161788 0)
(-0.128895 -0.152729 0)
(-0.0914391 -0.135861 0)
(-0.0580125 -0.111952 0)
(-0.0304358 -0.0824145 0)
(-0.0107696 -0.049313 0)
(-0.00160641 -0.0154791 0)
(-0.00217556 0.0250396 0)
(-0.0132811 0.071539 0)
(-0.0358106 0.111963 0)
(-0.0660938 0.144822 0)
(-0.101594 0.169401 0)
(-0.140476 0.185489 0)
(-0.181025 0.193237 0)
(-0.221666 0.193048 0)
(-0.260998 0.18548 0)
(-0.297779 0.171185 0)
(-0.330908 0.150875 0)
(-0.359418 0.125304 0)
(-0.38247 0.0952824 0)
(-0.399351 0.0616884 0)
(-0.409479 0.0254936 0)
(-0.412418 -0.0122167 0)
(-0.407894 -0.0502285 0)
(-0.395824 -0.0871967 0)
(-0.376349 -0.12166 0)
(-0.34987 -0.152076 0)
(-0.317084 -0.176885 0)
(-0.279009 -0.194593 0)
(-0.237005 -0.203889 0)
(-0.192758 -0.203775 0)
(-0.148253 -0.193709 0)
(-0.105695 -0.173741 0)
(-0.0673727 -0.144623 0)
(-0.0354949 -0.107865 0)
(-0.0126053 -0.0657356 0)
(-0.00188812 -0.0213505 0)
(-0.0024271 0.0322247 0)
(-0.0147672 0.0903385 0)
(-0.039719 0.139799 0)
(-0.0731244 0.179321 0)
(-0.112112 0.208408 0)
(-0.15463 0.227065 0)
(-0.198799 0.235655 0)
(-0.24293 0.234775 0)
(-0.28555 0.225164 0)
(-0.325378 0.207636 0)
(-0.361293 0.183047 0)
(-0.392319 0.152284 0)
(-0.417605 0.116283 0)
(-0.436417 0.0760461 0)
(-0.44814 0.0326761 0)
(-0.452284 -0.0125953 0)
(-0.448501 -0.0583838 0)
(-0.436619 -0.103141 0)
(-0.416681 -0.145165 0)
(-0.388987 -0.182629 0)
(-0.354154 -0.213648 0)
(-0.313159 -0.236374 0)
(-0.267378 -0.249126 0)
(-0.218597 -0.250557 0)
(-0.168997 -0.239821 0)
(-0.121087 -0.216758 0)
(-0.0775423 -0.182034 0)
(-0.0410215 -0.137219 0)
(-0.0146225 -0.0847828 0)
(-0.0022012 -0.0281841 0)
(-0.00267359 0.0401627 0)
(-0.016216 0.11105 0)
(-0.0435163 0.170362 0)
(-0.0799328 0.217054 0)
(-0.12226 0.2509 0)
(-0.168232 0.272182 0)
(-0.21581 0.281532 0)
(-0.263202 0.279794 0)
(-0.308879 0.267925 0)
(-0.35154 0.246928 0)
(-0.390067 0.217818 0)
(-0.423493 0.18162 0)
(-0.450975 0.139387 0)
(-0.471777 0.0922326 0)
(-0.485255 0.0413704 0)
(-0.490869 -0.0118448 0)
(-0.488192 -0.0658811 0)
(-0.476944 -0.119006 0)
(-0.457038 -0.169284 0)
(-0.42864 -0.214599 0)
(-0.392236 -0.252714 0)
(-0.348712 -0.281377 0)
(-0.299415 -0.298464 0)
(-0.246195 -0.302175 0)
(-0.191416 -0.291255 0)
(-0.137903 -0.265219 0)
(-0.0887661 -0.224555 0)
(-0.0471805 -0.170835 0)
(-0.0168967 -0.106727 0)
(-0.00256185 -0.0360932 0)
(-0.00291799 0.0488383 0)
(-0.0176406 0.133623 0)
(-0.0472275 0.203563 0)
(-0.0865444 0.257888 0)
(-0.132045 0.296698 0)
(-0.181246 0.32062 0)
(-0.231956 0.330616 0)
(-0.282295 0.327835 0)
(-0.330699 0.313497 0)
(-0.375871 0.28882 0)
(-0.416722 0.254998 0)
(-0.452324 0.213193 0)
(-0.481868 0.16457 0)
(-0.504633 0.110332 0)
(-0.519971 0.0517771 0)
(-0.527296 -0.00964794 0)
(-0.5261 -0.072297 0)
(-0.515982 -0.134284 0)
(-0.496699 -0.19346 0)
(-0.468238 -0.247425 0)
(-0.430902 -0.293575 0)
(-0.38542 -0.329202 0)
(-0.333042 -0.351658 0)
(-0.27563 -0.358578 0)
(-0.215695 -0.348155 0)
(-0.156378 -0.319437 0)
(-0.101264 -0.272607 0)
(-0.0541282 -0.209154 0)
(-0.0195014 -0.13192 0)
(-0.00298615 -0.0452306 0)
(-0.00316337 0.0582433 0)
(-0.0190558 0.158022 0)
(-0.0508808 0.23932 0)
(-0.0929864 0.301679 0)
(-0.141465 0.345589 0)
(-0.193611 0.372096 0)
(-0.247089 0.382569 0)
(-0.299944 0.378523 0)
(-0.350605 0.36149 0)
(-0.397813 0.332942 0)
(-0.440544 0.294264 0)
(-0.477942 0.246762 0)
(-0.509266 0.191696 0)
(-0.533847 0.130338 0)
(-0.551049 0.0640381 0)
(-0.560263 -0.00570808 0)
(-0.560907 -0.0771847 0)
(-0.552453 -0.148395 0)
(-0.534477 -0.217018 0)
(-0.506744 -0.280389 0)
(-0.469312 -0.33553 0)
(-0.422675 -0.379242 0)
(-0.367898 -0.408268 0)
(-0.306766 -0.419549 0)
(-0.241876 -0.410558 0)
(-0.176663 -0.379688 0)
(-0.115219 -0.326637 0)
(-0.0620108 -0.252681 0)
(-0.0225097 -0.160788 0)
(-0.0034909 -0.0557881 0)
(-0.00341429 0.0683776 0)
(-0.0204832 0.184224 0)
(-0.0545188 0.277556 0)
(-0.0993025 0.348265 0)
(-0.150532 0.39731 0)
(-0.205264 0.426244 0)
(-0.261025 0.436932 0)
(-0.315812 0.431334 0)
(-0.368082 0.41135 0)
(-0.416653 0.378744 0)
(-0.46061 0.335114 0)
(-0.499217 0.281907 0)
(-0.531846 0.220468 0)
(-0.557913 0.152111 0)
(-0.576838 0.078194 0)
(-0.588015 0.000214577 0)
(-0.590805 -0.0801 0)
(-0.584557 -0.160704 0)
(-0.568653 -0.239159 0)
(-0.542595 -0.312582 0)
(-0.506132 -0.377641 0)
(-0.459426 -0.430622 0)
(-0.403247 -0.467582 0)
(-0.339181 -0.48463 0)
(-0.26981 -0.478319 0)
(-0.198801 -0.446144 0)
(-0.130767 -0.387073 0)
(-0.0709626 -0.30197 0)
(-0.0259963 -0.193824 0)
(-0.00409457 -0.0679969 0)
(-0.00367864 0.0792555 0)
(-0.0219598 0.212235 0)
(-0.0582144 0.318211 0)
(-0.105575 0.39747 0)
(-0.159286 0.451535 0)
(-0.21615 0.482587 0)
(-0.273561 0.493096 0)
(-0.329502 0.485556 0)
(-0.382502 0.462307 0)
(-0.431512 0.425448 0)
(-0.475783 0.376809 0)
(-0.514752 0.317981 0)
(-0.547956 0.250378 0)
(-0.574952 0.175321 0)
(-0.595259 0.0941339 0)
(-0.608313 0.00825731 0)
(-0.613453 -0.0806402 0)
(-0.609923 -0.170542 0)
(-0.596907 -0.258972 0)
(-0.573619 -0.342902 0)
(-0.539432 -0.418696 0)
(-0.494076 -0.482132 0)
(-0.437884 -0.528529 0)
(-0.372087 -0.553021 0)
(-0.299091 -0.551011 0)
(-0.222687 -0.518792 0)
(-0.147981 -0.454267 0)
(-0.0811052 -0.357589 0)
(-0.0300403 -0.231584 0)
(-0.00481867 -0.0821299 0)
(-0.00397044 0.0909156 0)
(-0.0235486 0.242108 0)
(-0.0620918 0.361256 0)
(-0.111948 0.449101 0)
(-0.167826 0.507867 0)
(-0.226241 0.540513 0)
(-0.284479 0.550257 0)
(-0.34055 0.540242 0)
(-0.393119 0.513328 0)
(-0.441341 0.471994 0)
(-0.484697 0.418325 0)
(-0.522868 0.354054 0)
(-0.555617 0.280646 0)
(-0.582699 0.199394 0)
(-0.603789 0.11154 0)
(-0.618421 0.0184005 0)
(-0.625957 -0.0784937 0)
(-0.625571 -0.177249 0)
(-0.616269 -0.275457 0)
(-0.596964 -0.37005 0)
(-0.566601 -0.45718 0)
(-0.524374 -0.532173 0)
(-0.470027 -0.589586 0)
(-0.404225 -0.623462 0)
(-0.328981 -0.627803 0)
(-0.248022 -0.59733 0)
(-0.166852 -0.528423 0)
(-0.0925463 -0.42009 0)
(-0.0347299 -0.274679 0)
(-0.00568973 -0.098506 0)
(-0.00431389 0.103439 0)
(-0.0253545 0.273972 0)
(-0.0663532 0.406715 0)
(-0.118661 0.502954 0)
(-0.176326 0.565808 0)
(-0.235551 0.599229 0)
(-0.293542 0.607368 0)
(-0.348411 0.594154 0)
(-0.399044 0.563057 0)
(-0.444884 0.516985 0)
(-0.485732 0.458297 0)
(-0.521583 0.388864 0)
(-0.552498 0.310177 0)
(-0.578496 0.223465 0)
(-0.599468 0.129833 0)
(-0.615111 0.0304089 0)
(-0.624868 -0.0735011 0)
(-0.627901 -0.180234 0)
(-0.623082 -0.287577 0)
(-0.609035 -0.392563 0)
(-0.584253 -0.491278 0)
(-0.547308 -0.578705 0)
(-0.497183 -0.64869 0)
(-0.43374 -0.694105 0)
(-0.358301 -0.707311 0)
(-0.274237 -0.681013 0)
(-0.187258 -0.609486 0)
(-0.105379 -0.489946 0)
(-0.0401694 -0.323764 0)
(-0.00674273 -0.117498 0)
(-0.00475018 0.116976 0)
(-0.0275472 0.30808 0)
(-0.0713146 0.454695 0)
(-0.126078 0.558808 0)
(-0.185054 0.624731 0)
(-0.244117 0.65771 0)
(-0.30046 0.663068 0)
(-0.352403 0.64569 0)
(-0.399174 0.609748 0)
(-0.440618 0.558631 0)
(-0.476951 0.494975 0)
(-0.508567 0.420775 0)
(-0.535895 0.337518 0)
(-0.559282 0.246328 0)
(-0.578903 0.148125 0)
(-0.594678 0.0437765 0)
(-0.606208 -0.0657197 0)
(-0.612715 -0.179044 0)
(-0.613006 -0.294324 0)
(-0.605474 -0.408871 0)
(-0.588172 -0.518896 0)
(-0.558995 -0.619235 0)
(-0.516018 -0.703158 0)
(-0.458033 -0.762377 0)
(-0.385298 -0.787412 0)
(-0.300406 -0.768481 0)
(-0.208921 -0.696997 0)
(-0.119679 -0.567487 0)
(-0.0464935 -0.379535 0)
(-0.00802725 -0.139546 0)
(-0.00534885 0.131795 0)
(-0.0303955 0.344872 0)
(-0.0774501 0.505419 0)
(-0.134713 0.616408 0)
(-0.194358 0.683813 0)
(-0.251948 0.714604 0)
(-0.304793 0.715589 0)
(-0.351587 0.692798 0)
(-0.392066 0.651204 0)
(-0.426619 0.594698 0)
(-0.455988 0.526187 0)
(-0.48105 0.447755 0)
(-0.502668 0.360844 0)
(-0.521572 0.26643 0)
(-0.538273 0.165193 0)
(-0.55298 0.0576862 0)
(-0.565523 -0.0554834 0)
(-0.575274 -0.173446 0)
(-0.581073 -0.294817 0)
(-0.58118 -0.417385 0)
(-0.57328 -0.537737 0)
(-0.554603 -0.650838 0)
(-0.522214 -0.74964 0)
(-0.473579 -0.824845 0)
(-0.407459 -0.865044 0)
(-0.325099 -0.857508 0)
(-0.231339 -0.789891 0)
(-0.135506 -0.652782 0)
(-0.0538903 -0.442714 0)
(-0.00961901 -0.165185 0)
(-0.00622812 0.148345 0)
(-0.0343207 0.385066 0)
(-0.0854453 0.559247 0)
(-0.145242 0.6754 0)
(-0.2046 0.741916 0)
(-0.25888 0.768093 0)
(-0.305747 0.762619 0)
(-0.344527 0.732872 0)
(-0.375689 0.684697 0)
(-0.400334 0.622477 0)
(-0.419848 0.549339 0)
(-0.435668 0.467397 0)
(-0.449134 0.377989 0)
(-0.461395 0.281891 0)
(-0.473329 0.179498 0)
(-0.485478 0.0710005 0)
(-0.497963 -0.0434425 0)
(-0.510401 -0.163499 0)
(-0.521785 -0.288409 0)
(-0.530387 -0.41664 0)
(-0.533671 -0.545436 0)
(-0.528301 -0.670256 0)
(-0.510334 -0.784139 0)
(-0.47572 -0.877122 0)
(-0.421272 -0.935983 0)
(-0.346171 -0.944713 0)
(-0.253668 -0.886214 0)
(-0.152886 -0.745476 0)
(-0.0626419 -0.514034 0)
(-0.0116419 -0.195095 0)
(-0.00759222 0.167381 0)
(-0.0399799 0.429763 0)
(-0.0962512 0.616656 0)
(-0.158444 0.73519 0)
(-0.215964 0.797367 0)
(-0.264266 0.815664 0)
(-0.301788 0.801114 0)
(-0.328873 0.762622 0)
(-0.347008 0.70691 0)
(-0.358201 0.638773 0)
(-0.364587 0.561451 0)
(-0.368206 0.476984 0)
(-0.370889 0.386526 0)
(-0.374193 0.290591 0)
(-0.379359 0.189251 0)
(-0.387268 0.0823052 0)
(-0.398376 -0.0305644 0)
(-0.412619 -0.149615 0)
(-0.429277 -0.274804 0)
(-0.446817 -0.405454 0)
(-0.462702 -0.539758 0)
(-0.473264 -0.674091 0)
(-0.473702 -0.802128 0)
(-0.45841 -0.913841 0)
(-0.421884 -0.994639 0)
(-0.360429 -1.02519 0)
(-0.274498 -0.982708 0)
(-0.171771 -0.84451 0)
(-0.073189 -0.594207 0)
(-0.0143097 -0.230185 0)
(-0.00980076 0.190145 0)
(-0.0483928 0.480576 0)
(-0.111106 0.678126 0)
(-0.175002 0.794631 0)
(-0.228017 0.847587 0)
(-0.266364 0.853774 0)
(-0.289942 0.827055 0)
(-0.300643 0.777941 0)
(-0.301321 0.713907 0)
(-0.295068 0.639967 0)
(-0.284828 0.559278 0)
(-0.273231 0.473652 0)
(-0.262541 0.383945 0)
(-0.254657 0.290344 0)
(-0.251121 0.192569 0)
(-0.25311 0.0900255 0)
(-0.261408 -0.0180715 0)
(-0.276319 -0.132562 0)
(-0.297528 -0.254155 0)
(-0.323896 -0.383133 0)
(-0.353187 -0.518877 0)
(-0.381759 -0.659114 0)
(-0.404321 -0.798822 0)
(-0.413935 -0.928777 0)
(-0.402638 -1.03392 0)
(-0.363094 -1.09208 0)
(-0.291437 -1.07424 0)
(-0.191886 -0.947663 0)
(-0.086219 -0.683834 0)
(-0.0180022 -0.271766 0)
(-0.0134957 0.218704 0)
(-0.0611183 0.53971 0)
(-0.131424 0.743767 0)
(-0.194949 0.851397 0)
(-0.238779 0.888447 0)
(-0.261184 0.877353 0)
(-0.264584 0.835154 0)
(-0.253092 0.773812 0)
(-0.231263 0.701201 0)
(-0.20337 0.622192 0)
(-0.173118 0.53956 0)
(-0.143604 0.454671 0)
(-0.117378 0.367949 0)
(-0.096526 0.279184 0)
(-0.0827546 0.187732 0)
(-0.0774344 0.0926353 0)
(-0.0816095 -0.00729797 0)
(-0.095947 -0.113418 0)
(-0.120614 -0.227125 0)
(-0.155057 -0.349662 0)
(-0.197668 -0.48172 0)
(-0.245325 -0.62273 0)
(-0.292857 -0.769666 0)
(-0.332598 -0.915209 0)
(-0.354429 -1.04526 0)
(-0.346942 -1.13617 0)
(-0.300301 -1.15296 0)
(-0.21233 -1.05074 0)
(-0.102742 -0.783154 0)
(-0.0233939 -0.321839 0)
(-0.019816 0.256497 0)
(-0.0804303 0.609848 0)
(-0.158261 0.812419 0)
(-0.2163 0.900828 0)
(-0.242817 0.913292 0)
(-0.240416 0.879188 0)
(-0.21548 0.818624 0)
(-0.175013 0.744381 0)
(-0.125437 0.664037 0)
(-0.0720858 0.581742 0)
(-0.0191743 0.499482 0)
(0.0300227 0.417918 0)
(0.072952 0.3369 0)
(0.107586 0.255774 0)
(0.132268 0.173548 0)
(0.14561 0.0889673 0)
(0.146432 0.0005459 0)
(0.133779 -0.0934309 0)
(0.106993 -0.194889 0)
(0.0659111 -0.305882 0)
(0.0112037 -0.428355 0)
(-0.0550801 -0.563592 0)
(-0.128727 -0.71111 0)
(-0.202403 -0.86667 0)
(-0.264845 -1.01906 0)
(-0.300924 -1.14561 0)
(-0.293589 -1.20727 0)
(-0.230549 -1.14614 0)
(-0.123982 -0.89134 0)
(-0.0316268 -0.383532 0)
(-0.0306581 0.309128 0)
(-0.109156 0.693361 0)
(-0.190543 0.879691 0)
(-0.231883 0.933985 0)
(-0.227527 0.911656 0)
(-0.18789 0.849423 0)
(-0.124807 0.769306 0)
(-0.0484531 0.683498 0)
(0.0332058 0.598141 0)
(0.114324 0.515887 0)
(0.190748 0.43747 0)
(0.259533 0.362603 0)
(0.318542 0.29047 0)
(0.366149 0.219971 0)
(0.401019 0.149828 0)
(0.421966 0.0786055 0)
(0.427859 0.0046838 0)
(0.417588 -0.0738065 0)
(0.390084 -0.159055 0)
(0.344444 -0.253623 0)
(0.280197 -0.36041 0)
(0.197822 -0.482374 0)
(0.0996365 -0.621756 0)
(-0.0088383 -0.778315 0)
(-0.117113 -0.945855 0)
(-0.208079 -1.10626 0)
(-0.257648 -1.22075 0)
(-0.239843 -1.22064 0)
(-0.150455 -1.00474 0)
(-0.0443359 -0.461496 0)
(-0.0484998 0.385573 0)
(-0.148755 0.789766 0)
(-0.219802 0.933961 0)
(-0.222294 0.934718 0)
(-0.166323 0.868072 0)
(-0.0740617 0.7758 0)
(0.0367732 0.678778 0)
(0.153774 0.586203 0)
(0.268724 0.50126 0)
(0.376466 0.42429 0)
(0.473868 0.354411 0)
(0.559031 0.290285 0)
(0.630749 0.230455 0)
(0.688171 0.173473 0)
(0.730562 0.117908 0)
(0.757163 0.0623055 0)
(0.767081 0.00510686 0)
(0.759229 -0.055463 0)
(0.732288 -0.121532 0)
(0.684729 -0.195745 0)
(0.61494 -0.281417 0)
(0.521564 -0.382597 0)
(0.404244 -0.503812 0)
(0.265057 -0.648997 0)
(0.110966 -0.818617 0)
(-0.0426061 -1.00327 0)
(-0.1677 -1.17158 0)
(-0.223706 -1.25205 0)
(-0.178371 -1.11328 0)
(-0.062654 -0.562411 0)
(-0.0737781 0.500877 0)
(-0.191344 0.88879 0)
(-0.216111 0.947764 0)
(-0.141309 0.874858 0)
(-0.00733688 0.761255 0)
(0.151249 0.645251 0)
(0.313973 0.540924 0)
(0.469497 0.451391 0)
(0.612015 0.375507 0)
(0.738936 0.310897 0)
(0.849362 0.255098 0)
(0.943181 0.205927 0)
(1.02057 0.161534 0)
(1.08172 0.120358 0)
(1.12668 0.0810309 0)
(1.15525 0.0422785 0)
(1.16693 0.00280841 0)
(1.1608 -0.038816 0)
(1.13553 -0.0843396 0)
(1.08921 -0.136022 0)
(1.01935 -0.196912 0)
(0.922938 -0.271188 0)
(0.796698 -0.364461 0)
(0.638107 -0.483743 0)
(0.447676 -0.636161 0)
(0.233701 -0.824135 0)
(0.0200887 -1.03274 0)
(-0.144524 -1.20426 0)
(-0.18976 -1.19325 0)
(-0.0825366 -0.69624 0)
(-0.091173 0.671511 0)
(-0.193246 0.950095 0)
(-0.0946228 0.864391 0)
(0.110663 0.712122 0)
(0.342016 0.568683 0)
(0.56526 0.450576 0)
(0.767497 0.35821 0)
(0.944638 0.286791 0)
(1.09683 0.230966 0)
(1.22593 0.186377 0)
(1.33411 0.149777 0)
(1.42338 0.118809 0)
(1.49534 0.0917405 0)
(1.55118 0.0672691 0)
(1.59166 0.0443577 0)
(1.61709 0.0221132 0)
(1.62736 -0.000320531 0)
(1.62186 -0.0238676 0)
(1.59942 -0.0496538 0)
(1.55817 -0.0791811 0)
(1.49529 -0.114596 0)
(1.40683 -0.159107 0)
(1.28736 -0.217617 0)
(1.13001 -0.297587 0)
(0.92741 -0.409814 0)
(0.675259 -0.567454 0)
(0.380187 -0.778638 0)
(0.0770737 -1.02353 0)
(-0.12878 -1.18747 0)
(-0.0775234 -0.861616 0)
(0.0101973 0.815317 0)
(0.0266305 0.852601 0)
(0.359464 0.615926 0)
(0.722706 0.430592 0)
(1.02418 0.304795 0)
(1.26709 0.219826 0)
(1.46295 0.162427 0)
(1.62074 0.12299 0)
(1.74808 0.0949449 0)
(1.85109 0.0741378 0)
(1.93431 0.0580003 0)
(2.00097 0.0449194 0)
(2.05337 0.0338489 0)
(2.09307 0.0240777 0)
(2.12109 0.0150892 0)
(2.13797 0.00647022 0)
(2.14383 -0.00215339 0)
(2.13836 -0.0111757 0)
(2.12075 -0.0210724 0)
(2.08957 -0.0324955 0)
(2.0425 -0.046424 0)
(1.97595 -0.0644363 0)
(1.88437 -0.0892256 0)
(1.75929 -0.125589 0)
(1.58814 -0.182234 0)
(1.35371 -0.274528 0)
(1.03298 -0.42683 0)
(0.6074 -0.667133 0)
(0.174445 -0.967871 0)
(0.0770731 -0.930328 0)
(0.886962 0.431535 0)
(1.15962 0.378517 0)
(1.62531 0.230007 0)
(1.97395 0.136114 0)
(2.18833 0.0829058 0)
(2.32886 0.0522621 0)
(2.42821 0.0343901 0)
(2.50116 0.0237089 0)
(2.55617 0.0170101 0)
(2.5985 0.0125342 0)
(2.6314 0.00933391 0)
(2.6569 0.00688955 0)
(2.67629 0.00490456 0)
(2.69042 0.0032 0)
(2.69981 0.00165893 0)
(2.70474 0.000195951 0)
(2.70531 -0.0012613 0)
(2.70142 -0.00278781 0)
(2.69275 -0.00447257 0)
(2.67872 -0.00644188 0)
(2.65833 -0.00889613 0)
(2.62995 -0.0121846 0)
(2.59084 -0.0169695 0)
(2.53623 -0.0245983 0)
(2.45759 -0.0379431 0)
(2.339 -0.0632078 0)
(2.1451 -0.113457 0)
(1.79812 -0.213469 0)
(1.28212 -0.383519 0)
(0.943183 -0.45238 0)
)
;

boundaryField
{
    movingWall
    {
        type            fixedValue;
        value           uniform (3 0 0);
    }
    fixedWalls
    {
        type            noSlip;
    }
    frontAndBack
    {
        type            empty;
    }
}


// ************************************************************************* //
