/*--------------------------------*- C++ -*----------------------------------*\
  =========                 |
  \\      /  F ield         | OpenFOAM: The Open Source CFD Toolbox
   \\    /   O peration     | Website:  https://openfoam.org
    \\  /    A nd           | Version:  9
     \\/     M anipulation  |
\*---------------------------------------------------------------------------*/
FoamFile
{
    format      ascii;
    class       volScalarField;
    location    "25";
    object      k;
}
// * * * * * * * * * * * * * * * * * * * * * * * * * * * * * * * * * * * * * //

dimensions      [0 2 -2 0 0 0 0];

internalField   nonuniform List<scalar> 
12225
(
0.362834
0.344007
0.327837
0.309909
0.295864
0.283653
0.276347
0.271013
0.271368
0.272991
0.278204
0.283438
0.294784
0.303909
0.32365
0.341163
0.375289
0.386392
0.440328
0.468829
0.462116
0.449439
0.451581
0.460056
0.477669
0.50039
0.530079
0.555963
0.590947
0.61382
0.652385
0.676118
0.722069
0.752322
0.819485
0.85773
0.39042
0.417806
0.420379
0.417102
0.412074
0.408474
0.408837
0.411022
0.416377
0.422638
0.434152
0.442938
0.460203
0.474227
0.50748
0.535517
0.592559
0.635465
0.377057
0.387117
0.391501
0.391411
0.390375
0.388086
0.386
0.384467
0.383493
0.383551
0.384256
0.385614
0.389043
0.39577
0.415821
0.442771
0.479664
0.522367
0.374437
0.376071
0.378425
0.378676
0.378291
0.377234
0.375565
0.373904
0.372213
0.370735
0.369141
0.367778
0.367692
0.371804
0.385212
0.410238
0.438642
0.477259
0.373783
0.372695
0.372645
0.37235
0.371762
0.370794
0.369537
0.368106
0.366661
0.365033
0.36323
0.360889
0.360074
0.363231
0.373678
0.396426
0.421506
0.457166
0.373776
0.371739
0.370378
0.369256
0.36822
0.367072
0.365871
0.364538
0.363275
0.36177
0.360066
0.357632
0.356648
0.359031
0.367677
0.388355
0.411245
0.445154
0.373817
0.371565
0.369628
0.367955
0.366478
0.365062
0.363718
0.362363
0.361103
0.359712
0.358051
0.355953
0.354384
0.356284
0.363424
0.382267
0.403
0.435478
0.373826
0.371566
0.36944
0.367517
0.365745
0.364117
0.362573
0.361148
0.359774
0.35844
0.356795
0.354794
0.35309
0.354496
0.360186
0.3771
0.39564
0.426355
0.373823
0.371578
0.369405
0.367409
0.365491
0.363749
0.362053
0.360554
0.359064
0.357717
0.356058
0.354066
0.352283
0.353324
0.357696
0.372561
0.38903
0.417617
0.373819
0.371581
0.369396
0.36739
0.365419
0.363632
0.361858
0.360308
0.358745
0.357363
0.355677
0.353662
0.351808
0.352608
0.355931
0.36891
0.383432
0.409575
0.37382
0.371577
0.369393
0.367383
0.365404
0.363599
0.361805
0.360227
0.358637
0.357232
0.355534
0.353499
0.351595
0.352256
0.354816
0.36625
0.379105
0.4029
0.373822
0.371568
0.369395
0.367373
0.365408
0.363582
0.361799
0.360188
0.358606
0.35718
0.355513
0.35348
0.351512
0.351973
0.353685
0.36343
0.374569
0.395762
0.373827
0.371557
0.369401
0.367357
0.36542
0.36356
0.361818
0.360145
0.358626
0.357112
0.355601
0.353585
0.351536
0.351729
0.352545
0.360329
0.369647
0.387819
0.373828
0.371551
0.369404
0.367347
0.365424
0.363552
0.361823
0.360133
0.358607
0.357126
0.355556
0.353828
0.351623
0.351518
0.351495
0.357349
0.364844
0.37997
0.373818
0.371567
0.369386
0.367369
0.365398
0.363585
0.361789
0.360172
0.358559
0.357144
0.3556
0.353969
0.351695
0.351351
0.350648
0.354791
0.360643
0.372952
0.373813
0.371571
0.36938
0.367372
0.365392
0.363586
0.36179
0.360169
0.358563
0.357142
0.35564
0.35404
0.351738
0.35103
0.350186
0.353252
0.35795
0.36806
0.373817
0.371565
0.369381
0.367365
0.365397
0.363572
0.361815
0.360123
0.35863
0.357087
0.355717
0.354067
0.352174
0.350263
0.349611
0.352269
0.356306
0.365084
0.373833
0.37154
0.369393
0.367344
0.365398
0.363581
0.361792
0.360169
0.358581
0.357155
0.355658
0.354367
0.352163
0.351179
0.349671
0.351062
0.353606
0.360383
0.373835
0.371536
0.369399
0.367343
0.365406
0.363582
0.361798
0.360182
0.358587
0.357173
0.35566
0.354384
0.352181
0.351155
0.349502
0.350307
0.352154
0.357293
0.373833
0.37154
0.369395
0.367353
0.365399
0.363597
0.361798
0.360201
0.358599
0.35719
0.355672
0.354389
0.35219
0.351143
0.349481
0.350185
0.351952
0.356591
0.373834
0.371538
0.369401
0.367351
0.365414
0.363594
0.36182
0.360217
0.358624
0.357225
0.355697
0.354403
0.352199
0.351219
0.349614
0.350478
0.352734
0.358229
0.373829
0.371547
0.369402
0.36736
0.365436
0.363615
0.36189
0.360286
0.358725
0.357382
0.355829
0.354514
0.352353
0.351477
0.350046
0.351528
0.355072
0.362834
0.373824
0.371556
0.369404
0.367433
0.36555
0.36385
0.362182
0.36073
0.359172
0.358024
0.356395
0.355075
0.353209
0.35148
0.350823
0.353558
0.359206
0.370227
0.373817
0.371562
0.36959
0.36791
0.36632
0.364929
0.36349
0.362196
0.360782
0.359599
0.358135
0.356607
0.35429
0.353465
0.352889
0.357089
0.365387
0.380047
0.373778
0.371992
0.371099
0.370276
0.369338
0.368355
0.36706
0.36572
0.364195
0.362801
0.361144
0.359352
0.356747
0.356001
0.355961
0.362071
0.373744
0.392022
0.374303
0.37557
0.377782
0.377878
0.377334
0.376
0.37394
0.371826
0.369717
0.367806
0.365831
0.363928
0.361625
0.361158
0.362327
0.370947
0.38674
0.408363
0.37875
0.394419
0.398386
0.39673
0.392884
0.388036
0.384058
0.380876
0.378701
0.37722
0.376621
0.376797
0.377406
0.378825
0.383488
0.396231
0.417254
0.442423
0.408443
0.427471
0.422562
0.411436
0.402921
0.398231
0.398778
0.401033
0.405607
0.412504
0.419769
0.428917
0.436441
0.446403
0.459079
0.475816
0.501799
0.528205
0.366027
0.353476
0.341974
0.330309
0.319082
0.30871
0.299599
0.292073
0.285631
0.280895
0.277013
0.274051
0.271229
0.270183
0.271326
0.277363
0.296181
0.315798
0.045092
0.0709058
0.0887589
0.103732
0.119604
0.13429
0.143327
0.138917
0.139646
0.178776
0.220335
0.258495
0.290638
0.318337
0.342686
0.364556
0.384053
0.402253
0.41854
0.434283
0.448408
0.462502
0.475163
0.488179
0.499905
0.512236
0.523431
0.535385
0.546438
0.558359
0.569314
0.580099
0.589017
0.600495
0.609623
0.609001
0.627389
0.641438
0.643958
0.645785
0.644514
0.636348
0.650702
0.649473
0.635513
0.644054
0.652384
0.649833
0.644816
0.639186
0.63196
0.610902
0.617826
0.597998
0.608349
0.58442
0.583368
0.57677
0.579331
0.556107
0.567338
0.558454
0.53258
0.530053
0.522141
0.521701
0.49564
0.495074
0.486484
0.480594
0.474735
0.467726
0.462364
0.45485
0.449543
0.44203
0.437081
0.430572
0.425465
0.419997
0.412767
0.405102
0.398533
0.390318
0.383831
0.374371
0.365206
0.356273
0.349778
0.343734
0.337701
0.332858
0.329481
0.326706
0.322405
0.316084
0.307091
0.295713
0.282227
0.267356
0.251938
0.23673
0.222629
0.20987
0.199684
0.191878
0.185342
0.181071
0.176713
0.174408
0.171712
0.171835
0.169601
0.169383
0.168968
0.169525
0.169969
0.171007
0.171761
0.173025
0.173817
0.177682
0.183953
0.181254
0.180717
0.184517
0.182445
0.18347
0.184415
0.1861
0.187274
0.193073
0.191356
0.19611
0.201984
0.205256
0.209993
0.20622
0.209272
0.212454
0.208158
0.207785
0.207415
0.210572
0.214985
0.211983
0.21274
0.213513
0.214173
0.220715
0.22717
0.234531
0.230884
0.229908
0.230114
0.234897
0.231758
0.235734
0.233217
0.237594
0.235023
0.235598
0.235964
0.236442
0.237949
0.238907
0.239771
0.241683
0.248016
0.246443
0.251788
0.250496
0.250279
0.255033
0.253095
0.256096
0.251347
0.249526
0.247459
0.241248
0.10975
0.149823
0.177741
0.202463
0.228295
0.258664
0.292614
0.326097
0.364141
0.396763
0.423181
0.448083
0.472151
0.496025
0.519891
0.544256
0.568906
0.59408
0.619392
0.645054
0.670651
0.696415
0.721949
0.747509
0.772749
0.797937
0.822727
0.847339
0.871431
0.895154
0.918169
0.940557
0.962045
0.982751
1.00233
1.02084
1.03902
1.05583
1.07132
1.08584
1.09941
1.11227
1.1254
1.13653
1.1464
1.15365
1.16266
1.16551
1.16633
1.1628
1.15218
1.14985
1.14743
1.14265
1.13846
1.13198
1.1254
1.11847
1.11143
1.10244
1.09439
1.08334
1.07128
1.06058
1.05005
1.03906
1.02656
1.01599
1.00506
0.99411
0.983198
0.972111
0.961136
0.949839
0.938622
0.92714
0.91589
0.904398
0.893155
0.881762
0.869858
0.857611
0.845059
0.832592
0.819466
0.804636
0.788963
0.772985
0.756875
0.740531
0.723853
0.707122
0.690572
0.674242
0.65832
0.642213
0.623878
0.603279
0.579823
0.553978
0.525373
0.494663
0.463188
0.432264
0.403083
0.376987
0.353944
0.334915
0.318686
0.305871
0.295132
0.287179
0.280453
0.27531
0.270569
0.267137
0.264296
0.261742
0.259576
0.25784
0.256102
0.254264
0.252366
0.250895
0.24815
0.247279
0.244975
0.244218
0.2446
0.244318
0.243586
0.242663
0.241375
0.240558
0.239448
0.238529
0.237172
0.235807
0.234866
0.234482
0.233649
0.232577
0.232183
0.231643
0.229986
0.229858
0.229855
0.22968
0.229862
0.232059
0.230407
0.228843
0.227841
0.227986
0.228173
0.226213
0.227594
0.226885
0.227613
0.227796
0.226914
0.227166
0.226447
0.225784
0.225103
0.225509
0.225645
0.225439
0.223543
0.224676
0.227203
0.225825
0.229719
0.229838
0.234413
0.232086
0.236291
0.242499
0.249312
0.257526
0.225824
0.316655
0.363731
0.392229
0.41512
0.437242
0.460165
0.484472
0.511576
0.540855
0.571326
0.60363
0.63769
0.672371
0.707708
0.743098
0.777928
0.811777
0.844391
0.875613
0.905486
0.934077
0.961603
0.988233
1.01422
1.0397
1.06495
1.09014
1.11539
1.14069
1.16606
1.1914
1.21664
1.24162
1.26618
1.29009
1.31315
1.33506
1.35566
1.37475
1.39221
1.40777
1.42134
1.43274
1.44172
1.44814
1.45224
1.45512
1.46002
1.45794
1.4537
1.44867
1.44206
1.43423
1.42517
1.41513
1.40419
1.39257
1.38015
1.36713
1.35361
1.33951
1.32524
1.31092
1.29667
1.28221
1.2676
1.25316
1.23869
1.22414
1.20953
1.19481
1.18001
1.16499
1.14974
1.13418
1.11831
1.10197
1.08526
1.068
1.05018
1.03204
1.0138
0.995631
0.977641
0.959849
0.942281
0.924847
0.907451
0.889906
0.872061
0.853845
0.835283
0.816483
0.797616
0.778658
0.759382
0.739383
0.718237
0.696082
0.669477
0.638272
0.603824
0.566564
0.528028
0.49018
0.454547
0.422511
0.394558
0.371054
0.351584
0.33594
0.323399
0.313436
0.305279
0.298724
0.293353
0.288852
0.284975
0.281761
0.278836
0.276217
0.273759
0.271479
0.269218
0.267302
0.265326
0.263559
0.261935
0.26044
0.258796
0.257246
0.255551
0.254001
0.252489
0.250928
0.249341
0.247613
0.246325
0.244769
0.24371
0.242259
0.24146
0.240231
0.238917
0.238333
0.238045
0.237986
0.237538
0.236879
0.236208
0.234949
0.233815
0.232682
0.23169
0.230371
0.229667
0.229067
0.228329
0.227903
0.22715
0.225918
0.224526
0.222877
0.221697
0.220702
0.219351
0.217202
0.216274
0.215882
0.215979
0.214862
0.215738
0.215179
0.217176
0.216078
0.216038
0.218666
0.222574
0.22808
0.33639
0.463988
0.505268
0.516163
0.519787
0.530445
0.549789
0.576343
0.608718
0.644812
0.683472
0.723702
0.764568
0.805013
0.844525
0.882487
0.91859
0.952663
0.984797
1.01513
1.04398
1.07164
1.09852
1.12493
1.15124
1.17768
1.20452
1.23187
1.25985
1.28843
1.31757
1.34711
1.3769
1.40665
1.43612
1.46495
1.49284
1.51943
1.54443
1.56751
1.58843
1.60693
1.62285
1.63607
1.64652
1.65419
1.65909
1.66268
1.66794
1.66635
1.66181
1.65513
1.64655
1.63634
1.62469
1.6118
1.59786
1.58301
1.56741
1.55121
1.53455
1.51753
1.50031
1.48295
1.46552
1.448
1.43042
1.41282
1.39518
1.37746
1.35964
1.34169
1.32356
1.30517
1.28638
1.26716
1.2475
1.22745
1.20714
1.18663
1.16598
1.1453
1.12466
1.10416
1.08383
1.06377
1.044
1.0245
1.00517
0.985888
0.966477
0.946848
0.926944
0.906739
0.886234
0.865445
0.844364
0.8229
0.800928
0.778438
0.754287
0.728077
0.699978
0.666028
0.62783
0.586724
0.544602
0.503478
0.465199
0.43108
0.401751
0.377319
0.357411
0.341449
0.328699
0.318533
0.310387
0.303783
0.298339
0.293794
0.28991
0.28653
0.283521
0.280813
0.278339
0.276038
0.273845
0.271784
0.269755
0.267832
0.265901
0.264062
0.262207
0.260402
0.258646
0.256921
0.255131
0.253326
0.251691
0.250131
0.248902
0.247614
0.246505
0.245322
0.244291
0.243319
0.242421
0.241497
0.240399
0.239293
0.238114
0.237082
0.235872
0.234707
0.233484
0.232153
0.231098
0.230087
0.228841
0.227911
0.226699
0.225414
0.224393
0.223184
0.221975
0.221045
0.219512
0.21824
0.21647
0.215406
0.214614
0.213731
0.213045
0.212275
0.212227
0.211111
0.211211
0.212898
0.216083
0.219393
0.398989
0.545041
0.585567
0.589597
0.58734
0.59711
0.619486
0.651186
0.68921
0.730866
0.774396
0.818399
0.861824
0.903857
0.944038
0.982038
1.01778
1.05134
1.08297
1.11299
1.14184
1.16991
1.19767
1.2255
1.25379
1.28279
1.31276
1.34379
1.37597
1.40921
1.44342
1.47838
1.51381
1.54937
1.58467
1.61926
1.65274
1.68463
1.71454
1.74207
1.76689
1.78871
1.80734
1.82265
1.83465
1.84353
1.84942
1.85339
1.85747
1.85489
1.84887
1.84021
1.82931
1.81648
1.80198
1.78606
1.76895
1.75085
1.73198
1.71247
1.6925
1.6722
1.65169
1.63104
1.61032
1.58954
1.56875
1.54792
1.52706
1.50613
1.48508
1.46385
1.44238
1.42062
1.39856
1.37624
1.35371
1.33102
1.30823
1.28541
1.2626
1.23985
1.2172
1.19471
1.17239
1.15031
1.12849
1.10692
1.08557
1.06432
1.04305
1.02168
1.00013
0.97833
0.956256
0.933879
0.91119
0.888151
0.864719
0.840842
0.816252
0.790667
0.763732
0.734489
0.702975
0.666289
0.625291
0.581495
0.537389
0.495247
0.456914
0.423466
0.395297
0.372182
0.353586
0.338771
0.327035
0.31769
0.310202
0.304093
0.299057
0.294803
0.291168
0.287976
0.28516
0.282588
0.280208
0.277973
0.275832
0.273777
0.271792
0.269841
0.267963
0.266091
0.264268
0.262442
0.260625
0.258818
0.257168
0.255566
0.254129
0.25277
0.251445
0.250157
0.248978
0.247814
0.246631
0.245512
0.244259
0.242998
0.24168
0.2406
0.239331
0.238178
0.237039
0.235785
0.234654
0.233491
0.232146
0.230974
0.229525
0.228298
0.227298
0.22602
0.224953
0.2245
0.223351
0.221942
0.220604
0.219519
0.218296
0.217246
0.216439
0.215506
0.214809
0.213619
0.212485
0.212728
0.214604
0.216422
0.418005
0.572358
0.616248
0.626468
0.632124
0.648641
0.677298
0.714702
0.757392
0.802758
0.849033
0.89488
0.939417
0.982058
1.02251
1.06065
1.09656
1.13047
1.16273
1.19375
1.22401
1.254
1.28421
1.31505
1.34693
1.38011
1.41485
1.45121
1.48924
1.5288
1.56972
1.61168
1.65431
1.69714
1.73967
1.78134
1.82157
1.8598
1.89551
1.9282
1.95746
1.98295
2.00445
2.02177
2.03497
2.04404
2.05013
2.05695
2.05663
2.05165
2.0431
2.03156
2.01749
2.00123
1.98312
1.96344
1.94249
1.9205
1.89772
1.87432
1.85049
1.82636
1.80207
1.77768
1.75327
1.72886
1.70448
1.68012
1.65576
1.63132
1.60677
1.58211
1.55734
1.53248
1.50754
1.48254
1.45749
1.43242
1.40737
1.38236
1.35743
1.33259
1.30786
1.28327
1.25885
1.23463
1.21062
1.18683
1.16325
1.13979
1.11635
1.09287
1.06927
1.04552
1.02157
0.997362
0.9729
0.94816
0.9231
0.897721
0.871909
0.845478
0.818201
0.789876
0.759964
0.727812
0.693449
0.652864
0.608587
0.562989
0.51864
0.477687
0.441539
0.410814
0.38546
0.364981
0.348662
0.335734
0.325486
0.317294
0.310684
0.305269
0.300772
0.296957
0.293673
0.290772
0.288147
0.285738
0.283486
0.281361
0.279336
0.277375
0.275478
0.273608
0.27176
0.269912
0.268083
0.266265
0.264554
0.262902
0.261331
0.259845
0.258384
0.256989
0.255632
0.254304
0.252952
0.25168
0.250412
0.249133
0.247872
0.246699
0.2454
0.244204
0.243032
0.241891
0.240607
0.239537
0.23812
0.236827
0.235189
0.233984
0.232753
0.231918
0.230724
0.230555
0.229535
0.228075
0.226825
0.22545
0.224222
0.223091
0.22221
0.220976
0.219979
0.219012
0.217754
0.216725
0.21718
0.217672
0.430352
0.570013
0.624637
0.643908
0.66222
0.689079
0.725227
0.767945
0.81448
0.862678
0.910987
0.958292
1.00392
1.04748
1.08882
1.12797
1.1651
1.20054
1.2347
1.26808
1.30121
1.33461
1.36882
1.40428
1.44141
1.48048
1.52171
1.56515
1.61078
1.65841
1.70778
1.75849
1.81005
1.86185
1.91325
1.96352
2.01194
2.05777
2.10035
2.13905
2.17335
2.20283
2.22717
2.24622
2.25973
2.26803
2.27596
2.28067
2.27745
2.26926
2.25712
2.24165
2.22335
2.20265
2.17996
2.15561
2.12996
2.10328
2.07585
2.04786
2.01953
1.99098
1.96238
1.93377
1.90524
1.87679
1.84845
1.82017
1.79198
1.76385
1.73581
1.70786
1.68
1.65223
1.62452
1.59689
1.56932
1.54181
1.51438
1.48702
1.45975
1.43258
1.40553
1.37859
1.35179
1.32515
1.29868
1.2724
1.2463
1.22032
1.19438
1.16843
1.14242
1.11631
1.09005
1.06364
1.03704
1.01025
0.983248
0.956084
0.928666
0.900908
0.872604
0.843628
0.813814
0.782748
0.750165
0.715331
0.67561
0.631425
0.585247
0.539764
0.497309
0.459526
0.427166
0.4003
0.378478
0.361021
0.347144
0.336135
0.327358
0.320326
0.314613
0.309913
0.305962
0.302573
0.29958
0.296911
0.294482
0.292258
0.29017
0.288192
0.286272
0.284385
0.282501
0.280613
0.278728
0.276846
0.275019
0.273246
0.271523
0.269871
0.268259
0.266706
0.265191
0.2637
0.262231
0.260796
0.259425
0.258075
0.25676
0.255473
0.254177
0.252904
0.251645
0.250465
0.249151
0.248015
0.246648
0.245127
0.24357
0.242299
0.241412
0.240578
0.239709
0.238811
0.23758
0.236132
0.234899
0.233453
0.232145
0.23096
0.229915
0.228629
0.227371
0.226333
0.225137
0.224249
0.223637
0.222578
0.418125
0.55048
0.614602
0.649819
0.682719
0.720384
0.763735
0.811206
0.861061
0.911756
0.962018
1.01101
1.05825
1.10348
1.14667
1.18791
1.22748
1.26573
1.30315
1.34026
1.37765
1.41588
1.45552
1.49704
1.54087
1.58728
1.63647
1.68847
1.74322
1.80049
1.85995
1.92108
1.9833
2.04584
2.10788
2.1685
2.22676
2.28173
2.33253
2.37837
2.4186
2.45262
2.48022
2.50119
2.51502
2.52548
2.53294
2.53184
2.52447
2.51193
2.49507
2.47452
2.45088
2.42466
2.39636
2.36639
2.33516
2.30297
2.27014
2.2369
2.20345
2.16995
2.13652
2.10324
2.07016
2.0373
2.00473
1.97244
1.94045
1.90877
1.87739
1.84626
1.81538
1.78471
1.75422
1.72387
1.69365
1.66353
1.63351
1.60357
1.57372
1.54395
1.51428
1.4847
1.45522
1.42586
1.39665
1.36759
1.3387
1.30992
1.28117
1.25244
1.22367
1.19485
1.16595
1.13693
1.10781
1.07859
1.04928
1.01995
0.990559
0.961028
0.931243
0.901057
0.870349
0.838994
0.806768
0.773241
0.737826
0.6983
0.654042
0.607539
0.561495
0.518273
0.479532
0.446109
0.418139
0.395257
0.37682
0.362109
0.350424
0.34115
0.333745
0.327774
0.32288
0.318776
0.315261
0.312216
0.30954
0.307156
0.304974
0.302932
0.300962
0.299021
0.297073
0.295102
0.293111
0.291108
0.289117
0.287164
0.285242
0.28338
0.28156
0.279798
0.278081
0.276395
0.274742
0.273129
0.271562
0.27005
0.268574
0.267126
0.265724
0.264329
0.262943
0.261637
0.260223
0.258971
0.25755
0.256071
0.254511
0.253189
0.252185
0.251132
0.250073
0.248942
0.247516
0.246036
0.244729
0.243374
0.242132
0.240856
0.239615
0.23831
0.236972
0.235699
0.234468
0.233156
0.232379
0.230141
0.401988
0.525829
0.599746
0.650308
0.696213
0.743245
0.792748
0.844298
0.897127
0.950246
1.00273
1.05395
1.10357
1.15142
1.19749
1.24194
1.28505
1.32723
1.36898
1.4109
1.45359
1.49768
1.54376
1.59234
1.64384
1.69855
1.75669
1.81826
1.88322
1.95128
2.02209
2.09506
2.1695
2.24448
2.319
2.39189
2.46196
2.52797
2.58878
2.64334
2.69075
2.73036
2.76188
2.7851
2.79987
2.81194
2.81424
2.80869
2.79647
2.77856
2.75583
2.72906
2.69896
2.66617
2.63128
2.59478
2.55713
2.51868
2.47979
2.44069
2.4016
2.36265
2.32401
2.28576
2.24799
2.21074
2.17404
2.13788
2.10227
2.06715
2.0325
1.99825
1.96436
1.93076
1.8974
1.86424
1.83124
1.79836
1.76557
1.73286
1.70021
1.66763
1.63511
1.60265
1.57026
1.53795
1.50576
1.4737
1.44179
1.40998
1.37821
1.34644
1.31468
1.28287
1.25103
1.21911
1.18715
1.15515
1.1232
1.09134
1.05961
1.02792
0.996223
0.964374
0.932295
0.899846
0.866996
0.833513
0.799014
0.762935
0.723159
0.678766
0.63212
0.58578
0.542044
0.502537
0.468171
0.439152
0.415228
0.395843
0.380349
0.368051
0.358313
0.350561
0.344336
0.339231
0.334996
0.331437
0.328417
0.325792
0.323454
0.321296
0.31924
0.317213
0.315179
0.313108
0.310993
0.308844
0.306678
0.304527
0.302396
0.300309
0.298262
0.296266
0.294315
0.292399
0.290516
0.288671
0.286859
0.285099
0.283383
0.281701
0.280082
0.278496
0.276919
0.275413
0.273853
0.272385
0.270871
0.269322
0.267775
0.26626
0.264975
0.26365
0.262328
0.261001
0.259447
0.257909
0.256526
0.255151
0.253825
0.252456
0.251032
0.249555
0.248069
0.246455
0.245091
0.243327
0.242151
0.239408
0.389627
0.507754
0.587249
0.648707
0.704219
0.758258
0.812516
0.867413
0.922928
0.978539
1.03356
1.08752
1.14017
1.19136
1.2411
1.28956
1.337
1.38386
1.43068
1.47806
1.52666
1.57715
1.63013
1.68614
1.74563
1.80892
1.87624
1.94764
2.0231
2.10239
2.18516
2.27083
2.35863
2.44754
2.53635
2.62361
2.70779
2.78727
2.86049
2.92603
2.98263
3.02955
3.06613
3.09105
3.10815
3.11835
3.11721
3.10707
3.0893
3.06505
3.03542
3.00136
2.96377
2.92343
2.88104
2.83719
2.7924
2.74706
2.70155
2.65615
2.6111
2.56657
2.52271
2.4796
2.4373
2.39583
2.35518
2.31531
2.27618
2.23772
2.19986
2.16251
2.1256
2.08905
2.05278
2.01674
1.98087
1.94511
1.90944
1.87382
1.83825
1.80271
1.76719
1.7317
1.69624
1.66084
1.62552
1.59031
1.55523
1.52024
1.48529
1.45035
1.41542
1.38047
1.34548
1.31048
1.27545
1.24046
1.2056
1.17096
1.13656
1.1024
1.06841
1.03452
1.00064
0.966672
0.93254
0.898209
0.863502
0.828027
0.791222
0.751075
0.706546
0.659765
0.613113
0.568754
0.528344
0.49286
0.462656
0.43761
0.417269
0.400996
0.388093
0.377892
0.369807
0.363319
0.358071
0.353777
0.350226
0.347228
0.344622
0.342286
0.340093
0.337961
0.335831
0.333671
0.331451
0.329185
0.326888
0.324591
0.322298
0.320031
0.317792
0.315588
0.313415
0.311266
0.309136
0.307031
0.304946
0.302898
0.300895
0.298932
0.297027
0.295178
0.293351
0.291579
0.289805
0.28808
0.286365
0.284637
0.282932
0.281207
0.279603
0.277997
0.276403
0.274826
0.273174
0.271515
0.269949
0.268405
0.266877
0.265304
0.263686
0.261973
0.260279
0.25834
0.256743
0.254523
0.253016
0.250083
0.380273
0.495465
0.578243
0.646158
0.707691
0.766359
0.823928
0.881329
0.939129
0.997116
1.05477
1.11173
1.16775
1.22271
1.27658
1.32949
1.38168
1.4336
1.48574
1.53877
1.59334
1.65013
1.70977
1.77282
1.83976
1.91095
1.98668
2.0671
2.15229
2.24215
2.33648
2.43478
2.53637
2.64017
2.74483
2.8486
2.94953
3.04548
3.13434
3.21405
3.28287
3.33959
3.38356
3.41254
3.43331
3.44054
3.43592
3.42092
3.39704
3.36571
3.32831
3.28606
3.24011
3.19139
3.14077
3.08895
3.03654
2.98399
2.93173
2.88003
2.82915
2.77921
2.73034
2.68258
2.63595
2.59043
2.54598
2.50253
2.45999
2.41826
2.37725
2.33684
2.29694
2.25744
2.21825
2.1793
2.14051
2.10184
2.06322
2.02464
1.98606
1.94748
1.90888
1.87028
1.83168
1.7931
1.75457
1.71613
1.67781
1.63958
1.60138
1.56319
1.52501
1.48682
1.44862
1.41042
1.37222
1.3341
1.29619
1.2586
1.22135
1.18448
1.14793
1.11169
1.07565
1.03978
1.00398
0.968229
0.932456
0.896552
0.860099
0.822516
0.78203
0.737317
0.690229
0.642957
0.597613
0.555927
0.519028
0.487475
0.461237
0.439915
0.422856
0.40936
0.398727
0.390317
0.38362
0.378235
0.373865
0.370277
0.367235
0.364612
0.362197
0.359918
0.35768
0.355445
0.353152
0.350831
0.348482
0.346131
0.343769
0.341415
0.339071
0.336748
0.334427
0.3321
0.329766
0.327428
0.32509
0.322769
0.320479
0.318227
0.316023
0.313875
0.311762
0.309692
0.30764
0.305616
0.303612
0.301609
0.29963
0.297634
0.295694
0.293774
0.291881
0.290011
0.288151
0.286294
0.28449
0.282701
0.280922
0.279092
0.27724
0.275264
0.273342
0.271082
0.269231
0.266592
0.264865
0.261469
0.372029
0.487195
0.569538
0.642329
0.70737
0.768669
0.828183
0.887234
0.946766
1.00683
1.06698
1.12689
1.18634
1.24516
1.30325
1.36069
1.41766
1.47455
1.53183
1.59014
1.65011
1.71243
1.77772
1.84654
1.91942
1.99677
2.07896
2.16631
2.25909
2.35746
2.4615
2.57103
2.6856
2.80428
2.92568
3.04777
3.16816
3.28408
3.39261
3.49082
3.5762
3.64678
3.70133
3.73791
3.76146
3.7687
3.76168
3.74221
3.71217
3.67341
3.62774
3.57678
3.52196
3.4645
3.40544
3.34559
3.28562
3.22603
3.16724
3.1095
3.05304
2.99795
2.94432
2.89215
2.84141
2.79204
2.74397
2.69708
2.65126
2.60637
2.5623
2.5189
2.47606
2.43365
2.39157
2.34973
2.30803
2.26643
2.22486
2.18329
2.14169
2.10005
2.05835
2.01662
1.97484
1.93306
1.8913
1.84961
1.80803
1.76654
1.72508
1.68362
1.64219
1.60075
1.55931
1.51788
1.47649
1.43522
1.39422
1.35359
1.31341
1.27367
1.23441
1.19558
1.15715
1.11907
1.08129
1.04375
1.00641
0.969225
0.932119
0.894641
0.856182
0.815348
0.77021
0.722374
0.67393
0.627053
0.583668
0.545157
0.512184
0.484775
0.462526
0.444781
0.430782
0.419758
0.411057
0.404113
0.398556
0.39407
0.390343
0.387242
0.384446
0.381916
0.379501
0.377147
0.374767
0.372423
0.370077
0.367748
0.365401
0.363069
0.36074
0.358428
0.356073
0.353683
0.351243
0.348756
0.346233
0.343704
0.34118
0.338671
0.336194
0.333757
0.331353
0.328979
0.326622
0.32428
0.321949
0.319621
0.317306
0.314987
0.312696
0.31043
0.308203
0.306009
0.303858
0.301728
0.299646
0.297572
0.295516
0.293406
0.291296
0.289034
0.286869
0.284301
0.282192
0.279181
0.277274
0.27345
0.363954
0.478157
0.564295
0.638426
0.704151
0.764818
0.825511
0.886294
0.947506
1.00935
1.07169
1.1343
1.19694
1.25938
1.32146
1.38315
1.44454
1.50592
1.56768
1.63039
1.69463
1.76105
1.83025
1.90278
1.97919
2.05993
2.14552
2.23643
2.33318
2.43635
2.54649
2.664
2.78896
2.92095
3.05879
3.2001
3.34205
3.48144
3.61421
3.73625
3.84377
3.9336
4.00349
4.05208
4.08144
4.09112
4.08364
4.06098
4.02559
3.97993
3.92636
3.86698
3.80361
3.73773
3.67057
3.60305
3.5359
3.46966
3.40472
3.34132
3.27966
3.21978
3.16173
3.10545
3.05089
2.99794
2.94648
2.89637
2.84745
2.79957
2.75258
2.70632
2.66064
2.61541
2.57052
2.52584
2.4813
2.43681
2.39232
2.3478
2.30321
2.25853
2.21376
2.16892
2.124
2.07904
2.03408
1.98917
1.94435
1.89962
1.85492
1.81023
1.76557
1.72091
1.67627
1.63165
1.58711
1.54271
1.49865
1.455
1.41185
1.36923
1.32716
1.28564
1.24466
1.20417
1.16415
1.12455
1.08533
1.04644
1.00784
0.969463
0.930805
0.891292
0.849824
0.803659
0.754298
0.703898
0.654951
0.60966
0.569564
0.535354
0.507064
0.4842
0.466017
0.451657
0.440306
0.431271
0.424093
0.418334
0.413595
0.409709
0.406324
0.403307
0.400554
0.397875
0.395322
0.392857
0.390438
0.388113
0.38585
0.383626
0.381413
0.37923
0.37696
0.374652
0.372228
0.369712
0.367115
0.364492
0.361818
0.359118
0.356419
0.353733
0.351062
0.348406
0.345755
0.343106
0.340453
0.337793
0.335134
0.332473
0.329829
0.327213
0.324639
0.322108
0.319632
0.317195
0.314813
0.312441
0.310099
0.307704
0.305331
0.30279
0.300375
0.297529
0.295163
0.291843
0.289767
0.285604
0.361989
0.47821
0.564158
0.636113
0.699603
0.762068
0.823264
0.884379
0.945636
1.00822
1.07208
1.13688
1.20225
1.26789
1.33349
1.3989
1.46406
1.5291
1.59429
1.66007
1.72694
1.79549
1.86627
1.93981
2.01667
2.09734
2.18245
2.27276
2.36855
2.47117
2.58191
2.70202
2.8324
2.97345
3.12478
3.28484
3.45039
3.61623
3.77745
3.92895
4.06502
4.18073
4.27246
4.33833
4.37865
4.39406
4.3899
4.36683
4.32821
4.27725
4.21703
4.15024
4.07915
4.0056
3.93102
3.85649
3.78281
3.71053
3.64005
3.57158
3.50527
3.44113
3.37914
3.31922
3.26125
3.20509
3.15059
3.09756
3.04583
2.99521
2.94551
2.89658
2.84824
2.80035
2.75278
2.7054
2.65812
2.61085
2.56355
2.51616
2.46866
2.42103
2.37327
2.3254
2.27742
2.22937
2.18128
2.13321
2.08523
2.03731
1.98944
1.94158
1.89374
1.84593
1.79815
1.75043
1.7028
1.65539
1.60832
1.56172
1.51565
1.47017
1.4253
1.38106
1.33745
1.29446
1.25206
1.21022
1.1689
1.12805
1.08762
1.04754
1.0077
0.967619
0.926701
0.883789
0.835501
0.783506
0.730428
0.679189
0.632236
0.591107
0.55638
0.527867
0.504906
0.486624
0.472052
0.46044
0.451184
0.443736
0.437616
0.432551
0.428234
0.424373
0.420986
0.417679
0.414632
0.411805
0.409129
0.406591
0.40429
0.402068
0.399971
0.397907
0.395838
0.393687
0.391404
0.389023
0.386517
0.383953
0.381222
0.378406
0.375548
0.372663
0.369762
0.366856
0.363942
0.361017
0.358072
0.35511
0.352133
0.34915
0.346176
0.343228
0.340323
0.337467
0.334674
0.331931
0.32925
0.326589
0.32397
0.321305
0.318678
0.315886
0.313231
0.310155
0.307544
0.304016
0.301695
0.297408
0.363125
0.477484
0.56119
0.632261
0.698606
0.761374
0.822953
0.884257
0.946077
1.00913
1.07392
1.14007
1.20738
1.27554
1.34401
1.41239
1.48043
1.54806
1.61537
1.68263
1.75024
1.81866
1.88841
1.96006
2.03421
2.1105
2.19019
2.27458
2.36438
2.46097
2.56606
2.68192
2.81086
2.95491
3.11487
3.28964
3.47603
3.67043
3.86526
4.05204
4.22366
4.37285
4.49389
4.58355
4.64174
4.66721
4.67024
4.65036
4.61123
4.55709
4.49191
4.41912
4.34156
4.26147
4.18054
4.10002
4.02078
3.94341
3.86828
3.7956
3.72544
3.65779
3.59256
3.52963
3.46883
3.41
3.35293
3.29741
3.24325
3.19024
3.13817
3.08685
3.03612
2.98583
2.9358
2.88593
2.8361
2.78625
2.73629
2.68621
2.63595
2.58552
2.53492
2.48416
2.43327
2.38228
2.33117
2.28009
2.22902
2.17804
2.12708
2.07616
2.02526
1.9744
1.92359
1.87288
1.82228
1.77194
1.72199
1.67254
1.62364
1.57538
1.52777
1.48085
1.43462
1.3891
1.34427
1.30012
1.25658
1.21361
1.17115
1.12912
1.0874
1.04584
1.00394
0.960911
0.915091
0.863149
0.807472
0.751556
0.698675
0.651204
0.610312
0.576179
0.548279
0.525792
0.507705
0.49319
0.481478
0.471959
0.464086
0.457486
0.451799
0.446703
0.442227
0.437926
0.433899
0.430225
0.42693
0.423839
0.421161
0.418551
0.416297
0.414104
0.412102
0.410064
0.407909
0.405775
0.403496
0.401107
0.398428
0.395596
0.392633
0.389584
0.386478
0.383345
0.380195
0.377024
0.373824
0.370595
0.367341
0.364073
0.360808
0.357566
0.354366
0.351218
0.348138
0.345116
0.342163
0.339242
0.336373
0.333471
0.330619
0.327618
0.324756
0.321514
0.318693
0.315059
0.312494
0.30824
0.36555
0.480938
0.566812
0.639285
0.704777
0.766362
0.827858
0.889818
0.952814
1.01733
1.0836
1.15154
1.22086
1.29107
1.36166
1.43216
1.50227
1.57156
1.63985
1.70717
1.77376
1.84
1.90633
1.97327
2.04049
2.10953
2.18063
2.25448
2.33232
2.41613
2.50841
2.61249
2.73211
2.87136
3.03344
3.21878
3.42663
3.64831
3.87638
4.1034
4.31762
4.50832
4.66676
4.78769
4.87054
4.90978
4.92257
4.90931
4.87216
4.8168
4.74832
4.671
4.58836
4.50307
4.41712
4.33189
4.24835
4.16709
4.08847
4.01264
3.93966
3.86942
3.80181
3.73664
3.67373
3.61284
3.55378
3.4963
3.44019
3.38519
3.33113
3.27779
3.225
3.17257
3.12038
3.06828
3.01613
2.96391
2.91148
2.8589
2.80604
2.753
2.69968
2.64621
2.59254
2.53872
2.48479
2.43075
2.37675
2.32276
2.26881
2.21489
2.16101
2.10717
2.05341
1.99974
1.94626
1.89306
1.8403
1.78805
1.7364
1.68539
1.63508
1.5855
1.53668
1.48863
1.44134
1.3948
1.34896
1.30377
1.25913
1.21495
1.17111
1.12742
1.08369
1.03913
0.992914
0.941961
0.884705
0.825344
0.767864
0.715243
0.669155
0.630017
0.597526
0.570976
0.549399
0.531866
0.517504
0.50564
0.495682
0.487167
0.479696
0.472914
0.466784
0.461051
0.455544
0.450551
0.446034
0.441748
0.43816
0.434512
0.431711
0.429072
0.426678
0.424558
0.4222
0.420122
0.418115
0.415804
0.413219
0.410366
0.407217
0.404068
0.400756
0.397392
0.394003
0.390585
0.387132
0.38365
0.380137
0.376604
0.373074
0.369565
0.366101
0.362694
0.359358
0.356089
0.352895
0.349747
0.34666
0.343558
0.340517
0.337353
0.334323
0.330977
0.327992
0.324342
0.32157
0.317471
0.370817
0.489671
0.578471
0.653371
0.720212
0.782816
0.844771
0.908302
0.973373
1.04022
1.10904
1.1797
1.25189
1.32516
1.39881
1.47209
1.54423
1.61473
1.68323
1.74959
1.81388
1.87639
1.93761
1.99772
2.05728
2.11481
2.17151