/*--------------------------------*- C++ -*----------------------------------*\
  =========                 |
  \\      /  F ield         | OpenFOAM: The Open Source CFD Toolbox
   \\    /   O peration     | Website:  https://openfoam.org
    \\  /    A nd           | Version:  9
     \\/     M anipulation  |
\*---------------------------------------------------------------------------*/
FoamFile
{
    format      ascii;
    class       volScalarField;
    location    "25";
    object      nut;
}
// * * * * * * * * * * * * * * * * * * * * * * * * * * * * * * * * * * * * * //

dimensions      [0 2 -1 0 0 0 0];

internalField   nonuniform List<scalar> 
12225
(
4.14982e-05
3.93415e-05
3.74955e-05
3.54365e-05
3.38366e-05
3.24339e-05
3.15981e-05
3.09857e-05
3.10342e-05
3.1187e-05
3.18181e-05
3.23625e-05
3.35114e-05
3.44342e-05
3.59863e-05
3.75655e-05
4.1924e-05
4.17548e-05
0.000332277
0.000215345
0.000179266
0.000157742
0.000146081
0.000138122
0.000132856
0.000130982
0.000129686
0.00012944
0.000129514
0.00012907
0.000129701
0.000129976
0.000131696
0.000133485
0.000139416
0.000139587
0.000674864
0.000450695
0.000355877
0.000309541
0.000274758
0.000250611
0.000230357
0.000216814
0.000200465
0.000190917
0.000179388
0.000174275
0.000166515
0.000163768
0.000162117
0.000163447
0.00016972
0.000170765
0.000833606
0.000684667
0.000572038
0.000499804
0.000448512
0.00041146
0.000378498
0.000355656
0.000330161
0.000313947
0.000292401
0.000280416
0.000262914
0.000252294
0.000245464
0.000244325
0.000244008
0.000246754
0.000861244
0.000802429
0.000741992
0.000676719
0.000622924
0.000581212
0.000543297
0.000514218
0.000485506
0.000463096
0.000439207
0.000419295
0.000401251
0.000381621
0.000373201
0.000364596
0.000360166
0.000356089
0.000854986
0.000840301
0.000822058
0.000786721
0.000749994
0.000715938
0.000683752
0.000655594
0.000629541
0.000605734
0.000583671
0.000559667
0.000541753
0.000522961
0.000515021
0.000499221
0.000491064
0.000481333
0.000852896
0.000850692
0.000844205
0.000832711
0.000817011
0.000797047
0.000776706
0.000756175
0.000737088
0.000717519
0.000699708
0.000677428
0.000661557
0.00064713
0.000642097
0.000626145
0.000614572
0.000602765
0.000851881
0.000851874
0.000850122
0.000847412
0.000841308
0.00083353
0.000824389
0.000813028
0.000801898
0.000789424
0.000776912
0.000760893
0.000746857
0.000738864
0.000738841
0.000728612
0.000716934
0.00070683
0.000851677
0.000851652
0.000850959
0.000850418
0.000848763
0.000846146
0.000842735
0.000838096
0.000833006
0.000826815
0.000819032
0.00080933
0.000799936
0.00079734
0.000802261
0.000799742
0.000791307
0.000786466
0.000851669
0.000851541
0.000850939
0.000850763
0.000850107
0.000849437
0.000848182
0.000846776
0.000844659
0.000842481
0.000838685
0.000833597
0.000828168
0.000828415
0.000836177
0.000840611
0.000837427
0.000839948
0.000851668
0.000851539
0.000850876
0.000850787
0.000850148
0.000850055
0.000849266
0.000849113
0.00084797
0.000847602
0.00084545
0.000843285
0.000841117
0.000842304
0.000850534
0.000859418
0.00086061
0.000870076
0.000851667
0.000851542
0.000850849
0.000850793
0.000850094
0.000850123
0.000849372
0.000849532
0.000848644
0.000848749
0.00084724
0.000846109
0.000845521
0.000846972
0.000854219
0.000864199
0.000867609
0.000881349
0.000851675
0.000851524
0.000850853
0.000850772
0.000850096
0.00085009
0.000849404
0.000849523
0.000848854
0.00084881
0.000848095
0.000846524
0.000846969
0.000848337
0.00085374
0.000862733
0.000866863
0.000882481
0.000851696
0.000851481
0.000850884
0.000850712
0.000850153
0.000849998
0.000849505
0.000849362
0.000849042
0.000848546
0.000848673
0.000847089
0.000847568
0.000848564
0.000851375
0.000857544
0.000861068
0.000876676
0.000851707
0.000851459
0.000850893
0.000850687
0.000850169
0.000849963
0.000849527
0.00084934
0.000848981
0.000848669
0.000848351
0.000848274
0.000847966
0.000848549
0.000848966
0.000851295
0.000854658
0.000868764
0.000851685
0.0008515
0.000850831
0.000850768
0.000850067
0.000850068
0.00084939
0.000849527
0.000848687
0.000848982
0.000847793
0.000850254
0.000845848
0.000852466
0.000848609
0.000847916
0.000852525
0.000865465
0.000851653
0.000851549
0.000850803
0.000850823
0.000850025
0.000850105
0.000849414
0.00084945
0.000848798
0.000848716
0.000848641
0.000848847
0.000848262
0.000846867
0.000845991
0.000847412
0.000851859
0.000867346
0.000851681
0.00085151
0.000850764
0.00085089
0.000849912
0.000850127
0.000849631
0.000848923
0.000849405
0.000848513
0.000848784
0.000848196
0.000849657
0.000842447
0.000844155
0.000847827
0.000854299
0.000873394
0.000851806
0.000851319
0.000850887
0.000850538
0.00085022
0.000849759
0.000849743
0.000848893
0.000849604
0.00084826
0.000849025
0.000849217
0.000846059
0.000849673
0.000850749
0.000855256
0.000858419
0.000873513
0.000851777
0.000851362
0.000850954
0.000850572
0.000850236
0.000849857
0.000849588
0.000849246
0.000849059
0.000848712
0.000848531
0.000848264
0.00084793
0.000848072
0.000848509
0.000849532
0.000849606
0.000856592
0.000851774
0.000851367
0.000850968
0.000850588
0.00085025
0.000849896
0.000849597
0.000849309
0.00084904
0.000848769
0.000848529
0.000848205
0.000847973
0.000847945
0.000848221
0.000848694
0.00084859
0.00085464
0.000851782
0.000851352
0.00085099
0.000850582
0.000850284
0.000849896
0.000849642
0.000849323
0.000849044
0.000848788
0.000848451
0.000848054
0.00084754
0.000848001
0.000848291
0.000849826
0.000850428
0.000858116
0.000851791
0.000851344
0.000851027
0.000850573
0.000850328
0.000849849
0.000849599
0.00084908
0.000848606
0.000848266
0.000847269
0.00084638
0.000844877
0.000845023
0.000844621
0.000847993
0.00084823
0.000856328
0.000851793
0.000851428
0.000850968
0.000850585
0.00084986
0.000849042
0.000847619
0.0008462
0.000843816
0.00084242
0.000838713
0.000835972
0.000831414
0.000826829
0.000824395
0.000827335
0.00082264
0.000827228
0.000852139
0.000851405
0.000850245
0.000848252
0.000844487
0.000839536
0.000832761
0.000826097
0.000818286
0.000810645
0.000802231
0.000793183
0.000780867
0.000773667
0.000765559
0.000762601
0.000749892
0.000748647
0.000854162
0.000847755
0.000840112
0.000827001
0.000809152
0.000789637
0.000770661
0.000751502
0.000734265
0.000717397
0.000702252
0.00068645
0.00066886
0.000656747
0.000642075
0.000633177
0.000617566
0.000614607
0.000855171
0.000818353
0.000776673
0.000726325
0.000685761
0.000649649
0.000619452
0.000591846
0.000569678
0.000548555
0.000531072
0.000513606
0.000496907
0.000484009
0.000467896
0.000460299
0.000449666
0.000449633
0.000807771
0.000666599
0.000571376
0.000509709
0.000466541
0.000431138
0.000405214
0.000382353
0.000365658
0.000349045
0.000337138
0.000325197
0.000316194
0.000306639
0.00029697
0.000294889
0.000292883
0.000296462
0.000502097
0.000348384
0.000292946
0.000259226
0.000237135
0.000221147
0.000212181
0.000203863
0.000199146
0.000194854
0.000192565
0.000190819
0.000189069
0.000187936
0.000186993
0.000187623
0.000190687
0.000194439
7.27291e-05
7.0232e-05
6.7954e-05
6.563e-05
6.3399e-05
6.13315e-05
5.95283e-05
5.80235e-05
5.67342e-05
5.57835e-05
5.50598e-05
5.45771e-05
5.39968e-05
5.36037e-05
5.31472e-05
5.28913e-05
5.56392e-05
5.83308e-05
1.58117e-05
0.000109583
0.000134353
0.000153694
0.000175236
0.000197943
0.000211032
3.94508e-05
3.95496e-05
4.51924e-05
5.2036e-05
5.87208e-05
6.40293e-05
6.80282e-05
7.16226e-05
7.44157e-05
7.70713e-05
7.9198e-05
8.12905e-05
8.30272e-05
8.47696e-05
8.62588e-05
8.77697e-05
8.91021e-05
9.04515e-05
9.16799e-05
9.29191e-05
9.40835e-05
9.52546e-05
9.63265e-05
9.72247e-05
9.78841e-05
9.88908e-05
0.000100497
0.000101234
0.000100696
0.000105127
0.000107828
0.000109913
0.000106819
0.000106218
0.000104081
0.000111167
0.000105563
0.0001017
0.000105393
0.000113118
0.000111705
0.000111241
0.000109391
0.00010551
0.000100164
0.00010849
0.000100684
0.000102949
9.65853e-05
9.84168e-05
9.83868e-05
0.000105965
9.80681e-05
0.000103552
9.98708e-05
9.26464e-05
9.45997e-05
9.41566e-05
0.000100597
9.13376e-05
9.2745e-05
9.16682e-05
9.1354e-05
9.07056e-05
9.02351e-05
8.93837e-05
8.89302e-05
8.82071e-05
8.78668e-05
8.72589e-05
8.68229e-05
8.62258e-05
8.712e-05
8.55668e-05
8.54334e-05
8.43182e-05
8.47231e-05
8.42272e-05
8.30549e-05
8.0354e-05
7.82328e-05
7.63275e-05
7.42951e-05
7.23822e-05
7.17469e-05
7.24431e-05
7.43706e-05
7.68108e-05
7.92247e-05
8.11911e-05
8.22785e-05
8.20923e-05
8.038e-05
7.72595e-05
7.31811e-05
6.87911e-05
6.42021e-05
5.97644e-05
5.62727e-05
5.36137e-05
5.18274e-05
5.05266e-05
4.94032e-05
4.81226e-05
4.79841e-05
4.66156e-05
4.49866e-05
4.55334e-05
4.36849e-05
4.40518e-05
4.28012e-05
4.38206e-05
4.30478e-05
4.42633e-05
4.51359e-05
4.71821e-05
4.57519e-05
4.54401e-05
4.72099e-05
4.59356e-05
4.3705e-05
4.44578e-05
4.34856e-05
4.47299e-05
4.73315e-05
4.63044e-05
4.67636e-05
4.78626e-05
4.83166e-05
4.97841e-05
4.68402e-05
4.85808e-05
5.04676e-05
4.86172e-05
4.69582e-05
4.75709e-05
4.86446e-05
5.03341e-05
4.86196e-05
4.64989e-05
4.68911e-05
4.7034e-05
4.81698e-05
4.91389e-05
5.10845e-05
4.82728e-05
4.87797e-05
4.77045e-05
5.09202e-05
4.97477e-05
5.11937e-05
4.99616e-05
5.1439e-05
5.00967e-05
4.86648e-05
4.92642e-05
4.91352e-05
4.8078e-05
4.89616e-05
4.91838e-05
4.80619e-05
5.0894e-05
5.02189e-05
5.13204e-05
4.95535e-05
5.02769e-05
5.15002e-05
4.97634e-05
5.21083e-05
5.03894e-05
4.9384e-05
4.86123e-05
4.80976e-05
3.76937e-05
9.08294e-05
0.000123623
0.000132102
0.000123801
0.000115801
0.00011446
0.000116534
0.000132517
0.000145474
0.000158219
0.000172109
0.000186357
0.000203641
0.000221716
0.000240903
0.000261303
0.000282453
0.000304491
0.000326855
0.000349855
0.0003729
0.000396356
0.000419658
0.000443198
0.000466458
0.000489799
0.000512702
0.000535412
0.000557438
0.00057909
0.000600215
0.000620994
0.000640146
0.000657648
0.000673996
0.000688039
0.00070071
0.000711873
0.000718102
0.000723512
0.000728857
0.000744113
0.000761421
0.000766627
0.000773275
0.000797371
0.00079832
0.000799443
0.000790599
0.000786661
0.000779568
0.00078282
0.000780129
0.000779773
0.000789884
0.000781403
0.000780712
0.000786912
0.000788282
0.000783238
0.000773264
0.000765652
0.00075954
0.000760674
0.000759961
0.000750527
0.000746089
0.000741601
0.000736513
0.000730972
0.000725825
0.00071978
0.000714693
0.00070849
0.000703224
0.000696619
0.0006905
0.000684395
0.000679783
0.000673069
0.000668115
0.000662528
0.000659959
0.000656461
0.000652514
0.000645236
0.00063699
0.000626725
0.000614279
0.000600236
0.000586071
0.000572407
0.000560767
0.000556017
0.000556628
0.000558912
0.000561568
0.000561817
0.000558137
0.000547217
0.000527725
0.00050112
0.000468683
0.000433187
0.000398311
0.000365574
0.000338427
0.000315015
0.00029592
0.000279673
0.000268975
0.000258744
0.000250631
0.000243861
0.000238271
0.000233675
0.000229232
0.000223509
0.000218092
0.000218016
0.000213361
0.00020595
0.000206037
0.000203565
0.000203017
0.00019955
0.000197177
0.000196957
0.000191649
0.000190092
0.000186185
0.000184861
0.000181986
0.00018068
0.000178507
0.000171189
0.000170538
0.000169195
0.000168656
0.00016739
0.000165068
0.000164339
0.000157319
0.000157393
0.000157054
0.000152804
0.000148277
0.000149873
0.00014961
0.000143375
0.000138443
0.00013474
0.000138187
0.000138911
0.000137109
0.000138826
0.000137782
0.000138405
0.000138318
0.000136647
0.000135779
0.000133784
0.000132067
0.000129944
0.000129281
0.000126699
0.000121164
0.000120948
0.000122151
0.000121364
0.000116207
0.000117725
0.000114473
0.000115474
0.000109828
0.000110623
0.000110508
0.000111577
0.000107521
7.44393e-05
0.000162782
0.000193179
0.000197707
0.000200502
0.000209151
0.000224951
0.000243085
0.000266751
0.000296946
0.000335257
0.000373136
0.000425975
0.000468033
0.000512339
0.000557591
0.000602762
0.000647279
0.000690915
0.000733229
0.000774281
0.00081382
0.000852057
0.000888851
0.000924447
0.000958699
0.000991956
0.00102428
0.00105585
0.00108654
0.00111643
0.00114534
0.00117313
0.00119945
0.00122426
0.00124734
0.00126861
0.00128823
0.00130609
0.00132214
0.00133745
0.0013522
0.00136733
0.00138129
0.00139278
0.00140264
0.00140527
0.00140207
0.00141372
0.00141384
0.00141372
0.0014114
0.00140955
0.00140648
0.00140322
0.00140103
0.0013943
0.00138942
0.00138483
0.00137804
0.00136861
0.0013584
0.0013491
0.00134035
0.0013332
0.00132482
0.00131432
0.0013045
0.00129466
0.00128447
0.001274
0.00126346
0.0012526
0.00124178
0.00123051
0.00121919
0.00120727
0.00119521
0.00118307
0.00117106
0.00115848
0.00114625
0.00113426
0.00112337
0.00111275
0.00110215
0.00109042
0.00107769
0.00106357
0.0010478
0.00103052
0.00101219
0.000993266
0.000974694
0.000958499
0.000945511
0.000937491
0.000935664
0.000940892
0.000952361
0.000958529
0.000955428
0.000942046
0.000914115
0.000872234
0.000819812
0.000761017
0.000701988
0.000646008
0.000596165
0.000553399
0.000518563
0.000490478
0.000468331
0.000449317
0.000435177
0.000423862
0.000413457
0.000405936
0.000397751
0.000392118
0.000386381
0.000381509
0.000374435
0.000372563
0.000368988
0.000361358
0.000360196
0.000354238
0.00034859
0.000347195
0.000343557
0.000337666
0.000335669
0.000332572
0.000329116
0.000324585
0.000316875
0.000315821
0.000312366
0.000306842
0.000300606
0.000302016
0.000298995
0.000296035
0.000294283
0.000292581
0.000290596
0.000288402
0.000282824
0.00027958
0.000272039
0.00026771
0.000260717
0.000262178
0.000256418
0.000251822
0.000254616
0.000253917
0.000253096
0.000247383
0.000240236
0.000233312
0.000226712
0.000221872
0.000215897
0.000215251
0.000212775
0.000206791
0.000209451
0.000206799
0.000202405
0.000201736
0.000196367
0.000195754
0.000186688
0.000183318
0.000179507
0.000181789
0.000170385
0.000111087
0.00022074
0.000259621
0.00027566
0.000288926
0.000309487
0.000339252
0.000377759
0.000427085
0.000480088
0.000538277
0.000596672
0.000657875
0.000716283
0.000774321
0.00083082
0.000885241
0.000937353
0.000987107
0.00103457
0.00107991
0.0011233
0.001165
0.00120521
0.00124413
0.00128191
0.00131855
0.00135449
0.00138983
0.00142456
0.00145868
0.00149209
0.00152468
0.00155629
0.00158678
0.0016159
0.00164371
0.00167011
0.00169496
0.00171819
0.00173985
0.0017599
0.00177823
0.0017942
0.00180725
0.00181716
0.00182255
0.00182111
0.00183633
0.00184048
0.00184133
0.0018399
0.00183699
0.00183269
0.00182731
0.0018209
0.00181297
0.00180459
0.00179553
0.00178533
0.00177404
0.0017622
0.00175026
0.00173825
0.00172627
0.00171375
0.00170056
0.00168719
0.00167362
0.00165977
0.00164566
0.00163133
0.00161675
0.00160195
0.00158684
0.00157146
0.00155573
0.00153978
0.00152371
0.0015076
0.00149137
0.0014752
0.00145919
0.00144356
0.00142799
0.00141225
0.00139596
0.001379
0.00136122
0.00134246
0.00132275
0.00130278
0.00128231
0.00126124
0.00124004
0.00122033
0.00120399
0.0011922
0.00118771
0.00119321
0.00120529
0.00122309
0.00124324
0.00124779
0.00123539
0.00120319
0.00115268
0.00108725
0.0010132
0.000937203
0.000865102
0.000801013
0.000746611
0.000702103
0.000665812
0.000637092
0.000614307
0.000595914
0.000581228
0.000569007
0.000558958
0.000550496
0.000542949
0.000535912
0.000530498
0.000525121
0.000518718
0.000513112
0.000507444
0.000501837
0.000497105
0.000491988
0.000487143
0.000481758
0.000479615
0.000475204
0.000469115
0.000465185
0.000458235
0.000456157
0.000450933
0.000446623
0.000443269
0.000442645
0.000439927
0.000433894
0.000433564
0.000426572
0.00042533
0.000418781
0.000416535
0.000410822
0.00040744
0.00040001
0.000398265
0.000393803
0.000389969
0.000387094
0.000383389
0.000377146
0.000374845
0.000367741
0.000359432
0.000351272
0.0003436
0.000336759
0.000329468
0.000324046
0.000316188
0.000312971
0.000309067
0.00030417
0.000300051
0.000294222
0.000291926
0.000282283
0.000279069
0.0002738
0.000275688
0.000260115
0.000133452
0.000259564
0.000316073
0.000352184
0.000380989
0.000419174
0.000468589
0.000524596
0.000589918
0.000657739
0.000727649
0.000797827
0.000867131
0.000933703
0.000997594
0.00105843
0.00111605
0.00117049
0.00122108
0.00126877
0.001314
0.00135714
0.00139857
0.00143868
0.00147785
0.00151653
0.00155406
0.00159091
0.00162717
0.00166287
0.001698
0.00173252
0.00176638
0.00179954
0.00183196
0.00186365
0.00189426
0.00192357
0.00195142
0.00197763
0.00200207
0.00202461
0.0020451
0.00206328
0.0020789
0.00209026
0.00208817
0.00209727
0.0021134
0.00211913
0.002121
0.00212029
0.00211756
0.00211305
0.00210701
0.00209955
0.00209079
0.002081
0.00207026
0.00205859
0.00204611
0.00203298
0.00201939
0.00200543
0.00199115
0.00197649
0.00196144
0.00194607
0.00193038
0.0019144
0.00189812
0.00188154
0.00186468
0.00184751
0.00183004
0.00181228
0.00179425
0.00177599
0.00175755
0.00173896
0.00172024
0.00170145
0.00168266
0.00166402
0.00164523
0.00162621
0.00160685
0.00158708
0.00156684
0.00154604
0.00152474
0.00150449
0.00148265
0.00146008
0.00143619
0.00141389
0.00139373
0.00137686
0.00136442
0.00136217
0.00136899
0.00138404
0.00140637
0.00143175
0.00145771
0.00146955
0.00145671
0.00141706
0.00135388
0.00127315
0.00118546
0.00109823
0.00101771
0.0009475
0.000888581
0.000840676
0.000802418
0.000772044
0.000748125
0.000728863
0.000713414
0.000700803
0.000690235
0.000681116
0.000673433
0.000666194
0.000659369
0.000652847
0.000646681
0.000640604
0.000635348
0.000629541
0.000624637
0.000619287
0.000614838
0.000609917
0.000604762
0.000599779
0.000594368
0.000589773
0.000585522
0.000582197
0.000578702
0.000575494
0.000572114
0.000567394
0.000565512
0.000559019
0.000557089
0.000550679
0.000547591
0.000542173
0.00053659
0.000534368
0.000529491
0.000524193
0.000523221
0.000519306
0.00051453
0.000505948
0.000503632
0.000499112
0.000492081
0.000484495
0.000477235
0.000472081
0.00046331
0.000459845
0.000451396
0.000449561
0.000441803
0.000433102
0.000424083
0.000422197
0.000418333
0.00040612
0.000394917
0.000383011
0.000381879
0.00036664
0.000140906
0.000286898
0.000359984
0.000417931
0.000474591
0.000531421
0.000595704
0.000667773
0.000744446
0.000822416
0.000900285
0.000976985
0.00105083
0.00111988
0.0011848
0.00124573
0.00130286
0.00135658
0.00140645
0.00145319
0.00149724
0.00153899
0.0015788
0.00161695
0.00165364
0.00168885
0.00172315
0.00175708
0.00179092
0.0018248
0.00185875
0.00189278
0.00192681
0.00196073
0.00199437
0.00202751
0.00205986
0.0020912
0.00212131
0.00215001
0.00217713
0.00220256
0.00222624
0.00224815
0.00226686
0.00227294
0.00227578
0.00229605
0.00230739
0.00231374
0.00231662
0.00231677
0.00231458
0.00231031
0.00230417
0.00229635
0.00228705
0.00227645
0.00226471
0.00225196
0.00223834
0.00222398
0.00220901
0.00219352
0.00217759
0.00216125
0.00214453
0.00212745
0.00211003
0.00209226
0.00207415
0.00205573
0.002037
0.00201797
0.00199867
0.0019791
0.00195928
0.00193924
0.00191901
0.0018986
0.00187803
0.00185734
0.00183655
0.00181569
0.00179472
0.00177358
0.00175223
0.00173064
0.00170876
0.00168654
0.00166394
0.0016412
0.00161812
0.00159479
0.00157136
0.00154845
0.00152715
0.00150855
0.00149349
0.00148792
0.00149143
0.00150277
0.00152098
0.00154593
0.00157637
0.00160876
0.00163935
0.00164059
0.00161196
0.00155739
0.00147741
0.00138321
0.00128529
0.00119161
0.00110916
0.00103934
0.000982086
0.000936102
0.00089972
0.000870825
0.000847957
0.0008297
0.00081501
0.000802876
0.000792877
0.000784116
0.00077635
0.000769288
0.000762818
0.000756721
0.000751226
0.000745657
0.000740578
0.000735464
0.000730692
0.000725535
0.000720476
0.000715376
0.000710026
0.000705602
0.000701404
0.000697501
0.000693836
0.000690133
0.000685802
0.000681257
0.000676938
0.000673669
0.00067037
0.000666291
0.000662721
0.000658386
0.000653405
0.000649627
0.00064678
0.000642824
0.000641404
0.000638091
0.00063265
0.000624916
0.000621595
0.000617085
0.000610304
0.000605362
0.000601887
0.000601468
0.0005935
0.000583062
0.000580481
0.000575502
0.000570199
0.000560828
0.000551124
0.000547158
0.000541983
0.000531067
0.000518593
0.000501537
0.000495238
0.000479769
0.000144085
0.000304714
0.000406056
0.000483373
0.000558577
0.00063336
0.000712509
0.000796977
0.000882585
0.000967546
0.00105081
0.00113004
0.00120502
0.0012751
0.00134026
0.00140052
0.00145596
0.00150653
0.00155249
0.00159443
0.00163325
0.00166958
0.00170399
0.00173703
0.00176924
0.00180119
0.00183348
0.00186616
0.00189927
0.00193287
0.00196697
0.0020015
0.00203637
0.00207142
0.00210646
0.00214126
0.00217558
0.00220919
0.00224183
0.00227329
0.00230337
0.00233195
0.00235893
0.00238371
0.00239628
0.00240121
0.00242148
0.00244397
0.00245654
0.00246433
0.00246858
0.00246984
0.00246843
0.00246459
0.00245858
0.00245059
0.00244085
0.00242957
0.00241695
0.00240316
0.00238838
0.00237273
0.00235636
0.00233938
0.00232187
0.00230389
0.00228549
0.00226669
0.00224753
0.00222802
0.00220821
0.0021881
0.00216771
0.00214707
0.00212618
0.00210505
0.0020837
0.00206215
0.0020404
0.00201848
0.00199639
0.00197416
0.00195179
0.00192929
0.00190667
0.00188391
0.00186099
0.00183792
0.00181466
0.00179116
0.00176738
0.00174337
0.00171919
0.00169495
0.00167091
0.00164744
0.0016256
0.00160638
0.00159076
0.00158491
0.00158756
0.0015974
0.00161333
0.00163487
0.00166219
0.00169478
0.00173169
0.00176666
0.00177921
0.00175913
0.00170686
0.00162758
0.00153062
0.00142931
0.00132922
0.00123819
0.0011598
0.0010948
0.00104228
0.00100039
0.000967306
0.000941249
0.000920715
0.000904344
0.000891202
0.000880321
0.000871079
0.000863133
0.000856214
0.000850123
0.000844601
0.000839484
0.000834537
0.000829734
0.000824942
0.000819857
0.000814801
0.00080951
0.000804059
0.000798943
0.000794332
0.000789839
0.000786223
0.000781943
0.000777757
0.000772789
0.000769
0.000764697
0.000761994
0.000758606
0.000754547
0.000750563
0.000746457
0.000742987
0.000739634
0.000737276
0.000734507
0.000731707
0.000726955
0.000723005
0.00071642
0.000711126
0.000711203
0.000708262
0.000703319
0.000703283
0.000697798
0.000687351
0.00068501
0.000680423
0.000675134
0.000666513
0.000659326
0.000652512
0.000648232
0.000639093
0.000632072
0.000621263
0.000608626
0.000589739
0.000138836
0.000315231
0.000440067
0.000538967
0.000632062
0.000722264
0.000815739
0.00090913
0.00100125
0.00109119
0.00117669
0.0012575
0.00133241
0.00140053
0.00146218
0.00151765
0.00156734
0.00161196
0.00165239
0.00168976
0.00172449
0.00175722
0.00178862
0.0018193
0.00184982
0.00188063
0.00191205
0.00194425
0.00197731
0.00201127
0.00204609
0.00208168
0.00211791
0.00215461
0.00219157
0.00222857
0.00226535
0.00230164
0.0023372
0.00237177
0.00240514
0.00243725
0.00246888
0.00249095
0.0025029
0.00252526
0.00255254
0.00257155
0.00258536
0.00259501
0.00260102
0.00260375
0.00260344
0.00260032
0.00259465
0.00258666
0.00257661
0.00256475
0.00255131
0.0025365
0.00252052
0.00250355
0.00248574
0.00246721
0.00244808
0.00242842
0.00240831
0.00238781
0.00236697
0.00234582
0.0023244
0.00230273
0.00228081
0.00225867
0.00223631
0.00221373
0.00219095
0.00216797
0.0021448
0.00212145
0.00209793
0.00207425
0.00205042
0.00202644
0.00200232
0.00197806
0.00195366
0.00192913
0.00190446
0.00187961
0.00185452
0.00182924
0.00180384
0.00177848
0.00175344
0.0017291
0.0017066
0.00168678
0.00167161
0.00166609
0.0016686
0.00167783
0.00169264
0.00171225
0.00173631
0.00176513
0.00179912
0.00183695
0.00187356
0.00189088
0.00187354
0.00182204
0.00174207
0.00164366
0.00153729
0.00143267
0.00133673
0.00125322
0.00118326
0.00112619
0.00108056
0.00104455
0.00101635
0.000994246
0.000976878
0.000962988
0.00095169
0.000942509
0.000934972
0.000928788
0.000923383
0.000918604
0.000913991
0.000909398
0.000904622
0.000899465
0.000894108
0.000888583
0.000882865
0.000877242
0.000871923
0.000866886
0.000862219
0.000857513
0.000852845
0.000847817
0.000843285
0.000838627
0.000834447
0.000830318
0.000826247
0.000822581
0.000818902
0.000815509
0.000812272
0.000809465
0.000807138
0.000803891
0.000801305
0.000796554
0.000790457
0.000785894
0.000783315
0.000780154
0.000779661
0.000774566
0.000771042
0.000765066
0.000759981
0.000759993
0.000755662
0.00074622
0.000739943
0.000734143
0.000729858
0.00072482
0.000723438
0.000715698
0.000706059
0.00068323
0.000131098
0.000317071
0.000465021
0.000585265
0.000694073
0.000799148
0.000902174
0.00100224
0.00109925
0.00119038
0.00127648
0.00135567
0.00142742
0.00149205
0.00154974
0.00160103
0.00164665
0.00168746
0.00172437
0.00175829
0.00179
0.00182025
0.00184974
0.0018791
0.00190883
0.00193932
0.00197082
0.00200349
0.00203738
0.00207249
0.00210875
0.00214605
0.00218421
0.00222306
0.00226237
0.0023019
0.00234141
0.00238063
0.00241928
0.00245709
0.00249377
0.00253106
0.00256404
0.0025849
0.00260884
0.00264142
0.00266717
0.00268792
0.00270425
0.0027165
0.0027249
0.00272964
0.00273092
0.00272896
0.00272401
0.00271635
0.00270627
0.00269405
0.00267996
0.00266426
0.0026472
0.00262898
0.00260979
0.00258979
0.00256913
0.00254792
0.00252626
0.00250422
0.00248186
0.00245923
0.00243634
0.00241322
0.00238989
0.00236634
0.00234258
0.00231862
0.00229446
0.00227009
0.00224553
0.00222078
0.00219584
0.00217073
0.00214545
0.00212
0.0020944
0.00206864
0.00204275
0.00201673
0.00199058
0.00196426
0.00193774
0.00191105
0.00188425
0.00185754
0.00183123
0.00180574
0.00178227
0.00176156
0.00174695
0.00174146
0.0017436
0.0017521
0.0017659
0.00178408
0.00180605
0.00183157
0.0018612
0.00189537
0.00193286
0.001969
0.00198647
0.00196889
0.00191685
0.00183601
0.00173564
0.00162635
0.00151788
0.00141741
0.00132912
0.00125462
0.00119369
0.00114499
0.00110669
0.00107682
0.00105365
0.0010355
0.00102131
0.00101029
0.00100174
0.000995079
0.000989547
0.000984837
0.000980363
0.000975852
0.000971048
0.00096583
0.000960252
0.000954419
0.000948354
0.000942292
0.000936335
0.000930633
0.000925125
0.000919798
0.000914605
0.000909323
0.000904262
0.000899239
0.000894335
0.000889743
0.000885186
0.000880946
0.000877196
0.00087345
0.000869963
0.000867003
0.000863696
0.000860002
0.00085584
0.000851247
0.00084621
0.000841708
0.000838271
0.000834973
0.000831858
0.000828495
0.00082414
0.000819962
0.000816299
0.000813821
0.00081065
0.000806415
0.000801933
0.000797893
0.000793919
0.000788959
0.000786759
0.000780437
0.000776918
0.000759512
0.000125206
0.000319394
0.000485552
0.000623266
0.000746597
0.000861881
0.000970843
0.00107433
0.00117246
0.0012659
0.00135152
0.00142879
0.00149787
0.00155919
0.00161336
0.00166114
0.00170344
0.00174121
0.00177542
0.00180702
0.00183687
0.00186578
0.00189445
0.00192347
0.0019533
0.00198427
0.00201661
0.00205042
0.00208572
0.00212247
0.00216058
0.0021999
0.00224026
0.00228145
0.00232325
0.00236541
0.00240769
0.00244982
0.00249157
0.00253274
0.00257244
0.00261534
0.0026501
0.00267533
0.00270735
0.00274284
0.00277167
0.00279585
0.00281572
0.00283138
0.00284289
0.00285034
0.00285387
0.00285367
0.00285002
0.00284319
0.00283351
0.0028213
0.00280691
0.00279063
0.00277275
0.00275355
0.00273326
0.00271207
0.00269017
0.00266768
0.00264472
0.00262137
0.00259771
0.00257377
0.00254959
0.00252518
0.00250056
0.00247573
0.00245068
0.00242542
0.00239995
0.00237427
0.00234837
0.00232227
0.00229597
0.00226946
0.00224277
0.00221589
0.00218884
0.00216162
0.00213425
0.00210675
0.00207912
0.00205132
0.00202333
0.00199517
0.00196692
0.00193878
0.00191106
0.00188431
0.00185965
0.0018378
0.00182335
0.00181745
0.00181876
0.00182614
0.00183859
0.00185524
0.00187535
0.00189849
0.00192459
0.00195421
0.00198776
0.00202395
0.00205814
0.00207403
0.00205541
0.00200264
0.00192082
0.00181855
0.00170622
0.00159364
0.00148842
0.00139543
0.00131684
0.00125255
0.00120132
0.0011611
0.00113005
0.00110596
0.0010876
0.00107366
0.00106316
0.00105527
0.00104885
0.00104377
0.00103893
0.00103414
0.00102898
0.00102357
0.00101775
0.00101157
0.00100507
0.000998666
0.000992242
0.000985942
0.000979706
0.000973707
0.000967937
0.000962215
0.000956613
0.000951032
0.00094546
0.000940131
0.000934928
0.0009299
0.00092536
0.000921004
0.000916779
0.000912931
0.000908962
0.000904813
0.000900406
0.000895805
0.00089111
0.000886588
0.000882742
0.00087907
0.000875386
0.000871962
0.000868058
0.000864321
0.000860928
0.000858086
0.00085516
0.000851989
0.000848654
0.0008448
0.000841056
0.000836312
0.000833356
0.000827797
0.000824143
0.00081426
0.000121253
0.000321926
0.000502658
0.000654167
0.000788222
0.000910206
0.0010234
0.00112961
0.00123068
0.00132178
0.00140578
0.00148087
0.00154738
0.00160593
0.00165733
0.00170251
0.00174245
0.00177818
0.00181072
0.00184103
0.00187
0.00189846
0.00192706
0.00195637
0.00198681
0.00201866
0.0020521
0.00208721
0.00212399
0.00216239
0.00220231
0.00224359
0.00228606
0.00232952
0.00237372
0.00241842
0.00246337
0.00250833
0.00255303
0.0025974
0.00264017
0.00268725
0.00272316
0.00275714
0.00279761
0.00283384
0.00286616
0.00289448
0.00291865
0.00293849
0.00295389
0.00296481
0.00297135
0.00297364
0.00297195
0.00296658
0.0029579
0.00294627
0.00293209
0.00291572
0.0028975
0.00287776
0.00285677
0.00283476
0.00281195
0.00278849
0.00276451
0.00274012
0.00271539
0.00269036
0.00266508
0.00263956
0.00261381
0.00258784
0.00256165
0.00253522
0.00250857
0.00248168
0.00245456
0.00242722
0.00239965
0.00237186
0.00234386
0.00231566
0.00228726
0.00225868
0.00222993
0.00220105
0.00217203
0.00214286
0.00211348
0.00208394
0.00205431
0.0020248
0.00199573
0.00196774
0.00194188
0.00191891
0.00190425
0.00189761
0.00189776
0.00190368
0.00191444
0.00192927
0.00194743
0.0019684
0.00199182
0.00201778
0.0020467
0.002079
0.00211324
0.00214487
0.00215952
0.00214045
0.00208739
0.00200446
0.00189977
0.00178359
0.00166609
0.00155589
0.00145856
0.00137627
0.0013092
0.00125572
0.00121434
0.0011821
0.00115787
0.00113943
0.00112568
0.00111551
0.00110707
0.00110127
0.00109521
0.0010897
0.00108363
0.00107784
0.00107178
0.00106502
0.0010578
0.0010513
0.00104441
0.00103739
0.00103022
0.0010234
0.00101694
0.00101055
0.00100418
0.000997591
0.000991043
0.000984632
0.000978435
0.000972388
0.000966768
0.000961501
0.000956443
0.000951647
0.000946925
0.00094218
0.000937413
0.000932577
0.000927753
0.000922986
0.000918622
0.000914452
0.000910364
0.000906537
0.000902723
0.000899125
0.000895659
0.000892545
0.000889478
0.000886277
0.000883148
0.000879751
0.000876034
0.00087167
0.000868108
0.000862961
0.000859001
0.000851362
0.00011825
0.000323076
0.00051092
0.000675791
0.000817413
0.0009434
0.00105838
0.00116499
0.00126468
0.00135742
0.00144115
0.00151487
0.00157956
0.00163618
0.00168574
0.00172926
0.00176781
0.00180243
0.00183415
0.00186394
0.00189267
0.00192113
0.00194997
0.00197972
0.00201074
0.00204332
0.00207759
0.00211362
0.00215142
0.00219097