/*--------------------------------*- C++ -*----------------------------------*\
  =========                 |
  \\      /  F ield         | OpenFOAM: The Open Source CFD Toolbox
   \\    /   O peration     | Website:  https://openfoam.org
    \\  /    A nd           | Version:  9
     \\/     M anipulation  |
\*---------------------------------------------------------------------------*/
FoamFile
{
    format      ascii;
    class       surfaceScalarField;
    location    "0.2";
    object      alphaPhi0.water;
}
// * * * * * * * * * * * * * * * * * * * * * * * * * * * * * * * * * * * * * //

dimensions      [0 3 -1 0 0 0 0];

internalField   nonuniform List<scalar> 
3782
(
6.55762e-25
-6.58383e-25
6.76678e-26
-8.99423e-26
6.44488e-27
-1.08947e-26
5.77981e-28
-1.19752e-27
4.87184e-29
-1.20818e-28
3.84958e-30
-1.12539e-29
2.84645e-31
-9.70819e-31
1.96524e-32
-7.76692e-32
1.26433e-33
-5.76545e-33
7.5648e-35
-3.97661e-34
4.2011e-36
-2.54513e-35
2.16123e-37
-1.50761e-36
1.02801e-38
-8.25733e-38
4.51271e-40
-4.17735e-39
1.82491e-41
-1.94965e-40
6.7876e-43
-8.3843e-42
2.31834e-44
-3.32897e-43
7.25549e-46
-1.21175e-44
2.0781e-47
-4.0314e-46
5.44129e-49
-1.23312e-47
1.30011e-50
-3.45551e-49
2.8324e-52
-8.85675e-51
5.68978e-54
-2.07436e-52
1.0458e-55
-4.48772e-54
1.74687e-57
-8.89386e-56
2.65059e-59
-1.60449e-57
3.65135e-61
-2.63307e-59
4.56378e-63
-3.92749e-61
5.17878e-65
-5.31941e-63
5.34531e-67
-6.54284e-65
5.03351e-69
-7.31751e-67
4.34466e-71
-7.32418e-69
3.42921e-73
-6.41328e-71
2.48634e-75
-5.13664e-73
1.66358e-77
-3.752e-75
1.03444e-79
-2.50307e-77
5.99897e-82
-1.52446e-79
3.28515e-84
-8.49901e-82
1.70668e-86
-4.38607e-84
8.43844e-89
-2.10218e-86
4.26655e-91
-9.42925e-89
1.14529e-92
-4.31986e-91
-2.48399e-93
-4.17184e-25
9.56224e-25
-1.49326e-25
7.3033e-25
-1.79747e-26
3.77717e-25
1.42947e-25
9.24164e-27
-6.23568e-26
9.21977e-26
-2.68226e-26
6.7958e-26
-6.82061e-27
3.41406e-26
1.25776e-26
-8.23929e-28
-7.86825e-27
8.36377e-27
-3.59027e-27
5.9752e-27
-1.06012e-27
2.92232e-27
1.04979e-27
-2.03036e-28
-8.81318e-28
7.16432e-28
-4.09798e-28
4.96716e-28
-1.27494e-28
2.36895e-28
8.3096e-29
-2.74085e-29
-8.95664e-29
5.78462e-29
-4.1716e-29
3.89804e-29
-1.32262e-29
1.81607e-29
6.23156e-30
-2.96965e-30
-8.34899e-30
4.3938e-30
-3.86325e-30
2.88304e-30
-1.23011e-30
1.31467e-30
4.42129e-31
-2.81036e-31
-7.18016e-31
3.13357e-31
-3.28791e-31
2.00638e-31
-1.04401e-31
8.97347e-32
2.96372e-32
-2.39918e-32
-5.71498e-32
2.09417e-32
-2.58579e-32
1.31163e-32
-8.16021e-33
5.76634e-33
1.87432e-33
-1.87607e-33
-4.21669e-33
1.30899e-33
-1.88488e-33
8.04101e-34
-5.90381e-34
3.48304e-34
1.11671e-34
-1.35464e-34
-2.88592e-34
7.63877e-35
-1.27543e-34
4.61495e-35
-3.96467e-35
1.97447e-35
6.25879e-36
-9.07271e-36
-1.8321e-35
4.15349e-36
-8.0165e-36
2.47535e-36
-2.47486e-36
1.04879e-36
3.29502e-37
-5.65016e-37
-1.07835e-36
2.10002e-37
-4.68035e-37
1.23874e-37
-1.4369e-37
5.21183e-38
1.62709e-38
-3.27608e-38
-5.8801e-38
9.85578e-39
-2.53729e-38
5.77393e-39
-7.75991e-39
2.41927e-39
7.52533e-40
-1.76949e-39
-2.96771e-39
4.28632e-40
-1.27637e-39
2.50262e-40
-3.89676e-40
1.04741e-40
3.25535e-41
-8.90353e-41
-1.38482e-40
1.72445e-41
-5.95296e-41
1.00709e-41
-1.81855e-41
4.22332e-42
1.31537e-42
-4.17232e-42
-5.96749e-42
6.40684e-43
-2.57172e-42
3.75693e-43
-7.8816e-43
1.58381e-43
4.95825e-44
-1.82005e-43
-2.37177e-43
2.19474e-44
-1.02804e-43
1.29741e-44
-3.1697e-44
5.51698e-45
1.74152e-45
-7.38614e-45
-8.68395e-45
6.92447e-46
-3.79868e-45
4.14221e-46
-1.18186e-45
1.78295e-46
5.69348e-47
-2.78665e-46
-2.92548e-46
2.00913e-47
-1.29612e-46
1.22118e-47
-4.08214e-47
5.3401e-48
1.73088e-48
-9.7672e-48
-9.05683e-48
5.35321e-49
-4.07955e-48
3.32096e-49
-1.30502e-48
1.48092e-49
4.88917e-50
-3.17818e-49
-2.57375e-49
1.30876e-50
-1.18336e-49
8.32312e-51
-3.85843e-50
3.79967e-51
1.28233e-51
-9.59448e-51
-6.70664e-51
2.93318e-52
-3.16065e-51
1.92099e-52
-1.05432e-51
9.01417e-53
3.12896e-53
-2.68566e-52
-1.60082e-52
6.02042e-54
-7.76657e-53
4.08069e-54
-2.66144e-53
1.97642e-54
7.13849e-55
-6.96918e-54
-3.49655e-54
1.13088e-55
-1.75452e-54
7.9753e-56
-6.20299e-55
4.00398e-56
1.50452e-56
-1.67584e-55
-6.98278e-56
1.94398e-57
-3.64204e-56
1.43379e-57
-1.33367e-56
7.49466e-58
2.92568e-58
-3.73103e-57
-1.2739e-57
3.05762e-59
-6.94344e-58
2.37112e-59
-2.6443e-58
1.2964e-59
5.24904e-60
-7.68898e-59
-2.1213e-59
4.44795e-61
-1.2153e-59
3.60803e-61
-4.8339e-60
2.07324e-61
8.68977e-62
-1.4666e-60
-3.2559e-61
5.92387e-63
-1.95238e-61
5.05501e-63
-8.14677e-62
3.06762e-63
1.34777e-63
-2.58929e-62
-4.55265e-63
7.22318e-65
-2.87829e-63
6.52736e-65
-1.26656e-63
4.20397e-65
1.95011e-65
-4.23265e-64
-5.78565e-65
8.0764e-67
-3.89416e-65
7.77867e-67
-1.8169e-65
5.34378e-67
2.62913e-67
-6.40899e-66
-6.66043e-67
8.28216e-69
-4.83598e-67
8.56947e-69
-2.40554e-67
6.3121e-69
3.3087e-69
-8.99963e-68
-7.0055e-69
7.76555e-71
-5.5136e-69
8.73917e-71
-2.94166e-69
6.94469e-71
3.89631e-71
-1.17249e-69
-7.02294e-71
6.72556e-73
-5.77081e-71
8.26732e-73
-3.32564e-71
7.13747e-73
4.30586e-73
-1.41866e-71
-6.45648e-73
5.38658e-75
-5.54571e-73
7.29431e-75
-3.47998e-73
6.87681e-75
4.48116e-75
-1.59632e-73
-5.45941e-75
4.00901e-77
-4.88793e-75
6.02485e-77
-3.37561e-75
6.23815e-77
4.40997e-77
-1.67321e-75
-4.25273e-77
2.79865e-79
-3.93073e-77
4.68604e-79
-3.04119e-77
5.35379e-79
4.12384e-79
-1.63714e-77
-2.9226e-79
1.84067e-81
-3.02861e-79
3.4599e-81
-2.55067e-79
4.36982e-81
3.68494e-81
-1.49949e-79
-1.82628e-81
1.14852e-83
-2.25195e-81
2.44052e-83
-1.99803e-81
3.41872e-83
3.1667e-83
-1.29077e-81
-1.06839e-83
6.87132e-86
-1.57558e-83
1.65908e-85
-1.46849e-83
2.58629e-85
2.63592e-85
-1.05059e-83
-5.89307e-86
3.99182e-88
-1.04867e-85
1.09959e-87
-1.01755e-85
1.90923e-87
2.14115e-87
-8.16529e-86
-3.11589e-88
2.36275e-90
-6.51524e-88
7.31614e-90
-6.94229e-88
1.48805e-89
2.10561e-89
-6.15782e-88
-1.68452e-90
1.02008e-91
-3.95668e-90
6.93425e-91
-5.27792e-90
2.64701e-90
6.28927e-90
-5.67672e-90
-1.10349e-92
-3.49113e-92
-7.38494e-92
-6.68742e-92
5.54234e-27
4.35512e-26
1.69351e-27
9.35516e-27
3.65049e-28
1.67125e-27
6.22782e-29
2.53865e-28
8.82432e-30
3.33781e-29
1.06755e-30
3.84997e-30
1.12298e-31
3.93668e-31
1.0406e-32
3.59847e-32
8.57791e-34
2.96068e-33
6.33842e-35
2.20505e-34
4.22417e-36
1.49375e-35
2.55173e-37
9.24143e-37
1.403e-38
5.23976e-38
7.04537e-40
2.73084e-39
3.24064e-41
1.31164e-40
1.36863e-42
5.81876e-42
5.31792e-44
2.38878e-43
1.90416e-45
9.08996e-45
6.29122e-47
3.21062e-46
1.91979e-48
1.05379e-47
5.41426e-50
3.21708e-49
1.41161e-51
9.14125e-51
3.40206e-53
2.41866e-52
7.57516e-55
5.95986e-54
1.55674e-56
1.36744e-55
2.94781e-58
2.91967e-57
5.13099e-60
5.79481e-59
8.18206e-62
1.06727e-60
1.18987e-63
1.81948e-62
1.56833e-65
2.86095e-64
1.85811e-67
4.12894e-66
1.95667e-69
5.43281e-68
1.80329e-71
6.45801e-70
1.42323e-73
6.84835e-72
9.31937e-76
6.36488e-74
4.8223e-78
5.05292e-76
1.81806e-80
3.29474e-78
4.27458e-83
1.65396e-80
4.21963e-86
5.64897e-83
9.33221e-86
1.12365e-28
3.7177e-27
7.47455e-29
7.71479e-28
1.9547e-29
1.34001e-28
3.61443e-30
1.99083e-29
5.3302e-31
2.56494e-30
6.58528e-32
2.90355e-31
7.00276e-33
2.91773e-32
6.5212e-34
2.62414e-33
5.38265e-35
2.1265e-34
3.97352e-36
1.56134e-35
2.6417e-37
1.04359e-36
1.59047e-38
6.37515e-38
8.7107e-40
3.57168e-39
4.35586e-41
1.84059e-40
1.9949e-42
8.7468e-42
8.38875e-44
3.84155e-43
3.24577e-45
1.56226e-44
1.15752e-46
5.89246e-46
3.80994e-48
2.06414e-47
1.15859e-49
6.72335e-49
3.25738e-51
2.03817e-50
8.46989e-53
5.7546e-52
2.03678e-54
1.51395e-53
4.52757e-56
3.71206e-55
9.29436e-58
8.48134e-57
1.75923e-59
1.80481e-58
3.06312e-61
3.57329e-60
4.89018e-63
6.57144e-62
7.12623e-65
1.11982e-63
9.42178e-67
1.76209e-65
1.12095e-68
2.54808e-67
1.18681e-70
3.36392e-69
1.10118e-72
4.01791e-71
8.76233e-75
4.28795e-73
5.79357e-77
4.01734e-75
3.03195e-79
3.22059e-77
1.15793e-81
2.12441e-79
2.76196e-84
1.08074e-81
2.76655e-87
3.74571e-84
6.2665e-87
-1.98197e-29
3.0271e-28
5.55907e-31
6.08845e-29
7.0217e-31
1.01979e-29
1.68789e-31
1.47443e-30
2.76175e-32
1.85894e-31
3.59291e-33
2.06456e-32
3.92915e-34
2.03816e-33
3.71604e-35
1.80293e-34
3.09257e-36
1.43848e-35
2.29156e-37
1.04084e-36
1.52488e-38
6.86164e-38
9.17208e-40
4.1375e-39
5.01258e-41
2.28971e-40
2.49926e-42
1.16632e-41
1.14073e-43
5.48211e-43
4.77937e-45
2.38294e-44
1.84232e-46
9.59693e-46
6.54577e-48
3.58685e-47
2.14682e-49
1.24583e-48
6.50653e-51
4.02604e-50
1.82371e-52
1.21167e-51
4.72931e-54
3.39862e-53
1.13472e-55
8.88895e-55
2.51801e-57
2.16836e-56
5.16322e-59
4.933e-58
9.7685e-61
1.04613e-59
1.7014e-62
2.06607e-61
2.71945e-64
3.79408e-63
3.97144e-66
6.46322e-65
5.26769e-68
1.01792e-66
6.29487e-70
1.47523e-68
6.70287e-72
1.95467e-70
6.26366e-74
2.34683e-72
5.02739e-76
2.52176e-74
3.35835e-78
2.38304e-76
1.77865e-80
1.93047e-78
6.88612e-83
1.28918e-80
1.66755e-85
6.65156e-83
1.69567e-88
2.34125e-85
3.96723e-88
-3.82351e-30
2.34232e-29
-3.47138e-31
4.58721e-30
-7.64431e-33
7.4607e-31
4.49947e-33
1.03949e-31
1.09328e-33
1.2743e-32
1.64052e-34
1.38362e-33
1.92164e-35
1.34161e-34
1.88691e-36
1.16703e-35
1.60454e-37
9.16558e-37
1.20379e-38
6.53423e-38
8.06522e-40
4.24768e-39
4.86694e-41
2.52763e-40
2.66217e-42
1.38141e-41
1.32646e-43
6.9538e-43
6.04397e-45
3.2322e-44
2.52627e-46
1.39023e-45
9.71111e-48
5.5437e-47
3.44012e-49
2.05279e-48
1.12485e-50
7.06844e-50
3.39919e-52
2.26597e-51
9.50149e-54
6.76955e-53
2.45793e-55
1.88615e-54
5.88527e-57
4.9039e-56
1.30393e-58
1.19009e-57
2.67107e-60
2.69579e-59
5.05192e-62
5.6975e-61
8.80321e-64
1.12253e-62
1.40899e-65
2.05865e-64
2.06255e-67
3.50642e-66
2.74534e-69
5.52873e-68
3.29626e-71
8.03294e-70
3.53141e-73
1.06868e-71
3.32516e-75
1.2904e-73
2.69348e-77
1.39692e-75
1.81892e-79
1.33236e-77
9.75526e-82
1.09146e-79
3.83093e-84
7.38489e-82
9.42226e-87
3.86742e-84
9.72381e-90
1.38338e-86
2.37371e-89
-4.58496e-31
1.72067e-30
-5.36732e-32
3.28814e-31
-4.53371e-33
5.21261e-32
-1.9898e-34
7.06124e-33
1.64893e-35
8.36107e-34
5.22505e-36
8.79154e-35
7.57244e-37
8.32225e-36
8.17934e-38
7.11606e-37
7.32137e-39
5.50109e-38
5.65929e-40
3.86371e-39
3.8603e-41
2.47652e-40
2.35471e-42
1.45418e-41
1.29601e-43
7.84785e-43
6.47819e-45
3.90369e-44
2.95524e-46
1.79416e-45
1.23502e-47
7.63546e-47
4.74231e-49
3.01446e-48
1.67716e-50
1.10583e-49
5.47315e-52
3.77466e-51
1.65044e-53
1.20033e-52
4.60379e-55
3.55955e-54
1.18869e-56
9.85166e-56
2.84166e-58
2.54625e-57
6.28852e-60
6.14783e-59
1.28738e-61
1.38673e-60
2.43495e-63
2.92125e-62
4.24646e-65
5.74266e-64
6.80831e-67
1.05202e-65
9.99382e-69
1.79213e-67
1.33543e-70
2.82998e-69
1.61178e-72
4.12403e-71
1.73823e-74
5.51158e-73
1.6501e-76
6.69688e-75
1.34978e-78
7.30849e-77
9.22046e-81
7.04072e-79
5.01088e-83
5.83713e-81
1.99709e-85
4.00482e-83
4.99033e-88
2.13049e-85
5.22464e-91
7.74948e-88
1.34604e-90
-4.5124e-32
1.19868e-31
-5.71804e-33
2.23997e-32
-5.77495e-34
3.46795e-33
-4.52367e-35
4.58377e-34
-2.38079e-36
5.28269e-35
-9.86439e-39
5.38496e-36
1.72887e-38
4.91222e-37
2.67889e-39
4.10332e-38
2.76238e-40
3.11035e-39
2.29604e-41
2.15227e-40
1.63315e-42
1.36033e-41
1.02201e-43
7.88225e-43
5.71598e-45
4.20073e-44
2.88604e-46
2.06483e-45
1.32468e-47
9.38406e-47
5.55544e-49
3.95152e-48
2.13694e-50
1.54459e-49
7.56157e-52
5.61359e-51
2.467e-53
1.89959e-52
7.43399e-55
5.99241e-54
2.07172e-56
1.76406e-55
5.34402e-58
4.85028e-57
1.27651e-59
1.24634e-58
2.82355e-61
2.99436e-60
5.78027e-63
6.7269e-62
1.09394e-64
1.41276e-63
1.91039e-66
2.77182e-65
3.06984e-68
5.07392e-67
4.52106e-70
8.64812e-69
6.06841e-72
1.3683e-70
7.36676e-74
2.00095e-72
8.00245e-76
2.68798e-74
7.66398e-78
3.28877e-76
6.33514e-80
3.62093e-78
4.38068e-82
3.52615e-80
2.41396e-84
2.9611e-82
9.76987e-87
2.06191e-84
2.48121e-89
1.11522e-86
2.6347e-92
4.12793e-89
7.25542e-92
-3.91199e-33
7.90794e-33
-5.11279e-34
1.44843e-33
-5.48479e-35
2.19519e-34
-4.86725e-36
2.83631e-35
-3.51296e-37
3.19212e-36
-1.92761e-38
3.17205e-37
-5.87565e-40
2.81563e-38
2.92889e-41
2.27188e-39
6.92421e-42
1.67032e-40
7.30054e-43
1.13171e-41
5.79074e-44
7.04236e-43
3.8499e-45
4.02737e-44
2.23379e-46
2.11985e-45
1.15455e-47
1.02983e-46
5.38088e-49
4.62861e-48
2.27941e-50
1.92877e-49
8.82567e-52
7.46554e-51
3.13613e-53
2.68842e-52
1.02585e-54
9.02001e-54
3.09607e-56
2.82314e-55
8.63593e-58
8.25157e-57
2.22889e-59
2.25428e-58
5.32663e-61
5.76033e-60
1.17893e-62
1.37741e-61
2.41576e-64
3.08274e-63
4.57867e-66
6.45661e-65
8.01321e-68
1.26476e-66
1.29156e-69
2.31438e-68
1.90982e-71
3.94869e-70
2.57687e-73
6.26319e-72
3.14873e-75
9.19665e-74
3.44792e-77
1.24266e-75
3.33388e-79
1.53213e-77
2.78702e-81
1.70321e-79
1.95235e-83
1.67812e-81
1.09167e-85
1.42873e-83
4.48955e-88
1.01068e-85
1.15934e-90
5.56279e-88
1.24829e-93
2.09683e-90
3.72764e-93
-3.07316e-34
4.93373e-34
-4.06363e-35
8.87832e-35
-4.46349e-36
1.32034e-35
-4.14229e-37
1.67168e-36
-3.26072e-38
1.84102e-37
-2.16014e-39
1.7882e-38
-1.174e-40
1.55031e-39
-4.64946e-42
1.21871e-40
-6.15772e-44
8.70061e-42
1.11765e-44
5.69388e-43
1.44815e-45
3.46036e-44
1.15623e-46
1.94088e-45
7.36023e-48
1.00917e-46
4.01663e-49
4.84659e-48
1.93737e-50
2.15481e-49
8.39525e-52
8.88788e-51
3.30102e-53
3.4073e-52
1.18554e-54
1.21606e-53
3.90702e-56
4.0463e-55
1.18543e-57
1.25682e-56
3.31933e-59
3.6482e-58
8.59239e-61
9.90574e-60
2.05847e-62
2.51782e-61
4.56637e-64
5.99419e-63
9.37938e-66
1.33698e-64
1.78257e-67
2.79371e-66
3.13004e-69
5.46623e-68
5.06552e-71
1.00042e-69
7.52814e-73
1.70956e-71
1.02203e-74
2.72007e-73
1.25819e-76
4.01323e-75
1.39006e-78
5.45855e-77
1.35824e-80
6.78758e-79
1.1493e-82
7.62541e-81
8.16282e-85
7.60856e-83
4.63503e-87
6.57402e-85
1.93814e-89
4.729e-87
5.09048e-92
2.65124e-89
5.55384e-95
1.01842e-91
1.82975e-94
-2.21783e-35
2.90692e-35
-2.94104e-36
5.15181e-36
-3.25777e-37
7.53607e-37
-3.07616e-38
9.3723e-38
-2.50133e-39
1.01248e-38
-1.75977e-40
9.63433e-40
-1.07564e-41
8.17354e-41
-5.58585e-43
6.28248e-42
-2.35827e-44
4.37949e-43
-6.90386e-46
2.79419e-44
-2.56861e-49
1.64683e-45
1.8817e-48
8.93165e-47
1.75181e-49
4.561e-48
1.11949e-50
2.15408e-49
5.88137e-52
9.47643e-51
2.68486e-53
3.87026e-52
1.09222e-54
1.47003e-53
4.01488e-56
5.20139e-55
1.34502e-57
1.71695e-56
4.12983e-59
5.29424e-58
1.16675e-60
1.52673e-59
3.04117e-62
4.12157e-61
7.3268e-64
1.04247e-62
1.63329e-65
2.47194e-64
3.37016e-67
5.49723e-66
6.43462e-69
1.14657e-67
1.13545e-70
2.24203e-69
1.84774e-72
4.10637e-71
2.76351e-74
7.03266e-73
3.77957e-76
1.12324e-74
4.69308e-78
1.66648e-76
5.23696e-80
2.28352e-78
5.17617e-82
2.86632e-80
4.43754e-84
3.25731e-82
3.19828e-86
3.2947e-84
1.84553e-88
2.89197e-86
7.85016e-91
2.11763e-88
2.09689e-93
1.21041e-90
2.31318e-96
4.7411e-93
8.59562e-96
-1.48122e-36
1.61519e-36
-1.96176e-37
2.82618e-37
-2.17611e-38
4.07647e-38
-2.06623e-39
4.99205e-39
-1.70064e-40
5.3028e-40
-1.22424e-41
4.95522e-41
-7.79748e-43
4.12355e-42
-4.36571e-44
3.10524e-43
-2.1389e-45
2.11906e-44
-9.01211e-47
1.32283e-45
-3.06515e-48
7.61503e-47
-6.96972e-50
4.03153e-48
4.5599e-52
1.99641e-49
1.73766e-52
9.15283e-51
1.28671e-53
3.96234e-52
6.83605e-55
1.59431e-53
3.02768e-56
6.00189e-55
1.17382e-57
2.10625e-56
4.07538e-59
6.90014e-58
1.2832e-60
2.11309e-59
3.69267e-62
6.05634e-61
9.76081e-64
1.62628e-62
2.37779e-65
4.09505e-64
5.34956e-67
9.67639e-66
1.11277e-68
2.14663e-67
2.14057e-70
4.47154e-69
3.80515e-72
8.74373e-71
6.23951e-74
1.60369e-72
9.40844e-76
2.75457e-74
1.29838e-77
4.41979e-76
1.62847e-79
6.59933e-78
1.83779e-81
9.11828e-80
1.83958e-83
1.15645e-81
1.59946e-85
1.3307e-83
1.1708e-87
1.36586e-85
6.86957e-90
1.21924e-87
2.97256e-92
9.09729e-90
8.06359e-95
5.30624e-92
8.93074e-98
2.12011e-94
3.86735e-97
-9.19272e-38
8.45167e-38
-1.21393e-38
1.46378e-38
-1.34419e-39
2.08712e-39
-1.27645e-40
2.52296e-40
-1.05395e-41
2.6417e-41
-7.64836e-43
2.43001e-42
-4.9478e-44
1.98823e-43
-2.84842e-45
1.47032e-44
-1.46527e-46
9.84386e-46
-6.73952e-48
6.02382e-47
-2.72626e-49
3.39743e-48
-9.60487e-51
1.76171e-49
-2.7505e-52
8.52994e-51
-5.31725e-54
3.82085e-52
2.54348e-56
1.60746e-53
9.24243e-57
6.29344e-55
5.874e-58
2.33617e-56
2.67671e-59
8.08933e-58
1.01862e-60
2.62986e-59
3.40008e-62
8.00227e-61
1.01829e-63
2.28064e-62
2.77033e-65
6.09463e-64
6.89724e-67
1.52865e-65
1.57866e-68
3.60152e-67
3.33085e-70
7.97493e-69
6.48706e-72
1.66014e-70
1.16627e-73
3.24845e-72
1.93326e-75
5.97065e-74
2.94699e-77
1.02935e-75
4.11301e-79
1.66061e-77
5.22079e-81
2.49761e-79
5.96845e-83
3.48302e-81
6.05855e-85
4.4678e-83
5.34829e-87
5.21095e-85
3.97912e-89
5.43342e-87
2.37467e-91
4.93772e-89
1.04462e-93
3.75805e-91
2.86755e-96
2.23875e-93
3.13613e-99
9.1265e-96
1.66766e-98
-5.31378e-39
4.15896e-39
-6.99449e-40
7.14853e-40
-7.72238e-41
1.01017e-40
-7.31679e-42
1.20841e-41
-6.03576e-43
1.25028e-42
-4.38594e-44
1.13488e-43
-2.85075e-45
9.15142e-45
-1.65782e-46
6.66158e-46
-8.68659e-48
4.38565e-47
-4.12326e-49
2.63673e-48
-1.75996e-50
1.4599e-49
-6.81321e-52
7.42802e-51
-2.3409e-53
3.5281e-52
-7.08142e-55
1.54988e-53
-1.78023e-56
6.38721e-55
-3.25237e-58
2.44872e-56
-9.3344e-61
8.85843e-58
2.7327e-61
2.98985e-59
1.65161e-62
9.59429e-61
6.71226e-64
2.88781e-62
2.24332e-65
8.16521e-64
6.54375e-67
2.17269e-65
1.70939e-68
5.43143e-67
4.05267e-70
1.2767e-68
8.78611e-72
2.82367e-70
1.74916e-73
5.87831e-72
3.20389e-75
1.15186e-73
5.39968e-77
2.12327e-75
8.35891e-79
3.67723e-77
1.18413e-80
5.96986e-79
1.52558e-82
9.05288e-81
1.77074e-84
1.27545e-82
1.82596e-86
1.65642e-84
1.63846e-88
1.96031e-86
1.23968e-90
2.07864e-88
7.52268e-93
1.92518e-90
3.35832e-95
1.49612e-92
9.27839e-98
9.1108e-95
9.77227e-101
3.79067e-97
6.90643e-100
-2.86433e-40
1.92204e-40
-3.76047e-41
3.28755e-41
-4.13985e-42
4.61631e-42
-3.91095e-43
5.47882e-43
-3.21793e-44
5.61541e-44
-2.33447e-45
5.04203e-45
-1.51707e-46
4.01664e-46
-8.84279e-48
2.88477e-47
-4.66175e-49
1.87185e-48
-2.23874e-50
1.10817e-49
-9.75106e-52
6.03672e-51
-3.90243e-53
3.02032e-52
-1.41618e-54
1.40985e-53
-4.69919e-56
6.08549e-55
-1.40019e-57
2.46417e-56
-3.73556e-59
9.28257e-58
-8.54599e-61
3.29692e-59
-1.56607e-62
1.09309e-60
-1.60333e-64
3.43148e-62
3.17235e-66
1.0108e-63
2.63067e-67
2.81338e-65
1.03613e-68
7.42587e-67
3.15627e-70
1.84376e-68
8.22394e-72
4.31797e-70
1.90099e-73
9.5452e-72
3.96553e-75
1.98871e-73
7.5301e-77
3.90548e-75
1.30671e-78
7.22621e-77
2.07361e-80
1.25829e-78
3.0026e-82
2.05763e-80
3.94693e-84
3.14905e-82
4.66892e-86
4.48683e-84
4.90318e-88
5.90574e-86
4.47807e-90
7.09943e-88
3.44569e-92
7.66387e-90
2.12261e-94
7.24169e-92
9.57432e-97
5.75222e-94
2.6323e-99
3.58389e-96
2.56163e-102
1.52245e-98
2.75373e-101
-1.44057e-41
8.33123e-42
-1.8886e-42
1.42203e-42
-2.07481e-43
1.98952e-43
-1.955e-44
2.3488e-44
-1.604e-45
2.39081e-45
-1.16049e-46
2.12874e-46
-7.52454e-48
1.67935e-47
-4.38075e-49
1.19282e-48
-2.31078e-50
7.64597e-50
-1.11322e-51
4.46733e-51
-4.88322e-53
2.39959e-52
-1.97893e-54
1.1831e-53
-7.33148e-56
5.43881e-55
-2.51334e-57
2.31134e-56
-7.8833e-59
9.21203e-58
-2.28361e-60
3.41579e-59
-6.01003e-62
1.19446e-60
-1.44229e-63
3.90062e-62
-3.07644e-65
1.20563e-63
-5.66271e-67
3.49899e-65
-8.26227e-69
9.58592e-67
-6.3695e-71
2.4872e-68
1.3121e-72
6.08003e-70
8.05104e-74
1.41055e-71
2.53116e-75
3.10805e-73
6.22154e-77
6.46582e-75
1.31029e-78
1.27011e-76
2.44311e-80
2.35819e-78
4.08874e-82
4.13236e-80
6.17064e-84
6.81305e-82
8.38719e-86
1.05335e-83
1.02009e-87
1.51939e-85
1.09662e-89
2.02904e-87
1.02121e-91
2.48029e-89
7.97729e-94
2.72875e-91
4.95786e-96
2.63337e-93
2.2292e-98
2.14012e-95
5.90408e-101
1.36542e-97
4.49206e-104
5.92522e-100
1.06092e-102
-6.76045e-43
3.38281e-43
-8.86489e-44
5.77858e-44
-9.7315e-45
8.07752e-45
-9.15462e-46
9.51122e-46
-7.49395e-47
9.63964e-47
-5.40759e-48
8.53251e-48
-3.49644e-49
6.68208e-49
-2.03049e-50
4.70495e-50
-1.06911e-51
2.98618e-51
-5.14703e-53
1.72579e-52
-2.26059e-54
9.1606e-54
-9.19589e-56
4.46033e-55
-3.43269e-57
2.02358e-56
-1.19166e-58
8.48395e-58
-3.81218e-60
3.33474e-59
-1.13752e-61
1.21942e-60
-3.12933e-63
4.20514e-62
-8.02572e-65
1.35466e-63
-1.89747e-66
4.1325e-65
-4.13706e-68
1.18452e-66
-8.29071e-70
3.20663e-68
-1.50383e-71
8.22617e-70
-2.43796e-73
1.99082e-71
-3.40961e-75
4.57155e-73
-3.72976e-77
9.97147e-75
-2.03272e-79
2.05833e-76
3.92127e-81
4.02185e-78
1.69287e-82
7.46988e-80
3.91663e-84
1.31572e-81
7.05524e-86
2.18529e-83
1.07068e-87
3.41182e-85
1.39925e-89
4.98194e-87
1.57459e-91
6.75208e-89
1.50227e-93
8.39808e-91
1.17585e-95
9.42468e-93
7.10209e-98
9.29978e-95
2.92522e-100
7.74336e-97
5.81965e-103
5.0674e-99
-9.79232e-107
2.2513e-101
4.00918e-104
-2.9598e-44
1.28516e-44
-3.88954e-45
2.20361e-45
-4.27371e-46
3.08631e-46
-4.0195e-47
3.63447e-47
-3.28654e-48
3.67729e-48
-2.36712e-49
3.24401e-49
-1.52682e-50
2.52812e-50
-8.84328e-52
1.76883e-51
-4.64434e-53
1.11418e-52
-2.23103e-54
6.3835e-54
-9.78598e-56
3.3558e-55
-3.98037e-57
1.61706e-56
-1.48845e-58
7.25523e-58
-5.18882e-60
3.00692e-59
-1.67251e-61
1.16791e-60
-5.04989e-63
4.21965e-62
-1.4139e-64
1.43764e-63
-3.71828e-66
4.57669e-65
-9.10656e-68
1.38007e-66
-2.08558e-69
3.91251e-68
-4.47725e-71
1.0484e-69
-8.95737e-73
2.66483e-71
-1.67701e-74
6.39765e-73
-2.93733e-76
1.45896e-74
-4.78877e-78
3.16448e-76
-7.25727e-80
6.5077e-78
-1.02413e-81
1.26946e-79
-1.34261e-83
2.35653e-81
-1.62972e-85
4.15567e-83
-1.83476e-87
6.93107e-85
-1.92777e-89
1.09007e-86
-1.91573e-91
1.6086e-88
-1.83466e-93
2.21043e-90
-1.7122e-95
2.79651e-92
-1.52655e-97
3.20237e-94
-1.21707e-99
3.23398e-96
-7.74136e-102
2.7631e-98
-3.24577e-104
1.85908e-100
-2.59797e-107
8.48985e-103
1.5133e-105
-1.20847e-45
4.56327e-46
-1.595e-46
7.87792e-47
-1.7576e-47
1.10874e-47
-1.65558e-48
1.30942e-48
-1.35413e-49
1.32613e-49
-9.74688e-51
1.16894e-50
-6.27751e-52
9.08782e-52
-3.62848e-53
6.33339e-53
-1.90114e-54
3.96847e-54
-9.11016e-56
2.25912e-55
-3.98735e-57
1.17878e-56
-1.61905e-58
5.63339e-58
-6.04976e-60
2.50477e-59
-2.1099e-61
1.02826e-60
-6.81578e-63
3.95419e-62
-2.06684e-64
1.41424e-63
-5.82852e-66
4.76906e-65
-1.54903e-67
1.50295e-66
-3.85058e-69
4.4874e-68
-8.99725e-71
1.2603e-69
-1.98311e-72
3.34773e-71
-4.10521e-74
8.44217e-73
-8.02682e-76
2.01306e-74
-1.48477e-77
4.56569e-76
-2.59091e-79
9.86409e-78
-4.26947e-81
2.02413e-79
-6.67074e-83
3.94754e-81
-9.87853e-85
7.34043e-83
-1.38265e-86
1.29951e-84
-1.82661e-88
2.18133e-86
-2.26978e-90
3.46189e-88
-2.63515e-92
5.16935e-90
-2.82491e-94
7.20808e-92
-2.74209e-96
9.27986e-94
-2.33468e-98
1.08438e-95
-1.65501e-100
1.1204e-97
-8.92193e-103
9.81635e-100
-3.0436e-105
6.7834e-102
-1.77007e-108
3.17891e-104
5.64918e-107
-4.5992e-47
1.51286e-47
-6.11143e-48
2.63791e-48
-6.76869e-49
3.74179e-49
-6.39811e-50
4.44434e-50
-5.24415e-51
4.51764e-51
-3.77813e-52
3.98932e-52
-2.43293e-53
3.10175e-53
-1.40491e-54
2.15835e-54
-7.34953e-56
1.34846e-55
-3.51489e-57
7.64454e-57
-1.53522e-58
3.96781e-58
-6.22093e-60
1.88461e-59
-2.32069e-61
8.32124e-61
-8.08474e-63
3.39041e-62
-2.6113e-64
1.29336e-63
-7.92636e-66
4.58764e-65
-2.24101e-67
1.53399e-66
-5.98191e-69
4.79402e-68
-1.49691e-70
1.41962e-69
-3.53019e-72
3.95612e-71
-7.87668e-74
1.0433e-72
-1.65627e-75
2.614e-74
-3.30173e-77
6.19942e-76
-6.25124e-79
1.4001e-77
-1.12116e-80
3.01627e-79
-1.90651e-82
6.18222e-81
-3.08512e-84
1.2065e-82
-4.74564e-86
2.24964e-84
-6.91217e-88
4.00248e-86
-9.50558e-90
6.76801e-88
-1.22763e-91
1.08477e-89
-1.47601e-93
1.64013e-91
-1.62976e-95
2.32189e-93
-1.61815e-97
3.04304e-95
-1.39803e-99
3.62944e-97
-9.96735e-102
3.83703e-99
-5.34532e-104
3.44728e-101
-1.7797e-106
2.44623e-103
-9.36796e-110
1.17601e-105
2.0809e-108
-1.63071e-48
4.67897e-49
-2.18721e-49
8.26681e-50
-2.4405e-50
1.18544e-50
-2.31997e-51
1.42017e-51
-1.90931e-52
1.4529e-52
-1.37927e-53
1.28869e-53
-8.89456e-55
1.0046e-54
-5.13843e-56
6.99685e-56
-2.68708e-57
4.3689e-57
-1.28376e-58
2.47208e-58
-5.59943e-60
1.27916e-59
-2.26521e-61
6.05127e-61
-8.43675e-63
2.65874e-62
-2.93493e-64
1.07729e-63
-9.47049e-66
4.08455e-65
-2.87363e-67
1.43955e-66
-8.12928e-69
4.78144e-68
-2.17346e-70
1.48439e-69
-5.45529e-72
4.3668e-71
-1.29244e-73
1.20938e-72
-2.90205e-75
3.17116e-74
-6.15355e-77
7.90539e-76
-1.23961e-78
1.86723e-77
-2.37695e-80
4.20444e-79
-4.3274e-82
9.0426e-81
-7.48621e-84
1.85323e-82
-1.23488e-85
3.62274e-84
-1.93966e-87
6.77932e-86
-2.8887e-89
1.21306e-87
-4.06542e-91
2.06769e-89
-5.37507e-93
3.34881e-91
-6.61479e-95
5.12932e-93
-7.47077e-97
7.37517e-95
-7.57858e-99
9.84279e-97
-6.67907e-101
1.1985e-98
-4.84621e-103
1.29666e-100
-2.63436e-105
1.19466e-102
-8.80342e-108
8.70553e-105
-4.40318e-111
4.29331e-107
7.56021e-110
-5.38372e-50
1.34898e-50
-7.30855e-51
2.42302e-51
-8.23636e-52
3.52349e-52
-7.89229e-53
4.27014e-53
-6.53571e-54
4.40904e-54
-4.74337e-55
3.93857e-55
-3.06879e-56
3.08622e-56
-1.7765e-57
2.15672e-57
-9.29998e-59
1.34908e-58
-4.44415e-60
7.63649e-60
-1.9378e-61
3.94792e-61
-7.83286e-63
1.86407e-62
-2.91446e-64
8.16663e-64
-1.01275e-65
3.29724e-65
-3.26502e-67
1.24491e-66
-9.90061e-69
4.36747e-68
-2.80059e-70
1.44354e-69
-7.49184e-72
4.45932e-71
-1.8832e-73
1.30537e-72
-4.47284e-75
3.5984e-74
-1.00809e-76
9.39564e-76
-2.14862e-78
2.33374e-77
-4.35727e-80
5.497e-79
-8.42432e-82
1.23561e-80
-1.54911e-83
2.65607e-82
-2.71144e-85
5.44877e-84
-4.53286e-87
1.06796e-85
-7.22715e-89
2.00746e-87
-1.09418e-90
3.61545e-89
-1.56756e-92
6.21638e-91
-2.11223e-94
1.01795e-92
-2.65179e-96
1.58029e-94
-3.0577e-98
2.30872e-96
-3.16861e-100
3.13854e-98
-2.85335e-102
3.90236e-100
-2.11474e-104
4.32118e-102
-1.17223e-106
4.08299e-104
-3.96973e-109
3.0553e-106
-1.92186e-112
1.54567e-108
2.70733e-111
-1.65415e-51
3.62336e-52
-2.27929e-52
6.63904e-53
-2.60114e-53
9.82109e-54
-2.51857e-54
1.20764e-54
-2.10341e-55
1.26204e-55
-1.53692e-56
1.13847e-56
-9.99488e-58
8.99016e-58
-5.80826e-59
6.31921e-59
-3.04886e-60
3.96925e-60
-1.45945e-61
2.25276e-61
-6.37003e-63
1.16615e-62
-2.57574e-64
5.50727e-64
-9.58358e-66
2.41076e-65
-3.32917e-67
9.71772e-67
-1.07292e-68
3.66055e-68
-3.25244e-70
1.28068e-69
-9.20033e-72
4.21957e-71
-2.46211e-73
1.29923e-72
-6.19526e-75
3.79051e-74
-1.47408e-76
1.04164e-75
-3.33117e-78
2.71224e-77
-7.12703e-80
6.72161e-79
-1.45257e-81
1.58093e-80
-2.82618e-83
3.55173e-82
-5.23766e-85
7.63946e-84
-9.25361e-87
1.57035e-85
-1.56393e-88
3.08896e-87
-2.52485e-90
5.83744e-89
-3.87684e-92
1.05898e-90
-5.64192e-94
1.83791e-92
-7.73452e-96
3.04472e-94
-9.89373e-98
4.79297e-96
-1.16399e-99
7.11746e-98
-1.23224e-101
9.85868e-100
-1.13472e-103
1.25194e-101
-8.60434e-106
1.41905e-103
-4.87664e-108
1.37514e-105
-1.68101e-110
1.05666e-107
-7.94791e-114
5.48343e-110
9.55076e-113
-4.72806e-53
9.1035e-54
-6.63207e-54
1.71796e-54
-7.68529e-55
2.56652e-55
-7.53841e-56
3.21153e-56
-6.36439e-57
3.40668e-57
-4.69216e-58
3.11179e-58
-3.07354e-59
2.48279e-59
-1.79642e-60
1.7597e-60
-9.47202e-62
1.11253e-61
-4.54936e-63
6.34539e-63
-1.99058e-64
3.2962e-64
-8.06261e-66
1.56024e-65
-3.00339e-67
6.83792e-67
-1.04409e-68
2.75729e-68
-3.3667e-70
1.03818e-69
-1.021e-71
3.62868e-71
-2.88976e-73
1.19387e-72
-7.73902e-75
3.67003e-74
-1.94965e-76
1.06886e-75
-4.64704e-78
2.93249e-77
-1.05273e-79
7.6254e-79
-2.25996e-81
1.88806e-80
-4.62637e-83
4.43989e-82
-9.05147e-85
9.9813e-84
-1.6891e-86
2.15058e-85
-3.0092e-88
4.43411e-87
-5.1361e-90
8.76157e-89
-8.3872e-92
1.66599e-90
-1.30481e-93
3.04656e-92
-1.92722e-95
5.34056e-94
-2.68608e-97
8.95534e-96
-3.49923e-99
1.43016e-97
-4.19963e-101
2.15949e-99
-4.5424e-103
3.0486e-101
-4.2795e-105
3.95471e-103
-3.323e-107
4.58889e-105
-1.92842e-109
4.5608e-107
-6.78284e-112
3.59855e-109
-3.14784e-115
1.91562e-111
3.31793e-114
-1.25746e-54
2.14863e-55
-1.80031e-55
4.17504e-56
-2.12396e-56
6.37884e-57
-2.11608e-57
8.03065e-58
-1.81044e-58
8.67142e-59
-1.34984e-59
8.04254e-60
-8.92524e-61
6.50034e-61
-5.25723e-62
4.65708e-62
-2.78964e-63
2.9706e-63
-1.34669e-64
1.70653e-64
-5.91666e-66
8.9151e-66
-2.40411e-67
4.23847e-67
-8.97826e-69
1.86349e-68
-3.12731e-70
7.53127e-70
-1.01007e-71
2.83971e-71
-3.06739e-73
9.93345e-73
-8.69364e-75
3.2691e-74
-2.33154e-76
1.00495e-75
-5.88388e-78
2.9262e-77
-1.40545e-79
8.02715e-79
-3.1925e-81
2.08743e-80
-6.87751e-83
5.17068e-82
-1.41409e-84
1.2172e-83
-2.78172e-86
2.74137e-85
-5.22577e-88
5.92308e-87
-9.38499e-90
1.22615e-88
-1.6171e-91
2.43597e-90
-2.67008e-93
4.66435e-92
-4.20714e-95
8.60425e-94
-6.30475e-97
1.52441e-95
-8.93174e-99
2.58881e-97
-1.18483e-100
4.19602e-99
-1.45059e-102
6.44466e-101
-1.60328e-104
9.27506e-103
-1.54587e-106
1.22928e-104
-1.22985e-108
1.46037e-106
-7.31415e-111
1.48863e-108
-2.62902e-113
1.20604e-110
-1.20164e-116
6.58633e-113
1.13494e-115
-3.10929e-56
4.70474e-57
-4.56031e-57
9.44612e-58
-5.49069e-58
1.4846e-58
-5.57053e-59
1.90198e-59
-4.84192e-60
2.08163e-60
-3.65952e-61
1.96574e-61
-2.44788e-62
1.61367e-62
-1.45612e-63
1.17152e-63
-7.79087e-65
7.55724e-65
-3.7871e-66
4.38262e-66
-1.67353e-67
2.30751e-67
-6.83254e-69
1.10415e-68
-2.56188e-70
4.87972e-70
-8.95321e-72
1.98036e-71
-2.90006e-73
7.49128e-73
-8.82899e-75
2.62719e-74
-2.50828e-76
8.66293e-76
-6.74249e-78
2.66732e-77
-1.70578e-79
7.77696e-79
-4.0859e-81
2.13616e-80
-9.3113e-83
5.56292e-82
-2.01378e-84
1.38033e-83
-4.16011e-86
3.25671e-85
-8.22992e-88
7.35646e-87
-1.55666e-89
1.59556e-88
-2.81837e-91
3.3195e-90
-4.90268e-93
6.63635e-92
-8.18501e-95
1.28061e-93
-1.30618e-96
2.38463e-95
-1.98595e-98
4.2725e-97
-2.85967e-100
7.35194e-99
-3.86297e-102
1.20992e-100
-4.82496e-104
1.89084e-102
-5.45028e-106
2.77487e-104
-5.37945e-108
3.75807e-106
-4.38648e-110
4.57116e-108
-2.67489e-112
4.77904e-110
-9.83624e-115
3.9756e-112
-4.43978e-118
2.22775e-114
3.82328e-117
-7.14413e-58
9.54646e-59
-1.07699e-58
1.98874e-59
-1.32796e-59
3.22638e-60
-1.37531e-60
4.24886e-61
-1.21758e-61
4.71423e-62
-9.35102e-63
4.54514e-63
-6.34217e-64
3.7994e-64
-3.81799e-65
2.80208e-65
-2.0639e-66
1.83232e-66
-1.0121e-67
1.07509e-67
-4.50643e-69
5.71718e-69
-1.85169e-70
2.75902e-70
-6.98154e-72
1.22806e-71
-2.45152e-73
5.01405e-73
-7.97421e-75
1.90628e-74
-2.43674e-76
6.71389e-76
-6.94692e-78
2.2218e-77
-1.87361e-79
6.86261e-79
-4.75622e-81
2.00652e-80
-1.14338e-82
5.52645e-82
-2.61595e-84
1.44315e-83
-5.6833e-86
3.59156e-85
-1.18022e-87
8.50299e-87
-2.3491e-89
1.9285e-88
-4.47525e-91
4.20309e-90
-8.1709e-93
8.79613e-92
-1.43529e-94
1.77109e-93
-2.42331e-96
3.44685e-95
-3.91725e-98
6.48331e-97
-6.04357e-100
1.17537e-98
-8.84655e-102
2.05035e-100
-1.21707e-103
3.42742e-102
-1.55107e-105
5.45175e-104
-1.79095e-107