/*--------------------------------*- C++ -*----------------------------------*\
  =========                 |
  \\      /  F ield         | OpenFOAM: The Open Source CFD Toolbox
   \\    /   O peration     | Website:  https://openfoam.org
    \\  /    A nd           | Version:  9
     \\/     M anipulation  |
\*---------------------------------------------------------------------------*/
FoamFile
{
    format      ascii;
    class       volScalarField;
    location    "0.2";
    object      p;
}
// * * * * * * * * * * * * * * * * * * * * * * * * * * * * * * * * * * * * * //

dimensions      [1 -1 -2 0 0 0 0];

internalField   nonuniform List<scalar> 
1935
(
-2.15982
-2.24912
-2.33624
-2.42168
-2.5058
-2.58876
-2.67059
-2.7513
-2.8309
-2.90947
-2.98715
-3.06418
-3.14081
-3.21735
-3.29405
-3.37112
-3.44872
-3.52694
-3.60582
-3.68535
-3.76549
-3.8462
-3.92743
-4.00914
-4.09132
-4.17397
-4.2571
-4.34076
-4.42496
-4.50976
-4.59518
-4.68125
-4.76801
-4.85547
-4.94368
-5.03265
-5.12241
-5.21299
-5.30441
-5.39671
-5.48995
-5.58402
-5.67889
-2.16569
-2.17527
-2.18834
-2.20448
-2.25424
-2.26266
-2.27419
-2.28847
-2.34077
-2.34827
-2.35853
-2.37122
-2.42575
-2.43247
-2.44162
-2.45295
-2.50949
-2.5155
-2.52369
-2.53383
-2.59212
-2.59752
-2.60487
-2.61398
-2.6737
-2.67859
-2.68522
-2.69345
-2.75425
-2.75873
-2.76477
-2.77226
-2.83377
-2.83796
-2.84355
-2.85043
-2.91234
-2.91635
-2.9216
-2.92802
-2.9901
-2.99403
-2.99905
-3.00511
-3.06724
-3.07116
-3.07605
-3.08183
-3.14401
-3.14798
-3.15278
-3.15835
-3.22069
-3.2247
-3.22944
-3.23485
-3.2975
-3.30155
-3.30623
-3.31148
-3.37465
-3.37871
-3.3833
-3.38839
-3.45228
-3.4563
-3.46078
-3.46568
-3.53049
-3.53442
-3.53875
-3.54344
-3.60931
-3.6131
-3.61725
-3.62172
-3.68873
-3.69236
-3.6963
-3.70053
-3.76874
-3.77218
-3.7759
-3.7799
-3.8493
-3.85255
-3.85605
-3.85981
-3.93037
-3.93343
-3.93673
-3.94026
-4.01193
-4.01481
-4.01792
-4.02124
-4.09397
-4.09669
-4.09961
-4.10275
-4.17648
-4.17906
-4.18182
-4.18478
-4.25949
-4.26194
-4.26456
-4.26734
-4.34303
-4.34535
-4.34782
-4.35045
-4.42712
-4.42932
-4.43165
-4.43412
-4.51179
-4.51387
-4.51606
-4.51838
-4.59709
-4.59903
-4.60109
-4.60325
-4.68303
-4.68485
-4.68676
-4.68876
-4.76966
-4.77133
-4.7731
-4.77494
-4.85699
-4.85853
-4.86014
-4.86183
-4.94506
-4.94646
-4.94793
-4.94946
-5.0339
-5.03516
-5.03649
-5.03786
-5.12353
-5.12467
-5.12585
-5.12708
-5.214
-5.21501
-5.21606
-5.21714
-5.30531
-5.30622
-5.30714
-5.30809
-5.39753
-5.39833
-5.39914
-5.39996
-5.4907
-5.4914
-5.4921
-5.49277
-5.58477
-5.58543
-5.58603
-5.58659
-5.67971
-5.68039
-5.68097
-5.68146
-2.22412
-2.24739
-2.27306
-2.30067
-2.3297
-2.35969
-2.39025
-2.42099
-2.45161
-2.48181
-2.51136
-2.54002
-2.56763
-2.59403
-2.61912
-2.6428
-2.66503
-2.6858
-2.7051
-2.72298
-2.73947
-2.75463
-2.76855
-2.78128
-2.7929
-2.80346
-2.81303
-2.82164
-2.82934
-2.83615
-2.8421
-2.84721
-2.85152
-2.85506
-2.85784
-2.85991
-2.86128
-2.86194
-2.86196
-2.86156
-2.30588
-2.32658
-2.3495
-2.37427
-2.40044
-2.42762
-2.45547
-2.48364
-2.51186
-2.53984
-2.56735
-2.59418
-2.62014
-2.64509
-2.6689
-2.69148
-2.71278
-2.73275
-2.75141
-2.76877
-2.78485
-2.79971
-2.81341
-2.826
-2.83754
-2.84808
-2.85765
-2.86631
-2.87407
-2.88096
-2.887
-2.89221
-2.89663
-2.90027
-2.90316
-2.90533
-2.9068
-2.90757
-2.90768
-2.90736
-2.38672
-2.40521
-2.42576
-2.44806
-2.47173
-2.49644
-2.52188
-2.54773
-2.57374
-2.59966
-2.62524
-2.65029
-2.67464
-2.69813
-2.72065
-2.7421
-2.76241
-2.78156
-2.79952
-2.8163
-2.83193
-2.84644
-2.85987
-2.87226
-2.88367
-2.89412
-2.90365
-2.91229
-2.92006
-2.92698
-2.93307
-2.93834
-2.94283
-2.94655
-2.94953
-2.95179
-2.95334
-2.9542
-2.9544
-2.95415
-2.46681
-2.48338
-2.50188
-2.52203
-2.54351
-2.56601
-2.58927
-2.61302
-2.63699
-2.66097
-2.68473
-2.70809
-2.73088
-2.75295
-2.77419
-2.79451
-2.81383
-2.83212
-2.84936
-2.86553
-2.88066
-2.89477
-2.90788
-2.92003
-2.93125
-2.94156
-2.95099
-2.95957
-2.96731
-2.97422
-2.98032
-2.98562
-2.99015
-2.99393
-2.99697
-2.9993
-3.00093
-3.00186
-3.00214
-3.00197
-2.54627
-2.56119
-2.5779
-2.59616
-2.61569
-2.63622
-2.65751
-2.67932
-2.70141
-2.72358
-2.74563
-2.76738
-2.78867
-2.80937
-2.82937
-2.84858
-2.86692
-2.88435
-2.90084
-2.91639
-2.93099
-2.94465
-2.95741
-2.96926
-2.98025
-2.99038
-2.99968
-3.00815
-3.01581
-3.02268
-3.02876
-3.03406
-3.03861
-3.04241
-3.0455
-3.04788
-3.04957
-3.05057
-3.05093
-3.05083
-2.62518
-2.63867
-2.65381
-2.6704
-2.68819
-2.70695
-2.72646
-2.74649
-2.76685
-2.78734
-2.80778
-2.82801
-2.84789
-2.86728
-2.88608
-2.9042
-2.92157
-2.93815
-2.9539
-2.9688
-2.98285
-2.99605
-3.00841
-3.01994
-3.03065
-3.04057
-3.04969
-3.05802
-3.06558
-3.07237
-3.07839
-3.08367
-3.08821
-3.09202
-3.09513
-3.09755
-3.09929
-3.10035
-3.10078
-3.10074
-2.70359
-2.71583
-2.72959
-2.74471
-2.76095
-2.77811
-2.79599
-2.81441
-2.83317
-2.8521
-2.87105
-2.88986
-2.90839
-2.92654
-2.9442
-2.96127
-2.97771
-2.99345
-3.00845
-3.0227
-3.03619
-3.0489
-3.06084
-3.07202
-3.08244
-3.0921
-3.10101
-3.10917
-3.11659
-3.12328
-3.12922
-3.13445
-3.13896
-3.14276
-3.14587
-3.14831
-3.15009
-3.1512
-3.1517
-3.15172
-2.7815
-2.79265
-2.80521
-2.81902
-2.83388
-2.8496
-2.86602
-2.88297
-2.90027
-2.91777
-2.93533
-2.95282
-2.9701
-2.98707
-3.00364
-3.01972
-3.03525
-3.05017
-3.06444
-3.07804
-3.09096
-3.10317
-3.11468
-3.12548
-3.13557
-3.14496
-3.15363
-3.1616
-3.16886
-3.17541
-3.18126
-3.18641
-3.19086
-3.19464
-3.19774
-3.20019
-3.20198
-3.20314
-3.20369
-3.20378
-2.85891
-2.86914
-2.88066
-2.89331
-2.90694
-2.92138
-2.93648
-2.95209
-2.96807
-2.98426
-3.00055
-3.01681
-3.03293
-3.0488
-3.06434
-3.07947
-3.09412
-3.10825
-3.12181
-3.13477
-3.14711
-3.15882
-3.16988
-3.18029
-3.19004
-3.19912
-3.20754
-3.21529
-3.22236
-3.22876
-3.23449
-3.23954
-3.24393
-3.24765
-3.25073
-3.25317
-3.25499
-3.25618
-3.25678
-3.25692
-2.93587
-2.94532
-2.95593
-2.96758
-2.98012
-2.99342
-3.00734
-3.02175
-3.03652
-3.05152
-3.06665
-3.08178
-3.09681
-3.11165
-3.12623
-3.14045
-3.15427
-3.16763
-3.1805
-3.19283
-3.2046
-3.2158
-3.22641
-3.23641
-3.2458
-3.25458
-3.26272
-3.27023
-3.2771
-3.28333
-3.28891
-3.29385
-3.29815
-3.30182
-3.30485
-3.30728
-3.30909
-3.31031
-3.31096
-3.31116
-3.01246
-3.02125
-3.03108
-3.04185
-3.05344
-3.06573
-3.07859
-3.09192
-3.1056
-3.11952
-3.13357
-3.14766
-3.1617
-3.17558
-3.18925
-3.20263
-3.21565
-3.22828
-3.24047
-3.25218
-3.2634
-3.27409
-3.28423
-3.29383
-3.30285
-3.3113
-3.31915
-3.32641
-3.33306
-3.3391
-3.34452
-3.34933
-3.35353
-3.35712
-3.36011
-3.3625
-3.36431
-3.36554
-3.36624
-3.36648
-3.08878
-3.09702
-3.10618
-3.1162
-3.12694
-3.13833
-3.15025
-3.1626
-3.1753
-3.18823
-3.20131
-3.21445
-3.22755
-3.24055
-3.25337
-3.26595
-3.27822
-3.29015
-3.30168
-3.3128
-3.32346
-3.33364
-3.34333
-3.35251
-3.36116
-3.36926
-3.37681
-3.3838
-3.39022
-3.39606
-3.40131
-3.40598
-3.41006
-3.41356
-3.41649
-3.41884
-3.42064
-3.42188
-3.42261
-3.4229
-3.16497
-3.17275
-3.18134
-3.19068
-3.20068
-3.21126
-3.22234
-3.23382
-3.24562
-3.25766
-3.26984
-3.2821
-3.29435
-3.30652
-3.31855
-3.33037
-3.34193
-3.35319
-3.3641
-3.37463
-3.38475
-3.39444
-3.40367
-3.41243
-3.42069
-3.42845
-3.43569
-3.44241
-3.44858
-3.4542
-3.45927
-3.46378
-3.46774
-3.47114
-3.47399
-3.4763
-3.47807
-3.47932
-3.48008
-3.48041
-3.24118
-3.24855
-3.25664
-3.26539
-3.27473
-3.28459
-3.2949
-3.30559
-3.31658
-3.3278
-3.33917
-3.35062
-3.36208
-3.37348
-3.38477
-3.39588
-3.40677
-3.41738
-3.42769
-3.43765
-3.44725
-3.45644
-3.46522
-3.47356
-3.48144
-3.48885
-3.49577
-3.50219
-3.50811
-3.51351
-3.51838
-3.52273
-3.52655
-3.52984
-3.53261
-3.53487
-3.53661
-3.53786
-3.53864
-3.53901
-3.31756
-3.32456
-3.33218
-3.3404
-3.34914
-3.35835
-3.36798
-3.37795
-3.3882
-3.39867
-3.40929
-3.42
-3.43073
-3.44141
-3.452
-3.46244
-3.47269
-3.48269
-3.49242
-3.50183
-3.51091
-3.51962
-3.52795
-3.53587
-3.54336
-3.55042
-3.55702
-3.56315
-3.5688
-3.57397
-3.57864
-3.58281
-3.58649
-3.58967
-3.59235
-3.59454
-3.59626
-3.5975
-3.5983
-3.59872
-3.39422
-3.40087
-3.40807
-3.41579
-3.42399
-3.43261
-3.4416
-3.45092
-3.4605
-3.47029
-3.48022
-3.49023
-3.50028
-3.5103
-3.52023
-3.53004
-3.53967
-3.54909
-3.55825
-3.56714
-3.57571
-3.58395
-3.59183
-3.59933
-3.60644
-3.61314
-3.61941
-3.62525
-3.63063
-3.63556
-3.64003
-3.64402
-3.64755
-3.6506
-3.65319
-3.65532
-3.657
-3.65823
-3.65906
-3.65949
-3.47126
-3.47757
-3.48437
-3.49164
-3.49933
-3.50741
-3.51583
-3.52454
-3.5335
-3.54266
-3.55195
-3.56133
-3.57074
-3.58013
-3.58944
-3.59865
-3.6077
-3.61655
-3.62517
-3.63354
-3.64162
-3.64939
-3.65683
-3.66392
-3.67064
-3.67699
-3.68293
-3.68847
-3.69358
-3.69827
-3.70253
-3.70634
-3.70971
-3.71264
-3.71513
-3.71719
-3.71883
-3.72005
-3.72089
-3.72134
-3.54875
-3.55474
-3.56116
-3.56799
-3.57522
-3.58279
-3.59068
-3.59884
-3.60723
-3.6158
-3.62449
-3.63327
-3.64208
-3.65088
-3.65961
-3.66824
-3.67673
-3.68504
-3.69314
-3.701
-3.7086
-3.71591
-3.72292
-3.7296
-3.73595
-3.74193
-3.74755
-3.75279
-3.75764
-3.76209
-3.76613
-3.76975
-3.77297
-3.77577
-3.77817
-3.78016
-3.78175
-3.78296
-3.7838
-3.78428
-3.62675
-3.63241
-3.63847
-3.6449
-3.65168
-3.65879
-3.66618
-3.67383
-3.68168
-3.68971
-3.69785
-3.70606
-3.71431
-3.72254
-3.73071
-3.73879
-3.74674
-3.75452
-3.76211
-3.76949
-3.77662
-3.78348
-3.79007
-3.79635
-3.80232
-3.80796
-3.81326
-3.8182
-3.82278
-3.82699
-3.83081
-3.83426
-3.83732
-3.83999
-3.84228
-3.8442
-3.84575
-3.84694
-3.84779
-3.84829
-3.70529
-3.71063
-3.71633
-3.72238
-3.72876
-3.73543
-3.74236
-3.74952
-3.75688
-3.76438
-3.772
-3.77968
-3.78739
-3.79508
-3.80272
-3.81027
-3.8177
-3.82498
-3.83208
-3.83897
-3.84565
-3.85208
-3.85825
-3.86414
-3.86975
-3.87504
-3.88002
-3.88468
-3.88899
-3.89296
-3.89657
-3.89984
-3.90274
-3.90529
-3.90748
-3.90932
-3.91082
-3.91198
-3.91284
-3.91335
-3.78438
-3.78942
-3.79478
-3.80047
-3.80646
-3.81271
-3.81921
-3.82592
-3.8328
-3.83982
-3.84694
-3.85411
-3.8613
-3.86848
-3.8756
-3.88265
-3.88957
-3.89636
-3.90299
-3.90943
-3.91566
-3.92167
-3.92744
-3.93295
-3.9382
-3.94316
-3.94783
-3.9522
-3.95625
-3.95999
-3.9634
-3.96648
-3.96923
-3.97165
-3.97374
-3.9755
-3.97695
-3.9781
-3.97895
-3.97948
-3.86403
-3.86877
-3.87382
-3.87916
-3.88478
-3.89065
-3.89674
-3.90302
-3.90945
-3.916
-3.92264
-3.92932
-3.93602
-3.9427
-3.94934
-3.95589
-3.96234
-3.96866
-3.97483
-3.98082
-3.98663
-3.99223
-3.99761
-4.00276
-4.00765
-4.01229
-4.01666
-4.02075
-4.02456
-4.02806
-4.03127
-4.03418
-4.03678
-4.03907
-4.04106
-4.04275
-4.04415
-4.04526
-4.04611
-4.04666
-3.94423
-3.94869
-3.95344
-3.95846
-3.96373
-3.96923
-3.97493
-3.98079
-3.98679
-3.9929
-3.99908
-4.00529
-4.01152
-4.01773
-4.02389
-4.02997
-4.03596
-4.04183
-4.04756
-4.05313
-4.05853
-4.06374
-4.06874
-4.07353
-4.0781
-4.08243
-4.08651
-4.09033
-4.09389
-4.09718
-4.10019
-4.10292
-4.10537
-4.10755
-4.10944
-4.11105
-4.1124
-4.11348
-4.11432
-4.11488
-4.02498
-4.02918
-4.03364
-4.03835
-4.0433
-4.04844
-4.05376
-4.05923
-4.06482
-4.07049
-4.07623
-4.082
-4.08778
-4.09353
-4.09924
-4.10488
-4.11042
-4.11586
-4.12117
-4.12633
-4.13134
-4.13617
-4.14082
-4.14527
-4.14952
-4.15355
-4.15735
-4.16091
-4.16424
-4.16731
-4.17014
-4.1727
-4.17501
-4.17706
-4.17886
-4.1804
-4.18169
-4.18275
-4.18357
-4.18413
-4.10627
-4.11022
-4.11441
-4.11883
-4.12346
-4.12826
-4.13322
-4.13831
-4.1435
-4.14877
-4.15409
-4.15943
-4.16477
-4.17009
-4.17537
-4.18058
-4.18571
-4.19073
-4.19564
-4.20042
-4.20505
-4.20953
-4.21384
-4.21796
-4.2219
-4.22564
-4.22918
-4.2325
-4.2356
-4.23847
-4.24111
-4.24352
-4.24569
-4.24762
-4.24932
-4.25078
-4.25202
-4.25305
-4.25386
-4.25442
-4.18809
-4.19181
-4.19575
-4.19989
-4.20421
-4.20868
-4.2133
-4.21802
-4.22283
-4.22771
-4.23263
-4.23756
-4.24249
-4.2474
-4.25226
-4.25707
-4.2618
-4.26643
-4.27097
-4.27538
-4.27966
-4.28379
-4.28777
-4.29159
-4.29524
-4.29871
-4.30199
-4.30507
-4.30796
-4.31063
-4.3131
-4.31535
-4.31739
-4.31921
-4.32081
-4.3222
-4.32339
-4.32438
-4.32517
-4.32574
-4.27047
-4.27396
-4.27765
-4.28151
-4.28554
-4.2897
-4.29398
-4.29836
-4.30281
-4.30731
-4.31184
-4.31639
-4.32093
-4.32544
-4.32992
-4.33434
-4.33869
-4.34296
-4.34713
-4.3512
-4.35514
-4.35896
-4.36263
-4.36616
-4.36953
-4.37274
-4.37578
-4.37864
-4.38132
-4.3838
-4.3861
-4.3882
-4.39011
-4.39182
-4.39333
-4.39465
-4.39578
-4.39673
-4.39751
-4.39807
-4.35339
-4.35666
-4.36011
-4.36372
-4.36746
-4.37132
-4.37528
-4.37932
-4.38342
-4.38756
-4.39173
-4.39591
-4.40008
-4.40423
-4.40834
-4.4124
-4.4164
-4.42032
-4.42415
-4.42788
-4.43151
-4.43502
-4.43841
-4.44166
-4.44477
-4.44773
-4.45054
-4.45318
-4.45566
-4.45797
-4.46011
-4.46206
-4.46384
-4.46544
-4.46686
-4.46811
-4.46918
-4.4701
-4.47085
-4.47141
-4.43688
-4.43994
-4.44315
-4.4465
-4.44997
-4.45354
-4.45719
-4.46091
-4.46468
-4.46848
-4.47231
-4.47614
-4.47996
-4.48376
-4.48753
-4.49125
-4.49491
-4.4985
-4.50201
-4.50544
-4.50877
-4.51199
-4.5151
-4.51809
-4.52095
-4.52368
-4.52627
-4.52871
-4.531
-4.53313
-4.53511
-4.53693
-4.53858
-4.54008
-4.54141
-4.54258
-4.5436
-4.54447
-4.5452
-4.54574
-4.52096
-4.52381
-4.52679
-4.52989
-4.53309
-4.53638
-4.53973
-4.54315
-4.5466
-4.55009
-4.55359
-4.55709
-4.56058
-4.56405
-4.56749
-4.57089
-4.57424
-4.57752
-4.58073
-4.58387
-4.58691
-4.58986
-4.59271
-4.59546
-4.59808
-4.60058
-4.60296
-4.60521
-4.60731
-4.60928
-4.61111
-4.61279
-4.61433
-4.61572
-4.61696
-4.61806
-4.61902
-4.61985
-4.62055
-4.62108
-4.60564
-4.60829
-4.61105
-4.6139
-4.61685
-4.61986
-4.62294
-4.62606
-4.62921
-4.63239
-4.63558
-4.63877
-4.64196
-4.64512
-4.64825
-4.65135
-4.65439
-4.65739
-4.66031
-4.66317
-4.66595
-4.66865
-4.67125
-4.67375
-4.67615
-4.67844
-4.68062
-4.68267
-4.68461
-4.68641
-4.68809
-4.68964
-4.69106
-4.69235
-4.6935
-4.69452
-4.69542
-4.69621
-4.69688
-4.69739
-4.69097
-4.69341
-4.69595
-4.69857
-4.70126
-4.70402
-4.70682
-4.70966
-4.71253
-4.71542
-4.71832
-4.72122
-4.72411
-4.72698
-4.72982
-4.73263
-4.7354
-4.73811
-4.74077
-4.74336
-4.74589
-4.74834
-4.7507
-4.75298
-4.75516
-4.75725
-4.75923
-4.7611
-4.76287
-4.76452
-4.76606
-4.76748
-4.76878
-4.76996
-4.77103
-4.77198
-4.77282
-4.77356
-4.77419
-4.77468
-4.77697
-4.77921
-4.78153
-4.78392
-4.78638
-4.78888
-4.79142
-4.794
-4.7966
-4.79921
-4.80183
-4.80445
-4.80706
-4.80965
-4.81222
-4.81476
-4.81725
-4.8197
-4.8221
-4.82445
-4.82673
-4.82894
-4.83108
-4.83314
-4.83511
-4.837
-4.83879
-4.84049
-4.84209
-4.84359
-4.84499
-4.84628
-4.84747
-4.84855
-4.84953
-4.8504
-4.85118
-4.85187
-4.85247
-4.85294
-4.86368
-4.86572
-4.86783
-4.87
-4.87222
-4.87448
-4.87677
-4.8791
-4.88143
-4.88379
-4.88614
-4.88849
-4.89084
-4.89316
-4.89547
-4.89774
-4.89998
-4.90218
-4.90433
-4.90643
-4.90848
-4.91046
-4.91238
-4.91423
-4.916
-4.91769
-4.91931
-4.92084
-4.92228
-4.92363
-4.92489
-4.92605
-4.92713
-4.92811
-4.929
-4.92979
-4.93051
-4.93115
-4.93171
-4.93215
-4.95114
-4.95298
-4.95488
-4.95684
-4.95883
-4.96085
-4.96291
-4.96498
-4.96707
-4.96917
-4.97127
-4.97337
-4.97545
-4.97752
-4.97957
-4.98159
-4.98358
-4.98553
-4.98745
-4.98932
-4.99113
-4.9929
-4.9946
-4.99624
-4.99782
-4.99933
-5.00076
-5.00212
-5.00341
-5.00461
-5.00573
-5.00678
-5.00774
-5.00862
-5.00942
-5.01014
-5.01079
-5.01137
-5.01189
-5.01231
-5.03937
-5.04103
-5.04273
-5.04447
-5.04624
-5.04804
-5.04986
-5.05169
-5.05354
-5.05539
-5.05724
-5.05909
-5.06092
-5.06274
-5.06455
-5.06632
-5.06807
-5.06979
-5.07147
-5.0731
-5.0747
-5.07625
-5.07774
-5.07919
-5.08057
-5.08189
-5.08315
-5.08435
-5.08548
-5.08654
-5.08752
-5.08844
-5.08929
-5.09007
-5.09078
-5.09142
-5.09201
-5.09254
-5.09301
-5.0934
-5.12842
-5.12989
-5.13139
-5.13293
-5.13449
-5.13606
-5.13765
-5.13925
-5.14086
-5.14247
-5.14408
-5.14568
-5.14727
-5.14885
-5.1504
-5.15194
-5.15345
-5.15493
-5.15638
-5.1578
-5.15918
-5.16051
-5.1618
-5.16305
-5.16424
-5.16538
-5.16647
-5.1675
-5.16848
-5.16939
-5.17025
-5.17104
-5.17178
-5.17245
-5.17307
-5.17364
-5.17415
-5.17462
-5.17505
-5.1754
-5.21833
-5.21961
-5.22092
-5.22225
-5.2236
-5.22495
-5.22632
-5.22769
-5.22906
-5.23043
-5.2318
-5.23316
-5.2345
-5.23584
-5.23715
-5.23845
-5.23973
-5.24098
-5.2422
-5.2434
-5.24456
-5.24568
-5.24677
-5.24782
-5.24883
-5.24979
-5.25071
-5.25158
-5.2524
-5.25317
-5.25389
-5.25456
-5.25518
-5.25575
-5.25628
-5.25676
-5.2572
-5.25762
-5.258
-5.25832
-5.30912
-5.31022
-5.31134
-5.31247
-5.3136
-5.31474
-5.31587
-5.31701
-5.31815
-5.31928
-5.32041
-5.32152
-5.32263
-5.32372
-5.3248
-5.32586
-5.3269
-5.32792
-5.32892
-5.3299
-5.33084
-5.33176
-5.33265
-5.3335
-5.33432
-5.3351
-5.33585
-5.33655
-5.33722
-5.33785
-5.33843
-5.33898
-5.33949
-5.33995
-5.34038
-5.34078
-5.34115
-5.3415
-5.34183
-5.34211
-5.40082
-5.40175
-5.40267
-5.40359
-5.40451
-5.40542
-5.40633
-5.40724
-5.40813
-5.40902
-5.40991
-5.41078
-5.41164
-5.4125
-5.41333
-5.41416
-5.41497
-5.41576
-5.41653
-5.41728
-5.41801
-5.41872
-5.41941
-5.42006
-5.4207
-5.4213
-5.42187
-5.42242
-5.42293
-5.42342
-5.42387
-5.42429
-5.42467
-5.42503
-5.42536
-5.42567
-5.42596
-5.42625
-5.42653
-5.42678
-5.49348
-5.49421
-5.49494
-5.49564
-5.49634
-5.49703
-5.4977
-5.49837
-5.49902
-5.49967
-5.50031
-5.50093
-5.50155
-5.50216
-5.50276
-5.50334
-5.50391
-5.50447
-5.50502
-5.50555
-5.50606
-5.50656
-5.50704
-5.5075
-5.50795
-5.50837
-5.50877
-5.50915
-5.50951
-5.50985
-5.51016
-5.51045
-5.51072
-5.51097
-5.5112
-5.51141
-5.51162
-5.51184
-5.51207
-5.51227
-5.58715
-5.58772
-5.58825
-5.58875
-5.58923
-5.58969
-5.59013
-5.59056
-5.59097
-5.59137
-5.59175
-5.59213
-5.5925
-5.59285
-5.5932
-5.59354
-5.59387
-5.59419
-5.5945
-5.5948
-5.59509
-5.59537
-5.59563
-5.59589
-5.59614
-5.59637
-5.59659
-5.5968
-5.597
-5.59719
-5.59735
-5.59751
-5.59765
-5.59778
-5.5979
-5.598
-5.59811
-5.59823
-5.59839
-5.59855
-5.6819
-5.68231
-5.68266
-5.68297
-5.68324
-5.68347
-5.68368
-5.68387
-5.68403
-5.68418
-5.68432
-5.68444
-5.68455
-5.68465
-5.68474
-5.68483
-5.68491
-5.68498
-5.68505
-5.68511
-5.68517
-5.68523
-5.68528
-5.68532
-5.68537
-5.6854
-5.68544
-5.68547
-5.6855
-5.68552
-5.68554
-5.68555
-5.68556
-5.68556
-5.68555
-5.68554
-5.68553
-5.68552
-5.68556
-5.68564
)
;

boundaryField
{
    leftWall
    {
        type            calculated;
        value           nonuniform List<scalar> 0();
    }
    rightWall
    {
        type            calculated;
        value           nonuniform List<scalar> 
43
(
-2.86156
-2.90736
-2.95415
-3.00197
-3.05083
-3.10074
-3.15172
-3.20378
-3.25692
-3.31116
-3.36648
-3.4229
-3.48041
-3.53901
-3.59872
-3.65949
-3.72134
-3.78428
-3.84829
-3.91335
-3.97948
-4.04666
-4.11488
-4.18413
-4.25442
-4.32574
-4.39807
-4.47141
-4.54574
-4.62108
-4.69739
-4.77468
-4.85294
-4.93215
-5.01231
-5.0934
-5.1754
-5.25832
-5.34211
-5.42678
-5.51227
-5.59855
-5.68564
)
;
    }
    lowerWall
    {
        type            calculated;
        value           nonuniform List<scalar> 0();
    }
    atmosphere
    {
        type            calculated;
        value           nonuniform List<scalar> 
45
(
-5.72904
-5.72904
-5.72904
-5.72904
-5.72904
-5.72904
-5.72904
-5.72904
-5.72904
-5.72904
-5.72904
-5.72904
-5.72904
-5.72904
-5.72904
-5.72904
-5.72904
-5.72904
-5.72904
-5.72904
-5.72904
-5.72904
-5.72904
-5.72904
-5.72904
-5.72904
-5.72904
-5.72904
-5.72904
-5.72904
-5.72904
-5.72904
-5.72904
-5.72904
-5.72904
-5.72904
-5.72904
-5.72904
-5.72904
-5.72904
-5.72904
-5.72904
-5.72904
-5.72904
-5.72904
)
;
    }
    defaultFaces
    {
        type            empty;
    }
    procBoundary3to1
    {
        type            processor;
        value           nonuniform List<scalar> 
45
(
-2.0678
-2.07469
-2.08572
-2.10067
-2.11903
-2.14129
-2.16756
-2.19642
-2.22731
-2.25962
-2.29282
-2.32643
-2.36004
-2.39329
-2.42588
-2.45755
-2.4881
-2.51736
-2.54519
-2.57149
-2.59621
-2.61931
-2.64079
-2.66067
-2.679
-2.69583
-2.71124
-2.72531
-2.73813
-2.74976
-2.7603
-2.76979
-2.7783
-2.78587
-2.79254
-2.79835
-2.80332
-2.80749
-2.81089
-2.81354
-2.81549
-2.81674
-2.8173
-2.81721
-2.81674
)
;
    }
    procBoundary3to2
    {
        type            processor;
        value           nonuniform List<scalar> 
43
(
-2.15844
-2.24804
-2.33533
-2.42085
-2.50495
-2.58781
-2.6695
-2.75004
-2.82944
-2.9078
-2.98525
-3.06205
-3.13848
-3.21481
-3.29133
-3.36824
-3.44573
-3.52387
-3.60272
-3.68226
-3.76245
-3.84324
-3.92457
-4.0064
-4.0887
-4.17148
-4.25475
-4.33853
-4.42286
-4.50777
-4.59331
-4.67951
-4.76639
-4.85399
-4.94233
-5.03143
-5.12131
-5.212
-5.30351
-5.39588
-5.48916
-5.58317
-5.67786
)
;
    }
}


// ************************************************************************* //
