/*--------------------------------*- C++ -*----------------------------------*\
  =========                 |
  \\      /  F ield         | OpenFOAM: The Open Source CFD Toolbox
   \\    /   O peration     | Website:  https://openfoam.org
    \\  /    A nd           | Version:  9
     \\/     M anipulation  |
\*---------------------------------------------------------------------------*/
FoamFile
{
    format      ascii;
    class       surfaceScalarField;
    location    "0.2";
    object      phi;
}
// * * * * * * * * * * * * * * * * * * * * * * * * * * * * * * * * * * * * * //

dimensions      [0 3 -1 0 0 0 0];

internalField   nonuniform List<scalar> 
3782
(
5.02425e-05
-5.92413e-06
4.795e-05
-7.79856e-06
4.56954e-05
-9.55412e-06
4.34766e-05
-1.11877e-05
4.12935e-05
-1.26965e-05
3.91472e-05
-1.40784e-05
3.70397e-05
-1.53314e-05
3.49741e-05
-1.64546e-05
3.29537e-05
-1.74472e-05
3.09827e-05
-1.83095e-05
2.90653e-05
-1.90423e-05
2.72061e-05
-1.96472e-05
2.54093e-05
-2.01267e-05
2.36792e-05
-2.0484e-05
2.20195e-05
-2.07231e-05
2.04335e-05
-2.08488e-05
1.89238e-05
-2.08666e-05
1.74925e-05
-2.07826e-05
1.61405e-05
-2.06032e-05
1.48685e-05
-2.03353e-05
1.3676e-05
-1.99857e-05
1.25621e-05
-1.95612e-05
1.15252e-05
-1.90686e-05
1.05631e-05
-1.8514e-05
9.67331e-06
-1.79033e-05
8.85292e-06
-1.7242e-05
8.09885e-06
-1.65346e-05
7.40789e-06
-1.57854e-05
6.77684e-06
-1.4998e-05
6.20252e-06
-1.41755e-05
5.6819e-06
-1.33207e-05
5.21217e-06
-1.24362e-05
4.79076e-06
-1.15246e-05
4.4155e-06
-1.0589e-05
4.0847e-06
-9.63379e-06
3.79742e-06
-8.66488e-06
3.55378e-06
-7.69133e-06
3.35548e-06
-6.72679e-06
3.20635e-06
-5.79196e-06
3.11268e-06
-4.91809e-06
3.08211e-06
-4.1507e-06
3.11922e-06
-3.55143e-06
-3.20468e-06
-3.86515e-06
4.6157e-05
-1.95669e-06
4.47872e-05
-2.05054e-07
4.33687e-05
4.19212e-05
1.38715e-06
-5.7716e-06
4.413e-05
-3.88746e-06
4.29031e-05
-2.15039e-06
4.16316e-05
4.03329e-05
-5.62154e-07
-7.55695e-06
4.21328e-05
-5.69547e-06
4.10416e-05
-3.97259e-06
3.99088e-05
3.87496e-05
-2.38927e-06
-9.21907e-06
4.01643e-05
-7.3798e-06
3.92023e-05
-5.67167e-06
3.82006e-05
3.71728e-05
-4.09491e-06
-1.07566e-05
3.82244e-05
-8.94003e-06
3.73858e-05
-7.24786e-06
3.65085e-05
3.56047e-05
-5.67977e-06
-1.21683e-05
3.63143e-05
-1.03758e-05
3.55933e-05
-8.70147e-06
3.48341e-05
3.40478e-05
-7.14452e-06
-1.34531e-05
3.4436e-05
-1.16869e-05
3.38271e-05
-1.00329e-05
3.31801e-05
3.25049e-05
-8.49e-06
-1.46107e-05
3.25922e-05
-1.28735e-05
3.20898e-05
-1.12427e-05
3.15493e-05
3.09793e-05
-9.71711e-06
-1.5641e-05
3.0786e-05
-1.3936e-05
3.03848e-05
-1.23318e-05
2.99451e-05
2.94745e-05
-1.08269e-05
-1.65446e-05
2.9021e-05
-1.48753e-05
2.87155e-05
-1.33012e-05
2.8371e-05
2.79941e-05
-1.18208e-05
-1.73225e-05
2.73011e-05
-1.56927e-05
2.70858e-05
-1.41524e-05
2.68307e-05
2.6542e-05
-1.27003e-05
-1.79765e-05
2.56304e-05
-1.639e-05
2.54994e-05
-1.48874e-05
2.53281e-05
2.5122e-05
-1.34674e-05
-1.85089e-05
2.40126e-05
-1.69696e-05
2.39601e-05
-1.55084e-05
2.38669e-05
2.37378e-05
-1.41241e-05
-1.89229e-05
2.24515e-05
-1.74344e-05
2.24716e-05
-1.60182e-05
2.24506e-05
2.23929e-05
-1.46733e-05
-1.92222e-05
2.09506e-05
-1.77879e-05
2.10373e-05
-1.64199e-05
2.10827e-05
2.10907e-05
-1.51177e-05
-1.94111e-05
1.9513e-05
-1.8034e-05
1.96602e-05
-1.67174e-05
1.97661e-05
1.98343e-05
-1.54609e-05
-1.94947e-05
1.81411e-05
-1.81773e-05
1.83428e-05
-1.69146e-05
1.85034e-05
1.86263e-05
-1.57066e-05
-1.94784e-05
1.68369e-05
-1.82227e-05
1.70871e-05
-1.70161e-05
1.72968e-05
1.74689e-05
-1.58587e-05
-1.9368e-05
1.56017e-05
-1.81756e-05
1.58947e-05
-1.70267e-05
1.61479e-05
1.63639e-05
-1.59218e-05
-1.91698e-05
1.44361e-05
-1.80415e-05
1.47664e-05
-1.69514e-05
1.50579e-05
1.53128e-05
-1.59002e-05
-1.88898e-05
1.33403e-05
-1.7826e-05
1.37026e-05
-1.67954e-05
1.40272e-05
1.43162e-05
-1.57988e-05
-1.85345e-05
1.23136e-05
-1.7535e-05
1.27031e-05
-1.65639e-05
1.30561e-05
1.33746e-05
-1.56223e-05
-1.81099e-05
1.13549e-05
-1.71739e-05
1.1767e-05
-1.6262e-05
1.21442e-05
1.24879e-05
-1.53753e-05
-1.76218e-05
1.04628e-05
-1.67482e-05
1.08934e-05
-1.58947e-05
1.12907e-05
1.16558e-05
-1.50626e-05
-1.70757e-05
9.63515e-06
-1.6263e-05
1.00807e-05
-1.54668e-05
1.04945e-05
1.08775e-05
-1.46884e-05
-1.64767e-05
8.86984e-06
-1.5723e-05
9.32702e-06
-1.49827e-05
9.75416e-06
1.0152e-05
-1.42572e-05
-1.58292e-05
8.16438e-06
-1.51326e-05
8.63046e-06
-1.44466e-05
9.06816e-06
9.47802e-06
-1.37726e-05
-1.51373e-05
7.51621e-06
-1.44957e-05
7.98885e-06
-1.38623e-05
8.43474e-06
8.85424e-06
-1.32385e-05
-1.44046e-05
6.92275e-06
-1.38158e-05
7.4e-06
-1.32331e-05
7.8521e-06
8.27922e-06
-1.26581e-05
-1.36342e-05
6.38142e-06
-1.3096e-05
6.86175e-06
-1.25623e-05
7.31842e-06
7.75146e-06
-1.20346e-05
-1.28291e-05
5.88975e-06
-1.23394e-05
6.37199e-06
-1.18529e-05
6.83196e-06
7.26954e-06
-1.1371e-05
-1.19919e-05
5.44546e-06
-1.15487e-05
5.92876e-06
-1.11078e-05
6.39106e-06
6.8321e-06
-1.06704e-05
-1.11256e-05
5.04646e-06
-1.07271e-05
5.5303e-06
-1.03303e-05
5.99424e-06
6.4379e-06
-9.93613e-06
-1.02336e-05
4.69101e-06
-9.87842e-06
5.17513e-06
-9.52444e-06
5.64025e-06
6.08592e-06
-9.17246e-06
-9.32057e-06
4.37778e-06
-9.00757e-06
4.86213e-06
-8.69549e-06
5.32817e-06
5.77534e-06
-8.38492e-06
-8.39317e-06
4.10607e-06
-8.12175e-06
4.59071e-06
-7.85103e-06
5.05745e-06
5.50566e-06
-7.58135e-06
-7.46126e-06
3.876e-06
-7.23148e-06
4.36093e-06
-7.00204e-06
4.828e-06
5.27663e-06
-6.77302e-06
-6.53963e-06
3.68885e-06
-6.35235e-06
4.17363e-06
-6.16461e-06
4.64026e-06
5.08828e-06
-5.97627e-06
-5.65036e-06
3.54725e-06
-5.50722e-06
4.0305e-06
-5.36197e-06
4.495e-06
4.94062e-06
-5.21431e-06
-4.82583e-06
3.45501e-06
-4.72886e-06
3.93353e-06
-4.62664e-06
4.39279e-06
4.83309e-06
-4.51911e-06
-4.11149e-06
3.41581e-06
-4.06172e-06
3.88377e-06
-4.00167e-06
4.33274e-06
4.76348e-06
-3.93206e-06
-3.56545e-06
3.42984e-06
-3.56023e-06
3.87856e-06
-3.53804e-06
4.31055e-06
4.72649e-06
-3.50104e-06
-3.25888e-06
-3.28586e-06
-3.29019e-06
-3.27567e-06
2.97641e-06
4.50804e-05
4.36676e-06
4.32143e-05
5.56136e-06
4.13263e-05
6.56685e-06
3.94387e-05
7.39279e-06
3.75711e-05
8.05106e-06
3.57403e-05
8.55513e-06
3.39602e-05
8.91947e-06
3.22425e-05
9.15899e-06
3.05964e-05
9.28858e-06
2.90292e-05
9.32272e-06
2.75461e-05
9.27511e-06
2.61503e-05
9.15852e-06
2.48436e-05
8.98455e-06
2.36262e-05
8.76364e-06
2.24973e-05
8.505e-06
2.14553e-05
8.21662e-06
2.04977e-05
7.90534e-06
1.96219e-05
7.57692e-06
1.88251e-05
7.2361e-06
1.81044e-05
6.88673e-06
1.74572e-05
6.53189e-06
1.68811e-05
6.17394e-06
1.6374e-05
5.81461e-06
1.59342e-05
5.45514e-06
1.55604e-05
5.0963e-06
1.52515e-05
4.73847e-06
1.5007e-05
4.38175e-06
1.48266e-05
4.02596e-06
1.47103e-05
3.6707e-06
1.46585e-05
3.3154e-06
1.46718e-05
2.95936e-06
1.47511e-05
2.60177e-06
1.48978e-05
2.24174e-06
1.51129e-05
1.87837e-06
1.53975e-05
1.51078e-06
1.57518e-05
1.13823e-06
1.61738e-05
7.60418e-07
1.66543e-05
3.78213e-07
1.71545e-05
1.72835e-05
1.03552e-06
4.34827e-05
2.44794e-06
4.18019e-05
3.67803e-06
4.00962e-05
4.73165e-06
3.8385e-05
5.61714e-06
3.66856e-05
6.34477e-06
3.50126e-05
6.92617e-06
3.33788e-05
7.37386e-06
3.17948e-05
7.70085e-06
3.02695e-05
7.9202e-06
2.88099e-05
8.04472e-06
2.74216e-05
8.08669e-06
2.61083e-05
8.05768e-06
2.48726e-05
7.96834e-06
2.37155e-05
7.82837e-06
2.26373e-05
7.64646e-06
2.16372e-05
7.43028e-06
2.07139e-05
7.1865e-06
1.98657e-05
6.92083e-06
1.90908e-05
6.6381e-06
1.83871e-05
6.34232e-06
1.7753e-05
6.03678e-06
1.71866e-05
5.7241e-06
1.66867e-05
5.40633e-06
1.6252e-05
5.085e-06
1.58817e-05
4.76121e-06
1.55753e-05
4.43568e-06
1.53326e-05
4.10882e-06
1.51535e-05
3.78077e-06
1.50384e-05
3.45145e-06
1.49878e-05
3.12058e-06
1.50026e-05
2.78775e-06
1.5084e-05
2.45243e-06
1.52331e-05
2.114e-06
1.54513e-05
1.77181e-06
1.57397e-05
1.42524e-06
1.60984e-05
1.07378e-06
1.65252e-05
7.17329e-07
1.70108e-05
3.56815e-07
1.7515e-05
1.76403e-05
-7.85641e-07
4.18791e-05
6.45011e-07
4.03712e-05
1.90522e-06
3.8836e-05
3.00012e-06
3.72901e-05
3.93704e-06
3.57486e-05
4.72494e-06
3.42247e-05
5.37394e-06
3.27298e-05
5.89499e-06
3.12738e-05
6.29946e-06
2.9865e-05
6.59887e-06
2.85105e-05
6.80461e-06
2.72158e-05
6.92767e-06
2.59853e-05
6.97852e-06
2.48217e-05
6.96694e-06
2.37271e-05
6.9019e-06
2.27023e-05
6.79158e-06
2.17475e-05
6.64326e-06
2.08622e-05
6.4634e-06
2.00456e-05
6.25761e-06
1.92966e-05
6.03072e-06
1.8614e-05
5.78683e-06
1.79969e-05
5.52938e-06
1.74441e-05
5.26119e-06
1.69549e-05
4.98453e-06
1.65286e-05
4.70121e-06
1.6165e-05
4.4126e-06
1.58639e-05
4.11971e-06
1.56254e-05
3.82324e-06
1.54499e-05
3.52361e-06
1.5338e-05
3.22102e-06
1.52904e-05
2.91547e-06
1.53082e-05
2.60682e-06
1.53926e-05
2.29481e-06
1.55451e-05
1.97905e-06
1.57671e-05
1.65917e-06
1.60596e-05
1.33477e-06
1.64228e-05
1.00559e-06
1.68544e-05
6.71693e-07
1.73447e-05
3.34078e-07
1.78527e-05
1.79744e-05
-2.48848e-06
4.02727e-05
-1.044e-06
3.89267e-05
2.4087e-07
3.75511e-05
1.37057e-06
3.61604e-05
2.35144e-06
3.47678e-05
3.19133e-06
3.33849e-05
3.89912e-06
3.2022e-05
4.48441e-06
3.06885e-05
4.95724e-06
2.93922e-05
5.32778e-06
2.81399e-05
5.60619e-06
2.69374e-05
5.80234e-06
2.57891e-05
5.92571e-06
2.46984e-05
5.98525e-06
2.36676e-05
5.98927e-06
2.26983e-05
5.9454e-06
2.17914e-05
5.86055e-06
2.0947e-05
5.7409e-06
2.01652e-05
5.59193e-06
1.94455e-05
5.4184e-06
1.87876e-05
5.22445e-06
1.81908e-05
5.0136e-06
1.76549e-05
4.78881e-06
1.71797e-05
4.55255e-06
1.67649e-05
4.30683e-06
1.64108e-05
4.05325e-06
1.61175e-05
3.79307e-06
1.58856e-05
3.52725e-06
1.57158e-05
3.25645e-06
1.56088e-05
2.98114e-06
1.55657e-05
2.70158e-06
1.55878e-05
2.41786e-06
1.56764e-05
2.12997e-06
1.5833e-05
1.83777e-06
1.60593e-05
1.54111e-06
1.63562e-05
1.23983e-06
1.67241e-05
9.33882e-07
1.71604e-05
6.23519e-07
1.76551e-05
3.09872e-07
1.81663e-05
1.82842e-05
-4.07393e-06
3.86668e-05
-2.62021e-06
3.7473e-05
-1.31632e-06
3.62472e-05
-1.58261e-07
3.50024e-05
8.59476e-07
3.375e-05
1.74369e-06
3.25007e-05
2.50216e-06
3.12636e-05
3.14336e-06
3.00473e-05
3.67615e-06
2.88594e-05
4.1096e-06
2.77065e-05
4.45274e-06
2.65943e-05
4.71449e-06
2.55274e-05
4.90342e-06
2.45094e-05
5.02772e-06
2.35433e-05
5.09507e-06
2.2631e-05
5.11258e-06
2.17739e-05
5.08677e-06
2.09729e-05
5.02353e-06
2.02285e-05
4.92815e-06
1.95409e-05
4.80531e-06
1.89104e-05
4.65912e-06
1.8337e-05
4.49315e-06
1.78209e-05
4.31044e-06
1.73624e-05
4.11361e-06
1.69617e-05
3.90482e-06
1.66195e-05
3.68588e-06
1.63364e-05
3.45825e-06
1.61133e-05
3.22309e-06
1.59509e-05
2.98133e-06
1.58506e-05
2.73363e-06
1.58134e-05
2.48049e-06
1.58409e-05
2.22224e-06
1.59346e-05
1.95907e-06
1.60962e-05
1.69111e-06
1.63272e-05
1.41839e-06
1.6629e-05
1.14099e-06
1.70015e-05
8.59077e-07
1.74423e-05
5.73098e-07
1.79411e-05
2.84397e-07
1.8455e-05
1.85686e-05
-5.54289e-06
3.70652e-05
-4.08451e-06
3.60146e-05
-2.76713e-06
3.49299e-05
-1.58706e-06
3.38223e-05
-5.39367e-07
3.27023e-05
3.81887e-07
3.15794e-05
1.18349e-06
3.0462e-05
1.87286e-06
2.93579e-05
2.45786e-06
2.82744e-05
2.94655e-06
2.72178e-05
3.34704e-06
2.61938e-05
3.66734e-06
2.52071e-05
3.91523e-06
2.42615e-05
4.09821e-06
2.33603e-05
4.22335e-06
2.25058e-05
4.29726e-06
2.17e-05
4.32608e-06
2.0944e-05
4.31541e-06
2.02391e-05
4.27031e-06
1.9586e-05
4.19536e-06
1.89854e-05
4.09459e-06
1.84378e-05
3.97158e-06
1.79439e-05
3.82943e-06
1.75045e-05
3.67083e-06
1.71203e-05
3.49809e-06
1.67923e-05
3.31317e-06
1.65214e-05
3.11769e-06
1.63087e-05
2.91302e-06
1.61556e-05
2.70025e-06
1.60633e-05
2.48029e-06
1.60334e-05
2.25381e-06
1.60674e-05
2.02137e-06
1.61671e-05
1.78336e-06
1.63342e-05
1.54012e-06
1.65705e-05
1.29191e-06
1.68772e-05
1.03901e-06
1.72544e-05
7.81787e-07
1.76995e-05
5.20922e-07
1.82019e-05
2.57999e-07
1.8718e-05
1.88267e-05
-6.8964e-06
3.54716e-05
-5.43792e-06
3.45561e-05
-4.11237e-06
3.36043e-05
-2.91632e-06
3.26262e-05
-1.84531e-06
3.16313e-05
-8.94013e-07
3.06281e-05
-5.64718e-08
2.96244e-05
6.73827e-07
2.86276e-05
1.30379e-06
2.76445e-05
1.84058e-06
2.66811e-05
2.29147e-06
2.57429e-05
2.66368e-06
2.48349e-05
2.96428e-06
2.3961e-05
3.20012e-06
2.31245e-05
3.3777e-06
2.23283e-05
3.50318e-06
2.15745e-05
3.58229e-06
2.08649e-05
3.62033e-06
2.02011e-05
3.62217e-06
1.95842e-05
3.5922e-06
1.90153e-05
3.53439e-06
1.84956e-05
3.45226e-06
1.80261e-05
3.34896e-06
1.76078e-05
3.22722e-06
1.72421e-05
3.08945e-06
1.69301e-05
2.93771e-06
1.66731e-05
2.77379e-06
1.64727e-05
2.59921e-06
1.63302e-05
2.41523e-06
1.62473e-05
2.22291e-06
1.62257e-05
2.02316e-06
1.62672e-05
1.81669e-06
1.63736e-05
1.6041e-06
1.65468e-05
1.38593e-06
1.67887e-05
1.16263e-06
1.71005e-05
9.34681e-07
1.74824e-05
7.02674e-07
1.79315e-05
4.67504e-07
1.84371e-05
2.30982e-07
1.89545e-05
1.90576e-05
-8.1356e-06
3.38901e-05
-6.68163e-06
3.31022e-05
-5.35306e-06
3.22757e-05
-4.14673e-06
3.14199e-05
-3.05858e-06
3.05432e-05
-2.08385e-06
2.96534e-05
-1.21723e-06
2.87578e-05
-4.52928e-07
2.78633e-05
2.15143e-07
2.69764e-05
7.93325e-07
2.61029e-05
1.2881e-06
2.52482e-05
1.70596e-06
2.4417e-05
2.05334e-06
2.36136e-05
2.33648e-06
2.28414e-05
2.56135e-06
2.21034e-05
2.73368e-06
2.14022e-05
2.85882e-06
2.07398e-05
2.94177e-06
2.01181e-05
2.98716e-06
1.95388e-05
2.99921e-06
1.90033e-05
2.98179e-06
1.8513e-05
2.93836e-06
1.80695e-05
2.87205e-06
1.76741e-05
2.78563e-06
1.73285e-05
2.68157e-06
1.70341e-05
2.56203e-06
1.67927e-05
2.42889e-06
1.66058e-05
2.28382e-06
1.64753e-05
2.12821e-06
1.6403e-05
1.96331e-06
1.63906e-05
1.79015e-06
1.64403e-05
1.60964e-06
1.65541e-05
1.42257e-06
1.67339e-05
1.22964e-06
1.69816e-05
1.03149e-06
1.72987e-05
8.28804e-07
1.76851e-05
6.22362e-07
1.8138e-05
4.13265e-07
1.86462e-05
2.03524e-07
1.91642e-05
1.92612e-05
-9.26179e-06
3.23249e-05
-7.81695e-06
3.16573e-05
-6.49039e-06
3.09492e-05
-5.2792e-06
3.02087e-05
-4.17973e-06
2.94437e-05
-3.1877e-06
2.86614e-05
-2.29836e-06
2.78685e-05
-1.50659e-06
2.70716e-05
-8.06932e-07
2.62767e-05
-1.93752e-07
2.54897e-05
3.38715e-07
2.47157e-05
7.96323e-07
2.39594e-05
1.18484e-06
2.32251e-05
1.50995e-06
2.25163e-05
1.77718e-06
2.18362e-05
1.99178e-06
2.11876e-05
2.15878e-06
2.05728e-05
2.28287e-06
1.99941e-05
2.36842e-06
1.94532e-05
2.41951e-06
1.89522e-05
2.43984e-06
1.84927e-05
2.43282e-06
1.80765e-05
2.40154e-06
1.77054e-05
2.34878e-06
1.73813e-05
2.27703e-06
1.71059e-05
2.18852e-06
1.68812e-05
2.08524e-06
1.67091e-05
1.96893e-06
1.65916e-05
1.84114e-06
1.65308e-05
1.70322e-06
1.65286e-05
1.55638e-06
1.65872e-05
1.40167e-06
1.67088e-05
1.24004e-06
1.68955e-05
1.07235e-06
1.71493e-05
8.99433e-07
1.74716e-05
7.2213e-07
1.78624e-05
5.41401e-07
1.83187e-05
3.58527e-07
1.88291e-05
1.7567e-07
1.93471e-05
1.94368e-05
-1.02764e-05
3.07805e-05
-8.84529e-06
3.02263e-05
-7.52566e-06
2.96296e-05
-6.31484e-06
2.89979e-05
-5.20952e-06
2.83384e-05
-4.20592e-06
2.76578e-05
-3.2998e-06
2.69624e-05
-2.48658e-06
2.62584e-05
-1.76143e-06
2.55516e-05
-1.1193e-06
2.48476e-05
-5.55007e-07
2.41514e-05
-6.33499e-08
2.34678e-05
3.60909e-07
2.28008e-05
7.22921e-07
2.21543e-05
1.02773e-06
2.15314e-05
1.28019e-06
2.09351e-05
1.48498e-06
2.0368e-05
1.64649e-06
1.98326e-05
1.76886e-06
1.93309e-05
1.85596e-06
1.88651e-05
1.91137e-06
1.84373e-05
1.93841e-06
1.80495e-05
1.9401e-06
1.77037e-05
1.91922e-06
1.74021e-05
1.87826e-06
1.71468e-05
1.8195e-06
1.69399e-05
1.74498e-06
1.67836e-05
1.65655e-06
1.66801e-05
1.55585e-06
1.66315e-05
1.44435e-06
1.66401e-05
1.32338e-06
1.67082e-05
1.19414e-06
1.6838e-05
1.05771e-06
1.7032e-05
9.15123e-07
1.72919e-05
7.67343e-07
1.76194e-05
6.15362e-07
1.80144e-05
4.60261e-07
1.84738e-05
3.03408e-07
1.89859e-05
1.47084e-07
1.95034e-05
1.95839e-05
-1.1181e-05
2.92611e-05
-9.76822e-06
2.88135e-05
-8.4603e-06
2.83217e-05
-7.25484e-06
2.77925e-05
-6.14891e-06
2.72325e-05
-5.13912e-06
2.6648e-05
-4.22174e-06
2.6045e-05
-3.3927e-06
2.54293e-05
-2.6477e-06
2.48066e-05
-1.98225e-06
2.41821e-05
-1.3917e-06
2.35609e-05
-8.71376e-07
2.29475e-05
-4.16539e-07
2.2346e-05
-2.25153e-08
2.17603e-05
3.15288e-07
2.11936e-05
6.01337e-07
2.06491e-05
8.39944e-07
2.01295e-05
1.03523e-06
1.96373e-05
1.19109e-06
1.9175e-05
1.3112e-06
1.8745e-05
1.399e-06
1.83495e-05
1.45769e-06
1.79908e-05
1.49023e-06
1.76712e-05
1.49935e-06
1.7393e-05
1.48755e-06
1.71586e-05
1.45713e-06
1.69704e-05
1.41018e-06
1.68306e-05
1.34861e-06
1.67416e-05
1.27413e-06
1.67059e-05
1.18833e-06
1.67259e-05
1.09265e-06
1.68039e-05
9.88397e-07
1.69423e-05
8.7679e-07
1.71436e-05
7.58981e-07
1.74097e-05
6.36078e-07
1.77423e-05
5.0918e-07
1.81413e-05
3.79426e-07
1.86036e-05
2.48118e-07
1.91173e-05
1.175e-07
1.9634e-05
1.97014e-05
-1.19774e-05
2.77712e-05
-1.05875e-05
2.74235e-05
-9.29588e-06
2.70301e-05
-8.10057e-06
2.65972e-05
-6.99895e-06
2.61309e-05
-5.98806e-06
2.56371e-05
-5.0646e-06
2.51216e-05
-4.225e-06
2.45897e-05
-3.46543e-06
2.4047e-05
-2.7819e-06
2.34986e-05
-2.17028e-06
2.29493e-05
-1.62634e-06
2.24035e-05
-1.14582e-06
2.18655e-05
-7.24471e-07
2.13389e-05
-3.58107e-07
2.08273e-05
-4.26257e-08
2.03336e-05
2.25947e-07
1.98609e-05
4.51439e-07
1.94118e-05
6.37511e-07
1.8989e-05
7.87643e-07
1.85949e-05
9.0512e-07
1.8232e-05
9.9302e-07
1.79029e-05
1.05422e-06
1.761e-05
1.09141e-06
1.73559e-05
1.10706e-06
1.7143e-05
1.10348e-06
1.6974e-05
1.08278e-06
1.68513e-05
1.04691e-06
1.67775e-05
9.97682e-07
1.67552e-05
9.3674e-07
1.67868e-05
8.65613e-07
1.6875e-05
7.85722e-07
1.70222e-05
6.98398e-07
1.72309e-05
6.04907e-07
1.75032e-05
5.06469e-07
1.78407e-05
4.04276e-07
1.82435e-05
2.99502e-07
1.87084e-05
1.93369e-07
1.92234e-05
8.78531e-08
1.97396e-05
1.97893e-05
-1.26679e-05
2.6315e-05
-1.1305e-05
2.60607e-05
-1.00341e-05
2.57592e-05
-8.85352e-06
2.54165e-05
-7.76089e-06
2.50383e-05
-6.75368e-06
2.46299e-05
-5.82902e-06
2.41969e-05
-4.98376e-06
2.37445e-05
-4.21456e-06
2.32778e-05
-3.51786e-06
2.28019e-05
-2.89e-06
2.23214e-05
-2.32718e-06
2.18407e-05
-1.82557e-06
2.13639e-05
-1.38134e-06
2.08947e-05
-9.90648e-07
2.04366e-05
-6.49751e-07
1.99928e-05
-3.54976e-07
1.95662e-05
-1.02768e-07
1.91596e-05
1.10297e-07
1.87759e-05
2.87494e-07
1.84177e-05
4.31941e-07
1.80876e-05
5.46594e-07
1.77882e-05
6.3424e-07
1.75224e-05
6.97493e-07
1.72926e-05
7.38804e-07
1.71017e-05
7.60461e-07
1.69523e-05
7.64599e-07
1.68471e-05
7.532e-07
1.67889e-05
7.28111e-07
1.67803e-05
6.91052e-07
1.68239e-05
6.43626e-07
1.69224e-05
5.87343e-07
1.70785e-05
5.23629e-07
1.72946e-05
4.53852e-07
1.7573e-05
3.79332e-07
1.79152e-05
3.01349e-07
1.83215e-05
2.21117e-07
1.87886e-05
1.39797e-07
1.93047e-05
5.94056e-08
1.982e-05
1.98487e-05
-1.32547e-05
2.48964e-05
-1.1923e-05
2.47289e-05
-1.0677e-05
2.45133e-05
-9.51538e-06
2.42549e-05
-8.43613e-06
2.3959e-05
-7.43709e-06
2.36309e-05
-6.51577e-06
2.32756e-05
-5.66947e-06
2.28982e-05
-4.89525e-06
2.25036e-05
-4.18998e-06
2.20967e-05
-3.55041e-06
2.16818e-05
-2.97316e-06
2.12635e-05
-2.4548e-06
2.08456e-05
-1.99185e-06
2.04318e-05
-1.58085e-06
2.00256e-05
-1.21836e-06
1.96303e-05
-9.01005e-07
1.92488e-05
-6.25479e-07
1.88841e-05
-3.88592e-07
1.8539e-05
-1.87261e-07
1.82164e-05
-1.85339e-08
1.79189e-05
1.20409e-07
1.76493e-05
2.3225e-07
1.74105e-05
3.1953e-07
1.72053e-05
3.84655e-07
1.70366e-05
4.29891e-07
1.69071e-05
4.57369e-07
1.68197e-05
4.69092e-07
1.67772e-05
4.66941e-07
1.67824e-05
4.52682e-07
1.68381e-05
4.27985e-07
1.69471e-05
3.9443e-07
1.7112e-05
3.53528e-07
1.73355e-05
3.06734e-07
1.76198e-05
2.55462e-07
1.79665e-05
2.01078e-07
1.83759e-05
1.44877e-07
1.88448e-05
8.80429e-08
1.93616e-05
3.2355e-08
1.98757e-05
1.98811e-05
-1.37406e-05
2.35192e-05
-1.24438e-05
2.34322e-05
-1.12267e-05
2.32962e-05
-1.0088e-05
2.31163e-05
-9.02626e-06
2.28973e-05
-8.03956e-06
2.26442e-05
-7.12586e-06
2.23619e-05
-6.28281e-06
2.20552e-05
-5.50787e-06
2.17287e-05
-4.79832e-06
2.13871e-05
-4.15129e-06
2.10348e-05
-3.56379e-06
2.0676e-05
-3.03276e-06
2.03145e-05
-2.55505e-06
1.99541e-05
-2.12755e-06
1.95981e-05
-1.74711e-06
1.92499e-05
-1.41062e-06
1.89123e-05
-1.11505e-06
1.85886e-05
-8.57408e-07
1.82814e-05
-6.34816e-07
1.79938e-05
-4.44479e-07
1.77285e-05
-2.83714e-07
1.74886e-05
-1.49944e-07
1.72768e-05
-4.07074e-08
1.70961e-05
4.6342e-08
1.69495e-05
1.13435e-07
1.684e-05
1.62689e-07
1.67704e-05
1.96109e-07
1.67438e-05
2.15598e-07
1.67629e-05
2.2296e-07
1.68308e-05
2.1991e-07
1.69502e-05
2.08093e-07
1.71238e-05
1.89089e-07
1.73545e-05
1.6443e-07
1.76444e-05
1.35614e-07
1.79953e-05
1.04099e-07
1.84074e-05
7.12896e-08
1.88776e-05
3.84663e-08
1.93944e-05
6.87412e-09
1.99073e-05
1.98879e-05
-1.41286e-05
2.21868e-05
-1.28703e-05
2.21739e-05
-1.16856e-05
2.21115e-05
-1.05736e-05
2.20043e-05
-9.53306e-06
2.18568e-05
-8.5626e-06
2.16738e-05
-7.66044e-06
2.14598e-05
-6.82462e-06
2.12193e-05
-6.05298e-06
2.09571e-05
-5.34316e-06
2.06773e-05
-4.69265e-06
2.03843e-05
-4.09882e-06
2.00822e-05
-3.55894e-06
1.97747e-05
-3.07021e-06
1.94654e-05
-2.62981e-06
1.91577e-05
-2.23488e-06
1.88549e-05
-1.88258e-06
1.856e-05
-1.5701e-06
1.82761e-05
-1.29468e-06
1.8006e-05
-1.05362e-06
1.77527e-05
-8.44283e-07
1.75192e-05
-6.6413e-07
1.73084e-05
-5.1069e-07
1.71233e-05
-3.81588e-07
1.6967e-05
-2.74541e-07
1.68425e-05
-1.87363e-07
1.67528e-05
-1.17962e-07
1.6701e-05
-6.43401e-08
1.66901e-05
-2.45875e-08
1.67232e-05
3.12341e-09
1.68031e-05
2.05467e-08
1.69327e-05
2.93734e-08
1.7115e-05
3.12431e-08
1.73526e-05
2.77565e-08
1.76479e-05
2.04864e-08
1.80026e-05
1.09839e-08
1.84169e-05
7.77543e-10
1.88878e-05
-8.65153e-09
1.94038e-05
-1.60754e-08
1.99147e-05
1.98719e-05
-1.44221e-05
2.09023e-05
-1.32054e-05
2.09573e-05
-1.20563e-05
2.09625e-05
-1.09743e-05
2.09223e-05
-9.95855e-06
2.0841e-05
-9.00786e-06
2.07231e-05
-8.12087e-06
2.05728e-05
-7.29597e-06
2.03944e-05
-6.53134e-06
2.01924e-05
-5.82496e-06
1.99709e-05
-5.17468e-06
1.97341e-05
-4.57818e-06
1.94857e-05
-4.03307e-06
1.92296e-05
-3.53684e-06
1.89692e-05
-3.08695e-06
1.87079e-05
-2.68082e-06
1.84488e-05
-2.31586e-06
1.81951e-05
-1.9895e-06
1.79497e-05
-1.69916e-06
1.77157e-05
-1.44234e-06
1.74959e-05
-1.21657e-06
1.72934e-05
-1.01942e-06
1.71113e-05
-8.48544e-07
1.69525e-05
-7.01659e-07
1.68201e-05
-5.76554e-07
1.67174e-05
-4.71093e-07
1.66473e-05
-3.8322e-07
1.66131e-05
-3.10954e-07
1.66179e-05
-2.52385e-07
1.66646e-05
-2.05675e-07
1.67563e-05
-1.69043e-07
1.68961e-05
-1.40762e-07
1.70867e-05
-1.19146e-07
1.7331e-05
-1.02538e-07
1.76313e-05
-8.93003e-08
1.79894e-05
-7.78041e-08
1.84054e-05
-6.64317e-08
1.88765e-05
-5.36138e-08
1.9391e-05
-3.79877e-08
1.98991e-05
1.98339e-05
-1.46247e-05
1.96683e-05
-1.34523e-05
1.97849e-05
-1.23418e-05
1.98519e-05
-1.12928e-05
1.98733e-05
-1.03049e-05
1.98531e-05
-9.3772e-06
1.97954e-05
-8.5087e-06
1.97043e-05
-7.69809e-06
1.95839e-05
-6.94389e-06
1.94382e-05
-6.2444e-06
1.92715e-05
-5.59779e-06
1.90875e-05
-5.00205e-06
1.889e-05
-4.45507e-06
1.86826e-05
-3.95464e-06
1.84688e-05
-3.49849e-06
1.82517e-05
-3.08429e-06
1.80346e-05
-2.70969e-06
1.78205e-05
-2.37233e-06
1.76124e-05
-2.06984e-06
1.74132e-05
-1.79989e-06
1.7226e-05
-1.56015e-06
1.70537e-05
-1.34836e-06
1.68995e-05
-1.16225e-06
1.67664e-05
-9.99659e-07
1.66575e-05
-8.58439e-07
1.65762e-05
-7.36517e-07
1.65254e-05
-6.31878e-07
1.65085e-05
-5.42568e-07
1.65286e-05
-4.66687e-07
1.65887e-05
-4.02394e-07
1.6692e-05
-3.47893e-07
1.68416e-05
-3.01433e-07
1.70403e-05
-2.61292e-07
1.72909e-05
-2.25769e-07
1.75958e-05
-1.93174e-07
1.79568e-05
-1.61811e-07
1.8374e-05
-1.29987e-07
1.88446e-05
-9.6041e-08
1.93571e-05
-5.84666e-08
1.98615e-05
1.97754e-05
-1.47403e-05
1.84869e-05
-1.36146e-05
1.86592e-05
-1.25451e-05
1.87824e-05
-1.15318e-05
1.886e-05
-1.05745e-05
1.88958e-05
-9.67267e-06
1.88936e-05
-8.82564e-06
1.88573e-05
-8.0324e-06
1.87906e-05
-7.29176e-06
1.86976e-05
-6.60234e-06
1.85821e-05
-5.96258e-06
1.84477e-05
-5.37077e-06
1.82982e-05
-4.82507e-06
1.81369e-05
-4.32354e-06
1.79672e-05
-3.86416e-06
1.77923e-05
-3.44484e-06
1.76153e-05
-3.06347e-06
1.74391e-05
-2.71787e-06
1.72668e-05
-2.40589e-06
1.71012e-05
-2.12534e-06
1.69454e-05
-1.87406e-06
1.68024e-05
-1.6499e-06
1.66753e-05
-1.45074e-06
1.65672e-05
-1.27449e-06
1.64813e-05
-1.1191e-06
1.64208e-05
-9.82548e-07
1.63889e-05
-8.62873e-07
1.63889e-05
-7.58153e-07
1.64239e-05
-6.66508e-07
1.64971e-05
-5.86103e-07
1.66116e-05
-5.15138e-07
1.67706e-05
-4.51848e-07
1.6977e-05
-3.94487e-07
1.72335e-05
-3.41322e-07
1.75426e-05
-2.90616e-07
1.79061e-05
-2.40624e-07
1.8324e-05
-1.89585e-07
1.87936e-05
-1.35758e-07
1.93032e-05
-7.75303e-08
1.98033e-05
1.96979e-05
-1.4773e-05
1.73597e-05
-1.36959e-05
1.75821e-05
-1.26694e-05
1.77559e-05
-1.1694e-05
1.78846e-05
-1.07698e-05
1.79716e-05
-9.89644e-06
1.80203e-05
-9.07358e-06
1.80344e-05
-8.30049e-06
1.80176e-05
-7.57627e-06
1.79734e-05
-6.89981e-06
1.79056e-05
-6.26982e-06
1.78177e-05
-5.68487e-06
1.77132e-05
-5.14337e-06
1.75954e-05
-4.64364e-06
1.74675e-05
-4.18388e-06
1.73326e-05
-3.76224e-06
1.71937e-05
-3.37681e-06
1.70537e-05
-3.02561e-06
1.69156e-05
-2.70666e-06
1.67823e-05
-2.41796e-06
1.66567e-05
-2.15747e-06
1.65419e-05
-1.92319e-06
1.6441e-05
-1.71311e-06
1.63571e-05
-1.52523e-06
1.62934e-05
-1.35759e-06
1.62532e-05
-1.20824e-06
1.62396e-05
-1.07527e-06
1.62559e-05
-9.56804e-07
1.63054e-05
-8.50978e-07
1.63912e-05
-7.55978e-07
1.65166e-05
-6.70011e-07
1.66846e-05
-5.91305e-07
1.68983e-05
-5.18102e-07
1.71603e-05
-4.48644e-07
1.74732e-05
-3.81163e-07
1.78386e-05
-3.13871e-07
1.82567e-05
-2.44956e-07
1.87247e-05
-1.72607e-07
1.92309e-05
-9.5132e-08
1.97258e-05
1.96027e-05
-1.47271e-05
1.6288e-05
-1.36999e-05
1.65549e-05
-1.27182e-05
1.67743e-05
-1.17827e-05
1.6949e-05
-1.08935e-05
1.70824e-05
-1.00509e-05
1.71777e-05
-9.25454e-06
1.72381e-05
-8.50408e-06
1.72671e-05
-7.79884e-06
1.72682e-05
-7.13798e-06
1.72448e-05
-6.52045e-06
1.72002e-05
-5.94507e-06
1.71379e-05
-5.41048e-06
1.70608e-05
-4.91523e-06
1.69723e-05
-4.45777e-06
1.68751e-05
-4.03643e-06
1.67723e-05
-3.6495e-06
1.66668e-05
-3.2952e-06
1.65613e-05
-2.97172e-06
1.64588e-05
-2.6772e-06
1.63622e-05
-2.40977e-06
1.62745e-05
-2.16753e-06
1.61988e-05
-1.94861e-06
1.61382e-05
-1.7511e-06
1.60959e-05
-1.57312e-06
1.60752e-05
-1.4128e-06
1.60792e-05
-1.26828e-06
1.61114e-05
-1.13774e-06
1.61748e-05
-1.01934e-06
1.62728e-05
-9.11301e-07
1.64086e-05
-8.11838e-07
1.65852e-05
-7.19184e-07
1.68056e-05
-6.31577e-07
1.70727e-05
-5.47245e-07
1.73888e-05
-4.64398e-07
1.77557e-05
-3.81218e-07
1.81735e-05
-2.95852e-07
1.86393e-05
-2.06435e-07
1.91415e-05
-1.11209e-07
1.96305e-05
1.94915e-05
-1.46068e-05
1.52725e-05
-1.36306e-05
1.55788e-05
-1.2695e-05
1.58386e-05
-1.18007e-05
1.60548e-05
-1.09485e-05
1.62301e-05
-1.01384e-05
1.63676e-05
-9.37068e-06
1.64703e-05
-8.64504e-06
1.65415e-05
-7.96108e-06
1.65842e-05
-7.31819e-06
1.66019e-05
-6.71556e-06
1.65976e-05
-6.15222e-06
1.65745e-05
-5.62705e-06
1.65357e-05
-5.13879e-06
1.6484e-05
-4.6861e-06
1.64225e-05
-4.26752e-06
1.63538e-05
-3.88152e-06
1.62808e-05
-3.52649e-06
1.62063e-05
-3.20078e-06
1.61331e-05
-2.90269e-06
1.60641e-05
-2.63048e-06
1.60023e-05
-2.3824e-06
1.59507e-05
-2.15666e-06
1.59125e-05
-1.95147e-06
1.58907e-05
-1.76503e-06
1.58887e-05
-1.59555e-06
1.59098e-05
-1.44123e-06
1.5957e-05
-1.30029e-06
1.60339e-05
-1.17096e-06
1.61435e-05
-1.05146e-06
1.62891e-05
-9.40039e-07
1.64737e-05
-8.3495e-07
1.67005e-05
-7.34428e-07
1.69722e-05
-6.36698e-07
1.72911e-05
-5.39959e-07
1.7659e-05
-4.42372e-07
1.8076e-05
-3.42055e-07
1.8539e-05
-2.371e-07
1.90365e-05
-1.25701e-07
1.95191e-05
1.93658e-05
-1.44163e-05
1.43135e-05
-1.34918e-05
1.46543e-05
-1.26032e-05
1.495e-05
-1.17515e-05
1.52031e-05
-1.09374e-05
1.54161e-05
-1.01616e-05
1.55918e-05
-9.42423e-06
1.5733e-05
-8.72533e-06
1.58426e-05
-8.06469e-06
1.59236e-05
-7.44191e-06
1.59791e-05
-6.85638e-06
1.60121e-05
-6.30734e-06
1.60255e-05
-5.79388e-06
1.60222e-05
-5.31493e-06
1.60051e-05
-4.86932e-06
1.59769e-05
-4.4558e-06
1.59402e-05
-4.07299e-06
1.5898e-05
-3.71947e-06
1.58527e-05
-3.39373e-06
1.58073e-05
-3.09422e-06
1.57646e-05
-2.81933e-06
1.57274e-05
-2.56743e-06
1.56988e-05
-2.33684e-06
1.56819e-05
-2.12588e-06
1.56798e-05
-1.93283e-06
1.56957e-05
-1.75597e-06
1.57329e-05
-1.59358e-06
1.57947e-05
-1.44393e-06
1.58842e-05
-1.30529e-06
1.60049e-05
-1.17593e-06
1.61597e-05
-1.05413e-06
1.63519e-05
-9.38151e-07
1.65845e-05
-8.26243e-07
1.68602e-05
-7.16639e-07
1.71815e-05
-6.07532e-07
1.75499e-05
-4.97077e-07
1.79655e-05
-3.83373e-07
1.84253e-05
-2.64479e-07
1.89176e-05
-1.38552e-07
1.93932e-05
1.92273e-05
-1.416e-05
1.3411e-05
-1.32874e-05
1.37817e-05
-1.24463e-05
1.41089e-05
-1.1638e-05
1.43947e-05
-1.08633e-05
1.46414e-05
-1.0123e-05
1.48515e-05
-9.41751e-06
1.50275e-05
-8.747e-06
1.51721e-05
-8.11148e-06
1.52881e-05
-7.5107e-06
1.53783e-05
-6.94426e-06
1.54457e-05
-6.41158e-06
1.54928e-05
-5.91192e-06
1.55226e-05
-5.4444e-06
1.55376e-05
-5.00803e-06
1.55405e-05
-4.6017e-06
1.55339e-05
-4.22422e-06
1.55205e-05
-3.87432e-06
1.55028e-05
-3.55063e-06
1.54837e-05
-3.25173e-06
1.54657e-05
-2.97616e-06
1.54519e-05
-2.7224e-06
1.54451e-05
-2.48887e-06
1.54484e-05
-2.27399e-06
1.54649e-05
-2.07613e-06
1.54978e-05
-1.89366e-06
1.55504e-05
-1.72491e-06
1.56259e-05
-1.56823e-06
1.57275e-05
-1.42192e-06
1.58585e-05
-1.28432e-06
1.60221e-05
-1.15372e-06
1.62213e-05
-1.02842e-06
1.64592e-05
-9.06686e-07
1.67385e-05
-7.86765e-07
1.70615e-05
-6.6686e-07
1.74299e-05
-5.45122e-07
1.78437e-05
-4.19645e-07
1.82998e-05
-2.88466e-07
1.87864e-05
-1.49719e-07
1.92544e-05
1.90775e-05
-1.38419e-05
1.25644e-05
-1.30212e-05
1.2961e-05
-1.22279e-05
1.33156e-05
-1.14635e-05
1.36303e-05
-1.0729e-05
1.39069e-05
-1.00253e-05
1.41478e-05
-9.35288e-06
1.43551e-05
-8.71219e-06
1.45314e-05
-8.10333e-06
1.46792e-05
-7.52624e-06
1.48013e-05
-6.98067e-06
1.49001e-05
-6.46619e-06
1.49784e-05
-5.98224e-06
1.50386e-05
-5.5281e-06
1.50835e-05
-5.10294e-06
1.51154e-05
-4.7058e-06
1.51368e-05
-4.33565e-06
1.51504e-05
-3.99135e-06
1.51585e-05
-3.67167e-06
1.5164e-05
-3.37534e-06
1.51694e-05
-3.101e-06
1.51775e-05
-2.84724e-06
1.51913e-05
-2.61261e-06
1.52137e-05
-2.39561e-06
1.52479e-05
-2.19471e-06
1.52969e-05
-2.00835e-06
1.53641e-05
-1.83494e-06
1.54525e-05
-1.67288e-06
1.55655e-05
-1.52055e-06
1.57062e-05
-1.37631e-06
1.58779e-05
-1.23851e-06
1.60835e-05
-1.10547e-06
1.63262e-05
-9.75493e-07
1.66085e-05
-8.46842e-07
1.69329e-05
-7.17737e-07
1.73008e-05
-5.86339e-07
1.77123e-05
-4.50744e-07
1.81642e-05
-3.08979e-07
1.86446e-05
-1.59167e-07
1.91046e-05
1.89183e-05
-1.34659e-05
1.17732e-05
-1.26967e-05
1.21918e-05
-1.19513e-05