/*--------------------------------*- C++ -*----------------------------------*\
  =========                 |
  \\      /  F ield         | OpenFOAM: The Open Source CFD Toolbox
   \\    /   O peration     | Website:  https://openfoam.org
    \\  /    A nd           | Version:  9
     \\/     M anipulation  |
\*---------------------------------------------------------------------------*/
FoamFile
{
    format      ascii;
    class       volVectorField;
    location    "0.2";
    object      U;
}
// * * * * * * * * * * * * * * * * * * * * * * * * * * * * * * * * * * * * * //

dimensions      [0 1 -1 0 0 0 0];

internalField   nonuniform List<vector> 
1935
(
(-0.0728834 0.554551 0)
(-0.0912154 0.529602 0)
(-0.108005 0.50508 0)
(-0.123261 0.48094 0)
(-0.136985 0.457187 0)
(-0.149187 0.433824 0)
(-0.159884 0.410869 0)
(-0.169101 0.388349 0)
(-0.176866 0.366298 0)
(-0.183217 0.344757 0)
(-0.188197 0.323771 0)
(-0.191857 0.303386 0)
(-0.194254 0.283652 0)
(-0.195452 0.264614 0)
(-0.195521 0.246316 0)
(-0.194538 0.228796 0)
(-0.192583 0.212089 0)
(-0.189739 0.196217 0)
(-0.18609 0.1812 0)
(-0.181723 0.167045 0)
(-0.176718 0.153752 0)
(-0.171157 0.141315 0)
(-0.165115 0.129719 0)
(-0.158659 0.118944 0)
(-0.151855 0.108963 0)
(-0.144756 0.0997466 0)
(-0.137414 0.0912629 0)
(-0.129869 0.0834773 0)
(-0.122158 0.0763551 0)
(-0.114313 0.0698617 0)
(-0.106359 0.0639637 0)
(-0.098321 0.0586292 0)
(-0.090223 0.053829 0)
(-0.0820912 0.0495374 0)
(-0.0739583 0.0457331 0)
(-0.065869 0.0424011 0)
(-0.0578872 0.0395358 0)
(-0.0501071 0.0371456 0)
(-0.0426693 0.0352596 0)
(-0.0357852 0.0339312 0)
(-0.0297649 0.0332284 0)
(-0.0250356 0.0332818 0)
(-0.0222011 0.0344672 0)
(-0.0502182 0.538531 0)
(-0.0296896 0.522063 0)
(-0.010776 0.505006 0)
(0.00649385 0.487605 0)
(-0.0691245 0.515224 0)
(-0.0490831 0.500424 0)
(-0.0305439 0.485096 0)
(-0.0135276 0.469451 0)
(-0.086465 0.492257 0)
(-0.0668777 0.479045 0)
(-0.0486962 0.465346 0)
(-0.0319338 0.451343 0)
(-0.102246 0.469616 0)
(-0.0830966 0.457918 0)
(-0.0652693 0.445757 0)
(-0.0487685 0.433298 0)
(-0.116485 0.447303 0)
(-0.0977712 0.437045 0)
(-0.080302 0.426342 0)
(-0.0640758 0.41534 0)
(-0.129205 0.425322 0)
(-0.110932 0.416439 0)
(-0.0938329 0.407119 0)
(-0.0778988 0.397493 0)
(-0.140431 0.403692 0)
(-0.122614 0.39612 0)
(-0.105901 0.388113 0)
(-0.0902809 0.379791 0)
(-0.150194 0.38244 0)
(-0.132851 0.376116 0)
(-0.116546 0.369356 0)
(-0.101266 0.362268 0)
(-0.15853 0.3616 0)
(-0.141684 0.356461 0)
(-0.125812 0.350884 0)
(-0.110898 0.344962 0)
(-0.165479 0.341209 0)
(-0.149154 0.337193 0)
(-0.133742 0.332734 0)
(-0.119225 0.327915 0)
(-0.171087 0.321309 0)
(-0.15531 0.318354 0)
(-0.140385 0.314949 0)
(-0.126293 0.311168 0)
(-0.175403 0.301947 0)
(-0.160202 0.299987 0)
(-0.145791 0.297572 0)
(-0.132154 0.294765 0)
(-0.178484 0.283166 0)
(-0.163885 0.282137 0)
(-0.150014 0.280645 0)
(-0.136859 0.278749 0)
(-0.180392 0.265011 0)
(-0.166418 0.264845 0)
(-0.153112 0.264211 0)
(-0.140464 0.263161 0)
(-0.181192 0.247525 0)
(-0.167864 0.248153 0)
(-0.155144 0.24831 0)
(-0.143026 0.248043 0)
(-0.180955 0.230743 0)
(-0.16829 0.232097 0)
(-0.156175 0.232978 0)
(-0.144603 0.233431 0)
(-0.179756 0.2147 0)
(-0.167767 0.21671 0)
(-0.156268 0.218249 0)
(-0.145258 0.219357 0)
(-0.177672 0.199421 0)
(-0.166364 0.202019 0)
(-0.155491 0.20415 0)
(-0.145053 0.20585 0)
(-0.174781 0.184924 0)
(-0.164157 0.188043 0)
(-0.153913 0.190702 0)
(-0.144052 0.192933 0)
(-0.171163 0.171221 0)
(-0.161217 0.174796 0)
(-0.1516 0.177921 0)
(-0.142317 0.180624 0)
(-0.166895 0.158315 0)
(-0.157617 0.162285 0)
(-0.14862 0.165816 0)
(-0.139912 0.168935 0)
(-0.162051 0.146205 0)
(-0.153426 0.150511 0)
(-0.145039 0.154393 0)
(-0.136898 0.157873 0)
(-0.156701 0.134879 0)
(-0.148711 0.139467 0)
(-0.140919 0.143648 0)
(-0.133333 0.14744 0)
(-0.150912 0.124322 0)
(-0.143534 0.129144 0)
(-0.136318 0.133576 0)
(-0.129274 0.137633 0)
(-0.144743 0.114514 0)
(-0.137952 0.119525 0)
(-0.131292 0.124165 0)
(-0.124772 0.128445 0)
(-0.138249 0.105431 0)
(-0.132019 0.110592 0)
(-0.125891 0.1154 0)
(-0.119877 0.119866 0)
(-0.131478 0.0970446 0)
(-0.12578 0.102322 0)
(-0.120161 0.107266 0)
(-0.114632 0.111883 0)
(-0.124473 0.0893273 0)
(-0.119279 0.0946915 0)
(-0.114144 0.0997412 0)
(-0.10908 0.104482 0)
(-0.117269 0.082249 0)
(-0.112551 0.0876758 0)
(-0.107877 0.0928067 0)
(-0.103256 0.0976445 0)
(-0.109898 0.0757803 0)
(-0.10563 0.08125 0)
(-0.101392 0.0864413 0)
(-0.0971942 0.0913555 0)
(-0.10239 0.0698921 0)
(-0.0985455 0.0753893 0)
(-0.0947214 0.0806246 0)
(-0.0909264 0.0855977 0)
(-0.0947698 0.0645572 0)
(-0.0913254 0.0700705 0)
(-0.0878938 0.0753371 0)
(-0.0844832 0.080355 0)
(-0.0870646 0.0597505 0)
(-0.0839983 0.0652721 0)
(-0.08094 0.0705606 0)
(-0.0778967 0.0756126 0)
(-0.0793038 0.0554498 0)
(-0.0765966 0.0609753 0)
(-0.0738947 0.0662794 0)
(-0.0712036 0.0713573 0)
(-0.0715242 0.0516372 0)
(-0.0691608 0.0571652 0)
(-0.0668014 0.0624809 0)
(-0.0644498 0.0675785 0)
(-0.0637759 0.0483006 0)
(-0.0617454 0.0538314 0)
(-0.0597182 0.0591563 0)
(-0.0576962 0.0642685 0)
(-0.0561304 0.0454358 0)
(-0.0544277 0.0509704 0)
(-0.0527267 0.0563019 0)
(-0.0510273 0.0614232 0)
(-0.0486918 0.0430501 0)
(-0.0473188 0.0485873 0)
(-0.045943 0.0539199 0)
(-0.044562 0.0590415 0)
(-0.0416127 0.0411658 0)
(-0.0405791 0.0466969 0)
(-0.0395312 0.0520178 0)
(-0.0384655 0.0571248 0)
(-0.0351161 0.0398207 0)
(-0.0344361 0.0453222 0)
(-0.0337188 0.050606 0)
(-0.0329623 0.0556724 0)
(-0.0295143 0.0390549 0)
(-0.029197 0.0444814 0)
(-0.0288039 0.0496852 0)
(-0.028339 0.0546729 0)
(-0.025208 0.0389301 0)
(-0.0252357 0.0441889 0)
(-0.0251349 0.0492376 0)
(-0.0249217 0.0540855 0)
(-0.0227024 0.0396434 0)
(-0.0229789 0.04451 0)
(-0.0230817 0.0492275 0)
(-0.0230402 0.0537969 0)
(0.0230676 0.468965 0)
(0.0384386 0.44891 0)
(0.0517749 0.428648 0)
(0.0631231 0.408421 0)
(0.0725593 0.388444 0)
(0.080196 0.368898 0)
(0.0861664 0.349935 0)
(0.0906163 0.331679 0)
(0.0936988 0.314225 0)
(0.0955691 0.29765 0)
(0.0963798 0.282003 0)
(0.0962773 0.267315 0)
(0.0953987 0.253601 0)
(0.0938702 0.240856 0)
(0.091806 0.229068 0)
(0.0893074 0.218212 0)
(0.0864631 0.20826 0)
(0.0833497 0.199179 0)
(0.0800318 0.190933 0)
(0.0765636 0.183491 0)
(0.0729891 0.176819 0)
(0.0693439 0.170891 0)
(0.0656557 0.165681 0)
(0.0619457 0.161168 0)
(0.0582289 0.157337 0)
(0.0545157 0.154175 0)
(0.0508118 0.151674 0)
(0.0471197 0.149829 0)
(0.0434388 0.14864 0)
(0.039766 0.148108 0)
(0.0360963 0.148241 0)
(0.0324228 0.149045 0)
(0.0287377 0.150534 0)
(0.025032 0.152719 0)
(0.0212961 0.155611 0)
(0.0175193 0.159211 0)
(0.0136922 0.163499 0)
(0.00983002 0.168386 0)
(0.00596125 0.173478 0)
(0.00229437 0.174812 0)
(0.00290599 0.452671 0)
(0.0182938 0.434575 0)
(0.0318036 0.416241 0)
(0.0434776 0.397877 0)
(0.0533815 0.379672 0)
(0.061612 0.361788 0)
(0.0682829 0.344358 0)
(0.0735191 0.327498 0)
(0.0774523 0.311299 0)
(0.0802168 0.295836 0)
(0.081946 0.281164 0)
(0.082769 0.267318 0)
(0.0828081 0.254322 0)
(0.0821774 0.242182 0)
(0.0809812 0.230895 0)
(0.0793138 0.220449 0)
(0.0772587 0.210827 0)
(0.0748892 0.202006 0)
(0.0722686 0.193962 0)
(0.0694506 0.186672 0)
(0.0664802 0.180112 0)
(0.0633946 0.174263 0)
(0.0602238 0.169106 0)
(0.0569916 0.164627 0)
(0.0537162 0.160816 0)
(0.050411 0.157664 0)
(0.0470852 0.155167 0)
(0.0437445 0.153324 0)
(0.0403916 0.152136 0)
(0.0370267 0.151609 0)
(0.0336478 0.15175 0)
(0.0302514 0.152569 0)
(0.0268323 0.154078 0)
(0.0233845 0.156292 0)
(0.0199013 0.15922 0)
(0.0163747 0.162864 0)
(0.0127981 0.167203 0)
(0.00918737 0.172142 0)
(0.00557051 0.177277 0)
(0.0021387 0.178573 0)
(-0.0156561 0.436299 0)
(-0.000285317 0.420032 0)
(0.0133475 0.403497 0)
(0.0252778 0.386877 0)
(0.0355634 0.370338 0)
(0.0442879 0.35402 0)
(0.0515498 0.338047 0)
(0.0574567 0.322524 0)
(0.0621227 0.307538 0)
(0.0656646 0.293163 0)
(0.0681993 0.279455 0)
(0.0698407 0.266455 0)
(0.0706983 0.254192 0)
(0.0708748 0.242681 0)
(0.0704656 0.231927 0)
(0.0695577 0.221929 0)
(0.0682295 0.212678 0)
(0.0665506 0.20416 0)
(0.0645821 0.196363 0)
(0.0623767 0.189269 0)
(0.0599797 0.182865 0)
(0.0574291 0.177136 0)
(0.0547565 0.172072 0)
(0.0519877 0.167663 0)
(0.0491432 0.163905 0)
(0.046239 0.160793 0)
(0.0432871 0.158328 0)
(0.0402961 0.15651 0)
(0.0372716 0.155345 0)
(0.0342167 0.15484 0)
(0.0311322 0.155004 0)
(0.0280174 0.155849 0)
(0.02487 0.157388 0)
(0.0216865 0.159637 0)
(0.0184628 0.162605 0)
(0.0151938 0.166295 0)
(0.0118753 0.170683 0)
(0.00852384 0.175672 0)
(0.00516671 0.180847 0)
(0.00197688 0.182106 0)
(-0.0326688 0.419881 0)
(-0.0173546 0.405323 0)
(-0.00365231 0.390473 0)
(0.00846922 0.375489 0)
(0.0190582 0.360515 0)
(0.0281873 0.345679 0)
(0.0359421 0.331091 0)
(0.0424162 0.316847 0)
(0.047709 0.303033 0)
(0.0519224 0.289718 0)
(0.0551594 0.276961 0)
(0.0575208 0.264805 0)
(0.0591044 0.253284 0)
(0.060003 0.242419 0)
(0.0603034 0.232224 0)
(0.0600859 0.222703 0)
(0.0594235 0.213857 0)
(0.0583821 0.205681 0)
(0.05702 0.198167 0)
(0.0553886 0.191308 0)
(0.0535326 0.185096 0)
(0.0514903 0.179524 0)
(0.0492942 0.174588 0)
(0.0469715 0.170282 0)
(0.0445446 0.166607 0)
(0.0420315 0.163564 0)
(0.0394467 0.161154 0)
(0.036801 0.159384 0)
(0.0341027 0.158261 0)
(0.0313573 0.157794 0)
(0.0285683 0.157995 0)
(0.0257373 0.158877 0)
(0.0228647 0.160455 0)
(0.0199495 0.162745 0)
(0.0169899 0.165758 0)
(0.0139835 0.169495 0)
(0.0109282 0.173931 0)
(0.00784132 0.178966 0)
(0.00474937 0.184176 0)
(0.00180756 0.185398 0)
(-0.0481785 0.403451 0)
(-0.0329612 0.390495 0)
(-0.0192433 0.377224 0)
(-0.006996 0.363778 0)
(0.00382278 0.350281 0)
(0.0132748 0.336847 0)
(0.0214339 0.323575 0)
(0.0283819 0.310557 0)
(0.0342057 0.297872 0)
(0.0389949 0.285588 0)
(0.0428401 0.273764 0)
(0.0458311 0.262446 0)
(0.0480551 0.25167 0)
(0.0495959 0.241463 0)
(0.0505327 0.231844 0)
(0.0509392 0.222825 0)
(0.0508832 0.214411 0)
(0.0504267 0.206605 0)
(0.0496251 0.199407 0)
(0.0485281 0.192815 0)
(0.0471793 0.186828 0)
(0.0456169 0.181445 0)
(0.0438737 0.176666 0)
(0.0419779 0.172492 0)
(0.0399532 0.168928 0)
(0.0378192 0.165977 0)
(0.0355921 0.163646 0)
(0.0332851 0.161944 0)
(0.0309083 0.160881 0)
(0.0284696 0.160468 0)
(0.0259747 0.160718 0)
(0.0234276 0.161648 0)
(0.0208307 0.163273 0)
(0.0181856 0.165609 0)
(0.0154926 0.168669 0)
(0.0127516 0.172453 0)
(0.00996279 0.176936 0)
(0.00714394 0.182015 0)
(0.00432112 0.187256 0)
(0.00163301 0.188437 0)
(-0.0622308 0.387046 0)
(-0.0471501 0.375597 0)
(-0.0334682 0.363811 0)
(-0.0211574 0.35181 0)
(-0.0101802 0.339706 0)
(-0.000482195 0.3276 0)
(0.00800002 0.315582 0)
(0.0153369 0.303737 0)
(0.0216047 0.292139 0)
(0.0268823 0.280856 0)
(0.0312497 0.269945 0)
(0.0347869 0.259453 0)
(0.0375719 0.24942 0)
(0.0396804 0.239877 0)
(0.0411844 0.230846 0)
(0.0421515 0.222344 0)
(0.0426447 0.214383 0)
(0.0427217 0.206972 0)
(0.0424353 0.200115 0)
(0.0418328 0.193818 0)
(0.0409568 0.188083 0)
(0.0398447 0.182916 0)
(0.0385295 0.178321 0)
(0.0370395 0.174305 0)
(0.0353996 0.170874 0)
(0.0336305 0.168038 0)
(0.03175 0.165807 0)
(0.0297727 0.164191 0)
(0.0277108 0.163203 0)
(0.0255739 0.162857 0)
(0.0233698 0.163169 0)
(0.0211044 0.164156 0)
(0.0187824 0.165835 0)
(0.0164072 0.168222 0)
(0.0139814 0.171332 0)
(0.0115069 0.175165 0)
(0.00898631 0.179693 0)
(0.00643764 0.184811 0)
(0.0038866 0.190076 0)
(0.00145644 0.19121 0)
(-0.0748715 0.370703 0)
(-0.0599672 0.360677 0)
(-0.04637 0.350289 0)
(-0.0340536 0.33965 0)
(-0.0229839 0.32886 0)
(-0.0131126 0.318011 0)
(-0.0043839 0.307187 0)
(0.00326368 0.296463 0)
(0.00989581 0.285912 0)
(0.0155817 0.275597 0)
(0.0203923 0.265576 0)
(0.0243988 0.255897 0)
(0.0276712 0.246601 0)
(0.0302778 0.237721 0)
(0.0322838 0.229285 0)
(0.0337513 0.221312 0)
(0.0347385 0.21382 0)
(0.0352994 0.206822 0)
(0.0354835 0.200327 0)
(0.0353362 0.194346 0)
(0.0348982 0.188886 0)
(0.0342062 0.183958 0)
(0.0332927 0.17957 0)
(0.0321863 0.175733 0)
(0.0309123 0.172458 0)
(0.0294924 0.169756 0)
(0.0279453 0.167641 0)
(0.0262872 0.166127 0)
(0.0245315 0.165229 0)
(0.0226897 0.164964 0)
(0.0207712 0.165347 0)
(0.0187838 0.166399 0)
(0.0167339 0.168138 0)
(0.0146268 0.170581 0)
(0.0124672 0.173742 0)
(0.0102589 0.177623 0)
(0.00800651 0.182194 0)
(0.00572862 0.187347 0)
(0.00345031 0.192629 0)
(0.00127999 0.193709 0)
(-0.0861463 0.354464 0)
(-0.0714583 0.345779 0)
(-0.0579927 0.336711 0)
(-0.0457243 0.327357 0)
(-0.0346225 0.31781 0)
(-0.0246442 0.308151 0)
(-0.0157398 0.29846 0)
(-0.00785526 0.288807 0)
(-0.00093292 0.27926 0)
(0.00508764 0.269881 0)
(0.0102687 0.260726 0)
(0.0146735 0.251843 0)
(0.0183649 0.243274 0)
(0.0214043 0.235054 0)
(0.0238511 0.227214 0)
(0.025762 0.219778 0)
(0.0271907 0.212765 0)
(0.0281874 0.206193 0)
(0.0287986 0.200076 0)
(0.0290674 0.194429 0)
(0.0290327 0.189264 0)
(0.0287302 0.184594 0)
(0.0281917 0.180432 0)
(0.0274456 0.176792 0)
(0.0265175 0.17369 0)
(0.0254296 0.171139 0)
(0.0242015 0.169157 0)
(0.0228503 0.167759 0)
(0.0213908 0.166963 0)
(0.0198357 0.166788 0)
(0.018196 0.167252 0)
(0.016481 0.168376 0)
(0.0146988 0.17018 0)
(0.0128565 0.172682 0)
(0.0109604 0.175896 0)
(0.00901621 0.179824 0)
(0.0070306 0.184435 0)
(0.00502229 0.189617 0)
(0.00301534 0.19491 0)
(0.00110448 0.195929 0)
(-0.0961013 0.338372 0)
(-0.0816696 0.330952 0)
(-0.0683806 0.323128 0)
(-0.0562106 0.314988 0)
(-0.0451323 0.306615 0)
(-0.0351071 0.298084 0)
(-0.0260912 0.289469 0)
(-0.0180369 0.280838 0)
(-0.0108933 0.272254 0)
(-0.00460702 0.263776 0)
(0.000877075 0.25546 0)
(0.00561446 0.247353 0)
(0.00966108 0.239498 0)
(0.0130725 0.231932 0)
(0.0159025 0.224686 0)
(0.0182028 0.217788 0)
(0.0200228 0.211261 0)
(0.0214091 0.205124 0)
(0.0224053 0.199398 0)
(0.023052 0.194098 0)
(0.0233863 0.189241 0)
(0.0234426 0.184845 0)
(0.0232519 0.180925 0)
(0.0228423 0.177499 0)
(0.0222391 0.174584 0)
(0.021465 0.172199 0)
(0.0205401 0.170362 0)
(0.0194824 0.169092 0)
(0.0183075 0.16841 0)
(0.0170293 0.168334 0)
(0.0156601 0.168886 0)
(0.0142106 0.170088 0)
(0.0126903 0.171961 0)
(0.0111077 0.174524 0)
(0.00947093 0.177792 0)
(0.00778725 0.181765 0)
(0.00606504 0.186413 0)
(0.00432307 0.19162 0)
(0.00258345 0.196915 0)
(0.000929252 0.197866 0)
(-0.104783 0.322468 0)
(-0.090647 0.316242 0)
(-0.0775779 0.309592 0)
(-0.0655539 0.302596 0)
(-0.0545504 0.295332 0)
(-0.0445335 0.287871 0)
(-0.0354644 0.280278 0)
(-0.0273011 0.27262 0)
(-0.0199988 0.264956 0)
(-0.0135101 0.257345 0)
(-0.00778636 0.249839 0)
(-0.00277805 0.242487 0)
(0.00156467 0.23533 0)
(0.00529122 0.228407 0)
(0.00845017 0.22175 0)
(0.0110888 0.215389 0)
(0.0132524 0.20935 0)
(0.0149842 0.203655 0)
(0.0163246 0.198326 0)
(0.017312 0.193383 0)
(0.0179815 0.188847 0)
(0.0183662 0.184736 0)
(0.0184959 0.18107 0)
(0.0183984 0.17787 0)
(0.0180987 0.175155 0)
(0.0176194 0.172948 0)
(0.0169811 0.171267 0)
(0.0162022 0.170136 0)
(0.0152992 0.169575 0)
(0.0142869 0.169606 0)
(0.0131786 0.170253 0)
(0.0119861 0.171538 0)
(0.0107204 0.173483 0)
(0.00939126 0.176109 0)
(0.00800801 0.17943 0)
(0.00657952 0.183447 0)
(0.00511547 0.188128 0)
(0.00363434 0.193355 0)
(0.00215356 0.198646 0)
(0.000748562 0.199522 0)
(-0.11224 0.306798 0)
(-0.0984372 0.301696 0)
(-0.0856291 0.29615 0)
(-0.0737954 0.290234 0)
(-0.0629146 0.284018 0)
(-0.0529568 0.277567 0)
(-0.0438878 0.270944 0)
(-0.0356708 0.264212 0)
(-0.0282664 0.257428 0)
(-0.0216328 0.250648 0)
(-0.0157271 0.243923 0)
(-0.0105049 0.237301 0)
(-0.00592202 0.230824 0)
(-0.00193389 0.22453 0)
(0.00150324 0.218454 0)
(0.00443204 0.212625 0)
(0.00689393 0.207073 0)
(0.00892873 0.201822 0)
(0.0105742 0.196895 0)
(0.0118661 0.192316 0)
(0.0128378 0.188107 0)
(0.0135208 0.184291 0)
(0.0139439 0.180889 0)
(0.014134 0.177924 0)
(0.0141157 0.17542 0)
(0.0139117 0.173399 0)
(0.0135425 0.171884 0)
(0.0130269 0.170899 0)
(0.0123821 0.170467 0)
(0.0116235 0.170612 0)
(0.0107652 0.171358 0)
(0.00982032 0.172729 0)
(0.00880054 0.174749 0)
(0.00771699 0.177438 0)
(0.00658012 0.180812 0)
(0.00539998 0.184871 0)
(0.00418723 0.189583 0)
(0.00295964 0.194826 0)
(0.0017258 0.200111 0)
(0.000560351 0.200876 0)
(-0.11852 0.291407 0)
(-0.105087 0.28736 0)
(-0.092579 0.282853 0)
(-0.0809771 0.277952 0)
(-0.0702631 0.272722 0)
(-0.0604108 0.267226 0)
(-0.0513907 0.261522 0)
(-0.0431706 0.25567 0)
(-0.0357158 0.249724 0)
(-0.0289898 0.24374 0)
(-0.0229545 0.237765 0)
(-0.0175708 0.231848 0)
(-0.012799 0.22603 0)
(-0.00859925 0.22035 0)
(-0.00493211 0.214843 0)
(-0.00175882 0.20954 0)
(0.000958383 0.204471 0)
(0.0032559 0.199661 0)
(0.00516871 0.195138 0)
(0.0067302 0.190927 0)
(0.00797194 0.18705 0)
(0.00892366 0.183535 0)
(0.00961315 0.180404 0)
(0.0100664 0.177682 0)
(0.0103074 0.175395 0)
(0.0103586 0.173568 0)
(0.0102404 0.172226 0)
(0.00997199 0.171393 0)
(0.00957074 0.171096 0)
(0.00905275 0.171359 0)
(0.00843282 0.172208 0)
(0.00772467 0.173668 0)
(0.00694107 0.175764 0)
(0.00609407 0.178516 0)
(0.00519513 0.181942 0)
(0.00425525 0.18604 0)
(0.00328584 0.19078 0)
(0.00230402 0.196038 0)
(0.00130861 0.201316 0)
(0.000375326 0.20192 0)
(-0.123675 0.276338 0)
(-0.110646 0.273279 0)
(-0.098473 0.269744 0)
(-0.087141 0.265796 0)
(-0.0766342 0.261495 0)
(-0.0669303 0.256899 0)
(-0.0580037 0.252064 0)
(-0.0498264 0.247046 0)
(-0.0423685 0.241898 0)
(-0.035598 0.236673 0)
(-0.0294812 0.231418 0)
(-0.0239837 0.226179 0)
(-0.0190701 0.220999 0)
(-0.0147047 0.215915 0)
(-0.0108522 0.210963 0)
(-0.00747739 0.206175 0)
(-0.00454587 0.201582 0)
(-0.00202422 0.197211 0)
(0.000119868 0.19309 0)
(0.00191738 0.189245 0)
(0.0033979 0.185704 0)
(0.00458954 0.182492 0)
(0.00551886 0.179637 0)
(0.00621084 0.177163 0)
(0.00668892 0.175099 0)
(0.00697499 0.173471 0)
(0.00708948 0.172306 0)
(0.00705141 0.171631 0)
(0.0068785 0.171472 0)
(0.00658721 0.171857 0)
(0.00619285 0.172811 0)
(0.00570978 0.174362 0)
(0.00515153 0.176533 0)
(0.00453095 0.179349 0)
(0.00386035 0.182823 0)
(0.00315158 0.186959 0)
(0.00241677 0.191724 0)
(0.00167295 0.196995 0)
(0.000911816 0.202265 0)
(0.00020364 0.202667 0)
(-0.127757 0.261633 0)
(-0.115162 0.259496 0)
(-0.103357 0.25687 0)
(-0.0923301 0.253814 0)
(-0.0820674 0.250383 0)
(-0.0725506 0.246634 0)
(-0.063758 0.242618 0)
(-0.0556656 0.238389 0)
(-0.0482476 0.233998 0)
(-0.0414761 0.229495 0)
(-0.0353218 0.224928 0)
(-0.0297542 0.220341 0)
(-0.0247421 0.215775 0)
(-0.0202536 0.211268 0)
(-0.016257 0.206855 0)
(-0.0127206 0.20257 0)
(-0.00961305 0.198443 0)
(-0.00690376 0.194504 0)
(-0.00456295 0.190782 0)
(-0.00256186 0.187303 0)
(-0.000872803 0.184096 0)
(0.000530683 0.181189 0)
(0.00167381 0.178611 0)
(0.00258051 0.176388 0)
(0.00327345 0.17455 0)
(0.00377406 0.173124 0)
(0.00410246 0.17214 0)
(0.00427758 0.171625 0)
(0.00431722 0.171608 0)
(0.00423804 0.172116 0)
(0.00405577 0.173177 0)
(0.00378525 0.174818 0)
(0.00344062 0.177065 0)
(0.00303538 0.179942 0)
(0.0025826 0.183464 0)
(0.00209489 0.187633 0)
(0.00158511 0.192419 0)
(0.00107024 0.197699 0)
(0.000539075 0.202959 0)
(5.00731e-05 0.203132 0)
(-0.13082 0.247334 0)
(-0.118687 0.246051 0)
(-0.10728 0.244271 0)
(-0.0965881 0.242046 0)
(-0.0866027 0.23943 0)
(-0.077308 0.236474 0)
(-0.068686 0.233228 0)
(-0.0607165 0.229743 0)
(-0.0533774 0.226069 0)
(-0.0466447 0.222253 0)
(-0.0404929 0.218341 0)
(-0.0348953 0.214377 0)
(-0.0298244 0.210401 0)
(-0.025252 0.20645 0)
(-0.0211495 0.20256 0)
(-0.0174886 0.198763 0)
(-0.0142407 0.195092 0)
(-0.011378 0.191577 0)
(-0.00887307 0.188246 0)
(-0.00669927 0.185129 0)
(-0.00483081 0.182254 0)
(-0.00324281 0.179651 0)
(-0.00191138 0.177349 0)
(-0.000813634 0.175378 0)
(7.22527e-05 0.173766 0)
(0.00076707 0.172545 0)
(0.00129054 0.171743 0)
(0.00166139 0.17139 0)
(0.00189734 0.171515 0)
(0.00201519 0.172147 0)
(0.0020309 0.173315 0)
(0.00195969 0.175046 0)
(0.00181616 0.177368 0)
(0.00161438 0.180304 0)
(0.00136803 0.183871 0)
(0.0010905 0.18807 0)
(0.000795329 0.192872 0)
(0.000498525 0.198155 0)
(0.00018995 0.203404 0)
(-8.70914e-05 0.203328 0)
(-0.132919 0.233476 0)
(-0.121272 0.232983 0)
(-0.110288 0.231986 0)
(-0.0999596 0.230533 0)
(-0.0902808 0.228675 0)
(-0.0812395 0.22646 0)
(-0.0728209 0.223937 0)
(-0.0650084 0.221152 0)
(-0.0577834 0.218154 0)
(-0.0511254 0.214988 0)
(-0.0450125 0.211699 0)
(-0.0394215 0.208329 0)
(-0.0343283 0.204917 0)
(-0.0297079 0.2015 0)
(-0.025535 0.198114 0)
(-0.021784 0.194791 0)
(-0.0184291 0.191563 0)
(-0.0154451 0.188461 0)
(-0.0128067 0.185513 0)
(-0.0104895 0.182751 0)
(-0.00846939 0.180204 0)
(-0.00672309 0.177902 0)
(-0.005228 0.175875 0)
(-0.00396236 0.174154 0)
(-0.0029052 0.172769 0)
(-0.00203641 0.171752 0)
(-0.00133675 0.171132 0)
(-0.000787831 0.170941 0)
(-0.000372076 0.171208 0)
(-7.26953e-05 0.171964 0)
(0.000126401 0.173238 0)
(0.000240679 0.175058 0)
(0.000285081 0.177452 0)
(0.000274125 0.180445 0)
(0.000222026 0.184052 0)
(0.000142899 0.188277 0)
(5.1114e-05 0.193089 0)
(-3.87541e-05 0.198368 0)
(-0.000137235 0.203601 0)
(-0.000213315 0.203276 0)
(-0.134114 0.220093 0)
(-0.122971 0.220325 0)
(-0.112431 0.220049 0)
(-0.10249 0.219311 0)
(-0.0931436 0.218157 0)
(-0.084383 0.216632 0)
(-0.0761969 0.214783 0)
(-0.0685717 0.212654 0)
(-0.0614923 0.210292 0)
(-0.0549414 0.20774 0)
(-0.0489004 0.205041 0)
(-0.0433493 0.202236 0)
(-0.038267 0.199362 0)
(-0.0336317 0.196457 0)
(-0.0294209 0.193555 0)
(-0.0256116 0.190688 0)
(-0.0221808 0.187889 0)
(-0.0191054 0.185187 0)
(-0.0163626 0.182614 0)
(-0.0139296 0.180199 0)
(-0.0117843 0.177973 0)
(-0.00990476 0.175967 0)
(-0.00826977 0.174211 0)
(-0.00685864 0.172737 0)
(-0.00565134 0.171577 0)
(-0.00462849 0.170762 0)
(-0.00377141 0.170324 0)
(-0.00306211 0.170293 0)
(-0.00248324 0.170702 0)
(-0.00201813 0.17158 0)
(-0.00165065 0.172958 0)
(-0.0013652 0.174865 0)
(-0.00114662 0.177329 0)
(-0.000980046 0.180374 0)
(-0.000850854 0.184018 0)
(-0.000744347 0.188263 0)
(-0.000645539 0.193079 0)
(-0.000541011 0.198348 0)
(-0.000439396 0.203556 0)
(-0.000326557 0.202996 0)
(-0.134461 0.207214 0)
(-0.123838 0.208108 0)
(-0.11376 0.208493 0)
(-0.104226 0.208412 0)
(-0.0952331 0.207908 0)
(-0.086777 0.207023 0)
(-0.0788486 0.205802 0)
(-0.0714377 0.204286 0)
(-0.0645318 0.20252 0)
(-0.0581169 0.200546 0)
(-0.0521774 0.198404 0)
(-0.0466963 0.196133 0)
(-0.0416552 0.193771 0)
(-0.0370352 0.191354 0)
(-0.0328163 0.188915 0)
(-0.0289783 0.186487 0)
(-0.0255003 0.184101 0)
(-0.0223617 0.181787 0)
(-0.0195415 0.179577 0)
(-0.0170189 0.1775 0)
(-0.0147734 0.175587 0)
(-0.0127846 0.17387 0)
(-0.0110324 0.172381 0)
(-0.00949751 0.17115 0)
(-0.00816065 0.170211 0)
(-0.00700326 0.169595 0)
(-0.00600727 0.169335 0)
(-0.00515516 0.169463 0)
(-0.0044299 0.17001 0)
(-0.00381499 0.171008 0)
(-0.00329439 0.172488 0)
(-0.00285246 0.174479 0)
(-0.0024739 0.17701 0)
(-0.00214365 0.180104 0)
(-0.00184677 0.18378 0)
(-0.00156809 0.188041 0)
(-0.00129218 0.192855 0)
(-0.00100652 0.198105 0)
(-0.000717608 0.203281 0)
(-0.000429359 0.202499 0)
(-0.134019 0.194863 0)
(-0.123927 0.196357 0)
(-0.114325 0.197344 0)
(-0.105213 0.197865 0)
(-0.0965923 0.197958 0)
(-0.0884605 0.197665 0)
(-0.0808116 0.197026 0)
(-0.0736381 0.196081 0)
(-0.0669305 0.194872 0)
(-0.0606774 0.193439 0)
(-0.0548659 0.191821 0)
(-0.0494817 0.190055 0)
(-0.0445092 0.188178 0)
(-0.0399319 0.186225 0)
(-0.0357323 0.184228 0)
(-0.0318926 0.182219 0)
(-0.0283942 0.18023 0)
(-0.0252184 0.17829 0)
(-0.0223461 0.176429 0)
(-0.0197585 0.17468 0)
(-0.0174364 0.173071 0)
(-0.0153611 0.171636 0)
(-0.0135137 0.170406 0)
(-0.0118758 0.169413 0)
(-0.0104293 0.168689 0)
(-0.00915646 0.168269 0)
(-0.00803976 0.168184 0)
(-0.00706223 0.168467 0)
(-0.00620722 0.16915 0)
(-0.00545851 0.170265 0)
(-0.0048002 0.171843 0)
(-0.00421672 0.173914 0)
(-0.00369274 0.176507 0)
(-0.00321309 0.179647 0)
(-0.00276259 0.183351 0)
(-0.00232578 0.187621 0)
(-0.00188685 0.192428 0)
(-0.00143413 0.197653 0)
(-0.000972117 0.202787 0)
(-0.000522508 0.2018 0)
(-0.132848 0.18306 0)
(-0.123294 0.185093 0)
(-0.114176 0.186626 0)
(-0.105498 0.187695 0)
(-0.0972639 0.188335 0)
(-0.0894729 0.188586 0)
(-0.0821218 0.188484 0)
(-0.0752058 0.188068 0)
(-0.0687177 0.187378 0)
(-0.0626488 0.18645 0)
(-0.0569888 0.185323 0)
(-0.0517257 0.184033 0)
(-0.0468463 0.182614 0)
(-0.0423366 0.1811 0)
(-0.0381814 0.179523 0)
(-0.0343648 0.177914 0)
(-0.0308705 0.176303 0)
(-0.0276816 0.174721 0)
(-0.024781 0.173198 0)
(-0.0221513 0.171764 0)
(-0.019775 0.17045 0)
(-0.0176347 0.169287 0)
(-0.0157128 0.168309 0)
(-0.0139921 0.167546 0)
(-0.0124553 0.167033 0)
(-0.0110854 0.166803 0)
(-0.00986578 0.166888 0)
(-0.00877994 0.167321 0)
(-0.00781168 0.168136 0)
(-0.0069451 0.169364 0)
(-0.00616455 0.171036 0)
(-0.0054546 0.173184 0)
(-0.00479998 0.175836 0)
(-0.0041855 0.179017 0)
(-0.00359587 0.182743 0)
(-0.00301538 0.187018 0)
(-0.002428 0.191811 0)
(-0.0018229 0.197004 0)
(-0.00120271 0.202089 0)
(-0.000606125 0.200914 0)
(-0.131006 0.171819 0)
(-0.121991 0.174335 0)
(-0.113363 0.176359 0)
(-0.105128 0.177923 0)
(-0.0972909 0.179062 0)
(-0.0898536 0.17981 0)
(-0.0828154 0.180202 0)
(-0.0761735 0.180275 0)
(-0.0699233 0.180065 0)
(-0.0640582 0.179609 0)
(-0.0585702 0.17894 0)
(-0.0534495 0.178096 0)
(-0.0486853 0.177107 0)
(-0.0442656 0.176008 0)
(-0.0401772 0.174828 0)
(-0.0364064 0.173599 0)
(-0.0329387 0.172349 0)
(-0.0297591 0.171109 0)
(-0.026852 0.169908 0)
(-0.0242018 0.168777 0)
(-0.0217923 0.167746 0)
(-0.0196074 0.166846 0)
(-0.0176308 0.16611 0)
(-0.0158464 0.165571 0)
(-0.0142377 0.165262 0)
(-0.0127888 0.165215 0)
(-0.0114836 0.165465 0)
(-0.0103062 0.166044 0)
(-0.00924094 0.166986 0)
(-0.0082723 0.168322 0)
(-0.00738495 0.170084 0)
(-0.00656366 0.172304 0)
(-0.00579332 0.17501 0)
(-0.00505878 0.178227 0)
(-0.00434474 0.181971 0)
(-0.00363534 0.186245 0)
(-0.00291446 0.191018 0)
(-0.00217208 0.196173 0)
(-0.00140907 0.201202 0)
(-0.000680167 0.199855 0)
(-0.128549 0.16115 0)
(-0.120073 0.164094 0)
(-0.111937 0.166557 0)
(-0.104149 0.168567 0)
(-0.0967159 0.170157 0)
(-0.089642 0.171359 0)
(-0.0829285 0.172203 0)
(-0.0765744 0.172726 0)
(-0.0705774 0.17296 0)
(-0.0649328 0.172939 0)
(-0.0596346 0.172698 0)
(-0.0546752 0.17227 0)
(-0.0500457 0.171685 0)
(-0.045736 0.170975 0)
(-0.0417349 0.17017 0)
(-0.0380305 0.1693 0)
(-0.03461 0.168393 0)
(-0.0314601 0.167478 0)
(-0.0285668 0.166584 0)
(-0.025916 0.165742 0)
(-0.0234929 0.164982 0)
(-0.0212827 0.164335 0)
(-0.0192702 0.163833 0)
(-0.0174402 0.163508 0)
(-0.0157776 0.163394 0)
(-0.0142669 0.163525 0)
(-0.0128928 0.163933 0)
(-0.0116402 0.164652 0)
(-0.0104939 0.165715 0)
(-0.00943878 0.167154 0)
(-0.00845993 0.169002 0)
(-0.00754239 0.171289 0)
(-0.00667126 0.174044 0)
(-0.00583152 0.177292 0)
(-0.00500794 0.181049 0)
(-0.00418462 0.185316 0)
(-0.00334541 0.190065 0)
(-0.00248112 0.195175 0)
(-0.00159097 0.200141 0)
(-0.000744576 0.19864 0)
(-0.125533 0.151059 0)
(-0.11759 0.154379 0)
(-0.109945 0.157231 0)
(-0.102605 0.159641 0)
(-0.0955806 0.161638 0)
(-0.0888769 0.16325 0)
(-0.0824969 0.164507 0)
(-0.0764416 0.16544 0)
(-0.0707103 0.166083 0)
(-0.0653003 0.166465 0)
(-0.0602073 0.16662 0)
(-0.0554255 0.166579 0)
(-0.0509479 0.166371 0)
(-0.046766 0.166026 0)
(-0.0428704 0.165574 0)
(-0.0392509 0.165041 0)
(-0.0358963 0.164458 0)
(-0.0327949 0.163851 0)
(-0.0299342 0.163249 0)
(-0.0273013 0.162682 0)
(-0.0248829 0.162181 0)
(-0.0226654 0.161774 0)
(-0.0206347 0.161495 0)
(-0.0187766 0.161376 0)
(-0.0170768 0.16145 0)
(-0.0155209 0.16175 0)
(-0.0140942 0.16231 0)
(-0.0127823 0.163162 0)
(-0.0115705 0.164341 0)
(-0.0104442 0.165878 0)
(-0.00938896 0.167806 0)
(-0.00839014 0.170155 0)
(-0.00743308 0.172954 0)
(-0.00650299 0.176228 0)
(-0.00558477 0.179992 0)
(-0.00466258 0.184249 0)
(-0.00372036 0.188966 0)
(-0.0027497 0.194026 0)
(-0.00174826 0.198924 0)
(-0.000799336 0.197285 0)
(-0.122011 0.141546 0)
(-0.114593 0.145195 0)
(-0.107433 0.14839 0)
(-0.10054 0.151155 0)
(-0.0939259 0.153516 0)
(-0.0875963 0.155498 0)
(-0.0815561 0.157129 0)
(-0.0758078 0.158438 0)
(-0.0703523 0.159454 0)
(-0.0651885 0.160207 0)
(-0.0603137 0.160728 0)
(-0.0557236 0.161046 0)
(-0.0514127 0.161188 0)
(-0.0473743 0.161184 0)
(-0.0436006 0.161061 0)
(-0.0400827 0.160846 0)
(-0.036811 0.160567 0)
(-0.0337751 0.16025 0)
(-0.0309641 0.159925 0)
(-0.0283664 0.159619 0)
(-0.0259697 0.159362 0)
(-0.0237617 0.159185 0)
(-0.0217294 0.159118 0)
(-0.0198595 0.159195 0)
(-0.0181388 0.159447 0)
(-0.0165535 0.159909 0)
(-0.0150898 0.160613 0)
(-0.0137339 0.161592 0)
(-0.0124717 0.16288 0)
(-0.0112893 0.164509 0)
(-0.0101725 0.166512 0)
(-0.00910708 0.168918 0)
(-0.0080788 0.171756 0)
(-0.00707311 0.17505 0)
(-0.00607509 0.178817 0)
(-0.00506909 0.183057 0)
(-0.00403918 0.187739 0)
(-0.00297771 0.192743 0)
(-0.00188093 0.197566 0)
(-0.000844482 0.195807 0)
(-0.118033 0.132609 0)
(-0.111129 0.136541 0)
(-0.104447 0.140037 0)
(-0.0979972 0.143116 0)
(-0.0917913 0.145801 0)
(-0.0858373 0.148115 0)
(-0.0801407 0.150084 0)
(-0.0747054 0.151733 0)
(-0.0695335 0.153091 0)
(-0.0646253 0.154184 0)
(-0.0599793 0.155041 0)
(-0.0555928 0.155689 0)
(-0.0514617 0.156157 0)
(-0.0475806 0.156469 0)
(-0.043943 0.156653 0)
(-0.0405416 0.156735 0)
(-0.037368 0.156741 0)
(-0.0344133 0.156698 0)
(-0.0316677 0.156632 0)
(-0.0291208 0.156572 0)
(-0.0267617 0.156547 0)
(-0.0245788 0.156586 0)
(-0.0225605 0.156721 0)
(-0.0206944 0.156983 0)
(-0.0189679 0.157405 0)
(-0.0173683 0.158019 0)
(-0.0158826 0.158859 0)
(-0.0144974 0.159958 0)
(-0.0131996 0.161349 0)
(-0.0119755 0.163064 0)
(-0.0108116 0.165135 0)
(-0.00969417 0.167593 0)
(-0.00860915 0.170465 0)
(-0.00754241 0.173775 0)
(-0.00647932 0.17754 0)
(-0.00540444 0.181759 0)
(-0.00430208 0.1864 0)
(-0.00316534 0.191343 0)
(-0.00198914 0.196086 0)
(-0.000880111 0.194224 0)
(-0.113645 0.124241 0)
(-0.107242 0.128417 0)
(-0.101028 0.132174 0)
(-0.0950153 0.135529 0)
(-0.0892148 0.138501 0)
(-0.0836357 0.141112 0)
(-0.0782845 0.143383 0)
(-0.0731661 0.14534 0)
(-0.0682835 0.147007 0)
(-0.0636381 0.14841 0)
(-0.0592298 0.149575 0)
(-0.0550569 0.150528 0)
(-0.0511166 0.151295 0)
(-0.0474046 0.1519 0)
(-0.0439158 0.15237 0)
(-0.0406441 0.152728 0)
(-0.0375824 0.153 0)
(-0.0347229 0.153212 0)
(-0.032057 0.15339 0)
(-0.0295754 0.153561 0)
(-0.0272682 0.153753 0)
(-0.0251252 0.153997 0)
(-0.0231353 0.154321 0)
(-0.0212874 0.154758 0)
(-0.0195696 0.15534 0)
(-0.0179701 0.156099 0)