/*--------------------------------*- C++ -*----------------------------------*\
  =========                 |
  \\      /  F ield         | OpenFOAM: The Open Source CFD Toolbox
   \\    /   O peration     | Website:  https://openfoam.org
    \\  /    A nd           | Version:  9
     \\/     M anipulation  |
\*---------------------------------------------------------------------------*/
FoamFile
{
    format      ascii;
    class       volScalarField;
    location    "0.3";
    object      alpha.water;
}
// * * * * * * * * * * * * * * * * * * * * * * * * * * * * * * * * * * * * * //

dimensions      [0 0 0 0 0 0 0];

internalField   nonuniform List<scalar> 
7700
(
1
1
1
1
1
1
1
1
1
1
1
1
1
1
1
1
1
1
1
1
1
1
1
1
1
1
1
1
1
1
1
1
1
1
1
1
1
1
1
1
1
1
0.946745
0.889216
0.89207
0.953682
1
1
1
1
1
1
1
1
1
1
1
1
1
1
1
1
1
1
1
1
1
1
1
1
1
1
1
1
1
1
1
1
1
1
1
1
1
1
1
1
1
1
0.993133
0.931312
0.9893
0.998759
1
1
1
1
1
1
1
1
1
1
1
1
1
1
1
1
1
1
1
1
1
1
1
1
1
1
1
1
1
1
1
1
1
1
1
1
1
1
1
1
1
1
1
0.999036
0.99891
0.998789
1
1
1
1
1
1
1
1
1
1
1
1
1
1
1
1
1
1
1
1
1
1
1
1
1
1
1
1
1
1
1
1
1
1
1
1
1
1
1
1
1
1
1
0.999979
0.999883
0.997353
1
1
1
1
1
1
1
1
1
1
1
1
1
1
1
1
1
1
1
1
1
1
1
1
1
1
1
1
1
1
1
1
1
1
1
1
1
1
1
1
1
1
1
0.999998
0.999999
0.997379
1
1
1
1
1
1
1
1
1
1
1
1
1
1
1
1
1
1
1
1
1
1
1
1
1
1
1
1
1
1
1
1
1
1
1
1
1
1
1
1
1
1
1
1
1
0.997466
1
1
1
1
1
1
1
1
1
1
1
1
1
1
1
1
1
1
1
1
1
1
1
1
1
1
1
1
1
1
1
1
1
1
1
1
1
1
1
1
1
1
1
1
1
0.997509
1
1
1
1
1
1
1
1
1
1
1
1
1
1
1
1
1
1
1
1
1
1
1
1
1
1
1
1
1
1
1
1
1
1
1
1
1
1
1
1
1
1
1
1
1
0.997948
1
1
1
1
1
1
1
1
1
1
1
1
1
1
1
1
1
1
1
1
1
1
1
1
1
1
1
1
1
1
1
1
1
1
1
1
1
1
1
1
1
1
1
1
1
0.999831
1
1
1
1
1
1
1
1
1
1
1
1
1
1
1
1
1
1
1
1
1
1
1
1
1
1
1
1
1
1
1
1
1
1
1
1
1
1
1
1
1
1
1
1
1
1
5.52793e-24
3.08434e-23
4.44032e-23
1.58331e-23
1.67726e-24
1.29292e-25
9.70009e-27
3.57548e-28
3.49313e-30
6.30811e-31
1.20315e-31
4.01854e-32
9.06894e-33
1.46321e-33
1.89541e-34
2.09181e-35
2.05099e-36
1.82616e-37
1.48188e-38
1.09363e-39
7.34121e-41
4.47403e-42
2.47216e-43
1.23676e-44
5.58627e-46
2.26602e-47
8.20967e-49
2.63618e-50
7.47203e-52
1.85939e-53
3.98331e-55
7.20498e-57
1.06637e-58
1.2447e-60
1.09314e-62
6.75699e-65
2.64734e-67
5.49594e-70
4.73133e-73
3.00451e-74
1.66807e-22
8.6434e-22
1.14543e-21
7.81673e-22
1.61433e-22
2.08004e-23
1.88267e-24
1.08442e-25
5.16116e-27
3.2911e-28
4.37863e-29
7.49035e-30
1.11592e-30
1.39252e-31
1.49072e-32
1.41164e-33
1.21379e-34
9.59938e-36
6.98714e-37
4.6713e-38
2.86475e-39
1.60726e-40
8.22759e-42
3.83875e-43
1.62945e-44
6.25733e-46
2.1601e-47
6.65241e-49
1.81115e-50
4.31606e-52
8.8727e-54
1.5439e-55
2.22133e-57
2.56501e-59
2.28629e-61
1.49048e-63
6.54656e-66
1.71507e-68
2.48192e-71
6.86227e-74
6.95451e-21
3.45678e-20
4.81558e-20
3.97247e-20
8.94358e-21
1.30466e-21
1.43925e-22
1.11569e-23
7.94681e-25
6.29159e-26
6.20391e-27
6.94954e-28
7.46307e-29
7.1842e-30
6.17531e-31
4.81943e-32
3.47396e-33
2.33077e-34
1.45467e-35
8.42374e-37
4.51276e-38
2.23e-39
1.01365e-40
4.22862e-42
1.61697e-43
5.64018e-45
1.78283e-46
5.07099e-48
1.28715e-49
2.88769e-51
5.65316e-53
9.49878e-55
1.34286e-56
1.55701e-58
1.43143e-60
9.94752e-63
4.84191e-65
1.43297e-67
1.88123e-70
4.20303e-72
1.64306e-19
9.20092e-19
1.38167e-18
1.27006e-18
3.06809e-19
5.28714e-20
7.11589e-21
7.04092e-22
6.33413e-23
5.67875e-24
5.14497e-25
4.55673e-26
3.76123e-27
2.84333e-28
1.97254e-29
1.26991e-30
7.66276e-32
4.34935e-33
2.31948e-34
1.15946e-35
5.41472e-37
2.3539e-38
9.49523e-40
3.54265e-41
1.22013e-42
3.8624e-44
1.1166e-45
2.92736e-47
6.90539e-49
1.45238e-50
2.69273e-52
4.33707e-54
5.9614e-56
6.83625e-58
6.34066e-60
4.54072e-62
2.31074e-64
6.80133e-67
7.03711e-70
6.69928e-71
2.94398e-18
1.91056e-17
3.12932e-17
3.09364e-17
7.85753e-18
1.52489e-18
2.29547e-19
2.77502e-20
3.16557e-21
3.20597e-22
2.8471e-23
2.16896e-24
1.46684e-25
8.99459e-27
5.1233e-28
2.75438e-29
1.40607e-30
6.81193e-32
3.12491e-33
1.35451e-34
5.53404e-36
2.12345e-37
7.62458e-39
2.5526e-40
7.94545e-42
2.28992e-43
6.07141e-45
1.47034e-46
3.22799e-48
6.36891e-50
1.11747e-51
1.72045e-53
2.28586e-55
2.56496e-57
2.35708e-59
1.68702e-61
8.46464e-64
2.3767e-66
1.67569e-69
4.8761e-70
4.87141e-17
3.28509e-16
5.46506e-16
5.41963e-16
1.25015e-16
2.6213e-17
4.26167e-18
6.5877e-19
9.17789e-20
9.85744e-21
8.81083e-22
6.35562e-23
3.9704e-24
2.16471e-25
1.06454e-26
4.8889e-28
2.13902e-29
8.959e-31
3.58439e-32
1.36535e-33
4.93554e-35
1.68712e-36
5.43312e-38
1.64215e-39
4.6478e-41
1.22602e-42
2.9944e-44
6.72335e-46
1.37758e-47
2.55423e-49
4.24295e-51
6.23385e-53
7.96923e-55
8.67149e-57
7.76897e-59
5.39947e-61
2.57564e-63
6.3625e-66
4.49649e-69
2.38452e-69
6.57211e-16
3.72079e-15
5.71678e-15
5.1874e-15
1.00927e-15
2.42337e-16
4.52102e-17
7.79652e-18
1.16389e-18
1.33448e-19
1.18766e-20
8.80956e-22
5.67829e-23
3.14955e-24
1.5154e-25
6.499e-27
2.56646e-28
9.56992e-30
3.40868e-31
1.16207e-32
3.78139e-34
1.16994e-35
3.42709e-37
9.46245e-39
2.46098e-40
5.99399e-42
1.35828e-43
2.84445e-45
5.46517e-47
9.55474e-49
1.50528e-50
2.1096e-52
2.58612e-54
2.70806e-56
2.33147e-58
1.52921e-60
6.78749e-63
1.40281e-65
1.34738e-68
9.33096e-69
5.76733e-15
2.95548e-14
4.3698e-14
3.86683e-14
4.71983e-15
1.54485e-15
3.0467e-16
4.45171e-17
6.39492e-18
7.8451e-19
7.64713e-20
6.05173e-21
4.10033e-22
2.4048e-23
1.22616e-24
5.45814e-26
2.15061e-27
7.69416e-29
2.5627e-30
8.07018e-32
2.41851e-33
6.90331e-35
1.87081e-36
4.80213e-38
1.16508e-39
2.6544e-41
5.64233e-43
1.11209e-44
2.01863e-46
3.34727e-48
5.02179e-50
6.72722e-52
7.90352e-54
7.93125e-56
6.49523e-58
4.02392e-60
1.60644e-62
2.3767e-65
3.67782e-68
3.15022e-68
3.85687e-14
1.53813e-13
1.90605e-13
7.85295e-14
2.32953e-14
9.41909e-15
1.87055e-15
2.08085e-16
1.94634e-17
2.1689e-18
3.16375e-19
2.78414e-20
1.92789e-21
1.13653e-22
5.94128e-24
2.76985e-25
1.14693e-26
4.23471e-28
1.4155e-29
4.35677e-31
1.2515e-32
3.38408e-34
8.6514e-36
2.10367e-37
4.83841e-39
1.04664e-40
2.1161e-42
3.97467e-44
6.88949e-46
1.09339e-47
1.57381e-49
2.02699e-51
2.29173e-53
2.20889e-55
1.72365e-57
1.00959e-59
3.64751e-62
2.87108e-65
9.53304e-68
9.37162e-68
1.59723e-13
4.73808e-13
4.04062e-13
1.8659e-13
1.22707e-13
7.95416e-14
3.89239e-14
9.67555e-15
3.65727e-16
2.0926e-17
1.76855e-18
1.71892e-19
1.03217e-20
5.06308e-22
2.34362e-23
1.03652e-24
4.27844e-26
1.61632e-27
5.55452e-29
1.74285e-30
5.02711e-32
1.34041e-33
3.34884e-35
7.87494e-37
1.7434e-38
3.62631e-40
7.061e-42
1.27999e-43
2.14519e-45
3.29666e-47
4.6005e-49
5.75247e-51
6.32012e-53
5.91653e-55
4.46446e-57
2.48334e-59
8.02153e-62
4.81834e-65
2.51946e-67
2.49028e-67
1
1
1
1
1
1
1
1
1
1
1
1
1
1
1
1
1
1
1
1
1
1
1
1
1
1
1
1
1
1
1
1
1
1
1
1
1
1
1
1
1
1
1
1
1
1
1
1
1
1
1
1
1
1
1
1
1
1
1
1
1
1
1
1
1
1
1
1
1
1
1
1
1
1
1
1
1
1
1
1
1
1
1
1
1
1
1
1
1
1
1
1
1
1
1
1
1
1
1
1
1
1
1
1
1
1
1
1
1
1
1
1
1
1
1
1
1
1
1
1
1
1
1
1
1
1
1
1
1
1
1
1
1
1
1
1
1
1
1
1
1
1
1
1
1
1
1
1
1
1
1
1
1
1
1
1
1
1
1
1
1
1
1
1
1
1
1
1
1
1
1
1
1
1
1
1
1
1
1
1
1
1
1
1
1
1
1
1
1
1
1
1
1
1
1
1
1
1
1
1
1
1
1
1
1
1
1
1
1
1
1
1
1
1
1
1
1
1
1
1
1
1
1
1
1
1
1
1
1
1
1
1
1
1
1
1
1
1
1
1
1
1
1
1
1
1
1
1
1
1
1
1
1
1
1
1
1
1
1
1
1
1
1
1
1
1
1
1
1
1
1
1
1
1
1
1
1
1
1
1
1
1
1
1
1
1
1
1
1
1
1
1
1
1
1
1
1
1
1
1
1
1
1
1
1
1
1
1
1
1
1
1
1
1
1
1
1
1
1
1
1
1
1
1
1
1
1
1
1
1
1
1
1
1
1
1
1
1
1
1
1
1
1
1
1
1
1
1
1
1
1
1
1
1
1
1
1
1
1
1
1
1
1
1
1
1
1
1
1
1
1
1
1
1
1
1
1
1
1
1
1
1
1
1
1
1
1
1
1
0.999999
0.999999
0.999999
0.999999
0.999998
0.999998
0.999999
0.999999
0.999999
0.999999
1
1
0.999999
0.999999
0.999999
1
1
1
1
1
1
1
1
1
1
1
1
0.999999
0.999999
0.999998
0.999998
0.999998
0.999998
0.999998
0.999998
0.999999
0.999999
0.999999
0.999999
0.999999
0.999998
0.999998
0.999998
0.999998
0.999997
0.999996
0.999996
0.999994
0.999992
0.999989
0.999987
0.999987
0.99999
0.999992
0.999994
0.999994
0.999994
0.999995
0.999993
0.999989
0.999985
0.999986
0.999988
0.999996
1
1
1
1
1
1
1
0.999999
0.999996
0.999992
0.999989
0.999987
0.999986
0.999986
0.999987
0.999988
0.999989
0.999989
0.99999
0.99999
0.99999
0.999989
0.999988
0.999987
0.999985
0.999983
0.999979
0.999974
0.999968
0.99996
0.999941
0.999915
0.999901
0.999908
0.999925
0.999941
0.999947
0.999944
0.999937
0.999933
0.999941
0.999922
0.999807
0.999775
0.999948
0.999998
1
1
1
1
1
1
1
0.99999
0.99997
0.999938
0.999912
0.9999
0.999896
0.999899
0.999904
0.99991
0.999917
0.999922
0.999925
0.999929
0.999928
0.999925
0.999919
0.99991
0.999898
0.999879
0.999852
0.999819
0.99978
0.999719
0.999582
0.999387
0.999305
0.999362
0.999487
0.999579
0.999576
0.999502
0.999371
0.999204
0.999157
0.999249
0.998604
0.995263
0.999951
0.99999
0.999998
1
1
1
1
1
1
0.999916
0.999762
0.99952
0.999328
0.999246
0.999231
0.99926
0.999307
0.999362
0.999414
0.999457
0.999485
0.999515
0.999511
0.999489
0.999451
0.999394
0.999309
0.999182
0.999004
0.998785
0.998526
0.998091
0.997124
0.995796
0.995364
0.995816
0.996659
0.997077
0.996819
0.995887
0.971773
0.907351
0.828951
0.72056
0.62649
0.637932
0.630969
0.644285
0.703839
0.827726
1.00001
1.00003
1.00006
1
1.00001
0.99928
0.998147
0.996333
0.994952
0.994446
0.994439
0.994736
0.995151
0.995594
0.996005
0.99634
0.996563
0.99679
0.996774
0.996648
0.996406
0.996045
0.995497
0.994675
0.993524
0.991745
0.983284
0.95703
0.876719
0.768091
0.766447
0.818693
0.880959
0.876163
0.808082
0.61478
0.373714
0.187192
0.0846171
2.34827e-06
3.68481e-07
5.9824e-08
0.00313889
0.0121361
0.0334412
0.0895042
0.225093
0.48077
0.86742
1.00024
1.00001
0.982791
0.905382
0.744267
0.64179
0.622829
0.640259
0.67786
0.720467
0.762369
0.799991
0.830447
0.851193
0.872762
0.872462
0.865999
0.851242
0.828589
0.793127
0.740091
0.668047
0.585772
0.485284
0.346498
0.182957
0.0843935
0.0919228
0.148095
0.206976
0.188033
0.0886069
-2.02275e-07
-7.49327e-10
-2.50378e-08
-1.00068e-06
-1.13763e-07
0
-1.03022e-23
1.20402e-07
9.55981e-06
7.42627e-05
0.000338664
0.00116681
0.0076692
0.0865516
0.335488
0.844523
0.444932
0.244425
0.0811289
0.0285631
0.0222907
0.0289075
0.04431
0.0651233
0.0900198
0.117437
0.144124
0.165529
0.190907
0.189901
0.18137
0.164295
0.140959
0.109763
0.0737401
0.0376748
0.0061436
-1.14375e-08
-4.61364e-11
-1.23853e-13
-2.5561e-16
-3.22374e-19
6.10713e-24
-3.99787e-08
-7.9634e-08
-8.13986e-08
-1.23838e-07
-5.67349e-08
-2.32774e-08
-9.77768e-09
-4.12319e-09
-1.5771e-09
-5.17319e-10
-7.42115e-11
5.80782e-08
1.93523e-06
1.38216e-05
6.0526e-05
0.000234444
0.000965196
0.0032837
0.0896982
-2.50299e-10
-1.3961e-11
-5.1102e-13
-1.66557e-14
-3.16105e-15
-5.36821e-15
-2.00949e-14
-1.15893e-13
-6.76167e-13
-2.62655e-12
-2e-08
-4.12474e-07
-7.10376e-07
-3.10067e-07
-5.70517e-08
-1.88706e-08
-9.94944e-09
-5.61635e-09
-3.12496e-09
-1.70393e-09
-9.11014e-10
-4.82353e-10
-5.78169e-08
-1.99973e-07
-3.30915e-07
-3.78399e-07
-3.99221e-07
-3.92354e-07
-3.69476e-07
-2.84282e-07
-1.94419e-07
-1.22426e-07
-7.18274e-08
-3.96565e-08
-2.03708e-08
-9.54179e-09
-3.96995e-09
-1.25413e-09
-1.09656e-09
4.1844e-08
4.07704e-07
3.85432e-06
1.75118e-05
6.35821e-05
0.000384149
0.00157807
-2.47855e-12
-1.28618e-12
-2.61105e-13
-4.64161e-14
-2.19366e-14
-3.97634e-14
-1.45204e-13
-8.18817e-13
-2.09245e-12
-7.04956e-12
-8.84032e-10
-2.77872e-08
-7.75666e-08
-9.31674e-08
-7.81736e-08
-5.3401e-08
-3.24912e-08
-1.85847e-08
-1.02901e-08
-5.57323e-09
-2.95861e-09
-1.54947e-09
-1.48864e-07
-4.195e-07
-6.27671e-07
-6.78366e-07
-6.60577e-07
-5.91777e-07
-4.74509e-07
-3.47287e-07
-2.37897e-07
-1.51516e-07
-8.89124e-08
-4.70989e-08
-2.22747e-08
-8.82076e-09
-2.48613e-09
-3.22216e-10
-4.07671e-11
3.74684e-10
1.56053e-08
1.70667e-07
1.12072e-06
8.0842e-06
3.18277e-05
0.000190284
-2.31143e-12
-1.61722e-12
-2.58002e-13
-5.05617e-14
-3.3677e-14
-6.67282e-14
-2.43125e-13
-1.25444e-12
-3.11931e-12
-8.13548e-12
-1.06377e-09
-3.49982e-08
-9.46713e-08
-1.19868e-07
-1.0308e-07
-7.16478e-08
-4.43269e-08
-2.5756e-08
-1.44327e-08
-7.86848e-09
-4.1798e-09
-2.16126e-09
-1.59364e-07
-4.27025e-07
-6.18133e-07
-6.48251e-07
-5.9131e-07
-4.87385e-07
-3.65358e-07
-2.49372e-07
-1.54569e-07
-8.56055e-08
-4.17487e-08
-1.48858e-08
-1.61976e-09
4.3339e-09
8.01945e-09
6.49301e-09
2.07967e-09
9.21046e-10
1.01513e-09
6.35618e-09
6.04577e-08
5.50335e-07
2.96305e-06
1.76874e-05
-8.92558e-13
-7.16695e-13
-9.28953e-14
-2.1383e-14
-3.29749e-14
-7.98147e-14
-3.01028e-13
-1.50904e-12
-3.80201e-12
-6.48327e-12
-7.56816e-10
-2.49913e-08
-7.04532e-08
-9.29338e-08
-8.37793e-08
-6.14418e-08
-4.01639e-08
-2.45137e-08
-1.42575e-08
-7.95791e-09
-4.27178e-09
-2.2065e-09
-9.97701e-08
-2.56156e-07
-3.54615e-07
-3.55365e-07
-2.96356e-07
-2.21726e-07
-1.52452e-07
-9.4164e-08
-4.95192e-08
-1.78643e-08
0
9.15777e-09
1.92396e-08
1.87013e-08
1.19424e-08
2.56967e-09
8.9162e-10
9.03114e-10
8.8961e-10
9.26546e-10
3.13288e-09
2.43875e-08
2.27145e-07
2.19453e-06
-5.62692e-14
-4.61609e-14
-5.89887e-15
-2.59439e-15
-2.93771e-14
-8.57546e-14
-3.4173e-13
-1.68035e-12
-4.22116e-12
-7.21543e-12
-3.10459e-10
-1.04427e-08
-3.07777e-08
-4.46621e-08
-4.53492e-08
-3.75909e-08
-2.73778e-08
-1.81522e-08
-1.11569e-08
-6.42517e-09
-3.49246e-09
-1.80106e-09
-3.01733e-08
-6.79435e-08
-8.15502e-08
-6.1143e-08
-4.00434e-08
-3.17906e-08
-2.44835e-08
-1.05011e-08
2.42786e-09
1.5883e-08
3.1011e-08
2.97585e-08
2.29087e-08
5.10865e-09
8.03305e-10
8.2007e-10
8.80336e-10
9.04292e-10
9.048e-10
9.04028e-10
9.80993e-10
1.45604e-09
2.61007e-08
2.44511e-07
2.20417e-18
-1.39938e-17
-9.59068e-17
-1.2968e-15
-2.81405e-14
-9.00355e-14
-3.79331e-13
-1.81896e-12
-4.47399e-12
-7.54161e-12
-8.88788e-11
-2.7517e-09
-9.55677e-09
-1.72361e-08
-2.14075e-08
-2.07461e-08
-1.68157e-08
-1.19043e-08
-7.57564e-09
-4.42043e-09
-2.3973e-09
-1.21893e-09
-5.49573e-10
0
1.60325e-08
6.93796e-08
8.3914e-08
5.09241e-08
1.90945e-08
1.87261e-08
3.42001e-08
3.42234e-08
3.35277e-08
9.26863e-09
7.29869e-10
7.44741e-10
7.82228e-10
8.2047e-10
8.64595e-10
9.67939e-10
1.07947e-09
1.07148e-09
9.87275e-10
1.02608e-09
2.48823e-09
1.39069e-08
3.64936e-18
-1.51757e-17
-1.29504e-16
-1.57061e-15
-2.75491e-14
-9.47654e-14
-4.19937e-13
-1.94793e-12
-4.60797e-12
-7.54346e-12
-6.61324e-11
-1.72183e-09
-5.93951e-09
-1.07455e-08
-1.33941e-08
-1.29876e-08
-1.04867e-08
-7.35969e-09
-4.62025e-09
-2.64574e-09
-1.39952e-09
-6.88089e-10
-2.91816e-10
5.56339e-09
1.1911e-07
1.19032e-07
1.18916e-07
1.18765e-07
8.95599e-08
5.56234e-08
3.13477e-08
1.26542e-08
3.57319e-10
4.95731e-10
7.0705e-10
7.49795e-10
7.9037e-10
8.41692e-10
9.59015e-10
1.21844e-09
1.29234e-09
1.29206e-09
9.83585e-10
9.91337e-10
1.03478e-09
1.94245e-09
2.67967e-18
-1.71305e-17
-1.70915e-16
-1.89258e-15
-2.74889e-14
-1.00716e-13
-4.63023e-13
-2.06097e-12
-4.61637e-12
-7.24643e-12
-4.73377e-11
-1.00712e-09
-3.39261e-09
-6.06742e-09
-7.4865e-09
-7.16893e-09
-5.69688e-09
-3.92033e-09
-2.40329e-09
-1.33682e-09
-6.80797e-10
-3.15919e-10
-1.22028e-10
3.94642e-08
1.15592e-07
1.18914e-07
1.08438e-07
4.1594e-08
1.0663e-08
2.05271e-09
1.61183e-10
2.33291e-10
3.2665e-10
5.62612e-10
7.42169e-10
7.71362e-10
7.98449e-10
8.65845e-10
1.04848e-09
1.24263e-09
1.28399e-09
1.15254e-09
8.78029e-10
1.11803e-09
2.21113e-09
2.62597e-09
1.83626e-19
-1.98963e-17
-2.19393e-16
-2.25656e-15
-2.77209e-14
-1.07323e-13
-5.02646e-13
-2.12962e-12
-4.46159e-12
-6.65599e-12
-3.32064e-11
-5.70222e-10
-1.84131e-09
-3.18873e-09
-3.81532e-09
-3.53971e-09
-2.72307e-09
-1.81204e-09
-1.0712e-09
-5.70636e-10
-2.72704e-10
-1.09784e-10
-3.16766e-11
3.89588e-09
7.36693e-08
6.23034e-08
9.94085e-11
1.08213e-10
1.22958e-10
1.41502e-10
1.52307e-10
2.71747e-10
5.65353e-10
6.37467e-10
6.37897e-10
6.54007e-10
7.2148e-10
8.58351e-10
9.85659e-10
1.10343e-09
1.1003e-09
7.74427e-10
7.68638e-10
1.122e-08
2.65467e-08
2.51559e-08
-4.89337e-19
-2.32646e-17
-2.72516e-16
-2.64048e-15
-2.78402e-14
-1.13171e-13
-5.29738e-13
-2.11887e-12
-4.111e-12
-5.80118e-12
-2.29857e-11
-3.08327e-10
-9.32206e-10
-1.52912e-09
-1.73811e-09
-1.53493e-09
-1.12823e-09
-7.18955e-10
-4.05485e-10
-2.02589e-10
-8.41993e-11
-1.48583e-11
7.94386e-12
9.84956e-12
1.43497e-11
5.22514e-11
9.39559e-11
9.9478e-11
1.16571e-10
1.4976e-10
2.92002e-10
4.77242e-10
5.13431e-10
5.06637e-10
5.07031e-10
5.48975e-10
6.24632e-10
7.02792e-10
7.53783e-10
7.59945e-10
7.61848e-10
7.31564e-10
7.36252e-10
9.48734e-10
1.2898e-08
2.42242e-08
-8.78144e-19
-2.687e-17
-3.25767e-16
-3.00495e-15
-2.752e-14
-1.16549e-13
-5.34996e-13
-2.00266e-12
-3.56812e-12
-4.7609e-12
-1.58359e-11
-1.54895e-10
-4.24295e-10
-6.44227e-10
-6.83733e-10
-5.6865e-10
-3.98956e-10
-2.4374e-10
-1.29642e-10
-5.73706e-11
-1.28501e-11
2.11347e-11
6.91049e-11
6.37383e-11
6.3948e-11
7.55567e-11
1.14817e-10
1.43547e-10
1.60726e-10
2.33361e-10
3.63629e-10
3.63339e-10
3.47987e-10
3.61554e-10
3.93286e-10
4.2975e-10
4.66164e-10
4.95825e-10
5.04433e-10
4.96419e-10
4.67447e-10
4.73037e-10
1.47072e-09
2.00285e-08
7.41325e-09
1.98279e-09
-1.14863e-18
-3.027e-17
-3.72736e-16
-3.2962e-15
-2.65795e-14
-1.15853e-13
-5.11927e-13
-1.77632e-12
-2.88498e-12
-3.65725e-12
-1.09277e-11
-7.49568e-11
-1.78704e-10
-2.44089e-10
-2.37724e-10
-1.86005e-10
-1.2695e-10
-7.47986e-11
-3.56742e-11
-1.05375e-11
8.16435e-12
4.70704e-11
9.85253e-11
1.41829e-10
1.74735e-10
2.32397e-10
2.18038e-10
1.61711e-10
1.70966e-10
2.38298e-10
2.5167e-10
2.36549e-10
2.41887e-10
2.61117e-10
2.7832e-10
2.92056e-10
3.06681e-10
3.20807e-10
3.2857e-10
3.20121e-10
3.25788e-10
1.04986e-09
9.36103e-09
1.43941e-08
2.35438e-06
8.61973e-08
-1.32746e-18
-3.29465e-17
-4.06107e-16
-3.45563e-15
-2.49236e-14
-1.09919e-13
-4.59404e-13
-1.46207e-12
-2.15169e-12
-2.62138e-12
-7.43875e-12
-3.65015e-11
-7.34111e-11
-8.80564e-11
-7.8425e-11
-5.94306e-11
-4.12599e-11
-2.25927e-11
-7.65395e-12
1.46369e-12
1.93602e-11
5.13355e-11
1.07764e-10
1.85609e-10
2.50922e-10
2.6715e-10
2.11815e-10
1.17693e-10
1.36597e-10
1.43302e-10
1.44559e-10
1.47043e-10
1.5763e-10
1.66856e-10
1.70754e-10
1.76493e-10
1.87582e-10
2.07408e-10
2.25043e-10
2.28389e-10
3.37926e-10
1.97571e-09
2.3469e-08
1.27393e-08
1.74017e-06
1.11756e-05
-1.42633e-18
-3.43991e-17
-4.19286e-16
-3.43496e-15
-2.25011e-14
-9.8419e-14
-3.82823e-13
-1.10447e-12
-1.46794e-12
-1.75291e-12
-4.84939e-12
-1.80227e-11
-3.04593e-11
-3.21405e-11
-2.71263e-11
-2.12023e-11
-1.50224e-11
-6.20174e-12
-1.15689e-29
5.52889e-12
1.95459e-11
5.14476e-11
1.09813e-10
1.94183e-10
2.41225e-10
2.27792e-10
9.80634e-11
6.38731e-11
6.77048e-11
7.57271e-11
7.95261e-11
8.38136e-11
8.9196e-11
9.09216e-11
9.17051e-11
9.64121e-11
1.13332e-10
1.46529e-10
1.7574e-10
1.94418e-10
4.21409e-10
3.24527e-09
1.77956e-08
1.42776e-07
1.91804e-07
5.36489e-05
-1.44899e-18
-3.42394e-17
-4.08185e-16
-3.21236e-15
-1.93417e-14
-8.2178e-14
-2.93143e-13
-7.5697e-13
-9.1025e-13
-1.0957e-12
-2.94099e-12
-8.6373e-12
-1.23755e-11
-1.18389e-11
-1.01617e-11
-8.43634e-12
-5.36909e-12
-5.39563e-13
2.27368e-12
3.05715e-12
1.21622e-11
3.69452e-11
7.42877e-11
1.13055e-10
1.41415e-10
6.76491e-11
3.15964e-11
3.14035e-11
3.42794e-11
3.61631e-11
3.79527e-11
4.11227e-11
4.22388e-11
4.21566e-11
4.2879e-11
4.84314e-11
7.17693e-11
1.14165e-10
1.52344e-10
1.85519e-10
3.71028e-10
3.39888e-09
2.14298e-08
1.56998e-07
1.57164e-07
4.5633e-05
-1.39806e-18
-3.229e-17
-3.72613e-16
-2.80342e-15
-1.56203e-14
-6.31756e-14
-2.03849e-13
-4.64856e-13
-5.11444e-13
-6.40735e-13
-1.62301e-12
-3.85536e-12
-4.76501e-12
-4.38143e-12
-4.04003e-12
-3.29217e-12
-1.33829e-12
1.00559e-12
1.00367e-12
1.45986e-12
6.03851e-12
1.62165e-11
2.58039e-11
3.13281e-11
2.89387e-11
1.20077e-11
1.15082e-11
1.35367e-11
1.40532e-11
1.41879e-11
1.56313e-11
1.65924e-11
1.65193e-11
1.65167e-11
1.71823e-11
2.26586e-11
4.57722e-11
8.88319e-11
1.33656e-10
1.81678e-10
3.17338e-10
2.72984e-09
1.8355e-08
1.17476e-07
6.7713e-07
2.73826e-05
-1.27963e-18
-2.86537e-17
-3.16782e-16
-2.26183e-15
-1.16726e-14
-4.40725e-14
-1.26925e-13
-2.5236e-13
-2.60822e-13
-3.4841e-13
-7.99591e-13
-1.57121e-12
-1.76718e-12
-1.68649e-12
-1.59982e-12
-1.03678e-12
7.61137e-14
8.87082e-13
2.94471e-13
6.4273e-13
2.21473e-12
4.3053e-12
5.74976e-12
6.06156e-12
4.21684e-12
3.51792e-12
4.09259e-12
4.54598e-12
4.50338e-12
4.73456e-12
5.21642e-12
5.39176e-12
5.30017e-12
5.36e-12
5.82239e-12
9.40153e-12
2.51393e-11
5.95404e-11
1.06035e-10
1.6338e-10
2.63388e-10
2.06603e-09
1.43354e-08
9.23846e-08
6.12275e-07
4.94759e-06
-1.10552e-18
-2.37259e-17
-2.48626e-16
-1.66781e-15
-7.93035e-15
-2.74185e-14
-6.95377e-14
-1.19514e-13
-1.2144e-13
-1.72965e-13
-3.44973e-13
-5.6842e-13
-6.28611e-13
-6.3469e-13
-5.32449e-13
-1.5929e-13
2.92836e-13
2.44014e-13
1.07374e-13
2.10693e-13
5.86735e-13
9.55233e-13
1.15259e-12
1.19991e-12
1.04298e-12
1.0852e-12
1.18849e-12
1.19996e-12
1.16628e-12
1.2834e-12
1.37373e-12
1.38764e-12
1.38396e-12
1.42784e-12
1.64892e-12
3.11276e-12
1.0292e-11
3.23945e-11
7.76039e-11
1.41534e-10
2.11829e-10
1.43519e-09
9.81665e-09
6.27718e-08
3.85836e-07
2.69645e-06
-8.93813e-19
-1.81364e-17
-1.78022e-16
-1.10711e-15
-4.79569e-15
-1.48792e-14
-3.28067e-14
-4.89051e-14
-5.17676e-14
-7.59698e-14
-1.28746e-13
-1.82724e-13
-2.09377e-13
-2.02683e-13
-1.15927e-13
4.12368e-14
8.76077e-14
3.56294e-14
3.18757e-14
5.24525e-14
1.36742e-13
2.2538e-13
2.798e-13
2.99911e-13
2.85533e-13
2.60379e-13
2.44375e-13
2.35599e-13
2.45774e-13
2.71043e-13
2.85206e-13
2.87522e-13
2.95418e-13
3.16597e-13
3.99284e-13
8.7415e-13
3.59157e-12
1.59184e-11
5.32158e-11
1.1469e-10
1.76726e-10
1.01111e-09
7.01085e-09
4.40298e-08
2.5466e-07
1.72358e-06
-6.31295e-19
-1.17542e-17
-1.07741e-16
-6.19054e-16
-2.43556e-15
-6.73492e-15
-1.30008e-14
-1.74718e-14
-1.95016e-14
-2.77666e-14
-4.13891e-14
-5.4576e-14
-6.05258e-14
-4.74639e-14
-7.70495e-15
3.21705e-14
1.79867e-14
1.13629e-14
8.62519e-15
1.2184e-14
3.53563e-14
6.44189e-14
8.3228e-14
8.87884e-14
6.88112e-14
4.61115e-14
3.79854e-14
3.73548e-14
4.0963e-14
4.46001e-14
4.70646e-14
4.92485e-14
5.28856e-14
6.05832e-14
8.96006e-14
2.57042e-13
1.36198e-12
7.87895e-12
3.40675e-11
8.54565e-11
1.45215e-10
7.09769e-10
4.9027e-09
3.07065e-08
1.73771e-07
1.03542e-06
-3.5013e-19
-6.08061e-18
-5.20429e-17
-2.76193e-16
-9.89911e-16
-2.4633e-15
-4.27943e-15
-5.41277e-15
-6.20724e-15
-8.44602e-15
-1.15563e-14
-1.40566e-14
-1.34005e-14
-6.54339e-15
4.37042e-15
5.96506e-15
3.87455e-15
3.07523e-15
2.14083e-15
2.95403e-15
9.06496e-15
1.71042e-14
2.17695e-14
2.2316e-14
1.28585e-14
6.65476e-15
4.96659e-15
4.79718e-15
5.29532e-15
5.90815e-15
6.48332e-15
7.18933e-15
8.22826e-15
1.04502e-14
1.94429e-14
7.33874e-14
4.5436e-13
3.11245e-12
1.686e-11
5.1881e-11
1.10477e-10
5.23819e-10
3.44431e-09
2.15066e-08
1.22713e-07
6.72035e-07
-1.49009e-19
-2.42923e-18
-1.94427e-17
-9.55912e-17
-3.14372e-16
-7.1431e-16
-1.14536e-15
-1.3979e-15
-1.61617e-15
-2.08297e-15
-2.58926e-15
-2.72779e-15
-1.93231e-15
-9.60654e-17
9.86188e-16
8.82641e-16
1.01377e-15
6.97975e-16
4.62263e-16
6.03416e-16
1.73485e-15
3.08427e-15
3.74271e-15
3.69917e-15
1.81633e-15
7.75154e-16
5.14853e-16
4.85408e-16
5.51498e-16
6.60507e-16
7.79085e-16
9.25332e-16
1.1437e-15
1.67498e-15
4.08314e-15
1.93398e-14
1.30911e-13
9.9005e-13
6.56548e-12
2.54068e-11
6.86272e-11
3.59976e-10
2.23668e-09
1.40157e-08
8.11356e-08
4.40845e-07
-4.61405e-20
-7.08816e-19
-5.32283e-18
-2.43822e-17
-7.43023e-17
-1.56569e-16
-2.36516e-16
-2.81947e-16
-3.21462e-16
-3.81344e-16
-4.09364e-16
-3.38523e-16
-1.30849e-16
1.08933e-16
1.37535e-16
1.91616e-16
2.02022e-16
1.28539e-16
7.78337e-17
8.77123e-17
2.216e-16
3.68969e-16
4.31268e-16
3.92197e-16
1.66435e-16
6.51133e-17
4.16949e-17
3.99477e-17
4.94009e-17
6.54799e-17
8.3711e-17
1.0686e-16
1.45084e-16
2.52553e-16
7.89408e-16
4.37934e-15
3.09379e-14
2.36484e-13
1.82299e-12
9.59652e-12
3.38202e-11
1.61295e-10
8.45582e-10
5.29421e-09
3.06879e-08
1.6951e-07
-9.32833e-21
-1.35511e-19
-9.5938e-19
-4.12433e-18
-1.17708e-17
-2.33307e-17
-3.36922e-17
-3.92678e-17
-4.29294e-17
-4.4914e-17
-3.84992e-17
-2.08917e-17
4.78747e-19
8.99517e-18
2.1746e-17
3.06254e-17
3.22399e-17
1.98581e-17
9.68823e-18
9.00796e-18
1.7286e-17
2.54471e-17
2.79671e-17
1.96613e-17
7.18231e-18
3.2563e-18
2.52608e-18
2.76293e-18
4.09069e-18
5.91485e-18
8.11688e-18
1.1137e-17
1.67895e-17
3.51187e-17
1.32612e-16
7.95527e-16
5.7134e-15
4.29943e-14
3.32736e-13
2.46543e-12
1.21016e-11
4.27728e-11
2.10204e-10
9.81642e-10
5.29389e-09
3.1158e-08
-9.31074e-22
-1.28439e-20
-8.62237e-20
-3.50586e-19
-9.46297e-19
-1.78293e-18
-2.47441e-18
-2.77761e-18
-2.78796e-18
-2.4122e-18
-1.46564e-18
-3.598e-19
2.15461e-19
1.09381e-18
2.67227e-18
3.69867e-18
3.92185e-18
2.40119e-18
8.6445e-19
5.63502e-19
6.02508e-19
7.42562e-19
7.31617e-19
3.46064e-19
1.38098e-19
9.90583e-20
1.08931e-19
1.91031e-19
3.20725e-19
4.84221e-19
7.05267e-19
1.04448e-18
1.77805e-18
4.44273e-18
1.89715e-17
1.16161e-16
8.24237e-16
6.11674e-15
4.5592e-14
3.43224e-13
2.62721e-12
1.19772e-11
3.27282e-11
1.35044e-10
5.74063e-10
3.59502e-09
-1.27587e-46
-6.07918e-44
-1.00977e-41
-9.88725e-40
-6.95141e-38
-3.78442e-36
-1.68814e-34
-6.70411e-33
-4.41323e-31
-1.01764e-28
-3.67006e-27
4.53062e-23
1.2454e-20
9.04709e-20
2.13897e-19
2.96729e-19
3.17473e-19
2.03652e-19
6.473e-20
2.25809e-20
1.22158e-20
8.48979e-21
5.41426e-21
2.97575e-21
2.24174e-21
2.63147e-21
6.14e-21
1.27904e-20
2.21625e-20
3.54855e-20
5.48967e-20
8.83541e-20
1.73202e-19
5.12457e-19
2.36439e-18
1.42254e-17
9.66458e-17
6.9252e-16
5.04533e-15
3.66484e-14
2.66584e-13
1.98988e-12
8.81699e-12
2.17231e-11
5.58217e-11
4.21641e-10
2.02364e-42
1.19017e-41
2.3033e-39
2.48135e-37
1.81646e-35
1.01576e-33
4.62175e-32
1.77322e-30
4.31502e-29
9.10493e-28
2.51271e-26
7.9593e-24
7.54304e-22
4.03916e-21
8.92174e-21
1.22365e-20
1.30714e-20
8.75083e-21
3.02254e-21
1.04395e-21
4.0942e-22
1.80627e-22
9.67565e-23
7.25222e-23
7.21367e-23
1.43432e-22
3.6733e-22
7.59903e-22
1.3761e-21
2.31548e-21
3.80519e-21
6.7788e-21
1.56742e-20
5.48065e-20
2.69736e-19
1.58424e-18
1.01732e-17
6.90632e-17
4.84656e-16
3.44308e-15
2.45768e-14
1.79394e-13
1.19706e-12
3.82211e-12
5.31049e-12
9.76944e-11
9.56462e-44
1.50857e-42
2.01605e-40
2.21436e-38
1.63519e-36
9.1768e-35
3.91278e-33
-7.29545e-31
-5.82765e-29
-1.5099e-27
-1.6684e-26
8.22528e-24
4.02116e-23
8.23242e-23
1.03755e-22
1.04389e-22
5.80376e-23
2.77294e-23
2.06989e-23
1.78109e-23
1.25316e-23
6.72537e-24
3.70067e-24
2.90842e-24
3.18844e-24
7.59238e-24
1.9301e-23
4.04135e-23
7.57193e-23
1.33223e-22
2.34962e-22
4.73477e-22
1.31352e-21
5.36876e-21
2.80201e-20
1.62271e-19
9.91627e-19
6.35259e-18
4.25316e-17
2.93772e-16
2.07063e-15
1.51412e-14
1.1121e-13
3.59119e-13
4.36835e-13
2.74749e-11
-1.14407e-44
-5.93618e-42
-6.95724e-40
-5.44802e-38
-3.2204e-36
-1.53286e-34
-6.09724e-33
-1.15905e-31
3.08187e-32
6.74628e-31
3.56225e-27
4.85556e-25
3.51025e-24
8.0856e-24
1.05976e-23
1.08097e-23
5.73503e-24
2.07993e-24
1.22804e-24
1.00366e-24
7.74271e-25
4.39819e-25
2.19156e-25
1.50174e-25
1.47315e-25
3.11897e-25
8.46882e-25
1.86526e-24
3.63069e-24
6.72433e-24
1.29133e-23
3.00069e-23
9.98889e-23
4.65516e-22
2.55353e-21
1.47278e-20
8.66716e-20
5.25257e-19
3.33147e-18
2.21624e-17
1.53232e-16
1.11066e-15
8.30774e-15
2.74968e-14
3.29104e-14
2.43108e-12
8.20937e-48
3.08466e-46
6.13569e-44
6.37099e-42
4.4535e-40
2.35822e-38
9.67806e-37
2.99905e-35
7.33878e-34
1.43226e-32
1.91615e-30
3.61303e-28
5.19369e-27
1.93629e-26
3.86971e-26
5.52725e-26
6.51274e-26
6.86512e-26
6.12752e-26
4.99458e-26
3.56659e-26
1.90095e-26
9.06189e-27
5.74792e-27
5.38484e-27
1.06256e-26
3.10739e-26
7.32103e-26
1.50081e-25
2.96061e-25
6.28505e-25
1.70672e-24
6.72602e-24
3.4894e-23
2.00634e-22
1.17024e-21
6.78239e-21
3.96362e-20
2.40377e-19
1.54175e-18
1.0457e-17
7.50705e-17
5.54923e-16
1.90454e-15
2.40267e-15
1.39967e-13
1.96939e-49
7.15946e-48
1.16522e-45
1.25529e-43
9.03218e-42
4.90437e-40
2.12624e-38
1.02755e-37
-2.39794e-35
-4.6626e-34
2.75489e-32
4.84337e-30
2.05481e-28
1.16768e-27
2.80104e-27
4.21844e-27
4.84992e-27
4.87935e-27
3.47528e-27
2.42999e-27
1.65861e-27
8.78794e-28
3.80102e-28
1.99746e-28
1.69913e-28
2.94097e-28
9.50932e-28
2.43322e-27
5.31081e-27
1.12965e-26
2.68744e-26
8.56014e-26
3.90989e-25
2.21623e-24
1.3363e-23
7.99855e-23
4.67602e-22
2.70934e-21
1.60993e-20
1.01228e-19
6.80048e-19
4.86751e-18
3.54835e-17
1.25672e-16
1.72731e-16
7.92243e-15
-3.89758e-51
-3.80658e-48
-3.64188e-46
-2.23848e-44
-1.06167e-42
-4.10789e-41
-1.32597e-39
-2.29714e-38
3.88937e-37
9.64164e-36
4.04539e-34
1.30477e-31
6.99614e-30
4.36997e-29
1.12968e-28
1.82461e-28
2.23979e-28
2.35769e-28
1.93959e-28
1.32527e-28
9.12516e-29
5.07445e-29
2.17358e-29
9.17222e-30
6.30624e-30
7.14922e-30
2.27015e-29
6.72289e-29
1.59877e-28
3.70151e-28
9.97712e-28
3.71279e-27
1.92172e-26
1.17486e-25
7.44085e-25
4.62281e-24
2.77924e-23
1.63783e-22
9.7956e-22
6.18002e-21
4.18983e-20
3.06026e-19
2.22494e-18
7.71731e-18
1.19229e-17
4.79831e-16
2.06624e-53
3.12756e-51
5.11922e-49
3.76119e-47
2.07718e-45
9.21227e-44
3.4213e-42
1.0952e-40
3.00323e-39
6.24456e-38
2.89396e-36
6.68341e-34
1.01083e-31
9.91856e-31
3.33394e-30
6.38685e-30
8.69354e-30
9.56697e-30
9.15306e-30
5.82419e-30
3.60989e-30
2.02053e-30
8.81471e-31
3.37051e-31
1.82405e-31
1.66559e-31
4.35982e-31
1.50939e-30
4.01983e-30
1.0304e-29
3.17151e-29
1.36499e-28
7.85978e-28
5.14176e-27
3.42745e-26
2.22888e-25
1.39717e-24
8.53061e-24
5.24537e-23
3.38885e-22
2.35269e-21
1.75841e-20
1.30307e-19
4.47167e-19
7.54859e-19
3.08494e-17
7.71439e-56
1.72626e-53
1.53241e-51
1.07733e-49
5.94476e-48
2.68804e-46
1.03863e-44
1.52202e-43
-1.80935e-41
-2.50947e-40
1.63993e-38
9.33373e-37
4.67854e-34
1.45537e-32
8.14389e-32
2.05929e-31
3.2804e-31
3.9184e-31
4.00375e-31
2.61056e-31
1.27489e-31
6.49475e-32
2.95869e-32
1.13587e-32
5.06488e-33
3.96044e-33
6.69225e-33
2.63369e-32
8.26161e-32
2.40558e-31
8.49641e-31
4.17836e-30
2.64113e-29
1.84226e-28
1.2969e-27
8.89429e-27
5.87754e-26
3.77131e-25
2.42271e-24
1.62837e-23
1.17434e-22
8.9754e-22
6.59515e-21
2.24547e-20
4.26027e-20
1.89836e-18
-7.56179e-58
-6.64583e-55
-6.58666e-53
-4.24872e-51
-2.07112e-49
-8.03174e-48
-2.57619e-46
-4.89669e-45
3.00031e-44
7.96146e-43
3.34108e-41
7.23073e-40
5.34528e-37
8.97454e-35
9.11791e-34
3.22442e-33
6.36088e-33
8.73677e-33
9.60819e-33
8.6547e-33
4.47389e-33
2.06305e-33
9.14392e-34
3.49821e-34
1.32143e-34
8.35547e-35
9.09744e-35
3.46289e-34
1.34745e-33
4.62231e-33
1.89058e-32
1.05307e-31
7.25402e-31
5.39337e-30
4.02577e-29
2.93278e-28
2.065e-27
1.41156e-26
9.61135e-26
6.8194e-25
5.19947e-24
4.07485e-23
2.82389e-22
9.68622e-22
2.12564e-21
9.95516e-20
1.43223e-61
3.65784e-59
4.56895e-57
3.75062e-55
2.29922e-53