/*--------------------------------*- C++ -*----------------------------------*\
  =========                 |
  \\      /  F ield         | OpenFOAM: The Open Source CFD Toolbox
   \\    /   O peration     | Website:  https://openfoam.org
    \\  /    A nd           | Version:  9
     \\/     M anipulation  |
\*---------------------------------------------------------------------------*/
FoamFile
{
    format      ascii;
    class       volScalarField;
    location    "0.3";
    object      epsilon;
}
// * * * * * * * * * * * * * * * * * * * * * * * * * * * * * * * * * * * * * //

dimensions      [0 2 -3 0 0 0 0];

internalField   nonuniform List<scalar> 
7700
(
0.0348149
0.101533
0.194783
0.283753
0.358314
0.421707
0.478678
0.532393
0.585406
0.639742
0.696965
0.75826
0.824505
0.896321
0.974091
1.05797
1.14785
1.24339
1.34396
1.44868
1.55636
1.66557
1.77461
1.88154
1.98424
2.0804
2.16763
2.24347
2.30545
2.35113
2.37799
2.38306
2.36238
2.32959
2.27917
2.20722
2.11169
1.99229
1.85106
1.69339
1.52835
1.36367
1.19157
1.06959
0.922007
0.81841
0.0511245
0.0800352
0.120543
0.155072
0.182731
0.205521
0.225258
0.243385
0.260986
0.278835
0.297484
0.317332
0.338671
0.361713
0.386602
0.413411
0.442148
0.472744
0.505054
0.538849
0.57382
0.609579
0.645662
0.68154
0.71663
0.750317
0.781979
0.811014
0.836885
0.85917
0.877622
0.892281
0.90402
0.922037
0.945537
0.976494
1.01806
1.07469
1.15213
1.25623
1.38691
1.51587
1.5468
1.39436
1.04401
1.35295
0.0725498
0.0940097
0.121821
0.144926
0.163236
0.178006
0.190517
0.201831
0.212739
0.223793
0.235369
0.247727
0.261044
0.275442
0.290997
0.307741
0.325668
0.344728
0.364825
0.385817
0.407515
0.429683
0.452041
0.474273
0.496038
0.516986
0.536777
0.555117
0.571788
0.586711
0.600012
0.612144
0.624288
0.639876
0.661229
0.691365
0.734492
0.796422
0.885096
1.0106
1.18129
1.38475
1.54672
1.57526
1.51072
2.31461
0.0967186
0.112389
0.132826
0.149242
0.162374
0.173157
0.182466
0.191036
0.199423
0.208021
0.217101
0.226843
0.237369
0.248757
0.261049
0.274257
0.288363
0.303317
0.319034
0.335397
0.352251
0.369408
0.386646
0.403719
0.420367
0.436329
0.451369
0.465305
0.478046
0.489653
0.500403
0.510915
0.522392
0.537158
0.55777
0.587349
0.629936
0.690712
0.776314
0.895096
1.0558
1.25855
1.47376
1.6673
1.92448
3.5134
0.118534
0.129509
0.144428
0.155949
0.165411
0.173584
0.181023
0.188179
0.195403
0.202945
0.210982
0.219633
0.228981
0.239073
0.249933
0.261563
0.273937
0.287007
0.300694
0.314891
0.329462
0.344238
0.359026
0.373611
0.387771
0.401293
0.413991
0.425747
0.436546
0.44653
0.456077
0.4659
0.477231
0.492101
0.513086
0.543309
0.586664
0.647855
0.732462
0.847085
0.999376
1.19644
1.44226
1.76238
2.31639
4.90999
0.13666
0.142722
0.15329
0.161382
0.168405
0.174949
0.181335
0.187807
0.194555
0.201716
0.209392
0.217653
0.226549
0.236111
0.246352
0.257266
0.26883
0.280996
0.293694
0.306823
0.320257
0.333841
0.347396
0.360726
0.373629
0.385918
0.397442
0.408124
0.418
0.427277
0.436403
0.446167
0.457839
0.473364
0.495343
0.526918
0.571952
0.635014
0.721344
0.836998
0.989618
1.19097
1.46562
1.88269
2.68475
6.27963
0.15109
0.152104
0.158789
0.164492
0.170063
0.175773
0.181734
0.188036
0.194754
0.201946
0.209657
0.217925
0.226776
0.236231
0.246299
0.256974
0.268237
0.280045
0.292333
0.30501
0.317957
0.331027
0.34405
0.356839
0.369205
0.380977
0.392025
0.402301
0.41188
0.421019
0.430225
0.440351
0.45271
0.469232
0.492561
0.525897
0.573182
0.639106
0.729128
0.84975
1.00984
1.22533
1.53389
2.03505
3.05882
7.70555
0.163362
0.15849
0.161435
0.165398
0.170189
0.175632
0.181624
0.188125
0.195125
0.202623
0.210629
0.219155
0.228218
0.237834
0.248011
0.258751
0.270038
0.28184
0.294097
0.306727
0.319617
0.332626
0.345588
0.358322
0.370644
0.382388
0.39344
0.403769
0.41348
0.422869
0.432494
0.443261
0.45653
0.474247
0.499094
0.534372
0.584168
0.653453
0.748239
0.876099
1.04801
1.2844
1.63345
2.22063
3.48437
9.38321
0.174257
0.162677
0.162013
0.164633
0.169047
0.174571
0.180882
0.187823
0.195309
0.203296
0.211767
0.22072
0.230167
0.240124
0.250606
0.26162
0.273162
0.285208
0.297708
0.310587
0.323737
0.337023
0.35028
0.363327
0.375977
0.388068
0.399487
0.410214
0.420374
0.430293
0.440571
0.452157
0.466456
0.485446
0.511815
0.549001
0.601252
0.673871
0.773542
0.90915
1.09418
1.35398
1.74745
2.43078
4.00674
11.5427
0.184424
0.165316
0.161235
0.162774
0.167027
0.172815
0.1796
0.187112
0.195202
0.203787
0.212828
0.222315
0.232259
0.24268
0.253603
0.265045
0.277012
0.289492
0.302445
0.315805
0.329469
0.343303
0.357143
0.370803
0.384091
0.396834
0.408915
0.420316
0.431171
0.441827
0.452913
0.465416
0.480775
0.50099
0.528754
0.567614
0.621947
0.697337
0.801048
0.943115
1.13924
1.41907
1.85171
2.63151
4.60673
14.5109
0.0545571
0.0828585
0.365945
0.0859423
0.0863757
0.376889
0.409609
0.435196
0.455372
0.465167
0.46633
0.460609
0.449633
0.434909
0.417812
0.399647
0.382073
0.368442
0.365505
0.0863034
0.367829
0.0861053
0.0859733
0.0864819
0.367667
0.368949
0.369444
0.372393
0.369673
0.0862074
0.0858864
0.08575
0.0855454
0.367409
0.0852551
0.0856114
0.0835969
0.0737877
0.0569491
0.0307262
0.140499
0.11679
0.157306
0.175331
0.188221
0.200925
0.204225
0.205738
0.206627
0.205249
0.201915
0.197114
0.191316
0.184945
0.178367
0.171916
0.165965
0.160993
0.156932
0.147414
0.148486
0.140723
0.137729
0.134805
0.137644
0.133886
0.131896
0.127226
0.125463
0.119937
0.117414
0.113473
0.106747
0.103817
0.0923856
0.0812408
0.0711423
0.0621423
0.0497053
0.0227506
0.220731
0.152969
0.169656
0.180793
0.184761
0.184371
0.181311
0.177475
0.173277
0.168188
0.16241
0.156264
0.150037
0.143965
0.138227
0.132956
0.128259
0.124202
0.120646
0.117262
0.114771
0.11241
0.110577
0.108958
0.107699
0.106174
0.104899
0.103309
0.102073
0.100413
0.0985767
0.0961938
0.0931785
0.0893493
0.0845782
0.0784433
0.0714345
0.0647945
0.0582336
0.0962949
0.324297
0.200232
0.204579
0.209172
0.207063
0.200633
0.192336
0.183713
0.175002
0.166054
0.157144
0.14857
0.140556
0.133244
0.126708
0.120975
0.116035
0.111846
0.10831
0.105356
0.102966
0.10102
0.0994634
0.0981741
0.097088
0.0961046
0.0952175
0.094315
0.0934503
0.0924332
0.0912166
0.0897051
0.0877909
0.0853165
0.0821905
0.0783181
0.0738905
0.0698356
0.0683227
0.0963027
0.46167
0.268905
0.261944
0.259504
0.250294
0.236757
0.221749
0.206939
0.192403
0.178304
0.165046
0.152937
0.142139
0.132693
0.124561
0.117658
0.111873
0.107085
0.103161
0.0999897
0.097463
0.0954674
0.0939054
0.0926719
0.0916911
0.090886
0.0901965
0.0895623
0.0889507
0.08828
0.0874856
0.0865066
0.0852587
0.083651
0.0816274
0.0792033
0.076618
0.074767
0.0769215
0.115576
0.662051
0.373886
0.349999
0.336322
0.316253
0.292451
0.267972
0.244549
0.221972
0.200799
0.181587
0.164636
0.150005
0.13759
0.127197
0.118591
0.111538
0.105813
0.101212
0.0975573
0.0946887
0.0924626
0.0907536
0.0894475
0.0884573
0.0876979
0.0870993
0.0866029
0.0861613
0.0857191
0.0852215
0.0846191
0.0838552
0.0828809
0.0816837
0.0803396
0.0791585
0.079146
0.0843601
0.133874
0.981333
0.538964
0.48036
0.445994
0.408643
0.369957
0.332352
0.297056
0.263539
0.232862
0.205723
0.182375
0.162715
0.146426
0.13309
0.122272
0.113563
0.106606
0.101093
0.0967662
0.0934058
0.090827
0.0888723
0.0874089
0.0863329
0.0855465
0.0849717
0.0845453
0.0842154
0.0839341
0.0836561
0.0833421
0.0829566
0.0824805
0.0819373
0.0814505
0.0813983
0.0829334
0.0908
0.15018
1.51847
0.800289
0.665288
0.593325
0.529992
0.471107
0.416576
0.36548
0.317736
0.274798
0.237473
0.205938
0.179881
0.1587
0.141676
0.128104
0.117348
0.10887
0.10223
0.0970661
0.0930875
0.0900559
0.0877755
0.0860897
0.0848703
0.0840053
0.0834066
0.0830043
0.082743
0.0825767
0.0824663
0.0823814
0.0823026
0.0822331
0.0822254
0.0824428
0.0833268
0.0861804
0.0963722
0.164632
2.43133
1.19764
0.911713
0.777539
0.679244
0.595578
0.52085
0.450205
0.385081
0.327092
0.277184
0.235502
0.201522
0.174307
0.152769
0.135852
0.122631
0.112336
0.104353
0.0981955
0.0934812
0.0899066
0.0872303
0.0852666
0.0838561
0.0828704
0.0822098
0.0817964
0.08157
0.0814838
0.0815024
0.0816025
0.0817768
0.0820457
0.0824853
0.0832928
0.084968
0.0889566
0.101201
0.177479
4.01034
1.76591
1.21343
0.991228
0.852199
0.741438
0.643587
0.550885
0.46573
0.390111
0.325247
0.271375
0.227825
0.193323
0.166357
0.145448
0.129307
0.116879
0.107331
0.100021
0.0944557
0.0902518
0.0871183
0.0848242
0.0831792
0.0820363
0.0812817
0.0808278
0.0806081
0.0805737
0.0806908
0.080941
0.0813258
0.0818793
0.082697
0.0840052
0.0863569
0.0913301
0.105396
0.188941
0.194406
0.166927
0.159665
0.160296
0.164495
0.170622
0.177943
0.186081
0.194826
0.204059
0.213725
0.223808
0.234321
0.245291
0.256753
0.268738
0.281264
0.294331
0.30791
0.321944
0.336335
0.350953
0.365627
0.380166
0.394363
0.408031
0.421036
0.43335
0.445105
0.45666
0.468662
0.482124
0.498506
0.519817
0.548733
0.588861
0.644631
0.721769
0.827854
0.973541
1.17561
1.46538
1.91382
2.71568
4.57844
9.91674
0.20477
0.16794
0.157719
0.157557
0.161746
0.16823
0.176092
0.184857
0.194257
0.204144
0.214448
0.22515
0.236268
0.247839
0.25991
0.272524
0.285715
0.299494
0.313848
0.328724
0.344035
0.359647
0.375388
0.391053
0.406417
0.421267
0.435441
0.448886
0.461722
0.474304
0.487289
0.501702
0.519007
0.541202
0.570914
0.611729
0.668034
0.745506
0.851664
0.997038
1.19792
1.48353
1.91601
2.65154
4.12826
7.31372
0.21591
0.168722
0.155753
0.154879
0.15907
0.165889
0.174253
0.183596
0.193604
0.204104
0.215015
0.22632
0.238044
0.250233
0.262949
0.276248
0.290179
0.304768
0.320012
0.33587
0.352259
0.369048
0.38606
0.403073
0.419838
0.436105
0.451671
0.466443
0.480511
0.494216
0.508211
0.523519
0.541593
0.564391
0.594464
0.635266
0.691059
0.767269
0.870998
1.01199
1.20479
1.47394
1.86745
2.49313
3.5995
5.61926
0.228306
0.169624
0.154063
0.152527
0.156707
0.16381
0.1726
0.182437
0.192968
0.204002
0.215457
0.227319
0.23962
0.252419
0.26579
0.279805
0.294526
0.309994
0.326217
0.343167
0.360765
0.378885
0.397343
0.415902
0.434284
0.45219
0.469359
0.485639
0.501075
0.515978
0.530987
0.547109
0.565768
0.588863
0.618855
0.658891
0.713109
0.786509
0.88552
1.01871
1.19828
1.44351
1.78893
2.30382
3.12684
4.44046
0.242498
0.170985
0.15291
0.150731
0.154862
0.162165
0.171273
0.181484
0.19242
0.203884
0.215794
0.228142
0.24097
0.254348
0.268364
0.283103
0.298641
0.315032
0.332298
0.350418
0.369326
0.388896
0.408943
0.429218
0.449409
0.46916
0.488133
0.506097
0.523029
0.539201
0.555225
0.572084
0.591155
0.61425
0.643678
0.682327
0.734046
0.803333
0.895828
1.01879
1.18207
1.40023
1.69723
2.11612
2.73305
3.62533
0.25908
0.173127
0.15253
0.14969
0.153693
0.161075
0.170354
0.18079
0.191991
0.203759
0.216019
0.228769
0.24206
0.255975
0.270609
0.286063
0.302426
0.319761
0.338104
0.357444
0.377724
0.398825
0.420565
0.442687
0.464849
0.486633
0.507603
0.527424
0.545988
0.563512
0.580578
0.598139
0.617511
0.640397
0.668923
0.705706
0.754241
0.818499
0.903316
1.0147
1.16043
1.35129
1.60358
1.94374
2.41334
3.04918
0.278628
0.176324
0.153126
0.149558
0.153302
0.160593
0.169864
0.180352
0.191662
0.203602
0.2161
0.229164
0.242851
0.257251
0.272471
0.28862
0.305798
0.324081
0.34351
0.364088
0.385764
0.408431
0.431916
0.455968
0.480225
0.504203
0.527353
0.549209
0.569559
0.58856
0.606761
0.62508
0.644769
0.667401
0.694902
0.729612
0.77461
0.833402
0.910071
1.00954
1.1379
1.30309
1.51617
1.79346
2.15812
2.63053
0.301519
0.180748
0.154852
0.150433
0.153723
0.160707
0.169763
0.180118
0.191378
0.203357
0.215988
0.229282
0.2433
0.258138
0.273908
0.290729
0.308706
0.327923
0.34843
0.370234
0.393295
0.417515
0.442741
0.468742
0.495163
0.521459
0.546955
0.571033
0.593364
0.614038
0.633577
0.652868
0.673087
0.695664
0.722312
0.75511
0.796622
0.850049
0.918799
1.0069
1.11914
1.26143
1.44135
1.66918
1.95843
2.32186
0.327603
0.186431
0.157817
0.152358
0.154935
0.161355
0.16997
0.180003
0.191061
0.202959
0.21563
0.229085
0.243383
0.25862
0.274912
0.292381
0.311139
0.331271
0.352832
0.375833
0.400239
0.425959
0.452863
0.480764
0.509343
0.538024
0.566003
0.592501
0.617063
0.639721
0.660974
0.681674
0.70291
0.72595
0.75227
0.783657
0.822283
0.871021
0.932737
1.01076
1.10894
1.23168
1.38428
1.57344
1.80751
2.09516
0.355828
0.193324
0.162138
0.155366
0.156894
0.162458
0.170398
0.179927
0.190647
0.202362
0.214999
0.228563
0.243106
0.258717
0.275513
0.293619
0.313145
0.334176
0.356767
0.380931
0.406631
0.433776
0.462254
0.491939
0.522587
0.553633
0.584174
0.613286
0.640409
0.665526
0.689108
0.711953
0.735032
0.75943
0.786369
0.817334
0.854134
0.899363
0.955488
1.02533
1.11199
1.21878
1.34936
1.50824
1.70094
1.93364
0.383961
0.201603
0.168099
0.159575
0.15962
0.163991
0.171011
0.179863
0.190122
0.201572
0.214121
0.227761
0.242532
0.25851
0.27581
0.294555
0.31485
0.336777
0.360386
0.38569
0.412647
0.441156
0.471105
0.502422
0.53496
0.568226
0.601303
0.633205
0.663314
0.691576
0.718405
0.744481
0.770595
0.797629
0.826557
0.858536
0.895012
0.938222
0.990562
1.05449
1.13249
1.22691
1.34012
1.47517
1.63591
1.82698
0.408751
0.212263
0.176399
0.165337
0.163283
0.166047
0.171876
0.179878
0.189566
0.200682
0.213105
0.226803
0.2418
0.258156
0.275978
0.295382
0.316466
0.339302
0.363936
0.39038
0.418587
0.448443
0.479817
0.512638
0.546819
0.582005
0.617448
0.652276
0.68591
0.718254
0.749592
0.780354
0.811046
0.842372
0.875115
0.90995
0.94789
0.99071
1.04116
1.10144
1.1734
1.25858
1.35852
1.47489
1.61015
1.76819
0.4271
0.227765
0.188456
0.17338
0.168276
0.168864
0.173169
0.180125
0.189131
0.199851
0.212116
0.225863
0.241095
0.257851
0.276226
0.296324
0.318228
0.341998
0.367673
0.395265
0.424736
0.455977
0.488843
0.523188
0.55883
0.595552
0.633069
0.670942
0.708771
0.746419
0.783937
0.821223
0.858335
0.895991
0.93504
0.975023
1.01632
1.06053
1.11103
1.1699
1.23824
1.31687
1.40651
1.50703
1.62086
1.75163
0.439342
0.252594
0.206617
0.184825
0.175172
0.172784
0.175138
0.180822
0.189024
0.199284
0.211358
0.225137
0.240608
0.257793
0.276766
0.297603
0.32037
0.345116
0.371879
0.400668
0.431472
0.464239
0.498874
0.535067
0.572225
0.610148
0.649476
0.690608
0.73344
0.777827
0.823589
0.869432
0.914835
0.961124
1.01014
1.05802
1.10485
1.15198
1.20412
1.26401
1.33173
1.40738
1.48916
1.5741
1.66773
1.77338
0.456503
0.293533
0.233968
0.201034
0.184647
0.178253
0.178182
0.182379
0.189682
0.199441
0.211309
0.225117
0.240836
0.258503
0.278153
0.299816
0.323537
0.349364
0.37734
0.407484
0.439839
0.474431
0.511261
0.549765
0.588658
0.627508
0.668526
0.7133
0.761912
0.814363
0.870814
0.926942
0.981837
1.03862
1.09583
1.14918
1.1997
1.25104
1.30763
1.3738
1.44941
1.53243
1.61271
1.67984
1.75391
1.83404
0.511645
0.357658
0.273321
0.223197
0.197418
0.185898
0.182958
0.185513
0.191879
0.20115
0.212852
0.226733
0.242756
0.261007
0.281464
0.304095
0.328917
0.355984
0.385363
0.417121
0.451506
0.48834
0.527512
0.568148
0.608378
0.648205
0.691212
0.73997
0.794617
0.855768
0.920858
0.982002
1.03794
1.09398
1.14636
1.20139
1.25672
1.31477
1.37686
1.44694
1.5267
1.616
1.71042
1.79594
1.87475
1.93281
0.649843
0.452263
0.32207
0.250775
0.213459
0.195893
0.189764
0.190614
0.196094
0.20498
0.216643
0.230724
0.247177
0.266132
0.287501
0.311174
0.337132
0.365403
0.396034
0.428981
0.464231
0.501605
0.540525
0.580564
0.621918
0.665385
0.711904
0.762726
0.81732
0.877243
0.935486
0.991403
1.04184
1.0902
1.14242
1.20142
1.2644
1.3298
1.39782
1.47326
1.55907
1.65295
1.75106
1.85169
1.95168
2.03739
0.809169
0.490127
0.357229
0.280133
0.230543
0.206601
0.196829
0.195443
0.199571
0.207701
0.219038
0.233144
0.249842
0.269099
0.290862
0.315034
0.341517
0.370262
0.401229
0.434237
0.468626
0.504422
0.541732
0.581261
0.623717
0.669001
0.716561
0.766075
0.816734
0.868548
0.921291
0.973127
1.02151
1.06809
1.11843
1.17656
1.24226
1.31396
1.39081
1.47468
1.56829
1.67167
1.78102
1.89021
1.99255
2.09127
0.934925
0.509061
0.388239
0.297867
0.243566
0.215681
0.202973
0.199448
0.202038
0.209089
0.219688
0.233328
0.249692
0.268606
0.289995
0.313775
0.339837
0.368101
0.398465
0.430821
0.465055
0.501142
0.539224
0.579843
0.623328
0.669152
0.716238
0.7638
0.811315
0.858607
0.905926
0.952655
0.997861
1.04277
1.09129
1.14754
1.21362
1.28968
1.37492
1.46911
1.57277
1.6857
1.80513
1.92437
2.03683
2.14234
0.904569
0.475921
0.377109
0.299289
0.249875
0.222206
0.208521
0.203866
0.205444
0.211664
0.221603
0.234711
0.250625
0.269131
0.290136
0.313564
0.339321
0.367312
0.397426
0.429584
0.463728
0.499921
0.538402
0.579538
0.623359
0.669158
0.715789
0.762324
0.808198
0.853043
0.896747
0.939254
0.980886
1.02328
1.06978
1.12452
1.19096
1.27089
1.36422
1.46971
1.58564
1.70985
1.83885
1.96664
2.08705
2.19862
0.763676
0.405878
0.341173
0.28667
0.247968
0.22425
0.211748
0.20723
0.208566
0.214428
0.223998
0.236757
0.252358
0.270586
0.291335
0.314536
0.340123
0.368023
0.398164
0.430499
0.465004
0.501724
0.540811
0.582437
0.626462
0.672224
0.718698
0.764882
0.809964
0.853279
0.89446
0.933676
0.971968
1.01157
1.05603
1.10981
1.1773
1.26161
1.36367
1.48199
1.61319
1.75271
1.89466
2.03188
2.15792
2.2709
0.657681
0.361679
0.309415
0.270215
0.241523
0.223103
0.213164
0.209824
0.211658
0.217693
0.227285
0.240006
0.25556
0.273756
0.294492
0.317709
0.343363
0.371413
0.401823
0.434574
0.469657
0.507082
0.546879
0.589027
0.63328
0.679028
0.725348
0.77118
0.815484
0.857358
0.896322
0.932704
0.967988
1.00496
1.04764
1.10101
1.17026
1.25966
1.3713
1.50425
1.65406
1.81407
1.97537
2.12793
2.2632
2.37833
0.620388
0.34653
0.289226
0.256183
0.234206
0.220544
0.213564
0.211995
0.21489
0.22158
0.231598
0.244623
0.260427
0.278859
0.299833
0.323301
0.34924
0.377628
0.408455
0.44171
0.477379
0.515426
0.555779
0.598277
0.642573
0.688048
0.733804
0.778739
0.821688
0.861659
0.898194
0.931804
0.964306
0.998923
1.04018
1.0936
1.16508
1.25993
1.38156
1.53021
1.70187
1.88759
2.07625
2.25421
2.4092
2.53529
0.627499
0.346698
0.278241
0.246097
0.227842
0.217721
0.213444
0.21381
0.218082
0.225772
0.236547
0.250174
0.266489
0.285381
0.306785
0.330668
0.357017
0.385825
0.417085
0.450782
0.486876
0.52528
0.565834
0.608265
0.652128
0.69675
0.741211
0.784392
0.825122
0.862459
0.896092
0.926758
0.956563
0.989072
1.0292
1.0829
1.15667
1.25673
1.38783
1.55192
1.74656
1.9636
2.18842
2.4053
2.59711
2.75153
0.663076
0.354217
0.27307
0.239422
0.222895
0.215131
0.213028
0.2152
0.220928
0.229793
0.24153
0.255961
0.272966
0.292463
0.314406
0.338772
0.365551
0.394738
0.426318
0.460255
0.49647
0.534819
0.575059
0.616819
0.659559
0.702541
0.744819
0.785297
0.822894
0.856837
0.887044
0.914517
0.941619
0.972157
1.01128
1.06523
1.1409
1.24522
1.38423
1.5618
1.77824
2.02848
2.30007
2.5724
2.82507
3.03497
0.717495
0.364729
0.271226
0.235193
0.219227
0.212903
0.212407
0.2161
0.223186
0.233235
0.245995
0.261309
0.279073
0.299222
0.321716
0.346533
0.373659
0.403077
0.434753
0.468618
0.504545
0.542325
0.581637
0.62202
0.662857
0.703353
0.742563
0.779466
0.813143
0.84306
0.869416
0.893487
0.917849
0.946458
0.984554
1.03846
1.11526
1.22235
1.36675
1.55428
1.78859
2.07003
2.3932
2.74151
3.08527
3.38875
0.782714
0.375597
0.271044
0.232557
0.216548
0.21103
0.211645
0.216522
0.224755
0.235865
0.249579
0.265729
0.284211
0.304954
0.327913
0.353056
0.380355
0.409771
0.441239
0.474647
0.509814
0.546464
0.584204
0.622499
0.660672
0.697907
0.733297
0.765943
0.795135
0.820615
0.842875
0.86344
0.885051
0.911714
0.948629
1.00203
1.07898
1.18704
1.33386
1.52675
1.77265
2.07868
2.4514
2.88859
3.35876
3.80476
0.852172
0.385429
0.271568
0.230937
0.214621
0.209499
0.210829
0.216554
0.225668
0.237631
0.252129
0.26897
0.288027
0.309214
0.332468
0.357736
0.384965
0.414084
0.44499
0.477522
0.511441
0.546409
0.581969
0.617534
0.652396
0.685755
0.716782
0.744738
0.769146
0.790027
0.808149
0.825244
0.844148
0.868832
0.904344
0.956711
1.03278
1.14005
1.28639
1.47994
1.73013
2.05068
2.46343
2.99136
3.62313
4.26811
0.921136
0.393728
0.272375
0.230024
0.213314
0.20833
0.210068
0.21634
0.226056
0.238618
0.25367
0.270984
0.290404
0.311818
0.335133
0.360269
0.387139
0.415635
0.445607
0.476844
0.509053
0.541839
0.574699
0.607018
0.63809
0.667166
0.693532
0.716628
0.736218
0.75258
0.766717
0.780509
0.796817
0.819498
0.85337
0.904158
0.978414
1.0834
1.22693
1.41739
1.66556
1.99039
2.42962
3.04067
3.85275
4.76409
0.986512
0.400508
0.27336
0.229688
0.212575
0.207563
0.209475
0.216034
0.226086
0.238984
0.254332
0.271865
0.291396
0.312777
0.335886
0.360605
0.386809
0.414347
0.443024
0.472581
0.502675
0.532869
0.562631
0.591347
0.618345
0.642955
0.664601
0.682917
0.697888
0.710016
0.720478
0.731242
0.745122
0.765797
0.797798
0.846508
0.918144
1.0197
1.15886
1.34392
1.58612
1.90761
2.35909
3.03447
4.02122
5.24516
1.04641
0.406029
0.274554
0.229881
0.212382
0.207232
0.209141
0.215769
0.225919
0.238903
0.25429
0.271782
0.291157
0.312236
0.33486
0.358873
0.384109
0.410375
0.437434
0.464984
0.492642
0.519941
0.546348
0.571274
0.594111
0.614283
0.631367
0.645187
0.655929
0.664258
0.671472
0.679554
0.691204
0.709871
0.739778
0.78597
0.854363
0.951715
1.08549
1.26386
1.49799
1.81156
2.25994
2.96153
4.0661
5.56243
1.09978
0.410624
0.276013
0.230569
0.212703
0.207338
0.20911
0.215634
0.225678
0.238526
0.253715
0.27092
0.289886
0.310402
0.332275
0.355313
0.379307
0.404028
0.429199
0.454488
0.479489
0.503715
0.52665
0.547763
0.566535
0.582483
0.595331
0.605086
0.612097
0.61716
0.621603
0.627337
0.63689
0.653447
0.680915
0.724027
0.788459
0.880876
1.00882
1.1807
1.40731
1.70947
2.13893
2.81537
3.93305
5.56636
1.1462
0.414649
0.277765
0.23169
0.213468
0.207839
0.209376
0.21566
0.225434
0.237957
0.252744
0.269443
0.287773
0.307495
0.328383
0.350214
0.372738
0.395692
0.418773
0.441631
0.463867
0.484959
0.504439
0.521846
0.53675
0.548824
0.557934
0.564207
0.568098
0.570459
0.572588
0.576274
0.583831
0.598153
0.622812
0.662211
0.721766
0.808032
0.928672
1.09236
1.30972
1.59915
2.00492
2.63192
3.66616
5.27478
1.18579
0.418502
0.279786
0.233135
0.214565
0.208641
0.209876
0.215821
0.225197
0.237247
0.251464
0.267477
0.284983
0.303715
0.323426
0.343869
0.364752
0.385783
0.406645
0.426976
0.446351
0.464339
0.480523
0.494503
0.505946
0.514646
0.520581
0.523972
0.525334
0.525519
0.52575
0.527657
0.533311
0.545294
0.566822
0.601924
0.65568
0.734426
0.845808
0.998633
1.20317
1.47472
1.84713
2.4039
3.31388
4.78972
1.21926
0.422643
0.281982
0.234739
0.215835
0.209608
0.210502
0.216041
0.224929
0.236393
0.249913
0.2651
0.281634
0.299226
0.317602
0.336488
0.35559
0.374601
0.393189
0.410995
0.427626
0.442706
0.455866
0.466784
0.475221
0.481068
0.48439
0.48547
0.484841
0.483316
0.482012
0.482375
0.486221
0.495809
0.513971
0.544311
0.59147
0.661399
0.761506
0.900528
1.08832
1.33722
1.67
2.1429
2.88445
4.104
1.24554
0.426644
0.283865
0.236165
0.217019
0.210529
0.211083
0.216183
0.224523
0.23532
0.248047
0.262302
0.277752
0.294094
0.31104
0.3283
0.345576
0.362556
0.378913
0.394304
0.408378
0.420802
0.431268
0.439529
0.445427
0.44893
0.450164
0.449443
0.447288
0.444449
0.441917
0.440946
0.443092
0.450288
0.464969
0.490266
0.530279
0.590389
0.677494
0.799988
0.967343
1.18995
1.48205
1.8744
2.44363
3.34485
1.26221
0.428698
0.284893
0.237088
0.217857
0.211179
0.211419
0.216075
0.22384
0.233928
0.245806
0.259069
0.273376
0.288416
0.303895
0.319519
0.334988
0.349998
0.364235
0.377381
0.389128
0.399188
0.407316
0.413329
0.417138
0.418766
0.418378
0.416294
0.413005
0.409181
0.405681
0.403568
0.404149
0.409039
0.420273
0.440483
0.473152
0.522926
0.595916
0.699815
0.843589
1.03671
1.28897
1.61467
2.04727
2.66732
1.26944
0.428535
0.284833
0.237296
0.218151
0.211371
0.211339
0.215567
0.222753
0.232116
0.243126
0.255375
0.268521
0.282255
0.296281
0.310306
0.32404
0.33719
0.349463
0.360573
0.370252
0.378259
0.384403
0.38856
0.39069
0.390858
0.389245
0.386165
0.382063
0.377523
0.373276
0.370206
0.369388
0.372139
0.380112
0.395445
0.420971
0.460502
0.519138
0.603493
0.721619
0.882348
1.09412
1.36462
1.7046
2.1409
1.2674
0.426066
0.283549
0.236639
0.217745
0.210951
0.210698
0.214524
0.221146
0.229792
0.239938
0.251183
0.263187
0.275646
0.288269
0.300773
0.312881
0.324316
0.334812
0.344115
0.351994
0.358255
0.362755
0.365412
0.366227
0.365287
0.362781
0.359001
0.354343
0.349308
0.344505
0.340659
0.338637
0.339488
0.34452
0.355408
0.374362
0.404349
0.449361
0.514672
0.606941
0.733903
0.903428
1.12205
1.39406
1.72379
1.25634
0.421272
0.280961
0.235012
0.216523
0.209801
0.209378
0.212838
0.218921
0.226874
0.236182
0.246453
0.257358
0.268601
0.279901
0.29099
0.301604
0.311492
0.320411
0.32814
0.334486
0.339293
0.342457
0.34393
0.34374
0.341989
0.338859
0.334617
0.329609
0.324257
0.319065
0.314617
0.311603
0.310844
0.313347
0.320384
0.333612
0.355228
0.388169
0.436329
0.504716
0.599404
0.727065
0.893907
1.10415
1.35885
1.23664
0.414202
0.277045
0.232357
0.21441
0.207836
0.207292
0.210423
0.216001
0.223294
0.231803
0.241149
0.251017
0.261121
0.271197
0.280991
0.290261
0.298776
0.306322
0.312707
0.31777
0.321389
0.32349
0.324053
0.32312
0.320798
0.317261
0.312746
0.30755
0.302028
0.296591
0.29171
0.287923
0.285864
0.286294
0.290153
0.298642
0.313318
0.336228
0.370054
0.418239
0.485031
0.575305
0.694036
0.845315
1.03116
1.2089
0.404981
0.271827
0.228661
0.211371
0.205009
0.204389
0.207226
0.212335
0.219007
0.226764
0.235245
0.244147
0.253202
0.262162
0.270791
0.278868
0.286186
0.292555
0.297811
0.30182
0.304489
0.305765
0.305648
0.304188
0.301493
0.29772
0.29308
0.287826
0.282254
0.2767
0.271538
0.26719
0.264138
0.262948
0.264303
0.26905
0.278256
0.293287
0.315887
0.348255
0.393078
0.453466
0.532708
0.633764
0.758578
1.17388
0.393803
0.265389
0.223958
0.207415
0.201315
0.200651
0.203227
0.2079
0.213993
0.22105
0.228727
0.236741
0.244841
0.252796
0.260392
0.267426
0.273713
0.279088
0.28341
0.286571
0.288495
0.28915
0.288545
0.286736
0.283824
0.279952
0.275304
0.270095
0.264572
0.259009
0.253704
0.248986
0.245223
0.242831
0.242301
0.244218
0.249299
0.258425
0.272684
0.293403
0.322157
0.360729
0.410987
0.474622
0.552828
1.13256
0.380924
0.257856
0.218324
0.202591
0.196782
0.1961
0.198438
0.202707
0.20826
0.214667
0.221605
0.228809
0.236046
0.243106
0.249792
0.255923
0.261334
0.265881
0.269445
0.271933
0.27329
0.273492
0.272558
0.270543
0.26754
0.263677
0.259113
0.254031
0.248638
0.243157
0.237828
0.232909
0.228679
0.225446
0.223561
0.223426
0.225514
0.230383
0.238694
0.251215
0.268819
0.292451
0.323052
0.361431
0.408126
1.08607
0.366656
0.249396
0.211871
0.19698
0.191478
0.190788
0.192905
0.196794
0.201844
0.207649
0.213908
0.220376
0.226839
0.233106
0.238998
0.244354
0.249027
0.252893
0.255847
0.257815
0.258751
0.258642
0.257507
0.2554
0.252405
0.248636
0.244228
0.239339
0.234141
0.228818
0.223565
0.218584
0.214091
0.210316
0.207508
0.205946
0.205941
0.207842
0.212044
0.218982
0.22912
0.242925
0.260826
0.283138
0.310022
1.03567
0.351348
0.240208
0.204742
0.190697
0.185497
0.1848
0.186704
0.190232
0.194808
0.200054
0.20569
0.21149
0.21726
0.222826
0.228028
0.232721
0.236778
0.240087
0.24256
0.244133
0.24477
0.244462
0.243229
0.241121
0.238212
0.234601
0.230406
0.225761
0.22081
0.215706
0.210608
0.20568
0.201088
0.197006
0.193616
0.191111
0.189697
0.189595
0.191037
0.194266
0.19952
0.207018
0.216929
0.229329
0.244322
0.982702
0.335375
0.230509
0.197101
0.183879
0.178961
0.178244
0.179936
0.183115
0.187243
0.191966
0.197027
0.202221
0.207369
0.212315
0.216917
0.221046
0.224587
0.227445
0.229542
0.230823
0.231257
0.23084
0.229589
0.227549
0.224785
0.221382
0.217443
0.21308
0.208416
0.203579
0.198701
0.193914
0.189351
0.185145
0.181431
0.178347
0.176031
0.174623
0.174263
0.175084
0.177204
0.180718
0.185675
0.192073
0.199883
0.928502
0.319113
0.220527
0.189124
0.176678
0.172007
0.171251
0.172724
0.17556
0.179258
0.183491
0.18802
0.192658
0.197246
0.201643
0.205721
0.209366
0.212476
0.214968
0.216773
0.217843
0.218151
0.217692
0.216484
0.214563
0.211987
0.208829
0.205176
0.201124
0.196777
0.192244
0.187634
0.183057
0.178619
0.174426
0.170581
0.167185
0.164333
0.162116
0.160621
0.15992
0.160071
0.161106
0.163022
0.165807
0.169336
0.874356
0.302926
0.210484
0.180992
0.169255
0.164787
0.163964
0.165205
0.167701
0.170984
0.17475
0.178782
0.18291
0.18699
0.190896
0.194513
0.19774
0.200489
0.202682
0.20426
0.205181
0.205419
0.20497
0.203847
0.202082
0.199724
0.196834
0.193487
0.189765
0.185756
0.181552
0.177246
0.172929
0.168688
0.16461
0.160775
0.157259
0.154132
0.151456
0.149284
0.147658
0.146606
0.146132
0.146221
0.146836
0.147861
0.821412
0.287141
0.200592
0.172879
0.16177
0.157452
0.156532
0.157526
0.15968
0.162557
0.165878
0.169444
0.173099
0.176714
0.180176
0.183384
0.186247
0.188686
0.190633
0.192034
0.19285
0.193059
0.192654
0.191645
0.19006
0.187937
0.185329
0.182299
0.178917
0.175258
0.1714
0.167422
0.1634
0.159409
0.155519
0.151795
0.148298
0.145079
0.142183
0.139648
0.137498
0.135746
0.134388
0.133404
0.132752
0.132341
0.770628
0.272036
0.191036
0.164948
0.154377
0.150154
0.149102
0.149833
0.151642
0.154123
0.157016
0.160139
0.163352
0.166539
0.169597
0.172437
0.174977
0.177148
0.178887
0.180146
0.18089
0.181096
0.180757
0.179879
0.178484
0.176604
0.174282
0.171572
0.168533
0.165228
0.161724
0.158088
0.154385
0.150679
0.147028
0.143487
0.140104
0.136922
0.133974
0.131288
0.128881
0.126758
0.124915
0.123334
0.121975
0.120774
0.722746
0.25783
0.181972
0.157339
0.147215
0.143032
0.141816
0.142269
0.14373
0.145821
0.148302
0.151005
0.153803
0.156591
0.159278
0.161782
0.164032
0.165965
0.167524
0.168667
0.169358
0.169577
0.169314
0.168574
0.167372
0.165733
0.163695
0.1613
0.158599
0.155645
0.152495
0.149207
0.145837
0.142437
0.13906
0.13575
0.132548
0.12949
0.126603
0.123909
0.121421
0.119144
0.117072
0.115194
0.113476
0.111874
0.678279
0.244678
0.173518
0.15017
0.140404
0.13621
0.134802
0.134964
0.136076
0.137784
0.139867
0.142171
0.144578
0.146993
0.149335
0.151531
0.153517
0.155235
0.156634
0.157675
0.158326
0.158565
0.158382
0.157778
0.156763
0.155358
0.153593
0.151502
0.149128
0.146516
0.143715
0.140773
0.137738
0.134657
0.131572
0.128524
0.125547
0.122671
0.119921
0.117314
0.114862
0.112571
0.110436
0.108449
0.106586
0.104815
0.637537
0.232674
0.16576
0.14353
0.13404
0.129791
0.128169
0.128031
0.128795
0.130131
0.131832
0.133755
0.135793
0.137859
0.13988
0.141791
0.143532
0.145052
0.146306
0.147256
0.147871
0.148131
0.148024
0.147548
0.146711
0.145526
0.144018
0.142215
0.140153
0.137868
0.135403