/*--------------------------------*- C++ -*----------------------------------*\
  =========                 |
  \\      /  F ield         | OpenFOAM: The Open Source CFD Toolbox
   \\    /   O peration     | Website:  https://openfoam.org
    \\  /    A nd           | Version:  9
     \\/     M anipulation  |
\*---------------------------------------------------------------------------*/
FoamFile
{
    format      ascii;
    class       volScalarField;
    location    "0.3";
    object      k;
}
// * * * * * * * * * * * * * * * * * * * * * * * * * * * * * * * * * * * * * //

dimensions      [0 2 -2 0 0 0 0];

internalField   nonuniform List<scalar> 
7700
(
0.00383059
0.00714966
0.0110384
0.0141792
0.0165746
0.0184783
0.0201093
0.0215894
0.0230032
0.0244098
0.0258503
0.0273515
0.0289303
0.0305956
0.03235
0.0341905
0.0361093
0.0380938
0.0401276
0.0421906
0.0442593
0.0463075
0.0483066
0.050226
0.0520336
0.0536963
0.0551806
0.0564528
0.0574796
0.0582277
0.0586609
0.0587346
0.0583844
0.0578413
0.0569998
0.0557903
0.0541672
0.0521082
0.049625
0.0467846
0.0437253
0.0405577
0.0371157
0.0344957
0.0312338
0.028804
0.00546574
0.0149321
0.0224057
0.0282818
0.0329257
0.0367155
0.039958
0.0428912
0.0456878
0.0484657
0.0513025
0.0542466
0.0573257
0.0605514
0.0639227
0.0674284
0.0710479
0.0747533
0.0785102
0.0822784
0.0860132
0.089666
0.0931855
0.0965185
0.0996117
0.102413
0.104873
0.106948
0.108605
0.109821
0.11059
0.110923
0.110827
0.110204
0.109261
0.108117
0.106956
0.106047
0.10575
0.106454
0.108289
0.110157
0.1084
0.100152
0.0763352
0.0485074
0.00687588
0.018975
0.0274669
0.0343448
0.0400183
0.0448188
0.0490369
0.0529127
0.0566288
0.0603143
0.0640555
0.0679063
0.0718963
0.0760361
0.0803218
0.0847375
0.0892575
0.0938478
0.0984676
0.10307
0.107603
0.112012
0.116237
0.120218
0.123895
0.127213
0.130119
0.132576
0.134557
0.136058
0.137104
0.137747
0.138068
0.138125
0.138094
0.138111
0.13831
0.138818
0.139795
0.141487
0.144139
0.147201
0.147757
0.142163
0.123936
0.0693219
0.00832316
0.0220072
0.031061
0.0383818
0.044608
0.0500605
0.0549902
0.0596059
0.0640712
0.0685048
0.0729876
0.0775695
0.0822769
0.0871177
0.0920848
0.0971599
0.102315
0.107513
0.112712
0.117862
0.122909
0.127796
0.13246
0.136839
0.140873
0.144504
0.147685
0.150384
0.152588
0.154314
0.155615
0.156586
0.157365
0.158118
0.159084
0.160447
0.162327
0.164732
0.167544
0.17059
0.173755
0.176804
0.178549
0.176693
0.162743
0.0915448
0.00953166
0.0245045
0.0339099
0.0414864
0.0480783
0.0540223
0.0595367
0.064794
0.0699285
0.0750387
0.0801915
0.0854277
0.0907674
0.0962142
0.101759
0.107381
0.113052
0.118735
0.124388
0.129962
0.135403
0.140651
0.145645
0.150323
0.154624
0.158494
0.161891
0.164791
0.167196
0.169142
0.170711
0.172036
0.173302
0.17474
0.176653
0.179274
0.18274
0.187013
0.191823
0.196712
0.201211
0.205068
0.208152
0.209325
0.198186
0.114281
0.0104845
0.0264031
0.0361131
0.0439465
0.0508773
0.0572637
0.0633067
0.0691505
0.0749025
0.0806392
0.0864112
0.0922477
0.0981614
0.104152
0.110206
0.116306
0.122422
0.128519
0.134557
0.140487
0.146257
0.151808
0.157081
0.162013
0.166546
0.170629
0.174226
0.177322
0.179932
0.182113
0.183972
0.185676
0.187449
0.189567
0.19238
0.196166
0.201093
0.207124
0.213948
0.220984
0.227555
0.233246
0.238167
0.241389
0.230918
0.134749
0.0112126
0.0277887
0.037769
0.0459047
0.0532082
0.0600429
0.0665986
0.0730001
0.0793332
0.0856553
0.0920016
0.0983906
0.104828
0.111309
0.117822
0.124346
0.130855
0.137318
0.143694
0.149939
0.156001
0.161825
0.167351
0.172519
0.177272
0.181563
0.185362
0.188661
0.19149
0.193925
0.196095
0.198194
0.200481
0.203265
0.20693
0.211794
0.218063
0.225738
0.234535
0.243866
0.252976
0.261267
0.268607
0.273509
0.262611
0.154438
0.0118129
0.0287997
0.0390183
0.0474934
0.0552072
0.0625085
0.0695752
0.0765167
0.0834018
0.0902721
0.0971503
0.104046
0.11096
0.117885
0.124809
0.131714
0.138576
0.145366
0.152048
0.15858
0.164914
0.170994
0.176763
0.182162
0.187136
0.191641
0.195651
0.199168
0.202232
0.204934
0.207426
0.209925
0.212718
0.216142
0.220594
0.22644
0.233927
0.243111
0.253775
0.265403
0.277258
0.28862
0.298977
0.306002
0.295613
0.176086
0.0123337
0.0295616
0.0400046
0.0488426
0.0569886
0.064766
0.0723389
0.0798021
0.0872101
0.0945916
0.10196
0.109317
0.116662
0.123986
0.131279
0.138526
0.145707
0.152795
0.159759
0.16656
0.173151
0.17948
0.185491
0.191125
0.196329
0.201061
0.205296
0.209045
0.212356
0.215335
0.21815
0.221039
0.224311
0.228328
0.233484
0.240197
0.248752
0.259263
0.271601
0.285357
0.299882
0.314438
0.328269
0.338536
0.332365
0.202126
0.0128109
0.0301765
0.0408524
0.0500666
0.0586494
0.066898
0.0749615
0.082921
0.0908179
0.0986704
0.106484
0.114258
0.121989
0.12967
0.137293
0.144847
0.152316
0.159678
0.166905
0.173961
0.180804
0.187381
0.193638
0.199517
0.204964
0.209936
0.214414
0.218408
0.221976
0.225233
0.228362
0.231617
0.235322
0.239855
0.245618
0.253059
0.262493
0.274091
0.287805
0.303332
0.320133
0.337526
0.354757
0.369505
0.373945
0.235412
0.0105794
0.0161109
0.0166096
0.0168999
0.0170749
0.0171984
0.0181842
0.0189352
0.0195244
0.0198118
0.019852
0.0196951
0.019385
0.0189616
0.0184613
0.01792
0.0173852
0.0169537
0.0168206
0.0171737
0.0167938
0.0170666
0.0170127
0.0170795
0.0166869
0.0168184
0.0168099
0.0168722
0.0167741
0.0169015
0.0168223
0.0167748
0.0167879
0.0165622
0.0166628
0.0166826
0.016236
0.0143083
0.0110338
0.00788784
0.0110911
0.0226866
0.0277803
0.0313011
0.0340325
0.0362663
0.0380026
0.0392685
0.0400815
0.0404816
0.0405253
0.0402683
0.0397662
0.0390744
0.0382468
0.0373363
0.0363947
0.0354724
0.0346009
0.0337859
0.0329705
0.0323128
0.0316626
0.0310596
0.0304965
0.0299625
0.0294574
0.028942
0.028394
0.0278684
0.0272336
0.0265068
0.0256413
0.0246307
0.0235154
0.0221419
0.0203827
0.017626
0.013434
0.00863165
0.0150228
0.0307911
0.0384151
0.0432198
0.0464776
0.0487457
0.0503083
0.0513563
0.0519491
0.0521236
0.051933
0.0514332
0.0506807
0.0497326
0.0486451
0.0474729
0.046268
0.0450757
0.043926
0.0428417
0.0418334
0.0409244
0.0400925
0.0393286
0.0386189
0.037946
0.0372913
0.0366183
0.0359089
0.0351369
0.0342731
0.033277
0.0321125
0.0307249
0.0290754
0.0270487
0.0245034
0.0210942
0.0161232
0.00859383
0.0194335
0.0395942
0.0489987
0.054544
0.0578595
0.0598057
0.0609139
0.0614981
0.061641
0.0613931
0.0608133
0.0599582
0.058882
0.0576379
0.056278
0.0548524
0.0534087
0.0519885
0.0506237
0.0493413
0.0481567
0.0470771
0.046096
0.0451979
0.0443703
0.0435894
0.0428291
0.0420582
0.0412478
0.0403612
0.0393705
0.0382323
0.0368991
0.0353118
0.0333991
0.0310561
0.0281216
0.0242926
0.018825
0.00861119
0.0245956
0.0498521
0.0608941
0.0668444
0.0698756
0.0712137
0.0716116
0.0714937
0.0709533
0.0700756
0.0689332
0.0675847
0.0660795
0.0644629
0.062778
0.061066
0.0593661
0.0577136
0.056138
0.0546632
0.0533036
0.0520642
0.0509396
0.0499138
0.048974
0.048093
0.0472407
0.0463846
0.0454905
0.0445194
0.0434373
0.0421988
0.0407508
0.0390298
0.0369555
0.0344171
0.0312424
0.0271106
0.0211885
0.00972065
0.0312559
0.0626926
0.0751552
0.0810936
0.0834174
0.0837922
0.0831731
0.0820738
0.0805859
0.0788461
0.0769459
0.0749453
0.0728861
0.0708015
0.0687208
0.0666716
0.0646808
0.0627738
0.0609729
0.0592962
0.0577549
0.0563519
0.0550809
0.0539256
0.0528718
0.0518902
0.050948
0.05001
0.0490387
0.047993
0.0468341
0.0455139
0.0439765
0.0421548
0.0399635
0.0372847
0.0339334
0.0295588
0.0232304
0.0107236
0.0405637
0.0795391
0.0926499
0.0978823
0.0989463
0.0979481
0.095986
0.0936001
0.0908857
0.0880408
0.0851761
0.0823522
0.0796017
0.0769417
0.0743832
0.071936
0.0696103
0.0674175
0.0653692
0.063475
0.0617407
0.0601654
0.0587408
0.0574506
0.0562784
0.0551925
0.0541581
0.0531374
0.0520903
0.0509735
0.0497444
0.0483523
0.046739
0.0448343
0.0425489
0.0397575
0.0362618
0.0316797
0.0249892
0.01158
0.054106
0.102008
0.113835
0.117256
0.11644
0.113701
0.110151
0.106186
0.101999
0.0978277
0.0938007
0.0899827
0.0863985
0.0830491
0.0799244
0.0770121
0.0743017
0.0717869
0.0694648
0.0673341
0.0653926
0.0636343
0.0620472
0.0606156
0.0593188
0.0581234
0.0569925
0.0558863
0.0547624
0.0535752
0.0522786
0.0508197
0.049138
0.0471607
0.0447941
0.041906
0.038285
0.0335198
0.0265071
0.0123143
0.0737673
0.131077
0.138318
0.138459
0.13528
0.130627
0.1254
0.119699
0.113901
0.108251
0.102902
0.0979362
0.0933815
0.0892282
0.0854457
0.0819974
0.0788491
0.0759729
0.0733483
0.07096
0.0687956
0.0668421
0.0650833
0.0635034
0.062075
0.0607639
0.0595315
0.0583361
0.0571328
0.0558742
0.0545109
0.0529878
0.0512423
0.0491985
0.0467586
0.043784
0.0400507
0.0351215
0.0278223
0.0129498
0.102644
0.167229
0.164458
0.159949
0.154363
0.147974
0.141143
0.133813
0.126426
0.119252
0.112487
0.106256
0.100611
0.0955453
0.0910144
0.0869583
0.0833169
0.0800382
0.0770805
0.0744122
0.0720083
0.0698469
0.0679087
0.0661719
0.0646048
0.0631716
0.0618323
0.0605432
0.0592575
0.0579256
0.0564953
0.0549092
0.0531022
0.0509957
0.0484879
0.0454339
0.0415984
0.0365212
0.0289676
0.0135044
0.0132726
0.0307276
0.0416647
0.0512638
0.0602773
0.0689815
0.077512
0.0859368
0.0942854
0.102567
0.110783
0.11893
0.127005
0.135005
0.142923
0.150754
0.158487
0.166104
0.173581
0.180886
0.187978
0.194808
0.201321
0.20746
0.213169
0.218403
0.223141
0.227395
0.231228
0.234762
0.23819
0.241777
0.245858
0.250822
0.257077
0.265082
0.275179
0.287573
0.302276
0.319058
0.337446
0.356777
0.376224
0.39395
0.403178
0.285377
0.0137459
0.0312866
0.0425281
0.0525161
0.0619446
0.0710781
0.0800418
0.0888916
0.0976473
0.106312
0.114883
0.123358
0.131735
0.140014
0.148195
0.156275
0.164249
0.172104
0.179821
0.18737
0.194714
0.201805
0.208589
0.215005
0.220997
0.226516
0.231535
0.236065
0.240168
0.243971
0.247674
0.251549
0.255937
0.261231
0.267838
0.276218
0.28672
0.299568
0.314797
0.3322
0.351296
0.371315
0.391121
0.408542
0.414714
0.338839
0.0142484
0.0319093
0.0435026
0.0538744
0.0636897
0.0732131
0.0825628
0.0917853
0.100893
0.109886
0.11876
0.127513
0.136147
0.144665
0.153074
0.161374
0.169566
0.177642
0.185587
0.193376
0.200972
0.208331
0.215398
0.222111
0.228408
0.234234
0.239554
0.244372
0.248748
0.252807
0.256752
0.260861
0.265475
0.270984
0.277793
0.286337
0.296971
0.309914
0.325195
0.342591
0.361563
0.381183
0.399966
0.41526
0.418981
0.37538
0.0148004
0.0326474
0.0446374
0.0553776
0.0655412
0.0754044
0.0850827
0.0946172
0.104016
0.113277
0.122397
0.131376
0.140221
0.148939
0.15754
0.166032
0.17442
0.1827
0.190862
0.198883
0.206732
0.214365
0.221726
0.228753
0.235376
0.241532
0.247174
0.252293
0.256942
0.261242
0.265396
0.26968
0.274434
0.280043
0.286906
0.295401
0.3059
0.3186
0.333506
0.350364
0.368581
0.387128
0.404362
0.417558
0.420637
0.395198
0.0154228
0.033546
0.0459671
0.057047
0.0675089
0.0776512
0.0875922
0.0973709
0.106994
0.116461
0.125769
0.134924
0.143934
0.152812
0.161573
0.170229
0.17879
0.187256
0.195622
0.203868
0.211966
0.219873
0.227536
0.234891
0.241861
0.248371
0.254356
0.259792
0.264715
0.269243
0.273574
0.277981
0.282797
0.288396
0.295157
0.303431
0.313565
0.325735
0.339921
0.355846
0.372897
0.390031
0.405637
0.417223
0.420402
0.405279
0.0161364
0.0346427
0.0475083
0.0588827
0.0695802
0.0799314
0.0900624
0.100014
0.109794
0.119404
0.128845
0.138125
0.147258
0.156259
0.165149
0.173943
0.182655
0.19129
0.199845
0.208305
0.216644
0.224822
0.232789
0.24048
0.247814
0.2547
0.261053
0.266823
0.27203
0.276781
0.281268
0.28576
0.290581
0.296086
0.302633
0.310543
0.320136
0.331561
0.344783
0.359519
0.375172
0.390754
0.404789
0.415141
0.418604
0.409636
0.0169579
0.0359621
0.0492539
0.0608579
0.0717163
0.0821996
0.0924447
0.102497
0.112369
0.122063
0.131586
0.140949
0.150166
0.159259
0.16825
0.17716
0.186003
0.19479
0.203519
0.212179
0.220746
0.229185
0.23745
0.245478
0.253187
0.26047
0.267215
0.273344
0.278852
0.283834
0.288478
0.293046
0.297849
0.303222
0.309494
0.316962
0.325903
0.336458
0.348582
0.362003
0.37617
0.390191
0.402769
0.412125
0.415872
0.410685
0.0178919
0.037505
0.0511626
0.062913
0.0738504
0.0843869
0.094673
0.10476
0.114664
0.124393
0.133955
0.143364
0.152637
0.161797
0.170868
0.179875
0.188834
0.197758
0.206647
0.215491
0.22427
0.232952
0.241498
0.249853
0.257939
0.265635
0.2728
0.279317
0.285158
0.290404
0.295237
0.299913
0.304729
0.309991
0.315998
0.323022
0.331286
0.340943
0.351944
0.364044
0.376757
0.3893
0.40056
0.409072
0.413015
0.410211
0.0189192
0.0392289
0.0531494
0.0649537
0.0758896
0.0864076
0.0966707
0.106737
0.116627
0.126351
0.135921
0.14535
0.154659
0.16387
0.173009
0.182102
0.191167
0.200217
0.209253
0.218267
0.22724
0.236144
0.244945
0.253605
0.262057
0.270174
0.27778
0.284724
0.290948
0.296522
0.301622
0.306496
0.311419
0.316667
0.322499
0.329152
0.336818
0.345652
0.355611
0.36649
0.377873
0.389084
0.399168
0.406918
0.41091
0.409588
0.0199864
0.0410264
0.0550822
0.066857
0.0777272
0.0881718
0.0983647
0.10837
0.118213
0.127908
0.137467
0.146905
0.156241
0.165497
0.174701
0.183877
0.193046
0.202219
0.211396
0.220571
0.229724
0.238827
0.247855
0.256786
0.265576
0.274101
0.282163
0.289574
0.296254
0.30226
0.307763
0.312995
0.3182
0.323614
0.329449
0.335902
0.343135
0.351305
0.360392
0.370235
0.380481
0.390539
0.399574
0.406582
0.410424
0.409913
0.0210023
0.0427162
0.0567952
0.0684932
0.0792653
0.0896076
0.0997045
0.109628
0.119408
0.129063
0.138605
0.148051
0.157418
0.166725
0.176
0.185269
0.194549
0.203849
0.21317
0.222505
0.231834
0.241125
0.250356
0.259521
0.268604
0.2775
0.286007
0.293922
0.301154
0.307748
0.313859
0.319684
0.325422
0.331259
0.337358
0.343862
0.350897
0.358611
0.367047
0.376093
0.385441
0.394543
0.402638
0.408875
0.412325
0.412059
0.0218525
0.0440593
0.0581276
0.0697656
0.0804491
0.0906881
0.100684
0.110521
0.120237
0.129853
0.139386
0.148849
0.15826
0.167634
0.176998
0.186377
0.195784
0.205227
0.214705
0.22421
0.233722
0.243208
0.252639
0.262012
0.271327
0.280519
0.289427
0.297877
0.305782
0.313175
0.32017
0.326898
0.333485
0.340072
0.346775
0.353647
0.360755
0.368225
0.376227
0.3847
0.393345
0.40164
0.408908
0.414348
0.417162
0.416642
0.0224503
0.0448082
0.0589848
0.0706601
0.0812981
0.0914482
0.101348
0.111104
0.120763
0.130352
0.139888
0.149385
0.15886
0.168325
0.177804
0.187317
0.196876
0.206482
0.216133
0.225824
0.235537
0.24524
0.254902
0.264501
0.274011
0.283405
0.292641
0.301648
0.310376
0.318836
0.327071
0.335078
0.342877
0.3506
0.358362
0.365979
0.373434
0.380871
0.388641
0.396741
0.404838
0.412417
0.418846
0.423263
0.425133
0.423955
0.0228632
0.0447817
0.0594136
0.0712897
0.0819239
0.091988
0.101792
0.111472
0.121086
0.130661
0.140216
0.149763
0.159323
0.168905
0.17853
0.188209
0.197948
0.207745
0.217598
0.227503
0.237451
0.247427
0.25741
0.26733
0.277058
0.286572
0.296067
0.305674
0.315396
0.325223
0.335119
0.344793
0.354143
0.363412
0.372886
0.381681
0.389775
0.397318
0.404968
0.412906
0.420688
0.427785
0.433298
0.436163
0.436575
0.434147
0.023575
0.0440635
0.0597172
0.0719556
0.082553
0.092494
0.102195
0.111812
0.121403
0.130989
0.140586
0.150206
0.159872
0.169608
0.179421
0.189309
0.199269
0.209301
0.219406
0.229583
0.239842
0.250182
0.260602
0.270964
0.280961
0.29052
0.300236
0.310516
0.321381
0.332832
0.344866
0.356497
0.367561
0.378646
0.389341
0.398749
0.407061
0.414879
0.422822
0.431353
0.440015
0.447966
0.453096
0.453588
0.452073
0.447658
0.0257854
0.0435682
0.0607207
0.0732252
0.0835638
0.0932783
0.102861
0.112444
0.122053
0.131695
0.141378
0.151107
0.160916
0.170853
0.180908
0.191057
0.201291
0.211611
0.222027
0.232554
0.243264
0.254079
0.264953
0.27568
0.285818
0.295419
0.305419
0.316436
0.328472
0.341637
0.35528
0.367689
0.378691
0.38936
0.398842
0.408303
0.41718
0.425834
0.434358
0.443166
0.452172
0.460884
0.468093
0.471407
0.470957
0.464466
0.0304977
0.0466581
0.0640392
0.0759173
0.0853738
0.0946126
0.104019
0.113591
0.123278
0.133045
0.142885
0.152788
0.162796
0.172982
0.183316
0.19375
0.204263
0.214854
0.225523
0.236254
0.247046
0.257836
0.268468
0.278872
0.289143
0.299509
0.310209
0.32154
0.333391
0.346137
0.358189
0.369441
0.379248
0.388331
0.397755
0.407906
0.41806
0.427828
0.437142
0.446628
0.456459
0.465838
0.473746
0.479573
0.482531
0.480429
0.0349762
0.054439
0.0702047
0.080455
0.0879667
0.0963127
0.105264
0.114585
0.124151
0.133892
0.143778
0.153792
0.163943
0.174254
0.184716
0.195288
0.205929
0.216611
0.227312
0.237972
0.248401
0.258644
0.268771
0.278983
0.289476
0.300239
0.311147
0.322145
0.333087
0.344038
0.354935
0.36535
0.374719
0.383394
0.39241
0.402364
0.412976
0.423776
0.434469
0.445199
0.456172
0.467025
0.476759
0.484122
0.487912
0.488295
0.0381803
0.0634537
0.0776438
0.0840112
0.0902803
0.0979641
0.10648
0.115468
0.124772
0.134316
0.144062
0.153986
0.164065
0.174279
0.18462
0.195061
0.205559
0.216081
0.226588
0.237048
0.247436
0.257764
0.268089
0.278567
0.289294
0.300162
0.310936
0.321466
0.331676
0.341584
0.351267
0.360561
0.369225
0.377477
0.38602
0.395488
0.406038
0.417453
0.429388
0.441599
0.453955
0.466147
0.477408
0.486441
0.492074
0.494039
0.0366541
0.0634912
0.0782822
0.085224
0.0919827
0.0996937
0.108091
0.116913
0.126038
0.135407
0.144991
0.154766
0.164701
0.17477
0.184964
0.195262
0.205632
0.216035
0.226432
0.2368
0.247131
0.257461
0.267868
0.27846
0.289253
0.300089
0.310722
0.320972
0.330756
0.340039
0.348831
0.357108
0.364895
0.372469
0.380389
0.38929
0.399582
0.411308
0.424186
0.437784
0.451584
0.465058
0.47746
0.487701
0.494722
0.498097
0.0326536
0.058728
0.0750869
0.0846307
0.0928849
0.101207
0.109796
0.118624
0.127666
0.136913
0.146357
0.155987
0.165777
0.175707
0.185765
0.195937
0.206199
0.216522
0.226879
0.237252
0.24764
0.258068
0.26859
0.279264
0.290064
0.300841
0.311376
0.321471
0.330983
0.33981
0.347903
0.3553
0.362179
0.368916
0.376088
0.384362
0.394295
0.40613
0.419701
0.434499
0.449766
0.464638
0.478177
0.489315
0.4971
0.501129
0.0297757
0.0552348
0.072139
0.0838305
0.0936236
0.102782
0.111764
0.120742
0.129806
0.139004
0.148363
0.157891
0.167578
0.17741
0.187376
0.197467
0.207667
0.217956
0.228317
0.238741
0.249225
0.25978
0.270423
0.281162
0.291948
0.302646
0.313061
0.322977
0.3322
0.34057
0.348009
0.354588
0.360569
0.366421
0.372781
0.380379
0.389869
0.401636
0.415643
0.431405
0.44806
0.464465
0.479403
0.491652
0.500217
0.504724
0.0288588
0.0535484
0.0707453
0.0837639
0.0947191
0.10465
0.114083
0.123304
0.13248
0.141714
0.151062
0.160554
0.170195
0.17998
0.189905
0.19996
0.210136
0.220421
0.230804
0.241277
0.251836
0.262473
0.273179
0.283924
0.294635
0.305179
0.315368
0.324977
0.333779
0.341588
0.348326
0.354086
0.359184
0.364153
0.369689
0.376575
0.385531
0.397043
0.411193
0.427589
0.445379
0.463348
0.480017
0.493965
0.504037
0.509721
0.029216
0.0533671
0.0708137
0.0846122
0.096322
0.106835
0.116676
0.126168
0.13552
0.14486
0.15427
0.163791
0.173444
0.183231
0.193152
0.203202
0.213375
0.223662
0.234055
0.244545
0.255119
0.265757
0.276425
0.287065
0.297584
0.30784
0.31764
0.326756
0.334957
0.342061
0.348004
0.352912
0.357137
0.361245
0.36597
0.372117
0.380441
0.391486
0.405436
0.422029
0.440546
0.459874
0.478591
0.495067
0.507937
0.516289
0.0303938
0.0543169
0.0720028
0.08622
0.0983487
0.109234
0.119386
0.129129
0.138677
0.148168
0.15769
0.167293
0.177003
0.186828
0.196771
0.206829
0.216997
0.227269
0.237636
0.248083
0.258589
0.26912
0.279622
0.290016
0.300189
0.309985
0.31921
0.32764
0.335061
0.341314
0.346371
0.350388
0.353745
0.357022
0.360957
0.366348
0.373942
0.384303
0.397684
0.413963
0.432648
0.452942
0.47379
0.493791
0.511213
0.524433
0.0320751
0.0560734
0.0739699
0.0883421
0.100633
0.111706
0.122056
0.131995
0.141726
0.151379
0.161036
0.170747
0.180536
0.190415
0.200385
0.210446
0.220591
0.230812
0.241096
0.251424
0.261763
0.272066
0.282263
0.292255
0.301914
0.311077
0.319549
0.327124
0.333614
0.338903
0.343004
0.346108
0.348611
0.351093
0.354268
0.358898
0.365689
0.375181
0.387655
0.40311
0.421325
0.442009
0.464846
0.489176
0.513204
0.534054
0.0339987
0.0583323
0.076398
0.090741
0.103016
0.114129
0.124574
0.134641
0.144513
0.154306
0.16409
0.173905
0.183771
0.193696
0.203681
0.213719
0.223803
0.233922
0.244056
0.254178
0.264245
0.274197
0.283949
0.29339
0.30238
0.310754
0.318327
0.324917
0.330375
0.334631
0.337743
0.339937
0.341618
0.343352
0.345814
0.349707
0.355669
0.364186
0.375524
0.389755
0.406915
0.427314
0.451724
0.480801
0.513373
0.544853
0.0359705
0.0608516
0.0790325
0.0932315
0.105377
0.116432
0.126883
0.137007
0.146964
0.156853
0.166728
0.176617
0.186532
0.196474
0.206437
0.216411
0.226384
0.236338
0.246246
0.256072
0.265763
0.275247
0.284429
0.293187
0.301379
0.308844
0.315415
0.320941
0.325316
0.328518
0.330652
0.331971
0.332884
0.333937
0.335753
0.338968
0.344145
0.351697
0.361845
0.37468
0.390424
0.409974
0.435399
0.469296
0.511823
0.556903
0.0378656
0.0634607
0.0816982
0.0956937
0.107652
0.118584
0.128976
0.139091
0.149071
0.158997
0.168909
0.178822
0.188737
0.198646
0.208537
0.218392
0.228191
0.23791
0.247513
0.256956
0.266175
0.275088
0.283593
0.291565
0.298865
0.305343
0.310857
0.31529
0.318581
0.320757
0.321961
0.32247
0.322694
0.323151
0.324413
0.327052
0.331557
0.338277
0.347382
0.358945
0.373291
0.391779
0.417791
0.456342
0.509763
0.571081
0.039613
0.066045
0.0842894
0.0980636
0.109815
0.12059
0.130877
0.140925
0.150866
0.160766
0.170651
0.180525
0.190378
0.200193
0.209948
0.219618
0.229176
0.238587
0.247809
0.256787
0.265449
0.273707
0.281455
0.28857
0.294922
0.300379
0.304825
0.308184
0.310436
0.311652
0.312009
0.311801
0.311434
0.311395
0.312215
0.314406
0.318407
0.324523
0.332898
0.343581
0.356925
0.374567
0.400931
0.443487
0.507477
0.586217
0.0411767
0.0685239
0.0867474
0.100314
0.111864
0.122469
0.132619
0.142556
0.152401
0.162212
0.172003
0.18177
0.191492
0.201145
0.210697
0.220114
0.229361
0.238394
0.247163
0.255606
0.263644
0.271184
0.278122
0.284342
0.289728
0.294169
0.29758
0.299922
0.301217
0.30157
0.301188
0.300375
0.299527
0.299105
0.299597
0.30148
0.305165
0.310947
0.31897
0.329287
0.34223
0.359493
0.385872
0.43051
0.501966
0.595261
0.0425422
0.0708389
0.0890395
0.102432
0.113804
0.124242
0.134235
0.144025
0.153727
0.16339
0.173026
0.182619
0.192143
0.201565
0.210846
0.219944
0.228813
0.237405
0.24566
0.253511
0.260876
0.26766
0.273762
0.279081
0.283519
0.286984
0.289425
0.290839
0.291286
0.290902
0.289907
0.288608
0.287387
0.286677
0.28694
0.288632
0.292164
0.297854
0.305893
0.316367
0.329559
0.346879
0.372737
0.416468
0.489639
0.591128
0.0437095
0.0729461
0.0911445
0.104411
0.115635
0.125915
0.135744
0.14536
0.15488
0.164348
0.173772
0.183132
0.192396
0.201524
0.210472
0.21919
0.227625
0.23572
0.243412
0.250631
0.257297
0.263308
0.268575
0.273012
0.276542
0.279104
0.280677
0.281286
0.281019
0.280029
0.278547
0.276873
0.275371
0.274453
0.274559
0.276137
0.279611
0.285347
0.293602
0.304521
0.318329
0.336084
0.361394
0.402584
0.471601
0.573619
0.0446899
0.0748113
0.0930425
0.106233
0.117344
0.127482
0.137144
0.146571
0.155879
0.165114
0.17428
0.183356
0.192307
0.201087
0.209649
0.21794
0.225895
0.233452
0.240547
0.247107
0.253049
0.25829
0.262753
0.266365
0.269069
0.27083
0.271653
0.271588
0.270738
0.269271
0.267416
0.265463
0.263757
0.262687
0.262675
0.264164
0.267597
0.273389
0.281876
0.293274
0.307756
0.325962
0.350398
0.387739
0.449688
0.546082
0.0455074
0.0764068
0.0947113
0.107873
0.118902
0.128915
0.138414
0.147643
0.15672
0.165694
0.174569
0.183322
0.191918
0.200307
0.208438
0.216253
0.223689
0.230681
0.237162
0.243061
0.248301
0.252811
0.256526
0.259388
0.261361
0.262432
0.262627
0.262012
0.260704
0.258874
0.256744
0.25459
0.252735
0.251543
0.251417
0.25279
0.256119
0.261861
0.270428
0.282119
0.2971
0.315648
0.339093
0.371851
0.42357
0.506608
0.0461403
0.0776875
0.0961206
0.109293
0.120267
0.130171
0.139513
0.148541
0.157376
0.166069
0.174627
0.183029
0.191238
0.199206
0.206879
0.214197
0.221099
0.227519
0.233392
0.23865
0.243225
0.247058
0.250093
0.252291
0.253632
0.254124
0.253806
0.252757
0.251101
0.249004
0.246679
0.244381
0.24241
0.241103
0.240838
0.242032
0.24514
0.250644
0.259015
0.270643
0.285752
0.304427
0.327071
0.355766
0.396556
0.460363
0.0465339
0.0786689
0.0972365
0.110439
0.121378
0.131189
0.140384
0.149213
0.157803
0.166207
0.174436
0.182471
0.190278
0.19781
0.205014
0.21183
0.218199
0.224058
0.229345
0.233997
0.237956
0.241173
0.243605
0.245228
0.246037
0.246054
0.245329
0.24395
0.242037
0.239752
0.237293
0.234893
0.232824
0.231394
0.230951
0.231884
0.234632
0.239675
0.247517
0.258623
0.27332
0.291701
0.313706
0.339746
0.37222
0.41749
0.0466958
0.0793331
0.0980228
0.111263
0.12218
0.131911
0.140968
0.149606
0.157954
0.16607
0.173967
0.181634
0.189036
0.196131
0.202868
0.209191
0.215043
0.220364
0.225098
0.22919
0.232591
0.23526
0.237169
0.238305
0.238676
0.238313
0.237275
0.235651
0.233558
0.231148
0.2286
0.226126
0.223968
0.222403
0.221741
0.222339
0.2246
0.228978
0.235972
0.246083
0.259735
0.277147
0.298225
0.32268
0.350648
0.384064
0.0466318
0.0796615
0.0984465
0.111722
0.122622
0.132281
0.14121
0.149666
0.15778
0.165614
0.173188
0.180491
0.187497
0.194166
0.200451
0.2063
0.21166
0.216479
0.220704
0.224289
0.227193
0.229385
0.230849
0.231581
0.231599
0.230941
0.22967
0.227872
0.225661
0.223173
0.220572
0.218044
0.215803
0.214092
0.213185
0.213394
0.215078
0.218643
0.224549
0.233282
0.245307
0.260965
0.28033
0.303115
0.328741
0.356846
0.0463476
0.0796406
0.0984818
0.11178
0.122662
0.132254
0.141063
0.149345
0.157235
0.1648
0.172061
0.179015
0.185641
0.191902
0.197758
0.203162
0.208066
0.212423
0.216188
0.219322
0.221793
0.22358
0.224672
0.225077
0.224818
0.223938
0.2225
0.220587
0.218305
0.215778
0.213149
0.210584
0.208267
0.206409
0.205244
0.205042
0.206109
0.208792
0.213486
0.22062
0.230632
0.243904
0.260658
0.280827
0.30396
0.329279
0.0458511
0.0792646
0.0981123
0.111412
0.122269
0.131793
0.140486
0.148603
0.15628
0.163588
0.170553
0.177177
0.183443
0.189323
0.194779
0.199772
0.20426
0.208201
0.211559
0.2143
0.216401
0.217847
0.218637
0.218784
0.218314
0.217273
0.215723
0.213743
0.211428
0.208891
0.206257
0.203669
0.201287
0.199289
0.197875
0.197269
0.197726
0.199531
0.203005
0.208498
0.216374
0.226975
0.240558
0.257202
0.276706
0.298532
0.0451532
0.0785359
0.0973328
0.110606
0.121422
0.130873
0.139451
0.147409
0.154885
0.16195
0.168636
0.174951
0.180883
0.18641
0.1915
0.19612
0.200233
0.203807
0.206809
0.209214
0.211004
0.212172
0.212722
0.21267
0.212046
0.210897
0.209281
0.207271
0.204955
0.202431
0.19981
0.197215
0.194783
0.192663
0.191021
0.190043
0.189935
0.190924
0.193261
0.197214
0.203059
0.211058
0.221421
0.234248
0.249459
0.266737
0.0442689
0.0774665
0.0961497
0.109362
0.120118
0.129485
0.137945
0.145747
0.153029
0.159865
0.166291
0.172319
0.177943
0.183146
0.187904
0.19219
0.195973
0.199226
0.201922
0.204045
0.20558
0.206526
0.20689
0.206692
0.205964
0.20475
0.203105
0.201097
0.198804
0.196313
0.193723
0.191137
0.188671
0.186452
0.184616
0.183313
0.182709
0.182982
0.18432
0.186921
0.190981
0.19668
0.204155
0.21347
0.224564
0.237219
0.0432171
0.0760773
0.0945812
0.107694
0.118364
0.127632
0.135967
0.143614
0.150708
0.157326
0.163507
0.169269
0.174611
0.179521
0.183982
0.187971
0.191465
0.194442
0.196881
0.19877
0.2001
0.200874
0.201101
0.200803
0.200011
0.198768
0.197125
0.195144
0.192896
0.190457
0.187912
0.185351
0.182872
0.18058
0.178589
0.177018
0.175999
0.175668
0.176167
0.177637
0.180212
0.184007
0.189097
0.195502
0.203151
0.211869
0.0420206
0.0743984
0.0926567
0.105627
0.116184
0.125333
0.133533
0.141019
0.147929
0.154338
0.160289
0.165805
0.170888
0.175533
0.179729
0.183457
0.186701
0.189442
0.191668
0.193367
0.194537
0.195181
0.195313
0.194953
0.194132
0.19289
0.191276
0.189345
0.187159
0.184786
0.182301
0.179782
0.177311
0.174975
0.172868
0.171087
0.169735
0.168916
0.168735
0.169293
0.17068
0.172963
0.17618
0.180318
0.185302
0.190984
0.040706
0.0724681
0.0904163
0.103202
0.113612
0.122621
0.13067
0.13799
0.144714
0.15092
0.156653
0.161938
0.166784
0.17119
0.175149
0.178648
0.181676
0.18422
0.186269
0.187818
0.188866
0.189418
0.189489
0.1891
0.188279
0.187065
0.185501
0.183637
0.181529
0.179237
0.176827
0.174364
0.171921
0.169569
0.167387
0.165451
0.163843
0.162644
0.16193
0.161774
0.162235
0.163354
0.165142
0.167575
0.170578
0.174061
0.0393025
0.0703312
0.0879084
0.100465
0.110696
0.11954
0.127421
0.134565
0.1411
0.147105
0.152628
0.157696
0.162322
0.166511
0.170258
0.173557
0.176399
0.178777
0.180683
0.182114
0.183071
0.183563
0.183603
0.183211
0.182415
0.181249
0.179753
0.177971
0.175955
0.173757
0.171434
0.169044
0.166648
0.164308
0.162086
0.160047
0.158254
0.15677
0.155652
0.154952
0.15471
0.154949
0.155669
0.156844
0.158411
0.160295
0.0378413
0.0680379
0.0851888
0.0974746
0.107493
0.116145
0.12384
0.130794
0.137134
0.142939
0.148257
0.153118
0.157539
0.161527
0.165083
0.168205
0.170888
0.173125
0.174915
0.176255
0.17715
0.177606
0.177638
0.177265
0.176513
0.175412
0.173999
0.172314
0.170401
0.168309
0.166085
0.163782
0.161452
0.159147
0.15692
0.154823
0.152908
0.151222
0.14981
0.148709
0.147946
0.147534
0.147471
0.147727
0.148265
0.149002
0.0363535
0.0656415
0.0823179
0.0942937
0.104066
0.1125
0.119989
0.12674
0.132877
0.138479
0.143594
0.148255
0.152481
0.156283
0.159665
0.162629
0.165171
0.16729
0.168985
0.170257
0.171109
0.17155
0.171593
0.171256
0.170563
0.169541
0.168222
0.166644
0.164845
0.162868
0.160755
0.158553
0.156306
0.154059
0.151857
0.149743
0.147758
0.145942
0.144327
0.142943
0.141807
0.140929
0.140302
0.139905
0.139707
0.139638
0.034869
0.0631955
0.0793585
0.0909897
0.100486
0.108677
0.115939
0.122472
0.128397
0.133791
0.138703
0.143168
0.147206
0.150833
0.154054
0.156873
0.159291
0.161309
0.162926
0.164145
0.164971
0.165411
0.165479
0.165191
0.164568
0.163634
0.16242
0.160957
0.15928
0.157426
0.155435
0.153346
0.151197
0.149029
0.146878
0.144782
0.142775
0.140888
0.139148
0.137576
0.136188
0.134987
0.13397
0.133121
0.13241
0.131788
0.0334149
0.0607523
0.076373
0.0876309
0.0968247
0.104749
0.111765
0.118066
0.123769
0.128949
0.133656
0.137927
0.141783
0.14524
0.148309
0.150995
0.1533
0.155228
0.156779
0.157958
0.158768
0.159219
0.159322
0.159091
0.158545
0.157707
0.156603
0.155262
0.153713
0.151991
0.15013
0.148164
0.146128
0.144056
0.14198
0.139933
0.137943
0.136036
0.134234
0.132554
0.131008
0.1296
0.128327
0.127177
0.126128
0.12514
0.032014
0.0583598