/*--------------------------------*- C++ -*----------------------------------*\
  =========                 |
  \\      /  F ield         | OpenFOAM: The Open Source CFD Toolbox
   \\    /   O peration     | Website:  https://openfoam.org
    \\  /    A nd           | Version:  9
     \\/     M anipulation  |
\*---------------------------------------------------------------------------*/
FoamFile
{
    format      ascii;
    class       volScalarField;
    location    "0.3";
    object      p_rgh;
}
// * * * * * * * * * * * * * * * * * * * * * * * * * * * * * * * * * * * * * //

dimensions      [1 -1 -2 0 0 0 0];

internalField   nonuniform List<scalar> 
7700
(
1488.93
1490.75
1496.79
1505.4
1513.99
1521.78
1528.6
1534.66
1540.24
1545.58
1550.8
1555.98
1561.18
1566.38
1571.59
1576.76
1581.89
1586.93
1591.86
1596.67
1601.35
1605.95
1610.51
1615.12
1619.95
1625.21
1631.19
1638.29
1647.05
1658.13
1672.46
1691.19
1716.12
1748.06
1788.32
1837.88
1897.15
1964.98
2037.68
2108.99
2171.06
2217.48
2242.26
2249.04
2270.44
2315.04
1486.88
1487.03
1493.06
1500.2
1507.71
1514.84
1521.36
1527.34
1532.94
1538.29
1543.49
1548.59
1553.63
1558.61
1563.53
1568.38
1573.14
1577.78
1582.31
1586.73
1591.05
1595.32
1599.61
1604.05
1608.8
1614.1
1620.27
1627.72
1637.01
1648.81
1663.97
1683.45
1708.19
1740.51
1781.33
1832.01
1893.22
1964.28
2042.2
2120.52
2189.36
2238.44
2259.91
2251.23
2245.89
2304.88
1484.35
1486.26
1490.59
1496.21
1502.32
1508.38
1514.18
1519.68
1524.92
1529.96
1534.83
1539.55
1544.15
1548.63
1552.99
1557.22
1561.32
1565.29
1569.15
1572.91
1576.62
1580.36
1584.21
1588.33
1592.91
1598.21
1604.57
1612.44
1622.35
1635.01
1651.22
1671.93
1698.17
1731.55
1773.24
1824.39
1885.54
1956.18
2033.9
2113.36
2185.73
2240.27
2268.06
2269.03
2264.61
2323.56
1480.99
1484.1
1488.08
1492.76
1497.82
1502.94
1507.95
1512.83
1517.55
1522.1
1526.49
1530.7
1534.75
1538.62
1542.31
1545.84
1549.21
1552.43
1555.54
1558.57
1561.61
1564.72
1568.04
1571.73
1576.01
1581.16
1587.53
1595.57
1605.84
1619
1635.84
1657.27
1684.26
1717.99
1759.67
1810.26
1870.11
1938.66
2013.77
2091.19
2164.2
2224.46
2264.44
2284.13
2302.79
2371.43
1476.54
1480.55
1484.53
1488.68
1493.05
1497.47
1501.87
1506.21
1510.44
1514.53
1518.45
1522.16
1525.67
1528.96
1532.03
1534.9
1537.57
1540.09
1542.49
1544.84
1547.21
1549.7
1552.46
1555.66
1559.54
1564.37
1570.53
1578.45
1588.68
1601.87
1618.76
1640.2
1667.07
1700.37
1741.13
1790.15
1847.66
1913.15
1984.92
2059.8
2133.03
2198.63
2250.83
2290.81
2340.83
2433.63
1471
1475.61
1479.64
1483.43
1487.3
1491.24
1495.19
1499.11
1502.95
1506.65
1510.15
1513.42
1516.44
1519.2
1521.71
1523.98
1526.03
1527.91
1529.67
1531.38
1533.12
1535.02
1537.21
1539.89
1543.29
1547.69
1553.44
1561
1570.87
1583.66
1600.09
1620.93
1646.97
1679.09
1718.12
1764.74
1819.1
1880.78
1948.53
2020.16
2092.49
2161.5
2223.21
2280.78
2361.78
2482.49
1464.39
1469.37
1473.38
1476.86
1480.38
1483.96
1487.58
1491.19
1494.72
1498.09
1501.24
1504.12
1506.71
1509
1511
1512.72
1514.22
1515.52
1516.69
1517.8
1518.96
1520.29
1521.93
1524.07
1526.93
1530.8
1536.03
1543.01
1552.25
1564.31
1579.85
1599.58
1624.2
1654.46
1691.05
1734.53
1785.01
1842.13
1904.98
1972.04
2041.26
2110.14
2176.57
2245.96
2351.88
2497.31
1456.7
1461.87
1465.77
1468.99
1472.23
1475.55
1478.93
1482.3
1485.59
1488.68
1491.52
1494.05
1496.25
1498.12
1499.66
1500.91
1501.89
1502.66
1503.3
1503.87
1504.49
1505.27
1506.36
1507.95
1510.24
1513.51
1518.08
1524.33
1532.71
1543.76
1558.06
1576.25
1598.96
1626.79
1660.34
1700.02
1745.92
1797.7
1854.59
1915.44
1978.73
2042.78
2106.75
2177.64
2296.87
2452.45
1447.95
1453.16
1456.87
1459.86
1462.88
1466.01
1469.2
1472.39
1475.45
1478.31
1480.87
1483.09
1484.95
1486.44
1487.57
1488.37
1488.9
1489.19
1489.33
1489.4
1489.51
1489.77
1490.33
1491.35
1493.05
1495.66
1499.48
1504.86
1512.2
1521.99
1534.76
1551.07
1571.46
1596.42
1626.4
1661.75
1702.45
1748.1
1797.94
1850.76
1905
1958.74
2010.75
2066.65
2178.3
2299.54
1438.19
1443.3
1446.76
1449.54
1452.4
1455.37
1458.41
1461.43
1464.31
1466.94
1469.25
1471.19
1472.74
1473.88
1474.64
1475.04
1475.15
1475.01
1474.69
1474.29
1473.91
1473.67
1473.7
1474.16
1475.23
1477.14
1480.14
1484.53
1490.69
1499.04
1510.04
1524.19
1541.93
1563.66
1589.71
1620.29
1655.28
1694.16
1735.95
1779.12
1821.38
1859.38
1889.08
1908.83
1972.07
1949.23
2.20701
2.19999
2.19411
2.18845
2.1833
2.17884
2.1761
2.17519
2.17581
2.17767
2.18024
2.1831
2.1859
2.18836
2.19031
2.19166
2.19236
2.19244
2.19194
2.19091
2.18942
2.1875
2.18532
2.1829
2.18034
2.17777
2.17522
2.17273
2.17047
2.16838
2.16647
2.16481
2.16346
2.16246
2.1617
2.16115
2.16083
2.16071
2.16068
2.16054
2.20882
2.20331
2.1987
2.19236
2.18534
2.1794
2.17554
2.17378
2.17392
2.1753
2.17751
2.18016
2.18289
2.1854
2.18749
2.18902
2.18993
2.19024
2.18998
2.18922
2.18799
2.18634
2.18436
2.18216
2.17984
2.17741
2.17495
2.17256
2.17028
2.16826
2.16655
2.16508
2.16383
2.1628
2.16203
2.16147
2.16107
2.1608
2.1606
2.16036
2.21123
2.20446
2.19905
2.19259
2.18528
2.17886
2.17436
2.17197
2.17143
2.17229
2.17414
2.17659
2.17926
2.18185
2.18412
2.18589
2.18708
2.18767
2.18772
2.18726
2.18633
2.18497
2.18325
2.18126
2.1791
2.17686
2.17457
2.1723
2.17013
2.16817
2.16648
2.16505
2.16385
2.16287
2.16211
2.16151
2.16104
2.16067
2.1604
2.16024
2.21398
2.20485
2.19757
2.19043
2.18299
2.1765
2.17183
2.16922
2.16844
2.16911
2.17083
2.17322
2.17594
2.17867
2.18113
2.18315
2.1846
2.18544
2.18573
2.18551
2.18484
2.18373
2.18223
2.18041
2.17841
2.17631
2.17416
2.17199
2.16988
2.16793
2.16624
2.16484
2.1637
2.16277
2.16201
2.16136
2.1608
2.16034
2.16003
2.15997
2.21563
2.20397
2.19418
2.1862
2.17863
2.17229
2.16785
2.16545
2.16488
2.16576
2.16767
2.17023
2.17312
2.17604
2.17874
2.18101
2.18271
2.18376
2.18421
2.18415
2.18364
2.18273
2.1814
2.17973
2.17784
2.17585
2.17378
2.17167
2.16956
2.16759
2.16588
2.16449
2.1634
2.16251
2.16174
2.16104
2.16039
2.15984
2.15951
2.15954
2.21463
2.20056
2.18805
2.17954
2.1721
2.1662
2.16232
2.16053
2.16058
2.16203
2.16445
2.16742
2.17064
2.17384
2.17681
2.17935
2.18131
2.18257
2.18315
2.18316
2.18275
2.18195
2.18077
2.17921
2.17739
2.17543
2.1734
2.17131
2.1692
2.1672
2.16546
2.16407
2.16299
2.16212
2.16132
2.16055
2.1598
2.15919
2.15888
2.159
2.20839
2.19296
2.17793
2.16983
2.16307
2.15803
2.15511
2.15431
2.15534
2.15773
2.16097
2.16463
2.16836
2.17196
2.17524
2.17807
2.18031
2.18179
2.18251
2.18257
2.18217
2.18142
2.18032
2.17882
2.177
2.17503
2.173
2.17091
2.1688
2.16677
2.165
2.16358
2.1625
2.1616
2.16076
2.15989
2.15905
2.15837
2.15809
2.15828
2.19122
2.17861
2.16197
2.15611
2.15102
2.14746
2.14598
2.14661
2.14902
2.15271
2.15711
2.16174
2.16622
2.17035
2.17401
2.17715
2.17965
2.18138
2.18226
2.18237
2.18194
2.18116
2.18004
2.17853
2.17667
2.17464
2.17257
2.17048
2.16837
2.16632
2.16451
2.16304
2.1619
2.16095
2.16003
2.15906
2.15811
2.15737
2.15712
2.15738
2.14644
2.15273
2.138
2.13742
2.13542
2.13414
2.13468
2.13724
2.14149
2.14687
2.15279
2.15868
2.16416
2.169
2.17314
2.17659
2.17935
2.18131
2.18237
2.18254
2.18205
2.18116
2.17994
2.17835
2.17639
2.17426
2.17212
2.17001
2.16791
2.16585
2.16397
2.16242
2.16119
2.16015
2.15912
2.15803
2.15698
2.1562
2.15598
2.1563
2.0384
2.10461
2.10584
2.11372
2.11604
2.11779
2.12098
2.12604
2.13265
2.14018
2.14798
2.15546
2.16218
2.16792
2.17265
2.17645
2.17942
2.18157
2.18279
2.18303
2.18247
2.1814
2.18002
2.17827
2.17618
2.17391
2.17167
2.16953
2.16741
2.16532
2.16337
2.1617
2.16034
2.15917
2.15802
2.15682
2.15567
2.15485
2.15466
2.15503
1427.38
1432.28
1435.45
1438.05
1440.77
1443.61
1446.5
1449.36
1452.05
1454.48
1456.55
1458.23
1459.48
1460.31
1460.73
1460.77
1460.48
1459.93
1459.19
1458.35
1457.5
1456.77
1456.27
1456.16
1456.59
1457.75
1459.87
1463.19
1468.03
1474.77
1483.8
1495.55
1510.39
1528.61
1550.4
1575.87
1604.77
1636.38
1669.43
1701.82
1730.16
1748.83
1748.83
1713.51
1642.43
1223.8
1415.52
1420.12
1422.99
1425.41
1427.99
1430.69
1433.44
1436.13
1438.64
1440.85
1442.71
1444.14
1445.12
1445.66
1445.76
1445.46
1444.81
1443.88
1442.73
1441.46
1440.16
1438.94
1437.92
1437.23
1437
1437.39
1438.57
1440.74
1444.17
1449.15
1456.05
1465.2
1476.93
1491.41
1508.74
1528.89
1551.48
1575.62
1599.74
1621.25
1635.91
1636.6
1611.34
1536.35
1393.15
1070.23
1402.74
1406.96
1409.51
1411.75
1414.17
1416.72
1419.31
1421.82
1424.14
1426.15
1427.79
1428.99
1429.73
1429.99
1429.8
1429.18
1428.19
1426.89
1425.35
1423.66
1421.91
1420.21
1418.66
1417.39
1416.5
1416.11
1416.33
1417.32
1419.26
1422.41
1427.05
1433.48
1441.95
1452.6
1465.4
1480.19
1496.54
1513.41
1529.04
1540.66
1543.84
1531.62
1493.54
1412.9
1279.07
1102.81
1389.14
1392.91
1395.14
1397.17
1399.4
1401.76
1404.16
1406.48
1408.6
1410.42
1411.85
1412.83
1413.34
1413.35
1412.88
1411.96
1410.64
1408.98
1407.05
1404.94
1402.74
1400.55
1398.48
1396.62
1395.08
1393.92
1393.2
1392.99
1393.41
1394.65
1396.96
1400.6
1405.77
1412.56
1420.87
1430.46
1440.84
1450.93
1458.95
1462.22
1456.66
1436.41
1393.78
1319.36
1205.69
1075.39
1374.85
1378.1
1380
1381.76
1383.74
1385.87
1388.06
1390.17
1392.1
1393.72
1394.94
1395.72
1396
1395.77
1395.04
1393.82
1392.17
1390.15
1387.83
1385.29
1382.63
1379.94
1377.33
1374.89
1372.72
1370.82
1369.2
1367.83
1366.74
1366.07
1366.02
1366.82
1368.69
1371.69
1375.67
1380.35
1385.21
1389.23
1390.76
1387.36
1375.6
1350.77
1307.28
1239.37
1141.62
1027.1
1359.98
1362.68
1364.21
1365.62
1367.29
1369.14
1371.08
1372.98
1374.7
1376.12
1377.16
1377.73
1377.8
1377.33
1376.33
1374.82
1372.83
1370.44
1367.71
1364.72
1361.57
1358.36
1355.19
1352.18
1349.4
1346.85
1344.42
1341.97
1339.42
1336.85
1334.44
1332.45
1331.07
1330.41
1330.31
1330.48
1330.42
1329.23
1325.46
1317.1
1301.38
1274.7
1232.99
1172.73
1091.58
998.062
1344.71
1346.78
1347.89
1348.85
1350.13
1351.67
1353.34
1355
1356.51
1357.73
1358.57
1358.95
1358.8
1358.09
1356.82
1354.99
1352.67
1349.88
1346.71
1343.24
1339.56
1335.78
1332.02
1328.43
1325.1
1322.02
1318.94
1315.56
1311.67
1307.26
1302.54
1297.79
1293.29
1289.16
1285.31
1281.46
1277.18
1271.71
1263.88
1252.16
1234.47
1208.19
1170.46
1119.28
1054.41
982.083
1329.17
1330.53
1331.14
1331.55
1332.4
1333.58
1334.95
1336.34
1337.62
1338.64
1339.28
1339.45
1339.08
1338.12
1336.56
1334.41
1331.71
1328.5
1324.85
1320.85
1316.58
1312.18
1307.77
1303.57
1299.76
1296.32
1292.85
1288.79
1283.74
1277.61
1270.64
1263.23
1255.77
1248.45
1241.24
1233.93
1226.21
1217.41
1206.7
1193.06
1175.1
1150.98
1118.68
1077.02
1026.43
971.215
1313.56
1314.05
1314.1
1313.91
1314.26
1315.03
1316.04
1317.14
1318.16
1318.94
1319.36
1319.31
1318.7
1317.47
1315.6
1313.1
1309.99
1306.32
1302.15
1297.55
1292.64
1287.52
1282.38
1277.5
1273.28
1269.76
1266.3
1261.94
1255.99
1248.31
1239.19
1229.24
1219.03
1208.86
1198.7
1188.55
1178.18
1166.98
1154.42
1140.11
1123.35
1102.8
1076.81
1044.63
1006.58
965.407
1298.04
1297.6
1297.01
1296.18
1295.94
1296.21
1296.79
1297.52
1298.23
1298.75
1298.92
1298.63
1297.77
1296.25
1294.03
1291.14
1287.59
1283.41
1278.67
1273.43
1267.8
1261.88
1255.85
1250.16
1245.55
1242.34
1239.47
1235.37
1228.91
1219.87
1208.67
1196.23
1183.4
1170.6
1157.75
1145.22
1132.96
1120.03
1106.33
1092.35
1078.2
1062.81
1044.08
1021.52
995.025
966.091
1282.92
1281.66
1280.31
1278.74
1277.78
1277.39
1277.43
1277.71
1278.04
1278.23
1278.12
1277.57
1276.44
1274.58
1271.98
1268.66
1264.63
1259.91
1254.53
1248.57
1242.13
1235.22
1227.95
1220.92
1215.74
1213.42
1212.18
1209.26
1202.8
1192.45
1178.9
1163.72
1148.3
1133.11
1117.7
1103.18
1089.88
1075.69
1060.74
1047.11
1036.38
1027.69
1017.69
1006
991.284
973.784
1268.87
1267
1264.7
1262.12
1260.07
1258.72
1257.96
1257.61
1257.44
1257.25
1256.8
1255.95
1254.53
1252.27
1249.18
1245.32
1240.69
1235.26
1229.02
1222.06
1214.48
1206.1
1196.64
1186.97
1180.67
1180.58
1183.2
1183.28
1177.63
1165.97
1149.64
1131.94
1115.46
1100.5
1085.69
1071.87
1056.93
1048.14
1032.27
1017.08
1005.39
998.065
994.337
993.914
992.377
987.352
1256.38
1254.64
1250.87
1246.23
1242.21
1239.26
1237.3
1236.02
1235.15
1234.39
1233.49
1232.23
1230.46
1227.59
1223.78
1219.14
1213.66
1207.24
1199.81
1191.55
1182.68
1172.79
1160.93
1148.11
1140.92
1145.11
1154.56
1160.17
1156.99
1145.38
1128.19
1086.48
1005.41
913.105
789.765
682.424
691.036
676.561
681.183
732.823
851.256
1019.48
1002.45
995.495
998.007
1003.75
1246.09
1246.08
1236.68
1226.68
1220.16
1216.15
1213.76
1212.17
1210.96
1209.83
1208.47
1206.78
1204.73
1201.17
1196.63
1191.46
1185.69
1179.08
1171.54
1163.43
1154.92
1138.72
1101.08
1001.92
876.203
880.839
951.325
1030.2
1024.39
939.963
710.778
428.92
212.41
93.5474
-3.27931
-3.26061
-3.36063
-0.256815
8.59938
29.897
88.0812
231.831
505.436
919.593
1046.39
1035.44
1227.18
1137.11
929.357
796.392
769.797
788.825
832.712
882.605
931.473
974.985
1009.59
1032.44
1056.28
1052.97
1042.05
1021.5
991.912
947.355
882.221
795.139
696.895
576.867
409.982
213.238
96.1845
106.77
176.918
250.181
227.305
105.066
-2.71143
-2.6972
-2.78616
-3.24074
-3.16293
-3.08994
-3.07308
-3.15789
-3.47631
-3.91194
-4.08363
-3.71553
2.08792
86.5716
364.995
944.496
572.642
315.421
104.226
35.8002
27.5128
35.8113
55.2381
81.39
112.553
146.748
179.865
206.276
237.681
235.685
224.269
202.355
172.818
133.651
88.6784
43.9612
5.31981
-2.05423
-2.04323
-2.19083
-2.28965
-2.22156
-2.12356
-2.12707
-2.22728
-2.75201
-2.72763
-2.69177
-2.76013
-2.93543
-3.08918
-3.13719
-3.18083
-3.25185
-3.36261
-3.50582
-3.62754
-3.72465
-3.82717
-3.7398
-2.65579
96.4912
-1.69473
-1.03249
-1.17556
-1.20801
-1.19032
-1.19022
-1.21242
-1.25179
-1.30078
-1.3529
-1.40747
-1.45612
-1.50038
-1.55344
-1.60849
-1.65677
-1.70363
-1.75597
-1.82027
-1.88937
-1.85613
-1.80157
-1.80417
-1.86917
-1.95275
-2.02268
-2.09531
-2.18945
-2.31509
-2.51392
-2.66988
-2.73958
-2.83415
-2.96413
-3.0965
-3.18408
-3.26814
-3.36962
-3.4927
-3.62798
-3.74987
-3.84077
-3.88826
-3.95549
-3.83145
-3.11007
-1.26187
-1.20845
-1.23228
-1.21651
-1.19186
-1.174
-1.16583
-1.16745
-1.17774
-1.19501
-1.21784
-1.24423
-1.27377
-1.30753
-1.34492
-1.38584
-1.43261
-1.48841
-1.55748
-1.64616
-1.75222
-1.83294
-1.88571
-1.95354
-2.0314
-2.10666
-2.18552
-2.27945
-2.39561
-2.53526
-2.67179
-2.77293
-2.87967
-3.00125
-3.11836
-3.2198
-3.32101
-3.43455
-3.56522
-3.70654
-3.84408
-3.96752
-4.06998
-4.15703
-4.22887
-4.14619
-1.25786
-1.23548
-1.2212
-1.21141
-1.20145
-1.19533
-1.19639
-1.20537
-1.22165
-1.24404
-1.27127
-1.30225
-1.33656
-1.37433
-1.41565
-1.461
-1.51173
-1.56968
-1.63621
-1.7123
-1.79595
-1.87077
-1.93675
-2.00845
-2.08513
-2.16158
-2.2426
-2.33599
-2.44569
-2.57045
-2.69129
-2.8005
-2.91166
-3.02947
-3.14499
-3.25435
-3.36432
-3.48175
-3.60999
-3.74621
-3.8839
-4.01976
-4.15379
-4.28817
-4.41504
-4.50646
-1.24159
-1.22822
-1.21888
-1.21145
-1.20743
-1.20739
-1.21371
-1.22718
-1.24728
-1.27301
-1.30327
-1.33716
-1.37429
-1.41475
-1.45861
-1.50623
-1.5585
-1.6165
-1.68069
-1.75011
-1.82214
-1.89238
-1.9624
-2.03675
-2.11495
-2.19581
-2.28191
-2.3773
-2.48378
-2.59983
-2.71572
-2.82781
-2.9409
-3.05703
-3.17282
-3.28666
-3.40164
-3.52169
-3.64888
-3.78242
-3.91966
-4.05898
-4.2008
-4.34668
-4.49601
-4.64213
-1.24123
-1.23041
-1.22252
-1.2167
-1.21513
-1.21804
-1.22681
-1.24205
-1.26345
-1.29021
-1.32147
-1.35645
-1.39479
-1.43644
-1.48146
-1.53017
-1.5832
-1.64121
-1.70437
-1.77205
-1.84247
-1.91392
-1.98681
-2.06291
-2.14287
-2.2267
-2.31588
-2.41232
-2.51662
-2.62754
-2.74047
-2.85305
-2.96648
-3.08166
-3.19746
-3.31338
-3.43113
-3.55312
-3.68098
-3.81483
-3.95384
-4.09718
-4.24428
-4.395
-4.54947
-4.70798
-1.25174
-1.23797
-1.23058
-1.22602
-1.22609
-1.23113
-1.2418
-1.25848
-1.28093
-1.30851
-1.34052
-1.37631
-1.41555
-1.45812
-1.50406
-1.55362
-1.60724
-1.66532
-1.72794
-1.79467
-1.86461
-1.93674
-2.0111
-2.08852
-2.16959
-2.25477
-2.34508
-2.44148
-2.54402
-2.6516
-2.76191
-2.87336
-2.98603
-3.10022
-3.21558
-3.33223
-3.45137
-3.5747
-3.70367
-3.83895
-3.98066
-4.12867
-4.28222
-4.43985
-4.60003
-4.76244
-1.2619
-1.24828
-1.24148
-1.23816
-1.23967
-1.24641
-1.25869
-1.27665
-1.30007
-1.32841
-1.36107
-1.39753
-1.43746
-1.48074
-1.52739
-1.57757
-1.63156
-1.68963
-1.75179
-1.81774
-1.88692
-1.95886
-2.03351
-2.11128
-2.19252
-2.27813
-2.36851
-2.46409
-2.56478
-2.66968
-2.77739
-2.88689
-2.99798
-3.11075
-3.22527
-3.34187
-3.46153
-3.58567
-3.71576
-3.85289
-3.99778
-4.15072
-4.3111
-4.47692
-4.64515
-4.81315
-1.27161
-1.2597
-1.25407
-1.25213
-1.25494
-1.26304
-1.27656
-1.29552
-1.31967
-1.34854
-1.38163
-1.4185
-1.45885
-1.50256
-1.54962
-1.60013
-1.65427
-1.71218
-1.77384
-1.83901
-1.90736
-1.9786
-2.05276
-2.13006
-2.21096
-2.29612
-2.38578
-2.48011
-2.57866
-2.68075
-2.78556
-2.89249
-3.00141
-3.11241
-3.22566
-3.34158
-3.4611
-3.5856
-3.71668
-3.85586
-4.00433
-4.16266
-4.33033
-4.50517
-4.68324
-4.85904
-1.28089
-1.27164
-1.26756
-1.26702
-1.27104
-1.28023
-1.29468
-1.31433
-1.33892
-1.36807
-1.40136
-1.4384
-1.47891
-1.52275
-1.56992
-1.62047
-1.67452
-1.73211
-1.79316
-1.85748
-1.92483
-1.99506
-2.06824
-2.14465
-2.22457
-2.30863
-2.39693
-2.48916
-2.58505
-2.68407
-2.78571
-2.88971
-2.9961
-3.10498
-3.21653
-3.33121
-3.44999
-3.57443
-3.7064
-3.84775
-4.00009
-4.16436
-4.34014
-4.52523
-4.71511
-4.90224
-1.28983
-1.28377
-1.28123
-1.28201
-1.28714
-1.29721
-1.31234
-1.33242
-1.35724
-1.38647
-1.41975
-1.45673
-1.49716
-1.54088
-1.58788
-1.63821
-1.69191
-1.74896
-1.80925
-1.87257
-1.93874
-2.00769
-2.07955
-2.15459
-2.23316
-2.31549
-2.40159
-2.49123
-2.58402
-2.67959
-2.77777
-2.87858
-2.98215
-3.08859
-3.19801
-3.31092
-3.42847
-3.55249
-3.68521
-3.82882
-3.98528
-4.156
-4.34095
-4.53796
-4.74193
-4.94347
-1.29853
-1.2956
-1.2944
-1.29639
-1.3025
-1.31329
-1.3289
-1.34922
-1.37409
-1.40323
-1.43633
-1.47307
-1.5132
-1.55657
-1.60316
-1.65299
-1.70608
-1.76235
-1.82165
-1.88379
-1.9486
-2.01608
-2.08636
-2.15972
-2.23639
-2.31652
-2.39997
-2.48647
-2.57569
-2.66749
-2.76196
-2.85934
-2.95984
-3.06348
-3.17036
-3.28104
-3.39694
-3.52027
-3.65357
-3.79935
-3.95998
-4.13755
-4.33275
-4.5434
-4.76345
-4.98135
-1.30671
-1.30647
-1.30641
-1.30949
-1.31646
-1.32783
-1.34377
-1.36422
-1.38902
-1.41795
-1.45071
-1.48702
-1.52665
-1.56945
-1.61538
-1.66446
-1.71667
-1.7719
-1.83
-1.89076
-1.95406
-2.0199
-2.08842
-2.15983
-2.23428
-2.31177
-2.39211
-2.47503
-2.56032
-2.64808
-2.73863
-2.83237
-2.92948
-3.02994
-3.13382
-3.24188
-3.35584
-3.4782
-3.61177
-3.7593
-3.92371
-4.10798
-4.31374
-4.53893
-4.77132
-5.01123
-1.31374
-1.31569
-1.31659
-1.32065
-1.32838
-1.34023
-1.35641
-1.3769
-1.40156
-1.43018
-1.46248
-1.4982
-1.53713
-1.57916
-1.62422
-1.6723
-1.72336
-1.7773
-1.83397
-1.89318
-1.95482
-2.0189
-2.08551
-2.15475
-2.22666
-2.30116
-2.37802
-2.45702
-2.53817
-2.62174
-2.70823
-2.79808
-2.89142
-2.98822
-3.08868
-3.19379
-3.30553
-3.42655
-3.55973
-3.7081
-3.87519
-4.0649
-4.27969
-4.51766
-4.76573
-4.99682
-1.3189
-1.32255
-1.32429
-1.32927
-1.33766
-1.34993
-1.36631
-1.3868
-1.41127
-1.43951
-1.47124
-1.50624
-1.54433
-1.58539
-1.62935
-1.67619
-1.72586
-1.77826
-1.83328
-1.89077
-1.95064
-2.01285
-2.0774
-2.14428
-2.21339
-2.28458
-2.35766
-2.43258
-2.50949
-2.58883
-2.67114
-2.7568
-2.84593
-2.93859
-3.03524
-3.13711
-3.24628
-3.36529
-3.49693
-3.64455
-3.81238
-4.00503
-4.2253
-4.47067
-4.72972
-4.87699
-1.3215
-1.32642
-1.32899
-1.33482
-1.34385
-1.35652
-1.37308
-1.39354
-1.41778
-1.44558
-1.47669
-1.51088
-1.54799
-1.5879
-1.63054
-1.67589
-1.7239
-1.77453
-1.82769
-1.8833
-1.94128
-2.00155
-2.06393
-2.12825
-2.1943
-2.26192
-2.33106
-2.40181
-2.47451
-2.54961
-2.62757
-2.70871
-2.79318
-2.88128
-2.97378
-3.07209
-3.17812
-3.29409
-3.42267
-3.56746
-3.73316
-3.92482
-4.14533
-4.39133
-4.64968
-4.80605
-1.32103
-1.3268
-1.33028
-1.33695
-1.34662
-1.35971
-1.37645
-1.39685
-1.42082
-1.44813
-1.47855
-1.51186
-1.54787
-1.58647
-1.62758
-1.67117
-1.71727
-1.76586
-1.81697
-1.87055
-1.92656
-1.98479
-2.04488
-2.10645
-2.16923
-2.23313
-2.29825
-2.36488
-2.43341
-2.50424
-2.57768
-2.65397
-2.73341
-2.81662
-2.90461
-2.9988
-3.1008
-3.21243
-3.3362
-3.47577
-3.63596
-3.82183
-4.03625
-4.27491
-4.5217
-4.70064
-1.31726
-1.32346
-1.32796
-1.33548
-1.34584
-1.35936
-1.37625
-1.39654
-1.42016
-1.44692
-1.47659
-1.50894
-1.54376
-1.58089
-1.62027
-1.66189
-1.70584
-1.75221
-1.80107
-1.85248
-1.90635
-1.96233
-2.0199
-2.07854
-2.13795
-2.19812
-2.2593
-2.32188
-2.38628
-2.45278
-2.52157
-2.59286
-2.66712
-2.74517
-2.82815
-2.91734
-3.01406
-3.11982
-3.23694
-3.36897
-3.52048
-3.696
-3.89787
-4.12253
-4.35335
-4.55542
-1.31019
-1.31638
-1.322
-1.33045
-1.34151
-1.35544
-1.37242
-1.39252
-1.41569
-1.44178
-1.47058
-1.50185
-1.53534
-1.5709
-1.60844
-1.648
-1.68971
-1.73375
-1.78026
-1.8293
-1.88073
-1.9341
-1.98879
-2.04427
-2.10027
-2.15684
-2.21427
-2.27297
-2.33328
-2.39539
-2.45947
-2.52577
-2.59483
-2.66753
-2.74494
-2.82814
-2.91824
-3.01662
-3.12542
-3.24775
-3.38746
-3.54845
-3.7333
-3.93931
-4.15111
-4.33171
-1.2997
-1.30562
-1.31257
-1.32198
-1.33373
-1.34801
-1.365
-1.3848
-1.40738
-1.43265
-1.46042
-1.49044
-1.52247
-1.55635
-1.59202
-1.62954
-1.66906
-1.71079
-1.75489
-1.80138
-1.85005
-1.90042
-1.9519
-2.00402
-2.05659
-2.10968
-2.16353
-2.21845
-2.2747
-2.3324
-2.39175
-2.45308
-2.51695
-2.58415
-2.65554
-2.73201
-2.8145
-2.90426
-3.00304
-3.11343
-3.23862
-3.38197
-3.54639
-3.73145
-3.92631
-4.10165
-1.28558
-1.29153
-1.29976
-1.31018
-1.32255
-1.3371
-1.35402
-1.37343
-1.39534
-1.41966
-1.44624
-1.47486
-1.50532
-1.53745
-1.57124
-1.60674
-1.64413
-1.68357
-1.72521
-1.769
-1.81471
-1.86186
-1.90996
-1.95864
-2.00775
-2.05736
-2.10765
-2.15882
-2.211
-2.26429
-2.31892
-2.37525
-2.43383
-2.49527
-2.56021
-2.62935
-2.70351
-2.78366
-2.87111
-2.96771
-3.07599
-3.19891
-3.33954
-3.49921
-3.67334
-3.84648
-1.26798
-1.27447
-1.28378
-1.29509
-1.308
-1.32273
-1.33952
-1.3585
-1.37967
-1.403
-1.42832
-1.45548
-1.48429
-1.51463
-1.5465
-1.57997
-1.61519
-1.6523
-1.6914
-1.7324
-1.77505
-1.81893
-1.86363
-1.90885
-1.95448
-2.00058
-2.04725
-2.09461
-2.1427
-2.1916
-2.2415
-2.29278
-2.3459
-2.4013
-2.4594
-2.52072
-2.58588
-2.6556
-2.7307
-2.81234
-2.90213
-3.00235
-3.11572
-3.2439
-3.3859
-3.53594
-1.24736
-1.25448
-1.26474
-1.27683
-1.29018
-1.30503
-1.32163
-1.34012
-1.36054
-1.38283
-1.4069
-1.43258
-1.45973
-1.48827
-1.51819
-1.54957
-1.58254
-1.61724
-1.65372
-1.69186
-1.73143
-1.77206
-1.81338
-1.85517
-1.89732
-1.93986
-1.98288
-2.0264
-2.07039
-2.1149
-2.16009
-2.20626
-2.25377
-2.30291
-2.35394
-2.40714
-2.46291
-2.52165
-2.58377
-2.64983
-2.72054
-2.79707
-2.88103
-2.97357
-3.07448
-3.18107
-1.22407
-1.23177
-1.24287
-1.25562
-1.26931
-1.28419
-1.30053
-1.31848
-1.33811
-1.35936
-1.38216
-1.40637
-1.43188
-1.45861
-1.48657
-1.51583
-1.54652
-1.57875
-1.61255
-1.64782
-1.68432
-1.72173
-1.75973
-1.79811
-1.83679
-1.87578
-1.91512
-1.95479
-1.99471
-2.03485
-2.07533
-2.11635
-2.15816
-2.20094
-2.24478
-2.2898
-2.33609
-2.38373
-2.43279
-2.4833
-2.53526
-2.58869
-2.64369
-2.70038
-2.75809
-2.81308
-1.1985
-1.20669
-1.21847
-1.23175
-1.24567
-1.26049
-1.2765
-1.29386
-1.31264
-1.33284
-1.35437
-1.37712
-1.40101
-1.42595
-1.45197
-1.47912
-1.50752
-1.53727
-1.5684
-1.60081
-1.63427
-1.66852
-1.70324
-1.73827
-1.7735
-1.80894
-1.8446
-1.88042
-1.91628
-1.95211
-1.9879
-2.02379
-2.0599
-2.0963
-2.13299
-2.1699
-2.20688
-2.24373
-2.28017
-2.31585
-2.35022
-2.38249
-2.41148
-2.43611
-2.45476
-2.46241
-1.17103
-1.1796
-1.19191
-1.20557
-1.21959
-1.23425
-1.24985
-1.26656
-1.28447
-1.30359
-1.32386
-1.34519
-1.36749
-1.39069
-1.4148
-1.43987
-1.46602
-1.49332
-1.5218
-1.55139
-1.58188
-1.61302
-1.64454
-1.67625
-1.70807
-1.73998
-1.77197
-1.80396
-1.83579
-1.86733
-1.89851
-1.92933
-1.95982
-1.98998
-2.01969
-2.04873
-2.07679
-2.10344
-2.12816
-2.15027
-2.16888
-2.18272
-2.18995
-2.18853
-2.17601
-2.14735
-1.14204
-1.15087
-1.16355
-1.17742
-1.19142
-1.20582
-1.22092
-1.23693
-1.25395
-1.27199
-1.29103
-1.31097
-1.33173
-1.35324
-1.37549
-1.39855
-1.42248
-1.44739
-1.47329
-1.50012
-1.52771
-1.55581
-1.58418
-1.61264
-1.6411
-1.66952
-1.69786
-1.72604
-1.75389
-1.78121
-1.80786
-1.83375
-1.85882
-1.88296
-1.90599
-1.92761
-1.94734
-1.96462
-1.97877
-1.98895
-1.99403
-1.99254
-1.98245
-1.96137
-1.92641
-1.87315
-1.11184
-1.12081
-1.13368
-1.1476
-1.16145
-1.17548
-1.19003
-1.2053
-1.22141
-1.2384
-1.25623
-1.27482
-1.29409
-1.31397
-1.33444
-1.35554
-1.37734
-1.39992
-1.42331
-1.44746
-1.47223
-1.49738
-1.52269
-1.54798
-1.57315
-1.59813
-1.62289
-1.64733
-1.67125
-1.69445
-1.7167
-1.73785
-1.75774
-1.77621
-1.79301
-1.80775
-1.81989
-1.8288
-1.8337
-1.8337
-1.82761
-1.81392
-1.79068
-1.75556
-1.70585
-1.6379
-1.0807
-1.08967
-1.10255
-1.11635
-1.12992
-1.14351
-1.15745
-1.17196
-1.18716
-1.2031
-1.21976
-1.23705
-1.25489
-1.2732
-1.29196
-1.31117
-1.33091
-1.35125
-1.37223
-1.39381
-1.41585
-1.43816
-1.46051
-1.48274
-1.5047
-1.52636
-1.54764
-1.56843
-1.58855
-1.60775
-1.62578
-1.64242
-1.65746
-1.67067
-1.68175
-1.69028
-1.69569
-1.69729
-1.69432
-1.68586
-1.6708
-1.64776
-1.615
-1.57047
-1.51186
-1.43634
-1.0488
-1.05764
-1.07035
-1.08389
-1.09706
-1.11012
-1.12341
-1.13713
-1.15143
-1.16635
-1.18186
-1.1979
-1.21436
-1.23117
-1.24829
-1.26571
-1.28349
-1.30169
-1.32036
-1.33947
-1.35892
-1.3785
-1.39803
-1.41732
-1.43623
-1.45469
-1.47264
-1.48994
-1.50642
-1.52182
-1.53586
-1.54827
-1.55881
-1.56722
-1.57316
-1.57619
-1.57574
-1.57116
-1.56167
-1.54643
-1.52441
-1.49443
-1.45508
-1.4047
-1.34141
-1.26306
-1.01631
-1.02492
-1.03729
-1.05042
-1.06309
-1.07556
-1.08815
-1.10108
-1.11448
-1.12838
-1.14278
-1.15761
-1.17275
-1.18813
-1.20368
-1.21939
-1.23531
-1.2515
-1.26799
-1.28478
-1.30176
-1.31878
-1.33563
-1.35213
-1.36814
-1.38358
-1.39837
-1.41239
-1.42545
-1.43728
-1.4476
-1.45612
-1.46257
-1.46667
-1.46806
-1.4663
-1.46087
-1.45115
-1.43643
-1.41592
-1.38874
-1.35389
-1.31027
-1.25664
-1.19158
-1.11352
-0.983422
-0.991684
-1.00359
-1.01618
-1.02827
-1.0401
-1.05196
-1.06408
-1.07657
-1.08948
-1.10279
-1.11643
-1.13031
-1.14432
-1.15839
-1.1725
-1.18667
-1.20096
-1.21541
-1.23002
-1.2447
-1.25931
-1.27366
-1.28755
-1.30085
-1.31346
-1.3253
-1.33625
-1.34612
-1.35466
-1.36158
-1.36657
-1.36936
-1.36965
-1.36709
-1.36125
-1.35166
-1.33775
-1.31892
-1.29446
-1.26362
-1.22561
-1.17957
-1.1246
-1.05974
-0.983859
-0.950295
-0.958147
-0.969475
-0.981434
-0.99288
-1.00402
-1.01513
-1.02642
-1.038
-1.04992
-1.06217
-1.07467
-1.08732
-1.10003
-1.1127
-1.1253
-1.13784
-1.15037
-1.16292
-1.17551
-1.18806
-1.20043
-1.21246
-1.22394
-1.23473
-1.24471
-1.25382
-1.26193
-1.26888
-1.27442
-1.27825
-1.28009
-1.27965
-1.27665
-1.27073
-1.2615
-1.24853
-1.23132
-1.20935
-1.18205
-1.14879
-1.10896
-1.0619
-1.00698
-0.943592
-0.870964
-0.917092
-0.924489
-0.935166
-0.946431
-0.957183
-0.9676
-0.977947
-0.9884
-0.99907
-1.01001
-1.0212
-1.03259
-1.04407
-1.05553
-1.06689
-1.07808
-1.08911
-1.1
-1.1108
-1.12151
-1.13209
-1.14241
-1.15231
-1.16158
-1.17006
-1.17766
-1.18426
-1.18979
-1.19409
-1.19691
-1.19799
-1.19705
-1.1938
-1.18799
-1.17928
-1.16732
-1.15169
-1.13199
-1.10778
-1.07859
-1.04392
-1.00331
-0.956282
-0.902394
-0.841289
-0.772504
-0.883933
-0.890855
-0.900839
-0.911367
-0.921396
-0.931073
-0.940636
-0.950245
-0.960005
-0.96997
-0.980133
-0.990439
-1.00079
-1.01107
-1.02119
-1.03107
-1.04069
-1.05007
-1.05925
-1.06825
-1.07701
-1.08546
-1.0934
-1.10067
-1.10708
-1.11251
-1.11688
-1.12008
-1.122
-1.12241
-1.12107
-1.11771
-1.11206
-1.10388
-1.09289
-1.07876
-1.06115
-1.03968
-1.014
-0.983725
-0.948481
-0.907911
-0.861682
-0.809504
-0.75123
-0.686646
-0.850889
-0.857332
-0.866601
-0.876369
-0.885658
-0.894585
-0.903358
-0.912123
-0.920979
-0.929981
-0.939134
-0.948387
-0.957651
-0.966815
-0.975767
-0.984426
-0.992751
-1.00075
-1.00844
-1.01585
-1.02296
-1.02968
-1.03587
-1.04133
-1.04589
-1.04941
-1.05178
-1.05294
-1.05276
-1.05108
-1.04766
-1.04225
-1.03459
-1.02447
-1.01165
-0.995852
-0.97679
-0.954153
-0.927638
-0.896945
-0.861785
-0.821897
-0.777044
-0.727064
-0.671973
-0.611714
-0.817979
-0.823947
-0.832496
-0.841495
-0.850037
-0.858211
-0.866195
-0.874121
-0.882082
-0.890139
-0.898302
-0.906533
-0.914752
-0.922848
-0.930707
-0.938233
-0.945365
-0.95209
-0.958425
-0.964393
-0.969989
-0.975149
-0.979744
-0.983597
-0.986521
-0.988361
-0.989009
-0.988388
-0.986411
-0.982939
-0.977774
-0.970682
-0.961425
-0.949791
-0.935573
-0.918558
-0.89851
-0.875183
-0.848336
-0.817736
-0.783166
-0.744436
-0.701383
-0.653932
-0.602181
-0.546126
-0.785188
-0.790688
-0.798522
-0.806754
-0.814549
-0.821971
-0.829174
-0.836272
-0.843356
-0.850486
-0.857684
-0.864923
-0.872135
-0.879216
-0.886049
-0.892524
-0.898565
-0.904137
-0.909242
-0.913902
-0.918124
-0.921867
-0.925029
-0.92745
-0.928945
-0.929346
-0.928527
-0.926404
-0.922905
-0.917932
-0.911328
-0.902894
-0.892412
-0.879676
-0.864497
-0.846696
-0.826089
-0.80249
-0.775717
-0.7456
-0.711984
-0.674737
-0.633756
-0.589009
-0.540592
-0.488486
-0.752482
-0.757527
-0.764658
-0.772131
-0.779186
-0.785867
-0.792302
-0.798591
-0.804817
-0.811046
-0.817306
-0.823585
-0.829828
-0.83594
-0.841807
-0.847311
-0.852357
-0.85689
-0.860893
-0.864381
-0.867367
-0.869835
-0.871712
-0.872864
-0.87312
-0.872302
-0.870265
-0.866911
-0.862168
-0.855966
-0.848197
-0.838706
-0.82731
-0.813819
-0.798058
-0.779864
-0.759089
-0.735589
-0.709234
-0.679905
-0.647501
-0.611941
-0.573166
-0.531166
-0.485996
-0.437622
-0.719833
-0.724437
-0.730886
-0.737619
-0.743949
-0.749906
-0.755593
-0.761096
-0.766494
-0.771851
-0.777205
-0.782557
-0.787866
-0.793053
-0.798007
-0.80261
-0.806753
-0.810357
-0.813386
-0.81584
-0.817731
-0.819063
-0.819793
-0.819824
-0.819005
-0.817164
-0.814143
-0.809819
-0.804111
-0.796955
-0.788279
-0.777978
-0.765914
-0.751932
-0.735873
-0.717595
-0.696964
-0.673868
-0.648208
-0.619904
-0.588896
-0.555141
-0.518613
-0.479317
-0.437292
-0.392526
-0.68723
-0.691413
-0.69721
-0.703229
-0.70886
-0.714117
-0.719085
-0.723836
-0.72844
-0.732962
-0.737446
-0.741905
-0.746316
-0.750615
-0.754705
-0.758468
-0.761788
-0.764568
-0.766747
-0.768305
-0.769247
-0.769584
-0.769303
-0.768342
-0.766586
-0.763886
-0.760077
-0.755022
-0.748615
-0.740784
-0.731472
-0.720608
-0.708099
-0.693833
-0.677686
-0.659536
-0.63927
-0.616793
-0.592026
-0.564915
-0.535425
-0.503538
-0.46925
-0.432583
-0.393598
-0.352317
-0.654682
-0.658469
-0.663653
-0.669
-0.673965
-0.678557