/*--------------------------------*- C++ -*----------------------------------*\
  =========                 |
  \\      /  F ield         | OpenFOAM: The Open Source CFD Toolbox
   \\    /   O peration     | Website:  https://openfoam.org
    \\  /    A nd           | Version:  9
     \\/     M anipulation  |
\*---------------------------------------------------------------------------*/
FoamFile
{
    format      ascii;
    class       surfaceScalarField;
    location    "0.3";
    object      phi;
}
// * * * * * * * * * * * * * * * * * * * * * * * * * * * * * * * * * * * * * //

dimensions      [0 3 -1 0 0 0 0];

internalField   nonuniform List<scalar> 
15214
(
-3.11391e-06
3.11391e-06
-3.11159e-06
-2.32093e-09
-1.23392e-06
-1.87767e-06
1.35739e-06
-2.59131e-06
4.16196e-06
-2.80457e-06
6.90655e-06
-2.74459e-06
9.48493e-06
-2.57837e-06
1.18786e-05
-2.39363e-06
1.41055e-05
-2.22697e-06
1.61975e-05
-2.09195e-06
1.81889e-05
-1.99141e-06
2.01117e-05
-1.92279e-06
2.19931e-05
-1.88139e-06
2.38551e-05
-1.86202e-06
2.57149e-05
-1.85978e-06
2.75851e-05
-1.87023e-06
2.94745e-05
-1.88937e-06
3.13881e-05
-1.9136e-06
3.33276e-05
-1.93958e-06
3.52917e-05
-1.96409e-06
3.72757e-05
-1.98399e-06
3.92717e-05
-1.99601e-06
4.12684e-05
-1.99669e-06
4.32507e-05
-1.98223e-06
4.5199e-05
-1.94838e-06
4.70893e-05
-1.89027e-06
4.88915e-05
-1.80221e-06
5.05689e-05
-1.67736e-06
5.2076e-05
-1.5071e-06
5.33558e-05
-1.27987e-06
5.43322e-05
-9.7638e-07
5.48987e-05
-5.66461e-07
5.48959e-05
2.73323e-09
5.40057e-05
8.90235e-07
5.20393e-05
1.96636e-06
4.87587e-05
3.28066e-06
4.39344e-05
4.82428e-06
3.74092e-05
6.52524e-06
2.91908e-05
8.21839e-06
1.95757e-05
9.61507e-06
9.21959e-06
1.03561e-05
-1.02641e-06
1.0246e-05
-1.04384e-05
9.41201e-06
-1.65365e-05
6.09805e-06
-1.38376e-05
-2.69885e-06
-1.38376e-05
-8.865e-07
4.0004e-06
8.9218e-08
-9.78042e-07
1.94738e-06
-3.73583e-06
4.2889e-06
-4.93283e-06
6.76508e-06
-5.28075e-06
9.2201e-06
-5.19961e-06
1.1583e-05
-4.94131e-06
1.38325e-05
-4.6431e-06
1.59758e-05
-4.37022e-06
1.80327e-05
-4.14888e-06
2.00267e-05
-3.98541e-06
2.19802e-05
-3.87634e-06
2.39129e-05
-3.81403e-06
2.58405e-05
-3.78963e-06
2.77752e-05
-3.79446e-06
2.97255e-05
-3.82052e-06
3.16967e-05
-3.86056e-06
3.3691e-05
-3.90797e-06
3.57081e-05
-3.95661e-06
3.77446e-05
-4.00061e-06
3.97947e-05
-4.03408e-06
4.18496e-05
-4.05094e-06
4.38976e-05
-4.04465e-06
4.59233e-05
-4.00801e-06
4.79078e-05
-3.93289e-06
4.98276e-05
-3.80997e-06
5.16537e-05
-3.62839e-06
5.33516e-05
-3.37521e-06
5.48791e-05
-3.03458e-06
5.61856e-05
-2.58643e-06
5.72132e-05
-2.00393e-06
5.78998e-05
-1.25313e-06
5.81919e-05
-2.89323e-07
5.80995e-05
9.82595e-07
5.74513e-05
2.61454e-06
5.6055e-05
4.67705e-06
5.36564e-05
7.22281e-06
4.99314e-05
1.02503e-05
4.45184e-05
1.36314e-05
3.7126e-05
1.70075e-05
2.77645e-05
1.97177e-05
1.70843e-05
2.09262e-05
6.7005e-06
1.97958e-05
-1.52005e-06
1.43186e-05
-5.41813e-06
1.19922e-06
-1.92557e-05
6.63242e-07
3.33716e-06
2.04621e-06
-2.36101e-06
3.97946e-06
-5.66909e-06
6.17344e-06
-7.12681e-06
8.44331e-06
-7.55062e-06
1.06952e-05
-7.45147e-06
1.28876e-05
-7.13378e-06
1.50097e-05
-6.76516e-06
1.70673e-05
-6.42785e-06
1.90743e-05
-6.15587e-06
2.10467e-05
-5.95778e-06
2.29998e-05
-5.82942e-06
2.49468e-05
-5.76109e-06
2.68985e-05
-5.74131e-06
2.88627e-05
-5.75862e-06
3.08445e-05
-5.80237e-06
3.28467e-05
-5.8628e-06
3.48698e-05
-5.931e-06
3.69117e-05
-5.99858e-06
3.89686e-05
-6.05743e-06
4.10338e-05
-6.09934e-06
4.30986e-05
-6.11574e-06
4.51512e-05
-6.0973e-06
4.71769e-05
-6.03367e-06
4.91572e-05
-5.91317e-06
5.10696e-05
-5.72237e-06
5.28869e-05
-5.44569e-06
5.45765e-05
-5.06478e-06
5.60995e-05
-4.5576e-06
5.74103e-05
-3.89726e-06
5.84567e-05
-3.05028e-06
5.91784e-05
-1.9749e-06
5.95099e-05
-6.20773e-07
5.94061e-05
1.08641e-06
5.87934e-05
3.22725e-06
5.75868e-05
5.88366e-06
5.56835e-05
9.12607e-06
5.2952e-05
1.29817e-05
4.92112e-05
1.73722e-05
4.42122e-05
2.20065e-05
3.76904e-05
2.62395e-05
2.96275e-05
2.89891e-05
2.06901e-05
2.87331e-05
1.18634e-05
2.31453e-05
3.93497e-06
9.12768e-06
-1.53208e-05
1.3765e-06
1.96066e-06
3.21197e-06
-4.19648e-06
5.30578e-06
-7.76289e-06
7.48289e-06
-9.30392e-06
9.64953e-06
-9.71727e-06
1.17726e-05
-9.57453e-06
1.38453e-05
-9.2065e-06
1.58722e-05
-8.79209e-06
1.78631e-05
-8.41871e-06
1.98294e-05
-8.12218e-06
2.17825e-05
-7.91082e-06
2.37323e-05
-7.77927e-06
2.56873e-05
-7.7161e-06
2.76539e-05
-7.70791e-06
2.96366e-05
-7.74131e-06
3.1638e-05
-7.80376e-06
3.36589e-05
-7.88371e-06
3.56984e-05
-7.97049e-06
3.77538e-05
-8.05396e-06
3.98205e-05
-8.12414e-06
4.1892e-05
-8.17085e-06
4.39595e-05
-8.18324e-06
4.60116e-05
-8.14944e-06
4.80342e-05
-8.05621e-06
5.00095e-05
-7.8885e-06
5.19162e-05
-7.62907e-06
5.37285e-05
-7.25802e-06
5.54159e-05
-6.7521e-06
5.69421e-05
-6.08388e-06
5.82655e-05
-5.22059e-06
5.93379e-05
-4.12273e-06
6.01056e-05
-2.74263e-06
6.05093e-05
-1.02444e-06
6.04922e-05
1.1035e-06
5.99967e-05
3.72279e-06
5.89651e-05
6.91527e-06
5.73414e-05
1.07497e-05
5.50682e-05
1.52549e-05
5.20704e-05
2.03699e-05
4.8219e-05
2.58579e-05
4.32884e-05
3.11701e-05
3.70029e-05
3.52746e-05
2.92618e-05
3.64742e-05
2.0176e-05
3.2231e-05
9.93217e-06
1.93715e-05
-5.38861e-06
1.6261e-06
3.3456e-07
3.84435e-06
-6.41473e-06
6.12917e-06
-1.00477e-05
8.34447e-06
-1.15192e-05
1.04681e-05
-1.18409e-05
1.25171e-05
-1.16235e-05
1.45144e-05
-1.12039e-05
1.64795e-05
-1.07571e-05
1.84268e-05
-1.0366e-05
2.03675e-05
-1.00629e-05
2.231e-05
-9.85329e-06
2.42606e-05
-9.72991e-06
2.62241e-05
-9.67964e-06
2.82039e-05
-9.68765e-06
3.02018e-05
-9.73925e-06
3.22186e-05
-9.82061e-06
3.42539e-05
-9.91898e-06
3.63058e-05
-1.00224e-05
3.83712e-05
-1.01193e-05
4.04453e-05
-1.01983e-05
4.25217e-05
-1.02473e-05
4.4592e-05
-1.02535e-05
4.66453e-05
-1.02027e-05
4.8668e-05
-1.0079e-05
5.06435e-05
-9.86399e-06
5.25515e-05
-9.53704e-06
5.43676e-05
-9.07416e-06
5.60632e-05
-8.4477e-06
5.76048e-05
-7.62542e-06
5.89537e-05
-6.5695e-06
6.00663e-05
-5.23534e-06
6.08942e-05
-3.57058e-06
6.13846e-05
-1.51483e-06
6.14845e-05
1.00368e-06
6.1143e-05
4.06423e-06
6.03134e-05
7.74489e-06
5.89538e-05
1.21093e-05
5.70249e-05
1.71839e-05
5.44764e-05
2.29184e-05
5.12156e-05
2.91188e-05
4.70526e-05
3.5333e-05
4.16581e-05
4.06691e-05
3.46005e-05
4.35318e-05
2.54213e-05
4.14102e-05
1.36819e-05
3.11109e-05
8.29333e-06
1.76436e-06
-1.4298e-06
4.21219e-06
-8.86256e-06
6.62169e-06
-1.24572e-05
8.86414e-06
-1.37617e-05
1.09622e-05
-1.3939e-05
1.29663e-05
-1.36276e-05
1.49188e-05
-1.31564e-05
1.68484e-05
-1.26867e-05
1.87728e-05
-1.22904e-05
2.07026e-05
-1.19926e-05
2.2644e-05
-1.17947e-05
2.46009e-05
-1.16868e-05
2.65755e-05
-1.16542e-05
2.85688e-05
-1.1681e-05
3.05811e-05
-1.17515e-05
3.26119e-05
-1.18514e-05
3.46598e-05
-1.19669e-05
3.67226e-05
-1.20852e-05
3.87969e-05
-1.21937e-05
4.08783e-05
-1.22796e-05
4.29605e-05
-1.23295e-05
4.50356e-05
-1.23286e-05
4.70934e-05
-1.22605e-05
4.91211e-05
-1.21067e-05
5.11031e-05
-1.1846e-05
5.30203e-05
-1.14542e-05
5.48498e-05
-1.09037e-05
5.65647e-05
-1.01626e-05
5.81338e-05
-9.19454e-06
5.95216e-05
-7.95729e-06
6.06884e-05
-6.40206e-06
6.15904e-05
-4.47265e-06
6.2181e-05
-2.10544e-06
6.2413e-05
7.7172e-07
6.22412e-05
4.23604e-06
6.16241e-05
8.36202e-06
6.05237e-05
1.32097e-05
5.89015e-05
1.88061e-05
5.6705e-05
2.51149e-05
5.3839e-05
3.19848e-05
5.01149e-05
3.90571e-05
4.5182e-05
4.5602e-05
3.84652e-05
5.02486e-05
2.91559e-05
5.07195e-05
1.63805e-05
4.38864e-05
2.46738e-05
1.879e-06
-3.3088e-06
4.44427e-06
-1.14278e-05
6.89794e-06
-1.49109e-05
9.13041e-06
-1.59941e-05
1.11964e-05
-1.6005e-05
1.31659e-05
-1.5597e-05
1.50903e-05
-1.50808e-05
1.70015e-05
-1.45979e-05
1.89174e-05
-1.42062e-05
2.0847e-05
-1.39222e-05
2.27947e-05
-1.37425e-05
2.47622e-05
-1.36544e-05
2.67499e-05
-1.36419e-05
2.87574e-05
-1.36884e-05
3.07837e-05
-1.37778e-05
3.28275e-05
-1.38952e-05
3.48871e-05
-1.40265e-05
3.69602e-05
-1.41582e-05
3.90433e-05
-1.42769e-05
4.11324e-05
-1.43687e-05
4.32218e-05
-1.44189e-05
4.53041e-05
-1.44109e-05
4.73701e-05
-1.43265e-05
4.94078e-05
-1.41445e-05
5.14027e-05
-1.38409e-05
5.33368e-05
-1.33884e-05
5.51888e-05
-1.27556e-05
5.69334e-05
-1.19072e-05
5.85416e-05
-1.08028e-05
5.99807e-05
-9.39636e-06
6.12144e-05
-7.63575e-06
6.22036e-05
-5.46185e-06
6.2907e-05
-2.80882e-06
6.3283e-05
3.95645e-07
6.32919e-05
4.22723e-06
6.28956e-05
8.75822e-06
6.20579e-05
1.40475e-05
6.07375e-05
2.01265e-05
5.88752e-05
2.69772e-05
5.63663e-05
3.44937e-05
5.30117e-05
4.24117e-05
4.84386e-05
5.01752e-05
4.19841e-05
5.67031e-05
3.25947e-05
6.01088e-05
1.89548e-05
5.75263e-05
4.36286e-05
1.98258e-06
-5.29138e-06
4.59118e-06
-1.40364e-05
7.02261e-06
-1.73423e-05
9.20743e-06
-1.8179e-05
1.12273e-05
-1.80249e-05
1.31623e-05
-1.7532e-05
1.50654e-05
-1.69839e-05
1.69667e-05
-1.64992e-05
1.88816e-05
-1.61211e-05
2.08168e-05
-1.58575e-05
2.27746e-05
-1.57003e-05
2.47548e-05
-1.56346e-05
2.67563e-05
-1.56434e-05
2.87776e-05
-1.57097e-05
3.0817e-05
-1.58173e-05
3.2873e-05
-1.59511e-05
3.49434e-05
-1.60969e-05
3.7026e-05
-1.62408e-05
3.91178e-05
-1.63687e-05
4.12151e-05
-1.6466e-05
4.3313e-05
-1.65167e-05
4.54048e-05
-1.65027e-05
4.74821e-05
-1.64038e-05
4.95343e-05
-1.61966e-05
5.15477e-05
-1.58543e-05
5.35058e-05
-1.53464e-05
5.53884e-05
-1.46383e-05
5.71721e-05
-1.36909e-05
5.88297e-05
-1.24603e-05
6.03309e-05
-1.08976e-05
6.16429e-05
-8.94777e-06
6.27307e-05
-6.54958e-06
6.35579e-05
-3.636e-06
6.40885e-05
-1.34959e-07
6.42877e-05
4.02794e-06
6.41222e-05
8.92381e-06
6.35576e-05
1.4612e-05
6.25535e-05
2.11306e-05
6.1049e-05
2.84817e-05
5.89376e-05
3.66051e-05
5.6019e-05
4.53303e-05
5.19115e-05
5.42827e-05
4.58984e-05
6.27162e-05
3.67068e-05
6.93004e-05
2.24026e-05
7.18305e-05
6.60312e-05
2.07583e-06
-7.36721e-06
4.67256e-06
-1.66332e-05
7.03182e-06
-1.97016e-05
9.13954e-06
-2.02867e-05
1.11001e-05
-1.99855e-05
1.29969e-05
-1.94288e-05
1.48792e-05
-1.88662e-05
1.67726e-05
-1.83926e-05
1.86885e-05
-1.8037e-05
2.06306e-05
-1.77995e-05
2.25986e-05
-1.76683e-05
2.45909e-05
-1.76268e-05
2.6605e-05
-1.76575e-05
2.86387e-05
-1.77434e-05
3.06898e-05
-1.78683e-05
3.27562e-05
-1.80176e-05
3.4836e-05
-1.81768e-05
3.69272e-05
-1.83319e-05
3.90271e-05
-1.84687e-05
4.11327e-05
-1.85716e-05
4.32397e-05
-1.86237e-05
4.53425e-05
-1.86056e-05
4.74338e-05
-1.84951e-05
4.9504e-05
-1.82668e-05
5.15407e-05
-1.7891e-05
5.35286e-05
-1.73343e-05
5.54489e-05
-1.65586e-05
5.72795e-05
-1.55214e-05
5.8995e-05
-1.41759e-05
6.05676e-05
-1.24702e-05
6.19672e-05
-1.03473e-05
6.31626e-05
-7.74498e-06
6.41223e-05
-4.59576e-06
6.48158e-05
-8.28463e-07
6.5214e-05
3.6298e-06
6.52888e-05
8.84898e-06
6.50116e-05
1.48892e-05
6.43475e-05
2.17947e-05
6.32439e-05
2.95853e-05
6.16082e-05
3.82408e-05
5.92639e-05
4.76746e-05
5.5864e-05
5.76826e-05
5.07163e-05
6.78639e-05
4.24367e-05
7.758e-05
2.83412e-05
8.59261e-05
9.43724e-05
2.15586e-06
-9.52306e-06
4.69643e-06
-1.91737e-05
6.94738e-06
-2.19525e-05
8.95775e-06
-2.22971e-05
1.08492e-05
-2.1877e-05
1.27029e-05
-2.12825e-05
1.45618e-05
-2.07251e-05
1.64452e-05
-2.02761e-05
1.83601e-05
-1.99518e-05
2.03066e-05
-1.97461e-05
2.22825e-05
-1.96442e-05
2.42842e-05
-1.96286e-05
2.63083e-05
-1.96816e-05
2.83517e-05
-1.97867e-05
3.04117e-05
-1.99284e-05
3.24863e-05
-2.00922e-05
3.45736e-05
-2.0264e-05
3.66716e-05
-2.043e-05
3.87785e-05
-2.05755e-05
4.08917e-05
-2.06848e-05
4.30078e-05
-2.07398e-05
4.51223e-05
-2.07201e-05
4.7229e-05
-2.06018e-05
4.93196e-05
-2.03573e-05
5.1383e-05
-1.99545e-05
5.34052e-05
-1.93565e-05
5.53685e-05
-1.8522e-05
5.72523e-05
-1.74052e-05
5.90325e-05
-1.59562e-05
6.06832e-05
-1.41209e-05
6.21771e-05
-1.18412e-05
6.34865e-05
-9.05437e-06
6.45845e-05
-5.69384e-06
6.54462e-05
-1.69012e-06
6.60486e-05
3.0274e-06
6.6371e-05
8.52662e-06
6.63931e-05
1.4867e-05
6.60917e-05
2.20961e-05
6.54326e-05
3.02443e-05
6.43553e-05
3.93181e-05
6.27413e-05
4.92886e-05
6.03466e-05
6.00772e-05
5.66488e-05
7.15617e-05
5.04451e-05
8.37837e-05
3.79838e-05
9.83874e-05
0.000132356
-1.14347e-08
1.14347e-08
-2.03012e-06
2.01865e-06
-4.70281e-06
2.67265e-06
-7.18242e-06
2.47963e-06
-9.09457e-06
1.91214e-06
-1.02849e-05
1.19031e-06
-1.08292e-05
5.44331e-07
-1.0839e-05
9.76864e-09
-1.04622e-05
-3.76877e-07
-9.80362e-06
-6.58583e-07
-8.9518e-06
-8.51784e-07
-7.9765e-06
-9.75307e-07
-6.934e-06
-1.04248e-06
-5.87044e-06
-1.06354e-06
-4.82335e-06
-1.04705e-06
-3.82201e-06
-1.00134e-06
-2.88623e-06
-9.35758e-07
-2.02845e-06
-8.57784e-07
-1.26121e-06
-7.67234e-07
-5.91083e-07
-6.70103e-07
-1.44234e-08
-5.7669e-07
4.7246e-07
-4.86878e-07
8.70314e-07
-3.97855e-07
1.18304e-06
-3.12752e-07
1.41674e-06
-2.33732e-07
1.5769e-06
-1.60149e-07
1.66601e-06
-8.90974e-08
1.68699e-06
-2.10097e-08
1.64643e-06
4.0594e-08
1.54922e-06
9.72526e-08
1.40133e-06
1.47873e-07
1.21031e-06
1.91026e-07
9.80678e-07
2.29629e-07
7.21488e-07
2.59144e-07
4.45409e-07
2.76072e-07
1.73235e-07
2.72204e-07
-6.41032e-08
2.37299e-07
-2.20326e-07
1.56201e-07
-2.1865e-07
-1.6674e-09
-2.1869e-07
-1.46265e-06
1.47403e-06
-3.97905e-06
4.53501e-06
-6.65197e-06
5.34555e-06
-8.86332e-06
4.69101e-06
-1.03923e-05
3.44114e-06
-1.12931e-05
2.09106e-06
-1.16505e-05
9.01638e-07
-1.159e-05
-5.0778e-08
-1.11871e-05
-7.79713e-07
-1.05257e-05
-1.32002e-06
-9.6776e-06
-1.69983e-06
-8.70632e-06
-1.94654e-06
-7.66488e-06
-2.08392e-06
-6.5967e-06
-2.13169e-06
-5.53688e-06
-2.10685e-06
-4.51306e-06
-2.02517e-06
-3.54711e-06
-1.90168e-06
-2.65599e-06
-1.74887e-06
-1.84805e-06
-1.5752e-06
-1.12682e-06
-1.39135e-06
-4.98133e-07
-1.20536e-06
3.8022e-08
-1.02305e-06
4.8549e-07
-8.45375e-07
8.47245e-07
-6.74511e-07
1.12777e-06
-5.14256e-07
1.33117e-06
-3.6356e-07
1.46302e-06
-2.20889e-07
1.52813e-06
-8.60722e-08
1.53067e-06
3.80483e-08
1.4767e-06
1.51215e-07
1.37291e-06
2.51653e-07
1.2241e-06
3.39789e-07
1.03761e-06
4.16098e-07
8.21506e-07
4.75245e-07
5.86298e-07
5.11236e-07
3.50224e-07
5.08266e-07
1.36015e-07
4.51521e-07
-2.8659e-08
3.20824e-07
-1.06023e-07
7.56425e-08
-3.24752e-07
-2.60476e-06
4.07875e-06
-5.28543e-06
7.21567e-06
-7.70921e-06
7.76931e-06
-9.62882e-06
6.61062e-06
-1.09608e-05
4.77315e-06
-1.17413e-05
2.87146e-06
-1.20348e-05
1.19516e-06
-1.1921e-05
-1.6459e-07
-1.14824e-05
-1.21829e-06
-1.08004e-05
-2.00205e-06
-9.94564e-06
-2.55458e-06
-8.97778e-06
-2.91438e-06
-7.94589e-06
-3.1158e-06
-6.88973e-06
-3.18785e-06
-5.8412e-06
-3.15537e-06
-4.82583e-06
-3.04051e-06
-3.86413e-06
-2.86338e-06
-2.97156e-06
-2.64146e-06
-2.15738e-06
-2.38932e-06
-1.4275e-06
-2.12125e-06
-7.85361e-07
-1.84752e-06
-2.32676e-07
-1.57573e-06
2.32333e-07
-1.31039e-06
6.13571e-07
-1.05573e-06
9.14747e-07
-8.15375e-07
1.14074e-06
-5.89494e-07
1.2969e-06
-3.77114e-07
1.38864e-06
-1.77844e-07
1.42075e-06
5.94279e-09
1.3989e-06
1.72994e-07
1.32911e-06
3.21427e-07
1.21778e-06
4.51177e-07
1.07239e-06
5.61467e-07
9.00323e-07
6.47284e-07
7.11239e-07
7.00384e-07
5.14831e-07
7.04674e-07
3.23477e-07
6.42821e-07
1.4984e-07
4.94491e-07
1.1508e-08
2.13934e-07
-3.13271e-07
-3.27394e-06
7.35267e-06
-6.21445e-06
1.01562e-05
-8.6264e-06
1.01813e-05
-1.04367e-05
8.42086e-06
-1.1642e-05
5.97843e-06
-1.22944e-05
3.52392e-06
-1.24708e-05
1.37149e-06
-1.22562e-05
-3.79128e-07
-1.17388e-05
-1.73571e-06
-1.09996e-05
-2.74131e-06
-1.01072e-05
-3.44691e-06
-9.11837e-06
-3.90326e-06
-8.07841e-06
-4.15576e-06
-7.0233e-06
-4.24296e-06
-5.98132e-06
-4.19738e-06
-4.97473e-06
-4.04708e-06
-4.02129e-06
-3.81678e-06
-3.13456e-06
-3.52822e-06
-2.32365e-06
-3.20027e-06
-1.59468e-06
-2.85021e-06
-9.50964e-07
-2.4912e-06
-3.93877e-07
-2.13284e-06
7.80376e-08
-1.78235e-06
4.67967e-07
-1.44563e-06
7.79566e-07
-1.12701e-06
1.01777e-06
-8.27722e-07
1.18806e-06
-5.47419e-07
1.29626e-06
-2.86058e-07
1.34757e-06
-4.53511e-08
1.34785e-06
1.72716e-07
1.30294e-06
3.66319e-07
1.21944e-06
5.34674e-07
1.10469e-06
6.76268e-07
9.65705e-07
7.86266e-07
8.10071e-07
8.55984e-07
6.43696e-07
8.71051e-07
4.72319e-07
8.14212e-07
3.02036e-07
6.64758e-07
1.36756e-07
3.79185e-07
-1.76525e-07
-3.86582e-06
1.12185e-05
-7.15914e-06
1.34495e-05
-9.7054e-06
1.27275e-05
-1.14794e-05
1.01948e-05
-1.25587e-05
7.05772e-06
-1.30473e-05
4.0125e-06
-1.30552e-05
1.37943e-06
-1.26882e-05
-7.46139e-07
-1.20435e-05
-2.38041e-06
-1.12047e-05
-3.58012e-06
-1.02396e-05
-4.41207e-06
-9.20149e-06
-4.94135e-06
-8.13179e-06
-5.22544e-06
-7.06212e-06
-5.31262e-06
-6.01657e-06
-5.24296e-06
-5.01353e-06
-5.05013e-06
-4.06736e-06
-4.763e-06
-3.18892e-06
-4.40665e-06
-2.38592e-06
-4.00327e-06
-1.66359e-06
-3.57257e-06
-1.02475e-06
-3.13005e-06
-4.70215e-07
-2.6874e-06
1.32197e-09
-2.25387e-06
3.92649e-07
-1.83691e-06
7.07567e-07
-1.44191e-06
9.50963e-07
-1.07117e-06
1.12849e-06
-7.2498e-07
1.2461e-06
-4.03654e-07
1.30941e-06
-1.08691e-07
1.32421e-06
1.57891e-07
1.29644e-06
3.94159e-07
1.23244e-06
5.98722e-07
1.13894e-06
7.69744e-07
1.02234e-06
9.02855e-07
8.88346e-07
9.9e-07
7.40682e-07
1.01868e-06
5.81431e-07
9.73442e-07
4.11497e-07
8.34697e-07
2.26131e-07
5.64512e-07
4.95957e-08
-4.72691e-06
1.59454e-05
-8.48227e-06
1.72048e-05
-1.11972e-05
1.54424e-05
-1.29108e-05
1.19084e-05
-1.38068e-05
7.95371e-06
-1.40634e-05
4.26914e-06
-1.38358e-05
1.1518e-06
-1.32545e-05
-1.32736e-06
-1.24284e-05
-3.20656e-06
-1.14444e-05
-4.56421e-06
-1.03689e-05
-5.48745e-06
-9.25197e-06
-6.05831e-06
-8.12994e-06
-6.3475e-06
-7.02928e-06
-6.41327e-06
-5.96907e-06
-6.30318e-06
-4.96305e-06
-6.05615e-06
-4.0214e-06
-5.70469e-06
-3.15163e-06
-5.27643e-06
-2.35912e-06
-4.79575e-06
-1.64747e-06
-4.28418e-06
-1.01841e-06
-3.75906e-06
-4.72007e-07
-3.23382e-06
-6.71397e-09
-2.7192e-06
3.80207e-07
-2.22392e-06
6.92693e-07
-1.75442e-06
9.35644e-07
-1.3141e-06
1.11473e-06
-9.04072e-07
1.23596e-06
-5.24876e-07
1.30518e-06
-1.77877e-07
1.32816e-06
1.34913e-07
1.31068e-06
4.11609e-07
1.25872e-06
6.50707e-07
1.17828e-06
8.50233e-07
1.0748e-06
1.00632e-06
9.52587e-07
1.11216e-06
8.13797e-07
1.15745e-06
6.58111e-07
1.12914e-06
4.82057e-07
1.01073e-06
2.73392e-07
7.73135e-07
3.22972e-07
-6.27697e-06
2.22224e-05
-1.05545e-05
2.14822e-05
-1.33358e-05
1.82238e-05
-1.48602e-05
1.34328e-05
-1.54554e-05
8.54888e-06
-1.5381e-05
4.19473e-06
-1.48352e-05
6.05955e-07
-1.39702e-05
-2.19227e-06
-1.29047e-05
-4.27213e-06
-1.17277e-05
-5.7412e-06
-1.05039e-05
-6.71124e-06
-9.27839e-06
-7.2838e-06
-8.08165e-06
-7.54421e-06
-6.93389e-06
-7.56105e-06
-5.84807e-06
-7.38899e-06
-4.83241e-06
-7.07181e-06
-3.89215e-06
-6.64494e-06
-3.03076e-06
-6.1378e-06
-2.25059e-06
-5.57591e-06
-1.55293e-06
-4.98184e-06
-9.37916e-07
-4.37412e-06
-4.04528e-07
-3.7673e-06
4.93824e-08
-3.17307e-06
4.26812e-07
-2.60131e-06
7.3175e-07
-2.05937e-06
9.69154e-07
-1.55151e-06
1.14472e-06
-1.07959e-06
1.26443e-06
-6.44571e-07
1.33412e-06
-2.47638e-07
1.35954e-06
1.09472e-07
1.34624e-06
4.24953e-07
1.29966e-06
6.97299e-07
1.22506e-06
9.24792e-07
1.127e-06
1.10436e-06
1.00865e-06
1.23053e-06
8.70975e-07
1.29511e-06
7.12224e-07
1.28787e-06
5.26683e-07
1.19625e-06
3.00133e-07
9.9966e-07
6.23082e-07
-9.09441e-06
3.13168e-05
-1.37641e-05
2.61518e-05
-1.63025e-05
2.07622e-05
-1.73904e-05
1.45207e-05
-1.75158e-05
8.67424e-06
-1.6994e-05
3.67295e-06
-1.60439e-05
-3.44121e-07
-1.48273e-05
-3.40896e-06
-1.34665e-05
-5.63285e-06
-1.20511e-05
-7.15656e-06
-1.06425e-05
-8.11984e-06
-9.28025e-06
-8.6461e-06
-7.9878e-06
-8.83666e-06
-6.77793e-06
-8.77094e-06
-5.65647e-06
-8.51045e-06
-4.62518e-06
-8.10314e-06
-3.68358e-06
-7.58655e-06
-2.8304e-06
-6.99096e-06
-2.0643e-06
-6.34202e-06
-1.3837e-06
-5.66241e-06
-7.86692e-07
-4.97112e-06
-2.70806e-07
-4.28322e-06
1.6692e-07
-3.61081e-06
5.29984e-07
-2.96434e-06
8.22594e-07
-2.35191e-06
1.0497e-06
-1.77865e-06
1.21696e-06
-1.24693e-06
1.33031e-06
-7.57903e-07
1.39551e-06
-3.12789e-07
1.41812e-06
8.68755e-08
1.40338e-06
4.39647e-07
1.35625e-06
7.4438e-07
1.28129e-06
9.9976e-07
1.18224e-06
1.20346e-06
1.06137e-06
1.3514e-06
9.18902e-07
1.43754e-06
7.52352e-07
1.45442e-06
5.55328e-07
1.39325e-06
3.14108e-07
1.24086e-06
9.37178e-07
-1.43767e-05
4.56935e-05
-1.85117e-05
3.02868e-05
-2.0131e-05
2.23815e-05
-2.04264e-05
1.48161e-05
-1.98984e-05
8.14615e-06
-1.88279e-05
2.60248e-06
-1.74076e-05
-1.76443e-06
-1.57881e-05
-5.0284e-06
-1.40888e-05
-7.33216e-06
-1.23977e-05
-8.84765e-06
-1.07733e-05
-9.74424e-06
-9.24981e-06
-1.01696e-05
-7.84339e-06
-1.02431e-05
-6.55859e-06
-1.00558e-05
-5.39319e-06
-9.67587e-06
-4.34158e-06
-9.15477e-06
-3.39685e-06
-8.53125e-06
-2.55231e-06
-7.83541e-06
-1.8023e-06
-7.09204e-06
-1.14193e-06
-6.32279e-06
-5.66875e-07
-5.54622e-06
-7.29079e-08
-4.77714e-06
3.44e-07
-4.02769e-06
6.87984e-07
-3.30835e-06
9.63572e-07
-2.62754e-06
1.17581e-06
-1.99087e-06
1.33026e-06
-1.40131e-06
1.43266e-06
-8.60266e-07
1.48862e-06
-3.68812e-07
1.50352e-06
7.1928e-08
1.48228e-06
4.60917e-07
1.42935e-06
7.97354e-07
1.34864e-06
1.08046e-06
1.24321e-06
1.30887e-06
1.11473e-06
1.47986e-06
9.62946e-07
1.58931e-06
7.85151e-07
1.63221e-06
5.7525e-07
1.60314e-06
3.21377e-07
1.4947e-06
1.25855e-06
-2.12482e-05
6.69417e-05
-2.45701e-05
3.36088e-05
-2.448e-05
2.22914e-05
-2.3658e-05
1.39941e-05
-2.23699e-05
6.85804e-06
-2.07205e-05
9.53003e-07
-1.88172e-05
-3.66774e-06
-1.67808e-05
-7.06479e-06
-1.4724e-05
-9.38893e-06
-1.27357e-05
-1.08359e-05
-1.08748e-05
-1.16051e-05
-9.17235e-06
-1.18721e-05
-7.63837e-06
-1.17771e-05
-6.26922e-06
-1.14249e-05
-5.05413e-06
-1.08909e-05
-3.97942e-06
-1.02294e-05
-3.03116e-06
-9.47955e-06
-2.19669e-06
-8.66995e-06
-1.46542e-06
-7.8233e-06
-8.28821e-07
-6.95931e-06
-2.79825e-07
-6.09517e-06
1.877e-07
-5.24469e-06
5.79108e-07
-4.41916e-06
8.99376e-07
-3.6286e-06
1.15339e-06
-2.88149e-06
1.34625e-06
-2.18373e-06
1.48342e-06
-1.5385e-06
1.57044e-06
-9.47297e-07
1.61274e-06
-4.1108e-07
1.61541e-06
6.93196e-08
1.583e-06
4.9334e-07
1.51952e-06
8.6077e-07
1.4284e-06
1.17154e-06
1.31212e-06
1.42514e-06
1.17189e-06
1.62009e-06
1.00724e-06
1.75397e-06
8.15588e-07
1.82386e-06
5.91646e-07
1.82705e-06
3.25864e-07
1.76046e-06
1.5844e-06
2.25879e-06
-1.17818e-05
4.75028e-06
-2.16652e-05
6.9042e-06
-2.41065e-05
8.83741e-06
-2.42303e-05
1.06848e-05
-2.37244e-05
1.25228e-05
-2.31204e-05
1.43865e-05
-2.25888e-05
1.6289e-05
-2.21787e-05
1.82326e-05
-2.18954e-05
2.02142e-05
-2.17277e-05
2.22292e-05
-2.16591e-05
2.42723e-05
-2.16717e-05
2.6339e-05
-2.17483e-05
2.84253e-05
-2.18731e-05
3.05283e-05
-2.20314e-05
3.26455e-05
-2.22093e-05
3.4775e-05
-2.23936e-05
3.69154e-05
-2.25704e-05
3.90652e-05
-2.27253e-05
4.12225e-05
-2.2842e-05
4.33848e-05
-2.29022e-05
4.55488e-05
-2.28841e-05
4.77094e-05
-2.27624e-05
4.98595e-05
-2.25074e-05
5.19893e-05
-2.20843e-05
5.40858e-05
-2.1453e-05
5.61324e-05
-2.05685e-05
5.81088e-05
-1.93816e-05
5.9992e-05
-1.78394e-05
6.1757e-05
-1.58859e-05
6.33784e-05
-1.34625e-05
6.48313e-05
-1.05073e-05
6.60931e-05
-6.95564e-06
6.7144e-05
-2.74095e-06
6.79675e-05
2.20381e-06
6.85514e-05
7.94279e-06
6.8886e-05
1.45324e-05
6.89636e-05
2.20184e-05
6.87756e-05
3.04324e-05
6.83063e-05
3.97875e-05
6.75219e-05
5.00729e-05
6.63488e-05
6.12504e-05
6.46251e-05
7.32854e-05
6.2069e-05
8.63398e-05
5.88411e-05
0.000101615
0.000126784
6.44131e-05
2.32604e-06
-1.41079e-05
4.71008e-06
-2.40493e-05
6.72488e-06
-2.61213e-05
8.5522e-06
-2.60576e-05
1.03323e-05
-2.55045e-05
1.21326e-05
-2.49207e-05
1.39794e-05
-2.44356e-05
1.58792e-05
-2.40785e-05
1.78296e-05
-2.38457e-05
1.98244e-05
-2.37225e-05
2.18566e-05
-2.36913e-05
2.39195e-05
-2.37346e-05
2.60073e-05
-2.38361e-05
2.81153e-05
-2.39811e-05
3.024e-05
-2.4156e-05
3.23788e-05
-2.43481e-05
3.45299e-05
-2.45446e-05
3.6692e-05
-2.47326e-05
3.88643e-05
-2.48975e-05
4.10456e-05
-2.50234e-05
4.32345e-05
-2.50911e-05
4.54288e-05
-2.50783e-05
4.76247e-05
-2.49584e-05
4.98168e-05
-2.46995e-05
5.19968e-05
-2.42643e-05
5.4153e-05
-2.36092e-05
5.62697e-05
-2.26852e-05
5.83272e-05
-2.14392e-05
6.0303e-05
-1.98151e-05
6.21728e-05
-1.77558e-05
6.39129e-05
-1.52026e-05
6.55012e-05
-1.20957e-05
6.69195e-05
-8.37385e-06
6.81533e-05
-3.97481e-06
6.91938e-05
1.16329e-06
7.00377e-05
7.09895e-06
7.06873e-05
1.38828e-05
7.11522e-05
2.15535e-05
7.14503e-05
3.01343e-05
7.16105e-05
3.96272e-05
7.16785e-05
5.0005e-05
7.1729e-05
6.11999e-05
7.19122e-05
7.31022e-05
7.26573e-05
8.55947e-05
7.51756e-05
9.9097e-05
0.000118116
8.38442e-05
2.37294e-06
-1.64808e-05
4.6161e-06
-2.62924e-05
6.47442e-06
-2.79796e-05
8.188e-06
-2.77712e-05
9.89549e-06
-2.7212e-05
1.16529e-05
-2.66781e-05
1.34773e-05
-2.62599e-05
1.53686e-05
-2.59698e-05
1.73201e-05
-2.57972e-05
1.93227e-05
-2.57251e-05
2.1367e-05
-2.57357e-05
2.34448e-05
-2.58124e-05
2.55492e-05
-2.59405e-05
2.76746e-05
-2.61065e-05
2.9817e-05
-2.62985e-05
3.19736e-05
-2.65047e-05
3.41426e-05
-2.67137e-05
3.63231e-05
-2.69131e-05
3.85146e-05
-2.7089e-05
4.07168e-05
-2.72256e-05
4.29293e-05
-2.73036e-05
4.5151e-05
-2.73e-05
4.738e-05
-2.71873e-05
4.96124e-05
-2.69319e-05
5.18417e-05
-2.64936e-05
5.40578e-05
-2.58253e-05
5.62458e-05
-2.48732e-05
5.83863e-05
-2.35796e-05
6.04564e-05
-2.18852e-05
6.24321e-05
-1.97315e-05
6.42906e-05
-1.7061e-05
6.60124e-05
-1.38175e-05
6.7583e-05
-9.94442e-06
6.89938e-05
-5.38567e-06
7.02433e-05
-8.62031e-08
7.13372e-05
6.00509e-06
7.22892e-05
1.29307e-05
7.31241e-05
2.07187e-05
7.38808e-05
2.93776e-05
7.46192e-05
3.88888e-05
7.54299e-05
4.91943e-05
7.64507e-05
6.01791e-05
7.79006e-05
7.16522e-05
8.01489e-05
8.33464e-05
8.39298e-05
9.5316e-05
0.000109326
9.27196e-05
2.39714e-06
-1.8878e-05
4.46685e-06
-2.83621e-05
6.15485e-06
-2.96676e-05
7.7494e-06
-2.93657e-05
9.38049e-06
-2.88431e-05
1.10909e-05
-2.83885e-05
1.28882e-05
-2.80572e-05
1.47661e-05
-2.78478e-05
1.67137e-05
-2.77448e-05
1.87188e-05
-2.77302e-05
2.07703e-05
-2.77871e-05
2.28582e-05
-2.79003e-05
2.49745e-05
-2.80568e-05
2.71129e-05
-2.82449e-05
2.92687e-05
-2.84543e-05
3.14389e-05
-2.86749e-05
3.36217e-05
-2.88965e-05
3.58164e-05
-2.91077e-05
3.80228e-05
-2.92955e-05
4.02415e-05
-2.94442e-05
4.24729e-05
-2.9535e-05
4.47174e-05
-2.95446e-05
4.69746e-05
-2.94445e-05
4.92428e-05
-2.92e-05
5.15177e-05
-2.87685e-05
5.3791e-05
-2.80986e-05
5.60487e-05
-2.71309e-05
5.8271e-05
-2.58019e-05
6.04341e-05
-2.40483e-05
6.25129e-05
-2.18104e-05
6.4485e-05
-1.90331e-05
6.63326e-05
-1.56651e-05
6.80451e-05
-1.16569e-05
6.96195e-05
-6.96008e-06
7.10612e-05
-1.52788e-06
7.23842e-05
4.68208e-06
7.36123e-05
1.17026e-05
7.47812e-05
1.95497e-05
7.59435e-05
2.82153e-05
7.71742e-05
3.76581e-05
7.85779e-05
4.77907e-05
8.0295e-05
5.8462e-05
8.25073e-05
6.94399e-05
8.54427e-05
8.04111e-05
8.95903e-05
9.11684e-05
0.000102082
9.68339e-05
2.39603e-06
-2.1274e-05
4.25878e-06
-3.02249e-05
5.7659e-06
-3.11747e-05
7.23924e-06
-3.08391e-05
8.79262e-06
-3.03965e-05
1.04539e-05
-3.00498e-05
1.2221e-05
-2.98243e-05
1.40817e-05
-2.97085e-05
1.60211e-05
-2.96842e-05
1.80245e-05
-2.97336e-05
2.00786e-05
-2.98412e-05
2.2172e-05
-2.99938e-05
2.42957e-05
-3.01804e-05
2.64424e-05
-3.03916e-05
2.86071e-05
-3.06189e-05
3.07863e-05
-3.08541e-05
3.29781e-05
-3.10883e-05
3.51819e-05
-3.13115e-05
3.7398e-05
-3.15116e-05
3.96274e-05
-3.16736e-05
4.18714e-05
-3.1779e-05
4.41317e-05
-3.18048e-05
4.64095e-05
-3.17224e-05
4.87056e-05
-3.14961e-05
5.10186e-05
-3.10815e-05
5.33427e-05
-3.04226e-05
5.56647e-05
-2.9453e-05
5.79641e-05
-2.81013e-05
6.02148e-05
-2.6299e-05
6.23896e-05
-2.39852e-05
6.44651e-05
-2.11085e-05
6.64248e-05
-1.76248e-05
6.82617e-05
-1.34938e-05
6.99781e-05
-8.67654e-06
7.15861e-05
-3.13588e-06
7.31072e-05
3.16098e-06
7.4573e-05
1.02369e-05
7.60266e-05
1.80961e-05
7.7527e-05
2.6715e-05
7.9153e-05
3.60321e-05
8.10066e-05
4.59371e-05
8.32106e-05
5.62579e-05
8.59025e-05
6.6748e-05
8.92261e-05
7.70875e-05
9.34386e-05
8.69559e-05
9.62811e-05
9.92398e-05
2.36453e-06
-2.36385e-05
3.98583e-06
-3.18462e-05
5.30688e-06
-3.24958e-05
6.66172e-06
-3.21939e-05
8.1397e-06
-3.18745e-05
9.75223e-06
-3.16623e-05
1.14879e-05
-3.15599e-05
1.3329e-05
-3.15496e-05
1.52569e-05
-3.16122e-05
1.72546e-05
-3.17313e-05
1.9307e-05
-3.18936e-05
2.14016e-05
-3.20884e-05
2.35281e-05
-3.23069e-05
2.56786e-05
-3.25421e-05
2.78473e-05
-3.27877e-05
3.00305e-05
-3.30373e-05
3.22261e-05
-3.32839e-05
3.44334e-05
-3.35188e-05
3.66529e-05
-3.37311e-05
3.88859e-05
-3.39066e-05
4.11343e-05
-3.40275e-05
4.34008e-05
-3.40712e-05
4.56882e-05
-3.40098e-05
4.80002e-05
-3.38081e-05
5.03391e-05
-3.34205e-05
5.27027e-05
-3.27862e-05
5.50793e-05
-3.18296e-05
5.74467e-05
-3.04687e-05
5.97751e-05
-2.86274e-05
6.20335e-05
-2.62436e-05
6.41961e-05
-2.32712e-05
6.62472e-05
-1.96759e-05
6.81831e-05
-1.54297e-05
7.00118e-05
-1.05052e-05
7.17515e-05
-4.87558e-06
7.34305e-05
1.48195e-06
7.50865e-05
8.58088e-06
7.67665e-05
1.64161e-05
7.85305e-05
2.4951e-05
8.04548e-05
3.41078e-05
8.26311e-05
4.37608e-05
8.51599e-05
5.37291e-05
8.81378e-05
6.37701e-05
9.16415e-05
7.35838e-05
9.57438e-05
8.28535e-05
9.1413e-05
0.000100612
2.29063e-06
-2.59292e-05
3.64037e-06
-3.31959e-05
4.78063e-06
-3.3636e-05
6.02699e-06
-3.34403e-05
7.43627e-06
-3.32838e-05
9.00308e-06
-3.32292e-05
1.07076e-05
-3.32644e-05
1.25273e-05
-3.33693e-05
1.44409e-05
-3.35257e-05
1.64291e-05
-3.37196e-05
1.84757e-05
-3.39402e-05
2.05669e-05
-3.41796e-05
2.26917e-05
-3.44317e-05
2.48411e-05
-3.46916e-05
2.70089e-05
-3.49554e-05
2.91908e-05
-3.52192e-05
3.13845e-05
-3.54776e-05
3.35891e-05
-3.57234e-05
3.58049e-05
-3.59469e-05
3.80332e-05
-3.61349e-05
4.02762e-05
-3.62704e-05
4.25367e-05
-3.63318e-05
4.48192e-05
-3.62922e-05
4.71299e-05
-3.61188e-05
4.94766e-05
-3.57672e-05
5.18625e-05
-3.51721e-05
5.42785e-05
-3.42455e-05
5.66996e-05
-3.28899e-05
5.90905e-05
-3.10182e-05
6.14139e-05
-2.8567e-05
6.36403e-05
-2.54976e-05
6.57542e-05
-2.17898e-05
6.77555e-05
-1.7431e-05
6.96581e-05
-1.24078e-05
7.14866e-05
-6.70416e-06
7.32759e-05
-3.07334e-07
7.50683e-05
6.78852e-06
7.69119e-05
1.45725e-05
7.8864e-05
2.29989e-05
8.09946e-05
3.19772e-05
8.33832e-05
4.13722e-05
8.61086e-05
5.10038e-05
8.92318e-05
6.06469e-05
9.27787e-05
7.00369e-05
9.67269e-05
7.89054e-05
8.70914e-05
0.000101049
2.1519e-06
-2.80811e-05
3.21833e-06
-3.42624e-05
4.20057e-06
-3.46183e-05
5.35733e-06
-3.4597e-05
6.70844e-06
-3.46349e-05
8.23397e-06
-3.47547e-05
9.90784e-06
-3.49383e-05
1.17044e-05
-3.51659e-05
1.36003e-05
-3.54216e-05
1.5575e-05
-3.56943e-05
1.76111e-05
-3.59763e-05
1.96941e-05
-3.62626e-05
2.18121e-05
-3.65496e-05
2.39554e-05
-3.68349e-05
2.61169e-05
-3.71169e-05
2.82919e-05
-3.73942e-05
3.04776e-05
-3.76634e-05
3.26729e-05