/*--------------------------------*- C++ -*----------------------------------*\
  =========                 |
  \\      /  F ield         | OpenFOAM: The Open Source CFD Toolbox
   \\    /   O peration     | Website:  https://openfoam.org
    \\  /    A nd           | Version:  9
     \\/     M anipulation  |
\*---------------------------------------------------------------------------*/
FoamFile
{
    format      ascii;
    class       volVectorField;
    location    "105";
    object      U;
}
// * * * * * * * * * * * * * * * * * * * * * * * * * * * * * * * * * * * * * //

dimensions      [0 1 -1 0 0 0 0];

internalField   nonuniform List<vector> 
112055
(
(0.478519 0.0167608 0)
(0.503564 -0.00485384 0)
(0.527261 9.6438e-05 -2.34632e-20)
(0.536224 -0.00617399 7.27939e-21)
(0.481731 -0.0165563 2.38669e-21)
(0.499759 0.00472151 0)
(0.47974 0.0161007 -6.50657e-20)
(0.53564 -0.00611492 0)
(0.519416 -0.000109342 -1.59677e-20)
(0.479917 -0.00269187 3.55706e-21)
(0.503545 -0.00494958 1.39206e-20)
(0.481389 0.0202581 -4.35425e-20)
(0.519133 -0.000440508 7.79864e-21)
(0.481414 0.0198752 4.15847e-20)
(0.458501 -0.00616833 -2.64858e-20)
(0.517995 -0.00334973 1.25864e-21)
(0.391788 -0.0251011 6.41325e-20)
(0.468174 -0.048443 -2.40593e-21)
(0.504165 -0.00706132 0)
(0.519451 0.00672033 -1.01889e-20)
(0.515983 0.00572077 6.49986e-21)
(0.512077 0.0101728 0)
(0.504174 -0.00716514 -8.05683e-21)
(0.5148 -0.0111783 1.08547e-21)
(0.426277 0.0153394 0)
(0.509382 -0.0102143 5.40972e-21)
(0.429587 0.0260498 -2.00462e-20)
(0.500561 0.00195176 0)
(0.499812 0.00466284 0)
(0.516119 0.00586297 -6.55922e-21)
(0.499991 -1.13346e-05 -4.07635e-20)
(0.545433 0.0235236 0)
(0.516573 0.00287184 0)
(0.0702353 -0.0314163 -2.96828e-20)
(0.51946 -9.92371e-05 1.47212e-20)
(0.514658 0.00187876 -2.04395e-21)
(0.519585 0.00664222 0)
(0.354542 0.120089 1.61945e-20)
(0.537265 -0.0165379 0)
(0.510617 -0.00217477 4.94512e-22)
(0.515502 0.00149154 6.03381e-21)
(0.535441 -0.0163994 1.23919e-20)
(0.512274 -0.00540367 -4.55725e-23)
(0.527022 8.07756e-05 3.93624e-20)
(0.467083 -0.0486736 0)
(0.516676 -0.00862483 0)
(0.0750163 -0.0305908 0)
(0.435062 -0.0385219 0)
(0.52803 -0.0173792 -1.93031e-20)
(0.534981 -0.0166267 2.54419e-21)
(0.534843 -0.00558011 2.05598e-20)
(0.539557 0.109551 0)
(0.515913 0.00864262 -3.61684e-21)
(0.536808 -0.0159538 3.35271e-20)
(0.520615 0.00187343 2.37257e-20)
(0.479462 0.016584 3.19083e-20)
(0.344837 0.0772236 5.45635e-22)
(0.377521 -0.0847041 0)
(0.534181 0.0696981 0)
(0.516713 -0.00848693 2.80503e-21)
(0.486699 -0.00913767 2.28937e-20)
(0.440898 -0.0396315 3.08728e-21)
(0.510892 0.00259646 -4.28448e-22)
(0.510902 0.00262537 4.52258e-22)
(0.494171 -0.00123698 0)
(0.520089 -7.12183e-05 -1.70807e-20)
(0.348782 0.120995 0)
(0.508492 0.0124807 0)
(0.508917 0.0149917 5.61972e-22)
(0.52211 -0.00447271 -1.24488e-20)
(0.37339 -0.0853506 6.83563e-21)
(-0.0715511 0.00463465 -2.49296e-22)
(0.514599 -0.0111795 0)
(0.438276 0.00705344 7.39902e-20)
(0.590676 -0.00837323 -1.25848e-19)
(0.252424 -0.20133 -7.37554e-21)
(0.502898 0.00074071 -2.2148e-21)
(0.478798 0.0164625 -3.37039e-20)
(0.541869 0.0483119 -2.42188e-20)
(0.536259 -0.0159968 -4.40907e-20)
(0.504477 -0.0221735 -7.47117e-22)
(0.21654 -0.186675 -7.49455e-21)
(0.534655 -0.00567279 0)
(0.509411 -0.0117107 6.95437e-21)
(0.518167 -0.00342073 3.82468e-21)
(0.507796 -0.00111531 4.58508e-21)
(0.524648 -0.037163 -1.49517e-20)
(0.520522 0.00178624 2.48523e-20)
(0.0227123 0.0919084 1.11978e-19)
(0.520334 0.00190648 0)
(0.516797 0.00268707 -2.59486e-21)
(0.51469 0.00188436 2.11577e-21)
(0.52523 -0.0370977 0)
(0.482699 -0.0137571 -5.80386e-21)
(0.593171 -0.00905181 0)
(0.502988 0.000831225 3.54232e-21)
(0.538992 0.018233 -1.00548e-19)
(0.459163 -0.00615225 4.51276e-20)
(0.499989 -1.63453e-05 1.87995e-20)
(0.344969 0.077972 0)
(0.51909 -0.000448119 7.16827e-21)
(0.513287 0.00113913 6.47814e-24)
(0.517126 -0.00209705 2.91423e-21)
(0.502518 -0.00588256 -2.77822e-20)
(0.575181 -0.000328866 0)
(0.305539 -0.0162603 -2.52718e-20)
(0.4942 -0.00134848 0)
(0.516945 -0.0100346 0)
(0.511693 0.000300474 -1.029e-21)
(0.507825 -0.000900718 0)
(-0.0722712 0.00371732 6.2901e-20)
(0.530469 -0.00135606 -1.55434e-20)
(0.520468 0.00018455 0)
(0.502167 0.0239312 1.26851e-20)
(0.50887 0.0148578 0)
(0.473529 0.00948936 6.38158e-20)
(0.492744 0.0216713 0)
(0.51691 -0.00238543 0)
(0.0331879 0.0974267 -1.3576e-19)
(0.519795 -0.000536293 -9.21049e-21)
(0.500596 -0.00279559 8.06319e-21)
(0.500566 0.00199572 0)
(0.480054 -0.0024236 0)
(0.523475 0.000206539 3.52043e-21)
(0.515511 0.00153178 -1.14993e-20)
(0.502634 -0.00590906 9.00449e-21)
(0.48505 0.0366346 -6.23472e-20)
(0.523281 0.0017288 1.75562e-21)
(0.524771 0.00297755 -1.43974e-20)
(0.576007 0.00072276 0)
(0.523097 -0.000112771 -5.0087e-22)
(0.430177 0.0273898 -7.21973e-20)
(0.522135 0.00119573 3.47492e-21)
(0.401524 0.0195082 8.42832e-20)
(0.53788 -0.0164967 1.30821e-20)
(0.510707 -0.00221138 0)
(0.517048 -0.00252479 2.31556e-21)
(0.508804 0.00709987 0)
(0.526987 0.00143397 9.52248e-21)
(0.213746 -0.0993793 -8.94317e-21)
(0.508946 0.00711745 0)
(0.271896 -0.0750742 0)
(0.533574 0.0225725 -1.18337e-20)
(0.442687 -0.218672 0)
(0.517233 -0.0103 1.21809e-21)
(0.520867 0.0228875 4.31413e-21)
(0.473384 -0.03754 8.24176e-21)
(0.515127 0.00979121 0)
(0.51679 -0.00236095 4.80846e-21)
(0.493621 0.0170387 0)
(0.318931 -0.0184887 0)
(0.512173 0.00966683 0)
(0.484908 0.00279676 0)
(0.515552 0.00821643 2.14816e-22)
(0.526833 0.00134808 0)
(0.501458 -0.0135586 2.7206e-20)
(0.498359 9.19196e-05 -1.45944e-20)
(0.502025 0.0235871 0)
(0.53289 0.0694005 -1.08239e-20)
(0.522302 0.0412667 1.24867e-20)
(0.520413 0.000185963 1.97342e-23)
(0.406311 -0.0194635 -1.0004e-23)
(0.522309 0.00441292 -2.84742e-21)
(0.519651 0.00634422 9.49177e-21)
(0.515673 0.000454862 -6.57291e-21)
(0.513639 0.0064195 -2.19846e-21)
(0.497493 0.00374206 -4.70145e-21)
(0.545945 0.023108 7.91236e-22)
(0.518543 0.00245763 9.58793e-21)
(0.49401 0.00301885 0)
(0.498784 -0.00938384 -5.56628e-20)
(0.50151 -0.0136832 1.5334e-20)
(0.522221 0.00430586 1.01392e-20)
(0.442878 -0.212298 2.74789e-21)
(0.549757 0.00290233 -1.48936e-20)
(0.519835 -0.000536128 1.34965e-20)
(0.528611 -0.0169222 8.05824e-21)
(0.522577 -0.00165865 2.04755e-20)
(0.524317 0.0188066 2.61598e-20)
(0.510194 -0.0211102 -3.03959e-21)
(0.549273 0.00295332 7.40133e-20)
(0.51656 -0.00424786 -3.58672e-21)
(0.522602 0.00758119 1.08511e-20)
(0.499932 -1.91925e-05 -6.06556e-20)
(0.540886 -0.0193608 -5.00269e-20)
(0.480731 -0.0521106 2.77765e-20)
(0.406539 -0.0198587 2.65745e-22)
(0.515722 0.000464268 7.72714e-21)
(0.534397 0.0237714 6.68438e-21)
(0.516472 0.0139955 6.27872e-21)
(0.509261 -0.00992758 0)
(0.516531 0.00287819 -9.32261e-21)
(0.520185 0.00193961 -9.64168e-21)
(0.500596 -0.00288158 1.45668e-20)
(0.52448 -0.0007147 -1.18216e-20)
(0.511853 0.00248862 3.56878e-23)
(0.538339 0.00847686 0)
(0.535301 -0.00154589 -2.18405e-20)
(0.529687 -0.00735615 -3.54237e-21)
(0.49843 0.000105582 4.47801e-20)
(0.375662 -0.00200613 -2.71989e-20)
(0.491186 0.00293803 3.55299e-20)
(0.486481 -0.00880462 4.71948e-20)
(0.511651 -0.00294611 0)
(0.515658 -0.0240506 -5.88036e-22)
(0.474024 0.00927884 -5.39517e-20)
(0.35807 -0.0743653 0)
(0.495312 0.0188652 2.69427e-20)
(0.411501 -0.026444 -6.6764e-20)
(0.51711 -0.00214879 0)
(0.511365 -0.00859111 1.01117e-21)
(0.514328 0.000364331 0)
(0.47413 -0.0378513 -3.33952e-20)
(0.517095 -0.00213474 -4.49388e-23)
(0.538356 0.0177945 5.58781e-20)
(0.495061 0.0189961 1.59988e-21)
(0.498617 -0.00942808 3.45241e-20)
(0.527098 -0.0251854 0)
(0.518108 0.000367037 5.85268e-21)
(0.536827 -0.00501786 0)
(0.513574 -0.00331487 4.39524e-22)
(0.554853 0.0304586 0)
(0.520075 -8.00222e-05 1.55546e-20)
(0.522745 0.0409168 -1.49981e-20)
(0.584225 -0.0192845 1.50779e-19)
(0.518531 0.00245746 -6.64395e-21)
(0.513245 0.00113402 -7.69703e-22)
(0.496945 0.0214304 -2.141e-20)
(0.506333 -0.0124214 -6.04934e-21)
(0.516435 -0.00202148 -8.19222e-23)
(0.514545 0.00181778 -2.26721e-21)
(0.518167 0.000374585 -5.31123e-21)
(0.540612 -0.0198128 -3.41801e-20)
(0.501309 0.00101765 -1.11394e-20)
(0.550858 -0.103119 0)
(0.322342 -0.0376797 -1.6305e-21)
(0.511852 0.00246524 -2.68484e-22)
(0.51457 0.00182096 0)
(-0.00993926 -0.0146036 8.89355e-21)
(0.255135 0.0526331 5.15793e-20)
(0.504859 -0.0156201 1.28318e-21)
(0.535524 0.0291303 -3.4146e-20)
(0.521767 -0.00335375 -1.28419e-20)
(0.504231 -0.0161505 -5.60298e-23)
(0.517032 -0.00127106 1.15765e-20)
(0.55111 -0.101707 1.95692e-20)
(0.533944 0.00973535 -2.82402e-20)
(0.536365 -0.00646937 4.13493e-20)
(0.52967 0.0097653 6.58867e-21)
(0.536453 -0.00531151 1.28676e-20)
(0.5174 0.0167949 0)
(0.516584 -0.00410263 5.71079e-21)
(0.161873 -0.0256118 0)
(0.52365 0.00615893 1.86028e-20)
(0.537857 0.00831963 2.99854e-21)
(0.49368 0.0183631 -1.80772e-23)
(0.509292 -0.0098168 5.6967e-21)
(0.524778 0.00291326 2.66502e-20)
(0.0407361 -0.0205344 5.27748e-20)
(0.517113 -0.00208855 -6.54119e-21)
(0.584916 -0.01838 -1.6444e-19)
(0.468725 0.0686005 -4.60441e-21)
(0.513748 0.00638529 5.1303e-21)
(0.480263 -0.0513639 -5.22702e-20)
(0.39981 0.0294629 0)
(0.51631 0.0140813 -5.45708e-21)
(0.517123 -0.0234364 -1.53693e-22)
(0.522485 -0.00167249 -1.05638e-20)
(0.488193 -0.0304669 -1.69506e-20)
(0.50796 0.0120905 -2.77437e-22)
(0.517389 0.0164816 6.27586e-21)
(0.482729 -0.0101971 0)
(0.529481 -0.00772876 3.50593e-21)
(0.537885 0.108774 -2.16377e-21)
(0.522265 -0.00376414 -5.33841e-24)
(0.227399 -0.081638 4.86004e-20)
(0.579194 0.00192765 5.37871e-20)
(-0.00326547 -0.00724 0)
(-0.00296578 -0.00677561 -9.27826e-21)
(0.151928 -0.0249535 4.37943e-20)
(0.511673 0.000326599 -3.0764e-22)
(0.504696 0.0107489 -8.14937e-21)
(0.48898 -0.0410264 4.12372e-20)
(0.499456 0.00564354 0)
(0.500339 0.00107969 0)
(0.524559 0.0187809 -2.94688e-20)
(0.5002 -0.000334771 1.15689e-20)
(0.514507 -0.00108685 -8.01427e-21)
(0.522911 0.00138047 2.21296e-22)
(0.487534 -0.0304312 -4.02347e-20)
(0.540915 0.0110663 9.18738e-21)
(0.51061 0.00219146 0)
(0.50082 -0.00176399 0)
(0.517432 0.000748759 0)
(0.50124 0.000980164 0)
(0.500374 0.00109847 0)
(0.4959 0.00353385 0)
(0.520484 0.00132119 0)
(0.516279 0.00126828 0)
(0.516769 0.00279454 -3.51922e-21)
(0.504218 0.0103347 -2.03009e-20)
(0.499919 4.25101e-06 2.70626e-20)
(0.497237 0.0213184 0)
(0.500462 -0.000106665 0)
(0.532306 -0.00708209 -2.83948e-20)
(0.522436 0.00130281 -4.06441e-21)
(0.522918 0.00757708 -1.09621e-20)
(0.520406 0.0133608 -2.04427e-20)
(0.522353 -0.00378633 8.5389e-23)
(0.512189 0.00425294 -5.54475e-22)
(0.51949 0.00642299 -1.54784e-21)
(0.50739 0.00900941 2.4681e-22)
(0.517372 -0.00468741 -3.25857e-21)
(0.461313 0.0255394 0)
(0.541238 0.00273501 0)
(0.555804 0.0304183 5.75282e-23)
(0.552612 -0.0176866 0)
(0.324026 -0.0432083 -6.28195e-22)
(0.517543 -0.00116916 -3.41774e-23)
(0.516218 0.00124689 -4.11636e-21)
(0.517003 -0.00119841 -1.27508e-20)
(0.399027 0.0185901 9.06172e-22)
(0.454064 -0.0260813 -2.27103e-22)
(0.52039 0.00131613 -3.98859e-21)
(0.533489 0.00916949 3.71372e-20)
(0.527783 -0.0117395 -2.03775e-20)
(0.275833 -0.0749266 1.97377e-20)
(0.512146 -0.00547292 -1.56471e-22)
(0.504569 0.0106197 0)
(0.517044 -0.0024765 0)
(0.506319 -0.0122973 6.66242e-21)
(0.375462 -0.00698711 5.05343e-21)
(0.493025 0.0218277 1.40084e-20)
(0.531602 -0.00319538 1.93698e-22)
(0.533353 0.00246926 4.12833e-20)
(0.514735 0.00732973 3.64065e-21)
(0.516457 -0.00201693 -3.42382e-21)
(0.545791 0.017896 -1.65678e-20)
(0.507205 0.00893584 2.39002e-22)
(0.208175 0.0254455 6.80561e-20)
(0.375293 -0.00442399 -8.88117e-21)
(0.507111 0.039661 3.17998e-20)
(0.431563 0.0181773 4.57814e-21)
(0.513183 0.0024289 -3.4079e-24)
(0.402958 -0.0208335 -7.08825e-22)
(0.536732 -0.00632264 -4.13243e-20)
(0.515514 0.00964701 0)
(0.537854 -0.0118447 0)
(0.494165 0.00301289 1.15531e-20)
(0.509019 -0.0209472 0)
(0.462223 -0.0273804 -5.3222e-20)
(0.486374 -0.0184682 -1.00692e-20)
(0.48338 0.000285492 5.02647e-22)
(0.300441 -0.0461022 -7.27868e-20)
(0.523667 -0.00206626 3.52798e-20)
(0.523643 -0.0020156 -3.32421e-20)
(0.438316 -0.0152483 0)
(0.509469 -0.0229027 0)
(0.516742 0.00311332 0)
(0.482259 -0.00413624 -1.43717e-22)
(0.578747 0.134663 -8.76436e-22)
(0.516691 0.00309969 6.23355e-21)
(0.533195 0.00258853 -2.01292e-20)
(0.221018 -0.066751 0)
(0.529156 0.0107099 2.25708e-21)
(-0.0110883 -0.0165134 1.78629e-20)
(0.212278 0.02106 -1.80344e-20)
(0.527988 0.0152459 -1.61859e-20)
(0.504374 0.0103922 6.08055e-21)
(0.524054 -0.00644423 3.65735e-21)
(0.468075 -0.0410311 -8.05694e-20)
(0.467278 -0.0405199 7.1996e-20)
(0.494707 -0.0183676 0)
(0.479903 -0.058932 0)
(0.00872232 -0.0100949 -2.12323e-20)
(0.508522 -0.00121582 -2.28066e-22)
(0.508487 -0.00121976 2.10498e-22)
(0.524266 -0.011222 0)
(0.524231 0.0127289 4.127e-21)
(0.532719 0.0150799 -7.05935e-21)
(0.51749 -0.00475071 -2.81117e-21)
(0.499915 -0.00158066 4.58329e-21)
(0.482208 -0.00445841 2.03059e-22)
(0.459152 0.0035083 -7.49795e-21)
(0.520699 0.0134136 2.14849e-20)
(0.50881 0.00140192 -1.83266e-22)
(0.508795 0.00141796 0)
(0.526543 -0.0250897 -2.85114e-21)
(0.489462 -0.0403388 -1.68782e-20)
(0.470646 -0.0160218 0)
(0.503894 0.0802751 1.42031e-21)
(0.510858 -0.00355578 -4.03227e-22)
(0.507505 0.00731633 0)
(0.568535 0.00824735 -8.10285e-20)
(0.43908 0.00628422 -5.51939e-20)
(0.541187 0.0103961 -1.34931e-20)
(0.508665 -0.00658094 1.63755e-21)
(0.532956 -0.0205334 -2.6994e-20)
(0.351325 -0.293754 -3.8787e-22)
(0.496521 0.00291871 0)
(0.469847 0.0692328 -6.02541e-22)
(0.502643 0.079045 0)
(0.14005 -0.120472 0)
(0.483086 0.0200404 0)
(0.515383 0.0106487 -1.72689e-21)
(0.556481 0.15058 -3.49478e-20)
(0.530001 0.022632 -1.36928e-20)
(0.522098 -0.00438695 9.3749e-21)
(0.518529 -0.0143412 1.10456e-20)
(0.505698 0.0060886 0)
(0.531607 -0.00334387 0)
(0.50998 -0.00348762 0)
(0.523194 -0.0036798 6.71437e-21)
(0.509973 -0.00353273 -8.27292e-23)
(0.514947 0.00714244 2.09406e-21)
(0.535846 0.00790149 0)
(0.500108 0.00130911 1.6145e-20)
(0.540877 0.00245732 -1.33078e-20)
(0.518206 0.000139809 -2.30724e-20)
(0.500975 -0.00708694 0)
(0.453088 -0.0254889 1.45914e-20)
(0.520886 0.000675824 0)
(0.511077 0.0120525 -5.99669e-21)
(0.500238 -0.00297106 3.61163e-20)
(0.500228 -0.00036372 -5.00688e-20)
(0.533878 0.00503789 9.56142e-21)
(0.495083 -0.023127 2.02625e-20)
(0.469157 -0.00833742 2.39973e-22)
(0.551947 -0.0170079 0)
(0.530321 0.0225477 -4.91912e-21)
(0.523258 -0.00366441 -6.64756e-21)
(0.494969 -0.0182718 0)
(0.522316 0.00227951 4.10452e-20)
(0.523371 -0.133049 0)
(0.534967 0.0490178 1.58899e-20)
(0.462806 -0.0279282 0)
(0.512619 0.00265923 0)
(0.538154 -0.0116749 -3.10367e-21)
(0.259552 0.0573951 -5.17524e-20)
(0.462637 -0.0411169 -2.57592e-20)
(0.533678 0.00495555 0)
(0.546652 0.0153868 1.38784e-20)
(0.500094 0.0013426 4.72169e-23)
(0.206181 0.00678644 -2.8252e-20)
(0.50318 0.000879138 0)
(0.507619 -0.000578188 -1.07645e-22)
(0.439423 -0.0160635 -1.71321e-20)
(0.463601 -0.0404761 -1.11598e-20)
(0.373426 -0.00415762 -4.49664e-21)
(0.532406 -0.0204285 4.39267e-20)
(0.227829 -0.0966581 6.40393e-21)
(0.500556 -0.00247018 -2.51611e-20)
(0.520923 0.000722307 5.35362e-21)
(0.499512 0.00574403 -1.11041e-20)
(0.527605 -0.0114353 2.03231e-20)
(0.0446455 -0.00466185 -8.86842e-20)
(0.511751 0.00108176 2.30704e-22)
(0.512129 -0.00261962 -5.89449e-22)
(0.496609 -0.0295328 0)
(0.512162 0.0043652 0)
(0.517884 -0.0135943 8.66015e-21)
(0.520551 0.0228924 0)
(0.510634 0.00220809 0)
(0.279065 0.0928301 2.12781e-20)
(0.534927 0.0291192 2.80319e-20)
(0.511861 0.00142088 -3.94931e-23)
(0.512755 -0.00201697 0)
(0.483014 0.0204692 -3.70695e-22)
(0.500825 -0.00171835 0)
(0.53243 -0.00548952 1.85853e-20)
(0.499892 -0.0016154 1.85004e-20)
(0.514281 0.000346178 2.52789e-21)
(0.522203 0.00233083 -2.87873e-20)
(0.52337 0.0160987 -1.40645e-20)
(0.500035 0.0221988 9.32061e-21)
(0.534662 -0.00641142 1.64963e-20)
(0.518947 -0.00223058 0)
(0.513607 -0.0032688 0)
(0.519271 0.00083176 0)
(0.457043 0.0290541 3.76644e-22)
(0.31823 -0.0471737 1.41649e-19)
(0.0102529 -0.0110626 1.89553e-20)
(0.454027 0.00250192 5.32812e-21)
(0.542547 0.0472758 0)
(0.515861 -0.00108655 1.16839e-20)
(0.0449663 -0.0159755 0)
(0.490699 0.00379925 -8.52866e-21)
(0.403923 -0.0203801 1.29041e-21)
(0.521696 -0.00338481 0)
(0.51889 -0.00224598 0)
(0.508477 -0.00147309 0)
(0.591078 -0.000456588 -1.73624e-20)
(0.532334 -0.0071342 2.95221e-20)
(0.511994 0.00144307 5.608e-23)
(0.495505 -0.0231721 6.23154e-21)
(0.520474 -0.000500553 1.9293e-20)
(0.499997 0.00174315 -3.20627e-20)
(0.525177 0.00487992 -6.58463e-21)
(0.517372 0.000768792 0)
(0.523743 0.0170025 2.00197e-23)
(0.512278 -0.0100514 0)
(0.522968 0.0175367 -3.22652e-22)
(0.520411 -0.000534913 -1.48343e-20)
(0.496058 0.00356151 4.87163e-21)
(0.511728 0.00184716 1.11375e-23)
(0.501062 -0.00237745 0)
(0.517074 -0.00116194 -8.21231e-21)
(0.598569 0.0476544 0)
(0.510037 -0.0019732 0)
(0.512712 -0.00200388 0)
(0.53454 -0.00607832 -2.24525e-20)
(0.458355 -0.0999962 -2.31647e-20)
(0.513093 0.00313993 -8.34683e-21)
(0.505804 0.00613031 0)
(0.278152 0.239111 0)
(0.512119 0.00478656 0)
(0.51219 0.0048378 -1.59103e-23)
(0.508446 -0.00149903 0)
(0.226333 -0.00216242 0)
(0.550745 -0.0142532 -1.39999e-20)
(0.499516 -0.00308 -2.5267e-20)
(0.533564 -0.0226942 9.86224e-21)
(0.514469 -0.0010884 -5.40766e-21)
(0.519693 0.000421485 1.20395e-21)
(0.507939 0.025173 3.73838e-21)
(0.508157 0.124693 1.38422e-21)
(0.51299 -0.00564015 0)
(0.359749 -0.0699505 0)
(0.519317 0.000830974 4.65137e-22)
(0.514456 -0.00220074 -3.67344e-21)
(0.500519 -0.00246907 0)
(0.524289 -0.010927 0)
(0.40958 -0.0329321 -2.90957e-20)
(0.401038 0.031743 0)
(0.511228 0.000983049 -1.11901e-21)
(0.488341 0.0227889 -4.92782e-21)
(0.537812 -0.00542149 -3.27794e-20)
(0.413715 0.20419 -2.24997e-20)
(0.522435 0.000551585 -1.28033e-20)
(0.513579 0.000509995 0)
(0.512639 0.00271636 0)
(0.513731 0.0004128 0)
(0.439201 0.213737 -4.84048e-20)
(0.46159 -0.0353763 0)
(0.529571 0.0170443 4.01336e-20)
(0.53745 -0.00515237 0)
(0.530736 0.0175084 -4.566e-20)
(0.507719 0.03292 1.52958e-20)
(0.501062 -0.00712857 0)
(0.517802 -0.00384399 -1.11655e-20)
(0.461187 -0.0364297 0)
(0.500163 -0.000727656 3.08465e-20)
(0.498455 -0.000910148 0)
(0.559539 0.0437423 -3.2057e-22)
(0.499994 0.00168741 1.4391e-20)
(0.513155 0.00237117 0)
(0.549526 0.0157289 5.27501e-20)
(0.517022 -0.00116928 9.60131e-21)
(0.511935 0.00114089 -9.76457e-23)
(0.53465 0.0482952 0)
(0.0322588 -0.0654067 4.69865e-21)
(0.514611 -0.000590293 -3.29597e-21)
(0.494079 0.0264159 -6.46938e-21)
(0.512133 -0.00984005 -1.98587e-22)
(0.229663 -0.0653838 -3.31906e-20)
(0.519691 0.00044064 3.82002e-21)
(0.523875 -0.00993106 7.20783e-21)
(-0.00474833 -0.00907602 9.6891e-21)
(0.51584 -0.001047 0)
(-0.00339164 -0.00776319 2.37551e-21)
(0.548413 -0.0622665 -8.97889e-20)
(0.49967 0.0222715 9.49318e-21)
(0.513538 0.00122824 -8.82565e-23)
(0.503947 -0.00369786 8.58914e-20)
(0.504275 -0.0129718 0)
(0.502244 0.0016161 0)
(0.501179 -0.00512125 -4.53166e-21)
(0.524764 0.0166283 0)
(0.497367 0.003665 0)
(0.552736 0.15019 3.40159e-20)
(0.518253 0.000139441 1.82384e-20)
(0.507658 -0.000570162 3.43636e-24)
(0.491393 -0.00217346 -1.76439e-20)
(0.501018 0.000980079 2.70475e-24)
(0.499518 -0.000585251 4.34633e-20)
(0.513217 -0.00572557 0)
(0.498493 -0.0381404 1.12972e-20)
(0.508158 0.0327963 -9.74747e-21)
(0.50131 -0.00746032 9.21141e-21)
(0.514986 -0.0133709 1.66112e-21)
(0.50126 -0.00514594 0)
(0.51199 0.0102923 1.67917e-21)
(0.514412 -0.00226262 2.54754e-21)
(0.512066 0.0103902 -4.13801e-21)
(0.53226 0.0155357 3.50183e-21)
(0.500284 -0.00300566 -4.12404e-20)
(0.504785 0.00470702 -2.90819e-22)
(0.516355 0.00258538 5.83107e-21)
(0.500951 0.00281958 -2.70631e-20)
(0.524472 -0.000670697 1.21203e-20)
(0.517555 -0.000180359 1.10507e-21)
(0.527177 0.0160102 -2.55796e-20)
(0.279277 0.0862183 -1.30988e-20)
(0.502194 -0.00657787 -1.14333e-20)
(0.523444 0.00608308 -1.52862e-20)
(0.507951 0.0248747 -5.34295e-22)
(0.521736 -0.00187183 2.80038e-21)
(0.499645 -0.00144032 5.35409e-20)
(0.491743 0.0399192 -3.93859e-20)
(0.513299 0.003943 -2.53736e-21)
(0.520327 -0.00184957 -1.0777e-20)
(0.493884 0.0088085 1.53941e-20)
(0.525634 -0.0115765 3.10011e-21)
(0.527019 -0.000398212 1.99984e-20)
(0.391031 0.10854 5.2416e-20)
(0.500124 -0.000697998 -1.24252e-20)
(0.511848 0.00177118 2.14646e-23)
(0.513486 -0.000660844 -4.8223e-21)
(0.528062 0.015239 -9.27319e-22)
(0.503135 0.000850803 -3.35311e-21)
(0.560682 0.0112311 0)
(0.49896 0.000683792 0)
(0.500423 -0.000111668 0)
(0.526209 -0.0128052 0)
(0.501006 -0.00236581 0)
(0.598214 0.0471645 -4.28987e-20)
(0.518175 -0.00476737 0)
(0.540991 -0.0100288 3.2558e-22)
(0.523851 -0.00644555 0)
(0.527689 0.0151215 1.39971e-20)
(0.349198 -0.295624 1.36653e-21)
(-0.00501267 0.0113767 0)
(0.526249 -0.0121874 -2.28301e-23)
(-0.0797261 -0.00989754 -6.09803e-20)
(0.489171 0.0486225 1.23443e-21)
(0.511269 0.000976957 2.10637e-21)
(0.516407 0.00548319 0)
(0.48385 0.0489299 0)
(0.516274 -0.0179904 1.27301e-22)
(0.500999 0.00101792 -3.33601e-20)
(0.513941 -0.00172049 0)
(0.51844 -0.0168776 1.22932e-21)
(0.519931 1.09715e-05 4.59571e-21)
(0.523827 -0.0100323 0)
(0.50621 0.0840417 0)
(0.467637 0.00612851 -6.02528e-20)
(0.340041 -0.0378627 0)
(0.498863 -0.0117068 4.506e-23)
(0.0166166 -0.066756 0)
(0.52709 -0.000309549 2.09102e-20)
(0.0117081 -0.0120138 -1.21605e-22)
(0.521125 -0.0125094 0)
(0.508482 -0.00510165 -6.62299e-23)
(0.477343 0.000281241 0)
(0.508608 -0.00499338 0)
(0.490663 0.0272308 0)
(0.495568 -0.00929467 1.87144e-20)
(0.487183 0.00724676 -6.74831e-20)
(0.52436 0.0129826 0)
(0.533855 0.0129687 1.19288e-20)
(0.497304 -0.000913038 -4.32713e-21)
(0.498708 -0.0117107 -1.90391e-20)
(0.46611 -0.00843791 0)
(0.478636 0.0352052 -2.95467e-20)
(0.509666 0.00252206 -8.55727e-23)
(0.519298 0.000391838 -1.42755e-20)
(0.561368 0.0113789 0)
(0.522434 -0.00483404 4.71123e-20)
(0.51338 0.00395001 -5.17511e-23)
(0.500895 0.00282443 2.70579e-20)
(0.544858 -0.00512889 -5.17138e-20)
(0.558645 0.0428128 -7.39553e-20)
(0.51858 0.00764529 4.84729e-21)
(0.481093 -0.00267354 -2.79711e-20)
(0.523192 -0.00363283 -2.70974e-20)
(0.521591 0.00956744 5.97834e-21)
(0.502569 0.00790813 0)
(0.477806 0.000385532 2.64422e-20)
(0.325695 0.0484186 7.80706e-20)
(0.516281 0.00542195 1.08065e-21)
(0.514154 0.00444662 0)
(0.521842 -0.0123887 2.56441e-22)
(0.516536 0.000863865 0)
(0.582647 0.00273585 -4.18256e-20)
(0.519769 0.00110902 0)
(0.491148 0.00266203 0)
(0.527272 0.00201259 0)
(0.517425 -1.9465e-05 1.03193e-21)
(0.574771 -0.0331694 1.17229e-20)
(0.511291 0.00298516 0)
(0.416109 0.00843426 3.28155e-21)
(0.499863 -0.00267605 1.32911e-20)
(0.502255 -0.00134381 0)
(0.499979 0.0187942 -2.94932e-20)
(0.467937 0.00553167 5.42073e-20)
(0.478458 0.0356721 0)
(0.459525 -0.0984965 2.39737e-20)
(0.489997 0.0174251 3.58196e-20)
(0.528206 0.00953451 -8.07374e-21)
(0.242946 -0.0725303 -9.25447e-20)
(0.520438 -0.00190914 -4.25413e-21)
(0.52035 0.00266899 0)
(0.498511 -0.0374838 0)
(0.519978 0.00228673 0)
(0.519301 0.00037107 1.28474e-20)
(0.505947 0.039284 3.0412e-21)
(0.519935 2.27671e-06 0)
(0.517846 -0.00396179 0)
(0.0809527 0.0318151 -9.28923e-21)
(0.42233 0.00668081 -6.81355e-21)
(0.497159 -0.0296075 -2.38927e-20)
(0.518571 -0.0164715 0)
(0.516565 0.000891085 0)
(0.527769 0.0184229 1.4891e-20)
(0.510878 -0.00383236 4.1676e-22)
(0.315142 -0.0613014 1.14757e-20)
(0.490202 0.0171405 0)
(0.515074 0.011121 -1.69487e-21)
(0.501622 0.000374594 1.1302e-20)
(0.516614 0.00153358 0)
(0.520311 -0.0132607 1.0115e-20)
(0.519446 -0.00019692 -8.75879e-21)
(0.514666 -0.000614574 -3.08039e-21)
(0.544268 -0.00218173 6.3688e-20)
(0.510005 -0.00195833 -2.30409e-22)
(0.497229 -0.000841547 2.82197e-20)
(0.4916 -0.00215744 -4.32906e-20)
(0.462246 0.15052 3.96163e-21)
(0.511193 0.00566292 -1.76085e-22)
(0.403965 -0.0805994 -2.27531e-21)
(0.52179 0.00635382 0)
(0.485767 -0.0196223 -4.62728e-20)
(0.43505 -0.0362975 -2.87881e-20)
(0.520712 -0.000693779 9.10214e-21)
(0.500489 -0.00370044 -4.34952e-21)
(0.513982 -0.00171586 0)
(0.394586 0.110719 -4.02344e-20)
(0.52876 -4.58488e-05 0)
(0.522383 -0.00416296 0)
(0.43835 -0.0640896 -2.4117e-21)
(0.539723 -0.0299737 0)
(0.525126 0.00455833 5.67344e-21)
(0.0998782 0.106584 -4.76585e-20)
(0.500294 0.0189328 2.66046e-20)
(0.496564 -0.0689569 7.25599e-20)
(0.511231 0.0119452 7.099e-21)
(0.540363 0.00761283 5.57114e-20)
(0.494123 0.00870402 -2.75975e-21)
(0.503104 -0.000629537 1.11489e-20)
(0.502694 0.00794711 1.66001e-20)
(0.511687 -0.00228062 7.22506e-22)
(0.515415 -0.00102605 0)
(0.510916 0.00236972 0)
(0.545327 -0.00478324 5.01688e-20)
(0.526016 -0.00251459 1.39098e-20)
(0.495005 -0.00306402 -2.39709e-20)
(0.500531 -0.00373144 1.46227e-20)
(0.514034 0.0043317 9.16482e-22)
(0.48344 3.36695e-05 -3.72526e-22)
(0.52345 -0.00920144 2.54405e-21)
(0.510971 0.00239951 -2.78672e-22)
(0.508431 0.122306 -3.50653e-21)
(0.533296 0.0123825 -2.05488e-20)
(0.571908 -0.0352486 -8.39861e-20)
(0.432727 0.0377107 4.00694e-20)
(0.287224 0.234715 0)
(0.501215 -0.00739115 -1.06598e-20)
(0.52138 -0.00266593 0)
(0.509804 -0.000688633 -1.06112e-21)
(0.48734 0.00305816 -4.55302e-22)
(0.515371 -0.00101798 0)
(0.528542 -0.000148079 1.00819e-20)
(0.506686 0.010504 0)
(0.5129 -0.00179101 -2.85209e-21)
(0.512942 -0.00179585 -1.55339e-21)
(0.503023 -0.0108633 1.01356e-20)
(0.139337 -0.00674868 6.87399e-20)
(0.518219 -0.000528873 -2.32793e-20)
(0.508434 -0.00070474 -6.39727e-22)
(0.48673 -0.0186543 5.5172e-20)
(0.537239 -0.046671 -3.22474e-21)
(0.481254 -0.00286645 -6.26944e-22)
(0.487724 0.00281463 -1.31206e-22)
(0.516431 0.00269542 -4.89388e-21)
(0.559208 0.188161 2.09037e-20)
(0.51045 -0.00406584 9.34547e-23)
(0.51078 -0.00211421 0)
(0.514006 -0.00191597 0)
(0.519152 0.00298129 -8.40902e-21)
(0.536872 -0.0460477 3.36604e-21)
(0.518227 -0.000492798 1.4775e-20)
(0.523072 -0.00194167 0)
(0.519212 0.0039502 7.02988e-21)
(0.551438 -0.00560528 0)
(0.523403 -0.00127188 1.35044e-20)
(0.549394 -0.0137023 0)
(0.576515 0.135917 2.26731e-20)
(0.51979 0.00107951 1.31028e-20)
(0.504507 0.0129227 0)
(0.510812 -0.00215653 -1.28617e-21)
(0.5196 -0.000267932 -1.70928e-20)
(0.486415 0.0202647 0)
(0.519047 0.00300012 -1.50694e-20)
(0.518291 0.00638884 -5.12633e-21)
(0.212202 -0.0633875 -3.28673e-21)
(0.509778 -0.000638032 -8.542e-22)
(0.500976 0.0319359 0)
(0.489892 -0.00935279 0)
(0.478228 0.00682822 6.74656e-21)
(0.515931 0.00183793 -4.60832e-21)
(0.561022 0.0321401 0)
(0.521652 0.00622548 0)
(0.541309 -0.00987693 0)
(0.490663 0.00343727 -3.02775e-20)
(0.522441 0.00050967 1.1585e-20)
(0.545362 0.00774752 0)
(0.525866 -0.0125777 -6.53253e-21)
(0.499607 -0.00147944 -3.59333e-20)
(0.512621 0.0016018 3.12342e-21)
(0.523352 -0.00129961 0)
(0.519692 -0.0205582 -3.81401e-21)
(0.500608 -0.00488694 0)
(0.516412 -0.0185586 0)
(0.499285 0.00247826 -1.29993e-20)
(0.517548 0.000983605 8.14804e-21)
(0.176501 -0.158998 3.18135e-21)
(0.485231 0.00296604 2.12886e-20)
(0.530803 -0.0206538 1.52729e-20)
(0.543783 -0.00200196 -6.79827e-20)
(0.511559 0.00251184 -1.09653e-22)
(0.512656 0.00163787 0)
(0.481118 -0.0587847 0)
(0.479919 0.0209123 0)
(0.5178 -0.00119055 0)
(0.090716 0.0417617 1.97923e-20)
(0.502823 -0.0070858 -4.7201e-21)
(0.462704 0.025691 -1.26218e-22)
(0.500025 0.000215602 2.29806e-20)
(0.495034 -0.0029767 0)
(0.530693 -0.0209095 -2.84767e-20)
(0.517787 -0.00114984 0)
(0.0145641 -0.00645545 6.56112e-20)
(0.487883 -0.0105806 -5.24668e-20)
(0.519453 -0.000147397 7.40474e-21)
(0.519316 0.00390254 -7.39988e-21)
(0.515075 0.0019746 0)
(0.0178116 -0.055812 -2.68317e-20)
(0.520047 -0.0132818 1.08898e-20)
(0.498431 -0.0178319 0)
(0.514209 0.00229275 -3.43123e-21)
(0.523137 -0.00202047 0)
(0.474318 0.00621392 0)
(0.433322 0.0364122 -4.00806e-20)
(0.514103 0.00228021 2.08343e-23)
(0.545398 0.00721278 0)
(0.41004 -0.0123186 -4.93076e-22)
(0.479288 0.0249824 0)
(0.52279 -0.00888698 1.98228e-21)
(0.499588 0.00359946 -1.5978e-20)
(0.521152 0.00971223 -2.54076e-21)
(0.325355 0.0521182 -8.2723e-20)
(0.523533 0.00594771 -7.80373e-21)
(0.517992 0.00510877 0)
(0.55137 -0.0050737 -1.98967e-20)
(0.547664 -0.0630621 1.02739e-19)
(0.462778 0.0267249 0)
(0.500018 0.000188129 0)
(0.498168 -0.0178149 1.99824e-20)
(0.589078 0.00156521 5.92844e-20)
(0.523219 -0.00360303 0)
(0.373328 0.029346 -5.84172e-20)
(0.500566 0.0116045 -2.13194e-22)
(0.487493 0.00734177 7.49938e-20)
(0.465623 0.0576912 3.00836e-20)
(0.0114724 0.0636186 -8.15824e-20)
(0.502237 -0.00649084 0)
(0.499642 0.00362261 -5.72226e-21)
(0.511136 -0.00856226 4.44217e-21)
(0.535423 -0.0968847 -1.18357e-20)
(0.504673 0.0129043 0)
(0.516037 -0.0010491 -5.71717e-21)
(0.513974 -0.00186995 0)
(0.511619 0.002922 3.79149e-22)
(0.517605 -0.00116384 -1.01716e-20)
(0.509301 -0.00283924 0)
(0.518113 0.0050637 -2.07013e-21)
(0.51118 0.00547489 -5.80661e-22)
(0.487265 -0.0479594 0)
(0.513972 -0.00209519 -2.27699e-22)
(0.503605 0.000364114 1.97696e-20)
(0.398214 -0.0860298 -4.58788e-21)
(0.50002 9.52229e-07 4.93371e-20)
(0.519561 -0.000221355 2.20846e-20)
(0.523881 -0.130837 0)
(0.581595 -0.0822417 0)
(0.514467 -0.0140477 5.15666e-22)
(0.527439 0.00206817 0)
(0.307991 -0.00203406 0)
(0.534892 -0.0232837 7.90944e-21)
(0.0508365 -0.00404285 6.2038e-20)
(0.535241 -0.0183612 1.43665e-20)
(0.5032 -0.000583463 0)
(0.536387 -0.0051096 -2.43682e-20)
(0.511773 -0.00230909 -7.77251e-22)
(0.541721 0.00165901 0)
(0.580477 -0.0833274 0)
(0.512897 0.00272571 -4.47072e-22)
(0.504015 0.00712832 0)
(0.531377 0.00310017 2.89121e-21)
(0.502852 0.00215705 -1.14713e-21)
(0.479267 0.0371527 1.35994e-20)
(0.525541 -0.00615514 0)
(0.508795 0.0119425 -7.45126e-21)
(0.50372 0.000359702 -4.16734e-21)
(0.128483 -0.00610705 -7.19367e-20)
(0.475043 0.126269 4.84585e-21)
(0.51657 0.00149296 0)
(0.522558 0.000262314 0)
(0.43642 -0.0105859 0)
(0.515726 -0.00123407 -3.81979e-23)
(0.512481 0.0011231 2.51011e-22)
(0.511613 0.00291619 -6.18353e-22)
(0.514279 -0.00645225 -2.06857e-21)
(0.528873 0.00399265 -3.99416e-20)
(0.487975 -0.0230647 -1.15397e-20)
(0.501308 0.000860203 0)
(0.50972 -0.00615824 -7.73184e-22)
(0.498979 0.00284093 4.27e-20)
(0.506588 0.00566222 -4.16603e-22)
(0.520888 -0.0100618 -6.42794e-21)
(0.516125 -0.000891642 3.13186e-22)
(0.509141 -0.000177056 5.75818e-21)