/*--------------------------------*- C++ -*----------------------------------*\
  =========                 |
  \\      /  F ield         | OpenFOAM: The Open Source CFD Toolbox
   \\    /   O peration     | Website:  https://openfoam.org
    \\  /    A nd           | Version:  9
     \\/     M anipulation  |
\*---------------------------------------------------------------------------*/
FoamFile
{
    format      ascii;
    class       volScalarField;
    location    "50";
    object      nut;
}
// * * * * * * * * * * * * * * * * * * * * * * * * * * * * * * * * * * * * * //

dimensions      [0 2 -1 0 0 0 0];

internalField   nonuniform List<scalar> 
10720
(
0.0727066
0.0753694
0.0774948
0.0788032
0.0794177
0.0785893
0.0757048
0.0698946
0.0598505
0.0446356
0.0247221
0.0136263
0.0177963
0.022961
0.0229421
0.0212167
0.0184598
0.015008
0.0148455
0.0214063
0.0292146
0.0361048
0.0416987
0.0462781
0.0499133
0.0526158
0.0545355
0.0557458
0.0563581
0.0565532
0.0565591
0.0565577
0.0566449
0.0567975
0.0566857
0.0554758
0.0515369
0.0436693
0.0374682
0.0701373
0.0674326
0.0645458
0.0612744
0.057749
0.053909
0.0497349
0.0452555
0.0405547
0.0357115
0.0307125
0.025557
0.0201443
0.0146774
0.0122793
0.0111877
0.0109955
0.0139985
0.016559
0.0186089
0.0204547
0.022278
0.0241578
0.0261025
0.0280711
0.0300015
0.0318583
0.033625
0.0352914
0.0368555
0.0383275
0.0397147
0.0410375
0.0423224
0.0436814
0.0451447
0.0471157
0.0488177
0.0552286
0.0677576
0.0668474
0.0663575
0.0664602
0.068165
0.0719897
0.0770673
0.0824709
0.0870318
0.088937
0.0863126
0.0806371
0.0835867
0.0937609
0.0794058
0.0713124
0.0738607
0.0696907
0.0626344
0.0616236
0.0628868
0.0624566
0.0602272
0.058074
0.0586425
0.0585482
0.0581225
0.0572922
0.05569
0.0532579
0.050342
0.0472413
0.0444053
0.0425174
0.042808
0.0469317
0.0582036
0.0807384
0.100237
0.0684472
0.0687786
0.0692644
0.069246
0.0689201
0.0682173
0.0669782
0.0651507
0.0628332
0.0602153
0.0573132
0.0542852
0.0513008
0.048412
0.0455281
0.0426699
0.03998
0.0374315
0.0351761
0.0331707
0.0313741
0.0297606
0.0283159
0.0269755
0.0257534
0.024683
0.0237665
0.0230091
0.0224093
0.0219641
0.0216751
0.0215349
0.0215255
0.0216579
0.0222866
0.0233965
0.0249697
0.0260637
0.0263639
0.0962079
0.0952527
0.0936403
0.092198
0.0906789
0.0887968
0.0870426
0.0861614
0.0855977
0.0888997
0.094841
0.101169
0.110269
0.130058
0.147296
0.138361
0.105166
0.0980042
0.0900159
0.0885899
0.097105
0.108175
0.119587
0.125573
0.127801
0.127691
0.126732
0.125391
0.122409
0.117209
0.110016
0.101499
0.0929624
0.0863051
0.084055
0.0899348
0.110641
0.153408
0.193586
0.0970175
0.0974317
0.0979566
0.0980488
0.0978507
0.0973144
0.0962927
0.0947065
0.0926105
0.0901141
0.0872192
0.0840406
0.080708
0.0772993
0.0738661
0.0704771
0.0671583
0.0640177
0.0610977
0.0583568
0.0557761
0.0533395
0.0510292
0.0487509
0.0464514
0.044176
0.0419448
0.0397768
0.0376817
0.0356821
0.0338188
0.032099
0.0305253
0.0291107
0.0279042
0.0269248
0.0266652
0.0286654
0.022577
0.111399
0.110647
0.109475
0.107884
0.105959
0.103383
0.101321
0.099156
0.0962763
0.094018
0.0929023
0.0971897
0.107442
0.128405
0.163061
0.189772
0.176629
0.150282
0.141321
0.153629
0.169449
0.185084
0.197713
0.205932
0.211088
0.214043
0.215016
0.213561
0.209022
0.200998
0.189558
0.175449
0.160362
0.147024
0.138652
0.141071
0.164763
0.222538
0.291236
0.111992
0.112346
0.11271
0.112828
0.112726
0.112381
0.111706
0.110644
0.109207
0.107427
0.105296
0.102864
0.100199
0.0973513
0.0943714
0.0913113
0.0881982
0.0851202
0.0821352
0.0792402
0.0764396
0.0737288
0.0710935
0.0684469
0.0657295
0.0629892
0.0602525
0.0575447
0.0548866
0.0522851
0.0497665
0.0473537
0.0450601
0.0429172
0.0409686
0.0393419
0.0376781
0.0386371
0.0319043
0.120138
0.119631
0.118841
0.117761
0.116409
0.114549
0.112235
0.109853
0.107361
0.104451
0.100703
0.0981562
0.100532
0.112904
0.143845
0.193343
0.2262
0.21746
0.211324
0.222551
0.239605
0.256623
0.271507
0.28382
0.293937
0.301966
0.307237
0.308496
0.304681
0.295255
0.280569
0.262068
0.241892
0.221732
0.204177
0.198603
0.218602
0.282964
0.376377
0.120531
0.120772
0.121014
0.121101
0.121041
0.120823
0.120392
0.119704
0.11876
0.117568
0.11612
0.114431
0.112527
0.110431
0.108176
0.105778
0.103255
0.100665
0.0980574
0.0954446
0.0928434
0.0902565
0.0876774
0.0850313
0.0822641
0.0794182
0.0765218
0.0736034
0.0706881
0.0677905
0.0649394
0.0621654
0.0594927
0.0569606
0.0545952
0.0525651
0.0505059
0.0510058
0.0453197
0.125469
0.125102
0.124528
0.123746
0.12278
0.121529
0.119917
0.117872
0.115526
0.113165
0.110172
0.106351
0.103073
0.104037
0.119471
0.162329
0.227005
0.267126
0.273443
0.285794
0.304372
0.323849
0.34213
0.358642
0.37335
0.386129
0.395916
0.400847
0.399162
0.389733
0.372835
0.350594
0.326382
0.3028
0.280687
0.263805
0.272808
0.332299
0.434096
0.125747
0.125917
0.12608
0.126138
0.12609
0.125932
0.125629
0.125159
0.124516
0.123706
0.122722
0.121569
0.120255
0.118786
0.117181
0.115436
0.11355
0.111555
0.109484
0.107348
0.105163
0.102933
0.100652
0.0982617
0.0957119
0.093035
0.0902561
0.0874013
0.0844953
0.0815562
0.0786152
0.0757078
0.0728649
0.070136
0.067553
0.0652997
0.0630527
0.0632391
0.0584033
0.12901
0.128756
0.12835
0.1278
0.127114
0.126213
0.12507
0.123642
0.121771
0.1196
0.117321
0.114388
0.110646
0.106632
0.107641
0.129269
0.18835
0.270345
0.321335
0.343123
0.365125
0.38804
0.409904
0.429924
0.448159
0.464754
0.478681
0.487699
0.489266
0.481316
0.463537
0.438332
0.410303
0.383611
0.359482
0.337692
0.329358
0.372937
0.473013
0.129194
0.129301
0.129399
0.129424
0.129371
0.129242
0.129013
0.12867
0.128209
0.127634
0.126945
0.126143
0.125231
0.124209
0.123085
0.121845
0.120483
0.119013
0.117452
0.115806
0.114083
0.112283
0.110401
0.108389
0.106201
0.103859
0.101379
0.0987817
0.096086
0.0933097
0.0904817
0.0876377
0.0848122
0.0820596
0.0794187
0.0770795
0.0747667
0.0747016
0.0706208
0.131467
0.131288
0.13099
0.130582
0.130073
0.129407
0.128593
0.127727
0.126624
0.125086
0.123111
0.12071
0.117715
0.113705
0.109161
0.112468
0.145376
0.226758
0.328211
0.389618
0.421293
0.449036
0.474736
0.497803
0.518633
0.538023
0.555418
0.568517
0.574093
0.568965
0.55179
0.524721
0.493253
0.463123
0.436534
0.411739
0.390492
0.408715
0.499008
0.131583
0.131639
0.131687
0.131684
0.131622
0.131507
0.131323
0.131059
0.130712
0.130287
0.129787
0.129214
0.128569
0.127851
0.12706
0.126176
0.125199
0.124131
0.12298
0.121745
0.120431
0.119034
0.117546
0.115927
0.114139
0.112192
0.110094
0.107857
0.105492
0.103012
0.100441
0.0978097
0.0951523
0.0925227
0.0899633
0.0876603
0.085391
0.0851249
0.0817098
0.133247
0.133128
0.132913
0.132612
0.132234
0.131737
0.131147
0.130539
0.129837
0.128917
0.127595
0.125735
0.12333
0.120213
0.115748
0.111352
0.120303
0.17164
0.281718
0.400966
0.468126
0.505574
0.536262
0.562535
0.58545
0.606709
0.626691
0.643493
0.653468
0.652297
0.637265
0.60973
0.57559
0.541936
0.51203
0.483509
0.454662
0.443763
0.514897
0.133308
0.133322
0.133329
0.133303
0.13323
0.133122
0.132966
0.132754
0.132483
0.132158
0.131785
0.131366
0.130901
0.130391
0.129826
0.12919
0.128484
0.127707
0.12686
0.125942
0.124952
0.123886
0.122735
0.121465
0.120046
0.118479
0.116767
0.114913
0.112922
0.110801
0.108564
0.106237
0.103849
0.101449
0.0990785
0.0969115
0.0947757
0.0943657
0.0915256
0.134565
0.134491
0.134337
0.134113
0.133829
0.13345
0.133035
0.13262
0.132136
0.13153
0.130706
0.129486
0.127714
0.125313
0.121962
0.11702
0.114
0.133919
0.212725
0.354308
0.484937
0.553284
0.593263
0.624009
0.64916
0.671659
0.693258
0.713046
0.727418
0.731079
0.719714
0.693363
0.657759
0.620991
0.58729
0.55368
0.515377
0.481733
0.523194
0.134586
0.134569
0.134543
0.134499
0.134418
0.134313
0.134176
0.134
0.133782
0.133526
0.13324
0.132928
0.132591
0.132223
0.131813
0.131351
0.130837
0.130267
0.129641
0.128957
0.128212
0.127402
0.126517
0.125532
0.124421
0.123183
0.121815
0.120316
0.118685
0.116925
0.115043
0.113056
0.110987
0.108876
0.106763
0.104801
0.102863
0.102367
0.100016
0.135564
0.135524
0.135416
0.135252
0.135039
0.134763
0.134486
0.1342
0.133854
0.133418
0.132857
0.132078
0.13092
0.129201
0.126749
0.123052
0.117804
0.11898
0.157471
0.271642
0.441477
0.575342
0.641714
0.681108
0.709794
0.733516
0.755901
0.777702
0.796055
0.805084
0.798814
0.775488
0.740053
0.70115
0.663822
0.624465
0.575951
0.52457
0.526599
0.135558
0.135521
0.135469
0.13541
0.135324
0.13522
0.135095
0.134944
0.134764
0.134558
0.134335
0.1341
0.133854
0.133584
0.133283
0.132944
0.132566
0.132145
0.131679
0.131167
0.130604
0.129988
0.129308
0.128545
0.127679
0.126706
0.125624
0.124428
0.123114
0.121681
0.120132
0.118478
0.116733
0.114931
0.113105
0.111384
0.10968
0.109147
0.107205
0.136343
0.136327
0.136255
0.136137
0.135979
0.135791
0.135598
0.135397
0.135151
0.134836
0.13443
0.133893
0.133142
0.132012
0.1303
0.12772
0.123559
0.118788
0.129176
0.19504
0.348004
0.537678
0.667682
0.729981
0.766267
0.79238
0.815239
0.838042
0.859572
0.874088
0.87413
0.855772
0.822519
0.783023
0.74293
0.698
0.638199
0.564903
0.528867
0.136319
0.136269
0.1362
0.136129
0.136037
0.135932
0.135815
0.135682
0.135529
0.135359
0.135183
0.135004
0.134821
0.13462
0.134397
0.134146
0.133866
0.133552
0.133205
0.132819
0.132393
0.131922
0.131398
0.130806
0.13013
0.129367
0.128513
0.127563
0.126513
0.125358
0.1241
0.122744
0.1213
0.119794
0.118252
0.116781
0.115319
0.114789
0.113187
0.136968
0.136971
0.136927
0.136848
0.136736
0.136611
0.136475
0.136338
0.136167
0.13594
0.135641
0.135245
0.134717
0.133972
0.132841
0.131089
0.128268
0.123633
0.121428
0.147813
0.248601
0.437679
0.636736
0.758356
0.814735
0.847195
0.871396
0.894557
0.918234
0.937891
0.945132
0.933659
0.904888
0.866851
0.82548
0.775801
0.704682
0.608539
0.534078
0.136933
0.136875
0.136797
0.136715
0.136615
0.136507
0.136394
0.136273
0.136141
0.135998
0.135857
0.135719
0.13558
0.135427
0.13526
0.135072
0.134863
0.134629
0.134368
0.134077
0.133753
0.133392
0.132988
0.132527
0.131998
0.131398
0.130724
0.12997
0.129132
0.128205
0.12719
0.126088
0.124907
0.123665
0.122383
0.121148
0.119918
0.119416
0.118094
0.137483
0.137501
0.137481
0.137433
0.137355
0.137268
0.13718
0.137099
0.136984
0.136816
0.136588
0.136287
0.135891
0.135362
0.134608
0.133453
0.131606
0.1284
0.123771
0.128464
0.177813
0.316748
0.534121
0.732968
0.843734
0.894108
0.923374
0.947347
0.972288
0.996345
1.01122
1.00838
0.986548
0.952444
0.911852
0.85886
0.77714
0.65904
0.545952
0.13744
0.13738
0.137297
0.137206
0.137098
0.136984
0.136871
0.136758
0.136641
0.13652
0.136406
0.136297
0.136187
0.136069
0.135941
0.135799
0.135642
0.135466
0.13527
0.13505
0.134803
0.134526
0.134214
0.133855
0.13344
0.132968
0.132434
0.131835
0.131166
0.130423
0.129605
0.128712
0.127751
0.126735
0.125681
0.124655
0.123634
0.123175
0.12208
0.137916
0.137945
0.137943
0.137916
0.137861
0.137797
0.137749
0.137701
0.137618
0.137487
0.137308
0.137074
0.136772
0.136377
0.135844
0.135076
0.133879
0.131853
0.128201
0.125272
0.14184
0.21974
0.39494
0.6298
0.821643
0.922025
0.967393
0.995487
1.0217
1.0493
1.07175
1.07894
1.06652
1.03913
1.00187
0.947578
0.856449
0.717364
0.568886
0.137866
0.137806
0.137722
0.137625
0.137508
0.137386
0.13727
0.137162
0.137057
0.136953
0.136861
0.136773
0.136683
0.136589
0.136489
0.13638
0.136261
0.136128
0.13598
0.135813
0.135626
0.135413
0.135171
0.134891
0.134566
0.134194
0.133772
0.133295
0.13276
0.132164
0.131505
0.130783
0.130003
0.129175
0.128311
0.127465
0.126623
0.126212
0.125303
0.138283
0.138319
0.138328
0.138312
0.138269
0.138219
0.138187
0.13815
0.138087
0.137988
0.137848
0.137663
0.137428
0.137126
0.13673
0.136191
0.135404
0.134137
0.131814
0.128108
0.129668
0.162856
0.27149
0.475882
0.718209
0.900873
0.992717
1.03541
1.06558
1.0964
1.12602
1.14419
1.14348
1.12573
1.09474
1.04166
0.942675
0.783177
0.594847
0.138228
0.138168
0.138085
0.137985
0.137859
0.137729
0.137609
0.137503
0.137407
0.137319
0.137243
0.13717
0.137094
0.137016
0.136937
0.136852
0.13676
0.136659
0.136547
0.136421
0.136278
0.136115
0.135928
0.135711
0.135456
0.135164
0.13483
0.134451
0.134023
0.133544
0.133013
0.132429
0.131796
0.131121
0.130416
0.12972
0.129028
0.128664
0.127905
0.138594
0.138633
0.138646
0.138633
0.138593
0.138548
0.138516
0.138482
0.138439
0.138369
0.138262
0.138113
0.137922
0.137682
0.137374
0.136974
0.136428
0.135615
0.134216
0.131583
0.128861
0.138239
0.191212
0.327898
0.55266
0.796852
0.970798
1.0569
1.10067
1.13669
1.1732
1.2028
1.21576
1.21054
1.18901
1.14009
1.03522
0.856538
0.628826
0.138534
0.138474
0.138393
0.138292
0.138161
0.138022
0.137896
0.137791
0.137703
0.137629
0.137565
0.137503
0.137439
0.137374
0.137309
0.137241
0.137169
0.137092
0.137006
0.13691
0.136801
0.136677
0.136533
0.136365
0.136166
0.135937
0.135675
0.135374
0.135033
0.134649
0.134221
0.133749
0.133236
0.132686
0.13211
0.131537
0.130969
0.13065
0.13001
0.138858
0.138898
0.138909
0.138893
0.138849
0.138801
0.138761
0.138732
0.138705
0.138656
0.138571
0.138446
0.138285
0.138087
0.137842
0.137532
0.137129
0.136575
0.135715
0.134122
0.131417
0.131393
0.151189
0.223941
0.383375
0.622473
0.866145
1.03311
1.11757
1.16721
1.21198
1.25327
1.28139
1.29139
1.28258
1.24113
1.13294
0.936807
0.672414
0.138794
0.13873
0.13865
0.138551
0.138416
0.13827
0.138141
0.138036
0.137955
0.137893
0.137838
0.137785
0.137731
0.137676
0.137621
0.137566
0.137509
0.137448
0.137383
0.137309
0.137227
0.137132
0.137022
0.136892
0.136738
0.136561
0.136355
0.136119
0.135849
0.135543
0.135199
0.134818
0.134402
0.133954
0.133484
0.133012
0.132544
0.132266
0.131723
0.139082
0.13912
0.139126
0.139103
0.139052
0.138995
0.138947
0.138921
0.138901
0.13886
0.138788
0.138679
0.138539
0.138372
0.138171
0.137925
0.137615
0.137213
0.136648
0.135705
0.133911
0.13174
0.136265
0.167339
0.257466
0.435594
0.685467
0.928118
1.09148
1.17961
1.23956
1.29373
1.33813
1.36565
1.37269
1.34231
1.23415
1.02272
0.725241
0.139014
0.138943
0.138862
0.138766
0.138629
0.138479
0.138347
0.138245
0.138169
0.138116
0.13807
0.138024
0.137978
0.137932
0.137886
0.13784
0.137794
0.137746
0.137695
0.137639
0.137576
0.137503
0.137419
0.13732
0.137202
0.137066
0.136908
0.136724
0.136512
0.13627
0.135996
0.13569
0.135353
0.13499
0.134605
0.134217
0.133831
0.133589
0.133123
0.139272
0.139306
0.139304
0.13927
0.139212
0.139144
0.139091
0.139064
0.139042
0.139006
0.138945
0.138849
0.138722
0.138573
0.138401
0.1382
0.137955
0.137646
0.137241
0.13665
0.13559
0.133724
0.132964
0.143029
0.184689
0.29023
0.48437
0.743388
0.987018
1.15151
1.24864
1.32119
1.38336
1.43028
1.456
1.44052
1.3364
1.11238
0.785238
0.1392
0.139121
0.139035
0.138943
0.138807
0.138654
0.138522
0.138422
0.138353
0.138306
0.138266
0.138227
0.138189
0.138151
0.138112
0.138074
0.138036
0.137997
0.137957
0.137914
0.137865
0.13781
0.137746
0.137671
0.137582
0.137479
0.137359
0.137219
0.137054
0.136864
0.136648
0.136404
0.136133
0.135838
0.135524
0.135205
0.134886
0.134676
0.134272
0.139432
0.139459
0.139448
0.139402
0.139337
0.139261
0.139202
0.139171
0.139146
0.139118
0.139073
0.138989
0.138869
0.138727
0.13857
0.138396
0.138192
0.137945
0.137635
0.137226
0.136589
0.135398
0.133758
0.135339
0.150888
0.202385
0.321913
0.530777
0.800502
1.04903
1.2195
1.32912
1.41359
1.48183
1.52859
1.53181
1.43643
1.20316
0.850021
0.139358
0.139271
0.139177
0.139088
0.138954
0.138802
0.13867
0.138574
0.13851
0.138468
0.138432
0.1384
0.138368
0.138337
0.138305
0.138273
0.138242
0.138211
0.138179
0.138145
0.138108
0.138066
0.138018
0.137961
0.137895
0.137818
0.137729
0.137623
0.137498
0.137351
0.137181
0.136988
0.136771
0.136533
0.136279
0.136016
0.135753
0.135572
0.135218
0.139563
0.139582
0.13956
0.139504
0.139434
0.139355
0.139291
0.139254
0.13923
0.139211
0.139175
0.139095
0.138975
0.138836
0.138688
0.138531
0.138358
0.138156
0.137906
0.137592
0.137165
0.136451
0.135172
0.134219
0.138412
0.159352
0.220086
0.352844
0.578316
0.863131
1.12065
1.30027
1.42244
1.51598
1.58588
1.61127
1.53
1.2915
0.916591
0.139493
0.1394
0.139295
0.139209
0.139078
0.138927
0.138798
0.138705
0.138645
0.138606
0.138574
0.138546
0.13852
0.138495
0.13847
0.138444
0.138418
0.138393
0.138368
0.138342
0.138313
0.138281
0.138245
0.138203
0.138154
0.138099
0.138033
0.137955
0.13786
0.137748
0.137616
0.137464
0.137292
0.137101
0.136895
0.13668
0.136463
0.136307
0.135996
0.139668
0.139679
0.139645
0.139582
0.13951
0.139433
0.139364
0.139323
0.1393
0.139285
0.139249
0.139163
0.139041
0.138907
0.138768
0.13863
0.13848
0.138307
0.138094
0.137831
0.137506
0.137052
0.136243
0.135073
0.135292
0.142124
0.168201
0.237645
0.385225
0.63268
0.937754
1.20623
1.39463
1.52591
1.62231
1.67275
1.61152
1.37265
0.981207
0.139606
0.139514
0.139398
0.139312
0.139186
0.139037
0.13891
0.138821
0.138762
0.138724
0.138695
0.138671
0.138649
0.138629
0.13861
0.13859
0.13857
0.13855
0.13853
0.13851
0.138488
0.138464
0.138437
0.138406
0.138371
0.138331
0.138284
0.138227
0.138158
0.138072
0.137971
0.137852
0.137716
0.137564
0.137398
0.137223
0.137043
0.13691
0.136637
0.139752
0.139752
0.139708
0.139641
0.139571
0.139497
0.139426
0.139382
0.139358
0.139338
0.139301
0.139215
0.139098
0.13898
0.138859
0.13873
0.138587
0.138425
0.138234
0.13801
0.137748
0.137432
0.136947
0.136112
0.1354
0.136873
0.146274
0.17713
0.25602
0.423141
0.70007
1.0281
1.305
1.49771
1.63001
1.70835
1.67339
1.44018
1.03916
0.139702
0.139614
0.139489
0.139405
0.139283
0.139136
0.139011
0.138924
0.138867
0.138828
0.138799
0.138777
0.138759
0.138743
0.138729
0.138714
0.138699
0.138684
0.138669
0.138654
0.138638
0.13862
0.138601
0.138578
0.138553
0.138526
0.138493
0.138453
0.138402
0.138338
0.138261
0.138168
0.138061
0.137941
0.137807
0.137665
0.137516
0.137405
0.137165
0.139818
0.139807
0.139754
0.139686
0.139618
0.139549
0.13948
0.139433
0.139403
0.13938
0.139347
0.139267
0.139164
0.139063
0.138958
0.138844
0.138716
0.138574
0.138414
0.138231
0.138023
0.137788
0.137496
0.137006
0.136357
0.13622
0.138853
0.150607
0.186329
0.277308
0.471639
0.784329
1.13146
1.40882
1.59612
1.70852
1.70493
1.48565
1.08438
0.139781
0.139702
0.139574
0.13949
0.139372
0.139226
0.139104
0.139019
0.138961
0.13892
0.13889
0.138869
0.138853
0.138841
0.13883
0.13882
0.138809
0.138799
0.138788
0.138777
0.138766
0.138754
0.13874
0.138725
0.138708
0.13869
0.138669
0.138641
0.138605
0.138558
0.138499
0.138428
0.138344
0.138248
0.138142
0.138027
0.137904
0.13781
0.137601
0.139867
0.139846
0.139787
0.13972
0.139656
0.13959
0.139526
0.139474
0.139439
0.139416
0.139391
0.139317
0.139229
0.139141
0.13905
0.138951
0.138839
0.138724
0.138608
0.138489
0.138355
0.138205
0.138047
0.137788
0.137372
0.13695
0.137299
0.14102
0.155016
0.19648
0.304582
0.53475
0.88217
1.2357
1.49974
1.66048
1.69454
1.49816
1.10917
0.139843
0.139775
0.139654
0.13957
0.139456
0.139311
0.13919
0.139106
0.139047
0.139003
0.138972
0.13895
0.138935
0.138925
0.138917
0.13891
0.138904
0.138897
0.13889
0.138883
0.138877
0.138869
0.138861
0.138852
0.138841
0.138831
0.138818
0.1388
0.138776
0.138742
0.138698
0.138643
0.138578
0.138502
0.138417
0.138324
0.138224
0.138146
0.137963
0.139906
0.139874
0.139812
0.139746
0.139685
0.139622
0.139564
0.139512
0.139472
0.139451
0.139426
0.139358
0.139285
0.139211
0.139133
0.139046
0.138954
0.138877
0.138816
0.138771
0.138715
0.138636
0.138542
0.13841
0.138188
0.137868
0.137662
0.138507
0.143236
0.159557
0.208816
0.341009
0.610549
0.978808
1.31757
1.54472
1.62828
1.46697
1.10297
0.139888
0.139834
0.139729
0.139646
0.139536
0.139389
0.139271
0.139188
0.139126
0.13908
0.139046
0.139023
0.139008
0.138998
0.138992
0.138988
0.138985
0.138982
0.138978
0.138975
0.138972
0.138969
0.138966
0.138961
0.138956
0.138952
0.138946
0.138936
0.138921
0.138898
0.138865
0.138824
0.138773
0.138714
0.138647
0.138572
0.138489
0.138426
0.138266
0.139934
0.139894
0.139829
0.139766
0.139707
0.139649
0.139596
0.139549
0.139506
0.139482
0.139452
0.139393
0.139333
0.139272
0.139207
0.139132
0.139071
0.139045
0.139036
0.13903
0.139017
0.138988
0.138948
0.138894
0.138801
0.138633
0.138418
0.138445
0.139759
0.145416
0.164447
0.225011
0.386427
0.685518
1.04682
1.34023
1.48612
1.37753
1.05652
0.139919
0.13988
0.139796
0.139716
0.13961
0.139461
0.139345
0.139263
0.1392
0.139151
0.139115
0.13909
0.139074
0.139064
0.139059
0.139057
0.139056
0.139056
0.139055
0.139055
0.139056
0.139056
0.139057
0.139057
0.139057
0.139057
0.139057
0.139054
0.139046
0.139032
0.139009
0.138978
0.13894
0.138893
0.13884
0.13878
0.138712
0.138662
0.138523
0.139953
0.139907
0.139843
0.139782
0.139726
0.139672
0.139624
0.139582
0.139542
0.13951
0.139478
0.139431
0.139383
0.139332
0.139274
0.13922
0.139203
0.139204
0.139215
0.139233
0.139249
0.139259
0.139262
0.139261
0.139248
0.139196
0.13909
0.138995
0.139256
0.140993
0.147467
0.170197
0.245668
0.431958
0.73295
1.04738
1.25168
1.21512
0.959444
0.139942
0.139914
0.139852
0.139781
0.139679
0.139527
0.139411
0.139331
0.139267
0.139217
0.139179
0.139152
0.139134
0.139124
0.139119
0.139118
0.139119
0.139121
0.139124
0.139126
0.13913
0.139134
0.139138
0.139142
0.139146
0.139151
0.139155
0.139158
0.139156
0.139149
0.139134
0.139112
0.139083
0.139047
0.139006
0.138958
0.138903
0.138863
0.138742
0.139966
0.139917
0.139854
0.139796
0.139743
0.139693
0.139649
0.139612
0.139577
0.139543
0.13951
0.139472
0.139433
0.139388
0.13934
0.139322
0.139324
0.139336
0.139359
0.139389
0.139425
0.139461
0.139495
0.139531
0.139567
0.139591
0.139584
0.139549
0.139581
0.140066
0.142114
0.149372
0.177324
0.266819
0.457909
0.718128
0.937688
0.976963
0.807662
0.139957
0.139938
0.139893
0.139835
0.13974
0.139584
0.13947
0.139391
0.139328
0.139277
0.139238
0.13921
0.139191
0.13918
0.139176
0.139175
0.139177
0.139181
0.139185
0.139191
0.139197
0.139204
0.139211
0.139219
0.139227
0.139235
0.139243
0.139251
0.139254
0.139253
0.139244
0.13923
0.139209
0.139182
0.13915
0.139112
0.139068
0.139038
0.138931
0.139974
0.139924
0.139864
0.139809
0.139759
0.139713
0.139673
0.13964
0.139609
0.139578
0.139548
0.139516
0.139482
0.139441
0.139413
0.139415
0.139428
0.139448
0.139476
0.139514
0.13956
0.139611
0.139666
0.139725
0.139791
0.139859
0.139918
0.13996
0.140002
0.140165
0.140839
0.143
0.151331
0.184824
0.277915
0.440474
0.613693
0.692126
0.614638
0.139967
0.139954
0.139922
0.139877
0.139791
0.139634
0.13952
0.139443
0.139381
0.139331
0.139292
0.139264
0.139245
0.139234
0.139229
0.139229
0.139232
0.139237
0.139244
0.139251
0.139259
0.139268
0.139279
0.13929
0.139301
0.139312
0.139324
0.139335
0.139344
0.139347
0.139344
0.139336
0.139322
0.139302
0.139278
0.139249
0.139213
0.139191
0.139098
0.139978
0.13993
0.139874
0.139821
0.139774
0.139732
0.139697
0.139667
0.139639
0.139612
0.139586
0.139559
0.139528
0.139493
0.139486
0.139498
0.139518
0.139543
0.139576
0.139617
0.139667
0.139726
0.139792
0.139865
0.139946
0.140037
0.140134
0.14023
0.140325
0.140447
0.140741
0.141495
0.143645
0.1534
0.188739
0.266861
0.368729
0.433217
0.422255
0.139973
0.139963
0.13994
0.139906
0.13983
0.139676
0.139562
0.139486
0.139426
0.139378
0.139341
0.139314
0.139296
0.139286
0.139281
0.139282
0.139286
0.139292
0.1393
0.139308
0.139318
0.13933
0.139343
0.139356
0.13937
0.139385
0.1394
0.139414
0.139426
0.139434
0.139436
0.139433
0.139424
0.139411
0.139394
0.139371
0.139344
0.139328
0.139247
0.139979
0.139934
0.139882
0.139834
0.139791
0.139753
0.139721
0.139694
0.13967
0.139646
0.139623
0.1396
0.139573
0.139544
0.139549
0.13957
0.139596
0.139626
0.139661
0.139703
0.139755
0.139817
0.139887
0.139966
0.140055
0.140155
0.140269
0.140395
0.140529
0.140677
0.140887
0.141284
0.141973
0.144225
0.154692
0.184454
0.231585
0.269463
0.281984
0.139975
0.139967
0.139949
0.139924
0.139859
0.13971
0.139595
0.139521
0.139464
0.139418
0.139384
0.13936
0.139344
0.139335
0.139333
0.139334
0.139339
0.139346
0.139355
0.139365
0.139377
0.13939
0.139405
0.139421
0.139437
0.139454
0.139472
0.139489
0.139504
0.139516
0.139522
0.139523
0.139519
0.139512
0.1395
0.139484
0.139463
0.139453
0.139381
0.139978
0.139937
0.13989
0.139845
0.139807
0.139774
0.139746
0.139723
0.139701
0.139681
0.139661
0.139641
0.139616
0.139594
0.139608
0.139634
0.139665
0.139698
0.139735
0.139778
0.13983
0.139891
0.139961
0.140041
0.140131
0.140233
0.140352
0.140489
0.140644
0.140817
0.141022
0.141321
0.141748
0.142342
0.144771
0.153915
0.172006
0.190619
0.203118
0.139974
0.139967
0.139953
0.139934
0.139878
0.139736
0.139621
0.139548
0.139494
0.139451
0.139421
0.139401
0.139389
0.139383
0.139383
0.139387
0.139393
0.139402
0.139412
0.139423
0.139436
0.139451
0.139467
0.139485
0.139503
0.139522
0.139542
0.139562
0.13958
0.139594
0.139604
0.139609
0.139609
0.139606
0.139599
0.139589
0.139574
0.139568
0.139505
0.139973
0.139938
0.139895
0.139856
0.139824
0.139795
0.139771
0.139751
0.139733
0.139716
0.139699
0.139683
0.139661
0.139646
0.139665
0.139694
0.139728
0.139764
0.139802
0.139844
0.139894
0.139953
0.140021
0.140098
0.140186
0.140285
0.140401
0.140538
0.140698
0.140883
0.141095
0.141363
0.14173
0.142133
0.142736
0.145089
0.151086
0.15915
0.167638
0.139969
0.139963
0.139951
0.139938
0.139891
0.139757
0.139641
0.139569
0.139517
0.139479
0.139453
0.139438
0.139431
0.13943
0.139433
0.139439
0.139448
0.139458
0.13947
0.139482
0.139496
0.139512
0.13953
0.13955
0.139569
0.13959
0.139611
0.139633
0.139654
0.139671
0.139684
0.139692
0.139696
0.139697
0.139694
0.139688
0.139678
0.139676
0.139621
0.139967
0.139937
0.139899
0.139865
0.139839
0.139816
0.139796
0.13978
0.139766
0.139752
0.139739
0.139726
0.139707
0.139702
0.139723
0.139754
0.139788
0.139823
0.139861
0.139902
0.13995
0.140005
0.140069
0.140143
0.140226
0.14032
0.14043
0.14056
0.140715
0.140899
0.141113
0.141368
0.141698
0.142102
0.142505
0.143209
0.145104
0.148355
0.153152
0.139962
0.139956
0.139947
0.139938
0.139898
0.139773
0.139657
0.139586
0.139536
0.139502
0.139482
0.139473
0.139472
0.139476
0.139483
0.139493
0.139504
0.139516
0.139529
0.139543
0.139558
0.139576
0.139595
0.139616
0.139637
0.139659
0.139681
0.139705
0.139727
0.139747
0.139763
0.139774
0.139782
0.139785
0.139786
0.139783
0.139778
0.139778
0.13973
0.139959
0.139934
0.139901
0.139874
0.139853
0.139835
0.13982
0.139808
0.139798
0.139788
0.139779
0.13977
0.139754
0.139757
0.13978
0.13981
0.139842
0.139877
0.139913
0.139952
0.139996
0.140048
0.140108
0.140177
0.140255
0.140343
0.140444
0.140566
0.140711
0.140885
0.141093
0.141339
0.14164
0.142021
0.142451
0.142926
0.143727
0.145145
0.147707
0.139953
0.139947
0.139939
0.139934
0.139902
0.139786
0.13967
0.1396
0.139553
0.139523
0.139509
0.139506
0.139511
0.13952
0.139533
0.139546
0.139561
0.139576
0.139591
0.139606
0.139623
0.139641
0.139662
0.139684
0.139706
0.139729
0.139753
0.139778
0.139802
0.139824
0.139842
0.139856
0.139866
0.139873
0.139876
0.139876
0.139873
0.139875
0.139833
0.13995
0.13993
0.139902
0.139881
0.139866
0.139852
0.139842
0.139834
0.139828
0.139822
0.139818
0.139813
0.139802
0.139811
0.139835
0.139862
0.139892
0.139923
0.139956
0.139992
0.140033
0.140081
0.140137
0.140201
0.140274
0.140356
0.14045
0.140561
0.140695
0.140856
0.141051
0.141284
0.141563
0.141909
0.142332
0.142812
0.143407
0.144261
0.145748
0.139943
0.139936
0.13993
0.139929
0.139903
0.139797
0.139682
0.139614
0.13957
0.139544
0.139535
0.139539
0.13955
0.139565
0.139583
0.139601
0.139619
0.139637
0.139654
0.139671
0.13969
0.13971
0.139732
0.139755
0.139778
0.139802
0.139826
0.139853
0.139879
0.139903
0.139923
0.139939
0.139951
0.139959
0.139965
0.139967
0.139966
0.139969
0.139932
0.139941
0.139925
0.139902
0.139886
0.139876
0.139867
0.13986
0.139857
0.139855
0.139854
0.139854
0.139853
0.139849
0.139863
0.139885
0.139909
0.139935
0.139963
0.139992
0.140024
0.140062
0.140105
0.140157
0.140217
0.140284
0.14036
0.140447
0.14055
0.140672
0.140819
0.140998
0.141214
0.141474
0.141789
0.142178
0.142647
0.143208
0.143923
0.144967
0.139932
0.139925
0.139919
0.139922
0.139902
0.139806
0.139694
0.139628
0.139588
0.139566
0.139563
0.139572
0.139589
0.139611
0.139634
0.139656
0.139678
0.139699
0.139719
0.139739
0.139759
0.139781
0.139804
0.139829
0.139854
0.139878
0.139903
0.139931
0.139959
0.139984
0.140005
0.140022
0.140035
0.140045
0.140052
0.140056
0.140057
0.14006
0.140027
0.139933
0.139921
0.139903
0.139892
0.139885
0.139879
0.139876
0.139875
0.139877
0.139881
0.139886
0.139891
0.139893
0.139908
0.139928
0.139949
0.139971
0.139995
0.140021
0.14005
0.140083
0.140123
0.14017
0.140225
0.140287
0.140358
0.140439
0.140533
0.140644
0.140778
0.140941
0.141139
0.141378
0.141667
0.142019
0.142454
0.142984
0.143654
0.144522
0.139922
0.139913
0.139908
0.139913
0.1399
0.139815
0.139707
0.139644
0.139608
0.139591
0.139593
0.139608
0.139631
0.139658
0.139686
0.139713
0.139739
0.139763
0.139786
0.139809
0.139832
0.139855
0.139881
0.139907
0.139932
0.139958
0.139985
0.140013
0.140042
0.140067
0.140089
0.140106
0.14012
0.14013
0.140138
0.140143
0.140144
0.140147
0.140118
0.139927
0.139919
0.139905
0.139897
0.139893
0.139888
0.139887
0.139889
0.139893
0.139901
0.139911
0.139922
0.139929
0.139942
0.139959
0.139978
0.139998
0.140019
0.140043
0.140069
0.140099
0.140135
0.140178
0.140228
0.140285
0.14035
0.140425
0.140512
0.140614
0.140736
0.140883
0.141063
0.141282
0.141546
0.141867
0.142263
0.14275
0.143378
0.144156
0.139913
0.139901
0.139895
0.139904
0.139897
0.139822
0.139722
0.139663
0.139631
0.139619
0.139626
0.139646
0.139674
0.139706
0.139739
0.139771
0.139802
0.13983
0.139856
0.139881
0.139907
0.139933
0.139961
0.139989
0.140015
0.140042
0.14007
0.140099
0.140126
0.140151
0.140172
0.140189
0.140203
0.140214
0.140221
0.140227
0.140228
0.14023
0.140205
0.139923
0.139919
0.13991
0.139904
0.1399
0.139896
0.139895
0.139897
0.139903
0.139914
0.139928
0.139942
0.139952
0.139964
0.139979
0.139997
0.140016
0.140036
0.140058
0.140083
0.140111
0.140144
0.140183
0.140229
0.140281
0.14034
0.140409
0.140488
0.140582
0.140693
0.140826
0.140989
0.141187
0.141429
0.141723
0.142083
0.142526
0.143105
0.143814
0.139906
0.139891
0.139883
0.139894
0.139892
0.139829
0.139738
0.139684
0.139657
0.13965
0.139661
0.139686
0.13972
0.139758
0.139795
0.139832
0.139866
0.139898
0.139927
0.139956
0.139984
0.140013
0.140044
0.140074
0.140102
0.140129
0.140156
0.140183
0.140209
0.140232
0.140251
0.140268
0.140282
0.140293
0.140301
0.140307
0.140307
0.140309
0.140289
0.139924
0.139923