/*--------------------------------*- C++ -*----------------------------------*\
  =========                 |
  \\      /  F ield         | OpenFOAM: The Open Source CFD Toolbox
   \\    /   O peration     | Website:  https://openfoam.org
    \\  /    A nd           | Version:  9
     \\/     M anipulation  |
\*---------------------------------------------------------------------------*/
FoamFile
{
    format      ascii;
    class       volScalarField;
    location    "50";
    object      p;
}
// * * * * * * * * * * * * * * * * * * * * * * * * * * * * * * * * * * * * * //

dimensions      [0 2 -2 0 0 0 0];

internalField   nonuniform List<scalar> 
10720
(
-132.976
-135.71
-138.285
-136.264
-127.98
-116.842
-101.809
-85.0532
-71.1472
-63.1659
-61.5889
-62.5223
-62.7085
-61.8592
-60.5908
-59.2486
-58.9553
-59.9402
-62.2913
-66.6894
-73.6655
-82.6933
-92.4101
-101.652
-109.834
-116.454
-121.089
-123.726
-124.612
-124.203
-123.218
-122.262
-121.512
-120.745
-119.931
-116.649
-98.7326
-61.0935
-80.5572
-124.251
-115.908
-99.8608
-80.3278
-58.3607
-34.7553
-10.8392
11.0178
29.128
43.3887
53.8355
60.9332
65.4059
67.8871
68.88
68.8696
68.0836
66.5782
64.5979
62.2787
59.6345
56.6579
53.3726
49.8077
46.1096
42.4219
38.7339
35.0541
31.4
27.7942
24.1993
20.6243
17.0256
13.3113
9.34819
4.79534
-0.630429
-8.58384
-20.7863
-64.228
-70.7288
-76.2293
-78.1529
-76.6269
-72.7903
-67.395
-62.1438
-59.2091
-59.3697
-61.2508
-61.4817
-61.3469
-61.4507
-60.53
-59.033
-58.5191
-59.425
-61.8045
-66.2222
-73.1476
-82.0466
-91.6618
-100.873
-109.038
-115.654
-120.325
-123.017
-123.968
-123.628
-122.71
-121.82
-121.144
-120.446
-119.684
-116.492
-99.0014
-62.0498
-80.9562
-57.7846
-50.9347
-42.6552
-31.9888
-19.4895
-5.51848
9.20923
23.4738
36.2037
46.8496
55.1488
61.1442
65.1306
67.466
68.4987
68.5527
67.8097
66.3908
64.497
62.2443
59.657
56.7392
53.5171
50.0246
46.3844
42.7221
39.045
35.3654
31.7041
28.0842
24.4717
20.8759
17.2553
13.5196
9.53802
4.9745
-0.447808
-8.39022
-20.0489
-57.3407
-62.4633
-66.3775
-69.2325
-70.3065
-69.5507
-67.3076
-64.1298
-61.1051
-59.4143
-59.183
-58.9752
-59.8316
-60.5727
-59.6925
-57.9716
-57.0283
-58.0096
-60.8935
-65.8443
-73.0163
-81.8642
-91.3592
-100.511
-108.64
-115.226
-119.894
-122.596
-123.563
-123.248
-122.353
-121.498
-120.874
-120.239
-119.504
-116.321
-99.2268
-63.2193
-81.5299
-51.503
-43.7905
-34.051
-22.7144
-10.3473
2.74734
15.8786
28.2005
39.1192
48.2935
55.5556
60.9297
64.6116
66.8516
67.9134
68.0438
67.3958
66.0876
64.2865
62.101
59.5703
56.7089
53.5428
50.1078
46.5084
42.8626
39.1952
35.5209
31.8609
28.238
24.6218
21.0198
17.3912
13.6468
9.65902
5.09664
-0.309498
-8.20137
-19.3103
-34.1406
-39.0123
-43.6977
-47.7992
-50.9335
-52.9146
-53.7953
-53.8895
-53.6183
-53.5119
-53.8034
-54.5933
-56.6761
-58.6537
-58.5244
-56.6273
-55.3238
-56.2945
-59.8607
-65.5225
-73.0323
-81.8676
-91.2348
-100.29
-108.355
-114.894
-119.538
-122.23
-123.198
-122.891
-122.006
-121.175
-120.604
-120.047
-119.369
-116.225
-99.5625
-64.5891
-82.1626
-29.2065
-23.5036
-16.5479
-8.0057
1.52301
11.8537
22.4359
32.5306
41.6204
49.4111
55.7277
60.5326
63.9337
66.0894
67.1816
67.3932
66.8512
65.6594
63.9628
61.8628
59.4071
56.6175
53.5202
50.1527
46.6075
42.9944
39.3489
35.6885
32.0354
28.413
24.7949
21.1858
17.5471
13.7914
9.79522
5.23354
-0.152664
-7.97709
-18.5782
-25.8669
-30.696
-35.4198
-39.8997
-43.4694
-46.0546
-47.6596
-48.4916
-48.9509
-49.4663
-50.2732
-51.5224
-53.4526
-55.361
-56.0906
-55.2124
-54.0498
-54.8876
-58.9692
-65.3171
-73.1607
-82.0163
-91.2816
-100.231
-108.206
-114.673
-119.272
-121.932
-122.879
-122.563
-121.673
-120.854
-120.329
-119.857
-119.251
-116.174
-99.9962
-66.1669
-82.7288
-20.8789
-15.1491
-8.30181
-0.330635
8.24299
17.3482
26.5696
35.3201
43.2042
50.0156
55.6159
59.9599
63.117
65.1934
66.3139
66.6085
66.1781
65.1128
63.536
61.5391
59.1736
56.4674
53.4482
50.1549
46.6712
43.0986
39.4805
35.8386
32.1967
28.5782
24.961
21.3469
17.6995
13.9343
9.93282
5.37651
0.0177133
-7.71989
-17.8339
-16.5535
-21.0599
-25.6947
-30.1733
-34.1167
-37.533
-40.2896
-42.4317
-44.1675
-45.734
-47.3079
-48.9771
-50.7386
-52.268
-53.1836
-53.3922
-53.3545
-54.3367
-58.4589
-65.3257
-73.4926
-82.3806
-91.5521
-100.382
-108.237
-114.6
-119.119
-121.717
-122.619
-122.273
-121.362
-120.543
-120.062
-119.679
-119.155
-116.168
-100.526
-67.936
-83.0461
-12.035
-7.01194
-1.03578
5.98368
13.502
21.4868
29.5826
37.2669
44.2037
50.2407
55.2626
59.223
62.1692
64.1733
65.3193
65.6952
65.3789
64.4472
63.0015
61.122
58.8611
56.2509
53.3206
50.1101
46.6963
43.1735
39.5906
35.9742
32.3488
28.7388
25.1254
21.5084
17.8541
14.0817
10.0777
5.53121
0.206019
-7.42929
-17.0709
-10.7675
-15.1477
-19.7275
-24.2983
-28.4392
-32.1982
-35.4356
-38.1017
-40.3803
-42.4604
-44.4663
-46.4326
-48.2967
-49.8817
-51.0242
-51.8111
-52.7856
-54.6679
-58.7202
-65.6144
-74.0468
-82.9897
-92.0728
-100.766
-108.47
-114.69
-119.09
-121.592
-122.421
-122.023
-121.078
-120.251
-119.807
-119.519
-119.09
-116.215
-101.152
-69.8811
-83.0031
-6.4094
-1.6618
3.91729
10.365
17.176
24.3637
31.6311
38.5116
44.7213
50.1506
54.7061
58.3453
61.1079
63.0443
64.2102
64.6628
64.4595
63.6648
62.3582
60.6082
58.4652
55.9634
53.1327
50.0138
46.6783
43.2149
39.6759
36.0919
32.4889
28.8916
25.2855
21.6684
18.01
14.2333
10.2298
5.69693
0.410174
-7.10527
-16.2958
-5.99517
-10.1687
-14.6224
-19.116
-23.279
-27.2366
-30.8441
-33.9865
-36.7684
-39.3129
-41.7055
-43.9804
-46.1098
-48.0117
-49.5862
-50.8666
-52.3877
-55.1329
-59.7739
-66.4486
-74.8406
-83.8397
-92.8499
-101.391
-108.913
-114.951
-119.191
-121.558
-122.281
-121.811
-120.817
-119.973
-119.568
-119.38
-119.058
-116.318
-101.88
-71.9662
-82.6181
-1.87474
2.54024
7.70436
13.6416
19.8646
26.4069
33.0112
39.2507
44.8791
49.8156
53.9857
57.3527
59.953
61.824
63.0025
63.5237
63.4288
62.77
61.607
59.9956
57.982
55.6
52.88
49.8619
46.6141
43.2197
39.7332
36.1889
32.6144
29.0349
25.4402
21.8269
18.1677
14.3899
10.3895
5.87385
0.630699
-6.75053
-15.5044
-2.45367
-6.47551
-10.8131
-15.2425
-19.405
-23.4484
-27.2565
-30.6704
-33.7499
-36.5882
-39.2592
-41.7993
-44.2041
-46.4508
-48.4912
-50.3214
-52.3138
-55.5175
-60.8969
-67.9191
-76.0411
-84.9216
-93.8757
-102.266
-109.577
-115.396
-119.432
-121.624
-122.207
-121.638
-120.581
-119.713
-119.345
-119.266
-119.068
-116.485
-102.705
-74.1722
-81.9867
1.48742
5.65693
10.5033
16.0359
21.7873
27.8122
33.8817
39.6036
44.7582
49.2893
53.1364
56.2692
58.7243
60.5314
61.7129
62.2913
62.2982
61.7706
60.7518
59.285
57.4098
55.1578
52.5583
49.6502
46.499
43.1832
39.7585
36.2618
32.7225
29.1664
25.5879
21.9828
18.3266
14.5507
10.5561
6.0608
0.865703
-6.36423
-14.7003
0.312256
-3.55361
-7.76441
-12.0954
-16.2073
-20.269
-24.181
-27.79
-31.1047
-34.1791
-37.0854
-39.8673
-42.5303
-45.0844
-47.5352
-49.9038
-52.4378
-55.9715
-61.7019
-69.4096
-77.7411
-86.3169
-95.1157
-103.371
-110.463
-116.026
-119.819
-121.791
-122.197
-121.502
-120.366
-119.468
-119.141
-119.181
-119.121
-116.718
-103.629
-76.4494
-81.1877
4.08475
8.03178
12.6007
17.7891
23.1479
28.7429
34.3693
39.6619
44.4232
48.6145
52.187
55.1158
57.4385
59.1808
60.3564
60.9811
61.08
60.6763
59.7987
58.4789
56.7482
54.6345
52.1645
49.3756
46.3299
43.1024
39.7485
36.3075
32.8105
29.2842
25.7272
22.1351
18.4859
14.7153
10.7292
6.25824
1.11698
-5.9476
-13.8776
2.44129
-1.28493
-5.3753
-9.60709
-13.6537
-17.6985
-21.6518
-25.3779
-28.8512
-32.0932
-35.1768
-38.1583
-41.0474
-43.867
-46.6593
-49.4915
-52.5634
-56.4618
-62.2647
-70.3585
-79.4124
-88.0904
-96.5836
-104.664
-111.552
-116.844
-120.355
-122.068
-122.259
-121.408
-120.178
-119.243
-118.956
-119.126
-119.225
-117.027
-104.649
-78.7771
-80.3291
6.06535
9.8215
14.153
19.0493
24.076
29.3083
34.5618
39.493
43.9224
47.8244
51.16
53.9092
56.1107
57.7856
58.9459
59.6075
59.7874
59.4978
58.7561
57.5822
55.9994
54.0299
51.6971
49.035
46.1032
42.9731
39.6992
36.3225
32.8754
29.3856
25.8556
22.2817
18.644
14.8825
10.9083
6.46565
1.38338
-5.49995
-13.0401
4.0884
0.490328
-3.48305
-7.61086
-11.5783
-15.5842
-19.5335
-23.3225
-26.9109
-30.2816
-33.5028
-36.6448
-39.7251
-42.7739
-45.8509
-49.0553
-52.5808
-56.8487
-62.6746
-70.737
-80.398
-89.8147
-98.3109
-106.108
-112.787
-117.821
-121.032
-122.451
-122.39
-121.355
-120.011
-119.034
-118.793
-119.106
-119.38
-117.408
-105.76
-81.1079
-79.4515
7.57521
11.1625
15.2872
19.9281
24.6702
29.5923
34.5254
39.1477
43.292
46.9447
50.0742
52.6637
54.7506
56.3565
57.4957
58.1843
58.4332
58.2467
57.6326
56.601
55.1665
53.3451
51.1553
48.6271
45.8171
42.7931
39.6081
36.304
32.9146
29.4683
25.9714
22.4212
18.7998
15.0518
11.0934
6.68412
1.66768
-5.02254
-12.184
5.34939
1.87022
-1.99144
-6.01742
-9.9026
-13.8536
-17.7763
-21.5858
-25.2491
-28.7155
-32.0406
-35.3067
-38.5416
-41.7822
-45.0953
-48.5921
-52.4635
-57.0412
-62.9108
-70.7453
-80.5327
-90.8105
-99.9716
-107.695
-114.102
-118.899
-121.824
-122.935
-122.594
-121.346
-119.872
-118.847
-118.654
-119.12
-119.591
-117.872
-106.956
-83.426
-78.6103
8.71219
12.15
16.0903
20.5093
25.0022
29.655
34.3108
38.6643
42.5613
45.9963
48.9442
51.3888
53.3667
54.9031
56.0172
56.7239
57.03
56.9347
56.4383
55.5429
54.2545
52.5824
50.5393
48.1508
45.4693
42.5592
39.4717
36.2486
32.9248
29.5293
26.0718
22.5511
18.9515
15.2217
11.2838
6.91311
1.968
-4.51616
-11.3138
6.30437
2.93317
-0.82109
-4.74661
-8.54625
-12.4364
-16.3164
-20.1155
-23.8233
-27.3604
-30.7643
-34.1245
-37.4809
-40.8762
-44.3804
-48.1042
-52.2279
-57.0308
-62.9462
-70.5252
-80.0547
-90.757
-100.901
-109.155
-115.439
-119.993
-122.667
-123.485
-122.854
-121.374
-119.755
-118.677
-118.539
-119.173
-119.856
-118.405
-108.221
-85.6841
-77.7898
9.55318
12.856
16.6338
20.8528
25.1275
29.5438
33.9551
38.0729
41.7523
44.996
47.7813
50.0924
51.9668
53.4351
54.5202
55.2363
55.5885
55.5725
55.1833
54.4158
53.269
51.7452
49.8509
47.6062
45.0591
42.27
39.2879
36.1541
32.9037
29.5665
26.1551
22.6701
19.098
15.392
11.4797
7.15345
2.28707
-3.9825
-10.4274
7.01172
3.74224
0.0891652
-3.73954
-7.45521
-11.2769
-15.1064
-18.8751
-22.5993
-26.1849
-29.6479
-33.0782
-36.5266
-40.0426
-43.6955
-47.5909
-51.8933
-56.843
-62.7777
-70.1237
-79.229
-89.8269
-100.653
-109.88
-116.574
-121.027
-123.482
-124.05
-123.149
-121.435
-119.663
-118.53
-118.448
-119.26
-120.178
-119.017
-109.546
-87.8685
-77.0099
10.1563
13.3372
16.9665
21.0088
25.0879
29.2932
33.4883
37.3964
40.883
43.9557
46.5936
48.7802
50.5568
51.9599
53.0129
53.7313
54.1193
54.1709
53.8775
53.2286
52.217
50.8382
49.0927
46.9942
44.5857
41.9236
39.0542
36.0173
32.8483
29.5767
26.2184
22.7755
19.237
15.5605
11.6797
7.40408
2.62216
-3.42375
-9.52934
7.51871
4.34351
0.78702
-2.94782
-6.57999
-10.3328
-14.1046
-17.829
-21.5473
-25.1616
-28.6673
-32.1479
-35.6622
-39.2675
-43.0308
-47.05
-51.4724
-56.5051
-62.4209
-69.5496
-78.1982
-88.3537
-99.2844
-109.355
-116.966
-121.794
-124.187
-124.552
-123.428
-121.504
-119.585
-118.4
-118.383
-119.384
-120.55
-119.686
-110.904
-89.9365
-76.243
10.567
13.6362
17.1325
21.0121
24.9164
28.9331
32.9333
36.6533
39.9673
42.886
45.388
47.4588
49.1436
50.4834
51.5023
52.2166
52.6313
52.7394
52.5304
51.9899
51.1054
49.8667
48.2681
46.3167
44.05
41.5198
38.7695
35.8366
32.7564
29.5583
26.2601
22.8662
19.3678
15.7271
11.8837
7.6653
2.97576
-2.8415
-8.61864
7.86272
4.77659
1.31114
-2.33368
-5.88518
-9.56542
-13.2773
-16.9511
-20.6438
-24.2689
-27.8021
-31.3156
-34.8729
-38.5378
-42.3768
-46.4777
-50.9715
-56.0358
-61.8943
-68.8055
-77.0134
-86.5886
-97.1569
-107.55
-116.11
-121.835
-124.611
-124.934
-123.64
-121.55
-119.509
-118.286
-118.339
-119.538
-120.969
-120.415
-112.282
-91.8829
-75.5133
10.821
13.7885
17.1607
20.8944
24.6391
28.4839
32.3086
35.8587
39.0163
41.7945
44.1701
46.1324
47.732
49.011
49.994
50.6992
51.1323
51.287
51.1512
50.7084
49.942
48.8369
47.3814
45.5763
43.4528
41.0583
38.4322
35.6099
32.6255
29.5082
26.2772
22.9391
19.4874
15.8891
12.0899
7.93566
3.34417
-2.23909
-7.69967
8.07334
5.07006
1.69273
-1.86546
-5.33693
-8.94703
-12.5948
-16.2132
-19.8662
-23.4854
-27.0319
-30.5642
-34.1445
-37.8432
-41.7262
-45.8721
-50.3958
-55.4492
-61.2164
-67.9024
-75.6938
-84.6669
-94.628
-104.826
-113.927
-120.686
-124.368
-125.061
-123.744
-121.535
-119.411
-118.176
-118.315
-119.719
-121.422
-121.175
-113.645
-93.6743
-74.7904
10.9476
13.8201
17.0799
20.6766
24.2767
27.9655
31.6287
35.0237
38.0389
40.6865
42.9448
44.8067
46.3268
47.547
48.4931
49.1849
49.6296
49.8213
49.7482
49.3924
48.7346
47.7553
46.4376
44.7763
42.7961
40.5397
38.0421
35.3362
32.4543
29.4249
26.2684
22.9934
19.5954
16.0464
12.2982
8.21493
3.72976
-1.61819
-6.77301
8.17503
5.25119
1.95708
-1.51758
-4.91213
-8.44969
-12.0329
-15.5924
-19.1948
-22.7921
-26.3384
-29.8767
-33.4637
-37.1735
-41.0727
-45.232
-49.7507
-54.7582
-60.4061
-66.8581
-74.2546
-82.6534
-91.9335
-101.616
-110.753
-118.245
-123.047
-124.631
-123.657
-121.45
-119.276
-118.056
-118.3
-119.914
-121.899
-121.958
-114.975
-95.3106
-74.083
10.9701
13.7545
16.9076
20.3806
23.8457
27.3904
30.9061
34.1586
37.0426
39.5685
41.7172
43.4856
44.9309
46.0945
47.0035
47.6787
48.1289
48.3495
48.3293
48.05
47.4906
46.6285
45.4424
43.9209
42.0829
39.9653
37.5994
35.0144
32.2409
29.306
26.231
23.0258
19.6887
16.196
12.5062
8.50125
4.128
-0.982922
-5.84326
8.18746
5.3383
2.12487
-1.26853
-4.58726
-8.05476
-11.5707
-15.069
-18.6144
-22.1753
-25.7072
-29.2394
-32.8185
-36.5199
-40.4116
-44.5571
-49.0421
-53.9761
-59.4837
-65.6951
-72.7159
-80.582
-89.197
-98.233
-107.046
-114.808
-120.523
-123.281
-123.145
-121.249
-119.108
-117.918
-118.282
-120.11
-122.376
-122.723
-116.229
-96.7575
-73.3463
10.9076
13.6089
16.6643
20.0192
23.3604
26.7721
30.1501
33.271
36.0328
38.4448
40.4909
42.1729
43.5474
44.657
45.5286
46.1848
46.6354
46.8776
46.9013
46.6887
46.2177
45.4635
44.4014
43.0147
41.3162
39.3371
37.1046
34.6445
31.9845
29.1506
26.1639
23.0358
19.7669
16.338
12.7136
8.79406
4.54061
-0.3349
-4.91146
8.12741
5.35054
2.21421
-1.10097
-4.34619
-7.74201
-11.1915
-14.6264
-18.111
-21.6233
-25.1278
-28.6417
-32.2007
-35.8771
-39.7403
-43.849
-48.2767
-53.1151
-58.4669
-64.4349
-71.0982
-78.4737
-86.4738
-94.8503
-103.159
-110.815
-117.033
-120.865
-121.9
-120.761
-118.891
-117.774
-118.251
-120.286
-122.824
-123.446
-117.375
-97.9965
-72.5795
10.776
13.3992
16.3606
19.6074
22.8318
26.1188
29.3696
32.3677
35.0148
37.3196
39.27
40.8714
42.1795
43.2369
44.0713
44.7063
45.1533
45.411
45.4706
45.3154
44.9229
44.2675
43.3211
42.0631
40.4999
38.6578
36.5593
34.2266
31.6844
28.957
26.0649
23.0207
19.8269
16.469
12.9179
9.0911
4.96253
0.320983
-3.98289
8.0081
5.30004
2.23916
-0.999309
-4.17194
-7.49834
-10.8792
-14.2491
-17.6699
-21.1236
-24.5883
-28.0733
-31.6012
-35.2395
-39.0571
-43.1094
-47.4603
-52.1863
-57.3712
-63.0967
-69.4196
-76.3436
-83.784
-91.5391
-99.2887
-106.624
-112.972
-117.538
-119.741
-119.716
-118.495
-117.613
-118.207
-120.423
-123.2
-124.059
-118.336
-98.9636
-71.7451
10.5885
13.1368
16.0112
19.1535
22.2693
25.4405
28.5708
31.4537
33.9925
36.197
38.0579
39.5834
40.8288
41.8361
42.6339
43.2465
43.6866
43.9543
44.0429
43.9364
43.6132
43.0468
42.2077
41.0711
39.6383
37.9303
35.9653
33.7616
31.3406
28.7247
25.9333
22.9798
19.8685
16.5891
13.1188
9.39137
5.39497
0.982986
-3.05929
7.84162
5.20068
2.21231
-0.951639
-4.0536
-7.30878
-10.6219
-13.9248
-17.279
-20.666
-24.0798
-27.5245
-31.0116
-34.6008
-38.359
-42.3392
-46.5977
-51.1984
-56.209
-61.6944
-67.6937
-74.2005
-81.1331
-88.3201
-95.5192
-102.442
-108.677
-113.625
-116.739
-117.901
-117.683
-117.331
-118.127
-120.494
-123.461
-124.501
-119.038
-99.5947
-70.8508
10.3558
12.8334
15.6231
18.6689
21.681
24.7421
27.7601
30.5346
32.9706
35.0804
36.8571
38.3114
39.4974
40.4571
41.2187
41.8078
42.2382
42.5116
42.6228
42.5573
42.2947
41.8082
41.0675
40.0448
38.7365
37.1587
35.3254
33.2509
30.9536
28.4531
25.7678
22.9109
19.8889
16.6952
13.3132
9.69225
5.83237
1.64605
-2.14618
7.63707
5.06046
2.14376
-0.946531
-3.97838
-7.16441
-10.4076
-13.6424
-16.9282
-20.2445
-23.597
-26.9905
-30.4271
-33.9571
-37.6444
-41.5397
-45.6935
-50.1584
-54.99
-60.2383
-65.9303
-72.0499
-78.5203
-85.1905
-91.8717
-98.3592
-104.356
-109.425
-113.129
-115.294
-116.206
-116.701
-117.902
-120.44
-123.543
-124.683
-119.367
-99.8068
-69.8647
10.0876
12.4968
15.2073
18.1586
21.0737
24.0312
26.9418
29.6135
31.9523
33.9724
35.6703
37.0573
38.1869
39.1007
39.8272
40.3924
40.811
41.0864
41.2148
41.1836
40.9731
40.5578
39.9065
38.9896
37.7992
36.3467
34.6423
32.6967
30.5244
28.1425
25.568
22.814
19.888
16.7871
13.5009
9.99261
6.27492
2.3083
-1.24541
7.40318
4.89011
2.04263
-0.975668
-3.93847
-7.05359
-10.2276
-13.3931
-16.6081
-19.8514
-23.1342
-26.4664
-29.8437
-33.3066
-36.9135
-40.7132
-44.7518
-49.0732
-53.7222
-58.7372
-64.1359
-69.8955
-75.9423
-82.1423
-88.3449
-94.4056
-100.109
-105.136
-109.164
-112.045
-113.956
-115.448
-117.303
-120.117
-123.333
-124.501
-119.219
-99.5459
-68.7624
9.79154
12.1353
14.7679
17.6313
20.4526
23.3105
26.1205
28.6942
30.9405
32.8756
34.4992
35.8228
36.899
37.7689
38.4611
39.0022
39.4077
39.6819
39.8228
39.8195
39.654
39.3014
38.7309
37.9116
36.8319
35.4992
33.92
32.1013
30.0544
27.7936
25.3336
22.6875
19.8635
16.8622
13.6786
10.2894
6.71718
2.96465
-0.362655
7.14633
4.69478
1.91623
-1.03074
-3.92442
-6.97043
-10.0734
-13.168
-16.311
-19.4794
-22.6853
-25.9477
-29.2576
-32.6464
-36.1655
-39.8614
-43.7766
-47.9489
-52.4132
-57.1995
-62.3171
-67.7401
-73.397
-79.1677
-84.9302
-90.5844
-95.9758
-100.868
-105.029
-108.356
-110.999
-113.382
-116.024
-119.269
-122.625
-123.77
-118.401
-98.7369
-67.4612
9.4745
11.7545
14.3136
17.09
19.8227
22.5865
25.2989
27.7788
29.9374
31.7922
33.3457
34.6092
35.6348
36.4628
37.1219
37.6388
38.0298
38.3005
38.45
38.4692
38.3419
38.0441
37.5462
36.8161
35.8398
34.6207
33.1622
31.4679
29.5458
27.4073
25.0653
22.5316
19.8155
16.9203
13.8461
10.5813
7.15865
3.61299
0.500195
6.87312
4.48258
1.77113
-1.10562
-3.93107
-6.90591
-9.93834
-12.9616
-16.0301
-19.1212
-22.2451
-25.4305
-28.6654
-31.9736
-35.3996
-38.9855
-42.7717
-46.7905
-51.0698
-55.632
-60.4802
-65.5861
-70.8816
-76.2586
-81.6164
-86.8899
-91.9687
-96.6763
-100.841
-104.404
-107.502
-110.504
-113.822
-117.567
-121.115
-122.223
-116.704
-97.1897
-65.8526
9.14206
11.3604
13.8467
16.5416
19.1879
21.8606
24.4808
26.8707
28.9456
30.7242
32.2112
33.4178
34.3952
35.1832
35.8104
36.3036
36.6796
36.9446
37.0995
37.1364
37.041
36.791
36.3577
35.709
34.8284
33.7163
32.3732
30.7999
29.0011
26.9853
24.7632
22.3457
19.7424
16.959
14.0003
10.8649
7.59396
4.24861
1.33777
6.58807
4.25697
1.61263
-1.19395
-3.95094
-6.85617
-9.81621
-12.7666
-15.76
-18.7722
-21.8112
-24.9134
-28.0659
-31.2879
-34.6153
-38.0867
-41.7397
-45.6027
-49.6977
-54.0408
-58.6306
-63.4368
-68.3957
-73.4087
-78.394
-83.3114
-88.0851
-92.5806
-96.669
-100.312
-103.636
-106.96
-110.658
-114.755
-118.472
-119.533
-113.87
-94.6295
-63.7767
8.79913
10.9571
13.3741
15.9879
18.5521
21.1379
23.6682
25.9717
27.9669
29.6732
31.097
32.2496
33.1814
33.9312
34.5278
34.9977
35.358
35.6162
35.7734
35.8243
35.7554
35.5467
35.1705
34.5954
33.803
32.7911
31.5577
30.1011
28.4232
26.5296
24.429
22.1308
19.6447
16.9785
14.1407
11.1391
8.02205
4.86927
2.14842
6.29607
4.02432
1.44556
-1.29151
-3.98084
-6.81439
-9.7024
-12.5796
-15.496
-18.428
-21.3812
-24.395
-27.4591
-30.589
-33.8141
-37.1674
-40.6841
-44.3898
-48.3017
-52.4308
-56.7722
-61.2949
-65.9384
-70.614
-75.2536
-79.8373
-84.3161
-88.5855
-92.5443
-96.1627
-99.5418
-102.942
-106.69
-110.815
-114.501
-115.44
-109.667
-90.8581
-61.0679
8.44984
10.549
12.897
15.4341
17.9178
20.4191
22.8642
25.0846
27.0033
28.6406
30.0042
31.1055
31.9938
32.7076
33.2746
33.7218
34.0663
34.3161
34.474
34.5351
34.4884
34.315
33.9892
33.4802
32.7687
31.85
30.7203
29.3756
27.8154
26.0427
24.0637
21.8869
19.5214
16.9766
14.2646
11.4003
8.43771
5.4705
2.92733
6.00024
3.78654
1.27392
-1.39382
-4.01479
-6.77804
-9.5925
-12.3949
-15.2341
-18.0844
-20.9512
-23.8725
-26.8432
-29.8769
-32.9962
-36.2291
-39.6078
-43.1554
-46.8863
-50.8069
-54.9095
-59.1627
-63.5099
-67.8699
-72.1866
-76.4561
-80.6489
-84.684
-88.4777
-91.9989
-95.3166
-98.6215
-102.164
-105.968
-109.294
-109.919
-104.046
-85.9314
-57.6627
8.09778
10.1388
12.4207
14.8813
17.2882
19.7085
22.0707
24.2108
26.056
27.6274
28.9337
29.9861
30.833
31.5122
32.0513
32.4765
32.8052
33.046
33.2025
33.2714
33.2426
33.0996
32.818
32.3684
31.7304
30.8981
29.8657
28.6277
27.1813
25.5273
23.6698
21.6155
19.3734
16.9538
14.3715
11.6473
8.8396
6.05051
3.67341
5.70415
3.54877
1.10089
-1.49776
-4.05101
-6.74196
-9.48311
-12.2106
-14.9708
-17.7385
-20.5176
-23.3434
-26.2171
-29.1507
-32.1619
-35.2731
-38.5131
-41.9033
-45.4553
-49.1727
-53.0455
-57.0423
-61.1096
-65.1733
-69.1866
-73.1573
-77.0721
-80.8668
-84.4694
-87.8438
-91.0234
-94.1278
-97.3126
-100.557
-103.211
-103.274
-97.283
-80.1501
-53.7161
7.74583
9.73012
11.946
14.334
16.6653
19.0065
21.2894
23.3525
25.1268
26.6353
27.8865
28.8922
29.6996
30.346
30.8581
31.2621
31.5754
31.8067
31.9607
32.0348
32.0209
31.9036
31.6608
31.264
30.693
29.9401
28.9987
27.8618
26.5248
24.9864
23.2489
21.3175
19.2003
16.9086
14.4589
11.8769
9.22321
6.60484
4.38242
5.41003
3.31189
0.929394
-1.60015
-4.08507
-6.70494
-9.3714
-12.0228
-14.7039
-17.388
-20.0786
-22.8073
-25.5813
-28.4111
-31.3119
-34.3005
-37.4021
-40.6361
-44.0124
-47.5321
-51.1835
-54.9357
-58.7377
-62.5216
-66.2483
-69.9338
-73.5765
-77.1252
-80.5163
-83.7068
-86.698
-89.5429
-92.305
-94.8924
-96.7114
-96.0289
-89.8631
-73.9065
-49.5962
7.39665
9.32491
11.4773
13.7925
16.0515
18.3169
20.5218
22.5106
24.2168
25.6651
26.8635
27.8246
28.5943
29.209
29.6954
30.0791
30.3771
30.5989
30.7492
30.827
30.825
30.7299
30.5209
30.1712
29.6606
28.9806
28.1239
27.0822
25.8498
24.4235
22.8039
20.9948
19.0036
16.8416
14.5268
12.0878
9.58693
7.13219
5.05382
5.12062
3.07989
0.761695
-1.699
-4.11605
-6.663
-9.25504
-11.8301
-14.4308
-17.0308
-19.6323
-22.2646
-24.9368
-27.6599
-30.4481
-33.3135
-36.2772
-39.3568
-42.5607
-45.8881
-49.3263
-52.8444
-56.3941
-59.9132
-63.3678
-66.7801
-70.1564
-73.4548
-76.618
-79.5969
-82.3653
-84.9213
-87.2489
-89.186
-90.1667
-88.7115
-82.3602
-67.6016
-45.6077
7.05241
8.92577
11.0149
13.261
15.4488
17.6399
19.7703
21.6872
23.328
24.7182
25.8659
26.7838
27.5173
28.1019
28.5636
28.9276
29.2109
29.4228
29.5691
29.649
29.657
29.5805
29.401
29.0932
28.6371
28.0239
27.2456
26.2934
25.1603
23.842
22.3374
20.6491
18.7835
16.7518
14.5728
12.2771
9.92696
7.6286
5.68413
4.83733
2.85311
0.599784
-1.79205
-4.14061
-6.61578
-9.13216
-11.63
-14.1501
-16.6655
-19.1776
-21.7141
-24.2832
-26.898
-29.5724
-32.3143
-35.1412
-38.0686
-41.1034
-44.2441
-47.4763
-50.77
-54.0794
-57.3464
-60.5424
-63.6927
-66.8085
-69.8547
-72.7778
-75.5243
-78.0466
-80.3003
-82.2088
-83.5559
-83.7964
-81.6681
-75.1888
-61.5916
-41.8862
6.71519
8.53433
10.5625
12.7396
14.859
16.9789
19.036
20.8836
22.4613
23.7954
24.8943
25.7709
26.4694
27.0249
27.4628
27.808
28.0767
28.279
28.4205
28.5017
28.5175
28.4572
28.3035
28.0329
27.6261
27.0738
26.3679
25.4993
24.4603
23.2454
21.8525
20.2827
18.5417
16.6402
14.5972
12.4441
10.242
8.09326
6.27355
4.56233
2.63467
0.445107
-1.87811
-4.15859
-6.56055
-9.00161
-11.422
-13.8607
-16.2912
-18.7138
-21.1548
-23.6203
-26.126
-28.686
-31.3051
-33.9966
-36.7742
-39.6438
-42.6028
-45.6364
-48.7148
-51.7945
-54.8215
-57.7706
-60.6694
-63.5317
-66.3266
-69.0029
-71.5034
-73.7656
-75.7149
-77.2323
-78.068
-77.7026
-75.0626
-68.5691
-56.0742
-38.4847
6.38656
8.15259
10.1201
12.2315
14.2836
16.3337
18.3207
20.1013
21.6181
22.8983
23.95
24.7865
25.4515
25.9791
26.394
26.7206
26.9752
27.1679
27.3041
27.3857
27.4077
27.3612
27.2301
26.9927
26.6304
26.1337
25.4946
24.704
23.7537
22.6375
21.3521
19.8978
18.2792
16.5066
14.5985
12.5862
10.5288
8.52268
6.81932
4.29656
2.42454
0.299036
-1.95565
-4.16774
-6.49732
-8.86209
-11.2046
-13.562
-15.9073
-18.2404
-20.5862
-22.9481
-25.3449
-27.7903
-30.2872
-32.8455
-35.4763
-38.1847
-40.9673
-43.8091
-46.6807
-49.5409
-52.3387
-55.0524
-57.7102
-60.3268
-62.8737
-65.3016
-67.5501
-69.5471
-71.1975
-72.3567
-72.76
-71.9227
-68.9349
-62.5446
-51.1124
-35.4511
6.06813
7.78182
9.69084
11.7366
13.724
15.7068
17.6249
19.3408
20.7991
22.0273
23.0338
23.8319
24.4644
24.9647
25.3576
25.666
25.9071
26.0894
26.2206
26.3011
26.3283
26.2934
26.1823
25.9747
25.6525
25.2066
24.6292
23.9111
23.0442
22.0216
20.8394
19.497
17.9981
16.3523
14.5772
12.7033
10.7866
8.91691
7.32223
4.0417
2.22515
0.162544
-2.02409
-4.16817
-6.42447
-8.71336
-10.9778
-13.2534
-15.5136
-17.7574
-20.0083
-22.2677
-24.5562
-26.887
-29.2627
-31.6901
-34.1774
-36.7288
-39.3406
-41.9973
-44.6702
-47.3203
-49.8996
-52.3888
-54.8159
-57.1954
-59.5006
-61.6832
-63.6812
-65.4156
-66.7801
-67.6173
-67.6624
-66.4724
-63.2824
-57.1017
-46.6845
-32.7728
5.76105
7.42342
9.27424
11.2571
13.1806
15.0972
16.9493
18.6028
20.0048
21.1832
22.1463
22.9075
23.5089
23.9832
24.3542
24.6452
24.8721
25.0448
25.1697
25.249
25.2797
25.2548
25.1613
24.9802
24.6944
24.295
23.7744
23.1239
22.3351
21.4011
20.3174
19.0827
17.6999
16.1776
14.5327
12.7937
11.0132
9.27317
7.78037
3.79829
2.03624
0.0365449
-2.08235
-4.15851
-6.34234
-8.55483
-10.7411
-12.935
-15.1102
-17.2651
-19.422
-21.581
-23.7621
-25.9788
-28.2343
-30.5329
-32.8801
-35.279
-37.7253
-40.2037
-42.6861
-45.1353
-47.5062
-49.7815
-51.9885
-54.141
-56.2129
-58.1571
-59.9113
-61.393
-62.4909
-63.0437
-62.7978
-61.3563
-58.0797
-52.1869
-42.7428
-30.4174
5.46626
7.07805
8.87227
10.7922
12.6536
14.5063
16.2934
17.8867
19.2349
20.3658
21.2875
22.0137
22.5854
23.0347
23.3848
23.6586
23.8718
24.0343
24.1528
24.2296
24.2629
24.2462
24.1679
24.0105
23.7578
23.4009
22.9328
22.345
21.6294
20.7789
19.7889
18.6574
17.3866
15.9842
14.4657
12.8578
11.2086
9.59228
8.19526
3.56743
1.85958
-0.0784079
-2.13025
-4.13908
-6.24999
-8.38666
-10.4948
-12.6071
-14.6975
-16.7643
-18.828
-20.8885
-22.9637
-25.0676
-27.2046
-29.3767
-31.5874
-33.8382
-36.1246
-38.4313
-40.7312
-42.9883
-45.1609
-47.2331
-49.2312
-51.1673
-53.0164
-54.7327
-56.2543
-57.4984
-58.3533
-58.6611
-58.1854
-56.5767
-53.3051
-47.7568
-39.2276
-28.3302
5.18445
6.7464
8.48417
10.3432
12.1429
13.9324
15.6571
17.1924
18.489
19.5747
20.4573
21.1504
21.6941
22.1196
22.4498
22.707
22.9067
23.0589
23.1704
23.2441
23.2786
23.2685
23.2032
23.0669
22.844
22.526
22.1062
21.5767
20.9295
20.1577
19.2564
18.2233
17.0599
15.773
14.3765
12.8948
11.3716
9.87256
8.56582
3.3493
1.69473
-0.181786
-2.16713
-4.10912
-6.14808
-8.20881
-10.2392
-12.2703
-14.2765
-16.2557
-18.2273
-20.1911
-22.162
-24.1551
-26.1758
-28.2244
-30.3021
-32.4095
-34.5416
-36.6834
-38.8084
-40.8826
-42.8668
-44.7467
-46.5471
-48.2788
-49.9174
-51.4186
-52.7223
-53.7473
-54.3854
-54.4866
-53.8357
-52.1289
-48.9299
-43.7576
-36.0864
-26.4671
4.91611
6.42869
8.11118
9.90882
11.6484
13.3764
15.0396
16.5186
17.766
18.8088
19.6547
20.3169
20.8344
21.2379
21.5494
21.7909
21.9776
22.1195
22.2237
22.2934
22.328
22.3228
22.2686
22.1506
21.9544
21.6718
21.2964
20.8207
20.2374
19.5394
18.7219
17.7823
16.7216
15.5453
14.2661
12.9056
11.5028
10.1154
8.89422
3.14463
1.54302
-0.273199
-2.19301
-4.06895
-6.03624
-8.02195
-9.97497
-11.9254
-13.8479
-15.7405
-17.6212
-19.4896
-21.3583
-23.2429
-25.1497
-27.078
-29.027
-30.9959
-32.9794
-34.9631
-36.921
-38.8212
-40.6268
-42.3254
-43.9401
-45.4801
-46.9215
-48.2223
-49.3248
-50.1517
-50.6003
-50.5319
-49.754
-48.0057
-44.9301
-40.1506
-33.2701
-24.7858
4.66149
6.12513
7.75223
9.49003
11.1696
12.8369
14.4407
15.8653
17.0653
18.0673
18.8786
19.5121
20.0057
20.3889
20.6832
20.9102
21.0847
21.2168
21.3137
21.3789
21.4124
21.4105
21.3652
21.2631
21.0905
20.8396
20.5046
20.0786
19.5545
18.9257
18.1872
17.3361
16.3729
15.3023
14.135
12.8902
11.602
10.3203
9.18025
2.95328
1.40395
-0.352271
-2.20729
-4.0181
-5.91496
-7.82617
-9.70289
-11.5733
-13.413
-15.22
-17.0112
-18.7859
-20.5545
-22.3334
-24.1288
-25.9399
-27.7644
-29.6
-31.4411
-33.2733
-35.0723
-36.8074
-38.4446
-39.973
-41.4139
-42.7755
-44.0342
-45.1506
-46.0702
-46.7205
-47.0067
-46.8028
-45.9391
-44.1939
-41.2761
-36.8908
-30.7386
-23.2614
4.42069
5.83563
7.40812
9.08583
10.7068
12.3148
13.8601
15.2317
16.3862
17.3492
18.1278
18.7347
19.2064
19.5713
19.8504
20.0644
20.228
20.351
20.4407
20.5012
20.5329
20.5331
20.4947
20.4057
20.2535
20.0307
19.7322
19.3516
18.8823
18.3178
17.6534
16.8859
16.0151
15.0448
13.9841
12.8493
11.6701
10.4889
9.42641
2.77561
1.27838
-0.418776
-2.21002
-3.95656
-5.78395
-7.6222
-9.42348
-11.2151
-12.9733
-14.6958
-16.3989
-18.0815
-19.7529
-21.4288
-23.1155
-24.8128
-26.517
-28.2246
-29.9294
-31.6174
-33.2654
-34.8447
-36.3238
-37.6926
-38.9723
-40.169
-41.2601
-42.2086
-42.9641
-43.4598
-43.6095
-43.3008
-42.3862
-40.6787
-37.9418
-33.9441
-28.4549
-21.8681
4.19361
5.56016
7.07801
8.69716
10.2601
11.8099
13.2986
14.6186
15.7288
16.6542
17.4017
17.9835
18.4351
18.7836
19.0494
19.2522
19.4063
19.5215
19.6049
19.6609
19.6905
19.6916
19.6584
19.5801
19.4451
19.2468
18.9808
18.6412
18.222
17.7171
17.1217
16.4326
15.6489
14.7735
13.8137
12.7832
11.7072
10.6212
9.63296
2.61114
1.16563
-0.472587
-2.20065
-3.88409
-5.64333
-7.40979
-9.13739
-10.8517
-12.5298
-14.1695
-15.7862
-17.3789
-18.956
-20.5317
-22.1125
-23.6993
-25.2875
-26.8723
-28.447
-29.9982
-31.5035
-32.9363
-34.2669
-35.4879
-36.6187
-37.6641
-38.6029
-39.4004
-40.0105
-40.3729
-40.4103
-40.0238
-39.0866
-37.4423
-34.8986
-31.2735
-26.3879
-20.5884
3.98004
5.2984
6.76259
8.32342
9.83011
11.3235
12.7567
14.0266
15.0937
15.9824
16.6997
17.2578
17.6905
18.0243
18.2784
18.4718
18.6183
18.727
18.8054
18.8577
18.8853
18.8869
18.8576
18.7879
18.6673
18.4901
18.2523
17.9493
17.5752
17.1247
16.593
15.9768
15.2747
14.4885
13.624
12.6922
11.7139
10.7186
9.80211
2.45967
1.06592
-0.513868
-2.17939
-3.80047
-5.49276
-7.18925
-8.84466
-10.4837
-12.0836
-13.6425
-15.1749
-16.6798
-18.1654
-19.6439
-21.1221
-22.602
-24.0785
-25.5458
-26.9969
-28.4184
-29.7895
-31.0849
-32.2773
-33.3621
-34.3559
-35.264
-36.0653
-36.7282
-37.2112
-37.4605
-37.4075
-36.9664
-36.0295
-34.4665
-32.1216
-28.8503
-24.5095
-19.4049
3.77947
5.05006
6.46103
7.96559
9.41745
10.856
12.2359
13.4571
14.4819
15.3347
16.0225
16.5573
16.9721
17.2921
17.5357
17.7214
17.8617
17.9657