/*--------------------------------*- C++ -*----------------------------------*\
  =========                 |
  \\      /  F ield         | OpenFOAM: The Open Source CFD Toolbox
   \\    /   O peration     | Website:  https://openfoam.org
    \\  /    A nd           | Version:  9
     \\/     M anipulation  |
\*---------------------------------------------------------------------------*/
FoamFile
{
    format      ascii;
    class       volVectorField;
    location    "50";
    object      U;
}
// * * * * * * * * * * * * * * * * * * * * * * * * * * * * * * * * * * * * * //

dimensions      [0 1 -1 0 0 0 0];

internalField   nonuniform List<vector> 
10720
(
(-2.42095 19.4923 2.69991e-17)
(-1.33269 19.7752 -2.69701e-17)
(-0.191794 19.694 0)
(0.910996 19.0095 -2.7558e-16)
(1.88746 17.785 3.20871e-16)
(2.64603 15.9061 1.80768e-16)
(3.03172 13.2957 2.184e-16)
(2.92293 10.0397 0)
(2.25564 6.31564 0)
(1.0898 2.49646 0)
(-0.413586 -0.559431 3.34034e-18)
(-1.61198 -1.44191 0)
(-2.35518 -1.90072 2.31297e-15)
(-2.56167 -1.98153 0)
(-2.2156 -1.81462 0)
(-1.60647 -1.47694 0)
(-0.756382 -0.928813 -5.53122e-15)
(-0.0473722 -0.37958 -1.09484e-14)
(-0.366434 -0.177496 7.26983e-15)
(-1.69169 -0.283187 0)
(-3.50379 -0.44978 3.38169e-15)
(-5.38942 -0.54843 -5.82669e-15)
(-7.09465 -0.536439 2.79699e-15)
(-8.5079 -0.432235 -7.74258e-17)
(-9.62281 -0.267336 0)
(-10.4882 -0.0568789 1.23548e-15)
(-11.1243 0.184848 1.89458e-17)
(-11.549 0.439094 -6.08102e-16)
(-11.8038 0.694635 -2.37602e-15)
(-11.9399 0.943316 -9.21189e-15)
(-12.0176 1.18212 4.44347e-15)
(-12.0934 1.41284 8.84525e-15)
(-12.1942 1.63333 8.46865e-15)
(-12.2961 1.83383 3.32146e-14)
(-12.3011 1.99335 -1.6041e-14)
(-11.9733 2.05558 -1.22801e-16)
(-10.624 1.81761 8.39138e-17)
(-7.51414 0.986149 3.3227e-14)
(-3.47644 0.388139 -4.83245e-14)
(-3.4876 19.0119 1.25728e-17)
(-4.57411 18.2576 2.41366e-17)
(-5.63612 17.2432 -4.28841e-17)
(-6.57544 15.7667 5.00353e-17)
(-7.28854 14.0665 1.35289e-16)
(-7.68421 12.145 -7.33164e-17)
(-7.69647 10.0986 -2.93518e-17)
(-7.31294 8.08432 9.23734e-17)
(-6.60749 6.25546 0)
(-5.68221 4.68078 0)
(-4.62194 3.38245 5.12954e-16)
(-3.51883 2.36014 3.89715e-16)
(-2.43277 1.57633 -1.09608e-15)
(-1.39414 0.98833 1.7028e-15)
(-0.434133 0.556086 6.14043e-15)
(0.41413 0.221148 5.46086e-15)
(1.22093 -0.0842603 5.26328e-15)
(2.00095 -0.324591 2.86531e-15)
(2.72562 -0.49634 0)
(3.39883 -0.616513 0)
(4.03789 -0.699197 -3.32086e-15)
(4.65438 -0.748287 -1.69027e-16)
(5.2535 -0.762879 2.49927e-15)
(5.83124 -0.735629 -1.99239e-15)
(6.37132 -0.664349 4.9225e-18)
(6.86636 -0.559075 0)
(7.32039 -0.428003 6.22104e-16)
(7.73701 -0.277244 0)
(8.11787 -0.111393 0)
(8.46568 0.0647673 3.81788e-16)
(8.7855 0.24785 0)
(9.08069 0.434652 -1.0425e-15)
(9.3583 0.623043 -1.61928e-15)
(9.6262 0.811525 -6.07148e-15)
(9.90472 1.00201 1.63447e-15)
(10.2009 1.19681 -4.6048e-18)
(10.6135 1.41767 0)
(11.0232 1.68023 -2.40161e-15)
(12.5833 1.98962 -5.1329e-15)
(2.58192 17.8995 9.24125e-18)
(3.74482 18.2399 -1.31514e-17)
(4.93616 18.5594 0)
(6.05829 18.7964 0)
(6.99345 18.9032 -7.30563e-17)
(7.689 18.8626 -1.29475e-16)
(8.07996 18.5325 0)
(8.09496 17.7154 0)
(7.64946 16.1233 1.63776e-16)
(6.65676 13.5027 0)
(5.04461 9.8194 6.78282e-16)
(2.83418 5.5607 0)
(0.190755 1.11134 6.18257e-16)
(-1.61065 -1.09077 -8.86447e-16)
(-2.29305 -1.69232 1.47985e-15)
(-2.55207 -1.87622 -2.57163e-15)
(-2.51118 -1.51219 2.60571e-15)
(-2.7493 -0.991069 2.62158e-15)
(-3.60193 -0.690937 2.09202e-15)
(-5.05105 -0.652857 1.15581e-16)
(-6.64875 -0.711509 -1.72389e-15)
(-8.06824 -0.743576 1.72583e-15)
(-9.20397 -0.695438 -9.86293e-17)
(-10.077 -0.579771 0)
(-10.7597 -0.422354 0)
(-11.2878 -0.225465 0)
(-11.6746 0.00549886 1.14967e-16)
(-11.9472 0.255005 -2.87147e-17)
(-12.1357 0.515345 1.83179e-15)
(-12.2696 0.779115 1.3625e-17)
(-12.381 1.041 -1.20749e-17)
(-12.4905 1.29883 -7.2451e-17)
(-12.5848 1.54173 6.39506e-15)
(-12.6319 1.75533 -1.25636e-14)
(-12.5998 1.93401 -9.37682e-17)
(-12.2607 2.05174 -2.21356e-14)
(-10.9108 1.92109 0)
(-7.87919 1.07931 -8.29961e-15)
(-3.83328 0.14949 -1.87788e-14)
(1.44827 17.4335 -1.24617e-17)
(0.32851 16.8446 2.01277e-17)
(-0.894705 16.0606 1.3157e-16)
(-2.0777 15.0259 -1.70256e-16)
(-3.13961 13.727 0)
(-4.00026 12.1943 -6.23263e-18)
(-4.57514 10.488 -4.41594e-17)
(-4.79758 8.72781 -3.45717e-16)
(-4.67207 7.03669 1.60172e-16)
(-4.25725 5.49595 -3.17223e-16)
(-3.624 4.16257 5.89361e-16)
(-2.85137 3.05959 -2.60134e-16)
(-2.00922 2.17533 0)
(-1.14848 1.48379 -4.94235e-16)
(-0.305514 0.952579 -2.4734e-17)
(0.49667 0.53723 -2.3197e-15)
(1.26967 0.196067 0)
(2.01566 -0.0576005 0)
(2.72089 -0.238823 -2.12177e-16)
(3.38811 -0.369989 1.86099e-16)
(4.02914 -0.462495 -2.34479e-15)
(4.65261 -0.516604 -2.68363e-16)
(5.26186 -0.530073 1.19113e-16)
(5.85346 -0.495003 1.59494e-15)
(6.41381 -0.413431 -1.41455e-15)
(6.93447 -0.30155 -1.15266e-15)
(7.41737 -0.16814 0)
(7.8652 -0.0183765 0)
(8.2788 0.144098 0)
(8.66082 0.314677 2.52403e-18)
(9.01528 0.491074 0)
(9.34517 0.67043 0)
(9.65691 0.85107 2.7111e-15)
(9.95789 1.03212 2.01295e-15)
(10.2672 1.21611 -1.34439e-15)
(10.5896 1.408 6.74781e-16)
(11.0289 1.63445 9.0616e-17)
(11.43 1.90364 1.84582e-15)
(13.0414 2.44042 3.59344e-15)
(0.989908 16.3717 3.01709e-18)
(1.79081 16.678 6.33511e-17)
(2.65785 16.867 -5.10423e-17)
(3.57605 16.9684 -4.63307e-17)
(4.49838 16.9999 -1.05901e-16)
(5.43681 17.0486 2.97256e-16)
(6.3385 17.1958 -1.85654e-16)
(7.14025 17.4444 -1.50687e-16)
(7.79262 17.6364 4.03066e-19)
(8.16851 17.3676 -1.38822e-16)
(8.03716 16.0696 1.20556e-16)
(7.06023 13.2826 -3.0284e-16)
(4.98078 8.92616 -1.83932e-16)
(2.08131 3.99421 0)
(-0.691854 0.113938 -1.0075e-15)
(-2.20402 -1.35341 2.19607e-15)
(-3.08169 -1.52189 0)
(-3.83098 -1.06346 -3.51326e-15)
(-4.83046 -0.651705 -1.46644e-15)
(-5.95599 -0.466828 1.71113e-16)
(-7.00173 -0.430391 -1.50242e-16)
(-7.91146 -0.437333 -8.58498e-17)
(-8.7188 -0.412397 -1.28306e-15)
(-9.44933 -0.340651 7.13284e-16)
(-10.0991 -0.229253 0)
(-10.6496 -0.0773096 7.49709e-16)
(-11.0901 0.112163 -9.42663e-17)
(-11.4259 0.327172 0)
(-11.6736 0.560654 1.45051e-15)
(-11.8605 0.804969 2.87106e-15)
(-12.0216 1.05417 -5.52833e-15)
(-12.1846 1.30552 -5.27241e-15)
(-12.3503 1.54603 -9.40073e-17)
(-12.4895 1.75319 -1.03042e-14)
(-12.5386 1.90394 -1.00754e-14)
(-12.2679 1.97018 1.78698e-14)
(-11.0215 1.78348 0)
(-8.16485 0.865183 -5.82713e-15)
(-4.32259 -0.21042 2.26277e-14)
(0.257941 15.9656 8.10057e-18)
(-0.464637 15.4296 1.26051e-17)
(-1.19803 14.6952 -7.44617e-17)
(-1.93551 13.7807 0)
(-2.59517 12.6903 -8.23319e-18)
(-3.1355 11.4309 0)
(-3.50749 10.0395 1.23286e-16)
(-3.66533 8.59308 9.61151e-17)
(-3.59185 7.16908 1.58749e-16)
(-3.30254 5.82696 0)
(-2.83595 4.61563 -6.84184e-16)
(-2.2373 3.56612 -2.26323e-16)
(-1.55331 2.68386 1.38115e-15)
(-0.824815 1.95982 0)
(-0.0844759 1.37682 -1.36201e-15)
(0.646083 0.911048 -4.9165e-16)
(1.36536 0.534624 2.16499e-15)
(2.06926 0.244598 1.11978e-15)
(2.74472 0.0255607 3.21592e-16)
(3.39161 -0.14082 -1.50859e-16)
(4.01751 -0.264002 1.87516e-15)
(4.62869 -0.345407 0)
(5.22753 -0.384194 0)
(5.81096 -0.376047 1.72999e-18)
(6.36766 -0.323492 0)
(6.88965 -0.23842 2.08801e-15)
(7.37779 -0.127756 -2.94056e-17)
(7.83448 0.00389706 -1.94988e-16)
(8.26057 0.152711 0)
(8.65877 0.313713 -2.85249e-16)
(9.03294 0.48501 4.82503e-16)
(9.38606 0.663359 0)
(9.72439 0.846503 -1.25879e-15)
(10.055 1.03299 0)
(10.3964 1.22507 0)
(10.7511 1.42862 1.64754e-17)
(11.2244 1.6694 -3.89945e-17)
(11.6335 1.9744 -1.74881e-15)
(13.1941 2.57575 -7.19533e-15)
(2.46987 15.1918 6.12022e-18)
(3.22766 15.4965 1.33382e-17)
(4.02694 15.7204 -3.04712e-17)
(4.83431 15.8627 -2.24128e-17)
(5.57173 15.9118 0)
(6.21548 15.8876 0)
(6.7652 15.8503 -2.83168e-16)
(7.24832 15.8979 2.8991e-16)
(7.72376 16.145 0)
(8.23721 16.5765 -2.30214e-16)
(8.72782 16.891 -2.36355e-16)
(8.91705 16.4711 -2.14234e-16)
(8.33047 14.5662 2.44469e-16)
(6.47583 10.763 2.80963e-16)
(3.28348 5.57932 0)
(-0.230765 0.97769 9.88618e-16)
(-2.47958 -0.760093 4.19177e-16)
(-3.67118 -0.671566 2.72764e-15)
(-4.64082 -0.262958 1.52783e-16)
(-5.5728 -0.0507237 -1.28792e-16)
(-6.41015 -0.0263356 1.20818e-15)
(-7.2082 -0.0778883 -2.01286e-16)
(-7.99985 -0.113983 1.20591e-15)
(-8.76058 -0.104543 5.89017e-16)
(-9.44834 -0.0493636 -3.88084e-17)
(-10.0333 0.0522488 -5.7175e-16)
(-10.504 0.196955 4.76268e-18)
(-10.8667 0.375159 -4.56009e-18)
(-11.1407 0.580445 -1.14668e-15)
(-11.3564 0.804953 -3.44071e-17)
(-11.5525 1.04192 2.23829e-15)
(-11.7612 1.28744 -4.27506e-15)
(-11.9876 1.52647 -3.94754e-15)
(-12.2015 1.73172 -5.03788e-17)
(-12.3329 1.87168 7.86345e-15)
(-12.1551 1.90935 0)
(-11.0404 1.66501 1.0061e-14)
(-8.39859 0.64817 4.47092e-15)
(-4.85094 -0.581234 -8.22415e-15)
(1.74477 14.8281 1.55918e-18)
(1.01137 14.3737 -2.09869e-17)
(0.248586 13.7738 -4.038e-17)
(-0.513187 13.013 0)
(-1.20337 12.0894 7.82003e-18)
(-1.78754 11.012 0)
(-2.22255 9.81019 -1.58289e-16)
(-2.47011 8.54898 1.91723e-18)
(-2.51594 7.29052 1.59288e-16)
(-2.36917 6.08197 2.51167e-16)
(-2.05639 4.96546 3.90914e-18)
(-1.60989 3.97123 7.2613e-16)
(-1.06538 3.10957 -7.19406e-16)
(-0.456981 2.37954 2.80383e-16)
(0.185601 1.77267 1.39248e-15)
(0.840386 1.27368 1.84407e-15)
(1.49935 0.863244 -1.67227e-15)
(2.15596 0.536825 -8.78157e-18)
(2.79709 0.282865 0)
(3.41974 0.0863356 1.87086e-15)
(4.02741 -0.0619595 1.01651e-16)
(4.62386 -0.165067 -1.564e-15)
(5.2103 -0.223453 0)
(5.78345 -0.234737 5.50589e-19)
(6.33324 -0.200862 0)
(6.85168 -0.131654 -8.85289e-16)
(7.33846 -0.0344679 0)
(7.79537 0.0855605 1.71123e-16)
(8.22307 0.224323 -6.73596e-18)
(8.62411 0.376727 4.1676e-18)
(9.00222 0.540963 -4.07745e-16)
(9.36055 0.713449 -1.18473e-17)
(9.7054 0.891638 0)
(10.0437 1.07416 8.37088e-16)
(10.3939 1.26358 1.0922e-17)
(10.7579 1.46745 -5.75974e-16)
(11.2381 1.7107 -6.29875e-17)
(11.6536 2.03986 -2.79229e-18)
(13.1007 2.64529 0)
(2.51711 14.3228 6.38048e-18)
(3.10668 14.6293 1.13771e-17)
(3.74045 14.8853 -5.08499e-17)
(4.39125 15.0906 2.39937e-16)
(5.03242 15.2184 -6.21129e-17)
(5.6794 15.2726 -1.182e-16)
(6.29928 15.2653 1.36072e-16)
(6.86374 15.2265 0)
(7.37893 15.2314 3.41445e-16)
(7.88268 15.3957 1.21141e-16)
(8.43376 15.7972 0)
(9.02439 16.2887 2.04265e-16)
(9.42953 16.2918 -9.89488e-17)
(9.09892 14.9069 2.85733e-16)
(7.29151 11.4019 0)
(3.7485 6.14368 -6.37471e-16)
(-0.35892 1.52943 9.72803e-16)
(-2.80157 0.156168 -2.06656e-17)
(-3.91929 0.287688 0)
(-4.81675 0.431107 1.0564e-15)
(-5.66213 0.397595 -1.036e-15)
(-6.50078 0.285714 -6.25695e-17)
(-7.34052 0.186966 -9.89491e-16)
(-8.13987 0.133811 -9.51797e-16)
(-8.85343 0.131426 0)
(-9.45546 0.18215 0)
(-9.93959 0.282713 -1.26118e-16)
(-10.3158 0.424939 -1.53716e-17)
(-10.6064 0.602647 9.56404e-16)
(-10.844 0.807835 -2.81244e-17)
(-11.0684 1.03272 2.72056e-17)
(-11.3139 1.27169 3.35872e-15)
(-11.5881 1.50698 0)
(-11.8635 1.70625 1.30066e-14)
(-12.0722 1.83133 -4.99648e-17)
(-11.9929 1.8394 0)
(-11.0234 1.54067 4.0067e-17)
(-8.61473 0.432968 0)
(-5.40309 -0.944309 6.73421e-15)
(1.95966 13.9683 -5.91293e-18)
(1.39957 13.5403 1.84055e-17)
(0.809795 12.9845 -5.77781e-18)
(0.201608 12.3011 1.86379e-17)
(-0.363722 11.4924 -4.62063e-17)
(-0.861731 10.5568 -1.34201e-16)
(-1.25584 9.51317 1.57916e-16)
(-1.50863 8.41381 -2.48483e-16)
(-1.60168 7.30699 -1.86134e-16)
(-1.53632 6.22781 -2.36728e-16)
(-1.32762 5.21121 5.49022e-16)
(-0.995951 4.28483 -6.78715e-16)
(-0.56581 3.4606 -4.14625e-16)
(-0.0631758 2.7425 4.8259e-16)
(0.487349 2.12956 -1.45516e-15)
(1.06673 1.61145 2.82169e-16)
(1.6642 1.17674 0)
(2.27102 0.822675 -1.23944e-15)
(2.87428 0.54026 4.46616e-16)
(3.46883 0.317164 -1.81601e-15)
(4.05491 0.145033 0)
(4.6339 0.0203032 1.28292e-15)
(5.20575 -0.0581283 1.06563e-15)
(5.76686 -0.0894344 -9.41202e-16)
(6.30797 -0.0754506 0)
(6.82113 -0.0241997 -7.86865e-16)
(7.30495 0.0569482 0)
(7.76048 0.16301 0)
(8.18807 0.289811 0)
(8.58989 0.432334 2.23837e-16)
(8.96943 0.588443 0)
(9.32978 0.75433 0)
(9.67707 0.927201 -1.00016e-15)
(10.018 1.10595 -7.51048e-16)
(10.3704 1.29342 0)
(10.736 1.49872 -5.38616e-16)
(11.2124 1.74549 3.33321e-17)
(11.6283 2.09548 0)
(12.959 2.70654 2.46582e-15)
(3.08792 13.5466 -8.74488e-18)
(3.63007 13.8416 6.70314e-18)
(4.20941 14.0974 0)
(4.80881 14.3127 -4.60425e-18)
(5.39238 14.4687 -1.39738e-16)
(5.94911 14.581 1.1668e-16)
(6.46189 14.6575 8.85446e-18)
(6.92632 14.7043 -3.02526e-16)
(7.35418 14.7344 -2.01461e-17)
(7.76319 14.7823 2.982e-16)
(8.19074 14.9331 -9.63826e-17)
(8.70025 15.295 1.83427e-16)
(9.30783 15.7968 8.44075e-17)
(9.79657 15.9381 6.71905e-17)
(9.52281 14.7562 0)
(7.55349 11.3338 -9.86625e-17)
(3.53849 6.12903 -2.65558e-16)
(-0.802538 2.04872 -1.55412e-15)
(-2.92084 1.07944 5.60425e-16)
(-3.95813 0.990459 -6.27958e-16)
(-4.88859 0.864097 -9.8099e-17)
(-5.80779 0.679999 0)
(-6.70475 0.511046 8.1564e-16)
(-7.54042 0.389067 5.35043e-17)
(-8.27566 0.323823 -2.91642e-17)
(-8.891 0.319696 -4.09532e-16)
(-9.38545 0.374 9.6856e-17)
(-9.77273 0.479491 2.12567e-16)
(-10.0779 0.629904 -8.12868e-16)
(-10.3349 0.816483 -4.80875e-17)
(-10.5843 1.0301 1.56384e-15)
(-10.8617 1.26283 2.78646e-15)
(-11.1771 1.49408 0)
(-11.5057 1.68637 3.45831e-17)
(-11.7834 1.79465 -5.40986e-15)
(-11.7984 1.76949 0)
(-10.9828 1.41548 -1.44393e-14)
(-8.82581 0.22762 0)
(-5.97442 -1.27421 -5.86164e-15)
(2.57217 13.2168 6.07226e-18)
(2.05539 12.8282 -3.29727e-18)
(1.51151 12.3297 0)
(0.954629 11.7185 0)
(0.436538 10.9987 2.619e-17)
(-0.026161 10.1686 2.53965e-16)
(-0.403791 9.24253 0)
(-0.664289 8.26609 -2.61411e-16)
(-0.791043 7.27941 -3.33887e-16)
(-0.783514 6.30895 4.13357e-16)
(-0.651248 5.38305 -4.16288e-18)
(-0.407904 4.52554 2.96892e-16)
(-0.0703531 3.74707 -1.47257e-17)
(0.342096 3.05315 1.29848e-15)
(0.809609 2.44714 1.48214e-15)
(1.31705 1.9222 -1.50047e-15)
(1.85377 1.473 2.30157e-16)
(2.40961 1.09885 -4.26329e-16)
(2.97243 0.793243 1.97348e-16)
(3.53572 0.546928 1.23568e-15)
(4.0972 0.352918 1.62656e-16)
(4.65625 0.207657 -1.39319e-16)
(5.21157 0.109754 -8.88422e-16)
(5.75912 0.0591339 0)
(6.29013 0.0538791 4.85068e-17)
(6.79665 0.0874489 1.37804e-15)
(7.27635 0.152887 -9.36929e-18)
(7.72948 0.24528 9.01068e-18)
(8.15606 0.360317 0)
(8.55783 0.492879 -2.02908e-16)
(8.93799 0.640489 0)
(9.29951 0.799341 0)
(9.64821 0.966621 8.91752e-16)
(9.99047 1.1416 7.04933e-16)
(10.3434 1.32723 0)
(10.7088 1.53393 4.84402e-16)
(11.1789 1.78354 -6.4739e-17)
(11.5923 2.15077 -3.89142e-18)
(12.8157 2.76437 -2.16231e-15)
(3.41545 12.9252 -2.26664e-18)
(3.88298 13.2159 4.43697e-18)
(4.38452 13.4809 -3.02079e-17)
(4.90449 13.7189 3.08855e-17)
(5.41154 13.909 8.96487e-17)
(5.91968 14.0594 0)
(6.41469 14.1748 -1.68491e-16)
(6.88027 14.2626 1.4515e-17)
(7.31643 14.3357 -1.03796e-16)
(7.72488 14.401 -1.90363e-16)
(8.1157 14.4744 0)
(8.52221 14.62 -3.53587e-16)
(9.00782 14.9398 -2.61445e-16)
(9.60173 15.4129 -5.7053e-16)
(10.0814 15.5819 0)
(9.70592 14.4028 -3.08459e-16)
(7.35738 10.8848 -3.52551e-16)
(2.8892 5.89218 4.76064e-16)
(-1.17757 2.5576 -6.80992e-16)
(-2.95979 1.72505 7.81876e-16)
(-4.06033 1.40238 1.01366e-16)
(-5.08288 1.11851 -8.73066e-16)
(-6.04998 0.866303 0)
(-6.93114 0.665815 -8.71359e-16)
(-7.69471 0.530076 4.96466e-17)
(-8.32729 0.465829 4.09002e-16)
(-8.83371 0.470853 0)
(-9.2321 0.538338 -1.21195e-17)
(-9.55085 0.661415 3.39219e-17)
(-9.82602 0.830063 1.34683e-15)
(-10.0989 1.03329 -1.29944e-15)
(-10.4057 1.2605 -2.44791e-15)
(-10.7584 1.48797 2.36329e-15)
(-11.1351 1.67301 -5.89763e-18)
(-11.4755 1.76359 4.69254e-15)
(-11.5777 1.70315 8.46056e-15)
(-10.9177 1.29277 6.43717e-15)
(-9.03407 0.0342369 -5.8931e-17)
(-6.57746 -1.55688 1.92511e-17)
(2.97086 12.6071 -1.50434e-18)
(2.52487 12.2412 4.66877e-18)
(2.0509 11.7782 1.83778e-17)
(1.55965 11.2179 -1.99368e-17)
(1.0975 10.5663 -1.5549e-16)
(0.677069 9.81884 7.44797e-17)
(0.32415 8.98644 1.95864e-16)
(0.0681022 8.10967 6.3549e-16)
(-0.0757972 7.22262 3.35875e-16)
(-0.105851 6.34529 -3.88301e-16)
(-0.0280875 5.50093 -2.33315e-17)
(0.148509 4.7098 -2.99559e-16)
(0.412163 3.98033 0)
(0.749044 3.318 -1.48538e-17)
(1.14353 2.72777 -8.81194e-16)
(1.58458 2.20568 4.26913e-16)
(2.06288 1.7506 -4.0364e-16)
(2.56792 1.36346 0)
(3.08887 1.04021 6.88828e-16)
(3.61858 0.774453 -1.27278e-15)
(4.153 0.56107 0)
(4.68987 0.396865 1.03245e-15)
(5.22684 0.280414 0)
(5.75934 0.211084 -5.00763e-17)
(6.27887 0.187114 4.78713e-17)
(6.77739 0.203087 -6.35376e-16)
(7.25179 0.252779 -1.02658e-17)
(7.70159 0.331215 -8.32059e-18)
(8.12641 0.43406 3.25024e-18)
(8.52758 0.556143 -1.92058e-16)
(8.90788 0.694804 -3.19306e-16)
(9.27015 0.846331 5.13007e-16)
(9.61983 1.00803 1.45656e-17)
(9.96293 1.17941 6.91946e-18)
(10.3158 1.36337 0)
(10.6804 1.57128 4.03605e-18)
(11.1434 1.82324 4.64586e-17)
(11.553 2.20467 8.60723e-18)
(12.6764 2.8182 -1.82155e-15)
(3.78783 12.3852 -7.0987e-19)
(4.21295 12.6676 -5.53875e-18)
(4.66903 12.9318 0)
(5.14381 13.1747 -1.04185e-17)
(5.61002 13.377 5.77289e-17)
(6.0752 13.5487 0)
(6.52644 13.6947 -6.14894e-17)
(6.9527 13.8179 4.17137e-16)
(7.35879 13.9284 -4.84286e-16)
(7.74826 14.0327 1.49202e-16)
(8.12404 14.131 1.59934e-16)
(8.49263 14.2311 4.86849e-16)
(8.87717 14.3839 3.14295e-16)
(9.33685 14.6949 3.15511e-16)
(9.90487 15.1626 7.4333e-17)
(10.3264 15.2969 2.14362e-16)
(9.70221 13.9306 2.88564e-16)
(6.82368 10.2244 3.39665e-16)
(2.15381 5.61545 -3.48383e-16)
(-1.42925 2.92171 -1.44739e-15)
(-3.08527 2.08746 0)
(-4.27292 1.62403 -8.32965e-18)
(-5.33801 1.26287 7.44174e-16)
(-6.28658 0.970753 8.03669e-16)
(-7.09461 0.754741 -4.61273e-17)
(-7.75466 0.623303 -3.80447e-16)
(-8.27809 0.574678 2.91477e-18)
(-8.68886 0.601976 -2.01483e-16)
(-9.02045 0.697076 2.0742e-17)
(-9.31251 0.84816 -2.45797e-15)
(-9.60752 1.04176 -2.80395e-19)
(-9.94214 1.26417 -3.50617e-17)
(-10.3297 1.48822 -2.15766e-15)
(-10.7507 1.66587 -4.46562e-18)
(-11.1482 1.73801 -4.21106e-15)
(-11.3315 1.64129 -1.5176e-14)
(-10.8225 1.17483 5.83975e-15)
(-9.22565 -0.145312 3.13398e-15)
(-7.19531 -1.7927 -4.99176e-15)
(3.38352 12.0814 -1.89825e-19)
(2.97945 11.7374 -9.45991e-18)
(2.54939 11.306 -1.73632e-17)
(2.10344 10.7879 -4.45415e-17)
(1.68219 10.1906 9.51697e-17)
(1.2949 9.50864 9.54973e-18)
(0.963604 8.7511 -5.8276e-16)
(0.714776 7.955 -2.76029e-16)
(0.561882 7.15011 -1.8594e-17)
(0.506876 6.35183 0)
(0.545475 5.57951 -4.49096e-16)
(0.671502 4.85013 5.29365e-16)
(0.876618 4.16975 -6.23588e-16)
(1.15078 3.54319 -3.70058e-16)
(1.48215 2.97461 3.82904e-16)
(1.86352 2.46251 3.66106e-16)
(2.28686 2.00887 1.4133e-15)
(2.74248 1.61519 -3.36145e-16)
(3.22118 1.27967 -6.25995e-16)
(3.71581 0.99852 0)
(4.22127 0.768433 -1.04158e-15)
(4.7341 0.586986 -8.35252e-16)
(5.25104 0.453096 -5.76364e-18)
(5.76709 0.365831 -9.84906e-17)
(6.27379 0.323739 -4.12628e-17)
(6.763 0.322498 6.4858e-16)
(7.23096 0.356483 -1.61243e-17)
(7.67649 0.420806 1.3388e-16)
(8.0988 0.511171 2.87759e-17)
(8.49874 0.622479 1.73228e-16)
(8.87872 0.751933 -1.77617e-18)
(9.24134 0.895984 -1.00221e-15)
(9.59165 1.05207 -7.70176e-16)
(9.93531 1.2198 -6.00626e-16)
(10.2879 1.40193 -1.29178e-17)
(10.6513 1.61054 4.84933e-18)
(11.1069 1.86423 -1.04885e-16)
(11.5117 2.25685 8.03096e-16)
(12.5414 2.8686 1.67116e-15)
(4.11195 11.9226 1.41133e-18)
(4.49652 12.1984 3.89772e-18)
(4.9096 12.4625 3.24996e-17)
(5.34044 12.7112 -1.56726e-16)
(5.76383 12.9251 9.13951e-17)
(6.1893 13.1142 -1.17207e-16)
(6.61061 13.2804 2.75192e-16)
(7.01577 13.4238 0)
(7.4064 13.5538 1.53772e-16)
(7.78389 13.6777 -4.33231e-19)
(8.15109 13.7999 -1.45698e-16)
(8.51115 13.9203 -4.65388e-16)
(8.86583 14.0431 -1.60874e-16)
(9.23504 14.2192 0)
(9.68167 14.5578 0)
(10.237 15.0364 0)
(10.5588 15.042 0)
(9.54038 13.3311 -2.78379e-16)
(6.13291 9.46333 3.41385e-16)
(1.50651 5.32292 4.7509e-16)
(-1.67097 3.10691 -5.57947e-16)
(-3.29299 2.25678 5.13575e-16)
(-4.5206 1.72207 -5.66696e-16)
(-5.57431 1.31471 -4.27065e-17)
(-6.45445 1.0049 -2.3134e-17)
(-7.16048 0.796382 3.79541e-16)
(-7.71109 0.687757 8.73486e-17)
(-8.1379 0.671322 0)
(-8.48207 0.737099 0)
(-8.78932 0.87056 1.48239e-18)
(-9.10491 1.05516 0)
(-9.46602 1.27345 2.05109e-15)
(-9.88647 1.49442 -2.03166e-15)
(-10.3482 1.66447 -3.79087e-15)
(-10.7975 1.71733 7.6333e-15)
(-11.0563 1.58352 7.03544e-15)
(-10.69 1.0623 -5.36386e-15)
(-9.37826 -0.311439 -6.07357e-15)
(-7.77967 -1.99012 4.82456e-15)
(3.74595 11.6296 0)
(3.38056 11.303 2.62816e-18)
(2.99012 10.8967 2.68113e-17)
(2.58389 10.4124 -1.66661e-16)
(2.19844 9.85922 1.63164e-16)
(1.8406 9.23075 -1.40323e-16)
(1.52994 8.53455 -1.7898e-17)
(1.29043 7.80505 2.1425e-16)
(1.13428 7.06898 2.85963e-16)
(1.06311 6.33827 0)
(1.07372 5.62923 2.1568e-16)
(1.1616 4.95628 -7.499e-16)
(1.32056 4.32325 1.47896e-15)
(1.5429 3.73389 3.28272e-16)
(1.82053 3.19072 -6.8274e-16)
(2.14928 2.69416 -6.63953e-16)
(2.52172 2.24764 -6.37798e-16)
(2.93027 1.85299 0)
(3.36728 1.51017 0)
(3.8261 1.21765 0)
(4.30124 0.973769 9.6305e-16)
(4.78849 0.777171 0)
(5.28394 0.627149 -6.88894e-16)
(5.7822 0.522989 -9.13413e-17)
(6.27479 0.463547 -6.36364e-16)
(6.75343 0.445516 -5.70149e-16)
(7.2138 0.463885 0)
(7.65408 0.514044 -1.11142e-16)
(8.07309 0.591735 -2.99339e-17)
(8.47117 0.692057 5.54698e-18)
(8.85033 0.812056 5.65147e-16)
(9.21288 0.948442 -3.28282e-18)
(9.5635 1.09868 7.37014e-16)
(9.90744 1.26251 -5.64462e-16)
(10.2595 1.44247 0)
(10.6216 1.65126 -3.9561e-18)
(11.0693 1.9062 -2.8284e-17)
(11.4686 2.30759 -7.60444e-16)
(12.41 2.91673 7.92806e-18)
(4.42218 11.5158 6.74578e-19)
(4.77599 11.7844 0)
(5.15627 12.0461 -3.91163e-17)
(5.55388 12.2961 5.75779e-17)
(5.94513 12.5151 -4.41542e-17)
(6.34101 12.7146 1.1216e-16)
(6.73391 12.8946 -1.27366e-16)
(7.11421 13.0548 -1.21891e-16)
(7.48369 13.2018 0)
(7.84357 13.3407 -1.4213e-16)
(8.1967 13.4773 -1.37536e-16)
(8.54704 13.6163 1.29766e-16)
(8.89445 13.7567 4.12001e-16)
(9.23938 13.9066 1.42964e-16)
(9.60476 14.124 -4.03862e-16)
(10.0634 14.5173 -2.63039e-16)
(10.6258 14.9847 1.88923e-16)
(10.7786 14.7348 1.28844e-16)
(9.25673 12.5895 -6.8131e-17)
(5.41641 8.65885 9.64867e-17)
(0.940483 5.00867 3.1251e-16)
(-1.92144 3.14863 7.51667e-17)
(-3.51741 2.29442 -8.74826e-17)
(-4.7452 1.71795 -6.04652e-16)
(-5.74159 1.29102 0)
(-6.52436 0.991363 -3.43939e-16)
(-7.12101 0.813437 -1.66999e-16)
(-7.57244 0.747894 -1.59207e-16)
(-7.93074 0.781964 -5.9445e-16)
(-8.25148 0.897314 2.23334e-15)
(-8.58543 1.07328 9.5494e-16)
(-8.97126 1.28797 2.62686e-17)
(-9.42273 1.50607 2.99099e-18)
(-9.92225 1.66819 0)
(-10.4187 1.70092 -3.56523e-15)
(-10.7467 1.52924 0)
(-10.5128 0.954251 0)
(-9.47274 -0.465673 2.9643e-15)
(-8.28827 -2.15996 -3.49498e-17)
(4.08562 11.2333 -3.77203e-18)
(3.75038 10.9219 2.20604e-17)
(3.39145 10.5372 -4.3239e-18)
(3.01768 10.0814 3.20015e-17)
(2.66205 9.56483 -1.73338e-16)
(2.32954 8.98071 1.53818e-16)
(2.03748 8.33555 2.80823e-17)
(1.80803 7.66186 -2.04332e-16)
(1.65202 6.98394 -2.53719e-16)
(1.57063 6.31122 -3.11344e-16)
(1.56122 5.65772 -7.80939e-16)
(1.6204 5.03582 0)
(1.74307 4.44755 -5.58462e-16)
(1.92322 3.89459 -1.3847e-17)
(2.1557 3.37911 0)
(2.438 2.90223 -5.77275e-16)
(2.76412 2.46725 -2.7777e-16)
(3.12849 2.0763 -2.71103e-16)
(3.52512 1.73071 1.01159e-15)
(3.94813 1.43065 9.45305e-16)
(4.39216 1.17602 -1.08041e-16)
(4.85268 0.96643 8.05096e-16)
(5.32539 0.801871 1.88579e-16)
(5.80465 0.682002 -8.49785e-17)
(6.28192 0.606094 5.61319e-16)
(6.74878 0.57179 3.47556e-17)
(7.20042 0.574796 0)
(7.63449 0.610819 0)
(8.04936 0.675747 -5.44743e-18)
(8.44491 0.764917 1.46e-17)
(8.82268 0.875259 -5.47018e-16)
(9.18471 1.0037 -3.01576e-18)
(9.53528 1.14778 7.30507e-16)
(9.87925 1.30737 5.34304e-16)
(10.2306 1.4848 9.51862e-18)
(10.591 1.69335 -4.99257e-18)
(11.0304 1.94929 2.7371e-16)
(11.4233 2.35724 6.27218e-16)
(12.2816 2.9629 -7.04412e-18)
(4.71156 11.1553 4.67249e-19)
(5.03898 11.4171 0)
(5.39116 11.6758 1.47543e-17)
(5.76013 11.9258 0)
(6.12331 12.148 -7.31906e-17)
(6.49287 12.3549 7.56999e-17)
(6.86067 12.5444 1.00438e-16)
(7.22052 12.7159 1.19571e-16)
(7.57312 12.8747 0)
(7.91834 13.0245 -1.12268e-16)
(8.25852 13.1707 1.41237e-16)
(8.59799 13.3193 -2.67209e-16)
(8.93835 13.4738 -1.32399e-16)
(9.27976 13.6358 -1.27574e-16)
(9.62499 13.8199 2.64486e-16)
(10.007 14.0956 2.58488e-16)
(10.5141 14.549 -2.50282e-16)
(11.0823 14.9289 -2.48014e-16)
(10.9641 14.2878 0)
(8.88725 11.7143 8.05414e-17)
(4.71515 7.84804 -1.94641e-16)
(0.453275 4.67869 5.61698e-17)
(-2.14744 3.08073 -6.84724e-18)
(-3.71834 2.22368 1.44484e-15)
(-4.90426 1.63208 -8.28962e-17)
(-5.81283 1.21814 3.78881e-17)
(-6.48796 0.956888 1.61586e-16)
(-6.9817 0.833955 1.72983e-16)
(-7.36021 0.832302 5.19695e-16)
(-7.69384 0.928381 -1.0546e-15)
(-8.04344 1.09582 -8.79969e-16)
(-8.4515 1.30736 -3.67331e-15)
(-8.93184 1.52262 3.49181e-15)
(-9.46637 1.67633 -5.21716e-17)
(-10.0058 1.68792 3.39625e-15)
(-10.3969 1.47751 -1.41651e-16)
(-10.2841 0.849961 8.06835e-17)
(-9.49608 -0.60961 -4.60436e-17)
(-8.69561 -2.31077 4.52375e-15)
(4.40004 10.8822 1.63448e-18)
(4.09045 10.584 -1.16415e-17)
(3.75824 10.218 2.96369e-17)
(3.41197 9.78648 0)
(3.08191 9.30094 1.07629e-16)
(2.77155 8.75428 0)
(2.49646 8.15237 0)
(2.27721 7.52605 0)
(2.12346 6.89784 5.09334e-16)
(2.03596 6.27524 -3.163e-16)
(2.01247 5.67057 3.74192e-16)
(2.05002 5.09465 0)
(2.14395 4.54807 0)
(2.28988 4.03021 -5.32869e-16)
(2.48484 3.54328 0)
(2.72658 3.08852 5.27302e-16)
(3.01114 2.6682 1.12356e-17)
(3.33471 2.28481 0)
(3.69277 1.94046 -7.06751e-16)
(4.08059 1.6365 -1.09857e-15)
(4.49325 1.37406 -8.03703e-16)
(4.92626 1.1538 -7.48821e-16)
(5.37525 0.976471 1.35664e-15)
(5.83448 0.842174 0)
(6.29531 0.750848 5.23056e-16)
(6.74921 0.700988 5.35075e-16)
(7.19102 0.689045 2.24791e-16)
(7.61788 0.711076 0)
(8.02775 0.763245 -2.18443e-17)
(8.42006 0.841102 -1.51305e-16)
(8.79586 0.941592 5.14059e-16)
(9.15689 1.06179 -2.74651e-18)
(9.50701 1.1994 -6.66158e-16)
(9.85068 1.35437 4.96543e-16)
(10.201 1.52898 4.41933e-18)
(10.5596 1.73691 8.71025e-18)
(10.9901 1.99373 -3.2789e-16)
(11.3759 2.40611 -5.86863e-16)
(12.1561 3.00714 -2.2242e-15)
(4.9849 10.8319 -4.53419e-19)
(5.29031 11.0868 -1.25597e-18)
(5.61913 11.3418 0)
(5.96435 11.5902 2.98366e-17)
(6.30441 11.8134 0)
(6.65192 12.0242 0)
(6.99831 12.2198 3.68274e-18)
(7.33946 12.3994 1.03768e-16)
(7.67617 12.5673 2.12486e-16)
(8.00738 12.7258 4.61422e-16)
(8.33517 12.8796 2.33023e-16)
(8.66399 13.0344 2.39785e-16)
(8.99594 13.195 0)
(9.3336 13.3666 3.77258e-16)
(9.67905 13.5537 -1.21095e-16)
(10.0406 13.7801 0)
(10.4718 14.1231 2.46319e-16)
(11.0593 14.5999 2.43179e-16)
(11.585 14.7674 0)
(11.0858 13.6504 2.71928e-16)
(8.44182 10.7376 -3.25036e-16)
(4.06377 7.06677 0)
(0.0673581 4.33633 -7.15112e-17)
(-2.33359 2.91581 4.51883e-17)
(-3.85902 2.06692 3.94557e-17)
(-4.97223 1.49467 6.46131e-16)
(-5.779 1.12699 4.77436e-19)
(-6.34753 0.933401 -1.87974e-17)
(-6.76108 0.889382 -1.73369e-17)
(-7.11049 0.963859 3.21111e-17)
(-7.47331 1.12253 9.3301e-16)
(-7.9003 1.33117 3.39744e-15)
(-8.40679 1.54351 4.89023e-17)
(-8.9738 1.68813 -3.15746e-15)
(-9.55276 1.67749 -3.05806e-15)
(-10.0015 1.42755 -6.08679e-15)
(-9.99851 0.748767 -4.78685e-15)
(-9.44002 -0.744797 9.73419e-17)
(-8.99208 -2.44749 -4.44043e-15)
(4.69426 10.5675 -7.52961e-18)
(4.40615 10.2814 -4.21369e-17)
(4.09645 9.93168 9.28377e-17)
(3.77364 9.52138 0)
(3.46548 9.06262 2.13475e-16)
(3.17456 8.54812 0)
(2.9149 7.98332 -1.66515e-16)
(2.70559 7.39775 7.70779e-16)
(2.55545 6.81246 -6.96656e-16)
(2.46473 6.23358 0)
(2.43143 5.67196 7.0564e-16)
(2.45269 5.13739 8.22604e-16)
(2.52412 4.62864 0)
(2.64263 4.1443 -9.21812e-16)
(2.80594 3.68628 2.3683e-16)
(3.01263 3.25475 -2.32168e-16)
(3.26032 2.85137 2.3476e-16)
(3.54662 2.47858 4.42031e-16)
(3.86844 2.13883 -2.98374e-18)
(4.22216 1.83426 5.89579e-16)
(4.60364 1.56696 1.95193e-16)
(5.00875 1.33849 -1.75282e-16)
(5.43331 1.15021 -6.33879e-16)
(5.87161 1.00297 5.71965e-16)
(6.31501 0.897383 -4.61749e-16)
(6.75488 0.83278 -5.36304e-16)
(7.18581 0.806374 -2.12924e-16)
(7.60448 0.814658 -2.82232e-18)
(8.00848 0.854099 2.35037e-17)
(8.39679 0.920574 1.44054e-16)
(8.77 1.01103 1.0266e-18)
(9.12951 1.12273 -2.46842e-18)
(9.47874 1.25356 6.65618e-16)
(9.82175 1.40357 -5.05812e-16)
(10.1707 1.57509 9.04433e-18)
(10.527 1.7821 -4.19941e-16)
(10.9482 2.03954 1.71025e-16)
(11.3261 2.45429 0)
(12.0331 3.04973 2.1556e-15)
(5.24296 10.539 1.21871e-18)
(5.52959 10.7873 0)
(5.83848 11.0381 0)
(6.16346 11.284 -6.08331e-17)
(6.48372 11.5067 -5.55832e-18)
(6.81197 11.7193 0)
(7.14059 11.919 0)
(7.46514 12.1038 -3.74509e-16)
(7.78776 12.2779 -1.23126e-17)
(8.10663 12.4426 -1.08465e-17)
(8.42332 12.6018 -5.60732e-16)
(8.7426 12.761 -1.24317e-16)
(9.0667 12.9245 2.3142e-16)
(9.39896 13.0986 -5.41632e-18)
(9.74422 13.2892 0)
(10.1075 13.5042 0)
(10.51 13.7777 -7.23003e-16)
(11.0277 14.1734 -1.26571e-16)
(11.6952 14.5866 1.16015e-16)
(12.0864 14.4202 -2.56362e-16)
(11.1074 12.822 5.74775e-16)
(7.95098 9.72091 3.4702e-16)
(3.50912 6.33606 -4.43375e-16)
(-0.214673 3.9678 -6.41134e-16)
(-2.45588 2.66828 1.19735e-16)
(-3.91741 1.8565 -6.75155e-16)
(-4.94081 1.34072 -7.73312e-17)
(-5.63943 1.05381 1.84983e-17)
(-6.11788 0.955844 -1.72364e-17)
(-6.49348 1.00409 6.22858e-17)
(-6.86915 1.15307 -1.56851e-18)
(-7.31142 1.35893 -1.71557e-15)
(-7.84074 1.56814 -5.04521e-17)
(-8.43769 1.70293 4.6031e-17)
(-9.05374 1.66891 0)
(-9.55617 1.37846 5.76635e-15)
(-9.65258 0.649782 4.53712e-15)
(-9.29948 -0.872225 0)
(-9.17264 -2.57049 0)
(4.97025 10.2829 0)
(4.70041 10.0077 4.18356e-17)
(4.41013 9.67272 -1.5358e-16)
(4.10752 9.28112 -8.30273e-17)
(3.81843 8.84583 -2.00996e-16)
(3.54457 8.35939 0)
(3.29892 7.82685 0)
(3.09924 7.27674 -3.64041e-16)
(2.95348 6.72894 4.47575e-16)
(2.8616 6.1884 0)
(2.8217 5.66491 -3.36353e-16)
(2.83062 5.1675 -3.9928e-16)
(2.88444 4.69334 4.09626e-16)
(2.98091 4.2405 4.33037e-16)
(3.11772 3.81062 -8.32187e-16)
(3.29436 3.40272 0)
(3.5096 3.01775 -2.06693e-16)
(3.7622 2.6579 1.01858e-18)
(4.05032 2.32558 9.57037e-16)
(4.3715 2.02332 -1.95305e-16)
(4.72244 1.75388 1.8576e-16)
(5.09966 1.51954 -1.56371e-16)
(5.49934 1.32229 2.21109e-16)
(5.91601 1.16368 -1.14081e-15)
(6.3411 1.04509 -4.28827e-16)
(6.76597 0.966713 4.13596e-16)
(7.18498 0.926469 -2.61423e-17)
(7.59449 0.921376 0)
(7.99175 0.948253 -1.97754e-17)
(8.3753 1.00333 1.29747e-16)
(8.74526 1.08363 -2.27537e-16)