/*--------------------------------*- C++ -*----------------------------------*\
  =========                 |
  \\      /  F ield         | OpenFOAM: The Open Source CFD Toolbox
   \\    /   O peration     | Website:  https://openfoam.org
    \\  /    A nd           | Version:  9
     \\/     M anipulation  |
\*---------------------------------------------------------------------------*/
FoamFile
{
    format      ascii;
    class       surfaceScalarField;
    location    "0.25";
    object      alphaPhi0.water;
}
// * * * * * * * * * * * * * * * * * * * * * * * * * * * * * * * * * * * * * //

dimensions      [0 3 -1 0 0 0 0];

internalField   nonuniform List<scalar> 
4432
(
-4.81792e-06
1.45613e-05
5.82566e-13
1.19703e-06
2.76975e-13
-3.35348e-14
5.82325e-14
1.25494e-14
1.87416e-15
-7.62513e-15
-7.66752e-18
-2.51404e-16
-7.74364e-18
7.62597e-20
-1.22022e-18
2.93786e-19
-1.81642e-20
-1.05382e-22
-5.50161e-22
-2.38911e-22
-1.64247e-25
-1.58282e-23
-7.28036e-29
-2.00442e-26
-5.33473e-29
-2.01786e-29
-3.97033e-29
-1.9616e-29
-2.76243e-29
-2.26801e-29
-1.62863e-29
-2.22167e-29
-6.3481e-30
-2.15485e-29
3.04944e-30
-2.16484e-29
8.59332e-30
-1.35132e-29
6.71197e-30
-3.9152e-30
2.6166e-30
1.29732e-31
3.59584e-31
6.73166e-31
1.18484e-31
-6.17438e-06
3.05378e-05
2.20151e-13
1.18692e-06
7.18794e-14
-1.03102e-13
1.7045e-14
-1.22878e-15
1.79775e-16
-3.76948e-15
-1.15746e-16
-3.32972e-17
-1.15158e-18
2.07188e-17
-5.67167e-20
2.52875e-20
-1.43472e-20
-1.72583e-21
-1.4144e-21
-2.38297e-21
-5.86338e-25
-3.8442e-22
-5.29518e-28
-2.29077e-26
-3.55398e-28
-1.98694e-28
-2.75922e-28
-1.54828e-28
-1.89689e-28
-1.72854e-28
-1.1329e-28
-1.52567e-28
-4.63762e-29
-1.13739e-28
-6.28767e-30
-6.20219e-29
4.66323e-30
-2.24209e-29
4.18975e-30
-4.61097e-30
1.78216e-30
-1.81844e-31
2.36394e-31
8.28475e-31
1.58402e-31
-5.60844e-06
4.47261e-05
1.38512e-13
2.18342e-06
4.21291e-14
-1.52358e-13
6.71266e-15
-1.61082e-14
-5.8619e-16
-2.56344e-15
-4.86436e-16
2.46472e-16
-5.35913e-18
5.66836e-17
-1.10079e-18
3.09442e-19
-2.23504e-19
-3.20282e-20
-2.09523e-20
-2.14529e-20
-3.90636e-27
-3.57185e-21
-1.06809e-26
2.00749e-25
-4.14147e-27
-4.78473e-27
-2.58126e-27
-2.08027e-27
-1.27402e-27
-1.65584e-27
-4.61224e-28
-9.40402e-28
-1.13242e-28
-4.14374e-28
-1.70416e-29
-1.27743e-28
-6.87504e-31
-2.36072e-29
4.44532e-31
-2.1449e-30
3.09343e-31
-1.17846e-31
1.25592e-31
3.0653e-31
1.26013e-31
-4.88216e-06
5.65446e-05
9.59625e-14
3.51755e-06
3.32567e-14
-1.87338e-13
2.59629e-15
-2.99465e-14
-1.4135e-15
-1.54995e-15
-3.30296e-16
7.42806e-16
-2.6568e-17
3.98519e-17
-6.37156e-18
2.09198e-18
-7.75539e-19
-4.4232e-20
-6.20181e-20
-4.39822e-20
1.08344e-24
-6.54962e-21
-1.90432e-25
-2.89205e-25
-4.33979e-26
-1.94899e-25
-1.89683e-26
-3.22464e-26
-6.38663e-27
-1.56702e-26
-1.63107e-27
-5.53146e-27
-2.80035e-28
-1.72156e-27
-2.64926e-29
-3.62674e-28
-1.40277e-30
-3.63963e-29
-5.41486e-32
-1.45042e-30
1.47077e-32
-4.14496e-32
2.24156e-32
6.05318e-32
6.09857e-32
-3.40425e-06
6.72232e-05
6.61929e-14
3.67645e-06
2.7002e-14
-2.12841e-13
-1.62196e-16
-4.17048e-14
-2.48644e-15
7.74299e-16
-3.79417e-16
1.64341e-15
-5.72195e-17
7.06904e-17
-1.18759e-17
6.15861e-18
-1.32868e-18
1.15298e-20
-7.69802e-20
-1.07002e-19
-1.12992e-24
-7.37593e-21
-1.75449e-24
-1.19497e-24
-4.18513e-25
-1.39306e-24
-1.30659e-25
-2.82964e-25
-3.0783e-26
-1.04661e-25
-6.17687e-27
-2.65589e-26
-8.58646e-28
-5.87021e-27
-5.96093e-29
-8.73994e-28
-1.81988e-30
-6.11278e-29
-4.19329e-32
-1.82965e-30
-1.29789e-32
-1.88413e-32
-1.66515e-33
5.80955e-33
2.34284e-32
-2.14551e-06
7.67245e-05
4.85199e-14
1.99777e-06
2.32583e-14
-2.30123e-13
-1.89695e-15
-4.99956e-14
-3.62523e-15
3.32699e-15
-6.44177e-16
3.10616e-15
-1.44491e-16
2.00244e-16
-3.31124e-17
2.42308e-17
-4.36295e-18
5.97266e-19
-6.72369e-20
-6.83026e-19
-6.93894e-24
-6.98788e-21
-5.9994e-24
-2.51062e-24
-1.77543e-24
-3.05749e-24
-5.06768e-25
-8.8507e-25
-1.03e-25
-2.94266e-25
-1.69016e-26
-6.46958e-26
-1.89522e-27
-1.16298e-26
-1.15611e-28
-1.43799e-27
-3.41663e-30
-9.79671e-29
-3.7213e-32
-2.85284e-30
-4.11609e-33
-2.79218e-32
-2.94073e-33
5.24728e-34
6.07571e-33
-1.31632e-06
8.53703e-05
4.42855e-14
6.83145e-07
2.03759e-14
-2.34379e-13
-5.16239e-15
-5.25173e-14
-5.7694e-15
7.16734e-15
-2.02078e-15
6.44112e-15
-6.89356e-16
9.80146e-16
-1.7689e-16
1.63439e-16
-1.71515e-17
6.8197e-18
-3.53545e-20
-1.42702e-18
-1.05189e-23
3.63479e-20
-9.06581e-24
-1.93178e-24
-3.58204e-24
-3.13017e-24
-1.04201e-24
-1.43316e-24
-2.13171e-25
-5.33113e-25
-3.39017e-26
-1.31007e-25
-3.81594e-27
-2.54694e-26
-2.60902e-28
-3.47988e-27
-8.51586e-30
-2.73125e-28
-1.54603e-31
-9.07969e-30
-2.56132e-33
-1.55844e-31
-1.56698e-33
-1.76941e-33
8.35113e-34
-4.3791e-07
9.32378e-05
3.96029e-14
2.45235e-07
1.67575e-14
-2.28661e-13
-8.03446e-15
-5.03717e-14
-9.47747e-15
1.35572e-14
-6.23992e-15
1.18803e-14
-2.01355e-15
3.0333e-15
-3.63049e-16
4.01243e-16
-2.57945e-17
1.61961e-17
1.55314e-19
-5.4724e-19
-2.27069e-23
7.49578e-20
-1.24145e-23
-1.28033e-23
-5.14933e-24
-7.21635e-24
-1.97077e-24
-2.3484e-24
-4.64483e-25
-1.2407e-24
-8.34104e-26
-3.59084e-25
-1.06558e-26
-8.25054e-26
-8.25697e-28
-1.21523e-26
-2.94418e-29
-1.01576e-27
-7.60486e-31
-3.63906e-29
-8.16617e-33
-8.90892e-31
-7.5323e-34
-9.17409e-33
-2.75595e-35
-6.49505e-74
1.59261e-75
-1.02352e-72
2.90537e-73
-6.72778e-71
1.29916e-71
-2.23663e-69
1.78533e-70
-2.51038e-68
1.20432e-69
-5.40362e-68
2.05269e-69
-3.64401e-68
-6.47688e-70
-5.77745e-69
-2.57977e-69
-2.31996e-70
-5.88807e-69
-4.22536e-72
-2.37365e-70
-4.70639e-74
-4.31965e-72
-4.02962e-76
-4.82005e-74
-2.6638e-78
-4.13584e-76
-1.28192e-80
-2.73787e-78
-4.35186e-83
-1.32091e-80
-7.81815e-86
-4.47668e-83
-2.48318e-89
-7.92092e-86
-1.57073e-96
-3.75657e-89
-3.90057e-94
-1.6872e-71
1.1778e-71
-2.34163e-69
1.84858e-69
-1.50171e-67
5.55041e-68
-2.67496e-66
6.49334e-67
-7.89527e-66
1.90915e-66
-7.76233e-66
1.1697e-66
-5.48621e-66
-3.11679e-67
-1.12083e-66
-4.32848e-66
-3.67139e-68
-1.09452e-66
-5.83993e-70
-3.67542e-68
-5.92974e-72
-5.9274e-70
-4.77475e-74
-6.08475e-72
-3.05135e-76
-4.93048e-74
-1.46631e-78
-3.15628e-76
-5.23882e-81
-1.52053e-78
-1.1378e-83
-5.42407e-81
-6.96613e-87
-1.3046e-83
-1.86068e-93
-1.14897e-86
-7.4732e-93
-1.81392e-68
1.80657e-68
-1.14592e-66
1.07461e-66
-6.41857e-65
2.63314e-65
-9.8728e-64
3.04121e-64
-1.94658e-63
7.36176e-64
-6.6186e-64
3.34491e-64
-8.25749e-64
-5.15562e-65
-1.13469e-64
-7.12936e-64
-2.92719e-66
-1.12729e-64
-4.03425e-68
-2.99393e-66
-3.72814e-70
-4.16822e-68
-2.82486e-72
-3.86507e-70
-1.74561e-74
-2.93792e-72
-8.34685e-77
-1.81882e-74
-3.10045e-79
-8.71493e-77
-7.73603e-82
-3.25666e-79
-6.9842e-85
-1.07091e-81
-1.01893e-90
-1.31259e-84
-4.62109e-90
-9.46736e-66
9.42963e-66
-3.29211e-64
3.10498e-64
-1.27251e-62
6.01559e-63
-1.9747e-61
6.94089e-62
-4.18284e-61
1.70749e-61
-1.7099e-61
7.27051e-62
-1.0998e-61
-5.84509e-62
-7.58483e-63
-1.03207e-61
-1.55892e-64
-7.68525e-63
-1.88181e-66
-1.61471e-64
-1.59377e-68
-1.95556e-66
-1.1404e-70
-1.66285e-68
-6.82443e-73
-1.19312e-70
-3.24461e-75
-7.15561e-73
-1.26722e-77
-3.42636e-75
-3.42546e-80
-1.59697e-77
-4.0419e-83
-5.55933e-80
-1.56534e-88
-8.78082e-83
-8.72648e-88
-2.92274e-63
2.91736e-63
-6.54572e-62
6.12259e-62
-1.88145e-60
9.61583e-61
-2.75558e-59
1.04436e-59
-5.98827e-59
2.4757e-59
-2.90048e-59
9.01671e-60
-9.54696e-60
-1.90575e-59
-3.7719e-61
-9.32504e-60
-6.29899e-63
-3.90049e-61
-6.71029e-65
-6.55372e-63
-5.22744e-67
-7.01081e-65
-3.54682e-69
-5.48592e-67
-2.0741e-71
-3.7229e-69
-1.01009e-73
-2.22543e-71
-3.9893e-76
-1.34022e-73
-1.14249e-78
-6.60533e-76
-1.63024e-81
-2.4389e-78
-1.18531e-86
-4.75685e-81
-8.50304e-86
-6.59856e-61
6.60132e-61
-1.013e-59
9.27471e-60
-2.27669e-58
1.21046e-58
-2.80656e-57
1.13471e-57
-5.86091e-57
2.38494e-57
-3.25532e-57
6.09706e-58
-5.62522e-58
-2.6635e-57
-1.48985e-59
-5.64576e-58
-2.05984e-61
-1.54619e-59
-1.94821e-63
-2.15252e-61
-1.4017e-65
-2.04618e-63
-9.322e-68
-1.47791e-65
-5.5595e-70
-1.04104e-67
-2.62126e-72
-9.17091e-70
-1.02883e-74
-5.51299e-72
-3.07863e-77
-2.81307e-74
-5.05457e-80
-1.1408e-76
-5.68968e-85
-2.74762e-79
-6.21519e-84
-1.12231e-57
1.11754e-57
-1.93383e-56
1.28753e-56
-2.17696e-55
1.47195e-55
-4.11843e-55
3.47328e-55
-2.22482e-55
2.11438e-55
-2.91153e-55
3.78725e-57
-2.5758e-56
-2.65356e-55
-4.93182e-58
-2.65012e-56
-5.72747e-60
-5.13653e-58
-4.8473e-62
-6.01144e-60
-3.24213e-64
-5.11647e-62
-1.95693e-66
-3.43829e-64
-1.01037e-68
-2.33528e-66
-4.47207e-71
-1.38483e-68
-1.71605e-73
-7.09169e-71
-5.23903e-76
-3.24245e-73
-9.34952e-79
-1.23417e-75
-1.7747e-83
-2.96182e-78
-1.82736e-82
-1.06168e-54
1.06017e-54
-1.2536e-53
8.07375e-54
-1.27192e-52
7.62028e-53
-2.32916e-52
1.70348e-52
-1.03397e-52
9.18274e-53
-3.0754e-53
-7.22855e-53
-9.13179e-55
-3.012e-53
-1.30851e-56
-9.43643e-55
-1.28037e-58
-1.36929e-56
-9.68455e-61
-1.35202e-58
-5.96084e-63
-1.02973e-60
-3.22397e-65
-6.3788e-63
-1.55261e-67
-3.50352e-65
-6.57651e-70
-1.71576e-67
-2.47127e-72
-7.41218e-70
-7.59781e-75
-2.85157e-72
-1.43682e-77
-9.00123e-75
-3.6706e-82
-1.73468e-77
-1.34213e-81
-1.97081e-07
0.000116291
5.29319e-14
4.81531e-08
1.61062e-14
-1.82466e-13
-1.4311e-14
-3.16698e-14
-2.43947e-14
1.74875e-14
-1.71151e-14
2.17239e-14
-4.65375e-15
6.25879e-15
-5.6196e-16
7.0842e-16
-2.31638e-17
2.59404e-17
6.41255e-19
-7.62378e-19
-4.58658e-22
1.5666e-19
-1.69283e-22
-3.02265e-22
-5.13836e-23
-1.09208e-22
-2.01218e-23
-2.43734e-23
-5.08434e-24
-7.59869e-24
-9.48926e-25
-2.51096e-24
-1.19989e-25
-6.44656e-25
-9.12968e-27
-1.01296e-25
-3.32974e-28
-8.7937e-27
-1.00851e-29
-3.30844e-28
-1.5092e-31
-1.03969e-29
-5.56943e-34
-1.58093e-31
-5.83558e-34
-2.84388e-37
-1.81181e-06
0.000148034
2.21506e-14
3.48413e-07
7.95298e-16
-1.07384e-13
-2.12524e-14
-2.35975e-15
-3.08318e-14
1.08432e-13
-2.70133e-14
5.19768e-14
-1.1379e-14
1.64851e-14
-1.882e-15
3.7418e-15
-2.07385e-16
2.75372e-16
1.32075e-18
2.06361e-18
-8.63687e-21
7.91154e-20
-1.30114e-21
-2.76578e-21
-3.97722e-22
-6.45989e-22
-1.34038e-22
-1.53699e-22
-3.64998e-23
-5.87062e-23
-7.80341e-24
-1.94532e-23
-1.05831e-24
-5.3622e-24
-8.38066e-26
-9.13516e-25
-3.17137e-27
-8.1548e-26
-1.09474e-28
-3.14761e-27
-2.1486e-30
-1.13113e-28
-1.36399e-32
-2.26556e-30
-1.41762e-32
-1.91259e-35
-4.34822e-06
0.000178159
5.10509e-15
4.40512e-06
-1.24256e-14
-3.41001e-14
-1.38894e-13
1.1119e-13
-1.09575e-13
1.49187e-12
-4.95625e-14
4.14217e-13
-2.58547e-14
5.93698e-14
-1.10769e-14
1.15447e-14
-1.05781e-15
1.74408e-15
7.46311e-19
3.66048e-17
-1.06991e-19
-2.69851e-20
-1.61729e-20
-3.4485e-20
-3.81143e-21
-6.92657e-21
-1.10944e-21
-1.83901e-21
-2.93091e-22
-5.256e-22
-6.43253e-23
-1.59992e-22
-9.45303e-24
-4.48618e-23
-7.9438e-25
-8.26107e-24
-3.15646e-26
-7.77157e-25
-1.2275e-27
-3.11574e-26
-2.95128e-29
-1.25768e-27
-2.62632e-31
-3.10727e-29
-2.75361e-31
-6.47413e-34
-5.06636e-06
0.000204926
-6.54083e-14
2.01227e-05
-1.23492e-13
2.39844e-14
-1.55468e-12
1.5251e-12
-7.93996e-13
2.13939e-11
-3.31292e-13
4.10378e-12
-5.28821e-14
5.93528e-13
-8.93939e-15
3.41273e-14
-2.36122e-16
1.73577e-15
-3.57817e-19
1.11365e-17
-8.17056e-19
-3.76826e-20
-1.9565e-19
-2.60433e-19
-3.65113e-20
-6.26648e-20
-9.24469e-21
-2.04841e-20
-2.32762e-21
-4.82108e-21
-5.23892e-22
-1.31808e-21
-8.4177e-23
-3.69995e-22
-7.59752e-24
-7.4027e-23
-3.17807e-25
-7.4638e-24
-1.37714e-26
-3.12397e-25
-3.902e-28
-1.40206e-26
-4.37256e-30
-4.10438e-28
-4.61458e-30
-1.57483e-32
-6.92082e-06
0.000229745
-8.07749e-11
6.58158e-05
-1.03917e-10
2.33018e-11
-3.9535e-11
1.65949e-09
-1.03605e-11
3.99056e-10
-2.67686e-12
3.29145e-11
-4.41603e-13
4.5924e-12
-3.68118e-14
4.10363e-13
-1.90444e-17
9.96909e-15
-4.59268e-18
1.81952e-18
-5.43091e-18
2.10786e-19
-2.20524e-18
-1.35138e-18
-3.58241e-19
-6.96656e-19
-7.67499e-20
-1.98852e-19
-1.82018e-20
-4.47285e-20
-4.20158e-21
-1.07657e-20
-7.37977e-22
-2.99682e-21
-7.19542e-23
-6.51627e-22
-3.15454e-24
-7.10593e-23
-1.50132e-25
-3.09735e-24
-4.84576e-27
-1.52466e-25
-6.37829e-29
-5.10786e-27
-6.77902e-29
-2.96533e-31
-1.01844e-05
0.000250342
-7.97372e-10
0.000149929
-8.87386e-10
1.29851e-10
-2.31295e-10
7.47151e-09
-6.88775e-11
2.03125e-09
-1.44734e-11
2.73721e-10
-3.16209e-12
3.15063e-11
-2.85473e-13
3.39047e-12
-2.15419e-17
7.9507e-14
-2.07123e-17
5.14214e-18
-2.86885e-17
3.81574e-18
-1.94553e-17
-4.60491e-18
-3.58067e-18
-6.3885e-18
-6.4327e-19
-1.55617e-18
-1.41029e-19
-4.22039e-19
-3.31003e-20
-8.75225e-20
-6.31348e-21
-2.38219e-20
-6.6632e-22
-5.59712e-21
-3.03728e-23
-6.62298e-22
-1.5649e-24
-2.98635e-23
-5.60511e-26
-1.58981e-24
-8.26245e-28
-5.93331e-26
-8.84673e-28
-4.6171e-30
-1.17867e-05
0.000265714
-4.1999e-06
0.000217775
-3.69373e-08
3.60227e-06
-1.5662e-09
2.47287e-08
-3.88221e-10
1.40954e-08
-9.50659e-11
2.03823e-09
-1.92639e-11
2.51998e-10
-1.54995e-12
2.13538e-11
-6.44367e-17
4.25641e-13
-7.68933e-17
1.37824e-17
-1.23575e-16
2.77269e-17
-1.20066e-16
-7.56877e-18
-3.91236e-17
-3.92184e-17
-5.7203e-18
-1.70063e-17
-1.08619e-18
-3.63297e-18
-2.55472e-19
-7.34617e-19
-5.23049e-20
-1.85812e-19
-5.97806e-21
-4.63903e-20
-2.80651e-22
-5.98868e-21
-1.54525e-23
-2.76953e-22
-6.02338e-25
-1.57392e-23
-9.6299e-27
-6.41289e-25
-1.03896e-26
-6.16858e-29
-1.08223e-05
0.000278231
-6.96666e-06
0.000254129
-1.62957e-07
3.9066e-05
-1.00388e-08
7.28668e-08
-1.92163e-09
8.52084e-08
-5.33206e-10
1.38448e-08
-9.85787e-11
1.74906e-09
-6.39868e-12
1.27327e-10
-1.76859e-16
1.76715e-12
-2.31562e-16
4.71495e-17
-4.53622e-16
1.33031e-16
-4.94059e-16
2.5118e-17
-3.17647e-16
-1.42886e-16
-5.64704e-17
-1.3109e-16
-8.57946e-18
-2.76567e-17
-1.93003e-18
-5.72315e-18
-4.15322e-19
-1.4326e-18
-5.16599e-20
-3.70408e-19
-2.47358e-21
-5.2225e-20
-1.43921e-22
-2.45453e-21
-6.0192e-24
-1.47214e-22
-1.02114e-25
-6.4523e-24
-1.11031e-25
-7.26458e-28
-1.00797e-05
0.000289428
-1.3577e-05
0.000279007
-2.3367e-06
0.000154771
-9.77747e-08
1.81271e-06
-1.31125e-08
4.33274e-07
-2.73675e-09
8.07316e-08
-5.21283e-10
1.13885e-08
-2.32499e-11
8.72073e-10
-3.40037e-16
6.08292e-12
-5.48645e-16
1.40957e-16
-1.28674e-15
4.60789e-16
-1.73601e-15
2.61027e-16
-1.54919e-15
-3.12938e-16
-4.45714e-16
-5.7869e-16
-6.77579e-17
-1.89245e-16
-1.42987e-17
-3.57174e-17
-3.22335e-18
-1.08378e-17
-4.28705e-19
-2.84721e-18
-2.0734e-20
-4.37788e-19
-1.26274e-21
-2.07202e-20
-5.60871e-23
-1.29866e-21
-9.9454e-25
-6.05777e-23
-1.08999e-24
-7.68549e-27
-9.55809e-06
0.000299682
-1.88776e-05
0.000296413
-5.97548e-06
0.000253023
-5.50575e-07
1.89153e-05
-6.47755e-08
1.90025e-06
-1.28351e-08
4.19538e-07
-1.94742e-09
6.94576e-08
-3.13291e-11
5.48117e-09
-6.88811e-16
9.01617e-12
-1.08469e-15
3.50926e-16
-2.96808e-15
1.21862e-15
-4.66609e-15
1.13619e-15
-4.85153e-15
-3.56564e-16
-2.34901e-15
-1.65423e-15
-5.11363e-16
-9.9619e-16
-1.08808e-16
-2.83773e-16
-2.60256e-17
-8.13916e-17
-3.40939e-18
-1.886e-17
-1.65091e-19
-3.54617e-18
-1.04429e-20
-1.66354e-19
-4.89032e-22
-1.08073e-20
-8.96874e-24
-5.32435e-22
-9.90836e-24
-7.40635e-26
-9.23297e-06
0.000309285
-1.86624e-05
0.000309472
-1.30055e-05
0.000290982
-1.98636e-06
0.00011411
-2.54846e-07
7.32467e-06
-5.48015e-08
1.92779e-06
-1.01217e-08
3.96028e-07
-6.67369e-12
4.63839e-08
-1.03516e-15
2.60762e-12
-1.72886e-15
7.07165e-16
-5.41807e-15
2.47741e-15
-1.03138e-14
3.41607e-15
-1.20763e-14
3.7493e-16
-9.92986e-15
-3.59098e-15
-3.78962e-15
-5.45875e-15
-9.72121e-16
-3.06789e-15
-1.97186e-16
-7.61718e-16
-2.64979e-17
-1.25298e-16
-1.24876e-18
-2.72978e-17
-8.15073e-20
-1.28089e-18
-4.00469e-21
-8.49319e-20
-7.53983e-23
-4.39653e-21
-8.39697e-23
-6.57006e-25
-9.02772e-06
0.000318506
-1.8162e-05
0.000320609
-2.40774e-05
0.000311711
-7.77274e-06
0.000264689
-1.09666e-06
5.47904e-05
-2.14356e-07
9.58655e-06
-5.65858e-08
1.93596e-06
-1.07004e-12
3.15594e-07
-1.46739e-15
6.47791e-13
-2.51522e-15
1.23766e-15
-7.95482e-15
4.06591e-15
-1.97152e-14
8.21365e-15
-3.01662e-14
3.94241e-15
-3.28722e-14
-7.58415e-15
-2.46143e-14
-2.01205e-14
-5.59651e-15
-1.99002e-14
-9.41151e-16
-3.59727e-15
-2.32587e-16
-6.5777e-16
-9.36082e-18
-2.21731e-16
-6.01199e-19
-9.28792e-18
-3.09056e-20
-6.34466e-19
-5.94265e-22
-3.42239e-20
-6.67215e-22
-5.40768e-24
-8.79817e-06
0.00032741
-1.75049e-05
0.000330434
-2.55558e-05
0.000326645
-2.23876e-05
0.000319122
-7.13945e-06
0.000222311
-1.34559e-06
6.91163e-05
-4.11441e-07
1.22953e-05
-4.52666e-13
1.53754e-06
-1.92787e-15
1.95869e-13
-3.40415e-15
1.87842e-15
-9.67161e-15
5.71235e-15
-3.44476e-14
1.68801e-14
-7.19358e-14
1.59194e-14
-9.20372e-14
-1.04659e-14
-7.70118e-14
-4.3968e-14
-1.65646e-14
-3.41395e-14
-3.36466e-15
-8.21239e-15
-1.50943e-15
-2.50539e-15
-7.65116e-17
-1.32936e-15
-4.30283e-18
-6.07611e-17
-2.25886e-19
-4.48692e-18
-4.41214e-21
-2.52826e-19
-4.99486e-21
-4.15082e-23
-8.44366e-06
0.000335915
-1.65382e-05
0.000339144
-2.39739e-05
0.000337033
-2.95465e-05
0.000333007
-2.54241e-05
0.000323986
-9.34575e-06
0.000245446
-1.61979e-06
7.81007e-05
-1.32436e-13
4.44395e-06
-1.58609e-15
6.34168e-14
-3.51764e-15
2.62684e-15
-1.07793e-14
7.56137e-15
-5.86254e-14
3.10901e-14
-1.5052e-13
4.53148e-14
-1.70555e-13
-2.52633e-15
-1.14614e-13
-4.66576e-14
-2.66702e-14
-2.47894e-14
-8.60279e-15
-1.25026e-14
-5.17909e-15
-6.9039e-15
-4.391e-16
-4.3805e-15
-3.27533e-17
-3.18983e-16
-1.62253e-18
-3.13536e-17
-3.09787e-20
-1.75485e-18
-3.53742e-20
-2.98423e-22
-7.96001e-06
0.000343911
-1.53026e-05
0.000346768
-2.19169e-05
0.000344413
-2.74162e-05
0.000340397
-3.10876e-05
0.000333937
-2.70822e-05
0.000321447
-6.81252e-06
0.000235019
-4.39979e-14
2.04996e-05
-1.12555e-15
1.84703e-14
-3.55246e-15
3.45046e-15
-1.22299e-14
9.30844e-15
-8.989e-14
4.87199e-14
-2.30108e-13
9.73879e-14
-2.56937e-13
3.04736e-14
-9.8766e-14
-1.46026e-14
-2.84565e-14
-7.94609e-15
-1.60605e-14
-1.30695e-14
-1.17648e-14
-1.29995e-14
-1.66649e-15
-1.07194e-14
-2.11378e-16
-1.31386e-15
-1.29053e-17
-1.9046e-16
-2.06925e-19
-1.21889e-17
-2.38529e-19
-2.01612e-21
-7.39332e-06
0.000351323
-1.39524e-05
0.000353421
-1.97137e-05
0.000350388
-2.46083e-05
0.000345884
-2.84434e-05
0.00033974
-3.10935e-05
0.000330797
-1.54011e-05
0.000305695
-7.54538e-07
9.70746e-05
-1.12925e-15
2.07655e-07
-3.79821e-15
4.044e-15
-9.61485e-15
1.06848e-14
-9.7724e-14
6.31554e-14
-3.40018e-13
2.06618e-13
-5.00236e-13
2.61747e-13
-5.22654e-13
0
-3.56414e-14
-1.12155e-12
-2.22962e-14
-1.51259e-14
-1.91489e-14
-1.53323e-14
-5.24476e-15
-1.85497e-14
-8.58766e-16
-4.76934e-15
-7.04282e-17
-7.53584e-16
-1.37314e-18
-6.64435e-17
-1.52195e-18
-1.28144e-20
-6.78292e-06
0.000358115
-1.26057e-05
0.000359277
-1.75882e-05
0.000355472
-2.18498e-05
0.000350468
-2.54158e-05
0.000344461
-2.83146e-05
0.000336854
-2.56406e-05
0.000319298
-4.36656e-06
0.000216416
-5.39194e-16
3.79037e-06
-3.33063e-15
4.30022e-15
-5.79344e-15
1.16108e-14
-3.94612e-14
7.85167e-14
-4.80426e-13
5.5833e-13
-4.19922e-12
4.21674e-12
-4.19443e-12
-7.29568e-13
-5.8392e-14
-5.9679e-13
-3.64953e-14
-3.27876e-14
-2.63415e-14
-2.55742e-14
-1.29628e-14
-2.35633e-14
-2.55189e-15
-1.27325e-14
-2.72985e-16
-2.28471e-15
-1.00643e-17
-2.6099e-16
-9.67548e-18
-7.74311e-20
-6.15597e-06
0.000364275
-1.13163e-05
0.000364453
-1.56399e-05
0.000359846
-1.93431e-05
0.000354315
-2.2546e-05
0.000348154
-2.5339e-05
0.000341116
-2.78261e-05
0.000327272
-8.35893e-06
0.000280569
-6.56159e-15
3.15109e-05
-1.11807e-14
6.17888e-15
-5.09831e-14
6.02339e-14
-4.99072e-13
5.26156e-13
-5.10222e-12
2.95835e-12
-3.7851e-11
2.55577e-11
-1.32614e-11
-1.11949e-12
-1.55102e-13
-4.3876e-14
-8.55114e-14
-9.64435e-14
-3.08163e-14
-9.88562e-14
-2.11151e-14
-2.41284e-14
-6.08115e-15
-2.06161e-14
-7.9907e-16
-5.99512e-15
-4.86531e-17
-7.77032e-16
-4.65098e-17
-4.54861e-19
-5.53526e-06
0.000369812
-1.01084e-05
0.000369034
-1.38872e-05
0.000363645
-1.71242e-05
0.000357613
-1.9994e-05
0.000351223
-2.26001e-05
0.00034426
-2.49393e-05
0.000333756
-1.55764e-05
0.000307393
-1.20825e-06
0.00013767
-1.23801e-13
3.6059e-07
-2.10781e-13
1.37589e-13
-6.29849e-13
8.315e-13
-9.85008e-12
4.94384e-12
-5.23417e-11
3.67218e-11
-2.91119e-13
5.65681e-12
-2.48149e-13
-6.59262e-14
-4.26273e-13
-2.29609e-13
-4.72172e-14
-1.15695e-12
-2.45822e-14
-2.59654e-14
-1.18269e-14
-2.31154e-14
-1.85055e-15
-1.32084e-14
-1.65105e-16
-1.84541e-15
-1.60614e-16
-2.78978e-18
-4.93509e-06
0.000374748
-8.99144e-06
0.000373093
-1.23216e-05
0.000366983
-1.51785e-05
0.000360495
-1.775e-05
0.000353875
-2.01335e-05
0.000346967
-2.23255e-05
0.000338739
-2.23047e-05
0.00032199
-4.49362e-06
0.000244769
-5.88127e-14
4.93811e-06
-1.78829e-13
1.93764e-13
-4.81838e-13
8.73022e-13
-8.12901e-12
6.02612e-12
-4.17435e-11
5.22889e-11
-6.69563e-13
2.03148e-11
-6.56957e-13
-1.16224e-13
-1.26293e-12
-9.90831e-14
-6.79547e-14
-1.20744e-12
-3.1619e-14
-8.68016e-14
-1.73445e-14
-2.92065e-14
-3.52876e-15
-2.08445e-14
-4.21599e-16
-3.69519e-15
-4.23942e-16
-1.38578e-17
-4.36635e-06
0.000379114
-7.96888e-06
0.000376697
-1.09266e-05
0.000369944
-1.3474e-05
0.000363053
-1.5787e-05
0.000356219
-1.7962e-05
0.000349389
-1.9997e-05
0.00034212
-2.18609e-05
0.000330124
-7.26702e-06
0.000287074
-8.4208e-14
3.57539e-05
-2.05444e-13
2.1604e-13
-4.01663e-13
9.59303e-13
-7.3933e-12
8.81099e-12
-6.03413e-11
1.16238e-10
-2.1878e-12
5.81522e-11
-1.67545e-12
-3.40199e-13
-1.222e-12
-9.5048e-14
-1.0207e-13
-4.85999e-13
-5.29859e-14
-9.03011e-14
-2.38779e-14
-7.42428e-14
-5.77364e-15
-2.66525e-14
-8.61171e-16
-6.54726e-15
-9.15189e-16
-4.16434e-17
-3.83972e-06
0.000382954
-7.04554e-06
0.000379903
-9.69201e-06
0.000372592
-1.19846e-05
0.00036535
-1.40795e-05
0.000358332
-1.60658e-05
0.000351521
-1.79493e-05
0.000344648
-1.96875e-05
0.00033537
-1.24327e-05
0.000308171
-1.30764e-13
0.000130907
-2.73056e-13
2.46585e-13
-4.48194e-13
2.48309e-12
-2.78143e-11
2.22513e-11
-1.13631e-10
3.51197e-10
-1.02034e-11
2.98493e-10
-9.11178e-12
-7.64844e-13
-1.22792e-12
-7.10169e-12
-2.11624e-13
-3.85172e-13
-8.72617e-14
-1.91536e-13
-3.08341e-14
-1.08069e-13
-8.49416e-15
-3.55457e-14
-1.49371e-15
-1.07078e-14
-1.71243e-15
-9.15767e-17
-3.36468e-06
0.000386319
-6.22671e-06
0.000382765
-8.61296e-06
0.000374979
-1.06948e-05
0.000367434
-1.26077e-05
0.000360258
-1.44284e-05
0.000353414
-1.61705e-05
0.000346734
-1.77902e-05
0.000339032
-1.72446e-05
0.000321439
-2.5733e-06
0.000224642
-5.9849e-12
8.74286e-07
-1.00208e-11
7.98998e-12
-4.23589e-11
5.19507e-11
-5.69995e-10
1.06203e-09
-5.33425e-11
4.98626e-10
-3.96238e-11
-1.64681e-11
-6.29558e-13
-8.86616e-12
-5.71176e-13
-8.57476e-13
-1.25706e-13
-5.52462e-13
-3.87796e-14
-9.32348e-14
-1.17455e-14
-4.86356e-14
-2.30687e-15
-1.66226e-14
-2.90385e-15
-1.61119e-16
-2.94839e-06
0.000389268
-5.51699e-06
0.000385334
-7.68753e-06
0.000377149
-9.59644e-06
0.000369344
-1.13585e-05
0.000362027
-1.30376e-05
0.000355128
-1.46489e-05
0.000348528
-1.61493e-05
0.000341575
-1.75155e-05
0.000328712
-4.55656e-06
0.000264903
-1.4342e-11
8.19533e-06
-1.98021e-11
1.27745e-11
-8.42449e-11
9.3853e-11
-7.10231e-10
1.79979e-09
-1.34358e-10
1.21462e-09
-1.09571e-10
-9.65487e-12
-4.24326e-12
-1.07239e-11
-2.46833e-12
-2.24078e-12
-2.25342e-13
-1.75962e-12
-5.16614e-14
-1.18594e-13
-1.54064e-14
-7.46349e-14
-3.26663e-15
-2.43631e-14
-4.57504e-15
-2.42994e-16
-2.59444e-06
0.000391862
-4.91778e-06
0.000387657
-6.91232e-06
0.000379144
-8.68239e-06
0.000371115
-1.03234e-05
0.000363672
-1.1888e-05
0.000356709
-1.33855e-05
0.000350122
-1.47769e-05
0.000343519
-1.60087e-05
0.000333339
-6.00103e-06
0.000288203
-1.75439e-11
4.14997e-05
-2.65745e-11
1.9434e-11
-1.95355e-10
2.61424e-10
-4.0695e-10
3.26709e-09
-5.94549e-10
1.79199e-09
-2.25588e-10
1.59182e-11
-1.20409e-11
-6.0422e-11
-5.71841e-12
-7.63336e-12
-6.78918e-13
-4.44904e-12
-1.10906e-13
-6.02509e-13
-1.98899e-14
-1.18513e-13
-4.29019e-15
-3.39424e-14
-6.74669e-15
-3.26105e-16
-2.3026e-06
0.000394165
-4.42539e-06
0.00038978
-6.27901e-06
0.000380998
-7.94079e-06
0.000372777
-9.48888e-06
0.000365222
-1.09669e-05
0.000358196
-1.23757e-05
0.000351583
-1.36762e-05
0.000345145
-1.47999e-05
0.000336806
-9.11021e-06
0.000307915
-2.19e-11
0.000115802
-3.39146e-11
2.71941e-11
-4.59369e-10
3.79292e-10
-1.41249e-09
8.09254e-09
-3.36843e-10
1.16367e-08
-2.35182e-10
2.15016e-11
-4.96243e-11
-3.47899e-11
-1.22155e-11
-3.24814e-11
-1.95284e-12
-6.26953e-12
-1.886e-13
-9.96937e-13
-2.61903e-14
-2.0531e-13
-5.22629e-15
-4.59696e-14
-9.30087e-15
-3.92114e-16
-2.06925e-06
0.000396234
-4.02991e-06
0.000391741
-5.77197e-06
0.00038274
-7.35223e-06
0.000374357
-8.83427e-06
0.000366705
-1.02528e-05
0.000359619
-1.16007e-05
0.00035296
-1.28319e-05
0.000346572
-1.38686e-05
0.000339343
-1.24042e-05
0.000320943
-3.96767e-11
0.000191543
-5.51541e-11
3.83493e-11
-1.85312e-11
6.22017e-10
-5.65225e-09
1.04386e-08
-2.84746e-10
2.7177e-08
-2.092e-10
2.95868e-11
-1.09812e-10
-6.2156e-11
-2.29706e-11
-4.84218e-11
-3.13851e-12
-1.06341e-11
-3.89959e-13
-2.26591e-12
-3.83461e-14
-3.69009e-13
-5.91482e-15
-6.22566e-14
-1.1975e-14
-4.16301e-16
-1.88513e-06
0.000398119
-3.7109e-06
0.000393566
-5.36226e-06
0.000384391
-6.88171e-06
0.000375877
-8.32097e-06
0.000368145
-9.70666e-06
0.000361008
-1.10237e-05
0.000354293
-1.22143e-05
0.000347874
-1.31821e-05
0.000341152
-1.3545e-05
0.000327676
-1.89047e-06
0.000225229
-8.1078e-10
5.82916e-07
-9.91192e-10
1.44426e-09
-5.2911e-09
9.25985e-09
-3.90359e-09
2.84108e-08
-5.48868e-10
3.57368e-10
-1.56056e-10
-1.31247e-10
-3.52224e-11
-8.15529e-11
-5.27873e-12
-2.15023e-11
-6.56072e-13
-4.22444e-12
-5.32493e-14
-6.27851e-13
-6.17416e-15
-8.27847e-14
-1.4388e-14
-3.82585e-16
-1.73076e-06
0.00039985
-3.43243e-06
0.000395268
-5.00173e-06
0.00038596
-6.47063e-06
0.000377346
-7.88045e-06
0.000369555
-9.25198e-06
0.000362381
-1.0565e-05
0.000355616
-1.17491e-05
0.000349123
-1.26814e-05
0.000342532
-1.32319e-05
0.000331292
-3.14768e-06
0.0002418
-7.52734e-10
3.95176e-06
-9.8969e-10
1.52211e-09
-4.96849e-09
6.3454e-09
-3.71861e-09
3.06681e-08
-8.84777e-10
6.56031e-10
-2.04589e-10
-2.35728e-10
-4.30909e-11
-1.28559e-10
-6.87555e-12
-3.60663e-11
-8.32365e-13
-6.85796e-12
-6.40187e-14
-9.36963e-13
-5.73779e-15
-1.02308e-13
-1.5923e-14
-3.03239e-16
-1.56772e-06
0.000401417
-3.13943e-06
0.00039684
-4.62025e-06
0.000387441
-6.03269e-06
0.000378758
-7.4075e-06
0.000370929
-8.76231e-06
0.000363736
-1.00776e-05
0.000356937
-1.12753e-05
0.000350359
-1.22067e-05
0.000343728
-1.2653e-05
0.000333622
-3.43453e-06
0.000259277
-4.70342e-11
1.18952e-05
-3.30087e-10
1.3514e-09
-4.84208e-09
9.98486e-09
-2.64199e-09
2.8823e-08
-1.01292e-09
7.97942e-10
-2.35343e-10
-3.62237e-10
-4.48501e-11
-1.96386e-10
-6.76736e-12
-5.20042e-11
-7.85827e-13
-9.08511e-12
-5.85726e-14
-1.17727e-12
-4.39414e-15
-1.12691e-13
-1.58984e-14
-2.07943e-16
-1.32439e-06
0.000402742
-2.75749e-06
0.000398273
-4.12835e-06
0.000388812
-5.4568e-06
0.000380087
-6.76348e-06
0.000372236
-8.06507e-06
0.000365037
-9.34915e-06
0.000358222
-1.05402e-05
0.000351571
-1.14733e-05
0.000344835
-1.18652e-05
0.000335426
-3.83595e-06
0.000280884
-3.02278e-09
3.16568e-05
-4.2672e-09
2.14206e-09
-4.40348e-09
1.33355e-07
-4.52761e-09
2.78927e-08
-8.7551e-10
8.47213e-10
-2.11462e-10
-5.33975e-10
-3.43975e-11
-2.68523e-10
-4.39287e-12
-6.57555e-11
-4.59544e-13
-1.0114e-11
-3.37096e-14
-1.15945e-12
-2.39538e-15
-1.0376e-13
-1.46711e-14
-9.84318e-17
-8.97056e-07
0.000403639
-2.20783e-06
0.000399583
-3.43085e-06
0.000390034
-4.62185e-06
0.000381277
-5.79503e-06
0.000373407
-6.9668e-06
0.000366207
-8.13761e-06
0.000359389
-9.24931e-06
0.000352683
-1.01357e-05
0.000345821
-1.04824e-05
0.000336959
-5.15719e-06
0.000303019
-7.93625e-09
0.000100336
-9.66199e-09
3.8398e-09
-8.64629e-09
1.74084e-07
-3.59082e-09
2.823e-08
-6.82272e-10
1.26729e-09
-1.09694e-10
-7.46224e-10
-9.78227e-12
-3.14595e-10
-3.63433e-13
-6.85581e-11
0
-9.81018e-12
-6.154e-16
-9.97276e-13
-2.85211e-16
-8.09221e-14
-1.21375e-14
-2.34375e-17
-2.56293e-07
0.000403894
-1.43375e-06
0.000400758
-2.44697e-06
0.000391043
-3.42358e-06
0.000382246
-4.36869e-06
0.000374341
-5.29627e-06
0.000367119
-6.22674e-06
0.000360299
-7.14019e-06
0.000353571
-7.9035e-06
0.000346585
-8.19963e-06
0.00033818
-6.4618e-06
0.000317096
-4.81258e-09
0.000195546
-5.27851e-09
4.38337e-09
-2.55173e-09
1.84907e-07
-1.7775e-09
2.73967e-08
-1.21348e-10
1.11976e-09
0
-9.17796e-10
0
-3.32172e-10
0
-6.40213e-11
0
-8.28293e-12
0
-7.7656e-13
4.23189e-16
-5.80369e-14
-9.25765e-15
0
5.31997e-07
0.000403357
-4.02592e-07
0.000401675
-1.14341e-06
0.000391755
-1.81637e-06
0.000382874
-2.41571e-06
0.00037487
-2.9497e-06
0.000367559
-3.46767e-06
0.000360696
-4.01649e-06
0.00035399
-4.5462e-06
0.000346963
-4.80089e-06
0.000338793
-4.24765e-06
0.000323141
-2.8499e-07
0.000211514
0
8.88055e-08
-3.27168e-10
1.93894e-07
0
2.20908e-08
0
5.89276e-10
0
-1.04697e-09
0
-3.09682e-10
0
-5.28036e-11
0
-6.51532e-12
0
-6.1975e-13
7.00886e-16
-4.44191e-14
-6.41451e-15
5.31539e-18
1.15276e-06
0.000402179
7.49841e-07
0.000401985
4.00089e-07
0.00039195
1.40465e-07
0.000382912
3.12571e-08
0.000374609
7.42428e-08
0.000367083
1.89902e-07
0.000360008
2.51251e-07
0.000353279
1.68269e-07
0.000346319
5.0892e-08
0.000338277
3.72482e-07
0.000324025
5.62795e-07
0.000193617
0
1.31609e-06
6.45523e-10
1.46994e-07
0
1.99446e-08
0
-9.92379e-11
0
-1.02376e-09
0
-2.65432e-10
0
-4.43853e-11
0
-5.65594e-12
0
-5.6303e-13
7.54843e-16
-4.08071e-14
-4.30651e-15
8.18312e-18
1.56588e-06
0.000400495
1.79251e-06
0.000401322
1.95131e-06
0.000391127
2.22966e-06
0.000381642
2.76894e-06
0.000372485
3.58553e-06
0.000364079
4.57636e-06
0.000356264
5.55856e-06
0.000348551
6.32896e-06
0.000341347
6.71967e-06
0.000332608
6.02131e-06
0.000314637
1.39327e-06
0.000143229
0
3.69716e-06
0
1.70727e-07
0
2.0476e-08
0
-6.53605e-10
0
-9.24874e-10
0
-2.47395e-10
0
-4.40618e-11
0
-6.04223e-12
0
-6.25936e-13
7.22094e-16
-4.85358e-14
-3.75265e-15
3.82454e-18
1.5957e-06
0.000398404
2.2214e-06
0.000399068
3.07111e-06
0.000387361
4.04295e-06
0.000375817
5.42195e-06
0.000363695
7.21795e-06
0.000349799
9.25065e-06
0.000328948
1.12841e-05
0.000303429
1.31605e-05
0.000276495
1.42727e-05
0.000247659
1.16456e-05
0.000206736
5.77477e-07
6.01644e-05
0
6.76578e-06
0
3.66621e-07
0
2.35186e-08
0
-1.24605e-09
0
-1.10518e-09
0
-3.02565e-10
0
-5.45267e-11
0
-7.41158e-12
0
-7.70252e-13
6.93034e-16
-6.01754e-14
-3.7996e-15
9.9804e-19
8.44286e-07
0.000395839
1.37115e-06
0.0003878
3.48562e-06
0.000367066
5.50615e-06