/*--------------------------------*- C++ -*----------------------------------*\
  =========                 |
  \\      /  F ield         | OpenFOAM: The Open Source CFD Toolbox
   \\    /   O peration     | Website:  https://openfoam.org
    \\  /    A nd           | Version:  9
     \\/     M anipulation  |
\*---------------------------------------------------------------------------*/
FoamFile
{
    format      ascii;
    class       volScalarField;
    location    "0.25";
    object      epsilon;
}
// * * * * * * * * * * * * * * * * * * * * * * * * * * * * * * * * * * * * * //

dimensions      [0 2 -3 0 0 0 0];

internalField   nonuniform List<scalar> 
2268
(
0.0570895
0.180446
0.342957
0.49846
0.649584
0.806959
0.977124
1.16349
1.36596
1.58044
1.79864
2.00812
2.19302
2.33564
2.41822
2.42291
2.34806
2.22427
2.03821
1.79595
1.51845
1.06187
0.712273
0.0706788
0.125285
0.188178
0.244255
0.297239
0.350835
0.407693
0.469268
0.535758
0.606094
0.677941
0.747815
0.811446
0.864525
0.903851
0.929169
0.954573
1.00423
1.08884
1.22677
1.42648
1.36282
1.02099
0.0976768
0.131874
0.174713
0.212061
0.246414
0.280626
0.316716
0.355737
0.397821
0.442246
0.487496
0.531382
0.571359
0.605164
0.631872
0.653641
0.680068
0.730194
0.824732
0.995331
1.27376
1.46252
1.88701
0.120864
0.14506
0.178192
0.206758
0.233004
0.25937
0.287482
0.318122
0.35131
0.386384
0.42207
0.456594
0.487988
0.514706
0.536678
0.556909
0.58423
0.63586
0.733772
0.909498
1.19675
1.54455
2.70129
0.139292
0.158143
0.184774
0.207473
0.228748
0.250745
0.274741
0.301271
0.330243
0.361005
0.392395
0.42284
0.450651
0.474645
0.495213
0.515859
0.545395
0.600621
0.704541
0.889349
1.19001
1.66927
3.51089
0.15314
0.168656
0.190462
0.208876
0.226762
0.246037
0.267676
0.292008
0.318851
0.347566
0.377068
0.40591
0.432556
0.456026
0.47699
0.499294
0.531964
0.591819
0.703517
0.902688
1.23399
1.85874
4.41576
0.163733
0.175925
0.193778
0.209056
0.224664
0.242269
0.26259
0.285801
0.31168
0.339618
0.368607
0.397287
0.424212
0.448495
0.470957
0.49567
0.53189
0.59664
0.716508
0.932475
1.30906
2.11344
5.49069
0.17194
0.180165
0.194407
0.207402
0.221589
0.238287
0.257991
0.280782
0.306439
0.334413
0.363781
0.393259
0.42144
0.447448
0.472138
0.499681
0.539455
0.608687
0.735552
0.966287
1.39079
2.38943
6.90852
0.151227
0.289665
0.409985
0.482386
0.516657
0.527762
0.508509
0.474208
0.435135
0.397221
0.363796
0.335286
0.310019
0.285547
0.258919
0.226515
0.184271
0.0354511
0.0404325
0.158911
0.230348
0.253763
0.251324
0.24203
0.232705
0.218754
0.203275
0.188657
0.176076
0.165811
0.157464
0.150253
0.143225
0.135239
0.124854
0.110247
0.0870608
0.0686317
0.281126
0.253339
0.247441
0.229735
0.211422
0.194359
0.177155
0.16152
0.148585
0.138589
0.131184
0.125728
0.121508
0.117809
0.113874
0.108833
0.101708
0.091905
0.0920474
0.423654
0.30727
0.281147
0.250967
0.222891
0.196861
0.173143
0.153376
0.138171
0.127174
0.119569
0.114441
0.110967
0.108449
0.106272
0.103857
0.100751
0.0976367
0.111958
0.599576
0.390394
0.34225
0.296173
0.255129
0.216929
0.183578
0.157083
0.137581
0.12403
0.115035
0.109297
0.105778
0.103695
0.102469
0.101692
0.101272
0.102757
0.12864
0.825385
0.507275
0.430516
0.363092
0.304852
0.250176
0.203554
0.167713
0.142167
0.12491
0.113745
0.106841
0.102838
0.100795
0.100097
0.100429
0.101965
0.106973
0.142801
1.1391
0.671052
0.550755
0.454264
0.373276
0.296508
0.23212
0.183908
0.150467
0.128405
0.114402
0.105897
0.101098
0.0988309
0.098389
0.0994902
0.102507
0.110348
0.155017
1.80837
0.925843
0.721047
0.578308
0.464654
0.357715
0.269731
0.205471
0.162012
0.133973
0.116479
0.105986
0.100136
0.0974448
0.0970627
0.0986913
0.102842
0.112993
0.165723
0.179401
0.182227
0.192195
0.202956
0.215958
0.232042
0.251469
0.274261
0.300258
0.329034
0.359802
0.39139
0.422403
0.451888
0.480628
0.512816
0.557865
0.632721
0.766363
1.00891
1.46726
2.45647
4.68223
0.187859
0.180575
0.183989
0.192247
0.20456
0.220785
0.240819
0.26466
0.292284
0.323471
0.357659
0.393818
0.43044
0.4661
0.500904
0.53829
0.586537
0.66012
0.783359
0.997381
1.37967
2.09578
3.4314
0.196092
0.177575
0.174958
0.180983
0.192668
0.209035
0.229732
0.25477
0.284252
0.31814
0.356096
0.397276
0.440008
0.482093
0.522443
0.563107
0.610486
0.675685
0.77683
0.944228
1.2272
1.71472
2.53112
0.205956
0.176294
0.168678
0.172501
0.183208
0.199315
0.220341
0.246309
0.277384
0.313628
0.35489
0.400597
0.449069
0.497374
0.543206
0.58717
0.633814
0.6908
0.771395
0.899736
1.1089
1.44847
1.96417
0.218768
0.179511
0.167553
0.168839
0.178135
0.193631
0.214707
0.241338
0.273671
0.311761
0.355531
0.40472
0.458026
0.512522
0.565626
0.617257
0.670382
0.729143
0.802672
0.912097
1.08131
1.34046
1.70547
0.236423
0.190077
0.172928
0.170869
0.178404
0.193148
0.214214
0.241464
0.274989
0.314803
0.3608
0.412839
0.47043
0.532352
0.597886
0.667649
0.743185
0.824593
0.918382
1.03693
1.19937
1.42844
1.73561
0.265297
0.211396
0.185368
0.17871
0.184269
0.198382
0.219751
0.248076
0.28337
0.325751
0.375211
0.431148
0.493773
0.566061
0.651781
0.754706
0.873318
1.00333
1.15172
1.32031
1.51901
1.77013
2.10083
0.325154
0.250698
0.207705
0.193834
0.197047
0.210967
0.233537
0.264079
0.302379
0.348974
0.405033
0.467273
0.535006
0.618612
0.728898
0.870413
1.015
1.15818
1.30828
1.47678
1.6737
1.91691
2.26825
0.448122
0.321501
0.246963
0.219892
0.219886
0.234068
0.258668
0.292074
0.333503
0.383908
0.44338
0.509141
0.582506
0.663296
0.757984
0.863699
0.969963
1.08166
1.20367
1.34805
1.53055
1.76427
2.07408
0.610811
0.385161
0.291207
0.252699
0.243368
0.255658
0.280357
0.314429
0.356389
0.405201
0.458929
0.519342
0.588416
0.662649
0.73576
0.809523
0.886466
0.976705
1.09298
1.25012
1.46185
1.72957
2.043
0.739937
0.427077
0.326051
0.271295
0.254724
0.264267
0.288543
0.323044
0.365801
0.415401
0.471247
0.533379
0.601313
0.671408
0.737848
0.798508
0.858122
0.931518
1.0403
1.20685
1.44839
1.76528
2.13096
0.765205
0.395917
0.30934
0.265729
0.257326
0.271528
0.299903
0.338075
0.383793
0.435611
0.492631
0.554358
0.619526
0.684571
0.744337
0.796193
0.845249
0.908075
1.01063
1.18145
1.4422
1.79247
2.20961
0.708885
0.3293
0.268191
0.24984
0.254879
0.275979
0.308549
0.349565
0.397037
0.449515
0.505829
0.564815
0.624503
0.681337
0.731146
0.772596
0.811959
0.866376
0.962654
1.13146
1.39602
1.7562
2.215
0.700027
0.299182
0.243228
0.237075
0.250719
0.276923
0.312312
0.354566
0.401859
0.452613
0.5053
0.558169
0.608808
0.653999
0.690953
0.720257
0.749542
0.795753
0.88442
1.04522
1.30041
1.65076
2.13959
0.721009
0.289607
0.232648
0.230442
0.24766
0.276016
0.312057
0.353511
0.398469
0.445121
0.491576
0.535691
0.574978
0.606938
0.63038
0.64774
0.667546
0.70573
0.785335
0.933902
1.17434
1.51545
2.03819
0.753168
0.2892
0.229892
0.228115
0.245899
0.274108
0.308922
0.347856
0.388791
0.42967
0.468365
0.502631
0.530243
0.549631
0.561177
0.56868
0.580765
0.611579
0.681058
0.814575
1.03867
1.37646
1.91772
0.785855
0.292927
0.230632
0.227892
0.244708
0.271354
0.30369
0.338993
0.374937
0.409293
0.439872
0.464611
0.481895
0.491168
0.49382
0.49412
0.499899
0.522997
0.580059
0.693994
0.894167
1.21494
1.73173
0.805424
0.295205
0.231464
0.227653
0.242899
0.267257
0.296435
0.327586
0.358294
0.386323
0.409618
0.426474
0.435873
0.437966
0.434636
0.429964
0.430508
0.445603
0.488287
0.577385
0.739773
1.01
1.43834
0.807808
0.293896
0.230452
0.225851
0.239401
0.261245
0.287114
0.314167
0.340028
0.362577
0.379998
0.390966
0.394929
0.392445
0.385477
0.377573
0.373927
0.381559
0.41007
0.473471
0.592784
0.797047
1.12142
0.792871
0.288326
0.22675
0.221707
0.233628
0.252996
0.275703
0.299029
0.320733
0.338885
0.35193
0.358862
0.359439
0.354377
0.345482
0.335667
0.328914
0.330349
0.34674
0.387748
0.467997
0.608949
0.838035
0.762611
0.278648
0.220169
0.214964
0.225371
0.242405
0.262226
0.282309
0.300608
0.315407
0.32539
0.329786
0.328516
0.322297
0.312676
0.301971
0.293192
0.290046
0.297197
0.320968
0.370575
0.459682
0.607315
0.720426
0.265583
0.210991
0.205771
0.214752
0.229611
0.246834
0.264141
0.279703
0.292015
0.29996
0.30292
0.300878
0.294468
0.284955
0.274159
0.264355
0.258239
0.259023
0.270734
0.298752
0.350563
0.436748
0.670492
0.250195
0.19982
0.194594
0.202182
0.214989
0.229861
0.244772
0.258117
0.268585
0.275213
0.277478
0.275365
0.269387
0.260552
0.250276
0.240295
0.232601
0.22944
0.233384
0.247433
0.275148
0.321072
0.617098
0.233688
0.187448
0.182105
0.188281
0.199122
0.211825
0.22462
0.236112
0.245163
0.250932
0.252952
0.251178
0.246
0.2382
0.228878
0.219371
0.211178
0.205915
0.205266
0.210892
0.224234
0.24651
0.564064
0.217206
0.174712
0.169068
0.173788
0.182719
0.193388
0.204261
0.214134
0.222021
0.227182
0.229185
0.227947
0.22374
0.21716
0.209056
0.200464
0.192533
0.186457
0.18339
0.184281
0.189562
0.198943
0.514316
0.201687
0.162375
0.156231
0.159454
0.166529
0.175275
0.184364
0.192765
0.199623
0.204285
0.206344
0.205682
0.202472
0.197153
0.190378
0.182951
0.175758
0.169705
0.165621
0.164089
0.165124
0.167892
0.469726
0.187781
0.151041
0.144229
0.145947
0.151239
0.158173
0.165598
0.172628
0.178527
0.182714
0.18481
0.184667
0.182377
0.178256
0.172798
0.166621
0.160415
0.154874
0.15062
0.148046
0.147037
0.146671
0.431176
0.175836
0.141109
0.133524
0.133778
0.137396
0.14265
0.148536
0.154291
0.159276
0.162979
0.165048
0.165315
0.163812
0.160754
0.156509
0.15155
0.146409
0.141623
0.137667
0.134834
0.132996
0.131329
0.3988
0.165955
0.13278
0.124387
0.12327
0.125358
0.129093
0.133586
0.138172
0.142296
0.145505
0.147475
0.148028
0.147153
0.144989
0.141801
0.137946
0.133833
0.129876
0.126441
0.123759
0.121729
0.11968
0.372287
0.158087
0.126097
0.116917
0.114559
0.115291
0.117691
0.120957
0.124501
0.127835
0.130557
0.132369
0.133095
0.13269
0.131238
0.128925
0.126018
0.122825
0.119663
0.116817
0.11447
0.112557
0.110551
0.351198
0.152134
0.121008
0.111082
0.107628
0.107191
0.10845
0.11067
0.113315
0.115948
0.118211
0.11983
0.120634
0.120559
0.119646
0.118024
0.115887
0.113468
0.111007
0.108724
0.106765
0.105091
0.1033
0.335247
0.148057
0.117439
0.106781
0.102359
0.100931
0.101243
0.102595
0.104489
0.106524
0.108373
0.109786
0.110599
0.110736
0.110209
0.109104
0.107562
0.105756
0.10387
0.102071
0.100478
0.0990676
0.097532
0.324561
0.145958
0.115354
0.103893
0.0985878
0.0963204
0.0958581
0.0965112
0.0977969
0.0993368
0.100828
0.10204
0.102815
0.103072
0.102803
0.102062
0.100951
0.0996006
0.0981507
0.0967328
0.0954406
0.094264
0.0929635
0.319956
0.146154
0.114791
0.102317
0.0961433
0.0931476
0.0920582
0.0921604
0.092967
0.0941097
0.0953021
0.0963277
0.0970371
0.0973462
0.0972328
0.096728
0.0959045
0.0948625
0.0937128
0.0925612
0.0914857
0.0904839
0.0893682
0.323262
0.149222
0.115863
0.101981
0.0948694
0.0912144
0.0896156
0.0892918
0.0897305
0.0905626
0.091512
0.0923738
0.0930054
0.0933208
0.0932869
0.0929168
0.0922614
0.0913984
0.0904198
0.0894168
0.0884607
0.0875583
0.0865613
0.337747
0.15599
0.118712
0.102805
0.0946187
0.0903446
0.0883338
0.0876894
0.0878539
0.0884494
0.0892062
0.0899295
0.0904827
0.0907788
0.0907748
0.0904676
0.0898882
0.0890962
0.0881701
0.0871962
0.0862501
0.0853549
0.0843971
0.368761
0.167448
0.123365
0.104628
0.0952168
0.090374
0.0880498
0.0871817
0.0871532
0.0875745
0.0881826
0.0887934
0.0892771
0.0895463
0.0895487
0.0892644
0.0887028
0.0879021
0.0869264
0.0858612
0.0847977
0.0837913
0.0827705
0.425174
0.184463
0.129463
0.107071
0.0964058
0.0911275
0.0886246
0.0876378
0.0874923
0.0877932
0.0882899
0.0888128
0.0892419
0.0894917
0.0895025
0.0892366
0.0886774
0.0878324
0.0867391
0.0854725
0.0841435
0.0828622
0.0816278
0.52325
0.207051
0.135798
0.10938
0.0978008
0.0924068
0.089937
0.0889597
0.0887739
0.089001
0.0894155
0.08987
0.0902602
0.0905073
0.090549
0.0903328
0.0898144
0.0889597
0.087756
0.0862342
0.0844965
0.0827128
0.0810054
0.696579
0.232277
0.139654
0.110361
0.0989342
0.0940267
0.0918975
0.0910818
0.0909297
0.0911183
0.0914666
0.0918601
0.0922176
0.0924752
0.0925766
0.0924656
0.0920791
0.0913434
0.0901774
0.0885143
0.0863533
0.0838261
0.0811679
1.02079
0.247596
0.13611
0.108623
0.0994493
0.0958985
0.094466
0.093955
0.0938898
0.0940522
0.0943267
0.094642
0.0949473
0.0952018
0.0953671
0.095401
0.095248
0.0948282
0.0940227
0.0926589
0.0905133
0.0873691
0.083138
1.68678
0.210991
0.118872
0.103581
0.0994985
0.0981254
0.097626
0.097477
0.0974944
0.0975998
0.097753
0.0979296
0.0981121
0.0982867
0.0984408
0.098561
0.0986292
0.0986169
0.0984704
0.0980738
0.0971497
0.0950377
0.0903453
9.62992
7.41113
4.9083
4.22845
4.68501
5.03775
5.13451
5.22734
3.1136
3.48372
3.73542
3.98402
2.32877
2.6292
2.88181
3.10898
1.971
2.20565
2.43212
2.64322
1.97309
2.18452
2.39095
2.57575
2.39085
2.65556
2.90365
3.07608
2.65571
3.07173
3.60978
3.99078
2.38837
2.75809
3.32631
4.05063
2.32546
2.67924
3.24131
4.05699
2.44925
2.85
3.48182
4.34473
2.61409
3.13226
3.92374
4.89978
2.73351
3.3917
4.3535
5.5046
2.80771
3.60934
4.78844
6.36772
2.90022
3.84177
5.20882
7.00448
2.87167
3.83153
5.21174
6.97249
2.59306
3.43568
4.63893
6.18743
2.08222
2.67298
3.52162
4.6799
1.56985
1.94184
2.44643
3.14615
1.15004
1.39589
1.70471
2.1091
0.811113
0.973406
1.17273
1.41734
0.555694
0.653012
0.776341
0.929758
0.382779
0.433789
0.5005
0.586534
0.275101
0.29871
0.330458
0.372801
0.210236
0.219627
0.23299
0.251848
0.170776
0.17335
0.17786
0.185302
0.145795
0.145337
0.145829
0.147988
0.129017
0.127385
0.126219
0.126049
0.117033
0.115099
0.113386
0.112276
0.108045
0.106187
0.104416
0.10302
0.101102
0.0994553
0.0978215
0.0964253
0.0956652
0.094254
0.0928161
0.0915276
0.0913914
0.0901925
0.0889468
0.0877936
0.0880312
0.0870052
0.0859237
0.0848982
0.085394
0.0844973
0.0835435
0.0826232
0.0833318
0.0825203
0.0816552
0.0808114
0.0817332
0.0809605
0.0801429
0.0793429
0.0805236
0.0797341
0.0789158
0.0781217
0.0796794
0.0787887
0.0779019
0.0770646
0.0792759
0.0781172
0.0770464
0.0760944
0.0796239
0.0777816
0.0763114
0.0751489
0.0813445
0.0778681
0.0756853
0.0742517
2.5674
1.7169
1.16964
0.85185
0.644282
0.471894
0.338679
0.245075
0.183645
0.145005
0.12136
0.107346
0.0995684
0.0959785
0.095448
0.097601
0.103082
0.116014
0.178299
5.44829
4.76699
3.37823
1.80155
1.10115
0.721726
0.480257
0.324552
0.227024
0.167825
0.132629
0.112153
0.100808
0.0953805
0.0941428
0.096448
0.102963
0.118477
0.191362
4.61166
5.19172
6.08391
5.03366
2.28979
1.19839
0.704386
0.439983
0.287928
0.199696
0.14882
0.119867
0.1039
0.0960189
0.0936322
0.095677
0.102711
0.119978
0.201287
3.63559
4.39181
5.72424
6.84028
5.24525
2.32518
1.1118
0.616534
0.373767
0.243384
0.171123
0.130896
0.108925
0.0978647
0.0938977
0.0953479
0.102529
0.120969
0.209186
3.04906
3.66915
4.8085
6.39163
6.97653
4.50312
1.96626
0.928661
0.505136
0.30498
0.201352
0.145803
0.116036
0.100945
0.094945
0.0955035
0.102554
0.121783
0.216084
2.86567
3.28982
4.16751
5.5967
6.9563
6.2252
3.30733
1.46407
0.709098
0.3917
0.241735
0.165345
0.125488
0.105335
0.0967948
0.0961712
0.102863
0.122646
0.222773
3.17733
3.30604
3.87379
5.03311
6.49843
6.83778
4.67152
2.22447
1.00864
0.511352
0.294803
0.190434
0.137595
0.111121
0.0994638
0.0973455
0.103459
0.123539
0.229054
3.90943
3.67272
3.87487
4.72414
6.05425
6.88146
5.56994
3.08401
1.40008
0.668016
0.362688
0.221961
0.152656
0.118376
0.102925
0.098991
0.104323
0.124464
0.234953
4.58125
4.1361
4.02467
4.58745
5.7227
6.72575
6.09405
3.82716
1.84197
0.858401
0.446285
0.260636
0.170914
0.127052
0.107091
0.10104
0.105418
0.125424
0.240525
5.01178
4.48596
4.1875
4.53095
5.48956
6.52829
6.36
4.40662
2.26087
1.06853
0.544729
0.306636
0.192231
0.13698
0.111816
0.103388
0.106683
0.126399
0.245746
5.35568
4.75102
4.32239
4.49743
5.30169
6.31172
6.43858
4.81008
2.6312
1.28443
0.654822
0.359219
0.216268
0.147861
0.116874
0.105884
0.108031
0.127355
0.250542
5.74326
4.98317
4.4313
4.4629
5.11604
6.04263
6.33843
5.05009
2.95417
1.50669
0.776355
0.417998
0.24244
0.159206
0.121935
0.108324
0.109337
0.128236
0.25497
6.29243
5.24564
4.53746
4.43309
4.9289
5.69663
6.06359
5.14578
3.23802
1.73688
0.90916
0.481692
0.269532
0.170211
0.126537
0.110447
0.110451
0.128968
0.258902
7.24323
5.66549
4.70187
4.4197
4.73809
5.31699
5.70012
5.14857
3.49846
1.97621
1.0499
0.546855
0.295253
0.179662
0.130089
0.111957
0.111209
0.129442
0.262027
8.7525
6.48588
5.04151
4.47296
4.566
4.97601
5.35811
5.12084
3.73847
2.21286
1.18715
0.605845
0.315752
0.185925
0.131927
0.112562
0.111457
0.129536
0.26387
9.72037
7.64708
5.60674
4.67361
4.49355
4.72372
5.0858
5.0774
3.9515
2.42577
1.3015
0.64723
0.326141
0.18726
0.131456
0.112036
0.111089
0.129187
0.264239
9.00699
8.88511
6.48373
5.10081
4.60632
4.62149
4.89871
5.01918
4.09393
2.57151
1.36404
0.657438
0.321795
0.182401
0.128368
0.110305
0.110079
0.128388
0.263131
6.60154
9.05339
7.6839
5.79964
4.948
4.70212
4.8117
4.94469
4.14469
2.60249
1.34185
0.624255
0.300074
0.171149
0.122819
0.107498
0.108509
0.127202
0.26068
4.31064
7.15835
8.22991
6.73184
5.5256
4.96357
4.82093
4.81945
4.00094
2.44557
1.20809
0.54494
0.26294
0.154924
0.115518
0.10396
0.10656
0.125748
0.257123
2.7716
4.63574
6.71826
7.21375
6.15346
5.34228
4.86894
4.57134
3.57517
2.0573
0.966856
0.432808
0.217475
0.136526
0.107569
0.100173
0.104477
0.124179
0.252753
1.78632
2.74233
4.29208
5.65545
5.8138
5.28046
4.67179
4.00368
2.79814
1.48606
0.680128
0.316707
0.173376
0.119109
0.100113
0.0966161
0.102505
0.122651
0.247869
1.15999
1.68293
2.47377
3.44271
4.0734
4.11289
3.74572
2.94037
1.83273
0.92426
0.435014
0.222961
0.137853
0.104894
0.093947
0.093635
0.100831
0.12129
0.242751
0.722732
1.01984
1.43449
1.94413
2.39031
2.56687
2.37296
1.78449
1.04246
0.525776
0.271189
0.15967
0.112954
0.0945839
0.0893563
0.091379
0.0995571
0.120171
0.237639
0.443593
0.597436
0.808331
1.05523
1.27809
1.37659
1.26256
0.930542
0.551842
0.302197
0.1775
0.121524
0.0971125
0.087741
0.0862216
0.0898327
0.0986957
0.119318
0.232721
0.28527
0.358455
0.452863
0.55782
0.647688
0.679307
0.614242
0.460414
0.296319
0.186533
0.128177
0.100142
0.0876655
0.0834773
0.0842354
0.0888855
0.0982005
0.118713
0.228127
0.199911
0.232175
0.270583
0.309661
0.338968
0.342683
0.308571
0.243534
0.176533
0.129337
0.102198
0.0883309
0.0822483
0.0809438
0.0830676
0.0883926
0.0979931
0.118316
0.223937
0.153565
0.166581
0.180759
0.193266
0.200078
0.196074
0.17827
0.150362
0.12228
0.10142
0.0885784
0.0817821
0.0791228
0.0794885
0.0824583
0.0882151
0.0979969
0.118179
0.220621
0.127369
0.131729
0.135904
0.1385
0.138064
0.133112
0.123217
0.110158
0.0974157
0.0876189
0.0813373
0.0780915
0.0773076
0.0786745
0.0821918
0.0882425
0.0981418
0.118221
0.218196
0.111716
0.112288
0.112456
0.111564
0.109145
0.104859
0.09884
0.0919496
0.0855057
0.0805199
0.0773432
0.0759449
0.076236
0.0782319
0.0821187
0.0883739
0.0983482
0.118328
0.216321
0.101713
0.100697
0.0993415
0.0973526
0.0946262
0.0911579
0.0871454
0.0830302
0.0793745
0.0766255
0.0750138
0.0746381
0.0755824
0.0779929
0.0821376
0.0885379
0.09856
0.11844
0.214842
0.0948903
0.0932705
0.09141
0.0891916
0.0866398
0.0838351
0.0809427
0.0782115
0.0759228
0.0743163
0.0735626
0.0737953
0.0751594
0.0778539
0.0821827
0.0886876
0.0987397
0.118522
0.213651
0.0899905
0.0881985
0.0862429
0.0840938
0.0818183
0.07951
0.0772968
0.0753365
0.0737974
0.0728365
0.0725945
0.073213
0.0748586
0.0777523
0.0822142
0.0887951
0.0988651
0.118552
0.212671
0.0863407
0.0845584
0.082665
0.0806739
0.0786639
0.0767239
0.0749547
0.0734683
0.0723832
0.0718199
0.0719042
0.0727785
0.0746179
0.0776528
0.082211
0.0888469
0.0989267
0.118524
0.211858
0.0835507
0.0818457
0.0800661
0.0782461
0.0764647
0.0748022
0.0733412
0.0721693
0.0713805
0.0710781
0.0713801
0.0724287
0.0744028
0.0775378
0.0821649
0.0888401
0.0989246
0.118442
0.211193
0.0813722
0.0797594
0.0781016
0.0764407
0.0748506
0.0734025
0.0721665
0.0712157
0.0706313
0.0705077
0.0709592
0.072128
0.0741958
0.0774005
0.082076
0.088779
0.0988656
0.118315
0.210667
0.0796327
0.078103
0.0765581
0.0750388
0.07361
0.0723334
0.0712695
0.0704821
0.0700451
0.0700483
0.0706044
0.0718568
0.0739888
0.0772412
0.0819498
0.0886721
0.0987602
0.118158
0.210274
0.0782033
0.0767373
0.075292
0.0738989
0.0726103
0.0714774
0.0705521
0.0698919
0.0695662
0.0696626
0.0702938
0.0716044
0.0737802
0.0770641
0.0817944
0.08853
0.0986203
0.117981
0.210001
0.0769802
0.075555
0.074198
0.0729219
0.0717614
0.070756
0.0699496
0.0693947
0.069158
0.0693266
0.0700138
0.0713659
0.0735712
0.0768755
0.0816194
0.0883644
0.0984587
0.117797
0.209832
0.0758708
0.0744659
0.0731924
0.0720316
0.0709958
0.0701112
0.0694142
0.0689534
0.068794
0.069023
0.0697553
0.0711392
0.0733656
0.0766832
0.0814359
0.0881881
0.0982887
0.117619
0.209738
0.0747873
0.0733894
0.072204
0.0711646
0.0702573
0.0694943
0.0689052
0.0685357
0.0684502
0.0687363
0.0695104
0.0709231
0.073168
0.0764966
0.0812562
0.0880151
0.0981251
0.117461
0.209674
0.0736728
0.0722822
0.0711962
0.0702851
0.0695088
0.0688683
0.068388
0.0681113
0.0681019
0.068448
0.0692674
0.0707126
0.0729795
0.0763223
0.0810917
0.0878604
0.0979856
0.117346
0.209584
0.0726431
0.0713028
0.0703124
0.0695053
0.0688321
0.0682895
0.0678991
0.0677022
0.0677614
0.0681646
0.0690295
0.0705098
0.0728026
0.0761639
0.0809469
0.0877272
0.0978659
0.117245
0.209328
)
;

boundaryField
{
    leftWall
    {
        type            epsilonWallFunction;
        value           nonuniform List<scalar> 
50
(
0.0570895
0.0706788
0.0976768
0.120864
0.139292
0.15314
0.163733
0.17194
0.179401
0.187859
0.196092
0.205956
0.218768
0.236423
0.265297
0.325154
0.448122
0.610811
0.739937
0.765205
0.708885
0.700027
0.721009
0.753168
0.785855
0.805424
0.807808
0.792871
0.762611
0.720426
0.670492
0.617098
0.564064
0.514316
0.469726
0.431176
0.3988
0.372287
0.351198
0.335247
0.324561
0.319956
0.323262
0.337747
0.368761
0.425174
0.52325
0.696579
1.02079
1.68678
)
;
    }
    rightWall
    {
        type            epsilonWallFunction;
        value           nonuniform List<scalar> 
50
(
0.0404325
0.0686317
0.0920474
0.111958
0.12864
0.142801
0.155017
0.165723
0.178299
0.191362
0.201287
0.209186
0.216084
0.222773
0.229054
0.234953
0.240525
0.245746
0.250542
0.25497
0.258902
0.262027
0.26387
0.264239
0.263131
0.26068
0.257123
0.252753
0.247869
0.242751
0.237639
0.232721
0.228127
0.223937
0.220621
0.218196
0.216321
0.214842
0.213651
0.212671
0.211858
0.211193
0.210667
0.210274
0.210001
0.209832
0.209738
0.209674
0.209584
0.209328
)
;
    }
    lowerWall
    {
        type            epsilonWallFunction;
        value           nonuniform List<scalar> 
62
(
0.0570895
0.180446
0.342957
0.49846
0.649584
0.806959
0.977124
1.16349
1.36596
1.58044
1.79864
2.00812
2.19302
2.33564
2.41822
2.42291
2.34806
2.22427
2.03821
1.79595
1.51845
1.06187
0.712273
0.712273
1.02099
1.88701
2.70129
3.51089
4.41576
5.49069
6.90852
9.62992
7.41113
4.9083
4.22845
0.151227
0.158911
0.281126
0.423654
0.599576
0.825385
1.1391
1.80837
0.151227
0.289665
0.409985
0.482386
0.516657
0.527762
0.508509
0.474208
0.435135
0.397221
0.363796
0.335286
0.310019
0.285547
0.258919
0.226515
0.184271
0.0354511
0.0404325
)
;
    }
    atmosphere
    {
        type            inletOutlet;
        inletValue      uniform 0.1;
        value           nonuniform List<scalar> 
46
(
0.1
0.1
0.1
0.1
0.1
0.1
0.1
0.1
0.1
0.1
0.1
0.1
0.1
0.1
0.1
0.1
0.1
0.1
0.1
0.1
0.1
0.1
0.1
0.0813445
0.0778681
0.0756853
0.0742517
0.0726431
0.0713028
0.0703124
0.0695053
0.0688321
0.0682895
0.0678991
0.0677022
0.0677614
0.0681646
0.0690295
0.0705098
0.0728026
0.0761639
0.0809469
0.0877272
0.0978659
0.117245
0.209328
)
;
    }
    defaultFaces
    {
        type            empty;
    }
}


// ************************************************************************* //
