/*--------------------------------*- C++ -*----------------------------------*\
  =========                 |
  \\      /  F ield         | OpenFOAM: The Open Source CFD Toolbox
   \\    /   O peration     | Website:  https://openfoam.org
    \\  /    A nd           | Version:  9
     \\/     M anipulation  |
\*---------------------------------------------------------------------------*/
FoamFile
{
    format      ascii;
    class       volScalarField;
    location    "0.25";
    object      k;
}
// * * * * * * * * * * * * * * * * * * * * * * * * * * * * * * * * * * * * * //

dimensions      [0 2 -2 0 0 0 0];

internalField   nonuniform List<scalar> 
2268
(
0.0359956
0.0648155
0.0848813
0.085961
0.0747935
0.0777464
0.080521
0.0827173
0.0842382
0.0855233
0.0862356
0.0867432
0.0873742
0.0884701
0.0903019
0.0929489
0.0960832
0.0986669
0.0988179
0.0875749
0.0678406
0.0488102
0.0270522
0.0527728
0.104372
0.159768
0.156992
0.13715
0.133523
0.133966
0.135748
0.138077
0.140347
0.142824
0.145658
0.149188
0.154008
0.160771
0.169776
0.180023
0.187648
0.183868
0.157077
0.117438
0.0747619
0.0407923
0.0635323
0.13231
0.210714
0.222094
0.185041
0.172872
0.16779
0.165738
0.165406
0.166286
0.168021
0.170313
0.173266
0.177334
0.18314
0.190965
0.19969
0.205249
0.20005
0.173503
0.129659
0.0820306
0.0434478
0.0719222
0.153466
0.248908
0.270854
0.226506
0.206651
0.194813
0.187533
0.183439
0.18183
0.181691
0.182269
0.183306
0.184984
0.187743
0.191821
0.196312
0.197955
0.191173
0.170236
0.131784
0.0809034
0.0414807
0.0781969
0.170793
0.280242
0.308453
0.262627
0.237301
0.219169
0.206441
0.198028
0.193135
0.190345
0.188494
0.186955
0.185601
0.184641
0.184253
0.183887
0.181484
0.173881
0.158631
0.131561
0.0841495
0.0380292
0.0828222
0.18723
0.307182
0.334272
0.293941
0.265996
0.242748
0.224779
0.21176
0.203018
0.19708
0.192435
0.188173
0.183922
0.179708
0.175674
0.171593
0.166383
0.158595
0.148113
0.132712
0.0942998
0.036253
0.0866177
0.204758
0.326426
0.349825
0.321068
0.293381
0.266527
0.24377
0.226003
0.213095
0.203699
0.1961
0.189223
0.182559
0.17604
0.169825
0.163924
0.157786
0.150505
0.142479
0.134994
0.115976
0.0399316
0.0897592
0.219463
0.336627
0.361554
0.34539
0.320162
0.291216
0.264239
0.241683
0.224366
0.211283
0.200609
0.191231
0.182591
0.174597
0.167444
0.161298
0.155843
0.150055
0.143149
0.136059
0.124798
0.0707571
0.0108219
0.0136051
0.0170533
0.019161
0.0205646
0.0215523
0.02223
0.0227276
0.0228975
0.0228202
0.0225209
0.021997
0.0212225
0.0201489
0.0186996
0.0167553
0.0141103
0.0108128
0.00889378
0.0165261
0.0328425
0.0374252
0.039316
0.0405135
0.0416255
0.042579
0.0431757
0.0434912
0.0435191
0.0432268
0.042562
0.0414447
0.0397573
0.0373274
0.0338934
0.0290268
0.0218824
0.0111461
0.0245261
0.047276
0.0520197
0.0531172
0.0532983
0.0535925
0.0539836
0.0542617
0.0543721
0.054231
0.0537582
0.0528671
0.0514492
0.049357
0.0463803
0.0422036
0.0363129
0.0277076
0.0135636
0.0327765
0.0610511
0.0650641
0.0648606
0.0635962
0.0627606
0.0623858
0.0621757
0.061955
0.0615637
0.0608717
0.059759
0.0580927
0.055704
0.0523595
0.047712
0.0411883
0.0316178
0.0153376
0.0419916
0.0760776
0.0780573
0.0759188
0.0729162
0.0707693
0.0694864
0.0686596
0.0680097
0.0673009
0.0663504
0.0650031
0.0631018
0.0604586
0.056822
0.0518196
0.0448271
0.0345204
0.0166618
0.052936
0.0936711
0.0917219
0.0867829
0.0817622
0.0781595
0.0758545
0.0743127
0.0731568
0.0720753
0.0708319
0.0692345
0.0671008
0.0642244
0.0603365
0.0550419
0.0476678
0.036759
0.0176893
0.0665409
0.114274
0.106229
0.0975082
0.0902444
0.0851003
0.0817026
0.0793844
0.0776712
0.0761785
0.0746172
0.0727584
0.070394
0.0672986
0.0631861
0.0576383
0.0499369
0.0385206
0.0185159
0.0875006
0.137237
0.120901
0.107833
0.0982676
0.0915977
0.0870951
0.0839816
0.081688
0.0797642
0.0778721
0.0757472
0.0731558
0.0698533
0.0655359
0.0597623
0.0517733
0.0399285
0.0192067
0.0933839
0.232263
0.345153
0.380736
0.381811
0.362654
0.332325
0.29955
0.269363
0.244336
0.224887
0.209182
0.196062
0.184876
0.175442
0.167909
0.16246
0.158858
0.156
0.152163
0.146525
0.139868
0.132572
0.0935658
0.229354
0.34179
0.397495
0.417882
0.413044
0.388555
0.353963
0.316426
0.281179
0.251651
0.227639
0.208352
0.193145
0.181642
0.173724
0.169395
0.168519
0.170566
0.174508
0.179082
0.183748
0.189467
0.091206
0.218737
0.330612
0.405517
0.44514
0.459213
0.446012
0.414312
0.372289
0.327753
0.286698
0.252611
0.225402
0.204641
0.189708
0.179988
0.174954
0.174094
0.176784
0.182178
0.18915
0.196376
0.202565
0.0875281
0.206202
0.315589
0.402823
0.460839
0.496948
0.50005
0.476404
0.43386
0.381963
0.329647
0.284166
0.247224
0.219123
0.199182
0.186255
0.179135
0.176733
0.178058
0.182117
0.187815
0.193952
0.199263
0.0832332
0.19341
0.299406
0.391333
0.464819
0.5236
0.546879
0.536234
0.497806
0.441914
0.379967
0.322383
0.274247
0.237076
0.210534
0.193108
0.18289
0.178104
0.177277
0.179171
0.182656
0.186627
0.189951
0.0787267
0.180539
0.28217
0.374514
0.459754
0.538539
0.583931
0.590321
0.560594
0.504744
0.436028
0.366844
0.306828
0.259184
0.224502
0.20129
0.187055
0.179288
0.175934
0.175427
0.176544
0.178269
0.179671
0.074314
0.167785
0.262859
0.355423
0.448924
0.542361
0.60965
0.635938
0.619068
0.567361
0.495044
0.416618
0.345037
0.286064
0.241879
0.211575
0.192366
0.181044
0.174894
0.171925
0.170741
0.170356
0.170002
0.0702655
0.155725
0.243507
0.335889
0.4336
0.535868
0.622967
0.6711
0.670883
0.627429
0.555365
0.470836
0.388611
0.318094
0.263385
0.224738
0.199529
0.184012
0.174771
0.16929
0.165905
0.163577
0.161634
0.0667626
0.14496
0.226431
0.316706
0.414793
0.521097
0.623729
0.694669
0.71448
0.683084
0.615035
0.527827
0.436825
0.355313
0.289543
0.241482
0.209221
0.188777
0.17607
0.167972
0.162442
0.158296
0.15488
0.0638498
0.135619
0.211636
0.298238
0.394395
0.500969
0.612979
0.705971
0.748826
0.733062
0.672407
0.585651
0.488766
0.397452
0.320605
0.262352
0.222039
0.195862
0.179217
0.168311
0.16062
0.154714
0.149881
0.0614826
0.127574
0.198529
0.280691
0.373692
0.478106
0.59307
0.703814
0.772979
0.776738
0.726647
0.643662
0.543766
0.444023
0.356522
0.28766
0.23844
0.205696
0.184547
0.170548
0.160598
0.15292
0.146665
0.0595688
0.120592
0.186693
0.26424
0.353351
0.454313
0.567684
0.688262
0.785593
0.813737
0.777209
0.701032
0.600951
0.494261
0.396949
0.317459
0.258697
0.218585
0.192296
0.174827
0.16244
0.152912
0.145175
0.0579914
0.114404
0.175788
0.248654
0.333579
0.430695
0.540885
0.664023
0.78485
0.842711
0.823386
0.756636
0.658362
0.547144
0.441323
0.35157
0.282897
0.234698
0.202598
0.181207
0.166132
0.154619
0.145299
0.0566414
0.108793
0.165568
0.233661
0.314284
0.407582
0.514578
0.636751
0.770586
0.860445
0.863728
0.809253
0.715227
0.601832
0.488987
0.38964
0.31095
0.254083
0.215501
0.18968
0.171608
0.157929
0.146897
0.0554402
0.103643
0.155954
0.219241
0.295435
0.384927
0.488783
0.608905
0.746609
0.864408
0.896391
0.857192
0.770378
0.657684
0.539226
0.431181
0.342628
0.27667
0.23098
0.20019
0.178769
0.162712
0.149817
0.0543405
0.0989227
0.147011
0.205542
0.277205
0.362741
0.4633
0.580742
0.717501
0.856085
0.920244
0.899447
0.822805
0.713117
0.591176
0.475626
0.377593
0.302297
0.248942
0.212644
0.187494
0.168826
0.153911
0.0533142
0.0946302
0.138837
0.192777
0.259857
0.341255
0.438228
0.552529
0.686371
0.836153
0.934629
0.936394
0.872534
0.767773
0.644278
0.522438
0.415444
0.330716
0.269237
0.226914
0.197646
0.176126
0.159034
0.0523424
0.0907576
0.131484
0.181099
0.243629
0.320755
0.413905
0.524808
0.655517
0.807493
0.937332
0.968378
0.91933
0.821376
0.698068
0.571082
0.455723
0.361606
0.291652
0.242834
0.20907
0.18446
0.165044
0.0514117
0.0872789
0.124939
0.170567
0.22868
0.301484
0.39067
0.49802
0.625584
0.775901
0.929493
0.99477
0.962594
0.873578
0.752251
0.621023
0.497924
0.394578
0.315909
0.260195
0.221586
0.193665
0.171795
0.0505127
0.0841552
0.119148
0.161162
0.215076
0.283608
0.368779
0.472497
0.59683
0.744225
0.911157
1.0135
1.00224
0.924187
0.806015
0.67158
0.541476
0.429177
0.341669
0.278742
0.234989
0.203565
0.179136
0.0496395
0.0813424
0.114034
0.152818
0.202819
0.267215
0.348403
0.448486
0.56962
0.714272
0.884452
1.02088
1.03834
0.972525
0.858257
0.722001
0.585772
0.464896
0.368531
0.29817
0.249042
0.213969
0.186908
0.0487904
0.0787988
0.109514
0.145449
0.191863
0.252334
0.329643
0.426142
0.544129
0.686233
0.855887
1.01964
1.06995
1.01686
0.908104
0.771643
0.630229
0.501193
0.396037
0.318124
0.263477
0.224668
0.194944
0.0479673
0.0764891
0.105513
0.13896
0.182142
0.238951
0.312547
0.40555
0.520413
0.659885
0.827733
1.01088
1.09417
1.0558
0.95521
0.820181
0.674366
0.537507
0.423672
0.338201
0.277998
0.23544
0.203068
0.047175
0.0743865
0.101969
0.133264
0.173573
0.227028
0.297121
0.386754
0.498523
0.635175
0.800044
0.992409
1.11051
1.09092
1.00062
0.86754
0.717648
0.573189
0.45085
0.35795
0.292285
0.246057
0.211102
0.04642
0.072472
0.0988298
0.128283
0.166076
0.216503
0.283345
0.369771
0.478532
0.612426
0.774691
0.968384
1.11739
1.12398
1.04442
0.913045
0.759182
0.607417
0.476901
0.376881
0.306008
0.256287
0.218866
0.0457095
0.0707327
0.0960563
0.123949
0.159567
0.207304
0.271168
0.354578
0.460446
0.591678
0.751697
0.944908
1.11905
1.15376
1.08357
0.954696
0.797778
0.639304
0.50113
0.394493
0.318839
0.265909
0.226184
0.0450501
0.0691597
0.0936154
0.1202
0.153964
0.199342
0.260514
0.341105
0.444176
0.572729
0.730364
0.922081
1.11576
1.17712
1.11531
0.991238
0.832833
0.668182
0.522884
0.410309
0.330481
0.274724
0.23289
0.0444462
0.0677454
0.0914787
0.116981
0.149182
0.192516
0.251272
0.329233
0.429575
0.555345
0.710152
0.899028
1.10591
1.19391
1.14176
1.02321
0.863796
0.693295
0.541464
0.423873
0.340687
0.282572
0.238831
0.0438991
0.066481
0.0896189
0.114235
0.145133
0.186707
0.243296
0.318792
0.416447
0.539308
0.690873
0.87565
1.08964
1.20632
1.16392
1.05082
0.889865
0.713499
0.556049
0.434785
0.349291
0.289337
0.243866
0.0434062
0.0653553
0.0880094
0.11191
0.141728
0.181783
0.236412
0.309558
0.404522
0.524343
0.67246
0.853249
1.069
1.21113
1.18064
1.07274
0.909094
0.727263
0.565876
0.442825
0.356254
0.294954
0.247862
0.0429608
0.0643553
0.0866272
0.109958
0.138882
0.177615
0.230432
0.301278
0.393471
0.510037
0.654407
0.831056
1.04515
1.20408
1.19027
1.08706
0.919622
0.733489
0.570672
0.448117
0.3617
0.299401
0.250685
0.0425556
0.0634699
0.0854589
0.108348
0.136536
0.174098
0.2252
0.293729
0.382981
0.495961
0.636084
0.807846
1.01721
1.18541
1.19143
1.09282
0.920626
0.73199
0.570857
0.451172
0.365878
0.302664
0.252191
0.0421914
0.0626946
0.0845097
0.107079
0.134669
0.171187
0.220638
0.286789
0.372873
0.481837
0.617047
0.783029
0.98624
1.16132
1.18229
1.0863
0.91069
0.722943
0.56738
0.452788
0.369085
0.304697
0.252227
0.0418976
0.0620296
0.083812
0.106189
0.13332
0.168921
0.216785
0.280504
0.363188
0.467674
0.597201
0.756268
0.951599
1.12799
1.15846
1.06401
0.888361
0.707905
0.56212
0.453675
0.371186
0.305033
0.250337
0.0417076
0.0615462
0.0834235
0.105762
0.132594
0.167431
0.21382
0.275116
0.354235
0.45382
0.576873
0.727683
0.912605
1.08457
1.11942
1.02445
0.855809
0.689271
0.556274
0.45409
0.371877
0.303207
0.246079
0.0416377
0.0613377
0.0834765
0.105947
0.132669
0.166953
0.212076
0.271098
0.346653
0.441052
0.556828
0.69775
0.870023
1.03546
1.06915
0.972199
0.817924
0.671003
0.551844
0.454346
0.370674
0.298618
0.239039
0.0416995
0.0614459
0.0840638
0.10686
0.133691
0.167693
0.211867
0.268955
0.341241
0.430505
0.538298
0.666911
0.821909
0.975526
1.00851
0.914795
0.782356
0.658058
0.550466
0.454065
0.366556
0.290388
0.228749
0.0418714
0.0618318
0.0852128
0.108657
0.135973
0.170186
0.214002
0.269825
0.339594
0.424468
0.524434
0.638002
0.765821
0.891523
0.928382
0.859099
0.758251
0.654771
0.552204
0.451507
0.357654
0.277256
0.214681
0.0420294
0.0622477
0.0867806
0.112151
0.141078
0.176724
0.221495
0.277472
0.3463
0.428651
0.522896
0.619667
0.71212
0.803603
0.848501
0.823228
0.756572
0.662762
0.554102
0.44283
0.340916
0.257504
0.196315
0.0419616
0.0625785
0.0889444
0.12081
0.154603
0.193966
0.241383
0.299114
0.368197
0.44729
0.532303
0.607647
0.669103
0.741543
0.808114
0.829871
0.781018
0.676488
0.548331
0.421061
0.311618
0.228976
0.173381
0.0416718
0.0667333
0.0964652
0.142468
0.185117
0.22718
0.274034
0.330024
0.395935
0.466601
0.532971
0.583438
0.631522
0.717044
0.826216
0.872216
0.813242
0.678568
0.517818
0.372363
0.261965
0.189373
0.146448
0.040342
0.0756985
0.093684
0.131589
0.173919
0.214589
0.256763
0.305646
0.363056
0.424328
0.482176
0.535275
0.606288
0.724064
0.844445
0.88059
0.807127
0.613678
0.400108
0.257817
0.177887
0.137333
0.1174
0.12843
0.131974
0.139085
0.14768
0.19667
0.200768
0.204037
0.205265
0.206335
0.207655
0.207842
0.206372
0.202027
0.202592
0.201677
0.199061
0.191232
0.191167
0.190037
0.187729
0.179808
0.179318
0.178103
0.176084
0.169152
0.168291
0.166986
0.165164
0.159892
0.158671
0.157228
0.155491
0.152284
0.150689
0.149052
0.147296
0.146428
0.144426
0.14253
0.14066
0.142312
0.139856
0.137632
0.13556
0.139852
0.136882
0.134255
0.131891
0.138914
0.135361
0.132253
0.129509
0.139344
0.135135
0.131464
0.128255
0.140988
0.136047
0.131736
0.127979
0.1437
0.137955
0.132927
0.128543
0.147344
0.140729
0.134912
0.12983
0.151792
0.144247
0.137579
0.131732
0.156918
0.148395
0.140821
0.134153
0.162591
0.153055
0.144533
0.136997
0.168679
0.158109
0.14861
0.140172
0.17504
0.163431
0.152941
0.143579
0.181528
0.168892
0.15741
0.147118
0.18799
0.174353
0.161895
0.150682
0.19427
0.179673
0.16627
0.15416
0.200209
0.184706
0.170402
0.157436
0.20565
0.189301
0.174152
0.160388
0.210438
0.193309
0.177381
0.162893
0.214418
0.196573
0.179943
0.164824
0.217432
0.198934
0.181691
0.166054
0.219314
0.200226
0.182473
0.166457
0.219894
0.200279
0.18214
0.165914
0.218998
0.19892
0.180545
0.164314
0.216346
0.195934
0.177544
0.161558
0.211527
0.191027
0.172935
0.157508
0.204313
0.184099
0.166717
0.152233
0.194493
0.175085
0.158922
0.145817
0.18191
0.164005
0.14966
0.138389
0.166538
0.151025
0.13916
0.130166
0.148705
0.136624
0.127889
0.121517
0.129474
0.1218
0.116603
0.112941
0.110537
0.107752
0.106017
0.104819
0.157167
0.166156
0.141283
0.122608
0.109791
0.100896
0.0946745
0.0903072
0.0870938
0.0844859
0.0820714
0.0795312
0.076592
0.0729777
0.0683554
0.0622475
0.0538407
0.0414201
0.0198896
0.201326
0.178734
0.154988
0.135855
0.121408
0.110642
0.102805
0.0971176
0.0928583
0.0894344
0.0863822
0.0833352
0.0799788
0.0760009
0.071033
0.0645579
0.0557147
0.0427431
0.0206316
0.201319
0.182071
0.161257
0.143358
0.128751
0.117342
0.108694
0.10219
0.0971968
0.0931516
0.0895881
0.0861221
0.0824154
0.0781307
0.0728726
0.066097
0.0569188
0.0435748
0.0212089
0.193296
0.178355
0.161582
0.145881
0.132308
0.121206
0.112442
0.105614
0.100224
0.0957843
0.0918629
0.088084
0.0841046
0.0795751
0.0740856
0.0670787
0.0576638
0.0440959
0.0216924
0.183003
0.1715
0.158146
0.144911
0.132919
0.122697
0.114319
0.107566
0.102078
0.0974597
0.0933344
0.0893536
0.0851845
0.0804785
0.0748227
0.0676584
0.0581001
0.0444275
0.022126
0.172206
0.163271
0.152663
0.141738
0.131465
0.122394
0.114701
0.108295
0.102936
0.098317
0.0941229
0.0900432
0.0857662
0.0809542
0.0752006
0.0679527
0.0583351
0.0446491
0.0225351
0.161895
0.154803
0.146327
0.137387
0.128741
0.120873
0.113993
0.108088
0.103002
0.0985094
0.0943517
0.09026
0.0859491
0.0810983
0.0753129
0.0680496
0.0584431
0.0448105
0.0229335
0.152604
0.146798
0.139932
0.132608
0.125379
0.118635
0.112574
0.107221
0.102483
0.0981929
0.0941448
0.0901079
0.0858248
0.0809941
0.0752349
0.0680143
0.0584746
0.044942
0.0233282
0.144597
0.139654
0.133965
0.127899
0.121836
0.116064
0.11075
0.105936
0.101564
0.0975128
0.0936183
0.089683
0.0854751
0.0807121
0.0750264
0.0678945
0.0584633
0.0450618
0.0237222
0.137984
0.133563
0.128691
0.12356
0.118406
0.113428
0.108752
0.10442
0.100398
0.096593
0.0928734
0.0890691
0.0849698
0.0803098
0.0747335
0.0677244
0.0584314
0.0451806
0.0241161
0.132754
0.128572
0.124212
0.119732
0.115252
0.11089
0.106732
0.10281
0.0991003
0.0955311
0.0919921
0.0883342
0.084365
0.0798324
0.0743906
0.0675281
0.0583933
0.0453045
0.0245093
0.128814
0.124627
0.120522
0.116453
0.112442
0.108535
0.104781
0.101194
0.0977534
0.0943996
0.0910367
0.0875312
0.0837041
0.0793142
0.074023
0.0673226
0.0583585
0.045437
0.0249002
0.126026
0.121618
0.117554
0.113696
0.109982
0.106395
0.102943
0.0996236
0.0964102
0.0932487
0.0900527
0.0866992
0.0830194
0.0787804
0.0736492
0.0671196
0.0583329
0.0455797
0.0252868
0.124236
0.119418
0.115211
0.111402
0.107847
0.10447
0.101238
0.0981273
0.0951032
0.0921118
0.0890714
0.0858661
0.0823344
0.0782494
0.0732822
0.0669271
0.0583201
0.0457332
0.0256669
0.123297
0.1179
0.113397
0.109502
0.105996
0.102742
0.0996656
0.0967172
0.0938513
0.0910102
0.0881143
0.0850517
0.0816659
0.0777343
0.0729312
0.0667504
0.0583222
0.0458971
0.0260381
0.123079
0.11695
0.11202
0.107932
0.104388
0.101191
0.0982188
0.0953968
0.0926642
0.0899574
0.0871957
0.0842696
0.0810257
0.0772448
0.0726029
0.0665931
0.0583398
0.0460705
0.0263981
0.123469
0.11647
0.111002
0.106632
0.102985
0.099792
0.0968876
0.094165
0.0915469
0.0889614
0.0863253
0.0835295
0.0804225
0.0767875
0.0723018
0.0664578
0.0583733
0.0462522
0.0267448
0.124368
0.116376
0.110275
0.105554
0.10175
0.0985257
0.0956617
0.0930191
0.0905016
0.0880277
0.0855099
0.0828383
0.0798627
0.0763678
0.0720318
0.066346
0.0584225
0.0464411
0.0270764
0.125687
0.116594
0.109782
0.104655
0.100658
0.0973744
0.0945322
0.0919563
0.0895297
0.08716
0.0847544
0.0822016
0.0793515
0.0759899
0.0717956
0.0662592
0.0584873
0.046636
0.0273914
0.127341
0.117057
0.109473
0.103899
0.0996825
0.0963243
0.0934923
0.0909746
0.0886326
0.0863617
0.0840635
0.0816242
0.0788935
0.0756577
0.0715965
0.0661993
0.0585682
0.0468365
0.0276889
0.129249
0.117701
0.109301
0.103257
0.0988067
0.095365
0.0925374
0.0900735
0.0878121
0.0856365
0.0834416
0.0811109
0.0784934
0.0753758
0.071438
0.0661691
0.0586668
0.0470432
0.0279689
0.131331
0.118467
0.109226
0.102702
0.0980155
0.0944893
0.0916652
0.0892538
0.0870714
0.0849886
0.0828939
0.0806674
0.078157
0.0751496
0.0713255
0.0661732
0.0587868
0.0472584
0.0282325
0.133502
0.119296
0.109211
0.102212
0.0972983
0.0936935
0.0908761
0.0885183
0.0864148
0.0844237
0.0824267
0.0803004
0.0778915
0.0749866
0.0712665
0.066219
0.0589349
0.0474876
0.0284831
0.135677
0.12013
0.109221
0.101772
0.0966482
0.0929768
0.0901728
0.0878719
0.0858484
0.0839487
0.0820478
0.0800186
0.0777063
0.0748972
0.0712719
0.066318
0.0591227
0.0477406
0.0287269
0.137769
0.120913
0.109225
0.101366
0.096062
0.0923415
0.0895602
0.0873211
0.0853799
0.0835724
0.081767
0.0798331
0.0776137
0.074895
0.0713573
0.0664872
0.0593677
0.0480338
0.0289752
0.139689
0.121593
0.109198
0.100987
0.0955401
0.0917924
0.0890458
0.0868745
0.0850188
0.0833054
0.0815963
0.0797572
0.0776293
0.074998
0.0715434
0.0667503
0.059696
0.0483925
0.0292465
0.141344
0.122118
0.109118
0.100629
0.0950866
0.0913375
0.0886388
0.0865424
0.0847766
0.08316
0.0815495
0.079807
0.0777719
0.0752287
0.0718568
0.0671388
0.0601435
0.0488533
0.0295698
0.142648
0.122445
0.108971
0.100294
0.0947086
0.0909867
0.0883505
0.0863368
0.0846658
0.0831501
0.0816422
0.0800006
0.0780631
0.0756134
0.0723301
0.0676923
0.0607569
0.0494662
0.0299887
0.143514
0.122536
0.108747
0.0999854
0.0944158
0.0907513
0.0881931
0.0862708
0.0847002
0.0832906
0.081891
0.0803574
0.0785264
0.0761813
0.0730001
0.0684577
0.061594
0.0502958
0.0305649
0.143863
0.122363
0.108444
0.0997118
0.0942193
0.0906437
0.0881795
0.0863574
0.0848937
0.0835962
0.082312
0.0808961
0.0791846
0.0769616
0.0739053
0.0694857
0.0627206
0.051421
0.0313816
0.143626
0.12191
0.108068
0.0994831
0.0941301
0.0906748
0.0883213
0.0866092
0.0852591
0.0840801
0.0829195
0.0816327
0.0800573
0.07798
0.0750806
0.0708256
0.0642057
0.0529318
0.0325423
0.142751
0.121172
0.107626
0.0993089
0.0941567
0.0908536
0.0886282
0.0870364
0.0858068
0.0847525
0.0837233
0.0825777
0.0811573
0.0792536
0.0765518
0.0725173
0.0661122
0.0549236
0.0341647
0.141204
0.120156
0.10713
0.0991959
0.0943034
0.0911842
0.0891054
0.087645
0.0865428
0.0856183
0.0847272
0.0837335
0.0824863
0.0807859
0.0783273
0.0745814
0.0684851
0.0574853
0.0363668
0.138981
0.11888
0.106588
0.0991443
0.0945676
0.091665
0.0897528
0.0884354
0.0874667
0.0866755
0.0859259
0.0850916
0.0840325
0.0825625
0.0803928
0.0770092
0.071336
0.0606817
0.0392475
0.136052
0.117368
0.106003
0.099146
0.094939
0.0922868
0.0905628
0.0894005
0.0885701
0.0879128
0.0873043
0.0866313
0.0857685
0.0845488
0.0827068
0.0797563
0.0746309
0.0645308
0.0428682
0.132441
0.115573
0.105361
0.099184
0.0953996
0.0930338
0.0915204
0.0905245
0.0898354
0.0893091
0.0888361
0.0883192
0.0876519
0.0866906
0.0852018
0.0827419
0.0782836
0.0689886
0.0472506
0.128248
0.113528
0.104621
0.0992269
0.0959268
0.0938842
0.0926036
0.0917838
0.0912357
0.0908335
0.0904851
0.0901116
0.0896282
0.0889191
0.0877897
0.0858546
0.0821665
0.0739429
0.0524023
0.123575
0.111264
0.103783
0.0992482
0.0964936
0.0948138
0.0937854
0.0931473
0.0927362
0.0924474
0.0922079
0.0919583
0.0916369
0.0911581
0.090373
0.0889733
0.0861306
0.0792265
0.0583349
0.118543
0.108815
0.102852
0.0992472
0.0970885
0.0958031
0.0950389
0.0945812
0.094298
0.0941078
0.0939576
0.0938072
0.0936172
0.0933324
0.0928536
0.0919626
0.0900046
0.0847669
0.0650856
0.113339
0.106265
0.101886
0.0992667
0.0977358
0.0968533
0.0963474
0.096056
0.0958828
0.0957714
0.0956877
0.0956086
0.0955135
0.0953746
0.09514
0.0946893
0.093598
0.0903865
0.0728373
0.108154
0.103739
0.100992
0.0993841
0.0984757
0.0979723
0.0976955
0.0975422
0.0974541
0.097399
0.097359
0.097324
0.0972869
0.0972393
0.0971671
0.0970379
0.0967081
0.0956598
0.0820291
0.103107
0.101342
0.10025
0.0996372
0.0993097
0.099139
0.099051
0.0990052
0.09898
0.0989644
0.0989532
0.0989442
0.0989369
0.0989324
0.0989349
0.098964
0.0991119
0.0994831
0.0936872
)
;

boundaryField
{
    leftWall
    {
        type            kqRWallFunction;
        value           nonuniform List<scalar> 
50
(
0.0359956
0.0527728
0.0635323
0.0719222
0.0781969
0.0828222
0.0866177
0.0897592
0.0933839
0.0935658
0.091206
0.0875281
0.0832332
0.0787267
0.074314
0.0702655
0.0667626
0.0638498
0.0614826
0.0595688
0.0579914
0.0566414
0.0554402
0.0543405
0.0533142
0.0523424
0.0514117
0.0505127
0.0496395
0.0487904
0.0479673
0.047175
0.04642
0.0457095
0.0450501
0.0444462
0.0438991
0.0434062
0.0429608
0.0425556
0.0421914
0.0418976
0.0417076
0.0416377
0.0416995
0.0418714
0.0420294
0.0419616
0.0416718
0.040342
)
;
    }
    rightWall
    {
        type            kqRWallFunction;
        value           nonuniform List<scalar> 
50
(
0.00889378
0.0111461
0.0135636
0.0153376
0.0166618
0.0176893
0.0185159
0.0192067
0.0198896
0.0206316
0.0212089
0.0216924
0.022126
0.0225351
0.0229335
0.0233282
0.0237222
0.0241161
0.0245093
0.0249002
0.0252868
0.0256669
0.0260381
0.0263981
0.0267448
0.0270764
0.0273914
0.0276889
0.0279689
0.0282325
0.0284831
0.0287269
0.0289752
0.0292465
0.0295698
0.0299887
0.0305649
0.0313816
0.0325423
0.0341647
0.0363668
0.0392475
0.0428682
0.0472506
0.0524023
0.0583349
0.0650856
0.0728373
0.0820291
0.0936872
)
;
    }
    lowerWall
    {
        type            kqRWallFunction;
        value           nonuniform List<scalar> 
62
(
0.0359956
0.0648155
0.0848813
0.085961
0.0747935
0.0777464
0.080521
0.0827173
0.0842382
0.0855233
0.0862356
0.0867432
0.0873742
0.0884701
0.0903019
0.0929489
0.0960832
0.0986669
0.0988179
0.0875749
0.0678406
0.0488102
0.0270522
0.0270522
0.0407923
0.0434478
0.0414807
0.0380292
0.036253
0.0399316
0.0707571
0.12843
0.131974
0.139085
0.14768
0.0108219
0.0165261
0.0245261
0.0327765
0.0419916
0.052936
0.0665409
0.0875006
0.0108219
0.0136051
0.0170533
0.019161
0.0205646
0.0215523
0.02223
0.0227276
0.0228975
0.0228202
0.0225209
0.021997
0.0212225
0.0201489
0.0186996
0.0167553
0.0141103
0.0108128
0.00889378
)
;
    }
    atmosphere
    {
        type            inletOutlet;
        inletValue      uniform 0.1;
        value           nonuniform List<scalar> 
46
(
0.040342
0.0756985
0.093684
0.131589
0.173919
0.214589
0.256763
0.305646
0.363056
0.424328
0.482176
0.535275
0.606288
0.724064
0.844445
0.88059
0.807127
0.1
0.1
0.1
0.1
0.1
0.1
0.1
0.1
0.1
0.1
0.1
0.1
0.1
0.1
0.1
0.1
0.1
0.1
0.1
0.1
0.1
0.1
0.1
0.1
0.1
0.1
0.1
0.1
0.1
)
;
    }
    defaultFaces
    {
        type            empty;
    }
}


// ************************************************************************* //
