/*--------------------------------*- C++ -*----------------------------------*\
  =========                 |
  \\      /  F ield         | OpenFOAM: The Open Source CFD Toolbox
   \\    /   O peration     | Website:  https://openfoam.org
    \\  /    A nd           | Version:  9
     \\/     M anipulation  |
\*---------------------------------------------------------------------------*/
FoamFile
{
    format      ascii;
    class       volScalarField;
    location    "0.25";
    object      k;
}
// * * * * * * * * * * * * * * * * * * * * * * * * * * * * * * * * * * * * * //

dimensions      [0 2 -2 0 0 0 0];

internalField   nonuniform List<scalar> 
2268
(
0.00690469
0.012151
0.0186638
0.0239812
0.0286245
0.0330881
0.0375984
0.0422467
0.0470211
0.0518251
0.0564904
0.0607913
0.064462
0.0672207
0.0687888
0.0688654
0.0674373
0.0650367
0.0613488
0.0563905
0.0504425
0.0397471
0.0304672
0.0106881
0.0260863
0.0386177
0.0488635
0.0579178
0.0665091
0.0750735
0.0837877
0.0926169
0.101363
0.109703
0.117232
0.123508
0.128131
0.130843
0.131622
0.130389
0.127876
0.125285
0.124266
0.125656
0.114461
0.0636072
0.0132438
0.0327547
0.0476645
0.0601806
0.0714031
0.0821146
0.0927863
0.103599
0.114491
0.125218
0.135397
0.144554
0.152196
0.157914
0.161534
0.163268
0.163623
0.163533
0.163888
0.165498
0.168469
0.159548
0.0957565
0.0152777
0.0373107
0.0536019
0.0674349
0.0800374
0.0921855
0.104321
0.116594
0.128912
0.140999
0.152441
0.162738
0.171384
0.177994
0.18249
0.185298
0.187354
0.190022
0.19422
0.199705
0.20409
0.197124
0.121876
0.0168093
0.0407613
0.0579286
0.0726091
0.0862018
0.0994578
0.11276
0.126207
0.139673
0.15286
0.165343
0.176615
0.18617
0.19366
0.199101
0.203097
0.206904
0.212186
0.22015
0.230093
0.237456
0.233255
0.145165
0.0179194
0.0433205
0.061098
0.0763886
0.0907547
0.104922
0.119206
0.133651
0.148101
0.162248
0.175664
0.187845
0.1983
0.20671
0.213172
0.218433
0.223978
0.231705
0.243177
0.257755
0.269847
0.270807
0.169086
0.0187426
0.0451033
0.063315
0.0791046
0.0941312
0.109087
0.124224
0.139539
0.154856
0.169865
0.184149
0.197215
0.208583
0.217959
0.225497
0.232048
0.239245
0.249196
0.263809
0.282854
0.301149
0.310946
0.19542
0.0193673
0.0462422
0.0647366
0.0809718
0.096601
0.112264
0.128155
0.144236
0.160324
0.17612
0.191224
0.205161
0.217462
0.227842
0.236482
0.244297
0.252997
0.264863
0.282092
0.304973
0.330069
0.352249
0.227682
0.0107001
0.0167029
0.0210853
0.02351
0.0246421
0.0250113
0.0244062
0.0232925
0.0219803
0.0206607
0.0194576
0.0184015
0.0174434
0.0164953
0.0154386
0.0141098
0.0122861
0.0108771
0.00917143
0.0197694
0.039294
0.0462485
0.0498278
0.0514428
0.0513293
0.0499702
0.0478737
0.0454521
0.0430122
0.0407646
0.038776
0.0369724
0.0351762
0.0331302
0.0304804
0.0266976
0.0207927
0.0112172
0.0289946
0.0560108
0.0639956
0.0669755
0.067601
0.0665285
0.0642881
0.0613549
0.058133
0.0549362
0.0519856
0.0493645
0.0470046
0.044701
0.0421356
0.0388642
0.0342232
0.0269969
0.0136416
0.0381044
0.0718173
0.0802101
0.0819873
0.081227
0.0788634
0.075506
0.0716263
0.0675965
0.0636949
0.0601147
0.0569337
0.0540879
0.0513628
0.0484062
0.0447171
0.0395395
0.0314424
0.0155521
0.0479869
0.0885925
0.0969269
0.097062
0.0945753
0.0905416
0.0857427
0.0806918
0.075724
0.0710559
0.0668251
0.0630807
0.0597521
0.0566187
0.0533063
0.0492711
0.0436817
0.0349091
0.0170691
0.0593318
0.10729
0.114966
0.113036
0.108485
0.102379
0.0957667
0.089266
0.0831787
0.0776383
0.0727009
0.0683644
0.0645362
0.0609867
0.057325
0.0529726
0.0470326
0.037703
0.0183071
0.0735321
0.128855
0.134729
0.13033
0.123389
0.114798
0.105968
0.0977026
0.0902832
0.0837404
0.0780233
0.0730547
0.068703
0.0647225
0.0607072
0.0560491
0.0497941
0.0399935
0.0193432
0.0996644
0.1557
0.157201
0.149496
0.13965
0.128086
0.11659
0.106212
0.0972238
0.0895332
0.0829536
0.0773074
0.0724062
0.0679783
0.0636011
0.0586404
0.0520924
0.0418856
0.0202277
0.0199277
0.0470127
0.0657366
0.082562
0.0990098
0.115619
0.132505
0.149596
0.166715
0.183592
0.199867
0.215102
0.228846
0.240818
0.251227
0.261048
0.272064
0.286491
0.306735
0.333777
0.366557
0.398827
0.317435
0.0205518
0.0471286
0.0658407
0.0832611
0.100586
0.118171
0.136049
0.15414
0.172307
0.190347
0.207975
0.224811
0.240395
0.254347
0.266737
0.278403
0.290934
0.306155
0.325866
0.350956
0.380146
0.405799
0.382405
0.0211555
0.0469888
0.0656479
0.0835101
0.101437
0.119643
0.138121
0.156819
0.175654
0.19449
0.213124
0.231252
0.248388
0.26396
0.277756
0.29032
0.302924
0.317007
0.333721
0.353955
0.376647
0.397162
0.398781
0.0218758
0.0471526
0.0659173
0.084118
0.102385
0.120875
0.139598
0.158543
0.177675
0.196905
0.216107
0.235083
0.253365
0.270197
0.285066
0.298205
0.310566
0.32313
0.336824
0.352857
0.370862
0.388288
0.397763
0.022803
0.0478913
0.0669987
0.085542
0.104028
0.122617
0.141368
0.160321
0.179475
0.198766
0.218115
0.237449
0.256435
0.274334
0.290574
0.305225
0.318871
0.331842
0.34471
0.359011
0.374785
0.390754
0.40316
0.0240725
0.0490029
0.0687782
0.087925
0.106754
0.125459
0.14419
0.163069
0.182148
0.201389
0.220735
0.240176
0.259636
0.278871
0.297781
0.316492
0.335027
0.352662
0.369473
0.385661
0.401363
0.416529
0.430191
0.0261494
0.0498465
0.070935
0.0913642
0.110891
0.129889
0.148736
0.167692
0.186875
0.206344
0.226106
0.245986
0.266114
0.287441
0.310942
0.337195
0.364922
0.392053
0.418314
0.441759
0.461234
0.477522
0.493088
0.0303135
0.0509423
0.07433
0.0967863
0.117338
0.136919
0.156243
0.175679
0.195379
0.215616
0.236816
0.257811
0.27848
0.301982
0.330926
0.365319
0.397394
0.425834
0.451094
0.473629
0.492793
0.508882
0.528526
0.0379149
0.0564716
0.082303
0.106224
0.12771
0.148082
0.168163
0.18824
0.208397
0.22914
0.25053
0.271698
0.293088
0.314808
0.338945
0.364365
0.388089
0.41036
0.430976
0.450721
0.470319
0.489369
0.509601
0.046305
0.0723665
0.0979593
0.119638
0.138948
0.158842
0.178717
0.198569
0.218344
0.237911
0.256769
0.275758
0.29557
0.315316
0.333628
0.351147
0.368083
0.385762
0.40522
0.427088
0.451189
0.47543
0.497405
0.0523747
0.0950934
0.117057
0.131447
0.147268
0.165476
0.184574
0.204033
0.223609
0.243009
0.262152
0.281205
0.300221
0.318394
0.334431
0.347974
0.359895
0.37258
0.388638
0.409369
0.434111
0.45995
0.483108
0.0526309
0.0988554
0.121946
0.137058
0.153766
0.172445
0.192137
0.21215
0.232074
0.251603
0.270582
0.289023
0.306776
0.323104
0.336873
0.347477
0.355734
0.36421
0.376067
0.393113
0.414452
0.436444
0.456763
0.0500936
0.0929533
0.119191
0.139163
0.15847
0.178328
0.198632
0.218964
0.238939
0.258249
0.276676
0.294054
0.310051
0.323953
0.334849
0.34232
0.347241
0.352031
0.35969
0.371936
0.387503
0.402616
0.419101
0.0499209
0.0909241
0.118412
0.140726
0.161653
0.182353
0.202966
0.223232
0.242802
0.261347
0.278572
0.294168
0.307698
0.318526
0.326027
0.330122
0.331836
0.333383
0.337343
0.345066
0.354987
0.363776
0.378886
0.0510189
0.0923044
0.119889
0.142722
0.164087
0.18491
0.205286
0.224969
0.243604
0.260818
0.276239
0.28947
0.300049
0.307491
0.311503
0.312364
0.311262
0.310216
0.311417
0.316022
0.322842
0.329954
0.34892
0.0525357
0.0949242
0.122315
0.144917
0.165999
0.186354
0.205998
0.22465
0.241918
0.257388
0.270636
0.281238
0.288782
0.292977
0.293871
0.292062
0.28885
0.286076
0.28566
0.288877
0.295636
0.305844
0.330566
0.0540048
0.0975036
0.12472
0.146869
0.167324
0.186853
0.205435
0.222761
0.238411
0.25194
0.262915
0.270946
0.275752
0.277267
0.275788
0.272115
0.267569
0.263839
0.262701
0.265686
0.273768
0.287977
0.315801
0.0548447
0.0993589
0.126459
0.148112
0.167804
0.186331
0.203686
0.219562
0.233539
0.245181
0.254083
0.259933
0.262582
0.262139
0.259072
0.254269
0.249008
0.244831
0.243379
0.246278
0.25499
0.270737
0.296814
0.0548984
0.100077
0.127051
0.148219
0.16713
0.184629
0.20075
0.215219
0.227646
0.237628
0.244819
0.24899
0.250104
0.248389
0.244396
0.239019
0.233445
0.229054
0.227319
0.229765
0.237904
0.252957
0.276017
0.0541708
0.0995137
0.126265
0.146941
0.165093
0.181607
0.196575
0.209773
0.220861
0.22949
0.235375
0.238365
0.238501
0.236073
0.231648
0.226071
0.220409
0.215874
0.213753
0.215377
0.222086
0.235042
0.254889
0.052743
0.0976841
0.124047
0.144188
0.161597
0.177189
0.191113
0.203208
0.213192
0.220774
0.225731
0.227968
0.22757
0.224846
0.220338
0.214807
0.209191
0.204545
0.201974
0.202593
0.207479
0.217556
0.233393
0.0507473
0.0947222
0.120489
0.140014
0.156671
0.171391
0.184374
0.195521
0.204613
0.211415
0.215752
0.217568
0.216967
0.214246
0.209894
0.204581
0.199121
0.194421
0.191426
0.191053
0.194107
0.201162
0.212497
0.0483493
0.090855
0.115801
0.134598
0.150469
0.16434
0.176457
0.186779
0.195144
0.201367
0.205313
0.206946
0.206372
0.203856
0.199828
0.194865
0.189665
0.185006
0.181689
0.180466
0.181919
0.186306
0.193496
0.0457277
0.0863694
0.110277
0.128223
0.143252
0.156271
0.167564
0.177141
0.18489
0.19067
0.194374
0.195978
0.195576
0.193396
0.189805
0.185293
0.180455
0.175949
0.172455
0.170588
0.170774
0.173051
0.176977
0.0430532
0.0815764
0.104265
0.12124
0.135359
0.147506
0.157989
0.166861
0.174057
0.17947
0.183016
0.184674
0.184521
0.182748
0.179662
0.175674
0.171282
0.167044
0.163527
0.161239
0.160499
0.161231
0.162832
0.0404702
0.0767742
0.0981171
0.114024
0.127172
0.138418
0.148088
0.156271
0.162938
0.168015
0.171434
0.173175
0.173298
0.171956
0.169402
0.165976
0.162093
0.158218
0.154822
0.152323
0.15097
0.150645
0.150709
0.0380853
0.0722168
0.0921575
0.106936
0.119071
0.129394
0.138245
0.145739
0.151882
0.156624
0.159912
0.161727
0.162112
0.161189
0.15916
0.156304
0.152964
0.14952
0.146363
0.143836
0.142136
0.14115
0.140281
0.0359635
0.0680929
0.0866515
0.10029
0.1114
0.120797
0.128828
0.135635
0.141249
0.145644
0.148779
0.150637
0.151247
0.150702
0.149164
0.146858
0.144064
0.141091
0.138258
0.135844
0.134015
0.132675
0.131309
0.0341341
0.0645197
0.0817877
0.0943245
0.104435
0.112925
0.120154
0.126285
0.131371
0.135405
0.138359
0.140219
0.141002
0.14078
0.13968
0.137883
0.135611
0.133117
0.130656
0.128458
0.126659
0.125191
0.123631
0.0326016
0.0615517
0.0776776
0.0891979
0.0983684
0.105998
0.112463
0.117944
0.122513
0.12618
0.12893
0.130749
0.131652
0.131691
0.130964
0.129614
0.127821
0.125786
0.123713
0.121789
0.120128
0.118685
0.117123
0.0313606
0.0592019
0.0743681
0.0849898
0.0933074
0.100147
0.105904
0.110776
0.114853
0.118158
0.120688
0.122434
0.123405
0.12364
0.123216
0.122246
0.120871
0.119252
0.117553
0.115922
0.114456
0.113128
0.111675
0.0304116
0.0574692
0.0718671
0.0817215
0.0892882
0.0954216
0.100539
0.104856
0.108476
0.111437
0.113742
0.115388
0.116383
0.116755
0.116565
0.115901
0.114874
0.113613
0.112247
0.110897
0.109643
0.108471
0.107174
0.029777
0.0563655
0.0701719
0.0793822
0.0862972
0.0918094
0.09636
0.10018
0.103385
0.106024
0.108108
0.109638
0.110621
0.111079
0.111059
0.110628
0.109875
0.108902
0.107815
0.106709
0.105652
0.104638
0.103505
0.0295191
0.0559377
0.0692952
0.0779553
0.0842978
0.0892603
0.0933078
0.0966848
0.0995161
0.101858
0.103729
0.105135
0.10608
0.106582
0.106674
0.10641
0.10586
0.105104
0.104229
0.103314
0.102418
0.101539
0.10055
0.0297569
0.0562828
0.0692821
0.077439
0.0832522
0.0877106
0.0912999
0.0942741
0.0967641
0.0988314
0.1005
0.101777
0.102667
0.10318
0.10334
0.103187
0.102774
0.102166
0.101435
0.100649
0.0998613
0.0990779
0.098197
0.0306843
0.0575572
0.0702172
0.0778549
0.0831346
0.0870986
0.0902479
0.0928403
0.0950082
0.0968156
0.0982888
0.0994355
0.100258
0.10076
0.100956
0.100871
0.100542
0.100022
0.0993691
0.0986463
0.0979069
0.0971662
0.0963453
0.0325871
0.0599804
0.0722175
0.0792409
0.0839274
0.0873674
0.0900661
0.0922763
0.0941266
0.095679
0.0969592
0.0979738
0.0987214
0.0991999
0.0994118
0.099368
0.09909
0.0986125
0.0979829
0.0972587
0.0964985
0.0957344
0.0949131
0.035888
0.063834
0.075403
0.0816213
0.0856
0.0884526
0.0906672
0.0924787
0.0940036
0.0952973
0.0963819
0.0972609
0.0979289
0.0983771
0.0985978
0.0985871
0.0983481
0.0978949
0.0972559
0.0964778
0.0956243
0.0947526
0.0938474
0.0412747
0.069447
0.0798377
0.0849546
0.0880727
0.0902602
0.0919506
0.0933419
0.0945292
0.0955559
0.0964375
0.0971739
0.0977561
0.0981702
0.0984007
0.0984313
0.0982468
0.0978364
0.0971991
0.0963534
0.0953502
0.0942683
0.0931491
0.0499879
0.0771267
0.0854238
0.0890678
0.0911816
0.0926489
0.0937935
0.0947548
0.0955973
0.0963484
0.0970161
0.0975966
0.0980795
0.0984498
0.0986891
0.0987752
0.0986811
0.0983746
0.0978193
0.0969826
0.0958558
0.0944837
0.0929414
0.0643918
0.0868436
0.0917034
0.0935803
0.0946514
0.0954181
0.0960425
0.0965915
0.097095
0.0975648
0.0980022
0.0984025
0.0987569
0.0990541
0.0992798
0.0994162
0.0994387
0.0993122
0.0989844
0.0983756
0.0973737
0.0958515
0.0936945
0.0894651
0.0970502
0.0976178
0.0978875
0.0981085
0.0983093
0.0984988
0.0986834
0.0988668
0.0990498
0.0992312
0.0994081
0.099577
0.0997335
0.0998727
0.099989
0.100075
0.10012
0.100102
0.0999771
0.0996274
0.0987645
0.0967256
0.285273
0.240264
0.18377
0.163784
0.348562
0.323712
0.310627
0.306133
0.383792
0.363967
0.345676
0.335114
0.394886
0.386322
0.372949
0.359043
0.405877
0.404132
0.397588
0.386515
0.436923
0.439811
0.437875
0.429194
0.505138
0.513959
0.517291
0.509501
0.551147
0.573744
0.601947
0.611356
0.529111
0.550658
0.584964
0.626386
0.514887
0.536441
0.57224
0.624209
0.503282
0.529014
0.571113
0.627775
0.481254
0.515406
0.569793
0.635442
0.449964
0.493336
0.560084
0.638726
0.420252
0.474174
0.555324
0.66024
0.405661
0.470652
0.563647
0.679318
0.395254
0.462802
0.556865
0.669621
0.374463
0.434391
0.517986
0.61954
0.34041
0.383046
0.444821
0.526167
0.306976
0.333736
0.371353
0.423887
0.278936
0.297367
0.320443
0.351111
0.252397
0.266647
0.283265
0.30287
0.226137
0.236726
0.249543
0.26461
0.20192
0.208661
0.217402
0.228394
0.181261
0.184772
0.189759
0.196632
0.164274
0.165533
0.16777
0.171424
0.150384
0.150247
0.150722
0.152219
0.138965
0.138046
0.13749
0.137661
0.129527
0.128239
0.127151
0.12657
0.121721
0.120324
0.119026
0.118067
0.115283
0.11393
0.112613
0.111517
0.110005
0.108773
0.107536
0.106443
0.105708
0.104622
0.10351
0.102488
0.102238
0.101294
0.100312
0.0993863
0.0994532
0.0986329
0.0977699
0.0969395
0.0972329
0.0965107
0.0957447
0.0949968
0.0954717
0.0948195
0.0941253
0.0934405
0.0940832
0.0934708
0.0928208
0.0921766
0.0930032
0.0923951
0.091757
0.0911272
0.0922008
0.0915449
0.0908746
0.0902253
0.0917048
0.0909043
0.0901294
0.0894126
0.0916553
0.0904932
0.0894915
0.0886477
0.0922695
0.0903275
0.0889552
0.0879596
0.203637
0.222587
0.203221
0.183797
0.166477
0.149128
0.133002
0.119075
0.107486
0.0979194
0.0899589
0.0832518
0.0775031
0.0723889
0.0674581
0.0620395
0.05506
0.0442746
0.0212549
0.337059
0.367046
0.352294
0.267298
0.216064
0.183196
0.15802
0.137824
0.12174
0.108988
0.0987617
0.090389
0.083359
0.0772316
0.0715046
0.0654618
0.0579564
0.0465799
0.0223001
0.345449
0.395946
0.482606
0.466552
0.314216
0.232759
0.188405
0.158783
0.136881
0.120225
0.107303
0.0970314
0.0885949
0.0813876
0.0748239
0.0681435
0.0601415
0.0482857
0.0230847
0.347493
0.38021
0.471443
0.562222
0.501869
0.325556
0.231772
0.183921
0.15356
0.132019
0.115939
0.103499
0.0935111
0.085146
0.0777036
0.0703676
0.0618803
0.0496096
0.0237064
0.363722
0.372244
0.437034
0.54486
0.602944
0.475527
0.305308
0.218839
0.173486
0.144966
0.124927
0.109976
0.0982833
0.0886927
0.0803381
0.072328
0.0633547
0.0506986
0.0242468
0.40068
0.386007
0.421616
0.511327
0.608725
0.587112
0.408335
0.269569
0.1987
0.159599
0.134462
0.116588
0.10303
0.0921532
0.0828619
0.0741639
0.0646898
0.051655
0.0247655
0.46925
0.426464
0.429833
0.493006
0.591213
0.63038
0.507612
0.335427
0.230957
0.176525
0.144742
0.123439
0.107832
0.0956076
0.0853638
0.0759588
0.0659672
0.0525443
0.0252512
0.559237
0.486524
0.456113
0.49034
0.574561
0.639601
0.572851
0.406453
0.269882
0.1961
0.155953
0.130624
0.112748
0.0991049
0.0878768
0.0777501
0.0672233
0.0533942
0.0257073
0.629546
0.542845
0.486813
0.496184
0.563528
0.636391
0.612183
0.46671
0.312026
0.2181
0.168228
0.138257
0.117837
0.102646
0.0903973
0.079538
0.0684625
0.0542103
0.0261381
0.666168
0.578712
0.510751
0.503206
0.556549
0.629733
0.634023
0.513528
0.351225
0.241339
0.181598
0.146427
0.123105
0.106218
0.092899
0.0812948
0.0696641
0.0549811
0.0265423
0.680567
0.59713
0.525324
0.50743
0.550072
0.620733
0.643299
0.546824
0.385679
0.264686
0.195892
0.155156
0.128568
0.109791
0.0953314
0.0829685
0.0707868
0.0556815
0.0269144
0.685837
0.604352
0.532149
0.507991
0.541603
0.607223
0.640592
0.568007
0.41577
0.288379
0.211272
0.164533
0.134211
0.113301
0.0976139
0.0844813
0.0717684
0.0562728
0.0272578
0.696159
0.608665
0.535049
0.506551
0.531534
0.587704
0.626036
0.578809
0.442551
0.31283
0.22791
0.17452
0.139916
0.116614
0.099623
0.0857307
0.0725329
0.0567094
0.0275623
0.731202
0.622187
0.540473
0.505201
0.520544
0.56524
0.605212
0.58323
0.467814
0.338526
0.245675
0.184804
0.14538
0.119497
0.101188
0.0865932
0.0729978
0.0569441
0.0278062
0.798999
0.662315
0.558039
0.5086
0.511039
0.545357
0.585879
0.586247
0.492461
0.364867
0.263638
0.194532
0.150022
0.121595
0.102091
0.0869338
0.0730838
0.0569353
0.027957
0.838075
0.726176
0.592555
0.523627
0.509687
0.53256
0.572251
0.589514
0.51651
0.390272
0.279896
0.202275
0.15301
0.122468
0.102097
0.0866277
0.0727307
0.0566582
0.028
0.79422
0.79626
0.650506
0.556933
0.523781
0.532491
0.566566
0.59379
0.537053
0.411127
0.291486
0.206231
0.153457
0.121705
0.101015
0.0855994
0.0719189
0.056113
0.0279332
0.657573
0.807299
0.731297
0.612045
0.557396
0.54869
0.570949
0.599426
0.552518
0.422961
0.294615
0.204471
0.150612
0.119038
0.0987721
0.0838608
0.0706865
0.0553309
0.0277644
0.511927
0.701796
0.773552
0.686477
0.611618
0.581815
0.585732
0.603758
0.553743
0.417997
0.285228
0.195709
0.144222
0.114479
0.09547
0.081537
0.0691346
0.0543719
0.0275091
0.403663
0.544409
0.69085
0.733252
0.673197
0.627426
0.606591
0.600301
0.530886
0.388719
0.260921
0.180122
0.134763
0.108405
0.0914151
0.0788608
0.0674118
0.0533152
0.0271877
0.333023
0.410683
0.532927
0.640902
0.666103
0.641637
0.609841
0.569837
0.471305
0.33338
0.225175
0.160238
0.123505
0.101539
0.0870798
0.0761234
0.0656804
0.0522422
0.0268221
0.286565
0.331632
0.398398
0.482193
0.543512
0.560829
0.544941
0.48482
0.378835
0.266512
0.187133
0.139939
0.112128
0.0947783
0.0829719
0.0735932
0.0640776
0.0512218
0.0264334
0.245414
0.276633
0.314611
0.360949
0.405346
0.429964
0.421562
0.369214
0.284472
0.206679
0.154449
0.122201
0.102053
0.0888796
0.0794654
0.0714436
0.0626897
0.0503008
0.0260403
0.208271
0.229471
0.252894
0.277389
0.29982
0.311872
0.302514
0.264823
0.210791
0.163194
0.1299
0.108305
0.0940395
0.0842262
0.0767144
0.0697356
0.0615496
0.0495029
0.025658
0.178379
0.191574
0.204842
0.216706
0.225426
0.227207
0.217017
0.192819
0.161587
0.133696
0.112864
0.098328
0.0881991
0.0808317
0.0746898
0.0684457
0.0606506
0.0488332
0.0252973
0.155813
0.163199
0.169891
0.174657
0.176458
0.173698
0.16468
0.149383
0.131192
0.114497
0.101262
0.0914606
0.0842204
0.0785055
0.0732757
0.0675104
0.0599639
0.0482847
0.0249655
0.139042
0.142549
0.145309
0.146402
0.145244
0.141229
0.133974
0.123909
0.112679
0.102243
0.0936273
0.0868934
0.0815541
0.0769354
0.0723061
0.0668549
0.0594552
0.0478421
0.0247062
0.126561
0.127637
0.128126
0.127408
0.125171
0.121218
0.115573
0.108658
0.101337
0.0945303
0.0887265
0.0839218
0.0797958
0.0758863
0.0716468
0.066393
0.0590765
0.0474926
0.0245145
0.117272
0.116919
0.116156
0.114594
0.112088
0.108601
0.10425
0.099347
0.094357
0.0897118
0.0856116
0.0819993
0.0786387
0.0751864
0.0712004
0.0660707
0.0587988
0.0472234
0.0243652
0.110341
0.109229
0.107842
0.105956
0.10352
0.100557
0.0971797
0.0935893
0.0900278
0.0866849
0.083618
0.0807439
0.0778701
0.0747164
0.0708979
0.0658476
0.0585989
0.047022
0.0242462
0.105136
0.103683
0.102049
0.100113
0.0978737
0.095374
0.0926992
0.0899662
0.0872916
0.0847448
0.082315
0.0799072
0.0773503
0.0743965
0.0706918
0.0656943
0.0584584
0.0468768
0.0241496
0.101186
0.0996313
0.0979556
0.0961008
0.0940898
0.0919663
0.0897889
0.0876204
0.0855083
0.0834621
0.0814378
0.0793341
0.0769902
0.0741747
0.0705505
0.0655907
0.0583638
0.0467782
0.0240696
0.0981531
0.0966178
0.0949998
0.0932772
0.0914826
0.0896548
0.0878322
0.0860445
0.0843018
0.082583
0.0808273
0.0789295
0.076734
0.0740178
0.0704533
0.065523
0.0583052
0.0467182
0.024003
0.0957945
0.0943302
0.0928086
0.0912282
0.0896235
0.0880273
0.0864637
0.0849424
0.083453
0.081958
0.0803877
0.0786351
0.0765467
0.0739047
0.0703869
0.0654822
0.0582752
0.0466902
0.0239482
0.0939358
0.092555
0.0911372
0.0896906
0.088248
0.0868357
0.0854673
0.0841404
0.0828325
0.0814975
0.0800608
0.0784143
0.0764063
0.0738219
0.0703429
0.0654619
0.0582683
0.0466888
0.0239046
0.0924465
0.0911423
0.0898212
0.0884945
0.0871901
0.0859273
0.0847119
0.0835332
0.0823618
0.0811463
0.0798098
0.0782441
0.0762987
0.073761
0.0703155
0.0654579
0.0582802
0.0467092
0.0238715
0.0912252
0.0899817
0.0887457
0.0875256
0.0863413
0.0852047
0.0841146
0.0830545
0.0819905
0.0808686
0.0796107
0.0781089
0.0762142
0.073716
0.0703007
0.0654664
0.0583068
0.0467469
0.0238481
0.0901884
0.0889871
0.0878256
0.0867026
0.085627
0.0846018
0.0836197
0.0826597
0.081685
0.0806402
0.0794469
0.0779981
0.0761463
0.0736824
0.0702951
0.065484
0.0583439
0.0467966
0.0238331
0.0892625
0.0880859
0.086993
0.0859633
0.0849912
0.08407
0.0831864
0.0823159
0.08142
0.0804426
0.0793058
0.0779035
0.0760896
0.0736569
0.0702956
0.065507
0.0583865
0.0468521
0.0238243
0.0883811
0.0872164
0.0861925
0.085258
0.0843891
0.0835696
0.0827806
0.0819952
0.0811736
0.0802595
0.0791756
0.0778169
0.0760389
0.0736357
0.0702991
0.0655315
0.0584287
0.0469048
0.0238183
0.0875079
0.0863513
0.085401
0.0845632
0.083796
0.083075
0.0823775
0.0816745
0.0809251
0.0800733
0.079042
0.0777273
0.0759855
0.0736123
0.0703004
0.0655527
0.0584643
0.046944
0.023811
0.0867391
0.0856174
0.0847348
0.0839727
0.0832824
0.0826368
0.0820111
0.0813746
0.0806856
0.0798872
0.0789025
0.0776275
0.0759195
0.0735747
0.0702866
0.0655584
0.0584833
0.0469646
0.0237912
)
;

boundaryField
{
    leftWall
    {
        type            kqRWallFunction;
        value           nonuniform List<scalar> 
50
(
0.00690469
0.0106881
0.0132438
0.0152777
0.0168093
0.0179194
0.0187426
0.0193673
0.0199277
0.0205518
0.0211555
0.0218758
0.022803
0.0240725
0.0261494
0.0303135
0.0379149
0.046305
0.0523747
0.0526309
0.0500936
0.0499209
0.0510189
0.0525357
0.0540048
0.0548447
0.0548984
0.0541708
0.052743
0.0507473
0.0483493
0.0457277
0.0430532
0.0404702
0.0380853
0.0359635
0.0341341
0.0326016
0.0313606
0.0304116
0.029777
0.0295191
0.0297569
0.0306843
0.0325871
0.035888
0.0412747
0.0499879
0.0643918
0.0894651
)
;
    }
    rightWall
    {
        type            kqRWallFunction;
        value           nonuniform List<scalar> 
50
(
0.00917143
0.0112172
0.0136416
0.0155521
0.0170691
0.0183071
0.0193432
0.0202277
0.0212549
0.0223001
0.0230847
0.0237064
0.0242468
0.0247655
0.0252512
0.0257073
0.0261381
0.0265423
0.0269144
0.0272578
0.0275623
0.0278062
0.027957
0.028
0.0279332
0.0277644
0.0275091
0.0271877
0.0268221
0.0264334
0.0260403
0.025658
0.0252973
0.0249655
0.0247062
0.0245145
0.0243652
0.0242462
0.0241496
0.0240696
0.024003
0.0239482
0.0239046
0.0238715
0.0238481
0.0238331
0.0238243
0.0238183
0.023811
0.0237912
)
;
    }
    lowerWall
    {
        type            kqRWallFunction;
        value           nonuniform List<scalar> 
62
(
0.00690469
0.012151
0.0186638
0.0239812
0.0286245
0.0330881
0.0375984
0.0422467
0.0470211
0.0518251
0.0564904
0.0607913
0.064462
0.0672207
0.0687888
0.0688654
0.0674373
0.0650367
0.0613488
0.0563905
0.0504425
0.0397471
0.0304672
0.0304672
0.0636072
0.0957565
0.121876
0.145165
0.169086
0.19542
0.227682
0.285273
0.240264
0.18377
0.163784
0.0107001
0.0197694
0.0289946
0.0381044
0.0479869
0.0593318
0.0735321
0.0996644
0.0107001
0.0167029
0.0210853
0.02351
0.0246421
0.0250113
0.0244062
0.0232925
0.0219803
0.0206607
0.0194576
0.0184015
0.0174434
0.0164953
0.0154386
0.0141098
0.0122861
0.0108771
0.00917143
)
;
    }
    atmosphere
    {
        type            inletOutlet;
        inletValue      uniform 0.1;
        value           nonuniform List<scalar> 
46
(
0.1
0.1
0.1
0.1
0.1
0.1
0.1
0.1
0.1
0.1
0.1
0.1
0.1
0.1
0.1
0.1
0.1
0.1
0.1
0.1
0.1
0.1
0.1
0.0922695
0.0903275
0.0889552
0.0879596
0.0867391
0.0856174
0.0847348
0.0839727
0.0832824
0.0826368
0.0820111
0.0813746
0.0806856
0.0798872
0.0789025
0.0776275
0.0759195
0.0735747
0.0702866
0.0655584
0.0584833
0.0469646
0.0237912
)
;
    }
    defaultFaces
    {
        type            empty;
    }
}


// ************************************************************************* //
