/*--------------------------------*- C++ -*----------------------------------*\
  =========                 |
  \\      /  F ield         | OpenFOAM: The Open Source CFD Toolbox
   \\    /   O peration     | Website:  https://openfoam.org
    \\  /    A nd           | Version:  9
     \\/     M anipulation  |
\*---------------------------------------------------------------------------*/
FoamFile
{
    format      ascii;
    class       volScalarField;
    location    "0.25";
    object      p;
}
// * * * * * * * * * * * * * * * * * * * * * * * * * * * * * * * * * * * * * //

dimensions      [1 -1 -2 0 0 0 0];

internalField   nonuniform List<scalar> 
2268
(
1606.12
1614.06
1629.23
1646.66
1662.44
1676.04
1687.63
1697.42
1705.39
1711.47
1715.74
1718.6
1721.13
1725.55
1735.84
1758.69
1803.14
1877.3
1984.06
2111.29
2230.8
2286.21
2348.51
1545.76
1551.88
1564.75
1579.91
1594.03
1606.32
1616.73
1625.33
1632.11
1637.07
1640.41
1642.71
1645.26
1650.45
1662.33
1686.79
1732.5
1809.17
1921.67
2059.69
2191.69
2237.52
2298.61
1484.35
1490.66
1501.1
1513.46
1525.13
1535.25
1543.65
1550.25
1555.03
1558.12
1559.89
1561.13
1563.38
1569.25
1582.82
1609.86
1658.14
1736.31
1849.61
1989.74
2130.22
2193.26
2273.9
1421.96
1429.2
1438.23
1448.28
1457.62
1465.51
1471.7
1476.08
1478.66
1479.64
1479.55
1479.37
1480.79
1486.55
1500.71
1528.77
1577.61
1654.64
1764.53
1900.52
2042.83
2135.78
2254.74
1358.54
1366.85
1375.13
1383.47
1390.93
1396.85
1401.03
1403.34
1403.82
1402.76
1400.77
1398.95
1399.09
1403.89
1417.3
1444.46
1491.45
1564.54
1667.65
1796.01
1934.44
2055.27
2210.85
1294.09
1303.34
1311.08
1318.1
1324
1328.23
1330.6
1331.03
1329.56
1326.54
1322.67
1319.1
1317.61
1320.82
1332.42
1357.13
1400.25
1466.99
1560.43
1677.38
1804.26
1943.93
2112.5
1228.63
1238.62
1245.86
1251.69
1256.25
1258.99
1259.73
1258.4
1255.09
1250.2
1244.46
1239.05
1235.7
1236.85
1245.85
1266.9
1304.53
1362.82
1443.76
1544.33
1649.14
1790.5
1916.28
1162.18
1172.61
1179.35
1184.1
1187.45
1188.88
1188.17
1185.24
1180.24
1173.59
1166.06
1158.81
1153.47
1152.2
1157.91
1174.22
1204.82
1252.64
1318.06
1396.03
1466.46
1566.83
1566.94
4.53864
4.53764
4.53673
4.53341
4.53238
4.53129
4.5273
4.5188
4.50559
4.48836
4.46841
4.44716
4.42585
4.40554
4.38715
4.37145
4.35905
4.35039
4.34511
4.48068
4.48307
4.48101
4.47485
4.47225
4.47018
4.46567
4.45706
4.44403
4.42713
4.40753
4.38661
4.36558
4.34548
4.32721
4.31154
4.29911
4.29036
4.28516
4.41892
4.42563
4.42313
4.41573
4.41207
4.40904
4.40394
4.3951
4.38218
4.36555
4.34626
4.32564
4.30486
4.28492
4.2667
4.25102
4.23858
4.22979
4.22471
4.3515
4.36537
4.36223
4.35551
4.35209
4.34878
4.34334
4.33417
4.3211
4.30446
4.28517
4.26459
4.24386
4.2239
4.20558
4.18977
4.17727
4.16844
4.16339
4.27393
4.30345
4.29911
4.29454
4.2925
4.28963
4.28417
4.27467
4.26116
4.24414
4.22447
4.20355
4.18258
4.1624
4.14382
4.12779
4.11517
4.10629
4.10125
4.1794
4.2408
4.23463
4.23337
4.23348
4.23155
4.22632
4.21649
4.20233
4.18456
4.16413
4.1425
4.12096
4.10036
4.08142
4.06508
4.05228
4.04331
4.03829
4.05916
4.17743
4.16884
4.17215
4.17518
4.17461
4.16975
4.15958
4.14452
4.12567
4.10413
4.08144
4.05902
4.03777
4.01833
4.00162
3.98857
3.97948
3.97451
3.88411
4.1193
4.10039
4.10908
4.11654
4.11844
4.1143
4.10382
4.08773
4.06748
4.04452
4.02048
3.99688
3.97473
3.95464
3.93746
3.92411
3.91483
3.90993
1056.75
1067.2
1073.16
1076.36
1077.99
1077.63
1074.9
1069.77
1062.41
1053.28
1043.16
1033.13
1024.57
1019.09
1018.76
1026.18
1043.86
1072.8
1110.38
1145.94
1149.02
1067.34
599.626
909.262
919.035
923.447
924.663
924.163
921.494
916.239
908.341
898.003
885.687
872.111
858.245
845.099
833.375
823.819
817.748
816.617
819.923
823.527
815.889
767.603
634.263
412.238
758.504
766.863
769.088
768.131
765.442
760.426
752.618
741.948
728.621
713.063
695.917
678.153
660.611
642.877
624.011
604.189
585.059
566.407
546.154
520.09
475.907
399.35
322.622
605.506
611.792
611.429
608.184
603.238
595.799
585.334
571.742
555.192
536.006
514.697
492.641
471.249
448.596
421.057
387.57
351.866
315.18
278.613
246.577
214.244
170.093
117.196
451.406
454.629
451.723
446.123
438.588
428.28
414.622
397.455
376.892
352.959
325.851
298.846
276.243
253.539
221.983
179.091
134.719
90.8294
49.3506
26.3963
11.3432
-7.29126
-35.4946
296.455
296.108
290.313
281.318
270.096
256.16
238.922
218.387
194.871
167.873
136.58
108.575
93.3133
82.4009
62.1502
33.8945
18.0058
5.75313
-5.22151
-10.7495
-13.9642
-18.9043
-28.8863
147.834
141.509
130.498
118.421
105.707
92.0148
76.8371
60.8848
45.5841
31.0599
17.3547
9.89572
8.50996
8.6174
3.47474
-3.92375
-4.14733
-4.47892
-5.07456
-5.64607
-6.17228
-6.89809
-8.33691
43.9786
30.9666
22.8195
18.2935
14.5955
10.8412
6.78903
2.9456
-0.152122
-2.62007
-3.76431
-3.72655
-3.5672
-3.53392
-4.3248
-4.35986
-4.38714
-4.53133
-4.75523
-4.99047
-5.22088
-5.52986
-6.00517
-2.97651
-2.03507
-2.41859
-3.16626
-3.27228
-3.30235
-3.35744
-3.43048
-3.51639
-3.68152
-3.62356
-3.64353
-3.7362
-3.91056
-4.20968
-4.46259
-4.63164
-4.84386
-5.11811
-5.44173
-5.78422
-6.10918
-6.48455
-3.46315
-3.12799
-3.05699
-3.11347
-3.13139
-3.15458
-3.20401
-3.28003
-3.3871
-3.5432
-3.74241
-3.86972
-4.00847
-4.18731
-4.41198
-4.64758
-4.86676
-5.10774
-5.38884
-5.70771
-6.05707
-6.44227
-6.89551
-3.46269
-3.36767
-3.28878
-3.30311
-3.33913
-3.38513
-3.44975
-3.53569
-3.64483
-3.78009
-3.93723
-4.08036
-4.23017
-4.40659
-4.61589
-4.83958
-5.06928
-5.31698
-5.59333
-5.90212
-6.24758
-6.63799
-7.07947
-3.55343
-3.49325
-3.464
-3.47871
-3.51998
-3.57511
-3.64583
-3.73417
-3.84133
-3.96757
-4.10857
-4.25597
-4.41432
-4.5916
-4.79135
-5.00624
-5.23365
-5.47872
-5.74844
-6.04963
-6.39204
-6.78815
-7.24778
-3.65962
-3.63478
-3.62888
-3.64787
-3.68878
-3.74548
-3.81734
-3.90526
-4.00997
-4.13146
-4.26735
-4.41441
-4.57329
-4.74684
-4.9364
-5.14035
-5.35874
-5.59502
-5.85509
-6.14759
-6.48689
-6.8933
-7.38669
-3.78687
-3.78003
-3.78464
-3.80794
-3.84924
-3.90577
-3.9768
-4.06273
-4.16397
-4.28042
-4.41078
-4.5531
-4.70681
-4.87249
-5.05076
-5.24208
-5.44782
-5.67143
-5.91886
-6.20008
-6.53297
-6.94461
-7.45885
-3.90978
-3.91646
-3.92827
-3.95497
-3.99678
-4.05244
-4.12156
-4.20438
-4.30114
-4.41171
-4.53516
-4.67005
-4.81533
-4.97076
-5.13676
-5.31442
-5.50584
-5.71478
-5.94736
-6.21399
-6.53404
-6.93883
-7.45186
-4.02665
-4.03977
-4.0576
-4.08725
-4.12932
-4.18356
-4.24995
-4.32875
-4.42018
-4.52407
-4.63964
-4.76563
-4.90085
-5.0448
-5.19785
-5.36137
-5.53779
-5.73093
-5.94679
-6.19516
-6.49437
-6.87389
-7.35018
-4.13409
-4.15021
-4.17304
-4.20498
-4.24684
-4.29912
-4.36215
-4.43628
-4.52173
-4.61835
-4.72542
-4.84173
-4.9661
-5.09796
-5.23774
-5.3869
-5.54789
-5.72432
-5.92157
-6.14804
-6.41874
-6.75578
-7.16471
-4.23095
-4.24964
-4.27594
-4.30931
-4.35039
-4.40022
-4.4594
-4.52837
-4.6074
-4.69635
-4.79454
-4.9008
-5.014
-5.13356
-5.25995
-5.3946
-5.53975
-5.69843
-5.87505
-6.07613
-6.31225
-6.59679
-6.92986
-4.31872
-4.33935
-4.36788
-4.4018
-4.44157
-4.48856
-4.54354
-4.60703
-4.67934
-4.76039
-4.84953
-4.94566
-5.04764
-5.15492
-5.2679
-5.38784
-5.51657
-5.65635
-5.81033
-5.98295
-6.18048
-6.40948
-6.67024
-4.39915
-4.42091
-4.45057
-4.48428
-4.52229
-4.56615
-4.6167
-4.67451
-4.73994
-4.81297
-4.89305
-4.97911
-5.07004
-5.16521
-5.26484
-5.36991
-5.4817
-5.60163
-5.73151
-5.87375
-6.03106
-6.20524
-6.39635
-4.47392
-4.49594
-4.52575
-4.55859
-4.59449
-4.63502
-4.68104
-4.7331
-4.79161
-4.85663
-4.92769
-5.00385
-5.08397
-5.16729
-5.25379
-5.34402
-5.4387
-5.5384
-5.64372
-5.75532
-5.87337
-5.99648
-6.12248
-4.54444
-4.56597
-4.59504
-4.62646
-4.66001
-4.69712
-4.7386
-4.78497
-4.83665
-4.89376
-4.95596
-5.02241
-5.09199
-5.16381
-5.23752
-5.31323
-5.39108
-5.47093
-5.55234
-5.63465
-5.7165
-5.79471
-5.86425
-4.61188
-4.63231
-4.65994
-4.6895
-4.72051
-4.7542
-4.79126
-4.83212
-4.87718
-4.92661
-4.98019
-5.03718
-5.09653
-5.15723
-5.21863
-5.2804
-5.34217
-5.40322
-5.46237
-5.51801
-5.56796
-5.6085
-5.63274
-4.67719
-4.69609
-4.72175
-4.74912
-4.77748
-4.80781
-4.84062
-4.87625
-4.91503
-4.95714
-5.00245
-5.05036
-5.09988
-5.14993
-5.19962
-5.24827
-5.29509
-5.33896
-5.37819
-5.41059
-5.43363
-5.44376
-5.4337
-4.74106
-4.75819
-4.78154
-4.80648
-4.83212
-4.85918
-4.88798
-4.91874
-4.95168
-4.98696
-5.02449
-5.0638
-5.104
-5.14402
-5.18278
-5.21934
-5.25263
-5.28126
-5.30332
-5.31635
-5.31771
-5.30437
-5.26962
-4.80398
-4.81924
-4.8401
-4.86246
-4.88537
-4.90926
-4.93431
-4.96058
-4.98819
-5.01723
-5.04761
-5.07896
-5.11052
-5.14124
-5.17002
-5.19571
-5.21708
-5.23262
-5.24037
-5.23787
-5.22261
-5.19212
-5.14069
-4.86622
-4.87965
-4.89796
-4.9177
-4.93788
-4.95872
-4.98025
-5.00243
-5.02526
-5.04872
-5.07271
-5.09688
-5.1206
-5.14293
-5.16279
-5.17896
-5.19014
-5.19479
-5.19101
-5.17653
-5.14912
-5.10689
-5.04516
-4.92797
-4.93964
-4.95549
-4.97262
-4.9901
-5.00801
-5.02626
-5.04473
-5.06332
-5.08189
-5.10028
-5.11817
-5.13499
-5.14994
-5.16203
-5.1701
-5.17282
-5.16873
-5.15605
-5.13276
-5.09698
-5.04735
-4.9802
-4.98933
-4.99936
-5.01289
-5.02751
-5.04238
-5.05747
-5.07265
-5.08775
-5.10258
-5.11693
-5.13056
-5.14311
-5.15407
-5.16275
-5.16828
-5.16962
-5.16556
-5.15472
-5.13552
-5.10618
-5.06518
-5.01161
-4.94265
-5.05038
-5.05895
-5.07034
-5.08259
-5.09497
-5.1074
-5.11971
-5.13172
-5.14322
-5.15394
-5.16358
-5.17173
-5.1779
-5.18146
-5.18166
-5.17763
-5.16831
-5.15251
-5.12883
-5.09577
-5.0521
-4.99726
-4.92919
-5.11123
-5.11849
-5.12798
-5.13807
-5.14812
-5.15804
-5.16768
-5.17687
-5.1854
-5.19299
-5.1993
-5.2039
-5.20629
-5.20586
-5.20197
-5.19387
-5.1807
-5.16145
-5.13499
-5.10008
-5.05571
-5.00162
-4.93631
-5.17201
-5.17813
-5.18593
-5.19409
-5.20203
-5.20964
-5.21681
-5.22342
-5.22928
-5.23414
-5.23768
-5.23944
-5.23892
-5.23554
-5.22869
-5.21775
-5.202
-5.18066
-5.1528
-5.11746
-5.07388
-5.02197
-4.96067
-5.23282
-5.23795
-5.24433
-5.25081
-5.25686
-5.26238
-5.26732
-5.27159
-5.27507
-5.27754
-5.27872
-5.27819
-5.27545
-5.26997
-5.26116
-5.24846
-5.23128
-5.20899
-5.1809
-5.14626
-5.10454
-5.05578
-4.99927
-5.2938
-5.29811
-5.30328
-5.30832
-5.31271
-5.31639
-5.31935
-5.32155
-5.32292
-5.32332
-5.32249
-5.32009
-5.31566
-5.30871
-5.2987
-5.28512
-5.26746
-5.24521
-5.21784
-5.1848
-5.14574
-5.1008
-5.04954
-5.35507
-5.35874
-5.36289
-5.36672
-5.36967
-5.37174
-5.37297
-5.3734
-5.37297
-5.3716
-5.3691
-5.36517
-5.35944
-5.35148
-5.34083
-5.32701
-5.3096
-5.28814
-5.26225
-5.23151
-5.19569
-5.15501
-5.10926
-5.41669
-5.42005
-5.42329
-5.42607
-5.42775
-5.42843
-5.42822
-5.42716
-5.42527
-5.42246
-5.4186
-5.41347
-5.40677
-5.39816
-5.38725
-5.37365
-5.35698
-5.33687
-5.313
-5.28506
-5.25289
-5.21675
-5.17659
-5.47831
-5.48217
-5.48457
-5.48639
-5.48693
-5.48642
-5.48501
-5.48279
-5.47975
-5.47584
-5.47097
-5.46496
-5.45761
-5.44865
-5.43779
-5.42471
-5.40912
-5.39072
-5.36923
-5.34441
-5.31614
-5.28466
-5.25009
-5.53951
-5.54507
-5.54663
-5.54751
-5.54703
-5.5455
-5.54316
-5.54006
-5.53621
-5.53155
-5.526
-5.51944
-5.51175
-5.50273
-5.49218
-5.47989
-5.46563
-5.44918
-5.4303
-5.40881
-5.38457
-5.35775
-5.32861
-5.60154
-5.60925
-5.60953
-5.60945
-5.60803
-5.60568
-5.60264
-5.59895
-5.59457
-5.58944
-5.58352
-5.57673
-5.569
-5.5602
-5.55023
-5.53895
-5.52622
-5.51188
-5.49577
-5.47772
-5.45757
-5.43531
-5.41124
-5.66563
-5.67812
-5.67507
-5.67336
-5.67102
-5.66802
-5.66448
-5.66039
-5.65569
-5.65032
-5.64426
-5.63748
-5.62992
-5.62157
-5.61236
-5.60225
-5.59116
-5.57902
-5.56572
-5.55114
-5.535
-5.51687
-5.49675
-5.72227
-5.75798
-5.74489
-5.73913
-5.73563
-5.7321
-5.72822
-5.7239
-5.71905
-5.71363
-5.70764
-5.70106
-5.69392
-5.68622
-5.67798
-5.66921
-5.65991
-5.65006
-5.63962
-5.62845
-5.61604
-5.6009
-5.58137
-5.75359
-5.83912
-5.8062
-5.79546
-5.79064
-5.78657
-5.78244
-5.77802
-5.77321
-5.76797
-5.76232
-5.7563
-5.74996
-5.74337
-5.7366
-5.72973
-5.7228
-5.71585
-5.70886
-5.70167
-5.69359
-5.68197
-5.66067
-321.631
-204.08
-55.4135
-13.9026
185.265
104.189
9.22851
-28.3699
240.436
164.312
100.901
63.6501
60.8027
28.4446
12.138
4.88086
-69.9351
-83.2628
-85.7386
-80.817
-51.6946
-70.1416
-88.0187
-103.526
-11.6144
-15.4787
-23.6845
-42.5881
-6.71616
-7.51658
-9.28316
-12.4558
-6.80151
-7.04281
-7.40697
-8.03684
-7.30252
-7.57943
-7.83138
-8.07079
-7.46005
-7.70944
-7.9153
-8.06175
-7.64356
-7.9048
-8.1305
-8.30631
-7.82986
-8.1254
-8.39125
-8.61037
-7.91403
-8.2076
-8.4656
-8.5898
-7.8916
-8.16649
-8.40688
-8.50523
-7.73656
-7.97397
-8.19004
-8.37239
-7.48568
-7.68609
-7.86116
-8.03656
-7.19435
-7.37076
-7.53557
-7.69409
-6.88299
-7.033
-7.18895
-7.34932
-6.55084
-6.65905
-6.77537
-6.90823
-6.21737
-6.27963
-6.3438
-6.41774
-5.90591
-5.92708
-5.9439
-5.96142
-5.63244
-5.62205
-5.6035
-5.58186
-5.4034
-5.37163
-5.33016
-5.28486
-5.21943
-5.17445
-5.11988
-5.0621
-5.07871
-5.02658
-4.96559
-4.90235
-4.9774
-4.92255
-4.85974
-4.79549
-4.91082
-4.85626
-4.7948
-4.73244
-4.87449
-4.82212
-4.76396
-4.70527
-4.86415
-4.81508
-4.76122
-4.70707
-4.87561
-4.83043
-4.78127
-4.73197
-4.90495
-4.86392
-4.81954
-4.77513
-4.94885
-4.91201
-4.87234
-4.83272
-5.00451
-4.97182
-4.93675
-4.90179
-5.06963
-5.04103
-5.01046
-4.98004
-5.14232
-5.11775
-5.09159
-5.06563
-5.22108
-5.20046
-5.17864
-5.15706
-5.30473
-5.28797
-5.2704
-5.25312
-5.39229
-5.37932
-5.36592
-5.35286
-5.4827
-5.47362
-5.46444
-5.45555
-5.57246
-5.56871
-5.56468
-5.5602
-5.65464
-5.65886
-5.66268
-5.66484
3.82693
4.10306
3.99552
4.00413
4.02239
4.0311
4.02917
4.01844
4.00061
3.9778
3.95215
3.92558
3.89975
3.87577
3.85436
3.83626
3.82231
3.8125
3.80775
2.05556
4.03815
3.97072
3.90956
3.90722
3.917
3.91852
3.90738
3.88635
3.85881
3.82799
3.79659
3.76662
3.73929
3.71531
3.69535
3.68007
3.66984
3.66496
-1.69936
-4.78817
3.49975
3.95987
3.83948
3.81116
3.8137
3.80277
3.77711
3.74279
3.7047
3.66664
3.63114
3.59949
3.57233
3.55014
3.53347
3.52268
3.51771
-29.3238
-38.8016
-0.998323
3.56414
3.7652
3.71863
3.71925
3.70751
3.67437
3.62994
3.58177
3.5349
3.49233
3.45544
3.42459
3.39994
3.38185
3.37053
3.3656
-71.539
-66.2685
-19.8884
1.89246
3.57269
3.63929
3.65029
3.62766
3.57995
3.52004
3.45812
3.40005
3.34897
3.30604
3.27116
3.24402
3.22458
3.21283
3.20801
-110.436
-93.4218
-48.717
-3.81006
3.11068
3.62561
3.62785
3.56767
3.49283
3.41095
3.33143
3.26003
3.19933
3.1499
3.11097
3.08151
3.06096
3.04898
3.04443
-79.9486
-110.703
-74.0893
-12.8952
2.36349
3.59243
3.6059
3.51326
3.40559
3.29729
3.19749
3.11171
3.04114
2.98538
2.94279
2.91151
2.89029
2.87838
2.87429
-25.7152
-102.159
-94.0927
-26.8569
0.811871
3.43178
3.61236
3.46831
3.30903
3.17081
3.05013
2.95079
2.87163
2.81066
2.7654
2.73312
2.71187
2.70048
2.69707
-11.0582
-57.2944
-100.986
-39.1348
-1.13009
3.30489
3.64218
3.40962
3.19504
3.02062
2.88131
2.77226
2.68777
2.62401
2.5777
2.5456
2.52516
2.51482
2.51237
-9.67267
-33.4729
-96.5872
-41.8942
-2.13644
3.30667
3.60914
3.28645
3.02471
2.82929
2.68204
2.57114
2.487
2.42411
2.37906
2.34859
2.32988
2.32115
2.31993
-9.34464
-24.3564
-84.5601
-37.7238
-1.93281
3.21279
3.38067
3.04267
2.7772
2.58448
2.44644
2.34505
2.26829
2.21066
2.16951
2.14219
2.12609
2.11946
2.11967
-9.40435
-18.6956
-68.8627
-30.4001
-1.19583
2.89131
2.92259
2.65163
2.43669
2.28192
2.17481
2.09539
2.03307
1.98482
1.94992
1.92703
1.91419
1.90994
1.91169
-9.45668
-15.9846
-55.5109
-24.3281
-0.993795
2.27316
2.29464
2.13878
2.01695
1.93306
1.87608
1.8286
1.78566
1.74926
1.72195
1.70416
1.69482
1.69299
1.69622
-8.33248
-8.48607
-36.4637
-24.6661
-1.14256
1.59862
1.65324
1.58131
1.56199
1.56494
1.56708
1.55514
1.5325
1.50787
1.48785
1.47487
1.46873
1.46902
1.47352
-8.28856
-9.2198
-15.6409
-27.4468
-1.45382
1.08298
1.12038
1.06009
1.12593
1.21245
1.26876
1.28704
1.28055
1.26467
1.2499
1.24041
1.23659
1.23839
1.24379
-8.44929
-8.55918
-3.28594
-17.7293
-7.69735
0.459144
0.733977
0.648178
0.763454
0.910376
1.00102
1.0348
1.0352
1.02248
1.00965
1.00163
0.998825
1.00127
1.00709
-8.30308
-7.85209
-6.69428
-3.41061
-0.6722
1.74367
0.695183
0.349182
0.500444
0.681591
0.775519
0.803286
0.79816
0.78182
0.767314
0.758636
0.755473
0.757664
0.76337
-7.93605
-7.95711
-7.62207
-4.34421
-0.831074
3.66594
1.05275
0.203941
0.354568
0.525761
0.588474
0.58876
0.566127
0.540404
0.521534
0.510671
0.506149
0.507407
0.512565
-7.59167
-7.87592
-7.80401
-7.89088
-7.18307
-0.521151
1.31514
0.41875
0.333282
0.418513
0.4195
0.377672
0.330713
0.293553
0.269804
0.25641
0.250248
0.25033
0.254701
-7.12269
-7.34843
-7.40963
-7.2663
-6.98673
-3.90772
-0.0187663
0.744819
0.445638
0.324075
0.231178
0.146916
0.0800207
0.0355395
0.00925868
-0.00553053
-0.0127095
-0.0135228
-0.0099385
-6.53904
-6.6231
-6.61467
-6.3158
-5.33752
-3.60098
-1.36842
0.311114
0.351417
0.114496
-0.0303836
-0.128286
-0.196219
-0.237983
-0.262109
-0.275885
-0.282685
-0.28368
-0.280675
-5.97912
-5.9088
-5.70461
-5.24691
-4.33276
-3.09054
-1.62587
-0.535145
-0.224871
-0.297708
-0.384355
-0.45159
-0.498389
-0.527082
-0.54414
-0.5541
-0.558844
-0.55914
-0.5564
-5.52997
-5.36022
-5.04673
-4.53666
-3.77911
-2.84444
-1.87964
-1.16405
-0.853287
-0.78294
-0.783259
-0.800622
-0.816525
-0.827323
-0.834266
-0.83827
-0.839595
-0.838435
-0.835644
-5.19544
-4.98222
-4.65042
-4.17537
-3.55687
-2.84994
-2.16574
-1.64749
-1.36264
-1.23299
-1.17721
-1.15163
-1.13939
-1.13265
-1.12864
-1.12572
-1.12291
-1.11984
-1.11675
-4.95629
-4.73562
-4.42273
-4.00983
-3.50983
-2.96744
-2.45436
-2.05044
-1.79054
-1.63742
-1.54721
-1.49229
-1.45943
-1.43763
-1.42339
-1.41371
-1.40669
-1.40159
-1.39802
-4.79185
-4.58149
-4.30125
-3.95169
-3.54779
-3.123
-2.72399
-2.39668
-2.16034
-1.99953
-1.8916
-1.81931
-1.77103
-1.73807
-1.71531
-1.69993
-1.68907
-1.68214
-1.67786
-4.68658
-4.49309
-4.24767
-3.95412
-3.62588
-3.28663
-2.96698
-2.69479
-2.48249
-2.32506
-2.21127
-2.1301
-2.07255
-2.03163
-2.00256
-1.98224
-1.96842
-1.96001
-1.95516
-4.62858
-4.45351
-4.24003
-3.99294
-3.7233
-3.4477
-3.18629
-2.95689
-2.76872
-2.62125
-2.50893
-2.42487
-2.3626
-2.31678
-2.28343
-2.25972
-2.24367
-2.23411
-2.22901
-4.60844
-4.45151
-4.26606
-4.05687
-3.83278
-3.60559
-3.38881
-3.19437
-3.02921
-2.89451
-2.78772
-2.7047
-2.64109
-2.59299
-2.55727
-2.53153
-2.51405
-2.50375
-2.49869
-4.61825
-4.47859
-4.31762
-4.13965
-3.95169
-3.76226
-3.5807
-3.4152
-3.27099
-3.14976
-3.0506
-2.97117
-2.90867
-2.86036
-2.82387
-2.79727
-2.77913
-2.7685
-2.76366
-4.65148
-4.52795
-4.38842
-4.23659
-4.07798
-3.9188
-3.76566
-3.62434
-3.4988
-3.39079
-3.30025
-3.226
-3.16632
-3.11935
-3.08337
-3.05688
-3.03874
-3.02814
-3.02365
-4.70291
-4.59432
-4.47367
-4.34406
-4.20979
-4.07544
-3.94575
-3.82492
-3.71597
-3.62053
-3.53899
-3.47085
-3.41513
-3.37063
-3.33613
-3.31052
-3.29292
-3.28267
-3.2786
-4.76856
-4.67375
-4.56987
-4.45941
-4.34571
-4.23218
-4.12228
-4.01909
-3.92496
-3.84132
-3.76877
-3.70723
-3.6562
-3.61495
-3.58265
-3.55851
-3.54188
-3.53223
-3.52863
-4.84543
-4.76337
-4.67449
-4.58077
-4.48478
-4.38906
-4.29616
-4.20838
-4.12758
-4.05497
-3.99122
-3.93648
-3.89057
-3.85309
-3.82351
-3.80129
-3.78595
-3.77708
-3.77397
-4.93121
-4.86101
-4.7857
-4.7068
-4.62631
-4.54609
-4.46806
-4.39395
-4.32522
-4.26291
-4.20766
-4.15976
-4.11921
-4.08584
-4.05934
-4.03935
-4.02554
-4.01759
-4.01497
-5.0241
-4.965
-4.90208
-4.8365
-4.76976
-4.70328
-4.63846
-4.57665
-4.51897
-4.4663
-4.41923
-4.3781
-4.34303
-4.31397
-4.29078
-4.27324
-4.26111
-4.25418
-4.25205
-5.12263
-5.074
-5.02254
-4.96908
-4.91476
-4.86063
-4.80775
-4.75714
-4.70968
-4.66609
-4.62689
-4.59242
-4.56285
-4.53823
-4.51849
-4.50352
-4.49319
-4.48732
-4.48565
-5.22564
-5.18699
-5.14622
-5.10394
-5.061
-5.01817
-4.97624
-4.93598
-4.89808
-4.86311
-4.83149
-4.80355
-4.77946
-4.75931
-4.74311
-4.73079
-4.72229
-4.7175
-4.71626
-5.3322
-5.30315
-5.2725
-5.24067
-5.2083
-5.17596
-5.14422
-5.11367
-5.0848
-5.05806
-5.03379
-5.01223
-4.99357
-4.9779
-4.96524
-4.9556
-4.94894
-4.94522
-4.94436
-5.44156
-5.42189
-5.40095
-5.37905
-5.35666
-5.33421
-5.31211
-5.29076
-5.27052
-5.2517
-5.23455
-5.21925
-5.20594
-5.19469
-5.18555
-5.17855
-5.17368
-5.17098
-5.17045
-5.55287
-5.54274
-5.53137
-5.51907
-5.50629
-5.49333
-5.48047
-5.46798
-5.45606
-5.44492
-5.43469
-5.42549
-5.4174
-5.41049
-5.40477
-5.40029
-5.3971
-5.39527
-5.39489
-5.66669
-5.66582
-5.66333
-5.66005
-5.65636
-5.65245
-5.64846
-5.64449
-5.64063
-5.63696
-5.63352
-5.63036
-5.62751
-5.625
-5.62283
-5.62104
-5.61964
-5.61875
-5.61848
)
;

boundaryField
{
    leftWall
    {
        type            calculated;
        value           nonuniform List<scalar> 
50
(
1606.12
1545.76
1484.35
1421.96
1358.54
1294.09
1228.63
1162.18
1056.75
909.262
758.504
605.506
451.406
296.455
147.834
43.9786
-2.97651
-3.46315
-3.46269
-3.55343
-3.65962
-3.78687
-3.90978
-4.02665
-4.13409
-4.23095
-4.31872
-4.39915
-4.47392
-4.54444
-4.61188
-4.67719
-4.74106
-4.80398
-4.86622
-4.92797
-4.98933
-5.05038
-5.11123
-5.17201
-5.23282
-5.2938
-5.35507
-5.41669
-5.47831
-5.53951
-5.60154
-5.66563
-5.72227
-5.75359
)
;
    }
    rightWall
    {
        type            calculated;
        value           nonuniform List<scalar> 
50
(
4.34511
4.28516
4.22471
4.16339
4.10125
4.03829
3.97451
3.90993
3.80775
3.66496
3.51771
3.3656
3.20801
3.04443
2.87429
2.69707
2.51237
2.31993
2.11967
1.91169
1.69622
1.47352
1.24379
1.00709
0.76337
0.512565
0.254701
-0.0099385
-0.280675
-0.5564
-0.835644
-1.11675
-1.39802
-1.67786
-1.95516
-2.22901
-2.49869
-2.76366
-3.02365
-3.2786
-3.52863
-3.77397
-4.01497
-4.25205
-4.48565
-4.71626
-4.94436
-5.17045
-5.39489
-5.61848
)
;
    }
    lowerWall
    {
        type            calculated;
        value           nonuniform List<scalar> 
62
(
1635.54
1643.49
1658.65
1676.09
1691.87
1705.47
1717.06
1726.84
1734.82
1740.9
1745.17
1748.03
1750.56
1754.98
1765.27
1788.12
1832.57
1906.72
2013.49
2140.72
2260.23
2314.31
2375.12
2348.51
2298.61
2273.9
2254.74
2210.85
2112.5
1916.28
1566.94
-259.039
-141.484
-19.1071
-13.84
4.53864
4.48068
4.41892
4.3515
4.27393
4.1794
4.05916
3.88411
4.56807
4.56707
4.56616
4.56284
4.56181
4.56072
4.55673
4.54823
4.53502
4.51779
4.49784
4.47659
4.45528
4.43497
4.41658
4.40088
4.38848
4.37982
4.37454
)
;
    }
    atmosphere
    {
        type            calculated;
        value           nonuniform List<scalar> 
46
(
-5.78402
-5.82314
-5.81634
-5.81207
-5.80826
-5.80447
-5.80049
-5.7962
-5.79156
-5.78658
-5.78128
-5.77575
-5.77007
-5.76434
-5.75866
-5.75314
-5.7479
-5.74305
-5.73873
-5.73506
-5.73217
-5.7302
-5.72922
-5.72904
-5.72904
-5.72904
-5.72904
-5.72904
-5.72904
-5.72904
-5.72904
-5.72904
-5.72904
-5.72904
-5.72904
-5.72904
-5.72904
-5.72904
-5.72904
-5.72904
-5.72904
-5.72904
-5.72904
-5.72904
-5.72904
-5.72904
)
;
    }
    defaultFaces
    {
        type            empty;
    }
}


// ************************************************************************* //
