/*--------------------------------*- C++ -*----------------------------------*\
  =========                 |
  \\      /  F ield         | OpenFOAM: The Open Source CFD Toolbox
   \\    /   O peration     | Website:  https://openfoam.org
    \\  /    A nd           | Version:  9
     \\/     M anipulation  |
\*---------------------------------------------------------------------------*/
FoamFile
{
    format      ascii;
    class       surfaceScalarField;
    location    "0.25";
    object      phi;
}
// * * * * * * * * * * * * * * * * * * * * * * * * * * * * * * * * * * * * * //

dimensions      [0 3 -1 0 0 0 0];

internalField   nonuniform List<scalar> 
4432
(
-3.06757e-05
3.06757e-05
-7.44912e-05
4.38156e-05
-7.6032e-05
1.54084e-06
-6.60896e-05
-9.94242e-06
-7.54957e-05
9.40605e-06
-8.55867e-05
1.00909e-05
-9.29517e-05
7.36507e-06
-9.64667e-05
3.51509e-06
-9.61201e-05
-3.46702e-07
-9.31139e-05
-3.00607e-06
-8.81072e-05
-5.0067e-06
-8.13218e-05
-6.78539e-06
-7.2783e-05
-8.53892e-06
-6.22495e-05
-1.05334e-05
-4.92378e-05
-1.30117e-05
-3.30474e-05
-1.61903e-05
-1.29688e-05
-2.00788e-05
1.06251e-05
-2.35935e-05
3.41401e-05
-2.3515e-05
4.99797e-05
-1.58395e-05
4.79271e-05
2.0524e-06
2.40932e-05
2.38343e-05
2.40933e-05
-2.75059e-05
5.81816e-05
-5.28389e-05
6.91485e-05
-7.18339e-05
2.05359e-05
-8.50442e-05
3.26763e-06
-9.5017e-05
1.9379e-05
-0.000102456
1.75295e-05
-0.000106147
1.10567e-05
-0.000107142
4.50973e-06
-0.000106127
-1.36184e-06
-0.000103055
-6.07812e-06
-9.80102e-05
-1.00512e-05
-9.12272e-05
-1.35683e-05
-8.2782e-05
-1.69842e-05
-7.25598e-05
-2.07555e-05
-6.02034e-05
-2.53682e-05
-4.51598e-05
-3.12335e-05
-2.69882e-05
-3.82505e-05
-6.07773e-06
-4.45038e-05
1.51089e-05
-4.47017e-05
3.12414e-05
-3.19714e-05
3.64255e-05
-3.13237e-06
2.56423e-05
3.46177e-05
4.97357e-05
-2.25747e-05
8.07563e-05
-4.13766e-05
8.79504e-05
-6.23891e-05
4.15483e-05
-8.29142e-05
2.37927e-05
-9.51523e-05
3.1617e-05
-0.000103331
2.57081e-05
-0.000108247
1.59722e-05
-0.000110386
6.64887e-06
-0.000110081
-1.66648e-06
-0.000107486
-8.67292e-06
-0.000102908
-1.46294e-05
-9.66246e-05
-1.98515e-05
-8.87994e-05
-2.48094e-05
-7.94533e-05
-3.01016e-05
-6.84097e-05
-3.64118e-05
-5.53026e-05
-4.43404e-05
-3.97514e-05
-5.38017e-05
-2.1829e-05
-6.24262e-05
-3.0122e-06
-6.35186e-05
1.27595e-05
-4.77426e-05
2.03807e-05
-1.07538e-05
1.66372e-05
3.83611e-05
6.6373e-05
-2.0376e-05
0.000101132
-3.40695e-05
0.000101644
-5.49343e-05
6.2413e-05
-7.83463e-05
4.72046e-05
-9.26796e-05
4.59503e-05
-0.000102321
3.53498e-05
-0.000108492
2.2143e-05
-0.000111607
9.76354e-06
-0.000112041
-1.23236e-06
-0.00011011
-1.06032e-05
-0.000106185
-1.85544e-05
-0.000100597
-2.544e-05
-9.3605e-05
-3.18012e-05
-8.53791e-05
-3.83276e-05
-7.59579e-05
-4.5833e-05
-6.52147e-05
-5.50836e-05
-5.2857e-05
-6.61594e-05
-3.85256e-05
-7.67575e-05
-2.23515e-05
-7.96929e-05
-6.67375e-06
-6.34199e-05
3.82532e-06
-2.1253e-05
6.81724e-06
3.5369e-05
7.31906e-05
-1.79938e-05
0.000119126
-2.74051e-05
0.000111055
-4.88969e-05
8.39048e-05
-7.38052e-05
7.21128e-05
-8.95876e-05
6.17326e-05
-0.000100424
4.61861e-05
-0.000107581
2.93004e-05
-0.00011155
1.37322e-05
-0.000112746
-3.58541e-08
-0.000111548
-1.18015e-05
-0.000108354
-2.17484e-05
-0.000103545
-3.02493e-05
-9.74652e-05
-3.78809e-05
-9.04205e-05
-4.53723e-05
-8.26631e-05
-5.35905e-05
-7.43505e-05
-6.3396e-05
-6.54234e-05
-7.50865e-05
-5.53149e-05
-8.68658e-05
-4.28448e-05
-9.21634e-05
-2.76898e-05
-7.85746e-05
-1.30493e-05
-3.58934e-05
-2.80996e-06
2.51295e-05
7.0381e-05
-1.52235e-05
0.00013435
-2.35114e-05
0.000119343
-4.60843e-05
0.000106478
-6.99379e-05
9.59664e-05
-8.6196e-05
7.79906e-05
-9.78157e-05
5.78059e-05
-0.000105755
3.72399e-05
-0.000110493
1.847e-05
-0.000112439
1.90966e-06
-0.000111984
-1.22559e-05
-0.000109543
-2.41892e-05
-0.000105533
-3.426e-05
-0.000100361
-4.30525e-05
-9.44358e-05
-5.12978e-05
-8.81746e-05
-5.98518e-05
-8.19953e-05
-6.95752e-05
-7.61806e-05
-8.09013e-05
-7.03661e-05
-9.26802e-05
-6.2651e-05
-9.98785e-05
-4.98661e-05
-9.13592e-05
-3.13046e-05
-5.44547e-05
-1.357e-05
7.39463e-06
5.68112e-05
-1.28668e-05
0.000147216
-2.49318e-05
0.000131408
-4.62634e-05
0.000127809
-6.66852e-05
0.000116388
-8.25569e-05
9.38622e-05
-9.45928e-05
6.98419e-05
-0.000103155
4.58025e-05
-0.000108595
2.39093e-05
-0.000111265
4.57931e-06
-0.000111545
-1.19752e-05
-0.000109854
-2.58806e-05
-0.00010663
-3.74839e-05
-0.000102324
-4.7358e-05
-9.74062e-05
-5.62158e-05
-9.23893e-05
-6.48689e-05
-8.7851e-05
-7.41135e-05
-8.4359e-05
-8.43932e-05
-8.20194e-05
-9.50197e-05
-7.9254e-05
-0.000102644
-7.14766e-05
-9.91364e-05
-5.28844e-05
-7.30467e-05
-2.44263e-05
-2.10638e-05
3.23851e-05
-1.1178e-05
0.000158394
-2.60692e-05
0.000146299
-4.57601e-05
0.0001475
-6.33439e-05
0.000133972
-7.85793e-05
0.000109098
-9.07794e-05
8.2042e-05
-9.98587e-05
5.48818e-05
-0.000105964
3.00141e-05
-0.000109353
7.96841e-06
-0.000110369
-1.09584e-05
-0.000109425
-2.68249e-05
-0.00010697
-3.99389e-05
-0.00010348
-5.08481e-05
-9.9455e-05
-6.02408e-05
-9.5445e-05
-6.8879e-05
-9.20791e-05
-7.74794e-05
-9.00391e-05
-8.64331e-05
-8.97758e-05
-9.52828e-05
-9.05842e-05
-0.000101836
-8.90032e-05
-0.000100717
-7.8065e-05
-8.39846e-05
-4.862e-05
-5.05089e-05
-1.62349e-05
-7.96757e-07
7.96757e-07
-8.1648e-06
7.36796e-06
-1.65858e-05
8.4208e-06
-2.27454e-05
6.15958e-06
-2.64824e-05
3.73694e-06
-2.80756e-05
1.59314e-06
-2.80111e-05
-6.43715e-08
-2.68957e-05
-1.11554e-06
-2.51139e-05
-1.78156e-06
-2.28625e-05
-2.25161e-06
-2.02665e-05
-2.59595e-06
-1.74132e-05
-2.85326e-06
-1.43715e-05
-3.04161e-06
-1.12053e-05
-3.16619e-06
-7.98608e-06
-3.21919e-06
-4.81951e-06
-3.16647e-06
-1.95005e-06
-2.86945e-06
-5.92874e-08
-1.89048e-06
-5.94123e-08
-5.18708e-06
5.98362e-06
-1.41224e-05
1.63032e-05
-2.18197e-05
1.61179e-05
-2.65002e-05
1.084e-05
-2.87743e-05
6.01114e-06
-2.93799e-05
2.1986e-06
-2.89332e-05
-5.10808e-07
-2.77047e-05
-2.34433e-06
-2.58777e-05
-3.60834e-06
-2.36183e-05
-4.51106e-06
-2.10429e-05
-5.17115e-06
-1.8237e-05
-5.65915e-06
-1.52682e-05
-6.01041e-06
-1.21987e-05
-6.23565e-06
-9.09732e-06
-6.32051e-06
-6.05723e-06
-6.20615e-06
-3.22974e-06
-5.69698e-06
-9.21296e-07
-4.19854e-06
-9.80804e-07
-9.09419e-06
1.50776e-05
-1.75149e-05
2.47237e-05
-2.38516e-05
2.24545e-05
-2.75911e-05
1.45795e-05
-2.93755e-05
7.79558e-06
-2.97842e-05
2.60706e-06
-2.92165e-05
-1.07823e-06
-2.79181e-05
-3.6429e-06
-2.60781e-05
-5.44796e-06
-2.38465e-05
-6.74282e-06
-2.13294e-05
-7.68822e-06
-1.8607e-05
-8.38169e-06
-1.57428e-05
-8.87452e-06
-1.27947e-05
-9.18359e-06
-9.82413e-06
-9.29112e-06
-6.90631e-06
-9.12378e-06
-4.14379e-06
-8.45973e-06
-1.66913e-06
-6.67293e-06
-2.65001e-06
-1.26005e-05
2.7678e-05
-2.06743e-05
3.27974e-05
-2.59393e-05
2.77194e-05
-2.8899e-05
1.75391e-05
-3.01946e-05
9.0912e-06
-3.03135e-05
2.72584e-06
-2.95659e-05
-1.82566e-06
-2.8171e-05
-5.03795e-06
-2.62975e-05
-7.32139e-06
-2.40752e-05
-8.96519e-06
-2.15993e-05
-1.0164e-05
-1.89423e-05
-1.10387e-05
-1.61619e-05
-1.16549e-05
-1.33094e-05
-1.20361e-05
-1.04355e-05
-1.21651e-05
-7.59379e-06
-1.19654e-05
-4.83588e-06
-1.12178e-05
-2.18681e-06
-9.32178e-06
-4.83689e-06
-1.6449e-05
4.41269e-05
-2.4235e-05
4.05832e-05
-2.84404e-05
3.19248e-05
-3.05674e-05
1.96659e-05
-3.12904e-05
9.81427e-06
-3.10417e-05
2.47704e-06
-3.0066e-05
-2.80132e-06
-2.85412e-05
-6.56278e-06
-2.66066e-05
-9.25592e-06
-2.43701e-05
-1.12017e-05
-2.19132e-05
-1.2621e-05
-1.92987e-05
-1.36532e-05
-1.65768e-05
-1.43769e-05
-1.37899e-05
-1.4823e-05
-1.0976e-05
-1.49791e-05
-8.16543e-06
-1.47758e-05
-5.3657e-06
-1.40177e-05
-2.53518e-06
-1.21521e-05
-7.37213e-06
-2.12972e-05
6.54241e-05
-2.85299e-05
4.78157e-05
-3.14333e-05
3.48281e-05
-3.25892e-05
2.08218e-05
-3.26489e-05
9.874e-06
-3.19698e-05
1.79774e-06
-3.07238e-05
-4.04726e-06
-2.90379e-05
-8.24865e-06
-2.7016e-05
-1.12777e-05
-2.47421e-05
-1.34757e-05
-2.22819e-05
-1.50811e-05
-1.96872e-05
-1.6248e-05
-1.69985e-05
-1.70656e-05
-1.42485e-05
-1.7573e-05
-1.14615e-05
-1.77662e-05
-8.64618e-06
-1.7591e-05
-5.77707e-06
-1.68868e-05
-2.77905e-06
-1.515e-05
-1.01512e-05
-2.75899e-05
9.30139e-05
-3.38071e-05
5.40326e-05
-3.49324e-05
3.59533e-05
-3.49289e-05
2.08182e-05
-3.42361e-05
9.18117e-06
-3.30747e-05
6.36288e-07
-3.15237e-05
-5.59822e-06
-2.965e-05
-1.01223e-05
-2.75181e-05
-1.34096e-05
-2.5186e-05
-1.58078e-05
-2.27022e-05
-1.75649e-05
-2.0106e-05
-1.88443e-05
-1.74275e-05
-1.97441e-05
-1.46888e-05
-2.03117e-05
-1.19007e-05
-2.05543e-05
-9.05399e-06
-2.04377e-05
-6.10163e-06
-1.98393e-05
-2.96123e-06
-1.82904e-05
-1.31124e-05
-3.58753e-05
0.000128889
-3.99835e-05
5.81407e-05
-3.88681e-05
3.48378e-05
-3.75052e-05
1.94552e-05
-3.59947e-05
7.67069e-06
-3.43166e-05
-1.04187e-06
-3.24362e-05
-7.4786e-06
-3.03541e-05
-1.22044e-05
-2.80935e-05
-1.56701e-05
-2.56854e-05
-1.82159e-05
-2.31602e-05
-2.00901e-05
-2.05437e-05
-2.14609e-05
-1.78553e-05
-2.24326e-05
-1.51062e-05
-2.30608e-05
-1.22953e-05
-2.33652e-05
-9.39904e-06
-2.3334e-05
-6.35819e-06
-2.28802e-05
-3.09322e-06
-2.15553e-05
-1.62056e-05
-2.09954e-05
0.00017939
-5.3118e-05
0.000178422
-8.86517e-05
0.000183034
-0.00012185
0.00016717
-0.000152851
0.000140099
-0.000179104
0.000108295
-0.000200006
7.57842e-05
-0.000215176
4.51837e-05
-0.000224803
1.75961e-05
-0.000229424
-6.33826e-06
-0.000229844
-2.64048e-05
-0.000227036
-4.27468e-05
-0.000222062
-5.5822e-05
-0.000216018
-6.62853e-05
-0.000210051
-7.48457e-05
-0.000205421
-8.21089e-05
-0.000203475
-8.83796e-05
-0.000205322
-9.34348e-05
-0.000211014
-9.61437e-05
-0.000217917
-9.38149e-05
-0.000219038
-8.28634e-05
-0.000207002
-6.25451e-05
-3.59567e-05
-0.00018728
-1.92261e-05
0.000198616
-4.57936e-05
0.000204989
-7.28241e-05
0.000210064
-0.000103077
0.000197423
-0.00013329
0.000170311
-0.000160537
0.000135541
-0.000183645
9.88926e-05
-0.000201824
6.33623e-05
-0.00021476
3.05329e-05
-0.000222651
1.55219e-06
-0.000226137
-2.29185e-05
-0.00022616
-4.27237e-05
-0.000223813
-5.81689e-05
-0.000220215
-6.9884e-05
-0.000216444
-7.86166e-05
-0.00021353
-8.50222e-05
-0.000212421
-8.94891e-05
-0.000213861
-9.19952e-05
-0.000218098
-9.19058e-05
-0.000224115
-8.77976e-05
-0.000228865
-7.81134e-05
-0.000228636
-6.27742e-05
-4.32481e-05
-0.000221345
-1.72944e-05
0.00021591
-3.60133e-05
0.000223708
-5.54301e-05
0.000229481
-8.45742e-05
0.000226567
-0.000114635
0.000200373
-0.000142771
0.000163676
-0.000167777
0.000123899
-0.00018862
8.42045e-05
-0.000204604
4.6517e-05
-0.000215561
1.25095e-05
-0.000221889
-1.65905e-05
-0.000224411
-4.02017e-05
-0.000224193
-5.83871e-05
-0.000222364
-7.1713e-05
-0.000219968
-8.10123e-05
-0.000217887
-8.71038e-05
-0.000216798
-9.05782e-05
-0.000217114
-9.16782e-05
-0.000218804
-9.0216e-05
-0.000221013
-8.5589e-05
-0.000221944
-7.71824e-05
-0.000219616
-6.51019e-05
-5.05024e-05
-0.000212362
-1.56723e-05
0.000231583
-2.98035e-05
0.000237839
-4.32001e-05
0.000242877
-6.95403e-05
0.000252907
-9.79984e-05
0.000228831
-0.000126049
0.000191727
-0.000152241
0.000150092
-0.000175182
0.000107145
-0.000193799
6.51337e-05
-0.000207568
2.62786e-05
-0.00021659
-7.56781e-06
-0.000221475
-3.53169e-05
-0.00022317
-5.66928e-05
-0.000222773
-7.21098e-05
-0.000221328
-8.24567e-05
-0.000219673
-8.87588e-05
-0.000218379
-9.18719e-05
-0.000217729
-9.23286e-05
-0.000217628
-9.03166e-05
-0.000217455
-8.57622e-05
-0.000216057
-7.85798e-05
-0.000212116
-6.90428e-05
-5.79196e-05
-0.000204699
-1.4378e-05
0.000245961
-2.73049e-05
0.000250766
-3.84403e-05
0.000254013
-5.92788e-05
0.000273746
-8.389e-05
0.000253442
-0.000110633
0.00021847
-0.000137211
0.00017667
-0.00016161
0.000131544
-0.000182338
8.58616e-05
-0.000198552
4.24922e-05
-0.000210063
3.94368e-06
-0.000217219
-2.81615e-05
-0.000220761
-5.31511e-05
-0.000221677
-7.11937e-05
-0.000220998
-8.3135e-05
-0.000219583
-9.01744e-05
-0.000217996
-9.34587e-05
-0.000216496
-9.38287e-05
-0.000215021
-9.17916e-05
-0.000213155
-8.76274e-05
-0.000210171
-8.15639e-05
-0.000205238
-7.39757e-05
-6.54599e-05
-0.000197698
-1.32398e-05
0.0002592
-2.56776e-05
0.000263204
-3.85922e-05
0.000266927
-5.19606e-05
0.000287114
-7.16058e-05
0.000273087
-9.64274e-05
0.000243291
-0.000122854
0.000203097
-0.00014817
0.00015686
-0.000170464
0.000108156
-0.000188654
6.06814e-05
-0.000202335
1.76254e-05
-0.000211612
-1.88845e-05
-0.000216971
-4.77919e-05
-0.000219203
-6.89625e-05
-0.000219266
-8.3072e-05
-0.000218053
-9.1387e-05
-0.000216195
-9.53171e-05
-0.000214002
-9.60215e-05
-0.000211495
-9.42983e-05
-0.000208435
-9.06873e-05
-0.000204381
-8.5618e-05
-0.000198818
-7.95388e-05
-7.29537e-05
-0.000191324
-1.21078e-05
0.000271308
-2.39355e-05
0.000275032
-3.78217e-05
0.000280814
-4.40563e-05
0.000293349
-6.02286e-05
0.00028926
-8.33077e-05
0.00026637
-0.000109319
0.000229108
-0.000135135
0.000182675
-0.000158482
0.000131504
-0.000178123
8.03216e-05
-0.000193564
3.3067e-05
-0.000204728
-7.72162e-06
-0.000211838
-4.06812e-05
-0.000215431
-6.53701e-05
-0.000216311
-8.21914e-05
-0.000215371
-9.23267e-05
-0.000213332
-9.73566e-05
-0.00021061
-9.8743e-05
-0.000207338
-9.75701e-05
-0.000203429
-9.45973e-05
-0.000198641
-9.04056e-05
-0.000192673
-8.55067e-05
-8.03623e-05
-0.000185264
-1.101e-05
0.000282318
-2.19108e-05
0.000285933
-3.23866e-05
0.00029129
-3.75528e-05
0.000298515
-5.1085e-05
0.000302792
-7.16541e-05
0.000286939
-9.67429e-05
0.000254197
-0.000122689
0.000208622
-0.000146636
0.00015545
-0.00016721
0.000100896
-0.00018397
4.98263e-05
-0.000196717
5.02571e-06
-0.000205453
-3.19455e-05
-0.000210438
-6.03847e-05
-0.000212259
-8.0371e-05
-0.000211734
-9.28515e-05
-0.000209656
-9.94339e-05
-0.000206574
-0.000101825
-0.000202752
-0.000101392
-0.00019824
-9.91099e-05
-0.000192949
-9.56961e-05
-0.000186727
-9.17293e-05
-8.76649e-05
-0.000179424
-1.01714e-05
0.00029249
-2.04331e-05
0.000296194
-2.88965e-05
0.000299753
-3.5653e-05
0.000305272
-4.50239e-05
0.000312163
-6.13664e-05
0.000303282
-8.48267e-05
0.000277657
-0.000110752
0.000234547
-0.000135006
0.000179705
-0.000156064
0.000121954
-0.000173729
6.74911e-05
-0.000187754
1.90503e-05
-0.00019795
-2.1749e-05
-0.000204321
-5.40131e-05
-0.000207204
-7.74886e-05
-0.000207272
-9.27838e-05
-0.000205336
-0.000101369
-0.00020207
-0.000105091
-0.00019788
-0.000105582
-0.00019295
-0.00010404
-0.000187319
-0.000101327
-0.000180944
-9.81042e-05
-9.48513e-05
-0.000173758
-9.6024e-06
0.000302092
-1.93358e-05
0.000305928
-2.76825e-05
0.0003081
-3.48375e-05
0.000312427
-4.07669e-05
0.000318092
-5.24703e-05
0.000314985
-7.30621e-05
0.000298249
-9.89979e-05
0.000260482
-0.000123518
0.000204225
-0.000144705
0.000143141
-0.000162946
8.57323e-05
-0.000177998
3.41019e-05
-0.000189491
-1.02557e-05
-0.000197205
-4.62995e-05
-0.000201237
-7.34563e-05
-0.000202074
-9.19471e-05
-0.000200477
-0.000102966
-0.000197208
-0.000108361
-0.000192815
-0.000109974
-0.000187615
-0.000109239
-0.000181762
-0.000107181
-0.000175305
-0.000104561
-0.000101917
-0.000168239
-9.23408e-06
0.000311326
-1.86014e-05
0.000315295
-2.69543e-05
0.000316452
-3.37359e-05
0.000319208
-3.8318e-05
0.000322674
-4.59765e-05
0.000322644
-6.17076e-05
0.00031398
-8.66394e-05
0.000285414
-0.000111768
0.000229353
-0.000132938
0.000164311
-0.000151629
0.000104424
-0.000167587
5.00596e-05
-0.000180252
2.40999e-06
-0.00018924
-3.73116e-05
-0.000194459
-6.82369e-05
-0.000196205
-9.02012e-05
-0.000195135
-0.000104036
-0.000192043
-0.000111453
-0.000187601
-0.000114417
-0.000182256
-0.000114584
-0.000176271
-0.000113166
-0.000169783
-0.00011105
-0.00010886
-0.000162839
-9.02847e-06
0.000320354
-1.81627e-05
0.000324429
-2.64484e-05
0.000324738
-3.29605e-05
0.00032572
-3.75635e-05
0.000327277
-4.23803e-05
0.00032746
-5.20487e-05
0.000323649
-7.23456e-05
0.000305711
-9.87847e-05
0.000255792
-0.000120361
0.000185887
-0.000139741
0.000123803
-0.000156654
6.69732e-05
-0.000170426
1.61812e-05
-0.000180605
-2.71323e-05
-0.000186992
-6.18494e-05
-0.00018973
-8.7464e-05
-0.000189338
-0.000104428
-0.000186589
-0.000114201
-0.00018224
-0.000118766
-0.000176859
-0.000119965
-0.000170817
-0.000119208
-0.000164334
-0.000117533
-0.000115682
-0.000157512
-8.85926e-06
0.000329214
-1.76952e-05
0.000333265
-2.57605e-05
0.000332803
-3.23291e-05
0.000332289
-3.69887e-05
0.000331937
-4.04989e-05
0.000330971
-4.49501e-05
0.0003281
-5.77978e-05
0.000318558
-8.43815e-05
0.000282376
-0.000106914
0.000208419
-0.000127462
0.000144351
-0.000145441
8.49522e-05
-0.000160248
3.09885e-05
-0.000171501
-1.58796e-05
-0.000178979
-5.43712e-05
-0.000182719
-8.37237e-05
-0.000183104
-0.000104043
-0.000180833
-0.000116472
-0.000176702
-0.000122897
-0.000171382
-0.000125285
-0.000165347
-0.000125243
-0.0001589
-0.00012398
-0.000122381
-0.000152201
-8.58887e-06
0.000337803
-1.694e-05
0.000341616
-2.45885e-05
0.000340452
-3.08725e-05
0.000338573
-3.55198e-05
0.000336584
-3.86623e-05
0.000334113
-4.13435e-05
0.000330781
-4.75111e-05
0.000324726
-6.95398e-05
0.000304404
-9.35438e-05
0.000232423
-0.000115437
0.000166245
-0.000134366
0.000103881
-0.000150018
4.66406e-05
-0.000162147
-3.75052e-06
-0.000170571
-4.59475e-05
-0.000175255
-7.90392e-05
-0.000176452
-0.000102846
-0.000174752
-0.000118172
-0.000170943
-0.000126706
-0.000165768
-0.00013046
-0.000159796
-0.000131214
-0.000153413
-0.000130363
-0.000128954
-0.00014684
-8.1666e-06
0.000345969
-1.58448e-05
0.000349294
-2.27943e-05
0.000347402
-2.86364e-05
0.000344415
-3.30453e-05
0.000340993
-3.62708e-05
0.000337339
-3.87871e-05
0.000333297
-4.24091e-05
0.000328348
-5.65885e-05
0.000318584
-8.20197e-05
0.000257855
-0.000104544
0.000188769
-0.000123844
0.000123182
-0.000139979
6.27754e-05
-0.000152718
8.9881e-06
-0.000161898
-3.67669e-05
-0.000167418
-7.35198e-05
-0.000169404
-0.00010086
-0.000168323
-0.000119253
-0.000164912
-0.000130118
-0.000159952
-0.00013542
-0.000154094
-0.000137073
-0.000147803
-0.000136654
-0.000135395
-0.000141362
-7.62934e-06
0.000353599
-1.45335e-05
0.000356199
-2.06596e-05
0.000353528
-2.58733e-05
0.000349629
-3.00197e-05
0.000345139
-3.31769e-05
0.000340496
-3.5855e-05
0.000335976
-3.86945e-05
0.000331188
-4.59824e-05
0.000325872
-7.27172e-05
0.000284589
-9.45878e-05
0.000210639
-0.000113805
0.000142399
-0.000130123
7.90936e-05
-0.000143257
2.21222e-05
-0.00015303
-2.69943e-05
-0.000159267
-6.72824e-05
-0.000161989
-9.81386e-05
-0.000161535
-0.000119707
-0.000158567
-0.000133086
-0.000153876
-0.000140111
-0.000148174
-0.000142774
-0.000142002
-0.000142826
-0.000141693
-0.000135704
-7.03015e-06
0.000360629
-1.31669e-05
0.000362335
-1.84862e-05
0.000358847
-2.30348e-05
0.000354177
-2.68205e-05
0.000348925
-2.98922e-05
0.000343568
-3.24924e-05
0.000338576
-3.51261e-05
0.000333821
-3.82547e-05
0.000329
-6.16839e-05
0.000308018
-8.41236e-05
0.000233079
-0.000103762
0.000162037
-0.000120295
9.56272e-05
-0.00013376
3.55866e-05
-0.000144014
-1.67398e-05
-0.000150862
-6.04348e-05
-0.000154241
-9.47597e-05
-0.000154387
-0.00011956
-0.000151878
-0.000135595
-0.00014749
-0.000144499
-0.00014198
-0.000148284
-0.000135953
-0.000148854
-0.000147831
-0.000129815
-6.4048e-06
0.000367033
-1.18385e-05
0.000367769
-1.6447e-05
0.000363455
-2.04007e-05
0.000358131
-2.3794e-05
0.000352318
-2.67025e-05
0.000346476
-2.91958e-05
0.000341069
-3.1644e-05
0.000336269
-3.41443e-05
0.0003315
-4.86703e-05
0.000322545
-7.36975e-05
0.000258106
-9.3898e-05
0.000182238
-0.000110549
0.000112279
-0.000124275
4.93127e-05
-0.000134914
-6.10172e-06
-0.000142262
-5.3086e-05
-0.000146205
-9.0817e-05
-0.000146895
-0.00011887
-0.000144831
-0.00013766
-0.00014076
-0.00014857
-0.000135466
-0.000153578
-0.000129608
-0.000154711
-0.000153788
-0.000123651
-5.77908e-06
0.000372813
-1.0587e-05
0.000372577
-1.45992e-05
0.000367467
-1.8049e-05
0.000361581
-2.10846e-05
0.000355354
-2.37746e-05
0.000349166
-2.61467e-05
0.000343441
-2.83512e-05
0.000338474
-3.06696e-05
0.000333819
-3.71492e-05
0.000329024
-6.48152e-05
0.000285772
-8.42862e-05
0.000201709
-0.000100889
0.000128882
-0.000114815
6.32384e-05
-0.000125764
4.84737e-06
-0.000133522
-4.53279e-05
-0.000137931
-8.6408e-05
-0.000139088
-0.000117714
-0.000137426
-0.000139321
-0.000133663
-0.000152333
-0.000128597
-0.000158643
-0.00012293
-0.000160378
-0.000159542
-0.000117177
-5.17174e-06
0.000377984
-9.42953e-06
0.000376835
-1.29479e-05
0.000370986
-1.59795e-05
0.000364613
-1.86973e-05
0.000358072
-2.11728e-05
0.000351642
-2.3412e-05
0.00034568
-2.54478e-05
0.00034051
-2.75708e-05
0.000335942
-2.99625e-05
0.000331416
-5.39339e-05
0.000309744
-7.37498e-05
0.000221524
-9.10418e-05
0.000146173
-0.000105347
7.75433e-05
-0.00011662
1.61201e-05
-0.000124714
-3.72341e-05
-0.000129481
-8.16409e-05
-0.000131002
-0.000116192
-0.000129676
-0.000140647
-0.000126193
-0.000155817
-0.000121355
-0.000163481
-0.000115895
-0.000165838
-0.000165069
-0.000110369
-4.59369e-06
0.000382578
-8.36967e-06
0.000380611
-1.14795e-05
0.000374096
-1.41677e-05
0.000367301
-1.66056e-05
0.00036051
-1.88743e-05
0.00035391
-2.09659e-05
0.000347772
-2.28641e-05
0.000342408
-2.47713e-05
0.000337849
-2.66695e-05
0.000333314
-4.14597e-05
0.000324534
-6.30878e-05
0.000243153
-8.14703e-05
0.000164556
-9.61482e-05
9.22211e-05
-0.000107648
2.76202e-05
-0.000115943
-2.89392e-05
-0.000120924
-7.66607e-05
-0.000122681
-0.000114435
-0.000121599
-0.000141729
-0.000118347
-0.000159069
-0.000113726
-0.000168102
-0.000108487
-0.000171077
-0.000170342
-0.000103213
-4.05386e-06
0.000386632
-7.40852e-06
0.000383966
-1.01779e-05
0.000376865
-1.25833e-05
0.000369706
-1.47817e-05
0.000362708
-1.68542e-05
0.000355983
-1.87936e-05
0.000349711
-2.05609e-05
0.000344175
-2.22393e-05
0.000339527
-2.40349e-05
0.00033511
-3.04316e-05
0.00033093
-5.49471e-05
0.000267668
-7.33221e-05
0.000182931
-8.76321e-05
0.000106531
-9.89918e-05
3.898e-05
-0.000107269
-2.06618e-05
-0.000112296
-7.1634e-05
-0.000114148
-0.000112583
-0.000113204
-0.000142672
-0.000110125
-0.000162148
-0.000105705
-0.000172522
-0.000100698
-0.000176083
-0.000175334
-9.57059e-05
-3.56097e-06
0.000390193
-6.54955e-06
0.000386954
-9.03435e-06
0.00037935
-1.12061e-05
0.000371878
-1.32033e-05
0.000364705
-1.50992e-05
0.000357879
-1.68948e-05
0.000351507
-1.85453e-05
0.000345826
-2.00756e-05
0.000341058
-2.18034e-05
0.000336837
-2.40666e-05
0.000333193
-5.025e-05
0.000293851
-6.62179e-05
0.000198899
-7.94458e-05
0.000119759
-9.04242e-05
4.99582e-05
-9.86134e-05
-1.24727e-05
-0.000103588
-6.66592e-05
-0.00010541
-0.000110762
-0.000104498
-0.000143585
-0.000101527
-0.000165119
-9.72889e-05
-0.000176761
-9.25303e-05
-0.000180842
-0.000180012
-8.78524e-05
-3.12223e-06
0.000393315
-5.79634e-06
0.000389628
-8.04411e-06
0.000381598
-1.0023e-05
0.000373857
-1.18527e-05
0.000366535
-1.35954e-05
0.000359621
-1.52572e-05
0.000353169
-1.67919e-05
0.000347361
-1.8194e-05
0.00034246
-1.97087e-05
0.000338352
-2.09135e-05
0.000334398
-4.23074e-05
0.000315245
-5.7406e-05
0.000213997
-7.06394e-05
0.000132992
-8.17579e-05
6.10767e-05
-9.00091e-05
-4.22157e-06
-9.48474e-05
-6.1821e-05
-9.64913e-05
-0.000109118
-9.54861e-05
-0.00014459
-9.25539e-05
-0.000168051
-8.84805e-05
-0.000180834
-8.39896e-05
-0.000185333
-0.000184335
-7.96667e-05
-2.74239e-06
0.000396057
-5.15111e-06
0.000392037
-7.20423e-06
0.000383651
-9.02672e-06
0.000375679
-1.07197e-05
0.000368228
-1.23344e-05
0.000361236
-1.38755e-05
0.00035471
-1.5297e-05
0.000348782
-1.65618e-05
0.000343725
-1.77876e-05
0.000339578
-1.8863e-05
0.000335473
-3.14785e-05
0.000327861
-4.76293e-05
0.000230148
-6.18757e-05
0.000147239
-7.34981e-05
7.26991e-05
-8.17452e-05
4.02548e-06
-8.61739e-05
-5.73923e-05
-8.741e-05
-0.000107882
-8.61635e-05
-0.000145836
-8.3199e-05
-0.000171016
-7.92816e-05
-0.000184751
-7.50895e-05
-0.000189525
-0.000188254
-7.11707e-05
-2.42268e-06
0.00039848
-4.61187e-06
0.000394226
-6.50801e-06
0.000385547
-8.20699e-06
0.000377378
-9.79319e-06
0.000369814
-1.13083e-05
0.000362751
-1.27503e-05
0.000356152
-1.40745e-05
0.000350106
-1.52169e-05
0.000344867
-1.62387e-05
0.0003406
-1.73145e-05
0.000336549
-2.26071e-05
0.000333153
-4.04436e-05
0.000247984
-5.51003e-05
0.000161895
-6.64001e-05
8.39988e-05
-7.39453e-05
1.15707e-05
-7.74987e-05
-5.3839e-05
-7.80907e-05
-0.00010729
-7.64806e-05
-0.000147447
-7.34404e-05
-0.000174056
-6.96944e-05
-0.000188497
-6.58507e-05
-0.000193369
-0.000191707
-6.23972e-05
-2.16105e-06
0.000400641
-4.17136e-06
0.000396236
-5.94263e-06
0.000387318
-7.547e-06
0.000378983
-9.05432e-06
0.000371322
-1.04981e-05
0.000364195
-1.18686e-05
0.000357522
-1.31164e-05
0.000351354
-1.41654e-05
0.000345916
-1.50352e-05
0.00034147
-1.60429e-05
0.000337557
-1.79155e-05
0.000335026
-3.70573e-05
0.000267126
-5.02138e-05
0.000175052
-5.95489e-05
9.33339e-05
-6.58409e-05
1.78627e-05
-6.84736e-05
-5.12063e-05
-6.8374e-05
-0.000107389
-6.63632e-05
-0.000149457
-6.3253e-05
-0.000177166
-5.97283e-05
-0.000192022
-5.63068e-05
-0.00019679
-0.000194618
-5.33952e-05
-1.95094e-06
0.000402592
-3.81402e-06
0.0003981
-5.48496e-06
0.000388989
-7.01832e-06
0.000380516
-8.47171e-06
0.000372775
-9.87109e-06
0.000365594
-1.11987e-05
0.00035885
-1.23952e-05
0.000352551
-1.33694e-05
0.00034689
-1.40995e-05
0.0003422
-1.48519e-05
0.000338309
-1.54197e-05
0.000335594
-3.55079e-05
0.000287214
-4.54557e-05
0.000185
-5.2524e-05
0.000100402
-5.73842e-05
2.27228e-05
-5.90856e-05
-4.95049e-05
-5.82356e-05
-0.000108239
-5.57895e-05
-0.000151904
-5.26363e-05
-0.000180319
-4.94096e-05
-0.000195248
-4.65072e-05
-0.000199693
-0.000196897
-4.42291e-05
-1.77805e-06
0.00040437
-3.51079e-06
0.000399832
-5.09449e-06
0.000390573
-6.57128e-06
0.000381993
-7.98845e-06
0.000374192
-9.366e-06
0.000366972
-1.06793e-05
0.000360163
-1.18559e-05
0.000353727
-1.27794e-05
0.000347814
-1.33606e-05
0.000342781
-1.36852e-05
0.000338634
-1.33538e-05
0.000335262
-3.10015e-05
0.000304862
-3.90601e-05
0.000193058
-4.5285e-05
0.000106627
-4.89217e-05
2.63595e-05
-4.94677e-05
-4.89588e-05
-4.76906e-05
-0.000110016
-4.47473e-05
-0.000154847
-4.15992e-05
-0.000183467
-3.8779e-05
-0.000198069
-3.65172e-05
-0.000201954
-0.000198438
-3.49754e-05
-1.6137e-06
0.000405984
-3.21459e-06
0.000401433
-4.70887e-06
0.000392067
-6.12885e-06
0.000383413
-7.51211e-06
0.000375575
-8.87519e-06
0.000368335
-1.01911e-05
0.000361479
-1.13761e-05
0.000354912
-1.22842e-05
0.000348722
-1.27306e-05
0.000343227
-1.2609e-05
0.000338512
-1.14254e-05
0.000334079
-2.32205e-05
0.000316657
-3.15523e-05
0.00020139
-3.81511e-05
0.000113226
-4.04835e-05
2.86918e-05
-3.95163e-05
-4.9926e-05
-3.66007e-05
-0.000112932
-3.31545e-05
-0.000158293
-3.01337e-05
-0.000186488
-2.78856e-05
-0.000200317
-2.64181e-05
-0.000203422
-0.000199129
-2.57272e-05
-1.40208e-06
0.000407386
-2.85701e-06
0.000402888
-4.24308e-06
0.000393453
-5.58598e-06
0.000384756
-6.91334e-06
0.000376903
-8.24054e-06
0.000369662
-9.54464e-06
0.000362783
-1.07386e-05
0.000356106
-1.16525e-05
0.000349636
-1.20169e-05
0.000343592
-1.15519e-05
0.000338047
-9.72316e-06
0.00033225
-1.63371e-05
0.000323271
-2.50875e-05
0.00021014
-3.1255e-05
0.000119393
-3.15541e-05
2.89909e-05
-2.87491e-05
-5.27311e-05
-2.46517e-05
-0.000117029
-2.0873e-05
-0.000162072
-1.82339e-05
-0.000189127
-1.67989e-05
-0.000201752
-1.63143e-05
-0.000203906
-0.000198843
-1.65999e-05
-1.04625e-06
0.000408432
-2.35457e-06
0.000404196
-3.59755e-06
0.000394696
-4.81869e-06
0.000385977
-6.03782e-06
0.000378122
-7.2701e-06
0.000370894
-8.50277e-06
0.000364016
-9.65781e-06
0.000357261
-1.05565e-05
0.000350534
-1.08849e-05
0.00034392
-1.03169e-05
0.000337479
-8.63054e-06
0.000330564
-1.04112e-05
0.000325052
-1.72293e-05
0.000216958
-2.22451e-05
0.000124409
-2.08608e-05
2.76066e-05
-1.64705e-05
-5.71214e-05
-1.15263e-05
-0.000121973
-7.82597e-06
-0.000165772
-5.9528e-06
-0.000191
-5.63922e-06
-0.000202065
-6.34877e-06
-0.000203197
-0.000197456
-7.73644e-06
-4.50991e-07
0.000408883
-1.63193e-06
0.000405377
-2.67593e-06
0.00039574
-3.70579e-06
0.000387007
-4.73462e-06
0.000379151
-5.77542e-06
0.000371935
-6.83129e-06
0.000365072
-7.85108e-06
0.000358281
-8.67017e-06
0.000351353
-8.96326e-06
0.000344213
-8.37834e-06
0.000336894
-7.04896e-06
0.000329234
-5.61664e-06
0.00032362
-1.06913e-05
0.000222033
-1.23934e-05
0.000126111
-8.66041e-06
2.38736e-05
-2.66296e-06
-6.31189e-05
2.7509e-06
-0.000127387
5.86495e-06
-0.000168886
6.51801e-06
-0.000191653
5.39544e-06
-0.000200942
3.29275e-06
-0.000201094
-0.000194856
6.92948e-07
3.75907e-07
0.000408507
-6.24006e-07
0.000406377
-1.40793e-06
0.000396524
-2.16324e-06
0.000387762
-2.89758e-06
0.000379885
-3.61752e-06
0.000372655
-4.34934e-06
0.000365804
-5.09495e-06
0.000359027
-5.74778e-06
0.000352006
-6.01194e-06
0.000344477
-5.43935e-06
0.000336322
-4.01703e-06
0.000327812
-8.03012e-07
0.000320405
-5.27071e-06
0.000226501
-2.36009e-06
0.0001232
4.8878e-06
1.66256e-05
1.26338e-05
-7.08649e-05
1.80445e-05
-0.000132798
1.99714e-05
-0.000170813
1.89194e-05
-0.000190601
1.60372e-05
-0.00019806
1.23588e-05
-0.000197415
-0.000190966
8.46886e-06
1.17595e-06
0.000407331
6.23304e-07
0.00040693
1.98928e-07
0.000396948
-1.86806e-07
0.000388148
-5.02682e-07
0.000380201
-7.3996e-07
0.000372892
-9.55196e-07
0.000366019
-1.22764e-06
0.000359299
-1.56121e-06
0.00035234
-1.73187e-06
0.000344648
-1.24166e-06
0.000335831
8.51851e-07
0.000325718
6.90975e-06
0.000314348
3.66101e-06
0.000229749
1.12052e-05
0.000115656
2.13888e-05
6.44193e-06
3.00008e-05
-7.9477e-05
3.43645e-05
-0.000137162
3.42463e-05
-0.000170695
3.09298e-05
-0.000187285
2.59763e-05
-0.000193107
2.05711e-05
-0.00019201
-0.000185736
1.53415e-05
1.86243e-06
0.000405469
1.97578e-06
0.000406817
2.01891e-06
0.000396905
2.10877e-06
0.000388058
2.35445e-06
0.000379955
2.78864e-06
0.000372458
3.3259e-06
0.000365481
3.81219e-06
0.000358813
4.09496e-06
0.000352057
4.17507e-06
0.000344568
4.58239e-06
0.000335424
7.38103e-06
0.00032292
1.88842e-05
0.000302844
2.12945e-05
0.000227339
3.12254e-05
0.000105725
4.23045e-05
-4.63722e-06
4.97714e-05
-8.69439e-05
5.14736e-05
-0.000138864
4.82619e-05
-0.000167483
4.21089e-05
-0.000181132
3.48197e-05
-0.000185817
2.75922e-05
-0.000184783
-0.000179167
2.10233e-05
2.43168e-06
0.000403037
3.12363e-06
0.000406125
3.75164e-06
0.000396277
4.44356e-06
0.000387366
5.42252e-06
0.000378976
6.75146e-06
0.000371129
8.31319e-06
0.00036392
9.92642e-06
0.0003572
1.13767e-05
0.000350607
1.24584e-05
0.000343486