/*--------------------------------*- C++ -*----------------------------------*\
  =========                 |
  \\      /  F ield         | OpenFOAM: The Open Source CFD Toolbox
   \\    /   O peration     | Website:  https://openfoam.org
    \\  /    A nd           | Version:  9
     \\/     M anipulation  |
\*---------------------------------------------------------------------------*/
FoamFile
{
    format      ascii;
    class       volScalarField;
    location    "0.35";
    object      alpha.water;
}
// * * * * * * * * * * * * * * * * * * * * * * * * * * * * * * * * * * * * * //

dimensions      [0 0 0 0 0 0 0];

internalField   nonuniform List<scalar> 
1915
(
0.988995
0.998427
0.998347
0.998427
0.985275
0.998394
0.996875
0.998087
0.999965
0.999292
0.999975
0.999098
0.999999
0.999154
1
0.999192
1
0.999297
1
0.999935
1.35735e-23
3.12403e-23
3.4896e-23
6.52854e-24
4.15837e-25
2.31963e-26
1.30841e-27
4.08058e-29
4.8899e-31
1.62006e-31
1.00971e-31
5.37556e-32
1.77076e-32
3.27955e-33
3.58032e-34
2.39854e-35
1.17077e-36
1.08373e-37
1.21724e-38
1.06429e-39
8.13636e-41
5.51228e-42
3.33964e-43
1.80833e-44
8.69192e-46
3.69076e-47
1.37605e-48
4.46781e-50
1.27611e-51
3.18749e-53
6.77385e-55
1.19427e-56
1.69455e-58
1.86122e-60
1.5073e-62
8.43104e-65
2.95727e-67
5.55803e-70
4.59071e-73
3.08954e-74
2.04857e-22
4.99137e-22
4.35976e-22
1.48442e-22
2.02208e-23
2.25043e-24
1.90874e-25
1.14783e-26
4.15052e-28
4.03686e-31
1.6372e-31
1.05689e-31
5.62312e-32
1.84385e-32
3.43036e-33
3.85232e-34
3.00411e-35
3.69224e-36
5.48275e-37
4.44256e-38
3.06469e-39
1.89682e-40
1.0501e-41
5.28105e-43
2.3851e-44
9.60805e-46
3.43284e-47
1.07998e-48
2.96517e-50
7.04201e-52
1.42474e-53
2.40371e-55
3.29852e-57
3.57252e-59
2.94e-61
1.75094e-63
7.02917e-66
1.7198e-68
2.45155e-71
7.5318e-74
7.27084e-21
1.29174e-20
1.15864e-20
4.95973e-21
8.10551e-22
1.1847e-22
1.37927e-23
1.24561e-24
8.11703e-26
2.8296e-27
8.33987e-29
1.90179e-29
9.99872e-30
3.36221e-30
6.27769e-31
6.95581e-32
4.7241e-33
2.15052e-34
1.4856e-35
9.60663e-37
5.26729e-38
2.74073e-39
1.30081e-40
5.91285e-42
2.38636e-43
8.58255e-45
2.78878e-46
8.06369e-48
2.05811e-49
4.5965e-51
8.86469e-53
1.44877e-54
1.96433e-56
2.15373e-58
1.84832e-60
1.1884e-62
5.34599e-65
1.48728e-67
1.94591e-70
4.46896e-72
1.2093e-19
2.30587e-19
2.28021e-19
1.14902e-19
2.19623e-20
4.2695e-21
6.6591e-22
8.40972e-23
8.55843e-24
8.10845e-25
9.1105e-26
7.59507e-27
1.07401e-27
3.41015e-28
6.16535e-29
6.79649e-30
4.6457e-31
2.00796e-32
8.25591e-34
3.04652e-35
9.87789e-37
3.48108e-38
1.24335e-39
4.41649e-41
1.72624e-42
5.93955e-44
1.76548e-45
4.65273e-47
1.0973e-48
2.29017e-50
4.1766e-52
6.54905e-54
8.66375e-56
9.45289e-58
8.25818e-60
5.53336e-62
2.63583e-64
7.41094e-67
7.86953e-70
6.8312e-71
1.43314e-18
3.26982e-18
3.5858e-18
2.11865e-18
4.55698e-19
1.10314e-19
2.15476e-20
3.76987e-21
6.28323e-22
9.17925e-23
9.64308e-24
7.86674e-25
7.86334e-26
2.32479e-26
4.0692e-27
4.4546e-28
3.13831e-29
1.57334e-30
6.60293e-32
1.82866e-33
3.93891e-35
7.6605e-37
1.28605e-38
1.50803e-41
3.72068e-43
2.09059e-43
8.87731e-45
2.31126e-46
5.15468e-48
1.01016e-49
1.73944e-51
2.60535e-53
3.33645e-55
3.57536e-57
3.11359e-59
2.10347e-61
1.00176e-63
2.71955e-66
2.05754e-69
4.78918e-70
1.45044e-17
3.79557e-17
4.46091e-17
2.77019e-17
6.12981e-18
1.77328e-18
4.28658e-19
9.91728e-20
1.92464e-20
2.83392e-21
3.02957e-22
3.2611e-23
4.62048e-24
1.19921e-24
2.04498e-25
2.26101e-26
1.93313e-27
1.14713e-28
4.34387e-30
1.15457e-31
2.37179e-33
3.95553e-35
2.38848e-37
9.66095e-40
8.48159e-42
7.27503e-44
1.18082e-45
2.9698e-46
1.92786e-47
4.08963e-49
6.73431e-51
9.60107e-53
1.18237e-54
1.23038e-56
1.04814e-58
6.92051e-61
3.15922e-63
7.61298e-66
4.47193e-69
2.25414e-69
1.1003e-16
2.95323e-16
3.49706e-16
1.95014e-16
4.84684e-17
1.65963e-17
4.54747e-18
1.07716e-18
1.85598e-19
2.09209e-20
4.90735e-21
1.19162e-21
2.64053e-22
5.85906e-23
1.01028e-23
1.27679e-24
1.07969e-25
6.0006e-27
2.24919e-28
6.14113e-30
1.33109e-31
2.37734e-33
6.48404e-36
7.21796e-38
7.01466e-40
6.37691e-42
5.74563e-44
5.31082e-46
6.46219e-48
4.37645e-49
2.68185e-50
3.48857e-52
3.99313e-54
3.96478e-56
3.22284e-58
1.99623e-60
8.27164e-63
1.49419e-65
1.30636e-68
8.48085e-69
6.38246e-16
1.90932e-15
2.3167e-15
1.17248e-15
2.51089e-16
1.0421e-16
2.68249e-17
5.86e-18
6.99872e-19
8.59957e-20
1.12481e-19
4.83902e-20
1.26434e-20
2.85498e-21
4.74356e-22
5.59048e-23
4.53233e-24
2.49826e-25
9.5701e-27
2.74606e-28
6.41679e-30
1.32731e-31
3.6935e-34
4.63351e-36
5.05528e-38
5.07547e-40
4.93137e-42
4.7943e-44
5.31042e-46
6.34155e-48
2.2559e-49
2.45979e-51
2.0239e-53
1.47815e-55
1.07587e-57
6.49471e-60
3.10672e-62
1.05782e-64
2.36114e-67
2.52695e-68
3.12351e-15
8.55226e-15
9.23664e-15
3.44882e-15
1.35139e-15
6.76401e-16
2.55953e-16
7.18148e-17
1.1087e-17
2.38159e-18
3.39107e-18
1.65464e-18
4.4901e-19
9.96207e-20
1.60051e-20
1.84345e-21
1.49141e-22
8.38989e-24
3.35363e-25
1.02643e-26
2.63095e-28
5.16159e-30
1.8215e-32
2.5844e-34
3.18907e-36
3.58373e-38
3.82717e-40
4.00876e-42
4.70359e-44
5.32553e-46
1.39318e-47
1.28827e-49
9.95162e-52
1.0058e-53
8.82695e-56
6.27461e-58
3.52063e-60
1.39251e-62
2.93912e-65
2.38959e-67
1.06285e-14
2.53517e-14
2.50986e-14
1.88152e-14
2.1432e-14
2.39506e-14
1.89827e-14
1.09236e-14
2.70958e-15
2.6724e-16
8.87552e-17
4.24759e-17
1.13492e-17
2.46338e-18
3.90121e-19
4.48872e-20
3.6915e-21
2.14934e-22
9.05186e-24
2.97092e-25
8.60174e-27
6.1704e-29
7.86941e-31
1.26464e-32
1.77166e-34
2.24567e-36
2.66821e-38
3.05707e-40
3.86791e-42
4.70196e-44
1.29056e-45
1.21859e-47
1.0078e-49
1.071e-51
1.03623e-53
7.79156e-56
4.58918e-58
1.89708e-60
4.14548e-63
2.91117e-65
1
1
1
1
1
1
1
1
1
1
1
1
1
1
1
1
1
1
1
1
1
1
1.00002
0.999967
0.974374
0.116504
0.000710902
5.5832e-05
4.17795e-06
1.68647e-07
1.14838e-08
1.20668e-09
7.59858e-10
7.75536e-10
7.59879e-10
4.14184e-10
1.68962e-09
1.48206e-08
3.9412e-10
4.19092e-10
5.82692e-10
1.76491e-08
3.08624e-08
0.797689
4.66109e-14
4.41941e-14
4.30819e-14
0.996123
0.291367
4.66155e-14
4.66155e-14
1.00007
0.934499
0.431373
-3.46689e-05
1.00005
0.999533
0.96813
0.612278
1.00003
0.999936
0.997708
0.989775
1
1.00003
0.999509
0.998171
1
1
0.999934
0.999623
1
1
0.999986
0.999944
1
1
0.999998
0.999989
1
1
1
0.999998
1
1
1
1
1
1
1
1
1
1
1
0.999999
0.999991
1.00003
1
1
0.999941
0.999884
0.999982
1.00004
0.404991
0.967305
0.999658
0.999807
0.00703548
0.114886
0.444841
0.988772
0.000226899
0.000951006
0.0136626
0.133197
1.56321e-05
8.62429e-05
0.000359958
0.00124422
1.22881e-06
6.36687e-06
4.87114e-06
0.000135066
5.50369e-08
4.81585e-07
2.83207e-06
6.58155e-06
3.11614e-09
2.67692e-08
2.18391e-07
8.00191e-07
6.52066e-10
2.35866e-09
6.46558e-09
9.75146e-08
4.8474e-10
4.74294e-10
1.2885e-09
4.40822e-09
4.88783e-10
4.25754e-10
5.14553e-10
8.19886e-10
4.15705e-10
4.24169e-10
4.42977e-10
5.82529e-10
1.85142e-09
7.97313e-10
6.3501e-10
7.67609e-10
2.48949e-08
1.58191e-08
7.77558e-10
1.1863e-09
4.67795e-09
1.05306e-08
9.22246e-08
1.81112e-07
8.60191e-10
1.20763e-06
1.01047e-06
2.37159e-07
1.61016e-09
8.80036e-07
2.70579e-06
1.38143e-06
2.1161e-09
3.04767e-06
6.43708e-06
2.60716e-06
4.47731e-09
9.01385e-09
3.86316e-05
3.94632e-05
2.8727e-14
9.29684e-14
1.59871e-13
3.13009e-13
5.26976e-13
6.7477e-13
7.29147e-13
5.42644e-13
2.32807e-13
3.34587e-14
3.39956e-15
1.28894e-15
3.19609e-16
6.59342e-17
1.01956e-17
1.16723e-18
9.75508e-20
5.89359e-21
2.62622e-22
9.45412e-24
2.45026e-25
1.4092e-27
3.00314e-29
5.46812e-31
8.71164e-33
1.25112e-34
1.66723e-36
2.11291e-38
2.93117e-40
3.86594e-42
1.15244e-43
1.14386e-45
1.00615e-47
1.13206e-49
1.15799e-51
9.29345e-54
5.75528e-56
2.48658e-58
5.63342e-61
4.10239e-63
3.13362e-14
6.6721e-14
1.16248e-12
2.35258e-12
3.76633e-12
5.19773e-12
5.96355e-12
4.95877e-12
2.7411e-12
5.67967e-13
8.56188e-14
3.2418e-14
7.36404e-15
1.39773e-15
2.12368e-16
2.46731e-17
2.12976e-18
1.35179e-19
6.46437e-21
2.54481e-22
3.34284e-24
4.32761e-26
1.03387e-27
2.13234e-29
3.86486e-31
6.30264e-33
9.466e-35
1.33737e-36
2.06155e-38
2.93163e-40
9.69539e-42
1.01775e-43
9.48724e-46
1.13665e-47
1.23507e-49
1.06641e-51
6.96393e-54
3.15281e-56
7.42837e-59
5.56832e-61
-3.86107e-06
-5.42968e-06
1.2595e-12
1.25534e-12
1.88751e-12
1.62639e-11
1.79593e-11
1.66449e-11
8.79028e-12
2.67956e-12
8.6675e-13
4.35775e-13
1.43769e-13
2.72809e-14
3.90646e-15
4.59226e-16
4.1391e-17
2.78481e-18
1.45826e-19
4.54927e-21
5.83975e-23
1.19242e-24
3.19204e-26
7.44965e-28
1.53487e-29
2.84314e-31
4.82358e-33
7.6316e-35
1.31974e-36
2.06189e-38
7.48256e-40
8.31667e-42
8.46082e-44
1.08572e-45
1.25845e-47
1.1458e-49
7.91196e-52
3.76825e-54
9.27432e-57
7.33336e-59
0.0269561
0.000241865
-5.84824e-05
-3.05896e-06
-3.48792e-07
1.38447e-11
1.50408e-11
4.67573e-11
1.52752e-11
8.84549e-12
4.30492e-12
2.45111e-12
1.39864e-12
4.24883e-13
6.70615e-14
7.63688e-15
7.17783e-16
5.21942e-17
2.78594e-18
6.13512e-20
8.96526e-22
2.9534e-23
8.848e-25
2.33238e-26
5.45282e-28
1.14617e-29
2.19754e-31
3.90301e-33
7.6114e-35
1.31975e-36
5.22581e-38
6.16016e-40
6.95782e-42
9.60722e-44
1.19216e-45
1.13382e-47
8.30356e-50
4.17757e-52
1.07928e-54
9.14435e-57
0.695168
0.0837421
0.00174267
-2.6315e-05
-1.0112e-05
-3.23407e-06
-7.20211e-08
2.77719e-11
1.72048e-10
1.26328e-10
5.6034e-11
2.17913e-11
6.81051e-12
3.34315e-12
9.00418e-13
1.19503e-13
1.1302e-14
8.89957e-16
4.23687e-17
9.05415e-19
1.75124e-20
6.5833e-22
2.2019e-23
6.53722e-25
1.72924e-26
4.11526e-28
8.90904e-30
1.79514e-31
3.90304e-33
1.94856e-34
3.41909e-36
3.96296e-38
5.20044e-40
7.75753e-42
1.00853e-43
1.02222e-45
7.97134e-48
4.25131e-50
1.15842e-52
1.06275e-54
0.991331
0.747219
0.154129
0.00401426
0.000280586
1.04015e-05
-6.45149e-06
-3.00534e-07
-2.74153e-09
2.37323e-09
8.671e-10
2.6406e-10
6.6992e-11
1.60989e-11
6.12765e-12
1.50066e-12
1.70074e-13
1.29177e-14
5.76947e-16
1.34161e-17
3.19617e-19
1.32278e-20
4.92121e-22
1.6385e-23
4.88232e-25
1.31005e-26
3.19405e-28
7.43739e-30
1.79517e-31
1.04809e-32
1.89677e-34
2.31366e-36
3.50979e-38
5.67165e-40
7.59346e-42
8.22805e-44
6.85173e-46
3.88573e-48
1.12139e-50
1.13904e-52
0.998418
0.992622
0.796087
0.229257
0.00676307
0.000828651
8.44016e-05
-3.27296e-06
-2.94425e-07
2.37738e-08
1.37067e-08
3.48962e-09
7.89653e-10
1.48392e-10
2.79806e-11
9.66843e-12
2.04937e-12
1.74958e-13
7.36266e-15
1.88588e-16
5.29715e-18
2.40798e-19
9.91666e-21
3.68118e-22
1.228e-23
3.69164e-25
1.00761e-26
2.69288e-28
7.23534e-30
4.62022e-31
8.99899e-33
1.17025e-34
2.09404e-36
3.50378e-38
4.97706e-40
5.78434e-42
5.15023e-44
3.1134e-46
9.54901e-49
1.10092e-50
0.999686
0.998648
0.993646
0.838235
0.291539
0.00983285
0.00159728
0.000224244
1.28314e-05
4.35677e-07
2.12525e-07
4.58951e-08
9.21254e-09
1.63365e-09
2.47366e-10
4.01231e-11
1.25958e-11
1.95848e-12
9.84529e-14
2.63216e-15
8.0214e-17
4.0041e-18
1.81813e-19
7.48132e-21
2.77619e-22
9.28774e-24
2.81917e-25
8.59955e-27
3.14456e-28
1.78656e-29
3.66885e-31
5.16804e-33
1.0346e-34
1.87029e-36
2.85445e-38
3.55829e-40
3.39029e-42
2.18813e-44
7.15027e-47
9.35908e-49
0.99995
0.999752
0.998842
0.994415
0.866408
0.326261
0.0127484
0.00245917
0.000383488
3.80363e-05
2.62546e-06
6.362e-07
1.04318e-07
1.70375e-08
2.52057e-09
3.40802e-10
5.04836e-11
1.1487e-11
1.20081e-12
3.69174e-14
1.11122e-15
6.1096e-17
3.05596e-18
1.38875e-19
5.70563e-21
2.11427e-22
7.1513e-24
2.48851e-25
2.35339e-26
6.69787e-28
1.29487e-29
2.11278e-31
4.59554e-33
8.95004e-35
1.46784e-36
1.9622e-38
2.00104e-40
1.37992e-42
4.8116e-45
6.99566e-47
0.999991
0.999959
0.999799
0.999
0.994854
0.872901
0.315167
0.0147461
0.00313515
0.000540871
6.72228e-05
6.31452e-06
1.22223e-06
1.73575e-07
2.45581e-08
3.2659e-09
3.95821e-10
4.50664e-11
7.76119e-12
5.59146e-13
2.03757e-14
8.49375e-16
4.68893e-17
2.3506e-18
1.06592e-19
4.36475e-21
1.69504e-22
7.7924e-24
6.81824e-25
2.01569e-26
4.18615e-28
7.71018e-30
1.81164e-31
3.79456e-33
6.6796e-35
9.56682e-37
1.04369e-38
7.68947e-41
2.86279e-43
4.69855e-45
0.999998
0.999993
0.999967
0.999829
0.99914
0.99481
0.847189
0.258439
0.0136364
0.00313254
0.000579678
8.25477e-05
1.03182e-05
1.68549e-06
2.2028e-07
2.76932e-08
3.20427e-09
3.37937e-10
3.30987e-11
4.94786e-12
3.47742e-13
1.59354e-14
6.43594e-16
3.5628e-17
1.78115e-18
8.12052e-20
4.28162e-21
3.63244e-22
1.78967e-23
5.07394e-25
1.17303e-26
2.4594e-28
6.23069e-30
1.40018e-31
2.64087e-33
4.04646e-35
4.71692e-37
3.70999e-39
1.47451e-41
2.78977e-43
0.999999
0.999998
0.999994
0.999975
0.999834
0.99927
0.994858
0.770147
0.166918
0.01057
0.00241739
0.000437787
6.52585e-05
1.0826e-05
1.51336e-06
1.9097e-07
2.27544e-08
2.50094e-09
2.52645e-10
2.31654e-11
4.01652e-12
3.39205e-13
1.5589e-14
8.47261e-16
4.52948e-17
2.4184e-18
1.44467e-19
1.02046e-20
3.80465e-22
1.13458e-23
2.83116e-25
6.74333e-27
1.83881e-28
4.42108e-30
8.91437e-32
1.45833e-33
1.81324e-35
1.52026e-37
6.44422e-40
1.43376e-41
0.999999
0.999999
0.999998
0.999993
0.999983
0.999836
0.999274
0.994248
0.622425
0.082075
0.00748276
0.00166779
0.000309823
4.56027e-05
8.65639e-06
1.14699e-06
1.41328e-07
1.62154e-08
1.72766e-09
1.67333e-10
1.68483e-11
3.55387e-12
3.30607e-13
1.75678e-14
9.96384e-16
5.8651e-17
3.49234e-18
1.67644e-19
6.395e-21
2.08413e-22
5.56641e-24
1.48622e-25
4.34866e-27
1.11554e-28
2.39844e-30
4.17919e-32
5.53029e-34
4.93279e-36
2.22718e-38
6.25147e-40
0.999999
0.999998
0.999997
0.999996
0.999991
0.99998
0.999845
0.998915
0.993453
0.450583
0.0271913
0.00528908
0.00113125
0.000206995
3.52623e-05
5.78424e-06
7.55398e-07
9.07405e-08
1.00633e-08
1.03028e-09
9.97937e-11
1.31197e-11
2.58469e-12
2.26262e-13
1.32299e-14
7.8015e-16
4.32673e-17
2.02412e-18
8.25093e-20
2.90684e-21
8.33302e-23
2.4363e-24
7.61478e-26
2.079e-27
4.75309e-29
8.7981e-31
1.23598e-32
1.17005e-34
5.61916e-37
2.15538e-38
0.999998
0.999998
0.999996
0.999992
0.99999
0.999987
0.999963
0.999948
0.998582
0.918194
0.260548
0.0132809
0.00321335
0.000675071
0.000116719
2.1942e-05
3.22966e-06
4.17355e-07
4.92558e-08
5.33914e-09
5.30957e-10
5.42565e-11
1.00724e-11
1.45416e-12
1.08163e-13
6.4444e-15
3.61115e-16
1.80548e-17
7.95157e-19
3.01946e-20
9.32096e-22
2.92849e-23
9.73185e-25
2.82037e-26
6.83608e-28
1.34037e-29
1.99349e-31
1.99755e-33
1.0187e-35
5.4255e-37
1.00003
1.00001
0.999995
0.999992
0.999985
0.999979
0.999978
0.999947
0.999724
0.998522
0.609834
0.082782
0.00743397
0.0017261
0.000345474
6.48502e-05
1.1331e-05
1.59599e-06
2.02162e-07
2.33072e-08
2.46704e-09
2.41149e-10
2.61192e-11
5.44633e-12
6.2441e-13
4.05903e-14
2.3629e-15
1.26741e-16
6.00115e-18
2.44672e-19
8.1202e-21
2.71807e-22
9.56383e-24
2.93229e-25
7.50979e-27
1.55468e-28
2.44019e-30
2.58002e-32
1.2971e-34
9.70912e-36
0.999208
0.999811
1.00002
0.999987
0.999986
0.999973
0.999958
0.999946
0.999959
0.99961
0.995076
0.339162
0.0159453
0.00396438
0.000878444
0.000169269
3.20885e-05
5.08084e-06
6.91904e-07
8.5204e-08
9.57463e-09
9.88011e-10
9.86911e-11
1.19077e-11
2.25811e-12
2.14393e-13
1.28482e-14
7.27649e-16
3.68502e-17
1.6083e-18
5.7326e-20
2.02562e-21
7.51225e-23
2.42834e-24
6.5481e-26
1.42636e-27
2.35473e-29
2.61728e-31
1.32712e-33
1.31231e-34
0.624034
0.996856
0.999198
0.999976
0.999966
0.999972
0.999947
0.999913
0.999886
0.999822
0.999486
0.66507
0.0911047
0.00758104
0.00179869
0.000372623
7.46285e-05
1.31001e-05
1.94463e-06
2.57201e-07
3.08615e-08
3.38755e-09
3.44653e-10
3.82671e-11
6.10415e-12
7.97519e-13
5.95639e-14
3.49233e-15
1.87792e-16
8.75618e-18
3.35626e-19
1.2272e-20
4.76844e-22
1.62045e-23
4.5844e-25
1.04709e-26
1.81189e-28
2.10937e-30
1.10234e-32
1.43701e-33
0.0342222
0.298382
0.925405
0.997385
0.999569
0.999869
0.999928
0.999886
0.999832
0.999798
0.999698
0.960808
0.27697
0.0134257
0.00331976
0.000737142
0.000154726
2.87162e-05
4.68094e-06
6.63431e-07
8.50138e-08
1.00432e-08
1.08844e-09
1.13449e-10
1.31535e-11
2.28773e-12
2.28851e-13
1.43128e-14
8.05561e-16
4.00304e-17
1.65291e-18
6.13177e-20
2.48012e-21
8.8349e-23
2.61291e-24
6.23562e-26
1.12704e-27
1.36927e-29
7.29561e-32
1.25166e-32
0.000671685
0.00315165
0.168865
0.757541
0.994525
0.998893
0.999678
0.999837
0.999784
0.999669
0.999578
0.999001
0.529046
0.0443535
0.00539402
0.00125983
0.000278627
5.50244e-05
9.51775e-06
1.46223e-06
2.01593e-07
2.52496e-08
2.91463e-09
3.09076e-10
3.58764e-11
5.11137e-12
6.59837e-13
5.04122e-14
2.94368e-15
1.55197e-16
6.91848e-18
2.5367e-19
1.06123e-20
3.953e-22
1.21788e-23
3.02633e-25
5.69383e-27
7.19322e-29
3.86775e-31
8.78533e-32
7.48785e-05
0.000347082
0.00219115
0.100818
0.649732
0.990278
0.997816
0.99942
0.999672
0.999564
0.999421
0.999222
0.775272
0.127754
0.00853566
0.00201026
0.000456419
9.40973e-05
1.72526e-05
2.81249e-06
4.11806e-07
5.47439e-08
6.6592e-09
7.4206e-10
8.35783e-11
9.75178e-12
1.57644e-12
1.48924e-13
9.20153e-15
5.1145e-16
2.45661e-17
9.48366e-19
3.76705e-20
1.44282e-21
4.63849e-23
1.19628e-24
2.33528e-26
3.05744e-28
1.65987e-30
4.996e-31
6.49166e-06
3.36558e-05
0.00020085
0.00188487
0.0737318
0.657669
0.987087
0.99695
0.999076
0.999436
0.999195
0.999006
0.918652
0.260923
0.0125074
0.00302435
0.000696962
0.000147459
2.80972e-05
4.79343e-06
7.36405e-07
1.02682e-07
1.30693e-08
1.52811e-09
1.6622e-10
1.99578e-11
3.19253e-12
3.52994e-13
2.44892e-14
1.43006e-15
7.36458e-17
3.14585e-18
1.11347e-19
4.33382e-21
1.45316e-22
3.87728e-24
7.82854e-26
1.05879e-27
5.72033e-30
2.30242e-30
4.53378e-07
4.32701e-07
3.07139e-05
0.000102092
0.00184881
0.135536
0.785087
0.99013
0.997357
0.998773
0.998985
0.998428
0.990578
0.415739
0.0178572
0.00420215
0.000976511
0.00020979
4.10219e-05
7.24299e-06
1.1565e-06
1.67787e-07
2.22087e-08
2.69553e-09
2.98762e-10
3.6483e-11
5.3507e-12
7.01435e-13
5.56564e-14
3.39713e-15
1.86525e-16
8.69639e-18
3.24948e-19
1.10047e-20
3.74476e-22
1.0394e-23
2.16393e-25
3.01405e-27
1.62727e-29
8.66738e-30
5.41194e-08
5.56019e-07
-1.78117e-06
2.69019e-05
0.000239901
0.00167315
0.392491
0.933262
0.993681
0.997642
0.998457
0.998008
0.998234
0.52958
0.0370691
0.00529935
0.00124021
0.000269513
5.37027e-05
9.73348e-06
1.60265e-06
2.4023e-07
3.28635e-08
4.11806e-09
4.69799e-10
5.75126e-11
7.51003e-12
1.19822e-12
1.08782e-13
6.86215e-15
3.98883e-16
2.00058e-17
8.30689e-19
2.69082e-20
8.14331e-22
2.30897e-23
4.97336e-25
7.11471e-27
4.12067e-29
2.68865e-29
1.13094e-08
7.5233e-08
3.18518e-07
3.70273e-06
8.94935e-07
0.000161907
0.0458587
0.726959
0.988033
0.995693
0.997379
0.997713
0.997049
0.633377
0.0594265
0.00625214
0.00146275
0.000320385
6.47091e-05
1.19571e-05
2.01531e-06
3.09871e-07
4.35188e-08
5.59648e-09
6.5523e-10
8.01823e-11
1.02284e-11
1.82315e-12
1.81105e-13
1.19326e-14
7.27984e-16
3.87688e-17
1.74203e-18
6.30918e-20
1.72115e-21
4.36617e-23
9.63117e-25
1.41812e-26
8.29315e-29
6.93628e-29
1.5919e-09
6.91003e-09
5.57645e-08
-5.292e-07
-3.52366e-06
2.40112e-05
0.000512098
0.46525
0.961226
0.993718
0.996225
0.996988
0.996073
0.716618
0.0904109
0.00705431
0.00165061
0.000361427
7.3393e-05
1.37129e-05
2.34686e-06
3.6734e-07
5.25904e-08
6.89678e-09
8.24974e-10
1.00905e-10
1.32635e-11
2.51725e-12
2.6577e-13
1.82656e-14
1.16192e-15
6.50552e-17
3.10956e-18
1.2298e-19
3.79206e-21
8.40285e-23
1.6043e-24
2.41949e-26
1.57008e-28
1.51098e-28
7.95437e-10
1.45065e-09
1.08997e-08
-7.03739e-08
-3.38076e-07
3.56769e-06
8.54452e-05
0.239846
0.891318
0.991835
0.995115
0.996041
0.994873
0.712471
0.0940778
0.00722151
0.00169098
0.000371168
7.58023e-05
1.42928e-05
2.47587e-06
3.9311e-07
5.71755e-08
7.62427e-09
9.28537e-10
1.14844e-10
1.57967e-11
3.21006e-12
3.5391e-13
2.50623e-14
1.65703e-15
9.68811e-17
4.87591e-18
2.06232e-19
7.0542e-21
1.80952e-22
3.13525e-24
3.58516e-26
3.56619e-28
2.8298e-28
1.63245e-09
2.04389e-09
3.47324e-09
-8.70915e-09
-6.92332e-08
5.86642e-07
1.49831e-05
0.101378
0.773237
0.988669
0.993689
0.994859
0.993431
0.67808
0.0821531
0.00700638
0.00163064
0.000355898
7.24467e-05
1.36683e-05
2.37736e-06
3.79995e-07
5.57362e-08
7.50521e-09
9.23422e-10
1.16633e-10
1.65378e-11
3.50943e-12
3.99318e-13
2.94318e-14
2.0466e-15
1.26503e-16
6.76758e-18
3.04765e-19
1.12825e-20
3.28587e-22
6.88259e-24
8.82803e-26
5.54531e-28
4.6215e-28
4.57255e-08
4.06841e-09
1.20154e-08
1.38901e-08
1.4065e-08
1.82443e-07
2.85813e-06
0.0833791
0.721235
0.986272
0.992281
0.993424
0.982107
0.610722
0.0600379
0.00613573
0.00141734
0.000308505
6.27404e-05
1.18517e-05
2.06925e-06
3.32826e-07
4.92284e-08
6.69714e-09
8.34373e-10
1.09479e-10
1.91312e-11
3.76565e-12
4.01309e-13
3.04428e-14
2.15072e-15
1.34115e-16
7.29159e-18
3.43932e-19
1.36251e-20
4.35246e-22
1.058e-23
1.75811e-25
1.52625e-27
6.62804e-28
2.48813e-08
1.17248e-08
1.80351e-08
3.20828e-08
4.72367e-08
1.10732e-07
6.75847e-07
0.100834
0.74898
0.984107
0.99008
0.991932
0.950113
0.48684
0.0316277
0.00493967
0.0011296
0.000244254
4.94326e-05
9.3132e-06
1.62565e-06
2.62019e-07
3.89123e-08
5.32554e-09
6.70816e-10
9.23307e-11
2.0392e-11
3.66345e-12
3.68693e-13
2.91736e-14
2.12687e-15
1.38154e-16
7.84394e-18
3.81058e-19
1.55173e-20
5.11097e-22
1.29324e-23
2.30761e-25
2.05619e-27
6.62406e-28
5.40824e-08
2.52504e-08
2.04809e-08
3.06605e-08
3.40056e-06
6.75847e-07
2.23854e-06
0.155583
0.814147
0.978132
0.984749
0.987896
0.888756
0.308601
0.0173313
0.00363401
0.000820282
0.000176419
3.54853e-05
6.65613e-06
1.15923e-06
1.8682e-07
2.77967e-08
3.82234e-09
4.8811e-10
7.17092e-11
1.89756e-11
3.14874e-12
2.98748e-13
2.46437e-14
1.85971e-15
1.24096e-16
7.23004e-18
3.62406e-19
1.53101e-20
5.32649e-22
1.46123e-23
2.91963e-25
3.24464e-27
4.7341e-28
2.58149e-07
5.74719e-08
3.06653e-08
4.90083e-06
4.97718e-06
0.000358376
0.0044673
0.291717
0.902081
0.976508
0.978398
0.977075
0.733653
0.146415
0.0122927
0.00258798
0.000546933
0.000116308
2.32671e-05
4.34114e-06
7.53225e-07
1.2115e-07
1.8026e-08
2.48729e-09
3.29738e-10
5.4499e-11
1.58022e-11
2.36459e-12
2.15691e-13
1.83825e-14
1.4165e-15
9.67865e-17
5.79837e-18
3.00563e-19
1.32217e-20
4.78163e-22
1.3596e-23
2.84508e-25
3.58766e-27
3.04023e-28
6.92453e-06
2.54768e-07
6.13851e-08
2.08493e-06
0.000358156
0.00656454
0.0752156
0.603681
0.963671
0.974061
0.975998
0.936328
0.48579
0.0492775
0.00831834
0.00174104
0.00035086
7.0628e-05
1.40111e-05
2.59878e-06
4.4849e-07
7.18373e-08
1.06648e-08
1.47448e-09
2.12298e-10
5.0818e-11
1.19603e-11
1.50935e-12
1.41932e-13
1.23754e-14
9.69723e-16
6.7462e-17
4.12443e-18
2.18567e-19
9.8491e-21
3.67167e-22
1.08577e-23
2.384e-25
3.27479e-27
1.7606e-28
)
;

boundaryField
{
    leftWall
    {
        type            zeroGradient;
    }
    rightWall
    {
        type            zeroGradient;
    }
    lowerWall
    {
        type            zeroGradient;
    }
    atmosphere
    {
        type            inletOutlet;
        inletValue      nonuniform List<scalar> 0();
        value           nonuniform List<scalar> 0();
    }
    defaultFaces
    {
        type            empty;
    }
    procBoundary1to0
    {
        type            processor;
        value           nonuniform List<scalar> 
44
(
0.910423
0.913694
0.956382
0.999671
0.999982
0.999998
1
1
1
1
1
1
1
1
1
1
1
1
1
1
1
1
1
0.999999
1.00006
0.428288
0.00653645
0.000154601
9.65367e-06
5.14575e-07
2.29274e-08
1.36742e-09
6.33223e-10
7.53439e-10
8.8816e-10
7.63728e-10
3.84154e-10
3.84186e-10
2.24079e-10
3.768e-10
3.98717e-10
2.37966e-09
3.15162e-08
4.10667e-08
)
;
    }
    procBoundary1to3
    {
        type            processor;
        value           nonuniform List<scalar> 
45
(
1.92629e-08
9.01386e-09
9.57587e-06
8.22639e-05
9.38205e-05
2.70041e-05
1.19095e-06
1.42942e-06
2.53351e-06
0.00152225
0.0461942
0.434336
0.932043
0.956767
0.964566
0.962489
0.793494
0.209645
0.0202155
0.00486413
0.00106299
0.000215781
4.17492e-05
7.91263e-06
1.43794e-06
2.45671e-07
3.93216e-08
5.93161e-09
8.54049e-10
1.45272e-10
4.22951e-11
7.88794e-12
8.84476e-13
8.55546e-14
7.56831e-15
6.00422e-16
4.23478e-17
2.62969e-18
1.4184e-19
6.52108e-21
2.48746e-22
7.55974e-24
1.71386e-25
2.49485e-27
9.22446e-29
)
;
    }
}


// ************************************************************************* //
