/*--------------------------------*- C++ -*----------------------------------*\
  =========                 |
  \\      /  F ield         | OpenFOAM: The Open Source CFD Toolbox
   \\    /   O peration     | Website:  https://openfoam.org
    \\  /    A nd           | Version:  9
     \\/     M anipulation  |
\*---------------------------------------------------------------------------*/
FoamFile
{
    format      ascii;
    class       surfaceScalarField;
    location    "0.35";
    object      alphaPhi0.water;
}
// * * * * * * * * * * * * * * * * * * * * * * * * * * * * * * * * * * * * * //

dimensions      [0 3 -1 0 0 0 0];

internalField   nonuniform List<scalar> 
3731
(
-1.2465e-05
-4.11844e-06
-1.24648e-05
-6.45514e-06
-1.7533e-06
-1.89198e-05
1.54592e-06
3.70492e-06
-1.73713e-05
6.81733e-06
1.14338e-05
-1.05466e-05
1.04996e-05
2.04669e-05
-6.58244e-08
1.29555e-05
3.08231e-05
1.28784e-05
1.55973e-05
4.20918e-05
2.84712e-05
1.90075e-05
5.4079e-05
4.74761e-05
2.45964e-05
6.59921e-05
7.20728e-05
3.34617e-05
7.65135e-05
0.000105534
1.11421e-29
-1.69044e-28
-2.85042e-29
5.11895e-29
-3.87828e-29
8.79554e-29
-4.67174e-30
1.67298e-29
-3.59443e-31
9.13295e-31
-2.4518e-32
3.62318e-32
-8.55059e-34
1.18319e-33
-1.14236e-35
1.48196e-35
-3.22284e-36
-3.67675e-37
-1.77102e-36
-3.55987e-36
-1.11218e-36
-4.61172e-36
-5.49111e-37
-3.53321e-36
-1.6858e-37
-1.55035e-36
-2.84292e-38
-3.86438e-37
-2.67286e-39
-5.51966e-38
-1.43759e-40
-4.53934e-39
-4.78776e-42
-1.95947e-40
-1.19203e-43
-2.26119e-42
-3.05473e-45
-7.2425e-44
-4.95284e-47
-2.78445e-45
4.91127e-48
-1.60107e-46
7.55208e-49
-1.02894e-47
6.27351e-50
-5.89946e-49
3.91252e-51
-2.72015e-50
1.98715e-52
-1.04816e-51
8.41943e-54
-3.20884e-53
2.98822e-55
-6.54742e-55
8.96697e-57
-3.58731e-57
2.30983e-58
1.043e-58
4.99041e-60
5.90066e-60
8.73413e-62
1.96902e-61
1.20224e-63
4.68757e-63
1.2442e-65
8.48512e-65
9.07034e-68
1.13876e-66
4.21604e-70
1.0804e-68
1.04174e-72
6.69233e-71
9.02411e-76
2.2788e-73
-1.12066e-80
3.01051e-76
-3.56581e-81
4.71806e-80
-9.00454e-81
-3.95698e-28
-2.09091e-29
-1.43753e-27
3.6148e-27
-1.33004e-27
4.25975e-27
-2.89756e-28
1.43016e-27
-4.0461e-29
1.5897e-28
-3.94178e-30
1.22619e-29
-2.55972e-31
5.83562e-31
-1.10599e-32
1.18993e-32
-6.32497e-34
-4.38785e-34
-1.9686e-34
-4.2221e-34
-1.24122e-34
-7.92645e-35
-7.63736e-35
-5.43714e-35
-2.85499e-35
-5.21119e-35
-5.32171e-36
-2.47572e-35
-5.39482e-37
-5.079e-36
-3.12988e-38
-5.39525e-37
-1.06088e-39
-3.13659e-38
-2.2635e-41
-7.31203e-40
-3.80903e-43
-1.89215e-41
-6.90301e-45
-3.91104e-43
-3.98938e-47
-1.05466e-44
1.22864e-47
-4.49315e-46
1.31184e-48
-2.18035e-47
8.71109e-50
-9.93892e-49
4.46154e-51
-3.5704e-50
1.88104e-52
-1.02883e-51
6.67621e-54
-2.19561e-53
2.00125e-55
-2.38123e-55
5.05558e-57
5.22674e-57
1.06661e-58
3.94635e-58
1.84278e-60
1.35635e-59
2.53774e-62
3.26292e-61
2.69241e-64
5.91863e-63
2.09974e-66
8.07815e-65
1.1234e-68
8.05374e-67
3.70794e-71
5.52883e-69
6.17409e-74
2.36185e-71
3.33502e-77
5.07151e-74
-3.67944e-83
3.15205e-77
-4.44274e-80
-2.73834e-26
2.8836e-26
-5.83207e-26
1.55287e-25
-5.27897e-26
1.68444e-25
-1.27586e-26
6.7316e-26
-2.21784e-27
8.69657e-27
-2.8918e-28
8.67506e-28
-2.7789e-29
5.57745e-29
-2.1338e-30
1.51668e-30
-1.90057e-31
-1.34258e-31
-3.39463e-32
-4.16048e-32
-1.65218e-32
-1.33616e-32
-8.79749e-33
-8.14488e-33
-3.00673e-33
-6.36069e-33
-5.40447e-34
-2.70811e-33
-5.48948e-35
-5.37208e-34
-3.29097e-36
-5.78571e-35
-1.16698e-37
-3.61882e-36
-2.5162e-39
-1.29513e-37
-3.54852e-41
-2.75839e-39
-3.83489e-43
-4.99308e-41
-3.17428e-45
-7.49349e-43
7.7059e-47
-1.30777e-44
1.04221e-47
-3.71441e-46
7.1673e-49
-3.70318e-47
3.54444e-50
-1.15455e-48
1.40926e-51
-1.54234e-50
4.70045e-53
-2.92703e-52
1.33318e-54
-3.59458e-54
3.21835e-56
2.38059e-56
6.57729e-58
3.02734e-57
1.11864e-59
1.07376e-58
1.54984e-61
2.5886e-60
1.70426e-63
4.71803e-62
1.43501e-65
6.60164e-64
8.79549e-68
6.9644e-66
3.63762e-70
5.30556e-68
8.91199e-73
2.7125e-70
9.95297e-76
7.99114e-73
7.27866e-79
9.22163e-76
-8.79343e-80
-6.92562e-25
1.14292e-24
-1.33499e-24
3.95423e-24
-1.35238e-24
4.28847e-24
-3.68905e-25
1.94523e-24
-8.21566e-26
2.88292e-25
-1.41309e-26
3.76862e-26
-1.87102e-27
3.15727e-27
-2.19638e-28
1.00521e-28
-2.90182e-29
-2.8927e-29
-4.5201e-30
-1.06596e-29
-1.50105e-30
-2.18441e-30
-6.73054e-31
-8.57511e-31
-2.102e-31
-5.23762e-31
-3.6316e-32
-1.98549e-31
-3.67473e-33
-3.77415e-32
-2.25948e-34
-4.06702e-33
-8.42993e-36
-2.63323e-34
-1.93556e-37
-1.03044e-35
-2.86375e-39
-2.62225e-37
-2.87216e-41
-4.99275e-39
-1.72811e-43
-7.20037e-41
6.66397e-46
-8.49518e-43
8.11884e-47
-1.02403e-44
4.45379e-48
-1.33587e-46
2.21838e-49
-2.40684e-48
8.46211e-51
-1.63013e-49
2.63452e-52
-4.10683e-51
6.99979e-54
-4.70928e-53
1.60194e-55
1.22546e-56
3.14037e-57
1.65408e-56
5.2005e-59
6.05648e-58
7.15324e-61
1.44803e-59
8.00086e-63
2.62105e-61
7.0729e-65
3.69686e-63
4.74586e-67
4.02836e-65
2.27135e-69
3.28276e-67
6.97581e-72
1.88295e-69
1.12774e-74
6.71713e-72
2.12471e-77
1.1498e-74
2.98712e-77
-1.12472e-23
2.32005e-23
-2.45471e-23
7.44953e-23
-2.68644e-23
8.27117e-23
-8.18554e-24
4.22106e-23
-2.19993e-24
6.8638e-24
-4.64631e-25
1.09318e-24
-8.30663e-26
1.0981e-25
-1.49069e-26
3.44279e-27
-2.36823e-27
-3.27626e-27
-3.21396e-28
-1.08161e-27
-9.5359e-29
-1.51509e-28
-3.82031e-29
-6.24277e-29
-1.10159e-29
-3.15897e-29
-1.82821e-30
-1.08659e-29
-1.83727e-31
-1.98027e-30
-1.15272e-32
-2.12674e-31
-4.5018e-34
-1.41887e-32
-1.10412e-35
-6.09043e-34
-1.76898e-37
-1.80847e-35
-1.93039e-39
-3.72351e-37
-1.21622e-41
-5.85692e-39
2.11779e-44
-7.27036e-41
1.66857e-44
-7.67921e-43
1.73639e-46
-5.02517e-44
8.71155e-49
-2.2154e-46
1.08717e-49
-6.01838e-49
1.35874e-51
-7.77899e-51
3.37039e-53
-1.473e-52
7.26154e-55
-8.16366e-55
1.361e-56
7.6975e-56
2.18333e-58
2.93164e-57
2.95877e-60
6.93653e-59
3.32341e-62
1.24142e-60
3.01893e-64
1.74994e-62
2.14043e-66
1.9396e-64
1.11979e-68
1.64685e-66
3.94382e-71
1.01461e-68
8.03554e-74
4.12176e-71
2.18173e-76
9.26775e-74
4.97649e-76
-1.5154e-22
3.51808e-22
-3.60458e-22
1.08511e-21
-3.93396e-22
1.19999e-21
-1.19439e-22
6.10855e-22
-3.69048e-23
9.97721e-23
-9.42253e-24
1.84841e-23
-2.21804e-24
2.15022e-24
-4.48758e-25
3.29438e-26
-6.96295e-26
-8.62614e-26
-1.10632e-26
-2.04053e-26
-4.28068e-27
-5.53707e-27
-1.71796e-27
-3.44962e-27
-4.60543e-28
-1.5721e-27
-7.34683e-29
-4.74351e-28
-7.32193e-30
-8.30844e-29
-4.68626e-31
-8.90817e-30
-1.90777e-32
-6.47578e-31
-4.94048e-34
-3.08716e-32
-8.51472e-36
-9.72578e-34
-1.01354e-37
-2.1711e-35
-6.88708e-40
-3.78231e-37
2.34384e-42
-5.29511e-39
1.66986e-42
-7.00493e-41
6.31746e-44
-5.65501e-42
1.0739e-45
-8.96948e-44
1.14977e-47
-8.24625e-46
3.91118e-51
-5.11474e-48
1.53981e-52
-1.12176e-51
3.81875e-54
-3.96439e-54
5.71803e-56
3.18925e-55
8.79489e-58
1.36869e-56
1.16509e-59
3.18514e-58
1.30277e-61
5.60348e-60
1.19789e-63
7.83355e-62
8.75774e-66
8.72972e-64
4.82955e-68
7.58441e-66
1.85065e-70
4.90336e-68
4.34087e-73
2.182e-70
1.29824e-75
5.96763e-73
3.96524e-75
-1.50703e-21
3.74125e-21
-3.4038e-21
1.02162e-20
-3.30529e-21
1.06228e-20
-1.02093e-21
4.62397e-21
-3.6395e-22
8.07553e-22
-1.05355e-22
1.71817e-22
-2.56085e-23
2.02789e-23
-4.82619e-24
-3.88334e-25
-7.48235e-25
-6.45856e-25
-2.8663e-25
-2.71252e-25
-1.59231e-25
-2.1224e-25
-6.41666e-26
-1.58851e-25
-1.59888e-26
-6.7574e-26
-2.45773e-27
-1.82643e-26
-2.43741e-28
-3.0995e-27
-1.58172e-29
-3.46339e-28
-6.63225e-31
-2.58358e-29
-1.80006e-32
-1.27965e-30
-3.29373e-34
-4.27798e-32
-4.16373e-36
-1.03495e-33
-2.75569e-38
-1.99752e-35
4.40199e-40
-3.18583e-37
1.17213e-40
-7.47849e-39
4.4318e-42
-3.88517e-40
8.24546e-44
-6.61921e-42
1.00821e-45
-6.86757e-44
9.19973e-48
-4.96165e-46
6.30397e-50
-2.40728e-48
2.79251e-53
-4.21084e-51
4.44436e-55
7.30924e-54
7.30707e-57
1.4329e-55
7.19053e-59
2.77705e-57
7.48214e-61
4.29918e-59
6.62274e-63
5.52441e-61
4.80574e-65
5.88736e-63
2.71576e-67
5.06517e-65
1.10976e-69
3.37264e-67
4.79384e-72
1.62325e-69
6.94919e-75
5.10857e-72
2.5143e-74
-1.29916e-20
3.00413e-20
-2.78398e-20
7.63874e-20
-2.40039e-20
7.4761e-20
-5.79173e-21
2.73662e-20
-2.42883e-21
4.24397e-21
-6.72092e-22
1.04733e-21
-1.49848e-22
1.01208e-22
-4.44921e-23
-7.42666e-24
-1.69182e-23
-1.4495e-23
-8.93625e-24
-1.10059e-23
-5.36526e-24
-8.57826e-24
-2.02082e-24
-6.14162e-24
-4.7279e-25
-2.42027e-24
-7.01914e-26
-6.20476e-25
-6.87883e-27
-1.02602e-25
-4.50233e-28
-1.14386e-26
-1.93737e-29
-8.70442e-28
-5.46498e-31
-4.49042e-29
-1.043e-32
-1.59509e-30
-1.33686e-34
-4.18319e-32
-6.30084e-37
-8.93463e-34
6.29022e-38
-1.69348e-35
7.79969e-39
-6.14909e-37
2.81711e-40
-2.33652e-38
5.61352e-42
-4.18571e-40
7.61274e-44
-4.84485e-42
7.76587e-46
-3.96863e-44
5.94736e-48
-2.20372e-46
2.0734e-50
-4.83377e-49
3.18867e-53
6.36908e-52
3.91499e-55
1.10769e-53
4.10767e-57
1.98606e-55
3.94585e-59
2.84159e-57
3.98961e-61
3.44576e-59
3.52488e-63
3.55842e-61
2.44325e-65
3.06653e-63
1.25026e-67
2.12563e-65
4.11132e-70
1.10998e-67
2.36862e-73
3.84229e-70
6.98372e-73
-9.45859e-20
1.99734e-19
-1.39493e-19
3.6189e-19
-8.29797e-20
2.91016e-19
-3.18125e-20
8.23371e-20
-1.5814e-20
2.39553e-20
-5.77089e-21
6.7271e-21
-2.72318e-21
7.59256e-22
-1.72596e-21
-8.86843e-22
-7.54863e-22
-1.20123e-21
-2.89905e-22
-5.51347e-22
-1.55613e-22
-2.96416e-22
-5.37889e-23
-1.92767e-22
-1.18903e-23
-7.11959e-23
-1.71044e-24
-1.74798e-23
-1.66021e-25
-2.83606e-24
-1.09583e-26
-3.17344e-25
-4.81919e-28
-2.47576e-26
-1.39724e-29
-1.33541e-27
-2.7045e-31
-5.05353e-29
-3.17997e-33
-1.4382e-30
8.53694e-36
-3.42236e-32
5.84908e-36
-6.93552e-34
4.67173e-37
-3.74632e-35
1.6147e-38
-1.22252e-36
3.41575e-40
-2.29844e-38
5.10583e-42
-2.94782e-40
5.79901e-44
-2.72093e-42
4.93771e-46
-1.70875e-44
1.95725e-48
-4.37618e-47
3.1351e-51
5.92508e-50
3.9831e-53
1.12307e-51
4.67067e-55
2.12419e-53
5.61047e-57
3.20166e-55
5.82419e-59
4.09756e-57
5.04685e-61
4.4664e-59
3.54917e-63
4.07584e-61
1.89087e-65
3.00379e-63
6.69958e-68
1.67663e-65
1.4299e-70
6.25983e-68
1.13129e-70
-4.19673e-19
8.98657e-19
-4.83029e-19
1.14643e-18
-3.58323e-19
8.16267e-19
-3.73334e-19
4.92391e-19
-4.24993e-19
3.8467e-19
-3.65431e-19
2.23764e-19
-2.79267e-19
3.0161e-20
-1.38296e-19
-1.91138e-19
-3.06439e-20
-1.52102e-19
-8.15246e-21
-3.2309e-20
-3.76586e-21
-8.5433e-21
-1.20237e-21
-4.85942e-21
-2.53188e-22
-1.67902e-21
-3.54887e-23
-3.97035e-22
-3.42086e-24
-6.34751e-23
-2.27553e-25
-7.14097e-24
-1.01637e-26
-5.70756e-25
-2.97396e-28
-3.20882e-26
-5.51764e-30
-1.28597e-27
-4.12176e-32
-3.93467e-29
2.39873e-33
-1.05295e-30
4.1853e-34
-3.07198e-32
2.50836e-35
-1.77901e-33
8.3763e-37
-5.45281e-35
1.87142e-38
-1.08595e-36
3.06605e-40
-1.53948e-38
3.86199e-42
-1.59149e-40
3.63447e-44
-1.11575e-42
1.57603e-46
-3.12744e-45
2.96193e-49
5.32779e-48
3.98403e-51
1.09092e-49
5.02996e-53
2.1957e-51
6.40129e-55
3.51663e-53
7.10756e-57
4.77595e-55
6.5448e-59
5.52385e-57
4.89021e-61
5.3486e-59
2.77355e-63
4.18577e-61
1.0515e-65
2.48503e-63
2.38213e-68
9.90463e-66
1.93408e-68
5.25128e-05
7.85317e-05
9.89766e-05
5.90698e-05
6.7166e-05
7.53154e-05
8.93137e-05
7.6829e-05
7.4685e-05
7.11614e-05
8.04596e-05
8.35391e-05
7.94734e-05
6.68299e-05
7.34647e-05
8.64684e-05
8.27158e-05
6.25262e-05
6.78699e-05
8.83106e-05
8.46734e-05
5.83715e-05
6.31123e-05
8.94309e-05
8.55908e-05
5.43857e-05
5.88358e-05
8.98673e-05
8.56613e-05
5.05478e-05
5.48482e-05
8.96489e-05
8.50269e-05
4.68369e-05
5.10501e-05
8.8825e-05
8.38375e-05
4.73923e-05
8.74953e-05
4.38599e-05
8.58213e-05
4.04733e-05
8.40343e-05
3.72889e-05
8.24468e-05
3.38548e-05
8.12355e-05
2.05337e-05
7.57906e-05
1.03843e-06
2.58109e-05
9.52479e-08
1.23996e-06
9.14494e-09
1.11249e-07
8.53925e-10
1.0402e-08
7.45538e-11
9.60677e-10
5.8032e-12
7.99197e-11
3.96815e-13
6.16596e-12
2.48098e-14
4.87458e-13
1.08963e-14
1.02275e-13
7.58881e-15
8.21081e-14
4.26833e-15
4.53078e-14
-1.66441e-15
1.86715e-13
-4.64622e-15
1.46434e-12
-7.18356e-15
4.91058e-14
-4.65017e-14
1.31344e-13
-1.44126e-13
3.79947e-13
-6.54173e-13
2.16739e-12
2.7066e-12
-9.85245e-19
5.74147e-05
-2.59513e-18
2.59281e-18
-2.78816e-18
1.11504e-18
-2.3437e-19
-1.62496e-18
5.49351e-05
7.88195e-05
7.26823e-06
4.60095e-05
-9.80172e-20
7.26823e-06
2.01864e-18
-1.42256e-18
8.47539e-05
7.76067e-05
5.91554e-05
7.02973e-05
1.31233e-05
4.96712e-05
1.18825e-05
1.24218e-06
9.16317e-05
7.24449e-05
9.00246e-05
7.18829e-05
7.12681e-05
6.69084e-05
5.37714e-05
2.30434e-05
9.34182e-05
6.73374e-05
9.64335e-05
6.88667e-05
9.46289e-05
6.86856e-05
6.55724e-05
8.26512e-05
9.38955e-05
6.28729e-05
9.7717e-05
6.50462e-05
9.9936e-05
6.64565e-05
6.67423e-05
9.87331e-05
9.38664e-05
5.88738e-05
9.75593e-05
6.13533e-05
0.000100659
6.33559e-05
6.48901e-05
0.000102503
9.33627e-05
5.51601e-05
9.6866e-05
5.78499e-05
0.000100053
6.01689e-05
6.22258e-05
0.000102716
9.23615e-05
5.16236e-05
9.5738e-05
5.44733e-05
9.88919e-05
5.7015e-05
5.93586e-05
0.000101759
9.09115e-05
4.82074e-05
9.42078e-05
5.1177e-05
9.7335e-05
5.38877e-05
5.64293e-05
0.000100264
8.91367e-05
4.4892e-05
9.23676e-05
4.79462e-05
9.54726e-05
5.07826e-05
5.34714e-05
9.84305e-05
8.72336e-05
4.16927e-05
9.03824e-05
4.47974e-05
9.3445e-05
4.772e-05
5.05151e-05
9.64013e-05
8.54734e-05
3.86659e-05
8.8487e-05
4.17838e-05
9.14558e-05
4.47511e-05
4.76123e-05
9.43587e-05
8.41655e-05
3.57366e-05
8.69705e-05
3.89786e-05
8.97631e-05
4.19585e-05
4.48446e-05
9.25308e-05
8.26414e-05
2.88907e-05
8.58486e-05
3.57735e-05
8.86072e-05
3.92005e-05
4.22907e-05
9.1162e-05
6.18717e-05
3.20361e-06
7.99897e-05
2.17955e-05
8.7182e-05
3.2076e-05
3.93543e-05
9.01302e-05
5.17876e-06
3.0926e-07
2.79537e-05
1.28845e-06
6.91866e-05
4.66991e-06
2.58567e-05
8.45688e-05
3.9949e-07
3.3019e-08
1.58084e-06
1.37175e-07
7.41898e-06
5.14552e-07
1.87131e-06
3.46741e-05
4.10065e-08
3.54746e-09
1.65603e-07
1.5808e-08
6.36641e-07
6.62645e-08
2.46956e-07
2.31643e-06
4.22818e-09
3.53612e-10
1.85792e-08
1.72689e-09
7.98611e-08
7.53884e-09
2.9222e-08
3.02251e-07
4.04508e-10
3.26228e-11
1.97666e-09
1.82708e-10
8.73719e-09
8.79239e-10
3.60121e-09
3.3771e-08
3.6371e-11
2.72255e-12
2.00437e-10
1.76756e-11
1.0032e-09
1.00041e-10
4.46097e-10
4.16108e-09
3.01286e-12
1.80203e-13
1.93014e-11
1.59191e-12
1.09402e-10
1.04903e-11
5.35742e-11
5.09072e-10
2.75942e-13
6.98621e-15
1.74891e-12
1.30303e-13
1.13262e-11
1.05287e-12
6.37332e-12
6.05956e-11
7.50015e-14
9.56386e-15
1.88029e-13
1.97819e-14
1.14701e-12
1.0499e-13
7.30786e-13
6.8936e-12
4.78448e-14
8.7998e-15
5.77162e-14
1.24365e-14
1.44831e-13
2.21782e-14
1.11346e-13
7.7937e-13
1.90593e-13
1.50856e-14
8.8233e-14
8.09126e-14
8.91493e-14
2.8832e-14
5.42613e-14
1.51816e-13
2.60377e-12
1.34534e-13
1.34445e-12
4.49256e-13
5.07235e-13
8.72698e-13
3.1522e-13
2.17147e-13
8.82773e-13
-6.4718e-14
2.87179e-12
3.15815e-12
1.7609e-11
1.65516e-11
1.67015e-11
1.37629e-11
3.86992e-11
-1.29124e-14
1.1588e-10
1.34772e-11
5.54425e-11
6.67861e-11
3.01051e-11
8.67719e-12
4.77705e-13
-7.43067e-14
2.12786e-10
4.04275e-12
1.99111e-10
1.51083e-10
1.39186e-10
3.9781e-11
2.39275e-12
-1.75168e-13
5.05231e-10
0
5.46214e-10
5.21335e-10
8.71024e-10
1.50899e-10
2.90429e-12
7.90849e-11
3.54499e-09
2.11521e-09
-1.68908e-18
1.71521e-18
-2.63865e-18
4.00247e-18
-4.69824e-18
5.17643e-18
-8.49845e-18
7.5718e-18
-1.16654e-17
8.2557e-18
-1.27542e-17
5.20058e-18
-1.13148e-17
1.35698e-19
-6.22855e-18
-6.3388e-18
-1.22323e-18
-5.81944e-18
-2.07214e-19
-1.33093e-18
-8.28411e-20
-2.58649e-19
-2.43228e-20
-1.24341e-19
-4.88725e-21
-3.91347e-20
-6.68675e-22
-8.88311e-21
-6.39747e-23
-1.41071e-21
-4.2676e-24
-1.61159e-22
-1.90925e-25
-1.33471e-23
-5.4235e-27
-7.92624e-25
-8.20569e-29
-3.41554e-26
8.19986e-31
-1.16163e-27
2.05797e-31
-3.32168e-29
2.16063e-32
-1.48585e-30
1.14112e-33
-7.15902e-32
3.83899e-35
-2.16826e-33
9.1693e-37
-4.61105e-35
1.6512e-38
-7.21644e-37
2.30651e-40
-8.32727e-39
2.39356e-42
-6.48075e-41
1.09173e-44
-1.90593e-43
2.68255e-47
4.59248e-46
3.83836e-49
1.00314e-47
5.19409e-51
2.14972e-49
7.04561e-53
3.67176e-51
8.32642e-55
5.31401e-53
8.17541e-57
6.54291e-55
6.49396e-59
6.7386e-57
3.9147e-61
5.60485e-59
1.57987e-63
3.53484e-61
3.75805e-66
1.49719e-63
3.12356e-66
-2.7221e-18
3.7806e-18
-1.82385e-17
2.08979e-17
-3.16792e-17
2.79008e-17
-5.2695e-17
3.86655e-17
-7.95377e-17
4.3044e-17
-9.91005e-17
3.30087e-17
-9.26735e-17
-3.57749e-18
-6.30389e-17
-3.24612e-17
-1.79058e-17
-3.49036e-17
-3.95911e-18
-1.2892e-17
-1.50636e-18
-5.162e-18
-4.19281e-19
-2.76693e-18
-8.10428e-20
-7.95993e-19
-1.08799e-20
-1.69346e-19
-1.035e-21
-2.6596e-20
-6.8836e-23
-3.10768e-21
-3.01014e-24
-2.68201e-22
-7.54877e-26
-1.68734e-23
-2.57512e-28
-7.85761e-25
9.03167e-29
-2.94068e-26
1.16249e-29
-9.77839e-28
9.25162e-31
-5.49236e-29
4.55878e-32
-2.41447e-30
1.57046e-33
-7.46285e-32
4.02447e-35
-1.70717e-33
7.95588e-37
-2.94504e-35
1.22787e-38
-3.76801e-37
1.39235e-40
-3.20488e-39
6.28663e-43
-9.05948e-42
2.27498e-45
3.63423e-44
3.47565e-47
8.67481e-46
5.04605e-49
1.97833e-47
7.32705e-51
3.61305e-49
9.25093e-53
5.59103e-51
9.72002e-55
7.35156e-53
8.22295e-57
8.07436e-55
5.27208e-59
7.14989e-57
2.26212e-61
4.79274e-59
5.63186e-64
2.15452e-61
4.77701e-64
6.75074e-08
1.17493e-06
-6.05075e-18
6.80847e-08
-1.21696e-17
4.41225e-17
-2.29227e-17
5.73844e-17
-1.89597e-16
2.59192e-16
-2.44321e-16
1.21485e-16
-2.42696e-16
2.10679e-17
-2.12396e-16
-1.46729e-16
-1.17174e-16
-3.62081e-17
-4.99553e-17
-5.63625e-17
-2.08027e-17
-5.40936e-17
-6.09934e-18
-3.12896e-17
-1.17048e-18
-1.30905e-17
-1.54428e-19
-2.97209e-18
-1.45588e-20
-4.49481e-19
-9.5084e-22
-5.33271e-20
-3.82864e-23
-4.8339e-21
-5.70882e-25
-3.24283e-22
3.91831e-26
-1.66e-23
4.74661e-27
-6.50293e-25
4.75142e-28
-2.93064e-26
3.28209e-29
-1.63147e-27
1.57836e-30
-6.95894e-29
5.65947e-32
-2.23452e-30
1.56423e-33
-5.51873e-32
3.39387e-35
-1.04654e-33
5.76449e-37
-1.47343e-35
7.06284e-39
-1.34538e-37
2.83895e-41
-3.13965e-40
1.77699e-43
2.34656e-42
2.90421e-45
6.94959e-44
4.57073e-47
1.68462e-45
7.12059e-49
3.29564e-47
9.62528e-51
5.46601e-49
1.0796e-52
7.69477e-51
9.74673e-55
9.03237e-53
6.65703e-57
8.53195e-55
3.03875e-59
6.08772e-57
7.95764e-62
2.90657e-59
6.84037e-62
2.83954e-06
1.89331e-05
4.20952e-07
2.47402e-06
2.95853e-08
3.95493e-07
6.16413e-10
2.91897e-08
-2.92548e-17
6.55518e-10
-9.99628e-17
2.0105e-16
-5.05816e-16
5.0084e-16
-1.47211e-15
-4.74777e-17
-1.22317e-15
-4.18311e-16
-5.93597e-16
-8.17497e-16
-2.23487e-16
-5.19933e-16
-6.62701e-17
-1.86632e-16
-1.41225e-17
-1.23619e-16
-1.89787e-18
-3.9043e-17
-1.75565e-19
-7.112e-18
-1.08405e-20
-8.27449e-19
-3.31212e-22
-7.82674e-20
9.35187e-24
-5.69289e-21
1.73882e-24
-3.14e-22
1.68806e-25
-1.30068e-23
1.53648e-26
-7.28622e-25
9.85835e-28
-4.07064e-26
4.74782e-29
-1.73446e-27
1.78975e-30
-5.83008e-29
5.34995e-32
-1.55327e-30
1.27173e-33
-3.22056e-32
2.36297e-35
-4.93771e-34
3.07604e-37
-4.72049e-36
8.66009e-40
-5.87449e-39
1.26017e-41
1.30491e-40
2.20711e-43
5.07774e-42
3.78705e-45
1.3069e-43
6.34101e-47
2.74143e-45
9.19337e-49
4.88121e-47
1.10031e-50
7.37092e-49
1.06218e-52
9.26445e-51
7.74299e-55
9.35337e-53
3.7658e-57
7.11722e-55
1.04208e-59
3.61514e-57
9.03883e-60
3.26633e-05
6.17804e-05
5.25124e-06
2.51627e-05
9.83032e-07
4.60537e-06
1.10143e-07
9.03515e-07
7.2797e-09
1.03866e-07
2.32647e-10
7.27874e-09
-7.28719e-17
2.39245e-10
-2.14713e-14
2.17633e-14
-1.76852e-14
-5.98514e-15
-8.09321e-15
-1.4182e-14
-2.68721e-15
-7.50448e-15
-6.43953e-16
-2.96064e-15
-1.29515e-16
-9.29216e-16
-1.91031e-17
-2.99344e-16
-1.75861e-18
-7.99464e-17
-9.18822e-20
-1.21845e-17
1.17769e-22
-1.15935e-18
5.35985e-22
-9.14803e-20
5.21326e-23
-5.26936e-21
4.95124e-24
-2.5068e-22
4.13987e-25
-1.58525e-23
2.55636e-26
-8.76733e-25
1.24819e-27
-3.78574e-26
4.96018e-29
-1.33121e-27
1.60123e-30
-3.80144e-29
4.14947e-32
-8.53419e-31
8.35163e-34
-1.40277e-32
1.11905e-35
-1.35096e-34
3.78796e-38
3.79376e-38
8.28805e-40
8.7368e-39
1.49477e-41
3.36326e-40
2.84459e-43
9.1792e-42
5.12621e-45
2.06573e-43
7.94583e-47
3.95213e-45
1.02002e-48
6.40802e-47
1.05477e-50
8.63766e-49
8.22093e-53
9.33599e-51
4.26758e-55
7.58986e-53
1.25293e-57
4.10961e-55
1.09373e-57
8.82531e-05
7.20663e-05
4.35163e-05
6.34676e-05
7.95012e-06
3.21391e-05
1.62791e-06
7.09725e-06
2.31117e-07
1.49119e-06
2.14501e-08
2.15866e-07
1.19568e-09
2.09351e-08
2.09338e-11
1.19878e-09
-6.8997e-14
2.15528e-11
-7.35876e-14
-1.00592e-13
-2.77404e-14
-8.17624e-14
-6.99998e-15
-3.45422e-14
-1.13688e-15
-1.01232e-14
-1.43356e-16
-2.22442e-15
-1.29257e-17
-4.95446e-16
-3.14957e-19
-1.27401e-16
9.03715e-20
-1.66152e-17
1.41766e-20
-1.31876e-18
1.25563e-21
-7.8786e-20
1.19273e-22
-4.43732e-21
9.5933e-24
-2.97647e-22
5.84697e-25
-1.66617e-23
2.90646e-26
-7.36122e-25
1.21234e-27
-2.69347e-26
4.19756e-29
-8.14593e-28
1.17471e-30
-1.9501e-29
2.52166e-32
-3.35837e-31
3.30465e-34
-3.05309e-33
1.97935e-36
6.6569e-36
4.66958e-38
5.07146e-37
9.07826e-40
1.9774e-38
1.90591e-41
5.72345e-40
3.69625e-43
1.38188e-41
6.09768e-45
2.84149e-43
8.40681e-47
4.94883e-45
9.3251e-49
7.16047e-47
7.78314e-51
8.29544e-49
4.32023e-53
7.21606e-51
1.35408e-55
4.17277e-53
1.18484e-55
0.000101384
7.31501e-05
9.29139e-05
7.17479e-05
5.28011e-05
6.52522e-05
1.05232e-05
3.93212e-05
2.27455e-06
9.53153e-06
3.73857e-07
2.09206e-06
4.20257e-08
3.48756e-07
2.86829e-09
4.07413e-08
3.79378e-11
2.85021e-09
9.7941e-14
4.14797e-11
-7.55949e-14
-4.38522e-13
-4.54162e-14
-2.20976e-13
-9.28974e-15
-9.15292e-14
-9.6945e-16
-2.01495e-14
-4.22893e-17
-3.25155e-15
7.62339e-18
-6.6714e-16
2.55297e-18
-1.70098e-16
2.79091e-19
-1.7711e-17
2.46766e-20
-1.06819e-18
2.39031e-21
-6.79606e-20
1.93823e-22
-4.82835e-21
1.1992e-23
-2.81769e-22
6.10806e-25
-1.2941e-23
2.65715e-26
-4.92153e-25
9.76494e-28
-1.55677e-26
2.91428e-29
-3.90204e-28
6.53886e-31
-6.83414e-30
7.83559e-33
-5.18871e-32
8.98461e-35
3.84131e-34
2.28074e-36
2.54717e-35
4.79827e-38
1.0139e-36
1.11527e-39
3.11175e-38
2.30173e-41
8.05906e-40
4.07515e-43
1.77931e-41
6.0384e-45
3.32922e-43
7.18877e-47
5.17197e-45
6.4314e-49
6.42603e-47
3.82223e-51
5.98708e-49
1.2857e-53
3.70267e-51
1.12416e-53
0.000104415
7.14429e-05
0.0001035
7.2632e-05
9.64838e-05
7.20811e-05
6.05391e-05
6.70642e-05
1.23611e-05
4.50056e-05
2.76174e-06
1.13933e-05
5.00968e-07
2.56371e-06
6.3037e-08
4.66683e-07
4.71959e-09
6.05183e-08
2.67846e-11
4.68327e-09
7.65962e-13
1.79235e-11
9.15676e-14
-1.77689e-12
2.44006e-15
-5.55219e-13
2.10796e-16
-1.30427e-13
3.0142e-16
-2.16321e-14
1.34691e-16
-3.23773e-15
3.85101e-17
-8.63159e-16
4.81625e-18
-1.75079e-16
4.04624e-19
-1.36825e-17
3.98323e-20
-8.92957e-19
3.36796e-21
-6.70292e-20
2.18578e-22
-4.17724e-21
1.16097e-23
-2.0382e-22
5.26892e-25
-8.13453e-24
2.03658e-26
-2.6753e-25
6.39444e-28
-6.89639e-27
1.46336e-29
-1.18116e-28
1.51657e-31
-5.36604e-31
3.59593e-33
1.65881e-32
9.66344e-35
1.11553e-33
2.22767e-36
4.56233e-35
5.63275e-38
1.48425e-36
1.25167e-39
4.1157e-38
2.38257e-41
9.75112e-40
3.79265e-43
1.95887e-41
4.84582e-45
3.26596e-43
4.64845e-47
4.35171e-45
2.95998e-49
4.34402e-47
1.07046e-51
2.87556e-49
9.3491e-52
0.000104385
6.88157e-05
0.000105854
7.11548e-05
0.000105115
7.27908e-05
9.91343e-05
7.2834e-05
6.56642e-05
6.84986e-05
1.29018e-05
4.78106e-05
2.93449e-06
1.21152e-05
5.60779e-07
2.75554e-06
7.72742e-08
5.26485e-07
5.85671e-09
7.396e-08
3.84677e-11
5.70634e-09
2.91795e-12
-2.85297e-12
2.49295e-13
-4.6384e-12
2.53096e-14
-1.12374e-12
3.98062e-15
-1.93674e-13
9.91216e-16
-2.70164e-14
3.00854e-16
-4.20467e-15
5.87247e-17
-9.3809e-16
5.56069e-18
-1.39941e-16
5.39074e-19
-9.78804e-18
4.89191e-20
-7.81348e-19
3.41969e-21
-5.26972e-20
1.93954e-22
-2.77718e-21
9.27391e-24
-1.17967e-22
3.75136e-25
-4.03757e-24
1.2201e-26
-1.05075e-25
2.74872e-28
-1.65006e-27
4.01447e-30
1.48227e-30
1.3655e-31
7.30987e-31
3.65775e-33
4.39218e-32
9.44244e-35
1.85106e-33
2.56497e-36
6.38784e-35
6.1233e-38
1.89285e-36
1.25174e-39
4.80513e-38
2.13836e-41
1.03501e-39
2.93009e-43
1.85014e-41
3.01264e-45
2.64191e-43
2.0554e-47
2.82473e-45
7.97357e-50
2.00171e-47
6.9737e-50
0.000103223
6.58568e-05
0.000105609
6.87681e-05
0.000106945
7.14462e-05
0.000106264
7.34881e-05
0.000100581
7.39124e-05
6.63038e-05
6.92458e-05
1.17719e-05
4.75229e-05
2.70205e-06
1.12198e-05
5.52066e-07
2.55097e-06
7.72034e-08
5.22371e-07
5.67178e-09
7.33556e-08
8.38848e-11
5.21406e-09
6.72525e-12
-1.25737e-11
5.97948e-13
-7.9876e-12
6.75038e-14
-1.59239e-12
9.66633e-15
-2.35779e-13
1.7246e-15
-3.02067e-14
3.84543e-16
-4.29532e-15
6.25522e-17
-8.54293e-16
6.29245e-18
-9.83527e-17
5.68785e-19
-7.82601e-18
4.37165e-20
-5.46141e-19
2.70201e-21
-3.12123e-20
1.38246e-22
-1.4225e-21
5.86391e-24
-5.08228e-23
1.95298e-25
-1.3075e-24
4.29164e-27
-1.64402e-26
1.19244e-28
1.98027e-28
4.27902e-30
2.64221e-29
1.25201e-31
1.52859e-30
3.55651e-33
6.68661e-32
1.03678e-34
2.4458e-33
2.65428e-36
7.73097e-35
5.81738e-38
2.09892e-36
1.06499e-39
4.83931e-38
1.56321e-41
9.2608e-40
1.7212e-43
1.41548e-41
1.25757e-45
1.61961e-43
5.25047e-48
1.22808e-45
4.58649e-48
0.00010153
6.27572e-05
0.000104312
6.59856e-05
0.000106539
6.92193e-05
0.000107764
7.22508e-05
0.000106996
7.46512e-05
0.000100723
7.52626e-05
6.07145e-05
6.86643e-05
9.20621e-06
4.18783e-05
2.27438e-06
8.7538e-06
4.62485e-07
2.1499e-06
6.33438e-08
4.29541e-07
4.02065e-09
5.77419e-08
1.24771e-10
3.31851e-09
1.06257e-11
-2.73826e-11
1.01123e-12
-9.82842e-12
1.12951e-13
-1.68289e-12
1.34923e-14
-2.17042e-13
2.03243e-15
-2.40302e-14
4.04692e-16
-3.831e-15
5.82014e-17
-6.6517e-16
5.55372e-18
-6.6513e-17
4.28327e-19
-4.76403e-18
2.91681e-20
-2.82073e-19
1.62011e-21
-1.3792e-20
7.28055e-23
-5.11815e-22
2.59289e-24
-1.26644e-23
7.74763e-26
-8.24938e-26
3.24232e-27
8.8227e-27
1.15985e-28
8.12767e-28
3.75185e-30
4.64282e-29
1.17329e-31
2.11629e-30
3.66186e-33
8.1991e-32
1.00288e-34
2.75889e-33
2.35139e-36
7.99273e-35
4.60397e-38
1.96834e-36
7.22619e-40
4.02459e-38
8.50786e-42
6.57311e-40
6.64914e-44
8.03719e-42
2.99679e-46
6.5138e-44
2.60756e-46
9.95594e-05
5.95992e-05
0.00010252
6.30244e-05
0.000105164
6.65753e-05
0.000107242
7.0173e-05
0.000108311
7.35694e-05
0.000107242
7.63018e-05
9.86635e-05
7.68986e-05
4.73058e-05
6.63722e-05
6.69325e-06
3.23811e-05
1.66125e-06
6.53875e-06
3.23577e-07
1.60096e-06
4.08743e-08
3.09076e-07
2.10918e-09
3.66344e-08
1.10703e-10
1.21174e-09
1.04992e-11
-3.25346e-11
1.09907e-12
-8.42147e-12
1.26539e-13
-1.26758e-12
1.50219e-14
-1.47356e-13
1.44202e-15
-1.73463e-14
3.88656e-16
-3.34405e-15
5.17162e-17
-4.39528e-16
3.91269e-18
-4.04028e-17
2.76324e-19
-2.20997e-18
1.64883e-20
-1.11791e-19
8.21767e-22
-4.21442e-21
3.54787e-23
-9.24427e-23
1.63629e-24
9.43603e-25
7.25922e-26
2.66414e-25
2.77153e-27
2.10482e-26
9.71589e-29
1.21197e-27
3.32847e-30
5.76497e-29
1.10941e-31
2.363e-30
3.24148e-33
8.44536e-32
8.10994e-35
2.60445e-33
1.6943e-36
6.83421e-35
2.83749e-38
1.48962e-36
3.5653e-40
2.59422e-38
2.97548e-42
3.38336e-40
1.45269e-44
2.9261e-42
1.25491e-44
9.75053e-05
5.64525e-05
0.000100525
6.00048e-05
0.000103352
6.37477e-05
0.000105841
6.76838e-05
0.000107726
7.16839e-05
0.000108552
7.54637e-05
0.000106843
7.84689e-05
9.40426e-05
7.88067e-05
3.15456e-05
6.63581e-05
4.44278e-06
2.30617e-05
1.11121e-06
4.52821e-06
1.98825e-07
1.12202e-06
2.13963e-08
1.93047e-07
7.60993e-10
1.86946e-08
6.66637e-11
-1.43379e-11
7.39407e-12
-4.53075e-11
8.96007e-13
-7.36124e-12
1.03669e-13
-8.71246e-13
1.02831e-14
-9.31536e-14
7.2389e-16
-1.33576e-14
3.35569e-16
-2.23627e-15
4.28537e-17
-2.37542e-16
2.84705e-18
-1.82972e-17
1.78038e-19
-8.64172e-19
1.03673e-20
-3.12841e-20
5.55944e-22
-4.45321e-22
2.82214e-23
4.57184e-23
1.2966e-24
5.77282e-24
5.38397e-26
4.30163e-25
2.02885e-27
2.53105e-26
7.54209e-29
1.25793e-27
2.67701e-30
5.44663e-29
8.32241e-32
2.06306e-30
2.21616e-33
6.75593e-32
4.92801e-35
1.88432e-33
8.78568e-37
4.36787e-35
1.17556e-38
8.0927e-37
1.04569e-40
1.12335e-38
5.61014e-43
1.03472e-40
4.75697e-43
9.55775e-05
5.34058e-05
9.85544e-05
5.70279e-05
0.000101419
6.08835e-05
0.000104078
6.50243e-05
0.000106358
6.94037e-05
0.000107979
7.38373e-05
0.00010848
7.79746e-05
0.000106052
8.11229e-05
8.62452e-05
8.0332e-05
1.53805e-05
6.74634e-05
3.09807e-06
1.4185e-05
6.97439e-07
3.21522e-06
1.11516e-07
7.06342e-07
1.00469e-08
1.04507e-07
4.39489e-10
7.15547e-09
3.31438e-11
-1.41112e-10
3.51625e-12
-4.67274e-11
4.43894e-13
-6.43415e-12
5.45559e-14
-6.97418e-13
5.47765e-15
-7.20656e-14
4.33578e-16
-9.04498e-15
2.48186e-16
-1.08512e-15
2.87079e-17
-9.88103e-17
1.80713e-18
-5.5324e-18
1.12626e-19
-1.66558e-19
6.56276e-21
2.41682e-21
3.56928e-22
8.74407e-22
1.75147e-23
8.79436e-23
7.81933e-25
6.44631e-24
3.15347e-26
3.90438e-25
1.25602e-27
2.02896e-26
4.73259e-29
9.26061e-28
1.56146e-30
3.70909e-29
4.41387e-32
1.28655e-30
1.04204e-33
3.8044e-32
1.97282e-35
9.35471e-34
2.80448e-37
1.83942e-35
2.65355e-39
2.7112e-37
1.60108e-41
2.65371e-39
1.31055e-41
9.40053e-05
5.05625e-05
9.68306e-05
5.42026e-05
9.96085e-05
5.81054e-05
0.000102273
6.236e-05
0.000104703
6.69733e-05
0.000106703
7.18382e-05
0.000107988
7.66857e-05
0.000108055
8.10436e-05
0.000104639
8.37231e-05
6.38442e-05
7.44132e-05
7.29973e-06
4.34202e-05
1.8225e-06
7.82414e-06
3.68093e-07
1.93346e-06
4.97727e-08
3.69742e-07
3.6295e-09
4.35453e-08
2.18243e-10
1.45673e-09
1.85429e-11
-1.39573e-10
2.03144e-12
-2.93803e-11
2.55711e-13
-3.77414e-12
3.15416e-14
-3.93519e-13
3.76284e-15
-3.89829e-14
7.72093e-16
-4.27584e-15
1.5747e-16
-3.64528e-16
1.42748e-17
-2.27903e-17
9.16344e-19
-3.19008e-19
5.7656e-20
7.03971e-20
3.339e-21
1.03629e-20
1.75774e-22
9.57144e-22
8.39011e-24
7.05514e-23
3.60732e-25
4.41675e-24
1.52456e-26
2.39905e-25
6.07571e-28
1.15121e-26
2.12078e-29
4.86198e-28
6.34368e-31
1.78105e-29
1.58513e-32
5.56701e-31
3.17741e-34
1.44782e-32
4.78498e-36
3.01261e-34
4.8034e-38
4.70181e-36
3.31108e-40
4.87706e-38
2.59177e-40
9.29594e-05
4.77399e-05
9.55561e-05
5.16039e-05
9.81345e-05
5.55269e-05
0.000100666
5.98284e-05
0.000103065
6.4574e-05
0.00010519
6.97126e-05
0.000106826
7.50484e-05
0.000107671
8.02019e-05
0.000106798
8.45839e-05
9.47782e-05
8.61212e-05
2.75295e-05
7.67919e-05
3.65514e-06
2.08371e-05
8.81748e-07
4.23209e-06
1.56395e-07
9.75309e-07
1.7905e-08
1.55239e-07
1.13375e-09
1.32974e-08
8.95221e-11
-9.04299e-11
8.77003e-12
-9.82364e-11
1.11594e-12
-1.60668e-11
1.49323e-13
-1.82479e-12
1.81327e-14
-1.7056e-13
2.4004e-15
-1.47483e-14
5.81745e-16
-1.17906e-15
8.05152e-17
-4.50903e-17
6.08908e-18