/*--------------------------------*- C++ -*----------------------------------*\
  =========                 |
  \\      /  F ield         | OpenFOAM: The Open Source CFD Toolbox
   \\    /   O peration     | Website:  https://openfoam.org
    \\  /    A nd           | Version:  9
     \\/     M anipulation  |
\*---------------------------------------------------------------------------*/
FoamFile
{
    format      ascii;
    class       volScalarField;
    location    "0.35";
    object      epsilon;
}
// * * * * * * * * * * * * * * * * * * * * * * * * * * * * * * * * * * * * * //

dimensions      [0 2 -3 0 0 0 0];

internalField   nonuniform List<scalar> 
1915
(
0.888476
0.720951
0.88617
1.18707
1.22285
1.95822
1.56952
2.95092
1.89711
3.97438
2.21736
5.19662
2.52761
6.3666
2.86379
7.72984
3.25924
9.47039
3.68961
11.8778
0.0501057
0.0804601
0.085127
0.367507
0.086493
0.369656
0.405926
0.435199
0.459095
0.47711
0.485899
0.486744
0.480841
0.469344
0.453419
0.434251
0.413081
0.391482
0.372628
0.382448
0.374059
0.374151
0.371518
0.370398
0.371348
0.37009
0.370178
0.373139
0.370886
0.0859213
0.0853142
0.0855878
0.085155
0.0859306
0.0857523
0.0847079
0.0785074
0.0670768
0.050935
0.0290841
0.123105
0.111076
0.151591
0.179081
0.187097
0.202385
0.206989
0.20951
0.211097
0.211872
0.210484
0.207107
0.202077
0.195757
0.188518
0.180739
0.172822
0.165222
0.158297
0.14987
0.146564
0.139887
0.136964
0.133003
0.128114
0.125242
0.119581
0.116316
0.112875
0.103856
0.100486
0.0943729
0.0896432
0.0814677
0.0742012
0.0673069
0.0609051
0.0527527
0.0411683
0.0222965
0.210194
0.14688
0.164374
0.177261
0.182451
0.183927
0.182459
0.180034
0.177307
0.174044
0.169761
0.164537
0.158587
0.152156
0.145492
0.138829
0.132393
0.126389
0.120923
0.115648
0.111311
0.107261
0.103954
0.101014
0.098305
0.0961823
0.0937918
0.0916243
0.0895425
0.0872676
0.0849965
0.0821507
0.0788975
0.0746728
0.0698086
0.0643514
0.0590051
0.0530399
0.0459692
0.0227641
0.31643
0.190483
0.192232
0.197577
0.198058
0.194964
0.189918
0.18422
0.178408
0.172169
0.165305
0.157933
0.150267
0.142534
0.134947
0.127688
0.12091
0.114725
0.109179
0.104209
0.0998907
0.09618
0.0930365
0.0904199
0.0882093
0.0863616
0.0846682
0.0830966
0.0816207
0.0801337
0.0785363
0.0766695
0.074418
0.0716568
0.0683339
0.0644746
0.0604912
0.0565038
0.053595
0.0227448
0.446454
0.246746
0.233801
0.23227
0.228135
0.221109
0.212518
0.203421
0.194299
0.184762
0.174808
0.164645
0.154535
0.144726
0.135424
0.126784
0.118915
0.111874
0.105669
0.100263
0.0956278
0.0917149
0.0884478
0.0857876
0.0836156
0.0818326
0.0803248
0.0790043
0.0778124
0.0766652
0.0754632
0.0741018
0.072481
0.0705263
0.0681917
0.06552
0.0628018
0.0605904
0.0609494
0.0227649
0.615368
0.321702
0.291028
0.281089
0.27121
0.259553
0.246821
0.233762
0.220696
0.20715
0.193331
0.179577
0.166236
0.153604
0.141899
0.131259
0.121754
0.113393
0.10614
0.0999259
0.0946722
0.0902869
0.0866768
0.0837735
0.0814476
0.0795849
0.0780787
0.0768325
0.0757673
0.0748014
0.0738447
0.0728116
0.071625
0.0702309
0.0686115
0.0668385
0.0651992
0.0644999
0.0682328
0.110817
0.847797
0.42404
0.367197
0.345189
0.327505
0.310021
0.292331
0.274669
0.256774
0.238314
0.219685
0.201398
0.18393
0.167657
0.152825
0.139562
0.127897
0.117785
0.10913
0.10181
0.0956889
0.0906264
0.0865082
0.0832204
0.0806153
0.0785639
0.0769509
0.0756722
0.0746367
0.0737596
0.0729564
0.0721517
0.0712835
0.0703139
0.0692486
0.0681873
0.0674536
0.0680231
0.0740392
0.125256
1.18215
0.567888
0.46739
0.426842
0.398384
0.373508
0.349847
0.326793
0.303066
0.278613
0.254044
0.230104
0.207453
0.186586
0.167799
0.151217
0.136821
0.124497
0.114074
0.105352
0.0981287
0.0922032
0.0874316
0.0836373
0.0806484
0.0783174
0.0765148
0.0751259
0.0740494
0.0731953
0.0724809
0.0718357
0.0712074
0.0705706
0.0699497
0.0694701
0.0695008
0.0711607
0.0791723
0.138489
1.68377
0.776561
0.601866
0.532023
0.488278
0.453485
0.422106
0.392307
0.361386
0.329475
0.297486
0.266467
0.237319
0.210693
0.186957
0.166231
0.148438
0.133377
0.120775
0.110334
0.101759
0.0947907
0.0892182
0.0847978
0.0813262
0.0786318
0.0765667
0.0750023
0.0738266
0.0729426
0.0722653
0.0717262
0.0712782
0.0709058
0.0706476
0.0706522
0.0713345
0.073945
0.0837514
0.15061
2.54048
1.10627
0.798441
0.679877
0.611253
0.560165
0.51647
0.476696
0.435781
0.393882
0.35219
0.312057
0.274638
0.240741
0.2108
0.184911
0.162916
0.144492
0.129232
0.116707
0.106507
0.0983079
0.0917728
0.0865995
0.0825438
0.0794029
0.0770057
0.075206
0.0738786
0.0729175
0.072233
0.071755
0.071439
0.0712758
0.0713155
0.0717273
0.0729697
0.0764171
0.0878546
0.161764
3.58559
7.81512
3.18573
5.60226
2.75154
4.2038
2.37934
3.27343
2.08403
2.66331
1.85719
2.25434
1.68615
1.97201
1.55987
1.77392
1.46986
1.63513
1.40975
1.54011
1.47864
1.44359
1.42982
1.43392
1.4561
1.49707
1.54514
1.56791
1.58233
1.59484
1.61212
1.64389
1.69685
1.77246
1.8682
1.97909
2.09913
2.22319
2.34608
2.46893
2.59491
2.72845
2.87129
12.7826
7.34033
10.2836
8.19496
7.74637
8.59405
24.8982
11.1021
5.45216
6.43583
12.5718
14.3766
4.12157
4.91231
7.42931
9.3993
3.25912
3.8738
5.07469
6.3632
2.68095
3.14464
3.82547
4.63387
2.28422
2.63011
3.07046
3.60003
2.00802
2.26784
2.5768
2.94294
1.81485
2.01315
2.24092
2.50582
1.68079
1.83476
2.00819
2.20664
1.5901
1.71128
1.84621
1.99871
1.53218
1.62814
1.73438
1.85357
1.49975
1.57548
1.65929
1.75311
1.48784
1.54681
1.61231
1.68588
1.49496
1.53854
1.58818
1.64489
1.5222
1.55061
1.58523
1.62653
1.5667
1.58275
1.60383
1.63043
1.60156
1.62538
1.64088
1.65607
1.62448
1.6571
1.68013
1.6971
1.64552
1.68596
1.71645
1.73806
1.66725
1.71275
1.75047
1.77988
1.69972
1.74532
1.78329
1.81521
1.75149
1.79354
1.82651
1.85388
1.82594
1.86318
1.88831
1.90635
1.92194
1.95496
1.97177
1.97858
2.03571
2.06662
2.0765
2.07249
2.16262
2.19513
2.20118
2.18849
2.29901
2.33864
2.34574
2.32787
2.44353
2.49815
2.51313
2.49465
2.59917
2.67902
2.71064
2.69675
2.77079
2.89017
2.94965
2.94595
2.96699
3.14421
3.24411
3.25618
3.19303
3.44996
3.60591
3.63977
2.56513
1.60759
1.14248
0.933802
0.81039
0.722517
0.65237
0.593257
0.535466
0.47827
0.422666
0.370043
0.321633
0.278286
0.240407
0.207999
0.180753
0.158166
0.139647
0.124586
0.112458
0.102785
0.0950977
0.0890252
0.0842708
0.0805925
0.0777893
0.0756932
0.0741625
0.0730795
0.0723466
0.07189
0.0716651
0.0716663
0.0719526
0.0727113
0.0744423
0.0786387
0.0915834
0.172193
5.62237
3.08374
2.00562
1.501
1.20919
1.0168
0.877491
0.771818
0.679805
0.595401
0.517381
0.44607
0.382095
0.325889
0.277518
0.236675
0.202746
0.174935
0.152377
0.134224
0.119792
0.108333
0.0992589
0.0921108
0.0865237
0.0822041
0.0789133
0.0764549
0.0746666
0.0734158
0.0725939
0.0721208
0.0719492
0.0720749
0.0725633
0.0736175
0.0757763
0.0806472
0.0949933
0.182017
12.848
7.67835
4.42455
2.95316
2.12508
1.62814
1.30054
1.07533
0.906912
0.768705
0.650803
0.549078
0.461566
0.387012
0.324318
0.272329
0.229786
0.195366
0.167781
0.145929
0.128678
0.115055
0.104318
0.0958912
0.08932
0.084245
0.0803786
0.0774887
0.0753871
0.0739221
0.0729709
0.0724445
0.0722903
0.0725031
0.0731528
0.074456
0.0769881
0.082466
0.0981178
0.191313
10.6118
10.4964
8.89825
6.26771
4.19496
2.94873
2.16874
1.64064
1.29612
1.04505
0.85078
0.695567
0.569836
0.467513
0.384363
0.31716
0.263251
0.220325
0.186533
0.160104
0.139378
0.12312
0.110383
0.100433
0.092701
0.0867402
0.0822004
0.078804
0.0763298
0.0746024
0.0734808
0.0728643
0.0726929
0.0729581
0.0737318
0.0752423
0.078099
0.0841241
0.100998
0.200171
7.5678
8.36176
8.92697
8.85118
7.34673
5.44051
3.8948
2.75176
2.0066
1.51573
1.17019
0.915708
0.724009
0.577113
0.46326
0.374473
0.305135
0.251134
0.20954
0.177296
0.152237
0.132746
0.11759
0.105824
0.0967217
0.0897247
0.0844011
0.0804155
0.0775057
0.0754646
0.0741302
0.0733869
0.0731644
0.0734488
0.0743119
0.0759917
0.0791292
0.0856482
0.103672
0.208678
5.52729
6.32284
7.07636
7.85904
8.35466
7.7592
6.32805
4.73432
3.339
2.34955
1.70758
1.26481
0.954544
0.732354
0.570073
0.449353
0.358382
0.28993
0.237977
0.198227
0.1677
0.144209
0.126112
0.11217
0.101449
0.0932409
0.0870083
0.0823419
0.078928
0.0765188
0.0749277
0.0740202
0.0737131
0.0739847
0.0749048
0.0767189
0.0800974
0.0870625
0.106171
0.21691
4.23148
4.86868
5.52353
6.24656
7.08704
7.80941
7.78554
6.84958
5.35828
3.80734
2.63636
1.8409
1.31583
0.961929
0.719834
0.549837
0.428193
0.339449
0.273451
0.223846
0.186334
0.15785
0.136155
0.119599
0.106962
0.0973379
0.0900534
0.0846041
0.0806106
0.0777759
0.0758822
0.0747724
0.0743476
0.0745754
0.0755217
0.0774377
0.0810209
0.0883886
0.108527
0.224936
3.39301
3.87708
4.39665
4.98237
5.68045
6.52201
7.33737
7.64446
7.0821
5.73192
4.09898
2.80058
1.9025
1.31575
0.938003
0.690314
0.52206
0.403668
0.318168
0.25541
0.208866
0.174095
0.147972
0.128261
0.11335
0.10207
0.0935705
0.0872243
0.0825687
0.0792466
0.0770023
0.0756514
0.0750755
0.0752295
0.0761729
0.0781606
0.0819151
0.0896459
0.110765
0.232816
2.83374
3.19914
3.60097
4.05947
4.60904
5.28924
6.12103
6.97334
7.45063
7.11029
5.85994
4.18838
2.81886
1.87245
1.26982
0.89304
0.650777
0.488206
0.375144
0.294575
0.236222
0.193469
0.161861
0.138327
0.120713
0.107498
0.0975956
0.0902264
0.0848167
0.0809407
0.0782954
0.0766638
0.0759038
0.0759547
0.0768674
0.0788985
0.0827935
0.0908516
0.112909
0.240602
2.45125
2.72925
3.03941
3.39535
3.82296
4.35671
5.03082
5.85769
6.71927
7.25839
6.99853
5.76496
4.07612
2.69915
1.76701
1.1873
0.829534
0.60085
0.448441
0.343502
0.26957
0.21661
0.178177
0.149996
0.129163
0.113683
0.102165
0.0936328
0.0873672
0.0828658
0.0797673
0.0778145
0.0768376
0.0767569
0.0776125
0.0796607
0.0836678
0.0920205
0.114979
0.248339
2.18514
2.39917
2.6402
2.91746
3.25013
3.66696
4.20138
4.88248
5.71317
6.56849
7.08935
6.76969
5.45983
3.78899
2.47303
1.60806
1.0782
0.751917
0.543369
0.404952
0.310362
0.244289
0.197332
0.163488
0.138819
0.12069
0.107315
0.0974565
0.0902283
0.0850267
0.0814208
0.0791061
0.07788
0.0776403
0.078414
0.0804547
0.0845479
0.0931652
0.116991
0.256061
1.9981
2.16488
2.35387
2.57172
2.83221
3.15841
3.58045
4.1296
4.82969
5.67128
6.49816
6.91101
6.40819
4.97695
3.37773
2.18207
1.4185
0.953827
0.66646
0.482304
0.360343
0.277408
0.219791
0.179045
0.149805
0.128586
0.113082
0.101714
0.093405
0.0874239
0.0832554
0.0805382
0.0790314
0.0786067
0.0792751
0.0812859
0.0854411
0.094296
0.118961
0.263796
1.86637
1.99757
2.14697
2.31971
2.52575
2.78278
3.11657
3.55698
4.13195
4.85911
5.70559
6.45638
6.66647
5.90313
4.37135
2.90177
1.86539
1.21882
0.824856
0.579374
0.421489
0.316974
0.246063
0.19692
0.162246
0.137429
0.119488
0.106411
0.0968958
0.0900533
0.0852664
0.082107
0.0802894
0.0796553
0.080197
0.0821571
0.0863528
0.0954206
0.120897
0.271562
1.77477
1.87839
1.99708
2.13498
2.29954
2.50406
2.76946
3.12276
3.59191
4.19963
4.95242
5.77489
6.38358
6.30272
5.24814
3.70098
2.41298
1.5539
1.02468
0.699879
0.495815
0.364024
0.276661
0.21736
0.17626
0.147279
0.126538
0.111542
0.100691
0.0929041
0.0874441
0.0838046
0.0816481
0.0807823
0.081178
0.0830691
0.0872859
0.0965442
0.122809
0.279369
1.71394
1.79534
1.88948
1.99976
2.13197
2.29621
2.50894
2.79339
3.17621
3.68164
4.32424
5.09041
5.84625
6.22539
5.75814
4.45757
3.02205
1.95367
1.26823
0.846388
0.584989
0.419469
0.312042
0.240582
0.191943
0.158162
0.13423
0.117092
0.104771
0.095958
0.0897728
0.0856181
0.0830977
0.0819805
0.0822134
0.0840195
0.0882404
0.0976695
0.124701
0.287217
1.67845
1.74118
1.81491
1.90249
2.00858
2.14107
2.31289
2.5433
2.85667
3.27749
3.82404
4.49971
5.25655
5.86659
5.8844
5.00983
3.62113
2.39513
1.55065
1.01885
0.689721
0.483856
0.352506
0.266728
0.209371
0.170041
0.142528
0.123024
0.109103
0.0991879
0.0922303
0.0875298
0.0846241
0.0832394
0.0832956
0.0850034
0.0892137
0.098796
0.126574
0.295096
1.66618
1.71191
1.76783
1.83595
1.92006
2.02654
2.16572
2.35345
2.61123
2.96288
3.4284
4.01691
4.7142
5.40058
5.73063
5.29132
4.13025
2.83935
1.85793
1.21315
0.809058
0.557059
0.398077
0.295827
0.228453
0.182852
0.151365
0.129281
0.113642
0.102556
0.0947869
0.0895161
0.0862089
0.0845445
0.0844136
0.0860126
0.0902006
0.0999208
0.128426
0.302989
1.6769
1.70624
1.74518
1.79572
1.86059
1.9448
2.05693
2.2102
2.42327
2.7185
3.11654
3.62961
4.2536
4.93226
5.43221
5.33953
4.47274
3.24103
2.16801
1.42049
0.939836
0.637991
0.448386
0.327733
0.248986
0.196445
0.160632
0.135781
0.118325
0.106016
0.0974054
0.0915481
0.087829
0.0858775
0.0855529
0.0870361
0.0911925
0.101038
0.13025
0.310867
1.70829
1.72353
1.74606
1.77939
1.82643
1.89088
1.97964
2.10408
2.28054
2.52952
2.87155
3.32053
3.87657
4.51212
5.08185
5.22676
4.64855
3.55474
2.45566
1.62844
1.07671
0.724522
0.50272
0.361648
0.270582
0.210579
0.170168
0.142412
0.123072
0.109507
0.100041
0.0935908
0.0894572
0.0872167
0.0866962
0.0880598
0.0921787
0.102138
0.132039
0.318694
1.75144
1.7612
1.76921
1.78597
1.81539
1.86133
1.92921
2.02863
2.17422
2.38477
2.68008
3.07483
3.57157
4.15353
4.73216
5.0246
4.68675
3.76222
2.69711
1.82395
1.21326
0.813833
0.558607
0.396502
0.292648
0.224908
0.179757
0.149034
0.127785
0.11296
0.102642
0.0956044
0.0910619
0.0885368
0.0878229
0.0890671
0.0931454
0.103211
0.13378
0.326425
1.79857
1.80686
1.81025
1.81342
1.82619
1.85386
1.90218
1.97916
2.0979
2.27584
2.53181
2.88058
3.32606
3.85519
4.41149
4.78444
4.62707
3.87267
2.87403
1.99016
1.33904
0.8987
0.613025
0.4308
0.314398
0.23899
0.189137
0.155479
0.132353
0.116296
0.10515
0.0975448
0.0926084
0.0898099
0.0889101
0.0900391
0.0940768
0.104243
0.135459
0.334007
1.84256
1.85936
1.8617
1.85749
1.85691
1.86682
1.89579
1.95193
2.04666
2.19628
2.4187
2.7283
3.12945
3.6104
4.1312
4.53535
4.50419
3.90245
2.98763
2.11609
1.44322
0.973542
0.662868
0.462871
0.334929
0.25232
0.19801
0.161562
0.136654
0.119431
0.107503
0.0993647
0.0940596
0.091006
0.0899331
0.090955
0.0949555
0.105218
0.13706
0.341381
1.88006
1.9035
1.9156
1.91257
1.90465
1.89841
1.90775
1.94352
2.0163
2.14089
2.33435
2.61038
2.97314
3.41127
3.89244
4.2974
4.34742
3.86916
3.04209
2.20051
1.52243
1.03475
0.705569
0.491152
0.353337
0.264374
0.206062
0.167088
0.14056
0.122275
0.109638
0.101016
0.0953774
0.092094
0.0908661
0.091793
0.0957627
0.10612
0.138564
0.348482
1.92349
1.9425
1.95946
1.96658
1.96123
1.94603
1.93559
1.95075
2.00287
2.10512
2.27339
2.52055
2.85002
3.2502
3.69147
4.08009
4.17649
3.78835
3.04364
2.24397
1.57482
1.07996
0.739186
0.514325
0.368805
0.274661
0.212995
0.171868
0.143946
0.124744
0.111491
0.10245
0.096524
0.0930433
0.0916833
0.092531
0.0964793
0.106931
0.139953
0.355242
1.98278
1.99078
2.00344
2.01476
2.02058
2.0024
1.97505
1.97006
2.00253
2.08477
2.23116
2.45345
2.75385
3.11992
3.52281
3.88477
3.99835
3.67182
3.00076
2.24995
1.60069
1.10813
0.762477
0.531409
0.380671
0.282758
0.218543
0.175732
0.146698
0.126756
0.113004
0.103623
0.0974636
0.0938242
0.0923599
0.0931477
0.0970866
0.107636
0.141207
0.361591
2.06293
2.05741
2.06058
2.06805
2.07273
2.05799
2.02209
1.99803
2.0117
2.07595
2.20343
2.40432
2.67915
3.01403
3.37967
3.70827
3.81862
3.53163
2.92409
2.22412
1.60188
1.11924
0.774837
0.541784
0.388465
0.288346
0.222495
0.178538
0.148721
0.128243
0.114126
0.104494
0.0981642
0.0944103
0.0928732
0.0936233
0.097567
0.108217
0.142308
0.367462
2.1661
2.14616
2.13626
2.1332
2.12804
2.11342
2.07057
2.03008
2.02691
2.07506
2.18632
2.36886
2.62109
2.9272
3.25717
3.54826
3.64067
3.37773
2.82277
2.17164
1.58049
1.1138
0.776162
0.545183
0.391932
0.291228
0.224708
0.180187
0.14994
0.129152
0.114815
0.105032
0.0985992
0.0947789
0.0932036
0.0939407
0.0979051
0.10866
0.143239
0.37279
2.29435
2.25905
2.23212
2.21197
2.19016
2.16747
2.11853
2.06408
2.04513
2.07882
2.17625
2.34312
2.57514
2.85434
3.14997
3.40189
3.467
3.21467
2.7013
2.09561
1.53832
1.09275
0.766839
0.541705
0.391047
0.291342
0.22512
0.180623
0.150313
0.129448
0.115044
0.105212
0.0987486
0.0949129
0.0933358
0.094086
0.0980885
0.108954
0.143985
0.377516
2.45164
2.39892
2.34967
2.30528
2.26136
2.22552
2.16542
2.09492
2.06205
2.08377
2.16984
2.32331
2.53681
2.79007
3.05168
3.26251
3.29441
3.04326
2.5625
1.99911
1.47789
1.05779
0.747855
0.531842
0.386026
0.288766
0.223749
0.179842
0.149826
0.129114
0.114797
0.105022
0.0986003
0.0948012
0.0932598
0.0940497
0.0981083
0.10909
0.144537
0.381591
2.64488
2.57035
2.4911
2.41365
2.34103
2.28458
2.20629
2.11846
2.07426
2.08686
2.16398
2.30582
2.50169
2.72908
2.95604
3.12362
3.1188
2.86325
2.40943
1.88637
1.4029
1.0115
0.720755
0.516434
0.377292
0.283705
0.220688
0.177884
0.148495
0.128156
0.114075
0.104458
0.0981507
0.0944397
0.0929711
0.0938275
0.0979597
0.109062
0.144885
0.384978
2.88383
2.77934
2.65904
2.53782
2.42782
2.34116
2.23855
2.1334
2.07988
2.08579
2.156
2.2873
2.46558
2.66649
2.85744
2.98049
2.93896
2.67679
2.24692
1.76282
1.31783
0.956959
0.687423
0.496537
0.365408
0.276451
0.21609
0.17483
0.146364
0.126599
0.112891
0.103529
0.0974049
0.0938315
0.0924714
0.0934199
0.0976428
0.10887
0.145029
0.387652
3.17941
3.03117
2.8537
2.676
2.5183
2.38571
2.25055
2.13643
2.0773
2.07898
2.1438
2.26484
2.42483
2.5983
2.75186
2.83085
2.75588
2.48784
2.08069
1.63418
1.22723
0.897293
0.649794
0.473278
0.351007
0.267353
0.210148
0.170789
0.143497
0.124482
0.111272
0.102253
0.0963764
0.0929864
0.0917682
0.0928326
0.0971618
0.108518
0.144969
0.389604
3.54036
3.32629
3.06906
2.81908
2.59999
2.41195
2.24879
2.12974
2.06723
2.06625
2.12615
2.23628
2.37683
2.52196
2.63787
2.67568
2.57189
2.30065
1.91601
1.50539
1.13496
0.835161
0.609566
0.447693
0.334704
0.256775
0.203079
0.165893
0.139977
0.12186
0.109256
0.10066
0.0950872
0.0919223
0.090876
0.0920776
0.0965266
0.108012
0.144711
0.390833
)
;

boundaryField
{
    leftWall
    {
        type            epsilonWallFunction;
        value           nonuniform List<scalar> 0();
    }
    rightWall
    {
        type            epsilonWallFunction;
        value           nonuniform List<scalar> 
43
(
0.0290841
0.0222965
0.0227641
0.0227448
0.0227649
0.110817
0.125256
0.138489
0.15061
0.161764
0.172193
0.182017
0.191313
0.200171
0.208678
0.21691
0.224936
0.232816
0.240602
0.248339
0.256061
0.263796
0.271562
0.279369
0.287217
0.295096
0.302989
0.310867
0.318694
0.326425
0.334007
0.341381
0.348482
0.355242
0.361591
0.367462
0.37279
0.377516
0.381591
0.384978
0.387652
0.389604
0.390833
)
;
    }
    lowerWall
    {
        type            epsilonWallFunction;
        value           nonuniform List<scalar> 
66
(
0.888476
0.720951
0.720951
1.18707
1.95822
2.95092
3.97438
5.19662
6.3666
7.72984
9.47039
11.8778
12.7826
7.34033
10.2836
8.19496
0.0501057
0.123105
0.210194
0.31643
0.446454
0.615368
0.847797
1.18215
1.68377
2.54048
0.0501057
0.0804601
0.085127
0.367507
0.086493
0.369656
0.405926
0.435199
0.459095
0.47711
0.485899
0.486744
0.480841
0.469344
0.453419
0.434251
0.413081
0.391482
0.372628
0.382448
0.374059
0.374151
0.371518
0.370398
0.371348
0.37009
0.370178
0.373139
0.370886
0.0859213
0.0853142
0.0855878
0.085155
0.0859306
0.0857523
0.0847079
0.0785074
0.0670768
0.050935
0.0290841
)
;
    }
    atmosphere
    {
        type            inletOutlet;
        inletValue      nonuniform List<scalar> 0();
        value           nonuniform List<scalar> 0();
    }
    defaultFaces
    {
        type            empty;
    }
    procBoundary1to0
    {
        type            processor;
        value           nonuniform List<scalar> 
44
(
1.01884
1.09199
1.26177
1.37595
1.4829
1.59654
1.72001
1.85606
2.00072
2.13023
2.16445
2.0901
1.95489
1.80707
1.66955
1.55092
1.45414
1.37974
1.32706
1.29493
1.37466
1.37466
1.36062
1.36411
1.38397
1.42219
1.47725
1.51348
1.52377
1.52938
1.53372
1.54595
1.57528
1.62635
1.69906
1.78986
1.89293
2.00066
2.10563
2.20362
2.29341
2.37606
2.4535
2.52631
)
;
    }
    procBoundary1to3
    {
        type            processor;
        value           nonuniform List<scalar> 
45
(
3.01894
3.44527
3.80616
4.0406
4.10589
3.97322
3.66306
3.29906
2.96531
2.67708
2.43648
2.24931
2.12062
2.05331
2.04911
2.10294
2.2005
2.3204
2.43684
2.51674
2.5182
2.39052
2.11908
1.75668
1.37984
1.0437
0.77251
0.568068
0.420647
0.31705
0.245064
0.195103
0.160286
0.135903
0.118803
0.106895
0.0987882
0.0935685
0.0906649
0.0898167
0.0911737
0.0957531
0.107367
0.144264
0.391336
)
;
    }
}


// ************************************************************************* //
