/*--------------------------------*- C++ -*----------------------------------*\
  =========                 |
  \\      /  F ield         | OpenFOAM: The Open Source CFD Toolbox
   \\    /   O peration     | Website:  https://openfoam.org
    \\  /    A nd           | Version:  9
     \\/     M anipulation  |
\*---------------------------------------------------------------------------*/
FoamFile
{
    format      ascii;
    class       volScalarField;
    location    "0.35";
    object      k;
}
// * * * * * * * * * * * * * * * * * * * * * * * * * * * * * * * * * * * * * //

dimensions      [0 2 -2 0 0 0 0];

internalField   nonuniform List<scalar> 
1915
(
0.0304108
0.0263762
0.0692188
0.0443142
0.110925
0.0618059
0.145576
0.0812328
0.176535
0.0990294
0.205048
0.118402
0.231913
0.135582
0.259178
0.154297
0.289003
0.176654
0.322507
0.205449
0.00971613
0.0156222
0.0166534
0.0167644
0.017123
0.016967
0.018064
0.0189282
0.0196203
0.0201401
0.0203962
0.0204289
0.0202718
0.0199546
0.0195065
0.0189568
0.0183368
0.0176887
0.0171083
0.0174802
0.0169934
0.0171043
0.0168163
0.0167371
0.0167272
0.0167814
0.0167541
0.0167942
0.016705
0.0169065
0.0167707
0.0167866
0.0166767
0.0167811
0.0167087
0.0164539
0.0152282
0.0129991
0.00986589
0.00746168
0.0101564
0.0222091
0.0276679
0.0310246
0.0337314
0.0359689
0.0378341
0.0392895
0.0404038
0.0411256
0.0414923
0.0415356
0.0412866
0.040779
0.0400503
0.0391418
0.0380984
0.0369692
0.0358046
0.0345443
0.0334853
0.0323256
0.0313474
0.030403
0.029542
0.0287227
0.0279783
0.0272854
0.0265946
0.0259549
0.025245
0.0244731
0.0236559
0.0227522
0.0217277
0.0204909
0.018625
0.0158966
0.0121196
0.00844602
0.0145337
0.0302027
0.0378091
0.0425409
0.0458123
0.0482234
0.0500211
0.0513533
0.052319
0.0528973
0.0531077
0.0529742
0.0525255
0.0517954
0.0508235
0.0496543
0.048336
0.0469189
0.045451
0.0439577
0.0424979
0.0410807
0.0397409
0.0385003
0.0373548
0.0363007
0.0353004
0.0343424
0.0333936
0.0324452
0.0314486
0.030368
0.0291744
0.027814
0.0262384
0.0243609
0.0219726
0.0187881
0.0143481
0.00867789
0.0190959
0.0384853
0.0474106
0.0528063
0.0562881
0.0585991
0.0601518
0.0612001
0.0618827
0.0621844
0.0621239
0.061724
0.0610124
0.0600228
0.0587953
0.0573744
0.055808
0.0541452
0.052432
0.0507065
0.0490071
0.0473645
0.0457992
0.0443472
0.0430036
0.0417578
0.0405848
0.0394599
0.0383527
0.037236
0.036071
0.0348134
0.033415
0.0318211
0.0299633
0.0277476
0.0250155
0.0214848
0.016536
0.00868812
0.024005
0.0473385
0.0573525
0.0630955
0.0665476
0.068615
0.0698284
0.0705072
0.0708176
0.0707451
0.0703205
0.0695707
0.0685255
0.0672199
0.0656939
0.063992
0.0621605
0.0602461
0.0582929
0.0563403
0.0544239
0.0525726
0.0508083
0.0491667
0.0476442
0.0462295
0.0449018
0.043634
0.0423941
0.0411461
0.0398513
0.0384605
0.0369195
0.0351673
0.0331288
0.0307034
0.0277367
0.0239423
0.0186169
0.00874679
0.0296868
0.0572298
0.0681058
0.073915
0.0771141
0.0788055
0.0795983
0.0798422
0.0797054
0.0791789
0.07831
0.0771337
0.0756845
0.0740004
0.0721231
0.0700971
0.0679672
0.0657776
0.0635697
0.0613807
0.0592433
0.0571831
0.0552241
0.0533977
0.0517008
0.0501227
0.048644
0.0472376
0.04587
0.0445016
0.043091
0.0415859
0.0399285
0.0380532
0.0358797
0.0333017
0.0301566
0.0261397
0.0204544
0.00945854
0.0366747
0.0686926
0.0799233
0.0854216
0.0881284
0.0893215
0.0896345
0.0894136
0.0887681
0.0877302
0.0863562
0.0846899
0.0827734
0.0806507
0.0783672
0.0759689
0.0735003
0.0710033
0.0685161
0.0660723
0.0637003
0.061422
0.0592646
0.0572507
0.0553771
0.0536336
0.0520015
0.050454
0.0489572
0.0474697
0.0459471
0.0443352
0.0425733
0.0405918
0.038306
0.0356029
0.0323087
0.0280938
0.0220774
0.0102634
0.0456458
0.0823991
0.0929223
0.0975627
0.0995293
0.100133
0.099939
0.0992459
0.0980727
0.0964961
0.0945792
0.0923767
0.0899414
0.0873266
0.0845845
0.0817652
0.0789147
0.0760736
0.073277
0.0705543
0.0679292
0.0654196
0.0630554
0.060847
0.0587906
0.0568759
0.0550848
0.0533909
0.05176
0.0501504
0.0485151
0.0467981
0.0449362
0.0428565
0.0404696
0.0376555
0.0342282
0.0298324
0.0235119
0.0109767
0.0576163
0.099185
0.10726
0.110287
0.111275
0.111225
0.110514
0.109345
0.107651
0.105525
0.103042
0.10027
0.0972746
0.0941216
0.090873
0.0875856
0.0843093
0.0810851
0.0779459
0.0749168
0.0720162
0.0692619
0.0666785
0.0642656
0.0620178
0.0599241
0.0579666
0.0561192
0.054348
0.0526112
0.0508596
0.0490358
0.0470745
0.0448993
0.0424165
0.0394987
0.0359481
0.0313849
0.0247859
0.0116113
0.0756475
0.121259
0.123685
0.124101
0.123805
0.122951
0.121618
0.119899
0.11763
0.114906
0.111813
0.108431
0.104835
0.1011
0.0973
0.0934991
0.0897532
0.0861058
0.0825887
0.0792233
0.0760232
0.0730109
0.0701925
0.0675625
0.0651129
0.0628311
0.0606987
0.0586899
0.0567711
0.0549005
0.0530275
0.0510934
0.0490307
0.0467601
0.0441831
0.0411655
0.037498
0.0327782
0.0259246
0.0121811
0.346602
0.251751
0.358003
0.301027
0.364564
0.333865
0.369604
0.352199
0.373838
0.36347
0.377581
0.37124
0.381184
0.377262
0.385027
0.382624
0.389441
0.387989
0.394657
0.393732
0.400043
0.406985
0.414545
0.422738
0.431985
0.442645
0.453068
0.458231
0.460797
0.461624
0.461555
0.461852
0.463245
0.465644
0.468442
0.470849
0.472189
0.472155
0.471002
0.469507
0.468757
0.469813
0.4733
0.181387
0.124106
0.15525
0.132904
0.234473
0.225302
0.450338
0.331546
0.280548
0.253128
0.328057
0.390524
0.316003
0.283812
0.29291
0.324657
0.339947
0.312448
0.297826
0.300297
0.355787
0.334742
0.315192
0.30291
0.366781
0.351087
0.333089
0.316326
0.375251
0.363438
0.348357
0.331824
0.3826
0.373488
0.361086
0.346267
0.389594
0.382324
0.372026
0.359092
0.396627
0.39057
0.381821
0.370519
0.403883
0.398558
0.390884
0.380866
0.411446
0.406478
0.399484
0.390402
0.41937
0.41448
0.407842
0.399376
0.427979
0.422786
0.416191
0.408062
0.437815
0.431894
0.424957
0.416799
0.448689
0.442097
0.434634
0.426105
0.456613
0.452203
0.445071
0.436277
0.461274
0.459088
0.454082
0.446685
0.464106
0.463902
0.46092
0.455231
0.465298
0.466574
0.465516
0.461926
0.466138
0.468049
0.467825
0.465551
0.467624
0.469524
0.469312
0.467326
0.469952
0.471554
0.470904
0.468529
0.4727
0.473988
0.472802
0.469793
0.475214
0.476362
0.474798
0.471249
0.47694
0.478283
0.47669
0.472905
0.477697
0.479712
0.478583
0.474987
0.477859
0.481153
0.481083
0.478134
0.478386
0.48369
0.485336
0.483449
0.480624
0.48883
0.492892
0.492379
0.485895
0.498134
0.50532
0.506381
0.49505
0.512648
0.523737
0.526488
0.121512
0.150189
0.144916
0.141592
0.139138
0.136797
0.134299
0.131631
0.128498
0.12497
0.121122
0.117026
0.112754
0.108378
0.103972
0.0996064
0.0953427
0.0912275
0.0872927
0.0835559
0.080035
0.0767431
0.0736706
0.0708076
0.0681427
0.065661
0.0633432
0.0611632
0.0590877
0.0570752
0.0550736
0.0530233
0.0508549
0.048486
0.0458137
0.0426972
0.0389161
0.0340479
0.0269586
0.0127029
0.242668
0.206425
0.183696
0.171036
0.162892
0.156596
0.151142
0.146225
0.14135
0.136412
0.131402
0.126329
0.121211
0.116081
0.110988
0.105994
0.101155
0.0965205
0.0921225
0.0879779
0.0841128
0.0805132
0.0771634
0.0740482
0.0711516
0.0684561
0.0659404
0.0635779
0.0613352
0.059171
0.0570321
0.054858
0.0525777
0.050106
0.0473353
0.0441187
0.0402256
0.035215
0.0279059
0.0131856
0.39463
0.328197
0.266875
0.230522
0.206945
0.190332
0.177443
0.167064
0.158336
0.150556
0.143431
0.136771
0.130435
0.124329
0.118413
0.112697
0.107215
0.102003
0.0970933
0.0925178
0.0882737
0.0843371
0.0806857
0.0772981
0.0741533
0.0712298
0.0685038
0.0659476
0.0635275
0.0612022
0.0589173
0.0566119
0.0542132
0.0516334
0.0487609
0.0454424
0.0414383
0.0362908
0.0287766
0.0136351
0.362926
0.389321
0.380529
0.334973
0.28676
0.250467
0.222854
0.200528
0.183639
0.170061
0.158825
0.149285
0.140939
0.133397
0.126397
0.119806
0.113579
0.107717
0.102256
0.09721
0.0925487
0.0882427
0.0842629
0.080581
0.0771699
0.0740033
0.0710543
0.0682931
0.0656854
0.0631891
0.0607492
0.0583042
0.05578
0.0530863
0.0501075
0.0466848
0.0425698
0.0372895
0.0295828
0.0140575
0.318761
0.347025
0.382044
0.404688
0.384729
0.341832
0.297416
0.25659
0.224217
0.199592
0.180553
0.165625
0.153696
0.143798
0.135204
0.127459
0.120328
0.113723
0.107662
0.10209
0.0969666
0.0922548
0.0879171
0.083917
0.0802203
0.0767949
0.0736095
0.070632
0.0678268
0.0651491
0.0625448
0.0599518
0.0572947
0.0544806
0.0513906
0.0478604
0.0436337
0.0382238
0.0303347
0.0144581
0.301787
0.31416
0.340185
0.378288
0.413804
0.416282
0.386244
0.339826
0.289387
0.246093
0.213515
0.188875
0.170479
0.156473
0.145312
0.135897
0.127586
0.120129
0.113365
0.107195
0.101555
0.0963959
0.0916674
0.0873233
0.0833204
0.0796195
0.0761842
0.0729787
0.0699659
0.0670969
0.064319
0.0615694
0.0587715
0.0558304
0.0526237
0.0489821
0.0446422
0.0391045
0.0310414
0.0148413
0.303941
0.301714
0.312585
0.337775
0.376664
0.417637
0.43534
0.41875
0.374181
0.316525
0.264505
0.223841
0.194311
0.173089
0.157569
0.145535
0.135618
0.127053
0.119434
0.112567
0.106343
0.100687
0.0955304
0.0908139
0.086483
0.0824894
0.0787903
0.0753452
0.0721141
0.0690446
0.0660841
0.0631695
0.060223
0.0571479
0.0538186
0.0500614
0.045606
0.0399413
0.0317108
0.0152111
0.315177
0.30383
0.302066
0.312921
0.338058
0.376943
0.420345
0.447347
0.440952
0.398857
0.335719
0.276473
0.22982
0.196431
0.173448
0.157185
0.144815
0.134686
0.125965
0.118259
0.111362
0.105148
0.0995205
0.0944003
0.0897178
0.0854139
0.081437
0.077741
0.0742812
0.071002
0.0678503
0.0647624
0.0616597
0.0584436
0.0549858
0.0511082
0.0465344
0.0407426
0.0323494
0.0155707
0.329195
0.313658
0.303675
0.303021
0.314721
0.340398
0.379402
0.423915
0.455737
0.454927
0.41344
0.345546
0.280806
0.23041
0.195492
0.172132
0.155773
0.143311
0.133099
0.124341
0.116647
0.109799
0.10365
0.0980909
0.0930319
0.0883992
0.0841309
0.0801737
0.0764745
0.0729766
0.0696254
0.0663564
0.0630902
0.0597263
0.0561338
0.052131
0.0474355
0.0415155
0.0329629
0.0159227
0.343132
0.326485
0.312195
0.303738
0.304689
0.3179
0.344767
0.384348
0.429272
0.462468
0.462407
0.418049
0.345445
0.277553
0.226414
0.192084
0.169373
0.153354
0.141035
0.13091
0.122247
0.114663
0.10793
0.101892
0.0964292
0.0914486
0.0868753
0.0826474
0.0786982
0.074973
0.0714149
0.0679577
0.0645209
0.0610027
0.0572698
0.0531368
0.0483159
0.0422661
0.0335561
0.0162695
0.356054
0.339797
0.323842
0.31085
0.304184
0.307241
0.322613
0.351345
0.392029
0.436901
0.468522
0.463752
0.412289
0.335931
0.267995
0.218983
0.186803
0.165412
0.150059
0.138098
0.12822
0.119767
0.112372
0.105807
0.0999105
0.0945625
0.0896705
0.0851593
0.0809527
0.0769932
0.0732215
0.0695699
0.0659565
0.0622781
0.0583991
0.0541311
0.049181
0.0429992
0.0341328
0.0166129
0.367815
0.352508
0.336351
0.321174
0.309689
0.30521
0.31094
0.329121
0.360353
0.402542
0.446444
0.472716
0.457771
0.396578
0.318784
0.254085
0.209349
0.180242
0.160543
0.146077
0.134644
0.125141
0.116987
0.109838
0.103474
0.0977381
0.0925156
0.0877082
0.0832361
0.0790362
0.0750455
0.0711943
0.0673992
0.0635553
0.0595254
0.0551177
0.0500347
0.0437184
0.0346959
0.0169541
0.378523
0.364265
0.348581
0.33266
0.31848
0.308866
0.3071
0.316118
0.337697
0.371884
0.415332
0.456091
0.472619
0.443377
0.372582
0.29655
0.237843
0.198619
0.172929
0.155063
0.141614
0.130825
0.121785
0.113985
0.107115
0.100969
0.0954019
0.0902875
0.0855432
0.0810981
0.0768844
0.0728297
0.0688488
0.0648354
0.0606503
0.056099
0.0508795
0.0444262
0.0352473
0.017294
0.388379
0.37506
0.36008
0.344176
0.328713
0.31589
0.308671
0.310243
0.323147
0.348546
0.385655
0.428976
0.463405
0.465643
0.419466
0.342497
0.271839
0.221019
0.187634
0.165284
0.149238
0.136861
0.126779
0.118246
0.110827
0.104249
0.0983162
0.0928869
0.0878654
0.0831718
0.0787328
0.0744722
0.0703029
0.066117
0.0617735
0.0570755
0.0517165
0.045124
0.0357883
0.0176332
0.397658
0.385073
0.370784
0.355226
0.339308
0.324645
0.313698
0.309535
0.315117
0.332426
0.361803
0.401207
0.442231
0.465872
0.448243
0.38562
0.309033
0.247177
0.204873
0.176932
0.157616
0.143291
0.131979
0.122617
0.1146
0.107562
0.101245
0.095493
0.0901909
0.0852475
0.0805824
0.0761153
0.0717566
0.0673968
0.062893
0.0580459
0.0525454
0.0458118
0.0363189
0.0179716
0.40668
0.394589
0.380852
0.365707
0.349741
0.334106
0.320736
0.312353
0.312022
0.322289
0.344368
0.377622
0.418053
0.452662
0.458442
0.41798
0.345502
0.275785
0.22445
0.190065
0.166812
0.150143
0.137391
0.12709
0.118423
0.110884
0.10417
0.0980889
0.0925047
0.0873121
0.0824222
0.0777499
0.0732027
0.068669
0.0640045
0.0590074
0.0533641
0.0464884
0.0368386
0.0183089
0.415875
0.403944
0.390545
0.375731
0.359855
0.343725
0.328817
0.317427
0.312478
0.316832
0.332364
0.359293
0.39571
0.433831
0.454885
0.436513
0.377032
0.30463
0.245609
0.204513
0.176807
0.15742
0.143008
0.131655
0.122267
0.114193
0.107068
0.100654
0.0947889
0.0893499
0.0842387
0.0793645
0.0746313
0.0699256
0.0651015
0.059955
0.054169
0.0471514
0.0373457
0.0186445
0.42569
0.413561
0.400163
0.385495
0.36969
0.353273
0.337363
0.323845
0.315369
0.314884
0.324733
0.345819
0.377161
0.414386
0.443878
0.443076
0.399572
0.33117
0.267091
0.219818
0.18746
0.165075
0.14881
0.136291
0.126098
0.11746
0.109913
0.103166
0.097023
0.0913428
0.0860159
0.0809451
0.0760305
0.0711568
0.066176
0.0608823
0.0549552
0.0477971
0.0378379
0.0189771
0.43614
0.423755
0.41006
0.395229
0.379353
0.3627
0.346069
0.331004
0.319846
0.315466
0.320493
0.336369
0.362733
0.396969
0.42985
0.441194
0.413102
0.352802
0.28742
0.23528
0.198497
0.173008
0.154762
0.140926
0.129875
0.12065
0.112677
0.105599
0.0991841
0.0932704
0.0877357
0.0824757
0.0773866
0.0723505
0.0672178
0.0617809
0.0557162
0.0484206
0.0383118
0.0193055
0.446209
0.434458
0.420401
0.405179
0.38898
0.372009
0.354782
0.33852
0.325284
0.31779
0.31879
0.330121
0.35193
0.382421
0.415438
0.434399
0.419094
0.368417
0.305161
0.250132
0.209566
0.181073
0.160694
0.145484
0.133546
0.123725
0.115327
0.107925
0.101248
0.0951107
0.0893784
0.0839387
0.0786837
0.0734931
0.0682155
0.0626414
0.0564442
0.0490162
0.0387636
0.0196277
0.454799
0.444145
0.430845
0.415351
0.398701
0.381226
0.363393
0.346131
0.331229
0.321229
0.318901
0.326336
0.344088
0.370794
0.402164
0.425277
0.419591
0.378446
0.31912
0.263301
0.220016
0.188806
0.166421
0.149869
0.137051
0.126642
0.117828
0.110115
0.103188
0.0968407
0.090923
0.0853152
0.0799051
0.0745697
0.0691561
0.0634527
0.0571305
0.049577
0.0391886
0.0199418
0.460784
0.452573
0.440458
0.425375
0.408493
0.390381
0.371806
0.353617
0.337322
0.325282
0.32022
0.324374
0.338583
0.361778
0.390707
0.415324
0.416386
0.38374
0.329275
0.274031
0.229135
0.195863
0.171754
0.15397
0.140323
0.129352
0.120145
0.112138
0.104979
0.0984367
0.092348
0.0865857
0.0810331
0.0755646
0.0700257
0.0642032
0.0577654
0.0500957
0.0395817
0.0202454
0.463554
0.457554
0.44811
0.434555
0.418105
0.399418
0.379921
0.360753
0.343241
0.329521
0.322236
0.323678
0.334864
0.354939
0.381181
0.405631
0.411038
0.385231
0.335792
0.282168
0.236666
0.201997
0.176522
0.157682
0.143293
0.131811
0.122242
0.113966
0.106595
0.0998752
0.0936319
0.0877304
0.0820495
0.0764616
0.0708103
0.0648807
0.0583387
0.0505642
0.0399377
0.0205363
0.464684
0.459441
0.452072
0.441272
0.426544
0.408102
0.387563
0.367298
0.348667
0.333567
0.324505
0.323764
0.332443
0.349818
0.373409
0.396741
0.404614
0.383747
0.338969
0.287671
0.242439
0.207031
0.180588
0.160912
0.145899
0.133973
0.124085
0.115571
0.10801
0.101134
0.0947539
0.0887299
0.0829369
0.0772447
0.0714954
0.0654727
0.0588402
0.0509746
0.0402509
0.0208118
0.465397
0.460086
0.453641
0.444879
0.432967
0.415508
0.39429
0.372949
0.353288
0.337075
0.326646
0.324217
0.33088
0.345961
0.367088
0.388748
0.397469
0.379911
0.339253
0.290701
0.246428
0.210866
0.183854
0.163583
0.148086
0.135798
0.125643
0.116925
0.109203
0.102191
0.0956945
0.0895661
0.0836782
0.0778984
0.0720674
0.0659674
0.05926
0.0513191
0.0405159
0.0210695
0.46627
0.460643
0.454507
0.446792
0.436194
0.420576
0.399697
0.377423
0.356826
0.339745
0.328335
0.324686
0.3298
0.342965
0.361829
0.381484
0.389909
0.374395
0.337256
0.291575
0.248711
0.213468
0.186257
0.165639
0.149811
0.137254
0.126889
0.118007
0.110152
0.103029
0.0964361
0.0902227
0.0842583
0.0784089
0.0725138
0.0663538
0.0595886
0.0515903
0.0407277
0.0213067
0.467554
0.461604
0.455415
0.447976
0.437697
0.42352
0.403184
0.380323
0.359041
0.341339
0.329315
0.324888
0.328898
0.340512
0.357358
0.374838
0.382132
0.367783
0.333521
0.290586
0.249382
0.214832
0.18776
0.167041
0.151042
0.138315
0.127804
0.118799
0.110842
0.103632
0.0969642
0.0906857
0.084664
0.0787639
0.0728235
0.0666221
0.059818
0.0517816
0.0408819
0.0215213
0.469552
0.463289
0.456682
0.448819
0.438126
0.424434
0.404754
0.381623
0.359796
0.341696
0.329406
0.324617
0.327924
0.338318
0.353383
0.368678
0.37431
0.360344
0.328295
0.287884
0.248503
0.214973
0.188356
0.167775
0.151763
0.138967
0.128372
0.119288
0.111259
0.103987
0.097267
0.0909439
0.0848848
0.0789537
0.0729876
0.0667645
0.0599415
0.0518879
0.0409747
0.0217112
0.472849
0.466158
0.45866
0.449662
0.438
0.424219
0.404619
0.380994
0.358852
0.340686
0.328497
0.323732
0.32668
0.33611
0.349554
0.362628
0.36626
0.352115
0.321721
0.283615
0.246188
0.213961
0.188081
0.167854
0.151977
0.139206
0.128589
0.119466
0.111396
0.104088
0.0973366
0.0909895
0.0849133
0.0789713
0.0729998
0.0667755
0.0599543
0.0519053
0.0410034
0.0218746
0.478381
0.470897
0.461819
0.450849
0.437561
0.422876
0.40259
0.37832
0.35616
0.338293
0.326571
0.322165
0.325015
0.333651
0.345548
0.356321
0.357733
0.343064
0.31396
0.27802
0.242649
0.211944
0.187021
0.167323
0.151703
0.139039
0.128455
0.119332
0.111251
0.103929
0.0971687
0.0908183
0.0847454
0.0788131
0.0728567
0.0666519
0.0598538
0.0518316
0.0409666
0.0220103
0.487331
0.478334
0.466703
0.452783
0.437021
0.42042
0.398786
0.373849
0.351894
0.334646
0.323716
0.319927
0.322841
0.330762
0.341097
0.349508
0.348688
0.333337
0.305322
0.271448
0.238179
0.209121
0.185297
0.166247
0.150974
0.138483
0.127978
0.118889
0.110823
0.103512
0.0967632
0.0904301
0.0843809
0.0784787
0.072558
0.0663936
0.0596397
0.0516666
0.0408641
0.0221175
0.50085
0.489159
0.473608
0.455625
0.436399
0.41626
0.392395
0.367649
0.346311
0.330005
0.320129
0.317112
0.320143
0.327349
0.336058
0.342116
0.339241
0.32323
0.296207
0.264296
0.233093
0.20571
0.183041
0.164702
0.149834
0.13756
0.12717
0.118145
0.110119
0.102839
0.0961236
0.0898281
0.083823
0.0779713
0.0721067
0.066003
0.0593142
0.051412
0.0406968
0.0221959
0.519674
0.503517
0.482227
0.458834
0.434863
0.410247
0.384589
0.360434
0.339971
0.32483
0.316137
0.313909
0.317003
0.323432
0.330471
0.334303
0.329615
0.313077
0.287008
0.256928
0.227674
0.201901
0.180372
0.162759
0.148323
0.136296
0.126049
0.11711
0.109146
0.10192
0.0952575
0.08902
0.083079
0.0772979
0.0715093
0.0654862
0.0588822
0.0510714
0.0404671
0.0222455
)
;

boundaryField
{
    leftWall
    {
        type            kqRWallFunction;
        value           nonuniform List<scalar> 0();
    }
    rightWall
    {
        type            kqRWallFunction;
        value           nonuniform List<scalar> 
43
(
0.00746168
0.00844602
0.00867789
0.00868812
0.00874679
0.00945854
0.0102634
0.0109767
0.0116113
0.0121811
0.0127029
0.0131856
0.0136351
0.0140575
0.0144581
0.0148413
0.0152111
0.0155707
0.0159227
0.0162695
0.0166129
0.0169541
0.017294
0.0176332
0.0179716
0.0183089
0.0186445
0.0189771
0.0193055
0.0196277
0.0199418
0.0202454
0.0205363
0.0208118
0.0210695
0.0213067
0.0215213
0.0217112
0.0218746
0.0220103
0.0221175
0.0221959
0.0222455
)
;
    }
    lowerWall
    {
        type            kqRWallFunction;
        value           nonuniform List<scalar> 
66
(
0.0304108
0.0263762
0.0263762
0.0443142
0.0618059
0.0812328
0.0990294
0.118402
0.135582
0.154297
0.176654
0.205449
0.181387
0.124106
0.15525
0.132904
0.00971613
0.0101564
0.0145337
0.0190959
0.024005
0.0296868
0.0366747
0.0456458
0.0576163
0.0756475
0.00971613
0.0156222
0.0166534
0.0167644
0.017123
0.016967
0.018064
0.0189282
0.0196203
0.0201401
0.0203962
0.0204289
0.0202718
0.0199546
0.0195065
0.0189568
0.0183368
0.0176887
0.0171083
0.0174802
0.0169934
0.0171043
0.0168163
0.0167371
0.0167272
0.0167814
0.0167541
0.0167942
0.016705
0.0169065
0.0167707
0.0167866
0.0166767
0.0167811
0.0167087
0.0164539
0.0152282
0.0129991
0.00986589
0.00746168
)
;
    }
    atmosphere
    {
        type            inletOutlet;
        inletValue      nonuniform List<scalar> 0();
        value           nonuniform List<scalar> 0();
    }
    defaultFaces
    {
        type            empty;
    }
    procBoundary1to0
    {
        type            processor;
        value           nonuniform List<scalar> 
44
(
0.0332989
0.0901536
0.130266
0.162485
0.191812
0.219536
0.246227
0.272405
0.298191
0.322785
0.342701
0.355631
0.363392
0.368664
0.372721
0.376157
0.379458
0.38308
0.387403
0.392707
0.400794
0.400794
0.407861
0.415755
0.424629
0.435056
0.446942
0.454616
0.457007
0.457499
0.456467
0.455184
0.454869
0.455958
0.458154
0.460723
0.462787
0.463589
0.462766
0.460459
0.457243
0.453953
0.451398
0.450082
)
;
    }
    procBoundary1to3
    {
        type            processor;
        value           nonuniform List<scalar> 
45
(
0.479121
0.508002
0.532382
0.548481
0.553196
0.544137
0.521286
0.492249
0.462589
0.433239
0.404538
0.377506
0.35346
0.333756
0.319766
0.312182
0.310598
0.313614
0.319171
0.324571
0.3264
0.320132
0.303198
0.278019
0.249594
0.222114
0.197828
0.177376
0.160473
0.146476
0.134715
0.12463
0.1158
0.107918
0.100765
0.094177
0.0880177
0.0821611
0.0764702
0.0707768
0.0648526
0.0583516
0.0506508
0.0401786
0.0222667
)
;
    }
}


// ************************************************************************* //
