/*--------------------------------*- C++ -*----------------------------------*\
  =========                 |
  \\      /  F ield         | OpenFOAM: The Open Source CFD Toolbox
   \\    /   O peration     | Website:  https://openfoam.org
    \\  /    A nd           | Version:  9
     \\/     M anipulation  |
\*---------------------------------------------------------------------------*/
FoamFile
{
    format      ascii;
    class       volScalarField;
    location    "0.35";
    object      p;
}
// * * * * * * * * * * * * * * * * * * * * * * * * * * * * * * * * * * * * * //

dimensions      [1 -1 -2 0 0 0 0];

internalField   nonuniform List<scalar> 
1915
(
1721.45
1755.43
1651.29
1695.94
1608.46
1657.51
1589.56
1642
1574.8
1641.73
1553.84
1644.64
1513.44
1623.85
1443.24
1565.67
1328.39
1432.27
1146.13
1154.07
3.69224
3.68786
3.68373
3.67832
3.67305
3.66882
3.66468
3.66156
3.6595
3.6583
3.65772
3.65743
3.65713
3.65657
3.65558
3.65402
3.65182
3.64895
3.64565
3.6416
3.63686
3.63193
3.62661
3.62113
3.61564
3.61027
3.60507
3.60002
3.59529
3.59094
3.58701
3.58355
3.58058
3.57807
3.57604
3.57449
3.5734
3.57271
3.57244
3.57226
3.6465
3.64314
3.63988
3.63549
3.62969
3.62339
3.61802
3.61405
3.61124
3.60943
3.60831
3.60757
3.60697
3.60625
3.60522
3.60373
3.60169
3.59905
3.59583
3.59208
3.58792
3.58314
3.57819
3.57304
3.56792
3.56275
3.55762
3.55272
3.5481
3.54386
3.54005
3.53669
3.5338
3.53137
3.52936
3.52777
3.52657
3.52574
3.52526
3.52505
3.60184
3.597
3.59387
3.58923
3.58341
3.57688
3.57098
3.56628
3.56273
3.5602
3.55843
3.55719
3.55623
3.5553
3.55421
3.55281
3.55096
3.54861
3.54574
3.54243
3.5385
3.53417
3.52947
3.52461
3.51971
3.5148
3.50992
3.5052
3.50071
3.49656
3.49281
3.4895
3.48666
3.48426
3.48226
3.48062
3.47934
3.47842
3.47787
3.47778
3.55744
3.55038
3.54581
3.54102
3.53517
3.5288
3.52284
3.51783
3.51388
3.51089
3.5087
3.50713
3.50592
3.50486
3.50374
3.50241
3.50072
3.4986
3.49601
3.49294
3.48931
3.48525
3.48082
3.4762
3.4715
3.46678
3.46209
3.45753
3.45316
3.44907
3.44536
3.44208
3.43926
3.43687
3.43486
3.43317
3.4318
3.4308
3.43024
3.43026
3.5121
3.50268
3.49614
3.49111
3.48546
3.47943
3.47369
3.46872
3.46467
3.46154
3.45921
3.45752
3.45625
3.45517
3.45408
3.45281
3.45124
3.44928
3.44688
3.444
3.44059
3.43673
3.43248
3.428
3.42341
3.4188
3.41423
3.40976
3.40547
3.40143
3.39773
3.39445
3.39163
3.38923
3.38719
3.38544
3.38399
3.38292
3.3824
3.38251
3.46431
3.45272
3.44441
3.43955
3.43449
3.42905
3.42374
3.41901
3.41509
3.41203
3.40977
3.40817
3.407
3.40603
3.40504
3.40386
3.40238
3.40053
3.39827
3.39554
3.3923
3.38858
3.38445
3.38003
3.37546
3.37087
3.36634
3.36193
3.35768
3.35367
3.34998
3.34667
3.34381
3.34136
3.33926
3.33744
3.33591
3.33481
3.33436
3.33457
3.41187
3.39914
3.38984
3.38624
3.38237
3.37782
3.3731
3.36876
3.3651
3.36226
3.36024
3.35889
3.35798
3.35726
3.35646
3.35542
3.35404
3.35229
3.35012
3.34749
3.34436
3.34073
3.33665
3.33224
3.32764
3.323
3.31844
3.31403
3.30982
3.30583
3.30212
3.29877
3.29582
3.29327
3.29106
3.28915
3.28756
3.28646
3.28609
3.28641
3.35058
3.34014
3.33158
3.33108
3.32925
3.32592
3.32191
3.31799
3.31465
3.31214
3.31048
3.30953
3.30905
3.30871
3.30824
3.30743
3.30621
3.30454
3.30242
3.29982
3.29673
3.29313
3.28906
3.28461
3.27994
3.2752
3.27055
3.2661
3.26189
3.2579
3.25417
3.25073
3.24764
3.24494
3.24258
3.24056
3.23892
3.23784
3.23757
3.23799
3.26988
3.27297
3.26913
3.27442
3.27559
3.27369
3.27033
3.26675
3.26372
3.26158
3.2604
3.26
3.26008
3.26029
3.26029
3.25985
3.25886
3.25729
3.25518
3.25254
3.2494
3.24575
3.24164
3.23712
3.23235
3.22749
3.22272
3.21817
3.21389
3.20987
3.20608
3.20252
3.19925
3.19634
3.1938
3.19166
3.18998
3.18894
3.18878
3.18931
3.14895
3.19195
3.20407
3.21786
3.22242
3.22171
3.21864
3.21512
3.21223
3.21048
3.20988
3.21019
3.21102
3.21193
3.21255
3.21261
3.21194
3.21054
3.20843
3.20569
3.2024
3.19862
3.19439
3.18977
3.18488
3.17987
3.17494
3.17022
3.16582
3.1617
3.1578
3.15409
3.15061
3.14746
3.14471
3.14244
3.14073
3.13976
3.13973
3.14036
861.68
578.419
637.561
415.789
521.776
399.514
436.652
343.927
356.879
275.379
286.363
220.533
224.08
173.99
167.036
130.097
113.987
88.2737
64.5077
48.7503
11.4463
-24.6155
-62.0584
-92.8215
-69.3017
-16.529
-5.13928
-4.53358
-4.68616
-4.83816
-4.94315
-5.04175
-5.14185
-5.24213
-5.34233
-5.44296
-5.5447
-5.64845
-5.75497
-5.86462
-5.97695
-6.09013
-6.20177
-70.1409
-0.0787593
2.50497
2.19538
10.0331
-2.18278
2.82493
2.70261
159.152
41.7683
0.533004
2.36667
195.032
80.6255
15.2967
-8.52346
172.474
90.1808
37.9005
3.66573
146.775
86.4928
45.9712
18.2742
120.479
74.6002
40.8961
18.5507
91.1232
56.5083
29.2108
10.3773
60.7302
35.511
14.5512
-0.773392
30.8453
13.6695
-1.41863
-13.1321
2.02631
-8.06411
-17.7269
-25.8287
-25.6872
-29.1352
-33.677
-38.1978
-53.8319
-49.891
-49.0071
-49.8234
-82.6347
-72.0978
-64.7491
-60.9904
-86.8566
-88.2235
-80.6802
-72.9853
-35.5754
-59.7309
-76.6883
-80.0193
-6.93027
-14.7022
-31.5204
-53.5518
-4.84471
-5.44302
-7.43984
-14.7244
-4.77697
-4.87948
-5.21028
-5.91558
-4.94181
-5.02186
-5.11931
-5.24393
-5.05913
-5.1667
-5.26788
-5.35101
-5.15653
-5.26846
-5.38007
-5.48445
-5.25512
-5.36509
-5.4745
-5.5815
-5.35541
-5.46439
-5.57102
-5.67402
-5.45655
-5.56548
-5.67048
-5.77
-5.55888
-5.66837
-5.77224
-5.86871
-5.66309
-5.77378
-5.87702
-5.97054
-5.77009
-5.88259
-5.98571
-6.07648
-5.88076
-5.99556
-6.0987
-6.18675
-5.99543
-6.11281
-6.21578
-6.30067
-6.11371
-6.23388
-6.33594
-6.41653
-6.23397
-6.35746
-6.45782
-6.53215
-6.35239
-6.47922
-6.57786
-6.64736
2.91798
3.08306
3.13988
3.16431
3.17119
3.17043
3.16672
3.16266
3.15965
3.15824
3.15835
3.15957
3.16135
3.16317
3.16457
3.16525
3.16502
3.16384
3.16176
3.15889
3.15538
3.15136
3.14693
3.14214
3.13708
3.13191
3.12677
3.12183
3.11721
3.11291
3.10884
3.10495
3.10123
3.09782
3.09484
3.09244
3.09072
3.08984
3.08994
3.09067
2.95187
3.04
3.09285
3.12043
3.12502
3.12122
3.1149
3.10921
3.10558
3.10443
3.10541
3.10781
3.11081
3.11375
3.11611
3.11756
3.11788
3.11701
3.115
3.11198
3.10819
3.10384
3.09909
3.09402
3.08874
3.08333
3.07794
3.07272
3.0678
3.06323
3.05893
3.0548
3.05083
3.04715
3.04394
3.04141
3.0397
3.03892
3.03917
3.04
3.24072
3.11786
3.07976
3.09374
3.08688
3.07611
3.06443
3.05529
3.05019
3.04912
3.05114
3.05502
3.05958
3.06392
3.06745
3.06979
3.07076
3.07027
3.06836
3.06521
3.06109
3.05632
3.05113
3.04567
3.04003
3.03431
3.0286
3.02303
3.01774
3.01281
3.00821
3.00381
2.99957
2.99562
2.9922
2.98955
2.98784
2.98719
2.98758
2.98852
2.43965
3.18763
3.18748
3.10837
3.06229
3.03733
3.0169
3.00193
2.99385
2.99233
2.9955
3.00121
3.00769
3.01376
3.01867
3.02205
3.02374
3.02367
3.02189
3.0186
3.01411
3.00883
3.00308
2.99707
2.99095
2.9848
2.97868
2.97269
2.96696
2.96161
2.95663
2.95192
2.9474
2.94319
2.93956
2.93681
2.93513
2.93459
2.93514
2.93619
-7.11944
1.31409
3.27803
3.18751
3.08152
3.01212
2.97453
2.95081
2.93773
2.93469
2.93879
2.94657
2.95531
2.9634
2.96993
2.97449
2.97694
2.97729
2.97563
2.97216
2.96726
2.96138
2.95495
2.94825
2.94148
2.93475
2.92812
2.92164
2.9154
2.90955
2.90414
2.89908
2.89427
2.88982
2.886
2.88316
2.88151
2.88109
2.8818
2.88297
-2.65356
-8.11731
-0.100187
3.17318
3.14298
3.02488
2.94677
2.90427
2.88366
2.87776
2.88204
2.89171
2.90283
2.91312
2.92144
2.92729
2.93053
2.93126
2.92964
2.92595
2.92056
2.91399
2.90673
2.89918
2.8916
2.88414
2.87688
2.86981
2.863
2.85659
2.85068
2.84523
2.84013
2.83544
2.83147
2.82855
2.82693
2.82664
2.8275
2.82879
1.94958
-8.75663
-9.658
-1.59316
2.95321
3.06055
2.9492
2.87288
2.83519
2.82393
2.8274
2.83803
2.85097
2.86332
2.87345
2.88064
2.88468
2.88571
2.88405
2.88001
2.87403
2.86663
2.85841
2.84984
2.84128
2.83293
2.82489
2.81714
2.80968
2.80265
2.7962
2.79031
2.7849
2.78001
2.7759
2.77293
2.77135
2.77117
2.77218
2.7736
-2.29129
-9.87528
-13.0693
-11.3969
-2.84576
2.70112
2.95132
2.86461
2.80226
2.77827
2.77843
2.78827
2.80124
2.81463
2.82623
2.83468
2.8395
2.84078
2.83894
2.83441
2.82767
2.8193
2.80995
2.80021
2.79049
2.78108
2.77212
2.76357
2.7554
2.74769
2.74063
2.73427
2.72854
2.72345
2.71922
2.71622
2.71467
2.7146
2.71576
2.71732
-11.3313
-16.8098
-17.6758
-16.8209
-13.116
-3.5309
2.45524
2.83014
2.78686
2.75068
2.7417
2.7469
2.75621
2.76805
2.78006
2.7895
2.79505
2.79654
2.79438
2.78918
2.78151
2.77199
2.76134
2.75023
2.73918
2.72854
2.71851
2.70905
2.70007
2.69162
2.6839
2.67703
2.67097
2.66568
2.66137
2.65834
2.65683
2.65685
2.65817
2.65988
-21.7756
-26.4398
-26.3833
-23.4691
-20.0322
-14.2328
-3.48393
2.24666
2.72664
2.73864
2.7242
2.7198
2.71936
2.72507
2.73531
2.74512
2.75131
2.75297
2.75041
2.74435
2.73554
2.72467
2.71252
2.69986
2.68729
2.67526
2.664
2.6535
2.64362
2.63437
2.62594
2.61853
2.6121
2.60663
2.60223
2.5992
2.59772
2.59784
2.59931
2.60117
-32.3874
-36.2705
-36.2706
-32.9269
-27.7382
-22.4099
-14.5819
-2.77063
2.15196
2.68369
2.72306
2.7076
2.69199
2.687
2.69245
2.70153
2.70819
2.71002
2.70698
2.6999
2.68972
2.67728
2.66343
2.64902
2.63476
2.62115
2.6085
2.59684
2.58597
2.57584
2.56667
2.55866
2.55185
2.54618
2.54172
2.53868
2.53724
2.53745
2.53908
2.54111
-42.5059
-45.4298
-45.5056
-42.683
-37.3198
-30.5521
-23.7797
-13.7483
-1.3426
2.22217
2.69804
2.70192
2.66875
2.65251
2.65193
2.65891
2.66565
2.6676
2.66401
2.65575
2.64398
2.62974
2.61398
2.59763
2.58148
2.56612
2.55192
2.53896
2.527
2.51594
2.50597
2.49734
2.49012
2.48425
2.47972
2.47668
2.47528
2.47557
2.47736
2.47957
-51.706
-53.4831
-53.5102
-51.3059
-46.7193
-39.8493
-31.8788
-23.7614
-11.0934
0.245595
2.33901
2.66158
2.641
2.61893
2.61421
2.6181
2.62388
2.62564
2.62137
2.61177
2.5982
2.58192
2.56402
2.54553
2.52732
2.51003
2.49414
2.47974
2.4666
2.45455
2.44374
2.43445
2.4268
2.42071
2.41611
2.41307
2.4117
2.41209
2.41405
2.41645
-59.8954
-60.1949
-60.005
-58.3745
-54.7623
-48.7969
-40.5807
-31.4959
-21.5401
-6.92174
1.36491
2.43672
2.59855
2.58941
2.58091
2.58062
2.5835
2.58413
2.57887
2.56772
2.55214
2.5336
2.51335
2.49254
2.47209
2.45273
2.43499
2.41903
2.40462
2.39153
2.37985
2.36989
2.36178
2.35544
2.35076
2.34771
2.34637
2.34686
2.349
2.3516
-67.8401
-65.7979
-64.9193
-63.72
-61.1384
-56.4137
-49.1644
-39.7309
-29.8135
-17.8476
-3.00168
1.81607
2.52288
2.5715
2.55268
2.54595
2.54477
2.54307
2.5362
2.52324
2.50545
2.48446
2.46169
2.43838
2.41554
2.39397
2.37426
2.35664
2.3409
2.32673
2.31417
2.30351
2.29493
2.28832
2.28353
2.28046
2.27915
2.27974
2.28209
2.28491
-75.4649
-71.2829
-68.7563
-67.4045
-65.7532
-62.4155
-56.5889
-48.1151
-37.9331
-27.5359
-11.6397
0.239084
2.15288
2.52682
2.52313
2.5113
2.50714
2.50234
2.49305
2.47784
2.45763
2.43404
2.40861
2.3827
2.35736
2.33347
2.31169
2.29235
2.27522
2.25996
2.24652
2.23518
2.22611
2.21922
2.21429
2.21118
2.2099
2.21061
2.21317
2.21621
-69.3751
-74.0062
-72.2445
-70.0625
-68.7633
-66.7282
-62.5021
-55.4311
-45.7646
-35.0241
-22.0856
-4.77452
1.47014
2.37627
2.48721
2.47919
2.47112
2.4619
2.44903
2.43094
2.40805
2.38175
2.35361
2.32503
2.29715
2.27088
2.24699
2.22588
2.20734
2.19098
2.17669
2.1647
2.15515
2.14797
2.14289
2.13973
2.13847
2.1393
2.14208
2.14536
-32.4834
-56.3507
-69.5125
-71.7088
-70.8288
-69.5611
-66.8595
-61.4127
-52.8821
-42.1705
-30.5047
-12.736
0.00810918
2.00409
2.43824
2.44896
2.43451
2.42043
2.40331
2.38181
2.35597
2.3269
2.29605
2.26484
2.23444
2.20582
2.17983
2.15694
2.137
2.11957
2.10448
2.09188
2.08189
2.07442
2.06917
2.06595
2.06471
2.06567
2.06869
2.0722
-8.40525
-19.7748
-43.7895
-64.041
-71.2022
-71.5475
-69.8909
-66.0054
-58.9054
-48.8567
-37.4152
-22.6614
-3.79393
1.47032
2.31312
2.4077
2.39546
2.37695
2.35496
2.32955
2.30058
2.26874
2.23526
2.20153
2.16872
2.13785
2.10984
2.08523
2.06393
2.04548
2.02964
2.0165
2.00613
1.99839
1.99299
1.98969
1.98847
1.98956
1.99282
1.99657
-5.59048
-6.69311
-13.352
-35.0885
-60.6433
-71.5272
-72.1859
-69.3878
-63.6685
-54.6381
-43.5378
-30.8056
-9.6045
0.69955
2.06217
2.34954
2.35249
2.32889
2.3026
2.27318
2.24098
2.20647
2.17054
2.13447
2.09945
2.06652
2.03663
2.01042
1.98784
1.96844
1.95194
1.93835
1.92767
1.91971
1.91416
1.91079
1.90959
1.91082
1.91432
1.91831
-5.4603
-5.64566
-6.1236
-10.7375
-31.6911
-61.3211
-72.9643
-72.1184
-67.275
-59.3082
-48.7225
-36.3709
-16.6492
-1.14664
1.67684
2.27453
2.30222
2.27448
2.2449
2.2117
2.17629
2.13925
2.10113
2.06303
2.02609
1.99135
1.95983
1.93219
1.90845
1.88821
1.87115
1.85721
1.84629
1.83817
1.83252
1.8291
1.82793
1.8293
1.83303
1.83726
-5.58566
-5.66951
-5.73466
-6.1811
-10.9113
-34.9856
-66.2212
-74.0056
-70.1053
-62.7844
-52.8384
-41.1314
-23.5675
-3.94619
1.27295
2.18197
2.23918
2.21245
2.18032
2.14387
2.10548
2.0662
2.0263
1.98658
1.9481
1.9119
1.87903
1.85022
1.82551
1.80456
1.78705
1.77286
1.76181
1.7536
1.74789
1.74446
1.74333
1.74484
1.74881
1.75326
-5.68986
-5.78777
-5.84811
-5.91372
-6.24119
-12.5399
-45.0749
-71.868
-72.4293
-65.2472
-55.763
-44.5622
-28.742
-6.63761
0.959239
2.02014
2.15374
2.14017
2.10712
2.06813
2.02747
1.9865
1.94534
1.90451
1.86495
1.82771
1.79388
1.7642
1.73875
1.71727
1.69946
1.68513
1.67405
1.66583
1.66012
1.65671
1.65566
1.65732
1.6615
1.66616
-5.77812
-5.87953
-5.96539
-6.0334
-6.05018
-6.59357
-20.7405
-62.0268
-73.6793
-67.0559
-57.5502
-46.7413
-32.2486
-9.03383
0.516503
1.78683
2.05011
2.05639
2.02338
1.98309
1.94124
1.89939
1.85762
1.81627
1.77616
1.73837
1.70401
1.67383
1.64794
1.62615
1.6082
1.59387
1.58285
1.57471
1.56907
1.56573
1.56477
1.56659
1.57098
1.57582
-5.86798
-5.96276
-6.05003
-6.12996
-6.15126
-6.21032
-8.81136
-43.4448
-71.5887
-68.2262
-58.2163
-47.5575
-33.8115
-10.9477
-0.164283
1.54736
1.93472
1.95884
1.92764
1.88789
1.8461
1.80428
1.76264
1.72141
1.68133
1.64352
1.60912
1.57885
1.55286
1.53101
1.51312
1.49893
1.48809
1.48012
1.47462
1.4714
1.47056
1.47253
1.4771
1.4821
-5.96122
-6.04755
-6.1253
-6.19992
-6.24491
-6.21386
-6.51434
-23.866
-65.1318
-68.2277
-57.8101
-47.0338
-33.5549
-12.0099
-0.825526
1.36361
1.81771
1.84899
1.82057
1.7825
1.74178
1.70086
1.6601
1.61963
1.58018
1.54292
1.50898
1.47904
1.45331
1.43171
1.41409
1.40021
1.38967
1.38197
1.37669
1.37363
1.37292
1.37503
1.37976
1.38489
-6.05746
-6.1354
-6.20228
-6.26249
-6.29678
-6.2542
-6.50275
-15.7509
-57.1848
-66.7656
-56.4432
-45.4326
-32.0573
-11.9096
-1.15289
1.27013
1.70332
1.72945
1.703
1.66704
1.62816
1.58896
1.54981
1.51077
1.47257
1.43642
1.40344
1.37429
1.34919
1.32813
1.31102
1.29762
1.28751
1.28019
1.27519
1.27234
1.27179
1.27403
1.27886
1.2841
-6.15755
-6.22678
-6.28339
-6.33079
-6.35082
-6.29847
-6.59895
-11.8062
-48.4613
-63.4113
-53.8672
-42.6349
-29.0767
-10.5406
-1.17056
1.183
1.56832
1.59489
1.57316
1.5407
1.50484
1.46841
1.43168
1.39475
1.35843
1.32397
1.29246
1.26454
1.24044
1.22022
1.20383
1.1911
1.18158
1.17475
1.17012
1.16751
1.1671
1.16944
1.17434
1.17963
-6.26174
-6.32166
-6.36816
-6.40531
-6.41649
-6.35635
-6.6601
-10.9394
-43.947
-59.3288
-49.7783
-38.4193
-24.2538
-8.12451
-1.00044
1.09621
1.41063
1.44375
1.43022
1.40309
1.37184
1.33932
1.30582
1.27165
1.23783
1.20562
1.17609
1.14983
1.12707
1.10795
1.09252
1.08063
1.07187
1.06566
1.06148
1.05914
1.05885
1.06123
1.06614
1.07145
-6.36926
-6.41934
-6.45482
-6.4827
-6.48856
-6.43505
-6.75093
-11.1557
-41.8383
-54.2828
-44.2612
-32.8149
-17.8248
-5.30043
-0.577092
1.00507
1.24321
1.28154
1.27588
1.25524
1.22984
1.20219
1.17261
1.14179
1.11098
1.08155
1.05449
1.03028
1.00917
0.991366
0.977079
0.966245
0.958432
0.95298
0.949318
0.947238
0.947025
0.949381
0.954242
0.959515
-6.47813
-6.51811
-6.54137
-6.55646
-6.55185
-6.54365
-7.01537
-13.0041
-41.5641
-47.9855
-37.4382
-25.8139
-10.9509
-2.89561
-0.042454
0.89451
1.06808
1.11072
1.11213
1.09872
1.07997
1.05776
1.03259
1.00554
0.978219
0.952077
0.927947
0.906123
0.886835
0.8705
0.857539
0.847987
0.841347
0.836819
0.833732
0.831883
0.831662
0.833905
0.838639
0.843839
-6.58561
-6.61549
-6.6241
-6.61113
-6.57507
-6.6678
-7.92638
-19.6803
-42.197
-39.9696
-29.0918
-17.3153
-5.2005
-1.46635
0.26429
0.763749
0.890478
0.933638
0.941196
0.935353
0.923498
0.906937
0.8864
0.863424
0.840001
0.817627
0.796826
0.777611
0.760248
0.745466
0.733986
0.725937
0.720688
0.717229
0.71476
0.713104
0.712794
0.714837
0.71938
0.724472
-6.69424
-6.71538
-6.70677
-6.66696
-6.61931
-6.95669
-11.8033
-30.7647
-39.7684
-30.3756
-19.4677
-7.68826
-1.60078
-0.686565
0.309415
0.613864
0.713684
0.753228
0.765799
0.76714
0.761989
0.751047
0.735171
0.716371
0.697038
0.678631
0.661319
0.644853
0.629583
0.616536
0.60669
0.600224
0.596384
0.593991
0.592156
0.59074
0.590396
0.59226
0.596586
0.601531
)
;

boundaryField
{
    leftWall
    {
        type            calculated;
        value           nonuniform List<scalar> 0();
    }
    rightWall
    {
        type            calculated;
        value           nonuniform List<scalar> 
43
(
3.57226
3.52505
3.47778
3.43026
3.38251
3.33457
3.28641
3.23799
3.18931
3.14036
3.09067
3.04
2.98852
2.93619
2.88297
2.82879
2.7736
2.71732
2.65988
2.60117
2.54111
2.47957
2.41645
2.3516
2.28491
2.21621
2.14536
2.0722
1.99657
1.91831
1.83726
1.75326
1.66616
1.57582
1.4821
1.38489
1.2841
1.17963
1.07145
0.959515
0.843839
0.724472
0.601531
)
;
    }
    lowerWall
    {
        type            calculated;
        value           nonuniform List<scalar> 
66
(
1744.74
1778.94
1755.43
1695.94
1657.51
1642
1641.73
1644.64
1623.85
1565.67
1432.27
1154.07
-51.0191
-0.0547938
2.52893
2.21934
3.69224
3.6465
3.60184
3.55744
3.5121
3.46431
3.41187
3.35058
3.26988
3.14895
3.71578
3.7114
3.70727
3.70187
3.69659
3.69236
3.68823
3.6851
3.68304
3.68184
3.68127
3.68097
3.68067
3.68011
3.67912
3.67756
3.67536
3.67249
3.66919
3.66515
3.6604
3.65547
3.65016
3.64467
3.63919
3.63381
3.62862
3.62357
3.61884
3.61448
3.61055
3.60709
3.60412
3.60161
3.59959
3.59803
3.59694
3.59625
3.59598
3.59581
)
;
    }
    atmosphere
    {
        type            calculated;
        value           nonuniform List<scalar> 0();
    }
    defaultFaces
    {
        type            empty;
    }
    procBoundary1to0
    {
        type            processor;
        value           nonuniform List<scalar> 
44
(
1700.64
1652.68
1615.65
1581.81
1544.05
1497.42
1435.52
1351.12
1236.36
1086.78
908.16
743.477
619.227
516.81
424.101
340.639
265.693
197.305
134.105
75.2866
17.9434
17.9434
-28.2031
-75.1345
-94.2201
-41.4484
-6.69257
-4.49074
-4.42088
-4.6027
-4.72624
-4.82607
-4.92627
-5.02696
-5.12661
-5.2253
-5.32352
-5.42195
-5.52135
-5.62242
-5.72543
-5.82981
-5.93472
-6.03878
)
;
    }
    procBoundary1to3
    {
        type            processor;
        value           nonuniform List<scalar> 
45
(
-6.31027
-6.46677
-6.59739
-6.69633
-6.76457
-6.81069
-6.82763
-6.80893
-6.77374
-6.80308
-8.08894
-20.0458
-33.1454
-29.6733
-19.5812
-9.21767
-0.128585
-0.350213
-0.22805
0.246926
0.449211
0.533263
0.570918
0.588355
0.596248
0.597241
0.591617
0.580354
0.565774
0.550433
0.535695
0.521591
0.507883
0.495014
0.484077
0.476044
0.471052
0.468335
0.466762
0.465515
0.464501
0.464392
0.466307
0.470502
0.475274
)
;
    }
}


// ************************************************************************* //
