/*--------------------------------*- C++ -*----------------------------------*\
  =========                 |
  \\      /  F ield         | OpenFOAM: The Open Source CFD Toolbox
   \\    /   O peration     | Website:  https://openfoam.org
    \\  /    A nd           | Version:  9
     \\/     M anipulation  |
\*---------------------------------------------------------------------------*/
FoamFile
{
    format      ascii;
    class       volVectorField;
    location    "0.35";
    object      U;
}
// * * * * * * * * * * * * * * * * * * * * * * * * * * * * * * * * * * * * * //

dimensions      [0 1 -1 0 0 0 0];

internalField   nonuniform List<vector> 
1915
(
(-0.227095 -0.0707379 0)
(-0.0872838 -0.104208 0)
(-0.0996123 -0.0453787 0)
(-0.0446685 -0.197307 0)
(0.0368535 0.00893532 0)
(0.0289077 -0.212411 0)
(0.142331 0.0783368 0)
(0.0859488 -0.153572 0)
(0.214553 0.167115 0)
(0.122475 -0.0639482 0)
(0.267098 0.270665 0)
(0.145206 0.0618585 0)
(0.316902 0.386577 0)
(0.170432 0.218941 0)
(0.37712 0.512126 0)
(0.203908 0.406614 0)
(0.464924 0.643991 0)
(0.260814 0.633636 0)
(0.593209 0.767877 0)
(0.348858 0.948507 0)
(0.0139736 -0.00744342 0)
(0.00655873 0.0117294 0)
(-0.0281172 0.0186991 0)
(-0.0671647 0.0201524 0)
(-0.101248 0.0179774 0)
(-0.128008 0.0117355 0)
(-0.145026 0.0059728 0)
(-0.153294 0.00226655 0)
(-0.154593 -0.000856855 0)
(-0.150047 -0.00324819 0)
(-0.141465 -0.00494529 0)
(-0.129773 -0.00615883 0)
(-0.115872 -0.00698296 0)
(-0.100522 -0.00747409 0)
(-0.0843789 -0.00767669 0)
(-0.0680132 -0.00763218 0)
(-0.0519049 -0.00738415 0)
(-0.0364833 -0.00697748 0)
(-0.0218993 -0.00650647 0)
(-0.00896047 -0.00588751 0)
(0.00253435 -0.00481996 0)
(0.0124122 -0.00411665 0)
(0.0206335 -0.00329224 0)
(0.0273133 -0.0024898 0)
(0.0323964 -0.00173152 0)
(0.035982 -0.00105474 0)
(0.0381452 -0.000414113 0)
(0.0389832 0.000177151 0)
(0.0385813 0.000615058 0)
(0.0370686 0.00110017 0)
(0.0345194 0.00167117 0)
(0.0311086 0.00206164 0)
(0.0269486 0.00240939 0)
(0.0221638 0.00271509 0)
(0.0169122 0.00285065 0)
(0.0115004 0.00285827 0)
(0.00624359 0.00254601 0)
(0.00158377 0.00186675 0)
(-0.00131526 0.000500179 0)
(-0.00188153 -0.00124519 0)
(-0.00397478 -0.00945855 0)
(-0.0211606 0.0255565 0)
(-0.0599146 0.0390005 0)
(-0.0976084 0.0383274 0)
(-0.127512 0.0317528 0)
(-0.148167 0.0225173 0)
(-0.160281 0.0130196 0)
(-0.165305 0.0047721 0)
(-0.164696 -0.00198759 0)
(-0.159668 -0.00729066 0)
(-0.150849 -0.0112878 0)
(-0.139151 -0.0142239 0)
(-0.125357 -0.0162616 0)
(-0.110155 -0.0175237 0)
(-0.094149 -0.0181116 0)
(-0.0778626 -0.0181162 0)
(-0.0617482 -0.0176214 0)
(-0.0461961 -0.0167017 0)
(-0.0314983 -0.0153873 0)
(-0.0178849 -0.0136568 0)
(-0.00567611 -0.0120232 0)
(0.00514091 -0.0101995 0)
(0.0143186 -0.00845136 0)
(0.0219361 -0.00670318 0)
(0.0279674 -0.00501051 0)
(0.0324697 -0.00339459 0)
(0.0354982 -0.00187067 0)
(0.0371466 -0.000444998 0)
(0.0375164 0.00085999 0)
(0.0367053 0.00203189 0)
(0.0348249 0.00303699 0)
(0.0319964 0.00390747 0)
(0.0283339 0.00465716 0)
(0.0239865 0.00522644 0)
(0.0191399 0.00559276 0)
(0.0140893 0.0056364 0)
(0.00913101 0.00521524 0)
(0.00456854 0.00408889 0)
(0.00102497 0.00192561 0)
(-0.000773955 -0.00115428 0)
(-0.0199923 0.00824841 0)
(-0.0452347 0.0501552 0)
(-0.0820972 0.0644924 0)
(-0.114443 0.060684 0)
(-0.139076 0.048129 0)
(-0.156017 0.0328524 0)
(-0.166041 0.0182811 0)
(-0.169932 0.00588643 0)
(-0.168586 -0.00422958 0)
(-0.162949 -0.0122286 0)
(-0.153829 -0.0183895 0)
(-0.142053 -0.0229571 0)
(-0.128346 -0.0261468 0)
(-0.113348 -0.0281395 0)
(-0.0976149 -0.0290916 0)
(-0.0816295 -0.0291437 0)
(-0.0658054 -0.0284271 0)
(-0.0504975 -0.0270652 0)
(-0.0359948 -0.0251637 0)
(-0.0224945 -0.0228074 0)
(-0.0101973 -0.020176 0)
(0.000747596 -0.0174018 0)
(0.010226 -0.0145528 0)
(0.018185 -0.0117094 0)
(0.0246252 -0.00892748 0)
(0.0295695 -0.00626338 0)
(0.0330772 -0.00373004 0)
(0.0352221 -0.00136214 0)
(0.0360917 0.000813638 0)
(0.0357891 0.00278957 0)
(0.0344291 0.00455526 0)
(0.0321246 0.00609092 0)
(0.0290051 0.00738913 0)
(0.0252212 0.00839455 0)
(0.0209344 0.00901584 0)
(0.0163634 0.00912463 0)
(0.0117447 0.00859109 0)
(0.00729666 0.00711341 0)
(0.00321636 0.00416554 0)
(0.000450908 -0.000606634 0)
(-0.0290713 0.0352544 0)
(-0.0623851 0.0770047 0)
(-0.0988888 0.0881955 0)
(-0.12863 0.079747 0)
(-0.150273 0.0619878 0)
(-0.164632 0.0417247 0)
(-0.172574 0.0226786 0)
(-0.174851 0.0063647 0)
(-0.172269 -0.00702114 0)
(-0.165686 -0.0176748 0)
(-0.155912 -0.0259094 0)
(-0.143717 -0.0320249 0)
(-0.129783 -0.0362956 0)
(-0.114711 -0.0389618 0)
(-0.0990232 -0.0402352 0)
(-0.0831654 -0.0403065 0)
(-0.067517 -0.0393519 0)
(-0.0523983 -0.0375352 0)
(-0.0380697 -0.035003 0)
(-0.0247194 -0.0318868 0)
(-0.012513 -0.0283794 0)
(-0.00159423 -0.0246307 0)
(0.00793521 -0.0207597 0)
(0.016016 -0.0168687 0)
(0.0226364 -0.0130431 0)
(0.0278092 -0.00935305 0)
(0.0315811 -0.00584343 0)
(0.0340229 -0.00255558 0)
(0.0352185 0.000476982 0)
(0.0352677 0.00323602 0)
(0.034281 0.00570351 0)
(0.0323727 0.007858 0)
(0.0296735 0.00967644 0)
(0.0263277 0.0111001 0)
(0.0224823 0.0120249 0)
(0.0182962 0.0123095 0)
(0.013937 0.0118024 0)
(0.00956525 0.0102133 0)
(0.00523255 0.00696754 0)
(0.00188913 0.00104322 0)
(-0.0359262 0.0692429 0)
(-0.0770477 0.106506 0)
(-0.114724 0.111749 0)
(-0.143639 0.0973383 0)
(-0.163178 0.0740989 0)
(-0.175154 0.048995 0)
(-0.180827 0.0257022 0)
(-0.181129 0.00570182 0)
(-0.176914 -0.0107577 0)
(-0.169007 -0.0238917 0)
(-0.158196 -0.0340463 0)
(-0.145213 -0.0415745 0)
(-0.130708 -0.0468086 0)
(-0.115254 -0.0500477 0)
(-0.0993431 -0.0515593 0)
(-0.0833927 -0.0515845 0)
(-0.0677507 -0.0503445 0)
(-0.0527057 -0.0480434 0)
(-0.0384885 -0.0448681 0)
(-0.0252715 -0.0409951 0)
(-0.0131945 -0.0366249 0)
(-0.00237664 -0.0319317 0)
(0.00709544 -0.0270642 0)
(0.0151705 -0.0221514 0)
(0.0218329 -0.0173036 0)
(0.0270933 -0.0126103 0)
(0.0309927 -0.00813761 0)
(0.0335962 -0.00393936 0)
(0.0349854 -5.85936e-05 0)
(0.035256 0.00347516 0)
(0.0345156 0.00663495 0)
(0.0328779 0.009394 0)
(0.0304678 0.0117189 0)
(0.0274186 0.0135475 0)
(0.0238624 0.0147797 0)
(0.0199231 0.0152788 0)
(0.0157181 0.0148875 0)
(0.0113549 0.0133419 0)
(0.00692225 0.0101339 0)
(0.00301626 0.0039934 0)
(-0.0440037 0.111148 0)
(-0.0938882 0.139635 0)
(-0.133045 0.136128 0)
(-0.161408 0.114009 0)
(-0.178684 0.0845809 0)
(-0.187959 0.0544827 0)
(-0.19101 0.0270615 0)
(-0.188979 0.00360607 0)
(-0.182772 -0.0156921 0)
(-0.173188 -0.0310898 0)
(-0.160984 -0.0429718 0)
(-0.146862 -0.0517414 0)
(-0.131454 -0.0577858 0)
(-0.115313 -0.0614614 0)
(-0.0989123 -0.0630916 0)
(-0.0826447 -0.0629705 0)
(-0.0668313 -0.0613664 0)
(-0.0517308 -0.0585254 0)
(-0.0375443 -0.0546737 0)
(-0.0244205 -0.0500235 0)
(-0.0124726 -0.0447897 0)
(-0.00179156 -0.0391669 0)
(0.00755772 -0.0333263 0)
(0.015539 -0.0274196 0)
(0.022143 -0.0215781 0)
(0.0273838 -0.0159095 0)
(0.0313008 -0.0104985 0)
(0.0339553 -0.0054122 0)
(0.0354257 -0.000703947 0)
(0.0358042 0.00358623 0)
(0.035195 0.00742346 0)
(0.0337088 0.0107745 0)
(0.0314624 0.0135994 0)
(0.0285766 0.0158367 0)
(0.0251673 0.0173936 0)
(0.0213351 0.0181452 0)
(0.0171614 0.0179412 0)
(0.0127065 0.0165477 0)
(0.00807319 0.0135392 0)
(0.00363186 0.00784137 0)
(-0.0568414 0.163693 0)
(-0.117596 0.176745 0)
(-0.156475 0.161021 0)
(-0.183076 0.129316 0)
(-0.197005 0.0930175 0)
(-0.202871 0.0578519 0)
(-0.202855 0.0264825 0)
(-0.198182 -0.000168378 0)
(-0.189716 -0.0220584 0)
(-0.178182 -0.0395017 0)
(-0.164294 -0.0529174 0)
(-0.148733 -0.0627498 0)
(-0.132122 -0.0694359 0)
(-0.115011 -0.0733887 0)
(-0.0978656 -0.0749907 0)
(-0.0810638 -0.0745924 0)
(-0.0649044 -0.0725135 0)
(-0.049618 -0.069045 0)
(-0.0353753 -0.0644512 0)
(-0.0222957 -0.0589766 0)
(-0.0104629 -0.0528536 0)
(6.28206e-05 -0.0462943 0)
(0.0092437 -0.0394879 0)
(0.0170641 -0.0326039 0)
(0.0235285 -0.0257904 0)
(0.0286593 -0.019171 0)
(0.0324981 -0.0128457 0)
(0.035105 -0.0068945 0)
(0.0365556 -0.00138014 0)
(0.0369385 0.00364796 0)
(0.0363538 0.00814824 0)
(0.0349078 0.0120817 0)
(0.0327093 0.015405 0)
(0.0298666 0.0180595 0)
(0.0264796 0.0199625 0)
(0.0226314 0.0210045 0)
(0.018378 0.02105 0)
(0.0137496 0.0198993 0)
(0.00885049 0.0171973 0)
(0.00397133 0.0119247 0)
(-0.0786311 0.23537 0)
(-0.153227 0.217368 0)
(-0.186728 0.184681 0)
(-0.208682 0.141869 0)
(-0.217387 0.0985543 0)
(-0.218947 0.0586418 0)
(-0.215515 0.0237206 0)
(-0.208085 -0.00578358 0)
(-0.197288 -0.0300052 0)
(-0.183697 -0.0492932 0)
(-0.16796 -0.0640703 0)
(-0.150743 -0.0748 0)
(-0.132685 -0.08196 0)
(-0.114358 -0.0860202 0)
(-0.0962377 -0.0874271 0)
(-0.0787003 -0.086595 0)
(-0.0620302 -0.0839011 0)
(-0.0464329 -0.0796858 0)
(-0.0320481 -0.0742543 0)
(-0.018963 -0.0678815 0)
(-0.00722745 -0.0608198 0)
(0.00313205 -0.053296 0)
(0.0121085 -0.0455142 0)
(0.0197122 -0.0376568 0)
(0.0259662 -0.0298839 0)
(0.0309057 -0.0223318 0)
(0.0345786 -0.0151129 0)
(0.0370466 -0.00831724 0)
(0.0383835 -0.00201619 0)
(0.0386742 0.00373372 0)
(0.0380146 0.00888506 0)
(0.0365057 0.0133943 0)
(0.0342488 0.017217 0)
(0.0313408 0.0202991 0)
(0.0278683 0.0225688 0)
(0.0239002 0.0239341 0)
(0.0194766 0.0242789 0)
(0.0146139 0.0234369 0)
(0.00942575 0.0211124 0)
(0.00417193 0.0163605 0)
(-0.119745 0.330614 0)
(-0.207637 0.259054 0)
(-0.223984 0.20324 0)
(-0.236428 0.149303 0)
(-0.237591 0.100068 0)
(-0.234165 0.0564547 0)
(-0.227386 0.0187175 0)
(-0.21751 -0.0131988 0)
(-0.204668 -0.0395078 0)
(-0.189188 -0.0604953 0)
(-0.17163 -0.0765202 0)
(-0.152675 -0.0880251 0)
(-0.133017 -0.0955139 0)
(-0.113283 -0.0995155 0)
(-0.0939932 -0.10055 0)
(-0.0755426 -0.0991076 0)
(-0.058213 -0.0956333 0)
(-0.0421909 -0.0905251 0)
(-0.0275858 -0.0841327 0)
(-0.0144497 -0.076764 0)
(-0.00279553 -0.0686915 0)
(0.00738753 -0.0601566 0)
(0.0161273 -0.0513746 0)
(0.0234637 -0.0425361 0)
(0.0294422 -0.0338083 0)
(0.0341143 -0.0253353 0)
(0.0375383 -0.0172383 0)
(0.0397805 -0.00961546 0)
(0.0409146 -0.00254491 0)
(0.0410223 0.00391195 0)
(0.0401941 0.00970365 0)
(0.0385261 0.0147841 0)
(0.0361132 0.0191086 0)
(0.0330429 0.0226284 0)
(0.0293907 0.0252834 0)
(0.0252149 0.0269986 0)
(0.0205461 0.0276781 0)
(0.0153982 0.0271842 0)
(0.00989927 0.0252661 0)
(0.00430965 0.0210303 0)
(-0.164002 0.494739 0)
(-0.277886 0.289467 0)
(-0.264917 0.210349 0)
(-0.261204 0.148698 0)
(-0.253101 0.0965953 0)
(-0.244985 0.0512851 0)
(-0.235853 0.0118322 0)
(-0.224606 -0.0220062 0)
(-0.21059 -0.0502573 0)
(-0.19381 -0.0729361 0)
(-0.174755 -0.0902163 0)
(-0.154174 -0.102463 0)
(-0.132885 -0.110191 0)
(-0.111637 -0.113993 0)
(-0.091035 -0.114481 0)
(-0.0715274 -0.11224 0)
(-0.0534131 -0.1078 0)
(-0.0368688 -0.101629 0)
(-0.0219774 -0.0941287 0)
(-0.00875436 -0.0856439 0)
(0.00282735 -0.0764693 0)
(0.01282 -0.0668602 0)
(0.0212901 -0.0570391 0)
(0.0283092 -0.0472006 0)
(0.0339493 -0.0375142 0)
(0.038281 -0.0281267 0)
(0.0413758 -0.0191635 0)
(0.0433075 -0.0107279 0)
(0.0441524 -0.00290238 0)
(0.0439899 0.00424833 0)
(0.0429053 0.0106706 0)
(0.0409889 0.0163179 0)
(0.0383299 0.0211467 0)
(0.035009 0.0251133 0)
(0.0310933 0.0281687 0)
(0.0266334 0.0302534 0)
(0.0216545 0.0312903 0)
(0.0161754 0.0311642 0)
(0.010341 0.029655 0)
(0.00442776 0.0258929 0)
(0.769554 0.838418 0)
(0.722172 1.13435 0)
(0.90047 0.831061 0)
(0.966383 1.03559 0)
(0.983953 0.78382 0)
(1.06992 0.897237 0)
(1.04056 0.733967 0)
(1.11714 0.810169 0)
(1.07698 0.687173 0)
(1.14377 0.747819 0)
(1.09556 0.641708 0)
(1.15548 0.693713 0)
(1.0995 0.597834 0)
(1.15463 0.645403 0)
(1.09178 0.555749 0)
(1.14347 0.60123 0)
(1.07477 0.515185 0)
(1.12384 0.559571 0)
(1.05088 0.475947 0)
(1.09776 0.519591 0)
(1.06776 0.481033 0)
(1.03716 0.443869 0)
(1.01041 0.407832 0)
(0.99326 0.374006 0)
(0.988162 0.352969 0)
(0.982752 0.337619 0)
(0.965835 0.305383 0)
(1.0358 0.254953 0)
(1.10663 0.286035 0)
(1.16774 0.29178 0)
(1.20933 0.278619 0)
(1.22986 0.25533 0)
(1.2319 0.223002 0)
(1.21827 0.182376 0)
(1.19173 0.134617 0)
(1.1549 0.0809847 0)
(1.11008 0.0226577 0)
(1.05901 -0.0392549 0)
(1.00269 -0.10369 0)
(0.941209 -0.16966 0)
(0.873862 -0.236321 0)
(0.799361 -0.302831 0)
(0.716695 -0.369164 0)
(0.645698 0.669578 0)
(-0.0152734 0.273555 0)
(-1.8991 -0.168275 0)
(-0.544178 0.145814 0)
(1.05625 0.943946 0)
(0.84156 0.7156 0)
(0.24298 0.435542 0)
(-0.318359 -0.020292 0)
(1.18102 0.904202 0)
(1.17599 0.840285 0)
(0.987044 0.699053 0)
(0.748509 0.503599 0)
(1.21338 0.838652 0)
(1.27567 0.835656 0)
(1.25656 0.791445 0)
(1.15061 0.700767 0)
(1.22047 0.781985 0)
(1.28756 0.796412 0)
(1.32661 0.791932 0)
(1.31046 0.762083 0)
(1.21892 0.728731 0)
(1.27748 0.750344 0)
(1.32673 0.762505 0)
(1.35357 0.761764 0)
(1.21036 0.680778 0)
(1.26219 0.706391 0)
(1.30931 0.726194 0)
(1.34811 0.739838 0)
(1.19455 0.637301 0)
(1.24226 0.665631 0)
(1.28662 0.689475 0)
(1.32668 0.709998 0)
(1.17186 0.596367 0)
(1.21698 0.62676 0)
(1.25953 0.653373 0)
(1.29906 0.677574 0)
(1.14351 0.556968 0)
(1.18682 0.588944 0)
(1.22818 0.617711 0)
(1.26723 0.644407 0)
(1.11154 0.51877 0)
(1.15329 0.551891 0)
(1.19365 0.582309 0)
(1.23226 0.610896 0)
(1.07877 0.481804 0)
(1.11879 0.515679 0)
(1.15792 0.547265 0)
(1.19582 0.577253 0)
(1.04892 0.446186 0)
(1.0865 0.480634 0)
(1.12375 0.513001 0)
(1.16031 0.54394 0)
(1.02687 0.412037 0)
(1.06049 0.447011 0)
(1.09456 0.480059 0)
(1.1287 0.511656 0)
(1.01627 0.385614 0)
(1.04556 0.416536 0)
(1.0745 0.449086 0)
(1.10446 0.481067 0)
(1.01713 0.369803 0)
(1.04269 0.398539 0)
(1.06597 0.425952 0)
(1.09117 0.454054 0)
(1.00984 0.350064 0)
(1.03987 0.384448 0)
(1.06709 0.41245 0)
(1.08841 0.438643 0)
(1.03272 0.282315 0)
(1.02959 0.354929 0)
(1.06094 0.394883 0)
(1.08733 0.426308 0)
(1.09972 0.303204 0)
(1.09149 0.318809 0)
(1.07458 0.346281 0)
(1.0813 0.400619 0)
(1.16949 0.328053 0)
(1.16342 0.353976 0)
(1.14624 0.363848 0)
(1.13291 0.368848 0)
(1.22302 0.326478 0)
(1.22698 0.3671 0)
(1.21998 0.396156 0)
(1.20366 0.411866 0)
(1.25473 0.311114 0)
(1.27009 0.361406 0)
(1.27452 0.404582 0)
(1.26685 0.438084 0)
(1.2662 0.286238 0)
(1.2913 0.345531 0)
(1.30605 0.399723 0)
(1.30862 0.446138 0)
(1.26037 0.252732 0)
(1.29341 0.321021 0)
(1.31642 0.386124 0)
(1.32757 0.444709 0)
(1.24012 0.211844 0)
(1.27938 0.289097 0)
(1.3086 0.365191 0)
(1.32599 0.436182 0)
(1.20812 0.165073 0)
(1.25191 0.251451 0)
(1.28538 0.338782 0)
(1.30666 0.422506 0)
(1.16677 0.113896 0)
(1.21347 0.209875 0)
(1.24927 0.309019 0)
(1.27225 0.406067 0)
(1.11792 0.059694 0)
(1.16606 0.166067 0)
(1.20244 0.277921 0)
(1.22516 0.389155 0)
(1.0627 0.00375325 0)
(1.11098 0.121573 0)
(1.14644 0.247293 0)
(1.16725 0.37375 0)
(1.00136 -0.0527444 0)
(1.04873 0.077772 0)
(1.08213 0.218627 0)
(1.09983 0.361431 0)
(0.933433 -0.108886 0)
(0.97926 0.0356575 0)
(1.01005 0.193023 0)
(1.0241 0.353403 0)
(0.858079 -0.164178 0)
(0.902362 -0.00448319 0)
(0.931074 0.17048 0)
(0.942132 0.349935 0)
(0.774337 -0.218522 0)
(0.818124 -0.0427758 0)
(0.845755 0.150696 0)
(0.855923 0.349606 0)
(-0.575975 0.479253 0)
(-0.362054 0.270032 0)
(-0.300493 0.195743 0)
(-0.27245 0.137284 0)
(-0.255934 0.0880828 0)
(-0.245674 0.0439931 0)
(-0.236866 0.00410945 0)
(-0.226584 -0.0313086 0)
(-0.213188 -0.0616169 0)
(-0.196339 -0.086259 0)
(-0.176536 -0.105038 0)
(-0.154716 -0.118162 0)
(-0.131936 -0.126141 0)
(-0.109163 -0.129654 0)
(-0.0871666 -0.129437 0)
(-0.0664949 -0.1262 0)
(-0.0474944 -0.120587 0)
(-0.030349 -0.113153 0)
(-0.0151207 -0.104366 0)
(-0.00178899 -0.0946135 0)
(0.00971709 -0.0842171 0)
(0.019496 -0.0734455 0)
(0.027655 -0.0625251 0)
(0.0343004 -0.0516492 0)
(0.0395336 -0.0409846 0)
(0.0434477 -0.0306757 0)
(0.0461299 -0.0208471 0)
(0.0476642 -0.0116039 0)
(0.0481319 -0.00303014 0)
(0.0476112 0.00480811 0)
(0.0461833 0.0118573 0)
(0.0439325 0.0180716 0)
(0.0409422 0.0234103 0)
(0.0372876 0.0278348 0)
(0.03303 0.0313057 0)
(0.0282144 0.0337769 0)
(0.0228638 0.0351872 0)
(0.0170047 0.0354375 0)
(0.0108006 0.0343275 0)
(0.00455277 0.0309901 0)
(-0.486106 0.152899 0)
(-0.31358 0.177392 0)
(-0.268235 0.157333 0)
(-0.243631 0.117194 0)
(-0.230505 0.0778711 0)
(-0.226012 0.0375839 0)
(-0.223434 -0.00197249 0)
(-0.21867 -0.0391744 0)
(-0.209296 -0.0722049 0)
(-0.19474 -0.099579 0)
(-0.175686 -0.120509 0)
(-0.15348 -0.134938 0)
(-0.129631 -0.143364 0)
(-0.105492 -0.1466 0)
(-0.0821144 -0.14556 0)
(-0.0602297 -0.141135 0)
(-0.0402797 -0.134122 0)
(-0.0224809 -0.125199 0)
(-0.0068868 -0.114916 0)
(0.00655666 -0.103716 0)
(0.0179688 -0.0919545 0)
(0.0274972 -0.0799109 0)
(0.0352913 -0.0678121 0)
(0.0414966 -0.0558459 0)
(0.046247 -0.0441714 0)
(0.0496609 -0.032925 0)
(0.051843 -0.0222254 0)
(0.0528895 -0.0121746 0)
(0.0528893 -0.00285557 0)
(0.0519215 0.00566675 0)
(0.050063 0.0133413 0)
(0.047392 0.0201245 0)
(0.0439866 0.0259786 0)
(0.0399179 0.0308708 0)
(0.0352428 0.03477 0)
(0.0300029 0.0376417 0)
(0.0242198 0.0394363 0)
(0.0179294 0.040066 0)
(0.0113128 0.0393401 0)
(0.00470081 0.0363716 0)
(0.326841 0.390248 0)
(-0.0038525 0.184598 0)
(-0.0831906 0.122566 0)
(-0.131814 0.102743 0)
(-0.150466 0.0754424 0)
(-0.168869 0.0390992 0)
(-0.183765 -0.0011858 0)
(-0.192707 -0.0417519 0)
(-0.193454 -0.0792508 0)
(-0.185514 -0.11101 0)
(-0.170042 -0.135431 0)
(-0.14915 -0.152095 0)
(-0.125159 -0.161497 0)
(-0.100105 -0.164657 0)
(-0.0755337 -0.162777 0)
(-0.0524904 -0.157015 0)
(-0.0315934 -0.148389 0)
(-0.0131354 -0.137743 0)
(0.00281808 -0.125743 0)
(0.0163513 -0.112905 0)
(0.0276326 -0.0996227 0)
(0.036857 -0.0861883 0)
(0.0442199 -0.072825 0)
(0.0499085 -0.0597113 0)
(0.0540926 -0.0469934 0)
(0.0569185 -0.0347942 0)
(0.0585103 -0.0232205 0)
(0.0589779 -0.0123657 0)
(0.058419 -0.00230816 0)
(0.0569153 0.00689112 0)
(0.0545411 0.0151848 0)
(0.0513679 0.0225337 0)
(0.0474688 0.0289045 0)
(0.0429108 0.0342695 0)
(0.0377483 0.0386046 0)
(0.03202 0.041884 0)
(0.0257467 0.0440668 0)
(0.0189734 0.0450712 0)
(0.0118976 0.0447084 0)
(0.00488133 0.0420509 0)
(0.979733 0.591225 0)
(0.750573 0.491987 0)
(0.373394 0.310151 0)
(0.136619 0.150783 0)
(0.0278032 0.0999407 0)
(-0.0456548 0.0610171 0)
(-0.0981483 0.0159105 0)
(-0.134859 -0.0319898 0)
(-0.156155 -0.0776911 0)
(-0.162475 -0.1171 0)
(-0.15581 -0.147614 0)
(-0.139491 -0.16835 0)
(-0.117212 -0.179854 0)
(-0.0922132 -0.183505 0)
(-0.0669174 -0.180959 0)
(-0.0429275 -0.173799 0)
(-0.0211789 -0.163377 0)
(-0.00211663 -0.150778 0)
(0.0141489 -0.13683 0)
(0.027721 -0.122151 0)
(0.0388075 -0.107179 0)
(0.0476517 -0.0922229 0)
(0.0544983 -0.0775004 0)
(0.0595788 -0.0631755 0)
(0.0631018 -0.0493766 0)
(0.0652436 -0.0362068 0)
(0.0661491 -0.0237552 0)
(0.0659426 -0.0121012 0)
(0.0647316 -0.00131388 0)
(0.0626021 0.00855276 0)
(0.0596267 0.0174572 0)
(0.055871 0.0253662 0)
(0.0514017 0.0322516 0)
(0.0462823 0.0380905 0)
(0.0405647 0.0428649 0)
(0.0342857 0.0465553 0)
(0.027465 0.0491261 0)
(0.0201555 0.0504976 0)
(0.0125695 0.0504759 0)
(0.0051007 0.0480745 0)
(1.23974 0.706131 0)
(1.12967 0.632782 0)
(0.961659 0.55186 0)
(0.643909 0.394777 0)
(0.354207 0.222649 0)
(0.181193 0.126701 0)
(0.061339 0.063822 0)
(-0.0243283 0.00174756 0)
(-0.0822588 -0.0586542 0)
(-0.115185 -0.111545 0)
(-0.126335 -0.152895 0)
(-0.120573 -0.181174 0)
(-0.103581 -0.197027 0)
(-0.0805744 -0.202423 0)
(-0.0555292 -0.199763 0)
(-0.0310684 -0.191328 0)
(-0.00870727 -0.179005 0)
(0.010819 -0.164247 0)
(0.0272977 -0.148128 0)
(0.0408172 -0.131397 0)
(0.0516101 -0.114558 0)
(0.0599697 -0.0979411 0)
(0.0661923 -0.0817586 0)
(0.0705555 -0.0661554 0)
(0.0733082 -0.0512357 0)
(0.074659 -0.0370779 0)
(0.0747749 -0.0237463 0)
(0.0737943 -0.0113005 0)
(0.0718348 0.000204919 0)
(0.068988 0.0107259 0)
(0.0653257 0.0202292 0)
(0.0609073 0.0286887 0)
(0.055793 0.0360825 0)
(0.050042 0.0423928 0)
(0.0437039 0.0476062 0)
(0.0368132 0.0517077 0)
(0.0293881 0.0546639 0)
(0.0214876 0.0563931 0)
(0.0133373 0.0566916 0)
(0.00536264 0.0544958 0)
(1.34357 0.744042 0)
(1.2959 0.710349 0)
(1.2186 0.661164 0)
(1.09356 0.597007 0)
(0.823107 0.461209 0)
(0.538017 0.296786 0)
(0.321046 0.167871 0)
(0.162572 0.0745073 0)
(0.047898 -0.00912621 0)
(-0.0284722 -0.0840652 0)
(-0.0709569 -0.143954 0)
(-0.0857212 -0.185854 0)
(-0.0804833 -0.210257 0)
(-0.0631532 -0.219936 0)
(-0.0402549 -0.218461 0)
(-0.0162566 -0.209247 0)
(0.0062431 -0.195084 0)
(0.0259756 -0.178037 0)
(0.0424976 -0.159543 0)
(0.0558157 -0.140553 0)
(0.0661736 -0.121666 0)
(0.0739096 -0.103245 0)
(0.0793726 -0.0855 0)
(0.0828878 -0.0685518 0)
(0.0847448 -0.0524739 0)
(0.0851855 -0.0373131 0)
(0.0843997 -0.0231028 0)
(0.0825395 -0.00987679 0)
(0.0797317 0.00233022 0)
(0.0760738 0.0134876 0)
(0.0716379 0.0235728 0)
(0.0664773 0.0325688 0)
(0.0606446 0.0404604 0)
(0.0541938 0.0472355 0)
(0.0471716 0.0528843 0)
(0.0396094 0.0573938 0)
(0.0315231 0.0607307 0)
(0.0229763 0.0628082 0)
(0.0142063 0.0634085 0)
(0.00566896 0.061373 0)
(1.37044 0.743473 0)
(1.3644 0.735937 0)
(1.33138 0.718032 0)
(1.27337 0.684683 0)
(1.176 0.633428 0)
(0.946422 0.516357 0)
(0.681719 0.361654 0)
(0.441454 0.210355 0)
(0.252508 0.08543 0)
(0.114835 -0.0212936 0)
(0.0244801 -0.109683 0)
(-0.0248117 -0.174366 0)
(-0.0417314 -0.214515 0)
(-0.0366012 -0.233246 0)
(-0.0193677 -0.235621 0)
(0.00243645 -0.226858 0)
(0.0242358 -0.211264 0)
(0.0437377 -0.19194 0)
(0.0600206 -0.170924 0)
(0.0729166 -0.149484 0)
(0.0826444 -0.128372 0)
(0.0895762 -0.108008 0)
(0.094112 -0.0886023 0)
(0.0966239 -0.0702476 0)
(0.0974413 -0.0529799 0)
(0.0968392 -0.0368071 0)
(0.0950301 -0.0217257 0)
(0.0921784 -0.0077374 0)
(0.0884185 0.00514804 0)
(0.0838541 0.0169177 0)
(0.0785572 0.0275624 0)
(0.0725751 0.0370753 0)
(0.0659521 0.0454497 0)
(0.0587353 0.0526785 0)
(0.050967 0.058755 0)
(0.0426751 0.0636668 0)
(0.0338716 0.0673784 0)
(0.0246237 0.0697954 0)
(0.0151785 0.0706819 0)
(0.00602024 0.0687674 0)
(1.36092 0.726093 0)
(1.38026 0.73495 0)
(1.37711 0.735883 0)
(1.35283 0.728294 0)
(1.30771 0.705995 0)
(1.22794 0.664348 0)
(1.03136 0.561456 0)
(0.788655 0.413788 0)
(0.538232 0.244621 0)
(0.327562 0.090387 0)
(0.173973 -0.0370785 0)
(0.0745456 -0.1353 0)
(0.0215584 -0.201489 0)
(0.00428634 -0.237327 0)
(0.00981722 -0.248605 0)
(0.0263766 -0.242886 0)
(0.0460353 -0.226928 0)
(0.064576 -0.205613 0)
(0.080182 -0.182032 0)
(0.0923409 -0.157994 0)
(0.101178 -0.134503 0)
(0.107076 -0.11207 0)
(0.110481 -0.0909162 0)
(0.111807 -0.0711045 0)
(0.111421 -0.0526263 0)
(0.109629 -0.0354429 0)
(0.106665 -0.0195075 0)
(0.102703 -0.00478364 0)
(0.0978841 0.00874896 0)
(0.092316 0.0210994 0)
(0.0860704 0.0322741 0)
(0.0791883 0.0422786 0)
(0.0717044 0.0511148 0)
(0.0636571 0.0587815 0)
(0.055083 0.0652742 0)
(0.0460051 0.07058 0)
(0.0364301 0.0746594 0)
(0.0264277 0.0774082 0)
(0.0162529 0.0785689 0)
(0.00641588 0.0767418 0)
(1.3366 0.70036 0)
(1.36784 0.720324 0)
(1.38476 0.734208 0)
(1.38368 0.741595 0)
(1.36507 0.741128 0)
(1.32844 0.726426 0)
(1.25917 0.691337 0)
(1.08657 0.597333 0)
(0.861463 0.450931 0)
(0.608398 0.264949 0)
(0.385661 0.0868902 0)
(0.223045 -0.0559139 0)
(0.119488 -0.159979 0)
(0.0666904 -0.22431 0)
(0.0513358 -0.252924 0)
(0.0575984 -0.255088 0)
(0.0726788 -0.240999 0)
(0.0890702 -0.218492 0)
(0.103341 -0.19251 0)
(0.114325 -0.165813 0)
(0.121932 -0.13983 0)
(0.126514 -0.115229 0)
(0.128541 -0.0922623 0)
(0.128469 -0.0709617 0)
(0.126695 -0.051269 0)
(0.123552 -0.0330913 0)
(0.119291 -0.016332 0)
(0.114096 -0.000910295 0)
(0.108107 0.0132283 0)
(0.101438 0.0261187 0)
(0.0941557 0.037786 0)
(0.0862961 0.0482492 0)
(0.0778826 0.0575202 0)
(0.0689431 0.0656036 0)
(0.0595062 0.0724972 0)
(0.0495885 0.0781864 0)
(0.0391905 0.0826259 0)
(0.0283825 0.0857 0)
(0.0174259 0.0871264 0)
(0.00685395 0.0853594 0)
(1.30568 0.670847 0)
(1.34178 0.697394 0)
(1.36981 0.721034 0)
(1.38542 0.739444 0)
(1.38559 0.751821 0)
(1.37042 0.756486 0)
(1.3388 0.746971 0)
(1.27438 0.715825 0)
(1.11657 0.623305 0)
(0.902317 0.468861 0)
(0.651157 0.267446 0)
(0.424028 0.0746895 0)
(0.259345 -0.0779886 0)
(0.158263 -0.183868 0)
(0.110572 -0.241729 0)
(0.0989995 -0.259772 0)
(0.105576 -0.25168 0)
(0.11794 -0.22968 0)
(0.129904 -0.201836 0)
(0.139117 -0.172576 0)
(0.145062 -0.144062 0)
(0.14798 -0.117241 0)
(0.148343 -0.0924279 0)
(0.146629 -0.0696338 0)
(0.143261 -0.0487456 0)
(0.138591 -0.0296099 0)
(0.132884 -0.0120733 0)
(0.126325 0.00399398 0)
(0.119055 0.0186847 0)
(0.111185 0.0320634 0)
(0.102781 0.0441762 0)
(0.093869 0.0550575 0)
(0.08446 0.0647298 0)
(0.0745697 0.0732036 0)
(0.0642167 0.0804788 0)
(0.0534091 0.086538 0)
(0.0421396 0.0913292 0)
(0.0304787 0.0947232 0)
(0.0186918 0.0964104 0)
(0.00733143 0.0946831 0)
(1.27097 0.63968 0)
(1.30908 0.669941 0)
(1.34259 0.699805 0)
(1.36847 0.727172 0)
(1.38294 0.749585 0)
(1.38328 0.766201 0)
(1.36965 0.774665 0)
(1.34041 0.768468 0)
(1.27609 0.736834 0)
(1.12332 0.636536 0)
(0.914303 0.469272 0)
(0.664528 0.255589 0)
(0.440823 0.0523517 0)
(0.283467 -0.105861 0)
(0.192885 -0.206357 0)
(0.154239 -0.25147 0)
(0.146611 -0.256125 0)
(0.152093 -0.237783 0)
(0.160334 -0.209258 0)
(0.166968 -0.177796 0)
(0.170708 -0.146835 0)
(0.171547 -0.117808 0)
(0.169912 -0.0911644 0)
(0.166283 -0.0669096 0)
(0.161094 -0.0448756 0)
(0.154709 -0.0248433 0)
(0.147398 -0.006597 0)
(0.139343 0.0100455 0)
(0.13068 0.0252199 0)
(0.121514 0.0390225 0)
(0.111905 0.0515235 0)
(0.101868 0.0627737 0)
(0.0914016 0.0728066 0)
(0.0805061 0.081639 0)
(0.0691878 0.0892719 0)
(0.0574445 0.0956849 0)
(0.0452598 0.100818 0)
(0.0327032 0.104528 0)
(0.020042 0.106475 0)
(0.00784438 0.104773 0)
(1.23433 0.607709 0)
(1.27313 0.640268 0)
(1.30916 0.673795 0)
(1.34062 0.707296 0)
(1.3645 0.738339 0)
(1.37723 0.764547 0)
(1.37651 0.785054 0)
(1.36278 0.796064 0)
(1.33367 0.79101 0)
(1.26238 0.750391 0)
(1.10683 0.637221 0)
(0.895248 0.455273 0)
(0.650124 0.227737 0)
(0.440528 0.0152381 0)
(0.301152 -0.138657 0)
(0.226916 -0.22337 0)
(0.198084 -0.250253 0)
(0.192656 -0.24071 0)
(0.19516 -0.213698 0)
(0.198133 -0.180824 0)
(0.198986 -0.147693 0)
(0.197257 -0.116577 0)
(0.193245 -0.0881853 0)
(0.187399 -0.0625523 0)
(0.180147 -0.0394614 0)
(0.171848 -0.0186252 0)
(0.16277 0.000237694 0)
(0.153086 0.0173646 0)
(0.14292 0.0329366 0)
(0.132365 0.047085 0)
(0.121472 0.0599054 0)
(0.110244 0.071466 0)
(0.0986634 0.0818113 0)
(0.0867136 0.0909642 0)
(0.0743863 0.0989266 0)
(0.0616671 0.105675 0)
(0.048529 0.11114 0)
(0.0350395 0.115162 0)
(0.0214657 0.11737 0)
(0.00838781 0.115685 0)
(1.19796 0.575556 0)
(1.23648 0.609633 0)
(1.27325 0.645393 0)
(1.30728 0.682708 0)
(1.33651 0.7201 0)
(1.35781 0.754908 0)
(1.36785 0.784804 0)
(1.36499 0.808599 0)
(1.35004 0.820316 0)
(1.31839 0.813569 0)
(1.23192 0.756478 0)
(1.0681 0.626277 0)
(0.854547 0.421469 0)
(0.620374 0.176018 0)
(0.434158 -0.0338367 0)
(0.3191 -0.168818 0)
(0.262224 -0.22896 0)
(0.240899 -0.235556 0)
(0.234951 -0.213647 0)
(0.232846 -0.180814 0)
(0.229974 -0.146077 0)
(0.225109 -0.113135 0)
(0.218297 -0.0831667 0)
(0.209908 -0.0563015 0)
(0.200334 -0.0322908 0)
(0.189919 -0.010781 0)
(0.178911 0.00857563 0)
(0.167466 0.0260725 0)
(0.155692 0.0419372 0)
(0.143664 0.0563379 0)
(0.131416 0.0693968 0)
(0.118937 0.0811995 0)
(0.106192 0.0918012 0)
(0.0931455 0.10123 0)
(0.0797723 0.10949 0)
(0.0660436 0.116551 0)
(0.0519207 0.122336 0)
(0.0374682 0.126669 0)
(0.02295 0.129143 0)
(0.00895577 0.127472 0)
(1.16445 0.544 0)
(1.20162 0.579021 0)
(1.23779 0.616148 0)
(1.27234 0.655802 0)
(1.30396 0.697381 0)
(1.33027 0.738948 0)
(1.34813 0.777477 0)
(1.35458 0.81046 0)
(1.34895 0.835768 0)
(1.33186 0.846157 0)
(1.29408 0.836022 0)
(1.18737 0.757507 0)
(1.01981 0.597505 0)
(0.804063 0.360053 0)
(0.586775 0.107493 0)
(0.429888 -0.0830499 0)
(0.340177 -0.187019 0)
(0.297909 -0.218755 0)
(0.280236 -0.207132 0)
(0.271285 -0.176682 0)
(0.263685 -0.141315 0)
(0.25504 -0.107009 0)
(0.244969 -0.0757507 0)
(0.233693 -0.0478775 0)
(0.221537 -0.0231409 0)
(0.2088 -0.00113073 0)
(0.195702 0.0185626 0)
(0.182376 0.0362881 0)
(0.168899 0.0523199 0)
(0.15532 0.0668636 0)
(0.141656 0.0800675 0)
(0.127876 0.092034 0)
(0.113925 0.102829 0)
(0.0997473 0.112484 0)
(0.0852992 0.121003 0)
(0.0705357 0.128353 0)
(0.0554044 0.134445 0)
(0.0399664 0.139086 0)
(0.0244801 0.141833 0)
(0.00954162 0.140177 0)
(1.13675 0.513888 0)
(1.17118 0.549434 0)
(1.2054 0.587302 0)
(1.23889 0.62832 0)
(1.2707 0.672528 0)
(1.29915 0.718793 0)
(1.32169 0.764509 0)
(1.33528 0.806084 0)
(1.33749 0.840615 0)
(1.32888 0.864083 0)
(1.30913 0.871565 0)
(1.2613 0.847534 0)
(1.13783 0.737444 0)
(0.959965 0.538432 0)
(0.743931 0.275132 0)
(0.554051 0.0341928 0)
(0.430717 -0.120737 0)
(0.363954 -0.186675 0)
(0.331302 -0.191833 0)
(0.3135 -0.167119 0)
(0.300036 -0.132625 0)
(0.286906 -0.0976733 0)
(0.273096 -0.0655531 0)
(0.258586 -0.0369866 0)
(0.243585 -0.0117828 0)
(0.228331 0.0105054 0)
(0.212999 0.0303405 0)
(0.197682 0.048124 0)
(0.182419 0.0641757 0)
(0.167227 0.0787368 0)
(0.152098 0.0919799 0)
(0.136978 0.104023 0)
(0.12179 0.114939 0)
(0.106457 0.124766 0)
(0.0909143 0.133503 0)
(0.0750995 0.141114 0)
(0.0589455 0.147498 0)
(0.0425086 0.152445 0)
(0.0260391 0.155473 0)
(0.0101382 0.153838 0)
(1.11806 0.486085 0)
(1.1479 0.52179 0)
(1.17859 0.559984 0)
(1.20948 0.601676 0)
(1.2397 0.647418 0)
(1.26798 0.696722 0)
(1.29239 0.747679 0)
(1.31027 0.796761 0)
(1.31873 0.839861 0)
(1.31619 0.873857 0)
(1.30452 0.893057 0)
(1.27957 0.895158 0)
(1.21139 0.839208 0)
(1.06934 0.68782 0)
(0.88269 0.448105 0)
(0.682154 0.176596 0)
(0.530011 -0.0294577 0)
(0.437977 -0.136656 0)
(0.387902 -0.16542 0)
(0.359315 -0.150679 0)
(0.338797 -0.11914 0)
(0.320457 -0.0845656 0)
(0.302431 -0.0521756 0)
(0.284347 -0.0233328 0)
(0.266259 0.00200929 0)
(0.248311 0.0242992 0)
(0.230621 0.0440406 0)
(0.213226 0.0616819 0)
(0.196113 0.0775848 0)
(0.179263 0.0920219 0)
(0.162635 0.105187 0)
(0.14615 0.11721 0)
(0.129707 0.128171 0)
(0.113205 0.138107 0)
(0.0965589 0.147018 0)
(0.0796867 0.154859 0)
(0.0625057 0.16152 0)
(0.0450667 0.16677 0)
(0.027609 0.170091 0)
(0.0107377 0.168485 0)
(1.10991 0.465135 0)
(1.13433 0.49755 0)
(1.15968 0.535152 0)
(1.18623 0.577085 0)
(1.21321 0.623607 0)
(1.23939 0.674741 0)
(1.26324 0.729221 0)
(1.28263 0.784076 0)
(1.29486 0.834811 0)
(1.29728 0.877235 0)
(1.29041 0.907561 0)
(1.27525 0.921361 0)
(1.24134 0.910983 0)
(1.14032 0.807719 0)
(0.988513 0.605894 0)
(0.801914 0.331569 0)
(0.632234 0.083795 0)