/*--------------------------------*- C++ -*----------------------------------*\
  =========                 |
  \\      /  F ield         | OpenFOAM: The Open Source CFD Toolbox
   \\    /   O peration     | Website:  https://openfoam.org
    \\  /    A nd           | Version:  9
     \\/     M anipulation  |
\*---------------------------------------------------------------------------*/
FoamFile
{
    format      ascii;
    class       volScalarField;
    location    "420";
    object      nut;
}
// * * * * * * * * * * * * * * * * * * * * * * * * * * * * * * * * * * * * * //

dimensions      [0 2 -1 0 0 0 0];

internalField   nonuniform List<scalar> 
10720
(
0.0673943
0.0696998
0.0719243
0.0735895
0.0748108
0.0750387
0.0739506
0.0710512
0.0654385
0.0563403
0.0433361
0.0271114
0.0151067
0.0153227
0.0195427
0.0212993
0.019595
0.0185125
0.0177437
0.0184863
0.0196747
0.0213812
0.0233909
0.0255655
0.0278916
0.0301606
0.0323432
0.0344365
0.0364649
0.0384426
0.0403504
0.0420995
0.0436135
0.0447682
0.0453304
0.0448395
0.0428113
0.036246
0.0253449
0.065138
0.0627238
0.0601338
0.0571106
0.0538119
0.050173
0.0461589
0.0417915
0.0371519
0.0322933
0.0271486
0.0216836
0.0161535
0.0131742
0.0119611
0.0112279
0.0139953
0.0166121
0.0186994
0.0205238
0.0222874
0.0240861
0.0259581
0.0278957
0.0298408
0.0317245
0.0335174
0.0352096
0.0367992
0.0382825
0.0396674
0.0409632
0.0421895
0.0434116
0.0446784
0.0460488
0.0474888
0.0494282
0.0514485
0.0674738
0.0666165
0.0656824
0.0649812
0.0650025
0.0671784
0.0707769
0.07516
0.0797208
0.0834919
0.0851212
0.0833699
0.0787655
0.0787941
0.0864952
0.0748148
0.055423
0.0484288
0.0412697
0.0431162
0.042308
0.0410512
0.0397055
0.0385322
0.0394922
0.0407947
0.0420453
0.0432484
0.0444422
0.0456574
0.0469421
0.0480998
0.0493868
0.0513403
0.0547284
0.0601154
0.0683154
0.0798443
0.100456
0.0682267
0.0685894
0.0691164
0.0691046
0.0687755
0.0680601
0.0668001
0.0649487
0.0626117
0.0599812
0.0570774
0.0540578
0.0510677
0.0480781
0.0451414
0.0423413
0.0396329
0.0371734
0.0349763
0.0330017
0.0312514
0.0297126
0.0283625
0.027134
0.0260016
0.0250016
0.0241467
0.0234459
0.0229003
0.0225069
0.022257
0.0221377
0.0221671
0.0226835
0.0237215
0.0250303
0.0266226
0.027698
0.0296164
0.0963474
0.095378
0.0938828
0.0918616
0.0894144
0.0871756
0.0850197
0.0834109
0.0810535
0.0815266
0.0848201
0.0903218
0.096581
0.104355
0.119228
0.130328
0.129563
0.114043
0.0880817
0.080041
0.0767464
0.0772065
0.0795666
0.0824911
0.0856709
0.0889122
0.0921903
0.0954468
0.0986396
0.101598
0.104127
0.106098
0.107877
0.110697
0.116327
0.125034
0.136191
0.15317
0.194682
0.0971886
0.0976332
0.0981914
0.0983028
0.098091
0.0975121
0.0964328
0.0947871
0.0926318
0.0900754
0.0871226
0.0838932
0.0805258
0.0771077
0.0737011
0.0703323
0.067087
0.0640067
0.0611011
0.058354
0.0557734
0.0533453
0.0510488
0.0487832
0.0464938
0.0442366
0.0420304
0.0398961
0.0378506
0.0359097
0.0340844
0.0323877
0.0308293
0.0294537
0.0282364
0.028005
0.028648
0.0299265
0.0269058
0.112269
0.111548
0.110437
0.108928
0.107078
0.104619
0.101501
0.0985882
0.0953439
0.0919377
0.0892989
0.0886003
0.0924273
0.101607
0.119189
0.145628
0.170167
0.1734
0.159042
0.145139
0.137435
0.137282
0.140663
0.144895
0.149011
0.152847
0.156452
0.159854
0.163118
0.166162
0.168734
0.170631
0.172151
0.174562
0.180012
0.189583
0.20291
0.228582
0.297477
0.112848
0.113186
0.113531
0.113616
0.113474
0.113082
0.112351
0.111225
0.109723
0.107875
0.105675
0.103176
0.100453
0.0975695
0.094579
0.0915074
0.0884224
0.0853745
0.0823956
0.0794922
0.0766862
0.0739762
0.0713464
0.0687044
0.0659864
0.0632406
0.0604934
0.0577727
0.055107
0.0525135
0.0500069
0.0476035
0.0453227
0.0431915
0.0412238
0.0395196
0.0380081
0.0378281
0.0325361
0.12128
0.120759
0.119949
0.11886
0.11752
0.115772
0.113553
0.110807
0.107386
0.104115
0.100503
0.0964274
0.0928167
0.0947868
0.105806
0.131374
0.171497
0.206657
0.21341
0.204627
0.196842
0.19598
0.199939
0.205683
0.211597
0.217208
0.222438
0.227314
0.232011
0.236518
0.240459
0.243262
0.244728
0.245981
0.250471
0.261381
0.278175
0.315538
0.406448
0.12167
0.121906
0.122128
0.122197
0.122108
0.12185
0.121368
0.120627
0.119629
0.118382
0.116876
0.115129
0.113175
0.111044
0.108766
0.106344
0.103824
0.10124
0.0986283
0.096003
0.0933906
0.090797
0.088215
0.0855652
0.0827898
0.0799303
0.0770151
0.0740734
0.0711305
0.0682109
0.0653367
0.0625311
0.0598256
0.0572526
0.0548399
0.0526548
0.0505667
0.0498764
0.0439086
0.126857
0.126506
0.125947
0.125186
0.124241
0.123006
0.121442
0.119488
0.116953
0.113855
0.110134
0.106422
0.101763
0.0975987
0.0981563
0.111428
0.146568
0.200851
0.244223
0.254377
0.251102
0.25092
0.255989
0.263942
0.272711
0.281396
0.289657
0.297417
0.3049
0.312152
0.318666
0.323425
0.325525
0.325806
0.329715
0.344285
0.36621
0.411101
0.520356
0.1271
0.127241
0.127364
0.127393
0.127312
0.127119
0.126779
0.12627
0.12559
0.124743
0.123722
0.122532
0.121188
0.119702
0.118082
0.116318
0.114428
0.112431
0.110354
0.108206
0.106009
0.103769
0.101482
0.0990825
0.0965197
0.0938246
0.0910223
0.0881395
0.0852003
0.0822304
0.0792557
0.0763058
0.0734119
0.070613
0.0679474
0.0654938
0.0631208
0.0621202
0.0563316
0.130468
0.130227
0.129823
0.129272
0.128583
0.127683
0.126561
0.125182
0.123433
0.121194
0.118254
0.114649
0.110865
0.106142
0.101319
0.101757
0.119698
0.167894
0.236631
0.285512
0.298284
0.302102
0.309068
0.319541
0.331642
0.344143
0.356416
0.368223
0.379767
0.391116
0.401643
0.409883
0.414114
0.414595
0.418778
0.437764
0.463743
0.513313
0.637348
0.130618
0.130694
0.13075
0.130747
0.130663
0.130501
0.130242
0.129872
0.129388
0.128794
0.128086
0.127268
0.126348
0.125328
0.124203
0.122958
0.121598
0.12013
0.118568
0.116917
0.115188
0.113383
0.111495
0.109475
0.107274
0.104914
0.102411
0.0997852
0.0970556
0.0942456
0.0913801
0.0884901
0.0856089
0.0827796
0.0800465
0.0774976
0.0750175
0.0738326
0.0683957
0.132952
0.13279
0.1325
0.132103
0.131606
0.130949
0.130127
0.129117
0.127852
0.126264
0.124208
0.121461
0.118033
0.114241
0.109291
0.103964
0.105955
0.132755
0.198293
0.280488
0.33131
0.347715
0.358771
0.372212
0.38785
0.404508
0.421365
0.438034
0.45469
0.47144
0.487575
0.501212
0.509724
0.51229
0.517391
0.539893
0.5692
0.621477
0.755986
0.133033
0.13306
0.133069
0.133038
0.132946
0.132798
0.132587
0.132301
0.131942
0.13151
0.131006
0.130434
0.129801
0.129099
0.128317
0.127443
0.126477
0.12542
0.124277
0.123048
0.121738
0.120343
0.118857
0.117236
0.115441
0.113482
0.111365
0.109104
0.106708
0.104197
0.10159
0.0989139
0.0962022
0.0934973
0.0908459
0.0883394
0.0858828
0.0846052
0.0796443
0.134718
0.134612
0.134404
0.134118
0.133757
0.133275
0.132667
0.131925
0.130998
0.129843
0.12838
0.12645
0.123865
0.120549
0.116683
0.111329
0.105827
0.112226
0.153752
0.240229
0.332423
0.382628
0.403642
0.421455
0.440941
0.461936
0.483675
0.505704
0.528217
0.551436
0.574692
0.595788
0.611169
0.618377
0.625096
0.649775
0.681832
0.735071
0.875544
0.134751
0.134745
0.134719
0.134668
0.134568
0.134427
0.134243
0.134012
0.133735
0.133412
0.133046
0.132642
0.132203
0.131716
0.131169
0.130553
0.129867
0.129109
0.12828
0.127378
0.126402
0.125349
0.124209
0.122947
0.121529
0.119959
0.118237
0.116368
0.114355
0.112208
0.109942
0.107577
0.105141
0.102673
0.100217
0.0978638
0.0955358
0.0942459
0.0898366
0.136013
0.135952
0.13581
0.135612
0.135357
0.135007
0.134555
0.134
0.133311
0.132457
0.131387
0.130005
0.128174
0.125684
0.122411
0.118369
0.112429
0.107696
0.123061
0.1863
0.294734
0.39156
0.440073
0.46616
0.490421
0.516013
0.542818
0.570498
0.599338
0.629775
0.661353
0.691794
0.71678
0.731864
0.741686
0.767026
0.801074
0.853602
0.995635
0.136012
0.135982
0.135933
0.135867
0.135759
0.135621
0.135455
0.13526
0.135039
0.134792
0.134523
0.134238
0.133933
0.133592
0.133206
0.13277
0.132282
0.131738
0.131138
0.130478
0.129758
0.12897
0.128105
0.127137
0.126038
0.124807
0.12344
0.121936
0.120296
0.118521
0.116619
0.114605
0.112499
0.110333
0.108148
0.106025
0.103903
0.102671
0.0988319
0.136986
0.136963
0.136876
0.136749
0.136573
0.136316
0.135977
0.135554
0.135032
0.134393
0.133601
0.132591
0.131277
0.129511
0.127059
0.123764
0.119357
0.112677
0.111468
0.142485
0.233671
0.360985
0.456687
0.503754
0.535394
0.566257
0.598369
0.631897
0.667342
0.705449
0.746135
0.787332
0.824374
0.850998
0.866955
0.891554
0.926416
0.976557
1.11604
0.136959
0.136912
0.136847
0.13677
0.136656
0.13652
0.136364
0.136195
0.136014
0.135822
0.135625
0.135425
0.135213
0.134973
0.134702
0.134393
0.134045
0.133655
0.133221
0.13274
0.132209
0.131622
0.13097
0.130233
0.129388
0.128433
0.127362
0.126173
0.124862
0.123427
0.121872
0.120204
0.118438
0.116598
0.114717
0.112867
0.110998
0.109877
0.106594
0.137735
0.137745
0.137703
0.137628
0.137505
0.137311
0.137049
0.136717
0.136312
0.135825
0.135231
0.134486
0.133532
0.132276
0.130535
0.12807
0.124663
0.119601
0.112949
0.119602
0.174899
0.297322
0.436516
0.526698
0.573909
0.611898
0.649842
0.689441
0.73167
0.777682
0.827873
0.88062
0.931412
0.972961
0.999848
1.02352
1.0574
1.10338
1.23626
0.137684
0.137624
0.137549
0.137464
0.137346
0.137209
0.137061
0.13691
0.13676
0.13661
0.136467
0.136329
0.136182
0.136014
0.135823
0.135605
0.135359
0.135081
0.134769
0.134419
0.134029
0.133594
0.133105
0.132545
0.131898
0.131161
0.130329
0.129397
0.128362
0.127219
0.125969
0.124616
0.123168
0.121644
0.120068
0.118503
0.116906
0.115928
0.113167
0.138322
0.138361
0.138353
0.138309
0.138216
0.138059
0.137846
0.137579
0.137259
0.136881
0.13643
0.135875
0.135177
0.134275
0.133044
0.13128
0.128785
0.125236
0.119276
0.114484
0.136113
0.224301
0.376143
0.518181
0.601199
0.651427
0.696526
0.742615
0.791801
0.845822
0.905632
0.970158
1.03539
1.09402
1.13703
1.16328
1.19365
1.23343
1.35581
0.13825
0.138178
0.138094
0.138005
0.137883
0.137747
0.137604
0.137466
0.13734
0.137224
0.137123
0.137029
0.136928
0.136812
0.13668
0.136528
0.136356
0.13616
0.135938
0.135686
0.135403
0.135082
0.134717
0.134294
0.1338
0.133234
0.132589
0.131864
0.131052
0.130151
0.129158
0.128076
0.126909
0.125671
0.124379
0.123088
0.121757
0.120936
0.118649
0.138791
0.138852
0.138862
0.13883
0.138749
0.138613
0.138435
0.138216
0.137958
0.137661
0.137313
0.136895
0.136379
0.135723
0.134849
0.133591
0.131825
0.129332
0.125357
0.118625
0.119984
0.16608
0.29283
0.466469
0.603455
0.681509
0.737179
0.790717
0.847158
0.909247
0.978616
1.05476
1.13426
1.21037
1.27281
1.31056
1.33486
1.36599
1.47422
0.138699
0.138614
0.138524
0.138432
0.138308
0.13817
0.138031
0.137905
0.137798
0.137709
0.13764
0.137578
0.13751
0.137433
0.137344
0.137241
0.137123
0.136988
0.136833
0.136656
0.136452
0.136219
0.135949
0.135632
0.135257
0.134824
0.134328
0.133765
0.133133
0.132428
0.131648
0.130792
0.129864
0.128873
0.127834
0.12679
0.125708
0.125042
0.123177
0.139167
0.13924
0.139255
0.139222
0.139144
0.139022
0.13887
0.138689
0.138478
0.13824
0.13797
0.137652
0.137266
0.136779
0.136149
0.135262
0.134004
0.132358
0.12977
0.124881
0.118867
0.133291
0.213934
0.379154
0.563932
0.69232
0.769294
0.832643
0.897012
0.967287
1.04608
1.13347
1.22649
1.31904
1.40129
1.45886
1.48079
1.50022
1.59092
0.139058
0.138961
0.138863
0.138771
0.138645
0.138507
0.138371
0.138253
0.138164
0.138098
0.138053
0.138013
0.137971
0.137921
0.137864
0.137798
0.137721
0.137632
0.137527
0.137406
0.137263
0.137097
0.136901
0.136666
0.136384
0.136055
0.135676
0.135245
0.134757
0.13421
0.133603
0.132933
0.132205
0.131424
0.130602
0.129775
0.128915
0.128394
0.126902
0.139467
0.139544
0.139552
0.139512
0.139434
0.139324
0.139193
0.139043
0.138867
0.138676
0.138465
0.138221
0.137927
0.13756
0.137097
0.136482
0.135612
0.134503
0.132969
0.129923
0.123964
0.122442
0.159333
0.281797
0.479626
0.666055
0.786314
0.866363
0.940313
1.01914
1.10723
1.20543
1.31103
1.41822
1.51806
1.59671
1.63073
1.63515
1.70522
0.139347
0.13924
0.139134
0.139042
0.138915
0.138776
0.138643
0.138533
0.138459
0.138412
0.138384
0.138362
0.138337
0.138309
0.138276
0.138237
0.138191
0.138135
0.13807
0.137991
0.137896
0.137781
0.137642
0.137472
0.137264
0.137018
0.136732
0.136405
0.136034
0.135616
0.135149
0.134634
0.13407
0.133466
0.132827
0.132188
0.131521
0.131132
0.129972
0.139705
0.139776
0.139772
0.139723
0.139647
0.139548
0.139436
0.13931
0.139164
0.139008
0.138842
0.138654
0.138427
0.138148
0.137807
0.13739
0.136831
0.1361
0.135197
0.133493
0.129585
0.123671
0.132703
0.202016
0.369266
0.59096
0.772382
0.88742
0.975332
1.06376
1.16119
1.26977
1.38699
1.50684
1.62085
1.71752
1.77361
1.76949
1.8162
0.139579
0.139464
0.13935
0.139258
0.139131
0.138993
0.138862
0.138759
0.138698
0.138666
0.138651
0.138641
0.138631
0.138618
0.138604
0.138585
0.138562
0.138533
0.138496
0.13845
0.138392
0.138318
0.138224
0.138105
0.137955
0.137775
0.137565
0.137323
0.137047
0.136734
0.136383
0.135994
0.135568
0.135111
0.134628
0.134152
0.133647
0.133382
0.132517
0.139891
0.139949
0.13993
0.139875
0.139803
0.139715
0.139619
0.139513
0.139392
0.139265
0.139133
0.138986
0.13881
0.138597
0.138353
0.138087
0.137768
0.137343
0.136792
0.13589
0.133708
0.128766
0.12595
0.153543
0.264093
0.47535
0.710518
0.883508
0.998703
1.09955
1.20685
1.32555
1.45356
1.58423
1.70879
1.818
1.89368
1.90151
1.92269
0.139764
0.139644
0.139523
0.139431
0.139306
0.139167
0.139039
0.138943
0.138895
0.138874
0.138868
0.138868
0.138868
0.138867
0.138865
0.138862
0.138856
0.138847
0.138833
0.138812
0.138783
0.138741
0.138683
0.138604
0.138501
0.138375
0.138227
0.138055
0.137856
0.13763
0.137375
0.137091
0.136781
0.136448
0.136098
0.135763
0.135391
0.135251
0.134632
0.140032
0.140073
0.140042
0.139984
0.139917
0.139839
0.139757
0.139668
0.139568
0.139464
0.139359
0.139242
0.139103
0.138944
0.138782
0.138635
0.138494
0.138301
0.137985
0.137474
0.136421
0.133446
0.128479
0.133315
0.188589
0.348171
0.597836
0.83591
1.00156
1.12376
1.24266
1.37159
1.50983
1.64987
1.78165
1.89703
1.9865
2.02418
2.02354
0.139909
0.139789
0.139661
0.13957
0.139446
0.139307
0.139182
0.139094
0.139055
0.139043
0.139044
0.139051
0.139058
0.139066
0.139075
0.139083
0.13909
0.139096
0.1391
0.139099
0.139091
0.139075
0.139045
0.138999
0.138934
0.138853
0.138756
0.138641
0.138508
0.138354
0.138178
0.137983
0.13777
0.137545
0.137308
0.137093
0.136825
0.136818
0.136362
0.140136
0.140159
0.140118
0.14006
0.139999
0.139931
0.139861
0.139786
0.139704
0.139618
0.139533
0.139438
0.139328
0.139214
0.139124
0.139074
0.139049
0.138998
0.138859
0.138577
0.138059
0.136646
0.133016
0.129917
0.148507
0.242404
0.455277
0.732563
0.966378
1.12999
1.26616
1.40633
1.55469
1.70321
1.83954
1.95473
2.04944
2.11188
2.11696
0.14002
0.139903
0.13977
0.139681
0.139559
0.139421
0.139298
0.139218
0.139187
0.139181
0.139187
0.139199
0.139212
0.139227
0.139243
0.139259
0.139276
0.139294
0.13931
0.139324
0.139335
0.139338
0.139331
0.139311
0.139279
0.139235
0.139181
0.139115
0.139034
0.13894
0.138832
0.138712
0.138582
0.138446
0.138303
0.138187
0.137997
0.138098
0.137712
0.140207
0.140214
0.140168
0.140111
0.140056
0.139997
0.139937
0.139874
0.139806
0.139735
0.139666
0.139589
0.139502
0.139429
0.1394
0.139422
0.139463
0.139491
0.139472
0.139353
0.139093
0.138484
0.136621
0.1329
0.13454
0.175608
0.31925
0.582976
0.875439
1.10332
1.27236
1.42739
1.58657
1.74347
1.8827
1.99197
2.08153
2.16152
2.19961
0.140103
0.139991
0.139857
0.139768
0.139649
0.139512
0.139391
0.13932
0.139295
0.139294
0.139304
0.139319
0.139336
0.139355
0.139376
0.139399
0.139423
0.139449
0.139476
0.139502
0.139526
0.139546
0.139557
0.13956
0.139554
0.139542
0.139523
0.139497
0.139461
0.139416
0.139363
0.139304
0.139239
0.139173
0.139101
0.139052
0.138923
0.139071
0.138697
0.14025
0.140246
0.140197
0.140143
0.140094
0.140042
0.139991
0.139939
0.139883
0.139825
0.139768
0.139705
0.139638
0.1396
0.139624
0.139688
0.139765
0.139837
0.139889
0.139884
0.139782
0.139524
0.138747
0.136496
0.133577
0.144779
0.21967
0.420526
0.726472
1.02403
1.24925
1.43038
1.603
1.76923
1.91127
2.01048
2.08327
2.17079
2.26358
0.140159
0.140056
0.139925
0.139838
0.139722
0.139586
0.139468
0.139405
0.139385
0.139386
0.139398
0.139416
0.139436
0.139458
0.139482
0.139509
0.139539
0.139571
0.139605
0.13964
0.139676
0.139708
0.139735
0.139756
0.139773
0.139788
0.139799
0.139804
0.139802
0.139795
0.139783
0.139767
0.139746
0.139724
0.139695
0.139682
0.139599
0.139747
0.139374
0.140271
0.140261
0.140212
0.140161
0.140117
0.140072
0.140028
0.139984
0.139938
0.139892
0.139846
0.139794
0.139744
0.139735
0.139793
0.139881
0.139979
0.140077
0.140167
0.140232
0.140239
0.140152
0.13987
0.138893
0.136391
0.136101
0.164371
0.284704
0.544281
0.880336
1.17757
1.40549
1.59964
1.77794
1.92473
2.01275
2.05711
2.13595
2.27771
0.140192
0.140101
0.139977
0.139892
0.13978
0.139645
0.13953
0.139475
0.139458
0.139461
0.139475
0.139493
0.139515
0.139539
0.139566
0.139596
0.139629
0.139665
0.139705
0.139747
0.139791
0.139834
0.139873
0.13991
0.139946
0.139983
0.140016
0.140043
0.140065
0.140081
0.140092
0.1401
0.140103
0.140103
0.140098
0.140103
0.140055
0.140189
0.139829
0.140276
0.140263
0.140215
0.140168
0.140129
0.140088
0.14005
0.140014
0.139977
0.13994
0.139904
0.139861
0.139825
0.139839
0.139914
0.140015
0.140125
0.140237
0.140348
0.140452
0.140531
0.140549
0.140475
0.140153
0.138935
0.136573
0.142419
0.197361
0.372441
0.68552
1.03948
1.33521
1.56788
1.76481
1.92085
2.00116
2.00799
2.05536
2.23395
0.140208
0.140128
0.140015
0.139934
0.139825
0.139693
0.13958
0.139532
0.139518
0.139522
0.139536
0.139556
0.139578
0.139603
0.139631
0.139663
0.139698
0.139737
0.139781
0.139829
0.139879
0.13993
0.13998
0.140031
0.140081
0.140132
0.140177
0.140217
0.140249
0.140277
0.1403
0.140319
0.140335
0.140348
0.140357
0.140374
0.14035
0.140469
0.140136
0.14027
0.140256
0.140209
0.140165
0.14013
0.140095
0.140062
0.140032
0.140002
0.139974
0.139944
0.139909
0.139886
0.13992
0.140003
0.140107
0.140221
0.14034
0.140462
0.140585
0.140704
0.140793
0.140826
0.140768
0.140376
0.138876
0.137749
0.155153
0.247105
0.481014
0.83688
1.19893
1.492
1.72137
1.89401
1.97578
1.94312
1.93252
2.1302
0.140212
0.140142
0.140042
0.139966
0.139861
0.139732
0.139622
0.139578
0.139566
0.139571
0.139585
0.139605
0.139627
0.139653
0.139682
0.139714
0.139751
0.139792
0.139838
0.139889
0.139945
0.140002
0.140061
0.140121
0.140181
0.140238
0.140288
0.140331
0.140369
0.140402
0.140432
0.140458
0.140482
0.140504
0.140522
0.140546
0.14054
0.140644
0.140352
0.140256
0.140243
0.140197
0.140156
0.140125
0.140093
0.140065
0.14004
0.140017
0.139996
0.139972
0.139944
0.139933
0.139981
0.140068
0.140171
0.140284
0.140404
0.14053
0.140661
0.140798
0.140929
0.14103
0.141083
0.141039
0.140506
0.13886
0.141134
0.177149
0.314585
0.604412
0.989419
1.35078
1.63304
1.83448
1.93068
1.86914
1.77873
1.96387
0.140206
0.140146
0.140059
0.13999
0.139889
0.139763
0.139656
0.139616
0.139606
0.13961
0.139624
0.139643
0.139665
0.139691
0.13972
0.139753
0.13979
0.139831
0.139879
0.139932
0.139992
0.140055
0.14012
0.140185
0.140247
0.140305
0.140357
0.140402
0.140442
0.140479
0.140512
0.140543
0.140573
0.1406
0.140626
0.140655
0.140663
0.140753
0.140511
0.140237
0.140225
0.14018
0.140142
0.140113
0.140085
0.140061
0.140041
0.140023
0.140008
0.13999
0.139968
0.139967
0.140024
0.140112
0.140213
0.140323
0.140441
0.140566
0.140698
0.140841
0.140993
0.141137
0.141252
0.141329
0.141275
0.140527
0.139275
0.148351
0.210331
0.396901
0.732687
1.1311
1.47896
1.72792
1.85319
1.78457
1.61311
1.73702
0.140193
0.140142
0.140067
0.140006
0.139911
0.139788
0.139685
0.139647
0.139637
0.139641
0.139653
0.139672
0.139694
0.139719
0.139748
0.139781
0.139818
0.13986
0.139908
0.139963
0.140025
0.140091
0.140159
0.140225
0.140288
0.140346
0.140397
0.140443
0.140485
0.140523
0.14056
0.140595
0.140628
0.14066
0.140691
0.140724
0.140742
0.140821
0.140634
0.140214
0.140203
0.140159
0.140123
0.140098
0.140072
0.140052
0.140036
0.140023
0.140012
0.14
0.139985
0.13999
0.140051
0.140138
0.140237
0.140343
0.140457
0.14058
0.140711
0.140853
0.14101
0.141175
0.141331
0.141463
0.141569
0.141455
0.140502
0.14079
0.160917
0.254161
0.486366
0.851384
1.24319
1.55372
1.72666
1.67927
1.44971
1.46602
0.140176
0.140132
0.140069
0.140016
0.139927
0.139808
0.139709
0.139672
0.139661
0.139664
0.139676
0.139693
0.139715
0.139739
0.139768
0.139801
0.139837
0.139879
0.139927
0.139982
0.140046
0.140114
0.140183
0.140249
0.140311
0.140367
0.140418
0.140464
0.140507
0.140548
0.140586
0.140624
0.14066
0.140696
0.14073
0.140767
0.140792
0.140863
0.140729
0.140189
0.140178
0.140135
0.140102
0.140078
0.140056
0.140039
0.140027
0.140017
0.140011
0.140004
0.139994
0.140004
0.140066
0.140151
0.140246
0.140348
0.140458
0.140577
0.140705
0.140844
0.140999
0.14117
0.141348
0.141516
0.141672
0.141798
0.141565
0.140613
0.14422
0.179263
0.30435
0.569885
0.93985
1.29583
1.53007
1.53578
1.2907
1.17862
0.140156
0.140117
0.140064
0.14002
0.139939
0.139824
0.139729
0.139692
0.13968
0.139682
0.139692
0.139709
0.139729
0.139754
0.139782
0.139814
0.13985
0.139891
0.139939
0.139994
0.140058
0.140127
0.140196
0.140261
0.140321
0.140376
0.140426
0.140473
0.140517
0.140559
0.140599
0.140639
0.140678
0.140716
0.140753
0.140792
0.140823
0.140889
0.140799
0.140161
0.140151
0.14011
0.140078
0.140057
0.140037
0.140023
0.140014
0.140007
0.140005
0.140003
0.139996
0.14001
0.140072
0.140154
0.140244
0.140342
0.140448
0.140562
0.140685
0.140821
0.140971
0.141139
0.141324
0.141514
0.141697
0.141883
0.142007
0.14162
0.14118
0.150082
0.201686
0.35197
0.628709
0.96928
1.24964
1.33206
1.1241
0.903659
0.140132
0.140099
0.140055
0.14002
0.139947
0.139837
0.139745
0.139707
0.139694
0.139694
0.139703
0.139719
0.139739
0.139763
0.139791
0.139823
0.139858
0.139899
0.139945
0.14
0.140064
0.140132
0.1402
0.140264
0.140323
0.140378
0.140428
0.140475
0.14052
0.140562
0.140604
0.140645
0.140686
0.140726
0.140766
0.140807
0.140842
0.140905
0.140849
0.140133
0.140122
0.140082
0.140053
0.140033
0.140016
0.140004
0.139998
0.139994
0.139995
0.139997
0.139994
0.140012
0.140073
0.140151
0.140236
0.140329
0.140429
0.140538
0.140657
0.140788
0.140932
0.141094
0.141276
0.141474
0.141675
0.14188
0.1421
0.142182
0.141703
0.142523
0.158009
0.223615
0.383943
0.639119
0.908212
1.05538
0.931862
0.664505
0.140107
0.140078
0.140042
0.140016
0.139952
0.139849
0.139758
0.139719
0.139704
0.139702
0.13971
0.139724
0.139744
0.139769
0.139797
0.139828
0.139863
0.139903
0.139949
0.140002
0.140065
0.140133
0.1402
0.140263
0.140321
0.140375
0.140425
0.140472
0.140518
0.140561
0.140604
0.140647
0.140689
0.140731
0.140772
0.140815
0.140853
0.140914
0.140883
0.140103
0.140091
0.140054
0.140026
0.140008
0.139993
0.139984
0.13998
0.139979
0.139982
0.139988
0.139989
0.14001
0.140069
0.140143
0.140224
0.140311
0.140405
0.140509
0.140622
0.140748
0.140886
0.141041
0.141216
0.14141
0.14162
0.141838
0.142072
0.142316
0.14233
0.14195
0.144717
0.166265
0.23814
0.385058
0.581246
0.735062
0.711439
0.474613
0.14008
0.140056
0.140026
0.14001
0.139955
0.139858
0.139769
0.139728
0.139711
0.139707
0.139713
0.139727
0.139747
0.139771
0.139799
0.139831
0.139866
0.139905
0.13995
0.140002
0.140065
0.140132
0.140198
0.14026
0.140317
0.140371
0.140421
0.140468
0.140514
0.140558
0.140602
0.140646
0.140689
0.140732
0.140775
0.14082
0.14086
0.140919
0.140906
0.140072
0.14006
0.140024
0.139998
0.139982
0.139968
0.139961
0.139959
0.13996
0.139966
0.139974
0.13998
0.140003
0.14006
0.14013
0.140206
0.140288
0.140378
0.140475
0.140583
0.140703
0.140836
0.140984
0.141149
0.141335
0.141542
0.141768
0.142007
0.142274
0.142526
0.142487
0.142476
0.147317
0.172099
0.23781
0.346326
0.456318
0.495966
0.340088
0.140052
0.140031
0.140008
0.140001
0.139956
0.139867
0.139778
0.139735
0.139715
0.139708
0.139713
0.139727
0.139747
0.139772
0.139801
0.139833
0.139868
0.139907
0.139951
0.140002
0.140064
0.14013
0.140195
0.140257
0.140313
0.140366
0.140416
0.140464
0.14051
0.140555
0.140599
0.140644
0.140688
0.140732
0.140776
0.140822
0.140864
0.140923
0.140923
0.140041
0.140028
0.139995
0.13997
0.139955
0.139943
0.139937
0.139937
0.13994
0.139947
0.139958
0.139967
0.139991
0.140046
0.140112
0.140184
0.140262
0.140346
0.140439
0.140541
0.140655
0.140782
0.140923
0.14108
0.141255
0.141453
0.141677
0.141921
0.142186
0.142487
0.142736
0.142717
0.14324
0.149545
0.172711
0.219353
0.278001
0.327665
0.259349
0.140023
0.140005
0.139988
0.139991
0.139956
0.139875
0.139786
0.139739
0.139716
0.139707
0.139711
0.139726
0.139746
0.139772
0.139802
0.139834
0.13987
0.139909
0.139953
0.140003
0.140064
0.140129
0.140194
0.140254
0.14031
0.140363
0.140413
0.14046
0.140507
0.140552
0.140597
0.140642
0.140687
0.140732
0.140778
0.140824
0.140868
0.140926
0.140936
0.140009
0.139996
0.139965
0.139941
0.139927
0.139917
0.139913
0.139913
0.139917
0.139926
0.139939
0.139952
0.139975
0.140027
0.140089
0.140157
0.140231
0.140311
0.140399
0.140496
0.140605
0.140726
0.140861
0.14101
0.141174
0.141361
0.141575
0.141817
0.142081
0.142376
0.142708
0.142967
0.143034
0.144135
0.150715
0.16643
0.190361
0.228345
0.220556
0.139993
0.139977
0.139967
0.139979
0.139956
0.139883
0.139792
0.139742
0.139715
0.139705
0.139709
0.139723
0.139745
0.139772
0.139803
0.139837
0.139873
0.139913
0.139957
0.140007
0.140066
0.140131
0.140195
0.140254
0.14031
0.140362
0.140412
0.140459
0.140506
0.140552
0.140597
0.140643
0.140688
0.140734
0.14078
0.140827
0.140872
0.14093
0.140947
0.139977
0.139963
0.139934
0.139913
0.1399
0.139891
0.139887
0.139888
0.139893
0.139903
0.139918
0.139933
0.139955
0.140004
0.140062
0.140127
0.140197
0.140273
0.140357
0.140449
0.140553
0.140668
0.140796
0.140938
0.141094
0.141268
0.14147
0.141703
0.141964
0.142251
0.142581
0.142952
0.143215
0.143465
0.145315
0.1494
0.155756
0.18018
0.198879
0.139962
0.139948
0.139944
0.139966
0.139955
0.139891
0.139797
0.139743
0.139714
0.139702
0.139706
0.139722
0.139745
0.139774
0.139806
0.139842
0.139879
0.13992
0.139963
0.140013
0.140072
0.140136
0.140199
0.140258
0.140313
0.140364
0.140414
0.140461
0.140508
0.140554
0.1406
0.140645
0.140691
0.140737
0.140784
0.140832
0.140878
0.140935
0.140958
0.139943
0.13993
0.139904
0.139884
0.139873
0.139864
0.139861
0.139863
0.139868
0.139878
0.139894
0.139911
0.139933
0.139979
0.140034
0.140095
0.140161
0.140233
0.140313
0.140401
0.140499
0.140609
0.140731
0.140866
0.141013
0.141178
0.141366
0.141585
0.141837
0.142119
0.142434
0.142814
0.143194
0.143473
0.144489
0.145532
0.144766
0.159291
0.187425
0.139928
0.139917
0.139919
0.139952
0.139953
0.139899
0.139802
0.139744
0.139712
0.139699
0.139704
0.139721
0.139747
0.139778
0.139813
0.13985
0.139889
0.13993
0.139974
0.140024
0.140083
0.140146
0.140207
0.140265
0.140319
0.14037
0.140419
0.140467
0.140513
0.140559
0.140605
0.140651
0.140697
0.140743
0.14079
0.140838
0.140884
0.140941
0.140968
0.139908
0.139897
0.139874
0.139856
0.139846
0.139838
0.139836
0.139837
0.139842
0.139852
0.139868
0.139886
0.139909
0.139952
0.140004
0.140061
0.140123
0.140192
0.140267
0.140351
0.140445
0.140549
0.140666
0.140794
0.140933
0.141088
0.141264
0.141469
0.141707
0.141979
0.142282
0.142646
0.143054
0.143366
0.144335
0.145183
0.142269
0.150616
0.180688
0.139893
0.139883
0.139894
0.139938
0.139951
0.139907
0.139806
0.139744
0.13971
0.139698
0.139704
0.139724
0.139752
0.139786
0.139823
0.139862
0.139903
0.139945
0.13999
0.14004
0.140099
0.140161
0.140221
0.140277
0.14033
0.14038
0.140429
0.140476
0.140522
0.140568
0.140614
0.14066
0.140706
0.140752
0.140799
0.140846
0.140893
0.140948
0.140978
0.139872
0.139864
0.139845
0.13983
0.13982
0.139813
0.139811
0.139812
0.139816
0.139826
0.13984
0.139858
0.139882
0.139922
0.139971
0.140025
0.140084
0.140149
0.140221
0.140301
0.14039
0.14049
0.1406
0.140721
0.140854
0.141
0.141166
0.141356
0.141577
0.141836
0.142127
0.142473
0.142883
0.143173
0.144066
0.145291
0.142192
0.14663
0.176916
0.139857
0.13985
0.13987
0.139922
0.139949
0.139915
0.139811
0.139745
0.13971
0.139698
0.139707
0.13973
0.139762
0.139799
0.139839
0.13988
0.139922
0.139966
0.140012
0.140062
0.140121
0.140181
0.140239
0.140293
0.140345
0.140394
0.140442
0.140489
0.140535
0.14058
0.140626
0.140671
0.140717
0.140763
0.140809
0.140857
0.140903
0.140957
0.140988
0.139836
0.139832
0.139818
0.139806
0.139798
0.139792
0.139789
0.139789
0.139792
0.139799
0.139812
0.139829
0.139852
0.139889
0.139935
0.139986
0.140043
0.140105
0.140174
0.14025
0.140335
0.14043
0.140534
0.140649
0.140775
0.140913
0.141069
0.141247
0.141452
0.141695
0.141971
0.142296
0.142705
0.142976
0.143701
0.14522
0.142608
0.144117
0.174155
0.139821
0.139819
0.139846
0.139906
0.139947
0.139924
0.139816
0.139748
0.139712
0.139703
0.139714
0.139741
0.139777
0.139817
0.13986
0.139904
0.139948
0.139993
0.14004
0.140091
0.140149
0.140207
0.140262
0.140314
0.140364
0.140413
0.140459
0.140505
0.140551
0.140596
0.140641
0.140686
0.140731
0.140777
0.140822
0.140869
0.140914
0.140967
0.140999
0.139804
0.139804
0.139795
0.139787
0.139781
0.139775
0.139772
0.13977
0.139771
0.139776
0.139786
0.139801
0.139821
0.139854
0.139897
0.139946
0.14
0.140059
0.140125
0.140198
0.140279
0.140369
0.140469
0.140578
0.140697
0.140828
0.140975
0.141142
0.141333
0.141557
0.141817
0.142119
0.142521
0.142799
0.143334
0.144965
0.143022
0.142589
0.169256
0.13979
0.139793
0.139826
0.13989
0.139943
0.139932
0.139822
0.139752
0.139718
0.139711
0.139727
0.139758
0.139798
0.139843
0.139889
0.139935
0.139981
0.140027
0.140075
0.140127
0.140183
0.140238
0.140289
0.140339
0.140388
0.140435
0.140481
0.140526
0.140571
0.140615
0.140659
0.140704
0.140748
0.140792
0.140837
0.140882
0.140926
0.140977
0.14101
0.139779
0.139785
0.139781
0.139776
0.139771
0.139766
0.139762
0.139759
0.139758
0.139759
0.139765
0.139776
0.139791
0.13982
0.139859
0.139905
0.139956
0.140013
0.140075
0.140145
0.140222
0.140308
0.140403
0.140507
0.140619
0.140743
0.140882
0.141039
0.141218
0.141426
0.141669
0.141946
0.142329
0.142633
0.143006
0.144593
0.143435
0.141514
0.162639
0.139769
0.139775
0.139811
0.139875
0.139938
0.139941
0.13983
0.13976
0.139727
0.139724
0.139745
0.139781
0.139826
0.139876
0.139925
0.139974
0.140022
0.140069
0.140117
0.140169
0.140222
0.140273
0.140321
0.140368
0.140415
0.140461
0.140506
0.14055
0.140594
0.140637
0.14068
0.140723
0.140766
0.14081
0.140853
0.140897
0.140939
0.140988
0.14102
0.139767