/*--------------------------------*- C++ -*----------------------------------*\
  =========                 |
  \\      /  F ield         | OpenFOAM: The Open Source CFD Toolbox
   \\    /   O peration     | Website:  https://openfoam.org
    \\  /    A nd           | Version:  9
     \\/     M anipulation  |
\*---------------------------------------------------------------------------*/
FoamFile
{
    format      ascii;
    class       volScalarField;
    location    "0.3";
    object      p;
}
// * * * * * * * * * * * * * * * * * * * * * * * * * * * * * * * * * * * * * //

dimensions      [0 2 -2 0 0 0 0];

internalField   nonuniform List<scalar> 
900
(
1.34043e-05
-0.00778029
-0.0210992
-0.0360319
-0.0493163
-0.0588752
-0.0634953
-0.0625673
-0.0559079
-0.0436388
-0.0261102
-0.00385681
0.0224246
0.0518858
0.0835352
0.116251
0.148805
0.179896
0.208211
0.232489
0.25161
0.26469
0.27118
0.270967
0.26447
0.252733
0.237517
0.221418
0.208046
0.20106
0.00779377
-0.000103201
-0.0106972
-0.0218131
-0.0315291
-0.0383316
-0.0412398
-0.0397107
-0.0335304
-0.0227394
-0.00758247
0.0115246
0.0340146
0.0591811
0.0861889
0.114089
0.141842
0.168354
0.192526
0.213315
0.22981
0.241309
0.247405
0.248061
0.243674
0.235128
0.223829
0.211703
0.201053
0.194103
0.0213743
0.0102939
-0.000625016
-0.0105488
-0.0187801
-0.024293
-0.0263681
-0.0246086
-0.0188516
-0.00912558
0.00437665
0.0213166
0.0412219
0.0634935
0.0874132
0.112156
0.136813
0.160419
0.182003
0.200642
0.215528
0.226042
0.231821
0.232824
0.229376
0.222188
0.212381
0.201404
0.190461
0.180653
0.0372835
0.0214555
0.00843271
-0.00197047
-0.010116
-0.0153715
-0.0172661
-0.0155783
-0.010238
-0.00130157
0.0110548
0.0265404
0.044751
0.0651684
0.0871609
0.109991
0.13283
0.154791
0.174963
0.19247
0.206533
0.216536
0.222096
0.223113
0.219807
0.212723
0.202772
0.19108
0.177962
0.163679
0.0524996
0.0315087
0.0157088
0.00409517
-0.00462195
-0.0101358
-0.0121966
-0.0107548
-0.00584089
0.00244808
0.0139391
0.0283757
0.045409
0.0645869
0.0853473
0.107019
0.12883
0.149934
0.169446
0.186493
0.200278
0.210144
0.215643
0.216588
0.213076
0.205501
0.194606
0.1813
0.165159
0.145822
0.0648885
0.0387425
0.0198872
0.00666011
-0.00302559
-0.00912515
-0.0115755
-0.0104816
-0.00596895
0.00182325
0.0127197
0.0264908
0.0428329
0.0613489
0.0815324
0.10276
0.124295
0.145306
0.1649
0.182171
0.196263
0.206441
0.212154
0.213099
0.209241
0.200829
0.18849
0.172999
0.153344
0.128721
0.0728659
0.0417252
0.0197345
0.00468862
-0.00618933
-0.0130645
-0.0160276
-0.0153167
-0.0111408
-0.00367623
0.00689973
0.0203812
0.0365046
0.0549198
0.0751654
0.0966526
0.118662
0.140354
0.160802
0.179034
0.1941
0.205145
0.211483
0.212661
0.208498
0.199107
0.185031
0.166983
0.14348
0.113411
0.0751566
0.039225
0.0141354
-0.00279033
-0.014945
-0.0226674
-0.026176
-0.0258218
-0.0218834
-0.0145658
-0.00404369
0.00950265
0.0258491
0.0446898
0.0656032
0.0880273
0.111248
0.134404
0.156509
0.1765
0.193298
0.205892
0.213416
0.21524
0.211009
0.200692
0.184773
0.163949
0.136334
0.100592
0.0706486
0.0301211
0.00202519
-0.016752
-0.0301729
-0.0387278
-0.0427445
-0.0426709
-0.0388422
-0.0314822
-0.0207552
-0.00681042
0.0101717
0.0299321
0.0520905
0.0761105
0.101279
0.126701
0.151318
0.173951
0.19336
0.208334
0.21779
0.220869
0.217006
0.206009
0.188299
0.164587
0.132606
0.0908332
0.0583035
0.0133485
-0.017639
-0.0381864
-0.0527998
-0.0621102
-0.0665445
-0.0666363
-0.0627671
-0.0551698
-0.0439891
-0.0293343
-0.0113336
0.00980945
0.0337632
0.0600233
0.0878803
0.116405
0.144457
0.17072
0.193762
0.212132
0.224472
0.229641
0.226809
0.215576
0.196285
0.169664
0.133044
0.084723
0.0371043
-0.0121403
-0.0458974
-0.0680996
-0.0837855
-0.093725
-0.0984417
-0.0985501
-0.0944712
-0.0864386
-0.074568
-0.0589169
-0.0395487
-0.0165972
0.00966988
0.0387945
0.0700836
0.102581
0.135061
0.166058
0.193921
0.216912
0.233337
0.241697
0.240821
0.230034
0.20955
0.180098
0.138546
0.0829958
0.00602637
-0.0474025
-0.0838074
-0.107521
-0.124117
-0.134511
-0.139329
-0.139268
-0.134788
-0.126118
-0.113333
-0.0964273
-0.0753818
-0.0502407
-0.0211852
0.011397
0.0468516
0.0842132
0.122183
0.15914
0.193189
0.222261
0.244254
0.257223
0.259549
0.250175
0.229116
0.197044
0.150264
0.0866482
-0.0359794
-0.0935281
-0.132462
-0.157514
-0.174805
-0.185417
-0.190093
-0.189627
-0.18452
-0.174993
-0.161076
-0.142683
-0.119692
-0.092033
-0.0597694
-0.0231851
0.017139
0.0602604
0.10483
0.149081
0.190863
0.227729
0.257097
0.276461
0.283621
0.276997
0.256275
0.221983
0.169713
0.0970555
-0.0900004
-0.151664
-0.193013
-0.219184
-0.236879
-0.247379
-0.251578
-0.250387
-0.244362
-0.233722
-0.218444
-0.198347
-0.173184
-0.142736
-0.106913
-0.0658512
-0.0200095
0.0297394
0.082038
0.135002
0.186226
0.232858
0.271757
0.299731
0.313829
0.311752
0.292675
0.256838
0.198902
0.116104
-0.157183
-0.223051
-0.266705
-0.293698
-0.311381
-0.321292
-0.324528
-0.322156
-0.314815
-0.302732
-0.285825
-0.263803
-0.236268
-0.202817
-0.163162
-0.117235
-0.0653149
-0.00813833
0.0529915
0.116125
0.178633
0.237245
0.288193
0.32747
0.351168
0.356014
0.340419
0.304098
0.240482
0.146348
-0.238772
-0.309085
-0.354931
-0.382318
-0.399368
-0.407976
-0.409523
-0.405301
-0.396071
-0.382081
-0.363193
-0.338989
-0.308889
-0.27227
-0.228589
-0.177516
-0.119073
-0.0537816
0.0171981
0.0919339
0.167635
0.240638
0.306509
0.360294
0.396903
0.411769
0.402182
0.366988
0.297949
0.191215
-0.336196
-0.411426
-0.459325
-0.486446
-0.501908
-0.508126
-0.506897
-0.499832
-0.487869
-0.471306
-0.449944
-0.423219
-0.390338
-0.350408
-0.302581
-0.246192
-0.180927
-0.10699
-0.0252901
0.0623762
0.153165
0.243093
0.327068
0.399095
0.452658
0.48152
0.481375
0.449686
0.3759
0.25527
-0.451218
-0.532178
-0.581907
-0.607705
-0.620088
-0.622259
-0.616629
-0.60526
-0.589344
-0.56925
-0.544711
-0.514993
-0.479047
-0.435663
-0.383623
-0.321858
-0.249626
-0.166706
-0.0736235
0.0281111
0.135761
0.245166
0.350658
0.445162
0.520529
0.568421
0.582331
0.557601
0.480397
0.344591
-0.586219
-0.674197
-0.725314
-0.748045
-0.75501
-0.750626
-0.738203
-0.720434
-0.69884
-0.673876
-0.645188
-0.611823
-0.572424
-0.525404
-0.469112
-0.402002
-0.322813
-0.230786
-0.125916
-0.00924512
0.116809
0.248132
0.378667
0.500334
0.603214
0.676436
0.710552
0.697756
0.619472
0.467304
-0.744706
-0.8416
-0.893148
-0.909886
-0.907765
-0.893077
-0.870422
-0.843328
-0.813712
-0.782096
-0.747974
-0.710102
-0.666737
-0.615843
-0.555268
-0.482912
-0.396914
-0.295867
-0.179085
-0.0469421
0.0987286
0.254169
0.413251
0.567128
0.70413
0.810491
0.872991
0.879293
0.803871
0.634423
-0.932249
-1.04061
-1.09048
-1.09627
-1.07934
-1.04884
-1.01114
-0.970798
-0.930125
-0.889616
-0.848485
-0.805066
-0.757121
-0.702071
-0.637184
-0.559742
-0.467205
-0.357421
-0.228886
-0.0810916
0.0850068
0.266406
0.457378
0.648772
0.827443
0.976573
1.07834
1.11413
1.04817
0.861215
-1.15822
-1.28092
-1.32453
-1.31097
-1.27038
-1.21615
-1.15689
-1.09827
-1.04285
-0.990849
-0.94096
-0.890892
-0.837747
-0.778287
-0.709114
-0.626824
-0.528141
-0.410092
-0.27023
-0.106971
0.0799266
0.288682
0.514603
0.748982
0.977872
1.18164
1.33728
1.41781
1.37248
1.16959
-1.43913
-1.57799
-1.60557
-1.55837
-1.48067
-1.39162
-1.30236
-1.21941
-1.1451
-1.07892
-1.01862
-0.960975
-0.902211
-0.838276
-0.765017
-0.678286
-0.57403
-0.448402
-0.297924
-0.119762
0.0878331
0.324828
0.588362
0.871257
1.16
1.43311
1.66236
1.8104
1.80505
1.59254
-1.80551
-1.95669
-1.94762
-1.84278
-1.70794
-1.56917
-1.43959
-1.32563
-1.2284
-1.14579
-1.074
-1.00844
-0.944161
-0.876146
-0.799394
-0.708975
-0.600043
-0.467858
-0.30786
-0.115829
0.111785
0.37724
0.680451
1.01723
1.37649
1.7371
2.06695
2.31709
2.38641
2.18306
-2.31606
-2.4569
-2.368
-2.16588
-1.94526
-1.73793
-1.55665
-1.40547
-1.28244
-1.18252
-1.09948
-1.02682
-0.958137
-0.887278
-0.808343
-0.715621
-0.603498
-0.46637
-0.29859
-0.0944713
0.151575
0.444636
0.788442
1.18364
1.62452
2.09437
2.5614
2.96678
3.17465
3.03098
-3.08371
-3.13988
-2.88401
-2.52176
-2.17686
-1.87952
-1.63622
-1.4442
-1.29539
-1.17996
-1.0882
-1.01114
-0.94068
-0.869471
-0.79074
-0.698064
-0.585158
-0.445644
-0.272869
-0.059679
0.201697
0.519638
0.902744
1.35863
1.89099
2.49433
3.14622
3.78634
4.24799
4.28753
-4.3242
-4.09134
-3.50629
-2.89315
-2.37658
-1.96817
-1.65717
-1.42622
-1.2566
-1.13143
-1.03649
-0.96003
-0.892189
-0.82454
-0.749595
-0.660411
-0.550223
-0.412061
-0.238456
-0.0209428
0.250403
0.587515
1.00481
1.5192
2.14901
2.91016
3.80469
4.78986
5.70239
6.20491
-6.5311
-5.41651
-4.19609
-3.2206
-2.48992
-1.96149
-1.59061
-1.33395
-1.1567
-1.03318
-0.944481
-0.876279
-0.817399
-0.758737
-0.692471
-0.611463
-0.508776
-0.377245
-0.208908
0.00555797
0.277748
0.622776
1.06103
1.6205
2.33986
3.26992
4.46032
5.93099
7.663
9.3306
-11.0278
-7.16613
-4.64473
-3.22576
-2.3208
-1.72971
-1.35337
-1.11503
-0.96312
-0.865481
-0.801006
-0.754846
-0.715947
-0.675569
-0.626314
-0.561464
-0.474475
-0.358542
-0.206007
-0.00772127
0.248052
0.577387
1.00365
1.56276
2.31305
3.34904
4.8033
6.88896
10.2077
15.0254
-19.0539
-8.87655
-4.22263
-2.48946
-1.63041
-1.14308
-0.874876
-0.730381
-0.654045
-0.616404
-0.600233
-0.59398
-0.589105
-0.578751
-0.556969
-0.518223
-0.457037
-0.367639
-0.243618
-0.0773605
0.140794
0.424059
0.7921
1.27724
1.9391
2.89532
4.37707
6.96989
12.6571
23.9018
)
;

boundaryField
{
    movingWall
    {
        type            zeroGradient;
    }
    fixedWalls
    {
        type            zeroGradient;
    }
    frontAndBack
    {
        type            empty;
    }
}


// ************************************************************************* //
