/*--------------------------------*- C++ -*----------------------------------*\
  =========                 |
  \\      /  F ield         | OpenFOAM: The Open Source CFD Toolbox
   \\    /   O peration     | Website:  https://openfoam.org
    \\  /    A nd           | Version:  9
     \\/     M anipulation  |
\*---------------------------------------------------------------------------*/
FoamFile
{
    format      ascii;
    class       volScalarField;
    location    "0.3";
    object      p;
}
// * * * * * * * * * * * * * * * * * * * * * * * * * * * * * * * * * * * * * //

dimensions      [0 2 -2 0 0 0 0];

internalField   nonuniform List<scalar> 
900
(
2.89852e-06
-0.0025286
-0.00696347
-0.0120197
-0.0165758
-0.0198904
-0.0215105
-0.0211977
-0.0188761
-0.0145938
-0.00849417
-0.000795444
0.00822532
0.0182444
0.0289017
0.0398111
0.0505705
0.0607741
0.0700259
0.0779564
0.0842411
0.0886228
0.0909352
0.0911303
0.0893095
0.0857585
0.0809905
0.075805
0.0713623
0.0689168
0.00252787
-2.35127e-05
-0.00354993
-0.00732027
-0.0106579
-0.0130193
-0.0140399
-0.0135113
-0.0113508
-0.00757873
-0.00229863
0.00431828
0.0120464
0.0206164
0.0297257
0.0390473
0.0482407
0.0569631
0.0648824
0.0716919
0.0771276
0.0809862
0.0831455
0.0835852
0.0824072
0.0798572
0.0763462
0.0724641
0.06893
0.0664807
0.00703135
0.0034515
-0.000179627
-0.00355775
-0.00640171
-0.00832935
-0.00906492
-0.00845067
-0.00642294
-0.00299867
0.00173575
0.00763565
0.014508
0.0221204
0.0302093
0.0384891
0.046661
0.0544239
0.0614864
0.06758
0.0724743
0.0759931
0.0780309
0.0785687
0.0776873
0.0755785
0.0725623
0.0690675
0.0654318
0.0619895
0.0124045
0.00727304
0.00293577
-0.000623758
-0.00345999
-0.00531447
-0.00599065
-0.00538834
-0.00347594
-0.000282515
0.0041075
0.00956124
0.0159043
0.0229274
0.0303927
0.0380415
0.0456018
0.0527981
0.0593619
0.0650444
0.0696294
0.072948
0.074892
0.0754271
0.0746007
0.0725484
0.0695147
0.0658126
0.0614623
0.0564976
0.0176823
0.0108488
0.00556706
0.00156912
-0.00148845
-0.00344525
-0.00417301
-0.00362741
-0.0018125
0.0012244
0.00539343
0.0105658
0.016578
0.023236
0.0303199
0.0375894
0.0447905
0.0516636
0.0579531
0.0634187
0.0678471
0.0710651
0.0729519
0.0734495
0.0725673
0.0703869
0.0670909
0.0629058
0.0575836
0.0509277
0.0222072
0.0136547
0.00731839
0.00273508
-0.000682001
-0.00284733
-0.00368872
-0.00321256
-0.00145836
0.00150542
0.00557879
0.0106314
0.0165044
0.0230124
0.0299464
0.0370774
0.0441616
0.050947
0.0571819
0.0626251
0.0670567
0.0702901
0.0721838
0.0726503
0.0716593
0.0692428
0.0655348
0.0607011
0.0542733
0.0458833
0.0255114
0.015265
0.00782613
0.0025769
-0.00127649
-0.00370473
-0.00468079
-0.0042561
-0.00250395
0.000484751
0.00459685
0.00969617
0.0156235
0.0221968
0.029212
0.0364451
0.0436556
0.050592
0.0569988
0.0626256
0.0672375
0.0706265
0.0726231
0.0731056
0.0720027
0.0693009
0.0650965
0.0595154
0.0519059
0.0417711
0.0272316
0.0153195
0.00676462
0.000817982
-0.00349785
-0.00619709
-0.00728989
-0.00686808
-0.00503711
-0.00191074
0.00238275
0.00769842
0.0138731
0.020724
0.0280475
0.0356197
0.0431981
0.0505258
0.0573371
0.0633655
0.0683539
0.0720655
0.0742962
0.0748848
0.0737169
0.0707352
0.0660058
0.0596283
0.0507905
0.0388915
0.0270535
0.0134888
0.00381853
-0.00282556
-0.00759286
-0.010534
-0.0116916
-0.0111953
-0.00918178
-0.00578819
-0.0011593
0.00454918
0.0111677
0.0185098
0.0263693
0.034519
0.0427106
0.0506774
0.0581382
0.0648048
0.0703912
0.0746247
0.0772597
0.0780893
0.0769512
0.0737432
0.0685041
0.0613146
0.0512107
0.0374989
0.0246755
0.00944893
-0.00133263
-0.00865375
-0.0138334
-0.0169561
-0.0180957
-0.0174196
-0.0150962
-0.0112869
-0.00615433
0.000133578
0.00739945
0.0154516
0.0240797
0.0330513
0.0421101
0.0509764
0.05935
0.0669159
0.0733531
0.0783461
0.0815995
0.0828527
0.0818883
0.0785535
0.072858
0.0648653
0.0534563
0.0378462
0.0197827
0.00286205
-0.0090277
-0.0169896
-0.0225175
-0.025732
-0.0267405
-0.0257501
-0.0229638
-0.0185691
-0.012748
-0.0056815
0.00244454
0.011433
0.0210693
0.0311154
0.0413065
0.0513487
0.0609204
0.0696759
0.0772537
0.0832878
0.0874241
0.0893374
0.0887443
0.0854313
0.0793716
0.0706072
0.05785
0.0402182
0.0120284
-0.00664124
-0.0196375
-0.028188
-0.0339744
-0.0371593
-0.0378893
-0.036418
-0.0329866
-0.0278125
-0.0210985
-0.0130396
-0.00382976
0.00632973
0.0172213
0.0286035
0.0402042
0.0517161
0.0627954
0.0730635
0.0821134
0.089521
0.0948627
0.0977354
0.0977741
0.0946885
0.088402
0.0789242
0.0647736
0.0449603
0.00101902
-0.0194779
-0.0335791
-0.0426467
-0.04857
-0.0515651
-0.0518288
-0.0496702
-0.0453768
-0.0392
-0.0313662
-0.0220844
-0.0115553
1.8259e-05
0.0124195
0.025407
0.0387056
0.0519976
0.064919
0.0770575
0.0879571
0.097128
0.104065
0.10827
0.109277
0.106695
0.100376
0.0902797
0.0746942
0.0525047
-0.0137015
-0.0361304
-0.0513321
-0.0608174
-0.0667131
-0.0693074
-0.0688637
-0.0657615
-0.060345
-0.0529065
-0.0436987
-0.0329445
-0.0208485
-0.00761059
0.00655901
0.021426
0.0367183
0.0521146
0.0672352
0.0816367
0.0948123
0.1062
0.1152
0.1212
0.123605
0.121892
0.115813
0.105243
0.088193
0.0633992
-0.0326699
-0.0571685
-0.0734588
-0.0832204
-0.0888626
-0.0907738
-0.0893097
-0.084941
-0.078084
-0.06908
-0.0582113
-0.0457135
-0.0317908
-0.0166335
-0.000436354
0.0165831
0.0341665
0.0519989
0.0696936
0.0867823
0.10271
0.116837
0.128456
0.13682
0.141169
0.140809
0.135343
0.12452
0.106001
0.0783412
-0.0565303
-0.0832812
-0.100632
-0.110463
-0.115534
-0.116379
-0.113481
-0.107434
-0.0987452
-0.0878153
-0.0749592
-0.0604229
-0.0444032
-0.0270708
-0.00859306
0.0108426
0.0310064
0.051604
0.0722563
0.0924815
0.111683
0.129144
0.144041
0.155463
0.16245
0.164079
0.159742
0.148995
0.129046
0.0982218
-0.0860741
-0.115323
-0.133673
-0.143264
-0.147309
-0.146556
-0.141673
-0.133416
-0.122407
-0.109121
-0.0939045
-0.0770092
-0.0586142
-0.0388567
-0.0178611
0.00423364
0.0272452
0.0509206
0.0749083
0.0987319
0.121768
0.14323
0.162171
0.177497
0.187999
0.192456
0.189963
0.17978
0.158515
0.124187
-0.122307
-0.154385
-0.173613
-0.182484
-0.184838
-0.181743
-0.174131
-0.162971
-0.149034
-0.132875
-0.114873
-0.0952738
-0.0742232
-0.0518067
-0.0280843
-0.00312436
0.0229631
0.0499927
0.0776682
0.105547
0.133003
0.159199
0.183069
0.203319
0.218443
0.226838
0.227184
0.218293
0.195946
0.157726
-0.166557
-0.201913
-0.221771
-0.229166
-0.228844
-0.222356
-0.211004
-0.196042
-0.178418
-0.158772
-0.137506
-0.114839
-0.0908626
-0.0655836
-0.0389719
-0.0109972
0.0183324
0.0489316
0.0805956
0.112953
0.145417
0.177133
0.206938
0.233332
0.254474
0.268278
0.272854
0.266349
0.243363
0.200811
-0.220668
-0.259885
-0.27988
-0.284585
-0.28011
-0.268735
-0.252279
-0.232354
-0.210108
-0.18626
-0.161206
-0.135107
-0.107962
-0.07967
-0.0500763
-0.0190196
0.0136287
0.047922
0.0837907
0.120987
0.159015
0.197063
0.233919
0.267905
0.296816
0.317984
0.328759
0.326304
0.303485
0.256119
-0.287341
-0.331114
-0.350257
-0.350286
-0.339431
-0.321056
-0.297668
-0.27131
-0.243326
-0.214472
-0.185086
-0.155219
-0.124728
-0.0933562
-0.0607887
-0.0266955
0.00922628
0.0472113
0.0873765
0.129659
0.173733
0.218912
0.264027
0.30729
0.346153
0.377289
0.397068
0.401234
0.380049
0.327419
-0.370756
-0.419722
-0.436025
-0.428103
-0.407509
-0.37917
-0.346454
-0.311856
-0.276857
-0.242155
-0.207933
-0.174045
-0.140141
-0.105754
-0.0703619
-0.0334277
0.00556368
0.0470716
0.0914542
0.138906
0.189368
0.242401
0.297021
0.351478
0.402984
0.447546
0.480352
0.495172
0.478322
0.42027
-0.477781
-0.531924
-0.541389
-0.52009
-0.484729
-0.442345
-0.397258
-0.352313
-0.308947
-0.267616
-0.22819
-0.190204
-0.153005
-0.115854
-0.0779738
-0.0385852
0.0030735
0.0477254
0.0960233
0.148497
0.205468
0.266905
0.332222
0.399963
0.467358
0.529902
0.581515
0.613379
0.605914
0.543338
-0.62043
-0.67727
-0.671828
-0.628193
-0.570672
-0.508815
-0.447698
-0.390155
-0.337192
-0.2887
-0.243996
-0.202127
-0.162032
-0.122626
-0.0828377
-0.0416163
0.00206871
0.0492305
0.100859
0.157895
0.22116
0.29123
0.368208
0.45134
0.538368
0.624761
0.703423
0.762512
0.774075
0.711088
-0.820875
-0.870482
-0.833798
-0.75324
-0.663079
-0.574966
-0.493863
-0.421727
-0.358429
-0.302795
-0.25326
-0.208186
-0.165986
-0.125173
-0.0843522
-0.0421962
0.00259487
0.0513292
0.105355
0.166074
0.234925
0.313302
0.402363
0.502633
0.613215
0.730618
0.847771
0.95024
0.999501
0.949108
-1.1202
-1.13324
-1.03341
-0.893154
-0.756377
-0.634382
-0.529834
-0.44211
-0.368813
-0.307016
-0.253893
-0.20692
-0.163902
-0.122924
-0.0822779
-0.0403843
0.00429375
0.0533281
0.108406
0.171404
0.244449
0.329941
0.430488
0.54863
0.686105
0.84245
1.01314
1.18369
1.30573
1.30274
-1.59391
-1.49456
-1.27385
-1.04153
-0.841169
-0.677956
-0.548223
-0.445873
-0.364597
-0.298925
-0.244415
-0.197538
-0.155476
-0.115929
-0.0769372
-0.0367393
0.00636557
0.0541377
0.108532
0.171845
0.246882
0.337155
0.44706
0.581967
0.74799
0.9509
1.19326
1.46642
1.72288
1.85162
-2.41199
-1.99037
-1.54061
-1.17663
-0.897789
-0.690502
-0.538601
-0.426447
-0.341955
-0.276515
-0.223993
-0.179949
-0.141091
-0.104879
-0.0692424
-0.0323601
0.00750767
0.0521815
0.103739
0.164731
0.238474
0.329463
0.443946
0.590707
0.782146
1.0346
1.36462
1.78318
2.28908
2.77172
-4.02177
-2.64105
-1.7301
-1.20352
-0.859381
-0.628307
-0.473314
-0.366572
-0.290143
-0.233124
-0.188575
-0.151848
-0.119685
-0.0896734
-0.0598989
-0.0287063
0.00547505
0.0443045
0.0897031
0.144098
0.210783
0.294489
0.402344
0.545587
0.742807
1.02371
1.42889
2.02903
3.02778
4.51443
-6.7753
-3.27619
-1.63119
-0.981574
-0.646805
-0.449908
-0.330916
-0.254993
-0.203142
-0.165492
-0.136436
-0.112434
-0.0910751
-0.070592
-0.0495779
-0.0268115
-0.00112556
0.0287088
0.0641158
0.106896
0.159512
0.225594
0.310911
0.425508
0.588681
0.837655
1.2412
1.98554
3.74441
7.36188
)
;

boundaryField
{
    movingWall
    {
        type            zeroGradient;
    }
    fixedWalls
    {
        type            zeroGradient;
    }
    frontAndBack
    {
        type            empty;
    }
}


// ************************************************************************* //
