/*--------------------------------*- C++ -*----------------------------------*\
  =========                 |
  \\      /  F ield         | OpenFOAM: The Open Source CFD Toolbox
   \\    /   O peration     | Website:  https://openfoam.org
    \\  /    A nd           | Version:  9
     \\/     M anipulation  |
\*---------------------------------------------------------------------------*/
FoamFile
{
    format      ascii;
    class       surfaceScalarField;
    location    "0.3";
    object      phi;
}
// * * * * * * * * * * * * * * * * * * * * * * * * * * * * * * * * * * * * * //

dimensions      [0 3 -1 0 0 0 0];

internalField   nonuniform List<scalar> 
1740
(
1.79168e-08
-1.7969e-08
1.40996e-08
3.81749e-09
-2.58212e-08
3.99205e-08
-9.98876e-08
7.40666e-08
-2.01263e-07
1.01376e-07
-3.21818e-07
1.20555e-07
-4.53506e-07
1.31687e-07
-5.88931e-07
1.35424e-07
-7.215e-07
1.32569e-07
-8.45403e-07
1.23904e-07
-9.55555e-07
1.10152e-07
-1.04754e-06
9.19868e-08
-1.11761e-06
7.00705e-08
-1.16272e-06
4.51035e-08
-1.18059e-06
1.78741e-08
-1.16989e-06
-1.07014e-08
-1.13033e-06
-3.9555e-08
-1.06287e-06
-6.74643e-08
-9.69795e-07
-9.30756e-08
-8.54842e-07
-1.14953e-07
-7.2319e-07
-1.31652e-07
-5.81379e-07
-1.41811e-07
-4.37114e-07
-1.44265e-07
-2.98958e-07
-1.38155e-07
-1.75893e-07
-1.23065e-07
-7.66852e-08
-9.92078e-08
-8.91492e-09
-6.77702e-08
2.26638e-08
-3.15785e-08
1.96139e-08
3.05031e-09
1.96142e-08
-3.01442e-09
-1.49544e-08
-6.56461e-08
6.64499e-08
-2.04589e-07
1.78863e-07
-4.16463e-07
2.85939e-07
-6.88683e-07
3.73594e-07
-1.00452e-06
4.36391e-07
-1.34604e-06
4.73209e-07
-1.69574e-06
4.85122e-07
-2.03731e-06
4.74139e-07
-2.35599e-06
4.42576e-07
-2.63864e-06
3.92807e-07
-2.87387e-06
3.27219e-07
-3.05207e-06
2.48271e-07
-3.16558e-06
1.58613e-07
-3.20892e-06
6.12059e-08
-3.17904e-06
-4.05725e-08
-3.07573e-06
-1.42873e-07
-2.90181e-06
-2.41384e-07
-2.66346e-06
-3.31425e-07
-2.3703e-06
-4.08112e-07
-2.03533e-06
-4.66621e-07
-1.67463e-06
-5.02505e-07
-1.30682e-06
-5.12079e-07
-9.52123e-07
-4.9285e-07
-6.31184e-07
-4.44004e-07
-3.63335e-07
-3.67057e-07
-1.64244e-07
-2.66861e-07
-4.26724e-08
-1.53151e-07
4.23084e-09
-4.38534e-08
2.38455e-08
-3.9095e-08
2.41403e-08
-1.80237e-07
2.07592e-07
-4.28964e-07
4.2759e-07
-7.76406e-07
6.33381e-07
-1.20469e-06
8.01877e-07
-1.69106e-06
9.22759e-07
-2.21086e-06
9.93015e-07
-2.73954e-06
1.0138e-06
-3.25375e-06
9.8835e-07
-3.73204e-06
9.20872e-07
-4.1552e-06
8.15966e-07
-4.50647e-06
6.78481e-07
-4.77175e-06
5.13555e-07
-4.93992e-06
3.26785e-07
-5.00313e-06
1.24416e-07
-4.95721e-06
-8.6494e-08
-4.80208e-06
-2.97997e-07
-4.54217e-06
-5.01299e-07
-4.18664e-06
-6.86951e-07
-3.74956e-06
-8.45198e-07
-3.24969e-06
-9.6649e-07
-2.71006e-06
-1.04213e-06
-2.15709e-06
-1.06505e-06
-1.61925e-06
-1.03069e-06
-1.12533e-06
-9.37928e-07
-7.02041e-07
-7.90342e-07
-3.71152e-07
-5.9775e-07
-1.45981e-07
-3.78322e-07
-2.75393e-08
-1.62296e-07
-3.69355e-09
-7.62322e-08
1.00372e-07
-3.00243e-07
4.31602e-07
-6.61945e-07
7.89291e-07
-1.14321e-06
1.11465e-06
-1.71948e-06
1.37814e-06
-2.36226e-06
1.56554e-06
-3.04147e-06
1.67222e-06
-3.72717e-06
1.6995e-06
-4.39081e-06
1.65199e-06
-5.00597e-06
1.53603e-06
-5.54885e-06
1.35885e-06
-5.99868e-06
1.12831e-06
-6.33798e-06
8.52854e-07
-6.55297e-06
5.41774e-07
-6.63398e-06
2.05423e-07
-6.5759e-06
-1.44565e-07
-6.37873e-06
-4.95176e-07
-6.04791e-06
-8.32113e-07
-5.59476e-06
-1.1401e-06
-5.0365e-06
-1.40346e-06
-4.39609e-06
-1.60689e-06
-3.70168e-06
-1.73654e-06
-2.98553e-06
-1.78121e-06
-2.28246e-06
-1.73376e-06
-1.62779e-06
-1.59261e-06
-1.05468e-06
-1.36345e-06
-5.91183e-07
-1.06125e-06
-2.57078e-07
-7.12426e-07
-6.11583e-08
-3.58216e-07
-6.48521e-08
-1.11023e-07
2.11396e-07
-4.16365e-07
7.36944e-07
-8.89673e-07
1.2626e-06
-1.50174e-06
1.72671e-06
-2.22008e-06
2.09649e-06
-3.01014e-06
2.3556e-06
-3.83675e-06
2.49884e-06
-4.6655e-06
2.52825e-06
-5.46373e-06
2.45021e-06
-6.20123e-06
2.27352e-06
-6.85078e-06
2.00841e-06
-7.38857e-06
1.66609e-06
-7.79454e-06
1.25883e-06
-8.05284e-06
8.00071e-07
-8.15226e-06
3.04844e-07
-8.08679e-06
-2.10031e-07
-7.85615e-06
-7.25816e-07
-7.46628e-06
-1.22198e-06
-6.92974e-06
-1.67664e-06
-6.26586e-06
-2.06735e-06
-5.50058e-06
-2.37217e-06
-4.6659e-06
-2.57122e-06
-3.79877e-06
-2.64834e-06
-2.93946e-06
-2.59306e-06
-2.12935e-06
-2.40271e-06
-1.40824e-06
-2.08457e-06
-8.11381e-07
-1.6581e-06
-3.66744e-07
-1.15706e-06
-9.30447e-08
-6.31915e-07
-1.57897e-07
-1.42992e-07
3.54389e-07
-5.25959e-07
1.11991e-06
-1.10731e-06
1.84394e-06
-1.84624e-06
2.46564e-06
-2.70163e-06
2.95188e-06
-3.63246e-06
3.28642e-06
-4.59853e-06
3.46491e-06
-5.56135e-06
3.49108e-06
-6.48482e-06
3.37369e-06
-7.33576e-06
3.12447e-06
-8.08434e-06
2.75699e-06
-8.70444e-06
2.28619e-06
-9.17399e-06
1.72837e-06
-9.47541e-06
1.10149e-06
-9.5961e-06
4.25535e-07
-9.52899e-06
-2.77148e-07
-9.27312e-06
-9.81683e-07
-8.83427e-06
-1.66083e-06
-8.22543e-06
-2.28549e-06
-7.46706e-06
-2.82571e-06
-6.58713e-06
-3.2521e-06
-5.62062e-06
-3.53774e-06
-4.60853e-06
-3.66043e-06
-3.59628e-06
-3.6053e-06
-2.63153e-06
-3.36747e-06
-1.76137e-06
-2.95472e-06
-1.02951e-06
-2.38997e-06
-4.73465e-07
-1.7131e-06
-1.22931e-07
-9.8245e-07
-2.80828e-07
-1.72516e-07
5.26905e-07
-6.29074e-07
1.57647e-06
-1.31421e-06
2.52908e-06
-2.1757e-06
3.32712e-06
-3.16354e-06
3.93973e-06
-4.22998e-06
4.35286e-06
-5.32978e-06
4.5647e-06
-6.42059e-06
4.58189e-06
-7.46331e-06
4.4164e-06
-8.42235e-06
4.0835e-06
-9.26585e-06
3.60049e-06
-9.96593e-06
2.98627e-06
-1.04989e-05
2.26136e-06
-1.08457e-05
1.44832e-06
-1.09924e-05
5.72187e-07
-1.09305e-05
-3.39053e-07
-1.06579e-05
-1.25423e-06
-1.01797e-05
-2.1391e-06
-9.50824e-06
-2.95692e-06
-8.66436e-06
-3.66959e-06
-7.67715e-06
-4.23932e-06
-6.58387e-06
-4.63102e-06
-5.4292e-06
-4.8151e-06
-4.26376e-06
-4.77075e-06
-3.14194e-06
-4.48929e-06
-2.11917e-06
-3.97749e-06
-1.2488e-06
-3.26033e-06
-5.79227e-07
-2.38268e-06
-1.51745e-07
-1.40993e-06
-4.32574e-07
-2.0019e-07
7.27095e-07
-7.26758e-07
2.10304e-06
-1.51153e-06
3.31385e-06
-2.49126e-06
4.30686e-06
-3.60712e-06
5.05558e-06
-4.80455e-06
5.55029e-06
-6.03329e-06
5.79344e-06
-7.24733e-06
5.79593e-06
-8.40493e-06
5.574e-06
-9.46854e-06
5.14711e-06
-1.04048e-05
4.53671e-06
-1.11844e-05
3.76589e-06
-1.17825e-05
2.85945e-06
-1.21786e-05
1.84447e-06
-1.23574e-05
7.50922e-07
-1.23087e-05
-3.87711e-07
-1.20289e-05
-1.53403e-06
-1.15213e-05
-2.64672e-06
-1.07971e-05
-3.6811e-06
-9.87638e-06
-4.59031e-06
-8.78848e-06
-5.32721e-06
-7.5723e-06
-5.8472e-06
-6.2758e-06
-6.11159e-06
-4.9549e-06
-6.09164e-06
-3.67138e-06
-5.77282e-06
-2.49002e-06
-5.15885e-06
-1.47523e-06
-4.27512e-06
-6.87584e-07
-3.17033e-06
-1.80838e-07
-1.91668e-06
-6.13413e-07
-2.26549e-07
9.53644e-07
-8.20198e-07
2.69669e-06
-1.70084e-06
4.19449e-06
-2.79462e-06
5.40064e-06
-4.034e-06
6.29496e-06
-5.35771e-06
6.87401e-06
-6.71058e-06
7.14631e-06
-8.04319e-06
7.12855e-06
-9.31153e-06
6.84233e-06
-1.04765e-05
6.3121e-06
-1.15037e-05
5.56392e-06
-1.2363e-05
4.62521e-06
-1.30286e-05
3.52502e-06
-1.34788e-05
2.29471e-06
-1.36968e-05
9.68838e-07
-1.36705e-05
-4.13968e-07
-1.33941e-05
-1.81041e-06
-1.28686e-05
-3.17228e-06
-1.21028e-05
-4.44682e-06
-1.11152e-05
-5.57792e-06
-9.93429e-06
-6.50815e-06
-8.59967e-06
-7.18182e-06
-7.16216e-06
-7.54911e-06
-5.6829e-06
-7.57089e-06
-4.23162e-06
-7.2241e-06
-2.88359e-06
-6.50688e-06
-1.71581e-06
-5.4429e-06
-8.0262e-07
-4.08351e-06
-2.11639e-07
-2.50766e-06
-8.25053e-07
-2.52001e-07
1.20565e-06
-9.10395e-07
3.35509e-06
-1.88354e-06
5.16763e-06
-3.0872e-06
6.6043e-06
-4.44528e-06
7.65304e-06
-5.88993e-06
8.31865e-06
-7.36127e-06
8.61765e-06
-8.80682e-06
8.5741e-06
-1.01807e-05
8.21623e-06
-1.14429e-05
7.57431e-06
-1.25585e-05
6.67949e-06
-1.3497e-05
5.56369e-06
-1.4232e-05
4.26001e-06
-1.4741e-05
2.80372e-06
-1.50056e-05
1.23343e-06
-1.50118e-05
-4.07771e-07
-1.47509e-05
-2.07126e-06
-1.42208e-05
-3.70239e-06
-1.34272e-05
-5.24048e-06
-1.23852e-05
-6.61987e-06
-1.11215e-05
-7.77184e-06
-9.67527e-06
-8.62806e-06
-8.09921e-06
-9.12517e-06
-6.45944e-06
-9.21067e-06
-4.83394e-06
-8.8496e-06
-3.3096e-06
-8.03122e-06
-1.97769e-06
-6.77481e-06
-9.28474e-07
-5.13273e-06
-2.45537e-07
-3.1906e-06
-1.07059e-06
-2.76836e-07
1.48248e-06
-9.98121e-07
4.07637e-06
-2.06069e-06
6.2302e-06
-3.36995e-06
7.91356e-06
-4.84124e-06
9.12433e-06
-6.40028e-06
9.87769e-06
-7.98278e-06
1.02002e-05
-9.53362e-06
1.01249e-05
-1.10057e-05
9.6883e-06
-1.23586e-05
8.92726e-06
-1.35577e-05
7.8786e-06
-1.45728e-05
6.57879e-06
-1.53776e-05
5.06477e-06
-1.5949e-05
3.37516e-06
-1.62674e-05
1.5518e-06
-1.63166e-05
-3.58606e-07
-1.60847e-05
-2.30309e-06
-1.55658e-05
-4.22135e-06
-1.47609e-05
-6.04532e-06
-1.36811e-05
-7.6997e-06
-1.23491e-05
-9.10384e-06
-1.08021e-05
-1.01751e-05
-9.09341e-06
-1.08338e-05
-7.29328e-06
-1.10108e-05
-5.48798e-06
-1.06549e-05
-3.77695e-06
-9.74225e-06
-2.26773e-06
-8.28403e-06
-1.06917e-06
-6.33129e-06
-2.83869e-07
-3.97589e-06
-1.35446e-06
-3.01285e-07
1.78377e-06
-1.08402e-06
4.8591e-06
-2.23315e-06
7.37933e-06
-3.64338e-06
9.32379e-06
-5.22136e-06
1.07023e-05
-6.88644e-06
1.15428e-05
-8.57027e-06
1.1884e-05
-1.02157e-05
1.17703e-05
-1.1775e-05
1.12476e-05
-1.32085e-05
1.03608e-05
-1.44827e-05
9.15271e-06
-1.55684e-05
7.66452e-06
-1.64403e-05
5.93664e-06
-1.70754e-05
4.01033e-06
-1.74533e-05
1.92969e-06
-1.75557e-05
-2.5622e-07
-1.73674e-05
-2.49138e-06
-1.68777e-05
-4.71106e-06
-1.60823e-05
-6.84077e-06
-1.49859e-05
-8.79609e-06
-1.36057e-05
-1.0484e-05
-1.19748e-05
-1.1806e-05
-1.01449e-05
-1.26638e-05
-8.18884e-06
-1.29668e-05
-6.20072e-06
-1.2643e-05
-4.29322e-06
-1.16497e-05
-2.59223e-06
-9.98503e-06
-1.22854e-06
-7.69498e-06
-3.27936e-07
-4.8765e-06
-1.6824e-06
-3.25593e-07
2.10936e-06
-1.1688e-06
5.70231e-06
-2.40184e-06
8.61237e-06
-3.90796e-06
1.08299e-05
-5.58468e-06
1.2379e-05
-7.34498e-06
1.33031e-05
-9.11685e-06
1.36559e-05
-1.08418e-05
1.34953e-05
-1.24727e-05
1.28786e-05
-1.39715e-05
1.18596e-05
-1.53069e-05
1.04881e-05
-1.64522e-05
8.80988e-06
-1.7384e-05
6.86845e-06
-1.80805e-05
4.70683e-06
-1.8521e-05
2.37017e-06
-1.86856e-05
-9.16442e-08
-1.85557e-05
-2.62123e-06
-1.81156e-05
-5.15122e-06
-1.73541e-05
-7.60226e-06
-1.62683e-05
-9.88188e-06
-1.48673e-05
-1.1885e-05
-1.31772e-05
-1.34962e-05
-1.12452e-05
-1.45957e-05
-9.14458e-06
-1.50675e-05
-6.97545e-06
-1.48121e-05
-4.86403e-06
-1.37612e-05
-2.95671e-06
-1.18924e-05
-1.41026e-06
-9.24142e-06
-3.79041e-07
-5.90772e-06
-2.06144e-06
-3.50129e-07
2.45949e-06
-1.25353e-06
6.60571e-06
-2.56821e-06
9.92705e-06
-4.16459e-06
1.24263e-05
-5.93026e-06
1.41447e-05
-7.77174e-06
1.51445e-05
-9.61387e-06
1.5498e-05
-1.13978e-05
1.52792e-05
-1.30783e-05
1.4559e-05
-1.46202e-05
1.34015e-05
-1.59962e-05
1.1864e-05
-1.71834e-05
9.99713e-06
-1.81618e-05
7.84678e-06
-1.89118e-05
5.45685e-06
-1.94137e-05
2.87209e-06
-1.96468e-05
1.41435e-07
-1.95895e-05
-2.67851e-06
-1.92207e-05
-5.52004e-06
-1.85217e-05
-8.30123e-06
-1.748e-05
-1.09235e-05
-1.60941e-05
-1.32708e-05
-1.43795e-05
-1.52109e-05
-1.23753e-05
-1.65998e-05
-1.0151e-05
-1.72918e-05
-7.81042e-06
-1.71527e-05
-5.49239e-06
-1.60792e-05
-3.36571e-06
-1.4019e-05
-1.61783e-06
-1.09893e-05
-4.38526e-07
-7.08702e-06
-2.49997e-06
-3.75524e-07
2.83502e-06
-1.34007e-06
7.57026e-06
-2.73487e-06
1.13219e-05
-4.41533e-06
1.41067e-05
-6.2579e-06
1.59873e-05
-8.16242e-06
1.70491e-05
-1.00513e-05
1.73869e-05
-1.18666e-05
1.70946e-05
-1.35666e-05
1.62589e-05
-1.51211e-05
1.4956e-05
-1.65083e-05
1.32513e-05
-1.77112e-05
1.12e-05
-1.87146e-05
8.85018e-06
-1.95031e-05
6.24536e-06
-2.00593e-05
3.42833e-06
-2.03629e-05
4.44999e-07
-2.03901e-05
-2.65129e-06
-2.01148e-05
-5.79536e-06
-1.95102e-05
-8.90581e-06
-1.85527e-05
-1.1881e-05
-1.72274e-05
-1.45962e-05
-1.55351e-05
-1.69031e-05
-1.35019e-05
-1.8633e-05
-1.11883e-05
-1.96054e-05
-8.69719e-06
-1.96439e-05
-6.17784e-06
-1.85985e-05
-3.82256e-06
-1.63743e-05
-1.85461e-06
-1.29573e-05
-5.07836e-07
-8.43379e-06
-3.0078e-06
-4.02872e-07
3.23789e-06
-1.43153e-06
8.59891e-06
-2.90634e-06
1.27967e-05
-4.66426e-06
1.58647e-05
-6.5688e-06
1.78918e-05
-8.51296e-06
1.89932e-05
-1.04177e-05
1.92916e-05
-1.22281e-05
1.89049e-05
-1.39077e-05
1.79385e-05
-1.54338e-05
1.64822e-05
-1.67924e-05
1.46099e-05
-1.79744e-05
1.2382e-05
-1.89716e-05
9.84742e-06
-1.97746e-05
7.04837e-06
-2.03702e-05
4.02393e-06
-2.07401e-05
8.14807e-07
-2.08596e-05
-2.5317e-06
-2.06987e-05
-5.95632e-06
-2.02225e-05
-9.38203e-06
-1.93952e-05
-1.27082e-05
-1.81859e-05
-1.58055e-05
-1.65767e-05
-1.85124e-05
-1.45743e-05
-2.06354e-05
-1.22232e-05
-2.19566e-05
-9.61849e-06
-2.22485e-05
-6.91527e-06
-2.13018e-05
-4.32896e-06
-1.89606e-05
-2.12391e-06
-1.51623e-05
-5.88612e-07
-9.96908e-06
-3.59642e-06
-4.34021e-07
3.67191e-06
-1.53307e-06
9.69796e-06
-3.09003e-06
1.43536e-05
-4.91831e-06
1.7693e-05
-6.8661e-06
1.98396e-05
-8.81964e-06
2.09468e-05
-1.07002e-05
2.11722e-05
-1.24582e-05
2.06629e-05
-1.40658e-05
1.95461e-05
-1.55104e-05
1.79267e-05
-1.67886e-05
1.58881e-05
-1.79013e-05
1.34947e-05
-1.88499e-05
1.0796e-05
-1.96328e-05
7.83134e-06
-2.02433e-05
4.63441e-06
-2.0667e-05
1.23848e-06
-2.08806e-05
-2.31807e-06
-2.08514e-05
-5.98553e-06
-2.05376e-05
-9.69581e-06
-1.98912e-05
-1.33546e-05
-1.88631e-05
-1.68336e-05
-1.74125e-05
-1.9963e-05
-1.552e-05
-2.25279e-05
-1.32051e-05
-2.42715e-05
-1.05453e-05
-2.49083e-05
-7.69333e-06
-2.41537e-05
-4.88458e-06
-2.17694e-05
-2.42908e-06
-1.76178e-05
-6.8285e-07
-1.17153e-05
-4.27927e-06
-4.72003e-07
4.14391e-06
-1.65287e-06
1.08788e-05
-3.29737e-06
1.59981e-05
-5.18806e-06
1.95836e-05
-7.15494e-06
2.18065e-05
-9.07825e-06
2.28701e-05
-1.08825e-05
2.29765e-05
-1.25273e-05
2.23076e-05
-1.39972e-05
2.1016e-05
-1.52932e-05
1.92228e-05
-1.64255e-05
1.70204e-05
-1.74078e-05
1.4477e-05
-1.82531e-05
1.16413e-05
-1.897e-05
8.54824e-06
-1.95601e-05
5.22455e-06
-2.00156e-05
1.6939e-06
-2.03167e-05
-2.01698e-06
-2.04306e-05
-5.87162e-06
-2.03106e-05
-9.81573e-06
-1.98976e-05
-1.37677e-05
-1.91239e-05
-1.76073e-05
-1.79222e-05
-2.11647e-05
-1.62402e-05
-2.421e-05
-1.40615e-05
-2.64501e-05
-1.14331e-05
-2.75367e-05
-8.49209e-06
-2.70947e-05
-5.4863e-06
-2.47752e-05
-2.77381e-06
-2.03303e-05
-7.93191e-07
-1.36959e-05
-5.07246e-06
-5.21715e-07
4.66563e-06
-1.80345e-06
1.21606e-05
-3.54509e-06
1.77398e-05
-5.48801e-06
2.15266e-05
-7.44132e-06
2.37598e-05
-9.28162e-06
2.47104e-05
-1.09416e-05
2.46365e-05
-1.23956e-05
2.37616e-05
-1.36456e-05
2.22661e-05
-1.47107e-05
2.02878e-05
-1.56177e-05
1.79274e-05
-1.63956e-05
1.52549e-05
-1.70709e-05
1.23166e-05
-1.76644e-05
9.14174e-06
-1.81881e-05
5.74821e-06
-1.86426e-05
2.14839e-06
-1.90146e-05
-1.64496e-06
-1.92744e-05
-5.61182e-06
-1.93737e-05
-9.71646e-06
-1.92448e-05
-1.38965e-05
-1.88031e-05
-1.8049e-05
-1.79533e-05
-2.20145e-05
-1.6604e-05
-2.55593e-05
-1.46919e-05
-2.83622e-05
-1.22161e-05
-3.00125e-05
-9.27956e-06
-3.00313e-05
-6.12706e-06
-2.79277e-05
-3.16246e-06
-2.32949e-05
-9.2346e-07
-1.59349e-05
-5.99592e-06
-5.91041e-07
5.25667e-06
-2.00359e-06
1.35731e-05
-3.85619e-06
1.95924e-05
-5.83558e-06
2.3506e-05
-7.72858e-06
2.56528e-05
-9.4138e-06
2.63956e-05
-1.08403e-05
2.6063e-05
-1.20052e-05
2.49265e-05
-1.29348e-05
2.31956e-05
-1.36704e-05
2.10234e-05
-1.4259e-05
1.85161e-05
-1.4747e-05
1.57429e-05
-1.51757e-05
1.27454e-05
-1.5579e-05
9.54505e-06
-1.59806e-05
6.14974e-06
-1.63914e-05
2.55923e-06
-1.68072e-05
-1.22914e-06
-1.72049e-05
-5.21415e-06
-1.75389e-05
-9.38245e-06
-1.77382e-05
-1.36972e-05
-1.77049e-05
-1.80823e-05
-1.73177e-05
-2.24017e-05
-1.64431e-05
-2.64338e-05
-1.496e-05
-2.98453e-05
-1.28003e-05
-3.21722e-05
-1.00061e-05
-3.28254e-05
-6.79377e-06
-3.114e-05
-3.60074e-06
-2.64879e-05
-1.07965e-06
-1.8456e-05
-7.07557e-06
-6.92737e-07
5.9494e-06
-2.28071e-06
1.51611e-05
-4.26011e-06
2.15718e-05
-6.24705e-06
2.54929e-05
-8.00905e-06
2.74148e-05
-9.43842e-06
2.7825e-05
-1.05138e-05
2.71384e-05
-1.12664e-05
2.56791e-05
-1.17545e-05
2.36837e-05
-1.2047e-05
2.13159e-05
-1.22135e-05
1.86825e-05
-1.23184e-05
1.58477e-05
-1.24181e-05
1.28451e-05
-1.25593e-05
9.68625e-06
-1.27773e-05
6.36778e-06
-1.30945e-05
2.87642e-06
-1.35174e-05
-8.06259e-07
-1.4033e-05
-4.69854e-06
-1.46039e-05
-8.8116e-06
-1.51622e-05
-1.31388e-05
-1.56047e-05
-1.76398e-05
-1.57902e-05
-2.22162e-05
-1.55452e-05
-2.66788e-05
-1.46839e-05
-3.07066e-05
-1.30514e-05
-3.38048e-05
-1.05954e-05
-3.52815e-05
-7.46284e-06
-3.42726e-05
-4.09611e-06
-2.98547e-05
-1.27171e-06
-2.12804e-05
-8.34728e-06
-8.47677e-07
6.79708e-06
-2.67371e-06
1.69871e-05
-4.78979e-06
2.36878e-05
-6.72685e-06
2.743e-05
-8.24649e-06
2.89344e-05
-9.27675e-06
2.88552e-05
-9.84613e-06
2.77078e-05
-1.00344e-05
2.58673e-05
-9.94058e-06
2.35899e-05
-9.66517e-06
2.10405e-05
-9.30091e-06
1.83183e-05
-8.92931e-06
1.54761e-05
-8.61971e-06
1.25355e-05
-8.4294e-06
9.49593e-06
-8.40371e-06
6.34209e-06
-8.57534e-06
3.04805e-06
-8.96244e-06
-4.19158e-07
-9.56492e-06
-4.09606e-06
-1.03587e-05
-8.01783e-06
-1.12876e-05
-1.22099e-05
-1.22538e-05
-1.66736e-05
-1.31086e-05
-2.13614e-05
-1.36483e-05
-2.61392e-05
-1.3624e-05
-3.07309e-05
-1.27788e-05
-3.465e-05
-1.0928e-05
-3.71323e-05
-8.09084e-06
-3.71097e-05
-4.65718e-06
-3.32883e-05
-1.5165e-06
-2.44211e-05
-9.86377e-06
-1.09029e-06
7.88737e-06
-3.23454e-06
1.91314e-05
-5.47066e-06
2.5924e-05
-7.24267e-06
2.9202e-05
-8.34125e-06
3.0033e-05
-8.76835e-06
2.92823e-05
-8.63082e-06
2.75703e-05
-8.07369e-06
2.53102e-05
-7.24398e-06
2.27602e-05
-6.27437e-06
2.00709e-05
-5.27803e-06
1.73219e-05
-4.34893e-06
1.4547e-05
-3.5643e-06
1.17508e-05
-2.98729e-06
8.91892e-06
-2.66916e-06
6.02397e-06
-2.65019e-06
3.02907e-06
-2.95892e-06
-1.10422e-07
-3.60934e-06
-3.44564e-06
-4.59514e-06
-7.03204e-06
-5.88046e-06
-1.09246e-05
-7.38671e-06
-1.51673e-05
-8.97599e-06
-1.97721e-05
-1.04347e-05
-2.46804e-05
-1.14662e-05
-2.96994e-05
-1.17098e-05
-3.44064e-05
-1.08137e-05
-3.80283e-05
-8.5942e-06
-3.93292e-05
-5.28865e-06
-3.65939e-05
-1.84233e-06
-2.78674e-05
-1.17061e-05
-1.47697e-06
9.36434e-06
-4.0231e-06
2.16775e-05
-6.28866e-06
2.81895e-05
-7.67056e-06
3.05839e-05
-8.06371e-06
3.04262e-05
-7.60366e-06
2.88223e-05
-6.51015e-06
2.64768e-05
-5.00739e-06
2.38074e-05
-3.29096e-06
2.10438e-05
-1.51952e-06
1.82995e-05
1.82382e-07
1.562e-05
1.71777e-06
1.30117e-05
3.0104e-06
1.04582e-05
3.99892e-06
7.93041e-06
4.63258e-06
5.39031e-06
4.86859e-06
2.79306e-06
4.67134e-06
8.68269e-08
4.01387e-06
-2.78817e-06
2.8824e-06
-5.90056e-06
1.28516e-06
-9.32738e-06
-7.32819e-07
-1.31494e-05
-3.06766e-06
-1.74373e-05
-5.52764e-06
-2.22205e-05
-7.80304e-06
-2.7424e-05
-9.45244e-06
-3.2757e-05
-9.94301e-06
-3.75377e-05
-8.80608e-06
-4.04661e-05
-5.97274e-06
-3.94272e-05
-2.29356e-06
-3.15466e-05
-1.39997e-05
-2.09423e-06
1.14586e-05
-5.07596e-06
2.46592e-05
-7.10642e-06
3.022e-05
-7.67933e-06
3.11568e-05
-6.93306e-06
2.96799e-05
-5.21524e-06
2.71044e-05
-2.88731e-06
2.41488e-05
-2.51811e-07
2.11719e-05
2.46179e-06
1.83302e-05
5.08753e-06
1.56737e-05
7.50747e-06
1.32001e-05
9.63709e-06
1.0882e-05
1.14138e-05
8.68154e-06
1.27882e-05
6.55598e-06
1.37184e-05
4.46011e-06
1.41657e-05
2.34571e-06
1.40928e-05
1.59716e-07
1.34634e-05
-2.15869e-06
1.22443e-05
-4.68153e-06
1.04127e-05
-7.4957e-06
7.96818e-06
-1.07049e-05
4.95687e-06
-1.4426e-05
1.50831e-06
-1.87719e-05
-2.11164e-06
-2.3804e-05
-5.44257e-06
-2.94261e-05
-7.80342e-06
-3.51769e-05
-8.38609e-06
-3.98835e-05
-6.61198e-06
-4.12013e-05
-2.92525e-06
-3.52333e-05
-1.69249e-05
-3.04167e-06
1.45002e-05
-6.28534e-06
2.79029e-05
-7.45428e-06
3.13889e-05
-6.49822e-06
3.02007e-05
-4.01134e-06
2.7193e-05
-6.20179e-07
2.37133e-05
3.18062e-06
2.0348e-05
7.0475e-06
1.7305e-05
1.07588e-05
1.46189e-05
1.41772e-05
1.22553e-05
1.72192e-05
1.01581e-05
1.98332e-05
8.26798e-06
2.19851e-05
6.52967e-06
2.36484e-05
4.89272e-06
2.47981e-05
3.31036e-06
2.54068e-05
1.73699e-06
2.54415e-05
1.25046e-07
2.4862e-05
-1.57923e-06
2.36209e-05
-3.4404e-06
2.16656e-05
-5.54043e-06
1.89465e-05
-7.98573e-06
1.54343e-05
-1.09138e-05
1.11567e-05
-1.44942e-05
6.26248e-06
-1.89098e-05
1.12317e-06
-2.42868e-05
-3.54738e-06
-3.05063e-05
-6.63935e-06
-3.67915e-05
-6.87038e-06
-4.09703e-05
-3.74858e-06
-3.83551e-05
-2.06735e-05
-4.30562e-06
1.88059e-05
-7.01562e-06
3.06129e-05
-6.04356e-06
3.04169e-05
-2.48565e-06
2.66428e-05
2.40574e-06
2.23016e-05
7.76534e-06
1.83537e-05
1.30703e-05
1.50431e-05
1.80362e-05
1.23391e-05
2.25249e-05
1.01303e-05
2.64788e-05
8.30137e-06
2.98814e-05
6.75547e-06
3.27338e-05
5.41559e-06
3.50421e-05
4.22137e-06
3.68102e-05
3.12461e-06
3.80356e-05
2.08497e-06
3.87065e-05
1.06611e-06
3.87993e-05
3.21975e-08
3.82768e-05
-1.05666e-06
3.70846e-05
-2.24821e-06
3.51499e-05
-3.60568e-06
3.23805e-05
-5.21641e-06
2.86715e-05
-7.20477e-06
2.39254e-05
-9.74816e-06
1.81068e-05
-1.30912e-05
1.13572e-05
-1.75372e-05
4.1998e-06
-2.33489e-05
-2.1872e-06
-3.04045e-05
-5.80527e-06
-3.73522e-05
-4.53574e-06
-3.96247e-05
-2.52092e-05
-5.28686e-06
2.40927e-05
-5.04073e-06
3.03668e-05
2.67398e-07
2.51087e-05
7.57415e-06
1.93361e-05
1.51521e-05
1.47236e-05
2.22425e-05
1.12633e-05
2.85594e-05
8.72616e-06
3.40419e-05
6.85668e-06
3.87252e-05
5.44689e-06
4.26765e-05
4.35006e-06
4.59651e-05
3.46691e-06
4.86507e-05
2.72994e-06
5.07799e-05
2.09222e-06
5.23847e-05
1.51984e-06
5.34829e-05
9.86718e-07
5.4078e-05
4.70991e-07
5.41581e-05
-4.78876e-08
5.36936e-05
-5.92108e-07
5.26337e-05
-1.18833e-06
5.09007e-05
-1.87271e-06
4.83821e-05
-2.69784e-06
4.4922e-05
-3.74459e-06
4.03159e-05
-5.14213e-06
3.43252e-05
-7.10057e-06
2.67453e-05
-9.95725e-06
1.76044e-05
-1.4208e-05
7.60771e-06
-2.04079e-05
-1.08552e-06
-2.8659e-05
-4.31635e-06
-3.63938e-05
-2.95256e-05
-2.32205e-06
2.64148e-05
6.59989e-06
2.14448e-05
1.84443e-05
1.32643e-05
2.92537e-05
8.52664e-06
3.82566e-05
5.72079e-06
4.55538e-05
3.96609e-06
5.14304e-05
2.8496e-06
5.61689e-05
2.11815e-06
6.00004e-05
1.61541e-06
6.30998e-05
1.25068e-06
6.55951e-05
9.71659e-07
6.75777e-05
7.47278e-07
6.91117e-05
5.58183e-07
7.024e-05
3.91627e-07
7.09881e-05
2.38551e-07
7.13673e-05
9.18319e-08
7.13744e-05
-5.49914e-08
7.09908e-05
-2.0856e-07
7.01796e-05
-3.77049e-07
6.88785e-05
-5.71628e-07
6.69899e-05
-8.09279e-07
6.43633e-05
-1.11793e-06
6.0768e-05
-1.54685e-06
5.5856e-05
-2.18855e-06
4.91227e-05
-3.22402e-06
3.9926e-05
-5.01125e-06
2.77571e-05
-8.23892e-06
1.32152e-05
-1.41172e-05
6.43156e-07
-2.38217e-05
-2.88824e-05
2.64148e-05
4.78596e-05
6.11239e-05
6.96505e-05
7.53713e-05
7.93374e-05
8.2187e-05
8.43052e-05
8.59206e-05
8.71713e-05
8.81429e-05
8.88902e-05
8.94484e-05
8.984e-05
9.00785e-05
9.01704e-05
9.01154e-05
8.99068e-05
8.95298e-05
8.89582e-05
8.81489e-05
8.70309e-05
8.54841e-05
8.32955e-05
8.00715e-05
7.50603e-05
6.68213e-05
5.27042e-05
2.88824e-05
)
;

boundaryField
{
    movingWall
    {
        type            calculated;
        value           uniform 0;
    }
    fixedWalls
    {
        type            calculated;
        value           uniform 0;
    }
    frontAndBack
    {
        type            empty;
        value           nonuniform List<scalar> 0();
    }
}


// ************************************************************************* //
