/*--------------------------------*- C++ -*----------------------------------*\
  =========                 |
  \\      /  F ield         | OpenFOAM: The Open Source CFD Toolbox
   \\    /   O peration     | Website:  https://openfoam.org
    \\  /    A nd           | Version:  9
     \\/     M anipulation  |
\*---------------------------------------------------------------------------*/
FoamFile
{
    format      ascii;
    class       surfaceScalarField;
    location    "0.3";
    object      phi;
}
// * * * * * * * * * * * * * * * * * * * * * * * * * * * * * * * * * * * * * //

dimensions      [0 3 -1 0 0 0 0];

internalField   nonuniform List<scalar> 
1740
(
6.095e-09
-6.10631e-09
5.34428e-09
7.50652e-10
-7.33032e-09
1.26746e-08
-3.15862e-08
2.4256e-08
-6.53123e-08
3.37261e-08
-1.05825e-07
4.05131e-08
-1.50355e-07
4.4529e-08
-1.96271e-07
4.59167e-08
-2.41189e-07
4.49173e-08
-2.83e-07
4.1811e-08
-3.19891e-07
3.68918e-08
-3.5035e-07
3.04586e-08
-3.73163e-07
2.2813e-08
-3.87424e-07
1.42612e-08
-3.92543e-07
5.11839e-09
-3.88255e-07
-4.28756e-09
-3.74643e-07
-1.36122e-08
-3.52149e-07
-2.24935e-08
-3.21596e-07
-3.05539e-08
-2.8419e-07
-3.74056e-08
-2.4153e-07
-4.266e-08
-1.95588e-07
-4.59417e-08
-1.48682e-07
-4.69066e-08
-1.03416e-07
-4.52656e-08
-6.25974e-08
-4.08186e-08
-2.90806e-08
-3.35171e-08
-5.49245e-09
-2.35884e-08
6.28142e-09
-1.17735e-08
6.28615e-09
-3.51011e-12
6.28734e-09
-4.40435e-10
-5.66584e-09
-2.00497e-08
2.03597e-08
-6.49924e-08
5.7617e-08
-1.34666e-07
9.39295e-08
-2.25186e-07
1.24246e-07
-3.31026e-07
1.46354e-07
-4.46039e-07
1.59541e-07
-5.64067e-07
1.63946e-07
-6.79306e-07
1.60155e-07
-7.8649e-07
1.48996e-07
-8.81016e-07
1.31418e-07
-9.59e-07
1.08442e-07
-1.01732e-06
8.11332e-08
-1.05365e-06
5.05935e-08
-1.0665e-06
1.79667e-08
-1.05523e-06
-1.55564e-08
-1.02011e-06
-4.8732e-08
-9.6234e-07
-8.02658e-08
-8.84071e-07
-1.08823e-07
-7.88423e-07
-1.33054e-07
-6.79453e-07
-1.51629e-07
-5.62095e-07
-1.633e-07
-4.42035e-07
-1.66967e-07
-3.25519e-07
-1.61781e-07
-2.19053e-07
-1.47284e-07
-1.28949e-07
-1.2362e-07
-6.06247e-08
-9.19132e-08
-1.75507e-08
-5.48488e-08
3.50003e-10
-1.79058e-08
6.63832e-09
-1.20613e-08
6.3955e-09
-5.71828e-08
6.5481e-08
-1.38104e-07
1.38538e-07
-2.52548e-07
2.08374e-07
-3.94929e-07
2.66626e-07
-5.57697e-07
3.09122e-07
-7.32398e-07
3.34241e-07
-9.10419e-07
3.41967e-07
-1.0835e-06
3.33239e-07
-1.24407e-06
3.0956e-07
-1.38541e-06
2.72764e-07
-1.50186e-06
2.24887e-07
-1.58882e-06
1.68098e-07
-1.6429e-06
1.0467e-07
-1.66191e-06
3.69733e-08
-1.64494e-06
-3.25227e-08
-1.59243e-06
-1.01246e-07
-1.50616e-06
-1.66533e-07
-1.38933e-06
-2.25658e-07
-1.24649e-06
-2.75886e-07
-1.08357e-06
-3.14556e-07
-9.07666e-07
-3.39202e-07
-7.2692e-07
-3.47713e-07
-5.50163e-07
-3.38538e-07
-3.86478e-07
-3.10969e-07
-2.44559e-07
-2.65538e-07
-1.31855e-07
-2.04616e-07
-5.34639e-08
-1.3324e-07
-1.08021e-08
-6.05686e-08
-4.16355e-09
-2.40662e-08
3.04617e-08
-9.62026e-08
1.37617e-07
-2.14258e-07
2.56593e-07
-3.73017e-07
3.67132e-07
-5.64682e-07
4.58291e-07
-7.79746e-07
5.24186e-07
-1.00785e-06
5.62342e-07
-1.23848e-06
5.72604e-07
-1.46156e-06
5.56314e-07
-1.66776e-06
5.15763e-07
-1.84883e-06
4.53836e-07
-1.99775e-06
3.73801e-07
-2.10883e-06
2.79183e-07
-2.17786e-06
1.73702e-07
-2.20214e-06
6.1251e-08
-2.18055e-06
-5.41107e-08
-2.11363e-06
-1.68165e-07
-2.00361e-06
-2.76556e-07
-1.85443e-06
-3.74843e-07
-1.67172e-06
-4.58594e-07
-1.46275e-06
-5.23521e-07
-1.23627e-06
-5.65686e-07
-1.00222e-06
-5.81758e-07
-7.71413e-07
-5.69349e-07
-5.5494e-07
-5.27443e-07
-3.63517e-07
-4.56961e-07
-2.06617e-07
-3.61515e-07
-9.15199e-08
-2.48336e-07
-2.24254e-08
-1.29663e-07
-2.65891e-08
-3.53124e-08
6.5774e-08
-1.3406e-07
2.36364e-07
-2.88992e-07
4.11526e-07
-4.91322e-07
5.69462e-07
-7.30596e-07
6.97566e-07
-9.95183e-07
7.88773e-07
-1.2729e-06
8.40056e-07
-1.5516e-06
8.5131e-07
-1.81972e-06
8.24429e-07
-2.06659e-06
7.62637e-07
-2.28279e-06
6.70033e-07
-2.46028e-06
5.51292e-07
-2.59258e-06
4.11485e-07
-2.67486e-06
2.55984e-07
-2.70403e-06
9.04161e-08
-2.67878e-06
-7.9353e-08
-2.59972e-06
-2.47232e-07
-2.46933e-06
-4.06942e-07
-2.29208e-06
-5.5209e-07
-2.07437e-06
-6.76304e-07
-1.82446e-06
-7.73434e-07
-1.55231e-06
-8.37837e-07
-1.26932e-06
-8.64748e-07
-9.87917e-07
-8.50751e-07
-7.21014e-07
-7.94346e-07
-4.81317e-07
-6.96658e-07
-2.8055e-07
-5.62282e-07
-1.2868e-07
-4.00205e-07
-3.3355e-08
-2.24988e-07
-5.99442e-08
-4.56784e-08
1.11452e-07
-1.70021e-07
3.60707e-07
-3.61003e-07
6.02507e-07
-6.06048e-07
8.14506e-07
-8.91753e-07
9.83271e-07
-1.20416e-06
1.10118e-06
-1.52922e-06
1.16511e-06
-1.85323e-06
1.17532e-06
-2.16333e-06
1.13452e-06
-2.44776e-06
1.04707e-06
-2.69618e-06
9.18457e-07
-2.89982e-06
7.54927e-07
-3.05159e-06
5.63254e-07
-3.14621e-06
3.50602e-07
-3.18027e-06
1.24475e-07
-3.15231e-06
-1.07312e-07
-3.06289e-06
-3.3665e-07
-2.91466e-06
-5.55176e-07
-2.71237e-06
-7.54373e-07
-2.46294e-06
-9.25737e-07
-2.17534e-06
-1.06104e-06
-1.86048e-06
-1.15269e-06
-1.53098e-06
-1.19425e-06
-1.20075e-06
-1.18098e-06
-8.84493e-07
-1.11061e-06
-5.97035e-07
-9.84116e-07
-3.52642e-07
-8.06675e-07
-1.6434e-07
-5.88507e-07
-4.34953e-08
-3.45832e-07
-1.0344e-07
-5.53556e-08
1.66808e-07
-2.04322e-07
5.09672e-07
-4.305e-07
8.28685e-07
-7.17508e-07
1.10151e-06
-1.04882e-06
1.31459e-06
-1.408e-06
1.46036e-06
-1.779e-06
1.53612e-06
-2.14663e-06
1.54295e-06
-2.49678e-06
1.48468e-06
-2.81681e-06
1.36709e-06
-3.09563e-06
1.19727e-06
-3.3239e-06
9.83206e-07
-3.49414e-06
7.33485e-07
-3.60071e-06
4.57172e-07
-3.63996e-06
1.63726e-07
-3.61026e-06
-1.37013e-07
-3.51207e-06
-4.34839e-07
-3.34803e-06
-7.19215e-07
-3.12302e-06
-9.79376e-07
-2.84424e-06
-1.20452e-06
-2.52114e-06
-1.38414e-06
-2.16539e-06
-1.50844e-06
-1.79068e-06
-1.56896e-06
-1.41235e-06
-1.55931e-06
-1.04696e-06
-1.476e-06
-7.11666e-07
-1.31941e-06
-4.23539e-07
-1.0948e-06
-1.9895e-07
-8.13096e-07
-5.30997e-08
-4.91682e-07
-1.56539e-07
-6.46249e-08
2.31433e-07
-2.37577e-07
6.82624e-07
-4.9837e-07
1.08948e-06
-8.26835e-07
1.42998e-06
-1.20322e-06
1.69097e-06
-1.60846e-06
1.86559e-06
-2.02448e-06
1.95214e-06
-2.43452e-06
1.95299e-06
-2.82338e-06
1.87354e-06
-3.17757e-06
1.72129e-06
-3.48547e-06
1.50518e-06
-3.73736e-06
1.2351e-06
-3.92545e-06
9.21569e-07
-4.04389e-06
5.75614e-07
-4.08884e-06
2.08672e-07
-4.05846e-06
-1.67386e-07
-3.95306e-06
-5.40243e-07
-3.77512e-06
-8.97152e-07
-3.52947e-06
-1.22503e-06
-3.22335e-06
-1.51064e-06
-2.86651e-06
-1.74098e-06
-2.47119e-06
-1.90376e-06
-2.05201e-06
-1.98814e-06
-1.62574e-06
-1.98557e-06
-1.2109e-06
-1.89084e-06
-8.27148e-07
-1.70316e-06
-4.94664e-07
-1.42728e-06
-2.33408e-07
-1.07435e-06
-6.25332e-08
-6.62557e-07
-2.19072e-07
-7.37584e-08
3.05191e-07
-2.70481e-07
8.79347e-07
-5.65691e-07
1.38469e-06
-9.35402e-07
1.79969e-06
-1.35653e-06
2.1121e-06
-1.80729e-06
2.31635e-06
-2.26749e-06
2.41234e-06
-2.71885e-06
2.40435e-06
-3.14511e-06
2.29979e-06
-3.53213e-06
2.1083e-06
-3.86788e-06
1.84093e-06
-4.14242e-06
1.50964e-06
-4.34783e-06
1.12698e-06
-4.47816e-06
7.05945e-07
-4.52942e-06
2.59925e-07
-4.49957e-06
-1.97231e-07
-4.38866e-06
-6.51155e-07
-4.19889e-06
-1.08692e-06
-3.93481e-06
-1.48911e-06
-3.6035e-06
-1.84195e-06
-3.21475e-06
-2.12973e-06
-2.78117e-06
-2.33735e-06
-2.31818e-06
-2.45112e-06
-1.84395e-06
-2.4598e-06
-1.37901e-06
-2.35578e-06
-9.45747e-07
-2.13643e-06
-5.67702e-07
-1.80533e-06
-2.6873e-07
-1.37332e-06
-7.2168e-08
-8.59119e-07
-2.9124e-07
-8.29917e-08
3.88182e-07
-3.03684e-07
1.10004e-06
-6.33507e-07
1.71451e-06
-1.04452e-06
2.21071e-06
-1.51018e-06
2.57776e-06
-2.00585e-06
2.81202e-06
-2.50923e-06
2.91572e-06
-3.00052e-06
2.89564e-06
-3.46254e-06
2.76182e-06
-3.88067e-06
2.52642e-06
-4.24267e-06
2.20294e-06
-4.53861e-06
1.80557e-06
-4.76061e-06
1.34898e-06
-4.90274e-06
8.48073e-07
-4.96093e-06
3.18118e-07
-4.93296e-06
-2.25199e-07
-4.81852e-06
-7.65592e-07
-4.61938e-06
-1.28607e-06
-4.33958e-06
-1.7689e-06
-3.98578e-06
-2.19575e-06
-3.5675e-06
-2.548e-06
-3.09745e-06
-2.8074e-06
-2.59169e-06
-2.95689e-06
-2.06963e-06
-2.98186e-06
-1.55387e-06
-2.87154e-06
-1.0697e-06
-2.62059e-06
-6.4434e-07
-2.23069e-06
-3.05918e-07
-1.71174e-06
-8.23496e-08
-1.08269e-06
-3.73589e-07
-9.25257e-08
4.80708e-07
-3.37763e-07
1.34528e-06
-7.0275e-07
2.0795e-06
-1.15533e-06
2.66328e-06
-1.66526e-06
3.08769e-06
-2.20497e-06
3.35174e-06
-2.75e-06
3.46075e-06
-3.27918e-06
3.42482e-06
-3.77457e-06
3.25721e-06
-4.22129e-06
2.97314e-06
-4.6072e-06
2.58885e-06
-4.92262e-06
2.12099e-06
-5.15994e-06
1.5863e-06
-5.31345e-06
1.00158e-06
-5.37911e-06
3.83776e-07
-5.3545e-06
-2.49803e-07
-5.23891e-06
-8.81187e-07
-5.03346e-06
-1.49152e-06
-4.74147e-06
-2.0609e-06
-4.3688e-06
-2.56842e-06
-3.92438e-06
-2.99243e-06
-3.42063e-06
-3.31114e-06
-2.8739e-06
-3.50361e-06
-2.3047e-06
-3.55106e-06
-1.73764e-06
-3.4386e-06
-1.20105e-06
-3.15718e-06
-7.26162e-07
-2.70558e-06
-3.45913e-07
-2.09199e-06
-9.33963e-08
-1.3352e-06
-4.66986e-07
-1.02541e-07
5.83249e-07
-3.73244e-07
1.61598e-06
-7.74245e-07
2.4805e-06
-1.26873e-06
3.15777e-06
-1.82246e-06
3.64143e-06
-2.4048e-06
3.93407e-06
-2.98913e-06
4.04508e-06
-3.55307e-06
3.98875e-06
-4.07821e-06
3.78235e-06
-4.54977e-06
3.4447e-06
-4.95606e-06
2.99514e-06
-5.28798e-06
2.45291e-06
-5.53854e-06
1.83686e-06
-5.70245e-06
1.16549e-06
-5.77585e-06
4.5718e-07
-5.7562e-06
-2.69456e-07
-5.64227e-06
-9.95114e-07
-5.4344e-06
-1.69939e-06
-5.13483e-06
-2.36047e-06
-4.74827e-06
-2.95498e-06
-4.28254e-06
-3.45815e-06
-3.74932e-06
-3.84437e-06
-3.16477e-06
-4.08816e-06
-2.55013e-06
-4.1657e-06
-1.93188e-06
-4.05686e-06
-1.34149e-06
-3.74757e-06
-8.14607e-07
-3.23246e-06
-3.896e-07
-2.517e-06
-1.05609e-07
-1.61919e-06
-5.72595e-07
-1.13218e-07
6.96466e-07
-4.10644e-07
1.91341e-06
-8.48764e-07
2.91862e-06
-1.38546e-06
3.69446e-06
-1.98209e-06
4.23806e-06
-2.60474e-06
4.55672e-06
-3.22477e-06
4.66511e-06
-3.8188e-06
4.58279e-06
-4.36839e-06
4.33193e-06
-4.85928e-06
3.9356e-06
-5.28075e-06
3.4166e-06
-5.62474e-06
2.7969e-06
-5.88525e-06
2.09737e-06
-6.05774e-06
1.33799e-06
-6.13875e-06
5.38187e-07
-6.12566e-06
-2.82547e-07
-6.01672e-06
-1.10406e-06
-5.81125e-06
-1.90486e-06
-5.51012e-06
-2.6616e-06
-5.11638e-06
-3.34872e-06
-4.63617e-06
-3.93836e-06
-4.07973e-06
-4.40081e-06
-3.46241e-06
-4.70547e-06
-2.80564e-06
-4.82248e-06
-2.13742e-06
-4.72508e-06
-1.49238e-06
-4.39261e-06
-9.10973e-07
-3.81386e-06
-4.37833e-07
-2.99014e-06
-1.19288e-07
-1.93774e-06
-6.91883e-07
-1.24767e-07
8.21233e-07
-4.50552e-07
2.23919e-06
-9.2712e-07
3.39518e-06
-1.50616e-06
4.2735e-06
-2.14406e-06
4.87596e-06
-2.80345e-06
5.21611e-06
-3.45378e-06
5.31544e-06
-4.07115e-06
5.20016e-06
-4.63757e-06
4.89835e-06
-5.14001e-06
4.43804e-06
-5.56927e-06
3.84587e-06
-5.91897e-06
3.1466e-06
-6.18459e-06
2.36299e-06
-6.36271e-06
1.51611e-06
-6.45054e-06
6.26011e-07
-6.44553e-06
-2.87557e-07
-6.34538e-06
-1.2042e-06
-6.14824e-06
-2.102e-06
-5.8532e-06
-2.95664e-06
-5.46113e-06
-3.74079e-06
-4.97577e-06
-4.42372e-06
-4.40507e-06
-4.97152e-06
-3.76268e-06
-5.34786e-06
-3.06938e-06
-5.51578e-06
-2.35416e-06
-5.4403e-06
-1.65462e-06
-5.09215e-06
-1.01644e-06
-4.45205e-06
-4.91475e-07
-3.5151e-06
-1.34753e-07
-2.29446e-06
-8.26636e-07
-1.37466e-07
9.58698e-07
-4.93719e-07
2.59544e-06
-1.0103e-06
3.91177e-06
-1.63147e-06
4.89467e-06
-2.30792e-06
5.55241e-06
-2.99867e-06
5.90685e-06
-3.67154e-06
5.98831e-06
-4.30268e-06
5.8313e-06
-4.87539e-06
5.47106e-06
-5.37864e-06
4.94129e-06
-5.80562e-06
4.27285e-06
-6.15228e-06
3.49326e-06
-6.41617e-06
2.62688e-06
-6.59552e-06
1.69546e-06
-6.6885e-06
7.18986e-07
-6.69284e-06
-2.83215e-07
-6.60572e-06
-1.29132e-06
-6.42396e-06
-2.28376e-06
-6.14453e-06
-3.23607e-06
-5.76551e-06
-4.11981e-06
-5.2874e-06
-4.90183e-06
-4.71482e-06
-5.54409e-06
-4.05855e-06
-6.00414e-06
-3.33755e-06
-6.23678e-06
-2.58085e-06
-6.197e-06
-1.82865e-06
-5.84435e-06
-1.13209e-06
-5.14861e-06
-5.51455e-07
-4.09573e-06
-1.52375e-07
-2.69354e-06
-9.79011e-07
-1.51719e-07
1.11042e-06
-5.41208e-07
2.98493e-06
-1.09965e-06
4.4702e-06
-1.76217e-06
5.55719e-06
-2.47289e-06
6.26313e-06
-3.1871e-06
6.62106e-06
-3.87154e-06
6.67275e-06
-4.50331e-06
6.46307e-06
-5.06803e-06
6.03579e-06
-5.5578e-06
5.43105e-06
-5.9691e-06
4.68415e-06
-6.3011e-06
3.82526e-06
-6.55412e-06
2.8799e-06
-6.7285e-06
1.86985e-06
-6.82382e-06
8.14305e-07
-6.83833e-06
-2.68704e-07
-6.76879e-06
-1.36086e-06
-6.61058e-06
-2.44197e-06
-6.35825e-06
-3.4884e-06
-6.0065e-06
-4.47156e-06
-5.55166e-06
-5.35667e-06
-4.9938e-06
-6.10195e-06
-4.33929e-06
-6.65864e-06
-3.60373e-06
-6.97234e-06
-2.81476e-06
-6.98596e-06
-2.01427e-06
-6.64485e-06
-1.25898e-06
-5.9039e-06
-6.1886e-07
-4.73585e-06
-1.72617e-07
-3.13978e-06
-1.15163e-06
-1.68143e-07
1.27856e-06
-5.94581e-07
3.41137e-06
-1.19703e-06
5.07266e-06
-1.89922e-06
6.25938e-06
-2.63764e-06
7.00155e-06
-3.36398e-06
7.3474e-06
-4.0448e-06
7.35358e-06
-4.65948e-06
7.07774e-06
-5.19741e-06
6.57371e-06
-5.6551e-06
5.88875e-06
-6.03356e-06
5.06261e-06
-6.33604e-06
4.12774e-06
-6.56636e-06
3.11022e-06
-6.72758e-06
2.03106e-06
-6.82106e-06
9.07784e-07
-6.84588e-06
-2.43886e-07
-6.79854e-06
-1.4082e-06
-6.67303e-06
-2.56748e-06
-6.46125e-06
-3.70018e-06
-6.15398e-06
-4.77883e-06
-5.74249e-06
-5.76816e-06
-5.22093e-06
-6.62351e-06
-4.58945e-06
-7.29013e-06
-3.85812e-06
-7.70367e-06
-3.05114e-06
-7.79295e-06
-2.21051e-06
-7.48547e-06
-1.39817e-06
-6.71624e-06
-6.9506e-07
-5.43896e-06
-1.96112e-07
-3.63873e-06
-1.34774e-06
-1.87698e-07
1.46626e-06
-6.56176e-07
3.87985e-06
-1.30513e-06
5.72161e-06
-2.0438e-06
6.99805e-06
-2.79999e-06
7.75774e-06
-3.52237e-06
8.06978e-06
-4.17884e-06
8.01005e-06
-4.75299e-06
7.65189e-06
-5.23988e-06
7.0606e-06
-5.64207e-06
6.29094e-06
-5.96632e-06
5.38686e-06
-6.22098e-06
4.3824e-06
-6.41402e-06
3.30327e-06
-6.55172e-06
2.16876e-06
-6.63763e-06
9.93698e-07
-6.67198e-06
-2.09534e-07
-6.65129e-06
-1.42889e-06
-6.56827e-06
-2.6505e-06
-6.41217e-06
-3.85628e-06
-6.16954e-06
-5.02146e-06
-5.82581e-06
-6.11189e-06
-5.36776e-06
-7.08156e-06
-4.78728e-06
-7.87061e-06
-4.08624e-06
-8.40471e-06
-3.28237e-06
-8.59681e-06
-2.41525e-06
-8.3526e-06
-1.55074e-06
-7.58074e-06
-7.81896e-07
-6.20781e-06
-2.23772e-07
-4.19685e-06
-1.57151e-06
-2.11905e-07
1.67816e-06
-7.29482e-07
4.39743e-06
-1.4276e-06
6.41973e-06
-2.19701e-06
7.76746e-06
-2.95601e-06
8.51674e-06
-3.6517e-06
8.76547e-06
-4.25588e-06
8.61423e-06
-4.75909e-06
8.1551e-06
-5.16446e-06
7.46597e-06
-5.48247e-06
6.60895e-06
-5.72695e-06
5.63134e-06
-5.91214e-06
4.56758e-06
-6.05073e-06
3.44186e-06
-6.15255e-06
2.27058e-06
-6.22363e-06
1.06478e-06
-6.26564e-06
-1.67528e-07
-6.27543e-06
-1.41911e-06
-6.24482e-06
-2.68111e-06
-6.16065e-06
-3.94045e-06
-6.00526e-06
-5.17685e-06
-5.75777e-06
-6.35938e-06
-5.39646e-06
-7.44287e-06
-4.90274e-06
-8.36433e-06
-4.26703e-06
-9.04042e-06
-3.49659e-06
-9.36726e-06
-2.62447e-06
-9.22472e-06
-1.71776e-06
-8.48745e-06
-8.81956e-07
-7.04362e-06
-2.56995e-07
-4.82182e-06
-1.82851e-06
-2.43212e-07
1.92138e-06
-8.1966e-07
4.97388e-06
-1.56916e-06
7.16923e-06
-2.35903e-06
8.55733e-06
-3.09822e-06
9.25593e-06
-3.73527e-06
9.40252e-06
-4.24997e-06
9.12893e-06
-4.64357e-06
8.54871e-06
-4.93021e-06
7.7526e-06
-5.13023e-06
6.80898e-06
-5.26564e-06
5.76675e-06
-5.35711e-06
4.65905e-06
-5.42219e-06
3.50695e-06
-5.47429e-06
2.32268e-06
-5.52199e-06
1.11248e-06
-5.56858e-06
-1.20936e-07
-5.61165e-06
-1.37604e-06
-5.64267e-06
-2.65008e-06
-5.64674e-06
-3.93639e-06
-5.60255e-06
-5.22104e-06
-5.48306e-06
-6.47887e-06
-5.25738e-06
-7.66854e-06
-4.89456e-06
-8.72715e-06
-4.37003e-06
-9.56496e-06
-3.67534e-06
-1.00619e-05
-2.83095e-06
-1.00691e-05
-1.89998e-06
-9.41842e-06
-9.98958e-07
-7.94464e-06
-2.9801e-07
-5.52276e-06
-2.12652e-06
-2.85616e-07
2.20699e-06
-9.34198e-07
5.62246e-06
-1.73517e-06
7.97021e-06
-2.52715e-06
9.34931e-06
-3.21209e-06
9.94086e-06
-3.74583e-06
9.93627e-06
-4.1223e-06
9.50539e-06
-4.35844e-06
8.78484e-06
-4.4826e-06
7.87677e-06
-4.52671e-06
6.85309e-06
-4.52148e-06
5.76152e-06
-4.49389e-06
4.63146e-06
-4.46592e-06
3.47898e-06
-4.45409e-06
2.31085e-06
-4.46922e-06
1.12761e-06
-4.51624e-06
-7.39192e-08
-4.59384e-06
-1.29844e-06
-4.69394e-06
-2.54998e-06
-4.801e-06
-3.82933e-06
-4.89134e-06
-5.1307e-06
-4.93292e-06
-6.43729e-06
-4.88607e-06
-7.71539e-06
-4.7064e-06
-8.90682e-06
-4.35102e-06
-9.92033e-06
-3.78968e-06
-1.06233e-05
-3.02157e-06
-1.08372e-05
-2.09689e-06
-1.03431e-05
-1.13819e-06
-8.90334e-06
-3.50496e-07
-6.31046e-06
-2.47701e-06
-3.45733e-07
2.55272e-06
-1.08355e-06
6.36027e-06
-1.93001e-06
8.81668e-06
-2.69128e-06
1.01106e-05
-3.26952e-06
1.05191e-05
-3.63815e-06
1.03049e-05
-3.81407e-06
9.68131e-06
-3.83576e-06
8.80653e-06
-3.74878e-06
7.78978e-06
-3.59739e-06
6.7017e-06
-3.42052e-06
5.58464e-06
-3.25023e-06
4.46117e-06
-3.11161e-06
3.34036e-06
-3.02313e-06
2.22236e-06
-2.99703e-06
1.10151e-06
-3.03961e-06
-3.13465e-08
-3.15096e-06
-1.18709e-06
-3.3244e-06
-2.37654e-06
-3.54537e-06
-3.60836e-06
-3.78999e-06
-4.88608e-06
-4.02358e-06
-6.2037e-06
-4.1998e-06
-7.53917e-06
-4.26154e-06
-8.84509e-06
-4.14555e-06
-1.00363e-05
-3.79349e-06
-1.09753e-05
-3.17216e-06
-1.14585e-05
-2.30436e-06
-1.12109e-05
-1.30676e-06
-9.90094e-06
-4.20621e-07
-7.1966e-06
-2.89764e-06
-4.34563e-07
2.98729e-06
-1.28107e-06
7.20678e-06
-2.15222e-06
9.68783e-06
-2.82453e-06
1.07829e-05
-3.2169e-06
1.09115e-05
-3.33687e-06
1.04249e-05
-3.23576e-06
9.5802e-06
-2.97934e-06
8.55011e-06
-2.63179e-06
7.44224e-06
-2.24856e-06
6.31848e-06
-1.87439e-06
5.21047e-06
-1.54377e-06
4.13055e-06
-1.2824e-06
3.07899e-06
-1.1087e-06
2.04866e-06
-1.035e-06
1.02782e-06
-1.06828e-06
1.9311e-09
-1.21019e-06
-1.04518e-06
-1.45647e-06
-2.13026e-06
-1.79551e-06
-3.26931e-06
-2.20627e-06
-4.47532e-06
-2.65536e-06
-5.75461e-06
-3.09408e-06
-7.10045e-06
-3.45629e-06
-8.48288e-06
-3.65941e-06
-9.8332e-06
-3.61258e-06
-1.10222e-05
-3.23758e-06
-1.18335e-05
-2.50863e-06
-1.19399e-05
-1.51282e-06
-1.08968e-05
-5.18713e-07
-8.1907e-06
-3.41635e-06
-5.70052e-07
3.55734e-06
-1.54005e-06
8.17678e-06
-2.38213e-06
1.05299e-05
-2.86418e-06
1.12649e-05
-2.95415e-06
1.10014e-05
-2.71761e-06
1.01883e-05
-2.25239e-06
9.11498e-06
-1.65457e-06
7.9523e-06
-1.00466e-06
6.79232e-06
-3.6471e-07
5.67853e-06
2.19733e-07
4.62603e-06
7.16275e-07
3.63401e-06
1.10228e-06
2.69299e-06
1.36213e-06
1.78881e-06
1.48527e-06
9.04681e-07
1.46504e-06
2.21559e-08
1.29837e-06
-8.78505e-07
9.86225e-07
-1.81812e-06
5.35115e-07
-2.8182e-06
-4.03021e-08
-3.8999e-06
-7.13278e-07
-5.08163e-06
-1.43972e-06
-6.37401e-06
-2.15224e-06
-7.77036e-06
-2.75542e-06
-9.23002e-06
-3.12693e-06
-1.06507e-05
-3.13312e-06
-1.18274e-05
-2.67251e-06
-1.24005e-05
-1.76099e-06
-1.18083e-05
-6.61411e-07
-9.29028e-06
-4.07776e-06
-7.7876e-07
4.3361e-06
-1.86053e-06
9.25855e-06
-2.55179e-06
1.12212e-05
-2.67412e-06
1.13873e-05
-2.29955e-06
1.06269e-05
-1.57955e-06
9.46833e-06
-6.65291e-07
8.20072e-06
3.21618e-07
6.96539e-06
1.29348e-06
5.82046e-06
2.19109e-06
4.78092e-06
2.97617e-06
3.84095e-06
3.62463e-06
2.98555e-06
4.12142e-06
2.1962e-06
4.45685e-06
1.45337e-06
4.62424e-06
7.37294e-07
4.61846e-06
2.79333e-08
4.43542e-06
-6.95466e-07
4.0723e-06
-1.455e-06
3.52881e-06
-2.2747e-06
2.80971e-06
-3.1808e-06
1.92917e-06
-4.2011e-06
9.17564e-07
-5.3624e-06
-1.68966e-07
-6.68383e-06
-1.23666e-06
-8.16232e-06
-2.14361e-06
-9.74371e-06
-2.70061e-06
-1.12703e-05
-2.70435e-06
-1.23967e-05
-2.03616e-06
-1.24765e-05
-8.7185e-07
-1.04546e-05
-4.94961e-06
-1.08671e-06
5.42281e-06
-2.18365e-06
1.03555e-05
-2.47505e-06
1.15126e-05
-1.97523e-06
1.08874e-05
-9.35623e-07
9.58726e-06
3.89065e-07
8.14364e-06
1.80533e-06
6.78446e-06
3.18584e-06
5.58487e-06
4.4547e-06
4.5516e-06
5.57031e-06
3.66531e-06
6.51202e-06
2.89925e-06
7.27084e-06
2.22673e-06
7.84359e-06
1.62345e-06
8.22922e-06
1.06775e-06
8.42657e-06
5.39945e-07
8.43315e-06
2.13497e-08
8.24452e-06
-5.06837e-07
7.85424e-06
-1.06472e-06
7.25452e-06
-1.67499e-06
6.43805e-06
-2.36433e-06
5.40149e-06
-3.16454e-06
4.15211e-06
-4.11301e-06
2.71901e-06
-5.25073e-06
1.17094e-06
-6.61425e-06
-3.59291e-07
-8.21348e-06
-1.65039e-06
-9.97925e-06
-2.39107e-06
-1.16561e-05
-2.25332e-06
-1.26142e-05
-1.16625e-06
-1.15417e-05
-6.11586e-06
-1.46922e-06
6.89204e-06
-2.26053e-06
1.11468e-05
-1.69725e-06
1.09493e-05
-2.26692e-07
9.41689e-06
1.66303e-06
7.69754e-06
3.64308e-06
6.1636e-06
5.52553e-06
4.90201e-06
7.21835e-06
3.89205e-06
8.68567e-06
3.08429e-06
9.92069e-06
2.43028e-06
1.09298e-05
1.89012e-06
1.1724e-05
1.4326e-06
1.23139e-05
1.03349e-06
1.27081e-05
6.73534e-07
1.29115e-05
3.36611e-07
1.29245e-05
8.28685e-09
1.27433e-05
-3.25579e-07
1.23586e-05
-6.80097e-07
1.17565e-05
-1.07288e-06
1.0918e-05
-1.52583e-06
9.82096e-06
-2.06747e-06
8.44377e-06
-2.73582e-06
6.77444e-06
-3.5814e-06
4.82864e-06
-4.66845e-06
2.68323e-06
-6.06807e-06
5.29021e-07
-7.82504e-06
-1.26606e-06
-9.86097e-06
-2.12776e-06
-1.17525e-05
-1.49581e-06
-1.21736e-05
-7.61167e-06
-1.68447e-06
8.57651e-06
-1.3204e-06
1.07827e-05
8.00168e-07
8.82872e-06
3.55092e-06
6.66614e-06
6.3011e-06
4.94736e-06
8.78519e-06
3.67951e-06
1.09197e-05
2.76755e-06
1.27038e-05
2.10791e-06
1.41685e-05
1.61957e-06
1.5352e-05
1.24679e-06
1.62896e-05
9.52466e-07
1.70106e-05
7.11625e-07
1.75371e-05
5.06975e-07
1.78847e-05
3.2595e-07
1.80626e-05
1.58764e-07
1.80738e-05
-2.92373e-09
1.79153e-05
-1.67084e-07
1.75774e-05
-3.42203e-07
1.70429e-05
-5.38438e-07
1.62861e-05
-7.69029e-07
1.52712e-05
-1.0525e-06
1.39514e-05
-1.41609e-06
1.22713e-05
-1.90124e-06
1.01747e-05
-2.57188e-06
7.6312e-06
-3.52457e-06
4.69614e-06
-4.88998e-06
1.63259e-06
-6.79742e-06
-8.75476e-07
-9.24445e-06
-1.57637e-06
-1.14727e-05
-9.18804e-06
-4.83323e-07
9.05983e-06
2.87258e-06
7.42682e-06
7.14142e-06
4.55987e-06
1.09523e-05
2.85525e-06
1.40423e-05
1.85732e-06
1.64703e-05
1.25154e-06
1.83622e-05
8.75647e-07
1.98364e-05
6.33695e-07
2.09863e-05
4.69736e-07
2.18807e-05
3.52388e-07
2.25692e-05
2.63919e-07
2.3087e-05
1.93884e-07
2.34582e-05
1.3577e-07
2.36989e-05
8.52231e-08
2.38186e-05
3.90587e-08
2.3821e-05
-5.3241e-09
2.37043e-05
-5.03381e-08
2.34606e-05
-9.85692e-08
2.30753e-05
-1.5316e-07
2.25247e-05
-2.18389e-07
2.17728e-05
-3.00632e-07
2.07669e-05
-4.10143e-07
1.94302e-05
-5.64542e-07
1.76541e-05
-7.95743e-07
1.52925e-05
-1.16301e-06
1.21774e-05
-1.77484e-06
8.20465e-06
-2.82471e-06
3.62215e-06
-4.66195e-06
-1.50281e-07
-7.70029e-06
-9.33832e-06
9.05983e-06
1.64867e-05
2.10465e-05
2.39018e-05
2.57591e-05
2.70106e-05
2.78863e-05
2.852e-05
2.89897e-05
2.93421e-05
2.9606e-05
2.97999e-05
2.99357e-05
3.00209e-05
3.006e-05
3.00546e-05
3.00043e-05
2.99057e-05
2.97526e-05
2.95342e-05
2.92335e-05
2.88234e-05
2.82589e-05
2.74631e-05
2.63001e-05
2.45253e-05
2.17006e-05
1.70386e-05
9.33832e-06
)
;

boundaryField
{
    movingWall
    {
        type            calculated;
        value           uniform 0;
    }
    fixedWalls
    {
        type            calculated;
        value           uniform 0;
    }
    frontAndBack
    {
        type            empty;
        value           nonuniform List<scalar> 0();
    }
}


// ************************************************************************* //
