/*--------------------------------*- C++ -*----------------------------------*\
  =========                 |
  \\      /  F ield         | OpenFOAM: The Open Source CFD Toolbox
   \\    /   O peration     | Website:  https://openfoam.org
    \\  /    A nd           | Version:  9
     \\/     M anipulation  |
\*---------------------------------------------------------------------------*/
FoamFile
{
    format      ascii;
    class       volVectorField;
    location    "0.3";
    object      U;
}
// * * * * * * * * * * * * * * * * * * * * * * * * * * * * * * * * * * * * * //

dimensions      [0 1 -1 0 0 0 0];

internalField   nonuniform List<vector> 
900
(
(0.000121363 -0.000120736 0)
(0.000236993 -6.26164e-05 0)
(4.11803e-05 7.57072e-05 0)
(-0.000518243 0.000210049 0)
(-0.00140163 0.000317601 0)
(-0.0025322 0.000393122 0)
(-0.00382527 0.000437319 0)
(-0.00519853 0.000453137 0)
(-0.00657615 0.00044409 0)
(-0.00789039 0.000413665 0)
(-0.00908231 0.000365175 0)
(-0.0101019 0.00030176 0)
(-0.0109083 0.000226438 0)
(-0.0114695 0.000142184 0)
(-0.0117631 5.20197e-05 0)
(-0.0117761 -4.09133e-05 0)
(-0.0115057 -0.000133287 0)
(-0.0109597 -0.000221555 0)
(-0.010157 -0.000301948 0)
(-0.00912796 -0.000370509 0)
(-0.00791486 -0.000423171 0)
(-0.0065714 -0.000455862 0)
(-0.0051623 -0.000464646 0)
(-0.00376197 -0.0004459 0)
(-0.00245251 -0.000396587 0)
(-0.00132043 -0.000314899 0)
(-0.000451038 -0.000201856 0)
(8.30106e-05 -6.48657e-05 0)
(0.000252267 7.11294e-05 0)
(0.000123067 0.000122095 0)
(6.9275e-05 -0.000240973 0)
(-0.00013864 0.000149462 0)
(-0.00109476 0.000800073 0)
(-0.00283296 0.00144031 0)
(-0.00526965 0.00197141 0)
(-0.00825669 0.00235623 0)
(-0.0116136 0.00258588 0)
(-0.0151522 0.00266586 0)
(-0.018691 0.00260841 0)
(-0.022063 0.00242877 0)
(-0.0251193 0.00214354 0)
(-0.0277323 0.00176993 0)
(-0.0297965 0.0013255 0)
(-0.0312301 0.00082819 0)
(-0.0319754 0.000296521 0)
(-0.0320004 -0.000250234 0)
(-0.0312992 -0.000791883 0)
(-0.0298937 -0.00130728 0)
(-0.027834 -0.00177447 0)
(-0.0251993 -0.002171 0)
(-0.0220976 -0.00247454 0)
(-0.0186645 -0.00266372 0)
(-0.0150604 -0.00271922 0)
(-0.011466 -0.00262535 0)
(-0.00807537 -0.00237219 0)
(-0.00508495 -0.00195941 0)
(-0.00267658 -0.00140346 0)
(-0.000990857 -0.000750348 0)
(-9.28393e-05 -0.000106895 0)
(7.84941e-05 0.000255494 0)
(-6.15677e-05 -6.21944e-05 0)
(-0.000779002 0.00109807 0)
(-0.00266464 0.00266576 0)
(-0.00563329 0.00419094 0)
(-0.00953554 0.00546887 0)
(-0.0141717 0.00640391 0)
(-0.0192967 0.00696181 0)
(-0.0246498 0.00714472 0)
(-0.0299747 0.00697523 0)
(-0.0350319 0.00648718 0)
(-0.0396061 0.00572076 0)
(-0.0435107 0.00471974 0)
(-0.0465912 0.00353024 0)
(-0.0487273 0.00220029 0)
(-0.0498349 0.000779812 0)
(-0.0498672 -0.000679187 0)
(-0.0488168 -0.00212247 0)
(-0.0467168 -0.00349373 0)
(-0.0436417 -0.00473509 0)
(-0.0397082 -0.00578822 0)
(-0.0350741 -0.00659607 0)
(-0.0299356 -0.0071053 0)
(-0.0245235 -0.00726964 0)
(-0.019095 -0.00705429 0)
(-0.0139228 -0.00644197 0)
(-0.00927921 -0.00544221 0)
(-0.00541218 -0.00410616 0)
(-0.00251319 -0.0025488 0)
(-0.000708563 -0.000992187 0)
(-4.60313e-05 0.000107797 0)
(-0.000194711 0.000477976 0)
(-0.00145271 0.00285547 0)
(-0.00431876 0.00565604 0)
(-0.00853447 0.00830787 0)
(-0.0138573 0.0105144 0)
(-0.0200318 0.0121214 0)
(-0.0267571 0.0130658 0)
(-0.033715 0.0133443 0)
(-0.0405928 0.0129901 0)
(-0.0470972 0.0120592 0)
(-0.052963 0.0106211 0)
(-0.0579598 0.00875389 0)
(-0.0618963 0.00654139 0)
(-0.0646237 0.00407166 0)
(-0.0660373 0.00143675 0)
(-0.0660798 -0.00126738 0)
(-0.0647419 -0.00394092 0)
(-0.062065 -0.00648068 0)
(-0.0581414 -0.00878125 0)
(-0.0531152 -0.0107372 0)
(-0.0471809 -0.0122462 0)
(-0.0405798 -0.0132141 0)
(-0.0335949 -0.0135608 0)
(-0.0265405 -0.0132284 0)
(-0.0197499 -0.012192 0)
(-0.0135567 -0.0104743 0)
(-0.00826742 -0.0081661 0)
(-0.00413046 -0.00545419 0)
(-0.00136214 -0.00266535 0)
(-0.000173873 -0.000388202 0)
(-0.00031441 0.00137163 0)
(-0.00209564 0.00542339 0)
(-0.00593678 0.00975605 0)
(-0.0113885 0.013732 0)
(-0.0180975 0.0169912 0)
(-0.0257436 0.019335 0)
(-0.0339692 0.0206779 0)
(-0.0424044 0.0210138 0)
(-0.0506898 0.0203899 0)
(-0.0584895 0.0188873 0)
(-0.0655006 0.0166097 0)
(-0.0714598 0.0136749 0)
(-0.0761487 0.0102106 0)
(-0.0793969 0.00635187 0)
(-0.0810848 0.00224017 0)
(-0.0811462 -0.00197695 0)
(-0.07957 -0.00614623 0)
(-0.0764023 -0.0101096 0)
(-0.0717475 -0.0137061 0)
(-0.0657686 -0.0167752 0)
(-0.0586865 -0.0191621 0)
(-0.0507761 -0.0207248 0)
(-0.0423601 -0.0213436 0)
(-0.0337995 -0.0209331 0)
(-0.025479 -0.0194576 0)
(-0.0177895 -0.0169496 0)
(-0.011099 -0.013535 0)
(-0.00572368 -0.00946072 0)
(-0.00198894 -0.00513435 0)
(-0.000288761 -0.00122725 0)
(-0.000420374 0.00259039 0)
(-0.0026962 0.0087762 0)
(-0.00748579 0.0149506 0)
(-0.0141499 0.0204481 0)
(-0.0222165 0.0248725 0)
(-0.0312917 0.027999 0)
(-0.0409578 0.0297314 0)
(-0.0507936 0.0300694 0)
(-0.0603974 0.0290796 0)
(-0.069398 0.026874 0)
(-0.0774622 0.023595 0)
(-0.0843022 0.0194051 0)
(-0.0896793 0.014481 0)
(-0.0934074 0.00900967 0)
(-0.0953555 0.0031873 0)
(-0.0954503 -0.00278171 0)
(-0.0936776 -0.00868522 0)
(-0.0900852 -0.0143046 0)
(-0.084784 -0.0194173 0)
(-0.0779492 -0.0238015 0)
(-0.0698195 -0.027243 0)
(-0.0606949 -0.0295455 0)
(-0.0509304 -0.0305427 0)
(-0.0409273 -0.0301151 0)
(-0.0311193 -0.0282085 0)
(-0.0219559 -0.0248576 0)
(-0.0138731 -0.0202124 0)
(-0.00726588 -0.0145648 0)
(-0.00257918 -0.00838053 0)
(-0.000390534 -0.00238296 0)
(-0.000516265 0.00410886 0)
(-0.00326165 0.0128812 0)
(-0.0089719 0.0212134 0)
(-0.016825 0.0284338 0)
(-0.0262267 0.0341332 0)
(-0.0367039 0.0380794 0)
(-0.0477738 0.040181 0)
(-0.0589634 0.0404546 0)
(-0.0698304 0.0389954 0)
(-0.079972 0.0359533 0)
(-0.0890308 0.0315151 0)
(-0.0967001 0.0258931 0)
(-0.102727 0.0193168 0)
(-0.106913 0.0120292 0)
(-0.10912 0.00428408 0)
(-0.109267 -0.003654 0)
(-0.107337 -0.0115107 0)
(-0.103376 -0.0190029 0)
(-0.0974953 -0.0258423 0)
(-0.0898764 -0.0317405 0)
(-0.0807693 -0.0364177 0)
(-0.070492 -0.0396156 0)
(-0.0594266 -0.0411132 0)
(-0.0480114 -0.0407466 0)
(-0.0367293 -0.0384329 0)
(-0.0260925 -0.0341966 0)
(-0.0166126 -0.0281977 0)
(-0.00877257 -0.0207573 0)
(-0.00314374 -0.0123823 0)
(-0.000483471 -0.00383342 0)
(-0.000606425 0.00591008 0)
(-0.0038057 0.0177129 0)
(-0.0104177 0.0285209 0)
(-0.0194437 0.0376689 0)
(-0.0301658 0.0447523 0)
(-0.0420271 0.0495506 0)
(-0.0544767 0.0519933 0)
(-0.0669878 0.0521283 0)
(-0.0790788 0.0500906 0)
(-0.0903185 0.0460768 0)
(-0.10033 0.0403254 0)
(-0.108792 0.033103 0)
(-0.115442 0.0246958 0)
(-0.120076 0.0154046 0)
(-0.122548 0.00554299 0)
(-0.122772 -0.00456337 0)
(-0.120725 -0.0145764 0)
(-0.116448 -0.024147 0)
(-0.110049 -0.0329178 0)
(-0.101709 -0.0405292 0)
(-0.0916825 -0.0466299 0)
(-0.0802997 -0.0508913 0)
(-0.0679648 -0.0530267 0)
(-0.0551508 -0.0528161 0)
(-0.0423913 -0.0501331 0)
(-0.0302653 -0.0449765 0)
(-0.0193677 -0.0375004 0)
(-0.0102783 -0.0280399 0)
(-0.00370114 -0.0171305 0)
(-0.00057283 -0.00556741 0)
(-0.00069468 0.00798593 0)
(-0.00434257 0.0232581 0)
(-0.0118501 0.0368611 0)
(-0.0220434 0.0481424 0)
(-0.0340786 0.0567174 0)
(-0.0473116 0.062395 0)
(-0.0611203 0.0651437 0)
(-0.0749237 0.0650586 0)
(-0.0882019 0.0623281 0)
(-0.100499 0.0572062 0)
(-0.111422 0.0499905 0)
(-0.120643 0.0410075 0)
(-0.127894 0.0306028 0)
(-0.132967 0.0191365 0)
(-0.135713 0.00698138 0)
(-0.136042 -0.00547597 0)
(-0.133922 -0.0178347 0)
(-0.129386 -0.0296792 0)
(-0.122535 -0.0405816 0)
(-0.113541 -0.0501081 0)
(-0.102657 -0.057829 0)
(-0.0902176 -0.0633362 0)
(-0.0766436 -0.0662652 0)
(-0.0624405 -0.0663238 0)
(-0.0481924 -0.063325 0)
(-0.0345499 -0.0572228 0)
(-0.0221983 -0.0481478 0)
(-0.0118236 -0.0364333 0)
(-0.00427133 -0.022635 0)
(-0.000663547 -0.00758534 0)
(-0.000784129 0.010336 0)
(-0.00488507 0.0295168 0)
(-0.013295 0.0462342 0)
(-0.0246605 0.0598525 0)
(-0.0380074 0.0700213 0)
(-0.0526004 0.0765971 0)
(-0.0677439 0.0796068 0)
(-0.0828028 0.079211 0)
(-0.0972217 0.0756672 0)
(-0.110524 0.0692987 0)
(-0.122309 0.0604712 0)
(-0.132244 0.0495762 0)
(-0.140064 0.0370211 0)
(-0.145563 0.0232251 0)
(-0.148591 0.0086187 0)
(-0.149054 -0.00635365 0)
(-0.146912 -0.0212309 0)
(-0.142187 -0.0355332 0)
(-0.134963 -0.0487626 0)
(-0.125399 -0.0604078 0)
(-0.113735 -0.0699553 0)
(-0.100303 -0.0769072 0)
(-0.0855334 -0.0808067 0)
(-0.0699588 -0.081271 0)
(-0.0542125 -0.0780311 0)
(-0.0390201 -0.0709738 0)
(-0.0251648 -0.0601847 0)
(-0.013449 -0.0459796 0)
(-0.00487336 -0.0289256 0)
(-0.000759975 -0.00989855 0)
(-0.000877314 0.0129665 0)
(-0.00544441 0.0365009 0)
(-0.0147754 0.0566518 0)
(-0.0273273 0.0728047 0)
(-0.0419873 0.0846581 0)
(-0.0579238 0.0921366 0)
(-0.0743659 0.0953472 0)
(-0.0906259 0.094537 0)
(-0.106117 0.0900503 0)
(-0.120349 0.0822941 0)
(-0.13292 0.0717115 0)
(-0.143504 0.0587642 0)
(-0.151845 0.043923 0)
(-0.157743 0.0276645 0)
(-0.161054 0.0104732 0)
(-0.161681 -0.00715377 0)
(-0.159577 -0.0247006 0)
(-0.154745 -0.0416278 0)
(-0.147249 -0.0573694 0)
(-0.137224 -0.0713364 0)
(-0.124889 -0.0829258 0)
(-0.110559 -0.0915395 0)
(-0.0946649 -0.096612 0)
(-0.0777574 -0.0976486 0)
(-0.0605157 -0.094272 0)
(-0.0437414 -0.0862748 0)
(-0.0283231 -0.0736718 0)
(-0.0151929 -0.056741 0)
(-0.00552508 -0.0360515 0)
(-0.00086603 -0.0125283 0)
(-0.000976482 0.0158891 0)
(-0.00603079 0.044233 0)
(-0.0163127 0.0681353 0)
(-0.030072 0.0870089 0)
(-0.0460449 0.100619 0)
(-0.0632969 0.108981 0)
(-0.0809803 0.11231 0)
(-0.0983574 0.110962 0)
(-0.114818 0.105391 0)
(-0.129867 0.096102 0)
(-0.143111 0.0836263 0)
(-0.154244 0.0685011 0)
(-0.163026 0.0512606 0)
(-0.169277 0.0324356 0)
(-0.17286 0.0125582 0)
(-0.17368 -0.00782986 0)
(-0.171679 -0.0281665 0)
(-0.166843 -0.04786 0)
(-0.159205 -0.0662822 0)
(-0.148867 -0.0827678 0)
(-0.136011 -0.0966209 0)
(-0.120924 -0.107133 0)
(-0.104018 -0.113611 0)
(-0.0858526 -0.115424 0)
(-0.0671431 -0.112057 0)
(-0.0487664 -0.103172 0)
(-0.0317234 -0.0886807 0)
(-0.0170913 -0.0687979 0)
(-0.00624348 -0.0440801 0)
(-0.000985434 -0.0155052 0)
(-0.00108391 0.019121 0)
(-0.00665451 0.0527458 0)
(-0.0179274 0.0807145 0)
(-0.0329197 0.102476 0)
(-0.0501988 0.117884 0)
(-0.0687185 0.127078 0)
(-0.0875532 0.130408 0)
(-0.105921 0.128374 0)
(-0.123197 0.121559 0)
(-0.138897 0.110587 0)
(-0.152652 0.0960883 0)
(-0.164185 0.0786789 0)
(-0.173291 0.0589559 0)
(-0.179815 0.0374985 0)
(-0.18364 0.014877 0)
(-0.184674 -0.00833334 0)
(-0.182852 -0.0315365 0)
(-0.178136 -0.0541003 0)
(-0.170522 -0.0753436 0)
(-0.160066 -0.09453 0)
(-0.146897 -0.110869 0)
(-0.131253 -0.123534 0)
(-0.11351 -0.131686 0)
(-0.0942151 -0.134528 0)
(-0.0741069 -0.131369 0)
(-0.0541319 -0.121701 0)
(-0.035409 -0.105288 0)
(-0.0191781 -0.0822459 0)
(-0.00704543 -0.0530957 0)
(-0.001122 -0.0188687 0)
(-0.0012023 0.0226849 0)
(-0.00732754 0.0620823 0)
(-0.0196426 0.0944259 0)
(-0.0358959 0.119213 0)
(-0.0544616 0.136419 0)
(-0.0741709 0.146341 0)
(-0.0940202 0.149512 0)
(-0.113192 0.146604 0)
(-0.131064 0.138365 0)
(-0.147179 0.125555 0)
(-0.161212 0.108913 0)
(-0.172936 0.089139 0)
(-0.182194 0.0668899 0)
(-0.188872 0.0427839 0)
(-0.192881 0.0174174 0)
(-0.19414 -0.00861629 0)
(-0.192578 -0.0347036 0)
(-0.188129 -0.0601883 0)
(-0.180747 -0.0843504 0)
(-0.170424 -0.106392 0)
(-0.15722 -0.125433 0)
(-0.141301 -0.140519 0)
(-0.122978 -0.150651 0)
(-0.102758 -0.154833 0)
(-0.0813831 -0.152152 0)
(-0.0598559 -0.141878 0)
(-0.0394163 -0.12357 0)
(-0.021487 -0.097192 0)
(-0.00794888 -0.0631991 0)
(-0.00128001 -0.0226675 0)
(-0.00133537 0.0266106 0)
(-0.00806566 0.0722979 0)
(-0.0214875 0.109313 0)
(-0.0390303 0.137222 0)
(-0.0588419 0.15616 0)
(-0.0796186 0.166642 0)
(-0.100282 0.169428 0)
(-0.119993 0.165415 0)
(-0.138153 0.155542 0)
(-0.154358 0.140731 0)
(-0.168351 0.121842 0)
(-0.179978 0.0996584 0)
(-0.189151 0.0748902 0)
(-0.195812 0.0481837 0)
(-0.199911 0.0201444 0)
(-0.201388 -0.00863563 0)
(-0.200169 -0.0375467 0)
(-0.196159 -0.0659297 0)
(-0.18926 -0.0930464 0)
(-0.179389 -0.118054 0)
(-0.166515 -0.139991 0)
(-0.1507 -0.157776 0)
(-0.132159 -0.17023 0)
(-0.111323 -0.176128 0)
(-0.0889013 -0.174286 0)
(-0.0659333 -0.163677 0)
(-0.043775 -0.143586 0)
(-0.0240527 -0.113751 0)
(-0.00897436 -0.0745072 0)
(-0.00146467 -0.0269604 0)
(-0.00148862 0.0309377 0)
(-0.00889162 0.0834644 0)
(-0.0235025 0.125427 0)
(-0.0423613 0.156488 0)
(-0.0633466 0.177009 0)
(-0.0850063 0.187787 0)
(-0.106195 0.189883 0)
(-0.126076 0.184471 0)
(-0.144105 0.172724 0)
(-0.159964 0.155746 0)
(-0.173494 0.134527 0)
(-0.184644 0.109935 0)
(-0.193415 0.0827198 0)
(-0.199825 0.0535412 0)
(-0.203877 0.0229927 0)
(-0.205542 -0.00835849 0)
(-0.204745 -0.0399327 0)
(-0.201366 -0.0710956 0)
(-0.195249 -0.101117 0)
(-0.186222 -0.129134 0)
(-0.174138 -0.15412 0)
(-0.158927 -0.174874 0)
(-0.140663 -0.190028 0)
(-0.119654 -0.198094 0)
(-0.096531 -0.197557 0)
(-0.0723296 -0.187015 0)
(-0.048508 -0.165371 0)
(-0.0269145 -0.13204 0)
(-0.0101474 -0.0871547 0)
(-0.00168286 -0.0318185 0)
(-0.00167072 0.0357208 0)
(-0.00983966 0.0956771 0)
(-0.0257462 0.142828 0)
(-0.0459419 0.176979 0)
(-0.0679804 0.198806 0)
(-0.0902501 0.209495 0)
(-0.111557 0.210492 0)
(-0.131105 0.203317 0)
(-0.148444 0.189421 0)
(-0.163386 0.170112 0)
(-0.17591 0.146514 0)
(-0.186096 0.119573 0)
(-0.194061 0.0900658 0)
(-0.199916 0.0586419 0)
(-0.203733 0.0258591 0)
(-0.205523 -0.00776875 0)
(-0.205219 -0.0417223 0)
(-0.202679 -0.0754245 0)
(-0.197683 -0.108188 0)
(-0.189965 -0.13916 0)
(-0.179241 -0.167282 0)
(-0.16527 -0.191247 0)
(-0.147941 -0.2095 0)
(-0.127376 -0.220263 0)
(-0.104061 -0.221627 0)
(-0.0789702 -0.211713 0)
(-0.0536299 -0.188912 0)
(-0.030119 -0.152171 0)
(-0.0115021 -0.101296 0)
(-0.00194439 -0.0373289 0)
(-0.00189566 0.0410371 0)
(-0.0109625 0.109065 0)
(-0.0283042 0.161586 0)
(-0.0498437 0.198627 0)
(-0.0727401 0.221316 0)
(-0.0952208 0.231366 0)
(-0.116081 0.230728 0)
(-0.134618 0.221345 0)
(-0.150539 0.204993 0)
(-0.163838 0.183201 0)
(-0.174676 0.157227 0)
(-0.183297 0.128076 0)
(-0.189958 0.0965323 0)
(-0.194881 0.0632079 0)
(-0.198219 0.0285958 0)
(-0.200034 -0.00687417 0)
(-0.200277 -0.0427767 0)
(-0.198788 -0.0786291 0)
(-0.19529 -0.113826 0)
(-0.189414 -0.147571 0)
(-0.180724 -0.178809 0)
(-0.16878 -0.206167 0)
(-0.153232 -0.227916 0)
(-0.133943 -0.241974 0)
(-0.111165 -0.245979 0)
(-0.0857225 -0.237459 0)
(-0.0591429 -0.214123 0)
(-0.0337259 -0.174243 0)
(-0.0130871 -0.117112 0)
(-0.00226406 -0.0436013 0)
(-0.00218659 0.0469999 0)
(-0.0123419 0.123808 0)
(-0.0313007 0.181783 0)
(-0.0541577 0.221309 0)
(-0.0775982 0.24418 0)
(-0.0997085 0.252835 0)
(-0.119341 0.249874 0)
(-0.135972 0.237757 0)
(-0.149547 0.218624 0)
(-0.160304 0.194233 0)
(-0.168635 0.16596 0)
(-0.174978 0.134843 0)
(-0.17975 0.10164 0)
(-0.183295 0.0668963 0)
(-0.185859 0.0310074 0)
(-0.187559 -0.00571311 0)
(-0.188376 -0.0429684 0)
(-0.188141 -0.0804085 0)
(-0.186532 -0.117555 0)
(-0.183082 -0.153718 0)
(-0.177198 -0.187905 0)
(-0.16822 -0.218728 0)
(-0.155506 -0.244326 0)
(-0.138582 -0.262324 0)
(-0.117353 -0.26986 0)
(-0.0923636 -0.263747 0)
(-0.0650272 -0.240796 0)
(-0.0378138 -0.198324 0)
(-0.014975 -0.134813 0)
(-0.00266555 -0.0507788 0)
(-0.00258279 0.0537799 0)
(-0.0141056 0.140155 0)
(-0.0349102 0.203498 0)
(-0.0589847 0.244803 0)
(-0.0824622 0.266857 0)
(-0.103355 0.273101 0)
(-0.120694 0.266968 0)
(-0.134256 0.251524 0)
(-0.144328 0.229301 0)
(-0.151468 0.202268 0)
(-0.156339 0.171883 0)
(-0.159599 0.139177 0)
(-0.161831 0.104839 0)
(-0.163506 0.0693089 0)
(-0.164958 0.032854 0)
(-0.166367 -0.00435921 0)
(-0.16775 -0.0421935 0)
(-0.168946 -0.0804682 0)
(-0.169604 -0.118877 0)
(-0.16918 -0.156893 0)
(-0.166939 -0.193655 0)
(-0.161994 -0.227841 0)
(-0.153379 -0.257534 0)
(-0.140203 -0.280112 0)
(-0.121888 -0.292204 0)
(-0.0985222 -0.289792 0)
(-0.0712164 -0.268541 0)
(-0.0424851 -0.224421 0)
(-0.017278 -0.154652 0)
(-0.00318855 -0.0590574 0)
(-0.00315255 0.061642 0)
(-0.0164542 0.15845 0)
(-0.0393679 0.226786 0)
(-0.0643997 0.268713 0)
(-0.0870893 0.288528 0)
(-0.105532 0.291044 0)
(-0.119133 0.280738 0)
(-0.128149 0.261354 0)
(-0.133326 0.235804 0)
(-0.135616 0.206219 0)
(-0.135984 0.174071 0)
(-0.13531 0.140319 0)
(-0.134334 0.105536 0)
(-0.133635 0.0700148 0)
(-0.133625 0.0338636 0)
(-0.134541 -0.00292184 0)
(-0.136443 -0.040387 0)
(-0.139192 -0.078548 0)
(-0.142441 -0.11731 0)
(-0.145605 -0.156367 0)
(-0.147847 -0.195068 0)
(-0.148079 -0.23226 0)
(-0.14501 -0.266085 0)
(-0.137267 -0.293785 0)
(-0.123655 -0.311534 0)
(-0.103574 -0.314412 0)
(-0.0775429 -0.296671 0)
(-0.047865 -0.252425 0)
(-0.0201724 -0.176933 0)
(-0.0039022 -0.068719 0)
(-0.00401715 0.0710064 0)
(-0.0197001 0.179157 0)
(-0.0449612 0.251601 0)
(-0.0703585 0.292331 0)
(-0.090913 0.30794 0)
(-0.105118 0.305101 0)
(-0.113067 0.289529 0)
(-0.115715 0.265666 0)
(-0.114401 0.236728 0)
(-0.110518 0.204896 0)
(-0.105332 0.171556 0)
(-0.0999137 0.137511 0)
(-0.0951195 0.103153 0)
(-0.0915991 0.0685941 0)
(-0.0898109 0.0337587 0)
(-0.0900326 -0.00153959 0)
(-0.0923629 -0.0375374 0)
(-0.0967094 -0.0744601 0)
(-0.102763 -0.112449 0)
(-0.109957 -0.151465 0)
(-0.117424 -0.19115 0)
(-0.12395 -0.230638 0)
(-0.127965 -0.268296 0)
(-0.127611 -0.301413 0)
(-0.120956 -0.325865 0)
(-0.106453 -0.335869 0)
(-0.0836172 -0.324035 0)
(-0.0540744 -0.281995 0)
(-0.0239343 -0.202011 0)
(-0.00492986 -0.0801908 0)
(-0.00539409 0.0825574 0)
(-0.0243203 0.202858 0)
(-0.0519644 0.277627 0)
(-0.0764733 0.314385 0)
(-0.0927055 0.323189 0)
(-0.100128 0.313119 0)
(-0.099965 0.291251 0)
(-0.0941205 0.26262 0)
(-0.0846207 0.230558 0)
(-0.073292 0.197116 0)
(-0.0616413 0.163445 0)
(-0.0508494 0.130094 0)
(-0.0418079 0.0972151 0)
(-0.0351686 0.0647049 0)
(-0.0313858 0.0322994 0)
(-0.0307461 -0.000364172 0)
(-0.0333808 -0.033701 0)
(-0.0392579 -0.0681346 0)
(-0.0481522 -0.104043 0)
(-0.059592 -0.141677 0)
(-0.0727828 -0.181035 0)
(-0.0865141 -0.221663 0)
(-0.0990701 -0.26235 0)
(-0.108192 -0.300707 0)
(-0.111185 -0.332617 0)
(-0.105316 -0.351661 0)
(-0.0885713 -0.348738 0)
(-0.0611308 -0.312339 0)
(-0.0289808 -0.230253 0)
(-0.00649271 -0.0941494 0)
(-0.00766712 0.0974188 0)
(-0.0309929 0.230162 0)
(-0.0604072 0.303912 0)
(-0.0815085 0.332623 0)
(-0.0899443 0.331405 0)
(-0.0870929 0.312223 0)
(-0.0758453 0.283398 0)
(-0.0592562 0.250234 0)
(-0.0400227 0.215844 0)
(-0.0202851 0.181884 0)
(-0.00163721 0.149096 0)
(0.014777 0.117671 0)
(0.0281543 0.0874731 0)
(0.0379378 0.0581772 0)
(0.0437462 0.0293446 0)
(0.0453269 0.000466594 0)
(0.0425335 -0.0290115 0)
(0.0353275 -0.0596705 0)
(0.0238069 -0.0920905 0)
(0.00826578 -0.1268 0)
(-0.0107079 -0.164178 0)
(-0.0320931 -0.204278 0)
(-0.0542587 -0.246514 0)
(-0.0747815 -0.289161 0)
(-0.090355 -0.328596 0)
(-0.0969651 -0.358289 0)
(-0.0905287 -0.367724 0)
(-0.0686577 -0.341786 0)
(-0.0358761 -0.261884 0)
(-0.00897548 -0.111684 0)
(-0.0114567 0.117391 0)
(-0.0404787 0.261348 0)
(-0.0693874 0.328138 0)
(-0.0822929 0.343186 0)
(-0.0776689 0.328449 0)
(-0.0600976 0.29881 0)
(-0.0345939 0.263255 0)
(-0.00532881 0.226699 0)
(0.0245769 0.191535 0)
(0.0529669 0.158708 0)
(0.0784301 0.128379 0)
(0.100074 0.100309 0)
(0.117342 0.0740661 0)
(0.129885 0.0491276 0)
(0.137471 0.0249263 0)
(0.139929 0.000865228 0)
(0.137124 -0.0236839 0)
(0.128945 -0.0493877 0)
(0.115334 -0.0769554 0)
(0.0963343 -0.107127 0)
(0.0721901 -0.140624 0)
(0.0435119 -0.17803 0)
(0.0115201 -0.219533 0)
(-0.0216206 -0.264423 0)
(-0.0524335 -0.310202 0)
(-0.0758886 -0.351143 0)
(-0.0855468 -0.376245 0)
(-0.0751098 -0.367008 0)
(-0.0451264 -0.296513 0)
(-0.0129715 -0.134492 0)
(-0.0174905 0.145291 0)
(-0.052808 0.295374 0)
(-0.0751957 0.345265 0)
(-0.0714791 0.339783 0)
(-0.0465638 0.308772 0)
(-0.0094626 0.26891 0)
(0.0327806 0.228481 0)
(0.0754391 0.190998 0)
(0.115589 0.157536 0)
(0.151575 0.128046 0)
(0.182539 0.102017 0)
(0.20809 0.0787911 0)
(0.22808 0.0576934 0)
(0.242464 0.0380769 0)
(0.251223 0.0193248 0)
(0.254307 0.000834035 0)
(0.251616 -0.0180108 0)
(0.242985 -0.037867 0)
(0.228191 -0.0594652 0)
(0.206992 -0.0836365 0)
(0.179192 -0.111324 0)
(0.144789 -0.143547 0)
(0.104231 -0.181266 0)
(0.0588369 -0.22501 0)
(0.0114388 -0.274044 0)
(-0.0328081 -0.324689 0)
(-0.0656116 -0.367297 0)
(-0.0758396 -0.381729 0)
(-0.0561751 -0.332018 0)
(-0.0190624 -0.165138 0)
(-0.0255191 0.185739 0)
(-0.0643337 0.327453 0)
(-0.0667332 0.344886 0)
(-0.0332888 0.312558 0)
(0.0199038 0.265645 0)
(0.0797253 0.219076 0)
(0.138605 0.178152 0)
(0.192664 0.14382 0)
(0.24021 0.1154 0)
(0.280746 0.0917887 0)
(0.314349 0.071903 0)
(0.341323 0.0548086 0)
(0.362018 0.0397294 0)
(0.376735 0.0260169 0)
(0.385679 0.0131099 0)
(0.388937 0.000492638 0)
(0.38646 -0.0123452 0)
(0.378054 -0.0259502 0)
(0.363369 -0.0409513 0)
(0.341906 -0.0581123 0)
(0.31303 -0.0783925 0)
(0.276045 -0.103005 0)
(0.230358 -0.133439 0)
(0.175854 -0.171348 0)
(0.113624 -0.218068 0)
(0.047263 -0.273176 0)
(-0.015162 -0.331087 0)
(-0.0588244 -0.374487 0)
(-0.0642253 -0.362071 0)
(-0.0265018 -0.207676 0)
(-0.0292754 0.24267 0)
(-0.0589132 0.342204 0)
(-0.0155789 0.307757 0)
(0.0635617 0.248502 0)
(0.148928 0.193423 0)
(0.228465 0.148919 0)
(0.297995 0.114816 0)
(0.356681 0.0889834 0)
(0.405188 0.0692096 0)
(0.444667 0.0537506 0)
(0.476268 0.0413351 0)
(0.500974 0.0310511 0)
(0.519558 0.0222361 0)
(0.532584 0.0143909 0)
(0.540423 0.0071162 0)
(0.543258 6.49934e-05 0)
(0.541092 -0.00709607 0)
(0.533738 -0.0147241 0)
(0.520799 -0.0232413 0)
(0.50164 -0.033189 0)
(0.475342 -0.045304 0)
(0.440668 -0.0606286 0)
(0.396052 -0.0806622 0)
(0.339708 -0.10754 0)
(0.270094 -0.14411 0)
(0.187088 -0.193418 0)
(0.0942236 -0.256476 0)
(0.00378109 -0.326293 0)
(-0.0517227 -0.369322 0)
(-0.0277715 -0.264049 0)
(0.0101358 0.283644 0)
(0.0234736 0.297664 0)
(0.145327 0.213177 0)
(0.274755 0.145612 0)
(0.379494 0.100123 0)
(0.461506 0.0701245 0)
(0.525553 0.0503433 0)
(0.575433 0.0370226 0)
(0.614299 0.0277136 0)
(0.644588 0.0209211 0)
(0.668059 0.015741 0)
(0.685959 0.011613 0)
(0.699159 0.00817473 0)
(0.708252 0.00517781 0)
(0.713613 0.00243762 0)
(0.715437 -0.000197932 0)
(0.713753 -0.00287093 0)
(0.708422 -0.00573319 0)
(0.699114 -0.00896876 0)
(0.685269 -0.0128256 0)
(0.666016 -0.0176669 0)
(0.640057 -0.0240603 0)
(0.605488 -0.0329395 0)
(0.559549 -0.0458943 0)
(0.498456 -0.0656446 0)
(0.417403 -0.0966252 0)
(0.310295 -0.145338 0)
(0.173506 -0.21928 0)
(0.0401069 -0.31094 0)
(0.0175818 -0.29663 0)
(0.301454 0.146167 0)
(0.399409 0.127354 0)
(0.561203 0.0756407 0)
(0.678922 0.0433624 0)
(0.749286 0.0255668 0)
(0.794261 0.0156858 0)
(0.825216 0.0101036 0)
(0.847328 0.00683617 0)
(0.863542 0.00481099 0)
(0.875654 0.00346823 0)
(0.884754 0.00251584 0)
(0.891526 0.00179619 0)
(0.896409 0.00121921 0)
(0.899685 0.000729443 0)
(0.901528 0.000289128 0)
(0.90203 -0.000130908 0)
(0.901207 -0.000557118 0)
(0.899003 -0.00101757 0)
(0.89528 -0.00154746 0)
(0.889792 -0.0021971 0)
(0.882138 -0.00304658 0)
(0.871682 -0.00423524 0)
(0.857387 -0.00602402 0)
(0.837502 -0.00892836 0)
(0.809044 -0.0139889 0)
(0.76667 -0.0232758 0)
(0.69864 -0.0407948 0)
(0.580952 -0.0738538 0)
(0.413263 -0.128035 0)
(0.307735 -0.148561 0)
)
;

boundaryField
{
    movingWall
    {
        type            fixedValue;
        value           uniform (1 0 0);
    }
    fixedWalls
    {
        type            noSlip;
    }
    frontAndBack
    {
        type            empty;
    }
}


// ************************************************************************* //
