/*--------------------------------*- C++ -*----------------------------------*\
  =========                 |
  \\      /  F ield         | OpenFOAM: The Open Source CFD Toolbox
   \\    /   O peration     | Website:  https://openfoam.org
    \\  /    A nd           | Version:  9
     \\/     M anipulation  |
\*---------------------------------------------------------------------------*/
FoamFile
{
    format      ascii;
    class       volScalarField;
    location    "10";
    object      p;
}
// * * * * * * * * * * * * * * * * * * * * * * * * * * * * * * * * * * * * * //

dimensions      [0 2 -2 0 0 0 0];

internalField   nonuniform List<scalar> 
112055
(
0.0181181
0.00546574
-0.00158805
-0.00181507
0.000860925
0.00822729
0.0175544
-0.00178625
-0.000528431
0.0178059
0.00549149
0.0166616
-0.000480995
0.0166601
0.0273604
-6.1081e-06
-0.083853
0.0209216
0.00545552
-0.000249219
-1.51694e-05
2.8631e-05
0.00546878
0.00133111
0.000111104
0.000411901
0.039698
0.00672856
0.00819025
-2.76493e-06
0.00920976
-0.0117424
-5.36022e-05
-0.0308222
-0.000529448
-2.72702e-05
-0.000293947
0.0629568
-0.00645152
-2.50423e-06
-8.26409e-05
-0.00578877
0.00201082
-0.0015466
0.0214292
0.000634253
-0.0328555
0.000168664
0.000156527
-0.00566262
-0.00178076
-0.02487
6.16755e-06
-0.00620689
-0.000616782
0.0176711
6.64349e-05
0.000205457
-0.0145906
0.000618355
0.0146657
0.000170111
-9.28439e-06
-3.27046e-06
0.0116284
-0.000628681
0.0655983
5.04854e-06
0.0037351
-0.000124566
0.000201689
-0.0893299
0.0014176
0.0363354
-0.0207846
-0.0532846
0.00530397
0.0179832
-0.0150805
-0.00602072
3.03409e-05
-0.0566398
-0.00172084
0.000426093
-4.79202e-06
0.00347342
-0.00442805
-0.000599029
0.00762844
-0.000558661
2.09471e-06
-2.97043e-05
-0.00470049
0.000827753
-0.0210065
0.00527522
-0.00237758
0.027023
0.00920685
6.65926e-05
-0.000477808
-2.95028e-05
-2.75375e-05
0.00621215
-0.0295263
-0.0852504
0.0116128
1.21785e-05
-2.0488e-05
0.00346172
-0.0889765
-0.00521249
-0.000629291
0.00678767
0.00375821
0.0205571
0.0113453
-1.74404e-05
0.00758889
-0.000567035
0.00702538
0.00673818
0.0177551
9.31251e-06
-8.43967e-05
0.00614312
-0.0807151
2.70234e-05
-0.000713482
-0.0291369
5.41893e-06
0.0393842
-1.92975e-06
0.0520183
-0.00663044
-8.38978e-07
-2.68716e-05
0.00337857
-0.00121637
0.00176195
0.00331804
0.00152135
-0.0013103
0.00484803
1.02965e-05
-0.00145118
0.0192658
1.98388e-05
-2.27559e-05
5.0074e-05
-0.0860231
3.75958e-05
0.0155898
1.84556e-06
-0.00120907
0.00730725
0.00988458
0.00687192
-0.0137763
-0.00393768
-0.000615188
3.29026e-06
-0.000367852
-0.000310606
-0.000123691
0.00156054
0.00995329
-0.0119127
-0.000137344
0.0116358
0.00878128
0.00728028
-0.000375593
0.00469479
-0.00527863
-0.000575591
0.00015447
-0.00078415
-0.00241614
0.000128879
-0.00530053
3.51785e-06
2.59615e-05
0.00923399
-0.00812844
0.0145304
4.2968e-06
-0.000136788
-0.00129799
0.000670527
0.00342585
-5.9115e-05
-0.000522225
0.00704502
-0.0012015
-1.78319e-06
-0.00292014
-0.00591061
0.000122038
0.00985218
0.0625016
0.0128747
0.0147597
2.7425e-06
1.59032e-05
0.0203181
0.0657448
0.0102634
-0.0830768
-2.96568e-05
0.002476
-8.06452e-05
0.0188683
-3.42458e-05
-0.00233696
0.010377
0.00887212
-0.00395202
-0.000347986
-0.00204248
-8.48621e-07
-0.0186478
-0.000628974
-0.00409587
-0.023046
-0.000139296
-2.77311e-05
0.00939274
0.00485356
-5.26044e-05
-2.83945e-05
-0.000354011
-0.00810143
0.00597376
-0.0319263
0.000139688
-2.19564e-06
-3.04753e-05
-0.0909171
0.101119
4.56756e-06
-0.0084959
-0.000290175
1.78967e-06
-0.000184336
-0.0316533
-0.0018316
-0.00459425
9.74705e-06
-0.00196507
0.00028395
2.61008e-06
-0.0105542
-0.00029157
-0.00284869
5.21311e-05
0.00338955
-0.000736021
0.00742723
-3.06676e-05
-0.0227794
0.0191832
0.00151548
0.0149368
0.0523362
0.000726485
1.7773e-05
-0.000761538
0.0129364
4.60251e-06
0.000304523
0.00163596
0.000117939
-0.0236445
-0.000211488
0.00139959
-0.0151963
-0.0858802
-0.0843827
-0.00840852
-1.9091e-05
0.00552511
0.0117508
0.00848351
0.00657948
-0.00253991
0.00641863
-4.81835e-05
3.08282e-05
0.0132039
0.00030996
5.8524e-06
0.00643418
-0.00024558
0.00600255
0.00656153
0.0107577
-0.000551334
-0.000134505
6.66631e-06
0.00575025
0.00924054
0.00926252
0.0062633
-0.00351654
-1.35718e-06
3.10766e-05
-0.000678176
-0.000200446
-4.94962e-06
-0.000265731
0.00411505
-1.90973e-05
6.04091e-05
-0.0043883
-0.0191555
-0.000577991
0.000145761
-0.000255585
-0.000129939
-0.000193516
0.0531326
0.0287104
-0.000533025
-0.0017497
-0.00281188
0.00151919
0.00205668
0.00556979
-2.77749e-05
0.00484327
4.39012e-05
0.0111841
-0.00174343
-0.00217384
5.6773e-06
-4.68268e-05
0.000408417
0.00419701
0.00527086
0.062481
-0.0794762
0.000110316
4.573e-06
6.35207e-06
-0.00468945
1.94397e-05
-0.00588498
0.0115655
2.83722e-05
0.0249898
0.0144035
0.0162702
-0.0204544
-0.000852135
-0.000851054
0.0360937
0.000132595
-3.71044e-05
0.016736
-0.0559262
-3.56561e-05
-0.00209266
0.11098
9.33505e-06
-0.0907275
0.00521186
-0.00338206
0.00567159
-0.000406201
0.0214578
0.0219021
0.010532
0.0144571
0.146404
7.19395e-06
4.84217e-06
-0.00173969
-0.00187623
0.000176321
-1.57953e-05
0.00827168
0.0167492
1.99762e-05
-0.000786584
-9.32799e-06
-3.61902e-06
-0.0037084
0.0115943
0.0216429
0.000335564
0.00243271
0.000129307
-0.00909892
0.0359698
0.000322004
0.00342271
-0.00556664
-0.0161953
0.000134482
0.0184588
0.00114564
-0.0296713
0.0158762
3.13612e-05
-0.0433853
-0.00507316
-0.000134993
0.000136376
0.00460061
-0.00170673
9.00324e-07
-0.000180143
3.93978e-07
1.22324e-05
-0.0043917
0.00733202
-0.00435439
-0.000355762
0.00737772
0.0291777
-0.00065421
0.00273002
0.00757906
0.00641087
-0.0019374
0.0101367
-5.0064e-06
-0.000695759
-0.00520011
-0.000157527
0.0104061
-0.000959981
-0.0204326
-0.0115392
0.0246607
-2.17583e-06
-0.00593746
0.100349
0.0240559
-0.00189931
0.000394213
0.00735908
0.00352589
0.00518663
1.056e-05
0.0356248
0.0236885
4.83701e-05
-0.00534116
0.00170194
0.00697578
-0.000659838
0.00843793
-0.00272812
-0.0946795
3.26004e-06
1.03368e-06
0.00903236
-8.0801e-06
0.0001855
-0.00129871
6.21429e-06
0.000453677
-0.00821736
-2.32379e-06
-9.64379e-06
0.0158642
0.0064214
0.000165688
0.00829801
-7.88891e-05
-0.000914409
-0.000219706
0.00787434
-0.00165384
-0.000269144
-1.85216e-06
-0.000463113
6.24032e-05
-0.0201296
-0.0949476
1.79728e-05
-0.0153138
-9.35316e-05
0.00740389
0.0130612
9.52372e-06
-0.000276444
-0.000263441
-5.43809e-07
-0.0158636
-0.00360374
-7.40332e-06
0.00993125
-0.000628432
0.00801548
3.6091e-05
-0.000239584
5.38454e-06
0.00222001
-1.54429e-06
-0.000615763
0.0106896
6.29737e-06
0.00644145
-0.000224259
-0.0588151
4.13034e-06
-4.25269e-06
-0.00168745
0.0200191
0.000749854
0.00455684
0.0652403
-1.1051e-05
1.07536e-05
-2.32253e-06
0.00343411
-0.0010622
0.00860778
0.000182677
-5.71898e-05
-0.000473327
0.00405169
-0.00878813
-1.40372e-05
0.0664596
-0.000480904
1.10945e-06
0.00701907
-0.00172349
-0.0825153
0.0518858
-1.54511e-05
0.0133389
-0.00209796
-0.10144
-0.000813134
1.64583e-05
-9.93893e-06
1.35398e-05
-0.0987714
0.0249208
-0.000923657
-0.00211793
-0.00110964
0.00370756
0.00731729
-5.52014e-05
0.0249679
0.00671311
0.00979842
-0.0245629
0.00802243
3.75002e-06
-0.0113701
-0.000219416
-6.4495e-07
-0.0112262
-0.00201258
-7.30251e-05
1.35645e-05
0.0022707
0.10865
-0.000501421
-0.00154284
-0.0861238
-0.000101821
-0.0840445
0.00173484
0.00804562
-2.90951e-05
-0.0193489
-5.48042e-06
0.00563665
0.00699899
-0.000380293
0.0100238
-0.0408705
-0.000363392
5.08232e-06
0.0127871
0.00609843
0.00932869
-5.33005e-06
0.007518
0.00351348
0.00717405
-2.6885e-06
0.00694933
0.0022941
4.56389e-06
0.00226281
0.000183786
0.00754903
0.00485814
0.000552548
0.00664736
-0.00118034
1.0941e-05
-0.000664058
0.000440295
0.0065081
-0.000284111
0.00406172
-0.000636684
0.00890737
0.0107306
-7.71873e-06
-0.000540222
0.0113852
0.000123034
-0.00150061
0.0496273
0.00673543
-1.46296e-07
-3.53761e-05
-0.000787471
0.00521588
-0.0158148
0.00960355
0.00628026
0.000128555
0.00647745
-0.0572076
0.000110924
-0.00152676
-0.000377743
-0.00325037
-0.010128
-0.0811356
0.000108629
-0.0779951
0.000508441
-1.34248e-05
1.99831e-05
0.000504432
2.0014e-05
0.00611465
-2.76752e-05
2.56149e-05
-0.000572344
-0.00155315
-0.00134211
0.0232067
0.0757701
0.00869092
-0.00094284
-0.00152586
-0.0945336
-1.82324e-05
5.09246e-07
0.0189472
9.66038e-07
8.22026e-06
0.0105025
0.0145048
-0.00195013
-0.00175465
0.0102987
0.00877466
-1.25537e-05
0.0171678
-9.51523e-07
-0.000496754
-0.0163213
-0.0193223
-4.61008e-06
0.00668269
-0.00255308
-0.0238393
0.00024111
0.0172347
-0.000232168
8.61489e-06
0.00641724
0.0187223
0.0796741
2.32715e-05
1.25507e-05
-6.14296e-05
-0.000162533
-0.0150056
-0.000456285
0.0128956
-0.00177438
6.179e-07
-0.0472924
0.000867444
4.24595e-06
0.0081985
0.00563201
0.00801369
0.0230916
0.0172813
0.0196214
0.0128135
5.28088e-06
0.00135159
-0.000581247
3.04208e-05
0.00755954
3.20386e-05
-0.000488101
0.00402287
-0.000575186
-5.84912e-05
0.135758
2.50517e-06
0.00879582
-5.88566e-05
-0.000163712
-0.00367479
0.0024417
0.000270323
0.0127216
2.44872e-05
0.00578798
-0.000127723
-0.000587121
-0.000442251
-7.52983e-05
-0.00599046
-6.90983e-06
0.0103335
0.0126823
0.01066
0.00238156
0.00157306
-0.000186099
0.0146374
-0.0821141
-0.000668374
0.00738661
-3.26244e-05
0.0479905
-0.00178543
-0.00014641
0.000193344
-0.00964703
3.82878e-05
0.00433804
0.00784787
-0.0879047
0.00267078
-0.00538663
0.0112731
0.00524627
0.00637337
-6.7455e-07
-9.01191e-05
-8.6823e-08
-0.00261083
6.32964e-05
0.0111774
0.00734164
-4.14076e-06
0.0162468
2.12529e-05
-5.1936e-06
-0.00837293
-0.00167641
-0.0259634
0.0379204
0.0641716
0.00723003
-0.000434807
-1.31412e-05
-7.1626e-06
-9.36441e-05
-0.00173723
0.000225241
-1.45719e-05
-1.64874e-05
0.00640479
-0.0905865
-0.000360784
2.18999e-06
0.0142308
-0.0120148
0.0171735
8.33095e-06
0.000532246
-0.0945089
3.69422e-06
6.58796e-06
-1.74838e-05
-0.000197812
-0.0116233
-0.000366161
-0.000803116
-2.12613e-05
-0.0124787
-0.000930816
0.000278362
-0.054068
-0.00046202
0.00573844
1.3231e-05
-0.000478455
0.0143415
-0.000157111
0.000317252
-0.128439
-7.84034e-06
0.00140224
0.00155
0.000110361
-5.53206e-07
-0.0226404
-0.00019052
-0.00162082
0.0130808
-0.000818081
-0.00454887
0.000109451
0.00892962
-1.60378e-05
-0.000906093
-0.000634649
0.00745678
2.48748e-05
0.00899813
-0.000242214
-0.0226638
0.0154406
-0.00474963
-0.00579797
9.65021e-06
-1.69423e-05
0.0138089
0.0173023
-0.000270487
0.134571
0.0061921
8.26092e-06
0.00655609
0.0111806
-0.00478925
-0.000273856
0.145123
0.0140584
-0.000431968
-2.09402e-05
-8.29909e-06
0.00688528
-0.000489054
0.00875281
-1.55627e-06
-0.000799317
0.000115103
0.0377973
-5.26619e-06
-0.00466056
2.77092e-06
0.017426
1.90501e-05
0.00847752
1.11744e-05
0.0797481
2.60195e-05
0.000148947
-0.0118264
0.00167149
2.16923e-06
0.00654806
0.0088677
-0.0151795
-0.000217746
0.000109658
0.00777835
0.014368
-0.0912657
0.00893133
0.00645972
0.00843389
0.00257049
-0.020929
0.00564644
-0.00013124
-2.15826e-05
-3.62533e-06
-0.000262474
7.10617e-06
0.000110047
0.00237728
0.0119603
-1.64892e-06
0.00502133
0.00161971
0.00640574
-0.000465655
-0.0205312
-0.0502396
-4.91005e-06
-0.00182154
0.0873355
0.000195199
-0.0938202
-0.00045607
0.00521016
-0.0043405
6.59816e-06
-0.00460178
-0.0493652
-4.40999e-06
0.00552274
-0.00058063
0.00542012
0.0167174
-0.000627315
0.00368773
0.00497153
-0.0908291
0.00823279
-0.000132093
-0.000963122
-8.16561e-07
-9.45674e-05
0.00177975
-1.2689e-08
0.00137165
-0.000790035
0.000228978
0.005953
3.95329e-06
0.0091825
8.05053e-06
4.59656e-05
-4.68998e-06
0.00296885
-0.000426007
1.76941e-07
-0.00232003
-1.04801e-05
-0.0141536
-0.000103401
0.00917822
-1.58265e-05
0.0133726
0.0103685
-6.83828e-06
0.00390634
-0.0241983
-6.53888e-06
-3.00599e-05
0.00279249
-0.00841684
0.0171481
-0.0294225
0.00652051
-1.92264e-05
0.00363675
-0.00345459
0.0206277
7.12632e-05
-0.00067823
6.59114e-05
-0.0375371
-9.10614e-06
8.57253e-05
-0.00326259
-0.000329536
-0.00103927
0.00100992
-0.0525628
-5.99687e-06
-0.104264
-9.62692e-06
0.00788679
-0.00177504
0.0064028
-0.00569981
-0.0042816
-0.000456318
-0.0275463
0.0334071
-0.000503853
0.0172709
0.00467255
3.62057e-07
-6.2522e-05
0.00759683
0.00937799
0.00557628
-1.1017e-05
-0.0148643
0.00399663
-3.85137e-05
2.43475e-05
0.016837
-5.36779e-05
-0.00185733
0.00963081
0.00680984
-5.39183e-05
0.0113177
-0.000457987
0.00926634
-0.000548579
-0.000597473
-0.000242921
-0.00109521
-0.00172994
0.0378852
-0.000376727
0.00127527
0.00416666
-0.000408245
-0.0786776
0.00294876
7.23653e-06
-0.000154782
0.000414177
0.00419837
0.00739706
0.00904371
-0.000193565
0.00672268
0.00107331
-0.0570763
0.000905113
9.59521e-05
-0.00192906
0.00215067
-4.46064e-05
0.00525458
-7.69946e-06
-2.48324e-06
0.0216381
-0.00118037
-0.00152727
-0.000670073
1.27323e-06
0.063864
0.000900377
0.000319246
-0.000555606
0.00426246
0.00694009
0.0152701
-1.07872e-05
-0.0538012
0.00735238
-0.000558484
1.08036e-06
0.00642901
1.57402e-06
-0.044069
4.97503e-06
-0.00694259
1.74491e-06
-4.58852e-06
0.00664707
-0.0111192
1.18308e-06
1.56299e-05
7.28851e-06
0.000872811
0.00437475
0.0219117
-0.00240042
0.0772737
-0.0255785
-0.00472955
-0.00259214
-0.0090518
-1.3268e-05
0.0153937
0.00927111
0.0105464
-0.0249437
-5.35991e-06
-0.092886
-0.00027817
-0.00169851
-0.0745124
-0.000562357
0.0096482
-0.000292065
1.01741e-05
8.74936e-08
0.00559203
-0.00102118
-0.00040241
-0.000244434
9.11477e-06
-0.000682101
0.00016015
-0.00993418
-0.00228947
-0.00192705
9.68297e-07
-2.48861e-06
-1.50495e-05
1.69144e-05
0.0485397
1.23172e-06
0.00941361
-0.00607359
0.000488588
0.00639794
-2.80893e-06
0.0013156
0.00358118
-0.00561199
-0.000390492
-8.06964e-06
-1.60311e-05
-0.0130324
-0.00434889
-6.20538e-06
-7.44551e-06
-2.15631e-06
0.000108288
0.0187435
0.00539062
-1.71168e-05
-0.00010711
0.00636401
-0.000493591
0.0724158
-0.000806619
-0.000412745
0.115405
0.00563309
-0.0520801
0.0104343
0.000207425
0.00663876
-0.000838457
0.00138139
0.0135917
0.0265841
-0.0314423
-1.77205e-05
0.0804629
3.11432e-05
0.00433442
0.00316081
-0.00220032
-0.000402095
-0.00600946
9.33174e-05
3.85217e-05
0.000525831
-3.82053e-05
2.37979e-07
0.0151747
-1.97917e-07
0.00964805
3.49687e-05
-0.00128505
-0.0201929
-0.00139887
0.00301819
-7.64079e-06
0.0147196
-0.0050521
-0.000548112
0.0154818
0.00777779
0.0011786
-1.15479e-05
-7.1123e-06
0.0041834
-0.000618004
0.00865801
0.00697516
0.0234915
-5.10459e-06
0.00480918
-0.000794294
-0.000279109
-0.00307448
-1.11892e-06
0.0280685
0.00577257
-0.00052015
0.0341261
-2.59687e-05
-0.100108
0.0170078
-2.70584e-06
0.00608576
5.64676e-05
0.113693
0.00112662
-0.0895597
-5.02443e-06
1.0258e-05
0.000356312
0.00154978
-0.00129675
4.22092e-06
-0.00262051
-0.0503062
-0.0138459
-0.00193878
-5.81097e-06
-0.00763946
0.00137124
-0.0899756
-2.93587e-05
0.0921301
-0.087524
-0.000555129
0.00540006
0.00142879
1.82972e-06
3.98074e-06
-0.000411207
-1.85312e-05
-9.50487e-05
-1.00201e-05
0.00967014
-0.0217626
-0.00111037
0.000195888
-0.0569104
-0.0503794
0.00862898
9.23983e-05
-0.00024546
-0.000847574
0.00678913
-0.000724413
0.00627208
0.0115174
-0.007466
0.0557488
0.000101598
0.0288476
0.00478351
0.000932364
0.00748366
3.99766e-06
1.39382e-06
0.0134071
-0.00477381
-0.000193967
0.0118302
-7.85846e-05
-1.04248e-05
-0.00113678
-0.00119198
-0.085226
-0.00637639
0.00979881
-3.54202e-05
-9.45377e-05
0.00299405
0.0742751
-0.0488776
0.00920912
0.000929062
0.0027501
0.0404537
-0.00020708
-0.000596814
-7.83445e-07
0.00520249
-0.00182084
-0.000539946
0.00748065
-0.00657142
0.00116941
-0.000626702
-9.60457e-07
6.45508e-06
0.00830058
-0.000373532
0.000147504
0.00729878
0.00473326
-0.00983711
-0.00172651
0.00657491
0.0639291
0.0156081
-3.57186e-05
-0.000442549
0.00360159
0.00979661
-0.000378161
0.000132302
0.0122907
0.000115298
0.0556248
-0.0600877
-5.65344e-06
-0.00187559
0.00804795
0.000251001
-0.00288709
-0.00206533
-0.000234776
0.00161478
-0.0601899
0.00919092
-0.000465968
0.0922659
-3.6155e-05
-5.28826e-05
0.00764587
0.00608734
0.00675093
-6.45651e-05
-0.00119825
0.0103402
-9.44512e-05
0.00323315
-0.0728328
-0.00226685
-0.000397882
-0.000277926
-0.000400981
-0.000218115
1.97415e-05
-0.00121907
-0.000416951
-0.000939145
0.00981199
0.0152047
-0.00113636
-0.00730582
-0.000512394
1.18592e-05
0.000665992
-1.73163e-05
5.53217e-05
4.79957e-07
-0.000499977
-0.00877336
0.00781278
-0.0418162
0.000298725
2.06422e-06
0.0108673
-1.53329e-05
-0.0106154
0.00152846
0.00751118
-2.78322e-05
0.000294735
-0.00355825
4.0183e-06
0.0553579
3.19358e-05
-0.00527112
-7.88142e-06
1.30757e-05
-0.00169494
-0.00368785
0.00756301
0.00468368
0.0459032
0.000253393
0.0100705
-0.000674876
-0.00836108
-0.00374963
-0.000543043
-6.55093e-06
1.39604e-05
-0.0015183
1.10699e-05
-0.00029546
0.00968814
-0.00954938
-0.0878453
-4.04425e-06
6.45526e-06
0.00396869
0.00812329
0.00415966
0.022035
-1.79822e-05
2.7439e-06
-0.00415676
0.00591721
0.00445798
0.00816083
-0.0263155
-0.0155287
-0.000602567
-0.0801513
-6.33261e-05
0.0106995
6.46598e-06
3.63541e-06
-8.92511e-06
0.00801472
0.0231778
4.78942e-06
-0.00107697
0.0593014
0.00245384
-0.0113931
1.22399e-05
0.00933812
-0.00917761
-0.0278234
-0.00148536
-0.00355055
-0.00573524
0.00585727
0.00372494
-0.081261
-0.00182984
0.0243241
0.0057631
-9.49521e-07
0.0119608
-0.0100799
-0.000443813
0.00609154
0.00524653
0.0036084
-0.000603472
-2.28229e-05
-0.00216697
-0.00486034
-9.2654e-05
-0.0885352
-0.0624072
0.00204649
7.6271e-06
-0.00662693
0.0115688
0.000182752
-0.000521764
-0.0452334
0.0136794
4.82833e-06
0.00456506
0.0852775
0.00571318
-0.00938467
-0.00468948
0.00946161
-0.000175824
-0.0846423
-0.00515597
0.00387776
-0.105956
0.113201
0.00363808
0.00806382
-0.00678462
-0.00051919
0.00927964
8.23156e-05
-0.000782848
-0.000613816
5.47983e-06
0.0118419
0.100689
0.0081686
0.000190677
-0.000121867
-0.000281355
-0.000474732
-0.000353692
0.0451345
-1.02248e-05
0.0480509
-2.66118e-05
-0.000248425
-0.0498983
-0.00110325
-0.00294971
5.72892e-05
-0.000796243
-2.17091e-05
0.00957551
-2.13884e-05
1.37622e-06
0.000110747
2.13599e-05
0.0442854
0.00525047
0.0127408
-0.0458846
6.21357e-08
0.00783482
-0.0925245
0.00385431
0.00885575
8.89906e-06
0.0214252
0.0307447
-0.00488966
-0.0031561
-0.000571084
-0.000438498
-0.00396074
-7.32397e-05
-0.0013646
0.0105987
-0.000564606
-0.00087319
0.0346724
-0.00159562
-0.000493804
0.00984215
-0.128801
0.00515838
-0.000218784
0.00852514
-2.4328e-05
0.00778581
0.00110781
-1.38574e-05
0.00741763
-0.000177674
-0.000436088
0.0112568
0.00246128
-0.000185473
-0.000477527
6.65623e-05
0.00595571
0.0071129
1.57911e-06
-0.0011522
-0.00100165
-0.0127174
0.00118558
0.000481417
-1.28841e-05
-2.03137e-05
0.129686
4.66726e-05
0.00650102
-0.000978461
-0.0862523
0.00223307
7.92357e-07
6.4604e-05
0.00918572
5.31495e-06
0.0127459
-0.0780474
0.000114181
0.0100696
0.0471545
3.80466e-06
0.0107152
-2.42359e-05
0.00657313
-3.21861e-05
-0.0212316
0.00261948
6.89789e-06
-0.0076182
0.00814926
0.00703323
0.0125036
6.64691e-06
-0.000371437
5.63704e-05
0.000541498
0.00903699
-9.2406e-05
-8.36266e-06
-0.0162619
-1.28296e-05
3.15714e-05
-1.39108e-05
-0.0126639
-7.02346e-06
0.00663429
0.00830641
-0.0109472
0.00908674
0.0058415
0.00588033
-0.0166791
7.21518e-06
4.42498e-06
0.00600255
-0.000341313
-0.00259582
-5.1553e-05
-0.0869823
0.00414897
0.00921863
0.0171348
-0.000216206
-0.00220558
-0.00217797
-0.000358446
0.00432208
0.00813654
0.00896541
1.00031e-05
0.0270938
0.00765708
0.00254332
-0.000137072
0.0214966
-0.000160121
0.00860317
-5.01389e-06
0.00203804
-0.0115527
-0.0383804
-0.000375263
0.00661885
0.0267633
0.0649855
0.0108328
0.00516891
-0.00670059
-0.000427767
-1.4388e-06
-0.000877668
1.55119e-05
-6.43534e-06
-3.92256e-06
0.00885236
-1.37674e-05
0.00344941
0.000105095
-9.66181e-05
-6.148e-06
-0.0901972
-0.0798381
3.07181e-05
-1.55234e-05
-0.0337766
-6.88432e-05
0.012616
-0.00126077
0.013448
0.00695145
-0.000121138
-0.00442077
0.000964401
-4.05606e-06
-7.24779e-05
-0.000375971
1.17053e-07
-0.00961326
0.00819504
0.012197
-0.081903
-0.00222485
3.94727e-05
0.000219619
-1.51858e-06
-7.50997e-06
-7.68363e-06
-9.91943e-05
-0.0531924
-0.0248274
4.75065e-06
-6.29511e-08
0.00885748
1.94019e-05
0.00565469
-0.00076587
-0.00267489
0.00048504
0.0107451
0.00793199
-0.00303034
0.00759568
-0.000204434
-0.000372202
-3.63648e-05
-2.61432e-05
0.0199529
-0.0810368
-0.0873018
0.0339246
0.00420063
0.00670314
5.68724e-06
0.0213109
0.0014956
0.00704764
-0.00688457
0.00734152
-0.0968083
-0.000224034
-0.00888089
0.00281767
0.000286182
-0.00449974
0.0454336
-0.0822309
7.12428e-07
-0.00193106
-0.00042929
-0.00135862
0.000285613
0.00869236
3.04581e-05
0.0060698
0.00822443
-0.000219218
0.00165548
-0.017329
0.00511636
0.00729993
-0.000278457
-3.96676e-05
-0.0916213
0.00610382
-0.000155834
1.04715e-06
8.22142e-07
-0.000417698
0.00876028
9.06846e-06
0.0165982
0.00832318
3.63789e-06
-2.10917e-05
-0.0100302
-0.0842533
0.00590684
0.00952976
-6.83378e-06
1.32353e-05
0.00705927
0.00123768
-0.00652944
0.0406726
2.4667e-05
3.6557e-06
0.0103109
0.000184956
-0.0241327
-0.0890926
0.00813319
-0.0431048
-2.51201e-05
-0.00595769
-0.000810665
-0.000462262
0.00115837
0.0104647
1.0818e-05
-0.00787919
-0.00779898
-0.000379556
-0.088979
0.00919924
0.00641917
-0.016226
0.00559024
0.000222047
-0.00267581
0.00692886
-0.00059591
1.09364e-05
0.0115204
0.00456015
-3.2063e-05
-0.00295133
0.00965769
-0.000678957
-0.00403947
0.00218053
8.46771e-05
-0.00499479
0.00608098
2.48432e-06
0.000125424
-0.000470701
0.00658305
6.51829e-06
0.0109867
3.1253e-05
0.0109439
-0.000488122
5.18655e-05
0.00645708
0.00926087
-0.000315367
-0.00430451
0.000113965
-0.00064901
0.010626
-0.0296204
-2.95012e-07
-0.0588834
-0.000471458
-0.00172506
-0.00054658
-0.00637521
-0.00347359
0.00366937
1.42281e-05
0.00632157
-0.0194031
-1.47869e-05
-1.53045e-05
-0.0271202
0.000123016
-0.000739577
-0.00109798
0.00667396
-0.00576021
-0.00137279
0.00961278
-0.000526937
0.00913908
-0.00069623
0.0252108
-0.000992529
0.00172173
6.77445e-06
-8.96783e-06
2.85887e-05
-0.000970233
-2.52321e-06
0.00177151
0.00743204
0.0064069
0.00827535
0.0111741
-0.000393164
0.0144797
0.00528375
-0.0832695
4.33032e-06
-9.55425e-07
-0.0305878
0.0067566
-0.0291477
0.00527033
-0.000850928
3.72265e-06
0.00777568
-0.025335
-0.000332781
-9.19031e-06
0.00131714
-3.45072e-05
7.79587e-06
0.00529071
-0.00836287
1.03369e-05
0.000521411
0.00682182
-0.000625166
0.0090466
5.63757e-06
0.00758568
-0.0502616
0.0544613
0.00873765
-0.0163754
0.00110996
0.00549636
0.00302365
-4.92449e-05
1.18302e-05
-1.40603e-05
-0.0116872
0.0270795
-0.000126267
6.85803e-06
-0.00223706
0.000361371
0.00257458
2.41818e-06
0.000749252
1.17951e-05
0.00866568
-7.2668e-06
-1.4024e-06
-0.000198151
-0.000765252
0.0104026
0.0110676
1.31442e-06
0.0363933
0.00119996
7.39806e-06
0.00669491
-5.74549e-06
-1.22193e-05
0.00940223
-1.51464e-05
1.06102e-05
-0.00285504
-0.00289101
6.80062e-05
-0.000486603
0.00900815
-0.000384556
0.0255908
0.00742008
-7.69449e-06
0.00303986
-0.0931094
-0.00290279
0.00497871
-1.9738e-05
4.29543e-06
-0.00542026
-0.00513593
-0.000698509
0.0183222
6.83953e-06
-0.0154682
-2.30157e-05
0.00939257
0.000330718
-0.00964477
0.00377846
-0.000276543
0.00919289
-0.000407655
0.00379388
3.63064e-06
0.00833598
0.00371441
-1.62371e-05
-1.30542e-06
-0.0387119
-0.0106866
-0.0640565
-5.6815e-06
0.00750133
0.0376131
-0.0015212
-2.31244e-05
0.0104783
-5.5358e-06
5.08008e-05
-0.0365535
-0.00401365
-0.00020527
0.00466299
0.00143925
1.13514e-05
3.986e-05
0.0109361
-0.0653946
-0.000640857
-0.000651865
0.000100518
0.000397589
0.0013461
-0.000426738
-2.51606e-05
-0.00151724
2.04396e-06
-0.0337097
4.14902e-05
0.00978887
0.0114353
0.00490053
0.00152025
-0.000579819
9.36634e-05
0.00520488
-5.07124e-05
0.0188533
0.00986923
0.00191116
-2.8212e-06
3.81642e-05
0.0890987
0.0172227
-0.000751792
0.0256965
0.00637556
1.43883e-05
0.00857228
1.8166e-07
0.00343194
-0.00524873
0.000151028
0.00568583
0.000688176
0.0229208
0.000470557
3.83942e-07
0.0115568
-0.000170536
-0.00325276
0.00579862
0.0164785
-2.80196e-05
0.0163665
0.00101824
-0.00199764
1.6047e-05
0.034583
-0.0135596
0.00696999
-7.35182e-06
-0.00052404
-0.000905819
0.00310087
0.00650172
0.00709661
-0.00464263
0.00625071
-0.0378665
0.00194692
-0.0522796
0.00314291
-0.000576821
0.00416835
5.77269e-05
0.0173932
-0.000449309
0.0577643
-0.00653229
-4.46375e-06
1.28655e-05
-1.2361e-05
0.00764817
0.00593243
0.00547556
-7.93497e-05
-0.000630261
-0.0153318
-0.00148391
-0.0280516
-4.57778e-06
-1.74095e-06
0.00224884
0.00514883
-0.000747605
0.00925359
-0.0013065
0.00216206
0.00716195
3.81932e-06
0.0306856
0.00621823
0.0291952
0.000134621
0.00151641
0.00422702
0.00861101
-0.0836281
0.000471818
0.000162608
0.00026546
-0.00104807
0.00855237
9.41217e-06
0.0113853
-4.66068e-05
-0.000325592
-1.03428e-05
3.96639e-06
0.00420091
0.0198084
-0.0133585
-0.00682544
-0.0265127
-0.000433041
-7.94896e-05
0.0218418
0.016691
7.35424e-05
-7.59005e-06
0.00818839
0.00438569
-9.83931e-05
6.17868e-05
-0.015901
-0.0927529
-0.000194023
0.00896827
0.000171453
-0.00142596
3.62707e-05
0.0288876
0.0130485
-0.000492681
-0.00075892
0.00389372
-0.000254851
-0.0669017
5.53672e-05
-0.0872785
0.00562505
0.0125391
-0.000147945
8.07829e-05
-0.0831471
0.0780221
-1.43556e-05
-0.00311639
-0.000560847
8.37191e-06
4.76849e-05
-5.76316e-06
0.00822869
0.0209556
-0.000241953
0.00797578
-0.0142441
0.00677049
-0.00112599
-0.0203205
0.000188638
0.0303599
-1.62017e-05
-0.0904264
0.00680984
-6.3443e-06
-3.67454e-06
-0.0233723
-3.40276e-05
-0.00740628
0.00128407
-0.034829
0.00743829
0.0126884
0.00101318
0.00835314
0.000443765
0.00909736
-0.0556158
0.0116203
0.00666354
-4.72007e-06
0.0144237
0.00577004
-7.17249e-05
0.00726536
0.00524958
0.00568604
-0.0938818
2.57485e-05
-0.0484188
-0.000417653
0.0281475
-4.65904e-06
-9.28074e-05
0.0138004
-0.0241046
0.000215803
0.00173633
1.16908e-06
0.0283135
0.00574394
0.0160594
-1.29268e-05
0.000272844
-0.0923322
0.00557065
0.00475501
2.09504e-06
0.00756683
-0.000147905
-0.000691232
-6.31604e-05
-0.00185811
6.84062e-06
-6.95625e-06
5.01602e-07
0.00894394
-0.00525022
0.00329071
-0.00655021
-2.69034e-06
-0.0018481
1.84935e-05
-0.00354172
-0.00227874
-0.000804926
0.0041171
-0.00342875
0.0107435
-0.00687063
0.0209539
-0.000364944
-0.000721785
0.00669103
-2.07944e-06
0.00114763
0.00258234
0.0204938
0.00759578
0.0801714
-0.000246069
0.00408987
0.00752867
0.0154647
0.0192636
9.47242e-05
-1.23408e-05
-2.25045e-05
0.00121761
-9.52799e-05
-0.000931422
0.0687092
0.0972458
-0.0122152
-0.00413031
0.0091548
0.0140837
-0.00178547
-2.34412e-06
-0.109474
0.00927014
1.17127e-05
0.00701415
-0.00018871
1.76464e-06
-0.00523833
0.00120058
0.00145375
0.0180139
-1.40476e-05
-0.0869634
-0.000870806
0.00702383
-0.00168068
-2.40104e-05
-0.000649917
0.00340897
-0.00161201
-0.000167319
6.16172e-06
6.46972e-06
-0.0710983
-0.0103558
0.00856284
1.23419e-05
0.0166204
0.0059664
-0.0546535
-0.00773529
0.012485
0.00123797
0.00882584
0.00719031
-0.000386557
0.00782241
-0.000133077
0.00714461
-0.000864827
1.15094e-05
0.00207635
-6.69991e-05
-0.000289492
-0.090996
3.38722e-05
-0.000139448
-0.0010686
1.79083e-05
0.00369169
-0.0273943
-0.0901771
0.00614616
0.0271838
-0.0893359
-0.000833488
-0.0945048
0.00348784
0.00134086
0.00917541
0.00940145
0.00729824
-0.0103151
0.00256252
-0.0861671
-0.058275
0.00351887
-0.00289926
0.00918138
0.00695681
-0.00355421
-0.00018205
-0.093531
-0.0846952
-0.0433435
0.00501615
-0.000107876
0.00776927
-1.90768e-06
-7.31571e-06
-0.000615491
8.24391e-07
0.00916727
-0.00356525
0.00112044
0.000415384
0.00547216
0.0077609
0.0100744
-0.0786501
-0.000663039
-2.16325e-05
-2.64241e-05
0.00613214
-0.0120848
0.016503
-0.0026259
0.0075179
0.00131506
-1.53493e-05
0.00619355
-2.14007e-05
0.00855812
0.00716124
-0.000863162
0.00393972
0.00122736
0.0271783
-0.000399905
0.00702446
-0.000636442
0.000269169
-0.0875731
-0.000331033
-0.0028956
5.91597e-05
0.0066944
-4.21562e-05
-0.0901387
-0.0339153
0.00430168
0.00527022
0.000683339
0.000164357
0.00697028
0.0154623
-6.93056e-06
-0.0136284
-0.000194336
5.84896e-07
2.63134e-05
-0.0108342
-2.11388e-06
0.00932711
-0.000182374
0.00218979
-0.000660589
0.027942
0.00144418
0.00589063
0.000433387
5.88395e-07
-0.00848707
2.39016e-06
0.00145147
-3.89469e-06
0.00130237
-0.0927342
0.00280975
0.0209743
-0.00740591
0.0102615
-0.000610392
-0.000620186
-0.000265019
-0.04593
-0.027161
0.000314931
-1.72658e-05
-0.0921526
0.00966424
8.55688e-06
0.00778706
0.0382217
0.00018944
0.00653928
1.46015e-05
0.0453871
0.00307597
0.00617342
0.00710052
-1.96944e-05
-9.08734e-06
-4.73883e-06
-0.0186314
-0.00978753
-0.0441464
-0.0158159
0.00958433
-1.55352e-06
0.00712233
9.76947e-06
-6.30766e-05
-1.21599e-05
-3.07865e-05
-0.000394608
2.82118e-06
-0.000925149
-0.08969
2.99829e-05
-0.0615446
0.0108158
-1.73306e-06
-7.28682e-05
-0.0010388
0.000100068
-2.33811e-05
6.17018e-06
-0.0212109
0.00782685
6.23225e-06
-1.27491e-05
-5.86444e-05
0.00508005
-0.000323845
-0.0802609
5.12499e-05
2.38548e-05
-0.000280209
0.00591129
0.0142948
-8.73797e-05
0.000199028
-0.0709525
-1.29291e-05
0.00963204
0.00665006
0.00617238
0.0026686
0.00853999
0.0061904
0.0297773
0.00910046
3.60434e-07
2.83416e-05
0.00248288
0.000812966
0.00423244
-0.0342033
5.75696e-05
0.00654521
-4.25234e-07
-0.00654938
0.00728708
4.9032e-05
-0.00182856
-9.90271e-06
-0.00102582
-0.0217853
-0.000249576
0.0434836
-2.81822e-06
0.00110018
8.34705e-07
0.00664911
-0.087611
0.00146281
0.0308392
0.000726426
-0.00721356
-7.8826e-06
5.12136e-06
-0.000595011
0.0083717
-9.59285e-06
2.09539e-06
0.00883255
0.026034
0.00508404
0.00746549
5.71496e-05
-0.0344433
0.00849099
-0.00872144
7.53705e-07
-0.0060222
-0.00602504
0.000219206
0.00462282
0.00272669
0.00917729
0.00640048
0.0050532
0.00224375
-8.05101e-06
0.0403834
0.00771286
-1.09823e-05
0.00711919
-0.00349373
0.00535042
0.00605258
-0.00420501
-0.000165521
2.11549e-06
0.00044681
0.00758209
-2.62576e-06
-0.000389363
0.0103449
-0.00276604
-3.46814e-05
2.10488e-05
0.0106548
-0.00286901
-0.00284566
2.88098e-06
-0.0243415
0.000258534
-0.000134557
-0.000277885
0.00199173
3.93592e-06
-3.19661e-07
-0.00345137
1.05808e-06
5.59386e-08
0.00655369
-0.00476089
-0.028981
-4.64201e-07
-3.91217e-06
0.00536328
1.84756e-07
-0.0135152
0.00683768
0.00354978
-0.00076839
0.00155322
-0.00346421
0.0153241
-0.00366318
0.00538582
1.57766e-06
-0.0012298
0.0146393
-0.021185
0.00740461