/*--------------------------------*- C++ -*----------------------------------*\
  =========                 |
  \\      /  F ield         | OpenFOAM: The Open Source CFD Toolbox
   \\    /   O peration     | Website:  https://openfoam.org
    \\  /    A nd           | Version:  9
     \\/     M anipulation  |
\*---------------------------------------------------------------------------*/
FoamFile
{
    format      ascii;
    class       volVectorField;
    location    "10";
    object      U;
}
// * * * * * * * * * * * * * * * * * * * * * * * * * * * * * * * * * * * * * //

dimensions      [0 1 -1 0 0 0 0];

internalField   nonuniform List<vector> 
112055
(
(0.487976 0.0124206 0)
(0.500768 0.00347831 0)
(0.513134 -0.00729413 -5.56654e-21)
(0.521547 -0.0139197 1.37332e-21)
(0.501761 -0.0105854 1.14172e-21)
(0.499974 0.00320616 0)
(0.4887 0.0117679 -6.11084e-20)
(0.521177 -0.0135497 0)
(0.480479 0.000689942 -2.20606e-21)
(0.489235 -0.00199766 3.34419e-21)
(0.501155 0.00335939 1.62684e-20)
(0.490138 0.0144966 -4.08521e-20)
(0.486795 0.00260058 1.03717e-21)
(0.490075 0.0141926 3.90101e-20)
(0.470586 -0.0054505 -2.50027e-20)
(0.499476 0.000732429 1.16005e-23)
(0.537896 0.0115482 9.61854e-20)
(0.48416 -0.0434549 -2.15192e-21)
(0.504996 0.00131539 0)
(0.506942 -0.00348203 -6.51739e-22)
(0.500722 -0.00311376 7.8618e-23)
(0.503989 -0.00261387 0)
(0.50491 0.00124722 -9.37208e-21)
(0.509441 0.00274332 -2.19846e-21)
(0.503725 0.000228176 0)
(0.506551 -0.0112625 -1.41374e-21)
(0.446195 0.0239276 -1.92739e-20)
(0.50044 0.00145874 0)
(0.499982 0.00318992 0)
(0.500459 -0.00318054 -6.61422e-23)
(0.499992 -1.6046e-05 -4.1359e-20)
(0.548127 -0.00155304 0)
(0.499298 -0.00276794 0)
(0.275853 0.110496 -1.82812e-20)
(0.480425 0.000647964 2.06356e-21)
(0.500386 -0.00213543 -5.48495e-23)
(0.506882 -0.00358543 0)
(0.372803 0.121553 1.60012e-20)
(0.53592 0.00389792 0)
(0.500382 0.00111458 3.11471e-24)
(0.49723 -0.00340702 3.02566e-22)
(0.535119 0.00322107 7.09779e-21)
(0.499264 0.00370969 1.30511e-21)
(0.512144 -0.0069591 9.33487e-21)
(0.483131 -0.0437947 0)
(0.510012 0.00339437 0)
(0.28255 0.110887 0)
(0.504058 -0.000219408 0)
(0.505488 6.41852e-05 1.07021e-21)
(0.534994 0.00289436 1.43815e-21)
(0.520922 -0.0129643 3.93374e-21)
(0.566389 0.0953937 0)
(0.499723 -0.0025504 1.93101e-23)
(0.535588 0.00411253 1.91263e-20)
(0.495709 -0.00483754 3.40231e-21)
(0.488555 0.0121648 2.99406e-20)
(0.502041 -0.000932486 8.22935e-24)
(0.506492 -0.000802068 0)
(0.553772 0.052375 0)
(0.509575 0.0034444 -1.06054e-21)
(0.493521 -0.00555828 2.15438e-20)
(0.504111 -0.000215131 3.31834e-22)
(0.50288 0.000336954 -3.33819e-23)
(0.50285 0.000352839 3.8033e-23)
(0.495646 -0.000630043 0)
(0.48546 -0.000941647 -2.62043e-21)
(0.366868 0.122628 0)
(0.500142 -0.000225887 0)
(0.510041 0.00286147 8.23809e-22)
(0.502475 0.0028065 -5.84542e-22)
(0.506443 -0.000893363 -4.67707e-22)
(-0.15889 -0.0039644 2.83624e-22)
(0.509428 0.00273061 0)
(0.452917 0.00608222 7.07672e-20)
(0.54314 0.0687094 -5.84895e-20)
(0.278848 -0.220905 -1.15305e-20)
(0.500118 -0.0012272 -2.78945e-21)
(0.488124 0.0121587 -3.16492e-20)
(0.554034 0.0261741 -2.44813e-20)
(0.535361 0.00384577 -2.51275e-20)
(0.500759 -1.65631e-05 1.02581e-22)
(0.239136 -0.205201 -1.21728e-20)
(0.520736 -0.0129665 0)
(0.50654 -0.0115897 -1.28713e-21)
(0.499285 0.000663675 1.74721e-23)
(0.496423 0.00117415 7.65572e-21)
(0.53432 -0.0204023 -1.47414e-20)
(0.495137 -0.00482043 3.47047e-21)
(0.381952 -0.00136436 -3.10647e-20)
(0.494975 -0.00486458 0)
(0.50238 9.74057e-05 2.19005e-25)
(0.500282 -0.0020685 5.78197e-23)
(0.534756 -0.0202253 0)
(0.502101 -0.0103647 -2.17934e-21)
(0.544694 0.0665159 0)
(0.500172 -0.0013748 4.49258e-21)
(0.521377 0.0257904 -1.54988e-20)
(0.471197 -0.00540545 4.24761e-20)
(0.499991 -2.05481e-05 1.8997e-20)
(0.502242 -0.000950541 0)
(0.48705 0.00255162 9.39942e-22)
(0.498771 -0.000647479 1.9536e-25)
(0.49988 0.00347454 7.13471e-23)
(0.503261 0.0019225 -3.04102e-20)
(0.564432 -0.0652115 0)
(0.45021 0.00532557 -3.93244e-20)
(0.495727 -0.000632764 0)
(0.500078 0.000854936 0)
(0.49676 -1.85111e-05 -2.83622e-23)
(0.495543 0.00108776 0)
(-0.159654 -0.00371452 8.52229e-20)
(0.50067 -0.0573681 -3.60114e-21)
(0.490569 -3.03511e-05 0)
(0.508562 0.0137227 1.28111e-20)
(0.509924 0.00278021 0)
(0.483731 0.00732585 5.96084e-20)
(0.497628 0.0137368 0)
(0.500228 0.0018734 0)
(0.385007 0.000989554 3.96893e-20)
(0.488029 0.00188017 -1.33485e-21)
(0.500487 -0.00209163 8.45281e-21)
(0.500445 0.00149046 0)
(0.48924 -0.0017991 0)
(0.500235 0.000572839 -3.71544e-23)
(0.497204 -0.00340105 -6.35432e-22)
(0.503441 0.00203591 9.93624e-21)
(0.585542 0.00479641 -8.10098e-20)
(0.501575 0.000862431 -5.40866e-23)
(0.504874 0.0011663 -2.15123e-21)
(0.564444 -0.063295 0)
(0.500476 0.000704818 2.29232e-24)
(0.446883 0.0251776 -6.93957e-20)
(0.498908 6.33778e-05 8.84727e-24)
(0.417906 0.0178117 8.22958e-20)
(0.536251 0.0041337 7.83936e-21)
(0.499982 0.00119061 0)
(0.500372 0.00286544 4.47538e-23)
(0.504911 -0.00161864 0)
(0.5068 0.00448227 1.88099e-21)
(0.48091 0.00812018 2.65963e-21)
(0.5049 -0.00159697 0)
(0.487398 0.00717406 0)
(0.51658 0.0261309 -9.94388e-22)
(0.471995 -0.223552 0)
(0.500439 0.00080296 -1.52005e-23)
(0.524843 0.00664207 2.00412e-21)
(0.487878 -0.0327245 7.47148e-21)
(0.497901 -0.00128419 0)
(0.50039 0.00197199 1.01111e-22)
(0.501512 -0.00055533 0)
(0.46097 0.00361547 0)
(0.503504 -0.00285791 0)
(0.490581 0.00167235 0)
(0.499408 -0.00283524 6.71252e-24)
(0.506098 0.00431256 0)
(0.505534 -0.00395909 2.76717e-20)
(0.498689 3.88451e-05 -1.44639e-20)
(0.508379 0.0134625 0)
(0.552216 0.0523702 -1.35361e-20)
(0.529475 0.0238035 1.19434e-20)
(0.490079 -0.000318583 1.59644e-23)
(0.50048 0.00176215 1.34374e-23)
(0.503719 0.000428821 -2.79715e-22)
(0.506345 -0.00383288 8.64942e-22)
(0.491062 -0.00073504 -4.59087e-22)
(0.502111 -0.00258924 4.22327e-21)
(0.498418 0.00209482 -3.9238e-21)
(0.548391 -0.00210439 9.21082e-22)
(0.499969 -0.00344267 6.19607e-22)
(0.496834 0.00109211 0)
(0.499026 -0.00216726 -5.53366e-20)
(0.505631 -0.0041167 1.55494e-20)
(0.503481 0.000349542 1.03904e-21)
(0.471971 -0.216593 7.32147e-22)
(0.531694 -0.0197768 -5.0781e-21)
(0.48801 0.0017066 2.02125e-21)
(0.505532 -7.64344e-06 -4.5337e-22)
(0.502762 0.00123339 3.41386e-21)
(0.526328 0.00186637 1.24469e-20)
(0.502683 0.00023651 5.04121e-22)
(0.532244 -0.0192493 2.46626e-20)
(0.501422 0.00238922 9.92162e-24)
(0.500921 -0.00252316 -1.72718e-22)
(0.499944 -3.04596e-05 -6.09548e-20)
(0.539907 0.00293543 -3.17782e-20)
(0.497401 -0.0451046 2.38533e-20)
(0.500484 0.00172429 -1.1175e-23)
(0.491334 -0.000599607 5.40044e-22)
(0.516097 0.0266058 6.10324e-22)
(0.513599 0.000381482 -3.05497e-21)
(0.510876 0.00172419 0)
(0.499257 -0.00269483 -3.55496e-22)
(0.494578 -0.00477782 -1.20545e-21)
(0.500489 -0.00215774 1.55386e-20)
(0.509527 0.00407901 -2.47569e-21)
(0.4985 -0.00129822 1.00393e-24)
(0.526368 0.020881 0)
(0.50332 -0.0574596 -5.94727e-21)
(0.505988 -0.00153175 1.55199e-22)
(0.498746 4.90577e-05 4.44535e-20)
(0.391629 -0.00344019 -2.68756e-20)
(0.494474 0.000781038 3.4051e-20)
(0.493262 -0.00543685 4.44225e-20)
(0.499577 -0.000746402 0)
(0.501011 0.000189229 9.29963e-24)
(0.484109 0.00712904 -5.06724e-20)
(0.375282 -0.0763821 0)
(0.499222 0.0110875 2.61248e-20)
(0.554612 0.0131403 -9.88751e-20)
(0.499871 0.00349901 0)
(0.508696 0.0016759 3.5733e-21)
(0.493806 -0.000543518 0)
(0.48871 -0.0329211 -3.01942e-20)
(0.499853 0.00349358 -8.80935e-25)
(0.521334 0.0256231 8.77211e-21)
(0.499091 0.0112677 1.54808e-21)
(0.498878 -0.00225855 3.25974e-20)
(0.529727 -0.00855347 0)
(0.487145 -0.0010047 6.7266e-22)
(0.522456 -0.0138859 0)
(0.501212 -0.0012522 1.05209e-24)
(0.560107 -7.37989e-05 0)
(0.485336 -0.000846067 2.36326e-21)
(0.529928 0.0233205 -1.43201e-20)
(0.560799 0.0363907 9.97293e-20)
(0.500105 -0.0034031 -4.26581e-22)
(0.498885 -0.000548898 -2.23381e-23)
(0.501359 0.0129317 -2.08218e-20)
(0.505371 -0.000346343 -7.03006e-21)
(0.500166 0.00238925 -3.03814e-24)
(0.500523 -0.00212373 -5.80529e-23)
(0.48706 -0.00102388 -6.13811e-22)
(0.539857 0.00249357 -2.19293e-20)
(0.50099 0.000674881 -1.30919e-20)
(0.581534 -0.0828289 0)
(0.50377 0.000626952 3.85782e-22)
(0.498488 -0.00122503 -9.66728e-24)
(0.500455 -0.00209115 0)
(-0.0124494 -0.0216068 1.22845e-20)
(0.268873 0.0531271 5.28683e-20)
(0.49872 0.000229709 -1.14434e-23)
(0.539674 0.00689381 -2.66777e-20)
(0.501921 0.00250979 -1.13811e-21)
(0.498608 0.000228503 -6.03196e-25)
(0.493271 0.00227995 9.2259e-22)
(0.581417 -0.0810922 2.71463e-20)
(0.5219 0.0215512 -4.55176e-21)
(0.531958 0.0104939 1.75511e-20)
(0.500097 -0.000228239 -5.25055e-23)
(0.522032 -0.0137778 2.58975e-21)
(0.519155 0.00245407 0)
(0.501264 0.00236709 -1.2992e-23)
(0.376811 0.110072 0)
(0.507576 0.00206285 1.44362e-21)
(0.526436 0.0207427 6.71923e-22)
(0.501484 -0.000624018 -1.74591e-24)
(0.511339 0.00181421 8.03546e-21)
(0.504828 0.00134131 3.91903e-21)
(0.383804 -0.0521973 -1.75648e-20)
(0.499896 0.00342739 -1.4948e-22)
(0.559685 0.0375827 -1.09382e-19)
(0.485543 0.0633143 -4.11356e-21)
(0.502056 -0.00265602 -9.45955e-21)
(0.496812 -0.0445051 -4.48601e-20)
(0.416625 0.0276674 0)
(0.513751 0.00035393 2.6548e-21)
(0.500712 0.00022228 2.0521e-24)
(0.502675 0.00127364 -1.75838e-21)
(0.499482 -0.0237689 -1.53746e-20)
(0.499946 3.55736e-05 1.28479e-23)
(0.518657 0.00212827 -7.43387e-22)
(0.49573 0.020623 0)
(0.506023 -0.00151331 -1.5344e-22)
(0.56442 0.0948243 -2.97625e-21)
(0.502694 0.00223353 8.37814e-24)
(0.487638 0.0032148 -4.83103e-21)
(0.526333 0.0733358 1.70949e-20)
(-0.00621803 -0.0161621 0)
(-0.00587823 -0.0160064 -1.27994e-20)
(0.36921 0.108446 7.19947e-21)
(0.496945 -6.5104e-06 -7.96563e-24)
(0.505239 0.00155029 -9.02646e-21)
(0.503077 -0.0334423 3.57127e-20)
(0.500092 0.00315791 0)
(0.500264 0.000817322 0)
(0.526461 0.00177339 -1.42022e-20)
(0.500157 -0.000258754 1.27949e-20)
(0.496619 0.00106323 -2.98391e-22)
(0.501189 0.000879449 -6.70282e-24)
(0.499135 -0.0239191 -3.64253e-20)
(0.510505 0.00999116 -4.43537e-22)
(0.499751 -0.000979555 0)
(0.50064 -0.00130612 0)
(0.492547 -0.00232039 0)
(0.500932 0.000677818 0)
(0.500291 0.000829919 0)
(0.497231 0.00133472 0)
(0.494273 -0.00228402 0)
(0.498523 -0.00118735 0)
(0.502338 6.35824e-07 1.58374e-23)
(0.505021 0.00140913 -2.35228e-20)
(0.499934 -1.32363e-05 2.71965e-20)
(0.501643 0.0127635 0)
(0.500356 -8.10054e-05 0)
(0.526026 0.00752419 -1.15155e-20)
(0.499134 4.32051e-05 1.3996e-23)
(0.500907 -0.0025471 1.74615e-22)
(0.514953 0.000203862 -4.19565e-21)
(0.502724 0.00212422 2.67147e-23)
(0.499429 0.000116024 -9.03686e-24)
(0.506305 -0.00370469 -1.26866e-22)
(0.5061 -0.000897495 1.88108e-22)
(0.500893 0.00250206 -4.32409e-23)
(0.501877 0.000267397 0)
(0.53436 0.0173045 0)
(0.560978 -0.000625756 4.13579e-22)
(0.512847 -0.0217916 0)
(0.503789 0.000476697 2.91952e-22)
(0.492218 0.00250232 -7.50442e-24)
(0.498576 -0.00121603 -2.81374e-22)
(0.493072 0.00218059 -9.1563e-22)
(0.415388 0.0169139 9.50613e-22)
(0.467454 -0.0242079 -2.45599e-22)
(0.493505 -0.00234177 -5.58494e-22)
(0.521911 0.0212686 5.9361e-21)
(0.522497 0.0043313 -8.46904e-21)
(0.487105 0.00752864 -2.17476e-21)
(0.499468 0.0038451 -1.52124e-21)
(0.50506 0.00150097 0)
(0.500301 0.0029121 0)
(0.505386 -0.000254991 7.83111e-21)
(0.503775 0.000810075 2.0598e-22)
(0.497856 0.0138609 1.33764e-20)
(0.522516 -0.00938459 4.1664e-23)
(0.523019 0.0124718 9.5912e-21)
(0.49915 -0.00345804 -3.72736e-23)
(0.500306 0.0024024 -1.20512e-22)
(0.504167 -0.00387182 1.80209e-21)
(0.505869 -0.000846413 1.87832e-22)
(0.44279 -0.0393799 -2.38118e-20)
(0.391227 -0.00584843 -8.78229e-21)
(0.601095 0.00648294 4.14325e-20)
(0.503541 0.000365334 1.56916e-22)
(0.497422 -0.00104091 5.70558e-24)
(0.500102 0.000280956 1.97825e-23)
(0.532018 0.0107286 -1.74485e-20)
(0.497749 -0.00105711 0)
(0.534796 0.00752282 0)
(0.496894 0.00107627 1.12024e-20)
(0.500861 5.13286e-05 0)
(0.475414 -0.0247554 -4.9591e-20)
(0.495626 -0.0126642 -9.34697e-21)
(0.490419 0.000155811 4.7403e-22)
(0.467551 -0.117095 -3.365e-20)
(0.503914 6.84146e-05 5.93552e-21)
(0.504021 0.000100771 -5.60941e-21)
(0.451791 -0.0148756 0)
(0.502237 0.00027706 0)
(0.499851 -0.00242965 0)
(0.49141 -0.00313346 -1.31647e-22)
(0.615167 0.120127 -1.12334e-21)
(0.499704 -0.00238765 1.9978e-22)
(0.522723 0.0124851 -4.67096e-21)
(0.233769 -0.0708146 0)
(0.50037 -0.000129328 -4.43893e-24)
(-0.013851 -0.0249099 2.46777e-20)
(0.442861 -0.0407654 6.33082e-21)
(0.52558 -0.00239529 -7.86641e-21)
(0.505049 0.00143517 6.94701e-21)
(0.513806 -0.00588817 3.12949e-22)
(0.483065 -0.036597 -7.33243e-20)
(0.48218 -0.0362193 6.54153e-20)
(0.501408 -0.0104028 0)
(0.497526 -0.051772 0)
(0.00945511 -0.0116668 -2.21817e-20)
(0.499578 0.000401672 1.25545e-23)
(0.499582 0.000419608 -1.14342e-23)
(0.520442 0.00317899 0)
(0.519735 -0.00136362 1.4922e-21)
(0.5108 0.00662767 2.56898e-22)
(0.500943 0.00249293 -3.66695e-23)
(0.499942 -0.00126716 4.69604e-21)
(0.491353 -0.00338194 1.77955e-22)
(0.501312 0.000342754 -1.0482e-22)
(0.515471 0.000151235 4.61995e-21)
(0.499596 0.000297831 -1.9573e-23)
(0.499473 0.000469694 0)
(0.529099 -0.00853511 -1.9052e-21)
(0.503292 -0.0327142 -1.46272e-20)
(0.48183 -0.0138609 0)
(0.524041 0.0699636 -1.16029e-22)
(0.496847 0.00283043 -1.64897e-21)
(0.501703 -0.000389153 0)
(0.53279 0.0334298 -2.74417e-20)
(0.453603 0.0054055 -5.27975e-20)
(0.510479 0.0102285 6.74029e-22)
(0.499975 0.00303962 2.79865e-21)
(0.534511 -0.00132526 -1.70617e-20)
(0.381696 -0.314478 -3.65603e-21)
(0.501528 -0.000466815 0)
(0.486753 0.0638255 -5.34449e-22)
(0.522536 0.0688121 0)
(0.155136 -0.132935 0)
(0.491173 0.0139401 0)
(0.502939 -0.00212874 7.8357e-23)
(0.59014 0.140586 -4.67093e-20)
(0.531479 0.00253678 -8.84149e-21)
(0.502397 0.00272966 4.36466e-22)
(0.51144 -0.0121808 -3.36939e-22)
(0.504629 -0.00198149 0)
(0.522278 -0.00946629 0)
(0.500953 0.000801318 0)
(0.505824 0.000615411 4.12792e-22)
(0.500961 0.000871511 1.60209e-24)
(0.498853 -0.00342078 -3.13603e-23)
(0.53039 -0.00869779 0)
(0.500088 0.00101542 1.74114e-20)
(0.534402 0.017069 -4.33679e-21)
(0.486679 -0.000247132 -2.72889e-21)
(0.499463 0.000395953 0)
(0.466446 -0.0237335 1.36775e-20)
(0.49104 0.000757483 0)
(0.508764 -0.00157728 -1.48886e-20)
(0.500222 -0.00227173 3.77455e-20)
(0.500179 -0.000280235 -5.53952e-20)
(0.525893 0.0173047 1.82587e-21)
(0.502431 -0.0139939 1.88448e-20)
(0.502207 0.000373408 -7.51922e-25)
(0.513866 -0.0216958 0)
(0.531716 0.00238144 -3.14749e-21)
(0.506581 0.00026335 -3.3164e-22)
(0.501772 -0.0102992 0)
(0.502614 -0.00554131 7.85746e-21)
(0.554476 -0.122471 0)
(0.546242 0.0290978 1.65639e-20)
(0.476063 -0.0251951 0)
(0.498667 0.000141436 0)
(0.534771 0.00773116 -1.54522e-21)
(0.273478 0.0580507 -5.30258e-20)
(0.477673 -0.0373085 -2.35574e-20)
(0.525605 0.0170392 0)
(0.504602 -0.00383705 -1.54549e-21)
(0.500076 0.00104085 3.74904e-23)
(0.451048 -0.00834309 3.87482e-21)
(0.499852 -0.00138561 0)
(0.499929 -0.000500555 1.82294e-23)
(0.452835 -0.0156091 -1.62877e-20)
(0.478552 -0.0365863 -1.01789e-20)
(0.503831 0.000810509 -1.84792e-22)
(0.534134 -0.00138455 2.74427e-20)
(0.482078 0.00829228 -1.31314e-21)
(0.500451 -0.00186434 -2.69823e-20)
(0.491486 0.000642153 8.44712e-22)
(0.500177 0.00308005 -1.14614e-20)
(0.522177 0.00448441 8.48253e-21)
(0.14767 -0.00291179 -1.48251e-19)
(0.499552 0.000775021 1.23149e-23)
(0.499476 -0.000682594 -5.51103e-25)
(0.505594 -0.0197518 0)
(0.499558 0.000114714 0)
(0.511069 -0.0119626 -3.23226e-22)
(0.524609 0.00677102 0)
(0.499977 -0.00107961 0)
(0.504892 0.0019576 -2.4739e-21)
(0.539075 0.00698296 2.18446e-20)
(0.499798 0.000838517 1.62878e-23)
(0.502539 -0.000258993 0)
(0.49119 0.0142426 -3.48207e-22)
(0.500643 -0.00127017 0)
(0.50529 -0.00174461 -1.08844e-21)
(0.499925 -0.00129436 1.88915e-20)
(0.493829 -0.000521832 1.25567e-22)
(0.502524 -0.00538441 -5.51011e-21)
(0.514073 0.0234913 -3.5577e-22)
(0.505505 0.0127897 9.27122e-21)
(0.520445 -0.01316 3.00437e-21)
(0.497705 0.003298 0)
(0.501194 -0.00117191 0)
(0.489268 -0.000166726 0)
(0.501896 0.000280825 1.01487e-24)
(0.47411 -0.116393 6.34737e-20)
(0.0177954 -0.0125489 2.58957e-20)
(0.501476 0.000407519 5.65195e-23)
(0.554447 0.0249152 0)
(0.497211 0.00293064 6.5823e-22)
(0.386238 -0.0509454 0)
(0.495012 0.00127032 -8.19196e-21)
(0.500045 9.10219e-05 -2.68996e-23)
(0.501944 0.00260655 0)
(0.497707 0.00337994 0)
(0.500665 0.00025764 0)
(0.531224 0.0673645 -6.23294e-21)
(0.526159 0.00751984 1.20487e-20)
(0.499838 0.000817672 -2.45385e-23)
(0.502966 -0.0139505 5.77447e-21)
(0.493339 -0.000326562 2.25081e-21)
(0.500002 0.00135392 -3.36165e-20)
(0.501713 -0.00251977 1.54992e-22)
(0.492915 -0.00224775 0)
(0.501607 -0.000405803 2.93095e-23)
(0.511686 0.00174426 0)
(0.501683 -0.0004686 -3.08555e-24)
(0.493338 -0.000342837 -1.57576e-21)
(0.497358 0.00140293 3.99331e-21)
(0.499967 0.000763363 -4.99495e-24)
(0.500837 -0.0016939 0)
(0.492993 0.00213437 -7.61331e-22)
(0.63086 -0.00151445 0)
(0.500851 0.000786161 0)
(0.502524 -0.00033625 0)
(0.520462 -0.0129646 -4.09151e-21)
(0.479899 -0.0953645 -1.91346e-20)
(0.507771 0.0219924 1.37714e-21)
(0.504731 -0.00194144 0)
(0.295352 0.24894 0)
(0.500946 0.000247529 0)
(0.500787 0.000431711 1.81654e-23)
(0.500618 0.000256686 0)
(0.45254 -0.00909687 0)
(0.516498 -0.0213687 -1.04012e-21)
(0.499656 -0.0024031 -2.58708e-20)
(0.503566 -0.000172939 -5.28782e-22)
(0.496671 0.00105473 -2.24072e-22)
(0.485875 0.000944627 1.41013e-22)
(0.514089 0.0137208 4.22258e-21)
(0.533194 0.116558 5.95961e-21)
(0.503372 -0.000848797 0)
(0.376845 -0.0717944 0)
(0.489377 -0.00015378 6.45605e-23)
(0.500347 7.81599e-05 1.73008e-23)
(0.500423 -0.00186447 0)
(0.520337 0.0034526 0)
(0.531357 -0.0103984 -4.2681e-20)
(0.417963 0.0299121 0)
(0.500124 -0.00116153 -2.72448e-23)
(0.494791 0.0149338 -4.61624e-21)
(0.522979 -0.0145329 -6.45427e-21)
(0.457327 0.22066 -2.85096e-20)
(0.498635 -9.98358e-06 -2.2364e-21)
(0.500409 -0.00225195 0)
(0.498986 0.000156995 0)
(0.500386 -0.00220135 0)
(0.48399 0.229963 -6.17824e-20)
(0.475899 -0.0320803 0)
(0.517396 0.0240989 3.49727e-21)
(0.522828 -0.0142284 0)
(0.517902 0.0243625 -3.98315e-21)
(0.514378 0.0202051 1.52177e-20)
(0.499555 0.000454744 0)
(0.502525 0.00316046 -3.63512e-22)
(0.475637 -0.0331148 0)
(0.500132 -0.000568584 3.35161e-20)
(0.498775 -0.000753095 0)
(0.572548 0.0130281 -6.85074e-22)
(0.499998 0.00131266 1.50804e-20)
(0.497493 -0.000960403 0)
(0.545928 -0.0112268 3.30808e-20)
(0.493001 0.0021243 6.99752e-22)
(0.499682 0.0007925 -4.19855e-24)
(0.545506 0.0283459 0)
(0.298258 -0.0914674 3.92355e-22)
(0.498015 0.00123066 -1.51788e-22)
(0.50037 -0.000625189 3.88343e-23)
(0.511876 0.00163478 -1.23345e-22)
(0.242751 -0.0693121 -3.39985e-20)
(0.486089 0.000961949 4.03149e-22)
(0.518759 0.0040939 2.27487e-21)
(-0.00853577 -0.0196489 1.3388e-20)
(0.497289 0.00284143 0)
(-0.00652275 -0.0194121 3.27105e-21)
(0.486389 -0.0196293 7.54656e-21)
(0.505012 0.0129413 9.41921e-21)
(0.499032 -0.000954699 -2.50152e-24)
(0.524245 0.0923599 3.23375e-20)
(0.499421 -0.000162697 0)
(0.501791 -0.000767876 0)
(0.501569 -0.00132323 -4.79138e-21)
(0.514801 0.0236265 0)
(0.498382 0.00203658 0)
(0.585742 0.140462 4.5373e-20)
(0.486585 -0.000321821 2.14389e-21)
(0.499986 -0.000398768 -2.31037e-23)
(0.495843 -0.000576451 -1.48642e-20)
(0.50077 0.000707678 1.81519e-24)
(0.499613 -0.000498909 4.35171e-20)
(0.503306 -0.000799491 0)
(0.510421 -0.0282109 9.51681e-21)
(0.514851 0.0199594 -9.70081e-21)
(0.499785 0.000568581 9.65444e-21)
(0.501023 0.000100352 -1.06046e-23)
(0.501646 -0.00113035 0)
(0.508406 -0.0026999 8.28529e-21)
(0.500347 8.79414e-05 -1.48938e-23)
(0.508768 -0.00268615 -2.06242e-20)
(0.510752 0.00645106 -1.32717e-22)
(0.50026 -0.00229455 -4.30187e-20)
(0.502397 -0.00294806 -3.81994e-22)
(0.495095 -0.0034323 -1.29826e-21)
(0.500747 0.00204898 -3.02341e-20)
(0.509593 0.00398134 2.5435e-21)
(0.500566 -0.000616791 -2.10985e-23)
(0.51643 0.023595 -1.55589e-21)
(0.504897 0.00205368 1.69623e-21)
(0.503174 0.000979009 -1.24165e-20)
(0.507168 0.00195206 -1.13489e-21)
(0.513969 0.0134978 -4.59112e-22)
(0.500782 0.00176421 4.09399e-22)
(0.499723 -0.00116924 5.39704e-20)
(0.500662 0.0303061 -3.56108e-20)
(0.502081 0.000585387 -4.36131e-23)
(0.494993 0.00284651 -1.41275e-21)
(0.497032 0.0043457 1.49463e-20)
(0.505707 0.000916601 -5.10084e-22)
(0.512384 -0.00654922 4.54373e-21)
(0.410133 0.108403 5.07195e-20)
(0.5001 -0.000546207 -1.35236e-20)
(0.499941 0.000770466 2.85446e-23)
(0.497242 0.000223819 -1.50982e-22)
(0.517222 0.0234039 -1.78178e-22)
(0.499916 -0.0013104 -4.25137e-21)
(0.54794 -0.0292812 0)
(0.499164 0.000508403 0)
(0.500326 -8.47061e-05 0)
(0.505181 0.000957381 0)
(0.500794 -0.00170792 0)
(0.628332 -0.00217809 -5.36073e-20)
(0.497382 0.00345111 0)
(0.524856 -0.0169056 -4.90328e-23)
(0.513667 -0.00592402 0)
(0.525296 -0.00224644 6.61701e-21)
(0.378819 -0.315813 1.62357e-21)
(-0.00961306 0.00998033 0)
(0.506599 -0.000653448 -1.08862e-23)
(-0.155474 0.00496631 -8.35233e-20)
(0.502364 0.0035665 -6.77859e-22)
(0.500003 -0.00116394 3.98413e-23)
(0.501592 -0.00307345 0)
(0.501874 0.00369893 0)
(0.500891 8.17708e-05 -5.14026e-24)
(0.500754 0.000737769 -3.85092e-20)
(0.501003 0.000589063 0)
(0.500876 4.51594e-05 -4.19953e-23)
(0.480366 -0.000272442 6.85975e-22)
(0.518904 0.00399592 0)
(0.527043 0.0734813 0)
(0.478823 0.00518686 -5.67019e-20)
(0.356037 -0.0397775 0)
(0.499986 -0.00350033 5.7986e-23)
(0.283376 -0.0870763 0)
(0.512518 -0.00677384 4.87935e-21)
(0.0199807 -0.0141326 -1.60683e-22)
(0.513939 -0.011179 0)
(0.501057 -0.00129136 -1.04237e-24)
(0.486293 0.000289335 0)
(0.501169 -0.00139954 0)
(0.500541 -0.00055719 0)
(0.498567 -0.00326385 1.85498e-20)
(0.493763 0.00385746 -6.40398e-20)
(0.520324 -0.00121575 0)
(0.520819 0.0229911 1.68006e-21)
(0.497829 -0.000938822 -4.25787e-21)
(0.499823 -0.00358311 -1.87935e-20)
(0.502576 0.000343072 0)
(0.490069 0.0282943 -2.73658e-20)
(0.500033 -0.000699811 -4.68971e-24)
(0.486282 -5.32098e-05 -1.9574e-21)
(0.548904 -0.0298817 0)
(0.527536 0.0897562 1.7487e-20)
(0.502029 0.000616018 1.62238e-23)
(0.500705 0.00206117 3.02402e-20)
(0.527765 -0.0181675 -1.02314e-20)
(0.571035 0.0123815 -7.29168e-20)
(0.511836 0.0220807 -1.93824e-22)
(0.490163 -0.00202419 -2.63045e-20)
(0.510429 -0.001306 -1.68977e-21)
(0.497574 0.00080995 -5.654e-23)
(0.502691 -0.000692201 0)
(0.486614 0.000344966 2.48429e-20)
(0.34168 0.0480899 7.85653e-20)
(0.50159 -0.00301109 -6.14959e-24)
(0.501584 0.000520678 0)
(0.514495 -0.0110577 4.33528e-24)
(0.495754 -3.88087e-05 0)
(0.525965 0.0714144 -1.45316e-20)
(0.492274 -0.00267683 0)
(0.494109 0.000629787 0)
(0.51375 -0.00862363 0)
(0.500701 -0.000618088 -5.51e-24)
(0.602412 0.0594539 1.2509e-20)
(0.506616 0.0220696 0)
(0.499867 -0.000587979 -6.65955e-24)
(0.499918 -0.00208757 1.36088e-20)
(0.50174 0.00147038 0)
(0.505224 0.00927816 -2.97954e-20)
(0.47902 0.00470764 5.09826e-20)
(0.490002 0.0287819 0)
(0.480902 -0.0936894 1.9784e-20)
(0.495649 0.0102486 3.40777e-20)
(0.499946 0.00033768 1.78629e-23)
(0.488342 0.00386274 8.88252e-21)
(0.495048 0.00271182 -6.1415e-22)
(0.501368 0.000832966 0)
(0.510221 -0.0275166 0)
(0.501227 0.000887294 0)
(0.48612 -0.000137677 1.75789e-21)
(0.512282 0.0265884 2.70787e-21)
(0.480137 -0.000182943 0)
(0.502622 0.00310092 0)
(0.086508 0.0321891 -9.6978e-21)
(0.500587 -0.000712461 2.10936e-23)
(0.506186 -0.019653 -2.1654e-20)
(0.520829 -0.0014586 0)
(0.495975 -6.9639e-05 0)
(0.528106 -0.000353098 7.96873e-21)
(0.497338 0.00306162 1.70655e-21)
(0.505048 0.00013468 -5.91227e-22)
(0.495804 0.0100334 0)
(0.503602 -0.00210124 5.49128e-23)
(0.501108 2.1562e-05 1.34392e-20)
(0.497627 -0.00156488 0)
(0.519166 0.000217558 2.01506e-21)
(0.478461 0.000427516 -1.00948e-21)
(0.497952 0.00131279 -1.39138e-22)
(0.537594 0.0154151 2.52276e-20)
(0.500807 0.00075687 -1.47226e-23)
(0.497744 -0.000881019 2.77535e-20)
(0.495882 -0.000562037 -3.90315e-20)
(0.486151 0.148522 2.7233e-21)
(0.501858 -0.00127041 -1.14444e-21)
(0.484914 -0.00910047 3.38002e-21)
(0.506582 0.0023516 0)
(0.495661 -0.0140306 -4.29179e-20)
(0.553188 -0.0116168 -4.13607e-20)
(0.491607 0.00069215 1.43166e-21)
(0.500475 -0.002756 -4.56886e-21)
(0.50102 0.000619749 0)
(0.413859 0.110543 -3.90183e-20)
(0.517968 -0.00834186 0)
(0.502535 0.00234918 0)
(0.50372 -0.000203864 6.75239e-22)
(0.544287 -0.00735129 0)
(0.501758 -0.00246111 -1.32948e-22)
(0.436162 0.00949942 1.79015e-20)
(0.505674 0.00934357 2.68317e-20)
(0.57946 -0.0561016 9.84098e-20)
(0.509067 -0.00177377 1.7413e-20)
(0.533881 -0.0113467 2.39806e-20)
(0.497088 0.00415735 -2.68466e-21)
(0.499095 0.000593407 1.35197e-20)
(0.50262 -0.000654478 1.84033e-20)
(0.501034 0.00230021 6.5802e-24)
(0.496878 0.00185183 0)
(0.500933 -0.00155924 0)
(0.527767 -0.0182968 9.92936e-21)
(0.508907 -0.00212517 -2.87821e-22)
(0.497085 -0.00148521 -2.2505e-20)
(0.500511 -0.00275124 1.53917e-20)
(0.501521 0.000508119 3.89512e-24)
(0.490645 -9.00429e-06 -3.50968e-22)
(0.501104 0.00242185 -3.46291e-23)
(0.501143 -0.00156857 -5.47618e-24)
(0.533205 0.113807 -8.92389e-21)
(0.520732 0.022737 -2.83485e-21)
(0.573891 0.00938885 -7.63449e-20)
(0.449833 0.0350703 3.84509e-20)
(0.304703 0.24394 0)
(0.499672 0.000520571 -1.10217e-20)
(0.501187 0.00231668 0)
(0.498995 0.0012702 -5.05951e-23)
(0.499726 -0.00101589 -1.81918e-23)
(0.496805 0.00182289 0)
(0.517478 -0.00822256 2.46233e-21)
(0.506721 0.000610489 0)
(0.499962 -0.000548801 -4.10213e-23)
(0.499998 -0.000471781 -3.36143e-23)
(0.500692 -0.00088596 1.08516e-20)
(0.264242 -0.00369227 1.09914e-19)
(0.490295 0.000477052 -2.66146e-21)
(0.499376 0.000796978 1.44849e-23)
(0.495761 -0.0127108 5.12466e-20)
(0.549254 -0.0241026 -3.45047e-21)
(0.490417 -0.00216692 -5.89189e-22)
(0.499718 -0.00102649 -1.39845e-26)
(0.495572 -0.00362229 9.11566e-22)
(0.6114 0.191873 2.66967e-20)
(0.499042 -0.000820363 -1.99746e-23)
(0.500749 0.00201482 0)
(0.500501 0.000184921 0)
(0.497332 -0.00318872 -5.01115e-22)
(0.54855 -0.023569 3.58453e-21)
(0.490091 0.00040285 1.70321e-21)
(0.503482 0.000794021 0)
(0.499675 -0.00260572 9.16269e-23)
(0.522267 -0.0635726 0)
(0.50421 -4.31848e-05 2.47423e-21)
(0.504446 -0.00209016 0)
(0.612559 0.121768 2.93103e-20)
(0.491926 -0.00242678 1.53526e-21)
(0.50618 0.00307611 0)
(0.500345 0.00187219 4.32259e-23)
(0.480388 0.000326335 -2.10846e-21)
(0.4933 0.0131336 0)
(0.497392 -0.00317831 -6.95651e-22)
(0.511679 0.021956 2.03409e-22)
(0.245577 -0.0718134 -4.34885e-21)
(0.498354 0.00131454 -2.57138e-23)
(0.496147 0.024921 0)
(0.49755 0.0208489 0)
(0.502683 0.000390803 2.52212e-22)
(0.501205 -0.000436538 -1.64537e-23)
(0.567665 -0.00229988 0)
(0.506193 0.00224644 0)
(0.524996 -0.0169949 0)
(0.494644 0.00108306 -2.90774e-20)
(0.498458 8.24432e-05 1.91696e-21)
(0.529886 0.0218137 0)
(0.506666 -0.000527342 2.90063e-22)
(0.499694 -0.00119943 -3.62167e-20)
(0.501559 -0.000431729 7.28847e-23)
(0.504151 0.00011563 0)
(0.521065 -0.00535969 -1.00728e-21)
(0.500515 -0.00282944 0)
(0.499118 0.000123751 0)
(0.499438 0.00190933 -1.32122e-20)
(0.494122 -0.00320266 7.71603e-22)
(0.195024 -0.174875 7.33518e-21)
(0.490806 0.00174436 2.01266e-20)
(0.53291 -0.0021043 9.39625e-21)
(0.537272 0.0154796 -2.68924e-20)
(0.499014 -0.000974179 1.77425e-24)
(0.501797 -0.000440506 0)
(0.498746 -0.0514732 0)
(0.489208 0.015291 0)
(0.491841 0.0025396 0)
(0.0968313 0.0426585 2.06274e-20)
(0.503999 0.00120078 -5.19499e-21)
(0.502625 -3.02185e-05 -1.1307e-23)
(0.50002 0.000168213 2.5841e-20)
(0.497072 -0.00150859 0)
(0.532848 -0.00244178 -1.74793e-20)
(0.491887 0.00246388 0)
(0.0157329 -0.00792048 6.85556e-20)
(0.495017 -0.00604309 -4.93208e-20)
(0.477682 0.000275472 8.3115e-22)
(0.499901 -0.00259019 -1.16624e-22)
(0.500501 -0.00198442 0)
(0.334308 -0.0684943 5.67265e-21)
(0.51901 0.000257969 1.72017e-21)
(0.503038 -0.00914131 0)
(0.501609 0.000878108 -2.01487e-23)
(0.503445 0.000711354 0)
(0.502938 0.000317451 0)
(0.450372 0.0337905 -3.84217e-20)
(0.501778 0.000992386 -2.20517e-23)
(0.530424 0.0215329 0)
(0.498903 -0.000858603 3.78511e-24)
(0.489277 0.0187331 0)
(0.501345 0.00246061 -3.08093e-23)
(0.499717 0.00274911 -1.62972e-20)
(0.497484 0.000734473 2.91121e-23)
(0.341394 0.0518641 -8.33197e-20)
(0.501096 -0.00290382 1.24378e-22)
(0.502863 -0.00363263 0)
(0.521169 -0.062631 -8.59764e-21)
(0.48685 -0.0195707 -8.67348e-21)
(0.502607 4.05064e-05 0)
(0.500014 0.000146999 0)
(0.503069 -0.00916312 1.76459e-20)
(0.528623 0.0681638 2.00179e-20)
(0.510334 -0.00140599 0)
(0.502115 0.000115811 1.09422e-21)
(0.504005 0.00347208 -1.75958e-22)
(0.493875 0.00387204 7.09144e-20)
(0.544347 0.0467393 3.91429e-20)
(0.361245 -0.00164942 2.25864e-20)
(0.503217 0.00111232 0)
(0.499759 0.00276458 -5.84232e-21)
(0.508586 0.00179984 1.14721e-20)
(0.562271 -0.078965 -1.83227e-20)
(0.50636 0.00302181 0)
(0.49637 0.00300678 -3.7886e-22)
(0.500745 0.000272519 0)
(0.49955 -0.0010909 7.15144e-24)
(0.492153 0.0025293 -1.00289e-21)
(0.501008 -0.001059 0)
(0.502799 -0.00361865 7.9246e-23)
(0.501534 -0.00139441 -4.75188e-21)
(0.50296 -0.0400717 0)
(0.500703 0.000214801 -3.02915e-25)
(0.498738 -0.000418945 2.57805e-20)
(0.483824 -0.0089078 3.19747e-21)
(0.500016 7.18277e-07 5.62055e-20)
(0.479258 0.000306507 2.71632e-21)
(0.554651 -0.119944 0)
(0.616854 -0.0478861 0)
(0.500714 2.81663e-05 1.56137e-24)
(0.514118 -0.00873857 0)
(0.323204 -0.00352958 0)
(0.503318 -0.000249477 -4.44388e-22)
(0.161031 0.00229117 1.03913e-19)
(0.517121 -0.0160906 6.81206e-22)
(0.499072 0.000553952 0)
(0.530756 0.0111596 -9.62056e-21)
(0.50142 0.00204405 1.11452e-23)
(0.535005 0.0169792 0)
(0.615526 -0.0497873 0)
(0.497647 0.000385985 -2.20779e-23)
(0.502902 -0.000930607 0)
(0.518563 0.0169545 2.47679e-22)
(0.501741 -0.0018755 -1.42108e-21)
(0.490891 0.0301422 1.25477e-20)
(0.515098 -0.00660972 0)
(0.505814 0.00028171 -1.15023e-20)
(0.498603 -0.000435603 -5.45879e-21)
(0.252697 -0.00383273 -1.15185e-19)
(0.497639 0.121861 3.0888e-21)
(0.498008 -0.00140219 0)
(0.498307 -0.00321714 0)
(0.504615 0.000941315 0)
(0.496561 0.0022286 7.70939e-24)
(0.493853 -0.00109073 -7.59428e-22)
(0.499604 -0.00114816 -3.64426e-24)
(0.50208 0.00268833 3.31991e-21)
(0.514827 0.005314 -5.29588e-21)
(0.500735 0.00085561 -9.12166e-22)
(0.500986 0.000546838 0)