/*--------------------------------*- C++ -*----------------------------------*\
  =========                 |
  \\      /  F ield         | OpenFOAM: The Open Source CFD Toolbox
   \\    /   O peration     | Website:  https://openfoam.org
    \\  /    A nd           | Version:  9
     \\/     M anipulation  |
\*---------------------------------------------------------------------------*/
FoamFile
{
    format      ascii;
    class       volScalarField;
    location    "0.05";
    object      alpha.water;
}
// * * * * * * * * * * * * * * * * * * * * * * * * * * * * * * * * * * * * * //

dimensions      [0 0 0 0 0 0 0];

internalField   nonuniform List<scalar> 
1915
(
3.71162e-15
1.1177e-15
4.06348e-15
5.32611e-16
2.83075e-15
2.10546e-16
1.14579e-15
7.7738e-17
4.21645e-16
2.84073e-17
1.52336e-16
1.0753e-17
5.3847e-17
4.39565e-18
1.91905e-17
1.98729e-18
7.04228e-18
9.89539e-19
2.65736e-18
5.26873e-19
3.41086e-37
2.16081e-38
7.35342e-40
2.23658e-41
6.90803e-43
2.32805e-44
8.67336e-46
3.50271e-47
1.49351e-48
6.58316e-50
3.15148e-51
2.45264e-52
1.32823e-53
5.8931e-55
2.57145e-56
1.09345e-57
4.49813e-59
1.78407e-60
6.80052e-62
2.48315e-63
8.65657e-65
2.87128e-66
9.02937e-68
2.68226e-69
7.49786e-71
1.96413e-72
4.79967e-74
1.08835e-75
2.27566e-77
4.3536e-79
7.54484e-81
1.16879e-82
1.58912e-84
1.84763e-86
1.76823e-88
1.31456e-90
6.92948e-93
2.22634e-95
3.31539e-98
1.0706e-98
4.84513e-36
2.82475e-36
2.1567e-38
7.34259e-40
2.23326e-41
6.89916e-43
2.32622e-44
8.67173e-46
3.50314e-47
1.49353e-48
2.0416e-49
2.54885e-50
1.28435e-51
5.1926e-53
2.16442e-54
8.77835e-56
3.44474e-57
1.30345e-58
4.741e-60
1.65262e-61
5.50454e-63
1.74668e-64
5.26382e-66
1.50157e-67
4.03993e-69
1.02101e-70
2.41274e-72
5.3022e-74
1.07653e-75
2.00302e-77
3.37977e-79
5.10039e-81
6.75433e-83
7.64184e-85
7.10479e-87
5.11849e-89
2.60343e-91
7.98107e-94
1.00721e-96
1.07039e-98
6.85142e-34
2.82113e-34
2.31811e-36
7.75387e-38
2.40484e-39
7.59568e-41
2.5747e-42
9.49595e-44
3.76186e-45
1.56687e-46
1.05309e-47
1.06834e-48
4.70028e-50
1.76746e-51
6.79281e-53
2.53694e-54
9.16503e-56
3.19216e-57
1.06867e-58
3.42902e-60
1.05164e-61
3.07412e-63
8.54036e-65
2.24787e-66
5.58588e-68
1.30535e-69
2.85563e-71
5.81692e-73
1.09623e-74
1.89617e-76
2.98015e-78
4.20019e-80
5.21558e-82
5.56824e-84
4.93376e-86
3.4366e-88
1.71527e-90
5.2305e-93
9.68549e-96
7.92464e-97
4.67464e-32
1.54478e-32
1.3124e-34
4.32637e-36
1.3582e-37
4.34348e-39
1.46208e-40
5.23739e-42
1.98293e-43
7.81612e-45
3.8313e-46
2.9909e-47
1.18519e-48
4.15154e-50
1.46439e-51
5.01665e-53
1.66187e-54
5.30623e-56
1.62813e-57
4.78737e-59
1.34537e-60
3.60374e-62
9.17508e-64
2.21353e-65
5.04319e-67
1.08094e-68
2.16989e-70
4.0584e-72
7.02827e-74
1.11847e-75
1.6202e-77
2.11066e-79
2.4335e-81
2.42918e-83
2.03302e-85
1.35372e-87
6.51061e-90
2.63942e-92
6.04065e-95
1.0725e-95
1.98526e-30
5.62056e-31
4.8283e-33
1.57718e-34
5.21546e-36
1.70953e-37
5.73872e-39
2.00606e-40
7.27814e-42
2.71485e-43
1.2089e-44
7.04123e-46
2.51454e-47
8.24727e-49
2.68437e-50
8.47727e-52
2.58716e-53
7.60618e-55
2.14794e-56
5.81028e-58
1.50155e-59
3.69731e-61
8.65024e-63
1.91714e-64
4.01148e-66
7.89448e-68
1.4548e-69
2.49754e-71
3.97012e-73
5.80058e-75
7.71868e-77
9.24578e-79
9.81549e-81
9.02293e-83
6.93621e-85
4.65739e-87
2.69241e-89
1.11267e-91
2.79343e-94
6.61627e-95
5.93423e-29
1.5203e-29
1.15935e-31
3.93583e-33
1.34205e-34
4.61421e-36
1.5953e-37
5.52533e-39
1.91137e-40
6.81168e-42
3.59652e-43
1.53921e-44
4.95645e-46
1.53523e-47
4.65715e-49
1.36866e-50
3.88313e-52
1.0604e-53
2.77923e-55
6.97235e-57
1.66987e-58
3.80779e-60
8.24384e-62
1.68938e-63
3.26579e-65
5.93245e-67
1.00815e-68
1.59437e-70
2.33192e-72
3.13027e-74
3.81612e-76
4.17502e-78
4.0175e-80
3.72693e-82
3.06709e-84
2.1495e-86
1.21651e-88
4.96801e-91
1.25549e-93
3.02154e-94
1.34048e-27
3.25994e-28
2.35593e-30
8.48094e-32
3.00272e-33
1.05416e-34
3.671e-36
1.26484e-37
4.31534e-39
1.5203e-40
9.51488e-42
3.17371e-43
9.36178e-45
2.75972e-46
7.89681e-48
2.18475e-49
5.82685e-51
1.49391e-52
3.67197e-54
8.62997e-56
1.93423e-57
4.12302e-59
8.33456e-61
1.59272e-62
2.86712e-64
4.84223e-66
7.63467e-68
1.1172e-69
1.50675e-71
1.86675e-73
2.24948e-75
2.4807e-77
2.4807e-79
2.22432e-81
1.75788e-83
1.18934e-85
6.52593e-88
2.58952e-90
6.29894e-93
1.33989e-93
2.37196e-26
5.76223e-27
4.16862e-29
1.6425e-30
6.15357e-32
2.2224e-33
7.80369e-35
2.67916e-36
9.23381e-38
3.21392e-39
1.93457e-40
6.17309e-42
1.74938e-43
4.93863e-45
1.34915e-46
3.55538e-48
9.01514e-50
2.19383e-51
5.1105e-53
1.13666e-54
2.4074e-56
4.8417e-58
9.21839e-60
1.65597e-61
2.79573e-63
4.4095e-65
6.79481e-67
9.85029e-69
1.32858e-70
1.65987e-72
1.91121e-74
2.01534e-76
1.93122e-78
1.66364e-80
1.26571e-82
8.25182e-85
4.36595e-87
1.66524e-89
3.18304e-92
6.64308e-93
1.53047e-24
2.65638e-25
6.49339e-28
2.92958e-29
1.21138e-30
4.66158e-32
1.68964e-33
5.84446e-35
2.09812e-36
1.21361e-37
4.38805e-39
1.2667e-40
3.57646e-42
9.78356e-44
2.57994e-45
6.54488e-47
1.59377e-48
3.71688e-50
8.28128e-52
1.75817e-53
3.5471e-55
6.77611e-57
1.25688e-58
2.25476e-60
3.81427e-62
6.07426e-64
9.06756e-66
1.26453e-67
1.64129e-69
1.97448e-71
2.191e-73
2.2296e-75
2.06473e-77
1.72049e-79
1.26694e-81
7.99306e-84
4.06817e-86
1.46801e-88
2.3192e-91
3.98891e-92
1.91676e-23
2.9226e-24
7.93959e-26
2.65221e-27
1.01509e-28
3.64029e-30
1.21074e-31
3.67117e-33
1.14371e-34
3.67785e-36
1.11864e-37
3.25696e-39
9.11992e-41
2.45493e-42
6.34691e-44
1.57388e-45
3.73698e-47
8.47912e-49
1.83441e-50
3.7744e-52
7.38981e-54
1.43997e-55
2.66241e-57
4.64772e-59
7.65301e-61
1.1845e-62
1.71819e-64
2.32829e-66
2.93682e-68
3.43433e-70
3.70584e-72
3.66827e-74
3.30444e-76
2.67698e-78
1.91357e-80
1.16842e-82
5.74428e-85
2.01724e-87
3.75682e-90
3.26057e-91
1.06035e-18
2.84299e-19
3.28582e-19
1.06559e-19
7.81908e-20
2.38701e-20
1.72031e-20
4.11468e-21
4.01651e-21
7.64965e-22
1.06249e-21
1.64206e-22
3.21964e-22
4.1829e-23
1.09167e-22
1.24341e-23
4.00654e-23
4.13995e-24
1.55238e-23
1.38389e-24
1.83966e-25
1.31363e-25
7.68721e-26
3.16395e-26
1.22243e-26
4.64801e-27
1.72648e-27
6.22491e-28
2.16614e-28
7.23505e-29
2.30679e-29
6.98011e-30
1.99163e-30
5.31941e-31
1.31889e-31
3.00748e-32
6.24421e-33
1.16814e-33
1.9492e-34
2.87556e-35
3.72598e-36
4.22582e-37
4.08568e-38
4.02936e-20
7.77313e-21
1.44087e-21
2.43086e-22
2.44913e-20
3.94764e-21
5.57853e-22
8.08979e-23
5.41832e-21
8.71773e-22
1.26708e-22
1.56527e-23
8.36014e-22
1.50464e-22
2.17725e-23
2.66693e-24
1.38783e-22
2.4378e-23
3.51167e-24
4.29134e-25
2.5222e-23
4.13152e-24
5.73404e-25
6.88029e-26
5.38251e-24
7.91922e-25
1.01933e-25
1.16926e-26
1.3691e-24
1.79349e-25
2.08891e-26
2.22837e-27
4.03297e-25
4.77042e-26
5.02098e-27
4.9172e-28
1.32981e-25
1.44639e-26
1.39124e-27
1.25429e-28
3.79331e-26
4.66582e-27
4.00922e-28
3.39129e-29
1.36789e-26
1.43302e-27
1.2236e-28
9.81772e-30
5.73045e-27
5.30218e-28
4.2242e-29
3.17502e-30
2.23473e-27
1.96721e-28
1.49138e-29
1.06625e-30
8.29862e-28
7.05193e-29
5.1408e-30
3.53419e-31
3.01728e-28
2.46756e-29
1.72851e-30
1.14427e-31
1.07261e-28
8.42931e-30
5.66779e-31
3.61095e-32
3.70374e-29
2.79529e-30
1.80357e-31
1.10554e-32
1.23448e-29
8.94122e-31
5.53464e-32
3.26368e-33
3.94835e-30
2.74174e-31
1.62754e-32
9.23072e-34
1.20485e-30
8.01118e-32
4.55792e-33
2.48544e-34
3.48703e-31
2.21686e-32
1.20802e-33
6.33079e-35
9.51018e-32
5.77173e-33
3.0103e-34
1.51552e-35
2.42675e-32
1.40373e-33
7.00355e-35
3.38633e-36
5.74783e-33
3.16421e-34
1.50979e-35
7.01137e-37
1.25266e-33
6.55527e-35
2.99184e-36
1.33509e-37
2.48878e-34
1.23722e-35
5.40567e-37
2.32043e-38
4.46552e-35
2.1089e-36
8.83523e-38
3.65486e-39
7.17173e-36
3.22054e-37
1.29705e-38
5.18417e-40
1.02319e-36
4.3771e-38
1.70057e-39
6.58962e-41
1.28979e-37
5.27042e-39
1.98372e-40
7.48264e-42
1.43261e-38
5.61006e-40
2.05545e-41
7.58127e-43
1.37201e-39
5.18286e-41
1.85773e-42
6.73045e-44
3.57136e-23
2.59293e-24
1.30987e-25
6.24695e-27
2.96106e-28
1.33324e-29
5.62008e-31
2.21405e-32
8.00632e-34
2.69473e-35
8.62775e-37
2.63772e-38
7.70659e-40
2.15291e-41
5.7505e-43
1.4679e-44
3.57808e-46
8.31959e-48
1.84261e-49
3.881e-51
7.76314e-53
1.47206e-54
2.64041e-56
4.46946e-58
7.12083e-60
1.06467e-61
1.48888e-63
1.94011e-65
2.34542e-67
2.61679e-69
2.67658e-71
2.48879e-73
2.07439e-75
1.51348e-77
9.49274e-80
5.64261e-82
2.68747e-84
9.09923e-87
1.99522e-89
4.04436e-90
9.14929e-24
5.85633e-25
3.89986e-26
2.33094e-27
1.23761e-28
6.07196e-30
2.74231e-31
1.15355e-32
4.59066e-34
1.70884e-35
5.96655e-37
1.964e-38
6.11509e-40
1.80515e-41
5.05976e-43
1.34784e-44
3.41342e-46
8.21773e-48
1.88046e-49
4.08819e-51
8.43039e-53
1.6469e-54
3.04322e-56
5.30994e-58
8.73106e-60
1.34985e-61
1.95729e-63
2.65439e-65
3.35645e-67
3.94394e-69
4.29001e-71
4.30045e-73
3.95025e-75
3.29878e-77
2.47486e-79
1.63786e-81
9.25293e-84
4.20154e-86
1.34671e-88
5.0658e-90
1.72356e-24
1.10681e-25
7.59423e-27
4.78576e-28
2.64789e-29
1.34092e-30
6.32777e-32
2.83695e-33
1.19287e-34
4.68926e-36
1.72903e-37
5.99738e-39
1.96161e-40
6.06172e-42
1.77237e-43
4.90826e-45
1.28819e-46
3.20482e-48
7.55404e-50
1.68554e-51
3.56057e-53
7.11349e-55
1.3424e-56
2.3892e-58
4.00335e-60
6.30247e-62
9.30073e-64
1.28331e-65
1.65095e-67
1.97412e-69
2.18652e-71
2.23423e-73
2.09557e-75
1.79143e-77
1.38054e-79
9.41524e-82
5.49933e-84
2.58508e-86
8.45406e-89
1.37483e-90
2.97445e-25
1.85728e-26
1.25426e-27
8.02e-29
4.51922e-30
2.35825e-31
1.15214e-32
5.2574e-34
2.24461e-35
8.99232e-37
3.38791e-38
1.20266e-39
4.02896e-41
1.2754e-42
3.81882e-44
1.08226e-45
2.90409e-47
7.37897e-49
1.775e-50
4.0403e-52
8.69622e-54
1.76819e-55
3.39221e-57
6.13135e-59
1.04233e-60
1.6633e-62
2.48589e-64
3.47091e-66
4.51484e-68
5.45416e-70
6.09794e-72
6.28405e-74
5.93844e-76
5.10966e-78
3.95954e-80
2.71336e-82
1.59187e-84
7.51734e-87
2.4807e-89
3.25278e-91
4.82853e-26
3.19071e-27
2.21958e-28
1.45408e-29
8.49845e-31
4.57292e-32
2.27849e-33
1.05613e-34
4.57298e-36
1.85582e-37
7.0776e-39
2.54206e-40
8.6137e-42
2.75729e-43
8.34632e-45
2.39061e-46
6.48141e-48
1.66341e-49
4.04016e-51
9.28241e-53
2.0159e-54
4.13429e-56
7.99711e-58
1.4569e-59
2.49542e-61
4.0107e-63
6.035e-65
8.48031e-67
1.10965e-68
1.34776e-70
1.51401e-72
1.56639e-74
1.48468e-76
1.27986e-78
9.92383e-81
6.79575e-83
3.97921e-85
1.87367e-87
6.17171e-90
7.13615e-92
7.79026e-27
5.36188e-28
3.8729e-29
2.61872e-30
1.58279e-31
8.77948e-33
4.49385e-34
2.134e-35
9.44072e-37
3.90423e-38
1.51366e-39
5.51479e-41
1.89192e-42
6.1213e-44
1.87018e-45
5.40008e-47
1.47441e-48
3.80738e-50
9.29796e-52
2.14657e-53
4.68189e-55
9.639e-57
1.87101e-58
3.41935e-60
5.87356e-62
9.46455e-64
1.42745e-65
2.00987e-67
2.63432e-69
3.20361e-71
3.60141e-73
3.72629e-75
3.52939e-77
3.03755e-79
2.3491e-81
1.60281e-83
9.34262e-86
4.37629e-88
1.43558e-90
1.49495e-92
1.30423e-27
9.07353e-29
6.70371e-30
4.63036e-31
2.86442e-32
1.62601e-33
8.51366e-35
4.13189e-36
1.86609e-37
7.86828e-39
3.1058e-40
1.15033e-41
4.00564e-43
1.31348e-44
4.06092e-46
1.18492e-47
3.265e-49
8.49858e-51
2.08973e-52
4.85295e-54
1.06381e-55
2.19948e-57
4.28463e-59
7.85346e-61
1.35226e-62
2.18313e-64
3.29724e-66
4.64685e-68
6.09307e-70
7.4087e-72
8.32205e-74
8.5975e-76
8.12392e-78
6.96866e-80
5.36583e-82
3.64131e-84
2.10872e-86
9.80439e-89
3.19373e-91
3.02071e-93
2.39574e-28
1.62892e-29
1.20187e-30
8.34816e-32
5.2218e-33
3.00401e-34
1.59585e-35
7.86171e-37
3.60417e-38
1.54221e-39
6.17491e-41
2.31845e-42
8.17785e-44
2.714e-45
8.48462e-47
2.50094e-48
6.9549e-50
1.82533e-51
4.52146e-53
1.05685e-54
2.32993e-56
4.84105e-58
9.47037e-60
1.74206e-61
3.00843e-63
4.86831e-65
7.36576e-67
1.0393e-68
1.36354e-70
1.65785e-72
1.86078e-74
1.91939e-76
1.80933e-78
1.5469e-80
1.18601e-82
8.0058e-85
4.60685e-87
2.12617e-89
6.87576e-92
5.89738e-94
5.0148e-29
3.24087e-30
2.33424e-31
1.60142e-32
9.97567e-34
5.74284e-35
3.06252e-36
1.51748e-37
7.00599e-39
3.0213e-40
1.21966e-41
4.61768e-43
1.64231e-44
5.49437e-46
1.73096e-47
5.13944e-49
1.43896e-50
3.80029e-52
9.46752e-54
2.22441e-55
4.92659e-57
1.02782e-58
2.01784e-60
3.72308e-62
6.44589e-64
1.04522e-65
1.58383e-67
2.23701e-69
2.93622e-71
3.5694e-73
4.00309e-75
4.12295e-77
3.87776e-79
3.30526e-81
2.52442e-83
1.69608e-85
9.706e-88
4.45095e-90
1.43033e-92
1.11262e-94
1.20607e-29
7.30255e-31
5.05071e-32
3.36844e-33
2.05905e-34
1.17077e-35
6.19543e-37
3.05643e-38
1.40832e-39
6.07169e-41
2.45343e-42
9.30583e-44
3.31766e-45
1.113e-46
3.51677e-48
1.04731e-49
2.94094e-51
7.78886e-53
1.94551e-54
4.58197e-56
1.01699e-57
2.12568e-59
4.17978e-61
7.72189e-63
1.33819e-64
2.17126e-66
3.29099e-68
4.64758e-70
6.09679e-72
7.40379e-74
8.29037e-76
8.52043e-78
7.99193e-80
6.78941e-82
5.16514e-84
3.45462e-86
1.96684e-88
8.96801e-91
2.86613e-93
2.03056e-95
3.10142e-30
1.78063e-31
1.18346e-32
7.63848e-34
4.55385e-35
2.53983e-36
1.32437e-37
6.46069e-39
2.95163e-40
1.26434e-41
5.08405e-43
1.92129e-44
6.83075e-46
2.28677e-47
7.21397e-49
2.14564e-50
6.01889e-52
1.59262e-53
3.97473e-55
9.35339e-57
2.07424e-58
4.33149e-60
8.50839e-62
1.57006e-63
2.71735e-65
4.40244e-67
6.66145e-69
9.389e-71
1.2289e-72
1.48847e-74
1.66175e-76
1.70208e-78
1.5904e-80
1.34535e-82
1.01871e-84
6.77903e-87
3.83859e-89
1.74015e-91
5.53155e-94
3.59158e-96
8.62804e-31
4.67034e-32
2.97505e-33
1.85391e-34
1.07327e-35
5.84204e-37
2.98572e-38
1.43259e-39
6.45558e-41
2.73373e-42
1.08869e-43
4.08053e-45
1.44049e-46
4.79258e-48
1.50357e-49
4.4498e-51
1.24254e-52
3.27379e-54
8.13744e-56
1.90749e-57
4.21419e-59
8.76764e-61
1.71592e-62
3.15479e-64
5.43986e-66
8.77997e-68
1.32337e-69
1.85772e-71
2.42127e-73
2.91969e-75
3.24425e-77
3.30638e-79
3.07307e-81
2.58504e-83
1.94596e-85
1.28704e-87
7.24182e-90
3.26173e-92
1.03067e-94
6.17031e-97
2.65286e-31
1.34595e-32
8.16733e-34
4.87962e-35
2.72482e-36
1.43796e-37
7.15694e-39
3.3569e-40
1.48342e-41
6.17641e-43
2.42365e-44
8.96666e-46
3.12895e-47
1.03024e-48
3.20171e-50
9.39329e-52
2.6018e-53
6.80319e-55
1.67889e-56
3.90844e-58
8.57773e-60
1.77314e-61
3.44844e-63
6.30097e-65
1.07985e-66
1.73229e-68
2.5951e-70
3.62055e-72
4.6894e-74
5.61863e-76
6.20232e-78
6.27849e-80
5.795e-82
4.84001e-84
3.61691e-86
2.37446e-88
1.32601e-90
5.92733e-93
1.85995e-95
1.03154e-97
8.51127e-32
4.09807e-33
2.37853e-34
1.36309e-35
7.33451e-37
3.7444e-38
1.80951e-39
8.26808e-41
3.56961e-42
1.45568e-43
5.60661e-45
2.03962e-46
7.00918e-48
2.27569e-49
6.98118e-51
2.0236e-52
5.542e-54
1.43371e-55
3.5023e-57
8.07434e-59
1.75552e-60
3.59611e-62
6.93232e-64
1.25578e-65
2.13396e-67
3.39475e-69
5.04352e-71
6.97841e-73
8.9638e-75
1.06506e-76
1.16581e-78
1.17008e-80
1.07066e-82
8.86414e-85
6.56581e-87
4.27219e-89
2.36461e-91
1.04766e-93
3.26051e-96
1.67951e-98
2.71711e-32
1.25554e-33
7.02177e-35
3.87983e-36
2.0189e-37
9.99294e-39
4.69418e-40
2.09001e-41
8.81213e-43
3.5165e-44
1.32769e-45
4.74201e-47
1.60205e-48
5.1193e-50
1.54717e-51
4.42191e-53
1.19491e-54
3.05195e-56
7.36445e-58
1.67787e-59
3.60647e-61
7.30596e-63
1.39318e-64
2.49703e-66
4.19912e-68
6.61154e-70
9.72291e-72
1.33172e-73
1.69338e-75
1.99175e-77
2.15813e-79
2.14402e-81
1.94183e-83
1.5912e-85
1.16653e-87
7.51238e-90
4.11544e-92
1.80488e-94
5.56379e-97
2.66094e-99
8.49306e-33
3.78064e-34
2.04491e-35
1.09309e-36
5.51695e-38
2.65404e-39
1.21423e-40
5.27553e-42
2.17452e-43
8.49708e-45
3.14605e-46
1.10331e-47
3.664e-49
1.152e-50
3.42842e-52
9.65569e-54
2.57267e-55
6.48222e-57
1.54373e-58
3.4724e-60
7.37109e-62
1.47509e-63
2.7793e-65
4.92291e-67
8.18259e-69
1.27356e-70
1.85153e-72
2.50719e-74
3.15192e-76
3.66524e-78
3.92625e-80
3.85615e-82
3.45263e-84
2.7969e-86
2.02705e-88
1.29055e-90
6.9898e-93
3.03111e-95
9.24504e-98
4.09061e-100
2.58623e-33
1.10961e-34
5.80813e-36
3.00578e-37
1.47261e-38
6.89089e-40
3.07267e-41
1.30361e-42
5.25611e-44
2.01218e-45
7.30898e-47
2.51772e-48
8.22122e-50
2.54384e-51
7.45624e-53
2.06953e-54
5.43712e-56
1.35144e-57
3.17609e-59
7.05235e-61
1.47817e-62
2.9214e-64
5.43698e-66
9.51371e-68
1.5623e-69
2.40252e-71
3.45117e-73
4.61756e-75
5.73565e-77
6.58989e-79
6.97437e-81
6.76731e-83
5.98604e-85
4.79069e-87
3.43029e-89
2.1578e-91
1.15481e-93
4.94895e-96
1.49268e-98
6.07312e-101
7.63354e-34
3.15705e-35
1.59864e-36
8.00621e-38
3.80609e-39
1.73175e-40
7.5236e-42
3.11597e-43
1.2286e-44
4.60691e-46
1.64142e-47
5.55308e-49
1.7828e-50
5.42879e-52
1.56721e-53
4.28715e-55
1.1107e-56
2.72371e-58
6.31769e-60
1.38495e-61
2.86661e-63
5.59577e-65
1.02877e-66
1.77847e-68
2.88555e-70
4.3844e-72
6.22288e-74
8.22636e-76
1.00955e-77
1.14591e-79
1.19806e-81
1.14835e-83
1.0034e-85
7.93278e-88
5.61154e-90
3.48766e-92
1.84445e-94
7.8126e-97
2.33058e-99
8.65783e-102
2.17057e-34
8.65584e-36
4.23836e-37
2.05286e-38
9.4631e-40
4.18344e-41
1.76945e-42
7.14824e-44
2.75414e-45
1.01081e-46
3.53031e-48
1.17229e-49
3.69848e-51
1.10786e-52
3.14888e-54
8.48735e-56
2.16798e-57
5.24451e-59
1.20055e-60
2.59834e-62
5.31126e-64
1.02414e-65
1.86021e-67
3.17755e-69
5.09462e-71
7.64981e-73
1.07298e-74
1.40172e-76
1.69986e-78
1.90653e-80
1.96951e-82
1.86522e-84
1.61034e-86
1.25802e-88
8.79484e-91
5.40325e-93
2.82543e-95
1.18376e-97
3.49557e-100
1.17819e-102
5.90753e-35
2.27244e-36
1.07559e-37
5.03569e-39
2.24945e-40
9.65497e-42
3.97253e-43
1.56404e-44
5.88337e-46
2.11163e-47
7.22307e-49
2.35237e-50
7.28765e-52
2.14595e-53
6.00177e-55
1.59311e-56
4.01047e-58
9.56708e-60
2.16082e-61
4.61622e-63
9.31749e-65
1.77459e-66
3.18453e-68
5.37521e-70
8.51709e-72
1.26399e-73
1.75233e-75
2.26266e-77
2.71208e-79
3.00642e-81
3.06957e-83
2.87321e-85
2.45193e-87
1.89365e-89
1.30911e-91
7.95602e-94
4.11742e-96
1.70827e-98
5.00022e-101
1.5224e-103
1.52906e-35
5.67621e-37
2.59623e-38
1.17441e-39
5.08109e-41
2.11614e-42
8.46398e-44
3.24529e-45
1.1909e-46
4.17657e-48
1.39808e-49
4.46199e-51
1.35635e-52
3.92336e-54
1.07898e-55
2.81881e-57
6.98946e-59
1.64345e-60
3.66084e-62
7.71712e-64
1.53767e-65
2.8921e-67
5.12672e-69
8.55014e-71
1.33885e-72
1.96384e-74
2.69117e-76
3.43502e-78
4.07014e-80
4.4603e-82
4.50206e-84
4.16635e-86
3.51574e-88
2.68562e-90
1.83708e-92
1.10535e-94
5.66753e-97
2.33172e-99
6.77638e-102
1.85988e-104
3.73971e-36
1.34044e-37
5.92326e-39
2.58797e-40
1.08407e-41
4.37896e-43
1.70176e-44
6.3508e-46
2.27211e-47
7.78112e-49
2.54725e-50
7.96134e-52
2.373e-53
6.73843e-55
1.82113e-56
4.67981e-58
1.14236e-59
2.64626e-61
5.81108e-63
1.2083e-64
2.37595e-66
4.41189e-68
7.72396e-70
1.27259e-71
1.96909e-73
2.85454e-75
3.86659e-77
4.87887e-79
5.71523e-81
6.1923e-83
6.1802e-85
5.65602e-87
4.72107e-89
3.56862e-91
2.4169e-93
1.44091e-95
7.32786e-98
2.99392e-100
8.65415e-103
2.14153e-105
8.58605e-37
2.97366e-38
1.26934e-39
5.35586e-41
2.17174e-42
8.50637e-44
3.21102e-45
1.16594e-46
4.06524e-48
1.35887e-49
4.34834e-51
1.33029e-52
3.88608e-54
1.08276e-55
2.8743e-57
7.26194e-59
1.74436e-60
3.9793e-62
8.61129e-64
1.76558e-65
3.42513e-67
6.27759e-69
1.08519e-70
1.76604e-72
2.69986e-74
3.86789e-76
5.17855e-78
6.45953e-80
7.48117e-82
8.01478e-84
7.91056e-86
7.16097e-88
5.91424e-90
4.42559e-92
2.96931e-94
1.75547e-96
8.86462e-99
3.60203e-101
1.03751e-103
2.31937e-106
1.83791e-37
6.1569e-39
2.539e-40
1.03465e-41
4.06141e-43
1.54257e-44
5.65591e-46
1.99803e-47
6.78829e-49
2.21438e-50
6.92491e-52
2.07315e-53
5.93377e-55
1.62174e-56
4.22736e-58
1.04977e-59
2.48061e-61
5.57123e-63
1.18779e-64
2.40081e-66
4.59396e-68
8.30909e-70
1.41808e-71
2.27922e-73
3.44235e-75
4.87334e-77
6.44897e-79
7.95224e-81
9.10608e-83
9.64703e-85
9.41742e-87
8.43409e-89
6.89422e-91
5.10911e-93
3.39785e-95
1.99366e-97
1.00076e-99
4.05043e-102
1.16475e-104
2.36029e-107
3.64208e-38
1.18191e-39
4.71055e-41
1.85461e-42
7.05019e-44
2.59743e-45
9.2529e-47
3.18079e-48
1.05319e-49
3.35303e-51
1.02478e-52
3.0022e-54
8.41887e-56
2.25685e-57
5.77614e-59
1.40968e-60
3.27655e-62
7.24404e-64
1.52142e-65
3.03123e-67
5.7207e-69
1.02102e-70
1.72024e-72
2.73055e-74
4.07413e-76
5.69962e-78
7.45502e-80
9.08815e-82
1.02902e-83
1.07813e-85
1.04112e-87
9.22651e-90
7.46676e-92
5.48228e-94
3.61618e-96
2.10751e-98
1.05285e-100
4.2511e-103
1.22282e-105
2.25637e-108
6.63318e-39
2.08969e-40
8.05575e-42
3.0668e-43
1.12987e-44
4.04062e-46
1.39935e-47
4.68352e-49
1.51201e-50
4.69993e-52
1.40429e-53
4.02685e-55
1.10658e-56
2.91004e-58
7.31363e-60
1.75433e-61
4.01116e-63
8.73031e-65
1.80632e-66
3.54762e-68
6.60366e-70
1.16307e-71
1.9346e-73
3.03284e-75
4.47074e-77
6.18103e-79
7.99176e-81
9.63255e-83
1.07857e-84
1.11776e-86
1.06794e-88
9.3675e-91
7.50773e-93
5.46388e-95
3.5768e-97
2.07239e-99
1.03163e-101
4.16234e-104
1.20011e-106
2.02714e-109
1.10242e-39
3.38123e-41
1.26244e-42
4.65315e-44
1.66343e-45
5.7806e-47
1.94815e-48
6.35392e-50
2.00157e-51
6.07868e-53
1.77664e-54
4.98925e-56
1.34414e-57
3.46893e-59
8.56391e-61
2.01964e-62
4.54362e-64
9.73765e-66
1.9852e-67
3.84413e-69
7.05889e-71
1.22705e-72
2.01533e-74
3.12083e-76
4.54583e-78
6.21204e-80
7.94082e-82
9.46476e-84
1.04823e-85
1.07473e-87
1.01618e-89
8.82491e-92
7.00724e-94
5.05733e-96
3.28791e-98
1.8957e-100
9.41566e-103
3.80285e-105
1.10144e-107
1.7153e-110
1.66089e-40
4.97781e-42
1.80344e-43
6.44728e-45
2.24007e-46
7.57586e-48
2.48795e-49
7.91692e-51
2.43615e-52
7.23533e-54
2.07035e-55
5.69812e-57
1.506e-58
3.8165e-60
9.26002e-62
2.14802e-63
4.75687e-65
1.00422e-66
2.01798e-68
3.85389e-70
6.98325e-72
1.19842e-73
1.94404e-75
2.97443e-77
4.28218e-79
5.78534e-81
7.31327e-83
8.62196e-85
9.44707e-87
9.58505e-89
8.97147e-91
7.71644e-93
6.07283e-95
4.34902e-97
2.81012e-99
1.614e-101
8.00994e-104
3.24453e-106
9.46154e-109
1.39481e-111
2.25542e-41
6.63533e-43
2.33831e-44
8.12675e-46
2.74999e-47
9.06808e-49
2.90677e-50
9.03809e-52
2.72035e-53
7.91075e-55
2.21853e-56
5.98993e-58
1.55443e-59
3.87112e-61
9.2375e-63
2.109e-64
4.60003e-66
9.57089e-68
1.89662e-69
3.5739e-71
6.39288e-73
1.08353e-74
1.73661e-76
2.62617e-78
3.73804e-80
4.99443e-82
6.24529e-84
7.28495e-86
7.89941e-88
7.93383e-90
7.35359e-92
6.26666e-94
4.89054e-96
3.47738e-98
2.23503e-100
1.28021e-102
6.35806e-105
2.58814e-107
7.61734e-110
1.13206e-112
2.74866e-42
7.97996e-44
2.74333e-45
9.29425e-47
3.0705e-48
9.89343e-50
3.10149e-51
9.43925e-53
2.78329e-54
7.93587e-56
2.18397e-57
5.79107e-59
1.47709e-60
3.6182e-62
8.49848e-64
1.91112e-65
4.10839e-67
8.42984e-69
1.64832e-70
3.06631e-72
5.41729e-74
9.07235e-76
1.43727e-77
2.14913e-79
3.02561e-81
3.99944e-83
4.94889e-85
5.71369e-87
6.1336e-89
6.10032e-91
5.60127e-93
4.73151e-95
3.66354e-97
2.58816e-99
1.65621e-101
9.47262e-104
4.7157e-106
1.93324e-108
5.75741e-111
8.6852e-114
2.99822e-43
8.64111e-45
2.9073e-46
9.63081e-48
3.11452e-49
9.8289e-51
3.01974e-52
9.01267e-54
2.60784e-55
7.3016e-57
1.97455e-58
5.14842e-60
1.29212e-61
3.1164e-63
7.2117e-65
1.59874e-66
3.39001e-68
6.86462e-70
1.32532e-71
2.43544e-73
4.25212e-75
7.03997e-77
1.10298e-78
1.63155e-80
2.27288e-82
2.97367e-84
3.64271e-86
4.16432e-88
4.42738e-90
4.36225e-92
3.96964e-94
3.32548e-96
2.55619e-98
1.79558e-100
1.14514e-102
6.54859e-105
3.27361e-107
1.35466e-109
4.0932e-112
6.26869e-115
2.92452e-44
8.42109e-46
2.78233e-47
9.04048e-49
2.86975e-50
8.89183e-52
2.6831e-53
7.86831e-55
2.23808e-56
6.16313e-58
1.64012e-59
4.21058e-61
1.04105e-62
2.47491e-64
5.64824e-66
1.23551e-67
2.58627e-69
5.17245e-71
9.86728e-73
1.79237e-74
3.09451e-76
5.06806e-78
7.85696e-80
1.15033e-81
1.58651e-83
2.0554e-85
2.49373e-87
2.82406e-89
2.97491e-91
2.90509e-93
2.62129e-95
2.17894e-97
1.66382e-99
1.16305e-101
7.40032e-104
4.23748e-106
2.13119e-108
8.92353e-111
2.74322e-113
4.27499e-116
2.51787e-45
7.25444e-47
2.3622e-48
7.55359e-50
2.36021e-51
7.19795e-53
2.13796e-54
6.17266e-56
1.72908e-57
4.69072e-59
1.23022e-60
3.11382e-62
7.59368e-64
1.78136e-65
4.0133e-67
8.66983e-69
1.79302e-70
3.54418e-72
6.68463e-74
1.20092e-75
2.05125e-77
3.32453e-79
5.10165e-81
7.39499e-83
1.00994e-84
1.29584e-86
1.55732e-88
1.74718e-90
1.82369e-92
1.76507e-94
1.57919e-96
1.30256e-98
9.88145e-101
6.8755e-103
4.36703e-105
2.50627e-107
1.27015e-109
5.3932e-112
1.69128e-114
2.65469e-117
)
;

boundaryField
{
    leftWall
    {
        type            zeroGradient;
    }
    rightWall
    {
        type            zeroGradient;
    }
    lowerWall
    {
        type            zeroGradient;
    }
    atmosphere
    {
        type            inletOutlet;
        inletValue      nonuniform List<scalar> 0();
        value           nonuniform List<scalar> 0();
    }
    defaultFaces
    {
        type            empty;
    }
    procBoundary1to0
    {
        type            processor;
        value           nonuniform List<scalar> 
44
(
1.6791e-13
1.56093e-13
7.04702e-14
2.25921e-14
6.95586e-15
2.10139e-15
6.22981e-16
1.845e-16
5.50246e-17
1.6411e-17
4.79648e-18
1.29401e-18
3.31404e-19
8.65429e-20
2.46249e-20
7.83099e-21
2.75486e-21
1.04643e-21
4.19099e-22
1.73731e-22
5.29834e-24
5.29834e-24
2.54671e-24
1.06975e-24
4.34938e-25
1.75397e-25
6.95721e-26
2.69483e-26
1.01343e-26
3.68034e-27
1.28392e-27
4.28005e-28
1.35566e-28
4.05374e-29
1.13585e-29
2.9568e-30
7.08167e-31
1.54387e-31
3.02893e-32
5.28707e-33
8.1264e-34
1.09118e-34
1.27439e-35
1.29422e-36
)
;
    }
    procBoundary1to3
    {
        type            processor;
        value           nonuniform List<scalar> 
45
(
1.28427e-39
5.10037e-41
1.92541e-42
6.81429e-44
2.45179e-45
9.28849e-47
2.58398e-48
8.39987e-50
2.661e-51
8.23423e-53
2.48357e-54
7.28823e-56
2.07741e-57
5.74172e-59
1.53621e-60
3.97216e-62
9.90934e-64
2.38119e-65
5.50267e-67
1.22093e-68
2.59686e-70
5.28622e-72
1.02815e-73
1.90737e-75
3.36899e-77
5.65485e-79
9.00138e-81
1.3558e-82
1.92761e-84
2.57999e-86
3.24128e-88
3.81e-90
4.17596e-92
4.25294e-94
4.01099e-96
3.49256e-98
2.80128e-100
2.06641e-102
1.40033e-104
8.70015e-107
4.92502e-109
2.49473e-111
1.07732e-113
3.49796e-116
1.05262e-118
)
;
    }
}


// ************************************************************************* //
