/*--------------------------------*- C++ -*----------------------------------*\
  =========                 |
  \\      /  F ield         | OpenFOAM: The Open Source CFD Toolbox
   \\    /   O peration     | Website:  https://openfoam.org
    \\  /    A nd           | Version:  9
     \\/     M anipulation  |
\*---------------------------------------------------------------------------*/
FoamFile
{
    format      ascii;
    class       volScalarField;
    location    "0.05";
    object      k;
}
// * * * * * * * * * * * * * * * * * * * * * * * * * * * * * * * * * * * * * //

dimensions      [0 2 -2 0 0 0 0];

internalField   nonuniform List<scalar> 
1915
(
0.0258035
0.0208
0.0484545
0.0298924
0.0593879
0.0345598
0.0656829
0.0376628
0.069662
0.0398734
0.0724413
0.0416047
0.0747414
0.0432113
0.0772188
0.0451072
0.0806081
0.047905
0.0858635
0.053258
0.0206594
0.026069
0.0294827
0.0312203
0.0320294
0.032359
0.0324535
0.0324412
0.032386
0.0323176
0.0322493
0.0322108
0.032177
0.0321429
0.032109
0.0320753
0.0320417
0.0320082
0.0319746
0.0319409
0.0319071
0.0318734
0.0318397
0.0318063
0.0317732
0.0317404
0.0317077
0.031675
0.0316415
0.0316062
0.0315667
0.0315183
0.0314509
0.0313433
0.0311509
0.0307803
0.0300367
0.028522
0.0255774
0.0234089
0.0296473
0.0493457
0.0573686
0.0611677
0.0630101
0.0638723
0.0642377
0.0643588
0.064368
0.0643317
0.0642804
0.0642219
0.0641668
0.0641205
0.0640829
0.0640524
0.0640275
0.0640068
0.0639891
0.0639738
0.0639605
0.063949
0.063939
0.0639304
0.0639229
0.0639162
0.0639095
0.0639018
0.063891
0.0638737
0.0638426
0.0637838
0.0636695
0.0634449
0.0630035
0.0621355
0.0604186
0.0569408
0.0494375
0.029792
0.032951
0.0583503
0.0680613
0.0726161
0.0749079
0.0760715
0.0766442
0.0769066
0.0770102
0.0770366
0.0770277
0.0769995
0.0769664
0.0769361
0.0769104
0.0768893
0.0768719
0.0768575
0.0768453
0.0768349
0.0768259
0.0768182
0.0768116
0.0768059
0.0768007
0.0767957
0.0767899
0.0767816
0.076768
0.0767433
0.0766965
0.0766072
0.0764371
0.0761166
0.0755174
0.0743998
0.0722876
0.068122
0.0590135
0.0330044
0.0347523
0.0628696
0.073469
0.0783953
0.0809055
0.0822265
0.0829193
0.083272
0.0834413
0.0835143
0.0835384
0.0835348
0.0835206
0.0835042
0.0834888
0.0834754
0.0834639
0.083454
0.0834456
0.0834382
0.0834317
0.083426
0.0834208
0.0834161
0.0834115
0.0834062
0.0833993
0.0833884
0.0833695
0.0833349
0.0832708
0.0831522
0.0829355
0.0825447
0.0818458
0.0805929
0.0782942
0.073822
0.0639399
0.0349209
0.035812
0.0654018
0.0766123
0.0817814
0.0844121
0.0858124
0.0865668
0.0869687
0.0871762
0.0872775
0.0873222
0.087335
0.0873335
0.0873264
0.0873179
0.0873096
0.0873021
0.0872954
0.0872894
0.087284
0.0872791
0.0872747
0.0872704
0.0872663
0.0872617
0.0872559
0.0872474
0.0872334
0.0872087
0.0871641
0.0870835
0.0869393
0.0866851
0.0862427
0.0854774
0.084142
0.0817361
0.0770835
0.0667285
0.0360589
0.0365055
0.0669909
0.0786863
0.0840236
0.0867074
0.08813
0.0889014
0.0893196
0.0895422
0.0896562
0.0897107
0.089732
0.0897371
0.0897352
0.0897306
0.0897252
0.08972
0.0897152
0.0897107
0.0897066
0.0897028
0.0896991
0.0896955
0.0896916
0.0896869
0.0896804
0.0896702
0.089653
0.0896226
0.0895685
0.0894731
0.0893071
0.0890228
0.0885414
0.0877284
0.0863358
0.0838546
0.0790697
0.0683833
0.0367311
0.0371644
0.0682729
0.080333
0.0857323
0.0883855
0.0897709
0.090518
0.0909244
0.0911426
0.0912561
0.0913113
0.0913344
0.0913415
0.0913413
0.091338
0.0913338
0.0913296
0.0913256
0.0913218
0.0913184
0.0913151
0.0913119
0.0913086
0.0913047
0.0912998
0.0912925
0.0912806
0.0912601
0.0912243
0.0911615
0.0910531
0.0908686
0.0905598
0.0900477
0.0891978
0.0877603
0.0852174
0.0803235
0.069389
0.0371283
0.0384691
0.0698563
0.0820089
0.0872638
0.0897589
0.0910349
0.0917161
0.0920849
0.0922824
0.0923847
0.0924333
0.0924531
0.0924584
0.0924572
0.0924533
0.0924488
0.0924445
0.0924405
0.0924369
0.0924336
0.0924305
0.0924274
0.0924241
0.0924202
0.0924148
0.0924066
0.0923929
0.0923694
0.0923285
0.0922579
0.0921381
0.0919379
0.0916087
0.0910713
0.0901908
0.0887151
0.0861179
0.0811304
0.0700063
0.0373637
0.0421052
0.07241
0.0840772
0.0888266
0.0909909
0.0920779
0.0926536
0.0929632
0.093127
0.0932096
0.0932464
0.0932592
0.0932601
0.093256
0.0932502
0.0932443
0.093239
0.0932344
0.0932305
0.0932269
0.0932237
0.0932205
0.0932171
0.0932129
0.093207
0.0931977
0.0931823
0.0931559
0.0931104
0.0930328
0.092903
0.0926894
0.0923428
0.091784
0.0908771
0.0893675
0.0867217
0.0816542
0.0703857
0.0375044
0.0504932
0.0766815
0.0866978
0.0904607
0.092134
0.0929701
0.0934125
0.0936486
0.0937706
0.0938279
0.0938497
0.093853
0.0938479
0.0938396
0.093831
0.0938231
0.0938164
0.0938107
0.093806
0.093802
0.0937983
0.0937949
0.0937911
0.0937865
0.09378
0.0937698
0.0937527
0.0937235
0.0936738
0.0935901
0.0934516
0.0932264
0.0928649
0.0922876
0.0913575
0.0898176
0.0871288
0.0819944
0.0706177
0.0375899
0.090774
0.0682879
0.0938313
0.0878847
0.0953633
0.0948078
0.0958658
0.0963346
0.0960311
0.096596
0.0960662
0.0965215
0.0960565
0.0963935
0.0960409
0.0962863
0.0960305
0.0962086
0.0960257
0.0961549
0.0961164
0.0960865
0.0960611
0.0960369
0.096013
0.0959889
0.0959649
0.0959411
0.0959182
0.0958966
0.0958766
0.0958583
0.0958421
0.0958278
0.0958154
0.095805
0.0957965
0.0957896
0.0957843
0.0957806
0.095778
0.0957767
0.095776
0.0554464
0.0449006
0.0399912
0.0413318
0.0807877
0.0751113
0.0722246
0.074156
0.0922208
0.0887205
0.0863877
0.086975
0.0956378
0.0938298
0.0923132
0.0922492
0.0964887
0.0956338
0.094785
0.0945795
0.0965934
0.0962279
0.0957911
0.0956098
0.096514
0.0963831
0.0961717
0.0960458
0.0964079
0.0963813
0.0962859
0.0962071
0.0963145
0.0963289
0.0962898
0.0962424
0.0962392
0.0962653
0.0962509
0.0962212
0.0961799
0.0962039
0.0961978
0.0961763
0.0961318
0.0961482
0.096142
0.0961229
0.0960903
0.0960979
0.096088
0.096068
0.0960532
0.096052
0.0960371
0.0960146
0.0960188
0.0960097
0.0959896
0.0959641
0.0959862
0.0959705
0.0959456
0.0959171
0.0959553
0.095934
0.095905
0.0958739
0.0959261
0.0959003
0.095868
0.0958347
0.0958988
0.0958694
0.0958343
0.0957993
0.0958736
0.0958413
0.095804
0.0957675
0.0958506
0.0958159
0.0957768
0.0957393
0.0958299
0.0957932
0.0957526
0.0957142
0.0958114
0.095773
0.0957312
0.0956921
0.0957951
0.0957552
0.0957123
0.0956726
0.0957809
0.0957396
0.0956957
0.0956554
0.0957687
0.095726
0.0956812
0.0956402
0.0957583
0.0957142
0.0956684
0.0956269
0.0957496
0.095704
0.0956573
0.0956152
0.0957423
0.0956953
0.0956476
0.0956048
0.0957364
0.0956879
0.0956391
0.0955956
0.0957316
0.0956815
0.0956316
0.0955875
0.0957277
0.095676
0.095625
0.0955802
0.0957247
0.0956711
0.095619
0.0955736
0.0618
0.0827546
0.0895612
0.0920401
0.093167
0.0937361
0.0940377
0.0941957
0.0942723
0.0943025
0.0943076
0.0943004
0.0942883
0.0942754
0.0942634
0.0942531
0.0942447
0.0942377
0.0942321
0.0942273
0.0942231
0.0942192
0.094215
0.09421
0.0942028
0.0941915
0.0941728
0.0941412
0.0940877
0.0939986
0.0938525
0.0936171
0.0932427
0.0926491
0.0916984
0.0901317
0.0874056
0.0822165
0.0707597
0.0376441
0.0822032
0.0890427
0.092069
0.0933849
0.0940359
0.0943713
0.094546
0.0946312
0.0946643
0.0946682
0.0946569
0.0946392
0.0946201
0.0946023
0.0945869
0.0945742
0.0945638
0.0945555
0.0945488
0.0945432
0.0945384
0.0945339
0.0945292
0.0945236
0.0945158
0.0945035
0.0944834
0.0944495
0.0943927
0.0942988
0.0941461
0.0939019
0.0935163
0.0929084
0.0919399
0.0903498
0.0875923
0.0823598
0.0708455
0.0376805
0.0899579
0.09246
0.0937617
0.09439
0.0947107
0.0948714
0.0949455
0.0949702
0.0949664
0.0949472
0.0949212
0.0948939
0.0948683
0.094846
0.0948273
0.0948122
0.0948
0.0947903
0.0947825
0.0947761
0.0947706
0.0947656
0.0947604
0.0947543
0.0947457
0.0947326
0.0947111
0.0946753
0.0946156
0.0945176
0.0943592
0.0941077
0.0937124
0.0930925
0.0921086
0.090499
0.0877161
0.0824505
0.0708961
0.0377068
0.0933398
0.0942947
0.0948221
0.0950814
0.0952012
0.095245
0.0952476
0.0952273
0.0951947
0.095157
0.0951189
0.0950835
0.0950524
0.0950262
0.0950047
0.0949874
0.0949737
0.0949627
0.0949539
0.0949467
0.0949405
0.0949349
0.0949292
0.0949225
0.0949134
0.0948994
0.0948768
0.0948393
0.0947772
0.0946757
0.0945127
0.0942549
0.0938516
0.0932216
0.0922251
0.0905998
0.087797
0.082507
0.0709255
0.0377274
0.0949159
0.0952653
0.095453
0.0955267
0.0955358
0.0955099
0.0954668
0.0954159
0.0953629
0.0953115
0.0952642
0.0952226
0.0951872
0.0951579
0.0951341
0.0951151
0.0950999
0.0950878
0.0950781
0.0950702
0.0950634
0.0950573
0.0950511
0.0950439
0.0950342
0.0950196
0.094996
0.094957
0.0948929
0.0947886
0.0946217
0.0943588
0.093949
0.0933109
0.0923044
0.0906666
0.0878489
0.0825414
0.0709421
0.037745
0.095673
0.095774
0.0958127
0.0957983
0.0957513
0.0956878
0.0956182
0.0955486
0.0954824
0.095422
0.0953685
0.0953226
0.0952842
0.0952526
0.0952271
0.0952067
0.0951905
0.0951775
0.095167
0.0951584
0.0951511
0.0951445
0.0951379
0.0951303
0.0951201
0.0951049
0.0950804
0.0950404
0.0949746
0.094868
0.0946981
0.0944311
0.0940162
0.0933716
0.0923573
0.0907102
0.0878815
0.0825619
0.0709513
0.037761
0.0960235
0.0960281
0.0960048
0.0959522
0.0958801
0.0957989
0.0957162
0.0956368
0.0955635
0.095498
0.095441
0.0953926
0.0953523
0.0953194
0.0952928
0.0952715
0.0952544
0.0952407
0.0952297
0.0952206
0.0952128
0.0952058
0.0951988
0.0951908
0.0951802
0.0951645
0.0951394
0.0950984
0.0950314
0.094923
0.0947506
0.0944805
0.0940616
0.0934121
0.092392
0.090738
0.0879016
0.0825738
0.0709562
0.0377761
0.0961672
0.0961391
0.0960937
0.0960279
0.0959477
0.0958607
0.0957736
0.0956907
0.0956148
0.0955474
0.0954891
0.0954398
0.0953988
0.0953653
0.0953382
0.0953163
0.0952987
0.0952846
0.0952731
0.0952635
0.0952554
0.0952481
0.0952408
0.0952325
0.0952215
0.0952054
0.0951797
0.095138
0.09507
0.0949603
0.0947861
0.0945136
0.0940917
0.0934386
0.0924142
0.0907554
0.0879137
0.0825804
0.0709586
0.0377907
0.0962054
0.09617
0.09612
0.0960528
0.0959731
0.0958871
0.0958009
0.0957187
0.0956435
0.0955767
0.0955189
0.09547
0.0954293
0.0953958
0.0953686
0.0953466
0.0953288
0.0953144
0.0953026
0.0952927
0.0952843
0.0952767
0.0952692
0.0952606
0.0952494
0.0952329
0.0952069
0.0951646
0.0950958
0.0949851
0.0948095
0.0945353
0.0941112
0.0934555
0.092428
0.0907659
0.0879206
0.0825838
0.0709596
0.0378051
0.0961907
0.0961565
0.0961087
0.0960454
0.0959702
0.0958889
0.0958067
0.095728
0.0956557
0.0955912
0.0955353
0.0954877
0.095448
0.0954152
0.0953883
0.0953665
0.0953487
0.0953341
0.0953222
0.0953122
0.0953036
0.0952958
0.095288
0.0952793
0.0952678
0.0952511
0.0952247
0.0951821
0.0951127
0.0950012
0.0948246
0.0945491
0.0941234
0.0934659
0.0924364
0.090772
0.0879243
0.0825852
0.0709598
0.0378192
0.0961506
0.0961195
0.0960759
0.0960181
0.0959493
0.0958742
0.0957978
0.0957242
0.095656
0.0955951
0.0955419
0.0954964
0.0954582
0.0954265
0.0954004
0.0953789
0.0953613
0.0953468
0.0953349
0.0953248
0.095316
0.0953081
0.0953002
0.0952913
0.0952797
0.0952628
0.0952362
0.0951932
0.0951234
0.0950114
0.094834
0.0945576
0.0941309
0.0934721
0.0924412
0.0907753
0.0879261
0.0825855
0.0709594
0.0378331
0.0960994
0.096071
0.0960316
0.0959796
0.0959174
0.0958491
0.0957792
0.0957115
0.0956484
0.0955916
0.0955417
0.0954988
0.0954626
0.0954322
0.095407
0.0953862
0.0953689
0.0953547
0.0953427
0.0953327
0.0953239
0.0953159
0.0953079
0.0952989
0.0952872
0.0952701
0.0952433
0.0952001
0.09513
0.0950176
0.0948397
0.0945627
0.0941351
0.0934755
0.0924437
0.0907768
0.0879266
0.082585
0.0709588
0.0378467
0.0960447
0.096018
0.0959822
0.0959355
0.0958797
0.0958182
0.095755
0.0956933
0.0956355
0.0955831
0.0955369
0.0954969
0.0954627
0.095434
0.0954099
0.0953898
0.095373
0.0953591
0.0953473
0.0953373
0.0953286
0.0953205
0.0953125
0.0953034
0.0952916
0.0952745
0.0952476
0.0952042
0.0951339
0.0950211
0.0948429
0.0945654
0.0941373
0.0934771
0.0924447
0.0907772
0.0879263
0.0825841
0.0709579
0.03786
0.0959904
0.0959645
0.0959316
0.0958897
0.0958397
0.0957847
0.0957278
0.095672
0.0956195
0.0955717
0.0955291
0.095492
0.0954601
0.095433
0.0954101
0.0953909
0.0953747
0.0953612
0.0953497
0.0953398
0.0953311
0.0953231
0.0953151
0.095306
0.0952941
0.0952769
0.0952499
0.0952064
0.0951359
0.0950229
0.0948444
0.0945666
0.0941382
0.0934776
0.0924448
0.0907769
0.0879256
0.0825828
0.0709568
0.037873
0.0959384
0.0959129
0.0958824
0.0958445
0.0957999
0.0957506
0.0956997
0.0956495
0.0956021
0.0955585
0.0955195
0.0954853
0.0954557
0.0954302
0.0954086
0.0953903
0.0953748
0.0953616
0.0953504
0.0953408
0.0953322
0.0953243
0.0953163
0.0953071
0.0952953
0.095278
0.095251
0.0952073
0.0951368
0.0950236
0.0948449
0.0945668
0.0941382
0.0934773
0.0924443
0.0907761
0.0879245
0.0825813
0.0709555
0.0378857
0.0958899
0.0958645
0.095836
0.0958016
0.0957616
0.0957176
0.095672
0.0956269
0.0955841
0.0955446
0.095509
0.0954775
0.09545
0.0954263
0.0954059
0.0953885
0.0953737
0.095361
0.0953501
0.0953407
0.0953323
0.0953244
0.0953165
0.0953074
0.0952956
0.0952783
0.0952512
0.0952075
0.0951368
0.0950235
0.0948447
0.0945664
0.0941376
0.0934766
0.0924433
0.090775
0.0879231
0.0825796
0.070954
0.0378979
0.0958453
0.09582
0.0957931
0.0957618
0.0957258
0.0956864
0.0956455
0.095605
0.0955664
0.0955305
0.095498
0.0954691
0.0954436
0.0954215
0.0954024
0.0953859
0.0953717
0.0953596
0.0953491
0.0953399
0.0953317
0.095324
0.0953161
0.0953071
0.0952952
0.0952779
0.0952508
0.0952071
0.0951364
0.095023
0.094844
0.0945656
0.0941366
0.0934755
0.0924421
0.0907737
0.0879215
0.0825777
0.0709522
0.0379097
0.0958049
0.0957796
0.0957542
0.0957255
0.095693
0.0956576
0.0956208
0.0955843
0.0955494
0.0955168
0.0954871
0.0954605
0.0954369
0.0954163
0.0953983
0.0953827
0.0953693
0.0953576
0.0953475
0.0953386
0.0953306
0.095323
0.0953152
0.0953063
0.0952945
0.0952772
0.0952501
0.0952064
0.0951355
0.0950221
0.094843
0.0945645
0.0941354
0.0934741
0.0924407
0.0907721
0.0879198
0.0825756
0.0709503
0.037921
0.0957686
0.0957434
0.0957193
0.0956928
0.0956633
0.0956312
0.095598
0.095565
0.0955333
0.0955036
0.0954763
0.0954518
0.09543
0.0954107
0.0953939
0.0953792
0.0953664
0.0953552
0.0953455
0.0953369
0.0953291
0.0953217
0.095314
0.0953052
0.0952934
0.0952762
0.0952491
0.0952053
0.0951345
0.0950209
0.0948418
0.0945632
0.0941339
0.0934726
0.0924391
0.0907704
0.0879179
0.0825734
0.0709481
0.0379319
0.0957361
0.0957111
0.0956881
0.0956636
0.0956365
0.0956074
0.0955772
0.0955472
0.0955182
0.095491
0.095466
0.0954433
0.0954231
0.0954051
0.0953892
0.0953753
0.0953632
0.0953525
0.0953432
0.0953349
0.0953273
0.0953201
0.0953126
0.0953038
0.0952922
0.0952749
0.0952479
0.0952041
0.0951332
0.0950196
0.0948404
0.0945617
0.0941324
0.0934709
0.0924373
0.0907685
0.0879158
0.0825709
0.0709456
0.0379422
0.0957074
0.0956825
0.0956605
0.0956376
0.0956126
0.0955859
0.0955583
0.0955308
0.0955042
0.0954792
0.0954561
0.0954351
0.0954162
0.0953994
0.0953845
0.0953713
0.0953598
0.0953496
0.0953407
0.0953327
0.0953253
0.0953183
0.0953109
0.0953023
0.0952907
0.0952735
0.0952465
0.0952027
0.0951318
0.0950181
0.0948388
0.09456
0.0941307
0.0934691
0.0924354
0.0907665
0.0879136
0.0825683
0.070943
0.037952
0.0956819
0.0956573
0.095636
0.0956145
0.0955913
0.0955666
0.0955412
0.0955158
0.0954913
0.0954681
0.0954467
0.0954271
0.0954095
0.0953937
0.0953797
0.0953672
0.0953563
0.0953466
0.095338
0.0953303
0.0953232
0.0953163
0.0953091
0.0953006
0.0952891
0.095272
0.095245
0.0952012
0.0951303
0.0950166
0.0948372
0.0945583
0.0941289
0.0934673
0.0924335
0.0907645
0.0879112
0.0825655
0.0709401
0.0379611
0.0956594
0.0956349
0.0956144
0.095594
0.0955723
0.0955493
0.0955257
0.0955021
0.0954793
0.0954578
0.0954378
0.0954195
0.095403
0.0953881
0.0953749
0.0953631
0.0953527
0.0953434
0.0953352
0.0953277
0.0953209
0.0953142
0.0953072
0.0952987
0.0952874
0.0952703
0.0952434
0.0951996
0.0951287
0.0950149
0.0948355
0.0945565
0.094127
0.0934653
0.0924314
0.0907623
0.0879088
0.0825625
0.0709369
0.0379697
0.0956396
0.0956152
0.0955952
0.0955757
0.0955553
0.0955337
0.0955116
0.0954896
0.0954682
0.0954481
0.0954294
0.0954122
0.0953966
0.0953826
0.0953701
0.0953589
0.095349
0.0953401
0.0953322
0.0953251
0.0953185
0.095312
0.0953051
0.0952968
0.0952855
0.0952686
0.0952417
0.0951979
0.095127
0.0950132
0.0948337
0.0945547
0.094125
0.0934633
0.0924293
0.09076
0.0879062
0.0825595
0.0709336
0.0379777
0.0956221
0.0955978
0.0955782
0.0955595
0.09554
0.0955196
0.0954988
0.095478
0.095458
0.095439
0.0954214
0.0954052
0.0953905
0.0953772
0.0953653
0.0953547
0.0953453
0.0953368
0.0953293
0.0953224
0.095316
0.0953097
0.095303
0.0952948
0.0952836
0.0952668
0.0952399
0.0951962
0.0951252
0.0950114
0.0948319
0.0945528
0.0941231
0.0934612
0.0924271
0.0907576
0.0879035
0.0825562
0.07093
0.0379851
0.0956067
0.0955824
0.0955631
0.0955449
0.0955263
0.0955069
0.0954871
0.0954674
0.0954484
0.0954305
0.0954138
0.0953985
0.0953846
0.095372
0.0953607
0.0953506
0.0953416
0.0953335
0.0953262
0.0953197
0.0953135
0.0953074
0.0953008
0.0952928
0.0952817
0.0952649
0.0952381
0.0951944
0.0951234
0.0950096
0.09483
0.0945508
0.094121
0.0934591
0.0924249
0.0907552
0.0879007
0.0825529
0.0709263
0.0379918
0.0955931
0.0955686
0.0955495
0.0955319
0.0955138
0.0954952
0.0954763
0.0954576
0.0954395
0.0954225
0.0954066
0.0953921
0.0953788
0.0953669
0.0953561
0.0953465
0.0953379
0.0953302
0.0953232
0.0953169
0.0953109
0.095305
0.0952986
0.0952907
0.0952797
0.095263
0.0952362
0.0951926
0.0951216
0.0950078
0.0948281
0.0945489
0.094119
0.093457
0.0924226
0.0907528
0.0878979
0.0825494
0.0709223
0.0379978
0.095581
0.0955564
0.0955374
0.09552
0.0955025
0.0954846
0.0954664
0.0954485
0.0954312
0.0954149
0.0953998
0.0953859
0.0953733
0.0953619
0.0953517
0.0953425
0.0953342
0.0953268
0.0953202
0.0953141
0.0953084
0.0953026
0.0952964
0.0952886
0.0952777
0.0952611
0.0952344
0.0951908
0.0951198
0.0950059
0.0948262
0.0945469
0.094117
0.0934548
0.0924204
0.0907502
0.087895
0.0825458
0.0709182
0.0380032
0.0955702
0.0955454
0.0955264
0.0955093
0.0954922
0.0954748
0.0954572
0.09544
0.0954234
0.0954078
0.0953933
0.0953801
0.095368
0.0953571
0.0953473
0.0953385
0.0953306
0.0953236
0.0953172
0.0953113
0.0953058
0.0953002
0.0952941
0.0952865
0.0952757
0.0952592
0.0952325
0.0951889
0.095118
0.0950041
0.0948243
0.094545
0.0941149
0.0934527
0.0924181
0.0907477
0.087892
0.0825421
0.0709139
0.0380078
0.0955606
0.0955355
0.0955165
0.0954995
0.0954827
0.0954657
0.0954487
0.095432
0.095416
0.095401
0.0953871
0.0953744
0.0953629
0.0953524
0.0953431
0.0953346
0.0953271
0.0953203
0.0953142
0.0953086
0.0953032
0.0952979
0.0952919
0.0952844
0.0952737
0.0952573
0.0952307
0.0951871
0.0951162
0.0950023
0.0948225
0.094543
0.0941129
0.0934506
0.0924158
0.0907452
0.087889
0.0825383
0.0709094
0.0380118
0.095552
0.0955266
0.0955074
0.0954904
0.0954739
0.0954572
0.0954407
0.0954245
0.0954091
0.0953946
0.0953812
0.095369
0.0953579
0.0953479
0.0953389
0.0953309
0.0953236
0.0953172
0.0953113
0.0953059
0.0953007
0.0952955
0.0952897
0.0952823
0.0952718
0.0952554
0.0952288
0.0951853
0.0951144
0.0950005
0.0948206
0.0945411
0.0941109
0.0934485
0.0924135
0.0907426
0.087886
0.0825345
0.0709047
0.0380151
0.0955442
0.0955184
0.0954991
0.0954821
0.0954657
0.0954493
0.0954331
0.0954174
0.0954025
0.0953885
0.0953756
0.0953638
0.0953532
0.0953436
0.0953349
0.0953272
0.0953203
0.0953141
0.0953084
0.0953032
0.0952983
0.0952933
0.0952876
0.0952803
0.0952699
0.0952535
0.0952271
0.0951836
0.0951127
0.0949987
0.0948189
0.0945393
0.094109
0.0934464
0.0924113
0.0907401
0.0878829
0.0825306
0.0709
0.0380175
0.0955371
0.095511
0.0954914
0.0954743
0.095458
0.0954418
0.095426
0.0954107
0.0953962
0.0953826
0.0953702
0.0953589
0.0953486
0.0953393
0.095331
0.0953236
0.095317
0.095311
0.0953056
0.0953006
0.0952959
0.095291
0.0952855
0.0952784
0.095268
0.0952518
0.0952253
0.0951819
0.095111
0.094997
0.0948171
0.0945375
0.0941071
0.0934444
0.0924091
0.0907375
0.0878798
0.0825267
0.0708952
0.0380195
)
;

boundaryField
{
    leftWall
    {
        type            kqRWallFunction;
        value           nonuniform List<scalar> 0();
    }
    rightWall
    {
        type            kqRWallFunction;
        value           nonuniform List<scalar> 
43
(
0.0234089
0.029792
0.0330044
0.0349209
0.0360589
0.0367311
0.0371283
0.0373637
0.0375044
0.0375899
0.0376441
0.0376805
0.0377068
0.0377274
0.037745
0.037761
0.0377761
0.0377907
0.0378051
0.0378192
0.0378331
0.0378467
0.03786
0.037873
0.0378857
0.0378979
0.0379097
0.037921
0.0379319
0.0379422
0.037952
0.0379611
0.0379697
0.0379777
0.0379851
0.0379918
0.0379978
0.0380032
0.0380078
0.0380118
0.0380151
0.0380175
0.0380195
)
;
    }
    lowerWall
    {
        type            kqRWallFunction;
        value           nonuniform List<scalar> 
66
(
0.0258035
0.0208
0.0208
0.0298924
0.0345598
0.0376628
0.0398734
0.0416047
0.0432113
0.0451072
0.047905
0.053258
0.0554464
0.0449006
0.0399912
0.0413318
0.0206594
0.0296473
0.032951
0.0347523
0.035812
0.0365055
0.0371644
0.0384691
0.0421052
0.0504932
0.0206594
0.026069
0.0294827
0.0312203
0.0320294
0.032359
0.0324535
0.0324412
0.032386
0.0323176
0.0322493
0.0322108
0.032177
0.0321429
0.032109
0.0320753
0.0320417
0.0320082
0.0319746
0.0319409
0.0319071
0.0318734
0.0318397
0.0318063
0.0317732
0.0317404
0.0317077
0.031675
0.0316415
0.0316062
0.0315667
0.0315183
0.0314509
0.0313433
0.0311509
0.0307803
0.0300367
0.028522
0.0255774
0.0234089
)
;
    }
    atmosphere
    {
        type            inletOutlet;
        inletValue      nonuniform List<scalar> 0();
        value           nonuniform List<scalar> 0();
    }
    defaultFaces
    {
        type            empty;
    }
    procBoundary1to0
    {
        type            processor;
        value           nonuniform List<scalar> 
44
(
0.028863
0.0553473
0.0679768
0.0750241
0.0793396
0.0822197
0.0843815
0.0862996
0.0883257
0.0906304
0.0926921
0.0939793
0.0947474
0.0951886
0.0954498
0.0956122
0.0957193
0.0957958
0.0958541
0.0958985
0.0960232
0.0960232
0.0960203
0.0960149
0.0960061
0.0959942
0.0959795
0.0959629
0.0959452
0.0959272
0.0959096
0.0958929
0.0958775
0.0958638
0.0958518
0.0958416
0.0958334
0.0958271
0.0958227
0.09582
0.0958189
0.0958194
0.0958214
0.0958245
)
;
    }
    procBoundary1to3
    {
        type            processor;
        value           nonuniform List<scalar> 
45
(
0.0957762
0.095722
0.0956667
0.0956136
0.0955675
0.0955305
0.095504
0.0954841
0.095467
0.0954507
0.0954348
0.0954192
0.0954042
0.0953901
0.095377
0.095365
0.095354
0.0953442
0.0953353
0.0953273
0.0953202
0.0953138
0.0953081
0.0953029
0.0952981
0.0952935
0.0952888
0.0952834
0.0952764
0.0952661
0.09525
0.0952236
0.0951802
0.0951093
0.0949954
0.0948154
0.0945357
0.0941053
0.0934424
0.0924069
0.090735
0.0878767
0.0825227
0.0708901
0.0380205
)
;
    }
}


// ************************************************************************* //
