/*--------------------------------*- C++ -*----------------------------------*\
  =========                 |
  \\      /  F ield         | OpenFOAM: The Open Source CFD Toolbox
   \\    /   O peration     | Website:  https://openfoam.org
    \\  /    A nd           | Version:  9
     \\/     M anipulation  |
\*---------------------------------------------------------------------------*/
FoamFile
{
    format      ascii;
    class       surfaceScalarField;
    location    "0.05";
    object      phi;
}
// * * * * * * * * * * * * * * * * * * * * * * * * * * * * * * * * * * * * * //

dimensions      [0 3 -1 0 0 0 0];

internalField   nonuniform List<scalar> 
3731
(
1.74364e-06
2.87293e-06
1.74369e-06
2.70709e-06
5.97303e-06
4.45084e-06
3.27819e-06
9.01718e-06
7.7291e-06
3.64371e-06
1.20576e-05
1.13729e-05
3.90592e-06
1.51136e-05
1.52789e-05
4.18283e-06
1.81866e-05
1.94618e-05
4.62762e-06
2.12528e-05
2.40894e-05
5.49689e-06
2.41908e-05
2.95863e-05
7.2291e-06
2.66385e-05
3.68154e-05
1.00994e-05
2.80142e-05
4.69149e-05
5.62729e-07
-5.62729e-07
1.48007e-06
-9.17359e-07
2.49847e-06
-1.01841e-06
3.43775e-06
-9.39266e-07
4.21773e-06
-7.79982e-07
4.81998e-06
-6.02242e-07
5.25619e-06
-4.36197e-07
5.55009e-06
-2.9389e-07
5.7278e-06
-1.77705e-07
5.81322e-06
-8.54208e-08
5.826e-06
-1.27816e-08
5.78271e-06
4.32893e-08
5.69721e-06
8.55042e-08
5.57983e-06
1.17381e-07
5.43814e-06
1.41691e-07
5.27768e-06
1.60472e-07
5.10244e-06
1.75232e-07
4.91538e-06
1.8705e-07
4.71873e-06
1.96651e-07
4.51428e-06
2.04455e-07
4.30363e-06
2.10663e-07
4.08827e-06
2.15363e-07
3.86962e-06
2.18644e-07
3.64896e-06
2.20658e-07
3.42732e-06
2.21642e-07
3.2054e-06
2.21914e-07
2.98355e-06
2.21856e-07
2.76165e-06
2.21898e-07
2.53914e-06
2.22504e-07
2.31497e-06
2.24173e-07
2.08754e-06
2.27428e-07
1.85477e-06
2.32777e-07
1.61419e-06
2.40586e-07
1.36343e-06
2.50788e-07
1.10113e-06
2.62328e-07
8.28934e-07
2.72232e-07
5.54906e-07
2.74064e-07
2.99352e-07
2.55591e-07
1.01129e-07
1.98266e-07
1.01179e-07
8.72958e-07
-1.43569e-06
1.8398e-06
-1.88421e-06
2.76306e-06
-1.94166e-06
3.57793e-06
-1.75413e-06
4.24743e-06
-1.44946e-06
4.764e-06
-1.1188e-06
5.13827e-06
-8.1046e-07
5.38918e-06
-5.44795e-07
5.53794e-06
-3.26468e-07
5.60479e-06
-1.52268e-07
5.60767e-06
-1.56601e-08
5.56088e-06
9.00844e-08
5.47508e-06
1.71312e-07
5.35909e-06
2.33371e-07
5.21998e-06
2.80806e-07
5.06321e-06
3.17235e-07
4.89301e-06
3.45432e-07
4.71261e-06
3.67451e-07
4.52452e-06
3.84751e-07
4.33067e-06
3.98306e-07
4.1326e-06
4.08737e-07
3.93149e-06
4.16463e-07
3.72832e-06
4.21825e-07
3.52379e-06
4.25188e-07
3.31843e-06
4.26999e-07
3.11254e-06
4.27801e-07
2.90616e-06
4.28224e-07
2.69909e-06
4.28971e-07
2.49079e-06
4.30809e-07
2.28039e-06
4.34576e-07
2.06667e-06
4.41153e-07
1.84809e-06
4.51378e-07
1.62292e-06
4.65799e-07
1.38957e-06
4.84179e-07
1.14732e-06
5.04639e-07
8.97313e-07
5.22295e-07
6.4425e-07
5.27186e-07
3.98224e-07
5.01686e-07
1.7487e-07
4.21699e-07
2.76083e-07
1.11241e-06
-2.54811e-06
2.12349e-06
-2.8953e-06
2.97101e-06
-2.78918e-06
3.66371e-06
-2.44683e-06
4.20907e-06
-1.99481e-06
4.61933e-06
-1.52906e-06
4.9107e-06
-1.10182e-06
5.10079e-06
-7.34888e-07
5.20702e-06
-4.32697e-07
5.24544e-06
-1.90682e-07
5.23009e-06
-3.07222e-10
5.17252e-06
1.47657e-07
5.08208e-06
2.61758e-07
4.96622e-06
3.49235e-07
4.83089e-06
4.16141e-07
4.6808e-06
4.67328e-07
4.51966e-06
5.06566e-07
4.35039e-06
5.36714e-07
4.17527e-06
5.59875e-07
3.99602e-06
5.77556e-07
3.81396e-06
5.90812e-07
3.63003e-06
6.00408e-07
3.44489e-06
6.06965e-07
3.259e-06
6.11074e-07
3.07262e-06
6.13366e-07
2.88587e-06
6.14544e-07
2.69872e-06
6.15386e-07
2.51094e-06
6.1675e-07
2.32217e-06
6.19581e-07
2.13183e-06
6.24913e-07
1.93915e-06
6.3383e-07
1.74322e-06
6.4733e-07
1.54301e-06
6.6603e-07
1.3376e-06
6.89617e-07
1.12634e-06
7.15936e-07
9.09064e-07
7.396e-07
6.86301e-07
7.49984e-07
4.58948e-07
7.29084e-07
2.27429e-07
6.53277e-07
5.03541e-07
1.27364e-06
-3.82176e-06
2.35298e-06
-3.97464e-06
3.16581e-06
-3.60203e-06
3.7663e-06
-3.04732e-06
4.20336e-06
-2.43187e-06
4.51284e-06
-1.83853e-06
4.72071e-06
-1.30969e-06
4.84657e-06
-8.60745e-07
4.90601e-06
-4.92136e-07
4.91196e-06
-1.96629e-07
4.87528e-06
3.63837e-08
4.80495e-06
2.1799e-07
4.70838e-06
3.58332e-07
4.5915e-06
4.66118e-07
4.45907e-06
5.48571e-07
4.31491e-06
6.11488e-07
4.16207e-06
6.59408e-07
4.00296e-06
6.95817e-07
3.8395e-06
7.23347e-07
3.67312e-06
7.43942e-07
3.50491e-06
7.59034e-07
3.33563e-06
7.697e-07
3.16577e-06
7.76816e-07
2.99567e-06
7.8117e-07
2.82549e-06
7.83541e-07
2.6553e-06
7.84735e-07
2.48508e-06
7.8562e-07
2.31469e-06
7.8714e-07
2.14393e-06
7.90331e-07
1.97252e-06
7.96321e-07
1.80007e-06
8.0628e-07
1.62612e-06
8.21293e-07
1.45009e-06
8.42077e-07
1.27124e-06
8.68487e-07
1.08847e-06
8.98719e-07
8.99985e-07
9.28102e-07
7.02582e-07
9.47413e-07
4.90477e-07
9.41227e-07
2.55391e-07
8.88412e-07
7.58956e-07
1.39226e-06
-5.21403e-06
2.56668e-06
-5.14907e-06
3.37775e-06
-4.4131e-06
3.90963e-06
-3.57922e-06
4.25298e-06
-2.77522e-06
4.46963e-06
-2.05518e-06
4.59741e-06
-1.43747e-06
4.6595e-06
-9.22828e-07
4.67093e-06
-5.03565e-07
4.64241e-06
-1.68101e-07
4.58219e-06
9.66122e-08
4.49694e-06
3.03248e-07
4.39211e-06
4.63167e-07
4.2721e-06
5.86121e-07
4.1405e-06
6.80173e-07
4.0002e-06
7.51792e-07
3.85354e-06
8.06071e-07
3.7024e-06
8.46961e-07
3.54827e-06
8.77486e-07
3.39229e-06
8.99931e-07
3.23531e-06
9.16022e-07
3.07792e-06
9.27092e-07
2.92051e-06
9.34221e-07
2.76333e-06
9.38352e-07
2.60651e-06
9.40367e-07
2.4501e-06
9.41146e-07
2.29412e-06
9.41605e-07
2.13853e-06
9.42722e-07
1.98329e-06
9.45565e-07
1.82832e-06
9.51287e-07
1.6735e-06
9.61102e-07
1.51862e-06
9.76185e-07
1.36323e-06
9.97472e-07
1.20645e-06
1.02528e-06
1.0465e-06
1.05868e-06
8.80071e-07
1.09455e-06
7.01264e-07
1.12624e-06
5.00439e-07
1.14208e-06
2.65743e-07
1.12315e-06
1.02472e-06
1.5063e-06
-6.72034e-06
2.81876e-06
-6.46154e-06
3.64997e-06
-5.24432e-06
4.1199e-06
-4.04916e-06
4.37259e-06
-3.0279e-06
4.49879e-06
-2.18138e-06
4.54803e-06
-1.48671e-06
4.54681e-06
-9.21601e-07
4.50973e-06
-4.66476e-07
4.44551e-06
-1.03878e-07
4.36009e-06
1.82032e-07
4.25799e-06
4.05351e-07
4.14282e-06
5.78347e-07
4.0175e-06
7.11446e-07
3.88445e-06
8.13226e-07
3.74566e-06
8.90579e-07
3.60278e-06
9.48951e-07
3.45715e-06
9.92595e-07
3.30985e-06
1.0248e-06
3.1617e-06
1.04808e-06
3.01334e-06
1.06439e-06
2.86519e-06
1.07524e-06
2.71755e-06
1.08187e-06
2.57059e-06
1.08532e-06
2.42442e-06
1.08654e-06
2.27909e-06
1.08647e-06
2.13466e-06
1.08603e-06
1.99117e-06
1.08621e-06
1.84867e-06
1.08806e-06
1.70723e-06
1.09273e-06
1.56685e-06
1.10148e-06
1.42739e-06
1.11565e-06
1.28834e-06
1.13652e-06
1.1485e-06
1.16513e-06
1.00541e-06
1.20177e-06
8.54622e-07
1.24534e-06
6.88677e-07
1.29221e-06
4.96327e-07
1.33446e-06
2.65288e-07
1.35422e-06
1.29001e-06
1.66302e-06
-8.38337e-06
3.18312e-06
-7.98165e-06
4.03733e-06
-6.09852e-06
4.42589e-06
-4.43773e-06
4.57415e-06
-3.17616e-06
4.60342e-06
-2.21066e-06
4.57153e-06
-1.45482e-06
4.50582e-06
-8.55887e-07
4.41925e-06
-3.79902e-07
4.31817e-06
-2.78723e-09
4.20612e-06
2.9409e-07
4.08547e-06
5.25995e-07
3.95806e-06
7.05764e-07
3.82537e-06
8.44131e-07
3.68871e-06
9.49884e-07
3.54921e-06
1.03009e-06
3.40782e-06
1.09035e-06
3.26537e-06
1.13505e-06
3.12253e-06
1.16765e-06
2.97983e-06
1.19078e-06
2.83769e-06
1.20654e-06
2.69638e-06
1.21656e-06
2.55608e-06
1.22217e-06
2.41692e-06
1.22448e-06
2.27896e-06
1.22451e-06
2.14226e-06
1.22317e-06
2.00689e-06
1.2214e-06
1.87294e-06
1.22016e-06
1.74053e-06
1.22047e-06
1.60975e-06
1.2235e-06
1.48065e-06
1.23058e-06
1.35303e-06
1.24328e-06
1.22618e-06
1.26336e-06
1.09857e-06
1.29274e-06
9.67188e-07
1.33316e-06
8.269e-07
1.38564e-06
6.69583e-07
1.44954e-06
4.83895e-07
1.52016e-06
2.58724e-07
1.57941e-06
1.54874e-06
1.91852e-06
-1.03019e-05
3.78615e-06
-9.84928e-06
4.60891e-06
-6.92128e-06
4.85521e-06
-4.68402e-06
4.86537e-06
-3.18632e-06
4.78224e-06
-2.12753e-06
4.66257e-06
-1.33516e-06
4.5295e-06
-7.22814e-07
4.39192e-06
-2.42313e-07
4.25277e-06
1.36368e-07
4.11281e-06
4.34045e-07
3.97218e-06
6.66625e-07
3.8309e-06
8.47049e-07
3.68906e-06
9.85966e-07
3.54688e-06
1.09206e-06
3.40466e-06
1.17231e-06
3.26271e-06
1.2323e-06
3.12136e-06
1.27642e-06
2.98089e-06
1.30813e-06
2.84154e-06
1.33013e-06
2.70351e-06
1.34458e-06
2.56693e-06
1.35315e-06
2.43188e-06
1.35723e-06
2.2984e-06
1.35797e-06
2.16653e-06
1.35638e-06
2.03631e-06
1.35339e-06
1.90781e-06
1.3499e-06
1.78113e-06
1.34684e-06
1.65639e-06
1.34521e-06
1.53369e-06
1.3462e-06
1.413e-06
1.35127e-06
1.294e-06
1.36227e-06
1.17579e-06
1.38158e-06
1.05648e-06
1.41205e-06
9.32718e-07
1.45692e-06
7.99063e-07
1.5193e-06
6.474e-07
1.6012e-06
4.67183e-07
1.70038e-06
2.49109e-07
1.79749e-06
1.79786e-06
2.82406e-06
-1.3126e-05
4.92371e-06
-1.19489e-05
5.4514e-06
-7.44896e-06
5.42662e-06
-4.65923e-06
5.24551e-06
-3.00522e-06
5.028e-06
-1.91002e-06
4.81182e-06
-1.11898e-06
4.60804e-06
-5.19024e-07
4.41803e-06
-5.22984e-08
4.23993e-06
3.14463e-07
4.0712e-06
6.02779e-07
3.90951e-06
8.28313e-07
3.75307e-06
1.00348e-06
3.60062e-06
1.13841e-06
3.45135e-06
1.24133e-06
3.30473e-06
1.31893e-06
3.16047e-06
1.37656e-06
3.01843e-06
1.41847e-06
2.87852e-06
1.44804e-06
2.74072e-06
1.46794e-06
2.60501e-06
1.48029e-06
2.47137e-06
1.4868e-06
2.33977e-06
1.48884e-06
2.21017e-06
1.48757e-06
2.08258e-06
1.48397e-06
1.95699e-06
1.47897e-06
1.83347e-06
1.47342e-06
1.71208e-06
1.46822e-06
1.59293e-06
1.46437e-06
1.47605e-06
1.46308e-06
1.36132e-06
1.466e-06
1.24825e-06
1.47534e-06
1.13572e-06
1.49411e-06
1.02161e-06
1.52616e-06
9.02384e-07
1.57615e-06
7.72578e-07
1.64911e-06
6.24529e-07
1.74925e-06
4.48928e-07
1.87599e-06
2.38396e-07
2.00804e-06
2.03627e-06
6.98098e-06
-2.01069e-05
7.19284e-06
-1.21608e-05
6.63476e-06
-6.89086e-06
6.13099e-06
-4.15546e-06
5.69669e-06
-2.57093e-06
5.32425e-06
-1.53758e-06
5.00513e-06
-7.99863e-07
4.72909e-06
-2.42983e-07
4.48658e-06
1.90216e-07
4.26963e-06
5.31413e-07
4.07195e-06
8.00463e-07
3.88869e-06
1.01157e-06
3.71629e-06
1.17588e-06
3.55219e-06
1.30251e-06
3.39458e-06
1.39894e-06
3.24222e-06
1.4713e-06
3.09424e-06
1.52455e-06
2.95003e-06
1.56268e-06
2.8092e-06
1.58888e-06
2.67144e-06
1.6057e-06
2.53654e-06
1.6152e-06
2.40432e-06
1.61903e-06
2.27466e-06
1.61851e-06
2.14744e-06
1.61479e-06
2.02259e-06
1.60882e-06
1.90009e-06
1.60147e-06
1.77994e-06
1.59357e-06
1.66218e-06
1.58598e-06
1.54684e-06
1.5797e-06
1.43389e-06
1.57603e-06
1.32307e-06
1.57682e-06
1.21374e-06
1.58468e-06
1.10459e-06
1.60326e-06
9.93332e-07
1.63741e-06
8.76382e-07
1.6931e-06
7.48488e-07
1.777e-06
6.02666e-07
1.89507e-06
4.30985e-07
2.04767e-06
2.27831e-07
2.21121e-06
2.26411e-06
1.749e-05
2.46382e-05
3.04544e-05
3.39506e-05
1.9914e-05
2.02902e-05
2.11579e-05
2.92106e-05
1.85851e-05
1.7241e-05
1.63195e-05
2.34236e-05
1.69975e-05
1.51733e-05
1.38447e-05
1.94723e-05
1.54551e-05
1.38402e-05
1.25617e-05
1.67381e-05
1.41133e-05
1.30116e-05
1.18708e-05
1.48043e-05
1.30153e-05
1.25089e-05
1.14954e-05
1.33907e-05
1.21313e-05
1.22143e-05
1.13025e-05
1.23243e-05
1.14127e-05
1.20591e-05
1.12191e-05
1.14961e-05
1.08216e-05
1.12059e-05
1.08348e-05
1.12395e-05
1.02852e-05
1.13031e-05
9.81562e-06
1.13851e-05
9.39602e-06
1.14807e-05
9.00931e-06
1.15837e-05
8.64257e-06
1.16903e-05
8.287e-06
1.17975e-05
7.9369e-06
1.19031e-05
7.58831e-06
1.20055e-05
7.23857e-06
1.21032e-05
6.88575e-06
1.21948e-05
6.52836e-06
1.22794e-05
6.16521e-06
1.23557e-05
5.79525e-06
1.24229e-05
5.41751e-06
1.24799e-05
5.03111e-06
1.25255e-05
4.63526e-06
1.25586e-05
4.22923e-06
1.25778e-05
3.81242e-06
1.25817e-05
3.38435e-06
1.25685e-05
2.9447e-06
1.25357e-05
2.4933e-06
1.24844e-05
2.03006e-06
1.55594e-06
2.44511e-05
9.49951e-06
2.36344e-05
8.1678e-07
2.43601e-05
-7.25714e-07
-1.82923e-06
2.61894e-05
2.81441e-05
1.05661e-05
2.50034e-05
3.95753e-06
2.26117e-05
1.66596e-06
7.02464e-08
2.07123e-05
2.37888e-05
1.02009e-05
2.17662e-05
5.98018e-06
1.97087e-05
3.72339e-06
2.0689e-06
1.77101e-05
1.97617e-05
9.91153e-06
1.8659e-05
7.08297e-06
1.7238e-05
5.14442e-06
3.62645e-06
1.56804e-05
1.69054e-05
9.7443e-06
1.62697e-05
7.71868e-06
1.53006e-05
6.11346e-06
4.78776e-06
1.41393e-05
1.4888e-05
9.66051e-06
1.44808e-05
8.1259e-06
1.3797e-05
6.79731e-06
5.65305e-06
1.29317e-05
1.34135e-05
9.63767e-06
1.31241e-05
8.41532e-06
1.2622e-05
7.29944e-06
6.30846e-06
1.19666e-05
1.23027e-05
9.65921e-06
1.20769e-05
8.64115e-06
1.16915e-05
7.68487e-06
6.81828e-06
1.11817e-05
1.14428e-05
9.71257e-06
1.12517e-05
8.8322e-06
1.09415e-05
7.99513e-06
7.22801e-06
1.05317e-05
1.07571e-05
9.79027e-06
1.05851e-05
9.00419e-06
1.03234e-05
8.25684e-06
7.56883e-06
9.98256e-06
1.01937e-05
9.88169e-06
1.00309e-05
9.16703e-06
9.80079e-06
8.48693e-06
7.86191e-06
9.50771e-06
9.71082e-06
9.98649e-06
9.55472e-06
9.32313e-06
9.34599e-06
8.69567e-06
8.1211e-06
9.0868e-06
9.28352e-06
1.0099e-05
9.1317e-06
9.47495e-06
8.93836e-06
8.88901e-06
8.3554e-06
8.70407e-06
8.89218e-06
1.02162e-05
8.74409e-06
9.62304e-06
8.56265e-06
9.07046e-06
8.57036e-06
8.34768e-06
8.52343e-06
1.03354e-05
8.37931e-06
9.76717e-06
8.20797e-06
9.2418e-06
8.76945e-06
8.00888e-06
8.16815e-06
1.04542e-05
8.02863e-06
9.90671e-06
7.86657e-06
9.40387e-06
8.95472e-06
7.6813e-06
7.82012e-06
1.0571e-05
7.68601e-06
1.00408e-05
7.53297e-06
9.55691e-06
9.12736e-06
7.36034e-06
7.47515e-06
1.06842e-05
7.34726e-06
1.01687e-05
7.20331e-06
9.70087e-06
9.28802e-06
7.04265e-06
7.1303e-06
1.07924e-05
7.00942e-06
1.02896e-05
6.87477e-06
9.83553e-06
9.43703e-06
6.72578e-06
6.78348e-06
1.08947e-05
6.67032e-06
1.04028e-05
6.54529e-06
9.96056e-06
9.57449e-06
6.40783e-06
6.43308e-06
1.099e-05
6.32832e-06
1.05075e-05
6.21327e-06
1.00756e-05
9.70038e-06
6.08737e-06
6.07779e-06
1.10774e-05
5.98211e-06
1.06032e-05
5.87742e-06
1.01803e-05
9.81459e-06
5.76322e-06
5.71653e-06
1.11561e-05
5.63058e-06
1.06892e-05
5.53671e-06
1.02742e-05
9.91688e-06
5.43442e-06
5.34832e-06
1.12253e-05
5.2728e-06
1.07647e-05
5.19023e-06
1.03568e-05
1.0007e-05
5.10016e-06
4.97233e-06
1.12841e-05
4.90794e-06
1.08291e-05
4.83724e-06
1.04275e-05
1.00844e-05
4.75977e-06
4.58781e-06
1.13315e-05
4.53533e-06
1.08816e-05
4.47712e-06
1.04857e-05
1.01488e-05
4.41272e-06
4.1941e-06
1.13666e-05
4.15439e-06
1.09213e-05
4.10938e-06
1.05307e-05
1.01996e-05
4.0586e-06
3.79069e-06
1.13884e-05
3.76468e-06
1.09473e-05
3.73364e-06
1.05617e-05
1.02361e-05
3.69713e-06
3.3772e-06
1.13955e-05
3.36591e-06
1.09586e-05
3.3497e-06
1.05779e-05
1.02577e-05
3.32815e-06
2.95344e-06
1.13868e-05
2.95798e-06
1.09541e-05
2.95752e-06
1.05784e-05
1.02635e-05
2.9517e-06
2.51948e-06
1.13606e-05
2.54101e-06
1.09326e-05
2.55728e-06
1.05621e-05
1.02528e-05
2.56799e-06
2.07512e-06
1.13155e-05
2.11487e-06
1.08928e-05
2.14903e-06
1.05279e-05
1.02245e-05
2.17726e-06
1.62233e-06
1.68068e-06
1.7336e-06
1.78022e-06
1.48911e-05
-8.80858e-06
1.01645e-05
-7.43417e-06
8.09774e-06
-4.8241e-06
7.00354e-06
-3.06125e-06
6.2825e-06
-1.84989e-06
5.7443e-06
-9.9938e-07
5.31743e-06
-3.73002e-07
4.96587e-06
1.08584e-07
4.66785e-06
4.88239e-07
4.40891e-06
7.90347e-07
4.1789e-06
1.03048e-06
3.97048e-06
1.21998e-06
3.77838e-06
1.36797e-06
3.5988e-06
1.48208e-06
3.42901e-06
1.56873e-06
3.26704e-06
1.63326e-06
3.11148e-06
1.6801e-06
2.96132e-06
1.71284e-06
2.81581e-06
1.73439e-06
2.67441e-06
1.74712e-06
2.53668e-06
1.75294e-06
2.40232e-06
1.7534e-06
2.27107e-06
1.74977e-06
2.14274e-06
1.74313e-06
2.01718e-06
1.73437e-06
1.89433e-06
1.72433e-06
1.77413e-06
1.71377e-06
1.65656e-06
1.70355e-06
1.54159e-06
1.69467e-06
1.42906e-06
1.68856e-06
1.3186e-06
1.68728e-06
1.20938e-06
1.69389e-06
1.09995e-06
1.7127e-06
9.87896e-07
1.74947e-06
8.69622e-07
1.81137e-06
7.40134e-07
1.90648e-06
5.93102e-07
2.0421e-06
4.21774e-07
2.21901e-06
2.21908e-07
2.41109e-06
2.48604e-06
1.51064e-05
-3.20263e-06
1.12455e-05
-3.57331e-06
9.03908e-06
-2.61765e-06
7.68007e-06
-1.70224e-06
6.7688e-06
-9.38621e-07
6.10413e-06
-3.34713e-07
5.58938e-06
1.41752e-07
5.1738e-06
5.24162e-07
4.82757e-06
8.34475e-07
4.53148e-06
1.08643e-06
4.27244e-06
1.28952e-06
4.04116e-06
1.45125e-06
3.83099e-06
1.57814e-06
3.63709e-06
1.67597e-06
3.45596e-06
1.74985e-06
3.28503e-06
1.80419e-06
3.1224e-06
1.84272e-06
2.96669e-06
1.86855e-06
2.81685e-06
1.88423e-06
2.6721e-06
1.89188e-06
2.53182e-06
1.89322e-06
2.39556e-06
1.88967e-06
2.26295e-06
1.88239e-06
2.13371e-06
1.87237e-06
2.00764e-06
1.86045e-06
1.88457e-06
1.8474e-06
1.7644e-06
1.83394e-06
1.64705e-06
1.8209e-06
1.53238e-06
1.80934e-06
1.42015e-06
1.8008e-06
1.30983e-06
1.7976e-06
1.2005e-06
1.80323e-06
1.09056e-06
1.82264e-06
9.77584e-07
1.86244e-06
8.58102e-07
1.93085e-06
7.27487e-07
2.03709e-06
5.80142e-07
2.18945e-06
4.10404e-07
2.38876e-06
2.15033e-07
2.60649e-06
2.70109e-06
1.43704e-05
1.37089e-07
1.14957e-05
-6.98598e-07
9.51329e-06
-6.35205e-07
8.13636e-06
-3.25309e-07
7.15105e-06
4.6689e-08
6.41416e-06
4.02178e-07
5.83921e-06
7.16697e-07
5.37496e-06
9.88415e-07
4.98946e-06
1.21997e-06
4.66161e-06
1.41428e-06
4.37679e-06
1.57434e-06
4.12456e-06
1.70347e-06
3.89737e-06
1.80532e-06
3.68964e-06
1.88368e-06
3.49727e-06
1.9422e-06
3.31722e-06
1.98423e-06
3.14721e-06
2.01273e-06
2.98551e-06
2.03024e-06
2.83083e-06
2.03891e-06
2.68218e-06
2.04054e-06
2.53878e-06
2.03663e-06
2.40002e-06
2.02843e-06
2.26544e-06
2.01697e-06
2.13466e-06
2.00314e-06
2.00741e-06
1.98771e-06
1.88345e-06
1.97135e-06
1.76262e-06
1.95477e-06
1.64474e-06
1.93878e-06
1.5296e-06
1.92448e-06
1.41684e-06
1.91356e-06
1.30584e-06
1.90861e-06
1.19556e-06
1.91352e-06
1.08436e-06
1.93384e-06
9.69827e-07
1.97696e-06
8.48676e-07
2.05199e-06
7.16677e-07
2.16909e-06
5.68908e-07
2.33722e-06
4.00591e-07
2.55709e-06
2.09165e-07
2.79794e-06
2.91028e-06
1.34336e-05
2.38395e-06
1.13289e-05
1.40613e-06
9.66448e-06
1.02921e-06
8.39051e-06
9.48657e-07
7.4159e-06
1.02129e-06
6.65695e-06
1.16114e-06
6.05115e-06
1.3225e-06
5.55584e-06
1.48372e-06
5.14199e-06
1.63384e-06
4.78926e-06
1.76701e-06
4.48309e-06
1.88051e-06
4.21276e-06
1.97378e-06
3.97033e-06
2.04773e-06
3.74986e-06
2.10413e-06
3.54688e-06
2.14517e-06
3.358e-06
2.1731e-06
3.18066e-06
2.19007e-06
3.01288e-06
2.19801e-06
2.85317e-06
2.19862e-06
2.70035e-06
2.19337e-06
2.55349e-06
2.18349e-06
2.41189e-06
2.17004e-06
2.27495e-06
2.15391e-06
2.14222e-06
2.13587e-06
2.01335e-06
2.11657e-06
1.88805e-06
2.09666e-06
1.76606e-06
2.07676e-06
1.64713e-06
2.0577e-06
1.53097e-06
2.04065e-06
1.41712e-06
2.02741e-06
1.30489e-06
2.02085e-06
1.19314e-06
2.02527e-06
1.08024e-06
2.04675e-06
9.63831e-07
2.09337e-06
8.40834e-07
2.17498e-06
7.0741e-07
2.3025e-06
5.59219e-07
2.48541e-06
3.92176e-07
2.72415e-06
2.04171e-07
2.98598e-06
3.11447e-06
1.25513e-05
3.97198e-06
1.09793e-05
2.97818e-06
9.61608e-06
2.39241e-06
8.48874e-06
2.07599e-06
7.57301e-06
1.93702e-06
6.82865e-06
1.90551e-06
6.21707e-06
1.93408e-06
5.70746e-06
1.99334e-06
5.27643e-06
2.06487e-06
4.90639e-06
2.13705e-06
4.584e-06
2.2029e-06
4.29906e-06
2.2587e-06
4.04379e-06
2.30298e-06
3.81219e-06
2.33572e-06
3.59965e-06
2.3577e-06
3.40261e-06
2.37012e-06
3.21835e-06
2.37433e-06
3.04471e-06
2.37164e-06
2.88004e-06
2.36329e-06
2.72303e-06
2.35038e-06
2.57263e-06
2.33389e-06
2.42803e-06
2.31465e-06
2.28854e-06
2.29339e-06
2.15365e-06
2.27076e-06
2.02292e-06
2.24731e-06
1.89598e-06
2.22359e-06
1.77252e-06
2.20022e-06
1.65222e-06
2.17801e-06
1.5347e-06
2.15817e-06
1.41943e-06
2.14269e-06
1.30563e-06
2.13466e-06
1.19215e-06
2.13875e-06
1.07734e-06
2.16156e-06
9.58974e-07
2.21173e-06
8.34154e-07
2.29979e-06
6.99399e-07
2.43726e-06
5.50855e-07
2.63396e-06
3.84967e-07
2.89005e-06
1.99919e-07
3.17106e-06
3.31441e-06
1.17677e-05
5.13603e-06
1.05663e-05
4.17953e-06
9.45425e-06
3.50448e-06
8.47694e-06
3.05329e-06
7.64118e-06
2.77278e-06
6.93382e-06
2.61287e-06
6.33496e-06
2.53294e-06
5.82502e-06
2.50329e-06
5.38706e-06
2.50283e-06
5.00712e-06
2.517e-06
4.67384e-06
2.53617e-06
4.37814e-06
2.55438e-06
4.11278e-06
2.56833e-06
3.87202e-06
2.57646e-06
3.65133e-06
2.57837e-06
3.44715e-06
2.57429e-06
3.25665e-06
2.56481e-06
3.07764e-06
2.55065e-06
2.90833e-06
2.5326e-06
2.74732e-06
2.51139e-06
2.59349e-06
2.48772e-06
2.44592e-06
2.46222e-06
2.30388e-06
2.43543e-06
2.16676e-06
2.40787e-06
2.03406e-06
2.38e-06
1.90537e-06
2.35228e-06
1.7803e-06
2.32529e-06
1.65845e-06
2.29985e-06
1.5394e-06
2.27724e-06
1.42253e-06
2.25956e-06
1.30704e-06
2.25016e-06
1.19174e-06
2.25405e-06
1.07503e-06
2.27827e-06
9.54767e-07
2.33199e-06
8.28272e-07
2.42628e-06
6.92361e-07
2.57317e-06
5.43572e-07
2.78276e-06
3.78751e-07
3.05489e-06
1.96273e-07
3.35357e-06
3.5107e-06
1.10852e-05
6.01743e-06
1.01457e-05
5.11904e-06
9.23281e-06
4.41735e-06
8.39129e-06
3.89481e-06
7.64007e-06
3.524e-06
6.98098e-06
3.27195e-06
6.40685e-06
3.10708e-06
5.90713e-06
3.00302e-06
5.47081e-06
2.93916e-06
5.08764e-06
2.90017e-06
4.7486e-06
2.87519e-06
4.44603e-06
2.85695e-06
4.17351e-06
2.84083e-06
3.92579e-06
2.82417e-06
3.6986e-06
2.80555e-06
3.4885e-06
2.78438e-06
3.29271e-06
2.76059e-06
3.10899e-06
2.73436e-06
2.93555e-06
2.70603e-06
2.77093e-06
2.67601e-06
2.61393e-06
2.64472e-06
2.46359e-06
2.61255e-06
2.31912e-06
2.5799e-06
2.17985e-06
2.54713e-06
2.04523e-06
2.51461e-06
1.91479e-06
2.48272e-06
1.78808e-06
2.452e-06
1.66466e-06
2.42327e-06
1.54403e-06
2.39787e-06
1.42555e-06
2.37804e-06
1.30837e-06
2.36735e-06
1.19131e-06
2.37111e-06
1.0728e-06
2.39677e-06
9.50831e-07
2.45396e-06
8.2288e-07
2.55423e-06
6.86025e-07
2.71002e-06
5.37118e-07
2.93168e-06
3.73306e-07
3.21873e-06
1.93097e-07
3.53381e-06
3.70382e-06
1.04932e-05
6.70588e-06
9.74101e-06
5.87124e-06
8.983e-06
5.17536e-06
8.25753e-06
4.62027e-06
7.58668e-06
4.19485e-06
6.97963e-06
3.879e-06
6.43701e-06
3.6497e-06
5.95478e-06
3.48526e-06
5.52673e-06
3.36722e-06
5.14597e-06
3.28092e-06
4.80579e-06
3.21537e-06
4.50002e-06
3.16271e-06
4.22325e-06
3.11759e-06
3.97086e-06
3.07655e-06
3.73895e-06
3.03744e-06
3.52432e-06
2.999e-06
3.32431e-06
2.96059e-06
3.13674e-06
2.92192e-06
2.95983e-06
2.88294e-06
2.7921e-06
2.84374e-06
2.63234e-06
2.80447e-06
2.47954e-06
2.76534e-06
2.33288e-06
2.72656e-06
2.19164e-06
2.68836e-06
2.05524e-06
2.651e-06
1.92316e-06
2.6148e-06
1.79489e-06
2.58026e-06
1.66997e-06
2.54819e-06
1.54784e-06
2.52e-06
1.42783e-06
2.49806e-06
1.30907e-06
2.48611e-06
1.1904e-06
2.48978e-06
1.07031e-06
2.51687e-06
9.46862e-07
2.57741e-06
8.17711e-07
2.68338e-06
6.8014e-07
2.8476e-06
5.3125e-07
3.08058e-06
3.68423e-07
3.38158e-06
1.90262e-07
3.71201e-06
3.8941e-06
9.97716e-06
7.26045e-06
9.36041e-06
6.48799e-06
8.72195e-06
5.81381e-06
8.09289e-06
5.24932e-06
7.49444e-06
4.7933e-06
6.93868e-06
4.43476e-06
6.43059e-06
4.1578e-06
5.97037e-06
3.94548e-06
5.55539e-06
3.7822e-06
5.18155e-06
3.65477e-06
4.84415e-06
3.55276e-06
4.53851e-06
3.46834e-06
4.26024e-06
3.39586e-06
4.0054e-06
3.33138e-06
3.77059e-06
3.27224e-06
3.55289e-06
3.21669e-06
3.34983e-06
3.16363e-06
3.15936e-06
3.11239e-06
2.97973e-06
3.06256e-06
2.80952e-06
3.01396e-06
2.64749e-06
2.9665e-06
2.49264e-06
2.92018e-06
2.34412e-06
2.87508e-06
2.2012e-06
2.83128e-06
2.06324e-06
2.78894e-06
1.9297e-06
2.74833e-06
1.80005e-06
2.7099e-06
1.67378e-06
2.67447e-06
1.55029e-06
2.64349e-06
1.42892e-06
2.61944e-06
1.30877e-06
2.60626e-06
1.18871e-06
2.60985e-06
1.06727e-06
2.63831e-06
9.42616e-07
2.70206e-06
8.12532e-07
2.81347e-06
6.74475e-07
2.98567e-06
5.25745e-07
3.22933e-06
3.63912e-07
3.54344e-06
1.8766e-07
3.8883e-06
4.08179e-06
9.52219e-06
7.72081e-06
9.00455e-06
7.00561e-06
8.45842e-06
6.35993e-06
7.90843e-06
5.79931e-06
7.37337e-06
5.32835e-06
6.86581e-06
4.94232e-06
6.39276e-06
4.63085e-06
5.95698e-06
4.38127e-06
5.55832e-06
4.18087e-06
5.19478e-06
4.01831e-06
4.86338e-06
3.88416e-06
4.56074e-06
3.77098e-06
4.28344e-06
3.67315e-06
4.02827e-06
3.58654e-06
3.79231e-06
3.50818e-06
3.573e-06
3.43599e-06
3.36812e-06
3.36852e-06
3.17574e-06
3.30476e-06
2.99423e-06
3.24407e-06
2.82221e-06
3.18598e-06
2.65849e-06
3.13021e-06
2.50207e-06
3.0766e-06
2.35209e-06
3.02505e-06
2.20781e-06
2.97554e-06
2.06859e-06
2.92815e-06
1.93385e-06
2.88306e-06
1.80305e-06
2.8407e-06
1.67563e-06
2.80188e-06
1.55101e-06
2.76811e-06
1.42849e-06
2.74196e-06
1.30718e-06
2.72757e-06
1.18598e-06
2.73105e-06
1.06347e-06
2.76082e-06
9.37888e-07
2.82764e-06
8.07139e-07
2.94422e-06
6.68823e-07
3.124e-06
5.20404e-07
3.37777e-06
3.59609e-07
3.70426e-06
1.85194e-07
4.06276e-06
4.26702e-06
9.11471e-06
8.11381e-06
8.67063e-06
7.44968e-06
8.1963e-06
6.83426e-06
7.71098e-06
6.28461e-06
7.23069e-06
5.80864e-06
6.76723e-06
5.40579e-06
6.32824e-06
5.06984e-06
5.91786e-06
4.79165e-06
5.5375e-06
4.56123e-06
5.1867e-06
4.36912e-06
4.86381e-06
4.20704e-06
4.56656e-06
4.06823e-06
4.29241e-06
3.94729e-06
4.03882e-06
3.84012e-06
3.80338e-06
3.74362e-06
3.58388e-06
3.65548e-06
3.37836e-06
3.57403e-06
3.18509e-06
3.49803e-06
3.00256e-06
3.4266e-06
2.82947e-06
3.35907e-06
2.66467e-06
3.295e-06
2.5072e-06
3.23406e-06
2.35621e-06
3.17602e-06
2.21097e-06
3.12077e-06
2.07083e-06
3.06828e-06
1.9352e-06
3.01869e-06
1.80351e-06
2.97238e-06
1.67522e-06
2.93017e-06
1.54971e-06
2.89361e-06
1.4263e-06
2.86538e-06
1.3041e-06
2.84977e-06
1.18203e-06
2.85312e-06
1.05873e-06
2.88412e-06
9.32501e-07
2.95387e-06
8.01351e-07
3.07538e-06
6.62999e-07
3.26236e-06
5.15051e-07
3.52574e-06
3.55371e-07
3.86398e-06
1.82785e-07
4.2354e-06
4.44983e-06
8.74299e-06
8.45763e-06
8.35455e-06
7.8381e-06
7.93674e-06
7.25206e-06
7.50461e-06
6.71674e-06
7.07144e-06
6.24181e-06
6.64778e-06
5.82945e-06
6.24111e-06
5.47651e-06
5.85611e-06
5.17665e-06
5.49512e-06
4.92223e-06
5.15869e-06
4.70554e-06
4.84621e-06
4.51953e-06
4.55628e-06
4.35815e-06
4.28712e-06
4.21644e-06
4.03681e-06
4.09043e-06
3.80339e-06
3.97703e-06
3.58504e-06
3.87383e-06
3.38005e-06
3.77901e-06
3.1869e-06
3.69119e-06
3.00421e-06
3.60928e-06
2.83078e-06
3.5325e-06
2.66555e-06
3.46023e-06
2.50759e-06
3.39202e-06
2.35608e-06
3.32753e-06
2.21031e-06
3.26654e-06
2.06962e-06
3.20897e-06
1.93343e-06
3.15488e-06
1.80117e-06
3.10463e-06
1.6723e-06
3.05904e-06
1.54619e-06
3.01971e-06
1.42216e-06
2.98941e-06
1.29935e-06
2.97258e-06
1.1767e-06
2.97576e-06
1.05289e-06
3.00793e-06
9.26301e-07
3.08046e-06
7.95008e-07
3.20668e-06
6.56843e-07
3.40054e-06
5.09537e-07
3.67307e-06
3.51079e-07
4.02247e-06
1.80367e-07
4.40616e-06
4.63023e-06
8.39733e-06
8.76436e-06
8.05203e-06
8.1834e-06
7.67953e-06
7.62456e-06
7.29159e-06
7.10468e-06
6.8991e-06
6.63429e-06
6.51117e-06
6.21737e-06
6.13473e-06
5.85294e-06
5.7745e-06
5.53688e-06
5.43327e-06
5.26347e-06
5.11225e-06
5.02656e-06
4.81154e-06
4.82024e-06
4.53045e-06
4.63924e-06
4.26782e-06
4.47906e-06
4.02225e-06
4.336e-06
3.79222e-06
4.20705e-06
3.57624e-06
4.08981e-06
3.37288e-06
3.98237e-06
3.18081e-06
3.88326e-06
2.99882e-06
3.79128e-06
2.8258e-06
3.70551e-06
2.6608e-06
3.62524e-06
2.50292e-06
3.54989e-06
2.35139e-06
3.47905e-06
2.20553e-06
3.4124e-06
2.06469e-06
3.3498e-06
1.92831e-06
3.29125e-06
1.79582e-06
3.23711e-06
1.66668e-06
3.18818e-06
1.54028e-06
3.14611e-06
1.41593e-06
3.11376e-06
1.2928e-06
3.09571e-06
1.16987e-06
3.0987e-06
1.04584e-06
3.13196e-06
9.1915e-07
3.20715e-06
7.87967e-07
3.33787e-06
6.50213e-07
3.53831e-06
5.03733e-07
3.81957e-06
3.46633e-07
4.1796e-06
1.77882e-07
4.57496e-06
4.80814e-06
8.06998e-06
9.04207e-06
7.75914e-06
8.49423e-06
7.42378e-06
7.95992e-06
7.07311e-06
7.45534e-06
6.71601e-06
6.99139e-06
6.36019e-06
6.57318e-06
6.01184e-06
6.20129e-06
5.67544e-06
5.87328e-06
5.35391e-06
5.585e-06
5.04887e-06
5.3316e-06
4.76088e-06
5.10822e-06
4.4898e-06
4.91032e-06
4.23494e-06
4.73392e-06
3.99535e-06
4.57559e-06
3.7699e-06
4.4325e-06
3.5574e-06
4.3023e-06
3.35669e-06
4.18309e-06
3.16662e-06
4.07333e-06
2.98614e-06
3.97176e-06
2.81428e-06
3.87738e-06
2.65014e-06
3.78938e-06
2.49292e-06
3.70711e-06
2.3419e-06
3.63007e-06
2.19641e-06
3.55789e-06
2.05585e-06
3.49035e-06
1.91966e-06
3.42744e-06
1.7873e-06
3.36947e-06
1.65822e-06
3.31726e-06
1.53184e-06
3.27249e-06
1.40749e-06
3.23812e-06
1.28434e-06
3.21885e-06
1.1614e-06
3.22164e-06
1.03744e-06
3.25593e-06
9.10927e-07
3.33366e-06
7.80106e-07
3.4687e-06
6.4299e-07
3.67544e-06
4.97532e-07
3.96505e-06
3.41949e-07
4.33522e-06
1.75287e-07
4.74167e-06
4.98345e-06
7.75493e-06
9.29601e-06
7.47257e-06
8.77659e-06
7.16841e-06
8.26408e-06
6.84974e-06
7.77401e-06
6.52374e-06
7.31738e-06
6.1969e-06
6.90002e-06
5.87459e-06
6.5236e-06
5.56092e-06
6.18694e-06
5.25878e-06
5.88714e-06
4.96995e-06
5.62043e-06
4.69532e-06
5.38285e-06
4.4351e-06
5.17054e-06
4.18901e-06
4.98e-06
3.95645e-06
4.80815e-06
3.73661e-06
4.65233e-06
3.52859e-06
4.51031e-06
3.33145e-06
4.38024e-06
3.14424e-06
4.26054e-06
2.96606e-06
4.14994e-06
2.79605e-06
4.04739e-06
2.63342e-06
3.95201e-06
2.47744e-06
3.86309e-06
2.32744e-06
3.78008e-06
2.1828e-06
3.70254e-06
2.04294e-06
3.63021e-06
1.90734e-06
3.56304e-06
1.77547e-06
3.50134e-06
1.6468e-06
3.44593e-06
1.52077e-06
3.39853e-06
1.39672e-06
3.36217e-06
1.27386e-06
3.34172e-06
1.15122e-06
3.34428e-06
1.02759e-06
3.37956e-06
9.01524e-07
3.45972e-06
7.71317e-07
3.59891e-06
6.3507e-07
3.81169e-06
4.90841e-07
4.10929e-06
3.36958e-07
4.48913e-06
1.72543e-07
4.90612e-06
5.15601e-06
7.44767e-06
9.52964e-06
7.18963e-06
9.03462e-06
6.91236e-06
8.54134e-06
6.62165e-06
8.06471e-06
6.32334e-06
7.61569e-06
6.02281e-06
7.20054e-06
5.72468e-06
6.82172e-06
5.43264e-06
6.47898e-06
5.1494e-06
6.17037e-06
4.87679e-06
5.89303e-06
4.61589e-06
5.64374e-06
4.36717e-06
5.41926e-06
4.13062e-06
5.21654e-06
3.90595e-06
5.03281e-06
3.69261e-06
4.86566e-06
3.48994e-06
4.71298e-06
3.29721e-06
4.57297e-06
3.11365e-06
4.4441e-06
2.9385e-06
4.3251e-06
2.77103e-06
4.21487e-06
2.61053e-06
4.11251e-06
2.45635e-06
4.01727e-06
2.30789e-06
3.92854e-06
2.16456e-06
3.84586e-06
2.02584e-06
3.76893e-06
1.89123e-06
3.69766e-06
1.76022e-06
3.63235e-06
1.63232e-06
3.57384e-06
1.50697e-06
3.52389e-06
1.38354e-06
3.48561e-06
1.26126e-06
3.464e-06
1.13921e-06
3.46635e-06
1.0162e-06
3.50256e-06
8.90847e-07
3.58508e-06
7.61506e-07
3.72825e-06
6.26366e-07
3.94684e-06
4.83586e-07
4.25209e-06
3.31604e-07
4.64113e-06
1.69623e-07
5.06813e-06
5.32565e-06
7.14477e-06
9.74521e-06
6.90817e-06
9.27121e-06
6.65465e-06
8.79486e-06
6.38884e-06
8.33052e-06
6.11548e-06
7.88905e-06
5.83903e-06
7.47698e-06
5.56344e-06
7.0973e-06
5.29195e-06
6.75047e-06
5.02705e-06
6.43527e-06
4.77053e-06
6.14954e-06
4.52357e-06
5.89071e-06
4.28678e-06
5.65604e-06
4.06038e-06
5.44292e-06
3.8443e-06
5.24888e-06
3.63822e-06