/*--------------------------------*- C++ -*----------------------------------*\
  =========                 |
  \\      /  F ield         | OpenFOAM: The Open Source CFD Toolbox
   \\    /   O peration     | Website:  https://openfoam.org
    \\  /    A nd           | Version:  9
     \\/     M anipulation  |
\*---------------------------------------------------------------------------*/
FoamFile
{
    format      ascii;
    class       surfaceScalarField;
    location    "0.4";
    object      alphaPhi0.water;
}
// * * * * * * * * * * * * * * * * * * * * * * * * * * * * * * * * * * * * * //

dimensions      [0 3 -1 0 0 0 0];

internalField   nonuniform List<scalar> 
3742
(
9.82156e-23
-1.39048e-22
1.68226e-22
-2.25418e-22
2.06344e-22
-2.8209e-22
2.09466e-22
-2.46192e-22
1.59701e-22
-1.60282e-22
1.58517e-22
-1.35763e-22
1.99606e-22
-1.5353e-22
3.10852e-22
-2.16006e-22
4.94718e-22
-3.1831e-22
7.34482e-22
-4.46488e-22
1.09653e-21
-6.89e-22
2.1613e-21
-1.81057e-21
8.58364e-21
-9.49155e-21
5.534e-20
-6.3227e-20
3.96793e-19
-4.33293e-19
2.86713e-18
-2.97379e-18
1.92042e-17
-1.9089e-17
1.05743e-16
-1.02472e-16
4.44714e-16
-4.20619e-16
1.42578e-15
-1.32181e-15
3.57079e-15
-3.25058e-15
7.26302e-15
-6.19468e-15
1.47447e-14
-1.06856e-14
2.36335e-14
-2.28058e-14
-1.74381e-14
-5.78126e-28
9.29964e-26
-7.90678e-27
1.11502e-24
-8.26606e-26
7.19476e-24
-5.48649e-25
2.93959e-23
-2.41132e-24
8.30985e-23
-7.33646e-24
1.70624e-22
-1.61035e-23
2.66486e-22
-2.75235e-23
3.46699e-22
-4.32898e-23
4.38474e-22
-7.24124e-23
5.7433e-22
-1.14458e-22
6.91064e-22
-1.53103e-22
6.84833e-22
-1.55903e-22
4.71929e-22
-9.5021e-23
1.13358e-22
-3.01886e-26
-9.31397e-23
3.64573e-23
-7.54478e-24
1.08382e-24
-3.47878e-24
9.67685e-25
-2.79386e-24
1.37474e-24
-3.3895e-24
5.50093e-24
-1.03148e-23
1.3038e-23
-2.22625e-23
2.02841e-23
-3.21912e-23
2.39081e-23
-3.69176e-23
2.03138e-23
-2.73127e-23
1.42967e-23
-1.64515e-23
1.50488e-23
-1.52398e-23
2.08433e-23
-1.84449e-23
3.51996e-23
-2.8038e-23
5.74432e-23
-4.27932e-23
9.16196e-23
-6.886e-23
1.86231e-22
-1.82513e-22
7.82577e-22
-1.03345e-21
5.65652e-21
-7.70964e-21
4.53186e-20
-5.71188e-20
3.56137e-19
-4.09207e-19
2.64294e-18
-2.94379e-18
1.81271e-17
-1.97129e-17
1.02065e-16
-1.08145e-16
4.40216e-16
-4.63773e-16
1.44283e-15
-1.51484e-15
3.69098e-15
-3.82349e-15
7.52004e-15
-7.58288e-15
1.44871e-14
-1.29809e-14
2.74377e-14
-3.01748e-14
-2.03093e-14
3.5702e-28
3.01547e-26
9.94221e-27
3.42252e-25
5.33341e-26
2.08976e-24
1.39205e-25
8.03609e-24
1.64236e-25
2.12877e-23
-5.3119e-26
4.10164e-23
-5.63333e-25
6.10221e-23
-1.53545e-24
7.78032e-23
-3.16829e-24
9.63301e-23
-6.01516e-24
1.1677e-22
-9.77326e-24
1.23684e-22
-1.247e-23
1.0058e-22
-1.06929e-23
4.62108e-23
-3.11583e-24
-5.96208e-24
3.04635e-24
-8.25893e-24
7.6915e-26
-6.3676e-25
7.41054e-26
-5.61522e-25
8.1902e-26
-3.99508e-25
1.34687e-25
-5.09656e-25
5.65711e-25
-1.45027e-24
1.18934e-24
-2.7093e-24
1.70524e-24
-3.52921e-24
1.98753e-24
-3.69949e-24
1.33482e-24
-2.2838e-24
1.05993e-24
-1.47375e-24
1.17571e-24
-1.47941e-24
1.85221e-24
-2.01833e-24
3.41141e-24
-3.34565e-24
6.0225e-24
-5.72328e-24
1.24972e-23
-1.45608e-23
5.20779e-23
-8.40711e-23
4.15821e-22
-6.98355e-22
3.69614e-21
-5.62712e-21
3.03781e-20
-4.17349e-20
2.39331e-19
-3.04678e-19
1.94089e-18
-2.28524e-18
1.45832e-17
-1.65048e-17
8.81422e-17
-9.99581e-17
3.96071e-16
-4.62131e-16
1.3383e-15
-1.61355e-15
3.5852e-15
-4.32574e-15
7.6813e-15
-9.14247e-15
1.51283e-14
-1.62109e-14
2.82626e-14
-3.49321e-14
-2.38954e-14
7.85134e-28
7.67505e-27
1.02281e-26
8.29586e-26
5.69271e-26
4.80779e-25
1.87155e-25
1.74772e-24
4.10382e-25
4.36812e-24
6.54554e-25
7.97488e-24
8.53245e-25
1.14027e-23
1.03496e-24
1.41636e-23
1.17695e-24
1.67197e-23
1.11248e-24
1.82706e-23
7.55287e-25
1.64289e-23
2.60488e-25
1.01853e-23
-1.99561e-26
2.21434e-24
-6.10963e-27
-6.9025e-25
1.88672e-26
-6.85351e-26
1.86458e-27
-9.47931e-26
2.8739e-27
-6.60037e-26
3.20274e-27
-4.74813e-26
6.7241e-27
-5.96047e-26
2.82076e-26
-1.49237e-25
5.71475e-26
-2.44236e-25
8.10088e-26
-2.89049e-25
9.90313e-26
-2.6748e-25
5.74076e-26
-1.47879e-25
5.75408e-26
-1.1238e-25
7.10365e-26
-1.27109e-25
1.36782e-25
-2.09929e-25
2.84708e-25
-3.92674e-25
6.31792e-25
-9.69095e-25
2.4928e-24
-5.33658e-24
2.12318e-23
-4.81304e-23
2.15127e-22
-4.33421e-22
1.95399e-21
-3.53039e-21
1.62767e-20
-2.72156e-20
1.34659e-19
-2.09591e-19
1.13655e-18
-1.66762e-18
9.16581e-18
-1.29705e-17
6.13076e-17
-8.59737e-17
3.10061e-16
-4.37447e-16
1.17634e-15
-1.66026e-15
3.35336e-15
-4.83433e-15
7.66372e-15
-1.09611e-14
1.52628e-14
-1.94818e-14
2.60581e-14
-3.76538e-14
-3.44412e-14
3.24599e-28
1.44997e-27
3.85098e-27
1.4977e-26
2.06302e-26
8.26967e-26
6.64032e-26
2.85637e-25
1.44989e-25
6.78203e-25
2.36447e-25
1.1822e-24
3.23951e-25
1.6292e-24
4.11285e-25
1.94806e-24
4.73739e-25
2.13755e-24
4.41536e-25
2.04595e-24
2.7957e-25
1.49461e-24
6.12304e-26
6.36575e-25
-1.16285e-26
-1.94011e-26
-1.00019e-27
-3.05503e-26
-1.38998e-27
-9.79947e-27
-1.0501e-27
-1.03788e-26
-5.92324e-28
-6.91516e-27
-5.34709e-28
-4.48715e-27
-9.34868e-28
-5.12982e-27
-1.44843e-27
-1.06353e-26
-1.18096e-27
-1.52628e-26
-2.2777e-28
-1.68124e-26
7.68497e-28
-1.27084e-26
9.36983e-28
-7.58469e-27
1.48703e-27
-7.08833e-27
2.82551e-27
-1.07389e-26
7.55966e-27
-2.22733e-26
2.06811e-26
-5.88749e-26
8.35086e-26
-3.11729e-25
7.36333e-25
-2.86123e-24
8.6091e-24
-2.81837e-23
9.16256e-23
-2.56056e-22
8.7137e-22
-2.16939e-21
7.82153e-21
-1.74562e-20
6.95895e-20
-1.39636e-19
6.34027e-19
-1.16208e-18
5.58519e-18
-9.69216e-18
4.14369e-17
-7.08532e-17
2.33234e-16
-4.03924e-16
9.70275e-16
-1.72041e-15
3.04367e-15
-5.43102e-15
7.37045e-15
-1.3065e-14
1.46336e-14
-2.4956e-14
2.7891e-14
-4.18427e-14
-1.00272e-13
7.88823e-29
1.81934e-28
8.88786e-28
1.80052e-27
4.57123e-27
9.51128e-27
1.42025e-26
3.13801e-26
3.01836e-26
7.12173e-26
4.84913e-26
1.19115e-25
6.55243e-26
1.57929e-25
7.94097e-26
1.79123e-25
8.24736e-26
1.78301e-25
6.44507e-26
1.44829e-25
2.90189e-26
8.11515e-26
-9.25384e-28
1.91632e-26
-8.67322e-28
-3.61149e-27
-2.79491e-28
-5.64088e-28
-2.95645e-28
-9.39958e-28
-2.3798e-28
-9.69394e-28
-1.26644e-28
-5.83775e-28
-1.2524e-28
-3.17142e-28
-2.14175e-28
-3.03177e-28
-3.51682e-28
-4.75986e-28
-3.92105e-28
-5.91102e-28
-3.11923e-28
-5.91973e-28
-1.4243e-28
-3.80771e-28
-1.03909e-28
-3.03939e-28
-8.05602e-29
-4.28451e-28
-6.45027e-29
-1.07764e-27
5.77009e-29
-3.70588e-27
1.07723e-27
-2.22302e-26
1.42876e-26
-1.9896e-25
2.13937e-25
-1.94872e-24
2.88161e-24
-1.86792e-23
3.37205e-23
-1.70507e-22
3.5625e-22
-1.47934e-21
3.48516e-21
-1.23195e-20
3.31555e-20
-1.01585e-19
3.21259e-19
-8.64826e-19
3.0694e-18
-7.49399e-18
2.54869e-17
-5.92139e-17
1.63809e-16
-3.76663e-16
7.72714e-16
-1.78217e-15
2.64592e-15
-6.10395e-15
6.8385e-15
-1.55312e-14
1.46632e-14
-3.06223e-14
2.95355e-14
-4.94486e-14
-1.71954e-13
1.15645e-29
1.14295e-29
1.25013e-28
1.08669e-28
6.1878e-28
5.51513e-28
1.85523e-27
1.74668e-27
3.82402e-27
3.80741e-27
5.97946e-27
6.12318e-27
7.75893e-27
7.76709e-27
8.64085e-27
8.21866e-27
7.71886e-27
7.23723e-27
4.69174e-27
4.8015e-27
1.1883e-27
1.87782e-27
-2.38732e-28
5.85893e-29
-2.07235e-29
-1.3521e-28
-3.54613e-29
-5.106e-29
-3.94565e-29
-6.69985e-29
-3.08212e-29
-6.87773e-29
-1.38465e-29
-3.82085e-29
-1.27476e-29
-1.62272e-29
-1.68645e-29
-1.19268e-29
-2.4074e-29
-1.17366e-29
-2.37985e-29
-1.27351e-29
-1.67808e-29
-1.08592e-29
-1.13436e-29
-8.66088e-30
-1.11958e-29
-1.22187e-29
-1.79979e-29
-4.52896e-29
-4.49285e-29
-2.48464e-28
-1.76143e-28
-1.92594e-27
-1.01045e-27
-1.79396e-26
-5.26794e-27
-1.73328e-25
-2.67103e-27
-1.64432e-24
4.67255e-25
-1.52126e-23
9.0138e-24
-1.37068e-22
1.21872e-22
-1.19422e-21
1.40086e-21
-1.01611e-20
1.48416e-20
-8.4866e-20
1.54174e-19
-7.18208e-19
1.57547e-18
-6.21419e-18
1.44763e-17
-5.14565e-17
1.0588e-16
-3.58355e-16
5.61966e-16
-1.85554e-15
2.10167e-15
-6.79949e-15
5.73518e-15
-1.79377e-14
1.27624e-14
-3.57063e-14
2.87211e-14
-5.92379e-14
-2.05752e-13
8.06172e-31
-2.6877e-48
8.4021e-30
-1.19897e-46
4.01519e-29
-7.0414e-45
1.16395e-28
-3.07533e-42
2.32333e-28
-1.57872e-40
3.5016e-28
-1.11709e-38
4.27148e-28
-8.55108e-37
4.24122e-28
-5.7491e-35
3.11909e-28
-3.43899e-33
1.33391e-28
-1.86178e-31
4.50028e-30
-3.26981e-30
-6.68814e-30
-6.14682e-30
-2.3972e-30
-1.2287e-30
-3.17001e-30
-2.74736e-30
-3.51719e-30
-3.3601e-30
-2.69607e-30
-3.36114e-30
-1.07525e-30
-1.82018e-30
-6.6491e-31
-6.9643e-31
-6.48478e-31
-3.45783e-31
-7.07361e-31
-2.30832e-31
-6.54411e-31
-1.93108e-31
-4.8232e-31
-1.90152e-31
-4.9152e-31
-3.0757e-31
-9.69487e-31
-1.80179e-30
-4.39018e-30
-1.58798e-29
-2.97882e-29
-1.56612e-28
-2.52577e-28
-1.60302e-27
-2.2045e-27
-1.61382e-26
-1.79918e-26
-1.56756e-25
-1.34112e-25
-1.47761e-24
-8.80096e-25
-1.36218e-23
-4.4522e-24
-1.22793e-22
-7.30643e-24
-1.0783e-21
2.11394e-22
-9.20775e-21
4.07111e-21
-7.68374e-20
5.37358e-20
-6.41466e-19
6.27835e-19
-5.46311e-18
6.56695e-18
-4.61464e-17
5.55171e-17
-3.41322e-16
3.35591e-16
-1.88549e-15
1.37139e-15
-7.30705e-15
3.94408e-15
-1.95891e-14
9.17639e-15
-3.90078e-14
2.69387e-14
-6.77782e-14
-2.65146e-13
-1.39128e-49
-3.34831e-52
-1.19803e-46
-2.3291e-49
-7.11212e-45
-4.90781e-47
-3.07564e-42
-6.79817e-45
-1.60241e-40
-7.07524e-43
-1.12724e-38
-5.87794e-41
-8.62282e-37
-4.11835e-39
-5.81052e-35
-2.50262e-37
-3.48377e-33
-1.34649e-35
-1.45905e-31
-3.60351e-34
-5.53716e-31
-2.59136e-32
-6.15072e-32
-1.14587e-31
-1.24253e-31
-5.9822e-32
-1.90568e-31
-9.35047e-32
-2.01945e-31
-1.04349e-31
-1.54566e-31
-9.39338e-32
-6.28531e-32
-5.30555e-32
-2.90442e-32
-2.6628e-32
-1.77603e-32
-1.58533e-32
-1.35376e-32
-1.07492e-32
-1.35205e-32
-9.33968e-33
-1.44162e-32
-1.31609e-32
-3.78804e-32
-7.6245e-32
-2.97748e-31
-8.76e-31
-2.97254e-30
-1.02836e-29
-3.14353e-29
-1.17544e-28
-3.21149e-28
-1.27791e-27
-3.03409e-27
-1.31522e-26
-2.70009e-26
-1.30196e-25
-2.29406e-25
-1.25132e-24
-1.85974e-24
-1.17064e-23
-1.42974e-23
-1.06862e-22
-1.02453e-22
-9.51594e-22
-6.69297e-22
-8.2418e-21
-3.90245e-21
-6.95646e-20
-1.93034e-20
-5.81031e-19
-5.47319e-20
-4.91491e-18
4.74996e-19
-4.15858e-17
1.00999e-17
-3.16082e-16
9.16837e-17
-1.83564e-15
4.80423e-16
-7.34033e-15
1.60961e-15
-1.99047e-14
4.30276e-15
-3.97988e-14
1.61817e-14
-7.18643e-14
-2.75436e-13
-2.09007e-52
-8.80864e-54
-2.27217e-49
-5.28491e-51
-4.81382e-47
-9.58417e-49
-6.64457e-45
-1.83965e-46
-6.9218e-43
-1.69453e-44
-5.776e-41
-1.53931e-42
-4.04594e-39
-1.29193e-40
-2.44949e-37
-9.27408e-39
-1.31181e-35
-5.88556e-37
-2.79696e-34
-2.64784e-35
-1.16929e-32
-5.25731e-34
-3.45627e-33
-1.59017e-33
-5.19205e-33
-2.61246e-33
-6.75506e-33
-2.9467e-33
-6.93021e-33
-2.67694e-33
-4.92226e-33
-1.61387e-33
-2.57822e-33
-1.25873e-33
-1.52622e-33
-1.12966e-33
-9.66562e-34
-9.29963e-34
-7.97407e-34
-7.31556e-34
-8.32143e-34
-7.69443e-34
-1.84242e-33
-3.31557e-33
-1.70383e-32
-4.12569e-32
-2.13057e-31
-5.37042e-31
-2.59732e-30
-6.59266e-30
-2.94658e-29
-7.63763e-29
-3.09043e-28
-8.41815e-28
-3.07505e-27
-8.94184e-27
-2.93461e-26
-9.18229e-26
-2.6875e-25
-9.11978e-25
-2.36972e-24
-8.78461e-24
-2.01813e-23
-8.22762e-23
-1.6579e-22
-7.50045e-22
-1.30702e-21
-6.64806e-21
-9.91544e-21
-5.72884e-20
-7.48543e-20
-4.84688e-19
-5.91191e-19
-4.11274e-18
-4.74915e-18
-3.48658e-17
-3.26702e-17
-2.69738e-16
-1.57477e-16
-1.62747e-15
-4.73509e-16
-6.8183e-15
-8.29523e-16
-1.93184e-14
-7.8284e-16
-3.92731e-14
-1.45115e-16
-7.0661e-14
-2.4199e-13
-4.48162e-54
-2.89716e-55
-5.07013e-51
-2.00867e-52
-1.395e-48
-4.38465e-50
-1.77652e-46
-6.69855e-48
-2.00815e-44
-7.05866e-46
-2.01894e-42
-5.53635e-44
-1.66241e-40
-3.46522e-42
-1.16938e-38
-1.86277e-40
-7.26503e-37
-8.70051e-39
-9.80966e-36
-3.20066e-37
-6.06573e-35
-1.48918e-35
-1.50277e-34
-7.51227e-35
-2.02265e-34
-1.41378e-34
-2.10477e-34
-1.74148e-34
-1.45573e-34
-1.76942e-34
-1.10913e-34
-1.28561e-34
-1.04108e-34
-1.06076e-34
-9.27143e-35
-8.60601e-35
-6.98036e-35
-6.48795e-35
-7.04755e-35
-5.65835e-35
-1.03073e-34
-1.39281e-34
-8.32634e-34
-1.56764e-33
-1.16478e-32
-2.24422e-32
-1.52894e-31
-2.92901e-31
-1.85867e-30
-3.60799e-30
-2.12465e-29
-4.25644e-29
-2.32543e-28
-4.83498e-28
-2.44575e-27
-5.29547e-27
-2.46798e-26
-5.59719e-26
-2.39554e-25
-5.72166e-25
-2.24524e-24
-5.67057e-24
-2.03884e-23
-5.45944e-23
-1.79568e-22
-5.10983e-22
-1.5299e-21
-4.64659e-21
-1.26328e-20
-4.10544e-20
-1.03788e-19
-3.54952e-19
-8.88373e-19
-3.05311e-18
-7.81402e-18
-2.60967e-17
-6.09039e-17
-2.05631e-16
-3.45869e-16
-1.28915e-15
-1.27323e-15
-5.68712e-15
-2.94194e-15
-1.70125e-14
-4.42414e-15
-3.62773e-14
-4.40771e-15
-6.65805e-14
-1.94992e-13
-2.59415e-55
-2.35984e-57
-3.16223e-52
-9.26486e-55
-4.37645e-50
-1.68921e-52
-9.90732e-48
-2.03739e-50
-8.34133e-46
-1.81797e-48
-5.62404e-44
-1.27334e-46
-3.50699e-42
-7.50728e-45
-1.89096e-40
-3.8145e-43
-8.8608e-39
-1.67489e-41
-1.89184e-37
-5.03553e-40
-2.69426e-36
-2.59774e-38
-8.09836e-36
-5.9432e-37
-1.25864e-35
-2.25281e-36
-1.41928e-35
-4.33074e-36
-1.23528e-35
-6.07254e-36
-1.07024e-35
-7.0921e-36
-9.25186e-36
-7.23772e-36
-6.93267e-36
-5.54849e-36
-6.06981e-36
-4.35163e-36
-6.88728e-36
-6.2264e-36
-3.30351e-35
-5.05075e-35
-4.789e-34
-7.54143e-34
-6.82372e-33
-1.05587e-32
-8.93907e-32
-1.40239e-31
-1.11058e-30
-1.77697e-30
-1.32083e-29
-2.15295e-29
-1.50536e-28
-2.50351e-28
-1.64552e-27
-2.80538e-27
-1.7294e-26
-3.03698e-26
-1.75287e-25
-3.1794e-25
-1.7197e-24
-3.22647e-24
-1.63793e-23
-3.18206e-23
-1.51599e-22
-3.05234e-22
-1.36119e-21
-2.84512e-21
-1.18691e-20
-2.57502e-20
-1.02495e-19
-2.27338e-19
-9.11223e-19
-1.98359e-18
-8.30084e-18
-1.71281e-17
-6.83101e-17
-1.37757e-16
-4.20152e-16
-9.02687e-16
-1.70381e-15
-4.25542e-15
-4.40045e-15
-1.37786e-14
-7.6025e-15
-3.18454e-14
-8.94147e-15
-6.17304e-14
-1.58095e-13
-9.38747e-58
-8.59176e-59
-8.87282e-55
-3.52124e-56
-1.62487e-52
-5.98832e-54
-1.95297e-50
-8.66636e-52
-1.73851e-48
-7.34674e-50
-1.222e-46
-5.36046e-48
-7.23058e-45
-3.47934e-46
-3.66436e-43
-1.91721e-44
-1.60589e-41
-9.06334e-43
-4.60308e-40
-3.01844e-41
-1.13941e-38
-1.3601e-39
-9.78728e-38
-4.22688e-38
-2.70963e-37
-1.83043e-37
-4.66693e-37
-3.61638e-37
-6.40961e-37
-4.88761e-37
-7.14092e-37
-5.3285e-37
-6.43232e-37
-5.12216e-37
-4.80196e-37
-3.92505e-37
-5.09088e-37
-4.01973e-37
-1.24194e-36
-1.62698e-36
-1.57576e-35
-2.1518e-35
-2.40215e-34
-3.24281e-34
-3.42018e-33
-4.56493e-33
-4.63528e-32
-6.17836e-32
-5.96716e-31
-7.9847e-31
-7.31207e-30
-9.86333e-30
-8.57623e-29
-1.17005e-28
-9.67536e-28
-1.33835e-27
-1.05128e-26
-1.47983e-26
-1.10237e-25
-1.58166e-25
-1.12028e-24
-1.63753e-24
-1.10734e-23
-1.64765e-23
-1.06571e-22
-1.61365e-22
-9.96578e-22
-1.53684e-21
-9.04601e-21
-1.42042e-20
-8.08242e-20
-1.2758e-19
-7.34803e-19
-1.12369e-18
-6.81518e-18
-9.74263e-18
-5.82375e-17
-7.96784e-17
-3.8469e-16
-5.48905e-16
-1.72325e-15
-2.81257e-15
-5.03417e-15
-1.01135e-14
-1.00785e-14
-2.62345e-14
-1.33126e-14
-5.58368e-14
-1.36708e-13
-4.06471e-59
-3.25103e-60
-3.36557e-56
-1.40726e-57
-7.64238e-54
-2.77821e-55
-8.30746e-52
-3.46287e-53
-7.97127e-50
-3.23766e-51
-6.35123e-48
-2.30427e-49
-4.03862e-46
-1.30464e-47
-2.18959e-44
-6.29774e-46
-1.01808e-42
-2.64574e-44
-2.88481e-41
-8.46778e-43
-7.5002e-40
-3.33368e-41
-8.19557e-39
-1.31728e-39
-2.46195e-38
-7.50398e-39
-4.20568e-38
-1.74132e-38
-5.26089e-38
-2.62159e-38
-5.51008e-38
-3.04762e-38
-4.50955e-38
-3.08548e-38
-4.34707e-38
-2.88862e-38
-6.33045e-38
-6.96191e-38
-4.67343e-37
-6.10022e-37
-7.20976e-36
-9.22702e-36
-1.09713e-34
-1.35376e-34
-1.58812e-33
-1.90845e-33
-2.19491e-32
-2.58499e-32
-2.8855e-31
-3.36683e-31
-3.62036e-30
-4.21263e-30
-4.35649e-29
-5.07432e-29
-5.051e-28
-5.89729e-28
-5.64573e-27
-6.62884e-27
-6.09059e-26
-7.20426e-26
-6.36771e-25
-7.58277e-25
-6.47928e-24
-7.74973e-24
-6.42853e-23
-7.7039e-23
-6.20718e-22
-7.44843e-22
-5.81478e-21
-6.98698e-21
-5.32323e-20
-6.34797e-20
-4.88359e-19
-5.60491e-19
-4.53476e-18
-4.82765e-18
-3.97583e-17
-3.96337e-17
-2.82277e-16
-2.85624e-16
-1.41032e-15
-1.60401e-15
-4.73851e-15
-6.5015e-15
-1.12593e-14
-1.93607e-14
-1.69878e-14
-4.75223e-14
-1.24883e-13
-2.0106e-60
-8.20039e-62
-1.86566e-57
-3.86528e-59
-2.70596e-55
-6.85863e-57
-4.36052e-53
-7.94585e-55
-3.58663e-51
-6.81475e-53
-2.25382e-49
-4.54182e-51
-1.27083e-47
-2.53852e-49
-6.16126e-46
-1.22134e-47
-2.60068e-44
-5.11942e-46
-8.28443e-43
-1.64931e-44
-2.09349e-41
-5.94094e-43
-2.9627e-40
-2.77173e-41
-1.12098e-39
-2.78718e-40
-2.22224e-39
-8.02278e-40
-3.0678e-39
-1.3176e-39
-3.34333e-39
-1.56418e-39
-3.34102e-39
-1.59544e-39
-4.00158e-39
-2.38067e-39
-1.59912e-38
-1.87585e-38
-2.07147e-37
-2.67974e-37
-3.25626e-36
-4.00141e-36
-4.90854e-35
-5.77541e-35
-7.09321e-34
-8.04095e-34
-9.83624e-33
-1.08154e-32
-1.30815e-31
-1.40563e-31
-1.66925e-30
-1.76516e-30
-2.04777e-29
-2.14073e-29
-2.42365e-28
-2.51055e-28
-2.76884e-27
-2.84955e-27
-3.05674e-26
-3.13066e-26
-3.27042e-25
-3.33489e-25
-3.40114e-24
-3.44554e-24
-3.44676e-23
-3.4526e-23
-3.40201e-22
-3.35775e-22
-3.25863e-21
-3.16424e-21
-3.03086e-20
-2.87961e-20
-2.7761e-19
-2.52724e-19
-2.53691e-18
-2.14112e-18
-2.23675e-17
-1.73378e-17
-1.69335e-16
-1.28127e-16
-9.46975e-16
-7.85023e-16
-3.65914e-15
-3.62507e-15
-1.03086e-14
-1.2609e-14
-1.90327e-14
-3.71111e-14
-1.1245e-13
-6.93514e-62
-7.31027e-64
-3.81732e-59
-3.49542e-61
-6.7717e-57
-5.97811e-59
-7.85434e-55
-7.96949e-57
-6.7276e-53
-6.71116e-55
-4.51294e-51
-4.61528e-53
-2.54684e-49
-2.75742e-51
-1.228e-47
-1.39479e-49
-5.16463e-46
-6.1053e-48
-1.64865e-44
-2.08271e-46
-5.04824e-43
-7.10429e-45
-9.00093e-42
-3.02851e-43
-4.92945e-41
-7.24657e-42
-1.13371e-40
-2.79995e-41
-1.61534e-40
-5.11497e-41
-1.7562e-40
-6.24445e-41
-1.95198e-40
-8.05068e-41
-5.38218e-40
-5.46384e-40
-6.07079e-39
-7.49613e-39
-9.61107e-38
-1.14627e-37
-1.48814e-36
-1.70873e-36
-2.21643e-35
-2.45586e-35
-3.178e-34
-3.40857e-34
-4.39158e-33
-4.56819e-33
-5.85464e-32
-5.91645e-32
-7.5239e-31
-7.4155e-31
-9.33235e-30
-8.99367e-30
-1.11873e-28
-1.05789e-28
-1.2962e-27
-1.2054e-27
-1.45494e-26
-1.33074e-26
-1.58437e-25
-1.42567e-25
-1.67309e-24
-1.48027e-24
-1.7161e-23
-1.48591e-23
-1.71148e-22
-1.44239e-22
-1.6551e-21
-1.35258e-21
-1.54733e-20
-1.2208e-20
-1.4043e-19
-1.05675e-19
-1.24784e-18
-8.75687e-19
-1.07782e-17
-6.91416e-18
-8.48411e-17
-5.10681e-17
-5.29733e-16
-3.34079e-16
-2.3747e-15
-1.77227e-15
-8.03319e-15
-7.34357e-15
-1.86874e-14
-2.64777e-14
-9.47902e-14
-6.39708e-64
-6.35659e-66
-3.45267e-61
-3.04679e-63
-7.47379e-59
-5.99421e-61
-7.86912e-57
-7.07133e-59
-7.12124e-55
-6.41581e-57
-5.25118e-53
-4.50448e-55
-3.07001e-51
-2.52451e-53
-1.5367e-49
-1.21017e-51
-6.65958e-48
-5.05527e-50
-2.10457e-46
-1.70192e-48
-7.11297e-45
-5.77089e-47
-1.71966e-43
-1.97934e-45
-1.57946e-42
-7.94423e-44
-4.36613e-42
-5.01883e-43
-6.15571e-42
-1.03975e-42
-6.91984e-42
-1.71002e-42
-1.52711e-41
-1.29563e-41
-1.79769e-40
-1.90637e-40
-2.72051e-39
-3.07523e-39
-4.27251e-38
-4.80988e-38
-6.6298e-37
-7.20491e-37
-9.88816e-36
-1.03551e-35
-1.41872e-34
-1.43202e-34
-1.95982e-33
-1.90988e-33
-2.61389e-32
-2.46459e-32
-3.36544e-31
-3.08527e-31
-4.19594e-30
-3.74169e-30
-5.06559e-29
-4.40419e-29
-5.91733e-28
-5.02224e-28
-6.70521e-27
-5.54585e-27
-7.37658e-26
-5.93281e-26
-7.85617e-25
-6.14144e-25
-8.09786e-24
-6.13463e-24
-8.08645e-23
-5.90686e-23
-7.80774e-22
-5.47375e-22
-7.26168e-21
-4.86657e-21
-6.4977e-20
-4.13755e-20
-5.60253e-19
-3.35433e-19
-4.66262e-18
-2.58241e-18
-3.67294e-17
-1.87703e-17
-2.51785e-16
-1.26393e-16
-1.32414e-15
-7.48945e-16
-5.45981e-15
-3.69708e-15
-1.59377e-14
-1.62094e-14
-6.84067e-14
-5.94626e-66
-3.04297e-68
-3.84077e-63
-1.1423e-65
-5.97391e-61
-2.04662e-63
-8.39783e-59
-2.34078e-61
-7.11335e-57
-2.00872e-59
-4.54027e-55
-1.33684e-57
-2.551e-53
-7.40359e-56
-1.22737e-51
-3.51164e-54
-5.14509e-50
-1.44741e-52
-1.74189e-48
-4.87753e-51
-5.8851e-47
-1.57545e-49
-1.55939e-45
-4.65324e-48
-2.48139e-44
-1.65133e-46
-8.31078e-44
-2.83285e-45
-1.18481e-43
-1.55399e-44
-3.11791e-43
-2.14358e-43
-5.63137e-42
-3.71807e-42
-9.22975e-41
-6.53878e-41
-1.45685e-39
-1.10169e-39
-2.2396e-38
-1.76763e-38
-3.31655e-37
-2.70814e-37
-4.7325e-36
-3.97368e-36
-6.52162e-35
-5.59843e-35
-8.70548e-34
-7.58976e-34
-1.14023e-32
-9.92056e-33
-1.47432e-31
-1.25208e-31
-1.84689e-30
-1.52654e-30
-2.24082e-29
-1.79896e-29
-2.63091e-28
-2.04895e-28
-2.9915e-27
-2.25469e-27
-3.29587e-26
-2.39549e-26
-3.51095e-25
-2.45435e-25
-3.61161e-24
-2.4211e-24
-3.58538e-23
-2.29517e-23
-3.4283e-22
-2.08636e-22
-3.14861e-21
-1.81386e-21
-2.77082e-20
-1.50392e-20
-2.33066e-19
-1.18551e-19
-1.87403e-18
-8.87634e-19
-1.44024e-17
-6.30371e-18
-1.0295e-16
-4.22864e-17
-6.23597e-16
-2.64258e-16
-3.0742e-15
-1.49577e-15
-1.1764e-14
-7.60815e-15
-3.63675e-14
-1.87207e-68
-1.84681e-69
-1.08658e-65
-5.01467e-67
-1.94861e-63
-8.60844e-65
-2.22238e-61
-1.04668e-62
-1.90129e-59
-8.70086e-61
-1.26603e-57
-5.73983e-59
-7.05368e-56
-3.2333e-57
-3.3408e-54
-1.54308e-55
-1.37713e-52
-6.36275e-54
-4.38507e-51
-2.2015e-52
-1.41021e-49
-6.92428e-51
-4.2517e-48
-1.96322e-49
-7.52415e-47
-5.08881e-48
-3.84865e-46
-1.20589e-46
-5.48755e-45
-2.5747e-45
-1.25472e-43
-5.22421e-44
-2.2918e-42
-1.00832e-42
-3.99341e-41
-1.83963e-41
-6.6819e-40
-3.17916e-40
-1.06713e-38
-5.22262e-39
-1.6298e-37
-8.18174e-38
-2.38759e-36
-1.22566e-36
-3.36412e-35
-1.75983e-35
-4.56946e-34
-2.42645e-34
-5.99456e-33
-3.21763e-33
-7.60624e-32
-4.10816e-32
-9.34436e-31
-5.05391e-31
-1.1124e-29
-5.99277e-30
-1.28268e-28
-6.84923e-29
-1.43179e-27
-7.5423e-28
-1.54601e-26
-7.9964e-27
-1.61281e-25
-8.15363e-26
-1.62215e-24
-7.9851e-25
-1.5698e-23
-7.49831e-24
-1.45815e-22
-6.73859e-23
-1.2964e-21
-5.7832e-22
-1.09821e-20
-4.72877e-21
-8.85785e-20
-3.67469e-20
-6.87161e-19
-2.70791e-19
-5.11972e-18
-1.88746e-18
-3.62725e-17
-1.24061e-17
-2.39229e-16
-7.66339e-17
-1.36389e-15
-4.43119e-16
-6.63921e-15
-2.38842e-15
-1.2045e-14
-5.65634e-70
-2.49027e-70
-4.19003e-67
-7.91977e-68
-8.21699e-65
-1.45298e-65
-8.66379e-63
-1.72414e-63
-7.41554e-61
-1.50066e-61
-5.16375e-59
-1.02947e-59
-2.85467e-57
-5.68819e-58
-1.34205e-55
-2.67273e-56
-5.45987e-54
-1.09038e-54
-1.67827e-52
-3.89258e-53
-5.21128e-51
-1.25027e-51
-1.47033e-49
-3.6288e-50
-3.7987e-48
-9.62084e-49
-8.9441e-47
-2.34923e-47
-1.8758e-45
-5.32024e-46
-3.76781e-44
-1.12418e-44
-7.23699e-43
-2.22802e-43
-1.31819e-41
-4.1607e-42
-2.27749e-40
-7.35052e-41
-3.74457e-39
-1.23277e-39
-5.87765e-38
-1.96855e-38
-8.83231e-37
-3.00067e-37
-1.27363e-35
-4.37541e-36
-1.76587e-34
-6.11362e-35
-2.35775e-33
-8.19674e-34
-3.03499e-32
-1.05553e-32
-3.76933e-31
-1.30633e-31
-4.5182e-30
-1.5542e-30
-5.22695e-29
-1.77747e-29
-5.83345e-28
-1.95332e-28
-6.27556e-27
-2.06123e-27
-6.50031e-26
-2.08668e-26
-6.47355e-25
-2.02415e-25
-6.18754e-24
-1.87879e-24
-5.6649e-23
-1.66597e-23
-4.95681e-22
-1.4088e-22
-4.13524e-21
-1.13395e-21
-3.28081e-20
-8.67004e-21
-2.46885e-19
-6.28352e-20
-1.75755e-18
-4.30725e-19
-1.181e-17
-2.7863e-18
-7.47017e-17
-1.69695e-17
-4.434e-16
-9.71354e-17
-2.46817e-15
-5.22369e-16
-2.62315e-15
-1.24618e-70
-2.97048e-71
-7.93349e-68
-1.10288e-68
-1.2454e-65
-2.01368e-66
-1.65452e-63
-2.36774e-64
-1.3927e-61
-2.07263e-62
-8.78703e-60
-1.40572e-60
-4.82701e-58
-7.87869e-59
-2.25958e-56
-3.7644e-57
-9.18324e-55
-1.56675e-55
-3.1494e-53
-5.77415e-54
-1.00619e-51
-1.90265e-52
-2.91135e-50
-5.67049e-51
-7.70096e-49
-1.54339e-49
-1.87753e-47
-3.8674e-48
-4.24855e-46
-8.98302e-47
-8.97635e-45
-1.94556e-45
-1.78011e-43
-3.94907e-44
-3.32872e-42
-7.54541e-43
-5.89304e-41
-1.36227e-41
-9.91156e-40
-2.33165e-40
-1.58852e-38
-3.79399e-39
-2.43225e-37
-5.88293e-38
-3.5655e-36
-8.70975e-37
-5.01297e-35
-1.23315e-35
-6.76901e-34
-1.67168e-34
-8.78709e-33
-2.17163e-33
-1.09731e-31
-2.70488e-32
-1.31854e-30
-3.23095e-31
-1.52446e-29
-3.70081e-30
-1.69523e-28
-4.06341e-29
-1.81191e-27
-4.27413e-28
-1.85963e-26
-4.30332e-27
-1.83054e-25
-4.14296e-26
-1.72576e-24
-3.80933e-25
-1.55574e-23
-3.34066e-24
-1.33869e-22
-2.79011e-23
-1.09748e-21
-2.21585e-22
-8.55521e-21
-1.67049e-21
-6.32872e-20
-1.19361e-20
-4.43345e-19
-8.07036e-20
-2.93561e-18
-5.15093e-19
-1.83488e-17
-3.09944e-18
-1.08674e-16
-1.75414e-17
-6.0431e-16
-9.41237e-17
-4.85985e-16
-2.14276e-71
-2.49242e-72
-9.98365e-69
-1.01107e-69
-1.82197e-66
-1.84209e-67
-2.12718e-64
-2.33426e-65
-1.85282e-62
-2.06977e-63
-1.2525e-60
-1.4327e-61
-7.00301e-59
-8.29908e-60
-3.33216e-57
-4.07607e-58
-1.36206e-55
-1.74802e-56
-4.99114e-54
-6.6132e-55
-1.64237e-52
-2.23748e-53
-4.89206e-51
-6.84815e-52
-1.33159e-49
-1.91392e-50
-3.33877e-48
-4.92309e-49
-7.76434e-47
-1.17335e-47
-1.68452e-45
-2.60604e-46
-3.42696e-44
-5.42057e-45
-6.56617e-43
-1.06038e-43
-1.18943e-41
-1.95801e-42
-2.04371e-40
-3.42347e-41
-3.34022e-39
-5.68288e-40
-5.2053e-38
-8.97605e-39
-7.74975e-37
-1.35149e-37
-1.10407e-35
-1.94263e-36
-1.50697e-34
-2.66867e-35
-1.97243e-33
-3.50645e-34
-2.47699e-32
-4.40873e-33
-2.98519e-31
-5.30551e-32
-3.45241e-30
-6.11047e-31
-3.83028e-29
-6.73291e-30
-4.07417e-28
-7.09419e-29
-4.15145e-27
-7.14281e-28
-4.04837e-26
-6.86714e-27
-3.77378e-25
-6.2972e-26
-3.35842e-24
-5.50139e-25
-2.84941e-23
-4.57354e-24
-2.3013e-22
-3.61353e-23
-1.76697e-21
-2.7106e-22
-1.28738e-20
-1.92838e-21
-8.88455e-20
-1.29779e-20
-5.82082e-19
-8.26795e-20
-3.60823e-18
-4.97958e-19
-2.07771e-17
-2.83643e-18
-1.146e-16
-1.53587e-17
-8.04127e-17
-2.07571e-72
-1.66231e-73
-9.38413e-70
-7.05851e-71
-1.9365e-67
-1.37599e-68
-2.1606e-65
-1.68413e-66
-1.89792e-63
-1.51944e-64
-1.34915e-61
-1.09533e-62
-7.69589e-60
-6.44024e-61
-3.72436e-58
-3.26485e-59
-1.59389e-56
-1.43619e-57
-6.03099e-55
-5.57522e-56
-2.0423e-53
-1.93636e-54
-6.25948e-52
-6.08448e-53
-1.75268e-50
-1.74574e-51
-4.51885e-49
-4.60915e-50
-1.07998e-47
-1.12718e-48
-2.40632e-46
-2.56763e-47
-5.0231e-45
-5.47419e-46
-9.86548e-44
-1.09683e-44
-1.8297e-42
-2.07258e-43
-3.21448e-41
-3.70472e-42
-5.36369e-40
-6.2801e-41
-8.51974e-39
-1.01171e-39
-1.29061e-37
-1.55169e-38
-1.86726e-36
-2.26884e-37
-2.58313e-35
-3.16589e-36
-3.4197e-34
-4.2187e-35
-4.33478e-33
-5.37136e-34
-5.26193e-32
-6.53678e-33
-6.11658e-31
-7.60242e-32
-6.80789e-30
-8.44737e-31
-7.25101e-29
-8.96825e-30
-7.3849e-28
-9.09413e-29
-7.18634e-27
-8.78786e-28
-6.67522e-26
-8.09801e-27
-5.91429e-25
-7.11094e-26
-4.99347e-24
-5.94491e-25
-4.01832e-23
-4.7275e-24
-3.08201e-22
-3.57258e-23
-2.23422e-21
-2.563e-22
-1.52464e-20
-1.74352e-21
-9.85479e-20
-1.12357e-20
-6.0056e-19
-6.87233e-20
-3.44032e-18
-3.98373e-19
-1.9395e-17
-2.19328e-18
-1.13675e-17
-1.49495e-73
-8.56257e-75
-7.17889e-71
-3.69064e-72
-1.30304e-68
-7.28796e-70
-1.63903e-66
-8.8034e-68
-1.48476e-64
-8.15461e-66
-1.03815e-62
-5.94177e-64
-6.09321e-61
-3.59599e-62
-3.08855e-59
-1.8686e-60
-1.36058e-57
-8.42737e-59
-5.29207e-56
-3.35587e-57
-1.84245e-54
-1.19601e-55
-5.80581e-53
-3.85703e-54
-1.67118e-51
-1.13584e-52
-4.42826e-50
-3.07775e-51
-1.08726e-48
-7.72338e-50
-2.48749e-47
-1.80485e-48
-5.32822e-46
-3.94575e-47
-1.07293e-44
-8.10347e-46
-2.03846e-43
-1.56856e-44
-3.66469e-42
-2.87031e-43
-6.2497e-41
-4.97876e-42
-1.0133e-39
-8.20091e-41
-1.56465e-38
-1.28406e-39
-2.30392e-37
-1.91524e-38
-3.23858e-36
-2.72394e-37
-4.35039e-35
-3.69682e-36
-5.58805e-34
-4.78987e-35
-6.86272e-33
-5.92645e-34
-8.06107e-32
-7.00269e-33
-9.06416e-31
-7.90096e-32
-9.75668e-30
-8.50989e-31
-1.00263e-28
-8.74625e-30
-9.78093e-28
-8.57283e-29
-9.09468e-27
-8.00945e-28
-8.06163e-26
-7.12827e-27
-6.80723e-25
-6.03914e-26
-5.47111e-24
-4.86711e-25
-4.1818e-23
-3.72874e-24
-3.03731e-22
-2.71345e-23
-2.0947e-21
-1.87403e-22
-1.3717e-20
-1.22832e-21
-8.414e-20
-7.65668e-21
-4.94093e-19
-4.57474e-20
-2.88994e-18
-2.54727e-19
-1.33683e-18
-8.0929e-75
-2.9862e-76
-3.55836e-72
-1.3261e-73
-7.0312e-70
-2.64953e-71
-8.49009e-68
-3.29306e-69
-7.87347e-66
-3.1108e-67
-5.74149e-64
-2.31314e-65
-3.48118e-62
-1.44337e-63
-1.81244e-60
-7.68442e-62
-8.19545e-59
-3.55354e-60
-3.27343e-57
-1.45177e-58
-1.17064e-55
-5.31069e-57
-3.7898e-54
-1.75862e-55
-1.12081e-52
-5.31942e-54
-3.05129e-51
-1.48081e-52
-7.69612e-50
-3.81824e-51
-1.80812e-48
-9.16346e-50
-3.97679e-47
-2.05774e-48
-8.21809e-46
-4.34008e-47
-1.60191e-44
-8.62548e-46
-2.95469e-43
-1.6197e-44
-5.16785e-42
-2.88038e-43
-8.57754e-41
-4.86024e-42
-1.35076e-39
-7.79344e-41
-2.02629e-38
-1.18911e-39
-2.8989e-37
-1.72805e-38
-3.95819e-36
-2.39358e-37
-5.1607e-35
-3.16162e-36
-6.42674e-34
-3.9835e-35
-7.64496e-33
-4.78806e-34
-8.6859e-32
-5.48996e-33
-9.42348e-31
-6.0036e-32
-9.75908e-30
-6.25976e-31
-9.64294e-29
-6.22069e-30
-9.08622e-28
-5.88924e-29
-8.15981e-27
-5.30892e-28
-6.97973e-26
-4.55462e-27
-5.68319e-25
-3.71677e-26
-4.40223e-24
-2.88345e-25
-3.24196e-23
-2.12534e-24
-2.27061e-22
-1.48744e-23
-1.49999e-21
-9.90451e-23
-9.43838e-21
-6.29301e-22
-5.88654e-20
-3.81194e-21
-3.50205e-19
-2.14312e-20
-1.13711e-19
-2.88613e-76
-7.75654e-78
-1.2921e-73
-3.51375e-75
-2.45494e-71
-6.74467e-73
-3.21614e-69
-9.11055e-71
-3.01944e-67
-8.78842e-69
-2.2671e-65
-6.7567e-67
-1.41851e-63
-4.33878e-65
-7.57351e-62
-2.36934e-63
-3.51416e-60
-1.12491e-61
-1.44128e-58
-4.72228e-60
-5.29586e-57
-1.77594e-58
-1.76252e-55
-6.04766e-57
-5.36223e-54
-1.88286e-55
-1.50355e-52
-5.39845e-54
-3.90099e-51
-1.4341e-52
-9.40322e-50
-3.54794e-51
-2.12082e-48
-8.21008e-50
-4.49314e-47
-1.78357e-48
-8.97053e-46
-3.64883e-47
-1.69239e-44
-7.04829e-46
-3.02413e-43
-1.28836e-44
-5.12808e-42
-2.2326e-43
-8.26515e-41
-3.67333e-42
-1.26777e-39
-5.74527e-41
-1.85246e-38
-8.55021e-40
-2.5805e-37
-1.21163e-38
-3.42865e-36
-1.63571e-37
-4.34651e-35
-2.10438e-36
-5.25793e-34
-2.58045e-35
-6.06924e-33
-3.01593e-34
-6.68392e-32
-3.35938e-33
-7.02092e-31
-3.56549e-32
-7.03195e-30
-3.6048e-31
-6.71278e-29
-3.47057e-30
-6.10504e-28
-3.18067e-29
-5.28734e-27
-2.77373e-28
-4.35868e-26
-2.30072e-27
-3.4186e-25
-1.81442e-26
-2.55011e-24
-1.35979e-25
-1.80785e-23
-9.68453e-25
-1.20986e-22
-6.56936e-24
-7.8324e-22
-4.289e-23
-5.08163e-21
-2.62476e-22
-3.06372e-20
-1.49744e-21
-8.06258e-21
-7.59222e-78
-1.55449e-79
-3.39839e-75
-6.86234e-77
-6.62915e-73
-1.39701e-74
-8.97366e-71
-1.8906e-72
-8.70731e-69
-1.88033e-70
-6.69506e-67
-1.48989e-68
-4.31079e-65
-9.82014e-67
-2.36292e-63
-5.51066e-65
-1.12709e-61
-2.68986e-63
-4.76003e-60
-1.16275e-61
-1.80023e-58
-4.50976e-60
-6.1533e-57
-1.58599e-58
-1.92287e-55
-5.10123e-57