/*--------------------------------*- C++ -*----------------------------------*\
  =========                 |
  \\      /  F ield         | OpenFOAM: The Open Source CFD Toolbox
   \\    /   O peration     | Website:  https://openfoam.org
    \\  /    A nd           | Version:  9
     \\/     M anipulation  |
\*---------------------------------------------------------------------------*/
FoamFile
{
    format      ascii;
    class       volScalarField;
    location    "0.4";
    object      epsilon;
}
// * * * * * * * * * * * * * * * * * * * * * * * * * * * * * * * * * * * * * //

dimensions      [0 2 -3 0 0 0 0];

internalField   nonuniform List<scalar> 
1915
(
0.245074
0.25193
0.259559
0.268246
0.278344
0.290281
0.304569
0.321809
0.342702
0.368054
0.398778
0.435877
0.480421
0.533492
0.596095
0.669044
0.752812
0.847395
0.952205
1.06606
1.18727
1.31386
1.44385
1.57513
1.70552
1.18961
0.428959
0.28577
0.233191
0.208167
0.195155
0.188511
0.185668
0.185272
0.186528
0.18893
0.192134
0.195899
0.20005
0.204463
0.209059
0.213794
0.218664
0.223704
0.228987
0.234635
0.24082
0.24777
0.255771
0.265177
0.276416
0.290002
0.306537
0.326727
0.351386
0.381437
0.417906
0.461891
0.514509
0.57681
0.649652
0.733553
0.828547
0.934098
1.04912
1.17214
1.30164
1.4364
1.5756
1.71829
1.18306
0.421609
0.280212
0.228508
0.20396
0.191188
0.184621
0.18173
0.181185
0.182208
0.184304
0.187142
0.190486
0.19417
0.198078
0.202132
0.206296
0.21057
0.214989
0.219633
0.224625
0.230138
0.236398
0.243691
0.252368
0.262856
0.275663
0.29139
0.310739
0.334526
0.363682
0.399248
0.442348
0.49414
0.555724
0.628018
0.711607
0.806596
0.912529
1.02845
1.15315
1.28563
1.42561
1.57373
1.73094
1.17198
0.413815
0.274273
0.223587
0.199623
0.18717
0.18074
0.177851
0.1772
0.178029
0.179857
0.182362
0.185319
0.188569
0.192002
0.195546
0.199168
0.202872
0.206698
0.210727
0.215082
0.219936
0.225512
0.232093
0.240024
0.249726
0.261699
0.276535
0.29493
0.317696
0.345767
0.380195
0.422132
0.472776
0.533291
0.604672
0.687597
0.782269
0.888347
1.00503
1.13138
1.26694
1.41245
1.57028
1.74375
1.15552
0.404813
0.267776
0.218338
0.195076
0.18302
0.176788
0.17395
0.173239
0.173916
0.175516
0.177728
0.180336
0.18319
0.186185
0.189257
0.192377
0.195551
0.198821
0.20227
0.20602
0.210243
0.215157
0.221037
0.228221
0.237121
0.248225
0.262113
0.279469
0.301098
0.327931
0.361031
0.401572
0.450803
0.509955
0.580122
0.662096
0.756212
0.862266
0.97962
1.1076
1.24625
1.39731
1.56497
1.75529
1.13417
0.394635
0.260713
0.212734
0.190281
0.178691
0.172708
0.169967
0.169236
0.1698
0.171211
0.173171
0.175473
0.177974
0.180577
0.183223
0.185886
0.188578
0.19134
0.194255
0.197444
0.201074
0.205356
0.21056
0.217011
0.225109
0.235334
0.24824
0.264499
0.284908
0.31039
0.342012
0.380974
0.428571
0.486113
0.554803
0.635574
0.728917
0.83479
0.952718
1.08224
1.22379
1.37996
1.55664
1.76284
1.10843
0.38339
0.253122
0.206782
0.185227
0.174158
0.168465
0.165857
0.165142
0.16563
0.16689
0.168637
0.170675
0.172869
0.175127
0.177397
0.179656
0.181916
0.184223
0.186657
0.189336
0.192421
0.196118
0.200686
0.206439
0.213759
0.223101
0.23501
0.250137
0.269277
0.293332
0.323363
0.360599
0.406382
0.462097
0.529066
0.608381
0.700712
0.806196
0.924517
1.05535
1.19938
1.35973
1.54364
1.76287
1.07881
0.371215
0.245063
0.20051
0.179919
0.169412
0.164042
0.161596
0.160925
0.161368
0.162512
0.164085
0.165901
0.167832
0.169794
0.171738
0.173646
0.175532
0.177439
0.179447
0.181671
0.184264
0.187427
0.191405
0.1965
0.203077
0.211573
0.222512
0.236521
0.254356
0.276915
0.305261
0.340665
0.384487
0.438169
0.503164
0.580746
0.671769
0.776563
0.894968
1.02674
1.17257
1.33577
1.52431
1.75199
1.04586
0.358269
0.236615
0.19396
0.174382
0.164463
0.159436
0.157173
0.15657
0.156994
0.158052
0.159485
0.161117
0.162829
0.164543
0.166213
0.167825
0.169391
0.170957
0.172598
0.174424
0.176583
0.179263
0.182701
0.187185
0.19306
0.200745
0.210742
0.223655
0.240214
0.261295
0.287949
0.321414
0.363094
0.414519
0.477257
0.552809
0.642149
0.745827
0.863842
0.995981
1.14279
1.30732
1.4975
1.72799
1.01017
0.344729
0.22787
0.18719
0.168651
0.159335
0.154661
0.152592
0.152072
0.152498
0.153495
0.154819
0.156304
0.157838
0.159349
0.160795
0.162162
0.163466
0.164748
0.166081
0.167568
0.169351
0.171607
0.174559
0.17848
0.183699
0.190613
0.199701
0.211541
0.226837
0.24644
0.271381
0.302883
0.342369
0.391419
0.451689
0.524758
0.611891
0.713852
0.830812
0.96258
1.10943
1.27378
1.46291
1.69057
0.972375
0.330784
0.218932
0.180268
0.162776
0.15406
0.149741
0.147869
0.147442
0.147884
0.148841
0.150082
0.151451
0.152844
0.154194
0.155461
0.156635
0.15773
0.158784
0.159867
0.161075
0.162541
0.164431
0.166954
0.170368
0.174981
0.181169
0.189387
0.200183
0.214231
0.232351
0.255542
0.28501
0.322172
0.368637
0.426133
0.496364
0.580796
0.68043
0.795647
0.926321
1.07246
1.23564
1.42129
1.64143
0.933104
0.316632
0.209912
0.173272
0.156813
0.148686
0.14471
0.143033
0.1427
0.143167
0.144098
0.145277
0.146557
0.147842
0.149068
0.1502
0.151227
0.152162
0.153042
0.15393
0.154917
0.156123
0.157706
0.159859
0.162822
0.166884
0.172397
0.179788
0.189576
0.202398
0.219034
0.240445
0.267798
0.302487
0.346123
0.400476
0.467356
0.548409
0.644873
0.757366
0.885881
1.03021
1.19106
1.37212
1.58271
0.893006
0.302472
0.200924
0.166282
0.150827
0.143263
0.139613
0.138119
0.137876
0.13837
0.139285
0.140418
0.141632
0.142836
0.14397
0.145004
0.145925
0.146746
0.1475
0.148245
0.149064
0.150068
0.1514
0.153241
0.15581
0.159378
0.164271
0.170886
0.179708
0.191333
0.206497
0.226108
0.251279
0.283357
0.323924
0.374761
0.437745
0.514673
0.607014
0.715655
0.840773
0.982037
1.13941
1.31476
1.51434
0.852719
0.288498
0.192083
0.159383
0.144886
0.137849
0.134499
0.133171
0.133008
0.133527
0.13443
0.135527
0.13669
0.137835
0.138905
0.139872
0.140723
0.14147
0.142141
0.14279
0.14349
0.144343
0.145479
0.147063
0.149297
0.152428
0.156757
0.16265
0.170555
0.181025
0.194741
0.212549
0.235495
0.264854
0.30215
0.349132
0.407704
0.479774
0.567019
0.670615
0.791007
0.927907
1.08074
1.24979
1.43824
0.812854
0.274897
0.183498
0.152657
0.139058
0.132504
0.129422
0.128236
0.128139
0.128676
0.129566
0.130633
0.131757
0.132858
0.133885
0.134809
0.13562
0.136326
0.136952
0.137544
0.13817
0.138919
0.139909
0.141289
0.143242
0.145992
0.149815
0.155044
0.162089
0.171453
0.183761
0.199787
0.220496
0.247073
0.28095
0.32381
0.37753
0.444078
0.525301
0.622663
0.736953
0.868117
1.01538
1.17791
1.35626
0.773988
0.261839
0.175272
0.146184
0.133412
0.12729
0.124438
0.123367
0.123317
0.123859
0.124732
0.125769
0.126859
0.127928
0.128927
0.129828
0.130622
0.131313
0.131924
0.132493
0.133081
0.133767
0.134656
0.135879
0.137603
0.140028
0.143403
0.148028
0.154273
0.162592
0.173547
0.187837
0.206334
0.230117
0.260503
0.299065
0.347608
0.408093
0.482481
0.572488
0.679288
0.803235
0.943732
1.09946
1.26918
0.736638
0.249477
0.167497
0.140036
0.12801
0.122265
0.119602
0.118615
0.118591
0.119124
0.119971
0.120975
0.122032
0.123073
0.124054
0.124945
0.125738
0.126434
0.127052
0.127626
0.128206
0.128863
0.129688
0.130798
0.132339
0.134492
0.137475
0.141557
0.147068
0.15441
0.164084
0.176709
0.193058
0.214091
0.240993
0.275194
0.318377
0.372431
0.439346
0.521022
0.618996
0.734128
0.866318
1.0144
1.17641
0.70126
0.23794
0.160254
0.134279
0.122915
0.117486
0.114968
0.114034
0.11401
0.114517
0.115326
0.11629
0.117312
0.118327
0.119292
0.120181
0.120982
0.121697
0.122338
0.122935
0.123531
0.124185
0.124978
0.126011
0.127412
0.129339
0.131985
0.135586
0.140431
0.146875
0.155353
0.166406
0.180707
0.199093
0.2226
0.252496
0.290296
0.337753
0.396796
0.469401
0.557375
0.66207
0.784047
0.922786
1.07657
0.668235
0.227336
0.153611
0.128972
0.118178
0.113004
0.110587
0.109673
0.109625
0.110087
0.110843
0.111757
0.112737
0.113723
0.114673
0.115561
0.116375
0.117115
0.117789
0.118422
0.119049
0.119721
0.120506
0.121491
0.122788
0.124532
0.126891
0.130071
0.134321
0.139949
0.147329
0.156925
0.169311
0.185201
0.20548
0.231238
0.263795
0.304713
0.355772
0.418898
0.496017
0.588837
0.698547
0.825474
0.968772
0.637865
0.21775
0.147625
0.124163
0.113848
0.108868
0.106508
0.105579
0.105481
0.105878
0.106567
0.107419
0.108349
0.109298
0.110228
0.111113
0.11194
0.112706
0.113417
0.114091
0.114758
0.11546
0.116255
0.117216
0.118437
0.120035
0.122154
0.12497
0.128696
0.133594
0.139981
0.148249
0.158879
0.172467
0.18975
0.211638
0.239243
0.273899
0.317167
0.370804
0.436687
0.516667
0.612347
0.724791
0.854181
0.610382
0.209245
0.14234
0.119894
0.109966
0.10512
0.102772
0.101796
0.101623
0.101935
0.10254
0.103317
0.104185
0.10509
0.105992
0.106868
0.107703
0.108492
0.109238
0.109954
0.110664
0.111403
0.112217
0.113169
0.114338
0.115822
0.117742
0.120247
0.123517
0.127771
0.133276
0.140355
0.149405
0.160913
0.17548
0.193843
0.216908
0.245767
0.281723
0.326279
0.381113
0.447997
0.528661
0.624582
0.736716
0.585947
0.201871
0.137793
0.116201
0.106569
0.101796
0.0994189
0.098364
0.0980905
0.0982969
0.098802
0.0994905
0.100285
0.101134
0.102
0.102858
0.103692
0.104497
0.105272
0.106026
0.106777
0.107553
0.108392
0.109345
0.110478
0.111872
0.113628
0.11587
0.118748
0.122444
0.127175
0.133208
0.140863
0.150531
0.16269
0.177923
0.196942
0.22061
0.249959
0.286201
0.330723
0.385051
0.45078
0.529442
0.62233
0.564672
0.195662
0.134014
0.113114
0.103688
0.0989301
0.0964819
0.095317
0.094919
0.0950008
0.0953896
0.0959753
0.0966844
0.0974659
0.0982838
0.0991133
0.0999379
0.100748
0.101543
0.102327
0.103113
0.103922
0.104786
0.105744
0.106851
0.108174
0.109795
0.111816
0.11436
0.117576
0.12164
0.126766
0.133211
0.141281
0.151351
0.163868
0.179378
0.198537
0.222127
0.251071
0.286438
0.329427
0.381338
0.443498
0.517149
0.546631
0.190652
0.131033
0.110662
0.101352
0.0965509
0.0939906
0.0926852
0.0921394
0.0920776
0.0923344
0.0928039
0.0934148
0.0941174
0.0948763
0.095666
0.096469
0.0972744
0.0980778
0.098881
0.0996924
0.100528
0.101411
0.102374
0.10346
0.104724
0.106232
0.108068
0.110329
0.113137
0.116632
0.120984
0.126395
0.133103
0.141394
0.151606
0.164145
0.179493
0.198221
0.220997
0.248594
0.281883
0.321822
0.369412
0.425632
0.531891
0.186878
0.128883
0.108875
0.0995882
0.0946845
0.0919706
0.0904941
0.0897772
0.0895537
0.0896636
0.0900038
0.0905049
0.0911175
0.0918062
0.0925448
0.0933145
0.0941028
0.0949027
0.0957132
0.0965387
0.0973902
0.0982853
0.0992493
0.100316
0.101528
0.10294
0.104618
0.10664
0.109102
0.112116
0.115815
0.120355
0.125919
0.13272
0.141011
0.151086
0.16329
0.178025
0.195754
0.217005
0.24237
0.272495
0.308055
0.349717
0.520528
0.18439
0.127603
0.107787
0.0984254
0.0933555
0.0904439
0.0887647
0.0878532
0.0874501
0.0873988
0.0875979
0.0879783
0.0884908
0.089099
0.0897758
0.090501
0.0912602
0.0920445
0.0928498
0.0936773
0.0945337
0.0954314
0.0963894
0.0974337
0.098598
0.0999248
0.101466
0.103284
0.105454
0.108064
0.111216
0.11503
0.119643
0.125215
0.13193
0.139997
0.149658
0.161186
0.174891
0.191116
0.21024
0.232665
0.258804
0.289056
0.512663
0.183263
0.12725
0.107437
0.0978933
0.0925869
0.0894292
0.0875133
0.0863828
0.0857822
0.0855561
0.0856032
0.0858537
0.0862571
0.0867759
0.0873815
0.0880521
0.0887715
0.0895285
0.0903166
0.0911339
0.0919836
0.0928735
0.0938174
0.0948346
0.095951
0.0971995
0.0986205
0.100263
0.102185
0.104454
0.107149
0.110361
0.114192
0.11876
0.124197
0.130649
0.138283
0.14728
0.15784
0.170177
0.184517
0.201094
0.220136
0.24185
0.508489
0.183606
0.127896
0.107875
0.0980249
0.0924006
0.0889417
0.0867512
0.0853756
0.0845594
0.0841457
0.0840312
0.0841439
0.0844312
0.0848536
0.0853804
0.0859879
0.086658
0.0873775
0.0881375
0.0889335
0.0897653
0.0906373
0.0915584
0.0925426
0.0936092
0.0947831
0.0960954
0.0975836
0.0992922
0.101273
0.103587
0.1063
0.109491
0.113243
0.11765
0.122816
0.128852
0.135875
0.14401
0.153385
0.164127
0.17636
0.190193
0.205714
0.508303
0.185574
0.129638
0.109161
0.0988554
0.0928164
0.0889917
0.0864835
0.0848344
0.0837842
0.0831709
0.0828869
0.082856
0.0830224
0.0833434
0.0837858
0.0843239
0.0849374
0.0856109
0.0863336
0.0870985
0.0879027
0.0887474
0.0896375
0.0905827
0.0915966
0.0926978
0.0939094
0.09526
0.0967833
0.0985186
0.100511
0.102811
0.105475
0.108565
0.112146
0.11629
0.121071
0.126564
0.132845
0.139985
0.148051
0.157098
0.167168
0.178277
0.512546
0.189383
0.132602
0.111366
0.100421
0.0938495
0.0895825
0.0867075
0.0847543
0.0834516
0.0826282
0.0821687
0.0819909
0.0820339
0.0822511
0.0826063
0.083071
0.0836228
0.0842442
0.0849225
0.0856485
0.086417
0.0872265
0.0880787
0.0889795
0.0899379
0.0909672
0.0920843
0.0933103
0.0946702
0.0961935
0.0979136
0.0998679
0.102098
0.104647
0.107563
0.110895
0.114691
0.118998
0.123862
0.12932
0.135401
0.142125
0.149492
0.157487
0.521844
0.195324
0.136942
0.114566
0.102753
0.0955054
0.0907061
0.0874094
0.0851201
0.0835475
0.0825056
0.0818676
0.0815426
0.0814629
0.0815769
0.0818447
0.0822347
0.0827222
0.0832878
0.0839168
0.0845984
0.0853253
0.0860936
0.0869027
0.0877551
0.0886562
0.0896148
0.0906426
0.0917549
0.0929696
0.0943084
0.0957955
0.0974584
0.0993269
0.101433
0.103809
0.10649
0.109507
0.11289
0.116665
0.12085
0.125455
0.130477
0.135902
0.141695
0.537091
0.203786
0.142842
0.118837
0.105869
0.0977724
0.0923377
0.0885601
0.0859032
0.0840464
0.0827818
0.0819665
0.0814979
0.0813
0.0813148
0.081498
0.0818148
0.082238
0.0827465
0.0833238
0.0839577
0.0846393
0.0853629
0.0861257
0.0869275
0.0877709
0.0886609
0.0896052
0.0906139
0.0916995
0.0928771
0.0941641
0.0955798
0.0971455
0.0988837
0.100818
0.102971
0.105364
0.108017
0.110945
0.114155
0.117647
0.121411
0.125423
0.129646
0.55957
0.215273
0.150506
0.124237
0.109759
0.100609
0.0944265
0.0901095
0.0870586
0.0849097
0.0834247
0.0824394
0.0818363
0.081529
0.0814524
0.081557
0.0818049
0.0821666
0.082619
0.0831446
0.0837298
0.0843646
0.0850419
0.0857572
0.0865085
0.0872956
0.0881209
0.0889883
0.089904
0.090876
0.091914
0.0930296
0.0942357
0.095547
0.0969787
0.0985469
0.100267
0.102155
0.104222
0.106477
0.108924
0.111559
0.11437
0.117332
0.120412
0.591192
0.230431
0.160136
0.130779
0.114358
0.10393
0.0968859
0.0919802
0.0885208
0.0860837
0.0843908
0.0832511
0.0825293
0.0821267
0.0819706
0.0820062
0.0821924
0.0824974
0.0828971
0.0833728
0.0839102
0.0844987
0.0851301
0.0857988
0.0865012
0.0872355
0.0880014
0.0888003
0.0896349
0.0905093
0.0914289
0.0924004
0.0934314
0.0945308
0.0957081
0.0969736
0.0983374
0.0998091
0.101397
0.103107
0.104942
0.106897
0.108962
0.111118
0.113335
0.63486
0.250061
0.171883
0.138387
0.119521
0.107583
0.0995825
0.0940619
0.0902015
0.0874985
0.0856248
0.0843575
0.0835408
0.0830633
0.082844
0.0828234
0.0829574
0.0832129
0.0835647
0.0839939
0.0844859
0.0850298
0.085617
0.0862413
0.0868981
0.0875842
0.0882978
0.0890379
0.0898045
0.0905986
0.0914218
0.0922766
0.0931662
0.0940942
0.0950652
0.096084
0.0971559
0.0982862
0.0994797
0.10074
0.10207
0.103467
0.104925
0.106432
0.107966
0.69497
0.275102
0.185773
0.146827
0.12498
0.111331
0.102326
0.0962078
0.0919894
0.0890695
0.0870615
0.085707
0.0848288
0.0843029
0.0840411
0.0839801
0.0840736
0.0842878
0.0845977
0.0849846
0.0854342
0.0859357
0.0864809
0.0870635
0.0876783
0.0883216
0.0889902
0.0896817
0.0903941
0.0911258
0.0918754
0.092642
0.0934245
0.0942222
0.0950347
0.0958617
0.0967032
0.0975599
0.0984327
0.0993228
0.100231
0.101158
0.102103
0.103059
0.104017
0.77816
0.306533
0.201547
0.155619
0.130295
0.114831
0.104864
0.0982366
0.0937544
0.0907021
0.0886299
0.087244
0.0863475
0.0858059
0.0855258
0.0854419
0.0855075
0.0856894
0.0859635
0.0863119
0.0867216
0.0871826
0.0876874
0.0882299
0.0888055
0.0894099
0.0900398
0.0906917
0.0913625
0.0920488
0.0927471
0.0934535
0.0941638
0.0948732
0.0955766
0.0962688
0.0969442
0.0975977
0.0982247
0.0988217
0.0993866
0.0999191
0.10042
0.100892
0.101333
0.894772
0.345104
0.218411
0.163899
0.134803
0.117623
0.106887
0.0999435
0.095359
0.0923015
0.0902612
0.0889148
0.0880514
0.087531
0.0872587
0.08717
0.0872201
0.0873777
0.0876207
0.0879334
0.0883041
0.0887245
0.0891882
0.0896901
0.0902261
0.0907927
0.0913864
0.092004
0.0926416
0.0932954
0.0939605
0.0946313
0.0953012
0.0959627
0.0966067
0.0972232
0.0978012
0.098329
0.0987948
0.0991874
0.0994977
0.0997195
0.0998509
0.0998955
0.0998614
1.06117
0.390728
0.234617
0.170259
0.137582
0.11914
0.108056
0.101124
0.0966793
0.093788
0.0918994
0.0906749
0.0899008
0.0894393
0.0892
0.0891229
0.0891676
0.0893066
0.0895211
0.0897979
0.0901279
0.0905044
0.0909226
0.0913789
0.0918703
0.0923942
0.092948
0.093529
0.094134
0.0947591
0.0953997
0.0960497
0.0967019
0.097347
0.0979741
0.09857
0.0991191
0.0996037
0.100004
0.1003
0.10047
0.100496
0.100365
0.10007
0.0996185
1.30225
0.441148
0.246723
0.17253
0.13744
0.118756
0.108052
0.101622
0.0976372
0.0951202
0.0935164
0.0924985
0.0918671
0.0914979
0.091312
0.0912583
0.0913036
0.0914259
0.0916106
0.0918479
0.0921313
0.0924562
0.0928196
0.0932195
0.0936542
0.0941225
0.0946229
0.095154
0.0957138
0.0962997
0.096908
0.0975339
0.0981711
0.0988112
0.0994435
0.100054
0.100627
0.101141
0.10157
0.101887
0.102057
0.102046
0.101819
0.101347
0.100612
1.65963
0.488152
0.24819
0.167585
0.133023
0.115933
0.106695
0.101403
0.0982502
0.0963228
0.0951282
0.094388
0.0939395
0.0936846
0.0935631
0.0935374
0.0935835
0.0936862
0.0938356
0.0940256
0.0942521
0.0945128
0.0948064
0.0951322
0.09549
0.0958797
0.0963014
0.096755
0.09724
0.0977555
0.0982999
0.0988707
0.0994639
0.100074
0.100694
0.101312
0.101916
0.102487
0.103001
0.103428
0.10373
0.103861
0.103764
0.103378
0.10264
2.23467
0.50458
0.226972
0.151546
0.123298
0.110566
0.104148
0.100667
0.0986822
0.09751
0.0968038
0.0963773
0.0961259
0.0959891
0.0959307
0.0959287
0.0959696
0.0960449
0.0961496
0.0962807
0.0964364
0.0966162
0.0968198
0.0970477
0.0973004
0.0975789
0.0978841
0.0982169
0.0985781
0.0989684
0.0993881
0.0998371
0.100315
0.100819
0.101347
0.101894
0.102454
0.103016
0.103567
0.104087
0.104549
0.104916
0.105134
0.105132
0.104816
3.38668
0.390938
0.164786
0.122153
0.108902
0.10362
0.101183
0.0999411
0.0992628
0.0988749
0.0986473
0.0985138
0.0984386
0.0984014
0.0983904
0.0983987
0.0984222
0.0984584
0.0985058
0.0985638
0.0986321
0.0987109
0.0988005
0.0989013
0.0990141
0.0991396
0.0992786
0.099432
0.0996009
0.0997861
0.0999886
0.100209
0.100449
0.100708
0.100988
0.101288
0.101608
0.101948
0.102306
0.10268
0.103066
0.103458
0.103845
0.104206
0.104502
)
;

boundaryField
{
    leftWall
    {
        type            epsilonWallFunction;
        value           nonuniform List<scalar> 
42
(
1.18961
1.18306
1.17198
1.15552
1.13417
1.10843
1.07881
1.04586
1.01017
0.972375
0.933104
0.893006
0.852719
0.812854
0.773988
0.736638
0.70126
0.668235
0.637865
0.610382
0.585947
0.564672
0.546631
0.531891
0.520528
0.512663
0.508489
0.508303
0.512546
0.521844
0.537091
0.55957
0.591192
0.63486
0.69497
0.77816
0.894772
1.06117
1.30225
1.65963
2.23467
3.38668
)
;
    }
    rightWall
    {
        type            epsilonWallFunction;
        value           nonuniform List<scalar> 0();
    }
    lowerWall
    {
        type            epsilonWallFunction;
        value           nonuniform List<scalar> 0();
    }
    atmosphere
    {
        type            inletOutlet;
        inletValue      uniform 0.1;
        value           uniform 0.1;
    }
    defaultFaces
    {
        type            empty;
    }
    procBoundary2to0
    {
        type            processor;
        value           nonuniform List<scalar> 
46
(
0.25587
0.263377
0.271656
0.28099
0.291727
0.30429
0.319184
0.337004
0.358441
0.384287
0.415434
0.452861
0.497606
0.550713
0.613149
0.68569
0.768787
0.862416
0.965971
1.07821
1.19729
1.32089
1.44637
1.57088
1.69105
1.19144
0.435777
0.291062
0.237734
0.212328
0.199151
0.192491
0.189746
0.189543
0.191069
0.193809
0.19741
0.201621
0.206261
0.211203
0.216358
0.221681
0.227162
0.232833
0.238765
0.238765
)
;
    }
    procBoundary2to3
    {
        type            processor;
        value           nonuniform List<scalar> 
43
(
1.83148
1.86207
1.8966
1.93457
1.97324
2.00749
2.03076
2.03642
2.01962
1.97887
1.91665
1.8404
1.75157
1.65479
1.55457
1.4533
1.35038
1.24265
1.12624
0.999501
0.865183
0.730256
0.603301
0.491358
0.398093
0.323781
0.266412
0.222982
0.190424
0.166075
0.147812
0.134032
0.123564
0.115576
0.109499
0.10496
0.101744
0.0997609
0.0990288
0.0996184
0.101501
0.10407
0.104657
)
;
    }
}


// ************************************************************************* //
