/*--------------------------------*- C++ -*----------------------------------*\
  =========                 |
  \\      /  F ield         | OpenFOAM: The Open Source CFD Toolbox
   \\    /   O peration     | Website:  https://openfoam.org
    \\  /    A nd           | Version:  9
     \\/     M anipulation  |
\*---------------------------------------------------------------------------*/
FoamFile
{
    format      ascii;
    class       volScalarField;
    location    "0.4";
    object      nut;
}
// * * * * * * * * * * * * * * * * * * * * * * * * * * * * * * * * * * * * * //

dimensions      [0 2 -1 0 0 0 0];

internalField   nonuniform List<scalar> 
1915
(
0.0124613
0.012545
0.0126096
0.0126547
0.0126791
0.0126807
0.012657
0.0126053
0.0125235
0.0124102
0.0122655
0.012091
0.0118903
0.011668
0.0114295
0.0111803
0.0109252
0.010668
0.0104107
0.0101541
0.00989836
0.00964327
0.00938957
0.00913949
0.00889754
0.000148744
0.00111319
0.0025201
0.00392043
0.00519884
0.00632826
0.00730975
0.00815497
0.00887915
0.00949793
0.010026
0.0104763
0.0108603
0.0111878
0.0114671
0.0117052
0.0119081
0.0120809
0.0122274
0.012351
0.0124538
0.0125372
0.0126015
0.012646
0.012669
0.012668
0.01264
0.0125821
0.0124919
0.012368
0.0122106
0.012022
0.0118059
0.0115678
0.0113137
0.0110496
0.0107806
0.0105104
0.0102409
0.00997277
0.00970547
0.00943861
0.00917275
0.00891047
0.00865692
0.000148361
0.00112391
0.0025438
0.00395314
0.0052355
0.00636493
0.00734363
0.00818446
0.00890353
0.00951703
0.0100399
0.0104855
0.0108651
0.0111888
0.0114648
0.0117003
0.0119011
0.0120724
0.012218
0.0123412
0.0124441
0.0125279
0.0125925
0.0126371
0.0126595
0.0126568
0.0126258
0.012563
0.0124658
0.0123327
0.0121644
0.0119631
0.0117334
0.0114813
0.0112134
0.0109364
0.0106555
0.0103748
0.0100959
0.00981924
0.00954394
0.00926923
0.00899552
0.00872558
0.00846527
0.000147818
0.00113014
0.0025618
0.00397903
0.00526424
0.00639259
0.007368
0.00820441
0.00891865
0.00952733
0.0100457
0.0104871
0.0108631
0.0111837
0.0114571
0.0116904
0.0118897
0.01206
0.0122052
0.0123285
0.012432
0.0125166
0.0125823
0.0126277
0.0126505
0.0126473
0.0126144
0.0125482
0.0124456
0.0123053
0.0121276
0.0119156
0.0116741
0.0114098
0.01113
0.0108419
0.0105514
0.0102624
0.00997693
0.00969495
0.00941533
0.00913693
0.00885994
0.00858725
0.00832536
0.000147062
0.00113435
0.00257547
0.00399863
0.00528527
0.00641177
0.00738347
0.00821538
0.00892496
0.00952921
0.0100435
0.0104814
0.0108544
0.0111723
0.0114436
0.0116754
0.0118737
0.0120434
0.0121887
0.0123125
0.012417
0.012503
0.0125703
0.0126173
0.0126414
0.012639
0.0126058
0.0125377
0.0124317
0.012286
0.0121012
0.0118804
0.0116291
0.0113544
0.0110646
0.0107673
0.0104691
0.0101743
0.00988488
0.00960074
0.00932045
0.00904247
0.00876671
0.00849608
0.00823752
0.000146104
0.00113666
0.00258484
0.00401179
0.00529829
0.006422
0.00738957
0.00821693
0.00892211
0.00952237
0.0100332
0.0104681
0.0108386
0.0111546
0.0114244
0.0116551
0.0118528
0.0120224
0.012168
0.0122927
0.0123986
0.0124864
0.0125559
0.0126053
0.0126317
0.0126312
0.0125992
0.0125313
0.0124239
0.0122751
0.0120854
0.0118581
0.011599
0.011316
0.0110179
0.0107134
0.0104094
0.0101109
0.00982015
0.00953682
0.00925924
0.00898549
0.0087151
0.00845079
0.00819975
0.000144959
0.001137
0.00258972
0.00401819
0.00530289
0.0064228
0.00738578
0.00820857
0.00890961
0.00950634
0.0100143
0.0104469
0.0108156
0.0111301
0.011399
0.0116291
0.0118266
0.0119965
0.0121428
0.0122687
0.0123762
0.0124663
0.0125384
0.0125909
0.0126205
0.0126232
0.012594
0.0125282
0.0124218
0.0122723
0.0120801
0.0118488
0.0115843
0.011295
0.0109907
0.0106807
0.0103728
0.0100727
0.0097827
0.00950274
0.00923082
0.00896454
0.00870296
0.00844839
0.008208
0.000143642
0.00113534
0.0025899
0.00401751
0.00529867
0.00641372
0.00737164
0.00818982
0.00888698
0.00948064
0.00998625
0.0104171
0.0107846
0.0110984
0.0113668
0.0115969
0.0117946
0.0119651
0.0121124
0.0122399
0.0123495
0.0124421
0.0125175
0.0125737
0.0126075
0.0126145
0.0125896
0.0125276
0.0124242
0.0122766
0.0120851
0.0118526
0.0115852
0.0112919
0.0109833
0.0106696
0.0103595
0.0100594
0.00977204
0.00949749
0.00923352
0.00897724
0.00872705
0.00848463
0.00825677
0.000142167
0.00113164
0.00258525
0.00400948
0.0052853
0.0063944
0.00734675
0.00816025
0.00885379
0.00944481
0.00994863
0.0103784
0.0107453
0.0110589
0.0113275
0.0115579
0.0117563
0.0119278
0.0120765
0.0122057
0.0123176
0.0124133
0.0124924
0.0125531
0.0125921
0.0126049
0.012586
0.0125298
0.0124316
0.0122883
0.0120995
0.0118682
0.0116007
0.0113063
0.0109959
0.0106806
0.0103695
0.0100706
0.00978721
0.0095195
0.0092651
0.00902054
0.00878344
0.00855453
0.00833993
0.000140552
0.0011259
0.00257566
0.00399391
0.00526254
0.00636457
0.00731083
0.00811957
0.00880969
0.00939849
0.00990104
0.0103303
0.0106972
0.0110112
0.0112804
0.0115117
0.0117112
0.011884
0.0120343
0.0121656
0.0122801
0.0123791
0.0124624
0.0125282
0.0125734
0.0125933
0.0125823
0.0125344
0.0124442
0.012308
0.0121251
0.0118979
0.0116326
0.0113388
0.011028
0.010712
0.0104018
0.0101053
0.00982682
0.00956687
0.00932295
0.00909112
0.00886804
0.0086529
0.00845139
0.000138814
0.00111816
0.00256108
0.00397072
0.00523027
0.0063241
0.00726373
0.0080676
0.00875449
0.00934143
0.00984321
0.0102724
0.0106399
0.0109549
0.0112252
0.0114579
0.0116589
0.0118333
0.0119855
0.0121191
0.0122364
0.012339
0.0124268
0.0124984
0.0125506
0.0125789
0.0125775
0.0125401
0.0124608
0.0123353
0.0121619
0.0119425
0.011683
0.0113927
0.0110837
0.0107687
0.0104596
0.0101655
0.00989147
0.0096387
0.00940469
0.00918499
0.00897535
0.00877428
0.00858547
0.000136974
0.00110847
0.00254154
0.00393992
0.00518852
0.00627301
0.00720547
0.00800433
0.00868814
0.00927356
0.00977499
0.0102047
0.0105733
0.0108897
0.0111617
0.0113962
0.011599
0.0117754
0.0119298
0.0120658
0.0121862
0.0122925
0.0123851
0.0124627
0.0125227
0.0125604
0.0125702
0.0125456
0.0124801
0.0123687
0.0122088
0.0120015
0.0117518
0.0114689
0.0111647
0.0108527
0.0105458
0.0102541
0.00998412
0.00973772
0.0095128
0.00930462
0.00910794
0.00891961
0.00874118
0.000135054
0.00109691
0.00251716
0.00390164
0.00513744
0.0062115
0.00713623
0.00792994
0.00861077
0.00919494
0.00969641
0.0101271
0.0104972
0.0108155
0.0110897
0.0113263
0.0115314
0.0117101
0.0118669
0.0120055
0.012129
0.0122391
0.0123366
0.0124205
0.0124885
0.0125365
0.0125588
0.0125488
0.0124997
0.0124058
0.0122636
0.0120728
0.0118376
0.0115663
0.0112706
0.0109642
0.0106608
0.0103718
0.0101051
0.00986379
0.00964659
0.00944888
0.00926471
0.00908921
0.00892131
0.000133078
0.00108363
0.00248813
0.00385614
0.00507737
0.00613991
0.00705638
0.00784476
0.00852268
0.00910583
0.00960767
0.0100397
0.0104118
0.0107324
0.0110091
0.0112483
0.011456
0.0116372
0.0117966
0.0119381
0.0120647
0.0121786
0.0122808
0.0123711
0.0124473
0.0125058
0.0125414
0.0125475
0.0125172
0.0124439
0.0123231
0.0121535
0.0119377
0.0116828
0.0113998
0.0111021
0.010804
0.0105182
0.0102539
0.0100159
0.0098043
0.00961523
0.00944251
0.00927995
0.00912384
0.000131074
0.00106879
0.00245475
0.00380385
0.00500882
0.00605883
0.00696649
0.00774933
0.00842437
0.00900665
0.00950912
0.0099428
0.0103172
0.0106405
0.0109201
0.0111622
0.0113727
0.0115568
0.011719
0.0118633
0.011993
0.0121106
0.0122175
0.0123138
0.0123981
0.0124672
0.0125165
0.0125395
0.0125294
0.0124793
0.0123835
0.0122394
0.0120479
0.0118146
0.011549
0.011264
0.0109739
0.0106921
0.0104296
0.010193
0.00998427
0.009801
0.00963757
0.00948713
0.00934389
0.000129067
0.0010526
0.00241742
0.00374535
0.00493249
0.00596899
0.00686733
0.00764441
0.00831652
0.00889804
0.00940129
0.00983685
0.0102138
0.0105401
0.0108228
0.0110682
0.0112818
0.0114689
0.011634
0.0117812
0.011914
0.0120352
0.0121464
0.0122483
0.0123402
0.0124195
0.0124822
0.0125225
0.0125335
0.0125082
0.0124403
0.0123255
0.0121632
0.0119567
0.011714
0.0114465
0.0111678
0.0108921
0.0106314
0.0103946
0.0101857
0.0100045
0.00984671
0.00970588
0.00957507
0.000127086
0.00103534
0.00237669
0.00368139
0.00484928
0.0058714
0.0067599
0.00753095
0.00820004
0.0087808
0.00928492
0.00972248
0.0101022
0.0104317
0.0107177
0.0109664
0.0111834
0.0113737
0.0115418
0.011692
0.0118277
0.0119522
0.0120673
0.0121743
0.0122731
0.0123618
0.0124372
0.0124942
0.0125265
0.0125268
0.0124885
0.0124061
0.0122772
0.0121029
0.0118888
0.0116444
0.0113822
0.0111159
0.0108586
0.0106207
0.0104089
0.0102255
0.0100686
0.00993283
0.00981148
0.000125158
0.0010173
0.00233321
0.00361292
0.00476031
0.00576724
0.0066454
0.00741014
0.00807603
0.00865594
0.00916092
0.0096005
0.009983
0.0103157
0.0106053
0.0108575
0.0110779
0.0112714
0.0114426
0.0115956
0.0117343
0.0118617
0.0119803
0.0120917
0.0121965
0.0122935
0.0123804
0.012453
0.0125055
0.0125313
0.0125233
0.0124752
0.012383
0.0122456
0.012066
0.0118511
0.0116116
0.0113599
0.0111093
0.0108715
0.0106555
0.0104662
0.0103045
0.0101677
0.0100501
0.000123313
0.00099884
0.00228774
0.00354103
0.0046669
0.00565793
0.00652528
0.00728335
0.00794582
0.0085247
0.0090304
0.00947192
0.00985715
0.0101931
0.0104861
0.0107419
0.0109657
0.0111625
0.0113367
0.0114926
0.0116339
0.0117639
0.0118855
0.0120006
0.0121102
0.0122143
0.0123111
0.0123974
0.0124685
0.0125183
0.01254
0.0125268
0.0124733
0.0123765
0.0122366
0.0120579
0.0118482
0.0116182
0.0113801
0.0111462
0.010927
0.0107299
0.010559
0.0104144
0.0102929
0.000121574
0.000980343
0.00224116
0.00346699
0.00457054
0.0055451
0.00640119
0.00715223
0.00781093
0.00838851
0.00889467
0.00933791
0.00972569
0.0100647
0.010361
0.0106202
0.0108474
0.0110473
0.0112245
0.0113831
0.0115268
0.0116592
0.0117832
0.0119011
0.0120146
0.0121241
0.0122289
0.0123268
0.012414
0.0124855
0.0125348
0.0125554
0.0125409
0.0124867
0.0123908
0.0122543
0.012082
0.011882
0.0116647
0.0114415
0.0112235
0.0110202
0.0108381
0.0106805
0.0105474
0.000119967
0.000962207
0.00219441
0.00339217
0.00447291
0.00543056
0.00627497
0.00701859
0.00767315
0.00824903
0.00875529
0.00919987
0.00958987
0.00993164
0.010231
0.0104934
0.0107237
0.0109267
0.0111066
0.0112676
0.0114136
0.0115479
0.0116738
0.0117938
0.0119099
0.0120233
0.0121341
0.012241
0.0123414
0.0124312
0.012505
0.0125566
0.0125795
0.012568
0.0125181
0.0124284
0.0123005
0.0121393
0.0119524
0.0117497
0.0115414
0.0113377
0.0111469
0.0109752
0.0108255
0.000118514
0.000944835
0.00214844
0.00331802
0.00437577
0.00531626
0.00614868
0.00688449
0.00753445
0.00810816
0.008614
0.00905944
0.00945115
0.00979523
0.0100973
0.0103624
0.0105956
0.0108012
0.0109836
0.0111469
0.0112947
0.0114306
0.0115578
0.0116791
0.0117969
0.0119128
0.0120275
0.0121407
0.012251
0.0123553
0.0124494
0.0125278
0.0125845
0.0126133
0.0126091
0.0125683
0.0124897
0.012375
0.0122287
0.0120577
0.0118707
0.011677
0.0114855
0.011304
0.011138
0.000117235
0.000928615
0.00210423
0.003246
0.00428094
0.00520427
0.0060245
0.00675213
0.00739703
0.00796799
0.0084728
0.00891844
0.00931123
0.00965698
0.00996106
0.0102285
0.0104639
0.0106719
0.0108564
0.0110215
0.0111708
0.0113079
0.011436
0.011558
0.0116765
0.0117934
0.0119101
0.0120272
0.0121439
0.0122586
0.012368
0.0124681
0.0125533
0.0126179
0.0126562
0.0126633
0.0126359
0.0125728
0.0124753
0.0123472
0.0121944
0.0120242
0.0118448
0.0116641
0.0114891
0.000116149
0.000913899
0.00206268
0.00317753
0.00419026
0.00509669
0.00590472
0.0066239
0.00726325
0.00783084
0.00833389
0.00877895
0.00917201
0.00951864
0.009824
0.010093
0.0103301
0.0105397
0.0107258
0.0108923
0.0110428
0.0111807
0.0113092
0.0114313
0.0115496
0.0116664
0.0117835
0.011902
0.0120221
0.0121431
0.0122629
0.0123787
0.012486
0.0125799
0.012655
0.0127057
0.0127275
0.0127172
0.0126733
0.0125964
0.0124894
0.012357
0.0122051
0.0120405
0.0118701
0.000115274
0.000900996
0.00202458
0.00311393
0.0041055
0.00499567
0.00579169
0.00650229
0.00713566
0.00769922
0.0081997
0.00864325
0.00903561
0.00938213
0.00968783
0.00995745
0.0101954
0.010406
0.010593
0.0107604
0.0109115
0.0110497
0.0111782
0.0112998
0.0114174
0.0115332
0.0116494
0.0117674
0.0118881
0.0120116
0.0121371
0.0122627
0.0123852
0.0125009
0.0126048
0.012692
0.0127573
0.0127964
0.0128059
0.0127839
0.0127304
0.0126471
0.0125373
0.0124055
0.012257
0.000114629
0.000890158
0.00199064
0.00305642
0.00402835
0.00490328
0.00568784
0.0063899
0.00701695
0.00757583
0.00807283
0.00851383
0.00890435
0.0092496
0.00955449
0.00982366
0.0100615
0.0102721
0.0104593
0.0106268
0.0107779
0.010916
0.011044
0.0111647
0.011281
0.0113951
0.0115093
0.0116254
0.0117446
0.0118677
0.0119946
0.0121246
0.0122557
0.0123851
0.0125093
0.0126237
0.0127238
0.0128048
0.0128623
0.0128931
0.0128947
0.0128663
0.0128085
0.0127232
0.0126133
0.000114235
0.000881584
0.00196143
0.00300606
0.00396041
0.0048216
0.00559556
0.00628939
0.00690991
0.00746347
0.00795606
0.00839335
0.00878074
0.00912336
0.00942609
0.00969353
0.00992999
0.0101395
0.0103259
0.0104927
0.0106432
0.0107805
0.0109075
0.011027
0.0111415
0.0112535
0.011365
0.0114781
0.0115942
0.0117146
0.0118398
0.0119697
0.0121035
0.0122395
0.0123751
0.012507
0.0126314
0.0127439
0.0128401
0.0129159
0.0129678
0.012993
0.0129901
0.0129583
0.0128984
0.000114114
0.000875422
0.00193741
0.00296381
0.00390318
0.00475262
0.00551728
0.00620347
0.0068174
0.00736507
0.00785226
0.00828456
0.00866736
0.00900583
0.00930485
0.00956905
0.00980274
0.0100099
0.0101944
0.0103595
0.0105085
0.0106443
0.0107698
0.0108876
0.011
0.0111094
0.0112179
0.0113274
0.0114395
0.0115557
0.0116768
0.0118034
0.0119353
0.0120718
0.0122113
0.0123516
0.0124896
0.0126221
0.0127451
0.0128545
0.0129465
0.0130175
0.0130645
0.0130853
0.0130783
0.000114295
0.000871775
0.00191895
0.00293056
0.00385813
0.00469838
0.00545548
0.00613491
0.00674237
0.00728361
0.00776436
0.00819028
0.00856687
0.00889945
0.00919302
0.00945228
0.00968159
0.00988497
0.0100661
0.0102284
0.0103749
0.0105085
0.0106318
0.0107474
0.0108573
0.0109639
0.0110691
0.0111747
0.0112824
0.0113935
0.0115093
0.0116305
0.0117575
0.0118901
0.0120276
0.0121686
0.0123112
0.0124528
0.0125904
0.0127206
0.0128397
0.012944
0.0130301
0.0130948
0.0131353
0.00011481
0.000870706
0.00190639
0.00290718
0.0038268
0.004661
0.00541272
0.00608657
0.00668782
0.00722211
0.0076953
0.00811329
0.00848188
0.00880664
0.00909279
0.00934521
0.00956835
0.00976626
0.00994263
0.0101008
0.0102437
0.0103741
0.0104945
0.0106072
0.0107144
0.0108179
0.0109196
0.0110212
0.0111242
0.0112301
0.01134
0.0114547
0.011575
0.0117011
0.0118327
0.0119692
0.0121094
0.0122515
0.0123933
0.0125322
0.0126652
0.012789
0.0129002
0.0129956
0.0130718
0.000115699
0.000872249
0.00190009
0.0028947
0.0038109
0.0046428
0.00539176
0.00606145
0.00665681
0.00718356
0.00764793
0.00805626
0.00841483
0.00872961
0.0090062
0.00924968
0.00946468
0.00965532
0.00982528
0.00997783
0.0101159
0.0102421
0.0103587
0.0104679
0.0105717
0.0106718
0.0107699
0.0108675
0.0109659
0.0110666
0.0111706
0.0112787
0.0113918
0.0115101
0.0116338
0.0117627
0.011896
0.0120326
0.012171
0.0123093
0.0124452
0.0125759
0.0126987
0.0128106
0.0129083
0.000117012
0.000876423
0.00190051
0.00289437
0.00381252
0.00464649
0.00539568
0.00606276
0.00665248
0.00717093
0.00762494
0.0080216
0.00836787
0.00867032
0.00893498
0.00916728
0.00937203
0.00955346
0.00971527
0.00986069
0.00999253
0.0101133
0.0102252
0.0103301
0.0104299
0.0105262
0.0106204
0.0107139
0.0108079
0.0109036
0.0110019
0.0111037
0.0112096
0.0113202
0.0114355
0.0115555
0.0116799
0.0118079
0.0119385
0.0120702
0.0122013
0.0123297
0.0124533
0.0125694
0.0126754
0.000118815
0.000883262
0.00190835
0.00290793
0.00383431
0.00467536
0.00542803
0.00609399
0.00667807
0.00718705
0.00762878
0.00801137
0.00834274
0.00863022
0.00888042
0.00909915
0.00929146
0.00946169
0.00961355
0.00975023
0.00987443
0.00998853
0.0100946
0.0101943
0.0102894
0.0103813
0.0104713
0.0105605
0.01065
0.0107409
0.0108339
0.0109298
0.0110292
0.0111325
0.0112398
0.0113512
0.0114664
0.0115849
0.0117059
0.0118282
0.0119506
0.0120714
0.0121889
0.012301
0.0124055
0.000121194
0.000892899
0.00192477
0.00293788
0.00387989
0.0047336
0.00549306
0.00615906
0.0067369
0.00723459
0.00766147
0.00802709
0.00834058
0.0086102
0.00884324
0.00904594
0.00922359
0.00938062
0.00952076
0.0096471
0.00976225
0.00986842
0.00996749
0.0100611
0.0101507
0.0102375
0.0103227
0.0104073
0.0104922
0.0105783
0.0106662
0.0107566
0.01085
0.0109467
0.0110469
0.0111505
0.0112573
0.0113668
0.0114784
0.0115911
0.0117038
0.0118152
0.0119236
0.0120276
0.0121251
0.000124273
0.000905694
0.00195169
0.00298796
0.00395426
0.00482669
0.00559597
0.00626236
0.00683233
0.00731588
0.00772447
0.00806954
0.0083617
0.00861033
0.00882342
0.00900763
0.00916847
0.00931043
0.00943717
0.00955168
0.00965643
0.00975345
0.00984446
0.00993092
0.0100141
0.0100951
0.0101748
0.0102543
0.0103342
0.0104152
0.010498
0.0105831
0.0106709
0.0107615
0.0108553
0.010952
0.0110515
0.0111533
0.0112568
0.0113611
0.011465
0.0115675
0.011667
0.0117622
0.0118514
0.00012821
0.000922454
0.00199231
0.00306386
0.00406464
0.00496204
0.00574327
0.00640886
0.00696764
0.00743268
0.00781834
0.00813847
0.00840543
0.00862975
0.00882009
0.0089835
0.00912558
0.00925079
0.00936267
0.00946405
0.00955721
0.00964398
0.0097259
0.00980423
0.00988008
0.00995438
0.010028
0.0101016
0.0101759
0.0102514
0.0103287
0.0104083
0.0104904
0.0105752
0.0106629
0.0107534
0.0108465
0.0109417
0.0110384
0.0111358
0.0112328
0.0113283
0.0114208
0.0115089
0.0115911
0.000133201
0.000944805
0.00205198
0.00317446
0.00422164
0.00514985
0.00594315
0.00660407
0.00714572
0.00758573
0.00794237
0.00823231
0.0084698
0.00866643
0.00883144
0.00897201
0.00909372
0.00920086
0.00929676
0.00938401
0.00946463
0.00954025
0.00961218
0.00968151
0.00974917
0.00981592
0.00988247
0.00994943
0.0100173
0.0100867
0.0101579
0.0102314
0.0103074
0.0103861
0.0104676
0.0105519
0.0106388
0.0107279
0.0108187
0.0109104
0.011002
0.0110924
0.0111802
0.0112639
0.011342
0.000139505
0.000975887
0.00213983
0.00333416
0.00444143
0.00540441
0.00620586
0.0068537
0.00736837
0.00777408
0.00809393
0.00834767
0.00855127
0.0087171
0.0088546
0.00897084
0.00907112
0.00915938
0.00923862
0.0093111
0.00937856
0.00944237
0.00950363
0.00956322
0.00962189
0.00968028
0.00973894
0.00979837
0.00985902
0.00992128
0.00998552
0.010052
0.0101211
0.0101929
0.0102675
0.010345
0.0104252
0.0105078
0.0105926
0.0106787
0.0107655
0.0108519
0.0109366
0.0110183
0.0110952
0.000147464
0.00102157
0.00227204
0.00356727
0.00474929
0.00574571
0.00654352
0.00716253
0.00763501
0.00799392
0.00826772
0.00847892
0.00864457
0.00877718
0.00888581
0.00897701
0.00905551
0.00912472
0.00918716
0.0092447
0.00929876
0.00935041
0.00940053
0.0094498
0.00949882
0.00954807
0.00959799
0.00964897
0.00970136
0.00975549
0.00981165
0.0098701
0.00993107
0.00999474
0.0100612
0.0101306
0.0102028
0.0102778
0.0103552
0.0104347
0.0105158
0.0105976
0.0106793
0.0107596
0.0108372
0.00015749
0.00109321
0.00247982
0.00391787
0.00518601
0.0062011
0.00696868
0.00753186
0.0079403
0.00823697
0.00845486
0.00861785
0.00874267
0.00884091
0.00892053
0.00898705
0.00904432
0.00909504
0.00914116
0.00918408
0.00922488
0.00926434
0.0093031
0.00934167
0.00938049
0.00941991
0.00946027
0.00950184
0.00954492
0.00958974
0.00963655
0.00968556
0.00973697
0.00979094
0.00984762
0.00990711
0.00996945
0.0100346
0.0101026
0.0101731
0.010246
0.0103208
0.0103972
0.0104744
0.0105517
0.000170178
0.00121722
0.00283356
0.00447369
0.00581869
0.00680448
0.00748865
0.00795392
0.00827041
0.00848857
0.00864231
0.00875375
0.00883717
0.00890189
0.00895396
0.00899742
0.00903501
0.00906857
0.00909944
0.00912856
0.00915661
0.00918415
0.00921158
0.00923925
0.00926745
0.00929642
0.00932639
0.00935759
0.00939019
0.00942439
0.00946037
0.00949831
0.00953836
0.00958067
0.00962539
0.00967264
0.0097225
0.00977505
0.00983034
0.00988839
0.0099492
0.0100128
0.0100792
0.0101485
0.0102209
0.000187125
0.00147574
0.00353286
0.00542841
0.0067521
0.00758298
0.00809004
0.00840189
0.0085985
0.00872661
0.0088133
0.0088744
0.00891936
0.00895394
0.00898174
0.00900507
0.00902544
0.00904389
0.00906112
0.00907764
0.00909383
0.00910998
0.00912631
0.00914304
0.00916031
0.00917828
0.00919709
0.00921686
0.00923773
0.00925982
0.00928325
0.00930815
0.00933463
0.0093628
0.0093928
0.00942472
0.00945867
0.00949477
0.00953313
0.00957386
0.00961715
0.00966324
0.00971251
0.00976565
0.00982387
0.000213616
0.002329
0.00538376
0.00722768
0.00809216
0.00850012
0.00870591
0.00881779
0.00888299
0.00892343
0.00894998
0.00896839
0.00898184
0.00899221
0.00900061
0.00900775
0.00901409
0.00901993
0.0090255
0.00903093
0.00903636
0.00904186
0.00904752
0.00905339
0.00905954
0.00906601
0.00907286
0.00908013
0.00908788
0.00909615
0.009105
0.00911447
0.00912462
0.00913549
0.00914715
0.00915965
0.00917306
0.00918743
0.00920286
0.00921944
0.00923732
0.00925672
0.00927801
0.00930184
0.00932942
)
;

boundaryField
{
    leftWall
    {
        type            nutkWallFunction;
        Cmu             0.09;
        kappa           0.41;
        E               9.8;
        value           nonuniform List<scalar> 
42
(
1.25353e-05
1.249e-05
1.24172e-05
1.23102e-05
1.2171e-05
1.20017e-05
1.18042e-05
1.15806e-05
1.13334e-05
1.10652e-05
1.07791e-05
1.04784e-05
1.01669e-05
9.84866e-06
9.52789e-06
9.20907e-06
8.89671e-06
8.59527e-06
8.30905e-06
8.04207e-06
7.79803e-06
7.58031e-06
7.39197e-06
7.23594e-06
7.1151e-06
7.03258e-06
6.99189e-06
6.99725e-06
7.05373e-06
7.1675e-06
7.34624e-06
7.59982e-06
7.94159e-06
8.38993e-06
8.96935e-06
9.71113e-06
1.06562e-05
1.18574e-05
1.33735e-05
1.52844e-05
1.78149e-05
2.17279e-05
)
;
    }
    rightWall
    {
        type            nutkWallFunction;
        Cmu             0.09;
        kappa           0.41;
        E               9.8;
        value           nonuniform List<scalar> 0();
    }
    lowerWall
    {
        type            nutkWallFunction;
        Cmu             0.09;
        kappa           0.41;
        E               9.8;
        value           nonuniform List<scalar> 0();
    }
    atmosphere
    {
        type            calculated;
        value           uniform 0.009;
    }
    defaultFaces
    {
        type            empty;
    }
    procBoundary2to0
    {
        type            processor;
        value           nonuniform List<scalar> 
46
(
0.0124666
0.0125511
0.0126166
0.0126631
0.0126897
0.0126948
0.0126762
0.0126318
0.0125595
0.012458
0.0123273
0.0121686
0.0119848
0.0117799
0.0115588
0.0113265
0.0110877
0.0108458
0.0106032
0.0103613
0.0101203
0.00988045
0.00964258
0.0094087
0.00918245
0.000148933
0.00109858
0.00249003
0.00388008
0.00515361
0.00628249
0.00726647
0.00811605
0.00884557
0.00947008
0.0100038
0.0104596
0.0108486
0.0111806
0.0114638
0.0117052
0.0119108
0.0120856
0.0122335
0.012358
0.012358
)
;
    }
    procBoundary2to3
    {
        type            processor;
        value           nonuniform List<scalar> 
43
(
0.00867023
0.00841968
0.00822328
0.00808394
0.00800163
0.00797333
0.00799361
0.00805542
0.00815127
0.00827424
0.00841874
0.0085806
0.00876597
0.00897549
0.00920555
0.00944907
0.00969768
0.00994478
0.0101889
0.0104358
0.0106979
0.0109907
0.0113249
0.0116999
0.0120973
0.0124827
0.0128118
0.0130431
0.0131495
0.013126
0.0129888
0.0127684
0.0125
0.0122144
0.011933
0.0116659
0.0114128
0.0111657
0.0109103
0.0106282
0.0102969
0.00988923
0.00936316
)
;
    }
}


// ************************************************************************* //
