/*--------------------------------*- C++ -*----------------------------------*\
  =========                 |
  \\      /  F ield         | OpenFOAM: The Open Source CFD Toolbox
   \\    /   O peration     | Website:  https://openfoam.org
    \\  /    A nd           | Version:  9
     \\/     M anipulation  |
\*---------------------------------------------------------------------------*/
FoamFile
{
    format      ascii;
    class       volScalarField;
    location    "0.4";
    object      p;
}
// * * * * * * * * * * * * * * * * * * * * * * * * * * * * * * * * * * * * * //

dimensions      [1 -1 -2 0 0 0 0];

internalField   nonuniform List<scalar> 
1915
(
-3.56197
-3.59777
-3.63688
-3.67932
-3.72521
-3.77467
-3.82773
-3.88426
-3.94403
-4.00665
-4.0716
-4.13825
-4.20597
-4.27427
-4.34287
-4.41191
-4.48201
-4.5543
-4.63031
-4.71178
-4.80025
-4.89677
-5.00153
-5.11272
-5.22723
-3.3595
-3.36194
-3.36437
-3.36775
-3.37202
-3.37723
-3.38348
-3.39085
-3.39943
-3.40931
-3.42059
-3.43338
-3.44778
-3.46389
-3.48184
-3.50174
-3.52371
-3.5479
-3.57453
-3.6039
-3.63628
-3.6718
-3.71044
-3.7523
-3.79757
-3.84637
-3.89876
-3.95469
-4.01395
-4.07617
-4.14085
-4.20736
-4.27507
-4.34349
-4.41239
-4.48198
-4.55297
-4.62659
-4.70443
-4.78822
-4.87942
-4.97892
-5.08683
-5.20159
-5.31923
-3.42794
-3.43037
-3.43334
-3.43726
-3.44202
-3.44769
-3.45433
-3.46205
-3.47095
-3.48112
-3.49266
-3.5057
-3.52032
-3.53664
-3.55476
-3.57481
-3.59691
-3.62121
-3.6479
-3.67721
-3.70934
-3.74438
-3.78242
-3.82362
-3.86818
-3.91625
-3.96793
-4.02322
-4.08194
-4.14375
-4.20816
-4.27452
-4.34221
-4.41075
-4.47995
-4.55011
-4.62205
-4.69712
-4.77696
-4.86327
-4.95739
-5.05995
-5.17074
-5.28833
-5.40953
-3.49532
-3.49762
-3.50116
-3.5056
-3.51083
-3.5169
-3.5239
-3.53194
-3.54113
-3.55156
-3.56335
-3.57662
-3.59145
-3.60797
-3.62627
-3.64647
-3.66868
-3.69305
-3.71971
-3.74884
-3.78059
-3.81507
-3.85245
-3.89293
-3.93671
-3.98401
-4.03498
-4.08965
-4.14789
-4.20939
-4.27362
-4.33994
-4.40769
-4.4764
-4.54592
-4.61665
-4.68951
-4.76595
-4.8477
-4.93643
-5.03337
-5.13896
-5.25273
-5.37316
-5.49752
-3.56153
-3.56398
-3.56796
-3.57286
-3.5785
-3.58493
-3.59225
-3.60057
-3.61
-3.62066
-3.63266
-3.64612
-3.66113
-3.67781
-3.69625
-3.71656
-3.73883
-3.76318
-3.78972
-3.81857
-3.84987
-3.88377
-3.92046
-3.96016
-4.00313
-4.04965
-4.0999
-4.15397
-4.21178
-4.27301
-4.33712
-4.40345
-4.4713
-4.54019
-4.61002
-4.68127
-4.75497
-4.83267
-4.91615
-5.00706
-5.10653
-5.21486
-5.33144
-5.45468
-5.582
-3.62675
-3.62941
-3.63377
-3.63907
-3.64507
-3.65181
-3.65939
-3.66795
-3.67759
-3.68843
-3.7006
-3.71421
-3.72936
-3.74615
-3.76468
-3.78503
-3.80729
-3.83154
-3.85787
-3.88638
-3.9172
-3.95047
-3.98643
-4.02533
-4.06747
-4.11318
-4.16271
-4.21618
-4.27356
-4.33451
-4.39849
-4.46478
-4.53267
-4.60169
-4.67176
-4.74344
-4.81788
-4.8967
-4.9817
-5.07445
-5.17601
-5.28658
-5.40548
-5.53117
-5.66115
-3.69107
-3.69392
-3.6986
-3.70425
-3.71054
-3.71754
-3.72535
-3.7341
-3.7439
-3.75489
-3.76718
-3.78089
-3.79612
-3.81297
-3.83153
-3.85186
-3.87403
-3.89811
-3.92417
-3.95227
-3.98255
-4.01516
-4.05034
-4.0884
-4.12968
-4.17456
-4.22334
-4.27621
-4.33311
-4.39373
-4.45749
-4.52364
-4.59147
-4.66048
-4.73067
-4.80267
-4.8777
-4.95743
-5.04363
-5.13781
-5.2409
-5.35307
-5.47367
-5.60127
-5.7335
-3.75456
-3.75756
-3.7625
-3.76842
-3.77496
-3.78216
-3.79015
-3.79903
-3.80895
-3.82003
-3.8324
-3.84616
-3.86142
-3.87827
-3.89679
-3.91703
-3.93905
-3.96289
-3.98859
-4.01623
-4.04592
-4.07782
-4.11219
-4.14936
-4.18973
-4.23373
-4.2817
-4.33387
-4.39021
-4.45039
-4.51382
-4.57971
-4.64732
-4.71619
-4.78635
-4.8585
-4.93391
-5.01425
-5.10125
-5.1963
-5.30027
-5.41332
-5.53493
-5.66384
-5.79787
-3.81728
-3.82039
-3.82552
-3.83165
-3.83837
-3.84571
-3.85382
-3.8628
-3.87278
-3.88391
-3.8963
-3.91005
-3.92528
-3.94207
-3.96048
-3.98057
-4.00236
-4.02589
-4.05117
-4.07828
-4.10732
-4.13846
-4.17196
-4.2082
-4.24761
-4.29064
-4.33771
-4.38905
-4.44466
-4.50422
-4.56711
-4.63255
-4.69979
-4.76836
-4.83836
-4.91048
-4.98602
-5.0666
-5.15386
-5.24913
-5.35324
-5.46641
-5.58831
-5.7179
-5.85322
-3.87928
-3.88246
-3.88773
-3.89399
-3.90082
-3.90826
-3.91643
-3.92545
-3.93546
-3.94658
-3.95893
-3.97263
-3.98777
-4.00443
-4.02267
-4.04253
-4.06402
-4.08715
-4.11196
-4.13847
-4.1668
-4.19711
-4.2297
-4.26495
-4.30331
-4.34528
-4.39131
-4.44165
-4.49632
-4.55501
-4.61712
-4.68185
-4.74848
-4.81657
-4.88621
-4.9581
-5.03347
-5.11386
-5.2008
-5.29558
-5.39903
-5.51153
-5.63294
-5.76249
-5.89844
-3.94065
-3.94386
-3.94919
-3.95553
-3.96241
-3.96989
-3.97807
-3.98708
-3.99706
-4.00813
-4.0204
-4.03398
-4.04897
-4.06544
-4.08344
-4.10299
-4.1241
-4.14678
-4.17103
-4.19688
-4.22443
-4.25387
-4.28548
-4.31965
-4.35687
-4.39766
-4.44248
-4.49161
-4.54509
-4.60262
-4.66363
-4.72737
-4.79313
-4.86051
-4.92956
-5.00095
-5.07579
-5.15548
-5.24147
-5.33497
-5.43691
-5.54785
-5.6679
-5.79655
-5.93231
-4.00145
-4.00466
-4.01001
-4.01636
-4.02324
-4.0307
-4.03885
-4.0478
-4.0577
-4.06866
-4.08079
-4.09421
-4.10899
-4.1252
-4.14288
-4.16206
-4.18273
-4.20488
-4.2285
-4.25362
-4.28034
-4.30883
-4.33939
-4.37241
-4.40839
-4.44785
-4.49126
-4.53894
-4.59093
-4.64698
-4.70655
-4.76896
-4.83355
-4.89993
-4.96814
-5.03872
-5.11264
-5.19112
-5.27547
-5.36691
-5.46647
-5.5749
-5.69255
-5.81917
-5.95354
-4.06176
-4.06494
-4.07026
-4.07658
-4.08341
-4.0908
-4.09887
-4.10772
-4.11749
-4.1283
-4.14024
-4.15343
-4.16794
-4.18383
-4.20114
-4.21987
-4.24002
-4.26157
-4.2845
-4.30884
-4.33466
-4.36215
-4.39158
-4.42336
-4.45798
-4.49596
-4.53776
-4.58372
-4.6339
-4.6881
-4.74586
-4.80657
-4.86963
-4.93469
-5.00173
-5.07116
-5.14373
-5.22048
-5.30257
-5.3912
-5.48751
-5.59245
-5.70656
-5.82985
-5.96143
-4.12167
-4.1248
-4.13004
-4.13628
-4.14302
-4.1503
-4.15824
-4.16695
-4.17655
-4.18715
-4.19885
-4.21176
-4.22594
-4.24145
-4.25832
-4.27655
-4.29612
-4.317
-4.33918
-4.36266
-4.38753
-4.41395
-4.44219
-4.47265
-4.5058
-4.54214
-4.58213
-4.62611
-4.67416
-4.72615
-4.78169
-4.84028
-4.9014
-4.96474
-5.03022
-5.09809
-5.16888
-5.2434
-5.32264
-5.40778
-5.50004
-5.6005
-5.70988
-5.82841
-5.95561
-4.18122
-4.18428
-4.18943
-4.19554
-4.20215
-4.20929
-4.21707
-4.22559
-4.23498
-4.24533
-4.25674
-4.26931
-4.28311
-4.29818
-4.31455
-4.33221
-4.35113
-4.37129
-4.39265
-4.41523
-4.43909
-4.46438
-4.49137
-4.52043
-4.552
-4.58656
-4.62456
-4.66631
-4.71194
-4.76136
-4.81428
-4.87031
-4.92905
-4.99021
-5.05367
-5.11951
-5.18804
-5.25983
-5.3357
-5.41675
-5.50423
-5.59927
-5.70273
-5.81503
-5.93608
-4.24048
-4.24347
-4.24848
-4.25444
-4.26089
-4.26785
-4.27543
-4.28373
-4.29286
-4.30292
-4.314
-4.32619
-4.33955
-4.35412
-4.36993
-4.38696
-4.40518
-4.42456
-4.44505
-4.46667
-4.48947
-4.51358
-4.53926
-4.56685
-4.59675
-4.62942
-4.66526
-4.70458
-4.74753
-4.79406
-4.84399
-4.89704
-4.95292
-5.0114
-5.07231
-5.1356
-5.20136
-5.26992
-5.34193
-5.41838
-5.50044
-5.58923
-5.68564
-5.79026
-5.9033
-4.29949
-4.30239
-4.30725
-4.31304
-4.3193
-4.32605
-4.33341
-4.34145
-4.35028
-4.36001
-4.37071
-4.38246
-4.39533
-4.40936
-4.42455
-4.44089
-4.45836
-4.4769
-4.49648
-4.51709
-4.53878
-4.56167
-4.58599
-4.61204
-4.64021
-4.67089
-4.70445
-4.74118
-4.78123
-4.82462
-4.87123
-4.92091
-4.97348
-5.02876
-5.08657
-5.14675
-5.20919
-5.27403
-5.34173
-5.41311
-5.48921
-5.57105
-5.65947
-5.7551
-5.85839
-4.35829
-4.36111
-4.36579
-4.37138
-4.37743
-4.38396
-4.39105
-4.3988
-4.40731
-4.41666
-4.42694
-4.43821
-4.45055
-4.46397
-4.4785
-4.49411
-4.51076
-4.52842
-4.54703
-4.56659
-4.58713
-4.60876
-4.63167
-4.65615
-4.68253
-4.71115
-4.74235
-4.77639
-4.8134
-4.85344
-4.89648
-4.94247
-4.99131
-5.0429
-5.09707
-5.15356
-5.21214
-5.27276
-5.3357
-5.40161
-5.47133
-5.54569
-5.62539
-5.71102
-5.80312
-4.41692
-4.41964
-4.42415
-4.42952
-4.43533
-4.4416
-4.44841
-4.45585
-4.464
-4.47294
-4.48275
-4.49351
-4.50526
-4.51804
-4.53185
-4.54667
-4.56248
-4.5792
-4.59681
-4.61527
-4.63463
-4.65496
-4.67643
-4.6993
-4.72384
-4.75038
-4.77917
-4.81045
-4.84435
-4.88093
-4.92023
-4.96227
-5.00705
-5.05454
-5.10456
-5.15683
-5.21102
-5.26695
-5.32474
-5.38483
-5.44784
-5.51437
-5.58492
-5.65991
-5.73979
-4.4754
-4.47803
-4.48234
-4.48748
-4.49305
-4.49904
-4.50555
-4.51264
-4.52039
-4.52889
-4.53821
-4.54841
-4.55954
-4.57163
-4.58468
-4.59868
-4.61358
-4.62934
-4.6459
-4.66324
-4.68137
-4.70037
-4.72038
-4.74161
-4.76431
-4.78873
-4.81511
-4.84362
-4.87439
-4.90748
-4.94295
-4.98089
-5.02138
-5.06442
-5.1099
-5.1575
-5.20686
-5.25767
-5.30994
-5.36393
-5.42003
-5.47859
-5.53986
-5.60405
-5.67131
-4.53375
-4.53629
-4.54041
-4.54532
-4.55061
-4.55632
-4.56249
-4.56922
-4.57655
-4.58458
-4.59337
-4.60297
-4.61344
-4.62481
-4.63706
-4.6502
-4.66417
-4.67892
-4.69441
-4.71059
-4.72747
-4.74512
-4.76364
-4.78322
-4.80406
-4.82638
-4.85036
-4.87614
-4.90381
-4.93343
-4.96508
-4.99888
-5.03495
-5.07335
-5.114
-5.1566
-5.20076
-5.24613
-5.29258
-5.34026
-5.38936
-5.44
-5.49216
-5.5458
-5.60072
-4.59202
-4.59448
-4.59839
-4.60305
-4.60807
-4.61347
-4.6193
-4.62563
-4.63253
-4.64006
-4.64828
-4.65727
-4.66705
-4.67765
-4.68908
-4.70132
-4.71432
-4.72804
-4.74242
-4.75742
-4.77304
-4.78931
-4.80634
-4.82426
-4.84325
-4.86348
-4.8851
-4.90822
-4.93288
-4.95913
-4.98704
-5.01674
-5.04838
-5.08207
-5.11775
-5.15517
-5.19392
-5.23362
-5.27409
-5.31533
-5.35741
-5.40027
-5.44369
-5.48737
-5.53086
-4.65023
-4.6526
-4.65632
-4.66072
-4.66546
-4.67053
-4.676
-4.68193
-4.68836
-4.69537
-4.70302
-4.71135
-4.72041
-4.73023
-4.7408
-4.75212
-4.76413
-4.7768
-4.79006
-4.80386
-4.8182
-4.83309
-4.84861
-4.86488
-4.88204
-4.90022
-4.91955
-4.94008
-4.96184
-4.98486
-5.00918
-5.03492
-5.06224
-5.09126
-5.12198
-5.15418
-5.18748
-5.22148
-5.25592
-5.29074
-5.3259
-5.36124
-5.39638
-5.43088
-5.46423
-4.70842
-4.71071
-4.71422
-4.71837
-4.72281
-4.72756
-4.73266
-4.73816
-4.74412
-4.75059
-4.75764
-4.7653
-4.77362
-4.78263
-4.79233
-4.8027
-4.81371
-4.8253
-4.83743
-4.85003
-4.86308
-4.87659
-4.89062
-4.90525
-4.9206
-4.93679
-4.95389
-4.97194
-4.99095
-5.01091
-5.03183
-5.05381
-5.077
-5.10153
-5.12743
-5.15453
-5.18249
-5.21091
-5.23949
-5.26807
-5.29658
-5.32477
-5.35222
-5.37843
-5.40298
-4.76662
-4.76883
-4.77215
-4.77604
-4.78019
-4.7846
-4.78932
-4.79439
-4.79986
-4.80578
-4.81221
-4.81919
-4.82675
-4.83494
-4.84374
-4.85316
-4.86315
-4.87367
-4.88466
-4.89605
-4.90783
-4.91998
-4.93253
-4.94555
-4.95913
-4.97337
-4.98833
-5.00403
-5.02044
-5.03753
-5.05529
-5.07377
-5.09309
-5.11339
-5.13471
-5.15694
-5.1798
-5.20291
-5.22594
-5.24867
-5.27097
-5.29257
-5.31306
-5.33193
-5.3489
-4.82488
-4.82702
-4.83015
-4.83378
-4.83763
-4.8417
-4.84604
-4.85067
-4.85564
-4.86101
-4.86681
-4.87309
-4.8799
-4.88725
-4.89516
-4.90361
-4.91258
-4.92202
-4.93188
-4.94208
-4.9526
-4.9634
-4.9745
-4.98596
-4.99783
-5.0102
-5.0231
-5.03656
-5.05054
-5.06498
-5.07982
-5.0951
-5.11087
-5.12725
-5.14432
-5.16201
-5.1801
-5.19826
-5.21615
-5.23354
-5.25021
-5.26591
-5.28025
-5.29279
-5.30326
-4.88325
-4.88532
-4.88825
-4.89164
-4.89519
-4.89893
-4.90287
-4.90707
-4.91154
-4.91635
-4.92152
-4.92711
-4.93315
-4.93966
-4.94667
-4.95416
-4.96212
-4.97049
-4.97922
-4.98825
-4.99753
-5.00702
-5.01672
-5.02666
-5.03689
-5.04746
-5.05841
-5.06976
-5.08146
-5.09345
-5.10564
-5.11802
-5.1306
-5.14346
-5.15667
-5.1702
-5.18391
-5.19753
-5.21076
-5.22333
-5.23502
-5.24556
-5.25461
-5.26177
-5.26678
-4.94177
-4.94377
-4.94652
-4.94966
-4.95293
-4.95633
-4.95989
-4.96364
-4.96762
-4.97186
-4.9764
-4.9813
-4.98657
-4.99226
-4.99837
-5.00491
-5.01185
-5.01916
-5.02679
-5.03467
-5.04275
-5.05097
-5.05933
-5.06782
-5.07648
-5.08535
-5.09446
-5.10382
-5.1134
-5.12313
-5.13292
-5.14271
-5.15246
-5.16222
-5.17202
-5.18186
-5.19164
-5.20117
-5.21021
-5.2185
-5.22583
-5.23194
-5.23651
-5.23921
-5.23977
-5.0005
-5.00244
-5.005
-5.0079
-5.01089
-5.01396
-5.01715
-5.02046
-5.02394
-5.02761
-5.03153
-5.03573
-5.04025
-5.04511
-5.05034
-5.05593
-5.06188
-5.06815
-5.0747
-5.08146
-5.08837
-5.09539
-5.10246
-5.10959
-5.11677
-5.12404
-5.13142
-5.13893
-5.14654
-5.15419
-5.1618
-5.16928
-5.17657
-5.18365
-5.19052
-5.19717
-5.20354
-5.20949
-5.21484
-5.21939
-5.22293
-5.22526
-5.2261
-5.22516
-5.22223
-5.05949
-5.06136
-5.06375
-5.06642
-5.06914
-5.07189
-5.07469
-5.07757
-5.08055
-5.08367
-5.08697
-5.09048
-5.09425
-5.0983
-5.10266
-5.10733
-5.1123
-5.11755
-5.12304
-5.12872
-5.13451
-5.14037
-5.14624
-5.15208
-5.1579
-5.16369
-5.16948
-5.17527
-5.18105
-5.18679
-5.19241
-5.19783
-5.20297
-5.20776
-5.21217
-5.21616
-5.21967
-5.22261
-5.22483
-5.22618
-5.22652
-5.22566
-5.2234
-5.21952
-5.21394
-5.1188
-5.1206
-5.12281
-5.12526
-5.12771
-5.13015
-5.13258
-5.13503
-5.13753
-5.1401
-5.14279
-5.14563
-5.14867
-5.15193
-5.15543
-5.1592
-5.16322
-5.16748
-5.17195
-5.17657
-5.18129
-5.18604
-5.19077
-5.19543
-5.19999
-5.20444
-5.20878
-5.21301
-5.21713
-5.22112
-5.22494
-5.2285
-5.23173
-5.23455
-5.2369
-5.23872
-5.23993
-5.24043
-5.24013
-5.23889
-5.23661
-5.23315
-5.22838
-5.22215
-5.21454
-5.17847
-5.1802
-5.18224
-5.18449
-5.18669
-5.18882
-5.19089
-5.19292
-5.19494
-5.19697
-5.19907
-5.20126
-5.20359
-5.20608
-5.20877
-5.21166
-5.21477
-5.21807
-5.22154
-5.22515
-5.22884
-5.23254
-5.23621
-5.23977
-5.24319
-5.24642
-5.24947
-5.25231
-5.25496
-5.25738
-5.25956
-5.26144
-5.26297
-5.26408
-5.26469
-5.26472
-5.26409
-5.26271
-5.26046
-5.25725
-5.25297
-5.24753
-5.24082
-5.23281
-5.22362
-5.23855
-5.2402
-5.24209
-5.24415
-5.24612
-5.24796
-5.24968
-5.25129
-5.25284
-5.25435
-5.25587
-5.25744
-5.25909
-5.26085
-5.26275
-5.26482
-5.26704
-5.26942
-5.27195
-5.27458
-5.27728
-5.27999
-5.28265
-5.2852
-5.28758
-5.28974
-5.29165
-5.29329
-5.29465
-5.29571
-5.29645
-5.29685
-5.29687
-5.29646
-5.29556
-5.2941
-5.292
-5.28915
-5.28546
-5.28081
-5.27512
-5.2683
-5.26027
-5.25103
-5.24069
-5.29904
-5.30062
-5.30239
-5.30431
-5.30607
-5.30763
-5.309
-5.31021
-5.31129
-5.31229
-5.31325
-5.31422
-5.31522
-5.31629
-5.31746
-5.31874
-5.32013
-5.32164
-5.32326
-5.32497
-5.32673
-5.32849
-5.3302
-5.3318
-5.33323
-5.33443
-5.33536
-5.33597
-5.33624
-5.33615
-5.33569
-5.33482
-5.33355
-5.33182
-5.32962
-5.32689
-5.32356
-5.31956
-5.31478
-5.30913
-5.3025
-5.29482
-5.28602
-5.27609
-5.26507
-5.36002
-5.36155
-5.36325
-5.36505
-5.36662
-5.36791
-5.36892
-5.36971
-5.37033
-5.37083
-5.37125
-5.37164
-5.37204
-5.37246
-5.37294
-5.37348
-5.3741
-5.3748
-5.37557
-5.3764
-5.37727
-5.37813
-5.37894
-5.37965
-5.3802
-5.38054
-5.3806
-5.38034
-5.37971
-5.37869
-5.37725
-5.37537
-5.37303
-5.37023
-5.36695
-5.36316
-5.35882
-5.35389
-5.34828
-5.34191
-5.33469
-5.32653
-5.31738
-5.30722
-5.29603
-5.42169
-5.42312
-5.42473
-5.42646
-5.42785
-5.42884
-5.42948
-5.42985
-5.43
-5.43001
-5.42992
-5.42977
-5.42959
-5.42942
-5.42926
-5.42913
-5.42904
-5.42898
-5.42897
-5.42899
-5.42901
-5.42902
-5.42899
-5.42886
-5.42859
-5.42813
-5.42741
-5.42639
-5.42502
-5.42325
-5.42104
-5.41839
-5.41525
-5.41163
-5.40752
-5.40292
-5.3978
-5.39214
-5.3859
-5.37902
-5.37143
-5.36306
-5.35385
-5.34378
-5.33282
-5.48386
-5.48536
-5.48687
-5.4886
-5.48982
-5.4905
-5.49075
-5.49068
-5.49037
-5.4899
-5.48931
-5.48866
-5.48796
-5.48723
-5.48649
-5.48576
-5.48502
-5.48429
-5.48356
-5.48283
-5.48208
-5.48131
-5.48047
-5.47956
-5.47852
-5.47731
-5.47588
-5.47418
-5.47216
-5.46978
-5.46699
-5.46375
-5.46005
-5.45586
-5.45119
-5.44602
-5.44036
-5.43421
-5.42755
-5.42035
-5.41258
-5.40418
-5.3951
-5.38532
-5.37483
-5.54546
-5.54835
-5.54987
-5.55166
-5.5527
-5.553
-5.5528
-5.55226
-5.55149
-5.55055
-5.5495
-5.54838
-5.5472
-5.54597
-5.54472
-5.54344
-5.54213
-5.54079
-5.53942
-5.53802
-5.53658
-5.53509
-5.53353
-5.53188
-5.53012
-5.52821
-5.52611
-5.52379
-5.52119
-5.51828
-5.51501
-5.51134
-5.50724
-5.50269
-5.49767
-5.49219
-5.48624
-5.47983
-5.47298
-5.46566
-5.45788
-5.4496
-5.4408
-5.43144
-5.42152
-5.6059
-5.61275
-5.61433
-5.616
-5.61663
-5.61639
-5.61564
-5.61459
-5.61334
-5.61195
-5.61047
-5.60892
-5.60731
-5.60565
-5.60394
-5.60218
-5.60036
-5.59849
-5.59657
-5.59458
-5.59253
-5.5904
-5.58819
-5.58589
-5.58347
-5.58092
-5.5782
-5.5753
-5.57217
-5.56879
-5.5651
-5.56108
-5.55669
-5.55191
-5.54671
-5.54109
-5.53505
-5.5286
-5.52176
-5.51452
-5.50691
-5.49891
-5.49051
-5.48167
-5.47236
-5.6684
-5.67992
-5.68042
-5.68146
-5.68146
-5.68054
-5.67916
-5.67758
-5.67587
-5.67407
-5.6722
-5.67026
-5.66827
-5.66621
-5.6641
-5.66192
-5.65967
-5.65734
-5.65494
-5.65245
-5.64988
-5.64721
-5.64444
-5.64156
-5.63857
-5.63544
-5.63218
-5.62875
-5.62513
-5.62131
-5.61725
-5.61292
-5.60829
-5.60334
-5.59806
-5.59242
-5.58643
-5.5801
-5.57343
-5.56645
-5.55917
-5.55159
-5.54371
-5.5355
-5.52686
-5.73353
-5.75369
-5.74963
-5.74856
-5.74771
-5.74613
-5.74415
-5.74206
-5.73992
-5.73772
-5.73548
-5.73319
-5.73085
-5.72844
-5.72597
-5.72343
-5.7208
-5.71809
-5.71528
-5.71237
-5.70935
-5.70623
-5.70299
-5.69963
-5.69615
-5.69253
-5.68878
-5.68488
-5.68082
-5.67659
-5.67218
-5.66755
-5.6627
-5.65761
-5.65225
-5.64663
-5.64075
-5.6346
-5.62821
-5.62159
-5.61476
-5.60773
-5.60051
-5.59305
-5.58522
-5.77378
-5.84926
-5.83363
-5.82213
-5.8175
-5.81453
-5.81165
-5.80887
-5.8062
-5.80358
-5.80096
-5.79834
-5.79568
-5.79297
-5.79019
-5.78735
-5.78441
-5.78138
-5.77825
-5.77501
-5.77165
-5.76817
-5.76456
-5.76082
-5.75696
-5.75295
-5.74881
-5.74453
-5.74011
-5.73554
-5.73081
-5.72593
-5.72088
-5.71566
-5.71026
-5.70468
-5.69894
-5.69304
-5.687
-5.68084
-5.67459
-5.66826
-5.66185
-5.65534
-5.64854
-5.74483
-5.98194
-5.93118
-5.89548
-5.88306
-5.87682
-5.87209
-5.86817
-5.86475
-5.86159
-5.85856
-5.85557
-5.8526
-5.84959
-5.84653
-5.8434
-5.84019
-5.83687
-5.83345
-5.82992
-5.82626
-5.82248
-5.81857
-5.81453
-5.81035
-5.80605
-5.80161
-5.79705
-5.79237
-5.78756
-5.78264
-5.77762
-5.7725
-5.76729
-5.762
-5.75665
-5.75126
-5.74584
-5.74041
-5.735
-5.72963
-5.72428
-5.71894
-5.7135
-5.70774
)
;

boundaryField
{
    leftWall
    {
        type            calculated;
        value           nonuniform List<scalar> 
42
(
-3.3595
-3.42794
-3.49532
-3.56153
-3.62675
-3.69107
-3.75456
-3.81728
-3.87928
-3.94065
-4.00145
-4.06176
-4.12167
-4.18122
-4.24048
-4.29949
-4.35829
-4.41692
-4.4754
-4.53375
-4.59202
-4.65023
-4.70842
-4.76662
-4.82488
-4.88325
-4.94177
-5.0005
-5.05949
-5.1188
-5.17847
-5.23855
-5.29904
-5.36002
-5.42169
-5.48386
-5.54546
-5.6059
-5.6684
-5.73353
-5.77378
-5.74483
)
;
    }
    rightWall
    {
        type            calculated;
        value           nonuniform List<scalar> 0();
    }
    lowerWall
    {
        type            calculated;
        value           nonuniform List<scalar> 0();
    }
    atmosphere
    {
        type            calculated;
        value           nonuniform List<scalar> 
45
(
-5.80784
-5.93226
-5.91845
-5.90949
-5.90316
-5.89809
-5.89382
-5.89005
-5.88661
-5.88336
-5.88023
-5.87713
-5.87403
-5.8709
-5.86771
-5.86445
-5.8611
-5.85765
-5.85408
-5.85041
-5.84661
-5.84269
-5.83864
-5.83446
-5.83016
-5.82574
-5.8212
-5.81654
-5.81178
-5.80692
-5.80199
-5.79698
-5.79192
-5.78684
-5.78174
-5.77666
-5.77162
-5.76665
-5.76179
-5.75708
-5.75255
-5.74824
-5.74421
-5.74052
-5.73723
)
;
    }
    defaultFaces
    {
        type            empty;
    }
    procBoundary2to0
    {
        type            processor;
        value           nonuniform List<scalar> 
46
(
-3.4869
-3.52289
-3.56233
-3.60521
-3.65163
-3.70164
-3.75521
-3.81219
-3.87229
-3.9351
-4.00009
-4.06666
-4.13419
-4.2022
-4.27045
-4.33903
-4.40852
-4.47994
-4.55473
-4.63451
-4.72077
-4.81441
-4.91529
-5.02298
-5.13501
-3.28993
-3.29234
-3.29417
-3.297
-3.30073
-3.30547
-3.3113
-3.31829
-3.32654
-3.33613
-3.34715
-3.35971
-3.37391
-3.38986
-3.40768
-3.42748
-3.44938
-3.47352
-3.5001
-3.52947
-3.52947
)
;
    }
    procBoundary2to3
    {
        type            processor;
        value           nonuniform List<scalar> 
43
(
-5.34242
-5.4367
-5.53043
-5.62226
-5.70992
-5.7919
-5.86681
-5.93348
-5.99081
-6.03757
-6.07229
-6.0933
-6.0996
-6.0905
-6.06567
-6.02519
-5.97011
-5.90248
-5.8252
-5.74194
-5.65692
-5.57404
-5.49628
-5.42568
-5.36368
-5.31134
-5.26933
-5.23793
-5.21714
-5.20657
-5.20551
-5.21322
-5.22916
-5.25288
-5.28375
-5.32096
-5.36363
-5.41099
-5.46246
-5.51762
-5.5768
-5.64121
-5.70119
)
;
    }
}


// ************************************************************************* //
