/*--------------------------------*- C++ -*----------------------------------*\
  =========                 |
  \\      /  F ield         | OpenFOAM: The Open Source CFD Toolbox
   \\    /   O peration     | Website:  https://openfoam.org
    \\  /    A nd           | Version:  9
     \\/     M anipulation  |
\*---------------------------------------------------------------------------*/
FoamFile
{
    format      ascii;
    class       surfaceScalarField;
    location    "0.4";
    object      phi;
}
// * * * * * * * * * * * * * * * * * * * * * * * * * * * * * * * * * * * * * //

dimensions      [0 3 -1 0 0 0 0];

internalField   nonuniform List<scalar> 
3742
(
1.14347e-05
-6.50099e-05
1.22036e-05
-6.39353e-05
1.30184e-05
-6.2871e-05
1.3891e-05
-6.18307e-05
1.4834e-05
-6.08303e-05
1.58616e-05
-5.98877e-05
1.69892e-05
-5.90226e-05
1.82333e-05
-5.82563e-05
1.96112e-05
-5.76108e-05
2.11417e-05
-5.71085e-05
2.28448e-05
-5.67715e-05
2.47418e-05
-5.662e-05
2.68558e-05
-5.66703e-05
2.92114e-05
-5.69323e-05
3.18347e-05
-5.74049e-05
3.47523e-05
-5.80714e-05
3.79902e-05
-5.88935e-05
4.15716e-05
-5.98043e-05
4.55139e-05
-6.07018e-05
4.98242e-05
-6.14437e-05
5.44935e-05
-6.18434e-05
5.94907e-05
-6.16715e-05
6.47566e-05
-6.06612e-05
7.0173e-05
-5.85232e-05
-5.49736e-05
2.07529e-07
-7.89668e-05
2.41176e-07
-8.18852e-05
3.64451e-07
-8.18154e-05
5.42634e-07
-8.12658e-05
7.69461e-07
-8.05567e-05
1.04145e-06
-7.9772e-05
1.35492e-06
-7.89449e-05
1.70578e-06
-7.80917e-05
2.08968e-06
-7.7221e-05
2.50222e-06
-7.63373e-05
2.93923e-06
-7.5442e-05
3.39697e-06
-7.45348e-05
3.87233e-06
-7.36142e-05
4.36311e-06
-7.26781e-05
4.86812e-06
-7.17244e-05
5.38734e-06
-7.07517e-05
5.92208e-06
-6.97595e-05
6.47519e-06
-6.8749e-05
7.05105e-06
-6.77234e-05
7.65488e-06
-6.66875e-05
8.29428e-06
-6.56493e-05
8.97745e-06
-6.46185e-05
9.71433e-06
-6.36078e-05
1.05157e-05
-6.26321e-05
1.13937e-05
-6.17083e-05
1.23613e-05
-6.08553e-05
1.34323e-05
-6.00937e-05
1.46216e-05
-5.94456e-05
1.59446e-05
-5.89338e-05
1.74179e-05
-5.85818e-05
1.9059e-05
-5.84126e-05
2.08869e-05
-5.84478e-05
2.29219e-05
-5.87054e-05
2.51863e-05
-5.91966e-05
2.77036e-05
-5.99222e-05
3.04987e-05
-6.08666e-05
3.35967e-05
-6.19914e-05
3.70207e-05
-6.32283e-05
4.07895e-05
-6.44706e-05
4.49128e-05
-6.5567e-05
4.93856e-05
-6.63162e-05
5.41804e-05
-6.64662e-05
5.92391e-05
-6.57198e-05
6.4461e-05
-6.37451e-05
-6.02202e-05
-9.44981e-09
-7.89574e-05
-8.10804e-08
-8.18136e-05
-1.01679e-07
-8.17948e-05
-7.66041e-08
-8.12909e-05
-6.56071e-09
-8.06267e-05
1.06617e-07
-7.98852e-05
2.60241e-07
-7.90985e-05
4.51111e-07
-7.82825e-05
6.7578e-07
-7.74457e-05
9.3076e-07
-7.65923e-05
1.21279e-06
-7.5724e-05
1.51902e-06
-7.4841e-05
1.84726e-06
-7.39424e-05
2.19611e-06
-7.30269e-05
2.56517e-06
-7.20935e-05
2.95512e-06
-7.11417e-05
3.36786e-06
-7.01723e-05
3.80662e-06
-6.91877e-05
4.27573e-06
-6.81925e-05
4.78119e-06
-6.71929e-05
5.32963e-06
-6.61978e-05
5.92914e-06
-6.5218e-05
6.58897e-06
-6.42677e-05
7.31925e-06
-6.33624e-05
8.13089e-06
-6.25199e-05
9.0355e-06
-6.17599e-05
1.00453e-05
-6.11035e-05
1.1173e-05
-6.05733e-05
1.24321e-05
-6.01928e-05
1.38365e-05
-5.99861e-05
1.5401e-05
-5.99771e-05
1.71416e-05
-6.01884e-05
1.90755e-05
-6.06393e-05
2.12216e-05
-6.13428e-05
2.36007e-05
-6.23013e-05
2.6235e-05
-6.35008e-05
2.91478e-05
-6.49042e-05
3.23618e-05
-6.64424e-05
3.58972e-05
-6.80059e-05
3.97668e-05
-6.94366e-05
4.39711e-05
-7.05205e-05
4.84899e-05
-7.0985e-05
5.32725e-05
-7.05024e-05
5.82274e-05
-6.87001e-05
-6.52022e-05
-1.6629e-07
-7.87911e-05
-3.61453e-07
-8.16184e-05
-5.20505e-07
-8.16357e-05
-6.38117e-07
-8.11733e-05
-7.13949e-07
-8.05509e-05
-7.48949e-07
-7.98502e-05
-7.44925e-07
-7.91025e-05
-7.04196e-07
-7.83233e-05
-6.29319e-07
-7.75206e-05
-5.22862e-07
-7.66987e-05
-3.87172e-07
-7.58597e-05
-2.24185e-07
-7.5004e-05
-3.52304e-08
-7.41314e-05
1.79119e-07
-7.32413e-05
4.19174e-07
-7.23335e-05
6.86253e-07
-7.14087e-05
9.82757e-07
-7.04688e-05
1.31221e-06
-6.95172e-05
1.67917e-06
-6.85594e-05
2.08924e-06
-6.7603e-05
2.54897e-06
-6.66575e-05
3.06623e-06
-6.57353e-05
3.64928e-06
-6.48507e-05
4.30719e-06
-6.40203e-05
5.04959e-06
-6.32623e-05
5.88653e-06
-6.25968e-05
6.82837e-06
-6.20453e-05
7.88573e-06
-6.16307e-05
9.0695e-06
-6.13766e-05
1.03909e-05
-6.13075e-05
1.18616e-05
-6.14478e-05
1.34942e-05
-6.1821e-05
1.53022e-05
-6.24473e-05
1.73009e-05
-6.33415e-05
1.95073e-05
-6.45076e-05
2.19404e-05
-6.5934e-05
2.46212e-05
-6.7585e-05
2.75715e-05
-6.93927e-05
3.08124e-05
-7.12468e-05
3.43606e-05
-7.29848e-05
3.82236e-05
-7.43835e-05
4.23916e-05
-7.5153e-05
4.6827e-05
-7.49378e-05
5.1454e-05
-7.33271e-05
-6.98912e-05
-2.95472e-07
-7.84957e-05
-6.08928e-07
-8.1305e-05
-8.93878e-07
-8.13508e-05
-1.14213e-06
-8.0925e-05
-1.35212e-06
-8.03409e-05
-1.52395e-06
-7.96784e-05
-1.65857e-06
-7.89679e-05
-1.75743e-06
-7.82244e-05
-1.8222e-06
-7.74558e-05
-1.85455e-06
-7.66664e-05
-1.85593e-06
-7.58583e-05
-1.8274e-06
-7.50326e-05
-1.76945e-06
-7.41893e-05
-1.6819e-06
-7.33288e-05
-1.56377e-06
-7.24516e-05
-1.41317e-06
-7.15593e-05
-1.2273e-06
-7.06546e-05
-1.00245e-06
-6.97421e-05
-7.33984e-07
-6.88279e-05
-4.16462e-07
-6.79205e-05
-4.34787e-08
-6.70305e-05
3.91886e-07
-6.61706e-05
8.97058e-07
-6.53559e-05
1.47993e-06
-6.46032e-05
2.14869e-06
-6.39311e-05
2.91167e-06
-6.33598e-05
3.77724e-06
-6.29109e-05
4.75367e-06
-6.26071e-05
5.84915e-06
-6.24721e-05
7.07183e-06
-6.25302e-05
8.43006e-06
-6.28061e-05
9.93259e-06
-6.33235e-05
1.1589e-05
-6.41038e-05
1.34102e-05
-6.51627e-05
1.54092e-05
-6.65066e-05
1.76011e-05
-6.81259e-05
2.0004e-05
-6.99879e-05
2.26384e-05
-7.20271e-05
2.55264e-05
-7.41348e-05
2.8689e-05
-7.61475e-05
3.21422e-05
-7.78367e-05
3.58895e-05
-7.89003e-05
3.99119e-05
-7.89602e-05
4.41552e-05
-7.75704e-05
-7.42499e-05
-4.01773e-07
-7.80939e-05
-8.23848e-07
-8.08829e-05
-1.22257e-06
-8.0952e-05
-1.58924e-06
-8.05584e-05
-1.92138e-06
-8.00088e-05
-2.21831e-06
-7.93814e-05
-2.48019e-06
-7.87061e-05
-2.70761e-06
-7.7997e-05
-2.90139e-06
-7.7262e-05
-3.06234e-06
-7.65054e-05
-3.19104e-06
-7.57296e-05
-3.28774e-06
-7.49359e-05
-3.35217e-06
-7.41249e-05
-3.38345e-06
-7.32975e-05
-3.38001e-06
-7.24551e-05
-3.33952e-06
-7.15998e-05
-3.25889e-06
-7.07353e-05
-3.13425e-06
-6.98667e-05
-2.96104e-06
-6.90011e-05
-2.73404e-06
-6.81475e-05
-2.4474e-06
-6.73171e-05
-2.09491e-06
-6.65231e-05
-1.67006e-06
-6.57807e-05
-1.1662e-06
-6.5107e-05
-5.76679e-07
-6.45206e-05
1.04952e-07
-6.40414e-05
8.84792e-07
-6.36908e-05
1.76854e-06
-6.34909e-05
2.76157e-06
-6.34651e-05
3.86894e-06
-6.36376e-05
5.09546e-06
-6.40326e-05
6.44586e-06
-6.46739e-05
7.92537e-06
-6.55833e-05
9.54038e-06
-6.67777e-05
1.12992e-05
-6.82653e-05
1.32127e-05
-7.00394e-05
1.52956e-05
-7.20708e-05
1.75666e-05
-7.42981e-05
2.00484e-05
-7.66166e-05
2.27667e-05
-7.88658e-05
2.57473e-05
-8.08172e-05
2.90098e-05
-8.21628e-05
3.25589e-05
-8.25093e-05
3.63705e-05
-8.1382e-05
-7.82537e-05
-4.90652e-07
-7.76032e-05
-1.00861e-06
-8.03649e-05
-1.50858e-06
-8.04521e-05
-1.9812e-06
-8.00858e-05
-2.42326e-06
-7.95667e-05
-2.83333e-06
-7.89714e-05
-3.21079e-06
-7.83286e-05
-3.55546e-06
-7.76523e-05
-3.86733e-06
-7.69501e-05
-4.14638e-06
-7.62264e-05
-4.39241e-06
-7.54836e-05
-4.6049e-06
-7.47234e-05
-4.7829e-06
-7.39469e-05
-4.92494e-06
-7.31555e-05
-5.02895e-06
-7.23511e-05
-5.09225e-06
-7.15365e-05
-5.11154e-06
-7.0716e-05
-5.08295e-06
-6.98953e-05
-5.00207e-06
-6.9082e-05
-4.86405e-06
-6.82855e-05
-4.66369e-06
-6.75175e-05
-4.39562e-06
-6.67912e-05
-4.05443e-06
-6.61219e-05
-3.63482e-06
-6.55266e-05
-3.13176e-06
-6.50236e-05
-2.54067e-06
-6.46325e-05
-1.85751e-06
-6.43739e-05
-1.07898e-06
-6.42694e-05
-2.02587e-07
-6.43415e-05
7.7325e-07
-6.46134e-05
1.84944e-06
-6.51088e-05
3.02665e-06
-6.58511e-05
4.30582e-06
-6.68625e-05
5.68861e-06
-6.81605e-05
7.17834e-06
-6.97551e-05
8.78127e-06
-7.16424e-05
1.05081e-05
-7.37976e-05
1.2375e-05
-7.6165e-05
1.44051e-05
-7.86467e-05
1.66285e-05
-8.10892e-05
1.90811e-05
-8.32698e-05
2.1801e-05
-8.48828e-05
2.48208e-05
-8.5529e-05
2.81548e-05
-8.4716e-05
-8.18794e-05
-5.65309e-07
-7.70379e-05
-1.16599e-06
-7.97643e-05
-1.75449e-06
-7.98636e-05
-2.32056e-06
-7.95197e-05
-2.86025e-06
-7.9027e-05
-3.37144e-06
-7.84602e-05
-3.85277e-06
-7.78473e-05
-4.3033e-06
-7.72018e-05
-4.72224e-06
-7.65312e-05
-5.10883e-06
-7.58398e-05
-5.46213e-06
-7.51303e-05
-5.78095e-06
-7.44045e-05
-6.06374e-06
-7.36641e-05
-6.30852e-06
-7.29107e-05
-6.51284e-06
-7.21467e-05
-6.67378e-06
-7.13756e-05
-6.78794e-06
-7.06018e-05
-6.85155e-06
-6.98317e-05
-6.86045e-06
-6.90731e-05
-6.8103e-06
-6.83357e-05
-6.69661e-06
-6.76312e-05
-6.51494e-06
-6.69728e-05
-6.26107e-06
-6.63758e-05
-5.9311e-06
-6.58566e-05
-5.52168e-06
-6.54331e-05
-5.03013e-06
-6.51241e-05
-4.45464e-06
-6.49494e-05
-3.79439e-06
-6.49297e-05
-3.04967e-06
-6.50862e-05
-2.22193e-06
-6.54412e-05
-1.31363e-06
-6.60171e-05
-3.28137e-07
-6.68366e-05
7.30711e-07
-6.79213e-05
1.85949e-06
-6.92893e-05
3.05646e-06
-7.0952e-05
4.323e-06
-7.29089e-05
5.66532e-06
-7.51399e-05
7.09664e-06
-7.75963e-05
8.6393e-06
-8.01894e-05
1.03268e-05
-8.27768e-05
1.2205e-05
-8.5148e-05
1.43304e-05
-8.70082e-05
1.67662e-05
-8.79648e-05
1.9571e-05
-8.75208e-05
-8.50899e-05
-6.27759e-07
-7.64102e-05
-1.29862e-06
-7.90934e-05
-1.96321e-06
-7.9199e-05
-2.61041e-06
-7.88725e-05
-3.23562e-06
-7.84018e-05
-3.83604e-06
-7.78598e-05
-4.40962e-06
-7.72737e-05
-4.95472e-06
-7.66567e-05
-5.46983e-06
-7.60161e-05
-5.95348e-06
-7.53561e-05
-6.4041e-06
-7.46797e-05
-6.81992e-06
-7.39887e-05
-7.19886e-06
-7.32851e-05
-7.53856e-06
-7.2571e-05
-7.83628e-06
-7.1849e-05
-8.08896e-06
-7.11229e-05
-8.29323e-06
-7.03975e-05
-8.44548e-06
-6.96794e-05
-8.54196e-06
-6.89766e-05
-8.57887e-06
-6.82988e-05
-8.55252e-06
-6.76575e-05
-8.45947e-06
-6.70659e-05
-8.2967e-06
-6.65386e-05
-8.06177e-06
-6.60915e-05
-7.75299e-06
-6.57418e-05
-7.36959e-06
-6.55075e-05
-6.9119e-06
-6.54071e-05
-6.38152e-06
-6.54601e-05
-5.78142e-06
-6.56863e-05
-5.11607e-06
-6.61065e-05
-4.39136e-06
-6.67418e-05
-3.61445e-06
-6.76136e-05
-2.79329e-06
-6.87425e-05
-1.93586e-06
-7.01467e-05
-1.04899e-06
-7.18389e-05
-1.36679e-07
-7.38212e-05
8.02187e-07
-7.60788e-05
1.77668e-06
-7.85708e-05
2.80721e-06
-8.12199e-05
3.92913e-06
-8.38987e-05
5.19602e-06
-8.64149e-05
6.68156e-06
-8.84938e-05
8.47835e-06
-8.97616e-05
1.06913e-05
-8.97337e-05
-8.7821e-05
-6.79471e-07
-7.57307e-05
-1.40886e-06
-7.8364e-05
-2.13767e-06
-7.84702e-05
-2.85415e-06
-7.8156e-05
-3.55314e-06
-7.77029e-05
-4.23123e-06
-7.71817e-05
-4.88575e-06
-7.66191e-05
-5.51438e-06
-7.60281e-05
-6.11498e-06
-7.54155e-05
-6.68547e-06
-7.47856e-05
-7.22371e-06
-7.41414e-05
-7.72741e-06
-7.3485e-05
-8.19412e-06
-7.28184e-05
-8.62116e-06
-7.21439e-05
-9.00563e-06
-7.14645e-05
-9.34443e-06
-7.07841e-05
-9.6343e-06
-7.01077e-05
-9.87191e-06
-6.94418e-05
-1.0054e-05
-6.87945e-05
-1.01773e-05
-6.81754e-05
-1.02391e-05
-6.75957e-05
-1.02369e-05
-6.70681e-05
-1.01689e-05
-6.66066e-05
-1.0034e-05
-6.62263e-05
-9.83233e-06
-6.59435e-05
-9.56482e-06
-6.5775e-05
-9.23385e-06
-6.57381e-05
-8.84328e-06
-6.58506e-05
-8.39859e-06
-6.6131e-05
-7.90705e-06
-6.65981e-05
-7.37766e-06
-6.72712e-05
-6.8211e-06
-6.81701e-05
-6.24926e-06
-6.93143e-05
-5.67462e-06
-7.07214e-05
-5.10894e-06
-7.24046e-05
-4.56154e-06
-7.43686e-05
-4.0366e-06
-7.66037e-05
-3.52983e-06
-7.90776e-05
-3.02414e-06
-8.17256e-05
-2.48475e-06
-8.44381e-05
-1.85378e-06
-8.70458e-05
-1.04514e-06
-8.93024e-05
5.84835e-08
-9.08652e-05
1.60387e-06
-9.12791e-05
-8.9974e-05
-7.21577e-07
-7.50091e-05
-1.49882e-06
-7.75868e-05
-2.28079e-06
-7.76882e-05
-3.05536e-06
-7.73815e-05
-3.81696e-06
-7.69413e-05
-4.56166e-06
-7.6437e-05
-5.28623e-06
-7.58946e-05
-5.98778e-06
-7.53265e-05
-6.66358e-06
-7.47397e-05
-7.31102e-06
-7.41382e-05
-7.92748e-06
-7.3525e-05
-8.51028e-06
-7.29022e-05
-9.05667e-06
-7.2272e-05
-9.56377e-06
-7.16368e-05
-1.00286e-05
-7.09997e-05
-1.04481e-05
-7.03645e-05
-1.08193e-05
-6.97365e-05
-1.11391e-05
-6.9122e-05
-1.14048e-05
-6.85288e-05
-1.1614e-05
-6.79663e-05
-1.17645e-05
-6.74452e-05
-1.18551e-05
-6.69775e-05
-1.1885e-05
-6.65766e-05
-1.18548e-05
-6.62566e-05
-1.17657e-05
-6.60326e-05
-1.16206e-05
-6.59201e-05
-1.14236e-05
-6.5935e-05
-1.11808e-05
-6.60935e-05
-1.08997e-05
-6.64121e-05
-1.05902e-05
-6.69076e-05
-1.0264e-05
-6.75974e-05
-9.9348e-06
-6.84993e-05
-9.61808e-06
-6.9631e-05
-9.33034e-06
-7.10091e-05
-9.08795e-06
-7.26469e-05
-8.90534e-06
-7.45512e-05
-8.7923e-06
-7.67167e-05
-8.75019e-06
-7.91197e-05
-8.76715e-06
-8.17086e-05
-8.81206e-06
-8.43932e-05
-8.82742e-06
-8.70305e-05
-8.72164e-06
-8.94082e-05
-8.36173e-06
-9.12251e-05
-7.56897e-06
-9.20718e-05
-9.14197e-05
-7.54995e-07
-7.42541e-05
-1.5704e-06
-7.67714e-05
-2.39536e-06
-7.68633e-05
-3.21767e-06
-7.65592e-05
-4.03144e-06
-7.61275e-05
-4.83236e-06
-7.5636e-05
-5.61669e-06
-7.51102e-05
-6.38104e-06
-7.45622e-05
-7.12221e-06
-7.39985e-05
-7.83714e-06
-7.34233e-05
-8.52283e-06
-7.28393e-05
-9.17631e-06
-7.22487e-05
-9.79461e-06
-7.16537e-05
-1.03748e-05
-7.10567e-05
-1.09138e-05
-7.04606e-05
-1.14088e-05
-6.98695e-05
-1.18571e-05
-6.92882e-05
-1.2256e-05
-6.8723e-05
-1.26034e-05
-6.81814e-05
-1.28975e-05
-6.76722e-05
-1.31371e-05
-6.72056e-05
-1.33219e-05
-6.67928e-05
-1.34523e-05
-6.64462e-05
-1.353e-05
-6.61789e-05
-1.35579e-05
-6.60048e-05
-1.35401e-05
-6.59378e-05
-1.34827e-05
-6.59925e-05
-1.33931e-05
-6.6183e-05
-1.32812e-05
-6.6524e-05
-1.31586e-05
-6.70302e-05
-1.30395e-05
-6.77166e-05
-1.294e-05
-6.85988e-05
-1.28787e-05
-6.96923e-05
-1.28754e-05
-7.10124e-05
-1.29506e-05
-7.25718e-05
-1.31234e-05
-7.43784e-05
-1.34092e-05
-7.6431e-05
-1.38154e-05
-7.87134e-05
-1.4337e-05
-8.11871e-05
-1.49491e-05
-8.37811e-05
-1.55996e-05
-8.63799e-05
-1.61992e-05
-8.88085e-05
-1.6611e-05
-9.08133e-05
-1.66409e-05
-9.2042e-05
-9.20266e-05
-7.80541e-07
-7.34736e-05
-1.62539e-06
-7.59265e-05
-2.48419e-06
-7.60045e-05
-3.3448e-06
-7.56986e-05
-4.20116e-06
-7.52711e-05
-5.04862e-06
-7.47886e-05
-5.88308e-06
-7.42758e-05
-6.70073e-06
-7.37445e-05
-7.49798e-06
-7.32012e-05
-8.27143e-06
-7.26498e-05
-9.0178e-06
-7.20929e-05
-9.73391e-06
-7.15326e-05
-1.04167e-05
-7.09709e-05
-1.10631e-05
-7.04102e-05
-1.16704e-05
-6.98533e-05
-1.22359e-05
-6.9304e-05
-1.2757e-05
-6.87671e-05
-1.32318e-05
-6.82482e-05
-1.36586e-05
-6.77546e-05
-1.40363e-05
-6.72945e-05
-1.43647e-05
-6.68772e-05
-1.46444e-05
-6.65132e-05
-1.48767e-05
-6.62138e-05
-1.50647e-05
-6.5991e-05
-1.52123e-05
-6.58572e-05
-1.53251e-05
-6.5825e-05
-1.54104e-05
-6.59071e-05
-1.54774e-05
-6.6116e-05
-1.55372e-05
-6.64642e-05
-1.56032e-05
-6.69642e-05
-1.56912e-05
-6.76285e-05
-1.58196e-05
-6.84704e-05
-1.6009e-05
-6.9503e-05
-1.6282e-05
-7.07394e-05
-1.66624e-05
-7.21913e-05
-1.71736e-05
-7.38672e-05
-1.78359e-05
-7.57686e-05
-1.86632e-05
-7.78861e-05
-1.96578e-05
-8.01925e-05
-2.08037e-05
-8.26352e-05
-2.20583e-05
-8.51254e-05
-2.33416e-05
-8.75252e-05
-2.4524e-05
-8.96309e-05
-2.54126e-05
-9.11534e-05
-9.16983e-05
-7.9904e-07
-7.26746e-05
-1.6656e-06
-7.506e-05
-2.55011e-06
-7.512e-05
-3.44055e-06
-7.48081e-05
-4.33078e-06
-7.43809e-05
-5.21594e-06
-7.39034e-05
-6.09162e-06
-7.34001e-05
-6.95372e-06
-7.28824e-05
-7.79835e-06
-7.23566e-05
-8.62187e-06
-7.18263e-05
-9.4208e-06
-7.1294e-05
-1.01919e-05
-7.07616e-05
-1.0932e-05
-7.02308e-05
-1.16382e-05
-6.9704e-05
-1.23079e-05
-6.91837e-05
-1.29386e-05
-6.86733e-05
-1.35284e-05
-6.81773e-05
-1.40755e-05
-6.77011e-05
-1.45791e-05
-6.72511e-05
-1.50387e-05
-6.68349e-05
-1.54548e-05
-6.6461e-05
-1.58289e-05
-6.6139e-05
-1.61636e-05
-6.58791e-05
-1.64625e-05
-6.5692e-05
-1.67309e-05
-6.55888e-05
-1.69755e-05
-6.55804e-05
-1.72047e-05
-6.56779e-05
-1.74288e-05
-6.5892e-05
-1.766e-05
-6.6233e-05
-1.7913e-05
-6.67112e-05
-1.82049e-05
-6.73367e-05
-1.85552e-05
-6.812e-05
-1.89863e-05
-6.90719e-05
-1.95227e-05
-7.0203e-05
-2.01907e-05
-7.15233e-05
-2.1017e-05
-7.3041e-05
-2.20263e-05
-7.47593e-05
-2.32386e-05
-7.66738e-05
-2.46641e-05
-7.87671e-05
-2.62967e-05
-8.10025e-05
-2.81065e-05
-8.33156e-05
-3.00285e-05
-8.56032e-05
-3.19497e-05
-8.77097e-05
-3.36931e-05
-8.941e-05
-9.03891e-05
-8.11381e-07
-7.18632e-05
-1.69293e-06
-7.41784e-05
-2.596e-06
-7.42169e-05
-3.50876e-06
-7.38953e-05
-4.42505e-06
-7.34646e-05
-5.33987e-06
-7.29886e-05
-6.24862e-06
-7.24913e-05
-7.14698e-06
-7.19841e-05
-8.0309e-06
-7.14727e-05
-8.89656e-06
-7.09607e-05
-9.74041e-06
-7.04502e-05
-1.05592e-05
-6.99428e-05
-1.13497e-05
-6.94402e-05
-1.21094e-05
-6.89443e-05
-1.28357e-05
-6.84574e-05
-1.35266e-05
-6.79825e-05
-1.41804e-05
-6.75235e-05
-1.4796e-05
-6.70854e-05
-1.53732e-05
-6.6674e-05
-1.59121e-05
-6.6296e-05
-1.6414e-05
-6.59591e-05
-1.68811e-05
-6.56719e-05
-1.73169e-05
-6.54433e-05
-1.77261e-05
-6.52829e-05
-1.81146e-05
-6.52003e-05
-1.849e-05
-6.52049e-05
-1.88618e-05
-6.53062e-05
-1.92409e-05
-6.55129e-05
-1.96405e-05
-6.58334e-05
-2.00759e-05
-6.62757e-05
-2.05649e-05
-6.68477e-05
-2.1128e-05
-6.7557e-05
-2.17881e-05
-6.84117e-05
-2.25711e-05
-6.942e-05
-2.35047e-05
-7.05897e-05
-2.46181e-05
-7.19276e-05
-2.59397e-05
-7.34377e-05
-2.74946e-05
-7.51189e-05
-2.93005e-05
-7.69612e-05
-3.13621e-05
-7.89409e-05
-3.36636e-05
-8.10141e-05
-3.61589e-05
-8.31079e-05
-3.87584e-05
-8.51102e-05
-4.13132e-05
-8.68552e-05
-8.81067e-05
-8.18547e-07
-7.10446e-05
-1.70934e-06
-7.32876e-05
-2.62481e-06
-7.33014e-05
-3.55332e-06
-7.29668e-05
-4.48873e-06
-7.25292e-05
-5.42598e-06
-7.20513e-05
-6.36039e-06
-7.15569e-05
-7.2875e-06
-7.1057e-05
-8.20319e-06
-7.0557e-05
-9.10359e-06
-7.00603e-05
-9.98513e-06
-6.95686e-05
-1.08446e-05
-6.90833e-05
-1.16791e-05
-6.86058e-05
-1.24859e-05
-6.81374e-05
-1.32631e-05
-6.76802e-05
-1.40088e-05
-6.72367e-05
-1.47219e-05
-6.68104e-05
-1.54018e-05
-6.64055e-05
-1.60487e-05
-6.60271e-05
-1.66635e-05
-6.56812e-05
-1.72481e-05
-6.53745e-05
-1.78056e-05
-6.51144e-05
-1.834e-05
-6.49089e-05
-1.88568e-05
-6.47661e-05
-1.93627e-05
-6.46943e-05
-1.98661e-05
-6.47016e-05
-2.03767e-05
-6.47956e-05
-2.09064e-05
-6.49833e-05
-2.14685e-05
-6.52713e-05
-2.20789e-05
-6.56654e-05
-2.27555e-05
-6.61711e-05
-2.35189e-05
-6.67936e-05
-2.43924e-05
-6.75382e-05
-2.54021e-05
-6.84103e-05
-2.65764e-05
-6.94153e-05
-2.79459e-05
-7.05581e-05
-2.95414e-05
-7.18422e-05
-3.13923e-05
-7.3268e-05
-3.35228e-05
-7.48306e-05
-3.5948e-05
-7.65157e-05
-3.86667e-05
-7.82954e-05
-4.16533e-05
-8.01213e-05
-4.4846e-05
-8.19174e-05
-4.81322e-05
-8.3569e-05
-8.491e-05
-8.21586e-07
-7.02231e-05
-1.71687e-06
-7.23924e-05
-2.63949e-06
-7.23788e-05
-3.57805e-06
-7.20283e-05
-4.52647e-06
-7.15807e-05
-5.4797e-06
-7.10981e-05
-6.43305e-06
-7.06036e-05
-7.38205e-06
-7.0108e-05
-8.32258e-06
-6.96165e-05
-9.25081e-06
-6.91321e-05
-1.01632e-05
-6.86562e-05
-1.10568e-05
-6.81898e-05
-1.19287e-05
-6.77339e-05
-1.27767e-05
-6.72894e-05
-1.35989e-05
-6.6858e-05
-1.4394e-05
-6.64416e-05
-1.51613e-05
-6.60432e-05
-1.59006e-05
-6.56662e-05
-1.66128e-05
-6.5315e-05
-1.72992e-05
-6.49947e-05
-1.79626e-05
-6.47111e-05
-1.86063e-05
-6.44706e-05
-1.92353e-05
-6.42799e-05
-1.98555e-05
-6.41459e-05
-2.04743e-05
-6.40756e-05
-2.11003e-05
-6.40756e-05
-2.17439e-05
-6.41519e-05
-2.24171e-05
-6.43101e-05
-2.31335e-05
-6.45549e-05
-2.39088e-05
-6.48901e-05
-2.47608e-05
-6.53191e-05
-2.57098e-05
-6.58447e-05
-2.67785e-05
-6.64695e-05
-2.79928e-05
-6.71961e-05
-2.93808e-05
-6.80273e-05
-3.09734e-05
-6.89655e-05
-3.28026e-05
-7.00129e-05
-3.49007e-05
-7.11699e-05
-3.72974e-05
-7.2434e-05
-4.00162e-05
-7.37969e-05
-4.30699e-05
-7.52418e-05
-4.6453e-05
-7.67383e-05
-5.01328e-05
-7.82376e-05
-5.40371e-05
-7.96648e-05
-8.09097e-05
-8.21559e-07
-6.94015e-05
-1.71752e-06
-7.14964e-05
-2.64292e-06
-7.14534e-05
-3.58663e-06
-7.10846e-05
-4.5427e-06
-7.06247e-05
-5.50619e-06
-7.01346e-05
-6.47244e-06
-6.96374e-05
-7.43708e-06
-6.91433e-05
-8.39607e-06
-6.86575e-05
-9.34568e-06
-6.81824e-05
-1.02826e-05
-6.77192e-05
-1.12039e-05
-6.72685e-05
-1.2107e-05
-6.68307e-05
-1.29901e-05
-6.64064e-05
-1.38515e-05
-6.59966e-05
-1.46903e-05
-6.56028e-05
-1.55063e-05
-6.52272e-05
-1.62997e-05
-6.48727e-05
-1.70719e-05
-6.45428e-05
-1.78249e-05
-6.42417e-05
-1.85617e-05
-6.39743e-05
-1.92866e-05
-6.37458e-05
-2.00046e-05
-6.35619e-05
-2.07223e-05
-6.34282e-05
-2.14474e-05
-6.33505e-05
-2.2189e-05
-6.3334e-05
-2.29575e-05
-6.33834e-05
-2.3765e-05
-6.35026e-05
-2.4625e-05
-6.36949e-05
-2.55529e-05
-6.39623e-05
-2.65658e-05
-6.43061e-05
-2.76834e-05
-6.47271e-05
-2.89275e-05
-6.52254e-05
-3.03226e-05
-6.58009e-05
-3.18962e-05
-6.64537e-05
-3.36781e-05
-6.71836e-05
-3.57005e-05
-6.79905e-05
-3.7997e-05
-6.88735e-05
-4.06005e-05
-6.98304e-05
-4.35414e-05
-7.08559e-05
-4.68437e-05
-7.19395e-05
-5.05197e-05
-7.30622e-05
-5.45638e-05
-7.41935e-05
-5.89426e-05
-7.5286e-05
-7.62691e-05
-8.19478e-07
-6.8582e-05
-1.71317e-06
-7.06027e-05
-2.63776e-06
-7.05288e-05
-3.58247e-06
-7.01398e-05
-4.54155e-06
-6.96656e-05
-5.51021e-06
-6.91659e-05
-6.48395e-06
-6.86636e-05
-7.45855e-06
-6.81687e-05
-8.43012e-06
-6.7686e-05
-9.39511e-06
-6.72174e-05
-1.03504e-05
-6.67639e-05
-1.12934e-05
-6.63256e-05
-1.22217e-05
-6.59023e-05
-1.31338e-05
-6.54943e-05
-1.40284e-05
-6.51019e-05
-1.49051e-05
-6.47262e-05
-1.57638e-05
-6.43685e-05
-1.66056e-05
-6.4031e-05
-1.74319e-05
-6.37165e-05
-1.82455e-05
-6.34282e-05
-1.90496e-05
-6.31701e-05
-1.9849e-05
-6.29465e-05
-2.06491e-05
-6.27617e-05
-2.14569e-05
-6.26205e-05
-2.22802e-05
-6.25272e-05
-2.31283e-05
-6.24859e-05
-2.40117e-05
-6.25e-05
-2.49422e-05
-6.25721e-05
-2.59331e-05
-6.2704e-05
-2.69991e-05
-6.28963e-05
-2.81567e-05
-6.31485e-05
-2.94243e-05
-6.34596e-05
-3.08223e-05
-6.38274e-05
-3.23737e-05
-6.42495e-05
-3.41041e-05
-6.47233e-05
-3.60418e-05
-6.52459e-05
-3.82177e-05
-6.58145e-05
-4.06649e-05
-6.64263e-05
-4.34178e-05
-6.70776e-05
-4.65105e-05
-6.77632e-05
-4.99748e-05
-6.84753e-05
-5.38364e-05
-6.92006e-05
-5.8111e-05
-6.99189e-05
-6.27982e-05
-7.05988e-05
-7.1195e-05
-8.16238e-07
-6.77658e-05
-1.70551e-06
-6.97134e-05
-2.62639e-06
-6.96079e-05
-3.56859e-06
-6.91976e-05
-4.52666e-06
-6.87075e-05
-5.49602e-06
-6.81966e-05
-6.47239e-06
-6.76872e-05
-7.45179e-06
-6.71893e-05
-8.43053e-06
-6.67072e-05
-9.40532e-06
-6.62426e-05
-1.03733e-05
-6.5796e-05
-1.1332e-05
-6.53668e-05
-1.22796e-05
-6.49547e-05
-1.32148e-05
-6.45592e-05
-1.41366e-05
-6.41801e-05
-1.50449e-05
-6.38178e-05
-1.59403e-05
-6.34731e-05
-1.6824e-05
-6.31473e-05
-1.7698e-05
-6.28425e-05
-1.85652e-05
-6.2561e-05
-1.94296e-05
-6.23058e-05
-2.02959e-05
-6.20802e-05
-2.117e-05
-6.18876e-05
-2.20589e-05
-6.17316e-05
-2.29708e-05
-6.16154e-05
-2.39147e-05
-6.15419e-05
-2.49012e-05
-6.15135e-05
-2.59417e-05
-6.15316e-05
-2.7049e-05
-6.15967e-05
-2.82371e-05
-6.17082e-05
-2.95213e-05
-6.18643e-05
-3.09188e-05
-6.20621e-05
-3.24484e-05
-6.22979e-05
-3.41309e-05
-6.2567e-05
-3.59897e-05
-6.28645e-05
-3.80506e-05
-6.3185e-05
-4.03421e-05
-6.3523e-05
-4.28953e-05
-6.3873e-05
-4.57438e-05
-6.42291e-05
-4.89225e-05
-6.45845e-05
-5.24667e-05
-6.49311e-05
-5.64099e-05
-6.52574e-05
-6.07813e-05
-6.55474e-05
-6.56024e-05
-6.57778e-05
-6.59154e-05
-8.12551e-07
-6.69533e-05
-1.69589e-06
-6.88301e-05
-2.61074e-06
-6.86931e-05
-3.54749e-06
-6.82609e-05
-4.50107e-06
-6.77539e-05
-5.46719e-06
-6.72305e-05
-6.44189e-06
-6.67125e-05
-7.42141e-06
-6.62098e-05
-8.40235e-06
-6.57263e-05
-9.38169e-06
-6.52633e-05
-1.03569e-05
-6.48208e-05
-1.13258e-05
-6.43979e-05
-1.22868e-05
-6.39936e-05
-1.3239e-05
-6.3607e-05
-1.41819e-05
-6.32373e-05
-1.51156e-05
-6.28841e-05
-1.60411e-05
-6.25476e-05
-1.69599e-05
-6.22285e-05
-1.78744e-05
-6.19279e-05
-1.87879e-05
-6.16475e-05
-1.97045e-05
-6.13892e-05
-2.06292e-05
-6.11555e-05
-2.1568e-05
-6.09488e-05
-2.25281e-05
-6.07715e-05
-2.35175e-05
-6.0626e-05
-2.45454e-05
-6.05141e-05
-2.56217e-05
-6.04372e-05
-2.67576e-05
-6.03956e-05
-2.79654e-05
-6.0389e-05
-2.92579e-05
-6.04156e-05
-3.06497e-05
-6.04725e-05
-3.21561e-05
-6.05557e-05
-3.37942e-05
-6.06598e-05
-3.55825e-05
-6.07787e-05
-3.75416e-05
-6.09054e-05
-3.96945e-05
-6.10322e-05
-4.20662e-05
-6.11512e-05
-4.46849e-05
-6.12544e-05
-4.75809e-05
-6.1333e-05
-5.07873e-05
-6.13782e-05
-5.43388e-05
-6.13796e-05
-5.82709e-05
-6.13253e-05
-6.26184e-05
-6.11999e-05
-6.74135e-05
-6.09827e-05
-6.06456e-05
-8.08884e-07
-6.61444e-05
-1.68525e-06
-6.79537e-05
-2.59223e-06
-6.77861e-05
-3.52107e-06
-6.7332e-05
-4.46717e-06
-6.68078e-05
-5.42662e-06
-6.6271e-05
-6.39575e-06
-6.57434e-05
-7.37115e-06
-6.52344e-05
-8.3497e-06
-6.47477e-05
-9.32871e-06
-6.42843e-05
-1.03059e-05
-6.38436e-05
-1.12795e-05
-6.34243e-05
-1.22483e-05
-6.30249e-05
-1.32116e-05
-6.26437e-05
-1.41693e-05
-6.22796e-05
-1.51219e-05
-6.19315e-05
-1.60707e-05
-6.15989e-05
-1.70175e-05
-6.12817e-05
-1.7965e-05
-6.09804e-05
-1.89167e-05
-6.06958e-05
-1.98769e-05
-6.04291e-05
-2.08507e-05
-6.01817e-05
-2.18442e-05
-5.99552e-05
-2.28645e-05
-5.97512e-05
-2.39195e-05
-5.9571e-05
-2.50181e-05
-5.94155e-05
-2.61699e-05
-5.92853e-05
-2.73857e-05
-5.91799e-05
-2.86767e-05
-5.9098e-05
-3.00553e-05
-5.9037e-05
-3.15344e-05
-5.89934e-05
-3.3128e-05
-5.89621e-05
-3.48512e-05
-5.89367e-05
-3.672e-05
-5.89098e-05
-3.87524e-05
-5.8873e-05
-4.09676e-05
-5.88169e-05
-4.33873e-05
-5.87316e-05
-4.60351e-05
-5.86066e-05
-4.89373e-05
-5.84308e-05
-5.21225e-05
-5.81929e-05
-5.56219e-05
-5.78802e-05
-5.94682e-05
-5.7479e-05
-6.3695e-05
-5.69731e-05
-6.83358e-05
-5.63419e-05
-5.55591e-05
-8.05415e-07
-6.5339e-05
-1.67406e-06
-6.70851e-05
-2.57169e-06
-6.68884e-05
-3.49056e-06
-6.64131e-05
-4.4266e-06
-6.58718e-05
-5.37635e-06
-6.53212e-05
-6.33647e-06
-6.47833e-05
-7.30388e-06
-6.4267e-05
-8.2758e-06
-6.37758e-05
-9.24986e-06
-6.33102e-05
-1.02241e-05
-6.28693e-05
-1.11972e-05
-6.24513e-05
-1.21681e-05
-6.20539e-05
-1.31366e-05
-6.16753e-05
-1.41028e-05
-6.13133e-05
-1.50678e-05
-6.09666e-05
-1.60328e-05
-6.06338e-05
-1.70002e-05
-6.03143e-05
-1.79728e-05
-6.00079e-05
-1.89542e-05
-5.97144e-05
-1.99488e-05
-5.94345e-05
-2.09619e-05
-5.91687e-05
-2.19994e-05
-5.89177e-05
-2.30683e-05
-5.86823e-05
-2.41762e-05
-5.8463e-05
-2.53317e-05
-5.826e-05
-2.65441e-05
-5.80729e-05
-2.78232e-05
-5.79007e-05
-2.91799e-05
-5.77413e-05
-3.06252e-05
-5.75917e-05
-3.2171e-05
-5.74476e-05
-3.38298e-05
-5.73033e-05
-3.56145e-05
-5.7152e-05
-3.75391e-05
-5.69852e-05
-3.96184e-05
-5.67937e-05
-4.18684e-05
-5.65669e-05
-4.43065e-05
-5.62934e-05
-4.6952e-05
-5.59611e-05
-4.98259e-05
-5.5557e-05
-5.29513e-05
-5.50674e-05
-5.63534e-05
-5.4478e-05
-6.00593e-05
-5.37732e-05
-6.40971e-05
-5.29354e-05
-6.84951e-05
-5.19438e-05
-5.07735e-05
-8.02034e-07
-6.45369e-05
-1.66234e-06
-6.62248e-05
-2.54936e-06
-6.60014e-05
-3.4565e-06
-6.5506e-05
-4.38027e-06
-6.4948e-05
-5.31764e-06
-6.43839e-05
-6.26564e-06
-6.38353e-05
-7.22154e-06
-6.33111e-05
-8.18289e-06
-6.28144e-05
-9.14766e-06
-6.23455e-05
-1.01143e-05
-6.19027e-05
-1.10816e-05
-6.14839e-05
-1.20492e-05
-6.10864e-05
-1.3017e-05
-6.07075e-05
-1.39855e-05
-6.03448e-05
-1.49561e-05
-5.99961e-05
-1.59303e-05
-5.96596e-05
-1.69106e-05
-5.9334e-05
-1.79001e-05
-5.90184e-05
-1.89024e-05
-5.87121e-05
-1.99221e-05
-5.84149e-05
-2.09642e-05
-5.81266e-05
-2.20347e-05
-5.78472e-05
-2.31401e-05
-5.75768e-05
-2.4288e-05
-5.73152e-05
-2.54862e-05
-5.70618e-05
-2.67437e-05
-5.68155e-05
-2.80695e-05
-5.65748e-05
-2.94737e-05
-5.63372e-05
-3.09664e-05
-5.6099e-05
-3.25582e-05
-5.58558e-05
-3.426e-05
-5.56015e-05
-3.60832e-05
-5.53288e-05
-3.80393e-05
-5.50291e-05
-4.01404e-05
-5.46926e-05
-4.23992e-05
-5.4308e-05
-4.48294e-05
-5.38633e-05
-4.74453e-05
-5.33451e-05
-5.02628e-05
-5.27395e-05
-5.3299e-05
-5.20313e-05
-5.65723e-05
-5.12047e-05
-6.01024e-05
-5.0243e-05
-6.39098e-05
-4.9128e-05
-6.80146e-05
-4.7839e-05
-4.63528e-05
-7.98366e-07
-6.37386e-05
-1.64965e-06
-6.53735e-05
-2.52494e-06
-6.51261e-05
-3.41878e-06
-6.46121e-05
-4.32833e-06
-6.40384e-05
-5.25095e-06
-6.34612e-05
-6.18403e-06
-6.29022e-05
-7.12516e-06
-6.23699e-05
-8.07225e-06
-6.18673e-05
-9.02358e-06
-6.13941e-05
-9.97795e-06
-6.09484e-05
-1.09346e-05
-6.05272e-05
-1.18934e-05
-6.01276e-05
-1.28547e-05
-5.97462e-05
-1.38193e-05
-5.93801e-05
-1.47887e-05
-5.90266e-05
-1.5765e-05
-5.86834e-05
-1.67506e-05
-5.83484e-05
-1.77487e-05
-5.80203e-05
-1.87631e-05
-5.76977e-05
-1.97982e-05
-5.73798e-05
-2.0859e-05
-5.70658e-05
-2.19512e-05
-5.6755e-05
-2.30811e-05
-5.64469e-05
-2.42557e-05
-5.61406e-05
-2.54825e-05
-5.5835e-05
-2.67697e-05
-5.55284e-05
-2.81256e-05
-5.52189e-05
-2.95594e-05
-5.49034e-05
-3.10803e-05
-5.45782e-05
-3.26977e-05
-5.42384e-05
-3.44211e-05
-5.38781e-05
-3.62601e-05
-5.34898e-05
-3.82243e-05
-5.30649e-05
-4.03234e-05
-5.25935e-05
-4.2567e-05
-5.20644e-05
-4.49652e-05
-5.14651e-05
-4.75281e-05
-5.07822e-05
-5.02665e-05
-5.0001e-05
-5.31917e-05
-4.91061e-05
-5.63155e-05
-4.80809e-05
-5.96502e-05
-4.69084e-05
-6.32078e-05
-4.55703e-05
-6.69997e-05
-4.40472e-05
-4.23177e-05
-7.93845e-07
-6.29447e-05
-1.63519e-06
-6.45321e-05
-2.49761e-06
-6.42637e-05
-3.37675e-06
-6.3733e-05
-4.27033e-06
-6.31448e-05
-5.17605e-06
-6.25555e-05
-6.09162e-06
-6.19866e-05
-7.01495e-06
-6.14466e-05
-7.94426e-06
-6.0938e-05
-8.87818e-06
-6.04602e-05
-9.81588e-06
-6.00107e-05
-1.0757e-05
-5.95861e-05
-1.17017e-05
-5.91829e-05
-1.26507e-05
-5.87972e-05
-1.36052e-05
-5.84257e-05
-1.45668e-05
-5.8065e-05
-1.55379e-05
-5.77123e-05
-1.65211e-05
-5.73653e-05
-1.75196e-05
-5.70218e-05
-1.85372e-05
-5.66801e-05
-1.95782e-05
-5.63388e-05
-2.06474e-05
-5.59965e-05
-2.17503e-05
-5.56522e-05
-2.28927e-05
-5.53045e-05
-2.40812e-05
-5.49522e-05
-2.53226e-05
-5.45935e-05
-2.66244e-05
-5.42266e-05
-2.79943e-05
-5.38489e-05
-2.94405e-05
-5.34572e-05
-3.09711e-05
-5.30476e-05
-3.25944e-05
-5.26151e-05
-3.43188e-05
-5.21537e-05
-3.61521e-05
-5.16564e-05
-3.81023e-05
-5.11147e-05
-4.01769e-05
-5.0519e-05
-4.2383e-05
-4.98583e-05
-4.47275e-05
-4.91207e-05
-4.72169e-05
-4.82928e-05
-4.98576e-05
-4.73603e-05
-5.26559e-05
-4.63078e-05
-5.56174e-05
-4.51193e-05
-5.87479e-05
-4.37779e-05
-6.2052e-05
-4.22662e-05
-6.55329e-05
-4.05662e-05
-3.86592e-05
-7.87799e-07
-6.21569e-05
-1.61794e-06
-6.3702e-05
-2.46623e-06
-6.34154e-05
-3.32931e-06
-6.28699e-05
-4.20528e-06
-6.22689e-05
-5.0921e-06
-6.16687e-05
-5.98774e-06
-6.10909e-05
-6.89036e-06
-6.0544e-05
-7.79847e-06
-6.00299e-05
-8.71111e-06