/*--------------------------------*- C++ -*----------------------------------*\
  =========                 |
  \\      /  F ield         | OpenFOAM: The Open Source CFD Toolbox
   \\    /   O peration     | Website:  https://openfoam.org
    \\  /    A nd           | Version:  9
     \\/     M anipulation  |
\*---------------------------------------------------------------------------*/
FoamFile
{
    format      ascii;
    class       volVectorField;
    location    "0.4";
    object      U;
}
// * * * * * * * * * * * * * * * * * * * * * * * * * * * * * * * * * * * * * //

dimensions      [0 1 -1 0 0 0 0];

internalField   nonuniform List<vector> 
1915
(
(0.114293 -0.697783 0)
(0.122026 -0.685982 0)
(0.130185 -0.67423 0)
(0.138874 -0.662676 0)
(0.148216 -0.651483 0)
(0.158357 -0.640841 0)
(0.169448 -0.630956 0)
(0.181653 -0.622052 0)
(0.195149 -0.61436 0)
(0.210123 -0.608118 0)
(0.226775 -0.603557 0)
(0.245319 -0.600888 0)
(0.265987 -0.600281 0)
(0.289025 -0.601833 0)
(0.314697 -0.605526 0)
(0.343274 -0.611177 0)
(0.37503 -0.618373 0)
(0.41022 -0.626404 0)
(0.449061 -0.6342 0)
(0.491686 -0.640272 0)
(0.538103 -0.64269 0)
(0.588126 -0.639093 0)
(0.641238 -0.626765 0)
(0.696856 -0.602918 0)
(0.753202 -0.564373 0)
(0.00123348 -0.851562 0)
(0.00223463 -0.883635 0)
(0.00291352 -0.88251 0)
(0.00450883 -0.876319 0)
(0.0065946 -0.86842 0)
(0.00915833 -0.859717 0)
(0.0121664 -0.850574 0)
(0.0155788 -0.841168 0)
(0.019352 -0.831594 0)
(0.0234407 -0.821901 0)
(0.0278003 -0.812103 0)
(0.0323898 -0.802194 0)
(0.0371737 -0.792154 0)
(0.0421243 -0.781958 0)
(0.0472238 -0.771576 0)
(0.052466 -0.760987 0)
(0.0578575 -0.75018 0)
(0.0634198 -0.739159 0)
(0.0691889 -0.727954 0)
(0.0752098 -0.716603 0)
(0.0815453 -0.705194 0)
(0.088293 -0.693813 0)
(0.0955424 -0.682598 0)
(0.103386 -0.671705 0)
(0.111949 -0.661309 0)
(0.12136 -0.651612 0)
(0.131755 -0.642829 0)
(0.143283 -0.635196 0)
(0.156098 -0.628954 0)
(0.170365 -0.624353 0)
(0.18626 -0.621636 0)
(0.20397 -0.621031 0)
(0.223697 -0.622722 0)
(0.24566 -0.626826 0)
(0.270092 -0.633341 0)
(0.297242 -0.642093 0)
(0.327363 -0.652667 0)
(0.360705 -0.664329 0)
(0.397486 -0.67595 0)
(0.437862 -0.685936 0)
(0.481876 -0.692187 0)
(0.529394 -0.692093 0)
(0.579937 -0.682601 0)
(0.632801 -0.660368 0)
(0.686918 -0.622331 0)
(-2.6207e-05 -0.852517 0)
(-0.000526797 -0.883414 0)
(-0.00107873 -0.883044 0)
(-0.00102764 -0.877386 0)
(-0.0005361 -0.86999 0)
(0.000400884 -0.861764 0)
(0.0017626 -0.853063 0)
(0.00351901 -0.84406 0)
(0.00563597 -0.834848 0)
(0.00807778 -0.825474 0)
(0.0108096 -0.815955 0)
(0.0138001 -0.80629 0)
(0.017023 -0.796465 0)
(0.02046 -0.786464 0)
(0.0241014 -0.77627 0)
(0.0279485 -0.765872 0)
(0.0320145 -0.755273 0)
(0.0363251 -0.744492 0)
(0.0409183 -0.73357 0)
(0.0458416 -0.722571 0)
(0.0511658 -0.71158 0)
(0.0569692 -0.700711 0)
(0.0633332 -0.690116 0)
(0.0703574 -0.679955 0)
(0.0781482 -0.670416 0)
(0.0868202 -0.661709 0)
(0.0964944 -0.654059 0)
(0.107298 -0.647709 0)
(0.119364 -0.642908 0)
(0.132833 -0.639914 0)
(0.14785 -0.638982 0)
(0.164574 -0.64035 0)
(0.183173 -0.64422 0)
(0.203831 -0.650723 0)
(0.226747 -0.659877 0)
(0.252136 -0.67152 0)
(0.280228 -0.685244 0)
(0.311256 -0.700302 0)
(0.34544 -0.715527 0)
(0.382958 -0.72924 0)
(0.423899 -0.739194 0)
(0.468194 -0.74255 0)
(0.515487 -0.735927 0)
(0.565092 -0.715502 0)
(0.615949 -0.677528 0)
(-0.000985872 -0.851368 0)
(-0.00283485 -0.882046 0)
(-0.00457775 -0.882054 0)
(-0.00593451 -0.876856 0)
(-0.00690011 -0.869926 0)
(-0.00745201 -0.862154 0)
(-0.00760156 -0.853882 0)
(-0.00736997 -0.845279 0)
(-0.00678219 -0.836434 0)
(-0.00586444 -0.827394 0)
(-0.00464191 -0.818179 0)
(-0.00313659 -0.808793 0)
(-0.00136531 -0.799228 0)
(0.000662044 -0.789476 0)
(0.00294394 -0.779529 0)
(0.00548836 -0.769391 0)
(0.00831391 -0.759074 0)
(0.0114501 -0.748613 0)
(0.0149371 -0.738058 0)
(0.0188258 -0.727488 0)
(0.0231789 -0.717 0)
(0.0280697 -0.706726 0)
(0.0335783 -0.696816 0)
(0.0397913 -0.687443 0)
(0.0468026 -0.678804 0)
(0.0547112 -0.671113 0)
(0.0636197 -0.664603 0)
(0.073634 -0.659519 0)
(0.084863 -0.656117 0)
(0.0974187 -0.654659 0)
(0.111418 -0.655407 0)
(0.126983 -0.65861 0)
(0.144247 -0.664483 0)
(0.163352 -0.673173 0)
(0.184458 -0.684718 0)
(0.207744 -0.698977 0)
(0.233404 -0.715554 0)
(0.261653 -0.733707 0)
(0.292709 -0.752246 0)
(0.32677 -0.769433 0)
(0.363979 -0.7829 0)
(0.404356 -0.789603 0)
(0.447683 -0.785846 0)
(0.493418 -0.767391 0)
(0.540617 -0.729874 0)
(-0.00166019 -0.848834 0)
(-0.00472263 -0.879267 0)
(-0.00762736 -0.879624 0)
(-0.0102387 -0.874847 0)
(-0.0125153 -0.86835 0)
(-0.0144137 -0.861004 0)
(-0.0159358 -0.853145 0)
(-0.017094 -0.844933 0)
(-0.0179044 -0.836458 0)
(-0.0183839 -0.827764 0)
(-0.0185486 -0.818875 0)
(-0.0184113 -0.809798 0)
(-0.0179802 -0.800534 0)
(-0.0172571 -0.791079 0)
(-0.0162363 -0.781438 0)
(-0.0149038 -0.771622 0)
(-0.0132362 -0.761657 0)
(-0.0112011 -0.751585 0)
(-0.00875716 -0.741472 0)
(-0.00585382 -0.731403 0)
(-0.00243148 -0.721489 0)
(0.00157679 -0.711865 0)
(0.00624199 -0.70269 0)
(0.0116398 -0.694145 0)
(0.0178504 -0.68643 0)
(0.0249559 -0.679764 0)
(0.0330395 -0.674379 0)
(0.0421845 -0.670522 0)
(0.0524738 -0.66845 0)
(0.0639902 -0.668427 0)
(0.0768175 -0.670719 0)
(0.0910423 -0.675581 0)
(0.106756 -0.683239 0)
(0.12406 -0.693857 0)
(0.143068 -0.707492 0)
(0.163914 -0.724028 0)
(0.186759 -0.743094 0)
(0.211791 -0.763967 0)
(0.239221 -0.785458 0)
(0.269274 -0.805799 0)
(0.302152 -0.82254 0)
(0.337981 -0.832473 0)
(0.376714 -0.831625 0)
(0.418009 -0.815356 0)
(0.46114 -0.778742 0)
(-0.00218532 -0.845026 0)
(-0.00628859 -0.87526 0)
(-0.0102389 -0.875899 0)
(-0.0139622 -0.871493 0)
(-0.0174053 -0.865389 0)
(-0.0205082 -0.85844 0)
(-0.0232634 -0.850971 0)
(-0.0256751 -0.84314 0)
(-0.027751 -0.83503 0)
(-0.0294992 -0.82669 0)
(-0.0309271 -0.818144 0)
(-0.0320392 -0.809402 0)
(-0.0328355 -0.800472 0)
(-0.0333108 -0.791358 0)
(-0.033453 -0.782072 0)
(-0.0332428 -0.772633 0)
(-0.0326536 -0.763077 0)
(-0.031651 -0.753457 0)
(-0.0301932 -0.743844 0)
(-0.0282315 -0.734334 0)
(-0.0257111 -0.725045 0)
(-0.0225722 -0.716117 0)
(-0.0187521 -0.707714 0)
(-0.0141862 -0.700019 0)
(-0.00880914 -0.693235 0)
(-0.00255642 -0.687579 0)
(0.00463438 -0.683284 0)
(0.0128209 -0.680591 0)
(0.0220589 -0.679757 0)
(0.0324026 -0.681042 0)
(0.0439025 -0.684713 0)
(0.0566073 -0.691028 0)
(0.0705659 -0.700219 0)
(0.0858335 -0.712465 0)
(0.102477 -0.727842 0)
(0.120584 -0.746263 0)
(0.140272 -0.767393 0)
(0.161701 -0.790543 0)
(0.185074 -0.814553 0)
(0.210637 -0.837667 0)
(0.238659 -0.8574 0)
(0.269387 -0.870444 0)
(0.302972 -0.872611 0)
(0.339341 -0.858914 0)
(0.378088 -0.82389 0)
(-0.00260237 -0.840171 0)
(-0.0075849 -0.870149 0)
(-0.0124445 -0.871012 0)
(-0.0171375 -0.866928 0)
(-0.0216048 -0.861176 0)
(-0.0257715 -0.85459 0)
(-0.0296213 -0.847487 0)
(-0.0331511 -0.840019 0)
(-0.0363603 -0.832269 0)
(-0.039249 -0.824284 0)
(-0.0418166 -0.816091 0)
(-0.0440598 -0.807705 0)
(-0.0459717 -0.799137 0)
(-0.0475405 -0.790398 0)
(-0.0487492 -0.781506 0)
(-0.0495743 -0.77249 0)
(-0.0499866 -0.763391 0)
(-0.0499509 -0.75427 0)
(-0.0494264 -0.745205 0)
(-0.0483675 -0.736298 0)
(-0.0467247 -0.72767 0)
(-0.0444462 -0.719467 0)
(-0.0414795 -0.711854 0)
(-0.0377724 -0.705013 0)
(-0.0332748 -0.699147 0)
(-0.0279401 -0.694468 0)
(-0.0217261 -0.691203 0)
(-0.0145961 -0.689591 0)
(-0.00652053 -0.68988 0)
(0.00252399 -0.692325 0)
(0.0125502 -0.697185 0)
(0.0235669 -0.704717 0)
(0.0355839 -0.715158 0)
(0.0486103 -0.728697 0)
(0.0626638 -0.745431 0)
(0.0777816 -0.765304 0)
(0.0940368 -0.788024 0)
(0.111554 -0.812954 0)
(0.130522 -0.838993 0)
(0.151207 -0.864438 0)
(0.17394 -0.886836 0)
(0.199099 -0.90285 0)
(0.227055 -0.908179 0)
(0.258058 -0.897571 0)
(0.292123 -0.865104 0)
(-0.00293439 -0.834438 0)
(-0.00865029 -0.864076 0)
(-0.0142804 -0.865103 0)
(-0.0198038 -0.861288 0)
(-0.025156 -0.855843 0)
(-0.0302489 -0.849584 0)
(-0.035058 -0.842819 0)
(-0.039573 -0.835695 0)
(-0.0437858 -0.828293 0)
(-0.0476892 -0.820661 0)
(-0.0512753 -0.812827 0)
(-0.0545339 -0.80481 0)
(-0.0574522 -0.796624 0)
(-0.0600129 -0.788286 0)
(-0.0621947 -0.77982 0)
(-0.0639715 -0.77126 0)
(-0.0653125 -0.762655 0)
(-0.0661826 -0.754068 0)
(-0.0665431 -0.745584 0)
(-0.0663525 -0.737308 0)
(-0.0655676 -0.729363 0)
(-0.0641454 -0.721896 0)
(-0.0620437 -0.715072 0)
(-0.0592238 -0.70907 0)
(-0.0556508 -0.704086 0)
(-0.051296 -0.70033 0)
(-0.0461375 -0.69802 0)
(-0.0401618 -0.697384 0)
(-0.0333645 -0.698659 0)
(-0.0257516 -0.702091 0)
(-0.017339 -0.70793 0)
(-0.00815323 -0.716428 0)
(0.00177123 -0.727818 0)
(0.0123945 -0.742296 0)
(0.0236828 -0.759977 0)
(0.0356255 -0.780838 0)
(0.0482481 -0.804637 0)
(0.0616356 -0.830808 0)
(0.0759559 -0.858337 0)
(0.0914813 -0.885617 0)
(0.108599 -0.910294 0)
(0.127811 -0.929103 0)
(0.149713 -0.93774 0)
(0.174911 -0.930823 0)
(0.203916 -0.902102 0)
(-0.00319669 -0.827967 0)
(-0.00951455 -0.85718 0)
(-0.0157828 -0.858306 0)
(-0.0220031 -0.854706 0)
(-0.0281064 -0.849523 0)
(-0.0339927 -0.843552 0)
(-0.0396303 -0.837093 0)
(-0.0450019 -0.83029 0)
(-0.050093 -0.823221 0)
(-0.0548894 -0.815935 0)
(-0.0593768 -0.80846 0)
(-0.0635394 -0.800818 0)
(-0.0673587 -0.793027 0)
(-0.0708137 -0.785109 0)
(-0.0738797 -0.77709 0)
(-0.0765288 -0.76901 0)
(-0.0787298 -0.760921 0)
(-0.0804489 -0.752891 0)
(-0.0816504 -0.745007 0)
(-0.0822976 -0.737374 0)
(-0.0823544 -0.730118 0)
(-0.0817865 -0.723381 0)
(-0.0805631 -0.717326 0)
(-0.0786583 -0.712128 0)
(-0.0760529 -0.707976 0)
(-0.0727353 -0.705069 0)
(-0.0687035 -0.703616 0)
(-0.0639657 -0.703832 0)
(-0.0585418 -0.705942 0)
(-0.0524647 -0.710176 0)
(-0.045781 -0.716771 0)
(-0.0385513 -0.725966 0)
(-0.0308487 -0.737989 0)
(-0.0227539 -0.753039 0)
(-0.0143463 -0.771247 0)
(-0.00568937 -0.792621 0)
(0.00319159 -0.816974 0)
(0.0123352 -0.84382 0)
(0.0218758 -0.872258 0)
(0.0320794 -0.900823 0)
(0.0433692 -0.927328 0)
(0.0563507 -0.948678 0)
(0.0718265 -0.960706 0)
(0.0907489 -0.958067 0)
(0.114159 -0.934366 0)
(-0.00340055 -0.820885 0)
(-0.010202 -0.849593 0)
(-0.0169861 -0.850755 0)
(-0.0237781 -0.847316 0)
(-0.0305058 -0.842345 0)
(-0.0370597 -0.836621 0)
(-0.0434011 -0.830434 0)
(-0.0495069 -0.823925 0)
(-0.0553563 -0.817171 0)
(-0.0609294 -0.810218 0)
(-0.0662063 -0.803097 0)
(-0.0711661 -0.79583 0)
(-0.0757864 -0.78844 0)
(-0.0800428 -0.780949 0)
(-0.0839087 -0.773389 0)
(-0.0873552 -0.765801 0)
(-0.0903519 -0.75824 0)
(-0.0928671 -0.750776 0)
(-0.0948687 -0.743496 0)
(-0.0963258 -0.736505 0)
(-0.0972095 -0.729925 0)
(-0.0974946 -0.723898 0)
(-0.0971613 -0.718577 0)
(-0.0961968 -0.714132 0)
(-0.0945962 -0.710742 0)
(-0.0923648 -0.708596 0)
(-0.0895187 -0.707888 0)
(-0.0860864 -0.70882 0)
(-0.0821101 -0.711599 0)
(-0.0776473 -0.716438 0)
(-0.0727721 -0.723556 0)
(-0.067576 -0.733178 0)
(-0.0621671 -0.74552 0)
(-0.0566657 -0.760776 0)
(-0.0511959 -0.779089 0)
(-0.0458689 -0.800495 0)
(-0.0407611 -0.824864 0)
(-0.0358828 -0.851801 0)
(-0.0311405 -0.880536 0)
(-0.0262942 -0.909787 0)
(-0.0209149 -0.937591 0)
(-0.0143333 -0.961118 0)
(-0.00558885 -0.976476 0)
(0.00656587 -0.978547 0)
(0.0236608 -0.96102 0)
(-0.00355461 -0.8133 0)
(-0.0107329 -0.841435 0)
(-0.017922 -0.842574 0)
(-0.0251705 -0.83924 0)
(-0.0324053 -0.834434 0)
(-0.0395091 -0.828914 0)
(-0.0464374 -0.822963 0)
(-0.0531619 -0.816719 0)
(-0.0596566 -0.810255 0)
(-0.0658963 -0.803619 0)
(-0.0718567 -0.79684 0)
(-0.0775129 -0.789943 0)
(-0.0828393 -0.78295 0)
(-0.0878094 -0.775887 0)
(-0.0923955 -0.768788 0)
(-0.0965689 -0.761693 0)
(-0.100301 -0.75466 0)
(-0.103562 -0.747758 0)
(-0.106325 -0.741072 0)
(-0.108565 -0.734706 0)
(-0.11026 -0.728779 0)
(-0.111395 -0.723423 0)
(-0.11196 -0.718787 0)
(-0.111955 -0.71503 0)
(-0.111388 -0.712321 0)
(-0.11028 -0.710834 0)
(-0.108664 -0.710749 0)
(-0.106586 -0.71225 0)
(-0.104107 -0.715526 0)
(-0.101307 -0.72077 0)
(-0.0982846 -0.72818 0)
(-0.0951567 -0.737961 0)
(-0.0920621 -0.750312 0)
(-0.0891558 -0.765421 0)
(-0.0866007 -0.783433 0)
(-0.0845528 -0.804409 0)
(-0.0831376 -0.828272 0)
(-0.0824183 -0.85472 0)
(-0.0823558 -0.883126 0)
(-0.082758 -0.91241 0)
(-0.0832261 -0.940883 0)
(-0.0830809 -0.966062 0)
(-0.0812814 -0.98445 0)
(-0.0763855 -0.991347 0)
(-0.0664708 -0.980767 0)
(-0.00366563 -0.805311 0)
(-0.0111244 -0.832818 0)
(-0.0186198 -0.833878 0)
(-0.0262208 -0.830598 0)
(-0.0338557 -0.825907 0)
(-0.0414012 -0.820547 0)
(-0.0488083 -0.814794 0)
(-0.0560441 -0.808782 0)
(-0.0630784 -0.802583 0)
(-0.0698818 -0.796242 0)
(-0.0764263 -0.789789 0)
(-0.0826841 -0.783249 0)
(-0.0886274 -0.776644 0)
(-0.0942286 -0.770001 0)
(-0.0994596 -0.763353 0)
(-0.104293 -0.756743 0)
(-0.108702 -0.750226 0)
(-0.112661 -0.743869 0)
(-0.116147 -0.737757 0)
(-0.119142 -0.731986 0)
(-0.121632 -0.726671 0)
(-0.123609 -0.721938 0)
(-0.125075 -0.717924 0)
(-0.126039 -0.714779 0)
(-0.126524 -0.712657 0)
(-0.126563 -0.711719 0)
(-0.126203 -0.712128 0)
(-0.125506 -0.714049 0)
(-0.12455 -0.71765 0)
(-0.123433 -0.723102 0)
(-0.122271 -0.73058 0)
(-0.121205 -0.740264 0)
(-0.120397 -0.752335 0)
(-0.12003 -0.766966 0)
(-0.1203 -0.784298 0)
(-0.121402 -0.804413 0)
(-0.123506 -0.827278 0)
(-0.126729 -0.85268 0)
(-0.131095 -0.880135 0)
(-0.136476 -0.908775 0)
(-0.14254 -0.937209 0)
(-0.148652 -0.963345 0)
(-0.15378 -0.98418 0)
(-0.156419 -0.99558 0)
(-0.154439 -0.992128 0)
(-0.00373943 -0.797007 0)
(-0.0113924 -0.823839 0)
(-0.0191073 -0.824771 0)
(-0.0269683 -0.821494 0)
(-0.0349072 -0.816871 0)
(-0.0427965 -0.811628 0)
(-0.0505835 -0.806035 0)
(-0.058232 -0.800221 0)
(-0.0657082 -0.794258 0)
(-0.0729798 -0.788188 0)
(-0.0800159 -0.78204 0)
(-0.0867867 -0.775838 0)
(-0.0932633 -0.769604 0)
(-0.0994177 -0.763364 0)
(-0.105222 -0.757151 0)
(-0.110652 -0.751007 0)
(-0.115682 -0.744983 0)
(-0.120291 -0.739145 0)
(-0.124462 -0.733572 0)
(-0.128181 -0.728356 0)
(-0.131444 -0.723603 0)
(-0.134249 -0.719431 0)
(-0.136609 -0.715967 0)
(-0.138543 -0.713347 0)
(-0.140084 -0.711713 0)
(-0.141277 -0.711208 0)
(-0.14218 -0.711979 0)
(-0.14287 -0.71417 0)
(-0.143436 -0.717928 0)
(-0.143991 -0.723399 0)
(-0.144666 -0.730734 0)
(-0.145617 -0.740087 0)
(-0.147026 -0.751615 0)
(-0.149096 -0.76547 0)
(-0.152047 -0.781787 0)
(-0.156106 -0.800655 0)
(-0.161482 -0.822078 0)
(-0.168345 -0.845923 0)
(-0.176781 -0.871837 0)
(-0.186744 -0.899162 0)
(-0.19799 -0.9268 0)
(-0.209978 -0.95307 0)
(-0.221769 -0.975504 0)
(-0.231919 -0.990636 0)
(-0.238277 -0.993791 0)
(-0.00378159 -0.788469 0)
(-0.0115521 -0.814587 0)
(-0.0194114 -0.815346 0)
(-0.0274517 -0.812025 0)
(-0.0356095 -0.807426 0)
(-0.0437549 -0.802257 0)
(-0.0518326 -0.796785 0)
(-0.059804 -0.791136 0)
(-0.0676328 -0.785377 0)
(-0.0752844 -0.779549 0)
(-0.0827264 -0.773681 0)
(-0.0899279 -0.767793 0)
(-0.0968595 -0.761907 0)
(-0.103494 -0.756048 0)
(-0.109804 -0.750245 0)
(-0.115768 -0.744538 0)
(-0.121364 -0.738976 0)
(-0.126575 -0.73362 0)
(-0.131389 -0.728543 0)
(-0.1358 -0.723831 0)
(-0.139807 -0.71958 0)
(-0.14342 -0.715899 0)
(-0.146657 -0.712904 0)
(-0.149548 -0.710717 0)
(-0.152134 -0.709466 0)
(-0.154471 -0.709277 0)
(-0.156626 -0.710277 0)
(-0.158685 -0.712593 0)
(-0.160748 -0.716348 0)
(-0.162936 -0.721663 0)
(-0.165392 -0.728663 0)
(-0.168284 -0.737474 0)
(-0.171802 -0.748227 0)
(-0.176166 -0.761051 0)
(-0.181612 -0.776064 0)
(-0.188387 -0.793356 0)
(-0.196734 -0.812958 0)
(-0.206868 -0.834797 0)
(-0.21894 -0.858639 0)
(-0.232987 -0.884011 0)
(-0.24887 -0.910095 0)
(-0.26618 -0.935603 0)
(-0.28413 -0.958606 0)
(-0.301446 -0.976339 0)
(-0.316124 -0.98497 0)
(-0.00379797 -0.779768 0)
(-0.0116189 -0.805141 0)
(-0.0195589 -0.805685 0)
(-0.0277089 -0.802278 0)
(-0.0360112 -0.79766 0)
(-0.0443351 -0.792526 0)
(-0.0526238 -0.787137 0)
(-0.060837 -0.781617 0)
(-0.0689371 -0.77603 0)
(-0.0768883 -0.770415 0)
(-0.0846572 -0.764797 0)
(-0.0922127 -0.759196 0)
(-0.0995259 -0.75363 0)
(-0.10657 -0.748122 0)
(-0.113322 -0.742698 0)
(-0.11976 -0.737393 0)
(-0.125867 -0.732254 0)
(-0.131631 -0.727334 0)
(-0.137045 -0.722702 0)
(-0.142107 -0.718434 0)
(-0.146825 -0.714619 0)
(-0.151214 -0.711353 0)
(-0.155301 -0.708741 0)
(-0.159123 -0.70689 0)
(-0.162729 -0.705914 0)
(-0.166181 -0.705923 0)
(-0.169555 -0.707025 0)
(-0.172943 -0.709326 0)
(-0.176453 -0.712927 0)
(-0.180211 -0.717926 0)
(-0.184366 -0.724421 0)
(-0.18909 -0.732509 0)
(-0.194582 -0.742292 0)
(-0.201066 -0.753872 0)
(-0.208786 -0.767347 0)
(-0.218003 -0.782798 0)
(-0.228984 -0.800268 0)
(-0.24198 -0.819731 0)
(-0.2572 -0.841046 0)
(-0.274761 -0.863897 0)
(-0.29464 -0.887709 0)
(-0.316575 -0.91155 0)
(-0.33998 -0.933993 0)
(-0.36382 -0.95295 0)
(-0.386381 -0.965463 0)
(-0.00379477 -0.770965 0)
(-0.0116089 -0.795566 0)
(-0.0195764 -0.795859 0)
(-0.0277766 -0.792329 0)
(-0.0361593 -0.787653 0)
(-0.0445938 -0.782516 0)
(-0.0530227 -0.777174 0)
(-0.0614053 -0.771749 0)
(-0.0697033 -0.766301 0)
(-0.0778806 -0.760868 0)
(-0.0859038 -0.755469 0)
(-0.0937423 -0.750123 0)
(-0.101368 -0.744845 0)
(-0.108757 -0.739653 0)
(-0.115887 -0.73457 0)
(-0.12274 -0.729627 0)
(-0.129304 -0.724865 0)
(-0.135569 -0.720331 0)
(-0.141534 -0.716086 0)
(-0.147204 -0.712198 0)
(-0.15259 -0.708746 0)
(-0.157716 -0.705814 0)
(-0.162614 -0.703495 0)
(-0.167327 -0.701884 0)
(-0.17191 -0.701076 0)
(-0.176432 -0.701167 0)
(-0.180973 -0.702248 0)
(-0.185629 -0.704404 0)
(-0.190513 -0.707715 0)
(-0.195753 -0.712255 0)
(-0.2015 -0.718097 0)
(-0.207927 -0.725309 0)
(-0.215231 -0.733964 0)
(-0.223636 -0.744134 0)
(-0.233389 -0.755893 0)
(-0.244754 -0.769304 0)
(-0.25801 -0.784411 0)
(-0.273436 -0.801214 0)
(-0.291286 -0.819639 0)
(-0.311753 -0.839491 0)
(-0.334921 -0.860396 0)
(-0.360683 -0.881716 0)
(-0.388676 -0.902461 0)
(-0.418153 -0.921145 0)
(-0.447787 -0.935634 0)
(-0.00377834 -0.762109 0)
(-0.0115382 -0.78592 0)
(-0.0194897 -0.78593 0)
(-0.0276904 -0.782242 0)
(-0.0360986 -0.777474 0)
(-0.0445847 -0.7723 0)
(-0.0530917 -0.766973 0)
(-0.0615792 -0.761609 0)
(-0.0700091 -0.756269 0)
(-0.0783457 -0.750984 0)
(-0.0865565 -0.745773 0)
(-0.0946121 -0.740648 0)
(-0.102486 -0.735621 0)
(-0.110157 -0.730707 0)
(-0.117604 -0.725925 0)
(-0.124815 -0.721299 0)
(-0.131778 -0.716863 0)
(-0.138491 -0.71266 0)
(-0.144956 -0.70874 0)
(-0.151182 -0.705164 0)
(-0.157188 -0.701999 0)
(-0.163001 -0.699319 0)
(-0.168658 -0.697204 0)
(-0.174209 -0.695734 0)
(-0.179713 -0.694991 0)
(-0.185241 -0.695055 0)
(-0.190878 -0.695999 0)
(-0.196723 -0.69789 0)
(-0.202887 -0.700788 0)
(-0.209501 -0.704746 0)
(-0.216711 -0.709809 0)
(-0.224689 -0.716022 0)
(-0.233627 -0.723427 0)
(-0.243741 -0.732066 0)
(-0.255271 -0.741984 0)
(-0.268478 -0.753222 0)
(-0.283644 -0.765813 0)
(-0.301062 -0.779764 0)
(-0.32102 -0.795041 0)
(-0.343769 -0.811533 0)
(-0.369486 -0.829009 0)
(-0.398215 -0.847065 0)
(-0.429808 -0.86505 0)
(-0.463826 -0.881976 0)
(-0.499384 -0.8964 0)
(-0.00375485 -0.753239 0)
(-0.0114226 -0.776249 0)
(-0.0193234 -0.77595 0)
(-0.0274835 -0.772075 0)
(-0.0358707 -0.767186 0)
(-0.0443576 -0.761945 0)
(-0.0528884 -0.756601 0)
(-0.0614236 -0.751269 0)
(-0.0699263 -0.746005 0)
(-0.0783619 -0.740836 0)
(-0.0866993 -0.735778 0)
(-0.0949108 -0.73084 0)
(-0.102973 -0.726028 0)
(-0.110864 -0.721351 0)
(-0.11857 -0.716825 0)
(-0.12608 -0.712467 0)
(-0.133386 -0.708305 0)
(-0.14049 -0.704374 0)
(-0.147398 -0.700716 0)
(-0.154125 -0.697381 0)
(-0.160693 -0.694428 0)
(-0.167134 -0.691918 0)
(-0.17349 -0.689917 0)
(-0.179812 -0.688496 0)
(-0.186165 -0.687719 0)
(-0.192621 -0.687652 0)
(-0.199268 -0.688353 0)
(-0.206202 -0.689871 0)
(-0.213536 -0.692249 0)
(-0.221396 -0.695518 0)
(-0.229926 -0.699702 0)
(-0.239289 -0.704821 0)
(-0.249667 -0.710888 0)
(-0.261265 -0.717917 0)
(-0.274312 -0.725922 0)
(-0.289055 -0.734917 0)
(-0.305771 -0.744914 0)
(-0.324753 -0.755914 0)
(-0.346306 -0.767895 0)
(-0.370721 -0.780793 0)
(-0.398248 -0.794471 0)
(-0.429054 -0.808678 0)
(-0.463184 -0.823011 0)
(-0.500485 -0.836842 0)
(-0.540503 -0.849242 0)
(-0.00372988 -0.744382 0)
(-0.0112765 -0.766587 0)
(-0.0190998 -0.765961 0)
(-0.0271859 -0.761877 0)
(-0.0355131 -0.756842 0)
(-0.0439574 -0.751508 0)
(-0.0524648 -0.746121 0)
(-0.0609975 -0.740792 0)
(-0.0695201 -0.735574 0)
(-0.078 -0.730491 0)
(-0.086408 -0.725553 0)
(-0.0947186 -0.720765 0)
(-0.10291 -0.71613 0)
(-0.110966 -0.71165 0)
(-0.118873 -0.707334 0)
(-0.126623 -0.703195 0)
(-0.134214 -0.699253 0)
(-0.141651 -0.695534 0)
(-0.148943 -0.692074 0)
(-0.156108 -0.688911 0)
(-0.163175 -0.686094 0)
(-0.170176 -0.683674 0)
(-0.177158 -0.681704 0)
(-0.184176 -0.680241 0)
(-0.191293 -0.679339 0)
(-0.198585 -0.679047 0)
(-0.206138 -0.679408 0)
(-0.214049 -0.680459 0)
(-0.222427 -0.682224 0)
(-0.231392 -0.684717 0)
(-0.241083 -0.687943 0)
(-0.251651 -0.691898 0)
(-0.263267 -0.696572 0)
(-0.276122 -0.701949 0)
(-0.290424 -0.708015 0)
(-0.306405 -0.714755 0)
(-0.324323 -0.722152 0)
(-0.344462 -0.73019 0)
(-0.367126 -0.738839 0)
(-0.392624 -0.748048 0)
(-0.421248 -0.757727 0)
(-0.453252 -0.767714 0)
(-0.488831 -0.777753 0)
(-0.528055 -0.787447 0)
(-0.570841 -0.796205 0)
(-0.00370803 -0.735556 0)
(-0.0111126 -0.756964 0)
(-0.018838 -0.755998 0)
(-0.0268234 -0.751689 0)
(-0.0350585 -0.746489 0)
(-0.0434232 -0.741042 0)
(-0.0518663 -0.735588 0)
(-0.0603522 -0.730237 0)
(-0.0688477 -0.725038 0)
(-0.0773226 -0.720011 0)
(-0.08575 -0.715162 0)
(-0.0941069 -0.71049 0)
(-0.102375 -0.705992 0)
(-0.110539 -0.701668 0)
(-0.11859 -0.697517 0)
(-0.126523 -0.693547 0)
(-0.13434 -0.689771 0)
(-0.142047 -0.686207 0)
(-0.14966 -0.682881 0)
(-0.157198 -0.679823 0)
(-0.164693 -0.677071 0)
(-0.172181 -0.674664 0)
(-0.179709 -0.672646 0)
(-0.187334 -0.67106 0)
(-0.195121 -0.669947 0)
(-0.203146 -0.669345 0)
(-0.211492 -0.669284 0)
(-0.220254 -0.669786 0)
(-0.229536 -0.670861 0)
(-0.239454 -0.672509 0)
(-0.250135 -0.674717 0)
(-0.261722 -0.677463 0)
(-0.27437 -0.680714 0)
(-0.288251 -0.684432 0)
(-0.303553 -0.688573 0)
(-0.320484 -0.693093 0)
(-0.339279 -0.697948 0)
(-0.360198 -0.703092 0)
(-0.38353 -0.708477 0)
(-0.409578 -0.714041 0)
(-0.438647 -0.719702 0)
(-0.471034 -0.725336 0)
(-0.50702 -0.730758 0)
(-0.546834 -0.735689 0)
(-0.590602 -0.73973 0)
(-0.0036926 -0.726769 0)
(-0.0109408 -0.747397 0)
(-0.0185536 -0.746089 0)
(-0.026417 -0.741545 0)
(-0.0345332 -0.736167 0)
(-0.0427872 -0.73059 0)
(-0.0511309 -0.725051 0)
(-0.0595314 -0.719657 0)
(-0.0679582 -0.714453 0)
(-0.0763835 -0.709454 0)
(-0.0847832 -0.704664 0)
(-0.0931371 -0.700075 0)
(-0.101429 -0.695679 0)
(-0.109649 -0.691469 0)
(-0.117788 -0.68744 0)
(-0.125847 -0.683591 0)
(-0.13383 -0.679929 0)
(-0.141746 -0.676463 0)
(-0.149613 -0.67321 0)
(-0.157455 -0.670194 0)
(-0.165302 -0.667439 0)
(-0.173196 -0.664976 0)
(-0.181184 -0.662837 0)
(-0.189323 -0.661054 0)
(-0.197678 -0.659657 0)
(-0.206322 -0.658671 0)
(-0.215338 -0.658116 0)
(-0.224815 -0.658 0)
(-0.234854 -0.658325 0)
(-0.245562 -0.659075 0)
(-0.257058 -0.660225 0)
(-0.269471 -0.661738 0)
(-0.282941 -0.663561 0)
(-0.297621 -0.665638 0)
(-0.313675 -0.6679 0)
(-0.331285 -0.670277 0)
(-0.350654 -0.672697 0)
(-0.372015 -0.675084 0)
(-0.395624 -0.677362 0)
(-0.421761 -0.679446 0)
(-0.450713 -0.68124 0)
(-0.48278 -0.682622 0)
(-0.518268 -0.683426 0)
(-0.557476 -0.683424 0)
(-0.600631 -0.682292 0)
(-0.0036852 -0.718021 0)
(-0.0107676 -0.737901 0)
(-0.018257 -0.736255 0)
(-0.025982 -0.731474 0)
(-0.0339577 -0.725911 0)
(-0.0420748 -0.720192 0)
(-0.050289 -0.714554 0)
(-0.0585703 -0.709099 0)
(-0.0668912 -0.703869 0)
(-0.0752267 -0.698876 0)
(-0.0835555 -0.694117 0)
(-0.0918605 -0.68958 0)
(-0.100129 -0.685252 0)
(-0.108352 -0.681119 0)
(-0.116526 -0.677169 0)
(-0.124654 -0.673396 0)
(-0.132742 -0.669798 0)
(-0.140803 -0.666377 0)
(-0.148857 -0.663143 0)
(-0.156929 -0.660107 0)
(-0.165052 -0.657288 0)
(-0.173268 -0.654706 0)
(-0.181624 -0.652382 0)
(-0.190177 -0.650337 0)
(-0.198991 -0.648592 0)
(-0.208137 -0.647161 0)
(-0.217693 -0.646053 0)
(-0.227745 -0.645268 0)
(-0.238387 -0.644795 0)
(-0.249719 -0.644612 0)
(-0.261849 -0.644681 0)
(-0.274894 -0.644953 0)
(-0.288978 -0.645365 0)
(-0.304233 -0.64584 0)
(-0.320801 -0.646294 0)
(-0.338835 -0.646636 0)
(-0.358505 -0.646766 0)
(-0.380008 -0.646583 0)
(-0.40356 -0.64598 0)
(-0.429402 -0.644847 0)
(-0.457786 -0.643061 0)
(-0.488976 -0.640484 0)
(-0.523259 -0.636947 0)
(-0.560931 -0.632232 0)
(-0.602232 -0.626044 0)
(-0.0036857 -0.709312 0)
(-0.010596 -0.728484 0)
(-0.0179544 -0.726516 0)
(-0.0255279 -0.7215 0)
(-0.0333454 -0.71575 0)
(-0.0413039 -0.709885 0)
(-0.0493628 -0.704137 0)
(-0.0574956 -0.698608 0)
(-0.0656775 -0.693335 0)
(-0.0738868 -0.688327 0)
(-0.0821051 -0.683576 0)
(-0.0903182 -0.679064 0)
(-0.0985162 -0.674772 0)
(-0.106694 -0.670681 0)
(-0.11485 -0.666772 0)
(-0.122991 -0.663033 0)
(-0.131124 -0.659453 0)
(-0.139266 -0.656029 0)
(-0.147438 -0.652761 0)
(-0.155666 -0.649654 0)
(-0.163986 -0.646716 0)
(-0.172437 -0.643958 0)
(-0.181068 -0.641393 0)
(-0.189933 -0.639033 0)
(-0.199094 -0.636886 0)
(-0.20862 -0.63496 0)
(-0.218584 -0.633255 0)
(-0.229068 -0.631761 0)
(-0.240157 -0.630461 0)
(-0.251944 -0.629323 0)
(-0.264528 -0.628305 0)
(-0.278012 -0.627347 0)
(-0.292505 -0.626377 0)
(-0.30812 -0.625309 0)
(-0.324975 -0.624045 0)
(-0.343196 -0.622477 0)
(-0.362921 -0.620487 0)
(-0.384305 -0.617953 0)
(-0.407524 -0.614742 0)
(-0.432769 -0.610717 0)
(-0.460242 -0.605732 0)
(-0.490158 -0.599628 0)
(-0.522747 -0.592223 0)
(-0.558255 -0.583294 0)
(-0.596898 -0.572566 0)
(-0.00369228 -0.700638 0)
(-0.0104253 -0.719155 0)
(-0.0176468 -0.716884 0)
(-0.0250586 -0.711644 0)
(-0.0327035 -0.705711 0)
(-0.0404851 -0.699697 0)
(-0.0483668 -0.693835 0)
(-0.0563253 -0.688222 0)
(-0.064339 -0.682895 0)
(-0.072389 -0.677856 0)
(-0.0804601 -0.673092 0)
(-0.088541 -0.668582 0)
(-0.096625 -0.664299 0)
(-0.10471 -0.660219 0)
(-0.112797 -0.656316 0)
(-0.120895 -0.652572 0)
(-0.129015 -0.648971 0)
(-0.137174 -0.6455 0)
(-0.145395 -0.642153 0)
(-0.153706 -0.638927 0)
(-0.162142 -0.635823 0)
(-0.170741 -0.632842 0)
(-0.179552 -0.629989 0)
(-0.188627 -0.627268 0)
(-0.198024 -0.62468 0)
(-0.207808 -0.622222 0)
(-0.218049 -0.619887 0)
(-0.228821 -0.61766 0)
(-0.240204 -0.615517 0)
(-0.252281 -0.61342 0)
(-0.265142 -0.611321 0)
(-0.278876 -0.609158 0)
(-0.29358 -0.606851 0)
(-0.309348 -0.60431 0)
(-0.326278 -0.601428 0)
(-0.344468 -0.598088 0)
(-0.364025 -0.594161 0)
(-0.385067 -0.589507 0)
(-0.407726 -0.583979 0)
(-0.432143 -0.57742 0)
(-0.458467 -0.569663 0)
(-0.486851 -0.560534 0)
(-0.517459 -0.549839 0)
(-0.550465 -0.537353 0)
(-0.586035 -0.522818 0)
(-0.00370178 -0.692002 0)
(-0.0102518 -0.709918 0)
(-0.0173311 -0.707373 0)
(-0.0245726 -0.701924 0)
(-0.0320331 -0.695815 0)
(-0.0396225 -0.689656 0)
(-0.0473082 -0.683679 0)
(-0.0550699 -0.677979 0)
(-0.062889 -0.672589 0)
(-0.0707495 -0.667508 0)
(-0.0786393 -0.662717 0)
(-0.0865503 -0.658189 0)
(-0.0944787 -0.653892 0)
(-0.102425 -0.649796 0)
(-0.110394 -0.64587 0)
(-0.118396 -0.642088 0)
(-0.126445 -0.638429 0)
(-0.134559 -0.634873 0)
(-0.142762 -0.631408 0)
(-0.151082 -0.628022 0)
(-0.159554 -0.624711 0)
(-0.168217 -0.621468 0)
(-0.177114 -0.618291 0)
(-0.186298 -0.615175 0)
(-0.195821 -0.612114 0)
(-0.205745 -0.6091 0)
(-0.216135 -0.606118 0)
(-0.227057 -0.603147 0)
(-0.238584 -0.600158 0)
(-0.250792 -0.597111 0)
(-0.263759 -0.593954 0)
(-0.277565 -0.590622 0)
(-0.292291 -0.587036 0)
(-0.308017 -0.583101 0)
(-0.324821 -0.578709 0)
(-0.34278 -0.573738 0)
(-0.361971 -0.568056 0)
(-0.38248 -0.561515 0)
(-0.404395 -0.553959 0)
(-0.427813 -0.545221 0)
(-0.45283 -0.535124 0)
(-0.479542 -0.523483 0)
(-0.508041 -0.510101 0)
(-0.538431 -0.494759 0)
(-0.570816 -0.477218 0)
(-0.00371027 -0.683408 0)
(-0.0100695 -0.700783 0)
(-0.0170009 -0.697995 0)
(-0.0240644 -0.692355 0)
(-0.0313304 -0.686083 0)
(-0.0387146 -0.679787 0)
(-0.0461879 -0.673699 0)
(-0.0537327 -0.667913 0)
(-0.0613332 -0.662457 0)
(-0.0689764 -0.657327 0)
(-0.076653 -0.652498 0)
(-0.0843583 -0.647938 0)
(-0.0920914 -0.643609 0)
(-0.0998559 -0.639475 0)
(-0.107659 -0.6355 0)
(-0.115514 -0.631653 0)
(-0.123435 -0.627904 0)
(-0.131443 -0.624231 0)
(-0.139562 -0.620614 0)
(-0.147821 -0.617036 0)
(-0.156253 -0.613485 0)
(-0.164895 -0.609949 0)
(-0.17379 -0.606419 0)
(-0.182984 -0.602884 0)
(-0.19253 -0.599331 0)
(-0.20248 -0.595747 0)
(-0.212896 -0.592111 0)
(-0.223837 -0.588398 0)
(-0.235369 -0.584575 0)
(-0.247557 -0.5806 0)
(-0.260472 -0.57642 0)
(-0.274181 -0.571969 0)
(-0.288755 -0.567169 0)
(-0.304259 -0.561927 0)
(-0.320754 -0.556137 0)
(-0.338299 -0.549679 0)
(-0.356948 -0.542419 0)
(-0.376756 -0.534212 0)
(-0.397778 -0.524901 0)
(-0.42007 -0.514316 0)
(-0.443682 -0.502281 0)
(-0.468659 -0.488608 0)
(-0.495034 -0.473107 0)
(-0.522847 -0.455572 0)
(-0.552138 -0.435788 0)
(-0.00371372 -0.67487 0)
(-0.00987075 -0.691761 0)
(-0.0166476 -0.688762 0)
(-0.0235256 -0.682952 0)
(-0.0305879 -0.676532 0)
(-0.0377555 -0.670111 0)
(-0.0450018 -0.663922 0)
(-0.0523114 -0.658055 0)
(-0.059671 -0.652536 0)
(-0.0670705 -0.647355 0)
(-0.0745038 -0.642483 0)
(-0.0819692 -0.637881 0)
(-0.0894691 -0.633507 0)
(-0.0970099 -0.629318 0)
(-0.104602 -0.625274 0)
(-0.112259 -0.621337 0)
(-0.12 -0.617475 0)
(-0.127844 -0.613657 0)
(-0.135816 -0.609861 0)
(-0.143946 -0.606064 0)
(-0.152264 -0.602247 0)
(-0.160807 -0.598395 0)
(-0.169614 -0.594492 0)
(-0.178728 -0.590522 0)
(-0.188195 -0.586468 0)
(-0.198067 -0.582311 0)
(-0.208394 -0.578025 0)
(-0.219233 -0.573584 0)
(-0.230639 -0.568951 0)
(-0.242671 -0.564082 0)
(-0.255388 -0.558925 0)
(-0.268849 -0.553416 0)
(-0.283112 -0.547477 0)
(-0.298231 -0.541022 0)
(-0.314253 -0.533948 0)
(-0.331222 -0.526141 0)
(-0.349172 -0.517473 0)
(-0.368136 -0.507805 0)
(-0.388141 -0.496986 0)
(-0.40921 -0.484853 0)
(-0.431358 -0.471235 0)
(-0.454587 -0.455955 0)
(-0.478885 -0.438831 0)
(-0.504243 -0.419677 0)
(-0.530639 -0.398306 0)
(-0.00370865 -0.666408 0)
(-0.00964772 -0.682869 0)
(-0.0162616 -0.679689 0)
(-0.022946 -0.67373 0)
(-0.0297962 -0.667181 0)
(-0.0367365 -0.66065 0)
(-0.0437421 -0.654372 0)
(-0.0507991 -0.648436 0)
(-0.0578964 -0.642861 0)
(-0.0650268 -0.637633 0)
(-0.0721875 -0.632718 0)
(-0.0793801 -0.628069 0)
(-0.0866102 -0.623641 0)
(-0.0938873 -0.619385 0)
(-0.101224 -0.615255 0)
(-0.108637 -0.611211 0)
(-0.116146 -0.607214 0)
(-0.123771 -0.603232 0)
(-0.131538 -0.599234 0)
(-0.139474 -0.595197 0)
(-0.14761 -0.591096 0)