/*--------------------------------*- C++ -*----------------------------------*\
  =========                 |
  \\      /  F ield         | OpenFOAM: The Open Source CFD Toolbox
   \\    /   O peration     | Website:  https://openfoam.org
    \\  /    A nd           | Version:  9
     \\/     M anipulation  |
\*---------------------------------------------------------------------------*/
FoamFile
{
    format      ascii;
    class       volVectorField;
    location    "600";
    object      U;
}
// * * * * * * * * * * * * * * * * * * * * * * * * * * * * * * * * * * * * * //

dimensions      [0 1 -1 0 0 0 0];

internalField   nonuniform List<vector> 
10720
(
(-0.899687 14.1149 1.54009e-17)
(-0.0130997 14.6782 -1.48934e-17)
(0.98755 15.1433 0)
(2.03428 15.3148 -2.12916e-16)
(3.06555 15.2735 2.42198e-16)
(4.03266 14.9207 1.51291e-16)
(4.86711 14.2134 1.90968e-16)
(5.51815 13.1692 0)
(5.91409 11.7798 0)
(5.98051 10.0786 0)
(5.65815 8.13449 3.63625e-17)
(4.9096 6.04273 0)
(3.76057 3.9536 1.08836e-15)
(2.32811 2.0726 0)
(0.832171 0.635718 0)
(-0.505679 -0.147919 0)
(-1.20823 -0.378944 -5.30633e-15)
(-1.65287 -0.478853 -6.20681e-15)
(-1.96292 -0.497178 4.98266e-15)
(-2.18761 -0.468285 0)
(-2.32613 -0.403321 4.08007e-15)
(-2.39831 -0.319351 -8.04132e-15)
(-2.42824 -0.235405 4.12021e-15)
(-2.42274 -0.162059 -1.24727e-16)
(-2.38738 -0.0987171 0)
(-2.31456 -0.0417365 1.97012e-15)
(-2.17558 0.00715808 3.2095e-17)
(-1.91986 0.038546 -1.061e-15)
(-1.50709 0.0391865 -4.63247e-15)
(-0.949365 0.0037697 -2.11397e-14)
(-0.330471 -0.048428 1.28657e-14)
(0.26604 -0.086945 2.60537e-14)
(0.49607 -0.0424432 2.69765e-14)
(0.0443082 0.0260549 1.13181e-13)
(-1.4054 0.289446 -2.90677e-14)
(-2.78584 0.539348 -1.31438e-16)
(-3.64511 0.642304 9.33693e-17)
(-3.61875 0.417164 3.74227e-14)
(-2.45335 0.165964 -2.65427e-14)
(-1.67903 13.4262 5.64243e-18)
(-2.40444 12.5644 8.58179e-18)
(-3.04911 11.5154 -9.20567e-18)
(-3.54248 10.1667 -2.56316e-18)
(-3.81083 8.691 -2.40886e-17)
(-3.8068 7.11688 1.06372e-16)
(-3.50697 5.53272 5.67965e-16)
(-2.92684 4.05178 3.1219e-16)
(-2.13202 2.76889 0)
(-1.21423 1.72926 0)
(-0.288013 0.949166 2.45585e-15)
(0.564301 0.357808 1.5003e-15)
(1.4107 -0.153969 -1.94418e-15)
(2.22885 -0.542963 1.3676e-15)
(2.97871 -0.812399 2.09054e-15)
(3.66094 -0.992773 1.28036e-15)
(4.28782 -1.11134 1.61893e-15)
(4.86982 -1.18558 1.07338e-15)
(5.41732 -1.22815 0)
(5.93959 -1.24489 0)
(6.4449 -1.23939 -1.58695e-15)
(6.93924 -1.21011 -8.16997e-17)
(7.42552 -1.15267 1.2421e-15)
(7.89503 -1.05605 -9.86986e-16)
(8.32504 -0.917574 7.5352e-18)
(8.70777 -0.750271 0)
(9.05091 -0.563684 2.92635e-16)
(9.35942 -0.363929 0)
(9.63559 -0.155523 0)
(9.88028 0.0575199 1.56603e-16)
(10.097 0.271151 0)
(10.2903 0.482225 -3.40277e-16)
(10.4653 0.688897 -4.3265e-16)
(10.6281 0.890177 -9.95258e-16)
(10.7841 1.08642 -3.01427e-17)
(10.945 1.28163 9.56181e-19)
(11.0968 1.47622 0)
(11.2831 1.70991 -2.51433e-15)
(11.3359 1.89532 -3.6965e-15)
(2.32836 12.6017 2.74139e-18)
(3.22071 13.0573 -6.09968e-18)
(4.24412 13.3922 0)
(5.3531 13.5736 0)
(6.45664 13.5894 -6.65032e-17)
(7.53506 13.5377 -1.38718e-16)
(8.5219 13.4093 0)
(9.35206 13.1948 0)
(9.98528 12.8899 2.03465e-16)
(10.3683 12.4486 0)
(10.4355 11.8008 6.04274e-16)
(10.0981 10.8361 0)
(9.25622 9.43618 1.93815e-16)
(7.83767 7.55102 -2.20224e-16)
(5.89607 5.31555 5.05627e-16)
(3.63628 3.08479 -1.38197e-15)
(1.52826 1.31152 2.16136e-15)
(-0.0396473 0.288998 3.08693e-15)
(-0.962012 -0.134535 3.18895e-15)
(-1.48363 -0.305646 1.82087e-16)
(-1.78081 -0.342358 -3.01402e-15)
(-1.966 -0.311582 2.95885e-15)
(-2.07899 -0.254158 -1.74235e-16)
(-2.13516 -0.195906 0)
(-2.14301 -0.144351 0)
(-2.10409 -0.0960322 0)
(-1.99321 -0.0510242 1.6499e-16)
(-1.75968 -0.0201477 -3.98468e-17)
(-1.36261 -0.0198296 2.58202e-15)
(-0.818066 -0.0564458 -3.90466e-18)
(-0.212325 -0.105998 3.39418e-18)
(0.324051 -0.122475 -6.56645e-17)
(0.553554 -0.0336149 9.57471e-15)
(0.0407373 0.113625 -1.77708e-14)
(-1.87638 0.45713 -1.02072e-16)
(-2.85045 0.61131 -1.68889e-14)
(-3.10332 0.649833 0)
(-2.39231 0.362347 -8.64259e-15)
(-1.56654 -0.0834349 -1.0289e-14)
(1.51411 12.0632 -3.90637e-18)
(0.752525 11.4151 -2.27027e-19)
(-0.012884 10.6048 -5.16524e-17)
(-0.699844 9.61099 5.28549e-17)
(-1.2359 8.45425 0)
(-1.57117 7.1706 -2.55635e-16)
(-1.66512 5.8221 -1.90224e-16)
(-1.49938 4.50262 -1.34452e-15)
(-1.09742 3.29699 5.71626e-16)
(-0.512616 2.26097 -8.36306e-16)
(0.180385 1.42703 1.7571e-15)
(0.914014 0.762938 -6.46959e-16)
(1.65769 0.230991 0)
(2.38797 -0.162646 -4.28483e-16)
(3.08354 -0.44356 4.76953e-18)
(3.73896 -0.642256 -9.5276e-16)
(4.35597 -0.780697 0)
(4.93859 -0.873376 0)
(5.49259 -0.932055 -1.03922e-16)
(6.02534 -0.961281 9.68703e-17)
(6.5431 -0.963721 -1.23132e-15)
(7.05126 -0.936361 -1.4204e-16)
(7.55189 -0.873661 6.40736e-17)
(8.03808 -0.763533 8.37033e-16)
(8.49124 -0.6094 -7.2318e-16)
(8.90203 -0.433358 -5.82472e-16)
(9.27511 -0.24517 0)
(9.61439 -0.0490139 0)
(9.92138 0.152255 0)
(10.1972 0.355439 3.15994e-18)
(10.4444 0.55699 0)
(10.6674 0.754621 0)
(10.8703 0.947144 7.44943e-16)
(11.0587 1.13418 3.40775e-16)
(11.2373 1.31771 2.34471e-17)
(11.4181 1.50258 -3.45902e-16)
(11.5884 1.69889 1.3597e-15)
(11.7891 1.90838 1.97218e-15)
(11.8548 2.13883 2.84482e-15)
(2.0698 11.6716 9.9087e-19)
(2.7053 12.0888 2.9278e-17)
(3.43393 12.4484 -2.31025e-17)
(4.2217 12.7217 -2.80702e-17)
(5.03433 12.8666 -8.50247e-17)
(5.85948 12.8705 2.75564e-16)
(6.67323 12.7413 -1.89387e-16)
(7.46887 12.5058 -1.80865e-16)
(8.24023 12.211 -1.07009e-17)
(8.96011 11.911 -1.90819e-16)
(9.59757 11.6422 1.39597e-16)
(10.1018 11.3834 -3.27444e-16)
(10.3584 11.0023 -1.36913e-16)
(10.1658 10.2401 0)
(9.28045 8.82878 -3.05231e-16)
(7.569 6.7389 6.88386e-16)
(5.21437 4.33129 0)
(2.7565 2.22459 -2.38955e-15)
(0.825369 0.874398 -1.73397e-15)
(-0.346086 0.222052 2.66656e-16)
(-1.01586 -0.0598911 -2.61055e-16)
(-1.41853 -0.156724 -1.22967e-16)
(-1.65393 -0.16536 -1.8184e-15)
(-1.78752 -0.146572 9.71642e-16)
(-1.85362 -0.123929 0)
(-1.86344 -0.10084 9.38987e-16)
(-1.79743 -0.0796186 -1.13683e-16)
(-1.60551 -0.0701183 0)
(-1.24752 -0.0865367 1.62061e-15)
(-0.742889 -0.13062 3.02456e-15)
(-0.180818 -0.172243 -5.49317e-15)
(0.299939 -0.15939 -4.97906e-15)
(0.472321 -0.00839871 -8.26288e-17)
(-0.0118804 0.22445 -9.51828e-15)
(-1.80173 0.552235 -8.14218e-15)
(-2.41964 0.566586 1.1104e-14)
(-2.52995 0.523966 0)
(-1.68602 0.160679 -5.37955e-15)
(-1.04831 -0.408267 1.21742e-14)
(1.51339 11.1889 2.69021e-19)
(0.993644 10.6169 -7.17424e-18)
(0.501504 9.89509 1.23418e-17)
(0.045489 9.03561 0)
(-0.310414 8.06301 7.80561e-17)
(-0.537357 6.99008 0)
(-0.606854 5.85626 5.58047e-16)
(-0.500953 4.72664 3.4832e-16)
(-0.223406 3.66122 4.52754e-16)
(0.201483 2.70335 0)
(0.731948 1.88662 -1.54222e-15)
(1.32856 1.21004 -4.05195e-16)
(1.96205 0.661246 1.77442e-15)
(2.60426 0.231506 0)
(3.23398 -0.0977708 -8.56488e-16)
(3.84163 -0.34704 -2.57109e-16)
(4.42439 -0.532511 1.11998e-15)
(4.98279 -0.666776 5.97442e-16)
(5.51986 -0.760134 1.74235e-16)
(6.0405 -0.818303 -8.72556e-17)
(6.54937 -0.844654 1.0488e-15)
(7.05034 -0.838275 0)
(7.5447 -0.795368 0)
(8.02662 -0.708569 5.59415e-18)
(8.48099 -0.581435 0)
(8.89895 -0.429883 1.09671e-15)
(9.28343 -0.260858 -1.53561e-17)
(9.63791 -0.0778509 -9.59892e-17)
(9.96393 0.115651 0)
(10.2625 0.31584 -1.23715e-16)
(10.5362 0.518512 1.94763e-16)
(10.7889 0.720979 0)
(11.0246 0.921663 -3.5902e-16)
(11.2482 1.11973 0)
(11.4631 1.31653 0)
(11.6793 1.51619 1.81643e-17)
(11.8849 1.72667 -4.11367e-17)
(12.1155 1.95215 -1.94411e-15)
(12.2303 2.20896 -5.42021e-15)
(3.05524 10.841 -1.23334e-19)
(3.63611 11.2116 3.1328e-18)
(4.29342 11.5333 -1.20951e-17)
(5.00646 11.776 -9.0546e-18)
(5.7436 11.9163 0)
(6.49402 11.95 0)
(7.22428 11.8777 -2.81783e-16)
(7.88642 11.709 3.21525e-16)
(8.4559 11.4613 0)
(8.93226 11.1652 -2.96295e-16)
(9.33168 10.8719 -3.29263e-16)
(9.69071 10.6517 -2.78263e-16)
(10.0459 10.5538 2.80686e-16)
(10.366 10.4965 2.42076e-16)
(10.4354 10.1636 0)
(9.85705 9.13063 3.49809e-16)
(8.3107 7.22572 1.33961e-16)
(5.91879 4.81261 1.3286e-15)
(3.32559 2.61413 1.1189e-16)
(1.27183 1.15184 -1.54206e-16)
(-0.0220576 0.404446 1.70931e-15)
(-0.766512 0.0812733 -2.89419e-16)
(-1.18686 -0.0404034 1.54129e-15)
(-1.42565 -0.0796049 7.03243e-16)
(-1.5607 -0.0909966 -4.3301e-17)
(-1.62635 -0.0939156 -6.331e-16)
(-1.61297 -0.0974805 5.05638e-18)
(-1.47188 -0.112278 -4.90221e-18)
(-1.16248 -0.149406 -1.14546e-15)
(-0.705509 -0.203493 -3.21498e-17)
(-0.192378 -0.235705 1.96553e-15)
(0.23526 -0.189073 -3.56802e-15)
(0.352121 0.0241495 -3.3846e-15)
(-0.0896353 0.338519 -4.86773e-17)
(-1.6205 0.623206 5.57645e-15)
(-2.09617 0.533957 0)
(-2.19378 0.434995 6.35088e-15)
(-1.26623 0.00684787 3.77598e-15)
(-0.708526 -0.675461 -4.30368e-15)
(2.53338 10.4222 -5.48638e-18)
(2.03587 9.93543 6.99655e-18)
(1.55295 9.32842 5.36718e-17)
(1.1012 8.59813 0)
(0.736229 7.76669 -7.16233e-17)
(0.480459 6.84194 0)
(0.357879 5.85475 -4.98845e-16)
(0.38452 4.86063 -2.06627e-17)
(0.55967 3.90843 3.8354e-16)
(0.866629 3.0322 5.08204e-16)
(1.2755 2.2592 2.00469e-17)
(1.75766 1.59567 1.17771e-15)
(2.28952 1.03919 -8.28815e-16)
(2.84668 0.585569 2.53186e-16)
(3.40987 0.224883 9.11829e-16)
(3.96766 -0.0571619 1.03654e-15)
(4.51383 -0.273651 -9.53703e-16)
(5.04566 -0.435842 -3.16683e-18)
(5.56344 -0.553267 0)
(6.06952 -0.632173 1.09753e-15)
(6.56681 -0.676074 5.87707e-17)
(7.05769 -0.685058 -9.14139e-16)
(7.54268 -0.656569 0)
(8.01651 -0.585435 4.58381e-18)
(8.46629 -0.473827 0)
(8.88325 -0.334559 -4.77078e-16)
(9.2687 -0.175556 0)
(9.6256 -0.00134786 8.57861e-17)
(9.95539 0.184065 -3.20517e-18)
(10.2592 0.376879 1.95296e-18)
(10.5395 0.572927 -1.67438e-16)
(10.8004 0.769652 -4.68081e-18)
(11.046 0.96558 0)
(11.2814 1.15999 1.76024e-16)
(11.5105 1.35424 1.47488e-18)
(11.7431 1.55239 2.82889e-16)
(11.9682 1.76261 -2.32478e-15)
(12.2172 1.98867 -5.53319e-18)
(12.3767 2.24942 0)
(3.44578 10.219 -1.59767e-18)
(3.92044 10.5619 3.13178e-18)
(4.46419 10.8744 -1.75486e-17)
(5.05311 11.1307 1.14105e-16)
(5.66168 11.3083 -3.30786e-17)
(6.28943 11.405 -8.51984e-17)
(6.90929 11.4147 1.26504e-16)
(7.50207 11.3346 0)
(8.06018 11.166 3.81236e-16)
(8.56007 10.9231 1.56364e-16)
(8.98473 10.6301 0)
(9.33444 10.3279 2.70948e-16)
(9.63871 10.0893 -1.22558e-16)
(9.96031 10.0032 3.23513e-16)
(10.3238 10.0495 0)
(10.5271 9.90698 -4.1338e-16)
(10.0764 9.03592 4.02845e-16)
(8.54414 7.19119 -1.29862e-17)
(6.07793 4.78623 0)
(3.44055 2.61597 8.4446e-16)
(1.37912 1.19107 -1.12338e-15)
(0.0953603 0.467582 -7.44177e-17)
(-0.622459 0.152313 -1.19705e-15)
(-1.02264 0.0190191 -1.04725e-15)
(-1.25067 -0.0405558 0)
(-1.38173 -0.0745934 0)
(-1.42731 -0.105485 -1.2404e-16)
(-1.34624 -0.147002 -1.45941e-17)
(-1.09494 -0.206793 8.90908e-16)
(-0.691888 -0.271665 -2.45514e-17)
(-0.230206 -0.293553 2.26326e-17)
(0.145948 -0.211016 2.62135e-15)
(0.21201 0.062481 0)
(-0.18916 0.445355 9.06245e-15)
(-1.45632 0.683924 -3.1761e-17)
(-1.88001 0.519054 0)
(-1.98913 0.368837 5.57981e-18)
(-1.02409 -0.111182 0)
(-0.481607 -0.891915 3.36133e-15)
(3.02134 9.83674 4.31207e-18)
(2.61887 9.40021 -3.25791e-17)
(2.2231 8.85917 4.19884e-17)
(1.84279 8.21377 7.5314e-17)
(1.52681 7.48675 -2.73993e-16)
(1.29178 6.67779 -3.74967e-16)
(1.15917 5.80949 4.37076e-16)
(1.14591 4.92854 -5.68662e-16)
(1.25515 4.07517 -3.57698e-16)
(1.47782 3.2765 -4.2952e-16)
(1.79399 2.55428 9.56477e-16)
(2.18317 1.9175 -9.58985e-16)
(2.62761 1.36909 -4.4355e-16)
(3.10766 0.907969 4.20684e-16)
(3.6067 0.529344 -9.75163e-16)
(4.11333 0.223425 1.73563e-16)
(4.61978 -0.0191797 0)
(5.12129 -0.207233 -7.48197e-16)
(5.61604 -0.348521 2.71339e-16)
(6.10431 -0.448912 -1.10127e-15)
(6.58734 -0.511753 0)
(7.06619 -0.537684 7.6653e-16)
(7.54048 -0.525065 6.3252e-16)
(8.00529 -0.470692 -5.44574e-16)
(8.44936 -0.376274 0)
(8.86403 -0.252327 -4.37281e-16)
(9.24919 -0.106869 0)
(9.60702 0.0555593 0)
(9.93866 0.231054 0)
(10.2451 0.415783 1.03635e-16)
(10.5287 0.605499 0)
(10.7934 0.797462 0)
(11.043 0.990021 -3.17329e-16)
(11.2828 1.18229 -1.5863e-16)
(11.5167 1.37556 0)
(11.7544 1.57349 2.24245e-16)
(11.9859 1.78424 3.16336e-17)
(12.24 2.00999 0)
(12.42 2.27234 2.14022e-15)
(3.94002 9.68024 1.99229e-18)
(4.3611 9.99511 -1.50091e-18)
(4.84232 10.2875 0)
(5.36284 10.5325 -6.07003e-19)
(5.90014 10.7116 -6.75015e-17)
(6.45848 10.8242 8.1213e-17)
(7.01531 10.8639 1.43277e-17)
(7.55174 10.831 -2.84534e-16)
(8.0496 10.7333 -3.53743e-17)
(8.49434 10.5799 3.2735e-16)
(8.87818 10.3804 -1.10461e-16)
(9.19861 10.1454 2.14683e-16)
(9.46088 9.89479 1.00817e-16)
(9.69442 9.68311 7.72019e-17)
(9.97386 9.61551 0)
(10.3504 9.71224 -9.32506e-17)
(10.5961 9.62388 -1.84459e-16)
(10.1146 8.73887 -7.27017e-16)
(8.44472 6.83283 2.53685e-16)
(5.86415 4.44064 -3.9044e-16)
(3.23683 2.38735 -8.40045e-17)
(1.28088 1.09858 0)
(0.109225 0.458788 9.16338e-16)
(-0.537569 0.171331 6.00927e-17)
(-0.902447 0.0364788 -2.75825e-17)
(-1.11853 -0.0387721 -3.81694e-16)
(-1.23096 -0.100882 8.61216e-17)
(-1.21696 -0.172006 1.88354e-16)
(-1.03313 -0.257007 -7.03875e-16)
(-0.690982 -0.333967 -3.9738e-17)
(-0.282925 -0.34547 1.23681e-15)
(0.042768 -0.22563 2.08295e-15)
(0.0634231 0.105509 0)
(-0.305452 0.543237 2.77996e-17)
(-1.33614 0.740687 -3.19051e-15)
(-1.7391 0.51626 0)
(-1.86207 0.31434 -7.39245e-15)
(-0.892589 -0.2093 0)
(-0.336399 -1.07214 -2.7316e-15)
(3.56109 9.33383 -4.26677e-18)
(3.20159 8.94309 1.61708e-17)
(2.84551 8.46084 0)
(2.50123 7.8855 0)
(2.21147 7.23999 1.2419e-16)
(1.98787 6.5209 6.53789e-16)
(1.84873 5.74607 0)
(1.80938 4.95671 -4.99158e-16)
(1.87333 4.18756 -6.11984e-16)
(2.03555 3.45899 7.57729e-16)
(2.28158 2.78796 -2.31146e-17)
(2.59646 2.18481 3.80531e-16)
(2.96726 1.65417 1.06175e-18)
(3.37903 1.19627 1.06738e-15)
(3.81815 0.809819 1.00202e-15)
(4.27448 0.488922 -9.54568e-16)
(4.74004 0.227393 1.4314e-16)
(5.2091 0.0188367 -2.67917e-16)
(5.67836 -0.142664 1.25081e-16)
(6.14648 -0.262042 7.717e-16)
(6.61322 -0.34231 1.0188e-16)
(7.07842 -0.384444 -8.40575e-17)
(7.54092 -0.387377 -5.32962e-16)
(7.99588 -0.349201 0)
(8.43326 -0.27144 2.76101e-17)
(8.84461 -0.162637 7.76224e-16)
(9.22856 -0.0304031 -5.00357e-18)
(9.58648 0.12061 4.85844e-18)
(9.9192 0.286396 0)
(10.2275 0.462923 -9.46209e-17)
(10.5135 0.645889 0)
(10.7807 0.832397 0)
(11.0331 1.02069 2.85127e-16)
(11.2756 1.20977 1.65973e-16)
(11.5121 1.40078 0)
(11.7519 1.59701 -2.03121e-16)
(11.9858 1.80649 1.79099e-15)
(12.2412 2.03027 -8.59109e-18)
(12.4296 2.29034 -1.9202e-15)
(4.32319 9.23745 -6.7735e-19)
(4.69024 9.53098 -2.60931e-18)
(5.11143 9.80949 -6.22499e-18)
(5.56628 10.0496 6.257e-18)
(6.03468 10.2346 4.35503e-17)
(6.52407 10.3665 0)
(7.0149 10.4385 -1.21918e-16)
(7.4914 10.4491 1.65573e-17)
(7.94726 10.4001 -1.1344e-16)
(8.36978 10.2972 -2.06358e-16)
(8.74891 10.1511 0)
(9.07822 9.97356 -3.94619e-16)
(9.35384 9.77361 -3.01081e-16)
(9.57876 9.55851 -6.66961e-16)
(9.77945 9.3715 0)
(10.0451 9.33331 -3.39906e-16)
(10.4403 9.46263 -3.20638e-16)
(10.6584 9.3309 3.23177e-16)
(9.99668 8.28745 -3.38224e-16)
(8.07601 6.25228 3.80986e-16)
(5.37505 3.90691 6.0581e-17)
(2.8459 2.04512 -6.95949e-16)
(1.09051 0.944796 0)
(0.0766354 0.407834 -8.63663e-16)
(-0.487147 0.155156 4.88369e-17)
(-0.820064 0.0197288 3.60633e-16)
(-1.01477 -0.0807414 0)
(-1.0745 -0.184797 -9.40122e-18)
(-0.966416 -0.298107 2.73193e-17)
(-0.692941 -0.389548 1.06423e-15)
(-0.341482 -0.391605 -9.81961e-16)
(-0.0659465 -0.233537 -1.74884e-15)
(-0.0869631 0.152185 1.61326e-15)
(-0.429168 0.63325 1.73524e-19)
(-1.2586 0.795031 2.5288e-15)
(-1.64783 0.521568 3.89453e-15)
(-1.78271 0.266174 3.01985e-15)
(-0.831707 -0.297394 -3.00749e-17)
(-0.253587 -1.22701 9.06732e-18)
(3.99212 8.91771 2.40719e-18)
(3.67801 8.56137 3.78374e-17)
(3.36381 8.12344 5.4593e-17)
(3.05628 7.60246 -9.37121e-17)
(2.79379 7.02136 -3.91521e-16)
(2.58513 6.37404 1.38934e-16)
(2.44634 5.67485 3.66524e-16)
(2.39194 4.96101 1.14567e-15)
(2.42533 4.26359 5.80687e-16)
(2.54386 3.5967 -6.40124e-16)
(2.73668 2.97439 -2.81729e-17)
(2.99269 2.40758 -3.43883e-16)
(3.30247 1.90022 0)
(3.65506 1.45319 -1.46796e-17)
(4.03975 1.06717 -6.00259e-16)
(4.44822 0.738844 2.76225e-16)
(4.87313 0.464545 -2.66075e-16)
(5.30853 0.240248 0)
(5.75042 0.0618254 4.41516e-16)
(6.19636 -0.0744703 -8.07469e-16)
(6.64489 -0.170993 0)
(7.09483 -0.22867 6.43532e-16)
(7.54433 -0.246937 0)
(7.98855 -0.224664 -2.96717e-17)
(8.41833 -0.163301 2.87167e-17)
(8.82533 -0.069727 -3.62573e-16)
(9.20724 0.0490098 -6.03929e-18)
(9.56463 0.188227 -4.55624e-18)
(9.89791 0.343801 1.60259e-18)
(10.2077 0.511656 -9.24215e-17)
(10.4957 0.687445 -1.42141e-16)
(10.7652 0.868186 2.05565e-16)
(11.0199 1.05196 5.40669e-18)
(11.2647 1.23765 8.85703e-18)
(11.5031 1.42622 0)
(11.7445 1.6206 -4.3927e-18)
(11.9796 1.82859 -7.91785e-16)
(12.2353 2.05035 3.75926e-18)
(12.4286 2.3071 -1.72412e-15)
(4.67995 8.85791 9.74295e-19)
(5.00757 9.13242 5.53122e-18)
(5.38402 9.39671 0)
(5.79003 9.62827 -1.03764e-17)
(6.20713 9.81233 1.69608e-17)
(6.64453 9.95242 0)
(7.08529 10.0416 -3.64355e-17)
(7.51634 10.0778 3.48008e-16)
(7.93233 10.0643 -4.54591e-16)
(8.32117 10.005 1.38732e-16)
(8.67605 9.9065 1.62893e-16)
(8.99369 9.77767 5.11792e-16)
(9.27161 9.6281 3.32187e-16)
(9.50918 9.46146 3.53384e-16)
(9.70546 9.27493 8.46535e-17)
(9.88544 9.11522 2.51959e-16)
(10.1624 9.12395 3.14372e-16)
(10.5783 9.26603 2.86694e-16)
(10.6759 8.98533 -2.10315e-16)
(9.69563 7.68344 -6.99162e-16)
(7.46296 5.51319 0)
(4.70857 3.28388 4.80424e-18)
(2.38191 1.67116 5.77878e-16)
(0.879166 0.773504 7.0931e-16)
(0.027781 0.335934 -4.28073e-17)
(-0.465897 0.111021 -3.19781e-16)
(-0.76641 -0.0405637 2.2531e-18)
(-0.910811 -0.182674 -1.49627e-16)
(-0.885282 -0.327906 1.57756e-17)
(-0.68884 -0.437144 -1.83903e-15)
(-0.398689 -0.431558 -4.64073e-19)
(-0.173018 -0.235018 -2.41767e-17)
(-0.232459 0.201714 -1.40823e-15)
(-0.550522 0.715529 2.8125e-20)
(-1.21455 0.846704 -2.08398e-15)
(-1.58885 0.532236 -6.52545e-15)
(-1.73376 0.222006 2.52189e-15)
(-0.81753 -0.380163 1.57782e-15)
(-0.219794 -1.36393 -2.06352e-15)
(4.38371 8.56148 -1.41263e-17)
(4.10289 8.23413 -5.42218e-17)
(3.82023 7.83311 -4.39788e-17)
(3.54169 7.35671 -1.06161e-16)
(3.30175 6.82791 2.28318e-16)
(3.10699 6.23892 -4.63924e-18)
(2.97137 5.60188 -1.02187e-15)
(2.90823 4.95104 -4.47395e-16)
(2.92088 4.31451 -8.28954e-18)
(3.00759 3.70177 0)
(3.15999 3.12463 -5.7948e-16)
(3.36949 2.59408 5.61519e-16)
(3.62921 2.11274 -5.533e-16)
(3.93124 1.6815 -2.8239e-16)
(4.26744 1.30192 2.56246e-16)
(4.63142 0.972263 2.49431e-16)
(5.01695 0.69083 9.41359e-16)
(5.4185 0.455484 -2.24386e-16)
(5.83193 0.263715 -4.08101e-16)
(6.25417 0.113011 0)
(6.68292 0.00179696 -6.66954e-16)
(7.11618 -0.0705679 -5.26863e-16)
(7.55153 -0.103643 -5.5101e-18)
(7.9841 -0.096844 -6.11267e-17)
(8.40528 -0.051489 -2.42114e-17)
(8.80692 0.0270254 3.78379e-16)
(9.18589 0.132191 -8.87868e-18)
(9.54203 0.259394 7.29482e-17)
(9.87534 0.404456 1.48722e-17)
(10.1861 0.563309 8.35863e-17)
(10.4758 0.731608 -2.79156e-18)
(10.7474 0.906253 -4.05427e-16)
(11.0043 1.0852 -2.68183e-16)
(11.2511 1.26719 -1.4985e-16)
(11.4913 1.45306 -1.27401e-18)
(11.7338 1.64533 -2.12743e-19)
(11.9701 1.85161 6.9307e-16)
(12.2256 2.07114 1.09366e-15)
(12.4231 2.32404 1.58438e-15)
(4.99573 8.53228 -3.8617e-18)
(5.28938 8.79059 -1.49982e-18)
(5.62747 9.04263 -3.5433e-18)
(5.99159 9.26674 -1.18075e-17)
(6.36475 9.44929 2.11356e-17)
(6.75709 9.59527 -4.90469e-17)
(7.15367 9.6979 1.64629e-16)
(7.54323 9.75477 0)
(7.92291 9.76876 1.41235e-16)
(8.28342 9.74132 -2.19646e-18)
(8.61874 9.67731 -1.40933e-16)
(8.92552 9.58361 -4.77196e-16)
(9.20096 9.46855 -1.72142e-16)
(9.44531 9.3401 0)
(9.65831 9.19605 0)
(9.83314 9.02675 0)
(10.0062 8.90079 0)
(10.3233 8.97134 -2.80492e-16)
(10.7323 9.07317 2.68483e-16)
(10.5822 8.53375 2.72233e-16)
(9.16978 6.9244 -2.56447e-16)
(6.65294 4.68138 2.73507e-16)
(3.96571 2.65203 -3.68611e-16)
(1.92639 1.3178 -3.37699e-17)
(0.683613 0.608982 -1.8211e-17)
(-0.032941 0.248988 3.04919e-16)
(-0.470044 0.0266479 6.66186e-17)
(-0.71676 -0.162298 0)
(-0.781477 -0.343767 0)
(-0.670098 -0.474961 -5.20432e-19)
(-0.447443 -0.46464 0)
(-0.272345 -0.230667 1.37408e-15)
(-0.365651 0.253227 -1.28201e-15)
(-0.66094 0.789821 -2.07642e-15)
(-1.19319 0.894929 3.47978e-15)
(-1.55034 0.546091 2.81302e-15)
(-1.70462 0.180604 -2.16627e-15)
(-0.835219 -0.459941 -2.7926e-15)
(-0.225423 -1.48807 1.85455e-15)
(4.72972 8.25528 0)
(4.47759 7.95181 1.57281e-17)
(4.22232 7.58119 8.05249e-17)
(3.96907 7.14162 -3.66361e-16)
(3.74937 6.65598 3.18643e-16)
(3.56794 6.11537 -2.57731e-16)
(3.43738 5.53021 -9.00223e-18)
(3.3697 4.93266 3.57408e-16)
(3.36844 4.34785 4.52292e-16)
(3.43197 3.78252 0)
(3.55341 3.24687 2.47607e-16)
(3.72613 2.75116 -7.48337e-16)
(3.94498 2.29678 1.23074e-15)
(4.20423 1.88429 2.35855e-16)
(4.49786 1.51539 -4.77056e-16)
(4.82124 1.18927 -4.56947e-16)
(5.16946 0.905476 -4.32821e-16)
(5.53779 0.663276 0)
(5.92235 0.461555 0)
(6.31989 0.299006 0)
(6.7276 0.174902 6.23037e-16)
(7.14293 0.0890242 0)
(7.56306 0.0418802 -4.35508e-16)
(7.98305 0.0337857 -5.73666e-17)
(8.3947 0.0637131 -3.85701e-16)
(8.78996 0.127344 -3.33996e-16)
(9.1651 0.218928 0)
(9.51923 0.333917 -6.06461e-17)
(9.85196 0.468229 -1.55118e-17)
(10.1633 0.617758 2.84015e-18)
(10.4543 0.778243 2.58906e-16)
(10.7277 0.946465 -4.88253e-18)
(10.9866 1.12029 2.57611e-16)
(11.2353 1.29832 -1.52474e-16)
(11.4772 1.48124 0)
(11.7207 1.6712 3.42343e-18)
(11.9579 1.87555 -3.01895e-17)
(12.2132 2.09274 -1.03564e-15)
(12.4148 2.34152 9.48766e-18)
(5.28366 8.24857 5.41504e-18)
(5.54931 8.49269 0)
(5.85574 8.73339 2.3212e-17)
(6.18536 8.94985 -7.92789e-18)
(6.52245 9.12933 -1.16275e-17)
(6.87764 9.27788 4.64219e-17)
(7.23742 9.38881 -7.00926e-17)
(7.5922 9.45978 -7.90581e-17)
(7.94029 9.49335 0)
(8.27386 9.49077 -1.30286e-16)
(8.58789 9.45525 -1.24989e-16)
(8.87999 9.39158 1.18099e-16)
(9.14754 9.30552 3.96966e-16)
(9.39029 9.2038 1.41908e-16)
(9.61024 9.09259 -4.0209e-16)
(9.80401 8.96142 -2.66014e-16)
(9.95919 8.8028 1.94072e-16)
(10.147 8.72828 1.29807e-16)
(10.5243 8.85623 -6.08429e-17)
(10.8456 8.82483 6.15414e-17)
(10.2967 7.9276 1.6311e-16)
(8.40992 6.0357 3.59111e-17)
(5.72138 3.8283 -4.4799e-17)
(3.23776 2.07227 -3.81064e-16)
(1.52673 1.01199 0)
(0.506836 0.453449 -2.53436e-16)
(-0.108325 0.130347 -1.22124e-16)
(-0.480417 -0.118582 -1.07436e-16)
(-0.647737 -0.342853 -3.82638e-16)
(-0.628802 -0.50094 1.48753e-15)
(-0.48066 -0.489912 6.47242e-16)
(-0.357458 -0.220905 1.64134e-17)
(-0.479369 0.305615 2.86214e-18)
(-0.753776 0.856209 0)
(-1.18435 0.939254 -1.50453e-15)
(-1.52378 0.561664 0)
(-1.68828 0.141333 0)
(-0.875257 -0.53784 1.25966e-15)
(-0.263248 -1.60299 -1.30611e-17)
(5.04254 7.98836 -1.81829e-17)
(4.81424 7.70532 6.23146e-17)
(4.58194 7.36049 -1.93185e-19)
(4.35036 6.95202 7.98314e-17)
(4.14845 6.50262 -3.07425e-16)
(3.97954 6.00277 2.43958e-16)
(3.85481 5.46152 2.43601e-17)
(3.78551 4.90963 -3.24115e-16)
(3.77485 4.36925 -3.71607e-16)
(3.82139 3.84537 -4.05387e-16)
(3.91916 3.34739 -8.3852e-16)
(4.06282 2.88441 0)
(4.2484 2.45677 -4.41412e-16)
(4.47169 2.0645 -1.23074e-17)
(4.72831 1.70917 0)
(5.01516 1.39027 -4.03298e-16)
(5.32864 1.10809 -1.93494e-16)
(5.66497 0.862799 -1.86724e-16)
(6.02086 0.654354 6.80668e-16)
(6.39319 0.482535 6.28671e-16)
(6.77899 0.347474 -7.00662e-17)
(7.17542 0.249417 5.2322e-16)
(7.57937 0.189111 1.18085e-16)
(7.98591 0.166884 -5.39512e-17)
(8.38712 0.181966 3.42235e-16)
(8.77502 0.231021 2.1079e-17)
(9.14539 0.309086 0)
(9.49674 0.41179 0)
(9.82825 0.535151 -2.80971e-18)
(10.1396 0.67511 7.25173e-18)
(10.4316 0.827495 -2.55025e-16)
(10.7064 0.988988 -4.63086e-18)
(10.967 1.15739 2.68083e-16)
(11.2175 1.33118 1.4452e-16)
(11.4609 1.51091 4.27708e-20)
(11.7054 1.69834 -3.07445e-18)
(11.9435 1.90055 -1.1517e-15)
(12.1984 2.11534 9.29092e-16)
(12.404 2.35989 -8.7572e-18)
(5.54622 7.99944 2.3994e-18)
(5.78798 8.23107 0)
(6.06743 8.4615 -1.43477e-17)
(6.36767 8.67066 0)
(6.67402 8.8466 -1.72179e-17)
(6.99741 8.99613 1.73672e-17)
(7.32545 9.11274 4.37235e-17)
(7.64991 9.19415 7.49772e-17)
(7.96966 9.24262 0)
(8.27882 9.25916 -8.76492e-17)
(8.57309 9.24568 1.34125e-16)
(8.85064 9.20579 -2.50422e-16)
(9.10892 9.1439 -1.29027e-16)
(9.34717 9.06444 -1.20429e-16)
(9.56617 8.97367 2.58925e-16)
(9.76892 8.87448 2.56707e-16)
(9.94396 8.74535 -2.53324e-16)
(10.0846 8.60193 -2.38458e-16)
(10.3206 8.60214 0)
(10.7438 8.74325 5.73955e-17)
(10.8323 8.45141 -1.12546e-16)
(9.75913 7.14979 2.91267e-17)
(7.45332 5.0724 -6.54283e-19)
(4.7644 3.02555 7.77301e-16)
(2.59073 1.57898 -5.19805e-17)
(1.18785 0.751142 2.87164e-17)
(0.337795 0.28356 1.1048e-16)
(-0.188032 -0.0445135 1.15364e-16)
(-0.475726 -0.321518 3.17506e-16)
(-0.55763 -0.512522 -6.58453e-16)
(-0.491198 -0.506175 -5.74835e-16)
(-0.42175 -0.206188 -2.40303e-15)
(-0.567494 0.357874 2.07446e-15)
(-0.823751 0.915178 -2.58709e-17)
(-1.17914 0.979488 1.33593e-15)
(-1.50265 0.577908 -5.04889e-17)
(-1.67963 0.103923 2.63279e-17)
(-0.931076 -0.614275 -1.79202e-17)
(-0.32776 -1.71104 1.60321e-15)
(5.32654 7.75385 9.75191e-18)
(5.11867 7.48828 -3.16749e-17)
(4.90625 7.16555 6.54275e-17)
(4.69359 6.78375 0)
(4.50751 6.36529 1.8553e-16)
(4.35026 5.90021 0)
(4.23181 5.39676 0)
(4.16279 4.88413 0)
(4.14597 4.38233 7.06865e-16)
(4.18 3.89496 -3.65452e-16)
(4.25967 3.43098 3.91388e-16)
(4.3803 2.99837 0)
(4.53876 2.59658 0)
(4.73195 2.22505 -3.91272e-16)
(4.95667 1.88507 0)
(5.21102 1.57609 3.73926e-16)
(5.49258 1.29859 8.06414e-18)
(5.79862 1.0534 0)
(6.12652 0.84123 -4.81956e-16)
(6.47359 0.662686 -7.39095e-16)
(6.83696 0.5186 -5.33504e-16)
(7.21372 0.409835 -4.88473e-16)
(7.60071 0.337447 8.72534e-16)
(7.99304 0.301939 0)
(8.38294 0.302866 3.24431e-16)
(8.76254 0.337829 3.23221e-16)
(9.12724 0.402546 1.31561e-16)
(9.47502 0.49297 0)
(9.80463 0.605234 -1.17942e-17)
(10.1154 0.7354 -7.73371e-17)
(10.4079 0.879399 2.43374e-16)
(10.6839 1.03389 -4.38475e-18)
(10.946 1.19658 -2.45892e-16)
(11.1979 1.36587 1.46393e-16)
(11.4428 1.54215 2.94402e-18)
(11.688 1.72683 2.48416e-19)
(11.927 1.92671 1.04291e-15)
(12.1815 2.13901 -8.70725e-16)
(12.3911 2.37913 -2.46325e-15)
(5.78787 7.77875 1.23472e-18)
(6.00916 7.99919 -7.88379e-18)
(6.26547 8.22022 0)
(6.54062 8.42236 -1.91858e-17)
(6.82082 8.5943 0)
(7.11705 8.74344 0)
(7.41784 8.86348 3.82587e-18)
(7.71598 8.95221 5.61676e-17)
(8.01096 9.01161 1.39995e-16)
(8.2981 9.04282 3.72545e-16)
(8.57355 9.04683 1.91462e-16)
(8.83618 9.02638 2.03544e-16)
(9.08375 8.98476 0)
(9.31556 8.92526 3.35512e-16)
(9.53122 8.85132 -1.10347e-16)
(9.73294 8.7697 0)
(9.92197 8.67513 2.22828e-16)
(10.0747 8.54011 2.3089e-16)
(10.2192 8.43328 0)
(10.5374 8.51817 2.09702e-16)
(10.9222 8.56968 -2.03906e-16)
(10.5989 7.89789 0)
(8.95609 6.22584 -3.06703e-17)
(6.3866 4.11306 1.36995e-17)
(3.8731 2.32485 2.1739e-17)
(2.04381 1.17135 3.85841e-16)
(0.892139 0.504515 -1.79958e-19)
(0.175667 0.0686616 -1.19863e-17)
(-0.2547 -0.274473 -9.92166e-18)
(-0.450193 -0.506917 1.90644e-17)
(-0.472353 -0.511985 5.84887e-16)
(-0.45873 -0.186839 2.20281e-15)
(-0.624932 0.409225 2.56649e-17)
(-0.866884 0.967363 -1.47477e-15)
(-1.17021 1.01586 -1.12306e-15)
(-1.48168 0.594294 -1.95963e-15)
(-1.67457 0.0683972 -1.57133e-15)
(-0.997809 -0.689238 3.37313e-17)
(-0.414488 -1.81369 -1.48751e-15)
(5.58653 7.54604 -2.29664e-17)
(5.39626 7.29574 -8.78302e-17)
(5.20114 6.99222 1.76397e-16)
(5.00513 6.63354 0)
(4.83317 6.24183 3.32022e-16)
(4.68675 5.80685 0)
(4.57476 5.33633 -2.33764e-16)
(4.50724 4.85767 1.08305e-15)
(4.4867 4.38951 -8.97809e-16)
(4.51148 3.93472 0)
(4.57719 3.50138 6.66911e-16)
(4.67953 3.09665 6.66461e-16)
(4.81593 2.7194 0)
(4.98396 2.36855 -6.80364e-16)
(5.18129 2.04489 1.70339e-16)
(5.40697 1.74761 -1.68075e-16)
(5.65958 1.47721 1.67369e-16)
(5.9373 1.23476 3.07931e-16)
(6.23832 1.02149 -5.03655e-18)
(6.56048 0.83859 3.98949e-16)
(6.90124 0.687527 1.28085e-16)
(7.25784 0.569662 -1.17075e-16)
(7.62725 0.486388 -4.10813e-16)
(8.00466 0.438549 3.65656e-16)
(8.38248 0.426136 -2.87747e-16)
(8.75288 0.447513 -3.25631e-16)
(9.11103 0.49915 -1.24997e-16)
(9.45445 0.577354 -1.56847e-18)
(9.78147 0.678449 1.27677e-17)
(10.0912 0.79866 7.37731e-17)
(10.3837 0.934047 2.11287e-18)
(10.6604 1.08128 -4.13599e-18)
(10.9237 1.23798 2.57176e-16)
(11.177 1.4025 -1.49265e-16)
(11.423 1.57507 4.59984e-19)
(11.669 1.75679 5.66122e-17)
(11.9087 1.95409 -4.88989e-16)
(12.1627 2.16387 0)
(12.3763 2.39963 2.37332e-15)
(6.01133 7.5818 4.37568e-18)
(6.2149 7.79222 0)
(6.45112 8.00457 0)
(6.70453 8.20004 3.05751e-17)
(6.96214 8.36781 -6.06358e-18)
(7.23484 8.51574 0)
(7.51196 8.63763 0)
(7.78704 8.73143 -1.79932e-16)
(8.06014 8.79899 -1.60069e-17)
(8.32725 8.84134 -1.75492e-17)
(8.58523 8.85907 -4.50056e-16)
(8.83344 8.85426 -1.09105e-16)
(9.06991 8.82931 1.91042e-16)
(9.29396 8.78691 -1.37829e-17)
(9.50518 8.72916 0)
(9.70336 8.65976 0)
(9.89307 8.58478 -6.26455e-16)
(10.0664 8.48426 -1.07231e-16)
(10.1959 8.3471 1.01045e-16)
(10.3839 8.31166 -2.05646e-16)
(10.7813 8.44359 3.89707e-16)
(10.9633 8.25964 1.91365e-16)
(10.0777 7.14664 -2.06873e-16)
(7.94062 5.22507 -2.77351e-16)
(5.31735 3.22913 5.45646e-17)
(3.09388 1.7378 -3.54019e-16)
(1.58186 0.815178 -4.41388e-17)
(0.626636 0.232891 1.09622e-17)
(0.0275758 -0.194806 -1.00465e-17)
(-0.299513 -0.48051 3.43946e-17)
(-0.417988 -0.505413 -2.78939e-18)
(-0.462875 -0.162863 -1.09552e-15)
(-0.647754 0.459379 -3.09e-17)
(-0.880453 1.01372 2.15599e-17)
(-1.15159 1.04888 0)
(-1.45642 0.61062 1.73883e-15)
(-1.66954 0.0349567 1.41071e-15)
(-1.07144 -0.762476 0)
(-0.519662 -1.91169 0)
(5.82598 7.36061 0)
(5.651 7.12378 8.22092e-17)
(5.47113 6.83714 -2.75402e-16)
(5.2899 6.49878 -1.31713e-16)
(5.13064 6.13046 -3.09685e-16)
(4.99418 5.72183 0)
(4.88865 5.28027 0)
(4.82345 4.83142 -4.93579e-16)
(4.80084 4.39287 5.4244e-16)
(4.81893 3.96712 0)
(4.87387 3.56136 -2.92827e-16)
(4.96168 3.18222 -3.14663e-16)
(5.08006 2.82809 3.07805e-16)
(5.22708 2.49731 3.21165e-16)
(5.40101 2.19025 -6.08898e-16)
(5.60156 1.90582 0)
(5.82811 1.64428 -1.45738e-16)
(6.07966 1.40678 3.46113e-18)
(6.35517 1.1947 6.6499e-16)
(6.65312 1.00963 -1.31655e-16)
(6.97143 0.853527 1.25647e-16)
(7.30765 0.728172 -1.02932e-16)
(7.65901 0.635336 1.45595e-16)