/*--------------------------------*- C++ -*----------------------------------*\
  =========                 |
  \\      /  F ield         | OpenFOAM: The Open Source CFD Toolbox
   \\    /   O peration     | Website:  https://openfoam.org
    \\  /    A nd           | Version:  9
     \\/     M anipulation  |
\*---------------------------------------------------------------------------*/
FoamFile
{
    format      ascii;
    class       volScalarField;
    location    "0.21";
    object      nut;
}
// * * * * * * * * * * * * * * * * * * * * * * * * * * * * * * * * * * * * * //

dimensions      [0 2 -1 0 0 0 0];

internalField   nonuniform List<scalar> 
12225
(
4.04768e-05
3.83178e-05
3.62504e-05
3.44199e-05
3.2952e-05
3.18976e-05
3.12561e-05
3.09936e-05
3.1058e-05
3.13899e-05
3.19309e-05
3.26271e-05
3.34321e-05
3.43074e-05
3.52237e-05
3.61567e-05
3.71113e-05
3.84935e-05
0.000281048
0.000209266
0.000176267
0.00015744
0.000146272
0.000139688
0.000135793
0.000133431
0.000131916
0.000130859
0.000130044
0.000129358
0.00012874
0.000128162
0.000127623
0.00012708
0.000126684
0.000125736
0.000556048
0.000419908
0.000349816
0.000304738
0.00027245
0.000247987
0.000228771
0.000213307
0.00020068
0.00019028
0.000181666
0.0001745
0.000168512
0.000163481
0.000159233
0.000155583
0.000152444
0.000149384
0.000740308
0.000625822
0.000544118
0.000485001
0.000439774
0.000403655
0.000373848
0.000348614
0.000326865
0.000307906
0.00029126
0.000276584
0.000263605
0.000252094
0.000241856
0.000232675
0.000224394
0.000216733
0.000817069
0.000759142
0.000700546
0.000648579
0.0006039
0.000565589
0.00053248
0.000503523
0.000477891
0.000454976
0.000434332
0.000415625
0.000398597
0.000383036
0.000368764
0.000355596
0.000343389
0.000332048
0.0008421
0.000819688
0.000789925
0.000757607
0.000725556
0.000695168
0.000666972
0.000641025
0.000617186
0.000595253
0.000575023
0.000556308
0.000538945
0.000522788
0.000507705
0.000493568
0.000480275
0.000467874
0.000849261
0.000841808
0.000829742
0.000814189
0.000796482
0.000777764
0.000758853
0.000740262
0.000722277
0.000705046
0.000688628
0.000673031
0.000658235
0.000644201
0.000630883
0.000618227
0.000606193
0.000594906
0.00085112
0.000848748
0.000844481
0.000838237
0.000830247
0.000820897
0.000810601
0.000799726
0.00078856
0.000777321
0.000766164
0.000755196
0.000744488
0.00073408
0.000723997
0.000714248
0.000704846
0.000695943
0.00085156
0.000850665
0.00084917
0.000846887
0.000843742
0.00083976
0.000835035
0.000829696
0.000823878
0.00081771
0.000811305
0.000804757
0.000798144
0.000791526
0.00078495
0.000778452
0.000772069
0.000765938
0.000851652
0.000851133
0.000850468
0.000849564
0.000848347
0.000846773
0.000844826
0.000842521
0.000839885
0.00083696
0.000833793
0.000830428
0.000826909
0.000823277
0.000819567
0.000815809
0.00081204
0.000808353
0.000851668
0.00085123
0.000850778
0.000850278
0.000849698
0.000849007
0.000848183
0.000847212
0.000846088
0.000844815
0.0008434
0.000841855
0.000840195
0.000838436
0.000836593
0.000834684
0.000832728
0.000830782
0.000851669
0.000851245
0.000850835
0.000850429
0.000850014
0.000849575
0.000849101
0.00084858
0.000848003
0.000847365
0.000846665
0.000845902
0.000845078
0.000844199
0.000843268
0.000842293
0.000841282
0.00084027
0.000851668
0.000851244
0.000850843
0.000850459
0.000850088
0.000849726
0.000849365
0.000849001
0.000848629
0.000848243
0.000847841
0.00084742
0.000846979
0.000846518
0.000846037
0.000845537
0.000845022
0.000844512
0.000851667
0.000851242
0.000850839
0.000850458
0.000850096
0.000849751
0.000849421
0.000849102
0.000848793
0.000848491
0.000848194
0.000847902
0.000847611
0.000847321
0.000847031
0.000846742
0.000846454
0.00084618
0.000851666
0.000851239
0.000850835
0.000850452
0.00085009
0.000849746
0.000849419
0.000849108
0.000848812
0.000848528
0.000848257
0.000847996
0.000847746
0.000847505
0.000847272
0.000847047
0.000846832
0.000846637
0.000851665
0.000851236
0.000850831
0.000850447
0.000850083
0.000849737
0.000849409
0.000849098
0.000848801
0.000848519
0.000848251
0.000847994
0.00084775
0.000847517
0.000847294
0.000847082
0.000846881
0.000846703
0.000851664
0.000851235
0.000850828
0.000850442
0.000850077
0.00084973
0.000849401
0.000849088
0.00084879
0.000848507
0.000848237
0.00084798
0.000847735
0.000847502
0.000847279
0.000847066
0.000846866
0.000846689
0.000851663
0.000851234
0.000850826
0.00085044
0.000850073
0.000849725
0.000849395
0.000849081
0.000848782
0.000848498
0.000848227
0.000847969
0.000847723
0.000847488
0.000847264
0.00084705
0.000846848
0.00084667
0.000851663
0.000851233
0.000850825
0.000850439
0.000850072
0.000849724
0.000849393
0.000849078
0.000848779
0.000848494
0.000848222
0.000847963
0.000847716
0.000847481
0.000847256
0.000847041
0.000846838
0.000846658
0.000851664
0.000851234
0.000850826
0.00085044
0.000850074
0.000849726
0.000849396
0.000849081
0.000848782
0.000848497
0.000848225
0.000847965
0.000847717
0.00084748
0.000847254
0.000847037
0.000846832
0.000846649
0.000851664
0.000851235
0.000850829
0.000850443
0.000850078
0.00084973
0.000849399
0.000849082
0.000848779
0.000848489
0.000848209
0.00084794
0.000847679
0.000847427
0.000847182
0.000846945
0.000846715
0.000846506
0.000851665
0.000851237
0.00085083
0.000850442
0.000850068
0.000849706
0.000849351
0.000848999
0.000848647
0.000848293
0.000847934
0.00084757
0.000847198
0.000846819
0.000846432
0.000846039
0.000845641
0.000845251
0.000851664
0.000851228
0.000850794
0.000850348
0.00084987
0.000849345
0.000848761
0.000848111
0.000847388
0.000846593
0.000845727
0.000844796
0.000843805
0.00084276
0.00084167
0.000840542
0.000839385
0.000838224
0.000851634
0.000851073
0.000850343
0.000849363
0.000848079
0.000846467
0.00084453
0.000842291
0.000839784
0.000837051
0.000834133
0.000831073
0.000827907
0.000824669
0.00082139
0.000818093
0.000814804
0.000811569
0.000851287
0.000849596
0.000846721
0.000842577
0.000837262
0.000830978
0.00082397
0.000816469
0.000808671
0.000800734
0.000792779
0.000784897
0.000777151
0.000769588
0.000762237
0.000755118
0.000748246
0.000741673
0.000848318
0.000839425
0.00082616
0.000810016
0.000792356
0.000774222
0.000756315
0.000739036
0.000722583
0.000707038
0.00069241
0.000678673
0.000665781
0.000653678
0.00064231
0.00063162
0.000621561
0.000612144
0.000828548
0.000788842
0.000746032
0.000705699
0.000669457
0.000637492
0.000609433
0.000584724
0.000562825
0.000543283
0.000525728
0.00050986
0.000495439
0.00048227
0.000470194
0.000459081
0.000448824
0.000439376
0.000730726
0.000627344
0.000554504
0.000501054
0.000460311
0.000428338
0.000402621
0.000381455
0.000363693
0.000348561
0.000335514
0.000324153
0.000314181
0.000305368
0.000297534
0.000290535
0.000284251
0.0002786
0.000439249
0.00033847
0.000287934
0.000256867
0.000236359
0.000222508
0.00021299
0.000206309
0.000201503
0.000197957
0.000195269
0.000193176
0.000191498
0.000190116
0.000188946
0.000187932
0.000187036
0.000186209
7.16431e-05
6.90587e-05
6.65522e-05
6.41646e-05
6.19883e-05
6.00784e-05
5.84564e-05
5.71213e-05
5.60571e-05
5.52403e-05
5.46436e-05
5.42394e-05
5.40009e-05
5.39031e-05
5.39236e-05
5.40421e-05
5.42413e-05
5.45049e-05
2.67874e-07
6.59545e-06
1.08167e-05
1.46324e-05
1.87384e-05
2.34488e-05
2.88153e-05
3.49604e-05
4.20102e-05
4.9336e-05
5.6972e-05
6.48803e-05
7.30015e-05
8.12755e-05
8.96456e-05
9.80594e-05
0.000106467
0.000114822
0.000123076
0.000131185
0.0001391
0.000146773
0.000154152
0.000161184
0.000167812
0.000173975
0.000179609
0.000184643
0.000189008
0.000192652
0.000195557
0.000197735
0.000199166
0.000199732
0.000199432
0.0001992
0.000198912
4.55057e-05
4.57752e-05
4.60642e-05
4.63438e-05
4.64504e-05
4.62992e-05
4.74171e-05
4.84273e-05
4.94795e-05
5.05493e-05
5.16276e-05
5.27109e-05
5.37966e-05
5.48831e-05
5.59694e-05
5.70546e-05
5.81383e-05
5.92201e-05
6.02995e-05
6.13762e-05
6.245e-05
6.35204e-05
6.45873e-05
6.56502e-05
6.67089e-05
6.7763e-05
6.8812e-05
6.98557e-05
7.08936e-05
7.19253e-05
7.29504e-05
7.39685e-05
7.4979e-05
7.59816e-05
7.69758e-05
7.79611e-05
7.8937e-05
7.99032e-05
8.08591e-05
8.18042e-05
8.27382e-05
8.36605e-05
8.45708e-05
8.54685e-05
8.63534e-05
8.72249e-05
8.80827e-05
8.89263e-05
8.97554e-05
9.05696e-05
9.13685e-05
9.21518e-05
9.29189e-05
9.36697e-05
9.44036e-05
9.51203e-05
9.58196e-05
9.65009e-05
9.71643e-05
9.78096e-05
9.84375e-05
9.90493e-05
9.96478e-05
0.000100231
0.000100792
0.000101331
0.000101849
0.000102345
0.000102819
0.000103271
0.0001037
0.000104106
0.000104489
0.000104848
0.000105183
0.000105494
0.000105781
0.000106042
0.000106279
0.000106491
0.000106677
0.000106838
0.000106974
0.000107084
0.000107168
0.000107226
0.000107259
0.000107267
0.000107248
0.000107205
0.000107135
0.000107041
0.000106921
0.000106776
0.000106607
0.000106412
0.000106194
0.000105952
0.000105686
0.000105396
0.000105084
0.000104749
0.000104391
0.000104012
0.000103612
0.000103191
0.000102749
0.000102288
0.000101808
0.000101309
0.000100791
0.000100257
9.97054e-05
9.91379e-05
9.85549e-05
9.79571e-05
9.73451e-05
9.67198e-05
9.60816e-05
9.54317e-05
9.47704e-05
9.40988e-05
9.34175e-05
9.27267e-05
9.20291e-05
9.13225e-05
9.06125e-05
8.9904e-05
8.92736e-05
8.88628e-05
8.84749e-05
8.80863e-05
8.76955e-05
8.73026e-05
8.69076e-05
8.651e-05
8.61084e-05
8.56998e-05
8.52774e-05
8.48258e-05
8.43046e-05
8.36141e-05
8.23139e-05
9.88959e-07
2.57602e-05
5.59251e-05
7.78184e-05
9.32627e-05
0.000104568
0.000114144
0.000123254
0.000132483
0.000142037
0.000151915
0.000162046
0.000172349
0.000182742
0.000193155
0.000203524
0.000213788
0.00022389
0.00023377
0.000243366
0.00025261
0.000261426
0.000269727
0.000277415
0.00028437
0.00029045
0.000295479
0.000299251
0.000301549
0.00030219
0.000301066
0.000298121
0.000293247
0.000286261
0.000277528
0.000269367
0.000264446
0.000250725
0.000250762
0.000252842
0.000254853
0.00025612
0.000258136
0.000264445
0.000270892
0.000277005
0.000283606
0.000290556
0.000297773
0.000305197
0.000312791
0.000320529
0.000328396
0.000336382
0.000344479
0.000352683
0.000360989
0.000369396
0.0003779
0.000386499
0.000395191
0.000403976
0.000412849
0.00042181
0.000430856
0.000439984
0.000449191
0.000458474
0.000467829
0.000477253
0.00048674
0.000496286
0.000505887
0.000515538
0.000525232
0.000534966
0.000544732
0.000554525
0.00056434
0.00057417
0.00058401
0.000593854
0.000603695
0.000613529
0.00062335
0.000633153
0.000642933
0.000652684
0.000662403
0.000672085
0.000681726
0.000691321
0.000700864
0.000710351
0.000719771
0.000729112
0.00073835
0.00074745
0.000756355
0.00076487
0.000772813
0.00078059
0.000788244
0.000795775
0.000803181
0.000810455
0.000817591
0.000824585
0.00083143
0.000838122
0.000844654
0.000851022
0.00085722
0.000863245
0.00086909
0.000874752
0.000880226
0.000885509
0.000890596
0.000895483
0.000900168
0.000904647
0.000908917
0.000912975
0.00091682
0.000920448
0.000923858
0.000927049
0.000930018
0.000932764
0.000935287
0.000937585
0.000939659
0.000941509
0.000943134
0.000944536
0.000945714
0.00094667
0.000947406
0.000947923
0.000948223
0.000948309
0.000948183
0.000947847
0.000947306
0.000946562
0.000945619
0.000944482
0.000943155
0.000941642
0.000939948
0.000938079
0.000936039
0.000933836
0.000931474
0.000928959
0.000926301
0.000923502
0.000920573
0.000917523
0.000914348
0.000911078
0.00090771
0.000904202
0.000900439
0.000895728
0.000889056
0.000881793
0.000874333
0.000866775
0.000859154
0.000851486
0.000843779
0.000836035
0.000828247
0.000820391
0.000812394
0.000804142
0.000794643
0.000776147
1.95304e-06
4.12459e-05
8.8237e-05
0.000123298
0.00014856
0.000167376
0.000182351
0.000195282
0.000207285
0.000218977
0.000230636
0.000242355
0.000254129
0.000265913
0.000277649
0.000289272
0.000300723
0.000311938
0.000322857
0.000333417
0.000343552
0.000353192
0.000362266
0.0003707
0.000378417
0.000385341
0.000391398
0.000396531
0.000400726
0.000404046
0.000406658
0.000408807
0.000410746
0.000412706
0.000415101
0.000418893
0.000424724
0.000431106
0.000439328
0.000448711
0.000458768
0.000469286
0.000480773
0.000494026
0.000508153
0.00052262
0.000537462
0.000552655
0.000568169
0.000583972
0.000600041
0.000616354
0.000632897
0.000649657
0.000666627
0.000683799
0.000701167
0.000718726
0.000736472
0.000754401
0.000772507
0.000790786
0.000809233
0.000827842
0.000846608
0.000865522
0.000884579
0.000903769
0.000923085
0.000942517
0.000962055
0.00098169
0.00100141
0.0010212
0.00104106
0.00106096
0.0010809
0.00110087
0.00112085
0.00114083
0.00116079
0.00118073
0.00120063
0.00122048
0.00124027
0.00125998
0.00127961
0.00129914
0.00131855
0.00133785
0.00135701
0.00137602
0.00139487
0.00141353
0.00143198
0.0014502
0.00146814
0.00148576
0.00150302
0.0015196
0.00153575
0.0015516
0.0015672
0.00158254
0.0015976
0.00161239
0.00162689
0.00164108
0.00165496
0.00166852
0.00168174
0.00169461
0.00170713
0.00171928
0.00173105
0.00174244
0.00175344
0.00176403
0.00177421
0.00178398
0.00179332
0.00180223
0.0018107
0.00181873
0.00182632
0.00183345
0.00184012
0.00184634
0.0018521
0.00185739
0.00186221
0.00186657
0.00187046
0.00187388
0.00187684
0.00187933
0.00188135
0.00188292
0.00188402
0.00188467
0.00188487
0.00188462
0.00188393
0.00188281
0.00188126
0.00187928
0.0018769
0.00187411
0.00187092
0.00186735
0.0018634
0.00185909
0.00185442
0.00184941
0.00184407
0.00183841
0.00183246
0.00182622
0.0018197
0.00181295
0.00180595
0.00179872
0.0017913
0.00178357
0.00177536
0.00176608
0.00175503
0.00174308
0.00173069
0.00171804
0.00170522
0.00169227
0.0016792
0.00166603
0.00165273
0.00163923
0.00162533
0.00161052
0.00159285
0.0015637
3.05382e-06
5.24301e-05
0.000111519
0.000156885
0.000190532
0.000215924
0.000235917
0.000252608
0.000267424
0.000281261
0.00029463
0.000307787
0.000320835
0.000333796
0.000346647
0.00035935
0.000371858
0.000384125
0.000396105
0.000407756
0.000419039
0.00042992
0.000440373
0.000450381
0.000459941
0.000469064
0.000477783
0.000486157
0.000494287
0.000502326
0.000510479
0.000518985
0.000528072
0.000537931
0.00054875
0.000560769
0.000574119
0.000588601
0.000604223
0.000620886
0.000638469
0.0006569
0.000676214
0.000696444
0.000717335
0.000738667
0.000760375
0.000782434
0.00080483
0.00082755
0.000850581
0.000873913
0.000897535
0.000921438
0.000945614
0.000970057
0.000994761
0.00101972
0.00104492
0.00107037
0.00109605
0.00112196
0.00114809
0.00117443
0.00120097
0.0012277
0.00125461
0.00128168
0.00130891
0.00133628
0.00136378
0.00139138
0.00141908
0.00144685
0.00147468
0.00150256
0.00153046
0.00155836
0.00158625
0.00161411
0.00164192
0.00166966
0.00169732
0.00172487
0.0017523
0.00177959
0.00180673
0.00183369
0.00186046
0.00188702
0.00191335
0.00193944
0.00196525
0.00199078
0.00201598
0.00204083
0.0020653
0.00208937
0.00211288
0.0021358
0.00215826
0.00218035
0.00220207
0.00222343
0.00224441
0.002265
0.00228518
0.00230494
0.00232427
0.00234314
0.00236155
0.00237948
0.00239691
0.00241384
0.00243025
0.00244613
0.00246147
0.00247625
0.00249047
0.00250411
0.00251716
0.00252962
0.00254148
0.00255273
0.00256337
0.00257338
0.00258276
0.00259152
0.00259963
0.00260711
0.00261394
0.00262013
0.00262567
0.00263057
0.00263482
0.00263843
0.00264139
0.00264371
0.0026454
0.00264646
0.00264689
0.0026467
0.0026459
0.00264449
0.00264249
0.00263989
0.00263672
0.00263299
0.0026287
0.00262386
0.0026185
0.00261263
0.00260625
0.00259939
0.00259207
0.0025843
0.0025761
0.0025675
0.00255851
0.00254916
0.00253948
0.00252944
0.00251908
0.00250831
0.00249698
0.00248473
0.00247118
0.00245672
0.0024417
0.00242631
0.00241065
0.00239478
0.00237874
0.00236254
0.00234616
0.00232949
0.00231228
0.00229382
0.00227195
0.00224005
4.12236e-06
6.13884e-05
0.000129962
0.000183953
0.000224725
0.000255805
0.000280241
0.000300343
0.000317758
0.000333591
0.000348535
0.000362993
0.00037718
0.000391192
0.000405061
0.000418785
0.000432345
0.000445723
0.000458897
0.000471856
0.000484593
0.000497112
0.000509431
0.00052158
0.000533607
0.000545578
0.000557576
0.000569708
0.0005821
0.000594902
0.000608278
0.000622397
0.000637403
0.000653405
0.000670478
0.000688675
0.000708008
0.000728427
0.00074988
0.000772305
0.00079563
0.000819787
0.000844714
0.000870332
0.00089652
0.000923171
0.000950227
0.000977662
0.00100546
0.00103361
0.00106211
0.00109094
0.00112011
0.00114959
0.00117939
0.0012095
0.00123991
0.00127061
0.00130159
0.00133285
0.00136438
0.00139616
0.00142819
0.00146045
0.00149294
0.00152563
0.00155851
0.00159157
0.00162479
0.00165816
0.00169164
0.00172523
0.00175891
0.00179264
0.00182642
0.00186022
0.00189402
0.00192779
0.00196152
0.00199517
0.00202873
0.00206218
0.00209549
0.00212865
0.00216162
0.0021944
0.00222695
0.00225927
0.00229132
0.00232309
0.00235456
0.0023857
0.0024165
0.00244693
0.00247696
0.00250658
0.00253575
0.00256446
0.00259253
0.00262005
0.0026471
0.00267371
0.00269988
0.00272563
0.00275092
0.00277575
0.0028001
0.00282395
0.00284729
0.00287009
0.00289235
0.00291404
0.00293516
0.00295567
0.00297558
0.00299486
0.00301351
0.0030315
0.00304883
0.00306548
0.00308145
0.00309671
0.00311127
0.00312511
0.00313823
0.00315061
0.00316226
0.00317316
0.00318331
0.00319271
0.00320134
0.00320921
0.00321632
0.00322267
0.00322825
0.00323306
0.00323712
0.00324041
0.00324295
0.00324473
0.00324577
0.00324607
0.00324564
0.00324448
0.00324261
0.00324003
0.00323676
0.0032328
0.00322818
0.0032229
0.00321698
0.00321043
0.00320328
0.00319554
0.00318723
0.00317838
0.003169
0.00315912
0.00314876
0.00313793
0.00312668
0.00311499
0.00310287
0.00309029
0.00307714
0.0030632
0.00304829
0.00303258
0.00301627
0.00299952
0.00298245
0.00296511
0.00294756
0.00292982
0.00291188
0.00289366
0.00287488
0.00285485
0.00283168
0.00280093
5.09386e-06
6.86603e-05
0.000145092
0.000206329
0.000253226
0.000289307
0.000317729
0.000340956
0.000360792
0.000378505
0.000394937
0.000410623
0.000425882
0.00044089
0.000455739
0.000470473
0.00048511
0.000499659
0.000514129
0.000528535
0.000542899
0.000557253
0.000571644
0.000586129
0.000600782
0.000615688
0.000630945
0.00064666
0.00066295
0.000679932
0.000697724
0.000716429
0.00073613
0.00075688
0.000778703
0.0008016
0.000825548
0.000850506
0.000876422
0.000903237
0.000930885
0.000959298
0.000988405
0.00101813
0.0010484
0.00107915
0.00111032
0.0011419
0.00117387
0.00120622
0.00123893
0.001272
0.00130543
0.0013392
0.00137331
0.00140774
0.0014425
0.00147756
0.00151293
0.00154858
0.00158452
0.00162072
0.00165718
0.00169387
0.00173079
0.00176791
0.00180523
0.00184272
0.00188036
0.00191813
0.00195601
0.00199398
0.00203202
0.0020701
0.00210819
0.00214628
0.00218434
0.00222234
0.00226027
0.00229808
0.00233576
0.00237329
0.00241064
0.00244778
0.0024847
0.00252136
0.00255775
0.00259385
0.00262964
0.00266509
0.00270018
0.0027349
0.00276922
0.00280312
0.00283659
0.00286959
0.00290211
0.00293411
0.00296548
0.00299631
0.00302665
0.00305652
0.00308593
0.00311486
0.0031433
0.00317123
0.00319864
0.00322551
0.00325182
0.00327755
0.00330269
0.00332721
0.0033511
0.00337435
0.00339693
0.00341884
0.00344005
0.00346055
0.00348033
0.00349937
0.00351766
0.00353519
0.00355195
0.00356792
0.0035831
0.00359749
0.00361106
0.00362383
0.00363576
0.00364687
0.00365715
0.00366658
0.00367518
0.00368294
0.00368986
0.00369594
0.00370118
0.00370557
0.00370913
0.00371186
0.00371376
0.00371484
0.00371511
0.00371457
0.00371323
0.00371111
0.00370821
0.00370455
0.00370013
0.00369499
0.00368912
0.00368254
0.00367529
0.00366736
0.00365878
0.00364959
0.00363978
0.0036294
0.00361847
0.003607
0.00359502
0.00358254
0.00356957
0.00355609
0.00354204
0.0035273
0.00351178
0.00349556
0.00347876
0.00346149
0.00344386
0.00342594
0.00340778
0.00338944
0.0033709
0.00335213
0.0033329
0.00331262
0.00328981
0.00326162
5.91786e-06
7.46592e-05
0.000157497
0.000224817
0.000277008
0.000317521
0.000349564
0.000375689
0.000397819
0.000417342
0.000435224
0.000452111
0.00046842
0.000484406
0.000500223
0.000515964
0.000531683
0.00054742
0.000563212
0.000579092
0.000595105
0.000611301
0.000627739
0.00064449
0.000661631
0.000679249
0.000697435
0.000716281
0.00073588
0.000756318
0.000777671
0.000800001
0.00082335
0.000847738
0.000873163
0.000899608
0.000927038
0.00095541
0.000984671
0.00101476
0.00104563
0.00107721
0.00110943
0.00114225
0.00117559
0.00120942
0.0012437
0.00127839
0.00131349
0.00134899
0.00138486
0.0014211
0.0014577
0.00149466
0.00153196
0.00156959
0.00160755
0.00164582
0.0016844
0.00172327
0.00176241
0.00180182
0.00184148
0.00188137
0.00192148
0.00196179
0.00200228
0.00204293
0.00208372
0.00212462
0.00216562
0.0022067
0.00224782
0.00228896
0.00233011
0.00237122
0.00241228
0.00245326
0.00249413
0.00253487
0.00257545
0.00261584
0.00265602
0.00269596
0.00273564
0.00277504
0.00281413
0.00285289
0.0028913
0.00292934
0.00296699
0.00300423
0.00304105
0.00307742
0.00311333
0.00314877
0.00318371
0.00321804
0.00325181
0.00328505
0.00331781
0.00335009
0.00338189
0.0034132
0.00344399
0.00347427
0.003504
0.00353317
0.00356176
0.00358975
0.00361712
0.00364385
0.00366993
0.00369534
0.00372005
0.00374406
0.00376735
0.00378989
0.00381168
0.0038327
0.00385293
0.00387236
0.00389098
0.00390878
0.00392576
0.00394189
0.00395717
0.00397159
0.00398515
0.00399783
0.00400962
0.00402054
0.00403057
0.00403971
0.00404797
0.00405533
0.00406179
0.00406737
0.00407205
0.00407585
0.00407878
0.00408083
0.004082
0.00408231
0.00408178
0.0040804
0.00407819
0.00407515
0.00407131
0.00406668
0.00406126
0.00405507
0.00404815
0.00404049
0.00403214
0.0040231
0.00401339
0.00400306
0.00399211
0.00398057
0.00396846
0.00395579
0.00394259
0.00392884
0.00391451
0.00389956
0.00388394
0.00386769
0.00385088
0.0038336
0.00381594
0.00379798
0.00377978
0.0037614
0.00374287
0.00372418
0.00370517
0.00368539
0.00366374
0.00363836
6.60975e-06
7.94482e-05
0.000167442
0.000239855
0.000296623
0.000341074
0.000376414
0.000405244
0.000429561
0.000450844
0.000470157
0.00048824
0.000505595
0.000522552
0.000539323
0.000556049
0.000572822
0.00058971
0.00060677
0.000624055
0.00064162
0.000659525
0.000677834
0.000696617
0.000715948
0.000735902
0.000756557
0.000777987
0.000800258
0.000823431
0.000847554
0.000872658
0.000898762
0.000925867
0.000953959
0.000983011
0.00101299
0.00104384
0.00107552
0.00110798
0.00114116
0.00117501
0.00120947
0.0012445
0.00128005
0.00131609
0.00135257
0.00138949
0.00142681
0.00146453
0.00150262
0.00154109
0.00157992
0.0016191
0.00165862
0.00169847
0.00173864
0.00177912
0.0018199
0.00186096
0.00190229
0.00194388
0.00198571
0.00202776
0.00207002
0.00211247
0.00215509
0.00219786
0.00224076
0.00228377
0.00232686
0.00237002
0.00241322
0.00245643
0.00249963
0.00254279
0.00258589
0.00262889
0.00267178
0.00271452
0.00275709
0.00279946
0.0028416
0.00288348
0.00292509
0.0029664
0.00300738
0.00304801
0.00308828
0.00312815
0.00316763
0.00320668
0.00324529
0.00328345
0.00332113
0.00335833
0.00339501
0.00343112
0.0034667
0.00350178
0.0035364
0.00357054
0.0036042
0.00363736
0.00367002
0.00370216
0.00373375
0.00376477
0.00379521
0.00382504
0.00385425
0.00388281
0.00391071
0.00393793
0.00396444
0.00399024
0.00401529
0.00403959
0.00406312
0.00408586
0.00410779
0.0041289
0.00414918
0.00416862
0.00418721
0.00420492
0.00422177
0.00423773
0.0042528
0.00426696
0.00428021
0.00429255
0.00430397
0.00431448
0.00432406
0.00433272
0.00434045
0.00434725
0.00435312
0.00435808
0.00436213
0.00436527
0.00436748
0.0043688
0.00436923
0.0043688
0.00436746
0.00436527
0.00436222
0.00435834
0.00435364
0.00434813
0.00434184
0.00433477
0.00432697
0.00431843
0.00430919
0.00429927
0.00428868
0.00427746
0.00426563
0.0042532
0.00424019
0.0042266
0.00421243
0.00419766
0.00418228
0.0041663
0.0041498
0.00413283
0.00411548
0.00409781
0.00407992
0.00406186
0.0040437
0.00402546
0.00400705
0.00398815
0.00396794
0.00394517
7.16727e-06
8.31325e-05
0.000175161
0.000251774
0.000312463
0.000360394
0.000398726
0.00043007
0.000456466
0.000479456
0.000500177
0.000519447
0.000537839
0.000555748
0.000573443
0.000591106
0.000608865
0.000626814
0.000645028
0.000663573
0.00068251
0.000701901
0.000721811
0.000742303
0.000763441
0.000785289
0.000807908
0.000831352
0.00085567
0.000880899
0.000907069
0.000934192
0.000962274
0.000991303
0.00102126
0.00105211
0.00108383
0.00111636
0.00114966
0.00118369
0.00121839
0.00125372
0.00128964
0.0013261
0.00136306
0.0014005
0.00143838
0.00147669
0.0015154
0.00155449
0.00159396
0.0016338
0.00167398
0.00171451
0.00175537
0.00179654
0.00183803
0.00187982
0.0019219
0.00196425
0.00200686
0.00204973
0.00209283
0.00213614
0.00217967
0.00222338
0.00226725
0.00231128
0.00235545
0.00239972
0.00244408
0.00248851
0.00253299
0.00257748
0.00262198
0.00266644
0.00271084
0.00275516
0.00279938
0.00284345
0.00288735
0.00293106
0.00297454
0.00301778
0.00306073
0.00310338
0.00314571
0.00318768
0.00322928
0.0032705
0.0033113
0.00335169
0.00339163
0.00343112
0.00347015
0.00350869
0.00354671
0.00358422
0.00362126
0.00365785
0.00369398
0.00372966
0.00376487
0.0037996
0.00383384
0.00386756
0.00390074
0.00393337
0.00396541
0.00399685
0.00402767
0.00405784
0.00408736
0.00411618
0.0041443
0.0041717
0.00419836
0.00422426
0.00424937
0.00427369
0.00429719
0.00431985
0.00434168
0.00436264
0.00438274
0.00440196
0.0044203
0.00443773
0.00445426
0.00446985
0.00448452
0.00449825
0.00451104
0.0045229
0.00453383
0.0045438
0.00455282
0.00456088
0.00456799
0.00457417
0.00457943
0.00458373
0.00458708
0.0045895
0.00459101
0.00459161
0.0045913
0.0045901
0.00458802
0.00458508
0.00458128
0.00457666
0.00457121
0.00456496
0.00455794
0.00455015
0.00454162
0.00453238
0.00452243
0.00451182
0.00450055
0.00448864
0.00447612
0.004463
0.00444928
0.00443497
0.00442007
0.0044046
0.00438862
0.00437217
0.00435534
0.0043382
0.00432082
0.00430331
0.00428574
0.00426817
0.00425055
0.00423268
0.00421393
0.00419342
7.59273e-06
8.58205e-05
0.000180872
0.000260861
0.000324858
0.000375828
0.000416846
0.000450501
0.000478849
0.000503471
0.000525556
0.000545981
0.000565379
0.0005842
0.00060276
0.000621282
0.000639922
0.000658798
0.000678
0.000697602
0.00071767
0.000738266
0.000759449
0.000781274
0.000803796
0.000827065
0.000851127
0.000876022
0.000901781
0.000928427
0.000955974
0.000984427
0.00101378
0.00104401
0.00107511
0.00110703
0.00113975
0.00117322
0.0012074
0.00124226
0.00127774
0.00131381
0.00135043
0.00138757
0.00142518
0.00146325
0.00150174
0.00154064
0.00157993
0.00161959
0.00165962
0.00169999
0.0017407
0.00178174
0.0018231
0.00186478
0.00190675
0.00194902
0.00199157
0.0020344
0.00207749
0.00212083
0.0021644
0.00220821
0.00225223
0.00229645
0.00234085
0.00238542
0.00243015
0.00247501
0.00251998
0.00256504
0.00261018
0.00265536
0.00270057
0.00274578
0.00279096
0.00283609
0.00288114
0.00292607
0.00297086
0.00301548
0.00305989
0.00310408
0.003148
0.00319164
0.00323496
0.00327794
0.00332056
0.00336279
0.00340463
0.00344605
0.00348704
0.00352759
0.00356768
0.00360731
0.00364649
0.00368524
0.00372356
0.00376147
0.00379895
0.00383601
0.00387262
0.00390878
0.00394445
0.00397962
0.00401427
0.00404837
0.00408189
0.00411483
0.00414715
0.00417883
0.00420985
0.00424019
0.00426983
0.00429875
0.00432692
0.00435434
0.00438097
0.00440679
0.0044318
0.00445596
0.00447927
0.00450171
0.00452328
0.00454397
0.00456376
0.00458264
0.0046006
0.00461762
0.00463369
0.00464881
0.00466298
0.0046762
0.00468849
0.00469981
0.00471015
0.00471951
0.0047279
0.00473534
0.00474182
0.00474735
0.00475191
0.00475553
0.00475821
0.00475996
0.0047608
0.00476072
0.00475974
0.00475787
0.00475514
0.00475154
0.00474711
0.00474185
0.00473578
0.00472893
0.00472131
0.00471294
0.00470384
0.00469404
0.00468355
0.00467239
0.00466059
0.00464816
0.00463512
0.00462147
0.00460724
0.00459245
0.00457715
0.00456139
0.00454523
0.00452876
0.00451206
0.00449524
0.0044784
0.00446161
0.00444487
0.00442806
0.00441068
0.00439207
7.89297e-06
8.76232e-05
0.000184788
0.000267392
0.000334112
0.000387685
0.000431071
0.000466813
0.000496957
0.000523102
0.000546471
0.000567986
0.000588324
0.000607981
0.000627312
0.000646573
0.000665949
0.000685573
0.000705549
0.000725959
0.00074687
0.000768342
0.000790427
0.000813173
0.000836625
0.000860821
0.000885793
0.00091157
0.000938171
0.000965608
0.000993885
0.001023
0.00105294
0.00108368
0.00111521
0.00114749
0.0011805
0.00121418
0.00124851
0.00128345
0.00131897
0.00135502
0.00139158
0.00142862
0.0014661
0.001504
0.0015423
0.00158099
0.00162005
0.00165946
0.00169922
0.00173931
0.00177974
0.00182048
0.00186154
0.00190291
0.00194458
0.00198656
0.00202882
0.00207137
0.00211421
0.00215731
0.00220068
0.00224431
0.00228818
0.00233228
0.00237661
0.00242116
0.00246589
0.00251081
0.0025559
0.00260112
0.00264647
0.00269193
0.00273746
0.00278304
0.00282865
0.00287425
0.00291982
0.00296532
0.00301073
0.00305601
0.00310112
0.00314603
0.00319071
0.00323513
0.00327926
0.00332306
0.00336652
0.00340961
0.00345232
0.00349462
0.00353651
0.00357797
0.00361899
0.00365966
0.00369995
0.00373987
0.00377943
0.0038186
0.00385739
0.00389577
0.00393375
0.00397128
0.00400835
0.00404493
0.00408101
0.00411654
0.00415152
0.00418591
0.0042197
0.00425285
0.00428535
0.00431717
0.00434829
0.0043787
0.00440837
0.00443728
0.0044654
0.00449272
0.0045192
0.00454484
0.00456962
0.00459353
0.00461656
0.0046387
0.00465994
0.00468029
0.00469969
0.00471813
0.00473561
0.00475214
0.0047677
0.00478231
0.00479595
0.00480862
0.00482031
0.00483102
0.00484075
0.00484951
0.0048573
0.00486412
0.00486998
0.00487487
0.00487882
0.00488183
0.0048839
0.00488505
0.00488529
0.00488463
0.00488307
0.00488065
0.00487737
0.00487324
0.00486828
0.00486252
0.00485596
0.00484863
0.00484055
0.00483173
0.0048222
0.00481198
0.00480108
0.00478953
0.00477734
0.00476454
0.00475114
0.00473718
0.00472269
0.00470774
0.00469239
0.00467672
0.00466082
0.0046448
0.00462877
0.00461283
0.00459701
0.00458123
0.0045651
0.00454807
8.0788e-06
8.86546e-05
0.000187124
0.000271638
0.000340516
0.000396252
0.00044167
0.000479241
0.000510982
0.000538495
0.000563021
0.000585509
0.000606672
0.000627039
0.000646997
0.00066683
0.000686742
0.000706884
0.000727369
0.000748282
0.000769693
0.000791658
0.000814224
0.000837431
0.000861314
0.000885902
0.000911218
0.000937278
0.000964093
0.000991668
0.00102
0.00104908
0.0010789
0.00110943
0.00114065
0.00117253
0.00120505
0.00123817
0.00127187
0.0013061
0.00134083
0.00137605
0.00141172
0.00144782
0.00148433
0.00152122
0.00155849
0.00159612
0.00163409
0.00167241
0.00171107
0.00175006
0.00178938
0.00182903