/*--------------------------------*- C++ -*----------------------------------*\
  =========                 |
  \\      /  F ield         | OpenFOAM: The Open Source CFD Toolbox
   \\    /   O peration     | Website:  https://openfoam.org
    \\  /    A nd           | Version:  9
     \\/     M anipulation  |
\*---------------------------------------------------------------------------*/
FoamFile
{
    format      ascii;
    class       volScalarField;
    location    "0.21";
    object      p;
}
// * * * * * * * * * * * * * * * * * * * * * * * * * * * * * * * * * * * * * //

dimensions      [0 2 -2 0 0 0 0];

internalField   nonuniform List<scalar> 
12225
(
-1.19617
-3.47918
-4.64169
-4.94992
-5.11827
-5.27809
-5.40279
-5.49135
-5.56112
-5.62232
-5.67675
-5.72424
-5.7651
-5.79864
-5.82375
-5.83012
-5.82743
-5.71976
-4.66368
-5.3658
-5.45606
-5.32107
-5.28108
-5.34847
-5.42935
-5.49536
-5.55255
-5.60615
-5.65596
-5.70081
-5.74042
-5.77391
-5.80087
-5.81427
-5.82694
-5.81179
-4.86842
-4.76548
-4.92229
-5.04448
-5.15194
-5.27437
-5.3828
-5.46563
-5.53303
-5.5931
-5.64751
-5.69605
-5.73886
-5.77567
-5.80693
-5.82953
-5.85774
-5.89041
-4.73113
-4.65301
-4.92912
-5.10791
-5.20246
-5.29971
-5.39497
-5.4727
-5.5375
-5.59595
-5.64952
-5.69785
-5.74109
-5.77938
-5.81376
-5.84427
-5.88263
-5.9351
-4.73809
-4.75536
-4.99548
-5.14545
-5.22159
-5.30642
-5.39618
-5.47243
-5.53662
-5.5946
-5.64805
-5.69678
-5.74106
-5.78144
-5.8194
-5.85664
-5.90178
-5.96159
-4.79978
-4.84225
-5.02008
-5.15088
-5.22897
-5.31163
-5.3981
-5.47313
-5.53698
-5.59472
-5.6482
-5.69744
-5.74283
-5.78523
-5.82632
-5.86841
-5.9176
-5.97931
-4.85951
-4.89905
-5.03549
-5.15777
-5.24025
-5.3201
-5.40194
-5.47499
-5.53829
-5.59575
-5.6492
-5.69889
-5.74531
-5.78947
-5.83308
-5.8784
-5.92965
-5.99035
-4.91266
-4.94757
-5.0579
-5.1706
-5.25326
-5.32928
-5.4064
-5.47727
-5.5399
-5.59701
-5.6504
-5.70049
-5.74782
-5.79344
-5.8389
-5.88615
-5.93796
-5.99621
-4.96244
-4.99419
-5.08501
-5.18588
-5.26605
-5.33864
-5.41155
-5.48009
-5.54184
-5.59851
-5.65173
-5.70209
-5.75014
-5.79682
-5.84347
-5.89158
-5.94289
-5.99816
-5.0098
-5.03843
-5.11364
-5.2026
-5.27907
-5.34859
-5.41766
-5.48365
-5.54423
-5.6003
-5.65324
-5.70369
-5.75216
-5.79948
-5.84668
-5.89485
-5.94498
-5.99719
-5.05456
-5.07985
-5.14268
-5.2208
-5.29277
-5.35916
-5.42464
-5.48797
-5.54713
-5.60244
-5.65493
-5.70524
-5.75384
-5.80136
-5.84859
-5.89623
-5.94481
-5.9941
-5.09306
-5.1154
-5.16927
-5.23858
-5.30593
-5.36931
-5.4317
-5.49255
-5.55024
-5.60469
-5.65662
-5.7066
-5.75503
-5.8024
-5.84926
-5.89606
-5.94306
-5.9899
-5.12874
-5.14855
-5.1951
-5.25668
-5.31931
-5.37962
-5.43912
-5.49756
-5.55367
-5.60713
-5.65838
-5.70786
-5.75591
-5.80286
-5.8491
-5.89486
-5.94024
-5.98486
-5.16626
-5.18356
-5.22337
-5.2774
-5.33481
-5.39157
-5.44793
-5.50371
-5.55792
-5.61011
-5.66041
-5.70913
-5.75649
-5.8027
-5.84797
-5.89238
-5.93594
-5.97829
-5.20435
-5.21926
-5.25312
-5.30017
-5.35212
-5.40495
-5.458
-5.51093
-5.56297
-5.61355
-5.6626
-5.71024
-5.75657
-5.80168
-5.84564
-5.88845
-5.93004
-5.97014
-5.24109
-5.25385
-5.28272
-5.32366
-5.37035
-5.41912
-5.4688
-5.51883
-5.56849
-5.61719
-5.66469
-5.71093
-5.7559
-5.79958
-5.84196
-5.88298
-5.92256
-5.9605
-5.2736
-5.2846
-5.30959
-5.34562
-5.38774
-5.43274
-5.47924
-5.52648
-5.57375
-5.62044
-5.66618
-5.71078
-5.75414
-5.79618
-5.83681
-5.87597
-5.91358
-5.94952
-5.2975
-5.3073
-5.32969
-5.36237
-5.40122
-5.44335
-5.48733
-5.53229
-5.57749
-5.62231
-5.66633
-5.70927
-5.75098
-5.79133
-5.83023
-5.8676
-5.9034
-5.93755
-5.30585
-5.3152
-5.33666
-5.36819
-5.40587
-5.44686
-5.48966
-5.53342
-5.57742
-5.62103
-5.66379
-5.70541
-5.74575
-5.78467
-5.82209
-5.85796
-5.89226
-5.92497
-5.29083
-5.30088
-5.32386
-5.35748
-5.39726
-5.43984
-5.48369
-5.52812
-5.57252
-5.61624
-5.65885
-5.70011
-5.73991
-5.77817
-5.81484
-5.84988
-5.88331
-5.91515
-5.26459
-5.27578
-5.30156
-5.33927
-5.38301
-5.42854
-5.47456
-5.52074
-5.56644
-5.61098
-5.65402
-5.69545
-5.73523
-5.77331
-5.80968
-5.84436
-5.87737
-5.90877
-5.22962
-5.24199
-5.27202
-5.31647
-5.36595
-5.41505
-5.46375
-5.51242
-5.56009
-5.60589
-5.64966
-5.69151
-5.73149
-5.76961
-5.80587
-5.84036
-5.87312
-5.90426
-5.18898
-5.20158
-5.23693
-5.2915
-5.3486
-5.40157
-5.4531
-5.50446
-5.5542
-5.60133
-5.64596
-5.6884
-5.72872
-5.76698
-5.80324
-5.83765
-5.87028
-5.90127
-5.14513
-5.15669
-5.19906
-5.26565
-5.33031
-5.38792
-5.44378
-5.49842
-5.54989
-5.59791
-5.6432
-5.68613
-5.72674
-5.76508
-5.80133
-5.83565
-5.86818
-5.89903
-5.09826
-5.10601
-5.16703
-5.2468
-5.31189
-5.37152
-5.43337
-5.4929
-5.54661
-5.5956
-5.64158
-5.68499
-5.72582
-5.76419
-5.80038
-5.8346
-5.86702
-5.8978
-5.0503
-5.02664
-5.13742
-5.24632
-5.30686
-5.3609
-5.42428
-5.48658
-5.54179
-5.59173
-5.63852
-5.68253
-5.72368
-5.76221
-5.79844
-5.83266
-5.86504
-5.89577
-5.04098
-4.89664
-5.05565
-5.22182
-5.30626
-5.36723
-5.43195
-5.49304
-5.5467
-5.59575
-5.64206
-5.68563
-5.72633
-5.76441
-5.80023
-5.83405
-5.86613
-5.89665
-5.18639
-4.90257
-4.93729
-5.06769
-5.18722
-5.29416
-5.38814
-5.46382
-5.52596
-5.58109
-5.63171
-5.67818
-5.72083
-5.76029
-5.79707
-5.83156
-5.86427
-5.89584
-5.12318
-5.62286
-5.63295
-5.47365
-5.39261
-5.41674
-5.4708
-5.52011
-5.56511
-5.60955
-5.65306
-5.69436
-5.73307
-5.76941
-5.80356
-5.83564
-5.8659
-5.89619
-1.7845
-3.65505
-4.72629
-5.0193
-5.15407
-5.29074
-5.40257
-5.48246
-5.54531
-5.60121
-5.65237
-5.6989
-5.74135
-5.78047
-5.81667
-5.84997
-5.88002
-5.90505
-6.79925
-6.79925
-6.79961
-6.8003
-6.80122
-6.80233
-6.80366
-6.80521
-6.80701
-6.80906
-6.81139
-6.81404
-6.81703
-6.82041
-6.82422
-6.82848
-6.83324
-6.83853
-6.84438
-6.85085
-6.85796
-6.86575
-6.87426
-6.88354
-6.89363
-6.90457
-6.9164
-6.92918
-6.94294
-6.95772
-6.97352
-6.99041
-7.00866
-7.02821
-7.04754
-7.06692
-7.08897
-7.11346
-7.13991
-7.16974
-7.20444
-7.24075
-7.25897
-7.26972
-7.29319
-7.31996
-7.34779
-7.37686
-7.40677
-7.43732
-7.46835
-7.49972
-7.53131
-7.56299
-7.59467
-7.62623
-7.65756
-7.68855
-7.71907
-7.74902
-7.77825
-7.80665
-7.83406
-7.86036
-7.88539
-7.909
-7.93104
-7.95133
-7.96971
-7.98601
-8.00005
-8.01165
-8.02063
-8.02681
-8.02998
-8.02998
-8.0266
-8.01966
-8.00896
-7.99432
-7.97556
-7.95248
-7.92491
-7.89267
-7.85558
-7.81347
-7.76618
-7.71354
-7.6554
-7.59162
-7.52204
-7.44653
-7.36497
-7.27723
-7.18322
-7.08283
-6.97604
-6.86287
-6.74327
-6.61702
-6.4839
-6.34369
-6.19655
-6.04253
-5.88167
-5.71398
-5.5395
-5.35826
-5.17033
-4.97578
-4.77469
-4.56718
-4.35337
-4.1334
-3.9074
-3.67557
-3.43807
-3.1951
-2.94688
-2.69362
-2.43557
-2.17297
-1.90609
-1.63518
-1.36053
-1.08243
-0.80117
-0.517054
-0.230387
0.0585172
0.349343
0.641773
0.935486
1.23016
1.52548
1.82113
2.11679
2.41215
2.7069
3.00075
3.29339
3.58455
3.87395
4.16131
4.44638
4.72891
5.00867
5.28543
5.55897
5.8291
6.09563
6.35839
6.61721
6.87194
7.12244
7.3686
7.61029
7.84742
8.0799
8.30764
8.53058
8.74866
8.96185
9.17012
9.37344
9.57177
9.76495
9.95282
10.1354
10.3127
10.4848
10.6517
10.8133
10.9697
11.121
11.2675
11.4101
11.5502
11.6969
11.8508
-6.79794
-6.79823
-6.79868
-6.79925
-6.79982
-6.80038
-6.80105
-6.80194
-6.80312
-6.8046
-6.80643
-6.80861
-6.81117
-6.81414
-6.81752
-6.82136
-6.82568
-6.83051
-6.83589
-6.84185
-6.84842
-6.85563
-6.86353
-6.87215
-6.88151
-6.89164
-6.90256
-6.91427
-6.92678
-6.94006
-6.95415
-6.96913
-6.98483
-7.00084
-7.01827
-7.03846
-7.05969
-7.08084
-7.1023
-7.12351
-7.14243
-7.15636
-7.18437
-7.22743
-7.26322
-7.29407
-7.32443
-7.35482
-7.38543
-7.41632
-7.44747
-7.47885
-7.51037
-7.54195
-7.57351
-7.60495
-7.63616
-7.66705
-7.69748
-7.72736
-7.75655
-7.78493
-7.81237
-7.83871
-7.86383
-7.88755
-7.90974
-7.93022
-7.94883
-7.9654
-7.97975
-7.99171
-8.00108
-8.00769
-8.01135
-8.01187
-8.00906
-8.00273
-7.99269
-7.97876
-7.96074
-7.93846
-7.91173
-7.88038
-7.84422
-7.8031
-7.75684
-7.70529
-7.64829
-7.5857
-7.51737
-7.44317
-7.36297
-7.27667
-7.18413
-7.08526
-6.97994
-6.86805
-6.74947
-6.62396
-6.4916
-6.3527
-6.20707
-6.05464
-5.89541
-5.72937
-5.55655
-5.37698
-5.19072
-4.99784
-4.79843
-4.59258
-4.38042
-4.16208
-3.9377
-3.70747
-3.47154
-3.23012
-2.98341
-2.73164
-2.47503
-2.21383
-1.9483
-1.67871
-1.40533
-1.12844
-0.848346
-0.565336
-0.27972
0.00819355
0.298089
0.58965
0.882557
1.17649
1.47113
1.76617
2.06128
2.35616
2.65049
2.94399
3.23635
3.52728
3.81651
4.10377
4.3888
4.67135
4.95118
5.22806
5.50179
5.77214
6.03895
6.30202
6.56119
6.81631
7.06725
7.31386
7.55605
7.79369
8.02671
8.25501
8.47854
8.69723
8.91103
9.11993
9.3239
9.52285
9.71666
9.9052
10.0885
10.2665
10.4393
10.6069
10.7692
10.9265
11.0788
11.2266
11.3711
11.5133
11.6635
11.8113
-6.7944
-6.79546
-6.79659
-6.79758
-6.79829
-6.79883
-6.79939
-6.80012
-6.80109
-6.80237
-6.80398
-6.80596
-6.80833
-6.81111
-6.81432
-6.818
-6.82217
-6.82686
-6.8321
-6.83793
-6.84437
-6.85147
-6.85924
-6.86773
-6.87696
-6.88697
-6.89777
-6.9094
-6.92189
-6.93524
-6.94953
-6.96484
-6.98119
-6.9984
-7.01659
-7.03639
-7.05756
-7.07946
-7.10203
-7.12492
-7.14731
-7.16879
-7.19309
-7.22212
-7.25168
-7.281
-7.31063
-7.34056
-7.37077
-7.40125
-7.43196
-7.46286
-7.49389
-7.52498
-7.55603
-7.58698
-7.61771
-7.64813
-7.67814
-7.70761
-7.73643
-7.76448
-7.79161
-7.8177
-7.84259
-7.86615
-7.88821
-7.90861
-7.92719
-7.94378
-7.95821
-7.97029
-7.97985
-7.98669
-7.99065
-7.99152
-7.98912
-7.98327
-7.97377
-7.96043
-7.94307
-7.92151
-7.89556
-7.86505
-7.8298
-7.78964
-7.74441
-7.69394
-7.63809
-7.5767
-7.50963
-7.43675
-7.35792
-7.27302
-7.18194
-7.08457
-6.9808
-6.87048
-6.75349
-6.62986
-6.49946
-6.36238
-6.21857
-6.068
-5.91065
-5.74651
-5.57561
-5.39798
-5.21367
-5.02274
-4.82528
-4.62138
-4.41116
-4.19476
-3.9723
-3.74396
-3.50992
-3.27035
-3.02546
-2.77548
-2.52062
-2.26113
-1.99726
-1.72929
-1.45747
-1.18209
-0.90344
-0.62182
-0.337528
-0.0508751
0.237829
0.528267
0.820124
1.11308
1.40682
1.70103
1.99539
2.28959
2.58333
2.8763
3.16822
3.45878
3.74772
4.03476
4.31964
4.60212
4.88194
5.15888
5.43272
5.70326
5.97031
6.23368
6.4932
6.74872
7.0001
7.2472
7.48991
7.72812
7.96173
8.19066
8.41482
8.63416
8.84863
9.05816
9.26274
9.4623
9.65677
9.8461
10.0302
10.2091
10.3828
10.5512
10.7146
10.8729
11.0264
11.1757
11.3221
11.466
11.6188
11.7565
-6.78908
-6.7909
-6.79306
-6.79488
-6.79614
-6.79707
-6.79789
-6.79877
-6.79982
-6.80112
-6.80273
-6.80469
-6.80702
-6.80976
-6.81294
-6.81657
-6.8207
-6.82535
-6.83055
-6.83632
-6.84271
-6.84974
-6.85745
-6.86586
-6.875
-6.88491
-6.89561
-6.90712
-6.91948
-6.93272
-6.94687
-6.96197
-6.97807
-6.99516
-7.01328
-7.03254
-7.05293
-7.07429
-7.0965
-7.11944
-7.1429
-7.16702
-7.19235
-7.21918
-7.24695
-7.2753
-7.30418
-7.3335
-7.36318
-7.39317
-7.42342
-7.45387
-7.48447
-7.51513
-7.54578
-7.57633
-7.60669
-7.63677
-7.66646
-7.69565
-7.72421
-7.75203
-7.77898
-7.80492
-7.8297
-7.85318
-7.8752
-7.8956
-7.91423
-7.9309
-7.94545
-7.9577
-7.96746
-7.97457
-7.97882
-7.98003
-7.97802
-7.97259
-7.96356
-7.95074
-7.93395
-7.91299
-7.8877
-7.85788
-7.82337
-7.784
-7.7396
-7.69001
-7.63507
-7.57463
-7.50856
-7.4367
-7.35894
-7.27514
-7.18517
-7.08894
-6.98632
-6.8772
-6.76149
-6.63916
-6.51018
-6.37453
-6.23216
-6.08304
-5.92715
-5.7645
-5.59509
-5.41896
-5.23615
-5.04674
-4.85079
-4.6484
-4.43969
-4.22478
-4.00382
-3.77695
-3.54436
-3.30623
-3.06276
-2.81416
-2.56066
-2.30251
-2.03994
-1.77322
-1.50262
-1.22842
-0.950906
-0.670375
-0.387125
-0.101463
0.186301
0.475853
0.766879
1.05906
1.35208
1.64563
1.93939
2.23305
2.5263
2.81885
3.1104
3.40066
3.68935
3.9762
4.26094
4.54334
4.82313
5.1001
5.37403
5.64469
5.91192
6.1755
6.43529
6.69112
6.94284
7.19031
7.43343
7.67207
7.90614
8.13554
8.3602
8.58007
8.79508
9.00517
9.21026
9.41029
9.60524
9.79509
9.97977
10.1593
10.3335
10.5027
10.6667
10.8258
10.9802
11.1303
11.2776
11.4216
11.5733
11.6988
-6.78324
-6.78589
-6.78918
-6.79197
-6.79397
-6.79545
-6.7967
-6.79791
-6.79922
-6.80073
-6.8025
-6.80459
-6.80704
-6.80988
-6.81315
-6.81688
-6.8211
-6.82583
-6.83112
-6.83698
-6.84345
-6.85056
-6.85834
-6.86683
-6.87606
-6.88606
-6.89685
-6.90847
-6.92094
-6.9343
-6.94857
-6.96378
-6.97996
-6.99712
-7.0153
-7.03452
-7.05474
-7.07587
-7.09786
-7.12064
-7.14417
-7.16854
-7.19394
-7.22037
-7.24759
-7.27543
-7.3038
-7.33263
-7.36186
-7.39144
-7.4213
-7.45139
-7.48164
-7.51197
-7.54231
-7.57257
-7.60267
-7.63251
-7.66198
-7.69097
-7.71937
-7.74706
-7.77389
-7.79974
-7.82447
-7.84793
-7.86995
-7.89039
-7.90908
-7.92585
-7.94052
-7.95292
-7.96287
-7.97019
-7.97468
-7.97616
-7.97445
-7.96936
-7.96069
-7.94826
-7.93189
-7.91138
-7.88656
-7.85725
-7.82328
-7.78447
-7.74067
-7.6917
-7.63741
-7.57765
-7.51228
-7.44116
-7.36415
-7.28113
-7.19197
-7.09656
-6.99479
-6.88656
-6.77181
-6.65046
-6.52247
-6.38781
-6.24644
-6.09833
-5.94345
-5.78181
-5.61343
-5.43832
-5.25655
-5.06816
-4.87324
-4.67188
-4.46419
-4.2503
-4.03034
-3.80447
-3.57287
-3.33571
-3.0932
-2.84554
-2.59297
-2.33571
-2.07402
-1.80816
-1.53839
-1.26499
-0.988252
-0.708464
-0.425926
-0.140943
0.146177
0.43512
0.725571
1.01722
1.30974
1.60283
1.89617
2.18945
2.48236
2.77461
3.06589
3.35593
3.64444
3.93115
4.2158
4.49813
4.7779
5.05488
5.32884
5.59959
5.86693
6.13066
6.39062
6.64665
6.8986
7.14633
7.38972
7.62866
7.86305
8.0928
8.31783
8.53807
8.75345
8.96389
9.16933
9.36968
9.56492
9.75507
9.94008
10.1199
10.2946
10.4641
10.6285
10.788
10.9428
11.0933
11.2406
11.3834
11.5323
11.646
-6.77806
-6.78144
-6.78575
-6.78948
-6.79223
-6.79433
-6.7961
-6.79775
-6.79943
-6.80126
-6.80331
-6.80565
-6.80834
-6.81141
-6.81489
-6.81883
-6.82325
-6.82818
-6.83367
-6.83973
-6.8464
-6.85372
-6.86172
-6.87043
-6.87987
-6.8901
-6.90112
-6.91298
-6.9257
-6.93931
-6.95382
-6.96927
-6.98566
-7.003
-7.02131
-7.04057
-7.06077
-7.08185
-7.10378
-7.12651
-7.15002
-7.17433
-7.19949
-7.2255
-7.25224
-7.27961
-7.30755
-7.33598
-7.36484
-7.39408
-7.42363
-7.45342
-7.4834
-7.51349
-7.54361
-7.57368
-7.6036
-7.63328
-7.66262
-7.69151
-7.71982
-7.74744
-7.77423
-7.80007
-7.8248
-7.84828
-7.87035
-7.89086
-7.90964
-7.92652
-7.94132
-7.95388
-7.96399
-7.9715
-7.9762
-7.97791
-7.97644
-7.9716
-7.96321
-7.95108
-7.93502
-7.91484
-7.89037
-7.86143
-7.82784
-7.78943
-7.74604
-7.69751
-7.64368
-7.58439
-7.51951
-7.4489
-7.37242
-7.28994
-7.20135
-7.10653
-7.00536
-6.89778
-6.78369
-6.66302
-6.53572
-6.40174
-6.26104
-6.1136
-5.9594
-5.79844
-5.63074
-5.45631
-5.27521
-5.0875
-4.89326
-4.69258
-4.48556
-4.27234
-4.05305
-3.82784
-3.59689
-3.36038
-3.1185
-2.87147
-2.61951
-2.36286
-2.10176
-1.83647
-1.56726
-1.2944
-1.01819
-0.738911
-0.45686
-0.172344
0.114331
0.40285
0.692901
0.984169
1.27634
1.5691
1.86214
2.15514
2.4478
2.73983
3.03091
3.32078
3.60915
3.89574
4.18029
4.46256
4.74229
5.01925
5.29323
5.56401
5.83141
6.09522
6.35528
6.61143
6.86352
7.11142
7.35499
7.59413
7.82874
8.05872
8.28398
8.50445
8.72006
8.93074
9.13639
9.33695
9.5324
9.72274
9.90796
10.088
10.2629
10.4327
10.5973
10.757
10.9119
11.0623
11.209
11.3502
11.496
11.5993
-6.77439
-6.77833
-6.78347
-6.78799
-6.79143
-6.79412
-6.79641
-6.79852
-6.80062
-6.80281
-6.80521
-6.80787
-6.81086
-6.81422
-6.81799
-6.8222
-6.8269
-6.83211
-6.83786
-6.8442
-6.85115
-6.85875
-6.86703
-6.87602
-6.88575
-6.89626
-6.90756
-6.9197
-6.93268
-6.94654
-6.96129
-6.97694
-6.99351
-7.01099
-7.02939
-7.04869
-7.06887
-7.08992
-7.11179
-7.13446
-7.15792
-7.18215
-7.20714
-7.23288
-7.25931
-7.28638
-7.31401
-7.34215
-7.37075
-7.39975
-7.42908
-7.45868
-7.48849
-7.51843
-7.54842
-7.57838
-7.60822
-7.63783
-7.66713
-7.69598
-7.72429
-7.75192
-7.77874
-7.80462
-7.82941
-7.85296
-7.87513
-7.89574
-7.91464
-7.93164
-7.94658
-7.95929
-7.96956
-7.97723
-7.98211
-7.984
-7.98273
-7.97809
-7.96991
-7.95799
-7.94215
-7.9222
-7.89797
-7.86927
-7.83594
-7.7978
-7.75468
-7.70643
-7.65289
-7.59392
-7.52936
-7.45908
-7.38294
-7.30082
-7.2126
-7.11816
-7.01741
-6.91024
-6.79658
-6.67634
-6.54948
-6.41592
-6.27565
-6.12863
-5.97485
-5.81431
-5.64702
-5.47301
-5.29233
-5.10504
-4.91122
-4.71095
-4.50436
-4.29155
-4.07268
-3.84789
-3.61735
-3.38125
-3.13978
-2.89315
-2.64159
-2.38533
-2.12461
-1.85971
-1.59087
-1.31839
-1.04253
-0.763597
-0.481884
-0.197693
0.0886666
0.376884
0.666645
0.957637
1.24955
1.54206
1.83486
2.12765
2.42011
2.71195
3.00288
3.2926
3.58083
3.86731
4.15176
4.43395
4.71362
4.99054
5.26449
5.53526
5.80265
6.06649
6.32659
6.5828
6.83496
7.08295
7.32662
7.56588
7.80061
8.03072
8.25612
8.47674
8.69249
8.90331
9.1091
9.3098
9.5054
9.69588
9.88124
10.0614
10.2365
10.4064
10.5711
10.7309
10.8857
11.0357
11.1816
11.3207
11.4637
11.5579
-6.77267
-6.77701
-6.78274
-6.78788
-6.79188
-6.79509
-6.79786
-6.80041
-6.80291
-6.80548
-6.80823
-6.81122
-6.81453
-6.81821
-6.82228
-6.8268
-6.8318
-6.83731
-6.84337
-6.85001
-6.85726
-6.86516
-6.87373
-6.88302
-6.89304
-6.90383
-6.9154
-6.9278
-6.94103
-6.95511
-6.97006
-6.98588
-7.00259
-7.02017
-7.03864
-7.05797
-7.07815
-7.09916
-7.12099
-7.14361
-7.167
-7.19114
-7.21602
-7.2416
-7.26786
-7.29474
-7.32219
-7.35016
-7.37861
-7.40747
-7.43669
-7.4662
-7.49593
-7.52581
-7.55577
-7.58571
-7.61555
-7.64518
-7.67451
-7.70341
-7.73178
-7.75949
-7.7864
-7.81237
-7.83727
-7.86094
-7.88323
-7.90397
-7.923
-7.94014
-7.95523
-7.96807
-7.97849
-7.9863
-7.99132
-7.99336
-7.99222
-7.98772
-7.97968
-7.9679
-7.95219
-7.93239
-7.90829
-7.87973
-7.84654
-7.80854
-7.76557
-7.71748
-7.6641
-7.60529
-7.5409
-7.4708
-7.39485
-7.31293
-7.22492
-7.1307
-7.03017
-6.92324
-6.80982
-6.68982
-6.56318
-6.42985
-6.2898
-6.143
-5.98943
-5.82911
-5.66203
-5.48824
-5.30777
-5.1207
-4.92709
-4.72705
-4.52068
-4.3081
-4.08946
-3.8649
-3.6346
-3.39873
-3.1575
-2.91111
-2.65979
-2.40377
-2.1433
-1.87864
-1.61004
-1.33779
-1.06218
-0.783481
-0.502
-0.218038
0.0680973
0.356094
0.645641
0.936424
1.22813
1.52045
1.81307
2.10567
2.39797
2.68964
2.98041
3.26999
3.55809
3.84445
4.1288
4.41088
4.69046
4.9673
5.24119
5.51191
5.77927
6.04308
6.30317
6.55938
6.81156
7.05957
7.30328
7.54258
7.77737
8.00754
8.23302
8.45371
8.66954
8.88043
9.08631
9.2871
9.48279
9.67337
9.85882
10.0391
10.2142
10.3842
10.5489
10.7086
10.8632
11.0126
11.1574
11.2946
11.4349
11.5212
-6.77312
-6.7777
-6.78379
-6.78934
-6.79377
-6.79739
-6.80055
-6.80348
-6.80634
-6.80925
-6.81232
-6.81564
-6.81925
-6.82322
-6.82759
-6.8324
-6.83769
-6.84348
-6.84983
-6.85675
-6.86428
-6.87245
-6.88129
-6.89084
-6.90111
-6.91214
-6.92395
-6.93656
-6.94999
-6.96425
-6.97935
-6.99531
-7.01212
-7.02978
-7.04829
-7.06765
-7.08784
-7.10884
-7.13064
-7.15323
-7.17657
-7.20066
-7.22548
-7.25099
-7.27716
-7.30395
-7.33133
-7.35923
-7.38763
-7.41645
-7.44565
-7.47516
-7.50491
-7.53482
-7.56483
-7.59483
-7.62475
-7.65447
-7.6839
-7.71292
-7.74141
-7.76924
-7.79628
-7.8224
-7.84744
-7.87125
-7.89368
-7.91456
-7.93372
-7.951
-7.96621
-7.97917
-7.9897
-7.99762
-8.00274
-8.00487
-8.00381
-7.99939
-7.99141
-7.97969
-7.96404
-7.94428
-7.92023
-7.89172
-7.85856
-7.8206
-7.77766
-7.7296
-7.67626
-7.6175
-7.55316
-7.48311
-7.40722
-7.32537
-7.23743
-7.14329
-7.04285
-6.936
-6.82264
-6.70271
-6.57614
-6.44288
-6.30288
-6.15614
-6.00262
-5.84235
-5.67533
-5.50159
-5.32119
-5.13418
-4.94065
-4.74068
-4.53439
-4.3219
-4.10335
-3.87889
-3.6487
-3.41294
-3.17183
-2.92557
-2.67438
-2.41849
-2.15816
-1.89365
-1.6252
-1.35311
-1.07766
-0.799122
-0.517806
-0.234011
0.0519551
0.339782
0.629159
0.919771
1.21131
1.50346
1.79591
2.08835
2.38049
2.67201
2.96263
3.25205
3.54001
3.82623
4.11044
4.3924
4.67187
4.94861
5.2224
5.49303
5.76031
6.02405
6.28409
6.54024
6.79238
7.04036
7.28406
7.52335
7.75814
7.98832
8.21381
8.43452
8.65038
8.8613
9.06722
9.26807
9.46381
9.65445
9.83994
10.0203
10.1954
10.3653
10.53
10.6895
10.8437
10.9925
11.1361
11.2712
11.4092
11.4886
-6.77576
-6.7804
-6.78664
-6.79241
-6.79711
-6.80103
-6.80449
-6.80771
-6.81085
-6.81405
-6.81739
-6.82096
-6.82483
-6.82905
-6.83366
-6.83871
-6.84423
-6.85026
-6.85684
-6.86398
-6.87174
-6.88013
-6.88918
-6.89893
-6.9094
-6.92062
-6.9326
-6.94537
-6.95894
-6.97332
-6.98853
-7.00458
-7.02146
-7.03918
-7.05773
-7.07711
-7.09731
-7.11832
-7.14012
-7.1627
-7.18605
-7.21013
-7.23494
-7.26044
-7.28661
-7.31341
-7.34079
-7.36873
-7.39716
-7.42603
-7.4553
-7.48488
-7.51473
-7.54475
-7.57487
-7.60501
-7.63506
-7.66494
-7.69452
-7.72369
-7.75234
-7.78033
-7.80754
-7.83381
-7.859
-7.88296
-7.90552
-7.92653
-7.94581
-7.96319
-7.9785
-7.99154
-8.00214
-8.01011
-8.01527
-8.01742
-8.01638
-8.01196
-8.00397
-7.99223
-7.97655
-7.95675
-7.93265
-7.90407
-7.87086
-7.83283
-7.78983
-7.74171
-7.6883
-7.62947
-7.56507
-7.49497
-7.41904
-7.33714
-7.24917
-7.15499
-7.05451
-6.9476
-6.83419
-6.71419
-6.58756
-6.45422
-6.31416
-6.16735
-6.01377
-5.85343
-5.68634
-5.51255
-5.3321
-5.14505
-4.95148
-4.75149
-4.54518
-4.33268
-4.11413
-3.88968
-3.65951
-3.42379
-3.18272
-2.93651
-2.68538
-2.42957
-2.16933
-1.9049
-1.63656
-1.36458
-1.08924
-0.810829
-0.529646
-0.24599
0.0398308
0.327508
0.61673
0.907185
1.19856
1.49054
1.78282
2.07509
2.36705
2.6584
2.94885
3.23811
3.5259
3.81196
4.09602
4.37782
4.65714
4.93373
5.20739
5.47789
5.74505
6.00868
6.2686
6.52467
6.77672
7.02462
7.26825
7.50749
7.74222
7.97237
8.19783
8.41852
8.63436
8.84527
9.05119
9.25206
9.44783
9.63848
9.82399
10.0043
10.1794
10.3493
10.5138
10.673
10.8268
10.9748
11.1172
11.2503
11.3861
11.4597
-6.78041
-6.78499
-6.79119
-6.797
-6.80182
-6.8059
-6.80955
-6.81297
-6.81632
-6.8197
-6.82323
-6.82699
-6.83103
-6.83542
-6.8402
-6.84541
-6.85109
-6.85728
-6.86401
-6.87131
-6.87921
-6.88774
-6.89694
-6.90682
-6.91742
-6.92875
-6.94084
-6.9537
-6.96736
-6.98182
-6.9971
-7.0132
-7.03013
-7.04788
-7.06647
-7.08588
-7.1061
-7.12714
-7.14897
-7.17158
-7.19496
-7.21909
-7.24395
-7.2695
-7.29574
-7.32261
-7.35008
-7.37811
-7.40665
-7.43565
-7.46504
-7.49477
-7.52477
-7.55496
-7.58525
-7.61556
-7.64579
-7.67584
-7.7056
-7.73495
-7.76377
-7.79192
-7.81928
-7.8457
-7.87102
-7.8951
-7.91777
-7.93886
-7.95822
-7.97565
-7.99099
-8.00405
-8.01465
-8.02261
-8.02773
-8.02983
-8.02872
-8.02421
-8.01612
-8.00427
-7.98846
-7.96853
-7.94429
-7.91557
-7.8822
-7.84402
-7.80087
-7.75258
-7.69903
-7.64005
-7.5755
-7.50526
-7.42919
-7.34717
-7.25907
-7.16475
-7.06411
-6.95705
-6.84348
-6.72332
-6.59651
-6.46302
-6.32279
-6.17582
-6.02208
-5.86159
-5.69437
-5.52045
-5.33987
-5.15271
-4.95904
-4.75896
-4.55257
-4.34001
-4.12141
-3.89693
-3.66674
-3.43101
-3.18995
-2.94376
-2.69267
-2.4369
-2.17672
-1.91237
-1.64411
-1.37223
-1.097
-0.818709
-0.537661
-0.254152
0.031514
0.319029
0.608081
0.89836
1.18955
1.48135
1.77343
2.06551
2.35727
2.64842
2.93867
3.22772
3.51531
3.80116
4.08502
4.36663
4.64575
4.92216
5.19563
5.46596
5.73295
5.99642
6.25619
6.51211
6.76403
7.01181
7.25532
7.49446
7.7291
7.95917
8.18456
8.40519
8.62098
8.83185
9.03774
9.23859
9.43435
9.625
9.81049
9.99078
10.1658
10.3356
10.4999
10.6588
10.812
10.9592
11.1003
11.2315
11.3653
11.4341
-6.78683
-6.79123
-6.79724
-6.80294
-6.80774
-6.81186
-6.81558
-6.81909
-6.82252
-6.826
-6.82962
-6.83345
-6.83758
-6.84204
-6.84689
-6.85218
-6.85793
-6.86418
-6.87097
-6.87833
-6.8863
-6.89489
-6.90414
-6.91408
-6.92473
-6.93611
-6.94824
-6.96115
-6.97484
-6.98934
-7.00465
-7.02078
-7.03773
-7.05552
-7.07413
-7.09357
-7.11384
-7.13492
-7.1568
-7.17948
-7.20294
-7.22715
-7.25211
-7.27777
-7.30412
-7.33112
-7.35873
-7.38691
-7.41561
-7.44477
-7.47434
-7.50426
-7.53444
-7.56481
-7.59529
-7.62578
-7.65619
-7.68641
-7.71634
-7.74584
-7.7748
-7.80308
-7.83055
-7.85706
-7.88246
-7.9066
-7.9293
-7.95041
-7.96976
-7.98717
-8.00246
-8.01545
-8.02595
-8.03379
-8.03878
-8.04073
-8.03945
-8.03477
-8.02648
-8.01442
-7.9984
-7.97824
-7.95378
-7.92482
-7.89122
-7.85281
-7.80943
-7.76092
-7.70714
-7.64794
-7.58319
-7.51275
-7.43649
-7.35427
-7.26595
-7.17141
-7.07053
-6.96323
-6.84941
-6.72902
-6.60198
-6.46826
-6.32782
-6.18063
-6.02669
-5.86601
-5.6986
-5.52451
-5.34378
-5.15647
-4.96268
-4.76248
-4.556
-4.34336
-4.1247
-3.90018
-3.66995
-3.43422
-3.19317
-2.94701
-2.69596
-2.44026
-2.18015
-1.91589
-1.64775
-1.37598
-1.10089
-0.82275
-0.541866
-0.258533
0.0269464
0.314264
0.60311
0.893174
1.18414
1.47571
1.76755
2.05939
2.3509
2.6418
2.93179
3.22059
3.50792
3.79352
4.07713
4.35849
4.63736
4.91353
5.18676
5.45686
5.72363
5.98688
6.24646
6.50218
6.75392
7.00153
7.24489
7.48388
7.71839
7.94833
8.17361
8.39415
8.60985
8.82066
9.0265
9.2273
9.42304
9.61365
9.7991
9.97934
10.1543
10.3239
10.488
10.6465
10.7991
10.9454
11.0852
11.2147
11.3466
11.4113
-6.79472
-6.79887
-6.80455
-6.81001
-6.81467
-6.81871
-6.82238
-6.82584
-6.82925
-6.83269
-6.83628
-6.84009
-6.84418
-6.84861
-6.85342
-6.85867
-6.86438
-6.8706
-6.87737
-6.8847
-6.89264
-6.90121
-6.91044
-6.92036
-6.93099
-6.94236
-6.95448
-6.96738
-6.98107
-6.99556
-7.01087
-7.02701
-7.04398
-7.06179
-7.08044
-7.09992
-7.12023
-7.14138
-7.16334
-7.18611
-7.20966
-7.23399
-7.25907
-7.28487
-7.31137
-7.33853
-7.3663
-7.39465
-7.42352
-7.45286
-7.48261
-7.51269
-7.54304
-7.57358
-7.60421
-7.63485
-7.66539
-7.69573
-7.72575
-7.75534
-7.78437
-7.81269
-7.84018
-7.86669
-7.89206
-7.91614
-7.93878
-7.95979
-7.97902
-7.99628
-8.0114
-8.0242
-8.0345
-8.04212
-8.04686
-8.04855
-8.047
-8.04203
-8.03346
-8.0211
-8.00478
-7.98432
-7.95955
-7.93029
-7.8964
-7.85769
-7.81403
-7.76524
-7.7112
-7.65174
-7.58675
-7.51607
-7.43958
-7.35709
-7.26849
-7.17365
-7.07249
-6.9649
-6.85081
-6.73014
-6.60284
-6.46887
-6.32818
-6.18076
-6.02661
-5.86573
-5.69815
-5.52389
-5.34301
-5.15558
-4.96167
-4.76139
-4.55483
-4.34214
-4.12345
-3.89891
-3.66869
-3.43298
-3.19198
-2.94589
-2.69493
-2.43933
-2.17935
-1.91523
-1.64724
-1.37565
-1.10075
-0.822814
-0.542151
-0.259053
0.0261777
0.313235
0.601811
0.891593
1.18227
1.47354
1.76508
2.0566
2.3478
2.63838
2.92805
3.21653
3.50354
3.78882
4.07211
4.35315
4.63172
4.90758
5.18052
5.45033
5.71682
5.97981
6.23912
6.4946
6.74611
6.9935
7.23665
7.47545
7.70979
7.93958
8.16472
8.38512
8.60072
8.81143
9.01719
9.21794
9.41362
9.60418
9.78957
9.96973
10.1446
10.314
10.4778
10.6359
10.7879
10.9332
11.0719
11.1996
11.3297
11.3911
-6.80378
-6.80763
-6.81293
-6.81805
-6.82244
-6.82627
-6.82974
-6.83303
-6.83626
-6.83954
-6.84297
-6.84661
-6.85054
-6.85481
-6.85947
-6.86457
-6.87015
-6.87624
-6.88287
-6.89009
-6.89792
-6.90639
-6.91553
-6.92537
-6.93592
-6.94722
-6.95929
-6.97213
-6.98578
-7.00025
-7.01554
-7.03166
-7.04863
-7.06645
-7.08513
-7.10465
-7.12502
-7.14623
-7.16827
-7.19113
-7.21479
-7.23923
-7.26444
-7.29037
-7.31701
-7.3443
-7.37221
-7.4007
-7.4297
-7.45917
-7.48903
-7.51922
-7.54966
-7.58027
-7.61096
-7.64164
-7.6722
-7.70254
-7.73253
-7.76207
-7.79102
-7.81924
-7.8466
-7.87296
-7.89816
-7.92204
-7.94445
-7.96522
-7.98418
-8.00116
-8.01598
-8.02846
-8.03843
-8.04569
-8.05008
-8.05141
-8.04949
-8.04414
-8.03519
-8.02246
-8.00577
-7.98495
-7.95983
-7.93024
-7.89602
-7.857
-7.81304
-7.76397
-7.70966
-7.64995
-7.58472
-7.51379
-7.437
-7.3542
-7.26529
-7.17015
-7.06869
-6.96081
-6.84644
-6.72551
-6.59796
-6.46375
-6.32284
-6.17522
-6.02089
-5.85985
-5.69212
-5.51774
-5.33675
-5.14924
-4.95527
-4.75495
-4.54838
-4.3357
-4.11703
-3.89255
-3.6624
-3.42679
-3.18591
-2.93996
-2.68916
-2.43375
-2.17397
-1.91008
-1.64233
-1.371
-1.09637
-0.818735
-0.538379
-0.255603
0.0292924
0.316002
0.604219
0.893632
1.18393
1.47481
1.76597
2.05709
2.34789
2.63807
2.92734
3.21541
3.50202
3.7869
4.0698
4.35045
4.62864
4.90413
5.1767
5.44616
5.7123
5.97496
6.23396
6.48914
6.74036
6.98749
7.23039
7.46896
7.70309
7.93269
8.15765
8.3779
8.59336
8.80396
9.00962
9.21029
9.4059
9.5964
9.78172
9.96178
10.1365
10.3057
10.4692
10.6269
10.7782
10.9227
11.0601
11.1862
11.3145
11.3733
-6.81382
-6.81736
-6.82222
-6.82692
-6.83093
-6.8344
-6.83752
-6.84047
-6.84336
-6.8463
-6.8494
-6.85273
-6.85636
-6.86035
-6.86474
-6.86958
-6.87491
-6.88077
-6.8872
-6.89422
-6.90187
-6.91017
-6.91915
-6.92885
-6.93927
-6.95046
-6.96242
-6.97517
-6.98874
-7.00314
-7.01838
-7.03447
-7.05141
-7.06922
-7.0879
-7.10743
-7.12783
-7.14907
-7.17116
-7.19407
-7.21779
-7.2423
-7.26756
-7.29356
-7.32024
-7.34758
-7.37553
-7.40404
-7.43305
-7.4625
-7.49233
-7.52247
-7.55283
-7.58335
-7.61392
-7.64444
-7.67483
-7.70497
-7.73475
-7.76404
-7.79272
-7.82065
-7.84771
-7.87373
-7.89858
-7.9221
-7.94412
-7.96449
-7.98304
-7.9996
-8.01399
-8.02603
-8.03555
-8.04238
-8.04632
-8.0472
-8.04484
-8.03907
-8.0297
-8.01656
-7.99948
-7.97829
-7.95281
-7.92289
-7.88835
-7.84904
-7.8048
-7.75549
-7.70095
-7.64103
-7.57554
-7.50432
-7.42721
-7.34411
-7.2549
-7.15948
-7.05775
-6.94962
-6.83502
-6.71387
-6.58613
-6.45174
-6.31068
-6.16294
-6.0085
-5.84737
-5.67957
-5.50515
-5.32416
-5.13665
-4.94272
-4.74246
-4.53597
-4.3234
-4.10487
-3.88054
-3.65058
-3.41517
-3.17452
-2.92882
-2.6783
-2.42318
-2.16372
-1.90016
-1.63277
-1.36181
-1.08758
-0.810345
-0.53041
-0.248068
0.0363798
0.322631
0.610378
0.899314
1.18913
1.47952
1.77018
2.0608
2.3511
2.64078
2.92955
3.21713
3.50324
3.78764
4.07005
4.35023
4.62796
4.90299
5.17513
5.44416
5.7099
5.97216
6.23079
6.48562
6.7365
6.98331
7.22592
7.46422
7.6981
7.92747
8.15223
8.3723
8.58761
8.79807
9.00363
9.2042
9.39974
9.59016
9.7754
9.95536
10.1299
10.2989
10.4622
10.6193
10.77
10.9136
11.0498
11.1744
11.301
11.3579
-6.82513
-6.82838
-6.83279
-6.83697
-6.84045
-6.84336
-6.84591
-6.84829
-6.85061
-6.85301
-6.85559
-6.85842
-6.86159
-6.86514
-6.86912
-6.87358
-6.87856
-6.8841
-6.89022
-6.89695
-6.90434
-6.91239
-6.92115
-6.93063
-6.94086
-6.95186
-6.96365
-6.97625
-6.98967
-7.00393
-7.01905
-7.03502
-7.05186
-7.06957
-7.08815
-7.1076
-7.12792
-7.14908
-7.17108
-7.19391
-7.21754
-7.24194
-7.26709
-7.29296
-7.3195
-7.34668
-7.37444
-7.40274
-7.43152
-7.46072
-7.49027
-7.52011
-7.55014
-7.5803
-7.61049
-7.64062
-7.67059
-7.70029
-7.72961
-7.75842
-7.78661
-7.81404
-7.84058
-7.86608
-7.8904
-7.91337
-7.93486
-7.95469
-7.97269
-7.98871
-8.00256
-8.01407
-8.02307
-8.02938
-8.03283
-8.03323
-8.03041
-8.02419
-8.0144
-8.00086
-7.98341
-7.96188
-7.93609
-7.90588
-7.87109
-7.83156
-7.78715
-7.73768
-7.68297
-7.62282
-7.55707
-7.48557
-7.4082
-7.32485
-7.23542
-7.1398
-7.03789
-6.92961
-6.81487
-6.69361
-6.56578
-6.43133
-6.29023
-6.14247
-5.98804
-5.82696
-5.65923
-5.4849
-5.30403
-5.11667
-4.92291
-4.72285
-4.51659
-4.30427
-4.08602
-3.862
-3.63237
-3.39732
-3.15705
-2.91176
-2.66166
-2.407
-2.14801
-1.88494
-1.61805
-1.34763
-1.07393
-0.797259
-0.517895
-0.236137
0.0477169
0.333364
0.620499