/*--------------------------------*- C++ -*----------------------------------*\
  =========                 |
  \\      /  F ield         | OpenFOAM: The Open Source CFD Toolbox
   \\    /   O peration     | Website:  https://openfoam.org
    \\  /    A nd           | Version:  9
     \\/     M anipulation  |
\*---------------------------------------------------------------------------*/
FoamFile
{
    format      ascii;
    class       surfaceScalarField;
    location    "0.21";
    object      phi;
}
// * * * * * * * * * * * * * * * * * * * * * * * * * * * * * * * * * * * * * //

dimensions      [0 3 -1 0 0 0 0];

internalField   nonuniform List<scalar> 
24170
(
3.1336e-06
5.48066e-08
3.04827e-06
8.53273e-08
2.97315e-06
7.51251e-08
2.90431e-06
6.8838e-08
2.83948e-06
6.48318e-08
2.78225e-06
5.72248e-08
2.73335e-06
4.89036e-08
2.69182e-06
4.1529e-08
2.65637e-06
3.54448e-08
2.62585e-06
3.05286e-08
2.59927e-06
2.65809e-08
2.57583e-06
2.34378e-08
2.55485e-06
2.09807e-08
2.53565e-06
1.91962e-08
2.5176e-06
1.80534e-08
2.49891e-06
1.8686e-08
2.47833e-06
2.05802e-08
3.77921e-08
2.44054e-06
3.45361e-06
1.84447e-08
3.45616e-06
8.27742e-08
3.44962e-06
8.16702e-08
3.438e-06
8.04601e-08
3.42351e-06
7.93211e-08
3.40597e-06
7.4767e-08
3.38633e-06
6.85349e-08
3.36543e-06
6.24351e-08
3.34402e-06
5.68548e-08
3.32271e-06
5.18364e-08
3.3019e-06
4.73879e-08
3.28182e-06
4.35191e-08
3.26258e-06
4.02231e-08
3.24417e-06
3.76101e-08
3.22663e-06
3.55936e-08
3.2098e-06
3.55116e-08
3.19459e-06
3.57926e-08
4.6e-08
3.18638e-06
3.66535e-06
1.56081e-08
3.67825e-06
6.98753e-08
3.68531e-06
7.46096e-08
3.68959e-06
7.61788e-08
3.69127e-06
7.76486e-08
3.69013e-06
7.59004e-08
3.68668e-06
7.19885e-08
3.68148e-06
6.7633e-08
3.67497e-06
6.33708e-08
3.66748e-06
5.93209e-08
3.65931e-06
5.55599e-08
3.65066e-06
5.21663e-08
3.64169e-06
4.91953e-08
3.6325e-06
4.67966e-08
3.6231e-06
4.49952e-08
3.61392e-06
4.46961e-08
3.60461e-06
4.50965e-08
4.97271e-08
3.60089e-06
3.92465e-06
1.63476e-08
3.9358e-06
5.87238e-08
3.94254e-06
6.78662e-08
3.94802e-06
7.07034e-08
3.95243e-06
7.32378e-08
3.95535e-06
7.29815e-08
3.9569e-06
7.04374e-08
3.95738e-06
6.71528e-08
3.95698e-06
6.37731e-08
3.95584e-06
6.04576e-08
3.9541e-06
5.73004e-08
3.95186e-06
5.44022e-08
3.94921e-06
5.18463e-08
3.94623e-06
4.97763e-08
3.94296e-06
4.82704e-08
3.93982e-06
4.7832e-08
3.93683e-06
4.80891e-08
4.99947e-08
3.93656e-06
4.20777e-06
1.57074e-08
4.216e-06
5.04921e-08
4.22166e-06
6.22026e-08
4.22659e-06
6.57717e-08
4.23129e-06
6.85395e-08
4.23525e-06
6.90257e-08
4.23834e-06
6.73432e-08
4.24071e-06
6.47847e-08
4.24246e-06
6.2021e-08
4.24368e-06
5.92363e-08
4.24445e-06
5.65317e-08
4.24484e-06
5.40166e-08
4.2449e-06
5.17854e-08
4.24472e-06
4.99604e-08
4.24436e-06
4.86205e-08
4.24419e-06
4.80111e-08
4.24436e-06
4.79113e-08
4.83616e-08
4.246e-06
4.51044e-06
1.43547e-08
4.51686e-06
4.40697e-08
4.52217e-06
5.68915e-08
4.52683e-06
6.11126e-08
4.53144e-06
6.39268e-08
4.53564e-06
6.48355e-08
4.53922e-06
6.37602e-08
4.54226e-06
6.17421e-08
4.54484e-06
5.94379e-08
4.54702e-06
5.70553e-08
4.54886e-06
5.47011e-08
4.55039e-06
5.24852e-08
4.55167e-06
5.05016e-08
4.55278e-06
4.88463e-08
4.55383e-06
4.75759e-08
4.55506e-06
4.67839e-08
4.55668e-06
4.62919e-08
4.58645e-08
4.55917e-06
4.83412e-06
1.29538e-08
4.83958e-06
3.86107e-08
4.84483e-06
5.16398e-08
4.84942e-06
5.65226e-08
4.85393e-06
5.94176e-08
4.85816e-06
6.06075e-08
4.86192e-06
5.99961e-08
4.86526e-06
5.84089e-08
4.86822e-06
5.64697e-08
4.87087e-06
5.4408e-08
4.87324e-06
5.23362e-08
4.87536e-06
5.03594e-08
4.8773e-06
4.85646e-08
4.87912e-06
4.70226e-08
4.88094e-06
4.57638e-08
4.88292e-06
4.47971e-08
4.88525e-06
4.39628e-08
4.29961e-08
4.88812e-06
5.1809e-06
1.1634e-08
5.18571e-06
3.3806e-08
5.19084e-06
4.65057e-08
5.19542e-06
5.1944e-08
5.19988e-06
5.49545e-08
5.20414e-06
5.63482e-08
5.20802e-06
5.61137e-08
5.21154e-06
5.48954e-08
5.21474e-06
5.32677e-08
5.21767e-06
5.14776e-08
5.22036e-06
4.9643e-08
5.22286e-06
4.78625e-08
5.22521e-06
4.62134e-08
5.22749e-06
4.47463e-08
5.22978e-06
4.34697e-08
5.23223e-06
4.2352e-08
5.23493e-06
4.12544e-08
3.99632e-08
5.23797e-06
5.5526e-06
1.03708e-08
5.55685e-06
2.95562e-08
5.56177e-06
4.15884e-08
5.56633e-06
4.73772e-08
5.57079e-06
5.04984e-08
5.5751e-06
5.20413e-08
5.57909e-06
5.21183e-08
5.58276e-06
5.12275e-08
5.58615e-06
4.98792e-08
5.5893e-06
4.83297e-08
5.59224e-06
4.67023e-08
5.59501e-06
4.5089e-08
5.59767e-06
4.35572e-08
5.60027e-06
4.21427e-08
5.6029e-06
4.08411e-08
5.60564e-06
3.9607e-08
5.60857e-06
3.83277e-08
3.68548e-08
5.61168e-06
5.95099e-06
9.16101e-09
5.95476e-06
2.57844e-08
5.95941e-06
3.69331e-08
5.96395e-06
4.28432e-08
5.9684e-06
4.60419e-08
5.97276e-06
4.7688e-08
5.97686e-06
4.80147e-08
5.98068e-06
4.74118e-08
5.98424e-06
4.63169e-08
5.98758e-06
4.49853e-08
5.99074e-06
4.35443e-08
5.99375e-06
4.2079e-08
5.99666e-06
4.06481e-08
5.99952e-06
3.92785e-08
6.0024e-06
3.79606e-08
6.00536e-06
3.66506e-08
6.00842e-06
3.52638e-08
3.37091e-08
6.01157e-06
6.37796e-06
8.01803e-09
6.38133e-06
2.24128e-08
6.38571e-06
3.25486e-08
6.39019e-06
3.83669e-08
6.39464e-06
4.15905e-08
6.39903e-06
4.32984e-08
6.40323e-06
4.38131e-08
6.40719e-06
4.34537e-08
6.41092e-06
4.25859e-08
6.41445e-06
4.14524e-08
6.41782e-06
4.0181e-08
6.42104e-06
3.88509e-08
6.42418e-06
3.75139e-08
6.42726e-06
3.6192e-08
6.43035e-06
3.48766e-08
6.43347e-06
3.35332e-08
6.43663e-06
3.21032e-08
3.05387e-08
6.4398e-06
5.74175e-06
7.10353e-09
5.74433e-06
1.98285e-08
5.74783e-06
2.90496e-08
5.75156e-06
3.46422e-08
5.75531e-06
3.78361e-08
5.75904e-06
3.95677e-08
5.76266e-06
4.01954e-08
5.76611e-06
4.00043e-08
5.76939e-06
3.93065e-08
5.77252e-06
3.83255e-08
5.77551e-06
3.71863e-08
5.7784e-06
3.5964e-08
5.78121e-06
3.47056e-08
5.78397e-06
3.34316e-08
5.78671e-06
3.21367e-08
5.78944e-06
3.07967e-08
5.79217e-06
2.93713e-08
2.78408e-08
5.79487e-06
6.99913e-06
6.12624e-09
7.00187e-06
1.70952e-08
7.00565e-06
2.52634e-08
7.00982e-06
3.04775e-08
7.01409e-06
3.35588e-08
7.01839e-06
3.52718e-08
7.0226e-06
3.59823e-08
7.02666e-06
3.59433e-08
7.03056e-06
3.54126e-08
7.0343e-06
3.45883e-08
7.03789e-06
3.3589e-08
7.04137e-06
3.24848e-08
7.04476e-06
3.13187e-08
7.04808e-06
3.01112e-08
7.05135e-06
2.88625e-08
7.05459e-06
2.75595e-08
7.05778e-06
2.61793e-08
2.47237e-08
7.0609e-06
8.53188e-06
5.09537e-09
8.53473e-06
1.42393e-08
8.53878e-06
2.1217e-08
8.54338e-06
2.58789e-08
8.5482e-06
2.87355e-08
8.55311e-06
3.03671e-08
8.55798e-06
3.11129e-08
8.56272e-06
3.11944e-08
8.56732e-06
3.08171e-08
8.57176e-06
3.01479e-08
8.57606e-06
2.92939e-08
8.58022e-06
2.83197e-08
8.58427e-06
2.72648e-08
8.58824e-06
2.61503e-08
8.59212e-06
2.49826e-08
8.59592e-06
2.37595e-08
8.59962e-06
2.24719e-08
2.11361e-08
8.60321e-06
1.04003e-05
4.02146e-09
1.04033e-05
1.12784e-08
1.04075e-05
1.69289e-08
1.04126e-05
2.08525e-08
1.0418e-05
2.33444e-08
1.04235e-05
2.48076e-08
1.04291e-05
2.55235e-08
1.04346e-05
2.56778e-08
1.044e-05
2.54281e-08
1.04453e-05
2.49054e-08
1.04503e-05
2.42007e-08
1.04553e-05
2.33708e-08
1.04601e-05
2.24516e-08
1.04648e-05
2.14646e-08
1.04694e-05
2.04211e-08
1.04738e-05
1.93273e-08
1.04781e-05
1.81838e-08
1.70146e-08
1.04822e-05
1.26779e-05
2.91009e-09
1.2681e-05
8.20404e-09
1.26855e-05
1.23905e-08
1.2691e-05
1.53867e-08
1.2697e-05
1.73507e-08
1.27032e-05
1.85332e-08
1.27096e-05
1.91372e-08
1.2716e-05
1.93034e-08
1.27223e-05
1.91443e-08
1.27284e-05
1.8754e-08
1.27344e-05
1.82018e-08
1.27403e-05
1.75339e-08
1.2746e-05
1.67805e-08
1.27515e-05
1.5962e-08
1.27568e-05
1.5092e-08
1.27619e-05
1.41808e-08
1.27669e-05
1.32344e-08
1.22788e-08
1.27716e-05
1.54543e-05
1.75013e-09
1.54576e-05
4.96523e-09
1.54624e-05
7.53444e-09
1.54684e-05
9.41126e-09
1.54751e-05
1.06701e-08
1.54822e-05
1.1441e-08
1.54895e-05
1.18391e-08
1.54968e-05
1.19497e-08
1.55041e-05
1.184e-08
1.55113e-05
1.15665e-08
1.55184e-05
1.11725e-08
1.55252e-05
1.06889e-08
1.55318e-05
1.01374e-08
1.55383e-05
9.53366e-09
1.55445e-05
8.88994e-09
1.55504e-05
8.21663e-09
1.55562e-05
7.52056e-09
6.82582e-09
1.55616e-05
1.88389e-05
5.00111e-10
1.88424e-05
1.4308e-09
1.88478e-05
2.17449e-09
1.88545e-05
2.72063e-09
1.88621e-05
3.09106e-09
1.88702e-05
3.31523e-09
1.88786e-05
3.41569e-09
1.88871e-05
3.41115e-09
1.88957e-05
3.31985e-09
1.89041e-05
3.15813e-09
1.89123e-05
2.93903e-09
1.89203e-05
2.67287e-09
1.89281e-05
2.36822e-09
1.89356e-05
2.03255e-09
1.89428e-05
1.67258e-09
1.89497e-05
1.2951e-09
1.89563e-05
9.0461e-10
5.20153e-10
1.89626e-05
2.29648e-05
-9.47002e-10
2.29689e-05
-2.7008e-09
2.29752e-05
-4.12656e-09
2.29831e-05
-5.18151e-09
2.29921e-05
-5.88236e-09
2.30017e-05
-6.31575e-09
2.30117e-05
-6.57496e-09
2.30218e-05
-6.71868e-09
2.30319e-05
-6.78364e-09
2.30419e-05
-6.80106e-09
2.30516e-05
-6.7961e-09
2.30611e-05
-6.7848e-09
2.30702e-05
-6.7759e-09
2.30791e-05
-6.77392e-09
2.30875e-05
-6.78081e-09
2.30956e-05
-6.79624e-09
2.31033e-05
-6.82004e-09
-6.84003e-09
2.31107e-05
1.68119e-05
-2.09216e-09
1.68151e-05
-5.93482e-09
1.682e-05
-9.05352e-09
1.68261e-05
-1.13041e-08
1.6833e-05
-1.27352e-08
1.68403e-05
-1.35811e-08
1.68477e-05
-1.40456e-08
1.68552e-05
-1.4237e-08
1.68627e-05
-1.42301e-08
1.687e-05
-1.40956e-08
1.68771e-05
-1.38883e-08
1.68839e-05
-1.36423e-08
1.68905e-05
-1.33783e-08
1.68969e-05
-1.31095e-08
1.69029e-05
-1.28439e-08
1.69087e-05
-1.25855e-08
1.69142e-05
-1.23367e-08
-1.20896e-08
1.69195e-05
1.46357e-05
-3.20078e-09
1.46388e-05
-9.09343e-09
1.46437e-05
-1.38764e-08
1.46495e-05
-1.71843e-08
1.4656e-05
-1.91633e-08
1.46627e-05
-2.02879e-08
1.46695e-05
-2.08605e-08
1.46763e-05
-2.10153e-08
1.46829e-05
-2.08721e-08
1.46894e-05
-2.05471e-08
1.46956e-05
-2.01195e-08
1.47016e-05
-1.96346e-08
1.47073e-05
-1.91213e-08
1.47128e-05
-1.85996e-08
1.47181e-05
-1.80822e-08
1.4723e-05
-1.75759e-08
1.47278e-05
-1.70846e-08
-1.6603e-08
1.47323e-05
1.27412e-05
-4.24881e-09
1.27444e-05
-1.23032e-08
1.27493e-05
-1.88327e-08
1.27551e-05
-2.29765e-08
1.27612e-05
-2.52745e-08
1.27675e-05
-2.65715e-08
1.27738e-05
-2.71717e-08
1.278e-05
-2.72019e-08
1.2786e-05
-2.68538e-08
1.27918e-05
-2.62986e-08
1.27973e-05
-2.56314e-08
1.28025e-05
-2.49016e-08
1.28076e-05
-2.41436e-08
1.28123e-05
-2.33819e-08
1.28169e-05
-2.26316e-08
1.28212e-05
-2.19002e-08
1.28253e-05
-2.11917e-08
-2.0502e-08
1.28292e-05
1.10918e-05
-5.12578e-09
1.10951e-05
-1.56243e-08
1.11004e-05
-2.41265e-08
1.11062e-05
-2.87557e-08
1.1112e-05
-3.11123e-08
1.1118e-05
-3.24861e-08
1.11238e-05
-3.30252e-08
1.11295e-05
-3.28486e-08
1.11348e-05
-3.22481e-08
1.114e-05
-3.14399e-08
1.11449e-05
-3.05214e-08
1.11495e-05
-2.95436e-08
1.11539e-05
-2.85464e-08
1.11581e-05
-2.75571e-08
1.11621e-05
-2.65907e-08
1.11658e-05
-2.5654e-08
1.11694e-05
-2.47503e-08
-2.3876e-08
1.11727e-05
9.65583e-06
-5.7395e-09
9.65935e-06
-1.91473e-08
9.66495e-06
-2.97256e-08
9.67063e-06
-3.4436e-08
9.67627e-06
-3.67474e-08
9.6819e-06
-3.81169e-08
9.68732e-06
-3.84535e-08
9.69245e-06
-3.79767e-08
9.6973e-06
-3.7094e-08
9.70189e-06
-3.60276e-08
9.70622e-06
-3.48575e-08
9.71031e-06
-3.3635e-08
9.71417e-06
-3.2405e-08
9.71781e-06
-3.11968e-08
9.72125e-06
-3.00245e-08
9.72449e-06
-2.88942e-08
9.72754e-06
-2.7807e-08
-2.67581e-08
9.73043e-06
8.40543e-06
-5.81914e-09
8.40981e-06
-2.35206e-08
8.41531e-06
-3.52264e-08
8.42049e-06
-3.96228e-08
8.42592e-06
-4.2173e-08
8.43138e-06
-4.35827e-08
8.43653e-06
-4.35975e-08
8.44128e-06
-4.27289e-08
8.4457e-06
-4.15132e-08
8.44982e-06
-4.01502e-08
8.45366e-06
-3.86973e-08
8.45723e-06
-3.72065e-08
8.46055e-06
-3.57257e-08
8.46364e-06
-3.42837e-08
8.46651e-06
-3.28944e-08
8.46918e-06
-3.15635e-08
8.47167e-06
-3.02917e-08
-2.90753e-08
8.47398e-06
7.31506e-06
-3.59157e-09
7.32194e-06
-3.0404e-08
7.32739e-06
-4.06738e-08
7.33215e-06
-4.4387e-08
7.33746e-06
-4.74801e-08
7.34283e-06
-4.8951e-08
7.34778e-06
-4.85524e-08
7.35226e-06
-4.72022e-08
7.35629e-06
-4.55477e-08
7.35991e-06
-4.37674e-08
7.36313e-06
-4.19201e-08
7.36599e-06
-4.00693e-08
7.36853e-06
-3.82644e-08
7.37078e-06
-3.65316e-08
7.37277e-06
-3.48823e-08
7.37453e-06
-3.33212e-08
7.37608e-06
-3.18455e-08
-3.04488e-08
7.37745e-06
6.36222e-06
4.25436e-09
6.37294e-06
-4.11271e-08
6.38007e-06
-4.77976e-08
6.38624e-06
-5.05631e-08
6.39221e-06
-5.34438e-08
6.39749e-06
-5.42318e-08
6.40184e-06
-5.29032e-08
6.40541e-06
-5.07699e-08
6.4083e-06
-4.84458e-08
6.41058e-06
-4.60433e-08
6.41229e-06
-4.36298e-08
6.4135e-06
-4.12833e-08
6.41429e-06
-3.9052e-08
6.41472e-06
-3.69558e-08
6.41483e-06
-3.50011e-08
6.4147e-06
-3.31892e-08
6.41437e-06
-3.15116e-08
-2.99482e-08
6.41387e-06
5.53608e-06
1.36394e-08
5.54775e-06
-5.27994e-08
5.55744e-06
-5.74813e-08
5.566e-06
-5.91283e-08
5.57276e-06
-6.02058e-08
5.57718e-06
-5.86465e-08
5.57932e-06
-5.50425e-08
5.57974e-06
-5.11958e-08
5.57888e-06
-4.75811e-08
5.577e-06
-4.41699e-08
5.57434e-06
-4.09697e-08
5.57108e-06
-3.80181e-08
5.56736e-06
-3.53288e-08
5.56329e-06
-3.28932e-08
5.55899e-06
-3.06971e-08
5.55454e-06
-2.87374e-08
5.55003e-06
-2.70051e-08
-2.54392e-08
5.54552e-06
4.85751e-06
-1.6261e-08
4.86091e-06
-5.62e-08
4.8615e-06
-5.80724e-08
4.85883e-06
-5.64579e-08
4.85482e-06
-5.61955e-08
4.84812e-06
-5.19468e-08
4.83886e-06
-4.57838e-08
4.8276e-06
-3.99385e-08
4.81499e-06
-3.49647e-08
4.8016e-06
-3.07853e-08
4.7879e-06
-2.72642e-08
4.77418e-06
-2.42985e-08
4.76065e-06
-2.17971e-08
4.74743e-06
-1.96811e-08
4.73462e-06
-1.78874e-08
4.72229e-06
-1.64062e-08
4.71055e-06
-1.52639e-08
-1.49535e-08
4.70007e-06
4.18642e-06
4.13022e-06
4.07214e-06
4.01568e-06
3.95949e-06
3.90754e-06
3.86176e-06
3.82182e-06
3.78686e-06
3.75607e-06
3.72881e-06
3.70451e-06
3.68271e-06
3.66303e-06
3.64514e-06
3.62874e-06
3.61347e-06
3.59852e-06
1.0205e-08
-1.0205e-08
2.10511e-08
-1.0846e-08
2.80779e-08
-7.02686e-09
3.03096e-08
-2.23168e-09
2.78462e-08
2.46345e-09
2.14472e-08
6.39894e-09
1.19873e-08
9.45995e-09
2.58163e-10
1.17291e-08
-1.31566e-08
1.34148e-08
-2.78776e-08
1.47209e-08
-4.36694e-08
1.57918e-08
-6.03947e-08
1.67253e-08
-7.79746e-08
1.75799e-08
-9.63633e-08
1.83887e-08
-1.15532e-07
1.91684e-08
-1.35459e-07
1.9927e-08
-1.56126e-07
2.06674e-08
-1.77516e-07
2.13897e-08
-1.99609e-07
2.20928e-08
-2.22383e-07
2.27742e-08
-2.45814e-07
2.34313e-08
-2.69875e-07
2.40614e-08
-2.94538e-07
2.46622e-08
-3.1977e-07
2.5232e-08
-3.45538e-07
2.57688e-08
-3.7181e-07
2.6272e-08
-3.98558e-07
2.67476e-08
-4.25775e-07
2.72173e-08
-4.53492e-07
2.77162e-08
-4.81755e-07
2.82632e-08
-5.10575e-07
2.88202e-08
-5.39888e-07
2.93126e-08
-5.69718e-07
2.98307e-08
-6.00797e-07
3.10789e-08
-6.33976e-07
3.31785e-08
-6.66995e-07
3.30192e-08
-6.99013e-07
3.20176e-08
-7.3326e-07
3.42476e-08
-7.69584e-07
3.63242e-08
-8.07729e-07
3.81444e-08
-8.4829e-07
4.05615e-08
-8.93215e-07
4.49252e-08
-9.38625e-07
4.54096e-08
-9.77245e-07
3.86196e-08
-1.01485e-06
3.76092e-08
-1.0558e-06
4.09437e-08
-1.09821e-06
4.24086e-08
-1.14154e-06
4.33358e-08
-1.18542e-06
4.3879e-08
-1.22961e-06
4.41857e-08
-1.27394e-06
4.43375e-08
-1.31833e-06
4.43829e-08
-1.36268e-06
4.43515e-08
-1.40694e-06
4.42616e-08
-1.45106e-06
4.41246e-08
-1.49501e-06
4.39474e-08
-1.53875e-06
4.37345e-08
-1.58223e-06
4.34881e-08
-1.62544e-06
4.32093e-08
-1.66834e-06
4.28986e-08
-1.7109e-06
4.25557e-08
-1.75308e-06
4.21799e-08
-1.79485e-06
4.17705e-08
-1.83617e-06
4.13264e-08
-1.87702e-06
4.08467e-08
-1.91735e-06
4.03303e-08
-1.95713e-06
3.97765e-08
-1.99631e-06
3.91843e-08
-2.03487e-06
3.85531e-08
-2.07275e-06
3.78823e-08
-2.10992e-06
3.71714e-08
-2.14634e-06
3.64202e-08
-2.18197e-06
3.56286e-08
-2.21677e-06
3.47966e-08
-2.25069e-06
3.39244e-08
-2.2837e-06
3.30123e-08
-2.31576e-06
3.20608e-08
-2.34683e-06
3.10703e-08
-2.37687e-06
3.00416e-08
-2.40585e-06
2.89753e-08
-2.43372e-06
2.78723e-08
-2.46046e-06
2.67332e-08
-2.48601e-06
2.5559e-08
-2.51036e-06
2.43504e-08
-2.53347e-06
2.3108e-08
-2.5553e-06
2.18322e-08
-2.57583e-06
2.05235e-08
-2.59501e-06
1.91817e-08
-2.61282e-06
1.78064e-08
-2.62921e-06
1.63966e-08
-2.64416e-06
1.49507e-08
-2.65763e-06
1.34659e-08
-2.66957e-06
1.19384e-08
-2.67993e-06
1.03615e-08
-2.68866e-06
8.72651e-09
-2.69568e-06
7.0214e-09
-2.70091e-06
5.22936e-09
-2.70425e-06
3.33951e-09
-2.7056e-06
1.35048e-09
-2.70497e-06
-6.22629e-10
-2.70269e-06
-2.28288e-09
-2.69882e-06
-3.87068e-09
-2.69339e-06
-5.43061e-09
-2.68641e-06
-6.98464e-09
-2.67786e-06
-8.54352e-09
-2.66775e-06
-1.01091e-08
-2.65607e-06
-1.16806e-08
-2.64282e-06
-1.32566e-08
-2.62798e-06
-1.4835e-08
-2.61157e-06
-1.64137e-08
-2.59358e-06
-1.79906e-08
-2.57401e-06
-1.95636e-08
-2.55288e-06
-2.11306e-08
-2.53019e-06
-2.26893e-08
-2.50596e-06
-2.42378e-08
-2.48018e-06
-2.57739e-08
-2.45289e-06
-2.72954e-08
-2.42409e-06
-2.88005e-08
-2.3938e-06
-3.02868e-08
-2.36205e-06
-3.17525e-08
-2.32885e-06
-3.31954e-08
-2.29424e-06
-3.46136e-08
-2.25823e-06
-3.60052e-08
-2.22086e-06
-3.73684e-08
-2.18216e-06
-3.87015e-08
-2.14216e-06
-4.00026e-08
-2.10089e-06
-4.12701e-08
-2.05839e-06
-4.25023e-08
-2.01469e-06
-4.36976e-08
-1.96984e-06
-4.48544e-08
-1.92386e-06
-4.59713e-08
-1.87682e-06
-4.70469e-08
-1.82874e-06
-4.80802e-08
-1.77967e-06
-4.90698e-08
-1.72965e-06
-5.0015e-08
-1.67874e-06
-5.09146e-08
-1.62697e-06
-5.17677e-08
-1.5744e-06
-5.25737e-08
-1.52106e-06
-5.3332e-08
-1.46702e-06
-5.40422e-08
-1.41232e-06
-5.47041e-08
-1.357e-06
-5.53174e-08
-1.30112e-06
-5.58822e-08
-1.24472e-06
-5.63985e-08
-1.18785e-06
-5.68668e-08
-1.13057e-06
-5.72875e-08
-1.0729e-06
-5.76614e-08
-1.01491e-06
-5.7989e-08
-9.56644e-07
-5.82715e-08
-8.98133e-07
-5.851e-08
-8.39428e-07
-5.8706e-08
-7.80567e-07
-5.88606e-08
-7.21591e-07
-5.89758e-08
-6.62538e-07
-5.90533e-08
-6.03443e-07
-5.90949e-08
-5.4434e-07
-5.91025e-08
-4.85262e-07
-5.90782e-08
-4.26238e-07
-5.90237e-08
-3.67298e-07
-5.89404e-08
-3.08469e-07
-5.88289e-08
-2.49779e-07
-5.869e-08
-1.9126e-07
-5.85191e-08
-1.32942e-07
-5.83179e-08
-7.4857e-08
-5.8085e-08
-1.7048e-08
-5.78091e-08
4.04497e-08
-5.74977e-08
9.76e-08
-5.71503e-08
1.54405e-07
-5.68054e-08
2.10889e-07
-5.64837e-08
2.67066e-07
-5.61771e-08
3.22932e-07
-5.58657e-08
3.78456e-07
-5.55239e-08
4.33568e-07
-5.51124e-08
4.88132e-07
-5.4564e-08
5.4188e-07
-5.37481e-08
5.94279e-07
-5.23983e-08
6.44111e-07
-4.98325e-08
6.8852e-07
-4.44092e-08
7.19916e-07
-3.13962e-08
8.71134e-09
7.11205e-07
6.42501e-09
-1.66301e-08
7.69311e-09
-1.21141e-08
5.05648e-09
-4.39023e-09
-2.54175e-10
3.07898e-09
-7.70706e-09
9.91633e-09
-1.72154e-08
1.59073e-08
-2.87173e-08
2.09619e-08
-4.21029e-08
2.51146e-08
-5.71874e-08
2.84993e-08
-7.37593e-08
3.12928e-08
-9.1628e-08
3.36605e-08
-1.10639e-07
3.57358e-08
-1.30675e-07
3.76166e-08
-1.51656e-07
3.93698e-08
-1.73527e-07
4.1039e-08
-1.96251e-07
4.26511e-08
-2.19806e-07
4.42226e-08
-2.4418e-07
4.57632e-08
-2.69366e-07
4.72788e-08
-2.95365e-07
4.87731e-08
-3.22182e-07
5.0249e-08
-3.49831e-07
5.17103e-08
-3.78331e-07
5.31617e-08
-4.07709e-07
5.46098e-08
-4.38003e-07
5.60631e-08
-4.69264e-07
5.75334e-08
-5.01556e-07
5.90398e-08
-5.3495e-07
6.06105e-08
-5.6951e-07
6.22764e-08
-6.05297e-07
6.40506e-08
-6.42385e-07
6.59081e-08
-6.80875e-07
6.78021e-08
-7.20811e-07
6.97672e-08
-7.61729e-07
7.19973e-08
-8.02942e-07
7.43911e-08
-8.46059e-07
7.61359e-08
-8.91438e-07
7.73969e-08
-9.36392e-07
7.92015e-08
-9.81191e-07
8.11232e-08
-1.02591e-06
8.28671e-08
-1.06999e-06
8.46365e-08
-1.11144e-06
8.63738e-08
-1.15277e-06
8.67459e-08
-1.19923e-06
8.5079e-08
-1.24584e-06
8.42178e-08
-1.28946e-06
8.45644e-08
-1.3319e-06
8.48478e-08
-1.37356e-06
8.49935e-08
-1.41468e-06
8.49983e-08
-1.45537e-06
8.48752e-08
-1.49568e-06
8.46453e-08
-1.53562e-06
8.43261e-08
-1.5752e-06
8.39316e-08
-1.61441e-06
8.3472e-08
-1.65324e-06
8.29538e-08
-1.69167e-06
8.23813e-08
-1.72969e-06
8.17563e-08
-1.76729e-06
8.10796e-08
-1.80443e-06
8.03508e-08
-1.8411e-06
7.95687e-08
-1.87727e-06
7.87318e-08
-1.91293e-06
7.78381e-08
-1.94805e-06
7.68857e-08
-1.98259e-06
7.58725e-08
-2.01654e-06
7.47967e-08
-2.04987e-06
7.36563e-08
-2.08254e-06
7.24499e-08
-2.11453e-06
7.11759e-08
-2.14581e-06
6.98332e-08
-2.17635e-06
6.84208e-08
-2.20612e-06
6.69382e-08
-2.23508e-06
6.53849e-08
-2.26322e-06
6.37607e-08
-2.29049e-06
6.20659e-08
-2.31686e-06
6.03007e-08
-2.34232e-06
5.84658e-08
-2.36682e-06
5.65619e-08
-2.39034e-06
5.45899e-08
-2.41285e-06
5.2551e-08
-2.43432e-06
5.04463e-08
-2.45472e-06
4.82772e-08
-2.47403e-06
4.6045e-08
-2.49222e-06
4.37511e-08
-2.50927e-06
4.13966e-08
-2.52515e-06
3.89829e-08
-2.53982e-06
3.65108e-08
-2.55328e-06
3.39813e-08
-2.5655e-06
3.13949e-08
-2.57644e-06
2.87518e-08
-2.5861e-06
2.60518e-08
-2.59444e-06
2.32946e-08
-2.60145e-06
2.04795e-08
-2.60712e-06
1.76056e-08
-2.61143e-06
1.46725e-08
-2.61439e-06
1.16808e-08
-2.616e-06
8.63377e-09
-2.61631e-06
5.54036e-09
-2.6154e-06
2.42488e-09
-2.61338e-06
-6.63435e-10
-2.61026e-06
-3.74772e-09
-2.60578e-06
-6.75637e-09
-2.59987e-06
-9.78694e-09
-2.59246e-06
-1.28393e-08
-2.58353e-06
-1.59109e-08
-2.57307e-06
-1.90013e-08
-2.56107e-06
-2.21078e-08
-2.54753e-06
-2.52272e-08
-2.53243e-06
-2.83556e-08
-2.51578e-06
-3.14887e-08
-2.49757e-06
-3.46224e-08
-2.47781e-06
-3.77523e-08
-2.45649e-06
-4.08743e-08
-2.43364e-06
-4.3984e-08
-2.40925e-06
-4.70773e-08
-2.38334e-06
-5.015e-08
-2.35592e-06
-5.31979e-08
-2.327e-06
-5.62169e-08
-2.29659e-06
-5.92028e-08
-2.26473e-06
-6.21516e-08
-2.23142e-06
-6.5059e-08
-2.1967e-06
-6.79211e-08
-2.16058e-06
-7.0734e-08
-2.12309e-06
-7.34938e-08
-2.08426e-06
-7.6197e-08
-2.04412e-06
-7.884e-08
-2.0027e-06
-8.14194e-08
-1.96004e-06
-8.39317e-08
-1.91617e-06
-8.63738e-08
-1.87113e-06
-8.87424e-08
-1.82495e-06
-9.10343e-08
-1.77767e-06
-9.32467e-08
-1.72934e-06
-9.53768e-08
-1.68e-06
-9.74224e-08
-1.62969e-06
-9.93812e-08
-1.57845e-06
-1.01251e-07
-1.52633e-06
-1.03031e-07
-1.47338e-06
-1.04717e-07
-1.41965e-06
-1.0631e-07
-1.36517e-06
-1.07808e-07
-1.31e-06
-1.0921e-07
-1.25419e-06
-1.10516e-07
-1.19778e-06
-1.11725e-07
-1.14083e-06
-1.12837e-07
-1.08338e-06
-1.13853e-07
-1.02547e-06
-1.14773e-07
-9.67158e-07
-1.15598e-07
-9.08489e-07
-1.1633e-07
-8.49508e-07
-1.1697e-07
-7.90258e-07
-1.17521e-07
-7.30785e-07
-1.17983e-07
-6.7113e-07
-1.18361e-07
-6.11334e-07
-1.18657e-07
-5.51435e-07
-1.18874e-07
-4.91472e-07
-1.19017e-07
-4.3148e-07
-1.19087e-07
-3.71491e-07
-1.19091e-07
-3.11538e-07
-1.19031e-07
-2.5165e-07
-1.18912e-07
-1.91855e-07
-1.18735e-07
-1.3218e-07
-1.18504e-07
-7.26493e-08
-1.18221e-07
-1.32872e-08
-1.17881e-07
4.58793e-08
-1.17484e-07
1.04824e-07
-1.17029e-07
1.6353e-07
-1.16516e-07
2.21988e-07
-1.15955e-07
2.802e-07
-1.15362e-07
3.38163e-07
-1.14768e-07
3.9587e-07
-1.14191e-07
4.53311e-07
-1.13619e-07
5.10468e-07
-1.13022e-07
5.67299e-07
-1.12355e-07
6.23726e-07
-1.11539e-07
6.79603e-07
-1.10441e-07
7.34663e-07
-1.08808e-07
7.8841e-07
-1.06145e-07
8.39875e-07
-1.01297e-07
8.87444e-07
-9.19786e-08
9.2782e-07
-7.1772e-08
-2.45932e-08
9.61124e-07
-1.27282e-09
-1.53572e-08
-7.46437e-09
-5.92257e-09
-1.58511e-08
3.99646e-09
-2.56348e-08
1.28627e-08
-3.65837e-08
2.08653e-08
-4.86928e-08
2.80164e-08
-6.2036e-08
3.4305e-08
-7.66796e-08
3.97582e-08
-9.26379e-08
4.44576e-08
-1.0987e-07
4.85245e-08
-1.28301e-07
5.20923e-08
-1.47851e-07
5.52855e-08
-1.68442e-07
5.8208e-08
-1.90013e-07
6.09406e-08
-2.12517e-07
6.35425e-08
-2.35922e-07
6.60558e-08
-2.60209e-07
6.85097e-08
-2.8537e-07
7.09243e-08
-3.11405e-07
7.33142e-08
-3.38323e-07
7.56908e-08
-3.66137e-07
7.80636e-08
-3.94869e-07
8.0442e-08
-4.24543e-07
8.28358e-08
-4.55188e-07
8.5255e-08
-4.86835e-07
8.77101e-08
-5.19515e-07
9.02126e-08
-5.5325e-07
9.27749e-08
-5.88048e-07
9.54088e-08
-6.2389e-07
9.81189e-08
-6.60732e-07
1.00892e-07
-6.98515e-07
1.03691e-07
-7.37177e-07
1.06464e-07
-7.7659e-07
1.09181e-07
-8.16413e-07
1.1182e-07
-8.56296e-07
1.14274e-07
-8.96522e-07
1.16363e-07
-9.37216e-07
1.18091e-07
-9.77664e-07
1.19649e-07
-1.01757e-06
1.21034e-07
-1.05688e-06
1.22173e-07
-1.09532e-06
1.2308e-07
-1.13259e-06
1.23636e-07
-1.16945e-06
1.23614e-07
-1.20742e-06
1.23047e-07
-1.24568e-06
1.2248e-07
-1.28323e-06
1.22108e-07
-1.32016e-06
1.21777e-07
-1.35659e-06
1.21429e-07
-1.39263e-06
1.21031e-07
-1.42832e-06
1.20568e-07
-1.46371e-06
1.20034e-07
-1.49881e-06
1.19432e-07
-1.53364e-06
1.18762e-07
-1.5682e-06
1.18026e-07
-1.60247e-06
1.17225e-07
-1.63645e-06
1.16359e-07
-1.67012e-06
1.15426e-07
-1.70346e-06
1.14425e-07
-1.73646e-06
1.13352e-07
-1.7691e-06
1.12206e-07
-1.80135e-06
1.10982e-07
-1.83319e-06
1.09678e-07
-1.8646e-06
1.08291e-07
-1.89554e-06
1.06816e-07
-1.92599e-06
1.05252e-07
-1.95593e-06
1.03595e-07
-1.98532e-06
1.01842e-07
-2.01414e-06
9.99932e-08
-2.04235e-06
9.80451e-08
-2.06993e-06
9.59967e-08
-2.09684e-06
9.38472e-08
-2.12305e-06
9.15957e-08
-2.14853e-06
8.92421e-08
-2.17325e-06
8.67865e-08
-2.19718e-06
8.42292e-08
-2.22029e-06
8.15711e-08
-2.24254e-06
7.88131e-08
-2.2639e-06
7.59565e-08
-2.28436e-06
7.30029e-08
-2.30386e-06
6.99538e-08
-2.3224e-06
6.68113e-08
-2.33993e-06
6.35772e-08
-2.35643e-06
6.02535e-08
-2.37188e-06
5.68423e-08
-2.38624e-06
5.33455e-08
-2.39949e-06
4.9765e-08
-2.41162e-06
4.61027e-08
-2.42258e-06
4.23602e-08
-2.43237e-06
3.85389e-08
-2.44096e-06
3.46405e-08
-2.44833e-06
3.06663e-08
-2.45447e-06
2.66181e-08
-2.45936e-06
2.24984e-08
-2.463e-06
1.83108e-08
-2.46538e-06
1.40609e-08
-2.4665e-06
9.75683e-09
-2.46637e-06
5.41131e-09
-2.46499e-06
1.04085e-09
-2.46232e-06
-3.33482e-09
-2.45834e-06
-7.72903e-09
-2.45295e-06
-1.2146e-08
-2.44613e-06
-1.66069e-08
-2.43785e-06
-2.11101e-08
-2.42811e-06
-2.56509e-08
-2.41689e-06
-3.02238e-08
-2.40418e-06
-3.48227e-08
-2.38996e-06
-3.94415e-08
-2.37424e-06
-4.40741e-08
-2.35702e-06
-4.8714e-08
-2.33829e-06
-5.33548e-08
-2.31805e-06
-5.79903e-08
-2.29631e-06
-6.2614e-08
-2.27307e-06
-6.72196e-08
-2.24835e-06
-7.1801e-08
-2.22215e-06
-7.63519e-08
-2.19448e-06
-8.08661e-08
-2.16536e-06
-8.53375e-08
-2.1348e-06
-8.976e-08
-2.10283e-06
-9.41274e-08
-2.06945e-06
-9.84337e-08
-2.0347e-06
-1.02673e-07
-1.99859e-06
-1.06839e-07
-1.96116e-06
-1.10926e-07
-1.92243e-06
-1.1493e-07
-1.88243e-06
-1.18844e-07
-1.84118e-06
-1.22664e-07
-1.79873e-06
-1.26384e-07
-1.7551e-06
-1.3e-07
-1.71034e-06
-1.33507e-07
-1.66447e-06
-1.369e-07
-1.61754e-06
-1.40175e-07
-1.56959e-06
-1.43328e-07
-1.52066e-06
-1.46356e-07
-1.47079e-06
-1.49254e-07
-1.42002e-06
-1.52021e-07
-1.36839e-06
-1.54653e-07
-1.31596e-06
-1.57148e-07
-1.26277e-06
-1.59503e-07
-1.20886e-06
-1.61717e-07
-1.15428e-06
-1.63788e-07
-1.09908e-06
-1.65717e-07
-1.04331e-06
-1.67502e-07
-9.87e-07
-1.69143e-07
-9.30212e-07
-1.70641e-07
-8.72988e-07
-1.71997e-07
-8.15374e-07
-1.73212e-07
-7.57415e-07
-1.74289e-07
-6.99156e-07
-1.75229e-07
-6.40642e-07
-1.76036e-07
-5.81913e-07
-1.76712e-07
-5.23011e-07
-1.77263e-07
-4.63975e-07
-1.77692e-07
-4.04845e-07
-1.78005e-07
-3.45655e-07
-1.78206e-07
-2.86441e-07
-1.78302e-07
-2.27235e-07
-1.78298e-07
-1.68066e-07
-1.782e-07
-1.08964e-07
-1.78014e-07
-4.99548e-08
-1.77745e-07
8.93812e-09
-1.77397e-07
6.769e-08
-1.76973e-07
1.2628e-07
-1.76471e-07
1.84689e-07
-1.75893e-07
2.42901e-07
-1.75242e-07
3.00914e-07
-1.74529e-07
3.58735e-07
-1.73776e-07
4.16372e-07
-1.72998e-07
4.7381e-07
-1.72206e-07
5.31031e-07
-1.71411e-07
5.88014e-07
-1.70601e-07
6.44732e-07
-1.69741e-07
7.0114e-07
-1.68763e-07
7.5716e-07
-1.67559e-07
8.12654e-07
-1.65935e-07
8.67385e-07
-1.63539e-07
9.20951e-07
-1.59711e-07
9.72719e-07
-1.53066e-07
1.02179e-06
-1.41049e-07
1.06766e-06
-1.17638e-07
-7.14222e-08
1.11448e-06
-7.7095e-09
-7.64774e-09
-1.89778e-08
5.34572e-09
-3.13299e-08
1.63486e-08
-4.43438e-08
2.58765e-08
-5.79535e-08
3.4475e-08
-7.22212e-08
4.22841e-08
-8.72572e-08
4.9341e-08
-1.03173e-07
5.56737e-08
-1.20049e-07
6.13344e-08
-1.37928e-07
6.64035e-08
-1.56815e-07
7.09785e-08
-1.76689e-07
7.516e-08
-1.97522e-07
7.90407e-08
-2.19281e-07
8.26994e-08
-2.41937e-07
8.61992e-08
-2.6547e-07
8.95887e-08
-2.89865e-07
9.2904e-08
-3.15112e-07
9.6172e-08
-3.41211e-07
9.94126e-08
-3.68161e-07
1.02641e-07
-3.95967e-07
1.05869e-07
-4.24632e-07
1.09107e-07
-4.54158e-07
1.12362e-07
-4.84543e-07
1.15639e-07
-5.15774e-07
1.18942e-07
-5.47831e-07
1.22269e-07
-5.8067e-07
1.25615e-07
-6.1423e-07
1.28969e-07
-6.48421e-07
1.32309e-07
-6.83131e-07
1.35603e-07
-7.1824e-07
1.388e-07
-7.53621e-07
1.41845e-07
-7.8913e-07
1.4469e-07
-8.24599e-07
1.47289e-07
-8.59902e-07
1.49577e-07
-8.95038e-07
1.51499e-07
-9.30015e-07
1.53067e-07
-9.64704e-07
1.54339e-07
-9.99003e-07
1.55333e-07
-1.03288e-06
1.56051e-07
-1.0663e-06
1.56497e-07
-1.09931e-06
1.56648e-07
-1.13215e-06
1.56458e-07
-1.1651e-06
1.55995e-07
-1.19807e-06
1.55448e-07
-1.23087e-06
1.54904e-07
-1.26344e-06
1.54354e-07
-1.2958e-06
1.53782e-07
-1.32794e-06
1.53172e-07
-1.35988e-06
1.5251e-07
-1.39164e-06
1.5179e-07
-1.42321e-06
1.51005e-07
-1.4546e-06
1.50152e-07
-1.4858e-06
1.49228e-07
-1.51681e-06
1.48229e-07
-1.5476e-06
1.47152e-07
-1.57816e-06
1.45992e-07
-1.60848e-06
1.44745e-07
-1.63854e-06
1.43406e-07
-1.6683e-06
1.41971e-07
-1.69776e-06
1.40436e-07
-1.72687e-06
1.38795e-07
-1.75563e-06
1.37043e-07
-1.78399e-06
1.35178e-07
-1.81193e-06
1.33194e-07
-1.83942e-06
1.31088e-07
-1.86644e-06
1.28857e-07
-1.89294e-06
1.26499e-07
-1.91891e-06
1.2401e-07
-1.9443e-06
1.2139e-07
-1.96909e-06
1.18637e-07
-1.99324e-06
1.15749e-07
-2.01673e-06
1.12728e-07
-2.03952e-06
1.09572e-07
-2.06157e-06
1.06283e-07
-2.08286e-06
1.02861e-07
-2.10335e-06
9.93075e-08
-2.12302e-06
9.56246e-08
-2.14183e-06
9.18141e-08
-2.15976e-06
8.78782e-08
-2.17676e-06
8.38194e-08
-2.19283e-06
7.96402e-08
-2.20792e-06
7.53436e-08
-2.22201e-06
7.09323e-08
-2.23507e-06
6.64093e-08
-2.24708e-06
6.17774e-08
-2.25802e-06
5.70395e-08
-2.26786e-06
5.21984e-08
-2.27658e-06
4.72569e-08
-2.28415e-06
4.22179e-08
-2.29057e-06
3.70843e-08
-2.29581e-06
3.18597e-08
-2.29986e-06
2.65481e-08
-2.30271e-06
2.11548e-08
-2.30433e-06
1.56861e-08
-2.30473e-06
1.015e-08
-2.30387e-06
4.55603e-09
-2.30174e-06
-1.08653e-09
-2.29831e-06
-6.77148e-09
-2.29353e-06
-1.25042e-08
-2.28738e-06
-1.82932e-08
-2.27985e-06
-2.41445e-08
-2.2709e-06
-3.00538e-08
-2.26054e-06
-3.60145e-08
-2.24875e-06
-4.20187e-08
-2.23551e-06
-4.8058e-08
-2.22083e-06
-5.41242e-08
-2.20469e-06
-6.02087e-08
-2.1871e-06
-6.6303e-08
-2.16806e-06
-7.23988e-08
-2.14756e-06
-7.84877e-08
-2.12561e-06
-8.45612e-08
-2.10222e-06
-9.06112e-08
-2.07739e-06
-9.66293e-08
-2.05114e-06
-1.02607e-07
-2.02347e-06
-1.08537e-07
-1.99439e-06
-1.14411e-07
-1.96393e-06
-1.20221e-07
-1.9321e-06
-1.25958e-07