/*--------------------------------*- C++ -*----------------------------------*\
  =========                 |
  \\      /  F ield         | OpenFOAM: The Open Source CFD Toolbox
   \\    /   O peration     | Website:  https://openfoam.org
    \\  /    A nd           | Version:  9
     \\/     M anipulation  |
\*---------------------------------------------------------------------------*/
FoamFile
{
    format      ascii;
    class       surfaceScalarField;
    location    "0.45";
    object      alphaPhi0.water;
}
// * * * * * * * * * * * * * * * * * * * * * * * * * * * * * * * * * * * * * //

dimensions      [0 3 -1 0 0 0 0];

internalField   nonuniform List<scalar> 
4432
(
-5.37395e-06
5.37395e-06
-6.79722e-06
1.42327e-06
-4.70058e-06
-2.09664e-06
-1.18838e-06
-3.51219e-06
2.71333e-06
-3.90171e-06
6.62296e-06
-3.90963e-06
1.03684e-05
-3.7454e-06
1.38927e-05
-3.52435e-06
1.71768e-05
-3.2841e-06
2.02033e-05
-3.02645e-06
2.29413e-05
-2.73799e-06
2.53363e-05
-2.39509e-06
2.72983e-05
-1.96197e-06
2.86779e-05
-1.37958e-06
2.92094e-05
-5.3146e-07
2.84181e-05
7.91258e-07
2.57702e-05
2.6479e-06
2.07772e-05
4.99305e-06
1.31846e-05
7.59259e-06
3.37101e-06
9.81355e-06
-6.84239e-06
1.0493e-05
-1.19931e-05
4.9584e-06
-1.2455e-05
-3.72443e-06
9.09838e-06
-3.08649e-06
7.85327e-07
-6.41652e-07
-4.54147e-06
2.64796e-06
-6.8018e-06
6.27884e-06
-7.53259e-06
9.91183e-06
-7.54262e-06
1.34073e-05
-7.24092e-06
1.67064e-05
-6.82343e-06
1.97806e-05
-6.35824e-06
2.26051e-05
-5.85099e-06
2.51445e-05
-5.2774e-06
2.73427e-05
-4.59328e-06
2.91139e-05
-3.73318e-06
3.03347e-05
-2.60031e-06
3.08571e-05
-1.05389e-06
3.05202e-05
1.12815e-06
2.89998e-05
4.16834e-06
2.57992e-05
8.19362e-06
2.03395e-05
1.30522e-05
1.23667e-05
1.77863e-05
2.83936e-06
2.01264e-05
-3.36568e-06
1.09695e-05
-1.58012e-05
-1.67148e-06
1.07699e-05
-2.41725e-07
-6.44424e-07
2.27532e-06
-7.05852e-06
5.43837e-06
-9.96485e-06
8.81637e-06
-1.09106e-05
1.21721e-05
-1.08983e-05
1.53976e-05
-1.04664e-05
1.84445e-05
-9.87036e-06
2.1285e-05
-9.19868e-06
2.38914e-05
-8.45743e-06
2.62259e-05
-7.61191e-06
2.82328e-05
-6.60016e-06
2.98319e-05
-5.33233e-06
3.09138e-05
-3.68215e-06
3.13429e-05
-1.48297e-06
3.09802e-05
1.49085e-06
2.96565e-05
5.49197e-06
2.71605e-05
1.06896e-05
2.32359e-05
1.69769e-05
1.76952e-05
2.3327e-05
1.08226e-05
2.6999e-05
3.83644e-06
1.84023e-05
-1.19456e-05
2.02832e-07
1.0567e-05
2.09901e-06
-2.5406e-06
4.80412e-06
-9.76363e-06
7.87382e-06
-1.30346e-05
1.10279e-05
-1.40647e-05
1.41138e-05
-1.39842e-05
1.70675e-05
-1.34202e-05
1.98594e-05
-1.26623e-05
2.2466e-05
-1.18052e-05
2.48585e-05
-1.085e-05
2.69977e-05
-9.75113e-06
2.88292e-05
-8.43162e-06
3.02787e-05
-6.78188e-06
3.12498e-05
-4.65324e-06
3.16273e-05
-1.86044e-06
3.12961e-05
1.82201e-06
3.01536e-05
6.63446e-06
2.81162e-05
1.2727e-05
2.51158e-05
1.99772e-05
2.10516e-05
2.73912e-05
1.57816e-05
3.22691e-05
8.82392e-06
2.536e-05
-3.14024e-06
1.84804e-06
8.71899e-06
4.20405e-06
-4.89662e-06
7.10058e-06
-1.26602e-05
1.01112e-05
-1.60452e-05
1.30554e-05
-1.70089e-05
1.58733e-05
-1.68021e-05
1.85545e-05
-1.61014e-05
2.10918e-05
-1.51995e-05
2.34673e-05
-1.41808e-05
2.56519e-05
-1.30345e-05
2.76053e-05
-1.17045e-05
2.9275e-05
-1.01014e-05
3.05937e-05
-8.10057e-06
3.14772e-05
-5.53673e-06
3.18297e-05
-2.21295e-06
3.15613e-05
2.0905e-06
3.06086e-05
7.58707e-06
2.8951e-05
1.43847e-05
2.66021e-05
2.23261e-05
2.349e-05
3.05033e-05
1.92385e-05
3.65206e-05
1.22295e-05
3.23686e-05
9.07055e-06
2.98982e-06
5.72917e-06
6.07151e-06
-7.97832e-06
9.23059e-06
-1.58192e-05
1.21959e-05
-1.90105e-05
1.49247e-05
-1.97376e-05
1.74692e-05
-1.93467e-05
1.9878e-05
-1.85102e-05
2.21651e-05
-1.74866e-05
2.43164e-05
-1.63321e-05
2.63013e-05
-1.50194e-05
2.80791e-05
-1.34822e-05
2.95999e-05
-1.16222e-05
3.08037e-05
-9.3044e-06
3.16185e-05
-6.35147e-06
3.19658e-05
-2.56028e-06
3.17775e-05
2.27878e-06
3.10173e-05
8.34724e-06
2.96991e-05
1.5703e-05
2.78755e-05
2.41496e-05
2.54827e-05
3.28962e-05
2.19988e-05
4.00044e-05
1.50963e-05
3.92712e-05
2.41498e-05
3.8446e-06
1.88457e-06
7.77637e-06
-1.19101e-05
1.12475e-05
-1.92904e-05
1.41425e-05
-2.19055e-05
1.66264e-05
-2.22214e-05
1.88868e-05
-2.16071e-05
2.10268e-05
-2.06501e-05
2.30733e-05
-1.95332e-05
2.50114e-05
-1.82702e-05
2.68075e-05
-1.68155e-05
2.84202e-05
-1.50949e-05
2.98035e-05
-1.30055e-05
3.09056e-05
-1.04065e-05
3.16665e-05
-7.11235e-06
3.20235e-05
-2.9173e-06
3.19266e-05
2.37566e-06
3.13589e-05
8.91491e-06
3.03565e-05
1.67054e-05
2.89991e-05
2.55071e-05
2.72448e-05
3.46504e-05
2.45441e-05
4.27051e-05
1.79716e-05
4.58437e-05
4.21048e-05
4.61078e-06
-2.72621e-06
9.46689e-06
-1.67661e-05
1.32028e-05
-2.30262e-05
1.59341e-05
-2.46366e-05
1.8124e-05
-2.44112e-05
2.00943e-05
-2.35773e-05
2.1979e-05
-2.25346e-05
2.38031e-05
-2.13571e-05
2.55447e-05
-2.00116e-05
2.71658e-05
-1.84363e-05
2.86249e-05
-1.65538e-05
2.98808e-05
-1.42613e-05
3.08915e-05
-1.14172e-05
3.16096e-05
-7.83038e-06
3.19868e-05
-3.29448e-06
3.19882e-05
2.37418e-06
3.16107e-05
9.29248e-06
3.09059e-05
1.74102e-05
2.99819e-05
2.64311e-05
2.88495e-05
3.57828e-05
2.70725e-05
4.44822e-05
2.17265e-05
5.11897e-05
6.38154e-05
-1.00974e-21
1.06555e-22
-9.37523e-21
1.64505e-21
-1.54614e-19
3.48859e-20
-8.62966e-19
1.9743e-19
-3.52022e-18
6.17484e-19
-1.3891e-17
1.65471e-18
-5.14154e-17
3.984e-18
-1.60782e-16
7.12281e-18
-4.04386e-16
4.87199e-18
-8.37172e-16
-1.06362e-17
-1.44178e-15
-3.88091e-17
-2.04771e-15
-9.91287e-17
-1.96215e-15
-7.96075e-16
-1.07853e-15
-2.1846e-15
-3.33076e-16
-1.34124e-15
-1.07653e-16
-5.93404e-16
-4.55736e-17
-3.12592e-16
-1.13707e-17
-2.06147e-16
-1.83324e-16
-5.80198e-21
3.50935e-21
-2.69539e-19
1.85143e-19
-2.55494e-18
1.92611e-18
-1.36046e-17
8.45284e-18
-6.60051e-17
2.92404e-17
-3.13623e-16
9.80069e-17
-1.31265e-15
2.76432e-16
-4.14909e-15
5.72533e-16
-8.47692e-15
4.12941e-16
-1.24604e-14
0
-1.65532e-14
0
-2.17854e-14
0
-2.87575e-14
0
-2.20251e-14
-1.03626e-14
-7.28541e-15
-1.7243e-14
-1.6292e-15
-6.8453e-15
-7.30121e-16
-1.56636e-15
-1.18721e-16
-1.05897e-15
-4.99969e-16
-4.57635e-19
2.3517e-19
-1.26349e-17
8.00678e-18
-4.47089e-17
3.91093e-17
-1.13591e-16
9.94709e-17
-5.03272e-16
3.18595e-16
-3.02418e-15
1.24718e-15
-1.50391e-14
4.55941e-15
-5.72917e-14
1.3544e-14
-1.36764e-13
1.70059e-14
-2.10384e-13
0
-2.76701e-13
0
-3.59482e-13
0
-4.78171e-13
0
-3.63136e-13
-1.43852e-13
-1.2191e-13
-2.87167e-13
-2.62877e-14
-1.14141e-13
-9.60202e-15
-2.35957e-14
-1.58994e-15
-1.33869e-14
-3.32984e-15
-7.17842e-19
5.51724e-19
-1.15105e-17
1.10607e-17
-3.85745e-17
5.55949e-17
-1.99335e-16
2.34815e-16
-1.79549e-15
1.68192e-15
-1.12525e-14
8.50017e-15
-7.79023e-14
4.71477e-14
-4.54843e-13
1.48284e-13
-1.39853e-12
2.73644e-13
-2.37005e-12
0
-3.09678e-12
0
-3.94908e-12
0
-5.47308e-12
0
-4.11562e-12
-1.76159e-12
-1.39664e-12
-3.44331e-12
-3.08191e-13
-1.38049e-12
-9.9793e-14
-3.05361e-13
-1.76207e-14
-1.45235e-13
-4.5155e-14
-9.09501e-19
8.12741e-19
-2.61057e-18
7.97081e-18
-1.18675e-16
1.65966e-16
-1.45216e-15
2.75067e-16
-1.25456e-14
1.20015e-14
-4.97787e-14
4.48484e-14
-3.38628e-13
3.2758e-13
-2.13287e-12
1.32476e-12
-9.34025e-12
2.7564e-12
-1.87275e-11
6.43927e-13
-2.53697e-11
0
-3.21544e-11
0
-4.67034e-11
0
-3.48026e-11
-1.62771e-11
-1.1931e-11
-3.08393e-11
-2.66912e-12
-1.24642e-11
-7.93433e-13
-2.8821e-12
-1.47703e-13
-1.25216e-12
-4.45504e-13
-2.77028e-17
2.78182e-17
-3.44782e-15
1.69534e-15
-9.82327e-14
7.33899e-14
-1.22578e-13
3.25126e-13
-3.36499e-14
3.66029e-13
-4.22207e-13
4.68932e-13
-5.5154e-12
5.26688e-12
-8.85167e-12
1.79331e-11
-4.45292e-11
1.0722e-11
-9.89751e-11
2.08593e-11
-1.53391e-10
1.0158e-11
-1.98859e-10
0
-3.08925e-10
0
-2.30078e-10
-1.16727e-10
-8.07061e-11
-2.1647e-10
-1.83902e-11
-8.91146e-11
-5.0925e-12
-2.13589e-11
-9.8429e-13
-8.58138e-12
-3.34841e-12
-5.53484e-17
7.33922e-17
-1.2063e-15
2.5173e-15
-2.89437e-14
8.12935e-14
-9.45596e-15
4.67779e-13
0
7.45566e-13
-2.32779e-11
8.22321e-12
-1.72486e-11
5.27666e-11
0
6.48654e-11
-6.11485e-13
3.4959e-11
-2.41341e-10
9.72549e-11
-6.03344e-10
2.20077e-10
-8.92758e-10
0
-1.54512e-09
0
-1.18655e-09
-6.52847e-10
-4.40559e-10
-1.20896e-09
-1.04786e-10
-5.18833e-10
-2.76801e-11
-1.30071e-10
-5.52101e-12
-4.9274e-11
-2.06793e-11
1.18612e-18
5.62514e-17
1.00333e-18
2.41863e-15
-7.60819e-16
8.20006e-14
-7.78036e-16
4.66866e-13
1.03087e-14
7.50782e-13
3.43204e-13
2.29452e-12
2.83211e-12
1.15913e-11
3.10142e-12
2.84949e-11
1.15042e-12
2.59396e-11
-1.55996e-10
2.55431e-10
-6.16364e-10
7.39214e-10
-1.91691e-09
0
-4.22246e-09
0
-4.31777e-09
-2.19652e-09
-2.01861e-09
-5.05069e-09
-5.4612e-10
-2.54428e-09
-1.41903e-10
-7.0021e-10
-2.89453e-11
-2.52912e-10
-1.10716e-10
1.29853e-05
-1.57106e-05
2.63119e-05
-3.00833e-05
3.40989e-05
-3.08006e-05
3.881e-05
-2.93358e-05
4.24234e-05
-2.80142e-05
4.57658e-05
-2.69101e-05
4.9074e-05
-2.58323e-05
5.2346e-05
-2.46177e-05
5.55018e-05
-2.31554e-05
5.84483e-05
-2.13706e-05
6.11007e-05
-1.91947e-05
6.33916e-05
-1.65425e-05
6.52729e-05
-1.3292e-05
6.66881e-05
-9.24295e-06
6.75809e-05
-4.18648e-06
6.79266e-05
2.0283e-06
6.77369e-05
9.48234e-06
6.71562e-05
1.79909e-05
6.65121e-05
2.70753e-05
6.60559e-05
3.6239e-05
6.54692e-05
4.50689e-05
6.38046e-05
5.28543e-05
6.23427e-05
6.52953e-05
1.85597e-05
-1.76087e-05
2.69367e-05
-1.7728e-05
3.00225e-05
-1.21888e-05
3.30085e-05
-1.14695e-05
3.62636e-05
-1.1906e-05
3.97859e-05
-1.2664e-05
4.35361e-05
-1.35013e-05
4.7398e-05
-1.4308e-05
5.12168e-05
-1.49504e-05
5.4859e-05
-1.53102e-05
5.81894e-05
-1.52592e-05
6.10586e-05
-1.46137e-05
6.33193e-05
-1.31285e-05
6.48442e-05
-1.02749e-05
6.59312e-05
-5.20528e-06
6.67848e-05
1.11519e-06
6.74403e-05
8.82678e-06
6.79345e-05
1.74968e-05
6.8673e-05
2.63329e-05
6.99154e-05
3.49972e-05
7.12195e-05
4.37649e-05
7.20048e-05
5.2069e-05
6.1028e-05
7.33195e-05
4.18976e-06
1.03072e-13
2.5933e-06
6.72487e-14
2.20897e-06
4.99993e-14
2.85658e-06
5.636e-14
3.8905e-06
2.65849e-13
5.22954e-06
1.40576e-12
6.97155e-06
2.51916e-12
9.2035e-06
2.79239e-12
1.2003e-05
2.28274e-12
1.55336e-05
1.48573e-12
2.00767e-05
7.8763e-13
2.60684e-05
3.29369e-13
3.38811e-05
9.75472e-14
4.31173e-05
7.3651e-15
5.17713e-05
-1.70986e-06
5.92306e-05
4.31937e-08
6.38102e-05
5.10502e-06
6.70614e-05
1.42456e-05
6.94505e-05
2.39428e-05
7.24182e-05
3.20295e-05
7.51377e-05
4.10454e-05
7.74517e-05
4.97549e-05
5.71888e-05
8.12909e-05
-3.703e-14
1.62927e-13
-3.81429e-14
1.1507e-13
-5.03861e-14
1.28598e-13
-6.51594e-14
1.44764e-13
-3.3798e-13
6.50052e-13
-1.95721e-12
2.94325e-12
-3.84043e-12
5.0791e-12
-4.67348e-12
5.71777e-12
-4.23133e-12
4.92039e-12
-3.09471e-12
3.47578e-12
-1.88399e-12
2.0849e-12
-9.35236e-13
1.07317e-12
-3.46481e-13
4.69616e-13
-3.61853e-14
1.60444e-13
2.87567e-06
4.88877e-14
9.08688e-06
5.50838e-15
2.03869e-05
4.12752e-08
4.02166e-05
2.93899e-07
6.19694e-05
5.17053e-06
7.30993e-05
2.08995e-05
7.86478e-05
3.54968e-05
8.3696e-05
4.47068e-05
5.07412e-05
9.01437e-05
3.28282e-14
1.08378e-13
1.64327e-14
1.17799e-13
-2.34509e-14
1.69638e-13
-5.94462e-14
1.83335e-13
-3.95238e-13
5.25147e-13
-2.33446e-12
1.90094e-12
-4.90054e-12
3.0698e-12
-6.47052e-12
3.37795e-12
-6.44647e-12
2.93341e-12
-5.29181e-12
2.14455e-12
-3.75772e-12
1.36313e-12
-2.37773e-12
7.63706e-13
-1.36966e-12
3.76218e-13
-7.40279e-13
1.60618e-13
-3.63048e-13
5.39405e-14
-1.64305e-13
9.56896e-15
4.12173e-08
5.77738e-11
3.34159e-07
1.00247e-09
5.56087e-06
1.92427e-08
2.24008e-05
1.09755e-07
4.44018e-05
3.18068e-07
6.75964e-05
3.95526e-06
1.57678e-05
9.19324e-05
2.60173e-14
4.79781e-14
2.51154e-14
6.99445e-14
-8.17164e-15
1.19098e-13
-4.20019e-14
1.33732e-13
-2.04531e-13
1.3749e-13
-1.03679e-12
1.32701e-13
-2.15309e-12
1.21825e-13
-2.90391e-12
1.07176e-13
-3.01929e-12
9.0496e-14
-2.63075e-12
7.3127e-14
-2.01651e-12
5.61453e-14
-1.40405e-12
4.04443e-14
-9.08516e-13
2.67692e-14
-5.53386e-13
1.57311e-14
-3.22076e-13
7.76414e-15
-1.80975e-13
2.81154e-15
5.75922e-11
5.82648e-16
1.05565e-09
2.52772e-12
2.00985e-08
1.55273e-10
1.28002e-07
1.25195e-09
4.42693e-07
4.07372e-09
2.64773e-06
1.75499e-08
1.05248e-07
1.44005e-05
4.05403e-15
1.8268e-14
3.28798e-15
2.90473e-14
-8.11521e-15
5.12598e-14
-2.48546e-14
6.28744e-14
-4.25031e-14
6.75531e-14
-5.81595e-14
6.70606e-14
-7.0082e-14
6.28897e-14
-7.74415e-14
5.63322e-14
-8.02466e-14
4.83742e-14
-7.90331e-14
3.97374e-14
-7.454e-14
3.09869e-14
-6.7535e-14
2.26185e-14
-5.87408e-14
1.51055e-14
-4.89121e-14
8.8672e-15
-3.88572e-14
4.38575e-15
-2.92385e-14
1.56462e-15
-2.06494e-14
2.8563e-16
2.50704e-12
2.85387e-17
1.56688e-10
5.54219e-13
1.39847e-09
5.54007e-12
5.43554e-09
1.24081e-11
2.25105e-08
1.26501e-10
1.43339e-09
1.25139e-07
6.41391e-16
5.76591e-15
-4.24849e-16
8.91438e-15
-4.11939e-15
1.59715e-14
-1.02865e-14
2.1129e-14
-1.74732e-14
2.38817e-14
-2.4479e-14
2.44911e-14
-3.04426e-14
2.34644e-14
-3.48431e-14
2.13124e-14
-3.74539e-14
1.8429e-14
-3.82344e-14
1.50928e-14
-3.72339e-14
1.15385e-14
-3.45449e-14
7.99972e-15
-3.03074e-14
4.77228e-15
-2.46688e-14
1.93834e-15
-1.832e-14
1.46245e-16
-1.11487e-14
-9.46764e-16
-4.36744e-15
-1.71696e-15
-2.8651e-16
-1.26313e-15
5.5589e-13
0
6.08551e-12
2.92907e-17
1.84059e-11
2.17741e-14
1.42777e-10
5.56318e-13
1.1136e-11
1.55692e-09
-7.00146e-18
1.48997e-15
-2.86196e-16
2.10737e-15
-1.26087e-15
3.80362e-15
-2.95599e-15
5.45735e-15
-5.09954e-15
6.54651e-15
-7.34807e-15
6.95128e-15
-9.40576e-15
6.77334e-15
-1.10579e-14
6.16212e-15
-1.21487e-14
5.23193e-15
-1.25422e-14
4.06646e-15
-1.21101e-14
2.7484e-15
-1.07275e-14
1.43258e-15
-8.36094e-15
2.14811e-16
-4.59443e-15
-7.81724e-16
-4.92639e-16
-2.35763e-15
8.26385e-15
-3.41278e-15
1.8879e-14
-3.12778e-15
2.30306e-14
-2.54976e-15
2.53368e-14
-1.62488e-15
3.17461e-14
-1.18638e-15
6.32884e-14
-6.59265e-16
6.25855e-13
3.19612e-16
0
1.17849e-11
-1.71283e-17
3.40334e-16
-7.1248e-17
4.25521e-16
-2.55522e-16
7.52994e-16
-6.13551e-16
1.21276e-15
-1.10952e-15
1.56897e-15
-1.66085e-15
1.71854e-15
-2.18263e-15
1.67457e-15
-2.60065e-15
1.47621e-15
-2.83932e-15
1.15266e-15
-2.81106e-15
7.30172e-16
-2.4163e-15
2.3598e-16
-1.6111e-15
-9.12999e-17
-3.13119e-16
-7.19576e-16
2.78137e-15
-1.41572e-15
8.73023e-15
-1.95463e-15
1.4849e-14
-1.92681e-15
1.76529e-14
-1.7974e-15
1.91392e-14
-1.39841e-15
1.93331e-14
-9.4529e-16
2.07227e-14
-7.60966e-16
2.96931e-14
-9.88278e-16
5.95802e-14
-1.29389e-15
1.55795e-16
1.17965e-13
-4.43753e-18
8.39637e-17
-1.14792e-17
9.40055e-17
-3.79796e-17
1.58217e-16
-1.01896e-16
2.88399e-16
-2.00866e-16
3.9421e-16
-3.1471e-16
4.2996e-16
-4.19756e-16
4.00762e-16
-4.91354e-16
3.19344e-16
-4.99255e-16
1.97214e-16
-4.06559e-16
3.47947e-17
-1.67986e-16
-1.32447e-16
2.7478e-16
-2.66026e-16
1.28527e-15
-3.66465e-16
2.26799e-15
-3.14154e-16
2.62107e-15
-2.62734e-16
3.13313e-15
-2.17843e-16
3.74257e-15
-1.6138e-16
4.00093e-15
-1.29722e-16
3.92644e-15
-1.12841e-16
5.04859e-15
-1.00076e-16
1.39631e-14
-7.68297e-17
4.08624e-14
-6.22579e-17
-3.05579e-17
7.43092e-14
-8.62304e-19
2.41087e-17
-1.66465e-18
2.65005e-17
-5.3062e-18
4.34448e-17
-1.67524e-17
8.10468e-17
-3.61378e-17
1.08652e-16
-5.79992e-17
1.11535e-16
-7.56935e-17
9.40525e-17
-8.15529e-17
6.18153e-17
-6.64675e-17
2.25269e-17
-1.52287e-17
-3.75327e-17
7.42483e-17
-5.78714e-17
1.91626e-16
-4.63339e-17
1.91977e-16
-5.28116e-17
1.94588e-16
-3.71905e-17
2.08082e-16
-2.74894e-17
2.1547e-16
-1.8236e-17
2.07796e-16
-1.46761e-17
2.27822e-16
-1.37915e-17
2.79425e-16
-1.50332e-17
3.21858e-16
-1.94572e-17
3.24422e-16
-2.89998e-17
3.09114e-16
-3.89139e-17
-3.94557e-17
3.29879e-16
-1.44111e-19
6.7594e-18
-2.39915e-19
7.64027e-18
-8.34776e-19
1.25392e-17
-2.98191e-18
2.23313e-17
-6.74691e-18
2.81535e-17
-1.06689e-17
2.63302e-17
-1.30149e-17
1.92264e-17
-1.18468e-17
9.52091e-18
-5.7994e-18
1.76769e-18
1.27056e-17
-6.12123e-18
1.51278e-17
-9.29714e-18
2.611e-17
-7.16952e-18
1.77771e-17
-5.84781e-18
1.65416e-17
-4.63747e-18
1.51996e-17
-3.06389e-18
1.36062e-17
-2.29617e-18
1.50635e-17
-2.22162e-18
1.94335e-17
-2.54088e-18
2.98783e-17
-3.40405e-18
5.4095e-17
-4.78096e-18
1.13611e-16
-6.68403e-18
2.35371e-16
-9.12549e-18
-1.28168e-17
4.11443e-16
-1.30717e-20
1.62289e-18
-1.9143e-20
1.87468e-18
-1.08839e-19
3.06954e-18
-4.69154e-19
5.17763e-18
-1.12223e-18
6.0835e-18
-1.73074e-18
5.09105e-18
-1.91072e-18
3.07984e-18
-1.35097e-18
1.12166e-18
-3.4429e-19
2.00087e-19
1.59186e-18
-1.73414e-19
1.6015e-18
-5.37276e-19
1.57498e-18
-6.95255e-19
1.68147e-18
-6.61583e-19
1.62396e-18
-5.19404e-19
1.3151e-18
-3.23425e-19
1.42201e-18
-2.89004e-19
1.8352e-18
-3.04855e-19
2.8898e-18
-3.81523e-19
5.10006e-18
-4.99244e-19
8.98968e-18
-6.7609e-19
1.57422e-17
-1.10145e-18
2.85283e-17
-2.23773e-18
-6.0614e-18
5.74558e-17
1.1329e-21
3.20776e-19
4.31306e-21
3.74821e-19
-6.58823e-21
6.07692e-19
-5.53145e-20
9.63414e-19
-1.50017e-19
1.04582e-18
-2.2695e-19
7.68386e-19
-2.18989e-19
3.70164e-19
-1.17915e-19
1.16349e-19
-2.95714e-20
1.2557e-20
4.38729e-20
-3.54698e-20
9.63738e-20
-7.02653e-20
1.32019e-19
-7.23758e-20
1.59436e-19
-6.34283e-20
1.3638e-19
-4.02503e-20
1.18201e-19
-2.61135e-20
1.36645e-19
-2.60483e-20
1.95694e-19
-3.05623e-20
3.21083e-19
-3.87568e-20
5.29794e-19
-5.7304e-20
9.77134e-19
-1.38842e-19
2.5258e-18
-5.20964e-19
8.30409e-18
-1.97427e-18
-7.89574e-18
3.05609e-17
7.12895e-22
4.88621e-20
1.76656e-21
5.71047e-20
7.75935e-22
9.07351e-20
-4.9976e-21
1.33845e-19
-1.63456e-20
1.3316e-19
-2.38845e-20
8.41694e-20
-1.93123e-20
3.25557e-20
-9.26703e-21
6.80166e-21
-1.43691e-21
-9.02075e-22
5.17938e-21
-4.2769e-21
8.58635e-21
-5.76914e-21
1.07905e-20
-5.66992e-21
1.11191e-20
-4.56127e-21
7.65373e-21
-2.48594e-21
7.72948e-21
-1.80082e-21
1.00002e-20
-1.89595e-21
1.55936e-20
-2.33581e-21
2.57201e-20
-3.74773e-21
5.62452e-20
-1.28298e-20
2.38512e-19
-8.02357e-20
1.38018e-18
-4.95467e-19
6.87546e-18
-2.37639e-18
-1.32613e-17
3.35312e-17
1.08833e-22
5.08388e-21
2.1892e-22
5.8726e-21
1.09838e-22
9.02906e-21
-4.82486e-22
1.2252e-20
-1.54691e-21
1.11151e-20
-2.00683e-21
5.90949e-21
-1.33117e-21
1.98395e-21
-4.31386e-22
3.79085e-22
1.98278e-22
-3.8487e-23
3.67549e-22
-2.93661e-22
5.39465e-22
-3.89473e-22
6.81917e-22
-3.72685e-22
6.02553e-22
-2.76708e-22
3.89252e-22
-1.36908e-22
4.31347e-22
-1.00561e-22
5.99011e-22
-1.0764e-22
1.00641e-21
-1.76948e-22
2.54825e-21
-8.25907e-22
1.5693e-20
-7.4334e-21
1.4265e-19
-6.82572e-20
1.16379e-18
-5.43482e-19
7.07972e-18
-3.5348e-18
-3.30068e-17
5.95165e-17
4.68143e-24
2.69871e-22
1.36676e-24
3.04373e-22
-1.21279e-23
4.46889e-22
-6.01e-23
5.57459e-22
-1.26213e-22
4.61346e-22
-1.26107e-22
1.99374e-22
-7.03466e-23
4.80912e-23
-2.05915e-23
6.92428e-25
9.72546e-24
-8.72322e-24
2.12572e-23
-1.6395e-23
3.01002e-23
-2.0982e-23
3.69908e-23
-1.97065e-23
2.87752e-23
-1.37934e-23
1.77847e-23
-6.37466e-24
2.00475e-23
-4.75037e-24
2.92319e-23
-7.39438e-24
8.6291e-23
-4.60059e-23
7.39305e-22
-5.12103e-22
9.13834e-21
-5.8319e-21
1.06059e-19
-6.18111e-20
1.09673e-18
-6.20655e-19
1.06408e-17
-6.53804e-18
-7.2604e-17
1.15506e-16
-2.0234e-25
6.9414e-28
-8.48707e-25
3.93639e-27
-2.11839e-24
1.19754e-26
-4.47911e-24
1.58125e-26
-6.27186e-24
3.92516e-27
-4.40656e-24
1.80194e-28
-1.64227e-24
-1.75901e-25
-3.48291e-26
-1.42516e-25
5.15879e-25
-4.07488e-25
9.84789e-25
-7.35762e-25
1.41629e-24
-8.59474e-25
1.65854e-24
-7.63489e-25
1.17987e-24
-4.79115e-25
7.1588e-25
-2.14706e-25
8.19593e-25
-2.79021e-25
2.52397e-24
-1.99555e-24
2.97603e-23
-2.79236e-23
4.45243e-22
-3.6938e-22
6.23033e-21
-4.54165e-21
8.0575e-20
-5.25909e-20
1.07671e-18
-6.98393e-19
1.55582e-17
-1.04716e-17
-1.22124e-16
1.81199e-16
-2.04698e-30
1.04102e-28
-2.38902e-29
5.98583e-28
-1.03762e-28
1.91953e-27
-1.90791e-28
2.75625e-27
-6.75739e-29
6.69916e-28
-4.46979e-30
2.25553e-29
6.22888e-27
-2.0216e-27
7.06264e-27
-1.09034e-26
1.80048e-26
-2.37245e-26
3.91651e-26
-3.14249e-26
5.26065e-26
-2.81685e-26
5.44672e-26
-1.91676e-26
3.37713e-26
-8.28486e-27
2.62327e-26
-7.9736e-27
6.08309e-26
-5.76219e-26
9.07857e-25
-1.03123e-24
1.70617e-23
-1.65119e-23
2.74418e-22
-2.36626e-22
4.02835e-21
-3.0979e-21
5.63233e-20
-3.8225e-20
1.03655e-18
-7.25218e-19
1.91716e-17
-1.37882e-17
-1.6443e-16
2.27214e-16
-5.46893e-31
7.84097e-30
-5.52491e-30
4.57427e-29
-2.402e-29
1.53998e-28
-4.4739e-29
2.34656e-28
-1.42596e-29
5.58919e-29
-6.39302e-31
7.05415e-31
1.2703e-28
-1.37737e-28
4.12645e-28
-6.87851e-28
1.00613e-27
-1.39248e-27
1.41999e-27
-1.39015e-27
1.48197e-27
-1.0167e-27
1.01905e-27
-3.69334e-28
7.3306e-28
-1.58385e-28
9.82965e-28
-1.11538e-27
1.84519e-26
-2.49006e-26
4.4244e-25
-4.76616e-25
8.47572e-24
-8.09141e-24
1.4528e-22
-1.25455e-22
2.25095e-21
-1.73671e-21
3.31964e-20
-2.24941e-20
8.44164e-19
-5.79667e-19
2.01131e-17
-1.51477e-17
-1.85279e-16
2.40029e-16
-5.77065e-32
2.93847e-35
-5.4543e-31
1.95133e-36
-2.43907e-30
1.25292e-37
-4.68311e-30
7.98531e-39
-1.40257e-30
1.69066e-38
-2.24774e-32
-3.18854e-31
5.2336e-30
-3.45931e-30
2.72799e-29
-1.9826e-29
4.84616e-29
-4.47874e-29
6.08261e-29
-4.64603e-29
4.27143e-29
-3.37177e-29
1.44262e-29
-9.44258e-30
1.36662e-29
-1.85959e-29
2.55318e-28
-4.02921e-28
7.67631e-27
-9.12438e-27
1.73486e-25
-1.83757e-25
3.50498e-24
-3.33944e-24
6.4275e-23
-5.51222e-23
1.03746e-21
-7.89453e-22
1.58973e-20
-1.05015e-20
5.35648e-19
-3.87887e-19
1.89845e-17
-1.45019e-17
-1.8129e-16
2.27208e-16
-2.66775e-37
7.97844e-49
-2.72135e-38
8.97857e-46
-2.30046e-39
1.12744e-45
-1.82598e-40
3.85116e-43
-4.7608e-40
2.89333e-39
2.01515e-32
-8.44524e-38
1.28355e-31
-1.16999e-34
8.09594e-31
-1.95774e-33
1.57601e-30
-7.32943e-33
1.94349e-30
-1.25948e-32
1.3081e-30
-1.61477e-32
5.93266e-31
-1.44375e-31
2.55993e-30
-4.52014e-30
9.10362e-29
-1.22187e-28
2.42457e-27
-2.91496e-27
5.79396e-26
-6.2249e-26
1.2391e-24
-1.18674e-24
2.38071e-23
-2.037e-23
3.91009e-22
-2.91697e-22
6.08894e-21
-3.86806e-21
2.94468e-19
-2.10982e-19
1.32952e-17
-9.7952e-18
-1.39431e-16
1.66956e-16
-8.23177e-51
1.15403e-49
-1.36738e-47
1.44816e-46
-2.2508e-47
1.86954e-46
-9.53941e-45
6.45985e-44
-8.74066e-41
4.26182e-41
3.24467e-39
-2.12419e-39
5.11958e-36
-2.41788e-36
9.13958e-35
-4.00449e-35
3.33602e-34
-1.56639e-34
6.02751e-34
-2.82034e-34
1.00746e-33
-1.26254e-33
1.84709e-32
-4.11719e-32
7.55972e-31
-1.24104e-30
2.43045e-29
-3.36434e-29
6.84653e-28
-8.40017e-28
1.71118e-26
-1.86413e-26
3.78427e-25
-3.67004e-25
7.4402e-24
-6.36111e-24
1.20242e-22
-8.80495e-23
1.84858e-21
-1.12722e-21
1.29155e-19
-8.87184e-20
7.20375e-18
-5.88608e-18
-1.01281e-16
1.06593e-16
-1.27978e-51
-8.83272e-51
-2.29108e-48
-1.66128e-51
-3.86253e-48
-3.79221e-52
-1.65569e-45
9.68921e-50
-1.32761e-42
2.11133e-46
8.23614e-41
-2.03757e-42
1.07058e-37
-1.19899e-38
1.88179e-36
-5.28894e-37
7.15754e-36
-2.49572e-36
1.56607e-35
-9.25047e-36
1.1834e-34
-2.60067e-34
5.40471e-33
-9.31202e-33
1.88605e-31
-2.92309e-31
5.97355e-30
-8.41208e-30
1.73394e-28
-2.15275e-28
4.44482e-27
-4.93897e-27
1.00127e-25
-9.81748e-26
1.9565e-24
-1.66901e-24
3.01879e-23
-2.19358e-23
4.45073e-22
-2.65801e-22
4.38869e-20
-2.94427e-20
3.59481e-18
-3.07139e-18
-6.65566e-17
6.52356e-17
1.01626e-52
-1.76436e-51
8.67622e-54
-8.39841e-53
7.79123e-54
7.30765e-53
-2.47222e-51
3.38416e-50
-6.5495e-48
7.15452e-47
7.75397e-44
-7.62222e-44
5.28572e-40
-2.63185e-41
2.49444e-38
-2.39958e-39
1.27709e-37
-3.06388e-38
6.35083e-37
-1.18279e-36
2.6036e-35
-5.51225e-35
1.08277e-33
-1.91631e-33
3.9551e-32
-6.27878e-32
1.31514e-30
-1.82738e-30
3.85891e-29
-4.79131e-29
1.01036e-27
-1.12514e-27
2.26509e-26
-2.21254e-26
4.28257e-25
-3.62017e-25
6.23161e-24
-4.58718e-24
8.6947e-23
-5.43553e-23
1.17835e-20
-7.69554e-21
1.52385e-18
-1.37617e-18
-3.98582e-17
3.54732e-17
2.06869e-53
-8.16499e-54
6.78546e-55
-1.80913e-54
-1.44257e-54
8.97869e-53
-8.30731e-52
7.53483e-51
-2.14196e-48
1.22008e-47
3.04643e-45
-1.29496e-44
1.14209e-42
-9.91044e-43
1.1788e-40
-6.70505e-41
1.85907e-39
-4.14221e-39
9.18314e-38
-2.24036e-37
5.00888e-36
-8.90658e-36
1.99703e-34
-3.37057e-34
7.48485e-33
-1.1179e-32
2.47317e-31
-3.30867e-31
7.34072e-30
-8.7789e-30
1.94118e-28
-2.09831e-28
4.24737e-27
-4.02954e-27
7.65514e-26
-6.35191e-26
1.0743e-24
-8.24745e-25
1.47905e-23
-1.08211e-23
2.46794e-21
-1.57757e-21
5.50036e-19
-5.41201e-19
-2.14959e-17
1.73833e-17
4.92074e-56
-2.25744e-55
1.15527e-56
3.13908e-55
-1.64799e-54
7.54065e-53
-1.7231e-52
2.16593e-51
-3.4245e-49
-2.22277e-50
4.94813e-46
-1.25265e-45
4.32072e-44
-1.44897e-43
3.42845e-42
-1.0326e-41
2.55141e-40
-6.00015e-40
1.59731e-38
-2.78701e-38
7.15846e-37
-1.22721e-36
3.08748e-35
-4.78626e-35
1.15117e-33
-1.59252e-33
3.81475e-32
-4.70513e-32
1.12878e-30
-1.24707e-30
2.99644e-29
-3.02822e-29
6.32331e-28
-5.6904e-28
1.09319e-26
-8.97994e-27
1.5826e-25
-1.3107e-25
2.43682e-24
-2.18293e-24
3.99352e-22
-2.55514e-22
1.70739e-19
-1.82853e-19
-1.01403e-17
7.43841e-18
1.43907e-57
-1.17153e-56
-4.20486e-57
2.9877e-55
-1.24237e-54
5.18153e-53
-4.46671e-53
1.81978e-51
1.19196e-51
5.16372e-54
4.23115e-47
-1.08067e-46
5.93803e-45
-1.16591e-44
4.96948e-43
-8.70562e-43
3.3078e-41
-5.41816e-41
1.74366e-39
-2.97178e-39
8.72123e-38
-1.34837e-37
3.79664e-36
-5.17884e-36
1.39875e-34
-1.71143e-34
4.55173e-33
-5.00322e-33
1.32411e-31
-1.30355e-31
3.51736e-30
-3.23321e-30
7.18468e-29
-6.18054e-29
1.24356e-27
-1.08141e-27
2.0276e-26
-1.84851e-26
3.91966e-25
-3.79322e-25
4.99117e-23
-3.37405e-23
4.40138e-20
-5.24133e-20
-4.08726e-18
2.67583e-18
7.47398e-59
-3.59219e-58
-3.54476e-57
1.50282e-55
-7.35527e-55
2.99229e-53
-3.26925e-53
1.21137e-51
-1.17174e-55
7.11821e-53
3.23309e-48
-6.74954e-48
4.17648e-46
-8.65359e-46
3.66666e-44
-6.87026e-44
2.63556e-42
-4.45109e-42
1.64569e-40
-2.39741e-40
8.32557e-39
-1.07542e-38
3.51981e-37
-4.1467e-37
1.26823e-35
-1.34245e-35
4.0169e-34
-3.91138e-34
1.12887e-32
-1.00031e-32
3.01337e-31
-2.59793e-31
6.20574e-30
-5.61405e-30
1.18566e-28
-1.20961e-28
2.21711e-27
-2.14462e-27
5.08416e-26
-4.43597e-26
4.91263e-24
-3.83866e-24
9.1967e-21
-1.26367e-20
-1.37821e-18
7.79914e-19
2.20866e-60
-7.20596e-60
-1.49911e-57
5.72544e-56
-3.48087e-55
1.37963e-53
-1.82505e-53
6.17862e-52
-1.39242e-54
5.59346e-53
1.74556e-49
-3.25925e-49
2.72457e-47
-4.43965e-47
2.55286e-45
-3.68544e-45
1.90385e-43
-2.45612e-43
1.15333e-41
-1.36805e-41
5.71744e-40
-6.2395e-40
2.39952e-38
-2.41678e-38
8.34329e-37
-7.84878e-37
2.59236e-35
-2.46775e-35
7.02744e-34
-6.70967e-34
1.92918e-32
-1.89785e-32
4.42535e-31
-4.91008e-31
1.00941e-29
-1.12192e-29
1.87199e-28
-1.6814e-28
4.14905e-27
-3.04054e-27
3.93048e-25
-3.74591e-25
1.50416e-21
-2.53534e-21
-3.84548e-19
1.75205e-19
4.1681e-62
-8.62912e-62
-4.45859e-58
1.78358e-56
-1.23394e-55
4.44586e-54
-7.47549e-54
2.14847e-52
-9.15626e-55
1.75705e-53
7.1609e-51
-1.19383e-50
1.19979e-48
-1.68271e-48
1.18243e-46
-1.45278e-46
9.07898e-45
-9.97866e-45
5.67821e-43
-5.65425e-43
2.8442e-41
-2.68308e-41
1.18684e-39
-1.11745e-39
4.09068e-38
-3.97406e-38
1.35155e-36
-1.50101e-36
3.8209e-35
-4.84588e-35
1.11148e-33
-1.44877e-33
2.93148e-32
-3.6657e-32
6.63853e-31
-5.75799e-31
9.87542e-30
-6.23574e-30
1.85389e-28
-1.45216e-28
2.43253e-26
-2.93067e-26
1.80046e-22
-4.18158e-22
-8.88782e-20
2.79815e-20
4.18472e-64
7.08532e-63
-9.67513e-59
2.87866e-57
-2.79669e-56
7.38886e-55
-1.97963e-54
3.88386e-53
-2.32906e-55
2.72737e-54
2.17829e-52
-2.83815e-52
3.8485e-50
-4.59484e-50
3.98199e-48
-4.04736e-48
3.16287e-46
-2.91851e-46
2.00973e-44
-1.71326e-44
1.04337e-42
-8.9799e-43
4.6493e-41
-4.38342e-41
1.73359e-39
-1.72716e-39
6.73196e-38
-6.79832e-38
2.18998e-36
-2.35564e-36
6.44418e-35
-6.98664e-35
1.55563e-33
-1.63578e-33
2.2383e-32
-1.67726e-32
2.27767e-31
-1.08634e-31
5.20868e-30
-6.82927e-30
1.00319e-27
-2.28309e-27
1.31745e-23
-5.56968e-23
-1.72143e-20
2.44376e-21
-6.28496e-65
5.72714e-63
-8.68075e-60
2.93677e-59
-2.7943e-57
7.76277e-57
-2.52625e-55
5.64043e-55
-2.8112e-56
3.12901e-56
4.21685e-54
-4.37705e-54
8.70783e-52
-8.06282e-52
9.312e-50
-7.61981e-50
7.81298e-48
-5.72345e-48
5.1606e-46
-4.08318e-46
2.95586e-44
-2.4689e-44
1.52889e-42
-1.19253e-42
6.21542e-41
-5.16743e-41
2.45363e-39
-2.28721e-39
8.26984e-38
-8.96867e-38
2.29744e-36
-2.61602e-36
4.7117e-35
-3.84687e-35
3.95331e-34
-1.35572e-34
2.16738e-33
-1.25145e-33
1.11629e-31
-2.35189e-31
2.81201e-29
-1.2192e-27
5.46276e-26
-7.60641e-24
-2.82996e-21
-3.90462e-22
-4.17214e-65
2.49842e-63
-2.15548e-62
1.10943e-60
-1.06875e-59
7.53691e-59
-2.22751e-57
2.27543e-57
-2.36035e-58
1.07277e-57
5.0718e-56
-5.28465e-56
1.23169e-53
-7.93401e-54
1.43833e-51
-8.64182e-52
1.27097e-49
-8.34549e-50
1.02454e-47
-6.07724e-48
6.74812e-46
-4.07255e-46
3.42742e-44
-2.09578e-44
1.51803e-42
-1.11602e-42
6.62572e-41
-5.78802e-41
2.44242e-39
-2.03574e-39
6.26603e-38
-5.20906e-38
6.77304e-37
-3.58414e-37
1.77967e-36
-5.97315e-37
1.16211e-35
-1.91407e-35
7.16159e-34
-9.72662e-32
-9.16225e-29
-4.85059e-28
-2.42209e-24
-8.18948e-25
-3.54798e-22
-2.75642e-22
-1.07142e-65
7.18644e-64
1.41757e-61
2.36335e-61
3.53501e-60
1.34881e-59
-3.27864e-60
4.18877e-58
-5.30913e-60
4.23168e-58
4.57738e-58
-1.39859e-58
9.39769e-56
-3.2923e-56
1.2983e-53
-4.41777e-54
1.493e-51
-4.29879e-52
1.23447e-49
-4.17742e-50
9.02341e-48
-3.03838e-48
4.88791e-46
-2.09229e-46
2.64779e-44
-1.53569e-44
1.32956e-42
-7.71367e-43
4.27355e-41
-3.09476e-41
8.87338e-40
-6.11916e-40
3.54205e-39
-7.47962e-40
3.81665e-39
-2.54822e-39
4.0691e-38
-6.69695e-37
-4.08688e-32
-2.09334e-32
-4.29473e-28
-4.58378e-29
-4.37243e-25
-7.30828e-26
-2.58494e-23
-4.8006e-23
5.8484e-64
4.69404e-65
7.89921e-62
2.41102e-63
1.75523e-60
8.63807e-62
3.11164e-61
3.29425e-60
-1.06919e-60
8.66813e-59
3.13482e-60
1.82843e-60
2.86278e-58
-2.3765e-59
5.04789e-56
-4.1491e-57
5.95961e-54
-5.48928e-55
6.6508e-52
-7.39229e-53
5.30833e-50
-7.86381e-51
3.86495e-48
-9.27612e-49
2.86989e-46
-7.92824e-47
1.38581e-44
-5.09264e-45
5.00245e-43
-2.27226e-43
5.05281e-42
-1.67104e-42
4.50963e-42
-2.43366e-42
1.24718e-41
-4.66324e-41
-8.26936e-40
-3.67991e-38
-1.58919e-32
-4.37214e-33
-2.79161e-29
-1.66923e-29
-2.84385e-26
-9.57631e-27
-9.92703e-25
-3.59391e-24
3.00157e-65
1.46126e-70
9.8711e-64
1.94615e-69
2.52947e-62
3.14929e-68
2.98706e-61
4.05126e-67
-8.98452e-63
-4.3366e-69
-5.78526e-63
-3.69026e-65
1.49192e-61
-2.39483e-63
3.38894e-59
-5.59176e-61
5.6077e-57
-1.0113e-58
8.81206e-55
-2.1195e-56
1.03975e-52
-3.77473e-54
1.30112e-50
-5.15054e-52
1.12626e-48
-5.50577e-50
6.97435e-47
-3.13989e-48
2.6746e-45
-7.2953e-47
1.16115e-44
-2.39262e-46
1.25981e-44
-3.37567e-45
1.9903e-43