/*--------------------------------*- C++ -*----------------------------------*\
  =========                 |
  \\      /  F ield         | OpenFOAM: The Open Source CFD Toolbox
   \\    /   O peration     | Website:  https://openfoam.org
    \\  /    A nd           | Version:  9
     \\/     M anipulation  |
\*---------------------------------------------------------------------------*/
FoamFile
{
    format      ascii;
    class       volScalarField;
    location    "0.45";
    object      epsilon;
}
// * * * * * * * * * * * * * * * * * * * * * * * * * * * * * * * * * * * * * //

dimensions      [0 2 -3 0 0 0 0];

internalField   nonuniform List<scalar> 
2268
(
0.341796
0.709124
0.856211
0.952329
1.03916
1.11995
1.19763
1.2823
1.35797
1.43033
1.50257
1.57647
1.65147
1.72763
1.84266
1.97751
2.04221
1.9859
1.77846
1.42602
1.05608
0.668557
0.281718
0.531627
0.552727
0.564843
0.558867
0.561348
0.572023
0.590958
0.620628
0.653593
0.690305
0.731329
0.777062
0.827558
0.882432
0.944952
1.01116
1.04442
1.02362
0.936723
0.807568
0.679957
0.539048
0.305777
0.801617
0.563345
0.517354
0.486878
0.473421
0.472636
0.482124
0.500824
0.525502
0.55577
0.591715
0.633403
0.680707
0.732886
0.788468
0.84182
0.872309
0.856881
0.78628
0.677405
0.576564
0.478995
0.37611
1.05734
0.60845
0.519036
0.472876
0.449476
0.441051
0.443843
0.45597
0.475169
0.50075
0.532499
0.570209
0.613432
0.66101
0.710154
0.754293
0.779066
0.765112
0.700812
0.59867
0.502336
0.423848
0.384617
1.3081
0.671491
0.54134
0.479977
0.447029
0.431165
0.427436
0.43341
0.447037
0.467349
0.493836
0.525992
0.56301
0.603363
0.643842
0.678124
0.695087
0.680542
0.624929
0.533577
0.440316
0.372908
0.353808
1.56136
0.747944
0.576445
0.498616
0.455341
0.43151
0.420889
0.420432
0.427992
0.442288
0.462503
0.487826
0.517118
0.548585
0.57903
0.603003
0.612203
0.596874
0.550715
0.476208
0.394514
0.338009
0.318519
1.82175
0.83686
0.622046
0.525683
0.47076
0.438132
0.420088
0.41283
0.413916
0.421717
0.435114
0.453025
0.474063
0.496312
0.51688
0.531542
0.534842
0.521388
0.488655
0.438023
0.37747
0.331967
0.290218
2.08838
0.941081
0.678482
0.560345
0.491931
0.449459
0.423406
0.409025
0.403413
0.404559
0.411077
0.421675
0.434836
0.448695
0.46088
0.46858
0.469147
0.461428
0.447335
0.430516
0.409959
0.386043
0.324062
0.0352274
0.186796
0.259443
0.311533
0.341817
0.358193
0.364087
0.364111
0.357734
0.344585
0.326236
0.303205
0.275761
0.243841
0.207261
0.165868
0.0353078
0.035214
0.0225993
0.0989334
0.148118
0.178398
0.18104
0.174901
0.167853
0.161707
0.157069
0.152743
0.147299
0.140622
0.132588
0.123074
0.111904
0.098831
0.0834598
0.0636895
0.0387908
0.0294316
0.184218
0.157717
0.163329
0.153616
0.141031
0.13103
0.123994
0.119263
0.115526
0.111746
0.107521
0.10259
0.0967416
0.0897615
0.0813895
0.0712722
0.0587603
0.0434855
0.035559
0.293743
0.176941
0.161951
0.145839
0.130488
0.119096
0.111393
0.106347
0.102671
0.0994321
0.0961266
0.0924243
0.088072
0.0828351
0.0764609
0.0686588
0.0591104
0.0479907
0.0436122
0.409817
0.202945
0.167559
0.145633
0.127963
0.115312
0.106835
0.101298
0.0974213
0.094304
0.0913855
0.0882899
0.0847345
0.0804751
0.0752726
0.0688927
0.0611738
0.0525208
0.0514033
0.542101
0.235826
0.177854
0.149343
0.129193
0.115221
0.105886
0.0997529
0.0955315
0.0923235
0.0895321
0.0867484
0.0836679
0.0800411
0.0756424
0.0702791
0.0638705
0.0569392
0.0586508
0.708334
0.274396
0.190979
0.155108
0.132357
0.117041
0.106826
0.100049
0.0954042
0.091987
0.0891761
0.0865384
0.0837532
0.0805673
0.0767642
0.072176
0.0667554
0.0610693
0.0648439
0.980325
0.312592
0.204154
0.161496
0.136385
0.119838
0.108789
0.101376
0.096278
0.0925882
0.0896716
0.0870787
0.0844765
0.0816077
0.0782598
0.0742732
0.0696043
0.0648428
0.0704025
2.53609
1.14533
0.786924
0.626614
0.533239
0.47342
0.433869
0.407972
0.392067
0.383564
0.380687
0.381944
0.385824
0.39078
0.39536
0.398626
0.400998
0.40545
0.418641
0.450827
0.512195
0.605828
0.780949
2.83388
1.40279
0.952592
0.734556
0.604144
0.518604
0.459559
0.417535
0.387481
0.366455
0.352254
0.343251
0.338074
0.335602
0.33513
0.336638
0.341072
0.350421
0.367444
0.395017
0.435067
0.487712
0.550702
3.0594
1.65222
1.14456
0.861759
0.688811
0.574285
0.494195
0.435621
0.391759
0.35901
0.334964
0.31778
0.306039
0.298656
0.294918
0.294542
0.297634
0.304497
0.315306
0.329732
0.346544
0.363339
0.376844
3.36226
1.87885
1.34309
0.99823
0.781332
0.636961
0.535649
0.460773
0.403672
0.359921
0.326996
0.302809
0.285691
0.274302
0.26761
0.264855
0.265478
0.268962
0.274673
0.281684
0.288634
0.293699
0.294837
3.77283
2.09866
1.5417
1.13619
0.876559
0.703863
0.582604
0.492314
0.422612
0.368451
0.32703
0.296277
0.274163
0.258977
0.249301
0.243979
0.242052
0.242661
0.244948
0.24796
0.250587
0.251595
0.249792
4.33603
2.33486
1.73847
1.27052
0.971389
0.773795
0.634916
0.530444
0.448663
0.38428
0.334465
0.297048
0.269876
0.250817
0.238065
0.230135
0.225803
0.224037
0.223905
0.224509
0.224943
0.224316
0.221843
5.0991
2.60969
1.92717
1.39828
1.0655
0.847752
0.693895
0.576271
0.48255
0.407702
0.349156
0.304716
0.272128
0.248942
0.232952
0.222352
0.215698
0.211816
0.209728
0.208568
0.207545
0.205946
0.203172
6.0698
2.92668
2.09733
1.52039
1.16242
0.929324
0.762278
0.631625
0.525403
0.439351
0.371369
0.319343
0.280758
0.253033
0.233533
0.220113
0.211087
0.205141
0.201226
0.198478
0.196161
0.193647
0.190427
7.04527
3.25721
2.26004
1.64707
1.2708
1.02453
0.843678
0.698536
0.578383
0.479928
0.401529
0.341119
0.295964
0.263118
0.239722
0.22322
0.211653
0.203536
0.197726
0.19333
0.189626
0.186027
0.182073
7.61927
3.54504
2.4403
1.79783
1.40322
1.14011
0.941199
0.778349
0.642158
0.529896
0.440044
0.370418
0.318005
0.279449
0.251678
0.231736
0.217354
0.206844
0.198946
0.192707
0.187395
0.182441
0.177415
7.53096
3.79549
2.66776
1.99442
1.57031
1.2795
1.05513
0.870545
0.716315
0.589158
0.487087
0.407569
0.347271
0.302493
0.269755
0.245935
0.228385
0.215177
0.204908
0.196546
0.189328
0.182688
0.176218
6.84253
4.0149
2.97066
2.25009
1.77084
1.43718
1.18043
0.971751
0.798961
0.656857
0.542452
0.452746
0.384124
0.332622
0.29441
0.266256
0.245139
0.228875
0.215895
0.205069
0.195588
0.186878
0.17855
6.23093
4.07325
3.30346
2.52661
1.97513
1.59366
1.30578
1.07579
0.886868
0.731428
0.605532
0.505901
0.428841
0.370281
0.326206
0.293278
0.26819
0.248494
0.232434
0.218765
0.206618
0.195402
0.184751
5.94739
3.80928
3.50056
2.70763
2.12694
1.72144
1.41767
1.17582
0.976439
0.810971
0.675418
0.566763
0.481579
0.415942
0.365853
0.327692
0.29827
0.274797
0.255305
0.238412
0.223171
0.208967
0.195456
6.07854
3.56038
3.43409
2.73249
2.19542
1.80633
1.50899
1.26775
1.06505
0.893766
0.751068
0.634835
0.542276
0.469848
0.41371
0.370206
0.336251
0.308769
0.28557
0.265116
0.246362
0.228656
0.211681
6.30216
3.39204
3.26207
2.66324
2.20362
1.85731
1.5825
1.35152
1.15157
0.97849
0.831383
0.709421
0.610679
0.53216
0.470324
0.42163
0.383174
0.35164
0.324615
0.300379
0.277758
0.256039
0.234931
6.4728
3.30119
3.09032
2.57795
2.19215
1.89285
1.64549
1.42916
1.23572
1.06403
0.915171
0.789616
0.686334
0.602927
0.53623
0.482896
0.44027
0.404923
0.374207
0.346178
0.319484
0.293311
0.267369
6.5752
3.25817
2.97645
2.51865
2.18635
1.92576
1.70347
1.50223
1.31708
1.14915
1.00104
0.874282
0.768576
0.682065
0.611967
0.555213
0.509015
0.470477
0.436573
0.405065
0.374355
0.343454
0.312025
6.62438
3.23819
2.9182
2.49006
2.19213
1.96
1.75815
1.57072
1.39458
1.23227
1.08737
0.962063
0.856542
0.76932
0.697903
0.639426
0.591079
0.550564
0.514496
0.480296
0.446036
0.410448
0.373047
6.64278
3.22819
2.89687
2.48243
2.20605
1.99439
1.80864
1.63339
1.46658
1.31158
1.17238
1.05148
0.949245
0.86436
0.794458
0.736759
0.688499
0.647959
0.611445
0.575992
0.539244
0.499519
0.456028
6.66197
3.22373
2.89792
2.48588
2.22327
2.02637
1.85311
1.68854
1.53137
1.3853
1.2544
1.1411
1.04572
0.96688
0.902171
0.848762
0.803788
0.766001
0.731644
0.697275
0.65997
0.617455
0.56841
6.71854
3.22803
2.91385
2.49473
2.24084
2.05404
1.89013
1.73495
1.58773
1.45221
1.3322
1.22985
1.14519
1.07661
1.02155
0.977023
0.940067
0.908396
0.87989
0.850187
0.815555
0.772868
0.719957
6.83143
3.25219
2.94792
2.50886
2.25856
2.07711
1.91961
1.77273
1.63583
1.51232
1.40559
1.31734
1.24721
1.19328
1.15269
1.1222
1.09847
1.07824
1.06077
1.04099
1.01418
0.976001
0.922968
7.02356
3.33477
3.00735
2.53151
2.27815
2.09743
1.94416
1.80483
1.6784
1.56784
1.4761
1.40439
1.35195
1.31653
1.29498
1.28378
1.27917
1.27712
1.27715
1.27441
1.26308
1.23723
1.19134
7.45736
3.52714
3.06471
2.55995
2.30162
2.12099
1.97168
1.83929
1.72263
1.62462
1.54802
1.49368
1.46052
1.44599
1.44677
1.45926
1.47965
1.50388
1.52777
1.55062
1.56509
1.56332
1.53706
7.71641
3.72868
3.04979
2.58762
2.33779
2.16411
2.02018
1.89298
1.78287
1.69411
1.62979
1.59069
1.57546
1.58138
1.6051
1.64313
1.6919
1.74734
1.80403
1.86163
1.91382
1.95141
1.9632
7.44611
3.77881
3.04864
2.64453
2.42106
2.26347
2.12494
1.99678
1.8844
1.79609
1.73592
1.70492
1.70161
1.72311
1.76612
1.82748
1.90423
1.99334
2.09026
2.18916
2.28985
2.38291
2.45514
7.33938
3.79636
3.18074
2.81195
2.62382
2.48763
2.34772
2.20333
2.07001
1.9621
1.88769
1.8491
1.84483
1.87158
1.92571
2.00401
2.10384
2.22279
2.35789
2.5049
2.66018
2.82104
2.97455
7.42779
3.83808
3.49146
3.20106
3.06169
2.94918
2.79046
2.59633
2.4006
2.23301
2.10988
2.03596
2.0091
2.02432
2.0764
2.16113
2.27554
2.41761
2.58571
2.77786
2.99065
3.22008
3.46155
7.78467
4.04284
4.10119
3.94437
3.88108
3.80091
3.59061
3.28032
2.94556
2.64865
2.42126
2.27076
2.19152
2.17355
2.20728
2.28545
2.40337
2.55852
2.74986
2.97737
3.24068
3.53755
3.86214
8.54025
4.49312
5.07138
5.09676
5.1837
5.17472
4.86265
4.32896
3.73755
3.21262
2.80982
2.5355
2.37337
2.30202
2.30301
2.3631
2.47395
2.63125
2.83368
3.08239
3.38007
3.72816
4.12362
9.55998
5.18782
5.97202
6.39145
6.8627
7.03386
6.55527
5.6592
4.67846
3.83164
3.19866
2.77255
2.51435
2.38309
2.34679
2.38397
2.48161
2.63284
2.83511
3.08957
3.40175
3.77717
4.21439
10.1041
5.6809
6.60847
7.31228
8.52057
8.98845
8.25777
6.88211
5.45357
4.28208
3.44282
2.89467
2.56598
2.3932
2.33094
2.35045
2.43507
2.57605
2.77008
3.01833
3.32672
3.7037
4.14975
10.0864
6.31118
7.14629
7.95171
9.72279
10.2733
9.15322
7.37054
5.68114
4.35757
3.44102
2.86021
2.51951
2.34171
2.275
2.28806
2.36352
2.49256
2.6717
2.90222
3.18902
3.54115
3.96472
9.87998
7.83487
8.85867
9.83592
10.2435
9.8285
8.68771
7.0532
5.3859
4.10965
3.26404
2.74621
2.45015
2.29891
2.24322
2.25469
2.31872
2.42779
2.57847
2.77232
3.01416
3.31106
3.66944
9.35473
10.1143
12.7183
13.5559
12.719
11.9501
9.17272
6.47596
4.73014
3.63365
2.95774
2.55936
2.34251
2.2427
2.21837
2.24519
2.31095
2.40933
2.53594
2.69091
2.88389
3.13263
3.456
7.72384
10.7064
12.2032
12.9178
12.1724
9.40471
6.80283
4.972
3.76496
3.00518
2.54866
2.29293
2.16909
2.13104
2.14838
2.20225
2.28216
2.38268
2.50149
2.6399
2.80523
3.01076
3.27021
5.06153
9.09576
9.87127
9.50648
8.18624
6.4135
4.87654
3.76797
3.03555
2.58148
2.3208
2.19239
2.15441
2.17684
2.23784
2.32356
2.42666
2.54188
2.66689
2.80288
2.95373
3.12418
3.31348
2.76234
6.43931
7.23298
6.84849
5.82016
4.67911
3.7524
3.10683
2.69806
2.46456
2.35598
2.33781
2.38675
2.48088
2.59938
2.73029
2.8737
3.02146
3.1687
3.31662
3.46885
3.62572
3.78238
1.68123
3.96193
4.92429
4.94463
4.42998
3.81893
3.31743
2.99942
2.83677
2.78999
2.83195
2.94694
3.13455
3.35418
3.56694
3.76425
3.97838
4.18154
4.36511
4.53187
4.69481
4.84784
4.98993
1.47932
2.46936
3.42041
3.86819
3.81211
3.72786
3.58738
3.60279
3.75873
3.99606
4.28664
4.65998
5.16813
5.64207
6.02853
6.30847
6.71767
7.04207
7.28999
7.46241
7.61812
7.69164
7.81495
1.64385
1.18957
1.86936
2.43297
3.06231
3.8724
4.32238
4.96699
6.20734
7.26372
8.04508
8.93196
10.4111
11.4289
12.1071
12.4832
14.0625
14.4393
15.3408
15.9532
15.7005
14.6866
15.5944
1.22286
1.37917
1.57929
1.81572
0.6069
0.623814
0.623236
0.583687
0.381065
0.377587
0.36725
0.348313
0.290665
0.285895
0.278739
0.269108
0.245015
0.240963
0.235884
0.229814
0.217692
0.214472
0.210671
0.20631
0.199477
0.19676
0.193673
0.190221
0.186817
0.184293
0.181532
0.178533
0.178181
0.175587
0.172863
0.170005
0.172894
0.169999
0.167074
0.164109
0.170721
0.167302
0.163956
0.160665
0.171706
0.167536
0.163544
0.159708
0.176145
0.170966
0.166083
0.161468
0.184603
0.178119
0.17206
0.166391
0.198001
0.189851
0.182268
0.175213
0.21773
0.207476
0.197937
0.189074
0.245833
0.232941
0.220906
0.209697
0.285243
0.269079
0.253879
0.239637
0.340088
0.319943
0.300776
0.282641
0.416092
0.391239
0.367199
0.344129
0.521089
0.490912
0.461061
0.431861
0.665674
0.629899
0.593445
0.556861
0.863776
0.82296
0.779666
0.73468
1.13232
1.08882
1.03996
0.98663
1.4882
1.44774
1.39791
1.33927
1.94071
1.91392
1.87333
1.81841
2.48018
2.48256
2.46804
2.4341
3.06808
3.11689
3.1492
3.15995
3.63606
3.74556
3.84303
3.92125
4.11346
4.28799
4.45826
4.61669
4.43916
4.67345
4.9134
5.15285
4.56882
4.84617
5.13972
5.44616
4.51058
4.80403
5.12182
5.46435
4.30514
4.58813
4.89717
5.2401
3.96312
4.22463
4.5179
4.85065
3.69574
3.88924
4.11427
4.38551
3.47751
3.6469
3.81958
4.01357
3.4445
3.56018
3.68365
3.82032
3.87659
3.9594
4.04526
4.13736
5.0613
5.12031
5.17458
5.22483
7.81771
7.80542
7.77808
7.78293
15.0155
14.8202
14.5038
15.8995
0.651916
0.325928
0.218441
0.170493
0.142854
0.124805
0.112622
0.104266
0.0984594
0.0942996
0.091137
0.0885006
0.0860376
0.0834756
0.0805896
0.0772011
0.0732308
0.0692818
0.0768731
0.435604
0.288704
0.216035
0.175235
0.148972
0.130845
0.118005
0.10885
0.102306
0.0975634
0.0940112
0.0911837
0.0887195
0.0863273
0.083756
0.0807887
0.0773159
0.0740768
0.0841797
0.312878
0.25102
0.206039
0.174705
0.151914
0.134965
0.122295
0.112885
0.10593
0.100777
0.0968903
0.0938396
0.091271
0.088884
0.086408
0.0836058
0.0803879
0.0777337
0.0901148
0.253432
0.222753
0.194405
0.170974
0.152044
0.136928
0.125033
0.115822
0.108776
0.10341
0.0992886
0.0960345
0.0933177
0.0908442
0.0883441
0.0855922
0.0825729
0.0805727
0.0950496
0.220386
0.202161
0.183173
0.165606
0.150155
0.137037
0.126219
0.117508
0.110615
0.10521
0.100959
0.0975483
0.0946837
0.0920954
0.0895369
0.0868264
0.0840614
0.0828733
0.0993491
0.199608
0.187076
0.173319
0.159701
0.147021
0.135745
0.12607
0.118004
0.111417
0.106103
0.101817
0.0983073
0.0953274
0.0926441
0.0900528
0.0874376
0.0850336
0.0848419
0.10332
0.184971
0.175427
0.164744
0.153788
0.143217
0.133492
0.124884
0.117491
0.111283
0.10614
0.101893
0.098347
0.0953032
0.0925744
0.0900084
0.0875684
0.0856409
0.0866179
0.107198
0.174046
0.166163
0.157348
0.14818
0.139153
0.130662
0.122966
0.1162
0.110385
0.105457
0.101303
0.0977775
0.094728
0.0920141
0.089541
0.0873564
0.0860045
0.0882902
0.111155
0.165828
0.158812
0.151097
0.143084
0.135138
0.127571
0.120609
0.114382
0.108933
0.104234
0.100208
0.096751
0.09375
0.0911093
0.0887906
0.0869274
0.0862231
0.0899174
0.115311
0.159897
0.153183
0.14601
0.138663
0.131409
0.124485
0.11807
0.112275
0.107144
0.102666
0.0987883
0.0954349
0.0925263
0.0900064
0.0878903
0.0863948
0.0863822
0.0915455
0.11976
0.156114
0.149239
0.142153
0.135063
0.128164
0.121625
0.115576
0.110098
0.105224
0.100945
0.0972204
0.0939927
0.0912082
0.0888438
0.0869632
0.0858633
0.0865628
0.0932227
0.124583
0.154525
0.147057
0.139641
0.132437
0.12558
0.119182
0.113322
0.108043
0.103358
0.0992454
0.0956673
0.0925764
0.0899358
0.0877497
0.086125
0.0854347
0.0868507
0.0950111
0.129867
0.15534
0.14683
0.138661
0.130967
0.123839
0.117336
0.111484
0.106282
0.101709
0.0977229
0.094277
0.0913246
0.0888391
0.0868451
0.0854881
0.0852135
0.0873431
0.0969957
0.135718
0.158959
0.148896
0.139499
0.130901
0.12316
0.116284
0.110242
0.10498
0.100431
0.0965232
0.0931871
0.0903683
0.0880423
0.086249
0.0851675
0.0853128
0.0881538
0.0992903
0.142274
0.166043
0.153805
0.142607
0.132608
0.123845
0.116277
0.109809
0.104322
0.0996898
0.0957951
0.092536
0.0898382
0.0876714
0.086084
0.0852851
0.0858578
0.0894167
0.102041
0.149714
0.177622
0.162416
0.148681
0.136647
0.126344
0.117677
0.110477
0.104547
0.0996858
0.0957132
0.0924796
0.0898785
0.0878631
0.0864837
0.0859757
0.0869896
0.0912867
0.105425
0.158266
0.195267
0.176045
0.158797
0.143884
0.131346
0.121034
0.112687
0.106009
0.100706
0.0965145
0.0932198
0.0906673
0.0887813
0.0876047
0.0873944
0.0888691
0.0939412
0.109651
0.168206
0.221332
0.196695
0.174606
0.155655
0.139926
0.127207
0.117127
0.109261
0.103194
0.0985584
0.0950515
0.0924534
0.0906439
0.0896462
0.0897319
0.0916879
0.097585
0.114953
0.179854
0.259311
0.227387
0.198644
0.174045
0.153776
0.137565
0.124901
0.115195
0.107872
0.102426
0.0984449
0.0956213
0.0937731
0.0928886
0.093243
0.0956903
0.102466
0.121599
0.193563
0.314324
0.272654
0.2348
0.202315
0.175588
0.154312
0.137813
0.125284
0.115941
0.109096
0.104192
0.100811
0.0986917
0.0977687
0.0983077
0.101223
0.108913
0.129904
0.209714
0.393781
0.339205
0.288992
0.245568
0.209681
0.181058
0.158856
0.142006
0.129447
0.120251
0.113669
0.109142
0.106307
0.105031
0.105555
0.108843
0.117428
0.140289
0.228709
0.50832
0.436874
0.370122
0.311714
0.262962
0.223738
0.193068
0.1696
0.151937
0.138842
0.129317
0.12262
0.118261
0.116025
0.116119
0.119535
0.128873
0.153408
0.250982
0.673191
0.580004
0.491418
0.412825
0.346325
0.292042
0.248931
0.215377
0.189635
0.170114
0.155521
0.144891
0.13758
0.133274
0.13214
0.135179
0.144906
0.170473
0.277048
0.910093
0.789623
0.672548
0.567084
0.476558
0.401399
0.340442
0.291802
0.253424
0.223409
0.200195
0.182614
0.16987
0.161548
0.157769
0.159515
0.168917
0.194018
0.30767
1.24835
1.09633
0.943129
0.802092
0.679225
0.575651
0.489848
0.41938
0.361806
0.315035
0.277439
0.247843
0.225442
0.209798
0.201039
0.200098
0.208101
0.229731
0.344303
1.7217
1.54145
1.3472
1.16066
0.994049
0.851435
0.731344
0.630189
0.544573
0.472099
0.411369
0.361692
0.322742
0.294433
0.277189
0.271991
0.277721
0.290594
0.390239
2.35506
2.16928
1.94304
1.70726
1.48463
1.2876
1.11846
0.973365
0.847279
0.736731
0.640455
0.558814
0.492892
0.443971
0.413771
0.404002
0.409092
0.405487
0.453461
3.13991
3.00179
2.78439
2.52199
2.24594
1.98126
1.74166
1.52954
1.34127
1.17275
1.02239
0.89163
0.783923
0.703695
0.656444
0.64698
0.661965
0.634642
0.553933
4.01134
4.00005
3.87282
3.65644
3.3789
3.06881
2.75126
2.44327
2.15405
1.88796
1.64784
1.43778
1.26443
1.1376
1.0712
1.07918
1.13702
1.09109
0.742087
4.85132
5.0414
5.10573
5.05247
4.89573
4.64798
4.32311
3.93835
3.51801
3.09222
2.68951
2.33263
2.03982
1.83164
1.7387
1.79717
1.97241
1.95536
1.14379
5.54328
5.96179
6.28108
6.49722
6.60962
6.6066
6.46868
6.17516
5.71844
5.1329
4.48707
3.86111
3.32296
2.93122
2.75655
2.88718
3.30032
3.45351
2.05505
5.97607
6.60884
7.19411
7.72097
8.1788
8.55193
8.81258
8.90471
8.7305
8.24156
7.46561
6.51933
5.56559
4.76886
4.31526
4.42541
5.18091
5.78572
4.06551
6.08346
6.86888
7.66647
8.46355
9.25557
10.0332
10.7661
11.3893
11.8121
11.9017
11.5106
10.6033
9.34477
7.9649
6.87498
6.61341
7.64804
9.07426
7.99005
5.89109
6.75125
7.67299
8.64311
9.66089
10.7246
11.8279
12.9438
13.9895
14.8121
15.2458
15.1429
14.3644
12.8412
11.0281
9.89821
10.9222
13.4024
14.2834
5.49668
6.34073
7.26663
8.2725
9.35981
10.5297
11.7894
13.1432
14.5617
15.9467
17.1343
17.9597
18.2232
17.6893
16.1955
14.3315
15.2922
18.9342
22.3995
4.93794
5.67093
6.48389
7.378
8.35345
9.40491
10.5367
11.771
13.1203
14.545
15.9785
17.4112
18.5744
19.1705
18.96
18.1339
20.0214
25.8002
31.1507
4.4066
4.91874
5.48348
6.0971
6.7648
7.48961
8.26925
9.10201
9.99713
10.9619
11.9903
13.0847
14.2259
15.3718
16.4557
17.5556
21.5842
30.2506
39.5365
4.0922
4.42343
4.78125
5.16378
5.57207
6.0073
6.47024
6.96379
7.49634
8.07544
8.70101
9.36916
10.0737
10.8088
11.6819
13.0914
16.7087
25.7645
45.5035
4.31524
4.50533
4.697
4.89068
5.08966
5.30153
5.5349
5.79894
6.10307
6.45307
6.84868
7.28341
7.74568
8.22674
8.76077
9.55054
11.6164
19.2823
45.9922
5.29302
5.32623
5.34655
5.34951
5.34494
5.36226
5.41898
5.529
5.70573
5.95358
6.27076
6.64616
7.07258
7.54401
8.09283
8.82133
10.2382
15.7743
44.0041
7.61469
7.37344
7.23926
7.04107
6.80338
6.70394
6.6921
6.84581
7.14434
7.58968
8.20479
8.86303
9.69774
10.5561
11.7071
12.9236
14.0304
17.8592
44.5265
15.1189
13.7667
15.0032
15.1841
14.3203
16.572
15.6482
18.7918
18.9937
20.4402
25.2069
25.0423
30.5524
30.3166
38.2078
41.4358
32.6129
32.9187
53.462
)
;

boundaryField
{
    leftWall
    {
        type            epsilonWallFunction;
        value           nonuniform List<scalar> 
50
(
0.341796
0.531627
0.801617
1.05734
1.3081
1.56136
1.82175
2.08838
2.53609
2.83388
3.0594
3.36226
3.77283
4.33603
5.0991
6.0698
7.04527
7.61927
7.53096
6.84253
6.23093
5.94739
6.07854
6.30216
6.4728
6.5752
6.62438
6.64278
6.66197
6.71854
6.83143
7.02356
7.45736
7.71641
7.44611
7.33938
7.42779
7.78467
8.54025
9.55998
10.1041
10.0864
9.87998
9.35473
7.72384
5.06153
2.76234
1.68123
1.47932
1.64385
)
;
    }
    rightWall
    {
        type            epsilonWallFunction;
        value           nonuniform List<scalar> 
50
(
0.0225993
0.0294316
0.035559
0.0436122
0.0514033
0.0586508
0.0648439
0.0704025
0.0768731
0.0841797
0.0901148
0.0950496
0.0993491
0.10332
0.107198
0.111155
0.115311
0.11976
0.124583
0.129867
0.135718
0.142274
0.149714
0.158266
0.168206
0.179854
0.193563
0.209714
0.228709
0.250982
0.277048
0.30767
0.344303
0.390239
0.453461
0.553933
0.742087
1.14379
2.05505
4.06551
7.99005
14.2834
22.3995
31.1507
39.5365
45.5035
45.9922
44.0041
44.5265
53.462
)
;
    }
    lowerWall
    {
        type            epsilonWallFunction;
        value           nonuniform List<scalar> 
62
(
0.341796
0.709124
0.856211
0.952329
1.03916
1.11995
1.19763
1.2823
1.35797
1.43033
1.50257
1.57647
1.65147
1.72763
1.84266
1.97751
2.04221
1.9859
1.77846
1.42602
1.05608
0.668557
0.281718
0.281718
0.305777
0.37611
0.384617
0.353808
0.318519
0.290218
0.324062
1.22286
1.37917
1.57929
1.81572
0.0352274
0.0989334
0.184218
0.293743
0.409817
0.542101
0.708334
0.980325
0.0352274
0.186796
0.259443
0.311533
0.341817
0.358193
0.364087
0.364111
0.357734
0.344585
0.326236
0.303205
0.275761
0.243841
0.207261
0.165868
0.0353078
0.035214
0.0225993
)
;
    }
    atmosphere
    {
        type            inletOutlet;
        inletValue      uniform 0.1;
        value           nonuniform List<scalar> 
46
(
1.64385
0.1
1.86936
0.1
3.06231
0.1
0.1
4.96699
0.1
0.1
8.04508
8.93196
0.1
0.1
0.1
12.4832
0.1
0.1
0.1
0.1
0.1
14.6866
0.1
15.0155
14.8202
14.5038
0.1
0.1
13.7667
0.1
0.1
14.3203
0.1
15.6482
0.1
18.9937
20.4402
0.1
25.0423
0.1
30.3166
0.1
0.1
32.6129
32.9187
53.462
)
;
    }
    defaultFaces
    {
        type            empty;
    }
}


// ************************************************************************* //
