/*--------------------------------*- C++ -*----------------------------------*\
  =========                 |
  \\      /  F ield         | OpenFOAM: The Open Source CFD Toolbox
   \\    /   O peration     | Website:  https://openfoam.org
    \\  /    A nd           | Version:  9
     \\/     M anipulation  |
\*---------------------------------------------------------------------------*/
FoamFile
{
    format      ascii;
    class       volScalarField;
    location    "0.45";
    object      epsilon;
}
// * * * * * * * * * * * * * * * * * * * * * * * * * * * * * * * * * * * * * //

dimensions      [0 2 -3 0 0 0 0];

internalField   nonuniform List<scalar> 
2268
(
0.0366942
0.118281
0.232312
0.349298
0.458634
0.560811
0.655532
0.745016
0.829335
0.907549
0.977985
1.03839
1.0859
1.11681
1.12557
1.11255
1.07871
1.01354
0.915383
0.787575
0.623628
0.470296
0.333408
0.0464695
0.0765651
0.12399
0.174561
0.218674
0.258023
0.294274
0.328399
0.36074
0.391214
0.419468
0.444992
0.467206
0.485524
0.49952
0.512188
0.526629
0.54147
0.556495
0.567965
0.556036
0.457538
0.406403
0.0578976
0.0732985
0.110187
0.146019
0.177107
0.204377
0.229134
0.252258
0.274167
0.294944
0.314486
0.332613
0.349176
0.364172
0.378005
0.392676
0.41113
0.435079
0.466562
0.504447
0.533309
0.508796
0.652201
0.0641146
0.0780284
0.108553
0.137647
0.162916
0.18501
0.205018
0.223707
0.241453
0.258366
0.274428
0.289591
0.303883
0.317533
0.331216
0.34668
0.366559
0.393218
0.429035
0.473983
0.519432
0.556999
0.923004
0.073326
0.0853636
0.111403
0.135874
0.157235
0.176152
0.193506
0.209871
0.225509
0.240503
0.254864
0.26862
0.281899
0.295051
0.30886
0.324964
0.345756
0.373682
0.411131
0.459107
0.516013
0.607517
1.21651
0.0825903
0.0944086
0.116777
0.137267
0.15544
0.172048
0.187699
0.202705
0.217179
0.231151
0.244651
0.257758
0.270664
0.283786
0.297951
0.314704
0.336259
0.364994
0.403376
0.453705
0.521145
0.659816
1.49748
0.0903323
0.104711
0.123874
0.140579
0.155977
0.170811
0.185302
0.199463
0.213257
0.226675
0.239763
0.252641
0.265547
0.278931
0.293621
0.311077
0.333367
0.362774
0.401926
0.45454
0.531956
0.713172
1.80859
0.0966752
0.11687
0.132457
0.145345
0.158351
0.171826
0.185485
0.199059
0.212407
0.225504
0.238422
0.251317
0.264458
0.278304
0.293654
0.311882
0.33495
0.365027
0.40492
0.459564
0.544935
0.759486
2.29009
0.16599
0.543823
1.07791
1.66983
2.2264
2.67292
2.97711
3.1434
3.20024
3.19267
3.12654
3.00937
2.76373
2.29058
1.63594
1.01586
0.583643
0.317055
0.036789
0.262156
0.737872
1.0818
1.28245
1.37113
1.37602
1.33052
1.26319
1.19581
1.1465
1.10732
1.08317
1.04767
0.945292
0.757311
0.544905
0.378706
0.259648
0.0973872
0.435062
0.829333
1.14679
1.36019
1.51552
1.62283
1.68021
1.67368
1.58802
1.43446
1.2848
1.21003
1.18316
1.11863
0.961227
0.750934
0.568454
0.428186
0.207577
0.570186
0.882234
1.28548
1.67582
2.10676
2.58233
3.01489
3.23756
3.11118
2.64386
2.14998
1.83042
1.65381
1.50373
1.29742
1.05337
0.845454
0.692315
0.417257
0.666406
0.914559
1.44954
2.1227
3.04038
4.24989
5.52263
6.32734
6.18831
5.09879
3.94479
3.11699
2.53324
2.08358
1.70371
1.40148
1.1926
1.07316
0.798179
0.744744
0.978891
1.61919
2.61055
4.1236
6.33333
8.88807
10.6959
10.5982
8.56773
6.66202
5.25384
4.04842
3.0045
2.2143
1.77986
1.59579
1.58751
1.43878
0.78928
1.04724
1.77088
3.00303
4.92138
7.85334
11.4503
14.285
14.3253
11.4935
9.21521
7.63619
6.0558
4.36523
2.90953
2.19832
2.03451
2.22534
2.41097
0.741869
1.12588
1.85836
3.06965
4.91209
7.57483
10.5187
12.6221
13.1033
11.537
9.7469
8.36785
7.11869
5.66036
3.77964
2.68565
2.49688
2.94784
3.73487
0.109158
0.136396
0.145473
0.153679
0.16423
0.176336
0.189067
0.201925
0.214735
0.227507
0.240367
0.253523
0.267278
0.282087
0.298688
0.318307
0.342746
0.374001
0.415072
0.472014
0.562114
0.754046
1.38277
0.163613
0.175087
0.170187
0.17348
0.181916
0.19227
0.20326
0.214589
0.226285
0.238489
0.251391
0.265229
0.280298
0.296986
0.315881
0.337896
0.36455
0.397595
0.439816
0.496618
0.580314
0.726737
1.03729
0.310306
0.237504
0.212313
0.210134
0.214352
0.220268
0.227273
0.235499
0.245087
0.256165
0.26888
0.283421
0.300031
0.319027
0.340873
0.366185
0.396157
0.432258
0.476614
0.533185
0.609071
0.720366
0.895525
0.500527
0.317492
0.273671
0.265421
0.259868
0.257346
0.258056
0.2619
0.268687
0.278293
0.290704
0.306013
0.324409
0.346182
0.371808
0.401732
0.43666
0.47763
0.525125
0.582405
0.653428
0.742327
0.852837
0.659969
0.360334
0.320058
0.306984
0.293327
0.284727
0.281527
0.282934
0.288452
0.297851
0.311061
0.328142
0.349238
0.374498
0.404191
0.439346
0.481435
0.530844
0.582999
0.644405
0.717108
0.793865
0.865984
0.662117
0.347931
0.325577
0.309026
0.297595
0.29165
0.290446
0.293403
0.300326
0.311242
0.326295
0.345689
0.369635
0.398244
0.43169
0.470777
0.516654
0.57024
0.632078
0.707671
0.798132
0.874256
0.913686
0.571355
0.319898
0.300951
0.294057
0.290192
0.289471
0.291935
0.297583
0.306582
0.31924
0.335943
0.357103
0.383085
0.414075
0.45004
0.490879
0.536626
0.588499
0.650096
0.724543
0.809114
0.887424
0.939181
0.517269
0.292773
0.272912
0.270513
0.272239
0.276524
0.283144
0.292161
0.30384
0.318602
0.336964
0.359475
0.386631
0.418735
0.455775
0.497462
0.543551
0.594086
0.64836
0.7056
0.767084
0.831033
0.892707
0.491308
0.275097
0.249386
0.246635
0.25057
0.257813
0.267415
0.279159
0.293183
0.309846
0.32964
0.353121
0.380813
0.41307
0.449939
0.491111
0.536062
0.584146
0.634027
0.684379
0.736403
0.790788
0.843504
0.479191
0.262378
0.230122
0.225122
0.229
0.237204
0.248194
0.261444
0.276905
0.294801
0.315526
0.339561
0.367381
0.399331
0.435485
0.475553
0.518901
0.564605
0.611389
0.658299
0.706189
0.756168
0.806241
0.471052
0.251034
0.213776
0.206256
0.208976
0.216794
0.227836
0.241369
0.257196
0.275419
0.29633
0.320319
0.347792
0.37906
0.414217
0.453028
0.494903
0.53894
0.584052
0.629453
0.675439
0.72265
0.770118
0.463081
0.239941
0.199353
0.18966
0.190859
0.197571
0.20778
0.22065
0.235899
0.253548
0.273809
0.297003
0.323478
0.353522
0.387255
0.424536
0.464913
0.507655
0.551891
0.59692
0.642597
0.689
0.735397
0.453158
0.228726
0.186268
0.174935
0.17464
0.179969
0.188872
0.200484
0.21448
0.230838
0.24972
0.271397
0.296182
0.324354
0.356077
0.391323
0.429823
0.471081
0.514469
0.559404
0.605515
0.652489
0.699556
0.44061
0.2174
0.17423
0.161788
0.160208
0.164145
0.171579
0.181647
0.194015
0.208637
0.225643
0.245274
0.267823
0.293573
0.32274
0.355411
0.391508
0.430783
0.472871
0.517363
0.563864
0.611892
0.660637
0.425663
0.206153
0.163116
0.150019
0.147421
0.150105
0.156106
0.164583
0.175202
0.187907
0.20281
0.220132
0.240155
0.263174
0.289455
0.319197
0.352498
0.389346
0.429635
0.473179
0.519692
0.56871
0.619477
0.409003
0.195186
0.152863
0.139483
0.136135
0.137767
0.142481
0.149467
0.1584
0.169217
0.182021
0.197019
0.214488
0.234739
0.258088
0.284831
0.315224
0.349471
0.387714
0.430011
0.476266
0.526153
0.579046
0.391446
0.184708
0.143475
0.130083
0.126216
0.127003
0.130622
0.136295
0.143709
0.152801
0.163666
0.176504
0.191592
0.209257
0.229863
0.253794
0.281449
0.313225
0.349503
0.390591
0.436629
0.487484
0.54269
0.373957
0.174958
0.135005
0.121767
0.117555
0.117679
0.120393
0.124955
0.131063
0.138657
0.147825
0.158766
0.171759
0.187151
0.205349
0.226822
0.252096
0.281752
0.316397
0.356598
0.402751
0.454938
0.512843
0.357504
0.166193
0.127538
0.114524
0.110074
0.109673
0.111648
0.115288
0.120306
0.126641
0.13438
0.14372
0.154945
0.168422
0.184604
0.204036
0.227368
0.255355
0.28883
0.328623
0.375399
0.429463
0.490613
0.342911
0.15867
0.121172
0.108366
0.103724
0.102888
0.104251
0.107131
0.11125
0.11655
0.123114
0.131137
0.14091
0.152822
0.167368
0.185169
0.206994
0.233769
0.266555
0.306454
0.354415
0.410969
0.475981
0.330883
0.152607
0.116006
0.103319
0.0984738
0.0972469
0.0980862
0.100332
0.103712
0.108166
0.113775
0.120731
0.129332
0.139986
0.153229
0.169757
0.190454
0.21642
0.248946
0.289421
0.339093
0.398721
0.468197
0.322033
0.148204
0.112137
0.0994104
0.0943014
0.0926871
0.0930537
0.0947546
0.0975192
0.101282
0.106116
0.112212
0.11987
0.129517
0.14173
0.157272
0.177146
0.20262
0.235228
0.276655
0.328469
0.391666
0.466135
0.316861
0.145638
0.109636
0.096654
0.0911799
0.0891481
0.0890626
0.0902786
0.0925187
0.0957072
0.0999081
0.105305
0.1122
0.121036
0.132424
0.147197
0.166467
0.191676
0.224601
0.26724
0.3215
0.388633
0.468512
0.315766
0.145042
0.108547
0.0950427
0.0890695
0.0865651
0.0860252
0.0867913
0.0885707
0.0912718
0.0949447
0.099763
0.106029
0.114195
0.124906
0.139056
0.157863
0.182938
0.216305
0.260287
0.317154
0.388436
0.474008
0.319056
0.146511
0.108875
0.0945389
0.0879101
0.0848624
0.0838508
0.0841855
0.0855474
0.0878228
0.0910433
0.0953698
0.101099
0.108693
0.11882
0.13243
0.150841
0.175825
0.209648
0.25497
0.314444
0.389924
0.481324
0.326963
0.150087
0.110578
0.095071
0.0876184
0.083951
0.0824442
0.0823562
0.0833301
0.0852229
0.0880436
0.0919365
0.0971903
0.104268
0.11386
0.126961
0.144976
0.169825
0.204013
0.250533
0.312451
0.391997
0.489205
0.339651
0.155759
0.113568
0.0965308
0.0880869
0.0837275
0.0817041
0.0812
0.0818082
0.0833496
0.0858062
0.0893025
0.094115
0.100704
0.109771
0.122347
0.139907
0.164504
0.198859
0.2463
0.310327
0.393616
0.496438
0.357233
0.163447
0.1177
0.0987747
0.0891862
0.0840768
0.0815252
0.080616
0.0808795
0.0820943
0.0842116
0.0873334
0.0917197
0.0978226
0.106346
0.118343
0.13534
0.159496
0.193726
0.241673
0.307296
0.393798
0.501845
0.379764
0.172996
0.122781
0.101628
0.0907693
0.0848753
0.0818006
0.0805067
0.0804504
0.081362
0.0831593
0.0859189
0.0898814
0.0954838
0.103423
0.114757
0.131041
0.154509
0.18823
0.236138
0.302659
0.391614
0.504262
0.407242
0.184173
0.128573
0.104893
0.0926785
0.0859966
0.0824252
0.0807808
0.0804365
0.0810707
0.0825658
0.0849713
0.0885048
0.0935822
0.100882
0.111448
0.126839
0.149322
0.182075
0.229274
0.295805
0.386196
0.502528
0.439622
0.196687
0.134808
0.108359
0.0947534
0.087317
0.0833004
0.0813554
0.0807642
0.0811514
0.0823637
0.0844229
0.0875203
0.0920444
0.0986429
0.108327
0.122625
0.143794
0.175055
0.220763
0.286228
0.37675
0.495483
0.476854
0.21021
0.141201
0.111814
0.0968405
0.088723
0.0843384
0.0821583
0.0813708
0.0815472
0.0825
0.0842235
0.0868808
0.0908259
0.0966636
0.105351
0.118354
0.137864
0.167075
0.210425
0.273569
0.362603
0.481994
0.518974
0.224401
0.147468
0.115056
0.0987997
0.0901161
0.0854655
0.0831302
0.082205
0.0822119
0.0829331
0.0843373
0.0865575
0.0899076
0.0949368
0.102527
0.114046
0.131567
0.158166
0.198245
0.257674
0.34329
0.461043
0.566225
0.238919
0.153328
0.117895
0.100511
0.0914174
0.0866255
0.0842259
0.0832269
0.0831093
0.0836313
0.0847394
0.0865364
0.089291
0.0934855
0.099907
0.109791
0.125034
0.148505
0.184422
0.238686
0.318725
0.431934
0.619212
0.253387
0.158495
0.120158
0.101876
0.0925708
0.0877814
0.0854153
0.084408
0.0842119
0.0845704
0.0854131
0.0868137
0.0889924
0.0923562
0.0975797
0.105736
0.118496
0.138424
0.169411
0.217152
0.289273
0.394308
0.679135
0.2673
0.162673
0.121687
0.10282
0.0935446
0.0889168
0.0866836
0.0857307
0.0854999
0.085732
0.0863462
0.0873903
0.0890355
0.0916084
0.0956599
0.102078
0.112265
0.128406
0.1539
0.193895
0.255736
0.348598
0.748363
0.280353
0.165498
0.122319
0.103296
0.0943342
0.0900378
0.0880324
0.0871887
0.0869614
0.0871026
0.0875294
0.0882682
0.0894438
0.0913027
0.0942683
0.0990333
0.106705
0.119034
0.138783
0.170262
0.219965
0.296916
0.83096
0.292748
0.166421
0.121838
0.103271
0.0949649
0.0911748
0.0894811
0.0887887
0.0885939
0.0886755
0.0889569
0.0894488
0.0902352
0.0914886
0.0935107
0.0968029
0.102177
0.110928
0.125119
0.148031
0.184821
0.243326
0.932351
0.301918
0.1644
0.119963
0.102735
0.0955015
0.0923903
0.0910727
0.0905563
0.0904115
0.0904582
0.0906331
0.0909376
0.0914228
0.0921985
0.09346
0.095537
0.0989699
0.104628
0.113903
0.12902
0.153567
0.193323
1.066
0.303671
0.157828
0.116391
0.101753
0.0960712
0.0937926
0.0928858
0.092549
0.0924586
0.0924862
0.0925869
0.0927579
0.0930264
0.093454
0.0941518
0.0953101
0.0972447
0.100468
0.105802
0.11456
0.128858
0.152177
1.2739
0.286787
0.144149
0.110913
0.100549
0.0968986
0.0955474
0.0950442
0.0948681
0.0948244
0.09484
0.0948898
0.0949706
0.0950943
0.0952888
0.0956058
0.0961345
0.097025
0.0985226
0.101022
0.105152
0.111909
0.122885
1.71616
0.217545
0.120223
0.103876
0.0996488
0.0983352
0.0978893
0.0977333
0.0976818
0.0976706
0.0976765
0.0976917
0.0977149
0.0977489
0.0978013
0.0978858
0.0980269
0.098266
0.0986713
0.0993535
0.100488
0.102347
0.105339
3.10827
2.43565
1.86987
1.46237
1.45737
1.57371
1.58207
1.53457
1.05781
1.15833
1.22368
1.25447
0.938023
0.998048
1.04779
1.08322
0.913707
0.947784
0.979129
1.00599
0.935962
0.952585
0.969626
0.986956
0.961239
0.974938
0.988322
1.00293
0.927658
0.949447
0.969222
0.987955
0.87635
0.898177
0.918774
0.938422
0.839714
0.862294
0.883246
0.902312
0.802796
0.825267
0.846589
0.866533
0.767728
0.790282
0.812157
0.833256
0.732785
0.756217
0.779352
0.802184
0.695753
0.720791
0.745957
0.771314
0.657015
0.684095
0.711787
0.740209
0.619255
0.648587
0.679051
0.710799
0.585755
0.617467
0.650817
0.685981
0.559003
0.593224
0.629538
0.66814
0.540184
0.577068
0.616428
0.658471
0.529325
0.56904
0.611533
0.657024
0.525684
0.568394
0.614107
0.663051
0.528113
0.57396
0.622972
0.675384
0.535284
0.584387
0.636772
0.692681
0.545823
0.598274
0.654109
0.713571
0.558371
0.614241
0.673608
0.736711
0.571608
0.630945
0.693928
0.760787
0.584248
0.647073
0.71375
0.784497
0.595015
0.66131
0.731742
0.806513
0.602619
0.672307
0.746526
0.825452
0.605718
0.678644
0.75663
0.839831
0.602894
0.678773
0.760416
0.847963
0.592631
0.670972
0.755989
0.847814
0.573361
0.653366
0.74118
0.836935
0.543583
0.624061
0.71368
0.812693
0.501964
0.581052
0.670786
0.7717
0.447934
0.522646
0.609376
0.709044
0.382929
0.449355
0.528519
0.621836
0.311399
0.365399
0.431582
0.511833
0.240939
0.279562
0.32812
0.388653
0.180385
0.203503
0.233014
0.270513
0.136006
0.146685
0.16028
0.177544
0.108802
0.111552
0.114978
0.119222
0.800538
1.17703
1.76114
2.5008
3.37137
4.33087
5.11731
5.61936
5.88437
5.83182
5.40873
4.98728
4.96023
5.23429
4.60171
3.35332
3.09946
3.81702
5.45522
1.22216
1.14302
1.37012
1.6703
1.90475
2.03817
2.07821
2.08573
2.07541
2.02361
1.90772
1.81269
1.89819
2.22056
2.88771
3.78972
4.35631
5.60456
9.2555
1.22217
1.15772
1.18982
1.24378
1.2628
1.23795
1.19349
1.15607
1.12876
1.10217
1.07194
1.05466
1.09249
1.26268
1.71389
2.79573
4.87916
7.78194
13.9789
1.11326
1.10515
1.10153
1.09358
1.07173
1.03635
0.998231
0.967933
0.947212
0.933506
0.926248
0.93037
0.963614
1.08376
1.4478
2.40472
4.63204
9.59165
19.4229
1.04135
1.05692
1.05941
1.05088
1.03204
1.00598
0.979171
0.957621
0.943782
0.93791
0.940779
0.957209
1.00442
1.1454
1.57168
2.73229
5.3607
11.135
24.8162
1.01655
1.04407
1.0585
1.05783
1.04482
1.0261
1.00834
0.996092
0.992405
0.99948
1.01929
1.05847
1.13579
1.3292
1.93292
3.63205
7.38217
13.8868
29.9851
1.03275
1.07353
1.1004
1.10412
1.08915
1.07153
1.06097
1.06142
1.07599
1.1092
1.16928
1.27923
1.4428
1.68333
2.57562
5.2555
10.9773
19.3816
36.3495
1.02052
1.06192
1.09405
1.10886
1.10761
1.10585
1.1141
1.13325
1.16849
1.24446
1.40652
1.78344
2.34534
2.39451
3.69104
7.99227
16.4204
26.9397
43.6452
0.969677
1.00126
1.02718
1.04796
1.06556
1.08561
1.11483
1.15343
1.20797
1.3065
1.52423
2.08214
2.88417
3.65644
5.52851
12.1837
23.657
35.9142
51.2632
0.931093
0.958491
0.982368
1.00582
1.03066
1.05977
1.09842
1.15301
1.2315
1.34468
1.52259
1.90447
2.58037
4.31644
7.89262
17.5196
32.0892
45.6889
59.2138
0.897655
0.928567
0.955983
0.984065
1.0157
1.05399
1.1043
1.17486
1.2736
1.40001
1.55034
1.80885
2.47013
4.55807
10.1954
23.3042
41.0039
55.9967
68.2744
0.86738
0.903565
0.936308
0.969379
1.00624
1.05074
1.10853
1.1871
1.29145
1.41497
1.5475
1.78083
2.57432
5.16779
12.4953
28.8219
49.6812
66.5438
79.2195
0.840146
0.8827
0.921575
0.959644
1.00032
1.04787
1.10792
1.18661
1.28616
1.39959
1.52959
1.8086
2.82348
5.98185
14.8733
33.7609
57.611
76.9752
92.7634
0.814378
0.864658
0.911199
0.955676
1.00095
1.05114
1.11156
1.18735
1.27987
1.38645
1.53021
1.89116
3.16522
6.96118
17.3326
38.2734
64.7838
87.1973
108.903
0.789314
0.848538
0.904448
0.957506
1.00979
1.06477
1.12715
1.2014
1.28964
1.39609
1.56597
2.02963
3.60848
8.12147
19.847
42.5842
71.6281
97.6406
127.066
0.766392
0.835333
0.901747
0.965419
1.02762
1.09093
1.159
1.23555
1.32396
1.43629
1.64083
2.22781
4.19651
9.49623
22.2979
46.5636
78.4275
109.082
146.603
0.748162
0.82705
0.9047
0.980581
1.05556
1.1312
1.2096
1.29308
1.38584
1.50752
1.75005
2.47246
4.86339
10.6637
24.2796
49.5004
84.8593
122.506
167.863
0.736852
0.825655
0.914992
1.00446
1.0949
1.18682
1.28012
1.37456
1.47379
1.60354
1.87713
2.72347
5.44429
11.5749
24.7924
50.4486
89.8006
138.324
191.642
0.733605
0.832219
0.933573
1.03799
1.14627
1.25793
1.3696
1.47687
1.58115
1.71255
2.00317
2.94632
6.03345
12.648
25.2178
50.9205
92.203
148.922
215.728
0.738457
0.846785
0.960405
1.08093
1.20893
1.34266
1.47397
1.59253
1.6963
1.81977
2.11456
3.12031
6.40773
13.1953
26.4152
52.8808
95.177
154.405
234.079
0.750667
0.868643
0.994665
1.13182
1.28083
1.43732
1.587
1.71218
1.80822
1.92145
2.2381
3.34536
6.68565
13.6584
28.9186
57.4229
101.724
163.403
246.824
0.76909
0.896705
1.03518
1.1892
1.35959
1.53835
1.7041
1.83103
1.91562
2.03248
2.43407
3.71303
6.9453
14.37
31.7955
64.1911
113.101
176.702
253.863
0.79244
0.929786
1.08077
1.25169
1.44351
1.64434
1.82631
1.95521
2.03061
2.17451
2.74885
4.33857
7.50719
15.0203
34.1405
71.3589
130.081
194.978
258.178
0.81943
0.966748
1.13034
1.3181
1.53123
1.75455
1.95636
2.09606
2.17052
2.34757
3.11147
5.03286
8.37473
15.6684
34.0798
71.0656
136.469
206.899
269.116
0.848811
1.0065
1.18285
1.38711
1.62066
1.86591
2.09171
2.25808
2.34631
2.53127
3.37051
5.33635
8.76003
17.0991
36.2578
72.2688
133.28
215
275.46
0.879358
1.04796
1.23724
1.45722
1.70889
1.97279
2.22393
2.43482
2.56017
2.74414
3.62779
5.21495
8.55792
18.096
38.9282
76.7557
136.854
215.506
266.678
0.909832
1.09004
1.29237
1.5268
1.79258
2.06685
2.33435
2.59938
2.78207
2.95764
3.65857
4.92281
8.60806
18.8383
41.0219
81.8601
146.863
211.386
250.035
0.93895
1.13156
1.34702
1.59408
1.86824
2.13857
2.39354
2.68053
2.91933
3.09115
3.62659
4.86383
8.76573
19.365
42.2914
85.0482
155.433
209.25
240.782
0.965368
1.17139
1.4003
1.65838
1.93573
2.19131
2.39928
2.62154
2.85522
3.10685
3.68641
4.9893
9.07137
19.9616
43.2477
86.3027
158.4
211.71
247.038
0.987653
1.20853
1.45209
1.72172
2.00274
2.2432
2.39664
2.52704
2.71499
3.04781
3.81267
5.26516
9.62417
20.9231
44.5527
87.6199
159.696
216.677
262.468
1.00412
1.24176
1.50264
1.78772
2.08098
2.325
2.44735
2.50873
2.64582
3.02432
4.01294
5.6868
10.55
22.5137
46.5627
89.5808
162.774
222.367
279.314
1.01255
1.26909
1.5511
1.85816
2.17674
2.45169
2.59049
2.61917
2.70859
3.10486
4.23917
6.28543
12.0513
25.0323
49.648
92.4357
168.203
231.497
295.267
1.00999
1.287
1.59423
1.93074
2.28856
2.62316
2.83601
2.88645
2.94548
3.32157
4.63814
7.38221
14.3142
28.6274
54.2241
97.4804
176.08
242.572
306.6
0.992715
1.2899
1.62549
1.99829
2.40723
2.82681
3.17246
3.33074
3.42603
3.81565
5.46715
9.01666
17.2238
33.1013
60.221
104.988
186.977
253.34
308.912
0.956519
1.2713
1.63459
2.04822
2.5162
3.03799
3.56314
3.96271
4.21101
4.64592
6.60039
10.966
20.3854
37.903
67.1683
114.783
199.721
260.291
300.599
0.894008
1.22181
1.61224
2.06324
2.59031
3.2185
3.95155
4.71163
5.33601
5.94418
7.71333
12.8472
23.138
42.0223
74.4224
126.737
212.797
259.769
290.237
0.798646
1.12775
1.53724
2.0244
2.60051
3.31406
4.23701
5.39423
6.67368
7.82389
9.39955
13.3313
22.9119
41.4448
76.0538
134.635
217.326
249.625
275.782
0.668342
0.977515
1.38511
1.89255
2.50828
3.27435
4.30429
5.76286
7.70111
9.90585
12.0392
15.1567
22.2325
38.8544
73.4508
136.617
211.712
229.124
256.221
0.510859
0.769508
1.13665
1.62439
2.24397
3.0308
4.08598
5.62781
7.97949
11.177
14.8704
18.803
25.2965
40.3965
74.0526
134.941
198.98
202.755
231.631
0.348593
0.525536
0.799237
1.19579
1.73802
2.46242
3.46018
4.93467
7.25493
11.0059
16.3324
22.9016
31.254
46.6316
78.4511
132.617
181.003
175.972
202.675
0.213843
0.298763
0.439045
0.661901
0.998521
1.49102
2.22461
3.39375
5.39509
8.92498
14.9632
24.7888
38.8735
56.2295
86.3092
130.91
159.551
152.31
170.605
0.1279
0.146884
0.176063
0.220087
0.285636
0.384882
0.54743
0.858235
1.57104
3.39302
8.01845
19.3639
46.8758
67.3847
94.8632
125.559
139.454
133.78
136.169
)
;

boundaryField
{
    leftWall
    {
        type            epsilonWallFunction;
        value           nonuniform List<scalar> 
50
(
0.0366942
0.0464695
0.0578976
0.0641146
0.073326
0.0825903
0.0903323
0.0966752
0.109158
0.163613
0.310306
0.500527
0.659969
0.662117
0.571355
0.517269
0.491308
0.479191
0.471052
0.463081
0.453158
0.44061
0.425663
0.409003
0.391446
0.373957
0.357504
0.342911
0.330883
0.322033
0.316861
0.315766
0.319056
0.326963
0.339651
0.357233
0.379764
0.407242
0.439622
0.476854
0.518974
0.566225
0.619212
0.679135
0.748363
0.83096
0.932351
1.066
1.2739
1.71616
)
;
    }
    rightWall
    {
        type            epsilonWallFunction;
        value           nonuniform List<scalar> 
50
(
0.036789
0.0973872
0.207577
0.417257
0.798179
1.43878
2.41097
3.73487
5.45522
9.2555
13.9789
19.4229
24.8162
29.9851
36.3495
43.6452
51.2632
59.2138
68.2744
79.2195
92.7634
108.903
127.066
146.603
167.863
191.642
215.728
234.079
246.824
253.863
258.178
269.116
275.46
266.678
250.035
240.782
247.038
262.468
279.314
295.267
306.6
308.912
300.599
290.237
275.782
256.221
231.631
202.675
170.605
136.169
)
;
    }
    lowerWall
    {
        type            epsilonWallFunction;
        value           nonuniform List<scalar> 
62
(
0.0366942
0.118281
0.232312
0.349298
0.458634
0.560811
0.655532
0.745016
0.829335
0.907549
0.977985
1.03839
1.0859
1.11681
1.12557
1.11255
1.07871
1.01354
0.915383
0.787575
0.623628
0.470296
0.333408
0.333408
0.406403
0.652201
0.923004
1.21651
1.49748
1.80859
2.29009
3.10827
2.43565
1.86987
1.46237
0.16599
0.262156
0.435062
0.570186
0.666406
0.744744
0.78928
0.741869
0.16599
0.543823
1.07791
1.66983
2.2264
2.67292
2.97711
3.1434
3.20024
3.19267
3.12654
3.00937
2.76373
2.29058
1.63594
1.01586
0.583643
0.317055
0.036789
)
;
    }
    atmosphere
    {
        type            inletOutlet;
        inletValue      uniform 0.1;
        value           nonuniform List<scalar> 
46
(
0.1
0.1
0.1
0.1
0.1
0.1
0.1
0.1
0.1
0.1
0.1
0.1
0.1
0.1
0.1
0.1
0.1
0.1
0.1
0.1
0.1
0.1
0.1
0.1
0.1
0.1
0.1
0.1
0.1
0.1
0.1
0.1
0.1
0.1
0.1
0.1
0.1
0.1
0.1
46.8758
67.3847
94.8632
125.559
139.454
133.78
136.169
)
;
    }
    defaultFaces
    {
        type            empty;
    }
}


// ************************************************************************* //
