/*--------------------------------*- C++ -*----------------------------------*\
  =========                 |
  \\      /  F ield         | OpenFOAM: The Open Source CFD Toolbox
   \\    /   O peration     | Website:  https://openfoam.org
    \\  /    A nd           | Version:  9
     \\/     M anipulation  |
\*---------------------------------------------------------------------------*/
FoamFile
{
    format      ascii;
    class       volScalarField;
    location    "0.45";
    object      k;
}
// * * * * * * * * * * * * * * * * * * * * * * * * * * * * * * * * * * * * * //

dimensions      [0 2 -2 0 0 0 0];

internalField   nonuniform List<scalar> 
2268
(
0.00517419
0.00920393
0.0144281
0.0189304
0.0226855
0.0259346
0.0287709
0.0313261
0.0336412
0.0357188
0.0375386
0.0390638
0.0402418
0.0409967
0.0412045
0.0408839
0.0400449
0.0384065
0.035872
0.0324322
0.027736
0.0229786
0.0183141
0.00814067
0.0188753
0.0295794
0.0389102
0.0464055
0.0527127
0.0582316
0.0631698
0.0676215
0.0716101
0.0751189
0.0781096
0.0805317
0.082324
0.0834028
0.0835721
0.0827206
0.0808011
0.0779266
0.0741997
0.0688703
0.0578984
0.0344069
0.00942561
0.0238264
0.0364375
0.0472467
0.05637
0.0642346
0.0711873
0.0774405
0.0830946
0.0881779
0.09268
0.0965729
0.0998216
0.102391
0.104244
0.105301
0.105466
0.104604
0.102571
0.0991096
0.0931728
0.0809229
0.0470815
0.010083
0.0272686
0.0405239
0.0521575
0.062297
0.0712304
0.0792324
0.0864789
0.0930527
0.0989791
0.104255
0.108868
0.112803
0.116054
0.118624
0.12051
0.121671
0.121934
0.120941
0.118038
0.111843
0.099087
0.0593058
0.0110207
0.0295391
0.0432812
0.0554194
0.0662814
0.0760757
0.0849789
0.0931002
0.10049
0.107167
0.113138
0.118407
0.122983
0.126884
0.130147
0.132816
0.134887
0.13617
0.136179
0.13401
0.128035
0.115289
0.0712615
0.0119251
0.0312698
0.0452342
0.0576843
0.0691339
0.0797038
0.0894451
0.0983835
0.106533
0.11391
0.120533
0.126428
0.131626
0.136167
0.14011
0.143527
0.146444
0.148654
0.149613
0.148306
0.142957
0.130458
0.0818513
0.0126548
0.0325785
0.0465986
0.0593008
0.0713295
0.0826675
0.093219
0.102929
0.111786
0.119814
0.127051
0.133547
0.139351
0.144523
0.149134
0.153277
0.156997
0.160075
0.161952
0.161606
0.15724
0.145401
0.092803
0.0132405
0.0335154
0.0475081
0.0605411
0.0732477
0.085388
0.0967208
0.10714
0.116638
0.125255
0.133061
0.140125
0.146519
0.152311
0.157578
0.162427
0.166932
0.17085
0.17364
0.17434
0.17128
0.160944
0.108614
0.0116446
0.0262018
0.0413864
0.0553731
0.0670715
0.0758286
0.0816109
0.0847976
0.0860009
0.0860375
0.0852469
0.0836657
0.079786
0.0713302
0.0579146
0.0427395
0.0297121
0.0195087
0.00883496
0.0287143
0.0717344
0.0965514
0.112722
0.124669
0.134402
0.142649
0.149144
0.152997
0.154268
0.155651
0.159831
0.163659
0.15926
0.14111
0.112935
0.0834137
0.0546751
0.0151893
0.0403988
0.101277
0.137413
0.166963
0.194101
0.218268
0.237346
0.248877
0.250539
0.242277
0.232045
0.22897
0.231106
0.226871
0.20611
0.17073
0.131022
0.0888445
0.0257626
0.0483431
0.121034
0.171514
0.219735
0.270109
0.322019
0.368719
0.399148
0.403139
0.377498
0.34272
0.317986
0.305042
0.29197
0.265624
0.224569
0.177721
0.12562
0.0415776
0.0534575
0.133422
0.198224
0.268401
0.350932
0.447485
0.543551
0.610806
0.623554
0.575021
0.508718
0.452093
0.406988
0.367428
0.324544
0.276079
0.224885
0.166667
0.064239
0.0571893
0.144226
0.218767
0.310224
0.42604
0.572401
0.727549
0.842461
0.867385
0.793468
0.707615
0.631154
0.551443
0.468259
0.389478
0.326203
0.272134
0.212267
0.0945334
0.0591134
0.151293
0.233719
0.339806
0.474179
0.648549
0.840011
0.99208
1.02967
0.942322
0.860811
0.796647
0.713561
0.597701
0.468814
0.377874
0.318787
0.260808
0.131787
0.0564803
0.154728
0.240513
0.344254
0.470898
0.626663
0.785295
0.904943
0.958529
0.927813
0.878503
0.836022
0.787668
0.70677
0.559139
0.434976
0.365509
0.309813
0.174138
0.0143878
0.0344029
0.0483466
0.0621735
0.0761016
0.0894779
0.101909
0.113286
0.123643
0.133078
0.141703
0.149629
0.156954
0.163762
0.170133
0.176153
0.181893
0.187125
0.191373
0.193836
0.193141
0.186384
0.15579
0.0189757
0.035813
0.0503205
0.066601
0.0826953
0.0974887
0.11082
0.12286
0.133832
0.14394
0.153362
0.16224
0.170688
0.178787
0.186588
0.1941
0.201347
0.208144
0.214108
0.218596
0.220403
0.217445
0.203594
0.0291017
0.0421702
0.0590688
0.0781584
0.0951894
0.109892
0.122858
0.134603
0.145485
0.155757
0.165607
0.17518
0.184582
0.193879
0.203105
0.21221
0.221175
0.229856
0.237919
0.244874
0.249759
0.251311
0.247723
0.0398662
0.0596267
0.08015
0.0989222
0.113624
0.126156
0.137485
0.148119
0.158354
0.16839
0.178379
0.18844
0.198662
0.209103
0.219814
0.23072
0.241702
0.252628
0.262944
0.272515
0.280777
0.28654
0.288833
0.0478317
0.0831956
0.103824
0.119345
0.130728
0.140856
0.150597
0.160229
0.169936
0.179867
0.190136
0.200832
0.21201
0.223669
0.235782
0.248489
0.261948
0.275881
0.288513
0.301041
0.313153
0.322304
0.326532
0.0476542
0.0878144
0.112348
0.127145
0.138518
0.148829
0.158727
0.168529
0.178484
0.188799
0.199635
0.211103
0.223254
0.23605
0.24943
0.26349
0.27835
0.293948
0.310017
0.327488
0.346018
0.358516
0.360882
0.0432072
0.0856697
0.111505
0.128497
0.141715
0.153244
0.163958
0.174343
0.184762
0.19551
0.20682
0.218859
0.23171
0.245346
0.259634
0.274414
0.289554
0.3052
0.322038
0.340547
0.359593
0.375193
0.383226
0.040461
0.081763
0.107578
0.125983
0.140769
0.1536
0.165347
0.176553
0.187626
0.198903
0.210662
0.223115
0.236388
0.250484
0.265276
0.280548
0.296111
0.311861
0.327455
0.342621
0.35757
0.371695
0.383921
0.0390739
0.0783611
0.103286
0.122024
0.137527
0.151147
0.163649
0.175534
0.187192
0.198949
0.211084
0.223817
0.237292
0.251539
0.266454
0.281821
0.297379
0.312864
0.327836
0.341891
0.355311
0.368169
0.379467
0.0384162
0.0755523
0.0993809
0.117698
0.133168
0.146971
0.159765
0.171991
0.183989
0.196049
0.208421
0.221309
0.23485
0.249084
0.263925
0.279168
0.29452
0.309645
0.324136
0.337712
0.350591
0.363011
0.374436
0.0379641
0.0733098
0.0958735
0.113341
0.128275
0.141769
0.154415
0.166599
0.178615
0.190714
0.203112
0.215985
0.229453
0.243552
0.258212
0.273244
0.288363
0.303228
0.317482
0.33089
0.343541
0.355605
0.366817
0.0375184
0.0713075
0.0925703
0.108999
0.12312
0.135985
0.148146
0.159954
0.171673
0.183521
0.195685
0.208318
0.22152
0.235324
0.249669
0.264395
0.279247
0.293914
0.308083
0.321529
0.334219
0.346191
0.35726
0.036966
0.0693135
0.0893169
0.104668
0.117862
0.129925
0.141387
0.152579
0.163745
0.175083
0.18676
0.19891
0.211623
0.224929
0.238781
0.253049
0.267522
0.281938
0.296026
0.30957
0.322453
0.334597
0.345807
0.0362685
0.0672157
0.0860437
0.100364
0.112622
0.123821
0.134477
0.14491
0.155352
0.165991
0.176981
0.188445
0.200469
0.213083
0.226259
0.239897
0.253837
0.26787
0.281774
0.29535
0.30844
0.320894
0.332482
0.0354372
0.064991
0.0827451
0.0961259
0.107502
0.117851
0.127677
0.137294
0.146928
0.156761
0.166941
0.177588
0.188784
0.200571
0.212936
0.225815
0.239092
0.252614
0.266211
0.279713
0.292956
0.305756
0.317863
0.0345014
0.0626688
0.0794647
0.0920084
0.102588
0.112145
0.121174
0.129983
0.138796
0.147792
0.157118
0.166893
0.177207
0.188108
0.199606
0.211668
0.224224
0.237172
0.250396
0.263764
0.277127
0.290297
0.303019
0.0335028
0.0603124
0.0762589
0.0880731
0.097948
0.106794
0.115091
0.123142
0.131171
0.139355
0.147845
0.156764
0.166208
0.176239
0.18689
0.198158
0.210015
0.222411
0.23528
0.248537
0.26206
0.275674
0.289125
0.0324948
0.0579982
0.0731942
0.0843768
0.0936385
0.101858
0.109501
0.116867
0.124177
0.131612
0.139325
0.147447
0.156084
0.165314
0.175191
0.185747
0.196992
0.208926
0.221535
0.234781
0.248581
0.262777
0.27711
0.0315338
0.0558064
0.0703406
0.0809761
0.0897061
0.0973789
0.104448
0.111206
0.117875
0.124638
0.131655
0.139063
0.146981
0.155506
0.164715
0.174671
0.185426
0.197029
0.209516
0.222902
0.237144
0.252104
0.267509
0.0306732
0.0538137
0.0677681
0.0779262
0.0861928
0.0933877
0.0999528
0.106177
0.112283
0.118454
0.124858
0.131641
0.138936
0.146859
0.155511
0.16499
0.175387
0.186799
0.199317
0.213011
0.227879
0.243799
0.260471
0.0299571
0.0520931
0.0655427
0.0752801
0.0831359
0.0899073
0.0960272
0.101782
0.107391
0.113045
0.118914
0.125156
0.131918
0.139335
0.147536
0.156649
0.166809
0.178162
0.190856
0.205015
0.220681
0.237745
0.255862
0.0294273
0.0507085
0.0637222
0.0730832
0.0805667
0.0869545
0.0926736
0.0980077
0.103178
0.108375
0.113776
0.119549
0.125855
0.132849
0.140686
0.149528
0.159553
0.170957
0.183946
0.1987
0.215308
0.233666
0.253371
0.0291189
0.0497114
0.0623533
0.0713716
0.0785085
0.0845389
0.0898876
0.0948377
0.0996103
0.104399
0.109385
0.114745
0.120655
0.12729
0.134831
0.143474
0.153439
0.164974
0.178343
0.193787
0.211438
0.231196
0.252588
0.0290593
0.049139
0.061469
0.0701692
0.076974
0.0826609
0.0876571
0.0922464
0.0966504
0.101064
0.105673
0.110662
0.11622
0.12254
0.129831
0.138321
0.148272
0.159985
0.173784
0.189969
0.208718
0.229932
0.253064
0.0292674
0.0490127
0.0610865
0.0694855
0.0759633
0.0813109
0.0859618
0.0902024
0.0942549
0.0983148
0.102571
0.107215
0.112446
0.118478
0.125542
0.1339
0.143856
0.15576
0.169996
0.186928
0.206779
0.229456
0.254337
0.0297538
0.0493382
0.0612065
0.069314
0.075463
0.0804679
0.084773
0.0886685
0.0923769
0.0960938
0.100009
0.10432
0.109237
0.114988
0.121828
0.130051
0.139999
0.152073
0.166714
0.18435
0.205257
0.229354
0.255955
0.0305211
0.0501068
0.0618134
0.069633
0.0754456
0.0800997
0.0840536
0.0876021
0.0909677
0.0943449
0.0979235
0.101903
0.106503
0.111965
0.118566
0.126627
0.136526
0.148712
0.163685
0.181936
0.203801
0.229224
0.257476
0.0315649
0.0512988
0.0628776
0.0704057
0.0758708
0.0801639
0.0837594
0.0869568
0.0899778
0.093014
0.0962534
0.0998963
0.104166
0.109318
0.115646
0.123496
0.13328
0.145488
0.160677
0.179404
0.202074
0.228676
0.25847
0.0328743
0.0528867
0.0643573
0.0715831
0.0766873
0.0806092
0.0838403
0.0866834
0.0893581
0.0920514
0.0949467
0.0982422
0.102164
0.106973
0.112981
0.120552
0.130128
0.142235
0.157482
0.176495
0.199759
0.227337
0.258512
0.0344336
0.0548381
0.0662013
0.0731064
0.077835
0.0813782
0.0842422
0.0867314
0.0890612
0.0914115
0.0939588
0.0968957
0.100446
0.104876
0.110505
0.117714
0.126966
0.138819
0.153928
0.172984
0.196567
0.224844
0.257174
0.0362239
0.057117
0.0683523
0.0749104
0.0792495
0.0824099
0.0849094
0.0870507
0.089042
0.0910541
0.0932532
0.095823
0.0989811
0.102992
0.108177
0.114929
0.123725
0.135144
0.149878
0.168684
0.192242
0.220858
0.254032
0.0382264
0.0596857
0.0707502
0.0769283
0.0808651
0.0836437
0.0857875
0.0875931
0.0892589
0.0909436
0.0928005
0.0950003
0.0977492
0.101303
0.105982
0.112177
0.120373
0.13116
0.145253
0.163464
0.186581
0.215079
0.248668
0.0404278
0.0625072
0.0733358
0.0790956
0.0826195
0.0850224
0.0868251
0.088314
0.089674
0.0910493
0.0925774
0.0944125
0.0967442
0.0998136
0.103928
0.109471
0.116922
0.126869
0.140034
0.157268
0.179457
0.207271
0.240701
0.0428259
0.0655509
0.0760561
0.0813543
0.084457
0.0864947
0.0879766
0.0891732
0.0902533
0.0913441
0.0925652
0.0940507
0.0959688
0.0985388
0.102046
0.106857
0.11343
0.122336
0.134285
0.150138
0.170863
0.19733
0.229847
0.0454362
0.0687998
0.0788662
0.0836557
0.0863306
0.0880174
0.0892029
0.0901365
0.0909675
0.0918048
0.0927481
0.0939094
0.0954316
0.0975057
0.100387
0.104409
0.109999
0.117692
0.12816
0.142246
0.160956
0.185311
0.215949
0.0483
0.0722609
0.0817314
0.0859606
0.0882027
0.0895561
0.090473
0.0911759
0.0917923
0.0924114
0.0931125
0.0939845
0.0951427
0.0967451
0.0990086
0.102224
0.106771
0.113129
0.121909
0.133889
0.150045
0.171475
0.199129
0.051509
0.075945
0.0846289
0.0882396
0.0900456
0.0910865
0.0917651
0.0922715
0.0927093
0.0931477
0.0936461
0.0942709
0.0951095
0.0962849
0.0979706
0.100405
0.103907
0.108883
0.115857
0.1255
0.138678
0.156463
0.180007
0.055215
0.0798563
0.0875451
0.0904732
0.0918427
0.0925954
0.0930681
0.0934127
0.0937076
0.0940026
0.0943389
0.0947625
0.095335
0.0961452
0.0973216
0.0990461
0.101566
0.105206
0.11038
0.11762
0.127624
0.141308
0.159826
0.0596126
0.0841562
0.0904789
0.0926513
0.093591
0.0940844
0.0943854
0.0946021
0.0947878
0.0949741
0.095187
0.0954553
0.0958186
0.0963353
0.0970923
0.0982153
0.0998795
0.102319
0.105834
0.110808
0.117737
0.12729
0.140391
0.0652071
0.0890189
0.0934162
0.0947707
0.0953048
0.0955765
0.0957419
0.0958629
0.0959687
0.0960763
0.0961994
0.0963539
0.0965622
0.0968584
0.097294
0.0979455
0.098922
0.100371
0.102487
0.10551
0.109747
0.115602
0.123643
0.0735629
0.0944688
0.096304
0.0968322
0.0970201
0.0971209
0.0971884
0.0972423
0.0972924
0.0973448
0.0974049
0.0974797
0.0975796
0.0977207
0.0979281
0.0982397
0.0987104
0.0994161
0.100457
0.101958
0.104074
0.106994
0.110965
0.0902586
0.099265
0.0989095
0.0988081
0.0987892
0.0987946
0.098806
0.098819
0.0988329
0.098848
0.0988655
0.0988871
0.0989154
0.0989549
0.0990127
0.0990994
0.0992309
0.0994296
0.099725
0.100155
0.100764
0.101604
0.10273
0.133252
0.112876
0.0943322
0.0802338
0.190568
0.181263
0.174949
0.169727
0.242636
0.238375
0.234531
0.231145
0.288503
0.287654
0.286315
0.284511
0.327264
0.327307
0.326981
0.326267
0.36041
0.359906
0.359372
0.358881
0.384852
0.385268
0.3854
0.385592
0.389774
0.392886
0.395296
0.397236
0.385678
0.389391
0.392577
0.39531
0.381329
0.385567
0.389152
0.392037
0.37383
0.378246
0.382097
0.385333
0.364274
0.368758
0.372774
0.376291
0.352976
0.357608
0.361838
0.365658
0.340013
0.344933
0.349519
0.353775
0.325918
0.33125
0.336323
0.341149
0.311718
0.317555
0.323215
0.328713
0.298574
0.304992
0.311318
0.317563
0.287424
0.294498
0.301557
0.308609
0.27881
0.286613
0.294466
0.302375
0.272881
0.281478
0.290177
0.298982
0.269487
0.278931
0.288513
0.298238
0.268295
0.278619
0.289104
0.299759
0.268868
0.28009
0.291486
0.303069
0.270732
0.282855
0.295161
0.307667
0.273406
0.286424
0.299634
0.313056
0.276421
0.290322
0.304426
0.318758
0.279321
0.294086
0.309075
0.324312
0.281659
0.297264
0.313124
0.32926
0.282986
0.2994
0.316112
0.333141
0.282844
0.300021
0.317562
0.335477
0.280756
0.298628
0.31696
0.335749
0.276225
0.294683
0.313737
0.333369
0.26875
0.287624
0.307274
0.327663
0.257866
0.276898
0.296934
0.31793
0.243195
0.261985
0.282058
0.303379
0.224616
0.242531
0.262023
0.283082
0.202533
0.218718
0.236715
0.256566
0.178163
0.191644
0.207001
0.224351
0.153676
0.163636
0.175242
0.188681
0.131828
0.138012
0.145318
0.153929
0.11492
0.117875
0.121348
0.125433
0.103798
0.104567
0.105447
0.10645
0.0750643
0.15342
0.226624
0.298378
0.367541
0.434458
0.490066
0.533907
0.571252
0.599483
0.605656
0.606335
0.629779
0.672525
0.640915
0.511888
0.427018
0.366174
0.22148
0.152842
0.166509
0.202081
0.238148
0.264027
0.28025
0.290859
0.300972
0.31126
0.319955
0.32398
0.329113
0.351247
0.399316
0.480382
0.557656
0.545771
0.475089
0.309715
0.223945
0.220617
0.227684
0.23723
0.244229
0.248028
0.250382
0.252817
0.255292
0.257168
0.25817
0.260211
0.269288
0.296061
0.353964
0.458657
0.587471
0.611285
0.400977
0.280486
0.275774
0.273831
0.273235
0.272844
0.271838
0.270306
0.268768
0.267331
0.265941
0.264795
0.264772
0.268658
0.283711
0.324525
0.410012
0.549086
0.707432
0.491221
0.324295
0.320907
0.317632
0.314471
0.311182
0.307446
0.303372
0.299388
0.295825
0.292899
0.290846
0.290324
0.293163
0.30517
0.34124
0.425367
0.568114
0.745357
0.566155
0.358227
0.357419
0.355544
0.352052
0.347168
0.34166
0.336226
0.331364
0.327576
0.325338
0.324932
0.326757
0.331037
0.341616
0.379263
0.477307
0.64901
0.817831
0.63157
0.386723
0.389437
0.389931
0.386384
0.37957
0.372425
0.366577
0.362582
0.360957
0.362559
0.368507
0.380688
0.393012
0.394561
0.432805
0.558938
0.784603
0.976546
0.710392
0.40036
0.404356
0.406365
0.404764
0.399826
0.394712
0.391472
0.390155
0.391662
0.400385
0.422732
0.473269
0.529989
0.477586
0.506384
0.678865
0.975613
1.18827
0.796652
0.39912
0.401775
0.402804
0.402414
0.401047
0.399945
0.400513
0.402684
0.407575
0.419738
0.449149
0.519449
0.585444
0.580597
0.600333
0.845025
1.21603
1.42934
0.882163
0.395712
0.397701
0.398349
0.398477
0.398545
0.399231
0.401647
0.406942
0.416209
0.430202
0.450524
0.488816
0.528837
0.594655
0.695069
1.043
1.4832
1.68008
0.965284
0.389733
0.392599
0.394008
0.395113
0.396684
0.399444
0.404457
0.413091
0.426112
0.441702
0.455347
0.470565
0.501389
0.583549
0.783763
1.24854
1.75227
1.93106
1.0555
0.381367
0.38537
0.387884
0.390047
0.392828
0.397143
0.404069
0.414705
0.429042
0.443926
0.453535
0.461885
0.500716
0.607239
0.877281
1.43957
2.00283
2.17465
1.16012
0.371418
0.376631
0.380277
0.383357
0.386914
0.392015
0.399758
0.410919
0.424877
0.438293
0.447103
0.459474
0.514624
0.645843
0.975516
1.60806
2.22454
2.40489
1.28467
0.360406
0.366972
0.371925
0.376034
0.380309
0.385879
0.393852
0.404839
0.418047
0.430778
0.441605
0.462468
0.534679
0.692014
1.07626
1.75991
2.4202
2.62172
1.42685
0.348865
0.356975
0.363507
0.368951
0.374226
0.38044
0.388682
0.399536
0.412385
0.425548
0.440055
0.470705
0.560736
0.745935
1.1778
1.90151
2.60066
2.83366
1.5794
0.337682
0.347555
0.355844
0.362944
0.369632
0.376933
0.385871
0.397029
0.410101
0.424472
0.443301
0.484359
0.596278
0.80999
1.27559
2.02819
2.77062
3.05309
1.73558
0.327901
0.339681
0.349884
0.358911
0.367415
0.376313
0.386491
0.398466
0.412176
0.427928
0.450717
0.501896
0.636888
0.865967
1.35644
2.12047
2.92028
3.29253
1.89679
0.320405
0.334206
0.346506
0.357658
0.368326
0.379275
0.391149
0.404249
0.418572
0.435047
0.460077
0.519306
0.671626
0.920195
1.39355
2.15749
3.0285
3.55425
2.06755
0.315699
0.331614
0.346159
0.359664
0.372779
0.386094
0.399863
0.413978
0.428305
0.444197
0.469327
0.533762
0.708029
0.986086
1.43118
2.18811
3.09131
3.7336
2.23665
0.313881
0.331986
0.348893
0.364965
0.38071
0.396499
0.411994
0.426501
0.439687
0.453522
0.47761
0.545788
0.733536
1.02374
1.49105
2.26365
3.17607
3.83743
2.36382
0.314736
0.335077
0.354422
0.373174
0.391651
0.409803
0.426533
0.440459
0.451297
0.462783
0.488631
0.566145
0.755131
1.05075
1.58893
2.4067
3.33592
3.99246
2.45076
0.317854
0.34046
0.362288
0.38378
0.405013
0.42532
0.442769
0.455291
0.463216
0.474084
0.508969
0.601992
0.778102
1.08796
1.69482
2.59767
3.58423
4.2069
2.49806
0.322747
0.34764
0.37199
0.396283
0.420322
0.442737
0.460877
0.47203
0.477333
0.489981
0.541626
0.65818
0.82178
1.12672
1.77952
2.78058
3.91353
4.48177
2.52703
0.328909
0.35612
0.383045
0.410223
0.437187
0.461886
0.481297
0.492339
0.496088
0.510411
0.577271
0.712416
0.87561
1.16581
1.7966
2.79084
4.04475
4.68191
2.61255
0.335851
0.36542
0.394979
0.425115
0.455095
0.482252
0.503694
0.5168
0.520943
0.533846
0.603897
0.734399
0.890093
1.22203
1.87316
2.83734
4.00878
4.81832
2.68753
0.343101
0.375076
0.407309
0.440416
0.473357
0.502878
0.526842
0.544419
0.551984
0.563095
0.634841
0.728463
0.875062
1.26209
1.96584
2.96326
4.09837
4.84355
2.66686
0.350199
0.38462
0.419521
0.4555
0.491114
0.522321
0.548077
0.571525
0.584991
0.594143
0.645833
0.709671
0.878074
1.29987
2.04814
3.10966
4.31156
4.80285
2.57418
0.356689
0.393581
0.431071
0.469652
0.507333
0.538793
0.56324
0.589011
0.608154
0.616309
0.650361
0.709902
0.893901
1.33766
2.11542
3.22377
4.51212
4.80802
2.50354
0.362113
0.401508
0.441469
0.482284
0.521329
0.551972
0.571284
0.589301
0.607312
0.6242
0.662457
0.725713
0.922436
1.38473
2.18213
3.30525
4.62862
4.90323
2.53194
0.366006
0.407984
0.450387
0.493268
0.533562
0.563382
0.576903
0.584144
0.596672
0.622384
0.678768
0.75231
0.966533
1.4515
2.26661
3.39632
4.72644
5.04956
2.64963
0.367854
0.41258
0.457599
0.50281
0.545232
0.576484
0.587375
0.587008
0.593641
0.623653
0.700034
0.787976
1.03186
1.54878
2.38025
3.5091
4.86229
5.21148
2.77444
0.367046
0.414726
0.462707
0.510856
0.556817
0.592736
0.60714
0.60416
0.605478
0.63591
0.721572
0.833422
1.12797
1.68801
2.53437
3.6493
5.04174
5.41621
2.88491
0.362821
0.413581
0.464906
0.516683
0.567559
0.611264
0.635895
0.637337
0.635618
0.660915
0.755268
0.911503
1.26384
1.87102
2.73531
3.84136
5.26078
5.62946
2.96165
0.354285
0.407961
0.462869
0.518796
0.57548
0.629169
0.669684
0.685182
0.68841
0.711823
0.826326
1.02553
1.42994
2.08201
2.97026
4.08068
5.51706
5.80998
2.98286
0.340489
0.396556
0.454731
0.514979
0.577667
0.642062
0.701651
0.743079
0.763649
0.790137
0.921356
1.16056
1.60259
2.29142
3.21334
4.34931
5.77079
5.89282
2.93505
0.320099
0.37774
0.438847
0.50254
0.570385
0.644397
0.723341
0.798114
0.854294
0.897992
1.01019
1.29022
1.75108
2.4575
3.43529
4.63112
5.96589
5.76394
2.87428
0.292037
0.349455
0.412273
0.478828
0.549835
0.62969
0.72332
0.829606
0.93664
1.02546
1.12676
1.33928
1.77279
2.45848
3.48465
4.79851
6.00344
5.48116
2.78612
0.256102
0.310105
0.371894
0.439327
0.511884
0.59289
0.691125
0.81615
0.965998
1.12195
1.26299
1.435
1.75515
2.37637
3.40335
4.81263
5.84577
5.04364
2.66186
0.214022
0.259814
0.315553
0.379448
0.450006
0.528695
0.622724
0.746497
0.916111
1.12541
1.34888
1.57004
1.8666
2.4192
3.39824
4.72703
5.51782
4.50406
2.49859
0.170617
0.202728
0.244992
0.297198
0.358182
0.428074
0.511753
0.621968
0.779843
1.012
1.31399
1.66045
2.0508
2.59633
3.47863
4.5949
5.04618
3.94702
2.29669
0.133401
0.149134
0.171193
0.200974
0.239115
0.286274
0.345951
0.428814
0.556777
0.76465
1.09358
1.58951
2.2477
2.84216
3.61321
4.42681
4.49174
3.44612
2.06028
0.108335
0.111723
0.116023
0.12138
0.127934
0.136066
0.147196
0.165919
0.205665
0.30182
0.533662
1.08321
2.41197
3.0918
3.73525
4.19612
3.98742
3.06476
1.78793
)
;

boundaryField
{
    leftWall
    {
        type            kqRWallFunction;
        value           nonuniform List<scalar> 
50
(
0.00517419
0.00814067
0.00942561
0.010083
0.0110207
0.0119251
0.0126548
0.0132405
0.0143878
0.0189757
0.0291017
0.0398662
0.0478317
0.0476542
0.0432072
0.040461
0.0390739
0.0384162
0.0379641
0.0375184
0.036966
0.0362685
0.0354372
0.0345014
0.0335028
0.0324948
0.0315338
0.0306732
0.0299571
0.0294273
0.0291189
0.0290593
0.0292674
0.0297538
0.0305211
0.0315649
0.0328743
0.0344336
0.0362239
0.0382264
0.0404278
0.0428259
0.0454362
0.0483
0.051509
0.055215
0.0596126
0.0652071
0.0735629
0.0902586
)
;
    }
    rightWall
    {
        type            kqRWallFunction;
        value           nonuniform List<scalar> 
50
(
0.00883496
0.0151893
0.0257626
0.0415776
0.064239
0.0945334
0.131787
0.174138
0.22148
0.309715
0.400977
0.491221
0.566155
0.63157
0.710392
0.796652
0.882163
0.965284
1.0555
1.16012
1.28467
1.42685
1.5794
1.73558
1.89679
2.06755
2.23665
2.36382
2.45076
2.49806
2.52703
2.61255
2.68753
2.66686
2.57418
2.50354
2.53194
2.64963
2.77444
2.88491
2.96165
2.98286
2.93505
2.87428
2.78612
2.66186
2.49859
2.29669
2.06028
1.78793
)
;
    }
    lowerWall
    {
        type            kqRWallFunction;
        value           nonuniform List<scalar> 
62
(
0.00517419
0.00920393
0.0144281
0.0189304
0.0226855
0.0259346
0.0287709
0.0313261
0.0336412
0.0357188
0.0375386
0.0390638
0.0402418
0.0409967
0.0412045
0.0408839
0.0400449
0.0384065
0.035872
0.0324322
0.027736
0.0229786
0.0183141
0.0183141
0.0344069
0.0470815
0.0593058
0.0712615
0.0818513
0.092803
0.108614
0.133252
0.112876
0.0943322
0.0802338
0.0116446
0.0287143
0.0403988
0.0483431
0.0534575
0.0571893
0.0591134
0.0564803
0.0116446
0.0262018
0.0413864
0.0553731
0.0670715
0.0758286
0.0816109
0.0847976
0.0860009
0.0860375
0.0852469
0.0836657
0.079786
0.0713302
0.0579146
0.0427395
0.0297121
0.0195087
0.00883496
)
;
    }
    atmosphere
    {
        type            inletOutlet;
        inletValue      uniform 0.1;
        value           nonuniform List<scalar> 
46
(
0.1
0.1
0.1
0.1
0.1
0.1
0.1
0.1
0.1
0.1
0.1
0.1
0.1
0.1
0.1
0.1
0.1
0.1
0.1
0.1
0.1
0.1
0.1
0.1
0.1
0.1
0.1
0.1
0.1
0.1
0.1
0.1
0.1
0.1
0.1
0.1
0.1
0.1
0.1
2.41197
3.0918
3.73525
4.19612
3.98742
3.06476
1.78793
)
;
    }
    defaultFaces
    {
        type            empty;
    }
}


// ************************************************************************* //
