/*--------------------------------*- C++ -*----------------------------------*\
  =========                 |
  \\      /  F ield         | OpenFOAM: The Open Source CFD Toolbox
   \\    /   O peration     | Website:  https://openfoam.org
    \\  /    A nd           | Version:  9
     \\/     M anipulation  |
\*---------------------------------------------------------------------------*/
FoamFile
{
    format      ascii;
    class       volScalarField;
    location    "0.45";
    object      nut;
}
// * * * * * * * * * * * * * * * * * * * * * * * * * * * * * * * * * * * * * //

dimensions      [0 2 -1 0 0 0 0];

internalField   nonuniform List<scalar> 
2268
(
6.56644e-05
6.44573e-05
8.06469e-05
9.23347e-05
0.000100989
0.000107941
0.000113646
0.000118547
0.000122816
0.000126522
0.000129678
0.000132261
0.000134216
0.000135445
0.000135756
0.000135215
0.000133793
0.000130981
0.000126518
0.000120199
0.000111021
0.000101046
9.05398e-05
0.00012835
0.000418793
0.00063509
0.000780591
0.000886305
0.000969204
0.00103707
0.0010936
0.00114082
0.00117971
0.00121071
0.00123395
0.0012493
0.00125627
0.00125329
0.00122726
0.00116941
0.00108518
0.000982094
0.00087242
0.00076772
0.000659399
0.000262166
0.000138102
0.000697052
0.00108445
0.00137586
0.00161474
0.00181697
0.00199048
0.0021396
0.00226659
0.00237259
0.00245818
0.00252356
0.00256831
0.00259096
0.00258732
0.00254142
0.00243496
0.00226347
0.00202946
0.0017525
0.00146502
0.00115836
0.000305887
0.000142714
0.000857662
0.00136151
0.00177872
0.00214394
0.00246819
0.00275586
0.00300873
0.00322751
0.00341266
0.00356461
0.00368349
0.00376859
0.00381744
0.00382362
0.00377017
0.00363473
0.003403
0.00306832
0.00264559
0.00216738
0.00158643
0.000342952
0.000149076
0.00091995
0.00151337
0.00203437
0.00251464
0.00295697
0.0033587
0.00371699
0.00403017
0.00429777
0.00452011
0.00469741
0.00482878
0.0049109
0.00493573
0.00488546
0.00473598
0.00446582
0.00405957
0.0035205
0.00285917
0.00196905
0.000375697
0.000154966
0.000932139
0.00157695
0.00218168
0.00276734
0.00332317
0.00383614
0.00429757
0.00470323
0.00505204
0.00534449
0.00558108
0.00576095
0.00588021
0.00592974
0.00589127
0.00573996
0.00544891
0.00499424
0.00436299
0.00352937
0.00232144
0.000402655
0.000159554
0.000912253
0.00157764
0.00225136
0.00293575
0.00360078
0.00422056
0.00478028
0.00527372
0.0056997
0.00605924
0.00635338
0.00658146
0.00673933
0.00681725
0.00679715
0.00665427
0.00635702
0.00587314
0.00517113
0.00418307
0.00266799
0.000428573
0.000163206
0.000865023
0.00153357
0.00226958
0.00304937
0.00381898
0.00453915
0.00519
0.00576436
0.00626155
0.00668338
0.00703161
0.00730593
0.00750213
0.0076102
0.00761321
0.00748758
0.00719697
0.00670152
0.00595238
0.00484519
0.00306954
0.000463618
7.35209e-05
0.000113618
0.000143013
0.00016526
0.000181851
0.000193608
0.000201347
0.000205878
0.000208001
0.000208672
0.000209187
0.000209345
0.000207301
0.000199915
0.000184523
0.000161834
0.000136133
0.000108035
0.000190956
0.000283061
0.000627649
0.000775556
0.000891703
0.0010202
0.00118149
0.00137645
0.00158484
0.00176176
0.00186819
0.00196912
0.00212259
0.00230091
0.00241484
0.00236637
0.00210657
0.00165354
0.00103618
0.000213213
0.000337621
0.0011131
0.00148189
0.00184453
0.00223736
0.00264211
0.00301746
0.00333073
0.00355745
0.00368282
0.00377182
0.00389944
0.00406276
0.00414108
0.00397754
0.00349348
0.0027179
0.0016591
0.000287767
0.000368888
0.00149443
0.00205958
0.00259307
0.00311678
0.00361405
0.00405847
0.00442886
0.00470139
0.00485103
0.00491683
0.00497174
0.00506379
0.0051021
0.00489438
0.00430886
0.00336225
0.00205142
0.00037287
0.000385941
0.0017518
0.00243964
0.00305436
0.00364554
0.00424055
0.00481479
0.00530674
0.00565481
0.00583637
0.00590437
0.0059015
0.00588477
0.00583147
0.00556408
0.00489466
0.00381654
0.00232957
0.000465307
0.000395244
0.00191249
0.00266017
0.00331789
0.00396157
0.00465598
0.00535994
0.00597208
0.00638903
0.00661357
0.00676442
0.00682396
0.00676018
0.00656814
0.00616555
0.00538062
0.00417668
0.00255441
0.000559009
0.000398458
0.00196713
0.00277615
0.00346054
0.00411187
0.0048203
0.0055462
0.0062009
0.00666087
0.00695329
0.0072369
0.00747993
0.00756716
0.00736553
0.00679861
0.00584584
0.00449557
0.00275099
0.00064833
0.000386998
0.00191377
0.00280149
0.00347466
0.00406284
0.00466593
0.00527653
0.0058392
0.00631061
0.0067154
0.00712627
0.00751734
0.00784384
0.00794245
0.00744443
0.0063405
0.0048155
0.00293047
0.000730725
0.000170676
0.000780963
0.00144607
0.0022638
0.00317379
0.00408633
0.00494372
0.00572006
0.00640738
0.00700584
0.00751844
0.00794801
0.00829514
0.00855627
0.00872172
0.00877356
0.00868764
0.00842627
0.00794112
0.007164
0.00597266
0.00414632
0.00157968
0.00019807
0.000659281
0.00133908
0.0023012
0.00338324
0.00444877
0.00543783
0.00633075
0.00712366
0.0078188
0.00842027
0.00893173
0.00935472
0.00968676
0.00991942
0.0100348
0.0100087
0.00980684
0.0093807
0.00865975
0.00753379
0.0058555
0.00359644
0.000245634
0.000673881
0.00147905
0.00261636
0.00380445
0.00493431
0.00597721
0.00692414
0.00777253
0.00852351
0.00917996
0.00974492
0.0102201
0.0106042
0.0108916
0.0110681
0.0111134
0.0110005
0.0106889
0.0101216
0.00921759
0.00789062
0.00616732
0.000285775
0.00100784
0.00211262
0.00331814
0.00447128
0.00556598
0.00659231
0.00753922
0.00839945
0.00917003
0.00985097
0.0104436
0.0109492
0.0113674
0.0116959
0.0119254
0.0120409
0.0120258
0.0118496
0.0114762
0.0108585
0.00995444
0.0088038
0.000311996
0.00172877
0.00303115
0.00417576
0.00524357
0.00627141
0.00725026
0.00816654
0.00901028
0.00977563
0.0104599
0.0110624
0.0115833
0.0120228
0.0123788
0.0126488
0.0128273
0.0129039
0.0128501
0.0126571
0.0123076
0.0117768
0.0110811
0.000308681
0.00199472
0.00348913
0.00470811
0.00580266
0.00683524
0.00780696
0.00871219
0.00954654
0.0103072
0.0109927
0.0116024
0.0121357
0.0125922
0.0129708
0.0132726
0.0134966
0.0136372
0.0136849
0.0136396
0.013501
0.0132318
0.0128285
0.000294069
0.00206483
0.00371825
0.00505356
0.00622854
0.00730142
0.00828746
0.00919269
0.0100212
0.0107761
0.0114594
0.0120719
0.0126136
0.0130834
0.0134807
0.0138064
0.0140614
0.0142451
0.0143575
0.0144056
0.0143832
0.0142765
0.0140735
0.000284839
0.00205506
0.00381649
0.00528057
0.006551
0.00767875
0.00869014
0.0096022
0.0104276
0.0111758
0.0118531
0.0124633
0.0130076
0.0134854
0.0138959
0.0142395
0.0145181
0.0147338
0.0148843
0.0149731
0.0150011
0.0149623
0.0148599
0.000279681
0.00200889
0.00384996
0.0054335
0.00679343
0.00797515
0.00901326
0.0099338
0.0107567
0.011497
0.012165
0.0127675
0.0133075
0.0137857
0.0142015
0.0145549
0.0148473
0.0150811
0.0152562
0.0153717
0.0154292
0.0154268
0.015364
0.000277181
0.00195799
0.00386269
0.00553813
0.00696959
0.00819561
0.00925583
0.010183
0.0110026
0.0117339
0.0123905
0.0129814
0.0135116
0.013983
0.0143956
0.0147494
0.0150449
0.0152836
0.0154661
0.0155924
0.0156647
0.0156843
0.0156507
0.000275372
0.00192679
0.00386972
0.00560544
0.00708644
0.00834371
0.00941892
0.0103491
0.0111638
0.0118854
0.0125296
0.0131071
0.0136242
0.0140838
0.0144866
0.0148326
0.0151218
0.0153547
0.015532
0.0156547
0.0157258
0.0157489
0.0157248
0.000273574
0.00190726
0.00386869
0.00563787
0.00714803
0.00842366
0.00950649
0.0104359
0.011244
0.0119551
0.0125867
0.0131503
0.0136529
0.014098
0.0144869
0.0148195
0.0150955
0.0153149
0.0154783
0.0155871
0.0156446
0.015655
0.0156203
0.000271392
0.00189043
0.00385454
0.00563634
0.00715887
0.00844169
0.00952559
0.0104509
0.011251
0.0119515
0.0125706
0.0131205
0.0136085
0.0140383
0.0144112
0.014727
0.0149855
0.0151863
0.01533
0.0154183
0.0154543
0.0154424
0.0153847
0.000268688
0.00187035
0.00382435
0.00560339
0.00712529
0.00840626
0.0094858
0.0104042
0.0111954
0.0118856
0.0124932
0.0130305
0.0135048
0.0139195
0.0142758
0.0145735
0.014812
0.014991
0.0151113
0.0151747
0.0151848
0.0151457
0.0150597
0.000265519
0.001844
0.00377772
0.00554343
0.0070553
0.00832745
0.00939831
0.0103077
0.0110896
0.01177
0.0123674
0.0128939
0.0133562
0.0137574
0.0140981
0.0143777
0.0145954
0.014751
0.0148455
0.0148814
0.0148629
0.0147945
0.014679
0.000261932
0.00181091
0.00371782
0.00546232
0.00695768
0.00821594
0.00927481
0.0101735
0.0109457
0.0116171
0.0122059
0.0127237
0.0131765
0.0135666
0.0138938
0.0141568
0.0143544
0.0144864
0.0145541
0.0145611
0.0145128
0.014415
0.0142715
0.000258067
0.00177243
0.00364793
0.00536673
0.00684098
0.00808201
0.00912655
0.0100133
0.0107753
0.0114382
0.0120198
0.0125309
0.0129768
0.0133588
0.0136755
0.0139246
0.014104
0.0142134
0.0142548
0.0142332
0.0141557
0.0140306
0.0138631
0.000254126
0.00173037
0.00357146
0.00526209
0.00671291
0.00793474
0.00896353
0.00983727
0.0105887
0.0112432
0.0118182
0.0123242
0.0127656
0.0131423
0.0134517
0.0136899
0.013854
0.0139432
0.0139603
0.013912
0.0138083
0.0136604
0.0134761
0.000250331
0.00168655
0.00349153
0.00515299
0.00657963
0.00778169
0.0087941
0.00965419
0.0103944
0.0110401
0.0116086
0.0121101
0.0125484
0.0129222
0.0132272
0.0134579
0.0136099
0.0136822
0.0136783
0.0136073
0.0134826
0.0133191
0.0131274
0.000246933
0.00164261
0.00341108
0.00504332
0.00644624
0.00762885
0.00862489
0.00947092
0.0101992
0.0108351
0.0113964
0.0118933
0.0123291
0.0127015
0.0130045
0.0132308
0.0133745
0.0134339
0.0134136
0.0133254
0.0131868
0.0130166
0.0128284
0.0002441
0.00160041
0.00333279
0.00493652
0.00631683
0.00748096
0.00846103
0.00929271
0.0100081
0.0106329
0.0111856
0.0116768
0.0121099
0.0124818
0.0127848
0.0130097
0.013149
0.0132001
0.0131689
0.0130702
0.0129257
0.0127584
0.0125842
0.000242016
0.00156151
0.00325894
0.00483555
0.00619493
0.00734189
0.00830656
0.00912352
0.00982478
0.0104368
0.010979
0.0114629
0.0118924
0.0122639
0.0125684
0.0127948
0.0129337
0.0129817
0.0129459
0.012844
0.0127019
0.0125463
0.0123949
0.000240838
0.00152715
0.0031916
0.00474322
0.00608383
0.00721511
0.00816481
0.00896644
0.00965209
0.0102492
0.0107784
0.011253
0.0116773
0.0120481
0.0123554
0.0125861
0.0127288
0.0127792
0.0127451
0.0126471
0.0125149
0.0123784
0.012256
0.000240684
0.00149831
0.00313283
0.00466248
0.0059869
0.00710395
0.00803879
0.008824
0.00949205
0.0100716
0.0105852
0.0110477
0.0114651
0.0118346
0.0121455
0.0123831
0.0125338
0.0125921
0.0125659
0.0124783
0.0123621
0.0122496
0.0121595
0.000241626
0.00147568
0.00308465
0.00459642
0.00590761
0.00701172
0.00793133
0.00869845
0.00934637
0.00990542
0.0104002
0.0108478
0.011256
0.011623
0.011938
0.0121848
0.0123475
0.0124186
0.0124059
0.0123339
0.012238
0.0121524
0.0120955
0.000243686
0.0014597
0.00304906
0.00454817
0.00584945
0.00694164
0.00784508
0.00859181
0.00921652
0.00975163
0.0102241
0.0106535
0.0110499
0.0114129
0.0117319
0.0119895
0.0121675
0.0122558
0.0122611
0.0122086
0.0121355
0.0120773
0.0120525
0.000246837
0.00145071
0.00302798
0.00452071
0.00581566
0.00689662
0.00778236
0.0085058
0.00910374
0.00961115
0.0100577
0.0104654
0.0108469
0.0112036
0.0115259
0.011795
0.0119905
0.0120993
0.0121259
0.0120953
0.0120458
0.012014
0.0120185
0.000251014
0.00144903
0.00302314
0.00451661
0.0058089
0.00687898
0.00774494
0.00844167
0.00900896
0.00948476
0.00990154
0.010284
0.0106471
0.0109948
0.0113183
0.0115986
0.0118127
0.011944
0.0119939
0.0119861
0.0119593
0.0119512
0.011981
0.000256119
0.00145512
0.00303603
0.00453785
0.00583109
0.00689018
0.00773378
0.00840006
0.0089327
0.00937307
0.00975644
0.01011
0.0104512
0.0107861
0.0111079
0.0113976
0.0116299
0.0117843
0.0118582
0.0118725
0.0118659
0.0118775
0.0119274
0.000262032
0.00146954
0.00306778
0.00458571
0.00588321
0.0069307
0.00774893
0.00838084
0.00887495
0.00927643
0.00962316
0.00994442
0.0102599
0.010578
0.0108941
0.0111898
0.0114383
0.011615
0.0117119
0.0117463
0.011756
0.0117814
0.0118451
0.000268629
0.00149279
0.00311914
0.00466081
0.00596541
0.00700007
0.00778945
0.00838303
0.00883514
0.00919486
0.00950241
0.00978862
0.0100748
0.0103717
0.0106769
0.010974
0.011235
0.0114314
0.0115491
0.0116001
0.0116206
0.0116525
0.0117217
0.000275793
0.00152521
0.0031905
0.0047634
0.00607726
0.00709697
0.00785353
0.00840488
0.00881206
0.00912805
0.00939484
0.00964404
0.00989795
0.0101691
0.0104578
0.0107501
0.0110183
0.0112303
0.0113653
0.0114285
0.0114527
0.0114817
0.0115462
0.000283437
0.00156703
0.00328228
0.00489369
0.00621802
0.0072195
0.00793858
0.0084439
0.00880394
0.0090753
0.0093009
0.00951223
0.00973167
0.009973
0.0102393
0.0105197
0.0107883
0.0110104
0.0111583
0.0112285
0.0112484
0.0112632
0.0113098
0.000291519
0.00161863
0.00339539
0.00505251
0.00638707
0.00736534
0.00804139
0.008497
0.00880855
0.00903555
0.00922081
0.00939465
0.00957863
0.00978699
0.0100252
0.0102861
0.0105471
0.0107727
0.0109284
0.0110005
0.0110081
0.0109954
0.0110079
0.000300059
0.00168125
0.00353191
0.00524182
0.00658418
0.00753192
0.00815827
0.00856067
0.00882331
0.00900742
0.00915449
0.00929258
0.00944145
0.009615
0.00982044
0.0100545
0.0102991
0.0105205
0.0106792
0.0107493
0.0107373
0.0106841
0.0106441
0.000309158
0.00175813
0.00369577
0.00546508
0.0068097
0.00771639
0.00828508
0.00863109
0.00884543
0.00898935
0.00910156
0.00920686
0.00932245
0.00946099
0.00963059
0.00983155
0.0100512
0.0102601
0.0104166
0.0104833
0.01045
0.0103479
0.0102373
0.000319078
0.00185155
0.00389481
0.00572895
0.00706452
0.00791556
0.00841731
0.00870432
0.00887215
0.00897967
0.00906131
0.00913784
0.0092233
0.00932844
0.00946128
0.00962476
0.00981176
0.00999956
0.0101489
0.0102139
0.0101657
0.0100164
0.0098217
0.0003302
0.0019605
0.00414476
0.00604642
0.00735114
0.00812565
0.00855007
0.00877652
0.00890092
0.00897674
0.00903276
0.00908523
0.00914477
0.00921981
0.00931739
0.00944183
0.00959074
0.0097492
0.00988506
0.00995137
0.00990274
0.00972356
0.00944813
0.000343035
0.00211118
0.00448163
0.00644016
0.00767351
0.00834195
0.00867812
0.00884415
0.00892953
0.00897903
0.00901467
0.00904806
0.00908654
0.00913606
0.00920213
0.00928912
0.00939775
0.00952031
0.00963488
0.00970184
0.00966972
0.00949581
0.00917566
0.000358982
0.00234857
0.00497627
0.00694499
0.00803386
0.00855759
0.00879585
0.00890419
0.00895633
0.00898519
0.00900555
0.00902468
0.00904703
0.00907633
0.00911626
0.0091703
0.00924037
0.00932389
0.00940907
0.00946959
0.00946226
0.00933379
0.00904131
0.000382317
0.00280066
0.00579053
0.00760849
0.00842533
0.00876094
0.00889718
0.00895421
0.00898008
0.00899389
0.00900352
0.00901263
0.00902342
0.00903776
0.00905765
0.00908516
0.00912197
0.00916795
0.0092186
0.00926123
0.00927058
0.00920652
0.00901805
0.000427231
0.00407648
0.00732373
0.00845889
0.00881434
0.00893304
0.00897583
0.00899251
0.00899977
0.00900357
0.00900621
0.00900874
0.00901176
0.00901582
0.00902152
0.00902953
0.00904048
0.00905463
0.0090711
0.00908662
0.00909366
0.00907801
0.00901665
0.000514126
0.000470795
0.000428304
0.000396187
0.00224272
0.00187903
0.00174116
0.0016895
0.00500893
0.00441502
0.00404552
0.00383309
0.00798598
0.00746158
0.00704134
0.00672549
0.0105495
0.0101729
0.00982758
0.00952341
0.0124905
0.0122382
0.0119875
0.0117448
0.0138675
0.0137022
0.0135259
0.0133422
0.0147394
0.0146321
0.0145099
0.0143748
0.0152762
0.0151933
0.0150967
0.0149872
0.0155851
0.0155163
0.0154312
0.0153299
0.015667
0.0156026
0.0155209
0.0154216
0.0155558
0.0154862
0.015399
0.0152937
0.0153023
0.0152198
0.0151195
0.015001
0.0149547
0.014856
0.014739
0.0146038
0.0145507
0.0144357
0.0143023
0.0141507
0.014122
0.013993
0.013846
0.0136814
0.0136971
0.0135583
0.0134027
0.0132309
0.0133007
0.0131579
0.0130005
0.012829
0.0129514
0.0128117
0.0126599
0.0124967
0.0126609
0.0125311
0.0123922
0.0122448
0.0124335
0.0123193
0.0121991
0.0120732
0.012267
0.0121726
0.0120749
0.0119739
0.0121545
0.012082
0.0120087
0.0119342
0.0120856
0.0120357
0.011987
0.011939
0.0120486
0.0120205
0.0119955
0.0119726
0.0120306
0.0120229
0.0120197
0.01202
0.0120186
0.0120292
0.0120455
0.0120664
0.0119994
0.0120261
0.0120591
0.0120979
0.01196
0.0119999
0.012047
0.0121006
0.0118868
0.0119372
0.0119954
0.0120608
0.0117668
0.0118244
0.0118905
0.0119645
0.0115873
0.0116479
0.0117182
0.0117976
0.0113374
0.0113955
0.0114649
0.0115453
0.0110094
0.0110574
0.0111188
0.0111939
0.0106042
0.0106311
0.0106742
0.0107341
0.010137
0.010129
0.0101399
0.0101717
0.00964083
0.00958121
0.0095419
0.0095272
0.00917401
0.0090462
0.00893563
0.00885052
0.00882165
0.00862026
0.00842335
0.00824399
0.00867071
0.00842375
0.00815639
0.00788303
0.00873926
0.0085251
0.00826855
0.00797551
0.00891212
0.00882181
0.00870349
0.0085541
0.000633472
0.00179976
0.00262459
0.00320402
0.00360618
0.00392251
0.00422386
0.00456548
0.00499113
0.00554615
0.0061038
0.00663445
0.00719644
0.00777682
0.00803386
0.00703264
0.00529479
0.0031615
0.000809278
0.00172029
0.00218307
0.00268247
0.00305593
0.00329384
0.00346813
0.00366368
0.00390875
0.00420133
0.00455296
0.00495182
0.00537784
0.0058496
0.0064627
0.00719222
0.0073853
0.00615383
0.00362452
0.000932753
0.00369313
0.00378371
0.00392129
0.00407229
0.00425113
0.00447243
0.00472749
0.00497592
0.00519654
0.00540043
0.00559607
0.00577809
0.00597392
0.00624755
0.00657924
0.00677211
0.00636606
0.00432158
0.00103516
0.00636013
0.0061934
0.0061265
0.0061442
0.0062515
0.00641735
0.00658751
0.00671666
0.00679038
0.00681863
0.00681296
0.00678158
0.0067412
0.00668438
0.00654682
0.00629174
0.00585803
0.00469589
0.0011181
0.00908921
0.00876914
0.0085709
0.00846934
0.00844456
0.00845649
0.00845932
0.00842397
0.0083453
0.0082322
0.00809248
0.00792507
0.00770095
0.00731765
0.00666802
0.00595996
0.00541866
0.00449037
0.00116246
0.0113614
0.011012
0.0107483
0.0105448
0.010382
0.0102386
0.0100901
0.00992098
0.00973149
0.00953101
0.00932245
0.00907851
0.00868351
0.00790188
0.00669744
0.0056453
0.00513524
0.00433479
0.00119724
0.013033
0.0127146
0.0124356
0.0121693
0.0119052
0.0116497
0.0113991
0.0111473
0.0108979
0.0106657
0.0104523
0.010196
0.00963492
0.00832338
0.00654552
0.00535003
0.00504718
0.00442831
0.00124951
0.0141359
0.0138573
0.0135842
0.0132976
0.0129897
0.0126797
0.01238
0.012089
0.0118151
0.0115936
0.0114347
0.0113032
0.0107788
0.00857293
0.00625251
0.00518967
0.00521693
0.00471719
0.00130871
0.0147851
0.0145098
0.0142162
0.0139073
0.0135849
0.0132608
0.0129499
0.0126526
0.0123766
0.0121364
0.0119116
0.0116632
0.0106953
0.00829725
0.00586704
0.00527475
0.00562561
0.00511973
0.00136626
0.0151359
0.0148514
0.0145377
0.0142078
0.0138702
0.0135356
0.013218
0.0129263
0.0126599
0.0123871
0.0119976
0.0112917
0.0097545
0.00737304
0.00550905
0.00558834
0.00616993
0.00556024
0.00141622
0.0152289
0.0149392
0.0146151
0.0142778
0.0139433
0.0136244
0.0133321
0.0130722
0.0128309
0.0125421
0.0120365
0.0110174
0.00915952
0.00672382
0.00542261
0.00602024
0.00673936
0.00599337
0.0014686
0.0150911
0.0147924
0.014462
0.0141248
0.0138022
0.0135095
0.0132558
0.0130387
0.0128282
0.0125348
0.0119628
0.0107817
0.00876522
0.00642179
0.00554336
0.00647123
0.0072667
0.0063961
0.00152903
0.014778
0.0144631
0.0141225
0.0137829
0.0134689
0.013199
0.0129816
0.012807
0.0126321
0.012353
0.011762
0.0105056
0.00844184
0.00627567
0.00575845
0.0068934
0.00773069
0.00676211
0.00160122
0.0143549
0.0140173
0.0136628
0.0133164
0.0130047
0.0127492
0.0125596
0.0124231
0.0122893
0.012046
0.0114699
0.0101783
0.00812877
0.00619141
0.00601466
0.0072833
0.00813725
0.00709434
0.00168252
0.0138774
0.0135159
0.0131488
0.012795
0.0124819
0.0122337
0.0120629
0.0119582
0.011868
0.0116742
0.0111294
0.00982478
0.00784217
0.00616608
0.00629062
0.00764174
0.00849817
0.00740127
0.00176684
0.0133908
0.0130145
0.012638
0.0122802
0.011966
0.0117212
0.0115622
0.0114823
0.0114327
0.0112901
0.0107789
0.00947764
0.00762523
0.00621799
0.00656753
0.00795082
0.00880902
0.00769078
0.00184922
0.012934
0.0125561
0.0121783
0.0118231
0.0115099
0.0112668
0.0111142
0.0110509
0.011033
0.0109325
0.0104472
0.0091694
0.00750637
0.00632904
0.00682023
0.00817523
0.00904464
0.00796427
0.00192898
0.0125389
0.0121751
0.0118099
0.0114616
0.0111515
0.0109085
0.0107566
0.0106998
0.0106991
0.0106227
0.0101487
0.00891183
0.00745686
0.00658391
0.00704963
0.0083041
0.00919215
0.00821944
0.00200754
0.0122272
0.0118924
0.0115517
0.0112162
0.0109109
0.0106653
0.0105068
0.0104437
0.0104418
0.0103693
0.00989637
0.0087028
0.0074779
0.00691911
0.00731009
0.00846232
0.00932787
0.00842442
0.00208705
0.0120074
0.0117141
0.011407
0.0110904
0.0107902
0.0105381
0.0103642
0.01028
0.0102572
0.0101723
0.0097089
0.00859198
0.00755756
0.00714833
0.00757485
0.00872089
0.00953874
0.00858346
0.00214836
0.0118764
0.011633
0.011366
0.0110736
0.0107783
0.0105157
0.0103174
0.0101977
0.0101371
0.0100316
0.00960118
0.00862294
0.00767614
0.00727518
0.00785732
0.0090782
0.00984574
0.00877936
0.00219005
0.0118228
0.0116339
0.0114113
0.0111469
0.0108586
0.0105833
0.0103538
0.0101889
0.0100809
0.00995235
0.00957837
0.00878408
0.00784556
0.00741329
0.00813058
0.00946096
0.0102228
0.00901419
0.00221232
0.0118304
0.0116982
0.0115232
0.0112916
0.0110151
0.0107286
0.0104674
0.0102563
0.0100986
0.00993662
0.00960483
0.0089864
0.0080961
0.00760677
0.00834795
0.00975137
0.0105966
0.00927163
0.00222609
0.0118818
0.0118065
0.0116824
0.0114903
0.011234
0.0109433
0.0106566
0.010408
0.0102046
0.00998765
0.00963911
0.00907601
0.00823935
0.00780681
0.00852405
0.00986402
0.0107893
0.00953518
0.00228262
0.0119598
0.0119403
0.0118703
0.0117258
0.0115015
0.0112176
0.0109163
0.010645
0.0104097
0.010133
0.00973807
0.00909625
0.00813968
0.00786016
0.00870941
0.0100257
0.0108518
0.00971842
0.00235988
0.0120482
0.0120819
0.012068
0.0119796
0.0118007
0.0115369
0.0112326
0.0109557
0.0107109
0.0103992
0.0099984
0.00915813
0.00805289
0.00792218
0.00893461
0.0102961
0.011046
0.00979739
0.00240025
0.0121314
0.0122141
0.0122564
0.0122303
0.0121095
0.0118798
0.0115814
0.0113095
0.0110706
0.0107419
0.0102606
0.00920754
0.0080612
0.00807233
0.00920338
0.0106316
0.011392
0.00982118
0.00238517
0.0121949
0.0123207
0.0124155
0.0124533
0.0123992
0.012217
0.0119286
0.0116485
0.0114021
0.0110591
0.0104967
0.00932525
0.00820415
0.00831599
0.00952319
0.0109978
0.0117886
0.00994284
0.00234277
0.0122247
0.0123859
0.0125263
0.012623
0.0126363
0.0125133
0.0122424
0.0119223
0.0116259
0.0112868
0.0107141
0.00950021
0.00844194
0.00864518
0.00990922
0.0113927
0.0121728
0.0102203
0.00233553
0.0122071
0.0123957
0.0125725
0.0127188
0.0127935
0.0127345
0.0124982
0.0121526
0.0118017
0.0114386
0.0108757
0.00967442
0.00873601
0.00906254
0.0103782
0.0118483
0.0125897
0.010591
0.00240733
0.0121286
0.0123373
0.0125417
0.0127277
0.0128569
0.0128645
0.0126875
0.0123617
0.0119875
0.0115745
0.0109905
0.00982653
0.00908302
0.00958905
0.0109509
0.0123714
0.0130719
0.0109925
0.00248027
0.0119748
0.0121975
0.0124226
0.0126403
0.0128192
0.0128974
0.0128067
0.0125424
0.0121814
0.0117217
0.011054
0.00994575
0.00950169
0.0102446
0.0116434
0.0129664
0.013601
0.0114048
0.00253682
0.0117304
0.0119615
0.0122018
0.0124442
0.0126678
0.0128196
0.0128323
0.0126653
0.0123446
0.0118356
0.0110688
0.0101291
0.0100428
0.0110056
0.0124184
0.0136237
0.0141459
0.0117581
0.00257476
0.0113795
0.0116125
0.0118624
0.0121221
0.0123818
0.0126032
0.0127229
0.0126857
0.0124493
0.0119514
0.0112405
0.0104977
0.0106844
0.0117859
0.0131851
0.0142746
0.0146511
0.0119919
0.00259223
0.0109082
0.0111327
0.0113853
0.0116532
0.0119358
0.0122127
0.0124352
0.0125406
0.0124636
0.0120942
0.0115752
0.0110541
0.0113387
0.0124675
0.0138354
0.0148322
0.0150068
0.0120069
0.00257921
0.010315
0.0105105
0.0107507
0.0110162
0.0113039
0.0116117
0.0119168
0.0121675
0.0123095
0.0122094
0.0119072
0.0116617
0.0119269
0.0129345
0.0142713
0.0152304
0.0150532
0.0115105
0.00256182
0.00961089
0.00974564
0.00995109
0.0101931
0.0104628
0.010768
0.0111133
0.011483
0.011831
0.0120964
0.0121562
0.0121092
0.0123452
0.0131252
0.0143694
0.0153921
0.0149256
0.0108318
0.00253325
0.00883218
0.00885392
0.00898664
0.00917847
0.0094018
0.00966198
0.00998744
0.0104027
0.0109054
0.0114365
0.0119246
0.0122276
0.0124705
0.0130807
0.0141925
0.0152581
0.0145271
0.00999218
0.00248885
0.00806973
0.00789502
0.00788428
0.00797729
0.00812198
0.00830032
0.00854157
0.00891168
0.00946594
0.0101986
0.0110119
0.0117987
0.012396
0.0130389
0.0140349
0.0149031
0.0137711
0.0090049
0.0024257
0.00751571
0.00703831
0.00675882
0.00664782
0.00664346
0.00669757
0.00681183
0.00705537
0.00754439
0.00837483
0.0095143
0.0108349
0.0121111
0.0130101
0.0138822
0.0143283
0.0126614
0.0079678
0.00234231
0.00748971
0.00669996
0.00600766
0.00549198
0.00515345
0.00494677
0.00484193
0.00487642
0.00517138
0.00589605
0.00719318
0.00917309
0.0116967
0.0129293
0.0136136
0.0134726
0.0113808
0.00701737
0.00223925
0.00825872
0.00764812
0.00688117
0.00602478
0.00515705
0.00432925
0.0035621
0.00288689
0.00242313
0.00241631
0.00319658
0.00545355
0.0111696
0.0127675
0.0132368
0.0126209
0.0102612
0.00631898
0.00211283
)
;

boundaryField
{
    leftWall
    {
        type            nutkWallFunction;
        Cmu             0.09;
        kappa           0.41;
        E               9.8;
        value           nonuniform List<scalar> 
50
(
1.2139e-05
1.50155e-05
1.60773e-05
1.65896e-05
1.72895e-05
1.79338e-05
1.84343e-05
1.88246e-05
1.95624e-05
2.22309e-05
2.72758e-05
3.16274e-05
3.53101e-05
3.5232e-05
3.32185e-05
3.1916e-05
3.12391e-05
3.09134e-05
3.06876e-05
3.04637e-05
3.01839e-05
2.98272e-05
2.9397e-05
2.89059e-05
2.83734e-05
2.78267e-05
2.72965e-05
2.68138e-05
2.64063e-05
2.61013e-05
2.59222e-05
2.58875e-05
2.60085e-05
2.62896e-05
2.67277e-05
2.73137e-05
2.80336e-05
2.887e-05
2.98043e-05
3.08188e-05
3.19e-05
3.30405e-05
3.42416e-05
3.55154e-05
3.6893e-05
3.84248e-05
4.01691e-05
4.22863e-05
4.52658e-05
5.06931e-05
)
;
    }
    rightWall
    {
        type            nutkWallFunction;
        Cmu             0.09;
        kappa           0.41;
        E               9.8;
        value           nonuniform List<scalar> 
50
(
1.23536e-05
1.91269e-05
2.74449e-05
3.68145e-05
4.72011e-05
5.82339e-05
6.93358e-05
7.99821e-05
9.02801e-05
0.000106585
0.000120828
0.000132325
0.000134157
0.00013604
0.00013587
0.000139681
0.000145197
0.000150995
0.000157319
0.000164235
0.000172039
0.000180438
0.000188838
0.000196768
0.000204405
0.000212187
0.000219748
0.000225385
0.000229504
0.000231587
0.000232322
0.000237536
0.000245431
0.000243077
0.000237808
0.000234811
0.000239267
0.000267793
0.000284486
0.000295333
0.000302969
0.00030641
0.00030552
0.000303786
0.000300333
0.000294646
0.00028633
0.000275463
0.000261972
0.000245283
)
;
    }
    lowerWall
    {
        type            nutkWallFunction;
        Cmu             0.09;
        kappa           0.41;
        E               9.8;
        value           nonuniform List<scalar> 
62
(
5.86908e-06
7.80214e-06
9.69328e-06
1.10327e-05
1.20192e-05
1.28019e-05
1.34416e-05
1.39887e-05
1.44634e-05
1.48742e-05
1.52233e-05
1.55087e-05
1.5725e-05
1.58618e-05
1.58992e-05
1.58414e-05
1.56891e-05
1.53865e-05
1.4904e-05
1.42178e-05
1.32127e-05
1.20929e-05
1.08611e-05
1.08611e-05
2.92142e-05
3.37217e-05
3.74709e-05
4.0746e-05
4.34029e-05
4.59592e-05
4.93737e-05
5.44479e-05
5.04857e-05
4.6523e-05
4.32313e-05
4.54428e-07
2.9401e-05
3.61948e-05
4.01931e-05
4.25734e-05
4.42301e-05
4.50606e-05
4.39202e-05
4.54428e-07
6.28796e-06
1.05813e-05
1.37879e-05
1.61286e-05
1.77319e-05
1.87334e-05
1.92681e-05
1.94671e-05
1.94731e-05
1.93426e-05
1.90795e-05
1.84218e-05
1.69223e-05
1.43188e-05
1.09163e-05
7.38646e-06
3.9305e-06
0
)
;
    }
    atmosphere
    {
        type            calculated;
        value           nonuniform List<scalar> 
46
(
0.009
0.009
0.009
0.009
0.009
0.009
0.009
0.009
0.009
0.009
0.009
0.009
0.009
0.009
0.009
0.009
0.009
0.009
0.009
0.009
0.009
0.009
0.009
0.009
0.009
0.009
0.009
0.009
0.009
0.009
0.009
0.009
0.009
0.009
0.009
0.009
0.009
0.009
0.009
0.0111696
0.0127675
0.0132368
0.0126209
0.0102612
0.00631898
0.00211283
)
;
    }
    defaultFaces
    {
        type            empty;
    }
}


// ************************************************************************* //
