/*--------------------------------*- C++ -*----------------------------------*\
  =========                 |
  \\      /  F ield         | OpenFOAM: The Open Source CFD Toolbox
   \\    /   O peration     | Website:  https://openfoam.org
    \\  /    A nd           | Version:  9
     \\/     M anipulation  |
\*---------------------------------------------------------------------------*/
FoamFile
{
    format      ascii;
    class       volVectorField;
    location    "0.45";
    object      U;
}
// * * * * * * * * * * * * * * * * * * * * * * * * * * * * * * * * * * * * * //

dimensions      [0 1 -1 0 0 0 0];

internalField   nonuniform List<vector> 
2268
(
(-0.0186516 0.00608203 0)
(-0.0556747 0.0239014 0)
(-0.148292 0.0254652 0)
(-0.220941 0.0194703 0)
(-0.267561 0.0121276 0)
(-0.294402 0.00510659 0)
(-0.30119 -0.000892672 0)
(-0.291002 -0.00562064 0)
(-0.27006 -0.00908319 0)
(-0.239014 -0.0122476 0)
(-0.198642 -0.0154101 0)
(-0.148753 -0.0188533 0)
(-0.0888134 -0.0226933 0)
(-0.0184789 -0.0271136 0)
(0.0632094 -0.0312005 0)
(0.155643 -0.0350093 0)
(0.254784 -0.0369866 0)
(0.35358 -0.0349634 0)
(0.435448 -0.0268104 0)
(0.486189 -0.000111155 0)
(0.439122 0.0365004 0)
(0.258544 0.0605417 0)
(0.0312057 0.0343629 0)
(-0.0759904 0.0288497 0)
(-0.134829 0.0588551 0)
(-0.225982 0.0567313 0)
(-0.286715 0.041287 0)
(-0.322913 0.0251226 0)
(-0.341563 0.0107607 0)
(-0.345667 -0.00127568 0)
(-0.338694 -0.0108549 0)
(-0.320781 -0.0186652 0)
(-0.293217 -0.0256941 0)
(-0.256561 -0.0324766 0)
(-0.210902 -0.0395624 0)
(-0.156184 -0.0471058 0)
(-0.0920567 -0.0551466 0)
(-0.0182748 -0.0629678 0)
(0.0642028 -0.0697483 0)
(0.152678 -0.0725708 0)
(0.240732 -0.0669029 0)
(0.317236 -0.0468908 0)
(0.360359 -0.000333688 0)
(0.387538 0.0728863 0)
(0.312786 0.136226 0)
(0.0932435 0.108076 0)
(-0.109822 0.0855348 0)
(-0.176056 0.100028 0)
(-0.255164 0.0870842 0)
(-0.307689 0.0615964 0)
(-0.341443 0.0371776 0)
(-0.361091 0.0161939 0)
(-0.368327 -0.00131245 0)
(-0.364791 -0.0156711 0)
(-0.351004 -0.0279855 0)
(-0.328119 -0.0391078 0)
(-0.296718 -0.0497572 0)
(-0.257059 -0.0606326 0)
(-0.209419 -0.0719525 0)
(-0.153681 -0.0837421 0)
(-0.089942 -0.0953633 0)
(-0.0192495 -0.105217 0)
(0.0563677 -0.109671 0)
(0.131905 -0.102308 0)
(0.198385 -0.0748232 0)
(0.239025 -0.0185423 0)
(0.256091 0.0791799 0)
(0.238082 0.186647 0)
(0.0988489 0.188881 0)
(-0.129136 0.154079 0)
(-0.202017 0.141383 0)
(-0.273274 0.115529 0)
(-0.32182 0.0811758 0)
(-0.354659 0.0498631 0)
(-0.375636 0.0230255 0)
(-0.385679 0.000334614 0)
(-0.385778 -0.0187894 0)
(-0.376495 -0.0354514 0)
(-0.358825 -0.0505614 0)
(-0.333432 -0.0649384 0)
(-0.300744 -0.079389 0)
(-0.261303 -0.094223 0)
(-0.215305 -0.109411 0)
(-0.163082 -0.124277 0)
(-0.105618 -0.136744 0)
(-0.0443803 -0.142461 0)
(0.0173274 -0.133636 0)
(0.0732622 -0.0995952 0)
(0.111905 -0.0308563 0)
(0.128361 0.0809932 0)
(0.135885 0.215219 0)
(0.0719923 0.252259 0)
(-0.141634 0.230045 0)
(-0.221156 0.182678 0)
(-0.28714 0.142298 0)
(-0.333412 0.0999156 0)
(-0.365744 0.0627476 0)
(-0.388032 0.0308409 0)
(-0.400761 0.0034925 0)
(-0.404574 -0.019995 0)
(-0.399957 -0.040651 0)
(-0.387788 -0.0593989 0)
(-0.36882 -0.0771037 0)
(-0.343667 -0.0946082 0)
(-0.313114 -0.112294 0)
(-0.277706 -0.130101 0)
(-0.238055 -0.14732 0)
(-0.195129 -0.161678 0)
(-0.149855 -0.168462 0)
(-0.103879 -0.158996 0)
(-0.060156 -0.120846 0)
(-0.0241963 -0.0434862 0)
(-0.000574384 0.0758382 0)
(0.0271362 0.221174 0)
(0.0291397 0.286507 0)
(-0.151866 0.312742 0)
(-0.237064 0.223981 0)
(-0.298371 0.167679 0)
(-0.343051 0.117975 0)
(-0.375184 0.0758243 0)
(-0.398851 0.0395919 0)
(-0.414232 0.00815972 0)
(-0.421735 -0.019204 0)
(-0.421774 -0.043415 0)
(-0.415143 -0.0653533 0)
(-0.402686 -0.0858798 0)
(-0.385196 -0.105819 0)
(-0.363689 -0.125582 0)
(-0.339065 -0.145085 0)
(-0.312278 -0.163609 0)
(-0.284448 -0.1789 0)
(-0.256243 -0.186306 0)
(-0.227898 -0.177046 0)
(-0.198936 -0.137878 0)
(-0.16805 -0.0573357 0)
(-0.1326 0.0642367 0)
(-0.0806237 0.210052 0)
(-0.020011 0.279918 0)
(-0.163176 0.401175 0)
(-0.251173 0.264539 0)
(-0.307196 0.191669 0)
(-0.350614 0.135562 0)
(-0.382938 0.08921 0)
(-0.408145 0.0492952 0)
(-0.426179 0.014305 0)
(-0.437283 -0.0164676 0)
(-0.441829 -0.0437992 0)
(-0.440564 -0.0684803 0)
(-0.434406 -0.0913258 0)
(-0.424308 -0.113102 0)
(-0.411475 -0.134201 0)
(-0.397118 -0.154507 0)
(-0.382528 -0.173283 0)
(-0.369085 -0.188406 0)
(-0.35753 -0.195605 0)
(-0.347373 -0.186862 0)
(-0.335397 -0.149757 0)
(-0.312809 -0.0726817 0)
(-0.265066 0.0440789 0)
(-0.180295 0.179567 0)
(-0.0648833 0.235194 0)
(-0.176212 0.495579 0)
(-0.26305 0.303251 0)
(-0.313108 0.214046 0)
(-0.355749 0.152788 0)
(-0.388883 0.103047 0)
(-0.415903 0.0600248 0)
(-0.436639 0.0219459 0)
(-0.451223 -0.0118159 0)
(-0.460029 -0.0418795 0)
(-0.463799 -0.0689018 0)
(-0.463494 -0.0936184 0)
(-0.460189 -0.116714 0)
(-0.455207 -0.13852 0)
(-0.449955 -0.158872 0)
(-0.445956 -0.176994 0)
(-0.444757 -0.190912 0)
(-0.447237 -0.196901 0)
(-0.452758 -0.188391 0)
(-0.456897 -0.15559 0)
(-0.445577 -0.0889179 0)
(-0.391686 0.0107221 0)
(-0.278109 0.113312 0)
(-0.116756 0.134006 0)
(0.0504977 -0.0243504 0)
(0.0604744 0.00926011 0)
(-0.0341697 0.0229924 0)
(-0.1041 0.0186198 0)
(-0.155915 0.0128721 0)
(-0.186935 0.00695918 0)
(-0.200656 0.00209814 0)
(-0.20074 -0.00123665 0)
(-0.19157 -0.0034329 0)
(-0.176378 -0.00489182 0)
(-0.156589 -0.0060211 0)
(-0.133233 -0.00692804 0)
(-0.107 -0.00769634 0)
(-0.078564 -0.00830431 0)
(-0.0488675 -0.0086219 0)
(-0.0190802 -0.00808842 0)
(0.00669177 -0.00583558 0)
(0.0211392 -0.00159669 0)
(0.0185446 0.00548403 0)
(0.0153581 -0.0314072 0)
(-0.00752797 0.0350547 0)
(-0.0939941 0.0502825 0)
(-0.152863 0.039648 0)
(-0.192096 0.0260526 0)
(-0.212717 0.0135687 0)
(-0.219778 0.00380295 0)
(-0.217364 -0.0032101 0)
(-0.207888 -0.00809795 0)
(-0.192623 -0.0115748 0)
(-0.172938 -0.0142374 0)
(-0.149802 -0.0163201 0)
(-0.123946 -0.0179835 0)
(-0.096106 -0.0191531 0)
(-0.0671831 -0.0195737 0)
(-0.0384833 -0.0182888 0)
(-0.0117836 -0.0135987 0)
(0.00828001 -0.00414207 0)
(0.013338 0.0117265 0)
(-0.029068 -0.0229494 0)
(-0.0656966 0.0586179 0)
(-0.133933 0.0742422 0)
(-0.178335 0.0572 0)
(-0.20766 0.0364969 0)
(-0.223409 0.0183344 0)
(-0.228586 0.00439894 0)
(-0.225509 -0.00579623 0)
(-0.215851 -0.0131947 0)
(-0.200845 -0.0186761 0)
(-0.181662 -0.0229001 0)
(-0.159215 -0.0261941 0)
(-0.134222 -0.0287719 0)
(-0.10743 -0.0305302 0)
(-0.0796798 -0.031121 0)
(-0.0521843 -0.029469 0)
(-0.0264677 -0.0235872 0)
(-0.00509833 -0.0104822 0)
(0.00422794 0.0143205 0)
(-0.0624886 0.00606011 0)
(-0.112805 0.0830923 0)
(-0.166761 0.0939756 0)
(-0.200837 0.0709642 0)
(-0.222487 0.044771 0)
(-0.233927 0.0221179 0)
(-0.236876 0.00454979 0)
(-0.232733 -0.00858758 0)
(-0.222701 -0.0183794 0)
(-0.207808 -0.025773 0)
(-0.189025 -0.0315105 0)
(-0.167181 -0.0359904 0)
(-0.142956 -0.0394558 0)
(-0.117062 -0.0417897 0)
(-0.0902608 -0.0425549 0)
(-0.0636025 -0.0405456 0)
(-0.038301 -0.033512 0)
(-0.0160532 -0.0176323 0)
(-0.00299394 0.0119841 0)
(-0.0921558 0.0502025 0)
(-0.15564 0.108091 0)
(-0.197822 0.109912 0)
(-0.223619 0.081274 0)
(-0.238394 0.0507328 0)
(-0.245501 0.024527 0)
(-0.245881 0.0039281 0)
(-0.240343 -0.0117818 0)
(-0.229683 -0.023736 0)
(-0.214682 -0.0329026 0)
(-0.196115 -0.0400645 0)
(-0.174701 -0.0456706 0)
(-0.151055 -0.0499771 0)
(-0.12582 -0.052862 0)
(-0.0996525 -0.053823 0)
(-0.0734103 -0.0515769 0)
(-0.047975 -0.0437283 0)
(-0.0244058 -0.0260141 0)
(-0.00761771 0.00656761 0)
(-0.123496 0.109944 0)
(-0.199826 0.133762 0)
(-0.229682 0.122256 0)
(-0.247556 0.0882868 0)
(-0.25564 0.0543175 0)
(-0.258277 0.0254061 0)
(-0.255822 0.00239408 0)
(-0.248612 -0.0154711 0)
(-0.237076 -0.0293069 0)
(-0.22174 -0.0400659 0)
(-0.203182 -0.0485344 0)
(-0.181998 -0.0551907 0)
(-0.158713 -0.060293 0)
(-0.133875 -0.0637233 0)
(-0.108019 -0.0649388 0)
(-0.0818001 -0.0626295 0)
(-0.0557811 -0.0543421 0)
(-0.0305168 -0.0356201 0)
(-0.0103305 -0.000962415 0)
(-0.160081 0.187058 0)
(-0.249541 0.159525 0)
(-0.263859 0.130504 0)
(-0.272885 0.0919361 0)
(-0.274144 0.0554927 0)
(-0.272149 0.0246818 0)
(-0.266656 -0.000144326 0)
(-0.257554 -0.0197445 0)
(-0.244922 -0.0351715 0)
(-0.229038 -0.0473313 0)
(-0.210289 -0.0569829 0)
(-0.189129 -0.0646152 0)
(-0.165983 -0.0704816 0)
(-0.141286 -0.0744734 0)
(-0.115444 -0.07603 0)
(-0.0889122 -0.0738525 0)
(-0.0619792 -0.0654795 0)
(-0.0348666 -0.046334 0)
(-0.011932 -0.00994559 0)
(-0.224805 0.302714 0)
(-0.303879 0.177794 0)
(-0.301193 0.133004 0)
(-0.299397 0.091751 0)
(-0.29365 0.054118 0)
(-0.286928 0.0222626 0)
(-0.27828 -0.0037753 0)
(-0.267128 -0.0246863 0)
(-0.253224 -0.0414096 0)
(-0.236607 -0.0547725 0)
(-0.217481 -0.0654832 0)
(-0.196154 -0.0740185 0)
(-0.172935 -0.0806266 0)
(-0.148139 -0.0852059 0)
(-0.122047 -0.0872023 0)
(-0.0949272 -0.0853427 0)
(-0.0668541 -0.0771797 0)
(-0.0379084 -0.0579878 0)
(-0.0129054 -0.0198351 0)
(-0.165009 0.66832 0)
(-0.271973 0.35877 0)
(-0.316657 0.246278 0)
(-0.359876 0.179001 0)
(-0.39563 0.125427 0)
(-0.42608 0.0784342 0)
(-0.451176 0.0362069 0)
(-0.471018 -0.00160637 0)
(-0.486018 -0.0353123 0)
(-0.496937 -0.0653572 0)
(-0.50475 -0.0923127 0)
(-0.510611 -0.116706 0)
(-0.515863 -0.138731 0)
(-0.521938 -0.158147 0)
(-0.530348 -0.174109 0)
(-0.542451 -0.184905 0)
(-0.558873 -0.187805 0)
(-0.578781 -0.178909 0)
(-0.598052 -0.153728 0)
(-0.604132 -0.109335 0)
(-0.573001 -0.050042 0)
(-0.491442 0.00644355 0)
(-0.407441 0.0411434 0)
(-0.0874897 0.867293 0)
(-0.256782 0.439508 0)
(-0.305414 0.296758 0)
(-0.355358 0.220637 0)
(-0.399287 0.161799 0)
(-0.43681 0.109614 0)
(-0.468511 0.0622425 0)
(-0.495 0.0196712 0)
(-0.517017 -0.0181093 0)
(-0.535439 -0.0513364 0)
(-0.551233 -0.0803998 0)
(-0.565449 -0.105678 0)
(-0.579181 -0.127308 0)
(-0.593492 -0.145039 0)
(-0.609328 -0.15818 0)
(-0.627294 -0.165546 0)
(-0.647317 -0.165574 0)
(-0.668378 -0.156502 0)
(-0.688067 -0.136427 0)
(-0.701337 -0.103376 0)
(-0.700812 -0.0579417 0)
(-0.684189 -0.00956175 0)
(-0.660532 0.0255246 0)
(-0.0259495 1.00288 0)
(-0.190711 0.554757 0)
(-0.279463 0.366227 0)
(-0.34383 0.275628 0)
(-0.399551 0.207885 0)
(-0.445477 0.148447 0)
(-0.483763 0.0949353 0)
(-0.516006 0.0472552 0)
(-0.543462 0.00538602 0)
(-0.567198 -0.0309479 0)
(-0.588178 -0.0621491 0)
(-0.60728 -0.0886067 0)
(-0.625304 -0.110529 0)
(-0.642904 -0.127827 0)
(-0.660523 -0.140089 0)
(-0.678254 -0.146598 0)
(-0.695706 -0.146451 0)
(-0.711935 -0.138694 0)
(-0.725189 -0.122436 0)
(-0.732334 -0.0972119 0)
(-0.729349 -0.0644838 0)
(-0.714617 -0.0293383 0)
(-0.691017 0.00247762 0)
(-0.0213659 1.10244 0)
(-0.144635 0.672663 0)
(-0.258012 0.453647 0)
(-0.334883 0.344764 0)
(-0.400758 0.26379 0)
(-0.453818 0.194372 0)
(-0.497434 0.133245 0)
(-0.534072 0.0797102 0)
(-0.565421 0.0333366 0)
(-0.59269 -0.0064243 0)
(-0.61681 -0.0401743 0)
(-0.638522 -0.0684451 0)
(-0.658403 -0.0915985 0)
(-0.676855 -0.109752 0)
(-0.694061 -0.122766 0)
(-0.709926 -0.130285 0)
(-0.724026 -0.131844 0)
(-0.735562 -0.126992 0)
(-0.743228 -0.115431 0)
(-0.745031 -0.0973747 0)
(-0.738731 -0.0743637 0)
(-0.723337 -0.0496275 0)
(-0.699922 -0.0261981 0)
(-0.0382373 1.18334 0)
(-0.118389 0.785315 0)
(-0.249853 0.552219 0)
(-0.334421 0.424003 0)
(-0.406159 0.326844 0)
(-0.463341 0.245373 0)
(-0.510131 0.175501 0)
(-0.549499 0.115506 0)
(-0.583319 0.0642193 0)
(-0.612783 0.0206348 0)
(-0.638724 -0.0161478 0)
(-0.661751 -0.0468716 0)
(-0.682292 -0.0720765 0)
(-0.700611 -0.0920716 0)
(-0.716788 -0.106938 0)
(-0.73069 -0.116583 0)
(-0.741949 -0.120837 0)
(-0.749936 -0.119572 0)
(-0.753715 -0.112844 0)
(-0.75206 -0.101131 0)
(-0.743765 -0.0857097 0)
(-0.728307 -0.0686194 0)
(-0.706171 -0.0516688 0)
(-0.0685957 1.25281 0)
(-0.104761 0.900129 0)
(-0.257195 0.657127 0)
(-0.344148 0.5082 0)
(-0.416827 0.392946 0)
(-0.474457 0.29847 0)
(-0.52192 0.21959 0)
(-0.562339 0.153098 0)
(-0.597448 0.0968092 0)
(-0.628203 0.0491672 0)
(-0.655213 0.00897498 0)
(-0.678918 -0.0247109 0)
(-0.699629 -0.0525927 0)
(-0.717526 -0.0751335 0)
(-0.732655 -0.0925855 0)
(-0.744902 -0.105046 0)
(-0.753984 -0.112549 0)
(-0.75944 -0.115174 0)
(-0.760638 -0.113161 0)
(-0.756842 -0.107065 0)
(-0.747413 -0.0978969 0)
(-0.732078 -0.0870225 0)
(-0.711068 -0.0756569 0)
(-0.119785 1.33124 0)
(-0.107759 1.01905 0)
(-0.280032 0.764819 0)
(-0.363779 0.591846 0)
(-0.431953 0.457353 0)
(-0.486205 0.35036 0)
(-0.53199 0.263399 0)
(-0.572112 0.191156 0)
(-0.607736 0.130247 0)
(-0.639318 0.0785828 0)
(-0.667103 0.0347584 0)
(-0.691301 -0.00227066 0)
(-0.712097 -0.0333016 0)
(-0.729616 -0.0589042 0)
(-0.743896 -0.0794502 0)
(-0.754867 -0.0951713 0)
(-0.762337 -0.106241 0)
(-0.766001 -0.112863 0)
(-0.765457 -0.11537 0)
(-0.760285 -0.114306 0)
(-0.750155 -0.110482 0)
(-0.734925 -0.104884 0)
(-0.714728 -0.0984108 0)
(-0.173502 1.43943 0)
(-0.152678 1.13343 0)
(-0.317995 0.867798 0)
(-0.390741 0.667367 0)
(-0.44836 0.51481 0)
(-0.495906 0.397997 0)
(-0.53848 0.30533 0)
(-0.577716 0.228896 0)
(-0.613708 0.164175 0)
(-0.646158 0.108739 0)
(-0.674836 0.0611734 0)
(-0.699678 0.0204891 0)
(-0.720736 -0.0140929 0)
(-0.738099 -0.0431801 0)
(-0.751818 -0.0672157 0)
(-0.76188 -0.0865198 0)
(-0.76819 -0.101359 0)
(-0.770578 -0.112015 0)
(-0.768822 -0.118858 0)
(-0.76271 -0.122401 0)
(-0.7521 -0.123314 0)
(-0.736934 -0.122357 0)
(-0.717328 -0.120232 0)
(-0.214105 1.62859 0)
(-0.227084 1.25235 0)
(-0.360232 0.955633 0)
(-0.415533 0.726497 0)
(-0.458869 0.561149 0)
(-0.498801 0.439788 0)
(-0.538537 0.345051 0)
(-0.577598 0.26649 0)
(-0.614655 0.198916 0)
(-0.648566 0.139979 0)
(-0.678629 0.088544 0)
(-0.704526 0.043871 0)
(-0.726206 0.00532434 0)
(-0.743744 -0.0276581 0)
(-0.757232 -0.0555466 0)
(-0.766731 -0.0787149 0)
(-0.772246 -0.0974903 0)
(-0.773732 -0.112205 0)
(-0.771112 -0.123248 0)
(-0.76433 -0.131097 0)
(-0.753371 -0.136325 0)
(-0.738249 -0.139549 0)
(-0.719102 -0.141331 0)
(-0.207017 1.83323 0)
(-0.284628 1.37643 0)
(-0.382305 1.02094 0)
(-0.421339 0.766085 0)
(-0.453143 0.596692 0)
(-0.489102 0.477371 0)
(-0.529134 0.3843 0)
(-0.570322 0.305364 0)
(-0.610016 0.235542 0)
(-0.646464 0.173095 0)
(-0.678671 0.117473 0)
(-0.706198 0.0683572 0)
(-0.72896 0.0253596 0)
(-0.747062 -0.0119751 0)
(-0.760672 -0.0440993 0)
(-0.769935 -0.0714212 0)
(-0.774966 -0.094309 0)
(-0.77584 -0.113131 0)
(-0.772608 -0.128286 0)
(-0.765338 -0.140229 0)
(-0.754123 -0.149465 0)
(-0.739044 -0.156516 0)
(-0.72028 -0.161837 0)
(-0.153822 2.07086 0)
(-0.285033 1.50174 0)
(-0.355419 1.06603 0)
(-0.391157 0.792841 0)
(-0.422001 0.628768 0)
(-0.462702 0.51664 0)
(-0.508738 0.427123 0)
(-0.555514 0.348114 0)
(-0.599902 0.27569 0)
(-0.640134 0.209151 0)
(-0.675298 0.148698 0)
(-0.705037 0.0945013 0)
(-0.729346 0.0464596 0)
(-0.748406 0.00425084 0)
(-0.762482 -0.0325366 0)
(-0.771823 -0.0643327 0)
(-0.776653 -0.091539 0)
(-0.777162 -0.114552 0)
(-0.773518 -0.133784 0)
(-0.765904 -0.149677 0)
(-0.754508 -0.162692 0)
(-0.739484 -0.173286 0)
(-0.721057 -0.181832 0)
(0.0600468 2.26089 0)
(-0.169578 1.64121 0)
(-0.246764 1.12735 0)
(-0.31173 0.830563 0)
(-0.362465 0.673116 0)
(-0.420443 0.567055 0)
(-0.479102 0.478871 0)
(-0.534768 0.397672 0)
(-0.585513 0.320989 0)
(-0.630416 0.249109 0)
(-0.669076 0.182853 0)
(-0.701428 0.122781 0)
(-0.727634 0.0690237 0)
(-0.747987 0.0213759 0)
(-0.762846 -0.0205401 0)
(-0.772565 -0.0571639 0)
(-0.777465 -0.0889303 0)
(-0.777842 -0.116262 0)
(-0.773973 -0.139587 0)
(-0.766146 -0.159343 0)
(-0.754642 -0.175965 0)
(-0.73969 -0.189868 0)
(-0.721568 -0.201369 0)
(0.445216 2.14377 0)
(-0.0226659 1.83549 0)
(-0.0770375 1.24434 0)
(-0.201058 0.90787 0)
(-0.289913 0.746427 0)
(-0.372678 0.636837 0)
(-0.446588 0.543247 0)
(-0.511881 0.455637 0)
(-0.569066 0.372131 0)
(-0.618573 0.293316 0)
(-0.660696 0.220188 0)
(-0.695717 0.153441 0)
(-0.723969 0.093318 0)
(-0.745842 0.0396842 0)
(-0.761753 -0.00781955 0)
(-0.772139 -0.0496353 0)
(-0.777388 -0.0862306 0)
(-0.777883 -0.11805 0)
(-0.773993 -0.145534 0)
(-0.7661 -0.169121 0)
(-0.754572 -0.189235 0)
(-0.739722 -0.206262 0)
(-0.721887 -0.22048 0)
(0.275246 1.88672 0)
(0.0599723 2.03547 0)
(0.0261 1.36041 0)
(-0.119403 1.02291 0)
(-0.237141 0.848321 0)
(-0.336171 0.724367 0)
(-0.419808 0.618507 0)
(-0.491295 0.520629 0)
(-0.55287 0.428175 0)
(-0.605765 0.341201 0)
(-0.650671 0.260416 0)
(-0.688041 0.186414 0)
(-0.718271 0.119437 0)
(-0.741767 0.059377 0)
(-0.758955 0.00589174 0)
(-0.770293 -0.0414582 0)
(-0.7762 -0.0831591 0)
(-0.777108 -0.119667 0)
(-0.773452 -0.151429 0)
(-0.765685 -0.17888 0)
(-0.754259 -0.20243 0)
(-0.739569 -0.222448 0)
(-0.722026 -0.239184 0)
(0.132873 1.87499 0)
(-0.0587023 1.96654 0)
(-0.00351228 1.44005 0)
(-0.112721 1.1446 0)
(-0.223138 0.957721 0)
(-0.319719 0.817237 0)
(-0.402862 0.697631 0)
(-0.475037 0.588681 0)
(-0.537879 0.486851 0)
(-0.592345 0.391461 0)
(-0.638981 0.302824 0)
(-0.678136 0.221377 0)
(-0.710116 0.147325 0)
(-0.73525 0.080587 0)
(-0.753905 0.020848 0)
(-0.766491 -0.0323167 0)
(-0.773417 -0.0793822 0)
(-0.775111 -0.120803 0)
(-0.772029 -0.157012 0)
(-0.764671 -0.188426 0)
(-0.75355 -0.215432 0)
(-0.739139 -0.238375 0)
(-0.721931 -0.257481 0)
(0.0369362 1.92838 0)
(-0.0861254 1.95626 0)
(-0.0836987 1.51342 0)
(-0.145444 1.24369 0)
(-0.232905 1.05317 0)
(-0.316319 0.903018 0)
(-0.392645 0.773626 0)
(-0.461572 0.655777 0)
(-0.523194 0.545774 0)
(-0.577619 0.442654 0)
(-0.624946 0.346562 0)
(-0.665263 0.25788 0)
(-0.698693 0.176836 0)
(-0.725425 0.103395 0)
(-0.745712 0.0372942 0)
(-0.759866 -0.0218571 0)
(-0.768238 -0.0744949 0)
(-0.771191 -0.12105 0)
(-0.769152 -0.161916 0)
(-0.76262 -0.197466 0)
(-0.752135 -0.228037 0)
(-0.738233 -0.253927 0)
(-0.721477 -0.275333 0)
(-0.0214122 1.99648 0)
(-0.0766584 1.97548 0)
(-0.136003 1.56626 0)
(-0.173168 1.31596 0)
(-0.243376 1.13016 0)
(-0.314681 0.977826 0)
(-0.383341 0.843531 0)
(-0.447734 0.719732 0)
(-0.506876 0.603353 0)
(-0.560192 0.493646 0)
(-0.607378 0.390862 0)
(-0.648275 0.295468 0)
(-0.682826 0.207781 0)
(-0.71107 0.127847 0)
(-0.733129 0.0554721 0)
(-0.749182 -0.00968548 0)
(-0.759486 -0.0680047 0)
(-0.76428 -0.119876 0)
(-0.763907 -0.165626 0)
(-0.758799 -0.205548 0)
(-0.749472 -0.239892 0)
(-0.736481 -0.26887 0)
(-0.720437 -0.292611 0)
(-0.0510386 2.06523 0)
(-0.0657901 2.01393 0)
(-0.154172 1.61392 0)
(-0.184223 1.37483 0)
(-0.245317 1.19501 0)
(-0.308421 1.04383 0)
(-0.370815 0.90756 0)
(-0.430767 0.779979 0)
(-0.486937 0.658789 0)
(-0.538457 0.543659 0)
(-0.584825 0.435081 0)
(-0.625742 0.333692 0)
(-0.661037 0.239932 0)
(-0.690635 0.153943 0)
(-0.714541 0.075604 0)
(-0.7328 0.00461986 0)
(-0.745542 -0.0593374 0)
(-0.75285 -0.116607 0)
(-0.75492 -0.167434 0)
(-0.75205 -0.212 0)
(-0.744652 -0.25042 0)
(-0.733234 -0.282763 0)
(-0.718396 -0.309027 0)
(-0.0638362 2.12798 0)
(-0.0546028 2.06326 0)
(-0.152517 1.66302 0)
(-0.182508 1.42881 0)
(-0.238365 1.2533 0)
(-0.295821 1.10377 0)
(-0.353177 0.966665 0)
(-0.408916 0.83651 0)
(-0.461768 0.711611 0)
(-0.510881 0.592056 0)
(-0.555751 0.478601 0)
(-0.596063 0.372055 0)
(-0.631616 0.27298 0)
(-0.662283 0.181599 0)
(-0.687985 0.0978426 0)
(-0.708661 0.021451 0)
(-0.724292 -0.0478861 0)
(-0.734816 -0.110462 0)
(-0.740223 -0.166447 0)
(-0.740616 -0.215898 0)
(-0.736213 -0.258755 0)
(-0.727374 -0.294873 0)
(-0.714588 -0.324032 0)
(-0.0693107 2.18227 0)
(-0.0427859 2.11684 0)
(-0.142547 1.71177 0)
(-0.17291 1.47953 0)
(-0.22428 1.30707 0)
(-0.277057 1.15895 0)
(-0.329806 1.02132 0)
(-0.381181 0.88916 0)
(-0.430159 0.761282 0)
(-0.476092 0.638132 0)
(-0.518624 0.520697 0)
(-0.55754 0.409925 0)
(-0.592686 0.306457 0)
(-0.62394 0.210563 0)
(-0.651189 0.122192 0)
(-0.6743 0.0410818 0)
(-0.69313 -0.0330969 0)
(-0.707489 -0.100624 0)
(-0.717146 -0.161634 0)
(-0.721965 -0.216069 0)
(-0.721897 -0.263683 0)
(-0.717034 -0.304064 0)
(-0.707606 -0.336669 0)
(-0.0779121 2.22637 0)
(-0.0280214 2.17238 0)
(-0.129185 1.75679 0)
(-0.158039 1.52614 0)
(-0.204628 1.35651 0)
(-0.252777 1.20958 0)
(-0.300675 1.07135 0)
(-0.347032 0.93738 0)
(-0.391198 0.806994 0)
(-0.43287 0.680963 0)
(-0.471962 0.560446 0)
(-0.508441 0.446462 0)
(-0.542268 0.339677 0)
(-0.573377 0.240355 0)
(-0.601662 0.14842 0)
(-0.62696 0.0635698 0)
(-0.64904 -0.0145877 0)
(-0.667634 -0.0863732 0)
(-0.682312 -0.15194 0)
(-0.692704 -0.211173 0)
(-0.698457 -0.263672 0)
(-0.699298 -0.308745 0)
(-0.695042 -0.345442 0)
(-0.104414 2.26085 0)
(-0.00937689 2.22674 0)
(-0.114158 1.79434 0)
(-0.138975 1.56747 0)
(-0.180641 1.40137 0)
(-0.223859 1.25528 0)
(-0.266122 1.11603 0)
(-0.30626 0.980145 0)
(-0.344195 0.84755 0)
(-0.380129 0.7193 0)
(-0.414343 0.596635 0)
(-0.447055 0.480561 0)
(-0.47838 0.371687 0)
(-0.508336 0.270215 0)
(-0.536853 0.176001 0)
(-0.563771 0.0886659 0)
(-0.588818 0.00772338 0)
(-0.611683 -0.0672484 0)
(-0.631824 -0.136487 0)
(-0.648686 -0.199903 0)
(-0.661643 -0.257024 0)
(-0.670028 -0.306939 0)
(-0.673127 -0.348274 0)
(-0.163076 2.29096 0)
(0.0132931 2.27495 0)
(-0.0949224 1.82042 0)
(-0.115312 1.60398 0)
(-0.153601 1.44205 0)
(-0.191577 1.29549 0)
(-0.226816 1.15413 0)
(-0.258894 1.01587 0)
(-0.288619 0.881259 0)
(-0.316883 0.751481 0)
(-0.344423 0.627712 0)
(-0.371745 0.510817 0)
(-0.399132 0.401257 0)
(-0.426684 0.299102 0)
(-0.454364 0.2041 0)
(-0.482022 0.115772 0)
(-0.509391 0.0335238 0)
(-0.536125 -0.0432082 0)
(-0.561692 -0.114795 0)
(-0.585427 -0.181264 0)
(-0.606535 -0.242189 0)
(-0.624019 -0.29656 0)
(-0.636648 -0.342669 0)
(-0.244082 2.32971 0)
(0.0697506 2.30921 0)
(-0.0706126 1.84324 0)
(-0.0870835 1.64166 0)
(-0.126316 1.47986 0)
(-0.158276 1.3292 0)
(-0.183974 1.18361 0)
(-0.205203 1.04226 0)
(-0.224047 0.905861 0)
(-0.242217 0.775414 0)
(-0.260943 0.651796 0)
(-0.281015 0.535566 0)
(-0.302851 0.426924 0)
(-0.326591 0.32574 0)
(-0.352192 0.231616 0)
(-0.37949 0.143965 0)
(-0.408219 0.0620905 0)
(-0.438014 -0.0147063 0)
(-0.468432 -0.0869617 0)
(-0.498787 -0.15488 0)
(-0.528251 -0.21818 0)
(-0.555649 -0.275916 0)
(-0.579384 -0.326222 0)
(-0.367421 2.38731 0)
(0.243681 2.25671 0)
(-0.0738213 1.88878 0)
(-0.0695792 1.68605 0)
(-0.106931 1.51304 0)
(-0.127733 1.3529 0)
(-0.139166 1.20086 0)
(-0.145481 1.056 0)
(-0.15002 0.918447 0)
(-0.155227 0.7886 0)
(-0.162758 0.666758 0)
(-0.173605 0.55299 0)
(-0.188236 0.44712 0)
(-0.206744 0.348747 0)
(-0.228998 0.257306 0)
(-0.254753 0.172106 0)
(-0.283702 0.0923777 0)
(-0.315474 0.0173332 0)
(-0.349688 -0.0537134 0)
(-0.385747 -0.121161 0)
(-0.422892 -0.184935 0)
(-0.459946 -0.244274 0)
(-0.495172 -0.29737 0)
(-0.509291 2.45406 0)
(0.165388 2.22506 0)
(-0.133832 1.93503 0)
(-0.0904314 1.71808 0)
(-0.103457 1.53002 0)
(-0.102265 1.35892 0)
(-0.0928971 1.20042 0)
(-0.0793994 1.05284 0)
(-0.0657623 0.915607 0)
(-0.054933 0.788288 0)
(-0.0488618 0.670382 0)
(-0.0486101 0.561289 0)
(-0.0545435 0.460342 0)
(-0.0665726 0.366809 0)
(-0.084354 0.279956 0)
(-0.107468 0.199015 0)
(-0.135494 0.123193 0)
(-0.168027 0.0516803 0)
(-0.204671 -0.0162903 0)
(-0.245002 -0.0812884 0)
(-0.288354 -0.143444 0)
(-0.333674 -0.202229 0)
(-0.379292 -0.256066 0)
(-0.0682178 2.51642 0)
(-0.0570015 2.24054 0)
(-0.191926 1.93714 0)
(-0.118922 1.71538 0)
(-0.104236 1.51948 0)
(-0.0776892 1.34064 0)
(-0.0431513 1.17727 0)
(-0.00562289 1.02862 0)
(0.0299094 0.893929 0)
(0.0596817 0.771815 0)
(0.0814629 0.660656 0)
(0.0943013 0.55894 0)
(0.0981479 0.465379 0)
(0.0934795 0.378877 0)
(0.0809904 0.298554 0)
(0.0614014 0.223622 0)
(0.0353312 0.153344 0)
(0.00326817 0.086977 0)
(-0.0343692 0.0237479 0)
(-0.0772234 -0.0370084 0)
(-0.124756 -0.0955937 0)
(-0.176058 -0.151684 0)
(-0.229616 -0.204011 0)
(0.152905 2.52612 0)
(-0.106769 2.39002 0)
(-0.213528 1.93329 0)
(-0.123988 1.69172 0)
(-0.0984302 1.48532 0)
(-0.0499565 1.29716 0)
(0.0118743 1.12819 0)
(0.0773703 0.979654 0)
(0.138402 0.85024 0)
(0.189669 0.736827 0)
(0.228652 0.635984 0)
(0.254847 0.544883 0)
(0.268878 0.461473 0)
(0.271883 0.384299 0)
(0.265068 0.312415 0)
(0.249546 0.24511 0)
(0.226208 0.181799 0)
(0.195699 0.121896 0)
(0.15849 0.0647249 0)
(0.114971 0.00960077 0)
(0.0655776 -0.043882 0)
(0.0111059 -0.0955169 0)
(-0.0470683 -0.144335 0)
(0.155832 2.55069 0)
(-0.104556 2.49585 0)
(-0.200342 1.95291 0)
(-0.124107 1.6691 0)
(-0.093163 1.4362 0)
(-0.0217041 1.22836 0)
(0.0727081 1.0494 0)
(0.17169 0.901736 0)
(0.262005 0.781465 0)
(0.336461 0.681599 0)
(0.392863 0.595631 0)
(0.431926 0.518913 0)
(0.455529 0.448569 0)
(0.465795 0.382939 0)
(0.464604 0.321174 0)
(0.453499 0.262829 0)
(0.433604 0.20761 0)
(0.405708 0.155184 0)
(0.370315 0.105048 0)
(0.327825 0.0565086 0)
(0.278748 0.00908031 0)
(0.223901 -0.0370371 0)
(0.164626 -0.0810088 0)
(0.117602 2.58171 0)
(-0.0929041 2.55344 0)
(-0.191053 1.99154 0)
(-0.143183 1.65275 0)
(-0.100042 1.37105 0)
(0.0055975 1.12733 0)
(0.143369 0.933141 0)
(0.283091 0.789524 0)
(0.405353 0.685244 0)
(0.502247 0.605992 0)
(0.573719 0.540594 0)
(0.62308 0.482281 0)
(0.654224 0.427651 0)
(0.670509 0.375339 0)
(0.674413 0.324917 0)
(0.667882 0.276353 0)
(0.652215 0.229863 0)
(0.628172 0.185505 0)
(0.596266 0.143047 0)
(0.55681 0.101721 0)
(0.510356 0.0608461 0)
(0.45789 0.0207244 0)
(0.400757 -0.0177913 0)
(0.0713041 2.61188 0)
(-0.0773396 2.63644 0)
(-0.227984 2.05073 0)
(-0.192563 1.63354 0)
(-0.114518 1.27518 0)
(0.045644 0.978581 0)
(0.240546 0.767936 0)
(0.42572 0.638163 0)
(0.576932 0.562227 0)
(0.689636 0.513349 0)
(0.76923 0.474799 0)
(0.823342 0.438383 0)
(0.858259 0.401214 0)
(0.878474 0.362874 0)
(0.886896 0.323904 0)
(0.8853 0.28527 0)
(0.874753 0.247682 0)
(0.856003 0.211482 0)
(0.829409 0.176657 0)
(0.795791 0.142844 0)
(0.754963 0.108992 0)
(0.707986 0.0752136 0)
(0.656254 0.0421857 0)
(-0.00384681 2.63597 0)
(-0.0778582 2.66816 0)
(-0.337525 2.08024 0)
(-0.248362 1.57326 0)
(-0.096761 1.11833 0)
(0.142569 0.762282 0)
(0.402724 0.547441 0)
(0.624837 0.451719 0)
(0.787787 0.421431 0)
(0.898445 0.413507 0)
(0.972481 0.406389 0)
(1.02257 0.392798 0)
(1.05655 0.372098 0)
(1.07883 0.346416 0)
(1.09163 0.317972 0)
(1.09588 0.288519 0)
(1.09194 0.259367 0)
(1.08016 0.231136 0)
(1.06068 0.204157 0)
(1.03438 0.177225 0)
(1.00253 0.149124 0)
(0.965289 0.120806 0)
(0.924055 0.0939104 0)
(-0.0983328 2.64592 0)
(0.0386343 3.06857 0)
(-0.241958 2.05974 0)
(-0.170314 1.43316 0)
(0.0597056 0.87295 0)
(0.379563 0.467442 0)
(0.685778 0.281982 0)
(0.908415 0.2547 0)
(1.04091 0.288712 0)
(1.11587 0.326074 0)
(1.16469 0.347227 0)
(1.20174 0.350822 0)
(1.23177 0.341356 0)
(1.25616 0.324304 0)
(1.27478 0.303715 0)
(1.28712 0.281885 0)
(1.29266 0.260276 0)
(1.29089 0.239589 0)
(1.28186 0.219471 0)
(1.26583 0.198693 0)
(1.24498 0.17612 0)
(1.22065 0.152847 0)
(1.19431 0.131695 0)
(-0.0786634 2.58558 0)
(0.499273 3.0422 0)
(0.382536 2.05172 0)
(0.283712 1.23891 0)
(0.520147 0.556138 0)
(0.855226 0.123561 0)
(1.12183 0.0211031 0)
(1.25782 0.107872 0)
(1.29212 0.216081 0)
(1.29528 0.284293 0)
(1.30664 0.315163 0)
(1.33005 0.320863 0)
(1.35947 0.312312 0)
(1.39011 0.29764 0)
(1.41885 0.281175 0)
(1.44358 0.264891 0)
(1.46295 0.249832 0)
(1.47597 0.236399 0)
(1.48244 0.223052 0)
(1.48264 0.207657 0)
(1.47736 0.19019 0)
(1.46995 0.169379 0)
(1.46491 0.147998 0)
(0.180635 2.13433 0)
(0.598227 2.92573 0)
(0.898003 2.38219 0)
(1.17423 1.14264 0)
(1.40228 0.212158 0)
(1.53475 -0.229014 0)
(1.55059 -0.169049 0)
(1.47925 0.146363 0)
(1.38774 0.351092 0)
(1.34341 0.408132 0)
(1.34741 0.408052 0)
(1.37609 0.391902 0)
(1.41577 0.372118 0)
(1.46016 0.353619 0)
(1.5051 0.338157 0)
(1.54742 0.325618 0)
(1.58565 0.316054 0)
(1.61954 0.309371 0)
(1.64881 0.301483 0)
(1.67313 0.286993 0)
(1.69162 0.267488 0)
(1.7081 0.238326 0)
(1.73179 0.190952 0)
(0.262101 1.61498 0)
(0.731999 2.38141 0)
(1.19221 1.90973 0)
(1.98816 0.823098 0)
(2.19669 0.0389902 0)
(1.72324 -0.0320088 0)
(1.21792 0.200861 0)
(1.11062 0.254864 0)
(1.12222 0.243803 0)
(1.17582 0.222732 0)
(1.24179 0.201352 0)
(1.30937 0.180153 0)
(1.37606 0.160121 0)
(1.44168 0.143482 0)
(1.50615 0.131731 0)
(1.56888 0.124326 0)
(1.63066 0.118038 0)
(1.69313 0.113346 0)
(1.75669 0.112607 0)
(1.81752 0.113332 0)
(1.86987 0.113885 0)
(1.91195 0.117538 0)
(1.93941 0.151935 0)
(0.292783 1.0645 0)
(0.811862 1.76345 0)
(1.21068 1.51082 0)
(1.46207 0.898887 0)
(1.28483 0.423798 0)
(1.07932 0.272501 0)
(1.05821 0.252069 0)
(1.0892 0.248002 0)
(1.14051 0.234842 0)
(1.20144 0.214379 0)
(1.26521 0.191895 0)
(1.32895 0.169662 0)
(1.39218 0.149133 0)
(1.45494 0.13167 0)
(1.51716 0.118074 0)
(1.57861 0.107711 0)
(1.63918 0.098185 0)
(1.69938 0.0893082 0)
(1.75987 0.0833961 0)
(1.81939 0.081166 0)
(1.87501 0.0797187 0)
(1.92694 0.0753419 0)
(1.98108 0.0666876 0)
(0.230545 0.536874 0)
(0.720297 1.20777 0)
(1.09213 1.18826 0)
(1.26709 0.882216 0)
(1.22734 0.582616 0)
(1.14098 0.398027 0)
(1.12005 0.297961 0)
(1.14847 0.239254 0)
(1.19977 0.19889 0)
(1.25911 0.169129 0)
(1.31903 0.14568 0)
(1.37757 0.124204 0)
(1.4363 0.103761 0)
(1.49641 0.0868938 0)
(1.55682 0.0749315 0)
(1.61566 0.0670058 0)
(1.67319 0.0591977 0)
(1.73068 0.0521663 0)
(1.78774 0.0485258 0)
(1.844 0.047681 0)
(1.90005 0.0476173 0)
(1.95615 0.0460866 0)
(2.01371 0.041847 0)
(0.106232 0.175453 0)
(0.494894 0.758166 0)
(0.848888 0.880361 0)
(1.04962 0.731774 0)
(1.12094 0.530918 0)
(1.14479 0.362986 0)
(1.17723 0.249272 0)
(1.22559 0.178164 0)
(1.28252 0.133373 0)
(1.3406 0.104931 0)
(1.394 0.0859571 0)
(1.44366 0.0652251 0)
(1.49652 0.0412839 0)
(1.55542 0.0223047 0)
(1.61628 0.0114226 0)
(1.67337 0.00737384 0)
(1.72761 0.000309463 0)
(1.78434 -0.00736531 0)
(1.84168 -0.00868735 0)
(1.89763 -0.00818693 0)
(1.95532 -0.0086757 0)
(2.01506 -0.00802006 0)
(2.07502 -0.00731201 0)
(0.0157518 -0.00430823 0)
(0.258377 0.416549 0)
(0.552318 0.58537 0)
(0.791706 0.530252 0)
(0.95713 0.40645 0)
(1.07814 0.266332 0)
(1.1837 0.16764 0)
(1.27405 0.105727 0)
(1.35209 0.0627695 0)
(1.42045 0.0442811 0)
(1.47198 0.0355327 0)
(1.51113 0.0163704 0)
(1.56008 -0.0205043 0)
(1.62501 -0.0426032 0)
(1.69403 -0.0556759 0)
(1.75239 -0.0477465 0)
(1.80142 -0.0577954 0)
(1.86055 -0.0725794 0)
(1.92306 -0.0688834 0)
(1.97833 -0.0687925 0)
(2.03767 -0.0753166 0)
(2.10184 -0.0738331 0)
(2.16542 -0.0756938 0)
(-0.0531631 -0.0602154 0)
(0.081896 0.206561 0)
(0.306716 0.376256 0)
(0.554503 0.320838 0)
(0.773554 0.296057 0)
(0.963836 0.14376 0)
(1.15371 0.0696788 0)
(1.30012 0.0544363 0)