/*--------------------------------*- C++ -*----------------------------------*\
  =========                 |
  \\      /  F ield         | OpenFOAM: The Open Source CFD Toolbox
   \\    /   O peration     | Website:  https://openfoam.org
    \\  /    A nd           | Version:  9
     \\/     M anipulation  |
\*---------------------------------------------------------------------------*/
FoamFile
{
    format      ascii;
    class       volVectorField;
    location    "0.45";
    object      U;
}
// * * * * * * * * * * * * * * * * * * * * * * * * * * * * * * * * * * * * * //

dimensions      [0 1 -1 0 0 0 0];

internalField   nonuniform List<vector> 
2268
(
(-0.0486779 0.0183998 0)
(-0.0809635 0.00585518 0)
(-0.0697508 -0.00833538 0)
(-0.0349174 -0.0137145 0)
(0.00806752 -0.0148072 0)
(0.0528311 -0.0146711 0)
(0.0964031 -0.0139195 0)
(0.137741 -0.0129986 0)
(0.17643 -0.0120534 0)
(0.212278 -0.0110847 0)
(0.245044 -0.0100394 0)
(0.274279 -0.00883121 0)
(0.299189 -0.00733187 0)
(0.318475 -0.00531723 0)
(0.330189 -0.00226436 0)
(0.330419 0.00251836 0)
(0.312711 0.00979398 0)
(0.271561 0.0193305 0)
(0.202966 0.0295537 0)
(0.101122 0.0372552 0)
(-0.01775 0.0388678 0)
(-0.169861 0.00253934 0)
(-0.0854724 -0.0585793 0)
(-0.0466301 0.0407866 0)
(-0.0441474 0.00780321 0)
(-0.0241326 -0.0173022 0)
(0.0100397 -0.0283257 0)
(0.0502619 -0.0318288 0)
(0.0918984 -0.0319918 0)
(0.132529 -0.030721 0)
(0.171148 -0.0289405 0)
(0.207333 -0.0269652 0)
(0.240825 -0.0248255 0)
(0.271314 -0.0224192 0)
(0.298307 -0.019556 0)
(0.321025 -0.0159475 0)
(0.338316 -0.0111451 0)
(0.348452 -0.00437883 0)
(0.350067 0.00540847 0)
(0.340888 0.0192861 0)
(0.316005 0.0374405 0)
(0.270077 0.0586754 0)
(0.19295 0.0783661 0)
(0.0964157 0.0869777 0)
(-0.0479282 0.0458425 0)
(-0.0140604 -0.0887255 0)
(-0.027811 0.0551135 0)
(-0.0140285 0.000994359 0)
(0.00914799 -0.030784 0)
(0.0429192 -0.0450614 0)
(0.0807331 -0.0497834 0)
(0.119275 -0.0498667 0)
(0.156741 -0.0479145 0)
(0.192358 -0.0451778 0)
(0.225763 -0.042099 0)
(0.256677 -0.0387187 0)
(0.284753 -0.0348802 0)
(0.309481 -0.0302955 0)
(0.330111 -0.0245406 0)
(0.345587 -0.0170039 0)
(0.354454 -0.00684966 0)
(0.355191 0.00710651 0)
(0.346245 0.0261949 0)
(0.325382 0.0512732 0)
(0.290647 0.0816655 0)
(0.23671 0.111881 0)
(0.169793 0.12794 0)
(0.0582448 0.0813989 0)
(0.0446525 -0.080789 0)
(-0.0079731 0.0602546 0)
(0.0112618 -0.00778961 0)
(0.0378083 -0.0447553 0)
(0.0716552 -0.0616397 0)
(0.107443 -0.0671275 0)
(0.143013 -0.0669443 0)
(0.177305 -0.0642718 0)
(0.20988 -0.0606123 0)
(0.240484 -0.0564804 0)
(0.268841 -0.0519026 0)
(0.294579 -0.0466654 0)
(0.31718 -0.0403927 0)
(0.335932 -0.0325436 0)
(0.349877 -0.0223704 0)
(0.357779 -0.00891706 0)
(0.358303 0.00903404 0)
(0.350261 0.0328084 0)
(0.33252 0.0632931 0)
(0.304706 0.0998908 0)
(0.264641 0.137126 0)
(0.215373 0.159946 0)
(0.12969 0.11731 0)
(0.0875715 -0.0440771 0)
(0.00754587 0.0539865 0)
(0.0329389 -0.0187556 0)
(0.0637488 -0.0597241 0)
(0.0980985 -0.077977 0)
(0.132049 -0.0835233 0)
(0.164682 -0.0828018 0)
(0.195781 -0.0793843 0)
(0.225306 -0.0748843 0)
(0.253127 -0.0698069 0)
(0.278976 -0.0641329 0)
(0.30246 -0.0575891 0)
(0.323062 -0.0497252 0)
(0.340116 -0.0399071 0)
(0.352768 -0.0272827 0)
(0.359971 -0.0108137 0)
(0.360627 0.0107011 0)
(0.353856 0.0384785 0)
(0.33911 0.0732176 0)
(0.316719 0.11415 0)
(0.286001 0.156115 0)
(0.247572 0.185134 0)
(0.17929 0.154482 0)
(0.117775 0.013275 0)
(0.0171862 0.0400915 0)
(0.0512015 -0.0334316 0)
(0.0876721 -0.0759649 0)
(0.122872 -0.0940249 0)
(0.154904 -0.0987466 0)
(0.184494 -0.0971649 0)
(0.212368 -0.092993 0)
(0.238876 -0.0877673 0)
(0.263984 -0.0818859 0)
(0.287412 -0.075251 0)
(0.308744 -0.0675308 0)
(0.327473 -0.0582177 0)
(0.342988 -0.0466092 0)
(0.354546 -0.0317768 0)
(0.361269 -0.0126345 0)
(0.362283 0.0119724 0)
(0.356962 0.0430969 0)
(0.345111 0.0811803 0)
(0.327412 0.125246 0)
(0.303953 0.170684 0)
(0.273504 0.205714 0)
(0.218427 0.192243 0)
(0.144443 0.0883867 0)
(0.0224839 0.0211852 0)
(0.067063 -0.0522358 0)
(0.110389 -0.0936952 0)
(0.146314 -0.109707 0)
(0.175954 -0.112657 0)
(0.202263 -0.109951 0)
(0.226904 -0.105078 0)
(0.250491 -0.0992734 0)
(0.273012 -0.0927409 0)
(0.294144 -0.0852843 0)
(0.313446 -0.0765228 0)
(0.330421 -0.0659127 0)
(0.344533 -0.0527092 0)
(0.355155 -0.035929 0)
(0.361572 -0.0144612 0)
(0.363103 0.0127838 0)
(0.35933 0.0466787 0)
(0.350288 0.0873836 0)
(0.336888 0.133707 0)
(0.319755 0.181708 0)
(0.296678 0.222333 0)
(0.254829 0.229237 0)
(0.172298 0.175921 0)
(0.025758 -0.00119091 0)
(0.0826993 -0.0750068 0)
(0.13298 -0.112701 0)
(0.168436 -0.124767 0)
(0.194784 -0.125177 0)
(0.21757 -0.121264 0)
(0.239085 -0.115834 0)
(0.259962 -0.109618 0)
(0.280104 -0.102568 0)
(0.299115 -0.0943976 0)
(0.316525 -0.0846971 0)
(0.331864 -0.0729158 0)
(0.344681 -0.0582979 0)
(0.354486 -0.0398246 0)
(0.360718 -0.0163712 0)
(0.362878 0.0130807 0)
(0.360708 0.0492263 0)
(0.354387 0.0919369 0)
(0.345021 0.139743 0)
(0.333758 0.189294 0)
(0.318594 0.234192 0)
(0.290435 0.260739 0)
(0.220877 0.291857 0)
(-0.00993651 0.0189282 0)
(-0.211307 0.0553988 0)
(-0.522439 0.0796869 0)
(-0.892774 0.0947327 0)
(-1.29028 0.096844 0)
(-1.66421 0.0846098 0)
(-1.96225 0.0607547 0)
(-2.15131 0.0312036 0)
(-2.23273 0.00530851 0)
(-2.23811 -0.0105471 0)
(-2.20302 -0.022137 0)
(-2.10847 -0.0393289 0)
(-1.93472 -0.0593776 0)
(-1.68839 -0.0737523 0)
(-1.40099 -0.0773131 0)
(-1.10373 -0.0751107 0)
(-0.796772 -0.0783371 0)
(-0.464774 -0.0886909 0)
(-0.14783 -0.0701165 0)
(-0.104611 0.102117 0)
(-0.456119 0.189585 0)
(-0.873528 0.232937 0)
(-1.27539 0.250413 0)
(-1.62983 0.239405 0)
(-1.90683 0.200181 0)
(-2.08864 0.140579 0)
(-2.17804 0.0737357 0)
(-2.2051 0.0188236 0)
(-2.2101 -0.0129131 0)
(-2.18741 -0.0392949 0)
(-2.10938 -0.0821588 0)
(-1.94843 -0.136268 0)
(-1.70607 -0.180719 0)
(-1.41359 -0.199607 0)
(-1.10854 -0.200127 0)
(-0.800543 -0.207529 0)
(-0.476373 -0.22911 0)
(-0.155501 -0.184325 0)
(-0.156259 0.23777 0)
(-0.505638 0.346262 0)
(-0.871198 0.387996 0)
(-1.20131 0.391773 0)
(-1.49194 0.358613 0)
(-1.73408 0.290602 0)
(-1.9153 0.198982 0)
(-2.02565 0.10221 0)
(-2.07428 0.0261506 0)
(-2.09445 -0.0160207 0)
(-2.09784 -0.0545284 0)
(-2.05349 -0.122346 0)
(-1.92252 -0.210755 0)
(-1.6977 -0.285938 0)
(-1.40996 -0.320063 0)
(-1.10626 -0.322013 0)
(-0.804901 -0.332759 0)
(-0.490289 -0.368885 0)
(-0.165307 -0.316973 0)
(-0.173185 0.375137 0)
(-0.468464 0.487548 0)
(-0.762907 0.519402 0)
(-1.03654 0.512547 0)
(-1.29303 0.465146 0)
(-1.5186 0.378128 0)
(-1.69469 0.262156 0)
(-1.80538 0.138459 0)
(-1.85693 0.041162 0)
(-1.89164 -0.0090311 0)
(-1.92891 -0.0553404 0)
(-1.93353 -0.148632 0)
(-1.85307 -0.277441 0)
(-1.664 -0.391984 0)
(-1.39116 -0.446793 0)
(-1.09276 -0.449451 0)
(-0.799823 -0.460456 0)
(-0.496051 -0.509793 0)
(-0.171749 -0.454745 0)
(-0.166944 0.521804 0)
(-0.393298 0.603048 0)
(-0.621353 0.623362 0)
(-0.841324 0.615342 0)
(-1.05586 0.560232 0)
(-1.24127 0.45815 0)
(-1.38286 0.320868 0)
(-1.47303 0.173441 0)
(-1.52126 0.059088 0)
(-1.57273 0.00828958 0)
(-1.64142 -0.036765 0)
(-1.70008 -0.149431 0)
(-1.69381 -0.320537 0)
(-1.57439 -0.484089 0)
(-1.3439 -0.568592 0)
(-1.06418 -0.574157 0)
(-0.785543 -0.584291 0)
(-0.495171 -0.646432 0)
(-0.174368 -0.594619 0)
(-0.150599 0.579948 0)
(-0.303529 0.686355 0)
(-0.458555 0.696587 0)
(-0.61089 0.694875 0)
(-0.762612 0.632884 0)
(-0.879602 0.516787 0)
(-0.959541 0.364129 0)
(-1.01401 0.203606 0)
(-1.06351 0.0811081 0)
(-1.14209 0.034521 0)
(-1.22557 -0.0024588 0)
(-1.31444 -0.122181 0)
(-1.38648 -0.328419 0)
(-1.37613 -0.547682 0)
(-1.23909 -0.672831 0)
(-1.00964 -0.68759 0)
(-0.7609 -0.699258 0)
(-0.490904 -0.775902 0)
(-0.175748 -0.733585 0)
(-0.143857 0.790688 0)
(-0.182207 0.778774 0)
(-0.269916 0.740044 0)
(-0.338081 0.751079 0)
(-0.409437 0.681423 0)
(-0.439584 0.549508 0)
(-0.436411 0.384952 0)
(-0.433119 0.229125 0)
(-0.494329 0.117761 0)
(-0.630447 0.0712703 0)
(-0.710293 0.0313396 0)
(-0.777166 -0.0825297 0)
(-0.891777 -0.300453 0)
(-1.00856 -0.566999 0)
(-1.03174 -0.738928 0)
(-0.906872 -0.777351 0)
(-0.719125 -0.800174 0)
(-0.484826 -0.898061 0)
(-0.178686 -0.875114 0)
(-0.0506453 0.747802 0)
(0.0337995 0.853489 0)
(-0.0514994 0.850415 0)
(-0.0157949 0.85247 0)
(-0.00527493 0.750592 0)
(0.0423747 0.573509 0)
(0.126427 0.372629 0)
(0.219214 0.24011 0)
(0.140679 0.188406 0)
(-0.072314 0.131716 0)
(-0.137703 0.050418 0)
(-0.137193 -0.0535085 0)
(-0.213398 -0.224924 0)
(-0.436041 -0.492768 0)
(-0.684676 -0.729671 0)
(-0.729833 -0.825448 0)
(-0.647364 -0.881342 0)
(-0.47374 -1.01331 0)
(-0.183568 -1.02308 0)
(0.0316958 -0.0454024 0)
(0.112923 -0.121462 0)
(0.168239 -0.145026 0)
(0.198442 -0.147044 0)
(0.21845 -0.142729 0)
(0.23613 -0.137127 0)
(0.253545 -0.131144 0)
(0.270917 -0.124522 0)
(0.287918 -0.116822 0)
(0.304047 -0.10764 0)
(0.318815 -0.0965642 0)
(0.331816 -0.0830784 0)
(0.342767 -0.0664727 0)
(0.351424 -0.0457114 0)
(0.357502 -0.0196461 0)
(0.36076 0.0126375 0)
(0.361124 0.0515525 0)
(0.358882 0.0965569 0)
(0.355388 0.145517 0)
(0.352569 0.195625 0)
(0.350332 0.243769 0)
(0.345988 0.287777 0)
(0.35335 0.365416 0)
(0.0642079 -0.129196 0)
(0.170062 -0.207681 0)
(0.209481 -0.192722 0)
(0.221574 -0.173125 0)
(0.23296 -0.161655 0)
(0.246572 -0.15436 0)
(0.261214 -0.148047 0)
(0.276073 -0.141132 0)
(0.290526 -0.13279 0)
(0.304019 -0.122536 0)
(0.316095 -0.109982 0)
(0.326448 -0.0946985 0)
(0.335041 -0.0761445 0)
(0.342076 -0.0534124 0)
(0.34787 -0.0253914 0)
(0.352633 0.00880218 0)
(0.356452 0.0493676 0)
(0.359222 0.0956647 0)
(0.36225 0.144217 0)
(0.367766 0.192435 0)
(0.374885 0.239949 0)
(0.379166 0.284711 0)
(0.388336 0.335561 0)
(0.160374 -0.262494 0)
(0.226963 -0.279677 0)
(0.215564 -0.194215 0)
(0.212851 -0.169998 0)
(0.225283 -0.163578 0)
(0.240759 -0.159316 0)
(0.255999 -0.15444 0)
(0.270476 -0.148166 0)
(0.283931 -0.139967 0)
(0.296055 -0.129508 0)
(0.306539 -0.11654 0)
(0.315166 -0.10082 0)
(0.321936 -0.0821025 0)
(0.326991 -0.0591756 0)
(0.331641 -0.0308287 0)
(0.336946 0.00354702 0)
(0.343258 0.0440458 0)
(0.350946 0.0890338 0)
(0.361423 0.134069 0)
(0.376059 0.178195 0)
(0.391337 0.22591 0)
(0.404268 0.272046 0)
(0.419475 0.315234 0)
(0.201431 -0.458203 0)
(0.129985 -0.253255 0)
(0.150248 -0.170645 0)
(0.191368 -0.174964 0)
(0.214799 -0.173181 0)
(0.232808 -0.168297 0)
(0.248269 -0.161925 0)
(0.261735 -0.154096 0)
(0.273462 -0.14434 0)
(0.283455 -0.132356 0)
(0.291503 -0.117929 0)
(0.29739 -0.100812 0)
(0.300529 -0.0809381 0)
(0.298351 -0.0574597 0)
(0.297472 -0.0310334 0)
(0.303395 0.000125347 0)
(0.314732 0.0390996 0)
(0.333297 0.0827169 0)
(0.356499 0.123965 0)
(0.380043 0.163179 0)
(0.403359 0.207151 0)
(0.428926 0.250665 0)
(0.458475 0.28609 0)
(-0.118799 -0.656892 0)
(-0.053162 -0.310986 0)
(0.00537259 -0.223112 0)
(0.0610391 -0.230516 0)
(0.102263 -0.233299 0)
(0.135847 -0.226013 0)
(0.163477 -0.215277 0)
(0.18576 -0.202807 0)
(0.203634 -0.187878 0)
(0.218071 -0.169788 0)
(0.229824 -0.148208 0)
(0.239521 -0.122955 0)
(0.247995 -0.0940633 0)
(0.257489 -0.0609166 0)
(0.26803 -0.035942 0)
(0.269997 -0.00659077 0)
(0.275532 0.0309602 0)
(0.297307 0.0739822 0)
(0.332081 0.110114 0)
(0.366024 0.146405 0)
(0.404383 0.190052 0)
(0.450699 0.23075 0)
(0.501309 0.256766 0)
(-0.0711138 -0.347908 0)
(-0.0643412 -0.344703 0)
(-0.0117937 -0.295981 0)
(0.0350954 -0.271455 0)
(0.0734199 -0.253037 0)
(0.105016 -0.235512 0)
(0.131692 -0.218666 0)
(0.154118 -0.202115 0)
(0.172773 -0.184996 0)
(0.188293 -0.166519 0)
(0.201367 -0.146148 0)
(0.212663 -0.123579 0)
(0.222834 -0.0988057 0)
(0.232665 -0.0726015 0)
(0.242556 -0.0492628 0)
(0.252895 -0.0284294 0)
(0.269091 -0.0170414 0)
(0.299309 -0.00729968 0)
(0.308862 0.0651023 0)
(0.330037 0.121763 0)
(0.370162 0.170183 0)
(0.44124 0.207119 0)
(0.514445 0.225234 0)
(-0.0184065 -0.380624 0)
(-0.02188 -0.373057 0)
(0.00466867 -0.33779 0)
(0.0364951 -0.30931 0)
(0.0669748 -0.285592 0)
(0.0944592 -0.263894 0)
(0.119117 -0.243231 0)
(0.141087 -0.223041 0)
(0.160497 -0.202682 0)
(0.177659 -0.181542 0)
(0.193031 -0.159161 0)
(0.207145 -0.135272 0)
(0.220582 -0.109843 0)
(0.234028 -0.0832058 0)
(0.248009 -0.0565239 0)
(0.26253 -0.0312118 0)
(0.27567 -0.0103833 0)
(0.286072 0.00545553 0)
(0.303344 0.0168406 0)
(0.342153 0.010064 0)
(0.402614 -0.00428766 0)
(0.459651 0.0464514 0)
(0.509797 0.158081 0)
(-0.00983444 -0.355938 0)
(-0.00554158 -0.384107 0)
(0.0149927 -0.36242 0)
(0.0383672 -0.336849 0)
(0.062656 -0.312555 0)
(0.0863988 -0.289437 0)
(0.109177 -0.267038 0)
(0.130792 -0.244952 0)
(0.151156 -0.22273 0)
(0.170356 -0.199939 0)
(0.188634 -0.176248 0)
(0.206334 -0.151488 0)
(0.223875 -0.125702 0)
(0.241732 -0.0992402 0)
(0.260184 -0.0729899 0)
(0.279062 -0.0482767 0)
(0.297223 -0.0263462 0)
(0.314429 -0.00536 0)
(0.335497 0.0162468 0)
(0.361498 0.025026 0)
(0.383078 0.0207957 0)
(0.403499 0.0126759 0)
(0.441866 0.0120695 0)
(-0.00262455 -0.351256 0)
(0.00338642 -0.396336 0)
(0.019086 -0.381031 0)
(0.0366024 -0.357983 0)
(0.0560494 -0.334527 0)
(0.0764395 -0.311524 0)
(0.0972329 -0.288844 0)
(0.11811 -0.266234 0)
(0.138888 -0.243401 0)
(0.159534 -0.22007 0)
(0.180148 -0.196038 0)
(0.200923 -0.171223 0)
(0.22211 -0.14572 0)
(0.243973 -0.119871 0)
(0.266635 -0.094384 0)
(0.289937 -0.0702103 0)
(0.313287 -0.0482382 0)
(0.336457 -0.0283337 0)
(0.361178 -0.0109594 0)
(0.386148 -0.00049611 0)
(0.406392 0.00657338 0)
(0.424653 0.0221646 0)
(0.451012 0.0470006 0)
(0.00214167 -0.354474 0)
(0.00657825 -0.406909 0)
(0.017864 -0.394953 0)
(0.0311524 -0.374439 0)
(0.0468106 -0.352718 0)
(0.0642114 -0.330887 0)
(0.0828826 -0.308987 0)
(0.102511 -0.286888 0)
(0.122907 -0.264432 0)
(0.143997 -0.24147 0)
(0.16581 -0.217904 0)
(0.188453 -0.193724 0)
(0.212072 -0.169043 0)
(0.236803 -0.144155 0)
(0.262684 -0.11958 0)
(0.289559 -0.0960138 0)
(0.317016 -0.0741883 0)
(0.344678 -0.0545558 0)
(0.372592 -0.0377547 0)
(0.399417 -0.0255112 0)
(0.422689 -0.0153538 0)
(0.443195 -0.00174763 0)
(0.464978 0.0158223 0)
(0.00356614 -0.358621 0)
(0.00601871 -0.414193 0)
(0.0136211 -0.405046 0)
(0.0236273 -0.387271 0)
(0.0361788 -0.367793 0)
(0.0508596 -0.347753 0)
(0.0673012 -0.327304 0)
(0.0852466 -0.306421 0)
(0.104536 -0.285048 0)
(0.125101 -0.263137 0)
(0.14695 -0.24067 0)
(0.170148 -0.217684 0)
(0.194783 -0.194301 0)
(0.220928 -0.170763 0)
(0.248577 -0.147453 0)
(0.277573 -0.124878 0)
(0.307565 -0.1036 0)
(0.338098 -0.0841014 0)
(0.368675 -0.0668666 0)
(0.398217 -0.0524388 0)
(0.425419 -0.0395805 0)
(0.450437 -0.0258628 0)
(0.475382 -0.0106254 0)
(0.0033588 -0.362503 0)
(0.00390589 -0.418512 0)
(0.00854046 -0.412092 0)
(0.0158348 -0.397141 0)
(0.0257068 -0.380114 0)
(0.0378608 -0.362168 0)
(0.0520193 -0.343544 0)
(0.0679867 -0.324303 0)
(0.0856458 -0.304472 0)
(0.104948 -0.284075 0)
(0.125903 -0.263153 0)
(0.148558 -0.241775 0)
(0.172973 -0.220063 0)
(0.199189 -0.198211 0)
(0.22718 -0.176499 0)
(0.256802 -0.155283 0)
(0.287752 -0.134957 0)
(0.319591 -0.115876 0)
(0.351755 -0.0983393 0)
(0.383429 -0.0825131 0)
(0.413857 -0.0678549 0)
(0.442976 -0.0534553 0)
(0.471775 -0.039084 0)
(0.00240998 -0.364877 0)
(0.00146611 -0.420438 0)
(0.00395142 -0.416704 0)
(0.00902563 -0.404513 0)
(0.0165776 -0.389957 0)
(0.0264083 -0.37421 0)
(0.038323 -0.357585 0)
(0.0521849 -0.340215 0)
(0.0679182 -0.322189 0)
(0.0854991 -0.303585 0)
(0.104945 -0.284485 0)
(0.126297 -0.264978 0)
(0.149602 -0.245179 0)
(0.174884 -0.22524 0)
(0.202114 -0.205356 0)
(0.231164 -0.185764 0)
(0.261783 -0.166715 0)
(0.293597 -0.148434 0)
(0.32612 -0.13109 0)
(0.358764 -0.114756 0)
(0.391046 -0.0992758 0)
(0.422761 -0.0845108 0)
(0.454245 -0.0706439 0)
(0.00131926 -0.365662 0)
(-0.000569533 -0.420737 0)
(0.000533671 -0.419465 0)
(0.00385768 -0.409818 0)
(0.00945742 -0.397614 0)
(0.0172243 -0.384037 0)
(0.0270425 -0.369454 0)
(0.0388321 -0.354047 0)
(0.0525564 -0.33795 0)
(0.0682161 -0.321282 0)
(0.0858395 -0.304148 0)
(0.105467 -0.286651 0)
(0.127138 -0.268893 0)
(0.150872 -0.250989 0)
(0.176638 -0.233067 0)
(0.204331 -0.215267 0)
(0.233747 -0.197729 0)
(0.26459 -0.180573 0)
(0.296478 -0.163886 0)
(0.32899 -0.147731 0)
(0.361796 -0.132177 0)
(0.394623 -0.117506 0)
(0.427486 -0.104175 0)
(0.000436121 -0.365192 0)
(-0.0018621 -0.420114 0)
(-0.00150732 -0.420921 0)
(0.000519893 -0.413487 0)
(0.00455901 -0.403421 0)
(0.0105788 -0.391899 0)
(0.0185417 -0.379308 0)
(0.028423 -0.365862 0)
(0.0402238 -0.351726 0)
(0.0539696 -0.337039 0)
(0.0697003 -0.321924 0)
(0.0874587 -0.306486 0)
(0.107281 -0.290816 0)
(0.129185 -0.274994 0)
(0.153146 -0.259092 0)
(0.179076 -0.243177 0)
(0.206818 -0.227305 0)
(0.236144 -0.211516 0)
(0.266768 -0.195846 0)
(0.298388 -0.180365 0)
(0.330776 -0.165282 0)
(0.363653 -0.151122 0)
(0.396911 -0.138562 0)
(-6.28571e-05 -0.363964 0)
(-0.00232497 -0.41918 0)
(-0.00226426 -0.421569 0)
(-0.00110898 -0.415947 0)
(0.00176453 -0.407749 0)
(0.00638661 -0.398105 0)
(0.0127958 -0.387399 0)
(0.0210201 -0.375852 0)
(0.0310977 -0.363641 0)
(0.0430778 -0.350919 0)
(0.0570128 -0.337813 0)
(0.0729504 -0.324428 0)
(0.0909282 -0.310838 0)
(0.110964 -0.297094 0)
(0.13304 -0.283223 0)
(0.157087 -0.269234 0)
(0.182988 -0.255119 0)
(0.210573 -0.240863 0)
(0.23963 -0.226468 0)
(0.26995 -0.212022 0)
(0.301383 -0.197819 0)
(0.333688 -0.184551 0)
(0.366732 -0.173097 0)
(-0.00020492 -0.362521 0)
(-0.00208294 -0.418362 0)
(-0.00196454 -0.421826 0)
(-0.00132024 -0.417595 0)
(0.00075075 -0.410971 0)
(0.00432373 -0.402998 0)
(0.00950167 -0.39403 0)
(0.0163606 -0.384278 0)
(0.0249733 -0.373918 0)
(0.0354119 -0.363103 0)
(0.0477419 -0.351958 0)
(0.0620179 -0.340581 0)
(0.0782811 -0.329031 0)
(0.0965526 -0.31733 0)
(0.116822 -0.305469 0)
(0.139041 -0.29341 0)
(0.163122 -0.281098 0)
(0.188942 -0.26848 0)
(0.216349 -0.255545 0)
(0.245207 -0.242396 0)
(0.275436 -0.229395 0)
(0.306854 -0.217362 0)
(0.339346 -0.207366 0)
(-4.61525e-05 -0.361356 0)
(-0.00132953 -0.417914 0)
(-0.000920864 -0.422013 0)
(-0.000484422 -0.418774 0)
(0.00109302 -0.413429 0)
(0.00393369 -0.40691 0)
(0.00818837 -0.399514 0)
(0.0139733 -0.391429 0)
(0.0213913 -0.382817 0)
(0.0305353 -0.373822 0)
(0.0414836 -0.364565 0)
(0.054299 -0.355129 0)
(0.0690283 -0.345556 0)
(0.085698 -0.335844 0)
(0.104307 -0.325951 0)
(0.124824 -0.315801 0)
(0.147188 -0.305305 0)
(0.171311 -0.294389 0)
(0.197091 -0.283037 0)
(0.224448 -0.271378 0)
(0.25337 -0.259833 0)
(0.283736 -0.249333 0)
(0.315471 -0.241126 0)
(0.000356928 -0.360831 0)
(-0.000263989 -0.418029 0)
(0.000529378 -0.422309 0)
(0.00101971 -0.419741 0)
(0.00234326 -0.415414 0)
(0.00471592 -0.410136 0)
(0.00831666 -0.404139 0)
(0.0132901 -0.397577 0)
(0.0197625 -0.390591 0)
(0.0278435 -0.383313 0)
(0.0376234 -0.375849 0)
(0.0491735 -0.368268 0)
(0.062547 -0.360595 0)
(0.0777775 -0.352802 0)
(0.0948744 -0.344818 0)
(0.113821 -0.336538 0)
(0.134578 -0.327848 0)
(0.157084 -0.318661 0)
(0.181275 -0.308971 0)
(0.207122 -0.298934 0)
(0.234668 -0.289036 0)
(0.263852 -0.280311 0)
(0.294637 -0.274168 0)
(0.000935741 -0.361086 0)
(0.00100357 -0.41881 0)
(0.00212701 -0.422849 0)
(0.00280718 -0.420688 0)
(0.00407393 -0.417154 0)
(0.00619027 -0.41292 0)
(0.00935605 -0.408151 0)
(0.0137357 -0.40296 0)
(0.0194716 -0.397467 0)
(0.0266852 -0.391784 0)
(0.0354762 -0.386003 0)
(0.0459237 -0.380178 0)
(0.0580885 -0.374311 0)
(0.0720119 -0.368352 0)
(0.0877135 -0.362203 0)
(0.10519 -0.355734 0)
(0.124416 -0.348812 0)
(0.145352 -0.34135 0)
(0.167966 -0.333353 0)
(0.192266 -0.325018 0)
(0.218341 -0.316895 0)
(0.24618 -0.310121 0)
(0.275782 -0.306243 0)
(0.00152241 -0.362168 0)
(0.00225591 -0.42019 0)
(0.0036782 -0.423728 0)
(0.0046032 -0.421752 0)
(0.00593418 -0.418816 0)
(0.00794389 -0.415448 0)
(0.0108386 -0.411741 0)
(0.0147918 -0.407769 0)
(0.0199536 -0.403625 0)
(0.0264514 -0.399404 0)
(0.0343912 -0.395182 0)
(0.0438588 -0.390995 0)
(0.0549219 -0.386824 0)
(0.0676298 -0.382597 0)
(0.0820112 -0.37819 0)
(0.0980723 -0.373452 0)
(0.115799 -0.368238 0)
(0.13517 -0.36246 0)
(0.156173 -0.356146 0)
(0.178849 -0.349536 0)
(0.203316 -0.343253 0)
(0.229606 -0.338533 0)
(0.257741 -0.337039 0)
(0.00205324 -0.364105 0)
(0.0033721 -0.422026 0)
(0.0050158 -0.424925 0)
(0.00619782 -0.422993 0)
(0.00765658 -0.420505 0)
(0.00965356 -0.41785 0)
(0.0123892 -0.415051 0)
(0.0160354 -0.412145 0)
(0.0207406 -0.409201 0)
(0.0266324 -0.406298 0)
(0.0338195 -0.403496 0)
(0.0423921 -0.400813 0)
(0.0524238 -0.398211 0)
(0.0639704 -0.395596 0)
(0.0770679 -0.392819 0)
(0.0917298 -0.389712 0)
(0.107951 -0.386118 0)
(0.125721 -0.381954 0)
(0.145048 -0.37727 0)
(0.16599 -0.372358 0)
(0.188683 -0.367917 0)
(0.213192 -0.365284 0)
(0.239556 -0.366209 0)
(0.00247895 -0.366795 0)
(0.00427771 -0.424181 0)
(0.00603919 -0.42639 0)
(0.00745444 -0.424425 0)
(0.00905933 -0.422277 0)
(0.0110919 -0.420205 0)
(0.0137369 -0.418173 0)
(0.0171542 -0.416184 0)
(0.0214823 -0.414289 0)
(0.0268432 -0.412553 0)
(0.0333443 -0.41102 0)
(0.0410773 -0.409692 0)
(0.0501188 -0.408516 0)
(0.0605298 -0.407375 0)
(0.0723512 -0.4061 0)
(0.0856024 -0.404502 0)
(0.100285 -0.402419 0)
(0.1164 -0.399766 0)
(0.133966 -0.396623 0)
(0.153049 -0.393335 0)
(0.173797 -0.390686 0)
(0.196298 -0.390106 0)
(0.22061 -0.393416 0)
(0.00277357 -0.370085 0)
(0.00493786 -0.426512 0)
(0.00670971 -0.428049 0)
(0.00830639 -0.426025 0)
(0.010041 -0.424146 0)
(0.0121225 -0.422554 0)
(0.0147111 -0.421162 0)
(0.0179452 -0.41995 0)
(0.0219463 -0.418955 0)
(0.0268257 -0.418227 0)
(0.032685 -0.417802 0)
(0.0396131 -0.41767 0)
(0.0476868 -0.417762 0)
(0.0569697 -0.417941 0)
(0.0675063 -0.418022 0)
(0.0793205 -0.417797 0)
(0.0924215 -0.417091 0)
(0.106819 -0.415824 0)
(0.122536 -0.414103 0)
(0.139642 -0.41233 0)
(0.158292 -0.411376 0)
(0.178593 -0.412767 0)
(0.200632 -0.418376 0)
(0.00294913 -0.373804 0)
(0.00535651 -0.428883 0)
(0.00703737 -0.429815 0)
(0.00874361 -0.427749 0)
(0.0105672 -0.426099 0)
(0.0126864 -0.424906 0)
(0.0152284 -0.424044 0)
(0.0183019 -0.423478 0)
(0.022006 -0.423234 0)
(0.0264365 -0.423357 0)
(0.0316839 -0.423873 0)
(0.0378298 -0.424766 0)
(0.0449482 -0.425955 0)
(0.0531027 -0.42729 0)
(0.0623397 -0.428567 0)
(0.0726878 -0.42956 0)
(0.0841643 -0.430081 0)
(0.0967856 -0.430055 0)
(0.110579 -0.429613 0)
(0.125612 -0.42922 0)
(0.142044 -0.429836 0)
(0.160007 -0.433083 0)
(0.179619 -0.44088 0)
(0.0030583 -0.377797 0)
(0.00556955 -0.431169 0)
(0.00706072 -0.431591 0)
(0.00879322 -0.429532 0)
(0.0106531 -0.428102 0)
(0.0127853 -0.42725 0)
(0.0152756 -0.426825 0)
(0.018197 -0.426783 0)
(0.0216221 -0.427148 0)
(0.0256265 -0.427963 0)
(0.0302845 -0.429251 0)
(0.0356664 -0.430992 0)
(0.0418403 -0.4331 0)
(0.0488669 -0.435413 0)
(0.056793 -0.437712 0)
(0.0656525 -0.439755 0)
(0.0754712 -0.44134 0)
(0.0862724 -0.442393 0)
(0.0980842 -0.443074 0)
(0.110974 -0.44391 0)
(0.125109 -0.445953 0)
(0.140645 -0.45093 0)
(0.157738 -0.460803 0)
(0.00317735 -0.381959 0)
(0.00562438 -0.433242 0)
(0.00682262 -0.433271 0)
(0.00850039 -0.431302 0)
(0.010344 -0.430111 0)
(0.0124615 -0.429564 0)
(0.014889 -0.429498 0)
(0.0176602 -0.429872 0)
(0.0208186 -0.430712 0)
(0.0244157 -0.432064 0)
(0.0285055 -0.433956 0)
(0.0331441 -0.436367 0)
(0.0383905 -0.439208 0)
(0.044299 -0.442311 0)
(0.0509149 -0.445445 0)
(0.0582774 -0.448356 0)
(0.0664211 -0.45083 0)
(0.0753759 -0.452793 0)
(0.0851711 -0.454433 0)
(0.0958759 -0.45634 0)
(0.107667 -0.459662 0)
(0.120728 -0.466241 0)
(0.135249 -0.478094 0)
(0.00336854 -0.386255 0)
(0.00555409 -0.434965 0)
(0.00635222 -0.43476 0)
(0.00791483 -0.432999 0)
(0.00970093 -0.432087 0)
(0.0117811 -0.431828 0)
(0.014135 -0.432059 0)
(0.0167569 -0.432751 0)
(0.0196597 -0.433941 0)
(0.0228685 -0.435685 0)
(0.0264153 -0.438017 0)
(0.0303402 -0.440918 0)
(0.0346892 -0.444301 0)
(0.0395061 -0.447996 0)
(0.0448318 -0.451771 0)
(0.0507093 -0.455359 0)
(0.0571823 -0.458538 0)
(0.0642871 -0.461236 0)
(0.072055 -0.463667 0)
(0.0805589 -0.466482 0)
(0.0899853 -0.470931 0)
(0.100542 -0.478984 0)
(0.112456 -0.492739 0)
(0.00363676 -0.390684 0)
(0.00536371 -0.436188 0)
(0.00566447 -0.435981 0)
(0.00708796 -0.43458 0)
(0.00879319 -0.434008 0)
(0.0108218 -0.43403 0)
(0.0130952 -0.434505 0)
(0.0155697 -0.435428 0)
(0.018229 -0.436856 0)
(0.021072 -0.438856 0)
(0.0241094 -0.441469 0)
(0.0273636 -0.444683 0)
(0.0308637 -0.448415 0)
(0.0346378 -0.452503 0)
(0.0387185 -0.456715 0)
(0.0431507 -0.460784 0)
(0.0479859 -0.46448 0)
(0.0532665 -0.467734 0)
(0.0590262 -0.470781 0)
(0.0653414 -0.474332 0)
(0.072403 -0.479745 0)
(0.0804327 -0.489131 0)
(0.0896967 -0.504708 0)
(0.00391541 -0.39522 0)
(0.00503941 -0.436767 0)
(0.00477563 -0.436892 0)
(0.00607904 -0.436028 0)
(0.00769619 -0.435862 0)
(0.00966642 -0.436163 0)
(0.0118547 -0.436834 0)
(0.0141846 -0.437911 0)
(0.016614 -0.439476 0)
(0.0191188 -0.441608 0)
(0.0216904 -0.444355 0)
(0.0243326 -0.447712 0)
(0.0270532 -0.451604 0)
(0.0298596 -0.455885 0)
(0.0327717 -0.460333 0)
(0.0358334 -0.464683 0)
(0.039102 -0.468705 0)
(0.0426241 -0.472328 0)
(0.0464347 -0.475808 0)
(0.0506087 -0.479907 0)
(0.0553285 -0.486094 0)
(0.060814 -0.496641 0)
(0.0673538 -0.513926 0)
(0.0041028 -0.399774 0)
(0.00457306 -0.436602 0)
(0.00371954 -0.437502 0)
(0.0049603 -0.43735 0)
(0.0064889 -0.437648 0)
(0.00839615 -0.438221 0)
(0.010494 -0.439046 0)
(0.0126809 -0.44021 0)
(0.0148945 -0.441822 0)
(0.0170931 -0.443976 0)
(0.0192518 -0.446725 0)
(0.0213549 -0.45007 0)
(0.0233858 -0.453949 0)
(0.0253275 -0.458234 0)
(0.0271838 -0.46272 0)
(0.028994 -0.467153 0)
(0.0308169 -0.471304 0)
(0.0326998 -0.475102 0)
(0.0346743 -0.478816 0)
(0.0368036 -0.483254 0)
(0.0392422 -0.489989 0)
(0.0421823 -0.501463 0)
(0.0459024 -0.520261 0)
(0.00411401 -0.404205 0)
(0.00397844 -0.435668 0)
(0.00255268 -0.437872 0)
(0.00381378 -0.438567 0)
(0.00524689 -0.43937 0)
(0.00708427 -0.440198 0)
(0.00908244 -0.441137 0)
(0.0111245 -0.442329 0)
(0.0131352 -0.443917 0)
(0.0150613 -0.446003 0)
(0.0168648 -0.448645 0)
(0.0185116 -0.451848 0)
(0.01996 -0.455564 0)
(0.0211681 -0.459683 0)
(0.0221216 -0.464022 0)
(0.0228505 -0.468344 0)
(0.0234085 -0.472426 0)
(0.0238369 -0.476199 0)
(0.0241572 -0.479937 0)
(0.0244084 -0.484479 0)
(0.0246942 -0.491483 0)
(0.0251417 -0.503561 0)
(0.0259773 -0.523545 0)
(0.00391443 -0.408409 0)
(0.0032907 -0.433997 0)
(0.00133738 -0.438105 0)
(0.00271848 -0.439705 0)
(0.00403151 -0.441025 0)
(0.00578943 -0.442085 0)
(0.00767378 -0.443098 0)
(0.00956437 -0.444275 0)
(0.0113817 -0.445785 0)
(0.0130669 -0.447738 0)
(0.0145729 -0.450192 0)
(0.0158502 -0.453155 0)
(0.0168359 -0.456587 0)
(0.0174661 -0.460398 0)
(0.0177077 -0.464426 0)
(0.0175758 -0.468457 0)
(0.0171108 -0.472283 0)
(0.0163415 -0.475838 0)
(0.0152728 -0.479388 0)
(0.0139096 -0.483778 0)
(0.012282 -0.490716 0)
(0.0104075 -0.502962 0)
(0.00840542 -0.523629 0)
(0.00350124 -0.412341 0)
(0.00254762 -0.431653 0)
(0.000105391 -0.438291 0)
(0.00173626 -0.440769 0)
(0.0028775 -0.442606 0)
(0.0045497 -0.443865 0)
(0.00630363 -0.444919 0)
(0.00803266 -0.44605 0)
(0.00966206 -0.447448 0)
(0.011133 -0.449229 0)
(0.0123944 -0.451445 0)
(0.0133872 -0.454103 0)
(0.0140347 -0.457169 0)
(0.0142565 -0.460564 0)
(0.0140018 -0.464153 0)
(0.0132665 -0.467748 0)
(0.012072 -0.471162 0)
(0.0104309 -0.47433 0)
(0.00833124 -0.477495 0)
(0.00573939 -0.481469 0)
(0.00259266 -0.487964 0)
(-0.00123962 -0.499839 0)
(-0.00582518 -0.520498 0)
(0.00272237 -0.415784 0)
(0.00180804 -0.428835 0)
(-0.00117647 -0.438333 0)
(0.000878796 -0.441779 0)
(0.00177945 -0.44411 0)
(0.00337993 -0.445519 0)
(0.00499061 -0.446583 0)
(0.00654839 -0.447647 0)
(0.0079927 -0.448918 0)
(0.00927039 -0.45051 0)
(0.0103323 -0.452467 0)
(0.0111174 -0.454791 0)
(0.0115435 -0.457449 0)
(0.0115212 -0.460372 0)
(0.0109865 -0.463446 0)
(0.00991766 -0.466512 0)
(0.00831764 -0.469408 0)
(0.00618516 -0.472064 0)
(0.00349583 -0.474683 0)
(0.000180426 -0.478013 0)
(-0.00391852 -0.483701 0)
(-0.00910296 -0.494625 0)
(-0.0157059 -0.514443 0)
(0.000666778 -0.418017 0)
(0.00125867 -0.425884 0)
(-0.00261014 -0.438243 0)
(-2.20119e-05 -0.442834 0)
(0.00071875 -0.445528 0)
(0.00228543 -0.44702 0)
(0.00374461 -0.448065 0)
(0.00512595 -0.449048 0)
(0.00638831 -0.450188 0)
(0.00748863 -0.451592 0)
(0.00838543 -0.453294 0)
(0.00902323 -0.455289 0)
(0.0093225 -0.457541 0)
(0.00919415 -0.459988 0)
(0.00857048 -0.462535 0)
(0.0074206 -0.465045 0)
(0.00573591 -0.467378 0)
(0.0035075 -0.469461 0)
(0.00070471 -0.471453 0)
(-0.00276174 -0.474005 0)
(-0.0071171 -0.478619 0)
(-0.0128196 -0.488071 0)
(-0.020488 -0.506148 0)
(-0.00453434 -0.418289 0)
(0.000715092 -0.423466 0)
(-0.00447023 -0.43852 0)
(-0.0010576 -0.444099 0)
(-0.000294099 -0.446899 0)
(0.00125377 -0.448392 0)
(0.00257247 -0.44938 0)
(0.00378386 -0.450269 0)
(0.0048697 -0.451279 0)
(0.00580355 -0.452507 0)
(0.00655727 -0.453976 0)
(0.00708643 -0.455673 0)
(0.00732179 -0.45756 0)
(0.00718495 -0.459577 0)
(0.00661664 -0.461638 0)
(0.00558821 -0.463627 0)
(0.00408852 -0.465423 0)
(0.00210869 -0.466959 0)
(-0.000378336 -0.468347 0)
(-0.00345007 -0.470119 0)
(-0.00734738 -0.473567 0)
(-0.0126187 -0.481223 0)
(-0.0200959 -0.496817 0)
(-0.0146106 -0.416248 0)
(-0.000368427 -0.422571 0)
(-0.00694307 -0.439717 0)
(-0.00220495 -0.445838 0)
(-0.00124526 -0.448456 0)
(0.000282716 -0.449822 0)
(0.00149168 -0.450679 0)
(0.0025515 -0.451444 0)
(0.00346811 -0.452323 0)
(0.00424234 -0.453392 0)
(0.00486367 -0.454661 0)
(0.00530177 -0.456108 0)
(0.00550344 -0.457695 0)
(0.00540974 -0.45936 0)
(0.0049793 -0.461023 0)
(0.00419413 -0.462583 0)
(0.0030493 -0.463939 0)
(0.0015468 -0.465034 0)
(-0.000319838 -0.465944 0)
(-0.00258953 -0.467072 0)
(-0.00546528 -0.469484 0)
(-0.00947313 -0.475361 0)
(-0.0155237 -0.488144 0)
(-0.0308374 -0.410469 0)
(-0.00219655 -0.42314 0)
(-0.00993503 -0.441731 0)
(-0.00341628 -0.448083 0)
(-0.00209391 -0.450273 0)
(-0.000561139 -0.451322 0)
(0.000572495 -0.451955 0)
(0.00148255 -0.452561 0)
(0.00223182 -0.453301 0)
(0.00284863 -0.454226 0)
(0.00333843 -0.45533 0)
(0.00368523 -0.456587 0)
(0.00385525 -0.457951 0)
(0.00381346 -0.45936 0)
(0.0035397 -0.460735 0)
(0.00302979 -0.461991 0)
(0.00229045 -0.46305 0)
(0.001342 -0.463867 0)
(0.000213779 -0.464497 0)
(-0.00109339 -0.465242 0)
(-0.00270203 -0.466954 0)
(-0.004999 -0.471435 0)
(-0.00878498 -0.481721 0)
(-0.0552388 -0.392765 0)
(-0.00411964 -0.427278 0)
(-0.0129435 -0.444155 0)