/*--------------------------------*- C++ -*----------------------------------*\
  =========                 |
  \\      /  F ield         | OpenFOAM: The Open Source CFD Toolbox
   \\    /   O peration     | Website:  https://openfoam.org
    \\  /    A nd           | Version:  9
     \\/     M anipulation  |
\*---------------------------------------------------------------------------*/
FoamFile
{
    format      ascii;
    class       volScalarField;
    location    "225";
    object      epsilon;
}
// * * * * * * * * * * * * * * * * * * * * * * * * * * * * * * * * * * * * * //

dimensions      [0 2 -3 0 0 0 0];

internalField   nonuniform List<scalar> 
12225
(
285.514
270.7
257.918
243.807
232.466
223.08
216.817
212.696
212.741
213.954
217.243
220.886
228.102
232.792
241.282
246.601
255.024
262.912
52.4941
91.8799
106.972
114.747
124.843
136.78
152.691
169.898
191.109
210.924
235.226
255.469
281.051
299.31
324.741
339.268
364.539
373.46
20.3233
34.8563
44.6751
50.469
55.3965
59.6063
64.6648
69.6409
76.3178
83.1809
91.436
99.3142
108.171
116.931
125.537
135.273
142.56
153.717
15.3483
19.6975
24.1127
27.5685
30.4975
32.8692
35.1555
37.2928
39.5027
41.9168
44.3368
47.2002
49.6814
53.0365
55.4117
59.232
61.4283
65.6367
14.6508
15.8626
17.3671
19.0736
20.6384
22.0257
23.2461
24.4308
25.444
26.5943
27.5233
28.7574
29.6318
30.9845
31.8126
33.2635
34.0763
35.6432
14.7068
14.8769
15.2015
15.8666
16.5668
17.2867
17.9236
18.5841
19.1191
19.7338
20.1932
20.7987
21.2082
21.8221
22.1978
22.8246
23.1785
23.857
14.7421
14.6201
14.6248
14.737
14.9297
15.219
15.4913
15.8088
16.0709
16.3825
16.6181
16.9201
17.1308
17.4268
17.6157
17.9118
18.0811
18.4056
14.7626
14.5866
14.4638
14.3812
14.3669
14.39
14.4381
14.5337
14.6185
14.7366
14.8308
14.9564
15.0477
15.1761
15.2609
15.3916
15.4697
15.6193
14.7667
14.5908
14.4346
14.2963
14.1849
14.1044
14.0398
14.0066
13.9814
13.9785
13.9809
13.9916
14.004
14.0295
14.0471
14.0793
14.1031
14.1455
14.7663
14.5939
14.432
14.282
14.143
14.0219
13.9115
13.8193
13.737
13.6698
13.6102
13.5633
13.5181
13.4871
13.4516
13.4341
13.4022
13.4008
14.7658
14.5945
14.4321
14.2803
14.1362
14.0032
13.8782
13.7644
13.6582
13.5629
13.4735
13.3952
13.3198
13.2561
13.1915
13.1408
13.0838
13.0451
14.7657
14.5943
14.4321
14.2798
14.1353
13.9999
13.8715
13.7518
13.6385
13.5337
13.4341
13.343
13.2557
13.1771
13.1003
13.0328
12.9647
12.9074
14.7657
14.5941
14.432
14.2794
14.1349
13.9989
13.8699
13.7485
13.6332
13.5249
13.422
13.3257
13.2338
13.1483
13.0663
12.9906
12.9172
12.8502
14.7657
14.5939
14.4318
14.279
14.1346
13.9983
13.8691
13.7472
13.6315
13.5223
13.4184
13.3203
13.227
13.1389
13.055
12.9759
12.9002
12.8291
14.7657
14.5938
14.4317
14.2787
14.1342
13.9977
13.8686
13.7464
13.6307
13.5211
13.4171
13.3185
13.2248
13.136
13.0516
12.9714
12.8951
12.8227
14.7657
14.5937
14.4316
14.2785
14.1339
13.9973
13.8681
13.7458
13.63
13.5202
13.4161
13.3174
13.2236
13.1346
13.05
12.9696
12.8931
12.8204
14.7657
14.5937
14.4315
14.2783
14.1337
13.997
13.8677
13.7453
13.6294
13.5195
13.4154
13.3165
13.2227
13.1336
13.0489
12.9684
12.8918
12.819
14.7657
14.5937
14.4314
14.2782
14.1335
13.9968
13.8674
13.745
13.629
13.5191
13.4148
13.3159
13.222
13.1329
13.0481
12.9675
12.8909
12.818
14.7657
14.5937
14.4314
14.2782
14.1335
13.9967
13.8673
13.7448
13.6288
13.5189
13.4146
13.3156
13.2217
13.1325
13.0477
12.9671
12.8904
12.8174
14.7657
14.5937
14.4314
14.2782
14.1336
13.9968
13.8674
13.745
13.629
13.519
13.4148
13.3159
13.2219
13.1327
13.0479
12.9673
12.8907
12.8177
14.7657
14.5937
14.4315
14.2784
14.1337
13.997
13.8677
13.7453
13.6294
13.5196
13.4154
13.3166
13.2229
13.1338
13.0493
12.9689
12.8926
12.82
14.7657
14.5937
14.4316
14.2785
14.1341
13.9974
13.8685
13.7464
13.6312
13.522
13.419
13.3214
13.2293
13.1418
13.0595
12.981
12.9073
12.8368
14.7658
14.5937
14.4318
14.2788
14.1353
14.0002
13.8742
13.756
13.6463
13.5435
13.4485
13.3591
13.277
13.1992
13.1282
13.0601
12.9988
12.9386
14.7655
14.5928
14.4328
14.2844
14.1515
14.0321
13.929
13.8375
13.7593
13.6894
13.6306
13.5769
13.5328
13.4905
13.4574
13.423
13.3988
13.3693
14.7592
14.5932
14.4603
14.3602
14.3029
14.2766
14.2805
14.2921
14.321
14.3531
14.3959
14.4345
14.4824
14.5217
14.572
14.6089
14.6616
14.6939
14.7213
14.6911
14.754
14.9176
15.1828
15.4611
15.7476
16.012
16.2723
16.5038
16.7361
16.9386
17.1507
17.3309
17.531
17.6937
17.8889
18.036
14.7477
15.5124
16.5473
17.6841
18.7044
19.5675
20.3372
20.9968
21.6195
22.1661
22.719
23.2109
23.74
24.2044
24.7328
25.1828
25.7252
26.1662
15.9871
20.992
25.0238
27.7604
29.7847
31.3585
32.7771
34.058
35.3595
36.6165
37.9756
39.2974
40.7619
42.1461
43.7183
45.1743
46.8844
48.3592
29.9032
47.2182
54.8696
58.6735
61.6141
64.4321
67.5809
70.9779
74.7392
78.7152
82.9864
87.3458
91.9068
96.452
101.103
105.625
110.178
114.579
165.798
160.075
154.899
149.564
144.479
139.677
135.614
132.109
129.27
126.974
125.32
124.044
123.34
122.825
122.842
122.96
123.284
123.828
0.296602
0.341326
0.619176
0.877862
1.15173
1.45353
1.79013
2.16343
2.56974
3.0007
3.44738
3.90028
4.35158
4.79301
5.21722
5.61533
5.97861
6.29636
6.55855
6.75468
6.87812
6.92035
6.88288
6.75447
6.64125
6.57795
6.96056
7.2361
7.56151
7.8855
8.20943
8.52328
8.80491
9.00797
9.20639
9.26006
8.93392
40.8921
42.0042
41.9351
46.6638
49.2883
52.9543
56.5255
60.3416
64.3152
68.457
72.7762
77.2675
81.9395
86.7923
91.8312
97.0585
102.478
108.094
113.908
119.923
126.143
132.57
139.205
146.051
153.108
160.378
167.861
175.557
183.466
191.585
199.914
208.45
217.191
226.132
235.272
244.603
254.122
263.82
273.695
283.735
293.935
304.285
314.778
325.4
336.146
346.999
357.954
368.99
380.102
391.267
402.477
413.71
424.952
436.178
447.366
458.49
469.522
480.438
491.217
501.867
512.442
522.909
533.215
543.376
553.368
563.181
572.796
582.197
591.371
600.301
608.976
617.378
625.498
633.317
640.827
648.008
654.855
661.348
667.482
673.238
678.611
683.587
688.16
692.315
696.041
699.323
702.155
704.523
706.418
707.81
708.58
709.513
709.37
708.78
707.596
706.018
703.987
701.403
698.316
694.72
690.618
686.012
680.893
675.251
669.096
662.436
655.284
647.653
639.558
631.017
622.05
612.678
602.929
592.827
582.406
571.694
560.732
549.555
538.215
526.789
515.468
505.67
499.161
493.132
487.028
480.808
474.49
468.101
461.667
455.215
448.769
442.354
435.99
429.696
423.484
417.367
411.296
405.263
399.244
393.109
386.317
378.805
352.572
1.39266
0.840556
0.845271
0.95808
1.13148
1.35198
1.61605
1.9193
2.25549
2.61723
2.99716
3.38868
3.78609
4.18442
4.57909
4.96561
5.3394
5.69584
6.03023
6.33793
6.61683
6.90551
7.21377
7.5727
8.02673
8.58035
9.21394
9.87624
10.6411
11.5444
12.4125
13.3093
13.8933
15.4419
17.1488
19.1649
21.9361
25.3477
26.3428
27.8042
29.6354
31.2747
33.0679
34.8959
36.7976
38.7628
40.795
42.8963
45.0673
47.3101
49.6257
52.0154
54.4804
57.0217
59.6402
62.3366
65.1117
67.966
70.8999
73.9136
77.0073
80.1809
83.4342
86.7669
90.1783
93.6678
97.2344
100.877
104.595
108.385
112.247
116.179
120.179
124.243
128.37
132.557
136.8
141.097
145.444
149.838
154.273
158.748
163.255
167.792
172.352
176.931
181.522
186.119
190.716
195.306
199.88
204.431
208.951
213.435
217.881
222.294
226.695
231.13
235.56
239.928
244.239
248.485
252.66
256.757
260.772
264.698
268.529
272.261
275.888
279.403
282.803
286.082
289.235
292.256
295.141
297.884
300.483
302.931
305.225
307.36
309.332
311.135
312.764
314.216
315.485
316.57
317.465
318.171
318.746
319.031
319.12
318.993
318.689
318.2
317.49
316.57
315.437
314.092
312.533
310.757
308.762
306.551
304.125
301.489
298.645
295.599
292.357
288.924
285.309
281.521
277.569
273.464
269.219
264.846
260.36
255.779
251.128
246.48
242.1
238.329
234.721
231.117
227.488
223.839
220.178
216.517
212.868
209.241
205.648
202.097
198.598
195.16
191.79
188.482
185.236
182.063
178.974
175.992
173.366
169.552
2.85617
1.45052
1.29511
1.34068
1.4702
1.65879
1.89655
2.17682
2.4929
2.83782
3.20495
3.58874
3.98488
4.39034
4.80308
5.22196
5.64665
6.07797
6.51845
6.97387
7.45412
7.95215
8.48383
9.06061
9.69002
10.3639
11.0744
11.8173
12.6155
13.4099
14.2855
15.2324
16.2729
17.4753
18.8134
20.2574
21.7752
23.2223
24.4606
25.7999
27.2103
28.6442
30.1368
31.6801
33.2779
34.9296
36.636
38.3982
40.2167
42.0925
44.0262
46.0185
48.0702
50.1817
52.3536
54.5864
56.8804
59.2359
61.6533
64.1326
66.6739
69.2771
71.9419
74.6682
77.4555
80.3032
83.2107
86.1772
89.2016
92.2828
95.4197
98.6107
101.854
105.149
108.492
111.882
115.316
118.793
122.308
125.86
129.446
133.062
136.704
140.37
144.054
147.754
151.465
155.183
158.903
162.62
166.332
170.032
173.719
177.39
181.045
184.687
188.32
191.944
195.538
199.087
202.59
206.039
209.43
212.759
216.02
219.208
222.32
225.35
228.294
231.148
233.907
236.567
239.124
241.574
243.913
246.137
248.243
250.226
252.084
253.813
255.408
256.866
258.183
259.357
260.384
261.261
261.987
262.562
262.986
263.214
263.278
263.177
262.922
262.506
261.917
261.157
260.225
259.12
257.842
256.39
254.764
252.965
250.995
248.856
246.552
244.087
241.464
238.69
235.77
232.712
229.522
226.211
222.786
219.257
215.637
211.938
208.182
204.412
200.734
197.257
193.867
190.494
187.121
183.747
180.379
177.027
173.697
170.4
167.144
163.936
160.785
157.698
154.681
151.738
148.878
146.117
143.478
141.031
138.94
136.773
4.43434
2.11223
1.79036
1.77691
1.87983
2.05236
2.27781
2.54754
2.8549
3.19383
3.55883
3.94534
4.35003
4.77091
5.20723
5.6593
6.12827
6.616
7.12489
7.65775
8.21701
8.80322
9.41885
10.065
10.739
11.4368
12.1557
12.8952
13.6567
14.4771
15.3568
16.2995
17.3205
18.4115
19.5516
20.7661
22.0153
23.2664
24.519
25.8171
27.164
28.5512
29.9856
31.4686
33.0016
34.5854
36.2208
37.9087
39.6499
41.4453
43.2954
45.2012
47.1632
49.182
51.2581
53.392
55.5844
57.8355
60.1457
62.5154
64.9446
67.4337
69.9824
72.5908
75.2586
77.9855
80.7711
83.6147
86.5156
89.4729
92.4857
95.5526
98.6723
101.843
105.064
108.332
111.646
115.002
118.4
121.836
125.306
128.809
132.341
135.898
139.477
143.075
146.686
150.308
153.936
157.566
161.195
164.82
168.436
172.042
175.635
179.215
182.779
186.318
189.822
193.283
196.696
200.055
203.357
206.595
209.765
212.862
215.88
218.817
221.666
224.424
227.086
229.648
232.106
234.456
236.695
238.818
240.821
242.703
244.458
246.084
247.577
248.934
250.151
251.225
252.155
252.937
253.571
254.054
254.372
254.508
254.5
254.329
254.001
253.511
252.855
252.033
251.046
249.892
248.571
247.085
245.433
243.618
241.64
239.504
237.212
234.767
232.176
229.442
226.572
223.573
220.451
217.216
213.876
210.439
206.919
203.328
199.686
196.023
192.396
188.852
185.358
181.883
178.417
174.962
171.522
168.107
164.724
161.382
158.088
154.849
151.674
148.57
145.543
142.599
139.749
137.016
134.424
132.047
129.984
128.047
5.97383
2.77384
2.28464
2.21504
2.29035
2.44733
2.662
2.92306
3.22329
3.55701
3.91936
4.30638
4.71515
5.1439
5.59197
6.05962
6.54786
7.05814
7.5921
8.15123
8.73653
9.34839
9.98695
10.6525
11.3431
12.0574
12.7952
13.5594
14.3553
15.1921
16.0738
17.0048
17.9886
19.0243
20.1086
21.2404
22.4159
23.631
24.8829
26.1794
27.5198
28.9067
30.341
31.8241
33.3571
34.9413
36.5776
38.2671
40.0107
41.8095
43.6644
45.5765
47.5468
49.5757
51.6639
53.8122
56.0213
58.2919
60.6246
63.02
65.4785
68.0005
70.5863
73.2361
75.9499
78.7276
81.569
84.4738
87.4415
90.4713
93.5625
96.714
99.9245
103.193
106.517
109.895
113.325
116.805
120.332
123.903
127.516
131.168
134.854
138.572
142.317
146.085
149.874
153.677
157.492
161.314
165.138
168.961
172.778
176.585
180.378
184.151
187.899
191.614
195.29
198.919
202.496
206.016
209.471
212.858
216.17
219.401
222.548
225.603
228.564
231.424
234.179
236.825
239.357
241.771
244.063
246.229
248.266
250.17
251.937
253.564
255.048
256.386
257.574
258.609
259.49
260.215
260.781
261.184
261.402
261.457
261.349
261.073
260.63
260.016
259.231
258.275
257.148
255.85
254.382
252.745
250.94
248.97
246.837
244.545
242.096
239.495
236.747
233.858
230.833
227.68
224.407
221.021
217.533
213.952
210.29
206.561
202.783
198.98
195.185
191.427
187.698
183.987
180.29
176.612
172.958
169.336
165.755
162.223
158.747
155.335
151.994
148.734
145.561
142.482
139.514
136.677
133.999
131.544
129.374
127.341
7.41909
3.40656
2.75566
2.63118
2.67851
2.81936
3.02265
3.27427
3.56608
3.89236
4.24857
4.63109
5.03715
5.46495
5.91356
6.38287
6.87339
7.38607
7.92207
8.48252
9.06836
9.68032
10.3189
10.9844
11.6769
12.3973
13.1467
13.9274
14.7426
15.596
16.4908
17.4297
18.4144
19.4455
20.5232
21.6476
22.8179
24.0332
25.2935
26.6002
27.9545
29.3575
30.8103
32.3142
33.8705
35.4804
37.1454
38.8665
40.645
42.4822
44.379
46.3366
48.3562
50.439
52.5865
54.7996
57.0795
59.4271
61.8435
64.3296
66.8861
69.5138
72.2133
74.985
77.8294
80.7465
83.7365
86.7992
89.9343
93.1412
96.4193
99.7675
103.185
106.669
110.22
113.834
117.51
121.245
125.037
128.882
132.777
136.719
140.704
144.727
148.785
152.873
156.986
161.119
165.269
169.428
173.593
177.759
181.918
186.067
190.198
194.305
198.381
202.419
206.412
210.353
214.235
218.052
221.797
225.463
229.044
232.535
235.929
239.22
242.403
245.472
248.422
251.248
253.945
256.509
258.936
261.22
263.359
265.348
267.185
268.865
270.385
271.742
272.934
273.958
274.811
275.492
276
276.318
276.448
276.406
276.185
275.782
275.197
274.43
273.479
272.346
271.032
269.538
267.864
266.014
263.989
261.793
259.427
256.896
254.204
251.355
248.356
245.211
241.928
238.515
234.979
231.33
227.578
223.735
219.811
215.821
211.782
207.714
203.641
199.582
195.541
191.518
187.513
183.532
179.583
175.674
171.812
168.008
164.268
160.601
157.014
153.517
150.118
146.827
143.658
140.634
137.782
135.157
132.795
130.528
8.73032
3.99018
3.18711
3.00912
3.02823
3.15198
3.34266
3.58336
3.86486
4.18116
4.52788
4.9016
5.29973
5.72045
6.1627
6.62611
7.1109
7.61773
8.14756
8.70151
9.28074
9.8864
10.5196
11.1814
11.8729
12.5954
13.3505
14.14
14.9659
15.8306
16.736
17.684
18.6762
19.7136
20.7971
21.9275
23.1054
24.3311
25.6053
26.9293
28.304
29.7308
31.211
32.746
34.3373
35.9864
37.6949
39.4642
41.296
43.1918
45.1532
47.1816
49.2788
51.4462
53.6856
55.9985
58.3863
60.8505
63.3925
66.0135
68.7148
71.4974
74.3624
77.3105
80.3424
83.4586
86.6594
89.9449
93.3149
96.7691
100.307
103.927
107.629
111.411
115.27
119.206
123.216
127.296
131.444
135.656
139.929
144.258
148.64
153.068
157.54
162.049
166.589
171.156
175.742
180.343
184.951
189.561
194.164
198.755
203.325
207.867
212.373
216.834
221.243
225.592
229.874
234.08
238.203
242.236
246.171
250.002
253.72
257.321
260.796
264.14
267.348
270.413
273.33
276.094
278.7
281.145
283.423
285.531
287.465
289.222
290.799
292.192
293.398
294.417
295.245
295.881
296.322
296.548
296.584
296.423
296.067
295.511
294.757
293.804
292.654
291.307
289.767
288.033
286.11
283.999
281.704
279.227
276.573
273.746
270.751
267.593
264.278
260.813
257.205
253.463
249.596
245.613
241.527
237.347
233.087
228.761
224.384
219.976
215.554
211.137
206.732
202.343
197.978
193.641
189.342
185.09
180.894
176.762
172.704
168.727
164.84
161.052
157.373
153.814
150.39
147.122
144.037
141.183
138.569
136.01
9.87922
4.50989
3.56767
3.33746
3.32903
3.4345
3.61118
3.83941
4.10882
4.41307
4.74777
5.1097
5.49647
5.90637
6.33837
6.79205
7.2675
7.76529
8.28627
8.83159
9.40255
10.0005
10.627
11.2835
11.9714
12.6923
13.4478
14.2396
15.0693
15.9386
16.8493
17.803
18.801
19.8448
20.9357
22.0748
23.2633
24.5023
25.793
27.1368
28.5351
29.9896
31.5019
33.0738
34.7071
36.4036
38.1652
39.9938
41.8915
43.8601
45.9017
48.0184
50.2121
52.4851
54.8392
57.2766
59.7992
62.4089
65.1077
67.8971
70.7789
73.7547
76.8257
79.9932
83.2581
86.6214
90.0834
93.6446
97.305
101.064
104.922
108.877
112.928
117.074
121.312
125.641
130.056
134.557
139.138
143.795
148.525
153.323
158.183
163.1
168.068
173.082
178.133
183.216
188.324
193.449
198.583
203.718
208.847
213.96
219.048
224.103
229.115
234.076
238.975
243.805
248.555
253.218
257.785
262.246
266.594
270.82
274.916
278.875
282.69
286.352
289.857
293.196
296.365
299.358
302.17
304.795
307.23
309.471
311.513
313.353
314.988
316.416
317.633
318.639
319.43
320.007
320.358
320.484
320.397
320.093
319.572
318.833
317.877
316.704
315.318
313.719
311.912
309.899
307.682
305.267
302.656
299.854
296.865
293.694
290.348
286.832
283.153
279.318
275.336
271.215
266.966
262.599
258.126
253.558
248.91
244.194
239.428
234.627
229.81
224.991
220.182
215.391
210.625
205.894
201.207
196.573
192.002
187.503
183.085
178.758
174.531
170.412
166.413
162.545
158.824
155.27
151.909
148.778
145.872
142.986
10.8491
4.95631
3.89032
3.60912
3.57467
3.66128
3.82285
4.03734
4.29329
4.58397
4.90498
5.25325
5.62656
6.0234
6.44285
6.88457
7.34869
7.83573
8.34641
8.88177
9.44323
10.0324
10.6507
11.3
11.9818
12.6978
13.4496
14.2388
15.0672
15.9364
16.848
17.8037
18.805
19.8537
20.9513
22.0993
23.2993
24.553
25.8618
27.2273
28.6515
30.1367
31.6851
33.2988
34.9801
36.7313
38.5547
40.4526
42.4276
44.482
46.6186
48.8397
51.1481
53.5463
56.037
58.6226
61.3058
64.089
66.9745
69.9646
73.0616
76.2672
79.5834
83.0117
86.5535
90.2099
93.9816
97.8692
101.873
105.992
110.227
114.576
119.038
123.611
128.292
133.08
137.97
142.959
148.043
153.217
158.476
163.814
169.226
174.704
180.243
185.833
191.468
197.14
202.84
208.558
214.287
220.016
225.736
231.436
237.107
242.737
248.316
253.834
259.279
264.643
269.913
275.081
280.136
285.068
289.868
294.527
299.034
303.382
307.562
311.567
315.388
319.019
322.454
325.686
328.709
331.52
334.112
336.482
338.625
340.54
342.222
343.668
344.878
345.849
346.581
347.07
347.306
347.303
347.06
346.577
345.854
344.894
343.696
342.263
340.599
338.707
336.59
334.254
331.702
328.938
325.968
322.797
319.43
315.874
312.134
308.218
304.134
299.889
295.492
290.953
286.283
281.493
276.594
271.6
266.524
261.381
256.187
250.957
245.709
240.458
235.216
229.993
224.8
219.646
214.542
209.497
204.522
199.627
194.822
190.115
185.517
181.038
176.688
172.48
168.429
164.556
160.882
157.439
154.208
150.975
11.632
5.32427
4.15181
3.82367
3.76394
3.83144
3.97716
4.177
4.41856
4.69475
5.00109
5.33463
5.69335
6.0759
6.48115
6.90922
7.36055
7.83601
8.33702
8.8635
9.41665
9.99789
10.6088
11.251
11.9262
12.6361
13.3825
14.167
14.9915
15.8577
16.7674
17.7226
18.7249
19.7764
20.8789
22.0344
23.2449
24.5125
25.8392
27.2274
28.6814
30.2016
31.7913
33.4534
35.1906
37.0058
38.9017
40.8813
42.9476
45.1037
47.3527
49.6977
52.1421
54.6889
57.3416
60.1031
62.9767
65.9653
69.0721
72.2996
75.6507
79.1276
82.7327
86.4679
90.3349
94.335
98.4691
102.738
107.142
111.68
116.352
121.157
126.093
131.158
136.349
141.662
147.094
152.641
158.296
164.056
169.912
175.86
181.891
187.998
194.172
200.406
206.688
213.011
219.363
225.735
232.116
238.494
244.858
251.196
257.497
263.748
269.937
276.053
282.083
288.015
293.837
299.539
305.108
310.534
315.806
320.912
325.844
330.59
335.143
339.493
343.631
347.552
351.246
354.708
357.931
360.912
363.643
366.122
368.345
370.307
372.008
373.443
374.613
375.515
376.15
376.511
376.6
376.422
375.978
375.271
374.302
373.074
371.588
369.848
367.86
365.628
363.156
360.451
357.518
354.362
350.99
347.408
343.623
339.642
335.471
331.118
326.593
321.903
317.059
312.07
306.947
301.703
296.349
290.899
285.368
279.769
274.12
268.436
262.734
257.028
251.333
245.659
240.019
234.424
228.883
223.409
218.011
212.7
207.486
202.379
197.39
192.527
187.804
183.232
178.828
174.609
170.595
166.812
163.233
159.638
12.228
5.61292
4.35279
3.98294
3.89917
3.94777
4.07729
4.26199
4.48867
4.74993
5.04116
5.35939
5.70325
6.07228
6.46559
6.88243
7.32283
7.78716
8.27579
8.78959
9.33034
9.89967
10.4992
11.1306
11.7958
12.4964
13.2344
14.0117
14.8303
15.6922
16.5996
17.5546
18.5594
19.6163
20.7277
21.8959
23.1236
24.4133
25.7675
27.1885
28.6782
30.2406
31.8803
33.6015
35.4073
37.301
39.2859
41.3656
43.5437
45.8239
48.2101
50.7061
53.3158
56.0432
58.892
61.8662
64.9695
68.2055
71.5779
75.0898
78.7444
82.5446
86.493
90.5917
94.8427
99.2473
103.807
108.521
113.391
118.416
123.595
128.926
134.406
140.034
145.805
151.716
157.761
163.935
170.232
176.645
183.167
189.79
196.505
203.302
210.173
217.106
224.091
231.117
238.171
245.243
252.318
259.385
266.43
273.44
280.401
287.3
294.123
300.856
307.485
313.999
320.382
326.623
332.709
338.627
344.366
349.913
355.257
360.388
365.296
369.971
374.404
378.587
382.512
386.173
389.563
392.677
395.511
398.059
400.318
402.285
403.958
405.335
406.416
407.199
407.684
407.87
407.759
407.351
406.652
405.666
404.396
402.845
401.018
398.919
396.555
393.931
391.056
387.934
384.574
380.982
377.165
373.132
368.89
364.447
359.81
354.988
349.991
344.827
339.508
334.042
328.443
322.722
316.892
310.966
304.96
298.888
292.767
286.613
280.442
274.269
268.11
261.975
255.879
249.832
243.845
237.931
232.099
226.361
220.727
215.208
209.813
204.554
199.443
194.492
189.715
185.132
180.758
176.615
172.67
168.706
12.6473
5.82571
4.49687
4.09119
3.98513
4.01555
4.12902
4.29857
4.51018
4.75682
5.03479
5.3406
5.67192
6.0271
6.40484
6.80594
7.23087
7.68021
8.15482
8.65616
9.18538
9.74388
10.3333
10.9553
11.6119
12.305
13.0367
13.8092
14.6247
15.4857
16.3945
17.3538
18.3662
19.4344
20.5613
21.7497
23.0028
24.3243
25.7165
27.1817
28.7217
30.3428
32.0508
33.8501
35.7458
37.7423
39.8431
42.0523
44.3744
46.8138
49.3751
52.0629
54.8818
57.8364
60.9314
64.1712
67.5601
71.1024
74.8022
78.6631
82.6886
86.8819
91.2456
95.7822
100.493
105.381
110.445
115.686
121.103
126.696
132.463
138.402
144.508
150.779
157.21
163.796
170.53
177.405
184.415
191.55
198.802
206.162
213.618
221.16
228.777
236.457
244.186
251.952
259.741
267.54
275.334
283.108
290.849
298.54
306.166
313.713
321.165
328.508
335.725
342.803
349.728
356.484
363.058
369.436
375.606
381.556
387.271
392.743
397.959
402.909
407.585
411.977
416.078
419.88
423.378
426.566
429.438
431.992
434.224
436.131
437.711
438.964
439.889
440.487
440.757
440.702
440.322
439.615
438.596
437.268
435.634
433.699
431.469
428.952
426.156
423.087
419.756
416.168
412.334
408.262
403.96
399.437
394.702
389.763
384.629
379.31
373.815
368.154
362.339
356.379
350.286
344.074
337.754
331.341
324.851
318.297
311.697
305.067
298.424
291.782
285.156
278.56
272.006
265.506
259.073
252.718
246.451
240.284
234.227
228.292
222.488
216.826
211.319
205.98
200.822
195.863
191.115
186.6
182.28
177.943
12.9059
5.97017
4.58979
4.15428
4.02812
4.04155
4.13967
4.29559
4.49503
4.72925
4.99272
5.28244
5.59736
5.9367
6.30048
6.68848
7.10096
7.53855
8.00218
8.49307
9.01256
9.56223
10.1438
10.7593
11.4106
12.1002
12.8303
13.6037
14.4227
15.2902
16.2091
17.1825
18.2138
19.3065
20.4632
21.6874
22.9823
24.35
25.7939
27.3206
28.9367
30.6472
32.4572
34.3719
36.3968
38.5379
40.7996
43.187
45.7054
48.3601
51.1566
54.1003
57.1965
60.4504
63.8673
67.4522
71.2099
75.145
79.2619
83.5643
88.056
92.7398
97.6185
102.694
107.968
113.44
119.112
124.982
131.049
137.311
143.766
150.409
157.235
164.241
171.419
178.763
186.264
193.915
201.706
209.626
217.667
225.814
234.058
242.384
250.78
259.231
267.724
276.243
284.773
293.3
301.805
310.275
318.692
327.039
335.301
343.46
351.5
359.406
367.16
374.747
382.152
389.359
396.354
403.122
409.65
415.924
421.932
427.662
433.103
438.244
443.076
447.589
451.777
455.632
459.147
462.319
465.141
467.611
469.726
471.484
472.883
473.925
474.609
474.936
474.909
474.533
473.793
472.714
471.299
469.554
467.484
465.096
462.398
459.401
456.112
452.542
448.701
444.599
440.245
435.65
430.823
425.775
420.515
415.052
409.396
403.557
397.546
391.373
385.048
378.583
371.99
365.281
358.469
351.568
344.594
337.561
330.486
323.385
316.276
309.172
302.089
295.04
288.039
281.097
274.226
267.438
260.745
254.156
247.683
241.337
235.127
229.066
223.165
217.437
211.896
206.556
201.43
196.537
191.838
187.131
12.9988
6.04586
4.63526
4.1778
4.03509
4.0353
4.1212
4.26383
4.44801
4.66677
4.91585
5.19269
5.49552
5.82344
6.17618
6.55382
6.95678
7.38581
7.84199
8.32663
8.8413
9.38775
9.96792
10.584
11.2384
11.9339
12.6733
13.4603
14.2973
15.1873
16.1339
17.1405
18.2104
19.3437
20.5474
21.8268
23.1874
24.635
26.175
27.8129
29.5551
31.4076
33.3765
35.4683
37.6899
40.0469
42.5456
45.1924
47.9937
50.9562
54.0858
57.3887
60.8707
64.5374
68.3944
72.4469
76.6998
81.1577
85.8244
90.7038
95.7986
101.111
106.643
112.396
118.37
124.564
130.976
137.606
144.449
151.503
158.761
166.219
173.871
181.708
189.723
197.907
206.25
214.741
223.369
232.122
240.987
249.951
259
268.119
277.294
286.507
295.745
304.989
314.224
323.433
332.598
341.702
350.727
359.655
368.47
377.154
385.689
394.058
402.245
410.234
418.007
425.549
432.846
439.883
446.645
453.119
459.293
465.154
470.691
475.894
480.753
485.26
489.407
493.188
496.597
499.628
502.278
504.544
506.425
507.918
509.023
509.745
510.082
510.034
509.615
508.8
507.618
506.076
504.179
501.935
499.35
496.435
493.199
489.655
485.813
481.685
477.283
472.618
467.702
462.546
457.161
451.558
445.748
439.74
433.545
427.174
420.636
413.944
407.108
400.139
393.048
385.849
378.554
371.176
363.73
356.232
348.698
341.145
333.588
326.042
318.522
311.042
303.613
296.249
288.962
281.762
274.66
267.668
260.795
254.053
247.451
241.002
234.717
228.608
222.689
216.973
211.472
206.203
201.127
196.059
12.9763
6.05973
4.63953
4.17089
4.01657
4.00397
4.0754
4.20446
4.37719
4.58547
4.82476
5.09244
5.38704
5.70781
6.05457
6.42752
6.82729
7.25484
7.7115
8.199
8.71962
9.27521
9.86784
10.5002
11.175
11.8954
12.664
13.4828
14.3555
15.2877
16.2842
17.3497
18.4897
19.7101
21.0159
22.413
23.9078
25.5075
27.2189
29.049
31.0049
33.0938
35.3232
37.7007
40.2341
42.9302
45.7968
48.8419
52.0733
55.4988
59.1249
62.9574
67.002
71.2639
75.7483
80.4596
85.4019
90.5787
95.9927
101.646
107.54
113.675
120.051
126.667
133.52
140.608
147.927
155.472
163.238
171.218
179.405
187.792
196.368
205.124
214.05
223.135
232.365
241.729
251.213
260.803
270.484
280.243
290.061
299.925
309.817
319.721
329.618
339.493
349.327
359.103
368.803
378.408
387.9
397.262
406.476
415.524
424.388
433.051
441.497
449.708
457.67
465.366
472.781
479.902
486.713
493.203
499.357
505.166
510.618
515.703
520.413
524.738
528.674
532.212
535.349
538.08
540.401
542.312
543.809
544.896
545.568
545.838
545.701
545.161
544.205
542.858
541.129
539.023
536.55
533.717
530.535
527.015
523.171
519.015
514.56
509.821
504.81
499.541
494.027
488.279
482.312
476.135
469.76
463.197
456.458
449.552
442.492
435.288
427.951
420.492
412.922
405.253
397.497
389.667
381.778
373.844
365.882
357.907
349.935
341.981
334.058
326.18
318.358
310.606
302.934
295.353
287.874
280.506
273.261
266.148
259.178
252.362
245.712
239.24
232.957
226.878
221.012
215.378
209.935
204.52
12.8897
6.04397
4.62087
4.1405
3.97285
3.9498
4.01243
4.13375
4.29961
4.50226
4.73733
5.00244
5.29647
5.61939
5.97084
6.35117
6.76137
7.20277
7.67696
8.18559
8.72994
9.31176
9.93546
10.605
11.3242
12.0976
12.9296
13.8262
14.7919
15.8323
16.9536
18.1624
19.4657
20.8712
22.3861
24.0183
25.776
27.6679
29.7029
31.8894
34.2364
36.7524
39.4462
42.3257
45.3978
48.6715
52.1563
55.8614
59.7966
63.9736
68.3952
73.0647
77.9854
83.1604
88.5923
94.2829
100.234
106.445
112.916
119.645
126.631
133.869
141.357
149.089
157.06
165.262
173.688
182.331
191.181
200.229
209.464
218.875
228.451
238.179
248.047
258.041
268.147
278.351
288.637
298.991
309.397
319.839
330.301
340.765
351.216
361.636
372.007
382.312
392.535
402.656
412.659
422.526
432.239
441.781
451.135
460.283
469.209
477.895
486.327
494.488
502.363
509.938
517.199
524.131
530.722
536.96
542.832
548.328
553.439
558.155
562.468
566.372
569.861
572.929
575.572
577.788
579.57
580.925
581.844
582.341
582.392
582.06
581.268
580.057
578.439
576.42
574.01
571.218
568.052
564.523
560.644
556.429
551.892
547.048
541.913
536.502
530.83
524.912
518.762
512.393
505.818
499.05
492.098
484.975
477.69
470.255
462.681
454.979
447.159
439.232
431.209
423.099
414.914
406.667
398.37
390.039
381.687
373.332
364.986
356.665
348.381
340.147
331.974
323.874
315.857
307.934
300.114
292.407
284.823
277.371
270.062
262.906
255.915
249.101
242.475
236.05
229.835
223.848
218.051
212.309
12.7096
5.99753
4.5768
4.09118
3.92008
3.89504
3.95713
4.08012
4.25023
4.45962
4.70419
4.98173
5.29097
5.63074
6.00141
6.40508
6.84372
7.31966
7.83562
8.39487
9.00165
9.66007
10.3745
11.1503
11.9933
12.9098
13.9071
14.9929
16.175
17.4617
18.8616
20.3844
22.0399
23.8385
25.7907
27.9071
30.1986
32.676
35.3501
38.2314
41.3298
44.6548
48.2154
52.0201
56.0761
60.391
64.9725
69.828
74.9645
80.389
86.1015
92.0986
98.3778
104.936
111.771
118.877
126.251
133.886
141.775
149.913
158.291
166.9
175.731
184.776
194.023
203.462
213.083
222.874
232.822
242.917
253.145
263.494
273.951
284.502
295.135
305.834
316.585
327.375
338.189
349.012
359.829
370.625
381.385
392.092
402.732
413.288
423.745
434.086
444.296
454.358
464.257
473.977
483.501
492.813
501.899
510.742
519.328
527.641
535.666
543.39
550.8
557.88
564.621
571.009
577.031
582.678
587.939
592.804
597.265
601.314
604.944
608.15
610.928
613.271
615.178
616.649
617.67
618.266
618.404
618.14
617.416
616.256
614.673
612.672
610.263
607.456
604.259
600.684
596.741
592.443
587.803
582.839
577.565
571.999
566.157
560.058
553.717
547.15
540.371
533.396
526.236
518.904
511.411
503.766
495.981
488.065
480.03
471.888
463.647
455.317
446.907
438.426
429.885
421.293
412.663
404.009
395.345
386.684
378.041
369.429
360.858
352.341
343.888
335.51
327.217
319.017
310.92
302.934
295.068
287.331
279.734
272.287
265
257.885
250.953
244.217
237.685
231.377
225.252
219.214
12.5019
5.91588
4.51788
4.04339
3.88152
3.8676
3.94298
4.08088
4.26599
4.49344
4.7604
5.0657
5.40948
5.79326
6.21863
6.68821
7.20554
7.7749
8.40131
9.09059
9.84952
10.6855
11.6065
12.6212
13.7393
14.9712
16.3285
17.8233
19.4685
21.2771
23.2626
25.4387
27.8192
30.4182
33.2494
36.3257
39.6594
43.2619
47.144
51.3153
55.7829
60.5526
65.6295
71.0184
76.7204
82.7358
89.0655
95.7118
102.674
109.944
117.503
125.342
133.447
141.808
150.413
159.249
168.305
177.567
187.023
196.662
206.47
216.435
226.545
236.787
247.151
257.623
268.192
278.847
289.575
300.365
311.207
322.087
332.995
343.919
354.847
365.767
376.668
387.538
398.364
409.135
419.838
430.46
440.989
451.411
461.715
471.886
481.912
491.778
501.472
510.98
520.289
529.384
538.251
546.878
555.251
563.356
571.18
578.71
585.933
592.836
599.409
605.639
611.516
617.029
622.167
626.92
631.28
635.239
638.791
641.925
644.636
646.924
648.786
650.21
651.199
651.763
651.853
651.567