/*--------------------------------*- C++ -*----------------------------------*\
  =========                 |
  \\      /  F ield         | OpenFOAM: The Open Source CFD Toolbox
   \\    /   O peration     | Website:  https://openfoam.org
    \\  /    A nd           | Version:  9
     \\/     M anipulation  |
\*---------------------------------------------------------------------------*/
FoamFile
{
    format      ascii;
    class       volScalarField;
    location    "225";
    object      k;
}
// * * * * * * * * * * * * * * * * * * * * * * * * * * * * * * * * * * * * * //

dimensions      [0 2 -2 0 0 0 0];

internalField   nonuniform List<scalar> 
12225
(
0.362827
0.343994
0.327748
0.309816
0.295404
0.283477
0.275519
0.270282
0.27034
0.271879
0.27606
0.280697
0.289859
0.295726
0.306793
0.312752
0.325282
0.327506
0.440271
0.468738
0.461615
0.448372
0.450345
0.458317
0.474556
0.49852
0.524413
0.552095
0.58077
0.606139
0.633869
0.653856
0.679813
0.693043
0.718343
0.724538
0.390407
0.41786
0.420244
0.41683
0.411634
0.407803
0.408018
0.410037
0.414563
0.421387
0.430734
0.439706
0.451189
0.461152
0.472853
0.483557
0.493578
0.505958
0.377043
0.387169
0.391466
0.391343
0.39026
0.387883
0.385661
0.384079
0.382883
0.382897
0.383357
0.384381
0.386278
0.388464
0.390913
0.394249
0.396556
0.400991
0.374434
0.376094
0.378427
0.378666
0.378275
0.377201
0.375488
0.373737
0.37201
0.370455
0.369256
0.368109
0.367381
0.366805
0.366443
0.366338
0.366358
0.366709
0.373779
0.372704
0.372659
0.372365
0.371772
0.370818
0.369554
0.368082
0.366571
0.364976
0.363528
0.362063
0.360755
0.359529
0.358397
0.357427
0.356441
0.355785
0.373775
0.37174
0.370388
0.369284
0.368235
0.367114
0.365915
0.364587
0.363238
0.361808
0.360422
0.359024
0.357678
0.356383
0.355121
0.353967
0.352794
0.351804
0.373818
0.371559
0.369635
0.367976
0.366501
0.365108
0.363775
0.362429
0.361107
0.359766
0.358451
0.357144
0.355863
0.354623
0.353401
0.35225
0.351099
0.350053
0.373832
0.371553
0.369449
0.367525
0.365777
0.364153
0.362645
0.361199
0.359817
0.358473
0.35717
0.355903
0.354667
0.353475
0.352308
0.351196
0.350097
0.349073
0.373831
0.37156
0.369418
0.367405
0.365529
0.363772
0.362133
0.360585
0.359122
0.357728
0.356395
0.355118
0.353888
0.35271
0.35157
0.350482
0.34942
0.348421
0.373829
0.37156
0.369413
0.367378
0.365458
0.363645
0.361937
0.360324
0.358799
0.357353
0.355979
0.354672
0.353424
0.352235
0.351094
0.350009
0.348959
0.347969
0.373828
0.371558
0.369409
0.36737
0.365439
0.363609
0.361875
0.360234
0.358677
0.357201
0.3558
0.354468
0.3532
0.351995
0.350842
0.349747
0.348695
0.347701
0.373827
0.371556
0.369405
0.367365
0.36543
0.363593
0.361851
0.360197
0.358626
0.357134
0.355715
0.354368
0.353084
0.351864
0.3507
0.349594
0.348535
0.347532
0.373826
0.371555
0.369401
0.367359
0.365422
0.363583
0.361837
0.360178
0.3586
0.357101
0.355674
0.354317
0.353024
0.351794
0.350622
0.349506
0.34844
0.347427
0.373826
0.371553
0.369398
0.367355
0.365416
0.363575
0.361826
0.360164
0.358584
0.357081
0.355651
0.354289
0.352993
0.351758
0.35058
0.349458
0.348388
0.347368
0.373826
0.371552
0.369396
0.367351
0.36541
0.363567
0.361817
0.360153
0.358572
0.357067
0.355634
0.354271
0.352971
0.351734
0.350554
0.349429
0.348356
0.347333
0.373825
0.371551
0.369394
0.367348
0.365406
0.363562
0.36181
0.360145
0.358562
0.357055
0.355621
0.354256
0.352955
0.351716
0.350534
0.349408
0.348333
0.347308
0.373825
0.371551
0.369393
0.367346
0.365403
0.363558
0.361805
0.360139
0.358555
0.357047
0.355612
0.354245
0.352943
0.351703
0.35052
0.349392
0.348316
0.34729
0.373825
0.37155
0.369393
0.367346
0.365402
0.363557
0.361804
0.360137
0.358552
0.357043
0.355608
0.35424
0.352938
0.351697
0.350513
0.349384
0.348308
0.34728
0.373825
0.371551
0.369393
0.367347
0.365404
0.363559
0.361806
0.36014
0.358555
0.357047
0.355611
0.354244
0.352942
0.3517
0.350517
0.349388
0.348312
0.347285
0.373825
0.371551
0.369395
0.367349
0.365407
0.363563
0.361811
0.360146
0.358562
0.357055
0.355621
0.354255
0.352955
0.351715
0.350534
0.349407
0.348333
0.347307
0.373826
0.371552
0.369397
0.367352
0.365412
0.363571
0.361822
0.360161
0.358583
0.357083
0.355656
0.354298
0.353006
0.351775
0.350602
0.349483
0.348417
0.347398
0.373826
0.371554
0.369399
0.367359
0.365429
0.363602
0.361875
0.36024
0.358691
0.35722
0.355823
0.354493
0.353227
0.352018
0.350866
0.349763
0.348711
0.3477
0.373828
0.371551
0.369412
0.367417
0.365556
0.363819
0.362189
0.360651
0.359189
0.357793
0.356456
0.355171
0.353936
0.352745
0.3516
0.350495
0.349436
0.34841
0.373823
0.371554
0.369604
0.367893
0.366339
0.364892
0.363495
0.362122
0.360761
0.359413
0.358081
0.35677
0.355488
0.354238
0.353029
0.351855
0.350734
0.349645
0.373781
0.37199
0.371113
0.370265
0.36936
0.368311
0.367048
0.36563
0.364121
0.362575
0.36103
0.359522
0.358073
0.356682
0.355381
0.354141
0.353009
0.351924
0.374297
0.375564
0.377778
0.377858
0.377291
0.375886
0.373835
0.371641
0.369505
0.367482
0.365664
0.364084
0.36271
0.361535
0.36061
0.359818
0.359289
0.358801
0.378732
0.394394
0.398293
0.396565
0.392558
0.387608
0.383641
0.380455
0.378266
0.376851
0.376497
0.37675
0.377399
0.378697
0.380442
0.382422
0.384827
0.387137
0.408344
0.427539
0.422424
0.411051
0.402227
0.397924
0.398557
0.401117
0.405986
0.413039
0.420996
0.429829
0.438836
0.448192
0.457307
0.466554
0.475322
0.484182
0.366033
0.353412
0.341988
0.33021
0.318982
0.308382
0.299409
0.291674
0.285403
0.280333
0.276682
0.273867
0.27231
0.271184
0.271176
0.271521
0.272155
0.273386
0.00101627
0.00533586
0.00970511
0.0137499
0.0180072
0.022704
0.0279444
0.0337591
0.0400744
0.0467489
0.0536148
0.0605085
0.0672775
0.0737856
0.079907
0.0855343
0.0905791
0.094994
0.0987829
0.102033
0.104551
0.106521
0.109454
0.1126
0.116542
0.12024
0.127278
0.132665
0.137912
0.14274
0.146914
0.150111
0.151964
0.152046
0.15047
0.147834
0.142141
0.136671
0.142484
0.148759
0.16015
0.16567
0.174041
0.181582
0.189678
0.197822
0.206171
0.214676
0.223344
0.232175
0.241167
0.250321
0.259635
0.26911
0.278745
0.288539
0.298491
0.3086
0.318863
0.329279
0.339844
0.350556
0.36141
0.372403
0.383529
0.394785
0.406163
0.417659
0.429265
0.440975
0.45278
0.464675
0.476648
0.488693
0.500799
0.512958
0.525158
0.537392
0.549646
0.561912
0.574176
0.58643
0.598657
0.610852
0.622995
0.635079
0.647084
0.659003
0.670814
0.682507
0.694058
0.705449
0.716656
0.727656
0.738429
0.748961
0.759262
0.769395
0.779326
0.789012
0.798471
0.807686
0.816651
0.825354
0.833784
0.841933
0.84979
0.857349
0.8646
0.871537
0.878149
0.884433
0.890375
0.895975
0.90122
0.906108
0.910629
0.91478
0.918554
0.92195
0.924956
0.927568
0.929773
0.93157
0.932946
0.933896
0.934383
0.934267
0.934198
0.933747
0.932466
0.930747
0.928621
0.926142
0.923172
0.919784
0.915946
0.911669
0.906951
0.901788
0.896172
0.890099
0.883574
0.876604
0.869193
0.861351
0.853086
0.84441
0.835337
0.825881
0.81606
0.805895
0.795406
0.784622
0.773571
0.762291
0.750838
0.739342
0.728652
0.721271
0.714773
0.708211
0.701507
0.694674
0.687733
0.68071
0.673631
0.666518
0.659395
0.652283
0.645198
0.638155
0.631167
0.624176
0.617184
0.610161
0.602973
0.595065
0.586414
0.557951
0.00479041
0.0174018
0.0256698
0.0319733
0.0376659
0.0433731
0.0494073
0.0558764
0.0627556
0.0699452
0.0773143
0.0847285
0.0920603
0.0991944
0.106027
0.11247
0.118454
0.123945
0.128955
0.133558
0.137891
0.142234
0.147021
0.152573
0.159155
0.166539
0.174007
0.181338
0.188739
0.196151
0.203497
0.210613
0.217477
0.223877
0.230836
0.240221
0.252829
0.263554
0.275524
0.289413
0.302159
0.314366
0.327422
0.34076
0.354463
0.368477
0.382814
0.397465
0.41243
0.427709
0.443303
0.459213
0.47544
0.491987
0.508854
0.526043
0.543554
0.561387
0.579542
0.598018
0.616813
0.635926
0.655352
0.675088
0.695129
0.71547
0.736104
0.757023
0.77822
0.799685
0.821409
0.84338
0.865586
0.888016
0.910654
0.933488
0.956499
0.979675
1.003
1.02645
1.05001
1.07366
1.09738
1.12115
1.14496
1.16877
1.19256
1.21632
1.24002
1.26362
1.28711
1.31045
1.33361
1.35654
1.37921
1.40157
1.42354
1.44506
1.4662
1.48703
1.50753
1.52769
1.54748
1.56689
1.5859
1.60448
1.62262
1.6403
1.6575
1.6742
1.6904
1.70607
1.72119
1.73576
1.74975
1.76315
1.77594
1.78811
1.79965
1.81055
1.82078
1.83033
1.83918
1.84731
1.85472
1.86139
1.86731
1.87246
1.87692
1.88061
1.88339
1.88512
1.88601
1.88622
1.88552
1.88398
1.88156
1.87823
1.874
1.86885
1.86277
1.85575
1.84779
1.83889
1.82906
1.81829
1.8066
1.79401
1.78053
1.76618
1.75098
1.73499
1.71821
1.70071
1.68252
1.6637
1.64432
1.62448
1.60445
1.58457
1.56449
1.54409
1.52342
1.50256
1.48157
1.46052
1.43946
1.41846
1.39756
1.37683
1.35629
1.336
1.31599
1.29618
1.27662
1.25736
1.23826
1.21932
1.2003
1.15809
0.0098498
0.0290416
0.0398142
0.0478946
0.0550861
0.0620631
0.0691517
0.0764969
0.0841275
0.0920002
0.100034
0.108135
0.116211
0.124179
0.131967
0.139518
0.146801
0.153818
0.160617
0.16731
0.174081
0.181187
0.188884
0.197343
0.206591
0.216424
0.226611
0.236964
0.247546
0.258394
0.269467
0.280776
0.292393
0.304492
0.317678
0.331772
0.346709
0.361885
0.377594
0.393699
0.410017
0.426566
0.443535
0.460902
0.478665
0.496815
0.515352
0.534275
0.553583
0.573277
0.593358
0.613827
0.634685
0.655933
0.677572
0.699602
0.722023
0.744834
0.768034
0.79162
0.81559
0.83994
0.864665
0.88976
0.915219
0.941034
0.967197
0.993697
1.02053
1.04767
1.07512
1.10286
1.13087
1.15914
1.18766
1.2164
1.24535
1.27448
1.30377
1.33321
1.36277
1.39243
1.42216
1.45193
1.48172
1.51151
1.54126
1.57095
1.60054
1.63001
1.65932
1.68845
1.71736
1.74601
1.77437
1.80242
1.83012
1.85746
1.88444
1.91102
1.93718
1.9629
1.98815
2.0129
2.03712
2.06079
2.08389
2.10638
2.12825
2.14948
2.17005
2.18992
2.20909
2.22754
2.24523
2.26216
2.27831
2.29365
2.30817
2.32186
2.33468
2.34663
2.35768
2.36782
2.37702
2.38527
2.39256
2.39888
2.40422
2.40853
2.41175
2.41369
2.41453
2.41445
2.41326
2.41096
2.40752
2.40295
2.39722
2.39032
2.38226
2.373
2.36257
2.35095
2.33815
2.32418
2.30906
2.2928
2.27542
2.25695
2.23743
2.21689
2.19539
2.17297
2.1497
2.12563
2.10085
2.07549
2.04977
2.02385
1.99761
1.97102
1.94413
1.91701
1.88975
1.86243
1.83512
1.8079
1.78084
1.75399
1.72743
1.70121
1.67538
1.64996
1.62501
1.60057
1.57664
1.55333
1.53014
1.49297
0.0153132
0.0397577
0.0528551
0.0624601
0.0708147
0.0787324
0.0866004
0.0946092
0.102833
0.111274
0.11989
0.128622
0.137405
0.146182
0.154906
0.163546
0.172094
0.180571
0.189036
0.197592
0.206383
0.215576
0.225324
0.235726
0.246796
0.258438
0.270544
0.283045
0.295949
0.309263
0.323001
0.33719
0.351885
0.367185
0.383205
0.399888
0.417194
0.434996
0.45325
0.471906
0.490941
0.510342
0.530152
0.550386
0.57105
0.592145
0.613675
0.635641
0.658045
0.680889
0.704176
0.727908
0.752086
0.776711
0.801787
0.827312
0.853287
0.879712
0.906585
0.933905
0.961668
0.989871
1.01851
1.04758
1.07707
1.10697
1.13728
1.16799
1.19907
1.23053
1.26235
1.2945
1.32698
1.35977
1.39284
1.42618
1.45977
1.49357
1.52758
1.56175
1.59607
1.63051
1.66503
1.69961
1.73422
1.76883
1.8034
1.8379
1.87229
1.90655
1.94064
1.97452
2.00816
2.04153
2.07459
2.1073
2.13965
2.17159
2.2031
2.23415
2.26469
2.2947
2.32414
2.35298
2.38119
2.40873
2.43559
2.46172
2.4871
2.5117
2.53551
2.55849
2.58062
2.60187
2.62223
2.64168
2.66018
2.67773
2.6943
2.70986
2.72441
2.73792
2.75037
2.76173
2.77199
2.78114
2.78915
2.79602
2.80173
2.80621
2.80943
2.81119
2.81176
2.81115
2.80926
2.80608
2.8016
2.79579
2.78865
2.78016
2.77033
2.75915
2.74661
2.73271
2.71747
2.70088
2.68298
2.66378
2.6433
2.62158
2.59866
2.57459
2.54941
2.52318
2.49598
2.46789
2.43901
2.40946
2.37941
2.34899
2.31819
2.287
2.25549
2.22374
2.19184
2.15988
2.12795
2.09614
2.06451
2.03316
2.00215
1.97157
1.94147
1.91193
1.88302
1.85485
1.82748
1.80112
1.7751
1.74051
0.0206424
0.0496162
0.0648348
0.075848
0.0852564
0.0939967
0.102524
0.111077
0.119775
0.128664
0.13774
0.146979
0.156343
0.165798
0.175316
0.184883
0.194504
0.204205
0.214038
0.224082
0.234437
0.245214
0.25651
0.268394
0.28089
0.293976
0.307612
0.321765
0.336429
0.351606
0.3673
0.383524
0.400305
0.417678
0.435667
0.454261
0.473435
0.493143
0.513341
0.534001
0.555109
0.576661
0.598669
0.621141
0.644087
0.667511
0.691417
0.715811
0.740696
0.766076
0.791955
0.818336
0.845223
0.872617
0.900522
0.928938
0.957868
0.987311
1.01727
1.04774
1.07871
1.1102
1.14218
1.17466
1.20763
1.24109
1.27501
1.3094
1.34423
1.3795
1.41518
1.45127
1.48775
1.52458
1.56176
1.59926
1.63705
1.67511
1.71341
1.75192
1.79061
1.82945
1.8684
1.90743
1.94651
1.9856
2.02465
2.06364
2.10253
2.14127
2.17983
2.21816
2.25623
2.29401
2.33144
2.36848
2.40511
2.44127
2.47693
2.51205
2.54658
2.58049
2.61374
2.64629
2.6781
2.70914
2.73936
2.76875
2.79726
2.82487
2.85154
2.87725
2.90197
2.92567
2.94833
2.96993
2.99045
3.00985
3.02812
3.04524
3.06119
3.07594
3.08947
3.10177
3.11282
3.12259
3.13108
3.13827
3.14412
3.14862
3.15166
3.15311
3.15329
3.15208
3.14943
3.14535
3.1398
3.13279
3.12429
3.11432
3.10285
3.08989
3.07544
3.05949
3.04206
3.02316
3.0028
2.98101
2.95783
2.93327
2.90739
2.88025
2.85189
2.82238
2.79181
2.76027
2.72785
2.6947
2.66094
2.62669
2.59199
2.55687
2.52141
2.48569
2.44982
2.41388
2.37798
2.34221
2.30667
2.27143
2.23659
2.20224
2.16847
2.13537
2.10306
2.07166
2.04134
2.01231
1.98387
1.94983
0.0256436
0.058469
0.0755857
0.0878885
0.0982661
0.107758
0.116879
0.12591
0.135009
0.14426
0.153696
0.163323
0.173132
0.183108
0.193242
0.203533
0.21399
0.224642
0.235529
0.246711
0.258259
0.270248
0.282747
0.295811
0.309465
0.323716
0.338556
0.353974
0.369964
0.386524
0.403655
0.421363
0.439657
0.458545
0.478031
0.498108
0.518763
0.539973
0.561716
0.583977
0.606748
0.630025
0.653813
0.678118
0.702946
0.728304
0.754199
0.780636
0.80762
0.835159
0.863257
0.891919
0.92115
0.950954
0.981335
1.0123
1.04384
1.07597
1.10868
1.14198
1.17586
1.21032
1.24536
1.28097
1.31715
1.35389
1.39117
1.42899
1.46734
1.50619
1.54553
1.58535
1.62562
1.66633
1.70744
1.74893
1.79077
1.83293
1.87539
1.9181
1.96104
2.00417
2.04744
2.09082
2.13427
2.17775
2.22121
2.26461
2.30791
2.35106
2.39401
2.43672
2.47914
2.52123
2.56293
2.60421
2.645
2.68526
2.72495
2.76401
2.80241
2.84009
2.87701
2.91313
2.9484
2.98279
3.01624
3.04873
3.08021
3.11066
3.14003
3.16831
3.19545
3.22142
3.24621
3.26979
3.29212
3.3132
3.33299
3.35148
3.36864
3.38445
3.3989
3.41196
3.42362
3.43386
3.44266
3.45002
3.45589
3.46027
3.46302
3.46414
3.46379
3.46191
3.45846
3.45343
3.44682
3.43861
3.4288
3.41738
3.40435
3.38972
3.37346
3.35561
3.33615
3.31511
3.29251
3.26836
3.2427
3.21557
3.18702
3.15711
3.12588
3.09343
3.05984
3.0252
2.98961
2.9532
2.91611
2.87843
2.84023
2.80158
2.76256
2.72326
2.68379
2.64425
2.60475
2.56539
2.52626
2.48748
2.44913
2.41133
2.37419
2.33781
2.30235
2.26797
2.23488
2.20327
2.17248
2.13764
0.0301792
0.066223
0.0849891
0.0984354
0.109684
0.119858
0.129517
0.138976
0.148425
0.157977
0.167697
0.177618
0.187756
0.198117
0.208706
0.219533
0.230613
0.241972
0.253647
0.265681
0.278127
0.291038
0.304465
0.31845
0.333019
0.348191
0.36397
0.380358
0.397352
0.414952
0.433156
0.451967
0.471384
0.49141
0.512041
0.533276
0.555107
0.577523
0.600516
0.624078
0.648206
0.672898
0.698158
0.723992
0.750405
0.777405
0.804999
0.833197
0.862004
0.89143
0.92148
0.952163
0.983484
1.01545
1.04807
1.08134
1.11527
1.14987
1.18513
1.22105
1.25765
1.29491
1.33283
1.37141
1.41064
1.45051
1.49102
1.53215
1.57389
1.61622
1.65913
1.70259
1.74658
1.79108
1.83605
1.88148
1.92733
1.97356
2.02014
2.06703
2.1142
2.16159
2.20917
2.2569
2.30472
2.35258
2.40045
2.44826
2.49597
2.54352
2.59086
2.63794
2.6847
2.73109
2.77705
2.82252
2.86745
2.91178
2.95546
2.99844
3.04065
3.08206
3.1226
3.16223
3.2009
3.23856
3.27516
3.31067
3.34504
3.37824
3.41022
3.44095
3.4704
3.49854
3.52533
3.55076
3.57479
3.59741
3.61859
3.6383
3.65654
3.67327
3.68849
3.70217
3.71431
3.72487
3.73387
3.74126
3.74704
3.7512
3.75356
3.75426
3.75331
3.75069
3.74638
3.74037
3.73267
3.72327
3.71215
3.69933
3.68479
3.66854
3.65058
3.63092
3.60957
3.58653
3.56183
3.5355
3.50757
3.47809
3.44709
3.41464
3.38082
3.34569
3.30934
3.27186
3.23338
3.19401
3.15386
3.11305
3.07167
3.02979
2.9875
2.94491
2.90212
2.85924
2.8164
2.77369
2.73123
2.68912
2.64748
2.60643
2.56609
2.52661
2.48814
2.45088
2.41506
2.38087
2.34766
2.31161
0.0341519
0.0728232
0.0929772
0.1074
0.119404
0.130177
0.140314
0.150154
0.159909
0.169717
0.179665
0.189811
0.200191
0.210829
0.221744
0.232954
0.244482
0.256352
0.268597
0.281252
0.294356
0.30795
0.322072
0.336754
0.352023
0.367896
0.384385
0.401496
0.419232
0.437595
0.456585
0.476204
0.496451
0.517326
0.53883
0.560961
0.583718
0.607098
0.631098
0.655717
0.680955
0.706816
0.733302
0.760421
0.788181
0.816591
0.845659
0.875396
0.905811
0.936914
0.968714
1.00122
1.03444
1.06839
1.10307
1.13849
1.17465
1.21156
1.24923
1.28765
1.32683
1.36677
1.40747
1.44892
1.49112
1.53405
1.57771
1.62209
1.66717
1.71293
1.75935
1.80642
1.8541
1.90238
1.95121
2.00056
2.05041
2.10071
2.15142
2.2025
2.2539
2.30558
2.35749
2.40957
2.46178
2.51405
2.56634
2.61857
2.67071
2.72267
2.77441
2.82587
2.87697
2.92765
2.97786
3.02752
3.07657
3.12495
3.17259
3.21945
3.26545
3.31053
3.35465
3.39773
3.43974
3.48061
3.5203
3.55876
3.59593
3.63179
3.66628
3.69937
3.73102
3.76121
3.78989
3.81705
3.84265
3.86668
3.88911
3.90992
3.92909
3.9466
3.96245
3.97661
3.98908
3.99984
4.00888
4.01619
4.02176
4.02557
4.02748
4.02763
4.02599
4.02255
4.01733
4.0103
4.00148
3.99086
3.97845
3.96424
3.94823
3.93042
3.91083
3.88946
3.86631
3.84141
3.81477
3.78643
3.75641
3.72477
3.69154
3.65679
3.62059
3.58302
3.54416
3.50412
3.46299
3.42091
3.37798
3.33431
3.29001
3.24517
3.19987
3.15424
3.10838
3.06241
3.01644
2.9706
2.925
2.87977
2.83501
2.79087
2.74748
2.705
2.66361
2.62353
2.58498
2.54815
2.51242
2.47466
0.0375044
0.0782608
0.0995394
0.114762
0.127392
0.138673
0.149219
0.159387
0.169406
0.179428
0.189562
0.19988
0.210436
0.221269
0.23241
0.243884
0.255718
0.26794
0.280577
0.293662
0.307224
0.321296
0.335908
0.351086
0.366853
0.383226
0.40022
0.417843
0.436103
0.455004
0.47455
0.494744
0.515588
0.537086
0.55924
0.582053
0.605526
0.629663
0.654465
0.679937
0.706083
0.732908
0.76042
0.788628
0.817542
0.847173
0.877532
0.908633
0.940485
0.973103
1.0065
1.04068
1.07566
1.11146
1.14807
1.18552
1.2238
1.26293
1.30291
1.34374
1.38544
1.42799
1.4714
1.51567
1.56078
1.60673
1.65352
1.70111
1.74951
1.79869
1.84863
1.8993
1.95068
2.00273
2.05542
2.10871
2.16257
2.21695
2.2718
2.32708
2.38274
2.43872
2.49496
2.55141
2.60801
2.66469
2.7214
2.77806
2.8346
2.89097
2.94709
3.00289
3.0583
3.11325
3.16766
3.22147
3.27459
3.32696
3.37851
3.42918
3.47889
3.52758
3.57519
3.62164
3.6669
3.71088
3.75355
3.79483
3.8347
3.87309
3.90997
3.94528
3.97901
4.0111
4.04153
4.07027
4.09729
4.12257
4.14609
4.16783
4.18778
4.20592
4.22223
4.23672
4.24936
4.26016
4.2691
4.27619
4.2814
4.28472
4.28608
4.28556
4.28313
4.27879
4.27257
4.26447
4.25449
4.24263
4.22891
4.21332
4.19587
4.17656
4.15541
4.13241
4.10759
4.08096
4.05254
4.02235
3.99043
3.95683
3.92158
3.88476
3.84643
3.80666
3.76555
3.72318
3.67968
3.63514
3.5897
3.54345
3.49651
3.44897
3.40093
3.35252
3.30383
3.255
3.20615
3.1574
3.10886
3.06068
3.01298
2.96589
2.91958
2.87421
2.82999
2.78712
2.74584
2.70632
2.66796
2.62811
0.0402102
0.0825608
0.10471
0.120558
0.133684
0.145372
0.156251
0.16669
0.176926
0.187124
0.197403
0.20785
0.218529
0.229492
0.240778
0.252419
0.264446
0.276888
0.289772
0.303126
0.316978
0.331354
0.346277
0.361772
0.377858
0.394554
0.411872
0.429826
0.448425
0.467678
0.487591
0.508172
0.529427
0.551362
0.573983
0.597298
0.621312
0.646032
0.671467
0.697623
0.724509
0.752136
0.780514
0.809654
0.839571
0.870277
0.901788
0.934119
0.967283
1.0013
1.03617
1.07193
1.10858
1.14613
1.1846
1.224
1.26434
1.30563
1.34787
1.39108
1.43525
1.48039
1.5265
1.57356
1.62159
1.67055
1.72046
1.77128
1.82301
1.87562
1.92908
1.98336
2.03845
2.09429
2.15085
2.2081
2.26597
2.32444
2.38343
2.44291
2.50281
2.56307
2.62363
2.68443
2.74539
2.80644
2.86752
2.92855
2.98945
3.05016
3.11058
3.17065
3.23028
3.28939
3.3479
3.40574
3.46282
3.51906
3.5744
3.62874
3.68202
3.73417
3.78512
3.8348
3.88313
3.93007
3.97554
4.01949
4.06187
4.10262
4.14169
4.17905
4.21466
4.24846
4.28045
4.31057
4.33882
4.36516
4.38958
4.41206
4.43259
4.45115
4.46774
4.48235
4.49499
4.50565
4.51432
4.52101
4.52571
4.52841
4.52908
4.52775
4.5244
4.51906
4.51176
4.5025
4.49131
4.47819
4.46314
4.44619
4.42733
4.40657
4.38393
4.35942
4.33304
4.30482
4.27477
4.24292
4.2093
4.17395
4.13692
4.09826
4.05805
4.01634
3.97324
3.92884
3.88323
3.83654
3.78887
3.74033
3.69104
3.6411
3.59061
3.53968
3.48845
3.43702
3.38553
3.3341
3.28285
3.23193
3.18146
3.13161
3.08252
3.03439
2.98741
2.94182
2.89782
2.85558
2.81453
2.77236
0.0422698
0.0857799
0.108567
0.124875
0.13837
0.150365
0.161497
0.172143
0.182545
0.192875
0.203258
0.213791
0.224546
0.235582
0.246945
0.258675
0.270803
0.283361
0.296375
0.309871
0.323874
0.338406
0.353491
0.369149
0.3854
0.402262
0.41975
0.437879
0.456663
0.476112
0.496239
0.517054
0.538567
0.560788
0.58373
0.607401
0.631814
0.65698
0.682913
0.709625
0.737128
0.765436
0.794562
0.824524
0.855338
0.887023
0.919595
0.953072
0.987474
1.02282
1.05912
1.0964
1.13467
1.17394
1.21425
1.25558
1.29797
1.34142
1.38593
1.43152
1.47818
1.52592
1.57475
1.62464
1.6756
1.72762
1.78068
1.83476
1.88985
1.94591
2.00292
2.06084
2.11965
2.17929
2.23973
2.30092
2.36281
2.42533
2.48845
2.55208
2.61617
2.68066
2.74546
2.81052
2.87574
2.94106
3.0064
3.07167
3.13679
3.20167
3.26624
3.3304
3.39407
3.45716
3.51959
3.58125
3.64208
3.70197
3.76086
3.81865
3.87527
3.93064
3.98469
4.03733
4.0885
4.13813
4.18616
4.23251
4.27714
4.31999
4.36101
4.40016
4.43738
4.47265
4.50593
4.53719
4.56641
4.59356
4.61863
4.6416
4.66247
4.68122
4.69786
4.71238
4.72479
4.73509
4.74329
4.7494
4.75341
4.75533
4.75514
4.75286
4.74843
4.74197
4.73349
4.72302
4.71056
4.69614
4.67976
4.66146
4.64123
4.61909
4.59505
4.56912
4.54133
4.51167
4.48017
4.44685
4.41174
4.37488
4.33631
4.29608
4.25426
4.21091
4.16612
4.11997
4.07258
4.02404
3.97446
3.92397
3.87265
3.82063
3.768
3.71489
3.66141
3.60768
3.55383
3.49999
3.44628
3.39286
3.33985
3.28743
3.23574
3.18499
3.13538
3.08713
3.04046
2.99552
2.95177
2.9072
0.0437182
0.0880166
0.11122
0.127837
0.141581
0.153783
0.165087
0.175872
0.186384
0.196797
0.207241
0.217819
0.228608
0.239671
0.251058
0.26281
0.274963
0.287548
0.300592
0.31412
0.328156
0.342722
0.357841
0.373533
0.389819
0.406718
0.424249
0.442428
0.461273
0.480798
0.50102
0.521954
0.543614
0.566016
0.589173
0.613102
0.637818
0.66334
0.689685
0.716871
0.744915
0.773835
0.803649
0.83438
0.866047
0.898672
0.932278
0.966886
1.00252
1.03919
1.07693
1.11575
1.15567
1.19671
1.23889
1.28221
1.3267
1.37237
1.41922
1.46726
1.51649
1.56692
1.61854
1.67134
1.72531
1.78045
1.83673
1.89412
1.95262
2.01218
2.07277
2.13435
2.19689
2.26033
2.32462
2.38972
2.45556
2.52209
2.58923
2.65692
2.72509
2.79366
2.86255
2.93169
3.001
3.07038
3.13975
3.20902
3.27811
3.34691
3.41534
3.48331
3.55072
3.61747
3.68348
3.74864
3.81287
3.87608
3.93817
3.99905
4.05865
4.11688
4.17366
4.2289
4.28254
4.3345
4.38472
4.43312
4.47964
4.52423
4.56685
4.60743
4.64593
4.68232
4.71657
4.74864
4.77851
4.80616
4.83157
4.85474
4.87565
4.89431
4.91072
4.92489
4.93682
4.94653
4.95403
4.95934
4.96246
4.96341
4.96221
4.95876
4.95314
4.94544
4.93569
4.92392
4.91015
4.8944
4.8767
4.85706
4.83551
4.81207
4.78673
4.75952
4.73045
4.69953
4.66678
4.63221
4.59586
4.55774
4.51791
4.47641
4.43328
4.3886
4.34245
4.2949
4.24607
4.19604
4.14492
4.09283
4.03986
3.98612
3.93171
3.87676
3.82138
3.76569
3.70981
3.65387
3.59801
3.54236
3.48707
3.43231
3.37824
3.32505
3.27296
3.22219
3.17294
3.12536
3.07896
3.03198
0.0446108
0.0893713
0.1128
0.129588
0.14347
0.155786
0.167182
0.178037
0.188601
0.19905
0.209513
0.220094
0.230872
0.241911
0.253264
0.264977
0.277085
0.289623
0.302618
0.316098
0.330077
0.344581
0.359634
0.37526
0.391483
0.408323
0.425803
0.443943
0.462765
0.482288
0.502533
0.52352
0.545269
0.567799
0.591129
0.615277
0.640259
0.666105
0.692838
0.720482
0.749059
0.778594
0.809112
0.840638
0.873197
0.906816
0.941519
0.977332
1.01428
1.05238
1.09166
1.13214
1.17384
1.21678
1.26097
1.30643
1.35318
1.40122
1.45056
1.50121
1.55316
1.60642
1.66097
1.71681
1.77392
1.83228
1.89187
1.95267
2.01463
2.07773
2.14193
2.20717
2.27341
2.34061
2.40869
2.4776
2.54728
2.61765
2.68865
2.76019
2.83221
2.90461
2.97732
3.05025
3.12331
3.1964
3.26944
3.34233
3.41498
3.48728
3.55914
3.63046
3.70114
3.77108
3.84019
3.90836
3.97549
4.0415
4.10629
4.16976
4.23183
4.2924
4.3514
4.40874
4.46435
4.51814
4.57005
4.62001
4.66795
4.71382
4.75756
4.79912
4.83847
4.87556
4.91035
4.94282
4.97295
5.00072
5.02611
5.04912
5.06974
5.08798
5.10384
5.11735
5.12852
5.13736
5.14391
5.14819
5.15021
5.15
5.14759
5.14279
5.13585
5.1268
5.1157
5.10257
5.08744
5.07036
5.05134
5.03042
5.00763
4.98297
4.95646
4.92812
4.89795
4.86597
4.83219
4.79663
4.7593
4.72023
4.67944
4.63699
4.59291
4.54726
4.50012
4.45156
4.40167
4.35055
4.2983
4.24502
4.19081
4.13576
4.07999
4.02361
3.96672
3.90945
3.85191
3.79424
3.73656
3.67901
3.62175
3.56493
3.50873
3.45335
3.39899
3.34586
3.29417
3.24407
3.19511
3.1458
0.04493
0.0898687
0.11341
0.130267
0.144194
0.156542
0.167959
0.178824
0.189383
0.199812
0.21024
0.220772
0.231488
0.242454
0.253724
0.265343
0.277349
0.289779
0.302664
0.316038
0.32991
0.344306
0.359252
0.374773
0.390894
0.407641
0.425038
0.443111
0.461885
0.481385
0.501637
0.522666
0.544498
0.567158
0.59067
0.615059
0.640347
0.666577
0.693767
0.721951
0.751161
0.781425
0.812776
0.845244
0.878861
0.913654
0.949653
0.986883
1.02537
1.06514
1.10621
1.14861
1.19235
1.23746
1.28394
1.33182
1.38109
1.43178
1.48388
1.53738
1.5923
1.64861
1.70631
1.76537
1.82578
1.88751
1.95053
2.0148
2.08029
2.14695
2.21472
2.28357
2.35343
2.42424
2.49594
2.56845
2.64172
2.71565
2.79018
2.86523
2.9407
3.01652
3.09258
3.16881
3.24511
3.32137
3.39751
3.47343
3.54903
3.6242
3.69884
3.77286
3.84614
3.91859
3.99011
4.06059
4.12994
4.19806
4.26484
4.3302
4.39404
4.45628
4.51683
4.57559
4.6325
4.68748
4.74045
4.79134
4.84009
4.88664
4.93093
4.97292
5.01257
5.04982
5.08466
5.11705
5.14697
5.1744
5.19934
5.22177
5.24171
5.25916
5.27413
5.28665
5.29674
5.30444
5.30977
5.31276
5.31346
5.31194
5.30803
5.30178
5.2934
5.28291
5.27038
5.25584
5.23935
5.22094
5.20066
5.17853
5.15459
5.12885
5.10133
5.07204
5.04099
5.0082
4.97366
4.93739
4.8994
4.8597
4.81833
4.7753
4.73066
4.68445
4.63674
4.5876
4.53711
4.48535
4.43242
4.37841
4.32342
4.26753
4.21086
4.15349
4.09555
4.03714
3.97837
3.91937
3.86027
3.8012
3.74232
3.68379
3.62578
3.56848
3.5121
3.45684
3.40291
3.35046
3.29909
3.2476
0.0448506
0.0897577
0.113261
0.130091
0.143991
0.156306
0.167684
0.178501
0.189006
0.199373
0.209734
0.22019
0.230822
0.241695
0.252864
0.264372
0.276259
0.288561
0.301306
0.31452
0.328226
0.342453
0.357235
0.372603
0.388587
0.405218
0.422527
0.440546
0.459306
0.478838
0.499176
0.520349
0.542389
0.565329
0.589201
0.614046
0.639865
0.666676
0.694544
0.723513
0.753622
0.784908
0.817406
0.851153
0.886188
0.922544
0.960244
0.999314
1.03978
1.08167
1.125
1.16978
1.21604
1.26378
1.31301
1.36375
1.41599
1.46974
1.52498
1.58172
1.63993
1.6996
1.7607
1.82321
1.88709
1.95231
2.01883
2.0866
2.15558
2.2257
2.29692
2.36917
2.44239
2.51651
2.59147
2.66718
2.74356
2.82055
2.89806
2.97599
3.05428
3.13281
3.21152
3.29029
3.36903
3.44765
3.52606
3.60414
3.6818
3.75894
3.83546
3.91125
3.98621
4.06025
4.13324
4.20511
4.27574
4.34503
4.4129
4.47924
4.54396
4.60698
4.66821
4.72756
4.78494
4.84029
4.89352
4.94458
4.99339
5.0399
5.08405
5.1258
5.16509
5.2019
5.23619
5.26793
5.2971
5.32369
5.34768
5.36909
5.38791
5.40416
5.41786
5.42904
5.43774
5.44398
5.44783
5.44931
5.44854
5.44543
5.43984
5.43205
5.42213
5.41013
5.39613
5.38018
5.36235
5.34267
5.32121
5.29799
5.27305
5.24642
5.2181
5.1881
5.15644
5.12312
5.08814
5.0515
5.01323
4.9733
4.93175
4.88858
4.84383
4.79753
4.74972
4.70049
4.64989
4.598
4.54491
4.4907
4.43545
4.37924
4.32217
4.26434
4.20585
4.14679
4.08728
4.02743
3.96736
3.90721
3.84712
3.78726
3.7278
3.66892
3.61083
3.55373
3.49781
3.44325
3.38968
3.3362
0.0445529
0.0893185
0.11262
0.129314
0.143085
0.155271
0.166518
0.177203
0.187573
0.197804
0.208024
0.218334
0.228813
0.239526
0.250527
0.261861
0.27357
0.28569
0.298257
0.311302
0.324864
0.338976
0.35367
0.368981
0.384947
0.401603
0.418985
0.437133
0.456088
0.475894
0.496604
0.518236
0.540825
0.564409
0.58902
0.614666
0.64139
0.669271
0.698381
0.728758
0.760442
0.793469
0.827876
0.863695
0.90095
0.939668
0.979881
1.02162
1.0649
1.10977
1.15621
1.20423
1.25383
1.30502
1.35779
1.41213
1.46804
1.52549
1.58447
1.64496
1.70693
1.77034
1.83515
1.90133
1.96884
2.03761
2.10761
2.17877
2.25104
2.32436
2.39866
2.47388
2.54995
2.62679
2.70434
2.78251
2.86123
2.94042
3.01999
3.09986
3.17994
3.26015
3.3404
3.42059
3.50064
3.58044
3.65991
3.73894
3.81744
3.89531
3.97246
4.04878
4.12417
4.19853
4.27178
4.3438
4.41449
4.48377
4.55154
4.6177
4.68216
4.74484
4.80566
4.86452
4.92134
4.97605
5.02857
5.07884
5.1268
5.17238
5.21554
5.25623
5.29439
5.33
5.36303
5.39345
5.42123
5.44636
5.46884
5.48868
5.50589
5.52047
5.53247
5.54191
5.54884
5.5533
5.55536
5.55511
5.55263
5.54759
5.54028
5.53081
5.51925
5.50569
5.4902
5.47285
5.45372
5.43286
5.41033
5.38617
5.36043
5.33312
5.30425
5.27383
5.24186
5.20835
5.17329
5.13669
5.09854
5.05883
5.01756
4.97473
4.93035
4.88446
4.83709
4.7883
4.73813
4.68667
4.63397
4.58011
4.52515
4.46918
4.41227
4.35452
4.29601
4.23684
4.17709
4.11688
4.05633
3.99555
3.9347
3.87393
3.8134
3.75331
3.69384
3.6352
3.57756
3.52115
3.46561
3.41039
0.0439288
0.0883136
0.1113
0.127754
0.141307
0.153289
0.164343
0.174845
0.185041
0.195105
0.205166
0.215323
0.225657
0.236233
0.247105
0.258323
0.269931
0.281972
0.294487
0.307517
0.321104
0.33529
0.350118
0.365635
0.381897
0.398942
0.41681
0.435548
0.455202
0.475808
0.497372
0.519958
0.543644
0.568492
0.594564
0.621933
0.650641
0.680736
0.712274
0.745297
0.779842
0.815942
0.853625
0.892914
0.933825
0.976371
1.02057
1.06641
1.11393
1.16307
1.21384
1.26623
1.32022
1.3758
1.43294
1.49161
1.55179
1.61343
1.6765
1.74096
1.80675
1.87384
1.94218
2.0117
2.08237
2.15411
2.22688
2.30061
2.37525
2.45073
2.52699
2.60396
2.68157
2.75976
2.83845
2.91758
2.99708
3.07685
3.15685
3.23697
3.31715
3.39731
3.47735