/*--------------------------------*- C++ -*----------------------------------*\
  =========                 |
  \\      /  F ield         | OpenFOAM: The Open Source CFD Toolbox
   \\    /   O peration     | Website:  https://openfoam.org
    \\  /    A nd           | Version:  9
     \\/     M anipulation  |
\*---------------------------------------------------------------------------*/
FoamFile
{
    format      ascii;
    class       volScalarField;
    location    "225";
    object      nut;
}
// * * * * * * * * * * * * * * * * * * * * * * * * * * * * * * * * * * * * * //

dimensions      [0 2 -1 0 0 0 0];

internalField   nonuniform List<scalar> 
12225
(
4.14967e-05
3.93419e-05
3.74836e-05
3.54327e-05
3.37844e-05
3.24203e-05
3.15103e-05
3.09112e-05
3.0918e-05
3.10937e-05
3.15721e-05
3.21034e-05
3.31501e-05
3.38106e-05
3.51081e-05
3.56983e-05
3.73407e-05
3.67173e-05
0.000332332
0.00021522
0.00017928
0.000157681
0.000146207
0.000138214
0.000132741
0.00013165
0.000129511
0.00013006
0.000129052
0.000129434
0.000128664
0.000128554
0.000128081
0.000127415
0.000127398
0.000126509
0.000674966
0.00045084
0.000355778
0.000309839
0.000275284
0.000251103
0.000231704
0.000217282
0.000202674
0.000192124
0.000182618
0.000175209
0.000169375
0.000163682
0.000160296
0.000155571
0.0001538
0.000149882
0.000833614
0.000684909
0.000571985
0.000499971
0.000449455
0.000411961
0.000380768
0.000356008
0.000334001
0.000314788
0.000298321
0.000281723
0.000270302
0.000256076
0.000248199
0.000236172
0.000230401
0.000220478
0.000861254
0.000802527
0.000742127
0.000676584
0.000623995
0.000581379
0.000545863
0.000514561
0.000489515
0.000464435
0.000445858
0.000424078
0.000409937
0.000390812
0.00037989
0.000363109
0.000354489
0.000339553
0.000854979
0.000840347
0.000822204
0.000786496
0.00075086
0.000715902
0.000685759
0.000656133
0.000632547
0.00060752
0.000588997
0.000567251
0.000552285
0.000533105
0.000520787
0.00050375
0.000493324
0.000477533
0.000852907
0.000850686
0.000844239
0.000832828
0.00081741
0.000797001
0.000777886
0.000756738
0.0007389
0.000719148
0.000703534
0.000685624
0.000672125
0.000655929
0.000644312
0.000629548
0.000619527
0.000605193
0.000851922
0.000851814
0.000850172
0.000847396
0.000841453
0.000833728
0.000824896
0.000813416
0.000802808
0.000790471
0.000779716
0.000767542
0.000757427
0.000745788
0.000736544
0.000725541
0.000717166
0.000706068
0.000851751
0.000851542
0.000851034
0.000850339
0.00084888
0.000846168
0.000843034
0.000838305
0.000833402
0.000827361
0.000821217
0.000814774
0.000808411
0.000801529
0.000795244
0.000788424
0.00078218
0.000775277
0.000851769
0.00085139
0.000851046
0.000850633
0.000850248
0.000849368
0.000848405
0.000846781
0.000844956
0.00084253
0.000839924
0.0008368
0.000833795
0.000830154
0.000826972
0.00082293
0.000819904
0.000815306
0.000851787
0.000851359
0.000851012
0.000850613
0.000850329
0.000849905
0.000849525
0.000848929
0.000848303
0.000847393
0.000846466
0.000845177
0.00084399
0.000842352
0.000840997
0.000839033
0.000837641
0.000835364
0.000851789
0.000851359
0.000850995
0.000850605
0.000850292
0.000849938
0.000849646
0.00084928
0.000848955
0.000848504
0.000848098
0.000847508
0.000846998
0.000846244
0.000845642
0.000844721
0.000844058
0.000842977
0.000851786
0.000851363
0.000850985
0.000850604
0.000850269
0.000849926
0.00084963
0.000849313
0.000849042
0.000848728
0.000848462
0.000848126
0.000847843
0.000847466
0.000847156
0.000846726
0.000846387
0.000845902
0.000851783
0.000851364
0.000850978
0.000850602
0.000850256
0.000849916
0.000849607
0.0008493
0.000849022
0.00084874
0.000848488
0.000848224
0.000847988
0.000847735
0.000847508
0.000847258
0.000847033
0.000846783
0.000851781
0.000851364
0.000850973
0.000850598
0.000850246
0.000849908
0.000849591
0.000849286
0.000849
0.000848723
0.000848463
0.000848211
0.000847975
0.000847744
0.000847527
0.000847316
0.000847114
0.000846919
0.00085178
0.000851363
0.000850969
0.000850594
0.000850239
0.000849901
0.00084958
0.000849275
0.000848984
0.000848707
0.000848443
0.000848191
0.000847951
0.000847721
0.000847502
0.000847292
0.000847092
0.000846901
0.000851779
0.000851362
0.000850967
0.000850591
0.000850234
0.000849895
0.000849572
0.000849265
0.000848973
0.000848694
0.000848428
0.000848175
0.000847932
0.000847701
0.00084748
0.000847269
0.000847067
0.000846874
0.000851779
0.000851362
0.000850965
0.000850588
0.000850231
0.00084989
0.000849567
0.000849259
0.000848965
0.000848685
0.000848418
0.000848163
0.000847919
0.000847687
0.000847464
0.000847252
0.000847048
0.000846853
0.000851779
0.000851362
0.000850965
0.000850588
0.00085023
0.000849889
0.000849565
0.000849256
0.000848962
0.000848681
0.000848413
0.000848158
0.000847913
0.00084768
0.000847456
0.000847243
0.000847038
0.000846843
0.000851779
0.000851362
0.000850966
0.000850589
0.000850231
0.000849891
0.000849567
0.000849259
0.000848965
0.000848685
0.000848417
0.000848161
0.000847917
0.000847683
0.000847459
0.000847245
0.00084704
0.000846844
0.000851779
0.000851363
0.000850967
0.000850592
0.000850235
0.000849897
0.000849573
0.000849267
0.000848972
0.000848693
0.000848424
0.000848168
0.000847919
0.000847683
0.00084745
0.000847231
0.000847012
0.000846805
0.000851778
0.000851366
0.000850968
0.000850599
0.00085024
0.000849907
0.00084958
0.000849274
0.000848964
0.000848671
0.000848364
0.000848071
0.000847756
0.000847455
0.000847122
0.000846811
0.000846456
0.000846135
0.000851777
0.000851374
0.000850971
0.000850615
0.000850241
0.000849889
0.000849478
0.000849054
0.000848529
0.000847978
0.0008473
0.000846604
0.000845766
0.000844938
0.000843954
0.000843028
0.000841917
0.000840938
0.000851802
0.00085141
0.00085097
0.000850549
0.000849861
0.000848967
0.000847607
0.000845979
0.000843903
0.000841635
0.000838954
0.000836213
0.000833115
0.000830112
0.000826761
0.000823678
0.000820182
0.000817176
0.000852138
0.000851403
0.000850234
0.000848252
0.000844472
0.000839355
0.000832711
0.000825762
0.000817913
0.00081
0.000801614
0.000793625
0.000785329
0.000777704
0.000769741
0.000762697
0.00075512
0.000748791
0.000854142
0.000847718
0.000840125
0.000827122
0.000808707
0.000789646
0.000769971
0.000751416
0.000733302
0.000716893
0.000700931
0.000686778
0.000672827
0.000660667
0.000648374
0.000637937
0.000626949
0.000618016
0.00085497
0.000818336
0.00077623
0.000726635
0.000684938
0.000649857
0.000618459
0.00059202
0.000568379
0.000548309
0.000529685
0.00051399
0.000498746
0.000486013
0.000473198
0.000462704
0.000451618
0.000442801
0.000807487
0.000666879
0.000570551
0.000509854
0.000465648
0.000431193
0.000404132
0.000382499
0.000364192
0.000349065
0.000335938
0.000325075
0.000314477
0.000306245
0.00029796
0.000291365
0.000284279
0.000278929
0.000501854
0.000348404
0.00029269
0.000259174
0.000236322
0.000221177
0.000211543
0.000204015
0.00019848
0.000195059
0.000192217
0.000190367
0.000188581
0.000187439
0.000186164
0.000185473
0.000184554
0.000184142
7.27285e-05
7.02231e-05
6.79539e-05
6.56136e-05
6.33827e-05
6.12765e-05
5.94929e-05
5.79572e-05
5.67102e-05
5.57029e-05
5.49774e-05
5.44183e-05
5.41084e-05
5.3887e-05
5.38764e-05
5.39617e-05
5.40713e-05
5.43218e-05
3.1339e-07
7.50729e-06
1.36908e-05
1.93829e-05
2.53388e-05
3.19172e-05
3.92597e-05
4.74112e-05
5.62453e-05
6.55485e-05
7.50452e-05
8.44849e-05
9.36127e-05
0.00010223
0.000110147
0.000117259
0.000123509
0.000128987
0.000133906
0.000138714
0.000143032
0.000147566
0.000156652
0.000168937
0.00018406
0.000197812
0.000209462
0.000218903
0.000226381
0.000232543
0.000236623
0.000237937
0.000236047
0.000230974
0.000221338
0.000212411
0.000203534
4.11108e-05
4.34996e-05
4.7493e-05
4.9467e-05
5.0117e-05
5.14808e-05
5.24979e-05
5.36613e-05
5.4762e-05
5.58829e-05
5.69928e-05
5.81024e-05
5.92082e-05
6.03111e-05
6.14111e-05
6.2508e-05
6.3602e-05
6.46929e-05
6.57808e-05
6.68655e-05
6.7947e-05
6.90251e-05
7.00996e-05
7.11702e-05
7.22368e-05
7.32989e-05
7.43564e-05
7.54087e-05
7.64557e-05
7.74967e-05
7.85315e-05
7.95594e-05
8.05802e-05
8.15932e-05
8.25981e-05
8.35942e-05
8.4581e-05
8.5558e-05
8.65247e-05
8.74804e-05
8.84248e-05
8.9357e-05
9.02767e-05
9.11831e-05
9.2076e-05
9.29545e-05
9.38183e-05
9.46664e-05
9.54987e-05
9.63142e-05
9.71126e-05
9.78929e-05
9.86545e-05
9.93964e-05
0.000100118
0.000100817
0.000101494
0.000102146
0.000102775
0.00010338
0.000103967
0.000104533
0.000105077
0.000105599
0.0001061
0.000106578
0.000107034
0.000107468
0.000107879
0.000108267
0.000108632
0.000108974
0.000109292
0.000109587
0.000109858
0.000110105
0.000110329
0.000110528
0.000110704
0.000110855
0.000110983
0.000111086
0.000111165
0.00011122
0.00011125
0.000111255
0.000111235
0.000111189
0.000111116
0.000111014
0.000110865
0.000110703
0.000110619
0.000110407
0.000110184
0.000109927
0.000109656
0.000109355
0.000109034
0.000108686
0.000108313
0.000107914
0.000107491
0.000107043
0.000106569
0.000106068
0.00010554
0.000104986
0.000104405
0.000103798
0.000103163
0.000102502
0.000101815
0.000101102
0.000100363
9.95994e-05
9.88117e-05
9.80013e-05
9.7169e-05
9.6316e-05
9.54402e-05
9.44966e-05
9.37992e-05
9.32429e-05
9.26859e-05
9.2116e-05
9.15328e-05
9.09374e-05
9.03313e-05
8.9716e-05
8.90929e-05
8.84634e-05
8.78288e-05
8.71902e-05
8.65482e-05
8.59041e-05
8.52517e-05
8.45931e-05
8.39252e-05
8.32388e-05
8.24949e-05
8.17026e-05
7.9467e-05
1.48301e-06
3.24238e-05
7.01605e-05
9.6032e-05
0.000112848
0.000125231
0.000135947
0.000146405
0.000157147
0.000168235
0.000179495
0.000190665
0.000201463
0.000211632
0.000220951
0.000229266
0.000236508
0.00024274
0.00024819
0.000253298
0.000258621
0.000263666
0.000269673
0.000276659
0.000284015
0.000290916
0.000295755
0.000299661
0.000301284
0.000299954
0.000300262
0.000299957
0.000306383
0.000292119
0.00027965
0.000270994
0.000262264
0.000246629
0.000259358
0.000271124
0.00027727
0.000284395
0.000291777
0.000299479
0.000307303
0.000315246
0.000323304
0.000331452
0.000339689
0.000348005
0.000356399
0.00036487
0.000373417
0.000382041
0.000390742
0.000399523
0.000408384
0.000417326
0.000426351
0.000435459
0.00044465
0.000453926
0.000463285
0.000472726
0.00048225
0.000491853
0.000501534
0.000511291
0.000521121
0.00053102
0.000540985
0.000551011
0.000561095
0.000571231
0.000581415
0.00059164
0.000601902
0.000612193
0.000622508
0.00063284
0.000643184
0.000653533
0.00066388
0.00067422
0.000684548
0.000694857
0.000705142
0.000715398
0.000725621
0.000735804
0.000745942
0.000756027
0.000766044
0.000775967
0.000785754
0.000795322
0.000804531
0.000813133
0.000821345
0.000829467
0.000837449
0.000845301
0.000853017
0.000860593
0.000868024
0.000875306
0.000882436
0.000889409
0.000896223
0.000902875
0.000909363
0.000915682
0.000921831
0.000927807
0.000933607
0.000939228
0.000944668
0.000949924
0.000954993
0.000959874
0.000964564
0.00096906
0.000973358
0.000977454
0.000981345
0.000985029
0.000988504
0.000991762
0.000994694
0.00099771
0.00100039
0.00100263
0.00100453
0.0010063
0.0010078
0.00100908
0.0010101
0.00101085
0.00101132
0.00101151
0.00101143
0.00101107
0.00101041
0.00100945
0.00100819
0.00100662
0.00100474
0.00100255
0.00100005
0.00099724
0.000994114
0.000990679
0.000986939
0.000982898
0.000978563
0.000973936
0.000968991
0.000963588
0.000956971
0.000948171
0.000938499
0.000928442
0.00091817
0.000907758
0.000897248
0.000886672
0.000876055
0.000865422
0.000854794
0.000844191
0.00083363
0.000823124
0.00081268
0.000802231
0.000791843
0.000781523
0.000771044
0.000760297
0.000747925
0.000711908
3.05713e-06
5.23312e-05
0.000110157
0.000153989
0.000185759
0.000208986
0.000226926
0.00024194
0.000255513
0.000268433
0.000281006
0.000293247
0.000305017
0.000316112
0.000326325
0.000335484
0.000343489
0.000350347
0.000356189
0.000361252
0.000365889
0.000371545
0.000378476
0.000386837
0.000396407
0.000406751
0.000417333
0.00042765
0.000437172
0.000448106
0.000457466
0.000465795
0.000472839
0.000477494
0.000482779
0.000489033
0.000496834
0.00050755
0.000524597
0.000540696
0.000556049
0.000571713
0.000587491
0.000603495
0.000619655
0.000635974
0.000652443
0.000669054
0.000685806
0.000702695
0.000719722
0.000736888
0.000754194
0.000771643
0.000789237
0.000806976
0.000824864
0.000842901
0.000861086
0.000879421
0.000897905
0.000916536
0.000935312
0.00095423
0.000973286
0.000992476
0.0010118
0.00103124
0.00105079
0.00107046
0.00109023
0.00111009
0.00113003
0.00115004
0.00117012
0.00119024
0.00121041
0.0012306
0.00125081
0.00127102
0.00129122
0.0013114
0.00133154
0.00135164
0.00137167
0.00139163
0.0014115
0.00143127
0.00145092
0.00147044
0.00148981
0.001509
0.00152798
0.0015467
0.00156511
0.00158313
0.00160068
0.00161774
0.00163446
0.00165093
0.00166712
0.00168303
0.00169864
0.00171395
0.00172895
0.00174363
0.00175797
0.00177198
0.00178564
0.00179896
0.00181192
0.00182451
0.00183674
0.0018486
0.00186007
0.00187117
0.00188187
0.00189218
0.0019021
0.00191161
0.00192072
0.00192942
0.00193769
0.00194554
0.00195296
0.00195994
0.00196647
0.00197255
0.00197815
0.00198352
0.00198835
0.00199231
0.00199563
0.00199866
0.00200118
0.00200318
0.00200463
0.00200553
0.00200588
0.00200565
0.00200485
0.00200346
0.00200146
0.00199885
0.00199563
0.00199177
0.00198728
0.00198216
0.0019764
0.00197
0.00196298
0.00195532
0.00194706
0.00193819
0.00192874
0.0019187
0.00190805
0.00189661
0.00188379
0.00186882
0.00185252
0.00183546
0.00181791
0.0018
0.00178183
0.00176346
0.00174494
0.00172632
0.00170765
0.00168897
0.00167031
0.00165171
0.00163317
0.00161472
0.00159634
0.00157795
0.00155927
0.00153976
0.00151662
0.00146671
4.75931e-06
6.73511e-05
0.000140436
0.000197598
0.000240088
0.00027183
0.000296323
0.000316219
0.000333363
0.000348911
0.000363497
0.000377387
0.000390623
0.000403117
0.000414737
0.000425362
0.000434944
0.000443548
0.000451389
0.000458859
0.000466527
0.000475117
0.000485132
0.000496872
0.000510449
0.000525598
0.000541922
0.000559147
0.000577205
0.000594587
0.000611431
0.000627794
0.000643405
0.000659058
0.000675963
0.000693049
0.000711531
0.000731956
0.000754078
0.000776328
0.000798559
0.000820994
0.000843587
0.000866362
0.000889314
0.000912444
0.000935752
0.000959238
0.000982903
0.00100675
0.00103077
0.00105498
0.00107938
0.00110397
0.00112875
0.00115373
0.00117891
0.00120429
0.00122986
0.00125563
0.00128159
0.00130775
0.00133409
0.00136061
0.0013873
0.00141417
0.00144119
0.00146837
0.00149568
0.00152313
0.00155069
0.00157836
0.00160612
0.00163396
0.00166186
0.0016898
0.00171778
0.00174578
0.00177377
0.00180174
0.00182967
0.00185754
0.00188535
0.00191306
0.00194065
0.00196812
0.00199543
0.00202257
0.00204951
0.00207624
0.00210271
0.00212891
0.00215479
0.00218031
0.00220543
0.00223008
0.00225424
0.00227795
0.00230126
0.0023242
0.00234674
0.00236888
0.00239061
0.0024119
0.00243275
0.00245314
0.00247307
0.00249252
0.00251148
0.00252994
0.0025479
0.00256535
0.00258228
0.00259868
0.00261455
0.00262988
0.00264466
0.00265889
0.00267257
0.00268568
0.00269823
0.0027102
0.00272158
0.00273238
0.00274258
0.00275217
0.00276114
0.00276947
0.00277731
0.00278472
0.00279121
0.00279657
0.00280134
0.00280553
0.00280903
0.00281181
0.00281385
0.00281513
0.00281565
0.00281538
0.00281432
0.00281244
0.00280974
0.00280619
0.00280178
0.00279651
0.00279036
0.00278333
0.00277542
0.00276663
0.00275695
0.00274641
0.00273502
0.00272278
0.00270973
0.00269586
0.00268115
0.00266546
0.00264841
0.00262956
0.00260932
0.0025881
0.00256618
0.00254371
0.00252081
0.00249757
0.00247406
0.00245035
0.0024265
0.00240257
0.00237863
0.0023547
0.00233085
0.00230713
0.00228352
0.0022599
0.002236
0.00221105
0.00218173
0.00212925
6.41961e-06
7.98745e-05
0.000165593
0.000233749
0.000285625
0.000324919
0.000355373
0.000379885
0.000400568
0.00041886
0.000435663
0.000451483
0.000466558
0.000480959
0.000494675
0.000507683
0.000519998
0.000531724
0.000543079
0.000554412
0.000566182
0.000578889
0.00059295
0.000608609
0.000626011
0.000645079
0.000665584
0.000687194
0.000709607
0.000732379
0.000755379
0.000778494
0.000801728
0.00082531
0.000849513
0.00087436
0.000899925
0.000926204
0.000953132
0.00098032
0.00100775
0.00103535
0.00106313
0.00109111
0.00111929
0.00114768
0.00117627
0.00120507
0.00123409
0.00126332
0.00129276
0.00132241
0.00135227
0.00138236
0.00141268
0.00144323
0.00147401
0.00150502
0.00153626
0.00156771
0.00159939
0.00163128
0.00166338
0.00169568
0.00172817
0.00176084
0.00179368
0.00182668
0.00185982
0.0018931
0.00192649
0.00195998
0.00199356
0.0020272
0.00206089
0.00209461
0.00212835
0.00216207
0.00219576
0.0022294
0.00226297
0.00229644
0.0023298
0.00236302
0.00239607
0.00242894
0.0024616
0.00249403
0.0025262
0.00255808
0.00258964
0.00262085
0.00265169
0.00268211
0.0027121
0.00274163
0.0027707
0.00279929
0.00282743
0.00285511
0.00288231
0.00290903
0.00293524
0.00296093
0.00298608
0.00301069
0.00303472
0.00305819
0.00308107
0.00310335
0.00312502
0.00314608
0.00316652
0.00318632
0.00320549
0.00322401
0.00324188
0.00325909
0.00327564
0.00329153
0.00330674
0.00332127
0.00333511
0.00334825
0.00336069
0.00337241
0.00338341
0.00339371
0.00340356
0.00341258
0.00342059
0.00342735
0.00343358
0.00343903
0.00344366
0.00344744
0.00345035
0.00345238
0.00345351
0.00345372
0.00345299
0.0034513
0.00344862
0.00344495
0.00344026
0.00343453
0.00342777
0.00341994
0.00341106
0.00340112
0.00339012
0.00337806
0.00336498
0.00335087
0.00333577
0.00331968
0.00330257
0.00328437
0.00326486
0.00324382
0.00322144
0.00319797
0.00317363
0.0031486
0.00312298
0.00309688
0.00307038
0.00304357
0.00301653
0.00298932
0.00296202
0.0029347
0.00290741
0.00288025
0.00285315
0.00282609
0.00279882
0.00277052
0.00273793
0.002687
7.97718e-06
9.03188e-05
0.000186594
0.000264214
0.000324456
0.000370675
0.000406751
0.000435761
0.000460022
0.000481193
0.000500408
0.000518387
0.000535563
0.000552168
0.000568327
0.000584111
0.000599599
0.000614907
0.00063022
0.000645795
0.000661949
0.000679013
0.000697281
0.000716959
0.000738139
0.000760756
0.000784666
0.000809678
0.000835578
0.00086215
0.000889247
0.000916781
0.000944739
0.000973168
0.0010021
0.00103153
0.00106146
0.00109188
0.00112271
0.00115385
0.00118524
0.00121686
0.00124869
0.00128074
0.001313
0.00134549
0.00137819
0.00141112
0.00144427
0.00147766
0.00151128
0.00154514
0.00157925
0.0016136
0.00164817
0.00168299
0.00171803
0.0017533
0.0017888
0.00182451
0.00186045
0.00189659
0.00193293
0.00196947
0.00200618
0.00204307
0.00208012
0.00211732
0.00215465
0.0021921
0.00222965
0.00226728
0.00230498
0.00234273
0.00238052
0.00241831
0.0024561
0.00249385
0.00253155
0.00256918
0.00260671
0.00264412
0.00268139
0.00271849
0.0027554
0.00279209
0.00282854
0.00286472
0.00290061
0.00293618
0.00297139
0.00300623
0.00304067
0.00307467
0.00310822
0.00314131
0.0031739
0.00320601
0.00323761
0.00326869
0.00329925
0.00332926
0.0033587
0.00338756
0.00341583
0.00344348
0.00347051
0.00349689
0.00352262
0.00354769
0.00357208
0.00359579
0.0036188
0.00364112
0.00366273
0.00368362
0.0037038
0.00372325
0.00374197
0.00375995
0.0037772
0.0037937
0.00380944
0.00382443
0.00383865
0.0038521
0.00386476
0.00387682
0.00388821
0.00389867
0.00390798
0.00391621
0.00392376
0.00393046
0.00393626
0.00394115
0.00394511
0.00394811
0.00395013
0.00395116
0.00395117
0.00395013
0.00394802
0.00394482
0.00394051
0.00393506
0.00392846
0.00392069
0.00391174
0.00390162
0.00389031
0.00387783
0.00386418
0.00384939
0.00383346
0.00381641
0.00379823
0.00377888
0.00375824
0.00373622
0.00371289
0.00368843
0.00366299
0.00363672
0.00360973
0.00358214
0.00355403
0.00352549
0.00349661
0.00346748
0.00343818
0.00340879
0.0033794
0.00335009
0.00332088
0.00329177
0.00326257
0.00323251
0.00319871
0.00315071
9.3892e-06
9.89162e-05
0.000203973
0.000289805
0.000357554
0.000410196
0.000451651
0.000485102
0.000513006
0.000537194
0.000558979
0.000579267
0.000598655
0.000617527
0.000636125
0.000654609
0.000673108
0.000691748
0.000710678
0.000730078
0.000750147
0.000771089
0.000793085
0.000816261
0.000840672
0.000866295
0.000893051
0.000920825
0.000949487
0.000978907
0.00100898
0.00103962
0.00107079
0.00110246
0.00113462
0.00116723
0.00120028
0.00123373
0.00126754
0.00130166
0.00133604
0.00137067
0.00140554
0.00144063
0.00147593
0.00151147
0.00154722
0.00158319
0.0016194
0.00165583
0.00169249
0.00172939
0.00176651
0.00180387
0.00184146
0.00187927
0.00191731
0.00195556
0.00199404
0.00203273
0.00207162
0.00211071
0.00214999
0.00218946
0.0022291
0.0022689
0.00230885
0.00234893
0.00238914
0.00242945
0.00246986
0.00251034
0.00255088
0.00259146
0.00263206
0.00267266
0.00271324
0.00275378
0.00279425
0.00283464
0.00287492
0.00291508
0.00295507
0.00299489
0.0030345
0.00307388
0.00311301
0.00315185
0.00319039
0.00322859
0.00326643
0.00330388
0.00334091
0.00337751
0.00341365
0.00344931
0.00348447
0.00351911
0.00355323
0.00358681
0.00361981
0.00365224
0.00368406
0.00371527
0.00374583
0.00377574
0.00380499
0.00383355
0.00386141
0.00388856
0.00391499
0.00394069
0.00396565
0.00398987
0.00401333
0.00403604
0.00405797
0.00407914
0.00409954
0.00411916
0.004138
0.00415606
0.00417333
0.0041898
0.00420548
0.00422035
0.00423444
0.004248
0.00426062
0.00427238
0.00428293
0.00429256
0.00430137
0.00430929
0.0043163
0.00432236
0.00432747
0.0043316
0.00433472
0.00433682
0.00433786
0.00433782
0.00433667
0.00433439
0.00433094
0.0043263
0.00432044
0.00431336
0.00430503
0.00429545
0.0042846
0.00427249
0.00425913
0.00424453
0.00422869
0.00421164
0.00419338
0.00417388
0.00415309
0.00413097
0.00410757
0.00408299
0.00405735
0.00403077
0.00400336
0.00397522
0.00394645
0.00391713
0.00388737
0.00385726
0.0038269
0.00379638
0.00376581
0.00373528
0.00370487
0.00367461
0.00364438
0.00361354
0.0035797
0.00353592
1.06255e-05
0.000105832
0.000218077
0.000311055
0.000385444
0.00044407
0.00049068
0.000528511
0.000560109
0.000587422
0.000611898
0.000634584
0.000656217
0.000677302
0.000698181
0.000719091
0.000740202
0.000761656
0.000783583
0.000806109
0.00082936
0.000853453
0.000878488
0.000904534
0.00093162
0.000959734
0.000988831
0.00101884
0.00104968
0.00108127
0.00111353
0.0011464
0.00117981
0.00121373
0.00124813
0.00128296
0.00131819
0.0013538
0.00138974
0.00142599
0.00146252
0.00149928
0.00153628
0.0015735
0.00161093
0.00164857
0.00168642
0.00172448
0.00176275
0.00180124
0.00183994
0.00187886
0.00191799
0.00195734
0.0019969
0.00203667
0.00207665
0.00211683
0.00215722
0.0021978
0.00223858
0.00227954
0.00232068
0.00236199
0.00240347
0.0024451
0.00248687
0.00252877
0.00257079
0.00261291
0.00265512
0.0026974
0.00273974
0.00278212
0.00282453
0.00286693
0.00290932
0.00295168
0.00299398
0.0030362
0.00307832
0.00312031
0.00316215
0.00320383
0.0032453
0.00328655
0.00332755
0.00336828
0.0034087
0.0034488
0.00348854
0.0035279
0.00356685
0.00360537
0.00364343
0.00368102
0.0037181
0.00375467
0.00379069
0.00382616
0.00386104
0.00389532
0.00392897
0.00396198
0.00399433
0.004026
0.00405697
0.00408723
0.00411676
0.00414555
0.00417359
0.00420087
0.00422738
0.0042531
0.00427804
0.00430219
0.00432554
0.00434809
0.00436984
0.00439079
0.00441094
0.00443028
0.00444881
0.00446653
0.00448344
0.00449953
0.00451497
0.00452966
0.00454346
0.00455638
0.00456814
0.00457908
0.00458911
0.00459825
0.00460647
0.00461377
0.00462011
0.00462548
0.00462986
0.00463321
0.00463551
0.00463673
0.00463684
0.0046358
0.00463359
0.00463016
0.00462551
0.0046196
0.0046124
0.00460391
0.00459411
0.004583
0.00457057
0.00455683
0.0045418
0.00452548
0.00450787
0.00448897
0.00446876
0.00444724
0.00442442
0.00440037
0.00437519
0.00434898
0.00432183
0.00429383
0.00426509
0.00423569
0.00420574
0.00417533
0.00414457
0.00411358
0.00408248
0.00405137
0.00402037
0.00398957
0.0039589
0.00392785
0.00389453
0.00385462
1.16685e-05
0.000111217
0.000229217
0.000328426
0.000408594
0.000472706
0.000524205
0.000566309
0.0006016
0.000632095
0.000659334
0.000684468
0.000708338
0.000731548
0.000754523
0.000777556
0.000800858
0.000824588
0.000848883
0.000873852
0.000899566
0.000926085
0.000953461
0.000981725
0.00101089
0.00104094
0.00107184
0.00110356
0.00113603
0.00116919
0.00120298
0.00123735
0.00127226
0.00130764
0.00134347
0.00137971
0.00141633
0.0014533
0.00149059
0.00152819
0.00156605
0.00160415
0.00164246
0.00168096
0.00171965
0.00175853
0.00179759
0.00183684
0.00187628
0.00191591
0.00195573
0.00199574
0.00203594
0.00207634
0.00211692
0.0021577
0.00219867
0.00223983
0.00228118
0.00232272
0.00236443
0.00240633
0.0024484
0.00249063
0.00253303
0.00257558
0.00261828
0.00266111
0.00270407
0.00274714
0.00279032
0.00283358
0.00287692
0.00292032
0.00296376
0.00300722
0.0030507
0.00309416
0.00313759
0.00318097
0.00322428
0.00326748
0.00331057
0.00335351
0.00339628
0.00343885
0.0034812
0.0035233
0.00356513
0.00360664
0.00364783
0.00368865
0.00372909
0.00376911
0.0038087
0.00384781
0.00388644
0.00392454
0.00396211
0.00399911
0.00403552
0.00407132
0.00410649
0.004141
0.00417483
0.00420797
0.00424039
0.00427207
0.00430301
0.00433318
0.00436258
0.00439119
0.004419
0.00444601
0.0044722
0.00449758
0.00452214
0.00454587
0.00456878
0.00459088
0.00461214
0.00463259
0.00465223
0.00467105
0.00468905
0.00470627
0.00472285
0.00473857
0.00475347
0.00476747
0.00478047
0.00479262
0.00480386
0.00481421
0.00482367
0.00483224
0.00483989
0.0048466
0.00485234
0.0048571
0.00486084
0.00486352
0.00486512
0.0048656
0.00486492
0.00486305
0.00485995
0.00485559
0.00484994
0.00484299
0.0048347
0.00482507
0.00481409
0.00480176
0.00478808
0.00477306
0.0047567
0.00473899
0.00471995
0.00469955
0.00467784
0.00465485
0.00463066
0.00460533
0.00457896
0.00455164
0.00452345
0.00449449
0.00446486
0.00443467
0.00440402
0.00437305
0.00434188
0.00431065
0.0042795
0.00424855
0.0042178
0.00418687
0.00415426
0.00411741
1.25101e-05
0.000115221
0.000237675
0.000342101
0.000427326
0.000496411
0.00055248
0.000598685
0.000637595
0.000671259
0.00070127
0.000728848
0.000754908
0.000780131
0.000805049
0.00082996
0.000855079
0.000880551
0.00090645
0.000933007
0.000960296
0.000988365
0.00101724
0.00104694
0.00107745
0.00110877
0.00114086
0.00117368
0.0012072
0.00124136
0.00127611
0.00131141
0.00134721
0.00138347
0.00142015
0.00145721
0.00149463
0.00153237
0.00157041
0.00160871
0.00164714
0.0016858
0.00172463
0.00176361
0.00180273
0.00184199
0.00188141
0.00192097
0.0019607
0.00200058
0.00204063
0.00208084
0.00212122
0.00216178
0.00220251
0.00224341
0.0022845
0.00232577
0.00236722
0.00240886
0.00245068
0.00249269
0.00253487
0.00257724
0.00261979
0.00266251
0.0027054
0.00274845
0.00279166
0.00283501
0.0028785
0.00292212
0.00296585
0.00300968
0.0030536
0.0030976
0.00314164
0.00318572
0.00322982
0.00327392
0.00331798
0.003362
0.00340595
0.00344979
0.00349351
0.00353708
0.00358047
0.00362365
0.00366659
0.00370926
0.00375164
0.00379369
0.00383538
0.00387668
0.00391757
0.003958
0.00399797
0.00403743
0.00407635
0.00411471
0.00415249
0.00418966
0.00422618
0.00426204
0.00429721
0.00433168
0.00436541
0.00439839
0.00443061
0.00446204
0.00449268
0.00452251
0.00455151
0.00457969
0.00460703
0.00463353
0.00465919
0.004684
0.00470797
0.00473111
0.0047534
0.00477487
0.00479552
0.00481535
0.00483437
0.00485266
0.0048702
0.00488695
0.00490291
0.004918
0.0049322
0.00494554
0.00495795
0.00496952
0.00498025
0.00499013
0.00499914
0.00500727
0.00501449
0.00502077
0.00502609
0.00503042
0.00503371
0.00503592
0.00503702
0.00503697
0.00503571
0.00503323
0.00502947
0.00502442
0.00501803
0.00501029
0.00500119
0.00499071
0.00497884
0.00496558
0.00495095
0.00493492
0.00491751
0.00489872
0.00487855
0.00485706
0.00483428
0.00481027
0.00478512
0.0047589
0.0047317
0.00470361
0.00467472
0.00464515
0.00461501
0.00458443
0.00455356
0.00452255
0.00449156
0.00446074
0.00443015
0.00439951
0.00436765
0.00433318
1.31507e-05
0.000117985
0.000243706
0.000352362
0.000441932
0.000515443
0.000575706
0.000625761
0.000668134
0.000704865
0.000737579
0.00076755
0.000795669
0.000822575
0.00084886
0.000875
0.000901303
0.00092799
0.00095525
0.000983189
0.0010118
0.00104111
0.00107113
0.00110186
0.00113329
0.0011654
0.00119818
0.00123158
0.00126557
0.0013001
0.00133514
0.00137064
0.00140656
0.00144286
0.0014795
0.00151646
0.00155369
0.00159119
0.00162893
0.00166692
0.00170521
0.00174369
0.00178228
0.00182092
0.00185963
0.00189842
0.00193731
0.00197631
0.00201543
0.00205469
0.00209408
0.00213362
0.00217331
0.00221317
0.0022532
0.0022934
0.00233379
0.00237438
0.00241516
0.00245614
0.00249734
0.00253875
0.00258038
0.00262222
0.00266429
0.00270658
0.00274909
0.00279182
0.00283475
0.0028779
0.00292125
0.00296478
0.0030085
0.00305239
0.00309643
0.00314062
0.00318493
0.00322934
0.00327384
0.0033184
0.00336301
0.00340763
0.00345224
0.00349682
0.00354133
0.00358574
0.00363003
0.00367417
0.00371812
0.00376184
0.00380532
0.0038485
0.00389136
0.00393387
0.00397599
0.00401769
0.00405893
0.00409969
0.00413992
0.0041796
0.0042187
0.00425719
0.00429503
0.00433221
0.00436869
0.00440445
0.00443946
0.00447372
0.00450718
0.00453985
0.0045717
0.00460271
0.00463288
0.0046622
0.00469066
0.00471825
0.00474498
0.00477084
0.00479583
0.00481997
0.00484326
0.00486571
0.00488733
0.00490813
0.00492814
0.0049474
0.00496592
0.00498369
0.0050007
0.0050169
0.00503226
0.00504677
0.00506033
0.00507313
0.00508514
0.00509637
0.0051068
0.00511642
0.0051252
0.00513312
0.00514015
0.00514626
0.00515141
0.00515555
0.00515864
0.00516063
0.00516148
0.00516114
0.00515957
0.00515672
0.00515257
0.00514707
0.0051402
0.00513194
0.00512227
0.00511119
0.00509869
0.00508476
0.0050694
0.00505261
0.00503439
0.00501477
0.00499379
0.00497149
0.00494794
0.00492321
0.00489736
0.0048705
0.00484271
0.00481411
0.00478481
0.00475495
0.00472468
0.00469416
0.00466358
0.0046331
0.00460283
0.00457257
0.00454141
0.00450882
1.36009e-05
0.00011968
0.000247572
0.000359507
0.000452699
0.000530046
0.00059405
0.00064761
0.000693212
0.00073276
0.000767739
0.000799545
0.000829268
0.00085776
0.000885694
0.000913355
0.000941025
0.000968924
0.0009972
0.00102591
0.00105513
0.00108491
0.00111528
0.00114624
0.00117779
0.0012099
0.00124256
0.00127574
0.00130939
0.0013435
0.00137801
0.0014129
0.00144812
0.00148364
0.00151942
0.00155545
0.00159168
0.00162807
0.00166468
0.00170156
0.00173879
0.00177617
0.00181358
0.00185101
0.00188843
0.00192583
0.00196327
0.0020008
0.00203841
0.00207615
0.00211401
0.00215202
0.00219018
0.00222853
0.00226706
0.00230581
0.00234477
0.00238397
0.00242342
0.00246312
0.0025031
0.00254336
0.0025839
0.00262474