/*--------------------------------*- C++ -*----------------------------------*\
  =========                 |
  \\      /  F ield         | OpenFOAM: The Open Source CFD Toolbox
   \\    /   O peration     | Website:  https://openfoam.org
    \\  /    A nd           | Version:  9
     \\/     M anipulation  |
\*---------------------------------------------------------------------------*/
FoamFile
{
    format      ascii;
    class       volScalarField::Internal;
    location    "225";
    object      tmp<kEpsilon:G>;
}
// * * * * * * * * * * * * * * * * * * * * * * * * * * * * * * * * * * * * * //

dimensions      [0 2 -3 0 0 0 0];

value           nonuniform List<scalar> 
12225
(
0
0
0
0
0
0
0
0
0
0
0
0
0
0
0
0
0
0
947.472
499.318
262.332
277.59
379.767
495.303
604.972
715.266
802.51
888.604
950.162
1008.94
1048.83
1085.54
1113.43
1131.6
1170.41
1136.33
85.4713
123.1
55.5167
17.2355
5.18578
4.39769
8.79856
16.6833
26.609
38.3775
50.8921
64.0754
77.5242
90.4235
104.036
115.476
129.913
136.37
5.03675
1.74469
0.640943
0.702338
0.46538
0.185399
0.0270832
0.189341
0.79086
1.88104
3.44492
5.41889
7.83238
10.416
13.4771
16.3665
19.8914
22.7364
0.224423
0.131551
0.147719
0.313739
0.42557
0.4058
0.288513
0.152593
0.0562472
0.0246788
0.0744549
0.213097
0.449683
0.767676
1.19371
1.6658
2.24787
2.81264
0.177143
0.188596
0.264537
0.319912
0.322235
0.316959
0.289043
0.237907
0.181097
0.125864
0.0788595
0.0443093
0.026917
0.0288477
0.0522096
0.0957946
0.157672
0.232856
0.126582
0.211505
0.230757
0.212612
0.21172
0.229993
0.23781
0.226529
0.206975
0.183074
0.157362
0.130554
0.105876
0.0845296
0.0682947
0.0587029
0.0557522
0.0586348
0.0974331
0.148799
0.159484
0.156802
0.167164
0.187554
0.199854
0.199536
0.193976
0.185972
0.176176
0.164356
0.152317
0.140695
0.131064
0.124325
0.122264
0.12235
0.0740836
0.104504
0.121908
0.130145
0.141632
0.157406
0.168574
0.172008
0.171999
0.170828
0.168658
0.165424
0.161888
0.158747
0.156989
0.157186
0.160831
0.165245
0.0561326
0.0774266
0.0970978
0.108597
0.119184
0.132089
0.142529
0.147811
0.150305
0.152002
0.153243
0.15397
0.154761
0.156064
0.158631
0.162574
0.169035
0.175398
0.0423926
0.0583369
0.0769856
0.0896213
0.100067
0.111468
0.121233
0.12728
0.130929
0.133817
0.136449
0.138863
0.14146
0.144575
0.1487
0.153762
0.160433
0.166616
0.0324685
0.0451185
0.0620874
0.0751804
0.085629
0.0960129
0.105071
0.111298
0.115436
0.118772
0.121863
0.124819
0.127926
0.131436
0.135653
0.140436
0.146179
0.151218
0.0245841
0.0347501
0.0499426
0.0631036
0.0735813
0.0832749
0.0917631
0.0980121
0.102408
0.105927
0.109117
0.112143
0.115211
0.118507
0.122205
0.126162
0.130603
0.134308
0.0176085
0.0257333
0.0389662
0.0516176
0.0619939
0.0711572
0.0791275
0.0852988
0.089837
0.0934218
0.0965442
0.0994062
0.102161
0.104933
0.107819
0.110693
0.1137
0.116006
0.0116875
0.0182546
0.0296317
0.0414036
0.0514532
0.0601319
0.0676123
0.073597
0.0781403
0.0816823
0.0846262
0.0871827
0.0894758
0.0915901
0.0935853
0.0953723
0.0970712
0.0981625
0.00691954
0.0123131
0.0220485
0.0327655
0.0423034
0.0505092
0.057523
0.063223
0.0676265
0.0710112
0.0736877
0.0758559
0.0776296
0.0790802
0.0802598
0.0811294
0.0817971
0.0819952
0.00338905
0.00793783
0.016351
0.0260322
0.0349593
0.0426824
0.0492389
0.0545786
0.058715
0.0618317
0.0641681
0.065907
0.0671648
0.0680179
0.068528
0.0687038
0.0686346
0.0682489
0.00120793
0.00521207
0.0127041
0.0215421
0.0298534
0.0370578
0.0431208
0.0480171
0.0517636
0.054501
0.0564292
0.0577197
0.0584953
0.0588441
0.0588394
0.0585279
0.0579682
0.0572335
0.000669747
0.00446694
0.011601
0.0200427
0.0279342
0.0346775
0.0402534
0.0446563
0.0479077
0.0501474
0.0515792
0.0523823
0.0526876
0.0525942
0.0521837
0.0515304
0.0506516
0.0497361
0.00203386
0.00607818
0.01367
0.0223852
0.0301591
0.0365741
0.0417766
0.0457573
0.0485106
0.0502129
0.0511219
0.0514428
0.0513111
0.0508302
0.050085
0.049159
0.0480432
0.046967
0.00471222
0.00941962
0.018139
0.0274927
0.0351414
0.0411648
0.0460107
0.0496048
0.0518804
0.0530832
0.0535394
0.0534617
0.0529737
0.0521831
0.0511808
0.0500565
0.0487825
0.0475964
0.00869653
0.0148649
0.0252738
0.0351968
0.0426948
0.0484388
0.0529124
0.055883
0.0573992
0.0579485
0.0579287
0.0574888
0.0566954
0.0556506
0.0544445
0.0531651
0.0517625
0.0504841
0.0139608
0.0239381
0.0362144
0.0444106
0.0508271
0.0571398
0.0622573
0.0648783
0.065415
0.0650272
0.0642886
0.0632655
0.0619651
0.060498
0.0589373
0.0573605
0.0556833
0.0541264
0.0214422
0.0423959
0.0593765
0.0605301
0.0597763
0.063804
0.0697299
0.0735482
0.0747899
0.0747758
0.0740165
0.0725126
0.0703434
0.0677843
0.0649716
0.0620673
0.0589866
0.0560725
0.0433172
0.0760682
0.0937833
0.104838
0.0973206
0.0903211
0.087785
0.0865023
0.0850278
0.0832278
0.080332
0.0758923
0.070077
0.0635245
0.0566475
0.0499345
0.0435355
0.0379211
0.080506
0.21315
0.0681037
0.0787768
0.16753
0.214973
0.214353
0.189555
0.158445
0.127851
0.0987431
0.0724077
0.050511
0.0347686
0.0262506
0.0257405
0.0333367
0.0489436
0.660032
0.124904
0.315915
0.505801
0.373268
0.295642
0.229503
0.141653
0.0605376
0.01163
0.010583
0.0681801
0.189166
0.374895
0.620436
0.923858
1.27124
1.66056
31.8778
71.0688
43.2484
18.2736
7.06938
2.67273
1.11445
1.00781
1.81695
3.28551
5.25814
7.63504
10.2763
13.1578
16.1299
19.2256
22.2428
25.2882
455.412
257.652
100.986
70.5594
91.6336
128.074
168.024
205.862
241.26
273.936
303.044
329.72
353.038
374.451
392.994
410.469
425.865
440.939
0
0
0
0
0
0
0
0
0
0
0
0
0
0
0
0
0
0
0
0
0
0
0
0
0
0
0
0
0
0
0
0
0
0
0
0
0
0
0
0
0
0
0
0
0
0
0
0
0
0
0
0
0
0
0
13.0637
13.839
14.5028
16.1664
17.3814
18.9331
20.5025
22.1726
23.924
25.7595
27.6807
29.6866
31.779
33.9582
36.2255
38.5816
41.0276
43.564
46.1917
48.911
51.7225
54.626
57.6216
60.7086
63.8867
67.1544
70.5108
73.9539
77.482
81.0923
84.7825
88.5488
92.3883
96.2964
100.27
104.302
108.39
112.526
116.706
120.922
125.169
129.438
133.724
138.017
142.311
146.595
150.863
155.104
159.31
163.47
167.575
171.612
175.572
179.44
183.206
186.852
190.366
193.73
196.929
199.952
202.798
205.475
207.983
210.321
212.48
214.456
216.24
217.825
219.203
220.369
221.315
222.036
222.527
222.782
222.796
222.565
222.086
221.354
220.367
219.122
217.618
215.853
213.827
211.54
208.994
206.186
203.119
199.794
196.214
192.378
188.274
184.033
179.465
174.677
169.658
164.446
159.041
153.441
147.663
141.719
135.622
129.385
123.021
116.542
109.964
103.304
96.5783
89.8048
83.0018
76.1874
69.3806
62.6003
55.8658
49.1962
42.6109
36.1296
29.7727
23.5644
17.5353
11.7461
6.43368
3.38417
6.59665
11.5791
16.699
21.7516
26.6841
31.4767
36.1206
40.6115
44.9477
49.1291
53.1562
57.0299
60.7499
64.3143
67.71
70.923
73.9041
76.6167
78.612
80.3221
75.3558
0
0.00378011
0.0190597
0.0483192
0.109679
0.208485
0.340381
0.496635
0.667856
0.846575
1.02908
1.21464
1.40367
1.59682
1.79439
1.99596
2.20047
2.40639
2.61199
2.81425
3.01041
3.18384
3.3163
3.46402
3.76001
4.31892
4.4834
4.57563
4.75138
5.00353
5.26998
5.51499
5.63867
5.80257
4.88852
4.14539
4.37861
5.13704
4.81523
5.26809
5.3686
5.12899
4.96871
4.86392
4.74982
4.62727
4.49963
4.36764
4.23249
4.09505
3.95623
3.81681
3.67752
3.53904
3.40202
3.26709
3.13491
3.00617
2.88164
2.76207
2.64833
2.54132
2.442
2.35141
2.27063
2.20077
2.14301
2.09853
2.06857
2.05439
2.05723
2.07835
2.11898
2.18035
2.26363
2.36995
2.50035
2.65583
2.8373
3.0456
3.28144
3.54539
3.83791
4.15937
4.5099
4.88956
5.29808
5.73496
6.19908
6.68842
7.20022
7.73043
8.27377
8.82367
9.37278
9.91342
10.4361
10.9249
11.3958
11.8701
12.3494
12.8406
13.345
13.8634
14.3958
14.9419
15.5011
16.0728
16.6567
17.2522
17.8588
18.476
19.1033
19.7399
20.3852
21.0386
21.6993
22.3662
23.038
23.7138
24.3932
25.0757
25.7601
26.4446
27.127
27.805
28.477
29.1411
29.7945
30.4445
31.077
31.6886
32.2809
32.8588
33.4156
33.9485
34.4553
34.9341
35.3835
35.8023
36.1879
36.5376
36.8481
37.1172
37.3427
37.5227
37.6552
37.7386
37.7714
37.7529
37.6821
37.5598
37.3873
37.1718
36.915
36.6076
36.2356
35.8298
35.3306
34.6759
33.938
33.1686
32.3948
31.6289
30.8761
30.14
29.4234
28.7289
28.0589
27.4154
26.8003
26.2157
25.6635
25.1489
24.6788
24.3133
24.0621
24.6777
25.9595
35.2811
0
0.0761314
0.190008
0.28048
0.374945
0.494835
0.653016
0.848549
1.07188
1.31163
1.55887
1.80832
2.05783
2.30693
2.55581
2.80418
3.05081
3.29327
3.52805
3.75049
3.95294
4.13688
4.30003
4.4671
4.64266
4.80998
4.88835
4.91012
4.93297
4.9826
5.042
5.09156
5.10049
5.03854
4.89436
4.8256
4.87368
5.00773
5.01729
5.0581
5.13905
5.20376
5.25728
5.36467
5.50521
5.67169
5.86141
6.07279
6.30456
6.55553
6.82472
7.11125
7.41441
7.73354
8.06815
8.41771
8.78181
9.16001
9.55194
9.95725
10.3756
10.8066
11.2501
11.7057
12.1732
12.6524
13.1431
13.645
14.1581
14.6821
15.217
15.7627
16.3192
16.8863
17.4641
18.0526
18.6518
19.2615
19.8818
20.5125
21.1536
21.8048
22.4657
23.1361
23.8151
24.5023
25.1968
25.898
26.605
27.3171
28.0334
28.7534
29.4771
30.2074
30.9518
31.7235
32.5398
33.4261
34.364
35.3191
36.2889
37.269
38.2582
39.2558
40.2606
41.2713
42.2862
43.3036
44.3219
45.3396
46.3556
47.3681
48.3761
49.3777
50.3717
51.3564
52.3305
53.2913
54.2362
55.1632
56.0714
56.9598
57.827
58.6693
59.483
60.2636
61.0084
61.7146
62.3798
63.0069
63.5801
64.0941
64.5529
64.9566
65.2989
65.5752
65.7819
65.9164
65.9773
65.9631
65.8713
65.6978
65.4387
65.0909
64.6534
64.1246
63.5048
62.7936
61.9925
61.1035
60.1313
59.0831
57.9628
56.7662
55.497
54.13
52.6641
51.1232
49.5531
48.0216
46.5255
45.0338
43.5497
42.0836
40.6436
39.2355
37.8646
36.535
35.2506
34.0147
32.8303
31.7007
30.6304
29.6301
28.7186
27.9783
27.5088
28.0126
29.9829
35.9512
0
0.250849
0.48471
0.649764
0.772048
0.890045
1.03387
1.21436
1.43012
1.67367
1.93581
2.2083
2.48508
2.76196
3.03568
3.30305
3.56029
3.80285
4.02534
4.22241
4.38996
4.52779
4.64313
4.74969
4.87236
5.00665
5.10321
5.16697
5.22018
5.27121
5.31884
5.36541
5.40237
5.41804
5.40875
5.45464
5.66974
5.99583
6.27941
6.60379
6.94573
7.25928
7.5762
7.91613
8.27903
8.66376
9.06988
9.49717
9.94535
10.414
10.9024
11.4102
11.9367
12.4813
13.0436
13.6232
14.2196
14.8325
15.4618
16.107
16.7682
17.4452
18.1379
18.8463
19.5706
20.3108
21.067
21.8395
22.6285
23.4343
24.2572
25.0976
25.9557
26.832
27.727
28.6409
29.5741
30.5268
31.4994
32.4921
33.5048
34.5377
35.5906
36.6633
37.7555
38.8668
39.9969
41.145
42.3106
43.4934
44.694
45.9145
47.1581
48.4302
49.737
51.0822
52.4628
53.8711
55.2979
56.7388
58.1924
59.6547
61.1232
62.5952
64.0685
65.54
67.0071
68.4666
69.9161
71.3531
72.7752
74.1802
75.5657
76.9295
78.2693
79.5833
80.8685
82.1216
83.339
84.5178
85.657
86.7551
87.8099
88.817
89.7711
90.667
91.5005
92.2683
92.9705
93.6036
94.1536
94.6124
94.9875
95.2723
95.4626
95.5529
95.5395
95.4195
95.1923
94.8563
94.4099
93.8489
93.1695
92.3692
91.4477
90.4042
89.241
87.9594
86.5654
85.0634
83.4566
81.744
79.9278
77.9964
75.9626
73.8542
71.6926
69.4897
67.2623
65.0368
62.8226
60.6165
58.4316
56.282
54.1793
52.1316
50.1461
48.2282
46.3833
44.6157
42.9302
41.333
39.8334
38.452
37.2269
36.2742
35.7522
36.3675
38.6298
43.3743
0
0.470904
0.825237
1.08341
1.24729
1.37009
1.4979
1.65044
1.83408
2.04756
2.28512
2.53921
2.80239
3.06806
3.33044
3.58405
3.82336
4.04272
4.23674
4.40145
4.53604
4.64473
4.73921
4.83042
4.93484
5.05701
5.1869
5.31376
5.43885
5.56514
5.69584
5.83012
5.96939
6.11137
6.26612
6.46821
6.75095
7.1067
7.49479
7.92152
8.37557
8.839
9.31712
9.81829
10.3444
10.8956
11.4717
12.0724
12.6978
13.3478
14.022
14.7204
15.4426
16.1886
16.958
17.7509
18.5671
19.4066
20.2695
21.1559
22.066
23.0002
23.9587
24.942
25.9505
26.9849
28.0457
29.1335
30.249
31.3929
32.5659
33.7687
35.002
36.2664
37.5628
38.8915
40.2532
41.6482
43.0769
44.5393
46.0357
47.5659
49.1297
50.7267
52.3566
54.0187
55.7125
57.4372
59.1918
60.9755
62.7884
64.6315
66.507
68.4175
70.3641
72.3437
74.3468
76.3628
78.3865
80.4176
82.4542
84.4927
86.5292
88.5599
90.5803
92.5861
94.5727
96.5359
98.4715
100.376
102.246
104.078
105.868
107.614
109.313
110.961
112.556
114.092
115.566
116.975
118.318
119.592
120.795
121.922
122.966
123.923
124.787
125.557
126.234
126.805
127.263
127.602
127.827
127.928
127.902
127.745
127.452
127.024
126.458
125.756
124.915
123.932
122.805
121.531
120.112
118.548
116.844
115.004
113.025
110.909
108.656
106.265
103.748
101.125
98.4105
95.6237
92.7842
89.9108
87.021
84.1312
81.2464
78.3726
75.527
72.7284
69.991
67.3271
64.7459
62.2557
59.8637
57.5773
55.4044
53.3562
51.4498
49.7191
48.223
47.108
46.5672
47.266
49.5844
53.3096
0
0.683944
1.13385
1.48728
1.70263
1.84016
1.95807
2.08249
2.22583
2.39259
2.5815
2.78772
3.00484
3.22613
3.44513
3.65577
3.85244
4.03022
4.18535
4.31608
4.42378
4.51383
4.59572
4.68113
4.78226
4.90379
5.04397
5.19936
5.36814
5.55061
5.74829
5.96322
6.19728
6.45305
6.73605
7.05984
7.4363
7.86606
8.34077
8.85819
9.41283
9.99609
10.6062
11.2449
11.9137
12.6129
13.3428
14.1033
14.8945
15.7166
16.5697
17.4539
18.3694
19.3163
20.2948
21.3053
22.348
23.4236
24.5325
25.6753
26.8529
28.066
29.3155
30.6025
31.9279
33.293
34.6988
36.1464
37.6372
39.1721
40.7524
42.3792
44.0536
45.7764
47.5487
49.3712
51.2444
53.1688
55.1447
57.1721
59.2509
61.3807
63.5608
65.7906
68.0691
70.395
72.7671
75.1838
77.6433
80.1437
82.6834
85.2615
87.8769
90.5283
93.2122
95.9219
98.6469
101.377
104.108
106.837
109.56
112.273
114.972
117.649
120.3
122.917
125.495
128.027
130.507
132.931
135.294
137.591
139.817
141.969
144.043
146.035
147.941
149.755
151.473
153.093
154.613
156.033
157.347
158.55
159.636
160.6
161.438
162.15
162.731
163.175
163.47
163.619
163.619
163.463
163.146
162.667
162.023
161.214
160.241
159.105
157.805
156.34
154.706
152.908
150.944
148.814
146.518
144.056
141.426
138.633
135.687
132.604
129.398
126.083
122.677
119.199
115.671
112.115
108.549
104.988
101.436
97.9011
94.4022
90.9602
87.5928
84.3149
81.1389
78.0759
75.1361
72.33
69.6701
67.1734
64.8661
62.7949
61.0367
59.7561
59.1528
59.8156
61.9402
64.7302
0
0.863419
1.36783
1.79722
2.06089
2.21731
2.33088
2.43147
2.53565
2.65242
2.78467
2.93093
3.08721
3.24841
3.40919
3.56453
3.71007
3.84245
3.95968
4.06171
4.15088
4.2322
4.31301
4.40193
4.50773
4.63655
4.79082
4.97034
5.1747
5.4042
5.65988
5.94298
6.25508
6.59818
6.97576
7.39349
7.85674
8.36795
8.92635
9.53072
10.1781
10.8645
11.5875
12.3467
13.1427
13.9757
14.8462
15.7546
16.7013
17.6867
18.7112
19.7755
20.8801
22.0258
23.2134
24.4438
25.7179
27.037
28.4022
29.815
31.2767
32.789
34.3534
35.9717
37.6457
39.3772
41.1679
43.0197
44.9343
46.9134
48.9588
51.0719
53.2541
55.5067
57.8308
60.2272
62.6965
65.2391
67.855
70.5439
73.3053
76.1382
79.0414
82.0133
85.052
88.1552
91.3204
94.5447
97.8246
101.157
104.537
107.962
111.428
114.929
118.459
122.009
125.567
129.123
132.671
136.204
139.718
143.206
146.662
150.077
153.443
156.751
159.994
163.162
166.249
169.248
172.152
174.955
177.652
180.238
182.709
185.058
187.281
189.372
191.328
193.146
194.826
196.366
197.76
199.003
200.09
201.015
201.777
202.378
202.803
203.056
203.126
203.019
202.727
202.244
201.567
200.696
199.631
198.374
196.927
195.293
193.472
191.463
189.263
186.873
184.29
181.515
178.547
175.389
172.056
168.555
164.9
161.103
157.181
153.149
149.026
144.831
140.589
136.32
132.047
127.785
123.541
119.323
115.152
111.049
107.033
103.123
99.3339
95.6794
92.1733
88.8298
85.6661
82.7054
79.9824
77.5544
75.5104
74.0199
73.2673
73.7537
75.4756
77.3784
0
0.99594
1.50556
1.97884
2.27572
2.44763
2.5586
2.63984
2.71015
2.78157
2.86033
2.94817
3.04398
3.14513
3.24839
3.35061
3.44917
3.54234
3.62958
3.71177
3.79134
3.87243
3.96055
4.06203
4.18319
4.32919
4.50343
4.7078
4.94337
5.21107
5.512
5.84742
6.21877
6.62772
7.0764
7.56764
8.1043
8.68851
9.32128
10.0027
10.7318
11.507
12.3271
13.1914
14.1003
15.054
16.0532
17.0987
18.1912
19.3318
20.5215
21.7614
23.0529
24.3973
25.7963
27.2514
28.7645
30.3376
31.9729
33.6726
35.439
37.2747
39.1822
41.164
43.2228
45.3612
47.5818
49.8872
52.2797
54.7616
57.3352
60.0023
62.7647
65.6238
68.5809
71.6367
74.7917
78.0459
81.3991
84.8504
88.3984
92.0415
95.7774
99.6033
103.516
107.512
111.586
115.735
119.952
124.232
128.568
132.954
137.383
141.847
146.335
150.836
155.338
159.829
164.299
168.74
173.144
177.502
181.805
186.043
190.204
194.277
198.253
202.12
205.87
209.493
212.982
216.329
219.528
222.571
225.455
228.171
230.714
233.079
235.262
237.264
239.081
240.713
242.153
243.397
244.44
245.279
245.915
246.341
246.552
246.55
246.329
245.898
245.244
244.361
243.25
241.915
240.358
238.581
236.587
234.378
231.956
229.317
226.462
223.389
220.101
216.604
212.906
209.016
204.943
200.699
196.298
191.752
187.079
182.295
177.421
172.477
167.486
162.472
157.458
152.462
147.494
142.565
137.694
132.904
128.215
123.648
119.221
114.95
110.853
106.948
103.257
99.8079
96.6434
93.8284
91.4571
89.6939
88.6928
88.8729
90.0378
91.0961
0
1.08117
1.54576
2.02624
2.33482
2.51292
2.61904
2.68378
2.72648
2.76087
2.79547
2.83463
2.87984
2.93091
2.98685
3.04645
3.10878
3.17349
3.24096
3.31253
3.39032
3.47747
3.57795
3.69625
3.83693
4.00412
4.2012
4.4307
4.69455
4.99435
5.3316
5.70775
6.12432
6.58292
7.08531
7.63346
8.22941
8.87502
9.57166
10.3203
11.1211
11.9741
12.8791
13.8364
14.8466
15.9103
17.0287
18.203
19.4346
20.7254
22.077
23.4915
24.971
26.5179
28.1348
29.8242
31.5891
33.4325
35.3577
37.368
39.4669
41.6579
43.9446
46.3307
48.8197
51.4152
54.1206
56.9391
59.8739
62.9278
66.1034
69.403
72.8286
76.3816
80.0631
83.8738
87.8137
91.8824
96.0787
100.401
104.847
109.414
114.098
118.895
123.799
128.806
133.908
139.099
144.371
149.715
155.121
160.582
166.085
171.62
177.174
182.733
188.282
193.808
199.297
204.738
210.121
215.434
220.663
225.797
230.82
235.721
240.486
245.102
249.559
253.846
257.952
261.868
265.587
269.101
272.403
275.486
278.342
280.968
283.362
285.522
287.447
289.135
290.58
291.779
292.729
293.428
293.876
294.065
293.994
293.668
293.086
292.253
291.156
289.794
288.167
286.282
284.142
281.753
279.117
276.237
273.112
269.748
266.148
262.319
258.265
253.996
249.518
244.845
239.985
234.952
229.758
224.421
218.955
213.38
207.715
201.982
196.205
190.41
184.62
178.857
173.132
167.46
161.859
156.353
150.963
145.712
140.62
135.707
130.993
126.499
122.252
118.286
114.647
111.406
108.657
106.55
105.203
104.966
105.468
105.729
0
1.12475
1.5007
1.9535
2.25183
2.42407
2.52057
2.5698
2.59049
2.59688
2.59875
2.60218
2.61067
2.62599
2.64909
2.6802
2.71958
2.76772
2.82536
2.89404
2.97561
3.07252
3.18763
3.32412
3.48529
3.67439
3.89438
4.14788
4.4372
4.76438
5.13132
5.53986
5.9918
6.48895
7.03315
7.62635
8.27051
8.96751
9.71902
10.5266
11.3909
12.3137
13.2957
14.3383
15.4427
16.6104
17.8433
19.1434
20.5131
21.9551
23.4723
25.0678
26.7448
28.5068
30.3576
32.301
34.3413
36.4828
38.7301
41.0877
43.5605
46.1532
48.8706
51.7173
54.698
57.8171
61.0788
64.4871
68.0457
71.7578
75.6264
79.6538
83.8419
88.192
92.7049
97.3806
102.218
107.217
112.374
117.687
123.152
128.764
134.518
140.407
146.424
152.562
158.811
165.162
171.603
178.123
184.71
191.351
198.033
204.74
211.457
218.167
224.852
231.498
238.086
244.604
251.035
257.366
263.581
269.664
275.598
281.367
286.957
292.353
297.541
302.508
307.243
311.735
315.975
319.954
323.664
327.095
330.242
333.102
335.673
337.954
339.943
341.637
343.033
344.128
344.921
345.412
345.597
345.475
345.045
344.313
343.284
341.958
340.324
338.383
336.142
333.606
330.781
327.676
324.295
320.648
316.738
312.574
308.163
303.511
298.629
293.525
288.209
282.694
276.992
271.117
265.082
258.904
252.599
246.187
239.687
233.124
226.521
219.906
213.304
206.738
200.222
193.774
187.413
181.161
175.042
169.079
163.295
157.712
152.352
147.241
142.41
137.895
133.747
130.036
126.854
124.333
122.552
121.807
121.579
121.098
0
1.13607
1.3906
1.7879
2.05679
2.21123
2.29233
2.32548
2.32816
2.31434
2.29429
2.27509
2.26121
2.25549
2.2599
2.2759
2.30463
2.3471
2.40442
2.47788
2.56894
2.67938
2.81127
2.96688
3.1487
3.35932
3.60132
3.87723
4.1895
4.54045
4.93237
5.36747
5.84793
6.3759
6.95356
7.5832
8.26713
9.00765
9.80712
10.6677
11.592
12.5818
13.6392
14.7662
15.9652
17.2388
18.5902
20.0226
21.5398
23.1458
24.8447
26.641
28.5393
30.5446
32.6619
34.8967
37.2548
39.742
42.3643
45.1279
48.0387
51.103
54.3265
57.715
61.2741
65.009
68.9245
73.0251
77.3146
81.7966
86.4738
91.3483
96.4217
101.694
107.167
112.837
118.704
124.764
131.014
137.449
144.064
150.851
157.803
164.91
172.164
179.553
187.064
194.687
202.405
210.205
218.069
225.984
233.931
241.893
249.85
257.783
265.671
273.496
281.237
288.878
296.4
303.784
311.013
318.067
324.927
331.576
337.996
344.169
350.081
355.717
361.063
366.107
370.839
375.248
379.324
383.059
386.447
389.486
392.176
394.514
396.5
398.13
399.402
400.315
400.87
401.065
400.902
400.376
399.493
398.259
396.682
394.756
392.474
389.848
386.884
383.594
379.987
376.075
371.866
367.37
362.598
357.558
352.262
346.718
340.938
334.933
328.716
322.299
315.696
308.922
301.991
294.92
287.727
280.428
273.048
265.609
258.139
250.665
243.214
235.809
228.469
221.213
214.059
207.032
200.156
193.454
186.952
180.672
174.641
168.887
163.441
158.345
153.651
149.428
145.758
142.757
140.467
139.146
138.152
136.982
0
1.12625
1.23878
1.56192
1.78707
1.91365
1.9737
1.98935
1.97671
1.94888
1.91569
1.88449
1.86036
1.84684
1.84645
1.86074
1.89099
1.93824
2.00346
2.08765
2.19204
2.318
2.46709
2.64111
2.8421
3.07228
3.33403
3.62983
3.96224
4.33387
4.74739
5.20546
5.71073
6.26589
6.87372
7.53715
8.25921
9.04275
9.89104
10.8071
11.7953
12.8579
13.9984
15.2203
16.5269
17.9226
19.412
21.0002
22.6928
24.4953
26.4137
28.4537
30.6217
32.9244
35.3685
37.9613
40.7102
43.6227
46.7065
49.9691
53.4178
57.0599
60.9022
64.9514
69.2135
73.6942
78.3985
83.3308
88.4948
93.8935
99.5289
105.402
111.514
117.864
124.449
131.268
138.316
145.588
153.079
160.781
168.685
176.783
185.064
193.515
202.123
210.875
219.755
228.748
237.834
246.996
256.214
265.471
274.744
284.013
293.256
302.448
311.567
320.591
329.499
338.268
346.878
355.307
363.533
371.535
379.291
386.783
393.99
400.893
407.476
413.721
419.614
425.143
430.296
435.06
439.425
443.383
446.929
450.062
452.782
455.086
456.974
458.442
459.489
460.118
460.329
460.124
459.5
458.463
457.013
455.164
452.923
450.28
447.243
443.826
440.041
435.901
431.422
426.614
421.49
416.062
410.347
404.354
398.098
391.59
384.843
377.87
370.686
363.304
355.74
348.01
340.128
332.112
323.978
315.746
307.438
299.08
290.701
282.329
273.992
265.716
257.52
249.425
241.451
233.623
225.963
218.499
211.255
204.255
197.529
191.105
185.019
179.312
174.037
169.259
165.053
161.514
158.655
156.711
154.931
153.123
0
1.10529
1.06763
1.30732
1.48006
1.57188
1.60671
1.60339
1.57656
1.53872
1.49945
1.46562
1.44193
1.43166
1.43699
1.45947
1.5001
1.55966
1.63886
1.73847
1.8593
2.00246
2.1693
2.3614
2.58067
2.82927
3.10957
3.42419
3.77592
4.16778
4.60292
5.08458
5.61606
6.20071
6.84228
7.54471
8.31202
9.14874
10.0591
11.0469
12.1166
13.2732
14.5219
15.868
17.3173
18.8757
20.5499
22.3473
24.2751
26.3411
28.5529
30.9182
33.4451
36.1423
39.0186
42.0831
45.345
48.8134
52.4974
56.4057
60.5465
64.9278
69.5568
74.4404
79.5846
84.9946
90.6748
96.6288
102.859
109.367
116.154
123.218
130.558
138.171
146.053
154.198
162.6
171.251
180.141
189.261
198.598
208.14
217.873
227.781
237.847
248.055
258.385
268.816
279.329
289.901
300.51
311.133
321.748
332.327
342.847
353.281
363.603
373.79
383.816
393.658
403.291
412.692
421.835
430.699
439.26
447.497
455.388
462.914
470.056
476.796
483.119
489.012
494.462
499.456
503.984
508.037
511.614
514.713
517.334
519.473
521.131
522.304
522.993
523.202
522.935
522.19
520.982
519.301
517.163
514.576
511.553
508.075
504.173
499.861
495.154
490.068
484.621
478.827
472.702
466.261
459.523
452.503
445.214
437.672
429.891
421.885
413.671
405.265
396.682
387.94
379.055
370.043
360.921
351.71
342.432
333.115
323.788
314.483
305.23
296.053
286.974
278.015
269.197
260.544
252.082
243.835
235.83
228.092
220.65
213.537
206.787
200.443
194.557
189.189
184.403
180.281
176.807
174.207
171.64
169.24
0
1.08168
0.896211
1.05188
1.16945
1.22275
1.22936
1.20597
1.16636
1.12193
1.08152
1.05133
1.03551
1.03657
1.05596
1.09445
1.15246
1.23032
1.32834
1.44706
1.58713
1.74953
1.93557
2.14691
2.38558
2.65395
2.9547
3.29065
3.66521
4.08201
4.54502
5.0585
5.62678
6.25515
6.94795
7.71042
8.54779
9.46552
10.4693
11.5655
12.7607
14.0625
15.4784
17.0162
18.684
20.4906
22.4449
24.5563
26.8346
29.2895
31.9304
34.7674
37.8105
41.0705
44.5582
48.2846
52.26
56.4949
60.9988
65.7808
70.8492
76.2116
81.8745
87.8437
94.1238
100.718
107.63
114.859
122.407
130.271
138.45
146.939
155.734
164.828
174.212
183.879
193.818
204.016
214.461
225.139
236.035
247.131
258.41
269.853
281.439
293.147
304.955
316.84
328.778
340.744
352.711
364.656
376.55
388.367
400.078
411.655
423.071
434.299
445.314
456.089
466.598
476.815
486.715
496.275
505.468
514.273
522.669
530.635
538.151
545.199
551.765
557.835
563.394
568.429
572.931
576.893
580.315
583.196
585.536
587.33
588.582
589.284
589.449
589.076
588.166
586.745
584.796
582.332
579.369
575.917
571.971
567.541
562.659
557.343
551.61
545.479
538.972
532.104
524.894
517.362
509.528
501.411
493.024
484.385
475.508
466.412
457.114
447.63
437.979
428.178
418.245
408.194
398.045
387.816
377.532
367.222
356.919
346.654
336.459
326.36
316.38
306.539
296.861
287.371
278.092
269.051
260.273
251.785
243.616
235.798
228.368
221.368
214.846
208.859
203.462
198.721
194.601
191.328
187.981
185.036
0
1.06223
0.738324
0.815696
0.879398
0.893838
0.872002
0.828913
0.777913
0.73004
0.693252
0.672663
0.671172
0.690129
0.729911
0.790374
0.871207
0.972171
1.09325
1.23477
1.39733
1.58208
1.79059
2.02496
2.28778
2.58212
2.91141
3.27971
3.69122
4.15066
4.6633
5.23474
5.87095
6.57799
7.36273
8.23269
9.19522
10.2581
11.4303
12.721
14.1399
15.6975
17.4044
19.2716
21.3104
23.5322
25.9486
28.5715
31.4127
34.4836
37.796
41.3614
45.1924
49.3012
53.6999
58.4
63.4123
68.7463
74.4108
80.4132
86.76
93.4562
100.506
107.911
115.673
123.792
132.265
141.091
150.265
159.78
169.63
179.806
190.299
201.097
212.188
223.558
235.193
247.075
259.188
271.515
284.035
296.729
309.576
322.552
335.636
348.802
362.027
375.284
388.548
401.788
414.978
428.09
441.096
453.966
466.671
479.182
491.471
503.511
515.275
526.734
537.864
548.637
559.028
569.013
578.566
587.664
596.287
604.416
612.031
619.113
625.647
631.622
637.024
641.839
646.061
649.685
652.712
655.138
656.968
658.19
658.821
658.846
658.28
657.127
655.41
653.117
650.261
646.857
642.918
638.449
633.435
627.927
621.946
615.512
608.647
601.374
593.716
585.691
577.32
568.626
559.633
550.359
540.82
531.03
521.009
510.776
500.35
489.748
478.991
468.096
457.081
445.961
434.755
423.482
412.169
400.846
389.547
378.307
367.159
356.128
345.239
334.511
323.969
313.637
303.54
293.704
284.152
274.911
266.011
257.484
249.366
241.699
234.527
227.903
221.872
216.489
211.707
207.755
203.646
200.204
0
1.04949
0.598789
0.60716
0.621142
0.598196
0.549136
0.488838
0.430499
0.384289
0.356921
0.352051
0.371077
0.413915
0.479742
0.567464
0.676122
0.805166
0.954609
1.12506
1.31775
1.53448
1.77759
2.05021
2.35618
2.6999
3.08629
3.52062
4.00922
4.55922
5.17884
5.87643
6.66094
7.54162
8.52843
9.6319
10.864
12.2377
13.7662
15.4625
17.3403
19.4138
21.6976
24.2065
26.9549
29.9566
33.2256
36.7754
40.6188
44.7672
49.2338
54.0314
59.1729
64.6699
70.5329
76.7706
83.3902
90.3974
97.7959
105.588
113.775
122.355
131.326
140.684
150.424
160.539
171.02
181.859
193.044
204.563
216.403
228.549
240.987
253.701
266.672
279.883
293.314
306.945
320.755
334.724
348.83
363.049
377.358
391.733
406.148
420.578
434.996
449.376
463.688
477.904
491.997
505.939
519.702
533.257
546.574
559.625
572.382
584.819
596.909
608.626
619.943
630.836
641.282
651.255
660.732
669.689
678.108
685.971
693.262
699.961
706.055
711.536
716.389
720.603
724.176
727.103
729.393
731.028
732.033
732.385
732.117
731.168
729.631
727.465
724.686
721.308
717.344
712.798
707.717
702.03
695.807
689.074
681.858
674.182
666.07
657.551
648.647
639.382
629.774
619.85
609.636
599.152
588.408
577.418
566.204
554.789
543.192
531.431
519.527
507.499
495.364
483.138
470.837
458.484
446.108
433.74
421.42
409.185
397.066
385.09
373.278
361.652
350.236
339.054
328.133
317.494
307.163
297.164
287.526
278.282
269.466
261.119
253.284
246.004
239.321
233.28
227.823
223.193
218.335
214.457
0
1.03535
0.484027
0.440345
0.415249
0.363647
0.295798
0.226832
0.169691
0.133432
0.123077
0.14047
0.185418
0.256695
0.352686
0.471879
0.613323
0.776916
0.963515
1.17483
1.41318
1.68179
1.98504
2.32859
2.71933
3.16471
3.6727
4.25204
4.91286
5.66688
6.52669
7.50674
8.6217
9.88628
11.3161
12.929
14.7434
16.7784
19.0522
21.5821
24.3856
27.4804
30.8845
34.6149
38.6861
43.1116
47.9048
53.0776
58.6417
64.6037
70.9751
77.7656
84.9826
92.6306
100.712
109.226
118.171
127.543
137.336
147.541
158.151
169.154
180.539
192.292
204.4
216.848
229.62
242.699
256.068
269.71
283.605
297.734
312.079
326.62
341.337
356.208
371.213
386.328
401.534
416.809
432.129
447.472
462.815
478.133
493.401
508.591
523.679
538.64
553.448
568.076
582.5
596.692
610.626
624.277
637.616
650.618
663.256
675.506
687.34
698.736
709.671
720.123
730.071
739.493
748.366
756.67
764.389
771.514
778.023
783.901
789.133
793.712
797.625
800.868
803.436
805.327
806.556
807.09
806.959
806.109
804.623
802.476
799.677
796.237
792.173
787.506
782.238
776.416
769.973
762.959
755.408
747.354
738.821
729.837
720.432
710.635
700.474
689.97
679.142
668.018
656.626
644.982
633.091
620.962
608.62
596.093
583.399
570.555
557.581
544.499
531.321
518.062
504.739
491.377
478.006
464.661
451.378
438.192
425.146
412.266
399.574
387.091
374.84
362.847
351.138
339.733
328.657
317.931
307.584
297.648
288.157
279.149
270.662
262.738
255.409
248.715
242.593
237.305
231.717
227.491
0
1.01329
0.398012
0.326996
0.2806
0.214889
0.141665
0.0764689
0.0313542
0.0135951
0.0262762
0.0696544
0.142675
0.243911
0.372026
0.526189
0.706742
0.915755
1.15687
1.43481
1.75503
2.12416
2.55127
3.04787
3.62735
4.30357
5.09192
6.00836
7.07168
8.30352
9.72831
11.3707
13.2544
15.4017
17.8353
20.58
23.6609
27.1031
30.9275
35.1522
39.7915
44.8598
50.3711
56.3365
62.7657
69.6647
77.0393
84.8874
93.2022
101.987
111.244
120.969
131.151
141.779
152.839
164.318
176.198
188.461
201.091
214.067
227.372
240.984
254.885
269.054
283.471
298.117
312.972
328.017
343.231
358.595
374.09
389.698
405.399
421.175
437.006
452.875
468.761
484.645