/*--------------------------------*- C++ -*----------------------------------*\
  =========                 |
  \\      /  F ield         | OpenFOAM: The Open Source CFD Toolbox
   \\    /   O peration     | Website:  https://openfoam.org
    \\  /    A nd           | Version:  9
     \\/     M anipulation  |
\*---------------------------------------------------------------------------*/
FoamFile
{
    format      ascii;
    class       volScalarField;
    location    "0.85";
    object      alpha.water;
}
// * * * * * * * * * * * * * * * * * * * * * * * * * * * * * * * * * * * * * //

dimensions      [0 0 0 0 0 0 0];

internalField   nonuniform List<scalar> 
2268
(
1
1
1
1
1
1
1
1
1
1
1
1
1
0.999999
0.999992
0.999913
0.984945
0.964677
0.964677
0.964677
0.964687
0.987871
0.999767
1
1
1
1
1
1
1
1
1
1
1
1
1
1
1
0.999998
0.999479
0.991667
0.977791
0.973721
0.981933
0.992443
0.999768
1
1
1
1
1
1
1
1
1
1
1
1
1
1
1
1
1
1
1
1
1
1
0.99977
1
1
1
1
1
1
1
1
1
1
1
1
1
1
1
1
1
1
1
1
0.999997
0.999936
0.999665
1
1
1
1
1
1
1
1
1
1
1
1
1
1
1
1
1
1
1
1
0.999975
0.999754
0.999665
1
1
1
1
1
1
1
1
1
1
1
1
1
1
1
1
1
1
1
0.999997
0.999972
0.99975
0.999694
1
1
1
1
0.999992
0.999992
0.999992
0.999998
1
1
1
1
1
1
1
1
1
0.999999
0.999992
0.999972
0.999936
0.999809
0.999721
1
1
1
1
0.999997
0.999995
0.999997
0.999999
0.999995
0.999986
0.999985
0.999991
1
1
0.999999
0.999999
0.999998
0.999987
0.999908
0.999777
0.999757
0.999721
0.999698
0.996359
0.983407
0.983342
0.984647
0.996871
0.997072
0.997083
0.997061
0.996913
0.9963
0.995005
0.991987
0.96425
0.926988
0.914527
0.941511
0.944123
0.944781
0.936645
0.993371
0.983398
0.986394
0.996946
0.997017
0.997093
0.99707
0.996833
0.99018
0.974052
0.950935
0.934896
0.962259
0.958648
0.912129
0.910455
0.910577
0.92054
0.959634
0.996456
0.992199
0.996778
0.996865
0.996942
0.996908
0.995264
0.994957
0.987596
0.91549
0.815387
0.792906
0.860584
0.92541
0.927884
0.927706
0.910801
0.910383
0.929166
0.997347
0.997295
0.996844
0.996782
0.996827
0.993008
0.949334
0.941406
0.953054
0.873959
0.799636
0.792714
0.792671
0.806413
0.918611
0.932033
0.932175
0.91121
0.877108
0.997348
0.997398
0.997038
0.996555
0.894761
0.492705
0.36178
0.355882
0.535904
0.722901
0.798903
0.807324
0.806697
0.779027
0.80401
0.932322
0.932279
0.932259
0.898095
0.997347
0.997262
0.995476
0.796044
0.157587
0.0632899
0.0695521
0.0751508
0.182238
0.75043
0.803867
0.807324
0.804035
0.769097
0.847012
0.924523
0.932207
0.93141
0.929369
0.997209
0.99711
0.897682
0.201132
0.0625841
0.0624263
0.0633173
0.0695424
0.370648
0.781217
0.806386
0.790259
0.612864
0.778253
0.869525
0.915248
0.929807
0.92959
0.928008
0.996442
0.996239
0.844631
0.0625848
0.0624273
0.0625722
0.0625129
0.0779533
0.542313
0.778068
0.798019
0.394889
0.10784
0.343142
0.690147
0.798345
0.750652
0.751523
0.891452
1
1
1
1
1
1
1
1
1
1
0.999999
0.999999
0.999984
0.99997
0.999972
0.999981
0.999969
0.999835
0.999144
0.998396
0.998513
0.99899
0.999331
0.914387
0.871693
0.834104
0.814908
0.82201
0.847735
0.882486
0.922538
0.965553
0.996721
0.999999
0.999999
0.999998
0.999986
0.999587
0.999485
0.999024
0.997463
0.984291
0.929384
0.88225
0.97318
0.993916
0.239154
0.180488
0.142192
0.12552
0.129306
0.150165
0.182679
0.225124
0.273055
0.32097
0.380279
0.454894
0.563618
0.671067
0.728971
0.746011
0.746411
0.719185
0.541293
0.363625
0.545915
0.894905
0.559019
0.00244167
0.00155992
0.00125338
0.000976805
0.000751482
0.000586373
0.000482003
0.000480415
0.000391818
0.000226235
0.00014148
0.000903396
0.00214199
0.0010721
0.000540636
0.0129259
0.0583317
0.0763132
0.0558741
0.136298
0.544612
0.565301
0.0215085
0.000281705
0.000171851
0.000137346
0.000101574
6.98627e-05
4.67268e-05
3.02632e-05
1.88113e-05
1.11986e-05
6.48625e-06
3.55121e-06
2.07497e-06
3.8137e-06
1.67529e-05
4.01696e-05
0.000311748
0.001208
0.00377165
0.023542
0.291562
0.515729
0.226789
0.00310533
3.08753e-05
1.93027e-05
1.53763e-05
1.09497e-05
6.96283e-06
4.1535e-06
2.33326e-06
1.24176e-06
6.35437e-07
3.21291e-07
1.73708e-07
1.72397e-07
9.99738e-07
2.89589e-06
1.57884e-05
0.000102068
0.000546385
0.00244624
0.00943649
0.173375
0.439926
0.15699
0.00268376
3.25161e-06
2.13128e-06
1.69758e-06
1.18002e-06
7.13093e-07
3.94909e-07
2.02306e-07
9.67735e-08
4.48949e-08
2.12422e-08
1.21526e-08
3.26382e-08
1.76164e-07
9.8256e-07
8.05066e-06
5.32008e-05
0.000299738
0.0012881
0.00421132
0.040581
0.253738
0.312985
0.0605056
3.28851e-07
2.28963e-07
1.82635e-07
1.2522e-07
7.34734e-08
3.88922e-08
1.88528e-08
8.51265e-09
3.71981e-09
1.71748e-09
1.15858e-09
6.13878e-09
3.26595e-08
3.4528e-07
3.24692e-06
2.19507e-05
0.000119987
0.000525338
0.00193408
0.0149559
0.208852
0.313684
0.275435
3.19808e-08
2.37522e-08
1.90252e-08
1.29796e-08
7.51591e-09
3.8942e-09
1.84144e-09
8.06928e-10
3.43088e-10
1.55471e-10
1.17239e-10
8.63987e-10
7.03521e-09
1.08487e-07
1.01048e-06
6.96829e-06
3.80874e-05
0.00017536
0.000741984
0.00295748
0.089903
0.321025
0.327667
2.99964e-09
2.376e-09
1.91818e-09
1.31085e-09
7.55616e-10
3.88956e-10
1.84003e-10
8.88812e-11
3.81122e-11
1.61655e-11
8.78879e-12
8.52184e-11
7.87466e-10
1.27594e-08
1.46438e-07
1.23424e-06
7.78515e-06
3.80499e-05
0.000158935
0.000668408
0.00745393
0.179069
0.326839
2.70879e-10
2.28648e-10
1.87478e-10
1.34281e-10
8.49948e-11
4.68392e-11
2.27849e-11
1.70371e-11
6.93664e-12
8.13258e-13
3.23727e-13
3.17256e-12
8.295e-11
1.35315e-09
1.89042e-08
1.88922e-07
1.31556e-06
6.06927e-06
2.29187e-05
8.11597e-05
0.000229478
0.00655387
0.226172
2.80185e-11
2.58379e-11
2.19309e-11
1.70448e-11
1.63886e-11
1.20374e-11
6.25021e-12
1.79493e-12
2.70369e-13
-2.47108e-12
-1.17324e-11
-8.27106e-15
3.17318e-12
1.53102e-10
2.33538e-09
2.60625e-08
2.01572e-07
9.63872e-07
3.52851e-06
1.1049e-05
2.81106e-05
3.64682e-05
0.000242496
5.30483e-12
5.64807e-12
5.20109e-12
4.20239e-12
2.97523e-12
1.60651e-12
3.09387e-13
5.2402e-14
-2.3551e-12
-7.28206e-12
-1.34257e-11
-1.48053e-11
0
2.32134e-11
3.10837e-10
3.34113e-09
2.88014e-08
1.43779e-07
5.14349e-07
1.48798e-06
4.36717e-06
1.55966e-05
9.08572e-06
6.83371e-13
7.43367e-13
6.77099e-13
4.98372e-13
2.38843e-13
3.79392e-14
0
-1.00565e-12
-2.74336e-12
-5.19423e-12
-8.26967e-12
-1.07149e-11
-1.6448e-12
1.9228e-12
4.65596e-11
4.60328e-10
4.00034e-09
2.04638e-08
7.41322e-08
2.09125e-07
4.53176e-07
1.06729e-06
3.61876e-06
5.3078e-14
5.90181e-14
4.98596e-14
2.51559e-14
4.77462e-15
-3.5076e-14
-3.11776e-13
-7.77218e-13
-1.49502e-12
-2.50702e-12
-3.81815e-12
-5.15638e-12
-4.26647e-12
-9.41073e-28
6.03226e-12
7.45621e-11
5.33765e-10
2.77601e-09
1.01252e-08
2.84537e-08
6.04567e-08
1.08262e-07
1.84749e-07
2.88156e-15
3.645e-15
2.05683e-15
6.33392e-16
-1.56102e-14
-7.45233e-14
-1.75636e-13
-3.37926e-13
-5.87221e-13
-9.45022e-13
-1.42963e-12
-1.98395e-12
-2.17428e-12
-2.86389e-29
7.80072e-13
9.76321e-12
8.32975e-11
3.59273e-10
1.29852e-09
3.67847e-09
7.78452e-09
1.24073e-08
1.9183e-08
7.31391e-17
8.42495e-17
0
-3.69928e-15
-1.47789e-14
-3.32102e-14
-6.29793e-14
-1.10276e-13
-1.84253e-13
-2.9324e-13
-4.48313e-13
-6.3936e-13
-7.88902e-13
-4.11902e-13
1.10631e-14
1.14384e-12
1.0147e-11
5.21255e-11
1.72326e-10
4.35967e-10
9.27099e-10
1.47308e-09
2.23429e-09
-2.87943e-16
-1.0902e-16
-6.45293e-16
-2.35533e-15
-5.44748e-15
-1.01564e-14
-1.75354e-14
-2.93113e-14
-4.82106e-14
-7.68616e-14
-1.19713e-13
-1.75679e-13
-2.32286e-13
-2.02281e-13
0
1.02904e-13
1.03101e-12
5.6932e-12
2.12307e-11
5.77393e-11
1.15224e-10
1.74343e-10
2.41761e-10
-1.92085e-16
-1.36903e-16
-3.04125e-16
-7.47981e-16
-1.4606e-15
-2.481e-15
-4.05079e-15
-6.58238e-15
-1.07592e-14
-1.72704e-14
-2.74871e-14
-4.15108e-14
-5.76586e-14
-6.21349e-14
-3.068e-15
1.15803e-15
9.18492e-14
5.29926e-13
2.09263e-12
5.9422e-12
1.26306e-11
2.41663e-11
3.47872e-11
-5.9138e-17
-4.51144e-17
-8.48958e-17
-1.80286e-16
-3.20744e-16
-5.11642e-16
-8.01251e-16
-1.27421e-15
-2.07579e-15
-3.35754e-15
-5.46035e-15
-8.4741e-15
-1.22399e-14
-1.48441e-14
-6.90059e-15
-3.04334e-17
7.56305e-15
4.35233e-14
1.89866e-13
6.96376e-13
2.10487e-12
4.91601e-12
9.65134e-12
-1.40113e-17
-1.07608e-17
-1.86457e-17
-3.62867e-17
-6.03964e-17
-9.15285e-17
-1.38149e-16
-2.15273e-16
-3.49278e-16
-5.68278e-16
-9.42318e-16
-1.49864e-15
-2.23543e-15
-2.92246e-15
-2.13439e-15
-1.19159e-31
5.26469e-16
3.16325e-15
1.36231e-14
5.58015e-14
2.05798e-13
5.61901e-13
1.41722e-12
-2.82279e-18
-2.12985e-18
-3.47665e-18
-6.33731e-18
-9.97731e-18
-1.44255e-17
-2.09962e-17
-3.20058e-17
-5.15701e-17
-8.41061e-17
-1.41671e-16
-2.29963e-16
-3.52097e-16
-4.84508e-16
-4.4124e-16
-4.2706e-19
1.74373e-17
1.99238e-16
8.08449e-16
3.12079e-15
1.13669e-14
3.33888e-14
1.02233e-13
-5.01508e-19
-3.66799e-19
-5.68196e-19
-9.79108e-19
-1.46499e-18
-2.02269e-18
-2.83433e-18
-4.21249e-18
-6.71161e-18
-1.09203e-17
-1.85925e-17
-3.06444e-17
-4.78612e-17
-6.824e-17
-7.06898e-17
-1.18367e-17
-2.99348e-20
1.13469e-17
4.48777e-17
1.55518e-16
5.33132e-16
1.99399e-15
1.33706e-14
-7.99009e-20
-5.61821e-20
-8.27425e-20
-1.35324e-19
-1.92776e-19
-2.53998e-19
-3.41714e-19
-4.93031e-19
-7.72653e-19
-1.24705e-18
-2.13304e-18
-3.54769e-18
-5.61323e-18
-8.19139e-18
-9.18821e-18
-3.08888e-18
-2.71658e-21
5.55125e-19
2.16025e-18
6.78536e-18
3.69558e-17
6.58034e-16
1.13322e-14
-1.15172e-20
-7.7449e-21
-1.0841e-20
-1.68526e-20
-2.28632e-20
-2.87042e-20
-3.69513e-20
-5.15007e-20
-7.89105e-20
-1.25513e-19
-2.1417e-19
-3.56842e-19
-5.67526e-19
-8.38336e-19
-9.86484e-19
-4.52627e-19
-9.91099e-22
2.28207e-20
8.8562e-20
4.01796e-19
1.87314e-17
6.88045e-16
1.22896e-14
-1.50981e-21
-9.67916e-22
-1.28622e-21
-1.90089e-21
-2.45453e-21
-2.93055e-21
-3.59648e-21
-4.81626e-21
-7.16797e-21
-1.11551e-20
-1.88382e-20
-3.11821e-20
-4.94063e-20
-7.30604e-20
-8.80816e-20
-4.82068e-20
-4.39219e-23
2.95618e-22
4.79301e-21
1.41621e-19
1.7016e-17
6.82824e-16
1.22482e-14
-1.80611e-22
-1.10206e-22
-1.38848e-22
-1.94999e-22
-2.39394e-22
-2.71197e-22
-3.16058e-22
-4.04401e-22
-5.80539e-22
-8.77063e-22
-1.45301e-21
-2.36693e-21
-3.69824e-21
-5.40981e-21
-6.54882e-21
-3.97741e-21
-4.01662e-22
2.78028e-39
1.90758e-21
1.33952e-19
1.45665e-17
6.05681e-16
1.11429e-14
-1.97642e-23
-1.14743e-23
-1.36912e-23
-1.82579e-23
-2.1281e-23
-2.28187e-23
-2.51529e-23
-3.0573e-23
-4.20261e-23
-6.11241e-23
-9.83868e-23
-1.56071e-22
-2.37691e-22
-3.39384e-22
-4.04657e-22
-2.59677e-22
-4.45976e-23
2.65618e-23
1.66475e-21
1.20396e-19
1.20342e-17
5.05887e-16
9.78213e-15
-1.98256e-24
-1.0958e-24
-1.23741e-24
-1.56553e-24
-1.72969e-24
-1.75098e-24
-1.81818e-24
-2.08713e-24
-2.72661e-24
-3.78432e-24
-5.85718e-24
-8.94279e-24
-1.3101e-23
-1.79829e-23
-2.06984e-23
-1.34791e-23
-2.50451e-24
2.25629e-23
1.21433e-21
1.02019e-19
1.00808e-17
4.09787e-16
7.88363e-15
-1.82684e-25
-9.62552e-26
-1.02842e-25
-1.23333e-25
-1.28949e-25
-1.22915e-25
-1.19747e-25
-1.29063e-25
-1.59016e-25
-2.08692e-25
-3.07173e-25
-4.45673e-25
-6.18763e-25
-8.02321e-25
-8.71768e-25
-5.52064e-25
2.06983e-26
1.06806e-23
6.93916e-22
7.77311e-20
7.88465e-18
2.86338e-16
4.92712e-15
-1.55003e-26
-7.79853e-27
-7.88497e-27
-8.95621e-27
-8.84611e-27
-7.91912e-27
-7.2098e-27
-7.25412e-27
-8.36498e-27
-1.0284e-26
-1.4229e-26
-1.93492e-26
-2.50405e-26
-3.00589e-26
-3.00413e-26
-1.71113e-26
4.72838e-26
3.47028e-24
3.01563e-22
4.81355e-20
4.89657e-18
1.52238e-16
2.14415e-15
-1.21445e-27
-5.845e-28
-5.59549e-28
-6.01559e-28
-5.60357e-28
-4.69912e-28
-3.98285e-28
-3.72016e-28
-3.98477e-28
-4.54605e-28
-5.84228e-28
-7.3376e-28
-8.69098e-28
-9.43791e-28
-8.39899e-28
-2.96024e-28
9.3572e-27
7.78531e-25
9.76969e-23
2.18368e-20
2.16856e-18
5.86717e-17
6.76833e-16
-8.81602e-29
-4.06609e-29
-3.68829e-29
-3.75078e-29
-3.28974e-29
-2.57795e-29
-2.02682e-29
-1.74821e-29
-1.72674e-29
-1.81108e-29
-2.13573e-29
-2.4397e-29
-2.5929e-29
-2.48109e-29
-1.86696e-29
1.25963e-29
1.25437e-27
1.10178e-25
2.03014e-23
5.99278e-21
5.89805e-19
1.51034e-17
1.58916e-16
-5.95302e-30
-2.63532e-30
-2.26707e-30
-2.17963e-30
-1.7972e-30
-1.31298e-30
-9.5434e-31
-7.56401e-31
-6.84189e-31
-6.53779e-31
-6.98966e-31
-7.14881e-31
-6.67532e-31
-5.4616e-31
-3.03835e-31
1.97116e-30
1.29484e-28
1.1157e-26
2.1509e-24
6.44118e-22
7.25738e-20
2.50841e-18
3.61223e-17
-3.7566e-31
-1.59825e-31
-1.30516e-31
-1.18567e-31
-9.17666e-32
-6.23639e-32
-4.17775e-32
-3.02906e-32
-2.49312e-32
-2.15186e-32
-2.06141e-32
-1.85818e-32
-1.49135e-32
-1.0072e-32
-2.39382e-33
1.23751e-31
1.00789e-29
9.08793e-28
1.3507e-25
3.32355e-23
5.25359e-21
3.97574e-19
1.39088e-17
-2.22775e-32
-9.11558e-33
-7.07212e-33
-6.06657e-33
-4.40041e-33
-2.77599e-33
-1.70914e-33
-1.12906e-33
-8.4073e-34
-6.50279e-34
-5.52031e-34
-4.31861e-34
-2.91331e-34
-1.55607e-34
4.71794e-35
5.95185e-33
5.70993e-31
5.74311e-29
7.4176e-27
1.5283e-24
3.6798e-22
6.41244e-20
4.84841e-18
-1.24987e-33
-4.91724e-34
-3.62612e-34
-2.9346e-34
-1.99169e-34
-1.164e-34
-6.57028e-35
-3.94089e-35
-2.64149e-35
-1.81794e-35
-1.35378e-35
-9.05828e-36
-5.02353e-36
-2.01635e-36
1.59451e-36
1.52518e-34
1.71647e-32
2.15575e-30
3.22248e-28
6.65055e-26
2.16697e-23
6.58623e-21
7.36589e-19
-6.68732e-35
-2.52463e-35
-1.7693e-35
-1.34925e-35
-8.55364e-36
-4.62251e-36
-2.38697e-36
-1.29621e-36
-7.78786e-37
-4.74013e-37
-3.06894e-37
-1.73304e-37
-7.7344e-38
-2.2207e-38
7.46793e-40
6.00222e-38
1.58943e-36
7.92076e-33
5.41964e-30
1.89179e-27
9.72653e-25
5.04518e-22
7.7443e-20
-3.44349e-36
-1.24203e-36
-8.26255e-37
-5.9279e-37
-3.50432e-37
-1.74822e-37
-8.2441e-38
-4.04396e-38
-2.17073e-38
-1.16273e-38
-6.49699e-39
-3.06088e-39
-1.07797e-39
-2.11914e-40
-6.84295e-47
5.01609e-44
8.96567e-40
3.07067e-37
1.17608e-34
1.3607e-29
1.00645e-26
4.93961e-24
1.02281e-21
-1.72327e-37
-5.89448e-38
-3.71328e-38
-2.50171e-38
-1.3769e-38
-6.33229e-39
-2.72337e-39
-1.20479e-39
-5.76433e-40
-2.70752e-40
-1.29862e-40
-5.05894e-41
-1.38306e-41
-1.79737e-42
-2.38172e-46
1.92526e-45
1.71525e-43
1.47848e-40
1.16826e-36
3.09169e-31
9.41575e-29
1.30685e-26
2.44663e-24
-8.46187e-39
-2.71586e-39
-1.61382e-39
-1.01915e-39
-5.21585e-40
-2.20909e-40
-8.65717e-41
-3.45057e-41
-1.46951e-41
-6.04015e-42
-2.4793e-42
-7.94621e-43
-1.66917e-43
-1.40224e-44
-2.84294e-49
5.62345e-48
7.10117e-50
2.51276e-48
2.59024e-40
4.64969e-34
3.10689e-31
2.20654e-29
1.62168e-27
-4.31863e-40
-1.27688e-40
-7.10237e-41
-4.18634e-41
-1.98486e-41
-7.71395e-42
-2.74489e-42
-9.82272e-43
-3.71041e-43
-1.32988e-43
-4.65625e-44
-1.22449e-44
-1.97209e-45
-1.0746e-46
-4.79822e-50
5.73838e-51
3.54273e-53
1.47102e-58
0
6.57848e-49
5.39262e-41
3.96974e-34
4.787e-31
0.999347
0.999373
0.999373
0.999364
0.971154
0.998359
0.999364
0.999344
0.293323
0.684014
0.98807
0.99923
0.00311217
0.00511531
0.244603
0.709259
0.00264728
0.00251929
0.007783
0.0788417
0.00254438
0.00226519
0.00226201
0.00319968
0.00230913
0.00231291
0.00226686
0.00232486
0.0029075
0.00228323
0.00232149
0.00242886
0.245026
0.00312427
0.00225227
0.00290673
0.331968
0.334369
0.151681
0.00311817
0.332739
0.335211
0.332468
0.327985
0.0752119
0.301385
0.330662
0.321899
1.36556e-06
-0.000308702
0.00532642
0.0384926
-8.41017e-08
9.23972e-07
-5.00791e-07
-5.10579e-06
4.06371e-07
7.93754e-07
1.71061e-07
1.22457e-07
4.2448e-08
6.79171e-08
1.17313e-07
1.14912e-07
4.02139e-09
5.27027e-09
7.35014e-09
1.06918e-08
3.8741e-10
4.83151e-10
5.72748e-10
8.49221e-10
5.37141e-11
6.09592e-11
6.60262e-11
8.58043e-11
1.45743e-11
1.67461e-11
1.90158e-11
2.32658e-11
2.33138e-12
2.92119e-12
3.45392e-12
4.19397e-12
2.06495e-13
2.95652e-13
4.05198e-13
5.62336e-13
3.58425e-14
6.53079e-14
1.2097e-13
2.06372e-13
3.39196e-14
6.55657e-14
1.29527e-13
2.26547e-13
3.66559e-14
7.10225e-14
1.4441e-13
2.45183e-13
3.64732e-14
7.09407e-14
1.45816e-13
2.45874e-13
3.32926e-14
6.54986e-14
1.37938e-13
2.39128e-13
2.96269e-14
5.93474e-14
1.30968e-13
2.41153e-13
2.42268e-14
4.96147e-14
1.15743e-13
2.28216e-13
1.5225e-14
3.17723e-14
7.74283e-14
1.62926e-13
6.49595e-15
1.34735e-14
3.32964e-14
6.64084e-14
1.96515e-15
3.94316e-15
9.33488e-15
1.66432e-14
4.49843e-16
8.93322e-16
1.98916e-15
3.50312e-15
1.12978e-16
2.60255e-16
7.32939e-16
2.16115e-15
6.30658e-17
2.08114e-16
6.85124e-16
2.40971e-15
3.41235e-17
1.63089e-16
5.6613e-16
1.67532e-15
7.54667e-18
5.21504e-17
2.32658e-16
4.83037e-16
9.26663e-19
8.84373e-18
5.02777e-17
1.07628e-16
1.62295e-20
3.14767e-19
2.7751e-18
1.19696e-17
3.46281e-23
1.47036e-21
2.98465e-20
5.3245e-19
1.91406e-26
2.08967e-24
1.18664e-22
5.70237e-21
6.3953e-30
1.50799e-27
2.74185e-25
1.47134e-23
0.997838
0.929738
0.259311
0.0645346
0.0629559
0.128275
0.253884
0.107015
0.381798
0.766832
0.741054
0.200421
0.0806056
0.0808652
0.175483
0.269483
0.225141
0.221661
0.367219
0.998582
0.972064
0.291179
0.0676458
0.0676453
0.440828
0.540891
0.255426
0.272431
0.61863
0.703307
0.156232
0.0807376
0.0805974
0.0808705
0.0830318
0.0848339
0.0845433
0.0845648
0.999198
0.998977
0.886109
0.66267
0.662654
0.704571
0.704571
0.393802
0.308152
0.664159
0.647767
0.12431
0.0805989
0.0808705
0.129434
0.119335
0.096099
0.0845894
0.0845163
0.929991
0.955911
0.876674
0.770066
0.719068
0.636071
0.693646
0.521371
0.336094
0.664296
0.555372
0.0793035
0.0764634
0.146348
0.196502
0.196556
0.195796
0.114804
0.0845894
0.211819
0.282306
0.258878
0.212867
0.27033
0.266137
0.641352
0.491897
0.520739
0.660666
0.46173
0.0659135
0.0928162
0.196415
0.197053
0.19578
0.191512
0.182517
0.0923173
0.00295809
0.00536292
0.0152345
0.0344739
0.0537983
0.292329
0.377205
0.211961
0.303091
0.564145
0.464152
0.0625786
0.125637
0.197053
0.195601
0.121302
0.109197
0.165994
0.161762
0.0024207
0.00287322
0.00527569
0.0512621
0.144209
0.140886
0.0151069
0.00804424
0.0665473
0.395451
0.451494
0.0606666
0.133065
0.195532
0.0716813
0.000100443
0.000503105
0.0282838
0.151271
0.00293634
0.00630187
0.0499289
0.0612445
0.0524185
0.00256748
0.00175381
0.00406737
0.0857961
0.52833
0.164764
0.0406305
0.141599
0.162893
1.57232e-05
1.30864e-05
1.64336e-05
6.71362e-05
0.0540797
0.00277253
0.0126713
0.0285582
0.0228643
0.00123936
0.00102866
0.00123303
0.00201795
0.0932685
0.529103
0.0501146
0.0350555
0.0983722
0.0429548
1.23219e-05
7.46441e-06
8.67589e-06
4.80943e-06
0.000129604
0.0016553
0.00165763
0.00127364
0.000829805
0.000784174
0.000869139
0.00103645
0.00869467
0.303836
0.518003
0.0376833
0.0321865
0.0227238
2.23251e-05
2.21213e-05
6.32764e-06
4.94339e-06
0.000239122
0.000222978
0.186624
0.00127356
0.000845655
0.000804237
0.00080425
0.000804079
0.00124955
0.191972
0.333088
0.0982599
0.0248205
0.0320202
0.0156625
0.000268522
2.97012e-05
6.55407e-06
4.04758e-06
0.000363293
0.00245704
0.320154
0.32381
0.155924
0.00159291
0.00853457
0.0296249
0.164626
0.289885
0.239161
0.0190423
0.0227724
0.0259557
0.0111225
0.000236939
4.17983e-05
6.54382e-06
3.25976e-06
0.000103929
0.00611637
0.223661
0.329167
0.330564
0.330564
0.330564
0.329664
0.3116
0.140748
0.00249627
0.0184794
0.0255855
0.0208345
0.00349368
3.49289e-05
3.4505e-05
6.95885e-06
2.91668e-06
3.0935e-07
0.013172
1.12603e-07
0.00662993
0.112752
0.16834
0.152401
0.0687941
2.44857e-05
0.000174048
0.00230612
0.0243918
0.025451
0.00652911
1.95927e-05
5.44747e-05
0.000128449
5.94855e-06
9.31328e-07
2.98084e-07
0.0185436
1.70364e-07
2.63191e-07
4.00729e-07
4.19116e-07
3.18679e-07
4.19116e-07
1.53265e-06
0.000255178
0.0101907
0.0109416
0.00240342
1.26725e-06
2.62072e-05
0.000127921
0.000127126
1.08486e-06
1.06444e-06
2.83423e-07
0.0185699
2.69143e-07
1.46047e-06
2.88536e-06
5.05525e-07
2.64248e-07
3.18679e-07
1.31801e-06
0.00109473
0.00192405
1.09166e-06
1.04832e-06
1.04204e-06
5.30038e-06
8.36703e-06
4.51696e-06
4.58901e-06
1.05245e-06
2.68588e-07
0.0185856
4.14861e-08
1.19786e-07
4.18862e-07
5.26143e-07
2.50862e-07
3.70194e-07
1.88045e-05
0.00017155
0.000189995
6.52064e-06
1.02954e-06
9.76256e-07
9.68578e-07
1.54534e-06
4.55318e-06
4.58962e-06
4.03273e-07
2.68988e-07
0.0185395
1.83358e-09
4.27502e-09
5.91842e-09
1.92687e-10
7.63099e-11
1.10544e-07
1.28287e-06
2.16522e-05
0.00047552
0.000143337
9.89359e-07
8.88789e-07
8.34637e-07
1.20359e-06
4.01606e-06
1.32628e-06
1.48048e-07
2.68988e-07
0.0183775
1.46917e-10
3.66029e-10
1.10773e-09
8.94121e-10
2.55502e-11
1.53242e-07
6.74437e-07
1.46108e-07
0.000245214
7.40755e-05
1.05692e-06
4.78782e-06
7.62496e-07
2.73814e-08
3.63491e-07
1.58215e-08
3.33052e-07
1.48048e-07
0.0183004
3.55951e-11
6.34614e-11
8.66585e-11
6.27668e-11
2.22375e-11
2.4058e-07
2.61746e-07
1.29703e-07
1.00518e-05
5.1674e-05
1.15656e-05
8.43105e-06
1.61984e-06
2.44283e-08
6.10632e-09
7.21225e-09
4.43418e-06
2.76962e-07
0.0176075
7.44847e-12
1.45786e-11
3.8236e-11
3.05501e-11
2.11183e-11
7.18235e-08
1.22694e-08
1.24538e-07
4.91814e-07
4.21998e-06
7.97669e-06
3.33446e-06
5.82911e-08
4.60214e-08
4.52527e-09
7.88687e-08
5.23776e-06
4.05036e-07
0.00501628
1.34901e-12
3.29859e-12
1.24437e-11
2.12309e-11
2.11501e-11
2.15143e-11
1.68443e-10
4.52633e-10
9.14866e-07
1.53423e-06
1.34304e-06
6.34857e-07
6.63031e-08
3.72412e-08
2.88142e-09
8.58647e-07
5.2616e-06
8.52568e-07
0.000320965
6.29628e-13
2.66019e-12
9.83275e-12
1.25413e-11
2.07935e-10
2.06775e-10
2.43588e-10
5.14561e-08
7.33344e-07
4.99619e-07
2.1726e-07
7.56078e-08
2.48468e-08
2.97217e-08
1.61564e-09
2.37516e-06
5.23787e-06
1.77688e-06
4.5812e-06
7.7606e-13
4.00401e-12
1.34654e-11
1.27031e-11
4.21866e-10
1.0411e-09
3.11804e-10
6.26651e-08
5.82306e-08
3.13149e-08
2.46571e-08
8.71229e-09
1.17928e-09
8.22696e-09
1.25052e-09
2.05261e-06
3.95391e-06
2.5577e-06
5.33588e-06
1.36679e-12
9.29695e-12
2.45255e-11
1.56973e-11
2.86829e-10
1.55249e-09
2.09357e-09
3.58178e-09
1.55837e-09
2.10332e-09
1.89886e-09
1.01697e-09
1.14862e-09
1.17928e-09
1.22247e-09
1.47643e-07
1.8668e-07
1.3901e-06
1.01382e-05
2.38046e-12
1.78272e-11
4.60045e-11
3.93279e-11
1.01432e-10
7.86217e-10
1.75461e-09
9.97674e-10
4.93861e-10
5.53834e-10
7.45859e-10
9.39781e-10
1.87257e-09
1.56519e-09
1.25015e-09
1.29392e-09
1.76958e-09
3.32254e-05
2.01214e-05
3.94483e-12
2.81953e-11
5.51246e-11
7.19851e-11
1.28466e-10
2.7884e-10
5.54016e-10
4.96324e-10
4.8522e-10
5.55402e-10
7.25213e-10
1.23109e-09
2.02662e-09
1.85584e-09
1.33005e-09
1.33184e-09
4.27131e-09
0.000293216
0.000112911
3.93431e-12
2.93387e-11
5.68346e-11
7.25286e-11
2.08798e-10
5.7407e-10
4.86448e-10
4.85168e-10
4.8522e-10
5.61838e-10
7.98838e-10
1.13472e-09
1.53398e-09
1.54806e-09
1.38446e-09
1.43607e-09
8.96434e-05
0.000346847
0.000340269
2.46015e-12
2.01514e-11
5.4282e-11
6.49296e-11
1.32542e-10
7.83489e-10
4.46543e-09
4.15451e-09
2.02109e-09
8.71643e-10
9.25757e-10
1.17008e-09
2.44026e-09
2.34262e-09
1.47852e-09
1.64897e-09
0.000273292
0.000347805
0.000346847
8.51361e-13
1.09968e-11
5.51418e-11
6.77898e-11
6.76367e-11
2.44421e-09
7.84758e-09
8.20716e-09
5.11824e-09
1.49878e-09
9.38402e-10
1.60917e-09
3.88878e-09
4.32876e-09
1.69285e-09
3.02329e-09
0.000338484
0.000347805
0.000122309
5.1338e-13
3.2716e-12
3.54719e-11
6.43928e-11
9.66324e-11
1.5557e-09
4.07927e-09
1.19746e-08
1.4581e-08
8.24913e-09
3.92428e-09
5.0154e-09
4.41343e-09
4.49781e-09
2.81662e-09
1.54374e-08
0.000333491
0.000347805
3.00188e-05
5.16705e-13
1.13176e-12
4.77857e-12
8.85467e-11
5.77134e-10
1.77332e-09
2.91777e-09
1.45607e-08
2.00667e-08
1.99565e-08
1.97224e-08
1.55706e-08
5.31178e-09
4.61159e-09
7.90183e-10
0.000169485
0.000338244
0.000345677
2.21712e-05
2.23037e-13
4.79283e-13
4.80117e-13
1.21358e-10
3.02218e-10
4.72479e-09
7.45629e-09
1.82505e-08
2.00662e-08
2.00659e-08
8.43678e-09
7.35672e-09
8.23766e-08
4.96276e-09
8.6124e-09
0.00031356
0.00033294
0.000113346
1.16182e-06
8.49977e-14
3.48068e-13
8.13932e-13
2.47422e-10
4.20651e-11
2.19536e-09
3.16224e-08
3.01175e-08
1.23593e-08
7.44311e-09
7.35672e-09
7.36188e-09
1.58709e-07
9.06607e-09
4.65035e-05
0.000326834
0.00033294
2.08724e-05
2.49569e-07
1.03748e-13
4.65641e-13
1.97319e-12
1.76769e-10
3.71065e-11
6.31526e-09
4.23027e-08
3.85961e-08
8.34172e-09
7.75974e-09
2.38901e-07
1.82007e-06
4.57261e-07
2.31481e-08
0.000243412
0.000315731
0.000200791
3.98242e-06
2.65563e-08
1.26618e-13
7.5044e-13
2.47399e-12
5.48159e-11
3.60833e-11
1.18015e-09
6.94125e-09
2.27164e-08
9.09536e-09
2.50627e-06
6.82494e-06
3.97558e-06
3.96878e-07
1.60827e-07
0.000263877
0.000282489
1.98523e-05
3.00932e-09
1.96227e-10
1.0682e-13
8.19405e-13
2.73087e-12
1.64271e-11
3.61445e-11
4.06604e-11
5.13851e-11
6.83656e-11
3.4881e-06
6.82494e-06
6.82494e-06
3.72951e-06
6.3547e-07
1.72986e-05
3.74071e-05
4.79193e-09
2.36144e-10
1.13764e-11
9.88395e-11
4.19856e-14
7.37514e-13
3.98464e-12
1.7701e-11
5.77567e-11
5.74486e-11
5.78602e-11
6.00213e-11
1.11912e-06
6.45991e-06
3.72666e-06
1.86752e-06
1.00322e-05
2.38225e-06
2.57499e-10
3.33307e-11
4.77566e-12
2.8442e-12
1.19734e-11
7.05148e-15
5.66667e-13
5.73469e-12
2.74847e-11
1.30554e-10
1.74181e-10
8.84409e-11
7.32308e-11
7.44819e-11
3.27433e-07
1.28619e-07
3.26665e-07
3.53663e-07
1.30404e-11
-2.18339e-11
3.17298e-12
2.85211e-12
2.74579e-12
2.8442e-12
3.28555e-16
1.74147e-13
4.4006e-12
3.05224e-11
1.29054e-10
3.38905e-10
6.67958e-10
9.83603e-10
9.93382e-10
1.24715e-09
1.56125e-08
7.75396e-09
4.42471e-12
1.64007e-12
2.34972e-12
3.53088e-11
4.79428e-11
9.3614e-13
3.9354e-06
2.64113e-18
8.03171e-15
1.03606e-12
1.72189e-11
9.40049e-11
2.93188e-10
1.40039e-09
1.82882e-09
1.82629e-09
1.31262e-09
1.61259e-09
4.60826e-11
2.59979e-12
2.47823e-12
2.34373e-12
2.42984e-11
2.40462e-11
6.26046e-13
1.46816e-05
5.39472e-21
2.22856e-17
2.73817e-14
2.02489e-12
2.19525e-11
1.10541e-10
6.28064e-10
1.2251e-09
1.16585e-09
8.42602e-10
3.71712e-10
7.64663e-11
8.7195e-12
5.22839e-12
5.7246e-13
6.7267e-13
7.69024e-14
6.30878e-13
1.51634e-05
)
;

boundaryField
{
    leftWall
    {
        type            zeroGradient;
    }
    rightWall
    {
        type            zeroGradient;
    }
    lowerWall
    {
        type            zeroGradient;
    }
    atmosphere
    {
        type            inletOutlet;
        inletValue      uniform 0;
        value           nonuniform List<scalar> 
46
(
-4.31863e-40
-1.27688e-40
-7.10237e-41
-4.18634e-41
-1.98486e-41
-7.71395e-42
-2.74489e-42
-9.82272e-43
-3.71041e-43
-1.32988e-43
-4.65625e-44
-1.22449e-44
-1.97209e-45
-1.0746e-46
-4.79822e-50
0
0
0
0
0
0
0
0
0
0
0
0
0
0
0
0
0
0
0
1.2251e-09
1.16585e-09
8.42602e-10
3.71712e-10
0
0
0
0
0
0
0
1.51634e-05
)
;
    }
    defaultFaces
    {
        type            empty;
    }
}


// ************************************************************************* //
