/*--------------------------------*- C++ -*----------------------------------*\
  =========                 |
  \\      /  F ield         | OpenFOAM: The Open Source CFD Toolbox
   \\    /   O peration     | Website:  https://openfoam.org
    \\  /    A nd           | Version:  9
     \\/     M anipulation  |
\*---------------------------------------------------------------------------*/
FoamFile
{
    format      ascii;
    class       volScalarField;
    location    "0.85";
    object      epsilon;
}
// * * * * * * * * * * * * * * * * * * * * * * * * * * * * * * * * * * * * * //

dimensions      [0 2 -3 0 0 0 0];

internalField   nonuniform List<scalar> 
2268
(
0.0175566
0.0498155
0.0859645
0.123973
0.161028
0.196149
0.229281
0.260347
0.289125
0.315338
0.338809
0.359601
0.378054
0.394842
0.411863
0.42678
0.437998
0.44312
0.438004
0.412355
0.345904
0.216053
0.0496177
0.0250436
0.0391889
0.0565862
0.0739737
0.0906003
0.105998
0.120018
0.132586
0.143663
0.153236
0.161323
0.167982
0.173384
0.177946
0.182666
0.187394
0.192114
0.196882
0.201021
0.201493
0.189704
0.149876
0.0817174
0.0349434
0.0381785
0.0522405
0.066112
0.0787728
0.0900806
0.100115
0.108947
0.116635
0.123239
0.128831
0.133534
0.1376
0.141511
0.146061
0.151746
0.159384
0.169998
0.184195
0.200401
0.210495
0.193965
0.1373
0.0425662
0.0389741
0.0521067
0.0648108
0.0758584
0.0853892
0.0936855
0.100936
0.107271
0.112801
0.117649
0.121998
0.126185
0.13079
0.136687
0.14484
0.156703
0.174203
0.199243
0.231768
0.264272
0.271842
0.2145
0.0485135
0.04054
0.0535151
0.0657187
0.0758559
0.084323
0.0915852
0.0979331
0.103555
0.10861
0.113269
0.117776
0.122564
0.128348
0.136205
0.147549
0.16452
0.190086
0.227702
0.279338
0.339772
0.386021
0.353714
0.0532392
0.0426054
0.0557776
0.0677194
0.07722
0.0849222
0.0914578
0.0972065
0.102409
0.107266
0.112001
0.116929
0.122596
0.129899
0.140204
0.155442
0.17855
0.213704
0.266094
0.339996
0.434808
0.545364
0.643032
0.0572041
0.0450956
0.0586288
0.0703814
0.079359
0.0864418
0.0924127
0.0977296
0.102678
0.107504
0.112482
0.118021
0.124809
0.133981
0.147302
0.167326
0.197946
0.244691
0.314386
0.412819
0.544244
0.744154
1.2233
0.0609142
0.0480221
0.0619009
0.0734471
0.0819497
0.0884998
0.0940123
0.0990125
0.103826
0.108741
0.114102
0.120433
0.128615
0.140097
0.157195
0.18325
0.223326
0.284425
0.374497
0.498155
0.656876
0.925928
2.28888
1.13009
2.64053
3.59615
4.40795
5.14327
5.80508
6.43456
7.10175
7.61269
7.76593
7.11814
5.5898
3.82806
2.59609
1.99391
1.70578
1.4086
0.847736
0.208116
2.0751
2.94361
3.08759
3.05139
3.06746
3.11575
3.19104
3.31404
3.39599
3.35931
3.05757
2.46223
1.79396
1.30094
1.01998
0.866082
0.734017
0.532001
0.210825
3.16236
3.12446
3.03375
2.95351
2.94143
2.9413
2.94974
2.96769
2.9614
2.86874
2.57716
2.06861
1.51277
1.10595
0.871745
0.744464
0.646454
0.513834
0.306234
4.02084
3.31666
3.21609
3.22135
3.25014
3.23895
3.19721
3.13758
3.04845
2.86859
2.51967
2.00914
1.46608
1.06838
0.841737
0.720931
0.635939
0.540854
0.404581
4.67631
3.50169
3.4996
3.65574
3.77568
3.76917
3.67152
3.51973
3.32198
2.99712
2.5586
2.02997
1.4857
1.08477
0.858578
0.739834
0.659691
0.585137
0.485741
5.12599
3.64454
3.80183
4.16845
4.44153
4.46091
4.30734
4.01811
3.6575
3.14976
2.62258
2.07612
1.53389
1.13195
0.91001
0.796342
0.716247
0.646359
0.578434
5.35812
3.71046
4.03988
4.64616
5.05866
5.18188
5.04036
4.52511
3.946
3.2996
2.69739
2.13877
1.60406
1.2044
0.997156
0.89807
0.815541
0.732791
0.705005
5.37587
3.67665
4.12587
4.88615
5.37245
5.66099
5.60816
4.96892
4.22137
3.45783
2.78189
2.21665
1.69374
1.29931
1.12464
1.05721
0.971928
0.852696
0.878096
0.0691141
0.0536159
0.067538
0.0786123
0.0863851
0.0921947
0.0971243
0.101782
0.106545
0.111774
0.117954
0.125857
0.136772
0.152788
0.177249
0.214995
0.272981
0.359846
0.482621
0.637167
0.800347
0.968174
1.28077
0.088926
0.0624935
0.075677
0.0861438
0.0930201
0.0979655
0.102333
0.106826
0.111886
0.118022
0.126074
0.137496
0.154696
0.181514
0.223935
0.290725
0.392877
0.540304
0.731636
0.939641
1.10188
1.20178
1.34251
0.118606
0.0737877
0.0863884
0.0958618
0.10138
0.105146
0.108843
0.11325
0.118896
0.126561
0.137781
0.155398
0.184144
0.231689
0.309928
0.43478
0.621158
0.871752
1.15105
1.3951
1.49735
1.55439
1.73619
0.145134
0.0823287
0.0950168
0.10387
0.1094
0.112978
0.116429
0.121047
0.127806
0.138081
0.154842
0.183796
0.234584
0.323567
0.477331
0.722904
1.06093
1.44903
1.71648
1.86098
1.84144
1.94598
2.32849
0.143326
0.0855831
0.0930044
0.100032
0.106982
0.113279
0.119561
0.126957
0.137003
0.152517
0.179314
0.228187
0.317799
0.476682
0.738382
1.13579
1.62794
1.93521
2.07207
2.02427
2.01007
2.25132
2.85276
0.147897
0.0893296
0.0895477
0.0945616
0.100972
0.108463
0.117325
0.128257
0.142892
0.165308
0.204157
0.27489
0.401619
0.614279
0.931941
1.31711
1.63877
1.86675
2.06151
1.99827
2.05727
2.3547
2.89884
0.157119
0.0929045
0.0884438
0.0913208
0.0965995
0.10391
0.113561
0.126305
0.14406
0.171544
0.218485
0.301628
0.444366
0.667759
0.963724
1.26044
1.46776
1.6733
1.91703
1.97332
2.08839
2.38799
2.86719
0.166653
0.0962215
0.0888455
0.0898532
0.0936965
0.0997785
0.108556
0.12107
0.139379
0.168138
0.216457
0.299397
0.436459
0.640989
0.89568
1.13685
1.32536
1.57463
1.88729
2.02708
2.15087
2.41338
2.83251
0.173931
0.0988002
0.0894883
0.0891009
0.091692
0.096432
0.1037
0.114621
0.131368
0.157987
0.202058
0.275612
0.393564
0.5653
0.777138
0.98578
1.18512
1.51541
1.99674
2.20471
2.27389
2.45054
2.78065
0.178868
0.100113
0.089526
0.0882628
0.090024
0.0937369
0.099622
0.108633
0.122693
0.145314
0.182245
0.242442
0.336744
0.47236
0.641833
0.819664
1.00926
1.34519
1.96067
2.44792
2.50222
2.54363
2.72409
0.181973
0.100203
0.0887638
0.0869923
0.0882871
0.0913556
0.0962227
0.103615
0.115035
0.133164
0.162494
0.209327
0.281268
0.384004
0.514727
0.659765
0.821311
1.0915
1.64832
2.43144
2.83565
2.77197
2.75188
0.183544
0.0993428
0.0873103
0.0852444
0.0863071
0.0890306
0.0932547
0.09947
0.108797
0.123212
0.145888
0.181316
0.234881
0.311065
0.409726
0.52434
0.655509
0.851817
1.23685
1.93626
2.74354
3.11343
2.98377
0.183713
0.0977666
0.0853235
0.0830835
0.0840448
0.086616
0.0904867
0.0959389
0.103765
0.115387
0.133042
0.159867
0.199624
0.255679
0.329034
0.417306
0.521014
0.663893
0.914223
1.37058
2.07259
2.85152
3.27244
0.182556
0.0956555
0.0829521
0.0806063
0.0815274
0.0840482
0.08775
0.09275
0.0995791
0.109233
0.123277
0.143887
0.173682
0.215147
0.269622
0.336759
0.41731
0.522413
0.685564
0.962619
1.40363
1.99528
2.61388
0.180164
0.0931508
0.0803226
0.0779117
0.0788123
0.0813208
0.0849485
0.0896936
0.0958907
0.104221
0.115765
0.13203
0.15484
0.18602
0.226869
0.277877
0.339909
0.418224
0.528119
0.696602
0.95322
1.30848
1.73272
0.176679
0.0903682
0.0775396
0.0750912
0.075969
0.0784646
0.0820499
0.0866431
0.0924401
0.099896
0.109751
0.123044
0.141048
0.165095
0.196297
0.235383
0.283175
0.342251
0.419368
0.526454
0.677385
0.879877
1.1268
0.17229
0.0874095
0.0746924
0.0722279
0.0730715
0.0755335
0.0790696
0.0835485
0.0890724
0.0959403
0.104656
0.115933
0.130661
0.149804
0.174249
0.204702
0.241855
0.287036
0.343188
0.415279
0.50907
0.62805
0.770255
0.167219
0.0843677
0.0718598
0.0693974
0.0701933
0.0725937
0.0760546
0.0804172
0.0857236
0.0921685
0.100095
0.109994
0.122485
0.138262
0.157999
0.182285
0.211659
0.246841
0.289093
0.340369
0.402803
0.477547
0.563617
0.161699
0.0813298
0.0691126
0.0666682
0.0674043
0.0697155
0.0730688
0.0772936
0.0823956
0.0885022
0.0958492
0.104778
0.115721
0.129173
0.145634
0.165556
0.189338
0.217385
0.250229
0.288564
0.333048
0.383884
0.440461
0.155958
0.0783769
0.0665138
0.0641008
0.0647675
0.0669659
0.0701809
0.0742404
0.0791302
0.0849354
0.0918228
0.100034
0.109876
0.121701
0.135872
0.152724
0.172541
0.195559
0.22199
0.252032
0.285794
0.323187
0.363881
0.150207
0.0755832
0.0641182
0.0617463
0.0623367
0.0644039
0.0674556
0.0713243
0.0759867
0.0815032
0.0879972
0.0956462
0.104674
0.115334
0.127891
0.142588
0.159626
0.179146
0.201224
0.225876
0.253045
0.282604
0.314428
0.144635
0.0730148
0.0619712
0.0596452
0.0601539
0.062077
0.064947
0.0686053
0.0730261
0.0782566
0.0843943
0.0915767
0.0999738
0.109777
0.121181
0.134366
0.149475
0.166596
0.185755
0.206912
0.229985
0.25489
0.28164
0.139401
0.0707268
0.0601076
0.0578271
0.0582493
0.0600194
0.0626958
0.0661307
0.0703002
0.0752456
0.08105
0.0878274
0.0957154
0.104865
0.115431
0.12755
0.141332
0.156837
0.174075
0.193006
0.213565
0.235726
0.25959
0.134635
0.0687615
0.0585509
0.05631
0.0566408
0.0582522
0.0607281
0.0639327
0.0678463
0.0725089
0.0779967
0.0844113
0.0918722
0.100509
0.11045
0.121811
0.134684
0.149121
0.16513
0.182689
0.201765
0.222377
0.244682
0.130435
0.0671466
0.0573138
0.0551017
0.0553355
0.0567843
0.0590566
0.0620283
0.0656857
0.0700699
0.0752551
0.0813373
0.0884276
0.096645
0.106107
0.116921
0.129172
0.142913
0.158165
0.174923
0.193184
0.213004
0.234566
0.12687
0.0658957
0.0563982
0.0542004
0.0543309
0.0556142
0.0576818
0.0604213
0.0638247
0.0679363
0.0728307
0.0786029
0.0853617
0.0932231
0.102303
0.112708
0.124526
0.137819
0.15262
0.168946
0.186816
0.206307
0.227611
0.123987
0.0650096
0.0557971
0.0535967
0.0536171
0.0547326
0.0565956
0.0591046
0.0622578
0.0661025
0.0707155
0.0761933
0.0826458
0.0901911
0.0989483
0.10903
0.120532
0.133528
0.148068
0.164183
0.181912
0.201338
0.222647
0.121812
0.0644793
0.0554967
0.0532759
0.0531791
0.0541245
0.0557837
0.0580646
0.0609709
0.0645536
0.0688917
0.0740841
0.0802439
0.0874937
0.0959592
0.105762
0.117009
0.12979
0.144169
0.160192
0.177906
0.197395
0.218823
0.120353
0.0642901
0.0554801
0.0532207
0.0529999
0.0537735
0.0552295
0.0572845
0.0599469
0.0632704
0.0673364
0.072246
0.0781162
0.0850749
0.0932559
0.102791
0.113804
0.126396
0.140649
0.156621
0.174364
0.193953
0.215523
0.119611
0.0644276
0.0557313
0.0534154
0.0530642
0.0536646
0.0549184
0.0567494
0.0591696
0.0622348
0.0660276
0.0706511
0.0762252
0.0828832
0.0907669
0.10002
0.11078
0.123167
0.137279
0.153186
0.170945
0.190616
0.2123
0.119592
0.0648843
0.0562408
0.0538503
0.053363
0.0537891
0.0548418
0.0564504
0.0586293
0.061435
0.0649505
0.0692791
0.0745426
0.0808781
0.0884349
0.097368
0.10783
0.119959
0.133873
0.149657
0.167374
0.187073
0.208817
0.120328
0.0656692
0.0570126
0.0545279
0.0538979
0.0541486
0.0550011
0.0563885
0.0583263
0.0608703
0.0641018
0.0681231
0.0730554
0.0790378
0.0862246
0.0947805
0.104873
0.116661
0.130283
0.145847
0.163428
0.18307
0.204804
0.121913
0.0668193
0.0580725
0.055469
0.0546868
0.0547587
0.0554106
0.0565774
0.0582738
0.0605532
0.0634935
0.0671933
0.0717709
0.0773641
0.084129
0.0922375
0.10187
0.113205
0.126407
0.14161
0.158915
0.178381
0.200018
0.124539
0.0684157
0.0594789
0.0567195
0.0557671
0.0556512
0.0560986
0.0570435
0.0584978
0.0605102
0.0631529
0.0665182
0.0707182
0.0758858
0.0821745
0.0897583
0.0988267
0.109576
0.122193
0.13686
0.153718
0.172841
0.194238
0.128539
0.0706043
0.0613323
0.0583537
0.0571949
0.0568702
0.0571023
0.0578209
0.0590318
0.0607763
0.0631182
0.0661406
0.0699461
0.0746578
0.0804214
0.0874062
0.095804
0.105822
0.117688
0.131622
0.147805
0.16636
0.187317
0.134419
0.0736149
0.0637804
0.0604695
0.0590356
0.0584613
0.0584561
0.0589393
0.0599054
0.0613842
0.0634281
0.0661081
0.0695138
0.0737544
0.0789606
0.0852877
0.0929199
0.102073
0.113001
0.125959
0.141186
0.158867
0.179095
0.142848
0.0777627
0.0670025
0.0631646
0.0613385
0.0604464
0.060169
0.060403
0.0611239
0.0623448
0.0641027
0.0664545
0.0694749
0.0732556
0.0779042
0.0835484
0.0903466
0.0985142
0.108308
0.120018
0.133942
0.15035
0.169428
0.154525
0.0833912
0.0711506
0.0664845
0.0640928
0.0627883
0.0621931
0.0621629
0.0626423
0.0636209
0.0651175
0.0671742
0.0698525
0.0732265
0.0773743
0.0823735
0.0883208
0.0953998
0.103867
0.114036
0.126256
0.140878
0.158208
0.169829
0.0906972
0.0762273
0.070338
0.0671709
0.0653498
0.0643929
0.0640894
0.0643393
0.0651016
0.0663756
0.0681924
0.0706082
0.0736914
0.0774924
0.0820024
0.0871512
0.0930745
0.100036
0.108366
0.118441
0.130665
0.145447
0.188202
0.0994086
0.0819032
0.0743996
0.0702776
0.067867
0.0665294
0.0659615
0.0660066
0.0665898
0.0676922
0.0693423
0.0716115
0.0745996
0.0783733
0.0828035
0.0872959
0.0920114
0.0972948
0.103504
0.111003
0.120185
0.131486
0.207445
0.108368
0.0873224
0.0780401
0.0729368
0.069959
0.0682777
0.0674861
0.0673694
0.0678205
0.0688077
0.0703682
0.0726185
0.0757689
0.0800815
0.0855005
0.0894908
0.0928572
0.096259
0.100103
0.104688
0.110308
0.117293
0.222672
0.115009
0.0909979
0.0803506
0.0745488
0.0711901
0.0692884
0.0683593
0.0681472
0.0685241
0.0694521
0.0709815
0.0732866
0.076766
0.0822911
0.0919286
0.0949181
0.0964222
0.0976542
0.0989599
0.100484
0.102334
0.104627
2.57969
1.92347
1.86405
3.29897
1.60379
1.83594
2.28847
2.90138
2.04633
2.25853
2.51698
2.82957
2.97158
3.23143
3.17081
3.13962
3.65616
4.1958
4.31772
4.08629
3.53552
3.94675
4.4525
4.74757
3.43205
3.70722
3.93461
4.19255
3.34038
3.64637
3.89356
4.09889
3.22693
3.54463
3.87057
4.15035
3.03655
3.28175
3.57684
3.9244
2.87111
2.99516
3.16687
3.38438
2.883
2.86713
2.89885
2.96889
3.11398
2.99656
2.92276
2.85336
2.90435
3.00383
3.05083
2.97523
2.06067
2.28537
2.46101
2.51829
1.32651
1.47425
1.61627
1.74379
0.885791
0.975408
1.06682
1.15778
0.632932
0.687808
0.745401
0.804976
0.485659
0.521631
0.560023
0.600644
0.396324
0.422114
0.449914
0.479717
0.339878
0.360039
0.381894
0.405501
0.303155
0.320122
0.338571
0.358584
0.278902
0.294054
0.310548
0.32848
0.262825
0.276978
0.292379
0.309128
0.252166
0.265805
0.28062
0.296709
0.245032
0.258428
0.272934
0.288643
0.240071
0.253355
0.267682
0.283132
0.236319
0.249535
0.263718
0.278936
0.233095
0.246235
0.260264
0.275231
0.229917
0.242957
0.256804
0.271491
0.226441
0.239353
0.252993
0.267379
0.222395
0.235158
0.24858
0.262663
0.21754
0.230139
0.24334
0.257135
0.211635
0.224054
0.23704
0.250569
0.204474
0.216655
0.229398
0.242671
0.195842
0.207695
0.220127
0.233102
0.18548
0.196839
0.208819
0.221388
0.173103
0.183673
0.194925
0.206837
0.158478
0.167779
0.17781
0.18857
0.141708
0.149057
0.157105
0.165881
0.123734
0.128387
0.133551
0.139265
0.106751
0.108281
0.109984
0.111873
3.89884
3.42238
3.97042
4.70098
5.26218
5.72188
5.93472
5.5385
4.62743
3.68363
2.90039
2.32136
1.81118
1.4624
1.37213
1.36487
1.26075
1.04109
1.11813
3.24838
3.11027
3.47377
3.95148
4.39922
5.01147
5.84249
6.13877
5.29646
4.05668
3.08931
2.44552
1.94622
1.75851
1.87885
2.00271
1.90236
1.49135
1.71477
3.07071
2.94345
3.06672
3.35343
3.85411
4.76942
5.93072
6.55172
5.83759
4.37256
3.29933
2.63989
2.14351
2.08309
2.34969
2.57012
2.5625
2.11818
2.14095
3.13544
2.98958
3.01457
3.31132
4.00579
5.11343
6.1945
6.70898
6.01681
4.52895
3.51645
2.92898
2.39678
2.35534
2.6733
3.00233
3.08526
2.80117
1.88522
3.84269
3.47739
3.41071
3.77038
4.57421
5.52827
6.27586
6.62538
5.91569
4.56674
3.73035
3.27862
2.69803
2.65929
3.09078
3.62683
3.84541
3.63854
2.28579
4.78102
4.17408
3.97476
4.3314
5.01305
5.74173
6.401
6.66067
5.85671
4.54988
3.88661
3.57438
3.01116
3.0404
3.71467
4.63969
4.96795
4.92802
3.66771
4.45101
4.40029
4.39201
4.7362
5.35248
6.09233
6.91036
7.03041
5.83263
4.44961
3.92209
3.73274
3.28249
3.47908
4.58883
6.50742
6.47392
6.27261
5.64878
4.32901
4.56649
4.75965
5.14978
5.74654
6.47598
7.19432
7.11728
5.43358
4.1912
3.84539
3.74179
3.45457
3.92214
5.68748
7.85773
7.91272
7.20567
7.70718
4.45322
4.84899
5.20194
5.56085
6.01744
6.46783
6.83981
6.33572
4.72093
3.81374
3.62952
3.59441
3.52191
4.22874
6.2499
7.13981
8.27563
8.22269
9.63197
4.41791
5.11446
5.74617
5.98572
6.22171
6.39926
6.25956
5.10943
4.0106
3.40844
3.29171
3.3542
3.49013
4.31863
5.8465
6.86699
8.90857
9.14634
11.2002
3.73323
4.50964
5.35266
5.86505
5.92085
5.73664
5.03295
4.11033
3.43912
3.06651
2.9976
3.11484
3.38093
4.13201
5.34333
7.09327
9.53277
9.90138
12.0402
3.11011
3.4892
4.00203
4.63884
4.8307
4.49069
3.91791
3.39626
3.02989
2.82632
2.80741
2.96771
3.3213
4.06869
5.33761
7.50717
9.62411
10.1842
12.2514
2.79277
2.88686
3.07806
3.32005
3.4475
3.37268
3.16109
2.93045
2.78816
2.67268
2.70918
2.92926
3.37261
4.16418
5.52904
7.56078
9.10509
9.59581
11.8645
2.76906
2.65671
2.59882
2.66769
2.7451
2.76208
2.7595
2.66087
2.60262
2.55677
2.66949
2.95266
3.45406
4.25053
5.53846
7.04239
8.08258
8.33316
10.5614
2.51572
2.48274
2.3762
2.38186
2.43049
2.4165
2.4068
2.40076
2.40804
2.48004
2.66056
2.9751
3.43916
4.17474
5.16048
6.11659
6.80555
6.90527
8.92463
1.94135
2.05337
1.98937
1.99524
2.08959
2.16591
2.24298
2.25154
2.30948
2.44618
2.64416
2.89579
3.28188
3.85406
4.49779
5.07766
5.59374
5.73491
7.78292
1.30813
1.47271
1.58116
1.71682
1.87937
2.00465
2.08771
2.1462
2.25117
2.40439
2.5495
2.71959
2.99306
3.36977
3.77389
4.15933
4.63141
4.92709
7.1638
0.907527
1.0335
1.17341
1.35041
1.56095
1.75905
1.91586
2.03866
2.16563
2.29709
2.3922
2.49033
2.65454
2.88685
3.15146
3.45738
3.93802
4.40186
6.81319
0.672416
0.766846
0.887359
1.05555
1.26914
1.49765
1.70481
1.87828
2.02695
2.13918
2.19628
2.24507
2.34037
2.49119
2.68812
2.96731
3.45376
4.06638
6.60511
0.533161
0.606468
0.70296
0.84181
1.02932
1.24861
1.4694
1.66994
1.83681
1.94217
1.9869
2.01843
2.08423
2.19992
2.3697
2.6332
3.11504
3.85883
6.48737
0.448173
0.508058
0.586814
0.698117
0.851092
1.04067
1.24645
1.44525
1.61542
1.7275
1.78404
1.82452
1.8888
1.99458
2.15301
2.40356
2.86194
3.72879
6.44531
0.394926
0.446608
0.513512
0.605704
0.731213
0.889789
1.06924
1.24964
1.40907
1.52652
1.60358
1.66499
1.74128
1.84938
2.0029
2.23764
2.65892
3.60179
6.49662
0.361122
0.407931
0.467318
0.546644
0.652223
0.78527
0.938491
1.09706
1.24321
1.36223
1.45471
1.53719
1.62862
1.74254
1.89187
2.10786
2.48555
3.40282
6.61018
0.339634
0.383595
0.43826
0.508987
0.600424
0.713922
0.845037
0.983545
1.11671
1.2347
1.33749
1.43547
1.53914
1.65757
1.80128
1.99684
2.32803
3.14432
6.55226
0.325979
0.368236
0.419808
0.484593
0.565897
0.664794
0.778521
0.900366
1.02191
1.1369
1.24508
1.35209
1.46301
1.58271
1.71871
1.89269
2.17578
2.86672
6.22698
0.317139
0.358252
0.407564
0.467928
0.541654
0.629508
0.729759
0.838168
0.949491
1.05993
1.16907
1.27941
1.39239
1.5096
1.63546
1.78658
2.02101
2.58722
5.7172
0.31104
0.351199
0.398592
0.45532
0.523001
0.602164
0.691744
0.789165
0.891309
0.995922
1.10242
1.21133
1.32169
1.43259
1.54566
1.67292
1.8591
2.31587
5.14394
0.306281
0.345475
0.391022
0.444486
0.507006
0.578966
0.659741
0.747825
0.841424
0.93916
1.04026
1.14397
1.24781
1.34907
1.44728
1.55062
1.69272
2.06804
4.59409
0.301968
0.34011
0.383784
0.434156
0.492045
0.557745
0.630925
0.710739
0.796152
0.886214
0.979926
1.07574
1.17032
1.25978
1.34243
1.42384
1.53176
1.85004
4.10786
0.297567
0.33458
0.376354
0.423758
0.477385
0.537477
0.603887
0.676149
0.753622
0.835508
0.920585
1.00683
1.09064
1.16753
1.23518
1.298
1.38331
1.66035
3.68369
0.29277
0.328635
0.368547
0.413139
0.46284
0.517851
0.578129
0.643409
0.713214
0.786744
0.862585
0.938435
1.01096
1.07543
1.12929
1.17615
1.24757
1.49612
3.3052
0.287382
0.322156
0.36033
0.402341
0.448484
0.498921
0.553654
0.612504
0.67503
0.740359
0.806938
0.872386
0.933695
0.986517
1.0281
1.06189
1.12515
1.35449
2.96569
0.281236
0.315048
0.351694
0.391433
0.434446
0.480845
0.530641
0.583673
0.639472
0.69707
0.754822
0.810395
0.861093
0.903329
0.934373
0.959251
1.01709
1.22974
2.65713
0.274126
0.307157
0.342553
0.380404
0.420774
0.463718
0.50923
0.557135
0.606916
0.657519
0.707225
0.753761
0.794745
0.827396
0.849128
0.868287
0.92149
1.11333
2.37683
0.265758
0.29822
0.332691
0.369089
0.407354
0.447467
0.489388
0.532914
0.57749
0.621997
0.664646
0.703155
0.735332
0.759013
0.772292
0.786607
0.834173
1.00079
2.11515
0.255701
0.287791
0.321687
0.357114
0.393861
0.431809
0.470855
0.510755
0.550928
0.590225
0.626781
0.658147
0.682232
0.697211
0.702789
0.710835
0.748772
0.890078
1.86275
0.243379
0.275122
0.308793
0.343779
0.379682
0.416218
0.45315
0.49014
0.526572
0.561296
0.592331
0.616904
0.632859
0.638719
0.635922
0.63505
0.659781
0.779372
1.62232
0.227859
0.259044
0.292635
0.327764
0.363672
0.399806
0.435604
0.470439
0.5036
0.533944
0.559273
0.576298
0.582862
0.578295
0.564983
0.552831
0.565383
0.668485
1.39675
0.207818
0.237585
0.270705
0.306393
0.343412
0.380786
0.417211
0.451125
0.481444
0.507129
0.525546
0.532605
0.527084
0.510218
0.485217
0.461953
0.46455
0.556176
1.18754
0.18186
0.208026
0.238852
0.274177
0.31325
0.354517
0.395489
0.431776
0.460252
0.480701
0.489569
0.480851
0.458458
0.427443
0.391818
0.360604
0.356527
0.44172
0.995878
0.149848
0.168322
0.191895
0.221963
0.260155
0.307217
0.360799
0.411333
0.441216
0.456119
0.450528
0.408506
0.36244
0.318926
0.27998
0.250074
0.245141
0.324292
0.88349
0.115379
0.121716
0.130334
0.142795
0.162693
0.198754
0.26705
0.388367
0.427643
0.438153
0.410478
0.264389
0.205292
0.174982
0.156052
0.14384
0.14241
0.188953
0.86656
)
;

boundaryField
{
    leftWall
    {
        type            epsilonWallFunction;
        value           nonuniform List<scalar> 
50
(
0.0175566
0.0250436
0.0349434
0.0425662
0.0485135
0.0532392
0.0572041
0.0609142
0.0691141
0.088926
0.118606
0.145134
0.143326
0.147897
0.157119
0.166653
0.173931
0.178868
0.181973
0.183544
0.183713
0.182556
0.180164
0.176679
0.17229
0.167219
0.161699
0.155958
0.150207
0.144635
0.139401
0.134635
0.130435
0.12687
0.123987
0.121812
0.120353
0.119611
0.119592
0.120328
0.121913
0.124539
0.128539
0.134419
0.142848
0.154525
0.169829
0.188202
0.207445
0.222672
)
;
    }
    rightWall
    {
        type            epsilonWallFunction;
        value           nonuniform List<scalar> 
50
(
0.208116
0.210825
0.306234
0.404581
0.485741
0.578434
0.705005
0.878096
1.11813
1.71477
2.14095
1.88522
2.28579
3.66771
5.64878
7.70718
9.63197
11.2002
12.0402
12.2514
11.8645
10.5614
8.92463
7.78292
7.1638
6.81319
6.60511
6.48737
6.44531
6.49662
6.61018
6.55226
6.22698
5.7172
5.14394
4.59409
4.10786
3.68369
3.3052
2.96569
2.65713
2.37683
2.11515
1.86275
1.62232
1.39675
1.18754
0.995878
0.88349
0.86656
)
;
    }
    lowerWall
    {
        type            epsilonWallFunction;
        value           nonuniform List<scalar> 
62
(
0.0175566
0.0498155
0.0859645
0.123973
0.161028
0.196149
0.229281
0.260347
0.289125
0.315338
0.338809
0.359601
0.378054
0.394842
0.411863
0.42678
0.437998
0.44312
0.438004
0.412355
0.345904
0.216053
0.0496177
0.0496177
0.0817174
0.1373
0.2145
0.353714
0.643032
1.2233
2.28888
2.57969
1.92347
1.86405
3.29897
1.13009
2.0751
3.16236
4.02084
4.67631
5.12599
5.35812
5.37587
1.13009
2.64053
3.59615
4.40795
5.14327
5.80508
6.43456
7.10175
7.61269
7.76593
7.11814
5.5898
3.82806
2.59609
1.99391
1.70578
1.4086
0.847736
0.208116
)
;
    }
    atmosphere
    {
        type            inletOutlet;
        inletValue      uniform 0.1;
        value           nonuniform List<scalar> 
46
(
0.222672
0.115009
0.0909979
0.0803506
0.0745488
0.0711901
0.0692884
0.0683593
0.0681472
0.0685241
0.0694521
0.0709815
0.0732866
0.076766
0.0822911
0.1
0.1
0.1
0.1
0.1
0.1
0.1
0.1
0.1
0.1
0.1
0.1
0.1
0.1
0.1
0.1
0.1
0.1
0.1
0.388367
0.427643
0.438153
0.410478
0.1
0.1
0.1
0.1
0.1
0.1
0.1
0.86656
)
;
    }
    defaultFaces
    {
        type            empty;
    }
}


// ************************************************************************* //
