/*--------------------------------*- C++ -*----------------------------------*\
  =========                 |
  \\      /  F ield         | OpenFOAM: The Open Source CFD Toolbox
   \\    /   O peration     | Website:  https://openfoam.org
    \\  /    A nd           | Version:  9
     \\/     M anipulation  |
\*---------------------------------------------------------------------------*/
FoamFile
{
    format      ascii;
    class       volScalarField;
    location    "0.85";
    object      k;
}
// * * * * * * * * * * * * * * * * * * * * * * * * * * * * * * * * * * * * * //

dimensions      [0 2 -2 0 0 0 0];

internalField   nonuniform List<scalar> 
2268
(
0.00783984
0.0105813
0.0128054
0.0152348
0.0174355
0.0194302
0.0211991
0.0227426
0.0240879
0.0252672
0.0263044
0.0272044
0.0279422
0.0284528
0.0286269
0.0283188
0.0273665
0.0256016
0.0231404
0.0200314
0.0162164
0.0116559
0.0103972
0.00995241
0.0200379
0.0271889
0.0326702
0.0372009
0.0410545
0.0443224
0.0470661
0.0493533
0.051246
0.0527841
0.0539664
0.0547321
0.0549475
0.0544083
0.0528755
0.050149
0.0461614
0.0407545
0.0342573
0.0276895
0.0218887
0.0133205
0.0129082
0.0268728
0.0358025
0.0425659
0.0480837
0.0527096
0.05659
0.0598205
0.0624876
0.0646638
0.0663905
0.0676556
0.0683721
0.0683632
0.0673729
0.0651205
0.0614159
0.0562883
0.0499141
0.0425323
0.0347263
0.0276356
0.0162215
0.015603
0.0325973
0.0426939
0.0502007
0.0562685
0.061313
0.0655137
0.0689844
0.07182
0.0740953
0.0758474
0.0770513
0.0775964
0.0772726
0.0757867
0.0728352
0.0682522
0.0621729
0.0549997
0.0471187
0.0388666
0.0309546
0.018042
0.0180356
0.0377295
0.0487519
0.0567806
0.0632057
0.0685067
0.0728887
0.0764762
0.0793666
0.0816327
0.0833042
0.0843428
0.0846174
0.0838907
0.0818419
0.0781557
0.0726976
0.0657116
0.0577908
0.0494897
0.0410462
0.0326075
0.0190392
0.0202755
0.0424336
0.0542554
0.0626957
0.0693767
0.0748424
0.0793219
0.0829469
0.0858143
0.0879918
0.0895007
0.0902901
0.0902109
0.0890044
0.08633
0.0818674
0.0755183
0.0676342
0.0589867
0.0502914
0.0417679
0.0330601
0.0194175
0.0223919
0.0468069
0.0593407
0.0681281
0.0750036
0.0805746
0.0850932
0.0886972
0.0914814
0.0935073
0.0947873
0.0952585
0.0947572
0.0930084
0.0896573
0.0843839
0.0771268
0.0683418
0.0589725
0.0498906
0.0413407
0.0325991
0.0193177
0.0244591
0.0509235
0.0640953
0.0731854
0.0802139
0.0858469
0.0903597
0.0938958
0.0965476
0.0983701
0.0993667
0.0994642
0.0984872
0.0961487
0.0920853
0.08598
0.0778076
0.0681229
0.0580334
0.0485592
0.0400108
0.0314628
0.0189015
0.0104616
0.0107856
0.0107479
0.0107668
0.0126551
0.0161717
0.0225213
0.0334653
0.048802
0.0661558
0.0869324
0.105714
0.116233
0.114537
0.098895
0.078417
0.0575245
0.0362522
0.0162628
0.0127573
0.0226002
0.0246197
0.0252564
0.0283879
0.0362927
0.0513717
0.0756999
0.106414
0.140892
0.17849
0.208067
0.221441
0.210721
0.17703
0.135308
0.101712
0.0750057
0.0325061
0.0181021
0.0308787
0.0329083
0.0342032
0.0400497
0.0530082
0.0752023
0.106631
0.143922
0.183935
0.22503
0.256923
0.270846
0.256856
0.21645
0.16808
0.128644
0.0969539
0.0425416
0.0233604
0.0373301
0.039608
0.0427015
0.0519328
0.06985
0.0979405
0.134291
0.17489
0.216326
0.256375
0.287217
0.30008
0.284172
0.241292
0.188226
0.144489
0.10877
0.0491171
0.0275183
0.0431276
0.0461446
0.0516451
0.0646009
0.0873898
0.120472
0.160188
0.202031
0.242692
0.279716
0.30743
0.317452
0.300518
0.258711
0.203097
0.154541
0.11418
0.053372
0.0312909
0.0487299
0.0529685
0.0612666
0.0781409
0.105544
0.142647
0.184354
0.226078
0.264854
0.298104
0.321632
0.329121
0.313949
0.275816
0.218192
0.162709
0.116415
0.0561127
0.0351056
0.0543624
0.0602448
0.0716226
0.0924632
0.124006
0.164147
0.206758
0.247536
0.283904
0.313637
0.33401
0.341252
0.330117
0.296717
0.236295
0.172622
0.118121
0.0581727
0.0396818
0.0601196
0.0680849
0.0827528
0.107438
0.142438
0.184748
0.227458
0.266824
0.300821
0.328033
0.346814
0.35457
0.34777
0.321105
0.259339
0.185295
0.120918
0.0593456
0.0268277
0.0564596
0.0707668
0.0803888
0.0876582
0.0933525
0.0977959
0.10115
0.10351
0.104925
0.10539
0.104822
0.103038
0.0997454
0.0945826
0.0872471
0.0777572
0.0667627
0.0555416
0.0454245
0.0368617
0.0290526
0.0193681
0.0302861
0.0634666
0.0790374
0.0892148
0.0966647
0.102291
0.106479
0.109418
0.11121
0.111902
0.111483
0.109869
0.10688
0.102241
0.0956211
0.0867761
0.0758261
0.0636077
0.0517984
0.0422618
0.0353197
0.0307897
0.0305975
0.0336606
0.0700146
0.0866975
0.0972999
0.104795
0.110205
0.113978
0.116337
0.117401
0.117226
0.115812
0.113093
0.108924
0.103089
0.0953499
0.085596
0.0741319
0.0620492
0.0513284
0.0435835
0.0392969
0.0389682
0.0441582
0.0368456
0.0761846
0.0938563
0.104772
0.112191
0.117252
0.12047
0.122111
0.122326
0.1212
0.118765
0.115004
0.10985
0.103203
0.094988
0.0852884
0.0745754
0.0639681
0.0549745
0.0488566
0.0462992
0.0475895
0.0527918
0.0398389
0.0819998
0.100554
0.111686
0.118927
0.123534
0.12609
0.12692
0.126225
0.124135
0.120738
0.116096
0.11025
0.103253
0.0952172
0.086396
0.0772978
0.0686426
0.0613411
0.0564071
0.0545665
0.0561344
0.0611154
0.042644
0.0874566
0.106797
0.118065
0.125036
0.1291
0.130937
0.130929
0.129327
0.126325
0.122085
0.116761
0.110512
0.10353
0.0960633
0.0884348
0.0810146
0.0742453
0.0686633
0.0649143
0.063627
0.0652463
0.0700198
0.0452845
0.0925451
0.112551
0.123831
0.130469
0.133966
0.135074
0.134246
0.131799
0.127993
0.123067
0.117258
0.110823
0.104042
0.0972237
0.0906789
0.0846935
0.0795251
0.0754491
0.072826
0.0721126
0.0738085
0.0784614
0.0478555
0.0971785
0.117723
0.129007
0.13531
0.138246
0.138652
0.137056
0.133848
0.129356
0.123888
0.117752
0.111263
0.104746
0.0985184
0.092859
0.0879768
0.0840128
0.0810894
0.0793959
0.079266
0.0812254
0.086037
0.0503348
0.101338
0.122382
0.133653
0.139629
0.142035
0.141794
0.13951
0.135642
0.130586
0.124705
0.118355
0.111886
0.105633
0.0998985
0.0949208
0.0908499
0.0877559
0.0856814
0.0847322
0.085181
0.0875578
0.0927099
0.0526397
0.105084
0.126568
0.137818
0.143491
0.145417
0.144603
0.141726
0.137311
0.131807
0.125623
0.119145
0.112734
0.10672
0.101379
0.0969134
0.0934319
0.0909673
0.0895273
0.0891827
0.090174
0.0930103
0.0985351
0.0547707
0.108441
0.130316
0.141548
0.146957
0.14847
0.147172
0.143808
0.138958
0.133118
0.126727
0.120187
0.113856
0.10805
0.103017
0.09893
0.0958741
0.0938668
0.0929061
0.0930504
0.0945176
0.0977785
0.103626
0.0567327
0.111437
0.133664
0.144891
0.150087
0.151265
0.149581
0.14584
0.14067
0.134601
0.128091
0.121545
0.115314
0.109691
0.104901
0.101093
0.0983411
0.0966616
0.0960565
0.0965837
0.0984433
0.102062
0.108166
0.0585364
0.114102
0.136648
0.147894
0.152935
0.153864
0.1519
0.147897
0.142522
0.136328
0.129785
0.123294
0.117189
0.111741
0.107154
0.103559
0.101025
0.0995747
0.099223
0.100035
0.102201
0.10611
0.112422
0.0601934
0.116464
0.139305
0.150597
0.155549
0.156321
0.154186
0.150039
0.144577
0.138368
0.131885
0.125517
0.119584
0.114331
0.10994
0.10653
0.104166
0.102881
0.102707
0.103723
0.106122
0.110273
0.116793
0.0617144
0.11855
0.141667
0.153039
0.15797
0.15868
0.156487
0.152318
0.146891
0.140783
0.134464
0.12831
0.12262
0.117618
0.113463
0.11026
0.108071
0.106936
0.106906
0.108085
0.11068
0.115066
0.121859
0.0631073
0.12038
0.14376
0.155247
0.160228
0.160974
0.158837
0.154772
0.14951
0.143631
0.137598
0.131774
0.126436
0.121785
0.117961
0.11505
0.113109
0.112181
0.112337
0.113704
0.116526
0.121211
0.128424
0.0643773
0.121971
0.145603
0.157241
0.162345
0.163224
0.161262
0.15743
0.152471
0.146963
0.141361
0.136011
0.131172
0.127025
0.123685
0.121223
0.119682
0.119108
0.119581
0.121259
0.124429
0.12956
0.137401
0.0655263
0.123333
0.147209
0.159036
0.164333
0.165445
0.163777
0.160315
0.155805
0.150824
0.145816
0.141116
0.136962
0.133514
0.130869
0.129074
0.128157
0.128158
0.129163
0.131352
0.135055
0.140805
0.149433
0.0665535
0.124473
0.148586
0.160641
0.166203
0.167648
0.166395
0.163443
0.159537
0.155252
0.151022
0.147168
0.143912
0.141392
0.139682
0.138805
0.138767
0.139593
0.141364
0.144268
0.148656
0.155096
0.164455
0.0674556
0.125394
0.149742
0.162063
0.167965
0.169843
0.169132
0.166833
0.163694
0.160282
0.157023
0.154223
0.152086
0.150729
0.150194
0.150474
0.151545
0.153404
0.156112
0.159841
0.164932
0.171941
0.181709
0.0682281
0.126101
0.150683
0.163315
0.169633
0.172051
0.172009
0.170513
0.168305
0.165945
0.163849
0.162307
0.1615
0.161514
0.162356
0.163978
0.166314
0.169322
0.173023
0.177555
0.183216
0.190513
0.200205
0.0688659
0.126598
0.151425
0.164419
0.171238
0.174306
0.175067
0.174523
0.173409
0.172276
0.171522
0.171417
0.172113
0.173657
0.176011
0.179077
0.182739
0.186905
0.191548
0.196755
0.202769
0.210044
0.219052
0.0693648
0.126898
0.151992
0.165412
0.172826
0.176664
0.178366
0.178924
0.179061
0.179311
0.180052
0.181524
0.183843
0.187008
0.190927
0.195448
0.200402
0.205646
0.211103
0.216807
0.222939
0.229856
0.237877
0.0697216
0.127022
0.152425
0.166352
0.174473
0.17921
0.181995
0.1838
0.185331
0.187097
0.189448
0.192587
0.196582
0.20138
0.206835
0.212738
0.218872
0.225049
0.231149
0.237163
0.243235
0.249528
0.256426
0.0699358
0.127002
0.152784
0.167325
0.17628
0.182059
0.186071
0.189263
0.192312
0.195695
0.199723
0.204555
0.21021
0.216581
0.223463
0.230603
0.23774
0.244654
0.251198
0.25733
0.263149
0.268721
0.274458
0.0700092
0.126884
0.153152
0.168443
0.178384
0.185361
0.190748
0.195455
0.200121
0.205181
0.2109
0.217389
0.224615
0.232421
0.240555
0.248719
0.256629
0.264045
0.270809
0.276869
0.282276
0.287079
0.291683
0.069946
0.126732
0.153638
0.169852
0.180961
0.189308
0.196218
0.202556
0.20891
0.215662
0.223023
0.231056
0.239684
0.248721
0.257863
0.266776
0.275172
0.282815
0.289552
0.295347
0.300171
0.304183
0.307735
0.0697504
0.126623
0.154376
0.171735
0.184229
0.19414
0.202729
0.210796
0.21888
0.227282
0.236159
0.245533
0.255291
0.265214
0.274998
0.284319
0.292886
0.300473
0.306942
0.312267
0.316435
0.319656
0.322261
0.0694236
0.126653
0.155533
0.174313
0.188468
0.200169
0.210599
0.220471
0.230223
0.240107
0.250236
0.260607
0.271103
0.281508
0.29154
0.300894
0.309296
0.316539
0.322508
0.327188
0.330626
0.333068
0.334841
0.0690487
0.126939
0.157319
0.177851
0.193928
0.207663
0.220103
0.231819
0.243128
0.254213
0.265175
0.276038
0.286734
0.297098
0.306894
0.315855
0.323737
0.330358
0.335629
0.339531
0.342202
0.343912
0.344992
0.0688584
0.127429
0.159773
0.182476
0.20087
0.21696
0.231611
0.245175
0.257804
0.269618
0.280768
0.291392
0.301551
0.311192
0.320161
0.328247
0.335243
0.340994
0.345422
0.348524
0.350479
0.351576
0.352148
0.0687522
0.128165
0.162945
0.1883
0.209486
0.228348
0.245458
0.26082
0.274344
0.286131
0.296499
0.305849
0.314489
0.322545
0.329992
0.336688
0.34246
0.347177
0.350752
0.353186
0.35462
0.355337
0.355665
0.0686298
0.129031
0.166674
0.195186
0.219707
0.241852
0.261713
0.278702
0.29239
0.302972
0.311169
0.317881
0.323805
0.32931
0.334518
0.339364
0.343697
0.34739
0.350332
0.352441
0.353741
0.354445
0.354875
0.068336
0.129697
0.170429
0.202486
0.230835
0.256776
0.279626
0.297779
0.31039
0.31806
0.322318
0.324887
0.32698
0.329168
0.331669
0.33446
0.337394
0.340335
0.343124
0.345488
0.347215
0.348368
0.349251
0.0676069
0.129564
0.17313
0.208686
0.240975
0.270954
0.296693
0.314866
0.324394
0.32706
0.325798
0.323428
0.321557
0.320655
0.320752
0.321738
0.323546
0.326123
0.329368
0.332762
0.335614
0.337638
0.339114
0.0660461
0.127837
0.173099
0.211169
0.246597
0.280198
0.307886
0.323364
0.326822
0.323133
0.317011
0.31178
0.308491
0.30696
0.306259
0.305803
0.306148
0.308131
0.312032
0.317017
0.32146
0.324405
0.326129
0.063116
0.123626
0.168272
0.206633
0.243384
0.279517
0.306153
0.313462
0.308007
0.300696
0.296541
0.295426
0.295685
0.297235
0.297316
0.294594
0.291747
0.292112
0.29636
0.303073
0.308884
0.312104
0.313219
0.057981
0.115178
0.15678
0.193178
0.229462
0.266174
0.288194
0.284149
0.27397
0.271048
0.275087
0.281653
0.286687
0.291988
0.292557
0.286874
0.280098
0.279374
0.282953
0.288658
0.294013
0.297281
0.298848
0.0498305
0.100624
0.139214
0.174748
0.214123
0.256849
0.273257
0.255939
0.245166
0.245007
0.251161
0.260345
0.27092
0.282688
0.285007
0.273755
0.265071
0.265513
0.269778
0.276338
0.282398
0.285952
0.287946
0.0441809
0.0932813
0.131624
0.167978
0.214388
0.269866
0.276882
0.241463
0.225093
0.226234
0.232861
0.238893
0.245016
0.253768
0.260173
0.258455
0.250978
0.250746
0.254779
0.259947
0.265139
0.269001
0.272919
0.0572535
0.11379
0.148953
0.17613
0.223496
0.289702
0.278891
0.224961
0.210114
0.214627
0.222998
0.223933
0.232474
0.238826
0.253834
0.271619
0.245777
0.241576
0.246832
0.246945
0.253016
0.255616
0.264617
0.0718726
0.118437
0.132294
0.156318
0.195449
0.251099
0.214565
0.151368
0.168057
0.184944
0.177651
0.190848
0.199825
0.22116
0.257206
0.268837
0.20036
0.203979
0.202142
0.215202
0.223578
0.235076
0.250216
0.0192726
0.0245609
0.0349427
0.0440943
0.0441695
0.049855
0.0522156
0.0560764
0.0536344
0.0572936
0.0609787
0.0663674
0.0602668
0.064908
0.0703008
0.0768277
0.0685543
0.0738243
0.0799781
0.0872562
0.077392
0.0829305
0.0895708
0.0975129
0.0858765
0.0916657
0.0987253
0.107215
0.0936618
0.0996944
0.107075
0.115929
0.100576
0.106786
0.114347
0.12336
0.106573
0.112863
0.120458
0.129438
0.111736
0.118016
0.125529
0.134335
0.116273
0.122491
0.129862
0.138431
0.120516
0.126676
0.133922
0.142287
0.12494
0.131114
0.138342
0.146643
0.130216
0.13655
0.143951
0.152435
0.137229
0.143919
0.15174
0.1607
0.146893
0.154114
0.162549
0.17219
0.159683
0.167449
0.176469
0.186651
0.17522
0.18329
0.192475
0.202635
0.192436
0.200279
0.209096
0.21879
0.210177
0.217416
0.225518
0.234409
0.227917
0.234321
0.241486
0.249366
0.245446
0.2509
0.257023
0.263804
0.26265
0.267131
0.272199
0.277878
0.279387
0.28294
0.287008
0.291651
0.295431
0.298158
0.301338
0.305075
0.310461
0.312478
0.314897
0.317859
0.324131
0.32555
0.327331
0.329647
0.336022
0.336957
0.338228
0.34003
0.345653
0.346227
0.347118
0.348538
0.352478
0.352822
0.353466
0.354629
0.355882
0.356145
0.356682
0.357704
0.355222
0.355571
0.356143
0.35713
0.349942
0.350523
0.351254
0.352301
0.340167
0.340986
0.341868
0.342964
0.327174
0.327988
0.32888
0.329998
0.313819
0.314414
0.315193
0.316296
0.299971
0.301025
0.302255
0.303647
0.289619
0.291462
0.293629
0.294919
0.276147
0.278931
0.281647
0.284079
0.27247
0.279751
0.287478
0.293882
0.286411
0.30834
0.322621
0.347254
0.0518774
0.069323
0.0815422
0.101556
0.131696
0.170651
0.213717
0.254798
0.291417
0.322377
0.346952
0.364037
0.372092
0.371489
0.35804
0.30312
0.21128
0.129995
0.0567576
0.0634146
0.0803987
0.0989128
0.126304
0.163156
0.205902
0.248257
0.286698
0.320334
0.348619
0.371037
0.387434
0.398751
0.408169
0.416451
0.381201
0.261345
0.150309
0.0595446
0.0747667
0.0934618
0.117909
0.151519
0.192631
0.236301
0.276944
0.312926
0.344072
0.370254
0.392092
0.410642
0.427647
0.447368
0.472855
0.466451
0.335692
0.193343
0.0719538
0.0863885
0.107911
0.137334
0.175252
0.218272
0.261188
0.29983
0.333672
0.362646
0.387448
0.410109
0.432083
0.455051
0.4825
0.514307
0.524828
0.410521
0.245771
0.0934816
0.0981566
0.122646
0.155759
0.196093
0.239336
0.28069
0.317314
0.349109
0.376247
0.400541
0.424809
0.450543
0.479235
0.512921
0.54843
0.561392
0.46568
0.29408
0.113248
0.109699
0.136623
0.172049
0.213285
0.255772
0.295174
0.329816
0.359689
0.385442
0.409884
0.436065
0.465536
0.499825
0.539526
0.578631
0.596899
0.515644
0.33851
0.129623
0.12045
0.148995
0.185491
0.226521
0.267613
0.305016
0.337777
0.365965
0.390879
0.415959
0.444055
0.476998
0.516825
0.56317
0.606999
0.628744
0.567933
0.384342
0.146991
0.129891
0.159207
0.195757
0.235804
0.275111
0.31066
0.34174
0.368662
0.393422
0.419508
0.449418
0.485418
0.53035
0.583685
0.633133
0.657184
0.610712
0.425981
0.166471
0.137707
0.167043
0.202888
0.241473
0.278906
0.312833
0.3426
0.368934
0.394273
0.421559
0.453166
0.491896
0.541401
0.601481
0.656874
0.683573
0.644447
0.458415
0.181954
0.143867
0.17264
0.20729
0.244233
0.280023
0.312756
0.341808
0.368228
0.394349
0.423007
0.456118
0.497262
0.551192
0.618311
0.681315
0.712361
0.672445
0.480498
0.191319
0.148621
0.176475
0.209745
0.245221
0.279988
0.312232
0.341131
0.36763
0.39489
0.42505
0.459292
0.502397
0.560472
0.634941
0.707439
0.74441
0.697743
0.495947
0.199899
0.152469
0.179334
0.211436
0.246095
0.280773
0.313177
0.341982
0.36885
0.396996
0.428384
0.46354
0.508067
0.569233
0.650333
0.732038
0.770853
0.714223
0.509827
0.208556
0.15613
0.18229
0.2139
0.248713
0.284217
0.316793
0.345998
0.373188
0.401452
0.43324
0.469461
0.51476
0.577575
0.66341
0.752221
0.790405
0.719684
0.514096
0.215129
0.160533
0.186652
0.218708
0.254707
0.290945
0.324157
0.353844
0.381051
0.408761
0.440208
0.477032
0.522441
0.586343
0.674964
0.767863
0.799882
0.711008
0.506523
0.214942
0.166797
0.19383
0.226955
0.264324
0.301283
0.335065
0.364975
0.391858
0.418761
0.449258
0.485517
0.531322
0.596819
0.687247
0.782485
0.804033
0.690454
0.489205
0.209408
0.176025
0.20447
0.238722
0.276851
0.314201
0.348125
0.37784
0.404253
0.430405
0.459575
0.49476
0.541894
0.610432
0.70294
0.798979
0.79796
0.655764
0.467698
0.202121
0.188725
0.21819
0.252882
0.290708
0.32782
0.361367
0.390587
0.41649
0.442011
0.470048
0.504878
0.554711
0.62798
0.723096
0.817826
0.780705
0.618993
0.446027
0.194158
0.203823
0.233475
0.267586
0.304132
0.340314
0.373136
0.401784
0.427164
0.452007
0.479572
0.515621
0.56974
0.648547
0.744072
0.822805
0.756948
0.591333
0.42561
0.186256
0.219743
0.248564
0.281219
0.315954
0.350602
0.38261
0.410763
0.435742
0.460091
0.488021
0.52688
0.586474
0.670264
0.762311
0.817287
0.728751
0.566644
0.407037
0.178731
0.235167
0.262345
0.292994
0.325712
0.358657
0.389855
0.417671
0.44249
0.466811
0.495968
0.538796
0.604517
0.691881
0.775825
0.801675
0.696732
0.541904
0.389489
0.171485
0.249559
0.274595
0.302981
0.333669
0.365082
0.395512
0.423191
0.448117
0.472882
0.503914
0.5514
0.623574
0.713321
0.785545
0.77794
0.662974
0.516814
0.372156
0.164268
0.262992
0.285651
0.311723
0.340494
0.370632
0.400487
0.428249
0.453533
0.479027
0.512152
0.564407
0.643051
0.734482
0.792597
0.752521
0.630338
0.491963
0.35466
0.156872
0.275769
0.296007
0.31985
0.346898
0.376042
0.405647
0.433744
0.459606
0.485859
0.520764
0.577142
0.661364
0.752706
0.794381
0.730737
0.599782
0.467175
0.336706
0.149148
0.288171
0.306074
0.327864
0.353437
0.381909
0.411617
0.440375
0.467001
0.493828
0.529744
0.588916
0.676853
0.765734
0.786631
0.700465
0.564559
0.440618
0.317755
0.140954
0.300352
0.316094
0.336069
0.360452
0.388575
0.418766
0.448582
0.476154
0.503257
0.539231
0.599714
0.689318
0.773421
0.76879
0.657982
0.52791
0.413296
0.297817
0.132309
0.312333
0.326128
0.344524
0.367996
0.396125
0.427254
0.458551
0.487275
0.514381
0.549633
0.61055
0.700868
0.778738
0.744405
0.615821
0.494576
0.387319
0.278003
0.123516
0.323857
0.335994
0.353131
0.376021
0.404517
0.437006
0.470224
0.500344
0.527279
0.561406
0.622794
0.712857
0.774785
0.710506
0.57853
0.464964
0.363726
0.259615
0.115013
0.334601
0.345409
0.361609
0.384233
0.413429
0.44768
0.483295
0.515117
0.541789
0.574597
0.637024
0.726545
0.763193
0.674977
0.546865
0.439302
0.343067
0.243485
0.107217
0.344163
0.353954
0.369503
0.392117
0.422276
0.458637
0.497186
0.531024
0.557441
0.588327
0.65071
0.738458
0.751303
0.643516
0.519971
0.417616
0.325762
0.230173
0.100508
0.352057
0.361089
0.376192
0.398947
0.430206
0.468923
0.510922
0.547366
0.573741
0.60154
0.660782
0.743388
0.73436
0.614781
0.497335
0.40013
0.312358
0.220234
0.0952926
0.357718
0.366162
0.38091
0.403805
0.436113
0.47725
0.523161
0.563159
0.590388
0.61444
0.667052
0.741057
0.712264
0.589511
0.479669
0.387643
0.303632
0.214305
0.0920273
0.360507
0.368433
0.382784
0.405637
0.438683
0.481982
0.531987
0.57678
0.606827
0.628169
0.671682
0.732701
0.691431
0.571643
0.468643
0.381229
0.300373
0.212955
0.0911277
0.359751
0.367145
0.380955
0.40341
0.436552
0.481172
0.534844
0.585537
0.621489
0.644043
0.678937
0.724925
0.679048
0.564039
0.466013
0.381859
0.30308
0.216454
0.0927942
0.354829
0.361705
0.374835
0.396429
0.428698
0.473098
0.528695
0.585443
0.630828
0.662117
0.693944
0.726501
0.683412
0.571245
0.474005
0.39022
0.311644
0.224545
0.0968754
0.345443
0.352033
0.364538
0.38487
0.415099
0.457208
0.511337
0.571848
0.628531
0.678378
0.720257
0.747543
0.714534
0.598458
0.493709
0.405441
0.324624
0.23611
0.102779
0.332547
0.339161
0.351322
0.370194
0.397511
0.435409
0.483764
0.54193
0.606899
0.682408
0.754217
0.789275
0.765796
0.640011
0.518815
0.422556
0.338367
0.248797
0.109464
0.319082
0.326066
0.337912
0.355034
0.379276
0.41219
0.452032
0.499967
0.566245
0.664994
0.78245
0.837745
0.782117
0.652481
0.529196
0.431586
0.347212
0.259368
0.11615
0.306343
0.312218
0.322586
0.337488
0.359037
0.387476
0.420331
0.461094
0.5258
0.629906
0.745262
0.791958
0.71017
0.604534
0.508467
0.423633
0.346043
0.264001
0.124124
0.296199
0.299776
0.306396
0.315675
0.329061
0.346537
0.366697
0.3967
0.449058
0.52844
0.592787
0.617396
0.589067
0.532507
0.466333
0.399857
0.335001
0.262308
0.127836
0.287753
0.291078
0.294775
0.300131
0.306517
0.314427
0.324202
0.338949
0.363992
0.404885
0.448222
0.478389
0.478604
0.454708
0.411981
0.364504
0.312925
0.250283
0.122303
0.299369
0.30093
0.301913
0.3086
0.312151
0.31544
0.318531
0.322835
0.327468
0.349392
0.366299
0.392967
0.387322
0.380917
0.346241
0.320066
0.276849
0.228517
0.104866
0.313125
0.326457
0.31758
0.347804
0.330184
0.340277
0.329626
0.335979
0.304477
0.305392
0.285999
0.294156
0.255179
0.261293
0.21682
0.217841
0.177605
0.150561
0.0915077
)
;

boundaryField
{
    leftWall
    {
        type            kqRWallFunction;
        value           nonuniform List<scalar> 
50
(
0.00783984
0.00995241
0.0129082
0.015603
0.0180356
0.0202755
0.0223919
0.0244591
0.0268277
0.0302861
0.0336606
0.0368456
0.0398389
0.042644
0.0452845
0.0478555
0.0503348
0.0526397
0.0547707
0.0567327
0.0585364
0.0601934
0.0617144
0.0631073
0.0643773
0.0655263
0.0665535
0.0674556
0.0682281
0.0688659
0.0693648
0.0697216
0.0699358
0.0700092
0.069946
0.0697504
0.0694236
0.0690487
0.0688584
0.0687522
0.0686298
0.068336
0.0676069
0.0660461
0.063116
0.057981
0.0498305
0.0441809
0.0572535
0.0718726
)
;
    }
    rightWall
    {
        type            kqRWallFunction;
        value           nonuniform List<scalar> 
50
(
0.0162628
0.0325061
0.0425416
0.0491171
0.053372
0.0561127
0.0581727
0.0593456
0.0567576
0.0595446
0.0719538
0.0934816
0.113248
0.129623
0.146991
0.166471
0.181954
0.191319
0.199899
0.208556
0.215129
0.214942
0.209408
0.202121
0.194158
0.186256
0.178731
0.171485
0.164268
0.156872
0.149148
0.140954
0.132309
0.123516
0.115013
0.107217
0.100508
0.0952926
0.0920273
0.0911277
0.0927942
0.0968754
0.102779
0.109464
0.11615
0.124124
0.127836
0.122303
0.104866
0.0915077
)
;
    }
    lowerWall
    {
        type            kqRWallFunction;
        value           nonuniform List<scalar> 
62
(
0.00783984
0.0105813
0.0128054
0.0152348
0.0174355
0.0194302
0.0211991
0.0227426
0.0240879
0.0252672
0.0263044
0.0272044
0.0279422
0.0284528
0.0286269
0.0283188
0.0273665
0.0256016
0.0231404
0.0200314
0.0162164
0.0116559
0.0103972
0.0103972
0.0133205
0.0162215
0.018042
0.0190392
0.0194175
0.0193177
0.0189015
0.0192726
0.0245609
0.0349427
0.0440943
0.0104616
0.0127573
0.0181021
0.0233604
0.0275183
0.0312909
0.0351056
0.0396818
0.0104616
0.0107856
0.0107479
0.0107668
0.0126551
0.0161717
0.0225213
0.0334653
0.048802
0.0661558
0.0869324
0.105714
0.116233
0.114537
0.098895
0.078417
0.0575245
0.0362522
0.0162628
)
;
    }
    atmosphere
    {
        type            inletOutlet;
        inletValue      uniform 0.1;
        value           nonuniform List<scalar> 
46
(
0.0718726
0.118437
0.1
0.156318
0.1
0.251099
0.214565
0.1
0.1
0.184944
0.1
0.190848
0.1
0.22116
0.1
0.268837
0.1
0.203979
0.1
0.215202
0.1
0.235076
0.1
0.286411
0.30834
0.322621
0.1
0.1
0.326457
0.31758
0.1
0.1
0.340277
0.329626
0.1
0.1
0.305392
0.1
0.294156
0.1
0.261293
0.1
0.217841
0.1
0.150561
0.1
)
;
    }
    defaultFaces
    {
        type            empty;
    }
}


// ************************************************************************* //
