/*--------------------------------*- C++ -*----------------------------------*\
  =========                 |
  \\      /  F ield         | OpenFOAM: The Open Source CFD Toolbox
   \\    /   O peration     | Website:  https://openfoam.org
    \\  /    A nd           | Version:  9
     \\/     M anipulation  |
\*---------------------------------------------------------------------------*/
FoamFile
{
    format      ascii;
    class       volScalarField;
    location    "0.85";
    object      nut;
}
// * * * * * * * * * * * * * * * * * * * * * * * * * * * * * * * * * * * * * //

dimensions      [0 2 -1 0 0 0 0];

internalField   nonuniform List<scalar> 
2268
(
0.00015692
6.71193e-05
7.57181e-05
8.25895e-05
8.82909e-05
9.31453e-05
9.72799e-05
0.000100782
0.000103758
0.000106307
0.000108497
0.000110347
0.000111818
0.000112794
0.000113075
0.000112389
0.00011041
0.000106724
0.000101484
9.44068e-05
8.49191e-05
7.19715e-05
0.000283527
0.00014011
0.000449745
0.000637248
0.000745583
0.000816227
0.000867054
0.000905504
0.000934619
0.000955782
0.000969717
0.000976731
0.000976649
0.000968678
0.000951294
0.000922321
0.00087934
0.000820429
0.000744301
0.000631979
0.000493619
0.000365313
0.000275259
0.000163642
0.000159631
0.000743449
0.00115514
0.00141216
0.00158294
0.00170448
0.001794
0.0018592
0.00190371
0.00192935
0.00193693
0.0019264
0.00189664
0.00184542
0.00176967
0.00166636
0.001534
0.00137292
0.0011725
0.000929737
0.000674973
0.000465631
0.000180971
0.000175536
0.000953532
0.00155191
0.00194696
0.00221653
0.00240865
0.00254781
0.0026459
0.00270879
0.00273956
0.00273983
0.0027101
0.0026497
0.00255684
0.00242909
0.00226464
0.00206434
0.0018322
0.00156614
0.0012603
0.000929071
0.00061997
0.000191269
0.000188744
0.00112524
0.00187493
0.00238812
0.00274567
0.00300111
0.00318372
0.00330864
0.00338374
0.00341334
0.00339995
0.00334488
0.00324834
0.00310963
0.00292775
0.00270312
0.00243999
0.00214734
0.00183028
0.001484
0.00111099
0.000731792
0.000196946
0.000200139
0.00127334
0.00215049
0.00276457
0.00319855
0.00350893
0.00372817
0.0038739
0.00395568
0.00397899
0.00394723
0.00386261
0.0037264
0.00353923
0.00330194
0.00301758
0.00269444
0.00234737
0.00198874
0.00161608
0.00122354
0.000802136
0.000199426
0.000210336
0.00140429
0.0023925
0.00309412
0.00359452
0.0039522
0.00420187
0.00436315
0.00444705
0.00446007
0.00440649
0.00428941
0.00411118
0.00387384
0.00358014
0.00323592
0.00285373
0.00245505
0.00206037
0.0016705
0.00127374
0.00083466
0.000199512
0.000219813
0.00152236
0.00260934
0.0033881
0.00394667
0.00434513
0.00461999
0.00479248
0.00487485
0.00487455
0.00479667
0.00464513
0.00442337
0.00413479
0.00378401
0.00337957
0.00293828
0.0024886
0.00206025
0.00165824
0.0012679
0.000833609
0.00019785
0.00028539
6.91215e-05
6.73789e-05
6.92331e-05
7.70939e-05
9.11246e-05
0.000112852
0.00014182
0.000169962
0.000194129
0.000222053
0.000240597
0.000251425
0.000250545
0.000234722
0.000211513
0.000182784
0.000146682
0.000135002
0.000177031
0.000372626
0.000383798
0.000401617
0.000484243
0.000664138
0.000962647
0.00134838
0.00168597
0.00197385
0.00219889
0.002312
0.00232773
0.00218696
0.00185402
0.00132134
0.000917728
0.000678929
0.000327495
0.000209313
0.000610277
0.000674051
0.000767932
0.000982864
0.00135118
0.00187848
0.00249319
0.00308659
0.0036094
0.00402217
0.00426062
0.00430599
0.00406672
0.00348266
0.00260364
0.00179187
0.00121555
0.000370171
0.000237482
0.000817818
0.000968485
0.00115715
0.00147808
0.00196198
0.00261293
0.0033484
0.00407203
0.00471764
0.00523538
0.00554819
0.00560647
0.00531182
0.00460866
0.00356617
0.00251106
0.00164224
0.00039091
0.000258372
0.00101438
0.00126952
0.00154051
0.00193603
0.0025045
0.00324319
0.00405288
0.00483896
0.00553536
0.00608984
0.00642561
0.00647221
0.0061392
0.00538463
0.00426286
0.00305267
0.00194719
0.000400568
0.000275909
0.0012039
0.00156782
0.00190511
0.00236332
0.00300769
0.00381622
0.00467231
0.00548488
0.00619285
0.00674415
0.00707085
0.00709729
0.00674215
0.00596687
0.00480317
0.00347018
0.00215726
0.000404256
0.000292838
0.00139035
0.00185796
0.00225215
0.00277237
0.0034867
0.00435035
0.005234
0.00605302
0.00675197
0.00728275
0.00758825
0.00759779
0.00723171
0.0064466
0.00525397
0.00381902
0.00230404
0.000405637
0.00031249
0.00158586
0.00214148
0.00258827
0.00317132
0.0039465
0.00485231
0.0057503
0.00656418
0.00724498
0.00775084
0.00803233
0.00802396
0.00765212
0.00687204
0.00566138
0.00412617
0.00240806
0.000410468
0.000230084
0.00168088
0.00290625
0.00379397
0.00443419
0.00488856
0.0051957
0.00537913
0.00545305
0.00542655
0.00530617
0.00509747
0.00480586
0.00443732
0.00399969
0.00350554
0.00297715
0.00245117
0.00196947
0.00154853
0.00117491
0.00078413
0.000264332
0.000244241
0.00185842
0.00324474
0.00425541
0.00498426
0.00549635
0.00583322
0.00602094
0.00607595
0.00600917
0.00582892
0.00554273
0.00515859
0.00468583
0.00413655
0.00352857
0.00289081
0.00226965
0.00172714
0.00131071
0.000987879
0.000698723
0.000468793
0.000257607
0.00200916
0.00353624
0.00465208
0.00545499
0.00601391
0.00637309
0.00656081
0.00659541
0.00648953
0.00625323
0.00589621
0.00542938
0.00486617
0.00422419
0.0035284
0.00281715
0.00214939
0.0016032
0.00121845
0.000965982
0.000817254
0.000797574
0.0002696
0.00214302
0.00379369
0.00500107
0.0058679
0.00646705
0.00684538
0.00703325
0.00705087
0.00691273
0.00663099
0.00621809
0.00568891
0.00506259
0.00436467
0.00363012
0.00290752
0.00226127
0.0017477
0.00139381
0.00119224
0.00112568
0.0011996
0.000280353
0.00226247
0.00402269
0.00531122
0.00623507
0.00687109
0.00726856
0.00745992
0.00746765
0.00730834
0.00699668
0.00654862
0.00598403
0.005329
0.00461778
0.00389392
0.00320927
0.00260672
0.00212443
0.00179008
0.00161058
0.0015835
0.001717
0.000289981
0.00236816
0.00422583
0.00558743
0.00656308
0.00723359
0.00765193
0.00785291
0.00786036
0.00769304
0.00736857
0.00690683
0.00633285
0.00567886
0.0049846
0.0042943
0.00364927
0.00308897
0.00264199
0.00232838
0.00216057
0.00214613
0.00229247
0.000298613
0.00246001
0.00440417
0.00583008
0.00685236
0.00755608
0.00799695
0.0082121
0.0082278
0.00806495
0.00774351
0.00728602
0.00672054
0.00608215
0.00541232
0.00475494
0.00415003
0.00362888
0.00321238
0.00291452
0.00274605
0.0027152
0.00282575
0.000306639
0.00253743
0.00455762
0.00604197
0.0071078
0.007844
0.00830908
0.00854243
0.00857235
0.00842173
0.00811243
0.00766891
0.00712103
0.00650525
0.00586322
0.00523731
0.0046641
0.00416975
0.00376985
0.00347348
0.00328748
0.00321798
0.00326927
0.000314429
0.00260218
0.00468962
0.00622664
0.00733295
0.00810087
0.00859146
0.00884616
0.00889499
0.00876234
0.00847135
0.00804751
0.00752132
0.00692924
0.00631198
0.00570975
0.00515608
0.00467362
0.00427452
0.00396456
0.00374805
0.00363109
0.00362303
0.000321501
0.00265631
0.00480245
0.00638675
0.00753063
0.00832932
0.00884613
0.00912422
0.00919495
0.00908371
0.00881421
0.00841214
0.00790766
0.00733634
0.00673738
0.00614892
0.00560232
0.00511827
0.00470731
0.00437404
0.00412261
0.00396132
0.00390538
0.000327908
0.00270109
0.00489809
0.00652471
0.00770338
0.00853166
0.00907474
0.00937714
0.00947113
0.00938256
0.00913517
0.00875416
0.00826877
0.00771322
0.00712509
0.00654096
0.00599104
0.0054956
0.00506542
0.00470587
0.0044226
0.00422653
0.00413666
0.000333688
0.00273754
0.00497836
0.00664281
0.00785359
0.0087101
0.00927893
0.00960555
0.00972274
0.00965639
0.00942984
0.00906746
0.00859734
0.00805233
0.0074686
0.00688175
0.00632176
0.00580975
0.00535817
0.00497442
0.00466625
0.00444635
0.00433489
0.000338902
0.00276664
0.00504497
0.00674316
0.00798357
0.00886678
0.00946038
0.00981038
0.00994969
0.00990392
0.00969584
0.009349
0.00889048
0.00835204
0.00776886
0.00717593
0.0066036
0.00607443
0.00560324
0.00520003
0.00487456
0.00464039
0.00451714
0.000343608
0.00278922
0.00509943
0.00682771
0.0080954
0.00900377
0.00962089
0.00999293
0.0101526
0.0101252
0.00993288
0.00959875
0.00914939
0.00861601
0.00803313
0.00743532
0.00685318
0.0063106
0.00582464
0.00540784
0.00507186
0.00483083
0.0047036
0.000347856
0.00280599
0.00514305
0.00689811
0.00819095
0.00912293
0.0097622
0.0101547
0.0103328
0.0103214
0.0101425
0.00981934
0.00937874
0.00885203
0.00827343
0.00767688
0.00709259
0.00654483
0.00605209
0.00562892
0.0052889
0.00504727
0.00492326
0.000351683
0.00281752
0.00517682
0.00695569
0.00827171
0.00922587
0.00988593
0.0102974
0.0104921
0.0104947
0.0103278
0.0100155
0.00958572
0.00907072
0.00850464
0.00792042
0.00734683
0.00680719
0.00631998
0.0059009
0.00556536
0.00533076
0.00521873
0.000355117
0.0028242
0.00520148
0.0070014
0.00833884
0.00931386
0.00999348
0.0104225
0.0106323
0.0106479
0.0104928
0.0101931
0.00977889
0.00928385
0.0087422
0.00818545
0.00764
0.00712678
0.00666281
0.00626368
0.00594621
0.00573062
0.00564274
0.000358173
0.00282628
0.00521749
0.00703589
0.00839313
0.00938784
0.010086
0.0105314
0.0107555
0.0107838
0.0106419
0.0103586
0.00996692
0.00950239
0.00899927
0.00848724
0.00798965
0.00752416
0.00710512
0.00674683
0.00646651
0.0062867
0.0062373
0.000360855
0.0028239
0.00522508
0.00705949
0.00843501
0.00944837
0.0101641
0.0106254
0.0108634
0.0109053
0.0107792
0.0105177
0.010157
0.00973441
0.00928389
0.00883288
0.00840132
0.00800321
0.00764976
0.00735305
0.00712938
0.00700175
0.00700163
0.000363161
0.0028171
0.00522433
0.00707233
0.00846466
0.00949566
0.0102283
0.0107049
0.0109571
0.0110142
0.0109079
0.0106744
0.0103534
0.0099832
0.00959688
0.00921906
0.00886603
0.00854816
0.00827348
0.00805144
0.00789621
0.00782901
0.00787958
0.000365082
0.00280591
0.00521524
0.00707442
0.00848205
0.0095296
0.0102782
0.0107697
0.0110368
0.0111112
0.0110288
0.0108298
0.010556
0.0102462
0.00993128
0.00963257
0.00936262
0.00912834
0.0089348
0.00878877
0.00870161
0.0086912
0.00878236
0.000366608
0.00279036
0.00519783
0.0070657
0.00848694
0.00954966
0.0103131
0.0108188
0.011101
0.011195
0.0111404
0.0109809
0.0107598
0.0105146
0.0102732
0.0100532
0.00986324
0.0097073
0.00958778
0.009509
0.00947948
0.00951353
0.00962514
0.000367729
0.00277058
0.00517223
0.00704614
0.00847892
0.00955483
0.0103313
0.0108497
0.011147
0.0112618
0.0112378
0.0111211
0.0109549
0.0107745
0.010604
0.0104569
0.0103386
0.0102504
0.0101924
0.0101669
0.0101796
0.0102405
0.0103606
0.000368436
0.00274678
0.00513869
0.0070157
0.00845731
0.00954348
0.0103298
0.0108586
0.0111695
0.0113052
0.0113127
0.0112395
0.0111272
0.011008
0.010902
0.0108189
0.0107613
0.0107282
0.0107181
0.0107315
0.0107721
0.0108456
0.010965
0.000368724
0.00271936
0.00509764
0.00697435
0.00842107
0.00951318
0.0103049
0.01084
0.0111616
0.0113165
0.0113543
0.0113223
0.0112599
0.0111954
0.0111451
0.0111156
0.0111071
0.011117
0.0111426
0.011183
0.0112396
0.0113181
0.0114314
0.000368594
0.00268883
0.00504965
0.00692192
0.00836866
0.00946059
0.0102512
0.0107868
0.0111148
0.0112854
0.0113499
0.0113544
0.0113353
0.0113169
0.0113122
0.0113255
0.0113554
0.0113981
0.01145
0.0115091
0.0115751
0.0116552
0.0117609
0.000368045
0.0026559
0.00499537
0.00685802
0.00829791
0.00938139
0.0101625
0.0106912
0.0110196
0.0112009
0.0112867
0.0113212
0.0113371
0.0113549
0.0113855
0.0114313
0.01149
0.0115572
0.0116287
0.0117015
0.0117752
0.0118568
0.0119566
0.000367074
0.00262137
0.00493544
0.00678186
0.00820596
0.00927032
0.0100313
0.0105444
0.0108664
0.0110522
0.0111531
0.0112102
0.0112525
0.0112976
0.0113536
0.0114222
0.0115007
0.011585
0.0116709
0.0117544
0.0118367
0.0119228
0.0120217
0.000365667
0.002586
0.00487024
0.00669187
0.0080896
0.00912102
0.00984897
0.0103367
0.0106457
0.0108322
0.0109437
0.0110168
0.0110768
0.0111386
0.0112095
0.0112908
0.0113808
0.011476
0.0115725
0.0116664
0.0117594
0.0118549
0.0119597
0.000364237
0.00254793
0.00479872
0.0065835
0.00793524
0.00891892
0.0096043
0.0100615
0.010355
0.0105391
0.0106564
0.0107386
0.0108071
0.0108755
0.010951
0.011036
0.01113
0.0112308
0.011335
0.0114402
0.0115472
0.0116573
0.0117755
0.000363166
0.00249086
0.0047038
0.00644124
0.00773451
0.00865845
0.00929352
0.00971651
0.00999242
0.0101712
0.0102894
0.0103734
0.0104419
0.0105079
0.0105793
0.0106604
0.0107525
0.010855
0.0109655
0.0110836
0.0112077
0.0113378
0.0114758
0.000362205
0.00241966
0.00458124
0.00625755
0.00747908
0.00833322
0.0089123
0.00929836
0.00955433
0.00972396
0.00983733
0.00991638
0.00997787
0.0100346
0.0100958
0.0101681
0.010255
0.0103579
0.010476
0.0106088
0.0107533
0.0109074
0.0110706
0.00036109
0.00233284
0.00442283
0.0060216
0.00715902
0.00793581
0.00845499
0.00880118
0.00903285
0.00918705
0.00928859
0.00935646
0.00940618
0.00945042
0.00949975
0.00956277
0.00964547
0.00975114
0.00988091
0.0100322
0.0102004
0.0103817
0.0105731
0.000359443
0.00222534
0.0042158
0.00571892
0.0067621
0.00745675
0.00791287
0.00821427
0.00841372
0.00854319
0.00862508
0.00867767
0.00871549
0.00874982
0.00879114
0.00885003
0.00893506
0.00905103
0.00919903
0.00937438
0.00957034
0.00978073
0.0100002
0.000356639
0.0020904
0.0039443
0.00533209
0.00627315
0.0068822
0.00727018
0.00751728
0.0076735
0.00777009
0.00783014
0.00787246
0.00790833
0.00794416
0.00798718
0.00805068
0.0081487
0.00828587
0.00846374
0.00867504
0.00890675
0.00914769
0.00939106
0.000351716
0.00192426
0.00359431
0.0048441
0.00567577
0.00619472
0.00650276
0.00667551
0.00678095
0.00685542
0.00691653
0.00697807
0.00703952
0.00709855
0.00715416
0.0072277
0.00734201
0.00750757
0.00772624
0.00798409
0.0082562
0.00852404
0.0087813
0.000343282
0.00172918
0.00316104
0.00424873
0.00496778
0.00539528
0.00559544
0.00569814
0.00576715
0.00586257
0.00599053
0.00612516
0.00624205
0.00634096
0.00641134
0.00648083
0.00659987
0.00679448
0.00705843
0.00736528
0.00767113
0.00795156
0.00820425
0.000328932
0.00149128
0.00265529
0.00357749
0.0042064
0.00457456
0.00478459
0.00485735
0.00491621
0.00505742
0.0052627
0.00546594
0.0056245
0.00575289
0.00583209
0.0058977
0.00601404
0.00623361
0.00652658
0.00685011
0.00715945
0.00742988
0.00766268
0.000305105
0.00120889
0.00215399
0.0029579
0.00358383
0.00403909
0.00432107
0.00436068
0.00441244
0.00456095
0.00476967
0.00497144
0.00515081
0.00531803
0.00543485
0.00549679
0.00562272
0.00586245
0.00615606
0.00645994
0.00673494
0.00696023
0.00714349
0.00028935
0.00113455
0.00195051
0.00266548
0.00333682
0.00393371
0.00428195
0.00428435
0.00426352
0.00436553
0.00452009
0.00467283
0.00482466
0.00498139
0.00510791
0.00523157
0.00536614
0.00557927
0.00582324
0.00605509
0.00626101
0.00642261
0.00654648
0.000331277
0.00149649
0.00219164
0.00275608
0.00342531
0.0040581
0.0044466
0.00445153
0.00438044
0.00438154
0.00447103
0.00453421
0.00466281
0.0047464
0.00485702
0.00514824
0.00515252
0.00531343
0.0055059
0.00561802
0.00574677
0.00580537
0.00585069
0.000360174
0.0020628
0.00286632
0.00310942
0.00350756
0.00404747
0.00456507
0.00463083
0.00473819
0.00468655
0.00461994
0.00458976
0.00453706
0.0044877
0.00448926
0.0049503
0.00484137
0.00507412
0.00505986
0.0051292
0.0050608
0.00508074
0.00491252
0.000195663
0.000217753
0.000262079
0.000297606
0.00058793
0.000659251
0.000719072
0.000874319
0.000955502
0.00108077
0.00126651
0.00156614
0.00143139
0.00163655
0.00190565
0.00223206
0.00200883
0.00223838
0.00250255
0.00278679
0.00256836
0.00277006
0.00299217
0.00322944
0.00303828
0.00319786
0.00337993
0.00358493
0.00341292
0.00353634
0.00368989
0.00387493
0.00371129
0.00380829
0.00394234
0.00411375
0.00395416
0.00403241
0.00415207
0.00431215
0.0041588
0.00422345
0.0043315
0.00448103
0.00433999
0.00439485
0.00449358
0.00463375
0.00451288
0.00456168
0.00465425
0.00478805
0.00469724
0.00474457
0.00483595
0.00496912
0.00492298
0.00497495
0.00507251
0.00521395
0.0052346
0.00529896
0.00541196
0.00557245
0.0056862
0.00577079
0.00590763
0.00609582
0.00631723
0.00642611
0.00658908
0.00680251
0.00711923
0.00724915
0.00742657
0.00764648
0.00802459
0.00816061
0.00833664
0.0085501
0.00893522
0.00906853
0.00923531
0.00943382
0.00977765
0.00990343
0.0100565
0.0102361
0.0105062
0.0106216
0.0107593
0.0109189
0.0110994
0.0112031
0.0113251
0.0114657
0.0115524
0.0116443
0.0117518
0.0118755
0.0118688
0.0119505
0.0120459
0.0121559
0.0120543
0.0121285
0.0122152
0.0123157
0.012114
0.0121847
0.0122671
0.0123628
0.0120527
0.0121246
0.0122076
0.0123036
0.0118752
0.011953
0.0120414
0.0121428
0.0115878
0.0116756
0.0117737
0.0118847
0.0111987
0.0112996
0.0114105
0.0115338
0.0107193
0.0108348
0.0109596
0.0110963
0.0101634
0.0102926
0.0104305
0.0105797
0.00956579
0.00970343
0.00984762
0.0100016
0.00895853
0.00909801
0.00924217
0.00939402
0.00837168
0.00850392
0.00863888
0.00877909
0.00781152
0.00792569
0.00803909
0.00815337
0.00725345
0.00733629
0.00741427
0.00748248
0.00660371
0.00663206
0.00664514
0.0066464
0.00582939
0.00578562
0.00573461
0.00565683
0.00496473
0.00492856
0.00484864
0.00465807
0.0007774
0.001982
0.00258512
0.00310782
0.00378555
0.00463557
0.00556341
0.00644869
0.00723206
0.00787296
0.00833503
0.00857407
0.00853557
0.0081724
0.00745264
0.00626898
0.00457731
0.00252848
0.000392414
0.00142249
0.00245806
0.00309738
0.00374283
0.00455095
0.00548109
0.00641357
0.00727227
0.00801722
0.00861493
0.00903038
0.00922571
0.00916543
0.00883589
0.00823772
0.00710982
0.00522565
0.00277703
0.000384544
0.00208693
0.00293805
0.00361015
0.00436456
0.00526052
0.00622201
0.007142
0.00797231
0.00868454
0.0092503
0.00964081
0.00982522
0.00977733
0.00950131
0.00901725
0.00805059
0.00611729
0.00342509
0.000407864
0.00267679
0.00339713
0.00411009
0.00494462
0.00588657
0.00684956
0.00774894
0.00855397
0.00924167
0.00978978
0.0101764
0.0103726
0.010355
0.0101298
0.00969896
0.00887334
0.00700263
0.0041267
0.000468583
0.00316632
0.00382299
0.00457608
0.00545851
0.00641492
0.00736278
0.0082394
0.00902395
0.00969778
0.0102439
0.0106419
0.0108615
0.0108785
0.0106911
0.0102788
0.00946131
0.00765787
0.00466436
0.000530868
0.0035704
0.00420684
0.00498877
0.00589134
0.00684274
0.00776618
0.00862147
0.00939249
0.0100643
0.0106221
0.011042
0.0112909
0.0113426
0.011184
0.0107696
0.00993618
0.00816215
0.00505859
0.000571651
0.00390763
0.00454053
0.0053352
0.0062367
0.00717003
0.0080684
0.0089073
0.00967376
0.0103553
0.0109346
0.0113827
0.0116635
0.0117505
0.0116236
0.0112155
0.0103579
0.00860935
0.00539147
0.000605635
0.00418903
0.00481868
0.0056102
0.00649599
0.00740484
0.00828361
0.00911484
0.00988772
0.0105891
0.0111942
0.0116711
0.0119822
0.0121023
0.01201
0.0116214
0.0107456
0.00898944
0.00566365
0.000645278
0.00442124
0.00504109
0.00581696
0.00667982
0.0075658
0.00843449
0.00927038
0.0100617
0.0107895
0.0114171
0.0119164
0.0122508
0.012397
0.0123374
0.0119752
0.0110959
0.00932319
0.00587113
0.00068142
0.0046114
0.00521422
0.00596745
0.00680836
0.00768083
0.00855388
0.00940911
0.0102276
0.0109754
0.0116234
0.0121394
0.0124904
0.0126574
0.0126279
0.0122959
0.0114234
0.00960564
0.0060081
0.000698706
0.00476998
0.00535188
0.00608273
0.00691096
0.00778841
0.00868428
0.00956817
0.0104052
0.0111739
0.011838
0.0123607
0.0127176
0.0128978
0.0128964
0.0126047
0.0117511
0.0098576
0.00608873
0.000712132
0.00491238
0.00547601
0.00619518
0.00703015
0.00793622
0.00886766
0.00977261
0.0106276
0.0114086
0.0120784
0.0125955
0.0129444
0.0131222
0.0131401
0.0128895
0.0120468
0.0100854
0.0062082
0.000724272
0.00506039
0.00561787
0.0063484
0.00721479
0.00816912
0.00912994
0.0100564
0.0109198
0.011696
0.0123536
0.0128537
0.0131759
0.0133293
0.0133475
0.013125
0.0122871
0.0102561
0.00628109
0.000740677
0.00524481
0.00581923
0.00658833
0.00751099
0.00850838
0.00949893
0.0104374
0.0112932
0.0120447
0.0126705
0.0131359
0.0134103
0.0135192
0.0135158
0.0132975
0.0124325
0.0103073
0.00626735
0.000747208
0.00550879
0.00613262
0.006957
0.00793858
0.00897156
0.00997895
0.0109122
0.0117413
0.0124502
0.0130249
0.0134331
0.0136452
0.0136988
0.0136571
0.0134218
0.0124991
0.0102403
0.006161
0.000740021
0.00590521
0.00659481
0.00747605
0.0084974
0.0095473
0.0105494
0.0114558
0.0122407
0.0128927
0.0134003
0.013736
0.013882
0.0138837
0.0137982
0.013519
0.01248
0.010052
0.00601112
0.000727875
0.0064782
0.00722017
0.00813536
0.00916204
0.0102008
0.0111719
0.0120309
0.012756
0.0133403
0.0137729
0.0140337
0.0141232
0.0140944
0.0139774
0.0136346
0.0123867
0.00981642
0.00586009
0.000713297
0.00721523
0.00798101
0.00889357
0.00988889
0.0108859
0.011803
0.012598
0.0132515
0.0137597
0.014116
0.0143112
0.014366
0.0143354
0.0141972
0.0137285
0.012274
0.00965246
0.00570801
0.000697876
0.00806567
0.008818
0.00969268
0.0106289
0.0115572
0.0124041
0.013124
0.0136992
0.0141282
0.0144119
0.014556
0.0146011
0.0145907
0.0144287
0.0138026
0.0121621
0.00951276
0.00557511
0.000682836
0.00895385
0.00966261
0.0104747
0.0113348
0.0121797
0.0129467
0.0135862
0.0140813
0.0144333
0.0146519
0.014761
0.0148174
0.0148368
0.0146379
0.0138358
0.012039
0.00936737
0.00545924
0.000668501
0.00980765
0.0104556
0.0111929
0.0119701
0.0127291
0.0134126
0.0139719
0.0143892
0.0146692
0.0148323
0.0149218
0.0150049
0.0150555
0.014803
0.0138132
0.0118996
0.00921095
0.00534654
0.000654571
0.0105732
0.0111546
0.0118158
0.0125124
0.0131902
0.0137942
0.0142776
0.0146222
0.014837
0.0149541
0.0150357
0.0151545
0.0152338
0.0149124
0.0137418
0.0117433
0.00904409
0.00522824
0.000640561
0.0112184
0.0117358
0.0123269
0.0129516
0.0135582
0.0140922
0.0145077
0.0147865
0.0149426
0.0150204
0.0150988
0.0152514
0.0153467
0.0149467
0.0136353
0.0115667
0.00885978
0.00509521
0.00062592
0.0117301
0.0121909
0.0127225
0.013288
0.0138369
0.0143137
0.0146717
0.0148925
0.014995
0.0150354
0.015107
0.0152786
0.0153646
0.0148636
0.0134335
0.0113195
0.00862503
0.00492434
0.000609883
0.0121095
0.0125232
0.0130079
0.013529
0.0140357
0.01447
0.0147825
0.0149528
0.0150047
0.015006
0.015063
0.0152347
0.0152809
0.0146445
0.0130973
0.0109973
0.00832484
0.00469837
0.000591775
0.0123657
0.0127423
0.0131926
0.0136847
0.014166
0.0145737
0.0148527
0.0149796
0.0149825
0.0149422
0.0149807
0.0151461
0.0151316
0.014328
0.0126999
0.010629
0.00797522
0.00443497
0.000571654
0.0125087
0.0128595
0.013289
0.0137671
0.0142391
0.0146355
0.0148927
0.0149825
0.0149375
0.0148549
0.0148799
0.0150409
0.0149228
0.0139577
0.0122893
0.0102295
0.00759603
0.00416253
0.000550292
0.0125476
0.0128847
0.0133064
0.0137847
0.0142622
0.0146617
0.014908
0.0149664
0.0148746
0.0147504
0.0147719
0.0149348
0.0146807
0.0135664
0.0118802
0.00981536
0.00720558
0.00389874
0.000528766
0.0124892
0.0128243
0.01325
0.0137407
0.0142369
0.0146525
0.0148985
0.014933
0.0147951
0.0146277
0.014651
0.014822
0.0144277
0.0131812
0.0114768
0.00940203
0.00682116
0.00365354
0.000508241
0.0123377
0.012681
0.01312
0.0136325
0.0141578
0.0146015
0.0148591
0.0148789
0.0146971
0.0144782
0.0144892
0.0146538
0.0141341
0.0127958
0.0110872
0.00900876
0.00646461
0.00343794
0.000490055
0.0120959
0.0124546
0.0129127
0.0134524
0.0140136
0.0144954
0.0147777
0.0147956
0.0145759
0.0142948
0.0142663
0.014409
0.01379
0.0124195
0.0107305
0.00866449
0.00616658
0.00326837
0.00047592
0.011766
0.0121433
0.0126216
0.0131886
0.0137874
0.0143139
0.0146347
0.0146681
0.0144262
0.0140808
0.0139849
0.0140823
0.0134263
0.0120849
0.0104371
0.00840567
0.00596318
0.00316477
0.00046779
0.0113507
0.0117452
0.0122397
0.0128277
0.0134589
0.0140314
0.0144026
0.0144723
0.0142375
0.0138499
0.0136726
0.0137105
0.0130895
0.0118156
0.0102342
0.00826563
0.00588665
0.0031457
0.000467119
0.0108542
0.0112604
0.0117618
0.0123577
0.0130075
0.0136185
0.0140472
0.0141738
0.0139863
0.013614
0.0133747
0.0133403
0.0128073
0.0116215
0.0101332
0.00825898
0.00595282
0.0032237
0.00047402
0.0102847
0.0106933
0.0111873
0.0117717
0.0124171
0.0130488
0.0135334
0.0137315
0.0136302
0.0133596
0.0131396
0.0130425
0.0126045
0.0114991
0.0101143
0.00836003
0.00614258
0.00339723
0.000486837
0.00966965
0.0100531
0.0105188
0.011067
0.0116789
0.012305
0.0128287
0.0131071
0.0131172
0.0130291
0.0129749
0.0128718
0.0124748
0.0114148
0.0101083
0.00848556
0.00638195
0.00363235
0.000502231
0.00903094
0.00936851
0.00976885
0.0102394
0.0107876
0.0113756
0.0118995
0.0122582
0.0124272
0.0125722
0.0128156
0.0127777
0.0122081
0.0111923
0.00998948
0.00851121
0.00654911
0.00384998
0.000516542
0.00835266
0.0086085
0.00891498
0.0092782
0.00971666
0.0102188
0.0107099
0.0111279
0.0115129
0.0119454
0.0122882
0.0121699
0.0114941
0.0106409
0.00962543
0.00831972
0.00651738
0.00390476
0.000532555
0.00758985
0.00772705
0.00789869
0.00810867
0.00837868
0.00871542
0.00907081
0.00946561
0.0099425
0.0104845
0.0107788
0.0107225
0.0103461
0.0097596
0.00895111
0.00784418
0.00625861
0.00384773
0.000541536
0.00664922
0.00665107
0.00667648
0.00673098
0.00681987
0.00698574
0.00718095
0.0074206
0.00777282
0.00826581
0.00869299
0.00892811
0.00886072
0.008553
0.0079626
0.0070906
0.00575036
0.00362344
0.000528716
0.00554566
0.00544359
0.00537902
0.00532925
0.00531143
0.00537306
0.00544701
0.00549367
0.00564963
0.00605759
0.006459
0.00691309
0.00701296
0.0070159
0.00661651
0.00606026
0.00493536
0.00310923
0.000491599
0.00431438
0.00434999
0.00425857
0.00417163
0.00403858
0.00416463
0.00414107
0.00399946
0.00389819
0.00419033
0.00428891
0.00482131
0.00483359
0.0052757
0.00495253
0.00483846
0.00385836
0.00193583
0.000458734
)
;

boundaryField
{
    leftWall
    {
        type            nutkWallFunction;
        Cmu             0.09;
        kappa           0.41;
        E               9.8;
        value           nonuniform List<scalar> 
50
(
8.95868e-06
1.1364e-05
1.42941e-05
1.66516e-05
1.85874e-05
2.02422e-05
2.17128e-05
2.30748e-05
2.45573e-05
2.65942e-05
2.84582e-05
3.01226e-05
3.16141e-05
3.29553e-05
3.4173e-05
3.53206e-05
3.63946e-05
3.73667e-05
3.82443e-05
3.90354e-05
3.97491e-05
4.0394e-05
4.09771e-05
4.15041e-05
4.19789e-05
4.24039e-05
4.27803e-05
4.31082e-05
4.3387e-05
4.36159e-05
4.37941e-05
4.39211e-05
4.39972e-05
4.40232e-05
4.40008e-05
4.39313e-05
4.38151e-05
4.36813e-05
4.36132e-05
4.35752e-05
4.35313e-05
4.34258e-05
4.3163e-05
4.25948e-05
4.15074e-05
3.99999e-05
3.81573e-05
3.55829e-05
4.05536e-05
4.56584e-05
)
;
    }
    rightWall
    {
        type            nutkWallFunction;
        Cmu             0.09;
        kappa           0.41;
        E               9.8;
        value           nonuniform List<scalar> 
50
(
2.00988e-05
3.17538e-05
3.73143e-05
4.05625e-05
4.25352e-05
4.37616e-05
4.46622e-05
4.51741e-05
4.40862e-05
4.44e-05
4.51252e-05
5.07793e-05
5.54121e-05
5.89245e-05
6.23945e-05
6.60292e-05
6.87783e-05
7.04384e-05
7.18039e-05
7.31552e-05
7.41899e-05
7.41574e-05
7.32757e-05
7.20976e-05
7.0787e-05
6.94588e-05
6.81666e-05
6.68952e-05
6.55993e-05
6.42387e-05
6.27799e-05
6.11861e-05
5.9449e-05
5.76174e-05
5.57769e-05
5.4023e-05
5.2457e-05
5.11996e-05
5.03931e-05
5.01682e-05
5.05839e-05
5.15851e-05
5.29932e-05
5.45355e-05
5.60272e-05
5.77463e-05
5.85259e-05
5.73591e-05
5.34806e-05
5.04147e-05
)
;
    }
    lowerWall
    {
        type            nutkWallFunction;
        Cmu             0.09;
        kappa           0.41;
        E               9.8;
        value           nonuniform List<scalar> 
62
(
0
0
1.06182e-06
2.174e-06
3.10756e-06
3.90029e-06
4.56497e-06
5.11939e-06
5.5852e-06
5.98143e-06
6.32123e-06
6.60992e-06
6.8425e-06
7.00139e-06
7.05522e-06
6.95985e-06
6.66132e-06
6.09184e-06
5.25872e-06
4.12996e-06
2.5971e-06
4.6027e-07
0
0
1.46719e-05
1.71592e-05
1.85923e-05
1.93425e-05
1.96213e-05
1.9548e-05
1.92402e-05
1.96629e-05
2.33045e-05
2.93299e-05
3.3841e-05
0
1.67713e-05
2.16812e-05
2.57571e-05
2.86228e-05
3.10173e-05
3.32776e-05
3.58128e-05
0
1.29705e-12
0
0
9.64878e-07
2.57796e-06
5.04125e-06
8.48154e-06
1.23473e-05
1.59544e-05
1.96202e-05
2.25243e-05
2.40237e-05
2.37879e-05
2.15075e-05
1.81858e-05
1.42385e-05
9.25022e-06
2.61763e-06
)
;
    }
    atmosphere
    {
        type            calculated;
        value           nonuniform List<scalar> 
46
(
0.000360174
0.0020628
0.009
0.00310942
0.009
0.00404747
0.00456507
0.009
0.009
0.00468655
0.009
0.00458976
0.009
0.0044877
0.009
0.0049503
0.009
0.00507412
0.009
0.0051292
0.009
0.00508074
0.009
0.00496473
0.00492856
0.00484864
0.009
0.009
0.00434999
0.00425857
0.009
0.009
0.00416463
0.00414107
0.009
0.009
0.00419033
0.009
0.00482131
0.009
0.0052757
0.009
0.00483846
0.009
0.00193583
0.009
)
;
    }
    defaultFaces
    {
        type            empty;
    }
}


// ************************************************************************* //
