/*--------------------------------*- C++ -*----------------------------------*\
  =========                 |
  \\      /  F ield         | OpenFOAM: The Open Source CFD Toolbox
   \\    /   O peration     | Website:  https://openfoam.org
    \\  /    A nd           | Version:  9
     \\/     M anipulation  |
\*---------------------------------------------------------------------------*/
FoamFile
{
    format      ascii;
    class       volScalarField;
    location    "0.85";
    object      p_rgh;
}
// * * * * * * * * * * * * * * * * * * * * * * * * * * * * * * * * * * * * * //

dimensions      [1 -1 -2 0 0 0 0];

internalField   nonuniform List<scalar> 
2268
(
789.772
783.393
777.301
772.549
769.885
769.265
770.612
773.833
778.844
785.554
793.878
803.731
814.955
827.292
840.506
854.274
867.324
879.034
888.808
893.866
891.16
881.478
865.272
791.073
784.204
777.989
773.507
771.098
770.59
771.926
775.047
779.9
786.414
794.505
804.065
814.926
826.848
839.575
852.649
865.482
876.454
883.998
887.636
885.341
876.354
862.303
791.174
784.246
778.386
774.335
772.186
771.802
773.158
776.216
780.938
787.267
795.124
804.388
814.877
826.358
838.478
850.786
862.684
873.31
881.246
884.727
881.875
872.14
858.186
790.269
783.394
777.988
774.346
772.426
772.173
773.592
776.654
781.324
787.546
795.237
804.287
814.519
825.684
837.429
849.266
860.583
870.573
878.094
881.631
878.96
867.941
852.621
788.578
781.772
776.7
773.368
771.649
771.551
773.094
776.249
780.969
787.179
794.798
803.743
813.861
824.899
836.498
848.172
859.31
869.149
876.731
880.525
877.764
864.82
845.904
786.064
779.423
774.565
771.454
769.926
770.018
771.754
775.091
779.959
786.248
793.873
802.808
812.944
824.02
835.663
847.396
858.611
868.518
876.277
880.3
877.429
862.753
837.315
782.6
776.322
771.629
768.689
767.364
767.69
769.685
773.291
778.396
784.837
792.528
801.528
811.793
823.052
834.902
846.868
858.324
868.348
876.153
880.081
876.385
858.389
823.984
778.167
772.389
767.848
765.079
764.031
764.689
767.04
771.005
776.431
783.079
790.865
799.968
810.446
822.017
834.241
846.608
858.397
868.366
875.637
878.771
872.508
846.358
801.364
1364.11
1263.39
1103.35
907.263
744.747
642.769
603.521
625.004
709.44
805.182
840.37
808.942
757.149
726.205
721.712
731.125
730.441
709.706
696.481
1394.96
1287.73
1111.22
898.634
728.902
624.2
579.588
592.271
661.505
750.066
790.851
774.003
740.044
718.591
711.412
716.132
714.143
698.393
696.63
1417.64
1281.51
1083.23
868.694
706.676
604.398
555.089
553.677
611.508
694.451
734.011
727.451
707.259
700.375
701.301
705.261
703.045
694.058
691.853
1412.8
1235.28
1021.9
820.235
670.029
571.59
518.589
512.307
574.097
660.454
706.636
705.528
673.88
662.205
686.94
695.721
698.849
693.963
681.871
1369.09
1162.36
945.194
756.077
590.214
416.203
364.368
369.329
475.86
618.387
695.937
692.357
652.184
634.697
646.497
685.528
690.159
696.054
683.52
1288.03
1075.88
862.03
623.418
324.977
272.276
274.027
289.711
376.154
631.993
699.568
681.049
620.871
604.598
641.813
671.05
677.573
687.603
687.846
1178.88
988.696
753.861
361.461
270.763
263.846
268.646
287.19
438.296
653.833
709.043
667.216
524.497
580.488
632.24
654.851
660.248
670.328
677.161
1053.86
915.059
685.096
280.72
263.463
260.695
268.839
288.944
511.892
663.016
710.614
489.939
305.725
392.745
551.793
602.166
572.938
573.16
643.758
769.565
764.1
759.436
756.834
756.436
758.042
761.397
766.343
772.636
779.81
787.72
796.971
807.919
820.26
833.412
846.768
859.229
868.384
873.828
876.748
867.028
825.291
761.797
700.972
667.154
638.097
623.335
628.458
648.14
675.403
707.476
742.412
769.943
779.902
789.562
802.222
816.835
831.511
846.755
860.534
866.594
866.301
852.078
820.248
825.492
765.24
203.817
155.001
123.491
109.642
112.796
130.27
157.563
193.234
233.566
274.023
324.087
387.27
479.426
571.681
625.616
651.185
668.079
659.187
554.684
462.245
599.459
808.28
486.626
3.13407
2.16274
2.02024
1.76821
1.52279
1.32098
1.17981
1.14966
1.05364
0.897886
0.821071
1.5797
2.82435
1.87802
1.63142
15.1476
63.8023
96.5794
123.981
235.881
599.34
566.895
52.2585
0.91162
0.732006
0.710642
0.670396
0.635316
0.612628
0.60098
0.59973
0.609147
0.62885
0.656947
0.699945
0.775627
0.877611
0.984194
1.57274
3.95001
12.7789
49.7737
349.174
588.541
270.77
36.8884
0.612026
0.585367
0.586918
0.581119
0.577252
0.576159
0.578957
0.587167
0.602515
0.6262
0.659269
0.706039
0.777432
0.875778
0.992661
1.18416
1.94317
5.13228
16.0104
216.502
544.657
218.875
39.1262
0.559716
0.558565
0.563974
0.565739
0.566665
0.567963
0.571554
0.57939
0.593306
0.61479
0.645492
0.68834
0.747614
0.827058
0.929287
1.06402
1.38967
2.62388
6.67953
56.0481
338.904
427.839
113.565
0.527243
0.528992
0.533409
0.536906
0.539959
0.543351
0.54838
0.556435
0.56889
0.586985
0.611991
0.645253
0.687059
0.735149
0.78572
0.835446
0.923768
1.34778
3.16134
21.9109
295.633
449.879
413.371
0.499146
0.501707
0.505408
0.50884
0.512086
0.515637
0.520269
0.526855
0.536221
0.549021
0.56564
0.585861
0.607649
0.625117
0.627705
0.602084
0.54877
0.575562
1.21709
4.44409
136.92
490.183
506.375
0.472584
0.47548
0.478711
0.481563
0.484048
0.486478
0.489321
0.49311
0.49825
0.504778
0.512198
0.519154
0.522467
0.515395
0.486537
0.420934
0.308443
0.17996
0.200242
0.864308
11.8619
294.493
535.468
0.445234
0.447986
0.450676
0.452813
0.454293
0.455233
0.455857
0.45645
0.457132
0.45752
0.456507
0.452105
0.440852
0.416638
0.370076
0.290146
0.167926
0.00916473
-0.13651
-0.162556
-0.042966
10.9659
400.472
0.41745
0.419797
0.421869
0.423191
0.423535
0.422852
0.421178
0.418615
0.415104
0.410049
0.402061
0.388938
0.367421
0.332513
0.277174
0.194015
0.0784534
-0.0687818
-0.230923
-0.370546
-0.450229
-0.5411
-0.640491
0.389765
0.391635
0.393081
0.393555
0.39272
0.390418
0.386563
0.381132
0.373965
0.364391
0.350995
0.331655
0.303534
0.262746
0.204198
0.12295
0.0167838
-0.112127
-0.257341
-0.405489
-0.537418
-0.599432
-0.487309
0.362419
0.363842
0.364711
0.364368
0.362407
0.358622
0.35286
0.34503
0.334915
0.321846
0.304511
0.281031
0.249078
0.205721
0.147331
0.0704703
-0.0262199
-0.140647
-0.267731
-0.401839
-0.537466
-0.656479
-0.71491
0.335668
0.336716
0.337069
0.335966
0.332988
0.327928
0.320614
0.31092
0.298614
0.283072
0.263129
0.237184
0.203411
0.15967
0.1034
0.0321593
-0.0551514
-0.157274
-0.270891
-0.392029
-0.518388
-0.650468
-0.788374
0.309761
0.310505
0.310399
0.308609
0.304756
0.298663
0.290168
0.279138
0.265352
0.248261
0.226846
0.199764
0.165614
0.122897
0.0698389
0.00472148
-0.0733502
-0.163766
-0.264537
-0.372981
-0.486703
-0.604717
-0.727627
0.284873
0.285373
0.28487
0.282489
0.277923
0.271053
0.261735
0.249836
0.23517
0.217288
0.195323
0.168131
0.134622
0.0937883
0.0444685
-0.0145217
-0.0838501
-0.163212
-0.251339
-0.346352
-0.446087
-0.548369
-0.651564
0.261124
0.261437
0.260602
0.257742
0.252638
0.245241
0.235425
0.223056
0.207983
0.189875
0.168031
0.141482
0.10933
0.0708822
0.0254536
-0.0277087
-0.0890659
-0.158433
-0.234899
-0.316987
-0.402807
-0.490103
-0.576321
0.238606
0.238791
0.237701
0.234482
0.229009
0.221312
0.211286
0.198781
0.183662
0.16571
0.144414
0.11899
0.0886682
0.0529115
0.0113379
-0.036444
-0.0906834
-0.151222
-0.217359
-0.287856
-0.361002
-0.434556
-0.505789
0.217395
0.217511
0.216254
0.212796
0.207111
0.199309
0.189312
0.176952
0.162076
0.144541
0.124027
0.0999583
0.0717053
0.0388054
0.00100792
-0.0418398
-0.0897889
-0.142636
-0.199795
-0.260228
-0.322427
-0.384313
-0.443403
0.197535
0.197637
0.196302
0.192726
0.18697
0.179218
0.16944
0.157453
0.143073
0.126178
0.106583
0.0839347
0.0577725
0.0277182
-0.00642702
-0.0447139
-0.087069
-0.133235
-0.182682
-0.23453
-0.287487
-0.339729
-0.389157
0.179023
0.179154
0.177826
0.174255
0.168555
0.160976
0.151551
0.140106
0.126434
0.110392
0.0918552
0.0706426
0.0464807
0.019108
-0.0116216
-0.045718
-0.0830623
-0.123382
-0.166192
-0.210743
-0.255942
-0.300232
-0.341916
0.161808
0.162001
0.160751
0.157305
0.151784
0.14448
0.135487
0.124679
0.111857
0.0968467
0.0795295
0.0598089
0.0375612
0.0126597
-0.0149669
-0.0452928
-0.0781832
-0.113379
-0.150455
-0.188782
-0.22745
-0.265158
-0.300572
0.145811
0.146079
0.144969
0.141753
0.136531
0.129596
0.121084
0.110945
0.0990255
0.0851439
0.0691694
0.0510288
0.0306745
0.00808094
-0.0167405
-0.0437174
-0.0726994
-0.103444
-0.135586
-0.168606
-0.20176
-0.233985
-0.264252
0.130938
0.131282
0.130353
0.127454
0.122646
0.116178
0.108198
0.0987299
0.0876934
0.0749402
0.0603397
0.0438163
0.025348
0.00495654
-0.0172923
-0.0412831
-0.0668459
-0.0937477
-0.121671
-0.150186
-0.178694
-0.206333
-0.232319
0.117104
0.117517
0.116787
0.114261
0.109959
0.104056
0.0966802
0.0879007
0.077706
0.0660141
0.0527262
0.0377698
0.0211257
0.00282705
-0.0170418
-0.0383443
-0.0608995
-0.0844813
-0.108806
-0.133512
-0.158113
-0.181909
-0.2043
0.104247
0.104715
0.104175
0.102039
0.0982943
0.0930375
0.0863483
0.0783063
0.0689439
0.0582468
0.046169
0.0326644
0.0177186
0.00136227
-0.0163234
-0.0352032
-0.0551003
-0.0758008
-0.0970477
-0.11853
-0.139839
-0.160398
-0.179737
0.0923248
0.0928303
0.0924524
0.0906875
0.0874998
0.0829249
0.0769906
0.0697497
0.0612499
0.0515234
0.0405753
0.0283997
0.0150003
0.00040787
-0.0153045
-0.0320147
-0.049562
-0.0677513
-0.0863508
-0.105086
-0.123607
-0.14142
-0.158141
0.0813153
0.0818397
0.0815856
0.0801402
0.077463
0.073553
0.0683954
0.0620006
0.0544076
0.0456646
0.0358111
0.0248776
0.0128923
-0.000105496
-0.0140467
-0.0288235
-0.0442946
-0.0602877
-0.0765965
-0.092977
-0.109121
-0.124593
-0.139061
0.0712022
0.0717274
0.0715599
0.0703657
0.0681219
0.0648126
0.0603957
0.0548461
0.0481798
0.0404373
0.0316702
0.0219306
0.0112662
-0.000272031
-0.012614
-0.0256628
-0.039295
-0.0533605
-0.0676777
-0.08203
-0.0961421
-0.10962
-0.122162
0.0619666
0.0624783
0.0623658
0.061356
0.0594559
0.0566529
0.0528938
0.048135
0.0423681
0.0356148
0.0279214
0.0193431
0.00993547
-0.000242908
-0.0111214
-0.0226112
-0.0346041
-0.0469689
-0.0595466
-0.0721454
-0.0845173
-0.0963016
-0.107217
0.0535761
0.0540668
0.0539841
0.0531049
0.0514643
0.0490648
0.0458578
0.0417972
0.0368575
0.0310423
0.0243827
0.0169234
0.00871562
-0.000183568
-0.00970739
-0.019776
-0.0302935
-0.041145
-0.0521912
-0.0632625
-0.0741361
-0.0844815
-0.0940353
0.0459813
0.0464488
0.0463791
0.0455926
0.0441458
0.0420592
0.0393011
0.0358326
0.0316222
0.0266618
0.0209654
0.0145608
0.00748619
-0.000211113
-0.00847454
-0.0172357
-0.0264112
-0.0359003
-0.0455812
-0.0553051
-0.0648727
-0.0739841
-0.0823941
0.0391189
0.0395617
0.0394956
0.03878
0.0374844
0.0356452
0.0332526
0.030279
0.0266971
0.0224945
0.0176712
0.0122381
0.00621765
-0.000358456
-0.00744917
-0.0150013
-0.0229448
-0.0311923
-0.0396385
-0.0481537
-0.0565596
-0.0645882
-0.0720184
0.0329154
0.0333283
0.0332606
0.032608
0.0314424
0.0298134
0.0277296
0.0251766
0.0221376
0.0186005
0.0145573
0.0100065
0.00495518
-0.0005824
-0.00658432
-0.0130162
-0.0198226
-0.0269283
-0.0342425
-0.0416515
-0.0489971
-0.056043
-0.0625962
0.0272905
0.0276637
0.0275902
0.027002
0.0259624
0.0245298
0.022724
0.0205444
0.0179857
0.0150395
0.0116949
0.00794363
0.00378049
-0.000797319
-0.00578883
-0.0111831
-0.0169387
-0.0229881
-0.0292516
-0.0356296
-0.0419831
-0.0481083
-0.0538419
0.022164
0.0224809
0.0223988
0.0218813
0.0209757
0.019741
0.018203
0.0163731
0.0142557
0.0118469
0.00913799
0.00611799
0.00277345
-0.000912875
-0.00496225
-0.00939564
-0.0141838
-0.0192532
-0.0245315
-0.0299341
-0.035342
-0.0405825
-0.0455213
0.0174591
0.017699
0.017608
0.0171706
0.0164131
0.0153855
0.0141176
0.0126292
0.0109309
0.00902454
0.00690567
0.00456449
0.00198336
-0.000865007
-0.00402439
-0.0075665
-0.0114715
-0.0156321
-0.01998
-0.0244489
-0.0289417
-0.0333174
-0.0374668
0.0131058
0.0132495
0.0131531
0.0128072
0.0122097
0.0113979
0.0104052
0.00925578
0.00796402
0.00653698
0.00497593
0.00327462
0.00141654
-0.000625498
-0.00291504
-0.00563472
-0.00876091
-0.0120846
-0.0155481
-0.019113
-0.0227085
-0.0262263
-0.0295766
0.00904469
0.0090776
0.0089748
0.00871922
0.00827637
0.007678
0.00695975
0.00614604
0.00525293
0.00429196
0.00327087
0.00219076
0.00104973
-0.000140948
-0.00145613
-0.00348445
-0.00605086
-0.00864796
-0.0112734
-0.0139557
-0.0166595
-0.0193087
-0.0218258
0.00523091
0.00513224
0.0049956
0.00479053
0.00446937
0.00406468
0.00360957
0.00312478
0.00262591
0.00212849
0.00164937
0.00120658
0.000844602
0.000714355
0.00082437
-0.000684094
-0.0032912
-0.00537468
-0.00721351
-0.00902356
-0.0108242
-0.0125708
-0.014215
0.0016368
0.00144059
0.00127274
0.00110802
0.000923951
0.000737345
0.000563139
0.00041043
0.000288502
0.000210923
0.000197771
0.000278774
0.000532141
0.001227
0.00268669
0.0026096
-0.000339774
-0.00182589
-0.00279075
-0.00364758
-0.00446278
-0.00522087
-0.00588829
725.139
696.763
676.699
645.872
712.798
729.414
771.013
838.582
264.803
557.181
818.333
900.036
32.4833
30.7388
244.124
678.404
36.1154
36.0805
41.3805
113.315
38.373
38.3045
38.5994
39.3787
39.9557
40.424
40.7457
41.2895
41.2622
41.0451
41.2539
41.6357
398.471
40.5898
42.7452
44.2023
549.173
564.823
278.095
40.9995
581.785
585.501
586.77
590.127
142.28
575.061
625.478
602.612
-0.87869
-3.09338
7.04267
74.1437
-0.768095
-0.743172
-0.759781
-1.11866
-0.917308
-0.981004
-1.01627
-1.03266
-0.824325
-0.885138
-0.942702
-0.990468
-0.729648
-0.779084
-0.826753
-0.872305
-0.640044
-0.680818
-0.719642
-0.755689
-0.557858
-0.592037
-0.624868
-0.654572
-0.486744
-0.515759
-0.543831
-0.568937
-0.425697
-0.450544
-0.474739
-0.49625
-0.373067
-0.394549
-0.415608
-0.434276
-0.327386
-0.346126
-0.364638
-0.381042
-0.287453
-0.303879
-0.320259
-0.334826
-0.252424
-0.266821
-0.281324
-0.294323
-0.22171
-0.23427
-0.247043
-0.258615
-0.194773
-0.205649
-0.216798
-0.227019
-0.171071
-0.180413
-0.190053
-0.198995
-0.150136
-0.15811
-0.166384
-0.174137
-0.131639
-0.138433
-0.145503
-0.152169
-0.115364
-0.121174
-0.127204
-0.132885
-0.101111
-0.106124
-0.111272
-0.116072
-0.0886231
-0.0930015
-0.097413
-0.10144
-0.0775672
-0.0814394
-0.0852448
-0.0886101
-0.0675684
-0.0710235
-0.0743323
-0.0771492
-0.0582777
-0.0613608
-0.0642505
-0.0666207
-0.0494151
-0.0521314
-0.0546404
-0.0566381
-0.0407849
-0.0431108
-0.0452405
-0.046904
-0.0322683
-0.0341641
-0.0358906
-0.0372289
-0.023814
-0.0252261
-0.0265161
-0.027527
-0.0155025
-0.0163982
-0.0171996
-0.017821
-0.00635787
-0.00667573
-0.00696406
-0.00719789
851.789
809.526
386.597
266.31
260.12
293.204
370.003
302.309
453.784
681.498
686.458
367.83
280.83
269.911
315.366
359.364
319.405
302.889
375.644
925.204
863.82
405.963
266.231
271.059
514.715
592.351
403.718
413.975
637.711
694.054
321.559
265.331
263.882
259.509
247.581
229.195
211.098
202.88
999.908
950.067
859.955
705.924
732.273
782.202
788.954
538.235
454.46
713.764
697.741
285.511
251.703
254.65
289.322
268.492
230.121
201.303
194.285
930.301
957.668
904.454
839.315
828.163
770.735
830.649
671.164
480.978
755.517
661.991
233.785
233.299
295.169
332.778
323.735
308.972
218.684
184.622
249.897
332.441
327.497
301.17
385.078
392.571
779.581
635.9
672.581
806.242
606.716
203.991
231.859
326.509
312.583
300.181
292.727
281.762
183.206
38.5986
44.9912
66.1068
99.7352
127.72
395.95
488.67
320.846
457.493
765.44
643.944
178.126
247.29
307.523
280.341
170.191
163.605
252.657
249
42.0097
44.3926
51.3321
113.007
228.377
219.282
64.4899
72.5518
170.085
606.488
658.735
144.864
233.441
286.49
103.347
5.95886
9.99077
56.4618
222.291
42.9681
49.2346
112.096
128.488
116.038
47.8309
49.6526
59.6963
183.833
818.419
279.576
94.0499
231.246
239.573
4.67769
3.87377
4.01538
4.99716
84.0278
44.6867
61.778
87.477
78.9949
46.4406
47.1347
48.2688
51.0464
194.163
859.895
102.94
75.6163
164.816
69.0317
2.65611
2.97355
2.67019
2.70239
3.52438
45.6576
47.522
47.2762
46.1927
46.5348
46.9118
47.2433
59.1061
540.724
880.038
73.2478
64.9114
42.5403
2.05076
2.12775
2.37649
2.18894
2.48851
3.32265
359.381
44.9343
47.1676
46.8091
46.4498
46.0275
45.9095
371.998
609.353
180.008
48.7967
62.5239
30.4238
2.2206
1.93525
2.00595
1.8769
2.43748
6.77696
602.76
626.63
326.103
46.2963
58.3361
93.9
333.592
555.941
463.155
40.7635
47.055
52.5855
22.7729
1.82961
1.67776
1.68967
1.6259
1.77798
13.7816
450.496
661.266
662.384
669.616
670.113
666.415
629.938
285.802
6.90537
41.443
54.591
43.8751
7.97149
1.0987
1.35258
1.39959
1.40334
1.38265
28.6696
-2.24535
11.3167
238.971
358.132
323.482
144.016
-2.09029
0.0315321
6.59149
54.1091
55.9877
14.5422
0.493984
0.859128
1.2564
1.11465
1.15296
1.13611
41.6373
-1.0973
-1.22406
-1.63026
-2.02069
-1.87782
-1.276
-0.857985
0.0975158
23.2184
25.0039
5.39829
0.00635054
0.294368
0.788445
0.990238
0.82511
0.875254
0.842105
43.5646
-1.03632
-1.02076
-1.00001
-0.994066
-0.89002
-0.744832
-0.733943
1.98979
4.04177
-0.437151
-0.256846
-0.090174
0.127524
0.328515
0.472456
0.568136
0.594478
0.567473
45.4724
-0.937644
-0.967418
-0.96349
-0.938479
-0.858491
-0.754096
-0.64848
-0.205796
-0.0731682
-0.395684
-0.269993
-0.126136
0.0259185
0.162256
0.272983
0.332772
0.342296
0.334212
47.2982
-0.809878
-0.84835
-0.857466
-0.837303
-0.775738
-0.692388
-0.618898
-0.512563
0.774937
0.00588613
-0.263516
-0.161662
-0.0619279
0.0273686
0.100775
0.12921
0.138707
0.141364
48.866
-0.696863
-0.729669
-0.736206
-0.718031
-0.671849
-0.609812
-0.549103
-0.501812
0.232801
-0.162369
-0.28035
-0.196596
-0.141736
-0.0867731
-0.0454688
-0.0287196
-0.0233494
-0.0167777
50.6765
-0.603328
-0.630573
-0.636071
-0.621292
-0.587113
-0.541012
-0.495127
-0.454101
-0.389782
-0.213282
-0.268923
-0.226325
-0.201912
-0.169848
-0.146957
-0.144125
-0.137865
-0.144867
50.7095
-0.525056
-0.548412
-0.554524
-0.544473
-0.520068
-0.486809
-0.451482
-0.418021
-0.387321
-0.338573
-0.287575
-0.267062
-0.247105
-0.223189
-0.211437
-0.218719
-0.219159
-0.197682
14.6088
-0.458881
-0.479297
-0.486261
-0.480509
-0.463553
-0.439181
-0.411953
-0.385567
-0.358374
-0.33023
-0.304914
-0.283797
-0.264619
-0.247893
-0.241103
-0.247895
-0.247741
-0.204154
0.489965
-0.402434
-0.420587
-0.428199
-0.425754
-0.414307
-0.396422
-0.3754
-0.354031
-0.331964
-0.313207
-0.295436
-0.278494
-0.262118
-0.247844
-0.240501
-0.23692
-0.236967
-0.213659
-0.288347
-0.353737
-0.370143
-0.378174
-0.3781
-0.370564
-0.357321
-0.340779
-0.323094
-0.306303
-0.290254
-0.274814
-0.25974
-0.244309
-0.22915
-0.217388
-0.204703
-0.194386
-0.16365
-0.116553
-0.31124
-0.32624
-0.334482
-0.336036
-0.331199
-0.321159
-0.307704
-0.292714
-0.277655
-0.262908
-0.248374
-0.233387
-0.217034
-0.199177
-0.181155
-0.163265
-0.142218
-0.0892757
0.0232053
-0.273802
-0.287579
-0.295839
-0.298468
-0.295476
-0.287634
-0.276278
-0.262907
-0.248767
-0.234382
-0.219653
-0.203846
-0.18586
-0.164872
-0.14074
-0.11249
-0.0773493
0.104626
0.147791
-0.240602
-0.253222
-0.261309
-0.264598
-0.262868
-0.256572
-0.246696
-0.234423
-0.220797
-0.20636
-0.191078
-0.174287
-0.154821
-0.131364
-0.10256
-0.0666979
-0.0267679
1.14762
0.567603
-0.211049
-0.222503
-0.230221
-0.233834
-0.232954
-0.227783
-0.219036
-0.207639
-0.194436
-0.17993
-0.164187
-0.146708
-0.126388
-0.101687
-0.0705856
-0.0325231
0.357205
1.42235
1.50329
-0.184732
-0.19498
-0.202133
-0.205772
-0.205408
-0.201064
-0.193225
-0.182647
-0.169985
-0.155653
-0.139792
-0.122114
-0.101695
-0.0770512
-0.046448
-0.0123708
1.12712
1.48702
1.57096
-0.161374
-0.17038
-0.176794
-0.180195
-0.180052
-0.176267
-0.169177
-0.159388
-0.147425
-0.133602
-0.118057
-0.100665
-0.0807082
-0.056833
-0.0280647
-0.000797113
1.43907
1.54237
0.678515
-0.140775
-0.148525
-0.154071
-0.15702
-0.156848
-0.153398
-0.146901
-0.137806
-0.126603
-0.113562
-0.0987479
-0.0820684
-0.0629173
-0.0397702
-0.0117812
0.011746
1.4646
1.593
0.30457
-0.122725
-0.129241
-0.133855
-0.136208
-0.135826
-0.132527
-0.126464
-0.11798
-0.10755
-0.0954073
-0.0816123
-0.0660973
-0.0482073
-0.0263105
-0.000998525
0.767354
1.53174
1.62569
0.271798
-0.106955
-0.112302
-0.115979
-0.117673
-0.116983
-0.113713
-0.10797
-0.100035
-0.0903678
-0.0792082
-0.0667235
-0.0527268
-0.0361442
-0.0166391
0.00291698
1.44023
1.55376
0.612628
0.170712
-0.0931134
-0.0973999
-0.100197
-0.101239
-0.100216
-0.0969561
-0.0913695
-0.0839833
-0.0750978
-0.0649324
-0.053772
-0.0416014
-0.0267994
-0.00999224
0.222014
1.53645
1.59554
0.195346
0.156632
-0.080792
-0.0841657
-0.0861948
-0.0866603
-0.0853384
-0.0820742
-0.0767243
-0.0697945
-0.0615841
-0.0522918
-0.0414497
-0.023894
-0.0194696
-0.00938683
1.16683
1.52162
1.00048
0.11145
0.142295
-0.0695624
-0.0721934
-0.0736107
-0.0736381
-0.0721293
-0.068988
-0.0640914
-0.0574707
-0.0496814
-0.0289422
0.000665307
-0.0053759
-0.0155642
-0.0119442
1.28711
1.39321
0.134385
0.0824558
0.125926
-0.0590194
-0.061075
-0.0620579
-0.0618369
-0.0603371
-0.0574876
-0.0530566
-0.0469197
-0.0219007
0.00285488
0.0104117
0.00151492
-0.00905212
0.0762252
0.178485
0.00510136
0.0336406
0.0696943
0.107787
-0.0488297
-0.050437
-0.05114
-0.0508717
-0.0496377
-0.0473947
-0.0436847
-0.0379654
-0.0249134
0.010489
0.00386893
0.000220028
0.0462703
0.00875777
-0.000534011
0.00934244
0.0273615
0.054871
0.0878141
-0.0387666
-0.0399906
-0.0404845
-0.0402854
-0.0395539
-0.038441
-0.0361155
-0.0308974
-0.0231852
-0.0132059
-0.00625862
-3.49075e-06
0.00270356
0.00294967
0.00499951
0.00932499
0.018553
0.0381434
0.065411
-0.0287155
-0.0295668
-0.0298246
-0.0296603
-0.0295721
-0.0303407
-0.0315847
-0.0275132
-0.0175591
-0.00748605
0.00211612
0.00655013
0.00616689
0.00677331
0.00703876
0.00667677
0.00755378
0.0193967
0.060805
-0.0185584
-0.0190196
-0.0190715
-0.0190441
-0.0198168
-0.0234344
-0.0335601
-0.0324234
-0.0149362
0.000782591
0.0166543
0.0196609
0.0109887
0.00832442
0.00657736
0.00234504
-0.00593286
-0.00441314
0.0854575
-0.0075066
-0.00768846
-0.00785451
-0.00861373
-0.0119045
-0.02211
-0.0411963
-0.0322076
-0.0104059
0.00745415
0.0332925
0.0390479
0.0147394
0.00560233
0.00100541
-0.00490067
-0.0185562
-0.0326958
0.04161
)
;

boundaryField
{
    leftWall
    {
        type            fixedFluxPressure;
        gradient        uniform 0;
        value           nonuniform List<scalar> 
50
(
789.772
791.073
791.174
790.269
788.578
786.064
782.6
778.167
769.565
700.972
203.817
3.13407
0.91162
0.612026
0.559716
0.527243
0.499146
0.472584
0.445234
0.41745
0.389765
0.362419
0.335668
0.309761
0.284873
0.261124
0.238606
0.217395
0.197535
0.179023
0.161808
0.145811
0.130938
0.117104
0.104247
0.0923248
0.0813153
0.0712022
0.0619666
0.0535761
0.0459813
0.0391189
0.0329154
0.0272905
0.022164
0.0174591
0.0131058
0.00904469
0.00523091
0.0016368
)
;
    }
    rightWall
    {
        type            fixedFluxPressure;
        gradient        uniform 0;
        value           nonuniform List<scalar> 
50
(
696.481
696.63
691.853
681.871
683.52
687.846
677.161
643.758
375.644
202.88
194.285
184.622
183.206
249
222.291
84.0278
3.52438
3.32265
6.77696
13.7816
28.6696
41.6373
43.5646
45.4724
47.2982
48.866
50.6765
50.7095
14.6088
0.489965
-0.288347
-0.116553
0.0232053
0.147791
0.567603
1.50329
1.57096
0.678515
0.30457
0.271798
0.170712
0.156632
0.142295
0.125926
0.107787
0.0878141
0.065411
0.060805
0.0854575
0.04161
)
;
    }
    lowerWall
    {
        type            fixedFluxPressure;
        gradient        uniform 0;
        value           nonuniform List<scalar> 
62
(
789.772
783.393
777.301
772.549
769.885
769.265
770.612
773.833
778.844
785.554
793.878
803.731
814.955
827.292
840.506
854.274
867.324
879.034
888.808
893.866
891.16
881.478
865.272
865.272
862.303
858.186
852.621
845.904
837.315
823.984
801.364
725.139
696.763
676.699
645.872
1364.11
1394.96
1417.64
1412.8
1369.09
1288.03
1178.88
1053.86
1364.11
1263.39
1103.35
907.263
744.747
642.769
603.521
625.004
709.44
805.182
840.37
808.942
757.149
726.205
721.712
731.125
730.441
709.706
696.481
)
;
    }
    atmosphere
    {
        type            totalPressure;
        rho             rho;
        psi             none;
        gamma           1;
        p0              uniform 0;
        value           nonuniform List<scalar> 
46
(
0
0
0
0
0
0
0
0
0
0
0
0
0
0
0
-1.1814e-06
-4.87707e-05
-0.000172487
-0.000360906
-0.000589645
-0.000824811
-0.00102548
-0.00115057
-0.00117253
-0.00118099
-0.00119209
-0.00120488
-0.00120889
-0.0010515
-0.000771744
-0.000459437
-0.000199088
-3.07306e-05
-1.46853e-05
0
0
0
0
-4.7933e-05
-0.000471338
-0.00208638
-0.00477941
-0.00751543
-0.0084704
-0.00389076
0
)
;
    }
    defaultFaces
    {
        type            empty;
    }
}


// ************************************************************************* //
