/*--------------------------------*- C++ -*----------------------------------*\
  =========                 |
  \\      /  F ield         | OpenFOAM: The Open Source CFD Toolbox
   \\    /   O peration     | Website:  https://openfoam.org
    \\  /    A nd           | Version:  9
     \\/     M anipulation  |
\*---------------------------------------------------------------------------*/
FoamFile
{
    format      ascii;
    class       volVectorField;
    location    "0.85";
    object      U;
}
// * * * * * * * * * * * * * * * * * * * * * * * * * * * * * * * * * * * * * //

dimensions      [0 1 -1 0 0 0 0];

internalField   nonuniform List<vector> 
2268
(
(0.021845 -0.0132133 0)
(0.0548863 -0.0136615 0)
(0.0817231 -0.00787143 0)
(0.0971424 -0.00341379 0)
(0.106281 -0.00214434 0)
(0.115015 -0.00262863 0)
(0.12557 -0.00369368 0)
(0.13872 -0.00486117 0)
(0.154838 -0.00602271 0)
(0.174081 -0.00716589 0)
(0.196511 -0.00828769 0)
(0.22212 -0.00937182 0)
(0.250742 -0.0103641 0)
(0.281891 -0.0111408 0)
(0.314501 -0.0114727 0)
(0.346526 -0.0109844 0)
(0.374359 -0.00908928 0)
(0.392934 -0.00424001 0)
(0.390856 0.00514317 0)
(0.35035 0.0196948 0)
(0.262419 0.0349726 0)
(0.119214 0.0377802 0)
(0.0158356 0.0202785 0)
(0.022729 -0.0245063 0)
(0.0509394 -0.0216517 0)
(0.0694167 -0.0141446 0)
(0.0829639 -0.00894108 0)
(0.0935813 -0.00694455 0)
(0.103479 -0.00726584 0)
(0.1141 -0.00872772 0)
(0.126414 -0.0106769 0)
(0.141062 -0.0128524 0)
(0.158429 -0.0151444 0)
(0.178742 -0.017483 0)
(0.202085 -0.0197749 0)
(0.228346 -0.021844 0)
(0.25707 -0.0233572 0)
(0.287234 -0.0237449 0)
(0.316921 -0.0221159 0)
(0.343056 -0.0171675 0)
(0.360658 -0.00664995 0)
(0.367218 0.0120945 0)
(0.357776 0.0409652 0)
(0.317192 0.0759725 0)
(0.205298 0.0928977 0)
(0.0573962 0.0521768 0)
(0.0195118 -0.0427692 0)
(0.0444074 -0.0320542 0)
(0.0593122 -0.0208797 0)
(0.0717681 -0.0142249 0)
(0.0823607 -0.0115839 0)
(0.0921751 -0.0117903 0)
(0.102254 -0.0136272 0)
(0.113515 -0.0163317 0)
(0.126655 -0.019521 0)
(0.142145 -0.0229949 0)
(0.160284 -0.0266115 0)
(0.18121 -0.0301964 0)
(0.204852 -0.0334527 0)
(0.230799 -0.0358523 0)
(0.258111 -0.0365162 0)
(0.285021 -0.0341085 0)
(0.308677 -0.0267715 0)
(0.324687 -0.0121915 0)
(0.32841 0.0127798 0)
(0.31604 0.0517517 0)
(0.284979 0.104635 0)
(0.212255 0.145813 0)
(0.0828868 0.119654 0)
(0.0154821 -0.0562879 0)
(0.0372018 -0.0406008 0)
(0.0501038 -0.027156 0)
(0.0616809 -0.0194467 0)
(0.0717221 -0.0162395 0)
(0.0809601 -0.0162815 0)
(0.0902107 -0.0183781 0)
(0.100293 -0.0217093 0)
(0.111889 -0.0257998 0)
(0.125498 -0.030365 0)
(0.141457 -0.0351877 0)
(0.159942 -0.040008 0)
(0.180927 -0.0444066 0)
(0.204074 -0.047662 0)
(0.22856 -0.0485919 0)
(0.252807 -0.0454173 0)
(0.274195 -0.0357126 0)
(0.288733 -0.0166087 0)
(0.291601 0.0151236 0)
(0.27829 0.0626672 0)
(0.247446 0.127684 0)
(0.192803 0.19018 0)
(0.0897664 0.187779 0)
(0.0118166 -0.0673914 0)
(0.0303133 -0.047902 0)
(0.0415444 -0.0328609 0)
(0.052106 -0.0243414 0)
(0.0612688 -0.0206251 0)
(0.0696186 -0.0204549 0)
(0.0778181 -0.022698 0)
(0.086582 -0.0265165 0)
(0.0965453 -0.0313686 0)
(0.108202 -0.0368961 0)
(0.121903 -0.0428099 0)
(0.137853 -0.0487683 0)
(0.156074 -0.0542377 0)
(0.176318 -0.0583201 0)
(0.197913 -0.0595545 0)
(0.219507 -0.0557435 0)
(0.238755 -0.0439005 0)
(0.251996 -0.0205593 0)
(0.254569 0.0176752 0)
(0.241922 0.0733625 0)
(0.212156 0.147613 0)
(0.166017 0.225917 0)
(0.0856473 0.248625 0)
(0.0087192 -0.0762443 0)
(0.0240934 -0.0539966 0)
(0.0336541 -0.0378781 0)
(0.0429642 -0.02871 0)
(0.0509955 -0.0245226 0)
(0.0582255 -0.024109 0)
(0.0651927 -0.0264082 0)
(0.0725086 -0.0305855 0)
(0.0807445 -0.0360543 0)
(0.0903656 -0.0423965 0)
(0.101718 -0.0492595 0)
(0.115022 -0.0562298 0)
(0.130346 -0.0626768 0)
(0.147536 -0.0675524 0)
(0.166088 -0.0691534 0)
(0.184906 -0.0648983 0)
(0.201959 -0.0512563 0)
(0.21391 -0.0241506 0)
(0.216322 0.0200521 0)
(0.204829 0.083266 0)
(0.177439 0.165205 0)
(0.13737 0.254993 0)
(0.0760571 0.301081 0)
(0.00612445 -0.0831649 0)
(0.0186127 -0.0589799 0)
(0.0264466 -0.0421573 0)
(0.0342864 -0.0324599 0)
(0.0409894 -0.0278348 0)
(0.0469234 -0.0271612 0)
(0.0525167 -0.0294474 0)
(0.0582796 -0.033873 0)
(0.0647086 -0.0398224 0)
(0.0722232 -0.046831 0)
(0.0811473 -0.0544937 0)
(0.0917016 -0.0623384 0)
(0.103988 -0.0696574 0)
(0.117943 -0.075284 0)
(0.13323 -0.0773134 0)
(0.149022 -0.0728203 0)
(0.163628 -0.0577465 0)
(0.174065 -0.0273922 0)
(0.17619 0.0221588 0)
(0.165944 0.092151 0)
(0.141718 0.180554 0)
(0.107987 0.278354 0)
(0.0645059 0.343759 0)
(0.00394633 -0.0884911 0)
(0.0137835 -0.0629608 0)
(0.0198334 -0.0456973 0)
(0.0260156 -0.0355533 0)
(0.0312264 -0.0305249 0)
(0.0357158 -0.0295832 0)
(0.0398134 -0.0318006 0)
(0.0439305 -0.0363768 0)
(0.0484807 -0.0426794 0)
(0.053824 -0.0502092 0)
(0.0602456 -0.0585199 0)
(0.0679503 -0.0670953 0)
(0.0770565 -0.0751727 0)
(0.0875708 -0.0815009 0)
(0.0993099 -0.08402 0)
(0.111709 -0.0795081 0)
(0.12344 -0.0634015 0)
(0.131919 -0.0303513 0)
(0.133416 0.023871 0)
(0.124374 0.0997678 0)
(0.103817 0.193356 0)
(0.077164 0.295912 0)
(0.0487159 0.379015 0)
(0.0546505 -0.029754 0)
(0.0746044 0.0044677 0)
(-0.00835562 0.0196478 0)
(-0.0827977 0.0222895 0)
(-0.164783 0.0233886 0)
(-0.236677 0.0204561 0)
(-0.283783 0.0106736 0)
(-0.281842 -0.00635344 0)
(-0.215424 -0.0275966 0)
(-0.0920491 -0.0490456 0)
(0.0856407 -0.0694157 0)
(0.31332 -0.0856703 0)
(0.571245 -0.0921151 0)
(0.823733 -0.0823805 0)
(1.00833 -0.035565 0)
(0.996669 0.0333145 0)
(0.747117 0.0815546 0)
(0.373489 0.0858325 0)
(0.0619352 0.0513364 0)
(0.0169151 -0.0386592 0)
(-0.00516909 0.0334897 0)
(-0.118935 0.0518492 0)
(-0.213195 0.0537737 0)
(-0.286803 0.0477536 0)
(-0.326846 0.0328515 0)
(-0.327351 0.00779878 0)
(-0.286796 -0.0258216 0)
(-0.206515 -0.0629677 0)
(-0.0833685 -0.100161 0)
(0.0817877 -0.135449 0)
(0.286068 -0.164653 0)
(0.513756 -0.175104 0)
(0.740067 -0.151218 0)
(0.902831 -0.0553669 0)
(0.955463 0.0836674 0)
(0.829446 0.190099 0)
(0.521108 0.219446 0)
(0.142832 0.155798 0)
(-0.0335494 -0.027422 0)
(-0.0849142 0.0690908 0)
(-0.19576 0.0917 0)
(-0.275783 0.0849488 0)
(-0.32834 0.0659213 0)
(-0.348324 0.0361267 0)
(-0.333951 -0.00437165 0)
(-0.285106 -0.0524383 0)
(-0.202737 -0.1033 0)
(-0.0866284 -0.154046 0)
(0.0624024 -0.202268 0)
(0.241076 -0.241938 0)
(0.436152 -0.255842 0)
(0.633344 -0.222188 0)
(0.776881 -0.0885683 0)
(0.818675 0.105367 0)
(0.719524 0.267745 0)
(0.495211 0.341512 0)
(0.167911 0.290214 0)
(-0.0692326 0.00815105 0)
(-0.142788 0.108629 0)
(-0.242524 0.128002 0)
(-0.308244 0.110447 0)
(-0.3478 0.0787959 0)
(-0.358346 0.0356091 0)
(-0.337451 -0.0187107 0)
(-0.285874 -0.0802254 0)
(-0.206211 -0.143964 0)
(-0.100181 -0.206764 0)
(0.0306395 -0.265507 0)
(0.180853 -0.312075 0)
(0.338123 -0.330445 0)
(0.502931 -0.292821 0)
(0.621429 -0.128177 0)
(0.677263 0.124259 0)
(0.601725 0.328788 0)
(0.435254 0.443986 0)
(0.169521 0.425471 0)
(-0.0967892 0.0595246 0)
(-0.184807 0.149718 0)
(-0.273027 0.159575 0)
(-0.328966 0.13094 0)
(-0.360652 0.0879879 0)
(-0.365206 0.0324377 0)
(-0.340346 -0.0346169 0)
(-0.288749 -0.107775 0)
(-0.214401 -0.181867 0)
(-0.120339 -0.253433 0)
(-0.00987404 -0.319394 0)
(0.106786 -0.375356 0)
(0.226096 -0.402566 0)
(0.362708 -0.364291 0)
(0.460868 -0.173226 0)
(0.531364 0.130504 0)
(0.483992 0.376043 0)
(0.368375 0.523929 0)
(0.1627 0.547274 0)
(-0.120649 0.123038 0)
(-0.218634 0.19098 0)
(-0.29615 0.187461 0)
(-0.345061 0.148124 0)
(-0.370656 0.0945779 0)
(-0.370062 0.0273378 0)
(-0.342369 -0.0510849 0)
(-0.292204 -0.133719 0)
(-0.224408 -0.215301 0)
(-0.143443 -0.293382 0)
(-0.053973 -0.367293 0)
(0.0380335 -0.425414 0)
(0.137984 -0.449396 0)
(0.257661 -0.400734 0)
(0.342188 -0.204648 0)
(0.416095 0.121071 0)
(0.37198 0.415894 0)
(0.298096 0.58263 0)
(0.149722 0.650301 0)
(-0.144823 0.197355 0)
(-0.25064 0.231736 0)
(-0.316514 0.212156 0)
(-0.358833 0.162677 0)
(-0.378284 0.0988964 0)
(-0.372573 0.0206724 0)
(-0.342705 -0.0675927 0)
(-0.294823 -0.157544 0)
(-0.234372 -0.24474 0)
(-0.167248 -0.328272 0)
(-0.09509 -0.402126 0)
(-0.0166922 -0.456446 0)
(0.0716847 -0.481297 0)
(0.184828 -0.437955 0)
(0.265361 -0.229189 0)
(0.300638 0.111774 0)
(0.291194 0.419007 0)
(0.224746 0.615107 0)
(0.148369 0.733135 0)
(-0.17799 0.287291 0)
(-0.284001 0.268782 0)
(-0.336106 0.232889 0)
(-0.370469 0.174213 0)
(-0.383088 0.100651 0)
(-0.372353 0.0124374 0)
(-0.341016 -0.0839336 0)
(-0.296326 -0.179332 0)
(-0.244296 -0.2705 0)
(-0.189526 -0.354459 0)
(-0.12802 -0.428014 0)
(-0.0551455 -0.487728 0)
(0.0278082 -0.525854 0)
(0.130036 -0.493449 0)
(0.223717 -0.246305 0)
(0.205087 0.116224 0)
(0.22698 0.446588 0)
(0.136821 0.629759 0)
(0.156474 0.829801 0)
(0.00107189 -0.0935303 0)
(0.0070768 -0.0672749 0)
(0.010105 -0.0498506 0)
(0.0133707 -0.0391642 0)
(0.0159536 -0.0335951 0)
(0.0179139 -0.0322457 0)
(0.0194379 -0.0342833 0)
(0.020784 -0.038948 0)
(0.0222286 -0.0455969 0)
(0.0240209 -0.0536923 0)
(0.0263622 -0.06274 0)
(0.0294024 -0.072175 0)
(0.0332483 -0.0811841 0)
(0.0379683 -0.0884454 0)
(0.0435675 -0.0917567 0)
(0.0498574 -0.0875698 0)
(0.0561146 -0.070652 0)
(0.0606585 -0.034619 0)
(0.0608224 0.0255291 0)
(0.0535963 0.10915 0)
(0.0401585 0.208172 0)
(0.0288442 0.30789 0)
(0.0754551 0.385623 0)
(-0.00218279 -0.095332 0)
(-0.000878543 -0.0686428 0)
(-0.00235642 -0.0511569 0)
(-0.0035495 -0.0399923 0)
(-0.00516249 -0.0338912 0)
(-0.00725293 -0.0320451 0)
(-0.00979844 -0.0337056 0)
(-0.0127221 -0.0381622 0)
(-0.0159304 -0.0447758 0)
(-0.0193471 -0.0529829 0)
(-0.0229331 -0.062253 0)
(-0.02669 -0.0719933 0)
(-0.0306435 -0.0813857 0)
(-0.0348117 -0.0891272 0)
(-0.0391679 -0.0930219 0)
(-0.0436728 -0.0893848 0)
(-0.0484734 -0.0724361 0)
(-0.0539796 -0.0346328 0)
(-0.0604454 0.0299999 0)
(-0.0683516 0.118848 0)
(-0.0776045 0.215292 0)
(-0.0790799 0.289805 0)
(-0.0398137 0.297764 0)
(-0.00552354 -0.0918327 0)
(-0.00869407 -0.0652244 0)
(-0.0146299 -0.0477057 0)
(-0.0204502 -0.0362944 0)
(-0.0265025 -0.0298287 0)
(-0.0329014 -0.0275455 0)
(-0.039748 -0.0287427 0)
(-0.0471091 -0.0327371 0)
(-0.0550476 -0.0388857 0)
(-0.0636526 -0.0465947 0)
(-0.0730621 -0.0552897 0)
(-0.0834744 -0.064338 0)
(-0.0951435 -0.0729063 0)
(-0.108352 -0.0797226 0)
(-0.123358 -0.0826837 0)
(-0.140353 -0.0782365 0)
(-0.159438 -0.0606603 0)
(-0.180088 -0.0222671 0)
(-0.199895 0.0428173 0)
(-0.215834 0.129957 0)
(-0.228257 0.220398 0)
(-0.237068 0.291754 0)
(-0.254791 0.337222 0)
(-0.00886626 -0.0833423 0)
(-0.016377 -0.0568655 0)
(-0.0266802 -0.0395191 0)
(-0.0369999 -0.02806 0)
(-0.0474122 -0.0213723 0)
(-0.0580427 -0.0187152 0)
(-0.0690772 -0.0194055 0)
(-0.0806842 -0.022764 0)
(-0.0930417 -0.0281269 0)
(-0.106367 -0.0348534 0)
(-0.120945 -0.0423009 0)
(-0.137144 -0.0497564 0)
(-0.155434 -0.0563109 0)
(-0.176379 -0.0606497 0)
(-0.200585 -0.0607195 0)
(-0.228613 -0.053233 0)
(-0.260656 -0.0331507 0)
(-0.295388 0.00604256 0)
(-0.328667 0.0691161 0)
(-0.355821 0.152874 0)
(-0.375818 0.244189 0)
(-0.391763 0.327623 0)
(-0.411483 0.392956 0)
(-0.0121334 -0.0699221 0)
(-0.023755 -0.0438183 0)
(-0.0382011 -0.0268163 0)
(-0.0527491 -0.015485 0)
(-0.0672476 -0.0087149 0)
(-0.0818121 -0.00577667 0)
(-0.0966808 -0.00598553 0)
(-0.112081 -0.00864927 0)
(-0.128254 -0.0130708 0)
(-0.145487 -0.0185506 0)
(-0.164135 -0.0243611 0)
(-0.184645 -0.0296836 0)
(-0.207567 -0.0334953 0)
(-0.233547 -0.0343968 0)
(-0.263263 -0.0303763 0)
(-0.297241 -0.0185387 0)
(-0.335349 0.00504244 0)
(-0.375807 0.0448283 0)
(-0.414371 0.103826 0)
(-0.445449 0.179932 0)
(-0.465162 0.263452 0)
(-0.472947 0.339632 0)
(-0.47045 0.393362 0)
(-0.0151969 -0.051907 0)
(-0.0306319 -0.0263719 0)
(-0.0488962 -0.00991803 0)
(-0.0673012 0.00109603 0)
(-0.0854941 0.00777867 0)
(-0.103567 0.010854 0)
(-0.121776 0.0110125 0)
(-0.140367 0.00896453 0)
(-0.159593 0.00544199 0)
(-0.179747 0.00119899 0)
(-0.201171 -0.00296367 0)
(-0.224272 -0.00614075 0)
(-0.249515 -0.0072291 0)
(-0.277395 -0.00480618 0)
(-0.30833 0.00299247 0)
(-0.342444 0.0185315 0)
(-0.379134 0.0445559 0)
(-0.416397 0.0836704 0)
(-0.450279 0.136946 0)
(-0.475496 0.201767 0)
(-0.487467 0.270311 0)
(-0.484605 0.330878 0)
(-0.469928 0.372568 0)
(-0.0178988 -0.0295751 0)
(-0.0368265 -0.00487933 0)
(-0.0585259 0.0107811 0)
(-0.0803721 0.0212657 0)
(-0.101814 0.0276551 0)
(-0.122905 0.0306662 0)
(-0.143899 0.0309902 0)
(-0.165028 0.0293489 0)
(-0.18652 0.0264967 0)
(-0.208619 0.0232211 0)
(-0.231592 0.0203637 0)
(-0.255727 0.0188656 0)
(-0.281308 0.0198335 0)
(-0.308566 0.0246085 0)
(-0.337565 0.0348 0)
(-0.367999 0.0522228 0)
(-0.398893 0.0786547 0)
(-0.428221 0.11531 0)
(-0.45275 0.161932 0)
(-0.468599 0.215664 0)
(-0.472672 0.270532 0)
(-0.464586 0.318669 0)
(-0.4485 0.353547 0)
(-0.0202679 -0.00338999 0)
(-0.0422478 0.0202115 0)
(-0.0669734 0.0348342 0)
(-0.0918076 0.0445588 0)
(-0.116026 0.0504244 0)
(-0.139635 0.0531225 0)
(-0.162867 0.0533373 0)
(-0.185918 0.0517911 0)
(-0.208963 0.0492427 0)
(-0.232175 0.046486 0)
(-0.255718 0.0443641 0)
(-0.279737 0.0438009 0)
(-0.304327 0.0458408 0)
(-0.329474 0.0516765 0)
(-0.354956 0.062626 0)
(-0.380204 0.0800115 0)
(-0.404129 0.104899 0)
(-0.42499 0.137685 0)
(-0.440488 0.177553 0)
(-0.4483 0.221982 0)
(-0.447016 0.266725 0)
(-0.437156 0.306662 0)
(-0.422198 0.33741 0)
(-0.0222224 0.0259941 0)
(-0.0468533 0.0483867 0)
(-0.0741915 0.0617721 0)
(-0.101556 0.0705114 0)
(-0.128088 0.075604 0)
(-0.153741 0.077709 0)
(-0.178711 0.077494 0)
(-0.203148 0.0756692 0)
(-0.227168 0.0729809 0)
(-0.250863 0.0702062 0)
(-0.274301 0.0681594 0)
(-0.2975 0.0677112 0)
(-0.320406 0.0698084 0)
(-0.342838 0.0754754 0)
(-0.364421 0.085766 0)
(-0.384503 0.101634 0)
(-0.402095 0.123712 0)
(-0.415876 0.152017 0)
(-0.424366 0.185655 0)
(-0.426355 0.222644 0)
(-0.4214 0.260006 0)
(-0.410153 0.294183 0)
(-0.394958 0.321599 0)
(-0.0237732 0.0581028 0)
(-0.0506538 0.0791641 0)
(-0.0801945 0.0911336 0)
(-0.109651 0.0986729 0)
(-0.138064 0.102742 0)
(-0.165332 0.103963 0)
(-0.19161 0.102981 0)
(-0.216999 0.100484 0)
(-0.241556 0.0971935 0)
(-0.265307 0.0938545 0)
(-0.288239 0.0912358 0)
(-0.310282 0.0901394 0)
(-0.331285 0.0914083 0)
(-0.350982 0.0959149 0)
(-0.368947 0.104509 0)
(-0.384564 0.117906 0)
(-0.397018 0.136511 0)
(-0.405361 0.160227 0)
(-0.408677 0.188288 0)
(-0.40636 0.219191 0)
(-0.398334 0.25075 0)
(-0.385026 0.28019 0)
(-0.367905 0.304145 0)
(-0.0249643 0.0924728 0)
(-0.0536966 0.112087 0)
(-0.0850447 0.122482 0)
(-0.116184 0.128623 0)
(-0.146085 0.131429 0)
(-0.174592 0.131486 0)
(-0.201819 0.129409 0)
(-0.227822 0.12586 0)
(-0.25261 0.12153 0)
(-0.276158 0.117125 0)
(-0.298396 0.113363 0)
(-0.319201 0.110978 0)
(-0.338374 0.110718 0)
(-0.355619 0.113335 0)
(-0.370521 0.119533 0)
(-0.382534 0.129882 0)
(-0.391007 0.144688 0)
(-0.395251 0.163857 0)
(-0.394665 0.186791 0)
(-0.388914 0.21234 0)
(-0.377985 0.238772 0)
(-0.362025 0.263677 0)
(-0.341951 0.283683 0)
(-0.0258378 0.128629 0)
(-0.0560476 0.146724 0)
(-0.088832 0.155412 0)
(-0.121279 0.159979 0)
(-0.152313 0.161304 0)
(-0.181732 0.159938 0)
(-0.209612 0.156467 0)
(-0.235974 0.151526 0)
(-0.260789 0.145772 0)
(-0.283996 0.139873 0)
(-0.305495 0.1345 0)
(-0.325135 0.130324 0)
(-0.342701 0.128016 0)
(-0.357899 0.128233 0)
(-0.370346 0.131576 0)
(-0.379565 0.138528 0)
(-0.385019 0.149352 0)
(-0.38617 0.163998 0)
(-0.382566 0.18201 0)
(-0.373958 0.202473 0)
(-0.360283 0.223909 0)
(-0.341454 0.244072 0)
(-0.318059 0.259553 0)
(-0.0264334 0.166141 0)
(-0.0577776 0.182674 0)
(-0.0916528 0.189549 0)
(-0.125063 0.192391 0)
(-0.156911 0.192046 0)
(-0.186956 0.189034 0)
(-0.215244 0.183913 0)
(-0.241768 0.17729 0)
(-0.266474 0.169794 0)
(-0.289282 0.162059 0)
(-0.310076 0.154713 0)
(-0.328697 0.148376 0)
(-0.344935 0.143654 0)
(-0.358511 0.141128 0)
(-0.369074 0.141322 0)
(-0.376201 0.144657 0)
(-0.379422 0.151375 0)
(-0.37827 0.161465 0)
(-0.372346 0.174582 0)
(-0.361397 0.189958 0)
(-0.345279 0.20626 0)
(-0.323736 0.221322 0)
(-0.297174 0.231728 0)
(-0.0267866 0.204624 0)
(-0.0589503 0.219573 0)
(-0.0935945 0.224548 0)
(-0.127649 0.225541 0)
(-0.160018 0.22337 0)
(-0.190433 0.218526 0)
(-0.218916 0.211545 0)
(-0.24544 0.20301 0)
(-0.26994 0.193526 0)
(-0.292325 0.183697 0)
(-0.312478 0.174117 0)
(-0.330247 0.165363 0)
(-0.345431 0.157986 0)
(-0.357776 0.152501 0)
(-0.366958 0.149367 0)
(-0.372589 0.14895 0)
(-0.374236 0.15147 0)
(-0.371456 0.156943 0)
(-0.363849 0.165096 0)
(-0.35112 0.175261 0)
(-0.333047 0.18619 0)
(-0.309261 0.195781 0)
(-0.280095 0.200665 0)
(-0.0269252 0.243734 0)
(-0.0596156 0.257081 0)
(-0.0947245 0.260089 0)
(-0.129124 0.259133 0)
(-0.161737 0.255011 0)
(-0.19228 0.248189 0)
(-0.220757 0.239186 0)
(-0.247131 0.228566 0)
(-0.271332 0.216915 0)
(-0.293273 0.204814 0)
(-0.312842 0.192829 0)
(-0.329898 0.181499 0)
(-0.344262 0.171325 0)
(-0.355699 0.162767 0)
(-0.363914 0.156218 0)
(-0.368544 0.151987 0)
(-0.369177 0.150263 0)
(-0.365373 0.151067 0)
(-0.356711 0.154171 0)
(-0.342844 0.158974 0)
(-0.323479 0.164299 0)
(-0.298182 0.16812 0)
(-0.267293 0.167191 0)
(-0.0268686 0.283152 0)
(-0.0598052 0.294883 0)
(-0.0950841 0.295867 0)
(-0.129535 0.292883 0)
(-0.162121 0.286713 0)
(-0.192549 0.277804 0)
(-0.220813 0.26666 0)
(-0.246876 0.253836 0)
(-0.270669 0.2399 0)
(-0.292114 0.225417 0)
(-0.31111 0.210929 0)
(-0.327537 0.196943 0)
(-0.341234 0.183917 0)
(-0.351992 0.172252 0)
(-0.35954 0.162279 0)
(-0.363544 0.154246 0)
(-0.36361 0.148299 0)
(-0.359305 0.144441 0)
(-0.350189 0.142463 0)
(-0.335871 0.141811 0)
(-0.316003 0.141382 0)
(-0.290125 0.139268 0)
(-0.258627 0.132427 0)
(-0.0266269 0.322573 0)
(-0.0595311 0.33267 0)
(-0.0946851 0.331582 0)
(-0.128891 0.326507 0)
(-0.16117 0.318215 0)
(-0.191224 0.307139 0)
(-0.219048 0.293775 0)
(-0.244606 0.278668 0)
(-0.267838 0.262379 0)
(-0.288679 0.24546 0)
(-0.307046 0.228432 0)
(-0.322836 0.211773 0)
(-0.335912 0.1959 0)
(-0.346089 0.18116 0)
(-0.353127 0.167823 0)
(-0.356722 0.156074 0)
(-0.356509 0.146004 0)
(-0.352079 0.137585 0)
(-0.342997 0.130603 0)
(-0.328855 0.124534 0)
(-0.309282 0.118356 0)
(-0.283819 0.110328 0)
(-0.252935 0.0976988 0)
(-0.0262017 0.361694 0)
(-0.0587862 0.370135 0)
(-0.0935101 0.366928 0)
(-0.127162 0.359709 0)
(-0.15883 0.349237 0)
(-0.188225 0.335936 0)
(-0.215341 0.320299 0)
(-0.240151 0.302866 0)
(-0.262608 0.284192 0)
(-0.282661 0.264821 0)
(-0.300247 0.245257 0)
(-0.315282 0.22595 0)
(-0.32765 0.20728 0)
(-0.337194 0.189543 0)
(-0.343702 0.172951 0)
(-0.346909 0.15763 0)
(-0.346496 0.143618 0)
(-0.342097 0.130845 0)
(-0.333314 0.119077 0)
(-0.319769 0.10781 0)
(-0.30111 0.0961062 0)
(-0.276922 0.0824302 0)
(-0.247758 0.0643923 0)
(-0.0255878 0.400202 0)
(-0.0575465 0.406955 0)
(-0.091515 0.401583 0)
(-0.124278 0.392169 0)
(-0.155001 0.379467 0)
(-0.183408 0.363898 0)
(-0.209499 0.345951 0)
(-0.233257 0.326168 0)
(-0.254651 0.305101 0)
(-0.273644 0.283286 0)
(-0.290193 0.261213 0)
(-0.304231 0.239307 0)
(-0.315664 0.21791 0)
(-0.324359 0.197277 0)
(-0.330138 0.177568 0)
(-0.332782 0.158859 0)
(-0.332026 0.141141 0)
(-0.32757 0.124306 0)
(-0.319087 0.108101 0)
(-0.306268 0.092036 0)
(-0.288835 0.0752652 0)
(-0.266457 0.0564759 0)
(-0.239773 0.0336683 0)
(-0.024775 0.437761 0)
(-0.0557749 0.442787 0)
(-0.0886333 0.435196 0)
(-0.120137 0.423533 0)
(-0.149541 0.408554 0)
(-0.176583 0.390674 0)
(-0.201273 0.370388 0)
(-0.223606 0.348239 0)
(-0.243568 0.324781 0)
(-0.261139 0.30054 0)
(-0.276291 0.275993 0)
(-0.288976 0.251541 0)
(-0.299118 0.227496 0)
(-0.306613 0.204074 0)
(-0.31132 0.181398 0)
(-0.313071 0.159506 0)
(-0.311671 0.138356 0)
(-0.3069 0.117815 0)
(-0.298525 0.0976166 0)
(-0.286336 0.0772949 0)
(-0.27016 0.0561006 0)
(-0.249789 0.032945 0)
(-0.225935 0.0061937 0)
(-0.02375 0.474008 0)
(-0.0534249 0.477255 0)
(-0.0847814 0.467381 0)
(-0.114616 0.453407 0)
(-0.142276 0.436093 0)
(-0.167522 0.415859 0)
(-0.190374 0.393202 0)
(-0.210842 0.368672 0)
(-0.228929 0.342822 0)
(-0.244634 0.316173 0)
(-0.257943 0.289186 0)
(-0.268828 0.262242 0)
(-0.277236 0.235626 0)
(-0.283092 0.209528 0)
(-0.286305 0.184048 0)
(-0.286769 0.159202 0)
(-0.284368 0.134931 0)
(-0.278973 0.11109 0)
(-0.270457 0.0874122 0)
(-0.25872 0.0634651 0)
(-0.243702 0.0385981 0)
(-0.225326 0.0119269 0)
(-0.204335 -0.0178744 0)
(-0.0224975 0.508549 0)
(-0.050444 0.509947 0)
(-0.0798641 0.497709 0)
(-0.107572 0.481347 0)
(-0.133015 0.461631 0)
(-0.155978 0.438986 0)
(-0.176497 0.41392 0)
(-0.194599 0.386988 0)
(-0.210308 0.358743 0)
(-0.223642 0.3297 0)
(-0.234606 0.300307 0)
(-0.243194 0.270926 0)
(-0.249382 0.241827 0)
(-0.25314 0.213186 0)
(-0.254434 0.185094 0)
(-0.253232 0.157564 0)
(-0.249507 0.130533 0)
(-0.243228 0.103854 0)
(-0.234372 0.0772709 0)
(-0.222941 0.0503847 0)
(-0.208975 0.0226367 0)
(-0.192506 -0.00668858 0)
(-0.174255 -0.0386759 0)
(-0.0210013 0.540954 0)
(-0.0467761 0.540406 0)
(-0.0737794 0.525707 0)
(-0.0988555 0.506859 0)
(-0.121555 0.484658 0)
(-0.141699 0.459536 0)
(-0.15934 0.432014 0)
(-0.174531 0.402655 0)
(-0.187317 0.372012 0)
(-0.197741 0.340593 0)
(-0.205836 0.308836 0)
(-0.211622 0.277092 0)
(-0.215119 0.245624 0)
(-0.21635 0.214612 0)
(-0.215352 0.184153 0)
(-0.212177 0.154269 0)
(-0.20689 0.124903 0)
(-0.199557 0.0959136 0)
(-0.190248 0.0670503 0)
(-0.179053 0.0379446 0)
(-0.166082 0.00810899 0)
(-0.151445 -0.0230409 0)
(-0.135819 -0.0564125 0)
(-0.0192431 0.570756 0)
(-0.0423631 0.568133 0)
(-0.0664226 0.550849 0)
(-0.0883146 0.529403 0)
(-0.107702 0.504616 0)
(-0.124446 0.476942 0)
(-0.138628 0.446915 0)
(-0.150329 0.415106 0)
(-0.159628 0.382071 0)
(-0.166599 0.348312 0)
(-0.17131 0.314258 0)
(-0.173823 0.28026 0)
(-0.174206 0.246587 0)
(-0.172549 0.213434 0)
(-0.168966 0.180921 0)
(-0.1636 0.149086 0)
(-0.156604 0.117883 0)
(-0.148138 0.0871691 0)
(-0.13835 0.056697 0)
(-0.127397 0.0261125 0)
(-0.115436 -0.00502639 0)
(-0.102626 -0.0372111 0)
(-0.0895905 -0.0712076 0)
(-0.0172019 0.59745 0)
(-0.0371442 0.592582 0)
(-0.0576901 0.572567 0)
(-0.075805 0.54839 0)
(-0.0912709 0.520909 0)
(-0.104003 0.490603 0)
(-0.114117 0.458025 0)
(-0.121735 0.42376 0)
(-0.126981 0.388364 0)
(-0.129972 0.352334 0)
(-0.130821 0.316096 0)
(-0.12964 0.280007 0)
(-0.126556 0.244355 0)
(-0.12173 0.209363 0)
(-0.115357 0.175182 0)
(-0.107666 0.141872 0)
(-0.0988983 0.109396 0)
(-0.0892949 0.0776035 0)
(-0.0790761 0.0462348 0)
(-0.0684497 0.0149314 0)
(-0.0575897 -0.0167294 0)
(-0.046699 -0.0491865 0)
(-0.0363393 -0.083068 0)
(-0.0148513 0.620486 0)
(-0.0310544 0.613169 0)
(-0.0474834 0.590253 0)
(-0.0611954 0.563197 0)
(-0.0721017 0.532905 0)
(-0.0801832 0.49989 0)
(-0.0856018 0.464732 0)
(-0.0885352 0.428031 0)
(-0.0891659 0.390345 0)
(-0.0876727 0.352168 0)
(-0.0842253 0.313924 0)
(-0.0789934 0.275978 0)
(-0.0721659 0.238648 0)
(-0.0639705 0.202195 0)
(-0.0546803 0.166805 0)
(-0.0446049 0.132565 0)
(-0.0340711 0.0994417 0)
(-0.0233954 0.067269 0)
(-0.012862 0.0357579 0)
(-0.00271965 0.0045221 0)
(0.00686149 -0.0268657 0)
(0.015638 -0.0588221 0)
(0.0231065 -0.0918367 0)
(-0.012152 0.63926 0)
(-0.0240171 0.62928 0)
(-0.0357127 0.603273 0)
(-0.0443751 0.573174 0)
(-0.0500612 0.539951 0)
(-0.0528308 0.504158 0)
(-0.0529042 0.466411 0)
(-0.0505326 0.427332 0)
(-0.0459833 0.387487 0)
(-0.0395184 0.347362 0)
(-0.0313802 0.307372 0)
(-0.021799 0.267891 0)
(-0.0110191 0.229265 0)
(0.000676834 0.191801 0)
(0.0129515 0.155731 0)
(0.0254146 0.121172 0)
(0.0376565 0.0880928 0)
(0.0492842 0.0563021 0)
(0.059951 0.025463 0)
(0.0693712 -0.00486704 0)
(0.0773808 -0.0351579 0)
(0.0837186 -0.0658244 0)
(0.0879382 -0.0972241 0)
(-0.0090251 0.653103 0)
(-0.0159212 0.640305 0)
(-0.0223038 0.610976 0)
(-0.0252608 0.577653 0)
(-0.0250473 0.541371 0)
(-0.0218131 0.502733 0)
(-0.015848 0.462408 0)
(-0.00750366 0.421058 0)
(0.00283237 0.37926 0)
(0.0147797 0.337482 0)
(0.0280003 0.296113 0)
(0.0422017 0.25552 0)
(0.0570986 0.216071 0)
(0.0723641 0.178125 0)
(0.0876027 0.141973 0)
(0.102358 0.107768 0)
(0.116146 0.0754833 0)
(0.128497 0.0448917 0)
(0.139003 0.0155896 0)
(0.147353 -0.0129506 0)
(0.153386 -0.0412794 0)
(0.156843 -0.0698346 0)
(0.157345 -0.098858 0)
(-0.00528735 0.661175 0)
(-0.0066005 0.645658 0)
(-0.00720445 0.612713 0)
(-0.00380285 0.575955 0)
(0.00301455 0.536462 0)
(0.0130089 0.494894 0)
(0.0258119 0.452006 0)
(0.0409279 0.408535 0)
(0.0577707 0.365082 0)
(0.0757691 0.322075 0)
(0.0944585 0.279835 0)
(0.113491 0.238678 0)
(0.132572 0.198987 0)
(0.151364 0.161179 0)
(0.169442 0.125621 0)
(0.186286 0.0925205 0)
(0.201339 0.0618545 0)
(0.214061 0.0333519 0)
(0.223984 0.00652429 0)
(0.230778 -0.0192736 0)
(0.234287 -0.0447171 0)
(0.234275 -0.070309 0)
(0.230466 -0.0961933 0)
(-0.000432606 0.662898 0)
(0.00428384 0.644758 0)
(0.00963282 0.607834 0)
(0.0200396 0.567393 0)
(0.0342033 0.52447 0)
(0.0518232 0.479812 0)
(0.0724423 0.434331 0)
(0.095338 0.388924 0)
(0.119594 0.344245 0)
(0.144329 0.300632 0)
(0.168893 0.25824 0)
(0.192907 0.217258 0)
(0.216125 0.178048 0)
(0.238259 0.141109 0)
(0.258879 0.106916 0)
(0.277419 0.0757592 0)
(0.293251 0.0476195 0)
(0.305781 0.0221665 0)
(0.314497 -0.00118678 0)
(0.319055 -0.0232258 0)
(0.319314 -0.0448106 0)
(0.315097 -0.0665703 0)
(0.306259 -0.0885736 0)
(0.00539044 0.655221 0)
(0.0168592 0.638571 0)
(0.0284241 0.595988 0)
(0.0463522 0.551296 0)
(0.0686404 0.50454 0)
(0.0949288 0.456457 0)
(0.124639 0.408243 0)
(0.15667 0.361123 0)
(0.189532 0.315857 0)
(0.221822 0.272577 0)
(0.252633 0.231083 0)
(0.281616 0.191275 0)
(0.308701 0.153457 0)
(0.333742 0.118255 0)
(0.356353 0.0863128 0)
(0.375918 0.058048 0)
(0.391745 0.0334392 0)
(0.40322 0.0120599 0)
(0.409839 -0.00677427 0)
(0.411238 -0.0239996 0)
(0.407314 -0.0407328 0)
(0.39801 -0.0578153 0)
(0.383351 -0.075256 0)
(0.0121372 0.637325 0)
(0.0311946 0.626135 0)
(0.0494439 0.576799 0)
(0.0753312 0.526999 0)
(0.106571 0.475687 0)
(0.142779 0.423529 0)
(0.183234 0.372232 0)
(0.22621 0.323674 0)
(0.269205 0.278809 0)
(0.309948 0.237315 0)
(0.347186 0.198271 0)
(0.380762 0.161003 0)
(0.411033 0.125707 0)
(0.438155 0.0932537 0)
(0.461839 0.0645664 0)
(0.481406 0.0402772 0)
(0.496062 0.0203265 0)
(0.505241 0.00409119 0)
(0.508549 -0.0091832 0)
(0.505604 -0.0205589 0)
(0.496365 -0.0314969 0)
(0.48099 -0.0431742 0)
(0.459783 -0.0555172 0)
(0.0200126 0.608055 0)
(0.0476054 0.606428 0)
(0.0731065 0.549902 0)
(0.107321 0.493867 0)
(0.148327 0.436815 0)
(0.195873 0.379415 0)
(0.249139 0.324305 0)
(0.305384 0.274676 0)
(0.360334 0.231816 0)
(0.41027 0.194413 0)
(0.45353 0.160138 0)
(0.49052 0.127232 0)
(0.52251 0.0957824 0)
(0.550227 0.0672037 0)
(0.573578 0.0428365 0)
(0.591774 0.0237116 0)
(0.60376 0.00966618 0)
(0.609073 -0.000352309 0)
(0.607588 -0.00707605 0)
(0.598937 -0.0116639 0)
(0.583135 -0.0160228 0)
(0.560735 -0.0218324 0)
(0.532567 -0.02885 0)
(0.0292164 0.565954 0)
(0.0665629 0.57834 0)
(0.100072 0.514964 0)
(0.142864 0.451337 0)
(0.194244 0.386788 0)
(0.254459 0.322219 0)
(0.322876 0.261947 0)
(0.395166 0.211815 0)
(0.463895 0.173705 0)
(0.522985 0.144104 0)
(0.570396 0.118069 0)
(0.607899 0.091845 0)
(0.638643 0.065524 0)
(0.664301 0.0418176 0)
(0.685213 0.022669 0)
(0.700559 0.00989664 0)
(0.708556 0.00309045 0)
(0.708666 0.000222765 0)
(0.701097 0.000848683 0)
(0.685484 0.00405621 0)
(0.662012 0.00686256 0)
(0.631959 0.00678899 0)
(0.597084 0.00471771 0)
(0.039929 0.509237 0)
(0.0884264 0.540391 0)
(0.131142 0.471672 0)
(0.182613 0.399105 0)
(0.244298 0.324828 0)
(0.317711 0.25025 0)
(0.403374 0.182458 0)
(0.494618 0.132821 0)
(0.578223 0.104269 0)
(0.644259 0.0884327 0)
(0.69067 0.0758161 0)
(0.722233 0.0590009 0)
(0.745912 0.0384171 0)
(0.764758 0.0199825 0)
(0.780072 0.00608622 0)
(0.791959 0.000784779 0)
(0.796542 0.0024926 0)
(0.792215 0.00736283 0)
(0.778889 0.0159865 0)
(0.755758 0.0275359 0)
(0.723864 0.0377255 0)
(0.686353 0.0423072 0)
(0.64656 0.04362 0)
(0.0514644 0.436569 0)
(0.112546 0.490057 0)
(0.166704 0.419561 0)
(0.226888 0.337551 0)
(0.297217 0.251752 0)
(0.381709 0.163804 0)
(0.485046 0.0844915 0)
(0.59747 0.0367667 0)
(0.694689 0.0257124 0)
(0.76037 0.0325088 0)
(0.793889 0.0413836 0)
(0.806615 0.037226 0)
(0.812666 0.0210303 0)
(0.81588 0.00695378 0)
(0.820944 -0.00174564 0)
(0.832678 -0.00179075 0)
(0.840764 0.00768564 0)
(0.837516 0.0182042 0)
(0.822963 0.0353449 0)
(0.794694 0.0576715 0)
(0.755065 0.0749242 0)
(0.712441 0.0816143 0)
(0.672281 0.083128 0)
(0.0605932 0.348715 0)
(0.135777 0.422177 0)
(0.205749 0.357426 0)
(0.274961 0.268588 0)
(0.348732 0.172951 0)
(0.434577 0.0664919 0)
(0.550617 -0.0353955 0)
(0.682013 -0.0775772 0)
(0.7838 -0.0569207 0)
(0.830733 -0.0161884 0)
(0.830015 0.0238901 0)
(0.805079 0.0393292 0)
(0.780256 0.0368447 0)
(0.750743 0.0268288 0)
(0.737861 -0.013434 0)
(0.779194 -0.0319503 0)
(0.812672 -0.00944915 0)
(0.820416 0.0165355 0)
(0.809895 0.0544042 0)
(0.778813 0.0935231 0)
(0.737872 0.11602 0)
(0.699526 0.11913 0)
(0.669855 0.113568 0)
(0.0723647 0.253506 0)
(0.1596 0.336178 0)
(0.247404 0.285839 0)
(0.32294 0.197698 0)
(0.38255 0.0952987 0)
(0.446634 -0.0432834 0)
(0.557923 -0.186032 0)
(0.68952 -0.211963 0)
(0.76269 -0.117157 0)
(0.759433 -0.00752262 0)
(0.697768 0.089458 0)
(0.64619 0.0833145 0)
(0.636561 0.0339329 0)
(0.62915 0.0199444 0)
(0.633085 -0.025387 0)
(0.678601 -0.0569803 0)
(0.730164 -0.0232266 0)
(0.743048 0.0210541 0)
(0.716718 0.105991 0)
(0.686723 0.189674 0)
(0.662453 0.219221 0)
(0.647426 0.217374 0)
(0.640076 0.189121 0)
(0.0967482 0.125179 0)
(0.203646 0.232577 0)
(0.28242 0.199779 0)
(0.334458 0.124009 0)
(0.366469 0.041014 0)
(0.410263 -0.110534 0)
(0.4852 -0.294216 0)
(0.568743 -0.287526 0)
(0.584038 -0.0783995 0)
(0.530112 0.0523635 0)
(0.523971 0.13926 0)
(0.506474 0.155156 0)
(0.475507 0.112476 0)
(0.424005 0.0500916 0)
(0.475542 -0.10052 0)
(0.548269 -0.159342 0)
(0.605631 -0.0348887 0)
(0.554371 0.0719228 0)
(0.515134 0.103725 0)
(0.52894 0.120942 0)
(0.56407 0.114862 0)
(0.606961 0.104193 0)
(0.647425 0.0863486 0)
(0.0544945 -0.0618759 0)
(0.173109 0.115432 0)
(0.237102 0.139128 0)
(0.287048 0.109697 0)
(0.320166 0.0295516 0)
(0.340169 -0.13991 0)
(0.301442 -0.354006 0)
(0.363031 -0.302278 0)
(0.360453 -0.0121245 0)
(0.296466 0.0576865 0)
(0.308418 0.0765377 0)
(0.346471 0.0808546 0)
(0.38052 0.0676764 0)
(0.370189 0.0427144 0)
(0.381914 -0.150747 0)
(0.448463 -0.206498 0)