/*--------------------------------*- C++ -*----------------------------------*\
  =========                 |
  \\      /  F ield         | OpenFOAM: The Open Source CFD Toolbox
   \\    /   O peration     | Website:  https://openfoam.org
    \\  /    A nd           | Version:  9
     \\/     M anipulation  |
\*---------------------------------------------------------------------------*/
FoamFile
{
    format      ascii;
    class       volScalarField;
    location    "280";
    object      p;
}
// * * * * * * * * * * * * * * * * * * * * * * * * * * * * * * * * * * * * * //

dimensions      [0 2 -2 0 0 0 0];

internalField   nonuniform List<scalar> 
10720
(
-147.678
-160.197
-173.663
-182.885
-186.754
-189.111
-188.166
-183.282
-175.526
-164.755
-151.855
-137.722
-123.145
-109.179
-97.1725
-88.4851
-83.5508
-80.8583
-78.9777
-77.6573
-76.8603
-76.5711
-76.7999
-77.498
-78.484
-79.4445
-80.0867
-80.2347
-79.7337
-78.2983
-75.4966
-71.012
-64.283
-54.9256
-44.5035
-33.0089
-31.3231
-23.5741
-28.6375
-131.64
-116.295
-95.1702
-71.896
-47.5336
-22.9803
0.385035
20.6379
36.6915
48.7378
57.1729
62.5831
65.5523
66.7288
66.8469
66.1732
64.8669
63.1135
61.0188
58.6262
55.9673
53.0395
49.8515
46.4332
42.959
39.578
36.2459
32.9612
29.7423
26.5998
23.5156
20.4709
17.4104
14.2429
10.8553
6.94728
2.30108
-4.51157
-15.9955
-84.4266
-96.1281
-107.496
-117.412
-125.811
-132.506
-136.396
-137.639
-136.734
-133.712
-128.727
-121.939
-113.611
-104.376
-95.3555
-87.9528
-83.0954
-80.0991
-78.2871
-77.1508
-76.4356
-76.1834
-76.4467
-77.1882
-78.2021
-79.1721
-79.8228
-79.9847
-79.5105
-78.1113
-75.3458
-70.8955
-64.2166
-54.9064
-44.5649
-33.0574
-31.3564
-23.6179
-29.7013
-72.8996
-61.1868
-48.2623
-33.648
-18.0318
-1.88638
13.9634
28.3811
40.5432
50.1746
57.2997
62.13
64.9705
66.2483
66.4479
65.8503
64.6505
62.9956
60.9812
58.6577
56.0584
53.1908
50.0686
46.7268
43.3083
39.9437
36.6136
33.3212
30.0875
26.924
23.815
20.7433
17.6562
14.4639
11.0557
7.13532
2.49066
-4.31247
-15.2678
-73.899
-84.4012
-94.5819
-104.357
-112.599
-118.967
-123.404
-125.778
-126.062
-124.289
-120.525
-115.017
-108.168
-100.579
-93.0967
-86.7128
-82.1145
-79.1255
-77.6057
-76.7036
-76.118
-75.88
-76.1675
-76.9623
-78.0137
-78.9982
-79.6581
-79.8286
-79.3732
-78.0128
-75.2909
-70.8649
-64.2126
-54.9094
-44.6507
-33.1257
-31.4318
-23.6855
-30.6639
-63.2777
-51.4977
-38.2946
-24.0646
-9.47312
5.12304
19.0559
31.5475
42.1163
50.5929
56.9894
61.4374
64.1624
65.5025
65.8215
65.3571
64.2851
62.7371
60.8081
58.5555
56.0161
53.2059
50.1418
46.8599
43.4792
40.1235
36.7981
33.5071
30.2711
27.101
23.9833
20.9012
17.8037
14.6022
11.1884
7.2687
2.63741
-4.11898
-14.5513
-52.7175
-61.8879
-71.1734
-80.0195
-88.0132
-94.9832
-100.7
-104.911
-107.42
-108.124
-106.995
-104.185
-100.007
-94.9214
-89.5476
-84.6241
-80.7696
-78.186
-76.9896
-76.3971
-75.9025
-75.6462
-75.9554
-76.8076
-77.8927
-78.8845
-79.5474
-79.7191
-79.2705
-77.9448
-75.2804
-70.8907
-64.2652
-54.9457
-44.7498
-33.1993
-31.5212
-23.7718
-31.5089
-43.7691
-34.336
-23.897
-12.3579
-0.406251
11.7078
23.4262
34.0579
43.184
50.6516
56.4249
60.5535
63.1839
64.581
65.025
64.7045
63.7733
62.3517
60.5311
58.3713
55.9123
53.1765
50.1841
46.9721
43.6438
40.3148
37.0059
33.7233
30.488
27.3121
24.1848
21.0898
17.9788
14.7647
11.3419
7.42055
2.80449
-3.89664
-13.8405
-42.4061
-50.8524
-59.4551
-67.8816
-75.6532
-82.6962
-88.6999
-93.345
-96.4836
-98.04
-98.0196
-96.5448
-93.8492
-90.2815
-86.3144
-82.5086
-79.3726
-77.1999
-76.1475
-75.7721
-75.5792
-75.482
-75.8148
-76.6921
-77.8093
-78.8069
-79.467
-79.636
-79.1888
-77.8925
-75.2914
-70.9514
-64.3581
-55.0078
-44.8544
-33.2726
-31.6051
-23.8698
-32.255
-34.0939
-25.3611
-15.7611
-5.34299
5.27692
15.9613
26.2762
35.6411
43.721
50.412
55.6743
59.5211
62.0614
63.51
64.0766
63.9061
63.1282
61.8494
60.1547
58.1043
55.7405
53.0907
50.1787
47.0428
43.774
40.4793
37.1914
33.9213
30.6906
27.5124
24.3787
21.2738
18.152
14.9278
11.4989
7.57935
2.98456
-3.65059
-13.1143
-32.8494
-40.4787
-48.384
-56.1576
-63.456
-70.2593
-76.2455
-81.2076
-85.0315
-87.5968
-88.8447
-88.8069
-87.6181
-85.5214
-82.8817
-80.1494
-77.7689
-76.0492
-75.1349
-74.8394
-74.9301
-75.2313
-75.7562
-76.6242
-77.7409
-78.7514
-79.4108
-79.5765
-79.1291
-77.8568
-75.3197
-71.0381
-64.4854
-55.0982
-44.9576
-33.3398
-31.6737
-23.9739
-32.8972
-25.395
-17.6582
-9.14572
0.130716
9.56012
19.0581
28.2506
36.6148
43.8645
49.9289
54.7642
58.361
60.8185
62.3122
62.9929
62.9709
62.3521
61.2274
59.6731
57.7476
55.4943
52.9437
50.1228
47.071
43.8703
40.6193
37.3603
34.109
30.888
27.7117
24.5745
21.462
18.331
15.0982
11.6644
7.74873
3.17965
-3.37875
-12.3727
-26.047
-33.0943
-40.4501
-47.7461
-54.6481
-61.211
-67.1386
-72.2199
-76.357
-79.4233
-81.3581
-82.1862
-82.003
-80.9859
-79.4059
-77.6066
-75.9486
-74.7118
-74.0326
-73.8435
-74.0857
-74.7271
-75.6264
-76.6164
-77.6964
-78.7042
-79.3719
-79.5379
-79.091
-77.8394
-75.3643
-71.1495
-64.6435
-55.2144
-45.0605
-33.394
-31.7193
-24.0773
-33.3998
-19.1738
-12.0974
-4.32652
4.11183
12.6443
21.2298
29.5479
37.1216
43.707
49.2586
53.7287
57.101
59.4816
61.0111
61.7935
61.9128
61.4529
60.4884
59.0856
57.298
55.1686
52.7298
50.0108
47.0513
43.9269
40.7295
37.5074
34.2816
31.0759
27.9057
24.7686
21.6512
18.5132
15.2739
11.8374
7.9287
3.39021
-3.07898
-11.6146
-20.5612
-27.0723
-33.9211
-40.7387
-47.2306
-53.4917
-59.2426
-64.2973
-68.594
-72.0238
-74.5111
-76.0585
-76.7194
-76.6129
-75.9368
-74.9552
-73.9611
-73.2054
-72.8299
-72.8276
-73.1893
-73.9968
-75.231
-76.5373
-77.6832
-78.6625
-79.3329
-79.509
-79.0679
-77.8362
-75.4212
-71.2778
-64.8275
-55.3577
-45.1583
-33.4268
-31.73
-24.1737
-33.7516
-14.2234
-7.73891
-0.614492
7.11862
14.9132
22.7543
30.3587
37.287
43.327
48.4467
52.596
55.7685
58.077
59.6299
60.499
60.7482
60.4416
59.6385
58.3934
56.7538
54.76
52.4447
49.8379
46.9794
43.9402
40.8061
37.6295
34.4364
31.2517
28.0926
24.9595
21.8403
18.698
15.4545
12.0176
8.11901
3.61624
-2.7514
-10.8424
-16.2466
-22.3082
-28.7203
-35.1282
-41.2523
-47.2215
-52.7761
-57.7516
-62.1011
-65.7311
-68.5691
-70.611
-71.8885
-72.4835
-72.5379
-72.2489
-71.8462
-71.5469
-71.4963
-71.7301
-72.2501
-73.1476
-74.5501
-76.2036
-77.6074
-78.6331
-79.2891
-79.4747
-79.0504
-77.8435
-75.4875
-71.4208
-65.0315
-55.5209
-45.2541
-33.4334
-31.6937
-24.2498
-33.9407
-10.3529
-4.35484
2.23597
9.38509
16.5686
23.7935
30.8055
37.1983
42.7805
47.5279
51.3922
54.3886
56.6283
58.1912
59.1304
59.4946
59.3315
58.6858
57.6008
56.1157
54.2667
52.0851
49.6003
46.8518
43.9064
40.8452
37.723
34.5701
31.413
28.2704
25.1457
22.0285
18.8849
15.6399
12.2054
8.32077
3.85889
-2.39402
-10.0543
-12.7661
-18.4337
-24.4563
-30.4904
-36.2758
-41.9575
-47.2961
-52.1459
-56.4765
-60.2098
-63.2854
-65.6898
-67.4376
-68.5852
-69.2324
-69.5249
-69.642
-69.7646
-70.0328
-70.5122
-71.2233
-72.2271
-73.6834
-75.5447
-77.2992
-78.5438
-79.24
-79.4228
-79.0206
-77.8488
-75.5545
-71.5683
-65.2474
-55.7013
-45.3387
-33.4071
-31.5967
-24.2921
-33.9936
-7.26037
-1.68351
4.45022
11.1008
17.7666
24.4693
30.9801
36.9189
42.1092
46.529
50.1418
52.9823
55.1529
56.7136
57.7067
58.1694
58.1369
57.6412
56.7142
55.3866
53.6887
51.6489
49.295
46.6648
43.8219
40.8431
37.7844
34.6795
31.5567
28.4366
25.3252
22.214
19.0724
15.8289
12.3998
8.53318
4.11762
-2.00789
-9.25271
-9.94589
-15.2687
-20.9463
-26.6473
-32.1222
-37.5352
-42.6582
-47.3637
-51.6337
-55.399
-58.6157
-61.2681
-63.3597
-64.9286
-66.0464
-66.8194
-67.3846
-67.8889
-68.4594
-69.1764
-70.0821
-71.2228
-72.7172
-74.6342
-76.6552
-78.2515
-79.1376
-79.3521
-78.9657
-77.8376
-75.6118
-71.7132
-65.465
-55.8861
-45.412
-33.3432
-31.4266
-24.2816
-33.9159
-4.77926
0.435527
6.17317
12.3939
18.6146
24.8678
30.9477
36.4959
41.3439
45.4716
48.8634
51.5655
53.6655
55.213
56.2442
56.789
56.8726
56.5163
55.7419
54.5712
53.028
51.1361
48.9204
46.4161
43.6838
40.7965
37.8103
34.7615
31.6804
28.5891
25.4962
22.3956
19.2599
16.0216
12.6013
8.75744
4.39354
-1.59139
-8.43625
-7.64177
-12.6576
-18.0259
-23.4256
-28.6187
-33.7775
-38.6896
-43.2393
-47.4218
-51.1713
-54.4612
-57.2784
-59.6187
-61.508
-62.9957
-64.1597
-65.1041
-65.9469
-66.7973
-67.7385
-68.8259
-70.1086
-71.6637
-73.571
-75.6977
-77.6246
-78.8581
-79.2261
-78.8757
-77.7894
-75.6388
-71.8351
-65.6696
-56.0677
-45.4557
-33.2321
-31.171
-24.2027
-33.7279
-2.77333
2.1221
7.51454
13.3581
19.191
25.0532
30.7572
35.9642
40.5075
44.3751
47.5736
50.1495
52.1769
53.7019
54.7577
55.3685
55.5528
55.3235
54.6933
53.6759
52.2879
50.5476
48.4757
46.1039
43.4897
40.7026
37.7976
34.8131
31.7811
28.7251
25.6566
22.5715
19.4458
16.2165
12.8087
8.99234
4.68587
-1.1465
-7.60769
-5.74717
-10.4901
-15.5794
-20.7067
-25.6411
-30.5645
-35.2734
-39.6637
-43.7418
-47.4447
-50.7582
-53.6761
-56.1889
-58.3148
-60.0883
-61.5656
-62.8254
-63.9608
-65.0636
-66.2125
-67.4671
-68.88
-70.5085
-72.4079
-74.5296
-76.6421
-78.2634
-78.9489
-78.7234
-77.6912
-75.6149
-71.9109
-65.8369
-56.2238
-45.4639
-33.0646
-30.8179
-24.0368
-33.4074
-1.14698
3.46782
8.55309
14.0641
19.5544
25.0722
30.4455
35.349
39.6186
43.2557
46.2835
48.7413
50.6954
52.191
53.2591
53.9213
54.191
54.0749
53.5786
52.7082
51.4732
49.8858
47.9614
45.7276
43.2381
40.5589
37.7436
34.8316
31.8563
28.8426
25.8045
22.7402
19.6294
16.4134
13.0226
9.23907
4.99551
-0.671973
-6.76591
-4.18339
-8.68046
-13.5165
-18.395
-23.0932
-27.7962
-32.3123
-36.5441
-40.5078
-44.1438
-47.4456
-50.4153
-53.0418
-55.3376
-57.3275
-59.0512
-60.568
-61.9508
-63.275
-64.611
-66.0172
-67.5446
-69.2422
-71.1467
-73.2301
-75.3815
-77.2829
-78.3828
-78.4304
-77.5108
-75.5161
-71.9079
-65.9361
-56.3354
-45.4079
-32.8244
-30.3552
-23.7724
-32.9537
0.176592
4.53927
9.35184
14.5644
19.7499
24.9612
30.0391
34.6701
38.6925
42.1259
45.0007
47.3473
49.2281
50.6885
51.7586
52.4586
52.799
52.7822
52.4082
51.6764
50.5897
49.154
47.379
45.2872
42.9278
40.3635
37.6458
34.8143
31.9031
28.9389
25.9376
22.9
19.8089
16.6109
13.2412
9.49606
5.32142
-0.170622
-5.91323
-2.88812
-7.16217
-11.7671
-16.4182
-20.8986
-25.3976
-29.7299
-33.8072
-37.6512
-41.2073
-44.4719
-47.4565
-50.1505
-52.5635
-54.7119
-56.6247
-58.3463
-59.9335
-61.4469
-62.9472
-64.4876
-66.1152
-67.8719
-69.7848
-71.8316
-73.9456
-75.9608
-77.4257
-77.8744
-77.1845
-75.3066
-71.7953
-65.9229
-56.3598
-45.2712
-32.4958
-29.7703
-23.3943
-32.3376
1.25438
5.39057
9.95618
14.9007
19.812
24.7474
29.5599
33.9423
37.7418
40.9938
43.7294
45.9708
47.7793
49.2004
50.2639
50.9902
51.3878
51.4565
51.1923
50.5893
49.6442
48.357
46.7314
44.7838
42.5588
40.1154
37.5024
34.7588
31.9195
29.0119
26.054
23.0491
19.9834
16.8085
13.4653
9.76446
5.66432
0.358135
-5.0491
-1.81299
-5.88284
-10.2763
-14.718
-18.9984
-23.3056
-27.4644
-31.3921
-35.1145
-38.5824
-41.7921
-44.7637
-47.4892
-49.9767
-52.2373
-54.291
-56.1715
-57.9231
-59.5934
-61.2331
-62.8889
-64.6022
-66.407
-68.3242
-70.3368
-72.3924
-74.3992
-76.0725
-76.9319
-76.6014
-74.9229
-71.5279
-65.7506
-56.2614
-45.0084
-32.0562
-29.053
-22.8933
-31.5676
2.13149
6.06203
10.4043
15.1045
19.7674
24.4538
29.0244
33.1787
36.7767
39.8661
42.4737
44.6154
46.3526
47.7312
48.7814
49.5237
49.9664
50.1075
49.9406
49.4554
48.6438
47.5
46.0216
44.219
42.1314
39.8138
37.3117
34.6632
31.903
29.0592
26.1516
23.1857
20.151
17.0047
13.6929
10.0423
6.02296
0.910909
-4.17576
-0.919134
-4.80227
-9.00076
-13.2489
-17.3434
-21.4718
-25.4664
-29.2496
-32.8508
-36.2252
-39.3676
-42.3053
-45.0346
-47.5625
-49.8971
-52.0514
-54.0511
-55.9307
-57.7272
-59.4814
-61.2325
-63.016
-64.8585
-66.7741
-68.7501
-70.7437
-72.6868
-74.4104
-75.5563
-75.6362
-74.2639
-71.0367
-65.3495
-55.9726
-44.5851
-31.4879
-28.1924
-22.2549
-30.6218
2.84348
6.58673
10.724
15.2012
19.6378
24.0961
28.4454
32.3905
35.8058
38.7474
41.2356
43.2827
44.9504
46.2846
47.3159
48.0658
48.5427
48.7441
48.662
48.2834
47.596
46.5889
45.2541
43.5956
41.647
39.4587
37.0731
34.5261
31.8519
29.079
26.2285
23.3082
20.3108
17.199
13.9246
10.3307
6.39765
1.48748
-3.2932
-0.176102
-3.88692
-7.90439
-11.9734
-15.8949
-19.8557
-23.695
-27.3393
-30.8207
-34.0977
-37.1652
-40.0547
-42.7658
-45.3072
-47.6843
-49.9054
-51.99
-53.9647
-55.8584
-57.7028
-59.5294
-61.3671
-63.2356
-65.1432
-67.0783
-69.0065
-70.8678
-72.5442
-73.8024
-74.2103
-73.2122
-70.2333
-64.6659
-55.4292
-43.9477
-30.7695
-27.1836
-21.4743
-29.5083
3.41899
6.98975
10.9388
15.2102
19.4389
23.6888
27.8332
31.5856
34.8352
37.6407
40.017
41.9747
43.5748
44.8634
45.8716
46.6219
47.1235
47.3742
47.365
47.0814
46.5081
45.6298
44.4333
42.9165
41.107
39.0505
36.7856
34.3458
31.7641
29.0691
26.2826
23.4146
20.4609
17.3896
14.1583
10.6273
6.78692
2.08401
-2.404
0.441304
-3.10989
-6.95922
-10.8608
-14.6209
-18.4243
-22.1162
-25.6271
-28.9914
-32.1692
-35.1577
-37.9881
-40.6644
-43.1972
-45.5914
-47.8511
-49.9909
-52.0321
-53.9964
-55.9078
-57.7902
-59.666
-61.5487
-63.441
-65.3307
-67.1893
-68.9617
-70.5476
-71.7818
-72.3475
-71.6781
-69.0142
-63.633
-54.5501
-43.0555
-29.8882
-26.024
-20.5481
-28.2069
3.881
7.29244
11.0667
15.1483
19.1847
23.2414
27.196
30.7713
33.8696
36.5489
38.8196
40.6922
42.2268
43.4693
44.4513
45.1963
45.7145
46.0044
46.0571
45.8574
45.3876
44.6293
43.5647
42.1858
40.5142
38.5907
36.4497
34.1219
31.6385
29.0278
26.3122
23.5033
20.5999
17.5757
14.3941
10.9328
7.19048
2.69932
-1.50921
0.953181
-2.44922
-6.1416
-9.88662
-13.4955
-17.1503
-20.7023
-24.0854
-27.3354
-30.4138
-33.3203
-36.0837
-38.7121
-41.2192
-43.6099
-45.8851
-48.0554
-50.1378
-52.1485
-54.1051
-56.0248
-57.923
-59.8077
-61.6765
-63.516
-65.3008
-66.9794
-68.4581
-69.5952
-70.1561
-69.6688
-67.3109
-62.1954
-53.3144
-41.8746
-28.838
-24.722
-19.4959
-26.7375
4.24807
7.5113
11.1236
15.028
18.8862
22.7641
26.541
29.9526
32.9123
35.4741
37.6452
39.4365
40.9074
42.1039
43.0575
43.7926
44.3205
44.6407
44.7452
44.6186
44.2418
43.594
42.6536
41.4075
39.8713
38.0804
36.0653
33.8534
31.4736
28.9534
26.3153
23.5723
20.726
17.7553
14.6297
11.2444
7.60655
3.3293
-0.611351
1.37617
-1.88702
-5.43192
-9.02989
-12.4965
-16.011
-19.43
-22.6906
-25.8292
-28.8089
-31.6316
-34.3224
-36.8937
-39.3617
-41.7321
-44.0037
-46.1836
-48.2852
-50.3209
-52.3029
-54.2421
-56.1478
-58.0224
-59.8593
-61.6438
-63.3511
-64.9322
-66.2964
-67.3065
-67.7616
-67.2858
-65.1276
-60.3145
-51.7202
-40.4184
-27.633
-23.292
-18.3359
-25.1133
4.53573
7.6607
11.1211
14.8609
18.5532
22.2638
25.875
29.135
31.9664
34.4175
36.4943
38.2082
39.6178
40.7684
41.6918
42.4132
42.9451
43.288
43.4351
43.3714
43.0774
42.5305
41.7063
40.5869
39.1822
37.5226
35.6343
33.5411
31.2693
28.8451
26.2906
23.6202
20.8378
17.9276
14.865
11.5623
8.03408
3.97178
0.287405
1.72418
-1.40809
-4.8143
-8.27351
-11.6059
-14.9874
-18.2798
-21.4226
-24.4525
-27.3349
-30.0723
-32.6873
-35.1945
-37.6131
-39.95
-42.2022
-44.3743
-46.4767
-48.5187
-50.5081
-52.4505
-54.3496
-56.2028
-57.9992
-59.7231
-61.3499
-62.8308
-64.0774
-64.9519
-65.2594
-64.6793
-62.5746
-58.0262
-49.808
-38.7548
-26.3129
-21.7665
-17.0963
-23.3972
4.75662
7.75182
11.0704
14.6554
18.1928
21.7477
25.2028
28.321
31.0322
33.3798
35.3675
37.0075
38.3579
39.4632
40.3555
41.0605
41.5915
41.9507
42.1323
42.1222
41.901
41.4453
40.7284
39.7286
38.4507
36.9198
35.1579
33.185
31.0249
28.7015
26.2366
23.6452
20.9335
18.0905
15.0975
11.8837
8.47107
4.62273
1.18423
2.00898
-1.00018
-4.27512
-7.60305
-10.8087
-14.0635
-17.235
-20.2648
-23.1893
-25.9754
-28.6266
-31.1639
-33.6024
-35.9636
-38.256
-40.4763
-42.6262
-44.7137
-46.7458
-48.7269
-50.6576
-52.5369
-54.358
-56.1063
-57.7642
-59.3074
-60.6867
-61.8147
-62.5536
-62.7062
-61.9729
-59.8093
-55.4326
-47.6314
-36.9623
-24.9381
-20.1872
-15.7933
-21.6445
4.92126
7.795
10.9797
14.4199
17.812
21.2195
24.5284
27.5137
30.1118
32.3618
34.2651
35.8348
37.1282
38.1894
39.0497
39.736
40.2623
40.6321
40.841
40.8761
40.7184
40.3443
39.7259
38.8384
37.6816
36.2758
34.6388
32.7871
30.741
28.5227
26.1527
23.6464
21.012
18.2431
15.3267
12.2081
8.91562
5.27935
2.07597
2.24008
-0.65253
-3.80314
-7.00648
-10.0916
-13.2259
-16.2818
-19.2026
-22.0249
-24.7167
-27.2817
-29.7408
-32.1074
-34.4045
-36.6437
-38.8215
-40.9374
-42.9968
-45.005
-46.9638
-48.8699
-50.7179
-52.4971
-54.1898
-55.7768
-57.2339
-58.5114
-59.5222
-60.1296
-60.1357
-59.2488
-56.9824
-52.6969
-45.2985
-35.1133
-23.5828
-18.6139
-14.4656
-19.9194
5.03892
7.79777
10.8569
14.1601
17.4155
20.6843
23.8545
26.7148
29.2066
31.3641
33.1876
34.6903
35.9287
36.9465
37.7749
38.4409
38.9595
39.3352
39.5652
39.6378
39.535
39.2335
38.7047
37.9214
36.8791
35.5938
34.0793
32.3484
30.4181
28.308
26.0376
23.6223
21.0715
18.3833
15.5503
12.5327
9.36557
5.93768
2.9595
2.42568
-0.356269
-3.38873
-6.47343
-9.44366
-12.463
-15.4079
-18.2238
-20.947
-23.5464
-26.0258
-28.4065
-30.6992
-32.9279
-35.1072
-37.234
-39.3061
-41.3265
-43.2992
-45.2236
-47.0938
-48.9001
-50.6287
-52.2591
-53.7713
-55.1405
-56.317
-57.2137
-57.6959
-57.5688
-56.5488
-54.1872
-49.9583
-42.9243
-33.2801
-22.3091
-17.1139
-13.161
-18.2501
5.11698
7.76763
10.7072
13.8814
17.0073
20.1433
23.1839
25.9273
28.3182
30.3875
32.135
33.5739
34.7597
35.7352
36.5315
37.1764
37.6847
38.0625
38.3081
38.4113
38.3556
38.1181
37.6701
36.9829
36.0484
34.8784
33.4831
31.8715
30.0577
28.0585
25.8916
23.5723
21.1113
18.5103
15.7671
12.8562
9.81819
6.59441
3.83083
2.5728
-0.103849
-3.02379
-5.99539
-8.85591
-11.7651
-14.6035
-17.3182
-19.945
-22.4541
-24.8489
-27.1513
-29.3685
-31.5259
-33.6402
-35.7095
-37.7299
-39.7028
-41.6301
-43.5101
-45.3344
-47.0904
-48.761
-50.3238
-51.7578
-53.0382
-54.1151
-54.9025
-55.2684
-55.0234
-53.8986
-51.4751
-47.3146
-40.6289
-31.5418
-21.1802
-15.7745
-11.9546
-16.683
5.16202
7.70972
10.5365
13.5875
16.5906
19.6014
22.5183
25.152
27.4471
29.4324
31.1075
32.4856
33.6208
34.5553
35.3204
35.9427
36.439
36.8156
37.0723
37.2004
37.1846
37.0029
36.6274
36.0282
35.1942
34.1336
32.8532
31.3587
29.661
27.7742
25.7142
23.4955
21.1298
18.6221
15.9751
13.1759
10.2712
7.24572
4.68668
2.68747
0.110975
-2.7013
-5.56474
-8.32027
-11.1238
-13.8597
-16.4767
-19.0101
-21.4306
-23.7422
-25.9664
-28.1075
-30.1916
-32.2374
-34.244
-36.2069
-38.125
-39.9992
-41.8267
-43.5969
-45.2951
-46.9016
-48.3922
-49.7457
-50.9377
-51.9181
-52.6024
-52.8624
-52.5166
-51.3137
-48.8674
-44.8055
-38.4771
-29.9536
-20.2333
-14.6685
-10.9149
-15.2833
5.17933
7.6294
10.3482
13.2827
16.1687
19.0593
21.8606
24.3907
26.5946
28.4996
30.1055
31.4252
32.5118
33.407
34.1408
34.7409
35.2236
35.5965
35.8603
36.008
36.0256
35.8925
35.5815
35.0624
34.3216
33.3641
32.1938
30.8134
29.2306
27.457
25.5062
23.3921
21.1267
18.7179
16.1729
13.49
10.7211
7.88816
5.52256
2.77463
0.293987
-2.41543
-5.17507
-7.83002
-10.5319
-13.1691
-15.6918
-18.1343
-20.4684
-22.6979
-24.8444
-26.9093
-28.9192
-30.8939
-32.834
-34.7345
-36.5926
-38.4076
-40.176
-41.8858
-43.5201
-45.0577
-46.4729
-47.7447
-48.8493
-49.7371
-50.3257
-50.492
-50.0635
-48.8089
-46.3772
-42.4497
-36.5015
-28.5524
-19.4869
-13.8488
-10.1141
-14.1325
5.17353
7.53036
10.1468
12.9693
15.7439
18.5215
21.2118
23.6436
25.7607
27.5888
29.1288
30.3929
31.4332
32.2899
32.9935
33.5708
34.039
34.4061
34.6739
34.8367
34.882
34.7909
34.537
34.0902
33.4352
32.5742
31.5086
30.2384
28.7685
27.1078
25.268
23.2615
21.1007
18.7961
16.3584
13.796
11.1657
8.51791
6.3353
2.83865
0.449698
-2.16105
-4.82098
-7.37935
-9.98353
-12.5254
-14.9568
-17.311
-19.5607
-21.7096
-23.7787
-25.7683
-27.7038
-29.6058
-31.4767
-33.3113
-35.1051
-36.8563
-38.5604
-40.2048
-41.7709
-43.2359
-44.5739
-45.7639
-46.7833
-47.5835
-48.0845
-48.1702
-47.6778
-46.3965
-44.0126
-40.2499
-34.6998
-27.3417
-18.9347
-13.3311
-9.60091
-13.297
5.1486
7.41657
9.93442
12.6507
15.3189
17.9875
20.5739
22.912
24.946
26.7008
28.1774
29.3884
30.3841
31.2042
31.8779
32.4327
32.8856
33.2452
33.5144
33.6884
33.7567
33.7015
33.4976
33.1159
32.5396
31.7685
30.8019
29.6376
28.2779
26.7292
25.0009
23.1045
21.052
18.8558
16.5301
14.0916
11.6008
9.13147
7.12029
2.88319
0.582155
-1.93374
-4.49789
-6.96325
-9.47306
-11.9229
-14.2657
-16.5341
-18.7015
-20.7714
-22.764
-24.6796
-26.5412
-28.3696
-30.1693
-31.9353
-33.6618
-35.3458
-36.9821
-38.5574
-40.0521
-41.4426
-42.7024
-43.8116
-44.749
-45.4674
-45.89
-45.908
-45.3703
-44.0863
-41.7799
-38.2098
-33.0679
-26.3106
-18.5633
-13.11
-9.41109
-12.8141
5.10794
7.29052
9.71469
12.3285
14.8953
17.4613
19.9472
22.1958
24.1506
25.835
27.2513
28.4113
29.3644
30.1489
30.794
31.3266
31.7638
32.1147
32.3828
32.5652
32.6521
32.6273
32.4674
32.1439
31.6392
30.9513
30.0777
29.0145
27.7615
26.3228
24.7061
22.9212
20.98
18.8959
16.6862
14.3744
12.024
9.72551
7.87492
2.9115
0.694916
-1.72985
-4.20162
-6.57738
-8.99621
-11.3569
-13.614
-15.799
-17.8862
-19.8786
-21.7961
-23.639
-25.4272
-27.1817
-28.9092
-30.6051
-32.2624
-33.8768
-35.4428
-36.9468
-38.3683
-39.6832
-40.8654
-41.8958
-42.755
-43.3981
-43.7522
-43.7159
-43.1507
-41.886
-39.6822
-36.3279
-31.597
-25.4459
-18.3565
-13.159
-9.55215
-12.705
5.05436
7.15538
9.48899
12.0057
14.4753
16.942
19.3329
21.4961
23.375
24.9922
26.3503
27.4617
28.3737
29.1244
29.7416
30.2523
30.6737
31.0149
31.2806
31.4685
31.5701
31.5711
31.4495
31.1779
30.738
30.1268
29.3403
28.373
27.2227
25.8918
24.3857
22.713
20.8849
18.9158
16.8252
14.6419
12.4316
10.2964
8.59473
2.92627
0.790893
-1.54602
-3.9288
-6.21818
-8.54892
-10.8234
-12.9975
-15.1015
-17.1103
-19.0272
-20.8709
-22.6422
-24.358
-26.0392
-27.6942
-29.3193
-30.9062
-32.4499
-33.9443
-35.3757
-36.7234
-37.9629
-39.0688
-40.0234
-40.8092
-41.3841
-41.6793
-41.6019
-41.026
-39.8006
-37.7209
-34.602
-30.2809
-24.738
-18.3032
-13.4447
-10.0086
-12.9561
4.99042
7.01296
9.26042
11.6829
14.0599
16.4326
18.7312
20.8125
22.6188
24.1718
25.4745
26.5392
27.4122
28.1299
28.7204
29.2099
29.6153
29.9464
30.2082
30.3992
30.5126
30.5352
30.4468
30.2212
29.84
29.2991
28.5936
27.7167
26.6649
25.4385
24.0414
22.4806
20.7668
18.9148
16.9456
14.8921
12.821
10.8412
9.27778
2.92994
0.872753
-1.3795
-3.67635
-5.88221
-8.12792
-10.3189
-12.4122
-14.4375
-16.37
-18.2132
-19.9847
-21.6858
-23.3305
-24.9393
-26.5222
-28.0763
-29.5929
-31.0656
-32.4879
-33.8466
-35.1207
-36.2861
-37.3182
-38.2007
-38.9185
-39.4324
-39.6787
-39.5728
-39.0018
-37.8328
-35.8941
-33.0259
-29.11
-24.1654
-18.384
-13.9267
-10.745
-13.5421
4.91824
6.86561
9.02951
11.3627
13.6504
15.9319
18.1434
20.1457
21.8825
23.374
24.6236
25.6436
26.479
27.1656
27.7302
28.199
28.5888
28.9091
29.1659
29.3584
29.4809
29.5214
29.4618
29.2769
28.9485
28.4718
27.8414
27.0496
26.0915
24.966
23.6755
22.2257
20.6264
18.8925
17.046
15.1224
13.1886
11.3565
9.92016
2.92442
0.942663
-1.22782
-3.44162
-5.56682
-7.73012
-9.84011
-11.8552
-13.8038
-15.6622
-17.4333
-19.1343
-20.7665
-22.3416
-23.8795
-25.3913
-26.8751
-28.3217
-29.7239
-31.0748
-32.3614
-33.5632
-34.6565
-35.6179
-36.433
-37.0886
-37.5491
-37.756
-37.6333
-37.0812
-35.9833
-34.1983
-31.591
-28.0742
-23.7074
-18.5764
-14.5608
-11.7077
-14.4039
4.83977
6.71452
8.79882
11.0452
13.2473
15.4425
17.569
19.4956
21.1658
22.5984
23.7971
24.7744
25.574
26.2306
26.7706
27.2195
27.5936
27.9032
28.1541
28.3467
28.4757
28.5315
28.4965
28.3475
28.0666
27.6485
27.0874
26.375
25.5057
24.4771
23.2902
21.9496
20.4641
18.8485
17.1252
15.3311
13.5322
11.84
10.5208
2.91164
1.00262
-1.08891
-3.22239
-5.2695
-7.35314
-9.38465
-11.3237
-13.198
-14.9841
-16.685
-18.3172
-19.8819
-21.389
-22.8577
-24.2997
-25.7142
-27.092
-28.4249
-29.7058
-30.9218
-32.0534
-33.0776
-33.9722
-34.7244
-35.324
-35.7387
-35.9155
-35.7868
-35.2655
-34.2509
-32.6281
-30.2868
-27.1599
-23.3435
-18.8549
-15.3039
-12.836
-15.4825
4.75644
6.56153
8.56845
10.7323
12.8516
14.9627
17.0091
18.8629
20.4689
21.845
22.9952
23.9316
24.6971
25.3249
25.8414
26.2708
26.63
26.9285
27.1733
27.3643
27.4987
27.5666
27.5528
27.4353
27.197
26.8322
26.3348
25.6965
24.9109
23.9748
22.8881
21.6542
20.2811
18.7829
17.1821
15.5159
13.8485
12.2887
11.0763
2.89288
1.05418
-0.960933
-3.01667
-4.98826
-6.9945
-8.94995
-10.8154
-12.6174
-14.3332
-15.9658
-17.5309
-19.0297
-20.4708
-21.8724
-23.2464
-24.5928
-25.9031
-27.1684
-28.3812
-29.5291
-30.5932
-31.5517
-32.3836
-33.0785
-33.6282
-34.0045
-34.1598
-34.0346
-33.5541
-32.6323
-31.1766
-29.1012
-26.3526
-23.0541
-19.1923
-16.112
-14.0594
-16.6907
4.66973
6.4074
8.34048
10.4237
12.4636
14.495
16.4635
18.2472
19.7916
21.1136
22.2172
23.1148
23.8473
24.4482
24.9417
25.353
25.6972
25.9852
26.2228
26.4123
26.5497
26.6277
26.6322
26.5424
26.3421
26.0256
25.5868
25.0172
24.3103
23.462
22.4714
21.3411
20.078
18.6956
17.2158
15.6753
14.1356
12.7007
11.5864
2.86957
1.09885
-0.842414
-2.82283
-4.72112
-6.65259
-8.53419
-10.328
-12.0599
-13.7075
-15.2736
-16.7736
-18.208
-19.5854
-20.9222
-22.2299
-23.5102
-24.7548
-25.9545
-27.1017
-28.1842
-29.1839
-30.0806
-30.8547
-31.4975
-32.0035
-32.3484
-32.49
-32.3766
-31.9449
-31.1226
-29.8354
-28.0212
-25.6364
-22.8194
-19.5607
-16.9469
-15.3116
-17.9526
4.58066
6.25356
8.11459
10.121
12.084
14.0378
15.9329
17.6492
19.1341
20.4041
21.4632
22.3234
23.025
23.5994
24.0716
24.465
24.7953
25.0724
25.3033
25.4898
25.6295
25.7157
25.7356
25.6703
25.504
25.2312
24.846
24.34
23.7066
22.9414
22.0427
21.0122
19.8561
18.5869
17.2257
15.8077
14.3911
13.0736
12.0485
2.84266
1.13771
-0.73196
-2.63934
-4.46675
-6.32546
-8.13549
-9.86007
-11.5237
-13.1051
-14.6068
-16.0434
-17.4155
-18.7314
-20.0054
-21.2491
-22.4654
-23.6464
-24.7829
-25.867
-26.8873
-27.8265
-28.6656
-29.3865
-29.9826
-30.451
-30.771
-30.9058
-30.8111
-30.4341
-29.7152
-28.5952
-27.0327
-24.9944
-22.6199
-19.9298
-17.7704
-16.526
-19.1734
4.49024
6.10038
7.89259
9.8239
11.7129
13.5933
15.4168
17.0683
18.4959
19.716
20.7324
21.5571
22.2288
22.7785
23.2302
23.6067
23.9234
24.1902
24.4141
24.5973
24.7382
24.8309
24.8642
24.8203
24.6844
24.4511
24.1148
23.6676
23.1027
22.4155
21.6041
20.6692
19.6164
18.4572
17.2112
15.912
14.6134
13.4063
12.463
2.81321
1.17187
-0.628489
-2.46505
-4.22361
-6.01187
-7.75242
-9.40955
-11.0072
-12.5244
-13.9636
-15.3389
-16.6506
-17.9071
-19.1207
-20.3028
-21.4572
-22.5772
-23.653
-24.6771
-25.6384
-26.521
-27.3068
-27.9796
-28.5343
-28.9707
-29.2717
-29.4057
-29.3351
-29.0165
-28.4021
-27.4455
-26.1215
-24.4095
-22.4377
-20.2685
-18.5501
-17.6507
-20.2813
4.39928
5.94905
7.67407
9.53389
11.3512
13.1599
14.9158
16.5048
17.8773
19.0494
20.025
20.8154
21.4589
21.9849
22.4171
22.7775
23.0812
23.3379
23.5549
23.7345
23.8758
23.9738
24.0185
23.9933
23.8845
23.687
23.3954
23.0022
22.5008
21.8868
21.1577
20.314
19.3602
18.3068
17.172
15.987
14.801
13.697
12.828
2.78188
1.20211
-0.531028
-2.29888
-3.99076
-5.71047
-7.38359
-8.9755
-10.5089
-11.9639
-13.3425
-14.6585
-15.912
-17.1111
-18.2667
-19.3895
-20.4848
-21.5461
-22.5642
-23.5313
-24.4372
-25.267
-26.0041
-26.6336
-27.1521
-27.5616
-27.8487
-27.9866
-27.9442
-27.686
-27.1747
-26.3749
-25.2735
-23.8637
-22.2563
-20.5472
-19.2517
-18.6441
-21.2012
4.30859
5.79982
7.4607
9.25032
10.9991
12.7398
14.4292
15.9581
17.2775
18.4036
19.34
20.0981
20.7143
21.2181
21.6317
21.9769
22.2682
22.5153
22.7253
22.9012
23.0423
23.1445
23.1988
23.1901
23.1056
22.9403
22.6894
22.3457
21.9032
21.3573
20.7056
19.948
19.0885
18.1362
17.108
16.0319
14.9527
13.9452
13.1445
2.74955
1.22937
-0.438745
-2.13997
-3.76707
-5.42046
-7.02805
-8.55645
-10.0277
-11.4224
-12.7425
-14.0011
-15.1984
-16.3423
-17.442
-18.5082
-19.5468
-20.5523
-21.5156
-22.4289
-23.283
-24.064
-24.7567
-25.3474
-25.8342
-26.2215
-26.4991
-26.6448
-26.633
-26.4352
-26.0235
-25.3717
-24.4751
-23.3397
-22.0602
-20.7445
-19.8387
-19.4812
-21.894
4.21871
5.65362
7.25172
8.97461
10.6567
12.3308
13.9575
15.4284
16.6968
17.7786
18.6775
19.4044
19.9951
20.4774
20.8735
21.2042
21.4836
21.7215
21.9249
22.0969
22.2373
22.3428
22.4053
22.4111
22.3482
22.212
21.9982
21.6999
21.3115
20.8289
20.2495
19.5729
18.8024
17.9462
17.0191
16.0465
15.0679
14.1499
13.4113
2.71666
1.25417
-0.350819
-1.98743
-3.55182
-5.1407
-6.68471
-8.15172
-9.56262
-10.8988
-12.1622
-13.3654
-14.5085
-15.5992
-16.6455
-17.6575
-18.6421
-19.5946
-20.506
-21.3688
-22.1745
-22.9104
-23.5628
-24.119
-24.5786
-24.9476
-25.2193
-25.3753
-25.3951
-25.2564
-24.9385
-24.4239
-23.7131
-22.8216
-21.8334
-20.8477
-20.2738
-20.1429
-22.3331
4.13028
5.51045
7.04857
8.70587
10.3241
11.9351
13.5
14.9151
16.1344
17.1737
18.0366
18.7341
19.3002
19.7623
20.1418
20.4587
20.727
20.9561
21.153
21.321
21.4604
21.5683
21.6378
21.6564
21.6128
21.503
21.3227
21.0659
20.7273
20.3032
19.7909
19.1901
18.5031
17.7373
16.9056
16.0303
15.146
14.3113
13.6299
2.68392
1.27729
-0.266618
-1.8406
-3.34404
-4.87056
-6.35294
-7.76018
-9.11263
-10.3921
-11.6007
-12.7504
-13.8411
-14.8808
-15.8759
-16.8364
-17.7696
-18.6717
-19.5341
-20.3495
-21.1102
-21.8048
-22.4206
-22.9462
-23.3818
-23.736
-24.0046
-24.1726
-24.2237
-24.1411
-23.91
-23.5198
-22.975
-22.296
-21.5606
-20.8513
-20.534
-20.6116
-22.5293
4.04358
5.37108
6.85036
8.44535
10.0014
11.5505
13.057
14.4183
15.5903
16.5889
17.4173
18.0863
18.6292
19.0721
19.4358
19.7398
19.9975
20.2181
20.4088
20.5729
20.7109
20.8208
20.8962
20.926
20.8998
20.8134
20.6637
20.4447
20.1518
19.7814
19.3312
18.8006
18.1916
17.5103
16.7678
15.9835
15.1871
14.4291
13.7999
2.65152
1.29903
-0.185531
-1.69876
-3.14328
-4.60915
-6.03177
-7.38125
-8.67693
-9.90158
-11.057
-12.155
-13.1954
-14.1859
-15.1321
-16.0435
-16.9279
-17.7823
-18.5985
-19.3696
-20.0884
-20.745
-21.3275
-21.8255
-22.2405
-22.5827
-22.85
-23.0305
-23.1115
-23.0807
-22.9283
-22.6487
-22.2494
-21.7523
-21.2291
-20.7498
-20.6157
-20.8665
-22.498
3.95906
5.23526
6.65845
8.1919
9.68859
11.1789
12.6278
13.9372
15.0638
16.0232
16.8187
17.4608
17.9813
18.4061
18.7549
19.0465
19.2943
19.5069
19.6916
19.8517
19.9883
20.0995
20.1801
20.2198
20.2087
20.1437
20.0214
19.837
19.5857
19.2646
18.8715
18.4057
17.8688
17.2658
16.6063
15.9065
15.1914
14.5043
13.9232
2.61995
1.31998
-0.107166
-1.56143
-2.94873
-4.35593
-5.72065
-7.01397
-8.25484
-9.42636
-10.5305
-11.5785
-12.5704
-13.5136
-14.4129
-15.2776
-16.1156
-16.9248
-17.6975
-18.427
-19.1071
-19.7285
-20.2807
-20.7535
-21.151
-21.4827
-21.7499
-21.9426
-22.0511
-22.067
-21.9841
-21.8005
-21.5257
-21.1816
-20.8311
-20.5382
-20.5316
-20.899
-22.267
3.87679
5.10362
6.47165
7.94685
9.38572
10.8183
12.2128
13.4722
14.555
15.4767
16.2406
16.8566
17.3562
17.7635
18.0982