/*--------------------------------*- C++ -*----------------------------------*\
  =========                 |
  \\      /  F ield         | OpenFOAM: The Open Source CFD Toolbox
   \\    /   O peration     | Website:  https://openfoam.org
    \\  /    A nd           | Version:  9
     \\/     M anipulation  |
\*---------------------------------------------------------------------------*/
FoamFile
{
    format      ascii;
    class       volVectorField;
    location    "280";
    object      U;
}
// * * * * * * * * * * * * * * * * * * * * * * * * * * * * * * * * * * * * * //

dimensions      [0 1 -1 0 0 0 0];

internalField   nonuniform List<vector> 
10720
(
(-1.87672 18.7447 3.25721e-17)
(-0.674331 19.2738 -3.18803e-17)
(0.640298 19.6715 0)
(1.98827 19.6789 -3.81423e-16)
(3.31045 19.3639 4.38378e-16)
(4.56257 18.6805 2.73181e-16)
(5.67092 17.5979 3.27118e-16)
(6.58314 16.1688 0)
(7.22965 14.4197 0)
(7.54827 12.4272 0)
(7.49447 10.2907 5.18198e-17)
(7.02376 8.09746 0)
(6.10239 5.93279 1.52906e-15)
(4.71187 3.87592 0)
(2.86465 2.00476 0)
(0.660801 0.428188 0)
(-1.44537 -0.455028 -7.32782e-15)
(-2.35982 -0.634945 -8.61173e-15)
(-3.04613 -0.776379 5.97074e-15)
(-3.54055 -0.760008 0)
(-3.86399 -0.663784 4.22317e-15)
(-4.11863 -0.531078 -8.19683e-15)
(-4.42385 -0.393843 3.93585e-15)
(-4.85712 -0.26652 -1.08431e-16)
(-5.39151 -0.147646 0)
(-5.95828 -0.0211029 1.41553e-15)
(-6.48704 0.122464 2.05705e-17)
(-6.93714 0.278434 -6.14692e-16)
(-7.28632 0.439039 -2.30852e-15)
(-7.49555 0.592406 -8.70527e-15)
(-7.50725 0.725666 4.07947e-15)
(-7.29149 0.827922 7.85087e-15)
(-6.79686 0.880188 7.26401e-15)
(-5.94425 0.845892 2.69575e-14)
(-4.73547 0.713699 -1.22492e-14)
(-3.14726 0.433734 -9.73289e-17)
(-1.62031 0.242813 1.10313e-16)
(1.21183 -0.350963 4.74712e-14)
(-0.00328977 -0.840083 -2.20247e-14)
(-2.96173 18.0498 1.42424e-17)
(-4.01294 17.1315 2.61957e-17)
(-4.9956 15.9763 -4.47229e-17)
(-5.82461 14.4178 5.89067e-17)
(-6.40413 12.6766 1.31125e-16)
(-6.66158 10.7666 -5.528e-17)
(-6.55077 8.78839 4.72506e-17)
(-6.07816 6.8892 1.23087e-16)
(-5.32314 5.19992 0)
(-4.384 3.77153 0)
(-3.33674 2.61257 7.17038e-16)
(-2.25885 1.71713 5.5704e-16)
(-1.21901 1.05651 -1.72805e-15)
(-0.281657 0.588159 3.18506e-15)
(0.551817 0.208672 6.76113e-15)
(1.37154 -0.124328 3.05899e-15)
(2.14172 -0.378386 3.30425e-15)
(2.85444 -0.562467 2.00339e-15)
(3.52031 -0.694498 0)
(4.15023 -0.786133 0)
(4.75356 -0.84492 -2.65933e-15)
(5.33748 -0.872494 -1.38022e-16)
(5.90637 -0.866894 2.07488e-15)
(6.45416 -0.819617 -1.6749e-15)
(6.96187 -0.728669 5.71154e-18)
(7.42222 -0.605478 0)
(7.84089 -0.458662 5.417e-16)
(8.22177 -0.294227 0)
(8.56703 -0.116754 0)
(8.87881 0.0693903 3.47323e-16)
(9.16151 0.260391 0)
(9.41972 0.452945 -9.9342e-16)
(9.66161 0.645234 -1.59537e-15)
(9.89503 0.836211 -6.26863e-15)
(10.1397 1.02822 1.83476e-15)
(10.402 1.22385 -5.59867e-18)
(10.7522 1.44116 0)
(11.2176 1.70678 -1.24117e-15)
(12.1451 2.01509 -3.94552e-15)
(2.73987 17.0328 1.23999e-17)
(3.96449 17.4795 -1.84293e-17)
(5.3455 17.7635 0)
(6.81491 17.8612 0)
(8.25255 17.8082 -1.21364e-16)
(9.64252 17.6451 -2.43096e-16)
(10.9056 17.3363 0)
(11.989 16.8624 0)
(12.856 16.2233 3.65388e-16)
(13.4613 15.4016 0)
(13.7572 14.3903 1.08007e-15)
(13.6872 13.1792 0)
(13.1861 11.7605 3.18206e-16)
(12.1744 10.1252 -3.36307e-16)
(10.5606 8.26107 6.33479e-16)
(8.28028 6.17918 -1.35184e-15)
(5.36609 3.984 1.62537e-15)
(2.2285 1.89636 2.22456e-15)
(-0.652412 0.232585 3.19288e-15)
(-2.3568 -0.389669 2.0334e-16)
(-3.35156 -0.558346 -3.08336e-15)
(-4.01483 -0.533566 2.92532e-15)
(-4.54868 -0.416118 -1.56655e-16)
(-5.07574 -0.284787 0)
(-5.57887 -0.167621 0)
(-6.02402 -0.0550688 0)
(-6.39498 0.0670955 1.12343e-16)
(-6.68789 0.198212 -2.63304e-17)
(-6.89637 0.333759 1.62772e-15)
(-7.00599 0.462185 5.6133e-18)
(-6.99351 0.570407 -3.9128e-18)
(-6.79729 0.649938 -4.38075e-17)
(-6.32577 0.692688 4.63016e-15)
(-5.50663 0.66589 -8.09113e-15)
(-4.36947 0.572919 -4.84761e-17)
(-2.88797 0.271226 -9.93609e-15)
(-1.76836 0.159807 0)
(1.43481 -0.471364 -8.9314e-15)
(0.585941 -0.567353 -9.35199e-15)
(1.59562 16.4769 -1.69447e-17)
(0.498678 15.7852 2.5473e-17)
(-0.649733 14.8966 1.57251e-16)
(-1.73138 13.7673 -1.84928e-16)
(-2.6594 12.4094 0)
(-3.36449 10.8558 -2.55487e-17)
(-3.77809 9.17539 -6.90458e-17)
(-3.85624 7.48663 -4.87524e-16)
(-3.61902 5.90115 2.18135e-16)
(-3.12911 4.48493 -4.04184e-16)
(-2.45579 3.27814 7.68941e-16)
(-1.6679 2.2977 -3.48591e-16)
(-0.832387 1.53783 0)
(-0.00642448 0.968418 -6.86989e-16)
(0.784113 0.519694 -1.94209e-17)
(1.54757 0.162422 -1.67775e-15)
(2.27529 -0.10713 0)
(2.96579 -0.306775 0)
(3.62278 -0.453235 -1.66335e-16)
(4.2522 -0.55607 1.50004e-16)
(4.85991 -0.621597 -1.9213e-15)
(5.45142 -0.650296 -2.22966e-16)
(6.02968 -0.639434 1.0019e-16)
(6.58962 -0.580005 1.35441e-15)
(7.11559 -0.474934 -1.21098e-15)
(7.59916 -0.342616 -9.98682e-16)
(8.04355 -0.191775 0)
(8.45174 -0.0270821 0)
(8.82513 0.147965 0)
(9.1659 0.329245 2.70993e-18)
(9.47757 0.513551 0)
(9.7644 0.698015 0)
(10.0335 0.881254 2.66973e-15)
(10.292 1.06304 2.0729e-15)
(10.5594 1.24714 -1.49941e-15)
(10.8403 1.4389 9.27748e-16)
(11.2141 1.66386 -6.14919e-16)
(11.6575 1.92951 9.18327e-16)
(12.7189 2.46382 2.64429e-15)
(1.81106 15.7118 4.02767e-18)
(2.70616 16.1307 8.82131e-17)
(3.71675 16.4662 -6.97882e-17)
(4.79894 16.6838 -7.2242e-17)
(5.9037 16.7361 -1.79376e-16)
(7.02392 16.6149 5.57174e-16)
(8.15865 16.3353 -3.69072e-16)
(9.26809 15.9232 -3.44252e-16)
(10.3366 15.4101 -1.8495e-17)
(11.322 14.8246 -3.539e-16)
(12.1842 14.1863 2.65797e-16)
(12.8841 13.5028 -6.18309e-16)
(13.3622 12.7669 -2.54615e-16)
(13.5358 11.9464 0)
(13.2826 10.9673 -4.82072e-16)
(12.4302 9.70638 9.05521e-16)
(10.7661 8.01612 0)
(8.129 5.83993 -1.98449e-15)
(4.63034 3.37135 -1.24262e-15)
(1.0732 1.29036 2.18486e-16)
(-1.45479 0.212278 -2.81537e-16)
(-2.81978 -0.126924 -1.34435e-16)
(-3.64523 -0.170311 -1.8123e-15)
(-4.25089 -0.102609 8.8688e-16)
(-4.75528 -0.0258924 0)
(-5.18965 0.0473854 7.50782e-16)
(-5.56312 0.131722 -8.67747e-17)
(-5.87949 0.228023 0)
(-6.13459 0.333672 1.19685e-15)
(-6.30497 0.437192 2.28224e-15)
(-6.34075 0.515498 -4.14647e-15)
(-6.18231 0.554068 -3.61265e-15)
(-5.75679 0.555989 -5.24927e-17)
(-4.9927 0.495356 -5.53984e-15)
(-3.94738 0.408657 -4.72966e-15)
(-2.59233 0.114858 6.23699e-15)
(-1.78912 0.0545715 0)
(1.48572 -0.585975 -5.11508e-15)
(0.719834 -0.85968 1.14348e-14)
(1.01391 15.2018 1.11027e-17)
(0.254644 14.5742 1.45509e-17)
(-0.491322 13.7575 -8.76422e-17)
(-1.21447 12.7639 0)
(-1.83324 11.6166 -9.79378e-18)
(-2.31104 10.3231 0)
(-2.60526 8.9272 1.63983e-16)
(-2.68149 7.50862 1.25559e-16)
(-2.53526 6.1424 2.00628e-16)
(-2.18971 4.87882 0)
(-1.6857 3.75587 -8.45803e-16)
(-1.06743 2.79914 -2.83718e-16)
(-0.383269 2.01635 1.78698e-15)
(0.325854 1.39557 0)
(1.03637 0.90009 -1.32875e-15)
(1.7384 0.505211 -3.85049e-16)
(2.41991 0.196227 1.68018e-15)
(3.07671 -0.0429465 8.89845e-16)
(3.7092 -0.225591 2.60638e-16)
(4.32049 -0.360633 -1.24978e-16)
(4.91439 -0.45414 1.56521e-15)
(5.49467 -0.50783 0)
(6.06323 -0.5202 0)
(6.6157 -0.4861 3.02465e-18)
(7.13916 -0.408697 0)
(7.62562 -0.301455 1.82529e-15)
(8.0769 -0.171029 -2.59164e-17)
(8.49567 -0.0216035 -1.74164e-16)
(8.8833 0.142867 0)
(9.24195 0.317781 -2.61506e-16)
(9.57495 0.499802 4.51685e-16)
(9.88634 0.685756 0)
(10.183 0.874073 -1.24657e-15)
(10.4714 1.06433 0)
(10.7695 1.26001 0)
(11.0785 1.46635 1.74878e-17)
(11.4828 1.70823 -3.65879e-17)
(11.9161 2.00559 -8.78105e-16)
(13.0111 2.59596 -5.36027e-15)
(3.11432 14.6017 9.4434e-18)
(3.95772 14.9771 2.15288e-17)
(4.89516 15.2774 -4.91798e-17)
(5.8991 15.4666 -4.15985e-17)
(6.92382 15.5218 0)
(7.96151 15.4379 0)
(8.95775 15.2181 -5.86045e-16)
(9.86584 14.8727 6.28685e-16)
(10.6665 14.4155 0)
(11.3551 13.8709 -5.66327e-16)
(11.9319 13.2724 -6.13352e-16)
(12.4068 12.6617 -5.29918e-16)
(12.7933 12.0822 5.36508e-16)
(13.1001 11.5633 4.62741e-16)
(13.3105 11.0927 0)
(13.3358 10.5792 5.81967e-16)
(12.9581 9.82092 1.86638e-16)
(11.8068 8.55559 1.42904e-15)
(9.48043 6.59767 9.54881e-17)
(5.94987 4.14336 -1.15501e-16)
(2.04963 1.91954 1.39274e-15)
(-0.871522 0.63707 -3.03027e-16)
(-2.41492 0.21918 1.72992e-15)
(-3.29491 0.129864 7.35527e-16)
(-3.90814 0.133522 -4.24688e-17)
(-4.40413 0.159923 -5.79213e-16)
(-4.82467 0.206128 4.39082e-18)
(-5.18252 0.268776 -3.97751e-18)
(-5.47837 0.342682 -9.2908e-16)
(-5.68959 0.416788 -2.61958e-17)
(-5.76462 0.466359 1.61171e-15)
(-5.64687 0.472196 -2.79306e-15)
(-5.26597 0.440441 -2.30926e-15)
(-4.54561 0.347862 -3.80939e-17)
(-3.56607 0.255554 3.36044e-15)
(-2.29454 -0.0290266 0)
(-1.75241 -0.0734088 4.56625e-15)
(1.46684 -0.690926 3.51573e-15)
(0.740894 -1.11913 -4.15781e-15)
(2.34117 14.159 3.08194e-18)
(1.59013 13.6268 -3.21761e-17)
(0.836535 12.9457 -5.90506e-17)
(0.104624 12.1036 0)
(-0.532138 11.121 9.17414e-18)
(-1.04522 10.0038 0)
(-1.39864 8.78703 -1.83674e-16)
(-1.56304 7.53856 -7.16568e-18)
(-1.53289 6.31947 1.88617e-16)
(-1.32276 5.16959 2.96859e-16)
(-0.961437 4.12332 9.89132e-18)
(-0.482224 3.2076 8.90216e-16)
(0.0758316 2.43389 -8.95401e-16)
(0.679829 1.79481 3.31247e-16)
(1.30708 1.26872 1.2973e-15)
(1.94226 0.839501 1.47145e-15)
(2.57222 0.494748 -1.34751e-15)
(3.19037 0.221743 -6.87755e-18)
(3.7942 0.00896228 0)
(4.38396 -0.152347 1.56863e-15)
(4.96119 -0.268171 8.59423e-17)
(5.52779 -0.34109 -1.33558e-15)
(6.08448 -0.370831 0)
(6.627 -0.354288 1.943e-18)
(7.14409 -0.293782 0)
(7.62772 -0.200415 -7.79237e-16)
(8.07832 -0.0815911 0)
(8.49801 0.0577917 1.53685e-16)
(8.88801 0.213389 -6.13971e-18)
(9.25038 0.380535 3.82723e-18)
(9.58839 0.555967 -3.83475e-16)
(9.90609 0.736512 -1.13028e-17)
(10.2105 0.920668 0)
(10.5079 1.10821 8.75277e-16)
(10.8167 1.30273 1.18049e-17)
(11.1369 1.51031 -8.00597e-16)
(11.5535 1.75602 1.15664e-15)
(11.9819 2.07111 -2.77915e-19)
(13.0463 2.66504 0)
(3.4187 13.7575 1.07596e-17)
(4.11902 14.1112 1.94605e-17)
(4.9074 14.4143 -8.38793e-17)
(5.75193 14.6371 3.90746e-16)
(6.61535 14.7554 -1.0239e-16)
(7.49966 14.7645 -2.20836e-16)
(8.37176 14.6579 2.76265e-16)
(9.21471 14.4269 0)
(10.0126 14.0722 7.64079e-16)
(10.7339 13.6089 2.90844e-16)
(11.3531 13.0598 0)
(11.8564 12.4566 5.10184e-16)
(12.2434 11.8425 -2.28609e-16)
(12.5334 11.2682 6.24847e-16)
(12.7643 10.7826 0)
(12.9714 10.405 -7.46133e-16)
(13.1234 10.0669 6.66414e-16)
(13.0119 9.56137 -8.6495e-18)
(12.1725 8.5422 0)
(10.0253 6.74055 7.27788e-16)
(6.44663 4.34538 -8.65306e-16)
(2.39833 2.14374 -6.30623e-17)
(-0.580282 0.898119 -1.28856e-15)
(-2.11927 0.472954 -1.24214e-15)
(-3.00013 0.331389 0)
(-3.62543 0.288662 0)
(-4.1233 0.290424 -1.22134e-16)
(-4.53424 0.318073 -1.35773e-17)
(-4.87286 0.360055 7.87934e-16)
(-5.12477 0.403244 -2.14198e-17)
(-5.24199 0.422707 1.97513e-17)
(-5.1682 0.396358 2.14695e-15)
(-4.83378 0.332152 0)
(-4.15438 0.209515 6.38092e-15)
(-3.22764 0.108239 -2.29337e-17)
(-2.00248 -0.162289 0)
(-1.68059 -0.208774 8.19086e-18)
(1.40949 -0.791748 0)
(0.701947 -1.34325 3.41228e-15)
(2.78117 13.3468 -1.12848e-17)
(2.16608 12.8633 3.29683e-17)
(1.54194 12.2498 -1.82167e-17)
(0.921013 11.5016 1.65862e-17)
(0.36874 10.6412 -2.38195e-17)
(-0.0945266 9.66493 -1.33955e-16)
(-0.437222 8.59794 1.69565e-16)
(-0.629536 7.49671 -2.81875e-16)
(-0.661556 6.41063 -2.11155e-16)
(-0.540197 5.36978 -2.6948e-16)
(-0.283824 4.40396 6.41187e-16)
(0.084028 3.53983 -8.13468e-16)
(0.535062 2.79076 -5.01963e-16)
(1.04444 2.15181 5.41891e-16)
(1.59122 1.61111 -1.31985e-15)
(2.15919 1.15968 2.30682e-16)
(2.73539 0.788519 0)
(3.31157 0.487816 -1.03102e-15)
(3.88302 0.248299 3.75431e-16)
(4.4477 0.0621593 -1.53976e-15)
(5.00517 -0.0760669 0)
(5.55563 -0.169232 1.10376e-15)
(6.09859 -0.217766 9.24314e-16)
(6.62974 -0.220257 -8.20914e-16)
(7.13897 -0.178741 0)
(7.61825 -0.102389 -6.98036e-16)
(8.06678 0.00133366 0)
(8.48593 0.127589 0)
(8.87659 0.272016 0)
(9.24056 0.429986 2.07894e-16)
(9.58083 0.5981 0)
(9.90127 0.773104 0)
(10.2087 0.953352 -1.00238e-15)
(10.5092 1.13868 -7.88776e-16)
(10.8209 1.33269 0)
(11.1434 1.54235 -7.47945e-16)
(11.5606 1.79198 3.45439e-17)
(11.9803 2.12286 0)
(12.9951 2.72183 1.81715e-15)
(3.97555 13.0126 -1.66649e-17)
(4.61363 13.3383 1.28607e-17)
(5.32898 13.6228 0)
(6.09424 13.8374 -3.53989e-18)
(6.87545 13.9625 -2.44203e-16)
(7.68079 13.9942 2.11727e-16)
(8.48163 13.9251 1.90113e-17)
(9.24995 13.756 -6.47841e-16)
(9.96634 13.4923 -5.399e-17)
(10.6122 13.1423 6.58253e-16)
(11.1733 12.7169 -2.20189e-16)
(11.6398 12.2303 4.15334e-16)
(12.0047 11.7038 1.96655e-16)
(12.2706 11.1661 1.564e-16)
(12.4574 10.6551 0)
(12.6077 10.2163 -1.69731e-16)
(12.7754 9.88014 -3.2442e-16)
(12.9606 9.60888 -1.18085e-15)
(12.9616 9.19717 3.41185e-16)
(12.2339 8.26848 -4.10628e-16)
(10.0719 6.52003 -7.20477e-17)
(6.38094 4.19349 0)
(2.34187 2.14854 8.25994e-16)
(-0.466975 1.03977 6.82851e-17)
(-1.90914 0.620615 -3.50397e-17)
(-2.77943 0.454363 -4.53576e-16)
(-3.40498 0.393394 9.75436e-17)
(-3.89219 0.37995 1.95851e-16)
(-4.28505 0.388238 -6.86176e-16)
(-4.58559 0.39928 -3.71611e-17)
(-4.75273 0.387172 1.12917e-15)
(-4.72843 0.327618 1.77446e-15)
(-4.44466 0.230117 0)
(-3.80678 0.0776756 2.35628e-17)
(-2.92676 -0.0351366 -2.18294e-15)
(-1.72159 -0.286347 0)
(-1.58263 -0.342837 -5.36998e-15)
(1.32659 -0.887134 0)
(0.623573 -1.53548 -2.83098e-15)
(3.39104 12.6401 1.10264e-17)
(2.82764 12.207 -1.13149e-17)
(2.25356 11.6601 0)
(1.68159 10.9923 0)
(1.16962 10.2276 1.33997e-17)
(0.731155 9.35973 2.34406e-16)
(0.392663 8.40878 0)
(0.181086 7.42447 -2.7817e-16)
(0.106484 6.44856 -3.65946e-16)
(0.164812 5.50362 4.69364e-16)
(0.343144 4.61494 -1.03822e-17)
(0.623727 3.80762 3.46598e-16)
(0.986821 3.09251 -1.41389e-17)
(1.41335 2.46605 1.36801e-15)
(1.88515 1.92358 1.31152e-15)
(2.38791 1.46062 -1.25181e-15)
(2.90979 1.07139 1.92463e-16)
(3.44192 0.749127 -3.59692e-16)
(3.97823 0.487077 1.67937e-16)
(4.51498 0.278919 1.05788e-15)
(5.05007 0.11995 1.40253e-16)
(5.58222 0.00734444 -1.20683e-16)
(6.10984 -0.0596616 -7.74223e-16)
(6.62839 -0.0807028 0)
(7.12854 -0.0577452 4.29113e-17)
(7.60228 0.00167055 1.22757e-15)
(8.04771 0.0904394 -8.43722e-18)
(8.46543 0.203683 8.15735e-18)
(8.85599 0.336949 0)
(9.22081 0.485534 -1.88888e-16)
(9.56258 0.645894 0)
(9.88489 0.814753 0)
(10.1942 0.990365 8.95382e-16)
(10.4966 1.17267 7.42765e-16)
(10.8094 1.36514 0)
(11.1321 1.57578 6.74336e-16)
(11.5466 1.82769 -1.05503e-15)
(11.956 2.17241 6.55309e-20)
(12.9185 2.77416 -1.59721e-15)
(4.37187 12.3933 -4.27413e-18)
(4.93925 12.6986 9.92617e-18)
(5.57703 12.9728 -5.78765e-17)
(6.25849 13.1887 5.82041e-17)
(6.95233 13.3289 1.55401e-16)
(7.67083 13.3924 0)
(8.38817 13.3715 -3.34006e-16)
(9.08238 13.2644 3.35819e-17)
(9.74718 13.0691 -2.28944e-16)
(10.3641 12.791 -4.2003e-16)
(10.9171 12.4403 0)
(11.3943 12.0305 -7.69946e-16)
(11.7847 11.5791 -5.68689e-16)
(12.0837 11.105 -1.24337e-15)
(12.2951 10.6287 0)
(12.4372 10.1756 -6.24867e-16)
(12.5511 9.77714 -5.88867e-16)
(12.6955 9.46411 5.63636e-16)
(12.884 9.2066 -5.26688e-16)
(12.902 8.8061 4.92468e-16)
(12.1208 7.86217 6.16418e-17)
(9.77861 6.09525 -5.92628e-16)
(5.95242 3.86066 0)
(2.07618 2.0376 -8.57474e-16)
(-0.439452 1.08149 6.00419e-17)
(-1.77214 0.693595 4.75215e-16)
(-2.61616 0.528584 0)
(-3.2212 0.459225 -1.14706e-17)
(-3.68872 0.428895 2.94918e-17)
(-4.05062 0.405977 1.07814e-15)
(-4.27845 0.360717 -9.54464e-16)
(-4.31204 0.26637 -1.55771e-15)
(-4.08556 0.13375 1.31554e-15)
(-3.49219 -0.0494266 5.23247e-18)
(-2.65726 -0.176456 1.84189e-15)
(-1.45575 -0.403289 2.43365e-15)
(-1.46392 -0.472489 2.2398e-15)
(1.22487 -0.975522 -3.3051e-17)
(0.517879 -1.69755 8.44636e-18)
(3.85096 12.0479 -3.98385e-18)
(3.34889 11.6517 -8.75485e-18)
(2.83282 11.154 1.15227e-17)
(2.31369 10.5487 5.50606e-19)
(1.84432 9.86008 -1.23617e-16)
(1.43439 9.07927 6.27583e-17)
(1.10717 8.22262 1.93694e-16)
(0.888104 7.33478 6.66154e-16)
(0.786885 6.45174 3.66519e-16)
(0.801195 5.59056 -4.28522e-16)
(0.921409 4.77337 -3.04166e-17)
(1.13403 4.02331 -3.46908e-16)
(1.42549 3.34645 0)
(1.78079 2.74067 -1.71268e-17)
(2.18474 2.20608 -7.63337e-16)
(2.62631 1.74047 3.6e-16)
(3.09508 1.34077 -3.43142e-16)
(3.58245 1.00314 0)
(4.08182 0.723079 5.90548e-16)
(4.58841 0.495925 -1.09698e-15)
(5.09885 0.318101 0)
(5.61064 0.18718 9.00609e-16)
(6.12129 0.102202 0)
(6.62593 0.0629589 -4.41932e-17)
(7.11575 0.0675776 4.25144e-17)
(7.58268 0.109896 -5.67902e-16)
(8.02394 0.183376 -9.21688e-18)
(8.4394 0.283125 -7.56052e-18)
(8.82918 0.404655 3.00901e-18)
(9.19435 0.543279 -1.79651e-16)
(9.5372 0.695373 -3.04224e-16)
(9.86105 0.857634 5.00471e-16)
(10.172 1.02823 1.44398e-17)
(10.4758 1.2072 7.87244e-18)
(10.7894 1.39787 0)
(11.1117 1.60932 7.26228e-18)
(11.5224 1.86322 4.89946e-16)
(11.9213 2.22085 7.79693e-18)
(12.83 2.82385 -1.30091e-15)
(4.75396 11.854 -1.93865e-18)
(5.27135 12.1397 -1.59489e-17)
(5.85281 12.4006 0)
(6.4734 12.6104 -1.47379e-17)
(7.10341 12.7541 1.1003e-16)
(7.75749 12.8324 0)
(8.41278 12.8373 -1.21597e-16)
(9.05039 12.7669 8.68006e-16)
(9.6628 12.6222 -1.03918e-15)
(10.235 12.4065 3.23904e-16)
(10.7548 12.1263 3.44212e-16)
(11.2142 11.7905 1.02138e-15)
(11.6051 11.4124 6.48313e-16)
(11.9224 11.0066 6.63017e-16)
(12.1657 10.5879 1.52878e-16)
(12.3395 10.1706 4.48247e-16)
(12.4589 9.76872 5.61511e-16)
(12.5578 9.40412 5.18491e-16)
(12.6913 9.10297 -3.6722e-16)
(12.8698 8.84085 -1.05423e-15)
(12.8372 8.40183 0)
(11.8677 7.3693 4.83222e-18)
(9.23288 5.5486 4.97362e-16)
(5.32777 3.4438 6.40459e-16)
(1.7503 1.86396 -4.68171e-17)
(-0.457402 1.06276 -4.29132e-16)
(-1.68483 0.721431 3.16998e-18)
(-2.48067 0.565101 -1.99962e-16)
(-3.05698 0.485228 1.88076e-17)
(-3.4986 0.424753 -2.02392e-15)
(-3.80052 0.344196 -1.19272e-18)
(-3.9037 0.21308 -2.32548e-17)
(-3.74391 0.0428221 -1.18863e-15)
(-3.20067 -0.172828 5.40582e-18)
(-2.4126 -0.316945 -1.61165e-15)
(-1.20714 -0.514893 -4.29291e-15)
(-1.32839 -0.596242 1.90212e-15)
(1.10952 -1.05553 1.55052e-15)
(0.391825 -1.82861 -2.28779e-15)
(4.27776 11.5337 7.45722e-18)
(3.8194 11.1696 9.69386e-18)
(3.34597 10.7138 -7.99782e-18)
(2.86766 10.1602 -2.9832e-17)
(2.43254 9.53359 6.9027e-17)
(2.04738 8.82369 7.42387e-18)
(1.73252 8.04448 -5.72025e-16)
(1.51168 7.2367 -2.90005e-16)
(1.39381 6.43199 -2.03988e-17)
(1.37734 5.64375 0)
(1.45425 4.89205 -5.01485e-16)
(1.61418 4.19668 5.99549e-16)
(1.84744 3.55955 -6.6386e-16)
(2.14218 2.97961 -3.41707e-16)
(2.48629 2.45956 3.24791e-16)
(2.87172 1.99832 3.12919e-16)
(3.28985 1.59495 1.21076e-15)
(3.73293 1.24777 -2.89514e-16)
(4.19452 0.954262 -5.40639e-16)
(4.66942 0.711463 0)
(5.15341 0.517001 -9.08839e-16)
(5.64311 0.369096 -7.31747e-16)
(6.13526 0.266976 -5.1348e-18)
(6.62471 0.210088 -8.73287e-17)
(7.10293 0.196792 -3.68381e-17)
(7.56179 0.222203 5.83039e-16)
(7.99778 0.280304 -1.46323e-17)
(8.41006 0.366309 1.22439e-16)
(8.79833 0.475753 2.66389e-17)
(9.16325 0.604042 1.62242e-16)
(9.50674 0.747486 -2.15411e-18)
(9.83179 0.902763 -9.79631e-16)
(10.1442 1.06799 -7.77739e-16)
(10.4492 1.2433 -6.34165e-16)
(10.7634 1.43188 -1.47686e-17)
(11.0851 1.6439 5.93245e-18)
(11.4911 1.89951 -5.23271e-16)
(11.8798 2.2687 3.1829e-16)
(12.7337 2.87136 1.19216e-15)
(5.08909 11.3844 6.05874e-18)
(5.56223 11.6532 9.31411e-18)
(6.09409 11.9025 7.57407e-17)
(6.66091 12.1069 -3.3848e-16)
(7.23453 12.2531 1.8398e-16)
(7.83094 12.3433 -2.15337e-16)
(8.42961 12.3699 5.22273e-16)
(9.01375 12.3308 0)
(9.57909 12.2272 3.30952e-16)
(10.114 12.0595 -8.98692e-18)
(10.6079 11.8324 -3.07363e-16)
(11.0536 11.5531 -9.56172e-16)
(11.4432 11.2322 -3.26692e-16)
(11.7721 10.8816 0)
(12.0391 10.5138 0)
(12.2464 10.1402 0)
(12.3993 9.76812 0)
(12.5093 9.40374 -4.95682e-16)
(12.6033 9.06159 4.71153e-16)
(12.7323 8.76871 4.48199e-16)
(12.8926 8.48973 -3.68002e-16)
(12.745 7.96883 3.12782e-16)
(11.4694 6.79592 -3.50199e-16)
(8.51246 4.93487 -2.98267e-17)
(4.64769 3.00197 -1.83327e-17)
(1.43216 1.66855 3.7506e-16)
(-0.499358 1.012 9.47526e-17)
(-1.61406 0.715627 0)
(-2.35673 0.563764 0)
(-2.90573 0.458094 -8.05575e-20)
(-3.29871 0.338853 0)
(-3.48705 0.168541 1.36352e-15)
(-3.40642 -0.0425124 -1.12696e-15)
(-2.92215 -0.293041 -1.72247e-15)
(-2.18587 -0.457563 2.8383e-15)
(-0.97676 -0.622405 1.95663e-15)
(-1.17897 -0.71265 -1.66495e-15)
(0.985752 -1.12577 -2.78733e-15)
(0.250252 -1.92964 2.11714e-15)
(4.65263 11.0852 0)
(4.23265 10.7478 -4.00804e-18)
(3.79665 10.3268 8.06091e-18)
(3.35408 9.81628 -1.00816e-16)
(2.94939 9.24114 1.24355e-16)
(2.58702 8.59026 -1.25329e-16)
(2.28537 7.8758 -1.95208e-17)
(2.0665 7.13527 2.12406e-16)
(1.93888 6.39731 2.99438e-16)
(1.90087 5.67297 0)
(1.94547 4.9806 2.36533e-16)
(2.06503 4.33547 -8.17539e-16)
(2.25122 3.73757 1.46227e-15)
(2.49452 3.1867 2.90003e-16)
(2.78657 2.68571 -5.87683e-16)
(3.1214 2.23436 -5.72522e-16)
(3.49221 1.83296 -5.51084e-16)
(3.89246 1.48139 0)
(4.31633 1.17879 0)
(4.75867 0.923757 0)
(5.2149 0.715144 8.44326e-16)
(5.68106 0.551965 0)
(6.15337 0.433779 -6.10571e-16)
(6.62642 0.360055 -8.13565e-17)
(7.09183 0.329501 -5.70653e-16)
(7.5414 0.338265 -5.13741e-16)
(7.97101 0.381004 0)
(8.37915 0.453105 -1.01841e-16)
(8.76512 0.550207 -2.77633e-17)
(9.12914 0.667829 5.18656e-18)
(9.47276 0.802243 5.40675e-16)
(9.79861 0.950191 -3.88891e-18)
(10.1121 1.10971 7.44342e-16)
(10.4181 1.28105 -5.97876e-16)
(10.7326 1.46728 0)
(11.0535 1.67959 -6.77968e-18)
(11.4542 1.93663 -2.64786e-17)
(11.8329 2.3159 -3.02701e-16)
(12.6318 2.91717 4.67949e-18)
(5.3951 10.9692 -2.99826e-18)
(5.8316 11.2228 0)
(6.32226 11.4606 -1.12916e-16)
(6.84448 11.6585 1.37993e-16)
(7.37143 11.8043 -8.84383e-17)
(7.91982 11.9014 2.05179e-16)
(8.47089 11.9425 -2.35255e-16)
(9.00976 11.9257 -2.39079e-16)
(9.53364 11.8527 0)
(10.0327 11.7236 -2.90127e-16)
(10.4983 11.5413 -2.69584e-16)
(10.9253 11.3109 2.58125e-16)
(11.307 11.0399 8.06193e-16)
(11.6391 10.7377 2.69631e-16)
(11.9198 10.4143 -7.66522e-16)
(12.1502 10.0798 -4.90427e-16)
(12.3337 9.74133 3.51429e-16)
(12.4748 9.40125 2.29112e-16)
(12.5802 9.06033 -1.09367e-16)
(12.6726 8.73301 1.05596e-16)
(12.8026 8.44504 2.55133e-16)
(12.9297 8.13031 4.83327e-17)
(12.588 7.48089 -4.90868e-17)
(10.9263 6.1548 -3.59291e-16)
(7.70516 4.29985 0)
(3.98922 2.57244 -2.81321e-16)
(1.14334 1.47435 -1.63559e-16)
(-0.534972 0.93951 -1.657e-16)
(-1.54244 0.677141 -5.80225e-16)
(-2.24298 0.510687 1.98036e-15)
(-2.7503 0.346873 7.7592e-16)
(-3.04357 0.134017 2.39679e-17)
(-3.05813 -0.121682 -3.4297e-18)
(-2.64583 -0.410147 0)
(-1.96981 -0.598704 -1.28502e-15)
(-0.764508 -0.7267 0)
(-1.01781 -0.820319 0)
(0.859426 -1.18465 1.27484e-15)
(0.0975273 -2.00404 -1.32734e-17)
(4.99153 10.6886 6.77311e-18)
(4.60356 10.3743 -1.66154e-18)
(4.19904 9.9831 -4.68591e-18)
(3.78712 9.50921 1.47965e-17)
(3.40899 8.97756 -1.39662e-16)
(3.06737 8.37664 1.3991e-16)
(2.7788 7.71702 3.35935e-17)
(2.56427 7.03374 -1.99779e-16)
(2.43148 6.35318 -2.57445e-16)
(2.37848 5.68512 -3.27516e-16)
(2.39907 5.04589 -8.44004e-16)
(2.48707 4.44677 0)
(2.63515 3.88662 -5.16032e-16)
(2.83571 3.36583 -1.355e-17)
(3.08299 2.88676 0)
(3.37284 2.44932 -5.00715e-16)
(3.70013 2.05447 -2.41703e-16)
(4.05968 1.70302 -2.3672e-16)
(4.44662 1.39538 8.8542e-16)
(4.8562 1.13147 8.30592e-16)
(5.28385 0.911315 -9.5242e-17)
(5.7254 0.73472 7.13501e-16)
(6.17672 0.601788 1.66961e-16)
(6.63229 0.512238 -7.60299e-17)
(7.08377 0.465169 5.04628e-16)
(7.52288 0.457702 3.14425e-17)
(7.945 0.485233 0)
(8.34806 0.543393 0)
(8.73089 0.627979 -5.08988e-18)
(9.09333 0.73468 1.37905e-17)
(9.43652 0.859773 -5.24545e-16)
(9.76271 1.00007 -3.62079e-18)
(10.0769 1.15357 7.40186e-16)
(10.3837 1.32066 5.65956e-16)
(10.6981 1.50429 1.15479e-17)
(11.018 1.71659 -4.26624e-18)
(11.4127 1.97477 1.01138e-15)
(11.7814 2.36258 2.00766e-16)
(12.5254 2.96102 -3.98374e-18)
(5.67347 10.5993 -1.26008e-18)
(6.07831 10.8392 0)
(6.5334 11.0665 4.83729e-17)
(7.0171 11.2579 0)
(7.50371 11.4021 -1.50373e-16)
(8.01042 11.5037 1.51729e-16)
(8.51985 11.5557 1.82214e-16)
(9.01874 11.5563 2.2815e-16)
(9.50543 11.5074 0)
(9.97171 11.4091 -2.28982e-16)
(10.4112 11.2628 2.83652e-16)
(10.8198 11.072 -5.27017e-16)
(11.1915 10.8427 -2.6465e-16)
(11.5225 10.582 -2.42879e-16)
(11.8108 10.2976 4.9076e-16)
(12.0563 9.99773 4.73082e-16)
(12.2615 9.68925 -4.53978e-16)
(12.4299 9.37558 -4.22931e-16)
(12.5635 9.05508 0)
(12.665 8.72738 9.97496e-17)
(12.7585 8.40948 -1.9128e-16)
(12.8933 8.1189 4.50332e-17)
(12.9526 7.73521 -1.05987e-18)
(12.3303 6.92443 8.10518e-16)
(10.264 5.46902 -5.02602e-17)
(6.87019 3.67415 2.99613e-17)
(3.38466 2.17589 1.35037e-16)
(0.908671 1.28732 1.67921e-16)
(-0.54648 0.845484 5.19398e-16)
(-1.47202 0.591184 -9.78577e-16)
(-2.12832 0.371993 -7.46487e-16)
(-2.55141 0.111485 -2.68056e-15)
(-2.68169 -0.193522 2.03018e-15)
(-2.35936 -0.523737 -2.57337e-17)
(-1.75645 -0.740447 1.19046e-15)
(-0.568758 -0.828397 -4.02747e-17)
(-0.847153 -0.917997 2.14869e-17)
(0.737501 -1.23069 -2.12675e-17)
(-0.062123 -2.05536 1.94039e-15)
(5.29849 10.335 -5.38766e-18)
(4.93819 10.0407 -1.04925e-18)
(4.56108 9.67527 1.17606e-17)
(4.17591 9.23298 0)
(3.82132 8.73865 8.48008e-17)
(3.49863 8.18051 0)
(3.22291 7.56806 0)
(3.01411 6.93401 0)
(2.87923 6.30339 5.19296e-16)
(2.81598 5.68521 -3.3124e-16)
(2.81901 5.09287 3.96062e-16)
(2.88235 4.53543 0)
(2.99925 4.01144 0)
(3.16442 3.52069 -4.63898e-16)
(3.37355 3.06512 0)
(3.62382 2.64441 4.60669e-16)
(3.91162 2.25954 1.00917e-17)
(4.23312 1.912 0)
(4.58447 1.60299 -6.2199e-16)
(4.96164 1.33345 -9.70052e-16)
(5.36038 1.10433 -7.12738e-16)
(5.77656 0.916346 -6.66109e-16)
(6.20601 0.770174 1.21312e-15)
(6.64315 0.665924 0)
(7.07967 0.603235 4.73197e-16)
(7.50722 0.580155 4.86974e-16)
(7.9208 0.592772 2.06079e-16)
(8.31782 0.637072 0)
(8.6967 0.709067 -2.04105e-17)
(9.05685 0.804637 -1.43205e-16)
(9.399 0.920159 4.94316e-16)
(9.72505 1.05251 -3.3574e-18)
(10.0395 1.19972 -6.74769e-16)
(10.3467 1.36228 5.26728e-16)
(10.6607 1.54303 3.76869e-18)
(10.9793 1.75497 1.05797e-17)
(11.3673 2.01404 -1.02892e-15)
(11.726 2.40856 -1.87358e-16)
(12.4156 3.00284 -1.42307e-15)
(5.92902 10.2668 -2.44362e-18)
(6.30644 10.4944 5.30805e-18)
(6.73071 10.7119 0)
(7.18116 10.8966 9.09999e-17)
(7.63307 11.0384 0)
(8.10379 11.1425 0)
(8.5771 11.2021 8.15042e-19)
(9.04098 11.2159 1.83548e-16)
(9.49489 11.1855 4.10931e-16)
(9.9314 11.1118 9.26008e-16)
(10.346 10.9949 4.47918e-16)
(10.7356 10.8373 4.47987e-16)
(11.0954 10.6434 0)
(11.4219 10.4185 6.68446e-16)
(11.7132 10.1685 -2.18198e-16)
(11.9683 9.89997 0)
(12.1885 9.6187 4.09108e-16)
(12.3765 9.32864 4.08014e-16)
(12.5346 9.03 0)
(12.6618 8.7193 3.70012e-16)
(12.7595 8.39705 -3.58522e-16)
(12.8591 8.08388 0)
(12.9931 7.77174 -4.3591e-17)
(12.9247 7.28199 1.54362e-17)
(11.956 6.30247 2.21032e-17)
(9.50795 4.75948 3.94089e-16)
(6.047 3.08194 -3.09612e-19)
(2.86789 1.81961 -1.59353e-17)
(0.743729 1.10289 -1.64375e-17)
(-0.538878 0.713242 3.09421e-17)
(-1.39863 0.420554 8.34303e-16)
(-1.98392 0.104065 2.66479e-15)
(-2.25616 -0.256166 3.54139e-17)
(-2.04812 -0.632737 -1.45275e-15)
(-1.53657 -0.882132 -1.0575e-15)
(-0.385829 -0.927951 -1.55319e-15)
(-0.668396 -1.005 -1.2259e-15)
(0.627019 -1.26258 3.85259e-17)
(-0.224499 -2.08507 -1.87372e-15)
(5.57876 10.0172 4.21439e-18)
(5.2425 9.74052 -1.32854e-17)
(4.88935 9.39759 4.31455e-17)
(4.52782 8.98287 0)
(4.19416 8.52097 1.69923e-16)
(3.88881 8 0)
(3.62553 7.42845 -1.57083e-16)
(3.42322 6.83724 7.47327e-16)
(3.28836 6.25061 -6.97489e-16)
(3.21833 5.67669 0)
(3.20815 5.12594 7.13117e-16)
(3.25205 4.60614 7.52589e-16)
(3.34393 4.11605 0)
(3.47994 3.65464 -8.0401e-16)
(3.65669 3.22317 2.07206e-16)
(3.87246 2.82089 -2.0382e-16)
(4.12484 2.44865 2.06718e-16)
(4.41121 2.10808 3.89906e-16)
(4.72879 1.80087 -2.78666e-18)
(5.07437 1.52867 5.23485e-16)
(5.44428 1.29324 1.73229e-16)
(5.83468 1.09601 -1.56794e-16)
(6.24161 0.938208 -5.69108e-16)
(6.65952 0.820544 5.16933e-16)
(7.08015 0.74327 -4.18743e-16)
(7.49514 0.705265 -4.89289e-16)
(7.89918 0.703374 -1.95599e-16)
(8.28925 0.733983 -2.62506e-18)
(8.66333 0.793373 2.19865e-17)
(9.02047 0.877694 1.36509e-16)
(9.36098 0.983434 1.42753e-18)
(9.68637 1.1076 -3.09092e-18)
(10.0007 1.24825 6.76627e-16)
(10.3078 1.406 -5.36618e-16)
(10.6211 1.58363 1.09229e-17)
(10.938 1.79486 -5.57116e-16)
(11.3185 2.0544 5.07037e-16)
(11.667 2.45385 0)
(12.3034 3.04277 1.37793e-15)
(6.16456 9.96604 -1.72399e-18)
(6.51798 10.1824 0)
(6.91522 10.3906 0)
(7.33655 10.5689 -1.76357e-16)
(7.75817 10.7076 -5.01997e-18)
(8.19739 10.8129 0)
(8.63901 10.8779 0)
(9.07199 10.9018 -6.61044e-16)
(9.49666 10.8859 -2.97096e-17)
(9.90626 10.8319 -3.09893e-17)
(10.2977 10.7391 -1.06106e-15)
(10.669 10.6089 -2.31065e-16)
(11.0159 10.4447 4.08013e-16)
(11.3358 10.2504 -2.19662e-17)
(11.6266 10.0306 0)
(11.8871 9.79028 0)
(12.1177 9.53411 -1.15801e-15)
(12.3199 9.26571 -1.89852e-16)
(12.4958 8.98644 1.80669e-16)
(12.6459 8.69458 -3.57288e-16)
(12.7667 8.38548 6.8517e-16)
(12.8622 8.06306 3.31072e-16)
(12.9724 7.74484 -3.24889e-16)
(13.0796 7.38304 -3.69148e-16)
(12.8156 6.76103 6.16e-17)
(11.457 5.6222 -3.70145e-16)
(8.68524 4.05034 -4.84709e-17)
(5.28477 2.54037 1.36204e-17)
(2.46457 1.49792 -1.4833e-17)
(0.63983 0.89946 5.81645e-17)
(-0.515914 0.502112 -2.67845e-18)
(-1.30734 0.116915 -1.47036e-15)
(-1.75592 -0.306383 -2.73888e-17)
(-1.69405 -0.735095 2.08395e-17)
(-1.29887 -1.02241 0)
(-0.209928 -1.02557 1.42818e-15)
(-0.481614 -1.08084 1.12766e-15)
(0.534161 -1.27946 0)
(-0.384958 -2.09261 0)
(5.83607 9.7296 0)
(5.52088 9.46854 1.51381e-17)
(5.18898 9.14551 -7.82034e-17)
(4.84849 8.75512 -5.80663e-17)
(4.53366 8.32173 -1.59702e-16)
(4.24415 7.83335 0)
(3.99277 7.29766 0)
(3.79743 6.74419 -3.51682e-16)
(3.66396 6.1967 4.47387e-16)
(3.58975 5.66176 0)
(3.56971 5.1479 -3.24108e-16)
(3.59818 4.66244 -3.56218e-16)
(3.67001 4.20393 3.58043e-16)
(3.78199 3.77057 3.80673e-16)
(3.93143 3.36306 -7.30945e-16)
(4.11729 2.98018 0)
(4.33816 2.62238 -1.82622e-16)
(4.59244 2.29124 9.8561e-19)
(4.87835 1.98859 8.50874e-16)
(5.19358 1.71644 -1.73706e-16)
(5.53515 1.47717 1.65672e-16)
(5.89972 1.27279 -1.40536e-16)
(6.28367 1.10511 1.9959e-16)
(6.6817 0.975434 -1.03492e-15)
(7.08566 0.884697 -3.91438e-16)
(7.48718 0.832613 3.79845e-16)
(7.88073 0.816742 -2.40953e-17)
(8.26293 0.833945 0)
(8.63141 0.880837 -1.86107e-17)