/*--------------------------------*- C++ -*----------------------------------*\
  =========                 |
  \\      /  F ield         | OpenFOAM: The Open Source CFD Toolbox
   \\    /   O peration     | Website:  https://openfoam.org
    \\  /    A nd           | Version:  9
     \\/     M anipulation  |
\*---------------------------------------------------------------------------*/
FoamFile
{
    format      ascii;
    class       volScalarField;
    location    "0.2";
    object      alpha.water;
}
// * * * * * * * * * * * * * * * * * * * * * * * * * * * * * * * * * * * * * //

dimensions      [0 0 0 0 0 0 0];

internalField   nonuniform List<scalar> 
2268
(
0.949764
0.676687
-1.49588e-08
-4.51122e-08
-2.35763e-08
-1.17064e-09
-8.15306e-12
2.53758e-12
1.18448e-12
1.32383e-13
4.17852e-15
5.15258e-19
1.70392e-24
1.04417e-24
5.61287e-25
2.61266e-25
1.14833e-25
5.10573e-26
2.79769e-26
1.76073e-26
4.60707e-27
3.39822e-28
1.50594e-28
0.949764
0.552657
-4.62308e-10
-1.90875e-08
-5.69318e-09
-7.44463e-27
2.07191e-10
7.31458e-12
7.51935e-14
3.81346e-14
5.71186e-15
5.01429e-18
3.07579e-24
2.11856e-24
1.25922e-24
6.89721e-25
3.72311e-25
3.06936e-25
2.62225e-25
1.02761e-25
1.43487e-26
6.51209e-28
1.06813e-28
0.938313
0.420743
-1.09554e-11
-1.20967e-08
-3.38945e-09
9.30741e-11
4.75181e-10
2.65374e-11
1.7738e-12
4.91126e-13
8.39887e-14
6.67853e-18
5.60273e-23
3.66309e-23
2.0731e-23
1.07016e-23
4.61252e-24
1.80236e-24
7.13465e-25
2.07414e-25
2.009e-26
5.53726e-28
6.48965e-29
0.91416
0.281455
-2.65732e-13
-8.21147e-09
-2.43891e-09
4.5847e-10
6.29403e-10
6.77988e-11
1.84683e-11
3.74574e-12
5.08573e-13
-8.48184e-19
8.52387e-22
2.09456e-22
-3.29492e-23
8.07679e-23
3.37481e-23
6.24728e-24
1.16575e-24
2.63547e-25
2.06466e-26
2.65731e-28
3.58014e-29
0.905172
0.265824
-7.74407e-15
-5.25262e-09
-1.49508e-09
5.50215e-10
7.05293e-10
1.54846e-10
4.2314e-11
7.60362e-12
8.80206e-13
-2.17538e-18
5.27181e-20
4.27042e-21
1.74323e-21
7.5691e-22
1.58932e-22
2.12029e-23
1.95244e-24
2.48914e-25
1.71904e-26
3.37171e-28
8.66661e-30
0.914401
0.289892
-5.30231e-14
-2.85272e-09
-2.84177e-10
3.09238e-10
8.82509e-10
3.56391e-10
1.10163e-10
1.95829e-11
7.08674e-13
-3.48952e-18
2.45728e-19
4.86355e-20
1.49053e-20
4.00315e-21
6.3273e-22
7.54382e-23
6.43341e-24
4.07387e-25
1.47806e-26
2.9866e-28
6.70772e-30
0.938799
0.326716
-5.85161e-15
-5.51715e-10
8.82574e-10
3.38284e-09
1.90469e-09
8.65329e-10
4.99825e-10
1.22161e-10
1.7638e-12
-3.22694e-18
2.83416e-19
1.7484e-19
7.76394e-20
1.8534e-20
2.75581e-21
3.04495e-22
2.15559e-23
8.18584e-25
1.34937e-26
1.57798e-28
6.97748e-30
0.961824
0.403227
1.46864e-09
2.72168e-25
1.32831e-08
2.09496e-08
7.23975e-09
2.47676e-09
8.80359e-10
2.75638e-10
-2.94217e-14
0
5.73717e-19
1.2524e-19
1.63469e-19
3.99858e-20
5.70611e-21
4.57415e-22
3.3952e-23
9.43759e-25
9.24056e-27
1.80533e-29
4.77268e-30
8.38943e-71
2.30354e-70
1.43621e-68
4.03517e-67
8.0441e-66
4.54118e-65
7.49485e-65
2.6043e-65
4.46233e-67
-5.19916e-70
2.64321e-71
1.38357e-73
5.72493e-76
1.95261e-78
5.35481e-81
9.85681e-84
6.98551e-87
3.30527e-89
5.87629e-92
2.81689e-70
4.96055e-68
5.08307e-66
2.15287e-64
7.44781e-63
3.39979e-62
3.66896e-64
5.59706e-64
2.97485e-65
5.00192e-67
3.2284e-69
1.50486e-71
5.92194e-74
1.96086e-76
5.38105e-79
1.03099e-81
2.80147e-84
1.60338e-86
1.82994e-91
3.49575e-68
2.28674e-66
6.49812e-64
5.31826e-62
2.20262e-60
1.03854e-59
2.31124e-61
1.39151e-61
5.08563e-63
3.6473e-65
1.91558e-67
8.38212e-70
3.15441e-72
1.01925e-74
2.72488e-77
6.46281e-80
1.08243e-81
2.06737e-84
6.39368e-89
1.59994e-65
5.67072e-64
3.356e-62
8.4919e-60
3.94744e-58
1.88687e-57
6.63826e-59
1.68122e-59
2.5098e-61
1.59383e-63
7.72306e-66
3.18839e-68
1.15299e-70
3.50651e-73
1.02939e-75
1.66512e-77
7.59145e-80
1.40189e-82
7.79604e-87
-1.6669e-62
1.10221e-61
7.99903e-60
1.19533e-57
4.85305e-56
2.29353e-55
1.1627e-56
1.14008e-57
9.28456e-60
5.29464e-62
2.3795e-64
9.02901e-67
3.09542e-69
1.13434e-71
1.48696e-73
1.03204e-75
3.50417e-78
6.76849e-81
5.36573e-85
8.00655e-61
2.68167e-58
8.28381e-56
1.37988e-54
6.90184e-54
1.68789e-53
1.40307e-54
3.92849e-56
2.74941e-58
1.42433e-60
5.96812e-63
2.94857e-65
7.0962e-67
6.65009e-69
3.07326e-71
1.09965e-73
3.06621e-76
5.9134e-79
2.96782e-83
5.15751e-58
2.10548e-56
3.74811e-53
1.99419e-51
7.60149e-51
3.92769e-53
1.2995e-52
1.15608e-54
7.06943e-57
3.32405e-59
1.30768e-61
1.08557e-63
1.52183e-65
7.89038e-68
3.12095e-70
1.05555e-72
2.94348e-75
5.97396e-78
9.77289e-82
-3.41545e-53
1.19722e-53
9.281e-51
4.58089e-49
1.75947e-48
3.91139e-50
3.50713e-51
2.45861e-53
1.28822e-55
5.47718e-58
2.00751e-60
6.71661e-63
2.02695e-65
5.79716e-68
1.60352e-70
3.92723e-73
7.55559e-76
1.20364e-79
6.22983e-81
0.984246
0.592584
0.002872
1.47451e-09
1.92823e-07
3.52609e-07
6.93305e-08
1.59335e-08
2.92789e-09
1.28886e-10
-9.58478e-14
5.72627e-18
9.85611e-18
2.34102e-18
9.26976e-19
2.12874e-19
3.0353e-20
2.84359e-21
1.55071e-22
4.54471e-24
7.27632e-26
3.00802e-28
-1.36502e-31
0.993973
0.831405
0.0937511
2.09425e-08
2.79777e-05
5.24067e-06
9.55919e-07
2.14279e-07
3.09565e-08
2.79891e-09
-4.56675e-13
1.41738e-16
1.2382e-16
1.76403e-17
5.01449e-18
1.38434e-18
2.29062e-19
2.08548e-20
1.18932e-21
3.93778e-23
7.27674e-25
4.64107e-27
3.52736e-30
0.997206
0.958057
0.418593
0.0096295
0.000498868
6.06537e-05
1.15454e-05
1.83205e-06
2.28372e-07
2.81575e-08
-2.72248e-13
9.30662e-16
9.12929e-16
2.15645e-16
3.46149e-17
9.98525e-18
1.5883e-18
1.50109e-19
8.94686e-21
3.21538e-22
7.04419e-24
5.65299e-26
7.68279e-29
0.99869
0.986948
0.810566
0.105589
0.00490044
0.00058275
0.000121001
1.76659e-05
1.63687e-06
5.98209e-09
-1.90123e-13
4.28832e-15
4.87782e-15
2.05807e-15
2.77825e-16
6.63706e-17
1.07074e-17
1.0724e-18
6.82748e-20
2.70112e-21
6.87382e-23
6.95925e-25
1.2962e-27
0.999401
0.994331
0.964837
0.472272
0.0387199
0.00484226
0.00100264
0.00014941
1.60235e-05
7.14904e-13
-1.40066e-13
1.49851e-14
2.08725e-14
1.44875e-14
2.68127e-15
4.06575e-16
6.96275e-17
7.45962e-18
5.11169e-19
2.22232e-20
6.44482e-22
7.7284e-24
1.87412e-26
0.999731
0.997789
0.988467
0.881474
0.264822
0.0343182
0.007763
0.00102581
0.000133249
1.19992e-11
-9.60035e-14
4.43434e-14
7.902e-14
7.47426e-14
2.35354e-14
2.34195e-15
4.36162e-16
5.02783e-17
3.71834e-18
1.76918e-19
5.75463e-21
7.87441e-23
2.46531e-25
0.999886
0.999107
0.995021
0.983005
0.773288
0.266173
0.0584594
0.0154061
0.000777724
7.70947e-12
-4.49977e-14
1.10344e-13
2.7829e-13
3.10275e-13
1.64681e-13
1.72777e-14
2.60935e-15
3.26554e-16
2.60351e-17
1.34714e-18
4.85013e-20
7.38347e-22
2.97974e-24
0.999951
0.999599
0.998194
0.99442
0.980324
0.803512
0.370852
0.0682313
0.00369028
1.19013e-14
-8.35706e-16
2.52742e-13
8.79469e-13
1.14819e-12
9.39621e-13
1.673e-13
1.34677e-14
2.01458e-15
1.74615e-16
9.76255e-18
3.85025e-19
6.41006e-21
3.20208e-23
0.999978
0.999827
0.99936
0.998053
0.992795
0.974635
0.864285
0.327173
0.0109653
-2.94877e-13
1.11804e-14
4.87085e-13
2.46763e-12
4.04301e-12
4.1581e-12
1.39163e-12
1.02089e-13
1.08649e-14
1.05691e-15
6.71804e-17
2.88138e-18
5.18516e-20
3.11946e-22
0.99999
0.99993
0.999753
0.999181
0.996633
0.990127
0.973546
0.718842
0.0527961
1.39497e-13
5.66986e-14
8.45047e-13
5.96456e-12
1.25151e-11
1.47896e-11
8.44963e-12
1.10625e-12
9.59039e-14
6.36861e-15
4.23142e-16
2.03217e-17
3.93066e-19
2.78763e-21
0.999996
0.999972
0.9999
0.999659
0.998676
0.995744
0.987157
0.898191
0.200245
2.58948e-13
1.39542e-13
1.13744e-12
1.23906e-11
3.20722e-11
4.15439e-11
3.36876e-11
7.62939e-12
1.17035e-12
7.54136e-14
2.51589e-15
1.20743e-16
2.75446e-18
2.30729e-20
0.999998
0.999989
0.99996
0.999863
0.999478
0.998335
0.99463
0.956242
0.483557
0.00621385
2.59345e-13
1.35998e-12
2.1031e-11
6.68349e-11
9.35368e-11
8.82588e-11
2.71377e-11
7.74129e-12
9.1418e-13
2.85872e-14
9.9981e-16
1.66067e-17
1.78033e-19
0.999999
0.999995
0.999984
0.999946
0.999794
0.999347
0.997125
0.976301
0.733036
0.042581
3.87767e-13
1.40121e-12
3.02939e-11
1.16398e-10
1.76722e-10
1.67531e-10
6.31904e-11
2.66342e-11
5.69075e-12
3.70687e-13
1.51223e-14
2.47494e-16
1.25056e-18
1
0.999998
0.999994
0.999978
0.999919
0.999722
0.998093
0.985914
0.87766
0.175079
4.85502e-13
1.9709e-12
3.79508e-11
1.91048e-10
3.14991e-10
3.20499e-10
3.06062e-10
4.59059e-11
2.10195e-11
2.7726e-12
1.51673e-13
5.29956e-15
8.26841e-18
1
0.999999
0.999998
0.999991
0.999968
0.999868
0.998845
0.992539
0.949284
0.445965
5.6614e-13
3.80291e-12
3.64254e-11
3.19837e-10
7.30578e-10
1.44838e-09
2.89299e-09
4.92834e-11
4.65215e-11
1.47453e-11
9.48389e-13
4.91694e-14
2.05233e-16
1
1
0.999999
0.999997
0.999987
0.999922
0.99941
0.996376
0.975605
0.677738
0.0159033
7.47483e-12
9.56578e-12
1.04385e-09
3.92555e-09
4.86177e-09
6.48512e-09
7.23379e-11
6.96364e-11
5.03272e-11
4.46502e-12
3.17982e-13
4.81738e-15
1
1
1
0.999999
0.999994
0.999955
0.999716
0.998079
0.985182
0.809977
0.0678772
1.06629e-11
1.88574e-11
5.22757e-09
2.06824e-08
9.2511e-09
5.43087e-09
1.07907e-10
1.3894e-10
1.05266e-10
1.63126e-11
1.53364e-12
4.08247e-14
1
1
1
0.999999
0.999997
0.999978
0.999857
0.998921
0.990947
0.894557
0.197125
1.88574e-11
-2.65319e-11
5.59624e-09
1.7662e-07
3.05101e-07
9.44747e-10
2.57891e-10
4.07571e-10
1.56101e-10
4.67633e-11
5.55659e-12
2.36265e-13
1
1
1
1
0.999998
0.99999
0.999926
0.999409
0.994917
0.948034
0.387409
4.33745e-11
1.15075e-10
3.97676e-09
6.40714e-07
1.3837e-06
2.43785e-09
8.4845e-10
6.35555e-10
2.28363e-10
1.06338e-10
1.54497e-11
1.01308e-12
1
1
1
1
0.999999
0.999995
0.999963
0.999688
0.997262
0.974131
0.566005
0.000493606
2.49932e-09
2.29946e-07
2.55004e-06
1.38635e-06
6.04791e-09
9.09351e-09
1.08721e-09
4.32521e-10
1.96956e-10
3.43444e-11
3.30437e-12
1
1
1
1
1
0.999998
0.999981
0.999837
0.998481
0.984467
0.688905
0.0142684
1.49682e-08
1.54707e-06
9.43948e-06
1.26503e-06
7.48301e-08
1.00012e-07
3.19086e-09
1.26867e-09
3.25227e-10
6.37857e-11
8.40811e-12
1
1
1
1
1
0.999999
0.999991
0.999913
0.999111
0.989582
0.778178
0.055127
6.28072e-08
5.41228e-06
2.42195e-05
2.96081e-06
8.38307e-07
1.71988e-07
2.66126e-08
3.29628e-09
5.54669e-10
1.03151e-10
1.70816e-11
1
1
1
1
1
1
0.999995
0.999952
0.999466
0.993067
0.844564
0.120418
1.68783e-07
9.37232e-06
4.263e-05
6.15046e-06
1.87505e-06
4.01256e-07
6.50612e-08
8.39972e-09
1.05139e-09
1.51107e-10
2.86234e-11
1
1
1
1
1
1
0.999998
0.999974
0.99968
0.99554
0.889898
0.170818
3.04521e-07
9.44651e-06
7.08988e-05
1.00007e-05
3.60572e-06
6.91962e-07
1.14563e-07
1.5771e-08
1.84937e-09
2.09916e-10
4.12588e-11
1
1
1
1
1
1
1
0.999988
0.999808
0.99712
0.923522
0.219386
4.22492e-07
6.16727e-06
0.000160505
1.38475e-05
5.39226e-06
9.87738e-07
1.65717e-07
2.33991e-08
2.79199e-09
2.80535e-10
5.36089e-11
1
1
1
1
1
0.999999
0.999999
0.999997
0.999906
0.998188
0.953894
0.331192
4.91316e-07
1.95388e-06
0.000247391
2.49281e-05
6.5279e-06
1.21742e-06
2.02851e-07
2.92114e-08
3.56064e-09
3.47284e-10
6.39183e-11
0.999998
0.999996
0.999997
0.999996
0.999993
0.999994
0.999995
0.999995
0.99998
0.999227
0.979045
0.538821
5.16816e-07
6.27986e-05
0.000250412
3.42953e-05
7.36672e-06
1.33151e-06
2.19099e-07
3.1929e-08
3.90268e-09
3.84237e-10
6.98545e-11
0.999986
0.999963
0.999962
0.999952
0.999923
0.99992
0.999936
0.999941
0.999922
0.999735
0.99291
0.676342
1.38507e-06
0.000769989
0.000251827
3.66264e-05
7.51285e-06
1.42663e-06
2.42755e-07
3.47628e-08
4.18554e-09
4.11518e-10
7.14432e-11
0.999889
0.999704
0.999574
0.999518
0.999276
0.999003
0.999136
0.999206
0.999191
0.998844
0.993757
0.655042
3.70937e-06
0.0011128
0.000235569
3.68374e-05
8.08793e-06
1.5586e-06
2.54802e-07
3.54423e-08
4.21949e-09
4.15092e-10
6.91629e-11
0.999266
0.997793
0.996912
0.995565
0.994347
0.992341
0.990309
0.991193
0.991661
0.990762
0.974693
0.515945
0.00133303
0.00109795
0.000175328
3.89225e-05
8.68759e-06
1.61433e-06
2.54525e-07
3.44833e-08
4.01619e-09
3.96748e-10
6.09304e-11
0.995628
0.983357
0.979695
0.969027
0.947124
0.918068
0.893104
0.870663
0.850985
0.828485
0.762571
0.255422
0.00461746
0.000980538
0.000145154
4.01464e-05
8.61202e-06
1.54191e-06
2.35241e-07
3.0124e-08
3.40125e-09
3.34291e-10
4.95531e-11
0.975431
0.888256
0.800558
0.698438
0.573283
0.470325
0.387825
0.334678
0.295042
0.257758
0.194192
0.0565918
0.0107299
0.00104508
0.000144981
3.52045e-05
7.20871e-06
1.24768e-06
1.8297e-07
2.23625e-08
2.45349e-09
2.33867e-10
4.17629e-11
0.883246
0.46968
0.24204
0.140426
0.0707026
0.0396687
0.034558
0.0310565
0.0280958
0.025051
0.0207567
0.0128847
0.00948702
0.0010276
0.000135068
2.88716e-05
5.59493e-06
9.64001e-07
1.44482e-07
1.86523e-08
1.99567e-09
1.8146e-10
3.16249e-11
0.461436
0.063425
0.0305221
0.0235361
0.0182478
0.014973
0.0127765
0.0112036
0.00986492
0.00849524
0.00672958
0.00406431
0.00320982
0.000581499
7.82257e-05
1.63338e-05
3.11169e-06
5.20243e-07
7.50122e-08
9.21944e-09
9.55133e-10
8.82198e-11
1.44265e-11
0.0482474
0.0235597
0.0125385
0.00899154
0.00679518
0.00547545
0.00457296
0.00388701
0.00330733
0.00272071
0.00204207
0.00121628
0.000552306
0.000160122
2.80807e-05
5.99993e-06
1.13934e-06
1.86178e-07
2.59997e-08
3.08543e-09
3.08942e-10
2.80405e-11
3.94239e-12
0.0197135
0.0113587
0.00525598
0.00341095
0.00246893
0.00193278
0.0015693
0.00129304
0.00105599
0.000822469
0.000576069
0.000334377
0.000131075
3.75623e-05
7.43919e-06
1.5008e-06
2.68587e-07
4.15092e-08
5.50276e-09
6.20009e-10
5.87837e-11
4.95072e-12
5.59839e-13
0.00762635
0.00476026
0.00218583
0.00128974
0.000880312
0.00066098
0.000518308
0.000412879
0.000320938
0.000234622
0.000151684
7.67924e-05
2.88101e-05
8.07878e-06
1.67348e-06
2.84442e-07
4.6184e-08
6.59976e-09
8.06469e-10
8.36509e-11
7.42761e-12
5.52601e-13
4.25042e-14
0.0026806
0.00183737
0.000882592
0.000471619
0.000302261
0.000216241
0.000164083
0.000125727
9.26991e-05
6.32633e-05
3.7686e-05
1.76836e-05
6.20394e-06
1.64359e-06
3.08396e-07
4.81232e-08
6.59019e-09
8.02159e-10
8.3181e-11
7.75116e-12
6.34208e-13
4.1843e-14
2.2665e-15
0.000879718
0.000685554
0.000316892
0.00016459
9.91021e-05
6.72375e-05
4.82572e-05
3.4741e-05
2.44845e-05
1.59275e-05
8.84212e-06
3.86619e-06
1.27072e-06
3.13487e-07
5.2981e-08
7.30684e-09
8.26552e-10
8.26572e-11
7.0296e-12
5.68318e-13
3.72933e-14
1.84957e-15
7.08284e-17
0.000369181
0.000290662
0.000131436
6.56703e-05
3.76639e-05
2.40919e-05
1.61693e-05
1.07906e-05
6.85498e-06
3.92924e-06
2.02441e-06
8.22207e-07
2.49745e-07
5.64604e-08
8.43333e-09
9.44275e-10
1.00955e-10
8.84086e-12
6.4317e-13
3.41207e-14
1.41732e-15
4.76208e-17
1.19192e-18
0.000183428
0.000119132
5.64451e-05
2.93079e-05
1.70887e-05
1.07175e-05
6.82183e-06
4.19701e-06
2.39071e-06
1.20601e-06
5.12076e-07
1.73998e-07
4.74604e-08
9.68586e-09
1.24154e-09
1.33096e-10
1.30795e-11
1.19859e-12
4.04245e-14
9.95989e-16
1.83654e-17
2.41504e-19
8.30852e-22
0.000119558
5.67572e-05
2.94905e-05
1.72006e-05
1.07904e-05
6.86857e-06
4.22411e-06
2.40443e-06
1.21183e-06
5.14114e-07
1.74586e-07
4.62969e-08
9.44147e-09
1.45812e-09
1.89141e-10
1.97084e-11
2.64951e-12
1.42978e-13
2.61174e-16
-5.24513e-22
-6.9854e-24
-8.3563e-24
-2.95856e-24
4.74539e-33
-3.14271e-36
-3.37212e-39
-1.73884e-49
1.32034e-31
4.74587e-33
-3.30467e-35
-2.19395e-35
3.85987e-30
2.62226e-31
1.41707e-32
-1.92639e-33
8.13352e-29
7.3799e-30
6.70993e-31
4.71849e-32
1.39215e-27
1.48433e-28
1.63737e-29
2.37782e-30
2.00088e-26
2.34803e-27
2.82632e-28
5.03192e-29
2.49724e-25
3.11909e-26
3.92054e-27
7.38693e-28
2.76912e-24
3.61619e-25
4.65152e-26
8.87287e-27
2.7738e-23
3.7504e-24
4.88784e-25
9.2376e-26
2.54155e-22
3.53839e-23
4.64946e-24
8.60829e-25
2.15107e-21
3.07428e-22
4.06345e-23
7.32996e-24
1.80271e-20
2.46241e-21
3.29908e-22
6.1037e-23
1.42199e-19
1.81494e-20
2.71427e-21
5.69722e-22
1.04212e-18
1.32093e-19
2.03615e-20
4.41097e-21
7.09516e-18
8.97575e-19
1.38639e-19
3.06958e-20
4.24954e-17
5.72329e-18
8.6746e-19
1.86583e-19
2.40947e-16
3.08792e-17
4.82589e-18
1.22905e-18
2.36989e-15
2.66632e-16
2.96443e-17
9.67051e-18
2.3501e-14
3.32665e-15
2.85118e-16
6.69509e-17
1.20684e-13
2.38926e-14
2.58373e-15
3.90085e-16
4.12665e-13
1.10454e-13
1.4656e-14
1.8579e-15
1.00693e-12
3.60342e-13
6.00799e-14
6.95849e-15
1.85537e-12
8.58785e-13
1.80513e-13
2.00905e-14
2.75789e-12
1.55943e-12
4.05115e-13
4.47819e-14
3.6104e-12
2.29847e-12
7.0493e-13
7.94277e-14
4.32001e-12
2.95543e-12
1.00157e-12
1.16715e-13
4.66405e-12
3.51389e-12
1.22067e-12
1.39004e-13
4.89023e-12
4.0123e-12
1.33739e-12
1.42156e-13
5.32238e-12
4.41422e-12
1.3312e-12
1.18969e-13
5.77343e-12
4.51856e-12
1.21949e-12
9.13679e-14
5.96192e-12
4.01092e-12
8.84207e-13
5.49611e-14
5.60539e-12
2.83623e-12
4.79873e-13
2.37021e-14
3.93921e-12
1.31894e-12
1.65759e-13
6.80166e-15
1.83739e-12
3.82487e-13
3.67767e-14
1.57655e-15
5.13592e-13
7.49977e-14
7.81889e-15
4.12075e-16
6.95736e-14
9.19044e-15
9.08409e-16
5.04552e-17
4.65892e-15
5.61709e-16
4.9387e-17
3.4995e-18
2.0092e-16
2.20218e-17
1.62866e-18
1.18893e-19
4.25731e-18
4.4129e-19
2.54428e-20
1.36076e-21
3.09141e-20
3.13226e-21
1.13723e-22
1.18048e-24
-3.02508e-22
7.01374e-25
-3.00142e-26
-1.87009e-26
-2.14101e-25
-8.48818e-30
-2.12744e-30
-7.39288e-31
5.02984e-48
1.37688e-46
1.5826e-45
3.96928e-45
3.54079e-48
1.00848e-47
9.23348e-50
5.50944e-52
2.59792e-54
1.02947e-56
3.59044e-59
1.16458e-61
3.55629e-64
1.02661e-66
2.81027e-69
4.38078e-71
2.82464e-73
9.13134e-76
2.41221e-79
-7.00768e-40
1.57744e-40
4.68298e-41
3.69422e-44
1.72719e-44
4.71869e-46
3.04657e-48
1.58552e-50
6.5854e-53
2.42219e-55
7.9905e-58
2.67144e-60
8.97624e-63
2.42595e-65
2.13726e-67
2.39966e-69
1.03743e-71
2.97289e-74
8.29839e-78
-3.14363e-34
-1.39961e-36
-1.10664e-38
1.12839e-40
1.8396e-42
1.67134e-44
9.72282e-47
4.61312e-49
1.85371e-51
6.58912e-54
2.12846e-56
6.51266e-59
1.80138e-61
6.31476e-64
1.49304e-65
7.80814e-68
2.82937e-70
7.39643e-73
2.15167e-76
-1.87795e-33
2.20328e-35
2.11527e-37
5.7873e-39
4.48565e-41
2.7528e-43
2.16244e-45
1.00871e-47
3.84226e-50
1.30791e-52
4.07197e-55
1.16244e-57
3.67995e-60
7.35009e-62
4.60614e-64
1.88711e-66
6.07764e-69
1.46461e-71
4.44372e-75
7.19203e-34
5.09535e-34
-3.83439e-38
1.26972e-37
8.83942e-40
5.06125e-42
4.28343e-44
1.81031e-46
6.67465e-49
2.21285e-51
6.72146e-54
1.89161e-56
2.77903e-58
2.34845e-60
1.02992e-62
3.66341e-65
1.07569e-67
2.40567e-70
7.62374e-74
5.21037e-31
9.42495e-33
-1.28887e-35
2.26502e-36
1.4772e-38
1.06055e-40
6.77835e-43
2.79589e-45
1.01069e-47
3.28514e-50
9.11887e-53
7.61297e-55
1.05734e-56
5.02214e-59
1.85509e-61
5.96793e-64
1.61994e-66
3.37922e-69
1.11972e-72
1.19522e-29
1.53474e-31
4.46053e-34
3.36176e-35
2.19927e-37
1.94191e-39
9.28027e-42
3.78937e-44
1.34763e-46
4.00624e-49
2.01903e-51
4.34726e-53
2.2185e-55
8.55257e-58
2.82735e-60
8.39933e-63
2.12632e-65
4.15431e-68
1.43955e-71
1.80141e-28
2.23143e-30
1.5553e-32
4.28191e-34
4.09695e-36
2.35663e-38
1.12351e-40
4.32569e-43
1.49105e-45
8.21559e-48
1.67971e-49
9.06094e-52
3.61305e-54
1.23311e-56
3.7553e-59
1.04309e-61
2.47834e-64
4.55039e-67
1.64779e-70
2.17345e-27
2.80672e-29
3.33775e-31
6.45809e-33
4.4594e-35
2.52768e-37
1.1057e-39
4.79739e-42
3.25879e-44
6.1295e-46
3.45461e-48
1.41397e-50
4.95377e-53
1.55512e-55
4.43546e-58
1.16163e-60
2.60297e-63
4.50406e-66
1.70185e-69
2.26373e-26
3.13376e-28
6.50111e-30
5.98455e-32
3.86026e-34
2.23394e-36
1.45684e-38
1.60091e-40
2.09723e-42
1.19031e-44
5.11404e-47
1.84091e-49
5.94121e-52
1.75155e-54
4.729e-57
1.17492e-59
2.49278e-62
4.07487e-65
1.60313e-68
2.12977e-25
4.15464e-27
5.19956e-29
4.77134e-31
4.35242e-33
4.1599e-35
6.9905e-37
6.22293e-39
3.58972e-41
1.63707e-43
6.27032e-46
2.09292e-48
6.37561e-51
1.78814e-53
4.60458e-56
1.09044e-58
2.19781e-61
3.40129e-64
1.38963e-67
4.7828e-24
4.06311e-26
6.27273e-28
8.87203e-30
1.58003e-31
1.83995e-33
1.46085e-35
8.98542e-38
4.47781e-40
1.86519e-42
6.70694e-45
2.1305e-47
6.21604e-50
1.67325e-52
4.13286e-55
9.365e-58
1.79828e-60
2.63988e-63
1.11677e-66
1.22139e-22
8.82774e-25
1.85477e-26
2.75217e-28
3.01163e-30
2.57321e-32
1.76805e-34
9.97273e-37
4.67265e-39
1.85764e-41
6.42938e-44
1.97331e-46
5.56802e-49
1.44786e-51
3.44554e-54
7.49485e-57
1.37463e-59
1.91775e-62
8.37395e-66
1.28978e-21
1.49202e-23
2.46073e-25
3.19357e-27
3.24244e-29
2.62585e-31
1.72812e-33
9.41593e-36
4.287e-38
1.6618e-40
5.61593e-43
1.68189e-45
4.62167e-48
1.16675e-50
2.68502e-53
5.62231e-56
9.87244e-59
1.31128e-61
5.89091e-65
1.05997e-20
1.39253e-22
2.22095e-24
2.82646e-26
2.82312e-28
2.25376e-30
1.46427e-32
7.88291e-35
3.54641e-37
1.35721e-39
4.52035e-42
1.33025e-44
3.57879e-47
8.80715e-50
1.96607e-52
3.97284e-55
6.69328e-58
8.47913e-61
3.90645e-64
7.4381e-20
1.05812e-21
1.67125e-23
2.1272e-25
2.13002e-27
1.7052e-29
1.11008e-31
5.97865e-34
2.68505e-36
1.02287e-38
3.38008e-41
9.82619e-44
2.59922e-46
6.25682e-49
1.35863e-51
2.6553e-54
4.30096e-57
5.20601e-60
2.45194e-63
4.62309e-19
6.9939e-21
1.1047e-22
1.41822e-24
1.43619e-26
1.16337e-28
7.65595e-31
4.15896e-33
1.8781e-35
7.16605e-38
2.36184e-40
6.81221e-43
1.77819e-45
4.19958e-48
8.89228e-51
1.68435e-53
2.6281e-56
3.04515e-59
1.4618e-62
2.58009e-18
4.1299e-20
6.57345e-22
8.56028e-24
8.80945e-26
7.25486e-28
4.85113e-30
2.67293e-32
1.22052e-34
4.68862e-37
1.54842e-39
4.44827e-42
1.14961e-44
2.67121e-47
5.52812e-50
1.01684e-52
1.53121e-55
1.70154e-58
8.30223e-62
1.31885e-17
2.18256e-19
3.54182e-21
4.72885e-23
4.97923e-25
4.18445e-27
2.84905e-29
1.59603e-31
7.39403e-34
2.87147e-36
9.54201e-39
2.74062e-41
7.03613e-44
1.6132e-46
3.27072e-49
5.85355e-52
8.52292e-55
9.10094e-58
4.50247e-61
5.98831e-17
1.01208e-18
1.69853e-20
2.37512e-22
2.60393e-24
2.25851e-26
1.57288e-28
8.95868e-31
4.20572e-33
1.65145e-35
5.53089e-38
1.59274e-40
4.07477e-43
9.24709e-46
1.84169e-48
3.21404e-51
4.53465e-54
4.66307e-57
2.33546e-60
2.33042e-16
3.97682e-18
6.94476e-20
1.04123e-21
1.22528e-23
1.13045e-25
8.24663e-28
4.83042e-30
2.29894e-32
9.07724e-35
3.04814e-37
8.77881e-40
2.23641e-42
5.02631e-45
9.85198e-48
1.68013e-50
2.30233e-53
2.28534e-56
1.15945e-59
7.49537e-16
1.26928e-17
2.2778e-19
3.67572e-21
4.75637e-23
4.85413e-25
3.89825e-27
2.46075e-29
1.22818e-31
4.93517e-34
1.6622e-36
4.74793e-39
1.19425e-41
2.63663e-44
5.06112e-47
8.41679e-50
1.1189e-52
1.07292e-55
5.508e-59
1.93367e-15
3.17476e-17
5.67119e-19
9.63941e-21
1.36243e-22
1.55584e-24
1.42196e-26
1.02431e-28
5.76555e-31
2.52964e-33
9.0149e-36
2.6119e-38
6.54224e-41
1.41637e-43
2.63257e-46
4.22413e-49
5.3897e-52
4.97042e-55
2.50958e-58
3.96492e-15
6.17799e-17
1.05365e-18
1.83348e-20
2.7374e-22
3.40624e-24
3.47962e-26
2.86715e-28
1.87455e-30
9.62143e-33
3.93617e-35
1.25797e-37
3.36878e-40
7.57984e-43
1.40014e-45
2.18941e-48
2.68987e-51
2.38744e-54
1.11381e-57
6.5744e-15
9.6257e-17
1.51961e-18
2.64987e-20
4.03382e-22
5.24456e-24
5.70025e-26
5.11652e-28
3.71325e-30
2.18645e-32
1.03178e-34
3.8259e-37
1.16358e-39
2.92688e-42
5.86392e-45
9.49116e-48
1.19267e-50
1.05318e-53
4.91055e-57
9.25739e-15
1.28357e-16
1.82766e-18
3.16773e-20
4.84283e-22
6.3639e-24
7.01581e-26
6.45911e-28
4.89681e-30
3.09595e-32
1.59332e-34
6.61537e-37
2.2286e-39
6.18306e-42
1.3803e-44
2.42077e-47
3.26707e-50
2.97051e-53
1.98098e-56
1.11614e-14
1.42645e-16
1.96944e-18
3.45471e-20
5.32677e-22
6.90914e-24
7.47889e-26
6.79811e-28
5.1714e-30
3.31785e-32
1.76412e-34
7.691e-37
2.7044e-39
7.85976e-42
1.9093e-44
3.59112e-47
5.1421e-50
4.81328e-53
5.67333e-56
1.19374e-14
1.35051e-16
1.92899e-18
3.73358e-20
5.98061e-22
7.55886e-24
7.80166e-26
6.76862e-28
4.78256e-30
2.89171e-32
1.54897e-34
6.96517e-37
2.49284e-39
7.47073e-42
1.96845e-44
3.84743e-47
5.64549e-50
5.36016e-53
9.8906e-56
1.08041e-14
1.17731e-16
1.74918e-18
3.79762e-20
6.41077e-22
8.24713e-24
8.42868e-26
6.90064e-28
4.57807e-30
2.58159e-32
1.1968e-34
4.55357e-37
1.46816e-39
4.22744e-42
1.22884e-44
2.61162e-47
3.87912e-50
3.76623e-53
1.16625e-55
9.39602e-15
8.8402e-17
9.65684e-19
2.40018e-20
4.71034e-22
7.01602e-24
8.00621e-26
7.00535e-28
4.75524e-30
2.538e-32
1.04981e-34
3.66261e-37
1.09581e-39
2.91085e-42
6.64122e-45
1.1935e-47
1.5689e-50
1.40558e-53
1.02068e-55
6.6875e-15
5.80955e-17
4.1336e-19
8.71557e-21
1.85781e-22
3.39294e-24
4.5263e-26
4.38131e-28
3.18461e-30
1.82046e-32
8.2303e-35
3.08183e-37
9.67646e-40
2.46728e-42
4.6861e-45
7.73569e-48
9.62266e-51
7.56431e-54
4.08514e-56
3.83932e-15
3.30361e-17
1.45537e-19
3.41956e-21
5.09027e-23
5.03926e-25
9.88987e-27
1.37354e-28
1.29483e-30
8.24838e-33
3.7857e-35
1.44684e-37
4.66613e-40
1.2525e-42
2.9307e-45
5.57766e-48
7.34157e-51
5.4721e-54
9.38722e-57
1.64716e-15
2.11584e-17
9.54315e-20
1.79513e-21
2.57013e-23
2.27671e-25
1.28576e-27
6.93949e-30
4.35551e-32
2.51439e-34
8.26678e-36
3.98075e-38
1.41503e-40
4.15848e-43
9.98454e-46
1.96827e-48
2.89158e-51
1.98519e-54
2.21297e-57
4.87084e-16
9.87384e-18
3.65288e-20
7.32154e-22
1.10482e-23
1.29298e-25
8.4075e-28
5.47318e-30
3.8658e-32
1.22694e-34
2.52238e-37
5.43651e-40
2.00864e-42
5.19867e-45
1.62851e-46
3.74429e-49
7.45861e-52
5.66719e-55
1.74745e-58
9.25367e-17
1.59424e-18
8.40022e-21
1.61935e-22
2.46985e-24
2.96835e-26
8.16352e-29
-5.20668e-30
1.00594e-32
4.14734e-35
1.41105e-37
4.02698e-40
1.49454e-42
2.99012e-45
3.04191e-48
3.45325e-51
3.42378e-54
-4.88078e-61
1.89563e-60
1.10765e-17
1.59459e-19
1.09204e-21
2.08072e-23
3.15108e-25
3.76167e-27
3.52079e-29
2.58337e-31
1.49701e-33
6.96948e-36
-2.40706e-37
-6.5726e-40
2.4469e-43
5.91056e-46
1.21268e-48
1.85391e-51
2.20623e-54
6.32214e-61
1.79936e-60
8.14455e-19
9.89083e-21
7.33226e-23
1.32817e-24
1.92235e-26
2.20794e-28
2.00707e-30
1.42357e-32
8.27286e-35
3.98173e-37
1.6014e-39
5.65635e-42
1.80848e-44
5.29509e-47
-2.24181e-48
-8.56921e-51
3.62419e-55
3.94099e-60
3.77379e-60
3.4791e-20
4.21871e-22
2.04288e-24
3.68155e-26
5.16389e-28
5.46002e-30
4.55405e-32
3.03597e-34
-9.70228e-37
-6.48081e-40
2.85094e-41
9.56683e-44
3.29678e-46
1.06478e-48
3.25384e-51
9.14235e-54
1.9857e-56
1.12977e-59
4.5637e-61
8.12739e-22
1.41297e-23
7.47343e-27
1.08105e-28
1.09096e-30
9.04282e-33
6.36888e-35
3.75035e-37
1.87161e-39
8.03965e-42
2.75109e-44
-4.82443e-46
-7.86936e-48
-6.89898e-51
1.5008e-54
2.8363e-57
1.00639e-59
3.07663e-62
5.07579e-64
7.58385e-24
2.11092e-25
-3.44304e-29
-3.72133e-31
-3.69457e-33
-2.74226e-35
-1.76486e-37
-6.5559e-40
-2.23516e-42
-6.46436e-45
-1.2916e-47
-2.57737e-50
-4.79085e-53
-8.65424e-56
-1.55744e-58
-1.92713e-61
-3.32171e-61
-2.37018e-63
-1.54489e-65
1.47356e-26
2.6338e-28
-4.38356e-32
-3.15666e-34
-2.01244e-36
-8.95523e-39
-3.01804e-41
-7.77805e-44
-1.61911e-46
-5.42209e-49
-2.06779e-51
-6.70964e-55
-1.11226e-57
-2.05088e-60
-3.56203e-63
-8.46317e-66
-2.47326e-68
-8.4324e-72
-3.67519e-71
6.9741e-34
6.1985e-35
-3.60514e-38
-8.48876e-41
-1.73115e-43
-2.66086e-46
-3.1224e-49
-2.82796e-52
-1.97606e-55
-1.13329e-58
-5.52677e-62
-2.439e-65
-1.05636e-68
-9.57192e-71
-1.9983e-73
-6.40981e-77
-1.01347e-80
-1.28331e-82
-1.3342e-84
)
;

boundaryField
{
    leftWall
    {
        type            zeroGradient;
    }
    rightWall
    {
        type            zeroGradient;
    }
    lowerWall
    {
        type            zeroGradient;
    }
    atmosphere
    {
        type            inletOutlet;
        inletValue      uniform 0;
        value           nonuniform List<scalar> 
46
(
0.000119558
5.67572e-05
2.94905e-05
1.72006e-05
1.07904e-05
6.86857e-06
4.22411e-06
2.40443e-06
1.21183e-06
5.14114e-07
1.74586e-07
4.62969e-08
9.44147e-09
1.45812e-09
1.89141e-10
1.97084e-11
2.64951e-12
1.42978e-13
0
0
0
0
0
0
0
0
0
0
0
0
0
0
0
0
0
0
0
0
0
0
0
0
0
0
0
0
)
;
    }
    defaultFaces
    {
        type            empty;
    }
}


// ************************************************************************* //
