/*--------------------------------*- C++ -*----------------------------------*\
  =========                 |
  \\      /  F ield         | OpenFOAM: The Open Source CFD Toolbox
   \\    /   O peration     | Website:  https://openfoam.org
    \\  /    A nd           | Version:  9
     \\/     M anipulation  |
\*---------------------------------------------------------------------------*/
FoamFile
{
    format      ascii;
    class       volScalarField;
    location    "0.2";
    object      epsilon;
}
// * * * * * * * * * * * * * * * * * * * * * * * * * * * * * * * * * * * * * //

dimensions      [0 2 -3 0 0 0 0];

internalField   nonuniform List<scalar> 
2268
(
0.215635
1.1557
2.72876
4.15499
4.68782
4.54829
4.79771
4.97134
5.00475
4.92934
4.73109
4.46613
4.18033
3.91899
3.71979
3.60679
3.58195
3.60812
3.56531
3.14567
2.10026
1.12132
0.425683
0.437369
1.36313
2.12638
2.75651
2.7094
2.33406
2.08574
1.87547
1.73387
1.66996
1.61039
1.55257
1.5025
1.47155
1.47294
1.51864
1.61375
1.74079
1.82634
1.6911
1.18732
0.72303
0.379021
0.61902
1.36751
2.1062
3.04367
2.7252
1.94129
1.52364
1.28006
1.14922
1.08768
1.05395
1.03387
1.02488
1.03133
1.06188
1.12693
1.23394
1.37373
1.49211
1.46875
1.13539
0.633338
0.434564
0.709988
1.33504
2.13622
3.15072
2.75905
1.92028
1.41933
1.12739
0.963371
0.881262
0.84132
0.823022
0.817822
0.825369
0.850795
0.90262
0.989723
1.11205
1.24052
1.30145
1.17661
0.677526
0.423968
0.753229
1.28196
2.14394
3.08475
2.74066
2.00107
1.46711
1.12263
0.910867
0.794596
0.734059
0.703301
0.688742
0.685913
0.69671
0.727532
0.787754
0.884989
1.01354
1.14412
1.2074
0.915241
0.386791
0.7717
1.22015
2.11
2.96124
2.70053
2.11381
1.58627
1.19619
0.93086
0.770689
0.680771
0.630066
0.600529
0.584159
0.580217
0.593369
0.632898
0.710897
0.836043
1.00766
1.21593
1.25971
0.39487
0.775277
1.1576
2.03975
2.81217
2.65143
2.2281
1.74293
1.3221
1.00252
0.791614
0.665684
0.589927
0.542357
0.511859
0.495477
0.496378
0.523121
0.589105
0.709055
0.893612
1.16372
1.48827
0.584901
0.768093
1.08972
1.92813
2.64645
2.59904
2.32917
1.91788
1.48673
1.11705
0.850665
0.682792
0.577257
0.508901
0.463679
0.43637
0.428341
0.446533
0.503154
0.613925
0.793855
1.06477
1.48098
1.84724
0.0344773
0.228154
0.315951
0.374822
0.414221
0.441435
0.461052
0.474296
0.479481
0.47896
0.473682
0.463648
0.447996
0.424954
0.391795
0.344674
0.278404
0.187622
0.0457866
0.132591
0.183543
0.203776
0.204872
0.202659
0.201495
0.202062
0.20384
0.204648
0.204501
0.203418
0.201289
0.197824
0.192481
0.184386
0.172214
0.154042
0.127638
0.0983199
0.219147
0.190056
0.182017
0.16919
0.159669
0.154825
0.153153
0.153101
0.153278
0.153335
0.153153
0.152655
0.151735
0.15019
0.147671
0.143597
0.137124
0.127741
0.129103
0.31779
0.211147
0.180221
0.158443
0.14427
0.136969
0.133836
0.132817
0.132589
0.132643
0.132787
0.132965
0.133159
0.133346
0.133452
0.133324
0.132784
0.132546
0.151251
0.442318
0.24763
0.189047
0.15727
0.138285
0.12843
0.12382
0.121903
0.121224
0.121138
0.121392
0.121924
0.122772
0.124016
0.125761
0.128135
0.131407
0.13716
0.167917
0.611131
0.304485
0.206587
0.161482
0.136939
0.124272
0.118082
0.11522
0.114023
0.113708
0.113955
0.114688
0.11597
0.11795
0.12085
0.124986
0.130935
0.140911
0.180794
0.852636
0.383652
0.231246
0.168856
0.138123
0.122512
0.114699
0.110872
0.109119
0.108524
0.108699
0.109545
0.111136
0.113665
0.117432
0.122878
0.130788
0.143864
0.190994
1.29902
0.477979
0.258116
0.177178
0.140408
0.122036
0.112689
0.107938
0.105635
0.104743
0.104813
0.105721
0.107544
0.1105
0.114942
0.121393
0.130777
0.146188
0.199384
0.737899
0.938737
1.60609
2.29906
2.50257
2.45605
2.20661
1.79456
1.3566
0.995594
0.751179
0.594341
0.492366
0.425557
0.384576
0.36748
0.377958
0.424676
0.520513
0.68041
0.921663
1.28507
1.88036
0.706575
0.794537
1.28537
1.87593
2.24805
2.43687
2.45768
2.20237
1.77651
1.32526
0.957644
0.706017
0.537935
0.427672
0.358805
0.3223
0.31429
0.334567
0.385189
0.468086
0.580893
0.715169
0.863145
0.680367
0.673837
1.04418
1.51167
1.9095
2.23264
2.49877
2.50376
2.21039
1.73903
1.26378
0.900631
0.645984
0.475918
0.368676
0.307651
0.281089
0.281437
0.304207
0.346156
0.402641
0.46466
0.51788
0.661327
0.57639
0.85699
1.22772
1.59724
1.94751
2.32943
2.60524
2.56376
2.18066
1.65006
1.16988
0.813654
0.567199
0.408981
0.316415
0.269543
0.253404
0.257997
0.276557
0.303342
0.331768
0.354119
0.649271
0.499323
0.709023
1.00533
1.33098
1.67009
2.06355
2.49632
2.7546
2.58345
2.06773
1.49638
1.03595
0.699948
0.477463
0.344451
0.273398
0.241298
0.232333
0.236425
0.246771
0.258013
0.265595
0.642643
0.438947
0.591328
0.827714
1.10842
1.42282
1.79723
2.26095
2.74747
2.89253
2.48353
1.86124
1.30469
0.871879
0.573351
0.390122
0.289392
0.239815
0.218919
0.21278
0.21305
0.214631
0.214474
0.639285
0.391659
0.49743
0.683866
0.922363
1.20749
1.55944
2.01127
2.58889
3.06183
2.86106
2.24359
1.60707
1.07819
0.695797
0.453168
0.316314
0.246373
0.21346
0.198972
0.192361
0.187999
0.183314
0.637052
0.354298
0.422372
0.566918
0.766742
1.02207
1.35169
1.78914
2.37853
3.05074
3.14564
2.59934
1.92426
1.31111
0.842995
0.533826
0.354166
0.260014
0.213881
0.191594
0.179661
0.171272
0.163658
0.634215
0.324334
0.362413
0.472255
0.637496
0.863569
1.17
1.58938
2.1661
2.91559
3.30583
2.91298
2.2416
1.56212
1.01226
0.632252
0.403501
0.280678
0.219322
0.188941
0.172316
0.160858
0.151123
0.62962
0.299894
0.314607
0.396414
0.531594
0.729596
1.01122
1.40817
1.9623
2.7167
3.35183
3.17808
2.54786
1.82339
1.20062
0.748239
0.464934
0.308691
0.229544
0.190201
0.168937
0.15482
0.143341
0.62269
0.279652
0.276563
0.336304
0.446139
0.617948
0.873683
1.24433
1.76996
2.4987
3.30222
3.38783
2.82833
2.08985
1.40555
0.881084
0.538765
0.344415
0.24457
0.19501
0.168789
0.152086
0.138985
0.613342
0.262675
0.246315
0.289031
0.378029
0.526148
0.756023
1.09811
1.59065
2.2786
3.16081
3.54195
3.09518
2.36364
1.62513
1.02939
0.624726
0.388006
0.264467
0.203205
0.171474
0.15205
0.137291
0.601872
0.248311
0.222262
0.252
0.324148
0.451425
0.656583
0.969823
1.42841
2.07593
2.95389
3.60703
3.35236
2.64335
1.85519
1.19061
0.721811
0.439259
0.289208
0.214683
0.176759
0.15435
0.137799
0.588814
0.236092
0.203119
0.223012
0.281648
0.390971
0.573349
0.85884
1.28452
1.89462
2.74223
3.60239
3.58822
2.91037
2.08811
1.36122
0.828286
0.497522
0.31859
0.229321
0.184477
0.158755
0.140223
0.574814
0.225676
0.187867
0.200286
0.248115
0.342192
0.504126
0.763744
1.15812
1.73201
2.54182
3.53254
3.77145
3.15267
2.32013
1.53806
0.941825
0.561663
0.352178
0.246915
0.194466
0.165089
0.144364
0.560522
0.216803
0.175704
0.182423
0.221593
0.302847
0.446778
0.682793
1.0479
1.58645
2.3513
3.37795
3.89361
3.38118
2.55356
1.71771
1.05928
0.630039
0.389281
0.267159
0.206534
0.173185
0.150057
0.546515
0.209265
0.166005
0.168343
0.200546
0.271077
0.399372
0.614221
0.952529
1.45866
2.18493
3.18861
3.93542
3.60464
2.78347
1.89316
1.17628
0.700531
0.428959
0.289613
0.22043
0.182855
0.157137
0.533258
0.202893
0.158275
0.15722
0.18379
0.24538
0.360222
0.556313
0.870347
1.34691
2.03954
3.01428
3.94191
3.8103
2.99116
2.05326
1.2878
0.770812
0.470076
0.313701
0.235829
0.193874
0.165415
0.521083
0.197539
0.15213
0.148424
0.170415
0.224563
0.327905
0.507488
0.799551
1.24854
1.90846
2.84878
3.90688
3.96745
3.15128
2.18889
1.39021
0.838823
0.511373
0.338719
0.252332
0.205973
0.174672
0.510195
0.193077
0.147262
0.141474
0.159732
0.207693
0.30125
0.466379
0.73858
1.16156
1.7879
2.68423
3.81364
4.0681
3.26526
2.30131
1.48285
0.902951
0.551484
0.363848
0.269485
0.218845
0.184649
0.50069
0.18939
0.14343
0.136003
0.151216
0.194045
0.279315
0.431858
0.686209
1.08496
1.67824
2.525
3.66159
4.12204
3.34872
2.39814
1.5661
0.961385
0.588829
0.38819
0.286813
0.232168
0.195054
0.492575
0.186377
0.140443
0.131732
0.144471
0.183064
0.261346
0.402978
0.641376
1.01796
1.58113
2.38673
3.49228
4.10743
3.40936
2.48035
1.63724
1.01115
0.621506
0.410814
0.303865
0.245618
0.20557
0.48576
0.183942
0.13815
0.128449
0.139199
0.17432
0.246738
0.378916
0.603011
0.959204
1.49476
2.26531
3.33803
4.05299
3.4389
2.53699
1.68887
1.04795
0.647443
0.430893
0.320276
0.258894
0.215852
0.480053
0.182011
0.13644
0.126
0.13518
0.167485
0.23499
0.358927
0.57
0.906876
1.41547
2.15106
3.18455
3.94944
3.41253
2.55278
1.71245
1.06743
0.664909
0.447903
0.335819
0.27171
0.22553
0.475227
0.180544
0.13525
0.124287
0.132262
0.162305
0.22568
0.342322
0.541227
0.859092
1.33977
2.03689
3.02081
3.79103
3.32137
2.52132
1.70268
1.06677
0.673209
0.46187
0.350441
0.283785
0.234201
0.471218
0.179556
0.134569
0.123272
0.130358
0.158605
0.218473
0.328502
0.515686
0.814217
1.26504
1.91859
2.84162
3.58963
3.18009
2.44335
1.65682
1.04549
0.673231
0.473495
0.364222
0.294799
0.241429
0.468372
0.179134
0.13445
0.122984
0.129464
0.156314
0.213173
0.317068
0.492696
0.771237
1.1899
1.79442
2.64424
3.33501
2.99773
2.31883
1.5746
1.00609
0.667716
0.484056
0.377234
0.30433
0.246768
0.467592
0.179438
0.135017
0.123543
0.129687
0.155514
0.209815
0.307997
0.472205
0.73021
1.11496
1.66679
2.4368
3.03563
2.77384
2.15112
1.46255
0.957531
0.661009
0.494013
0.388596
0.311351
0.249412
0.470062
0.180711
0.136467
0.125182
0.131291
0.156509
0.208781
0.301832
0.45508
0.692589
1.04277
1.54122
2.23658
2.74138
2.51803
1.95001
1.33621
0.905466
0.653494
0.502314
0.396962
0.314773
0.248603
0.476379
0.182808
0.139073
0.128283
0.134732
0.159867
0.210856
0.299787
0.443321
0.661514
0.977521
1.42187
2.04807
2.47431
2.25396
1.7287
1.20522
0.856047
0.647074
0.508273
0.40098
0.313566
0.243835
0.486703
0.185734
0.143195
0.133351
0.140623
0.166384
0.217169
0.303659
0.440022
0.642295
0.92673
1.31247
1.83961
2.19582
1.97405
1.4988
1.08383
0.816191
0.642512
0.510154
0.398852
0.306727
0.234863
0.497835
0.189664
0.149345
0.141083
0.149758
0.176872
0.228621
0.314714
0.447623
0.640502
0.902373
1.22908
1.60852
1.85775
1.66743
1.28636
0.989758
0.789998
0.637367
0.504587
0.388451
0.293533
0.221858
0.503282
0.194746
0.158227
0.152469
0.162972
0.192079
0.245774
0.333321
0.466462
0.657852
0.913639
1.19639
1.42561
1.54792
1.38861
1.13284
0.933868
0.772634
0.624417
0.486973
0.368061
0.274023
0.205587
0.497454
0.201957
0.168954
0.167376
0.179986
0.211731
0.267902
0.357104
0.490022
0.677513
0.922252
1.16779
1.30765
1.33158
1.20586
1.04871
0.899246
0.746121
0.59336
0.453722
0.337692
0.249484
0.18746
0.485377
0.213519
0.179947
0.182723
0.198513
0.233044
0.290533
0.378206
0.503768
0.671882
0.874604
1.06473
1.16719
1.16077
1.08897
0.982128
0.844745
0.690021
0.538374
0.405748
0.300157
0.222518
0.169316
0.471806
0.229583
0.192323
0.194241
0.213423
0.248993
0.304136
0.384016
0.492323
0.62701
0.774239
0.903175
0.985078
1.0021
0.966462
0.877872
0.747523
0.602365
0.465258
0.349757
0.260573
0.196341
0.15294
0.457609
0.246185
0.207822
0.202095
0.218788
0.250932
0.299277
0.366473
0.453166
0.55498
0.660583
0.753855
0.821065
0.845519
0.816516
0.737153
0.623638
0.500837
0.387806
0.294797
0.224178
0.173661
0.139578
0.44434
0.261933
0.225678
0.210353
0.217629
0.242067
0.281575
0.336106
0.404526
0.482584
0.561962
0.63142
0.679406
0.692012
0.66073
0.591504
0.501197
0.405279
0.318272
0.247661
0.194339
0.155904
0.129683
0.432593
0.270828
0.239591
0.21844
0.216502
0.232307
0.262646
0.305508
0.358529
0.417451
0.475317
0.523083
0.551552
0.552178
0.521649
0.465936
0.397713
0.326602
0.262682
0.211156
0.171998
0.143082
0.122907
0.421745
0.267049
0.240743
0.220073
0.213763
0.222817
0.244521
0.276226
0.315036
0.35685
0.395936
0.425555
0.439496
0.433424
0.407104
0.365547
0.316651
0.266808
0.221838
0.184896
0.156093
0.13398
0.118201
0.412069
0.254335
0.22983
0.212797
0.205897
0.210587
0.225031
0.246845
0.273286
0.300836
0.325128
0.341556
0.346394
0.337849
0.31705
0.288004
0.255571
0.223027
0.193059
0.165548
0.143334
0.126044
0.113897
0.402257
0.238095
0.211123
0.198032
0.19244
0.195001
0.204647
0.219608
0.237646
0.255965
0.271325
0.280567
0.281402
0.273121
0.257036
0.236171
0.213876
0.191057
0.162314
0.139826
0.124472
0.113843
0.107127
2.83616
2.89328
3.04778
3.33167
1.00204
1.05541
1.08628
1.05453
0.544431
0.547657
0.538361
0.513993
0.362234
0.361249
0.353642
0.338993
0.265952
0.263475
0.258148
0.249869
0.211392
0.208397
0.204287
0.198977
0.178262
0.174878
0.171283
0.167382
0.157267
0.153505
0.150033
0.146757
0.143664
0.139496
0.135919
0.132848
0.134907
0.130286
0.12645
0.123331
0.129566
0.124424
0.120204
0.116859
0.126807
0.121058
0.116334
0.112617
0.126127
0.11967
0.114323
0.110097
0.127217
0.119938
0.113842
0.108976
0.129864
0.121648
0.114674
0.109037
0.13391
0.124639
0.11666
0.110123
0.139204
0.128769
0.119666
0.112105
0.145584
0.13389
0.123553
0.114859
0.152861
0.139833
0.128172
0.118251
0.160811
0.146395
0.133343
0.122128
0.16917
0.153338
0.138856
0.126309
0.177641
0.160384
0.144466
0.130588
0.185888
0.16722
0.149893
0.13473
0.193541
0.173498
0.154831
0.138481
0.2002
0.178846
0.158952
0.14157
0.205449
0.182876
0.161923
0.143729
0.208895
0.185213
0.163419
0.1447
0.209961
0.185399
0.163127
0.144226
0.208051
0.183033
0.160767
0.142146
0.20293
0.178056
0.156403
0.138604
0.194648
0.170655
0.150283
0.133856
0.183626
0.161323
0.142886
0.128317
0.170709
0.150854
0.134888
0.122527
0.157096
0.140245
0.127067
0.117062
0.144119
0.130501
0.120152
0.112437
0.132924
0.122418
0.11468
0.109009
0.124209
0.116425
0.110904
0.106922
0.118119
0.112535
0.108768
0.106088
0.11426
0.110355
0.107904
0.10617
0.111745
0.109108
0.107635
0.106586
0.109289
0.107671
0.106928
0.106374
0.104859
0.104245
0.104077
0.103918
1.20047
0.541734
0.287316
0.187853
0.143932
0.122135
0.11082
0.104866
0.101834
0.100542
0.100464
0.101444
0.103552
0.107032
0.112276
0.119873
0.130838
0.148553
0.207755
0.816052
0.443241
0.268979
0.186365
0.144541
0.122099
0.109688
0.10277
0.0990325
0.0972982
0.0970175
0.0980135
0.100351
0.104276
0.110198
0.118728
0.130952
0.150636
0.216141
0.462748
0.328473
0.232444
0.175101
0.141114
0.120843
0.108727
0.101545
0.0974535
0.0954388
0.0950047
0.0959867
0.0984497
0.102636
0.108951
0.118013
0.13096
0.151906
0.22239
0.31208
0.251996
0.199361
0.1613
0.135441
0.118417
0.107449
0.10055
0.0964256
0.0943023
0.0937847
0.0947476
0.097267
0.101584
0.108102
0.117445
0.130817
0.15269
0.227517
0.235434
0.204249
0.173414
0.148045
0.128897
0.115189
0.10574
0.0994656
0.0955492
0.0934627
0.0929304
0.0938818
0.0964151
0.100779
0.10738
0.116862
0.130515
0.153182
0.232084
0.190344
0.172545
0.153531
0.136392
0.122349
0.111562
0.103673
0.0981745
0.09461
0.0926614
0.0921683
0.0931204
0.0956454
0.100007
0.106626
0.11618
0.130059
0.15349
0.236382
0.161619
0.150643
0.138384
0.126587
0.116269
0.10786
0.101385
0.0966753
0.0935203
0.091764
0.0913447
0.0923092
0.0948178
0.0991555
0.105766
0.115368
0.129464
0.153667
0.240554
0.142412
0.135103
0.126842
0.118526
0.110864
0.104298
0.099012
0.0950203
0.0922711
0.0907241
0.0903951
0.0913807
0.0938734
0.0981826
0.104779
0.114428
0.128748
0.15374
0.244667
0.129153
0.123859
0.118013
0.111975
0.106178
0.100996
0.09666
0.0932789
0.0908963
0.0895502
0.0893142
0.0903255
0.0928062
0.0970901
0.103677
0.11338
0.127932
0.153723
0.248742
0.119833
0.115613
0.111226
0.106673
0.102172
0.0980039
0.0944023
0.0915168
0.089446
0.0882785
0.0881292
0.089167
0.0916392
0.095903
0.102486
0.11225
0.127037
0.153625
0.252782
0.113255
0.109519
0.105981
0.102382
0.0987667
0.0953307
0.0922826
0.0897865
0.0879702
0.0869536
0.0868798
0.0879417
0.0904075
0.0946553
0.101239
0.111065
0.126083
0.153453
0.256776
0.10867
0.105011
0.101909
0.0988984
0.0958777
0.0929601
0.0903219
0.0881252
0.086511
0.0856174
0.0856063
0.086688
0.0891477
0.0933814
0.0999672
0.109854
0.125092
0.153216
0.260707
0.1056
0.101707
0.0987427
0.0960598
0.0934227
0.0908653
0.088526
0.0865562
0.0850998
0.0843044
0.0843435
0.0854401
0.0878925
0.0921124
0.0986994
0.108641
0.124084
0.152922
0.264555
0.10373
0.0993419
0.0962869
0.0937385
0.0913304
0.0890158
0.0868914
0.0850919
0.0837576
0.0830397
0.0831184
0.0842252
0.0866688
0.090874
0.0974595
0.107449
0.123075
0.152581
0.268297
0.102844
0.0977303
0.0943978
0.0918358
0.0895409
0.0873816
0.0854091
0.0837368
0.0824973
0.0818409
0.0819508
0.083064
0.0854974
0.0896866
0.0962672
0.106294
0.122082
0.152201
0.271912
0.102785
0.0967338
0.092967
0.0902741
0.0880046
0.0859354
0.0840678
0.0824906
0.0813255
0.0807188
0.080854
0.0819714
0.0843937
0.0885658
0.0951378
0.105193
0.121119
0.15179
0.275376
0.103427
0.0962431
0.0919087
0.0889919
0.0866806
0.0846527
0.0828554
0.0813501
0.0802448
0.0796797
0.0798365
0.0809571
0.0833684
0.0875227
0.0940829
0.104157
0.120196
0.151357
0.278669
0.104654
0.0961637
0.0911516
0.0879381
0.0855346
0.0835121
0.0817601
0.0803101
0.0792547
0.0787263
0.0789032
0.0800272
0.0824284
0.086565
0.0931106
0.103194
0.119324
0.150908
0.281771
0.106348
0.0964072
0.0906329
0.0870697
0.0845377
0.0824952
0.0807709
0.0793649
0.0783532
0.0778589
0.0780558
0.0791847
0.0815773
0.085697
0.0922262
0.102312
0.118509
0.150452
0.284665
0.108384
0.0968861
0.090295
0.0863492
0.0836655
0.0815861
0.0798778
0.0785088
0.0775372
0.0770763
0.0772943
0.0784301
0.0808165
0.0849206
0.0914323
0.101513
0.117757
0.149994
0.287336
0.110623
0.0975111
0.0900837
0.0857435
0.0828974
0.0807714
0.0790722
0.077736
0.0768031
0.076376
0.076617
0.0777623
0.0801451
0.0842355
0.0907292
0.1008
0.117071
0.149541
0.289775
0.112911
0.0981922
0.0899487
0.0852241
0.0822159
0.0800401
0.0783466
0.0770413
0.076147
0.0757551
0.0760213
0.077179
0.079561
0.0836396
0.0901156
0.100171
0.116454
0.149099
0.291978
0.115083
0.0988402
0.0898443
0.0847668
0.0816072
0.0793832
0.0776949
0.0764203
0.0755652
0.0752101
0.075504
0.0766767
0.0790607
0.0831297
0.0895884
0.0996258
0.115907
0.148675
0.293945
0.116973
0.0993722
0.0897316
0.0843523
0.0810605
0.0787942
0.0771126
0.0758694
0.0750546
0.0747379
0.0750616
0.0762519
0.0786402
0.0827017
0.0891437
0.0991606
0.115429
0.148273
0.295682
0.118416
0.0997172
0.0895808
0.083967
0.0805688
0.0782688
0.0765967
0.0753864
0.0746129
0.074336
0.0746911
0.075901
0.0782956
0.082351
0.0887771
0.0987719
0.115019
0.147901
0.297202
0.119269
0.099824
0.0893736
0.0836037
0.0801288
0.0778058
0.0761469
0.0749707
0.0742396
0.0740032
0.0743909
0.0756214
0.0780236
0.0820739
0.0884845
0.0984564
0.114676
0.147567
0.298527
0.119425
0.0996691
0.0891049
0.0832614
0.0797416
0.077407
0.0757655
0.074625
0.0739365
0.073741
0.0741613
0.0754127
0.0778225
0.081868
0.0882632
0.0982122
0.114404
0.147285
0.299696
0.11884
0.0992633
0.0887828
0.0829469
0.0794134
0.0770791
0.0754594
0.0743557
0.0737098
0.0735544
0.0740064
0.0752777
0.0776941
0.0817337
0.0881133
0.0980411
0.114209
0.14708
0.300779
0.117393
0.0985914
0.0884259
0.0826753
0.0791568
0.0768348
0.0752412
0.0741754
0.0735714
0.0734543
0.0739359
0.0752244
0.0776447
0.0816758
0.0880394
0.0979507
0.11411
0.147003
0.301907
0.11522
0.0976549
0.0880212
0.0824558
0.0789918
0.0766942
0.0751312
0.0741043
0.0735409
0.0734596
0.073967
0.0752682
0.0776871
0.0817057
0.0880527
0.0979582
0.114146
0.147143
0.303324
0.112532
0.0965788
0.087633
0.0823161
0.0789374
0.0766838
0.0751597
0.0741728
0.0736483
0.073599
0.0741268
0.0754336
0.0778432
0.0818423
0.0881732
0.0980942
0.114381
0.147671
0.305487
0.109607
0.0955114
0.0873416
0.0823111
0.0790395
0.0768424
0.075365
0.0744224
0.0739358
0.0739138
0.0744545
0.0757568
0.078145
0.0821143
0.0884304
0.0984052
0.114925
0.148879
0.309233
0.106766
0.0946115
0.0872346
0.082503
0.0793533
0.0772251
0.0758023
0.0749068
0.0744572
0.0744579
0.0750019
0.0762855
0.0786351
0.0825591
0.0888626
0.0989526
0.115934
0.151236
0.316061
0.104321
0.09403
0.0874
0.08296
0.0799425
0.077896
0.0765367
0.0756921
0.0752786
0.0752958
0.0758317
0.0770788
0.0793656
0.0832203
0.0895106
0.099804
0.117604
0.155434
0.328544
0.102528
0.0938902
0.0879174
0.0837508
0.0808749
0.0789242
0.0776391
0.0768506
0.0764725
0.0764994
0.0770128
0.0781996
0.0803901
0.0841386
0.0904036
0.101007
0.120138
0.162364
0.350844
0.101549
0.0942721
0.0888476
0.0849358
0.0822136
0.0803756
0.0791774
0.0784515
0.0781091
0.0781387
0.0786132
0.0797106
0.0817601
0.0853449
0.0915417
0.102539
0.123619
0.172921
0.389131
0.101425
0.0951937
0.0902162
0.0865515
0.0840031
0.0822991
0.0812029
0.0805478
0.0802422
0.0802679
0.0806864
0.0816615
0.0835136
0.0868494
0.0928774
0.104256
0.127846
0.187554
0.451708
0.102054
0.0965846
0.0919883
0.0885878
0.0862477
0.0847071
0.0837323
0.0831584
0.0828924
0.0829091
0.0832559
0.0840751
0.0856651
0.0886344
0.0943022
0.105838
0.132125
0.205914
0.54885
0.103165
0.0982596
0.094047
0.0909715
0.0888982
0.0875623
0.086734
0.0862547
0.0860332
0.0860388
0.0863026
0.0869376
0.0882007
0.0906602
0.0956645
0.106777
0.13504
0.225662
0.691468
0.104304
0.0999204
0.0962101
0.0935857
0.091868
0.0907895
0.0901358
0.0897638
0.0895911
0.0895847
0.0897596
0.0901936
0.0910804
0.0928863
0.0968299
0.106492
0.134378
0.240308
0.891448
0.104682
0.101102
0.0982133
0.0962579
0.0950202
0.0942627
0.093812
0.0935574
0.0934355
0.0934173
0.0935052
0.0937403
0.0942371
0.095296
0.097787
0.104605
0.127517
0.236663
1.17105
0.103012
0.101059
0.099591
0.0986494
0.0980757
0.0977341
0.0975347
0.0974228
0.0973672
0.0973525
0.0973756
0.0974478
0.0976059
0.0979547
0.0988339
0.101573
0.11293
0.189032
1.58739
)
;

boundaryField
{
    leftWall
    {
        type            epsilonWallFunction;
        value           nonuniform List<scalar> 
50
(
0.215635
0.437369
0.61902
0.709988
0.753229
0.7717
0.775277
0.768093
0.737899
0.706575
0.680367
0.661327
0.649271
0.642643
0.639285
0.637052
0.634215
0.62962
0.62269
0.613342
0.601872
0.588814
0.574814
0.560522
0.546515
0.533258
0.521083
0.510195
0.50069
0.492575
0.48576
0.480053
0.475227
0.471218
0.468372
0.467592
0.470062
0.476379
0.486703
0.497835
0.503282
0.497454
0.485377
0.471806
0.457609
0.44434
0.432593
0.421745
0.412069
0.402257
)
;
    }
    rightWall
    {
        type            epsilonWallFunction;
        value           nonuniform List<scalar> 
50
(
0.0457866
0.0983199
0.129103
0.151251
0.167917
0.180794
0.190994
0.199384
0.207755
0.216141
0.22239
0.227517
0.232084
0.236382
0.240554
0.244667
0.248742
0.252782
0.256776
0.260707
0.264555
0.268297
0.271912
0.275376
0.278669
0.281771
0.284665
0.287336
0.289775
0.291978
0.293945
0.295682
0.297202
0.298527
0.299696
0.300779
0.301907
0.303324
0.305487
0.309233
0.316061
0.328544
0.350844
0.389131
0.451708
0.54885
0.691468
0.891448
1.17105
1.58739
)
;
    }
    lowerWall
    {
        type            epsilonWallFunction;
        value           nonuniform List<scalar> 
62
(
0.215635
1.1557
2.72876
4.15499
4.68782
4.54829
4.79771
4.97134
5.00475
4.92934
4.73109
4.46613
4.18033
3.91899
3.71979
3.60679
3.58195
3.60812
3.56531
3.14567
2.10026
1.12132
0.425683
0.425683
0.379021
0.434564
0.423968
0.386791
0.39487
0.584901
1.84724
2.83616
2.89328
3.04778
3.33167
0.0344773
0.132591
0.219147
0.31779
0.442318
0.611131
0.852636
1.29902
0.0344773
0.228154
0.315951
0.374822
0.414221
0.441435
0.461052
0.474296
0.479481
0.47896
0.473682
0.463648
0.447996
0.424954
0.391795
0.344674
0.278404
0.187622
0.0457866
)
;
    }
    atmosphere
    {
        type            inletOutlet;
        inletValue      uniform 0.1;
        value           nonuniform List<scalar> 
46
(
0.402257
0.238095
0.211123
0.198032
0.19244
0.195001
0.204647
0.219608
0.237646
0.255965
0.271325
0.280567
0.281402
0.273121
0.257036
0.236171
0.213876
0.191057
0.1
0.1
0.1
0.1
0.1
0.1
0.1
0.1
0.1
0.1
0.1
0.1
0.1
0.1
0.1
0.1
0.1
0.1
0.1
0.1
0.1
0.1
0.1
0.1
0.1
0.1
0.1
0.1
)
;
    }
    defaultFaces
    {
        type            empty;
    }
}


// ************************************************************************* //
