/*--------------------------------*- C++ -*----------------------------------*\
  =========                 |
  \\      /  F ield         | OpenFOAM: The Open Source CFD Toolbox
   \\    /   O peration     | Website:  https://openfoam.org
    \\  /    A nd           | Version:  9
     \\/     M anipulation  |
\*---------------------------------------------------------------------------*/
FoamFile
{
    format      ascii;
    class       volScalarField;
    location    "0.2";
    object      k;
}
// * * * * * * * * * * * * * * * * * * * * * * * * * * * * * * * * * * * * * //

dimensions      [0 2 -2 0 0 0 0];

internalField   nonuniform List<scalar> 
2268
(
0.00845743
0.0139658
0.0203911
0.0254719
0.0299897
0.034296
0.0385841
0.0429626
0.047476
0.0521034
0.0567494
0.0612406
0.065332
0.0687254
0.0710982
0.0721228
0.0714244
0.0694761
0.0661568
0.0611551
0.0547028
0.0449484
0.0290915
0.0135468
0.0294255
0.0415875
0.0514071
0.0599958
0.0680472
0.0759675
0.0839742
0.0921308
0.100353
0.10841
0.115928
0.122433
0.127411
0.130416
0.131203
0.12987
0.126482
0.122246
0.11891
0.120368
0.11916
0.0744302
0.0165618
0.0366688
0.0514757
0.063529
0.0741553
0.0841636
0.0940282
0.103994
0.114109
0.124235
0.134049
0.143073
0.150726
0.15643
0.159761
0.160657
0.159665
0.157799
0.156589
0.157061
0.160807
0.162979
0.103855
0.0185649
0.0415551
0.0579728
0.071364
0.083277
0.0945825
0.105773
0.117091
0.128557
0.139982
0.150976
0.160989
0.169387
0.175578
0.179219
0.180465
0.180292
0.18058
0.183787
0.190955
0.199731
0.203359
0.128064
0.0199935
0.0451194
0.0626446
0.0769391
0.089765
0.102039
0.114252
0.126629
0.139159
0.151608
0.163533
0.174335
0.18335
0.190012
0.194077
0.195934
0.196953
0.199673
0.20746
0.222098
0.238758
0.245396
0.152149
0.0210658
0.0476826
0.0660082
0.080966
0.0944848
0.107522
0.120562
0.133809
0.147224
0.160533
0.173254
0.18475
0.194351
0.201526
0.206152
0.20884
0.21131
0.21661
0.22888
0.250947
0.277387
0.291515
0.178148
0.021891
0.0494261
0.0683132
0.0837913
0.0978726
0.111539
0.125272
0.139256
0.153431
0.167491
0.180924
0.19307
0.203257
0.211004
0.216305
0.219974
0.224019
0.231866
0.248296
0.277231
0.314375
0.342089
0.207334
0.0225416
0.0505095
0.0697351
0.0856311
0.100192
0.114401
0.128731
0.143359
0.158204
0.172944
0.187041
0.199821
0.210616
0.21899
0.225045
0.229771
0.235383
0.245542
0.265516
0.300078
0.347452
0.393918
0.241678
0.0108244
0.0183001
0.022438
0.0246904
0.0254632
0.0253503
0.0244897
0.0233468
0.0221994
0.0211733
0.0202943
0.019536
0.0188364
0.0181211
0.0172717
0.0161023
0.0143402
0.0116276
0.0103958
0.0210554
0.0389726
0.0451829
0.0487227
0.0500281
0.0496212
0.0481396
0.0462474
0.0443857
0.0427684
0.0414343
0.0403146
0.0392795
0.0381528
0.0366846
0.0344982
0.0309816
0.0250269
0.0141002
0.0291531
0.0570225
0.0633989
0.065951
0.0660457
0.064552
0.0620969
0.0593297
0.0567162
0.0544925
0.0526958
0.0512253
0.0499015
0.0484877
0.0466679
0.0439797
0.0396635
0.0322407
0.0170928
0.0385255
0.0774629
0.0823829
0.0826514
0.0805405
0.0772175
0.0733199
0.0694217
0.0659182
0.063006
0.0606961
0.0588502
0.0572391
0.0555737
0.0534878
0.0504636
0.045649
0.0372985
0.0192573
0.0508676
0.102628
0.104366
0.101106
0.095738
0.089681
0.0837346
0.0783443
0.0737394
0.0700054
0.0670928
0.0648144
0.0628867
0.0609669
0.0586412
0.0553458
0.0501574
0.041115
0.0209209
0.0675295
0.133377
0.130211
0.122155
0.11248
0.102717
0.0940488
0.0867631
0.0808259
0.0761293
0.0725194
0.0697442
0.0674614
0.0652717
0.0627136
0.0591796
0.0536852
0.0440911
0.0222409
0.089211
0.168083
0.159302
0.145713
0.131032
0.11669
0.104613
0.0950073
0.087499
0.0817013
0.0773033
0.0739684
0.07129
0.0688106
0.0660191
0.0622653
0.05651
0.0464668
0.0233167
0.118571
0.2029
0.18933
0.170897
0.151265
0.131776
0.115642
0.103275
0.0939452
0.0869073
0.0816358
0.0776829
0.0745704
0.0717807
0.0687515
0.0647904
0.0588094
0.048405
0.0242413
0.0231193
0.0511756
0.0706071
0.0869734
0.102138
0.117047
0.132157
0.147632
0.163381
0.179062
0.194117
0.207855
0.219614
0.229025
0.236345
0.242799
0.25086
0.264334
0.288437
0.328605
0.385943
0.448363
0.330658
0.023819
0.0511371
0.0702497
0.086793
0.102418
0.117973
0.133876
0.150278
0.167087
0.183958
0.200314
0.215419
0.228564
0.239387
0.248229
0.256417
0.266343
0.281326
0.305173
0.342119
0.393172
0.446313
0.39262
0.0244285
0.0506611
0.0691345
0.0855021
0.101247
0.117143
0.133582
0.150721
0.168488
0.186552
0.204309
0.220926
0.23555
0.247718
0.257766
0.267017
0.277641
0.292281
0.31362
0.344721
0.387201
0.434649
0.422379
0.025025
0.0501658
0.0679257
0.0838917
0.099466
0.115398
0.132097
0.149761
0.168372
0.187643
0.20695
0.225311
0.241626
0.255276
0.266651
0.277228
0.289281
0.305486
0.328241
0.358607
0.395394
0.441026
0.44788
0.0256473
0.049894
0.0670442
0.0825212
0.097726
0.113443
0.13014
0.148097
0.167399
0.187859
0.208877
0.22931
0.247747
0.263464
0.277124
0.290657
0.306839
0.328672
0.357076
0.38978
0.42104
0.466028
0.48444
0.0263231
0.0500321
0.0667678
0.0817783
0.0965267
0.111873
0.128373
0.146413
0.166226
0.187803
0.210671
0.23359
0.254862
0.273821
0.291616
0.310412
0.332709
0.361508
0.393312
0.417595
0.437046
0.47557
0.527665
0.0270878
0.0507335
0.0672704
0.0819266
0.0962685
0.11124
0.127479
0.145485
0.165658
0.188233
0.213007
0.238848
0.263951
0.287882
0.311878
0.336751
0.364081
0.390004
0.408602
0.422458
0.435741
0.46619
0.541055
0.0280116
0.0519989
0.0685981
0.083139
0.0972966
0.112076
0.128182
0.146207
0.166705
0.190176
0.216829
0.245996
0.276115
0.306708
0.337547
0.36677
0.39132
0.406187
0.412231
0.416026
0.423853
0.448584
0.515567
0.0292969
0.0535062
0.0706593
0.0855055
0.0998521
0.114789
0.131088
0.149426
0.170483
0.194982
0.223555
0.256387
0.292344
0.329825
0.366154
0.39566
0.413436
0.417484
0.411115
0.403576
0.404573
0.424089
0.485099
0.031533
0.0550083
0.0735237
0.0891842
0.104146
0.119713
0.136734
0.155949
0.178138
0.204135
0.234765
0.271152
0.312407
0.355097
0.393565
0.420646
0.431457
0.423591
0.403914
0.385052
0.378411
0.392911
0.448368
0.0359252
0.0583522
0.0782611
0.0948338
0.110741
0.127475
0.145851
0.166617
0.190646
0.218502
0.250727
0.289738
0.334608
0.379923
0.418222
0.439747
0.43908
0.418407
0.387786
0.360438
0.346421
0.353897
0.399399
0.0427015
0.068015
0.086741
0.103217
0.120035
0.13821
0.158134
0.180307
0.205424
0.234228
0.268427
0.30983
0.356511
0.401012
0.43321
0.443935
0.430855
0.400616
0.364495
0.333377
0.314842
0.315668
0.347525
0.0480068
0.0782483
0.0999798
0.112798
0.128433
0.147227
0.168444
0.192157
0.219006
0.250236
0.2866
0.327975
0.371393
0.408412
0.429959
0.429367
0.408219
0.374255
0.337983
0.307225
0.287566
0.284169
0.30487
0.051261
0.0884567
0.105544
0.118488
0.135402
0.1557
0.178846
0.204728
0.233419
0.26514
0.300073
0.337186
0.372908
0.399614
0.41015
0.40172
0.377438
0.344673
0.311912
0.284623
0.266628
0.261198
0.272657
0.0496119
0.0849872
0.10493
0.122584
0.14226
0.164221
0.188458
0.21484
0.243284
0.273632
0.305482
0.336562
0.363099
0.3796
0.381786
0.369055
0.345058
0.316363
0.288903
0.266473
0.251418
0.245366
0.250152
0.0477386
0.0819463
0.105605
0.126628
0.148212
0.171145
0.195696
0.221632
0.248709
0.276374
0.303502
0.327864
0.346174
0.354791
0.351578
0.337331
0.315638
0.29187
0.269812
0.252017
0.239717
0.233438
0.233633
0.0476008
0.0831076
0.10832
0.130722
0.153073
0.176164
0.200159
0.224838
0.249726
0.273997
0.296298
0.314607
0.326454
0.329679
0.323591
0.309661
0.291104
0.271733
0.254116
0.239819
0.229349
0.222648
0.219584
0.0482863
0.0857735
0.111623
0.134257
0.156478
0.179018
0.201927
0.224877
0.247244
0.26808
0.286058
0.299523
0.306792
0.306759
0.299561
0.286827
0.27119
0.255247
0.240751
0.228633
0.219015
0.211617
0.206166
0.048922
0.0881962
0.114318
0.136688
0.158274
0.179809
0.201284
0.222295
0.242146
0.259885
0.274341
0.284253
0.288558
0.286812
0.279532
0.26821
0.254878
0.241314
0.228742
0.217735
0.208266
0.200051
0.192873
0.0490763
0.0896007
0.115749
0.137613
0.158296
0.17858
0.19846
0.217514
0.235051
0.250191
0.261957
0.269427
0.271965
0.269487
0.262614
0.252588
0.240932
0.228905
0.217405
0.206834
0.197163
0.188203
0.179861
0.0486072
0.0897015
0.115614
0.136804
0.156439
0.175361
0.193609
0.210801
0.226302
0.239343
0.249131
0.254995
0.256562
0.253911
0.247625
0.238691
0.228246
0.21722
0.206317
0.195881
0.185953
0.176476
0.167482
0.0475468
0.0885005
0.11388
0.134235
0.152724
0.170237
0.186879
0.202342
0.216078
0.227436
0.235776
0.240602
0.241684
0.23915
0.233494
0.225483
0.215984
0.205699
0.195227
0.18491
0.174882
0.165211
0.156032
0.0460185
0.0861862
0.110726
0.13008
0.147337
0.163417
0.178496
0.192352
0.204538
0.214514
0.221763
0.225901
0.226769
0.22449
0.219459
0.212272
0.20361
0.194013
0.184016
0.173981
0.164126
0.154621
0.145668
0.0441845
0.0830607
0.106481
0.124675
0.14062
0.15525
0.168803
0.181146
0.191931
0.200721
0.207093
0.210737
0.211527
0.209556
0.205135
0.198733
0.190897
0.182054
0.172688
0.16318
0.153809
0.14481
0.136421
0.0422097
0.0794703
0.10156
0.118462
0.133031
0.146202
0.158263
0.169163
0.178645
0.186365
0.191977
0.195221
0.195986
0.194336
0.190509
0.18488
0.177901
0.169925
0.161379
0.152647
0.144041
0.135827
0.128248
0.0402356
0.0757447
0.0963853
0.111917
0.125081
0.136803
0.147415
0.156932
0.165185
0.171906
0.176818
0.179701
0.180452
0.179111
0.17586
0.170998
0.164895
0.157903
0.150339
0.142583
0.134952
0.127712
0.121092
0.0383657
0.0721509
0.0913284
0.105482
0.117257
0.127576
0.136803
0.145011
0.152103
0.157884
0.162134
0.164672
0.165403
0.164349
0.161647
0.15754
0.152336
0.146371
0.139886
0.133223
0.12668
0.120506
0.114898
0.036662
0.068871
0.0866668
0.099505
0.109965
0.118968
0.126907
0.133904
0.139921
0.144827
0.148456
0.150661
0.151362
0.150566
0.148379
0.144997
0.14068
0.135724
0.130333
0.124789
0.119354
0.114242
0.109618
0.0351525
0.0660022
0.0825696
0.0942188
0.103487
0.111303
0.118085
0.123995
0.129047
0.133162
0.136223
0.138117
0.138779
0.138211
0.136494
0.133784
0.130295
0.126269
0.121924
0.117444
0.113053
0.108928
0.105201
0.0338417
0.0635759
0.0791088
0.0897367
0.0979736
0.104763
0.110544
0.115516
0.119731
0.123157
0.125718
0.127333
0.127954
0.12758
0.126275
0.124161
0.121412
0.118223
0.114796
0.111262
0.107793
0.104531
0.101577
0.0327225
0.0615859
0.0762887
0.0860788
0.0934614
0.0993968
0.104348
0.10854
0.112058
0.114908
0.117046
0.118422
0.119001
0.118786
0.117827
0.11622
0.114101
0.111627
0.108964
0.106225
0.103528
0.100981
0.0986594
0.0317888
0.0600164
0.0740821
0.0832102
0.089909
0.0951598
0.0994452
0.103012
0.105972
0.108356
0.110151
0.111329
0.11187
0.11178
0.111099
0.109901
0.108292
0.106396
0.104342
0.102238
0.100155
0.0981742
0.0963509
0.0310481
0.058868
0.072465
0.08108
0.0872415
0.091954
0.0957183
0.0987975
0.101321
0.103342
0.104866
0.105885
0.106391
0.106392
0.105922
0.105038
0.103822
0.102373
0.10079
0.0991646
0.0975482
0.0959964
0.0945495
0.0305382
0.0581811
0.0714436
0.0796549
0.0853871
0.0896727
0.0930283
0.0957283
0.0979148
0.0996534
0.100967
0.101859
0.102332
0.102394
0.102075
0.101419
0.100492
0.0993703
0.0981329
0.0968528
0.0955747
0.094334
0.0931599
0.0303503
0.0580567
0.0710738
0.0789389
0.084302
0.0882289
0.0912492
0.093644
0.0955622
0.097078
0.0982242
0.0990132
0.0994519
0.0995513
0.0993336
0.0988351
0.0981068
0.0972101
0.0962102
0.0951654
0.0941176
0.0930885
0.0920995
0.0306667
0.0586734
0.0714704
0.0789818
0.08398
0.0875683
0.0902849
0.0924122
0.0941009
0.0954293
0.0964351
0.0971353
0.0975387
0.0976552
0.0975013
0.0971046
0.0965045
0.095751
0.094899
0.093999
0.0930877
0.0921829
0.0913024
0.0318125
0.0602982
0.0728043
0.0798722
0.0844462
0.0876656
0.090069
0.0919328
0.0934038
0.094559
0.0954366
0.0960543
0.09642
0.09654
0.0964245
0.0960914
0.095569
0.0948962
0.0941198
0.0932854
0.0924266
0.0915643
0.0907189
0.0342853
0.0632879
0.0752824
0.0817137
0.0857354
0.0885081
0.0905534
0.0921305
0.093374
0.0943538
0.095104
0.0956392
0.0959641
0.0960798
0.0959892
0.0956995
0.0952258
0.0945927
0.0938358
0.0929956
0.0921049
0.0911992
0.090313
0.0387358
0.0680762
0.0790968
0.0845731
0.0878526
0.0900674
0.0916895
0.0929416
0.0939356
0.0947275
0.095343
0.0957906
0.0960704
0.0961783
0.0961096
0.0958609
0.0954309
0.0948231
0.0940506
0.093138
0.0921137
0.0910639
0.0900547
0.0461773
0.0751469
0.0843197
0.0883996
0.090724
0.0922728
0.0934124
0.0943046
0.0950266
0.0956147
0.0960829
0.0964331
0.0966607
0.096758
0.0967155
0.0965211
0.0961576
0.0955993
0.0948133
0.0937683
0.0924475
0.0911242
0.089908
0.0593512
0.0848877
0.0906993
0.092929
0.0941623
0.0950014
0.0956414
0.0961622
0.0966002
0.0969702
0.0972752
0.0975122
0.0976745
0.0977543
0.0977421
0.0976245
0.0973775
0.0969507
0.0962408
0.0950537
0.0930718
0.0913044
0.0898204
0.0881648
0.0964228
0.0972589
0.0976175
0.0978792
0.0980994
0.0982927
0.0984663
0.0986237
0.0987649
0.0988878
0.0989886
0.0990635
0.0991085
0.0991201
0.0990937
0.0990187
0.0988608
0.0984955
0.0974713
0.0937993
0.0914546
0.0897445
0.290412
0.218664
0.18417
0.198654
0.35564
0.335385
0.342359
0.400175
0.391941
0.369606
0.371279
0.410147
0.4245
0.399012
0.389172
0.411262
0.463377
0.43383
0.411917
0.417809
0.510461
0.475428
0.442027
0.431524
0.555903
0.519721
0.477073
0.451963
0.574724
0.561918
0.514324
0.478478
0.560401
0.584801
0.550828
0.50964
0.5356
0.588074
0.581017
0.545424
0.493843
0.567647
0.600303
0.584347
0.427135
0.500729
0.570771
0.5973
0.358843
0.410206
0.473475
0.532848
0.304073
0.33424
0.374815
0.423179
0.265934
0.281255
0.302466
0.329214
0.239612
0.245825
0.25479
0.266364
0.219715
0.220773
0.222978
0.226238
0.202875
0.201143
0.199881
0.199044
0.187605
0.184397
0.181418
0.178652
0.173513
0.169567
0.16579
0.162176
0.160655
0.15642
0.152359
0.148469
0.149164
0.144935
0.140905
0.137067
0.139086
0.135067
0.131267
0.127677
0.130358
0.126685
0.123239
0.120006
0.122854
0.119608
0.116579
0.113755
0.116439
0.113651
0.11106
0.108653
0.110994
0.108659
0.106494
0.104484
0.10642
0.104507
0.102731
0.10108
0.102629
0.101087
0.0996508
0.0983101
0.0995343
0.0983044
0.0971522
0.0960696
0.0970458
0.0960675
0.0951441
0.0942691
0.0950712
0.0942889
0.0935436
0.0928306
0.0935211
0.0928863
0.0922756
0.0916855
0.0923134
0.0917858
0.0912734
0.0907738
0.0913775
0.0909236
0.0904796
0.0900438
0.0906552
0.0902466
0.0898456
0.0894514
0.0901008
0.0897116
0.0893311
0.088959
0.0896791
0.0892845
0.0889036
0.0885362
0.0893611
0.088938
0.0885383
0.0881612
0.0891192
0.0886508
0.0882199
0.0878242
0.0889258
0.0884103
0.0879484
0.0875345
0.0887804
0.0882364
0.0877576
0.0873351
0.211356
0.242463
0.232483
0.210628
0.183666
0.155813
0.132794
0.115708
0.103316
0.0942457
0.0875707
0.0826336
0.0788342
0.07556
0.072169
0.0679015
0.0615959
0.0506916
0.0252711
0.349199
0.306517
0.282095
0.26036
0.229638
0.192496
0.158958
0.133839
0.116176
0.103704
0.0947519
0.08825
0.0833752
0.0793659
0.0754615
0.0708048
0.064143
0.0527661
0.0262367
0.492058
0.486503
0.369922
0.315853
0.27748
0.23291
0.188312
0.153509
0.129365
0.112838
0.101289
0.0930646
0.0870384
0.0822667
0.0778553
0.0728424
0.0658868
0.0541657
0.0268955
0.515536
0.624125
0.505482
0.387098
0.326639
0.275543
0.220711
0.174871
0.142985
0.121737
0.107306
0.097257
0.0900555
0.0845333
0.0796436
0.0743122
0.0671116
0.0551313
0.0273565
0.504657
0.660954
0.646709
0.475768
0.377297
0.317511
0.254906
0.197624
0.156927
0.130367
0.112841
0.100924
0.0925709
0.086341
0.081016
0.0754032
0.0679924
0.0558044
0.0277094
0.486571
0.635017
0.725389
0.586807
0.437256
0.35865
0.289093
0.220966
0.170832
0.138575
0.117861
0.104107
0.0946682
0.0877987
0.0820913
0.0762335
0.0686409
0.0562859
0.0280071
0.473493
0.589096
0.71421
0.689093
0.515331
0.405058
0.323014
0.244015
0.18418
0.146117
0.122294
0.10682
0.0964076
0.0889783
0.0829424
0.0768757
0.0691258
0.0566309
0.0282262
0.470451
0.548905
0.667153
0.717242
0.605091
0.46261
0.35851
0.266465
0.196899
0.152867
0.125944
0.108921
0.0977047
0.0898481
0.0835717
0.077347
0.0694703
0.0568627
0.0283775
0.480298
0.525809
0.620232
0.704362
0.655136
0.519478
0.396152
0.287424
0.207147
0.157633
0.128263
0.110159
0.0984536
0.0903676
0.0839662
0.0776483
0.069683
0.056994
0.0284682
0.506455
0.528123
0.595887
0.680622
0.676404
0.558211
0.424417
0.300849
0.212133
0.159301
0.128788
0.110335
0.0985656
0.0904965
0.0841071
0.0777718
0.0697643
0.0570293
0.0285041
0.549641
0.5596
0.604649
0.665596
0.666888
0.570307
0.431798
0.300148
0.209235
0.156953
0.127202
0.109335
0.0979997
0.0902178
0.083985
0.0777129
0.0697139
0.0569716
0.0284933
0.597426
0.614884
0.640014
0.668561
0.647489
0.542577
0.404578
0.279242
0.197012
0.150351
0.123499
0.107204
0.0967989
0.0895572
0.0836125
0.0774781
0.0695367
0.0568258
0.028451
0.59204
0.636632
0.65984
0.649981
0.589246
0.471646
0.341601
0.240848
0.17764
0.140516
0.118162
0.104204
0.0951066
0.0885883
0.0830261
0.0770867
0.0692444
0.0565999
0.0284037
0.48725
0.54893
0.576532
0.549631
0.472552
0.368899
0.271759
0.201907
0.157439
0.129689
0.112108
0.100771
0.0931378
0.0874203
0.0822872
0.0765777
0.0688639
0.0563121
0.0283488
0.367807
0.412666
0.428803
0.404433
0.345665
0.276441
0.215261
0.170421
0.140002
0.119757
0.106363
0.0974296
0.0911581
0.0861937
0.081475
0.0759988
0.0684246
0.0559779
0.0282645
0.284066
0.305515
0.309547
0.290427
0.253795
0.212376
0.175422
0.146683
0.12585
0.111294
0.101319
0.094407
0.0892962
0.0849879
0.0806436
0.0753883
0.0679533
0.0556147
0.028153
0.231735
0.237504
0.234201
0.219573
0.196801
0.17151
0.148228
0.129222
0.114849
0.10448
0.0971346
0.0918088
0.0876277
0.0838614
0.0798387
0.0747813
0.0674753
0.0552394
0.02802
0.198176
0.195819
0.189087
0.177143
0.161622
0.14493
0.129437
0.116542
0.106583
0.0992116
0.0937921
0.0896513
0.0861847
0.0828501
0.0790933
0.074205
0.0670118
0.0548665
0.0278713
0.174693
0.168643
0.160631
0.150389
0.138786
0.127043
0.116362
0.107479
0.100527
0.0952395
0.0911815
0.0879004
0.0849697
0.0819708
0.0784277
0.0736781
0.0665778
0.0545073
0.0277121
0.156853
0.149382
0.141238
0.132427
0.123371
0.114828
0.107305
0.101088
0.0961535
0.0922798
0.0891669
0.0865014
0.0839682
0.0812266
0.0778509
0.0732109
0.0661829
0.0541693
0.0275465
0.142721
0.135019
0.127388
0.119929
0.112829
0.106473
0.101058
0.096601
0.0930016
0.09008
0.0876214
0.0853964
0.0831572
0.0806108
0.0773638
0.0728069
0.065831
0.0538563
0.0273795
0.131425
0.124129
0.11733
0.111123
0.105564
0.100745
0.0967316
0.0934314
0.0907171
0.0884409
0.0864392
0.0845321
0.0825108
0.0801113
0.076961
0.0724644
0.0655226
0.0535702
0.0272192
0.122437
0.115859
0.10999
0.104875
0.100484
0.0967773
0.0936972
0.0911639
0.089045
0.0872139
0.0855369
0.0838617
0.0820026
0.0797134
0.0766342
0.072179
0.0652559
0.0533124
0.0270707
0.115319
0.109572
0.104596
0.10039
0.0968731
0.0939527
0.0915335
0.0895172
0.087808
0.0862913
0.0848494
0.0833458
0.0816083
0.0794014
0.0763736
0.0719448
0.0650285
0.0530838
0.0269357
0.109678
0.10476
0.100582
0.0971131
0.0942528
0.0918967
0.0899451
0.0883045
0.0868842
0.0855947
0.0843265
0.0829517
0.0813059
0.0791605
0.076169
0.0717556
0.0648376
0.052885
0.026813
0.105184
0.101037
0.0975465
0.0946687
0.0923084
0.0903676
0.088756
0.0873901
0.0861891
0.0850673
0.0839295
0.0826525
0.0810767
0.0789771
0.0760111
0.0716052
0.0646802
0.0527153
0.0267035
0.101583
0.0981211
0.0952101
0.0928082
0.0908349
0.0892082
0.0878512
0.0866913
0.0856561
0.0846663
0.0836289
0.0824268
0.0809046
0.0788396
0.0758912
0.0714879
0.064553
0.0525738
0.0266059
0.0986851
0.0958136
0.0933846
0.0913663
0.0896976
0.088314
0.0871529
0.0861515
0.0852442
0.0843567
0.0833993
0.0822576
0.0807769
0.0787379
0.0758019
0.0713984
0.0644528
0.0524591
0.0265216
0.0963499
0.0939739
0.0919408
0.0902322
0.0888059
0.0876143
0.086607
0.08573
0.0849234
0.0841164
0.0832221
0.082128
0.0806815
0.0786641
0.0757375
0.0713321
0.0643761
0.052369
0.0264512
0.0944699
0.0925002
0.0907885
0.0893295
0.0880977
0.0870595
0.0861751
0.0853975
0.0846712
0.0839287
0.0830848
0.0820288
0.0806094
0.0786087
0.0756894
0.0712836
0.0643196
0.0523013
0.0264044
0.0929597
0.0913161
0.0898622
0.0886038
0.0875286
0.0866144
0.0858293
0.0851321
0.0844709
0.0837805
0.0829777
0.0819527
0.0805553
0.0785685
0.0756557
0.0712498
0.0642805
0.0522551
0.0263672
0.0917485
0.0903618
0.0891126
0.0880149
0.0870664
0.0862529
0.085549
0.0849175
0.0843096
0.083662
0.082893
0.0818937
0.0805151
0.0785404
0.075634
0.0712294
0.0642575
0.052228
0.026336
0.0907771
0.0895891
0.088501
0.087532
0.0866863
0.0859555
0.0853184
0.0847414
0.0841776
0.0835657
0.0828249
0.0818475
0.080485
0.0785216
0.075622
0.0712206
0.064249
0.0522178
0.0263107
0.0899944
0.0889579
0.0879959
0.0871301
0.0863686
0.0857064
0.0851253
0.084594
0.0840675
0.0834857
0.0827689
0.0818104
0.0804625
0.0785099
0.0756179
0.0712215
0.0642529
0.0522225
0.0262914
0.0893566
0.0884335
0.0875701
0.086788
0.0860966
0.0854925
0.0849594
0.0844674
0.083973
0.0834172
0.0827215
0.0817799
0.0804454
0.0785034
0.0756199
0.0712303
0.0642675
0.05224
0.0262779
0.0888258
0.0879854
0.0871996
0.0864869
0.0858556
0.0853025
0.0848118
0.0843547
0.0838889
0.0833565
0.0826798
0.0817538
0.0804321
0.0785009
0.0756266
0.0712456
0.0642907
0.0522682
0.0262699
0.0883689
0.0875871
0.0868634
0.0862104
0.0856329
0.0851264
0.0846749
0.0842502
0.0838109
0.0833002
0.0826413
0.0817301
0.0804209
0.0785007
0.0756367
0.0712655
0.0643204
0.0523044
0.026267
0.0879591
0.0872172
0.0865451
0.0859459
0.085419
0.084957
0.0845432
0.0841496
0.0837358
0.0832459
0.0826042
0.0817074
0.0804107
0.0785017
0.0756483
0.071288
0.0643539
0.0523456
0.0262681
0.087579
0.086864
0.0862368
0.0856883
0.0852103
0.0847918
0.0844148
0.0840516
0.0836626
0.0831929
0.0825677
0.0816848
0.0804003
0.0785024
0.0756598
0.0713105
0.0643876
0.0523871
0.0262717
0.0872265
0.0865313
0.0859452
0.0854447
0.0850133
0.0846362
0.0842941
0.0839597
0.0835939
0.0831429
0.0825331
0.0816631
0.0803897
0.078502
0.0756693
0.07133
0.064417
0.0524224
0.0262752
0.0869221
0.0862447
0.0856951
0.0852366
0.0848458
0.0845044
0.0841922
0.083882
0.0835357
0.0831005
0.0825035
0.081644
0.0803798
0.0785003
0.0756754
0.0713436
0.0644367
0.0524422
0.0262751
0.0867181
0.0860563
0.0855322
0.0851015
0.0847369
0.0844183
0.0841252
0.0838306
0.0834968
0.0830717
0.0824828
0.0816301
0.0803716
0.0784972
0.075677
0.0713494
0.0644451
0.0524464
0.0262625
)
;

boundaryField
{
    leftWall
    {
        type            kqRWallFunction;
        value           nonuniform List<scalar> 
50
(
0.00845743
0.0135468
0.0165618
0.0185649
0.0199935
0.0210658
0.021891
0.0225416
0.0231193
0.023819
0.0244285
0.025025
0.0256473
0.0263231
0.0270878
0.0280116
0.0292969
0.031533
0.0359252
0.0427015
0.0480068
0.051261
0.0496119
0.0477386
0.0476008
0.0482863
0.048922
0.0490763
0.0486072
0.0475468
0.0460185
0.0441845
0.0422097
0.0402356
0.0383657
0.036662
0.0351525
0.0338417
0.0327225
0.0317888
0.0310481
0.0305382
0.0303503
0.0306667
0.0318125
0.0342853
0.0387358
0.0461773
0.0593512
0.0881648
)
;
    }
    rightWall
    {
        type            kqRWallFunction;
        value           nonuniform List<scalar> 
50
(
0.0103958
0.0141002
0.0170928
0.0192573
0.0209209
0.0222409
0.0233167
0.0242413
0.0252711
0.0262367
0.0268955
0.0273565
0.0277094
0.0280071
0.0282262
0.0283775
0.0284682
0.0285041
0.0284933
0.028451
0.0284037
0.0283488
0.0282645
0.028153
0.02802
0.0278713
0.0277121
0.0275465
0.0273795
0.0272192
0.0270707
0.0269357
0.026813
0.0267035
0.0266059
0.0265216
0.0264512
0.0264044
0.0263672
0.026336
0.0263107
0.0262914
0.0262779
0.0262699
0.026267
0.0262681
0.0262717
0.0262752
0.0262751
0.0262625
)
;
    }
    lowerWall
    {
        type            kqRWallFunction;
        value           nonuniform List<scalar> 
62
(
0.00845743
0.0139658
0.0203911
0.0254719
0.0299897
0.034296
0.0385841
0.0429626
0.047476
0.0521034
0.0567494
0.0612406
0.065332
0.0687254
0.0710982
0.0721228
0.0714244
0.0694761
0.0661568
0.0611551
0.0547028
0.0449484
0.0290915
0.0290915
0.0744302
0.103855
0.128064
0.152149
0.178148
0.207334
0.241678
0.290412
0.218664
0.18417
0.198654
0.0108244
0.0210554
0.0291531
0.0385255
0.0508676
0.0675295
0.089211
0.118571
0.0108244
0.0183001
0.022438
0.0246904
0.0254632
0.0253503
0.0244897
0.0233468
0.0221994
0.0211733
0.0202943
0.019536
0.0188364
0.0181211
0.0172717
0.0161023
0.0143402
0.0116276
0.0103958
)
;
    }
    atmosphere
    {
        type            inletOutlet;
        inletValue      uniform 0.1;
        value           nonuniform List<scalar> 
46
(
0.1
0.1
0.1
0.1
0.1
0.1
0.1
0.1
0.1
0.1
0.1
0.1
0.1
0.1
0.1
0.1
0.1
0.1
0.1
0.1
0.0937993
0.0914546
0.0897445
0.0887804
0.0882364
0.0877576
0.0873351
0.0867181
0.0860563
0.0855322
0.0851015
0.0847369
0.0844183
0.0841252
0.0838306
0.0834968
0.0830717
0.0824828
0.0816301
0.0803716
0.0784972
0.075677
0.0713494
0.0644451
0.0524464
0.0262625
)
;
    }
    defaultFaces
    {
        type            empty;
    }
}


// ************************************************************************* //
