/*--------------------------------*- C++ -*----------------------------------*\
  =========                 |
  \\      /  F ield         | OpenFOAM: The Open Source CFD Toolbox
   \\    /   O peration     | Website:  https://openfoam.org
    \\  /    A nd           | Version:  9
     \\/     M anipulation  |
\*---------------------------------------------------------------------------*/
FoamFile
{
    format      ascii;
    class       volScalarField;
    location    "0.2";
    object      nut;
}
// * * * * * * * * * * * * * * * * * * * * * * * * * * * * * * * * * * * * * //

dimensions      [0 2 -1 0 0 0 0];

internalField   nonuniform List<scalar> 
2268
(
0.000137558
0.000164142
0.000207022
0.000217943
0.000206996
0.000207639
0.00021187
0.000213905
0.00021431
0.000213639
0.000211861
0.000209537
0.000207161
0.000205263
0.00020434
0.000204718
0.000206302
0.000208138
0.000207416
0.000198324
0.000172584
0.000143339
0.000105171
0.000294909
0.0004162
0.000602894
0.00109238
0.00121864
0.00110874
0.00117481
0.00132017
0.00143983
0.00148405
0.00151104
0.00152044
0.00151215
0.00149052
0.00146474
0.00144618
0.00144149
0.00144138
0.00140888
0.00127629
0.000998885
0.000580569
0.000271991
0.000328066
0.000636814
0.00104804
0.00185564
0.0022191
0.0023776
0.00266415
0.00295408
0.00311525
0.00316459
0.00316265
0.00311011
0.00300445
0.00285188
0.00267121
0.00248923
0.00232705
0.00218066
0.00200894
0.00175226
0.00136174
0.000863638
0.000281613
0.000344734
0.000821789
0.0014402
0.00240031
0.00300619
0.00351567
0.00405754
0.00447687
0.00467774
0.00471344
0.00465456
0.00451099
0.00428051
0.00396866
0.00359862
0.00320902
0.00283873
0.00250185
0.00217295
0.00181338
0.00141067
0.000955233
0.000277321
0.000352643
0.000971307
0.0017543
0.00280637
0.00362821
0.00442932
0.00517773
0.00572155
0.00599566
0.00604024
0.00594618
0.00573147
0.00539715
0.00494624
0.00440013
0.00380296
0.00321118
0.00266738
0.00217767
0.00173075
0.00133084
0.000929802
0.000267441
0.000356169
0.00109013
0.00199122
0.00311507
0.00411986
0.00515076
0.00605121
0.00669247
0.00704098
0.00713097
0.0070433
0.00680107
0.00640754
0.00586201
0.00518021
0.00440615
0.00361035
0.00286729
0.00222052
0.0016802
0.00125742
0.000886474
0.000264989
0.000357178
0.00118503
0.00215947
0.00334032
0.00450094
0.00571958
0.00674077
0.00745097
0.00785329
0.00799668
0.00794685
0.00772244
0.0073224
0.006739
0.00597909
0.00508235
0.00412852
0.00321926
0.00242878
0.00177465
0.0012667
0.000889742
0.000290659
0.000356372
0.00125683
0.00226256
0.00348682
0.00478734
0.00616786
0.00730015
0.0080644
0.00849511
0.00867319
0.00866634
0.00848771
0.00812681
0.00756334
0.00679022
0.00583799
0.00479026
0.00376746
0.00286317
0.0020918
0.00144008
0.000926829
0.000425996
0.000287966
7.9449e-05
8.87444e-05
9.40946e-05
9.74214e-05
9.96397e-05
0.000101171
0.000102224
0.000102631
0.000102575
0.00010212
0.000101252
9.9887e-05
9.78598e-05
9.48916e-05
9.0512e-05
8.3825e-05
7.29044e-05
0.000199364
0.000208009
0.000512011
0.000617958
0.000701912
0.000768722
0.000822512
0.000859528
0.000877388
0.000889501
0.000896809
0.000898931
0.000894703
0.00088206
0.000857808
0.000817077
0.000752114
0.000649163
0.000479582
0.000181117
0.000246678
0.000988347
0.00128939
0.001496
0.00163768
0.00173529
0.00179675
0.00182811
0.0018453
0.00185031
0.00184175
0.00181618
0.00176809
0.00168961
0.00156981
0.00139322
0.0011362
0.000757944
0.000199235
0.000281804
0.00144998
0.00197927
0.00230519
0.00250475
0.00262676
0.00269702
0.00272958
0.00274122
0.00273411
0.00270515
0.00264802
0.00255348
0.00240921
0.00219954
0.00190457
0.00149791
0.00094085
0.000210727
0.000317009
0.00189235
0.0026548
0.00309518
0.003343
0.00347841
0.00354615
0.00356951
0.00356694
0.00354024
0.00348416
0.00338926
0.00324264
0.00302825
0.00272721
0.00231808
0.00177622
0.00107123
0.000218723
0.00035509
0.0023177
0.00329913
0.00385119
0.00414352
0.0042867
0.00434381
0.0043504
0.00432714
0.00427531
0.00418732
0.00405061
0.00384894
0.0035633
0.00317309
0.00265744
0.00199602
0.00116864
0.000224609
0.00039829
0.00273706
0.00390896
0.00456591
0.00490008
0.00504825
0.00508849
0.00507321
0.00502475
0.00494389
0.00482078
0.00463987
0.00438202
0.00402612
0.00355102
0.00293791
0.00217197
0.00124318
0.000229133
0.000458817
0.00318191
0.00449924
0.00524168
0.00560957
0.00575657
0.00577773
0.00573739
0.00566085
0.00554853
0.00538846
0.00516241
0.00484884
0.00442525
0.00387092
0.00317001
0.00231368
0.00130114
0.000232778
0.000349873
0.00133758
0.00231167
0.00359694
0.00511438
0.00672032
0.00803061
0.00888654
0.00933994
0.00951601
0.00951527
0.00937799
0.00908898
0.00860383
0.00788216
0.00692761
0.00581892
0.00469605
0.00367889
0.00279278
0.00200585
0.00132932
0.000820729
0.000341568
0.00138124
0.0022563
0.00349901
0.00513493
0.0069946
0.00863606
0.00974902
0.0103111
0.0104615
0.0103876
0.0102227
0.0100036
0.00969643
0.00922604
0.00853616
0.00765566
0.00670767
0.00583288
0.00510223
0.00450455
0.0040027
0.00360549
0.000333435
0.00141947
0.0022263
0.00337208
0.00498562
0.00698787
0.00896003
0.0104373
0.0112292
0.0114216
0.0112563
0.0109652
0.0106802
0.0104449
0.0102077
0.00985703
0.00932473
0.00866088
0.00799042
0.00741522
0.00697143
0.00664875
0.00643131
0.000326341
0.00146469
0.0022299
0.00328446
0.00483521
0.00684834
0.00901917
0.0108859
0.0120298
0.012386
0.0121976
0.0117627
0.0113095
0.0109808
0.0108166
0.0107189
0.0105313
0.0101904
0.00976368
0.00935496
0.00902869
0.00880488
0.00868704
0.000320801
0.0015209
0.00227182
0.0032512
0.00473629
0.00670871
0.00892941
0.0110637
0.0126233
0.013271
0.013161
0.0126368
0.0119975
0.0114681
0.0112013
0.0111867
0.011245
0.011197
0.0110142
0.010773
0.0105487
0.0103798
0.0102805
0.000316917
0.00158712
0.00235418
0.00327404
0.00469499
0.00661707
0.00882021
0.0110417
0.0129519
0.0140073
0.01408
0.0135448
0.0127584
0.0120005
0.0115167
0.0114155
0.0115727
0.0117356
0.0117601
0.0116647
0.0115213
0.0113804
0.011267
0.000314475
0.00165979
0.00247493
0.00335287
0.00471082
0.00657835
0.0087455
0.0109653
0.0130452
0.0145469
0.0149034
0.0144367
0.0135613
0.0126005
0.0118591
0.0115533
0.0116641
0.0119328
0.0121086
0.0121277
0.0120418
0.0119107
0.0117704
0.000313085
0.00173414
0.0026286
0.00348674
0.00478349
0.00658895
0.00870864
0.0109056
0.0130243
0.0148347
0.0155662
0.0152437
0.0143562
0.0132488
0.0122656
0.0117022
0.0116564
0.0119266
0.0121929
0.0122956
0.012249
0.0121165
0.0119467
0.000312319
0.00180532
0.00280741
0.00367257
0.00491349
0.00664464
0.0086977
0.0108483
0.0129548
0.0149129
0.0160251
0.0159268
0.0150998
0.0139124
0.012736
0.0119155
0.0116499
0.0118349
0.0121334
0.0122932
0.0122745
0.0121362
0.0119391
0.000311803
0.00186926
0.00300154
0.00390431
0.00509934
0.00674355
0.00870535
0.0107838
0.0128496
0.0148459
0.0162912
0.0164748
0.0157661
0.0145626
0.0132544
0.0122102
0.011705
0.0117436
0.0120218
0.0122156
0.0122184
0.0120746
0.011854
0.000311249
0.00192285
0.00319958
0.00417083
0.00533486
0.00688304
0.00873084
0.0107124
0.0127155
0.0146951
0.0163896
0.0168877
0.0163365
0.0151808
0.0138029
0.0125828
0.0118487
0.0117066
0.0119207
0.0121261
0.0121458
0.0119982
0.0117581
0.00031046
0.00196404
0.00338959
0.00445586
0.00560715
0.0070568
0.00877443
0.0106399
0.0125608
0.01449
0.0163259
0.0171783
0.0168253
0.0157657
0.0143679
0.0130203
0.0120851
0.0117514
0.0118683
0.0120632
0.0120938
0.0119435
0.0116863
0.000309323
0.00199186
0.00356059
0.00474041
0.00589808
0.00725409
0.00883427
0.0105721
0.0123996
0.0142696
0.0161329
0.0173306
0.0172468
0.0163181
0.0149366
0.0135058
0.0124054
0.0118864
0.0118846
0.0120479
0.012081
0.0119271
0.0116536
0.000307797
0.00200629
0.00370401
0.0050061
0.00618784
0.00746156
0.00890596
0.010512
0.0122408
0.0140499
0.0159
0.0173801
0.0176042
0.0168245
0.0154936
0.0140221
0.0127949
0.012108
0.0119774
0.0120903
0.0121156
0.0119545
0.0116635
0.000305897
0.00200822
0.00381465
0.00523809
0.0064585
0.0076659
0.00898366
0.0104602
0.0120888
0.0138342
0.0156576
0.0173465
0.0178786
0.0172693
0.016029
0.0145561
0.0132379
0.012406
0.0121457
0.0121937
0.0121995
0.0120259
0.0117146
0.000303684
0.00199926
0.00389092
0.00542683
0.00669645
0.0078559
0.00906165
0.0104161
0.0119466
0.013627
0.0154097
0.0172026
0.0180726
0.0176675
0.0165495
0.0151008
0.0137201
0.0127674
0.0123835
0.0123565
0.0123313
0.0121383
0.0118029
0.000301245
0.00198147
0.00393448
0.00556847
0.00689345
0.00802361
0.00913533
0.0103789
0.0118172
0.0134366
0.0151877
0.017007
0.0181765
0.0180397
0.0170596
0.0156475
0.0142271
0.0131778
0.0126812
0.0125739
0.0125072
0.0122875
0.0119235
0.000298682
0.00195718
0.00394936
0.00566416
0.00704658
0.0081647
0.00920173
0.0103482
0.0117021
0.0132655
0.0149921
0.0168292
0.0182516
0.0183915
0.0175481
0.0161814
0.0147446
0.0136233
0.0130278
0.0128384
0.0127214
0.0124678
0.0120712
0.000296096
0.00192867
0.00394108
0.00571887
0.00715743
0.00827824
0.00925977
0.010324
0.0116025
0.0131145
0.014818
0.0166645
0.0183005
0.0186986
0.0179883
0.0166886
0.015262
0.0140922
0.013412
0.0131411
0.0129665
0.0126724
0.0122398
0.00029358
0.00189806
0.00391574
0.00573993
0.00723096
0.00836621
0.00931015
0.0103074
0.0115206
0.0129864
0.0146667
0.0165092
0.0183085
0.018957
0.0183828
0.0171722
0.0157775
0.0145766
0.0138234
0.0134722
0.0132337
0.0128938
0.0124228
0.000291208
0.00186717
0.00387932
0.00573576
0.00727434
0.00843283
0.0093552
0.0103004
0.0114586
0.0128849
0.014545
0.0163768
0.0182741
0.019194
0.0187611
0.0176513
0.0162956
0.0150709
0.0142519
0.0138213
0.0135136
0.0131238
0.0126133
0.000289037
0.00183745
0.00383719
0.00571487
0.00729577
0.00848381
0.00939851
0.0103057
0.0114193
0.0128132
0.0144603
0.0162971
0.0182481
0.0194033
0.019146
0.0181384
0.0168164
0.0155673
0.0146866
0.0141772
0.0137964
0.0133541
0.0128046
0.000287109
0.00180996
0.00379377
0.00568498
0.00730353
0.00852558
0.0094446
0.0103268
0.0114056
0.0127732
0.0144129
0.0162668
0.0182751
0.0196228
0.0195377
0.0186231
0.0173272
0.0160523
0.0151144
0.014528
0.0140722
0.0135768
0.0129896
0.000285449
0.00178524
0.00375234
0.00565253
0.00730516
0.00856459
0.00949855
0.0103682
0.011421
0.0127667
0.0144005
0.0162729
0.0183354
0.0198389
0.0199036
0.0190787
0.0178062
0.016508
0.0155204
0.0148614
0.0143316
0.0137846
0.0131616
0.000284039
0.00176336
0.00371496
0.00562223
0.00730672
0.00860663
0.00956554
0.0104346
0.0114701
0.0127966
0.0144223
0.0163069
0.0184115
0.0200298
0.0202182
0.0194833
0.0182325
0.0169158
0.0158897
0.0151657
0.0145671
0.0139714
0.013314
0.000282804
0.00174394
0.00368254
0.00559685
0.00731221
0.00865608
0.00965038
0.0105318
0.0115588
0.0128681
0.0144805
0.0163664
0.0184962
0.0202005
0.0204844
0.0198243
0.0185869
0.0172593
0.0162092
0.0154321
0.0147736
0.0141322
0.0134405
0.000281626
0.00172634
0.00365499
0.00557715
0.00732317
0.00871524
0.00975667
0.0106653
0.0116943
0.0129887
0.0145816
0.0164546
0.0185865
0.0203358
0.0207021
0.0200867
0.0188493
0.0175244
0.0164697
0.0156569
0.0149495
0.0142629
0.0135348
0.00028042
0.00170977
0.00363154
0.00556197
0.00733841
0.00878352
0.00988549
0.0108389
0.011884
0.0131683
0.0147363
0.016582
0.0186924
0.0204232
0.0208548
0.0202585
0.0190034
0.0177066
0.0166804
0.0158526
0.0150999
0.0143607
0.0135901
0.00027935
0.00169321
0.00361106
0.00554856
0.00735404
0.00885672
0.0100336
0.0110525
0.0121324
0.0134169
0.0149582
0.0167643
0.018841
0.0205162
0.0209393
0.0203208
0.0190661
0.0178468
0.0168739
0.0160328
0.0152252
0.0144209
0.0136005
0.000278692
0.00168136
0.00359265
0.00553272
0.00736353
0.00892635
0.0101912
0.0112976
0.0124365
0.0137395
0.0152592
0.0170134
0.0190429
0.0206467
0.0209816
0.0202912
0.0190819
0.017982
0.0170629
0.0161939
0.0153152
0.0144337
0.0135591
0.000278752
0.00167486
0.00357339
0.00550756
0.00735761
0.00897985
0.0103416
0.0115548
0.0127793
0.0141279
0.0156429
0.0173306
0.0192386
0.0207556
0.0209673
0.020186
0.0190956
0.018133
0.017243
0.0163198
0.0153527
0.0143876
0.0134602
0.000280634
0.0016672
0.00354511
0.0054626
0.00732537
0.00900139
0.0104653
0.011801
0.0131362
0.0145636
0.0161079
0.017727
0.0193708
0.020675
0.0208204
0.020046
0.0191501
0.0182988
0.017391
0.0163825
0.0153165
0.0142714
0.0133009
0.000284509
0.00164523
0.00349237
0.0053866
0.00725294
0.00897826
0.0105452
0.0120121
0.0134757
0.0150137
0.0166382
0.0182137
0.019531
0.0204948
0.0205678
0.0199685
0.0192648
0.0184462
0.017462
0.0163453
0.0151853
0.014078
0.0130822
0.000288905
0.00158225
0.00338401
0.00525854
0.00712469
0.00889575
0.0105609
0.0121517
0.0137348
0.0153682
0.0170544
0.0185958
0.0196999
0.0203593
0.0203903
0.0200033
0.019378
0.0184935
0.0173924
0.0161724
0.0149457
0.0138068
0.0128091
0.0002883
0.00144565
0.0031754
0.00503727
0.00690897
0.00872479
0.0104715
0.0121558
0.0138116
0.0154661
0.0170943
0.0185467
0.0195911
0.0201447
0.020278
0.019997
0.0193259
0.0183292
0.0171263
0.0158454
0.0145979
0.0134641
0.0124891
0.000286718
0.00124567
0.00286017
0.00468528
0.00656193
0.00841753
0.0102153
0.0119432
0.0136089
0.0152113
0.016713
0.0180308
0.0190787
0.0197426
0.0199798
0.0196997
0.0189576
0.0178915
0.016653
0.0153747
0.0141554
0.0130603
0.0121306
0.000284407
0.00109818
0.00251913
0.00422811
0.00607929
0.00794428
0.00975511
0.0114848
0.0131259
0.0146691
0.0160905
0.0173524
0.0183961
0.0190958
0.0193239
0.0190229
0.0182686
0.0172137
0.0160122
0.0147911
0.0136367
0.0126059
0.0117419
0.000281483
0.00103138
0.00229267
0.00384061
0.00559788
0.00742222
0.00921431
0.0109281
0.0125448
0.0140525
0.0154297
0.0166355
0.0176004
0.0182142
0.018379
0.0180764
0.0173697
0.0163836
0.0152618
0.0141262
0.013057
0.0121096
0.0113306
0.000278677
0.00103483
0.00222032
0.00364505
0.00528826
0.00703525
0.00877507
0.0104448
0.0120131
0.0134591
0.0147543
0.0158524
0.0166895
0.01719
0.0172984
0.0170144
0.0163835
0.0154855
0.0144461
0.0133962
0.0124212
0.011575
0.0108999
0.000275885
0.0010756
0.00224693
0.00361479
0.00517121
0.006829
0.00848559
0.0100726
0.0115507
0.012892
0.0140653
0.0150293
0.0157361
0.0161399
0.016214
0.015962
0.0154068
0.0145788
0.0135751
0.0125881
0.0117166
0.0109953
0.0104443
0.000273139
0.00112543
0.00231337
0.00366808
0.00516865
0.00674283
0.00830388
0.00978836
0.0111561
0.0123778
0.0134249
0.0142651
0.0148657
0.0152005
0.0152574
0.0150361
0.0145287
0.0137013
0.0125762
0.011625
0.0108946
0.0103435
0.00994772
0.000269691
0.00115074
0.00237162
0.00373279
0.00519817
0.00670796
0.00819234
0.00959637
0.010882
0.0120209
0.012987
0.0137534
0.0142954
0.0145945
0.0146414
0.0144268
0.0139098
0.0129393
0.0110537
0.0102379
0.00981624
0.0095509
0.0093761
0.000517617
0.000522103
0.000532477
0.000548293
0.00338925
0.00337527
0.00340174
0.00348753
0.00634306
0.0063633
0.00644881
0.00661022
0.00868268
0.00872496
0.0088005
0.00890139
0.0102601
0.0102712
0.0102991
0.0103357
0.0112047
0.0111754
0.0111526
0.0111313
0.0116642
0.0115988
0.0115353
0.0114715
0.0118038
0.0117111
0.0116187
0.0115268
0.0117675
0.011655
0.0115429
0.0114331
0.0116599
0.0115328
0.0114067
0.0112848
0.0115454
0.0114067
0.0112695
0.011138
0.0114571
0.0113078
0.0111607
0.0110201
0.0114079
0.0112483
0.0110911
0.0109411
0.0114002
0.0112298
0.0110617
0.0109014
0.0114317
0.011249
0.011069
0.0108971
0.0114977
0.0113013
0.0111079
0.0109232
0.0115932
0.0113813
0.0111729
0.0109741
0.011713
0.0114838
0.0112588
0.0110445
0.0118516
0.0116036
0.0113604
0.0111292
0.0120033
0.0117354
0.0114727
0.0112235
0.0121623
0.0118738
0.0115909
0.0113226
0.0123224
0.0120134
0.0117098
0.0114218
0.0124775
0.0121485
0.0118243
0.0115165
0.0126211
0.012273
0.0119291
0.0116019
0.0127469
0.0123809
0.0120187
0.0116732
0.012848
0.012466
0.0120874
0.0117257
0.0129182
0.0125219
0.0121296
0.0117546
0.0129509
0.0125425
0.0121395
0.0117551
0.0129407
0.0125229
0.0121132
0.0117238
0.0128829
0.0124601
0.0120491
0.0116603
0.0127749
0.0123527
0.0119466
0.0115647
0.0126167
0.0122017
0.0118071
0.0114385
0.0124113
0.0120102
0.0116336
0.0112845
0.0121644
0.0117835
0.0114308
0.0111071
0.0118824
0.0115279
0.0112047
0.010912
0.0115728
0.0112505
0.0109624
0.0107055
0.0112429
0.0109589
0.0107105
0.0104925
0.010899
0.0106584
0.0104525
0.0102745
0.0105429
0.010349
0.0101869
0.0100482
0.0101685
0.010024
0.00990628
0.00980622
0.00976268
0.00967061
0.0095983
0.00953707
0.00930122
0.00926722
0.00924228
0.00922101
0.00173522
0.00411172
0.00545258
0.00626222
0.00665795
0.00678429
0.00676033
0.00666971
0.00654146
0.0063745
0.00615325
0.00585556
0.00545686
0.00493367
0.00426733
0.00344777
0.00247566
0.00136337
0.000236306
0.00418907
0.00571585
0.00687096
0.00757425
0.00787803
0.00791228
0.00781254
0.00765272
0.00745741
0.00722159
0.00692543
0.006543
0.00604752
0.00541587
0.00463307
0.0036961
0.00261503
0.00141328
0.000239871
0.00690891
0.0077508
0.00841975
0.00878599
0.00887898
0.00879229
0.00861276
0.00838982
0.00813675
0.00784269
0.00748406
0.00703246
0.00646024
0.00574555
0.00487702
0.00385709
0.00270218
0.00144248
0.000242517
0.00904004
0.00938539
0.00963501
0.00970714
0.0096188
0.00942604
0.00918024
0.00890835
0.00861184
0.00827414
0.00786877
0.00736589
0.00673782
0.00596412
0.00503625
0.00396041
0.00275685
0.00145975
0.00024467
0.0103687
0.0104342
0.0104233
0.0103049
0.0100968
0.00983461
0.00954716
0.00924545
0.0089222
0.00855669
0.00812068
0.00758381
0.00691873
0.00610624
0.00513972
0.00402762
0.00279233
0.00147045
0.000246567
0.0110816
0.0109902
0.0108374
0.0106185
0.0103509
0.010058
0.00975473
0.00944237
0.00910825
0.00872947
0.00827715
0.00772104
0.00703431
0.00619863
0.0052085
0.00407355
0.0028173
0.0014779
0.000248331
0.0113661
0.0111932
0.0109769
0.0107205
0.0104384
0.0101449
0.00984649
0.00953879
0.00920652
0.00882609
0.00836881
0.00780491
0.00710805
0.0062604
0.00525698
0.00410792
0.00283718
0.00148411
0.000250026
0.011387
0.011178
0.0109439
0.0106877
0.0104181
0.0101424
0.00986177
0.00956867
0.00924686
0.00887293
0.00841881
0.00785528
0.00715637
0.00630442
0.00529449
0.00413674
0.00285522
0.00149026
0.00025168
0.0112726
0.0110513
0.010822
0.0105836
0.0103385
0.0100888
0.00983177
0.00955819
0.00925161
0.00888915
0.00844344
0.00788571
0.00719013
0.00633888
0.00532676
0.00416359
0.0028733
0.00149701
0.000253306
0.0111104
0.0108861
0.0106687
0.0104524
0.0102341
0.0100113
0.00977858
0.0095257
0.00923621
0.00888776
0.0084535
0.00790492
0.00721609
0.00636875
0.00535711
0.00419049
0.00289244
0.00150473
0.000254906
0.0109516
0.010725
0.010518
0.0103208
0.0101258
0.00992678
0.00971626
0.00948301
0.0092106
0.00887704
0.00845577
0.0079183
0.00723831
0.00639688
0.0053874
0.00421847
0.00291313
0.00151361
0.000256476
0.010821
0.0105882
0.0103862
0.0102021
0.0100246
0.0098447
0.00965288
0.0094371
0.00918076
0.00886199
0.0084543
0.00792897
0.00725907
0.00642479
0.00541854
0.00424799
0.00293558
0.00152371
0.000258011
0.0107271
0.0104829
0.0102792
0.0101012
0.00993521
0.00976937
0.00959255
0.00939175
0.00915004
0.00884548
0.00845141
0.00793868
0.00727959
0.00645323
0.00545087
0.00427917
0.00295976
0.00153505
0.000259505
0.0106701
0.010409
0.0101969
0.0100188
0.00985856
0.00970227
0.00953702
0.00934881
0.00912022
0.00882905
0.00844835
0.00794835
0.00730042
0.00648246
0.00548445
0.0043119
0.00298556
0.00154755
0.00026095
0.0106463
0.0103632
0.0101372
0.00995323
0.00979401
0.00964339
0.00948677
0.00930902
0.00909212
0.00881349
0.00844573
0.00795839
0.00732177
0.00651247
0.0055191
0.00434595
0.00301277
0.00156112
0.000262339
0.0106506
0.0103415
0.0100966
0.00990228
0.00974011
0.00959204
0.00944162
0.00927254
0.00906607
0.00879914
0.00844384
0.00796894
0.00734361
0.00654309
0.00555455
0.004381
0.0030411
0.00157563
0.000263664
0.0106779
0.0103392
0.0100718
0.00986343
0.00969525
0.00954726
0.00940114
0.00923926
0.00904213
0.00878612
0.00844276
0.00797998
0.00736581
0.00657408
0.00559047
0.00441668
0.00307024
0.00159092
0.00026492
0.010723
0.0103521
0.0100593
0.00983423
0.00965779
0.00950807
0.00936479
0.00920896
0.00902024
0.00877444
0.00844247
0.00799142
0.00738818
0.00660513
0.00562647
0.00445259
0.00309986
0.00160682
0.0002661
0.010781
0.0103759
0.0100558
0.00981236
0.0096262
0.00947352
0.00933205
0.00918137
0.00900029
0.00876404
0.00844291
0.00800315
0.0074105
0.00663593
0.00566218
0.00448832
0.00312959
0.00162314
0.000267199
0.0108474
0.0104068
0.0100583
0.00979566
0.00959907
0.00944276
0.00930242
0.00915624
0.00898216
0.00875485
0.00844399
0.00801502
0.00743255
0.00666618
0.00569722
0.00452347
0.00315907
0.00163966
0.000268214
0.0109177
0.0104409
0.010064
0.00978218
0.00957516
0.00941505
0.00927551
0.00913335
0.00896576
0.00874682
0.00844566
0.00802693
0.00745415
0.00669561
0.00573124
0.00455767
0.00318796
0.00165619
0.000269143
0.0109877
0.0104746
0.0100701
0.00977015
0.00955341
0.00938978
0.00925097
0.00911257
0.00895102
0.00873993
0.00844789
0.0080388
0.00747517
0.00672401
0.00576399
0.00459058
0.00321592
0.00167251
0.000269985
0.0110531
0.0105046
0.0100743
0.00975808
0.00953297
0.0093665
0.0092286
0.00909379
0.00893793
0.0087342
0.0084507
0.00805064
0.00749554
0.00675128
0.00579526
0.00462197
0.0032427
0.00168843
0.000270741
0.0111099
0.0105279
0.0100746
0.00974482
0.00951321
0.0093449
0.00920826
0.009077
0.00892655
0.00872972
0.00845418
0.00806251
0.00751534
0.00677741
0.00582503
0.00465172
0.00326811
0.00170377
0.000271415
0.0111541
0.0105418
0.0100694
0.00972957
0.00949378
0.00932485
0.00918996
0.00906229
0.00891699
0.00872664
0.00845853
0.00807464
0.00753477
0.00680262
0.00585343
0.0046799
0.00329212
0.00171844
0.000272013
0.0111818
0.0105439
0.0100576
0.00971193
0.00947457
0.00930638
0.00917379
0.00904979
0.00890946
0.00872522
0.00846406
0.0080874
0.00755426
0.00682735
0.0058809
0.00470685
0.00331487
0.00173241
0.000272549
0.0111898
0.010533
0.010039
0.00969193
0.00945573
0.00928966
0.00915994
0.00903974
0.00890425
0.00872583
0.00847123
0.00810139
0.00757454
0.00685243
0.00590827
0.00473326
0.00333682
0.00174578
0.000273047
0.011175
0.0105083
0.0100136
0.00966994
0.00943756
0.00927494
0.00914866
0.00903241
0.00890169
0.00872894
0.0084807
0.00811746
0.0075967
0.00687914
0.0059369
0.00476039
0.00335882
0.00175888
0.00027355
0.011135
0.0104695
0.00998233
0.00964663
0.0094205
0.00926251
0.00914019
0.00902808
0.00890217
0.00873508
0.00849326
0.00813677
0.00762231
0.00690942
0.00596893
0.00479022
0.00338233
0.00177232
0.000274138
0.0110709
0.0104168
0.00994464
0.00962211
0.00940489
0.0092526
0.00913468
0.00902693
0.00890599
0.00874481
0.00850984
0.00816079
0.00765346
0.00694598
0.00600745
0.00482578
0.0034096
0.00178708
0.000274956
0.010984
0.0103521
0.00990215
0.00959671
0.00939044
0.00924499
0.00913204
0.00902892
0.00891329
0.00875858
0.00853142
0.00819121
0.00769279
0.00699244
0.00605679
0.00487136
0.00344393
0.0018046
0.000276252
0.0108767
0.0102779
0.00985653
0.00957119
0.0093772
0.00923922
0.00913163
0.00903361
0.00892389
0.0087766
0.00855884
0.00822984
0.00774338
0.00705329
0.00612257
0.0049328
0.00348981
0.00182676
0.000278443
0.0107523
0.0101968
0.00980909
0.00954569
0.00936463
0.00923447
0.0091326
0.00904011
0.00893704
0.0087986
0.00859257
0.00827836
0.00780852
0.00713378
0.00621176
0.00501761
0.00355308
0.00185587
0.000282176
0.0106153
0.0101115
0.00976033
0.00951948
0.00935143
0.00922926
0.00913348
0.00904714
0.00895175
0.00882389
0.00863259
0.00833786
0.00789121
0.00723941
0.00633229
0.00513476
0.00364096
0.00189443
0.000288345
0.0104703
0.0100233
0.00970954
0.00949079
0.00933553
0.00922154
0.00913232
0.00905288
0.00896639
0.00885124
0.00867832
0.00840892
0.00799395
0.0073755
0.00649277
0.00529458
0.00376133
0.00194528
0.000297977
0.0103209
0.00993212
0.00965467
0.00945707
0.00931444
0.00920906
0.0091271
0.00905546
0.00897919
0.00887892
0.00872819
0.00849061
0.00811734
0.00754573
0.00670127
0.00550883
0.00392475
0.0020127
0.000311923
0.0101682
0.00983582
0.00959263
0.00941546
0.00928585
0.00918997
0.00911629
0.00905349
0.00898866
0.00890516
0.00878
0.00858038
0.00825937
0.00775058
0.00696371
0.00579005
0.00414524
0.0021049
0.000330495
0.0100099
0.00973049
0.00951994
0.00936348
0.00924823
0.00916344
0.00909944
0.00904659
0.00899417
0.00892864
0.00883124
0.00867417
0.00841481
0.00798603
0.00728237
0.00615199
0.00444326
0.00223061
0.000353407
0.00984071
0.00961145
0.00943365
0.00929991
0.0092016
0.00913023
0.00907763
0.00903581
0.0089963
0.00894889
0.00887952
0.00876671
0.00857503
0.00824199
0.00765332
0.00661002
0.00485392
0.0024095
0.000379766
0.00965392
0.00947482
0.0093328
0.00922595
0.00914843
0.00909334
0.00905391
0.00902387
0.00899707
0.00896658
0.00892314
0.00885229
0.00872848
0.00850126
0.00806231
0.0071788
0.00544276
0.00269623
0.000409112
0.00944031
0.00931704
0.0092183
0.00914505
0.00909315
0.00905728
0.00903243
0.00901432
0.00899917
0.00898308
0.00896111
0.0089256
0.0088622
0.00873944
0.00847766
0.0078593
0.00633175
0.00323021
0.000442278
0.00918394
0.00913135
0.00908948
0.00905937
0.00903878
0.00902503
0.00901583
0.00900943
0.00900441
0.0089995
0.00899319
0.00898324
0.00896535
0.00892921
0.00884426
0.00859976
0.00773219
0.00460276
0.000482136
)
;

boundaryField
{
    leftWall
    {
        type            nutkWallFunction;
        Cmu             0.09;
        kappa           0.41;
        E               9.8;
        value           nonuniform List<scalar> 
50
(
2.17804e-05
3.05225e-05
3.38615e-05
3.53379e-05
3.60047e-05
3.62862e-05
3.63468e-05
3.62498e-05
3.57677e-05
3.5221e-05
3.47264e-05
3.43328e-05
3.40553e-05
3.38811e-05
3.37808e-05
3.37196e-05
3.36664e-05
3.35978e-05
3.34993e-05
3.33644e-05
3.31929e-05
3.29895e-05
3.27622e-05
3.25201e-05
3.22729e-05
3.20295e-05
3.17975e-05
3.15826e-05
3.13887e-05
3.12181e-05
3.10712e-05
3.09462e-05
3.08398e-05
3.07494e-05
3.06775e-05
3.06357e-05
3.06458e-05
3.0723e-05
3.08758e-05
3.10845e-05
3.12638e-05
3.13278e-05
3.17129e-05
3.213e-05
3.28215e-05
3.32992e-05
3.25999e-05
3.13655e-05
3.03907e-05
2.9749e-05
)
;
    }
    rightWall
    {
        type            nutkWallFunction;
        Cmu             0.09;
        kappa           0.41;
        E               9.8;
        value           nonuniform List<scalar> 
50
(
1.38487e-05
1.80681e-05
2.06625e-05
2.2273e-05
2.33796e-05
2.41845e-05
2.47955e-05
2.52824e-05
2.57536e-05
2.62167e-05
2.65552e-05
2.68286e-05
2.70687e-05
2.72916e-05
2.75053e-05
2.77135e-05
2.79175e-05
2.81176e-05
2.83134e-05
2.85041e-05
2.86891e-05
2.88674e-05
2.90381e-05
2.92004e-05
2.93535e-05
2.94968e-05
2.96296e-05
2.97517e-05
2.98627e-05
2.99626e-05
3.00516e-05
3.01302e-05
3.01991e-05
3.02595e-05
3.03135e-05
3.03649e-05
3.04205e-05
3.0493e-05
3.06049e-05
3.0796e-05
3.11324e-05
3.17161e-05
3.26854e-05
3.41944e-05
3.63687e-05
3.92635e-05
4.28254e-05
4.69631e-05
5.17221e-05
5.74676e-05
)
;
    }
    lowerWall
    {
        type            nutkWallFunction;
        Cmu             0.09;
        kappa           0.41;
        E               9.8;
        value           nonuniform List<scalar> 
62
(
1.0816e-05
1.67274e-05
1.83255e-05
2.17204e-05
2.22474e-05
2.20398e-05
2.2606e-05
2.29577e-05
2.3025e-05
2.28815e-05
2.24973e-05
2.19701e-05
2.13841e-05
2.08357e-05
2.04202e-05
2.02095e-05
2.02153e-05
2.03324e-05
2.02206e-05
1.90112e-05
1.54331e-05
1.07982e-05
4.96388e-06
4.96388e-06
2.85566e-05
3.01376e-05
2.97632e-05
2.85876e-05
2.86915e-05
3.33371e-05
5.16815e-05
6.14295e-05
6.18944e-05
6.3074e-05
6.50617e-05
0
2.11783e-05
2.65752e-05
3.11722e-05
3.57e-05
4.05559e-05
4.60393e-05
5.37319e-05
0
1.69797e-06
3.19547e-06
4.04044e-06
4.55611e-06
4.89376e-06
5.12753e-06
5.28307e-06
5.3431e-06
5.3365e-06
5.27373e-06
5.15325e-06
4.96204e-06
4.67327e-06
4.24054e-06
3.58349e-06
2.54845e-06
8.02372e-07
0
)
;
    }
    atmosphere
    {
        type            calculated;
        value           nonuniform List<scalar> 
46
(
0.000269691
0.00115074
0.00237162
0.00373279
0.00519817
0.00670796
0.00819234
0.00959637
0.010882
0.0120209
0.012987
0.0137534
0.0142954
0.0145945
0.0146414
0.0144268
0.0139098
0.0129393
0.009
0.009
0.009
0.009
0.009
0.009
0.009
0.009
0.009
0.009
0.009
0.009
0.009
0.009
0.009
0.009
0.009
0.009
0.009
0.009
0.009
0.009
0.009
0.009
0.009
0.009
0.009
0.009
)
;
    }
    defaultFaces
    {
        type            empty;
    }
}


// ************************************************************************* //
