/*--------------------------------*- C++ -*----------------------------------*\
  =========                 |
  \\      /  F ield         | OpenFOAM: The Open Source CFD Toolbox
   \\    /   O peration     | Website:  https://openfoam.org
    \\  /    A nd           | Version:  9
     \\/     M anipulation  |
\*---------------------------------------------------------------------------*/
FoamFile
{
    format      ascii;
    class       volScalarField;
    location    "0.2";
    object      p;
}
// * * * * * * * * * * * * * * * * * * * * * * * * * * * * * * * * * * * * * //

dimensions      [1 -1 -2 0 0 0 0];

internalField   nonuniform List<scalar> 
2268
(
-44.4
-6.92424
-2.8682
-1.91149
-2.15511
-2.41046
-2.64689
-2.86384
-3.0132
-3.099
-3.13145
-3.1288
-3.10447
-3.0693
-3.03097
-2.99473
-2.96846
-2.97735
-3.06901
-3.26698
-3.50512
-3.63114
-3.59311
10.3448
-3.46777
-1.66604
-1.65074
-2.01809
-2.32387
-2.60504
-2.83634
-2.98611
-3.06856
-3.10348
-3.10357
-3.0817
-3.04898
-3.01406
-2.98329
-2.9648
-2.9802
-3.07175
-3.26588
-3.50176
-3.61112
-3.54696
44.5064
-3.85763
-1.38954
-1.52138
-1.89947
-2.25546
-2.56256
-2.80436
-2.96131
-3.04978
-3.08815
-3.09054
-3.07001
-3.03813
-3.00472
-2.97746
-2.96465
-2.98364
-3.07048
-3.2558
-3.48671
-3.59619
-3.52317
54.76
-3.16033
-1.50287
-1.48264
-1.84508
-2.213
-2.53061
-2.77819
-2.9428
-3.03771
-3.07913
-3.08252
-3.06179
-3.02905
-2.99495
-2.96825
-2.95721
-2.97529
-3.05324
-3.22948
-3.45986
-3.57581
-3.50229
53.3802
-3.1624
-1.60697
-1.47084
-1.84616
-2.1939
-2.51003
-2.7596
-2.93031
-3.03046
-3.07409
-3.07752
-3.05567
-3.02132
-2.98571
-2.95828
-2.94728
-2.96298
-3.03041
-3.1924
-3.42073
-3.53588
-3.46672
50.2934
-3.25173
-1.66408
-1.47379
-1.8738
-2.19117
-2.49846
-2.74729
-2.92249
-3.02718
-3.07289
-3.07613
-3.05271
-3.01636
-2.97887
-2.94998
-2.9378
-2.95038
-3.00712
-3.14875
-3.36035
-3.46798
-3.41421
47.2179
-4.04724
-1.76795
-1.50085
-1.91004
-2.19806
-2.49236
-2.73841
-2.91705
-3.02606
-3.07439
-3.07803
-3.0531
-3.01439
-2.97451
-2.94337
-2.9286
-2.93674
-2.98231
-3.09754
-3.27309
-3.37396
-3.35215
43.773
-5.6473
-1.96792
-1.5565
-1.94329
-2.2128
-2.49306
-2.73568
-2.91636
-3.02859
-3.07911
-3.08293
-3.05622
-3.01456
-2.97139
-2.93682
-2.91771
-2.91926
-2.95193
-3.03586
-3.16113
-3.2569
-3.32625
-2.06865
-2.08362
-2.09721
-2.10568
-2.10626
-2.09844
-2.08431
-2.06618
-2.04617
-2.02598
-2.00682
-1.98954
-1.97477
-1.963
-1.95452
-1.94952
-1.94782
-1.94862
-1.95143
-2.00625
-2.02051
-2.03577
-2.04593
-2.04783
-2.04075
-2.02718
-2.00941
-1.98979
-1.9699
-1.95095
-1.93381
-1.91909
-1.90728
-1.89863
-1.89326
-1.89096
-1.891
-1.89313
-1.94592
-1.96035
-1.9774
-1.98784
-1.99041
-1.98382
-1.97071
-1.9534
-1.93413
-1.91449
-1.8957
-1.87862
-1.86386
-1.85186
-1.84286
-1.83691
-1.8338
-1.833
-1.83472
-1.8891
-1.90456
-1.92387
-1.93294
-1.93511
-1.92824
-1.91508
-1.89782
-1.87861
-1.859
-1.84018
-1.823
-1.80805
-1.79573
-1.78627
-1.77971
-1.77589
-1.77458
-1.77632
-1.83963
-1.85378
-1.87578
-1.88156
-1.88212
-1.87409
-1.86026
-1.8426
-1.82311
-1.80328
-1.78423
-1.7668
-1.75154
-1.73883
-1.7289
-1.72181
-1.71747
-1.71593
-1.71788
-1.80464
-1.8094
-1.83374
-1.83385
-1.83137
-1.82132
-1.80623
-1.78775
-1.76769
-1.74741
-1.72798
-1.71017
-1.69451
-1.68138
-1.67099
-1.66344
-1.65874
-1.65714
-1.65934
-1.79742
-1.77559
-1.79862
-1.79017
-1.78286
-1.76988
-1.75295
-1.73327
-1.71236
-1.69145
-1.67148
-1.65319
-1.63708
-1.6235
-1.61268
-1.60475
-1.59979
-1.59821
-1.60066
-1.84101
-1.76916
-1.77121
-1.7511
-1.73671
-1.71974
-1.70036
-1.67911
-1.65711
-1.63538
-1.61476
-1.59591
-1.57929
-1.56524
-1.55401
-1.54576
-1.54063
-1.53916
-1.54181
38.2517
-5.37863
-2.11747
-1.70449
-1.98099
-2.25133
-2.51457
-2.74931
-2.92884
-3.04121
-3.09084
-3.09162
-3.06033
-3.01297
-2.96334
-2.92148
-2.89306
-2.88136
-2.89151
-2.92822
-2.97865
-3.00918
-2.97526
36.4142
-1.76825
-3.05843
-2.00134
-2.04572
-2.32519
-2.57257
-2.79323
-2.96369
-3.06853
-3.11027
-3.10257
-3.06222
-3.00502
-2.94426
-2.8895
-2.84526
-2.81266
-2.79251
-2.78373
-2.77429
-2.73008
-2.59766
39.0882
5.95696
-6.37388
-2.52187
-2.2212
-2.42741
-2.64894
-2.85101
-3.0063
-3.09881
-3.12919
-3.11114
-3.05992
-2.99104
-2.91694
-2.84677
-2.78451
-2.72972
-2.68059
-2.635
-2.58674
-2.51707
-2.40142
42.1606
12.9902
-7.38161
-4.18087
-2.47694
-2.54062
-2.7444
-2.93432
-3.06336
-3.13061
-3.14346
-3.11155
-3.04773
-2.96626
-2.87804
-2.79178
-2.71157
-2.63665
-2.56415
-2.49101
-2.41271
-2.32033
-2.20246
44.8111
20.2157
-1.9421
-8.47861
-3.33385
-2.65082
-2.83402
-3.03847
-3.14024
-3.15954
-3.14358
-3.09635
-3.02041
-2.92762
-2.82664
-2.72543
-2.62878
-2.53655
-2.44591
-2.35395
-2.25797
-2.15469
-2.03884
47.265
26.5664
6.06
-10.2346
-6.64641
-2.93123
-2.79191
-3.09661
-3.21148
-3.16679
-3.11202
-3.05449
-2.9715
-2.87181
-2.762
-2.64894
-2.53845
-2.43188
-2.32711
-2.2217
-2.11436
-2.00493
-1.89074
49.314
31.0188
14.1519
-4.57014
-12.2516
-5.0611
-2.56326
-2.83062
-3.17821
-3.12405
-3.0286
-2.97622
-2.89682
-2.79712
-2.68398
-2.56355
-2.44259
-2.32462
-2.20893
-2.09377
-1.9788
-1.86558
-1.75271
50.4111
33.4129
19.3325
3.03711
-11.5947
-13.9941
-6.75264
-3.78305
-3.09287
-3.05777
-2.89901
-2.86733
-2.80046
-2.70617
-2.59434
-2.47085
-2.34285
-2.21614
-2.09198
-1.96952
-1.84905
-1.73308
-1.62086
50.1175
33.9643
21.2435
8.05577
-6.13054
-17.3411
-18.9515
-9.2435
-3.32119
-2.96306
-2.75322
-2.74642
-2.69356
-2.60516
-2.49659
-2.37277
-2.24049
-2.10727
-1.97644
-1.84824
-1.72347
-1.60516
-1.49292
48.361
33.0606
20.983
9.68813
-2.32395
-14.509
-23.1446
-18.6536
-4.49119
-2.77654
-2.62562
-2.63617
-2.58695
-2.5008
-2.39446
-2.27106
-2.1363
-1.99827
-1.8621
-1.72917
-1.60074
-1.48016
-1.36728
45.3126
31.0125
19.5904
9.27653
-0.864584
-11.6267
-22.061
-23.4478
-7.43199
-2.4762
-2.63144
-2.56024
-2.48523
-2.39588
-2.28931
-2.16603
-2.03015
-1.88886
-1.74844
-1.61148
-1.47972
-1.35676
-1.24272
41.1756
28.0183
17.4652
7.99942
-0.976705
-10.0603
-19.4801
-24.1419
-12.5581
-2.70844
-2.71105
-2.43877
-2.36517
-2.28343
-2.17831
-2.05653
-1.9212
-1.77824
-1.63464
-1.49422
-1.35933
-1.23386
-1.1182
36.1929
24.2866
14.6873
6.16232
-1.78185
-9.62099
-17.3844
-23.2002
-17.2259
-3.69638
-2.53204
-2.24289
-2.22498
-2.16097
-2.06104
-1.94277
-1.80923
-1.66573
-1.51978
-1.37635
-1.23848
-1.11039
-0.992799
30.708
20.0932
11.4723
3.84468
-3.03993
-9.78791
-16.1789
-21.7899
-19.784
-5.61294
-1.97499
-2.11141
-2.11228
-2.04263
-1.94333
-1.82687
-1.69447
-1.55082
-1.40307
-1.25696
-1.1162
-0.985388
-0.865609
25.0775
15.7257
8.09506
1.29947
-4.60889
-10.298
-15.5598
-20.3363
-20.6126
-9.0151
-1.89962
-2.23054
-2.04838
-1.93031
-1.82499
-1.70727
-1.57562
-1.43259
-1.2838
-1.13534
-0.991731
-0.858062
-0.735851
19.5397
11.3906
4.73766
-1.2675
-6.30433
-11.0194
-15.3173
-19.1724
-20.5812
-12.1468
-2.50938
-2.3165
-1.8742
-1.77952
-1.68959
-1.57783
-1.45055
-1.31018
-1.16143
-1.01101
-0.86453
-0.727807
-0.602894
14.2142
7.19221
1.47549
-3.77516
-8.03007
-11.8651
-15.3277
-18.3571
-20.1675
-14.4143
-3.14161
-1.83475
-1.608
-1.59824
-1.5383
-1.44054
-1.3213
-1.1846
-1.03612
-0.883692
-0.734127
-0.594079
-0.466189
9.1504
3.15913
-1.68791
-6.22357
-9.77211
-12.8
-15.4884
-17.7913
-19.4759
-15.7902
-4.42135
-1.27302
-1.41006
-1.44339
-1.39743
-1.3091
-1.19425
-1.05839
-0.908553
-0.75318
-0.599972
-0.456248
-0.325133
4.34514
-0.735252
-4.80157
-8.66877
-11.5798
-13.8738
-15.8068
-17.4168
-18.6765
-16.3182
-6.19443
-1.09321
-1.3917
-1.36282
-1.29077
-1.1938
-1.07285
-0.932381
-0.778513
-0.618849
-0.461286
-0.313528
-0.179014
-0.252059
-4.55265
-7.94022
-11.1908
-13.5211
-15.1514
-16.3571
-17.2595
-17.9034
-16.1425
-7.35387
-1.2582
-1.57768
-1.33503
-1.20151
-1.08469
-0.950898
-0.802926
-0.64381
-0.479246
-0.316956
-0.164982
-0.0270303
-4.72733
-8.37202
-11.1832
-13.8644
-15.6481
-16.6554
-17.1476
-17.3197
-17.2232
-15.5252
-8.05556
-1.665
-1.67774
-1.19292
-1.0682
-0.954793
-0.81617
-0.664252
-0.501487
-0.332587
-0.165726
-0.00960085
0.131689
-9.18181
-12.2817
-14.6108
-16.7609
-18.0135
-18.413
-18.1822
-17.5891
-16.6975
-14.7715
-8.60506
-1.8797
-1.25692
-0.925601
-0.881339
-0.79558
-0.664681
-0.514821
-0.350513
-0.177899
-0.00664498
0.15353
0.298022
-13.7009
-16.3658
-18.2904
-19.9485
-20.6919
-20.5059
-19.5576
-18.1636
-16.4158
-13.9268
-8.53222
-1.95023
-0.716591
-0.664042
-0.684456
-0.626558
-0.506252
-0.358856
-0.192307
-0.0152714
0.160788
0.325142
0.472774
-18.3262
-20.6719
-22.254
-23.4877
-23.7833
-23.0714
-21.4543
-19.252
-16.5247
-12.9079
-7.33516
-1.55496
-0.436818
-0.472965
-0.512901
-0.472407
-0.352674
-0.20106
-0.0282808
0.155378
0.337226
0.506046
0.65674
-23.0466
-25.1782
-26.4982
-27.4429
-27.4182
-26.2948
-24.1042
-21.1294
-17.3098
-11.9067
-4.86921
-0.658654
-0.268717
-0.342817
-0.380689
-0.336485
-0.205909
-0.0419835
0.142417
0.335567
0.524248
0.697594
0.850956
-27.8054
-29.7989
-31.0095
-31.8875
-31.7391
-30.3753
-27.7583
-24.1083
-19.2181
-11.7593
-2.04974
0.457044
-0.128291
-0.27147
-0.303677
-0.215537
-0.0624694
0.121275
0.322959
0.528452
0.724599
0.901926
1.05692
-32.439
-34.4625
-35.7739
-36.8492
-36.8048
-35.3997
-32.5462
-28.3948
-22.6151
-13.3456
-0.410552
2.30071
0.15212
-0.250455
-0.302986
-0.114681
0.0822203
0.295048
0.518969
0.738589
0.941862
1.12173
1.27664
-36.6738
-39.105
-40.6603
-42.1402
-42.3965
-41.1319
-38.2457
-33.8326
-27.4378
-16.6029
0.0292305
5.12376
0.205263
-0.303081
-0.256803
0.00908464
0.248397
0.493447
0.74016
0.972332
1.18022
1.35988
1.5121
-41.0483
-43.0318
-45.4123
-47.6677
-48.5626
-47.7781
-45.263
-41.1032
-34.731
-22.8333
-1.7163
8.14365
-0.146948
-0.415642
-0.115886
0.193808
0.461995
0.734089
0.997803
1.23648
1.44368
1.61878
1.7649
-44.2725
-48.5705
-51.9154
-55.7554
-57.9468
-58.0213
-56.2812
-53.0014
-48.0517
-37.2278
-12.3565
9.77137
0.561214
-0.324889
0.0965278
0.445289
0.742163
1.0321
1.30129
1.53649
1.73515
1.89985
2.03563
-46.6349
-58.0963
-61.8306
-64.7359
-64.1093
-61.0897
-57.4868
-54.4219
-51.5514
-44.8525
-22.2093
6.30567
2.39148
0.161343
0.394778
0.770693
1.10325
1.39801
1.6566
1.875
2.05542
2.20291
2.32365
-45.3112
-60.5566
-54.4584
-46.8803
-37.1966
-28.7964
-23.2493
-20.3655
-19.2104
-18.4187
-13.3904
1.04982
2.59947
0.824699
0.850979
1.2193
1.56544
1.84
2.06508
2.25054
2.40209
2.52547
2.6267
-29.2423
-31.4206
-14.8999
-7.45279
-2.4925
0.339443
1.40203
1.63188
1.31723
0.197125
-1.18833
1.27181
2.47616
1.84433
1.66281
1.88746
2.15136
2.35505
2.51875
2.65515
2.76849
2.86226
2.94064
-2.67354
-6.88871
0.994875
2.57704
3.42628
3.89752
4.17151
4.23908
4.11452
3.73732
3.20778
3.33166
3.44012
3.09956
2.73587
2.72048
2.81388
2.90739
2.99321
3.07264
3.14362
3.20562
3.25991
9.54344
-0.500867
3.75917
4.37923
4.82685
5.0337
5.1393
5.17288
5.12319
4.98012
4.75389
4.57025
4.44992
4.09562
3.68752
3.49678
3.44333
3.43862
3.45537
3.48306
3.51486
3.54708
3.57852
7.26233
3.28105
4.84711
5.16612
5.38794
5.5069
5.57559
5.60755
5.59123
5.51703
5.38917
5.20873
5.00024
4.64811
4.30255
4.08562
3.97135
3.91118
3.88172
3.87116
3.87199
3.87947
3.8912
6.69811
5.156
5.44194
5.57208
5.6648
5.72806
5.77152
5.7929
5.78274
5.72869
5.62007
5.45281
5.23686
4.9652
4.71086
4.525
4.40084
4.31852
4.26435
4.22974
4.20902
4.19801
4.19413
6.31491
5.80613
5.7963
5.79905
5.81303
5.83301
5.84872
5.8521
5.83357
5.78193
5.6882
5.55103
5.38208
5.19164
5.01105
4.8632
4.75121
4.66741
4.60442
4.55744
4.52373
4.50035
4.48512
6.16074
6.03584
5.97199
5.91233
5.88356
5.87279
5.86599
5.85442
5.82977
5.78418
5.71233
5.61419
5.49648
5.36746
5.24155
5.13153
5.04141
4.96829
4.90693
4.85576
4.81596
4.78563
4.76319
6.14775
6.10923
6.02561
5.94733
5.90001
5.87172
5.85199
5.83324
5.80909
5.77432
5.72539
5.66186
5.58689
5.50535
5.42472
5.35157
5.28886
5.23556
5.1805
5.12741
5.08555
5.05238
5.02639
6.18323
6.11721
6.0129
5.93117
5.87741
5.84195
5.81714
5.79717
5.77769
5.75549
5.72832
5.69542
5.65783
5.61769
5.5782
5.54259
5.51426
5.49293
5.44338
5.37969
5.33497
5.30132
5.27439
6.25352
6.07932
5.94509
5.86563
5.81719
5.78578
5.76456
5.74975
5.73919
5.73141
5.72517
5.71947
5.7138
5.70813
5.70293
5.69966
5.7032
5.71908
5.69854
5.62678
5.5836
5.55447
5.53217
-2.84965
-2.84531
-2.90979
-2.81926
-2.43883
-2.33974
-2.23247
-2.1173
-2.29677
-2.21987
-2.12484
-2.01331
-2.09689
-2.0251
-1.94959
-1.87188
-1.94261
-1.87672
-1.80855
-1.74209
-1.79937
-1.73716
-1.67377
-1.61369
-1.66474
-1.60488
-1.54423
-1.48758
-1.53488
-1.47638
-1.41726
-1.36252
-1.40794
-1.35009
-1.29172
-1.23792
-1.28253
-1.22483
-1.16664
-1.11316
-1.1576
-1.09962
-1.04119
-0.987573
-1.03226
-0.973665
-0.914644
-0.860523
-0.905681
-0.846211
-0.786316
-0.731418
-0.77706
-0.716525
-0.655552
-0.59967
-0.64564
-0.583886
-0.521687
-0.464691
-0.510785
-0.447665
-0.384121
-0.325921
-0.371961
-0.307329
-0.242326
-0.182852
-0.228612
-0.162353
-0.0957938
-0.0349907
-0.0801094
-0.0121686
0.0559982
0.118157
0.0742352
0.143835
0.213594
0.27709
0.235184
0.306335
0.37759
0.442348
0.403567
0.476097
0.548663
0.614523
0.580194
0.653905
0.727533
0.79425
0.765815
0.840487
0.914884
0.982147
0.961241
1.03654
1.11134
1.17879
1.16753
1.2429
1.31758
1.38473
1.3862
1.46076
1.53453
1.60073
1.61878
1.69137
1.76314
1.82744
1.86645
1.9356
2.00398
2.06519
2.12943
2.19342
2.25683
2.31364
2.40698
2.46406
2.52086
2.57193
2.69709
2.7457
2.79445
2.83859
2.99639
3.03544
3.07513
3.11147
3.30044
3.32958
3.35981
3.388
3.60451
3.62412
3.6452
3.66541
3.90433
3.91544
3.92824
3.9411
4.19663
4.20062
4.20638
4.21285
4.47938
4.47775
4.47788
4.47914
4.75181
4.74618
4.74213
4.7393
5.01241
5.00455
4.99763
4.99136
5.25825
5.24903
5.24053
5.23248
5.51872
5.51047
5.50206
5.49316
-2.12151
-1.81632
-1.73723
-1.69543
-1.66746
-1.64293
-1.6189
-1.59469
-1.57065
-1.54743
-1.52563
-1.5058
-1.48834
-1.47358
-1.46176
-1.45309
-1.44785
-1.44664
-1.44945
-1.92534
-1.77962
-1.67947
-1.61692
-1.57408
-1.53958
-1.50878
-1.47993
-1.45261
-1.42697
-1.40332
-1.38202
-1.36338
-1.34769
-1.3352
-1.32613
-1.32081
-1.31982
-1.32287
-1.83729
-1.70282
-1.60362
-1.532
-1.47858
-1.43547
-1.39823
-1.36466
-1.33387
-1.30561
-1.27997
-1.25713
-1.23732
-1.22077
-1.2077
-1.19834
-1.19299
-1.19211
-1.19527
-1.74633
-1.61749
-1.5168
-1.43941
-1.37871
-1.32887
-1.28611
-1.24821
-1.21406
-1.18322
-1.15558
-1.13122
-1.11027
-1.09291
-1.07933
-1.06971
-1.0643
-1.06344
-1.06661
-1.63796
-1.51843
-1.41927
-1.33907
-1.27369
-1.21893
-1.17171
-1.13007
-1.09289
-1.05964
-1.03012
-1.0043
-0.982255
-0.964123
-0.950044
-0.940155
-0.934632
-0.933705
-0.936791
-1.52112
-1.40976
-1.31334
-1.2321
-1.1638
-1.10548
-1.05476
-1.01
-0.970173
-0.934748
-0.903478
-0.87629
-0.853215
-0.834337
-0.819756
-0.80956
-0.803863
-0.802796
-0.805738
-1.40137
-1.29557
-1.20144
-1.11983
-1.04959
-0.988651
-0.935182
-0.887836
-0.845739
-0.80839
-0.775538
-0.747087
-0.723036
-0.703433
-0.68834
-0.6778
-0.671871
-0.670607
-0.673353
-1.28002
-1.17777
-1.08515
-1.00328
-0.931624
-0.868663
-0.812984
-0.763495
-0.719453
-0.680416
-0.646146
-0.616538
-0.59157
-0.571265
-0.555651
-0.544734
-0.538529
-0.537024
-0.539529
-1.15744
-1.05724
-0.965393
-0.88314
-0.810287
-0.745672
-0.688169
-0.636878
-0.59117
-0.550658
-0.515124
-0.484463
-0.458642
-0.437663
-0.421527
-0.410211
-0.403696
-0.401919
-0.404146
-1.03357
-0.934314
-0.842619
-0.75978
-0.685805
-0.619755
-0.560696
-0.507868
-0.460726
-0.418929
-0.382277
-0.35067
-0.324064
-0.302446
-0.285798
-0.274072
-0.267226
-0.265156
-0.267074
-0.908089
-0.808996
-0.716964
-0.633337
-0.558249
-0.490898
-0.43048
-0.376324
-0.327945
-0.285034
-0.247404
-0.214955
-0.187637
-0.165425
-0.148285
-0.136152
-0.128965
-0.126588
-0.128172
-0.780594
-0.681099
-0.588369
-0.503793
-0.427582
-0.359025
-0.297397
-0.242085
-0.192642
-0.148773
-0.110298
-0.0771136
-0.0491636
-0.0264115
-0.00881102
0.00371646
0.0112452
0.013933
0.0126996
-0.650629
-0.550341
-0.456665
-0.371026
-0.293692
-0.224008
-0.161298
-0.104982
-0.054628
-0.00994685
0.0292438
0.0630541
0.0915504
0.114779
0.132799
0.145698
0.153559
0.156555
0.155685
-0.517726
-0.416388
-0.321613
-0.234855
-0.15642
-0.0856901
-0.0220167
0.0351645
0.086284
0.131637
0.171415
0.20574
0.234691
0.258327
0.276714
0.289952
0.29813
0.301426
0.300923
-0.381408
-0.278871
-0.18293
-0.0950522
-0.015572
0.0561089
0.120623
0.178533
0.230276
0.276162
0.316399
0.351125
0.380433
0.404397
0.423093
0.43663
0.445101
0.448684
0.448547
-0.241197
-0.137401
-0.0403007
0.0486388
0.129071
0.201584
0.266804
0.325299
0.377522
0.4238
0.464364
0.499372
0.528936
0.553143
0.572084
0.585872
0.594607
0.59846
0.598684
-0.0966277
0.00841961
0.106607
0.196498
0.277745
0.350941
0.416713
0.475638
0.528188
0.574712
0.615466
0.650632
0.680344
0.704706
0.723819
0.737806
0.746769
0.750872
0.751446
0.0527595
0.158995
0.258141
0.348817
0.430699
0.504392
0.570535
0.629716
0.682426
0.729042
0.769843
0.805038
0.834784
0.859204
0.878413
0.89254
0.901694
0.906023
0.906931
0.20742
0.314727
0.414646
0.505894
0.588185
0.662152
0.728452
0.787691
0.840379
0.886917
0.927613
0.962702
0.992364
1.01674
1.03596
1.05017
1.05947
1.064
1.06522
0.367809
0.476014
0.576468
0.668019
0.750446
0.824425
0.890638
0.94971
1.00217
1.04845
1.08888
1.12372
1.15317
1.1774
1.19654
1.21076
1.22016
1.22486
1.22637
0.534397
0.643253
0.743937
0.83547
0.917715
0.991402
1.05725
1.1159
1.16791
1.21373
1.25371
1.28815
1.31726
1.34123
1.36021
1.37437
1.38381
1.38865
1.39043
0.707679
0.816844
0.917378
1.00851
1.0902
1.16325
1.22841
1.28637
1.33768
1.38282
1.42218
1.45604
1.48467
1.50827
1.52699
1.54101
1.55045
1.5554
1.55741
0.888167
0.997186
1.0971
1.18737
1.26808
1.34011
1.40424
1.46119
1.51153
1.55577
1.59429
1.62742
1.65543
1.67852
1.69689
1.7107
1.72007
1.72509
1.72731
1.07637
1.18467
1.28339
1.37226
1.45151
1.52207
1.58479
1.6404
1.68949
1.73257
1.77005
1.80226
1.8295
1.85197
1.86988
1.8834
1.89265
1.8977
1.90008
1.27278
1.37964
1.47648
1.56334
1.64057
1.7092
1.77009
1.824
1.87153
1.9132
1.94942
1.98054
2.00685
2.02858
2.04593
2.05906
2.06813
2.07318
2.07568
1.47785
1.58239
1.67655
1.76069
1.8353
1.90147
1.9601
2.01194
2.0576
2.09759
2.13233
2.16217
2.1874
2.20826
2.22494
2.23762
2.24644
2.25145
2.25403
1.69202
1.79314
1.88369
1.96431
2.03565
2.09882
2.15473
2.20411
2.24759
2.28564
2.31867
2.34705
2.37105
2.39091
2.40683
2.41897
2.42748
2.4324
2.43503
1.91569
2.01207
2.09787
2.17411
2.24148
2.30107
2.3538
2.40036
2.44133
2.47718
2.5083
2.53503
2.55766
2.5764
2.59146
2.60299
2.61113
2.61591
2.61855
2.14884
2.23903
2.31892
2.38985
2.45252
2.50798
2.55707
2.60044
2.6386
2.67201
2.70102
2.72594
2.74706
2.76457
2.77867
2.78952
2.79723
2.80184
2.80445
2.39108
2.47357
2.5464
2.61113
2.66842
2.7192
2.76423
2.80406
2.83916
2.8699
2.89661
2.91958
2.93905
2.95523
2.96829
2.97838
2.98562
2.99002
2.99257
2.64152
2.7149
2.77965
2.8374
2.8887
2.93433
2.97491
3.01091
3.04268
3.07056
3.09482
3.1157
3.13342
3.14818
3.16013
3.1694
3.17613
3.18028
3.18273
2.89885
2.96193
3.01776
3.06789
3.11273
3.15285
3.1887
3.22061
3.24887
3.27372
3.29539
3.31407
3.32996
3.34321
3.35397
3.36238
3.36858
3.37246
3.37482
3.16134
3.21329
3.25965
3.30175
3.33982
3.37418
3.40509
3.43277
3.45739
3.4791
3.49808
3.51448
3.52845
3.54012
3.54964
3.55713
3.56281
3.56639
3.56872
3.42697
3.46745
3.50413
3.53804
3.5692
3.59769
3.62359
3.64696
3.66787
3.6864
3.70264
3.7167
3.72869
3.73873
3.74694
3.75348
3.75861
3.76184
3.76422
3.69361
3.72279
3.74994
3.77575
3.80006
3.82273
3.84364
3.86272
3.87993
3.89528
3.90878
3.92048
3.93046
3.93881
3.94565
3.95116
3.95575
3.95852
3.96106
3.95922
3.97774
3.99582
4.01388
4.03157
4.04857
4.06462
4.07952
4.09312
4.10534
4.11614
4.12551
4.13348
4.1401
4.1455
4.1499
4.15395
4.15596
4.15952
4.22206
4.23095
4.24071
4.25155
4.26302
4.27465
4.28607
4.29697
4.30711
4.31633
4.32452
4.33162
4.3376
4.34248
4.34638
4.34958
4.35303
4.35377
4.36064
4.48095
4.48152
4.48391
4.48822
4.494
4.50068
4.50779
4.51495
4.52184
4.52824
4.53396
4.53888
4.54293
4.54609
4.54843
4.55033
4.55304
4.55187
4.56398
4.73485
4.72825
4.7242
4.72276
4.72344
4.72565
4.72885
4.73259
4.7365
4.74028
4.74369
4.74656
4.74875
4.7502
4.7509
4.75135
4.75287
4.74787
4.76636
4.98089
4.96782
4.9581
4.95162
4.94783
4.94611
4.94587
4.94658
4.94783
4.94926
4.95058
4.95156
4.952
4.95173
4.95069
4.94934
4.94813
4.93509
4.96746
5.21937
5.20149
5.18718
5.17664
5.16926
5.16433
5.16123
5.1594
5.15838
5.15779
5.1573
5.15662
5.15548
5.1536
5.1508
5.14695
5.13932
5.11079
5.18402
5.47749
5.45653
5.43951
5.42639
5.41648
5.40906
5.40356
5.39945
5.39631
5.39378
5.39153
5.38926
5.38665
5.3833
5.37877
5.37209
5.35706
5.30491
5.43952
)
;

boundaryField
{
    leftWall
    {
        type            calculated;
        value           nonuniform List<scalar> 
50
(
-44.4
10.3448
44.5064
54.76
53.3802
50.2934
47.2179
43.773
38.2517
36.4142
39.0882
42.1606
44.8111
47.265
49.314
50.4111
50.1175
48.361
45.3126
41.1756
36.1929
30.708
25.0775
19.5397
14.2142
9.1504
4.34514
-0.252059
-4.72733
-9.18181
-13.7009
-18.3262
-23.0466
-27.8054
-32.439
-36.6738
-41.0483
-44.2725
-46.6349
-45.3112
-29.2423
-2.67354
9.54344
7.26233
6.69811
6.31491
6.16074
6.14775
6.18323
6.25352
)
;
    }
    rightWall
    {
        type            calculated;
        value           nonuniform List<scalar> 
50
(
-1.95143
-1.89313
-1.83472
-1.77632
-1.71788
-1.65934
-1.60066
-1.54181
-1.44945
-1.32287
-1.19527
-1.06661
-0.936791
-0.805738
-0.673353
-0.539529
-0.404146
-0.267074
-0.128172
0.0126996
0.155685
0.300923
0.448547
0.598684
0.751446
0.906931
1.06522
1.22637
1.39043
1.55741
1.72731
1.90008
2.07568
2.25403
2.43503
2.61855
2.80445
2.99257
3.18273
3.37482
3.56872
3.76422
3.96106
4.15952
4.36064
4.56398
4.76636
4.96746
5.18402
5.43952
)
;
    }
    lowerWall
    {
        type            calculated;
        value           nonuniform List<scalar> 
62
(
-72.3525
-26.8482
-2.89763
-1.94092
-2.18454
-2.43989
-2.67632
-2.89327
-3.04263
-3.12843
-3.16088
-3.15823
-3.1339
-3.09873
-3.0604
-3.02416
-2.99789
-3.00678
-3.09844
-3.29641
-3.53455
-3.66056
-3.62254
-3.59311
-3.54696
-3.52317
-3.50229
-3.46672
-3.41421
-3.35215
-3.32625
-2.91225
-2.90791
-2.97239
-2.88186
-2.06865
-2.00625
-1.94592
-1.8891
-1.83963
-1.80464
-1.79742
-1.84101
-2.09808
-2.11304
-2.12664
-2.13511
-2.13569
-2.12787
-2.11374
-2.09561
-2.0756
-2.05541
-2.03625
-2.01897
-2.0042
-1.99243
-1.98395
-1.97895
-1.97725
-1.97805
-1.98086
)
;
    }
    atmosphere
    {
        type            calculated;
        value           nonuniform List<scalar> 
46
(
6.41331
6.05388
5.89782
5.82748
5.7908
5.76835
5.75322
5.7428
5.73598
5.73198
5.73004
5.7293
5.72909
5.72905
5.72904
5.72904
5.72904
5.72904
5.72443
5.71517
5.70101
5.68566
5.67233
5.66559
5.66035
5.65311
5.64351
5.6244
5.60274
5.58572
5.57232
5.56177
5.55346
5.54691
5.5417
5.53747
5.53392
5.53077
5.52771
5.52446
5.52067
5.51592
5.50962
5.5008
5.48204
5.55715
)
;
    }
    defaultFaces
    {
        type            empty;
    }
}


// ************************************************************************* //
