/*--------------------------------*- C++ -*----------------------------------*\
  =========                 |
  \\      /  F ield         | OpenFOAM: The Open Source CFD Toolbox
   \\    /   O peration     | Website:  https://openfoam.org
    \\  /    A nd           | Version:  9
     \\/     M anipulation  |
\*---------------------------------------------------------------------------*/
FoamFile
{
    format      ascii;
    class       volVectorField;
    location    "0.2";
    object      U;
}
// * * * * * * * * * * * * * * * * * * * * * * * * * * * * * * * * * * * * * //

dimensions      [0 1 -1 0 0 0 0];

internalField   nonuniform List<vector> 
2268
(
(-0.0554002 0.0341162 0)
(-0.273893 0.129279 0)
(-0.923511 0.289246 0)
(-1.36632 0.0252448 0)
(-1.17005 -0.0432 0)
(-1.21245 0.0668975 0)
(-1.44156 0.0487935 0)
(-1.5485 0.0174745 0)
(-1.57136 -0.00529026 0)
(-1.52816 -0.0194247 0)
(-1.45862 -0.0264557 0)
(-1.3652 -0.0322972 0)
(-1.25563 -0.0374232 0)
(-1.13155 -0.0432238 0)
(-0.991061 -0.050942 0)
(-0.826843 -0.0620191 0)
(-0.625535 -0.0779245 0)
(-0.375554 -0.0986447 0)
(-0.0850708 -0.116806 0)
(0.205728 -0.111231 0)
(0.417772 -0.0516857 0)
(0.431825 0.036245 0)
(0.210045 0.0732547 0)
(-0.13056 0.147914 0)
(-0.470245 0.304553 0)
(-0.741743 0.347326 0)
(-0.946854 -0.0169672 0)
(-1.3088 0.0739279 0)
(-1.51426 0.124242 0)
(-1.64064 0.0942084 0)
(-1.66848 0.0356124 0)
(-1.66223 -0.00978469 0)
(-1.63043 -0.0407676 0)
(-1.56247 -0.0605977 0)
(-1.4709 -0.0748533 0)
(-1.36093 -0.0860847 0)
(-1.23586 -0.0971624 0)
(-1.09569 -0.110999 0)
(-0.935963 -0.130815 0)
(-0.747075 -0.159413 0)
(-0.518679 -0.195605 0)
(-0.252943 -0.223308 0)
(0.0213125 -0.20106 0)
(0.238796 -0.0814251 0)
(0.341675 0.0993064 0)
(0.245785 0.191562 0)
(-0.15857 0.284014 0)
(-0.476929 0.43364 0)
(-0.455396 0.358392 0)
(-0.782849 0.190321 0)
(-1.22685 0.215155 0)
(-1.45136 0.200634 0)
(-1.57964 0.129872 0)
(-1.64621 0.0488551 0)
(-1.6704 -0.0143521 0)
(-1.65159 -0.0611409 0)
(-1.59551 -0.0950999 0)
(-1.51274 -0.11957 0)
(-1.40968 -0.138735 0)
(-1.29088 -0.156546 0)
(-1.15821 -0.17728 0)
(-1.0103 -0.205803 0)
(-0.841468 -0.246507 0)
(-0.642973 -0.29805 0)
(-0.411439 -0.338989 0)
(-0.162387 -0.313266 0)
(0.0616861 -0.157743 0)
(0.19334 0.106695 0)
(0.192038 0.284575 0)
(-0.15252 0.414917 0)
(-0.407296 0.530712 0)
(-0.355507 0.421762 0)
(-0.754113 0.396653 0)
(-1.11973 0.366816 0)
(-1.35368 0.289732 0)
(-1.50551 0.182714 0)
(-1.6017 0.0775692 0)
(-1.64742 -0.00837659 0)
(-1.64526 -0.0750117 0)
(-1.60366 -0.124496 0)
(-1.53234 -0.160644 0)
(-1.43887 -0.188609 0)
(-1.32909 -0.213386 0)
(-1.2068 -0.240373 0)
(-1.07382 -0.27585 0)
(-0.929066 -0.326082 0)
(-0.767243 -0.3913 0)
(-0.581185 -0.448353 0)
(-0.369794 -0.429547 0)
(-0.142691 -0.248127 0)
(0.0522451 0.0829372 0)
(0.125701 0.343197 0)
(-0.134747 0.526217 0)
(-0.334396 0.605118 0)
(-0.306005 0.503784 0)
(-0.745252 0.563892 0)
(-1.01132 0.510582 0)
(-1.25162 0.385668 0)
(-1.42173 0.246908 0)
(-1.53964 0.116542 0)
(-1.60512 0.0063208 0)
(-1.62077 -0.081552 0)
(-1.59472 -0.147981 0)
(-1.53625 -0.19694 0)
(-1.45379 -0.234296 0)
(-1.35439 -0.265862 0)
(-1.24361 -0.297735 0)
(-1.12605 -0.336915 0)
(-1.0053 -0.39098 0)
(-0.88181 -0.462999 0)
(-0.750034 -0.534204 0)
(-0.595297 -0.535799 0)
(-0.383647 -0.35663 0)
(-0.107361 0.0227709 0)
(0.0667335 0.355026 0)
(-0.117345 0.617906 0)
(-0.280866 0.66738 0)
(-0.266421 0.592576 0)
(-0.718247 0.7029 0)
(-0.903924 0.637644 0)
(-1.14412 0.484128 0)
(-1.32696 0.319575 0)
(-1.46326 0.164892 0)
(-1.54822 0.0301069 0)
(-1.58202 -0.0799568 0)
(-1.57193 -0.164603 0)
(-1.52691 -0.227445 0)
(-1.45611 -0.274747 0)
(-1.36766 -0.312968 0)
(-1.26852 -0.348637 0)
(-1.16523 -0.388851 0)
(-1.06485 -0.441398 0)
(-0.973893 -0.511631 0)
(-0.894367 -0.589277 0)
(-0.810935 -0.61862 0)
(-0.652744 -0.478295 0)
(-0.316374 -0.0821841 0)
(0.0291505 0.314587 0)
(-0.10136 0.695246 0)
(-0.241888 0.725207 0)
(-0.239438 0.678058 0)
(-0.678797 0.824286 0)
(-0.800451 0.749036 0)
(-1.03201 0.583105 0)
(-1.22368 0.399456 0)
(-1.3762 0.22254 0)
(-1.48015 0.0633647 0)
(-1.53207 -0.0697699 0)
(-1.53798 -0.173799 0)
(-1.50649 -0.251689 0)
(-1.4475 -0.309678 0)
(-1.37012 -0.354681 0)
(-1.28236 -0.393598 0)
(-1.19189 -0.433373 0)
(-1.1074 -0.481118 0)
(-1.03901 -0.542513 0)
(-0.996809 -0.614439 0)
(-0.978505 -0.662898 0)
(-0.914284 -0.587525 0)
(-0.624269 -0.255271 0)
(-0.0621983 0.229251 0)
(-0.0875786 0.763668 0)
(-0.212867 0.783041 0)
(-0.226685 0.764805 0)
(-0.628584 0.928617 0)
(-0.704146 0.846125 0)
(-0.919117 0.679862 0)
(-1.11739 0.483891 0)
(-1.28266 0.287125 0)
(-1.40334 0.104357 0)
(-1.47231 -0.0523461 0)
(-1.49378 -0.176824 0)
(-1.47596 -0.270465 0)
(-1.42908 -0.339536 0)
(-1.363 -0.39136 0)
(-1.28653 -0.433176 0)
(-1.20785 -0.471809 0)
(-1.13598 -0.513489 0)
(-1.08183 -0.56287 0)
(-1.05857 -0.619301 0)
(-1.07553 -0.664475 0)
(-1.09873 -0.640197 0)
(-0.991197 -0.468275 0)
(-0.544911 -0.163341 0)
(-0.00557983 0.00836671 0)
(-0.0682783 0.0230852 0)
(-0.165553 0.0244528 0)
(-0.238822 0.016931 0)
(-0.283443 0.00948916 0)
(-0.305154 0.00321496 0)
(-0.308131 -0.00108099 0)
(-0.298634 -0.00391458 0)
(-0.281798 -0.00565625 0)
(-0.259732 -0.00689883 0)
(-0.233924 -0.00784431 0)
(-0.205303 -0.00860167 0)
(-0.17452 -0.00921839 0)
(-0.142129 -0.00969468 0)
(-0.108761 -0.00998434 0)
(-0.0753406 -0.00996476 0)
(-0.0432312 -0.00924335 0)
(-0.0142079 -0.00659597 0)
(9.27736e-05 -0.00153852 0)
(-0.0330903 0.0250831 0)
(-0.124201 0.0573653 0)
(-0.216831 0.0560048 0)
(-0.277091 0.0370129 0)
(-0.306973 0.0200095 0)
(-0.317802 0.00660287 0)
(-0.315536 -0.00271562 0)
(-0.304652 -0.00893526 0)
(-0.286888 -0.0130411 0)
(-0.26436 -0.0159254 0)
(-0.238419 -0.0180435 0)
(-0.209994 -0.0196493 0)
(-0.179758 -0.0208605 0)
(-0.14828 -0.0216895 0)
(-0.116161 -0.0220486 0)
(-0.0841803 -0.0217108 0)
(-0.0533427 -0.0200404 0)
(-0.0249442 -0.0150907 0)
(-0.00570485 -0.00430766 0)
(-0.0615574 0.0665036 0)
(-0.160499 0.0954389 0)
(-0.237391 0.084915 0)
(-0.288021 0.053596 0)
(-0.312054 0.0273978 0)
(-0.320214 0.0077602 0)
(-0.31643 -0.00583315 0)
(-0.304326 -0.0150481 0)
(-0.286084 -0.0213586 0)
(-0.263566 -0.0257899 0)
(-0.23801 -0.0290014 0)
(-0.210292 -0.0313772 0)
(-0.181064 -0.0331038 0)
(-0.150868 -0.0342173 0)
(-0.120248 -0.0346109 0)
(-0.0898416 -0.0339993 0)
(-0.0603468 -0.0316524 0)
(-0.0324991 -0.0255853 0)
(-0.0107675 -0.012093 0)
(-0.0897227 0.120341 0)
(-0.197296 0.132933 0)
(-0.260395 0.110386 0)
(-0.302694 0.0677679 0)
(-0.320378 0.033391 0)
(-0.324614 0.00806794 0)
(-0.318339 -0.00956646 0)
(-0.304731 -0.0216631 0)
(-0.285797 -0.0300148 0)
(-0.26313 -0.0358842 0)
(-0.237828 -0.0401098 0)
(-0.210686 -0.0431937 0)
(-0.182302 -0.0453891 0)
(-0.153165 -0.0467607 0)
(-0.123737 -0.0472006 0)
(-0.0945031 -0.0464019 0)
(-0.0658515 -0.0436331 0)
(-0.0379938 -0.0370496 0)
(-0.013998 -0.0219023 0)
(-0.122066 0.188754 0)
(-0.242066 0.169242 0)
(-0.289591 0.131581 0)
(-0.322509 0.078576 0)
(-0.332561 0.0370411 0)
(-0.33182 0.00683824 0)
(-0.322377 -0.014281 0)
(-0.306867 -0.0288748 0)
(-0.286926 -0.0390001 0)
(-0.263859 -0.0461207 0)
(-0.238589 -0.0512211 0)
(-0.211802 -0.0549031 0)
(-0.184017 -0.0574807 0)
(-0.155648 -0.0590517 0)
(-0.127055 -0.0595235 0)
(-0.0985551 -0.058605 0)
(-0.0702514 -0.0556449 0)
(-0.0419386 -0.0490759 0)
(-0.015891 -0.0331064 0)
(-0.164115 0.27792 0)
(-0.299853 0.204558 0)
(-0.32615 0.147373 0)
(-0.347439 0.0851878 0)
(-0.348533 0.037769 0)
(-0.341935 0.00371057 0)
(-0.328765 -0.0201781 0)
(-0.310968 -0.0367771 0)
(-0.289715 -0.0483423 0)
(-0.265987 -0.0564833 0)
(-0.240511 -0.0622932 0)
(-0.213839 -0.0664522 0)
(-0.18639 -0.0693274 0)
(-0.158486 -0.0710524 0)
(-0.130376 -0.0715659 0)
(-0.102212 -0.070626 0)
(-0.073859 -0.0677162 0)
(-0.0448321 -0.0615933 0)
(-0.0170463 -0.0452768 0)
(-0.219243 0.391684 0)
(-0.374554 0.238074 0)
(-0.370943 0.155864 0)
(-0.377158 0.0866988 0)
(-0.367998 0.0351148 0)
(-0.354788 -0.00159102 0)
(-0.337445 -0.0274424 0)
(-0.317032 -0.04551 0)
(-0.294195 -0.058158 0)
(-0.269568 -0.0670779 0)
(-0.243656 -0.073431 0)
(-0.21686 -0.0779534 0)
(-0.189488 -0.0810564 0)
(-0.161759 -0.0829104 0)
(-0.133807 -0.0834972 0)
(-0.105636 -0.0826466 0)
(-0.076926 -0.0799975 0)
(-0.0470595 -0.074609 0)
(-0.0178858 -0.058186 0)
(-0.306424 0.566817 0)
(-0.461705 0.25635 0)
(-0.424454 0.153754 0)
(-0.410699 0.0817517 0)
(-0.390268 0.0285464 0)
(-0.369907 -0.0093345 0)
(-0.348079 -0.0362354 0)
(-0.324802 -0.0551972 0)
(-0.300163 -0.0685567 0)
(-0.274431 -0.0780109 0)
(-0.247877 -0.0847443 0)
(-0.220743 -0.0895245 0)
(-0.193213 -0.0927957 0)
(-0.165401 -0.094764 0)
(-0.13733 -0.0954609 0)
(-0.108874 -0.0947983 0)
(-0.0795833 -0.0925748 0)
(-0.0488435 -0.0881138 0)
(-0.0186309 -0.0716612 0)
(-0.0736283 0.854864 0)
(-0.181819 0.865705 0)
(-0.22975 0.919065 0)
(-0.446173 1.04996 0)
(-0.562979 0.992788 0)
(-0.745922 0.827481 0)
(-0.950465 0.618687 0)
(-1.13224 0.39632 0)
(-1.276 0.179328 0)
(-1.37015 -0.0134696 0)
(-1.41512 -0.169898 0)
(-1.41845 -0.288849 0)
(-1.39024 -0.375963 0)
(-1.34104 -0.438922 0)
(-1.2806 -0.48544 0)
(-1.21773 -0.522201 0)
(-1.16112 -0.554452 0)
(-1.12047 -0.585529 0)
(-1.10752 -0.615475 0)
(-1.13318 -0.635226 0)
(-1.19146 -0.614998 0)
(-1.23873 -0.507025 0)
(-1.20293 -0.275048 0)
(-0.0610162 0.958597 0)
(-0.150054 0.963903 0)
(-0.225263 0.99022 0)
(-0.245778 1.08547 0)
(-0.396744 1.17251 0)
(-0.525432 1.03084 0)
(-0.730567 0.821169 0)
(-0.931453 0.57618 0)
(-1.1045 0.317988 0)
(-1.2312 0.0743811 0)
(-1.30659 -0.130758 0)
(-1.33729 -0.289066 0)
(-1.33292 -0.40438 0)
(-1.30424 -0.484592 0)
(-1.26205 -0.538505 0)
(-1.21581 -0.573811 0)
(-1.17354 -0.596087 0)
(-1.14257 -0.608354 0)
(-1.13017 -0.610584 0)
(-1.14247 -0.598015 0)
(-1.17819 -0.56031 0)
(-1.21795 -0.486612 0)
(-1.22289 -0.371345 0)
(-0.0517508 1.04606 0)
(-0.126012 1.05342 0)
(-0.207763 1.05968 0)
(-0.24244 1.12966 0)
(-0.296344 1.24668 0)
(-0.364735 1.20386 0)
(-0.537224 1.02622 0)
(-0.74327 0.775417 0)
(-0.938012 0.484399 0)
(-1.09104 0.191748 0)
(-1.19263 -0.0631134 0)
(-1.24845 -0.263201 0)
(-1.26756 -0.410142 0)
(-1.25885 -0.511017 0)
(-1.23307 -0.575136 0)
(-1.20014 -0.611738 0)
(-1.16797 -0.628252 0)
(-1.14244 -0.629338 0)
(-1.12785 -0.616747 0)
(-1.12657 -0.588646 0)
(-1.13649 -0.539004 0)
(-1.14606 -0.46056 0)
(-1.13454 -0.353041 0)
(-0.044601 1.12156 0)
(-0.107342 1.13325 0)
(-0.186196 1.13323 0)
(-0.238821 1.16908 0)
(-0.266543 1.25167 0)
(-0.295371 1.29968 0)
(-0.393206 1.20512 0)
(-0.575677 0.980135 0)
(-0.780526 0.669252 0)
(-0.953617 0.331247 0)
(-1.07509 0.0274203 0)
(-1.15174 -0.213971 0)
(-1.19312 -0.394317 0)
(-1.20454 -0.519442 0)
(-1.19484 -0.597773 0)
(-1.17373 -0.639429 0)
(-1.14942 -0.65413 0)
(-1.1275 -0.648936 0)
(-1.11129 -0.627812 0)
(-1.10193 -0.592091 0)
(-1.09737 -0.540876 0)
(-1.09058 -0.472799 0)
(-1.06939 -0.390536 0)
(-0.0396641 1.18798 0)
(-0.0935668 1.20372 0)
(-0.166292 1.20414 0)
(-0.225224 1.22032 0)
(-0.260391 1.26968 0)
(-0.285318 1.32714 0)
(-0.319644 1.31608 0)
(-0.436637 1.1698 0)
(-0.631473 0.866064 0)
(-0.8197 0.486347 0)
(-0.956962 0.135218 0)
(-1.04914 -0.144384 0)
(-1.11042 -0.357542 0)
(-1.14152 -0.509518 0)
(-1.148 -0.606509 0)
(-1.13832 -0.657836 0)
(-1.12091 -0.67498 0)
(-1.10178 -0.667829 0)
(-1.08419 -0.642818 0)
(-1.0691 -0.603617 0)
(-1.05511 -0.552274 0)
(-1.03815 -0.490633 0)
(-1.011 -0.422493 0)
(-0.0364297 1.24778 0)
(-0.0844913 1.26658 0)
(-0.148971 1.26869 0)
(-0.20861 1.27795 0)
(-0.251581 1.30233 0)
(-0.279459 1.34065 0)
(-0.300101 1.35711 0)
(-0.345961 1.31083 0)
(-0.487201 1.06047 0)
(-0.683605 0.654523 0)
(-0.839445 0.256233 0)
(-0.942929 -0.0574728 0)
(-1.02168 -0.301408 0)
(-1.07117 -0.481568 0)
(-1.09354 -0.601204 0)
(-1.09527 -0.667108 0)
(-1.08461 -0.69116 0)
(-1.06821 -0.685946 0)
(-1.04993 -0.66068 0)
(-1.03111 -0.621204 0)
(-1.01124 -0.571599 0)
(-0.988361 -0.515571 0)
(-0.958239 -0.457484 0)
(-0.0342554 1.30313 0)
(-0.078871 1.32325 0)
(-0.134986 1.32679 0)
(-0.191203 1.33314 0)
(-0.236369 1.34536 0)
(-0.266952 1.36028 0)
(-0.287016 1.36903 0)
(-0.305267 1.34777 0)
(-0.352375 1.2275 0)
(-0.541142 0.8404 0)
(-0.72358 0.390836 0)
(-0.836563 0.0452086 0)
(-0.93069 -0.227869 0)
(-0.996408 -0.436926 0)
(-1.03338 -0.582231 0)
(-1.0462 -0.667184 0)
(-1.04236 -0.702534 0)
(-1.02899 -0.702802 0)
(-1.01078 -0.680086 0)
(-0.989806 -0.6424 0)
(-0.966446 -0.595384 0)
(-0.940232 -0.5439 0)
(-0.908839 -0.492652 0)
(-0.0325866 1.35544 0)
(-0.074789 1.37477 0)
(-0.123937 1.3787 0)
(-0.173053 1.38248 0)
(-0.216613 1.38796 0)
(-0.247394 1.39012 0)
(-0.267248 1.38301 0)
(-0.281139 1.36408 0)
(-0.298224 1.30503 0)
(-0.414525 1.03262 0)
(-0.618837 0.535275 0)
(-0.73672 0.161547 0)
(-0.842814 -0.139982 0)
(-0.921099 -0.378301 0)
(-0.970153 -0.551007 0)
(-0.992982 -0.658361 0)
(-0.995872 -0.708885 0)
(-0.985883 -0.717854 0)
(-0.968465 -0.699997 0)
(-0.946547 -0.665587 0)
(-0.921326 -0.621645 0)
(-0.893438 -0.573886 0)
(-0.861819 -0.527368 0)
(-0.0310238 1.40528 0)
(-0.0709759 1.42175 0)
(-0.114361 1.42418 0)
(-0.155809 1.42532 0)
(-0.193447 1.42468 0)
(-0.222873 1.41922 0)
(-0.243105 1.40457 0)
(-0.256785 1.37944 0)
(-0.266839 1.34256 0)
(-0.330688 1.18906 0)
(-0.526213 0.683543 0)
(-0.649476 0.287118 0)
(-0.762035 -0.0423362 0)
(-0.848496 -0.309565 0)
(-0.906206 -0.509948 0)
(-0.937368 -0.641513 0)
(-0.946591 -0.710151 0)
(-0.940279 -0.730601 0)
(-0.924284 -0.71957 0)
(-0.902331 -0.689587 0)
(-0.876369 -0.649043 0)
(-0.847866 -0.604401 0)
(-0.816644 -0.561143 0)
(-0.0293271 1.45262 0)
(-0.0668176 1.46455 0)
(-0.105341 1.46358 0)
(-0.139961 1.46123 0)
(-0.170822 1.45552 0)
(-0.196255 1.44367 0)
(-0.216402 1.42495 0)
(-0.23083 1.39868 0)
(-0.241254 1.36614 0)
(-0.266312 1.30217 0)
(-0.439478 0.835794 0)
(-0.5765 0.417116 0)
(-0.690262 0.0596668 0)
(-0.779862 -0.234858 0)
(-0.842948 -0.461783 0)
(-0.880615 -0.617844 0)
(-0.895584 -0.706424 0)
(-0.893154 -0.74062 0)
(-0.879127 -0.738132 0)
(-0.857839 -0.713553 0)
(-0.831912 -0.676696 0)
(-0.80347 -0.634767 0)
(-0.773007 -0.593753 0)
(-0.0273573 1.49709 0)
(-0.0621222 1.50345 0)
(-0.0964263 1.49763 0)
(-0.125604 1.49099 0)
(-0.150625 1.4808 0)
(-0.171655 1.46459 0)
(-0.190045 1.44261 0)
(-0.205127 1.4168 0)
(-0.216456 1.38574 0)
(-0.226585 1.35329 0)
(-0.356472 0.990881 0)
(-0.518602 0.543444 0)
(-0.625637 0.160762 0)
(-0.714305 -0.15744 0)
(-0.78064 -0.408693 0)
(-0.823419 -0.588471 0)
(-0.843559 -0.697842 0)
(-0.845138 -0.747524 0)
(-0.833535 -0.755117 0)
(-0.813459 -0.736861 0)
(-0.788111 -0.704015 0)
(-0.760159 -0.664576 0)
(-0.730647 -0.625103 0)
(-0.0250686 1.53822 0)
(-0.0569046 1.53866 0)
(-0.0874832 1.52725 0)
(-0.112432 1.51581 0)
(-0.133167 1.50164 0)
(-0.150568 1.48237 0)
(-0.166612 1.45849 0)
(-0.181503 1.43266 0)
(-0.193289 1.40418 0)
(-0.201073 1.3749 0)
(-0.272648 1.18358 0)
(-0.459308 0.670221 0)
(-0.55931 0.262536 0)
(-0.649062 -0.0775481 0)
(-0.719044 -0.351653 0)
(-0.766175 -0.554193 0)
(-0.791036 -0.684598 0)
(-0.796646 -0.751024 0)
(-0.787803 -0.770067 0)
(-0.769344 -0.759043 0)
(-0.744949 -0.7306 0)
(-0.717755 -0.693586 0)
(-0.689286 -0.655183 0)
(-0.0225259 1.57562 0)
(-0.0513012 1.57035 0)
(-0.0785819 1.55325 0)
(-0.100205 1.53693 0)
(-0.117901 1.51914 0)
(-0.132732 1.49771 0)
(-0.146654 1.47278 0)
(-0.160612 1.44687 0)
(-0.172474 1.42054 0)
(-0.180825 1.39291 0)
(-0.207086 1.32079 0)
(-0.381335 0.799235 0)
(-0.491678 0.370295 0)
(-0.585992 0.00564052 0)
(-0.659134 -0.291188 0)
(-0.709646 -0.515809 0)
(-0.738552 -0.667094 0)
(-0.747986 -0.751046 0)
(-0.742051 -0.782689 0)
(-0.725474 -0.779779 0)
(-0.702276 -0.756192 0)
(-0.676002 -0.721657 0)
(-0.64861 -0.684025 0)
(-0.0198622 1.60905 0)
(-0.0455276 1.59866 0)
(-0.0698566 1.57624 0)
(-0.0888463 1.55534 0)
(-0.104331 1.53426 0)
(-0.117379 1.51115 0)
(-0.129661 1.48567 0)
(-0.142438 1.45965 0)
(-0.154067 1.4345 0)
(-0.163269 1.40659 0)
(-0.170193 1.37564 0)
(-0.294834 0.938536 0)
(-0.437153 0.480924 0)
(-0.529726 0.0899183 0)
(-0.602283 -0.228959 0)
(-0.654513 -0.47443 0)
(-0.686579 -0.645951 0)
(-0.699368 -0.747733 0)
(-0.69627 -0.792858 0)
(-0.681696 -0.798885 0)
(-0.659837 -0.780638 0)
(-0.634579 -0.748721 0)
(-0.608276 -0.711674 0)
(-0.0172202 1.63843 0)
(-0.0398287 1.62378 0)
(-0.0614869 1.59664 0)
(-0.0783342 1.57166 0)
(-0.0921515 1.54771 0)
(-0.103911 1.52317 0)
(-0.114974 1.49738 0)
(-0.12657 1.47137 0)
(-0.137889 1.44678 0)
(-0.147129 1.4207 0)
(-0.151598 1.39637 0)
(-0.239086 1.08822 0)
(-0.398323 0.585588 0)
(-0.478379 0.169967 0)
(-0.547117 -0.166436 0)
(-0.600729 -0.430871 0)
(-0.635278 -0.621737 0)
(-0.650901 -0.741346 0)
(-0.650398 -0.800597 0)
(-0.637793 -0.816295 0)
(-0.617319 -0.803867 0)
(-0.593123 -0.774744 0)
(-0.567923 -0.738165 0)
(-0.0147226 1.66387 0)
(-0.0344328 1.64591 0)
(-0.053671 1.61476 0)
(-0.0687163 1.5863 0)
(-0.0812002 1.55987 0)
(-0.0919534 1.53411 0)
(-0.10206 1.5081 0)
(-0.112579 1.48222 0)
(-0.123357 1.45796 0)
(-0.132312 1.434 0)
(-0.137606 1.4098 0)
(-0.179483 1.27846 0)
(-0.349404 0.684798 0)
(-0.419737 0.250771 0)
(-0.491667 -0.10224 0)
(-0.548121 -0.384979 0)
(-0.584876 -0.594911 0)
(-0.60273 -0.732318 0)
(-0.604376 -0.806122 0)
(-0.593524 -0.832071 0)
(-0.574373 -0.825875 0)
(-0.551248 -0.799708 0)
(-0.527179 -0.763506 0)
(-0.0124609 1.68567 0)
(-0.0295203 1.66531 0)
(-0.0465792 1.63088 0)
(-0.0600689 1.5995 0)
(-0.0714276 1.57098 0)
(-0.0813274 1.54415 0)
(-0.0906355 1.51795 0)
(-0.100178 1.49221 0)
(-0.110229 1.46812 0)
(-0.118825 1.44543 0)
(-0.125203 1.41991 0)
(-0.138895 1.36739 0)
(-0.272542 0.783407 0)
(-0.361023 0.338327 0)
(-0.440222 -0.0338585 0)
(-0.498697 -0.337123 0)
(-0.536112 -0.566477 0)
(-0.555094 -0.721512 0)
(-0.558127 -0.809947 0)
(-0.548607 -0.846446 0)
(-0.530618 -0.846727 0)
(-0.508554 -0.823596 0)
(-0.485675 -0.787664 0)
(-0.010494 1.70422 0)
(-0.0252084 1.68226 0)
(-0.0403221 1.64522 0)
(-0.0524474 1.61145 0)
(-0.0628184 1.58118 0)
(-0.0719479 1.55341 0)
(-0.0805539 1.527 0)
(-0.0892395 1.50139 0)
(-0.0984836 1.47734 0)
(-0.106749 1.45527 0)
(-0.11366 1.4301 0)
(-0.118047 1.40391 0)
(-0.20736 0.891288 0)
(-0.320423 0.432584 0)
(-0.399503 0.0352248 0)
(-0.454196 -0.290226 0)
(-0.489397 -0.538481 0)
(-0.507929 -0.710223 0)
(-0.511359 -0.812821 0)
(-0.502638 -0.859777 0)
(-0.485615 -0.866526 0)
(-0.464622 -0.846371 0)
(-0.443049 -0.810546 0)
(-0.00884877 1.71998 0)
(-0.0215492 1.69706 0)
(-0.0349464 1.658 0)
(-0.0458674 1.62228 0)
(-0.0553513 1.59055 0)
(-0.0637656 1.56196 0)
(-0.0717119 1.53532 0)
(-0.0796423 1.50982 0)
(-0.0880624 1.48581 0)
(-0.0959809 1.4641 0)
(-0.102716 1.44071 0)
(-0.105067 1.42233 0)
(-0.175956 1.00748 0)
(-0.303959 0.520657 0)
(-0.368089 0.0964468 0)
(-0.412608 -0.248715 0)
(-0.443517 -0.513003 0)
(-0.460438 -0.699608 0)
(-0.463456 -0.815429 0)
(-0.455071 -0.872391 0)
(-0.438879 -0.885336 0)
(-0.41904 -0.867932 0)
(-0.398975 -0.831981 0)
(-0.00751215 1.73343 0)
(-0.0185337 1.71001 0)
(-0.0304405 1.6694 0)
(-0.0403042 1.63211 0)
(-0.0489889 1.59916 0)
(-0.0567418 1.56983 0)
(-0.0640626 1.54295 0)
(-0.0712995 1.51753 0)
(-0.0788999 1.49359 0)
(-0.0863439 1.47216 0)
(-0.0925527 1.45079 0)
(-0.0953364 1.43252 0)
(-0.159227 1.1359 0)
(-0.293758 0.593362 0)
(-0.334529 0.143664 0)
(-0.368221 -0.213964 0)
(-0.395994 -0.490444 0)
(-0.411378 -0.690047 0)
(-0.413668 -0.818133 0)
(-0.405346 -0.884469 0)
(-0.389955 -0.903119 0)
(-0.371455 -0.888084 0)
(-0.353193 -0.851703 0)
(-0.00643716 1.745 0)
(-0.0161133 1.72141 0)
(-0.026749 1.67962 0)
(-0.0356973 1.64107 0)
(-0.0436753 1.60707 0)
(-0.0508361 1.5771 0)
(-0.0575891 1.54995 0)
(-0.0642033 1.52454 0)
(-0.0710097 1.50066 0)
(-0.0778034 1.47938 0)
(-0.0833877 1.45935 0)
(-0.0869617 1.43964 0)
(-0.122025 1.30204 0)
(-0.261112 0.65252 0)
(-0.284612 0.183859 0)
(-0.316941 -0.182101 0)
(-0.345334 -0.469048 0)
(-0.360079 -0.681231 0)
(-0.361504 -0.821093 0)
(-0.353053 -0.896101 0)
(-0.33851 -0.919754 0)
(-0.321617 -0.906543 0)
(-0.305544 -0.869357 0)
(-0.00559761 1.75509 0)
(-0.0142339 1.73155 0)
(-0.0237932 1.68884 0)
(-0.0319608 1.64926 0)
(-0.0393364 1.61439 0)
(-0.0460023 1.58382 0)
(-0.0522834 1.55639 0)
(-0.0583847 1.53091 0)
(-0.0644848 1.50699 0)
(-0.0705353 1.48562 0)
(-0.0754402 1.46625 0)
(-0.0792786 1.44478 0)
(-0.0911616 1.38642 0)
(-0.195598 0.70245 0)
(-0.224656 0.225521 0)
(-0.262786 -0.147648 0)
(-0.293448 -0.44723 0)
(-0.30706 -0.67324 0)
(-0.306917 -0.824723 0)
(-0.29797 -0.907459 0)
(-0.284334 -0.935094 0)
(-0.2694 -0.922953 0)
(-0.255987 -0.884511 0)
(-0.00502651 1.76406 0)
(-0.0128268 1.74066 0)
(-0.0214629 1.69723 0)
(-0.0289731 1.65681 0)
(-0.0358653 1.62121 0)
(-0.0421665 1.59012 0)
(-0.0481201 1.56239 0)
(-0.0538737 1.53674 0)
(-0.0594582 1.51264 0)
(-0.0648089 1.49095 0)
(-0.0690159 1.4719 0)
(-0.0724833 1.4507 0)
(-0.0764903 1.41939 0)
(-0.133721 0.749261 0)
(-0.173246 0.271296 0)
(-0.214052 -0.110711 0)
(-0.243395 -0.426401 0)
(-0.253171 -0.667606 0)
(-0.249886 -0.829973 0)
(-0.239872 -0.918828 0)
(-0.227267 -0.94894 0)
(-0.214766 -0.936869 0)
(-0.204596 -0.89665 0)
(-0.00472125 1.77225 0)
(-0.011728 1.74892 0)
(-0.0195688 1.70489 0)
(-0.0265417 1.66383 0)
(-0.0330849 1.62767 0)
(-0.0391713 1.59616 0)
(-0.0449731 1.56814 0)
(-0.050593 1.54227 0)
(-0.055944 1.51783 0)
(-0.0607775 1.49556 0)
(-0.0642919 1.47644 0)
(-0.0669453 1.45632 0)
(-0.0686331 1.434 0)
(-0.0970418 0.79027 0)
(-0.139196 0.315664 0)
(-0.173395 -0.0765714 0)
(-0.195685 -0.410821 0)
(-0.197923 -0.666993 0)
(-0.189718 -0.838042 0)
(-0.178294 -0.930374 0)
(-0.167128 -0.960896 0)
(-0.157762 -0.947676 0)
(-0.151562 -0.905151 0)
(-0.00445112 1.77985 0)
(-0.0106124 1.75637 0)
(-0.017808 1.71194 0)
(-0.0243777 1.67047 0)
(-0.0307037 1.63392 0)
(-0.0366991 1.60209 0)
(-0.0424868 1.57384 0)
(-0.0481609 1.54773 0)
(-0.0535632 1.52284 0)
(-0.0581382 1.49967 0)
(-0.0609458 1.47966 0)
(-0.0628426 1.45921 0)
(-0.0627973 1.44079 0)
(-0.0747702 0.820694 0)
(-0.113474 0.352959 0)
(-0.137338 -0.0500032 0)
(-0.147071 -0.404954 0)
(-0.138818 -0.673891 0)
(-0.124871 -0.849687 0)
(-0.112506 -0.941785 0)
(-0.103752 -0.970183 0)
(-0.0985591 -0.954517 0)
(-0.0972201 -0.909262 0)
(-0.00369839 1.78666 0)
(-0.00906329 1.76308 0)
(-0.0158203 1.71852 0)
(-0.0221177 1.67686 0)
(-0.0282952 1.64006 0)
(-0.0342089 1.60801 0)
(-0.0399715 1.57961 0)
(-0.0457213 1.55332 0)
(-0.0513052 1.52792 0)
(-0.0558531 1.50348 0)
(-0.0579265 1.48136 0)
(-0.0592789 1.45817 0)
(-0.0579203 1.44161 0)
(-0.0596506 0.842411 0)
(-0.0861899 0.379101 0)
(-0.101246 -0.0380654 0)
(-0.0930288 -0.412403 0)
(-0.0724207 -0.689655 0)
(-0.0534753 -0.864566 0)
(-0.04182 -0.951908 0)
(-0.0371645 -0.975489 0)
(-0.0375547 -0.95624 0)
(-0.0421112 -0.908103 0)
(-0.00189588 1.79197 0)
(-0.00677228 1.76917 0)
(-0.0133099 1.7248 0)
(-0.0193696 1.68306 0)
(-0.0253024 1.64606 0)
(-0.0309276 1.61382 0)
(-0.0363969 1.58534 0)
(-0.0419578 1.55899 0)
(-0.0475741 1.53316 0)
(-0.0522012 1.50718 0)
(-0.0537199 1.48197 0)
(-0.0543749 1.45557 0)
(-0.0522367 1.43856 0)
(-0.0550912 0.858027 0)
(-0.0561785 0.39084 0)
(-0.0588963 -0.0480843 0)
(-0.0281643 -0.436242 0)
(0.00465067 -0.713957 0)
(0.0259654 -0.880774 0)
(0.0339767 -0.958565 0)
(0.0321588 -0.974962 0)
(0.0244732 -0.951461 0)
(0.0129254 -0.900713 0)
(0.000917575 1.79459 0)
(-0.00378828 1.77498 0)
(-0.0101284 1.73081 0)
(-0.0157671 1.68897 0)
(-0.0211021 1.65167 0)
(-0.0259448 1.61916 0)
(-0.0305304 1.59064 0)
(-0.0352848 1.56443 0)
(-0.0404486 1.53843 0)
(-0.0450733 1.51104 0)
(-0.0464055 1.48231 0)
(-0.0464947 1.45256 0)
(-0.0437989 1.43061 0)
(-0.0275959 0.861273 0)
(-0.017275 0.395203 0)
(0.00464167 -0.0801613 0)
(0.0557441 -0.475214 0)
(0.095326 -0.743307 0)
(0.113655 -0.894341 0)
(0.113886 -0.9585 0)
(0.102812 -0.966327 0)
(0.0860996 -0.938725 0)
(0.0665696 -0.886238 0)
(0.00331532 1.79363 0)
(-0.000651788 1.78035 0)
(-0.00649804 1.73608 0)
(-0.0111869 1.69382 0)
(-0.0152572 1.65588 0)
(-0.0185114 1.62283 0)
(-0.021285 1.59415 0)
(-0.0242139 1.56825 0)
(-0.0279487 1.54262 0)
(-0.0320185 1.51451 0)
(-0.0334255 1.48228 0)
(-0.0332694 1.44599 0)
(-0.0299939 1.41086 0)
(0.0335847 0.843525 0)
(0.0449325 0.367006 0)
(0.0981108 -0.134449 0)
(0.162159 -0.523812 0)
(0.19943 -0.770961 0)
(0.207762 -0.899724 0)
(0.19567 -0.947951 0)
(0.172674 -0.947286 0)
(0.14549 -0.916703 0)
(0.117275 -0.863996 0)
(0.00193069 1.79026 0)
(0.00141416 1.78317 0)
(-0.00375191 1.73872 0)
(-0.00643129 1.69547 0)
(-0.00816632 1.65625 0)
(-0.00868239 1.6222 0)
(-0.00842455 1.59319 0)
(-0.00810633 1.56768 0)
(-0.00872171 1.54293 0)
(-0.0105339 1.51522 0)
(-0.0110809 1.48045 0)
(-0.0097197 1.43474 0)
(-0.00495925 1.36896 0)
(0.127505 0.822575 0)
(0.147355 0.309253 0)
(0.223184 -0.204504 0)
(0.287908 -0.572564 0)
(0.312731 -0.788473 0)
(0.30416 -0.891005 0)
(0.27575 -0.923412 0)
(0.238873 -0.915989 0)
(0.200421 -0.884513 0)
(0.163342 -0.833651 0)
(-0.00962799 1.78657 0)
(-0.000685124 1.7831 0)
(-0.00469691 1.73764 0)
(-0.00363597 1.69385 0)
(-0.00130045 1.65383 0)
(0.00240296 1.61931 0)
(0.00703504 1.5902 0)
(0.0120315 1.56512 0)
(0.016656 1.54139 0)
(0.0201594 1.51492 0)
(0.0244586 1.47898 0)
(0.0355477 1.41718 0)
(0.0375768 1.26764 0)
(0.220355 0.777389 0)
(0.290962 0.218393 0)
(0.37722 -0.282456 0)
(0.42604 -0.610755 0)
(0.428135 -0.786955 0)
(0.396728 -0.862858 0)
(0.349431 -0.882334 0)
(0.297933 -0.871495 0)
(0.248368 -0.842009 0)
(0.202952 -0.795428 0)
(-0.0375425 1.7909 0)
(-0.00985986 1.78437 0)
(-0.0125195 1.73782 0)
(-0.0041747 1.6958 0)
(0.00464364 1.65493 0)
(0.0142571 1.61941 0)
(0.0243154 1.58967 0)
(0.0351089 1.56429 0)
(0.0470871 1.54048 0)
(0.0607733 1.51473 0)
(0.0783758 1.47803 0)
(0.126188 1.39313 0)
(0.176655 1.12189 0)
(0.318961 0.681002 0)
(0.473357 0.101185 0)
(0.553864 -0.35358 0)
(0.567796 -0.623668 0)
(0.53583 -0.757457 0)
(0.477837 -0.811427 0)
(0.411214 -0.823765 0)
(0.346049 -0.814169 0)
(0.286726 -0.790018 0)
(0.234322 -0.750236 0)
(-0.0794938 1.81771 0)
(-0.0207591 1.79069 0)
(-0.0297547 1.7349 0)
(-0.00515294 1.69333 0)
(0.0142283 1.6476 0)
(0.0337191 1.60973 0)
(0.0515381 1.57883 0)
(0.0702051 1.55174 0)
(0.0943435 1.52481 0)
(0.126804 1.49414 0)
(0.181272 1.45335 0)
(0.313141 1.32119 0)
(0.429155 1.00756 0)
(0.540923 0.556755 0)
(0.702144 0.000303104 0)
(0.73616 -0.384761 0)
(0.695189 -0.593564 0)
(0.622542 -0.693655 0)
(0.538388 -0.736153 0)
(0.455294 -0.749301 0)
(0.379546 -0.74611 0)
(0.313157 -0.730511 0)
(0.255948 -0.699728 0)
(-0.123632 1.87125 0)
(-0.00664823 1.78849 0)
(-0.0712946 1.69394 0)
(-0.00846376 1.65981 0)
(0.0242653 1.61279 0)
(0.0573051 1.57607 0)
(0.092523 1.54637 0)
(0.132864 1.51396 0)
(0.184527 1.47332 0)
(0.25423 1.41469 0)
(0.353744 1.31917 0)
(0.521316 1.15653 0)
(0.69441 0.883374 0)
(0.819651 0.426075 0)
(0.911602 -0.0470802 0)
(0.871835 -0.351288 0)
(0.777505 -0.514132 0)
(0.671665 -0.598494 0)
(0.569627 -0.642344 0)
(0.476889 -0.663888 0)
(0.395746 -0.671298 0)
(0.326104 -0.666545 0)
(0.266894 -0.646197 0)
(-0.15707 1.93249 0)
(0.060831 1.83316 0)
(-0.107766 1.6475 0)
(-0.0132434 1.60881 0)
(0.0413517 1.56898 0)
(0.0967758 1.53466 0)
(0.15495 1.50028 0)
(0.221056 1.45785 0)
(0.301937 1.39929 0)
(0.404895 1.31064 0)
(0.537356 1.17558 0)
(0.707058 0.969649 0)
(0.886818 0.706014 0)
(0.988711 0.319427 0)
(0.994508 -0.0293579 0)
(0.908404 -0.262303 0)
(0.789988 -0.401739 0)
(0.673491 -0.487012 0)
(0.567644 -0.540947 0)
(0.474474 -0.575033 0)
(0.394014 -0.594907 0)
(0.32528 -0.601763 0)
(0.267016 -0.592249 0)
(-0.11068 1.9029 0)
(0.121972 1.91825 0)
(-0.0540306 1.6344 0)
(0.0216058 1.54821 0)
(0.0898541 1.50357 0)
(0.162653 1.46768 0)
(0.240985 1.42602 0)
(0.328052 1.36997 0)
(0.428992 1.29176 0)
(0.546897 1.17932 0)
(0.679964 1.01843 0)
(0.814185 0.809181 0)
(0.926932 0.566267 0)
(0.975875 0.289757 0)
(0.943204 0.0359719 0)
(0.851709 -0.153729 0)
(0.741263 -0.285719 0)
(0.634011 -0.37798 0)
(0.536667 -0.443565 0)
(0.450757 -0.490139 0)
(0.376043 -0.521853 0)
(0.311728 -0.539588 0)
(0.256944 -0.540342 0)
(-0.0523167 1.80836 0)
(0.184809 1.95363 0)
(0.0810468 1.64207 0)
(0.11894 1.49093 0)
(0.180201 1.42758 0)
(0.252911 1.38455 0)
(0.333401 1.33441 0)
(0.421944 1.26735 0)
(0.518972 1.17651 0)
(0.621976 1.05564 0)
(0.722459 0.901234 0)
(0.806112 0.717177 0)
(0.860067 0.51767 0)
(0.868361 0.305073 0)
(0.825894 0.10612 0)
(0.748292 -0.0582201 0)
(0.657644 -0.185375 0)
(0.568029 -0.282902 0)
(0.485215 -0.357621 0)
(0.410812 -0.414179 0)
(0.344897 -0.455622 0)
(0.287288 -0.482591 0)
(0.237789 -0.492437 0)
(0.00720261 1.67304 0)
(0.216081 1.9235 0)
(0.209658 1.63629 0)
(0.234453 1.45285 0)
(0.275033 1.36848 0)
(0.32833 1.31315 0)
(0.391657 1.25468 0)
(0.462124 1.18125 0)
(0.536314 1.08771 0)
(0.60918 0.971508 0)
(0.673001 0.832555 0)
(0.718513 0.674761 0)
(0.739549 0.505561 0)
(0.730681 0.3306 0)
(0.691227 0.163612 0)
(0.630099 0.0174003 0)
(0.559273 -0.104911 0)
(0.48816 -0.205263 0)
(0.42131 -0.286002 0)
(0.359783 -0.349398 0)
(0.303773 -0.397966 0)
(0.253891 -0.432236 0)
(0.210711 -0.449818 0)
(0.026807 1.55022 0)
(0.204552 1.82332 0)
(0.263709 1.59585 0)
(0.294306 1.42523 0)
(0.319173 1.33188 0)
(0.352493 1.26549 0)
(0.395318 1.19906 0)
(0.443882 1.12172 0)
(0.49388 1.02916 0)
(0.540436 0.919813 0)
(0.57804 0.79402 0)
(0.601392 0.654628 0)
(0.60704 0.506699 0)
(0.592924 0.355486 0)
(0.559531 0.209412 0)
(0.511919 0.0756466 0)
(0.457535 -0.0426874 0)
(0.402835 -0.144829 0)
(0.351047 -0.2291 0)
(0.30177 -0.29608 0)
(0.255131 -0.34919 0)
(0.212928 -0.389007 0)
(0.17647 -0.413131 0)
(0.0261446 1.43292 0)
(0.167887 1.69461 0)
(0.252113 1.53758 0)
(0.288089 1.40036 0)
(0.307555 1.30865 0)
(0.330253 1.23545 0)
(0.358749 1.16292 0)
(0.390705 1.08296 0)
(0.422747 0.991876 0)
(0.451229 0.888273 0)
(0.472492 0.772414 0)
(0.483359 0.646346 0)
(0.481762 0.513615 0)
(0.4667 0.378386 0)
(0.438869 0.245846 0)
(0.401391 0.120487 0)
(0.35914 0.00471787 0)
(0.317785 -0.0996093 0)
(0.278521 -0.185749 0)
(0.239193 -0.253138 0)
(0.199986 -0.308939 0)
(0.164799 -0.353389 0)
(0.135277 -0.383403 0)
(0.0245582 1.35222 0)
(0.137569 1.58638 0)
(0.217053 1.48391 0)
(0.249869 1.37602 0)
(0.267571 1.28997 0)
(0.285118 1.21387 0)
(0.305063 1.13805 0)
(0.326265 1.05705 0)
(0.346576 0.967853 0)
(0.363606 0.869136 0)
(0.37506 0.760979 0)
(0.379002 0.644833 0)
(0.374156 0.523229 0)
(0.359966 0.399315 0)
(0.336819 0.276651 0)
(0.306245 0.158214 0)
(0.271211 0.0454173 0)