/*--------------------------------*- C++ -*----------------------------------*\
  =========                 |
  \\      /  F ield         | OpenFOAM: The Open Source CFD Toolbox
   \\    /   O peration     | Website:  https://openfoam.org
    \\  /    A nd           | Version:  9
     \\/     M anipulation  |
\*---------------------------------------------------------------------------*/
FoamFile
{
    format      ascii;
    class       volScalarField;
    location    "175";
    object      epsilon;
}
// * * * * * * * * * * * * * * * * * * * * * * * * * * * * * * * * * * * * * //

dimensions      [0 2 -3 0 0 0 0];

internalField   nonuniform List<scalar> 
12225
(
285.515
270.702
257.913
243.813
232.455
223.094
216.797
212.703
212.744
213.954
217.258
220.864
228.205
232.592
241.695
245.814
257.546
264.062
52.4917
91.8874
106.967
114.757
124.838
136.796
152.69
169.917
191.141
210.948
235.31
255.51
281.227
299.393
325.093
339.422
365.401
374.179
20.322
34.8598
44.672
50.4732
55.3938
59.6112
64.6643
69.6448
76.327
83.1864
91.4639
99.3295
108.226
116.979
125.639
135.401
142.795
154.134
15.3476
19.6987
24.1111
27.57
30.4966
32.8705
35.1563
37.2933
39.5062
41.9176
44.3449
47.2054
49.6958
53.0536
55.4395
59.2752
61.493
65.7424
14.6506
15.8627
17.3666
19.0743
20.6382
22.026
23.2466
24.431
25.4454
26.5949
27.5258
28.7601
29.6364
30.9915
31.822
33.2794
34.0984
35.6773
14.7067
14.8769
15.2014
15.8669
16.5667
17.2868
17.9238
18.5842
19.1196
19.7343
20.1941
20.8001
21.21
21.8253
22.2018
22.8312
23.1873
23.8703
14.7421
14.6201
14.6248
14.737
14.9297
15.219
15.4913
15.8089
16.0711
16.3828
16.6184
16.9208
17.1316
17.4283
17.6175
17.9147
18.085
18.4114
14.7626
14.5866
14.4637
14.3812
14.3669
14.39
14.4381
14.5337
14.6186
14.7367
14.831
14.9567
15.048
15.1767
15.2618
15.3929
15.4715
15.622
14.7666
14.5908
14.4346
14.2964
14.1849
14.1044
14.0398
14.0066
13.9814
13.9785
13.9809
13.9917
14.0042
14.0297
14.0474
14.0799
14.1039
14.1468
14.7663
14.594
14.432
14.282
14.143
14.0219
13.9115
13.8193
13.737
13.6698
13.6102
13.5633
13.5181
13.4872
13.4517
13.4343
13.4024
13.4012
14.7658
14.5945
14.4322
14.2803
14.1362
14.0032
13.8782
13.7644
13.6582
13.5629
13.4735
13.3952
13.3198
13.256
13.1915
13.1408
13.0838
13.0453
14.7657
14.5943
14.4321
14.2798
14.1353
13.9999
13.8715
13.7518
13.6385
13.5336
13.434
13.343
13.2556
13.177
13.1002
13.0328
12.9647
12.9074
14.7657
14.5941
14.432
14.2794
14.1349
13.9989
13.8699
13.7485
13.6331
13.5249
13.4219
13.3257
13.2337
13.1483
13.0662
12.9905
12.9171
12.8502
14.7657
14.5939
14.4318
14.279
14.1346
13.9983
13.8692
13.7472
13.6315
13.5222
13.4184
13.3203
13.227
13.1389
13.055
12.9758
12.9002
12.8291
14.7657
14.5938
14.4317
14.2787
14.1342
13.9977
13.8686
13.7464
13.6307
13.5211
13.4171
13.3185
13.2248
13.136
13.0516
12.9715
12.8952
12.8228
14.7657
14.5938
14.4316
14.2785
14.1339
13.9973
13.8681
13.7458
13.63
13.5202
13.4161
13.3174
13.2237
13.1347
13.0501
12.9697
12.8932
12.8205
14.7657
14.5937
14.4315
14.2783
14.1337
13.997
13.8677
13.7453
13.6294
13.5195
13.4154
13.3166
13.2227
13.1336
13.049
12.9685
12.8919
12.8191
14.7657
14.5937
14.4314
14.2782
14.1335
13.9968
13.8674
13.745
13.629
13.5191
13.4149
13.316
13.2221
13.1329
13.0482
12.9676
12.891
12.8181
14.7657
14.5937
14.4314
14.2782
14.1335
13.9967
13.8673
13.7448
13.6288
13.5189
13.4146
13.3157
13.2218
13.1325
13.0478
12.9671
12.8905
12.8175
14.7657
14.5937
14.4314
14.2782
14.1336
13.9968
13.8674
13.745
13.629
13.5191
13.4148
13.3159
13.222
13.1328
13.048
12.9674
12.8907
12.8178
14.7657
14.5937
14.4315
14.2784
14.1338
13.997
13.8677
13.7453
13.6294
13.5196
13.4155
13.3166
13.2229
13.1339
13.0494
12.969
12.8927
12.82
14.7657
14.5937
14.4316
14.2785
14.1341
13.9974
13.8685
13.7464
13.6312
13.522
13.4191
13.3214
13.2293
13.1419
13.0595
12.9811
12.9074
12.8369
14.7658
14.5937
14.4318
14.2788
14.1353
14.0002
13.8742
13.756
13.6463
13.5435
13.4485
13.3592
13.277
13.1993
13.1283
13.0602
12.9989
12.9387
14.7655
14.5928
14.4328
14.2844
14.1515
14.0321
13.929
13.8375
13.7593
13.6894
13.6307
13.5769
13.5328
13.4905
13.4574
13.423
13.3988
13.3693
14.7592
14.5932
14.4603
14.3602
14.3029
14.2766
14.2805
14.2921
14.321
14.3531
14.3959
14.4345
14.4824
14.5216
14.5719
14.6088
14.6615
14.6938
14.7213
14.6911
14.754
14.9176
15.1828
15.4611
15.7476
16.0119
16.2723
16.5037
16.736
16.9385
17.1506
17.3307
17.5307
17.6934
17.8885
18.0356
14.7477
15.5124
16.5473
17.6841
18.7044
19.5675
20.3371
20.9967
21.6193
22.1659
22.7186
23.2105
23.7395
24.2038
24.7321
25.182
25.7242
26.1651
15.9871
20.992
25.0238
27.7604
29.7846
31.3584
32.7768
34.0576
35.359
36.6158
37.9747
39.2962
40.7604
42.1443
43.716
45.1716
46.8811
48.3555
29.9032
47.2182
54.8695
58.6732
61.6137
64.4314
67.5798
70.9763
74.737
78.7122
82.9825
87.3409
91.9008
96.4448
101.094
105.615
110.167
114.567
165.798
160.075
154.899
149.564
144.479
139.677
135.614
132.109
129.27
126.973
125.319
124.044
123.339
122.824
122.84
122.958
123.282
123.825
0.828806
0.775777
1.32796
1.85712
2.40137
2.96252
3.5402
4.12882
4.71884
5.29987
5.86184
6.39662
6.8976
7.36041
7.78235
8.1631
8.50425
8.80969
38.4279
40.0132
41.4543
42.9074
44.1077
45.1485
46.5739
47.4624
48.72
48.5673
48.0639
45.7893
43.3574
40.1474
39.7694
44.3579
47.0206
50.791
54.3417
58.2119
62.1889
66.3562
70.6858
75.1915
79.8732
84.7359
89.7834
95.02
100.45
106.078
111.908
117.945
124.192
130.653
137.332
144.231
151.354
158.703
166.279
174.085
182.12
190.388
198.885
207.613
216.568
225.752
235.157
244.785
254.627
264.682
274.941
285.401
296.05
306.885
317.892
329.068
340.394
351.866
363.465
375.185
387.004
398.919
410.902
422.952
435.039
447.161
459.286
471.413
483.508
495.571
507.57
519.499
531.33
543.039
554.601
565.996
577.204
588.221
599.095
609.718
620.09
630.261
640.218
649.957
659.473
668.76
677.811
686.628
695.204
703.548
711.655
719.536
727.188
734.626
741.845
748.867
755.685
762.324
768.773
775.063
781.19
787.186
793.029
798.728
804.252
809.627
814.822
819.883
824.766
829.513
834.068
838.476
842.683
846.752
850.65
854.317
857.549
860.522
863
865.218
866.326
867.298
867.053
866.053
864.082
861.253
857.27
852.011
845.512
837.61
828.287
817.58
805.401
791.712
777.379
761.244
744.756
735.717
728.104
719.686
710.265
699.908
688.74
676.833
664.444
651.437
637.866
624.088
610.217
596.331
582.669
568.902
555.102
541.469
528.092
514.973
502.122
489.246
476.761
461.689
450.372
409.743
2.98552
1.7442
1.73162
1.94862
2.2727
2.66734
3.11475
3.60021
4.1106
4.63588
5.17073
5.71752
6.29015
6.92241
7.6827
8.70294
10.2323
12.7413
17.1291
18.8979
20.0234
20.994
21.8959
22.7668
23.6253
24.3515
24.9357
25.2256
25.3683
25.3605
25.5191
25.9286
26.9301
28.91
30.6747
32.5566
34.4559
36.4261
38.4517
40.544
42.7027
44.9315
47.2319
49.6062
52.0559
54.583
57.1887
59.8747
62.642
65.492
68.4256
71.4439
74.5473
77.7367
81.0124
84.3748
87.8238
91.3597
94.9819
98.6903
102.484
106.362
110.324
114.368
118.492
122.696
126.976
131.331
135.758
140.255
144.818
149.445
154.131
158.874
163.668
168.51
173.395
178.318
183.274
188.259
193.267
198.292
203.328
208.371
213.412
218.447
223.467
228.468
233.442
238.383
243.282
248.13
252.924
257.659
262.343
267.006
271.659
276.221
280.702
285.103
289.42
293.65
297.791
301.841
305.797
309.659
313.426
317.099
320.678
324.165
327.561
330.867
334.087
337.223
340.279
343.257
346.162
348.997
351.767
354.477
357.125
359.709
362.228
364.682
367.076
369.412
371.692
373.915
376.081
378.189
380.24
382.24
384.187
386.073
387.881
389.642
391.271
392.71
393.869
394.877
395.475
395.737
395.645
395.208
394.345
392.989
391.12
388.693
385.686
382.092
377.887
373.053
367.728
361.782
355.28
349.773
344.468
338.886
332.923
326.604
319.98
313.099
306.042
298.823
291.432
283.873
276.294
268.752
261.309
253.949
246.688
239.572
232.643
225.925
219.452
213.162
207.309
201.134
197.233
193.134
5.66051
2.858
2.51987
2.57801
2.79431
3.10872
3.49426
3.93367
4.41322
4.92236
5.45475
6.01024
6.59705
7.23506
7.95925
8.82147
9.88277
11.1787
12.6162
13.7148
14.6408
15.5123
16.3738
17.2394
18.1066
18.9559
19.7798
20.5777
21.3916
22.2637
23.255
24.3895
25.6894
27.1454
28.6247
30.1548
31.7334
33.367
35.0564
36.8018
38.6036
40.4628
42.3804
44.3573
46.3947
48.4934
50.6544
52.8786
55.1667
57.5195
59.9375
62.4215
64.9718
67.5888
70.2729
73.0242
75.8429
78.729
81.6823
84.7025
87.7893
90.9422
94.1604
97.4431
100.789
104.198
107.668
111.197
114.785
118.428
122.126
125.875
129.674
133.519
137.408
141.338
145.305
149.306
153.337
157.394
161.473
165.571
169.681
173.801
177.924
182.045
186.161
190.264
194.352
198.418
202.458
206.466
210.441
214.381
218.288
222.164
225.995
229.766
233.472
237.112
240.683
244.181
247.604
250.948
254.213
257.397
260.499
263.517
266.453
269.305
272.075
274.764
277.373
279.903
282.358
284.738
287.048
289.289
291.466
293.58
295.634
297.626
299.558
301.431
303.249
305.013
306.726
308.388
310.001
311.562
313.075
314.537
315.947
317.293
318.564
319.754
320.829
321.762
322.535
323.091
323.348
323.332
323.088
322.554
321.68
320.424
318.76
316.659
314.101
311.072
307.559
303.557
299.105
294.207
288.954
283.805
278.616
273.224
267.582
261.706
255.633
249.406
243.074
236.668
230.205
223.708
217.238
210.823
204.46
198.201
192.072
186.085
180.269
174.656
169.276
164.116
159.306
154.642
151.05
148.365
8.40808
4.04003
3.38796
3.32422
3.47267
3.74058
4.09117
4.50489
4.96812
5.47041
6.00416
6.56527
7.15385
7.77503
8.4389
9.15906
9.94679
10.7989
11.6813
12.5363
13.3769
14.226
15.098
16.0001
16.9343
17.8997
18.8968
19.9299
21.0086
22.143
23.3415
24.6081
25.9418
27.3354
28.768
30.2434
31.7632
33.3283
34.9436
36.611
38.3316
40.1064
41.9362
43.822
45.7647
47.7652
49.8243
51.943
54.1221
56.3622
58.664
61.028
63.455
65.9453
68.4995
71.118
73.8011
76.5489
79.3616
82.2393
85.1818
88.1889
91.2603
94.3954
97.5938
100.855
104.177
107.559
111.001
114.5
118.055
121.665
125.326
129.037
132.795
136.598
140.442
144.325
148.242
152.19
156.165
160.164
164.181
168.212
172.252
176.297
180.341
184.38
188.407
192.419
196.411
200.378
204.316
208.223
212.096
215.928
219.709
223.433
227.093
230.685
234.205
237.651
241.017
244.301
247.5
250.613
253.636
256.569
259.41
262.159
264.815
267.378
269.849
272.229
274.518
276.72
278.836
280.867
282.818
284.691
286.487
288.208
289.854
291.429
292.935
294.374
295.749
297.062
298.314
299.503
300.633
301.703
302.708
303.636
304.481
305.239
305.876
306.39
306.705
306.81
306.723
306.392
305.813
304.956
303.785
302.266
300.372
298.078
295.365
292.22
288.635
284.617
280.195
275.401
270.307
265.084
259.716
254.154
248.387
242.433
236.331
230.117
223.836
217.52
211.197
204.894
198.652
192.497
186.446
180.524
174.752
169.116
163.641
158.372
153.331
148.521
144.021
139.804
136.275
133.568
11.0576
5.2172
4.25861
4.08305
4.16967
4.39894
4.72221
5.11593
5.56553
6.06047
6.5927
7.15651
7.74854
8.36802
9.0165
9.69722
10.4131
11.1636
11.9424
12.7422
13.5648
14.4159
15.3008
16.2236
17.187
18.1929
19.2427
20.3375
21.4787
22.6668
23.9021
25.1847
26.5129
27.8872
29.3055
30.7688
32.2795
33.8403
35.4528
37.1176
38.8356
40.6079
42.4355
44.3195
46.2609
48.2608
50.3203
52.4405
54.6227
56.8676
59.1758
61.5481
63.9854
66.4884
69.0578
71.6944
74.3988
77.1715
80.0129
82.9234
85.9032
88.9525
92.0712
95.2592
98.5161
101.842
105.235
108.696
112.222
115.814
119.469
123.185
126.962
130.796
134.686
138.628
142.62
146.659
150.74
154.86
159.016
163.202
167.414
171.647
175.896
180.156
184.421
188.685
192.943
197.189
201.418
205.623
209.799
213.94
218.04
222.092
226.089
230.022
233.887
237.677
241.387
245.013
248.549
251.992
255.338
258.583
261.725
264.761
267.689
270.506
273.212
275.805
278.285
280.652
282.907
285.051
287.085
289.011
290.832
292.551
294.169
295.688
297.111
298.44
299.678
300.828
301.891
302.873
303.775
304.595
305.336
306.005
306.594
307.089
307.487
307.803
307.969
307.977
307.836
307.531
307.037
306.322
305.369
304.147
302.624
300.772
298.563
295.972
292.982
289.583
285.773
281.564
276.979
272.052
266.839
261.419
255.806
249.995
243.994
237.83
231.538
225.158
218.729
212.287
205.864
199.489
193.197
187.013
180.959
175.055
169.319
163.754
158.367
153.197
148.254
143.542
139.126
135.032
131.461
128.501
13.5361
6.34305
5.09118
4.80826
4.83563
5.028
5.32479
5.69785
6.13104
6.61351
7.13724
7.69624
8.28625
8.90478
9.55086
10.2249
10.9278
11.6603
12.4225
13.2145
14.0377
14.8947
15.7882
16.7207
17.6944
18.7111
19.7722
20.8785
22.0307
23.2286
24.4724
25.7621
27.0979
28.4806
29.9107
31.3893
32.9179
34.4981
36.1313
37.8187
39.5615
41.361
43.2183
45.1348
47.1116
49.1502
51.2517
53.4174
55.6482
57.9455
60.3108
62.7454
65.2504
67.8271
70.4765
73.1998
75.9979
78.8717
81.822
84.8496
87.955
91.1388
94.4012
97.7424
101.162
104.661
108.238
111.892
115.623
119.43
123.312
127.266
131.29
135.384
139.544
143.766
148.05
152.389
156.782
161.223
165.708
170.232
174.791
179.378
183.988
188.614
193.251
197.891
202.529
207.157
211.768
216.355
220.912
225.429
229.9
234.317
238.671
242.955
247.16
251.279
255.307
259.237
263.064
266.781
270.384
273.869
277.231
280.466
283.571
286.543
289.379
292.077
294.636
297.055
299.333
301.471
303.471
305.333
307.06
308.654
310.119
311.456
312.668
313.758
314.73
315.587
316.332
316.97
317.506
317.935
318.259
318.501
318.653
318.685
318.584
318.399
318.074
317.615
317.007
316.238
315.287
314.13
312.744
311.101
309.171
306.925
304.337
301.385
298.053
294.334
290.229
285.75
280.915
275.754
270.306
264.619
258.715
252.607
246.316
239.873
233.315
226.681
220.011
213.344
206.711
200.147
193.682
187.343
181.152
175.13
169.293
163.65
158.207
152.996
148.027
143.313
138.893
134.804
131.151
127.931
15.7797
7.38137
5.85536
5.46647
5.43819
5.59295
5.8621
6.21239
6.62575
7.09079
7.59953
8.14613
8.72632
9.3373
9.97749
10.6464
11.3444
12.0724
12.8313
13.6225
14.4475
15.3081
16.2064
17.1441
18.123
19.1448
20.2108
21.322
22.4793
23.6833
24.9347
26.234
27.5822
28.9801
30.4288
31.9295
33.4836
35.0923
36.7572
38.4796
40.261
42.1029
44.0068
45.9742
48.0067
50.106
52.2735
54.5109
56.8198
59.2019
61.6588
64.1923
66.804
69.4955
72.2683
75.1239
78.0637
81.0891
84.2012
87.4011
90.6898
94.0682
97.5369
101.096
104.747
108.488
112.321
116.244
120.257
124.358
128.547
132.822
137.18
141.62
146.139
150.734
155.401
160.136
164.936
169.794
174.708
179.67
184.675
189.716
194.788
199.882
204.992
210.11
215.228
220.339
225.433
230.501
235.536
240.528
245.466
250.343
255.148
259.872
264.506
269.042
273.471
277.785
281.978
286.043
289.974
293.764
297.409
300.902
304.24
307.417
310.431
313.277
315.953
318.456
320.787
322.944
324.929
326.741
328.384
329.86
331.172
332.322
333.315
334.152
334.841
335.381
335.778
336.04
336.178
336.177
336.031
335.789
335.434
334.948
334.344
333.623
332.772
331.786
330.658
329.375
327.919
326.269
324.403
322.294
319.914
317.235
314.233
310.888
307.186
303.12
298.691
293.907
288.784
283.344
277.619
271.639
265.429
259.011
252.413
245.667
238.813
231.89
224.94
218
211.107
204.294
197.594
191.032
184.634
178.419
172.405
166.604
161.027
155.691
150.612
145.804
141.296
137.125
133.352
129.883
17.7417
8.30405
6.5281
6.03611
5.9553
6.07304
6.31394
6.64019
7.03179
7.47669
7.96689
8.49675
9.06227
9.66073
10.2905
10.951
11.6422
12.3649
13.1201
13.909
14.7333
15.5945
16.4943
17.4343
18.4161
19.4413
20.5111
21.6269
22.7898
24.0009
25.2614
26.5725
27.9352
29.3509
30.821
32.3467
33.9296
35.5713
37.2733
39.0373
40.8651
42.7584
44.7191
46.749
48.8502
51.0246
53.2742
55.6011
58.0074
60.4951
63.0665
65.7236
68.4685
71.3034
74.2302
77.2509
80.3673
83.5813
86.8945
90.3083
93.8243
97.4434
101.167
104.995
108.929
112.969
117.115
121.366
125.722
130.181
134.743
139.406
144.168
149.025
153.976
159.016
164.142
169.349
174.632
179.987
185.406
190.885
196.416
201.991
207.604
213.245
218.907
224.581
230.257
235.926
241.578
247.202
252.788
258.325
263.802
269.208
274.531
279.761
284.886
289.898
294.785
299.539
304.152
308.614
312.918
317.058
321.025
324.815
328.419
331.833
335.052
338.07
340.885
343.491
345.888
348.074
350.049
351.813
353.369
354.72
355.868
356.816
357.57
358.131
358.51
358.701
358.711
358.54
358.22
357.735
357.098
356.323
355.411
354.36
353.177
351.865
350.422
348.846
347.131
345.269
343.245
341.043
338.64
336.013
333.137
329.986
326.539
322.774
318.679
314.246
309.474
304.367
298.937
293.201
287.182
280.903
274.39
267.666
260.761
253.712
246.557
239.337
232.093
224.865
217.691
210.604
203.638
196.822
190.18
183.733
177.501
171.497
165.733
160.225
154.987
150.033
145.387
141.078
137.139
133.419
19.3922
9.09298
7.0964
6.50899
6.37804
6.45984
6.67275
6.97488
7.34438
7.76851
8.23914
8.75081
9.29974
9.88342
10.5003
11.1498
11.8319
12.5471
13.2964
14.0809
14.9018
15.7608
16.6594
17.5991
18.5815
19.6082
20.6806
21.8002
22.9685
24.1868
25.4566
26.7798
28.1578
29.5923
31.085
32.6376
34.2519
35.9297
37.673
39.4837
41.364
43.316
45.3421
47.4444
49.6254
51.8876
54.2335
56.6656
59.1866
61.799
64.5055
67.3088
70.2116
73.2163
76.3256
79.542
82.8677
86.3051
89.8563
93.5232
97.3075
101.211
105.235
109.38
113.647
118.037
122.549
127.183
131.94
136.817
141.813
146.926
152.153
157.493
162.94
168.492
174.143
179.889
185.724
191.642
197.635
203.698
209.821
215.997
222.216
228.469
234.747
241.039
247.333
253.621
259.888
266.124
272.317
278.452
284.519
290.503
296.391
302.172
307.832
313.359
318.743
323.972
329.036
333.925
338.63
343.144
347.456
351.561
355.449
359.115
362.551
365.751
368.709
371.422
373.885
376.097
378.057
379.764
381.221
382.43
383.395
384.119
384.609
384.86
384.883
384.676
384.255
383.629
382.806
381.791
380.595
379.229
377.701
376.017
374.185
372.214
370.106
367.865
365.488
362.973
360.309
357.485
354.481
351.28
347.858
344.193
340.262
336.048
331.534
326.713
321.58
316.138
310.392
304.354
298.04
291.469
284.663
277.648
270.452
263.114
255.67
248.163
240.632
233.12
225.663
218.299
211.061
203.978
197.078
190.383
183.912
177.682
171.706
165.999
160.572
155.442
150.625
146.145
142.014
138.047
20.7181
9.73971
7.55609
6.88356
6.7059
6.75378
6.93981
7.21865
7.56679
7.97081
8.42236
8.91605
9.44828
10.0167
10.6198
11.2571
11.9286
12.6348
13.3767
14.1554
14.9713
15.826
16.7211
17.6585
18.6399
19.6668
20.7409
21.8638
23.0371
24.2623
25.5409
26.8761
28.2701
29.7248
31.2422
32.8243
34.4734
36.1918
37.9817
39.8456
41.786
43.8057
45.9073
48.0938
50.3679
52.7327
55.1914
57.7469
60.4026
63.1616
66.0272
69.0027
72.0911
75.2958
78.6199
82.0663
85.6379
89.3375
93.1677
97.1308
101.229
105.464
109.838
114.351
119.004
123.799
128.735
133.812
139.028
144.384
149.875
155.502
161.259
167.144
173.153
179.281
185.523
191.872
198.321
204.865
211.494
218.201
224.976
231.809
238.691
245.61
252.555
259.514
266.475
273.425
280.35
287.238
294.074
300.843
307.531
314.123
320.605
326.96
333.177
339.24
345.137
350.854
356.381
361.706
366.819
371.71
376.369
380.789
384.959
388.872
392.519
395.893
398.986
401.792
404.308
406.53
408.455
410.084
411.418
412.459
413.212
413.678
413.86
413.76
413.389
412.754
411.861
410.722
409.347
407.744
405.927
403.908
401.699
399.311
396.758
394.051
391.2
388.212
385.094
381.845
378.464
374.944
371.272
367.433
363.41
359.18
354.725
350.024
345.063
339.83
334.32
328.531
322.464
316.125
309.524
302.675
295.597
288.313
280.854
273.252
265.545
257.774
249.98
242.202
234.48
226.851
219.35
212.007
204.851
197.906
191.194
184.73
178.532
172.611
166.982
161.658
156.652
151.982
147.646
143.439
21.7217
10.2438
7.9094
7.16398
6.94422
6.96105
7.12202
7.379
7.70714
8.09236
8.52605
9.00286
9.51935
10.0734
10.6628
11.2874
11.9474
12.6436
13.3769
14.1492
14.9593
15.8091
16.7005
17.6353
18.6153
19.6424
20.7183
21.845
23.0243
24.2581
25.5478
26.8976
28.3104
29.7888
31.3353
32.9524
34.6431
36.4098
38.2556
40.1834
42.1962
44.2973
46.49
48.7777
51.1641
53.6527
56.2472
58.9516
61.7694
64.7048
67.7615
70.9434
74.2545
77.6984
81.2789
84.9995
88.8636
92.8744
97.035
101.348
105.816
110.44
115.224
120.167
125.27
130.535
135.961
141.547
147.292
153.194
159.251
165.459
171.815
178.315
184.953
191.724
198.621
205.636
212.763
219.992
227.315
234.72
242.198
249.738
257.328
264.955
272.605
280.267
287.925
295.566
303.175
310.735
318.231
325.648
332.968
340.175
347.252
354.184
360.954
367.547
373.948
380.143
386.119
391.863
397.365
402.612
407.596
412.306
416.733
420.865
424.695
428.213
431.41
434.278
436.813
439.009
440.864
442.377
443.549
444.382
444.88
445.043
444.875
444.381
443.572
442.454
441.036
439.329
437.345
435.094
432.592
429.854
426.896
423.732
420.382
416.861
413.185
409.37
405.427
401.364
397.187
392.894
388.482
383.94
379.254
374.406
369.379
364.152
358.71
353.041
347.137
340.991
334.601
327.967
321.093
313.988
306.666
299.147
291.459
283.631
275.701
267.704
259.682
251.673
243.717
235.851
228.11
220.528
213.133
205.951
199.006
192.315
185.895
179.761
173.926
168.402
163.199
158.331
153.785
149.35
22.413
10.6097
8.1627
7.35844
7.10184
7.09189
7.22971
7.46663
7.77658
8.14498
8.56225
9.02336
9.52541
10.0671
10.6453
11.2598
11.9106
12.5982
13.3232
14.0862
14.8888
15.7328
16.6202
17.5529
18.5331
19.5627
20.6441
21.7793
22.971
24.2215
25.5308
26.9013
28.3402
29.8502
31.435
33.0981
34.843
36.6729
38.5912
40.6014
42.7072
44.9126
47.2215
49.6382
52.1669
54.8119
57.5778
60.469
63.4901
66.6457
69.9403
73.3785
76.9648
80.7035
84.5989
88.655
92.8756
97.2643
101.824
106.559
111.47
116.559
121.829
127.281
132.915
138.73
144.727
150.903
157.258
163.788
170.49
177.359
184.391
191.581
198.921
206.404
214.023
221.769
229.632
237.603
245.669
253.821
262.045
270.328
278.658
287.019
295.397
303.778
312.145
320.482
328.773
337.001
345.149
353.199
361.132
368.931
376.579
384.056
391.347
398.432
405.297
411.926
418.305
424.42
430.259
435.811
441.066
446.011
450.638
454.934
458.891
462.495
465.739
468.612
471.108
473.222
474.949
476.288
477.24
477.807
477.991
477.796
477.217
476.269
474.961
473.3
471.296
468.959
466.302
463.338
460.084
456.558
452.779
448.767
444.544
440.132
435.554
430.831
425.984
421.028
415.976
410.837
405.612
400.299
394.889
389.369
383.721
377.928
371.973
365.844
359.529
353.021
346.311
339.394
332.268
324.936
317.408
309.697
301.827
293.824
285.719
277.548
269.348
261.156
253.011
244.949
237.008
229.219
221.615
214.222
207.065
200.164
193.537
187.199
181.165
175.444
170.046
164.981
160.229
155.58
22.8322
10.8538
8.32702
7.47693
7.18875
7.15642
7.27475
7.49383
7.78752
8.14173
8.54631
8.99557
9.48577
10.014
10.5793
11.1819
11.8222
12.5008
13.2186
13.9772
14.7777
15.6218
16.5115
17.449
18.4369
19.4781
20.5742
21.7277
22.9415
24.2187
25.5576
26.9651
28.447
30.0082
31.6526
33.3841
35.2072
37.1266
39.1468
41.2718
43.506
45.8542
48.3211
50.912
53.6318
56.4858
59.4792
62.6173
65.9053
69.3487
72.9525
76.7219
80.662
84.7777
89.0734
93.5536
98.2223
103.083
108.139
113.394
118.848
124.505
130.365
136.428
142.695
149.164
155.833
162.701
169.764
177.018
184.458
192.078
199.871
207.832
215.95
224.217
232.624
241.16
249.813
258.571
267.421
276.351
285.345
294.39
303.469
312.568
321.669
330.756
339.812
348.819
357.76
366.616
375.369
384
392.489
400.819
408.969
416.921
424.656
432.156
439.404
446.383
453.078
459.475
465.562
471.327
476.759
481.848
486.583
490.951
494.942
498.544
501.745
504.534
506.904
508.848
510.361
511.442
512.092
512.312
512.108
511.466
510.399
508.923
507.042
504.764
502.099
499.06
495.658
491.91
487.833
483.448
478.777
473.844
468.676
463.299
457.744
452.04
446.213
440.29
434.292
428.235
422.13
415.983
409.792
403.548
397.236
390.841
384.345
377.738
371.004
364.135
357.116
349.938
342.591
335.072
327.383
319.535
311.542
303.426
295.212
286.932
278.617
270.305
262.03
253.829
245.738
237.79
230.019
222.453
215.117
208.034
201.224
194.703
188.485
182.581
176.999
171.744
166.797
161.953
22.9451
10.9707
8.40715
7.5288
7.21715
7.16704
7.27046
7.4765
7.75778
8.09843
8.48909
8.92541
9.40427
9.92407
10.4835
11.0822
11.7203
12.3985
13.1182
13.8811
14.6894
15.5441
16.4473
17.4019
18.4106
19.4766
20.5985
21.7822
23.0319
24.3518
25.7461
27.2198
28.778
30.4257
32.1681
34.0102
35.9575
38.0155
40.1901
42.4862
44.9096
47.4659
50.1612
53.0017
55.9934
59.1423
62.4545
65.936
69.5926
73.4302
77.4545
81.6711
86.0853
90.7019
95.5258
100.561
105.811
111.28
116.97
122.882
129.019
135.381
141.968
148.778
155.811
163.064
170.533
178.213
186.101
194.189
202.47
210.938
219.582
228.394
237.363
246.478
255.727
265.096
274.572
284.142
293.79
303.501
313.259
323.047
332.849
342.648
352.424
362.161
371.84
381.443
390.95
400.344
409.603
418.711
427.646
436.389
444.921
453.223
461.275
469.058
476.555
483.748
490.622
497.163
503.359
509.197
514.669
519.764
524.47
528.776
532.669
536.137
539.166
541.745
543.865
545.519
546.699
547.406
547.643
547.414
546.698
545.508
543.86
541.759
539.211
536.226
532.814
528.987
524.759
520.147
515.17
509.851
504.216
498.291
492.107
485.697
479.097
472.343
465.471
458.517
451.509
444.473
437.432
430.398
423.378
416.37
409.363
402.342
395.292
388.2
381.053
373.836
366.534
359.128
351.603
343.949
336.163
328.246
320.204
312.052
303.808
295.496
287.147
278.79
270.458
262.187
254.012
245.967
238.084
230.394
222.925
215.7
208.741
202.066
195.69
189.624
183.876
178.45
173.324
168.307
22.8881
10.984
8.4166
7.52634
7.20217
7.14062
7.23068
7.42319
7.69264
8.02456
8.40996
8.84325
9.32126
9.84236
10.4061
11.0117
11.6593
12.3502
13.0856
13.8676
14.6978
15.576
16.5069
17.4942
18.5417
19.6533
20.833
22.0851
23.4143
24.826
26.3255
27.9184
29.6108
31.4084
33.3177
35.3451
37.4971
39.7806
42.2021
44.7686
47.4871
50.3648
53.4094
56.6284
60.0288
63.6172
67.4002
71.3839
75.5746
79.9782
84.6002
89.4461
94.5207
99.8283
105.373
111.157
117.184
123.456
129.972
136.735
143.742
150.993
158.485
166.214
174.178
182.369
190.784
199.413
208.25
217.286
226.511
235.914
245.485
255.21
265.077
275.072
285.18
295.387
305.677
316.034
326.441
336.881
347.337
357.79
368.223
378.617
388.954
399.214
409.38
419.431
429.349
439.116
448.712
458.118
467.315
476.284
485.007
493.463
501.635
509.503
517.05
524.257
531.111
537.597
543.704
549.422
554.74
559.649
564.14
568.199
571.815
574.973
577.659
579.86
581.565
582.77
583.463
583.644
583.335
582.489
581.133
579.274
576.92
574.074
570.747
566.946
562.683
557.97
552.823
547.258
541.297
534.965
528.289
521.302
514.035
506.527
498.82
490.958
482.987
474.949
466.883
458.824
450.806
442.85
434.974
427.184
419.469
411.82
404.221
396.661
389.124
381.595
374.053
366.474
358.835
351.117
343.313
335.413
327.413
319.318
311.138
302.891
294.601
286.291
277.991
269.735
261.555
253.485
245.558
237.807
230.26
222.944
215.881
209.092
202.592
196.395
190.507
184.934
179.652
174.489
22.6629
10.9335
8.3818
7.48563
7.15006
7.07896
7.16308
7.35359
7.62401
7.96019
8.35274
8.79621
9.28769
9.82565
10.4092
11.0359
11.7084
12.4289
13.1998
14.0238
14.9041
15.8443
16.8479
17.9196
19.0641
20.2866
21.593
22.989
24.4808
26.0749
27.7783
29.598
31.5417
33.6168
35.8314
38.1936
40.7111
43.3913
46.242
49.2723
52.4912
55.9077
59.5318
63.3741
67.4408
71.7379
76.2711
81.0457
86.0669
91.3394
96.8673
102.654
108.703
115.015
121.592
128.435
135.543
142.914
150.546
158.435
166.579
174.971
183.605
192.474
201.571
210.887
220.412
230.135
240.046
250.132
260.38
270.778
281.31
291.963
302.72
313.567
324.486
335.46
346.474
357.508
368.545
379.568
390.559
401.498
412.368
423.15
433.825
444.376
454.784
465.03
475.096
484.966
494.621
504.043
513.216
522.121
530.741
539.06
547.058
554.719
562.025
568.959
575.507
581.656
587.396
592.718
597.613
602.073
606.089
609.65
612.74
615.347
617.452
619.045
620.108
620.653
620.639
620.112
619.008
617.372
615.2
612.495
609.263
605.511
601.248
596.482
591.226
585.493
579.299
572.662
565.604
558.152
550.336
542.193
533.759
525.075
516.189
507.153
498.023
488.851
479.68
470.56
461.533
452.636
443.889
435.273
426.828
418.546
410.413
402.419
394.547
386.777
379.083
371.432
363.794
356.142
348.437
340.663
332.815
324.889
316.885
308.813
300.691
292.534
284.367
276.221
268.127
260.117
252.225
244.485
236.926
229.577
222.463
215.606
209.024
202.731
196.735
191.044
185.634
180.354
22.2475
10.8197
8.29846
7.40876
7.08068
7.01923
7.11684
7.32353
7.61281
7.96991
8.38496
8.85537
9.37945
9.95672
10.5878
11.2741
12.0176
12.821
13.6881
14.6229
15.6305
16.7163
17.886
19.1459
20.5029
21.9644
23.5384
25.2331
27.0571
29.0196
31.1297
33.3973
35.8324
38.4448
41.2448
44.2419
47.4459
50.8659
54.5109
58.3905
62.5138
66.8899
71.5274
76.4365
81.6259
87.0972
92.8518
98.891
105.216
111.826
118.721
125.901
133.361
141.099
149.111
157.391
165.934
174.732
183.778
193.063
202.578
212.312
222.257
232.399
242.728
253.23
263.894
274.704
285.648
296.711
307.878
319.134
330.464
341.851
353.279
364.732
376.192
387.645
399.071
410.455
421.778
433.024
444.176
455.216
466.128
476.895
487.499
497.925
508.155
518.173
527.964
537.512
546.801
555.818
564.546
572.971
581.079
588.855
596.284
603.349
610.035
616.326
622.209
627.671
632.703
637.299
641.452
645.153
648.398
651.171
653.457
655.244
656.504
657.242
657.412
657.077
656.134
654.637
652.581
649.968
646.798
643.076
638.806
633.998
628.657
622.796
616.425
609.562
602.22
594.42
586.182
577.537
568.517
559.168
549.521
539.625
529.535
519.31
508.983
498.612
488.28
478.052
467.986
458.132
448.527
439.229
430.21
421.447
412.924
404.629
396.545
388.651
380.914
373.295
365.755
358.265
350.796
343.323
335.805
328.225
320.57
312.825
305.001
297.122
289.209
281.289
273.39
265.543
257.783
250.143
242.654
235.348
228.251
221.388
214.78
208.442
202.384
196.616
191.115
185.757
21.7387
10.6247
8.18016
7.33156
7.03635
7.00619
7.13422
7.37205
7.69844
8.1016
8.57504
9.11562
9.72277
10.3976
11.1426
11.9614
12.8582
13.8383
14.9079
16.0739
17.344
18.7272
20.2328
21.8708
23.6518
25.5868
27.6877
29.9668
32.4366
35.1094
37.998
41.1149
44.4721
48.0817
51.9544
56.1005
60.5294
65.2496
70.2683
75.5914
81.2249
87.1744
93.4428
100.032
106.954
114.194
121.746
129.599
137.747
146.181
154.891
163.868
173.1
182.577
192.288
202.219
212.36
222.697
233.218
243.909
254.757
265.75
276.873
288.114
299.458
310.893
322.403
333.976
345.597
357.253
368.928
380.61
392.282
403.932
415.544
427.104
438.597
450.009
461.324
472.529
483.608
494.547
505.33
515.945
526.377
536.611
546.635
556.433
565.992
575.298
584.338
593.1
601.573
609.742
617.597
625.127
632.32
639.164
645.648
651.757
657.477
662.793
667.693
672.165
676.204
679.801
682.95
685.644
687.882
689.646
690.908
691.678
691.889
691.603