/*--------------------------------*- C++ -*----------------------------------*\
  =========                 |
  \\      /  F ield         | OpenFOAM: The Open Source CFD Toolbox
   \\    /   O peration     | Website:  https://openfoam.org
    \\  /    A nd           | Version:  9
     \\/     M anipulation  |
\*---------------------------------------------------------------------------*/
FoamFile
{
    format      ascii;
    class       volScalarField;
    location    "175";
    object      k;
}
// * * * * * * * * * * * * * * * * * * * * * * * * * * * * * * * * * * * * * //

dimensions      [0 2 -2 0 0 0 0];

internalField   nonuniform List<scalar> 
12225
(
0.362827
0.343997
0.327742
0.309825
0.29539
0.283496
0.275493
0.27029
0.27034
0.271902
0.276038
0.280796
0.289838
0.295932
0.30665
0.313677
0.325723
0.330518
0.440274
0.468737
0.461615
0.448373
0.450348
0.458322
0.474499
0.498629
0.524362
0.552229
0.580766
0.606303
0.633963
0.654074
0.680075
0.693371
0.719069
0.725555
0.390409
0.417857
0.420243
0.416829
0.411634
0.407804
0.408014
0.410041
0.414541
0.421429
0.430739
0.439746
0.451247
0.461205
0.472998
0.48368
0.493889
0.506471
0.377044
0.387168
0.391466
0.391343
0.39026
0.387884
0.385658
0.384082
0.382879
0.382898
0.383359
0.38439
0.386298
0.388479
0.390956
0.394305
0.39665
0.401162
0.374434
0.376093
0.378427
0.378665
0.378275
0.377202
0.375486
0.373738
0.372009
0.370454
0.369256
0.36811
0.367384
0.366811
0.366452
0.366362
0.366391
0.366763
0.37378
0.372704
0.372659
0.372365
0.371772
0.370819
0.369553
0.368082
0.366571
0.364975
0.363527
0.362062
0.360754
0.359529
0.358397
0.357432
0.356449
0.355802
0.373775
0.37174
0.370388
0.369284
0.368235
0.367114
0.365914
0.364586
0.363237
0.361807
0.360421
0.359022
0.357676
0.356381
0.355119
0.353965
0.352793
0.351806
0.373819
0.371559
0.369635
0.367976
0.366501
0.365107
0.363775
0.362429
0.361107
0.359765
0.358449
0.357142
0.355861
0.35462
0.353398
0.352247
0.351095
0.35005
0.373832
0.371553
0.369449
0.367525
0.365776
0.364153
0.362644
0.361199
0.359817
0.358472
0.357168
0.355901
0.354665
0.353473
0.352305
0.351192
0.350094
0.349069
0.373831
0.37156
0.369418
0.367405
0.365529
0.363772
0.362132
0.360585
0.359121
0.357727
0.356393
0.355116
0.353886
0.352708
0.351567
0.350478
0.349417
0.348418
0.373829
0.37156
0.369413
0.367378
0.365458
0.363645
0.361937
0.360324
0.358798
0.357352
0.355978
0.354671
0.353423
0.352234
0.351092
0.350006
0.348957
0.347967
0.373828
0.371558
0.369409
0.367371
0.365439
0.363609
0.361875
0.360233
0.358677
0.357201
0.355799
0.354467
0.353199
0.351993
0.350841
0.349746
0.348694
0.347699
0.373827
0.371556
0.369405
0.367365
0.36543
0.363593
0.361851
0.360197
0.358626
0.357133
0.355715
0.354367
0.353084
0.351863
0.350699
0.349593
0.348534
0.347531
0.373826
0.371555
0.369401
0.36736
0.365422
0.363583
0.361837
0.360178
0.3586
0.357101
0.355674
0.354317
0.353024
0.351794
0.350621
0.349506
0.34844
0.347427
0.373826
0.371553
0.369398
0.367355
0.365416
0.363575
0.361826
0.360164
0.358584
0.357081
0.355651
0.354289
0.352993
0.351758
0.35058
0.349459
0.348388
0.347369
0.373826
0.371552
0.369396
0.367351
0.36541
0.363568
0.361817
0.360154
0.358572
0.357067
0.355634
0.354271
0.352972
0.351734
0.350554
0.34943
0.348357
0.347334
0.373825
0.371551
0.369394
0.367348
0.365406
0.363562
0.36181
0.360145
0.358562
0.357055
0.355621
0.354256
0.352956
0.351717
0.350535
0.349409
0.348335
0.34731
0.373825
0.371551
0.369393
0.367346
0.365403
0.363558
0.361805
0.360139
0.358555
0.357047
0.355612
0.354246
0.352944
0.351704
0.350521
0.349394
0.348318
0.347292
0.373825
0.37155
0.369393
0.367346
0.365402
0.363557
0.361804
0.360137
0.358552
0.357044
0.355608
0.354241
0.352939
0.351697
0.350514
0.349386
0.348309
0.347282
0.373825
0.371551
0.369393
0.367347
0.365404
0.363559
0.361806
0.36014
0.358555
0.357047
0.355612
0.354245
0.352942
0.351701
0.350518
0.34939
0.348313
0.347286
0.373825
0.371551
0.369395
0.367349
0.365407
0.363563
0.361811
0.360146
0.358562
0.357056
0.355622
0.354256
0.352956
0.351716
0.350535
0.349408
0.348334
0.347309
0.373826
0.371553
0.369397
0.367352
0.365412
0.363571
0.361822
0.360162
0.358584
0.357083
0.355657
0.354299
0.353007
0.351776
0.350603
0.349484
0.348418
0.347399
0.373826
0.371554
0.369399
0.36736
0.365429
0.363603
0.361875
0.36024
0.358691
0.357221
0.355824
0.354494
0.353228
0.352019
0.350867
0.349764
0.348712
0.347702
0.373828
0.371551
0.369412
0.367417
0.365556
0.36382
0.36219
0.360651
0.359189
0.357794
0.356457
0.355172
0.353937
0.352746
0.351601
0.350496
0.349437
0.348411
0.373823
0.371554
0.369605
0.367893
0.366339
0.364892
0.363495
0.362122
0.360761
0.359414
0.358081
0.35677
0.355489
0.354238
0.35303
0.351856
0.350735
0.349646
0.37378
0.37199
0.371113
0.370266
0.36936
0.368312
0.367048
0.36563
0.364121
0.362575
0.361031
0.359523
0.358074
0.356683
0.355382
0.354142
0.35301
0.351924
0.374297
0.375564
0.377778
0.377858
0.377291
0.375886
0.373835
0.371641
0.369505
0.367482
0.365664
0.364084
0.36271
0.361535
0.360609
0.359817
0.359288
0.3588
0.378732
0.394394
0.398294
0.396566
0.392559
0.387608
0.383641
0.380455
0.378265
0.376851
0.376495
0.376748
0.377397
0.378694
0.380439
0.382418
0.384821
0.387131
0.408344
0.427539
0.422424
0.41105
0.402226
0.397922
0.398555
0.401114
0.405981
0.413033
0.420988
0.429819
0.438823
0.448177
0.457289
0.466534
0.4753
0.484158
0.366033
0.353411
0.341988
0.33021
0.318982
0.308382
0.299409
0.291674
0.285403
0.280332
0.276681
0.273865
0.272308
0.271181
0.271173
0.271516
0.272149
0.273379
0.00282849
0.01217
0.0208554
0.0291878
0.0377449
0.0465644
0.0556359
0.064866
0.0740856
0.083107
0.0917245
0.0997376
0.106918
0.113
0.117625
0.120294
0.120247
0.116288
0.10639
0.107402
0.11111
0.115502
0.120017
0.124601
0.12926
0.133735
0.136149
0.138277
0.140445
0.142238
0.143842
0.143957
0.14401
0.154635
0.160581
0.168913
0.176595
0.184831
0.193089
0.201572
0.210187
0.218972
0.227907
0.237003
0.246254
0.255669
0.26524
0.274978
0.284876
0.294942
0.305169
0.315564
0.326119
0.336841
0.347722
0.358765
0.369962
0.381317
0.392818
0.40447
0.416258
0.428188
0.440243
0.452426
0.464721
0.47713
0.489634
0.502235
0.514913
0.527669
0.540482
0.553351
0.566254
0.579192
0.592137
0.605093
0.618029
0.630948
0.643821
0.656649
0.669403
0.682084
0.694661
0.707139
0.719482
0.731696
0.743747
0.755639
0.767341
0.778855
0.79015
0.801209
0.812012
0.822543
0.832795
0.842797
0.85254
0.861933
0.871049
0.879891
0.888456
0.896744
0.904752
0.912479
0.919922
0.927086
0.933969
0.94058
0.946919
0.952999
0.958818
0.964393
0.969723
0.974829
0.979709
0.984386
0.988854
0.993141
0.997249
1.00121
1.00501
1.00866
1.01213
1.01546
1.01861
1.02164
1.02451
1.02727
1.02986
1.03234
1.03465
1.03686
1.03893
1.04093
1.04261
1.04405
1.0453
1.0462
1.04601
1.04654
1.04592
1.04493
1.04295
1.04031
1.03698
1.03277
1.02757
1.02139
1.01409
1.00566
0.996108
0.98531
0.973352
0.960826
0.94623
0.933211
0.925926
0.918857
0.910963
0.902172
0.892551
0.882191
0.871164
0.859615
0.847439
0.834752
0.821818
0.808738
0.795596
0.7825
0.769093
0.755638
0.742261
0.728988
0.715846
0.702577
0.689567
0.673962
0.661852
0.620633
0.0102439
0.0306237
0.0436454
0.0539112
0.0633539
0.0727115
0.0822124
0.0918625
0.101551
0.111121
0.120396
0.129202
0.137355
0.144654
0.150881
0.155816
0.159324
0.16157
0.163513
0.16807
0.174156
0.180966
0.188144
0.195555
0.203092
0.210637
0.218018
0.225847
0.234707
0.245316
0.257934
0.272413
0.290322
0.304715
0.317039
0.330113
0.343689
0.357716
0.372092
0.386797
0.401808
0.417126
0.432745
0.44867
0.4649
0.481443
0.498298
0.515474
0.532971
0.550795
0.568948
0.587434
0.606254
0.625411
0.644903
0.664734
0.6849
0.705401
0.726233
0.747395
0.76888
0.790685
0.812801
0.835224
0.857941
0.880945
0.904223
0.927766
0.951556
0.975584
0.999829
1.02428
1.04891
1.07371
1.09865
1.12371
1.14888
1.17412
1.1994
1.22472
1.25002
1.2753
1.30052
1.32566
1.35068
1.37555
1.40025
1.42473
1.44899
1.47297
1.49665
1.51999
1.54295
1.56547
1.58751
1.60899
1.62988
1.65028
1.67021
1.68966
1.70863
1.7271
1.74508
1.76256
1.77952
1.79598
1.81193
1.82738
1.84233
1.85679
1.87079
1.88432
1.89742
1.9101
1.92238
1.93429
1.94585
1.9571
1.96805
1.97876
1.98924
1.99949
2.00954
2.01939
2.02908
2.03863
2.04806
2.05739
2.06663
2.07579
2.08489
2.09393
2.10296
2.11212
2.12113
2.12987
2.13825
2.14623
2.15362
2.16055
2.16664
2.17161
2.17481
2.17648
2.17688
2.17585
2.1729
2.16786
2.16062
2.15107
2.13914
2.12474
2.10778
2.08849
2.06699
2.04302
2.01749
1.98991
1.9603
1.9289
1.89596
1.86176
1.82653
1.79052
1.75356
1.71595
1.6781
1.64037
1.60299
1.56601
1.52929
1.49314
1.45774
1.42318
1.38948
1.35653
1.32432
1.29158
1.26452
1.20012
0.0194407
0.0481214
0.0643536
0.0767458
0.087794
0.0983767
0.10886
0.119368
0.129893
0.140358
0.150659
0.160688
0.170342
0.179534
0.188199
0.196325
0.204004
0.211499
0.219292
0.227954
0.237433
0.247547
0.258161
0.269217
0.280701
0.292626
0.305095
0.318377
0.332712
0.348282
0.364888
0.382335
0.400134
0.417259
0.434183
0.451427
0.469082
0.487157
0.505632
0.524495
0.54374
0.563362
0.583362
0.603742
0.624504
0.645652
0.667189
0.689121
0.71145
0.73418
0.757313
0.780854
0.804803
0.829161
0.853928
0.879104
0.904688
0.930676
0.957066
0.983853
1.01103
1.0386
1.06654
1.09484
1.12351
1.15252
1.18187
1.21153
1.2415
1.27176
1.30228
1.33305
1.36405
1.39526
1.42664
1.45819
1.48986
1.52163
1.55347
1.58535
1.61724
1.6491
1.68091
1.71262
1.7442
1.77561
1.80682
1.83778
1.86846
1.89882
1.92882
1.95842
1.98756
2.01622
2.04436
2.07194
2.09896
2.12541
2.15126
2.17649
2.20109
2.22505
2.24835
2.27097
2.29292
2.31418
2.33475
2.35463
2.37383
2.39236
2.41022
2.42744
2.44403
2.46
2.4754
2.49024
2.50455
2.51838
2.53175
2.54471
2.55728
2.56949
2.58137
2.59292
2.60421
2.61524
2.62605
2.63668
2.64713
2.65743
2.66758
2.67759
2.68745
2.69715
2.70659
2.71566
2.72426
2.73233
2.73967
2.74616
2.75162
2.75554
2.7576
2.75804
2.75688
2.75366
2.74808
2.73995
2.7291
2.71537
2.69866
2.67887
2.65595
2.63003
2.60151
2.57038
2.53686
2.5009
2.46263
2.4223
2.3802
2.33664
2.29191
2.24629
2.19994
2.15313
2.10617
2.05936
2.01295
1.96702
1.92133
1.87637
1.83238
1.78947
1.74771
1.70702
1.66745
1.62862
1.59468
1.53716
0.0288754
0.0641653
0.0834676
0.0978354
0.110318
0.122008
0.133397
0.144709
0.156025
0.167342
0.178621
0.189812
0.200871
0.211772
0.222518
0.233153
0.243775
0.254544
0.265661
0.277298
0.289505
0.302266
0.315558
0.329374
0.343723
0.358634
0.374163
0.390408
0.407445
0.425293
0.443857
0.462991
0.482496
0.502176
0.522079
0.542313
0.562933
0.583964
0.605412
0.627281
0.649573
0.672291
0.695437
0.719016
0.74303
0.767486
0.792388
0.81774
0.843547
0.869813
0.896542
0.923738
0.951402
0.979536
1.00814
1.03722
1.06676
1.09678
1.12726
1.1582
1.18959
1.22144
1.25372
1.28644
1.31958
1.35312
1.38707
1.42139
1.45608
1.49111
1.52647
1.56213
1.59808
1.63428
1.67072
1.70735
1.74416
1.78111
1.81816
1.85529
1.89245
1.92961
1.96673
2.00377
2.04068
2.07742
2.11395
2.15022
2.18619
2.22181
2.25705
2.29184
2.32614
2.35991
2.39312
2.42572
2.45768
2.48897
2.51956
2.54941
2.5785
2.60682
2.63432
2.66101
2.68686
2.71186
2.736
2.75928
2.78169
2.80325
2.82395
2.84381
2.86285
2.88108
2.89852
2.91522
2.93119
2.94647
2.96111
2.97513
2.98858
3.00149
3.01389
3.02581
3.03729
3.04836
3.05908
3.06945
3.07953
3.08931
3.09884
3.10809
3.11707
3.12575
3.13406
3.14191
3.14922
3.15588
3.16171
3.16654
3.17005
3.1719
3.17205
3.17057
3.16708
3.16129
3.15293
3.14175
3.12757
3.11021
3.08956
3.06556
3.03823
3.00769
2.97425
2.93797
2.89898
2.85736
2.81328
2.76701
2.71886
2.66915
2.61819
2.56628
2.51369
2.46071
2.40763
2.35474
2.30228
2.25044
2.19925
2.14894
2.09973
2.05174
2.00511
1.95972
1.91574
1.8733
1.83458
1.78193
0.0379715
0.0789405
0.101105
0.117378
0.13126
0.144025
0.156284
0.168348
0.180373
0.192425
0.204522
0.216663
0.228841
0.241063
0.253351
0.265753
0.278344
0.291217
0.304475
0.318205
0.332458
0.347258
0.362615
0.378533
0.395019
0.412087
0.42976
0.448069
0.467035
0.486657
0.506895
0.527685
0.548947
0.570618
0.592684
0.615158
0.638057
0.661396
0.685183
0.709428
0.734137
0.759316
0.78497
0.811105
0.837728
0.864845
0.892462
0.920584
0.949219
0.978371
1.00805
1.03825
1.06898
1.10024
1.13204
1.16438
1.19725
1.23065
1.26459
1.29906
1.33406
1.36957
1.4056
1.44213
1.47915
1.51666
1.55463
1.59305
1.6319
1.67117
1.71084
1.75088
1.79126
1.83196
1.87295
1.91421
1.95569
1.99736
2.03918
2.08112
2.12314
2.16519
2.20722
2.24919
2.29106
2.33277
2.37427
2.41551
2.45644
2.49701
2.53716
2.57684
2.616
2.65458
2.69253
2.72981
2.76636
2.80215
2.83713
2.87126
2.9045
2.93682
2.96819
2.99858
3.02798
3.05636
3.0837
3.10999
3.13523
3.15941
3.18253
3.2046
3.22562
3.24562
3.26462
3.28263
3.29969
3.31584
3.33111
3.34555
3.35919
3.37207
3.38422
3.3957
3.40654
3.41678
3.42648
3.43566
3.44437
3.45265
3.46051
3.46796
3.47502
3.48167
3.48786
3.49349
3.49854
3.50286
3.50633
3.50862
3.50952
3.50891
3.50676
3.5028
3.49673
3.48826
3.47711
3.46305
3.44587
3.42539
3.40153
3.37424
3.34354
3.30955
3.27245
3.23236
3.18937
3.14363
3.09532
3.04472
2.99215
2.93792
2.88238
2.82584
2.7686
2.71099
2.6533
2.59582
2.53881
2.48248
2.42698
2.37249
2.31921
2.2673
2.2169
2.16809
2.12104
2.07602
2.03402
1.98362
0.0464827
0.0922632
0.117016
0.135069
0.150286
0.164092
0.17719
0.189963
0.202629
0.21531
0.228074
0.240959
0.253989
0.267191
0.280596
0.294249
0.308208
0.322535
0.337295
0.352547
0.368331
0.384677
0.401599
0.419106
0.437202
0.455893
0.475183
0.49508
0.515588
0.5367
0.558399
0.580656
0.603437
0.626715
0.650473
0.674709
0.699425
0.724628
0.750325
0.776523
0.803231
0.830455
0.858204
0.886486
0.915307
0.944678
0.974604
1.00509
1.03616
1.0678
1.10002
1.13284
1.16625
1.20027
1.23489
1.27011
1.30595
1.3424
1.37945
1.41711
1.45537
1.49424
1.53369
1.57372
1.61433
1.6555
1.69722
1.73947
1.78223
1.82548
1.86921
1.91338
1.95798
2.00296
2.04831
2.09398
2.13994
2.18616
2.23258
2.27917
2.32589
2.37267
2.41949
2.46627
2.51297
2.55953
2.6059
2.652
2.6978
2.74322
2.7882
2.83268
2.8766
2.91989
2.96249
3.00435
3.04539
3.08557
3.12483
3.16312
3.20039
3.2366
3.27171
3.30568
3.33848
3.37008
3.40045
3.42958
3.45745
3.48404
3.50935
3.53338
3.55613
3.5776
3.59782
3.6168
3.63458
3.65118
3.66665
3.68102
3.69435
3.70666
3.71801
3.72843
3.73798
3.74672
3.75468
3.76194
3.76852
3.77448
3.77986
3.78469
3.78899
3.79279
3.79603
3.79862
3.80064
3.80188
3.80214
3.80125
3.79921
3.79581
3.79085
3.78408
3.77522
3.76399
3.75011
3.73335
3.71349
3.69038
3.66393
3.63409
3.60086
3.56431
3.52457
3.48172
3.43589
3.3872
3.33587
3.28216
3.22637
3.16885
3.10992
3.04993
2.98919
2.92804
2.86678
2.80573
2.74516
2.6853
2.62635
2.5685
2.51195
2.45688
2.40347
2.35186
2.30226
2.25497
2.21032
2.16038
0.0541926
0.103964
0.130978
0.150625
0.167065
0.181845
0.195737
0.209177
0.22243
0.235664
0.248985
0.262464
0.276153
0.290094
0.304327
0.318897
0.333849
0.349232
0.365093
0.381474
0.398408
0.41592
0.434023
0.452726
0.472034
0.491947
0.512466
0.533589
0.555315
0.577638
0.600548
0.624032
0.648076
0.672665
0.697791
0.72345
0.749642
0.776373
0.803646
0.831471
0.859856
0.888808
0.918338
0.948456
0.97917
1.01049
1.04243
1.07499
1.10819
1.14203
1.17653
1.21169
1.24752
1.28402
1.32121
1.35908
1.39764
1.43689
1.47683
1.51746
1.55879
1.60079
1.64348
1.68684
1.73085
1.77552
1.82082
1.86675
1.91327
1.96037
2.00803
2.05621
2.1049
2.15406
2.20366
2.25366
2.30401
2.35469
2.40563
2.45681
2.50815
2.55962
2.61115
2.66269
2.71418
2.76555
2.81674
2.86768
2.91831
2.96855
3.01833
3.06758
3.11623
3.16421
3.21143
3.25782
3.30333
3.34786
3.39137
3.43378
3.47504
3.51509
3.55388
3.59136
3.62749
3.66224
3.69556
3.72742
3.7578
3.78668
3.81404
3.83986
3.86414
3.88688
3.9081
3.9278
3.94601
3.96277
3.9781
3.99206
4.00467
4.016
4.02608
4.03497
4.04273
4.0494
4.05505
4.05976
4.06359
4.06658
4.06878
4.07027
4.07113
4.07138
4.07096
4.06976
4.06797
4.06542
4.06199
4.05759
4.05211
4.04537
4.03719
4.02732
4.01549
4.00143
3.98487
3.96558
3.94337
3.91807
3.88958
3.85782
3.82277
3.78445
3.74292
3.69826
3.65055
3.59994
3.54662
3.49083
3.43289
3.3731
3.31181
3.24935
3.18606
3.12229
3.05836
2.99457
2.93123
2.86859
2.80689
2.74633
2.68712
2.62948
2.57359
2.51965
2.46789
2.41859
2.37171
2.32133
0.0609423
0.113932
0.14285
0.163866
0.181381
0.19704
0.211662
0.225721
0.239516
0.253245
0.267048
0.28102
0.295234
0.309747
0.324608
0.339861
0.355548
0.371709
0.388382
0.405598
0.423384
0.44176
0.460739
0.480329
0.500533
0.521354
0.542791
0.564841
0.587503
0.610772
0.634643
0.659112
0.684171
0.709816
0.736044
0.762853
0.790248
0.818231
0.846811
0.875995
0.905792
0.936214
0.96727
0.998973
1.03133
1.06436
1.09808
1.13248
1.16759
1.20342
1.23998
1.27728
1.31532
1.35412
1.39368
1.43402
1.47513
1.51702
1.5597
1.60315
1.64739
1.69241
1.7382
1.78475
1.83207
1.88012
1.92891
1.97841
2.0286
2.07946
2.13097
2.1831
2.23582
2.28908
2.34287
2.39713
2.45182
2.5069
2.56232
2.61802
2.67396
2.73006
2.78627
2.84253
2.89877
2.95491
3.01088
3.06662
3.12204
3.17707
3.23162
3.28561
3.33896
3.39158
3.44339
3.49429
3.54422
3.59308
3.64079
3.68729
3.73249
3.77634
3.81876
3.85971
3.89912
3.93694
3.97314
4.00765
4.04046
4.07152
4.10081
4.12831
4.15399
4.17785
4.19989
4.22012
4.23856
4.25523
4.27017
4.28342
4.29503
4.30503
4.31349
4.32046
4.326
4.33016
4.33303
4.33469
4.33524
4.3347
4.33311
4.33066
4.32742
4.32342
4.31867
4.31319
4.30702
4.30014
4.29249
4.28399
4.27455
4.26403
4.25224
4.23898
4.224
4.20703
4.18785
4.16621
4.14192
4.1148
4.08473
4.05161
4.01538
3.97599
3.93347
3.88784
3.83916
3.78756
3.7332
3.67631
3.61717
3.55608
3.49337
3.42936
3.36441
3.29886
3.23304
3.16729
3.10189
3.03715
2.97331
2.91061
2.84928
2.78955
2.73163
2.67575
2.62213
2.57103
2.52221
2.47097
0.0666281
0.122126
0.152586
0.174733
0.19316
0.209582
0.224853
0.239473
0.253761
0.267938
0.282164
0.296554
0.311195
0.326157
0.341495
0.357256
0.373481
0.390206
0.407463
0.425278
0.443675
0.462669
0.482273
0.502495
0.52334
0.544812
0.566911
0.589638
0.612991
0.63697
0.661574
0.686802
0.712653
0.739128
0.766229
0.793959
0.822324
0.851331
0.880988
0.911306
0.942296
0.973969
1.00634
1.03942
1.07323
1.10777
1.14307
1.17913
1.21598
1.25363
1.29208
1.33135
1.37146
1.41241
1.45422
1.49689
1.54043
1.58485
1.63014
1.67632
1.72338
1.77131
1.82012
1.86979
1.92033
1.9717
2.0239
2.07692
2.13072
2.18529
2.24059
2.29661
2.35329
2.41062
2.46854
2.52701
2.58599
2.64542
2.70526
2.76544
2.8259
2.88658
2.94741
3.00832
3.06924
3.13008
3.19078
3.25124
3.31138
3.37112
3.43036
3.48901
3.54698
3.60417
3.66049
3.71583
3.7701
3.82321
3.87506
3.92556
3.97464
4.0222
4.06818
4.11251
4.15511
4.19593
4.23491
4.27199
4.30713
4.34028
4.3714
4.40045
4.42741
4.45225
4.47497
4.49557
4.51406
4.53046
4.54481
4.55713
4.56748
4.57591
4.58246
4.58719
4.59019
4.59148
4.59116
4.58931
4.58608
4.58152
4.57574
4.56887
4.561
4.55223
4.54261
4.53223
4.52115
4.50939
4.49696
4.48382
4.46992
4.45517
4.43941
4.42247
4.40414
4.38419
4.36238
4.3385
4.31234
4.28371
4.25247
4.21848
4.18162
4.14182
4.09902
4.05321
4.00441
3.9527
3.89821
3.84115
3.78175
3.72029
3.65707
3.59241
3.52665
3.46014
3.39322
3.32623
3.25947
3.19327
3.12789
3.06359
3.00064
2.93927
2.87973
2.82224
2.76705
2.71436
2.66382
2.61156
0.0712024
0.128575
0.160232
0.183278
0.202446
0.219506
0.235333
0.250441
0.265166
0.279739
0.294333
0.309074
0.324061
0.339371
0.355065
0.371194
0.387798
0.404912
0.422567
0.440786
0.459591
0.478998
0.499018
0.51966
0.540933
0.562842
0.585389
0.60858
0.632416
0.6569
0.682035
0.707823
0.734269
0.761377
0.789155
0.81761
0.84675
0.876587
0.907131
0.938396
0.970395
1.00314
1.03666
1.07095
1.10604
1.14195
1.17868
1.21627
1.25472
1.29405
1.33428
1.37542
1.41749
1.4605
1.50445
1.54938
1.59527
1.64214
1.68999
1.73882
1.78864
1.83945
1.89123
1.94398
1.99768
2.05234
2.10792
2.16441
2.22178
2.28001
2.33907
2.39893
2.45954
2.52087
2.58287
2.6455
2.70869
2.77241
2.83658
2.90115
2.96605
3.03121
3.09655
3.162
3.22749
3.29291
3.35819
3.42324
3.48797
3.55228
3.61606
3.67923
3.74167
3.80328
3.86395
3.92357
3.98204
4.03924
4.09508
4.14945
4.20225
4.25339
4.30279
4.35036
4.39602
4.4397
4.48133
4.52085
4.55819
4.5933
4.62611
4.65659
4.68469
4.71038
4.73364
4.75446
4.77285
4.78881
4.80239
4.8136
4.8225
4.82914
4.83357
4.8358
4.83595
4.83406
4.83024
4.8246
4.81726
4.80832
4.79791
4.78617
4.77323
4.75923
4.74427
4.72847
4.71196
4.6948
4.67707
4.65879
4.63996
4.62054
4.60045
4.57954
4.55764
4.53457
4.5101
4.48403
4.45613
4.42623
4.39414
4.35969
4.32272
4.28308
4.24067
4.19541
4.14728
4.09631
4.04259
3.98626
3.92752
3.86661
3.80379
3.73937
3.67367
3.60703
3.5398
3.4723
3.40488
3.33786
3.27154
3.2062
3.14211
3.07955
3.01877
2.96002
2.90353
2.84947
2.79746
2.74419
0.0746715
0.133362
0.165902
0.189629
0.209371
0.226939
0.243218
0.258734
0.273825
0.288732
0.303631
0.318656
0.333912
0.349481
0.365428
0.381805
0.398655
0.416014
0.433911
0.452372
0.471417
0.491062
0.511322
0.532207
0.553729
0.575895
0.598714
0.622191
0.646335
0.67115
0.696645
0.722825
0.749699
0.777277
0.805569
0.834587
0.864345
0.894857
0.926139
0.958206
0.991075
1.02476
1.05929
1.09468
1.13094
1.16811
1.20618
1.2452
1.28517
1.32612
1.36806
1.41101
1.45498
1.5
1.54608
1.59322
1.64143
1.69074
1.74113
1.79261
1.84518
1.89884
1.95358
2.0094
2.06627
2.12419
2.18314
2.24308
2.30401
2.36587
2.42865
2.49231
2.55679
2.62206
2.68808
2.75477
2.82209
2.88999
2.95838
3.02721
3.0964
3.16588
3.23557
3.30538
3.37524
3.44504
3.5147
3.58412
3.6532
3.72183
3.78992
3.85735
3.92401
3.98978
4.05455
4.11819
4.1806
4.24165
4.30123
4.35922
4.41551
4.47
4.52258
4.57317
4.62168
4.66801
4.7121
4.75385
4.79321
4.83009
4.86442
4.89616
4.92524
4.95161
4.97524
4.99612
5.01424
5.0296
5.04223
5.05217
5.05945
5.06411
5.06621
5.06577
5.06287
5.05758
5.05003
5.04033
5.0286
5.01498
4.99961
4.98266
4.96428
4.94464
4.92391
4.90226
4.87986
4.85684
4.83335
4.80947
4.78528
4.7608
4.736
4.71082
4.68512
4.65876
4.63153
4.60325
4.5737
4.54269
4.51001
4.47546
4.43881
4.39986
4.35845
4.31443
4.26772
4.2183
4.16621
4.11151
4.05435
3.99491
3.93342
3.87015
3.80539
3.73948
3.67273
3.60551
3.53815
3.47098
3.40433
3.3385
3.27379
3.2105
3.14888
3.08921
3.03172
2.97656
2.92332
2.86915
0.0770672
0.136608
0.169755
0.193962
0.214122
0.232066
0.248689
0.264518
0.279895
0.295061
0.310194
0.325432
0.340879
0.356621
0.372726
0.389248
0.406232
0.423714
0.441726
0.460293
0.479437
0.499178
0.519532
0.540514
0.562138
0.584416
0.607361
0.630983
0.655295
0.680306
0.706028
0.732471
0.759646
0.787567
0.816252
0.845716
0.87598
0.907061
0.938979
0.971755
1.00541
1.03996
1.07544
1.11186
1.14925
1.18762
1.22701
1.26743
1.30891
1.35147
1.39512
1.43989
1.48579
1.53285
1.58106
1.63046
1.68104
1.73281
1.78579
1.83996
1.89532
1.95188
2.00963
2.06854
2.12861
2.18982
2.25213
2.31554
2.38
2.44548
2.51194
2.57933
2.64762
2.71675
2.78667
2.85731
2.92862
3.00052
3.07296
3.14585
3.21912
3.29268
3.36646
3.44036
3.51429
3.58816
3.66187
3.73532
3.8084
3.881
3.95301
4.02433
4.09482
4.16437
4.23284
4.30013
4.36609
4.43061
4.49355
4.55479
4.61421
4.67169
4.72713
4.78041
4.83143
4.88011
4.92635
4.97006
5.01115
5.04955
5.08517
5.11792
5.14775
5.17458
5.19839
5.21912
5.23678
5.25135
5.26287
5.27135
5.27684
5.27938
5.27899
5.2757
5.26956
5.2607
5.24923
5.23527
5.21894
5.2004
5.17982
5.15737
5.13326
5.10768
5.08085
5.053
5.02433
4.99508
4.96543
4.93556
4.90562
4.87571
4.84588
4.81612
4.78637
4.75653
4.72642
4.69588
4.66471
4.63271
4.59965
4.56528
4.52935
4.49157
4.45172
4.40958
4.36502
4.31794
4.26832
4.21615
4.16149
4.10446
4.04524
3.98405
3.92114
3.85683
3.79142
3.72527
3.65871
3.5921
3.52577
3.46005
3.39527
3.33172
3.2697
3.20949
3.15132
3.09534
3.04115
2.98628
0.0785276
0.138511
0.171986
0.196486
0.216911
0.235103
0.251959
0.268002
0.283574
0.298915
0.314204
0.329576
0.345137
0.360973
0.377151
0.393726
0.410745
0.428246
0.446263
0.464825
0.483956
0.503679
0.524014
0.544982
0.566599
0.588884
0.611854
0.635524
0.65991
0.685029
0.710893
0.737518
0.764919
0.793113
0.822123
0.851974
0.882692
0.914301
0.946826
0.980291
1.01472
1.05014
1.08657
1.12405
1.16259
1.20223
1.24299
1.28488
1.32795
1.3722
1.41766
1.46435
1.51229
1.56149
1.61198
1.66374
1.71681
1.77118
1.82685
1.88382
1.94209
2.00164
2.06247
2.12456
2.18789
2.25242
2.31815
2.38502
2.453
2.52205
2.59214
2.6632
2.73518
2.80803
2.88169
2.95609
3.03116
3.10684
3.18303
3.25968
3.33669
3.41398
3.49147
3.56905
3.64663
3.72411
3.8014
3.87839
3.95496
4.03101
4.10642
4.18107
4.25485
4.32762
4.39925
4.46962
4.5386
4.60604
4.67181
4.73578
4.79782
4.8578
4.9156
4.9711
5.0242
5.07479
5.12277
5.16805
5.21051
5.25007
5.28662
5.32008
5.35036
5.37737
5.40106
5.4214
5.43835
5.45191
5.46209
5.46892
5.47245
5.47269
5.46968
5.46334
5.45382
5.44124
5.42568
5.40729
5.3862
5.36257
5.33659
5.30847
5.27841
5.24668
5.21351
5.17919
5.144
5.10821
5.07211
5.03593
4.99993
4.96429
4.92913
4.89453
4.8605
4.82699
4.79387
4.76102
4.72824
4.69534
4.66208
4.62818
4.59332
4.55716
4.5194
4.47976
4.43802
4.39407
4.34776
4.299
4.24776
4.19409
4.1381
4.07994
4.01983
3.95803
3.89484
3.8306
3.76565
3.70034
3.63502
3.57004
3.50575
3.44247
3.38051
3.32018
3.26169
3.20522
3.15038
3.09508
0.0789405
0.139038
0.172712
0.197378
0.217949
0.236275
0.253255
0.269413
0.285089
0.30052
0.315881
0.331304
0.346896
0.362741
0.378908
0.395454
0.412426
0.429864
0.447805
0.46628
0.48532
0.504951
0.525199
0.546087
0.567639
0.58988
0.612829
0.636509
0.66094
0.686142
0.712134
0.738938
0.76657
0.795049
0.824386
0.854644
0.885856
0.918049
0.951252
0.985492
1.0208
1.0572
1.09472
1.1334
1.17326
1.21433
1.25664
1.30021
1.34506
1.39123
1.43873
1.48757
1.53778
1.58937
1.64235
1.69672
1.7525
1.80968
1.86825
1.92822
1.98956
2.05227
2.11632
2.18169
2.24835
2.31628
2.38542
2.45575
2.52722
2.59977
2.67336
2.74793
2.82341
2.89976
2.97689
3.05473
3.13322
3.21228
3.29182
3.37177
3.45203
3.53252
3.61314
3.69381
3.77442
3.85488
3.93508
4.01491
4.09427
4.17304
4.25111
4.32836
4.40467
4.47991
4.55395
4.62666
4.6979
4.76754
4.83543
4.90143
4.96541
5.02722
5.08675
5.14386
5.19844
5.25037
5.29955
5.34587
5.38921
5.42946
5.46652
5.50026
5.53058
5.5574
5.58063
5.60023
5.61616
5.62842
5.637
5.64194
5.64327
5.64111
5.6352
5.62567
5.61262
5.59616
5.5764
5.55345
5.52747
5.49864
5.46715
5.43322
5.39711
5.35909
5.31943
5.2785
5.23661
5.19412
5.15137
5.10867
5.06614
5.02422
4.9832
4.94327
4.90452
4.86698
4.83063
4.79535
4.76101
4.72741
4.6943
4.66133
4.62812
4.59426
4.55936
4.52309
4.48518
4.44526
4.40311
4.35864
4.31174
4.26239
4.21061
4.15647
4.10012
4.04179
3.98175
3.9203
3.85778
3.79456
3.73098
3.66742
3.60424
3.54179
3.4804
3.42038
3.36198
3.30538
3.25025
3.19481
0.0787383
0.138697
0.172325
0.196978
0.217547
0.235876
0.25286
0.26902
0.284692
0.300112
0.315453
0.330847
0.346399
0.36219
0.378292
0.394759
0.411642
0.428983
0.44682
0.465189
0.484123
0.503655
0.523812
0.544624
0.566121
0.588331
0.611281
0.635
0.659513
0.68485
0.711035
0.738094
0.766053
0.794946
0.824759
0.855595
0.887488
0.920475
0.95459
0.989861
1.02632
1.06399
1.10292
1.14312
1.18465
1.22752
1.27176
1.3174
1.36445
1.41294
1.46288
1.51429
1.56717
1.62154
1.6774
1.73475
1.79358
1.85389
1.91566
1.97888
2.04353
2.10958
2.177
2.24577
2.31583
2.38715
2.45968
2.53338
2.60818
2.68404
2.76088
2.83866
2.91729
2.99672
3.07686
3.15765
3.23899
3.32082
3.40306
3.4856
3.56838
3.65129
3.73425
3.81716
3.89993
3.98246
4.06464
4.14637
4.22755
4.30807
4.38782
4.46668
4.54453
4.62125
4.69671
4.77078
4.84333
4.91422
4.98331
5.05044
5.11549
5.17829
5.23873
5.29666
5.35197
5.40453
5.45422
5.50093
5.54454
5.5849
5.6219
5.6554
5.68528
5.71142
5.73374
5.75219
5.76671
5.7773
5.78395
5.7867
5.7857
5.78079
5.77179
5.75889
5.74215
5.72167
5.69757
5.66997
5.63902
5.6049
5.56784
5.52806
5.48585
5.4415
5.39514
5.34725
5.29826
5.24861
5.19873
5.14908
5.1002
5.05249
5.00609
4.96127
4.91819
4.87697
4.83763
4.80013
4.76438
4.7302
4.69733
4.6654
4.63395
4.60248
4.57058
4.53783
4.50399
4.46883
4.43198
4.39304
4.35175
4.30785
4.26127
4.21214
4.16055
4.10668
4.05073
3.99299
3.93379
3.87348
3.81243
3.751
3.68958
3.62856
3.56828
3.50907
3.45121
3.39489
3.33984
3.28461
0.0780694
0.137655
0.170979
0.195465
0.215903
0.234115
0.250992
0.267049
0.282621
0.29794
0.313177
0.328463
0.343898
0.359568
0.37554
0.391874
0.40862
0.425823
0.443527
0.461774
0.480602
0.50005
0.520156
0.540958
0.562494
0.584798
0.607907
0.63186
0.656702
0.682481
0.709198
0.736884
0.765575
0.795298
0.826047
0.857937
0.89102
0.925336
0.96092
0.997807
1.03603
1.07562
1.11661
1.15903
1.20293
1.24833
1.29526
1.34373
1.39374
1.44531
1.49844
1.55313
1.60939
1.66721
1.72658
1.78748
1.84991
1.91383
1.97923
2.04607
2.11432
2.18394
2.25488
2.32711
2.40057
2.47521
2.55097
2.62779
2.70562
2.78438
2.86402
2.94445
3.02562
3.10744
3.18985
3.27276
3.35609
3.43977
3.52371
3.60783
3.69204
3.77626
3.8604
3.94438
4.02809
4.11145
4.19437
4.27674
4.35846
4.43944
4.51958
4.59875
4.67686
4.75378
4.8294
4.9036
4.97624
5.04719
5.11631
5.18345
5.24847
5.3112
5.37153
5.42931
5.48441
5.5367
5.58605
5.63234
5.67543
5.71517
5.75141
5.78399
5.81278
5.83762
5.85845
5.87518
5.88777
5.8962
5.90046
5.90069
5.89702
5.88891
5.87654
5.85997
5.83927
5.81453
5.78576
5.75312
5.71681
5.67701
5.63396
5.58793
5.5392
5.48814
5.43535
5.38105
5.32562
5.26953
5.2133
5.15745
5.10256
5.04878
4.99668
4.94665
4.89897
4.85386
4.81143
4.77171
4.73467
4.70018
4.66798
4.63762
4.60856
4.58023
4.55211
4.52378
4.49494
4.46543
4.43421
4.40113
4.36586
4.32824
4.28817
4.2454
4.19986
4.15147
4.1006
4.04751
3.99254
3.93601
3.87827
3.81972
3.76075
3.70177
3.64316
3.58528
3.52841
3.47279
3.41821
3.36354
0.0765741
0.135457
0.168377
0.192573
0.212763
0.230751
0.247424
0.263296
0.278698
0.293863
0.308958
0.324112
0.339427
0.35499
0.370871
0.387135
0.403836
0.421027
0.43876
0.457082
0.47604
0.495681
0.516053
0.53721
0.559215
0.582085
0.60586
0.63059
0.656317
0.683061
0.71082
0.739687
0.769726
0.801003
0.833576
0.867491
0.902794
0.939525
0.977717
1.0174
1.05861
1.10137
1.14569
1.19161
1.23914
1.2883
1.33909
1.3915
1.44554
1.50119
1.55843
1.61727
1.67766
1.7396
1.80304
1.86797
1.93434
2.00211
2.07124
2.14169
2.21341
2.28634
2.36044
2.43565
2.5119
2.58915
2.66732
2.74636
2.8262
2.90677
2.98801
3.06984
3.15221
3.23502
3.31823
3.40174
3.4855
3.56942
3.65342
3.73745
3.82141
3.90522
3.98882
4.07212
4.15503
4.23749
4.3194
4.40068
4.48123
4.56097
4.63981
4.71764
4.79438
4.8699
4.9441
5.01688
5.08811
5.15768
5.22543
5.29122
5.35491
5.41633
5.47536
5.53185
5.58567
5.63667
5.68473