/*--------------------------------*- C++ -*----------------------------------*\
  =========                 |
  \\      /  F ield         | OpenFOAM: The Open Source CFD Toolbox
   \\    /   O peration     | Website:  https://openfoam.org
    \\  /    A nd           | Version:  9
     \\/     M anipulation  |
\*---------------------------------------------------------------------------*/
FoamFile
{
    format      ascii;
    class       volScalarField;
    location    "175";
    object      p;
}
// * * * * * * * * * * * * * * * * * * * * * * * * * * * * * * * * * * * * * //

dimensions      [0 2 -2 0 0 0 0];

internalField   nonuniform List<scalar> 
12225
(
-0.735253
-2.9232
-4.02305
-4.34355
-4.52462
-4.6934
-4.82468
-4.91945
-4.99563
-5.06246
-5.12177
-5.17574
-5.22431
-5.26897
-5.30971
-5.34123
-5.37963
-5.33424
-3.89764
-4.66636
-4.82679
-4.73438
-4.72165
-4.78927
-4.86653
-4.93191
-4.9911
-5.04799
-5.10193
-5.15195
-5.19868
-5.24211
-5.28311
-5.31717
-5.35681
-5.37626
-4.29828
-4.284
-4.41132
-4.48954
-4.58424
-4.70418
-4.81111
-4.89561
-4.967
-5.03183
-5.09129
-5.14536
-5.19543
-5.24165
-5.28548
-5.32415
-5.36878
-5.4063
-4.1769
-4.1202
-4.36172
-4.5199
-4.62144
-4.72741
-4.8248
-4.90451
-4.97283
-5.03542
-5.09336
-5.1466
-5.19625
-5.24255
-5.28692
-5.32843
-5.3743
-5.42098
-4.16698
-4.1913
-4.41923
-4.56063
-4.64405
-4.73586
-4.82679
-4.90417
-4.97131
-5.03305
-5.09058
-5.14386
-5.19381
-5.24087
-5.28636
-5.33042
-5.37763
-5.42835
-4.2251
-4.27383
-4.44796
-4.57169
-4.65301
-4.74059
-4.82835
-4.90452
-4.9711
-5.03235
-5.0896
-5.14292
-5.19309
-5.24075
-5.28707
-5.33269
-5.3806
-5.43205
-4.28543
-4.3295
-4.46454
-4.58069
-4.66423
-4.74813
-4.83177
-4.90608
-4.9718
-5.03239
-5.08918
-5.14238
-5.19266
-5.24071
-5.28756
-5.33402
-5.38203
-5.43263
-4.33893
-4.37645
-4.48628
-4.5944
-4.6772
-4.75657
-4.83571
-4.90789
-4.97259
-5.03243
-5.08869
-5.14169
-5.19198
-5.24025
-5.28736
-5.33411
-5.3817
-5.43075
-4.38862
-4.42168
-4.51247
-4.61027
-4.69015
-4.7653
-4.84021
-4.91005
-4.97354
-5.03251
-5.08813
-5.1408
-5.19095
-5.23921
-5.2863
-5.33285
-5.37963
-5.42685
-4.43565
-4.46485
-4.54025
-4.62731
-4.70333
-4.77467
-4.84554
-4.91278
-4.97482
-5.03274
-5.08758
-5.13974
-5.18956
-5.23758
-5.28435
-5.33035
-5.37603
-5.42134
-4.47996
-4.5054
-4.56849
-4.64552
-4.71703
-4.78466
-4.85167
-4.91613
-4.97647
-5.0332
-5.08711
-5.13857
-5.18787
-5.23541
-5.28159
-5.32676
-5.37117
-5.41461
-4.51797
-4.54028
-4.59438
-4.66307
-4.73003
-4.79424
-4.85788
-4.91972
-4.97834
-5.03383
-5.08675
-5.13742
-5.18606
-5.23296
-5.27842
-5.32266
-5.36582
-5.40764
-4.55309
-4.57277
-4.6195
-4.68076
-4.74312
-4.80396
-4.86439
-4.92364
-4.98045
-5.03461
-5.08645
-5.13621
-5.18406
-5.2302
-5.27481
-5.31802
-5.35992
-5.40023
-4.58988
-4.60704
-4.64698
-4.70089
-4.75809
-4.81512
-4.87211
-4.92846
-4.98311
-5.03564
-5.08613
-5.13474
-5.18154
-5.22665
-5.27017
-5.31214
-5.3526
-5.39132
-4.62711
-4.64187
-4.6758
-4.72281
-4.77459
-4.82748
-4.88083
-4.93406
-4.98625
-5.03684
-5.0857
-5.13287
-5.17836
-5.22217
-5.26435
-5.30488
-5.34378
-5.38085
-4.66281
-4.67542
-4.70431
-4.7452
-4.7917
-4.84035
-4.89004
-4.94005
-4.98957
-5.03796
-5.08495
-5.13043
-5.17434
-5.21662
-5.25725
-5.2962
-5.33346
-5.36889
-4.69408
-4.70495
-4.72988
-4.76579
-4.80764
-4.85234
-4.89858
-4.94552
-4.99237
-5.03847
-5.08344
-5.12707
-5.16923
-5.20983
-5.2488
-5.2861
-5.3217
-5.35554
-4.71656
-4.72622
-4.74847
-4.78093
-4.81939
-4.86104
-4.90451
-4.94892
-4.99345
-5.03746
-5.08052
-5.12235
-5.16278
-5.20171
-5.23904
-5.27473
-5.30877
-5.34111
-4.72337
-4.73253
-4.75376
-4.78493
-4.82205
-4.86237
-4.90447
-4.94748
-4.99063
-5.03327
-5.07494
-5.11537
-5.15441
-5.19194
-5.22788
-5.26221
-5.29492
-5.32602
-4.70726
-4.71704
-4.73966
-4.77277
-4.81181
-4.85355
-4.89657
-4.94016
-4.98361
-5.02627
-5.06773
-5.10777
-5.14627
-5.18317
-5.2184
-5.25197
-5.28389
-5.31422
-4.68043
-4.69123
-4.71653
-4.75358
-4.7964
-4.84096
-4.8861
-4.9314
-4.97611
-5.01954
-5.06141
-5.10161
-5.1401
-5.17683
-5.2118
-5.24504
-5.27659
-5.30653
-4.64523
-4.65706
-4.68644
-4.73006
-4.77837
-4.82641
-4.87428
-4.92206
-4.96868
-5.01334
-5.05595
-5.09659
-5.1353
-5.17207
-5.20696
-5.24003
-5.27136
-5.30105
-4.6047
-4.61661
-4.65109
-4.70439
-4.75998
-4.81198
-4.86292
-4.91342
-4.962
-5.00794
-5.05144
-5.0927
-5.13177
-5.16871
-5.20362
-5.23664
-5.26787
-5.29744
-4.56102
-4.572
-4.61379
-4.67825
-4.74047
-4.79719
-4.85286
-4.90678
-4.9571
-5.00398
-5.04816
-5.08991
-5.12924
-5.16626
-5.20116
-5.23411
-5.26523
-5.29466
-4.51414
-4.51961
-4.58228
-4.66052
-4.7225
-4.7808
-4.84199
-4.9004
-4.95298
-5.00109
-5.04617
-5.08849
-5.12809
-5.16518
-5.20004
-5.2329
-5.26393
-5.2933
-4.47089
-4.43446
-4.54401
-4.65502
-4.71731
-4.77264
-4.8349
-4.89469
-4.94797
-4.99675
-5.04252
-5.08538
-5.1253
-5.16258
-5.19753
-5.23044
-5.26148
-5.29085
-4.485
-4.32601
-4.45497
-4.60909
-4.69925
-4.77066
-4.83964
-4.9006
-4.95346
-5.00179
-5.04713
-5.08945
-5.12878
-5.16549
-5.1999
-5.2323
-5.26292
-5.29201
-4.60772
-4.42774
-4.44197
-4.51416
-4.60258
-4.70185
-4.79259
-4.86642
-4.92817
-4.98337
-5.03374
-5.07956
-5.12141
-5.15994
-5.19566
-5.22902
-5.26047
-5.29062
-4.31504
-4.90663
-4.99551
-4.8713
-4.81701
-4.84422
-4.89125
-4.93454
-4.97615
-5.01839
-5.05994
-5.09932
-5.13633
-5.17109
-5.20368
-5.23425
-5.26301
-5.29175
-1.32679
-3.08957
-4.09429
-4.39347
-4.54269
-4.68636
-4.80044
-4.88145
-4.94572
-5.00264
-5.05395
-5.10004
-5.14176
-5.18003
-5.21535
-5.24751
-5.27637
-5.30017
-6.23004
-6.23001
-6.23056
-6.23199
-6.23407
-6.2367
-6.23982
-6.24339
-6.2474
-6.25185
-6.25674
-6.26213
-6.26807
-6.27473
-6.28232
-6.29088
-6.30051
-6.31126
-6.32289
-6.33519
-6.34829
-6.36243
-6.37765
-6.39382
-6.4112
-6.43098
-6.45374
-6.47708
-6.49942
-6.52005
-6.53816
-6.55494
-6.57135
-6.58988
-6.61173
-6.63504
-6.65947
-6.68466
-6.71045
-6.73669
-6.76327
-6.7901
-6.81709
-6.84416
-6.87123
-6.89823
-6.92509
-6.95173
-6.97805
-7.00399
-7.02945
-7.05435
-7.07857
-7.10203
-7.1246
-7.14619
-7.16665
-7.18588
-7.20373
-7.22006
-7.23474
-7.24761
-7.2585
-7.26728
-7.27376
-7.27779
-7.27918
-7.27777
-7.27336
-7.26581
-7.2549
-7.24048
-7.22235
-7.20036
-7.17431
-7.14409
-7.10947
-7.07034
-7.02651
-6.9779
-6.9243
-6.86565
-6.80176
-6.73259
-6.65801
-6.57801
-6.49249
-6.40143
-6.30473
-6.20238
-6.09443
-5.98089
-5.86172
-5.73691
-5.6065
-5.47052
-5.32901
-5.18204
-5.02969
-4.87204
-4.70908
-4.5408
-4.36733
-4.18875
-4.00509
-3.81639
-3.62264
-3.42389
-3.2201
-3.0113
-2.79742
-2.57846
-2.35433
-2.12497
-1.89026
-1.65011
-1.40428
-1.15261
-0.89486
-0.63092
-0.360549
-0.0834956
0.200658
0.492248
0.791692
1.09925
1.41533
1.74017
2.07416
2.41755
2.77068
3.13374
3.50694
3.89033
4.28393
4.68758
5.10099
5.52367
5.95492
6.39386
6.83943
7.29034
7.74514
8.20215
8.65951
9.11515
9.56692
10.0126
10.4499
10.8768
11.291
11.6909
12.0749
12.4416
12.7903
13.1202
13.4306
13.7206
13.9899
14.2385
14.4665
14.6744
14.8629
15.0327
15.1846
15.3197
15.4391
15.5437
15.6347
15.7134
15.7807
15.838
15.8866
15.9282
15.9646
15.9986
16.0355
16.0836
16.1701
16.2921
-6.22718
-6.22781
-6.22872
-6.22981
-6.23087
-6.23204
-6.2336
-6.23569
-6.23835
-6.24162
-6.24549
-6.24995
-6.25504
-6.26082
-6.26729
-6.27445
-6.28243
-6.29113
-6.3005
-6.31089
-6.3225
-6.33511
-6.34884
-6.36349
-6.37895
-6.3943
-6.40912
-6.42374
-6.43967
-6.45772
-6.47899
-6.50343
-6.53073
-6.55868
-6.58448
-6.60979
-6.63515
-6.66077
-6.68669
-6.71289
-6.73934
-6.76598
-6.79275
-6.81958
-6.84641
-6.87318
-6.8998
-6.92622
-6.95235
-6.97811
-7.00342
-7.02819
-7.05231
-7.07571
-7.09825
-7.11984
-7.14035
-7.15966
-7.17763
-7.19413
-7.20902
-7.22213
-7.23333
-7.24245
-7.24932
-7.25378
-7.25566
-7.25478
-7.25095
-7.24402
-7.23378
-7.22008
-7.20272
-7.18154
-7.15635
-7.12701
-7.09332
-7.05515
-7.01232
-6.96473
-6.9122
-6.85462
-6.79185
-6.72382
-6.65039
-6.57153
-6.48716
-6.39724
-6.30167
-6.20049
-6.0937
-5.98131
-5.8633
-5.73964
-5.61033
-5.47539
-5.33483
-5.18874
-5.0372
-4.88027
-4.71809
-4.55073
-4.37827
-4.20069
-4.01806
-3.83036
-3.63764
-3.4399
-3.23716
-3.0294
-2.81662
-2.59876
-2.37579
-2.14761
-1.91417
-1.67532
-1.43091
-1.18072
-0.924599
-0.662372
-0.393855
-0.118753
0.163285
0.452638
0.749642
1.05462
1.36789
1.68977
2.02059
2.36064
2.71022
3.06956
3.43889
3.81829
4.20779
4.60732
5.01663
5.43526
5.86258
6.29775
6.7398
7.18749
7.63943
8.09397
8.54929
9.00335
9.45405
9.89913
10.3364
10.7636
11.1788
11.58
11.9657
12.3343
12.6846
13.0162
13.3284
13.6206
13.8926
14.1442
14.3755
14.587
14.7792
14.9529
15.1087
15.2478
15.3711
15.4796
15.5745
15.6569
15.7279
15.7888
15.841
15.886
15.9259
15.9634
16.0036
16.0522
16.1331
16.2363
-6.21998
-6.22207
-6.22494
-6.22719
-6.22864
-6.2298
-6.23112
-6.23283
-6.23506
-6.23789
-6.24135
-6.24547
-6.2503
-6.2559
-6.26225
-6.26934
-6.27712
-6.28555
-6.29466
-6.30464
-6.31568
-6.32779
-6.34104
-6.35539
-6.3706
-6.38612
-6.40148
-6.41688
-6.43279
-6.44987
-6.46895
-6.49051
-6.51432
-6.53941
-6.5645
-6.58959
-6.61478
-6.64014
-6.6657
-6.69147
-6.71743
-6.74354
-6.76977
-6.79607
-6.82236
-6.8486
-6.87472
-6.90066
-6.92633
-6.95166
-6.97657
-7.00098
-7.02478
-7.04788
-7.07018
-7.09156
-7.1119
-7.13109
-7.14899
-7.16546
-7.18036
-7.19355
-7.20488
-7.21417
-7.22128
-7.22603
-7.22826
-7.22778
-7.22442
-7.21801
-7.20836
-7.1953
-7.17864
-7.15821
-7.13385
-7.10537
-7.07261
-7.03541
-6.99362
-6.94709
-6.89569
-6.83927
-6.77772
-6.71094
-6.63881
-6.56126
-6.47822
-6.38963
-6.29541
-6.19557
-6.09012
-5.97905
-5.86234
-5.73999
-5.61202
-5.47845
-5.33932
-5.19471
-5.04466
-4.88925
-4.72854
-4.56263
-4.3916
-4.21546
-4.03427
-3.84803
-3.6568
-3.46057
-3.25938
-3.0532
-2.84205
-2.62587
-2.40464
-2.17827
-1.94673
-1.70984
-1.46752
-1.21953
-0.965754
-0.706004
-0.440121
-0.167783
0.111306
0.397541
0.691196
0.99263
1.30211
1.61999
1.94654
2.2821
2.62692
2.98127
3.34535
3.71928
4.10311
4.49679
4.9001
5.31269
5.73396
6.1632
6.59946
7.04163
7.48835
7.9381
8.38908
8.83938
9.28693
9.72962
10.1653
10.5918
11.0073
11.4099
11.7978
12.1696
12.5242
12.8607
13.1782
13.4762
13.7541
14.0118
14.2495
14.4673
14.6659
14.8458
15.0079
15.1531
15.2823
15.3965
15.4969
15.5845
15.6606
15.7264
15.7832
15.8327
15.8769
15.9184
15.962
16.0109
16.0842
16.1582
-6.20913
-6.21283
-6.21838
-6.22263
-6.22536
-6.22735
-6.22913
-6.23103
-6.23324
-6.23592
-6.23915
-6.24301
-6.24756
-6.25286
-6.25894
-6.2658
-6.27341
-6.28171
-6.2907
-6.30043
-6.31101
-6.32251
-6.33499
-6.34849
-6.36293
-6.37817
-6.39402
-6.41047
-6.42761
-6.44567
-6.46496
-6.48572
-6.50788
-6.53113
-6.555
-6.57927
-6.60383
-6.62866
-6.65372
-6.679
-6.70447
-6.73011
-6.75586
-6.78168
-6.80752
-6.83333
-6.85904
-6.88459
-6.90991
-6.93492
-6.95954
-6.98368
-7.00726
-7.03018
-7.05232
-7.07359
-7.09387
-7.11302
-7.13092
-7.14745
-7.16244
-7.17576
-7.18726
-7.19677
-7.20413
-7.20918
-7.21175
-7.21165
-7.20872
-7.20278
-7.19364
-7.18112
-7.16505
-7.14526
-7.12155
-7.09377
-7.06174
-7.02531
-6.98432
-6.93861
-6.88805
-6.83251
-6.77187
-6.70601
-6.63483
-6.55824
-6.47618
-6.38858
-6.29535
-6.19651
-6.09204
-5.98192
-5.86616
-5.74474
-5.6177
-5.48507
-5.34691
-5.20329
-5.05427
-4.89992
-4.74031
-4.57552
-4.40558
-4.23057
-4.0505
-3.86542
-3.67536
-3.48034
-3.28039
-3.07549
-2.86565
-2.65084
-2.43102
-2.20613
-1.9761
-1.74083
-1.50017
-1.25397
-1.00209
-0.744341
-0.480554
-0.210419
0.0663642
0.350141
0.641193
0.939853
1.2464
1.56116
1.88442
2.2165
2.55765
2.90813
3.26814
3.6378
4.0172
4.40629
4.80487
5.21261
5.62897
6.0533
6.4847
6.92215
7.36433
7.80977
8.25675
8.70345
9.14787
9.58802
10.0218
10.4474
10.8626
11.2658
11.6552
12.0294
12.387
12.7271
13.0486
13.351
13.6336
13.8963
14.139
14.3621
14.5659
14.7511
14.9185
15.0688
15.203
15.3222
15.4273
15.5195
15.5999
15.6699
15.7306
15.7838
15.8312
15.8753
15.9201
15.9668
16.0292
16.076
-6.19749
-6.20285
-6.21125
-6.21776
-6.22209
-6.22528
-6.22795
-6.23047
-6.2331
-6.23604
-6.23944
-6.2434
-6.248
-6.25331
-6.25938
-6.26624
-6.2739
-6.28235
-6.29157
-6.30157
-6.31237
-6.32399
-6.33644
-6.34974
-6.36387
-6.3788
-6.39453
-6.41108
-6.42851
-6.44691
-6.46636
-6.48689
-6.50841
-6.53079
-6.55382
-6.57735
-6.60128
-6.62554
-6.65009
-6.67489
-6.69991
-6.7251
-6.75044
-6.77586
-6.80133
-6.82678
-6.85216
-6.8774
-6.90244
-6.9272
-6.9516
-6.97556
-6.99898
-7.02177
-7.04383
-7.06503
-7.08527
-7.10443
-7.12237
-7.13895
-7.15404
-7.16749
-7.17914
-7.18884
-7.19643
-7.20172
-7.20456
-7.20476
-7.20216
-7.19656
-7.1878
-7.17568
-7.16003
-7.14067
-7.11742
-7.09012
-7.05858
-7.02265
-6.98217
-6.93699
-6.88696
-6.83197
-6.77187
-6.70657
-6.63596
-6.55995
-6.47847
-6.39145
-6.29882
-6.20056
-6.0967
-5.98718
-5.87202
-5.7512
-5.62478
-5.49278
-5.35528
-5.21233
-5.06403
-4.91042
-4.75159
-4.58761
-4.4185
-4.24436
-4.06518
-3.88105
-3.69196
-3.49799
-3.2991
-3.09534
-2.88667
-2.67311
-2.45458
-2.23107
-2.00247
-1.76872
-1.52963
-1.28514
-1.03502
-0.779177
-0.517318
-0.24923
0.025478
0.307029
0.595804
0.892032
1.19609
1.50823
1.82882
2.15809
2.49638
2.84391
3.2009
3.56747
3.94374
4.32965
4.72504
5.12954
5.54273
5.9639
6.39231
6.82685
7.26634
7.70925
8.15399
8.5987
9.04155
9.48051
9.91365
10.3389
10.7545
11.1585
11.5492
11.9251
12.2849
12.6275
12.9519
13.2573
13.5432
13.8093
14.0556
14.2824
14.49
14.679
14.8502
15.0042
15.1421
15.2649
15.3735
15.469
15.5526
15.6255
15.6889
15.7444
15.7938
15.8388
15.8828
15.9253
15.9767
16.0009
-6.18739
-6.1943
-6.20516
-6.21373
-6.21966
-6.22416
-6.22789
-6.23126
-6.23455
-6.23802
-6.24185
-6.24616
-6.25107
-6.25664
-6.26293
-6.27
-6.27787
-6.28655
-6.29605
-6.30637
-6.31751
-6.32946
-6.34221
-6.35573
-6.37003
-6.38508
-6.40089
-6.4175
-6.43495
-6.45328
-6.47253
-6.49268
-6.51367
-6.53541
-6.55779
-6.5807
-6.60406
-6.62781
-6.6519
-6.67627
-6.70088
-6.7257
-6.75068
-6.77578
-6.80094
-6.82611
-6.85124
-6.87626
-6.9011
-6.92569
-6.94995
-6.97379
-6.99712
-7.01985
-7.04188
-7.06308
-7.08334
-7.10255
-7.12056
-7.13724
-7.15246
-7.16605
-7.17787
-7.18775
-7.19553
-7.20105
-7.20412
-7.20458
-7.20223
-7.19691
-7.18842
-7.1766
-7.16124
-7.14218
-7.11924
-7.09224
-7.06101
-7.02538
-6.9852
-6.94031
-6.89058
-6.83587
-6.77605
-6.71103
-6.64068
-6.56493
-6.48371
-6.39695
-6.30457
-6.20659
-6.10299
-5.99375
-5.87887
-5.75837
-5.63228
-5.50064
-5.36353
-5.221
-5.07315
-4.92004
-4.76175
-4.59834
-4.42987
-4.2564
-4.07796
-3.89462
-3.7064
-3.51334
-3.31545
-3.11274
-2.90522
-2.69285
-2.47562
-2.25348
-2.02635
-1.79414
-1.55672
-1.31398
-1.06575
-0.811867
-0.552069
-0.286085
-0.0135959
0.265673
0.552048
0.845813
1.14732
1.45685
1.77476
2.10133
2.43689
2.78168
3.13595
3.49983
3.87344
4.25673
4.64957
5.05165
5.46254
5.88162
6.30813
6.74102
7.17909
7.62088
8.06479
8.50902
8.95174
9.39095
9.82469
10.2509
10.6678
11.0734
11.466
11.844
12.2061
12.5511
12.878
13.186
13.4746
13.7435
13.9927
14.2224
14.4329
14.6247
14.7987
14.9556
15.0962
15.2216
15.3327
15.4306
15.5164
15.5913
15.6566
15.7134
15.7635
15.8083
15.8502
15.8876
15.9292
15.9346
-6.18054
-6.1887
-6.20139
-6.21161
-6.21894
-6.22466
-6.22946
-6.23372
-6.23777
-6.24189
-6.24627
-6.25107
-6.25641
-6.26237
-6.26902
-6.27641
-6.28458
-6.29354
-6.30331
-6.3139
-6.3253
-6.33751
-6.3505
-6.36427
-6.37878
-6.39404
-6.41004
-6.42678
-6.44429
-6.46258
-6.48166
-6.50152
-6.52211
-6.54339
-6.56529
-6.58772
-6.61063
-6.63396
-6.65765
-6.68166
-6.70595
-6.73047
-6.75518
-6.78003
-6.80497
-6.82995
-6.85491
-6.87978
-6.90451
-6.92901
-6.95321
-6.97701
-7.00033
-7.02308
-7.04514
-7.0664
-7.08674
-7.10604
-7.12417
-7.14099
-7.15635
-7.1701
-7.1821
-7.19216
-7.20014
-7.20585
-7.20912
-7.20978
-7.20764
-7.20252
-7.19423
-7.1826
-7.16743
-7.14855
-7.12577
-7.09893
-7.06784
-7.03234
-6.99227
-6.94749
-6.89784
-6.84319
-6.78343
-6.71843
-6.64811
-6.57237
-6.49114
-6.40436
-6.31198
-6.21398
-6.11037
-6.00114
-5.88627
-5.76582
-5.63979
-5.50827
-5.3713
-5.22896
-5.08134
-4.92851
-4.77057
-4.60754
-4.43954
-4.26657
-4.08875
-3.90606
-3.7186
-3.52634
-3.32937
-3.12763
-2.92118
-2.70996
-2.49401
-2.2732
-2.04753
-1.81686
-1.58113
-1.34017
-1.09387
-0.84196
-0.584273
-0.320434
-0.0502375
0.226704
0.510607
0.80188
1.10077
1.40768
1.72289
2.04678
2.37963
2.72175
3.07337
3.4347
3.8058
4.18671
4.57729
4.97732
5.38634
5.80386
6.22903
6.66093
7.09829
7.53977
7.98371
8.42841
8.87193
9.31235
9.7476
10.1757
10.5947
11.0026
11.3977
11.7783
12.143
12.4906
12.82
13.1306
13.4217
13.6932
13.9448
14.1769
14.3897
14.5839
14.7601
14.9191
15.0618
15.1891
15.3021
15.4017
15.4891
15.5653
15.6316
15.6891
15.7391
15.7827
15.8218
15.8538
15.8868
15.8764
-6.17786
-6.18686
-6.20069
-6.21206
-6.22048
-6.22722
-6.23294
-6.23804
-6.24284
-6.24761
-6.25258
-6.25791
-6.26372
-6.27011
-6.27715
-6.2849
-6.29339
-6.30264
-6.31268
-6.32351
-6.33513
-6.34754
-6.36071
-6.37464
-6.38931
-6.40471
-6.42083
-6.43767
-6.45522
-6.47349
-6.49246
-6.51214
-6.53248
-6.55345
-6.57501
-6.59711
-6.61968
-6.6427
-6.6661
-6.68985
-6.71391
-6.73822
-6.76275
-6.78745
-6.81226
-6.83714
-6.86202
-6.88685
-6.91155
-6.93605
-6.96026
-6.98411
-7.0075
-7.03033
-7.05248
-7.07386
-7.09433
-7.11378
-7.13206
-7.14905
-7.16458
-7.17851
-7.19067
-7.20092
-7.20907
-7.21495
-7.21839
-7.2192
-7.2172
-7.21221
-7.20404
-7.19251
-7.17742
-7.1586
-7.13586
-7.10903
-7.07793
-7.0424
-7.00228
-6.95741
-6.90766
-6.85288
-6.79296
-6.72779
-6.65727
-6.58132
-6.49987
-6.41286
-6.32022
-6.22199
-6.11815
-6.00869
-5.89362
-5.77298
-5.64682
-5.51519
-5.37817
-5.23583
-5.08827
-4.93556
-4.77779
-4.61503
-4.44735
-4.2748
-4.09746
-3.91536
-3.72855
-3.53706
-3.34092
-3.14013
-2.9347
-2.72462
-2.50988
-2.29042
-2.06618
-1.83708
-1.60302
-1.36387
-1.11947
-0.869589
-0.613974
-0.352326
-0.0843749
0.190208
0.471704
0.760478
1.05684
1.36116
1.67377
1.99506
2.32531
2.66488
3.014
3.37291
3.74169
4.12042
4.50899
4.90723
5.31472
5.73097
6.15522
6.58653
7.02371
7.4654
7.90997
8.3557
8.80064
9.24284
9.68021
10.1107
10.5323
10.943
11.3409
11.7244
12.092
12.4423
12.7744
13.0875
13.3811
13.6548
13.9086
14.1428
14.3576
14.5537
14.7317
14.8924
15.0366
15.1654
15.2797
15.3805
15.4689
15.5459
15.6125
15.67
15.7193
15.7613
15.7972
15.8236
15.8491
15.8253
-6.17961
-6.18901
-6.20332
-6.21532
-6.22447
-6.23195
-6.2384
-6.24418
-6.24961
-6.25497
-6.26048
-6.26629
-6.27254
-6.27933
-6.28673
-6.2948
-6.30358
-6.31309
-6.32336
-6.33438
-6.34618
-6.35873
-6.37203
-6.38607
-6.40084
-6.41632
-6.43251
-6.44939
-6.46696
-6.4852
-6.50411
-6.52368
-6.54386
-6.56465
-6.586
-6.60788
-6.63024
-6.65306
-6.67628
-6.69988
-6.7238
-6.748
-6.77245
-6.79709
-6.82187
-6.84674
-6.87164
-6.8965
-6.92126
-6.94584
-6.97015
-6.99411
-7.01763
-7.0406
-7.06291
-7.08445
-7.1051
-7.12472
-7.14319
-7.16035
-7.17606
-7.19017
-7.2025
-7.21291
-7.2212
-7.22722
-7.23078
-7.23169
-7.22977
-7.22483
-7.21669
-7.20516
-7.19005
-7.17117
-7.14834
-7.12139
-7.09014
-7.05443
-7.01408
-6.96896
-6.91893
-6.86384
-6.80358
-6.73804
-6.66714
-6.59078
-6.5089
-6.42145
-6.32839
-6.22971
-6.12545
-6.01558
-5.90013
-5.77913
-5.65265
-5.52075
-5.38352
-5.24103
-5.09339
-4.94069
-4.78299
-4.6204
-4.45295
-4.28076
-4.10385
-3.92231
-3.73612
-3.54538
-3.35005
-3.15021
-2.9458
-2.73688
-2.52337
-2.30528
-2.08249
-1.85501
-1.62265
-1.38537
-1.14288
-0.89505
-0.641507
-0.382073
-0.116344
0.155885
0.435034
0.721347
1.01527
1.31708
1.62721
1.94598
2.27379
2.61092
2.9577
3.31434
3.68101
4.05773
4.44454
4.84121
5.2475
5.66282
6.08655
6.51771
6.95519
7.39756
7.84328
8.2905
8.73737
9.18179
9.62172
10.055
10.4795
10.8933
11.2944
11.6809
12.0515
12.4047
12.7394
13.055
13.3508
13.6267
13.8825
14.1184
14.3349
14.5325
14.7119
14.8739
15.0193
15.149
15.2642
15.3657
15.4546
15.5319
15.5985
15.6554
15.7036
15.7434
15.7758
15.7969
15.8158
15.7806
-6.18556
-6.19496
-6.20914
-6.22128
-6.23078
-6.23869
-6.24562
-6.25189
-6.2578
-6.26362
-6.26955
-6.27576
-6.28236
-6.28947
-6.29716
-6.30548
-6.31447
-6.32417
-6.3346
-6.34576
-6.35767
-6.37031
-6.38369
-6.3978
-6.41262
-6.42815
-6.44436
-6.46127
-6.47884
-6.49707
-6.51595
-6.53545
-6.55556
-6.57625
-6.59749
-6.61926
-6.64153
-6.66425
-6.68741
-6.71095
-6.73483
-6.75903
-6.78349
-6.80816
-6.833
-6.85795
-6.88294
-6.90792
-6.93281
-6.95753
-6.98201
-7.00614
-7.02984
-7.053
-7.07551
-7.09725
-7.11809
-7.13791
-7.15657
-7.17391
-7.18979
-7.20406
-7.21654
-7.22707
-7.23547
-7.24157
-7.24518
-7.24612
-7.2442
-7.23923
-7.23102
-7.21938
-7.20413
-7.18507
-7.16203
-7.13482
-7.10327
-7.06722
-7.0265
-6.98097
-6.93048
-6.87491
-6.81413
-6.74806
-6.67658
-6.59964
-6.51717
-6.42911
-6.33543
-6.23617
-6.13131
-6.02087
-5.90488
-5.78338
-5.65644
-5.52415
-5.38659
-5.24385
-5.09604
-4.94325
-4.78556
-4.62307
-4.45585
-4.28398
-4.10751
-3.92649
-3.74097
-3.55096
-3.35651
-3.15761
-2.95429
-2.74654
-2.53433
-2.31763
-2.09639
-1.87055
-1.63999
-1.40458
-1.1641
-0.918312
-0.666929
-0.409689
-0.146256
0.123656
0.400407
0.684313
0.975775
1.27514
1.58281
1.89915
2.22454
2.55932
2.90383
3.25831
3.62297
3.9979
4.38314
4.77856
5.18391
5.5987
6.02229
6.45373
6.89193
7.33545
7.78273
8.23192
8.6811
9.12814
9.57096
10.0073
10.4351
10.8522
11.2566
11.6464
12.02
12.3761
12.7135
13.0314
13.3294
13.6072
13.8647
14.1023
14.3201
14.5189
14.6994
14.8622
15.0084
15.1388
15.2545
15.3563
15.4453
15.5225
15.5887
15.6447
15.6913
15.7287
15.7576
15.7736
15.7865
15.7415
-6.19512
-6.20419
-6.21775
-6.22959
-6.23907
-6.24712
-6.25427
-6.26081
-6.26701
-6.27311
-6.27932
-6.28579
-6.29263
-6.29995
-6.30783
-6.31631
-6.32544
-6.33525
-6.34577
-6.357
-6.36896
-6.38165
-6.39506
-6.40918
-6.42402
-6.43957
-6.4558
-6.47271
-6.49029
-6.50853
-6.52741
-6.5469
-6.56699
-6.58766
-6.60888
-6.63064
-6.6529
-6.67564
-6.69881
-6.72239
-6.74634
-6.77061
-6.79517
-6.81996
-6.84493
-6.87003
-6.89519
-6.92035
-6.94543
-6.97035
-6.99504
-7.01938
-7.0433
-7.06667
-7.08939
-7.11134
-7.13238
-7.15238
-7.17121
-7.18871
-7.20474
-7.21912
-7.23169
-7.24229
-7.25073
-7.25683
-7.26041
-7.26129
-7.25926
-7.25415
-7.24576
-7.2339
-7.21838
-7.19901
-7.17561
-7.148
-7.11601
-7.07947
-7.03822
-6.99212
-6.94103
-6.88481
-6.82337
-6.75659
-6.6844
-6.60672
-6.5235
-6.43468
-6.34027
-6.24026
-6.13468
-6.02355
-5.90689
-5.78479
-5.6573
-5.52452
-5.38655
-5.24349
-5.09546
-4.94253
-4.78484
-4.62243
-4.45544
-4.28389
-4.10789
-3.92742
-3.7426
-3.55337
-3.35984
-3.16195
-2.95977
-2.75324
-2.5424
-2.32716
-2.10755
-1.88343
-1.65475
-1.42127
-1.18287
-0.939179
-0.690027
-0.435016
-0.173949
0.0936008
0.367876
0.649337
0.938277
1.23517
1.54034
1.85424
2.17722
2.50971
2.85202
3.20448
3.56727
3.94062
4.32452
4.71898
5.1237
5.53831
5.9621
6.39425
6.83354
7.27865
7.72787
8.17943
8.63126
9.08129
9.52728
9.96705
10.3983
10.8189
11.2268
11.6199
11.9966
12.3555
12.6955
13.0157
13.3158
13.5953
13.8544
14.0932
14.3122
14.5119
14.6931
14.8565
15.0032
15.1339
15.2497
15.3515
15.4403
15.517
15.5824
15.6373
15.6821
15.7169
15.7422
15.7533
15.761
15.7076
-6.20756
-6.21601
-6.22855
-6.23972
-6.24887
-6.25677
-6.26388
-6.27046
-6.27674
-6.28296
-6.28929
-6.29587
-6.30282
-6.31023
-6.31818
-6.32672
-6.33589
-6.34574
-6.35627
-6.36751
-6.37947
-6.39215
-6.40555
-6.41967
-6.43451
-6.45005
-6.4663
-6.48323
-6.50083
-6.51909
-6.538
-6.55752
-6.57765
-6.59837
-6.61965
-6.64147
-6.66381
-6.68664
-6.70992
-6.73363
-6.75771
-6.78214
-6.80686
-6.83183
-6.85699
-6.88229
-6.90767
-6.93304
-6.95835
-6.9835
-7.0084
-7.03297
-7.0571
-7.08068
-7.10359
-7.12572
-7.14692
-7.16708
-7.18602
-7.20362
-7.21971
-7.23414
-7.24672
-7.25729
-7.26567
-7.27167
-7.27511
-7.27581
-7.27356
-7.26818
-7.25947
-7.24725
-7.23132
-7.2115
-7.1876
-7.15945
-7.12687
-7.0897
-7.04778
-7.00096
-6.94912
-6.89212
-6.82987
-6.76226
-6.68921
-6.61067
-6.52658
-6.4369
-6.34162
-6.24077
-6.13438
-6.02247
-5.90508
-5.78229
-5.65419
-5.52088
-5.38247
-5.23907
-5.09079
-4.93775
-4.78004
-4.61776
-4.45101
-4.27985
-4.10434
-3.92453
-3.74044
-3.55209
-3.35952
-3.16272
-2.96173
-2.75653
-2.54712
-2.33346
-2.11554
-1.89327
-1.66654
-1.43515
-1.19888
-0.957463
-0.710613
-0.458002
-0.199358
0.0656757
0.337429
0.616323
0.902717
1.19706
1.49973
1.81118
2.1318
2.46204
2.80225
3.15278
3.51389
3.88581
4.26863
4.66235
5.06674
5.48145
5.90581
6.33897
6.77974
7.22675
7.67828
8.13249
8.58728
9.04053
9.48996
9.93331
10.3683
10.7925
11.2039
11.6004
11.9803
12.342
12.6845
13.0069
13.3088
13.5899
13.8503
14.0902
14.3101
14.5104
14.6921
14.8559
15.0027
15.1334
15.2491
15.3506
15.439
15.515
15.5793
15.6327
15.6755
15.7076
15.7293
15.7359
15.7388
15.6782
-6.222
-6.22965
-6.24091
-6.2511
-6.25965
-6.26714
-6.27397
-6.28037
-6.28653
-6.29267
-6.29894
-6.30548
-6.31239
-6.31976
-6.32767
-6.33616
-6.34529
-6.35508
-6.36556
-6.37675
-6.38867
-6.40131
-6.41469
-6.4288
-6.44363
-6.45918
-6.47544
-6.49239
-6.51002
-6.52832
-6.54728
-6.56687
-6.58709
-6.6079
-6.6293
-6.65126
-6.67375
-6.69674
-6.72019
-6.74407
-6.76835
-6.79297
-6.8179
-6.84308
-6.86846
-6.89398
-6.91957
-6.94517
-6.97069
-6.99604
-7.02115
-7.0459
-7.0702
-7.09393
-7.11697
-7.13921
-7.16049
-7.1807
-7.19967
-7.21726
-7.23331
-7.24765
-7.26012
-7.27054
-7.27872
-7.28449
-7.28765
-7.28802
-7.2854
-7.27961
-7.27044
-7.25771
-7.24123
-7.22081
-7.19627
-7.16743
-7.13412
-7.09618
-7.05345
-7.0058
-6.95308
-6.89519
-6.83202
-6.76347
-6.68948
-6.60998
-6.52493
-6.43431
-6.33812
-6.23637
-6.12911
-6.01637
-5.89822
-5.77473
-5.646
-5.51215
-5.37329
-5.22956
-5.08105
-4.92791
-4.77023
-4.60814
-4.44169
-4.27101
-4.09608
-3.917
-3.73374
-3.54639
-3.35488
-3.1593
-2.95961
-2.75586
-2.54799
-2.33606
-2.11996
-1.8997
-1.67504
-1.44588
-1.21189
-0.972873
-0.728416
-0.478336
-0.222221
0.0401658
0.309325
0.585558
0.869374
1.16111
1.46129
1.77028
2.08861
2.41664
2.75486
3.10359
3.4632
3.83387
4.21584
4.60905
5.01342
5.4285
5.85375
6.28821
6.7308
7.17998
7.63412
8.09122
8.54923
9.00588
9.45892
9.90598
10.3447
10.7727
11.1877
11.5875
11.9705
12.3349
12.6797
13.0042
13.3078
13.5903
13.8518
14.0925
14.313
14.5138
14.6957
14.8596
15.0063
15.1368
15.2521
15.3531
15.4407
15.5157
15.5788
15.6306
15.6713
15.7006
15.7188
15.7211
15.7197
15.6528
-6.23766
-6.24437
-6.25416
-6.26319
-6.27091
-6.27777
-6.2841
-6.29008
-6.29592
-6.30178
-6.30781
-6.31414
-6.32086
-6.32806
-6.33581
-6.34416
-6.35316
-6.36284
-6.37322
-6.38433
-6.39617
-6.40876
-6.42209
-6.43616
-6.45097
-6.46652
-6.48278
-6.49976
-6.51743
-6.53579
-6.55482
-6.57452
-6.59485
-6.61581
-6.63736
-6.65949
-6.68216
-6.70534
-6.72899
-6.75307
-6.77755
-6.80236
-6.82748
-6.85285
-6.87842
-6.90412
-6.92989
-6.95565
-6.98131
-7.0068
-7.03201
-7.05685
-7.0812
-7.10497
-7.12801
-7.15022
-7.17145
-7.19156
-7.2104
-7.22783
-7.24367
-7.25778
-7.26996
-7.28006
-7.28788
-7.29325
-7.29597
-7.29585
-7.29271
-7.28634
-7.27656
-7.26318
-7.24601
-7.22486
-7.19955
-7.1699
-7.13575
-7.09693
-7.0533
-7.00472
-6.95104
-6.89218
-6.82801
-6.75846
-6.68346
-6.60296
-6.51693
-6.42533
-6.32817
-6.22552
-6.11737
-6.00381
-5.88488
-5.76069
-5.63136
-5.497
-5.35774
-5.21371
-5.06505
-4.91188
-4.75434
-4.59251
-4.42651
-4.25639
-4.0822
-3.90396
-3.72171
-3.53545
-3.34519
-3.15096
-2.95275
-2.75058
-2.54447
-2.33441
-2.12035
-1.90222
-1.67986
-1.45305
-1.22152
-0.98497
-0.743088
-0.49562
-0.242211
0.0174837
0.283919
0.557476
0.838629
1.12778
1.42543
1.73203
2.04807
2.37401
2.71033
3.05742
3.41566
3.78532
4.16663
4.5596
4.96415
5.37991
5.80629
6.24237
6.68699
7.13863
7.59556
8.05576
8.51708
8.97725
9.43397
9.88481
10.3273
10.759
11.1776
11.5807
11.9665
12.3335
12.6806
13.0068
13.3119
13.5956
13.858
14.0994
14.3202
14.5213
14.7032
14.8668
15.0132
15.1433
15.258
15.3583
15.445
15.5189
15.5806
15.6306
15.6691
15.6956
15.7105
15.7088
15.7033
15.6312
-6.2538
-6.25952
-6.26777
-6.27551
-6.28221
-6.28823
-6.29383
-6.29919
-6.30448
-6.30986
-6.31546
-6.32141
-6.3278
-6.33471
-6.3422
-6.35032
-6.35912
-6.36862
-6.37885
-6.38982
-6.40154
-6.41403
-6.42729
-6.4413
-6.45607
-6.4716
-6.48786
-6.50487
-6.5226
-6.54104
-6.56016
-6.57997
-6.60043
-6.62152
-6.64322
-6.6655
-6.68833
-6.71166
-6.73546
-6.75968
-6.78428
-6.80922
-6.83444
-6.8599
-6.88555
-6.91132
-6.93712
-6.9629
-6.98856
-7.01402
-7.03917
-7.06392
-7.08815
-7.11176
-7.13462
-7.1566
-7.17758
-7.1974
-7.21592
-7.23298
-7.24844
-7.26211
-7.27383
-7.28343
-7.29072
-7.29552
-7.29763
-7.29688
-7.29306
-7.28598
-7.27546
-7.2613
-7.24332
-7.22133
-7.19515
-7.16461
-7.12953
-7.08977
-7.04517
-6.9956
-6.94093
-6.88104
-6.81586
-6.74529
-6.66928
-6.58777
-6.50075
-6.40817
-6.3101
-6.20654
-6.09756
-5.98321
-5.86359
-5.73878
-5.60893
-5.47416
-5.33461
-5.19041
-5.04173
-4.88867
-4.73142
-4.57002
-4.40463
-4.23525
-4.06198
-3.88477
-3.7037
-3.51871
-3.32988
-3.13716
-2.94061
-2.7402
-2.53602
-2.328
-2.11616
-1.90033
-1.68042
-1.45608
-1.22711
-0.993125
-0.753959
-0.509201
-0.258604
-0.00164394
0.262001
0.532877
0.811339
1.09794
1.39308
1.69735
2.01119
2.33516
2.66968
3.01529
3.37233
3.74119
4.12204
4.51501
4.91995
5.33661
5.7643
6.20218
6.64898
7.10321
7.563
8.02635
8.49099
8.95467
9.415
9.86956
10.3158
10.7511
11.1731
11.5793
11.9678
12.3372
12.6861
13.014
13.3204
13.605
13.868
14.1098
14.3309
14.5319
14.7136
14.877
15.0229
15.1523
15.2663
15.3657
15.4514
15.5241
15.5843
15.6324
15.6686
15.6925
15.7042
15.6988
15.6895
15.6129
-6.27049
-6.27522
-6.28196
-6.2883
-6.2938
-6.29874
-6.30335
-6.30781
-6.31229
-6.31694
-6.32189
-6.32725
-6.33312
-6.33956
-6.34664
-6.3544
-6.36287
-6.37209
-6.38207
-6.39282
-6.40436
-6.41668
-6.4298
-6.44371
-6.45839
-6.47386
-6.49008
-6.50707
-6.52479
-6.54323
-6.56237
-6.5822
-6.6027
-6.62384
-6.64558
-6.6679
-6.69074
-6.71408
-6.73787
-6.76208
-6.78664
-6.81152
-6.83667
-6.86203
-6.88754
-6.91315
-6.93877
-6.96433
-6.98975
-7.01492
-7.03977
-7.06418
-7.08804
-7.11124
-7.13367
-7.15519
-7.17566
-7.19496
-7.21293
-7.22942
-7.24427
-7.25731
-7.26838
-7.2773
-7.28389
-7.28796
-7.28932
-7.28779
-7.28317
-7.27528
-7.26392
-7.2489
-7.23003
-7.20714
-7.18003
-7.14855
-7.11253
-7.0718
-7.02623
-6.97567
-6.92002
-6.85915
-6.793
-6.72146
-6.64449
-6.56205
-6.47411
-6.38068
-6.28176
-6.17743
-6.06774
-5.95274
-5.83255
-5.70729
-5.57707
-5.44206
-5.30238
-5.15821
-5.00968
-4.85696
-4.70018
-4.53945
-4.37485
-4.20646
-4.03428
-3.85834
-3.67863
-3.49515
-3.3079
-3.11691
-2.92218
-2.72376
-2.52167
-2.31592
-2.10645
-1.89313
-1.67574
-1.45402
-1.22768
-0.996437
-0.76005
-0.518157
-0.270386
-0.0162745
0.244596
0.512725
0.788547
1.07259
1.36532
1.6673
1.97905
2.30112
2.63401
2.97823
3.33423
3.70237
4.08292
4.47597
4.88145
5.29906
5.72816
6.16785
6.61688