/*--------------------------------*- C++ -*----------------------------------*\
  =========                 |
  \\      /  F ield         | OpenFOAM: The Open Source CFD Toolbox
   \\    /   O peration     | Website:  https://openfoam.org
    \\  /    A nd           | Version:  9
     \\/     M anipulation  |
\*---------------------------------------------------------------------------*/
FoamFile
{
    format      ascii;
    class       surfaceScalarField;
    location    "175";
    object      phi;
}
// * * * * * * * * * * * * * * * * * * * * * * * * * * * * * * * * * * * * * //

dimensions      [0 3 -1 0 0 0 0];

internalField   nonuniform List<scalar> 
24170
(
3.12889e-06
5.95176e-08
3.04663e-06
8.22556e-08
2.97353e-06
7.31001e-08
2.90487e-06
6.86514e-08
2.84053e-06
6.43395e-08
2.78318e-06
5.73422e-08
2.73384e-06
4.93416e-08
2.69186e-06
4.1975e-08
2.65615e-06
3.57041e-08
2.62566e-06
3.04865e-08
2.59941e-06
2.62524e-08
2.57654e-06
2.28666e-08
2.55638e-06
2.01525e-08
2.53833e-06
1.80474e-08
2.522e-06
1.63303e-08
2.50626e-06
1.57369e-08
2.49132e-06
1.49401e-08
2.18416e-08
2.46948e-06
3.45314e-06
2.36272e-08
3.45702e-06
7.83766e-08
3.45054e-06
7.95733e-08
3.43908e-06
8.01097e-08
3.42429e-06
7.91243e-08
3.40703e-06
7.45967e-08
3.3878e-06
6.85723e-08
3.36725e-06
6.25157e-08
3.34608e-06
5.68701e-08
3.32487e-06
5.16931e-08
3.3041e-06
4.70163e-08
3.28405e-06
4.29167e-08
3.2649e-06
3.92951e-08
3.2467e-06
3.62534e-08
3.22952e-06
3.35055e-08
3.21322e-06
3.20362e-08
3.19821e-06
2.99422e-08
3.31037e-08
3.18695e-06
3.66826e-06
1.78839e-08
3.67918e-06
6.74527e-08
3.68541e-06
7.33438e-08
3.68944e-06
7.60732e-08
3.69103e-06
7.75333e-08
3.69006e-06
7.55706e-08
3.68691e-06
7.17203e-08
3.68205e-06
6.73715e-08
3.67587e-06
6.30416e-08
3.66871e-06
5.88578e-08
3.66082e-06
5.48982e-08
3.65247e-06
5.12695e-08
3.64382e-06
4.79424e-08
3.63504e-06
4.50347e-08
3.62616e-06
4.23848e-08
3.61757e-06
4.06226e-08
3.60874e-06
3.87679e-08
3.91444e-08
3.6027e-06
3.92587e-06
1.74e-08
3.93591e-06
5.74082e-08
3.94256e-06
6.66978e-08
3.94809e-06
7.05367e-08
3.9525e-06
7.31258e-08
3.95543e-06
7.26317e-08
3.95709e-06
7.00624e-08
3.9577e-06
6.67534e-08
3.95747e-06
6.3275e-08
3.95652e-06
5.9797e-08
3.95501e-06
5.64111e-08
3.95304e-06
5.32354e-08
3.9507e-06
5.02758e-08
3.94811e-06
4.7632e-08
3.94526e-06
4.52299e-08
3.94247e-06
4.34078e-08
3.93951e-06
4.17253e-08
4.08526e-08
3.9378e-06
4.20819e-06
1.63343e-08
4.21598e-06
4.96194e-08
4.22167e-06
6.10033e-08
4.22677e-06
6.54399e-08
4.23151e-06
6.83864e-08
4.23546e-06
6.86717e-08
4.23862e-06
6.69084e-08
4.24107e-06
6.42946e-08
4.24294e-06
6.14058e-08
4.24431e-06
5.84306e-08
4.24525e-06
5.54692e-08
4.24584e-06
5.26367e-08
4.24615e-06
4.99657e-08
4.24625e-06
4.75326e-08
4.24617e-06
4.53125e-08
4.2461e-06
4.34686e-08
4.24604e-06
4.17871e-08
4.03708e-08
4.24652e-06
4.51069e-06
1.47342e-08
4.51688e-06
4.34258e-08
4.52212e-06
5.57578e-08
4.52693e-06
6.0631e-08
4.53163e-06
6.36827e-08
4.53586e-06
6.44344e-08
4.53952e-06
6.3249e-08
4.54266e-06
6.11512e-08
4.54536e-06
5.87051e-08
4.54768e-06
5.61117e-08
4.54966e-06
5.34812e-08
4.55138e-06
5.09204e-08
4.55286e-06
4.84793e-08
4.55418e-06
4.62135e-08
4.55537e-06
4.41214e-08
4.55657e-06
4.22678e-08
4.55782e-06
4.05335e-08
3.88488e-08
4.55934e-06
4.83431e-06
1.31481e-08
4.83962e-06
3.81074e-08
4.84474e-06
5.06376e-08
4.84943e-06
5.59357e-08
4.85406e-06
5.90597e-08
4.85836e-06
6.01296e-08
4.86222e-06
5.9392e-08
4.86566e-06
5.77049e-08
4.86875e-06
5.56124e-08
4.87153e-06
5.33269e-08
4.87405e-06
5.09665e-08
4.87634e-06
4.86306e-08
4.87844e-06
4.63774e-08
4.8804e-06
4.42488e-08
4.88227e-06
4.22507e-08
4.88414e-06
4.03978e-08
4.88606e-06
3.86125e-08
3.6795e-08
4.88811e-06
5.18103e-06
1.1699e-08
5.18575e-06
3.33879e-08
5.19074e-06
4.56394e-08
5.19538e-06
5.12914e-08
5.19996e-06
5.44834e-08
5.2043e-06
5.57825e-08
5.20828e-06
5.54107e-08
5.21191e-06
5.40722e-08
5.21524e-06
5.22807e-08
5.21831e-06
5.02594e-08
5.22114e-06
4.81309e-08
5.22378e-06
4.59896e-08
5.22626e-06
4.38963e-08
5.22862e-06
4.18853e-08
5.23091e-06
3.99633e-08
5.23318e-06
3.81238e-08
5.23548e-06
3.63108e-08
3.44415e-08
5.23783e-06
5.55268e-06
1.03543e-08
5.55688e-06
2.91874e-08
5.56168e-06
4.0837e-08
5.56628e-06
4.66901e-08
5.57083e-06
4.99292e-08
5.57522e-06
5.13901e-08
5.57931e-06
5.13211e-08
5.58309e-06
5.02896e-08
5.58661e-06
4.87665e-08
5.58988e-06
4.69821e-08
5.59295e-06
4.50616e-08
5.59584e-06
4.30962e-08
5.59859e-06
4.11459e-08
5.60123e-06
3.9242e-08
5.6038e-06
3.73908e-08
5.60635e-06
3.55804e-08
5.60889e-06
3.37694e-08
3.19039e-08
5.61142e-06
5.95103e-06
9.09729e-09
5.95478e-06
2.54406e-08
5.95934e-06
3.62681e-08
5.96389e-06
4.21412e-08
5.96843e-06
4.53913e-08
5.97286e-06
4.69572e-08
5.97704e-06
4.71317e-08
5.98096e-06
4.63698e-08
5.98464e-06
4.50896e-08
5.98809e-06
4.35224e-08
5.99136e-06
4.17946e-08
5.99446e-06
3.99938e-08
5.99742e-06
3.81785e-08
6.00029e-06
3.6379e-08
6.00307e-06
3.46029e-08
6.00581e-06
3.28402e-08
6.00852e-06
3.10625e-08
2.92415e-08
6.01118e-06
6.37798e-06
7.92956e-09
6.38134e-06
2.20814e-08
6.38566e-06
3.19445e-08
6.39014e-06
3.76625e-08
6.39465e-06
4.08764e-08
6.39911e-06
4.24964e-08
6.40338e-06
4.28554e-08
6.40743e-06
4.23236e-08
6.41125e-06
4.12623e-08
6.41488e-06
3.98953e-08
6.41832e-06
3.83483e-08
6.42161e-06
3.67051e-08
6.42476e-06
3.50221e-08
6.42781e-06
3.33302e-08
6.43077e-06
3.16391e-08
6.43367e-06
2.99445e-08
6.4365e-06
2.82289e-08
2.64848e-08
6.43925e-06
5.74176e-06
7.00538e-09
5.74434e-06
1.95014e-08
5.7478e-06
2.84786e-08
5.75152e-06
3.39396e-08
5.75531e-06
3.70806e-08
5.7591e-06
3.87125e-08
5.76277e-06
3.91825e-08
5.76628e-06
3.88127e-08
5.76962e-06
3.79176e-08
5.7728e-06
3.67076e-08
5.77585e-06
3.53054e-08
5.77876e-06
3.37919e-08
5.78156e-06
3.22218e-08
5.78426e-06
3.06257e-08
5.78688e-06
2.90169e-08
5.78943e-06
2.73956e-08
5.7919e-06
2.57528e-08
2.40938e-08
5.79429e-06
6.99914e-06
6.02346e-09
7.00186e-06
1.6772e-08
7.00562e-06
2.47183e-08
7.00978e-06
2.9778e-08
7.01409e-06
3.27672e-08
7.01844e-06
3.43663e-08
7.0227e-06
3.49175e-08
7.02681e-06
3.46965e-08
7.03076e-06
3.39682e-08
7.03454e-06
3.2923e-08
7.03817e-06
3.16786e-08
7.04165e-06
3.0311e-08
7.045e-06
2.88721e-08
7.04823e-06
2.73938e-08
7.05135e-06
2.58915e-08
7.05438e-06
2.43719e-08
7.0573e-06
2.28321e-08
2.12899e-08
7.0601e-06
8.53188e-06
4.99186e-09
8.53473e-06
1.39195e-08
8.53875e-06
2.06908e-08
8.54335e-06
2.51845e-08
8.54819e-06
2.79172e-08
8.55314e-06
2.94196e-08
8.55805e-06
3.00052e-08
8.56284e-06
2.99059e-08
8.56747e-06
2.93353e-08
8.57193e-06
2.84584e-08
8.57623e-06
2.7382e-08
8.58036e-06
2.61773e-08
8.58434e-06
2.48918e-08
8.58817e-06
2.35576e-08
8.59187e-06
2.21929e-08
8.59543e-06
2.0809e-08
8.59886e-06
1.94095e-08
1.80174e-08
8.60213e-06
1.04003e-05
3.91929e-09
1.04032e-05
1.09633e-08
1.04075e-05
1.64173e-08
1.04125e-05
2.01669e-08
1.04179e-05
2.25133e-08
1.04235e-05
2.38342e-08
1.04291e-05
2.43905e-08
1.04347e-05
2.43699e-08
1.04401e-05
2.39372e-08
1.04453e-05
2.32243e-08
1.04504e-05
2.23249e-08
1.04552e-05
2.12997e-08
1.04599e-05
2.01932e-08
1.04644e-05
1.90341e-08
1.04688e-05
1.78436e-08
1.0473e-05
1.66345e-08
1.0477e-05
1.54157e-08
1.42119e-08
1.04808e-05
1.26779e-05
2.81073e-09
1.2681e-05
7.89697e-09
1.26855e-05
1.18954e-08
1.26909e-05
1.47182e-08
1.26969e-05
1.65265e-08
1.27032e-05
1.75595e-08
1.27096e-05
1.80074e-08
1.27159e-05
1.80095e-08
1.27222e-05
1.76829e-08
1.27283e-05
1.71251e-08
1.27342e-05
1.64073e-08
1.27399e-05
1.55806e-08
1.27454e-05
1.46798e-08
1.27507e-05
1.3732e-08
1.27558e-05
1.2755e-08
1.27607e-05
1.17645e-08
1.27653e-05
1.07682e-08
9.79297e-09
1.27697e-05
1.54543e-05
1.6549e-09
1.54576e-05
4.67402e-09
1.54624e-05
7.06619e-09
1.54683e-05
8.77719e-09
1.5475e-05
9.88126e-09
1.5482e-05
1.05036e-08
1.54893e-05
1.07536e-08
1.54966e-05
1.07151e-08
1.55038e-05
1.04582e-08
1.55109e-05
1.00421e-08
1.55178e-05
9.51264e-09
1.55244e-05
8.9038e-09
1.55309e-05
8.24041e-09
1.55371e-05
7.54176e-09
1.5543e-05
6.82248e-09
1.55487e-05
6.09493e-09
1.55541e-05
5.36661e-09
4.66008e-09
1.55592e-05
1.88389e-05
4.11589e-10
1.88424e-05
1.16886e-09
1.88477e-05
1.75473e-09
1.88543e-05
2.15121e-09
1.88618e-05
2.37829e-09
1.88699e-05
2.46359e-09
1.88782e-05
2.42889e-09
1.88866e-05
2.29376e-09
1.8895e-05
2.07798e-09
1.89032e-05
1.79948e-09
1.89112e-05
1.47307e-09
1.8919e-05
1.11096e-09
1.89266e-05
7.23448e-10
1.89338e-05
3.19483e-10
1.89407e-05
-9.33377e-11
1.89473e-05
-5.07888e-10
1.89536e-05
-9.19863e-10
-1.31213e-09
1.89595e-05
2.29648e-05
-1.02088e-09
2.29688e-05
-2.90836e-09
2.29751e-05
-4.4596e-09
2.29828e-05
-5.63695e-09
2.29917e-05
-6.46122e-09
2.30012e-05
-7.01844e-09
2.3011e-05
-7.39669e-09
2.30209e-05
-7.65006e-09
2.30308e-05
-7.81625e-09
2.30405e-05
-7.92589e-09
2.305e-05
-8.0039e-09
2.30592e-05
-8.06415e-09
2.3068e-05
-8.1156e-09
2.30765e-05
-8.16187e-09
2.30846e-05
-8.20581e-09
2.30923e-05
-8.24674e-09
2.30997e-05
-8.28566e-09
-8.31153e-09
2.31067e-05
1.68118e-05
-2.14573e-09
1.6815e-05
-6.08468e-09
1.68198e-05
-9.29895e-09
1.68258e-05
-1.16477e-08
1.68326e-05
-1.31899e-08
1.68397e-05
-1.41543e-08
1.6847e-05
-1.47276e-08
1.68544e-05
-1.5015e-08
1.68617e-05
-1.5094e-08
1.68688e-05
-1.50386e-08
1.68757e-05
-1.48999e-08
1.68823e-05
-1.47129e-08
1.68887e-05
-1.44963e-08
1.68948e-05
-1.42661e-08
1.69006e-05
-1.40287e-08
1.69062e-05
-1.37908e-08
1.69114e-05
-1.35533e-08
-1.33118e-08
1.69164e-05
1.46356e-05
-3.22593e-09
1.46387e-05
-9.17648e-09
1.46435e-05
-1.40225e-08
1.46492e-05
-1.7404e-08
1.46555e-05
-1.94929e-08
1.46621e-05
-2.0739e-08
1.46688e-05
-2.1413e-08
1.46754e-05
-2.16505e-08
1.46819e-05
-2.15834e-08
1.46882e-05
-2.13275e-08
1.46942e-05
-2.09593e-08
1.47e-05
-2.05228e-08
1.47056e-05
-2.00489e-08
1.47109e-05
-1.95581e-08
1.47159e-05
-1.90641e-08
1.47207e-05
-1.85737e-08
1.47252e-05
-1.80922e-08
-1.76146e-08
1.47295e-05
1.27411e-05
-4.23711e-09
1.27443e-05
-1.23078e-08
1.27491e-05
-1.88617e-08
1.27548e-05
-2.30617e-08
1.27608e-05
-2.54877e-08
1.27669e-05
-2.69142e-08
1.27731e-05
-2.76042e-08
1.27792e-05
-2.77071e-08
1.2785e-05
-2.74302e-08
1.27906e-05
-2.69388e-08
1.2796e-05
-2.63227e-08
1.28011e-05
-2.56331e-08
1.28059e-05
-2.49078e-08
1.28106e-05
-2.41714e-08
1.28149e-05
-2.34404e-08
1.28191e-05
-2.27215e-08
1.2823e-05
-2.20208e-08
-2.13343e-08
1.28267e-05
1.10918e-05
-5.08081e-09
1.1095e-05
-1.55331e-08
1.11001e-05
-2.39957e-08
1.11058e-05
-2.86968e-08
1.11115e-05
-3.12352e-08
1.11173e-05
-3.27418e-08
1.11231e-05
-3.33477e-08
1.11286e-05
-3.32354e-08
1.11339e-05
-3.27074e-08
1.11389e-05
-3.19609e-08
1.11437e-05
-3.10876e-08
1.11482e-05
-3.01447e-08
1.11524e-05
-2.91744e-08
1.11565e-05
-2.82064e-08
1.11603e-05
-2.72545e-08
1.11639e-05
-2.6328e-08
1.11673e-05
-2.54294e-08
-2.45578e-08
1.11705e-05
9.65582e-06
-5.6818e-09
9.65925e-06
-1.89652e-08
9.6646e-06
-2.93491e-08
9.6701e-06
-3.42029e-08
9.67567e-06
-3.6803e-08
9.68123e-06
-3.83115e-08
9.68658e-06
-3.8692e-08
9.69162e-06
-3.82758e-08
9.69637e-06
-3.74654e-08
9.70086e-06
-3.6455e-08
9.7051e-06
-3.53235e-08
9.70908e-06
-3.41305e-08
9.71283e-06
-3.29236e-08
9.71635e-06
-3.17318e-08
9.71967e-06
-3.05705e-08
9.72278e-06
-2.94466e-08
9.72571e-06
-2.83619e-08
-2.73132e-08
9.72847e-06
8.4053e-06
-5.62955e-09
8.40964e-06
-2.3306e-08
8.41488e-06
-3.45922e-08
8.41991e-06
-3.92374e-08
8.42528e-06
-4.21759e-08
8.4307e-06
-4.37274e-08
8.43579e-06
-4.37863e-08
8.4405e-06
-4.29914e-08
8.44488e-06
-4.18447e-08
8.44895e-06
-4.05223e-08
8.45272e-06
-3.90942e-08
8.45621e-06
-3.76228e-08
8.45944e-06
-3.61573e-08
8.46243e-06
-3.47255e-08
8.4652e-06
-3.33424e-08
8.46777e-06
-3.20143e-08
8.47015e-06
-3.07429e-08
-2.95245e-08
8.47236e-06
7.3145e-06
-2.84774e-09
7.32119e-06
-2.99988e-08
7.32675e-06
-4.01508e-08
7.3317e-06
-4.41913e-08
7.3371e-06
-4.7579e-08
7.34243e-06
-4.90547e-08
7.34731e-06
-4.86711e-08
7.35173e-06
-4.74119e-08
7.35572e-06
-4.58308e-08
7.35928e-06
-4.40861e-08
7.36244e-06
-4.22588e-08
7.36524e-06
-4.04221e-08
7.36771e-06
-3.86275e-08
7.36988e-06
-3.68995e-08
7.37179e-06
-3.52531e-08
7.37347e-06
-3.36915e-08
7.37494e-06
-3.22146e-08
-3.08129e-08
7.37622e-06
6.36243e-06
4.78362e-09
6.3719e-06
-3.94646e-08
6.37933e-06
-4.758e-08
6.38597e-06
-5.08332e-08
6.39225e-06
-5.38656e-08
6.39757e-06
-5.43733e-08
6.40187e-06
-5.29715e-08
6.40535e-06
-5.08989e-08
6.40816e-06
-4.86378e-08
6.41035e-06
-4.62775e-08
6.41199e-06
-4.38984e-08
6.41314e-06
-4.15758e-08
6.41387e-06
-3.93608e-08
6.41424e-06
-3.72717e-08
6.41431e-06
-3.53211e-08
6.41413e-06
-3.35069e-08
6.41374e-06
-3.18291e-08
-3.02676e-08
6.41319e-06
5.54129e-06
8.95395e-09
5.55032e-06
-4.84966e-08
5.55834e-06
-5.55968e-08
5.56605e-06
-5.85441e-08
5.57251e-06
-6.03313e-08
5.57684e-06
-5.87038e-08
5.57909e-06
-5.52182e-08
5.57965e-06
-5.1464e-08
5.5789e-06
-4.78905e-08
5.57712e-06
-4.44985e-08
5.57453e-06
-4.13109e-08
5.57132e-06
-3.83684e-08
5.56764e-06
-3.56789e-08
5.5636e-06
-3.32363e-08
5.55932e-06
-3.10325e-08
5.55486e-06
-2.90562e-08
5.55034e-06
-2.73082e-08
-2.57343e-08
5.54581e-06
4.86019e-06
-2.36295e-08
4.86538e-06
-5.36899e-08
4.86523e-06
-5.5451e-08
4.86217e-06
-5.54851e-08
4.857e-06
-5.51635e-08
4.8495e-06
-5.12059e-08
4.83981e-06
-4.55306e-08
4.82842e-06
-4.00767e-08
4.81585e-06
-3.5319e-08
4.80258e-06
-3.12263e-08
4.78898e-06
-2.7719e-08
4.77535e-06
-2.47368e-08
4.76187e-06
-2.22002e-08
4.74868e-06
-2.00437e-08
4.73586e-06
-1.8211e-08
4.72348e-06
-1.66787e-08
4.71165e-06
-1.54834e-08
-1.51358e-08
4.70105e-06
4.17905e-06
4.12536e-06
4.06991e-06
4.01442e-06
3.95926e-06
3.90805e-06
3.86252e-06
3.82244e-06
3.78712e-06
3.7559e-06
3.72818e-06
3.70344e-06
3.68124e-06
3.6612e-06
3.64298e-06
3.62631e-06
3.61082e-06
3.59569e-06
1.61811e-08
-1.62518e-08
2.9405e-08
-1.33334e-08
3.52304e-08
-5.89117e-09
3.35049e-08
1.64846e-09
2.53781e-08
8.08231e-09
1.22563e-08
1.30568e-08
-4.47212e-09
1.66977e-08
-2.38385e-08
1.93108e-08
-4.50599e-08
2.11988e-08
-6.76959e-08
2.2589e-08
-9.13774e-08
2.3663e-08
-1.15955e-07
2.45386e-08
-1.41262e-07
2.52904e-08
-1.67255e-07
2.59614e-08
-1.93854e-07
2.65844e-08
-2.21066e-07
2.71856e-08
-2.48865e-07
2.7786e-08
-2.77277e-07
2.83867e-08
-3.0629e-07
2.89992e-08
-3.35946e-07
2.96292e-08
-3.66138e-07
3.01758e-08
-3.96863e-07
3.06955e-08
-4.28278e-07
3.13967e-08
-4.604e-07
3.20911e-08
-4.92926e-07
3.25063e-08
-5.26047e-07
3.30921e-08
-5.60827e-07
3.47584e-08
-5.98123e-07
3.72682e-08
-6.38751e-07
4.0603e-08
-6.81654e-07
4.2875e-08
-7.24811e-07
4.31278e-08
-7.71445e-07
4.65966e-08
-8.1281e-07
4.13232e-08
-8.4521e-07
3.23499e-08
-8.82143e-07
3.68931e-08
-9.21916e-07
3.97201e-08
-9.63238e-07
4.12855e-08
-1.00534e-06
4.20481e-08
-1.04777e-06
4.23987e-08
-1.09034e-06
4.25236e-08
-1.13289e-06
4.25266e-08
-1.17539e-06
4.24535e-08
-1.21775e-06
4.23367e-08
-1.25997e-06
4.21888e-08
-1.30201e-06
4.20227e-08
-1.34389e-06
4.18405e-08
-1.38555e-06
4.16486e-08
-1.42703e-06
4.14445e-08
-1.46828e-06
4.12318e-08
-1.50932e-06
4.1006e-08
-1.55011e-06
4.07694e-08
-1.59067e-06
4.05165e-08
-1.63095e-06
4.02486e-08
-1.67096e-06
3.99604e-08
-1.71064e-06
3.96532e-08
-1.75001e-06
3.93208e-08
-1.78901e-06
3.89648e-08
-1.82764e-06
3.85796e-08
-1.86584e-06
3.81668e-08
-1.90361e-06
3.77204e-08
-1.94088e-06
3.72425e-08
-1.97766e-06
3.67278e-08
-2.01387e-06
3.61788e-08
-2.04951e-06
3.559e-08
-2.0845e-06
3.49644e-08
-2.11885e-06
3.42973e-08
-2.15247e-06
3.35919e-08
-2.18536e-06
3.28438e-08
-2.21744e-06
3.20571e-08
-2.24871e-06
3.12275e-08
-2.2791e-06
3.03597e-08
-2.3086e-06
2.94499e-08
-2.33713e-06
2.8503e-08
-2.36469e-06
2.75155e-08
-2.39121e-06
2.6493e-08
-2.4167e-06
2.54317e-08
-2.44108e-06
2.43383e-08
-2.46435e-06
2.32105e-08
-2.48645e-06
2.2055e-08
-2.50738e-06
2.08688e-08
-2.52708e-06
1.96594e-08
-2.54557e-06
1.84257e-08
-2.56279e-06
1.71751e-08
-2.57876e-06
1.59043e-08
-2.59343e-06
1.46201e-08
-2.60681e-06
1.33201e-08
-2.61887e-06
1.2011e-08
-2.62961e-06
1.06903e-08
-2.63902e-06
9.36542e-09
-2.64709e-06
8.02979e-09
-2.65383e-06
6.68314e-09
-2.65922e-06
5.31611e-09
-2.66323e-06
3.92715e-09
-2.66583e-06
2.50474e-09
-2.66696e-06
1.03986e-09
-2.66659e-06
-4.62562e-10
-2.66483e-06
-1.86145e-09
-2.66187e-06
-3.05604e-09
-2.65783e-06
-4.13746e-09
-2.65275e-06
-5.18292e-09
-2.64665e-06
-6.19731e-09
-2.63956e-06
-7.19157e-09
-2.6315e-06
-8.16857e-09
-2.62248e-06
-9.13243e-09
-2.61251e-06
-1.00795e-08
-2.60161e-06
-1.10144e-08
-2.58979e-06
-1.19337e-08
-2.57706e-06
-1.28453e-08
-2.56343e-06
-1.37463e-08
-2.5489e-06
-1.46475e-08
-2.53346e-06
-1.5545e-08
-2.51714e-06
-1.64524e-08
-2.49989e-06
-1.73642e-08
-2.48172e-06
-1.82981e-08
-2.4626e-06
-1.92468e-08
-2.44252e-06
-2.02316e-08
-2.42142e-06
-2.12408e-08
-2.39927e-06
-2.2298e-08
-2.37599e-06
-2.3393e-08
-2.35158e-06
-2.45595e-08
-2.32596e-06
-2.57936e-08
-2.29908e-06
-2.71261e-08
-2.27082e-06
-2.85305e-08
-2.24108e-06
-3.00394e-08
-2.20969e-06
-3.16147e-08
-2.17662e-06
-3.33096e-08
-2.14167e-06
-3.50883e-08
-2.1048e-06
-3.7012e-08
-2.06579e-06
-3.90371e-08
-2.02459e-06
-4.1224e-08
-1.98098e-06
-4.35242e-08
-1.93488e-06
-4.59888e-08
-1.8861e-06
-4.85664e-08
-1.83457e-06
-5.13056e-08
-1.78008e-06
-5.41623e-08
-1.72258e-06
-5.71693e-08
-1.6619e-06
-6.02799e-08
-1.59799e-06
-6.35073e-08
-1.53071e-06
-6.68541e-08
-1.46e-06
-7.02887e-08
-1.38585e-06
-7.37644e-08
-1.30824e-06
-7.7261e-08
-1.2272e-06
-8.07571e-08
-1.14273e-06
-8.4232e-08
-1.05488e-06
-8.76558e-08
-9.63762e-07
-9.09768e-08
-8.69496e-07
-9.4173e-08
-7.72255e-07
-9.71994e-08
-6.72216e-07
-1.00048e-07
-5.69601e-07
-1.02677e-07
-4.64641e-07
-1.05074e-07
-3.57652e-07
-1.07156e-07
-2.48874e-07
-1.08993e-07
-1.38175e-07
-1.1096e-07
-2.50698e-08
-1.13402e-07
9.03158e-08
-1.15705e-07
2.06472e-07
-1.16485e-07
3.22e-07
-1.15869e-07
4.36141e-07
-1.14483e-07
5.48296e-07
-1.12502e-07
6.57997e-07
-1.10041e-07
7.64826e-07
-1.07167e-07
8.68448e-07
-1.03948e-07
9.68575e-07
-1.00446e-07
1.065e-06
-9.67226e-08
1.15753e-06
-9.28258e-08
1.24605e-06
-8.87986e-08
1.33047e-06
-8.46763e-08
1.41072e-06
-8.04984e-08
1.48677e-06
-7.62784e-08
1.55856e-06
-7.19986e-08
1.62599e-06
-6.76382e-08
1.68895e-06
-6.3147e-08
1.74716e-06
-5.83938e-08
1.80012e-06
-5.31236e-08
1.84677e-06
-4.68123e-08
1.88462e-06
-3.80086e-08
1.90739e-06
-2.29195e-08
1.89432e-06
1.29526e-08
8.33834e-08
1.81085e-06
7.36706e-09
-2.36773e-08
6.3413e-09
-1.23767e-08
6.40813e-10
-2.28634e-10
-8.464e-09
1.07154e-08
-2.06216e-08
2.02155e-08
-3.57705e-08
2.8175e-08
-5.37222e-08
3.46302e-08
-7.4195e-08
3.97558e-08
-9.68153e-08
4.38028e-08
-1.21284e-07
4.70327e-08
-1.47315e-07
4.96789e-08
-1.74727e-07
5.19283e-08
-2.03369e-07
5.39199e-08
-2.33179e-07
5.57524e-08
-2.64103e-07
5.74965e-08
-2.96133e-07
5.91993e-08
-3.29249e-07
6.08906e-08
-3.63465e-07
6.25876e-08
-3.98776e-07
6.42992e-08
-4.35184e-07
6.60201e-08
-4.72745e-07
6.77245e-08
-5.11491e-07
6.94232e-08
-5.513e-07
7.11903e-08
-5.92226e-07
7.29979e-08
-6.34491e-07
7.47551e-08
-6.78056e-07
7.66383e-08
-7.22303e-07
7.89885e-08
-7.66758e-07
8.17044e-08
-8.10609e-07
8.44357e-08
-8.54223e-07
8.6468e-08
-8.98465e-07
8.73483e-08
-9.39451e-07
8.75591e-08
-9.83584e-07
8.54318e-08
-1.03371e-06
8.24498e-08
-1.07891e-06
8.20677e-08
-1.12148e-06
8.22633e-08
-1.16266e-06
8.24413e-08
-1.20309e-06
8.24582e-08
-1.24303e-06
8.23133e-08
-1.28258e-06
8.20478e-08
-1.32177e-06
8.1701e-08
-1.36064e-06
8.12995e-08
-1.39918e-06
8.08621e-08
-1.43741e-06
8.03992e-08
-1.47532e-06
7.99178e-08
-1.51292e-06
7.94202e-08
-1.55019e-06
7.89077e-08
-1.58714e-06
7.83787e-08
-1.62375e-06
7.78317e-08
-1.66003e-06
7.72629e-08
-1.69595e-06
7.66696e-08
-1.7315e-06
7.6047e-08
-1.76666e-06
7.53921e-08
-1.80142e-06
7.46999e-08
-1.83576e-06
7.3967e-08
-1.86966e-06
7.31888e-08
-1.90308e-06
7.23623e-08
-1.93601e-06
7.14831e-08
-1.96841e-06
7.05487e-08
-2.00028e-06
6.9555e-08
-2.03156e-06
6.85001e-08
-2.06224e-06
6.73807e-08
-2.09228e-06
6.61954e-08
-2.12166e-06
6.49415e-08
-2.15034e-06
6.36183e-08
-2.17829e-06
6.22238e-08
-2.20548e-06
6.07583e-08
-2.23188e-06
5.92205e-08
-2.25746e-06
5.76114e-08
-2.28219e-06
5.59305e-08
-2.30603e-06
5.41797e-08
-2.32896e-06
5.23591e-08
-2.35095e-06
5.04715e-08
-2.37198e-06
4.85173e-08
-2.39201e-06
4.65e-08
-2.41103e-06
4.44212e-08
-2.42901e-06
4.22854e-08
-2.44593e-06
4.00951e-08
-2.46176e-06
3.78554e-08
-2.47649e-06
3.5569e-08
-2.49011e-06
3.3242e-08
-2.5026e-06
3.08779e-08
-2.51394e-06
2.84823e-08
-2.52413e-06
2.60581e-08
-2.53315e-06
2.36113e-08
-2.54101e-06
2.11447e-08
-2.5477e-06
1.86644e-08
-2.55322e-06
1.61751e-08
-2.55756e-06
1.3681e-08
-2.56074e-06
1.11864e-08
-2.56278e-06
8.6889e-09
-2.56371e-06
6.19413e-09
-2.56354e-06
3.70857e-09
-2.56234e-06
1.24296e-09
-2.56017e-06
-1.18532e-09
-2.55715e-06
-3.5452e-09
-2.55326e-06
-5.81229e-09
-2.54839e-06
-7.99237e-09
-2.54247e-06
-1.01106e-08
-2.53554e-06
-1.21808e-08
-2.52759e-06
-1.42072e-08
-2.51865e-06
-1.61969e-08
-2.50873e-06
-1.81575e-08
-2.49784e-06
-2.0091e-08
-2.486e-06
-2.19991e-08
-2.4732e-06
-2.38833e-08
-2.45946e-06
-2.57471e-08
-2.44478e-06
-2.75952e-08
-2.42917e-06
-2.94339e-08
-2.41261e-06
-3.12703e-08
-2.39512e-06
-3.31121e-08
-2.37668e-06
-3.49682e-08
-2.35728e-06
-3.68478e-08
-2.33689e-06
-3.87628e-08
-2.3155e-06
-4.07242e-08
-2.29308e-06
-4.27459e-08
-2.26957e-06
-4.48384e-08
-2.24494e-06
-4.70144e-08
-2.21912e-06
-4.92913e-08
-2.19207e-06
-5.16961e-08
-2.16374e-06
-5.425e-08
-2.13404e-06
-5.69752e-08
-2.10289e-06
-5.98719e-08
-2.07015e-06
-6.29524e-08
-2.03571e-06
-6.62139e-08
-1.99947e-06
-6.96863e-08
-1.96129e-06
-7.33738e-08
-1.92106e-06
-7.73136e-08
-1.87863e-06
-8.15017e-08
-1.83388e-06
-8.59743e-08
-1.78666e-06
-9.07195e-08
-1.73681e-06
-9.57639e-08
-1.68418e-06
-1.01083e-07
-1.62864e-06
-1.06705e-07
-1.57002e-06
-1.12608e-07
-1.50819e-06
-1.18794e-07
-1.44302e-06
-1.25229e-07
-1.37438e-06
-1.3192e-07
-1.30217e-06
-1.38822e-07
-1.22635e-06
-1.45891e-07
-1.14683e-06
-1.53069e-07
-1.06362e-06
-1.60304e-07
-9.76697e-07
-1.6753e-07
-8.86123e-07
-1.74695e-07
-7.91974e-07
-1.81711e-07
-6.94385e-07
-1.88509e-07
-5.93522e-07
-1.94995e-07
-4.89605e-07
-2.01113e-07
-3.82878e-07
-2.06787e-07
-2.73636e-07
-2.11971e-07
-1.6212e-07
-2.16653e-07
-4.84934e-08
-2.20884e-07
6.69303e-08
-2.24525e-07
1.83321e-07
-2.27492e-07
2.99434e-07
-2.29657e-07
4.14207e-07
-2.30647e-07
5.27591e-07
-2.30037e-07
6.39516e-07
-2.27985e-07
7.49597e-07
-2.24751e-07
8.5743e-07
-2.2054e-07
9.62664e-07
-2.15472e-07
1.06497e-06
-2.09686e-07
1.1641e-06
-2.03271e-07
1.2598e-06
-1.96357e-07
1.35191e-06
-1.89029e-07
1.44028e-06
-1.81393e-07
1.52481e-06
-1.73508e-07
1.60541e-06
-1.65457e-07
1.68202e-06
-1.57283e-07
1.7546e-06
-1.49026e-07
1.82311e-06
-1.4066e-07
1.88747e-06
-1.32154e-07
1.94757e-06
-1.23384e-07
2.00315e-06
-1.14115e-07
2.05376e-06
-1.03862e-07
2.09855e-06
-9.17246e-08
2.13588e-06
-7.54608e-08
2.16379e-06
-5.09401e-08
2.18148e-06
-4.83418e-09
8.40729e-08
2.18073e-06
-4.8885e-09
-1.88317e-08
-1.56415e-08
-1.66847e-09
-2.85793e-08
1.26858e-08
-4.31139e-08
2.52268e-08
-5.91567e-08
3.62432e-08
-7.68417e-08
4.584e-08
-9.63003e-08
5.4076e-08
-1.17615e-07
6.10515e-08
-1.40751e-07
6.69273e-08
-1.65637e-07
7.19011e-08
-1.92147e-07
7.6177e-08
-2.20176e-07
7.99412e-08
-2.49615e-07
8.33489e-08
-2.80396e-07
8.65198e-08
-3.12449e-07
8.95403e-08
-3.4573e-07
9.24675e-08
-3.80184e-07
9.53358e-08
-4.15766e-07
9.8158e-08
-4.52404e-07
1.00929e-07
-4.90024e-07
1.03627e-07
-5.28536e-07
1.06227e-07
-5.67837e-07
1.08711e-07
-6.07747e-07
1.1109e-07
-6.48113e-07
1.1335e-07
-6.88835e-07
1.15466e-07
-7.29698e-07
1.17487e-07
-7.70224e-07
1.19503e-07
-8.09963e-07
1.2143e-07
-8.4861e-07
1.23069e-07
-8.86306e-07
1.24149e-07
-9.23425e-07
1.24454e-07
-9.59967e-07
1.24085e-07
-9.97485e-07
1.22934e-07
-1.03647e-06
1.21418e-07
-1.07475e-06
1.20335e-07
-1.11208e-06
1.19577e-07
-1.14862e-06
1.18966e-07
-1.18457e-06
1.18391e-07
-1.22008e-06
1.17803e-07
-1.25523e-06
1.17188e-07
-1.29009e-06
1.16544e-07
-1.32468e-06
1.15876e-07
-1.35902e-06
1.1519e-07
-1.39312e-06
1.14487e-07
-1.42698e-06
1.13768e-07
-1.4606e-06
1.13031e-07
-1.49398e-06
1.12276e-07
-1.52711e-06
1.11497e-07
-1.55998e-06
1.1069e-07
-1.59258e-06
1.09851e-07
-1.62489e-06
1.08974e-07
-1.65691e-06
1.08053e-07
-1.68861e-06
1.07082e-07
-1.71999e-06
1.06057e-07
-1.751e-06
1.0497e-07
-1.78165e-06
1.03817e-07
-1.81189e-06
1.02592e-07
-1.84172e-06
1.0129e-07
-1.8711e-06
9.99078e-08
-1.9e-06
9.84399e-08
-1.9284e-06
9.68828e-08
-1.95627e-06
9.52331e-08
-1.98358e-06
9.34879e-08
-2.0103e-06
9.16445e-08
-2.0364e-06
8.97011e-08
-2.06185e-06
8.76561e-08
-2.08662e-06
8.55085e-08
-2.11067e-06
8.32579e-08
-2.13398e-06
8.09047e-08
-2.15652e-06
7.84491e-08
-2.17825e-06
7.58928e-08
-2.19914e-06
7.32372e-08
-2.21917e-06
7.04846e-08
-2.23831e-06
6.76378e-08
-2.25652e-06
6.47e-08
-2.2738e-06
6.1675e-08
-2.2901e-06
5.85678e-08
-2.30541e-06
5.53832e-08
-2.3197e-06
5.21269e-08
-2.33296e-06
4.88045e-08
-2.34516e-06
4.54229e-08
-2.35629e-06
4.19883e-08
-2.36634e-06
3.85077e-08
-2.37529e-06
3.49876e-08
-2.38314e-06
3.14352e-08
-2.38988e-06
2.78575e-08
-2.3955e-06
2.42626e-08
-2.4e-06
2.06577e-08
-2.40339e-06
1.70524e-08
-2.40567e-06
1.34513e-08
-2.40687e-06
9.86264e-09
-2.407e-06
6.29462e-09
-2.40608e-06
2.75854e-09
-2.40415e-06
-7.30041e-10
-2.40122e-06
-4.15541e-09
-2.3973e-06
-7.50087e-09
-2.39239e-06
-1.07625e-08
-2.38646e-06
-1.39521e-08
-2.37953e-06
-1.70818e-08
-2.3716e-06
-2.01542e-08
-2.36267e-06
-2.31725e-08
-2.35277e-06
-2.61422e-08
-2.3419e-06
-2.90705e-08
-2.33008e-06
-3.19606e-08
-2.31731e-06
-3.48169e-08
-2.3036e-06
-3.76421e-08
-2.28896e-06
-4.04431e-08
-2.27338e-06
-4.32257e-08
-2.25686e-06
-4.60006e-08
-2.2394e-06
-4.87757e-08
-2.221e-06
-5.15649e-08
-2.20164e-06
-5.4378e-08
-2.18132e-06
-5.72321e-08
-2.15999e-06
-6.01401e-08
-2.13766e-06
-6.31233e-08
-2.11426e-06
-6.6197e-08
-2.08978e-06
-6.9383e-08
-2.06415e-06
-7.26984e-08
-2.03732e-06
-7.6173e-08
-2.00925e-06
-7.98371e-08
-1.97986e-06
-8.37263e-08
-1.94909e-06
-8.78618e-08
-1.91683e-06
-9.22637e-08
-1.88297e-06
-9.69366e-08
-1.8474e-06
-1.01904e-07
-1.80999e-06
-1.07182e-07
-1.77064e-06
-1.12805e-07
-1.72921e-06
-1.18793e-07
-1.68557e-06
-1.25174e-07
-1.63958e-06
-1.31964e-07
-1.5911e-06
-1.39186e-07
-1.53996e-06
-1.46843e-07
-1.48603e-06
-1.5494e-07
-1.42915e-06
-1.63483e-07
-1.36917e-06
-1.72468e-07
-1.30595e-06
-1.81873e-07
-1.23936e-06
-1.91672e-07
-1.16928e-06
-2.01844e-07
-1.09563e-06
-2.12319e-07
-1.01834e-06
-2.23031e-07
-9.37375e-07
-2.33913e-07
-8.52701e-07
-2.44875e-07
-7.64351e-07
-2.55803e-07
-6.72398e-07
-2.66588e-07
-5.76958e-07
-2.7711e-07
-4.78189e-07
-2.87249e-07
-3.76296e-07
-2.96876e-07
-2.71524e-07
-3.05879e-07
-1.64157e-07
-3.14164e-07
-5.44742e-08
-3.21667e-07
5.71439e-08
-3.28298e-07
1.70132e-07
-3.33897e-07
2.83851e-07
-3.38281e-07
3.97659e-07
-3.41334e-07
5.10859e-07
-3.42902e-07
6.2288e-07
-3.4271e-07
7.33427e-07
-3.40636e-07
8.42219e-07
-3.36824e-07
9.48895e-07
-3.31481e-07
1.05311e-06
-3.24802e-07
1.15454e-06
-3.16958e-07
1.25292e-06
-3.08111e-07
1.34801e-06
-2.98412e-07
1.43963e-06
-2.88014e-07
1.52761e-06
-2.77057e-07
1.61184e-06
-2.65669e-07
1.69225e-06
-2.5396e-07
1.76878e-06
-2.4202e-07
1.84139e-06
-2.29928e-07
1.91006e-06
-2.17729e-07
1.97478e-06
-2.0541e-07
2.0355e-06
-1.92899e-07
2.09212e-06
-1.80031e-07
2.14444e-06
-1.66469e-07
2.19214e-06
-1.51583e-07
2.2346e-06
-1.34212e-07
2.27096e-06
-1.11851e-07
2.30018e-06
-8.01875e-08
2.32388e-06
-2.85549e-08
6.09715e-08
2.34698e-06
-1.41273e-08
-4.73893e-09
-3.13325e-08
1.55041e-08
-4.94038e-08
3.07404e-08
-6.80939e-08
4.38994e-08
-8.74614e-08
5.55994e-08
-1.07694e-07
6.60573e-08
-1.28986e-07
7.53583e-08
-1.51521e-07
8.35713e-08
-1.75398e-07
9.07954e-08
-2.00674e-07
9.71625e-08
-2.27328e-07
1.02823e-07
-2.55325e-07
1.07925e-07
-2.84588e-07
1.12603e-07
-3.15046e-07
1.16967e-07
-3.46609e-07
1.21095e-07
-3.7919e-07
1.25038e-07
-4.12681e-07
1.2882e-07
-4.46974e-07
1.32441e-07
-4.81932e-07
1.3588e-07
-5.17421e-07
1.39106e-07
-5.53291e-07
1.42089e-07
-5.89403e-07
1.44812e-07
-6.25592e-07
1.47271e-07
-6.61717e-07
1.49464e-07
-6.97655e-07
1.51394e-07
-7.33263e-07
1.53085e-07
-7.68328e-07
1.54559e-07
-8.02685e-07
1.55777e-07
-8.36276e-07
1.56651e-07
-8.69216e-07
1.57078e-07
-9.01766e-07
1.56994e-07
-9.34153e-07
1.5646e-07
-9.66783e-07
1.55552e-07
-9.99813e-07
1.54436e-07
-1.03283e-06
1.53342e-07
-1.06561e-06
1.52338e-07
-1.09806e-06
1.51412e-07
-1.13022e-06
1.50534e-07
-1.1621e-06
1.49678e-07
-1.19376e-06
1.48829e-07
-1.2252e-06
1.47979e-07
-1.25646e-06
1.47124e-07
-1.28754e-06
1.46259e-07
-1.31845e-06
1.45383e-07
-1.34918e-06
1.4449e-07
-1.37973e-06
1.43577e-07
-1.4101e-06
1.42639e-07
-1.44028e-06
1.41668e-07
-1.47026e-06
1.4066e-07
-1.50002e-06
1.39606e-07
-1.52956e-06
1.385e-07
-1.55885e-06
1.37334e-07
-1.58788e-06
1.36101e-07
-1.61662e-06
1.34794e-07
-1.64507e-06
1.33404e-07
-1.67319e-06
1.31927e-07
-1.70097e-06
1.30354e-07
-1.72837e-06
1.28681e-07
-1.75538e-06
1.269e-07
-1.78196e-06
1.25007e-07
-1.80809e-06
1.22998e-07
-1.83373e-06
1.20867e-07
-1.85887e-06
1.18611e-07
-1.88347e-06
1.16227e-07
-1.90749e-06
1.13712e-07
-1.93091e-06
1.11064e-07
-1.9537e-06
1.08283e-07
-1.97583e-06
1.05367e-07
-1.99725e-06
1.02318e-07
-2.01795e-06
9.91344e-08
-2.03789e-06
9.58193e-08
-2.05704e-06
9.23747e-08
-2.07537e-06
8.88034e-08
-2.09285e-06
8.51089e-08
-2.10946e-06
8.12954e-08
-2.12517e-06
7.73682e-08
-2.13995e-06
7.33331e-08
-2.15378e-06
6.91965e-08
-2.16663e-06
6.49657e-08
-2.17849e-06
6.06482e-08
-2.18933e-06
5.62525e-08
-2.19915e-06
5.17871e-08
-2.20792e-06
4.72611e-08
-2.21563e-06
4.26837e-08
-2.22228e-06
3.80646e-08
-2.22786e-06
3.34137e-08
-2.23235e-06
2.87414e-08
-2.23577e-06
2.40591e-08
-2.23811e-06
1.93767e-08
-2.23937e-06
1.47068e-08
-2.23958e-06
1.00571e-08
-2.23875e-06
5.44122e-09
-2.23689e-06
8.71546e-10
-2.23401e-06
-3.63702e-09
-2.23012e-06
-8.07186e-09
-2.22522e-06
-1.24229e-08
-2.21932e-06
-1.66893e-08
-2.21242e-06
-2.08777e-08
-2.20453e-06
-2.49955e-08
-2.19567e-06
-2.90454e-08
-2.18584e-06
-3.30312e-08
-2.17506e-06
-3.6958e-08
-2.16333e-06
-4.08325e-08
-2.15067e-06
-4.46592e-08
-2.13708e-06
-4.84447e-08
-2.12257e-06
-5.21939e-08
-2.10714e-06
-5.59164e-08
-2.09078e-06
-5.96204e-08
-2.0735e-06
-6.33193e-08
-2.05529e-06
-6.70239e-08
-2.03615e-06
-7.07514e-08
-2.01606e-06
-7.4515e-08
-1.99499e-06
-7.83367e-08
-1.97295e-06
-8.22331e-08
-1.94989e-06
-8.62324e-08
-1.92578e-06
-9.03542e-08
-1.90058e-06
-9.46287e-08
-1.87424e-06
-9.90794e-08
-1.84671e-06