/*--------------------------------*- C++ -*----------------------------------*\
  =========                 |
  \\      /  F ield         | OpenFOAM: The Open Source CFD Toolbox
   \\    /   O peration     | Website:  https://openfoam.org
    \\  /    A nd           | Version:  9
     \\/     M anipulation  |
\*---------------------------------------------------------------------------*/
FoamFile
{
    format      ascii;
    class       volVectorField;
    location    "175";
    object      U;
}
// * * * * * * * * * * * * * * * * * * * * * * * * * * * * * * * * * * * * * //

dimensions      [0 1 -1 0 0 0 0];

internalField   nonuniform List<vector> 
12225
(
(9.857 -0.886623 0)
(9.66628 -0.74072 0)
(9.45575 -0.42942 0)
(9.22445 -0.222144 0)
(9.00639 -0.10639 0)
(8.81421 -0.0458015 0)
(8.64722 -0.0151154 0)
(8.50498 0.000512109 0)
(8.38317 0.00844553 0)
(8.28029 0.0123442 0)
(8.19166 0.0140546 0)
(8.11524 0.0151054 0)
(8.04811 0.0154798 0)
(7.98856 0.0157864 0)
(7.93464 0.015713 0)
(7.88698 0.0167521 0)
(7.83015 0.0201278 0)
(7.8204 0.0139495 0)
(10.0545 0.227702 0)
(10.1213 0.326975 0)
(10.1196 0.261657 0)
(10.0855 0.186605 0)
(10.0434 0.134713 0)
(9.99664 0.101155 0)
(9.9439 0.0793299 0)
(9.88508 0.0646101 0)
(9.82368 0.0543144 0)
(9.76105 0.046741 0)
(9.6995 0.0410017 0)
(9.63954 0.0364814 0)
(9.58206 0.0328876 0)
(9.52747 0.0301114 0)
(9.4752 0.0278054 0)
(9.42749 0.0269786 0)
(9.37856 0.0242379 0)
(9.34494 0.0362414 0)
(10.0035 0.0581569 0)
(10.0305 0.0559541 0)
(10.056 0.0337866 0)
(10.0703 0.0329026 0)
(10.0769 0.0406598 0)
(10.0777 0.0465666 0)
(10.0724 0.0493909 0)
(10.0612 0.05035 0)
(10.0459 0.0502674 0)
(10.0274 0.0495797 0)
(10.0068 0.0485727 0)
(9.98445 0.0474641 0)
(9.96115 0.0463572 0)
(9.93729 0.0454233 0)
(9.91303 0.0445459 0)
(9.88926 0.0446061 0)
(9.86541 0.0443578 0)
(9.84356 0.0479779 0)
(9.99772 0.0109514 0)
(10.0111 0.0266273 0)
(10.035 0.0371364 0)
(10.0525 0.0480875 0)
(10.0643 0.0554671 0)
(10.0733 0.0582118 0)
(10.0794 0.0583973 0)
(10.0822 0.0576748 0)
(10.0826 0.0566518 0)
(10.0809 0.0554913 0)
(10.0778 0.0542686 0)
(10.0733 0.0531123 0)
(10.0677 0.0520261 0)
(10.0614 0.0511473 0)
(10.0544 0.0503902 0)
(10.0472 0.0503156 0)
(10.0399 0.0502807 0)
(10.033 0.0517558 0)
(9.99935 0.0071037 0)
(10.009 0.0317058 0)
(10.0275 0.0439264 0)
(10.0418 0.0499372 0)
(10.0527 0.0536392 0)
(10.0628 0.0552775 0)
(10.0714 0.0555759 0)
(10.0782 0.0553091 0)
(10.0832 0.0547972 0)
(10.087 0.0541361 0)
(10.0897 0.0533865 0)
(10.0915 0.0526537 0)
(10.0925 0.0519646 0)
(10.093 0.0514224 0)
(10.093 0.0510063 0)
(10.0928 0.0510107 0)
(10.0926 0.0511313 0)
(10.0927 0.0517714 0)
(10.0003 0.00915402 0)
(10.0083 0.0312247 0)
(10.0227 0.0409684 0)
(10.0349 0.0454219 0)
(10.045 0.0490784 0)
(10.0547 0.0514282 0)
(10.0636 0.0524296 0)
(10.0712 0.0526892 0)
(10.0776 0.0525911 0)
(10.0832 0.0522769 0)
(10.0879 0.0518286 0)
(10.092 0.0513437 0)
(10.0955 0.0508699 0)
(10.0986 0.0504835 0)
(10.1014 0.050194 0)
(10.104 0.0501384 0)
(10.1066 0.0501634 0)
(10.1096 0.0502679 0)
(10.0004 0.00892951 0)
(10.0071 0.0271282 0)
(10.0191 0.0364445 0)
(10.0301 0.0414305 0)
(10.0395 0.0454656 0)
(10.0486 0.0481474 0)
(10.0571 0.0494388 0)
(10.0648 0.0499378 0)
(10.0715 0.0500503 0)
(10.0775 0.0499263 0)
(10.083 0.0496497 0)
(10.088 0.0493064 0)
(10.0925 0.0489512 0)
(10.0967 0.0486389 0)
(10.1006 0.0483856 0)
(10.1044 0.0482429 0)
(10.1083 0.0481138 0)
(10.1124 0.0478836 0)
(10.0004 0.00790767 0)
(10.006 0.0234079 0)
(10.0161 0.032771 0)
(10.0262 0.0381491 0)
(10.0351 0.0421575 0)
(10.0435 0.0448593 0)
(10.0516 0.0462947 0)
(10.059 0.0469603 0)
(10.0657 0.0472244 0)
(10.0719 0.047236 0)
(10.0776 0.0470794 0)
(10.0828 0.0468319 0)
(10.0878 0.0465488 0)
(10.0924 0.0462704 0)
(10.0969 0.0460097 0)
(10.1013 0.0457745 0)
(10.1056 0.0454916 0)
(10.1101 0.0450396 0)
(10.0004 0.00695904 0)
(10.005 0.0204482 0)
(10.0137 0.0294916 0)
(10.0228 0.0349145 0)
(10.0311 0.0387819 0)
(10.0391 0.0414646 0)
(10.0467 0.0430233 0)
(10.0539 0.0438313 0)
(10.0604 0.0442153 0)
(10.0665 0.0443291 0)
(10.0722 0.0442587 0)
(10.0776 0.0440756 0)
(10.0827 0.043832 0)
(10.0875 0.0435592 0)
(10.0922 0.043265 0)
(10.0968 0.0429387 0)
(10.1013 0.0425208 0)
(10.1059 0.0419177 0)
(10.0004 0.00613294 0)
(10.0043 0.0178809 0)
(10.0116 0.0263161 0)
(10.0198 0.0316397 0)
(10.0276 0.0353837 0)
(10.035 0.0380332 0)
(10.0423 0.0396738 0)
(10.0492 0.0405873 0)
(10.0556 0.0410603 0)
(10.0615 0.0412492 0)
(10.0672 0.0412399 0)
(10.0725 0.0410987 0)
(10.0776 0.0408731 0)
(10.0825 0.0405891 0)
(10.0872 0.0402511 0)
(10.0919 0.0398429 0)
(10.0964 0.0393174 0)
(10.101 0.0386142 0)
(10.0003 0.00537593 0)
(10.0036 0.0155728 0)
(10.0099 0.0232807 0)
(10.0172 0.0284086 0)
(10.0244 0.0320128 0)
(10.0314 0.0345877 0)
(10.0383 0.0362553 0)
(10.0449 0.0372345 0)
(10.051 0.0377694 0)
(10.0569 0.038011 0)
(10.0624 0.0380439 0)
(10.0677 0.0379284 0)
(10.0727 0.0377078 0)
(10.0776 0.037405 0)
(10.0823 0.037023 0)
(10.0869 0.0365476 0)
(10.0913 0.0359438 0)
(10.0958 0.0351794 0)
(10.0003 0.00471259 0)
(10.0032 0.0136344 0)
(10.0086 0.020637 0)
(10.0152 0.0255009 0)
(10.0219 0.0289407 0)
(10.0285 0.0314114 0)
(10.035 0.0330612 0)
(10.0413 0.0340676 0)
(10.0472 0.0346363 0)
(10.0529 0.034908 0)
(10.0583 0.0349643 0)
(10.0635 0.034861 0)
(10.0685 0.0346376 0)
(10.0733 0.034315 0)
(10.0779 0.0338976 0)
(10.0824 0.0333749 0)
(10.0868 0.0327229 0)
(10.0911 0.0319303 0)
(10.0003 0.00409896 0)
(10.0028 0.0118673 0)
(10.0075 0.0181402 0)
(10.0134 0.0226637 0)
(10.0196 0.0259043 0)
(10.0258 0.028245 0)
(10.032 0.0298437 0)
(10.038 0.0308494 0)
(10.0438 0.0314324 0)
(10.0493 0.0317194 0)
(10.0546 0.0317879 0)
(10.0597 0.0316895 0)
(10.0645 0.0314601 0)
(10.0692 0.0311199 0)
(10.0738 0.0306747 0)
(10.0782 0.0301198 0)
(10.0824 0.0294391 0)
(10.0865 0.0286381 0)
(10.0002 0.003465 0)
(10.0024 0.0100312 0)
(10.0064 0.0154623 0)
(10.0117 0.0195203 0)
(10.0174 0.0224778 0)
(10.0232 0.0246282 0)
(10.029 0.0261244 0)
(10.0347 0.0270909 0)
(10.0402 0.027662 0)
(10.0455 0.0279461 0)
(10.0507 0.0280138 0)
(10.0556 0.0279121 0)
(10.0604 0.027673 0)
(10.0649 0.0273161 0)
(10.0694 0.0268492 0)
(10.0736 0.0262735 0)
(10.0777 0.0255808 0)
(10.0817 0.0247886 0)
(10.0002 0.00280661 0)
(10.002 0.00812396 0)
(10.0055 0.012613 0)
(10.0101 0.0160753 0)
(10.0153 0.0186471 0)
(10.0206 0.0205311 0)
(10.026 0.0218598 0)
(10.0314 0.0227339 0)
(10.0367 0.023255 0)
(10.0418 0.0235093 0)
(10.0467 0.0235577 0)
(10.0515 0.0234411 0)
(10.0561 0.023188 0)
(10.0605 0.0228165 0)
(10.0648 0.0223372 0)
(10.0689 0.0217552 0)
(10.0728 0.0210704 0)
(10.0766 0.0203057 0)
(10.0002 0.00212294 0)
(10.0017 0.00614717 0)
(10.0047 0.00960013 0)
(10.0087 0.0123327 0)
(10.0134 0.0143987 0)
(10.0183 0.0159226 0)
(10.0233 0.0170037 0)
(10.0283 0.0177179 0)
(10.0333 0.0181372 0)
(10.0382 0.0183247 0)
(10.0429 0.0183286 0)
(10.0475 0.018182 0)
(10.052 0.017909 0)
(10.0562 0.0175259 0)
(10.0603 0.0170444 0)
(10.0643 0.0164727 0)
(10.068 0.0158145 0)
(10.0716 0.0150966 0)
(10.0002 0.00141088 0)
(10.0015 0.0040862 0)
(10.0041 0.00640653 0)
(10.0076 0.008274 0)
(10.0118 0.00970257 0)
(10.0163 0.0107567 0)
(10.0209 0.0114972 0)
(10.0257 0.011973 0)
(10.0304 0.0122286 0)
(10.035 0.0123048 0)
(10.0395 0.0122336 0)
(10.0439 0.0120393 0)
(10.0482 0.0117391 0)
(10.0523 0.011347 0)
(10.0562 0.0108728 0)
(10.06 0.0103261 0)
(10.0635 0.00971121 0)
(10.067 0.00905514 0)
(10.0001 0.000653786 0)
(10.0013 0.00188862 0)
(10.0036 0.00295892 0)
(10.0069 0.00381784 0)
(10.0107 0.00446626 0)
(10.0149 0.00492655 0)
(10.0192 0.00522153 0)
(10.0237 0.00537095 0)
(10.0282 0.00539375 0)
(10.0326 0.0053077 0)
(10.0369 0.00512754 0)
(10.0411 0.00486506 0)
(10.0452 0.00452963 0)
(10.0491 0.00412935 0)
(10.0529 0.00367108 0)
(10.0565 0.00316183 0)
(10.0599 0.00260551 0)
(10.0631 0.00202469 0)
(10.0001 -0.000191662 0)
(10.0013 -0.000568307 0)
(10.0035 -0.000917065 0)
(10.0066 -0.00122956 0)
(10.0103 -0.001505 0)
(10.0143 -0.00175736 0)
(10.0185 -0.00200489 0)
(10.0229 -0.00225967 0)
(10.0272 -0.00252968 0)
(10.0315 -0.00282067 0)
(10.0357 -0.00313784 0)
(10.0397 -0.00348383 0)
(10.0437 -0.00386027 0)
(10.0474 -0.00426675 0)
(10.051 -0.00470259 0)
(10.0545 -0.00516515 0)
(10.0578 -0.00565376 0)
(10.0609 -0.00615201 0)
(10.0001 -0.00100091 0)
(10.0013 -0.00292716 0)
(10.0037 -0.00464489 0)
(10.007 -0.00607471 0)
(10.0109 -0.00721306 0)
(10.015 -0.00812013 0)
(10.0194 -0.00885725 0)
(10.0237 -0.009467 0)
(10.0281 -0.00998348 0)
(10.0324 -0.0104391 0)
(10.0366 -0.0108583 0)
(10.0406 -0.011259 0)
(10.0445 -0.0116518 0)
(10.0482 -0.0120452 0)
(10.0518 -0.0124437 0)
(10.0551 -0.0128505 0)
(10.0584 -0.0132672 0)
(10.0614 -0.0136843 0)
(10.0002 -0.00169888 0)
(10.0015 -0.00498755 0)
(10.0041 -0.00790327 0)
(10.0078 -0.010244 0)
(10.012 -0.0120307 0)
(10.0165 -0.0134139 0)
(10.021 -0.0144996 0)
(10.0256 -0.0153454 0)
(10.0301 -0.016008 0)
(10.0345 -0.0165466 0)
(10.0387 -0.0170054 0)
(10.0428 -0.0174139 0)
(10.0466 -0.0177909 0)
(10.0503 -0.0181509 0)
(10.0539 -0.0185028 0)
(10.0572 -0.0188527 0)
(10.0604 -0.0192041 0)
(10.0634 -0.019551 0)
(10.0002 -0.00236155 0)
(10.0017 -0.00702291 0)
(10.0047 -0.0111588 0)
(10.009 -0.0143205 0)
(10.0137 -0.0166088 0)
(10.0186 -0.0183344 0)
(10.0234 -0.0196577 0)
(10.0282 -0.0206496 0)
(10.0329 -0.0213919 0)
(10.0374 -0.0219655 0)
(10.0417 -0.0224276 0)
(10.0458 -0.0228146 0)
(10.0498 -0.0231536 0)
(10.0535 -0.0234636 0)
(10.057 -0.0237586 0)
(10.0603 -0.0240453 0)
(10.0635 -0.0243302 0)
(10.0665 -0.024608 0)
(10.0002 -0.00298123 0)
(10.0018 -0.00908386 0)
(10.0054 -0.0144369 0)
(10.0105 -0.0183206 0)
(10.0159 -0.0210583 0)
(10.0212 -0.0230744 0)
(10.0264 -0.0245242 0)
(10.0315 -0.0255331 0)
(10.0363 -0.0262554 0)
(10.041 -0.0268012 0)
(10.0454 -0.027227 0)
(10.0496 -0.0275687 0)
(10.0535 -0.0278558 0)
(10.0573 -0.0281107 0)
(10.0608 -0.0283476 0)
(10.0642 -0.028575 0)
(10.0673 -0.0287983 0)
(10.0703 -0.0290153 0)
(10.0001 -0.00352593 0)
(10.0018 -0.0115435 0)
(10.0063 -0.0178799 0)
(10.0123 -0.0219728 0)
(10.0183 -0.025034 0)
(10.0241 -0.0274384 0)
(10.0297 -0.029072 0)
(10.0351 -0.0300782 0)
(10.0402 -0.0307274 0)
(10.045 -0.0311845 0)
(10.0495 -0.0315172 0)
(10.0537 -0.0317664 0)
(10.0578 -0.0319656 0)
(10.0615 -0.0321393 0)
(10.0651 -0.0323003 0)
(10.0684 -0.0324567 0)
(10.0715 -0.0326113 0)
(10.0745 -0.0327618 0)
(9.99991 -0.00337065 0)
(10.0016 -0.014978 0)
(10.0073 -0.0227267 0)
(10.0142 -0.026231 0)
(10.0206 -0.0288117 0)
(10.0269 -0.0311727 0)
(10.0331 -0.0328903 0)
(10.0391 -0.0339755 0)
(10.0445 -0.034673 0)
(10.0495 -0.0351351 0)
(10.0541 -0.0354323 0)
(10.0585 -0.0356189 0)
(10.0625 -0.0357412 0)
(10.0662 -0.0358297 0)
(10.0696 -0.0359029 0)
(10.0728 -0.0359706 0)
(10.0757 -0.0360375 0)
(10.0784 -0.0361024 0)
(9.99859 -0.000378734 0)
(9.99904 -0.0157909 0)
(10.0076 -0.0274273 0)
(10.0166 -0.03248 0)
(10.0238 -0.0348526 0)
(10.0307 -0.0362056 0)
(10.0377 -0.0369551 0)
(10.0442 -0.0374204 0)
(10.0499 -0.0377679 0)
(10.0551 -0.038014 0)
(10.0596 -0.0381585 0)
(10.0637 -0.038227 0)
(10.0673 -0.0382488 0)
(10.0705 -0.0382454 0)
(10.0732 -0.0382319 0)
(10.0757 -0.0382169 0)
(10.0778 -0.0382044 0)
(10.0797 -0.0381918 0)
(9.99487 0.00140778 0)
(9.99287 -0.00811887 0)
(10.006 -0.0203239 0)
(10.0202 -0.0322537 0)
(10.0307 -0.0404583 0)
(10.0393 -0.0441305 0)
(10.0468 -0.0450425 0)
(10.0529 -0.0448981 0)
(10.0578 -0.0444311 0)
(10.0617 -0.0438346 0)
(10.0647 -0.0431902 0)
(10.0669 -0.0425542 0)
(10.0683 -0.0419606 0)
(10.0692 -0.041418 0)
(10.0695 -0.0409353 0)
(10.0694 -0.0405104 0)
(10.0689 -0.0401398 0)
(10.0682 -0.0397977 0)
(9.9947 -0.0305759 0)
(9.99943 -0.0228466 0)
(10.0146 -0.00261399 0)
(10.0304 -0.00189303 0)
(10.0434 -0.0116435 0)
(10.0533 -0.0209084 0)
(10.0594 -0.0272664 0)
(10.0619 -0.0314931 0)
(10.0616 -0.0342676 0)
(10.0591 -0.0359638 0)
(10.0551 -0.036896 0)
(10.0498 -0.0373299 0)
(10.0436 -0.037456 0)
(10.0366 -0.0373947 0)
(10.029 -0.0372347 0)
(10.0211 -0.037034 0)
(10.013 -0.0368559 0)
(10.0048 -0.0366681 0)
(10.0274 -0.183006 0)
(10.0766 -0.288323 0)
(10.0871 -0.247818 0)
(10.0777 -0.186554 0)
(10.0664 -0.140317 0)
(10.0538 -0.108234 0)
(10.0365 -0.0858859 0)
(10.0146 -0.0704261 0)
(9.98941 -0.0596537 0)
(9.96239 -0.0518765 0)
(9.93443 -0.0460534 0)
(9.90612 -0.0415551 0)
(9.87796 -0.0379988 0)
(9.85027 -0.035123 0)
(9.82329 -0.0327606 0)
(9.79713 -0.030838 0)
(9.77205 -0.029321 0)
(9.74806 -0.028507 0)
(9.93575 0.689542 0)
(9.86828 0.609596 0)
(9.76459 0.380608 0)
(9.62664 0.217414 0)
(9.48592 0.119246 0)
(9.35724 0.0631647 0)
(9.24274 0.0315533 0)
(9.14118 0.0136023 0)
(9.05153 0.00324918 0)
(8.97257 -0.00281121 0)
(8.90269 -0.00636447 0)
(8.84053 -0.00848265 0)
(8.78484 -0.00972936 0)
(8.73474 -0.0104875 0)
(8.68933 -0.0109691 0)
(8.64799 -0.0112467 0)
(8.60981 -0.0114721 0)
(8.57447 -0.012112 0)
(0.00805774 -0.0180117 -6.36865e-19)
(0.0221816 -0.0195031 4.49175e-19)
(0.0299919 -0.0109039 0)
(0.0318833 -0.000504752 0)
(0.0272966 0.00837736 0)
(0.0175765 0.014815 -1.88651e-19)
(0.00405857 0.0190235 0)
(-0.012173 0.0215618 0)
(-0.0303401 0.0230186 0)
(-0.0499512 0.0238423 0)
(-0.0706425 0.0243049 1.04539e-19)
(-0.0921796 0.0245396 0)
(-0.114419 0.0245893 0)
(-0.137291 0.0244515 0)
(-0.160755 0.0241401 0)
(-0.184792 0.0237042 7.29153e-20)
(-0.209437 0.023231 0)
(-0.234709 0.0228287 0)
(-0.260571 0.0227008 0)
(-0.286975 0.0230244 0)
(-0.313949 0.0236011 0)
(-0.341432 0.0247072 0)
(-0.36935 0.0268108 0)
(-0.397891 0.0291344 5.1715e-20)
(-0.427132 0.0312901 -4.97297e-20)
(-0.45694 0.0353749 4.80677e-20)
(-0.487425 0.0441862 4.71435e-20)
(-0.519896 0.0565057 0)
(-0.555208 0.0718768 0)
(-0.593178 0.0837176 -4.70631e-20)
(-0.633408 0.0884819 -4.75783e-20)
(-0.671521 0.100527 0)
(-0.710324 0.0758194 0)
(-0.748375 0.0298776 -7.2422e-20)
(-0.778249 0.031221 0)
(-0.813287 0.0333574 0)
(-0.850251 0.0348305 6.48993e-20)
(-0.888449 0.0354213 0)
(-0.927146 0.0355967 6.07451e-20)
(-0.966108 0.0355409 1.17777e-19)
(-1.00517 0.0353708 0)
(-1.04425 0.0351292 0)
(-1.08328 0.0348498 0)
(-1.12225 0.0345454 0)
(-1.16113 0.0342291 0)
(-1.1999 0.0339032 1.00137e-19)
(-1.23855 0.033574 9.77924e-20)
(-1.27708 0.0332398 9.55776e-20)
(-1.31547 0.0329036 0)
(-1.35372 0.032562 -9.14949e-20)
(-1.39182 0.0322167 0)
(-1.42976 0.0318632 8.78117e-20)
(-1.46752 0.0315028 8.60999e-20)
(-1.50508 0.0311312 0)
(-1.54243 0.0307494 0)
(-1.57955 0.0303526 0)
(-1.61642 0.029942 7.99689e-20)
(-1.65301 0.0295135 0)
(-1.68929 0.0290682 0)
(-1.72524 0.0286019 0)
(-1.76082 0.0281162 0)
(-1.79601 0.0276077 0)
(-1.83077 0.027078 0)
(-1.86507 0.0265236 0)
(-1.89887 0.0259465 0)
(-1.93213 0.0253439 -6.91133e-20)
(-1.96483 0.024718 0)
(-1.99691 0.0240665 0)
(-2.02834 0.0233921 6.60718e-20)
(-2.05909 0.0226927 6.50988e-20)
(-2.08912 0.0219712 0)
(-2.11838 0.0212257 -6.32005e-20)
(-2.14684 0.0204594 6.22709e-20)
(-2.17446 0.0196708 0)
(-2.20122 0.0188635 -6.04403e-20)
(-2.22706 0.0180358 0)
(-2.25197 0.0171923 0)
(-2.2759 0.0163325 5.77375e-20)
(-2.29883 0.0154601 0)
(-2.32072 0.0145744 -5.59436e-20)
(-2.34155 0.0136798 0)
(-2.36129 0.0127761 5.41408e-20)
(-2.37992 0.0118667 5.32322e-20)
(-2.39742 0.0109515 5.23168e-20)
(-2.41377 0.010035 1.02786e-19)
(-2.42897 0.0091188 -1.00919e-19)
(-2.44299 0.00820787 0)
(-2.45581 0.00730297 0)
(-2.46742 0.00640882 0)
(-2.47782 0.00551938 -9.32237e-20)
(-2.48702 0.00463479 -9.12346e-20)
(-2.49499 0.00374817 8.92175e-20)
(-2.50171 0.0028565 0)
(-2.50715 0.00194977 -8.50969e-20)
(-2.51128 0.00102088 -8.29928e-20)
(-2.51404 8.00313e-05 -8.08593e-20)
(-2.51532 -0.00077168 0)
(-2.51546 -0.00148431 0)
(-2.5146 -0.00212349 0)
(-2.51275 -0.00271322 -7.19046e-20)
(-2.50992 -0.00325123 0)
(-2.50617 -0.00375527 0)
(-2.50149 -0.00423456 6.48234e-20)
(-2.49591 -0.00469138 0)
(-2.48943 -0.00512492 0)
(-2.48206 -0.0055361 5.74361e-20)
(-2.47382 -0.00592416 0)
(-2.4647 -0.00629166 0)
(-2.45472 -0.00663821 -4.97653e-20)
(-2.44388 -0.00696762 -4.71487e-20)
(-2.43218 -0.00727887 0)
(-2.41961 -0.00757693 4.18301e-20)
(-2.40617 -0.00786005 0)
(-2.39184 -0.00813491 -3.63995e-20)
(-2.3766 -0.00839875 0)
(-2.36042 -0.0086603 -3.08574e-20)
(-2.34328 -0.00891556 -2.8043e-20)
(-2.32512 -0.00917557 0)
(-2.30588 -0.00943768 0)
(-2.28554 -0.00971751 0)
(-2.26404 -0.0100131 0)
(-2.24132 -0.0103368 0)
(-2.21729 -0.0106776 0)
(-2.19183 -0.0110511 0)
(-2.16481 -0.0114451 -4.12544e-21)
(-2.13612 -0.0118878 8.73417e-22)
(-2.10565 -0.0123694 0)
(-2.07327 -0.0129237 0)
(-2.03885 -0.0135393 0)
(-2.00225 -0.014253 0)
(-1.96331 -0.0150557 -3.41982e-20)
(-1.92189 -0.0159829 0)
(-1.87784 -0.0170253 5.10149e-20)
(-1.83102 -0.018219 -6.01995e-20)
(-1.78129 -0.0195559 0)
(-1.72848 -0.0210751 0)
(-1.67248 -0.0227357 0)
(-1.61317 -0.0245439 1.04562e-19)
(-1.55044 -0.0265759 1.18252e-19)
(-1.48414 -0.0287789 0)
(-1.41427 -0.0310984 1.49844e-19)
(-1.34079 -0.0335688 1.68234e-19)
(-1.26365 -0.0361741 -1.88688e-19)
(-1.18285 -0.0389083 0)
(-1.09842 -0.0417422 0)
(-1.01041 -0.0446517 -2.6528e-19)
(-0.918929 -0.0476227 0)
(-0.824094 -0.0506312 0)
(-0.726072 -0.0536731 0)
(-0.625042 -0.0567234 0)
(-0.52122 -0.0597736 4.70171e-19)
(-0.414902 -0.0627925 5.28835e-19)
(-0.306342 -0.0657476 0)
(-0.195911 -0.0686756 6.73255e-19)
(-0.0833876 -0.0706933 0)
(0.0330346 -0.0706446 0)
(0.151476 -0.0691495 6.9662e-19)
(0.269918 -0.0672364 0)
(0.387745 -0.065148 6.49415e-19)
(0.504237 -0.0629381 0)
(0.61885 -0.0606411 0)
(0.731115 -0.0582676 5.99805e-19)
(0.840645 -0.0558355 0)
(0.947109 -0.0533767 5.75373e-19)
(1.05023 -0.0509026 0)
(1.1498 -0.0484212 0)
(1.24564 -0.0459536 0)
(1.33763 -0.0435015 -5.38705e-19)
(1.42568 -0.0410778 0)
(1.50972 -0.0387057 5.24349e-19)
(1.58967 -0.0363748 0)
(1.66544 -0.0340672 0)
(1.73693 -0.0317638 0)
(1.80389 -0.02942 0)
(1.86597 -0.0269532 0)
(1.92215 -0.0241897 0)
(1.97148 -0.0206964 0)
(2.00656 -0.015333 -9.88535e-19)
(2.03269 -0.00321922 0)
(1.95998 0.0183929 0)
(0.00403107 -0.0440524 1.42282e-18)
(0.0072141 -0.0299202 -7.27791e-19)
(0.00376683 -0.0101291 0)
(-0.00276591 0.00807811 2.15722e-19)
(-0.012165 0.0235474 0)
(-0.0243687 0.0358725 7.92476e-20)
(-0.0391768 0.0452035 -1.4343e-19)
(-0.0563616 0.0520252 -1.31738e-19)
(-0.0756287 0.0569396 0)
(-0.0966776 0.0605 -1.14031e-19)
(-0.119243 0.063145 -5.36074e-20)
(-0.143115 0.0651879 0)
(-0.168153 0.0668396 0)
(-0.194273 0.0682355 0)
(-0.221433 0.0694719 0)
(-0.249629 0.0706189 -4.24527e-20)
(-0.278858 0.0717343 0)
(-0.309103 0.0728654 7.94477e-20)
(-0.340344 0.0740434 0)
(-0.372578 0.0752651 0)
(-0.405834 0.0764731 -7.26696e-20)
(-0.44017 0.0776619 0)
(-0.475567 0.0789982 6.90222e-20)
(-0.512019 0.0804718 -3.37836e-20)
(-0.549609 0.081731 3.3124e-20)
(-0.588356 0.0828082 -3.26252e-20)
(-0.628036 0.0842353 -3.23453e-20)
(-0.66829 0.086059 0)
(-0.708175 0.0878489 0)
(-0.747716 0.0886865 3.28503e-20)
(-0.787165 0.0880503 -3.23695e-20)
(-0.825918 0.0876149 0)
(-0.866553 0.087834 0)
(-0.909092 0.0886563 3.45609e-20)
(-0.952144 0.0906322 0)
(-0.992098 0.0918258 0)
(-1.03037 0.092224 -3.20532e-20)
(-1.06777 0.0920831 0)
(-1.10467 0.0915753 3.04312e-20)
(-1.14123 0.0908421 -5.99395e-20)
(-1.1775 0.089975 0)
(-1.21351 0.0890265 0)
(-1.24927 0.0880321 -1.12511e-19)
(-1.2848 0.0870094 -1.10407e-19)
(-1.32009 0.0859726 -1.08403e-19)
(-1.35514 0.0849255 5.30785e-20)
(-1.38996 0.0838735 -5.24961e-20)
(-1.42453 0.0828147 -1.54531e-19)
(-1.45885 0.0817504 1.01231e-19)
(-1.49292 0.0806758 4.99709e-20)
(-1.52673 0.0795905 0)
(-1.56025 0.0784887 -4.84429e-20)
(-1.59349 0.0773693 4.74025e-20)
(-1.62641 0.0762266 0)
(-1.65902 0.0750594 0)
(-1.69127 0.0738622 0)
(-1.72317 0.0726342 -4.50363e-20)
(-1.75468 0.0713707 0)
(-1.78577 0.0700713 8.73131e-20)
(-1.81643 0.0687314 0)
(-1.84663 0.0673516 8.49669e-20)
(-1.87633 0.0659284 0)
(-1.90553 0.0644628 -8.27134e-20)
(-1.93417 0.0629519 0)
(-1.96224 0.0613974 8.05343e-20)
(-1.98971 0.0597971 -3.96108e-20)
(-2.01655 0.0581537 0)
(-2.04272 0.0564656 -7.73681e-20)
(-2.0682 0.0547362 -3.82763e-20)
(-2.09296 0.0529647 -3.7757e-20)
(-2.11697 0.0511551 0)
(-2.1402 0.0493072 -3.65318e-20)
(-2.16262 0.0474255 -3.62085e-20)
(-2.18421 0.04551 0)
(-2.20494 0.0435656 3.51757e-20)
(-2.22478 0.041593 -6.91644e-20)
(-2.24372 0.0395983 0)
(-2.26173 0.0375832 -3.36101e-20)
(-2.27878 0.0355537 0)
(-2.29486 0.0335112 9.75404e-20)
(-2.30996 0.0314625 0)
(-2.32404 0.02941 -9.43143e-20)
(-2.33711 0.0273593 -3.09124e-20)
(-2.34914 0.0253109 3.03038e-20)
(-2.36012 0.0232698 5.95031e-20)
(-2.37005 0.0212372 -5.83832e-20)
(-2.37893 0.0192184 0)
(-2.38673 0.017216 0)
(-2.39347 0.0152349 0)
(-2.39913 0.0132751 1.6109e-19)
(-2.40375 0.0113343 5.24466e-20)
(-2.40733 0.00941209 -5.11982e-20)
(-2.4099 0.00751153 0)
(-2.41148 0.00563333 -4.87904e-20)
(-2.41213 0.00378304 4.73526e-20)
(-2.41192 0.00197753 4.60231e-20)
(-2.411 0.000283097 0)
(-2.40921 -0.00125645 0)
(-2.40644 -0.00268908 0)
(-2.40272 -0.00406459 4.05302e-20)
(-2.39803 -0.00538842 0)
(-2.39241 -0.00666657 -7.56782e-20)
(-2.38586 -0.00790502 -1.09096e-19)
(-2.37839 -0.00910677 6.99519e-20)
(-2.37001 -0.0102729 0)
(-2.36073 -0.0114054 3.22296e-20)
(-2.35054 -0.0125062 0)
(-2.33945 -0.0135796 5.82579e-20)
(-2.32746 -0.0146292 -2.78172e-20)
(-2.31458 -0.0156612 -2.63319e-20)
(-2.30078 -0.0166792 0)
(-2.28608 -0.0176908 -6.93385e-20)
(-2.27044 -0.0186998 4.3341e-20)
(-2.25386 -0.0197156 1.99937e-20)
(-2.2363 -0.0207422 0)
(-2.21775 -0.0217904 1.69851e-20)
(-2.19816 -0.0228619 4.67792e-20)
(-2.17748 -0.0239676 0)
(-2.15565 -0.0251124 2.52682e-20)
(-2.13262 -0.0263168 2.22522e-20)
(-2.10835 -0.0275891 1.92364e-20)
(-2.08277 -0.0289454 0)
(-2.05577 -0.030377 0)
(-2.02725 -0.0318947 0)
(-1.99709 -0.0334859 -3.70849e-21)
(-1.96517 -0.0351753 -1.88772e-21)
(-1.93136 -0.0369542 0)
(-1.89554 -0.0388522 2.13038e-21)
(-1.85758 -0.0408548 5.28053e-21)
(-1.81734 -0.0429899 0)
(-1.77465 -0.0452381 1.20362e-20)
(-1.72937 -0.0476209 3.01586e-20)
(-1.68133 -0.0501144 -1.88383e-20)
(-1.63039 -0.0527442 -2.17064e-20)
(-1.57638 -0.0554905 0)
(-1.51913 -0.0583569 0)
(-1.4585 -0.0613291 0)
(-1.39434 -0.0644171 -3.85425e-20)
(-1.32652 -0.067587 4.19536e-20)
(-1.25495 -0.0708311 9.49636e-20)
(-1.17957 -0.0741274 -5.35627e-20)
(-1.10031 -0.0774387 5.74828e-20)
(-1.01712 -0.0807398 6.56034e-20)
(-0.930006 -0.0840108 0)
(-0.839032 -0.0872233 0)
(-0.744279 -0.090347 -8.44829e-20)
(-0.645876 -0.0933468 0)
(-0.544 -0.0962018 0)
(-0.438868 -0.0988904 2.25052e-19)
(-0.330728 -0.101399 0)
(-0.219884 -0.10372 1.31057e-19)
(-0.106548 -0.105849 -1.46045e-19)
(0.00928703 -0.107749 0)
(0.127043 -0.109574 1.53717e-19)
(0.245384 -0.110938 0)
(0.363188 -0.110992 0)
(0.479957 -0.109793 -1.74109e-19)
(0.595681 -0.107838 3.53555e-19)
(0.710122 -0.105357 -1.83889e-19)
(0.822859 -0.102473 0)
(0.933496 -0.0992633 0)
(1.04168 -0.0957977 1.92573e-19)
(1.1471 -0.0921249 0)
(1.24949 -0.0883053 2.00193e-19)
(1.34863 -0.0843838 0)
(1.44434 -0.0804051 0)
(1.53648 -0.0763965 0)
(1.62494 -0.0723956 2.1572e-19)
(1.70964 -0.0684216 0)
(1.79049 -0.0644842 -2.20118e-19)
(1.86744 -0.0605706 0)
(1.94042 -0.0566686 0)
(2.00932 -0.0527311 4.48703e-19)
(2.07394 -0.048663 -4.52053e-19)
(2.13393 -0.0442693 0)
(2.18849 -0.0391962 0)
(2.23687 -0.0324654 0)
(2.27479 -0.0222591 1.40877e-18)
(2.30758 -0.0015443 0)
(2.3135 0.0378978 -9.83081e-19)
(-0.00385472 -0.0435316 -1.0639e-21)
(-0.00961019 -0.0158381 6.9795e-19)
(-0.0193391 0.00933762 0)
(-0.0313431 0.0313515 -2.78331e-19)
(-0.0449598 0.0502979 0)
(-0.0599776 0.0662673 0)
(-0.0765072 0.0793908 4.97106e-24)
(-0.0946704 0.0899406 8.62045e-20)
(-0.114496 0.0983167 8.12862e-20)
(-0.135935 0.104973 7.72238e-20)
(-0.158893 0.110347 0)
(-0.183264 0.114814 0)
(-0.208957 0.118672 -6.81487e-20)
(-0.235901 0.122142 -1.31692e-19)
(-0.264044 0.125379 1.27633e-19)
(-0.293344 0.128481 0)
(-0.323758 0.131506 1.20823e-19)
(-0.355231 0.134471 -5.88744e-20)
(-0.387697 0.137366 0)
(-0.421094 0.140169 1.1263e-19)
(-0.455358 0.142853 5.49715e-20)
(-0.490413 0.145419 -1.07561e-19)
(-0.526143 0.147925 -5.25057e-20)
(-0.562404 0.150334 0)
(-0.59908 0.152573 1.00454e-19)
(-0.636028 0.154745 9.84614e-20)
(-0.672936 0.157061 0)
(-0.70935 0.159312 9.53281e-20)
(-0.744839 0.161091 0)
(-0.7794 0.161856 9.30961e-20)
(-0.813333 0.161318 4.61148e-20)
(-0.847033 0.159994 0)
(-0.881155 0.157078 0)
(-0.916122 0.153458 0)
(-0.951364 0.151236 0)
(-0.985922 0.149603 0)
(-1.01977 0.14811 0)
(-1.05305 0.146575 8.15929e-20)
(-1.08592 0.144959 -1.20146e-19)
(-1.11847 0.143271 0)
(-1.15078 0.141533 0)
(-1.18288 0.139765 0)
(-1.21479 0.137982 1.78054e-22)
(-1.24652 0.136192 7.33857e-20)
(-1.27808 0.134401 1.442e-19)
(-1.30947 0.132608 -1.41901e-19)
(-1.34069 0.130815 -6.97549e-20)
(-1.37173 0.129016 6.8867e-20)
(-1.40258 0.127208 -1.78611e-22)
(-1.43324 0.125387 6.66634e-20)
(-1.4637 0.123547 0)
(-1.49393 0.121682 6.47637e-20)
(-1.52394 0.119788 -1.77075e-22)
(-1.5537 0.117858 0)
(-1.58319 0.115888 0)
(-1.6124 0.113873 -6.12662e-20)
(-1.64131 0.111809 0)
(-1.66989 0.109692 0)
(-1.69812 0.107519 5.86803e-20)
(-1.72598 0.105286 1.16142e-19)
(-1.75343 0.102993 -5.74681e-20)
(-1.78047 0.100636 0)
(-1.80705 0.098215 5.59664e-20)
(-1.83315 0.0957286 0)
(-1.85875 0.0931772 5.42059e-20)
(-1.8838 0.0905607 5.37739e-20)
(-1.9083 0.0878804 -1.05834e-19)
(-1.93219 0.0851374 -5.20739e-20)
(-1.95547 0.0823341 0)
(-1.97809 0.0794724 1.01584e-19)
(-2.00002 0.0765558 0)
(-2.02124 0.0735868 1.48254e-19)
(-2.04172 0.07057 9.73491e-20)
(-2.06144 0.0675086 9.59316e-20)
(-2.08036 0.0644075 -9.45081e-20)
(-2.09845 0.061271 1.397e-19)
(-2.1157 0.0581055 0)
(-2.13208 0.0549158 0)
(-2.14757 0.0517086 -8.87202e-20)
(-2.16214 0.048489 -1.30919e-19)
(-2.17578 0.0452645 0)
(-2.18847 0.0420404 4.21602e-20)
(-2.20018 0.0388238 0)
(-2.21092 0.0356193 -1.21774e-19)
(-2.22066 0.0324336 -3.54731e-23)
(-2.2294 0.0292712 1.98838e-23)
(-2.23712 0.0261388 7.64084e-20)
(-2.24383 0.0230418 0)
(-2.24952 0.0199865 -7.31295e-20)
(-2.25419 0.0169766 4.15627e-23)
(-2.25785 0.0140154 0)
(-2.26053 0.0111093 0)
(-2.26224 0.00826699 0)
(-2.26299 0.00550176 6.44534e-20)
(-2.26281 0.00282934 0)
(-2.26172 0.000270355 0)
(-2.25972 -0.0021694 0)
(-2.25678 -0.00451021 0)
(-2.25289 -0.00677052 0)
(-2.24806 -0.00895336 5.34403e-20)
(-2.24229 -0.0110625 0)
(-2.23559 -0.0131043 4.9439e-20)
(-2.22798 -0.0150853 4.75015e-20)
(-2.21946 -0.017009 -4.55543e-20)
(-2.21004 -0.0188784 0)
(-2.19971 -0.0206962 -4.16364e-20)
(-2.18849 -0.0224675 0)
(-2.17637 -0.0241974 -3.76962e-20)
(-2.16335 -0.0258935 3.57208e-20)
(-2.14942 -0.0275623 1.01669e-19)
(-2.13458 -0.0292129 0)
(-2.11882 -0.030853 8.98095e-20)
(-2.10212 -0.032493 2.82593e-20)
(-2.08445 -0.0341423 0)
(-2.0658 -0.0358133 4.81834e-20)
(-2.04614 -0.0375163 4.42505e-20)
(-2.02541 -0.0392629 -6.02695e-20)
(-2.00358 -0.0410629 0)
(-1.98059 -0.0429332 -1.60387e-20)
(-1.95637 -0.0448929 -1.40964e-20)
(-1.93089 -0.0469617 -3.69112e-20)
(-1.90406 -0.049152 0)
(-1.87579 -0.0514689 0)
(-1.84597 -0.0539142 0)
(-1.81449 -0.0564933 -4.87333e-21)
(-1.78122 -0.059218 0)
(-1.74605 -0.0620998 0)
(-1.70884 -0.0651532 -1.3243e-21)
(-1.66946 -0.0683844 -3.27303e-21)
(-1.62776 -0.0718055 0)
(-1.58361 -0.0754176 0)
(-1.53683 -0.0792253 -1.85136e-20)
(-1.48727 -0.0832192 0)
(-1.43477 -0.0874059 2.68873e-20)
(-1.37916 -0.0917754 3.074e-20)
(-1.32029 -0.0963163 0)
(-1.258 -0.101009 0)
(-1.19214 -0.105845 -4.48177e-20)
(-1.12261 -0.110783 -7.80957e-22)
(-1.04933 -0.115788 -8.79117e-22)
(-0.972218 -0.120829 0)
(-0.891204 -0.125856 -1.35901e-19)
(-0.80627 -0.130809 0)
(-0.717458 -0.135642 0)
(-0.624844 -0.140297 0)
(-0.52854 -0.14472 9.81639e-20)
(-0.428712 -0.148853 0)
(-0.325567 -0.152652 -2.27669e-19)
(-0.219361 -0.15608 -1.25553e-19)
(-0.110366 -0.15911 0)
(0.0011521 -0.161717 -1.4379e-19)
(0.114733 -0.163859 0)
(0.229723 -0.165405 0)
(0.34549 -0.166262 -4.9046e-19)
(0.461356 -0.166399 3.39276e-19)
(0.576648 -0.165676 0)
(0.690949 -0.163985 3.67875e-19)
(0.803991 -0.161418 -1.93839e-19)
(0.915442 -0.158116 0)
(1.02493 -0.154204 0)
(1.13211 -0.149775 0)
(1.23666 -0.144924 -6.53796e-19)
(1.33832 -0.139727 0)
(1.43686 -0.134267 -2.31028e-19)
(1.53209 -0.128613 0)
(1.62385 -0.122832 0)
(1.71204 -0.11697 0)
(1.79657 -0.111076 0)
(1.87737 -0.105187 0)
(1.95441 -0.0993239 0)
(2.02764 -0.0934775 -5.1954e-19)
(2.09704 -0.0876217 0)
(2.1625 -0.0816845 -2.67897e-19)
(2.22387 -0.0755236 8.09758e-19)
(2.28088 -0.0688658 0)
(2.33294 -0.0612059 0)
(2.37958 -0.0513928 -5.57887e-19)
(2.41846 -0.0373984 -5.67918e-19)
(2.453 -0.0137671 5.76805e-19)
(2.47442 0.0291114 5.96554e-19)
(-0.0103958 -0.0241075 -2.1294e-18)
(-0.0219235 0.0109268 -8.35503e-19)
(-0.0357888 0.0386416 -3.03046e-19)
(-0.0518113 0.0624283 -1.09036e-19)
(-0.0687846 0.0831078 0)
(-0.0864122 0.101041 1.57724e-19)
(-0.104873 0.116417 -7.20275e-20)
(-0.124376 0.129435 0)
(-0.145058 0.140366 -6.36287e-20)
(-0.166989 0.149541 0)
(-0.190182 0.157313 1.16737e-19)
(-0.214612 0.164012 0)
(-0.240229 0.169925 5.44514e-20)
(-0.266972 0.175278 1.05678e-19)
(-0.294776 0.180237 -1.02789e-19)
(-0.323566 0.184907 0)
(-0.353257 0.18934 -9.77847e-20)
(-0.383745 0.193543 0)
(-0.414913 0.197483 0)
(-0.446636 0.2011 -9.13829e-20)
(-0.47879 0.204341 0)
(-0.511252 0.207175 -5.78866e-23)
(-0.54389 0.209608 0)
(-0.576572 0.211643 0)
(-0.609184 0.213297 2.07811e-23)
(-0.641608 0.214647 -7.95711e-20)
(-0.673672 0.215758 -7.78358e-20)
(-0.705184 0.216541 -7.61786e-20)
(-0.736032 0.216795 0)
(-0.766265 0.216283 -1.46304e-19)
(-0.79608 0.214858 0)
(-0.825747 0.212626 -7.04702e-20)
(-0.855527 0.209633 0)
(-0.885599 0.206294 0)
(-0.915846 0.203232 6.6486e-20)
(-0.946007 0.200463 0)
(-0.975958 0.197882 -6.39987e-20)
(-1.00567 0.195393 -7.60602e-23)
(-1.03517 0.192946 1.23478e-19)
(-1.06448 0.190518 -1.21246e-19)
(-1.09363 0.188102 0)
(-1.12265 0.185696 0)
(-1.15154 0.183301 -5.75699e-20)
(-1.18031 0.180915 0)
(-1.20897 0.178537 -5.59231e-20)
(-1.2375 0.176161 5.50744e-20)
(-1.26592 0.173784 5.42552e-20)
(-1.29421 0.171399 0)
(-1.32236 0.168999 -5.26967e-20)
(-1.35036 0.166577 -5.19531e-20)
(-1.37821 0.164126 1.02304e-19)
(-1.40589 0.161638 -5.0528e-20)
(-1.43337 0.159106 -4.98431e-20)
(-1.46066 0.156524 0)
(-1.48772 0.153884 0)
(-1.51454 0.151181 4.78817e-20)
(-1.5411 0.148409 0)
(-1.56738 0.145564 0)
(-1.59334 0.142641 -9.20673e-20)
(-1.61898 0.139637 -9.0875e-20)