/*--------------------------------*- C++ -*----------------------------------*\
  =========                 |
  \\      /  F ield         | OpenFOAM: The Open Source CFD Toolbox
   \\    /   O peration     | Website:  https://openfoam.org
    \\  /    A nd           | Version:  9
     \\/     M anipulation  |
\*---------------------------------------------------------------------------*/
FoamFile
{
    format      ascii;
    class       surfaceScalarField;
    location    "0.95";
    object      alphaPhi0.water;
}
// * * * * * * * * * * * * * * * * * * * * * * * * * * * * * * * * * * * * * //

dimensions      [0 3 -1 0 0 0 0];

internalField   nonuniform List<scalar> 
4432
(
-1.15262e-06
1.15262e-06
-4.26469e-06
3.11207e-06
-7.61193e-06
3.34724e-06
-1.08934e-05
3.28146e-06
-1.40705e-05
3.17708e-06
-1.70736e-05
3.00309e-06
-1.98198e-05
2.74628e-06
-2.22286e-05
2.40872e-06
-2.42212e-05
1.99266e-06
-2.57083e-05
1.48708e-06
-2.6575e-05
8.66733e-07
-2.66918e-05
1.16811e-07
-2.60064e-05
-6.84972e-07
-2.4434e-05
-1.3895e-06
-2.19786e-05
-1.95966e-06
-1.94471e-05
-2.5977e-06
-1.61036e-05
-3.40985e-06
-1.17722e-05
-4.39769e-06
-6.46271e-06
-5.37628e-06
-7.21114e-07
-5.80962e-06
4.0127e-06
-4.80215e-06
5.17955e-06
-1.0718e-06
5.18661e-06
-2.79259e-06
3.94521e-06
-6.28591e-06
6.60539e-06
-9.85997e-06
6.92131e-06
-1.33123e-05
6.73374e-06
-1.6562e-05
6.42684e-06
-1.95094e-05
5.95046e-06
-2.20742e-05
5.31105e-06
-2.41932e-05
4.52782e-06
-2.58048e-05
3.60428e-06
-2.68404e-05
2.52268e-06
-2.7249e-05
1.27527e-06
-2.70452e-05
-8.69556e-08
-2.6281e-05
-1.44884e-06
-2.49723e-05
-2.69745e-06
-2.30665e-05
-3.85186e-06
-2.04617e-05
-5.10188e-06
-1.72312e-05
-6.64083e-06
-1.32766e-05
-8.45132e-06
-8.67761e-06
-1.01637e-05
-3.74495e-06
-1.08882e-05
5.80973e-07
-9.17958e-06
2.81947e-06
-3.32727e-06
8.0135e-06
-3.51449e-06
7.45971e-06
-6.90526e-06
9.99617e-06
-1.03567e-05
1.03727e-05
-1.37098e-05
1.00869e-05
-1.68404e-05
9.55748e-06
-1.96593e-05
8.76931e-06
-2.21017e-05
7.75347e-06
-2.41181e-05
6.54424e-06
-2.56577e-05
5.14384e-06
-2.66629e-05
3.52788e-06
-2.70881e-05
1.70045e-06
-2.69248e-05
-2.50182e-07
-2.62032e-05
-2.17049e-06
-2.49537e-05
-3.94693e-06
-2.31765e-05
-5.62909e-06
-2.08352e-05
-7.44314e-06
-1.78814e-05
-9.59459e-06
-1.42952e-05
-1.20375e-05
-1.01743e-05
-1.42846e-05
-5.83476e-06
-1.52278e-05
-1.83713e-06
-1.31772e-05
7.91607e-07
-5.956e-06
8.8056e-06
-3.8279e-06
1.12876e-05
-7.21831e-06
1.33866e-05
-1.06094e-05
1.37639e-05
-1.38911e-05
1.33685e-05
-1.69372e-05
1.26036e-05
-1.96703e-05
1.15024e-05
-2.20378e-05
1.01209e-05
-2.39991e-05
8.50557e-06
-2.55101e-05
6.65483e-06
-2.65159e-05
4.53372e-06
-2.69656e-05
2.1501e-06
-2.68376e-05
-3.78205e-07
-2.61518e-05
-2.85621e-06
-2.49489e-05
-5.14981e-06
-2.32449e-05
-7.33309e-06
-2.10206e-05
-9.66747e-06
-1.82644e-05
-1.23508e-05
-1.50002e-05
-1.53017e-05
-1.13257e-05
-1.7959e-05
-7.46573e-06
-1.90878e-05
-3.77456e-06
-1.68684e-05
-8.11552e-07
-8.91898e-06
7.99237e-06
-3.97036e-06
1.5258e-05
-7.41572e-06
1.68319e-05
-1.0786e-05
1.71341e-05
-1.40174e-05
1.65999e-05
-1.70004e-05
1.55866e-05
-1.96695e-05
1.41716e-05
-2.19833e-05
1.24348e-05
-2.39109e-05
1.04331e-05
-2.5414e-05
8.15791e-06
-2.64368e-05
5.5566e-06
-2.69188e-05
2.63206e-06
-2.68252e-05
-4.71792e-07
-2.61696e-05
-3.51183e-06
-2.50009e-05
-6.31851e-06
-2.33451e-05
-8.98883e-06
-2.11918e-05
-1.18206e-05
-1.85662e-05
-1.49763e-05
-1.55435e-05
-1.83244e-05
-1.22259e-05
-2.12766e-05
-8.75909e-06
-2.25547e-05
-5.34201e-06
-2.02853e-05
-2.19306e-06
-1.20678e-05
5.79919e-06
-4.04132e-06
1.92993e-05
-7.54498e-06
2.03356e-05
-1.09056e-05
2.04947e-05
-1.40984e-05
1.97928e-05
-1.70325e-05
1.85207e-05
-1.96541e-05
1.67932e-05
-2.19327e-05
1.47133e-05
-2.38471e-05
1.23475e-05
-2.53646e-05
9.67548e-06
-2.64256e-05
6.61758e-06
-2.69551e-05
3.16155e-06
-2.69027e-05
-5.24198e-07
-2.62757e-05
-4.13883e-06
-2.51306e-05
-7.46355e-06
-2.34928e-05
-1.0626e-05
-2.13472e-05
-1.39646e-05
-1.87675e-05
-1.75547e-05
-1.59101e-05
-2.11814e-05
-1.2901e-05
-2.42857e-05
-9.7969e-06
-2.56587e-05
-6.63539e-06
-2.34467e-05
-3.37108e-06
-1.5332e-05
2.42847e-06
-4.07939e-06
2.33787e-05
-7.61645e-06
2.38727e-05
-1.09609e-05
2.38391e-05
-1.41189e-05
2.29508e-05
-1.70144e-05
2.14161e-05
-1.96034e-05
1.93821e-05
-2.18656e-05
1.69755e-05
-2.37902e-05
1.42721e-05
-2.53495e-05
1.12347e-05
-2.64765e-05
7.74461e-06
-2.70775e-05
3.76251e-06
-2.70826e-05
-5.19037e-07
-2.64913e-05
-4.73017e-06
-2.53656e-05
-8.5888e-06
-2.37134e-05
-1.22729e-05
-2.14926e-05
-1.6171e-05
-1.88489e-05
-2.01867e-05
-1.60806e-05
-2.39467e-05
-1.33756e-05
-2.6988e-05
-1.06586e-05
-2.83717e-05
-7.73328e-06
-2.6369e-05
-4.25152e-06
-1.88132e-05
-1.82247e-06
-4.08078e-06
2.74595e-05
-7.6185e-06
2.74104e-05
-1.09325e-05
2.71532e-05
-1.40535e-05
2.60717e-05
-1.69175e-05
2.42801e-05
-1.94885e-05
2.1953e-05
-2.17551e-05
1.92421e-05
-2.37167e-05
1.62336e-05
-2.53507e-05
1.28687e-05
-2.65811e-05
8.97486e-06
-2.72902e-05
4.4716e-06
-2.73842e-05
-4.24991e-07
-2.68506e-05
-5.26356e-06
-2.57578e-05
-9.67978e-06
-2.40613e-05
-1.39367e-05
-2.16094e-05
-1.85046e-05
-1.8702e-05
-2.2999e-05
-1.59126e-05
-2.67169e-05
-1.35571e-05
-2.93021e-05
-1.13273e-05
-3.05459e-05
-8.68868e-06
-2.8962e-05
-4.72192e-06
-2.27666e-05
-6.52363e-06
5.83409e-06
-5.7962e-06
-1.56379e-05
2.13757e-05
-4.22365e-05
2.66024e-05
-6.37744e-05
2.15808e-05
-7.24574e-05
8.72518e-06
-6.72007e-05
-5.20544e-06
-5.2226e-05
-1.49566e-05
-3.3663e-05
-1.85191e-05
-2.03927e-05
-1.3245e-05
-1.63267e-05
-4.08767e-06
-1.85993e-05
2.29721e-06
-2.01461e-05
2.93078e-06
-2.03501e-05
2.18605e-07
-1.73752e-05
-2.96549e-06
-1.23197e-05
-5.05752e-06
-6.12413e-06
-6.14186e-06
-4.02994e-08
-6.07912e-06
4.11995e-06
-4.22538e-06
4.05595e-06
-1.17887e-05
5.96781e-06
-3.59337e-05
4.54362e-05
-5.87513e-05
4.93956e-05
-6.9941e-05
3.30427e-05
-6.93067e-05
8.82469e-06
-6.32178e-05
-1.14131e-05
-5.17613e-05
-2.70148e-05
-3.75089e-05
-3.37188e-05
-2.6665e-05
-2.46868e-05
-2.22326e-05
-8.94019e-06
-2.25305e-05
2.23555e-06
-2.31403e-05
3.34073e-06
-2.0914e-05
-1.00234e-06
-1.7808e-05
-6.08977e-06
-1.36605e-05
-9.21711e-06
-9.28633e-06
-1.05439e-05
-4.5784e-06
-1.08154e-05
9.47906e-08
-8.55738e-06
4.20348e-06
-2.13253e-05
2.72712e-05
-4.25094e-05
6.66761e-05
-5.79423e-05
6.47812e-05
-6.24582e-05
3.86703e-05
-5.38625e-05
6.84513e-06
-4.99088e-05
-1.08282e-05
-4.67829e-05
-3.36374e-05
-3.67714e-05
-4.50848e-05
-2.75995e-05
-3.27682e-05
-2.29318e-05
-1.42069e-05
-2.31727e-05
9.86294e-07
-2.27517e-05
2.62917e-06
-2.12013e-05
-2.87591e-06
-1.80703e-05
-9.16163e-06
-1.40797e-05
-1.29167e-05
-1.08099e-05
-1.38557e-05
-7.72353e-06
-1.50458e-05
-4.23695e-06
-1.31278e-05
-2.58317e-07
-2.50343e-05
5.23915e-05
-4.22737e-05
8.40082e-05
-5.26144e-05
7.51969e-05
-4.46829e-05
3.67275e-05
-3.15695e-05
3.2114e-06
-3.3865e-05
-1.04345e-05
-3.66349e-05
-3.44904e-05
-2.50784e-05
-3.94236e-05
-2.22509e-05
-1.69201e-05
-2.02205e-05
-1.41394e-05
-1.96881e-05
-4.94216e-07
-2.1191e-05
1.31497e-06
-1.98521e-05
-5.13853e-06
-1.70272e-05
-1.21708e-05
-1.39172e-05
-1.60041e-05
-1.1417e-05
-1.62846e-05
-9.69925e-06
-1.66587e-05
-7.18346e-06
-1.55268e-05
-7.9659e-06
-2.54522e-05
7.79376e-05
-3.90525e-05
9.76994e-05
-4.47691e-05
8.10289e-05
-2.93568e-05
2.45843e-05
-2.97511e-05
2.4081e-06
-2.71617e-05
-1.40488e-05
-3.12739e-05
-3.47596e-05
-1.09377e-05
-3.54154e-05
-8.62219e-06
-1.36756e-05
-1.37908e-05
-5.97835e-06
-1.5348e-05
-1.26899e-06
-1.84269e-05
2.80344e-07
-1.80971e-05
-7.36831e-06
-1.54259e-05
-1.48272e-05
-1.24488e-05
-1.89128e-05
-1.00044e-05
-1.67346e-05
-9.00654e-06
-1.34529e-05
-8.00476e-06
-1.34999e-05
-1.51766e-05
-2.44437e-05
0.000102468
-3.43588e-05
0.00010771
-2.9176e-05
7.71684e-05
-2.06131e-05
1.26547e-05
-3.18515e-05
3.13911e-06
-2.92207e-05
-1.24485e-05
-2.57644e-05
-3.43616e-05
-1.2433e-05
-4.14223e-05
-4.1017e-06
-2.32487e-05
-5.77115e-06
-5.72956e-06
-1.4446e-05
2.77489e-08
-1.68342e-05
-9.72644e-08
-1.5873e-05
-9.05136e-06
-1.23457e-05
-1.46398e-05
-6.31238e-06
-1.0331e-05
-3.17708e-06
-2.22612e-06
-2.44331e-06
-2.08764e-06
-3.24103e-06
-2.23481e-06
-2.88971e-06
-2.34062e-05
0.000125956
-2.9205e-05
0.000113594
-1.05598e-05
6.06668e-05
-8.07154e-06
9.67668e-06
-1.61759e-05
3.32205e-06
-2.34548e-05
-7.81178e-06
-2.43229e-05
-2.92686e-05
-1.83809e-05
-4.35858e-05
-4.48847e-06
-3.9806e-05
-1.34923e-06
-1.15471e-05
-4.71922e-06
1.81337e-07
-8.66598e-06
1.65698e-07
-7.44544e-06
-3.39335e-06
-2.80644e-06
-2.66965e-06
-5.76761e-07
-4.07427e-06
-1.76162e-07
-2.45916e-06
8.50799e-08
-1.93197e-06
6.61414e-08
-1.48755e-06
-2.19819e-06
-2.28684e-05
0.00014891
-2.48738e-05
0.000115679
-5.51697e-06
4.21611e-05
-4.77687e-06
8.49656e-06
-4.38057e-06
2.44973e-06
-7.44319e-06
-5.30073e-06
-1.94008e-05
-1.94176e-05
-1.81379e-05
-4.27616e-05
-8.74336e-06
-4.79929e-05
-7.65308e-07
-1.59883e-05
-2.59517e-07
-1.72714e-07
-7.00298e-07
5.56732e-07
-5.53778e-07
-6.59281e-07
-3.36471e-07
-2.23314e-06
1.46326e-07
-3.84802e-06
7.37901e-07
-2.36515e-06
1.05461e-06
-2.08123e-06
8.8301e-07
-1.06165e-06
-7.57906e-07
-8.35907e-06
3.58185e-05
-1.58678e-05
3.49191e-05
-2.28095e-05
3.40949e-05
-2.93056e-05
3.25679e-05
-3.53141e-05
3.02887e-05
-4.07752e-05
2.74141e-05
-4.56864e-05
2.41533e-05
-5.00838e-05
2.06311e-05
-5.39471e-05
1.67319e-05
-5.70876e-05
1.21154e-05
-5.91634e-05
6.54729e-06
-5.98841e-05
2.96712e-07
-5.91335e-05
-6.0023e-06
-5.70779e-05
-1.16756e-05
-5.33759e-05
-1.7357e-05
-4.58143e-05
-2.33447e-05
-3.4784e-05
-2.21746e-05
-2.7897e-05
-2.14984e-05
-2.46582e-05
-2.02814e-05
-2.25234e-05
-1.7361e-05
-1.9834e-05
-1.76837e-05
-1.33974e-05
-2.45607e-05
-2.1471e-05
1.03561e-06
-7.31136e-06
4.31299e-05
-1.43428e-05
4.19505e-05
-2.09458e-05
4.06979e-05
-2.7255e-05
3.88771e-05
-3.3232e-05
3.62657e-05
-3.88323e-05
3.30144e-05
-4.40674e-05
2.93885e-05
-4.90587e-05
2.56224e-05
-5.38977e-05
2.1571e-05
-5.84223e-05
1.66401e-05
-6.21838e-05
1.03091e-05
-6.462e-05
2.73663e-06
-6.55223e-05
-5.02565e-06
-6.40568e-05
-1.12874e-05
-5.41632e-05
-1.11295e-05
-3.25023e-05
-1.13434e-05
-1.82879e-05
-1.44723e-05
-1.06284e-05
-1.36928e-05
-6.46122e-06
-5.08734e-06
-4.92011e-06
-2.05115e-06
-1.13772e-05
-4.80982e-06
-4.26473e-05
-2.2793e-05
-1.46136e-05
-4.95157e-05
-5.01758e-06
4.81475e-05
-1.10184e-05
4.79514e-05
-1.70559e-05
4.67354e-05
-2.31484e-05
4.49695e-05
-2.84625e-05
4.14621e-05
-3.41617e-05
2.93533e-05
-3.85764e-05
2.3763e-05
-4.25755e-05
1.91371e-05
-4.68906e-05
1.5321e-05
-5.226e-05
1.21007e-05
-5.8342e-05
8.84981e-06
-6.49323e-05
5.00398e-06
-6.33764e-05
3.73657e-07
-3.66218e-05
-7.59635e-07
-1.66623e-05
-2.27969e-06
-1.49019e-05
-8.1648e-06
-1.3274e-05
-1.7376e-05
-4.08031e-06
-6.67999e-06
-2.37139e-06
-1.64864e-06
-5.37526e-06
-1.30291e-06
-1.53538e-05
-1.79607e-06
-7.56588e-05
-1.63018e-05
-2.16899e-06
-8.81177e-05
-1.6697e-06
3.73226e-05
-5.13636e-06
3.19526e-05
-8.70382e-06
2.23584e-05
-1.12447e-05
1.25791e-05
-1.21873e-05
4.72333e-06
-1.20235e-05
7.07584e-07
-1.14607e-05
3.04557e-07
-1.10181e-05
2.33724e-07
-1.12612e-05
1.93741e-07
-1.2117e-05
1.84256e-07
-1.21968e-05
3.37417e-07
-1.03711e-05
5.36059e-07
-1.03049e-05
7.12312e-08
-1.29226e-05
0
-1.38436e-05
-3.43617e-06
-1.86531e-05
-9.53819e-06
-1.93402e-05
-1.30489e-05
-3.7013e-06
-7.62013e-06
-3.53659e-06
-2.71476e-06
-5.32387e-06
-1.11252e-06
-1.4067e-05
-7.36763e-07
-8.66944e-05
-6.68774e-06
4.31912e-06
-9.32967e-05
3.56063e-07
4.37551e-07
6.77775e-08
3.57223e-07
-5.33262e-07
2.35677e-07
-6.06374e-07
1.46505e-07
-5.45515e-07
9.27598e-08
-5.18326e-07
6.5294e-08
-4.81336e-07
5.00018e-08
-4.63097e-07
3.0073e-08
-5.14758e-07
3.82679e-08
-7.75007e-07
6.25783e-08
-1.18255e-06
1.10853e-07
-3.99774e-06
1.80768e-07
-3.52913e-05
3.06456e-06
-3.70992e-05
1.23981e-06
-3.51246e-05
-4.54844e-06
-3.21938e-05
-1.14567e-05
-2.77838e-05
-1.6194e-05
-8.51775e-06
-1.44216e-05
-4.49679e-06
-8.34993e-06
-5.31259e-06
-1.88217e-06
-6.41292e-06
-7.32635e-07
-5.60334e-05
-8.59218e-07
3.68943e-06
-8.18554e-05
-1.41709e-07
3.20078e-08
-4.43e-08
1.77517e-08
-6.14179e-08
3.54713e-08
-7.73045e-08
3.01482e-08
-8.09859e-08
2.1449e-08
-7.71832e-08
1.43422e-08
-7.07843e-08
9.32661e-09
-8.1161e-08
7.63877e-09
-1.04794e-07
1.12561e-08
-1.77029e-07
1.52916e-08
-2.80035e-07
0
-6.69355e-07
9.02934e-08
-5.55453e-06
4.52967e-08
-2.35949e-05
1.16818e-07
-3.37471e-05
-3.32383e-06
-3.4322e-05
-9.62266e-06
-3.16855e-05
-1.73588e-05
-2.60998e-05
-1.84042e-05
-7.02435e-06
-1.22792e-05
-5.23288e-06
-4.73308e-06
-5.30949e-06
-1.42716e-06
-6.85535e-06
-5.304e-07
1.70814e-07
-6.96619e-05
-1.43601e-08
4.48503e-09
-2.85626e-08
2.33915e-09
-2.81607e-08
5.40285e-09
-2.30873e-08
5.27174e-09
-1.74001e-08
3.89039e-09
-1.33654e-08
2.68863e-09
-1.18985e-08
1.57302e-09
-1.31088e-08
1.9959e-09
-1.80564e-08
2.7992e-09
-3.74849e-08
2.44423e-09
-1.8385e-07
5.34476e-10
-4.87709e-07
4.36356e-09
-6.83618e-07
0
-7.30873e-07
0
-1.14438e-05
-3.21314e-07
-2.87626e-05
-5.24311e-06
-3.13688e-05
-1.28944e-05
-2.88533e-05
-1.89162e-05
-2.06977e-05
-1.76832e-05
-5.16135e-06
-1.06947e-05
-3.81929e-06
-3.45541e-06
-3.45075e-06
-1.13194e-06
-2.6826e-07
-8.27117e-06
-2.62551e-09
9.28896e-10
-5.01407e-09
4.81192e-10
-5.17671e-09
9.29987e-10
-4.03529e-09
8.77804e-10
-2.84585e-09
6.52957e-10
-1.99773e-09
4.6086e-10
-1.93939e-09
3.16455e-10
-1.96628e-09
4.42177e-10
-3.60099e-09
7.40804e-10
-1.48375e-08
1.1103e-09
-4.41566e-08
1.71099e-09
-6.78046e-08
3.35281e-09
-8.49272e-08
0
-1.27198e-07
0
-4.03913e-07
0
-7.32055e-06
-5.73212e-07
-2.54854e-05
-5.25518e-06
-2.84433e-05
-1.3444e-05
-2.59236e-05
-1.78203e-05
-1.72376e-05
-1.56501e-05
-4.68113e-06
-9.53305e-06
-2.72386e-06
-3.58333e-06
-1.16158e-06
-2.27152e-06
-3.29026e-10
2.05883e-10
-6.76727e-10
1.17443e-10
-7.09903e-10
1.70642e-10
-5.59204e-10
1.49673e-10
-3.93464e-10
1.10037e-10
-2.76169e-10
7.87717e-11
-2.6482e-10
6.52722e-11
-2.83666e-10
9.81758e-11
-7.19133e-10
2.12424e-10
-2.94481e-09
5.10202e-10
-7.78717e-09
1.20053e-09
-1.09382e-08
1.50552e-09
-1.39668e-08
0
-1.62886e-08
0
-2.43401e-08
0
-5.60319e-07
-5.19899e-08
-5.4842e-06
-5.00258e-07
-2.19239e-05
-4.29656e-06
-2.56338e-05
-1.17122e-05
-2.36913e-05
-1.5201e-05
-1.77785e-05
-1.33303e-05
-6.09944e-06
-1.03901e-05
-4.87242e-06
-2.81122e-06
-3.20953e-11
4.36967e-11
-7.34377e-11
2.75076e-11
-8.09681e-11
3.29759e-11
-6.57954e-11
2.66225e-11
-4.69643e-11
1.90418e-11
-3.41261e-11
1.38777e-11
-3.1043e-11
1.28191e-11
-3.59303e-11
2.10649e-11
-1.06838e-10
5.72955e-11
-4.29091e-10
1.80661e-10
-1.01898e-09
4.56788e-10
-1.28494e-09
5.00209e-10
-1.91678e-09
3.93424e-11
-3.21169e-09
0
-4.18985e-09
0
-5.16892e-08
0
-5.20219e-07
-3.30389e-08
-4.46781e-06
-3.47411e-07
-1.67319e-05
-2.15063e-06
-2.2856e-05
-7.54159e-06
-2.26466e-05
-1.13711e-05
-1.76556e-05
-1.28637e-05
-1.06098e-05
-1.02471e-05
-2.01205e-12
8.78822e-12
-5.8957e-12
5.98043e-12
-6.9826e-12
6.47736e-12
-5.88698e-12
4.87556e-12
-4.26194e-12
3.389e-12
-3.14817e-12
2.52213e-12
-2.7023e-12
2.46959e-12
-3.05394e-12
4.4606e-12
-8.65977e-12
1.4835e-11
-2.33814e-11
5.34158e-11
-1.07848e-11
1.33968e-10
1.81936e-11
1.48412e-10
-2.98154e-11
4.27309e-11
-2.0101e-10
0
-6.52173e-10
0
-1.06336e-09
0
-3.33511e-08
-4.79423e-10
-3.81414e-07
-8.16625e-09
-2.44459e-06
-8.2564e-08
-9.58795e-06
-3.82909e-07
-1.63956e-05
-2.30317e-06
-2.10265e-05
-5.55761e-06
-9.02553e-06
-2.00735e-05
1.57324e-13
1.68021e-12
-6.25904e-14
1.21933e-12
-1.34937e-13
1.2734e-12
-1.17554e-13
8.98948e-13
-7.32417e-14
6.28421e-13
-3.38409e-14
4.84238e-13
1.52716e-14
4.97653e-13
3.18084e-13
9.79762e-13
2.72138e-12
3.52939e-12
1.53271e-11
1.29474e-11
5.02244e-11
3.26747e-11
8.24962e-11
3.78717e-11
9.05725e-11
1.4381e-11
8.53427e-11
0
5.52201e-11
0
-2.57425e-11
0
-1.22906e-10
5.55728e-13
-8.07993e-09
-1.45685e-10
-9.08032e-08
-6.72199e-11
-4.72652e-07
-1.04041e-09
-2.76504e-06
-1.0938e-08
-7.60979e-06
-6.64112e-08
-3.275e-07
-1.25167e-05
9.63306e-14
3.11153e-13
9.60755e-14
2.52063e-13
1.22443e-13
2.52918e-13
9.54827e-14
1.71179e-13
7.82965e-14
1.18681e-13
7.95671e-14
1.02579e-13
1.21377e-13
1.08747e-13
3.62352e-13
2.0035e-13
1.63363e-12
7.16095e-13
6.71113e-12
2.70427e-12
1.9275e-11
6.92994e-12
3.14982e-11
8.48438e-12
3.5345e-11
3.82249e-12
3.6358e-11
0
3.5324e-11
0
2.79485e-11
0
1.40115e-11
0
-2.76513e-12
7.06548e-14
-5.6772e-11
-6.20781e-12
-1.10127e-09
-9.34449e-12
-1.20119e-08
-1.85467e-11
-7.8454e-08
-6.22683e-12
3.78981e-13
-4.06305e-07
2.41133e-14
6.13009e-14
3.10033e-14
6.33718e-14
4.13152e-14
6.22171e-14
3.43704e-14
4.82727e-14
2.91705e-14
3.30953e-14
2.85821e-14
2.71529e-14
3.7823e-14
2.73494e-14
9.90554e-14
3.93592e-14
4.31717e-13
1.36228e-13
1.74001e-12
4.85463e-13
4.97146e-12
1.29941e-12
8.38788e-12
1.6723e-12
9.55072e-12
8.52225e-13
9.87102e-12
1.38017e-13
9.78477e-12
0
9.09229e-12
0
8.58373e-12
0
6.48879e-12
0
3.29169e-12
3.87162e-13
-1.83304e-13
-1.00685e-12
-1.94285e-13
-3.82629e-12
2.21267e-13
-4.71056e-12
-8.53275e-13
3.11433e-12
4.98976e-15
1.56934e-14
7.54838e-15
2.13356e-14
1.02223e-14
2.04488e-14
9.07722e-15
1.86227e-14
8.0815e-15
1.56585e-14
8.12244e-15
1.31699e-14
9.72939e-15
1.13368e-14
1.93745e-14
1.19084e-14
8.22249e-14
2.27102e-14
3.47663e-13
8.46187e-14
1.02431e-12
2.1627e-13
1.80158e-12
2.89385e-13
2.09766e-12
1.70953e-13
2.20968e-12
5.93206e-14
2.15266e-12
0
2.06664e-12
0
1.96565e-12
0
1.78718e-12
0
2.27586e-12
0
2.21946e-12
1.20152e-14
1.34829e-12
-3.66712e-13
3.06698e-13
-7.16804e-13
-4.66283e-13
-1.029e-13
1.02538e-15
7.15256e-15
1.94254e-15
8.40114e-15
2.65811e-15
7.71857e-15
2.72248e-15
6.65132e-15
2.62426e-15
5.42946e-15
2.5584e-15
4.1696e-15
2.78578e-15
3.22301e-15
4.13532e-15
3.13277e-15
1.31701e-14
4.65329e-15
5.68601e-14
1.3154e-14
1.77158e-13
3.50203e-14
3.25417e-13
4.91893e-14
3.9046e-13
3.63258e-14
4.23504e-13
2.20889e-14
3.9825e-13
7.53189e-15
3.81794e-13
5.36083e-15
3.74722e-13
2.81798e-15
3.42075e-13
5.22882e-15
3.02877e-13
0
3.00295e-13
0
3.06547e-13
-1.37711e-14
1.82206e-13
-3.77486e-14
-7.42834e-14
3.46917e-13
2.6272e-16
2.03137e-15
5.56143e-16
2.25155e-15
7.26962e-16
1.98165e-15
7.47618e-16
1.54397e-15
6.9026e-16
1.10792e-15
6.24785e-16
7.7005e-16
6.55411e-16
5.62987e-16
8.28109e-16
5.26179e-16
2.24271e-15
8.38277e-16
8.68296e-15
2.10964e-15
2.70744e-14
5.26715e-15
5.15088e-14
8.35901e-15
6.49288e-14
1.01641e-14
7.18226e-14
1.09653e-14
6.55951e-14
1.06533e-14
6.08421e-14
9.66178e-15
5.73561e-14
8.02659e-15
5.44577e-14
6.53449e-15
4.48409e-14
4.31235e-15
3.93838e-14
2.02675e-15
3.86151e-14
8.29234e-17
3.6757e-14
-2.68629e-15
-4.98517e-15
1.9279e-14
5.64566e-17
3.31928e-16
1.25862e-16
3.89838e-16
1.57201e-16
3.34038e-16
1.56358e-16
2.51352e-16
1.40273e-16
1.76508e-16
1.23501e-16
1.22329e-16
1.21933e-16
8.72615e-17
1.41694e-16
7.34876e-17
3.49292e-16
1.08466e-16
1.2864e-15
2.89388e-16
3.95428e-15
7.82105e-16
7.7376e-15
1.51389e-15
1.09511e-14
2.20614e-15
1.33604e-14
2.79806e-15
1.47921e-14
3.18246e-15
1.58177e-14
3.28639e-15
1.66094e-14
3.03334e-15
1.73458e-14
2.56892e-15
1.6694e-14
1.98653e-15
1.52479e-14
1.17756e-15
1.33251e-14
2.95021e-16
1.11024e-14
-4.69241e-16
-1.12826e-15
9.11567e-15
9.75425e-18
4.66692e-17
2.29579e-17
5.82418e-17
2.80465e-17
4.94029e-17
2.75e-17
3.68934e-17
2.44718e-17
2.58605e-17
2.11263e-17
1.77072e-17
1.93232e-17
1.21122e-17
2.14611e-17
8.99103e-18
4.50652e-17
1.15937e-17
1.65849e-16
3.0171e-17
5.29517e-16
8.89193e-17
1.12503e-15
1.93623e-16
1.77772e-15
3.08485e-16
2.46049e-15
4.19311e-16
3.16786e-15
5.23631e-16
3.82789e-15
5.9339e-16
4.3749e-15
6.01913e-16
4.8527e-15
5.47621e-16
5.13607e-15
4.57732e-16
5.12172e-15
3.09264e-16
4.78416e-15
1.2345e-16
4.54114e-15
-5.48872e-17
-2.11583e-16
4.28062e-15
1.4823e-18
6.16631e-18
3.68941e-18
8.10734e-18
4.43744e-18
6.80087e-18
4.30862e-18
5.02176e-18
3.78909e-18
3.47015e-18
3.16138e-18
2.29593e-18
2.60653e-18
1.42602e-18
2.55973e-18
1.14943e-18
4.87176e-18
4.44217e-18
1.77175e-17
4.40936e-18
5.85722e-17
9.4256e-18
1.32592e-16
1.71133e-17
2.28365e-16
2.88214e-17
3.4662e-16
4.16066e-17
4.88617e-16
5.45102e-17
6.37422e-16
6.46302e-17
7.6856e-16
6.78061e-17
8.84452e-16
6.30827e-17
9.94824e-16
5.38636e-17
1.06782e-15
3.9459e-17
1.10812e-15
2.01634e-17
1.14909e-15
-2.03151e-18
-2.00459e-17
1.19288e-15
2.04693e-19
7.60171e-19
5.37641e-19
1.04633e-18
6.35079e-19
8.63931e-19
6.07185e-19
6.25269e-19
5.20594e-19
4.19578e-19
4.03872e-19
2.5669e-19
3.60746e-19
1.71401e-19
4.18903e-19
7.019e-19
3.41516e-19
5.51604e-19
2.08378e-18
2.29973e-18
5.10314e-18
5.52184e-18
1.24524e-17
1.82444e-18
2.23532e-17
2.07698e-18
3.54838e-17
3.06603e-18
5.1627e-17
4.02649e-18
6.87856e-17
4.68424e-18
8.35692e-17
4.75404e-18
9.59419e-17
4.2329e-18
1.08603e-16
3.43103e-18
1.21305e-16
2.47601e-18
1.34009e-16
1.36515e-18
1.47947e-16
7.77588e-20
-9.27998e-19
1.69934e-16
2.58135e-20
8.65744e-20
7.13507e-20
1.24164e-19
8.23967e-20
1.00492e-19
7.68381e-20
7.0627e-20
6.24099e-20
4.46791e-20
5.29027e-20
2.58961e-20
6.05598e-20
1.03301e-19
-4.52482e-20
-6.44625e-20
-3.40361e-19
-4.09947e-19
-5.36571e-19
-5.50681e-19
1.1537e-19
9.32683e-20
8.96181e-19
9.90466e-19
1.69826e-18
3.98386e-19
2.80963e-18
2.01262e-19
4.17378e-18
2.32801e-19
5.45729e-18
2.7163e-19
6.338e-18
2.62872e-19
6.90166e-18
2.14017e-19
7.34077e-18
1.54879e-19
7.91043e-18
9.98923e-20
8.63923e-18
5.16274e-20
9.66784e-18
7.01405e-21
-2.7667e-20
1.21118e-17
2.98409e-21
9.09516e-21
8.64653e-21
1.35343e-20
9.69109e-21
1.06794e-20
8.63648e-21
7.14098e-21
6.88576e-21
4.00569e-21
9.06445e-21
1.39162e-20
-3.65948e-21
-5.97704e-21
-6.02019e-20
-8.19238e-20
-1.90411e-19
-2.18439e-19
-3.65323e-19
-3.55931e-19
-4.16461e-19
-3.45895e-19
-1.91442e-19
-1.35599e-19
1.2318e-19
8.37631e-20
1.56438e-19
1.25429e-19
2.49548e-19
3.46734e-20
3.42841e-19
1.15934e-20
3.90113e-19
1.15894e-20
3.9473e-19
9.16506e-21
3.83155e-19
6.10516e-21
3.79099e-19
3.51144e-21
3.96601e-19
1.61246e-21
4.30228e-19
1.97758e-22
-8.28976e-22
5.33657e-19
3.17379e-22
8.78084e-22
9.58942e-22
1.35311e-21
1.02949e-21
1.03047e-21
8.374e-22
6.25384e-22
1.11688e-21
5.7766e-22
2.11044e-22
4.06087e-22
-6.1438e-21
-9.6576e-21
-2.4512e-20
-3.20182e-20
-6.27638e-20
-6.88902e-20
-1.20453e-19
-1.11848e-19
-1.69968e-19
-1.33927e-19
-1.62375e-19
-1.08527e-19
-9.14554e-20
-5.16425e-20
-1.79651e-20
-8.50125e-21
1.05625e-20
5.91732e-21
1.34895e-20
7.05029e-21
1.79569e-20
9.17726e-22
1.85303e-20
2.70383e-22
1.70148e-20
1.9099e-22
1.57799e-20
1.04923e-22
1.55469e-20
4.16423e-23
1.65615e-20
-3.8266e-25
-2.3475e-22
3.0333e-20
3.09633e-23
7.67568e-23
9.73475e-23
1.23288e-22
9.72497e-23
8.83379e-23
1.12689e-22
6.06179e-23
9.42178e-23
2.20936e-22
-4.84161e-22
-9.02496e-22
-2.41082e-21
-3.66336e-21
-6.97674e-21
-8.78461e-21
-1.57521e-20
-1.66063e-20
-2.92122e-20
-2.59374e-20
-4.36641e-20
-3.27209e-20
-4.97512e-20
-3.14184e-20
-4.09256e-20
-2.16635e-20
-2.32095e-20
-1.0197e-20
-8.12101e-21
-2.91554e-21
-3.00956e-22
-8.62365e-23
4.51675e-22
1.65095e-22
5.56889e-22
1.33954e-22
5.96656e-22
3.88342e-23
5.47315e-22
1.87255e-24
5.37548e-22
8.54901e-25
1.17538e-21
-5.25598e-24
-3.03341e-22
1.8132e-20
2.72315e-24
5.83267e-24
8.96513e-24
1.00273e-23
1.01518e-23
7.01027e-24
1.24443e-23
3.72362e-23
-2.90943e-23
-6.6457e-23
-2.02998e-22
-3.68101e-22
-6.48476e-22
-9.56541e-22
-1.57275e-21
-1.91655e-21
-3.22242e-21
-3.27481e-21
-5.697e-21
-4.85158e-21
-8.55113e-21
-6.10744e-21
-1.03962e-20
-6.20857e-21
-9.76686e-21
-4.84178e-21
-6.87087e-21
-2.79268e-21
-3.53137e-21
-1.15455e-21
-1.26624e-21
-3.23542e-22
-3.29825e-22
-6.30171e-23
-3.32526e-23
-4.4229e-24
7.53146e-24
5.29717e-25
1.44074e-23
4.64612e-25
3.92092e-23
6.60124e-27
8.9479e-22
-1.28119e-23
-5.11447e-22
2.22431e-20
2.03987e-25
1.01983e-24
7.89379e-25
8.64245e-25
1.26001e-24
3.66664e-24
-1.01682e-24
-2.97616e-24
-1.48826e-23
-3.32504e-23
-5.36862e-23
-9.51138e-23
-1.37511e-22
-1.97757e-22
-2.93729e-22
-3.47868e-22
-5.5273e-22
-5.43549e-22
-9.24018e-22
-7.57135e-22
-1.35408e-21
-9.23786e-22
-1.66875e-21
-9.43117e-22
-1.6517e-21
-7.65707e-22
-1.26997e-21
-4.75271e-22
-7.44356e-22
-2.1945e-22
-3.33695e-22
-7.46636e-23
-1.19291e-22
-1.90894e-23
-3.43649e-23
-3.54575e-24
-8.04719e-24
-4.28923e-25
-1.41122e-24
-1.56945e-26
2.64178e-23
-3.01902e-25
1.02889e-21
-2.52041e-23
-8.35654e-22
2.63214e-20
1.40107e-26
2.71078e-25
8.99958e-26
5.72111e-25
2.79394e-26
1.1221e-25
-8.81403e-25
-2.53445e-24
-3.99471e-24
-8.77112e-24
-1.09731e-23
-1.90878e-23
-2.41603e-23
-3.40425e-23
-4.64538e-23
-5.37223e-23
-8.06573e-23
-7.70869e-23
-1.26652e-22
-1.0022e-22
-1.77829e-22
-1.16182e-22
-2.15111e-22
-1.15151e-22
-2.14294e-22
-9.27344e-23
-1.69524e-22
-5.80614e-23
-1.04125e-22
-2.73209e-23
-4.99149e-23
-9.53035e-24
-1.92879e-23
-2.45426e-24
-6.20714e-24
-4.40499e-25
-1.71307e-24
-3.82014e-26
-2.91383e-25
-2.38457e-27
2.75927e-23
-7.48105e-25
1.124e-21
-4.35269e-23
-1.25225e-21
2.88559e-20
-7.82448e-27
-9.80457e-26
-1.51416e-28
-9.43956e-28
-3.95898e-26
-1.56693e-25
-2.51104e-25
-7.13295e-25
-8.00783e-25
-1.73803e-24
-1.84726e-24
-3.1737e-24
-3.60368e-24
-5.00418e-24
-6.30078e-24
-7.15566e-24
-1.01007e-23
-9.43135e-24
-1.47997e-23
-1.13606e-23
-1.9617e-23
-1.23143e-23
-2.27337e-23
-1.15418e-23
-2.20439e-23
-8.88699e-24
-1.72006e-23
-5.35073e-24
-1.05053e-23
-2.40988e-24
-5.01593e-24
-7.86172e-25
-1.9199e-24
-1.77235e-25
-6.0862e-25
-2.1849e-26
-1.61813e-25
9.87438e-29
3.72391e-25
-8.84194e-27
2.9396e-23
-1.29e-24
1.16179e-21
-5.62085e-23
-1.49057e-21
2.88758e-20
-3.33696e-27
-4.10654e-26
-3.36286e-27
-2.07015e-26
-1.30944e-26
-5.14329e-26
-5.04363e-26
-1.42548e-25
-1.30796e-25
-2.82643e-25
-2.63815e-25
-4.50903e-25
-4.62878e-25
-6.38003e-25
-7.39132e-25
-8.30052e-25
-1.09197e-24
-1.00262e-24
-1.48246e-24
-1.11024e-24
-1.83066e-24
-1.10896e-24
-1.99073e-24
-9.60504e-25
-1.82587e-24
-6.84369e-25
-1.35524e-24
-3.79254e-25
-7.87361e-25
-1.53992e-25
-3.54416e-25
-4.28019e-26
-1.25696e-25
-6.88068e-27
-3.60119e-26
3.62107e-30
-7.26471e-27
-2.81826e-29
3.16808e-25
-1.31732e-26
2.87967e-23
-1.61253e-24
1.036e-21
-6.05889e-23
-1.24216e-21
2.24401e-20
-7.79617e-28
-9.5272e-27
-9.93146e-28
-6.09453e-27
-2.7108e-27
-1.06635e-26
-8.10315e-27
-2.29915e-26
-1.80642e-26
-3.92134e-26
-3.25078e-26
-5.5765e-26
-5.16928e-26
-7.13437e-26
-7.54617e-26
-8.45175e-26
-1.02381e-25
-9.31903e-26
-1.278e-25
-9.40631e-26
-1.45157e-25
-8.53513e-26
-1.45266e-25
-6.68194e-26
-1.2265e-25
-4.26583e-26
-8.35749e-26
-2.07801e-26
-4.41485e-26
-7.09036e-27
-1.76835e-26
-1.45946e-27
-5.38377e-27
-7.47291e-29
-1.23516e-27
1.28368e-30
2.10257e-27
-3.72409e-29
2.32132e-25
-1.20323e-26
2.16463e-23
-1.33923e-24
6.73757e-22
-4.14407e-23
-6.56323e-22
1.1687e-20
-1.36536e-28
-1.67981e-27
-1.91438e-28
-1.18512e-27
-4.34373e-28
-1.73074e-27
-1.09261e-27
-3.14681e-27
-2.1527e-27
-4.74571e-27
-3.495e-27
-6.08286e-27
-5.05558e-27
-7.06188e-27
-6.74021e-27
-7.60849e-27
-8.3588e-27
-7.61924e-27
-9.51423e-27
-6.94638e-27
-9.81108e-27
-5.64308e-27
-8.86239e-27
-3.90454e-27
-6.70051e-27
-2.15883e-27
-4.03547e-27
-8.76768e-28
-1.8404e-27
-2.28227e-28
-6.09723e-28
-2.52179e-29
-1.41652e-28
8.38916e-32
-2.50481e-29
1.44448e-32
6.13676e-28
-1.81172e-29
1.17699e-25
-5.7136e-27
1.08005e-23
-5.97603e-25
2.96616e-22
-1.67508e-23
-2.27383e-22
4.16806e-21
-1.94973e-29
-2.4537e-28
-2.88187e-29
-1.82565e-28
-5.76019e-29
-2.35685e-28
-1.26749e-28
-3.75539e-28
-2.24244e-28
-5.08723e-28
-3.30579e-28
-5.91454e-28
-4.35609e-28
-6.23926e-28
-5.29213e-28
-6.09897e-28
-5.96636e-28
-5.51492e-28
-6.13732e-28
-4.49758e-28
-5.66891e-28
-3.22217e-28
-4.53041e-28
-1.9247e-28
-2.97848e-28
-8.87817e-29
-1.51905e-28
-2.81661e-29
-5.60897e-29
-4.77683e-30
-1.38357e-29
8.0569e-34
-2.36485e-30
2.60865e-33
-1.35757e-31
-6.64188e-33
1.31209e-28
-3.00274e-30
3.35978e-26
-9.40678e-28
3.06269e-24
-1.07425e-25
8.12697e-23
-3.7927e-24
-6.45804e-23
1.0489e-21
-2.35764e-30
-3.09114e-29
-3.60133e-30
-2.37483e-29
-6.52502e-30
-2.78726e-29
-1.28449e-29
-3.97887e-29
-2.06117e-29
-4.88911e-29
-2.76959e-29
-5.175e-29
-3.32482e-29
-4.96054e-29
-3.66973e-29
-4.38594e-29
-3.73879e-29
-3.55898e-29
-3.44317e-29
-2.57041e-29
-2.80896e-29
-1.59882e-29
-1.94457e-29
-8.04215e-30
-1.0767e-29
-2.96723e-30
-4.42402e-30
-6.75322e-31
-1.21659e-30
-5.24878e-32
-1.90506e-31
1.35019e-34
-2.78132e-32
3.59848e-35
1.02727e-31
-1.58394e-33
1.41006e-29
-2.66357e-31
3.65238e-27
-6.69791e-29
3.81175e-25
-1.04177e-26
1.3721e-23
-7.61462e-25
-2.85154e-23
2.48724e-22
-2.4656e-31
-3.44274e-30
-3.84918e-31
-2.69728e-30
-6.43215e-31
-2.92606e-30
-1.14951e-30
-3.79529e-30
-1.68439e-30
-4.25751e-30
-2.06772e-30
-4.11158e-30
-2.25983e-30
-3.57867e-30
-2.25838e-30
-2.85237e-30
-2.06636e-30
-2.06406e-30
-1.68723e-30
-1.30693e-30
-1.19807e-30
-6.94637e-31
-7.02628e-31
-2.86607e-31
-3.1634e-31
-8.06262e-32
-9.87506e-32
-1.16788e-32
-1.80969e-32
7.16441e-37
-2.1528e-33
2.40595e-36
-2.22437e-34
4.34272e-38
7.21757e-33
-1.40497e-34
8.96803e-31
-1.94547e-32
1.92114e-28
-4.04314e-30
2.81704e-26
-9.45882e-28
2.19598e-24
-1.56446e-25
-1.19451e-23
9.12644e-23
-2.25888e-32
-3.45305e-31
-3.5815e-32
-2.73483e-31
-5.58776e-32
-2.77195e-31
-9.16211e-32
-3.29844e-31
-1.23206e-31
-3.39292e-31
-1.38373e-31
-2.99315e-31
-1.37525e-31
-2.36306e-31
-1.23998e-31
-1.69223e-31
-1.01251e-31
-1.08546e-31
-7.25826e-32
-5.96703e-32
-4.41933e-32
-2.66752e-32
-2.1449e-32
-8.78605e-33
-7.5571e-33
-1.78484e-33
-1.67397e-33
-1.3599e-34
-1.78914e-34
1.12348e-37
-1.83291e-35
2.77711e-38
-1.78559e-37
-1.94693e-38
4.36446e-34
-6.88051e-36
4.88731e-32
-1.08063e-33
8.90201e-30
-2.24107e-31
1.98683e-27
-7.12393e-29
3.46634e-25
-2.08657e-26
-2.35019e-24
2.82019e-23
-1.82785e-33
-3.16862e-32
-2.93643e-33
-2.51833e-32
-4.32052e-33
-2.40236e-32
-6.55466e-33
-2.64042e-32
-8.12067e-33
-2.49826e-32
-8.35214e-33
-2.01465e-32
-7.53896e-33
-1.44111e-32
-6.1109e-33
-9.24436e-33
-4.4255e-33
-5.22796e-33
-2.75812e-33
-2.47296e-33
-1.41833e-33
-9.1612e-34
-5.56087e-34
-2.34469e-34
-1.47176e-34
-3.23819e-35
-2.14514e-35
-8.59281e-37
-1.65947e-36
1.93445e-39
-1.2955e-37
2.61603e-40
2.37589e-37
2.17002e-41
1.53125e-35
-3.16518e-38
2.02274e-33
-2.26122e-35
3.76095e-31
-7.92738e-33
1.14287e-28
-3.97179e-30
3.43011e-26
-1.97034e-27
-2.98912e-25
3.91832e-24
-1.31444e-34
-2.69909e-33
-2.14354e-34
-2.13691e-33
-3.00232e-34
-1.92776e-33
-4.24477e-34
-1.9666e-33
-4.86102e-34
-1.71536e-33
-4.5815e-34
-1.2651e-33
-3.75077e-34
-8.19182e-34
-2.72384e-34