/*--------------------------------*- C++ -*----------------------------------*\
  =========                 |
  \\      /  F ield         | OpenFOAM: The Open Source CFD Toolbox
   \\    /   O peration     | Website:  https://openfoam.org
    \\  /    A nd           | Version:  9
     \\/     M anipulation  |
\*---------------------------------------------------------------------------*/
FoamFile
{
    format      ascii;
    class       volScalarField;
    location    "0.95";
    object      epsilon;
}
// * * * * * * * * * * * * * * * * * * * * * * * * * * * * * * * * * * * * * //

dimensions      [0 2 -3 0 0 0 0];

internalField   nonuniform List<scalar> 
2268
(
0.0277493
0.0349104
0.172145
0.222541
0.270626
0.315394
0.357526
0.397046
0.433726
0.467249
0.497079
0.52228
0.541317
0.551961
0.55138
0.536459
0.504273
0.453137
0.390107
0.31312
0.226373
0.152442
0.0314669
0.0483233
0.0627637
0.0865962
0.106754
0.125804
0.143776
0.16064
0.176315
0.190725
0.203798
0.215397
0.225246
0.232849
0.237467
0.23818
0.234076
0.224553
0.210656
0.196396
0.180062
0.161083
0.132523
0.0859794
0.0718318
0.0703622
0.0812756
0.0934874
0.105894
0.11804
0.12967
0.140629
0.150827
0.160198
0.168629
0.175895
0.181594
0.185131
0.185788
0.182919
0.176273
0.166589
0.156541
0.146922
0.138656
0.129459
0.120556
0.0958958
0.0811234
0.0856351
0.0936393
0.102754
0.112158
0.121443
0.130385
0.138856
0.146762
0.15397
0.160234
0.165142
0.168098
0.168405
0.165475
0.159191
0.15034
0.141081
0.132986
0.127378
0.125329
0.14698
0.119561
0.0923634
0.0923729
0.0975037
0.104445
0.112101
0.119946
0.127692
0.135169
0.142248
0.148761
0.154432
0.158812
0.161276
0.161108
0.157736
0.15112
0.142147
0.132839
0.125114
0.120325
0.120996
0.165882
0.142923
0.103381
0.0997454
0.102687
0.10801
0.114389
0.121203
0.128109
0.134895
0.141395
0.147409
0.152621
0.156549
0.158526
0.157809
0.153828
0.146598
0.137112
0.127388
0.119548
0.115006
0.116877
0.178767
0.166267
0.114024
0.107176
0.108336
0.112375
0.11775
0.123757
0.130006
0.136248
0.142282
0.147873
0.152674
0.156162
0.157637
0.156323
0.151644
0.14366
0.133464
0.123106
0.114834
0.110181
0.112737
0.186777
0.189968
0.124241
0.114443
0.11409
0.117065
0.121611
0.126949
0.132646
0.138419
0.144038
0.149235
0.153633
0.156676
0.15763
0.155689
0.150262
0.141448
0.130437
0.119276
0.110295
0.105119
0.107858
0.1905
0.0320145
0.152654
0.157742
0.259402
0.540931
0.994036
1.63241
2.34691
3.20985
4.13099
5.03426
5.84372
6.40374
6.46177
5.71599
4.53497
3.14838
1.74179
0.471259
0.0707477
0.0843766
0.135497
0.199076
0.320674
0.502176
0.747797
1.03864
1.38086
1.72995
2.06574
2.35784
2.55095
2.58155
2.43873
2.31364
2.0988
1.67412
0.918341
0.109265
0.105786
0.147989
0.206066
0.305225
0.446476
0.626085
0.839974
1.08186
1.32568
1.55913
1.75602
1.87732
1.893
1.82452
1.77192
1.73001
1.59213
1.38631
0.162266
0.127474
0.164831
0.226969
0.324086
0.453437
0.608366
0.790063
0.988322
1.18755
1.37785
1.53684
1.63167
1.64702
1.60957
1.57768
1.56244
1.53273
1.75538
0.223589
0.15033
0.18597
0.254651
0.35441
0.478661
0.620201
0.781899
0.953735
1.12758
1.29221
1.43041
1.517
1.5439
1.53352
1.51744
1.49455
1.49318
2.05861
0.296326
0.175147
0.210817
0.286187
0.389525
0.510328
0.642646
0.78925
0.943412
1.09967
1.24461
1.36666
1.45544
1.50495
1.52679
1.53096
1.49396
1.48089
2.31265
0.376619
0.201694
0.238489
0.319801
0.426053
0.543814
0.668698
0.803377
0.944267
1.08481
1.21175
1.32393
1.42343
1.5037
1.56181
1.58512
1.53881
1.50566
2.53429
0.499278
0.228683
0.268045
0.354318
0.462425
0.577041
0.695591
0.820723
0.949208
1.0726
1.18474
1.29677
1.41485
1.53224
1.62951
1.6606
1.60184
1.55933
2.75172
0.217126
0.137033
0.124352
0.122384
0.124137
0.127674
0.132159
0.137119
0.14224
0.147252
0.151852
0.155626
0.15798
0.158139
0.155253
0.148698
0.138575
0.126131
0.113491
0.102948
0.0959117
0.0952582
0.131292
0.258703
0.154677
0.137483
0.133364
0.133624
0.135941
0.139353
0.14333
0.147511
0.151593
0.155241
0.158013
0.159296
0.158293
0.154126
0.146138
0.134428
0.120349
0.106437
0.0951397
0.0877768
0.0872732
0.118901
0.300399
0.171913
0.150213
0.143927
0.142664
0.143695
0.145917
0.148739
0.151766
0.154673
0.157116
0.15866
0.158719
0.156535
0.151273
0.14231
0.129791
0.11519
0.101728
0.0921684
0.0886737
0.0971035
0.140208
0.343404
0.18908
0.162682
0.154108
0.151189
0.150766
0.151589
0.15301
0.154611
0.156064
0.157041
0.15715
0.155887
0.15262
0.146682
0.137654
0.125911
0.113262
0.102957
0.0978815
0.101326
0.119832
0.164822
0.387063
0.206309
0.174889
0.163883
0.159151
0.157084
0.156293
0.156084
0.156032
0.155827
0.155193
0.15383
0.151384
0.147446
0.141637
0.13384
0.124625
0.115779
0.109837
0.109707
0.118837
0.141848
0.182524
0.42841
0.222837
0.186604
0.173145
0.166496
0.162643
0.16008
0.158086
0.156253
0.154314
0.152073
0.149364
0.146031
0.141946
0.137062
0.131545
0.126005
0.121624
0.120179
0.124228
0.13687
0.161344
0.199498
0.466872
0.238483
0.197725
0.18184
0.173216
0.167492
0.163075
0.159239
0.155611
0.151988
0.148276
0.144454
0.140572
0.136756
0.133232
0.130338
0.128578
0.128547
0.131389
0.139051
0.154125
0.179297
0.216467
0.50215
0.253173
0.208194
0.189935
0.179327
0.171715
0.165445
0.159806
0.154473
0.149321
0.144356
0.139691
0.135537
0.132198
0.130054
0.129525
0.130903
0.134506
0.14101
0.151757
0.168815
0.194641
0.231557
0.534198
0.266898
0.217978
0.197421
0.184869
0.175417
0.167372
0.16005
0.153182
0.14672
0.140756
0.135503
0.131272
0.128466
0.127512
0.128755
0.132421
0.138696
0.147982
0.161213
0.180056
0.206806
0.24402
0.563454
0.279727
0.227073
0.204312
0.189898
0.178708
0.16903
0.160214
0.152043
0.144529
0.13783
0.132216
0.128043
0.125718
0.12564
0.128122
0.133355
0.141479
0.152779
0.167981
0.188504
0.216467
0.254414
0.591034
0.291797
0.235483
0.210563
0.194402
0.181654
0.170564
0.160499
0.151287
0.142984
0.135787
0.129986
0.125936
0.124022
0.124602
0.127961
0.134281
0.143708
0.156515
0.173356
0.195505
0.224916
0.264008
0.618756
0.303025
0.243035
0.216162
0.198482
0.184401
0.172133
0.161068
0.151068
0.142218
0.134731
0.128893
0.125038
0.12351
0.124632
0.128666
0.135809
0.146249
0.160304
0.178631
0.202443
0.233566
0.274305
0.645917
0.313206
0.249841
0.221237
0.20225
0.187065
0.173861
0.162046
0.151505
0.14234
0.13476
0.129034
0.125461
0.124349
0.125985
0.130625
0.138497
0.149851
0.165086
0.184912
0.21054
0.243729
0.286706
0.671156
0.322459
0.255993
0.225866
0.20579
0.189733
0.175841
0.163529
0.152693
0.143438
0.135961
0.130505
0.127335
0.126722
0.128929
0.134215
0.14285
0.155165
0.171654
0.193117
0.220801
0.256426
0.302134
0.694152
0.330811
0.26154
0.230105
0.209161
0.192472
0.178142
0.165585
0.1547
0.145583
0.138414
0.13341
0.1308
0.130825
0.133736
0.139799
0.149332
0.16275
0.180651
0.203926
0.233856
0.272099
0.32064
0.714803
0.338287
0.266519
0.233994
0.212408
0.195328
0.180812
0.168263
0.157575
0.148832
0.142192
0.137845
0.135993
0.136851
0.140659
0.147697
0.158323
0.173022
0.192475
0.217631
0.249757
0.290387
0.340926
0.733038
0.344905
0.270957
0.237564
0.21556
0.198329
0.183877
0.171591
0.161351
0.153225
0.147351
0.143895
0.143033
0.144959
0.149899
0.158135
0.170046
0.186155
0.207176
0.234054
0.267974
0.30989
0.360868
0.748747
0.350671
0.274873
0.240835
0.218638
0.201493
0.187355
0.175585
0.166047
0.158792
0.153938
0.151626
0.152009
0.155255
0.161565
0.171205
0.184538
0.202075
0.224509
0.252697
0.287289
0.329169
0.379427
0.761772
0.355586
0.278286
0.243827
0.22166
0.204838
0.191259
0.180258
0.171679
0.165555
0.161983
0.161079
0.162968
0.167781
0.175678
0.186874
0.201678
0.22054
0.244079
0.272683
0.307
0.347874
0.396499
0.771918
0.359644
0.281216
0.246567
0.224653
0.208387
0.195612
0.185634
0.178272
0.17354
0.171511
0.172277
0.175921
0.182524
0.192181
0.205025
0.221277
0.241306
0.265374
0.293778
0.32712
0.366293
0.412719
0.778956
0.362845
0.283697
0.249101
0.227666
0.212191
0.200464
0.191758
0.185868
0.182784
0.182555
0.185235
0.19086
0.199443
0.210986
0.225518
0.243141
0.264085
0.288298
0.316066
0.347978
0.38505
0.429036
0.782649
0.365205
0.285789
0.251506
0.230784
0.216338
0.205904
0.198718
0.19455
0.193361
0.195169
0.199986
0.207783
0.21849
0.232004
0.248236
0.26718
0.288775
0.31289
0.339758
0.37
0.404813
0.446377
0.782766
0.366765
0.287591
0.253906
0.234147
0.220976
0.212082
0.206664
0.204459
0.205397
0.209457
0.216597
0.226718
0.239652
0.255183
0.273099
0.293281
0.31537
0.339236
0.365069
0.39356
0.426132
0.465495
0.779091
0.367604
0.289252
0.256489
0.237968
0.226335
0.219239
0.215838
0.21583
0.219108
0.225603
0.235213
0.247758
0.262973
0.280525
0.30008
0.321385
0.343876
0.367403
0.392148
0.41894
0.449408
0.486411
0.771427
0.367849
0.290992
0.259527
0.242557
0.232755
0.227734
0.226608
0.22903
0.234841
0.24392
0.256095
0.271108
0.288598
0.308123
0.329251
0.351515
0.374296
0.397435
0.421054
0.44605
0.474329
0.509386
0.759558
0.367688
0.29312
0.263405
0.248359
0.24073
0.238102
0.239535
0.244622
0.253143
0.264908
0.279678
0.297127
0.316812
0.338178
0.360717
0.383702
0.40653
0.428991
0.451351
0.47463
0.501011
0.534627
0.743248
0.367447
0.29609
0.268676
0.256011
0.25098
0.251136
0.255464
0.263472
0.274856
0.289347
0.306631
0.326303
0.347852
0.370687
0.394246
0.417615
0.440227
0.461892
0.482978
0.504677
0.529496
0.562253
0.724804
0.368431
0.300731
0.276182
0.26646
0.264545
0.267936
0.275512
0.286656
0.300948
0.318032
0.337537
0.359027
0.381976
0.405786
0.429861
0.453191
0.475263
0.495956
0.515765
0.536082
0.55976
0.592328
0.70746
0.371931
0.308053
0.286932
0.2808
0.282642
0.289835
0.301078
0.315558
0.332695
0.352047
0.373234
0.395861
0.419473
0.443561
0.467418
0.490142
0.511274
0.530798
0.549364
0.568587
0.59166
0.624806
0.689105
0.377804
0.318774
0.301967
0.300326
0.306801
0.31856
0.333995
0.351974
0.371698
0.39267
0.414601
0.437271
0.460416
0.483719
0.506393
0.527776
0.547499
0.565672
0.583115
0.601654
0.624791
0.659338
0.668742
0.386145
0.333642
0.322408
0.326503
0.338828
0.356205
0.376498
0.39804
0.419737
0.441143
0.462276
0.48331
0.504351
0.525353
0.545635
0.564796
0.582616
0.599332
0.615902
0.634295
0.658234
0.694941
0.645718
0.39704
0.353314
0.349285
0.360748
0.380566
0.404996
0.430973
0.455904
0.478328
0.49814
0.516099
0.533143
0.549954
0.566802
0.583312
0.599326
0.614789
0.630055
0.646109
0.664906
0.690254
0.729546
0.619296
0.41034
0.378091
0.38314
0.403888
0.433252
0.466609
0.499229
0.526849
0.547691
0.562729
0.574281
0.584552
0.594974
0.605976
0.617564
0.62964
0.642307
0.656089
0.671851
0.691253
0.718065
0.759633
0.588327
0.425241
0.407394
0.423262
0.455098
0.496237
0.540841
0.581048
0.609529
0.624846
0.630816
0.63259
0.634033
0.637043
0.642003
0.648579
0.65624
0.665279
0.676842
0.691659
0.710736
0.737936
0.78043
0.551016
0.43956
0.438853
0.46639
0.510192
0.565177
0.624157
0.672469
0.697215
0.700755
0.69375
0.684886
0.678928
0.677112
0.678899
0.682463
0.685393
0.68831
0.694606
0.705485
0.721128
0.746072
0.787274
0.504698
0.448542
0.466603
0.504691
0.559711
0.630019
0.704984
0.757507
0.769884
0.75758
0.740036
0.727699
0.722687
0.723843
0.728696
0.733563
0.730568
0.721068
0.714017
0.71357
0.720179
0.740656
0.77916
0.445758
0.440587
0.47615
0.520817
0.584917
0.67396
0.769321
0.815646
0.802859
0.779646
0.767702
0.768795
0.777611
0.789838
0.803427
0.81408
0.801931
0.770174
0.738472
0.718304
0.712972
0.729164
0.762673
0.387147
0.40054
0.443121
0.496265
0.580162
0.699675
0.812708
0.827382
0.790601
0.780212
0.792559
0.821363
0.848963
0.868165
0.88542
0.907275
0.888966
0.831811
0.772962
0.728793
0.709991
0.71868
0.74138
0.397294
0.348931
0.379416
0.44692
0.556286
0.696302
0.79939
0.765593
0.743607
0.76652
0.801064
0.842036
0.873744
0.87832
0.880076
0.909313
0.919377
0.880845
0.804297
0.738498
0.70389
0.696621
0.710505
0.590063
0.339767
0.330241
0.390141
0.49455
0.622673
0.702216
0.663745
0.668353
0.72092
0.771594
0.79984
0.803174
0.785809
0.785811
0.816878
0.883458
0.944934
0.846558
0.753902
0.707479
0.699407
0.723663
0.982136
0.308415
0.247615
0.277227
0.349377
0.451309
0.553894
0.550957
0.587656
0.649915
0.669401
0.653709
0.664808
0.670198
0.71615
0.780723
0.952422
1.15761
0.913534
0.772938
0.715008
0.686469
0.737382
1.6925
0.225293
0.143689
0.142185
0.159208
0.194194
0.272042
0.362829
0.456937
0.49278
0.399614
0.407265
0.38001
0.449686
0.499387
0.67443
1.11838
1.47491
0.685088
0.608451
0.495391
0.545857
0.637702
0.152873
0.161011
0.288564
0.555861
0.183759
0.240383
0.283341
0.310078
0.213002
0.246089
0.26418
0.276482
0.21849
0.244068
0.265254
0.286399
0.227388
0.254016
0.280522
0.308382
0.242558
0.270712
0.300242
0.331429
0.259021
0.28786
0.318579
0.350908
0.27362
0.302517
0.333376
0.365654
0.285577
0.314251
0.344805
0.376562
0.29564
0.324114
0.354367
0.385656
0.305318
0.333872
0.36416
0.395415
0.316323
0.345399
0.37623
0.408028
0.330111
0.36017
0.392039
0.42472
0.347378
0.378645
0.411496
0.44496
0.367448
0.399444
0.432881
0.466825
0.388155
0.42035
0.453901
0.487888
0.40765
0.439509
0.472707
0.506365
0.424995
0.456096
0.488618
0.521749
0.440344
0.470446
0.502162
0.534754
0.454622
0.483678
0.51466
0.546947
0.469036
0.497162
0.527657
0.559795
0.484724
0.512133
0.542277
0.57468
0.50225
0.52922
0.559513
0.592789
0.522054
0.549072
0.580137
0.615063
0.544547
0.572167
0.604742
0.642266
0.569995
0.59885
0.633797
0.675054
0.598582
0.629385
0.667684
0.713987
0.630427
0.663948
0.706658
0.759436
0.665491
0.702496
0.750652
0.811301
0.703335
0.744462
0.79888
0.868487
0.742693
0.788248
0.849222
0.928142
0.780921
0.830584
0.897484
0.98479
0.813585
0.866093
0.936941
1.02987
0.834749
0.88766
0.958855
1.05244
0.838753
0.888477
0.954754
1.0419
0.823857
0.865716
0.920418
0.99265
0.795118
0.82407
0.861499
0.912611
0.758642
0.773039
0.792906
0.824849
0.729324
0.747498
0.767499
0.78756
0.748257
0.769608
0.791196
0.810886
0.801628
0.859758
0.918155
0.964664
0.918379
1.09124
1.20141
1.35239
0.304657
0.259398
0.315575
0.408233
0.515897
0.623692
0.73336
0.845988
0.955482
1.05425
1.15424
1.27771
1.43122
1.61191
1.78225
1.82455
1.7285
1.67015
3.13765
0.274605
0.300572
0.376122
0.475793
0.578816
0.677293
0.775608
0.869122
0.950562
1.02838
1.13335
1.29353
1.51903
1.82012
2.13457
2.2022
1.99718
1.81786
3.36822
0.289092
0.346514
0.433275
0.532876
0.628375
0.716997
0.801236
0.873798
0.935524
1.00909
1.13279
1.33645
1.64503
2.09514
2.60875
2.74883
2.4015
1.99823
3.47687
0.318833
0.391724
0.482245
0.576446
0.662559
0.74048
0.809572
0.865713
0.919252
1.00061
1.14717
1.39108
1.77686
2.37782
3.11958
3.31419
2.77176
2.19309
3.66591
0.350643
0.430224
0.519547
0.605475
0.681631
0.74831
0.804152
0.852207
0.907789
1.00194
1.16843
1.44637
1.89784
2.62694
3.60903
3.78614
2.93471
2.35388
3.88104
0.378297
0.458996
0.543669
0.621291
0.688263
0.745025
0.792143
0.838718
0.902465
1.01009
1.19181
1.49873
2.00965
2.84751
4.06771
4.20678
3.06931
2.44771
3.90864
0.399463
0.478159
0.556979
0.627493
0.687339
0.736886
0.780368
0.829691
0.902921
1.02235
1.21655
1.54816
2.1165
3.06055
4.44363
4.63245
3.30824
2.52116
3.86576
0.414424
0.490072
0.563624
0.628989
0.684154
0.729875
0.773418
0.82743
0.908942
1.03766
1.24321
1.59481
2.21873
3.28244
4.78427
5.06681
3.64018
2.67838
3.91545
0.425079
0.497991
0.568168
0.630826
0.683177
0.728097
0.773734
0.832675
0.920926
1.05704
1.27198
1.6386
2.30657
3.4673
5.02105
5.48852
4.12623
2.99582
4.23838
0.434217
0.50576
0.574824
0.6361
0.687638
0.733544
0.78202
0.845342
0.93894
1.08118
1.30369
1.67928
2.35825
3.53255
5.07289
5.81126
4.82775
3.44241
4.92659
0.444888
0.516644
0.585983
0.646651
0.698765
0.746469
0.797864
0.864977
0.963061
1.11071
1.33936
1.71667
2.37144
3.45971
4.91147
5.84893
5.41756
3.96493
5.89461
0.45911
0.53252
0.601918
0.662896
0.716186
0.765974
0.82028
0.891059
0.993673
1.14707
1.3816
1.75632
2.37106
3.33335
4.59841
5.61362
5.57051
4.40123
6.67398
0.477653
0.552754
0.622146
0.68371
0.738422
0.790537
0.848053
0.922992
1.03108
1.19187
1.4344
1.80875
2.38782
3.23824
4.33048
5.32922
5.54807
4.66879
7.194
0.499583
0.575368
0.644808
0.707077
0.763516
0.818473
0.87994
0.960075
1.07515
1.24575
1.50028
1.88112
2.44079
3.21971
4.19925
5.17209
5.55868
4.81617
7.50355
0.522401
0.598127
0.667613
0.730905
0.789696
0.848374
0.914908
1.00165
1.12562
1.30875
1.57973
1.97568
2.53493
3.27977
4.19682
5.15279
5.60171
4.87579
7.65019
0.543646
0.618968
0.68879
0.753804
0.815938
0.879523
0.952468
1.04742
1.18242
1.38113
1.67327
2.09285
2.66789
3.40476
4.28297
5.20293
5.60917
4.85805
7.62292
0.56183
0.636851
0.707707
0.775526
0.842302
0.912177
0.992978
1.0978
1.24599
1.46323
1.78072
2.2309
2.83475
3.58395
4.43568
5.28445
5.55505
4.78342
7.44414
0.576831
0.652045
0.724992
0.797012
0.869959
0.947629
1.03773
1.15398
1.31727
1.55532
1.90073
2.38527
3.02597
3.80455
4.64337
5.40065
5.46884
4.68862
7.27408
0.589671
0.665881
0.742264
0.820153
0.901019
0.988083
1.08886
1.21786
1.39769
1.65778
2.0312
2.54844
3.22352
4.03023
4.85861
5.50265
5.35007
4.58386
7.12889
0.601923
0.680283
0.761753
0.847509
0.938329
1.03651
1.14923
1.29195
1.48919
1.77143
2.17019
2.71229
3.40702
4.2182
5.01141
5.51318
5.19627
4.44131
6.98444
0.615419
0.697387
0.786007
0.882113
0.985356
1.09657
1.22232
1.37933
1.59431
1.89791
2.31744
2.87226
3.56453
4.34738
5.06823
5.39995
4.96146
4.25817
6.78056
0.631871
0.71933
0.817747
0.927411
1.04619
1.1726
1.31223
1.48359
1.71613
2.03989
2.47477
3.02893
3.69665
4.42635
5.05592
5.20301
4.64525
4.0359
6.4804
0.652779
0.748179
0.859881
0.987337
1.12563
1.26967
1.42361
1.60865
1.85809
2.20051
2.6452
3.18524
3.80816
4.46907
5.0155
4.98352
4.30391
3.79094
6.13591
0.679437
0.785977
0.915579
1.06643
1.22931
1.39357
1.56145
1.75851
2.02343
2.38245
2.83092
3.3432
3.89984
4.47072
4.93614
4.75485
3.97344
3.55244
5.77244
0.713012
0.834812
0.988354
1.1699
1.36364
1.55057
1.73072
1.93677
2.21448
2.58627
3.03035
3.49895
3.96336
4.41261
4.76721
4.46987
3.66742
3.31888
5.39971
0.754594
0.896829
1.08203
1.30355
1.5356
1.7469
1.93565
2.1459
2.43168
2.80869
3.2353
3.63991
3.98213
4.27407
4.47367
4.12508
3.37364
3.08444
5.02406
0.805161
0.974075
1.20041
1.47322
1.75185
1.98763
2.17869
2.38642
2.67217
3.04002
3.42947
3.7502
3.95734
4.0683
4.07539
3.7687
3.10248
2.86001
4.64741
0.865362
1.06804
1.34653
1.68367
2.01726
2.27494
2.4592
2.65571
2.92765
3.25998
3.58307
3.80628
3.89619
3.85108
3.69712
3.46635
2.86644
2.64974
4.26475
0.935043
1.17875
1.52113
1.93642
2.33227
2.60602
2.77252
2.94706
3.18341
3.43531
3.64358
3.75791
3.75419
3.63426
3.43015
3.257
2.66144
2.4488
3.86475
1.01243
1.30334
1.72037
2.22649
2.68948
2.97152
3.11028
3.2482
3.4193
3.53195
3.56594
3.54955
3.45232
3.29921
3.14542
2.8925
2.41645
2.24461
3.43999
1.09306
1.43419
1.93293
2.53829
3.07012
3.35686
3.46379
3.53821
3.60851
3.54509
3.38029
3.22402
3.03488
2.85588
2.68462
2.41885
2.13328
2.03715
2.99925
1.16861
1.55721
2.13764
2.84221
3.4423
3.74837
3.83202
3.80166
3.72335
3.50475
3.17711
2.89634
2.63676
2.42407
2.24241
2.05082
1.87784
1.83804
2.56387
1.22655
1.65159
2.30427
3.09558
3.76418
4.13744
4.22565
4.07488
3.80417
3.45001
3.02338
2.62647
2.32492
2.10346
1.93127
1.78562
1.67371
1.65631
2.15987
1.2513
1.69188
2.39407
3.23648
3.99844
4.52462
4.66164
4.41393
3.97622
3.45597
2.91678
2.45044
2.12159
1.89211
1.72905
1.60849
1.52229
1.4976
1.81325
1.22802
1.65479
2.34984
3.21722
4.11787
4.90555
5.15671
4.8514
4.32535
3.61465
2.93846
2.40576
2.03556
1.78756
1.62042
1.50354
1.41792
1.3676
1.54637
1.14909
1.52149
2.15331
3.01928
4.10001
5.22765
5.69046
5.38922
4.84838
3.98447
3.15086
2.51054
2.07248
1.78279
1.58927
1.45473
1.35187
1.27003
1.37316
1.02867
1.31642
1.84824
2.70703
3.96773
5.37422
6.09886
5.95354
5.45183
4.5174
3.52588
2.74544
2.20835
1.85021
1.60877
1.43951
1.30925
1.20148
1.29201
0.904967
1.11732
1.54517
2.42022
3.83494
5.16503
5.77323
6.0214
5.82213
4.99095
3.89486
2.98089
2.34669
1.91969
1.629
1.42358
1.26789
1.14896
1.278
0.833887
0.956764
1.24077
1.91529
3.12062
4.06827
4.48452
4.99444
5.30276
4.74269
3.77314
2.9373
2.32416
1.89058
1.58926
1.37006
1.20653
1.09424
1.28147
0.841811
0.903401
1.04074
1.35874
1.95345
2.71581
3.44328
3.89586
4.00383
3.65436
3.07712
2.51842
2.06741
1.71406
1.46232
1.26316
1.12105
1.02891
1.24545
0.994029
1.02788
1.10025
1.23075
1.51276
2.20492
3.24695
3.56426
3.01706
2.65518
2.30718
1.97133
1.71148
1.44418
1.29633
1.12185
1.05542
1.00822
1.16143
1.15873
1.26364
1.22534
1.20224
1.13742
1.81668
2.95081
3.08568
2.1262
1.6952
1.50903
1.32112
1.12867
0.982097
0.822674
0.756413
0.668108
0.861283
1.42272
)
;

boundaryField
{
    leftWall
    {
        type            epsilonWallFunction;
        value           nonuniform List<scalar> 
50
(
0.0277493
0.0483233
0.0718318
0.0958958
0.119561
0.142923
0.166267
0.189968
0.217126
0.258703
0.300399
0.343404
0.387063
0.42841
0.466872
0.50215
0.534198
0.563454
0.591034
0.618756
0.645917
0.671156
0.694152
0.714803
0.733038
0.748747
0.761772
0.771918
0.778956
0.782649
0.782766
0.779091
0.771427
0.759558
0.743248
0.724804
0.70746
0.689105
0.668742
0.645718
0.619296
0.588327
0.551016
0.504698
0.445758
0.387147
0.397294
0.590063
0.982136
1.6925
)
;
    }
    rightWall
    {
        type            epsilonWallFunction;
        value           nonuniform List<scalar> 
50
(
0.471259
0.918341
1.38631
1.75538
2.05861
2.31265
2.53429
2.75172
3.13765
3.36822
3.47687
3.66591
3.88104
3.90864
3.86576
3.91545
4.23838
4.92659
5.89461
6.67398
7.194
7.50355
7.65019
7.62292
7.44414
7.27408
7.12889
6.98444
6.78056
6.4804
6.13591
5.77244
5.39971
5.02406
4.64741
4.26475
3.86475
3.43999
2.99925
2.56387
2.15987
1.81325
1.54637
1.37316
1.29201
1.278
1.28147
1.24545
1.16143
1.42272
)
;
    }
    lowerWall
    {
        type            epsilonWallFunction;
        value           nonuniform List<scalar> 
62
(
0.0277493
0.0349104
0.172145
0.222541
0.270626
0.315394
0.357526
0.397046
0.433726
0.467249
0.497079
0.52228
0.541317
0.551961
0.55138
0.536459
0.504273
0.453137
0.390107
0.31312
0.226373
0.152442
0.0314669
0.0314669
0.0859794
0.120556
0.14698
0.165882
0.178767
0.186777
0.1905
0.152873
0.161011
0.288564
0.555861
0.0320145
0.0707477
0.109265
0.162266
0.223589
0.296326
0.376619
0.499278
0.0320145
0.152654
0.157742
0.259402
0.540931
0.994036
1.63241
2.34691
3.20985
4.13099
5.03426
5.84372
6.40374
6.46177
5.71599
4.53497
3.14838
1.74179
0.471259
)
;
    }
    atmosphere
    {
        type            inletOutlet;
        inletValue      uniform 0.1;
        value           nonuniform List<scalar> 
46
(
0.1
0.1
0.1
0.1
0.1
0.1
0.1
0.1
0.1
0.49278
0.1
0.407265
0.1
0.449686
0.1
0.67443
1.11838
1.47491
0.1
0.608451
0.1
0.545857
0.1
0.918379
1.09124
1.20141
0.1
0.1
1.26364
1.22534
0.1
0.1
1.81668
2.95081
3.08568
0.1
1.6952
0.1
1.32112
0.1
0.982097
0.1
0.756413
0.1
0.861283
0.1
)
;
    }
    defaultFaces
    {
        type            empty;
    }
}


// ************************************************************************* //
