/*--------------------------------*- C++ -*----------------------------------*\
  =========                 |
  \\      /  F ield         | OpenFOAM: The Open Source CFD Toolbox
   \\    /   O peration     | Website:  https://openfoam.org
    \\  /    A nd           | Version:  9
     \\/     M anipulation  |
\*---------------------------------------------------------------------------*/
FoamFile
{
    format      ascii;
    class       volScalarField;
    location    "0.95";
    object      k;
}
// * * * * * * * * * * * * * * * * * * * * * * * * * * * * * * * * * * * * * //

dimensions      [0 2 -2 0 0 0 0];

internalField   nonuniform List<scalar> 
2268
(
0.00652448
0.010753
0.01179
0.0139865
0.0159334
0.0176407
0.0191735
0.0205578
0.0218029
0.0229107
0.0238735
0.02467
0.02526
0.0255821
0.025555
0.0250827
0.024061
0.0224062
0.0202752
0.0175085
0.014103
0.0107167
0.00951576
0.00828549
0.0175302
0.0239352
0.0288229
0.032775
0.0361064
0.0389784
0.0414667
0.0436048
0.0454011
0.0468406
0.0478805
0.0484446
0.0484238
0.0476891
0.0461186
0.0436307
0.0401448
0.0355841
0.0302886
0.0250493
0.020271
0.0122221
0.0107964
0.0230612
0.0310903
0.0371263
0.0419846
0.046054
0.0495311
0.0525133
0.0550454
0.0571382
0.0587706
0.0598857
0.0603861
0.0601377
0.0589911
0.056824
0.0535965
0.0493632
0.0441767
0.0381924
0.0319143
0.0261612
0.0153367
0.0130924
0.0277117
0.0367724
0.0434859
0.0488658
0.0533545
0.0571686
0.0604154
0.0631428
0.0653595
0.0670369
0.0681052
0.0684502
0.0679204
0.0663559
0.0636446
0.0597933
0.0549605
0.0493343
0.0431072
0.0364687
0.029964
0.0175272
0.0151683
0.0318904
0.0417723
0.0489647
0.0546889
0.059443
0.0634601
0.0668526
0.069668
0.0719099
0.0735413
0.0744803
0.0745981
0.0737303
0.0717126
0.0684486
0.0639952
0.0586033
0.0525762
0.0461906
0.0394461
0.032404
0.0190261
0.017087
0.0357383
0.0463275
0.0538958
0.0598674
0.0647968
0.0689344
0.072396
0.0752267
0.0774242
0.0789422
0.0796875
0.0795192
0.078263
0.0757541
0.0719155
0.0668566
0.0609162
0.0544991
0.0479644
0.0412224
0.0338673
0.0200304
0.0189022
0.0393359
0.0505452
0.058425
0.0645839
0.0696301
0.0738313
0.0773065
0.0800979
0.0821965
0.0835472
0.0840464
0.0835429
0.0818549
0.0788195
0.0743809
0.0687019
0.0622091
0.0553969
0.0486952
0.0419859
0.0345364
0.0206617
0.0206595
0.0427382
0.0544888
0.0626325
0.0689376
0.0740594
0.0782818
0.0817274
0.0844356
0.086391
0.08753
0.0877398
0.0868602
0.0847041
0.081111
0.0760468
0.0697279
0.06267
0.0554428
0.0485345
0.0418285
0.0344473
0.0209784
0.00969468
0.0106993
0.011272
0.0160641
0.0261492
0.0388738
0.0536575
0.0679537
0.0833525
0.0979309
0.111136
0.122158
0.129363
0.129926
0.119778
0.102837
0.0806707
0.0542786
0.0285937
0.0115339
0.0194591
0.0293235
0.0419501
0.0608517
0.085894
0.113664
0.141853
0.170229
0.19549
0.217481
0.234335
0.242816
0.239008
0.220801
0.187206
0.150867
0.116156
0.0634889
0.0154124
0.0296429
0.0427731
0.0599771
0.0840599
0.1139
0.145686
0.178635
0.21098
0.240079
0.2654
0.284374
0.293186
0.288416
0.269532
0.236595
0.196278
0.154147
0.0841037
0.0201203
0.0388027
0.0547422
0.0757676
0.103354
0.135645
0.169308
0.204167
0.23779
0.268299
0.294786
0.314551
0.323552
0.319229
0.301967
0.271606
0.230114
0.182702
0.0990073
0.0249571
0.0477564
0.0663817
0.0906273
0.120769
0.154424
0.188878
0.224188
0.257878
0.288792
0.315362
0.335231
0.344878
0.342412
0.328213
0.300942
0.258338
0.20509
0.110576
0.0302042
0.0567374
0.0779759
0.104875
0.136921
0.171176
0.205756
0.240656
0.273938
0.304573
0.330351
0.34956
0.36048
0.361392
0.351666
0.328159
0.28444
0.224099
0.119974
0.0355153
0.0658853
0.0895688
0.118559
0.151873
0.186284
0.220556
0.254638
0.287169
0.316729
0.340946
0.359591
0.372596
0.378063
0.373684
0.353782
0.30959
0.242453
0.127905
0.0429853
0.075417
0.101141
0.131674
0.165741
0.199985
0.2337
0.266803
0.298059
0.3256
0.3481
0.367156
0.383136
0.394006
0.395389
0.377577
0.332565
0.260599
0.135386
0.0225825
0.0471365
0.0598391
0.0684519
0.075001
0.0802267
0.0844469
0.0877968
0.0903165
0.0919855
0.0927322
0.0924351
0.090927
0.088018
0.0835556
0.0775348
0.0702399
0.0622995
0.0543757
0.0470437
0.0401717
0.0327856
0.0210192
0.0253794
0.0528505
0.0665052
0.0755509
0.0822734
0.0874937
0.0915644
0.0946348
0.0967475
0.0978783
0.09795
0.0968354
0.0943646
0.0903491
0.0846468
0.0772818
0.068615
0.0594386
0.0507331
0.0432338
0.0367499
0.0304132
0.0237589
0.0280324
0.0582256
0.0726587
0.0820029
0.08877
0.0938513
0.0976318
0.100277
0.101837
0.102291
0.101566
0.0995415
0.0960583
0.0909448
0.0840829
0.0755251
0.0656931
0.0555061
0.0464437
0.0394069
0.0342848
0.0310536
0.0331547
0.0306268
0.063269
0.078373
0.087916
0.0946178
0.0994391
0.1028
0.104888
0.105768
0.105435
0.103831
0.100859
0.0963956
0.0903184
0.0825722
0.0732961
0.063023
0.0528782
0.0445059
0.0388511
0.0362662
0.0377931
0.0470204
0.0331728
0.0679416
0.0836673
0.0933417
0.0998942
0.104361
0.107206
0.108645
0.108771
0.107606
0.105128
0.101289
0.0960323
0.089328
0.0812385
0.0720389
0.0623894
0.0535028
0.0466913
0.042984
0.0431806
0.0485448
0.0610905
0.0354957
0.0722867
0.0885784
0.09833
0.104672
0.108721
0.110989
0.111734
0.111088
0.109114
0.105847
0.101309
0.0955415
0.0886423
0.0808242
0.0725035
0.0643974
0.0573948
0.0525104
0.0507523
0.0531002
0.0606603
0.074454
0.0375878
0.076303
0.0931138
0.102904
0.108998
0.112596
0.114268
0.11432
0.112933
0.110229
0.106308
0.10128
0.0952953
0.0885785
0.0814707
0.0744619
0.0681282
0.0631046
0.0601426
0.0600928
0.06389
0.07246
0.0864312
0.0394536
0.0799847
0.0972731
0.107079
0.11291
0.116054
0.117143
0.116541
0.114486
0.111163
0.106744
0.101424
0.0954483
0.0891379
0.0828997
0.0771847
0.0724532
0.0691721
0.0678633
0.0691781
0.073904
0.0828345
0.0965215
0.0411064
0.0833306
0.101057
0.110865
0.116438
0.11915
0.119701
0.118514
0.115886
0.112068
0.107299
0.101845
0.0960177
0.0901847
0.0847531
0.0801336
0.0766979
0.0747801
0.074743
0.0770722
0.0824114
0.0914683
0.104818
0.0425777
0.0863475
0.104471
0.114281
0.119615
0.121935
0.122009
0.120322
0.117233
0.113047
0.108058
0.102582
0.0969668
0.091592
0.0868486
0.0830992
0.0806443
0.0797321
0.0806272
0.0837058
0.0895093
0.0986879
0.111847
0.043925
0.0890517
0.107526
0.11732
0.122436
0.124424
0.12411
0.122033
0.118603
0.114171
0.109074
0.103658
0.0982853
0.0933299
0.0891556
0.0860817
0.08436
0.0841907
0.0857867
0.0894646
0.0957042
0.10512
0.118347
0.0452442
0.0914305
0.110187
0.119988
0.12495
0.126688
0.126084
0.123727
0.120072
0.115507
0.1104
0.10511
0.100002
0.0954335
0.0917395
0.0892062
0.0880575
0.0884739
0.0906522
0.094887
0.101632
0.111489
0.125124
0.0465414
0.0934837
0.11251
0.122347
0.127215
0.128785
0.127992
0.125466
0.1217
0.117112
0.112086
0.106989
0.102176
0.0979867
0.0947304
0.0926711
0.0920215
0.0929646
0.0957071
0.100551
0.107954
0.118523
0.132956
0.0477357
0.0952642
0.114537
0.12444
0.129272
0.13076
0.129879
0.127298
0.123536
0.119033
0.114185
0.109355
0.104889
0.101106
0.0982984
0.096716
0.0965738
0.0980728
0.101448
0.107031
0.1153
0.126869
0.142441
0.048811
0.0967932
0.116296
0.126292
0.131152
0.132645
0.13178
0.129256
0.125616
0.121311
0.116743
0.112271
0.108229
0.104921
0.102626
0.101588
0.102033
0.104189
0.108327
0.114813
0.124144
0.136922
0.153799
0.049765
0.098085
0.117805
0.127925
0.132876
0.13446
0.133717
0.131366
0.127965
0.123976
0.1198
0.115793
0.112278
0.109549
0.107872
0.107494
0.108652
0.1116
0.116638
0.124156
0.134642
0.14865
0.166559
0.0505972
0.0991488
0.119074
0.129351
0.134455
0.136219
0.135701
0.133637
0.130595
0.127044
0.123382
0.11996
0.117093
0.115064
0.114134
0.114548
0.116547
0.120398
0.126413
0.134977
0.146537
0.16136
0.179684
0.0513055
0.0999893
0.120111
0.130576
0.135898
0.137926
0.137735
0.136072
0.13351
0.130519
0.127495
0.124783
0.122689
0.121486
0.121423
0.122735
0.125657
0.130446
0.137405
0.146871
0.159029
0.174132
0.192423
0.051885
0.100608
0.120918
0.131605
0.137204
0.139581
0.139818
0.138666
0.136702
0.134391
0.132125
0.130242
0.129035
0.128762
0.129652
0.131918
0.135767
0.141429
0.14917
0.159108
0.171449
0.18642
0.204289
0.0523288
0.101002
0.121497
0.132439
0.138378
0.141186
0.141947
0.141413
0.140156
0.138638
0.137241
0.13629
0.13606
0.136786
0.138666
0.141874
0.14658
0.152975
0.161164
0.171249
0.183424
0.197929
0.215096
0.0526282
0.101172
0.121851
0.133084
0.139425
0.142744
0.144123
0.144307
0.14386
0.143234
0.142797
0.142855
0.143659
0.14541
0.148265
0.152351
0.157784
0.16469
0.173064
0.183024
0.194762
0.208567
0.224868
0.0527733
0.101117
0.121987
0.133554
0.14036
0.14427
0.146356
0.14735
0.147804
0.148151
0.148742
0.149857
0.151714
0.154475
0.158247
0.163107
0.169124
0.17631
0.184659
0.194283
0.205399
0.218363
0.233731
0.0527542
0.100843
0.121923
0.133872
0.141214
0.145795
0.148673
0.15056
0.151988
0.153369
0.155028
0.157213
0.160106
0.163822
0.168422
0.17393
0.180368
0.187656
0.195812
0.204951
0.215333
0.227395
0.24185
0.0525608
0.100362
0.121685
0.13408
0.142032
0.147368
0.151118
0.153971
0.15643
0.158881
0.161617
0.164851
0.168726
0.173313
0.178627
0.184645
0.191339
0.198591
0.20643
0.21499
0.224595
0.235757
0.249233
0.0521826
0.0996923
0.121318
0.134237
0.142887
0.149063
0.153762
0.15764
0.161169
0.164699
0.168488
0.172716
0.177487
0.182832
0.188728
0.195119
0.201914
0.209008
0.216447
0.224371
0.233142
0.243372
0.256009
0.0516068
0.0988634
0.120878
0.134423
0.143873
0.150981
0.156703
0.161656
0.166271
0.17086
0.175648
0.180777
0.186323
0.192289
0.198617
0.205228
0.211977
0.218789
0.225714
0.232949
0.240912
0.250316
0.262297
0.0508192
0.0979101
0.12044
0.134743
0.145116
0.153258
0.160075
0.166139
0.171835
0.177435
0.183126
0.189022
0.195173
0.201564
0.208127
0.214771
0.22133
0.227761
0.234134
0.240694
0.247922
0.256644
0.268195
0.0499606
0.0968564
0.120096
0.135322
0.146749
0.156027
0.164009
0.171206
0.177949
0.184465
0.190911
0.197384
0.203926
0.210523
0.217113
0.223602
0.229839
0.235809
0.241617
0.24755
0.254162
0.262391
0.273771
0.0491294
0.0957003
0.11988
0.136241
0.148896
0.159438
0.168657
0.176994
0.184717
0.192007
0.199
0.205798
0.212463
0.219005
0.225391
0.231524
0.23731
0.242762
0.248021
0.253423
0.259586
0.267553
0.279052
0.0482337
0.0945166
0.119865
0.137594
0.151669
0.163618
0.174151
0.183621
0.192218
0.200076
0.207333
0.214129
0.220579
0.226752
0.232663
0.238238
0.243455
0.248362
0.253134
0.258149
0.264078
0.272056
0.283966
0.0472258
0.0933497
0.120075
0.139406
0.155108
0.168618
0.180548
0.191129
0.200441
0.208579
0.215718
0.22209
0.227918
0.233359
0.238494
0.243317
0.247871
0.252246
0.256647
0.261473
0.267426
0.275694
0.288274
0.0460723
0.0922155
0.120463
0.141584
0.159095
0.174321
0.187732
0.199377
0.209178
0.217197
0.22372
0.229161
0.233913
0.238256
0.24234
0.246253
0.250094
0.253997
0.25819
0.263061
0.269288
0.278076
0.291472
0.0447334
0.0910738
0.12086
0.143835
0.163255
0.180303
0.195255
0.207878
0.217843
0.225216
0.23053
0.234516
0.237807
0.240809
0.243719
0.246678
0.249814
0.253319
0.257458
0.262564
0.269217
0.278597
0.292748
0.0431464
0.089788
0.120918
0.14558
0.166804
0.185643
0.202129
0.215572
0.225236
0.231326
0.234877
0.237103
0.238894
0.2407
0.242678
0.24487
0.24735
0.250411
0.254469
0.259781
0.266733
0.276498
0.291072
0.0412127
0.0880743
0.120052
0.145851
0.168419
0.18878
0.20669
0.220646
0.229315
0.233531
0.23522
0.236128
0.237197
0.238701
0.240555
0.242501
0.244304
0.246464
0.249891
0.254858
0.261502
0.271093
0.28554
0.0387529
0.0853905
0.117304
0.143169
0.166197
0.187714
0.207044
0.220921
0.227528
0.229768
0.230806
0.2323
0.234558
0.237358
0.240324
0.242795
0.24361
0.243633
0.244884
0.248074
0.253306
0.262237
0.276125
0.0356672
0.0802703
0.110747
0.135628
0.159028
0.182653
0.204252
0.216754
0.219688
0.221061
0.224228
0.229162
0.234645
0.239864
0.244571
0.248149
0.247305
0.243479
0.240528
0.240347
0.243599
0.251815
0.264439
0.0328492
0.0716248
0.0996689
0.124232
0.149936
0.1776
0.201372
0.209417
0.20898
0.212914
0.220593
0.230405
0.239063
0.245378
0.250511
0.255624
0.253757
0.245815
0.238441
0.234297
0.235255
0.242015
0.252025
0.0346651
0.0645428
0.0898263
0.114961
0.143353
0.173319
0.195907
0.197667
0.199019
0.207683
0.218238
0.229219
0.237868
0.241415
0.243763
0.249612
0.251824
0.24675
0.236888
0.229337
0.227519
0.23091
0.238205
0.0458105
0.0725039
0.0918977
0.112372
0.137088
0.16419
0.18411
0.185603
0.189684
0.201335
0.212647
0.220092
0.223288
0.222523
0.223919
0.229484
0.239861
0.249755
0.237913
0.226625
0.222716
0.225067
0.232561
0.0637915
0.0880282
0.0973737
0.108153
0.123895
0.145257
0.168912
0.17495
0.182262
0.19306
0.197176
0.19536
0.198602
0.200332
0.208374
0.217867
0.242875
0.274061
0.243423
0.225921
0.219681
0.216762
0.226411
0.0898173
0.0979547
0.0995963
0.101637
0.105706
0.113758
0.13184
0.149974
0.166973
0.174905
0.156759
0.157321
0.152154
0.164551
0.171875
0.197829
0.258349
0.311452
0.204333
0.200534
0.179751
0.188966
0.200101
0.0181446
0.0185931
0.0273027
0.0427658
0.0327695
0.0441907
0.0542714
0.064582
0.0497459
0.0609923
0.0712666
0.0821848
0.0643373
0.0754804
0.0868051
0.0986828
0.0782408
0.0896097
0.10141
0.113621
0.0912648
0.102512
0.114233
0.126323
0.102543
0.11341
0.124787
0.136525
0.111817
0.12223
0.133184
0.144503
0.119399
0.129408
0.139987
0.150941
0.125941
0.135686
0.146035
0.156786
0.132271
0.141964
0.15231
0.163108
0.13926
0.149149
0.159748
0.17085
0.14768
0.158002
0.169082
0.180616
0.158014
0.168893
0.18043
0.192339
0.170153
0.181398
0.193233
0.205385
0.18324
0.194648
0.20659
0.218791
0.196363
0.207722
0.219571
0.231644
0.208787
0.219915
0.231516
0.243337
0.220106
0.230878
0.242141
0.253654
0.230228
0.240587
0.251489
0.262715
0.239267
0.249211
0.259786
0.270737
0.24743
0.256994
0.267257
0.278028
0.254844
0.264097
0.274179
0.284922
0.261669
0.270749
0.28082
0.291736
0.268086
0.277157
0.287419
0.29875
0.274244
0.283495
0.294183
0.306211
0.280263
0.289904
0.301276
0.314314
0.286228
0.296479
0.308805
0.323177
0.29216
0.303233
0.316764
0.332765
0.297954
0.310019
0.32494
0.34278
0.303279
0.316417
0.332784
0.352506
0.307474
0.321612
0.339279
0.360665
0.309493
0.324344
0.34289
0.365381
0.308024
0.323047
0.34173
0.364378
0.301911
0.316309
0.33405
0.355513
0.290916
0.303625
0.319009
0.337609
0.276242
0.286032
0.297691
0.311998
0.259932
0.266113
0.273472
0.283242
0.244952
0.250569
0.256488
0.26252
0.238358
0.242748
0.24691
0.25082
0.235774
0.243299
0.250227
0.255006
0.239322
0.259347
0.268945
0.276443
0.0626154
0.0909777
0.119101
0.151222
0.185354
0.218457
0.25086
0.282121
0.31055
0.334315
0.355111
0.376193
0.397643
0.417812
0.430039
0.415268
0.366744
0.287814
0.148459
0.0812641
0.110123
0.14105
0.17459
0.207597
0.238791
0.269016
0.296684
0.319956
0.339862
0.361292
0.387983
0.419665
0.455838
0.48621
0.474928
0.413157
0.314161
0.156943
0.0993159
0.129067
0.161141
0.194233
0.225432
0.254484
0.281781
0.305244
0.324557
0.343342
0.367685
0.400818
0.443679
0.498095
0.550663
0.547337
0.469401
0.339958
0.160953
0.116576
0.146584
0.178372
0.209826
0.238827
0.26556
0.289671
0.309726
0.327209
0.347183
0.37526
0.41419
0.466791
0.538174
0.613603
0.615239
0.516953
0.365038
0.166084
0.131858
0.16143
0.192116
0.221365
0.248106
0.27247
0.293786
0.312098
0.329843
0.35215
0.383568
0.427293
0.487652
0.572
0.669213
0.667262
0.537319
0.38505
0.174062
0.144465
0.173061
0.202131
0.229345
0.254098
0.276421
0.295885
0.313848
0.333223
0.358185
0.392242
0.440091
0.507326
0.601737
0.718914
0.709912
0.552047
0.396019
0.177888
0.154323
0.181729
0.209181
0.234807
0.258141
0.278973
0.297671
0.316217
0.3376
0.36501
0.401368
0.452913
0.52706
0.631287
0.759763
0.751299
0.576812
0.402328
0.176885
0.161911
0.188306
0.214503
0.239141
0.261641
0.281681
0.3004
0.319957
0.343133
0.372529
0.411119
0.465918
0.547307
0.663442
0.798538
0.793718
0.610134
0.414469
0.176757
0.168087
0.193859
0.219479
0.243804
0.265803
0.285695
0.304841
0.325428
0.350031
0.380995
0.42151
0.47907
0.56686
0.693222
0.829494
0.837067
0.65751
0.438712
0.181092
0.173962
0.199682
0.225433
0.249702
0.271596
0.291668
0.311324
0.332725
0.358351
0.390512
0.432578
0.492135
0.582503
0.711434
0.845481
0.873905
0.724643
0.477824
0.194211
0.180743
0.206933
0.233161
0.257448
0.279464
0.299783
0.319834
0.341774
0.368074
0.401111
0.444302
0.504636
0.593001
0.714706
0.843075
0.887737
0.782091
0.528367
0.216792
0.189212
0.216311
0.24282
0.267231
0.289364
0.30984
0.330123
0.352399
0.379185
0.412939
0.456931
0.516981
0.60065
0.709593
0.822977
0.876215
0.801214
0.567655
0.238478
0.19978
0.227693
0.254309
0.278735
0.300862
0.321375
0.341784
0.364327
0.391605
0.426176
0.471048
0.53069
0.609437
0.705808
0.803475
0.857745
0.803865
0.589203
0.25319
0.212212
0.240472
0.267017
0.291285
0.313288
0.333781
0.354322
0.377205
0.405131
0.440799
0.48701
0.546929
0.622314
0.709722
0.796013
0.849059
0.808167
0.599262
0.261892
0.22565
0.253841
0.280098
0.30408
0.325924
0.346445
0.367237
0.390644
0.419491
0.456647
0.504804
0.566097
0.640328
0.722531
0.801454
0.852579
0.814955
0.602393
0.266342
0.239098
0.26691
0.292742
0.316425
0.338191
0.358887
0.380129
0.404325
0.434449
0.473586
0.524396
0.588238
0.663316
0.743035
0.816287
0.862559
0.818678
0.600172
0.2673
0.251726
0.278993
0.304398
0.327896
0.349767
0.370861
0.392804
0.418091
0.449883
0.491499
0.545613
0.612994
0.69058
0.770018
0.838358
0.875489
0.816688
0.593453
0.264364
0.263058
0.289752
0.314861
0.338397
0.360636
0.382396
0.40531
0.431984
0.465795
0.510267
0.568061
0.639509
0.720672
0.801832
0.866512
0.891973
0.811443
0.583709
0.259459
0.272979
0.2992
0.32425
0.348131
0.371058
0.393774
0.417915
0.446229
0.482312
0.529807
0.591219
0.666447
0.750926
0.83388
0.895539
0.907592
0.803492
0.574512
0.255408
0.281636
0.307607
0.332928
0.357537
0.381517
0.405483
0.43107
0.461199
0.499681
0.550131
0.614613
0.692389
0.778315
0.860623
0.917385
0.91453
0.794199
0.565053
0.25172
0.289366
0.315407
0.341419
0.367218
0.392663
0.418169
0.445358
0.477379
0.518268
0.571421
0.638076
0.716511
0.800991
0.879013
0.927506
0.908107
0.777099
0.552633
0.247652
0.296578
0.32311
0.350343
0.37789
0.405269
0.432586
0.461447
0.495328
0.538533
0.594041
0.661831
0.738844
0.818932
0.889752
0.928017
0.890758
0.749241
0.53538
0.241512
0.303695
0.331258
0.36037
0.390347
0.420192
0.449558
0.480041
0.515616
0.560956
0.61843
0.686303
0.759836
0.832842
0.894582
0.923283
0.86813
0.714897
0.512748
0.233434
0.311116
0.340386
0.372198
0.405431
0.438342
0.469923
0.501805
0.538741
0.585923
0.644897
0.711777
0.779795
0.842899
0.893141
0.912506
0.841727
0.677943
0.488695
0.224475
0.319207
0.351014
0.386524
0.424004
0.460625
0.494452
0.527272
0.56503
0.613581
0.673359
0.737939
0.798207
0.848088
0.883212
0.890272
0.807165
0.642428
0.464326
0.214928
0.328294
0.363617
0.40401
0.446875
0.487849
0.52373
0.556715
0.594525
0.643692
0.703094
0.76351
0.813401
0.846404
0.862176
0.852327
0.764467
0.607237
0.439289
0.204951
0.338636
0.378577
0.425188
0.474685
0.520568
0.55798
0.590008
0.62687
0.675453
0.732445
0.786138
0.823263
0.837812
0.831072
0.800117
0.718556
0.572704
0.414201
0.194643
0.35037
0.396081
0.450312
0.507695
0.558844
0.596845
0.626485
0.661194
0.707266
0.758364
0.801822
0.824772
0.823139
0.796851
0.747619
0.676396
0.539906
0.389332
0.183949
0.363402
0.415945
0.479107
0.545487
0.60194
0.639185
0.664887
0.696057
0.736731
0.776293
0.803915
0.811969
0.797804
0.761423
0.705982
0.642857
0.508311
0.363864
0.17258
0.377252
0.437378
0.510444
0.586577
0.648004
0.683031
0.703509
0.729367
0.760988
0.78194
0.78685
0.778055
0.75162
0.710558
0.661237
0.588677
0.469019
0.335873
0.160144
0.390857
0.458713
0.542002
0.628019
0.693851
0.725962
0.740739
0.758113
0.77676
0.775204
0.75451
0.727357
0.688481
0.643726
0.591995
0.517196
0.422102
0.305401
0.146581
0.402416
0.477227
0.570086
0.665226
0.735061
0.766045
0.776153
0.780348
0.781182
0.760363
0.718515
0.67438
0.625142
0.574901
0.521302
0.456466
0.377089
0.275153
0.132295
0.409378
0.489216
0.589939
0.692381
0.766599
0.80232
0.811094
0.800707
0.779046
0.742383
0.687785
0.627728
0.571702
0.519376
0.466648
0.408238
0.338698
0.247915
0.118012
0.408726
0.490436
0.596076
0.702292
0.784609
0.834913
0.847223
0.825328
0.784715
0.729676
0.66205
0.592885
0.532658
0.478691
0.427005
0.372492
0.308662
0.225378
0.104682
0.397618
0.477044
0.58129
0.689852
0.786929
0.86372
0.886037
0.857201
0.807008
0.732571
0.650987
0.574929
0.509942
0.453723
0.401723
0.348488
0.28727
0.208341
0.093397
0.374413
0.445911
0.543062
0.65352
0.772493
0.884301
0.925447
0.895702
0.843791
0.756208
0.661077
0.575486
0.504143
0.443801
0.389213
0.334808
0.273861
0.196904
0.0851805
0.341197
0.400085
0.486826
0.601916
0.746029
0.886971
0.950235
0.933145
0.884341
0.793086
0.68683
0.590449
0.510908
0.444475
0.385536
0.328406
0.26645
0.190303
0.0805373
0.304654
0.351232
0.427295
0.552981
0.722009
0.856019
0.90689
0.922788
0.899945
0.820005
0.708239
0.603024
0.516704
0.445295
0.382943
0.323784
0.261383
0.186612
0.0789025
0.275306
0.304253
0.359831
0.468711
0.627514
0.730326
0.769152
0.81252
0.834173
0.777046
0.678034
0.582622
0.501368
0.432254
0.371876
0.314226
0.254142
0.182721
0.0784588
0.257328
0.271306
0.300495
0.358826
0.452271
0.554617
0.63896
0.683923
0.689956
0.6498
0.584895
0.516916
0.45476
0.397509
0.3468
0.295229
0.241683
0.175494
0.0768435
0.257183
0.262311
0.276586
0.301779
0.353081
0.456771
0.584982
0.618499
0.556352
0.51415
0.470841
0.42762
0.389224
0.345064
0.311849
0.266892
0.227304
0.166731
0.0734599
0.24849
0.263129
0.260939
0.253981
0.256368
0.365982
0.510895
0.532772
0.403055
0.363373
0.331159
0.314729
0.280703
0.261006
0.227226
0.205024
0.171344
0.134172
0.0831382
)
;

boundaryField
{
    leftWall
    {
        type            kqRWallFunction;
        value           nonuniform List<scalar> 
50
(
0.00652448
0.00828549
0.0107964
0.0130924
0.0151683
0.017087
0.0189022
0.0206595
0.0225825
0.0253794
0.0280324
0.0306268
0.0331728
0.0354957
0.0375878
0.0394536
0.0411064
0.0425777
0.043925
0.0452442
0.0465414
0.0477357
0.048811
0.049765
0.0505972
0.0513055
0.051885
0.0523288
0.0526282
0.0527733
0.0527542
0.0525608
0.0521826
0.0516068
0.0508192
0.0499606
0.0491294
0.0482337
0.0472258
0.0460723
0.0447334
0.0431464
0.0412127
0.0387529
0.0356672
0.0328492
0.0346651
0.0458105
0.0637915
0.0898173
)
;
    }
    rightWall
    {
        type            kqRWallFunction;
        value           nonuniform List<scalar> 
50
(
0.0285937
0.0634889
0.0841037
0.0990073
0.110576
0.119974
0.127905
0.135386
0.148459
0.156943
0.160953
0.166084
0.174062
0.177888
0.176885
0.176757
0.181092
0.194211
0.216792
0.238478
0.25319
0.261892
0.266342
0.2673
0.264364
0.259459
0.255408
0.25172
0.247652
0.241512
0.233434
0.224475
0.214928
0.204951
0.194643
0.183949
0.17258
0.160144
0.146581
0.132295
0.118012
0.104682
0.093397
0.0851805
0.0805373
0.0789025
0.0784588
0.0768435
0.0734599
0.0831382
)
;
    }
    lowerWall
    {
        type            kqRWallFunction;
        value           nonuniform List<scalar> 
62
(
0.00652448
0.010753
0.01179
0.0139865
0.0159334
0.0176407
0.0191735
0.0205578
0.0218029
0.0229107
0.0238735
0.02467
0.02526
0.0255821
0.025555
0.0250827
0.024061
0.0224062
0.0202752
0.0175085
0.014103
0.0107167
0.00951576
0.00951576
0.0122221
0.0153367
0.0175272
0.0190261
0.0200304
0.0206617
0.0209784
0.0181446
0.0185931
0.0273027
0.0427658
0.00969468
0.0115339
0.0154124
0.0201203
0.0249571
0.0302042
0.0355153
0.0429853
0.00969468
0.0106993
0.011272
0.0160641
0.0261492
0.0388738
0.0536575
0.0679537
0.0833525
0.0979309
0.111136
0.122158
0.129363
0.129926
0.119778
0.102837
0.0806707
0.0542786
0.0285937
)
;
    }
    atmosphere
    {
        type            inletOutlet;
        inletValue      uniform 0.1;
        value           nonuniform List<scalar> 
46
(
0.1
0.1
0.1
0.1
0.1
0.1
0.1
0.1
0.1
0.174905
0.1
0.157321
0.1
0.164551
0.1
0.197829
0.258349
0.311452
0.1
0.200534
0.1
0.188966
0.1
0.239322
0.259347
0.268945
0.1
0.1
0.263129
0.260939
0.1
0.1
0.365982
0.510895
0.532772
0.1
0.363373
0.1
0.314729
0.1
0.261006
0.1
0.205024
0.1
0.134172
0.1
)
;
    }
    defaultFaces
    {
        type            empty;
    }
}


// ************************************************************************* //
