/*--------------------------------*- C++ -*----------------------------------*\
  =========                 |
  \\      /  F ield         | OpenFOAM: The Open Source CFD Toolbox
   \\    /   O peration     | Website:  https://openfoam.org
    \\  /    A nd           | Version:  9
     \\/     M anipulation  |
\*---------------------------------------------------------------------------*/
FoamFile
{
    format      ascii;
    class       volScalarField;
    location    "0.95";
    object      k;
}
// * * * * * * * * * * * * * * * * * * * * * * * * * * * * * * * * * * * * * //

dimensions      [0 2 -2 0 0 0 0];

internalField   nonuniform List<scalar> 
2268
(
0.0026808
0.00493182
0.00735799
0.00938308
0.0110643
0.0125152
0.0138327
0.0150822
0.0163126
0.0175683
0.0188957
0.020355
0.0220829
0.0239224
0.025843
0.0278718
0.0299363
0.0316815
0.0323963
0.0309675
0.0256301
0.0156908
0.00554213
0.00528059
0.0116403
0.0167336
0.0207618
0.0239616
0.0266366
0.0290403
0.0313531
0.0337109
0.0362354
0.0390458
0.0422556
0.0458912
0.0499238
0.0543614
0.0591343
0.0639299
0.0679394
0.0696635
0.0669088
0.056987
0.0371283
0.0116691
0.00722661
0.0162951
0.0228087
0.0278479
0.0318093
0.0351066
0.0380761
0.0409641
0.0439597
0.0472314
0.0509424
0.0552455
0.0602353
0.0659073
0.0722066
0.0789291
0.0855106
0.0907867
0.0928725
0.0892583
0.0770835
0.0531454
0.015895
0.00890987
0.0201505
0.0276606
0.033374
0.0378419
0.0415681
0.044958
0.0483172
0.0518875
0.0558873
0.0605314
0.0660254
0.0725186
0.0799865
0.0882818
0.097016
0.105322
0.111691
0.114022
0.109807
0.0962044
0.069433
0.0213265
0.010435
0.0235603
0.0318542
0.0380811
0.042948
0.0470422
0.0508353
0.054694
0.0589188
0.0637871
0.0695755
0.0765506
0.0849033
0.0945464
0.105178
0.116139
0.126164
0.13339
0.135664
0.130793
0.116204
0.0872606
0.0293365
0.0118604
0.0266644
0.0356129
0.0422659
0.0474874
0.0519451
0.056179
0.0606243
0.0656516
0.0716135
0.0788627
0.087731
0.0984343
0.110745
0.124107
0.137475
0.149075
0.15668
0.158321
0.152477
0.137178
0.107226
0.0409163
0.0132163
0.0295275
0.0390456
0.0460789
0.0516474
0.056498
0.0612454
0.0664062
0.0724424
0.0798056
0.0889406
0.100238
0.113908
0.129443
0.145904
0.161742
0.174556
0.181785
0.181939
0.174578
0.158694
0.129441
0.0591802
0.0145209
0.0321863
0.042214
0.0496082
0.0555414
0.06084
0.0662036
0.0722516
0.0795701
0.0887443
0.100321
0.114717
0.132082
0.151404
0.171226
0.189414
0.202864
0.208708
0.2063
0.196706
0.180102
0.153176
0.0917373
0.0252144
0.0402983
0.0595786
0.077378
0.0947854
0.111564
0.123788
0.12543
0.11202
0.0875414
0.0652842
0.0528962
0.0472955
0.045805
0.0435574
0.0391049
0.0321872
0.0216281
0.0110444
0.0604859
0.103702
0.127096
0.150019
0.180456
0.210814
0.232226
0.239307
0.223349
0.187313
0.146691
0.119307
0.105484
0.098299
0.0913071
0.0810087
0.0661961
0.0460671
0.015895
0.0836074
0.13738
0.163418
0.192026
0.224928
0.255303
0.278667
0.288859
0.277305
0.241435
0.194755
0.159891
0.140246
0.128862
0.118678
0.104705
0.0845783
0.0573876
0.0209249
0.0979218
0.159739
0.188575
0.220328
0.252618
0.281875
0.305847
0.320242
0.317674
0.286328
0.23546
0.193778
0.168878
0.154181
0.141997
0.126036
0.102301
0.0693152
0.0284474
0.107506
0.174864
0.206481
0.240438
0.271705
0.299739
0.324073
0.343227
0.352682
0.329334
0.275079
0.225893
0.195435
0.17789
0.164884
0.148764
0.123317
0.0855389
0.0374473
0.11409
0.184679
0.219177
0.255237
0.285486
0.312433
0.336989
0.359249
0.377585
0.368526
0.315344
0.257946
0.221276
0.201108
0.188439
0.174038
0.148756
0.10754
0.0481539
0.118935
0.191176
0.228218
0.266134
0.295736
0.321911
0.3464
0.369269
0.390509
0.397105
0.354623
0.290477
0.246967
0.22417
0.212581
0.200561
0.175326
0.132709
0.0608017
0.123756
0.196807
0.235389
0.273611
0.303332
0.329329
0.35354
0.37591
0.398274
0.414503
0.385253
0.321883
0.27214
0.246061
0.233311
0.219514
0.191987
0.149902
0.0768986
0.0166502
0.0360853
0.0468258
0.0547799
0.061339
0.0674565
0.0739904
0.0817726
0.0916584
0.104511
0.121013
0.141346
0.165155
0.190464
0.214956
0.235694
0.248604
0.250324
0.242129
0.227885
0.209261
0.184548
0.149653
0.0182851
0.0393702
0.05113
0.0600517
0.0677935
0.0755305
0.0844633
0.0959611
0.11163
0.133074
0.161022
0.194094
0.229166
0.262889
0.292356
0.314225
0.322793
0.313937
0.29384
0.27113
0.247187
0.215361
0.175142
0.0191971
0.0414379
0.0543533
0.0645696
0.0739865
0.0840674
0.0965782
0.11389
0.13905
0.174849
0.221014
0.271338
0.316509
0.35464
0.384866
0.401453
0.397365
0.377087
0.346406
0.315912
0.287302
0.250729
0.210744
0.0194528
0.0424821
0.0568336
0.0688367
0.0806566
0.0940852
0.11184
0.138146
0.178629
0.237481
0.30971
0.376044
0.4172
0.440515
0.455972
0.458434
0.443463
0.423954
0.39867
0.362746
0.330785
0.297529
0.264225
0.0198395
0.0430674
0.0592081
0.0736735
0.0891974
0.107593
0.132848
0.172449
0.235987
0.327583
0.422831
0.461356
0.459299
0.46178
0.466685
0.466144
0.456576
0.446324
0.441347
0.421374
0.385085
0.353428
0.324163
0.0215842
0.044618
0.0617208
0.0780312
0.0967844
0.120531
0.154848
0.20754
0.28259
0.367617
0.432226
0.454675
0.455758
0.458825
0.464772
0.466302
0.462409
0.458888
0.462899
0.469278
0.450688
0.416448
0.386347
0.0221473
0.0457473
0.063018
0.0792161
0.0986203
0.124575
0.162482
0.216982
0.285949
0.353817
0.400675
0.427007
0.447453
0.464947
0.474949
0.478039
0.476648
0.475209
0.478513
0.489275
0.497215
0.482415
0.45364
0.0223272
0.0463448
0.0625213
0.078197
0.0979079
0.125038
0.163736
0.21618
0.277823
0.335199
0.376612
0.409141
0.444727
0.476157
0.4966
0.50419
0.503254
0.500619
0.499753
0.503387
0.512447
0.520005
0.514746
0.0216854
0.0451861
0.060999
0.0765409
0.0960205
0.12257
0.159374
0.207456
0.26229
0.313242
0.352628
0.3882
0.430702
0.473547
0.51139
0.538379
0.542358
0.536646
0.530166
0.525598
0.525064
0.529505
0.537815
0.0206743
0.0428064
0.0582279
0.0734401
0.0920377
0.116753
0.150093
0.192781
0.241319
0.287629
0.325321
0.35931
0.400106
0.448643
0.502787
0.556686
0.586926
0.58365
0.570276
0.556917
0.546446
0.540628
0.539967
0.0197897
0.0404154
0.0550829
0.0695043
0.086659
0.108813
0.13797
0.17487
0.217238
0.259227
0.295111
0.326255
0.360883
0.405615
0.463518
0.532678
0.596989
0.630139
0.620089
0.597279
0.575825
0.559941
0.548661
0.0192622
0.0386745
0.0524417
0.0657404
0.0811172
0.100428
0.125285
0.156553
0.192876
0.230197
0.263675
0.292309
0.320845
0.356166
0.404391
0.469471
0.546432
0.614491
0.649912
0.640849
0.612621
0.586438
0.563873
0.0190971
0.0377192
0.050669
0.0628219
0.0764277
0.09303
0.113909
0.139804
0.170092
0.202218
0.232519
0.258962
0.283322
0.310416
0.34613
0.395479
0.459211
0.532074
0.596696
0.63102
0.632961
0.611383
0.584157
0.0190749
0.0373259
0.0496612
0.060827
0.0728631
0.087073
0.10447
0.125672
0.150464
0.177357
0.203847
0.227846
0.24935
0.27083
0.296403
0.33045
0.375623
0.431121
0.49221
0.545029
0.579263
0.587164
0.575738
0.0190803
0.0372139
0.0491477
0.0595604
0.0703359
0.0825932
0.0971464
0.114501
0.13464
0.156748
0.179243
0.200444
0.219614
0.237577
0.256578
0.27956
0.309043
0.345953
0.388986
0.435042
0.474938
0.503914
0.523241
0.0190512
0.0371856
0.0488744
0.0587509
0.0685796
0.0793351
0.0916851
0.106043
0.122476
0.140555
0.159334
0.177627
0.194583
0.21018
0.225349
0.24169
0.260904
0.284133
0.311518
0.342383
0.374906
0.404698
0.429729
0.018955
0.0371165
0.0486502
0.0581507
0.0672907
0.0769319
0.0876342
0.0997405
0.113349
0.128244
0.143872
0.159458
0.174291
0.188042
0.20093
0.213661
0.227166
0.242275
0.259474
0.278947
0.301067
0.324506
0.347508
0.0187776
0.0369382
0.0483531
0.0575778
0.0662142
0.075037
0.0845259
0.0949721
0.106484
0.118961
0.132081
0.145356
0.158264
0.170437
0.181789
0.192537
0.203106
0.213974
0.225553
0.23821
0.252492
0.268884
0.286769
0.0185182
0.0366231
0.0479201
0.0569218
0.065174
0.0733856
0.0819767
0.0912004
0.101167
0.111841
0.123035
0.134445
0.145709
0.156515
0.166683
0.176205
0.185223
0.19396
0.202673
0.211656
0.221346
0.232504
0.245387
0.0181858
0.0361722
0.0473325
0.0561325
0.0640715
0.071808
0.0797182
0.0880275
0.0968456
0.106173
0.115905
0.12585
0.135765
0.145407
0.154593
0.163228
0.17131
0.178912
0.186153
0.193218
0.200418
0.208339
0.217592
0.017795
0.0356043
0.0466012
0.0552029
0.0628677
0.0702154
0.0775891
0.0851939
0.0931376
0.101444
0.110057
0.118859
0.127683
0.136351
0.144702
0.152619
0.160037
0.166941
0.173365
0.179401
0.185253
0.191348
0.198319
0.0173634
0.0349465
0.0457534
0.0541525
0.0615644
0.0685774
0.0755098
0.0825515
0.0898084
0.0973183
0.105059
0.112956
0.120899
0.128756
0.136395
0.143701
0.150587
0.156996
0.16291
0.168365
0.173492
0.178607
0.184262
0.0169091
0.0342295
0.0448248
0.0530156
0.0601871
0.0669013
0.0734568
0.0800319
0.0867306
0.0936004
0.10064
0.107808
0.115029
0.122207
0.129237
0.136015
0.142451
0.148473
0.154039
0.159152
0.163901
0.168525
0.173483
0.0164491
0.0334841
0.0438539
0.0518337
0.0587746
0.0652161
0.0714409
0.0776178
0.0838491
0.0901887
0.0966507
0.103215
0.109834
0.116436
0.122941
0.12926
0.135309
0.141016
0.146329
0.151238
0.155808
0.160228
0.164871
0.0159988
0.0327406
0.0428802
0.050651
0.0573717
0.0635622
0.0694919
0.0753219
0.0811523
0.0870418
0.0930155
0.0990693
0.105175
0.111283
0.117332
0.12325
0.128963
0.134407
0.139531
0.144322
0.148831
0.153212
0.157771
0.0155719
0.0320285
0.0419424
0.0495115
0.0560243
0.0619837
0.067648
0.0731713
0.0786524
0.0841529
0.0897059
0.0953197
0.100981
0.106659
0.112308
0.117872
0.123292
0.128512
0.133491
0.138217
0.142732
0.147173
0.15178
0.0151806
0.0313752
0.0410766
0.0484564
0.0547761
0.0605237
0.0659482
0.0711984
0.0763713
0.081531
0.0867164
0.0919454
0.0972174
0.102516
0.107809
0.113059
0.118218
0.123245
0.128107
0.132798
0.137356
0.141908
0.146637
0.0148353
0.0308056
0.0403149
0.0475221
0.0536655
0.0592205
0.0644283
0.0694337
0.0743325
0.0791903
0.0840508
0.0889393
0.0938654
0.0988242
0.103799
0.108764
0.113688
0.118541
0.123301
0.127966
0.132593
0.137273
0.142158
0.0145452
0.0303411
0.0396843
0.0467393
0.0527248
0.058106
0.0631183
0.0679034
0.0725563
0.0771442
0.0817141
0.0862977
0.0909126
0.0955644
0.100248
0.104952
0.109656
0.114345
0.119005
0.123657
0.128346
0.133152
0.138197
0.0143177
0.0299997
0.0392073
0.0461328
0.0519798
0.0572055
0.0620414
0.0666273
0.0710578
0.0754014
0.0797085
0.0840154
0.0883465
0.0927162
0.0971299
0.101586
0.10608
0.110605
0.115166
0.119794
0.124528
0.129438
0.134628
0.0141591
0.0297959
0.0389023
0.0457227
0.0514507
0.0565385
0.0612148
0.0656189
0.069846
0.073966
0.0780319
0.0820841
0.0861525
0.0902583
0.0944159
0.0986338
0.102917
0.107272
0.111727
0.116306
0.121053
0.126034
0.131335
0.0140747
0.0297432
0.0387858
0.045526
0.0511538
0.0561189
0.0606496
0.0648859
0.0689241
0.0728361
0.0766776
0.0804919
0.0843134
0.0881688
0.092079
0.096061
0.100129
0.10431
0.108631
0.113127
0.117845
0.122847
0.12821
0.0140713
0.0298561
0.0388738
0.0455576
0.0511014
0.0559558
0.0603511
0.0644292
0.0682889
0.0720045
0.0756341
0.0792238
0.082811
0.0864261
0.0900952
0.0938414
0.0976901
0.101677
0.105834
0.110202
0.114836
0.119798
0.125157
0.0141576
0.030151
0.0391824
0.0458299
0.0513011
0.0560519
0.0603169
0.064242
0.0679297
0.0714571
0.074885
0.0782616
0.0816263
0.0850117
0.0884462
0.0919569
0.0955799
0.099349
0.103304
0.107494
0.111978
0.116823
0.122097
0.0143453
0.0306456
0.0397246
0.046349
0.051752
0.0563998
0.0605342
0.0643073
0.0678261
0.0711717
0.0744075
0.077584
0.0807412
0.0839117
0.087124
0.0904069
0.093795
0.0973237
0.101037
0.10499
0.109248
0.113886
0.118976
0.0146464
0.0313518
0.0405032
0.0471083
0.0524388
0.0569773
0.0609761
0.0645947
0.0679462
0.0711163
0.0741721
0.0771664
0.0801395
0.083121
0.0861343
0.0892042
0.0923564
0.0956246
0.099055
0.102708
0.106657
0.110984
0.115768
0.0150676
0.0322656
0.0415009
0.0480791
0.0533248
0.0577423
0.0615972
0.0650578
0.0682441
0.0712478
0.0741415
0.0769822
0.0798105
0.0826497
0.085509
0.0883942
0.0913181
0.0943093
0.097415
0.100701
0.104249
0.108149
0.112492
0.0156018
0.033354
0.0426694
0.0492037
0.0543467
0.0586296
0.0623325
0.0656334
0.06866
0.071512
0.0742713
0.0770044
0.0797559
0.0825373
0.0853204
0.0880698
0.090779
0.0934742
0.0962091
0.0990579
0.10211
0.105465
0.10922
0.0162191
0.0345445
0.0439219
0.0503901
0.0554128
0.0595507
0.0630988
0.0662442
0.0691231
0.071846
0.0745117
0.0772093
0.0800028
0.0828865
0.0857226
0.0883987
0.0908957
0.0932583
0.0955627
0.0978991
0.100365
0.103062
0.106089
0.0168627
0.0357203
0.0451313
0.0515134
0.0564065
0.0603997
0.0638009
0.0668051
0.0695569
0.0721817
0.0748074
0.0775767
0.0806266
0.0839542
0.0870325
0.0896646
0.0918917
0.0938359
0.0956241
0.0973685
0.099169
0.10112
0.10331
0.0174495
0.0367217
0.0461338
0.0524227
0.0571949
0.0610624
0.0643418
0.0672333
0.0698889
0.0724516
0.0750944
0.0780738
0.0817719
0.0864431
0.0898909
0.0923002
0.0940375
0.0953901
0.0965443
0.0976196
0.098701
0.0998583
0.101155
0.0178677
0.037352
0.0467368
0.0529522
0.0576425
0.0614306
0.0646364
0.0674621
0.070064
0.0725996
0.0752905
0.0785658
0.0834337
0.0923954
0.0954287
0.0967942
0.0975487
0.0980542
0.0984529
0.0988093
0.0991599
0.0995317
0.0999483
0.0889813
0.0674978
0.0826615
0.113665
0.14343
0.131054
0.129298
0.140864
0.1809
0.168281
0.165254
0.173195
0.236771
0.2228
0.214616
0.213731
0.300004
0.286082
0.274638
0.267101
0.36344
0.350318
0.339041
0.330107
0.430976
0.41889
0.408775
0.400474
0.500763
0.491931
0.483567
0.475542
0.542426
0.543036
0.541025
0.53517
0.542983
0.544638
0.546088
0.547122
0.543397
0.540951
0.539523
0.538991
0.551872
0.544677
0.537802
0.532105
0.569527
0.557837
0.542606
0.529347
0.568406
0.563863
0.549469
0.529195
0.527497
0.521623
0.508313
0.494691
0.441074
0.444817
0.445134
0.444347
0.361773
0.370247
0.377299
0.383496
0.300132
0.309553
0.318753
0.327717
0.256169
0.264423
0.273103
0.282095
0.225825
0.232394
0.239606
0.247379
0.20465
0.20978
0.215534
0.221872
0.189352
0.193462
0.198097
0.203233
0.177833
0.181293
0.185166
0.189436
0.168823
0.171901
0.175298
0.179
0.161547
0.164426
0.167552
0.170913
0.15552
0.158318
0.161314
0.164495
0.150426
0.153216
0.156172
0.15928
0.14604
0.148866
0.151836
0.154937
0.142192
0.145073
0.148085
0.151215
0.138735
0.141674
0.144736
0.147911
0.135535
0.138524
0.141631
0.144847
0.132473
0.13549
0.138624
0.141866
0.129437
0.132453
0.135587
0.138829
0.126335
0.12931
0.132405
0.135611
0.123094
0.125978
0.128984
0.132106
0.119672
0.122401
0.125255
0.128228
0.116069
0.118566
0.121188
0.123933
0.112342
0.114519
0.116818
0.119236
0.108628
0.110397
0.112275
0.114262
0.105159
0.106446
0.107818
0.109278
0.102256
0.103021
0.103839
0.104711
0.100305
0.100552
0.100817
0.101099
0.139659
0.206991
0.245366
0.282172
0.313116
0.338569
0.36174
0.382958
0.404767
0.428856
0.428111
0.35885
0.303477
0.271236
0.253011
0.234612
0.20363
0.161971
0.0894718
0.164822
0.218708
0.254659
0.290652
0.322928
0.349297
0.373474
0.393623
0.411779
0.434477
0.450591
0.389841
0.335446
0.303578
0.282378
0.260065
0.217538
0.164004
0.0839085
0.191266
0.23301
0.266487
0.300382
0.332169
0.361142
0.387228
0.407018
0.421815
0.438416
0.453629
0.416779
0.366973
0.337576
0.320817
0.303645
0.23946
0.162297
0.0728695
0.220926
0.250815
0.281874
0.311975
0.344387
0.376742
0.403437
0.422424
0.434561
0.446633
0.4607
0.444243
0.404209
0.381655
0.379256
0.388634
0.319387
0.206166
0.123134
0.263383
0.278038
0.302056
0.3315
0.365205
0.397337
0.422256
0.439334
0.448051
0.457207
0.473942
0.468725
0.443031
0.436043
0.463234
0.540194
0.507246
0.343487
0.227301
0.32146
0.324127
0.339074
0.364555
0.39515
0.422738
0.443609
0.45656
0.461085
0.466419
0.483198
0.484657
0.474546
0.490427
0.554149
0.698667
0.643361
0.564944
0.319329
0.390828
0.385713
0.392316
0.410678
0.432898
0.452158
0.467273
0.473191
0.471716
0.473015
0.485121
0.492886
0.501879
0.54372
0.635812
0.790321
0.717784
0.810646
0.393526
0.464542
0.453581
0.453061
0.464664
0.475188
0.482765
0.487832
0.486709
0.478794
0.47872
0.488118
0.502464
0.532157
0.605997
0.724132
0.822967
0.800993
0.996571
0.452956
0.523914
0.514202
0.511167
0.512692
0.510405
0.510519
0.504865
0.492309
0.483612
0.485526
0.497096
0.517433
0.567192
0.686019
0.816359
0.850106
0.92957
1.19334
0.505434
0.546273
0.544439
0.543376
0.536333
0.529112
0.522953
0.506683
0.493048
0.487107
0.492187
0.507699
0.53582
0.597943
0.728022
0.848368
0.899221
1.06654
1.20639
0.532014
0.539042
0.540737
0.538962
0.526752
0.516818
0.508868
0.497538
0.489557
0.490747
0.496972
0.517654
0.558946
0.621892
0.726366
0.8352
0.936791
1.11696
1.11357
0.507631
0.525915
0.521641
0.515867
0.506637
0.498136
0.490979
0.484858
0.485176
0.490317
0.50103
0.529891
0.580348
0.643479
0.724595
0.824213
0.946287
1.07572
0.983392
0.439493
0.515584
0.507531
0.497646
0.487835
0.480733
0.475784
0.473531
0.477479
0.485198
0.505738
0.537918
0.584687
0.645075
0.717035
0.810891
0.914488
0.969902
0.830839
0.361686
0.507983
0.496387
0.483476
0.472364
0.464268
0.459047
0.460708
0.466767
0.481288
0.504458
0.534832
0.575839
0.629389
0.696118
0.774093
0.838818
0.828428
0.680992
0.293089
0.479316
0.467582
0.455708
0.447925
0.444655
0.445236
0.450184
0.459813
0.475911
0.497546
0.524586
0.559461
0.604192
0.657951
0.711509
0.73745
0.693524
0.554728
0.240307
0.444087
0.442381
0.43729
0.434433
0.435197
0.43817
0.444609
0.455393
0.47046
0.488729
0.510261
0.536858
0.569758
0.605939
0.6338
0.630049
0.577656
0.456796
0.202536
0.393031
0.40194
0.407499
0.413774
0.42184
0.430206
0.439457
0.450495
0.463302
0.476983
0.491585
0.5086
0.528528
0.547319
0.554755
0.538853
0.486898
0.385065
0.176683
0.342185
0.358347
0.372445
0.38684
0.401934
0.415964
0.428565
0.440127
0.450801
0.460078
0.468127
0.476385
0.485013
0.491049
0.487934
0.467254
0.420162
0.334904
0.159536
0.297393
0.316424
0.335136
0.354457
0.374273
0.393027
0.409072
0.421963
0.431469
0.43762
0.440975
0.443102
0.44448
0.443287
0.435211
0.414259
0.373392
0.301253
0.148163
0.261122
0.279599
0.299216
0.320181
0.341977
0.363049
0.38171
0.396298
0.406007
0.410818
0.411932
0.411049
0.409011
0.404871
0.395645
0.376689
0.34175
0.279227
0.140808
0.23333
0.249544
0.267666
0.287738
0.30917
0.330523
0.349946
0.365689
0.376439
0.381741
0.382926
0.381759
0.379325
0.375154
0.366951
0.350746
0.320647
0.264596
0.136466
0.212594
0.226189
0.241839
0.259655
0.279196
0.299278
0.318198
0.334191
0.345872
0.35273
0.355637
0.356134
0.355265
0.352701
0.346446
0.332922
0.306492
0.25448
0.133536
0.197197
0.208523
0.221692
0.236917
0.253958
0.271956
0.28953
0.305132
0.317494
0.326089
0.331414
0.33454
0.336177
0.335877
0.331731
0.320377
0.296391
0.246907
0.130929
0.185668
0.195303
0.206444
0.219362
0.233986
0.249754
0.265656
0.280486
0.293219
0.303362
0.311087
0.316943
0.321179
0.323086
0.320722
0.310874
0.288368
0.240663
0.128257
0.176899
0.185406
0.195091
0.206239
0.218886
0.232701
0.247
0.260927
0.273763
0.28507
0.294769
0.302909
0.309302
0.312953
0.311851
0.302895
0.281129
0.234726
0.125441
0.170101
0.177935
0.186685
0.196617
0.207825
0.220136
0.233144
0.246318
0.259082
0.271045
0.282026
0.291736
0.299596
0.304365
0.303978
0.295424
0.273866
0.228452
0.122352
0.164713
0.172209
0.180428
0.189607
0.199862
0.211137
0.223213
0.235713
0.24824
0.260453
0.272054
0.282605
0.291202
0.29645
0.296283
0.287788
0.266153
0.221695
0.11872
0.160327
0.167709
0.175683
0.184449
0.194125
0.204722
0.216098
0.228014
0.240189
0.252318
0.264029
0.274751
0.283433
0.288605
0.288263
0.279621
0.257949
0.214584
0.114382
0.156638
0.164041
0.171949
0.180523
0.189871
0.200012
0.21086
0.222257
0.233986
0.245762
0.257167
0.267547
0.275815
0.280501
0.2797
0.270797
0.249353
0.207274
0.109796
0.153397
0.16089
0.168831
0.177342
0.186504
0.19633
0.206758
0.217668
0.228874
0.240091
0.250876
0.260545
0.268055
0.27199
0.270557
0.261293
0.240226
0.199888
0.105251
0.150397
0.158002
0.166017
0.174527
0.183579
0.193169
0.203238
0.213673
0.224292
0.234806
0.244757
0.253467
0.259988
0.263006
0.260863
0.251188
0.230622
0.192476
0.100693
0.14746
0.155163
0.163254
0.171783
0.180757
0.190151
0.19989
0.209854
0.219851
0.229575
0.238566
0.246176
0.251557
0.253558
0.250702
0.240708
0.220886
0.1849
0.0959561
0.144426
0.152186
0.160329
0.168866
0.177773
0.186987
0.196416
0.205919
0.215282
0.224186
0.232167
0.238616
0.242786
0.243729
0.240198
0.230094
0.211147
0.176876
0.0910781
0.141152
0.148907
0.157053
0.16557
0.174402
0.183445
0.192582
0.201645
0.210396
0.218493
0.225473
0.230762
0.233716
0.233592
0.229405
0.219391
0.201322
0.168347
0.0858093
0.137512
0.145169
0.153245
0.161694
0.17043
0.179308
0.188177
0.196841
0.20503
0.212371
0.21839
0.222549
0.224302
0.223097
0.21821
0.208325
0.191054
0.159209
0.0801372
0.133396
0.140826
0.148723
0.157026
0.165624
0.174338
0.182976
0.191309
0.199019
0.205679
0.210785
0.213828
0.214362
0.212023
0.206325
0.196352
0.179702
0.149325
0.074709
0.128725
0.135747
0.143302
0.151326
0.159701
0.168242
0.176699
0.184805
0.192173
0.198261
0.202491
0.20438
0.203608
0.200033
0.193403
0.183077
0.167017
0.138784
0.0695165
0.123485
0.129851
0.13682
0.144351
0.152346
0.160643
0.168963
0.177008
0.184279
0.189976
0.19336
0.193976
0.191712
0.186769
0.179159
0.168484
0.153201
0.1276
0.0642265
0.117775
0.123172
0.129212
0.135906
0.143215
0.151049
0.15923
0.167464
0.175132
0.180781
0.183358
0.182455
0.178334
0.17186
0.163382
0.152638
0.138494
0.115967
0.0593708
0.111872
0.115959
0.120645
0.126003
0.132092
0.138975
0.146766
0.15549
0.164656
0.170935
0.172788
0.169925
0.163193
0.154915
0.14599
0.135882
0.123596
0.104858
0.0554102
0.106266
0.108762
0.111685
0.115134
0.119238
0.124233
0.130682
0.139874
0.153306
0.16143
0.162757
0.157314
0.146457
0.135605
0.127334
0.119403
0.110433
0.0966809
0.0534224
0.1016
0.102408
0.103363
0.104509
0.10592
0.107781
0.110741
0.117782
0.143367
0.154738
0.155876
0.14767
0.130956
0.113767
0.108694
0.105358
0.101743
0.0942531
0.054744
)
;

boundaryField
{
    leftWall
    {
        type            kqRWallFunction;
        value           nonuniform List<scalar> 
50
(
0.0026808
0.00528059
0.00722661
0.00890987
0.010435
0.0118604
0.0132163
0.0145209
0.0166502
0.0182851
0.0191971
0.0194528
0.0198395
0.0215842
0.0221473
0.0223272
0.0216854
0.0206743
0.0197897
0.0192622
0.0190971
0.0190749
0.0190803
0.0190512
0.018955
0.0187776
0.0185182
0.0181858
0.017795
0.0173634
0.0169091
0.0164491
0.0159988
0.0155719
0.0151806
0.0148353
0.0145452
0.0143177
0.0141591
0.0140747
0.0140713
0.0141576
0.0143453
0.0146464
0.0150676
0.0156018
0.0162191
0.0168627
0.0174495
0.0178677
)
;
    }
    rightWall
    {
        type            kqRWallFunction;
        value           nonuniform List<scalar> 
50
(
0.0110444
0.015895
0.0209249
0.0284474
0.0374473
0.0481539
0.0608017
0.0768986
0.0894718
0.0839085
0.0728695
0.123134
0.227301
0.319329
0.393526
0.452956
0.505434
0.532014
0.507631
0.439493
0.361686
0.293089
0.240307
0.202536
0.176683
0.159536
0.148163
0.140808
0.136466
0.133536
0.130929
0.128257
0.125441
0.122352
0.11872
0.114382
0.109796
0.105251
0.100693
0.0959561
0.0910781
0.0858093
0.0801372
0.074709
0.0695165
0.0642265
0.0593708
0.0554102
0.0534224
0.054744
)
;
    }
    lowerWall
    {
        type            kqRWallFunction;
        value           nonuniform List<scalar> 
62
(
0.0026808
0.00493182
0.00735799
0.00938308
0.0110643
0.0125152
0.0138327
0.0150822
0.0163126
0.0175683
0.0188957
0.020355
0.0220829
0.0239224
0.025843
0.0278718
0.0299363
0.0316815
0.0323963
0.0309675
0.0256301
0.0156908
0.00554213
0.00554213
0.0116691
0.015895
0.0213265
0.0293365
0.0409163
0.0591802
0.0917373
0.0889813
0.0674978
0.0826615
0.113665
0.0252144
0.0604859
0.0836074
0.0979218
0.107506
0.11409
0.118935
0.123756
0.0252144
0.0402983
0.0595786
0.077378
0.0947854
0.111564
0.123788
0.12543
0.11202
0.0875414
0.0652842
0.0528962
0.0472955
0.045805
0.0435574
0.0391049
0.0321872
0.0216281
0.0110444
)
;
    }
    atmosphere
    {
        type            inletOutlet;
        inletValue      uniform 0.1;
        value           nonuniform List<scalar> 
46
(
0.0178677
0.037352
0.0467368
0.0529522
0.0576425
0.0614306
0.0646364
0.0674621
0.070064
0.0725996
0.0752905
0.0785658
0.0834337
0.1
0.1
0.1
0.1
0.1
0.1
0.1
0.1
0.1
0.1
0.1
0.1
0.1
0.1
0.1
0.1
0.1
0.1
0.1
0.1
0.1
0.1
0.143367
0.154738
0.155876
0.14767
0.130956
0.1
0.1
0.1
0.1
0.0942531
0.054744
)
;
    }
    defaultFaces
    {
        type            empty;
    }
}


// ************************************************************************* //
