/*--------------------------------*- C++ -*----------------------------------*\
  =========                 |
  \\      /  F ield         | OpenFOAM: The Open Source CFD Toolbox
   \\    /   O peration     | Website:  https://openfoam.org
    \\  /    A nd           | Version:  9
     \\/     M anipulation  |
\*---------------------------------------------------------------------------*/
FoamFile
{
    format      ascii;
    class       volScalarField;
    location    "0.95";
    object      p_rgh;
}
// * * * * * * * * * * * * * * * * * * * * * * * * * * * * * * * * * * * * * //

dimensions      [1 -1 -2 0 0 0 0];

internalField   nonuniform List<scalar> 
2268
(
-1.3485
-1.34544
-1.34516
-1.34688
-1.34989
-1.35403
-1.35918
-1.36526
-1.37229
-1.38034
-1.38948
-1.39976
-1.41113
-1.42338
-1.43599
-1.44794
-1.45751
-1.46201
-1.45862
-1.44544
-1.42466
-1.40558
-1.39189
-1.34943
-1.34738
-1.34738
-1.34891
-1.35175
-1.35583
-1.36103
-1.36727
-1.37451
-1.38281
-1.39222
-1.40275
-1.41432
-1.42668
-1.43925
-1.45102
-1.46039
-1.46508
-1.46171
-1.44808
-1.42508
-1.40232
-1.38777
-1.35047
-1.349
-1.34937
-1.35108
-1.35394
-1.35803
-1.3633
-1.36968
-1.37714
-1.38569
-1.39536
-1.40613
-1.41788
-1.4303
-1.44279
-1.45431
-1.46332
-1.46766
-1.46469
-1.45215
-1.42978
-1.40517
-1.38786
-1.35174
-1.3505
-1.35093
-1.35281
-1.35578
-1.35993
-1.36527
-1.37175
-1.37936
-1.38809
-1.39794
-1.40889
-1.42077
-1.43328
-1.44579
-1.45729
-1.4663
-1.47083
-1.46859
-1.45762
-1.4375
-1.41287
-1.39196
-1.35303
-1.35195
-1.35226
-1.3542
-1.35726
-1.36147
-1.36685
-1.37338
-1.38106
-1.3899
-1.39987
-1.41093
-1.42293
-1.43556
-1.44822
-1.45995
-1.46933
-1.47455
-1.4734
-1.46423
-1.44664
-1.42309
-1.40035
-1.3542
-1.35329
-1.35348
-1.35541
-1.35851
-1.36274
-1.36813
-1.37469
-1.3824
-1.39128
-1.40131
-1.41246
-1.42457
-1.43736
-1.45027
-1.4624
-1.47242
-1.47859
-1.47887
-1.47163
-1.45657
-1.43505
-1.41297
-1.35516
-1.35446
-1.35458
-1.3565
-1.35961
-1.36384
-1.36921
-1.37575
-1.38346
-1.39235
-1.40241
-1.41361
-1.42583
-1.4388
-1.45203
-1.46468
-1.47551
-1.48283
-1.48474
-1.47953
-1.46699
-1.44813
-1.4294
-1.35587
-1.35541
-1.35554
-1.35743
-1.36054
-1.36475
-1.3701
-1.3766
-1.38428
-1.39314
-1.4032
-1.41443
-1.42674
-1.43991
-1.45351
-1.46678
-1.47854
-1.48715
-1.49082
-1.48768
-1.47759
-1.46184
-1.44891
-1.52988
-1.54017
-1.54496
-1.55207
-1.56189
-1.57062
-1.57509
-1.57761
-1.58021
-1.59663
-1.62807
-1.67809
-1.74446
-1.81681
-1.85852
-1.81256
-1.66129
-1.50979
-1.42912
-1.5313
-1.54205
-1.54256
-1.54901
-1.56046
-1.57345
-1.58392
-1.59255
-1.60259
-1.62436
-1.66133
-1.71645
-1.78533
-1.85717
-1.89947
-1.83625
-1.66267
-1.4938
-1.40659
-1.5306
-1.54229
-1.54115
-1.54849
-1.56185
-1.57871
-1.59505
-1.61084
-1.62921
-1.66168
-1.71193
-1.78258
-1.8635
-1.9529
-2.02329
-1.92396
-1.67693
-1.49007
-1.38558
-1.52816
-1.5406
-1.54135
-1.55077
-1.56594
-1.58504
-1.60517
-1.62622
-1.65433
-1.73678
-1.80319
-1.87292
-1.96034
-2.07368
-2.10176
-2.0343
-1.8066
-1.50626
-1.37331
-1.52353
-1.53826
-1.54247
-1.554
-1.57051
-1.59076
-1.6132
-1.63832
-1.72344
-1.79473
-1.84769
-1.83046
-1.89683
-1.95019
-2.00706
-2.11143
-1.91569
-1.55294
-1.37545
-1.5171
-1.53579
-1.54385
-1.55695
-1.57432
-1.59528
-1.61953
-1.66145
-1.78283
-1.8216
-1.82565
-1.85
-1.92129
-1.97627
-2.00494
-2.00817
-1.99817
-1.75506
-1.39819
-1.51235
-1.53385
-1.5451
-1.55915
-1.57703
-1.59853
-1.63004
-1.74885
-1.80474
-1.76507
-1.79121
-1.8745
-1.95359
-2.01326
-2.0503
-2.02154
-1.86142
-1.72252
-1.43622
-1.50922
-1.5328
-1.54593
-1.56058
-1.57868
-1.60062
-1.66883
-1.77402
-1.79257
-1.73639
-1.80944
-1.89972
-1.98501
-2.04929
-2.09596
-2.17449
-2.15398
-1.66528
-1.48799
-1.3563
-1.35618
-1.35647
-1.35833
-1.36143
-1.36562
-1.37089
-1.37729
-1.38485
-1.39361
-1.40359
-1.41482
-1.42724
-1.44072
-1.45495
-1.46931
-1.48272
-1.49355
-1.50003
-1.5001
-1.4936
-1.48375
-1.48399
-1.35489
-1.35537
-1.35604
-1.35805
-1.36118
-1.3653
-1.37041
-1.37658
-1.38386
-1.39232
-1.40202
-1.41303
-1.42538
-1.43907
-1.45397
-1.46968
-1.48531
-1.49914
-1.50903
-1.51205
-1.50693
-1.49385
-1.46557
-1.35176
-1.35309
-1.35437
-1.35667
-1.35988
-1.36392
-1.36884
-1.37471
-1.38162
-1.38966
-1.3989
-1.40946
-1.42145
-1.43494
-1.44997
-1.46642
-1.48358
-1.49992
-1.51188
-1.5163
-1.51073
-1.49439
-1.46204
-1.34682
-1.34932
-1.35135
-1.35407
-1.35742
-1.36142
-1.36616
-1.37172
-1.37822
-1.38574
-1.3944
-1.40431
-1.41561
-1.42843
-1.44291
-1.45905
-1.4764
-1.49335
-1.50655
-1.5122
-1.50811
-1.49496
-1.47733
-1.3404
-1.34381
-1.34693
-1.35022
-1.35381
-1.35783
-1.36242
-1.36769
-1.37377
-1.38074
-1.38874
-1.39786
-1.40824
-1.42002
-1.43331
-1.4482
-1.46436
-1.48033
-1.49327
-1.49992
-1.49902
-1.49226
-1.48531
-1.33247
-1.33699
-1.34124
-1.34519
-1.34909
-1.3532
-1.35771
-1.36274
-1.36843
-1.3749
-1.38225
-1.39057
-1.39998
-1.41057
-1.42244
-1.4356
-1.44969
-1.46361
-1.47513
-1.48223
-1.48443
-1.48333
-1.48285
-1.32333
-1.32902
-1.33442
-1.33909
-1.34337
-1.34765
-1.35214
-1.35702
-1.36242
-1.36847
-1.37526
-1.3829
-1.39145
-1.40098
-1.41154
-1.42304
-1.43509
-1.4468
-1.45683
-1.46417
-1.46894
-1.47231
-1.47661
-1.31328
-1.32009
-1.32665
-1.33207
-1.3368
-1.34132
-1.3459
-1.35072
-1.35595
-1.3617
-1.36809
-1.3752
-1.38311
-1.39183
-1.40136
-1.41155
-1.42203
-1.43216
-1.44122
-1.44889
-1.45555
-1.46191
-1.4691
-1.30263
-1.31047
-1.31813
-1.32432
-1.32954
-1.33439
-1.33915
-1.34402
-1.34919
-1.3548
-1.36095
-1.36773
-1.37521
-1.38339
-1.39221
-1.40151
-1.41095
-1.42012
-1.42867
-1.43661
-1.44436
-1.45224
-1.46068
-1.29162
-1.30037
-1.30908
-1.31604
-1.32181
-1.32704
-1.33206
-1.3371
-1.34233
-1.34792
-1.35399
-1.36061
-1.36786
-1.37572
-1.38411
-1.39285
-1.40167
-1.41028
-1.41853
-1.42655
-1.4347
-1.44305
-1.45167
-1.2805
-1.29003
-1.2997
-1.30742
-1.31376
-1.31943
-1.32479
-1.33008
-1.33548
-1.34117
-1.34728
-1.35389
-1.36105
-1.36876
-1.37691
-1.38534
-1.3938
-1.40208
-1.41011
-1.41803
-1.42614
-1.43431
-1.44243
-1.26945
-1.27965
-1.2902
-1.29864
-1.30555
-1.3117
-1.31745
-1.32305
-1.32871
-1.3346
-1.34084
-1.34754
-1.35474
-1.36242
-1.37048
-1.37875
-1.38702
-1.39511
-1.40295
-1.41068
-1.41848
-1.42614
-1.43345
-1.25864
-1.26944
-1.28073
-1.28983
-1.29729
-1.30392
-1.3101
-1.31607
-1.32204
-1.3282
-1.33466
-1.34153
-1.34885
-1.35661
-1.36469
-1.37293
-1.38113
-1.38912
-1.39682
-1.40433
-1.41177
-1.41884
-1.42529
-1.24823
-1.2595
-1.27139
-1.28105
-1.28904
-1.29615
-1.30276
-1.30914
-1.31548
-1.32196
-1.3287
-1.33582
-1.34335
-1.35126
-1.35946
-1.36778
-1.37602
-1.38401
-1.39167
-1.39904
-1.40621
-1.41278
-1.41851
-1.23824
-1.24986
-1.2622
-1.27234
-1.2808
-1.28838
-1.29544
-1.30224
-1.30899
-1.31584
-1.32293
-1.33036
-1.33817
-1.34633
-1.35475
-1.36326
-1.37166
-1.37978
-1.38753
-1.39493
-1.402
-1.40829
-1.41349
-1.22865
-1.24049
-1.25314
-1.26366
-1.27255
-1.28056
-1.28807
-1.29532
-1.3025
-1.30978
-1.31728
-1.3251
-1.33328
-1.34178
-1.35052
-1.35934
-1.36803
-1.37644
-1.38444
-1.39205
-1.39924
-1.40544
-1.41022
-1.21937
-1.23129
-1.24412
-1.25493
-1.26419
-1.27261
-1.28057
-1.28829
-1.29594
-1.3037
-1.31168
-1.31997
-1.3286
-1.33756
-1.34673
-1.35597
-1.36509
-1.37392
-1.38233
-1.3903
-1.39775
-1.40397
-1.40834
-1.21025
-1.22214
-1.235
-1.24601
-1.25557
-1.26439
-1.27279
-1.281
-1.28917
-1.29747
-1.306
-1.31485
-1.32405
-1.33356
-1.34327
-1.35304
-1.36269
-1.37202
-1.38092
-1.38931
-1.39707
-1.40329
-1.4072
-1.2011
-1.21282
-1.22558
-1.23669
-1.24651
-1.2557
-1.26455
-1.27328
-1.28202
-1.29093
-1.30011
-1.30961
-1.31946
-1.32962
-1.33996
-1.35033
-1.36055
-1.37042
-1.37977
-1.38854
-1.39651
-1.40263
-1.40604
-1.19168
-1.20309
-1.2156
-1.22672
-1.23675
-1.24629
-1.25562
-1.2649
-1.27429
-1.28389
-1.29379
-1.30405
-1.31464
-1.32551
-1.33653
-1.34752
-1.35829
-1.36862
-1.37834
-1.38733
-1.39532
-1.40119
-1.40402
-1.18167
-1.19264
-1.20476
-1.21579
-1.22599
-1.23588
-1.24571
-1.25562
-1.26572
-1.27611
-1.28683
-1.29791
-1.30932
-1.32094
-1.33264
-1.34421
-1.35543
-1.36608
-1.37598
-1.38495
-1.39271
-1.39811
-1.40022
-1.17072
-1.18109
-1.19268
-1.20354
-1.21388
-1.22414
-1.23452
-1.24513
-1.25604
-1.26731
-1.27895
-1.29093
-1.30318
-1.31556
-1.32789
-1.33994
-1.35147
-1.36224
-1.37204
-1.38068
-1.38786
-1.39249
-1.39365
-1.15841
-1.16803
-1.17895
-1.18957
-1.20002
-1.21069
-1.2217
-1.2331
-1.24494
-1.2572
-1.26984
-1.28278
-1.2959
-1.309
-1.32187
-1.33425
-1.34586
-1.35648
-1.36585
-1.37376
-1.37994
-1.38338
-1.38323
-1.14425
-1.15299
-1.16312
-1.17342
-1.18401
-1.19514
-1.20688
-1.21921
-1.2321
-1.24547
-1.2592
-1.27314
-1.2871
-1.30085
-1.31412
-1.32662
-1.33807
-1.34821
-1.35673
-1.36342
-1.36807
-1.36978
-1.36785
-1.1277
-1.13546
-1.14468
-1.15465
-1.16541
-1.1771
-1.18969
-1.2031
-1.2172
-1.2318
-1.2467
-1.26166
-1.27643
-1.29071
-1.3042
-1.31658
-1.32754
-1.33679
-1.34401
-1.34894
-1.35143
-1.35075
-1.34639
-1.10816
-1.11492
-1.12314
-1.13276
-1.14377
-1.15614
-1.16977
-1.18444
-1.19992
-1.21589
-1.23203
-1.24802
-1.26352
-1.27819
-1.29168
-1.30366
-1.3138
-1.32175
-1.32712
-1.32967
-1.32927
-1.32541
-1.31784
-1.08496
-1.09088
-1.09801
-1.10731
-1.11867
-1.13191
-1.14677
-1.16292
-1.17997
-1.19746
-1.21493
-1.23195
-1.2481
-1.263
-1.27627
-1.28755
-1.29649
-1.30266
-1.30561
-1.30504
-1.30094
-1.293
-1.28132
-1.05761
-1.06263
-1.06877
-1.07787
-1.08974
-1.10404
-1.12038
-1.13826
-1.15712
-1.17631
-1.19521
-1.21326
-1.22997
-1.24492
-1.25771
-1.26797
-1.27531
-1.2792
-1.27912
-1.27472
-1.26603
-1.25306
-1.23624
-1.02558
-1.02966
-1.03498
-1.04404
-1.05663
-1.07226
-1.09036
-1.11027
-1.13121
-1.15233
-1.17279
-1.19187
-1.20903
-1.22382
-1.23587
-1.24478
-1.2501
-1.25124
-1.24758
-1.23867
-1.22455
-1.20553
-1.18248
-0.988634
-0.991578
-0.996273
-1.00554
-1.01913
-1.03639
-1.05659
-1.0789
-1.10229
-1.12563
-1.14781
-1.16794
-1.1854
-1.19979
-1.21079
-1.21803
-1.22097
-1.21896
-1.21125
-1.19726
-1.17696
-1.15095
-1.12054
-0.946562
-0.948158
-0.952499
-0.962296
-0.977218
-0.996451
-1.01916
-1.04431
-1.07066
-1.09665
-1.12079
-1.14194
-1.15949
-1.17316
-1.18275
-1.18796
-1.18821
-1.1828
-1.1708
-1.15137
-1.12435
-1.09059
-1.0518
-0.899445
-0.899459
-0.903745
-0.914473
-0.931095
-0.952695
-0.978376
-1.00701
-1.03705
-1.06635
-1.09275
-1.11482
-1.13206
-1.1445
-1.15221
-1.155
-1.15235
-1.14358
-1.12748
-1.10263
-1.06863
-1.02665
-0.978738
-0.847812
-0.845928
-0.850432
-0.862548
-0.881261
-0.905661
-0.934918
-0.967927
-1.00287
-1.03651
-1.06552
-1.08815
-1.1043
-1.11471
-1.1199
-1.1199
-1.11431
-1.10278
-1.08352
-1.05388
-1.01304
-0.962721
-0.905281
-0.792732
-0.788592
-0.793446
-0.807384
-0.828564
-0.856247
-0.889861
-0.928625
-0.970571
-1.01022
-1.04212
-1.06426
-1.07776
-1.0848
-1.08676
-1.08374
-1.07547
-1.06273
-1.04269
-1.00988
-0.962543
-0.904031
-0.836823
-0.735899
-0.729235
-0.734311
-0.750323
-0.774233
-0.805693
-0.844621
-0.891328
-0.944237
-0.992735
-1.02739
-1.04661
-1.05439
-1.05593
-1.05369
-1.04739
-1.03657
-1.02524
-1.00934
-0.976589
-0.922458
-0.855671
-0.787897
-0.679531
-0.670412
-0.675303
-0.693237
-0.71987
-0.755471
-0.800976
-0.859352
-0.931
-0.992715
-1.02879
-1.04042
-1.03693
-1.02925
-1.02123
-1.0107
-0.993795
-0.986874
-0.984182
-0.955644
-0.928985
-1.09847
-0.97636
-0.625939
-0.615469
-0.619497
-0.638638
-0.667447
-0.708595
-0.765038
-0.843614
-0.946375
-1.03632
-1.05188
-1.04903
-1.0744
-1.0828
-1.06701
-0.993904
-0.947488
-0.965727
-1.3566
-3.2339
-4.4863
-2.27698
-0.764383
-0.73146
-0.62339
-0.572957
-0.59107
-0.62484
-0.791171
-0.934492
-1.15525
-1.51846
-3.40364
-3.51116
-2.66476
-1.10109
-0.987741
-0.967453
-0.952482
-0.898951
-12.713
-30.3772
-22.1417
-2.26384
-0.783011
-0.698397
-2.70219
-2.4534
-0.836999
-1.18993
-2.63762
-6.4777
-4.90181
-3.39035
-3.73411
-11.4012
-11.2199
-2.5471
-0.955325
-0.933455
-0.929809
-0.964127
-0.934098
-74.3781
-95.9431
-35.2202
-1.07446
-0.802034
-0.684176
-4.44679
-5.9017
-5.91526
-8.76124
-8.76192
-8.73448
-5.25533
-2.91163
-82.8206
-19.4487
-1.68018
-1.56002
-1.35239
-18.6637
-54.3754
-66.4243
-53.7955
-103.779
-328.613
-287.489
-143.308
-27.5823
-7.12757
-0.409123
-5.30875
-7.47193
-7.83978
-7.95522
-3.53451
-1.07428
-2.45928
-239.46
-543.609
-532.791
-554.774
-594.768
-603.046
-602.62
-603.241
-427.599
-2.99038
-43.0264
-1868.85
-2128.9
-2138.41
-2136.01
-0.106718
-0.12714
-0.0656628
-0.0425412
-0.0261315
-0.00661767
-0.410672
-2.76369
-1.32038
-16.1672
-11.8414
-15.3364
-11.8353
-17.1067
-13.8766
-19.5373
1.04165
1.3747
-3.82417
-47.8655
-56.8766
-71.14
-48.5759
-1.51821
-1.50604
-1.50145
-1.50684
-1.45805
-1.4609
-1.46896
-1.47841
-1.45718
-1.4626
-1.46954
-1.47744
-1.47703
-1.47956
-1.48279
-1.4873
-1.4848
-1.48569
-1.48777
-1.4909
-1.48402
-1.48525
-1.48725
-1.4897
-1.47979
-1.4815
-1.4834
-1.48529
-1.47314
-1.47487
-1.47645
-1.47775
-1.46469
-1.46602
-1.46698
-1.46752
-1.45504
-1.45562
-1.45565
-1.45523
-1.44477
-1.44432
-1.44321
-1.44171
-1.43454
-1.43296
-1.43061
-1.42799
-1.42512
-1.4224
-1.41885
-1.41508
-1.41722
-1.41345
-1.40877
-1.4039
-1.41121
-1.40649
-1.40083
-1.39497
-1.40704
-1.40152
-1.39508
-1.38838
-1.40431
-1.39816
-1.39115
-1.3838
-1.40242
-1.39577
-1.38837
-1.38053
-1.40055
-1.3935
-1.38584
-1.37766
-1.39783
-1.3904
-1.38253
-1.37411
-1.39327
-1.38538
-1.37723
-1.36856
-1.38579
-1.37734
-1.36876
-1.35971
-1.37418
-1.36486
-1.35562
-1.34614
-1.35713
-1.34663
-1.33648
-1.32643
-1.33349
-1.32144
-1.31001
-1.29919
-1.30213
-1.28807
-1.27493
-1.26303
-1.26205
-1.2454
-1.22999
-1.21658
-1.21251
-1.19262
-1.17423
-1.15867
-1.15334
-1.12944
-1.10718
-1.08854
-1.08505
-1.05633
-1.02915
-1.00614
-1.00897
-0.974591
-0.941279
-0.912296
-0.927687
-0.886695
-0.845925
-0.809229
-0.845526
-0.797269
-0.747915
-0.701961
-0.768299
-0.713443
-0.65547
-0.598534
-0.714136
-0.650156
-0.576215
-0.506731
-0.703065
-0.589811
-0.514151
-0.439361
-0.647788
-0.572461
-0.491448
-0.406163
-0.622423
-0.555749
-0.467869
-0.376973
-0.640558
-0.632761
-0.61373
-0.482763
-14.2994
-25.132
-60.602
-67.8709
-2140.73
-2144.9
-1024.79
-1734.65
-63.8072
-80.4684
-39.6704
-17.6369
-1.51038
-1.53121
-1.54631
-1.5621
-1.5804
-1.61504
-1.71451
-1.78593
-1.68954
-1.75002
-1.83184
-1.93955
-2.03263
-2.0952
-2.14174
-2.56938
-2.48651
-1.91259
-1.58801
-1.49773
-1.52454
-1.54351
-1.56127
-1.5796
-1.65128
-1.7274
-1.65037
-1.69317
-1.75623
-1.97564
-2.2593
-2.18299
-2.15259
-2.18173
-2.6825
-2.7781
-2.26834
-1.76593
-1.49448
-1.51982
-1.53992
-1.55836
-1.57786
-1.66403
-1.68582
-1.64513
-1.69489
-1.76335
-2.73742
-2.96496
-2.44168
-2.23191
-2.27378
-2.37176
-2.57958
-2.32131
-1.94856
-1.49771
-1.5178
-1.53639
-1.55384
-1.58195
-1.6344
-1.6024
-1.63818
-1.68516
-2.05378
-2.96557
-3.11168
-2.89311
-2.35038
-2.44372
-2.5902
-2.4942
-2.28136
-2.0919
-1.49868
-1.51532
-1.53196
-1.54888
-1.58197
-1.58872
-1.59342
-1.62452
-1.66123
-2.81241
-3.07989
-3.23202
-3.45766
-2.53994
-2.59482
-2.93976
-3.7457
-2.41679
-2.20102
-1.4961
-1.51075
-1.52564
-1.54238
-1.57005
-1.56359
-1.5788
-1.60149
-1.62395
-2.50963
-3.1546
-3.30886
-3.51916
-2.53513
-2.56431
-3.02841
-18.6563
-2.55992
-2.32958
-1.49049
-1.50366
-1.51699
-1.53148
-1.53962
-1.54783
-1.55918
-1.57267
-1.58317
-1.58211
-3.15532
-3.3635
-3.3766
-2.20664
-2.35629
-2.6968
-22.7976
-5.69491
-2.58299
-1.48192
-1.49386
-1.50583
-1.5165
-1.52357
-1.53054
-1.53698
-1.54275
-1.545
-1.53766
-2.06672
-3.32952
-1.87252
-1.89599
-2.01985
-2.09046
-25.0773
-42.4614
-3.31692
-1.47061
-1.48142
-1.49182
-1.50012
-1.50645
-1.51072
-1.51299
-1.51304
-1.51074
-1.51419
-1.50399
-1.77703
-1.56854
-1.61761
-1.58639
-1.31005
-16.3167
-45.6373
-7.70565
-1.45714
-1.46678
-1.4757
-1.48281
-1.4874
-1.48926
-1.48813
-1.48375
-1.50662
-1.64373
-1.47447
-1.43852
-1.43581
-1.38697
-1.23675
-0.8549
-3.05478
-39.5111
-62.4559
-1.44229
-1.4508
-1.45857
-1.46444
-1.46755
-1.46748
-1.46371
-1.45547
-1.51434
-1.62584
-1.60565
-1.40656
-1.32793
-1.25757
-1.10924
-0.823829
-0.706479
-8.98567
-552.236
-1.42723
-1.4346
-1.44139
-1.44629
-1.44838
-1.4471
-1.44167
-1.43093
-1.44191
-1.61108
-1.58718
-1.51612
-1.29057
-1.2172
-1.11447
-0.961119
-0.840789
-1.79777
-1042.04
-1.41297
-1.41931
-1.42531
-1.42963
-1.43133
-1.42975
-1.42408
-1.41362
-1.39576
-1.41537
-1.55177
-1.43152
-1.28615
-1.23056
-1.16748
-1.0961
-1.02002
-1.53736
-1131.41
-1.40048
-1.40585
-1.4113
-1.41548
-1.41765
-1.4167
-1.41229
-1.40611
-1.3908
-1.37025
-1.35042
-1.33078
-1.30329
-1.26912
-1.23345
-1.19443
-1.14635
-1.36099
-1213.12
-1.3903
-1.39481
-1.39994
-1.40449
-1.40788
-1.40879
-1.40678
-1.4044
-1.39562
-1.38106
-1.36779
-1.35368
-1.33655
-1.31928
-1.30547
-1.29339
-1.28748
-1.46227
-1289.21
-1.38257
-1.38628
-1.39143
-1.39714
-1.40205
-1.40579
-1.40737
-1.40957
-1.40625
-1.39947
-1.39328
-1.38733
-1.38491
-1.37669
-1.3755
-1.39062
-1.4549
-3.60507
-1357.68
-1.37697
-1.38004
-1.38564
-1.3929
-1.40033
-1.40754
-1.41409
-1.41938
-1.42284
-1.42453
-1.42498
-1.4322
-1.438
-1.43526
-1.43222
-1.4588
-1.59891
-7.96837
-1415.72
-1.37285
-1.37552
-1.38199
-1.3914
-1.40214
-1.41401
-1.42638
-1.43799
-1.44809
-1.4562
-1.46234
-1.47379
-1.4838
-1.48199
-1.4623
-1.45814
-1.55704
-17.2343
-910.037
-1.36929
-1.37189
-1.37972
-1.39181
-1.40715
-1.42484
-1.4436
-1.46218
-1.47949
-1.49455
-1.5067
-1.51536
-1.53083
-1.52571
-1.48378
-1.42182
-1.35503
-18.774
-966.309
-1.36517
-1.36811
-1.37798
-1.394
-1.41479
-1.43906
-1.46511
-1.49138
-1.5167
-1.53992
-1.55992
-1.57538
-1.58407
-1.58991
-1.54049
-1.45767
-1.35755
-12.6431
-1714.34
-1.35928
-1.36296
-1.37558
-1.39644
-1.42377
-1.45579
-1.49024
-1.52522
-1.5596
-1.59247
-1.62278
-1.64925
-1.66946
-1.67812
-1.6518
-1.5972
-1.61503
-5.88257
-2299.93
-1.35017
-1.35507
-1.37117
-1.39782
-1.4329
-1.47403
-1.51829
-1.56334
-1.60803
-1.65214
-1.69443
-1.7346
-1.77199
-1.81615
-1.79535
-1.78316
-2.08986
-11.011
-2503.65
-1.33644
-1.34304
-1.36334
-1.39683
-1.44098
-1.49281
-1.54863
-1.6054
-1.6616
-1.71757
-1.77575
-1.82639
-1.87916
-1.97897
-1.93775
-1.94925
-3.0044
-34.3434
-2706.53
-1.31663
-1.32537
-1.35064
-1.39209
-1.44689
-1.51142
-1.58105
-1.65155
-1.72001
-1.78717
-1.86123
-1.9181
-1.97457
-2.22479
-2.28777
-2.12451
-5.61206
-81.3364
-2973.85
-1.28926
-1.30052
-1.33151
-1.38214
-1.44956
-1.52949
-1.61615
-1.70315
-1.78411
-1.85952
-1.94044
-2.00131
-2.04322
-2.33088
-3.0172
-2.3861
-19.9368
-150.868
-3245.69
-1.25276
-1.2667
-1.30395
-1.36514
-1.44764
-1.54677
-1.65549
-1.76363
-1.85776
-1.93498
-2.00843
-2.146
-2.22232
-2.32747
-2.97706
-2.79108
-109.648
-535.383
-3478.36
-1.20555
-1.22181
-1.26554
-1.33861
-1.43915
-1.56281
-1.70207
-1.84027
-1.9506
-2.01846
-2.07635
-2.36343
-2.43389
-2.31961
-2.42151
-2.29869
-341.197
-2264.29
-3624.12
-1.14603
-1.16362
-1.21313
-1.29913
-1.42074
-1.57649
-1.76223
-1.95036
-2.08235
-2.12997
-2.13912
-2.62722
-2.4268
-2.24852
-2.33625
-2.14296
-499.794
-3750.43
-3766.17
-1.07281
-1.08961
-1.14286
-1.24064
-1.38625
-1.58537
-1.85023
-2.13618
-2.29057
-2.31977
-2.38555
-2.69387
-2.35779
-2.13296
-2.15826
-1.69795
-537.722
-3939.06
-3926.65
-0.98498
-0.997162
-1.04976
-1.15508
-1.32554
-1.61863
-2.01797
-2.50481
-2.66569
-2.76712
-3.39943
-2.79142
-2.44096
-2.16053
-2.10697
-3.87967
-1087.72
-4021.35
-4006.09
-0.882573
-0.884364
-0.928406
-1.03336
-1.24224
-1.84393
-3.38268
-3.4325
-3.50453
-4.11544
-4.5221
-2.96163
-2.67087
-2.91747
-7.47396
-1064.68
-3185.07
-4084.68
-4062.56
-0.767412
-0.751373
-0.775495
-0.869135
-1.13568
-2.06146
-7.17568
-7.743
-5.93453
-6.11815
-4.45843
-3.14089
-3.53027
-88.1664
-1935.75
-3671.09
-4185.51
-4127.96
-4108.98
-0.644462
-0.602421
-0.593631
-0.655715
-0.946469
-2.11241
-8.34472
-28.8591
-16.0843
-9.1615
-4.69538
-5.55891
-576.427
-2890.8
-4202.67
-4255.59
-4202.89
-4148.28
-4140.76
-0.522112
-0.446216
-0.389897
-0.398961
-0.67334
-2.02105
-8.41032
-48.6176
-58.3901
-19.5668
-12.99
-1213.86
-3732.25
-4442.06
-4363.2
-4272.84
-4197.32
-4152.04
-4161.44
-0.411555
-0.294972
-0.177962
-0.123493
-0.31689
-1.91831
-8.78272
-38.9938
-138.242
-246.087
-1800.55
-4102.18
-4554.75
-4463.28
-4359.28
-4263.91
-4187.65
-4153.7
-4175.2
-0.325493
-0.166447
-0.00304665
0.149123
0.0120417
-2.08222
-10.9293
-39.1342
-164.937
-2066.88
-4327.3
-4667.01
-4563.82
-4454.2
-4349.42
-4256.32
-4182.64
-4156.47
-4184.49
-0.272398
-0.0869895
0.118534
0.395963
0.130335
-3.31926
-15.8438
-48.9734
-183.892
-2485.05
-4712.85
-4694.96
-4565.68
-4452.08
-4349.16
-4261.88
-4192.75
-4167.33
-4194.33
-0.237086
-0.0780087
0.253099
0.575517
-0.27519
-9.90964
-48.1551
-199.824
-179.475
-660.917
-3650.25
-4704.35
-4570.99
-4462.03
-4362.35
-4281.08
-4215.8
-4183.57
-4197.98
-0.218442
-0.108461
0.341392
0.915543
-4.7542
-50.1884
-629.94
-1613.11
-1337.6
-866.112
-3078.45
-4549.98
-4578.24
-4489.33
-4385.07
-4317.03
-4241.16
-4203.1
-4185.91
-90.9174
-194.185
-294.474
-397.88
-656.794
-1314.33
-1767.78
-2225.01
-3486.03
-3879.91
-4056.23
-4591.28
-4590.57
-4535.12
-4406.46
-4373.84
-4261.63
-4233.64
-4138.63
-2412.79
-2434.5
-2446.97
-2389.19
-2343.28
-2353.65
-2268.04
-475.316
-3760.42
-5015.25
-4801.1
-4790.38
-4560.49
-4609.19
-4379.24
-4467.01
-4251.54
-4296.5
-3993.05
-36.0254
-83.9858
-70.8478
-20.6502
-31.2743
-156.363
-150.2
2.87956
-204.097
-792.493
-567.885
-1224.64
-826.258
-1467.27
-964.619
-1564.96
-1030
-1426.39
-605.732
)
;

boundaryField
{
    leftWall
    {
        type            fixedFluxPressure;
        gradient        uniform 0;
        value           nonuniform List<scalar> 
50
(
-1.3485
-1.34943
-1.35047
-1.35174
-1.35303
-1.3542
-1.35516
-1.35587
-1.3563
-1.35489
-1.35176
-1.34682
-1.3404
-1.33247
-1.32333
-1.31328
-1.30263
-1.29162
-1.2805
-1.26945
-1.25864
-1.24823
-1.23824
-1.22865
-1.21937
-1.21025
-1.2011
-1.19168
-1.18167
-1.17072
-1.15841
-1.14425
-1.1277
-1.10816
-1.08496
-1.05761
-1.02558
-0.988634
-0.946562
-0.899445
-0.847812
-0.792732
-0.735899
-0.679531
-0.625939
-0.73146
-2.70219
-4.44679
-0.409123
-0.106718
)
;
    }
    rightWall
    {
        type            fixedFluxPressure;
        gradient        uniform 0;
        value           nonuniform List<scalar> 
50
(
-1.42912
-1.40659
-1.38558
-1.37331
-1.37545
-1.39819
-1.43622
-1.48799
-1.58801
-1.76593
-1.94856
-2.0919
-2.20102
-2.32958
-2.58299
-3.31692
-7.70565
-62.4559
-552.236
-1042.04
-1131.41
-1213.12
-1289.21
-1357.68
-1415.72
-910.037
-966.309
-1714.34
-2299.93
-2503.65
-2706.53
-2973.85
-3245.69
-3478.36
-3624.12
-3766.17
-3926.65
-4006.09
-4062.56
-4108.98
-4140.76
-4161.44
-4175.2
-4184.49
-4194.33
-4197.98
-4185.91
-4138.63
-3993.05
-605.732
)
;
    }
    lowerWall
    {
        type            fixedFluxPressure;
        gradient        uniform 0;
        value           nonuniform List<scalar> 
62
(
-1.3485
-1.34544
-1.34516
-1.34688
-1.34989
-1.35403
-1.35918
-1.36526
-1.37229
-1.38034
-1.38948
-1.39976
-1.41113
-1.42338
-1.43599
-1.44794
-1.45751
-1.46201
-1.45862
-1.44544
-1.42466
-1.40558
-1.39189
-1.39189
-1.38777
-1.38786
-1.39196
-1.40035
-1.41297
-1.4294
-1.44891
-1.51821
-1.50604
-1.50145
-1.50684
-1.52988
-1.5313
-1.5306
-1.52816
-1.52353
-1.5171
-1.51235
-1.50922
-1.52988
-1.54017
-1.54496
-1.55207
-1.56189
-1.57062
-1.57509
-1.57761
-1.58021
-1.59663
-1.62807
-1.67809
-1.74446
-1.81681
-1.85852
-1.81256
-1.66129
-1.50979
-1.42912
)
;
    }
    atmosphere
    {
        type            totalPressure;
        rho             rho;
        psi             none;
        gamma           1;
        p0              uniform 0;
        value           nonuniform List<scalar> 
46
(
-0.070927
-0.0563301
-0.0306189
-0.0187066
-0.0154186
-0.0180655
-0.0180048
-0.0218015
-0.0154889
0
-0.176473
0
-0.139645
0
-0.195301
0
0
0
-0.0988204
0
-0.989589
0
-0.567615
0
0
0
-0.052142
-0.389464
0
0
-0.112962
-0.156151
0
0
0
-0.475798
0
-2.39899
0
-2.15782
0
-1.05122
0
-0.725814
0
-2.16993
)
;
    }
    defaultFaces
    {
        type            empty;
    }
}


// ************************************************************************* //
