/*--------------------------------*- C++ -*----------------------------------*\
  =========                 |
  \\      /  F ield         | OpenFOAM: The Open Source CFD Toolbox
   \\    /   O peration     | Website:  https://openfoam.org
    \\  /    A nd           | Version:  9
     \\/     M anipulation  |
\*---------------------------------------------------------------------------*/
FoamFile
{
    format      ascii;
    class       surfaceScalarField;
    location    "0.95";
    object      phi;
}
// * * * * * * * * * * * * * * * * * * * * * * * * * * * * * * * * * * * * * //

dimensions      [0 3 -1 0 0 0 0];

internalField   nonuniform List<scalar> 
4432
(
2.1295e-06
-2.1295e-06
5.14203e-06
-3.01254e-06
7.84038e-06
-2.69836e-06
9.94491e-06
-2.10453e-06
1.16368e-05
-1.69194e-06
1.31276e-05
-1.49077e-06
1.45865e-05
-1.45886e-06
1.61147e-05
-1.52824e-06
1.77674e-05
-1.6527e-06
1.95727e-05
-1.8054e-06
2.15391e-05
-1.96639e-06
2.36533e-05
-2.11425e-06
2.58739e-05
-2.22062e-06
2.81185e-05
-2.24457e-06
3.02446e-05
-2.1262e-06
3.20161e-05
-1.77145e-06
3.30522e-05
-1.03606e-06
3.25811e-05
4.71149e-07
2.94122e-05
3.16896e-06
2.27969e-05
6.61526e-06
1.31735e-05
9.62341e-06
3.5996e-06
9.57393e-06
3.5995e-06
2.76105e-06
-4.89056e-06
5.3608e-06
-5.6123e-06
7.5294e-06
-4.86697e-06
9.37338e-06
-3.94851e-06
1.09766e-05
-3.29514e-06
1.24525e-05
-2.9667e-06
1.38954e-05
-2.90176e-06
1.53806e-05
-3.01346e-06
1.69619e-05
-3.23403e-06
1.86722e-05
-3.51581e-06
2.05245e-05
-3.81878e-06
2.25095e-05
-4.09923e-06
2.45886e-05
-4.2998e-06
2.66834e-05
-4.33939e-06
2.86598e-05
-4.10259e-06
3.03148e-05
-3.4264e-06
3.13786e-05
-2.09981e-06
3.15993e-05
2.50547e-07
3.06289e-05
4.13934e-06
2.72975e-05
9.94668e-06
1.99666e-05
1.69542e-05
9.1464e-06
2.03942e-05
1.27458e-05
2.92831e-06
-7.81889e-06
5.27216e-06
-7.95615e-06
7.13202e-06
-6.72683e-06
8.76554e-06
-5.58202e-06
1.02506e-05
-4.78024e-06
1.16479e-05
-4.36394e-06
1.30184e-05
-4.27232e-06
1.44205e-05
-4.41557e-06
1.59016e-05
-4.7151e-06
1.74934e-05
-5.1077e-06
1.92099e-05
-5.53535e-06
2.10436e-05
-5.93289e-06
2.29587e-05
-6.21502e-06
2.48819e-05
-6.26252e-06
2.6688e-05
-5.90877e-06
2.81892e-05
-4.92749e-06
2.91172e-05
-3.0278e-06
2.91959e-05
1.7191e-07
2.81462e-05
5.18904e-06
2.55473e-05
1.25456e-05
2.03675e-05
2.21339e-05
1.14054e-05
2.93564e-05
2.41512e-05
2.81938e-06
-1.06383e-05
4.97083e-06
-1.01076e-05
6.65613e-06
-8.41211e-06
8.14129e-06
-7.06717e-06
9.51337e-06
-6.15231e-06
1.08181e-05
-5.66866e-06
1.21008e-05
-5.55503e-06
1.34085e-05
-5.72329e-06
1.47826e-05
-6.08919e-06
1.62527e-05
-6.57778e-06
1.78328e-05
-7.1155e-06
1.95173e-05
-7.61744e-06
2.12744e-05
-7.97216e-06
2.30367e-05
-8.02484e-06
2.46891e-05
-7.56118e-06
2.60566e-05
-6.29492e-06
2.68946e-05
-3.86575e-06
2.69158e-05
1.50743e-07
2.58374e-05
6.26744e-06
2.34119e-05
1.49712e-05
1.91704e-05
2.63753e-05
1.16945e-05
3.68324e-05
3.58456e-05
2.60359e-06
-1.32419e-05
4.56522e-06
-1.20692e-05
6.11636e-06
-9.96324e-06
7.48294e-06
-8.43373e-06
8.7486e-06
-7.41797e-06
9.95531e-06
-6.87537e-06
1.11413e-05
-6.74103e-06
1.23464e-05
-6.9284e-06
1.3607e-05
-7.34975e-06
1.49504e-05
-7.92117e-06
1.63907e-05
-8.55587e-06
1.79246e-05
-9.15137e-06
1.95249e-05
-9.57249e-06
2.11319e-05
-9.63177e-06
2.26413e-05
-9.07062e-06
2.38925e-05
-7.54616e-06
2.46608e-05
-4.63396e-06
2.46681e-05
1.43431e-07
2.36427e-05
7.29281e-06
2.13695e-05
1.72444e-05
1.76152e-05
3.01296e-05
1.11957e-05
4.32519e-05
4.70413e-05
2.35408e-06
-1.55959e-05
4.11989e-06
-1.3835e-05
5.54285e-06
-1.13862e-05
6.79947e-06
-9.69032e-06
7.96065e-06
-8.57914e-06
9.06559e-06
-7.9803e-06
1.01486e-05
-7.82404e-06
1.12445e-05
-8.02431e-06
1.23856e-05
-8.49078e-06
1.35969e-05
-9.13253e-06
1.48928e-05
-9.85178e-06
1.62723e-05
-1.05309e-05
1.77135e-05
-1.10137e-05
1.91653e-05
-1.10836e-05
2.05357e-05
-1.0441e-05
2.16789e-05
-8.68936e-06
2.23873e-05
-5.34239e-06
2.24009e-05
1.29895e-07
2.14607e-05
8.23298e-06
1.93761e-05
1.9329e-05
1.60179e-05
3.34877e-05
1.04757e-05
4.87941e-05
5.7517e-05
2.10047e-06
-1.76964e-05
3.66941e-06
-1.54039e-05
4.96014e-06
-1.26769e-05
6.10598e-06
-1.08361e-05
7.1611e-06
-9.63424e-06
8.16069e-06
-8.97988e-06
9.13589e-06
-8.79922e-06
1.01174e-05
-9.00579e-06
1.11338e-05
-9.50716e-06
1.22081e-05
-1.02068e-05
1.33544e-05
-1.09982e-05
1.45744e-05
-1.17509e-05
1.58517e-05
-1.2291e-05
1.71443e-05
-1.23762e-05
1.8373e-05
-1.16697e-05
1.94078e-05
-9.72417e-06
2.0058e-05
-5.99253e-06
2.00827e-05
1.05182e-07
1.92405e-05
9.0752e-06
1.7378e-05
2.11915e-05
1.44542e-05
3.64116e-05
9.80526e-06
5.34431e-05
6.73223e-05
1.85016e-06
-1.95465e-05
3.22418e-06
-1.67779e-05
4.37836e-06
-1.3831e-05
5.4077e-06
-1.18655e-05
6.35191e-06
-1.05784e-05
7.24129e-06
-9.86926e-06
8.10351e-06
-9.66142e-06
8.96538e-06
-9.86766e-06
9.85194e-06
-1.03937e-05
1.0784e-05
-1.11389e-05
1.17752e-05
-1.19894e-05
1.28294e-05
-1.28051e-05
1.39357e-05
-1.33974e-05
1.50618e-05
-1.35022e-05
1.61419e-05
-1.27499e-05
1.70621e-05
-1.06444e-05
1.76478e-05
-6.57824e-06
1.76805e-05
7.2468e-08
1.69377e-05
9.818e-06
1.53216e-05
2.28076e-05
1.29009e-05
3.88322e-05
9.2034e-06
5.71406e-05
7.65257e-05
7.71275e-06
-7.71275e-06
6.6563e-06
1.05635e-06
2.02664e-06
4.62978e-06
-3.96032e-06
5.987e-06
-8.30923e-06
4.3489e-06
-8.96728e-06
6.58153e-07
-5.74375e-06
-3.22346e-06
5.5668e-07
-6.30047e-06
8.93265e-06
-8.37596e-06
1.90398e-05
-1.01072e-05
3.03634e-05
-1.13237e-05
4.23993e-05
-1.2036e-05
5.44851e-05
-1.20858e-05
6.45915e-05
-1.01065e-05
6.60901e-05
-1.49856e-06
5.17881e-05
1.4302e-05
2.6344e-05
2.54441e-05
2.20347e-06
2.41405e-05
2.20345e-06
3.98762e-06
-1.17002e-05
9.3337e-07
4.11053e-06
-4.36769e-06
9.93089e-06
-8.26933e-06
9.88879e-06
-9.37787e-06
5.45748e-06
-7.59039e-06
-1.12931e-06
-3.38959e-06
-7.4242e-06
2.88237e-06
-1.25725e-05
1.09553e-05
-1.6449e-05
2.03265e-05
-1.94785e-05
3.06935e-05
-2.16909e-05
4.1551e-05
-2.28935e-05
5.21721e-05
-2.27069e-05
6.06841e-05
-1.86186e-05
6.42541e-05
-5.06861e-06
5.92048e-05
1.93513e-05
4.21083e-05
4.25405e-05
1.74092e-05
4.88395e-05
1.96127e-05
-7.57192e-07
-1.09429e-05
-4.51107e-06
7.8644e-06
-8.32727e-06
1.37471e-05
-9.99097e-06
1.15526e-05
-9.23598e-06
4.70253e-06
-6.44313e-06
-3.92217e-06
-1.87264e-06
-1.19947e-05
4.3261e-06
-1.87713e-05
1.19797e-05
-2.41027e-05
2.05873e-05
-2.80862e-05
3.01238e-05
-3.12275e-05
4.01183e-05
-3.28881e-05
4.96505e-05
-3.22391e-05
5.69103e-05
-2.58783e-05
5.99108e-05
-8.06909e-06
5.6139e-05
2.31231e-05
4.35749e-05
5.51046e-05
2.3406e-05
6.90084e-05
4.30187e-05
-3.94598e-06
-6.99689e-06
-8.00578e-06
1.19242e-05
-1.05369e-05
1.62782e-05
-1.07444e-05
1.17602e-05
-8.9377e-06
2.89582e-06
-5.54957e-06
-7.31032e-06
-7.56308e-07
-1.67879e-05
5.37854e-06
-2.49062e-05
1.2562e-05
-3.12862e-05
2.05326e-05
-3.60568e-05
2.93956e-05
-4.00905e-05
3.89327e-05
-4.24251e-05
4.77069e-05
-4.10133e-05
5.39876e-05
-3.2159e-05
5.61529e-05
-1.02344e-05
5.26283e-05
2.66478e-05
4.25445e-05
6.51884e-05
2.50412e-05
8.65117e-05
6.80599e-05
-6.31618e-06
-6.80681e-07
-1.02625e-05
1.58706e-05
-1.17729e-05
1.77886e-05
-1.10269e-05
1.10142e-05
-8.54971e-06
4.18644e-07
-4.75545e-06
-1.11046e-05
1.90495e-07
-2.17339e-05
6.13928e-06
-3.0855e-05
1.28374e-05
-3.79844e-05
2.05208e-05
-4.37401e-05
2.91307e-05
-4.87004e-05
3.83251e-05
-5.16196e-05
4.6469e-05
-4.91571e-05
5.1932e-05
-3.7622e-05
5.27988e-05
-1.11012e-05
4.87287e-05
3.07179e-05
4.01518e-05
7.37654e-05
2.49249e-05
0.000101739
9.29848e-05
-8.02269e-06
7.342e-06
-1.1717e-05
1.9565e-05
-1.24133e-05
1.84849e-05
-1.09897e-05
9.59065e-06
-8.03772e-06
-2.5333e-06
-3.95321e-06
-1.51892e-05
1.04489e-06
-2.6732e-05
6.67659e-06
-3.64867e-05
1.31702e-05
-4.4478e-05
2.09589e-05
-5.15288e-05
2.95645e-05
-5.7306e-05
3.80188e-05
-6.00739e-05
4.53454e-05
-5.64836e-05
5.02208e-05
-4.24974e-05
5.01932e-05
-1.10737e-05
4.4866e-05
3.60451e-05
3.65735e-05
8.20579e-05
2.39433e-05
0.000114369
0.000116928
-9.42203e-06
1.6764e-05
-1.26325e-05
2.27756e-05
-1.2618e-05
1.84703e-05
-1.06689e-05
7.64157e-06
-7.35666e-06
-5.84551e-06
-3.0538e-06
-1.9492e-05
1.87273e-06
-3.16585e-05
7.28774e-06
-4.19018e-05
1.38835e-05
-5.10738e-05
2.19418e-05
-5.95871e-05
3.02716e-05
-6.56358e-05
3.77796e-05
-6.75817e-05
4.41572e-05
-6.28612e-05
4.84714e-05
-4.68116e-05
4.84957e-05
-1.1098e-05
4.26702e-05
4.18705e-05
3.35473e-05
9.11808e-05
2.19195e-05
0.000125996
0.000138848
-1.07673e-05
2.75313e-05
-1.31294e-05
2.51378e-05
-1.24744e-05
1.78153e-05
-1.01082e-05
5.27539e-06
-6.52573e-06
-9.42796e-06
-2.1166e-06
-2.39012e-05
2.73597e-06
-3.65111e-05
8.22852e-06
-4.73943e-05
1.51544e-05
-5.79997e-05
2.31089e-05
-6.75416e-05
3.07422e-05
-7.32691e-05
3.72822e-05
-7.41217e-05
4.27534e-05
-6.83324e-05
4.64654e-05
-5.05236e-05
4.65523e-05
-1.11849e-05
4.12599e-05
4.71628e-05
3.2199e-05
0.000100242
2.02089e-05
0.000137987
0.000159057
3.11733e-06
-2.26638e-05
5.37504e-06
-1.90356e-05
7.36295e-06
-1.58189e-05
9.12536e-06
-1.36278e-05
1.07279e-05
-1.21809e-05
1.2221e-05
-1.13623e-05
1.36489e-05
-1.10893e-05
1.50549e-05
-1.12737e-05
1.64803e-05
-1.1819e-05
1.79605e-05
-1.26191e-05
1.95225e-05
-1.35515e-05
2.11804e-05
-1.44629e-05
2.29288e-05
-1.51459e-05
2.47317e-05
-1.53051e-05
2.64991e-05
-1.45173e-05
2.80508e-05
-1.21961e-05
2.9076e-05
-7.60348e-06
2.91689e-05
-2.04133e-08
2.78916e-05
1.10953e-05
2.52882e-05
2.54111e-05
2.22282e-05
4.18921e-05
2.09586e-05
5.84103e-05
6.82989e-05
2.91853e-05
2.06212e-06
-2.47259e-05
3.42725e-06
-2.04006e-05
4.65997e-06
-1.70516e-05
5.74305e-06
-1.47109e-05
6.69956e-06
-1.31374e-05
7.55807e-06
-1.22208e-05
8.34435e-06
-1.18756e-05
9.08304e-06
-1.20124e-05
9.79755e-06
-1.25336e-05
1.05091e-05
-1.33306e-05
1.12355e-05
-1.42779e-05
1.19908e-05
-1.52182e-05
1.27828e-05
-1.5938e-05
1.36077e-05
-1.613e-05
1.44331e-05
-1.53426e-05
1.51603e-05
-1.29234e-05
1.5571e-05
-8.01415e-06
1.53283e-05
2.22276e-07
1.40527e-05
1.23708e-05
1.18822e-05
2.75816e-05
9.85282e-06
4.39215e-05
1.01072e-05
5.8156e-05
6.51986e-05
1.32076e-05
9.64316e-07
-2.56902e-05
1.48019e-06
-2.09164e-05
1.92623e-06
-1.74976e-05
2.27288e-06
-1.50575e-05
2.52421e-06
-1.33887e-05
2.69018e-06
-1.23868e-05
2.77902e-06
-1.19644e-05
2.79719e-06
-1.20306e-05
2.74947e-06
-1.24859e-05
2.63878e-06
-1.32199e-05
2.46618e-06
-1.41054e-05
2.23167e-06
-1.49837e-05
1.93495e-06
-1.56413e-05
1.57446e-06
-1.57696e-05
1.13972e-06
-1.49079e-05
5.91631e-07
-1.23753e-05
-1.87465e-07
-7.23508e-06
-1.49135e-06
1.52616e-06
-3.47597e-06
1.43554e-05
-6.09751e-06
3.02032e-05
-8.52343e-06
4.63474e-05
-9.50301e-06
5.91355e-05
6.42216e-05
-8.5262e-06
-1.48883e-07
-2.55412e-05
-4.26672e-07
-2.06386e-05
-7.62389e-07
-1.71618e-05
-1.16366e-06
-1.46562e-05
-1.6318e-06
-1.29205e-05
-2.17145e-06
-1.18471e-05
-2.79006e-06
-1.13458e-05
-3.4979e-06
-1.13228e-05
-4.30848e-06
-1.16753e-05
-5.23924e-06
-1.22892e-05
-6.31202e-06
-1.30326e-05
-7.55289e-06
-1.37429e-05
-8.99117e-06
-1.42031e-05
-1.06576e-05
-1.41032e-05
-1.25827e-05
-1.29829e-05
-1.47996e-05
-1.01585e-05
-1.73464e-05
-4.68832e-06
-2.0215e-05
4.39474e-06
-2.3269e-05
1.74095e-05
-2.61176e-05
3.30518e-05
-2.80875e-05
4.83174e-05
-2.86e-05
5.9648e-05
6.39428e-05
-2.83211e-05
-1.09189e-06
-2.44493e-05
-2.21346e-06
-1.95169e-05
-3.32492e-06
-1.60503e-05
-4.45468e-06
-1.35264e-05
-5.62112e-06
-1.17541e-05
-6.84187e-06
-1.06263e-05
-8.13708e-06
-1.00506e-05
-9.53057e-06
-9.92925e-06
-1.10512e-05
-1.01546e-05
-1.27345e-05
-1.06059e-05
-1.46242e-05
-1.11429e-05
-1.67738e-05
-1.15933e-05
-1.92467e-05
-1.17302e-05
-2.21132e-05
-1.12368e-05
-2.54384e-05
-9.65774e-06
-2.92434e-05
-6.35352e-06
-3.3452e-05
-4.79726e-07
-3.76774e-05
8.6201e-06
-4.13437e-05
2.10758e-05
-4.37664e-05
3.54746e-05
-4.44693e-05
4.90203e-05
-4.33903e-05
5.85689e-05
6.17593e-05
-4.12068e-05
-1.9676e-06
-2.24816e-05
-3.86414e-06
-1.76203e-05
-5.70013e-06
-1.42143e-05
-7.5117e-06
-1.17148e-05
-9.32803e-06
-9.93771e-06
-1.1176e-05
-8.7784e-06
-1.3084e-05
-8.14254e-06
-1.50846e-05
-7.92865e-06
-1.72159e-05
-8.02325e-06
-1.95242e-05
-8.29761e-06
-2.20657e-05
-8.60143e-06
-2.49085e-05
-8.75057e-06
-2.81318e-05
-8.50705e-06
-3.18175e-05
-7.55116e-06
-3.60231e-05
-5.45223e-06
-4.07171e-05
-1.6596e-06
-4.56233e-05
4.42652e-06
-5.02101e-05
1.32069e-05
-5.36078e-05
2.44735e-05
-5.50266e-05
3.68935e-05
-5.40987e-05
4.80924e-05
-5.09835e-05
5.54537e-05
5.70992e-05
-4.63235e-05
-2.74436e-06
-1.97372e-05
-5.34796e-06
-1.50167e-05
-7.84165e-06
-1.17206e-05
-1.02707e-05
-9.28576e-06
-1.26703e-05
-7.53812e-06
-1.50718e-05
-6.37684e-06
-1.75073e-05
-5.70698e-06
-2.00119e-05
-5.42401e-06
-2.26257e-05
-5.4095e-06
-2.53952e-05
-5.52808e-06
-2.83752e-05
-5.62147e-06
-3.1628e-05
-5.49783e-06
-3.52188e-05
-4.91632e-06
-3.91999e-05
-3.57013e-06
-4.35723e-05
-1.07995e-06
-4.82116e-05
2.97972e-06
-5.27689e-05
8.98383e-06
-5.66215e-05
1.70595e-05
-5.89392e-05
2.67913e-05
-5.90139e-05
3.69683e-05
-5.66047e-05
4.56832e-05
-5.20504e-05
5.08994e-05
5.11968e-05
-4.6148e-05
-3.41857e-06
-1.63187e-05
-6.64641e-06
-1.17888e-05
-9.7217e-06
-8.64526e-06
-1.26938e-05
-6.31363e-06
-1.55998e-05
-4.63208e-06
-1.84715e-05
-3.50514e-06
-2.13397e-05
-2.83875e-06
-2.42367e-05
-2.527e-06
-2.71973e-05
-2.44886e-06
-3.02597e-05
-2.46567e-06
-3.34648e-05
-2.41645e-06
-3.68528e-05
-2.10982e-06
-4.04549e-05
-1.31432e-06
-4.42725e-05
2.47347e-07
-4.824e-05
2.88752e-06
-5.21687e-05
6.90836e-06
-5.56887e-05
1.25038e-05
-5.82366e-05
1.96074e-05
-5.91591e-05
2.77138e-05
-5.79591e-05
3.57683e-05
-5.45532e-05
4.22773e-05
-4.93517e-05
4.56979e-05
4.4928e-05
-4.30829e-05
-3.98822e-06
-1.23304e-05
-7.75331e-06
-8.02376e-06
-1.13298e-05
-5.06873e-06
-1.47666e-05
-2.87692e-06
-1.80988e-05
-1.29981e-06
-2.13554e-05
-2.4858e-07
-2.45624e-05
3.68295e-07
-2.77453e-05
6.55969e-07
-3.09293e-05
7.35133e-07
-3.41384e-05
7.43448e-07
-3.73936e-05
8.38695e-07
-4.07072e-05
1.20377e-06
-4.40726e-05
2.05094e-06
-4.74444e-05
3.61912e-06
-5.07101e-05
6.1531e-06
-5.36553e-05
9.85351e-06
-5.59419e-05
1.47904e-05
-5.71281e-05
2.07935e-05
-5.6763e-05
2.73488e-05
-5.45546e-05
3.35599e-05
-5.05251e-05
3.82478e-05
-4.50374e-05
4.02102e-05
3.8528e-05
-3.86374e-05
-4.45701e-06
-7.87341e-06
-8.67186e-06
-3.80894e-06
-1.26689e-05
-1.07171e-06
-1.64917e-05
9.45837e-07
-2.01715e-05
2.38001e-06
-2.37318e-05
3.31175e-06
-2.71921e-05
3.8286e-06
-3.05689e-05
4.03289e-06
-3.3876e-05
4.04219e-06
-3.7122e-05
3.98947e-06
-4.0308e-05
4.0246e-06
-4.34208e-05
4.31654e-06
-4.64234e-05
5.05348e-06
-4.92394e-05
6.43509e-06
-5.17348e-05
8.64843e-06
-5.37019e-05
1.18206e-05
-5.48599e-05
1.59483e-05
-5.48858e-05
2.08194e-05
-5.34888e-05
2.59518e-05
-5.05135e-05
3.05846e-05
-4.60229e-05
3.37573e-05
-4.02991e-05
3.44865e-05
3.19705e-05
-3.37415e-05
-4.82894e-06
-3.04448e-06
-9.41119e-06
7.73267e-07
-1.375e-05
3.2671e-06
-1.78835e-05
5.07933e-06
-2.1837e-05
6.33352e-06
-2.56276e-05
7.10234e-06
-2.92673e-05
7.46838e-06
-3.2764e-05
7.52958e-06
-3.61201e-05
7.39829e-06
-3.93309e-05
7.20024e-06
-4.2381e-05
7.07459e-06
-4.52384e-05
7.17397e-06
-4.7847e-05
7.66197e-06
-5.01151e-05
8.70317e-06
-5.19063e-05
1.04396e-05
-5.30349e-05
1.29492e-05
-5.32767e-05
1.61901e-05
-5.23992e-05
1.99419e-05
-5.02148e-05
2.37673e-05
-4.66423e-05
2.70122e-05
-4.17521e-05
2.88671e-05
-3.57648e-05
2.84992e-05
2.52055e-05
-2.89999e-05
-5.1165e-06
2.07199e-06
-9.98457e-06
5.64129e-06
-1.45901e-05
7.87264e-06
-1.89631e-05
9.45231e-06
-2.31222e-05
1.04926e-05
-2.7078e-05
1.10582e-05
-3.08358e-05
1.12262e-05
-3.43953e-05
1.10891e-05
-3.77499e-05
1.07529e-05
-4.08846e-05
1.03348e-05
-4.37723e-05
9.96234e-06
-4.637e-05
9.77158e-06
-4.86114e-05
9.90341e-06
-5.04013e-05
1.0493e-05
-5.16101e-05
1.16484e-05
-5.20766e-05
1.34157e-05
-5.16206e-05
1.5734e-05
-5.00693e-05
1.83907e-05
-4.72949e-05
2.09929e-05
-4.3254e-05
2.29712e-05
-3.80162e-05
2.36293e-05
-3.17708e-05
2.22538e-05
1.82421e-05
-2.48074e-05
-5.32953e-06
7.4015e-06
-1.04061e-05
1.07178e-05
-1.52071e-05
1.26737e-05
-1.97529e-05
1.39981e-05
-2.40554e-05
1.47951e-05
-2.81196e-05
1.51223e-05
-3.19444e-05
1.50511e-05
-3.55236e-05
1.46683e-05
-3.88438e-05
1.40731e-05
-4.1883e-05
1.3374e-05
-4.46077e-05
1.26869e-05
-4.69687e-05
1.21327e-05
-4.88972e-05
1.18319e-05
-5.02998e-05
1.18955e-05
-5.1057e-05
1.24056e-05
-5.10279e-05
1.33866e-05
-5.0063e-05
1.4769e-05
-4.80261e-05
1.63538e-05
-4.48231e-05
1.779e-05
-4.04314e-05
1.85795e-05
-3.49241e-05
1.81219e-05
-2.84838e-05
1.58135e-05
1.11586e-05
-2.14003e-05
-5.4703e-06
1.28718e-05
-1.06871e-05
1.59345e-05
-1.56172e-05
1.76037e-05
-2.02735e-05
1.86544e-05
-2.46624e-05
1.9184e-05
-2.87838e-05
1.92437e-05
-3.26323e-05
1.88996e-05
-3.61971e-05
1.8233e-05
-3.94605e-05
1.73365e-05
-4.23967e-05
1.63102e-05
-4.49691e-05
1.52593e-05
-4.71268e-05
1.42904e-05
-4.88018e-05
1.35069e-05
-4.99051e-05
1.29989e-05
-5.03272e-05
1.28277e-05
-4.99426e-05
1.3002e-05
-4.86222e-05
1.34486e-05
-4.62523e-05
1.39838e-05
-4.27593e-05
1.4297e-05
-3.81362e-05
1.39564e-05
-3.24665e-05
1.24522e-05
-2.59421e-05
9.28905e-06
4.08102e-06
-1.88645e-05
-5.54459e-06
1.84163e-05
-1.08366e-05
2.12265e-05
-1.58329e-05
2.26e-05
-2.05406e-05
2.33622e-05
-2.49618e-05
2.36051e-05
-2.90927e-05
2.33746e-05
-3.29251e-05
2.27319e-05
-3.64453e-05
2.17532e-05
-3.96335e-05
2.05247e-05
-4.24622e-05
1.9139e-05
-4.48941e-05
1.76912e-05
-4.6879e-05
1.62754e-05
-4.83512e-05
1.49791e-05
-4.92273e-05
1.38749e-05
-4.94062e-05
1.30066e-05
-4.87743e-05
1.23702e-05
-4.7217e-05
1.18912e-05
-4.46362e-05
1.14031e-05
-4.09742e-05
1.06349e-05
-3.62394e-05
9.22146e-06
-3.05311e-05
6.74391e-06
-2.40553e-05
2.81323e-06
-2.85681e-06
-1.71174e-05
-5.55628e-06
2.39726e-05
-1.08607e-05
2.65308e-05
-1.58618e-05
2.76011e-05
-2.0563e-05
2.80633e-05
-2.49631e-05
2.80052e-05
-2.90564e-05
2.74679e-05
-3.28329e-05
2.65083e-05
-3.62776e-05
2.51979e-05
-3.93702e-05
2.36173e-05
-4.2083e-05
2.18518e-05
-4.43792e-05
1.99874e-05
-4.62104e-05
1.81066e-05
-4.75141e-05
1.62828e-05
-4.82117e-05
1.45726e-05
-4.821e-05
1.30049e-05
-4.74056e-05
1.15657e-05
-4.56959e-05
1.01816e-05
-4.29971e-05
8.70424e-06
-3.92669e-05
6.90472e-06
-3.45308e-05
4.48533e-06
-2.89036e-05
1.11665e-06
-2.25973e-05
-3.4931e-06
-9.55417e-06
-1.58999e-05
-5.50667e-06
2.94792e-05
-1.07609e-05
3.17849e-05
-1.57054e-05
3.25456e-05
-2.03411e-05
3.26989e-05
-2.46653e-05
3.23295e-05
-2.86715e-05
3.14741e-05
-3.23492e-05
3.01859e-05
-3.56833e-05
2.8532e-05
-3.86538e-05
2.65877e-05
-4.12336e-05
2.44316e-05
-4.33871e-05
2.2141e-05
-4.50678e-05
1.97874e-05
-4.62164e-05
1.74313e-05
-4.67592e-05
1.51154e-05
-4.66101e-05
1.28558e-05
-4.56756e-05
1.06313e-05
-4.3866e-05
8.37207e-06
-4.11129e-05
5.95104e-06
-3.73912e-05
3.18303e-06
-3.27425e-05
-1.63422e-07
-2.72894e-05
-4.33648e-06
-2.12335e-05
-9.54905e-06
-1.59621e-05
-1.48255e-05
-5.39462e-06
3.48738e-05
-1.05344e-05
3.69246e-05
-1.53587e-05
3.73699e-05
-1.98672e-05
3.72074e-05
-2.40572e-05
3.65195e-05
-2.79224e-05
3.53393e-05
-3.14527e-05
3.37162e-05
-3.46339e-05
3.17133e-05
-3.74468e-05
2.94006e-05
-3.98653e-05
2.68502e-05
-4.18552e-05
2.41309e-05
-4.33719e-05
2.1304e-05
-4.43588e-05
1.84182e-05
-4.47473e-05
1.5504e-05
-4.44589e-05
1.25674e-05
-4.3411e-05
9.58335e-06
-4.15282e-05
6.48934e-06
-3.87595e-05
3.18236e-06
-3.50971e-05
-4.79442e-07
-3.05932e-05
-4.66736e-06
-2.53672e-05
-9.56247e-06
-1.95945e-05
-1.53218e-05
-2.20718e-05
-1.34849e-05
-5.21671e-06
4.00904e-05
-1.01742e-05
4.1882e-05
-1.48105e-05
4.20062e-05
-1.91257e-05
4.15225e-05
-2.3118e-05
4.05117e-05
-2.67821e-05
3.90034e-05
-3.01095e-05
3.70436e-05
-3.30873e-05
3.4691e-05
-3.56973e-05
3.20106e-05
-3.79148e-05
2.90678e-05
-3.9707e-05
2.59231e-05
-4.10312e-05
2.26282e-05
-4.1834e-05
1.9221e-05
-4.20523e-05
1.57223e-05
-4.16161e-05
1.21312e-05
-4.04551e-05
8.42239e-06
-3.85099e-05
4.54423e-06
-3.57468e-05
4.19271e-07
-3.21714e-05
-4.05489e-06
-2.78389e-05
-8.99982e-06
-2.28542e-05
-1.45472e-05
-1.73652e-05
-2.08109e-05
-2.78918e-05
-1.15452e-05
-4.96756e-06
4.50579e-05
-9.66958e-06
4.65839e-05
-1.40448e-05
4.63813e-05
-1.80946e-05
4.55722e-05
-2.18191e-05
4.42362e-05
-2.52154e-05
4.23996e-05
-2.82766e-05
4.01048e-05
-3.09917e-05
3.74062e-05
-3.33445e-05
3.43634e-05
-3.53116e-05
3.1035e-05
-3.6862e-05
2.74734e-05
-3.79551e-05
2.37214e-05
-3.85419e-05
1.98078e-05
-3.85657e-05
1.57461e-05
-3.79662e-05
1.15318e-05
-3.66866e-05
7.14281e-06
-3.46833e-05
2.54099e-06
-3.19368e-05
-2.32722e-06
-2.84607e-05
-7.53093e-06
-2.4305e-05
-1.31555e-05
-1.95572e-05
-1.9295e-05
-1.43409e-05
-2.60273e-05
-3.34324e-05
-8.80026e-06
-4.64009e-06
4.9698e-05
-9.00665e-06
5.09504e-05
-1.30409e-05
5.04155e-05
-1.67465e-05
4.92778e-05
-2.01264e-05
4.76162e-05
-2.31805e-05
4.54537e-05
-2.59049e-05
4.28291e-05
-2.82911e-05
3.97924e-05
-3.0325e-05
3.63974e-05
-3.19856e-05
3.26956e-05
-3.32441e-05
2.87319e-05
-3.40635e-05
2.45408e-05
-3.43998e-05
2.01441e-05
-3.42041e-05
1.55504e-05
-3.3427e-05
1.07547e-05
-3.20249e-05
5.7408e-06
-2.99683e-05
4.8441e-07
-2.72474e-05
-5.04806e-06
-2.38777e-05
-1.09006e-05
-1.98999e-05
-1.71333e-05
-1.53855e-05
-2.38094e-05
-1.04367e-05
-3.09761e-05
-3.86923e-05
-5.17681e-06
-4.22586e-06
5.39238e-05
-8.16906e-06
5.48936e-05
-1.17749e-05
5.40213e-05
-1.50502e-05
5.2553e-05
-1.80014e-05
5.05674e-05
-2.06324e-05
4.80847e-05
-2.2943e-05
4.51397e-05
-2.49282e-05
4.17777e-05
-2.65773e-05
3.80464e-05
-2.78722e-05
3.39906e-05
-2.87877e-05
2.96474e-05
-2.92915e-05
2.50445e-05
-2.93458e-05
2.01985e-05
-2.89107e-05
1.51154e-05
-2.79479e-05
9.79194e-06
-2.6426e-05
4.21899e-06
-2.43261e-05
-1.61541e-06
-2.1645e-05
-7.72912e-06
-1.83948e-05
-1.41507e-05
-1.46069e-05
-2.09212e-05
-1.03375e-05
-2.80788e-05
-5.67087e-06
-3.56427e-05
-4.36474e-05
-7.15764e-07
-3.71508e-06
5.76388e-05
-7.13851e-06
5.8317e-05
-1.02207e-05
5.71035e-05
-1.2972e-05
5.53043e-05
-1.54037e-05
5.29992e-05
-1.75246e-05
5.02055e-05
-1.93394e-05
4.69545e-05
-2.08481e-05
4.32864e-05
-2.20445e-05
3.92428e-05
-2.2915e-05
3.48611e-05
-2.34392e-05
3.01716e-05
-2.35904e-05
2.51958e-05
-2.33383e-05
1.99465e-05
-2.26521e-05
1.44292e-05
-2.1504e-05
8.64384e-06
-1.98735e-05
2.58861e-06
-1.775e-05
-3.73892e-06
-1.51332e-05
-1.03458e-05
-1.20308e-05
-1.72529e-05
-8.46518e-06
-2.44868e-05
-4.4788e-06
-3.20651e-05
-1.38772e-07
-3.99827e-05
-4.82427e-05
4.45649e-06
-3.09624e-06
6.07351e-05
-5.89495e-06
6.11157e-05
-8.35033e-06
5.95588e-05
-1.0477e-05
5.74309e-05
-1.2292e-05
5.48143e-05
-1.38107e-05
5.17242e-05
-1.50443e-05
4.81882e-05
-1.59994e-05
4.42415e-05
-1.66758e-05
3.99192e-05
-1.70662e-05
3.52515e-05
-1.7156e-05
3.02615e-05
-1.69252e-05
2.49651e-05
-1.63511e-05
1.93725e-05
-1.54114e-05
1.34896e-05
-1.40881e-05
7.32058e-06
-1.23704e-05
8.70921e-07
-1.02541e-05
-5.85517e-06
-7.74084e-06
-1.2859e-05
-4.83506e-06
-2.01586e-05
-1.55053e-06
-2.77712e-05
2.08491e-06
-3.57005e-05
6.01929e-06
-4.39171e-05
-5.23904e-05
1.01669e-05
-2.35446e-06
6.30895e-05
-4.41663e-06
6.31778e-05
-6.13512e-06
6.12773e-05
-7.52983e-06
5.88256e-05
-8.6257e-06
5.59102e-05
-9.44595e-06
5.25445e-05
-1.00106e-05
4.87529e-05
-1.03345e-05
4.45655e-05
-1.0426e-05
4.00107e-05
-1.02853e-05
3.51108e-05
-9.90475e-06
2.9881e-05
-9.27108e-06
2.43315e-05
-8.36849e-06
1.84699e-05
-7.18255e-06
1.23036e-05
-5.70382e-06
5.84183e-06
-3.93002e-06
-9.02878e-07
-1.86397e-06
-7.92117e-06
4.9075e-07
-1.52137e-05
3.131e-06
-2.27988e-05
6.05096e-06
-3.06911e-05
9.2365e-06
-3.88861e-05
1.26532e-05
-4.73338e-05
-5.59686e-05
1.62314e-05
-1.46705e-06
6.45566e-05
-2.68016e-06
6.43909e-05
-3.5461e-06
6.21433e-05
-4.09636e-06
5.9376e-05
-4.36618e-06
5.61801e-05
-4.38886e-06
5.25673e-05
-4.19502e-06
4.8559e-05
-3.81072e-06
4.41811e-05
-3.2549e-06
3.94548e-05
-2.53721e-06
3.43931e-05
-1.65766e-06
2.90015e-05
-6.08911e-07
2.32829e-05
6.1936e-07
1.72417e-05
2.03534e-06
1.08876e-05
3.64102e-06
4.23612e-06
5.43089e-06
-2.69274e-06
7.3942e-06
-9.88443e-06
9.52279e-06
-1.73422e-05
1.18121e-05
-2.50881e-05
1.42619e-05
-3.3141e-05
1.68718e-05
-4.14959e-05
1.96251e-05
-5.00871e-05
-5.88116e-05
2.2468e-05
-4.08116e-07
6.49647e-05
-6.62304e-07
6.46451e-05
-5.55281e-07
6.20363e-05
-1.45869e-07
5.89666e-05
5.19679e-07
5.55147e-05
1.39626e-06
5.16907e-05
2.43992e-06
4.75153e-05
3.61022e-06
4.30108e-05
4.87397e-06
3.81911e-05
6.20967e-06
3.30574e-05
7.60954e-06
2.76017e-05
9.07686e-06
2.18156e-05
1.06197e-05
1.56988e-05
1.22434e-05
9.26391e-06
1.39442e-05
2.53539e-06
1.57077e-05
-4.45628e-06
1.75126e-05
-1.16892e-05
1.93398e-05
-1.91695e-05
2.11781e-05
-2.69263e-05
2.30294e-05
-3.49923e-05
2.49048e-05
-4.33713e-05
2.6806e-05
-5.19883e-05
-6.07037e-05
2.86982e-05
9.31205e-07
6.40335e-05
1.6861e-06
6.38903e-05
2.86555e-06
6.0857e-05
4.34684e-06
5.74854e-05
6.05852e-06
5.3803e-05
7.93991e-06
4.98093e-05
9.93056e-06
4.55246e-05
1.19704e-05
4.0971e-05
1.4006e-05
3.61555e-05
1.60002e-05
3.10632e-05
1.79376e-05
2.56644e-05
1.98208e-05
1.99323e-05
2.16607e-05
1.38589e-05
2.34638e-05
7.46088e-06
2.52223e-05
7.76921e-07
2.69118e-05
-6.14582e-06
2.84954e-05
-1.32728e-05
2.99349e-05
-2.06089e-05
3.12041e-05
-2.81955e-05
3.23024e-05
-3.60907e-05
3.32517e-05
-4.43205e-05
3.40732e-05
-5.28098e-05
-6.13842e-05
3.47537e-05
2.54655e-06
6.14869e-05
4.39596e-06
6.2041e-05
6.74408e-06
5.85089e-05
9.40562e-06
5.4824e-05
1.22764e-05
5.09322e-05
1.52765e-05
4.68092e-05
1.83228e-05
4.24783e-05
2.13265e-05
3.79673e-05
2.42036e-05
3.32785e-05
2.68945e-05
2.83723e-05
2.93763e-05
2.31826e-05
3.16577e-05
1.76509e-05
3.37608e-05
1.17557e-05
3.57006e-05
5.52109e-06
3.74691e-05
-9.91476e-07
3.90298e-05
-7.70654e-06
4.03228e-05
-1.45659e-05
4.12782e-05
-2.15644e-05
4.18443e-05
-2.87616e-05
4.2013e-05
-3.62594e-05
4.18185e-05
-4.4126e-05
4.13045e-05
-5.22958e-05
-6.05604e-05
4.04808e-05
4.3155e-06
5.71715e-05
7.48702e-06
5.88696e-05
1.11093e-05
5.48868e-05
1.50544e-05
5.08789e-05
1.91985e-05
4.67881e-05
2.34403e-05
4.25675e-05
2.76658e-05
3.82527e-05
3.1742e-05
3.38911e-05
3.55354e-05
2.94851e-05
3.89521e-05
2.49556e-05
4.19634e-05
2.01713e-05
4.45959e-05
1.50184e-05
4.68985e-05
9.4531e-06
4.89067e-05
3.5129e-06
5.06185e-05
-2.70321e-06
5.19848e-05
-9.07287e-06
5.29125e-05
-1.54936e-05
5.32821e-05
-2.1934e-05
5.29998e-05
-2.84794e-05
5.20471e-05
-3.53068e-05
5.04781e-05
-4.25569e-05
4.8365e-05
-5.01827e-05
-5.79361e-05
4.57408e-05
6.24053e-06
5.0931e-05
1.09644e-05
5.41458e-05
1.59768e-05
4.98744e-05
2.13054e-05
4.55503e-05
2.68378e-05
4.12557e-05
3.24553e-05
3.695e-05
3.8003e-05
3.2705e-05
4.32786e-05
2.86155e-05
4.80653e-05
2.46984e-05
5.22142e-05
2.08066e-05
5.56955e-05
1.669e-05
5.85772e-05
1.21366e-05
6.0962e-05
7.06841e-06
6.29252e-05
1.54971e-06
6.44816e-05
-4.25962e-06
6.55714e-05
-1.01627e-05
6.60569e-05
-1.59792e-05
6.57413e-05
-2.16185e-05
6.44634e-05
-2.72015e-05
6.21947e-05
-3.3038e-05
5.903e-05
-3.93922e-05
5.50831e-05
-4.62358e-05
-5.32584e-05
5.04053e-05
8.27864e-06
4.26524e-05
1.48098e-05
4.76147e-05
2.13388e-05
4.33456e-05
2.81457e-05
3.87434e-05
3.51794e-05
3.4222e-05
4.23173e-05
2.98121e-05
4.93537e-05
2.56685e-05
5.59784e-05
2.19908e-05
6.18293e-05
1.88475e-05
6.66665e-05
1.59694e-05
7.04733e-05
1.28832e-05
7.34049e-05
9.20504e-06
7.56636e-05
4.80965e-06
7.73945e-05
-1.81186e-07
7.86446e-05
-5.50968e-06
7.93502e-05
-1.08684e-05
7.93219e-05
-1.5951e-05
7.82414e-05
-2.0538e-05
7.58366e-05
-2.47967e-05
7.20783e-05
-2.92798e-05
6.71475e-05
-3.44613e-05
6.12199e-05
-4.03083e-05
-4.63904e-05
5.43519e-05
1.03585e-05
3.2294e-05
1.89584e-05
3.90149e-05
2.71401e-05
3.51638e-05
3.55103e-05
3.03733e-05
4.41478e-05
2.55845e-05
5.29535e-05
2.10065e-05
6.16696e-05
1.69524e-05
6.98206e-05
1.38399e-05
7.67813e-05
1.18868e-05
8.21602e-05
1.05904e-05
8.59931e-05
9.05029e-06
8.86113e-05
6.58691e-06
9.03948e-05
3.02612e-06
9.15954e-05
-1.38182e-06
9.231e-05
-6.22425e-06
9.24878e-05
-1.10463e-05
9.18995e-05
-1.53626e-05
9.00315e-05
-1.867e-05
8.6424e-05
-2.11892e-05
8.10734e-05
-2.39292e-05
7.4328e-05
-2.77158e-05
6.64473e-05
-3.24277e-05
-3.74107e-05
5.74676e-05
1.23513e-05
1.99427e-05
2.32523e-05
2.81138e-05
3.32275e-05
2.51886e-05
4.32237e-05
2.0377e-05
5.35302e-05
1.5278e-05
6.41221e-05
1.04145e-05
7.47246e-05
6.34994e-06
8.46147e-05
3.94976e-06
9.26655e-05
3.83592e-06
9.82375e-05
5.01833e-06
0.000101527
5.76065e-06
0.000103214
4.89976e-06
0.000103981
2.25941e-06
0.000104222
-1.62299e-06
0.000104073
-6.07489e-06
0.000103538
-1.05114e-05
0.000102419
-1.42442e-05
9.98859e-05
-1.61366e-05
9.51344e-05
-1.64377e-05
8.8243e-05
-1.70377e-05
7.98959e-05
-1.93686e-05
7.04025e-05
-2.29343e-05
-2.67069e-05
5.96986e-05
1.40319e-05
5.91081e-06
2.73644e-05
1.47813e-05
3.92508e-05
1.33022e-05
5.08719e-05
8.75598e-06
6.27973e-05
3.35256e-06
7.51706e-05
-1.95873e-06
8.78436e-05
-6.323e-06
9.97394e-05
-7.94612e-06
0.000108697
-5.12158e-06
0.000113731
-1.54148e-08
0.000115479
4.01189e-06
0.000115291
5.08818e-06
0.000114325
3.22522e-06
0.000113082
-3.80295e-07
0.000111664
-4.65703e-06
0.000110192
-9.03923e-06
0.000108749
-1.28009e-05
0.000106021
-1.3409e-05
0.000100489
-1.09056e-05
9.24215e-05
-8.9698e-06
8.31815e-05
-1.01287e-05
7.29488e-05
-1.27015e-05
-1.50669e-05
6.13088e-05
1.50622e-05
-9.15147e-06
3.07212e-05
-8.77749e-07
4.45157e-05
-4.92257e-07
5.75532e-05
-4.28156e-06
7.07046e-05
-9.79886e-06
8.44538e-05
-1.57079e-05
9.91756e-05
-2.10448e-05
0.000113353
-2.21237e-05
0.00012259
-1.4358e-05
0.000125777
-3.20285e-06
0.00012455
5.23896e-06
0.000121375
8.2635e-06
0.000118087
6.51315e-06
0.00011503
2.67591e-06
0.000111997
-1.6236e-06
0.000109285
-6.32726e-06
0.000108029
-1.1545e-05
0.000106173
-1.15534e-05
0.000100826
-5.55811e-06
9.26393e-05
-7.83154e-07
8.42688e-05
-1.75827e-06
7.50328e-05
-3.46557e-06
-3.39965e-06
6.33656e-05
1.51783e-05
-2.43298e-05
3.26213e-05
-1.83208e-05
4.78703e-05
-1.57413e-05
6.13501e-05
-1.77613e-05
7.41846e-05
-2.26334e-05
8.76737e-05
-2.9197e-05
0.000103756
-3.71274e-05
0.000120181
-3.85488e-05
0.000128085
-2.22613e-05
0.00012759
-2.70834e-06
0.000122569
1.02602e-05
0.000116465
1.43677e-05
0.000111349
1.16288e-05
0.000106977
7.04752e-06
0.000102411
2.94238e-06
9.77993e-05
-1.7154e-06
9.79309e-05
-1.16766e-05
9.79307e-05
-1.15531e-05
9.48539e-05
-2.48126e-06
9.05717e-05
3.49905e-06
8.64458e-05
2.36757e-06
7.85725e-05
4.40761e-06
8.56397e-06
6.66089e-05
1.64712e-05
-4.08011e-05
3.34363e-05
-3.52859e-05
4.75114e-05
-2.98164e-05
5.79998e-05
-2.82498e-05
6.67175e-05
-3.13511e-05
7.62039e-05
-3.86834e-05
9.24705e-05
-5.3394e-05