/*--------------------------------*- C++ -*----------------------------------*\
  =========                 |
  \\      /  F ield         | OpenFOAM: The Open Source CFD Toolbox
   \\    /   O peration     | Website:  https://openfoam.org
    \\  /    A nd           | Version:  9
     \\/     M anipulation  |
\*---------------------------------------------------------------------------*/
FoamFile
{
    format      ascii;
    class       surfaceScalarField;
    location    "0.95";
    object      phi;
}
// * * * * * * * * * * * * * * * * * * * * * * * * * * * * * * * * * * * * * //

dimensions      [0 3 -1 0 0 0 0];

internalField   nonuniform List<scalar> 
4432
(
-9.97383e-07
9.97383e-07
-4.02764e-06
3.03026e-06
-7.34977e-06
3.32212e-06
-1.06295e-05
3.27971e-06
-1.38127e-05
3.1832e-06
-1.68223e-05
3.00958e-06
-1.95701e-05
2.74783e-06
-2.19691e-05
2.39899e-06
-2.39326e-05
1.96352e-06
-2.53627e-05
1.43013e-06
-2.614e-05
7.77296e-07
-2.61361e-05
-3.84586e-09
-2.53379e-05
-7.98279e-07
-2.38652e-05
-1.47268e-06
-2.1846e-05
-2.0192e-06
-1.92297e-05
-2.61631e-06
-1.58246e-05
-3.40508e-06
-1.14545e-05
-4.37005e-06
-6.12922e-06
-5.3253e-06
-4.03705e-07
-5.72553e-06
4.30211e-06
-4.70582e-06
5.26066e-06
-9.58553e-07
5.26066e-06
-2.64535e-06
3.64272e-06
-6.0846e-06
6.4695e-06
-9.64727e-06
6.88479e-06
-1.31013e-05
6.73378e-06
-1.63549e-05
6.43674e-06
-1.93028e-05
5.95753e-06
-2.18594e-05
5.30446e-06
-2.39542e-05
4.4938e-06
-2.55177e-05
3.52696e-06
-2.64781e-05
2.39063e-06
-2.67918e-05
1.09098e-06
-2.64947e-05
-3.00922e-07
-2.56422e-05
-1.65083e-06
-2.42617e-05
-2.85314e-06
-2.23378e-05
-3.9431e-06
-1.98306e-05
-5.12354e-06
-1.66707e-05
-6.56494e-06
-1.27808e-05
-8.26001e-06
-8.23756e-06
-9.86852e-06
-3.42885e-06
-1.05342e-05
7.41619e-07
-8.87628e-06
2.88371e-06
-3.10066e-06
8.14437e-06
-3.40619e-06
7.04891e-06
-6.75625e-06
9.81956e-06
-1.01904e-05
1.03189e-05
-1.35357e-05
1.00792e-05
-1.66623e-05
9.56332e-06
-1.94766e-05
8.77186e-06
-2.19086e-05
7.73638e-06
-2.3901e-05
6.4862e-06
-2.53953e-05
5.02128e-06
-2.63306e-05
3.32595e-06
-2.66664e-05
1.42681e-06
-2.64076e-05
-5.59741e-07
-2.55944e-05
-2.46405e-06
-2.42672e-05
-4.18034e-06
-2.24311e-05
-5.77922e-06
-2.00659e-05
-7.48867e-06
-1.71465e-05
-9.48437e-06
-1.36643e-05
-1.17422e-05
-9.70398e-06
-1.38289e-05
-5.5483e-06
-1.46899e-05
-1.72499e-06
-1.26996e-05
8.15071e-07
-5.64072e-06
8.95944e-06
-3.74937e-06
1.07983e-05
-7.10273e-06
1.31729e-05
-1.04692e-05
1.36854e-05
-1.37354e-05
1.33454e-05
-1.67727e-05
1.26006e-05
-1.94998e-05
1.1499e-05
-2.18583e-05
1.00949e-05
-2.37995e-05
8.42737e-06
-2.52703e-05
6.49211e-06
-2.62109e-05
4.26655e-06
-2.65734e-05
1.78927e-06
-2.63478e-05
-7.85275e-07
-2.55667e-05
-3.24522e-06
-2.42799e-05
-5.46709e-06
-2.25074e-05
-7.55176e-06
-2.02483e-05
-9.74772e-06
-1.75255e-05
-1.22072e-05
-1.43779e-05
-1.48898e-05
-1.0882e-05
-1.73248e-05
-7.22099e-06
-1.83509e-05
-3.70006e-06
-1.62205e-05
-8.30207e-07
-8.51057e-06
8.12923e-06
-3.91159e-06
1.47099e-05
-7.31982e-06
1.65812e-05
-1.06595e-05
1.70251e-05
-1.387e-05
1.65559e-05
-1.68413e-05
1.55719e-05
-1.95051e-05
1.41628e-05
-2.18137e-05
1.24035e-05
-2.37269e-05
1.03405e-05
-2.51959e-05
7.96113e-06
-2.61576e-05
5.22833e-06
-2.65528e-05
2.1844e-06
-2.63585e-05
-9.79574e-07
-2.56019e-05
-4.00179e-06
-2.43414e-05
-6.72765e-06
-2.26041e-05
-9.28899e-06
-2.04029e-05
-1.1949e-05
-1.7814e-05
-1.47961e-05
-1.49316e-05
-1.77722e-05
-1.18234e-05
-2.0433e-05
-8.57812e-06
-2.15962e-05
-5.32342e-06
-1.94752e-05
-2.23501e-06
-1.1599e-05
5.89422e-06
-3.99499e-06
1.87049e-05
-7.45935e-06
2.00455e-05
-1.07841e-05
2.03499e-05
-1.39516e-05
1.97234e-05
-1.68725e-05
1.84928e-05
-1.94908e-05
1.67811e-05
-2.17695e-05
1.46822e-05
-2.36771e-05
1.22481e-05
-2.51679e-05
9.45198e-06
-2.61719e-05
6.23231e-06
-2.66136e-05
2.62611e-06
-2.64559e-05
-1.13733e-06
-2.57212e-05
-4.73644e-06
-2.44748e-05
-7.97404e-06
-2.27392e-05
-1.10246e-05
-2.05303e-05
-1.41578e-05
-1.79967e-05
-1.73296e-05
-1.5317e-05
-2.04519e-05
-1.25603e-05
-2.31897e-05
-9.70696e-06
-2.44495e-05
-6.6966e-06
-2.24856e-05
-3.43095e-06
-1.48646e-05
2.46326e-06
-4.0397e-06
2.27446e-05
-7.53373e-06
2.35396e-05
-1.08372e-05
2.36534e-05
-1.3966e-05
2.28522e-05
-1.68473e-05
2.13741e-05
-1.94361e-05
1.93699e-05
-2.17055e-05
1.69516e-05
-2.36328e-05
1.41754e-05
-2.51743e-05
1.09935e-05
-2.62489e-05
7.30691e-06
-2.67603e-05
3.13747e-06
-2.6655e-05
-1.24264e-06
-2.59488e-05
-5.44264e-06
-2.47119e-05
-9.21099e-06
-2.29457e-05
-1.27908e-05
-2.0653e-05
-1.64505e-05
-1.80787e-05
-1.9904e-05
-1.55427e-05
-2.29879e-05
-1.31394e-05
-2.5593e-05
-1.07007e-05
-2.68882e-05
-7.90392e-06
-2.52824e-05
-4.35174e-06
-1.84168e-05
-1.88847e-06
-4.04247e-06
2.6787e-05
-7.53276e-06
2.70299e-05
-1.08006e-05
2.69212e-05
-1.38884e-05
2.59399e-05
-1.67377e-05
2.42234e-05
-1.93125e-05
2.19446e-05
-2.15949e-05
1.92341e-05
-2.35711e-05
1.61515e-05
-2.51988e-05
1.26212e-05
-2.63828e-05
8.49085e-06
-2.69998e-05
3.75446e-06
-2.69801e-05
-1.26227e-06
-2.63246e-05
-6.09816e-06
-2.5113e-05
-1.04226e-05
-2.33077e-05
-1.45961e-05
-2.08566e-05
-1.89016e-05
-1.81125e-05
-2.26481e-05
-1.56408e-05
-2.54597e-05
-1.36186e-05
-2.76152e-05
-1.16622e-05
-2.88446e-05
-9.03661e-06
-2.79079e-05
-4.90448e-06
-2.25489e-05
-6.79296e-06
5.86299e-06
-5.86299e-06
-1.54568e-05
2.13198e-05
-4.19127e-05
2.64559e-05
-6.30493e-05
2.11366e-05
-7.08961e-05
7.84686e-06
-6.47405e-05
-6.15561e-06
-4.93277e-05
-1.54128e-05
-3.13075e-05
-1.80202e-05
-1.92912e-05
-1.20163e-05
-1.60972e-05
-3.19406e-06
-1.87674e-05
2.67017e-06
-2.15325e-05
2.76509e-06
-2.13489e-05
-1.8352e-07
-1.78984e-05
-3.45052e-06
-1.24107e-05
-5.4877e-06
-6.06392e-06
-6.3468e-06
1.56586e-07
-6.22051e-06
4.24358e-06
-4.08699e-06
4.24355e-06
-1.15663e-05
5.70334e-06
-3.5474e-05
4.52274e-05
-5.81818e-05
4.91637e-05
-6.96835e-05
3.26382e-05
-7.03689e-05
8.53231e-06
-6.36469e-05
-1.28776e-05
-5.12102e-05
-2.78496e-05
-3.68445e-05
-3.23859e-05
-2.6583e-05
-2.22778e-05
-2.24724e-05
-7.30459e-06
-2.27989e-05
2.99663e-06
-2.32007e-05
3.16692e-06
-2.161e-05
-1.77426e-06
-1.82352e-05
-6.82533e-06
-1.39167e-05
-9.80618e-06
-9.4511e-06
-1.08124e-05
-4.68101e-06
-1.09906e-05
1.6397e-07
-8.93192e-06
4.40749e-06
-2.10181e-05
2.67214e-05
-4.2039e-05
6.62484e-05
-5.76096e-05
6.47343e-05
-6.5181e-05
4.02096e-05
-6.61328e-05
9.48416e-06
-6.09733e-05
-1.80371e-05
-5.10148e-05
-3.78081e-05
-3.92326e-05
-4.41681e-05
-2.97153e-05
-3.1795e-05
-2.48624e-05
-1.21575e-05
-2.38037e-05
1.93797e-06
-2.30994e-05
2.46261e-06
-2.10058e-05
-3.86778e-06
-1.78002e-05
-1.0031e-05
-1.42218e-05
-1.33846e-05
-1.10053e-05
-1.40289e-05
-7.99546e-06
-1.40005e-05
-4.52058e-06
-1.24068e-05
-1.13106e-07
-2.47161e-05
5.14375e-05
-4.20569e-05
8.35892e-05
-5.33004e-05
7.59778e-05
-5.97385e-05
4.66477e-05
-6.15186e-05
1.12643e-05
-5.76275e-05
-2.19282e-05
-5.01785e-05
-4.52571e-05
-4.03788e-05
-5.39679e-05
-3.03641e-05
-4.18097e-05
-2.4903e-05
-1.76186e-05
-2.33447e-05
3.79628e-07
-2.2119e-05
1.23699e-06
-1.98711e-05
-6.11571e-06
-1.6846e-05
-1.30561e-05
-1.37506e-05
-1.648e-05
-1.13665e-05
-1.6413e-05
-9.77618e-06
-1.55908e-05
-7.49149e-06
-1.46914e-05
-7.60461e-06
-2.51925e-05
7.663e-05
-3.9016e-05
9.74127e-05
-4.74835e-05
8.44454e-05
-5.40417e-05
5.32058e-05
-5.65777e-05
1.38004e-05
-5.36896e-05
-2.48164e-05
-4.84053e-05
-5.05414e-05
-4.01324e-05
-6.22408e-05
-2.8163e-05
-5.37791e-05
-2.19935e-05
-2.37881e-05
-2.13452e-05
-2.68682e-07
-2.01924e-05
8.41207e-08
-1.81857e-05
-8.12236e-06
-1.54289e-05
-1.58129e-05
-1.26306e-05
-1.92782e-05
-1.05621e-05
-1.84815e-05
-9.61253e-06
-1.65404e-05
-8.51196e-06
-1.5792e-05
-1.61166e-05
-2.4229e-05
0.000100859
-3.45077e-05
0.000107691
-4.06134e-05
9.05511e-05
-4.78058e-05
6.03982e-05
-5.05199e-05
1.65144e-05
-4.85786e-05
-2.67576e-05
-4.45379e-05
-5.45821e-05
-3.68532e-05
-6.99255e-05
-2.42933e-05
-6.6339e-05
-1.55591e-05
-3.25224e-05
-1.76929e-05
1.86512e-06
-1.74278e-05
-1.80995e-07
-1.59189e-05
-9.63128e-06
-1.35939e-05
-1.81379e-05
-1.07385e-05
-2.21337e-05
-7.94235e-06
-2.12777e-05
-6.39502e-06
-1.80878e-05
-6.27849e-06
-1.59085e-05
-2.23951e-05
-2.30276e-05
0.000123887
-2.9706e-05
0.00011437
-3.30671e-05
9.39122e-05
-4.07994e-05
6.81305e-05
-4.34736e-05
1.91887e-05
-4.22358e-05
-2.79954e-05
-3.90864e-05
-5.77316e-05
-3.29518e-05
-7.606e-05
-2.28283e-05
-7.64625e-05
-9.34206e-06
-4.60086e-05
-1.14089e-05
3.93197e-06
-1.31834e-05
1.59352e-06
-1.25969e-05
-1.02178e-05
-1.03656e-05
-2.03692e-05
-6.27463e-06
-2.62246e-05
-7.00265e-07
-2.68521e-05
2.77461e-06
-2.15627e-05
1.96276e-06
-1.50967e-05
-2.04323e-05
-2.25874e-05
0.000146474
-2.60601e-05
0.000117842
-2.87428e-05
9.65949e-05
-3.4354e-05
7.37417e-05
-3.58331e-05
2.06678e-05
-3.4914e-05
-2.89145e-05
-3.29871e-05
-5.96584e-05
-2.87247e-05
-8.03224e-05
-2.08377e-05
-8.43496e-05
-5.37294e-06
-6.14733e-05
-7.92138e-07
-6.48826e-07
-5.67449e-06
6.47587e-06
-6.40653e-06
-9.48574e-06
-2.88532e-06
-2.38904e-05
3.81029e-06
-3.29202e-05
1.12425e-05
-3.42842e-05
1.52575e-05
-2.55777e-05
1.21697e-05
-1.20088e-05
-8.26264e-06
-8.27654e-06
3.50636e-05
-1.56647e-05
3.4418e-05
-2.2489e-05
3.37455e-05
-2.89016e-05
3.23525e-05
-3.48771e-05
3.01989e-05
-4.03622e-05
2.74297e-05
-4.5343e-05
2.42149e-05
-4.98234e-05
2.06319e-05
-5.37276e-05
1.65254e-05
-5.68059e-05
1.15691e-05
-5.86751e-05
5.62363e-06
-5.91649e-05
-7.72415e-07
-5.8138e-05
-7.12512e-06
-5.58735e-05
-1.26871e-05
-5.20769e-05
-1.83927e-05
-4.62393e-05
-2.47392e-05
-3.92101e-05
-2.96773e-05
-3.35394e-05
-3.11303e-05
-3.06172e-05
-3.05374e-05
-2.89308e-05
-3.05311e-05
-2.45813e-05
-3.22574e-05
-1.44516e-05
-3.26787e-05
-2.14024e-05
1.57817e-07
-7.24043e-06
4.2304e-05
-1.4119e-05
4.12966e-05
-2.05831e-05
4.02096e-05
-2.67939e-05
3.85633e-05
-3.27341e-05
3.61391e-05
-3.83813e-05
3.3077e-05
-4.37605e-05
2.95941e-05
-4.8957e-05
2.58283e-05
-5.39896e-05
2.1558e-05
-5.86016e-05
1.61812e-05
-6.23295e-05
9.35155e-06
-6.45608e-05
1.45885e-06
-6.52698e-05
-6.4161e-06
-6.47219e-05
-1.3235e-05
-6.23814e-05
-2.07332e-05
-5.5151e-05
-3.19696e-05
-4.41187e-05
-4.07096e-05
-3.63631e-05
-3.88859e-05
-3.5849e-05
-3.10515e-05
-4.08334e-05
-2.55466e-05
-4.38485e-05
-2.92423e-05
-4.38839e-05
-3.26432e-05
-1.4601e-05
-5.06852e-05
-4.95477e-06
4.72588e-05
-1.08028e-05
4.71446e-05
-1.66788e-05
4.60856e-05
-2.26851e-05
4.45696e-05
-2.87444e-05
4.21984e-05
-3.47777e-05
3.91103e-05
-4.07874e-05
3.56038e-05
-4.69969e-05
3.20379e-05
-5.36588e-05
2.82199e-05
-6.07783e-05
2.33007e-05
-6.8236e-05
1.68093e-05
-7.5385e-05
8.60781e-06
-8.10422e-05
-7.58896e-07
-8.4199e-05
-1.00782e-05
-8.46273e-05
-2.03049e-05
-7.80291e-05
-3.85678e-05
-6.45851e-05
-5.41536e-05
-5.20368e-05
-5.14342e-05
-4.9972e-05
-3.31163e-05
-5.90729e-05
-1.64458e-05
-6.86807e-05
-1.96347e-05
-7.72149e-05
-2.4109e-05
-2.62217e-06
-8.91938e-05
-1.64583e-06
4.89046e-05
-5.54763e-06
5.10464e-05
-1.04649e-05
5.10029e-05
-1.62052e-05
5.03099e-05
-2.25983e-05
4.85914e-05
-2.93352e-05
4.58471e-05
-3.62025e-05
4.24711e-05
-4.3741e-05
3.95765e-05
-5.28711e-05
3.73499e-05
-6.46347e-05
3.50642e-05
-8.09227e-05
3.30974e-05
-0.000102141
2.98264e-05
-0.000122377
1.94765e-05
-0.000135132
2.67719e-06
-0.000134678
-2.07596e-05
-0.000123372
-4.98734e-05
-0.000108422
-6.91036e-05
-8.83682e-05
-7.14879e-05
-7.22025e-05
-4.92821e-05
-6.9771e-05
-1.88773e-05
-7.90998e-05
-1.03059e-05
-8.83451e-05
-1.48637e-05
3.25135e-06
-9.42186e-05
1.36998e-06
4.75347e-05
4.94765e-07
5.19216e-05
-3.54144e-06
5.50391e-05
-9.29088e-06
5.60594e-05
-1.6846e-05
5.61465e-05
-2.50309e-05
5.4032e-05
-3.28477e-05
5.02879e-05
-4.18205e-05
4.85492e-05
-5.61146e-05
5.1644e-05
-8.39997e-05
6.29494e-05
-0.000128575
7.76724e-05
-0.000164596
6.58478e-05
-0.000173217
2.80969e-05
-0.000171646
1.10698e-06
-0.000163587
-2.88191e-05
-0.000153861
-5.95996e-05
-0.000142891
-8.00737e-05
-0.000126741
-8.76378e-05
-0.000100672
-7.53503e-05
-7.90988e-05
-4.04509e-05
-7.6287e-05
-1.31177e-05
-8.30887e-05
-8.06204e-06
3.08626e-06
-8.29236e-05
-6.37179e-06
5.39064e-05
-1.56686e-06
4.71167e-05
-4.50926e-06
5.79816e-05
-1.09873e-05
6.25374e-05
-2.05055e-05
6.56648e-05
-3.25182e-05
6.60446e-05
-4.72529e-05
6.50225e-05
-6.68771e-05
6.81733e-05
-9.41494e-05
7.89162e-05
-0.000128013
9.68132e-05
-0.000156069
0.000105728
-0.000169276
7.90546e-05
-0.00017374
3.25611e-05
-0.000173579
9.45777e-07
-0.000170833
-3.15657e-05
-0.000166168
-6.42644e-05
-0.000159788
-8.64537e-05
-0.000150955
-9.64706e-05
-0.000132246
-9.40591e-05
-0.000102206
-7.04912e-05
-7.89384e-05
-3.63854e-05
-7.53944e-05
-1.1606e-05
-8.45284e-07
-7.14629e-05
-5.23758e-06
5.9144e-05
-1.30863e-05
5.49655e-05
-1.90528e-05
6.39481e-05
-2.66157e-05
7.01002e-05
-3.46242e-05
7.36733e-05
-4.40216e-05
7.54418e-05
-5.68362e-05
7.7837e-05
-7.34541e-05
8.47908e-05
-9.29411e-05
9.84031e-05
-0.000111526
0.000115398
-0.00012427
0.000118471
-0.000134149
8.8934e-05
-0.000145806
4.42181e-05
-0.00015979
1.49299e-05
-0.000168961
-2.23947e-05
-0.000169257
-6.39688e-05
-0.000166969
-8.87414e-05
-0.000162925
-0.000100515
-0.000155474
-0.00010151
-0.000134537
-9.14275e-05
-0.000105165
-6.57579e-05
-7.99955e-05
-3.67753e-05
-1.09403e-05
-6.99004e-05
-7.9859e-06
6.71299e-05
-1.79057e-05
6.48854e-05
-2.55705e-05
7.1613e-05
-3.17481e-05
7.62779e-05
-3.75666e-05
7.94917e-05
-4.44165e-05
8.22915e-05
-5.33138e-05
8.67343e-05
-6.37729e-05
9.52496e-05
-7.3951e-05
0.000108581
-8.11379e-05
0.000122585
-8.69438e-05
0.000124277
-9.97283e-05
0.000101718
-0.000121668
6.61573e-05
-0.000140545
3.3807e-05
-0.000155476
-7.4638e-06
-0.000166901
-5.25433e-05
-0.000167913
-8.77298e-05
-0.000166578
-0.000101849
-0.000163706
-0.000104382
-0.000156823
-9.83108e-05
-0.000138096
-8.44842e-05
-0.000112036
-6.28356e-05
-3.88003e-05
-8.4176e-05
-7.30936e-06
7.44392e-05
-1.64938e-05
7.40697e-05
-2.2667e-05
7.77861e-05
-2.73266e-05
8.09375e-05
-3.1603e-05
8.37678e-05
-3.63616e-05
8.70502e-05
-4.1819e-05
9.21916e-05
-4.71595e-05
0.00010059
-5.08449e-05
0.000112266
-5.18971e-05
0.000123637
-5.36891e-05
0.000126069
-6.38317e-05
0.000111861
-8.32191e-05
8.55444e-05
-0.000104364
5.49516e-05
-0.000127698
1.58704e-05
-0.000148848
-3.13937e-05
-0.000163985
-7.25921e-05
-0.000165187
-0.000100647
-0.00016393
-0.00010564
-0.00016096
-0.000101281
-0.00015457
-9.08738e-05
-0.000140979
-7.64265e-05
-6.13337e-05
-0.000118446
-4.62589e-06
7.90653e-05
-1.11432e-05
8.05871e-05
-1.56722e-05
8.23153e-05
-1.90252e-05
8.42906e-05
-2.19272e-05
8.667e-05
-2.47868e-05
8.99097e-05
-2.74541e-05
9.48587e-05
-2.91335e-05
0.00010227
-2.87454e-05
0.000111878
-2.62067e-05
0.000121098
-2.45733e-05
0.000124436
-2.93309e-05
0.000116618
-4.20199e-05
9.82333e-05
-5.95632e-05
7.2495e-05
-8.27289e-05
3.90362e-05
-0.000113075
-1.04751e-06
-0.000141197
-4.44709e-05
-0.000159321
-8.25229e-05
-0.0001602
-0.000104761
-0.000158387
-0.000103093
-0.000153795
-9.54663e-05
-0.00014683
-8.3391e-05
-7.20341e-05
-0.00013613
-1.9513e-06
8.10165e-05
-5.53742e-06
8.41732e-05
-8.20196e-06
8.49799e-05
-1.01275e-05
8.62158e-05
-1.15958e-05
8.81385e-05
-1.26967e-05
9.10104e-05
-1.31452e-05
9.5307e-05
-1.2265e-05
0.000101389
-9.32724e-06
0.00010894
-4.43922e-06
0.00011621
2.208e-07
0.000119776
8.04531e-07
0.000116034
-4.84555e-06
0.000103883
-1.64611e-05
8.41104e-05
-3.45642e-05
5.71392e-05
-6.01677e-05
2.4556e-05
-9.37194e-05
-1.09192e-05
-0.000128212
-4.80299e-05
-0.000150709
-8.22648e-05
-0.00015423
-9.9572e-05
-0.000148283
-0.000101413
-0.000141537
-9.01371e-05
-8.15912e-05
-0.00013198
1.20128e-07
8.08964e-05
-1.0676e-06
8.53611e-05
-1.85816e-06
8.57706e-05
-2.23783e-06
8.65955e-05
-2.22275e-06
8.81235e-05
-1.71502e-06
9.05026e-05
-3.83975e-07
9.39758e-05
2.30986e-06
9.86956e-05
6.8942e-06
0.000104356
1.32908e-05
0.000109813
2.01284e-05
0.000112938
2.48439e-05
0.000111318
2.52002e-05
0.000103526
2.00355e-05
8.9275e-05
8.44445e-06
6.87303e-05
-1.00576e-05
4.3058e-05
-3.52674e-05
1.42903e-05
-6.75197e-05
-1.57777e-05
-0.000105072
-4.47126e-05
-0.000133605
-7.10391e-05
-0.000144023
-9.09951e-05
-0.000136021
-9.81391e-05
-9.08412e-05
-0.000126771
1.50239e-06
7.9394e-05
2.1268e-06
8.47369e-05
2.96191e-06
8.49354e-05
4.04205e-06
8.55155e-05
5.45541e-06
8.671e-05
7.37347e-06
8.85846e-05
1.01111e-05
9.12384e-05
1.41049e-05
9.47015e-05
1.97369e-05
9.87233e-05
2.69984e-05
0.000102552
3.50769e-05
0.000104859
4.23296e-05
0.000104065
4.69129e-05
9.89432e-05
4.72962e-05
8.88917e-05
4.22022e-05
7.38242e-05
3.09141e-05
5.43458e-05
1.34633e-05
3.17408e-05
-9.79571e-06
7.48136e-06
-3.75296e-05
-1.69789e-05
-6.79427e-05
-4.0626e-05
-9.90733e-05
-5.98646e-05
-0.000122627
-7.45854e-05
-8.70165e-05
-0.000126452
2.35849e-06
7.70355e-05
4.29308e-06
8.28022e-05
6.38261e-06
8.28459e-05
8.67459e-06
8.32237e-05
1.12728e-05
8.41117e-05
1.4348e-05
8.55093e-05
1.81633e-05
8.74233e-05
2.30503e-05
8.98142e-05
2.92961e-05
9.24775e-05
3.69332e-05
9.49147e-05
4.55012e-05
9.62911e-05
5.39806e-05
9.55858e-05
6.10302e-05
9.18937e-05
6.5282e-05
8.46399e-05
6.54781e-05
7.3628e-05
6.07156e-05
5.91083e-05
5.06888e-05
4.17675e-05
3.56568e-05
2.25132e-05
1.63488e-05
2.32915e-06
-6.49271e-06
-1.77845e-05
-2.99232e-05
-3.6434e-05
-5.12437e-05
-5.32649e-05
-6.86717e-05
-6.95886e-05
2.89076e-06
7.41451e-05
5.70643e-06
7.99864e-05
8.69059e-06
7.98618e-05
1.18873e-05
8.0027e-05
1.5387e-05
8.06118e-05
1.9328e-05
8.15682e-05
2.39068e-05
8.28444e-05
2.93615e-05
8.43593e-05
3.58994e-05
8.594e-05
4.35668e-05
8.72474e-05
5.21073e-05
8.77502e-05
6.08992e-05
8.67939e-05
6.90379e-05
8.37548e-05
7.54933e-05
7.81846e-05
7.92416e-05
6.98797e-05
7.94349e-05
5.89149e-05
7.55832e-05
4.56193e-05
6.7625e-05
3.04715e-05
5.59233e-05
1.40308e-05
4.11981e-05
-3.05924e-06
2.48432e-05
-2.00793e-05
7.9687e-06
-3.63904e-05
-5.12635e-05
-9.43968e-06
3.22163e-06
7.09235e-05
6.60379e-06
7.66043e-05
1.01784e-05
7.6287e-05
1.3985e-05
7.62204e-05
1.80965e-05
7.65003e-05
2.26149e-05
7.70498e-05
2.76745e-05
7.77846e-05
3.34334e-05
7.86005e-05
4.00289e-05
7.93446e-05
4.75003e-05
7.97759e-05
5.57022e-05
7.95482e-05
6.42545e-05
7.82414e-05
7.25688e-05
7.54405e-05
7.99302e-05
7.08232e-05
8.55919e-05
6.4218e-05
8.88811e-05
5.56259e-05
8.93017e-05
4.51986e-05
8.6597e-05
3.31761e-05
8.07811e-05
1.98465e-05
7.21552e-05
5.56659e-06
6.12347e-05
-9.1588e-06
4.85408e-05
-2.36965e-05
-3.6932e-05
3.42094e-05
3.42293e-06
6.75003e-05
7.1509e-06
7.28763e-05
1.10823e-05
7.23557e-05
1.52526e-05
7.20502e-05
1.97216e-05
7.20314e-05
2.45633e-05
7.22083e-05
2.98641e-05
7.24836e-05
3.57194e-05
7.27454e-05
4.22086e-05
7.28554e-05
4.93521e-05
7.26321e-05
5.70591e-05
7.18413e-05
6.50909e-05
7.02096e-05
7.30667e-05
6.74646e-05
8.05055e-05
6.33844e-05
8.68862e-05
5.78373e-05
9.17136e-05
5.07984e-05
9.45748e-05
4.23375e-05
9.51675e-05
3.25832e-05
9.33161e-05
2.16978e-05
8.89798e-05
9.90288e-06
8.22513e-05
-2.43035e-06
7.32568e-05
-1.4702e-05
-2.58554e-05
6.218e-05
3.53839e-06
6.39618e-05
7.45706e-06
6.89574e-05
1.15728e-05
6.82402e-05
1.59178e-05
6.77051e-05
2.05434e-05
6.74058e-05
2.55048e-05
6.72469e-05
3.08565e-05
6.71318e-05
3.665e-05
6.69521e-05
4.29216e-05
6.65838e-05
4.96705e-05
6.58831e-05
5.68285e-05
6.46834e-05
6.42366e-05
6.28018e-05
7.16429e-05
6.00584e-05
7.87229e-05
5.63044e-05
8.51156e-05
5.14447e-05
9.04629e-05
4.54511e-05
9.44423e-05
3.83582e-05
9.67792e-05
3.02463e-05
9.7246e-05
2.1231e-05
9.56642e-05
1.14848e-05
9.19211e-05
1.31275e-06
8.59542e-05
-8.73513e-06
-1.77294e-05
7.78283e-05
3.58698e-06
6.03748e-05
7.58687e-06
6.49573e-05
1.17631e-05
6.4064e-05
1.61465e-05
6.33215e-05
2.07822e-05
6.277e-05
2.57131e-05
6.23159e-05
3.09747e-05
6.18704e-05
3.65911e-05
6.13358e-05
4.25708e-05
6.06041e-05
4.88957e-05
5.95583e-05
5.55056e-05
5.80737e-05
6.22849e-05
5.60227e-05
6.90589e-05
5.32845e-05
7.56034e-05
4.97599e-05
8.1664e-05
4.53841e-05
8.69796e-05
4.01356e-05
9.13009e-05
3.40369e-05
9.43977e-05
2.71495e-05
9.60548e-05
1.95738e-05
9.60691e-05
1.14705e-05
9.42617e-05
3.12015e-06
9.05012e-05
-4.97464e-06
-1.19883e-05
8.476e-05
3.57374e-06
5.6801e-05
7.5757e-06
6.09553e-05
1.17263e-05
5.99133e-05
1.60548e-05
5.8993e-05
2.06008e-05
5.82241e-05
2.53988e-05
5.75178e-05
3.04731e-05
5.67962e-05
3.58336e-05
5.59755e-05
4.14731e-05
5.49646e-05
4.73633e-05
5.36682e-05
5.34474e-05
5.19897e-05
5.96337e-05
4.98363e-05
6.57936e-05
4.71245e-05
7.17655e-05
4.3788e-05
7.73648e-05
3.97848e-05
8.2397e-05
3.51034e-05
8.66683e-05
2.97657e-05
8.99902e-05
2.38277e-05
9.21773e-05
1.73868e-05
9.30451e-05
1.06027e-05
9.24195e-05
3.74574e-06
9.01655e-05
-2.72068e-06
-8.0625e-06
8.62398e-05
3.5035e-06
5.32975e-05
7.44777e-06
5.70112e-05
1.15139e-05
5.58473e-05
1.57259e-05
5.47811e-05
2.01179e-05
5.38323e-05
2.47178e-05
5.29178e-05
2.95437e-05
5.19703e-05
3.45987e-05
5.09205e-05
3.98694e-05
4.96939e-05
4.53237e-05
4.82139e-05
5.09084e-05
4.6405e-05
5.65469e-05
4.41978e-05
6.21387e-05
4.15328e-05
6.75614e-05
3.83653e-05
7.26761e-05
3.46702e-05
7.73341e-05
3.04456e-05
8.13827e-05
2.57171e-05
8.46688e-05
2.05417e-05
8.70383e-05
1.50173e-05
8.8337e-05
9.30406e-06
8.84197e-05
3.66312e-06
8.71782e-05
-1.47914e-06
-5.47688e-06
8.45926e-05
3.38797e-06
4.99094e-05
7.22835e-06
5.31708e-05
1.11688e-05
5.19068e-05
1.52241e-05
5.07258e-05
1.94219e-05
4.96346e-05
2.3785e-05
4.85545e-05
2.83277e-05
4.74276e-05
3.30505e-05
4.61976e-05
3.7939e-05
4.48054e-05
4.29624e-05
4.31906e-05
4.80725e-05
4.12949e-05
5.32043e-05
3.9066e-05
5.82762e-05
3.64611e-05
6.31912e-05
3.34503e-05
6.78411e-05
3.00205e-05
7.21087e-05
2.61781e-05
7.58724e-05
2.19536e-05
7.90076e-05
1.74066e-05
8.13887e-05
1.26364e-05
8.28915e-05
7.80127e-06
8.34041e-05
3.15048e-06
8.28523e-05
-9.27413e-07
-3.87119e-06
8.12466e-05
3.24518e-06
4.66641e-05
6.94668e-06
4.9469e-05
1.07313e-05
4.8122e-05
1.46026e-05
4.68544e-05
1.85812e-05
4.56556e-05
2.2686e-05
4.44495e-05
2.69283e-05
4.31853e-05
3.13083e-05
4.18176e-05
3.5813e-05
4.03006e-05
4.04154e-05
3.85882e-05
4.50741e-05
3.66364e-05
4.97339e-05
3.44063e-05
5.43274e-05
3.18677e-05
5.87761e-05
2.90017e-05
6.29927e-05
2.5804e-05
6.68832e-05
2.22877e-05
7.03491e-05
1.84879e-05
7.32891e-05
1.44667e-05
7.56016e-05
1.03239e-05
7.71893e-05
6.21358e-06
7.79699e-05
2.36979e-06
7.79006e-05
-8.58002e-07
-2.98685e-06
7.70163e-05
3.09413e-06
4.35699e-05
6.63223e-06
4.59307e-05
1.0238e-05
4.45162e-05
1.39053e-05
4.31869e-05
1.7649e-05
4.19116e-05
2.14843e-05
4.06142e-05
2.54203e-05
3.92494e-05
2.94575e-05
3.77805e-05
3.35854e-05
3.61728e-05
3.77813e-05
3.43923e-05
4.20109e-05
3.24068e-05
4.62286e-05
3.01887e-05
5.03786e-05
2.77178e-05
5.43966e-05
2.49838e-05
5.82113e-05
2.19893e-05
6.17462e-05
1.8753e-05
6.49208e-05
1.53135e-05
6.76526e-05
1.17349e-05
6.98604e-05
8.11617e-06
7.14688e-05
4.60519e-06
7.24199e-05
1.41876e-06
7.26952e-05
-1.13326e-06
-2.63745e-06
7.23459e-05
2.94876e-06
4.06212e-05
6.30855e-06
4.25708e-05
9.71786e-06
4.11071e-05
1.31664e-05
3.97383e-05
1.66652e-05
3.84127e-05
2.02261e-05
3.70534e-05
2.38568e-05
3.56188e-05
2.75579e-05
3.40795e-05
3.13211e-05
3.24096e-05
3.51286e-05
3.05849e-05
3.89523e-05
2.8583e-05
4.27554e-05
2.63857e-05
4.64921e-05
2.39811e-05
5.01101e-05
2.13658e-05
5.3551e-05
1.85485e-05
5.67522e-05
1.5552e-05
5.96479e-05
1.24179e-05
6.21714e-05
9.21159e-06
6.42576e-05
6.02997e-06
6.58494e-05
3.01345e-06
6.69075e-05
3.6068e-07
6.74284e-05
-1.65406e-06
-2.68357e-06
6.74745e-05
2.81476e-06
3.78063e-05
5.98898e-06
3.93967e-05
9.18964e-06
3.79065e-05
1.24092e-05
3.65188e-05
1.56572e-05
3.51647e-05
1.89433e-05
3.37674e-05
2.22738e-05
3.22884e-05
2.56494e-05
3.0704e-05
2.90638e-05
2.89953e-05
3.25029e-05
2.71458e-05
3.59446e-05
2.51413e-05
3.93595e-05
2.2971e-05
4.27109e-05
2.06298e-05
4.59563e-05
1.81205e-05
4.90486e-05
1.54563e-05
5.19367e-05
1.26641e-05
5.45671e-05
9.78763e-06
5.6886e-05
6.89266e-06
5.88423e-05
4.07372e-06
6.03924e-05
1.46323e-06
6.15109e-05
-7.57753e-07
6.2205e-05
-2.34812e-06
-3.01653e-06
6.25381e-05
2.68991e-06
3.51163e-05
5.67617e-06
3.64106e-05
8.66133e-06
3.49213e-05
1.16464e-05
3.35337e-05
1.46418e-05
3.21693e-05
1.76561e-05
3.07531e-05
2.06944e-05
2.92501e-05
2.37576e-05
2.76409e-05
2.68406e-05
2.59123e-05
2.99327e-05
2.40538e-05
3.30167e-05
2.20573e-05
3.60694e-05
1.99183e-05
3.9062e-05
1.76373e-05
4.19606e-05
1.52219e-05
4.47275e-05
1.26896e-05
4.73215e-05
1.00701e-05
4.96999e-05
7.40921e-06
5.18197e-05
4.77274e-06
5.36409e-05
2.25243e-06
5.51312e-05
-2.7091e-08
5.62745e-05
-1.90094e-06
5.70846e-05
-3.15807e-06
-3.55326e-06
5.76214e-05
2.56695e-06
3.25492e-05
5.36498e-06
3.36127e-05
8.13267e-06
3.21535e-05
1.08824e-05
3.0784e-05
1.36274e-05
2.94244e-05
1.63758e-05
2.80047e-05
1.91323e-05
2.64936e-05
2.18975e-05
2.48758e-05
2.46676e-05
2.31422e-05
2.74344e-05
2.1287e-05
3.01848e-05
1.9307e-05
3.29009e-05
1.72022e-05
3.55604e-05
1.49778e-05
3.81368e-05
1.26455e-05
4.06003e-05
1.0226e-05
4.29185e-05
7.75181e-06
4.50577e-05
5.26995e-06
4.69842e-05
2.84617e-06
4.86672e-05
5.69376e-07
5.00833e-05
-1.44311e-06
5.12235e-05
-3.04113e-06
5.21046e-05
-4.03904e-06
-4.23029e-06
5.27817e-05
2.4373e-06
3.01121e-05
5.04697e-06
3.10031e-05
7.59893e-06
2.96016e-05
1.01167e-05
2.82663e-05
1.26169e-05
2.69243e-05
1.51081e-05
2.55134e-05
1.75947e-05
2.40071e-05
2.00774e-05
2.23932e-05
2.25534e-05
2.06663e-05
2.50165e-05
1.88239e-05
2.7457e-05
1.68665e-05
2.98614e-05
1.47979e-05
3.22127e-05
1.26266e-05
3.44906e-05
1.03677e-05
3.66721e-05
8.04455e-06
3.87321e-05
5.69171e-06
4.06446e-05
3.35738e-06
4.23839e-05
1.10689e-06
4.39269e-05
-9.73648e-07
4.52574e-05
-2.77365e-06
4.63721e-05
-4.15577e-06
4.72887e-05
-4.95563e-06
-4.99861e-06
4.80569e-05
2.29431e-06
2.7818e-05
4.71463e-06
2.85829e-05
7.05476e-06
2.72617e-05
9.34689e-06
2.59742e-05
1.16105e-05
2.46606e-05
1.38551e-05
2.32689e-05
1.60851e-05
2.17773e-05
1.83012e-05
2.01772e-05
2.05019e-05
1.84658e-05
2.26826e-05
1.66433e-05
2.48363e-05
1.47129e-05
2.6953e-05
1.26813e-05
2.90202e-05
1.05596e-05
3.10226e-05
8.36538e-06
3.29427e-05
6.12442e-06
3.47617e-05
3.87271e-06
3.64598e-05
1.65919e-06
3.80182e-05
-4.51487e-07
3.94204e-05
-2.37591e-06
4.06566e-05
-4.00983e-06
4.17273e-05
-5.22647e-06
4.2651e-05
-5.87933e-06
-5.81968e-06
4.34721e-05
2.13518e-06
2.5683e-05
4.36412e-06
2.6354e-05
6.49707e-06
2.51289e-05
8.57133e-06
2.39001e-05
1.06082e-05
2.26238e-05
1.26179e-05
2.12593e-05
1.4605e-05
1.97904e-05
1.65709e-05
1.82115e-05
1.85147e-05
1.65221e-05
2.04336e-05
1.47245e-05
2.23228e-05
1.28239e-05
2.41751e-05
1.08291e-05
2.59814e-05
8.75333e-06
2.77304e-05
6.61637e-06
2.94093e-05
4.4456e-06
3.10038e-05
2.27816e-06
3.24997e-05
1.63241e-07
3.38838e-05
-1.83554e-06
3.51457e-05
-3.63786e-06
3.62806e-05
-5.14463e-06
3.72924e-05
-6.23833e-06
3.82002e-05
-6.78714e-06
-6.66309e-06
3.90436e-05
1.96112e-06
2.37218e-05
3.99586e-06
2.43195e-05
5.92606e-06
2.31988e-05
7.79043e-06
2.20358e-05
9.61082e-06
2.08035e-05
1.13977e-05
1.94725e-05
1.3156e-05
1.80322e-05
1.48876e-05
1.648e-05
1.65927e-05
1.48171e-05
1.82698e-05
1.30476e-05
1.99158e-05
1.1178e-05
2.1526e-05
9.21895e-06
2.30938e-05
7.18553e-06
2.46109e-05
5.09917e-06
2.60678e-05
2.98869e-06
2.74541e-05
8.91881e-07
2.87598e-05
-1.14245e-06
2.99767e-05
-3.05241e-06
3.10994e-05
-4.7606e-06
3.21275e-05
-6.17285e-06
3.30685e-05
-7.17944e-06
3.3942e-05
-7.66067e-06
-7.50496e-06
3.47839e-05
1.77591e-06
2.19459e-05
3.61351e-06
2.24822e-05
5.34476e-06
2.14677e-05
7.00677e-06
2.03739e-05
8.62066e-06
1.91897e-05
1.01968e-05
1.78965e-05
1.17402e-05
1.64889e-05
1.32534e-05
1.49669e-05
1.47373e-05
1.33333e-05
1.61916e-05
1.15933e-05
1.76148e-05
9.75483e-06
1.90041e-05
7.82963e-06
2.0355e-05
5.83465e-06
2.1661e-05
3.79304e-06
2.29148e-05
1.73491e-06
2.41085e-05
-3.01819e-07
2.52357e-05
-2.26969e-06
2.62924e-05
-4.10912e-06
2.72776e-05
-5.74595e-06
2.81953e-05
-7.09067e-06
2.9056e-05
-8.04035e-06
2.98806e-05
-8.4853e-06
-8.32689e-06
3.07025e-05
1.5838e-06
2.03623e-05
3.22208e-06
2.08442e-05
4.75789e-06
1.99321e-05
6.22468e-06
1.89073e-05
7.64188e-06
1.77726e-05
9.01911e-06
1.65194e-05
1.03614e-05
1.51467e-05
1.16714e-05
1.36569e-05
1.29509e-05
1.20539e-05
1.42005e-05
1.03437e-05
1.54204e-05
8.53503e-06
1.66091e-05
6.64091e-06
1.77636e-05
4.68012e-06
1.88786e-05
2.67804e-06
1.99472e-05
6.6624e-07
2.09634e-05
-1.31793e-06
2.19233e-05
-3.22961e-06
2.28266e-05
-5.01246e-06
2.36765e-05
-6.59598e-06
2.4481e-05
-7.89527e-06
2.5254e-05
-8.81353e-06
2.60181e-05
-9.24941e-06
-9.11457e-06
2.68057e-05
1.38798e-06
1.89746e-05
2.82663e-06
1.94058e-05
4.17112e-06
1.85881e-05
5.45029e-06
1.76284e-05
6.68092e-06
1.65421e-05
7.87131e-06
1.53292e-05
9.02594e-06
1.39923e-05
1.01476e-05
1.25354e-05
1.12385e-05
1.09632e-05
1.23004e-05
9.2819e-06
1.33348e-05
7.50077e-06
1.43419e-05
5.63392e-06
1.53196e-05
3.70245e-06
1.62626e-05
1.73511e-06
1.71632e-05
-2.34296e-07
1.80155e-05
-2.17015e-06
1.8818e-05
-4.0321e-06
1.95738e-05
-5.76832e-06
2.02904e-05
-7.31256e-06
2.09795e-05
-8.58443e-06
2.16588e-05
-9.49275e-06
2.23527e-05
-9.94326e-06
-9.85601e-06
2.30941e-05
1.19064e-06
1.77842e-05
2.43218e-06
1.81645e-05
3.59157e-06
1.7429e-05
4.69225e-06
1.65279e-05
5.74742e-06
1.54872e-05
6.76348e-06
1.43134e-05
7.74399e-06
1.30121e-05
8.69153e-06
1.15881e-05
9.60866e-06
1.00463e-05
1.04982e-05
8.39255e-06
1.13632e-05
6.63601e-06
1.22057e-05
4.7916e-06
1.30248e-05
2.88347e-06
1.38136e-05
9.46432e-07
1.45613e-05
-9.81892e-07
1.5261e-05
-2.86981e-06
1.59136e-05
-4.68474e-06
1.65263e-05
-6.381e-06
1.71106e-05
-7.89678e-06
1.76821e-05
-9.1559e-06
1.82616e-05
-1.00722e-05
1.8876e-05
-1.05576e-05
-1.05392e-05
1.95593e-05
9.94142e-07
1.67901e-05
2.04512e-06
1.71138e-05
3.02923e-06
1.64451e-05
3.96309e-06
1.55942e-05
4.85555e-06
1.45949e-05
5.71066e-06
1.34585e-05
6.5308e-06
1.21922e-05
7.31809e-06
1.0801e-05
8.07517e-06
9.28936e-06
8.8057e-06
7.66219e-06
9.51453e-06
5.92739e-06
1.02066e-05
4.09969e-06
1.08829e-05
2.20731e-06
1.1533e-05
2.9651e-07
1.21393e-05
-1.58817e-06
1.26934e-05
-3.42389e-06
1.31999e-05
-5.19129e-06
1.36712e-05
-6.85225e-06
1.41231e-05
-8.3486e-06
1.45745e-05
-9.60713e-06
1.50482e-05
-1.05457e-05
1.55727e-05
-1.1082e-05
-1.11494e-05
1.61831e-05
8.02906e-07
1.59872e-05
1.67552e-06
1.62414e-05
2.49889e-06
1.56217e-05
3.28085e-06
1.48123e-05
4.02545e-06
1.38505e-05
4.7344e-06
1.27498e-05
5.40882e-06
1.15179e-05
6.04992e-06
1.016e-05
6.65979e-06
8.67958e-06
7.24235e-06
7.07974e-06
7.80437e-06
5.36551e-06
8.35533e-06
3.54888e-06