/*--------------------------------*- C++ -*----------------------------------*\
  =========                 |
  \\      /  F ield         | OpenFOAM: The Open Source CFD Toolbox
   \\    /   O peration     | Website:  https://openfoam.org
    \\  /    A nd           | Version:  9
     \\/     M anipulation  |
\*---------------------------------------------------------------------------*/
FoamFile
{
    format      ascii;
    class       volVectorField;
    location    "0.95";
    object      U;
}
// * * * * * * * * * * * * * * * * * * * * * * * * * * * * * * * * * * * * * //

dimensions      [0 1 -1 0 0 0 0];

internalField   nonuniform List<vector> 
2268
(
(-0.00177904 0.00303762 0)
(-0.0265313 0.010776 0)
(-0.0664886 0.0113567 0)
(-0.103083 0.0111615 0)
(-0.140137 0.0109609 0)
(-0.175664 0.0105171 0)
(-0.208724 0.00974548 0)
(-0.238254 0.00865459 0)
(-0.263317 0.00725895 0)
(-0.282882 0.00547801 0)
(-0.295767 0.00311982 0)
(-0.300622 0.000138223 0)
(-0.295789 -0.00301992 0)
(-0.2824 -0.00575284 0)
(-0.262532 -0.00803912 0)
(-0.236447 -0.0107028 0)
(-0.202415 -0.0143777 0)
(-0.157672 -0.0190273 0)
(-0.101469 -0.023888 0)
(-0.037421 -0.0264373 0)
(0.0237029 -0.0223466 0)
(0.0677955 -0.0053671 0)
(0.0511427 0.0157354 0)
(-0.0182192 0.0107102 0)
(-0.0486244 0.0261029 0)
(-0.0906124 0.0283346 0)
(-0.130376 0.0278496 0)
(-0.169023 0.0268304 0)
(-0.204661 0.0250691 0)
(-0.236252 0.0225647 0)
(-0.262929 0.0193688 0)
(-0.283959 0.0154881 0)
(-0.298519 0.0108465 0)
(-0.305823 0.00538296 0)
(-0.30568 -0.000709606 0)
(-0.2991 -0.00676616 0)
(-0.28636 -0.0121254 0)
(-0.267546 -0.0168306 0)
(-0.242494 -0.0219696 0)
(-0.210405 -0.0284735 0)
(-0.170104 -0.036287 0)
(-0.121342 -0.0437688 0)
(-0.0668317 -0.0467071 0)
(-0.0137321 -0.0383609 0)
(0.0286749 -0.00963955 0)
(0.0393895 0.0386011 0)
(-0.0265788 0.0281278 0)
(-0.057152 0.0438696 0)
(-0.0970183 0.0465147 0)
(-0.135978 0.0455133 0)
(-0.173252 0.0433448 0)
(-0.207368 0.03992 0)
(-0.237449 0.0353487 0)
(-0.262813 0.0297567 0)
(-0.282852 0.023148 0)
(-0.296865 0.0154478 0)
(-0.304181 0.00675946 0)
(-0.304535 -0.00239372 0)
(-0.298323 -0.0111784 0)
(-0.28605 -0.019079 0)
(-0.268019 -0.0263787 0)
(-0.244168 -0.0342336 0)
(-0.21413 -0.0435884 0)
(-0.177509 -0.0543356 0)
(-0.134503 -0.0643251 0)
(-0.0871932 -0.0683078 0)
(-0.04045 -0.0581142 0)
(-0.000160121 -0.0229833 0)
(0.0199127 0.0481097 0)
(-0.0299274 0.0480859 0)
(-0.0615243 0.0619385 0)
(-0.100402 0.0647311 0)
(-0.138744 0.0631996 0)
(-0.175011 0.0598154 0)
(-0.208087 0.0547136 0)
(-0.237227 0.0481242 0)
(-0.261868 0.0402343 0)
(-0.281478 0.0310356 0)
(-0.295401 0.0204333 0)
(-0.302936 0.00861643 0)
(-0.303681 -0.00367819 0)
(-0.297822 -0.0154284 0)
(-0.285918 -0.0260321 0)
(-0.268452 -0.0359572 0)
(-0.245487 -0.0464873 0)
(-0.217038 -0.0585257 0)
(-0.183368 -0.0719183 0)
(-0.145021 -0.0841887 0)
(-0.103485 -0.0892812 0)
(-0.061727 -0.078005 0)
(-0.0231813 -0.037803 0)
(0.00393838 0.0481167 0)
(-0.0309516 0.068874 0)
(-0.0641847 0.0801972 0)
(-0.10271 0.0828306 0)
(-0.140638 0.0806782 0)
(-0.176167 0.0760273 0)
(-0.208474 0.0692551 0)
(-0.236943 0.0607086 0)
(-0.261123 0.050621 0)
(-0.280563 0.0389514 0)
(-0.294619 0.0255512 0)
(-0.302502 0.0106509 0)
(-0.303645 -0.00481494 0)
(-0.298094 -0.0195797 0)
(-0.286452 -0.0329106 0)
(-0.269326 -0.0454243 0)
(-0.246823 -0.0584941 0)
(-0.219301 -0.0728396 0)
(-0.187788 -0.0882424 0)
(-0.15327 -0.102161 0)
(-0.116672 -0.108135 0)
(-0.0791908 -0.0964977 0)
(-0.0419556 -0.0537538 0)
(-0.0111463 0.0393364 0)
(-0.0310765 0.0901586 0)
(-0.0659127 0.0987428 0)
(-0.104252 0.100819 0)
(-0.141847 0.0978923 0)
(-0.176806 0.0919232 0)
(-0.208535 0.0834967 0)
(-0.236546 0.0730684 0)
(-0.260505 0.0609058 0)
(-0.280043 0.0469099 0)
(-0.294498 0.0308309 0)
(-0.302935 0.012896 0)
(-0.304585 -0.00576158 0)
(-0.299361 -0.0235917 0)
(-0.287913 -0.0396431 0)
(-0.270905 -0.0547027 0)
(-0.248314 -0.0702494 0)
(-0.220826 -0.0865702 0)
(-0.190559 -0.103266 0)
(-0.159294 -0.118071 0)
(-0.127413 -0.124684 0)
(-0.0940372 -0.113429 0)
(-0.0574883 -0.0705712 0)
(-0.0248138 0.0230092 0)
(-0.0309434 0.111776 0)
(-0.0669585 0.117536 0)
(-0.105011 0.118718 0)
(-0.142243 0.114886 0)
(-0.176727 0.107568 0)
(-0.208033 0.0975216 0)
(-0.235795 0.0853046 0)
(-0.259794 0.0712109 0)
(-0.279743 0.0550495 0)
(-0.294936 0.0364042 0)
(-0.30423 0.0154473 0)
(-0.306617 -0.00647065 0)
(-0.301847 -0.0274443 0)
(-0.290624 -0.0462421 0)
(-0.273598 -0.0640025 0)
(-0.250338 -0.0823214 0)
(-0.221748 -0.100467 0)
(-0.191653 -0.117583 0)
(-0.163325 -0.132221 0)
(-0.136526 -0.139138 0)
(-0.107412 -0.129223 0)
(-0.0712526 -0.0887643 0)
(-0.032296 0.00899934 0)
(-0.0308009 0.133562 0)
(-0.0672753 0.136441 0)
(-0.104802 0.136482 0)
(-0.141568 0.131677 0)
(-0.175628 0.123043 0)
(-0.206646 0.111465 0)
(-0.23437 0.0975965 0)
(-0.258698 0.0817497 0)
(-0.279426 0.063596 0)
(-0.295783 0.0424676 0)
(-0.306368 0.0184195 0)
(-0.309896 -0.00693222 0)
(-0.305898 -0.0312453 0)
(-0.29517 -0.0530341 0)
(-0.278286 -0.0740824 0)
(-0.253943 -0.0958412 0)
(-0.222912 -0.11534 0)
(-0.191522 -0.13142 0)
(-0.165803 -0.144692 0)
(-0.144873 -0.151613 0)
(-0.120335 -0.144251 0)
(-0.0840871 -0.111926 0)
(-0.0328712 -0.024744 0)
(0.118003 -0.05161 0)
(0.00511536 0.0598591 0)
(-0.350601 0.0883376 0)
(-0.644852 0.0691905 0)
(-0.813277 0.0201067 0)
(-0.801199 -0.0307741 0)
(-0.651638 -0.0658034 0)
(-0.45272 -0.0743889 0)
(-0.276374 -0.050823 0)
(-0.185731 -0.0133799 0)
(-0.188239 0.0124034 0)
(-0.231742 0.0139668 0)
(-0.254727 0.00177081 0)
(-0.231439 -0.0129481 0)
(-0.175214 -0.0231758 0)
(-0.105872 -0.0283063 0)
(-0.0297121 -0.0281772 0)
(0.029972 -0.0193708 0)
(0.0778205 0.0117273 0)
(-0.0450268 -0.00636113 0)
(-0.224548 0.169305 0)
(-0.578942 0.193887 0)
(-0.774467 0.136859 0)
(-0.826265 0.040572 0)
(-0.777001 -0.0495543 0)
(-0.6619 -0.112951 0)
(-0.499587 -0.132482 0)
(-0.349563 -0.0914834 0)
(-0.262567 -0.0271466 0)
(-0.249647 0.0158817 0)
(-0.266992 0.0167125 0)
(-0.262546 -0.00403575 0)
(-0.231658 -0.0260572 0)
(-0.184962 -0.0394667 0)
(-0.133177 -0.0445871 0)
(-0.0813269 -0.0445974 0)
(-0.0363229 -0.0318021 0)
(0.0431329 0.0280025 0)
(-0.141061 0.078482 0)
(-0.35087 0.273319 0)
(-0.606753 0.278652 0)
(-0.726505 0.176542 0)
(-0.767329 0.0417931 0)
(-0.738259 -0.0754002 0)
(-0.644993 -0.160917 0)
(-0.515983 -0.187912 0)
(-0.384659 -0.133532 0)
(-0.295572 -0.0495956 0)
(-0.270225 0.0119978 0)
(-0.271367 0.0140767 0)
(-0.256597 -0.013642 0)
(-0.224125 -0.0410982 0)
(-0.182806 -0.0567309 0)
(-0.142405 -0.0609789 0)
(-0.108261 -0.0613635 0)
(-0.0794023 -0.0502711 0)
(-0.0162407 0.0161026 0)
(-0.191962 0.190243 0)
(-0.3912 0.366431 0)
(-0.570508 0.343751 0)
(-0.660711 0.210802 0)
(-0.706723 0.0504472 0)
(-0.69096 -0.0963477 0)
(-0.619774 -0.201754 0)
(-0.522841 -0.235615 0)
(-0.399058 -0.170788 0)
(-0.29992 -0.0725594 0)
(-0.267316 0.0039099 0)
(-0.262359 0.00867228 0)
(-0.243587 -0.0244171 0)
(-0.211237 -0.0563692 0)
(-0.173887 -0.0732151 0)
(-0.140821 -0.0750034 0)
(-0.118468 -0.0730036 0)
(-0.106404 -0.0657293 0)
(-0.0603652 -0.0158912 0)
(-0.21251 0.310914 0)
(-0.384478 0.442729 0)
(-0.511201 0.391694 0)
(-0.586546 0.242313 0)
(-0.644634 0.0608213 0)
(-0.639359 -0.116304 0)
(-0.586095 -0.234789 0)
(-0.515929 -0.281577 0)
(-0.387988 -0.216386 0)
(-0.267799 -0.0907744 0)
(-0.241235 -0.00135058 0)
(-0.239019 0.00189068 0)
(-0.222718 -0.0351757 0)
(-0.193239 -0.0708922 0)
(-0.159623 -0.0874752 0)
(-0.130004 -0.0856542 0)
(-0.110979 -0.0803552 0)
(-0.108839 -0.0783234 0)
(-0.0812354 -0.0614889 0)
(-0.217022 0.431594 0)
(-0.356009 0.501624 0)
(-0.44097 0.426354 0)
(-0.502048 0.269473 0)
(-0.575174 0.0680637 0)
(-0.574361 -0.12742 0)
(-0.535997 -0.258043 0)
(-0.478559 -0.326236 0)
(-0.348609 -0.306745 0)
(-0.196917 -0.11631 0)
(-0.192236 0.00344948 0)
(-0.202629 -0.00159095 0)
(-0.193668 -0.0437407 0)
(-0.170678 -0.0822613 0)
(-0.140348 -0.0994809 0)
(-0.105542 -0.0947328 0)
(-0.0754283 -0.0837018 0)
(-0.0729867 -0.0829185 0)
(-0.0649352 -0.104434 0)
(-0.216344 0.54615 0)
(-0.323423 0.543239 0)
(-0.370097 0.449813 0)
(-0.406773 0.307183 0)
(-0.497355 0.0841184 0)
(-0.495635 -0.131478 0)
(-0.469331 -0.273384 0)
(-0.420945 -0.35742 0)
(-0.328624 -0.355093 0)
(-0.156621 -0.20382 0)
(-0.104354 0.022411 0)
(-0.14636 0.00275074 0)
(-0.151668 -0.0489834 0)
(-0.136197 -0.0928861 0)
(-0.100229 -0.113421 0)
(-0.0400131 -0.109351 0)
(0.022652 -0.089906 0)
(0.0299818 -0.072771 0)
(0.0199677 -0.109705 0)
(-0.220337 0.658376 0)
(-0.300857 0.566487 0)
(-0.316153 0.465236 0)
(-0.345781 0.355972 0)
(-0.41713 0.105077 0)
(-0.406407 -0.137357 0)
(-0.390728 -0.284933 0)
(-0.358975 -0.380227 0)
(-0.298297 -0.38986 0)
(-0.155087 -0.27065 0)
(0.0118196 0.0178981 0)
(-0.0446647 0.0148341 0)
(-0.0784388 -0.0491889 0)
(-0.0639786 -0.105498 0)
(0.0035171 -0.14434 0)
(0.0888353 -0.152082 0)
(0.160239 -0.115901 0)
(0.16598 -0.0650675 0)
(0.132508 -0.0750406 0)
(-0.0305803 0.166915 0)
(-0.0662036 0.16587 0)
(-0.102567 0.163807 0)
(-0.138444 0.157434 0)
(-0.171917 0.146964 0)
(-0.202699 0.133286 0)
(-0.230717 0.117175 0)
(-0.256062 0.0989558 0)
(-0.278698 0.0780139 0)
(-0.297764 0.0531351 0)
(-0.311403 0.0240604 0)
(-0.317889 -0.00728415 0)
(-0.316454 -0.0372185 0)
(-0.308017 -0.0645352 0)
(-0.2926 -0.0919242 0)
(-0.266653 -0.11919 0)
(-0.229789 -0.139345 0)
(-0.192713 -0.152165 0)
(-0.169419 -0.161339 0)
(-0.159345 -0.167451 0)
(-0.145012 -0.165378 0)
(-0.111527 -0.154317 0)
(-0.047328 -0.105275 0)
(-0.0267045 0.208246 0)
(-0.0589595 0.205008 0)
(-0.0932177 0.200555 0)
(-0.127466 0.192539 0)
(-0.160297 0.180296 0)
(-0.191389 0.164495 0)
(-0.220827 0.146213 0)
(-0.24906 0.126067 0)
(-0.276563 0.103124 0)
(-0.302704 0.075081 0)
(-0.3254 0.0405669 0)
(-0.341877 0.00100432 0)
(-0.350995 -0.0391313 0)
(-0.352629 -0.0751207 0)
(-0.344437 -0.107509 0)
(-0.318998 -0.142614 0)
(-0.270337 -0.175598 0)
(-0.212707 -0.181306 0)
(-0.185567 -0.167602 0)
(-0.196878 -0.160047 0)
(-0.226118 -0.175976 0)
(-0.239328 -0.192238 0)
(-0.246169 -0.104939 0)
(-0.0180731 0.240744 0)
(-0.042685 0.239569 0)
(-0.0736022 0.234024 0)
(-0.105718 0.224637 0)
(-0.138306 0.210364 0)
(-0.170653 0.192235 0)
(-0.202775 0.171966 0)
(-0.235264 0.150804 0)
(-0.269508 0.127536 0)
(-0.306237 0.0983458 0)
(-0.345611 0.0606211 0)
(-0.386374 0.0165369 0)
(-0.422551 -0.0251809 0)
(-0.448386 -0.0574753 0)
(-0.454477 -0.0958334 0)
(-0.438082 -0.177258 0)
(-0.402535 -0.255627 0)
(-0.319253 -0.235474 0)
(-0.251963 -0.158929 0)
(-0.260155 -0.109172 0)
(-0.357368 -0.14819 0)
(-0.396546 -0.155682 0)
(-0.444707 -0.0340973 0)
(-0.00776842 0.264964 0)
(-0.0161589 0.265323 0)
(-0.0426614 0.258843 0)
(-0.0713464 0.248695 0)
(-0.103797 0.233821 0)
(-0.138948 0.215815 0)
(-0.175438 0.196258 0)
(-0.213427 0.176758 0)
(-0.256928 0.15623 0)
(-0.311874 0.130559 0)
(-0.387755 0.100059 0)
(-0.485897 0.072541 0)
(-0.599091 0.0414483 0)
(-0.700611 -0.0162063 0)
(-0.747003 -0.112478 0)
(-0.700846 -0.254825 0)
(-0.631114 -0.337902 0)
(-0.54991 -0.327517 0)
(-0.409321 -0.201471 0)
(-0.333382 -0.072691 0)
(-0.411968 -0.0712197 0)
(-0.459897 -0.0940164 0)
(-0.494386 0.0113984 0)
(-0.00816377 0.270149 0)
(0.0153819 0.275177 0)
(-0.00920321 0.272614 0)
(-0.034001 0.26669 0)
(-0.0680083 0.253791 0)
(-0.110753 0.236663 0)
(-0.154826 0.218507 0)
(-0.198225 0.203519 0)
(-0.256023 0.192704 0)
(-0.35882 0.188172 0)
(-0.550736 0.199239 0)
(-0.834199 0.180068 0)
(-0.910894 0.107514 0)
(-0.923506 0.00475581 0)
(-0.906507 -0.139179 0)
(-0.855483 -0.297572 0)
(-0.793596 -0.407097 0)
(-0.741237 -0.437839 0)
(-0.63118 -0.338776 0)
(-0.442134 -0.137145 0)
(-0.393005 -0.03215 0)
(-0.443742 -0.0488015 0)
(-0.45471 0.0243794 0)
(-0.11325 0.262372 0)
(0.014524 0.27588 0)
(-0.0157483 0.292507 0)
(-0.0371047 0.313658 0)
(-0.0812951 0.343263 0)
(-0.14132 0.355249 0)
(-0.209242 0.343581 0)
(-0.298241 0.34933 0)
(-0.426484 0.398925 0)
(-0.59688 0.504193 0)
(-0.765107 0.589052 0)
(-0.909252 0.455262 0)
(-0.928538 0.158955 0)
(-0.923181 -0.00796178 0)
(-0.920305 -0.174346 0)
(-0.906355 -0.337197 0)
(-0.87615 -0.455154 0)
(-0.839633 -0.504637 0)
(-0.783871 -0.47371 0)
(-0.637772 -0.300029 0)
(-0.455032 -0.110716 0)
(-0.402471 -0.0275968 0)
(-0.401697 0.0255431 0)
(-0.061253 0.301548 0)
(-0.0291377 0.265129 0)
(-0.0868193 0.352371 0)
(-0.120044 0.387974 0)
(-0.161753 0.400969 0)
(-0.208093 0.397311 0)
(-0.266322 0.397231 0)
(-0.343684 0.424381 0)
(-0.441662 0.495092 0)
(-0.549349 0.603468 0)
(-0.639907 0.6496 0)
(-0.711324 0.501362 0)
(-0.753029 0.21883 0)
(-0.824655 0.0122147 0)
(-0.882989 -0.18803 0)
(-0.902541 -0.360596 0)
(-0.904397 -0.476787 0)
(-0.888456 -0.536565 0)
(-0.862771 -0.535525 0)
(-0.802532 -0.460643 0)
(-0.646578 -0.277622 0)
(-0.479308 -0.118768 0)
(-0.39184 -0.0167458 0)
(-0.0361651 0.342272 0)
(-0.0656122 0.314606 0)
(-0.120716 0.369089 0)
(-0.153005 0.399049 0)
(-0.184412 0.415296 0)
(-0.217505 0.426537 0)
(-0.259427 0.445885 0)
(-0.312064 0.489634 0)
(-0.369003 0.563949 0)
(-0.416775 0.647123 0)
(-0.451351 0.65939 0)
(-0.500464 0.514456 0)
(-0.587268 0.297574 0)
(-0.718854 0.139647 0)
(-0.804706 -0.102631 0)
(-0.864037 -0.358628 0)
(-0.895751 -0.486773 0)
(-0.90017 -0.549156 0)
(-0.889827 -0.559485 0)
(-0.866626 -0.521521 0)
(-0.810948 -0.431778 0)
(-0.676491 -0.2803 0)
(-0.515453 -0.126033 0)
(-0.0209453 0.382374 0)
(-0.065455 0.374577 0)
(-0.108321 0.401616 0)
(-0.134311 0.423006 0)
(-0.157357 0.440422 0)
(-0.180916 0.458331 0)
(-0.208551 0.485944 0)
(-0.238917 0.533331 0)
(-0.264595 0.601847 0)
(-0.276887 0.669391 0)
(-0.280376 0.679185 0)
(-0.30711 0.580732 0)
(-0.385079 0.414882 0)
(-0.504221 0.249976 0)
(-0.630831 0.0496154 0)
(-0.74478 -0.233597 0)
(-0.85477 -0.475482 0)
(-0.884411 -0.551193 0)
(-0.886043 -0.567746 0)
(-0.875462 -0.540711 0)
(-0.850071 -0.482014 0)
(-0.80361 -0.397656 0)
(-0.70892 -0.296228 0)
(-0.00898972 0.416841 0)
(-0.0443134 0.420826 0)
(-0.0741353 0.434004 0)
(-0.0934734 0.447421 0)
(-0.109629 0.461793 0)
(-0.124854 0.480141 0)
(-0.140173 0.508267 0)
(-0.153057 0.551738 0)
(-0.157715 0.609645 0)
(-0.148862 0.665337 0)
(-0.133396 0.681794 0)
(-0.136739 0.624583 0)
(-0.182468 0.505039 0)
(-0.266606 0.351322 0)
(-0.376393 0.157548 0)
(-0.519526 -0.0692162 0)
(-0.687563 -0.321659 0)
(-0.835302 -0.533438 0)
(-0.861743 -0.56614 0)
(-0.860459 -0.549304 0)
(-0.840815 -0.502781 0)
(-0.807932 -0.437778 0)
(-0.765531 -0.375799 0)
(-0.00143737 0.435235 0)
(-0.0209054 0.447923 0)
(-0.0380587 0.454062 0)
(-0.0495426 0.46223 0)
(-0.0583906 0.473765 0)
(-0.0653321 0.490495 0)
(-0.070037 0.515826 0)
(-0.0698636 0.552514 0)
(-0.0604304 0.598863 0)
(-0.0386947 0.643513 0)
(-0.00972125 0.663325 0)
(0.00866593 0.634924 0)
(-0.00285888 0.554784 0)
(-0.0490987 0.431424 0)
(-0.128503 0.267676 0)
(-0.245589 0.0746862 0)
(-0.401964 -0.134604 0)
(-0.588167 -0.365806 0)
(-0.792752 -0.554358 0)
(-0.83099 -0.545292 0)
(-0.817351 -0.51502 0)
(-0.781894 -0.460548 0)
(-0.735343 -0.414964 0)
(0.00311378 0.438554 0)
(-0.00249687 0.459693 0)
(-0.00839287 0.462746 0)
(-0.0112697 0.468107 0)
(-0.0122526 0.477402 0)
(-0.0110608 0.491696 0)
(-0.00667379 0.512799 0)
(0.00335177 0.541951 0)
(0.0223102 0.57741 0)
(0.0522374 0.611657 0)
(0.0899067 0.630452 0)
(0.124112 0.618121 0)
(0.14029 0.566962 0)
(0.128957 0.476935 0)
(0.0852188 0.349303 0)
(0.00488206 0.192807 0)
(-0.11322 0.0226171 0)
(-0.267857 -0.153471 0)
(-0.44961 -0.343701 0)
(-0.652281 -0.513669 0)
(-0.80433 -0.536349 0)
(-0.745913 -0.478619 0)
(-0.706698 -0.443393 0)
(0.00596362 0.433117 0)
(0.0101116 0.460576 0)
(0.0134598 0.462194 0)
(0.0185851 0.465973 0)
(0.0251458 0.473351 0)
(0.0338063 0.484871 0)
(0.045834 0.501376 0)
(0.063299 0.523287 0)
(0.0886724 0.549105 0)
(0.12349 0.573918 0)
(0.165991 0.58888 0)
(0.209388 0.583675 0)
(0.243519 0.550929 0)
(0.258843 0.487574 0)
(0.24783 0.393461 0)
(0.204723 0.273003 0)
(0.127361 0.135484 0)
(0.0167776 -0.00878936 0)
(-0.122462 -0.15098 0)
(-0.281944 -0.294506 0)
(-0.437051 -0.449535 0)
(-0.607323 -0.530505 0)
(-0.717628 -0.475398 0)
(0.00774312 0.422558 0)
(0.0182024 0.453221 0)
(0.0285325 0.453945 0)
(0.0401943 0.456582 0)
(0.0531639 0.462243 0)
(0.068114 0.47107 0)
(0.0862152 0.483296 0)
(0.109115 0.498849 0)
(0.138648 0.516523 0)
(0.175982 0.533093 0)
(0.220259 0.543028 0)
(0.267502 0.539632 0)
(0.311022 0.517227 0)
(0.343174 0.472441 0)
(0.356714 0.404229 0)
(0.345565 0.314509 0)
(0.306171 0.208235 0)
(0.23823 0.0919489 0)
(0.144234 -0.0269922 0)
(0.0285829 -0.143231 0)
(-0.0966602 -0.252596 0)
(-0.222874 -0.35882 0)
(-0.330322 -0.490447 0)
(0.00887914 0.408251 0)
(0.0233229 0.440012 0)
(0.0385001 0.439868 0)
(0.054968 0.441395 0)
(0.0728058 0.445407 0)
(0.0925488 0.451745 0)
(0.115112 0.460245 0)
(0.141706 0.470547 0)
(0.173638 0.481647 0)
(0.211776 0.491381 0)
(0.255733 0.496264 0)
(0.303199 0.491998 0)
(0.349932 0.474595 0)
(0.39051 0.441294 0)
(0.419222 0.390932 0)
(0.430845 0.32417 0)
(0.42158 0.243363 0)
(0.389796 0.151945 0)
(0.336208 0.0540909 0)
(0.263704 -0.0454303 0)
(0.178602 -0.140574 0)
(0.0888352 -0.229896 0)
(-0.00180495 -0.312208 0)
(0.00960246 0.391607 0)
(0.026541 0.422974 0)
(0.0448659 0.421833 0)
(0.0645458 0.422141 0)
(0.0856873 0.424493 0)
(0.108682 0.428533 0)
(0.134176 0.433861 0)
(0.162983 0.439951 0)
(0.195965 0.445928 0)
(0.233711 0.450283 0)
(0.276047 0.45077 0)
(0.32161 0.444645 0)
(0.367741 0.429227 0)
(0.410807 0.402489 0)
(0.446744 0.363411 0)
(0.471608 0.312118 0)
(0.48215 0.24972 0)
(0.476263 0.177865 0)
(0.453228 0.0985516 0)
(0.413851 0.0143164 0)
(0.360718 -0.0711638 0)
(0.296888 -0.154556 0)
(0.223839 -0.230271 0)
(0.0100511 0.37359 0)
(0.0285169 0.403564 0)
(0.0487462 0.401321 0)
(0.0703485 0.400329 0)
(0.0934419 0.401029 0)
(0.118313 0.402952 0)
(0.145399 0.40559 0)
(0.175202 0.408339 0)
(0.208227 0.410412 0)
(0.244811 0.410701 0)
(0.284836 0.407709 0)
(0.327456 0.399663 0)
(0.370986 0.3848 0)
(0.413035 0.361707 0)
(0.450819 0.329579 0)
(0.48153 0.288317 0)
(0.50267 0.23844 0)
(0.512292 0.18081 0)
(0.509082 0.116448 0)
(0.492452 0.0467162 0)
(0.462683 -0.0261444 0)
(0.42032 -0.0986619 0)
(0.365565 -0.164898 0)
(0.0103279 0.354725 0)
(0.0296556 0.382766 0)
(0.0508946 0.379416 0)
(0.0734475 0.377135 0)
(0.0974412 0.376252 0)
(0.123088 0.376255 0)
(0.150686 0.376607 0)
(0.180527 0.376703 0)
(0.21286 0.375831 0)
(0.247818 0.373131 0)
(0.285257 0.367561 0)
(0.3246 0.357948 0)
(0.364736 0.343133 0)
(0.404077 0.322159 0)
(0.440724 0.29443 0)
(0.472693 0.25979 0)
(0.498131 0.218484 0)
(0.515428 0.171019 0)
(0.523236 0.118071 0)
(0.520461 0.0606031 0)
(0.506356 0.000331916 0)
(0.48035 -0.0596279 0)
(0.441901 -0.113942 0)
(0.0104771 0.335425 0)
(0.0301669 0.361287 0)
(0.0517769 0.356909 0)
(0.0745857 0.35343 0)
(0.0987218 0.351096 0)
(0.124337 0.34939 0)
(0.151645 0.347805 0)
(0.180811 0.345777 0)
(0.211927 0.34268 0)
(0.244982 0.337816 0)
(0.279789 0.330424 0)
(0.315897 0.319699 0)
(0.35253 0.304869 0)
(0.388595 0.285294 0)
(0.422772 0.260557 0)
(0.453646 0.230521 0)
(0.47983 0.195323 0)
(0.50004 0.155319 0)
(0.513084 0.111068 0)
(0.517842 0.0634395 0)
(0.513296 0.0139769 0)
(0.498463 -0.0345069 0)
(0.47257 -0.0773105 0)
(0.0104909 0.316065 0)
(0.030141 0.339633 0)
(0.0516726 0.334363 0)
(0.0742636 0.32983 0)
(0.0980278 0.326218 0)
(0.123063 0.323031 0)
(0.14953 0.319814 0)
(0.177529 0.316076 0)
(0.207068 0.311277 0)
(0.238057 0.304849 0)
(0.270276 0.296208 0)
(0.303339 0.28478 0)
(0.336659 0.270036 0)
(0.369448 0.251548 0)
(0.400757 0.229039 0)
(0.429548 0.202422 0)
(0.45477 0.171808 0)
(0.4754 0.137505 0)
(0.490437 0.100036 0)
(0.498888 0.0602628 0)
(0.499792 0.0196649 0)
(0.492162 -0.0191604 0)
(0.475287 -0.0520197 0)
(0.0103533 0.296957 0)
(0.0296408 0.318158 0)
(0.0507797 0.312151 0)
(0.0728381 0.306737 0)
(0.095895 0.302046 0)
(0.119999 0.297614 0)
(0.145277 0.293047 0)
(0.171799 0.287931 0)
(0.199539 0.281819 0)
(0.228373 0.274249 0)
(0.258075 0.264766 0)
(0.288302 0.252943 0)
(0.318583 0.238408 0)
(0.348316 0.220872 0)
(0.376787 0.200163 0)
(0.403215 0.176248 0)
(0.426783 0.149251 0)
(0.446673 0.119475 0)
(0.462062 0.0874424 0)
(0.472117 0.0540202 0)
(0.476033 0.0206456 0)
(0.472985 -0.0102813 0)
(0.462455 -0.0350427 0)
(0.0100757 0.278353 0)
(0.0287591 0.297124 0)
(0.0492824 0.290521 0)
(0.0705956 0.284404 0)
(0.0927282 0.278844 0)
(0.115687 0.273404 0)
(0.139576 0.267747 0)
(0.164449 0.261535 0)
(0.190271 0.254408 0)
(0.216921 0.245999 0)
(0.244186 0.235952 0)
(0.271763 0.223944 0)
(0.29926 0.209708 0)
(0.326196 0.19305 0)
(0.352015 0.173872 0)
(0.376106 0.152189 0)
(0.397822 0.128153 0)
(0.416504 0.102077 0)
(0.431479 0.0744944 0)
(0.442069 0.046267 0)
(0.447637 0.0187766 0)
(0.44755 -0.0057768 0)
(0.441511 -0.0241423 0)
(0.00970383 0.260437 0)
(0.0276256 0.276737 0)
(0.0473703 0.269648 0)
(0.0677862 0.262995 0)
(0.0888499 0.256766 0)
(0.110536 0.250545 0)
(0.13293 0.244039 0)
(0.156077 0.236977 0)
(0.179946 0.229077 0)
(0.20443 0.220054 0)
(0.229344 0.209636 0)
(0.254429 0.197579 0)
(0.279354 0.183692 0)
(0.303729 0.167848 0)
(0.327104 0.150003 0)
(0.348989 0.130213 0)
(0.368863 0.108655 0)
(0.38619 0.0856594 0)
(0.400422 0.0617642 0)
(0.411018 0.0378155 0)
(0.417489 0.0151204 0)
(0.419379 -0.00432998 0)
(0.416577 -0.0177251 0)
(0.00930023 0.243306 0)
(0.0263783 0.257162 0)
(0.0452226 0.249674 0)
(0.0646252 0.242631 0)
(0.0845192 0.235915 0)
(0.104858 0.229115 0)
(0.12571 0.221975 0)
(0.147114 0.214276 0)
(0.169047 0.205804 0)
(0.191421 0.196343 0)
(0.214084 0.185693 0)
(0.236817 0.173675 0)
(0.25935 0.160156 0)
(0.281358 0.145061 0)
(0.302476 0.128386 0)
(0.322304 0.11022 0)
(0.340418 0.0907635 0)
(0.356379 0.0703578 0)
(0.369743 0.049541 0)
(0.380081 0.0291304 0)
(0.38703 0.0103439 0)
(0.390277 -0.00503757 0)
(0.389848 -0.0146144 0)
(0.00891771 0.226976 0)
(0.0251258 0.238513 0)
(0.0429808 0.230714 0)
(0.0612809 0.223406 0)
(0.079934 0.216357 0)
(0.0988825 0.209154 0)
(0.118181 0.201563 0)
(0.137863 0.193409 0)
(0.157911 0.184532 0)
(0.178258 0.174776 0)
(0.198778 0.163998 0)
(0.219298 0.152075 0)
(0.239595 0.138923 0)
(0.259404 0.124507 0)
(0.278427 0.108858 0)
(0.296338 0.0920905 0)
(0.312788 0.0744207 0)
(0.327419 0.0561997 0)
(0.339874 0.0379575 0)
(0.349817 0.020473 0)
(0.356981 0.00486736 0)
(0.361161 -0.00728313 0)
(0.362473 -0.0139465 0)
(0.00858126 0.211407 0)
(0.0239226 0.22086 0)
(0.0407296 0.212855 0)
(0.0578643 0.205395 0)
(0.0752303 0.198141 0)
(0.0927693 0.190677 0)
(0.110526 0.182786 0)
(0.128528 0.174328 0)
(0.146763 0.165185 0)
(0.165179 0.155249 0)
(0.183677 0.144424 0)
(0.20212 0.132634 0)
(0.220329 0.119835 0)
(0.23809 0.106027 0)
(0.255163 0.0912696 0)
(0.271281 0.0756974 0)
(0.286162 0.0595415 0)
(0.299515 0.0431562 0)
(0.311053 0.027059 0)
(0.320515 0.0119858 0)
(0.327711 -0.00103965 0)
(0.332512 -0.0106328 0)
(0.335085 -0.0150792 0)
(0.00828475 0.196545 0)
(0.0227688 0.204229 0)
(0.0384961 0.196153 0)
(0.0544298 0.188644 0)
(0.0704875 0.181291 0)
(0.0866187 0.173679 0)
(0.102862 0.165611 0)
(0.119241 0.156971 0)
(0.135746 0.147674 0)
(0.152336 0.137651 0)
(0.168936 0.126844 0)
(0.185438 0.115214 0)
(0.201701 0.102749 0)
(0.217557 0.0894791 0)
(0.232813 0.0754884 0)
(0.247255 0.0609298 0)
(0.260656 0.046045 0)
(0.272783 0.0311896 0)
(0.283409 0.0168657 0)
(0.292333 0.00376629 0)
(0.299421 -0.00717681 0)
(0.3046 -0.0147514 0)
(0.30806 -0.0175167 0)
(0.00799963 0.182358 0)
(0.0216264 0.188626 0)
(0.036264 0.180633 0)
(0.0509879 0.173173 0)
(0.0657401 0.165808 0)
(0.0804846 0.15814 0)
(0.0952576 0.14999 0)
(0.110079 0.141265 0)
(0.124942 0.131906 0)
(0.139816 0.121872 0)
(0.154642 0.111133 0)
(0.169338 0.0996796 0)
(0.183795 0.0875288 0)
(0.197882 0.0747342 0)
(0.211448 0.0613995 0)
(0.224324 0.0476932 0)
(0.236331 0.033866 0)
(0.247285 0.0202731 0)
(0.257009 0.00740126 0)
(0.265351 -0.00409767 0)
(0.272222 -0.0133767 0)
(0.277586 -0.0193712 0)
(0.281641 -0.0208701 0)
(0.00768917 0.168856 0)
(0.0204441 0.174045 0)
(0.0339966 0.166291 0)
(0.0475238 0.158973 0)
(0.0609948 0.151669 0)
(0.0743908 0.144019 0)
(0.0877485 0.135863 0)
(0.101087 0.12713 0)
(0.1144 0.11778 0)
(0.127666 0.107792 0)
(0.14084 0.0971613 0)
(0.153862 0.0858991 0)
(0.166648 0.0740435 0)
(0.179099 0.0616681 0)
(0.191098 0.0488932 0)
(0.202515 0.0358999 0)
(0.21321 0.022946 0)
(0.223042 0.0103851 0)
(0.231878 -0.00131063 0)
(0.239605 -0.0115281 0)
(0.24617 -0.0194941 0)
(0.251564 -0.0242696 0)
(0.255986 -0.0248327 0)
(0.00732273 0.156091 0)
(0.0191792 0.160483 0)
(0.0316589 0.153107 0)
(0.0440168 0.146013 0)
(0.056246 0.138835 0)
(0.0683443 0.131262 0)
(0.0803506 0.123162 0)
(0.0922832 0.11448 0)
(0.104141 0.105193 0)
(0.115906 0.0952972 0)
(0.127549 0.0848028 0)
(0.139024 0.0737391 0)
(0.15027 0.0621605 0)
(0.161212 0.0501559 0)
(0.171763 0.0378588 0)
(0.181823 0.0254602 0)
(0.191287 0.0132229 0)
(0.20005 0.00149828 0)
(0.208013 -0.00925689 0)
(0.215102 -0.0184641 0)
(0.221291 -0.0254127 0)
(0.22659 -0.0292691 0)
(0.231195 -0.029166 0)
(0.00688583 0.144139 0)
(0.0178116 0.147947 0)
(0.0292317 0.141054 0)
(0.0404542 0.134251 0)
(0.0514893 0.127252 0)
(0.0623478 0.119806 0)
(0.0730713 0.11181 0)
(0.0836794 0.103225 0)
(0.0941739 0.0940425 0)
(0.104545 0.0842706 0)
(0.114772 0.0739322 0)
(0.124823 0.0630693 0)
(0.134655 0.0517492 0)
(0.144212 0.0400728 0)
(0.153429 0.028184 0)
(0.162232 0.0162811 0)
(0.170545 0.0046296 0)
(0.178289 -0.00642339 0)
(0.1854 -0.0164371 0)
(0.191834 -0.0248624 0)
(0.197588 -0.0310427 0)
(0.20269 -0.0342313 0)
(0.207331 -0.033686 0)
(0.00638245 0.133086 0)
(0.0163452 0.136449 0)
(0.0267166 0.130105 0)
(0.0368376 0.123642 0)
(0.0467281 0.116865 0)
(0.0564069 0.109585 0)
(0.0659179 0.101729 0)
(0.0752824 0.0932759 0)
(0.0845062 0.0842274 0)
(0.0935853 0.074601 0)
(0.102508 0.0644293 0)
(0.111253 0.0537641 0)
(0.119791 0.0426832 0)
(0.128082 0.0312973 0)
(0.136077 0.0197587 0)
(0.14372 0.00827006 0)
(0.150957 -0.00290307 0)
(0.157735 -0.0134214 0)
(0.164018 -0.0228586 0)
(0.169786 -0.030694 0)
(0.175059 -0.0363158 0)
(0.179883 -0.039049 0)
(0.18444 -0.0382509 0)
(0.00582881 0.123001 0)
(0.014801 0.126005 0)
(0.0241315 0.120236 0)
(0.0331822 0.114142 0)
(0.0419754 0.107617 0)
(0.0505341 0.100532 0)
(0.0589024 0.092844 0)
(0.0671034 0.0845464 0)
(0.075146 0.0756508 0)
(0.0830318 0.066182 0)
(0.0907565 0.0561799 0)
(0.0983088 0.0457044 0)
(0.105669 0.0348423 0)
(0.112808 0.0237136 0)
(0.119688 0.0124771 0)
(0.126266 0.00133787 0)
(0.132501 -0.00944313 0)
(0.138365 -0.019537 0)
(0.143843 -0.028534 0)
(0.14894 -0.035939 0)
(0.153697 -0.0411791 0)
(0.158176 -0.043638 0)
(0.162557 -0.0427521 0)
(0.00524241 0.113934 0)
(0.0132051 0.116629 0)
(0.0215028 0.111429 0)
(0.0295121 0.105713 0)
(0.0372541 0.0994548 0)
(0.0447514 0.0925827 0)
(0.0520462 0.0850796 0)
(0.0591618 0.0769523 0)
(0.0661095 0.0682201 0)
(0.072896 0.0589131 0)
(0.0795237 0.0490767 0)
(0.0859897 0.0387779 0)
(0.0922829 0.0281128 0)
(0.0983809 0.0172112 0)
(0.10425 0.00623909 0)
(0.109852 -0.00459974 0)
(0.115157 -0.0150543 0)
(0.120155 -0.0248102 0)
(0.124852 -0.0334765 0)
(0.129278 -0.0405825 0)
(0.133491 -0.04559 0)
(0.137574 -0.0479315 0)
(0.141703 -0.0471055 0)
(0.00463354 0.105913 0)
(0.0115805 0.10833 0)
(0.0188598 0.103667 0)
(0.0258597 0.0983171 0)
(0.0325984 0.0923268 0)
(0.0390942 0.0856735 0)
(0.0453845 0.0783632 0)
(0.0514908 0.0704132 0)
(0.0574263 0.0618477 0)
(0.0632015 0.0527001 0)
(0.0688258 0.0430195 0)
(0.0743046 0.0328794 0)
(0.0796351 0.0223866 0)
(0.0847976 0.0116851 0)
(0.0897546 0.000949747 0)
(0.0944638 -0.00962101 0)
(0.0989035 -0.0197944 0)
(0.103078 -0.0292765 0)
(0.107016 -0.0376977 0)
(0.110769 -0.044612 0)
(0.114416 -0.0495129 0)
(0.118058 -0.051874 0)
(0.121875 -0.0512434 0)
(0.00400396 0.0989512 0)
(0.0099472 0.101103 0)
(0.0162359 0.0969227 0)
(0.022268 0.0919108 0)
(0.0280581 0.0861766 0)
(0.0336164 0.0797394 0)
(0.0389722 0.0726228 0)
(0.044144 0.0648513 0)
(0.0491452 0.0564511 0)
(0.0539902 0.0474561 0)
(0.058695 0.0379166 0)
(0.0632754 0.0279116 0)
(0.0677382 0.0175622 0)
(0.072064 0.00703572 0)
(0.0761998 -0.00347795 0)
(0.0800887 -0.0137944 0)
(0.0837126 -0.0237115 0)
(0.0870953 -0.0329638 0)
(0.0902886 -0.0412057 0)
(0.0933656 -0.0480156 0)
(0.0964247 -0.0529157 0)
(0.0995851 -0.0554156 0)
(0.103029 -0.0551037 0)
(0.00335261 0.0930516 0)
(0.0083298 0.0949262 0)
(0.0136766 0.0911543 0)
(0.0187987 0.0864386 0)
(0.0237059 0.0809406 0)
(0.0283969 0.0747108 0)
(0.0328915 0.0677849 0)
(0.0372033 0.0601906 0)
(0.0413448 0.0519532 0)
(0.0453322 0.0431031 0)
(0.0491887 0.0336878 0)
(0.0529432 0.0237892 0)
(0.056619 0.0135473 0)
(0.060195 0.0031727 0)
(0.0635852 -0.00711803 0)
(0.0667037 -0.0171709 0)
(0.0695386 -0.026837 0)
(0.0721429 -0.0358879 0)
(0.0745963 -0.044002 0)
(0.0769918 -0.0507788 0)
(0.0794412 -0.0557656 0)
(0.0820756 -0.0585035 0)
(0.0850792 -0.0586165 0)
(0.00268467 0.0882021 0)
(0.00677028 0.0897519 0)
(0.0112507 0.0862972 0)
(0.0155414 0.0818298 0)
(0.0196453 0.0765453 0)
(0.0235486 0.0705129 0)
(0.0272613 0.0637742 0)
(0.0307908 0.0563571 0)
(0.0341455 0.0482831 0)
(0.0373402 0.0395749 0)
(0.0404023 0.0302697 0)
(0.0433784 0.0204437 0)
(0.046323 0.0102602 0)
(0.0492142 1.82177e-05 0)
(0.0519013 -0.0100201 0)
(0.0542577 -0.0197711 0)
(0.0562946 -0.0291757 0)
(0.0581149 -0.0380479 0)
(0.0598283 -0.0460806 0)
(0.0615397 -0.0528844 0)
(0.0633622 -0.0580262 0)
(0.065427 -0.0610761 0)
(0.0679108 -0.0616914 0)
(0.00202317 0.0843577 0)
(0.00534584 0.0855001 0)
(0.00906648 0.0822671 0)
(0.0126261 0.0780045 0)
(0.0160204 0.072914 0)
(0.0192272 0.0670701 0)
(0.0222478 0.0605165 0)
(0.0250814 0.0532808 0)
(0.0277265 0.0453793 0)
(0.0301877 0.0368223 0)
(0.0324872 0.0276246 0)
(0.0346897 0.0178319 0)
(0.0369208 0.00762502 0)
(0.0391453 -0.00249187 0)
(0.0411008 -0.0121905 0)
(0.0426286 -0.0215701 0)
(0.043816 -0.0307042 0)
(0.0448385 -0.0394342 0)
(0.0458269 -0.0474401 0)
(0.0468746 -0.0543253 0)
(0.0480751 -0.0596686 0)
(0.0495404 -0.0630682 0)
(0.0514262 -0.0642162 0)
(0.00143846 0.0814105 0)
(0.00420532 0.0820489 0)
(0.00729671 0.0789536 0)
(0.0102363 0.0748627 0)
(0.0130242 0.0699486 0)
(0.0156382 0.0642833 0)
(0.0180723 0.0579139 0)
(0.0203129 0.0508712 0)
(0.0223389 0.0431695 0)
(0.0241276 0.0348063 0)
(0.0256664 0.0257599 0)
(0.0270321 0.0159974 0)
(0.0285011 0.00566422 0)
(0.0299557 -0.00431883 0)
(0.0310084 -0.0135372 0)