/*--------------------------------*- C++ -*----------------------------------*\
  =========                 |
  \\      /  F ield         | OpenFOAM: The Open Source CFD Toolbox
   \\    /   O peration     | Website:  https://openfoam.org
    \\  /    A nd           | Version:  9
     \\/     M anipulation  |
\*---------------------------------------------------------------------------*/
FoamFile
{
    format      ascii;
    class       volVectorField;
    location    "0.95";
    object      U;
}
// * * * * * * * * * * * * * * * * * * * * * * * * * * * * * * * * * * * * * //

dimensions      [0 1 -1 0 0 0 0];

internalField   nonuniform List<vector> 
2268
(
(0.0141869 -0.00762238 0)
(0.0411229 -0.0139186 0)
(0.0744673 -0.0121278 0)
(0.102909 -0.00831636 0)
(0.12397 -0.00617689 0)
(0.141508 -0.00531277 0)
(0.158061 -0.00526313 0)
(0.174961 -0.00564074 0)
(0.193017 -0.00621436 0)
(0.212697 -0.00687238 0)
(0.234201 -0.00754676 0)
(0.257502 -0.00816814 0)
(0.2823 -0.00864381 0)
(0.307916 -0.00883676 0)
(0.333098 -0.00854534 0)
(0.355816 -0.00743748 0)
(0.372599 -0.00503467 0)
(0.379306 0.000643731 0)
(0.362287 0.00989729 0)
(0.310855 0.0224629 0)
(0.219116 0.0347728 0)
(0.0880906 0.0347116 0)
(0.00391496 0.0114416 0)
(0.0195395 -0.0176893 0)
(0.047477 -0.0229588 0)
(0.0743763 -0.0210382 0)
(0.0972999 -0.0171852 0)
(0.116618 -0.0141713 0)
(0.133887 -0.0126413 0)
(0.150333 -0.0123604 0)
(0.166886 -0.012881 0)
(0.184274 -0.0138692 0)
(0.202994 -0.0151077 0)
(0.223308 -0.0164234 0)
(0.245245 -0.0176308 0)
(0.268547 -0.018487 0)
(0.292577 -0.0186459 0)
(0.316162 -0.017611 0)
(0.337421 -0.0146513 0)
(0.353591 -0.00872839 0)
(0.360918 0.00229342 0)
(0.359259 0.020481 0)
(0.340166 0.0463378 0)
(0.28877 0.0747169 0)
(0.173106 0.0823678 0)
(0.0432832 0.0379161 0)
(0.0210691 -0.0347614 0)
(0.0484845 -0.0368199 0)
(0.0714477 -0.0314055 0)
(0.0912587 -0.0258967 0)
(0.108865 -0.0219735 0)
(0.125128 -0.019951 0)
(0.140762 -0.019525 0)
(0.156443 -0.0202223 0)
(0.172789 -0.0216442 0)
(0.190261 -0.0234865 0)
(0.209124 -0.0254801 0)
(0.229426 -0.027328 0)
(0.250939 -0.028642 0)
(0.273069 -0.0288775 0)
(0.294719 -0.0272692 0)
(0.314133 -0.0227641 0)
(0.328757 -0.0139863 0)
(0.335072 0.000951826 0)
(0.330537 0.0250715 0)
(0.311739 0.0608183 0)
(0.274657 0.106025 0)
(0.19517 0.13467 0)
(0.0738304 0.097935 0)
(0.0200025 -0.0503165 0)
(0.0463305 -0.0489958 0)
(0.0669521 -0.040949 0)
(0.0848464 -0.0342109 0)
(0.101019 -0.0295768 0)
(0.116163 -0.027145 0)
(0.130801 -0.0265912 0)
(0.145461 -0.0274376 0)
(0.160666 -0.0292434 0)
(0.176834 -0.0316332 0)
(0.194223 -0.0342498 0)
(0.212892 -0.0366864 0)
(0.232647 -0.0384105 0)
(0.252949 -0.0386816 0)
(0.272791 -0.0364705 0)
(0.290548 -0.0303945 0)
(0.303853 -0.0186974 0)
(0.309513 0.000800235 0)
(0.304346 0.0308381 0)
(0.285235 0.074243 0)
(0.25071 0.131251 0)
(0.190253 0.179542 0)
(0.0872493 0.162072 0)
(0.0181642 -0.0648867 0)
(0.0427303 -0.0601182 0)
(0.0614963 -0.049734 0)
(0.0779546 -0.0419413 0)
(0.0928638 -0.0367214 0)
(0.106864 -0.0339481 0)
(0.120411 -0.0332795 0)
(0.133949 -0.0342453 0)
(0.14793 -0.03638 0)
(0.16273 -0.0392528 0)
(0.178595 -0.0424286 0)
(0.195601 -0.0453997 0)
(0.213589 -0.0474981 0)
(0.23209 -0.0477977 0)
(0.250203 -0.0450204 0)
(0.266448 -0.0374676 0)
(0.278644 -0.0230224 0)
(0.283845 0.000764277 0)
(0.278854 0.0365913 0)
(0.260688 0.0870151 0)
(0.227775 0.152819 0)
(0.176604 0.216988 0)
(0.0899791 0.224037 0)
(0.0161927 -0.0781595 0)
(0.0386023 -0.0701509 0)
(0.0556012 -0.0577623 0)
(0.0707521 -0.0490295 0)
(0.0844521 -0.0432819 0)
(0.0972872 -0.0402 0)
(0.109679 -0.0394184 0)
(0.122019 -0.0404719 0)
(0.134703 -0.0428794 0)
(0.148071 -0.0461671 0)
(0.162356 -0.0498346 0)
(0.177646 -0.0532851 0)
(0.193829 -0.0557295 0)
(0.210512 -0.0560732 0)
(0.226913 -0.0528075 0)
(0.241708 -0.0439352 0)
(0.252897 -0.026999 0)
(0.257764 0.000720489 0)
(0.253233 0.0419482 0)
(0.236546 0.0988495 0)
(0.206056 0.172024 0)
(0.161299 0.249145 0)
(0.0877959 0.282659 0)
(0.0142795 -0.0901722 0)
(0.0343955 -0.0791452 0)
(0.0496145 -0.0650855 0)
(0.0634432 -0.0555169 0)
(0.0759234 -0.0492685 0)
(0.0875613 -0.0458865 0)
(0.0987471 -0.0449817 0)
(0.10983 -0.0460888 0)
(0.121159 -0.0487142 0)
(0.133036 -0.0523503 0)
(0.145683 -0.0564432 0)
(0.159201 -0.0603205 0)
(0.173519 -0.063088 0)
(0.188329 -0.063502 0)
(0.202975 -0.0598418 0)
(0.2163 -0.0498274 0)
(0.226489 -0.0306715 0)
(0.231036 0.000618683 0)
(0.227056 0.0467781 0)
(0.212075 0.109551 0)
(0.184828 0.189065 0)
(0.146832 0.276863 0)
(0.0845072 0.336854 0)
(0.0124684 -0.101052 0)
(0.0302632 -0.0871837 0)
(0.043674 -0.071757 0)
(0.0561037 -0.0614408 0)
(0.0673102 -0.0547101 0)
(0.0776975 -0.0510267 0)
(0.08762 -0.0499812 0)
(0.0973871 -0.0511042 0)
(0.107301 -0.0538915 0)
(0.117629 -0.0578093 0)
(0.128577 -0.0622608 0)
(0.140253 -0.0665124 0)
(0.152628 -0.0695823 0)
(0.165479 -0.0700978 0)
(0.17828 -0.0661477 0)
(0.190048 -0.0551823 0)
(0.199158 -0.0340889 0)
(0.203306 0.000392587 0)
(0.199873 0.0509461 0)
(0.186703 0.118819 0)
(0.163412 0.203408 0)
(0.133531 0.299345 0)
(0.0804602 0.388911 0)
(0.0561445 -0.0321325 0)
(0.103005 -0.00419167 0)
(0.0585006 0.0135025 0)
(-0.0129383 0.0234784 0)
(-0.0819961 0.0203192 0)
(-0.112369 0.00577046 0)
(-0.0924297 -0.0108838 0)
(-0.0350608 -0.0242716 0)
(0.0499775 -0.0336262 0)
(0.157404 -0.0402056 0)
(0.280193 -0.044186 0)
(0.413254 -0.045918 0)
(0.550659 -0.0456559 0)
(0.677569 -0.0398661 0)
(0.770684 -0.010095 0)
(0.727749 0.0393083 0)
(0.502834 0.0790426 0)
(0.146369 0.0761916 0)
(-0.0821956 -0.0100079 0)
(0.0285818 -0.0508431 0)
(0.0490886 0.0109671 0)
(-0.0222015 0.0376479 0)
(-0.0794971 0.0424211 0)
(-0.111048 0.0270934 0)
(-0.104825 8.54717e-05 0)
(-0.0685362 -0.0266951 0)
(-0.00771458 -0.0485423 0)
(0.0754055 -0.0642259 0)
(0.175775 -0.0756021 0)
(0.28885 -0.0842131 0)
(0.4111 -0.0897734 0)
(0.535678 -0.0897961 0)
(0.649545 -0.0744591 0)
(0.722884 -0.0163362 0)
(0.739996 0.0873902 0)
(0.637267 0.172784 0)
(0.349967 0.186091 0)
(0.06048 0.0481028 0)
(-0.0104238 -0.0607263 0)
(-0.0146506 0.0295713 0)
(-0.0795378 0.0588495 0)
(-0.112042 0.0534076 0)
(-0.116878 0.0254357 0)
(-0.0949809 -0.0119247 0)
(-0.0521968 -0.0471677 0)
(0.00993978 -0.0764643 0)
(0.0902077 -0.0984407 0)
(0.183337 -0.116735 0)
(0.286858 -0.130875 0)
(0.400146 -0.139547 0)
(0.514576 -0.138497 0)
(0.615799 -0.113867 0)
(0.67922 -0.0360743 0)
(0.685701 0.102645 0)
(0.606661 0.241958 0)
(0.405583 0.288367 0)
(0.145352 0.150496 0)
(-0.0396767 -0.0453274 0)
(-0.0627379 0.0484712 0)
(-0.11359 0.0740643 0)
(-0.128083 0.0575538 0)
(-0.117692 0.0190545 0)
(-0.0869072 -0.0268364 0)
(-0.0398607 -0.0695981 0)
(0.0231899 -0.105772 0)
(0.100156 -0.134809 0)
(0.186423 -0.15697 0)
(0.281898 -0.174834 0)
(0.389624 -0.183012 0)
(0.497887 -0.178083 0)
(0.589401 -0.141694 0)
(0.640406 -0.0467933 0)
(0.639259 0.118053 0)
(0.569961 0.293149 0)
(0.411783 0.379177 0)
(0.182998 0.268673 0)
(-0.0613611 -0.0200622 0)
(-0.0961885 0.0679266 0)
(-0.133583 0.0836849 0)
(-0.135944 0.0561089 0)
(-0.116087 0.0086265 0)
(-0.0793822 -0.0443148 0)
(-0.0291937 -0.0932865 0)
(0.0342399 -0.135143 0)
(0.105518 -0.169106 0)
(0.187684 -0.194368 0)
(0.280455 -0.215247 0)
(0.385121 -0.226956 0)
(0.488291 -0.217193 0)
(0.571829 -0.167101 0)
(0.610634 -0.0509014 0)
(0.592772 0.137323 0)
(0.526472 0.336149 0)
(0.397759 0.461201 0)
(0.19668 0.390968 0)
(-0.0780994 0.0153441 0)
(-0.119218 0.0867094 0)
(-0.144995 0.0889181 0)
(-0.138741 0.0507103 0)
(-0.11232 -0.00464547 0)
(-0.0712828 -0.0635273 0)
(-0.0187418 -0.117493 0)
(0.0424669 -0.164156 0)
(0.109704 -0.200501 0)
(0.191672 -0.230647 0)
(0.286928 -0.256486 0)
(0.387294 -0.272628 0)
(0.47966 -0.258386 0)
(0.555082 -0.196224 0)
(0.588256 -0.0542065 0)
(0.5539 0.161391 0)
(0.477024 0.37548 0)
(0.366868 0.525288 0)
(0.203753 0.512127 0)
(-0.093269 0.0577875 0)
(-0.135522 0.103687 0)
(-0.150542 0.0905438 0)
(-0.137525 0.0424581 0)
(-0.106138 -0.0199152 0)
(-0.0617337 -0.0839398 0)
(-0.00789823 -0.141927 0)
(0.0501083 -0.190795 0)
(0.116435 -0.231866 0)
(0.201863 -0.268873 0)
(0.298858 -0.299039 0)
(0.390859 -0.311441 0)
(0.470914 -0.291418 0)
(0.537111 -0.218264 0)
(0.56633 -0.0552428 0)
(0.535562 0.189544 0)
(0.445659 0.422276 0)
(0.329377 0.582679 0)
(0.191404 0.622054 0)
(-0.113639 0.109508 0)
(-0.145948 0.117229 0)
(-0.151604 0.0888201 0)
(-0.133004 0.031872 0)
(-0.0977956 -0.0367372 0)
(-0.0509897 -0.105154 0)
(0.00236525 -0.16558 0)
(0.0597009 -0.216548 0)
(0.129224 -0.264076 0)
(0.217504 -0.309291 0)
(0.309727 -0.338634 0)
(0.390616 -0.344918 0)
(0.459601 -0.319455 0)
(0.516783 -0.237217 0)
(0.540545 -0.0550142 0)
(0.517399 0.217723 0)
(0.432706 0.468237 0)
(0.310175 0.643082 0)
(0.171281 0.725387 0)
(0.00969188 -0.115013 0)
(0.0239496 -0.0977514 0)
(0.0344079 -0.080929 0)
(0.0444121 -0.0696266 0)
(0.0534317 -0.0622074 0)
(0.06169 -0.0580696 0)
(0.0694724 -0.0567797 0)
(0.0770224 -0.0578646 0)
(0.0845697 -0.0608079 0)
(0.0923239 -0.0650464 0)
(0.100456 -0.0699345 0)
(0.10908 -0.0746675 0)
(0.118226 -0.0781603 0)
(0.127796 -0.0788831 0)
(0.137477 -0.074675 0)
(0.146584 -0.0626024 0)
(0.153841 -0.0390438 0)
(0.157342 -0.0002885 0)
(0.154676 0.0561572 0)
(0.144439 0.130343 0)
(0.128858 0.21939 0)
(0.117098 0.317643 0)
(0.129752 0.420785 0)
(0.00599568 -0.129239 0)
(0.0155573 -0.107594 0)
(0.0218299 -0.0897384 0)
(0.0280375 -0.0774416 0)
(0.0335202 -0.0692444 0)
(0.0383678 -0.064541 0)
(0.0427509 -0.0628758 0)
(0.0468129 -0.0637702 0)
(0.0506845 -0.0666996 0)
(0.0544865 -0.0710836 0)
(0.0583243 -0.0762491 0)
(0.062283 -0.0813526 0)
(0.066421 -0.0852485 0)
(0.0707523 -0.0862977 0)
(0.0751902 -0.0821222 0)
(0.0794012 -0.0693658 0)
(0.0825626 -0.0437267 0)
(0.0832715 -0.000743125 0)
(0.0795247 0.0618032 0)
(0.0702598 0.14193 0)
(0.0577055 0.232086 0)
(0.0435673 0.31977 0)
(0.0816093 0.36929 0)
(0.00219169 -0.137374 0)
(0.00714797 -0.112561 0)
(0.00921102 -0.0942609 0)
(0.0113608 -0.0813147 0)
(0.0129828 -0.0725289 0)
(0.0140992 -0.0673341 0)
(0.0147755 -0.0652658 0)
(0.0150568 -0.0658391 0)
(0.0149745 -0.0685235 0)
(0.0145495 -0.0727305 0)
(0.0137921 -0.0777785 0)
(0.012703 -0.0828168 0)
(0.0112777 -0.0866922 0)
(0.00950692 -0.0877393 0)
(0.00736184 -0.0834839 0)
(0.00468078 -0.0703051 0)
(0.00098236 -0.0433208 0)
(-0.00470487 0.00269645 0)
(-0.0135078 0.0702829 0)
(-0.0256409 0.154992 0)
(-0.0403965 0.243676 0)
(-0.0535289 0.315316 0)
(-0.0278093 0.333474 0)
(-0.00159962 -0.139385 0)
(-0.00101846 -0.113123 0)
(-0.0031377 -0.0945334 0)
(-0.00509892 -0.0811456 0)
(-0.0074122 -0.0719253 0)
(-0.010104 -0.0663068 0)
(-0.0131994 -0.0638127 0)
(-0.0167422 -0.0639463 0)
(-0.0207948 -0.0661647 0)
(-0.025439 -0.0698656 0)
(-0.0307796 -0.0743541 0)
(-0.0369458 -0.0787698 0)
(-0.0440897 -0.0819561 0)
(-0.0523791 -0.0822468 0)
(-0.0619981 -0.0771413 0)
(-0.0731999 -0.0628973 0)
(-0.0863549 -0.0343059 0)
(-0.101579 0.014251 0)
(-0.117825 0.0851469 0)
(-0.133373 0.171391 0)
(-0.146457 0.256416 0)
(-0.15186 0.319641 0)
(-0.14389 0.344362 0)
(-0.00527288 -0.135791 0)
(-0.00877199 -0.109341 0)
(-0.0148429 -0.0905736 0)
(-0.0208254 -0.0769591 0)
(-0.0269711 -0.0674587 0)
(-0.0333535 -0.0614959 0)
(-0.0400763 -0.0585779 0)
(-0.0472567 -0.0581896 0)
(-0.0550337 -0.0597653 0)
(-0.0635773 -0.0626737 0)
(-0.0730979 -0.0661845 0)
(-0.0838548 -0.0693979 0)
(-0.0961631 -0.071119 0)
(-0.11039 -0.0696524 0)
(-0.126937 -0.0624969 0)
(-0.146195 -0.0459885 0)
(-0.168297 -0.0151951 0)
(-0.192063 0.0348469 0)
(-0.214046 0.104987 0)
(-0.230409 0.18744 0)
(-0.238442 0.266072 0)
(-0.236148 0.323051 0)
(-0.226044 0.345254 0)
(-0.00853735 -0.127391 0)
(-0.0158673 -0.101104 0)
(-0.0256842 -0.082533 0)
(-0.0354241 -0.0689399 0)
(-0.0451495 -0.0593265 0)
(-0.054953 -0.0531243 0)
(-0.0649936 -0.0498291 0)
(-0.0754369 -0.0489041 0)
(-0.0864696 -0.0497526 0)
(-0.0983152 -0.0517011 0)
(-0.111245 -0.053965 0)
(-0.125593 -0.0555797 0)
(-0.141755 -0.0552827 0)
(-0.160186 -0.0513371 0)
(-0.181333 -0.041307 0)
(-0.205444 -0.021897 0)
(-0.231968 0.0108051 0)
(-0.258658 0.0599443 0)
(-0.28115 0.124859 0)
(-0.294454 0.198024 0)
(-0.295461 0.265325 0)
(-0.283616 0.311133 0)
(-0.262097 0.323915 0)
(-0.0114277 -0.114535 0)
(-0.0222158 -0.0888485 0)
(-0.0354502 -0.0707507 0)
(-0.0485995 -0.0574017 0)
(-0.0615564 -0.0478521 0)
(-0.0744103 -0.0415505 0)
(-0.0873494 -0.0379861 0)
(-0.100559 -0.0366018 0)
(-0.114237 -0.0367698 0)
(-0.128617 -0.0377742 0)
(-0.143967 -0.0387768 0)
(-0.160604 -0.0387534 0)
(-0.178881 -0.0363958 0)
(-0.19915 -0.0299871 0)
(-0.221641 -0.0173049 0)
(-0.24617 0.00430698 0)
(-0.271608 0.0374309 0)
(-0.295271 0.0833825 0)
(-0.312843 0.140303 0)
(-0.319734 0.201258 0)
(-0.313217 0.254725 0)
(-0.293485 0.2882 0)
(-0.264474 0.292968 0)
(-0.0139504 -0.0977831 0)
(-0.027764 -0.0730025 0)
(-0.0440177 -0.0556211 0)
(-0.0601756 -0.0427272 0)
(-0.0759618 -0.0334326 0)
(-0.0914413 -0.0272105 0)
(-0.106807 -0.0235502 0)
(-0.122236 -0.0218822 0)
(-0.137908 -0.0215569 0)
(-0.154019 -0.0218298 0)
(-0.170782 -0.0218314 0)
(-0.188424 -0.0205164 0)
(-0.207153 -0.0165946 0)
(-0.227099 -0.0084723 0)
(-0.248157 0.00572441 0)
(-0.269744 0.0279322 0)
(-0.29041 0.0596065 0)
(-0.307556 0.100761 0)
(-0.317627 0.148791 0)
(-0.317221 0.197584 0)
(-0.304604 0.238118 0)
(-0.280524 0.260958 0)
(-0.248907 0.259505 0)
(-0.0160878 -0.0777001 0)
(-0.0324954 -0.0540299 0)
(-0.0513422 -0.0375722 0)
(-0.0700847 -0.0253348 0)
(-0.0882768 -0.0164983 0)
(-0.105942 -0.0105681 0)
(-0.123257 -0.00704246 0)
(-0.140374 -0.00534958 0)
(-0.157429 -0.00483365 0)
(-0.174555 -0.00474404 0)
(-0.191879 -0.00421361 0)
(-0.209501 -0.00222375 0)
(-0.227454 0.00243187 0)
(-0.245637 0.0111504 0)
(-0.263671 0.0254231 0)
(-0.280725 0.0465669 0)
(-0.295313 0.0752119 0)
(-0.305244 0.110614 0)
(-0.30793 0.149961 0)
(-0.301196 0.188034 0)
(-0.284223 0.217785 0)
(-0.257897 0.232002 0)
(-0.225439 0.225326 0)
(-0.0178511 -0.0548343 0)
(-0.0364263 -0.0323996 0)
(-0.0574404 -0.0170391 0)
(-0.0783412 -0.0056522 0)
(-0.098518 0.0025162 0)
(-0.117942 0.00792155 0)
(-0.136763 0.0110469 0)
(-0.155094 0.0124539 0)
(-0.173017 0.0127885 0)
(-0.190597 0.0127847 0)
(-0.207865 0.0132772 0)
(-0.2248 0.0152198 0)
(-0.241285 0.0196954 0)
(-0.257043 0.0278826 0)
(-0.271532 0.0409285 0)
(-0.283847 0.0596772 0)
(-0.292649 0.0842501 0)
(-0.296236 0.113557 0)
(-0.292837 0.144892 0)
(-0.281169 0.173839 0)
(-0.260955 0.194745 0)
(-0.232942 0.201829 0)
(-0.199649 0.190473 0)
(-0.0192197 -0.0297155 0)
(-0.0395841 -0.00856897 0)
(-0.0623636 0.00554304 0)
(-0.0850129 0.015904 0)
(-0.106773 0.0231993 0)
(-0.12756 0.0278405 0)
(-0.147492 0.0302868 0)
(-0.166639 0.0310796 0)
(-0.185033 0.0308412 0)
(-0.202669 0.0302718 0)
(-0.219502 0.030153 0)
(-0.235414 0.0313536 0)
(-0.250183 0.0348207 0)
(-0.263427 0.0415287 0)
(-0.274544 0.0523477 0)
(-0.282663 0.0678021 0)
(-0.286651 0.0877347 0)
(-0.285219 0.110953 0)
(-0.277162 0.134977 0)
(-0.26173 0.156035 0)
(-0.23889 0.169422 0)
(-0.20921 0.170296 0)
(-0.174787 0.154589 0)
(-0.0202047 -0.00282309 0)
(-0.0420071 0.0170124 0)
(-0.0661904 0.0297611 0)
(-0.0902003 0.0389378 0)
(-0.113167 0.0451662 0)
(-0.134959 0.0488144 0)
(-0.155661 0.0503132 0)
(-0.175305 0.0501767 0)
(-0.193876 0.0489946 0)
(-0.211319 0.0474232 0)
(-0.227528 0.0461818 0)
(-0.242323 0.0460484 0)
(-0.25542 0.0478405 0)
(-0.266395 0.0523588 0)
(-0.274645 0.0602646 0)
(-0.279376 0.0718751 0)
(-0.279642 0.0868943 0)
(-0.274447 0.104145 0)
(-0.262936 0.121396 0)
(-0.244643 0.135372 0)
(-0.219639 0.142048 0)
(-0.18838 0.137273 0)
(-0.152804 0.117505 0)
(-0.0208494 0.0253992 0)
(-0.0437595 0.0439168 0)
(-0.0690077 0.0552196 0)
(-0.0940094 0.0630768 0)
(-0.117833 0.0680664 0)
(-0.140309 0.0705163 0)
(-0.161491 0.0708265 0)
(-0.181376 0.0694809 0)
(-0.199917 0.0670324 0)
(-0.217021 0.06409 0)
(-0.232544 0.0613092 0)
(-0.246273 0.059381 0)
(-0.257897 0.0590076 0)
(-0.266985 0.0608462 0)
(-0.272963 0.0654012 0)
(-0.275117 0.0728532 0)
(-0.272641 0.082842 0)
(-0.264731 0.0942546 0)
(-0.250733 0.105091 0)
(-0.230335 0.112484 0)
(-0.20367 0.112949 0)
(-0.171165 0.102933 0)
(-0.134784 0.0794555 0)
(-0.0212129 0.054567 0)
(-0.0449071 0.0717587 0)
(-0.0708895 0.0815475 0)
(-0.0965372 0.0879747 0)
(-0.120895 0.0915811 0)
(-0.143763 0.0926585 0)
(-0.165167 0.0915773 0)
(-0.185083 0.0887906 0)
(-0.203438 0.0848149 0)
(-0.220118 0.0802125 0)
(-0.234961 0.0755783 0)
(-0.247736 0.071524 0)
(-0.258131 0.0686506 0)
(-0.265725 0.0674963 0)
(-0.269983 0.0684424 0)
(-0.27026 0.0715732 0)
(-0.265848 0.0764996 0)
(-0.256063 0.0821891 0)
(-0.240372 0.0868592 0)
(-0.21856 0.0880043 0)
(-0.190823 0.0826297 0)
(-0.157634 0.067766 0)
(-0.121072 0.0410308 0)
(-0.0213375 0.084325 0)
(-0.0455013 0.100178 0)
(-0.0718942 0.108399 0)
(-0.0978594 0.113307 0)
(-0.122445 0.115413 0)
(-0.145428 0.114978 0)
(-0.166819 0.112346 0)
(-0.186576 0.107939 0)
(-0.204611 0.10224 0)
(-0.220803 0.0957686 0)
(-0.234979 0.0890627 0)
(-0.246912 0.0826626 0)
(-0.256293 0.0770806 0)
(-0.262725 0.0727527 0)
(-0.265706 0.0699586 0)
(-0.264648 0.0687079 0)
(-0.258918 0.0685993 0)
(-0.247912 0.0686865 0)
(-0.231185 0.0673999 0)
(-0.208599 0.0625863 0)
(-0.180437 0.0517384 0)
(-0.147252 0.0324743 0)
(-0.111234 0.00300172 0)
(-0.0212445 0.114319 0)
(-0.0455728 0.128833 0)
(-0.072058 0.135441 0)
(-0.09802 0.13876 0)
(-0.122531 0.139276 0)
(-0.145359 0.137224 0)
(-0.1665 0.132922 0)
(-0.185905 0.126768 0)
(-0.203483 0.119211 0)
(-0.219106 0.110731 0)
(-0.232606 0.101815 0)
(-0.243759 0.0929389 0)
(-0.25227 0.0845342 0)
(-0.257761 0.076947 0)
(-0.259766 0.0703699 0)
(-0.257746 0.0647514 0)
(-0.251126 0.0596889 0)
(-0.239378 0.0543292 0)
(-0.222131 0.0473212 0)
(-0.199337 0.0368738 0)
(-0.171376 0.020975 0)
(-0.138862 -0.00219332 0)
(-0.10399 -0.0339178 0)
(-0.0209449 0.144216 0)
(-0.0451329 0.157388 0)
(-0.0713897 0.162346 0)
(-0.0970244 0.164021 0)
(-0.121154 0.162881 0)
(-0.143544 0.159138 0)
(-0.164186 0.153087 0)
(-0.183029 0.145103 0)
(-0.199981 0.135605 0)
(-0.214918 0.125036 0)
(-0.227676 0.113835 0)
(-0.238039 0.102417 0)
(-0.245724 0.0911421 0)
(-0.250376 0.0802746 0)
(-0.251558 0.0699324 0)
(-0.248778 0.0600165 0)
(-0.241523 0.0501354 0)
(-0.22934 0.0395415 0)
(-0.211948 0.0271154 0)
(-0.189395 0.0114363 0)
(-0.162142 -0.00903803 0)
(-0.130797 -0.0356354 0)
(-0.0974043 -0.0693099 0)
(-0.02044 0.173682 0)
(-0.0441732 0.185502 0)
(-0.0698688 0.188778 0)
(-0.0948393 0.188767 0)
(-0.118262 0.185926 0)
(-0.139912 0.180443 0)
(-0.15978 0.172597 0)
(-0.177815 0.162737 0)
(-0.193932 0.151257 0)
(-0.208012 0.138562 0)
(-0.219896 0.125047 0)
(-0.229376 0.111069 0)
(-0.236183 0.0969203 0)
(-0.239977 0.0827953 0)
(-0.240359 0.0687498 0)
(-0.236883 0.0546538 0)
(-0.229107 0.0401447 0)
(-0.216663 0.0245981 0)
(-0.199369 0.00713626 0)
(-0.177359 -0.0133169 0)
(-0.15113 -0.0378893 0)
(-0.121194 -0.0675551 0)
(-0.0893871 -0.103066 0)
(-0.0197228 0.202373 0)
(-0.0426671 0.212822 0)
(-0.0674476 0.214385 0)
(-0.0913945 0.212656 0)
(-0.113761 0.208083 0)
(-0.134337 0.200835 0)
(-0.153119 0.191172 0)
(-0.170061 0.179422 0)
(-0.185086 0.165951 0)
(-0.19808 0.151127 0)
(-0.208892 0.135301 0)
(-0.217322 0.118776 0)
(-0.223112 0.101784 0)
(-0.225946 0.0844582 0)
(-0.22546 0.0668098 0)
(-0.221265 0.0486969 0)
(-0.212995 0.0298071 0)
(-0.200377 0.00965409 0)
(-0.18332 -0.0124128 0)
(-0.162014 -0.0371659 0)
(-0.136925 -0.0654261 0)
(-0.108436 -0.0979121 0)
(-0.0781814 -0.135223 0)
(-0.018779 0.229921 0)
(-0.0405715 0.238969 0)
(-0.0640539 0.238789 0)
(-0.0865875 0.235317 0)
(-0.107515 0.228993 0)
(-0.126649 0.219972 0)
(-0.143993 0.208493 0)
(-0.159514 0.194862 0)
(-0.173142 0.179415 0)
(-0.184772 0.162486 0)
(-0.194261 0.144381 0)
(-0.201417 0.125351 0)
(-0.206001 0.105577 0)
(-0.207722 0.0851443 0)
(-0.20626 0.0640363 0)
(-0.201288 0.0421203 0)
(-0.192521 0.019152 0)
(-0.179775 -0.00521648 0)
(-0.16303 -0.0314389 0)
(-0.14248 -0.0600541 0)
(-0.11853 -0.0916609 0)
(-0.0914451 -0.126767 0)
(-0.062679 -0.165853 0)
(-0.0175886 0.255926 0)
(-0.0378301 0.263532 0)
(-0.0595955 0.261579 0)
(-0.0802901 0.256343 0)
(-0.0993582 0.248262 0)
(-0.116643 0.237474 0)
(-0.132162 0.224197 0)
(-0.145892 0.208715 0)
(-0.157778 0.191333 0)
(-0.167727 0.172349 0)
(-0.175607 0.152026 0)
(-0.181241 0.130568 0)
(-0.184408 0.108112 0)
(-0.184855 0.0847117 0)
(-0.18231 0.0603399 0)
(-0.176514 0.0348899 0)
(-0.167257 0.00819426 0)
(-0.154428 -0.0199742 0)
(-0.138045 -0.0499092 0)
(-0.118272 -0.0819929 0)
(-0.0954504 -0.116641 0)
(-0.0697429 -0.154185 0)
(-0.0424541 -0.194999 0)
(-0.0161263 0.279942 0)
(-0.0343756 0.286061 0)
(-0.0539641 0.282304 0)
(-0.0723546 0.27529 0)
(-0.0891049 0.265455 0)
(-0.104097 0.25292 0)
(-0.117364 0.237884 0)
(-0.128903 0.220606 0)
(-0.138676 0.201358 0)
(-0.146607 0.180402 0)
(-0.15258 0.157958 0)
(-0.156438 0.134191 0)
(-0.157992 0.109204 0)
(-0.157026 0.0830333 0)
(-0.153323 0.0556539 0)
(-0.146689 0.0269965 0)
(-0.13698 -0.00303107 0)
(-0.124143 -0.0345654 0)
(-0.108196 -0.0677865 0)
(-0.0892664 -0.102963 0)
(-0.0676307 -0.14036 0)
(-0.0433702 -0.180157 0)
(-0.0176647 -0.222607 0)
(-0.0143618 0.301479 0)
(-0.0301308 0.306058 0)
(-0.0470398 0.300473 0)
(-0.0626197 0.291674 0)
(-0.0765551 0.2801 0)
(-0.0887743 0.265858 0)
(-0.0993347 0.249125 0)
(-0.108259 0.230134 0)
(-0.115532 0.209125 0)
(-0.121103 0.186322 0)
(-0.12488 0.161904 0)
(-0.126733 0.136005 0)
(-0.126506 0.1087 0)
(-0.12403 0.0800206 0)
(-0.119141 0.0499553 0)
(-0.111703 0.018475 0)
(-0.10163 -0.0144537 0)
(-0.0889061 -0.0488932 0)
(-0.0735351 -0.0849679 0)
(-0.0556109 -0.122855 0)
(-0.0353458 -0.162699 0)
(-0.0127585 -0.204534 0)
(0.0110832 -0.248462 0)
(-0.0122581 0.319985 0)
(-0.0250077 0.322981 0)
(-0.0386934 0.31555 0)
(-0.0509159 0.30497 0)
(-0.061503 0.29169 0)
(-0.0704398 0.275802 0)
(-0.077815 0.257466 0)
(-0.0836851 0.236885 0)
(-0.0880693 0.214268 0)
(-0.0909484 0.189797 0)
(-0.0922623 0.163616 0)
(-0.0919149 0.135827 0)
(-0.0897868 0.10649 0)
(-0.0857525 0.0756348 0)
(-0.0796989 0.0432719 0)
(-0.0715432 0.00941152 0)
(-0.0612508 -0.0259381 0)
(-0.048826 -0.0627927 0)
(-0.0342658 -0.101252 0)
(-0.0176334 -0.141426 0)
(0.000915621 -0.183366 0)
(0.0214467 -0.226976 0)
(0.0429526 -0.272179 0)
(-0.0097638 0.33484 0)
(-0.0189012 0.336246 0)
(-0.0287893 0.32696 0)
(-0.0370706 0.314616 0)
(-0.0437435 0.299684 0)
(-0.048862 0.282244 0)
(-0.0525559 0.262438 0)
(-0.0549255 0.240441 0)
(-0.0560356 0.216427 0)
(-0.0559094 0.190537 0)
(-0.0545259 0.162878 0)
(-0.0518251 0.133519 0)
(-0.0477236 0.10251 0)
(-0.0421351 0.0698862 0)
(-0.0349906 0.0356825 0)
(-0.0262539 -5.21182e-05 0)
(-0.0159436 -0.0372799 0)
(-0.00407577 -0.0760014 0)
(0.00934221 -0.116311 0)
(0.024273 -0.158285 0)
(0.0406265 -0.201911 0)
(0.0585337 -0.24697 0)
(0.0770407 -0.293204 0)
(-0.00678708 0.345331 0)
(-0.0116721 0.345239 0)
(-0.0171878 0.334091 0)
(-0.020914 0.320019 0)
(-0.0230804 0.303516 0)
(-0.023825 0.284655 0)
(-0.0233281 0.26356 0)
(-0.0217469 0.240382 0)
(-0.0192051 0.215256 0)
(-0.0157812 0.188279 0)
(-0.0115001 0.159512 0)
(-0.00633727 0.128992 0)
(-0.000238667 0.0967541 0)
(0.0068517 0.0628431 0)
(0.0149656 0.0273232 0)
(0.0240984 -0.00971771 0)
(0.0341807 -0.0482176 0)
(0.0451733 -0.0881851 0)
(0.0570418 -0.129723 0)
(0.0697625 -0.172914 0)
(0.0832992 -0.217721 0)
(0.0978487 -0.263826 0)
(0.112497 -0.310773 0)
(-0.00312649 0.350709 0)
(-0.0031254 0.349263 0)
(-0.00375148 0.336289 0)
(-0.00228993 0.320552 0)
(0.000657613 0.302595 0)
(0.00485648 0.282487 0)
(0.0100655 0.260345 0)
(0.0160564 0.236295 0)
(0.022626 0.210433 0)
(0.0296232 0.1828 0)
(0.0369691 0.153398 0)
(0.0446575 0.122216 0)
(0.0527281 0.0892707 0)
(0.0612264 0.0546208 0)
(0.0701638 0.0183699 0)
(0.0794924 -0.0193513 0)
(0.0890924 -0.0584486 0)
(0.0988656 -0.0989499 0)
(0.108721 -0.140988 0)
(0.118624 -0.184691 0)
(0.128577 -0.23004 0)
(0.138832 -0.276647 0)
(0.148509 -0.323854 0)
(0.00141082 0.349855 0)
(0.00694225 0.347963 0)
(0.0116925 0.332947 0)
(0.0189424 0.315609 0)
(0.0276055 0.296345 0)
(0.037331 0.275208 0)
(0.0478029 0.252311 0)
(0.0586965 0.227768 0)
(0.069697 0.201637 0)
(0.0805512 0.173887 0)
(0.0911151 0.14443 0)
(0.101363 0.113182 0)
(0.111345 0.080128 0)
(0.121123 0.045345 0)
(0.130707 0.00899558 0)
(0.140005 -0.0287216 0)
(0.148838 -0.067665 0)
(0.157001 -0.107871 0)
(0.164305 -0.149525 0)
(0.170663 -0.192853 0)
(0.176105 -0.237915 0)
(0.180938 -0.284296 0)
(0.184302 -0.331147 0)
(0.00677937 0.340721 0)
(0.0186582 0.34125 0)
(0.0293235 0.323591 0)
(0.0429145 0.304595 0)
(0.0578906 0.284152 0)
(0.0737562 0.262213 0)
(0.0900974 0.238891 0)
(0.106452 0.214312 0)
(0.122336 0.188498 0)
(0.137342 0.161315 0)
(0.151242 0.132527 0)
(0.164009 0.101927 0)
(0.175754 0.0694466 0)
(0.186599 0.0351919 0)
(0.196584 -0.000579748 0)
(0.20558 -0.0375563 0)
(0.213327 -0.0755082 0)
(0.219453 -0.114448 0)
(0.223597 -0.154643 0)
(0.225579 -0.196494 0)
(0.225453 -0.240226 0)
(0.223589 -0.285447 0)
(0.219143 -0.33113 0)
(0.0128991 0.322501 0)
(0.0319892 0.328042 0)
(0.0493032 0.307664 0)
(0.069759 0.286934 0)
(0.0916329 0.265402 0)
(0.114281 0.242865 0)
(0.137168 0.219467 0)
(0.15963 0.195388 0)
(0.180913 0.17063 0)
(0.200359 0.144896 0)
(0.217625 0.117697 0)
(0.232728 0.0886079 0)
(0.245919 0.0574708 0)
(0.257463 0.0244448 0)
(0.26748 -0.0100588 0)
(0.275827 -0.0455355 0)
(0.28213 -0.0815858 0)
(0.285769 -0.118139 0)
(0.286105 -0.155577 0)
(0.282802 -0.194605 0)
(0.275965 -0.235737 0)
(0.266073 -0.278659 0)
(0.252299 -0.322163 0)
(0.0197057 0.294321 0)
(0.0468788 0.307141 0)
(0.0717127 0.284573 0)
(0.0995536 0.262079 0)
(0.128889 0.239478 0)
(0.158993 0.216479 0)
(0.18919 0.193333 0)
(0.218521 0.170374 0)
(0.245789 0.147627 0)
(0.269915 0.12452 0)
(0.290389 0.100109 0)
(0.307363 0.0735862 0)
(0.321379 0.044651 0)
(0.332981 0.0135622 0)
(0.342446 -0.0190178 0)
(0.349667 -0.0522685 0)
(0.354121 -0.0854813 0)
(0.354838 -0.11838 0)
(0.350727 -0.151514 0)
(0.341206 -0.186111 0)
(0.326515 -0.223181 0)
(0.307364 -0.26252 0)
(0.282951 -0.302679 0)
(0.0270111 0.255472 0)
(0.0631598 0.277235 0)
(0.0964932 0.253672 0)
(0.132251 0.229505 0)
(0.169575 0.205762 0)
(0.207822 0.182302 0)
(0.246191 0.159661 0)
(0.283305 0.138536 0)
(0.317218 0.119084 0)
(0.346121 0.100253 0)
(0.369266 0.0802518 0)
(0.387128 0.0576059 0)
(0.400822 0.0318035 0)
(0.411387 0.00330703 0)
(0.419375 -0.0268135 0)
(0.42477 -0.0572519 0)
(0.42692 -0.0867706 0)
(0.42437 -0.114645 0)
(0.415279 -0.141656 0)
(0.398688 -0.169964 0)
(0.375166 -0.201414 0)
(0.345893 -0.235884 0)
(0.310095 -0.271506 0)
(0.0345123 0.205505 0)
(0.0804383 0.236925 0)
(0.123318 0.214263 0)
(0.167546 0.188725 0)
(0.213311 0.163656 0)
(0.260349 0.139529 0)
(0.307824 0.117483 0)
(0.353812 0.0989995 0)
(0.395094 0.0846717 0)
(0.428544 0.072543 0)
(0.453096 0.0592237 0)
(0.469955 0.0420795 0)
(0.481328 0.0203423 0)
(0.489077 -0.00508584 0)
(0.494152 -0.0324695 0)
(0.496692 -0.0598305 0)
(0.496051 -0.0851075 0)
(0.490141 -0.106595 0)
(0.47587 -0.125355 0)
(0.451672 -0.145305 0)
(0.418822 -0.169743 0)
(0.379371 -0.198334 0)
(0.332518 -0.22837 0)
(0.0417186 0.144471 0)
(0.097896 0.184831 0)
(0.151335 0.165601 0)
(0.204591 0.139317 0)
(0.259076 0.112653 0)
(0.315325 0.0873652 0)
(0.372779 0.0656837 0)
(0.428942 0.0507139 0)
(0.478343 0.0442745 0)
(0.515413 0.0425875 0)
(0.538764 0.0392071 0)
(0.551227 0.0295389 0)
(0.557038 0.0126219 0)
(0.559334 -0.00966803 0)
(0.559446 -0.0345369 0)
(0.557679 -0.0592123 0)
(0.55381 -0.0805282 0)
(0.5451 -0.0945607 0)
(0.526266 -0.102612 0)
(0.494643 -0.112027 0)
(0.453051 -0.128556 0)
(0.404964 -0.150908 0)
(0.349197 -0.174618 0)
(0.0478235 0.0732749 0)
(0.113977 0.119817 0)
(0.178704 0.106931 0)
(0.241413 0.0810327 0)
(0.304414 0.052551 0)
(0.369542 0.0253161 0)
(0.43737 0.00317417 0)
(0.505223 -0.00749418 0)
(0.563394 -0.00164719 0)
(0.601686 0.0129445 0)
(0.618885 0.0241331 0)
(0.621382 0.0241807 0)
(0.617015 0.0121988 0)
(0.61056 -0.00766631 0)
(0.603269 -0.0309509 0)
(0.595325 -0.0543378 0)
(0.588054 -0.073773 0)
(0.578504 -0.0800329 0)
(0.557636 -0.0745536 0)
(0.520415 -0.0714339 0)
(0.472882 -0.0807 0)
(0.420637 -0.0967973 0)
(0.360603 -0.113239 0)
(0.0514843 -0.00611238 0)
(0.126087 0.0414634 0)
(0.20207 0.0377312 0)
(0.273903 0.0141705 0)
(0.343773 -0.0158954 0)
(0.41522 -0.0458848 0)
(0.491936 -0.0703483 0)
(0.572677 -0.0764653 0)
(0.639456 -0.0510159 0)
(0.673678 -0.0110942 0)
(0.676646 0.0203745 0)
(0.661931 0.0313835 0)
(0.642824 0.0229845 0)
(0.625328 0.00364085 0)
(0.60904 -0.0193028 0)
(0.592842 -0.0433624 0)
(0.582581 -0.0656992 0)
(0.575778 -0.0637626 0)
(0.559035 -0.040278 0)
(0.521748 -0.0237253 0)
(0.476411 -0.0286254 0)
(0.43003 -0.0413867 0)
(0.372367 -0.0494991 0)
(0.0505045 -0.0899905 0)
(0.131574 -0.0485932 0)
(0.216876 -0.0416926 0)
(0.294414 -0.059341 0)
(0.364601 -0.0885479 0)
(0.432091 -0.121085 0)
(0.510652 -0.154385 0)
(0.603676 -0.159959 0)
(0.675847 -0.100949 0)
(0.695768 -0.0201619 0)
(0.676003 0.0379632 0)
(0.642315 0.0561763 0)
(0.611231 0.0442341 0)
(0.585145 0.0231226 0)
(0.561695 0.00138311 0)
(0.535574 -0.0228325 0)
(0.524691 -0.0551536 0)
(0.520014 -0.0472507 0)
(0.520638 -0.00891261 0)
(0.501898 0.0145637 0)
(0.479261 0.00536636 0)
(0.446604 0.00341797 0)
(0.390385 0.0127148 0)
(0.0545649 -0.175258 0)
(0.139438 -0.145165 0)
(0.219974 -0.126862 0)
(0.287112 -0.129867 0)
(0.337811 -0.152324 0)
(0.376726 -0.191327 0)
(0.444998 -0.254891 0)
(0.548951 -0.26896 0)
(0.6124 -0.140914 0)
(0.599914 -0.0128214 0)
(0.573189 0.0640066 0)
(0.546542 0.0842927 0)
(0.515911 0.0708311 0)
(0.484462 0.0514168 0)
(0.458635 0.0316796 0)
(0.42286 0.00841634 0)
(0.419961 -0.0584497 0)
(0.432891 -0.069071 0)
(0.472518 -0.0202296 0)
(0.48592 0.0226728 0)
(0.483525 0.0221566 0)
(0.454608 0.0531194 0)
(0.401356 0.0815874 0)
(0.0679774 -0.278225 0)
(0.153491 -0.234699 0)
(0.196892 -0.196143 0)
(0.221534 -0.173248 0)
(0.234076 -0.189171 0)
(0.25855 -0.235477 0)
(0.307761 -0.3285 0)
(0.39564 -0.356836 0)
(0.419759 -0.0978093 0)
(0.386759 0.0276086 0)
(0.391791 0.124859 0)
(0.389687 0.192682 0)
(0.376009 0.185281 0)
(0.332296 0.137119 0)
(0.301099 0.0867404 0)
(0.256076 0.041666 0)
(0.265122 -0.120326 0)
(0.34748 -0.141382 0)
(0.412852 -0.0757837 0)
(0.439498 0.00912458 0)
(0.426786 0.0577124 0)
(0.418603 0.131468 0)
(0.405105 0.165172 0)
(0.0317589 -0.400386 0)