/*--------------------------------*- C++ -*----------------------------------*\
  =========                 |
  \\      /  F ield         | OpenFOAM: The Open Source CFD Toolbox
   \\    /   O peration     | Website:  https://openfoam.org
    \\  /    A nd           | Version:  9
     \\/     M anipulation  |
\*---------------------------------------------------------------------------*/
FoamFile
{
    format      ascii;
    class       surfaceScalarField;
    location    "155";
    object      phi;
}
// * * * * * * * * * * * * * * * * * * * * * * * * * * * * * * * * * * * * * //

dimensions      [0 3 -1 0 0 0 0];

internalField   nonuniform List<scalar> 
167688
(
-0.0423769
0.0255031
0.0168738
0.00813295
-0.0735464
0.0654135
0.0355208
0.0481889
-0.0837097
0.0395778
-0.0846692
0.0450914
0.0939153
-0.0912439
-0.00267141
-0.073096
0.0131515
0.0599444
0.0420985
-0.0248107
-0.0172878
-0.037505
0.0770828
-0.124641
0.0422455
0.0823957
-0.0261827
-0.00376464
0.0299474
-0.0515756
0.0597085
-0.0618618
0.0351202
0.0267417
0.116788
-0.0893749
-0.0274131
-0.0466473
-0.0152145
-0.0375378
0.0171027
0.0204351
0.0410049
0.033733
-0.0747379
0.0193919
-0.000834745
-0.0185572
0.0214803
-0.026109
0.00462869
0.0301948
0.0387581
-0.0689529
0.107817
-0.066088
-0.0417294
-0.0838012
-0.0226726
0.106474
0.0451729
0.0551862
-0.100359
0.0625892
-0.0323945
-0.0887199
0.0646036
0.0241163
0.073154
-0.000774923
-0.072379
-0.0762493
0.0261603
0.050089
0.0125014
0.0104726
-0.022974
0.0718443
-0.0801991
0.0083548
-0.0911836
0.0180877
0.000160879
-0.0839621
0.0117435
0.0691924
-0.0809359
0.0612874
-0.0571907
-0.00409673
0.136453
-0.122862
-0.0135908
-0.00432558
0.00105338
0.0032722
-0.0709294
-0.0537118
-0.118666
0.0792618
0.0394041
0.0522142
0.0556032
0.0045302
-0.0142732
0.00974296
0.0264584
0.0383084
-0.0647667
-0.0591592
-0.0370657
0.0962248
0.0338353
-0.0922481
0.0584128
-0.0636395
0.0144765
0.049163
-0.0742549
-0.0109107
0.0851656
0.0647879
-0.029267
0.0414254
-0.0199452
0.0400895
-0.0669415
0.026852
-0.00568399
0.00135841
-0.12385
0.0209783
0.102872
-0.102742
0.035732
0.0670099
-0.0024155
-0.061224
0.0698948
-0.0293194
-0.0405754
-0.0269652
0.0237085
0.00325675
0.091231
-0.0900113
-0.00121975
-0.0551762
0.0816346
0.00632949
-0.0698151
0.0634856
0.0229158
0.0191827
-0.067375
0.0612912
0.00608385
0.0869669
-0.0379174
-0.0490496
-0.0349552
0.00468479
0.0302704
0.0723016
-0.0322122
0.00862571
0.0326625
-0.0412882
-0.064238
-0.0596119
0.119704
-0.0347515
-0.0849529
-0.00123623
0.120941
-0.00723004
-0.0295642
0.0367942
0.125399
-0.0727906
-0.0526087
0.0144965
-0.00996626
0.110965
-0.0834406
-0.0275241
-0.0614523
0.00565685
0.0557954
-0.0845811
-0.0168369
0.101418
0.0553784
0.0315885
-0.00531483
0.000223818
0.00509101
-0.0616928
-0.0270271
-0.0270924
0.0214014
0.00569092
-0.00962824
0.0376268
-0.0279986
-0.00971657
0.0128197
-0.00310316
0.0903097
-0.00566349
-0.0846462
-0.0194611
0.0464195
-0.0233088
-0.0231107
-0.0586451
0.00346888
0.0218965
0.0521899
-0.0740864
-0.00223938
-0.00747719
0.0472628
0.0226321
-0.0660657
-0.0101836
0.112539
-0.0715344
0.0157267
-0.0698827
0.054156
0.0715856
-0.0509048
-0.0206808
0.0666889
-0.0603594
0.0221677
-0.00716062
-0.0150071
-0.0661544
0.0841225
-0.0179681
0.138572
-0.0608801
-0.0776922
-0.0496543
-0.0690116
0.0355708
0.0360148
0.0207396
0.0731757
0.0339121
-0.0435403
0.118403
-0.0280928
0.0735392
-0.0501543
-0.0233849
-0.028313
-0.00922479
0.0787723
-0.0670288
-0.0689717
0.00159673
0.0588362
0.0579518
0.113681
-0.108975
-0.00470618
-0.0926495
0.067388
0.0252615
0.063118
-0.102589
0.0394713
-0.012225
0.0412473
-0.0290223
-0.0195454
0.00606465
0.0134808
-0.0485161
0.0412861
-0.0553417
0.0943917
-0.03905
0.0789393
-0.118295
0.0393553
-0.0639128
0.0796395
-0.0038564
-0.00145843
-0.0478247
0.0420739
0.00575084
0.0451287
0.0316343
-0.076763
-0.0726056
0.0469335
0.0256721
-0.075482
0.0140297
-0.057882
0.0202784
0.0376036
0.0424213
-0.00475717
-0.0376641
0.00731917
-0.0729915
0.0656724
0.00495227
0.0172154
-0.126963
0.0892685
0.0376948
0.0510987
-0.0822945
0.0311958
-0.00807991
0.0799243
-0.0400227
0.0138399
0.0512915
-0.0808799
0.0295884
-0.0555941
0.0894294
-0.020094
0.0832121
-0.00190245
-0.0185987
0.0205012
0.00716762
0.0604022
-0.0675698
-0.0847845
0.0216178
0.0631667
0.0300399
-0.0422649
-0.0373522
0.0886437
0.0305762
-0.0180748
0.0116721
0.0785671
-0.0902392
0.0210839
-0.00440367
-0.0166803
-0.0162508
0.0545591
-0.105735
0.0465756
0.127821
-0.0900036
-0.0378175
0.102798
-0.0744234
-0.0283749
-0.0438372
-0.0275787
0.0714159
0.0457353
-0.00775301
-0.0379823
0.0397461
0.0630522
-0.0363724
0.0482619
-0.0118895
-0.0659924
-0.00606847
0.0720609
-0.0086438
0.0134633
-0.00481951
0.0245906
-0.0799323
-0.0695602
0.0390687
0.0304915
0.023922
0.00565933
-0.0295813
-0.121445
0.0411323
0.0803124
0.0764285
-0.0691094
-0.075953
0.0885571
-0.0126041
-0.0189671
-0.000578306
-0.037845
0.0830179
-0.0366661
0.0515322
-0.014866
0.00528451
0.0859465
-0.0865288
0.0426917
0.0707092
-0.0351694
-0.0355397
-0.0864222
0.0749918
0.0114304
-0.0256707
-0.0469349
-0.0368536
0.00189841
0.0372846
-0.00197986
-0.0353047
0.097568
-0.0524393
-0.0974796
0.072114
0.0253656
0.00782564
0.0453182
-0.0531438
-0.0729516
0.0364014
0.0365503
-0.0867468
0.0941134
-0.00736666
0.0841346
-0.00537162
-0.0787629
0.0522541
0.00503515
-0.0572893
0.0234553
0.0378322
-0.0878262
0.00718934
0.0806368
-0.056457
0.0604784
-0.00402135
0.0179297
0.0425758
-0.0605055
0.0651259
0.00558322
0.0894562
-0.0816306
-0.0190842
0.0104404
-0.0158038
-0.0454048
0.0612086
-0.0450967
-0.0818666
-0.0981176
-0.00462426
0.121254
-0.0302684
-0.0909861
0.0649832
-0.0499414
-0.0150419
0.00412143
-0.0828974
0.078776
-0.0504921
0.0346883
0.0830351
0.0206153
-0.10365
-0.119918
0.0152798
0.104639
0.072198
-0.102157
0.0299588
-0.0716223
0.0440611
0.0275612
-0.04563
0.0332487
0.0123813
-0.0459059
-0.0515737
-0.00406868
-0.0826781
-0.0747619
0.00876943
-0.0691038
0.0191208
0.049983
0.0102869
0.0495438
-0.0598307
0.0853132
0.0511396
-0.106605
0.0404509
-0.0199032
0.0710019
0.100307
-0.0475433
-0.0527635
-0.142019
0.0995793
0.0424401
0.0570155
-0.0667742
0.00975865
-0.0116179
-0.0362069
0.102979
-0.0474705
-0.0555085
-0.029333
-0.0570892
0.00137668
-0.0134564
0.0120797
-0.0179809
0.04235
-0.0243691
-0.0284207
0.0370464
0.0354962
-0.0804412
0.0449451
-0.0992518
-0.0177666
0.117018
-0.0348528
-0.0230292
-0.0196623
0.00440908
0.0152532
0.020141
-0.0445849
0.024444
0.0319521
-0.0125601
0.0756998
0.0152905
-0.0909902
-0.0983601
0.0745246
0.0238355
0.114626
0.00241598
-0.117042
-0.0155018
0.0394238
-0.0169497
0.0806489
-0.00710968
-0.020163
0.0403039
0.0555083
-0.0375786
-0.0567886
-0.00507874
0.0618674
-0.133936
0.0433747
0.0905613
0.0829911
-0.030744
-0.0522471
-0.106994
0.0213753
0.0856183
0.0202308
-0.0437194
0.0234887
0.0947925
0.0306068
-0.00836198
0.0456466
0.0610084
-0.0126883
-0.0483201
-0.112223
0.0243964
0.0176784
0.0960027
-0.0185843
0.0472886
-0.0287043
-0.0420796
0.0701304
-0.0280508
0.0738297
-0.105428
0.0315984
-0.113651
0.0393045
0.074347
-0.0723136
-0.0616224
-0.0418919
-0.0297304
-0.114844
0.0489353
0.0659085
0.029056
0.000514286
-0.0295702
-0.106777
0.0634757
0.0433017
-0.0855021
-0.0565173
-0.0343897
-4.00232e-05
0.000439478
-0.000399455
-0.00185195
-0.00458909
0.00644104
-0.0485305
-0.0279834
0.0765139
-0.0383827
0.0489374
-0.0105547
0.11224
-0.0792289
-0.0330109
-0.111424
0.0628939
-0.0162001
-0.0671457
0.0833458
0.0397021
-0.0106461
0.0645569
0.0111447
-0.0757015
0.0301156
-0.0634543
0.0333387
0.124558
-0.0665925
-0.0579658
0.0220007
0.0609904
0.0240754
0.0356439
-0.0597192
0.102124
-0.019089
0.00533848
-0.00557596
0.000237481
0.0924449
-0.0376709
-0.054774
0.00116803
0.0558475
0.0118194
-0.0877724
0.0581743
-0.0478873
-0.0906009
0.00581638
0.0278767
0.000779214
-0.0286559
-0.0179331
0.0853211
0.0543649
0.00664347
0.0298562
-0.0290082
-0.000847957
0.0222172
0.0619173
-0.0159143
-0.0297156
-0.00301245
-0.0133657
0.0163782
-0.0768985
0.0077946
-0.00405561
-0.0951961
0.0450737
0.0761808
-0.00950277
-0.0328107
0.0423135
0.0476736
0.0632911
0.0631154
-0.0390401
-0.0318875
-0.0109609
0.0428485
0.0662649
0.0367141
-0.0335281
0.00656286
0.0316731
0.0428343
-0.0745075
0.0441271
-0.00392881
-0.0401983
0.0304078
0.0160033
-0.0464112
-0.00035061
0.000311833
3.87771e-05
-0.000321977
-2.86331e-05
2.65078e-05
0.00531197
-0.00264511
0.0815844
-0.0813459
0.0660836
0.0152624
-0.0229185
-0.0149277
0.0378462
0.0549776
-0.0625345
0.00755692
0.101382
-0.0836754
-0.0177062
0.0324505
0.0325328
0.100962
-0.0264052
-0.0745566
0.124553
-0.0310008
-0.0935524
0.0870525
-0.0798849
-0.0348996
0.0253969
-0.0962666
0.0550445
0.0412221
0.00998419
0.0616785
-0.0716627
-0.045969
-0.0300862
0.0760552
0.110557
-0.0559973
-0.0545598
-0.0680792
-0.0467647
0.0574285
0.043953
-0.0533776
0.068792
-0.0154144
0.0849502
-0.0836251
-0.00132511
0.101773
-0.0597196
-0.0420531
0.104892
0.0336808
0.106362
-0.0411994
-0.065163
0.0814698
-0.0092718
0.0242324
-0.0428166
-0.109996
0.102381
0.00761574
-0.0789765
0.0624804
0.0164961
-0.0610034
0.0726755
0.000630368
-0.120549
0.0531676
-0.0743122
0.0211446
0.0849431
-0.0532699
0.000208802
-0.0732155
0.0730067
-0.0207375
-0.0958734
0.0506267
0.0452467
-0.126574
0.0387557
0.0878183
-0.110731
0.0371159
0.073615
0.000655373
0.0432129
-0.0438683
0.0480304
-0.0277996
-0.0185611
-0.0388183
0.0573795
-0.0853162
-0.0214613
-0.104576
0.07286
0.0317158
0.0967881
0.00498461
-0.0834924
0.0672923
0.0219163
-0.000832344
0.0105141
-0.0312568
0.0207427
0.105158
-0.0202081
0.0678554
-0.00329854
0.052887
-0.0860011
0.0331141
0.000579969
-0.0369523
-0.0823942
0.00813925
-0.0586473
-0.0226987
0.080108
0.0477131
-0.0666783
0.0245987
-0.04384
-0.0198672
0.0637072
0.0545887
-0.0121674
0.0656757
2.90677e-05
-0.0657048
0.0986159
-0.0423754
-0.0562405
-0.0205701
-0.0520389
0.072609
-0.0222815
0.0961113
0.0543919
0.0339952
-0.0883871
-0.0125328
-0.0833407
-0.0384032
0.018846
0.0195572
-0.00992839
0.0113051
-0.0230538
0.0211514
0.0974934
-0.0243395
-0.113809
0.0879009
0.0259076
-0.0978898
0.0513828
0.046507
-0.0295022
0.0596178
-0.12703
0.00558539
0.0647391
-0.0539539
-0.0107852
-0.0078749
-0.0485821
-0.0488947
0.0707912
0.00609781
0.0183419
-0.0244397
0.0105044
0.0262978
-0.0368022
-0.000257555
-0.0240649
0.0243224
0.0146503
0.0118262
-0.0264765
-0.0637655
-0.0025585
0.066324
-0.0729376
0.00917207
-0.0187852
-0.00775855
0.0265438
-0.0868526
0.090974
0.125275
-0.124749
-0.000526046
0.0165327
0.0229878
-0.0395205
-0.0340016
0.0112653
0.0227363
0.0543718
0.0709035
0.0811284
0.0174875
-0.00779308
0.00668569
0.00110739
0.036062
0.0884964
0.000447572
-0.000487595
-0.0264033
-0.0119999
-0.0127989
-0.0359981
0.048797
0.0798923
0.02647
0.0485827
-0.0809067
0.032324
-0.0277786
-0.00830144
0.03608
0.00659998
-0.0343785
-0.0308199
-0.0130519
0.0438718
0.0179219
0.00633154
-0.0242534
-0.000488956
0.000362652
0.000126303
0.129411
-0.0433105
-0.0861002
0.0705123
0.0588984
0.077418
-0.0800888
0.00267086
-0.0315709
-0.00872458
0.0402955
0.10627
-0.0489549
-0.0573149
-0.0584467
-0.0681273
0.0876683
-0.0969408
0.00927255
0.0371517
-0.020619
-0.00245674
0.0538319
-0.0513752
0.00558161
0.047586
0.106386
-0.00650065
-0.099885
0.0223537
0.0840319
0.00145193
-0.0582406
-0.0392667
0.0163482
-0.0294981
0.0311625
-0.0016644
-0.03573
0.000201113
0.0355289
0.00591631
-0.0751955
0.0692792
-0.0523497
0.0846381
-0.0322884
0.029862
0.0235485
-0.0534105
-0.0277259
0.000633489
-0.0789702
-0.0172964
-0.0990466
0.0653836
0.033663
-0.0454961
-0.0214101
0.0669063
-0.0168189
0.0136844
0.00313446
-0.0784468
0.0260971
0.00451869
0.0253375
-0.00776142
-0.0279686
-0.00431113
0.00469069
-0.000379557
0.0521447
-0.0213621
-0.0307826
0.023073
-0.078709
0.0556361
-0.0247345
0.0235621
0.00117239
0.0703151
-0.0360917
-0.0342234
0.00597122
-0.0905523
0.107405
-0.0246028
-0.0828021
0.111267
-0.0931975
-0.0180697
0.0686015
-0.00292575
0.0669697
-0.0916744
0.0247047
-0.0419325
-0.0433259
0.0852585
0.0943899
-0.0274202
-0.0737519
0.0531818
0.047149
-0.067005
0.0198561
0.0310849
0.0432293
-0.0743142
0.0520482
-0.0513929
-0.0998459
0.0906755
0.00917044
0.0558368
-0.0667998
0.0109631
-0.0157292
0.0262433
0.078833
-0.109891
0.0310577
0.0626021
0.00241172
-0.0650138
0.0831529
-0.080529
-0.00262387
0.0896166
0.0113451
0.0624408
0.0124287
-0.0748695
0.00942659
-0.0427879
0.0333613
0.0782637
-0.00557087
-0.0726929
0.0352133
-0.0537745
0.0274524
0.0428627
0.0524087
-0.0943412
-0.0583579
0.027538
-0.0708936
0.0080665
0.0628271
0.0148101
0.00403182
-0.0188419
0.00714948
-0.0326201
0.0254706
0.0241911
-0.0180933
0.0658732
0.0249007
-0.0907739
-0.00385037
0.0685895
-0.00837539
0.00652344
-0.024169
-0.00214768
0.0263167
0.0606244
0.00181635
-0.0125108
0.0669027
0.0739006
-0.0428156
0.034155
-0.0055663
-0.0285887
-0.093884
0.00985541
0.0840286
-0.133917
0.120819
0.0130984
-0.0251009
0.00631572
0.00824834
-0.0324174
-0.0748115
0.0309715
0.0197559
-0.0652521
0.0421281
0.00360724
-0.0379104
0.0890375
-0.0511271
0.0150468
0.0637862
-0.0138554
0.0688329
-0.0115698
0.0644568
0.0029594
0.00122064
-0.00418004
0.0700311
-0.0845411
0.01451
-0.042175
0.0776712
0.0297928
0.0194517
-0.0492445
-0.0746563
0.0748651
0.0353986
0.0720062
-0.0584052
-0.011155
0.0671803
-0.0571961
0.0593439
-0.0982821
0.0389382
-0.00664845
-0.0317342
0.0627801
0.0246309
-0.087411
0.0724239
0.00886841
-0.0812923
0.0504699
0.00167481
0.0430644
-0.0890334
0.100397
-0.0440962
-0.0563006
0.0145122
0.0731561
0.0540969
0.0605288
-0.0830623
0.0121687
-0.0722824
0.00929576
0.0629866
-0.011477
0.0442657
-0.0327887
-0.0256331
-0.037566
0.0631991
0.132288
-0.0801252
-0.0521629
-0.037059
-0.0699346
-0.0880839
0.0917986
-0.00371469
-0.0433697
-0.0673612
0.0321936
-0.0175433
0.000870591
-0.00054753
-0.000323061
-0.0572872
0.0548305
0.0515537
-0.00513418
-0.0160347
-0.0506619
0.0666966
0.0311486
-0.00327189
-0.0205837
-0.0253261
0.0459098
-0.074664
-0.0232259
0.0546833
0.0575565
0.0497145
0.0825736
0.0944249
-0.0343091
-0.0601159
0.0451384
-0.0542502
0.00911175
-0.0302902
-0.0486864
-0.0311227
0.0939027
0.0439
-0.0344734
-0.0877228
-0.00428912
0.0920119
-0.121401
0.0945354
0.0268651
-0.0873185
0.0111025
0.076216
0.113408
-0.0028513
0.122722
-0.0643372
-0.0583852
-0.0344917
-0.0345372
0.069029
0.101156
0.021566
0.00599664
-0.0937194
-0.00311543
-0.0502622
0.127231
-0.0646999
-0.0625311
-0.0891812
-0.0128343
0.102015
0.141708
-0.0481643
-0.0935436
0.0256227
0.0134812
-0.0391039
0.117268
-0.112068
-0.0052001
0.106729
-0.0343054
0.0216296
-0.00952822
0.0229602
-0.0134319
0.0201279
0.0335509
-0.0536787
0.0441617
0.0671055
-0.000812971
0.0104315
-0.00961855
-0.0730756
0.0829975
-0.0099219
0.0460586
-0.119134
0.109123
-0.0146986
0.0312124
0.00294268
-0.0109495
-0.0384307
0.0493802
0.0904623
-0.0266359
-0.0638264
-0.0296321
-0.0382832
0.0679153
0.0641003
0.0604529
-0.0899306
0.085032
0.00489857
-0.0268631
-0.0216823
0.0485454
-0.000510712
0.0266323
-0.0261216
-0.09548
-0.0192287
0.114709
-0.0192298
-0.000432471
-0.0968116
0.00872768
0.115184
-0.08196
-0.0332244
-0.0943952
0.0564848
0.0190357
0.0583823
-0.00397473
0.0193033
-0.0153286
-0.0193978
0.0163854
-0.12536
0.0601444
0.0652159
0.0610101
-0.0277261
-0.0332841
-0.0264283
0.075945
-0.0495166
0.00669578
-0.0123358
0.00564002
-0.0978498
0.0860869
0.0117629
0.123025
-0.0134202
-0.109605
0.113079
-0.0472061
0.0843697
0.0386556
-0.00528937
0.0119851
0.0384124
-0.0274737
-0.0109387
-0.0723651
0.0223174
0.0500477
-0.0571723
-0.0651884
-0.00717667
0.0378217
-0.05198
0.0141583
0.0635028
-0.007666
-0.0181631
-0.0620422
0.0802053
0.0291337
0.00927877
-0.0837625
0.00327978
0.0804828
0.0384652
0.0346766
-0.0731417
0.0202603
-0.0480284
0.0277681
-0.0586628
-0.0627377
-0.0401202
-0.0736884
0.026638
0.0115162
-0.0381543
0.0582155
0.094662
0.0359488
-0.0287993
0.0214436
-0.00724378
-0.0141998
-0.0979391
0.107097
-0.00915744
0.0668923
-0.0893403
0.022448
-0.0625048
0.0280131
-0.00730366
-0.000489418
0.02069
-0.110621
-0.0798379
0.0765956
0.00324236
3.39598e-05
0.000277873
-0.0829604
0.0669257
-8.95317e-05
-0.000232445
0.0696469
-0.0287522
-0.0408947
0.0311877
-0.0426647
-0.0708451
-0.00137258
0.0722177
-0.00109536
-0.0249385
0.0260338
0.105379
-0.0325278
-0.0728517
-0.0583411
0.0996424
-0.0413013
0.0728728
-0.00947213
-0.0634007
-0.0624339
-0.00984853
0.0969046
-0.0446504
-0.030074
0.00533955
-0.013596
-0.0862499
-0.0485816
-0.0853354
-0.0658532
0.0290554
0.0367978
-0.0197298
0.0826089
-0.0628791
-0.0137136
0.0618467
-0.0481331
-0.0128365
-0.0826434
-0.0432627
0.0484838
-0.00522109
0.000321925
0.0374998
-0.0824306
-0.00717169
0.0896023
0.00757408
0.0533285
-0.0609026
0.0849818
-0.012109
0.0258063
-0.0590952
0.0332889
-0.0143988
0.129583
0.0686951
-0.0428887
0.0920883
0.0141816
0.0118221
0.0713308
0.0753227
-0.0914378
0.0161151
0.0187182
-0.0721502
0.053432
-0.0482125
0.0882801
-0.0400676
0.0599607
0.0403462
-0.0319108
-0.0484636
0.0803744
-0.0184311
-0.0379395
0.0563706
-0.0280004
0.0873442
-0.00254207
-0.0478939
0.050436
0.0910088
0.00143611
-0.05037
0.0235069
0.0640664
0.0162623
-0.0803287
0.0925003
-0.0223503
-0.07015
0.0385584
-0.0342817
-0.00427667
-0.144504
0.04956
0.0949444
0.00738466
-0.0587436
0.0513589
-0.0528035
-0.00526078
0.0580643
0.00679406
-0.0711666
0.0643725
-0.0888054
0.0371564
0.0516489
0.0137994
0.00704499
-0.0208444
-0.112632
0.0288695
0.0961084
0.0917959
-0.0405274
-0.0512685
0.0416044
-0.0600355
0.0245185
-0.0435172
-0.0107175
0.0542347
-0.0928682
0.0712882
0.02158
-0.0408525
-0.0691438
-0.0616728
0.0684668
-0.0162131
-0.0729681
-0.0140841
0.0397068
0.106211
-0.0580776
-0.0481338
-0.0805115
0.0474481
0.0330635
-0.0219889
0.0705716
-0.0553285
0.0425296
-0.00678426
-0.0100346
6.35438e-05
8.53654e-05
-0.000148909
0.0933692
-0.0675812
-0.025788
0.0028044
-0.00585558
0.00305118
0.0889523
-0.0269926
-0.0619597
-0.100612
-0.0247483
0.117938
-0.0637634
-0.0541744
0.11265
-0.0236974
0.0935667
-0.0844087
-0.009158
0.0583983
-0.0781281
-0.117691
0.0671766
0.0505145
0.038641
0.0549257
-0.0980295
0.0819218
0.0161077
-0.0277662
-0.0520717
-0.0285194
0.0302832
-0.00176381
-0.0265258
0.0333668
-0.00684098
-0.0156902
0.0147158
0.000974322
-0.00119722
-0.0407417
0.0419389
0.021355
8.85695e-05
-0.0433159
-0.0454895
0.000216392
0.000654198
-0.0552389
0.0920771
-0.0368382
0.0396471
-0.0759637
0.0363167
-0.0449258
0.040372
0.00455384
-0.0371734
0.0768205
-0.0183675
0.0852598
-0.0733468
0.0323984
0.0409484
-0.0428374
0.0574857
-0.0146483
-0.0698703
0.0382994
0.0663639
-0.0129504
-0.0534135
0.0395932
0.0178695
-0.0574626
-0.0412956
0.0400984
0.106225
-0.0279613
0.0433244
-0.01394
-0.0293844
0.0725649
0.00683123
-0.0793962
-0.0609245
-0.0292729
0.0901974
-0.0586275
0.0151103
0.0285025
-0.0295978
-0.0710602
-0.0734442
0.0231196
-0.0713321
-0.0710566
0.0546695
0.0163872
-0.0231119
0.0433722
0.0900622
-0.0520713
-0.0379909
-0.000102633
0.0210653
-0.0209626
0.0954981
-0.0452574
-0.0502407
0.118833
-0.0434902
-0.0753426
0.0392803
0.0286336
-0.0679139
-0.0220674
-0.0228584
0.0100611
0.000731578
-0.0107927
0.0952652
0.0211401
0.0715574
-0.0926975
0.00446752
-0.0597064
-0.0225522
0.0784663
-0.0559141
-0.00961968
0.0400275
0.103319
-0.0231114
-0.0802078
-0.0583698
0.0403888
-0.0688419
-0.00210679
0.0709487
0.061758
-0.0936687
-0.03816
0.0353308
0.00282919
-0.0321736
0.0523014
-0.0145958
-0.0549645
0.0695603
-0.0905999
0.0722748
0.0183252
0.0449411
0.0296059
-0.074547
0.0462386
0.00741149
-0.0536501
-0.034499
0.00797322
0.0342327
0.00909177
0.010701
-0.0202293
-0.0588265
0.0312043
0.0276222
0.08037
-0.00276177
-0.0776082
0.0648073
-0.0206803
-0.0649842
0.0723688
-0.0756931
0.122712
-0.0470186
0.00133246
-0.0445951
0.0119103
-0.0876034
-0.0989753
0.0380508
0.045182
-0.00432744
-0.0408545
-0.0980295
-0.0877256
0.0695625
-0.00051248
-0.00120026
0.00171274
0.0499181
-0.0645139
0.0492942
-0.0195014
-0.0101675
-0.0476964
0.0578639
0.0540133
-0.0765655
-0.0659411
0.0581309
0.00781022
-0.0613835
0.0672998
-0.0144538
0.0594116
-0.0449578
-0.0453572
-0.0134693
0.090249
-0.067176
-0.0541974
-0.0211291
0.0753265
0.0472106
0.0602006
-0.107411
-0.0873678
0.0514953
0.0358725
0.0292251
0.0455316
-0.0747567
-0.0389137
-0.0590254
0.0533281
0.00332639
-0.0566545
0.0342179
0.0830505
0.0816495
-0.0420563
-0.0342954
-0.0315578
0.00554357
0.0135689
-0.0191125
0.00645869
-0.087466
0.0810073
-0.0472861
-0.00885265
0.0561388
0.0886002
-0.0906525
0.00205232
0.00380361
0.0291154
-0.0329191
0.0143375
-0.0183122
0.0352987
-0.088198
0.0528993
0.0517508
0.0256629
-0.0774137
-0.0277887
-0.0899024
-0.00347228
0.0172717
0.0665186
-0.0835533
0.0170348
-0.0891119
-0.00188411
0.090996
0.0258813
0.0502795
-0.0761609
-0.0507204
0.0494848
0.00123557
-0.0112558
-0.0760627
0.0297614
-0.0429314
0.01317
0.0563735
-0.0101349
0.026023
-0.0191259
-0.0068972
0.0825355
-0.0199334
0.0195154
-0.0643367
0.0448213
-0.0682877
0.0154842
0.0983278
-0.0348287
-0.0634991
-0.0254785
0.0647588
-0.0587954
0.106458
-0.0476628
0.104636
0.00754973
-0.112186
-0.0680438
-0.00778814
0.075832
0.00812511
-0.0791817
0.0979024
-0.0695617
-0.0283406
-0.0386855
0.056508
-0.0178225
0.0985379
-0.0467871
-0.0597475
0.0808876
0.0363063
-0.0365639
0.0180225
-0.0884002
0.0703777
-0.0929106
0.0248668
0.0189932
-0.0195039
0.0723894
-0.00602549
0.0637873
-0.0334694
-0.0303179
-0.0275695
0.0159015
0.011668
0.00929273
-0.0101057
-0.0281225
-0.054308
0.0943026
-0.0697377
-0.0245649
0.0121158
-0.0754939
0.0633781
-0.10271
0.026876
0.075834
0.0193836
0.0852526
0.0804762
-0.0139576
0.0162248
0.0560007
-0.0722255
-0.132053
0.0606736
0.0713797
-0.0983046
-0.0337487
-0.0423687
0.0700531
-0.0276844
0.00960136
-0.00803419
-0.00156718
-0.0751947
-0.0182155
0.0934102
-0.00514252
-0.0691568
0.0742993
0.0375861
-0.0270818
0.00428158
-0.0387259
0.0344443
0.0392158
-0.0393185
-0.109977
0.00726729
0.0910152
-0.072297
0.0120482
-0.0209374
0.00888926
0.0877366
-0.0147916
-0.072945
0.0395143
-0.0908506
0.0513363
-0.0348094
0.0832823
-0.048473
-0.124944
0.0528862
0.0720574
0.0366014
-0.0323198
0.042299
-0.117494
0.0344289
-0.0658927
0.0314638
-0.103214
0.0641903
0.0390238
0.0515798
-0.0431595
-0.00842033
0.103867
-0.0519667
-0.0519007
0.0159979
-0.0765823
0.0605844
-0.027213
-0.00678855
0.0902933
0.0130259
0.0303802
-0.0627926
0.0324124
0.0864516
-0.0469374
-0.0303053
-0.056016
0.0863213
-0.0383602
0.00562015
0.03274
-0.0705931
-0.0543504
0.074193
0.0158692
0.00587117
0.00118208
-0.00705326
-0.0785949
0.0907107
-0.0690611
0.0300221
0.0390391
-0.0713011
0.0394135
0.0158375
0.0478621
-0.0636996
-0.0402993
-0.0460019
0.0863011
-0.0358274
0.0394939
-0.00366651
0.00712878
0.0814714
-0.050372
-0.0301395
-0.0599272
0.0393435
-0.0419326
-0.0559172
-0.065298
0.00486653
0.0604314
0.0117824
0.0815868
0.0357338
0.0567665
0.0285177
-0.0846417
0.056124
0.0613991
0.0424683
-0.0143724
-0.0457859
0.0601583
-0.0800394
0.0311668
0.0488725
-0.100513
0.0159898
0.0845233
-0.0940392
0.0190595
0.0749798
-0.0413801
-0.0524358
0.0938159
-0.00662937
0.00231824
-0.00694696
-0.0297192
-0.0776722
0.0542503
0.0234219
-0.00274905
0.0560771
0.114879
-0.105565
-0.00931419
-0.0482634
0.0767811
0.0344639
-0.016542
-0.00513852
0.0319655
-0.026827
-0.030785
0.0980388
-0.0672538
0.00189089
-0.00240337
0.0609799
-0.0695834
0.00860347
-0.0901314
0.0726504
0.017481
-0.0732539
-0.0234728
0.0967267
0.0101859
-0.0488715
-0.0685347
-0.00913749
0.0454696
-0.0762546
-0.000124742
-0.000364214
-0.0071432
0.0404969
-0.0333537
0.0965892
-0.0673641
-0.061624
-0.0415901
0.0713528
-0.0950139
0.0236612
0.0226815
-0.023042
0.000360479
-0.0495149
-0.0378528
-0.0181263
-0.0266818
0.0448081
0.0492667
-0.0965024
0.0472357
-0.0314182
0.0658471
-0.064507
0.0803445
-0.0238143
-0.00375522
-0.0411032
0.0903698
-0.0770311
0.0117331
0.0670893
-0.0683519
0.00126252
-0.0469146
0.0313692
0.0155454
-0.0833253
0.101348
-0.00795589
0.0637447
-0.0557888
0.100612
0.018221
0.0154693
-0.00540821
-0.0416584
0.0801065
-0.0384481
0.0986483
-0.0340395
-0.0646089
0.0473071
0.00427265
0.0223304
0.0473165
-0.0273809
-0.0627505
0.0200861
-0.09334
-0.050547
0.0324208
0.0355187
0.106092
-0.0105941
0.010647
0.0501889
-0.0608358
0.070458
-0.044112
-0.026346
0.000826538
-0.043664
0.00502239
0.0102349
-0.0152573
-0.0196505
0.0165558
0.00309468
-0.0666666
0.0641245
0.0517151
-0.059671
-0.0479079
-0.0504523
0.0078856
0.0202937
-0.0281793
0.056706
-0.0263258
-0.0881657
0.0727483
0.0154174
-0.105136
0.0703263
-0.0195866
-0.0573331
0.0769197
-0.0596926
-0.0448832
-0.0942626
0.00470832
0.0895543
0.0904654
0.00818291
-0.0516621
0.0581208
-0.0365242
0.00550574
0.0310184
-0.118031
0.0677752
0.0502562
0.113411
-0.0380503
-0.075361
-0.0759962
0.0287101
0.0760519
-0.0760519
0.0630751
-0.0933804
0.0324237
-0.0176136
-0.0464846
0.0340654
0.0124192
-0.0733254
0.0808995
0.00512112
-0.073963
-0.00775583
0.0134959
-0.00574005
-0.0990714
0.0694393
0.00453902
-0.00157962
0.0777023
-0.0106114
-0.0670909
0.0883593
0.00996855
0.0682691
-0.0149491
-0.05332
-0.097011
0.0382156
-0.0834875
0.0341001
0.0493874
-0.0182175
-0.0282672
0.0653862
-0.109143
0.0437564
-0.00844653
-0.0564716
0.0649181
0.0833059
-0.0738862
-0.00941971
0.0994155
-0.0942899
-0.00512563
-0.0262082
-0.00256315
0.0287714
0.0623265
-0.073203
0.0108765
0.0149074
-0.0571287
0.0422212
0.0483008
0.0651105
0.002323
0.00727837
-0.0255634
0.00271658
0.0228468
0.0856221
-0.0384115
-0.0878204
0.0885481
-0.000727721
0.0402768
-0.0909391
0.0506623
0.0772384
0.0334026
-0.110641
0.00752387
0.075933
-0.0834568
-0.106093
0.0865062
0.0916777
-0.0333761
-0.0583017
0.0921323
-0.0245053
-0.067627
-0.0510053
-0.029644
0.0806493
0.0325817
0.0591942
-0.0917759
-0.00559689
-0.0696323
0.0752292
0.0863317
0.00208382
-0.0884155
0.126309
-0.0504137
-0.0758951
-0.062897
0.103079
-0.0401816
-0.133162
0.0781288
0.0550329
-0.10265
0.0265035
0.0761467
0.0808117
-0.0779769
-0.00283478
-0.0702696
0.065127
0.0225999
-0.0766955
0.0540956
-0.00905883
0.0744451
-0.000154139
-0.025231
0.0253851
-0.035039
0.112277
0.0390493
0.0355531
-0.0746024
-0.0882202
-0.0160505
0.104271
0.0419388
0.0190713
0.0834461
-0.0647146
-0.0187315
0.13444
-0.0272058
-0.107234
-0.067367
0.0339008
0.0334662
0.0445597
-0.0472512
0.00269151
0.105227
-0.0335948
-0.0716318
-0.0304726
0.102598
-0.0721257
-0.0335893
-0.0499741
0.0835633
0.0769212
-0.0328601
0.0170304
0.0103057
-0.0273361
0.007218
-0.000784025
-0.00643397
0.0469289
4.61101e-06
-0.0894373
0.0182327
0.0712046
0.0678184
-0.0942637
0.0264453
0.0445415
-1.47601e-05
-0.0445267
-0.0261562
0.043335
-0.0171787
0.0923524
0.00555
0.0799418
-0.044643
0.0894801
-0.0595825
-0.0298976
-0.0153528
-0.0245666
0.0399194
0.115316
-0.0584917
-0.0568248
0.0139707
0.0673067
-0.0812774
0.0359406
0.0289831
-0.0649237
-0.124915
0.0524112
0.0725042
0.0601079
0.0299205
-0.0900284
-0.0819478
0.0312159
0.0507319
-0.0037993
0.0037993
-0.0108867
0.116113
0.000616985
-0.000503397
-0.000113588
0.0299189
0.0573687
-0.0872876
0.0600081
-0.0321832
-0.0278249
-0.0895206
0.0362857
0.0532349
-0.0531492
-0.0464286
0.0995778
-0.0512508
0.0533894
-0.0021386
-0.00678982
-0.0611076
0.0678974
0.0139391
0.0658911
-0.0798302
-0.0486785
0.0566063
-0.00792774
0.00478838
0.0228334
-0.0276218
-0.0515978
0.0897456
-0.0381478
0.00915837
-0.0339691
-0.111711
0.0489116
0.0627998
-0.00342334
0.0793708
-0.0759474
0.1033
0.00076082
-0.10406
-0.0097924
0.0190655
-0.00927312
0.0183507
0.0459226
-0.0642734
0.0490215
-0.0574681
-0.0213863
0.092739
0.0301457
-0.0532865
0.0231408
-0.0508773
-0.0164897
-0.0296726
-0.0538855
0.0835581
0.0869026
-0.0591684
-0.0277342
0.0265642
-0.0441499
0.0175857
0.0611848
0.0421148
0.0371769
0.0492451
-0.086422
-0.103946
0.0289261
0.0750198
-0.0499132
-0.0528744
0.102788
-0.0207047
0.0631507
-0.042446
-0.000616803
0.0530141
-0.0523973
0.0963113
-0.0507837
-0.0455276
0.0233535
-0.0734453
0.0500917
0.111939
-0.0530045
-0.0589346
0.0792779
-0.0169515
0.0778653
-0.0283661
-0.0494991
-0.10931
0.043578
0.065732
0.0518065
-0.101212
0.0494056
-0.0191596
0.00291912
0.0162405
0.0842772
-0.00657494
-0.0390613
-0.00313825
0.0421995
0.0766724
-0.0994359
0.0227635
0.0594659
0.0239763
-0.0834422
-0.0106612
0.0289466
-0.0182854
0.010753
-0.0521036
0.0413506
-0.13812
0.0794674
0.0586524
0.0727321
-0.0950786
0.0223465
0.0718979
-0.0238766
-0.0480213
0.0482079
-0.0191154
-0.0290924
-0.056812
0.0039276
0.0528844
-0.0910443
0.0772847
0.0137596
-0.107308
0.040162
-0.083131
0.0510949
0.0320361
-0.080175
0.0625295
0.0176456
0.0194166
0.00760026
-0.0270169
-0.000276817
0.0464735
-0.0461967
0.1247
-0.0712056
-0.0534941
0.0675716
-0.0531706
-0.014401
-0.00843707
-0.0306994
0.0391365
-0.00736026
0.100204
-0.0928439
-0.0690994
0.0313346
0.0377648
-0.0264315
-0.0452783
0.0717098
-0.0738954
-0.00492018
0.0788156
-0.0345357
0.00503763
0.0767095
-0.0993323
0.0226228
0.0917384
-0.0634204
-0.028318
-0.0812168
0.0878611
-0.00664431
-0.129384
0.0669359
0.0624481
0.0130276
-0.0131227
9.5126e-05
0.030636
-0.0250067
-0.00562931
0.0222323
-0.0558067
0.0335744
0.0971505
-0.078563
-0.0185875
-0.00896316
-0.0550811
0.0640442
0.0686167
0.0313833
0.0310309
0.00372309
-0.034754
0.0229299
0.0641752
-0.0871051
0.0378768
-0.031922
-0.00595485
0.0397561
0.00218496
-0.0419411
0.085382
0.0265571
0.111443
-0.116229
0.00478594
-0.071189
-0.000435888
0.0716249
0.0799495
0.00572522
-0.0856748
-0.0440359
0.0109737
0.0330622
0.0177886
0.093654
0.0551385
0.0026418
-0.0577803
0.103484
0.0081722
-0.111656
0.0826667
0.0125036
-0.0951703
0.0477268
0.0245855
-0.0723124
0.0400227
0.0275293
-0.067552
0.00301252
0.100472
0.0869669
0.00359122
-0.0905581
0.085999
-0.00604943
-0.0735372
0.0291166
0.0444206
0.0417986
-0.045641
0.00384242
-0.037603
0.0342924
0.00331063
0.064573
-0.0359136
-0.0286594
-0.00867951
-0.00155996
0.0102395
0.0424453
0.021342
-0.0595834
0.04038
0.0192034
-0.0345643
0.068473
-0.0339087
0.0221925
0.0240948
-0.0462874
-0.107645
0.107689
-4.44914e-05
-0.0522948
0.0192642
0.0330305
-0.0157612
-0.0626162
0.0783774
0.0380545
-0.0635228
0.0254683
0.0394531
-0.0347833
-0.00466979
0.101742
-0.109468
0.00772596
0.0221633
-0.0234458
0.00128249
-0.0166623
-0.0637362
0.0803985
0.0399415
-0.0828927
0.0429512
0.0425243
-0.0166315
-0.0258928
0.0315609
-0.0459333
0.0568129
-0.0886011
0.0317882
0.117003
-0.0172812
-0.0997213
-0.116548
0.0132709
0.0377003
0.077179
-0.0658891