/*--------------------------------*- C++ -*----------------------------------*\
  =========                 |
  \\      /  F ield         | OpenFOAM: The Open Source CFD Toolbox
   \\    /   O peration     | Website:  https://openfoam.org
    \\  /    A nd           | Version:  9
     \\/     M anipulation  |
\*---------------------------------------------------------------------------*/
FoamFile
{
    format      ascii;
    class       volVectorField;
    location    "155";
    object      U;
}
// * * * * * * * * * * * * * * * * * * * * * * * * * * * * * * * * * * * * * //

dimensions      [0 1 -1 0 0 0 0];

internalField   nonuniform List<vector> 
112055
(
(0.480313 0.01593 0)
(0.503132 -0.00421006 0)
(0.521724 -4.70194e-05 -7.37996e-21)
(0.527773 -0.00145376 2.36096e-21)
(0.514104 -0.0721871 -3.73618e-21)
(0.49984 0.00433806 0)
(0.481463 0.0152723 -6.68864e-20)
(0.527597 -0.00159867 0)
(0.515891 -5.0981e-05 -9.20188e-22)
(0.481463 -0.00247766 3.5844e-21)
(0.503118 -0.00429438 1.72155e-20)
(0.483128 0.0191965 -4.51154e-20)
(0.515796 -0.000176112 2.13879e-22)
(0.483147 0.0188276 4.30166e-20)
(0.461087 -0.00590058 -2.61557e-20)
(0.520103 0.00242621 -1.04612e-21)
(0.449548 0.00975509 8.08188e-20)
(0.471547 -0.0463068 -2.25304e-21)
(0.503705 -0.00615725 0)
(0.516417 0.00499197 -7.53027e-22)
(0.520403 0.00464797 -5.92736e-21)
(0.524302 0.018346 0)
(0.503717 -0.00624797 -9.91215e-21)
(0.513098 -0.00931901 -1.90999e-21)
(0.433935 -0.0604202 0)
(0.517701 -0.0332532 1.88533e-21)
(0.43287 0.0254881 -1.99985e-20)
(0.500499 0.00173735 0)
(0.499884 0.0042837 0)
(0.52084 0.00465355 6.00286e-21)
(0.499992 -3.31117e-05 -4.6399e-20)
(0.544054 0.0126299 0)
(0.517267 2.09462e-05 0)
(0.0216896 0.0552344 -1.85948e-20)
(0.515914 -4.5429e-05 9.29371e-22)
(0.516199 -0.000231451 1.69334e-21)
(0.516509 0.00492268 0)
(0.358305 0.119716 1.63472e-20)
(0.53342 -0.0126311 0)
(0.517789 9.51115e-05 -4.20567e-22)
(0.515702 -4.85445e-05 -2.79241e-21)
(0.531754 -0.0125811 8.79471e-21)
(0.510595 -0.0044706 1.18229e-21)
(0.521557 -6.29198e-05 1.23271e-20)
(0.470525 -0.0465633 0)
(0.51452 -0.00697272 0)
(0.0288517 0.0575552 0)
(0.471616 -0.10589 0)
(0.541238 0.0120663 7.23767e-22)
(0.531346 -0.0127876 1.79043e-21)
(0.52715 -0.00170945 6.70818e-21)
(0.54546 0.106901 0)
(0.525363 0.00851661 2.34642e-21)
(0.532979 -0.0121334 2.38439e-20)
(0.516792 0.00128483 3.83765e-21)
(0.481207 0.0157388 3.27623e-20)
(0.398146 0.100722 -5.31059e-22)
(0.401297 -0.0346509 0)
(0.538825 0.0652978 0)
(0.514535 -0.00685038 -4.36607e-22)
(0.48786 -0.00843186 2.3139e-20)
(0.47621 -0.10391 -1.51527e-20)
(0.521079 -0.00149258 2.67261e-21)
(0.521266 -0.00138441 -2.82644e-21)
(0.494701 -0.000969846 0)
(0.516264 -3.56369e-05 -2.01449e-21)
(0.352509 0.12065 0)
(0.50357 0.0340083 0)
(0.508467 0.0129209 9.98655e-22)
(0.517766 0.000663165 3.70896e-21)
(0.400996 -0.0464235 2.78487e-20)
(-0.0762739 0.0613806 5.06289e-22)
(0.512923 -0.00932141 0)
(0.441377 0.00684466 7.33797e-20)
(0.547726 -0.0180345 -5.75399e-20)
(0.262217 -0.208396 -9.73362e-21)
(0.502547 0.000646588 -3.18771e-21)
(0.480574 0.0156362 -3.4611e-20)
(0.545591 0.0415825 -2.16182e-20)
(0.532488 -0.0121872 -3.13595e-20)
(0.438296 -0.028292 1.06846e-20)
(0.224924 -0.193422 -1.01602e-20)
(0.527121 -0.00180948 0)
(0.519847 -0.0337842 3.01267e-21)
(0.520386 0.00259686 -3.16713e-21)
(0.506711 -0.000946971 7.808e-21)
(0.523898 -0.0317981 -1.39087e-20)
(0.516716 0.00122712 3.83437e-21)
(0.137373 -0.0870443 1.25246e-19)
(0.516585 0.00131923 0)
(0.521042 -0.00369636 3.38534e-21)
(0.516196 -0.000205521 -1.75311e-21)
(0.524382 -0.0317255 0)
(0.511257 -0.0701643 5.48114e-21)
(0.551924 -0.0176894 0)
(0.502626 0.000725146 5.13433e-21)
(0.548182 0.029981 -7.68998e-20)
(0.461727 -0.00588259 4.4574e-20)
(0.499991 -3.89965e-05 2.11702e-20)
(0.396838 0.0960125 0)
(0.515776 -0.000175989 1.36583e-22)
(0.515852 -0.000339464 -4.691e-24)
(0.515853 0.000626248 -2.33482e-21)
(0.502241 -0.00512647 -3.28314e-20)
(0.606949 -0.0345267 0)
(0.368101 0.0134547 -3.32073e-20)
(0.494727 -0.00107099 0)
(0.529662 -0.0224143 0)
(0.515679 -6.73526e-05 1.09976e-21)
(0.506735 -0.000764359 0)
(-0.0773369 0.064275 7.21213e-20)
(0.520205 -0.0793452 -1.51011e-20)
(0.516585 0.000104555 0)
(0.502949 0.0217192 1.54047e-20)
(0.508412 0.0128066 0)
(0.475455 0.00907594 6.4562e-20)
(0.49395 0.0201328 0)
(0.517507 0.00163944 0)
(0.154356 -0.0707082 -1.56474e-19)
(0.516132 -0.000264727 -6.53845e-22)
(0.50054 -0.00242935 9.18243e-21)
(0.500504 0.00177821 0)
(0.481592 -0.00222244 0)
(0.506157 0.0397052 5.33988e-21)
(0.515741 -5.23395e-05 5.33956e-21)
(0.502342 -0.00514961 1.05857e-20)
(0.500468 0.0411941 -5.97805e-20)
(0.511533 0.0143525 -3.7664e-21)
(0.519003 0.00135788 -2.96255e-21)
(0.604846 -0.0332274 0)
(0.504233 0.0410522 -9.1374e-22)
(0.433451 0.0268033 -7.2094e-20)
(0.515685 0.0330097 1.25732e-21)
(0.405153 0.0190352 8.38037e-20)
(0.533951 -0.0125864 9.52968e-21)
(0.517875 9.08093e-05 0)
(0.515782 -0.000788206 -1.92281e-21)
(0.507796 0.00595968 0)
(0.520344 0.00184783 3.17875e-21)
(0.275821 0.0197183 -2.5409e-21)
(0.507914 0.00596983 0)
(0.308574 -0.089611 0)
(0.548165 0.0413553 -1.03073e-20)
(0.452753 -0.219679 0)
(0.529998 -0.0231131 2.74246e-21)
(0.52008 0.0187716 1.40497e-21)
(0.476119 -0.0356097 7.85287e-21)
(0.525822 0.0168026 0)
(0.517422 0.00153773 -3.7767e-21)
(0.506358 0.0589413 0)
(0.380631 0.0103359 0)
(0.523322 0.0174667 0)
(0.486148 0.00267776 0)
(0.524252 0.00872968 1.09458e-22)
(0.520304 0.0017669 0)
(0.501489 -0.0121038 2.96463e-20)
(0.498522 0.00019168 -1.58747e-20)
(0.502791 0.0214009 0)
(0.537436 0.0650339 -9.55662e-21)
(0.524058 0.0365242 7.42307e-21)
(0.516549 0.000103378 2.93705e-23)
(0.399753 -0.0512182 -3.44915e-21)
(0.518763 0.00175015 -1.72234e-22)
(0.516525 0.00467582 1.04366e-21)
(0.515124 3.47046e-06 1.55814e-21)
(0.511755 0.00514722 5.04667e-21)
(0.497771 0.00355627 -5.17701e-21)
(0.544437 0.0119804 9.74857e-22)
(0.51608 0.000195796 -2.74575e-21)
(0.494585 0.00292032 0)
(0.498968 -0.00837088 -5.96897e-20)
(0.501545 -0.0122173 1.66695e-20)
(0.518654 0.00172071 6.60002e-22)
(0.452845 -0.213082 1.3073e-21)
(0.528207 -0.00615544 -7.74935e-21)
(0.516155 -0.000265128 1.03179e-21)
(0.539964 0.0131568 -5.46037e-22)
(0.518124 -0.00118281 2.95934e-21)
(0.522432 0.0144341 1.23404e-20)
(0.54362 -0.0269983 -6.19725e-21)
(0.528584 -0.00558222 3.77619e-20)
(0.517286 -0.00418462 3.14029e-21)
(0.527319 -0.00499052 -5.28059e-21)
(0.499938 -5.70029e-05 -6.69358e-20)
(0.53665 -0.0150101 -3.76218e-20)
(0.48392 -0.0492236 2.53508e-20)
(0.400062 -0.0556272 4.22584e-21)
(0.515129 2.83097e-06 -1.94032e-21)
(0.550476 0.0416575 5.80408e-21)
(0.514911 0.0113401 -4.60315e-21)
(0.508253 -0.00851487 0)
(0.517272 5.02657e-05 5.68315e-21)
(0.51647 0.00135103 -1.32564e-21)
(0.50054 -0.0025042 1.66894e-20)
(0.519569 7.32014e-05 -4.33712e-21)
(0.521638 -0.00460462 -3.6904e-22)
(0.537786 0.017848 0)
(0.525059 -0.0774539 -2.33019e-20)
(0.519887 0.0128938 2.22144e-21)
(0.498583 0.000198318 4.88153e-20)
(0.379581 -0.00250028 -2.69725e-20)
(0.491982 0.00282464 3.73267e-20)
(0.487657 -0.00812997 4.77435e-20)
(0.485089 -0.0350536 0)
(0.536109 -0.0316161 -1.7272e-21)
(0.475924 0.00886779 -5.45858e-20)
(0.363011 -0.075105 0)
(0.496249 0.0173722 2.97754e-20)
(0.466414 0.00907251 -8.35601e-20)
(0.515793 0.000378401 0)
(0.510003 -0.00725028 3.40232e-21)
(0.515154 -2.65804e-05 0)
(0.47686 -0.0358855 -3.17133e-20)
(0.515828 0.000448087 3.69127e-23)
(0.547168 0.0298902 4.24547e-20)
(0.496021 0.0175056 1.76424e-21)
(0.498816 -0.00841323 3.69624e-20)
(0.525009 -0.0208932 0)
(0.51548 0.000118854 5.17726e-23)
(0.527485 -0.00109455 0)
(0.522055 0.000361727 -2.36628e-22)
(0.55808 0.018215 0)
(0.516253 -4.09071e-05 1.79538e-21)
(0.524454 0.036134 -8.97493e-21)
(0.561561 -0.0147966 1.01699e-19)
(0.516074 0.000239465 1.81531e-21)
(0.515857 -0.000337696 5.66869e-22)
(0.4979 0.0196855 -2.40466e-20)
(0.505804 -0.010871 -7.50617e-21)
(0.516032 0.000391831 4.8371e-23)
(0.516165 -0.000281119 1.96654e-21)
(0.515509 0.000122746 -1.00064e-22)
(0.536427 -0.0153898 -2.57726e-20)
(0.501152 0.000900564 -1.48879e-20)
(0.55927 -0.0922656 0)
(0.404428 -0.118336 -1.13567e-20)
(0.52136 -0.00478835 2.61005e-21)
(0.516166 -0.00026472 0)
(-0.0113312 -0.0187657 1.11367e-20)
(0.258344 0.0517142 5.18308e-20)
(0.480501 -0.0472099 1.22545e-21)
(0.535426 0.0218818 -2.67876e-20)
(0.51684 -0.000865284 1.51501e-21)
(0.479028 -0.0491517 1.89874e-23)
(0.515438 -0.000210009 -2.48683e-21)
(0.559234 -0.0907581 2.44654e-20)
(0.532092 0.0248437 -1.80818e-20)
(0.532219 -0.0031257 2.66276e-20)
(0.524796 -0.0274283 1.06972e-20)
(0.527483 -0.00123115 4.32631e-21)
(0.516087 0.013689 0)
(0.51706 -0.00398818 -4.94108e-21)
(0.0802166 -0.00619788 0)
(0.52026 0.00184146 8.54041e-22)
(0.536887 0.0178047 1.9571e-21)
(0.508206 0.0603263 5.81686e-23)
(0.508269 -0.00841615 9.43185e-21)
(0.519002 0.00137415 5.40679e-21)
(0.243386 -0.173986 6.11584e-20)
(0.515897 0.000682013 5.39259e-21)
(0.561593 -0.0147337 -9.56878e-20)
(0.472167 0.066954 -4.74277e-21)
(0.511837 0.00511466 -1.12629e-20)
(0.48342 -0.0485405 -4.77727e-20)
(0.403427 0.0289059 0)
(0.514794 0.0114312 4.00071e-21)
(0.538966 -0.028134 -4.14436e-22)
(0.518055 -0.00118808 -1.57956e-21)
(0.489898 -0.0282643 -1.63956e-20)
(0.50144 0.0333957 2.26475e-21)
(0.516031 0.013406 -1.94608e-21)
(0.467808 0.0749378 0)
(0.520765 0.0126577 -2.19761e-21)
(0.54372 0.106119 -2.04349e-21)
(0.516827 -0.000333083 5.43412e-23)
(0.347349 -0.146076 3.28749e-20)
(0.533925 -0.0238204 2.13004e-20)
(-0.00498829 -0.0123567 0)
(-0.00466896 -0.0120314 -1.12949e-20)
(0.0697613 -0.0105272 1.68528e-20)
(0.515695 -7.2842e-05 3.30611e-22)
(0.504463 0.0094045 -1.1229e-20)
(0.491178 -0.0381511 3.8374e-20)
(0.49959 0.00519014 0)
(0.500296 0.000948987 0)
(0.522635 0.0143841 -1.42217e-20)
(0.500179 -0.000296695 1.36669e-20)
(0.515519 0.000219103 4.41271e-21)
(0.512268 0.0133579 -4.3303e-22)
(0.489276 -0.0282594 -3.88176e-20)
(0.514806 -0.0186579 -3.3694e-21)
(0.517748 -0.00112732 0)
(0.500727 -0.00152911 0)
(0.515352 0.000160836 0)
(0.501091 0.000867669 0)
(0.500326 0.000966425 0)
(0.496319 0.00339014 0)
(0.516738 0.00059305 0)
(0.515466 2.93474e-06 0)
(0.52124 -0.00349641 4.37952e-21)
(0.504015 0.00906828 -2.71885e-20)
(0.499928 -4.0267e-05 2.98651e-20)
(0.498165 0.0195656 0)
(0.500409 -9.36566e-05 0)
(0.528195 -0.00399206 -1.74205e-20)
(0.513475 0.0345016 -1.14889e-21)
(0.527246 -0.00551352 5.3394e-21)
(0.518129 0.0103182 -3.94489e-21)
(0.516794 -0.00025572 6.77368e-23)
(0.515524 0.00208402 2.47247e-21)
(0.516409 0.0047511 -1.53645e-22)
(0.506709 0.00769456 2.07713e-22)
(0.518259 -0.00306429 2.13285e-21)
(0.418707 0.0936294 0)
(0.538739 0.0076579 0)
(0.559301 0.0179783 1.04491e-22)
(0.531302 0.012076 0)
(0.408402 -0.118822 -8.64949e-21)
(0.515484 -0.000234819 -1.62126e-23)
(0.515453 1.65801e-06 1.2673e-21)
(0.515397 -0.000198731 2.2558e-21)
(0.402674 0.0181176 9.16076e-22)
(0.457143 -0.0251737 -2.5327e-22)
(0.51668 0.000589027 -5.52316e-22)
(0.530578 0.0242879 2.39483e-20)
(0.524476 -0.0088287 -1.19392e-20)
(0.302169 -0.0801706 6.3717e-21)
(0.510496 -0.00453151 -1.42068e-21)
(0.504343 0.00929407 0)
(0.515738 -0.00068007 0)
(0.505782 -0.0107607 8.24912e-21)
(0.397912 0.0487514 -1.74792e-21)
(0.494224 0.020269 1.5255e-20)
(0.525004 -0.00154331 6.41083e-23)
(0.526099 0.008131 2.11245e-20)
(0.521935 0.00924179 -3.22516e-21)
(0.516053 0.000451578 2.30191e-21)
(0.452762 0.0315195 2.40601e-20)
(0.506548 0.00764053 2.07556e-22)
(0.290835 -0.100262 -2.13722e-21)
(0.379234 -0.00491122 -8.80113e-21)
(0.522831 0.0439907 3.05217e-20)
(0.433529 -0.0555563 2.50442e-21)
(0.527442 -0.00755786 -1.24622e-22)
(0.404802 -0.0798083 -4.61137e-21)
(0.53258 -0.00298412 -2.64631e-20)
(0.526965 0.0158057 0)
(0.53382 -0.00836252 0)
(0.494726 0.00291432 1.23272e-20)
(0.443219 -0.0290014 0)
(0.465052 -0.0262343 -5.15799e-20)
(0.487755 -0.0171355 -9.9895e-21)
(0.484706 0.000326225 5.12151e-22)
(0.453249 -0.0896788 -1.18672e-19)
(0.519019 -0.00159626 6.22974e-21)
(0.519005 -0.00155127 -5.88284e-21)
(0.441617 -0.0149285 0)
(0.545858 -0.0296513 0)
(0.517602 8.35333e-05 0)
(0.483668 -0.00382188 -1.49065e-22)
(0.586198 0.1329 -9.02376e-22)
(0.517575 0.000107295 -3.93579e-21)
(0.525696 0.00834112 -1.02207e-20)
(0.224667 -0.0689657 0)
(0.52783 -0.0227067 3.46901e-21)
(-0.0124145 -0.0211449 2.23959e-20)
(0.301382 -0.102245 2.63255e-21)
(0.524793 0.0106029 -8.91686e-21)
(0.504158 0.00911239 8.2684e-21)
(0.520457 -0.00787626 4.79124e-22)
(0.47116 -0.0391804 -7.65265e-20)
(0.470365 -0.0387153 6.8369e-20)
(0.495493 -0.0167622 0)
(0.483472 -0.0558532 0)
(0.00896441 -0.011517 -2.13658e-20)
(0.516731 0.000184188 1.98727e-22)
(0.516738 0.00018664 -1.75138e-22)
(0.5213 -0.00865398 0)
(0.521154 0.00921652 1.64645e-21)
(0.528014 -0.00942246 9.82943e-22)
(0.518405 -0.00302138 1.70144e-21)
(0.499935 -0.00142451 5.08883e-21)
(0.483624 -0.00412455 1.78879e-22)
(0.42423 -0.0356259 -1.00092e-20)
(0.518387 0.0103099 4.40028e-21)
(0.517251 -0.000247731 4.40752e-22)
(0.517292 -0.000228065 0)
(0.524507 -0.0208238 -2.09893e-21)
(0.491595 -0.0374726 -1.56916e-20)
(0.472858 -0.0151854 0)
(0.50795 0.0775853 1.92287e-21)
(0.509341 -0.00296113 -1.57759e-21)
(0.423474 -0.103793 0)
(0.56489 -0.00198706 -5.21547e-20)
(0.442171 0.0060955 -5.47365e-20)
(0.513453 -0.0184841 4.72658e-21)
(0.507595 -0.00562081 2.81466e-21)
(0.529811 -0.0163773 -1.97905e-20)
(0.362222 -0.300877 -2.42925e-21)
(0.418924 -0.105772 0)
(0.473305 0.0675516 -6.22171e-22)
(0.506634 0.0763578 0)
(0.145664 -0.125072 0)
(0.484739 0.0189402 0)
(0.528699 0.0121989 7.59271e-22)
(0.563283 0.149145 -3.43759e-20)
(0.5284 0.0167729 -9.10729e-21)
(0.517656 0.000550545 -2.81319e-21)
(0.527079 -0.0213978 3.47089e-21)
(0.505103 0.0052204 0)
(0.525049 -0.00160315 0)
(0.517137 0.000637376 0)
(0.515912 -0.000691096 -1.64362e-21)
(0.517034 0.000752108 9.52193e-23)
(0.521773 0.00858635 -2.09467e-21)
(0.528263 0.00319795 0)
(0.500094 0.00114624 1.95882e-20)
(0.538208 0.00731136 -8.62591e-21)
(0.515503 5.35402e-05 -6.68247e-22)
(0.5009 -0.00622366 0)
(0.456184 -0.024626 1.41763e-20)
(0.516881 0.000353354 0)
(0.510092 0.0101232 -1.81055e-20)
(0.500226 -0.00259193 4.06858e-20)
(0.500204 -0.00032166 -5.91667e-20)
(0.52674 0.0148798 5.20345e-21)
(0.496018 -0.0211311 2.02103e-20)
(0.439677 -0.0687394 1.65173e-21)
(0.530822 0.0109398 0)
(0.528651 0.0166312 -3.26712e-21)
(0.515721 -0.000827774 1.57583e-21)
(0.495731 -0.016665 0)
(0.51811 0.00151258 9.38835e-21)
(0.533179 -0.126981 0)
(0.53818 0.0431237 1.37566e-20)
(0.465634 -0.0267488 0)
(0.517892 0.000158603 0)
(0.534091 -0.00821748 -2.10727e-21)
(0.262774 0.056525 -5.19984e-20)
(0.465897 -0.039462 -2.45012e-20)
(0.526217 0.0146308 0)
(0.457399 0.0331001 -2.06179e-20)
(0.500082 0.00117679 3.99749e-23)
(0.240216 0.180683 -1.17799e-20)
(0.502794 0.000765202 0)
(0.516514 9.69908e-05 9.60239e-23)
(0.442706 -0.0157123 -1.67877e-20)
(0.466817 -0.0387945 -1.0613e-20)
(0.398698 0.0535714 1.55168e-21)
(0.529317 -0.0162984 3.21435e-20)
(0.276489 0.00830897 1.68879e-21)
(0.500504 -0.00214988 -2.89164e-20)
(0.516909 0.000371917 1.06286e-21)
(0.499643 0.0052771 -1.28597e-20)
(0.524294 -0.00855566 1.19479e-20)
(0.0731357 0.0459915 -1.1587e-19)
(0.510027 -0.0154265 1.23178e-20)
(0.489328 -0.0344052 -8.53685e-21)
(0.497729 -0.0269752 0)
(0.515267 0.00236688 0)
(0.526041 -0.0221162 2.47608e-21)
(0.519786 0.0188146 0)
(0.517782 -0.00116849 0)
(0.403072 0.139518 4.7223e-20)
(0.534836 0.0219669 2.20009e-20)
(0.512046 -0.013511 -6.32262e-21)
(0.517223 0.00117796 0)
(0.484684 0.0193464 -3.85973e-22)
(0.500732 -0.00148957 0)
(0.514973 0.017148 -1.55592e-20)
(0.499914 -0.00145366 2.04592e-20)
(0.515154 -2.63172e-05 -1.052e-21)
(0.518026 0.00155059 -6.57336e-21)
(0.528972 0.049109 -1.21392e-20)
(0.500833 0.0202293 1.08677e-20)
(0.527439 -0.00199061 5.23326e-21)
(0.516234 -0.00045253 0)
(0.522034 0.000513048 0)
(0.516009 0.000346909 0)
(0.416361 0.0911137 1.07513e-21)
(0.467317 -0.0937963 2.29639e-19)
(0.017247 -0.0109217 2.37653e-20)
(0.421982 -0.0379986 5.19177e-21)
(0.546229 0.0403949 0)
(0.515277 -3.30389e-05 -4.39643e-21)
(0.242393 -0.17067 0)
(0.491542 0.0036135 -8.93953e-21)
(0.405612 -0.07918 5.7001e-21)
(0.516858 -0.000796021 0)
(0.516232 -0.00044805 0)
(0.516931 0.000248402 0)
(0.550143 -0.0219057 -7.78872e-21)
(0.528245 -0.00407546 1.79051e-20)
(0.513176 -0.0135396 1.05125e-20)
(0.496406 -0.0211589 6.21907e-21)
(0.516641 -0.000291734 4.91435e-21)
(0.499995 0.00154759 -3.76248e-20)
(0.521841 -0.0105374 5.27994e-21)
(0.515338 0.00015943 0)
(0.5332 0.00787933 7.1159e-22)
(0.510866 -0.00847228 0)
(0.53289 0.0114463 -6.23077e-22)
(0.516599 -0.00031172 -3.78735e-21)
(0.496464 0.00341402 5.28071e-21)
(0.512687 -0.0107284 -2.80713e-21)
(0.500941 -0.00205641 0)
(0.515397 -0.000199518 1.65662e-21)
(0.614039 0.0460746 0)
(0.517389 9.55993e-05 0)
(0.517251 0.00117011 0)
(0.527241 -0.00196251 -7.12396e-21)
(0.464456 -0.0976679 -2.01498e-20)
(0.500512 0.0571293 -6.56504e-21)
(0.505198 0.00525334 0)
(0.281391 0.240273 0)
(0.514521 0.00364427 0)
(0.514836 0.00381398 -1.42246e-23)
(0.516964 0.000262959 0)
(0.237194 0.180623 0)
(0.529089 0.00797989 -2.07131e-21)
(0.49958 -0.00267972 -2.78088e-20)
(0.547218 0.0261363 7.15449e-22)
(0.515525 0.000219188 3.08903e-21)
(0.51599 0.000288369 1.35655e-22)
(0.508435 0.022419 5.51225e-21)
(0.513402 0.122888 7.17557e-22)
(0.520424 -0.00644126 0)
(0.364623 -0.0706094 0)
(0.516031 0.000342808 5.0034e-23)
(0.520483 0.0043653 4.56457e-21)
(0.500471 -0.00215103 0)
(0.521293 -0.00838316 0)
(0.462953 -0.00962204 -3.79833e-20)
(0.404646 0.031173 0)
(0.516138 -0.000151968 1.4576e-21)
(0.489829 0.0213693 -5.13714e-21)
(0.52783 -0.000924524 -1.08759e-20)
(0.421662 0.207359 -2.2895e-20)
(0.517883 0.000411128 -3.25938e-21)
(0.508431 0.00255039 0)
(0.517939 0.000207686 0)
(0.508416 0.00199623 0)
(0.447427 0.216902 -4.92645e-20)
(0.464686 -0.0339378 0)
(0.536911 0.0408983 3.28458e-20)
(0.527667 -0.000956063 0)
(0.53868 0.0394222 -3.74048e-20)
(0.508889 0.0298526 2.15028e-20)
(0.500978 -0.00626298 0)
(0.517485 -0.00152549 5.66957e-21)
(0.464337 -0.0349794 0)
(0.500149 -0.000649304 3.59075e-20)
(0.498606 -0.000718036 0)
(0.565771 0.0345649 -3.45734e-22)
(0.499992 0.00149445 1.68751e-20)
(0.527078 -0.00797068 0)
(0.544336 0.00133814 4.29592e-20)
(0.515391 -0.00019951 -1.69081e-21)
(0.511604 -0.0152674 -5.06657e-21)
(0.537751 0.0423821 0)
(0.2302 -0.112603 7.84587e-21)
(0.515151 8.11946e-05 1.5623e-21)
(0.472866 0.00393973 -1.87789e-20)
(0.51073 -0.00829366 -1.64307e-22)
(0.233398 -0.0675171 -3.30464e-20)
(0.515988 0.000304103 4.44143e-22)
(0.520799 -0.00753835 3.5416e-21)
(-0.00689325 -0.0149908 1.18642e-20)
(0.515245 -3.26932e-05 0)
(-0.00517794 -0.0141798 2.87764e-21)
(0.502952 0.0662539 -3.24216e-20)
(0.500497 0.0203145 1.10004e-20)
(0.515863 -0.000347245 7.62158e-23)
(0.450983 -0.0133725 2.84422e-20)
(0.475484 -0.0364487 0)
(0.501985 0.00142242 0)
(0.501059 -0.00445527 -5.18244e-21)
(0.530969 0.0476478 0)
(0.497655 0.00348931 0)
(0.559424 0.148747 3.34465e-20)
(0.515521 4.86254e-05 5.19691e-22)
(0.516496 9.6427e-05 -4.00647e-24)
(0.49215 -0.00187922 -1.83246e-20)
(0.500895 0.00086693 2.21285e-24)
(0.49957 -0.000536892 4.76221e-20)
(0.521047 -0.00675192 0)
(0.499988 -0.0348445 1.04652e-20)
(0.509298 0.0296893 -1.37857e-20)
(0.501202 -0.00655988 1.03606e-20)
(0.516701 -0.036382 4.06819e-21)
(0.501132 -0.00447824 0)
(0.510717 0.00851703 1.01285e-20)
(0.520696 0.00412478 -3.14029e-21)
(0.510798 0.00860014 -2.54216e-20)
(0.529 -0.00921162 -4.07646e-22)
(0.50027 -0.0026212 -4.63852e-20)
(0.504266 0.00405463 -4.40163e-22)
(0.513635 0.0019602 -1.58826e-21)
(0.500859 0.00252313 -3.42495e-20)
(0.519536 9.91937e-05 4.22925e-21)
(0.51387 -0.00793105 -3.12062e-21)
(0.532609 0.0435125 -2.16325e-20)
(0.407074 0.141336 -3.19892e-20)
(0.501968 -0.0057495 -1.32561e-20)
(0.520177 0.00190915 -5.85896e-22)
(0.508413 0.0221379 -4.92703e-22)
(0.517431 -0.00116807 2.52219e-22)
(0.49969 -0.00129486 5.87091e-20)
(0.493865 0.0377237 -4.27747e-20)
(0.51888 0.00169517 4.96071e-21)
(0.51673 -0.00121523 -2.96524e-21)
(0.494579 0.00816842 1.66106e-20)
(0.488916 -0.0100187 -1.40348e-20)
(0.521578 -0.000365503 6.06256e-21)
(0.394936 0.107952 5.29463e-20)
(0.500114 -0.000623588 -1.44843e-20)
(0.513462 -0.0112992 -2.89883e-21)
(0.515401 0.000114516 2.74979e-21)
(0.532295 0.0414695 -9.94588e-22)
(0.502754 0.00074056 -4.85988e-21)
(0.559079 -0.0163984 0)
(0.499063 0.000673975 0)
(0.500375 -9.78945e-05 0)
(0.486387 -0.0107576 0)
(0.500893 -0.00204724 0)
(0.613545 0.0450633 -4.70036e-20)
(0.51541 -0.00364205 0)
(0.529925 0.000425602 7.74191e-24)
(0.520273 -0.00819567 0)
(0.524502 0.0105593 7.46689e-21)
(0.359789 -0.302544 1.47049e-21)
(-0.00492698 0.00316823 0)
(0.530634 0.00805454 2.35987e-22)
(-0.0827631 0.0913558 -6.55637e-20)
(0.553533 0.0631703 1.31742e-20)
(0.516132 -0.000155339 -2.69737e-21)
(0.520575 0.00352883 0)
(0.547557 0.0704023 0)
(0.454449 -0.0319325 -6.99559e-22)
(0.500878 0.000901087 -4.42006e-20)
(0.516351 0.000231814 0)
(0.456983 -0.0347307 -5.03501e-21)
(0.516212 2.21303e-06 7.53444e-22)
(0.520786 -0.00763115 0)
(0.510454 0.0813424 0)
(0.469808 0.00590842 -6.03909e-20)
(0.344356 -0.0387108 0)
(0.499091 -0.0105047 6.13904e-23)
(0.211823 -0.11453 0)
(0.521626 -0.000302879 6.47871e-21)
(0.019238 -0.0120963 -1.68996e-22)
(0.526055 -0.0170816 0)
(0.495769 0.00645765 1.4961e-21)
(0.479034 0.000320791 0)
(0.497121 0.00696292 0)
(0.469494 0.00865004 0)
(0.496049 -0.00837672 1.95591e-20)
(0.488321 0.00681281 -7.02033e-20)
(0.521298 0.0094129 0)
(0.535884 0.0298446 8.59968e-21)
(0.497561 -0.000664754 -4.66021e-21)
(0.498951 -0.0105146 -2.02173e-20)
(0.438751 -0.0686369 0)
(0.480934 0.0336796 -3.06068e-20)
(0.519652 0.000190766 3.25069e-22)
(0.515951 0.000164472 -1.72718e-21)
(0.560712 -0.0165285 0)
(0.470712 -0.0155338 1.6349e-20)
(0.519003 0.00168959 -4.97048e-23)
(0.50081 0.00252811 3.42439e-20)
(0.527284 0.000274735 -1.6545e-20)
(0.564606 0.0334978 -7.05602e-20)
(0.510251 0.0504767 3.50115e-21)
(0.482567 -0.00246225 -2.82603e-20)
(0.5158 -0.00285139 3.91554e-21)
(0.541147 0.00365887 4.97453e-21)
(0.502452 0.00700599 0)
(0.479469 0.000414786 2.6668e-20)
(0.329341 0.0476914 7.82075e-20)
(0.520362 0.00360414 -9.70253e-22)
(0.520406 0.00228253 0)
(0.526193 -0.0161679 6.78839e-23)
(0.515269 6.26601e-05 0)
(0.539375 -0.0236208 -1.78034e-20)
(0.516097 0.000767825 0)
(0.491943 0.00257123 0)
(0.521736 0.00113246 0)
(0.514042 -0.00747835 -2.51792e-21)
(0.555399 0.0012052 9.59568e-21)
(0.498442 0.05924 0)
(0.41533 0.0323602 1.05369e-20)
(0.499891 -0.00234538 1.47315e-20)
(0.501959 -0.00115575 0)
(0.500591 0.0170494 -3.45581e-20)
(0.470094 0.00533571 5.43504e-20)
(0.48078 0.0341429 0)
(0.465531 -0.0960981 2.08476e-20)
(0.491206 0.0162436 3.8116e-20)
(0.534879 -0.0179383 -1.13065e-20)
(0.342386 -0.144914 -5.81641e-20)
(0.516822 -0.00124771 -1.20095e-21)
(0.507667 0.00825164 0)
(0.499958 -0.0342243 0)
(0.508226 0.00736908 0)
(0.515946 0.000157442 1.65075e-21)
(0.507689 0.0361945 3.97102e-21)
(0.516212 4.07045e-08 0)
(0.517658 -0.00161255 0)
(0.0822738 0.0302517 -9.36309e-21)
(0.418716 0.0323624 -2.26021e-20)
(0.498236 -0.0270143 -2.33456e-20)
(0.516772 -0.0137299 0)
(0.515281 6.31567e-05 0)
(0.525365 0.0134358 8.54389e-21)
(0.509364 -0.00319392 1.63076e-21)
(0.364821 0.0806597 1.79553e-20)
(0.491389 0.0159684 0)
(0.529318 0.0132756 2.25048e-22)
(0.501425 0.000330533 1.53862e-20)
(0.515627 -7.43163e-06 0)
(0.518035 -0.0107809 3.73604e-21)
(0.515906 -0.000128718 -1.96928e-21)
(0.515154 8.36373e-05 1.41128e-21)
(0.540994 0.000885966 4.25519e-20)
(0.517381 9.91007e-05 1.81529e-22)
(0.497491 -0.000597824 3.03894e-20)
(0.492341 -0.00186489 -4.50493e-20)
(0.467102 0.149714 4.14203e-21)
(0.509697 0.00463578 -1.35201e-21)
(0.493368 -0.114334 -4.31323e-20)
(0.520135 0.00304804 0)
(0.487224 -0.0182279 -4.57678e-20)
(0.48577 -0.0122556 -3.68937e-20)
(0.516746 -0.000405032 1.01971e-21)
(0.500448 -0.00321398 -4.91848e-21)
(0.516343 0.000241113 0)
(0.398523 0.110126 -4.06428e-20)
(0.522762 -0.000113986 0)
(0.517205 0.000386437 0)
(0.461129 -0.0772556 -5.27056e-20)
(0.536311 -0.0240273 0)
(0.521103 -0.0104612 -4.4349e-21)
(0.348853 0.168279 -9.55072e-20)
(0.50089 0.0171655 3.11161e-20)
(0.531961 -0.057932 9.01744e-20)
(0.510214 0.010022 2.14002e-20)
(0.530636 0.00127625 3.26541e-20)
(0.494796 0.00806923 -2.98477e-21)
(0.502686 -0.000541934 1.42556e-20)
(0.502563 0.0070348 2.13962e-20)
(0.518446 0.000499228 -6.52467e-22)
(0.515266 5.66952e-05 0)
(0.517705 -0.0013046 0)
(0.527049 0.000199431 1.60436e-20)
(0.511526 0.00298072 -9.08835e-21)
(0.49547 -0.00263644 -2.5281e-20)
(0.500484 -0.00324053 1.65629e-20)
(0.520137 0.00211693 -1.542e-21)
(0.484764 9.15675e-05 -3.79502e-22)
(0.53776 0.00528803 5.33531e-22)
(0.517671 -0.00130721 1.00744e-21)
(0.513643 0.120422 -2.6909e-21)
(0.534461 0.029424 -1.43394e-20)
(0.560696 -0.0227944 -7.24983e-20)
(0.43602 0.0369672 4.01581e-20)
(0.290541 0.235761 0)
(0.501115 -0.00649846 -1.19916e-20)
(0.516963 -0.00123709 0)
(0.516247 0.000139071 9.31877e-22)
(0.46414 -0.00891081 -4.33273e-21)
(0.515261 5.94209e-05 0)
(0.52263 -0.000181339 3.37648e-21)
(0.521647 0.0278761 0)
(0.516426 0.000233486 2.56226e-21)
(0.516427 0.000213721 1.36585e-21)
(0.502808 -0.00959968 1.15957e-20)
(0.191467 0.0249999 9.18948e-20)
(0.515485 -0.000147785 1.2855e-21)
(0.516426 0.00010387 5.58263e-22)
(0.488098 -0.0173056 5.47175e-20)
(0.536295 -0.0387895 -3.25515e-21)
(0.482722 -0.0026422 -6.33456e-22)
(0.464697 -0.0114831 -1.05167e-21)
(0.513702 0.00204416 1.33301e-21)
(0.569092 0.189576 2.11388e-20)
(0.477456 -0.050083 -1.76417e-21)
(0.517791 0.000169529 0)
(0.516589 0.000206787 0)
(0.515781 0.00215506 -5.92661e-22)
(0.535828 -0.0382391 3.39403e-21)
(0.51548 -0.00013809 -8.23696e-22)
(0.518512 -0.00144233 0)
(0.519106 -0.00152659 -4.32279e-21)
(0.561413 -0.0701008 0)
(0.518819 -0.000971732 2.67043e-21)
(0.503557 0.0554901 0)
(0.583893 0.134161 2.23661e-20)
(0.516107 0.000746282 1.5658e-21)
(0.504407 0.0113729 0)
(0.517864 0.000146158 1.09939e-21)
(0.516011 -0.000173068 -3.92706e-21)
(0.487912 0.0190452 0)
(0.51571 0.00216967 -9.30263e-22)
(0.508026 0.0494133 -3.72489e-21)
(0.226295 -0.0666654 -3.86141e-21)
(0.516221 0.000127315 7.56877e-22)
(0.534787 0.0882412 0)
(0.47151 0.0714606 0)
(0.474743 -0.0539299 3.61687e-21)
(0.517439 -0.0030016 6.88846e-21)
(0.566687 0.019316 0)
(0.519975 0.00307514 0)
(0.529835 0.000496974 0)
(0.491503 0.00328135 -3.17457e-20)
(0.517897 0.000397245 2.97728e-21)
(0.546529 0.0119282 0)
(0.531571 0.00744783 2.0417e-21)
(0.499655 -0.0013251 -3.94328e-20)
(0.516729 -0.000380589 -3.68879e-21)
(0.518776 -0.000993922 0)
(0.51808 -0.0172801 -1.46034e-21)
(0.500557 -0.00425114 0)
(0.539474 -0.0270669 0)
(0.499365 0.00229921 -1.45777e-20)
(0.515434 0.000216067 -6.60499e-22)
(0.183344 -0.164794 5.60941e-21)
(0.486451 0.00283188 2.18745e-20)
(0.527874 -0.0166029 1.0993e-20)
(0.540588 0.0011676 -4.54066e-20)
(0.518922 -0.00395987 8.72569e-22)
(0.51679 -0.00038914 0)
(0.484658 -0.0556603 0)
(0.481744 0.0198545 0)
(0.515549 -0.00025015 0)
(0.0921479 0.0403439 1.99444e-20)
(0.502532 -0.00619996 -5.5361e-21)
(0.436876 0.076992 2.37037e-21)
(0.500022 0.000184589 2.93806e-20)
(0.495493 -0.00255568 0)
(0.527823 -0.0168446 -2.05177e-20)
(0.515526 -0.000246453 0)
(0.0149013 -0.00806501 6.60144e-20)
(0.488984 -0.00975623 -5.30525e-20)
(0.515908 -9.44516e-05 1.66496e-21)
(0.519015 -0.00163786 4.54759e-21)
(0.516633 -0.00121796 0)
(0.236552 -0.168679 -4.03219e-20)
(0.517814 -0.0108056 3.57368e-21)
(0.498889 -0.0161299 0)
(0.518184 -0.0010157 4.27858e-21)
(0.518563 -0.00150772 0)
(0.472481 -0.0573382 0)
(0.436603 0.0356839 -4.01612e-20)
(0.518106 -0.000955417 -2.78293e-23)
(0.546207 0.0111675 0)
(0.409572 -0.0543522 -1.8664e-21)
(0.48125 0.0237794 0)
(0.536092 0.00417382 1.90807e-22)
(0.499657 0.00331817 -1.83831e-20)
(0.540656 0.00512863 -2.16582e-21)
(0.328974 0.0514076 -8.28829e-20)
(0.523916 -0.00741808 5.2022e-21)
(0.515099 0.00382864 0)
(0.558501 -0.0696002 -2.28671e-20)
(0.510762 0.0619333 3.77868e-20)
(0.438107 0.0779951 0)
(0.500015 0.000160848 0)
(0.498651 -0.0161237 2.06526e-20)
(0.547597 -0.0228093 2.50777e-20)
(0.515588 -0.00272117 0)
(0.389354 -0.0958366 -7.92068e-20)
(0.500798 0.0104391 -1.89577e-22)
(0.488609 0.00689776 7.80101e-20)
(0.479008 0.0577588 2.99272e-20)
(0.100879 -0.152934 -7.78636e-20)
(0.502004 -0.00567147 0)
(0.499704 0.00333706 -6.59723e-21)
(0.509804 -0.00723158 1.12872e-20)
(0.542249 -0.0878954 -1.61077e-20)
(0.504553 0.0113473 0)
(0.515249 -7.19623e-05 1.86819e-21)
(0.516529 0.000209724 0)
(0.5163 -0.00246054 -2.54938e-21)
(0.515497 -0.000235904 1.52308e-21)
(0.517719 0.000940915 0)
(0.51518 0.00379376 1.02992e-22)
(0.509674 0.00447587 -5.6175e-21)
(0.48995 -0.0448358 0)
(0.518939 0.00360876 3.20162e-22)
(0.503159 0.000314869 2.95142e-20)
(0.48456 -0.107405 -4.33887e-20)
(0.500017 8.00417e-07 6.37448e-20)
(0.515981 -0.000144641 5.05416e-21)
(0.533509 -0.124669 0)
(0.589198 -0.0629325 0)
(0.513554 -0.0387648 1.27781e-21)
(0.521862 0.00117024 0)
(0.311822 -0.00305127 0)
(0.546939 0.0291363 2.23249e-21)
(0.0806764 0.0488955 8.09807e-20)
(0.536909 -0.00388575 3.91051e-21)
(0.502769 -0.000502305 0)
(0.532192 -0.00166189 -1.53148e-20)
(0.518536 0.000526376 6.94446e-22)
(0.539193 0.00602833 0)
(0.588198 -0.0645126 0)
(0.498049 0.0126136 1.43142e-20)
(0.503692 0.00622126 0)
(0.512058 0.0156689 7.65337e-22)
(0.502524 0.0018868 -1.62632e-21)
(0.481606 0.035559 1.41444e-20)
(0.521864 -0.00605276 0)
(0.50812 0.0101949 -1.38778e-20)
(0.503258 0.000310904 -6.25542e-21)
(0.178834 0.0272804 -9.61813e-20)
(0.479727 0.124956 5.13835e-21)
(0.515609 -7.32089e-06 0)
(0.518177 0.000119742 0)
(0.415373 -0.0648719 0)
(0.515351 1.68465e-05 -1.24396e-23)
(0.510551 0.00089797 -8.9392e-22)
(0.516492 -0.00231824 3.812e-21)
(0.512336 -0.00526279 2.63556e-21)
(0.519277 0.00237634 -8.84371e-21)
(0.467031 0.0400188 -8.78295e-21)
(0.501151 0.000760588 0)
(0.503423 -0.00283859 4.25767e-21)
(0.499094 0.00266367 4.79378e-20)
(0.489333 0.0126451 -8.61699e-21)
(0.526989 -0.000860483 2.34244e-21)
(0.520007 0.0113847 -5.98716e-22)
(0.507843 -0.000149164 1.28067e-20)