/*--------------------------------*- C++ -*----------------------------------*\
  =========                 |
  \\      /  F ield         | OpenFOAM: The Open Source CFD Toolbox
   \\    /   O peration     | Website:  https://openfoam.org
    \\  /    A nd           | Version:  9
     \\/     M anipulation  |
\*---------------------------------------------------------------------------*/
FoamFile
{
    format      ascii;
    class       volScalarField;
    location    "0.05";
    object      alpha.water;
}
// * * * * * * * * * * * * * * * * * * * * * * * * * * * * * * * * * * * * * //

dimensions      [0 0 0 0 0 0 0];

internalField   nonuniform List<scalar> 
2268
(
1
1
1
1
1
0.999997
0.999962
0.999585
0.996304
0.774158
0.0913141
2.05042e-33
2.71104e-33
2.20339e-33
3.26072e-34
-2.6145e-35
-1.62026e-37
-3.73924e-39
4.11107e-42
1.2918e-43
1.4388e-45
1.86676e-48
3.06364e-48
1
1
1
1
1
0.999998
0.999969
0.999669
0.997091
0.848905
0.191675
0
3.38155e-33
7.81269e-33
-6.17772e-33
2.40922e-34
-2.7235e-37
1.89517e-38
2.44988e-40
4.48001e-42
5.29935e-44
1.50159e-45
6.52322e-48
1
1
1
1
1
0.999999
0.999987
0.99985
0.998592
0.968827
0.522906
0.0369811
2.17552e-32
5.16571e-32
5.69406e-32
-6.93254e-33
6.3929e-35
6.34138e-37
4.1198e-39
8.38554e-41
9.94001e-43
7.43061e-44
2.50912e-46
1
1
1
1
1
1
0.999995
0.999945
0.999457
0.995873
0.829536
0.142959
9.41302e-32
7.31028e-31
6.69719e-31
5.55157e-32
8.65276e-34
8.16417e-36
6.93831e-38
1.1545e-39
5.15333e-41
1.49419e-42
4.93614e-45
1
1
1
1
1
1
0.999998
0.999979
0.999783
0.998124
0.926411
0.25635
3.91106e-31
4.71405e-30
5.93631e-30
6.11296e-31
8.99141e-33
9.79347e-35
1.12072e-36
1.74474e-38
9.10602e-40
1.94014e-41
6.3983e-44
1
1
1
1
1
1
0.999999
0.999991
0.999896
0.998946
0.952233
0.317249
1.44343e-30
2.788e-29
4.90105e-29
2.01744e-29
4.3258e-31
8.85545e-33
1.32469e-34
1.95343e-36
3.0005e-38
4.10173e-40
8.99943e-43
1
1
1
1
1
1
0.999999
0.999995
0.99994
0.999332
0.965372
0.354542
4.97443e-30
1.17186e-28
2.17707e-28
1.08179e-28
3.14053e-30
5.92803e-32
8.06187e-34
1.05369e-35
1.35108e-37
1.44853e-39
7.31481e-42
1
1
1
1
1
1
1
0.999997
0.999958
0.999506
0.972205
0.374252
1.71155e-29
2.24827e-28
5.87685e-28
1.94883e-28
4.90525e-30
-2.82141e-32
-1.30329e-34
1.97419e-36
5.13494e-39
-8.93571e-41
1.24181e-41
2.18466e-97
3.92425e-97
3.3993e-95
4.36253e-92
1.67114e-90
1.79126e-90
1.66162e-91
1.91896e-94
-3.46563e-97
6.73603e-102
6.79915e-105
1.42809e-108
2.56511e-112
6.16298e-116
1.75428e-119
4.3015e-123
6.47626e-127
4.00026e-131
4.08307e-131
1.94209e-97
4.73567e-94
8.74204e-92
1.75402e-88
6.85294e-87
6.53928e-89
4.07317e-89
-1.50039e-92
4.82946e-95
1.14695e-98
3.26159e-102
6.74505e-106
1.16775e-109
2.72222e-113
7.47818e-117
1.83055e-120
3.2496e-124
8.56775e-127
9.27202e-131
4.72702e-94
6.66556e-92
9.04752e-89
2.78601e-85
1.10814e-83
2.64361e-85
3.4579e-86
-7.4198e-90
1.16668e-92
2.34723e-96
7.93786e-100
1.59629e-103
2.69634e-107
6.12879e-111
1.63825e-114
4.15054e-118
1.29348e-120
4.83628e-124
4.84666e-128
1.13679e-90
1.02397e-88
4.75558e-86
2.39572e-82
9.57329e-81
4.38985e-82
7.40925e-84
-1.81493e-87
1.79857e-90
4.19466e-94
1.30468e-97
2.56607e-101
4.25218e-105
9.47695e-109
2.59223e-112
8.34917e-115
4.27986e-118
1.26812e-121
1.3746e-125
1.20699e-87
9.7575e-86
1.62818e-83
1.2752e-79
5.01368e-78
3.87103e-79
1.18479e-81
-2.48641e-85
2.1968e-88
5.58734e-92
1.63404e-95
3.16078e-99
5.16497e-103
1.14243e-106
3.96996e-109
2.10029e-112
7.73519e-116
2.2081e-119
2.55664e-123
8.83835e-85
5.92651e-83
6.05229e-81
4.58431e-77
1.7277e-75
1.919e-76
1.50046e-79
-1.63362e-83
1.88001e-86
5.91575e-90
7.89717e-93
9.09047e-96
4.01828e-99
9.72293e-103
2.9317e-106
9.55559e-110
2.89762e-113
7.81679e-117
3.64126e-121
4.58757e-82
5.08495e-80
5.71239e-73
1.97756e-71
3.41221e-75
2.51468e-74
-2.50931e-77
7.68643e-81
2.5615e-84
5.17202e-88
2.39937e-90
1.21907e-93
3.2899e-97
6.77983e-101
1.7918e-104
5.41362e-108
1.59063e-111
4.27309e-115
4.92129e-119
-2.56253e-76
1.49936e-74
9.8588e-70
2.9815e-68
7.13979e-70
2.62244e-72
-2.18092e-75
5.45687e-79
1.74453e-82
3.66642e-86
1.03361e-89
1.94472e-93
3.11708e-97
6.74864e-101
1.75621e-104
4.56213e-108
1.08979e-111
1.03956e-115
1.47549e-117
1
1
1
1
1
1
1
0.999998
0.99997
0.999614
0.975592
0.384305
6.00085e-29
1.33575e-27
3.2172e-27
1.24439e-27
3.10803e-29
4.37245e-31
4.90471e-33
3.64035e-35
1.55206e-37
5.36699e-42
-4.64269e-43
1
1
1
1
1
1
1
0.999999
0.999979
0.999718
0.983287
0.423515
2.22949e-28
1.00746e-26
3.21744e-26
1.54597e-26
4.33634e-28
7.05072e-30
7.82411e-32
6.06094e-34
2.75123e-36
4.15901e-39
3.79587e-42
1
1
1
1
1
1
1
0.999999
0.999987
0.999813
0.991524
0.485021
1.37783e-27
8.44084e-26
3.14583e-25
1.88704e-25
5.26451e-27
9.10305e-29
1.08859e-30
8.77003e-33
4.22974e-35
8.19928e-38
1.10883e-40
1
1
1
1
1
1
1
1
0.999992
0.999883
0.996646
0.549095
1.02949e-26
7.58782e-25
3.08904e-24
2.18697e-24
6.30344e-26
1.16414e-27
1.42215e-29
1.23892e-31
6.64297e-34
1.54605e-36
2.9522e-39
1
1
1
1
1
1
1
1
0.999995
0.999922
0.998817
0.607182
8.08134e-26
7.23307e-24
3.07738e-23
2.4801e-23
9.01944e-25
1.94541e-26
2.11164e-28
1.88935e-30
1.04202e-32
2.8474e-35
7.17223e-38
1
1
1
1
1
1
1
1
0.999997
0.999945
0.999176
0.658856
6.52343e-25
7.33714e-23
3.13315e-22
2.78097e-22
1.3734e-23
3.84415e-25
5.9612e-27
5.62413e-29
2.65886e-31
5.78945e-34
1.61133e-36
1
1
1
1
1
1
1
1
0.999998
0.999962
0.999373
0.703851
5.44388e-24
7.97645e-22
3.28838e-21
3.10167e-21
1.83357e-22
5.86583e-24
1.06448e-25
1.27524e-27
9.86363e-30
3.78389e-32
3.43234e-35
1
1
1
1
1
1
1
1
0.999999
0.999974
0.99951
0.743059
4.73248e-23
9.24983e-21
3.60438e-20
3.44982e-20
2.31432e-21
8.12378e-23
1.64536e-24
2.25631e-26
2.10788e-28
1.19088e-30
7.52271e-34
1
1
1
1
1
1
1
1
0.999999
0.999982
0.999614
0.777331
4.28493e-22
1.11969e-19
4.17863e-19
3.83363e-19
2.82826e-20
1.06521e-21
2.35509e-23
3.58358e-25
3.81201e-27
2.60446e-29
3.6841e-32
1
1
1
1
1
1
1
1
1
0.999987
0.999696
0.807415
4.00411e-21
1.38711e-18
5.18093e-18
4.24544e-18
3.39025e-19
1.35001e-20
3.21451e-22
5.33714e-24
6.29962e-26
4.94417e-28
1.34824e-30
1
1
1
1
1
1
1
1
1
0.999991
0.999762
0.833945
3.8661e-20
1.65349e-17
6.92783e-17
4.69493e-17
4.01629e-18
1.67285e-19
4.24983e-21
7.61696e-23
9.83196e-25
8.65453e-27
3.2725e-29
1
1
1
1
1
1
1
1
1
0.999994
0.999813
0.857456
3.8347e-19
2.01153e-16
9.56618e-16
5.34554e-16
4.72223e-17
2.0406e-18
5.4928e-20
1.05477e-21
1.47507e-23
1.43658e-25
6.85654e-28
1
1
1
1
1
1
1
1
1
0.999996
0.999854
0.878401
3.87348e-18
2.47692e-15
1.42356e-14
6.26146e-15
5.5243e-16
2.4602e-17
6.97964e-19
1.42825e-20
2.15034e-22
2.29724e-24
1.32423e-26
1
1
1
1
1
1
1
1
1
0.999997
0.999887
0.897149
3.94164e-17
3.05322e-14
2.19351e-13
7.78183e-14
6.44886e-15
2.93724e-16
8.74961e-18
1.90106e-19
3.06821e-21
3.5735e-23
2.42764e-25
1
1
1
1
1
1
1
1
1
0.999998
0.999913
0.913881
3.99375e-16
3.54082e-13
1.65773e-12
8.23423e-13
7.55189e-14
3.46902e-15
1.08336e-16
2.49539e-18
4.2971e-20
5.42861e-22
4.28596e-24
1
1
1
1
1
1
1
1
1
0.999999
1.00001
0.92854
3.98666e-15
3.76278e-12
5.1533e-12
5.39937e-12
8.19167e-13
4.13149e-14
1.35535e-15
3.31628e-17
6.14699e-19
8.52353e-21
7.75467e-23
1
1
1
1
1
1
1
1
1
1
0.999987
0.943531
4.01766e-14
3.74115e-11
1.0449e-10
3.19627e-11
7.16621e-12
5.06565e-13
1.75389e-14
4.38587e-16
8.70562e-18
1.33014e-19
1.37088e-21
1
1
1
1
1
1
1
1
1
1
0.999998
0.942648
5.41268e-13
2.21737e-10
3.17397e-09
7.81378e-10
8.42143e-11
6.17601e-12
2.2272e-13
5.08023e-15
8.73178e-17
1.17415e-18
1.29712e-20
1
1
1
1
1
1
1
1
1
1
0.999999
0.984426
2.76711e-11
3.58567e-09
5.94867e-07
4.38282e-08
1.46326e-09
6.05664e-11
2.21883e-12
6.39686e-14
1.25228e-15
1.87741e-17
1.91312e-19
0.750907
0.714534
0.696562
0.689667
0.689294
0.693901
0.701739
0.711608
0.723108
0.736109
0.751828
0.626284
5.7684e-10
2.26743e-05
4.26386e-06
1.20732e-07
5.86497e-09
2.433e-10
8.82772e-12
3.75772e-13
1.03267e-14
2.09879e-16
3.40252e-18
0.0809846
0.0564349
0.0504909
0.0481343
0.0480439
0.0497848
0.0528422
0.0571258
0.0624875
0.0690659
0.0769995
0.0453223
0.0021594
6.83754e-05
1.50129e-06
1.14129e-07
7.24518e-09
3.65576e-10
1.5294e-11
7.60415e-13
2.63734e-14
6.09992e-16
1.1603e-17
0.00196286
0.00103663
0.000989829
0.000977686
0.000977594
0.0010032
0.00105131
0.00111971
0.00119904
0.00125177
0.00118004
0.000732775
0.00107457
0.000117001
1.14665e-06
7.81694e-08
4.41253e-09
2.04448e-10
7.90171e-12
2.69611e-13
8.17759e-15
1.96842e-16
5.74874e-18
0.000252985
0.000125265
0.00011361
0.000111563
0.000110813
0.000112964
0.000117662
0.000124085
0.000129946
0.000127538
0.000105848
9.85405e-05
9.41434e-05
1.24207e-05
1.11003e-07
1.06487e-08
8.5037e-10
4.49003e-11
2.05886e-12
7.44148e-14
2.18635e-15
5.38339e-17
2.28876e-18
2.98692e-05
1.43349e-05
1.25484e-05
1.21309e-05
1.18672e-05
1.19133e-05
1.21761e-05
1.25174e-05
1.25053e-05
1.13959e-05
7.96831e-06
9.78812e-06
5.29208e-06
2.37976e-07
4.99145e-09
4.51594e-10
3.48685e-11
2.29966e-12
1.3373e-13
5.75073e-15
1.84236e-16
4.96804e-18
2.33415e-19
3.25332e-06
1.5478e-06
1.31342e-06
1.24023e-06
1.18655e-06
1.1617e-06
1.15278e-06
1.13567e-06
1.06821e-06
8.77096e-07
5.90511e-07
6.2954e-07
2.39816e-07
5.52724e-09
1.89321e-10
1.57174e-11
1.19657e-12
8.14047e-14
4.29982e-15
1.96764e-16
7.77117e-18
2.35234e-19
7.78445e-21
3.29494e-07
1.57274e-07
1.2908e-07
1.18338e-07
1.10003e-07
1.04246e-07
9.93774e-08
9.27988e-08
8.077e-08
5.89274e-08
4.5594e-08
3.32772e-08
8.26204e-09
1.59281e-10
7.15769e-12
5.51782e-13
6.18e-14
4.31084e-15
1.389e-16
5.49703e-18
2.16662e-19
7.31562e-21
2.14582e-22
3.11475e-08
1.49798e-08
1.18543e-08
1.05019e-08
9.43301e-09
8.59779e-09
7.81413e-09
6.8541e-09
5.4779e-09
3.54737e-09
2.71425e-09
1.49196e-09
2.76124e-10
1.67526e-11
8.3129e-13
6.78089e-14
3.82627e-15
1.55588e-16
5.18513e-18
1.4832e-19
5.44684e-21
1.8159e-22
5.13413e-24
2.75317e-09
1.33394e-09
1.01631e-09
8.66678e-10
7.48894e-10
6.53286e-10
5.62924e-10
4.61208e-10
3.37121e-10
1.94593e-10
1.38045e-10
6.13984e-11
1.08895e-11
9.8921e-13
5.54293e-14
2.61534e-15
1.20128e-16
4.84251e-18
1.63962e-19
4.46075e-21
1.23869e-22
3.89745e-24
1.08827e-25
2.26011e-10
1.10803e-10
8.13378e-11
6.66903e-11
5.5329e-11
4.60798e-11
3.7552e-11
2.86961e-11
1.93707e-11
1.02634e-11
6.71598e-12
2.63811e-12
4.8357e-13
3.89444e-14
1.9607e-15
8.21554e-17
3.48315e-18
1.33913e-19
4.42097e-21
1.22205e-22
2.7418e-24
8.0374e-26
2.16303e-27
1.93725e-11
9.82643e-12
6.9567e-12
5.50572e-12
4.3947e-12
3.49369e-12
2.6951e-12
1.9334e-12
1.20367e-12
8.91514e-13
5.16156e-13
1.42482e-13
1.77347e-14
1.27067e-15
6.55903e-17
2.70732e-18
1.00993e-19
3.59996e-21
1.13341e-22
3.04821e-24
6.74964e-26
1.49665e-27
3.74026e-29
1.89066e-12
1.2988e-12
8.91576e-13
6.90763e-13
5.39919e-13
4.17864e-13
3.14309e-13
2.2169e-13
1.38929e-13
7.22137e-14
2.5504e-14
5.14072e-15
5.70387e-16
4.03258e-17
2.07692e-18
8.25159e-20
2.7254e-21
8.85691e-23
2.60634e-24
6.65346e-26
1.43606e-27
2.64187e-29
6.09386e-31
2.06852e-13
1.15655e-13
7.37203e-14
5.36461e-14
3.94218e-14
2.86386e-14
2.00709e-14
1.30116e-14
7.35645e-15
3.1586e-15
9.3815e-16
1.69158e-16
1.77662e-17
1.22192e-18
6.15978e-20
2.38767e-21
7.52224e-23
2.13354e-24
5.74078e-26
1.3655e-27
2.78545e-29
4.73559e-31
8.76554e-33
1.42761e-14
7.29205e-15
4.44609e-15
3.07403e-15
2.14375e-15
1.47386e-15
9.6995e-16
5.82852e-16
2.99853e-16
1.1987e-16
3.26338e-17
5.37724e-18
5.3173e-19
3.52377e-20
1.71943e-21
6.46163e-23
1.91002e-24
4.72811e-26
1.1433e-27
2.487e-29
4.68612e-31
7.46927e-33
1.16141e-34
8.25089e-16
4.29741e-16
2.54208e-16
1.68524e-16
1.12327e-16
7.34836e-17
4.56871e-17
2.56717e-17
1.21869e-17
4.43212e-18
1.08989e-18
1.64199e-19
1.52584e-20
9.66455e-22
4.51901e-23
1.62356e-24
4.5615e-26
1.04838e-27
2.17593e-29
4.23352e-31
7.21713e-33
1.04811e-34
1.30966e-36
4.6638e-17
2.42932e-17
1.39263e-17
8.84159e-18
5.62562e-18
3.49875e-18
2.05346e-18
1.07821e-18
4.7224e-19
1.5645e-19
3.48737e-20
4.81735e-21
4.19456e-22
2.51868e-23
1.11717e-24
3.79338e-26
1.00425e-27
2.09392e-29
3.66555e-31
6.26677e-33
9.44798e-35
1.21342e-36
1.30156e-38
2.52141e-18
1.31078e-18
7.28782e-19
4.43214e-19
2.69179e-19
1.59155e-19
8.81859e-20
4.32803e-20
1.75031e-20
5.29181e-21
1.07197e-21
1.3588e-22
1.10371e-23
6.22823e-25
2.59233e-26
8.21533e-28
2.01421e-29
3.83355e-31
5.93666e-33
8.44423e-35
1.09242e-36
1.1995e-38
1.07305e-40
1.30965e-19
6.78775e-20
3.66289e-20
2.13436e-20
1.23733e-20
6.95544e-21
3.63854e-21
1.66934e-21
6.23627e-22
1.72228e-22
3.17357e-23
3.6866e-24
2.7768e-25
1.45821e-26
5.62626e-28
1.64005e-29
3.659e-31
6.25761e-33
8.36559e-35
9.56458e-37
1.02568e-38
9.18555e-41
6.39639e-43
6.57879e-21
3.39578e-21
1.7791e-21
9.93474e-22
5.49757e-22
2.93806e-22
1.45092e-22
6.22181e-23
2.14684e-23
5.41549e-24
9.07048e-25
9.62425e-26
6.6705e-27
3.22287e-28
1.13633e-29
2.99394e-31
5.94816e-33
8.88815e-35
9.8662e-37
8.6667e-39
7.33605e-41
4.95962e-43
2.86536e-45
3.21912e-22
1.65295e-22
8.40621e-23
4.49923e-23
2.37655e-23
1.20738e-23
5.62696e-24
2.25409e-24
7.17871e-25
1.65216e-25
2.50931e-26
2.41898e-27
1.528e-28
6.70153e-30
2.12275e-31
4.948e-33
8.51588e-35
1.07108e-36
9.58225e-39
6.42442e-41
3.82418e-43
1.64717e-45
7.75025e-48
1.52725e-23
7.80248e-24
3.84989e-24
1.97759e-24
9.98681e-25
4.8325e-25
2.12944e-25
7.97923e-26
2.34623e-26
4.91705e-27
6.74698e-28
5.86802e-29
3.34019e-30
1.3094e-31
3.65282e-33
7.34126e-35
1.0571e-36
1.06428e-38
7.13859e-41
3.28164e-43
1.14683e-45
2.34453e-48
9.24613e-51
6.73172e-25
3.41503e-25
1.63737e-25
8.07225e-26
3.89104e-26
1.78725e-26
7.41535e-27
2.58974e-27
7.01821e-28
1.38751e-28
1.75074e-29
1.37827e-30
7.02591e-32
2.42658e-33
5.84126e-35
9.85075e-37
1.14167e-38
8.63947e-41
3.84857e-43
9.89584e-46
1.05736e-48
9.1557e-52
1.22378e-54
2.46778e-25
1.19241e-25
5.80237e-26
2.7315e-26
1.20315e-26
4.68615e-27
1.50879e-27
3.724e-28
6.48453e-29
7.44229e-30
5.53213e-31
2.79276e-32
9.65731e-34
2.69247e-35
5.6912e-37
8.23053e-39
7.8901e-41
4.63182e-43
1.37096e-45
1.04194e-48
1.44262e-54
-2.90949e-60
-2.02262e-61
4.75758e-46
-2.30689e-48
1.03529e-50
-1.78333e-53
1.90957e-44
1.79872e-46
1.93246e-48
8.09817e-51
7.92889e-43
7.47839e-45
1.05207e-46
1.35284e-48
2.31274e-41
2.50329e-43
4.00709e-45
5.99606e-47
6.154e-40
7.29283e-42
1.27621e-43
1.98805e-45
1.52204e-38
1.96567e-40
3.60787e-42
5.6054e-44
3.54792e-37
4.88695e-39
9.28766e-41
1.41978e-42
7.85651e-36
1.14389e-37
2.24244e-39
3.3297e-41
1.6662e-34
2.55062e-36
5.11213e-38
7.46671e-40
3.40694e-33
5.4582e-35
1.11426e-36
1.59693e-38
6.89593e-32
1.13669e-33
2.34365e-35
3.26002e-37
1.33802e-30
2.30098e-32
4.85325e-34
6.60698e-36
3.0337e-29
4.83278e-31
1.00007e-32
2.8331e-34
1.3203e-27
1.76961e-29
2.83364e-31
9.2135e-33
3.62617e-26
5.54811e-28
9.65228e-30
2.48038e-31
8.95385e-25
1.4614e-26
2.63679e-28
6.06676e-30
2.02381e-23
3.56013e-25
6.81582e-27
1.49512e-28
2.43631e-22
5.75687e-24
1.40286e-25
3.47781e-27
3.09445e-21
9.51103e-23
1.81804e-24
3.752e-26
6.82162e-20
3.09997e-21
7.6389e-23
1.78083e-24
2.7188e-19
1.62883e-20
4.58971e-22
1.18861e-23
1.94047e-19
1.71214e-20
4.24857e-22
8.84005e-24
9.14088e-20
4.54445e-21
1.23782e-22
1.8162e-24
1.03946e-20
4.51299e-22
1.67457e-23
2.6516e-25
4.08027e-22
2.87362e-23
9.8662e-25
1.70178e-26
1.12555e-23
1.19912e-24
3.20235e-26
6.98356e-28
2.66917e-25
3.77678e-26
1.10756e-27
2.15008e-29
5.43538e-27
9.62429e-28
3.17383e-29
5.16143e-31
1.03344e-28
1.98459e-29
6.83358e-31
9.80924e-33
1.70601e-30
3.6451e-31
1.282e-32
1.92404e-34
2.61342e-32
5.62416e-33
1.92099e-34
2.91425e-36
3.46465e-34
7.75469e-35
2.54661e-36
3.71344e-38
4.18112e-36
8.97049e-37
2.71556e-38
3.76045e-40
4.22174e-38
9.08256e-39
2.5178e-40
3.15597e-42
3.69758e-40
7.40096e-41
1.80041e-42
1.9984e-44
2.55961e-42
4.96795e-43
1.04363e-44
9.56926e-47
1.30581e-44
2.47308e-45
4.32534e-47
2.95041e-49
4.66201e-47
8.26846e-48
1.12103e-49
4.44365e-52
9.24962e-50
1.66105e-50
1.56855e-52
1.49923e-55
6.70044e-53
1.33517e-53
5.4444e-56
2.14544e-59
1.73517e-58
4.52411e-58
4.94086e-61
-2.36579e-63
-1.2536e-61
-9.30645e-65
-4.79029e-69
-6.59076e-69
-1.88066e-68
3.04776e-64
6.20784e-63
5.88387e-68
3.08496e-67
-4.5257e-70
1.02056e-73
4.11891e-77
1.1793e-80
2.54876e-84
6.89573e-88
1.29916e-91
2.10389e-95
4.59508e-99
2.0746e-102
4.99636e-105
2.51267e-108
9.14162e-112
1.34892e-115
-1.79337e-53
-4.01915e-56
-1.87319e-59
6.0227e-62
4.32163e-65
2.81347e-68
1.13925e-71
4.35707e-75
1.33853e-78
2.76942e-82
7.49995e-86
1.42496e-89
2.32477e-93
5.48209e-97
1.87283e-99
1.00024e-102
4.01536e-106
1.31168e-109
1.80046e-113
2.43438e-51
5.08879e-55
6.65319e-58
5.20909e-60
3.69394e-63
2.30396e-66
9.3822e-70
3.80466e-73
1.16999e-76
2.4393e-80
6.67521e-84
1.28638e-87
2.45355e-91
7.90052e-94
3.48616e-97
1.38422e-100
4.88604e-104
1.4673e-107
1.89698e-111
1.55845e-49
8.42234e-53
8.96371e-56
3.6093e-58
2.5566e-61
1.60306e-64
6.62553e-68
2.70854e-71
8.48251e-75
1.80162e-78
5.01739e-82
4.04869e-85
4.30747e-88
1.29411e-91
4.21151e-95
1.46567e-98
4.75542e-102
1.33588e-105
1.64861e-109
6.55339e-48
6.50074e-51
8.75336e-54
1.95095e-56
1.41499e-59
9.12175e-63
3.88854e-66
1.62714e-69
5.24872e-73
1.26578e-76
2.58321e-79
1.83063e-82
5.79975e-86
1.35097e-89
3.91211e-93
1.26397e-96
3.85946e-100
1.02648e-103
1.2214e-107
2.18529e-46
3.15339e-49
5.00779e-52
8.56863e-55
6.25583e-58
4.23312e-61
1.87637e-64
8.97233e-68
1.09347e-70
1.28431e-73
4.83477e-77
1.96089e-80
5.17127e-84
1.09954e-87
3.00474e-91
9.2574e-95
2.69717e-98
6.84704e-102
7.91e-106
6.26696e-45
1.17032e-47
2.09176e-50
3.30052e-53
2.92219e-56
2.20518e-59
4.65406e-62
4.5241e-65
3.07292e-68
1.41627e-71
4.10464e-75
1.48228e-78
3.67315e-82
7.51e-86
1.98876e-89
5.92974e-93
1.66295e-96
4.05182e-100
4.56601e-104
1.78248e-43
1.163e-45
3.23347e-48
6.0335e-51
8.32284e-54
8.47408e-57
7.48638e-60
4.27513e-63
2.32476e-66
9.61387e-70
2.62437e-73
9.15951e-77
2.22386e-80
4.47732e-84
1.16564e-87
3.39422e-91
9.21627e-95
2.16369e-98
2.38625e-102
1.5538e-41
8.80902e-44
2.35664e-46
4.32496e-49
5.61768e-52
5.31012e-55
4.4189e-58
2.41869e-61
1.27874e-64
5.20421e-68
1.40936e-71
4.90425e-75
1.18987e-78
2.38978e-82
6.17038e-86
1.76529e-89
4.66007e-93
1.05714e-96
1.14367e-100
5.4888e-40
3.10383e-42
8.84797e-45
1.7289e-47
2.35806e-50
2.30558e-53
1.96566e-56
1.09604e-59
5.8844e-63
2.43018e-66
6.67119e-70
2.34988e-73
5.75942e-77
1.16302e-80
2.99517e-84
8.45392e-88
2.17618e-91
4.78037e-95
5.08168e-99
1.52349e-38
8.80592e-41
2.67093e-43
5.58651e-46
8.11299e-49
8.36646e-52
7.46179e-55
4.32208e-58
2.39588e-61
1.01781e-64
2.8629e-68
1.02936e-71
2.56521e-75
5.23419e-79
1.34967e-82
3.76947e-86
9.48285e-90
2.0204e-93
2.11303e-97
3.75606e-37
2.22079e-39
7.14097e-42
1.59713e-44
2.47614e-47
2.70839e-50
2.54547e-53
1.54375e-56
8.90245e-60
3.91678e-63
1.13548e-66
4.18755e-70
1.06531e-73
2.2036e-77
5.70417e-81
1.57973e-84
3.8903e-88
8.04947e-92
8.29009e-96
8.57283e-36
5.19373e-38
1.76417e-40
4.20934e-43
6.96396e-46
8.08965e-49
8.0326e-52
5.11758e-55
3.08085e-58
1.40869e-61
4.22244e-65
1.60171e-68
4.16998e-72
8.76256e-76
2.28108e-79
6.27376e-83
1.51429e-86
3.04589e-90
3.09123e-94
1.86415e-34
1.15338e-36
4.12552e-39
1.04747e-41
1.84654e-44
2.27716e-47
2.39002e-50
1.60139e-53
1.00783e-56
4.797e-60
1.4891e-63
5.81887e-67
1.55257e-70
3.31854e-74
8.69776e-78
2.37825e-81
5.63149e-85
1.10203e-88
1.1027e-92
3.91947e-33
2.46999e-35
9.27935e-38
2.50109e-40
4.68958e-43
6.13215e-46
6.79923e-49
4.791e-52
3.15277e-55
1.5629e-58
5.02765e-62
2.02513e-65
5.54163e-69
1.20571e-72
3.18382e-76
8.66105e-80
2.01334e-83
3.83549e-87
3.78531e-91
8.00792e-32
5.14291e-34
2.02951e-36
5.79828e-39
1.15426e-41
1.59805e-44
1.86976e-47
1.3845e-50
9.5213e-54
4.9147e-57
1.63825e-60
6.80224e-64
1.90938e-67
4.22972e-71
1.12565e-74
3.04782e-78
6.95859e-82
1.29115e-85
1.25717e-89
1.61487e-30
1.08618e-32
4.34519e-35
1.30395e-37
2.76419e-40
4.06538e-43
5.01361e-46
3.89734e-49
2.79823e-52
1.50289e-55
5.18813e-59
2.21959e-62
6.38959e-66
1.44101e-69
3.86505e-73
1.04183e-76
2.33695e-80
4.22496e-84
4.05947e-88
3.8022e-29
2.32713e-31
9.61636e-34
3.00152e-36
6.56077e-39
1.00016e-41
1.30478e-44
1.07234e-47
8.05472e-51
4.49702e-54
1.60644e-57
7.07678e-61
2.0882e-64
4.7926e-68
1.29527e-71
3.4759e-75
7.66159e-79
1.35001e-82
1.28021e-86
1.033e-27
3.19565e-30
2.23813e-32
9.05577e-35
1.85874e-37
2.64739e-40
3.46017e-43
2.88354e-46
2.24317e-49
1.30801e-52
4.87236e-56
2.21485e-59
6.69664e-63
1.56318e-66
4.25569e-70
1.13684e-73
2.46251e-77
4.22998e-81
3.9594e-85
4.51949e-26
1.48379e-28
8.7259e-31
3.6611e-33
9.14323e-36
1.68287e-38
1.67285e-41
1.01502e-44
6.66519e-48
3.84582e-51
1.44336e-54
6.70328e-58
2.087e-61
4.99009e-65
1.37495e-68
3.65874e-72
7.78893e-76
1.30453e-79
1.20547e-83
4.6709e-25
1.24101e-27
8.24812e-30
3.96152e-32
1.45721e-34
3.81431e-37
7.20926e-40
1.00644e-42
1.10813e-45
6.21437e-49
1.00129e-52
2.40913e-56
6.60104e-60
1.56806e-63
4.30115e-67
1.14002e-70
2.39579e-74
3.93042e-78
3.59831e-82
1.09909e-24
1.39429e-27
3.18702e-30
3.30308e-32
2.25563e-34
1.11527e-36
3.95646e-39
1.00423e-41
1.79274e-44
1.58152e-47
8.8722e-51
3.73628e-54
1.56403e-57
2.56103e-61
2.37099e-65
4.00695e-69
7.52975e-73
1.18392e-76
1.06153e-80
6.62301e-25
2.84796e-27
1.20248e-30
6.90889e-33
3.0746e-35
1.03948e-37
2.60759e-40
4.72478e-43
1.73312e-45
1.94316e-47
4.04044e-50
4.65764e-53
3.48759e-56
1.1645e-59
2.92818e-63
6.80973e-67
1.61197e-70
2.03908e-74
7.79956e-79
9.49443e-26
4.40887e-28
2.96217e-31
2.06115e-33
1.14637e-35
5.03197e-38
1.72027e-40
4.51209e-43
8.92239e-46
1.30462e-48
1.38177e-51
1.04063e-54
2.55107e-57
2.12527e-59
1.86795e-62
9.78189e-66
3.43786e-69
5.37693e-73
4.14392e-77
6.42891e-27
3.24851e-29
2.68892e-32
2.08023e-34
1.26663e-36
6.76431e-39
2.83558e-41
9.11421e-44
2.46899e-46
5.65041e-49
8.8465e-52
1.05227e-54
9.39973e-58
6.22792e-61
3.00674e-64
1.02054e-67
8.34459e-71
6.43377e-73
2.28615e-76
2.65064e-28
1.42947e-30
1.3996e-33
1.22947e-35
8.90956e-38
5.30383e-40
2.57669e-42
1.01429e-44
3.0466e-47
4.7287e-50
8.89664e-53
8.67219e-56
1.18153e-58
2.90179e-61
2.03328e-64
1.02121e-67
3.32967e-71
7.58298e-75
2.36045e-75
8.13136e-30
4.56898e-32
4.78951e-35
4.49776e-37
3.51035e-39
2.28028e-41
1.22687e-43
5.4399e-46
1.94432e-48
5.67505e-51
1.34814e-53
2.54499e-56
3.34975e-59
2.43521e-63
-1.06351e-65
-2.79813e-68
-2.26905e-71
2.50626e-75
3.13276e-76
1.98523e-31
1.13518e-33
1.22989e-36
1.19804e-38
9.77466e-41
6.68941e-43
3.82878e-45
1.82145e-47
7.16502e-50
2.31913e-52
6.15036e-55
1.32228e-57
2.22895e-60
3.00926e-63
3.13586e-66
2.37268e-69
1.0043e-72
-1.09964e-75
1.70993e-77
3.82033e-33
2.18438e-35
2.36035e-38
2.33665e-40
1.9508e-42
1.37744e-44
8.1898e-47
4.08077e-49
1.69538e-51
5.83821e-54
1.6524e-56
3.83072e-59
7.17151e-62
1.07355e-64
1.24105e-67
1.05563e-70
5.76888e-74
8.89758e-78
4.91656e-79
6.42925e-35
3.12117e-37
3.77159e-40
3.72343e-42
3.11813e-44
2.22246e-46
1.34241e-48
6.84015e-51
2.92576e-53
1.04459e-55
3.09322e-58
7.53477e-61
1.49285e-63
2.36008e-66
2.89929e-69
2.62511e-72
1.57088e-75
4.18145e-79
7.17222e-81
8.87486e-37
3.73733e-39
4.6098e-42
4.56797e-44
3.76894e-46
2.66102e-48
1.60084e-50
8.16908e-53
3.51882e-55
1.27239e-57
3.83694e-60
9.56874e-63
1.95077e-65
3.19428e-68
4.0801e-71
3.8535e-74
2.41415e-77
7.2319e-81
6.56636e-83
1.07367e-38
3.98622e-41
3.98589e-44
4.06903e-46
3.58472e-48
2.53803e-50
1.49283e-52
7.4832e-55
3.18131e-57
1.14068e-59
3.42671e-62
8.55186e-65
1.75223e-67
2.89507e-70
3.74341e-73
3.58818e-76
2.28542e-79
7.10374e-83
3.48097e-85
1.06431e-40
3.55341e-43
2.86361e-46
2.71869e-48
2.23164e-50
1.5951e-52
9.88413e-55
4.91888e-57
2.02489e-59
7.05685e-62
2.06888e-64
5.059e-67
1.01958e-69
1.66298e-72
2.12943e-75
2.02645e-78
1.2835e-81
4.01374e-85
1.15852e-87
9.03997e-43
2.74744e-45
1.5547e-48
1.3485e-50
1.01114e-52
6.62759e-55
3.77999e-57
1.86668e-59
7.94612e-62
2.90165e-64
8.78678e-67
2.06317e-69
4.00597e-72
6.31833e-75
7.85054e-78
7.2694e-81
4.48769e-84
1.37487e-87
2.04658e-90
6.02215e-45
1.71041e-47
6.56893e-51
5.06761e-53
3.382e-55
1.9862e-57
1.01842e-59
4.53567e-62
1.74727e-64
5.79318e-67
1.64429e-69
3.97036e-72
8.09609e-75
1.37923e-77
1.69175e-80
1.49614e-83
8.83604e-87
2.59592e-90
2.00825e-93
3.21961e-47
8.90675e-50
1.8872e-53
1.26926e-55
7.37107e-58
3.75064e-60
1.66414e-62
6.47036e-65
2.18563e-67
6.38354e-70
1.60325e-72
3.44139e-75
6.27737e-78
9.64422e-81
1.22941e-83
1.26544e-86
9.74166e-90
2.68252e-93
8.15489e-97
1.23868e-49
3.69068e-52
3.28816e-56
1.86444e-58
9.08774e-61
3.88241e-63
1.44648e-65
4.67741e-68
1.30648e-70
3.13697e-73
6.50686e-76
1.18799e-78
1.86285e-81
2.50405e-84
2.85166e-87
2.69443e-90
2.00364e-93
1.02547e-96
9.39192e-101
3.09648e-52
1.38238e-54
2.99079e-59
1.36134e-61
5.24929e-64
1.76702e-66
5.16008e-69
1.29844e-71
2.79465e-74
5.10023e-77
7.80792e-80
9.88518e-83
1.01324e-85
8.09251e-89
7.66026e-92
7.86553e-95
7.05248e-98
4.22684e-101
-5.87416e-105
4.52199e-55
2.57473e-57
8.82505e-63
2.93584e-65
7.73273e-68
1.6968e-70
2.96141e-73
3.63814e-76
1.46578e-79
-6.71922e-82
-2.2843e-84
-4.47382e-87
-6.5445e-90
-7.66502e-93
-7.38652e-96
-5.86231e-99
-3.56951e-102
-6.34941e-106
-2.84852e-109
2.73226e-58
1.15527e-60
-2.41664e-69
-2.87597e-70
-2.08973e-72
-7.15272e-75
-1.80211e-77
-3.65348e-80
-6.15288e-83
-8.73173e-86
-1.05241e-88
-1.08355e-91
-9.61048e-95
-7.42535e-98
-5.05414e-101
-3.02262e-104
-1.50134e-107
-4.64557e-111
-1.37553e-115
3.22804e-62
8.62471e-65
-1.43061e-71
-2.3581e-74
-4.13385e-77
-6.18544e-80
-7.94188e-83
-8.76838e-86
-8.32986e-89
-6.81201e-92
-4.80371e-95
-2.93655e-98
-1.57572e-101
-7.59992e-105
-3.40967e-108
-1.47603e-111
-6.34099e-115
-2.64812e-118
-3.87266e-122
1.7073e-68
1.51159e-71
-4.88339e-79
-2.54872e-82
-1.34436e-85
-6.06318e-89
-2.34992e-92
-7.84288e-96
-2.25552e-99
-5.59294e-103
-1.20042e-106
-2.24001e-110
-3.75262e-114
-5.85277e-118
-9.8831e-122
-1.62873e-125
-4.1001e-129
-2.31317e-132
-1.24391e-135
)
;

boundaryField
{
    leftWall
    {
        type            zeroGradient;
    }
    rightWall
    {
        type            zeroGradient;
    }
    lowerWall
    {
        type            zeroGradient;
    }
    atmosphere
    {
        type            inletOutlet;
        inletValue      uniform 0;
        value           nonuniform List<scalar> 
46
(
2.46778e-25
1.19241e-25
5.80237e-26
2.7315e-26
1.20315e-26
4.68615e-27
1.50879e-27
3.724e-28
6.48453e-29
7.44229e-30
5.53213e-31
2.79276e-32
9.65731e-34
2.69247e-35
5.6912e-37
8.23053e-39
7.8901e-41
4.63182e-43
1.37096e-45
0
0
0
0
0
0
0
0
0
0
0
0
0
0
0
0
0
0
0
0
0
0
0
0
0
0
0
)
;
    }
    defaultFaces
    {
        type            empty;
    }
}


// ************************************************************************* //
