/*--------------------------------*- C++ -*----------------------------------*\
  =========                 |
  \\      /  F ield         | OpenFOAM: The Open Source CFD Toolbox
   \\    /   O peration     | Website:  https://openfoam.org
    \\  /    A nd           | Version:  9
     \\/     M anipulation  |
\*---------------------------------------------------------------------------*/
FoamFile
{
    format      ascii;
    class       surfaceScalarField;
    location    "0.05";
    object      alphaPhi0.water;
}
// * * * * * * * * * * * * * * * * * * * * * * * * * * * * * * * * * * * * * //

dimensions      [0 3 -1 0 0 0 0];

internalField   nonuniform List<scalar> 
4432
(
-2.22134e-06
2.22134e-06
-5.6402e-06
3.41887e-06
-9.71282e-06
4.07262e-06
-1.40502e-05
4.33734e-06
-1.86657e-05
4.61561e-06
-2.37815e-05
5.11627e-06
-2.97984e-05
6.02278e-06
-3.71728e-05
7.43429e-06
-4.65904e-05
9.90561e-06
-2.96386e-05
1.77659e-05
-7.93904e-37
8.73516e-06
-1.33499e-36
8.6011e-38
-1.50351e-36
-4.09738e-37
-3.5622e-37
-1.61891e-36
-5.53024e-38
-3.71665e-37
-1.16033e-39
-4.83993e-38
-9.68844e-42
-1.11541e-39
-6.72999e-44
-8.77418e-42
-5.93097e-46
-6.7617e-44
-5.82618e-48
-6.16598e-46
-4.00582e-50
-6.11356e-48
-1.51411e-53
-4.04616e-50
-7.07814e-52
-2.76073e-06
4.98205e-06
-6.19626e-06
6.85439e-06
-1.0105e-05
7.98135e-06
-1.43258e-05
8.5582e-06
-1.88953e-05
9.18507e-06
-2.40393e-05
1.02606e-05
-3.01648e-05
1.21532e-05
-3.79943e-05
1.53136e-05
-4.86209e-05
2.09358e-05
-3.71435e-05
3.2965e-05
-2.12649e-06
2.82686e-05
-1.47359e-35
2.88654e-07
-1.37973e-35
-2.06402e-36
-5.76461e-36
-1.13267e-35
-9.71751e-37
-3.68367e-36
-2.90001e-38
-1.04459e-36
-2.89939e-40
-2.9756e-38
-2.36393e-42
-3.00593e-40
-2.09064e-44
-2.46649e-42
-2.02345e-46
-2.23341e-44
-1.53095e-48
-2.18956e-46
-4.64928e-52
-1.91354e-48
-2.64769e-51
-3.11404e-06
8.09609e-06
-6.3491e-06
1.00894e-05
-9.81801e-06
1.14503e-05
-1.35609e-05
1.23011e-05
-1.76309e-05
1.3255e-05
-2.21687e-05
1.47987e-05
-2.73989e-05
1.73856e-05
-3.36781e-05
2.1616e-05
-4.12123e-05
2.86723e-05
-4.33422e-05
4.12105e-05
-1.09893e-05
4.84366e-05
-6.38611e-35
5.59034e-06
-7.09734e-35
2.72905e-37
-3.90395e-35
-5.37514e-35
-1.38388e-35
-4.11162e-35
-4.21948e-37
-1.29234e-35
-4.99562e-39
-4.60867e-37
-4.37411e-41
-5.39426e-39
-3.86753e-43
-4.67374e-41
-3.70675e-45
-4.24273e-43
-2.94492e-47
-4.12107e-45
-1.25298e-50
-4.82381e-47
-7.17855e-50
-3.30127e-06
1.13974e-05
-6.37972e-06
1.31679e-05
-9.48075e-06
1.45513e-05
-1.27843e-05
1.56047e-05
-1.63749e-05
1.68456e-05
-2.03347e-05
1.87585e-05
-2.47508e-05
2.18026e-05
-2.96804e-05
2.65541e-05
-3.4788e-05
3.38584e-05
-3.77905e-05
4.47307e-05
-1.91222e-05
5.22075e-05
-1.99921e-34
1.51944e-05
-2.32377e-34
1.21821e-35
-2.06885e-34
-2.35565e-34
-9.27296e-35
-2.98368e-34
-4.48309e-36
-1.13231e-34
-6.12262e-38
-5.07325e-36
-5.73387e-40
-6.78535e-38
-5.14837e-42
-6.30374e-40
-4.92522e-44
-5.78238e-42
-3.90028e-46
-6.4605e-44
-1.95414e-49
-7.76393e-46
-1.37745e-48
-3.32864e-06
1.4726e-05
-6.2844e-06
1.61236e-05
-9.11237e-06
1.73792e-05
-1.20624e-05
1.85548e-05
-1.5244e-05
2.00271e-05
-1.87071e-05
2.22217e-05
-2.24601e-05
2.55558e-05
-2.6414e-05
3.05114e-05
-3.01275e-05
3.76015e-05
-3.20433e-05
4.68652e-05
-2.21996e-05
5.19124e-05
-5.77479e-34
1.93387e-05
-7.23907e-34
7.36828e-35
-9.98856e-34
-9.65461e-34
-6.15996e-34
-1.94718e-33
-3.78243e-35
-8.22549e-34
-5.99457e-37
-4.42635e-35
-6.09244e-39
-6.82776e-37
-5.64604e-41
-6.91497e-39
-5.2401e-43
-6.55776e-41
-3.94906e-45
-7.89135e-43
-2.14601e-48
-9.0988e-45
-1.78695e-47
-3.24679e-06
1.79728e-05
-6.09974e-06
1.89766e-05
-8.74975e-06
2.00292e-05
-1.14493e-05
2.12544e-05
-1.43159e-05
2.28937e-05
-1.73842e-05
2.529e-05
-2.06252e-05
2.87969e-05
-2.38988e-05
3.37864e-05
-2.68025e-05
4.05188e-05
-2.83148e-05
4.84985e-05
-2.20755e-05
5.21485e-05
-1.69687e-33
2.09529e-05
-2.25267e-33
3.17979e-34
-4.76273e-33
-4.38368e-33
-3.72677e-33
-1.3347e-32
-2.82672e-34
-8.57031e-33
-5.11416e-36
-4.14885e-34
-5.62266e-38
-7.67395e-36
-5.35977e-40
-9.17316e-38
-4.76977e-42
-1.02991e-39
-3.30519e-44
-1.22219e-41
-1.92906e-47
-1.34042e-43
-2.38446e-46
-3.11607e-06
2.10889e-05
-5.88994e-06
2.17505e-05
-8.44966e-06
2.2589e-05
-1.10015e-05
2.38062e-05
-1.36538e-05
2.55461e-05
-1.64343e-05
2.80704e-05
-1.93016e-05
3.16644e-05
-2.21127e-05
3.65983e-05
-2.45396e-05
4.29531e-05
-2.59064e-05
4.99372e-05
-2.1556e-05
5.27308e-05
-5.79596e-33
2.2043e-05
-7.78151e-33
1.24053e-33
-2.22789e-32
-1.43352e-32
-2.05928e-32
-6.02318e-32
-2.13456e-33
-4.9759e-32
-4.4931e-35
-3.17242e-33
-5.45349e-37
-6.48457e-35
-5.28369e-39
-8.07633e-37
-4.44699e-41
-8.58655e-39
-2.77597e-43
-8.63339e-41
-1.98826e-46
-7.33698e-43
-2.0642e-45
-2.98979e-06
2.40787e-05
-5.72569e-06
2.44864e-05
-8.26872e-06
2.5132e-05
-1.07605e-05
2.6298e-05
-1.32916e-05
2.80772e-05
-1.58856e-05
3.06644e-05
-1.85008e-05
3.42795e-05
-2.10088e-05
3.91069e-05
-2.31529e-05
4.51021e-05
-2.44778e-05
5.13122e-05
-2.11448e-05
5.34306e-05
-2.04011e-32
2.28057e-05
-2.74264e-32
4.66096e-33
-7.54125e-32
-1.17622e-32
-1.04914e-31
-1.51325e-31
-1.28965e-32
-1.82685e-31
-3.02952e-34
-1.68118e-32
-3.68668e-36
-3.58033e-34
-3.45229e-38
-4.43053e-36
-2.61157e-40
-4.32734e-38
-1.36968e-42
-3.47191e-40
-1.49471e-45
-2.08176e-42
-6.30849e-45
-5.71575e-101
4.65256e-103
-1.87339e-100
2.83433e-101
-1.03219e-98
1.31831e-99
-1.1342e-95
3.3896e-98
-4.44642e-94
9.49282e-97
-3.92992e-94
-5.1522e-94
-2.21075e-96
-4.33931e-94
-2.39803e-99
-2.25826e-96
-1.08448e-102
-2.30665e-99
-2.57163e-106
-1.08597e-102
-6.8538e-110
-2.58866e-106
-1.19939e-113
-6.88981e-110
-1.75684e-117
-1.2059e-113
-3.44073e-121
-1.77257e-117
-7.55815e-125
-3.48573e-121
-1.31626e-128
-7.66904e-125
-1.18392e-132
-1.33304e-128
-1.47964e-137
-1.19434e-132
-1.06667e-134
-5.43913e-99
5.38914e-99
-6.23628e-97
4.95294e-97
-4.41171e-95
2.0818e-95
-4.59936e-92
5.15983e-94
-1.8331e-90
1.37819e-92
-4.77422e-91
-1.3731e-90
-1.37262e-93
-4.87051e-91
-1.22901e-96
-1.36977e-93
-5.36174e-100
-1.24334e-96
-1.2221e-103
-5.40124e-100
-3.17713e-107
-1.23286e-103
-5.47543e-111
-3.20105e-107
-7.86724e-115
-5.51714e-111
-1.50266e-118
-7.95445e-115
-3.21252e-122
-1.52532e-118
-5.68886e-126
-3.26736e-122
-6.1585e-130
-5.78634e-126
-6.43135e-135
-8.40544e-130
-4.12871e-134
-1.72681e-95
1.71501e-95
-1.25147e-93
1.21734e-93
-7.08822e-92
4.61821e-92
-7.33405e-89
1.10906e-90
-2.96861e-87
2.79514e-89
-2.25809e-88
-2.8125e-87
-4.27655e-91
-2.34838e-88
-3.24835e-94
-4.2678e-91
-1.30381e-97
-3.28982e-94
-2.84492e-101
-1.31503e-97
-7.22586e-105
-2.8772e-101
-1.22684e-108
-7.29823e-105
-1.73414e-112
-1.23921e-108
-3.24517e-116
-1.75775e-112
-6.8223e-120
-3.30246e-116
-1.24225e-123
-6.96198e-120
-1.57527e-127
-1.58525e-123
-2.41421e-132
-2.8452e-127
-1.50989e-131
-2.7239e-92
2.69588e-92
-1.53939e-90
1.48665e-90
-6.31337e-89
4.93033e-89
-6.32126e-86
1.11321e-87
-2.56424e-84
2.46492e-86
-6.66483e-86
-2.61387e-84
-8.86687e-89
-6.8715e-86
-5.765e-92
-8.8568e-89
-2.13656e-95
-5.84251e-92
-4.47888e-99
-2.16018e-95
-1.11365e-102
-4.54051e-99
-1.86613e-106
-1.12745e-102
-2.60403e-110
-1.88934e-106
-4.80197e-114
-2.64583e-110
-1.00229e-117
-4.90158e-114
-1.87996e-121
-1.22679e-117
-2.68816e-125
-3.01174e-121
-5.2703e-130
-6.02421e-125
-4.12782e-129
-2.62006e-89
2.59108e-89
-1.14205e-87
1.09184e-87
-3.60015e-86
3.06826e-86
-3.36679e-83
6.25142e-85
-1.34046e-81
1.05245e-83
-1.42474e-83
-1.42885e-81
-1.38521e-86
-1.46091e-83
-7.80553e-90
-1.38685e-86
-2.68694e-93
-7.91834e-90
-5.42844e-97
-2.72253e-93
-1.32477e-100
-5.51506e-97
-2.19642e-104
-1.34406e-100
-3.03699e-108
-2.22847e-104
-5.55466e-112
-3.09267e-108
-1.15696e-115
-6.63751e-112
-2.22582e-119
-1.71665e-115
-3.45337e-123
-4.27273e-119
-7.81821e-128
-9.27246e-123
-7.49176e-127
-1.78546e-86
1.76478e-86
-5.76355e-85
5.44086e-85
-1.45091e-83
1.23917e-83
-1.20959e-80
2.22668e-82
-4.59812e-79
1.33323e-81
-2.36549e-81
-5.08479e-79
-1.74413e-84
-2.41718e-81
-8.64602e-88
-1.75294e-84
-2.78102e-91
-8.77122e-88
-5.43612e-95
-2.82307e-91
-1.30541e-98
-5.69514e-95
-2.14733e-102
-1.55533e-98
-2.95726e-106
-3.21547e-102
-5.38477e-110
-5.52002e-106
-1.12216e-113
-1.30925e-109
-2.19945e-117
-3.63037e-113
-3.57567e-121
-9.7972e-117
-8.73004e-126
-2.40532e-120
-1.0445e-124
-1.68328e-80
1.68327e-80
-3.73661e-79
3.56816e-79
-1.5343e-76
6.21353e-78
-5.38852e-75
1.62335e-76
-2.16935e-76
-5.17247e-75
-3.23867e-79
-2.23612e-76
-1.82122e-82
-3.19611e-79
-8.15836e-86
-1.85786e-82
-2.48254e-89
-8.31006e-86
-4.72684e-93
-2.52367e-89
-1.12615e-96
-5.406e-93
-1.85388e-100
-1.4587e-96
-2.55896e-104
-2.74198e-100
-4.6612e-108
-4.37917e-104
-9.73291e-112
-9.46088e-108
-1.9276e-115
-2.42059e-111
-3.19154e-119
-6.17216e-115
-8.06538e-124
-1.45743e-118
-1.37454e-122
-6.19563e-77
6.20353e-77
-7.96898e-76
7.31361e-76
-2.64107e-73
9.48389e-75
-8.04573e-72
1.19723e-73
-3.73543e-74
-8.19626e-72
-3.51654e-77
-3.82191e-74
-1.62763e-80
-3.49051e-77
-6.58972e-84
-1.65969e-80
-1.90617e-87
-6.71614e-84
-3.53864e-91
-1.94057e-87
-8.32211e-95
-3.61874e-91
-1.35949e-98
-8.51719e-95
-1.86559e-102
-1.39483e-98
-3.38977e-106
-1.92662e-102
-7.0853e-110
-3.52943e-106
-1.40849e-113
-7.44485e-110
-2.32983e-117
-1.49838e-113
-5.98865e-122
-2.50262e-117
-4.58394e-121
-6.00519e-06
3.00839e-05
-1.18083e-05
3.02895e-05
-1.72926e-05
3.06163e-05
-2.25499e-05
3.15553e-05
-2.77143e-05
3.32416e-05
-3.28376e-05
3.57877e-05
-3.78462e-05
3.92881e-05
-4.25165e-05
4.37778e-05
-4.64735e-05
4.90662e-05
-4.93419e-05
5.42593e-05
-4.40555e-05
5.57823e-05
-1.64973e-31
2.48954e-05
-2.04994e-31
1.82942e-32
-6.35389e-31
-1.48551e-31
-9.73359e-31
-1.22265e-30
-1.48007e-31
-1.55606e-30
-4.02765e-33
-1.74802e-31
-5.71361e-35
-4.52644e-33
-5.73815e-37
-6.32328e-35
-4.24409e-39
-6.29625e-37
-2.02607e-41
-4.64289e-39
-3.86078e-44
-2.23045e-41
-4.46755e-44
-1.94999e-47
-5.65579e-06
3.57397e-05
-1.11831e-05
3.58168e-05
-1.64313e-05
3.58645e-05
-2.14119e-05
3.65359e-05
-2.61936e-05
3.80233e-05
-3.08037e-05
4.03978e-05
-3.51777e-05
4.36622e-05
-3.91494e-05
4.77499e-05
-4.24913e-05
5.24129e-05
-4.5046e-05
5.68706e-05
-4.18468e-05
5.81998e-05
-1.20615e-30
2.90556e-05
-1.41071e-30
1.26804e-31
-4.80032e-30
-9.21743e-31
-9.02033e-30
-1.08359e-29
-1.53429e-30
-1.5713e-29
-4.67633e-32
-1.85472e-30
-7.32616e-34
-5.37231e-32
-7.825e-36
-8.235e-34
-5.90674e-38
-8.67297e-36
-2.74078e-40
-6.47063e-38
-5.64016e-43
-2.97751e-40
-6.10007e-43
-4.63007e-46
-5.19241e-06
4.09321e-05
-1.02671e-05
4.08915e-05
-1.50902e-05
4.06875e-05
-1.96472e-05
4.10929e-05
-2.39652e-05
4.23413e-05
-2.80466e-05
4.44792e-05
-3.18314e-05
4.74469e-05
-3.51942e-05
5.11129e-05
-3.79842e-05
5.52058e-05
-4.01253e-05
5.9049e-05
-3.91594e-05
6.03207e-05
-9.18593e-30
3.38569e-05
-1.06245e-29
9.87267e-31
-3.88617e-29
-6.45811e-30
-8.29151e-29
-9.94697e-29
-1.51163e-29
-1.63748e-28
-5.07083e-31
-1.8775e-29
-8.69621e-33
-5.92521e-31
-9.98315e-35
-9.90875e-33
-7.93829e-37
-1.11683e-34
-3.87627e-39
-8.74018e-37
-9.11696e-42
-4.20264e-39
-9.7678e-42
-1.04821e-44
-4.65827e-06
4.55904e-05
-9.21077e-06
4.5444e-05
-1.3541e-05
4.50178e-05
-1.76238e-05
4.51757e-05
-2.14593e-05
4.61768e-05
-2.50316e-05
4.80516e-05
-2.82848e-05
5.07001e-05
-3.11245e-05
5.39528e-05
-3.34509e-05
5.75341e-05
-3.52361e-05
6.08585e-05
-3.58558e-05
6.20445e-05
-7.20045e-29
3.82228e-05
-8.32843e-29
8.0622e-30
-3.33362e-28
-4.87753e-29
-7.57384e-28
-9.50599e-28
-1.44835e-28
-1.69105e-27
-5.25304e-30
-1.85638e-28
-9.80603e-32
-6.25809e-30
-1.2183e-33
-1.13047e-31
-1.04233e-35
-1.37499e-33
-5.54161e-38
-1.15422e-35
-1.5119e-40
-6.0174e-38
-1.62088e-40
-2.32247e-43
-4.12999e-06
4.97203e-05
-8.16381e-06
4.94778e-05
-1.20003e-05
4.88543e-05
-1.56116e-05
4.87869e-05
-1.89838e-05
4.95491e-05
-2.20912e-05
5.1159e-05
-2.48832e-05
5.34921e-05
-2.72888e-05
5.63585e-05
-2.92441e-05
5.94907e-05
-3.07524e-05
6.23834e-05
-3.1987e-05
6.34824e-05
-5.78663e-28
4.21204e-05
-6.70165e-28
6.74732e-29
-3.00231e-27
-3.88332e-28
-6.90065e-27
-9.43982e-27
-1.37163e-27
-1.74182e-26
-5.30597e-29
-1.88709e-27
-1.06825e-30
-6.66229e-29
-1.43728e-32
-1.25849e-30
-1.33396e-34
-1.64506e-32
-7.82243e-37
-1.48814e-34
-2.48564e-39
-8.52778e-37
-2.67543e-39
-4.92612e-42
-3.63965e-06
5.336e-05
-7.19069e-06
5.30289e-05
-1.05646e-05
5.22282e-05
-1.37347e-05
5.1957e-05
-1.66818e-05
5.24962e-05
-1.93772e-05
5.38544e-05
-2.17765e-05
5.58914e-05
-2.38261e-05
5.84082e-05
-2.54854e-05
6.11508e-05
-2.67732e-05
6.36831e-05
-2.78563e-05
6.4713e-05
-4.8173e-27
4.56276e-05
-5.58297e-27
5.8175e-28
-2.85882e-26
-3.25794e-27
-6.29556e-26
-9.75801e-26
-1.29194e-26
-1.79719e-25
-5.29151e-28
-2.00139e-26
-1.14654e-29
-7.48093e-28
-1.66154e-31
-1.51278e-29
-1.66931e-33
-2.05345e-31
-1.0811e-35
-1.92222e-33
-3.98107e-38
-1.18821e-35
-4.31126e-38
-9.93638e-41
-3.19426e-06
5.65542e-05
-6.30766e-06
5.61423e-05
-9.26165e-06
5.51822e-05
-1.2032e-05
5.47273e-05
-1.45987e-05
5.50629e-05
-1.69339e-05
5.61895e-05
-1.89997e-05
5.79572e-05
-2.07553e-05
6.01638e-05
-2.21741e-05
6.25701e-05
-2.32803e-05
6.47976e-05
-2.42167e-05
6.57668e-05
-4.18625e-26
4.87731e-05
-4.85181e-26
5.2047e-27
-2.91083e-25
-2.88495e-26
-5.77463e-25
-1.05488e-24
-1.20548e-25
-1.86355e-24
-5.18496e-27
-2.10575e-25
-1.20238e-28
-8.27488e-27
-1.87968e-30
-1.78804e-28
-2.05277e-32
-2.6134e-30
-1.4643e-34
-2.65864e-32
-6.17727e-37
-1.74152e-34
-6.7422e-37
-1.90815e-39
-2.79388e-06
5.93481e-05
-5.51479e-06
5.88632e-05
-8.0927e-06
5.77601e-05
-1.05059e-05
5.71405e-05
-1.27356e-05
5.72927e-05
-1.47567e-05
5.82106e-05
-1.65374e-05
5.9738e-05
-1.80461e-05
6.16724e-05
-1.92647e-05
6.3789e-05
-2.02171e-05
6.57559e-05
-2.10221e-05
6.66649e-05
-3.79079e-25
5.15862e-05
-4.3927e-25
4.82883e-26
-3.1993e-24
-2.67266e-25
-5.34312e-24
-1.19577e-23
-1.11819e-24
-1.94777e-23
-5.01375e-26
-2.20884e-24
-1.23765e-27
-9.06893e-26
-2.07792e-29
-2.08539e-27
-2.45805e-31
-3.27271e-29
-1.9334e-33
-3.60997e-31
-9.26971e-36
-2.61538e-33
-1.02399e-35
-3.49072e-38
-2.43628e-06
6.17844e-05
-4.80701e-06
6.12339e-05
-7.04977e-06
6.00028e-05
-9.14528e-06
5.92361e-05
-1.10769e-05
5.92243e-05
-1.2823e-05
5.99567e-05
-1.43573e-05
6.12722e-05
-1.56547e-05
6.29699e-05
-1.67027e-05
6.48372e-05
-1.75226e-05
6.65798e-05
-1.8212e-05
6.74283e-05
-3.53909e-24
5.4099e-05
-4.10093e-24
4.60284e-25
-3.80651e-23
-2.5939e-24
-4.99577e-23
-1.42091e-22
-1.03167e-23
-2.05559e-22
-4.78891e-25
-2.31628e-23
-1.2518e-26
-9.87998e-25
-2.24772e-28
-2.40766e-26
-2.86986e-30
-4.04356e-28
-2.47842e-32
-4.82049e-30
-1.35096e-34
-3.84479e-32
-1.6041e-34
-6.10414e-37
-2.11846e-06
6.39029e-05
-4.17787e-06
6.32934e-05
-6.12227e-06
6.19472e-05
-7.93502e-06
6.10488e-05
-9.60217e-06
6.08915e-05
-1.11057e-05
6.14601e-05
-1.24242e-05
6.25907e-05
-1.35379e-05
6.40837e-05
-1.44377e-05
6.57372e-05
-1.5142e-05
6.72869e-05
-1.57312e-05
6.80761e-05
-3.41687e-23
5.63449e-05
-3.95787e-23
4.52111e-24
-4.66053e-22
-2.46444e-23
-4.93196e-22
-1.77905e-21
-9.45537e-23
-2.18355e-21
-4.51369e-24
-2.43168e-22
-1.24308e-25
-1.07195e-23
-2.37741e-27
-2.75722e-25
-3.26463e-29
-4.93818e-27
-3.08419e-31
-6.33995e-29
-1.9113e-33
-5.54266e-31
-2.6361e-33
-1.02215e-35
-1.83786e-06
6.57407e-05
-3.6213e-06
6.50768e-05
-5.29977e-06
6.36257e-05
-6.8597e-06
6.26087e-05
-8.29044e-06
6.23222e-05
-9.57785e-06
6.27475e-05
-1.0705e-05
6.37179e-05
-1.16565e-05
6.50352e-05
-1.24256e-05
6.65063e-05
-1.30281e-05
6.78913e-05
-1.35308e-05
6.8625e-05
-3.38708e-22
5.83553e-05
-3.92202e-22
4.5482e-23
-5.33475e-21
-2.33615e-22
-5.31966e-21
-2.31905e-20
-8.58011e-22
-2.34412e-20
-4.18459e-23
-2.55653e-21
-1.20821e-24
-1.15919e-22
-2.45172e-26
-3.13539e-24
-3.60932e-28
-5.96854e-26
-3.71874e-30
-8.2246e-28
-2.60824e-32
-7.85043e-30
-4.2332e-32
-1.64025e-34
-1.59314e-06
6.73339e-05
-3.13281e-06
6.66165e-05
-4.57324e-06
6.50661e-05
-5.90511e-06
6.39406e-05
-7.12219e-06
6.35393e-05
-8.21471e-06
6.38401e-05
-9.16992e-06
6.46731e-05
-9.9758e-06
6.5841e-05
-1.06275e-05
6.71581e-05
-1.11393e-05
6.84044e-05
-1.15673e-05
6.90894e-05
-3.41612e-21
6.01595e-05
-3.95485e-21
4.64673e-22
-6.23107e-20
-2.24534e-21
-5.51852e-20
-3.12889e-19
-7.6655e-21
-2.54481e-19
-3.79224e-22
-2.69014e-20
-1.1421e-23
-1.24927e-21
-2.45027e-25
-3.54154e-23
-3.85735e-27
-7.14458e-25
-4.32518e-29
-1.05363e-26
-3.42456e-31
-1.09445e-28
-6.66333e-31
-2.51863e-33
-1.38473e-06
6.87186e-05
-2.71024e-06
6.7942e-05
-3.93561e-06
6.62915e-05
-5.05856e-06
6.50636e-05
-6.07933e-06
6.45601e-05
-6.99334e-06
6.47541e-05
-7.79178e-06
6.54716e-05
-8.46518e-06
6.65144e-05
-9.00988e-06
6.77028e-05
-9.43927e-06
6.88347e-05
-9.8026e-06
6.94812e-05
-3.46664e-20
6.17851e-05
-4.01332e-20
4.77049e-21
-7.37087e-19
-2.19198e-20
-5.51415e-19
-4.57151e-18
-6.67827e-20
-2.80021e-18
-3.3221e-21
-2.82964e-19
-1.0376e-22
-1.34049e-20
-2.3458e-24
-3.97146e-22
-3.94303e-26
-8.4708e-24
-4.80885e-28
-1.33397e-25
-4.29517e-30
-1.50424e-27
-1.03072e-29
-3.68485e-32
-1.21626e-06
6.99348e-05
-2.35515e-06
6.90808e-05
-3.38256e-06
6.73189e-05
-4.30896e-06
6.599e-05
-5.145e-06
6.53961e-05
-5.89274e-06
6.55018e-05
-6.54678e-06
6.61256e-05
-7.09868e-06
6.70663e-05
-7.54444e-06
6.81486e-05
-7.89695e-06
6.91878e-05
-8.20417e-06
6.98106e-05
-3.49787e-19
6.32575e-05
-4.05041e-19
4.86606e-20
-8.72186e-18
-2.16159e-19
-5.27777e-18
-6.62921e-17
-5.58107e-19
-3.22351e-17
-2.75457e-20
-2.97452e-18
-8.85049e-22
-1.42926e-19
-2.10192e-23
-4.41631e-21
-3.77395e-25
-9.94474e-23
-5.01783e-27
-1.66992e-24
-5.06824e-29
-2.04017e-26
-1.5699e-28
-5.136e-31
-1.10164e-06
7.10365e-05
-2.07921e-06
7.00584e-05
-2.91521e-06
6.81549e-05
-3.64733e-06
6.67221e-05
-4.30367e-06
6.60524e-05
-4.89446e-06
6.60926e-05
-5.41615e-06
6.66473e-05
-5.85865e-06
6.75088e-05
-6.21405e-06
6.8504e-05
-6.49213e-06
6.94663e-05
-6.7462e-06
7.00824e-05
-3.47272e-18
6.46069e-05
-4.02324e-18
4.88692e-19
-9.53871e-17
-2.01251e-18
-4.63436e-17
-4.49883e-16
-4.32702e-18
-3.08892e-16
-2.0635e-19
-3.13219e-17
-6.71713e-21
-1.50601e-18
-1.67036e-22
-4.84478e-20
-3.22052e-24
-1.15161e-21
-4.71362e-26
-2.05954e-23
-5.44062e-28
-2.72627e-25
-2.35598e-27
-6.53155e-30
-1.08474e-06
7.21212e-05
-1.9141e-06
7.08878e-05
-2.53749e-06
6.87783e-05
-3.06014e-06
6.72447e-05
-3.53742e-06
6.65297e-05
-3.98324e-06
6.65384e-05
-4.39123e-06
6.70553e-05
-4.74607e-06
6.78637e-05
-5.03108e-06
6.8789e-05
-5.2434e-06
6.96788e-05
-5.43374e-06
7.02728e-05
-4.18781e-17
6.58674e-05
-4.74043e-17
4.98782e-18
-1.03588e-15
-1.47935e-17
-3.43171e-16
-1.65538e-15
-2.84981e-17
-1.84837e-15
-1.21342e-18
-3.00182e-16
-3.80437e-20
-1.58341e-17
-9.86184e-22
-5.3244e-19
-2.10024e-23
-1.34291e-20
-3.5298e-25
-2.58453e-22
-4.84646e-27
-3.74279e-24
-3.62015e-26
-7.08328e-29
-1.29135e-06
7.34126e-05
-1.86536e-06
7.14618e-05
-2.18824e-06
6.91012e-05
-2.49253e-06
6.7549e-05
-2.81577e-06
6.68529e-05
-3.15107e-06
6.68737e-05
-3.48495e-06
6.73891e-05
-3.79988e-06
6.81786e-05
-4.07392e-06
6.9063e-05
-4.28614e-06
6.98911e-05
-4.45025e-06
7.04399e-05
-4.89104e-16
6.66494e-05
-5.61354e-16
7.00537e-17
-1.13711e-14
-8.33156e-17
-2.16442e-15
-5.77749e-15
-1.1528e-16
-1.16675e-14
-1.34589e-18
-2.29588e-15
1.52901e-20
-1.71247e-16
4.21936e-22
-6.26579e-18
-1.58166e-23
-1.65058e-19
-8.96207e-25
-3.35795e-21
-2.25662e-26
-5.17409e-23
-5.53884e-25
-4.9628e-28
-7.41332e-07
7.41539e-05
-1.1875e-06
7.1908e-05
-1.50537e-06
6.94191e-05
-1.81395e-06
6.78576e-05
-2.11808e-06
6.71571e-05
-2.42876e-06
6.71844e-05
-2.75812e-06
6.77185e-05
-3.11221e-06
6.85327e-05
-3.49209e-06
6.94429e-05
-3.89796e-06
7.02969e-05
-4.30385e-06
7.08461e-05
-2.71405e-14
6.65498e-05
-3.07125e-14
3.78762e-15
-9.86839e-14
0
7.09233e-15
-7.3224e-13
1.59154e-16
-3.03314e-13
7.88678e-17
-2.85273e-14
6.20862e-18
-1.99532e-15
1.70961e-19
-7.72206e-17
3.30649e-21
-2.07032e-18
4.53867e-23
-4.40043e-20
4.43817e-25
-7.3238e-22
-9.58204e-24
0
-3.94672e-07
7.45486e-05
-8.82291e-07
7.23956e-05
-1.19194e-06
6.97287e-05
-1.45682e-06
6.81225e-05
-1.72083e-06
6.74211e-05
-2.0189e-06
6.74825e-05
-2.3738e-06
6.80734e-05
-2.81121e-06
6.89701e-05
-3.364e-06
6.99957e-05
-4.07837e-06
7.10113e-05
-4.95577e-06
7.17237e-05
-3.16424e-12
6.39094e-05
-3.48247e-12
3.32409e-13
5.74606e-13
-1.19871e-12
3.45939e-12
-1.10188e-10
0
-5.87895e-12
0
-2.90168e-13
5.56574e-17
-1.41856e-14
3.1055e-18
-5.57026e-16
7.08697e-20
-1.83239e-17
1.16651e-21
-4.47905e-19
1.45364e-23
-8.73068e-21
-1.28807e-22
0
-2.07565e-06
2.25888e-05
-1.45441e-06
1.77227e-05
-1.10647e-06
1.56778e-05
-1.05188e-06
1.48755e-05
-1.15384e-06
1.47515e-05
-1.36141e-06
1.51549e-05
-1.64522e-06
1.59277e-05
-2.01585e-06
1.69657e-05
-2.5147e-06
1.82325e-05
-3.26108e-06
1.96902e-05
-4.79306e-06
2.16101e-05
-2.71727e-13
1.4413e-05
0
5.66434e-14
3.0618e-10
-1.80706e-09
0
-2.36125e-10
0
-1.83806e-11
0
-1.13559e-12
5.80755e-19
-5.87064e-14
2.31199e-17
-2.54389e-15
7.28254e-19
-9.49874e-17
1.3871e-20
-2.82375e-18
2.08461e-22
-6.37737e-20
-1.12534e-21
0
-6.60825e-07
5.36846e-07
-1.9224e-07
2.73181e-07
-9.69656e-08
2.71489e-07
-9.38377e-08
2.59972e-07
-1.21317e-07
2.57673e-07
-1.61757e-07
2.64845e-07
-2.07816e-07
2.78833e-07
-2.60977e-07
2.9981e-07
-3.25127e-07
3.27188e-07
-4.16241e-07
3.60738e-07
-3.78609e-07
4.03466e-07
1.00085e-07
2.0284e-07
0
6.90696e-08
0
-3.93999e-09
0
-6.20996e-10
0
-5.52959e-11
0
-3.59318e-12
0
-1.86627e-13
7.0806e-17
-8.03355e-15
3.50194e-18
-2.86259e-16
7.67486e-20
-8.51437e-18
1.28264e-21
-2.0757e-19
-4.13437e-21
0
-2.13241e-09
9.11685e-08
-1.99411e-10
2.96318e-08
7.73028e-09
3.52148e-08
9.34367e-09
3.48903e-08
9.45226e-09
3.50775e-08
9.53216e-09
3.68471e-08
1.00045e-08
3.95837e-08
1.19064e-08
4.34406e-08
1.89046e-08
4.74247e-08
4.65147e-08
4.75222e-08
1.42451e-07
3.47552e-08
1.65467e-07
0
2.46103e-08
5.47317e-09
7.84345e-10
-1.04473e-09
6.22177e-11
-1.57397e-10
3.80854e-12
-1.53587e-11
1.88801e-13
-1.10004e-12
7.73551e-15
-6.19325e-14
2.64635e-16
-2.83541e-15
7.81625e-18
-1.14542e-16
1.84043e-19
-3.78847e-18
3.99342e-21
-1.02479e-19
-2.27422e-21
6.39633e-23
1.38043e-08
1.16898e-08
6.37147e-09
3.86792e-09
7.60955e-09
4.40969e-09
9.30854e-09
4.28991e-09
1.1462e-08
4.27061e-09
1.46631e-08
4.44592e-09
1.90806e-08
4.72756e-09
2.53314e-08
5.03289e-09
3.39583e-08
5.04215e-09
4.40081e-08
4.21789e-09
4.94235e-08
1.15015e-09
2.70642e-08
0
5.69735e-09
0
1.96633e-10
-1.12576e-10
1.88454e-11
-1.8566e-11
1.38028e-12
-1.79345e-12
7.68823e-14
-1.19552e-13
3.55263e-15
-5.06924e-15
1.39659e-16
-1.98816e-16
4.47502e-18
-8.45919e-18
1.18281e-19
-3.07151e-19
3.05152e-21
-9.26674e-21
-2.32045e-22
5.56578e-23
1.78792e-09
1.30888e-09
9.71518e-10
4.91711e-10
1.26376e-09
5.06829e-10
1.59437e-09
4.78125e-10
1.99676e-09
4.64098e-10
2.55747e-09
4.65911e-10
3.30703e-09
4.77604e-10
4.25729e-09
4.73447e-10
5.24399e-09
4.36602e-10
5.8917e-09
2.49686e-10
4.68043e-09
0
1.90849e-09
0
2.20907e-10
0
2.15614e-11
-4.15423e-12
2.01279e-12
-8.7925e-13
1.34495e-13
-9.00232e-14
6.10251e-15
-5.08856e-15
2.58861e-16
-1.53998e-16
1.09543e-17
-6.93234e-18
3.85011e-19
-3.14696e-19
1.13644e-20
-1.21372e-20
3.32617e-22
-3.91104e-22
-1.04734e-23
6.8772e-24
1.56423e-10
1.36651e-10
1.0249e-10
5.55677e-11
1.45821e-10
5.29526e-11
1.88524e-10
4.83106e-11
2.36919e-10
4.51726e-11
2.96052e-10
4.35754e-11
3.70443e-10
4.1973e-11
4.48109e-10
3.86475e-11
5.17324e-10
2.9713e-11
4.75212e-10
1.22961e-11
2.91403e-10
0
9.095e-11
0
7.29013e-12
0
1.02896e-12
-7.68434e-14
1.00238e-13
-2.40883e-14
5.71129e-15
-1.79245e-15
1.93901e-16
-6.38869e-17
9.00979e-18
-3.36478e-18
4.08084e-19
-1.82934e-19
1.57499e-20
-8.58784e-21
4.98813e-22
-3.40751e-22
1.40254e-23
-1.13607e-23
-3.17017e-25
3.24429e-25
1.32324e-11
1.34133e-11
9.9991e-12
5.62137e-12
1.46651e-11
5.06607e-12
1.89299e-11
4.45213e-12
2.32767e-11
3.98655e-12
2.8233e-11
3.65494e-12
3.34954e-11
3.29475e-12
3.80768e-11
2.7412e-12
3.85827e-11
1.79523e-12
3.02336e-11
4.84601e-13
1.47771e-11
0
3.24509e-12
0
1.67929e-13
0
2.87873e-14
8.88992e-18
2.08784e-15
-2.38532e-16
9.14679e-17
-1.61112e-17
5.3446e-18
-1.19415e-18
2.50331e-19
-7.93772e-20
1.12802e-20
-4.3978e-21
4.45386e-22
-2.05852e-22
1.4846e-23
-8.22237e-24
4.18349e-25
-2.77451e-25
-7.86315e-27
1.01112e-26
1.18771e-12
1.22942e-12
9.34478e-13
5.22282e-13
1.35061e-12
4.46907e-13
1.70354e-12
3.76972e-13
2.02094e-12
3.21996e-13
2.34102e-12
2.79147e-13
2.61746e-12
2.33926e-13
2.7314e-12
1.75441e-13
2.45929e-12
9.74146e-14
1.64313e-12
1.55833e-14
6.6301e-13
0
1.12935e-13
0
6.84363e-15
0
5.90569e-16
1.75066e-17
4.69362e-17
-1.65067e-18
2.97601e-18
-2.99415e-19
1.5277e-19
-2.67706e-20
6.88378e-21
-1.79576e-21
2.79527e-22
-9.8455e-23
1.09097e-23
-4.54463e-24
3.65943e-25
-1.79125e-25
1.03488e-26
-6.01048e-27
-1.69248e-28
2.56298e-28
1.054e-13
1.04981e-13
8.28642e-14
4.47577e-14
1.14855e-13
3.61812e-14
1.3967e-13
2.92458e-14
1.58575e-13
2.37674e-14
1.74277e-13
1.94284e-14
1.8234e-13
1.51101e-14
1.74283e-13
1.0222e-14
1.39574e-13
4.88362e-15
8.06756e-14
5.69736e-16
2.83509e-14
1.00983e-16
4.7481e-15
4.07851e-17
4.16431e-16
3.46782e-17
2.66955e-17
2.02439e-18
1.51311e-18
6.20835e-21
8.33615e-20
-5.37219e-21
4.10444e-21
-5.43224e-22
1.7749e-22
-3.67192e-23
6.73652e-24
-1.97885e-24
2.41118e-25
-8.92863e-26
7.94487e-27
-3.42935e-27
2.22954e-28
-1.12799e-28
-3.12285e-30
5.53664e-30
8.91201e-15
9.19486e-15
7.01024e-15
4.29479e-15
9.09264e-15
3.2446e-15
1.05631e-14
2.49149e-15
1.14204e-14
1.9115e-15
1.18665e-14
1.46082e-15
1.1606e-14
1.04671e-15
1.01973e-14
6.35015e-16
7.349e-15
2.55069e-16
3.75898e-15
1.5334e-16
1.17336e-15
9.00834e-17
1.80666e-16
1.99734e-17
1.5604e-17
1.93828e-18
8.91897e-19
9.37603e-20
4.37694e-20
1.86421e-21
2.19559e-21
-7.14312e-23
1.00923e-22
-1.04977e-23
4.11827e-24
-7.36011e-25
1.48983e-25
-3.90274e-26
4.80073e-27
-1.70874e-27
1.52947e-28
-6.34796e-29
4.19961e-30
-2.01668e-30
-5.42663e-32
1.02625e-31
7.02729e-16
8.53701e-16
5.49086e-16
5.60095e-16
6.65196e-16
3.97927e-16
7.35849e-16
3.05105e-16
7.55862e-16
2.34396e-16
7.40892e-16
1.78039e-16
6.75708e-16
1.29501e-16
5.43295e-16
8.58089e-17
3.54669e-16
4.80314e-17
1.66946e-16
2.09112e-17
4.63481e-17
5.83084e-18
6.20653e-18
8.75791e-19
4.92387e-19
7.30367e-20
2.86326e-20
3.77378e-21
1.34643e-21
1.10936e-22
5.87827e-23
3.1804e-25
2.47406e-24
-1.68543e-25
9.41969e-26
-1.32543e-26
3.20394e-27
-6.99118e-28
9.70206e-29
-2.9604e-29
2.7697e-30
-1.0553e-30
7.30696e-32
-3.20715e-32
-8.28813e-34
1.73628e-33
5.12241e-17
9.64438e-17
4.05672e-17
5.13569e-17
4.67179e-17
3.35233e-17
4.95034e-17
2.4176e-17
4.83819e-17
1.75011e-17
4.47351e-17
1.24918e-17
3.80749e-17
8.48932e-18
2.82509e-17
5.20988e-18
1.66578e-17
2.68167e-18
6.70542e-18
9.65806e-19
1.55345e-18
2.23361e-19
1.93597e-19
3.083e-20
1.51224e-20
2.57883e-21
8.66974e-22
1.38075e-22
3.88082e-23
4.6734e-24
1.4773e-24
7.07584e-26
5.61911e-26
-1.95597e-27
1.9717e-27
-2.23416e-28
6.2304e-29
-1.20585e-29
1.76634e-30
-4.94376e-31
4.53697e-32
-1.67971e-32
1.13607e-33
-4.8427e-34
-1.1869e-35
2.58151e-35
3.5445e-18
6.80883e-18
2.65754e-18
3.31847e-18
2.92767e-18
2.06029e-18
2.94976e-18
1.40704e-18
2.72996e-18
9.6327e-19
2.37329e-18
6.48133e-19
1.87732e-18
4.11542e-19
1.27427e-18
2.32565e-19
6.75186e-19
1.07966e-19
2.41274e-19
3.67044e-20
5.01456e-20
8.0582e-21
5.84593e-21
1.06032e-21
4.41964e-22
8.66002e-23
2.46643e-23
4.66324e-24
1.07175e-24
1.67632e-25
3.82338e-26
3.58104e-27
1.26236e-27
6.43972e-30
4.01966e-29
-3.14794e-30
1.16757e-30
-1.86066e-31
3.06108e-32
-7.43984e-33
7.21769e-34
-2.39697e-34
1.63078e-35
-6.49716e-36
-1.49392e-37
3.49463e-37
2.15113e-19
3.98289e-19
1.5835e-19
1.98426e-19
1.66516e-19
1.19062e-19
1.59931e-19
7.78991e-20
1.40513e-19
5.09241e-20
1.15141e-19
3.25587e-20
8.49362e-20
1.95072e-20
5.30228e-20
1.03097e-20
2.5459e-20
4.43519e-21
8.17171e-21
1.38936e-21
1.54058e-21
2.82197e-22
1.68473e-22
3.50412e-23
1.22411e-23
2.76519e-24
6.59042e-25
1.4695e-25
2.75693e-26
5.37846e-27
9.18196e-28
1.28933e-28
2.62274e-29
1.35101e-30
7.47612e-31
-3.40009e-32
1.97173e-32
-2.67491e-33
4.7222e-34
-1.06148e-34
1.02332e-35
-3.23024e-36
2.08203e-37
-8.1514e-38
-1.73708e-39
4.13943e-39
1.20859e-20
2.27493e-20
8.76789e-21
1.13707e-20
8.79643e-21
6.58634e-21
8.05526e-21
4.12538e-21
6.72222e-21
2.57367e-21
5.19714e-21
1.56356e-21
3.58114e-21
8.84378e-22
2.06187e-21
4.37564e-22
9.01281e-22
1.74703e-22
2.61591e-22
5.0528e-23
4.5037e-23
9.51238e-24
4.6219e-24
1.11258e-24
3.2064e-25
8.41576e-26
1.65146e-26
4.34874e-27
6.59105e-28
1.5763e-28
2.08486e-29
3.91973e-30
5.46826e-31
5.68551e-32
1.3387e-32
-7.02676e-35
3.15543e-34
-3.25391e-35
6.81689e-36
-1.33017e-36
1.3391e-37
-3.81225e-38
2.4016e-39
-8.85634e-40
-1.72616e-41
4.37404e-41
6.33536e-22
1.24038e-21
4.52869e-22
6.21157e-22
4.33397e-22
3.4773e-22
3.7848e-22
2.08644e-22
3.00168e-22
1.24288e-22
2.19173e-22
7.18063e-23
1.41297e-22
3.83889e-23
7.52233e-23
1.78116e-23
3.00514e-23
6.61491e-24
7.92792e-24
1.77068e-24
1.25183e-24
3.09396e-25
1.20386e-25
3.39988e-26
7.92004e-27
2.44618e-27
3.86926e-28
1.21319e-28
1.45934e-29
4.26382e-30
4.3391e-31
1.05261e-31
1.03308e-32
1.67028e-33
2.13269e-34
9.07408e-36
4.43279e-36
-3.35229e-37
8.50969e-38
-1.53113e-38
1.49212e-39
-4.12168e-40
2.38593e-41
-8.69231e-42
-1.52342e-43
3.90583e-43
3.09838e-23
6.48632e-23
2.18422e-23
3.25368e-23
1.99521e-23
1.7623e-23
1.66252e-23
1.01362e-23
1.25396e-23
5.76892e-24
8.65637e-24
3.17216e-24
5.22928e-24
1.60472e-24
2.58006e-24
6.99228e-25
9.45041e-25
2.41963e-25
2.27464e-25
6.00386e-26
3.30133e-26
9.73813e-27
2.96604e-27
1.00177e-27
1.83683e-28
6.80067e-29
8.43339e-30
3.19699e-30
2.97404e-31
1.06952e-31
8.20971e-33
2.54015e-33
1.79249e-34
4.04696e-35
3.26299e-36
3.26442e-37
5.71426e-38
-2.35361e-39
9.55569e-40
-1.50791e-40
1.46914e-41
-3.79664e-42
2.06792e-43
-7.12944e-44
-1.09862e-45
2.97374e-45
1.40996e-24
3.27569e-24
9.83052e-25
1.64535e-24
8.58435e-25
8.6289e-25
6.83087e-25
4.76042e-25
4.90381e-25
2.59009e-25
3.20371e-25
1.35652e-25
1.81599e-25
6.49936e-26
8.31923e-26
2.66242e-26
2.80068e-26
8.59398e-27
6.16482e-27
1.97793e-27
8.2261e-28
2.97463e-28
6.87312e-29
2.85104e-29
3.97317e-30
1.81007e-30
1.69649e-31
7.96224e-32
5.52486e-33
2.49042e-33
1.39526e-34
5.53947e-35
2.75371e-36
8.40467e-37
4.36246e-38
7.31722e-39
6.24832e-40
-2.3785e-42
8.90097e-42
-1.22422e-42
1.17284e-43
-2.85374e-44
1.4246e-45
-4.63688e-46
-6.09218e-48
1.78225e-47
5.95321e-26
1.60973e-25
4.12127e-26
8.08967e-26
3.446e-26
4.10946e-26
2.62059e-26
2.17576e-26
1.79164e-26
1.13235e-26
1.10858e-26
5.65218e-27