/*--------------------------------*- C++ -*----------------------------------*\
  =========                 |
  \\      /  F ield         | OpenFOAM: The Open Source CFD Toolbox
   \\    /   O peration     | Website:  https://openfoam.org
    \\  /    A nd           | Version:  9
     \\/     M anipulation  |
\*---------------------------------------------------------------------------*/
FoamFile
{
    format      ascii;
    class       volScalarField;
    location    "0.05";
    object      epsilon;
}
// * * * * * * * * * * * * * * * * * * * * * * * * * * * * * * * * * * * * * //

dimensions      [0 2 -3 0 0 0 0];

internalField   nonuniform List<scalar> 
2268
(
0.701716
0.88341
0.969774
1.01109
1.0341
1.05389
1.07689
1.10735
1.15089
1.21956
1.323
1.40586
1.50009
1.55041
1.49645
1.44177
1.33148
1.20727
1.11309
1.04284
0.976173
0.880523
0.696632
0.661578
0.516924
0.47797
0.464949
0.461385
0.4616
0.463665
0.467408
0.473646
0.485514
0.501911
0.516046
0.537552
0.565502
0.619306
0.730298
0.827378
0.813981
0.72132
0.644595
0.60904
0.600972
0.650501
0.720889
0.422704
0.339235
0.309718
0.299264
0.296138
0.296055
0.297772
0.301357
0.308012
0.315871
0.322521
0.334422
0.357189
0.410546
0.485468
0.567159
0.571086
0.514623
0.464852
0.450226
0.488335
0.771167
0.74935
0.379544
0.273756
0.236012
0.222001
0.21729
0.216505
0.217795
0.220738
0.225541
0.230322
0.233847
0.240184
0.255287
0.281263
0.328657
0.385682
0.394041
0.370009
0.346545
0.350503
0.420655
0.839137
0.765069
0.357093
0.238533
0.195869
0.179551
0.173694
0.17233
0.173191
0.17547
0.1788
0.181507
0.183064
0.186543
0.198446
0.213907
0.248598
0.286954
0.289087
0.278056
0.269178
0.28528
0.377541
0.885517
0.774114
0.344743
0.21848
0.17256
0.154564
0.147769
0.145838
0.14621
0.147796
0.149917
0.151188
0.151689
0.154403
0.166037
0.179627
0.203645
0.22704
0.225259
0.21946
0.218097
0.241509
0.349554
0.923601
0.779663
0.337798
0.206801
0.158597
0.13931
0.131728
0.129274
0.129181
0.130169
0.131406
0.131794
0.131905
0.134771
0.146775
0.161169
0.176602
0.188254
0.184547
0.181103
0.183636
0.211032
0.33026
0.965332
0.783535
0.333858
0.199952
0.15012
0.129828
0.121599
0.118703
0.11823
0.118783
0.119463
0.119411
0.119499
0.122708
0.134909
0.15124
0.160311
0.162343
0.157633
0.155402
0.159783
0.18826
0.312121
1.04537
0.705606
0.881446
0.948151
0.96194
0.960091
0.955945
0.953468
0.950773
0.947954
0.945127
0.942304
0.939498
0.936716
0.933811
0.930405
0.924451
0.907414
0.851459
0.70646
0.622079
0.511202
0.477958
0.467922
0.465972
0.466463
0.467802
0.468644
0.468989
0.469004
0.468819
0.468519
0.468197
0.467952
0.468163
0.470094
0.478199
0.507472
0.634947
0.695747
0.411288
0.334613
0.310668
0.304338
0.303605
0.304509
0.305346
0.305852
0.306093
0.306164
0.306145
0.30614
0.306379
0.307688
0.312925
0.331574
0.396704
0.695327
0.725662
0.366691
0.265899
0.233099
0.223157
0.220928
0.221103
0.221623
0.222008
0.22222
0.222313
0.222353
0.222463
0.222983
0.225097
0.232616
0.257448
0.3418
0.723449
0.743898
0.347031
0.229554
0.190311
0.177588
0.174086
0.173602
0.173804
0.17404
0.174189
0.174266
0.174326
0.174513
0.175272
0.178059
0.187276
0.21617
0.312256
0.738871
0.76641
0.342366
0.2099
0.165292
0.150398
0.145881
0.144858
0.144787
0.144889
0.144976
0.14503
0.145101
0.145356
0.14633
0.149688
0.160225
0.19202
0.295853
0.747435
0.822821
0.349135
0.19916
0.149961
0.133476
0.128213
0.126773
0.126482
0.126472
0.126503
0.126535
0.126615
0.126932
0.1281
0.131946
0.143539
0.177525
0.28665
0.752143
0.968007
0.35896
0.191467
0.139787
0.122541
0.116847
0.115122
0.114665
0.114566
0.114552
0.114566
0.114654
0.115029
0.116369
0.120631
0.133086
0.168767
0.281525
0.754763
0.78744
0.330632
0.194133
0.142558
0.121104
0.112125
0.108748
0.107922
0.108147
0.108493
0.108315
0.108671
0.112392
0.124799
0.143794
0.145483
0.135415
0.129366
0.128086
0.133141
0.157649
0.249514
0.614735
0.791584
0.328313
0.190624
0.138265
0.116192
0.106755
0.103051
0.101969
0.101975
0.102175
0.102058
0.102818
0.107513
0.121996
0.144738
0.13918
0.120953
0.113448
0.112231
0.116167
0.132542
0.183524
0.329492
0.795287
0.326044
0.188191
0.135874
0.113741
0.104196
0.100359
0.099124
0.0989693
0.0990667
0.0990653
0.100365
0.106529
0.12447
0.149974
0.138166
0.115125
0.106073
0.104467
0.107027
0.116698
0.141522
0.191431
0.798704
0.323629
0.185993
0.134046
0.112099
0.102609
0.0987397
0.0974081
0.0971297
0.0971625
0.0973415
0.0992804
0.107118
0.129076
0.155754
0.137898
0.112608
0.102527
0.100425
0.101771
0.106955
0.118395
0.136439
0.801848
0.321227
0.183944
0.13246
0.110779
0.101409
0.0975577
0.0961755
0.0958209
0.0958402
0.0962425
0.098828
0.108294
0.134259
0.161371
0.137737
0.111331
0.100692
0.0981759
0.0986552
0.101258
0.106516
0.113671
0.804721
0.318938
0.182065
0.131058
0.109657
0.100428
0.0966229
0.0952251
0.0948362
0.0948811
0.0955156
0.0986992
0.109643
0.13928
0.16692
0.13794
0.110605
0.0996468
0.0968514
0.0968089
0.0980796
0.100584
0.103712
0.807326
0.3168
0.180368
0.129826
0.108699
0.0996149
0.0958696
0.0944797
0.0940853
0.0941779
0.0950327
0.0987479
0.111
0.143979
0.172176
0.138289
0.11012
0.0989722
0.0960164
0.095701
0.0963432
0.0976638
0.0992383
0.809672
0.314828
0.17885
0.128752
0.107885
0.0989422
0.095263
0.093895
0.0935126
0.0936624
0.0947173
0.0988983
0.11229
0.148202
0.176816
0.138653
0.109725
0.0984708
0.0954444
0.0950059
0.0953743
0.0962021
0.0971604
0.811767
0.313026
0.177503
0.127821
0.107197
0.0983883
0.0947765
0.0934379
0.0930769
0.0932868
0.0945218
0.0991137
0.113499
0.15194
0.180746
0.138905
0.109338
0.0980525
0.0950217
0.0945415
0.0947985
0.0954219
0.0961221
0.813626
0.311391
0.176314
0.127018
0.106618
0.0979337
0.0943876
0.0930817
0.0927472
0.0930178
0.0944179
0.0993824
0.114653
0.155287
0.184038
0.139011
0.108927
0.0976825
0.0946972
0.0942181
0.0944324
0.094965
0.0955425
0.81526
0.309926
0.175273
0.126329
0.106132
0.0975621
0.0940781
0.0928061
0.0925013
0.0928338
0.0943921
0.0997128
0.115814
0.158413
0.186901
0.139016
0.108502
0.097356
0.0944542
0.0939988
0.0941963
0.0946793
0.0951827
0.816682
0.30864
0.174376
0.125745
0.105727
0.0972612
0.093835
0.092597
0.0923249
0.0927239
0.0944451
0.100133
0.117078
0.161566
0.18965
0.139029
0.108098
0.0970867
0.0942961
0.0938749
0.0940608
0.0945039
0.0949463
0.817902
0.307564
0.173629
0.125261
0.105399
0.0970247
0.0936525
0.0924492
0.0922149
0.0926907
0.094595
0.100698
0.118586
0.165104
0.192785
0.139231
0.10777
0.0969043
0.0942428
0.0938547
0.0940196
0.094415
0.0947924
0.818909
0.306786
0.173058
0.124886
0.105151
0.0968581
0.093538
0.0923737
0.0921881
0.0927619
0.0948903
0.101496
0.120521
0.169426
0.196843
0.139754
0.107556
0.0968552
0.0943361
0.0939623
0.0940792
0.0944042
0.0947007
0.819728
0.306388
0.172692
0.12464
0.105003
0.0967836
0.0935214
0.0924132
0.0923043
0.0930184
0.0954406
0.102683
0.123104
0.174779
0.201164
0.140178
0.107372
0.0970055
0.094649
0.0942395
0.0942539
0.094468
0.0946567
0.820698
0.306183
0.172544
0.124555
0.104989
0.096847
0.093672
0.0926723
0.0927157
0.0936664
0.0965011
0.104556
0.126677
0.18155
0.202475
0.138945
0.106969
0.0974884
0.095298
0.0947396
0.094557
0.094598
0.0946431
0.821645
0.306939
0.172957
0.124762
0.105198
0.0971587
0.0941508
0.0933913
0.0937725
0.0951859
0.0986586
0.107702
0.131706
0.190719
0.19734
0.134414
0.106425
0.0985198
0.096393
0.0954924
0.0949807
0.0947723
0.0946327
0.819909
0.314634
0.175202
0.125582
0.105823
0.0979532
0.09529
0.0950476
0.0961526
0.0985026
0.103075
0.113287
0.138508
0.200555
0.186973
0.128081
0.10648
0.100355
0.0979553
0.096448
0.0954687
0.0949442
0.0945934
0.823944
0.337911
0.179722
0.126918
0.106947
0.0995158
0.0975891
0.0984075
0.100975
0.105178
0.111822
0.123884
0.149093
0.202249
0.170591
0.122979
0.108406
0.103051
0.0997545
0.0974115
0.0958981
0.0950424
0.0944869
0.875317
0.36792
0.18316
0.128069
0.108678
0.102315
0.101819
0.104607
0.109847
0.117396
0.127873
0.14391
0.174472
0.186443
0.141685
0.120956
0.111756
0.105689
0.101162
0.0980459
0.0961047
0.0949917
0.0942832
0.926308
0.313389
0.17478
0.126904
0.109382
0.104082
0.104734
0.109083
0.116345
0.125532
0.135254
0.145348
0.153004
0.142574
0.131356
0.121923
0.113583
0.106606
0.101463
0.0980627
0.0959764
0.0947562
0.0939795
0.87691
0.299338
0.169011
0.125074
0.108505
0.103094
0.103049
0.106241
0.111978
0.119598
0.127217
0.132468
0.134012
0.132556
0.127735
0.120032
0.11201
0.105361
0.100597
0.0974801
0.0955426
0.0943675
0.0936064
0.861791
0.297938
0.167902
0.123872
0.107072
0.101189
0.100357
0.102311
0.106246
0.111687
0.117643
0.122431
0.124983
0.124598
0.120729
0.114462
0.108054
0.102817
0.0990581
0.0965497
0.0949318
0.0938989
0.0932104
0.853273
0.297662
0.167927
0.123596
0.106482
0.100213
0.0988228
0.0999099
0.102541
0.106248
0.110409
0.113992
0.115847
0.115297
0.112384
0.108044
0.103672
0.10006
0.0973949
0.0955414
0.0942798
0.0934234
0.0928334
0.84705
0.297554
0.168033
0.123505
0.106144
0.0995686
0.0977442
0.098163
0.0997843
0.102113
0.104683
0.106836
0.10785
0.107305
0.105397
0.102726
0.100017
0.0977109
0.0959319
0.094625
0.0936771
0.0929902
0.0925015
0.841662
0.297437
0.168043
0.123367
0.105811
0.0989896
0.0968237
0.0967377
0.0976242
0.098975
0.100432
0.101598
0.102076
0.101666
0.100507
0.0989636
0.0973589
0.0959334
0.0947732
0.0938671
0.0931644
0.0926219
0.0922252
0.836738
0.29734
0.168006
0.123191
0.105474
0.0984597
0.0960399
0.0956006
0.0960015
0.0967376
0.0975251
0.0981256
0.0983343
0.0980614
0.0973843
0.0964926
0.0955438
0.0946613
0.0939018
0.093271
0.0927494
0.0923226
0.0920039
0.832163
0.297283
0.167965
0.123009
0.105154
0.0979902
0.09539
0.0947172
0.0948177
0.095195
0.0956121
0.0959174
0.0960033
0.0958277
0.0954293
0.0948999
0.0943263
0.0937674
0.09326
0.0928138
0.0924226
0.0920861
0.0918312
0.827908
0.297274
0.167944
0.122845
0.104868
0.0975892
0.094863
0.0940402
0.0939608
0.0941358
0.0943552
0.0945121
0.094545
0.0944315
0.0941898
0.0938644
0.0935035
0.0931376
0.0927891
0.0924667
0.0921692
0.0919023
0.0916985
0.823981
0.29731
0.16795
0.122712
0.104626
0.0972556
0.0944406
0.0935219
0.0933356
0.0933977
0.0935127
0.0935962
0.0936078
0.0935335
0.0933814
0.0931737
0.0929363
0.0926882
0.0924418
0.0922035
0.0919739
0.0917608
0.0915974
0.820383
0.297383
0.167984
0.122612
0.104428
0.0969832
0.0941042
0.0931235
0.0928735
0.0928724
0.0929323
0.0929797
0.092984
0.0929352
0.0928363
0.0926987
0.0925366
0.0923625
0.0921834
0.0920034
0.0918236
0.0916521
0.0915206
0.817105
0.297489
0.168045
0.122544
0.104271
0.0967646
0.093838
0.0928161
0.0925276
0.0924908
0.0925215
0.0925513
0.0925546
0.0925229
0.0924571
0.092363
0.092249
0.0921228
0.0919893
0.0918507
0.0917079
0.0915686
0.0914622
0.814132
0.297624
0.168131
0.122507
0.104153
0.0965925
0.0936289
0.0925787
0.0922663
0.092209
0.0922239
0.0922454
0.0922501
0.0922305
0.0921861
0.0921202
0.0920378
0.0919439
0.0918421
0.0917334
0.0916185
0.0915044
0.0914176
0.811449
0.297784
0.168236
0.122497
0.104066
0.0964592
0.0934657
0.0923953
0.0920676
0.0919984
0.0920048
0.0920225
0.0920294
0.0920184
0.0919885
0.0919415
0.0918806
0.0918092
0.0917298
0.0916432
0.0915495
0.091455
0.0913834
0.809055
0.297961
0.168353
0.122504
0.104005
0.0963573
0.0933401
0.092255
0.0919175
0.0918411
0.091843
0.0918591
0.0918682
0.0918635
0.0918435
0.0918093
0.0917632
0.0917076
0.0916444
0.091574
0.0914965
0.0914172
0.0913574
0.806946
0.298143
0.168468
0.122517
0.103959
0.0962809
0.0932473
0.0921528
0.0918093
0.0917287
0.091728
0.0917435
0.0917544
0.0917539
0.0917406
0.0917151
0.091679
0.0916342
0.0915822
0.0915233
0.0914573
0.0913891
0.0913379
0.805134
0.298297
0.168533
0.1225
0.103912
0.0962258
0.0931903
0.0920945
0.091749
0.0916662
0.0916638
0.0916787
0.0916903
0.0916922
0.0916828
0.0916624
0.0916321
0.0915934
0.0915473
0.0914939
0.0914333
0.0913708
0.0913242
0.803759
0.298303
0.168386
0.122349
0.103821
0.0961913
0.0931902
0.09211
0.0917692
0.0916863
0.0916822
0.0916955
0.0917061
0.091708
0.0916994
0.0916804
0.0916514
0.0916127
0.0915638
0.0915038
0.0914339
0.0913656
0.0913165
0.804058
0.297642
0.167438
0.121744
0.10358
0.0961891
0.0933131
0.0922868
0.0919643
0.0918846
0.0918784
0.091888
0.0918949
0.0918934
0.0918819
0.0918597
0.091826
0.0917779
0.0917092
0.0916123
0.0914888
0.0913836
0.0913159
0.816696
0.29425
0.163787
0.119862
0.102977
0.0962836
0.0937337
0.0928385
0.0925595
0.0924891
0.0924802
0.0924834
0.092483
0.0924742
0.0924555
0.0924255
0.0923808
0.0923116
0.0921942
0.0919874
0.0916692
0.0914446
0.0913238
0.92094
0.28021
0.152404
0.115085
0.101755
0.0967053
0.0948433
0.0942049
0.094008
0.0939564
0.0939454
0.0939408
0.0939314
0.0939141
0.0938874
0.0938499
0.0937958
0.0937051
0.0935162
0.0930694
0.0921029
0.0915696
0.0913374
1.62972
0.22215
0.124636
0.105846
0.100092
0.0980583
0.0973391
0.0971008
0.0970303
0.0970131
0.0970094
0.0970062
0.0969993
0.0969873
0.0969698
0.0969461
0.0969125
0.0968502
0.0966726
0.0959807
0.0928365
0.0917289
0.0913472
1.23373
1.0601
0.95416
0.945565
0.427655
0.417778
0.385418
0.352333
0.215705
0.218569
0.211367
0.199326
0.144118
0.14539
0.143039
0.138561
0.116237
0.116329
0.115038
0.112999
0.104478
0.104099
0.1031
0.101892
0.0993331
0.0987815
0.0978903
0.0969953
0.0969939
0.0963851
0.0955507
0.0947916
0.0958465
0.0952237
0.0944289
0.0937413
0.0952135
0.0945909
0.0938275
0.093186
0.094819
0.0941995
0.0934614
0.0928538
0.0945515
0.0939335
0.0932152
0.092634
0.0943626
0.0937426
0.0930395
0.0924796
0.0942278
0.0936018
0.0929102
0.0923681
0.0941307
0.0934954
0.0928132
0.0922869
0.0940548
0.0934093
0.0927373
0.0922273
0.0939801
0.0933287
0.0926727
0.0921823
0.0938823
0.0932354
0.0926062
0.0921428
0.0937389
0.0931138
0.092527
0.0921008
0.0935358
0.0929555
0.0924288
0.0920511
0.0932766
0.0927636
0.0923123
0.0919921
0.0929839
0.0925527
0.0921849
0.0919261
0.0926874
0.0923422
0.0920568
0.0918575
0.0924125
0.0921477
0.0919367
0.0917903
0.0921739
0.0919787
0.09183
0.0917274
0.0919767
0.0918378
0.0917385
0.0916701
0.091819
0.0917238
0.0916615
0.0916186
0.0916957
0.0916329
0.0915973
0.0915726
0.0916003
0.091561
0.091544
0.0915316
0.0915268
0.091504
0.0914994
0.0914952
0.0914702
0.0914586
0.091462
0.0914628
0.0914264
0.0914223
0.0914304
0.0914341
0.0913922
0.0913929
0.0914038
0.091409
0.0913655
0.0913692
0.0913814
0.0913872
0.0913446
0.0913501
0.0913626
0.0913685
0.0913285
0.0913348
0.0913471
0.0913526
0.0913163
0.0913225
0.0913341
0.091339
0.0913072
0.0913124
0.0913226
0.0913265
0.0913002
0.0913022
0.0913099
0.0913124
0.0912927
0.0912881
0.0912914
0.0912916
0.0912791
0.0912643
0.0912615
0.0912587
0.0912595
0.0912342
0.0912254
0.0912198
0.591119
0.30614
0.174534
0.127598
0.111003
0.105187
0.103239
0.102619
0.102422
0.102356
0.102351
0.102454
0.10291
0.104487
0.109299
0.122856
0.1606
0.277208
0.757087
0.281603
0.196067
0.140612
0.114048
0.102735
0.0982423
0.0965592
0.0959462
0.0957148
0.0956211
0.0956046
0.0957237
0.0962536
0.0980307
0.103287
0.117681
0.156832
0.275538
0.758525
0.174063
0.142139
0.118405
0.104748
0.0980299
0.0950449
0.0938002
0.0932874
0.0930644
0.0929622
0.092941
0.0930696
0.0936411
0.0955282
0.101019
0.11583
0.155617
0.275124
0.759448
0.129207
0.116428
0.105885
0.0990798
0.0953594
0.0935302
0.0926783
0.0922795
0.0920813
0.0919803
0.0919577
0.0920909
0.0926826
0.0946223
0.100222
0.115218
0.155267
0.275091
0.760181
0.109129
0.103864
0.09918
0.0958663
0.093872
0.0927821
0.0922095
0.0919038
0.0917323
0.0916369
0.0916152
0.0917508
0.0923514
0.0943142
0.0999603
0.115034
0.155193
0.275169
0.760828
0.099991
0.0977813
0.0957235
0.0941229
0.0930484
0.0923858
0.0919903
0.0917514
0.0916031
0.0915153
0.091496
0.0916337
0.0922387
0.094212
0.099879
0.114988
0.155202
0.27528
0.761416
0.0958381
0.0948742
0.0939749
0.093186
0.0925792
0.0921521
0.0918642
0.0916716
0.0915425
0.0914628
0.0914472
0.0915872
0.0921954
0.0941748
0.099854
0.114985
0.155238
0.275404
0.761948
0.0939325
0.0934717
0.0930751
0.0926644
0.092293
0.0919955
0.0917737
0.0916136
0.0915006
0.0914289
0.0914177
0.0915607
0.092172
0.0941566
0.0998456
0.114995
0.155284
0.275535
0.762423
0.093016
0.0927599
0.0925828
0.092351
0.0921012
0.0918779
0.0916988
0.0915625
0.0914628
0.0913988
0.0913924
0.0915388
0.0921536
0.0941434
0.0998422
0.115011
0.155336
0.275671
0.762839
0.0925327
0.0923641
0.0922867
0.0921438
0.0919606
0.0917827
0.0916326
0.0915145
0.0914261
0.0913692
0.0913676
0.0915177
0.0921363
0.0941319
0.099841
0.115029
0.155392
0.275811
0.763196
0.0922473
0.0921199
0.0920906
0.0919946
0.0918507
0.0917024
0.0915732
0.0914692
0.0913903
0.0913401
0.0913431
0.0914969
0.0921195
0.0941212
0.0998414
0.115049
0.155452
0.275954
0.763492
0.0920619
0.0919557
0.0919504
0.0918806
0.0917611
0.0916332
0.0915195
0.091427
0.0913563
0.0913119
0.0913193
0.0914768
0.0921036
0.0941117
0.0998433
0.115072
0.155515
0.276099
0.76373
0.0919343
0.0918393
0.0918453
0.09179
0.0916863
0.091573
0.0914714
0.0913881
0.0913244
0.0912852
0.0912967
0.0914578
0.0920888
0.0941035
0.0998469
0.115098
0.155581
0.276243
0.763911
0.0918447
0.0917549
0.0917641
0.0917161
0.0916228
0.0915203
0.0914282
0.0913526
0.091295
0.0912605
0.0912758
0.0914404
0.0920756
0.0940968
0.0998523
0.115125
0.155649
0.276386
0.764038
0.0917827
0.0916935
0.0917004
0.0916548
0.0915683
0.091474
0.0913897
0.0913207
0.0912683
0.0912381
0.0912568
0.0914247
0.092064
0.0940919
0.0998593
0.115154
0.155717
0.276527
0.764113
0.0917417
0.0916496
0.0916496
0.0916032
0.0915211
0.0914332
0.0913553
0.091292
0.0912444
0.0912179
0.0912399
0.0914109
0.0920542
0.0940887
0.099868
0.115184
0.155786
0.276663
0.764141
0.0917173
0.0916192
0.0916087
0.091559
0.0914796
0.0913971
0.0913248
0.0912666
0.0912231
0.0912002
0.0912251
0.0913991
0.0920462
0.0940871
0.099878
0.115214
0.155854
0.276794
0.764125
0.0917047
0.0915985
0.0915748
0.0915204
0.0914429
0.091365
0.0912978
0.0912441
0.0912045
0.0911847
0.0912124
0.0913892
0.09204
0.0940871
0.0998892
0.115246
0.155921
0.276918
0.764069
0.0916975
0.0915838
0.0915457
0.0914861
0.0914102
0.0913365
0.0912739
0.0912244
0.0911883
0.0911715
0.0912018
0.0913811
0.0920354
0.0940885
0.0999012
0.115277
0.155986
0.277034
0.763979
0.0916912
0.0915717
0.0915193
0.0914546
0.0913805
0.091311
0.0912528
0.0912072
0.0911744
0.0911603
0.0911929
0.0913747
0.0920324
0.0940911
0.099914
0.115307
0.156047
0.277141
0.763858
0.0916825
0.0915598
0.0914945
0.0914255
0.0913533
0.091288
0.0912342
0.0911923
0.0911626
0.091151
0.0911858
0.09137
0.0920309
0.0940952
0.099928
0.115338
0.156107
0.277241
0.763712
0.0916697
0.0915464
0.0914703
0.0913982
0.0913284
0.0912673
0.0912177
0.0911794
0.0911525
0.0911433
0.0911804
0.091367
0.0920315
0.0941019
0.0999453
0.115374
0.156173
0.277346
0.76355
0.0916525
0.0915307
0.0914464
0.0913725
0.0913056
0.0912487
0.0912031
0.0911681
0.091144
0.091137
0.0911762
0.0913654
0.0920341
0.0941119
0.099969
0.115422
0.156268
0.277521
0.763477
0.0916311
0.0915125
0.0914226
0.0913483
0.0912847
0.091232
0.0911902
0.0911584
0.0911368
0.0911319
0.091173
0.0913647
0.0920374
0.0941228
0.0999937
0.115472
0.156365
0.277693
0.763387
0.0916065
0.091492
0.0913991
0.0913256
0.0912656
0.091217
0.0911788
0.0911499
0.0911306
0.0911276
0.0911705
0.0913644
0.0920409
0.0941332
0.100017
0.115518
0.156452
0.277844
0.763275
0.0915794
0.0914696
0.0913761
0.0913045
0.0912482
0.0912036
0.0911688
0.0911425
0.0911253
0.091124
0.0911685
0.0913644
0.0920441
0.0941424
0.100037
0.115557
0.156526
0.277969
0.763147
0.0915509
0.0914462
0.0913538
0.0912849
0.0912325
0.0911916
0.0911599
0.0911361
0.0911208
0.091121
0.0911669
0.0913645
0.0920469
0.09415
0.100053
0.115589
0.156586
0.278067
0.763006
0.0915216
0.0914223
0.0913325
0.091267
0.0912183
0.0911808
0.091152
0.0911304
0.0911167
0.0911183
0.0911654
0.0913644
0.0920489
0.094156
0.100066
0.115614
0.156632
0.278139
0.762857
0.0914925
0.0913987
0.0913125
0.0912506
0.0912055
0.0911712
0.0911449
0.0911253
0.0911132
0.0911159
0.091164
0.0913641
0.0920503
0.0941601
0.100075
0.115632
0.156664
0.278185
0.762702
0.0914643
0.0913758
0.0912939
0.0912357
0.091194
0.0911626
0.0911386
0.0911208
0.09111
0.0911137
0.0911626
0.0913635
0.0920508
0.0941625
0.100081
0.115642
0.156682
0.278208
0.762546
0.0914376
0.0913542
0.0912768
0.0912224
0.0911838
0.091155
0.091133
0.0911167
0.091107
0.0911116
0.0911612
0.0913627
0.0920506
0.0941631
0.100082
0.115646
0.156688
0.278208
0.762392
0.0914127
0.0913341
0.0912614
0.0912105
0.0911748
0.0911483
0.091128
0.091113
0.0911043
0.0911096
0.0911597
0.0913616
0.0920497
0.0941621
0.100081
0.115643
0.156682
0.278187
0.762243
0.09139
0.0913159
0.0912476
0.0912
0.0911668
0.0911423
0.0911235
0.0911096
0.0911018
0.0911077
0.0911582
0.0913601
0.092048
0.0941596
0.100077
0.115635
0.156665
0.278147
0.762101
0.0913697
0.0912996
0.0912354
0.0911909
0.0911599
0.091137
0.0911195
0.0911066
0.0910994
0.0911058
0.0911566
0.0913585
0.0920457
0.0941557
0.100069
0.115621
0.156638
0.278091
0.76197
0.091352
0.0912852
0.0912248
0.0911829
0.0911538
0.0911324
0.091116
0.0911039
0.0910973
0.0911041
0.091155
0.0913566
0.0920429
0.0941506
0.10006
0.115603
0.156603
0.278021
0.76185
0.0913366
0.0912728
0.0912157
0.0911761
0.0911486
0.0911283
0.0911129
0.0911014
0.0910953
0.0911024
0.0911533
0.0913546
0.0920397
0.0941446
0.100048
0.115581
0.15656
0.277939
0.761745
0.0913231
0.0912619
0.0912076
0.09117
0.0911439
0.0911247
0.09111
0.0910992
0.0910935
0.0911008
0.0911518
0.0913525
0.0920361
0.0941377
0.100035
0.115556
0.156512
0.277848
0.761654
0.0913104
0.0912514
0.0911997
0.091164
0.0911393
0.0911211
0.0911072
0.091097
0.0910917
0.0910993
0.0911501
0.0913503
0.0920323
0.0941303
0.10002
0.115528
0.156461
0.277753
0.761579
0.0912957
0.0912391
0.0911904
0.0911569
0.0911338
0.0911168
0.0911039
0.0910943
0.0910896
0.0910975
0.0911484
0.0913481
0.0920283
0.0941226
0.100006
0.115501
0.15641
0.277659
0.761518
0.0912741
0.0912212
0.0911767
0.0911464
0.0911257
0.0911106
0.0910991
0.0910906
0.0910867
0.0910952
0.0911463
0.0913456
0.0920243
0.0941149
0.099991
0.115474
0.156362
0.277576
0.761469
0.0912409
0.0911943
0.0911563
0.0911308
0.0911136
0.0911012
0.0910918
0.0910849
0.0910823
0.0910917
0.0911434
0.0913426
0.0920202
0.0941078
0.0999778
0.11545
0.156317
0.2775
0.761425
0.0912029
0.0911647
0.091134
0.0911138
0.0911005
0.0910909
0.0910838
0.0910788
0.0910776
0.091088
0.0911405
0.0913399
0.092017
0.0941027
0.0999683
0.115431
0.156277
0.277414
0.761399
)
;

boundaryField
{
    leftWall
    {
        type            epsilonWallFunction;
        value           nonuniform List<scalar> 
50
(
0.701716
0.661578
0.720889
0.74935
0.765069
0.774114
0.779663
0.783535
0.78744
0.791584
0.795287
0.798704
0.801848
0.804721
0.807326
0.809672
0.811767
0.813626
0.81526
0.816682
0.817902
0.818909
0.819728
0.820698
0.821645
0.819909
0.823944
0.875317
0.926308
0.87691
0.861791
0.853273
0.84705
0.841662
0.836738
0.832163
0.827908
0.823981
0.820383
0.817105
0.814132
0.811449
0.809055
0.806946
0.805134
0.803759
0.804058
0.816696
0.92094
1.62972
)
;
    }
    rightWall
    {
        type            epsilonWallFunction;
        value           nonuniform List<scalar> 
50
(
0.70646
0.634947
0.695327
0.723449
0.738871
0.747435
0.752143
0.754763
0.757087
0.758525
0.759448
0.760181
0.760828
0.761416
0.761948
0.762423
0.762839
0.763196
0.763492
0.76373
0.763911
0.764038
0.764113
0.764141
0.764125
0.764069
0.763979
0.763858
0.763712
0.76355
0.763477
0.763387
0.763275
0.763147
0.763006
0.762857
0.762702
0.762546
0.762392
0.762243
0.762101
0.76197
0.76185
0.761745
0.761654
0.761579
0.761518
0.761469
0.761425
0.761399
)
;
    }
    lowerWall
    {
        type            epsilonWallFunction;
        value           nonuniform List<scalar> 
62
(
0.701716
0.88341
0.969774
1.01109
1.0341
1.05389
1.07689
1.10735
1.15089
1.21956
1.323
1.40586
1.50009
1.55041
1.49645
1.44177
1.33148
1.20727
1.11309
1.04284
0.976173
0.880523
0.696632
0.696632
0.650501
0.771167
0.839137
0.885517
0.923601
0.965332
1.04537
1.23373
1.0601
0.95416
0.945565
0.705606
0.622079
0.695747
0.725662
0.743898
0.76641
0.822821
0.968007
0.705606
0.881446
0.948151
0.96194
0.960091
0.955945
0.953468
0.950773
0.947954
0.945127
0.942304
0.939498
0.936716
0.933811
0.930405
0.924451
0.907414
0.851459
0.70646
)
;
    }
    atmosphere
    {
        type            inletOutlet;
        inletValue      uniform 0.1;
        value           nonuniform List<scalar> 
46
(
0.1
0.1
0.1
0.1
0.1
0.1
0.1
0.1
0.1
0.1
0.1
0.1
0.1
0.1
0.1
0.1
0.1
0.1
0.1
0.1
0.0928365
0.0917289
0.0913472
0.0912595
0.0912342
0.0912254
0.0912198
0.0912029
0.0911647
0.091134
0.0911138
0.0911005
0.0910909
0.0910838
0.0910788
0.0910776
0.091088
0.0911405
0.0913399
0.092017
0.0941027
0.0999683
0.115431
0.156277
0.277414
0.761399
)
;
    }
    defaultFaces
    {
        type            empty;
    }
}


// ************************************************************************* //
