/*--------------------------------*- C++ -*----------------------------------*\
  =========                 |
  \\      /  F ield         | OpenFOAM: The Open Source CFD Toolbox
   \\    /   O peration     | Website:  https://openfoam.org
    \\  /    A nd           | Version:  9
     \\/     M anipulation  |
\*---------------------------------------------------------------------------*/
FoamFile
{
    format      ascii;
    class       volScalarField;
    location    "0.05";
    object      k;
}
// * * * * * * * * * * * * * * * * * * * * * * * * * * * * * * * * * * * * * //

dimensions      [0 2 -2 0 0 0 0];

internalField   nonuniform List<scalar> 
2268
(
0.0343831
0.0331888
0.0357358
0.0369882
0.0376862
0.0382623
0.038911
0.0397565
0.0409435
0.0427555
0.045379
0.0475254
0.0494353
0.0504895
0.0498281
0.0484153
0.0461695
0.0430703
0.0402716
0.0380337
0.035981
0.0331905
0.0278081
0.0450447
0.0611399
0.0671487
0.0695658
0.0706584
0.0713498
0.0720569
0.0730381
0.0745335
0.0769796
0.0800352
0.082637
0.0848008
0.0848465
0.0828806
0.0827873
0.0795137
0.0727626
0.0677202
0.0657257
0.0640621
0.0597322
0.0446625
0.0479806
0.0709133
0.0783326
0.0813473
0.0828016
0.083744
0.0846682
0.0858898
0.0876711
0.0903148
0.0933284
0.0958634
0.0980581
0.0984768
0.0975227
0.095979
0.0924022
0.0861048
0.0825286
0.0808562
0.0787019
0.0731291
0.0507749
0.0493934
0.0754473
0.083604
0.0869453
0.0886333
0.0897572
0.0908292
0.0921718
0.0940129
0.0964987
0.0990599
0.101075
0.102712
0.103315
0.101053
0.0993715
0.0963141
0.0913748
0.0896847
0.0885494
0.0863635
0.0804915
0.0542546
0.0501824
0.0778259
0.0864555
0.0900048
0.0918388
0.0930691
0.0942047
0.0955482
0.0972708
0.0993883
0.101331
0.102732
0.103937
0.105342
0.103655
0.102864
0.100334
0.0951437
0.0936703
0.0925494
0.0904312
0.0848239
0.056645
0.0506456
0.0791581
0.0881282
0.0918282
0.0937521
0.0950304
0.0961628
0.0974233
0.0989276
0.100604
0.101944
0.102867
0.10405
0.106726
0.106851
0.105935
0.103118
0.0977207
0.0959338
0.0946021
0.0926042
0.0877029
0.0585996
0.0509361
0.0799348
0.0891634
0.0929829
0.0949641
0.0962548
0.0973465
0.0984866
0.0997502
0.101019
0.101882
0.102538
0.103966
0.107868
0.110174
0.108659
0.104716
0.099279
0.0971506
0.095612
0.0938087
0.0900582
0.0606497
0.0511424
0.0803998
0.0898224
0.0937401
0.0957607
0.0970478
0.0980882
0.0991109
0.100168
0.101127
0.101682
0.102245
0.103999
0.108857
0.113488
0.111315
0.105547
0.100129
0.097775
0.0960929
0.0945261
0.0923527
0.064108
0.0279969
0.0331306
0.0350823
0.035516
0.0354708
0.0353409
0.035265
0.0351837
0.0351002
0.0350171
0.0349347
0.034853
0.0347717
0.0346862
0.0345821
0.0343944
0.0338664
0.0322053
0.0353259
0.0464489
0.0613655
0.0661888
0.0675286
0.0677548
0.0676897
0.0675617
0.0674648
0.067401
0.0673603
0.0673335
0.067314
0.0672956
0.0672612
0.0671596
0.0667984
0.0655164
0.0611478
0.0470842
0.0503898
0.071528
0.0776711
0.0795251
0.0799963
0.08005
0.0799873
0.0799267
0.0798851
0.079859
0.0798423
0.0798292
0.0798119
0.0797645
0.0796073
0.0790797
0.0773851
0.071891
0.050353
0.0520118
0.0763488
0.08323
0.0853306
0.0859236
0.0860421
0.0860215
0.0859846
0.0859567
0.0859382
0.0859255
0.0859132
0.0858908
0.0858247
0.0856146
0.0849662
0.0830368
0.0769572
0.0518907
0.053042
0.0791459
0.0864825
0.0886569
0.0892694
0.0893981
0.089388
0.0893575
0.0893331
0.0893164
0.0893041
0.08929
0.0892607
0.0891757
0.0889204
0.0881833
0.0861004
0.0796407
0.0527456
0.0543789
0.0812932
0.0887731
0.0908495
0.0913897
0.091481
0.0914541
0.0914146
0.091385
0.0913652
0.0913502
0.0913325
0.0912956
0.0911928
0.0908992
0.0900936
0.0878954
0.0811514
0.053232
0.0575379
0.0836097
0.090701
0.0924725
0.0928598
0.0928765
0.0928129
0.0927535
0.0927124
0.0926855
0.0926655
0.0926428
0.0925978
0.0924784
0.0921524
0.0912907
0.0889969
0.0820275
0.0535074
0.0646439
0.0866086
0.0924758
0.0937457
0.0939318
0.0938557
0.0937465
0.0936623
0.0936069
0.093571
0.0935448
0.0935165
0.0934632
0.0933287
0.0929746
0.0920653
0.0896885
0.0825393
0.0536652
0.051348
0.0807802
0.0904072
0.0944477
0.0965153
0.0977908
0.098761
0.0996413
0.100475
0.101139
0.101457
0.102052
0.104287
0.110325
0.118229
0.115451
0.106359
0.100803
0.0982648
0.0964147
0.0949813
0.0939455
0.0793716
0.0515661
0.0809398
0.0906033
0.0946859
0.0967645
0.0980105
0.0989047
0.0996579
0.100323
0.100823
0.101093
0.101933
0.105
0.112988
0.12422
0.119534
0.10726
0.101236
0.0986993
0.0969917
0.0957934
0.0955501
0.0947546
0.0517592
0.0809876
0.0905452
0.0945739
0.0966126
0.0978059
0.0986191
0.099259
0.0997935
0.100199
0.100527
0.101755
0.105896
0.116235
0.129589
0.122623
0.10829
0.101644
0.0991628
0.0978352
0.0971173
0.0973906
0.0987379
0.0519368
0.0810074
0.0903956
0.0943119
0.0962706
0.0973889
0.0981141
0.0986484
0.0990763
0.0994299
0.0998867
0.101579
0.106862
0.119642
0.133852
0.124177
0.108888
0.101827
0.099386
0.0983907
0.0980388
0.0984663
0.0997416
0.0521
0.0810283
0.0902357
0.0940203
0.0958835
0.0969205
0.0975634
0.0980109
0.0983634
0.0987059
0.0993278
0.101487
0.107845
0.122919
0.137349
0.124848
0.109075
0.101797
0.0993689
0.0985801
0.0984443
0.0989
0.0998453
0.0522492
0.0810587
0.0900972
0.0937547
0.0955248
0.0964867
0.0970609
0.0974438
0.0977502
0.0981098
0.0989045
0.101493
0.108804
0.125904
0.140498
0.125304
0.109065
0.101647
0.099208
0.098524
0.0984912
0.0989141
0.0996004
0.0523847
0.0810988
0.0899879
0.0935325
0.0952204
0.0961184
0.0966387
0.0969765
0.0972585
0.097651
0.0986098
0.101578
0.109719
0.128622
0.143365
0.125676
0.108973
0.101445
0.0989834
0.0983441
0.0983513
0.0987298
0.0992537
0.0525067
0.0811467
0.0899069
0.0933547
0.0949731
0.0958192
0.0962984
0.0966059
0.0968779
0.0973103
0.0984183
0.101717
0.110572
0.131032
0.145862
0.125998
0.108842
0.101224
0.0987434
0.0981219
0.0981411
0.0984813
0.0989043
0.0526157
0.0812
0.0898502
0.0932166
0.0947775
0.0955817
0.0960302
0.0963178
0.096589
0.0970639
0.0983063
0.101894
0.111365
0.133149
0.147973
0.126239
0.108677
0.101
0.0985147
0.0979039
0.0979248
0.0982353
0.0985922
0.0527125
0.0812564
0.0898132
0.0931117
0.0946254
0.0953963
0.0958218
0.096097
0.0963735
0.096892
0.0982579
0.102105
0.112117
0.135035
0.14975
0.126393
0.108483
0.100783
0.0983134
0.0977154
0.0977357
0.0980225
0.0983326
0.0527976
0.0813135
0.0897919
0.0930341
0.0945094
0.095254
0.0956625
0.0959309
0.0962177
0.0967818
0.0982664
0.102359
0.11287
0.136787
0.151307
0.126493
0.108275
0.100584
0.0981516
0.0975717
0.0975907
0.0978565
0.0981284
0.0528715
0.0813689
0.0897824
0.092979
0.0944237
0.0951483
0.0955451
0.0958117
0.0961137
0.0967285
0.0983354
0.102678
0.113685
0.138544
0.152811
0.126603
0.108081
0.100422
0.0980429
0.0974849
0.0974997
0.0977423
0.097977
0.0529348
0.0814195
0.0897822
0.0929437
0.094366
0.095077
0.0954678
0.0957385
0.0960628
0.0967381
0.0984819
0.1031
0.114648
0.14049
0.154501
0.126821
0.107938
0.100319
0.0980063
0.0974685
0.0974704
0.0976812
0.0978731
0.0529865
0.0814624
0.089792
0.0929311
0.0943405
0.0950461
0.0954391
0.0957232
0.0960822
0.0968357
0.0987446
0.103688
0.115862
0.142815
0.156608
0.1272
0.107864
0.100308
0.0980726
0.0975428
0.097512
0.0976739
0.0978107
0.0530296
0.0815033
0.0898204
0.0929514
0.0943606
0.0950738
0.0954844
0.0958015
0.0962205
0.0970848
0.0992034
0.10454
0.117445
0.145609
0.158767
0.127479
0.107798
0.100427
0.0982908
0.0977377
0.0976366
0.0977203
0.0977826
0.0530813
0.0815671
0.0898813
0.09302
0.0944486
0.0951945
0.0956565
0.0960522
0.0965888
0.0976305
0.100029
0.105841
0.119576
0.149008
0.159442
0.126813
0.107581
0.100754
0.098736
0.0980898
0.0978538
0.0978154
0.0977777
0.0531202
0.0816352
0.0899814
0.0931623
0.0946505
0.0954815
0.0960667
0.0966395
0.0974209
0.0987827
0.101587
0.107938
0.1225
0.153415
0.15706
0.124325
0.107251
0.101418
0.0994751
0.098616
0.0981569
0.0979435
0.0977779
0.0530513
0.0814886
0.0901072
0.0934325
0.0950651
0.0960826
0.0969273
0.0978646
0.0991353
0.101097
0.104551
0.111476
0.12639
0.158021
0.152017
0.120756
0.107251
0.102573
0.100514
0.0992779
0.0985046
0.0980713
0.09776
0.0534434
0.0808036
0.0902184
0.0938683
0.0957994
0.0971906
0.0985415
0.100177
0.102373
0.10545
0.110052
0.11781
0.132243
0.158976
0.143753
0.11779
0.108322
0.104239
0.101695
0.0999398
0.0988101
0.098148
0.0976964
0.0560201
0.0815422
0.090877
0.0947222
0.0970803
0.0991068
0.101339
0.104187
0.107981
0.112968
0.119609
0.129167
0.145338
0.151479
0.128656
0.116434
0.110162
0.105832
0.102606
0.100373
0.0989585
0.0981197
0.0975647
0.0583269
0.0838222
0.0922126
0.0956872
0.0981609
0.100535
0.103356
0.107094
0.11203
0.11788
0.123972
0.130165
0.134742
0.129324
0.122681
0.116615
0.111063
0.106341
0.102789
0.100383
0.0988711
0.0979595
0.0973613
0.055987
0.0832579
0.0916375
0.0955681
0.0980473
0.10015
0.102474
0.105509
0.10958
0.114552
0.119426
0.122882
0.12406
0.123154
0.12005
0.115142
0.109931
0.105482
0.102192
0.0999756
0.0985642
0.0976871
0.0971055
0.0552482
0.0831938
0.0915299
0.0951866
0.0973416
0.0990327
0.100798
0.10304
0.106021
0.109718
0.113602
0.116681
0.118294
0.118003
0.115534
0.111527
0.107317
0.103759
0.101121
0.0993133
0.0981246
0.0973528
0.0968292
0.0548223
0.0831704
0.0915494
0.0950343
0.0969564
0.0983509
0.0997104
0.101359
0.103492
0.106107
0.108895
0.111235
0.112432
0.112075
0.110183
0.107326
0.104367
0.101847
0.0999375
0.0985825
0.0976486
0.0970088
0.0965622
0.054506
0.0830969
0.0915068
0.0949029
0.0966708
0.0978474
0.0988928
0.100071
0.101523
0.103243
0.105029
0.10649
0.107176
0.106823
0.105544
0.103718
0.101824
0.100173
0.0988741
0.0979081
0.0972036
0.096692
0.0963244
0.0542297
0.082977
0.0913858
0.0947215
0.0963786
0.0973901
0.098193
0.0990131
0.0999557
0.101016
0.102073
0.102896
0.103236
0.102963
0.102161
0.10107
0.0999163
0.0988753
0.0980181
0.0973445
0.0968226
0.0964207
0.0961244
0.0539754
0.0828369
0.0912242
0.0945085
0.0960825
0.0969723
0.097599
0.0981671
0.0987655
0.099398
0.0999958
0.100436
0.100592
0.100404
0.0999234
0.0992785
0.0985843
0.0979325
0.0973683
0.0968992
0.0965131
0.0961992
0.095963
0.0537377
0.0826931
0.0910497
0.0942871
0.0957978
0.0966005
0.0971064
0.0975089
0.0978911
0.0982668
0.0986021
0.0988345
0.098902
0.0987782
0.0984904
0.098103
0.0976796
0.0972652
0.0968884
0.0965574
0.0962693
0.0960236
0.0958362
0.0535155
0.0825547
0.0908795
0.0940751
0.0955374
0.0962794
0.0967057
0.0970038
0.097256
0.0974846
0.0976764
0.0978011
0.0978289
0.0977479
0.0975717
0.0973326
0.0970657
0.0967946
0.0965366
0.0962984
0.0960805
0.095887
0.0957382
0.0533095
0.0824258
0.0907221
0.0938819
0.0953073
0.0960077
0.0963826
0.0966165
0.0967924
0.0969384
0.0970535
0.0971239
0.0971353
0.097082
0.0969708
0.0968181
0.096643
0.0964597
0.0962779
0.0961027
0.0959353
0.0957818
0.0956633
0.0531206
0.0823085
0.090581
0.0937112
0.0951089
0.0957809
0.0961232
0.0963183
0.09645
0.0965501
0.0966244
0.0966679
0.0966736
0.0966386
0.0965663
0.0964653
0.0963461
0.0962179
0.0960862
0.0959544
0.0958239
0.0957009
0.0956061
0.0529484
0.0822034
0.0904575
0.0935641
0.0949411
0.0955939
0.0959157
0.0960877
0.0961939
0.0962686
0.0963214
0.0963518
0.0963565
0.0963339
0.0962858
0.0962169
0.0961333
0.0960407
0.0959428
0.0958415
0.0957382
0.0956388
0.0955624
0.052792
0.0821102
0.0903516
0.09344
0.0948017
0.0954416
0.0957507
0.0959089
0.0960005
0.0960611
0.0961027
0.0961268
0.0961324
0.0961185
0.0960862
0.096038
0.0959777
0.095909
0.0958345
0.0957552
0.0956723
0.0955911
0.0955289
0.0526505
0.0820282
0.0902622
0.0933373
0.0946879
0.0953192
0.0956204
0.0957705
0.0958538
0.0959067
0.0959423
0.0959638
0.0959709
0.0959633
0.0959415
0.0959072
0.0958626
0.0958104
0.0957524
0.0956892
0.0956216
0.0955545
0.0955033
0.0525236
0.0819568
0.0901884
0.0932546
0.0945977
0.0952235
0.0955201
0.0956655
0.0957442
0.0957928
0.0958253
0.0958456
0.0958543
0.0958512
0.0958366
0.0958117
0.0957779
0.0957372
0.0956908
0.0956393
0.0955831
0.0955267
0.0954838
0.0524115
0.0818976
0.0901326
0.0931945
0.0945331
0.0951555
0.0954494
0.0955922
0.095668
0.0957141
0.0957449
0.0957648
0.0957748
0.0957747
0.0957649
0.0957461
0.0957195
0.0956864
0.0956478
0.0956041
0.0955557
0.0955067
0.0954695
0.052316
0.0818594
0.0901075
0.0931702
0.0945063
0.0951259
0.0954174
0.0955581
0.0956318
0.095676
0.0957054
0.0957248
0.0957353
0.095737
0.09573
0.0957148
0.0956922
0.095663
0.0956279
0.095587
0.0955412
0.0954949
0.0954601
0.0522485
0.081881
0.090158
0.0932226
0.0945525
0.0951657
0.0954522
0.0955892
0.09566
0.0957019
0.0957295
0.0957477
0.0957576
0.0957594
0.0957532
0.0957391
0.0957172
0.0956875
0.0956492
0.0956019
0.0955474
0.0954947
0.0954562
0.0522945
0.0821215
0.0904226
0.0934579
0.0947558
0.0953458
0.0956179
0.0957462
0.0958117
0.0958497
0.0958743
0.09589
0.0958979
0.0958982
0.0958907
0.095875
0.0958503
0.0958137
0.0957609
0.0956869
0.0955945
0.0955134
0.095459
0.0530956
0.083195
0.0912811
0.094114
0.0952863
0.0958064
0.0960416
0.096151
0.0962062
0.0962377
0.0962574
0.096269
0.0962734
0.0962706
0.0962602
0.0962412
0.0962107
0.0961614
0.0960775
0.0959345
0.095723
0.0955628
0.0954693
0.0586224
0.0870102
0.0935199
0.0955927
0.0964172
0.0967756
0.0969359
0.0970105
0.0970484
0.09707
0.0970828
0.0970891
0.0970893
0.0970833
0.0970705
0.0970497
0.0970166
0.0969576
0.096835
0.0965589
0.095993
0.0956502
0.0954837
0.0874139
0.0963209
0.0976996
0.098189
0.0984136
0.098521
0.0985731
0.0986
0.0986156
0.0986256
0.098632
0.0986351
0.0986349
0.0986312
0.098624
0.0986124
0.098594
0.0985569
0.0984522
0.0980662
0.0964018
0.0957488
0.0954935
0.0723679
0.0654733
0.0606065
0.0596242
0.0931075
0.0909344
0.0895702
0.090061
0.0993012
0.0989159
0.0982179
0.0978154
0.100246
0.100021
0.0994433
0.0989028
0.100031
0.0997317
0.09919
0.0986697
0.0995871
0.0992325
0.0986997
0.0982012
0.0991306
0.0987449
0.0982177
0.0977386
0.0987187
0.0983189
0.097802
0.0973434
0.0983694
0.0979658
0.0974628
0.0970255
0.0980855
0.0976826
0.0971947
0.0967779
0.0978622
0.0974612
0.0969872
0.0965886
0.097692
0.0972917
0.0968292
0.0964459
0.097566
0.0971641
0.0967102
0.0963395
0.0974757
0.0970691
0.0966214
0.0962609
0.0974122
0.0969984
0.0965551
0.0962034
0.0973651
0.0969429
0.0965041
0.0961612
0.0973206
0.0968919
0.0964608
0.0961289
0.0972614
0.0968325
0.0964158
0.0960995
0.0971707
0.0967528
0.0963606
0.0960671
0.0970375
0.0966461
0.0962905
0.0960276
0.0968631
0.0965135
0.0962055
0.0959799
0.0966618
0.096365
0.0961107
0.095926
0.0964543
0.096214
0.096014
0.0958695
0.0962588
0.0960725
0.0959221
0.095814
0.096087
0.0959478
0.0958396
0.0957621
0.0959434
0.0958428
0.0957685
0.0957152
0.0958276
0.0957571
0.0957085
0.0956736
0.0957362
0.0956885
0.0956586
0.0956369
0.0956652
0.0956339
0.0956173
0.0956048
0.0956102
0.0955906
0.095583
0.0955767
0.0955676
0.0955561
0.0955544
0.0955521
0.0955345
0.0955285
0.0955305
0.0955306
0.0955087
0.0955063
0.0955105
0.095512
0.0954884
0.0954884
0.0954938
0.095496
0.0954727
0.095474
0.0954799
0.0954824
0.0954607
0.0954626
0.0954686
0.0954709
0.0954519
0.0954538
0.0954592
0.0954611
0.0954462
0.0954469
0.0954512
0.0954524
0.0954431
0.0954409
0.095443
0.0954427
0.0954407
0.095433
0.0954314
0.095429
0.0954353
0.0954197
0.0954131
0.0954082
0.0954254
0.0954024
0.0953915
0.0953843
0.0758735
0.0913936
0.0948
0.0952606
0.0951465
0.0949364
0.0947613
0.0946416
0.0945655
0.0945167
0.0944813
0.0944444
0.0943793
0.094224
0.0938321
0.0928587
0.0903694
0.0829994
0.0538087
0.0941977
0.0966715
0.096772
0.0963694
0.095966
0.095639
0.0954079
0.0952578
0.0951634
0.0951025
0.0950582
0.0950129
0.0949367
0.0947624
0.094337
0.093307
0.0907236
0.0832052
0.0538968
0.0979868
0.097995
0.0974588
0.096849
0.0963447
0.0959691
0.095712
0.0955457
0.0954399
0.0953705
0.0953193
0.0952677
0.0951837
0.0949972
0.0945514
0.0934878
0.0908534
0.0832707
0.0539513
0.098412
0.0980847
0.0975376
0.096957
0.0964656
0.0960956
0.0958394
0.0956704
0.0955601
0.0954859
0.0954303
0.0953744
0.0952854
0.0950918
0.0946344
0.0935533
0.0908951
0.0832883
0.0539929
0.098102
0.0977731
0.0973407
0.0968642
0.0964399
0.0961091
0.0958729
0.0957121
0.0956038
0.0955287
0.0954712
0.095413
0.0953213
0.0951238
0.0946607
0.0935715
0.0909035
0.0832897
0.054029
0.097644
0.0973622
0.0970485
0.0966858
0.0963437
0.096065
0.0958583
0.0957122
0.0956103
0.0955375
0.0954803
0.0954215
0.0953286
0.0951293
0.0946635
0.0935709
0.0908996
0.0832853
0.0540614
0.0972064
0.0969721
0.0967547
0.0964903
0.0962245
0.0959969
0.095821
0.0956919
0.0955987
0.0955301
0.0954747
0.0954165
0.0953236
0.0951236
0.0946567
0.0935629
0.0908911
0.0832784
0.0540904
0.0968398
0.0966452
0.0964997
0.0963111
0.0961071
0.0959231
0.0957749
0.0956622
0.0955783
0.0955148
0.0954621
0.0954054
0.095313
0.095113
0.0946458
0.0935519
0.0908805
0.08327
0.0541162
0.096551
0.096388
0.0962934
0.0961597
0.0960021
0.0958523
0.0957271
0.0956289
0.0955539
0.0954956
0.0954461
0.0953913
0.0952999
0.0951003
0.0946333
0.0935396
0.090869
0.0832604
0.0541385
0.0963307
0.0961917
0.096132
0.0960362
0.095912
0.0957881
0.0956811
0.0955952
0.095528
0.0954749
0.0954287
0.0953759
0.0952857
0.0950867
0.09462
0.0935268
0.0908569
0.08325
0.0541573
0.0961656
0.096044
0.0960071
0.0959367
0.095836
0.0957312
0.0956385
0.0955625
0.0955023
0.0954538
0.0954108
0.0953601
0.0952713
0.095073
0.0946068
0.093514
0.0908447
0.0832389
0.0541727
0.0960429
0.0959334
0.0959106
0.0958566
0.095772
0.0956813
0.0955996
0.0955319
0.0954775
0.0954333
0.0953933
0.0953447
0.0952572
0.0950597
0.0945939
0.0935015
0.0908326
0.0832274
0.0541848
0.0959528
0.0958507
0.0958356
0.0957915
0.095718
0.0956376
0.0955645
0.0955036
0.0954543
0.0954139
0.0953766
0.09533
0.0952438
0.0950471
0.0945818
0.0934897
0.0908209
0.0832157
0.0541936
0.0958875
0.0957893
0.0957769
0.0957382
0.095672
0.0955993
0.0955331
0.0954778
0.0954329
0.0953958
0.0953611
0.0953163
0.0952314
0.0950355
0.0945706
0.0934787
0.0908098
0.0832039
0.0541993
0.0958413
0.095744
0.0957306
0.0956939
0.0956326
0.0955657
0.0955051
0.0954545
0.0954135
0.0953794
0.095347
0.0953039
0.0952202
0.0950251
0.0945605
0.0934687
0.0907994
0.0831924
0.0542021
0.09581
0.0957111
0.0956938
0.0956567
0.0955985
0.0955362
0.0954802
0.0954337
0.0953961
0.0953647
0.0953344
0.0952929
0.0952103
0.095016
0.0945517
0.0934599
0.0907899
0.0831812
0.0542022
0.0957901
0.0956879
0.0956641
0.095625
0.0955686
0.0955101
0.0954581
0.0954152
0.0953806
0.0953517
0.0953233
0.0952833
0.0952018
0.0950081
0.0945442
0.0934522
0.0907814
0.0831705
0.0541999
0.0957776
0.0956716
0.0956397
0.0955975
0.0955423
0.0954869
0.0954385
0.0953988
0.095367
0.0953403
0.0953137
0.0952751
0.0951947
0.0950016
0.0945379
0.0934457
0.0907738
0.0831603
0.0541954
0.0957682
0.0956592
0.0956187
0.095573
0.0955188
0.0954663
0.0954211
0.0953845
0.0953552
0.0953306
0.0953056
0.0952683
0.0951888
0.0949963
0.0945328
0.0934402
0.0907671
0.0831507
0.054189
0.0957585
0.0956486
0.0955997
0.0955507
0.0954976
0.0954479
0.0954058
0.095372
0.095345
0.0953223
0.0952988
0.0952627
0.0951841
0.0949922
0.0945288
0.0934358
0.0907613
0.0831418
0.054181
0.0957463
0.0956378
0.0955818
0.09553
0.0954782
0.0954313
0.0953923
0.0953611
0.0953363
0.0953154
0.0952933
0.0952582
0.0951804
0.094989
0.0945257
0.0934322
0.0907562
0.0831334
0.0541716
0.0957307
0.0956259
0.0955643
0.0955106
0.0954603
0.0954163
0.0953803
0.0953516
0.0953289
0.0953096
0.0952887
0.0952547
0.0951775
0.0949865
0.0945233
0.0934291
0.0907513
0.0831249
0.0541617
0.095712
0.0956124
0.0955469
0.0954923
0.095444
0.0954029
0.0953696
0.0953434
0.0953226
0.0953047
0.0952851
0.0952519
0.0951753
0.0949846
0.0945211
0.0934258
0.0907452
0.0831133
0.054157
0.0956909
0.0955973
0.0955296
0.0954751
0.095429
0.0953908
0.0953602
0.0953362
0.0953172
0.0953008
0.0952822
0.0952497
0.0951737
0.0949832
0.0945194
0.0934229
0.0907395
0.083102
0.0541515
0.0956681
0.0955808
0.0955125
0.0954588
0.0954152
0.0953799
0.0953519
0.09533
0.0953126
0.0952974
0.0952798
0.0952481
0.0951726
0.0949822
0.0945181
0.0934205
0.0907344
0.0830918
0.0541449
0.0956445
0.0955634
0.0954957
0.0954437
0.0954027
0.0953701
0.0953445
0.0953246
0.0953087
0.0952946
0.0952779
0.0952468
0.0951717
0.0949816
0.0945173
0.0934186
0.0907302
0.0830832
0.0541373
0.0956208
0.0955454
0.0954795
0.0954296
0.0953913
0.0953614
0.095338
0.0953198
0.0953053
0.0952923
0.0952763
0.0952458
0.0951712
0.0949812
0.0945167
0.0934173
0.0907269
0.083076
0.0541291
0.0955974
0.0955274
0.095464
0.0954166
0.095381
0.0953535
0.0953322
0.0953156
0.0953023
0.0952902
0.095275
0.095245
0.0951707
0.0949809
0.0945164
0.0934163
0.0907243
0.0830704
0.0541204
0.0955749
0.0955098
0.0954494
0.0954047
0.0953717
0.0953465
0.095327
0.0953119
0.0952996
0.0952884
0.0952738
0.0952443
0.0951704
0.0949808
0.0945162
0.0934157
0.0907226
0.0830662
0.0541115
0.0955535
0.095493
0.0954358
0.0953939
0.0953633
0.0953402
0.0953224
0.0953085
0.0952973
0.0952867
0.0952727
0.0952436
0.09517
0.0949807
0.0945162
0.0934155
0.0907216
0.0830634
0.0541026
0.0955335
0.0954771
0.0954234
0.0953842
0.0953559
0.0953347
0.0953183
0.0953055
0.0952951
0.0952852
0.0952716
0.0952429
0.0951696
0.0949806
0.0945162
0.0934155
0.0907212
0.083062
0.0540938
0.0955152
0.0954625
0.0954121
0.0953755
0.0953493
0.0953297
0.0953146
0.0953028
0.0952931
0.0952838
0.0952706
0.0952422
0.0951693
0.0949805
0.0945164
0.0934158
0.0907215
0.0830618
0.0540853
0.0954987
0.0954493
0.095402
0.0953678
0.0953434
0.0953253
0.0953113
0.0953004
0.0952913
0.0952824
0.0952696
0.0952415
0.0951688
0.0949803
0.0945165
0.0934162
0.0907223
0.0830627
0.0540773
0.095484
0.0954375
0.0953931
0.0953611
0.0953383
0.0953214
0.0953084
0.0952981
0.0952896
0.0952811
0.0952686
0.0952408
0.0951684
0.0949802
0.0945167
0.0934169
0.0907236
0.0830647
0.0540699
0.0954712
0.0954271
0.0953854
0.0953552
0.0953339
0.095318
0.0953058
0.0952961
0.095288
0.0952799
0.0952676
0.0952401
0.095168
0.0949801
0.094517
0.0934177
0.0907253
0.0830677
0.0540632
0.0954601
0.0954181
0.0953786
0.0953502
0.09533
0.095315
0.0953035
0.0952944
0.0952866
0.0952788
0.0952668
0.0952395
0.0951675
0.0949799
0.0945173
0.0934187
0.0907274
0.0830714
0.0540572
0.0954505
0.0954101
0.0953726
0.0953456
0.0953265
0.0953123
0.0953014
0.0952927
0.0952853
0.0952777
0.0952659
0.0952388
0.0951671
0.0949798
0.0945177
0.0934199
0.0907299
0.0830759
0.0540522
0.0954413
0.0954024
0.0953667
0.0953411
0.095323
0.0953096
0.0952993
0.095291
0.095284
0.0952766
0.0952651
0.0952382
0.0951667
0.0949798
0.0945182
0.0934211
0.0907325
0.0830807
0.054048
0.0954309
0.0953933
0.0953597
0.0953357
0.0953188
0.0953064
0.0952968
0.0952891
0.0952825
0.0952755
0.0952641
0.0952375
0.0951663
0.0949797
0.0945186
0.0934224
0.0907352
0.0830857
0.0540447
0.0954159
0.0953806
0.0953498
0.0953281
0.0953129
0.0953018
0.0952932
0.0952863
0.0952804
0.0952739
0.0952629
0.0952366
0.0951657
0.0949796
0.094519
0.0934236
0.0907377
0.0830902
0.054042
0.0953941
0.0953624
0.0953358
0.0953173
0.0953046
0.0952953
0.0952882
0.0952824
0.0952774
0.0952716
0.0952612
0.0952354
0.0951649
0.0949792
0.0945192
0.0934246
0.09074
0.0830943
0.0540396
0.0953701
0.0953433
0.0953213
0.0953062
0.095296
0.0952886
0.095283
0.0952784
0.0952743
0.0952692
0.0952595
0.0952341
0.0951641
0.0949788
0.0945192
0.0934251
0.0907419
0.0830989
0.0540381
)
;

boundaryField
{
    leftWall
    {
        type            kqRWallFunction;
        value           nonuniform List<scalar> 
50
(
0.0343831
0.0450447
0.0479806
0.0493934
0.0501824
0.0506456
0.0509361
0.0511424
0.051348
0.0515661
0.0517592
0.0519368
0.0521
0.0522492
0.0523847
0.0525067
0.0526157
0.0527125
0.0527976
0.0528715
0.0529348
0.0529865
0.0530296
0.0530813
0.0531202
0.0530513
0.0534434
0.0560201
0.0583269
0.055987
0.0552482
0.0548223
0.054506
0.0542297
0.0539754
0.0537377
0.0535155
0.0533095
0.0531206
0.0529484
0.052792
0.0526505
0.0525236
0.0524115
0.052316
0.0522485
0.0522945
0.0530956
0.0586224
0.0874139
)
;
    }
    rightWall
    {
        type            kqRWallFunction;
        value           nonuniform List<scalar> 
50
(
0.0353259
0.0470842
0.050353
0.0518907
0.0527456
0.053232
0.0535074
0.0536652
0.0538087
0.0538968
0.0539513
0.0539929
0.054029
0.0540614
0.0540904
0.0541162
0.0541385
0.0541573
0.0541727
0.0541848
0.0541936
0.0541993
0.0542021
0.0542022
0.0541999
0.0541954
0.054189
0.054181
0.0541716
0.0541617
0.054157
0.0541515
0.0541449
0.0541373
0.0541291
0.0541204
0.0541115
0.0541026
0.0540938
0.0540853
0.0540773
0.0540699
0.0540632
0.0540572
0.0540522
0.054048
0.0540447
0.054042
0.0540396
0.0540381
)
;
    }
    lowerWall
    {
        type            kqRWallFunction;
        value           nonuniform List<scalar> 
62
(
0.0343831
0.0331888
0.0357358
0.0369882
0.0376862
0.0382623
0.038911
0.0397565
0.0409435
0.0427555
0.045379
0.0475254
0.0494353
0.0504895
0.0498281
0.0484153
0.0461695
0.0430703
0.0402716
0.0380337
0.035981
0.0331905
0.0278081
0.0278081
0.0446625
0.0507749
0.0542546
0.056645
0.0585996
0.0606497
0.064108
0.0723679
0.0654733
0.0606065
0.0596242
0.0279969
0.0464489
0.0503898
0.0520118
0.053042
0.0543789
0.0575379
0.0646439
0.0279969
0.0331306
0.0350823
0.035516
0.0354708
0.0353409
0.035265
0.0351837
0.0351002
0.0350171
0.0349347
0.034853
0.0347717
0.0346862
0.0345821
0.0343944
0.0338664
0.0322053
0.0353259
)
;
    }
    atmosphere
    {
        type            inletOutlet;
        inletValue      uniform 0.1;
        value           nonuniform List<scalar> 
46
(
0.1
0.1
0.1
0.1
0.1
0.1
0.1
0.1
0.1
0.1
0.1
0.1
0.1
0.1
0.1
0.1
0.1
0.1
0.1
0.1
0.0964018
0.0957488
0.0954935
0.0954254
0.0954024
0.0953915
0.0953843
0.0953701
0.0953433
0.0953213
0.0953062
0.095296
0.0952886
0.095283
0.0952784
0.0952743
0.0952692
0.0952595
0.0952341
0.0951641
0.0949788
0.0945192
0.0934251
0.0907419
0.0830989
0.0540381
)
;
    }
    defaultFaces
    {
        type            empty;
    }
}


// ************************************************************************* //
