/*--------------------------------*- C++ -*----------------------------------*\
  =========                 |
  \\      /  F ield         | OpenFOAM: The Open Source CFD Toolbox
   \\    /   O peration     | Website:  https://openfoam.org
    \\  /    A nd           | Version:  9
     \\/     M anipulation  |
\*---------------------------------------------------------------------------*/
FoamFile
{
    format      ascii;
    class       volScalarField;
    location    "0.05";
    object      nut;
}
// * * * * * * * * * * * * * * * * * * * * * * * * * * * * * * * * * * * * * //

dimensions      [0 2 -1 0 0 0 0];

internalField   nonuniform List<scalar> 
2268
(
0.000151626
0.000112218
0.000118517
0.00012178
0.000123607
0.000125023
0.000126537
0.000128462
0.000131093
0.000134903
0.000140085
0.000144594
0.000146622
0.000147979
0.000149324
0.000146322
0.000144086
0.000138291
0.000131133
0.000124842
0.000119361
0.000112598
9.99038e-05
0.000276025
0.000650827
0.000849018
0.00093676
0.000973882
0.000992571
0.00100783
0.00102718
0.00105558
0.00109848
0.00114862
0.00119098
0.00120399
0.00114571
0.000998258
0.000844635
0.000687737
0.00058539
0.000572205
0.00060315
0.000606455
0.000534325
0.000275982
0.000287412
0.00107069
0.0016279
0.00192293
0.00206189
0.00213135
0.00217926
0.00222968
0.00229549
0.00238338
0.00248177
0.00256443
0.00258771
0.0024435
0.00208493
0.00170779
0.00135488
0.00116841
0.00119114
0.00126577
0.00123818
0.000985609
0.000300879
0.000293018
0.00134979
0.0022979
0.00288271
0.00318479
0.00333688
0.00342945
0.00351067
0.00360363
0.00371587
0.00383445
0.00393184
0.00395316
0.00376304
0.0032676
0.0027041
0.00216467
0.00190701
0.00195644
0.00203636
0.00191519
0.00138617
0.000315706
0.00029624
0.00152655
0.00282019
0.00372227
0.00422774
0.00448815
0.00463475
0.00474419
0.00485294
0.00497216
0.00509136
0.00518861
0.00521203
0.00503276
0.0045206
0.00383067
0.0031574
0.00281821
0.00283998
0.00286384
0.00257993
0.0017152
0.000326114
0.00029821
0.00163583
0.00319934
0.00439799
0.00511794
0.00550027
0.00570672
0.00584241
0.00595958
0.00607605
0.00618657
0.0062783
0.00631057
0.00617414
0.00572045
0.0049596
0.00421507
0.00381534
0.00377425
0.00369313
0.00319574
0.00198041
0.000334617
0.000299494
0.00170238
0.0034599
0.00490631
0.0058261
0.00633008
0.00659737
0.00675769
0.00687957
0.0069893
0.00708832
0.00717377
0.00721822
0.00713469
0.00677827
0.00601694
0.00524232
0.00480674
0.00469038
0.00448032
0.00375302
0.00221021
0.000342943
0.000300432
0.00174257
0.00363149
0.0052681
0.00635696
0.00697084
0.00729482
0.00747752
0.00760236
0.00770451
0.00779261
0.00787345
0.0079328
0.00790532
0.00766439
0.00695636
0.00617592
0.00572418
0.00553659
0.00520108
0.00427158
0.00245934
0.000353832
9.99767e-05
0.000112074
0.000116827
0.000118016
0.000117943
0.000117589
0.000117388
0.000117179
0.00011697
0.000116765
0.000116564
0.000116366
0.000116168
0.000115957
0.000115684
0.000115169
0.000113756
0.000109631
0.000158979
0.000312139
0.000662977
0.000824939
0.000877091
0.00088667
0.000884035
0.000878177
0.000874086
0.000871792
0.00087071
0.000870363
0.000870414
0.000870538
0.000870102
0.000867085
0.000854259
0.000807854
0.000663119
0.000314235
0.000328456
0.00111956
0.00162263
0.00183212
0.00189246
0.00189957
0.00189097
0.00188293
0.00187786
0.00187515
0.00187393
0.00187344
0.00187265
0.00186897
0.00185369
0.0017986
0.00162546
0.00117253
0.000328174
0.000335515
0.00143069
0.00234469
0.00281133
0.00297754
0.00301588
0.00301205
0.00300241
0.00299526
0.00299111
0.00298897
0.00298757
0.00298455
0.002973
0.00293067
0.00279316
0.00241043
0.00155944
0.000334976
0.000340384
0.00162454
0.00293234
0.00371709
0.00403862
0.00413177
0.00414234
0.00413471
0.00412684
0.00412177
0.00411882
0.00411609
0.004109
0.0040834
0.00399652
0.00373708
0.00308644
0.00182811
0.000338881
0.00034725
0.00173724
0.00337904
0.00449402
0.00499799
0.00516304
0.00519646
0.00519452
0.00518747
0.00518213
0.0051785
0.00517395
0.00516071
0.0051148
0.00496793
0.00455933
0.00362099
0.00200336
0.000341204
0.000362114
0.00180203
0.00371762
0.00513202
0.00581424
0.00605509
0.00611549
0.00612174
0.00611681
0.00611175
0.00610756
0.00610072
0.00607955
0.00600859
0.00579242
0.00522547
0.00401544
0.00211256
0.000342586
0.000388526
0.0018807
0.00401981
0.00565821
0.00648016
0.00678493
0.00687059
0.00688557
0.00688337
0.00687897
0.00687427
0.00686481
0.00683467
0.00673651
0.0064493
0.00573194
0.00428971
0.00217795
0.000343413
0.000301351
0.00177627
0.00378922
0.00563163
0.00692273
0.00767603
0.00807219
0.00827965
0.00840125
0.00848544
0.00855295
0.00862526
0.00870893
0.00877766
0.00874885
0.00824561
0.00751838
0.00706916
0.00678479
0.00628371
0.00515024
0.00318346
0.000922327
0.000302325
0.00179589
0.00387572
0.00583579
0.00725271
0.00809838
0.00854328
0.00876596
0.00888284
0.00895407
0.00901239
0.00909493
0.00922912
0.00941806
0.00959501
0.00923953
0.00856043
0.00813045
0.00781195
0.00728835
0.00623102
0.00447725
0.00245244
0.000303176
0.00181052
0.00392079
0.00592446
0.00738574
0.00826272
0.00872183
0.00894548
0.00905621
0.0091209
0.00918089
0.0092848
0.00947393
0.00976911
0.0100777
0.00979457
0.00916753
0.008766
0.0084715
0.00804897
0.00727398
0.00603189
0.00458351
0.000303953
0.00182492
0.00395402
0.00597201
0.00744095
0.00831907
0.00877432
0.00899141
0.00909557
0.00915752
0.00922485
0.00935385
0.00959467
0.0099808
0.0103527
0.010064
0.00947615
0.0091018
0.00885222
0.00856107
0.00808792
0.00737027
0.00656233
0.000304668
0.00183952
0.00398395
0.0060062
0.00746921
0.00833678
0.00878122
0.00898932
0.00908761
0.00914916
0.00922608
0.00937965
0.00966573
0.0101282
0.0105213
0.0101849
0.00961783
0.00926224
0.00905187
0.00886546
0.00861375
0.00826458
0.00789311
0.000305321
0.00185411
0.00401272
0.0060362
0.00748925
0.008343
0.00877507
0.00897428
0.00906784
0.00913036
0.00921722
0.00939296
0.00971737
0.0102431
0.0106432
0.0102443
0.00967927
0.00933191
0.00914598
0.00902425
0.0089014
0.00875448
0.00860869
0.000305916
0.00186847
0.00404066
0.00606464
0.00750717
0.00834703
0.00876726
0.00895854
0.00904848
0.00911269
0.00920893
0.009404
0.00976077
0.0103412
0.0107438
0.0102792
0.00970548
0.00935822
0.0091838
0.00909542
0.00903613
0.00898267
0.00893422
0.000306452
0.00188239
0.00406761
0.00609201
0.00752457
0.00835152
0.00876106
0.00894555
0.00903279
0.00909903
0.00920376
0.00941539
0.00979932
0.0104267
0.0108295
0.0103048
0.00971693
0.00936496
0.00919408
0.00912061
0.00908893
0.0090733
0.00906115
0.000306932
0.00189572
0.00409331
0.00611822
0.00754169
0.00835697
0.00875704
0.00893578
0.00902103
0.00908945
0.00920181
0.00942768
0.00983439
0.0105015
0.0109029
0.0103254
0.00972182
0.00936326
0.00919226
0.00912472
0.00910387
0.00910184
0.00910133
0.000307358
0.00190832
0.00411753
0.00614306
0.00755837
0.00836322
0.008755
0.00892889
0.00901275
0.00908348
0.00920286
0.00944122
0.00986734
0.0105681
0.0109665
0.0103428
0.0097236
0.0093583
0.00918608
0.00912082
0.00910391
0.00910606
0.00910837
0.000307733
0.00192004
0.00414001
0.00616627
0.00757438
0.00837005
0.00875462
0.00892449
0.0090075
0.0090808
0.00920697
0.00945682
0.00990009
0.0106302
0.0110243
0.0103588
0.00972434
0.00935277
0.00917943
0.00911524
0.00909968
0.00910263
0.00910487
0.000308059
0.00193067
0.00416043
0.0061876
0.00758957
0.00837732
0.00875577
0.00892243
0.00900522
0.00908156
0.00921474
0.00947587
0.0099352
0.0106922
0.0110815
0.0103759
0.00972584
0.00934845
0.00917447
0.00911103
0.00909579
0.00909825
0.00909939
0.000308335
0.00193983
0.0041783
0.0062068
0.00760391
0.00838515
0.00875865
0.00892303
0.00900642
0.0090866
0.00922758
0.00950045
0.00997569
0.0107591
0.0111438
0.0103966
0.0097296
0.00934691
0.0091728
0.00910993
0.0090943
0.00909544
0.00909485
0.000308558
0.0019468
0.00419301
0.00622372
0.00761769
0.00839412
0.00876411
0.00892747
0.00901266
0.00909796
0.009248
0.00953342
0.0100245
0.0108345
0.0112137
0.0104196
0.00973558
0.00934949
0.00917613
0.00911337
0.0090963
0.00909512
0.00909206
0.000308751
0.00195129
0.00420456
0.00623872
0.00763168
0.00840548
0.00877398
0.00893827
0.00902725
0.00911962
0.00928032
0.0095788
0.0100842
0.0109176
0.0112774
0.0104338
0.00974029
0.00935722
0.00918654
0.00912292
0.00910266
0.00909761
0.00909105
0.000308988
0.00195565
0.00421387
0.00625224
0.00764699
0.00842132
0.00879148
0.00895998
0.00905614
0.00915861
0.00933181
0.00964287
0.0101587
0.0110069
0.0113
0.0104166
0.00973769
0.00937155
0.00920682
0.00914026
0.0091139
0.0091028
0.00909145
0.000309084
0.00195409
0.00421317
0.00626097
0.00766443
0.00844498
0.00882194
0.00900006
0.00910902
0.00922638
0.00941423
0.0097357
0.0102543
0.0111067
0.0112502
0.0103495
0.00972743
0.00939605
0.00923901
0.00916576
0.00912953
0.00910987
0.00909249
0.000308936
0.00189946
0.00417082
0.00625623
0.00768605
0.0084823
0.00887334
0.00906886
0.00919894
0.00933846
0.00954431
0.00987255
0.0103798
0.0112056
0.0111236
0.0102466
0.00972237
0.00943558
0.00928264
0.00919718
0.00914733
0.00911713
0.00909294
0.000311985
0.00173901
0.00407598
0.00624823
0.00772323
0.00854278
0.00895529
0.00917805
0.00934119
0.00951501
0.00974784
0.010083
0.0105567
0.0112465
0.0109023
0.0101539
0.00974138
0.00948969
0.00933068
0.00922804
0.00916294
0.00912195
0.00909134
0.000322675
0.0016265
0.00405808
0.00630526
0.00780484
0.00863994
0.00907755
0.0093392
0.00955319
0.00978365
0.0100692
0.0104342
0.0108962
0.0110765
0.0105142
0.0100873
0.00977322
0.00953782
0.00936644
0.00924802
0.00917074
0.00912156
0.00908644
0.000330541
0.0020178
0.00437855
0.00649342
0.00792821
0.00873972
0.00917971
0.0094626
0.00970883
0.00996252
0.0102267
0.0104911
0.0106794
0.0105575
0.010312
0.0100385
0.00977387
0.00954698
0.00937191
0.00924832
0.00916677
0.0091144
0.00907782
0.000321708
0.00208416
0.00447171
0.00657204
0.00797379
0.00875601
0.00917121
0.00943047
0.00965097
0.00987468
0.0100901
0.0102592
0.0103362
0.0102978
0.0101545
0.00994069
0.00971014
0.00950434
0.00934307
0.00922815
0.00915132
0.00910112
0.00906618
0.00031877
0.00209073
0.0044907
0.00658298
0.00796462
0.00872296
0.00911176
0.0093397
0.00952164
0.00970049
0.00987288
0.0100081
0.0100766
0.0100581
0.00995064
0.00978008
0.00959265
0.00942379
0.00929038
0.00919404
0.00912823
0.00908404
0.00905296
0.000317008
0.0020915
0.00449193
0.00657657
0.00794546
0.00868709
0.00905453
0.00925454
0.0094007
0.00953693
0.00966617
0.00976913
0.00982066
0.00980477
0.00972233
0.00959508
0.00945591
0.00932996
0.00922919
0.00915483
0.00910239
0.00906586
0.00903968
0.000315661
0.00208856
0.00448493
0.00656324
0.00792386
0.00865404
0.00900495
0.0091815
0.00929633
0.00939462
0.0094839
0.00955305
0.00958556
0.00957091
0.00951217
0.00942482
0.00932966
0.00924266
0.00917159
0.00911745
0.00907766
0.0090487
0.00902747
0.00031447
0.00208335
0.00447281
0.00654548
0.00790082
0.00862348
0.00896235
0.00912078
0.00921086
0.009279
0.00933659
0.00937898
0.00939692
0.00938488
0.00934581
0.00928987
0.00922868
0.00917168
0.00912367
0.00908558
0.00905619
0.00903378
0.00901696
0.000313361
0.002077
0.00445796
0.00652536
0.00787744
0.00859566
0.0089265
0.00907224
0.00914482
0.00919184
0.00922762
0.00925214
0.00926118
0.00925229
0.00922758
0.00919303
0.00915494
0.00911852
0.00908666
0.00906017
0.00903865
0.00902147
0.00900832
0.000312315
0.0020702
0.00444201
0.00650443
0.0078547
0.00857075
0.00889684
0.00903446
0.00909577
0.0091294
0.00915171
0.00916564
0.00916994
0.00916377
0.00914847
0.00912727
0.00910369
0.00908042
0.00905921
0.00904068
0.00902485
0.00901166
0.00900142
0.00031133
0.00206333
0.00442599
0.00648384
0.00783331
0.00854884
0.00887257
0.00900546
0.00906001
0.00908572
0.0091003
0.0091084
0.00911042
0.00910627
0.00909675
0.0090836
0.00906872
0.00905358
0.00903918
0.009026
0.0090142
0.00900401
0.00899603
0.000310409
0.00205665
0.0044105
0.00646427
0.00781368
0.00852982
0.0088528
0.00898321
0.00903396
0.00905521
0.00906554
0.00907061
0.00907162
0.00906886
0.00906283
0.00905446
0.00904477
0.00903462
0.00902459
0.009015
0.00900606
0.00899811
0.00899186
0.000309565
0.00205029
0.0043959
0.00644606
0.00779595
0.00851342
0.00883669
0.00896605
0.00901478
0.00903361
0.0090417
0.00904523
0.00904587
0.00904406
0.00904015
0.00903464
0.00902812
0.00902109
0.00901389
0.00900675
0.00899986
0.00899358
0.00898865
0.000308795
0.00204433
0.00438233
0.00642937
0.00778012
0.00849937
0.00882355
0.00895271
0.00900049
0.00901805
0.00902497
0.00902776
0.00902831
0.00902716
0.00902457
0.00902084
0.00901631
0.00901127
0.00900596
0.00900052
0.00899512
0.0089901
0.00898617
0.000308095
0.00203878
0.00436986
0.00641426
0.00776613
0.0084874
0.00881285
0.0089423
0.00898972
0.00900667
0.00901301
0.00901545
0.00901603
0.00901535
0.00901361
0.00901102
0.00900777
0.00900406
0.00900004
0.0089958
0.00899149
0.00898743
0.00898427
0.000307458
0.00203361
0.00435848
0.00640072
0.00775392
0.00847734
0.00880423
0.00893422
0.00898162
0.0089983
0.00900435
0.00900665
0.00900731
0.00900696
0.00900579
0.00900395
0.00900156
0.00899875
0.00899562
0.00899224
0.00898874
0.0089854
0.00898281
0.000306883
0.00202887
0.00434832
0.00638899
0.00774372
0.00846926
0.00879758
0.00892819
0.00897571
0.0089923
0.00899822
0.00900046
0.00900121
0.00900109
0.00900031
0.00899896
0.00899714
0.00899494
0.00899242
0.00898965
0.00898671
0.00898389
0.0089817
0.000306374
0.0020247
0.00434
0.00638011
0.00773654
0.00846389
0.00879331
0.00892439
0.008972
0.00898854
0.00899439
0.00899661
0.00899742
0.00899746
0.00899692
0.00899589
0.00899443
0.0089926
0.00899045
0.00898802
0.00898541
0.00898288
0.00898093
0.000305945
0.00202176
0.0043359
0.00637764
0.00773564
0.00846348
0.00879281
0.00892367
0.00897111
0.00898751
0.00899328
0.00899546
0.00899629
0.00899642
0.00899602
0.00899517
0.00899389
0.00899221
0.00899013
0.0089877
0.00898504
0.00898247
0.0089805
0.000305677
0.00202279
0.00434454
0.00639272
0.00775001
0.0084736
0.00879923
0.00892798
0.00897443
0.00899041
0.00899599
0.0089981
0.00899893
0.00899909
0.00899876
0.00899797
0.00899671
0.00899491
0.00899252
0.00898953
0.00898615
0.00898294
0.00898052
0.000306103
0.00203921
0.00439483
0.00645694
0.00780148
0.00850589
0.00881817
0.00894018
0.0089838
0.00899873
0.00900395
0.00900596
0.00900677
0.00900697
0.00900669
0.00900593
0.00900458
0.00900244
0.00899925
0.00899485
0.00898961
0.00898469
0.00898111
0.00031067
0.002117
0.00457852
0.00665072
0.00793531
0.00857984
0.00885658
0.00896235
0.00899968
0.00901244
0.00901701
0.00901887
0.00901973
0.00902005
0.00901993
0.00901929
0.00901795
0.00901547
0.0090112
0.00900459
0.00899605
0.00898799
0.00898227
0.000335845
0.00243164
0.00516482
0.00714619
0.00822231
0.00871613
0.00891673
0.00899097
0.00901684
0.00902581
0.00902925
0.00903087
0.00903181
0.00903234
0.00903253
0.00903228
0.00903133
0.00902908
0.00902444
0.00901614
0.00900426
0.00899214
0.00898365
0.000421978
0.0037587
0.00689264
0.00819772
0.00870868
0.00890873
0.00898405
0.00901102
0.00902042
0.00902385
0.00902535
0.00902622
0.00902683
0.00902727
0.00902757
0.00902766
0.00902742
0.00902644
0.0090238
0.00901774
0.00900936
0.00899504
0.00898451
0.000382044
0.000363935
0.000346465
0.000338373
0.00182439
0.00178137
0.00187343
0.00207187
0.00411425
0.00402891
0.00410758
0.0043201
0.00627569
0.00619288
0.00622211
0.0063536
0.00774768
0.00769524
0.00769728
0.00775415
0.0085433
0.00851341
0.00850384
0.00851799
0.00890356
0.00888374
0.00886917
0.00886389
0.00904267
0.00902625
0.00900957
0.00899674
0.00908629
0.00907082
0.00905348
0.00903822
0.00909396
0.00907878
0.00906145
0.00904574
0.00909027
0.00907522
0.00905814
0.00904263
0.00908431
0.0090693
0.00905249
0.00903732
0.00907904
0.00906394
0.00904732
0.00903244
0.00907519
0.00905984
0.00904327
0.00902859
0.00907272
0.00905694
0.00904031
0.00902575
0.00907126
0.00905491
0.00903815
0.00902366
0.00907018
0.00905321
0.00903634
0.00902199
0.00906858
0.00905115
0.00903438
0.00902035
0.00906553
0.00904806
0.00903178
0.00901838
0.00906033
0.00904348
0.00902822
0.00901584
0.00905286
0.00903736
0.00902365
0.00901266
0.00904366
0.00903008
0.00901834
0.009009
0.00903368
0.00902234
0.00901271
0.00900511
0.00902388
0.00901479
0.00900722
0.00900127
0.00901497
0.00900794
0.00900219
0.00899769
0.00900732
0.00900202
0.0089978
0.00899449
0.009001
0.00899711
0.00899408
0.00899172
0.00899594
0.00899311
0.00899099
0.00898934
0.00899194
0.00898992
0.00898846
0.00898733
0.00898881
0.00898737
0.00898639
0.00898563
0.00898636
0.00898534
0.0089847
0.00898418
0.00898445
0.00898372
0.00898331
0.00898296
0.00898295
0.00898242
0.00898216
0.00898193
0.00898177
0.00898139
0.00898122
0.00898106
0.00898086
0.00898056
0.00898045
0.00898033
0.00898019
0.00897993
0.00897984
0.00897973
0.00897974
0.00897947
0.00897936
0.00897924
0.00897956
0.00897918
0.00897899
0.00897881
0.00897965
0.00897904
0.00897867
0.00897839
0.00897996
0.00897895
0.00897832
0.00897786
0.00898026
0.00897878
0.00897782
0.00897717
0.00898033
0.00897849
0.0089773
0.00897651
0.000876492
0.00245558
0.00463425
0.00640067
0.00733996
0.00771164
0.00782821
0.00785563
0.00785803
0.00785497
0.00784953
0.00783552
0.00779002
0.00764724
0.00724986
0.00631668
0.00457657
0.00223659
0.000344192
0.00283587
0.00428977
0.00599405
0.00732883
0.00806784
0.00837943
0.00848433
0.00851169
0.00851536
0.00851281
0.00850635
0.00848767
0.0084274
0.00824427
0.00775462
0.00665831
0.00472332
0.00226132
0.000344666
0.00496445
0.00608046
0.0072196
0.00805914
0.00852197
0.00872121
0.00878966
0.00880728
0.00880883
0.00880571
0.00879827
0.00877659
0.00870766
0.00850223
0.00796481
0.00679097
0.00477386
0.00226829
0.000344943
0.00674608
0.00743681
0.00808634
0.00853916
0.00878261
0.00888584
0.00891976
0.00892673
0.00892532
0.00892126
0.00891306
0.00888974
0.00881652
0.00860072
0.00804229
0.00683664
0.00478899
0.00226952
0.000345143
0.00793703
0.00828351
0.0085982
0.00880852
0.00891702
0.00895998
0.00897137
0.00897104
0.00896748
0.00896272
0.00895405
0.00892992
0.0088548
0.00863463
0.00806779
0.0068502
0.00479216
0.00226896
0.00034531
0.00858169
0.00872504
0.00885526
0.00893866
0.00897802
0.00899016
0.00899
0.00898596
0.00898136
0.00897629
0.00896742
0.00894293
0.00886699
0.008645
0.00807483
0.00685283
0.00479146
0.0022678
0.000345457
0.00887348
0.00892048
0.00896551
0.00899206
0.00900119
0.00900019
0.00899534
0.00898997
0.00898512
0.00898005
0.00897116
0.00894654
0.00887021
0.00864737
0.00807569
0.00685186
0.00478945
0.0022664
0.000345588
0.00898533
0.00899339
0.00900453
0.00900912
0.00900709
0.00900166
0.00899554
0.00899008
0.0089854
0.00898049
0.00897169
0.00894704
0.00887049
0.00864712
0.00807452
0.00684965
0.00478692
0.00226487
0.000345701
0.00901983
0.00901422
0.00901375
0.00901129
0.00900614
0.00899988
0.00899392
0.00898884
0.00898451
0.00897985
0.00897117
0.00894653
0.00886983
0.00864602
0.00807264
0.00684694
0.00478411
0.00226323
0.000345797
0.00902562
0.00901602
0.00901237
0.00900837
0.00900298
0.00899714
0.00899177
0.00898721
0.00898326
0.00897885
0.00897032
0.00894571
0.00886885
0.00864461
0.00807048
0.00684398
0.00478111
0.00226151
0.000345876
0.00902252
0.00901218
0.00900812
0.00900429
0.00899947
0.00899433
0.00898958
0.00898552
0.00898192
0.00897776
0.00896937
0.00894478
0.00886778
0.0086431
0.0080682
0.00684087
0.00477798
0.00225974
0.000345939
0.00901766
0.00900748
0.00900372
0.00900041
0.00899624
0.00899173
0.00898753
0.0089839
0.00898062
0.00897667
0.00896841
0.00894385
0.00886668
0.00864156
0.00806585
0.00683768
0.00477477
0.00225793
0.000345985
0.00901323
0.00900336
0.00899994
0.00899707
0.00899342
0.00898943
0.00898568
0.0089824
0.00897939
0.00897563
0.00896749
0.00894294
0.00886561
0.00864002
0.00806348
0.00683445
0.00477153
0.00225612
0.000346015
0.00900974
0.00900009
0.00899686
0.00899429
0.00899101
0.00898741
0.00898402
0.00898103
0.00897826
0.00897467
0.00896663
0.00894208
0.00886459
0.00863852
0.00806114
0.00683123
0.00476829
0.00225431
0.00034603
0.00900715
0.0089976
0.00899442
0.00899198
0.00898895
0.00898564
0.00898253
0.0089798
0.00897723
0.00897379
0.00896584
0.00894129
0.00886362
0.00863708
0.00805886
0.00682806
0.0047651
0.00225254
0.000346032
0.00900528
0.00899574
0.00899248
0.00899006
0.00898718
0.0089841
0.00898122
0.0089787
0.0089763
0.00897299
0.00896513
0.00894057
0.00886272
0.00863571
0.00805666
0.00682499
0.004762
0.00225083
0.000346021
0.00900393
0.00899436
0.00899092
0.00898844
0.00898564
0.00898273
0.00898005
0.00897772
0.00897548
0.00897229
0.0089645
0.00893993
0.00886191
0.00863443
0.00805457
0.00682204
0.00475902
0.00224918
0.000345999
0.00900283
0.00899331
0.00898965
0.00898705
0.00898429
0.00898153
0.00897902
0.00897685
0.00897475
0.00897168
0.00896394
0.00893936
0.00886117
0.00863325
0.0080526
0.00681924
0.00475618
0.00224762
0.000345967
0.00900177
0.00899244
0.00898856
0.00898583
0.0089831
0.00898046
0.00897811
0.00897609
0.00897412
0.00897114
0.00896347
0.00893887
0.00886052
0.00863217
0.00805076
0.00681662
0.00475351
0.00224617
0.000345926
0.00900056
0.00899162
0.00898758
0.00898472
0.00898202
0.0089795
0.0089773
0.00897542
0.00897357
0.00897069
0.00896307
0.00893845
0.00885993
0.00863117
0.00804905
0.00681416
0.00475102
0.00224481
0.000345878
0.00899912
0.00899077
0.00898665
0.00898369
0.00898103
0.00897864
0.00897659
0.00897484
0.0089731
0.0089703
0.00896272
0.00893807
0.00885939
0.00863021
0.0080474
0.0068118
0.00474866
0.00224356
0.000345824
0.00899745
0.00898985
0.00898573
0.00898273
0.00898013
0.00897786
0.00897595
0.00897433
0.00897269
0.00896996
0.0089624
0.00893769
0.0088588
0.00862916
0.00804559
0.00680926
0.00474615
0.00224224
0.000345771
0.00899562
0.00898885
0.00898481
0.00898181
0.00897929
0.00897716
0.00897538
0.00897389
0.00897234
0.00896967
0.00896212
0.00893733
0.00885814
0.00862788
0.00804332
0.00680593
0.00474263
0.0022402
0.000345745
0.00899374
0.0089878
0.00898389
0.00898094
0.00897853
0.00897652
0.00897488
0.0089735
0.00897204
0.00896943
0.00896189
0.008937
0.00885752
0.00862663
0.00804104
0.00680257
0.0047391
0.0022382
0.000345716
0.00899188
0.00898672
0.00898299
0.00898012
0.00897782
0.00897595
0.00897444
0.00897316
0.00897179
0.00896923
0.00896169
0.00893671
0.00885697
0.0086255
0.00803897
0.00679953
0.00473592
0.00223644
0.000345681
0.0089901
0.00898563
0.00898209
0.00897934
0.00897716
0.00897543
0.00897404
0.00897286
0.00897157
0.00896905
0.00896153
0.00893648
0.00885651
0.00862454
0.00803721
0.00679694
0.00473324
0.00223497
0.000345643
0.00898844
0.00898455
0.00898123
0.00897861
0.00897657
0.00897496
0.00897369
0.0089726
0.00897138
0.00896891
0.00896139
0.00893629
0.00885614
0.00862377
0.00803578
0.00679484
0.00473108
0.0022338
0.000345602
0.00898692
0.00898352
0.00898041
0.00897794
0.00897603
0.00897454
0.00897337
0.00897237
0.00897121
0.00896878
0.00896128
0.00893614
0.00885586
0.00862318
0.0080347
0.00679325
0.00472943
0.00223292
0.000345559
0.00898554
0.00898253
0.00897964
0.00897731
0.00897553
0.00897417
0.0089731
0.00897217
0.00897106
0.00896867
0.00896119
0.00893604
0.00885566
0.00862278
0.00803395
0.00679214
0.00472829
0.00223232
0.000345515
0.00898429
0.00898161
0.00897891
0.00897674
0.00897509
0.00897383
0.00897285
0.00897199
0.00897093
0.00896858
0.00896112
0.00893596
0.00885554
0.00862254
0.00803351
0.00679149
0.00472763
0.00223199
0.000345472
0.00898316
0.00898076
0.00897825
0.00897622
0.00897469
0.00897353
0.00897262
0.00897183
0.00897081
0.0089685
0.00896106
0.00893592
0.00885549
0.00862246
0.00803336
0.00679127
0.00472743
0.00223192
0.000345429
0.00898217
0.00897998
0.00897765
0.00897576
0.00897434
0.00897327
0.00897243
0.00897168
0.00897071
0.00896842
0.00896101
0.0089359
0.00885551
0.00862254
0.0080335
0.00679146
0.00472764
0.00223207
0.000345388
0.00898129
0.00897928
0.00897711
0.00897534
0.00897402
0.00897303
0.00897225
0.00897155
0.00897061
0.00896835
0.00896097
0.00893591
0.00885559
0.00862274
0.00803388
0.00679203
0.00472824
0.00223244
0.00034535
0.00898052
0.00897866
0.00897663
0.00897498
0.00897375
0.00897282
0.00897209
0.00897143
0.00897052
0.00896829
0.00896095
0.00893594
0.00885573
0.00862307
0.0080345
0.00679293
0.00472918
0.002233
0.000345315
0.00897986
0.00897812
0.00897621
0.00897466
0.0089735
0.00897263
0.00897195
0.00897132
0.00897044
0.00896824
0.00896093
0.00893599
0.00885592
0.00862351
0.00803532
0.00679412
0.00473043
0.00223372
0.000345283
0.00897929
0.00897764
0.00897585
0.00897438
0.00897329
0.00897247
0.00897182
0.00897122
0.00897037
0.00896819
0.00896092
0.00893605
0.00885615
0.00862405
0.00803631
0.00679556
0.00473193
0.00223458
0.000345256
0.00897879
0.00897722
0.00897551
0.00897413
0.00897309
0.00897232
0.0089717
0.00897113
0.0089703
0.00896815
0.00896092
0.00893614
0.00885641
0.00862466
0.00803744
0.00679721
0.00473363
0.00223555
0.000345232
0.00897832
0.00897679
0.00897517
0.00897386
0.00897289
0.00897216
0.00897158
0.00897104
0.00897023
0.0089681
0.00896092
0.00893623
0.00885671
0.00862532
0.00803867
0.00679898
0.00473546
0.00223658
0.000345213
0.0089778
0.0089763
0.00897477
0.00897355
0.00897265
0.00897197
0.00897144
0.00897093
0.00897015
0.00896805
0.00896091
0.00893633
0.00885701
0.00862602
0.00803994
0.0068008
0.0047373
0.0022376
0.000345198
0.00897712
0.00897567
0.00897425
0.00897314
0.00897233
0.00897173
0.00897125
0.00897078
0.00897004
0.00896798
0.0089609
0.00893641
0.0088573
0.0086267
0.00804118
0.00680255
0.00473902
0.00223852
0.000345186
0.00897627
0.00897488
0.00897362
0.00897265
0.00897195
0.00897143
0.00897102
0.0089706
0.0089699
0.00896789
0.00896086
0.00893647
0.00885754
0.00862728
0.00804228
0.00680413
0.0047406
0.00223935
0.000345175
0.0089755
0.0089742
0.00897308
0.00897223
0.00897162
0.00897118
0.00897082
0.00897045
0.00896979
0.00896781
0.00896082
0.00893649
0.00885769
0.00862766
0.00804304
0.00680533
0.00474201
0.00224029
0.000345167
)
;

boundaryField
{
    leftWall
    {
        type            nutkWallFunction;
        Cmu             0.09;
        kappa           0.41;
        E               9.8;
        value           nonuniform List<scalar> 
50
(
2.92048e-05
3.30467e-05
3.40143e-05
3.44683e-05
3.47188e-05
3.48649e-05
3.49561e-05
3.50207e-05
3.50849e-05
3.51529e-05
3.5213e-05
3.52681e-05
3.53187e-05
3.53649e-05
3.54067e-05
3.54444e-05
3.5478e-05
3.55078e-05
3.55339e-05
3.55566e-05
3.55761e-05
3.55919e-05
3.56051e-05
3.5621e-05
3.5633e-05
3.56147e-05
3.58444e-05
3.87499e-05
3.96669e-05
3.87366e-05
3.84383e-05
3.82653e-05
3.81364e-05
3.80234e-05
3.79191e-05
3.78214e-05
3.77298e-05
3.76447e-05
3.75665e-05
3.74951e-05
3.74301e-05
3.73712e-05
3.73183e-05
3.72716e-05
3.72317e-05
3.72035e-05
3.72227e-05
3.75561e-05
3.97829e-05
4.9811e-05
)
;
    }
    rightWall
    {
        type            nutkWallFunction;
        Cmu             0.09;
        kappa           0.41;
        E               9.8;
        value           nonuniform List<scalar> 
50
(
3.34038e-05
3.95857e-05
4.11447e-05
4.18584e-05
4.225e-05
4.24712e-05
4.25959e-05
4.26673e-05
4.2732e-05
4.27717e-05
4.27963e-05
4.2815e-05
4.28312e-05
4.28458e-05
4.28589e-05
4.28704e-05
4.28805e-05
4.28889e-05
4.28959e-05
4.29013e-05
4.29052e-05
4.29078e-05
4.2909e-05
4.29091e-05
4.29081e-05
4.2906e-05
4.29032e-05
4.28996e-05
4.28953e-05
4.28909e-05
4.28888e-05
4.28863e-05
4.28833e-05
4.288e-05
4.28763e-05
4.28724e-05
4.28684e-05
4.28643e-05
4.28604e-05
4.28566e-05
4.2853e-05
4.28496e-05
4.28466e-05
4.2844e-05
4.28417e-05
4.28398e-05
4.28383e-05
4.28371e-05
4.2836e-05
4.28353e-05
)
;
    }
    lowerWall
    {
        type            nutkWallFunction;
        Cmu             0.09;
        kappa           0.41;
        E               9.8;
        value           nonuniform List<scalar> 
62
(
1.46117e-05
1.43721e-05
1.48775e-05
1.51187e-05
1.52512e-05
1.53595e-05
1.54804e-05
1.56364e-05
1.58522e-05
1.61751e-05
1.66294e-05
1.69905e-05
1.73043e-05
1.74766e-05
1.73978e-05
1.76906e-05
1.74823e-05
1.48201e-05
1.12661e-05
9.83911e-06
9.18442e-06
8.40426e-06
6.80076e-06
6.80076e-06
3.38899e-05
3.65822e-05
3.80336e-05
3.90004e-05
3.97739e-05
4.05698e-05
4.18787e-05
4.51146e-05
4.2636e-05
4.07965e-05
4.04152e-05
6.85958e-06
3.92757e-05
4.1162e-05
4.19141e-05
4.2385e-05
4.29884e-05
4.43818e-05
4.7366e-05
6.85958e-06
8.38682e-06
8.93159e-06
9.05027e-06
9.03794e-06
9.00245e-06
8.98168e-06
8.9594e-06
8.93651e-06
8.91367e-06
8.89099e-06
8.8685e-06
8.84606e-06
8.82244e-06
8.79366e-06
8.74161e-06
8.59431e-06
8.12213e-06
8.99834e-06
)
;
    }
    atmosphere
    {
        type            calculated;
        value           nonuniform List<scalar> 
46
(
0.009
0.009
0.009
0.009
0.009
0.009
0.009
0.009
0.009
0.009
0.009
0.009
0.009
0.009
0.009
0.009
0.009
0.009
0.009
0.009
0.00900936
0.00899504
0.00898451
0.00898033
0.00897849
0.0089773
0.00897651
0.0089755
0.0089742
0.00897308
0.00897223
0.00897162
0.00897118
0.00897082
0.00897045
0.00896979
0.00896781
0.00896082
0.00893649
0.00885769
0.00862766
0.00804304
0.00680533
0.00474201
0.00224029
0.000345167
)
;
    }
    defaultFaces
    {
        type            empty;
    }
}


// ************************************************************************* //
