/*--------------------------------*- C++ -*----------------------------------*\
  =========                 |
  \\      /  F ield         | OpenFOAM: The Open Source CFD Toolbox
   \\    /   O peration     | Website:  https://openfoam.org
    \\  /    A nd           | Version:  9
     \\/     M anipulation  |
\*---------------------------------------------------------------------------*/
FoamFile
{
    format      ascii;
    class       volScalarField;
    location    "0.05";
    object      nut;
}
// * * * * * * * * * * * * * * * * * * * * * * * * * * * * * * * * * * * * * //

dimensions      [0 2 -1 0 0 0 0];

internalField   nonuniform List<scalar> 
2268
(
0.000150234
0.000108637
0.00011301
0.000115001
0.00011621
0.000117243
0.000118437
0.000120811
0.000128037
0.000148636
0.000183403
0.000206118
0.000200588
0.000175881
0.000163814
0.0001531
0.000145189
0.000139775
0.00013576
0.0001319
0.000126663
0.000117681
0.000101476
0.000276179
0.000603541
0.000724599
0.000760376
0.000763774
0.000751134
0.000723065
0.000672046
0.000584386
0.000478667
0.000481675
0.000773045
0.00121288
0.0013578
0.00135913
0.00122652
0.00113751
0.00107597
0.00102974
0.000971544
0.000860941
0.000641889
0.000277123
0.000290928
0.00106636
0.00145614
0.00159951
0.00163298
0.00161411
0.00155348
0.00143712
0.00124727
0.00101339
0.000916736
0.00129007
0.00227094
0.00279249
0.00289389
0.00267715
0.00248674
0.00232817
0.00217516
0.00195944
0.00158974
0.00100178
0.000291285
0.000299015
0.00142821
0.00217567
0.00250393
0.00260543
0.00259521
0.00250882
0.00233634
0.00206392
0.00173614
0.0015726
0.00205286
0.00345951
0.00417097
0.00431501
0.00409075
0.0038422
0.00359224
0.00329851
0.00285483
0.0021545
0.00121395
0.000298801
0.000303937
0.00168818
0.00281333
0.00338653
0.003597
0.00361694
0.00352035
0.00331417
0.00299549
0.00262715
0.00246402
0.00304571
0.00457127
0.00544682
0.00555497
0.00534851
0.00507136
0.00474337
0.0042963
0.00359466
0.00255831
0.0013352
0.000306511
0.000306964
0.00186412
0.003334
0.00418054
0.00453363
0.0046075
0.00452109
0.00430865
0.00398461
0.00363112
0.00352546
0.00417943
0.00567827
0.0065939
0.00661525
0.00641049
0.00611605
0.00572454
0.0051334
0.00418417
0.00284238
0.00139944
0.000319163
0.000308813
0.00197809
0.00373198
0.00484728
0.00536176
0.00550988
0.00545396
0.00526081
0.00496599
0.00466768
0.00464314
0.00532426
0.00673425
0.00760446
0.00750077
0.00727177
0.00696264
0.0065257
0.00582243
0.00467269
0.00307153
0.00143453
0.000339628
0.000309963
0.00204926
0.00401958
0.0053743
0.00605183
0.00628667
0.00627694
0.00612198
0.00587838
0.00565352
0.00570357
0.00637082
0.00766983
0.0084663
0.00821586
0.00794515
0.00762418
0.00716535
0.00640192
0.00513563
0.00335386
0.00152546
0.000363693
9.87393e-05
0.000110058
0.000114708
0.000116482
0.000117206
0.000117551
0.000117802
0.000117875
0.000117842
0.000117748
0.000117619
0.000117468
0.000117307
0.000117125
0.000116873
0.00011633
0.000114761
0.00011034
0.000159277
0.000310686
0.000647389
0.000793452
0.000852199
0.000877485
0.000889381
0.000894113
0.000896805
0.000898473
0.000899553
0.00090029
0.000900782
0.000901022
0.000900464
0.000896869
0.000881857
0.000829119
0.000671988
0.00031432
0.000331176
0.00116641
0.00161675
0.00180701
0.00188289
0.0019141
0.00192595
0.00193183
0.00193511
0.001937
0.00193807
0.00193845
0.00193766
0.00193297
0.0019144
0.00185009
0.0016563
0.00117425
0.000327667
0.000341454
0.00158414
0.00243652
0.00283003
0.00298579
0.00304493
0.003066
0.00307516
0.00307976
0.00308217
0.00308324
0.0030829
0.00307925
0.00306458
0.00301352
0.00285524
0.00243444
0.00154568
0.000334034
0.00034858
0.00190597
0.0031852
0.00382766
0.00408661
0.00418114
0.00421312
0.00422542
0.00423091
0.00423345
0.00423412
0.00423223
0.00422325
0.00419113
0.00408781
0.00379402
0.00309088
0.00179777
0.000337632
0.000355312
0.00216871
0.00384233
0.00473618
0.00510476
0.00523716
0.00528049
0.00529554
0.00530142
0.00530368
0.00530352
0.00529916
0.00528223
0.00522546
0.00505353
0.00459799
0.00359943
0.00195896
0.000339743
0.000364648
0.00242862
0.00442744
0.00552763
0.00598999
0.00615528
0.0062085
0.00622563
0.00623146
0.00623312
0.00623177
0.00622414
0.00619715
0.00611072
0.00586128
0.00523792
0.00396702
0.00205741
0.000340978
0.000386265
0.00277113
0.00498493
0.00620222
0.00672184
0.00690838
0.0069682
0.00698648
0.00699192
0.00699281
0.00699005
0.00697869
0.00694055
0.00682258
0.00649531
0.0057158
0.00421724
0.00211504
0.000341706
0.000311115
0.00211563
0.00433343
0.00601081
0.0069397
0.00732778
0.00741475
0.00734755
0.00721226
0.00711482
0.0072501
0.00783924
0.00893305
0.00949768
0.00900618
0.00866607
0.00834385
0.00789805
0.00713937
0.00586591
0.00405976
0.00218227
0.000864774
0.000311777
0.00213917
0.00449142
0.00639014
0.00752323
0.00805375
0.00823952
0.00826169
0.00822765
0.00823297
0.00841271
0.00891653
0.00983335
0.010257
0.0095841
0.00915492
0.00884833
0.00850349
0.00795685
0.00706336
0.00579186
0.00437566
0.00323353
0.000312013
0.00213801
0.00453758
0.00654033
0.00778633
0.00840586
0.00865889
0.00874273
0.00877528
0.00884356
0.0090467
0.00949643
0.0103
0.0106196
0.00986734
0.00938143
0.00909229
0.00885071
0.00852498
0.00801872
0.00729901
0.00645955
0.00572058
0.000311996
0.00212678
0.00453438
0.00657853
0.00787901
0.00854595
0.00883653
0.00895469
0.00902357
0.00912634
0.0093443
0.00976809
0.0105117
0.010773
0.0100022
0.00948317
0.00920085
0.009026
0.00884864
0.00860168
0.00826021
0.00785719
0.00748951
0.000311873
0.00211257
0.00451273
0.00656949
0.00789402
0.00858415
0.00889347
0.00902848
0.00911533
0.00923644
0.00946534
0.00988124
0.0106004
0.0108426
0.0100745
0.00953324
0.00924664
0.00910309
0.00900384
0.00889445
0.00875505
0.00859371
0.00844386
0.000311725
0.00209843
0.00448632
0.00654409
0.00787883
0.00858022
0.00889856
0.00904136
0.00913679
0.00926801
0.00950594
0.00992382
0.0106391
0.0108865
0.0101245
0.00956435
0.00926625
0.00913162
0.00906616
0.00901831
0.00896891
0.00891551
0.00886373
0.000311581
0.00208544
0.00446057
0.00651539
0.00785471
0.00856211
0.0088851
0.00903154
0.00913114
0.0092684
0.00951402
0.00993826
0.010659
0.0109229
0.0101664
0.00958885
0.00927613
0.00913926
0.00908524
0.00906118
0.00904639
0.00903384
0.00901863
0.000311452
0.0020739
0.00443725
0.00648827
0.00783012
0.00854144
0.00886727
0.00901562
0.00911739
0.00925853
0.00951057
0.00994236
0.0106717
0.0109551
0.0102039
0.00961062
0.0092829
0.00913933
0.00908711
0.00907081
0.00906768
0.00906851
0.00906493
0.000311337
0.00206377
0.00441676
0.0064642
0.00780794
0.00852237
0.00885036
0.00899992
0.00910292
0.00924666
0.00950396
0.00994299
0.0106809
0.0109832
0.0102376
0.00963083
0.00928911
0.00913758
0.00908349
0.00906891
0.0090691
0.00907365
0.0090732
0.000311237
0.00205493
0.00439895
0.00644335
0.00778882
0.00850603
0.00883591
0.0089864
0.00909017
0.00923574
0.00949732
0.00994286
0.0106883
0.0110079
0.0102685
0.00965016
0.00929582
0.00913637
0.00907923
0.00906423
0.00906496
0.00907022
0.00907039
0.00031115
0.00204725
0.00438355
0.00642543
0.00777259
0.00849242
0.00882406
0.00897539
0.00907972
0.0092267
0.00949194
0.00994343
0.0106957
0.0110309
0.0102978
0.00966952
0.00930377
0.00913678
0.00907625
0.00906009
0.00906042
0.00906546
0.00906555
0.000311076
0.00204061
0.00437028
0.00641008
0.00775889
0.00848119
0.00881454
0.00896668
0.00907155
0.00921983
0.0094886
0.00994599
0.0107052
0.0110549
0.0103277
0.00969009
0.00931371
0.00913955
0.00907553
0.0090578
0.00905725
0.00906167
0.00906137
0.000311017
0.00203492
0.00435889
0.00639697
0.00774737
0.00847202
0.00880702
0.00896003
0.00906558
0.00921542
0.00948811
0.00995206
0.0107192
0.0110835
0.0103606
0.00971322
0.00932652
0.00914544
0.00907778
0.00905806
0.00905614
0.00905952
0.00905855
0.00031098
0.00203015
0.00434926
0.00638586
0.00773777
0.00846465
0.0088013
0.00895534
0.0090619
0.00921395
0.00949157
0.00996348
0.0107407
0.0111206
0.0103985
0.00973982
0.00934301
0.00915538
0.00908388
0.00906153
0.00905751
0.00905924
0.00905715
0.000310979
0.00202636
0.00434135
0.00637664
0.00772996
0.00845904
0.00879746
0.00895282
0.00906103
0.00921636
0.00950045
0.00998216
0.0107722
0.0111684
0.0104409
0.00976918
0.00936359
0.00917046
0.0090949
0.00906891
0.0090617
0.0090609
0.00905708
0.000311057
0.00202372
0.00433513
0.00636917
0.00772397
0.00845543
0.00879599
0.00895333
0.00906425
0.00922438
0.00951662
0.0100094
0.0108147
0.0112224
0.0104813
0.00979763
0.00938781
0.00919188
0.0091121
0.00908097
0.00906898
0.00906445
0.00905813
0.000311288
0.00202191
0.00432981
0.00636301
0.00771991
0.00845451
0.00879822
0.00895896
0.00907444
0.00924133
0.00954249
0.0100449
0.0108659
0.0112661
0.0105043
0.00981788
0.00941455
0.00922095
0.00913673
0.00909826
0.00907936
0.00906963
0.00905994
0.000311322
0.00201794
0.00432316
0.00635749
0.00771834
0.00845799
0.00880714
0.00897419
0.00909755
0.00927365
0.00958247
0.0100871
0.0109141
0.0112725
0.0104859
0.00982107
0.0094433
0.00925922
0.00916949
0.00912058
0.00909228
0.0090758
0.00906194
0.000310377
0.00201709
0.00431923
0.00635481
0.00772159
0.0084697
0.0088288
0.00900753
0.00914431
0.00933295
0.00964618
0.0101398
0.0109469
0.0112003
0.0104051
0.00980481
0.00947747
0.00930724
0.00920879
0.009146
0.00910615
0.00908179
0.00906333
0.000311348
0.00201805
0.00431276
0.00635019
0.0077284
0.00849243
0.00886974
0.00906901
0.00922767
0.00943388
0.00974755
0.0102074
0.010941
0.0110284
0.0102614
0.00978435
0.00952285
0.0093621
0.00924957
0.00917038
0.00911828
0.00908601
0.00906317
0.000315988
0.00199265
0.00427097
0.00632271
0.00772912
0.00852462
0.00893389
0.00916629
0.0093582
0.00959191
0.00991252
0.0103119
0.0107964
0.0106752
0.0101151
0.00979333
0.00958141
0.00941419
0.0092827
0.0091878
0.00912536
0.00908678
0.00906065
0.000319029
0.00188285
0.00414837
0.00623818
0.00770186
0.00855512
0.00901835
0.00930311
0.00954743
0.00983754
0.0102349
0.0106261
0.0107212
0.0103717
0.0100572
0.00984148
0.00963248
0.00944479
0.00929693
0.00919249
0.00912475
0.00908302
0.00905543
0.000316423
0.00171367
0.00394847
0.00608699
0.00762242
0.00854675
0.00907156
0.00940698
0.00968366
0.00996411
0.0102983
0.01056
0.010426
0.0102305
0.0100594
0.00985338
0.00962939
0.00943338
0.00928453
0.00918189
0.0091158
0.00907479
0.00904781
0.000313329
0.00168726
0.00385256
0.00597801
0.00753515
0.00848715
0.00902842
0.00936167
0.00961294
0.00983338
0.0100284
0.0101627
0.0101767
0.0101129
0.00996936
0.00976582
0.00955649
0.00938012
0.00924887
0.00915891
0.00910043
0.00906334
0.00903864
0.000311561
0.00173497
0.00386997
0.00595336
0.00749181
0.00843608
0.00896575
0.0092757
0.0094907
0.00966422
0.00980576
0.00990928
0.00994754
0.00990354
0.0097785
0.00961034
0.00944368
0.00930501
0.00920166
0.00912986
0.00908195
0.00905046
0.00902896
0.000310623
0.00178433
0.00391586
0.00596962
0.00748252
0.00840676
0.00891501
0.00919694
0.00937652
0.00951077
0.00961425
0.00968334
0.0097027
0.00966164
0.00956708
0.00944639
0.00932825
0.00922935
0.0091543
0.00910064
0.00906338
0.00903773
0.00901968
0.000309824
0.00181385
0.00395274
0.00599222
0.00748447
0.00838727
0.00887219
0.00912654
0.00927352
0.00937242
0.00944206
0.00948259
0.00948743
0.00945365
0.00938909
0.00930958
0.00923171
0.00916533
0.00911342
0.00907478
0.00904661
0.0090262
0.00901135
0.00030907
0.001831
0.00397913
0.00601244
0.00748905
0.00837244
0.00883608
0.00906686
0.00918769
0.00925933
0.00930416
0.0093266
0.00932534
0.00930084
0.00925907
0.00920898
0.0091595
0.00911618
0.00908099
0.00905353
0.00903243
0.00901632
0.00900425
0.000308361
0.00184374
0.00400103
0.00603149
0.0074955
0.00836195
0.00880753
0.00901987
0.00912181
0.009175
0.00920411
0.00921653
0.00921372
0.00919719
0.00917076
0.00913972
0.00910852
0.0090803
0.00905638
0.00903679
0.0090209
0.00900816
0.00899839
0.000307709
0.00185578
0.00402249
0.00605137
0.0075044
0.00835592
0.00878646
0.00898484
0.00907384
0.00911541
0.00913538
0.0091427
0.00914015
0.00912939
0.00911279
0.00909328
0.00907331
0.00905461
0.00903807
0.00902385
0.00901173
0.00900159
0.00899368
0.000307125
0.00186827
0.00404493
0.00607283
0.0075158
0.00835393
0.00877185
0.0089596
0.00903982
0.00907426
0.0090891
0.00909399
0.0090922
0.00908527
0.0090747
0.00906211
0.00904897
0.00903623
0.00902448
0.00901392
0.00900453
0.00899638
0.00898995
0.000306617
0.00188123
0.00406826
0.00609558
0.0075292
0.00835521
0.00876232
0.00894178
0.00901587
0.00904588
0.00905787
0.00906164
0.0090606
0.00905615
0.00904927
0.00904091
0.00903194
0.00902295
0.00901436
0.00900633
0.00899891
0.00899229
0.00898703
0.000306181
0.00189428
0.00409185
0.00611892
0.00754389
0.00835886
0.00875657
0.00892933
0.00899897
0.00902611
0.00903647
0.00903975
0.00903933
0.00903648
0.00903189
0.00902615
0.0090198
0.00901326
0.00900678
0.00900051
0.00899455
0.0089891
0.00898478
0.000305811
0.001907
0.00411503
0.00614218
0.00755919
0.00836411
0.00875354
0.00892071
0.00898695
0.00901213
0.00902151
0.00902458
0.00902463
0.00902284
0.00901972
0.00901567
0.00901103
0.0090061
0.00900108
0.00899608
0.00899121
0.00898669
0.00898311
0.000305503
0.00191916
0.00413742
0.00616488
0.00757462
0.00837038
0.00875243
0.00891484
0.00897835
0.0090021
0.00901084
0.00901383
0.00901424
0.00901316
0.00901101
0.00900809
0.00900461
0.00900081
0.00899684
0.00899281
0.00898879
0.00898501
0.00898204
0.00030525
0.00193073
0.00415887
0.00618682
0.00758989
0.00837728
0.00875269
0.00891093
0.00897216
0.0089948
0.0090031
0.00900605
0.00900672
0.00900614
0.00900467
0.00900254
0.00899992
0.00899699
0.00899387
0.00899065
0.00898738
0.00898427
0.00898181
0.00030505
0.00194181
0.00417941
0.00620792
0.00760482
0.00838452
0.0087539
0.00890841
0.00896769
0.0089894
0.00899734
0.00900026
0.00900114
0.00900091
0.00899995
0.00899844
0.00899655
0.00899444
0.00899222
0.0089899
0.00898748
0.00898506
0.00898313
0.0003049
0.00195245
0.00419906
0.00622811
0.00761928
0.00839186
0.0087557
0.00890685
0.00896436
0.00898527
0.00899289
0.00899577
0.00899677
0.00899683
0.00899629
0.00899536
0.00899428
0.00899324
0.00899232
0.00899139
0.00899017
0.00898867
0.00898735
0.000304796
0.00196254
0.00421764
0.0062472
0.00763302
0.00839902
0.00875776
0.00890582
0.00896172
0.00898186
0.00898917
0.00899197
0.00899305
0.00899332
0.00899317
0.00899292
0.00899295
0.00899361
0.00899494
0.00899642
0.00899714
0.00899692
0.00899635
0.000304733
0.00197177
0.00423461
0.0062646
0.00764556
0.00840557
0.0087597
0.00890493
0.00895933
0.00897873
0.00898569
0.00898836
0.00898945
0.0089899
0.00899016
0.00899073
0.00899231
0.00899561
0.00900065
0.00900597
0.0090094
0.00901074
0.00901091
0.0003047
0.00197958
0.00424899
0.0062792
0.00765592
0.00841085
0.00876107
0.0089039
0.00895699
0.0089757
0.0089823
0.00898479
0.00898584
0.0089864
0.00898704
0.00898849
0.0089919
0.0089985
0.00900819
0.00901747
0.00902324
0.00902558
0.00902609
0.000304669
0.00198561
0.00425917
0.00628887
0.00766244
0.00841396
0.00876165
0.00890292
0.00895513
0.00897335
0.00897967
0.008982
0.00898299
0.00898362
0.0089845
0.00898657
0.0089913
0.00900032
0.00901269
0.00901883
0.00902344
0.00902493
0.0090251
0.000356314
0.000358193
0.00037035
0.000390834
0.00266308
0.00258574
0.00266456
0.00292625
0.00537923
0.00532179
0.00541017
0.00564438
0.00732554
0.00729362
0.00733876
0.00745698
0.00837231
0.00835302
0.00836491
0.0084077
0.00883114
0.00881684
0.00881286
0.00882098
0.00899995
0.00898731
0.00897721
0.00897213
0.0090506
0.00903848
0.00902641
0.00901702
0.00906013
0.00904826
0.00903574
0.0090252
0.00905774
0.00904607
0.0090336
0.0090229
0.00905309
0.00904159
0.00902929
0.00901868
0.00904897
0.00903759
0.00902542
0.00901492
0.00904601
0.00903464
0.00902254
0.00901208
0.00904425
0.00903276
0.0090206
0.00901012
0.00904353
0.00903178
0.00901947
0.00900888
0.00904362
0.00903147
0.00901892
0.00900818
0.00904419
0.00903155
0.00901872
0.00900782
0.00904478
0.00903164
0.00901857
0.00900758
0.00904482
0.00903128
0.00901814
0.0090072
0.00904367
0.00903002
0.00901708
0.00900644
0.00904086
0.00902752
0.00901518
0.00900515
0.00903624
0.00902373
0.0090124
0.00900329
0.0090301
0.00901887
0.00900889
0.00900094
0.00902304
0.00901338
0.00900495
0.0089983
0.00901576
0.00900776
0.00900092
0.00899557
0.00900885
0.00900245
0.00899709
0.00899294
0.00900268
0.0089977
0.00899364
0.00899053
0.00899742
0.00899363
0.00899066
0.0089884
0.00899309
0.00899026
0.00898814
0.00898656
0.00898959
0.00898752
0.00898606
0.00898499
0.00898682
0.00898533
0.00898436
0.00898366
0.00898464
0.00898358
0.00898297
0.00898255
0.00898295
0.00898222
0.00898187
0.00898164
0.00898171
0.00898122
0.00898105
0.00898095
0.00898097
0.00898067
0.00898063
0.00898063
0.00898103
0.00898087
0.00898093
0.008981
0.00898261
0.00898257
0.00898272
0.00898286
0.00898709
0.00898718
0.00898743
0.00898762
0.00899638
0.0089966
0.00899692
0.00899716
0.00901119
0.0090115
0.00901185
0.00901207
0.00902639
0.00902666
0.00902693
0.00902703
0.00902518
0.00902529
0.00902539
0.00902538
0.00140202
0.003863
0.00593494
0.00713237
0.0076627
0.00785604
0.00791715
0.00793412
0.00793781
0.00793697
0.00793169
0.007914
0.00785746
0.00768951
0.0072454
0.00624914
0.0044686
0.00216415
0.000342354
0.00385203
0.00568315
0.00713936
0.00798233
0.00836528
0.00850813
0.00855264
0.00856358
0.00856452
0.00856184
0.00855406
0.00853026
0.00845671
0.00824506
0.00770626
0.00655148
0.00459259
0.00218368
0.000342756
0.0061977
0.00723508
0.00804376
0.00851289
0.00872785
0.00880755
0.00883082
0.00883484
0.00883329
0.00882934
0.00882008
0.00879283
0.00871002
0.00847567
0.00789056
0.00666447
0.00463426
0.00218951
0.000343024
0.00772129
0.00820809
0.00858458
0.0088007
0.0088977
0.00893134
0.00893881
0.0089378
0.0089346
0.00892994
0.00891995
0.00889113
0.00880429
0.0085604
0.00795666
0.00670358
0.00464844
0.00219186
0.000343257
0.0085097
0.00870391
0.00885265
0.00893512
0.00896904
0.00897773
0.00897664
0.00897299
0.008969
0.00896404
0.00895378
0.00892441
0.00883617
0.00858907
0.0079792
0.00671751
0.00465449
0.0021935
0.000343478
0.0088494
0.00891464
0.00896378
0.0089881
0.0089947
0.00899277
0.00898823
0.00898366
0.00897948
0.00897449
0.0089642
0.00893475
0.00884628
0.00859858
0.00798748
0.00672386
0.00465855
0.00219515
0.000343692
0.0089723
0.00898876
0.00900092
0.00900416
0.00900127
0.008996
0.00899066
0.00898607
0.00898203
0.00897716
0.00896698
0.00893767
0.00884944
0.00860215
0.00799158
0.0067283
0.00466239
0.002197
0.000343899
0.00900771
0.00900809
0.00900868
0.00900589
0.00900078
0.00899515
0.00899007
0.00898583
0.00898207
0.0089774
0.00896739
0.00893832
0.00885054
0.00860405
0.00799469
0.00673252
0.00466652
0.00219909
0.0003441
0.00901315
0.00900894
0.00900678
0.00900308
0.00899815
0.00899308
0.00898858
0.00898478
0.00898133
0.00897688
0.00896708
0.0089383
0.00885107
0.00860558
0.00799771
0.00673697
0.00467102
0.00220142
0.000344292
0.00901022
0.00900497
0.0090026
0.00899938
0.00899518
0.00899083
0.0089869
0.00898352
0.00898036
0.00897613
0.00896656
0.0089381
0.00885148
0.0086071
0.00800087
0.00674175
0.0046759
0.00220398
0.000344475
0.00900594
0.00900054
0.00899851
0.00899593
0.00899244
0.00898871
0.00898526
0.00898224
0.00897935
0.00897533
0.00896597
0.00893787
0.00885189
0.00860869
0.00800423
0.00674682
0.00468111
0.00220672
0.000344648
0.00900221
0.00899678
0.00899506
0.00899299
0.00899004
0.0089868
0.00898374
0.00898102
0.00897835
0.00897453
0.00896539
0.00893764
0.00885233
0.00861037
0.00800776
0.00675216
0.0046866
0.00220964
0.00034481
0.00899933
0.00899382
0.00899227
0.00899054
0.00898799
0.0089851
0.00898235
0.00897988
0.00897741
0.00897376
0.00896484
0.00893744
0.00885282
0.00861213
0.00801142
0.00675768
0.00469229
0.00221268
0.000344961
0.00899725
0.00899156
0.00899004
0.00898851
0.00898622
0.00898361
0.0089811
0.00897883
0.00897653
0.00897305
0.00896433
0.00893728
0.00885336
0.00861395
0.00801517
0.00676333
0.00469812
0.00221581
0.0003451
0.00899581
0.00898986
0.00898826
0.00898682
0.00898471
0.0089823
0.00897998
0.00897788
0.00897573
0.0089724
0.00896387
0.00893717
0.00885394
0.00861581
0.00801896
0.00676904
0.00470402
0.00221899
0.000345226
0.00899487
0.0089886
0.00898684
0.0089854
0.00898339
0.00898113
0.00897897
0.00897702
0.008975
0.00897181
0.00896347
0.00893711
0.00885455
0.00861769
0.00802276
0.00677474
0.00470991
0.00222218
0.000345339
0.00899429
0.00898769
0.00898571
0.0089842
0.00898225
0.0089801
0.00897808
0.00897625
0.00897435
0.00897128
0.00896312
0.00893708
0.00885519
0.00861956
0.00802651
0.00678035
0.00471573
0.00222535
0.000345438
0.00899393
0.00898704
0.0089848
0.00898318
0.00898125
0.00897919
0.00897728
0.00897556
0.00897378
0.00897082
0.00896283
0.0089371
0.00885584
0.00862141
0.00803018
0.00678583
0.00472142
0.00222846
0.000345525
0.00899364
0.00898656
0.00898405
0.00898229
0.00898036
0.00897838
0.00897656
0.00897495
0.00897327
0.00897042
0.00896259
0.00893715
0.0088565
0.00862321
0.00803371
0.00679111
0.00472689
0.00223147
0.000345599
0.0089933
0.00898617
0.00898341
0.00898151
0.00897956
0.00897765
0.00897593
0.00897442
0.00897283
0.00897008
0.00896239
0.00893723
0.00885714
0.00862492
0.00803707
0.00679612
0.00473211
0.00223434
0.00034566
0.00899278
0.00898579
0.00898284
0.0089808
0.00897884
0.00897699
0.00897537
0.00897394
0.00897244
0.00896979
0.00896224
0.00893733
0.00885776
0.00862653
0.0080402
0.00680079
0.00473699
0.00223705
0.000345709
0.00899205
0.00898538
0.0089823
0.00898015
0.00897819
0.0089764
0.00897486
0.00897353
0.00897211
0.00896955
0.00896211
0.00893743
0.00885832
0.00862798
0.00804302
0.00680501
0.00474142
0.00223955
0.000345746
0.00899111
0.00898491
0.00898176
0.00897953
0.00897758
0.00897586
0.00897441
0.00897317
0.00897183
0.00896934
0.008962
0.0089375
0.00885879
0.00862918
0.00804537
0.00680854
0.00474517
0.00224169
0.000345774
0.00899002
0.00898438
0.00898122
0.00897894
0.00897701
0.00897537
0.00897401
0.00897285
0.00897158
0.00896916
0.00896189
0.00893752
0.00885905
0.00862997
0.00804699
0.00681103
0.00474776
0.00224311
0.000345803
0.00898883
0.00898379
0.00898068
0.00897837
0.00897649
0.00897493
0.00897365
0.00897257
0.00897137
0.008969
0.0089618
0.00893752
0.00885923
0.00863049
0.00804805
0.00681263
0.00474937
0.00224395
0.000345839
0.00898762
0.00898316
0.00898012
0.00897783
0.008976
0.00897452
0.00897333
0.00897232
0.00897118
0.00896887
0.00896173
0.00893752
0.00885937
0.00863089
0.00804886
0.00681385
0.00475063
0.00224464
0.000345863
0.00898644
0.0089825
0.00897956
0.00897731
0.00897555
0.00897415
0.00897305
0.00897211
0.00897102
0.00896876
0.00896166
0.00893752
0.00885948
0.00863121
0.00804952
0.00681485
0.00475167
0.00224521
0.000345874
0.00898533
0.00898184
0.00897901
0.00897682
0.00897513
0.00897382
0.00897279
0.00897192
0.00897089
0.00896867
0.00896161
0.00893752
0.00885957
0.00863146
0.00805004
0.00681565
0.00475251
0.00224569
0.000345876
0.00898428
0.00898117
0.00897847
0.00897635
0.00897474
0.00897352
0.00897256
0.00897175
0.00897076
0.00896859
0.00896156
0.00893751
0.00885963
0.00863165
0.00805043
0.00681625
0.00475315
0.00224607
0.000345867
0.00898332
0.00898053
0.00897794
0.00897591
0.00897439
0.00897324
0.00897236
0.0089716
0.00897066
0.00896851
0.00896152
0.0089375
0.00885967
0.00863178
0.0080507
0.00681668
0.00475361
0.00224635
0.00034585
0.00898245
0.0089799
0.00897745
0.00897551
0.00897407
0.008973
0.00897218
0.00897146
0.00897056
0.00896845
0.00896148
0.00893749
0.00885969
0.00863186
0.00805086
0.00681693
0.0047539
0.00224653
0.000345826
0.00898166
0.00897932
0.00897699
0.00897515
0.00897379
0.00897279
0.00897203
0.00897136
0.00897049
0.0089684
0.00896145
0.00893748
0.0088597
0.00863188
0.00805092
0.00681703
0.00475402
0.00224663
0.000345795
0.00898098
0.00897881
0.0089766
0.00897485
0.00897358
0.00897264
0.00897193
0.0089713
0.00897046
0.00896839
0.00896146
0.00893749
0.00885972
0.0086319
0.00805092
0.00681701
0.004754
0.00224664
0.00034576
0.00898046
0.00897844
0.00897634
0.00897469
0.00897349
0.00897261
0.00897195
0.00897135
0.00897054
0.00896849
0.00896157
0.00893762
0.00885984
0.00863201
0.00805097
0.00681697
0.00475389
0.00224659
0.000345721
0.00898025
0.00897835
0.00897637
0.00897481
0.00897369
0.00897287
0.00897224
0.00897168
0.00897089
0.00896886
0.00896196
0.00893803
0.00886029
0.00863248
0.0080514
0.00681722
0.00475388
0.00224651
0.000345679
0.00898072
0.00897894
0.00897707
0.00897561
0.00897455
0.00897379
0.00897321
0.00897268
0.00897192
0.00896991
0.00896305
0.0089392
0.00886161
0.00863406
0.0080532
0.00681878
0.00475458
0.00224654
0.000345639
0.00898266
0.008981
0.00897924
0.00897788
0.0089769
0.00897619
0.00897565
0.00897516
0.00897443
0.00897247
0.0089657
0.00894209
0.00886507
0.00863861
0.0080591
0.00682489
0.00475826
0.00224726
0.000345609
0.0089875
0.00898595
0.00898432
0.00898305
0.00898214
0.00898149
0.008981
0.00898055
0.00897986
0.00897799
0.00897145
0.00894849
0.00887317
0.00865034
0.00807629
0.00684535
0.00477304
0.0022512
0.000345642
0.00899709
0.00899562
0.00899408
0.00899289
0.00899205
0.00899145
0.008991
0.00899058
0.00898995
0.00898824
0.0089822
0.00896081
0.00888991
0.00867747
0.00812163
0.00690765
0.00482671
0.00226949
0.00034609
0.00901194
0.00901046
0.00900896
0.00900782
0.00900702
0.00900643
0.00900598
0.00900558
0.00900502
0.00900357
0.0089985
0.0089804
0.00891942
0.00873263
0.00822866
0.00708044
0.00500788
0.00234942
0.00034962
0.0090267
0.00902518
0.00902375
0.00902268
0.0090219
0.00902132
0.00902087
0.00902048
0.00902001
0.00901896
0.0090155
0.00900314
0.00896075
0.00882681
0.00844659
0.00750545
0.00557398
0.00268041
0.000372588
0.00902503
0.00902405
0.0090232
0.00902257
0.00902211
0.00902176
0.00902148
0.00902124
0.00902099
0.00902056
0.0090193
0.00901493
0.00899978
0.00895027
0.00880015
0.00837339
0.00719019
0.00409218
0.000469985
)
;

boundaryField
{
    leftWall
    {
        type            nutkWallFunction;
        Cmu             0.09;
        kappa           0.41;
        E               9.8;
        value           nonuniform List<scalar> 
50
(
2.90376e-05
3.30497e-05
3.42484e-05
3.48626e-05
3.5218e-05
3.54255e-05
3.55464e-05
3.56192e-05
3.56913e-05
3.57367e-05
3.57573e-05
3.5763e-05
3.57623e-05
3.57595e-05
3.57562e-05
3.57529e-05
3.57499e-05
3.57471e-05
3.57445e-05
3.57424e-05
3.57409e-05
3.57405e-05
3.57427e-05
3.57509e-05
3.57704e-05
3.57746e-05
3.56815e-05
3.58284e-05
3.67354e-05
4.05459e-05
3.92595e-05
3.80774e-05
3.77879e-05
3.76845e-05
3.76052e-05
3.75323e-05
3.74643e-05
3.74022e-05
3.73468e-05
3.72984e-05
3.72568e-05
3.72213e-05
3.71915e-05
3.71669e-05
3.7147e-05
3.71317e-05
3.71208e-05
3.71138e-05
3.711e-05
3.71068e-05
)
;
    }
    rightWall
    {
        type            nutkWallFunction;
        Cmu             0.09;
        kappa           0.41;
        E               9.8;
        value           nonuniform List<scalar> 
50
(
3.34525e-05
3.95942e-05
4.10989e-05
4.17755e-05
4.2142e-05
4.23465e-05
4.24602e-05
4.25242e-05
4.25792e-05
4.26134e-05
4.26373e-05
4.26586e-05
4.26789e-05
4.26986e-05
4.27177e-05
4.27362e-05
4.27538e-05
4.27706e-05
4.27864e-05
4.28011e-05
4.28148e-05
4.28273e-05
4.28386e-05
4.28487e-05
4.28576e-05
4.28653e-05
4.28718e-05
4.28771e-05
4.28812e-05
4.28843e-05
4.28865e-05
4.28891e-05
4.28919e-05
4.28936e-05
4.28942e-05
4.28939e-05
4.28928e-05
4.2891e-05
4.28885e-05
4.28855e-05
4.28822e-05
4.28785e-05
4.28747e-05
4.28709e-05
4.28678e-05
4.28687e-05
4.28972e-05
4.31534e-05
4.51231e-05
5.6032e-05
)
;
    }
    lowerWall
    {
        type            nutkWallFunction;
        Cmu             0.09;
        kappa           0.41;
        E               9.8;
        value           nonuniform List<scalar> 
62
(
1.45263e-05
1.40857e-05
1.44587e-05
1.46167e-05
1.47104e-05
1.47903e-05
1.48771e-05
1.50157e-05
1.53772e-05
1.63907e-05
1.85715e-05
1.70909e-05
1.81808e-05
1.59888e-05
1.39562e-05
1.27242e-05
1.18862e-05
1.13205e-05
1.09088e-05
1.05239e-05
9.98835e-06
8.98585e-06
7.01624e-06
7.01624e-06
3.40676e-05
3.5717e-05
3.6494e-05
3.71865e-05
3.82987e-05
4.03239e-05
4.32573e-05
4.19434e-05
4.17349e-05
4.29591e-05
4.55626e-05
6.71387e-06
3.9123e-05
4.1398e-05
4.24289e-05
4.30962e-05
4.3699e-05
4.45674e-05
4.68764e-05
6.71387e-06
8.16374e-06
8.70504e-06
8.89115e-06
8.96249e-06
8.99611e-06
9.0194e-06
9.02459e-06
9.01884e-06
9.00687e-06
8.99127e-06
8.97355e-06
8.95487e-06
8.93441e-06
8.90833e-06
8.85534e-06
8.69544e-06
8.19706e-06
9.02164e-06
)
;
    }
    atmosphere
    {
        type            calculated;
        value           nonuniform List<scalar> 
46
(
0.000304669
0.00198561
0.00425917
0.00628887
0.00766244
0.00841396
0.00876165
0.00890292
0.00895513
0.00897335
0.00897967
0.008982
0.00898299
0.00898362
0.0089845
0.00898657
0.0089913
0.00900032
0.00901269
0.009
0.009
0.009
0.009
0.009
0.009
0.009
0.009
0.009
0.009
0.009
0.009
0.009
0.009
0.009
0.009
0.009
0.009
0.009
0.009
0.009
0.009
0.009
0.009
0.009
0.009
0.009
)
;
    }
    defaultFaces
    {
        type            empty;
    }
}


// ************************************************************************* //
