/*--------------------------------*- C++ -*----------------------------------*\
  =========                 |
  \\      /  F ield         | OpenFOAM: The Open Source CFD Toolbox
   \\    /   O peration     | Website:  https://openfoam.org
    \\  /    A nd           | Version:  9
     \\/     M anipulation  |
\*---------------------------------------------------------------------------*/
FoamFile
{
    format      ascii;
    class       volScalarField;
    location    "0.05";
    object      p_rgh;
}
// * * * * * * * * * * * * * * * * * * * * * * * * * * * * * * * * * * * * * //

dimensions      [1 -1 -2 0 0 0 0];

internalField   nonuniform List<scalar> 
2268
(
-910.69
-906.519
-890.568
-860.033
-813.343
-749.149
-664.484
-560.208
-438.716
-222.458
-12.0515
-6.20782
-5.03099
-4.26148
-3.74325
-3.38593
-3.12275
-2.91881
-2.76307
-2.64739
-2.56947
-2.52896
-2.52197
-911.231
-906.541
-890.202
-859.418
-812.575
-748.202
-663.618
-558.26
-432.169
-240.653
-30.6909
-5.81727
-5.03529
-4.28613
-3.76618
-3.39565
-3.13076
-2.92534
-2.76895
-2.65287
-2.57384
-2.5311
-2.52283
-914.513
-909.577
-892.974
-862.042
-815.45
-751.839
-669.22
-566.877
-445.454
-293.447
-105.199
-11.436
-5.09514
-4.24237
-3.78094
-3.40074
-3.13581
-2.9296
-2.77257
-2.6556
-2.57458
-2.52897
-2.52099
-920.721
-916.254
-899.951
-869.192
-823.299
-761.323
-682.077
-585.556
-473.964
-349.145
-211.773
-37.0521
-5.23478
-4.12317
-3.76208
-3.39036
-3.12989
-2.92562
-2.76883
-2.65104
-2.56814
-2.52077
-2.51584
-929.897
-926.327
-911.04
-881.073
-836.436
-776.834
-701.868
-612.25
-511.263
-404.05
-294.349
-76.8797
-5.07946
-3.98016
-3.70676
-3.35947
-3.10963
-2.91083
-2.75598
-2.63822
-2.55431
-2.50644
-2.50746
-942.118
-939.543
-925.895
-897.533
-854.835
-798.248
-728.115
-645.676
-554.523
-460.675
-363.409
-112.279
-4.60766
-3.82259
-3.62079
-3.3085
-3.07496
-2.88494
-2.73394
-2.61735
-2.53284
-2.48526
-2.50105
-957.373
-955.753
-944.186
-918.234
-878.174
-825.132
-760.137
-684.784
-602.577
-519.324
-430.133
-145.642
-4.14856
-3.6622
-3.51258
-3.2413
-3.02773
-2.84902
-2.70348
-2.58863
-2.50188
-2.45501
-2.50488
-975.587
-974.761
-965.247
-942.037
-904.969
-855.667
-795.742
-727.04
-652.864
-578.058
-493.576
-175.461
-3.76952
-3.51071
-3.39393
-3.16596
-2.97307
-2.80691
-2.66764
-2.55374
-2.46107
-2.41067
-2.48332
-1.46092
-1.455
-1.44133
-1.42074
-1.39588
-1.36895
-1.34162
-1.31501
-1.2898
-1.26645
-1.24521
-1.22625
-1.20968
-1.1956
-1.18414
-1.17541
-1.16953
-1.16639
-1.16551
-1.46145
-1.45497
-1.44125
-1.42075
-1.39599
-1.36914
-1.34186
-1.31528
-1.29009
-1.26675
-1.2455
-1.22653
-1.20995
-1.19587
-1.18439
-1.17564
-1.1697
-1.16647
-1.16547
-1.46432
-1.45648
-1.44219
-1.4213
-1.39641
-1.36948
-1.34216
-1.31554
-1.29034
-1.26697
-1.2457
-1.2267
-1.2101
-1.19599
-1.18447
-1.17566
-1.16961
-1.16623
-1.16509
-1.4701
-1.46026
-1.44479
-1.4228
-1.39728
-1.36998
-1.3424
-1.31563
-1.29032
-1.26687
-1.24555
-1.2265
-1.20985
-1.19569
-1.18411
-1.17519
-1.16901
-1.16552
-1.16436
-1.47938
-1.46639
-1.44931
-1.42539
-1.39866
-1.37058
-1.34251
-1.31542
-1.2899
-1.26632
-1.24489
-1.22577
-1.20906
-1.19483
-1.18316
-1.17414
-1.16786
-1.16436
-1.16324
-1.49319
-1.47488
-1.45588
-1.4291
-1.40047
-1.37119
-1.34236
-1.31479
-1.28897
-1.26518
-1.24362
-1.22441
-1.20762
-1.19332
-1.18157
-1.17247
-1.16617
-1.16277
-1.16173
-1.51328
-1.48706
-1.46487
-1.43397
-1.40265
-1.37172
-1.34187
-1.31367
-1.28745
-1.26342
-1.2417
-1.22237
-1.20551
-1.19113
-1.17931
-1.17019
-1.16397
-1.16074
-1.15979
-1.54683
-1.50873
-1.47689
-1.44
-1.40512
-1.37212
-1.34106
-1.31212
-1.28545
-1.26114
-1.23925
-1.21982
-1.20286
-1.18842
-1.17655
-1.16743
-1.16135
-1.1583
-1.15743
-1008.54
-1008.53
-1001.27
-981.623
-948.811
-904.824
-851.9
-792.173
-728.603
-663.688
-582.905
-215.078
-3.39338
-3.30324
-3.21484
-3.04842
-2.88582
-2.73882
-2.60942
-2.49597
-2.39478
-2.32112
-2.26481
-1064.6
-1065.13
-1059.57
-1043.15
-1014.89
-976.825
-931.444
-881
-828.261
-774.752
-705.57
-288.468
-3.14884
-3.08387
-3.01978
-2.89745
-2.76609
-2.6409
-2.52512
-2.41862
-2.32108
-2.23396
-2.12504
-1131.08
-1132.04
-1127.98
-1114.58
-1090.74
-1058.34
-1019.76
-977.164
-933.045
-888.738
-833.024
-390.233
-3.02254
-2.9052
-2.84934
-2.75188
-2.64226
-2.5343
-2.43103
-2.33278
-2.23917
-2.14827
-2.04571
-1206.6
-1207.84
-1205.01
-1194.26
-1174.47
-1147.21
-1114.68
-1078.8
-1041.71
-1004.62
-959.924
-509.715
-2.89033
-2.74553
-2.69503
-2.61289
-2.51847
-2.42378
-2.33121
-2.24105
-2.15288
-2.06558
-1.97373
-1289.7
-1291.05
-1289.1
-1280.46
-1264.05
-1241.17
-1213.75
-1183.45
-1152.05
-1120.66
-1083.83
-638.484
-2.74008
-2.59576
-2.55102
-2.47972
-2.39681
-2.31278
-2.22942
-2.14698
-2.0653
-1.98434
-1.90213
-1379.11
-1380.48
-1379.15
-1372.15
-1358.49
-1339.26
-1316.09
-1290.4
-1263.67
-1236.84
-1205.25
-773.892
-2.58556
-2.45337
-2.414
-2.3513
-2.27785
-2.20284
-2.12769
-2.05263
-1.97779
-1.90383
-1.83014
-1473.77
-1475.1
-1474.2
-1468.51
-1457.1
-1440.89
-1421.26
-1399.41
-1376.53
-1353.46
-1326.17
-913.379
-2.43365
-2.31716
-2.2825
-2.22711
-2.16181
-2.09471
-2.027
-1.95896
-1.89093
-1.82388
-1.75781
-1572.78
-1574.04
-1573.45
-1568.78
-1559.23
-1545.53
-1528.86
-1510.21
-1490.57
-1470.65
-1447.01
-1055.85
-2.2872
-2.1864
-2.15587
-2.10685
-2.04873
-1.98867
-1.92777
-1.86635
-1.80486
-1.74439
-1.6852
-1675.42
-1676.58
-1676.21
-1672.36
-1664.32
-1652.72
-1638.53
-1622.58
-1605.69
-1588.45
-1567.96
-1200.52
-2.14706
-2.06059
-2.03369
-1.99026
-1.93851
-1.88477
-1.83009
-1.77484
-1.71952
-1.66522
-1.6123
-1781.1
-1782.15
-1781.91
-1778.72
-1771.93
-1762.08
-1749.98
-1736.33
-1721.78
-1706.87
-1689.13
-1346.82
-2.01319
-1.93934
-1.91561
-1.87709
-1.83097
-1.7829
-1.73389
-1.68436
-1.63481
-1.58625
-1.53909
-1889.32
-1890.26
-1890.1
-1887.42
-1881.67
-1873.28
-1862.96
-1851.26
-1838.75
-1825.87
-1810.57
-1494.35
-1.88535
-1.82234
-1.80134
-1.76708
-1.7259
-1.68289
-1.63905
-1.5948
-1.55061
-1.50741
-1.46558
-1999.69
-2000.5
-2000.37
-1998.09
-1993.19
-1986.04
-1977.23
-1967.22
-1956.49
-1945.42
-1932.3
-1642.81
-1.76323
-1.70929
-1.69063
-1.65997
-1.62308
-1.58455
-1.54537
-1.50598
-1.46681
-1.42863
-1.3918
-2111.88
-2112.56
-2112.41
-2110.42
-2106.22
-2100.11
-2092.6
-2084.07
-2074.92
-2065.49
-2054.34
-1792
-1.64611
-1.59982
-1.58315
-1.55545
-1.52215
-1.48754
-1.45258
-1.41768
-1.38322
-1.3498
-1.31771
-2225.64
-2226.17
-2225.95
-2224.15
-2220.5
-2215.28
-2208.91
-2201.7
-2193.98
-2186.04
-2176.68
-1941.77
-1.53339
-1.49364
-1.47868
-1.45318
-1.42274
-1.39149
-1.36035
-1.32965
-1.29965
-1.27081
-1.24327
-2340.81
-2341.15
-2340.78
-2339.06
-2335.83
-2331.38
-2326.02
-2320
-2313.58
-2307.01
-2299.36
-2091.78
-1.42749
-1.39126
-1.37724
-1.35294
-1.32443
-1.29594
-1.26829
-1.24161
-1.21596
-1.19157
-1.16848
-2457.29
-2457.36
-2456.69
-2454.86
-2451.91
-2448.11
-2443.68
-2438.76
-2433.53
-2428.24
-2422.43
-2241.2
-1.33888
-1.29441
-1.27888
-1.25429
-1.22662
-1.2003
-1.17592
-1.15322
-1.13195
-1.11205
-1.0934
-2575.47
-2574.75
-2573.29
-2571.07
-2568.34
-2565.19
-2561.65
-2557.76
-2553.58
-2549.36
-2544.94
-2394.92
-1.26637
-1.20365
-1.18294
-1.15602
-1.12819
-1.10365
-1.08258
-1.06409
-1.04742
-1.03219
-1.01809
-2693.19
-2692.2
-2690.26
-2688.33
-2686.32
-2684.05
-2681.48
-2678.56
-2675.26
-2671.7
-2667.68
-2509.36
-1.17865
-1.1192
-1.08854
-1.05615
-1.02726
-1.00469
-0.987427
-0.973713
-0.962169
-0.951987
-0.942666
-2813.14
-2815.83
-2815.25
-2814.12
-2812.63
-2811.03
-2809.35
-2807.42
-2805.07
-2802.24
-2797.98
-2744.8
-1.16875
-1.04653
-0.995447
-0.950577
-0.920594
-0.901418
-0.889463
-0.881715
-0.876138
-0.871552
-0.867332
-2218.12
-2113.25
-2058.62
-2036.6
-2034.04
-2046.59
-2068.96
-2097.31
-2130.26
-2167.36
-2210.81
-1831.66
-0.925028
-1.01215
-0.897321
-0.829428
-0.802419
-0.791374
-0.787921
-0.788093
-0.789647
-0.791309
-0.792505
-248.265
-173.376
-154.521
-146.973
-146.489
-151.768
-161.191
-174.424
-190.977
-211.348
-236.182
-138.58
-7.00942
-0.951244
-0.736298
-0.682392
-0.669357
-0.674063
-0.683392
-0.693764
-0.703622
-0.712089
-0.718911
-4.5748
-1.98071
-1.6533
-1.57695
-1.56565
-1.66586
-1.8646
-2.1466
-2.47642
-2.77191
-3.00149
-2.06552
-3.47888
-0.742584
-0.474947
-0.496453
-0.524128
-0.553166
-0.578864
-0.600987
-0.619722
-0.635122
-0.647499
0.658087
1.00106
1.062
1.05925
1.03798
0.992734
0.9218
0.825584
0.705808
0.568171
0.405901
0.178891
-0.099127
-0.109327
-0.234712
-0.324446
-0.38887
-0.439748
-0.480348
-0.51325
-0.540127
-0.561874
-0.579323
1.26957
1.29623
1.29361
1.27779
1.25093
1.20906
1.15004
1.07213
0.972791
0.847176
0.692727
0.491759
0.277773
0.0726266
-0.0873679
-0.196688
-0.27811
-0.341839
-0.392538
-0.433436
-0.466713
-0.493636
-0.515322
1.23347
1.2276
1.21902
1.20276
1.17474
1.13235
1.07444
0.999859
0.906503
0.790775
0.648945
0.485479
0.310151
0.141312
0.00224299
-0.106049
-0.191909
-0.261046
-0.317133
-0.362965
-0.400588
-0.431264
-0.456166
1.12698
1.12354
1.11526
1.09849
1.06976
1.02759
0.971478
0.900825
0.814497
0.710927
0.589444
0.45482
0.31398
0.177821
0.0579375
-0.0427546
-0.126535
-0.196151
-0.253988
-0.302103
-0.34214
-0.375145
-0.402206
1.02347
1.02146
1.0134
0.99638
0.967863
0.927052
0.873949
0.80851
0.730422
0.63943
0.536273
0.424228
0.308202
0.19505
0.0915913
0.000640985
-0.0778652
-0.144987
-0.202046
-0.250392
-0.291215
-0.325278
-0.353511
0.925823
0.924183
0.91641
0.899809
0.872396
0.833802
0.784452
0.724783
0.655031
0.575533
0.487352
0.392897
0.295672
0.200195
0.110757
0.0297178
-0.0422208
-0.105223
-0.159878
-0.206976
-0.247312
-0.281376
-0.309924
0.834345
0.832889
0.82557
0.809893
0.784166
0.748315
0.703097
0.649269
0.587371
0.517982
0.442149
0.361723
0.279256
0.19779
0.120205
0.0484479
-0.0166126
-0.0747095
-0.12598
-0.170826
-0.209734
-0.242973
-0.271134
0.749103
0.747799
0.741085
0.726596
0.702834
0.669999
0.629071
0.580947
0.526286
0.46573
0.400226
0.33122
0.260602
0.190522
0.123027
0.05966
0.00131319
-0.0515832
-0.0989293
-0.140879
-0.177707
-0.20951
-0.236737
0.669633
0.668504
0.662468
0.649244
0.627568
0.597888
0.561268
0.518602
0.470541
0.417717
0.360962
0.301436
0.240579
0.179984
0.121168
0.0653586
0.013392
-0.0342797
-0.0774512
-0.116133
-0.150456
-0.180397
-0.206281
0.595369
0.594427
0.589043
0.577094
0.557593
0.531125
0.498713
0.461163
0.419074
0.37304
0.323803
0.272319
0.219724
0.167237
0.116024
0.0670621
0.0210715
-0.0215099
-0.0604488
-0.0956847
-0.127254
-0.15505
-0.179299
0.525749
0.524951
0.520152
0.509498
0.492245
0.468971
0.440567
0.407736
0.371033
0.331017
0.288358
0.243861
0.198442
0.153057
0.108612
0.0658825
0.0254637
-0.0122391
-0.0470083
-0.0787506
-0.107442
-0.132919
-0.155326
0.460199
0.45948
0.455237
0.445927
0.430952
0.410769
0.386115
0.357615
0.325797
0.291192
0.254403
0.216116
0.177072
0.138027
0.0996864
0.0626604
0.0274322
-0.00565079
-0.0363845
-0.0646657
-0.0904329
-0.113487
-0.133909
0.39817
0.397516
0.393872
0.385962
0.373224
0.355964
0.33479
0.31028
0.282942
0.253277
0.221821
0.189151
0.155866
0.122557
0.0897728
0.0579902
0.0275943
-0.00112563
-0.0279795
-0.0528688
-0.0757091
-0.0962807
-0.114616
0.339194
0.338667
0.335705
0.329212
0.318601
0.30406
0.286115
0.265309
0.242128
0.217032
0.190485
0.162963
0.13494
0.106877
0.0791958
0.0522674
0.0263952
0.001815
-0.0213083
-0.0428829
-0.0628127
-0.0808674
-0.0970432
0.282866
0.28255
0.280325
0.275193
0.266549
0.254521
0.239588
0.222258
0.202979
0.182155
0.160177
0.137425
0.114269
0.0910599
0.0681225
0.0457403
0.0241489
0.00353397
-0.015971
-0.0342967
-0.0513398
-0.0668596
-0.0808239
0.228746
0.228679
0.227158
0.223257
0.216403
0.206715
0.194631
0.180607
0.165037
0.14826
0.13059
0.112319
0.0937277
0.0750808
0.0566225
0.0385664
0.0210886
0.00432617
-0.0116306
-0.0267522
-0.0409384
-0.053918
-0.0656355
0.176319
0.17645
0.175495
0.172642
0.167418
0.159948
0.150612
0.139792
0.127808
0.114926
0.101381
0.0873906
0.0731577
0.0588762
0.0447247
0.0308585
0.0174022
0.00444818
-0.00796692
-0.0199327
-0.0313209
-0.0417732
-0.0512177
0.125044
0.125232
0.124613
0.122586
0.118844
0.113515
0.106884
0.0992278
0.0907734
0.0817067
0.0721886
0.0623654
0.052376
0.0423539
0.0324238
0.0226931
0.0132502
0.00416988
-0.00457365
-0.0134717
-0.0222668
-0.0302726
-0.0374361
0.0744791
0.0745135
0.0739455
0.0725121
0.0701309
0.0669048
0.0629821
0.0585003
0.053576
0.0483092
0.0427882
0.0370953
0.0313109
0.0255157
0.0197898
0.0142079
0.00885646
0.00389113
-0.000680353
-0.00676203
-0.0135424
-0.0192919
-0.024257
0.0244165
0.0242745
0.0238708
0.0232305
0.0223673
0.021302
0.0200576
0.0186602
0.0171372
0.0155155
0.0138199
0.0120751
0.0103073
0.00854633
0.00682804
0.00519648
0.00373925
0.00271709
0.00245763
0.000450379
-0.00417539
-0.00711207
-0.00930371
-2.07046
-1.98316
-1.91661
-1.84286
-1.99978
-1.92822
-1.86024
-1.78682
-1.95268
-1.89056
-1.82832
-1.76653
-1.89505
-1.8401
-1.78439
-1.73164
-1.83382
-1.78521
-1.7354
-1.68897
-1.77001
-1.72694
-1.68257
-1.64142
-1.70451
-1.66628
-1.62682
-1.59028
-1.63782
-1.60387
-1.56881
-1.53634
-1.57021
-1.5401
-1.50899
-1.48017
-1.50179
-1.47516
-1.44766
-1.42215
-1.43267
-1.40924
-1.38504
-1.36259
-1.36296
-1.34249
-1.32136
-1.30174
-1.29272
-1.27503
-1.25678
-1.23982
-1.22198
-1.20695
-1.19146
-1.17704
-1.15078
-1.13833
-1.12552
-1.11357
-1.07922
-1.06932
-1.05913
-1.04961
-1.00747
-1.0001
-0.99252
-0.985388
-0.935702
-0.930904
-0.925936
-0.921186
-0.864134
-0.861946
-0.859616
-0.857253
-0.793153
-0.793594
-0.793907
-0.793927
-0.723415
-0.726455
-0.729362
-0.731705
-0.655709
-0.661225
-0.666592
-0.671129
-0.590889
-0.598642
-0.606229
-0.612748
-0.529721
-0.539367
-0.548845
-0.557058
-0.472769
-0.483904
-0.49488
-0.504454
-0.420359
-0.432555
-0.444618
-0.455198
-0.372586
-0.385431
-0.398181
-0.409419
-0.329362
-0.342483
-0.355553
-0.367125
-0.29046
-0.303539
-0.316609
-0.328225
-0.255568
-0.268342
-0.28114
-0.292549
-0.224319
-0.236576
-0.248878
-0.259869
-0.196316
-0.207891
-0.219516
-0.229912
-0.17115
-0.181916
-0.192719
-0.202381
-0.148411
-0.158269
-0.168141
-0.176961
-0.127696
-0.136573
-0.145436
-0.153339
-0.108626
-0.116469
-0.124271
-0.131213
-0.0908531
-0.0976272
-0.104341
-0.110302
-0.0740727
-0.0797573
-0.0853714
-0.0903474
-0.0580228
-0.0626026
-0.0671153
-0.0711176
-0.0425212
-0.0459585
-0.0493805
-0.0524787
-0.0278269
-0.0302239
-0.0326063
-0.0347582
-0.0108488
-0.011884
-0.0129143
-0.0138669
-1.66024
-1.55718
-1.49734
-1.44943
-1.40849
-1.37212
-1.33913
-1.30904
-1.28169
-1.25697
-1.23484
-1.21525
-1.19818
-1.18363
-1.17169
-1.16261
-1.15671
-1.15383
-1.15304
-1.67053
-1.58026
-1.51068
-1.45476
-1.40854
-1.36882
-1.33375
-1.30241
-1.27432
-1.24919
-1.22682
-1.20711
-1.18997
-1.17538
-1.16343
-1.15442
-1.14865
-1.14589
-1.14516
-1.67238
-1.58312
-1.51105
-1.45203
-1.40307
-1.36131
-1.32487
-1.2927
-1.26413
-1.23875
-1.21629
-1.19657
-1.17948
-1.16496
-1.15313
-1.14428
-1.13869
-1.13604
-1.13535
-1.65372
-1.57039
-1.50019
-1.44129
-1.39172
-1.34925
-1.31229
-1.2798
-1.2511
-1.22572
-1.20335
-1.18376
-1.16683
-1.1525
-1.14087
-1.13223
-1.12683
-1.12429
-1.12363
-1.62179
-1.54629
-1.4803
-1.42348
-1.37483
-1.33278
-1.29607
-1.2638
-1.23534
-1.21023
-1.18814
-1.16884
-1.15219
-1.13813
-1.12677
-1.11837
-1.11314
-1.11069
-1.11005
-1.58231
-1.51433
-1.45336
-1.39967
-1.35294
-1.31215
-1.27633
-1.24477
-1.2169
-1.19232
-1.17071
-1.15186
-1.13561
-1.12191
-1.11085
-1.10271
-1.09765
-1.09529
-1.09467
-1.53787
-1.47672
-1.42086
-1.37081
-1.32665
-1.28769
-1.25327
-1.22281
-1.19585
-1.17205
-1.15111
-1.13285
-1.11711
-1.10385
-1.09316
-1.0853
-1.08042
-1.07814
-1.07753
-1.48974
-1.43479
-1.38393
-1.33774
-1.29651
-1.2598
-1.22713
-1.19809
-1.17231
-1.1495
-1.12941
-1.11187
-1.09674
-1.084
-1.07374
-1.06619
-1.0615
-1.05931
-1.05872
-1.43873
-1.38945
-1.3434
-1.30114
-1.26303
-1.22883
-1.1982
-1.17082
-1.14644
-1.12479
-1.1057
-1.089
-1.07459
-1.06244
-1.05265
-1.04545
-1.04097
-1.03887
-1.0383
-1.38539
-1.34137
-1.29992
-1.26156
-1.22669
-1.19516
-1.16674
-1.14122
-1.11839
-1.09807
-1.08009
-1.06434
-1.05073
-1.03925
-1.02998
-1.02315
-1.0189
-1.0169
-1.01635
-1.33014
-1.29106
-1.25402
-1.2195
-1.1879
-1.15913
-1.13306
-1.10952
-1.08838
-1.06949
-1.05273
-1.03801
-1.02527
-1.0145
-1.0058
-0.999385
-0.995381
-0.993483
-0.992949
-1.27332
-1.2389
-1.2061
-1.17535
-1.14702
-1.12107
-1.09741
-1.07595
-1.05658
-1.03921
-1.02376
-1.01014
-0.998323
-0.988317
-0.980223
-0.974238
-0.970493
-0.968709
-0.968197
-1.21521
-1.18524
-1.15655
-1.12949
-1.1044
-1.08128
-1.06008
-1.04075
-1.02322
-1.00743
-0.993321
-0.980855
-0.970008
-0.960802
-0.95334
-0.94781
-0.944338
-0.942673
-0.942185
-1.15607
-1.13039
-1.10567
-1.08222
-1.06034
-1.04004
-1.02132
-1.00413
-0.988474
-0.9743
-0.961583
-0.950302
-0.940454
-0.932074
-0.925265
-0.920206
-0.917018
-0.915478
-0.915015
-1.09613
-1.07462
-1.05377
-1.03386
-1.01513
-0.997628
-0.981362
-0.966339
-0.952559
-0.940016
-0.928705
-0.918626
-0.909794
-0.902255
-0.896113
-0.891536
-0.888638
-0.887227
-0.886792
-1.03562
-1.01819
-1.00113
-0.984673
-0.969041
-0.954292
-0.94046
-0.927577
-0.915668
-0.904752
-0.894847
-0.885974
-0.878163
-0.871471
-0.866
-0.861909
-0.859305
-0.858026
-0.857621
-0.974816
-0.961379
-0.948028
-0.934947
-0.922341
-0.910285
-0.89884
-0.88806
-0.877994
-0.868684
-0.860171
-0.852493
-0.845696
-0.839846
-0.835045
-0.831439
-0.829131
-0.827985
-0.827611
-0.913982
-0.904473
-0.89474
-0.884951
-0.875287
-0.865851
-0.856728
-0.847997
-0.839728
-0.831987
-0.824836
-0.818329
-0.812528
-0.807506
-0.803364
-0.800239
-0.798223
-0.797211
-0.796869
-0.853404
-0.847763
-0.841556
-0.834957
-0.828137
-0.821227
-0.814343
-0.807587
-0.801054
-0.79483
-0.788996
-0.783626
-0.778792
-0.774575
-0.771077
-0.76842
-0.766692
-0.765812
-0.765503
-0.793408
-0.791556
-0.788765
-0.785237
-0.781141
-0.776645
-0.771897
-0.767026
-0.762149
-0.757375
-0.752802
-0.748521
-0.744616
-0.741174
-0.738295
-0.736091
-0.734643
-0.733892
-0.733617
-0.734413
-0.736201
-0.736667
-0.736054
-0.734538
-0.732323
-0.729591
-0.726497
-0.723183
-0.719777
-0.716396
-0.713147
-0.710123
-0.707419
-0.705131
-0.70336
-0.702179
-0.701553
-0.701312
-0.676876
-0.682072
-0.685576
-0.687678
-0.68856
-0.688465
-0.687608
-0.686168
-0.684309
-0.682181
-0.679911
-0.677627
-0.675431
-0.673419
-0.671687
-0.670326
-0.6694
-0.668893
-0.668686
-0.621248
-0.629537
-0.635799
-0.640368
-0.643432
-0.645268
-0.64612
-0.646192
-0.645667
-0.64471
-0.64347
-0.642077
-0.640646
-0.639278
-0.638064
-0.637084
-0.636397
-0.636003
-0.635832
-0.567936
-0.578924
-0.58761
-0.594358
-0.599357
-0.60291
-0.605288
-0.606713
-0.607385
-0.607487
-0.607178
-0.606597
-0.605866
-0.605089
-0.604351
-0.603724
-0.603257
-0.602969
-0.602832
-0.517272
-0.530508
-0.541239
-0.549845
-0.556505
-0.561543
-0.565246
-0.567854
-0.56958
-0.570618
-0.571136
-0.571282
-0.57118
-0.570935
-0.57063
-0.570324
-0.57006
-0.56987
-0.569765
-0.469488
-0.484488
-0.496862
-0.506982
-0.515014
-0.521289
-0.526107
-0.529719
-0.532348
-0.534194
-0.535433
-0.536215
-0.536668
-0.536896
-0.536976
-0.536957
-0.536877
-0.536777
-0.5367
-0.424713
-0.44099
-0.454593
-0.465876
-0.474981
-0.48224
-0.487958
-0.492391
-0.495768
-0.498292
-0.500141
-0.501468
-0.502401
-0.503039
-0.503456
-0.50369
-0.503772
-0.503753
-0.503702
-0.382982
-0.400061
-0.414489
-0.426585
-0.436465
-0.444455
-0.450859
-0.455931
-0.459901
-0.462973
-0.465323
-0.467103
-0.468437
-0.469424
-0.470127
-0.470579
-0.470802
-0.470855
-0.470827
-0.344239
-0.361679
-0.376547
-0.38912
-0.399488
-0.407965
-0.414844
-0.420378
-0.424791
-0.428283
-0.431026
-0.433167
-0.434827
-0.436098
-0.437039
-0.437672
-0.438014
-0.438129
-0.438122
-0.308363
-0.325761
-0.340713
-0.353451
-0.364038
-0.372768
-0.379926
-0.385752
-0.390464
-0.394252
-0.397284
-0.399698
-0.401608
-0.403102
-0.404231
-0.405009
-0.405448
-0.405615
-0.405626
-0.275174
-0.292176
-0.306893
-0.319511
-0.330069
-0.33884
-0.346092
-0.352053
-0.356927
-0.360896
-0.364116
-0.366717
-0.368806
-0.370462
-0.37173
-0.372619
-0.373134
-0.373342
-0.373369
-0.244449
-0.260751
-0.274955
-0.287202
-0.29751
-0.306131
-0.31331
-0.319261
-0.324173
-0.328214
-0.331527
-0.334234
-0.336432
-0.338193
-0.339555
-0.340521
-0.341091
-0.341332
-0.341373
-0.215939
-0.231287
-0.244742
-0.256403
-0.266272
-0.274574
-0.281533
-0.287343
-0.292179
-0.296191
-0.29951
-0.302247
-0.304489
-0.306301
-0.307715
-0.308728
-0.309335
-0.309599
-0.30965
-0.189379
-0.203571
-0.216084
-0.226981
-0.236248
-0.244087
-0.250698
-0.256254
-0.260911
-0.264803
-0.268049
-0.270745
-0.272971
-0.274785
-0.276211
-0.277243
-0.27787
-0.27815
-0.27821
-0.164503
-0.177384
-0.188803
-0.198791
-0.207327
-0.214583
-0.220736
-0.225939
-0.230327
-0.234019
-0.237118
-0.23971
-0.241866
-0.243637
-0.245041
-0.246067
-0.246698
-0.246987
-0.247052
-0.141049
-0.152509
-0.16272
-0.17169
-0.179389
-0.185965
-0.19157
-0.196335
-0.200375
-0.203795
-0.206683
-0.209115
-0.211153
-0.21284
-0.214192
-0.215192
-0.215817
-0.216107
-0.216172
-0.118772
-0.128736
-0.137659
-0.145528
-0.152309
-0.158127
-0.163107
-0.167362
-0.170988
-0.174073
-0.176694
-0.178915
-0.180791
-0.182359
-0.183633
-0.184595
-0.185212
-0.185506
-0.185558
-0.0974364
-0.105859
-0.113437
-0.120144
-0.125945
-0.13094
-0.135234
-0.138917
-0.14207
-0.144766
-0.147069
-0.149034
-0.150708
-0.152126
-0.153301
-0.154218
-0.154836
-0.155145
-0.155164
-0.0768579
-0.0837353
-0.0899413
-0.0954478
-0.100224
-0.10435
-0.107908
-0.110971
-0.113604
-0.115865
-0.117807
-0.119476
-0.120913
-0.122149
-0.123203
-0.124061
-0.124668
-0.124997
-0.124949
-0.0570444
-0.0624632
-0.0673285
-0.0716411
-0.0753862
-0.0786277
-0.0814306
-0.0838512
-0.0859395
-0.0877409
-0.0892971
-0.0906462
-0.0918238
-0.0928609
-0.0937784
-0.0945686
-0.0951817
-0.0955766
-0.0953434
-0.0378958
-0.0418298
-0.0453745
-0.0484892
-0.0511865
-0.0535221
-0.0555463
-0.0572999
-0.0588186
-0.0601348
-0.0612795
-0.0622837
-0.0631804
-0.0640052
-0.0647879
-0.0655631
-0.0665494
-0.0679603
-0.0656273
-0.0152904
-0.0171776
-0.0188718
-0.0203413
-0.0216122
-0.0227176
-0.0236816
-0.0245226
-0.0252559
-0.0258959
-0.0264577
-0.0269591
-0.0274263
-0.0279024
-0.0284568
-0.0292532
-0.0311639
-0.0374815
-0.0272713
)
;

boundaryField
{
    leftWall
    {
        type            fixedFluxPressure;
        gradient        uniform 0;
        value           nonuniform List<scalar> 
50
(
-910.69
-911.231
-914.513
-920.721
-929.897
-942.118
-957.373
-975.587
-1008.54
-1064.6
-1131.08
-1206.6
-1289.7
-1379.11
-1473.77
-1572.78
-1675.42
-1781.1
-1889.32
-1999.69
-2111.88
-2225.64
-2340.81
-2457.29
-2575.47
-2693.19
-2813.14
-2218.12
-248.265
-4.5748
0.658087
1.26957
1.23347
1.12698
1.02347
0.925823
0.834345
0.749103
0.669633
0.595369
0.525749
0.460199
0.39817
0.339194
0.282866
0.228746
0.176319
0.125044
0.0744791
0.0244165
)
;
    }
    rightWall
    {
        type            fixedFluxPressure;
        gradient        uniform 0;
        value           nonuniform List<scalar> 
50
(
-1.16551
-1.16547
-1.16509
-1.16436
-1.16324
-1.16173
-1.15979
-1.15743
-1.15304
-1.14516
-1.13535
-1.12363
-1.11005
-1.09467
-1.07753
-1.05872
-1.0383
-1.01635
-0.992949
-0.968197
-0.942185
-0.915015
-0.886792
-0.857621
-0.827611
-0.796869
-0.765503
-0.733617
-0.701312
-0.668686
-0.635832
-0.602832
-0.569765
-0.5367
-0.503702
-0.470827
-0.438122
-0.405626
-0.373369
-0.341373
-0.30965
-0.27821
-0.247052
-0.216172
-0.185558
-0.155164
-0.124949
-0.0953434
-0.0656273
-0.0272713
)
;
    }
    lowerWall
    {
        type            fixedFluxPressure;
        gradient        uniform 0;
        value           nonuniform List<scalar> 
62
(
-910.69
-906.519
-890.568
-860.033
-813.343
-749.149
-664.484
-560.208
-438.716
-222.458
-12.0515
-6.20782
-5.03099
-4.26148
-3.74325
-3.38593
-3.12275
-2.91881
-2.76307
-2.64739
-2.56947
-2.52896
-2.52197
-2.52197
-2.52283
-2.52099
-2.51584
-2.50746
-2.50105
-2.50488
-2.48332
-2.07046
-1.98316
-1.91661
-1.84286
-1.46092
-1.46145
-1.46432
-1.4701
-1.47938
-1.49319
-1.51328
-1.54683
-1.46092
-1.455
-1.44133
-1.42074
-1.39588
-1.36895
-1.34162
-1.31501
-1.2898
-1.26645
-1.24521
-1.22625
-1.20968
-1.1956
-1.18414
-1.17541
-1.16953
-1.16639
-1.16551
)
;
    }
    atmosphere
    {
        type            totalPressure;
        rho             rho;
        psi             none;
        gamma           1;
        p0              uniform 0;
        value           nonuniform List<scalar> 
46
(
0
0
0
0
0
0
0
0
0
0
0
0
0
0
0
0
0
0
0
-9.67924e-07
-3.71838e-05
-0.000118183
-0.000218934
-0.000291591
-0.000352571
-0.00044286
-0.000572431
-0.000853854
-0.00120015
-0.00149978
-0.00176996
-0.00201862
-0.00224809
-0.00245856
-0.00264989
-0.00282226
-0.00297643
-0.00311379
-0.00323671
-0.00334936
-0.00345961
-0.00358151
-0.00373742
-0.00396028
-0.00437561
-0.00361013
)
;
    }
    defaultFaces
    {
        type            empty;
    }
}


// ************************************************************************* //
