/*--------------------------------*- C++ -*----------------------------------*\
  =========                 |
  \\      /  F ield         | OpenFOAM: The Open Source CFD Toolbox
   \\    /   O peration     | Website:  https://openfoam.org
    \\  /    A nd           | Version:  9
     \\/     M anipulation  |
\*---------------------------------------------------------------------------*/
FoamFile
{
    format      ascii;
    class       surfaceScalarField;
    location    "0.05";
    object      phi;
}
// * * * * * * * * * * * * * * * * * * * * * * * * * * * * * * * * * * * * * //

dimensions      [0 3 -1 0 0 0 0];

internalField   nonuniform List<scalar> 
4432
(
-2.43111e-06
2.43111e-06
-6.24813e-06
3.81701e-06
-1.08228e-05
4.57472e-06
-1.57222e-05
4.89935e-06
-2.09607e-05
5.23847e-06
-2.6795e-05
5.83432e-06
-3.36919e-05
6.89693e-06
-4.21928e-05
8.50088e-06
-5.46637e-05
1.2471e-05
-8.25834e-05
2.79197e-05
-0.000134001
5.14174e-05
-0.000158122
2.41212e-05
-0.000122856
-3.52662e-05
-8.67227e-05
-3.6133e-05
-7.10444e-05
-1.56785e-05
-5.78885e-05
-1.31564e-05
-4.7237e-05
-1.06514e-05
-3.82113e-05
-9.02578e-06
-2.98166e-05
-8.3948e-06
-2.15093e-05
-8.3074e-06
-1.31062e-05
-8.40336e-06
-5.15658e-06
-7.94946e-06
-5.15671e-06
-3.06877e-06
5.49986e-06
-6.92866e-06
7.67689e-06
-1.1343e-05
8.98909e-06
-1.61402e-05
9.6965e-06
-2.13729e-05
1.04712e-05
-2.73189e-05
1.17803e-05
-3.45005e-05
1.40785e-05
-4.3927e-05
1.79274e-05
-5.71591e-05
2.57031e-05
-7.29439e-05
4.37045e-05
-8.32293e-05
6.17028e-05
-9.46499e-05
3.55422e-05
-0.000105563
-2.43531e-05
-8.55347e-05
-5.61617e-05
-6.7954e-05
-3.32592e-05
-5.56572e-05
-2.54536e-05
-4.58143e-05
-2.04943e-05
-3.7419e-05
-1.74209e-05
-2.9697e-05
-1.61169e-05
-2.21099e-05
-1.58944e-05
-1.435e-05
-1.61634e-05
-6.45545e-06
-1.58439e-05
-1.16123e-05
-3.46564e-06
8.96552e-06
-7.09242e-06
1.13037e-05
-1.10041e-05
1.29008e-05
-1.52465e-05
1.39389e-05
-1.98855e-05
1.51102e-05
-2.50905e-05
1.69853e-05
-3.11414e-05
2.01294e-05
-3.85063e-05
2.52923e-05
-4.71412e-05
3.4338e-05
-5.35924e-05
5.01556e-05
-5.44715e-05
6.25819e-05
-6.3561e-05
4.46318e-05
-8.42875e-05
-3.62682e-06
-7.66027e-05
-6.38466e-05
-6.26154e-05
-4.72462e-05
-5.1869e-05
-3.61999e-05
-4.31535e-05
-2.92097e-05
-3.56957e-05
-2.48785e-05
-2.89089e-05
-2.29038e-05
-2.22566e-05
-2.25466e-05
-1.5218e-05
-2.32022e-05
-7.36073e-06
-2.37011e-05
-1.89732e-05
-3.67631e-06
1.26418e-05
-7.12107e-06
1.47484e-05
-1.06148e-05
1.63945e-05
-1.4351e-05
1.76751e-05
-1.84231e-05
1.91823e-05
-2.29233e-05
2.14855e-05
-2.79463e-05
2.51524e-05
-3.35401e-05
3.08861e-05
-3.90686e-05
3.98665e-05
-4.18492e-05
5.29362e-05
-4.123e-05
6.19627e-05
-4.69588e-05
5.03606e-05
-6.61934e-05
1.56078e-05
-6.64084e-05
-6.36319e-05
-5.67445e-05
-5.69099e-05
-4.78995e-05
-4.5045e-05
-4.04143e-05
-3.66951e-05
-3.39467e-05
-3.13461e-05
-2.80805e-05
-2.877e-05
-2.22879e-05
-2.83391e-05
-1.58073e-05
-2.96829e-05
-7.798e-06
-3.17103e-05
-2.67714e-05
-3.71158e-06
1.63534e-05
-7.01334e-06
1.80502e-05
-1.01942e-05
1.95754e-05
-1.35212e-05
2.10021e-05
-1.71101e-05
2.27712e-05
-2.10105e-05
2.53859e-05
-2.52142e-05
2.9356e-05
-2.95781e-05
3.525e-05
-3.34187e-05
4.37071e-05
-3.49865e-05
5.4504e-05
-3.44519e-05
6.14282e-05
-3.78321e-05
5.37407e-05
-5.35908e-05
3.13664e-05
-5.69322e-05
-6.02907e-05
-5.09711e-05
-6.2871e-05
-4.41151e-05
-5.1901e-05
-3.78877e-05
-4.29225e-05
-3.23808e-05
-3.68527e-05
-2.7364e-05
-3.37869e-05
-2.23363e-05
-3.33668e-05
-1.6312e-05
-3.57074e-05
-8.00106e-06
-4.0021e-05
-3.47727e-05
-3.62593e-06
1.99793e-05
-6.80842e-06
2.12327e-05
-9.77993e-06
2.25469e-05
-1.28114e-05
2.40336e-05
-1.6025e-05
2.59847e-05
-1.945e-05
2.88109e-05
-2.3033e-05
3.2939e-05
-2.65737e-05
3.87907e-05
-2.95005e-05
4.66339e-05
-3.0702e-05
5.57054e-05
-3.04983e-05
6.12246e-05
-3.28686e-05
5.6111e-05
-4.37893e-05
4.2287e-05
-4.887e-05
-5.521e-05
-4.58251e-05
-6.59159e-05
-4.08111e-05
-5.6915e-05
-3.57658e-05
-4.79677e-05
-3.11398e-05
-4.14786e-05
-2.689e-05
-3.80369e-05
-2.25921e-05
-3.76646e-05
-1.7157e-05
-4.11426e-05
-8.63923e-06
-4.85386e-05
-4.34122e-05
-3.48356e-06
2.34629e-05
-6.57397e-06
2.43231e-05
-9.43141e-06
2.54043e-05
-1.22802e-05
2.68825e-05
-1.52324e-05
2.89369e-05
-1.83085e-05
3.1887e-05
-2.14428e-05
3.60734e-05
-2.44398e-05
4.17877e-05
-2.686e-05
4.90541e-05
-2.7995e-05
5.68404e-05
-2.81482e-05
6.13778e-05
-3.00216e-05
5.79844e-05
-3.69642e-05
4.92297e-05
-4.26063e-05
-4.95679e-05
-4.16672e-05
-6.6855e-05
-3.82119e-05
-6.03703e-05
-3.42089e-05
-5.19707e-05
-3.03582e-05
-4.53292e-05
-2.67976e-05
-4.15976e-05
-2.32815e-05
-4.11806e-05
-1.90294e-05
-4.53948e-05
-1.16467e-05
-5.59212e-05
-5.5059e-05
-3.34161e-06
2.68045e-05
-6.38437e-06
2.73659e-05
-9.20831e-06
2.82282e-05
-1.19711e-05
2.96452e-05
-1.47664e-05
3.17322e-05
-1.76106e-05
3.47311e-05
-2.04401e-05
3.89029e-05
-2.30851e-05
4.44327e-05
-2.52175e-05
5.11866e-05
-2.63849e-05
5.80078e-05
-2.68586e-05
6.18516e-05
-2.84582e-05
5.9584e-05
-3.25014e-05
5.32729e-05
-3.80682e-05
-4.40011e-05
-3.85771e-05
-6.6346e-05
-3.63404e-05
-6.26069e-05
-3.32366e-05
-5.50746e-05
-3.00577e-05
-4.8508e-05
-2.71149e-05
-4.45404e-05
-2.44731e-05
-4.38222e-05
-2.23959e-05
-4.74721e-05
-1.97748e-05
-5.85423e-05
-7.48338e-05
-2.32247e-06
2.32247e-06
-4.61018e-06
2.28781e-06
-6.2845e-06
1.67426e-06
-7.20427e-06
9.19792e-07
-7.54001e-06
3.35788e-07
-7.48037e-06
-5.97636e-08
-7.17259e-06
-3.07583e-07
-6.71806e-06
-4.54793e-07
-6.17773e-06
-5.40196e-07
-5.5892e-06
-5.8861e-07
-4.97423e-06
-6.1504e-07
-4.34317e-06
-6.30762e-07
-3.70226e-06
-6.41159e-07
-3.04736e-06
-6.54547e-07
-2.37497e-06
-6.72683e-07
-1.68122e-06
-6.93546e-07
-9.91472e-07
-6.89942e-07
-3.9333e-07
-5.98137e-07
-3.93493e-07
-2.79953e-06
5.12194e-06
-5.00195e-06
4.49035e-06
-6.48722e-06
3.15952e-06
-7.26876e-06
1.70123e-06
-7.52253e-06
5.89757e-07
-7.42329e-06
-1.59333e-07
-7.10035e-06
-6.30242e-07
-6.64123e-06
-9.14196e-07
-6.10224e-06
-1.07913e-06
-5.51856e-06
-1.1721e-06
-4.91115e-06
-1.22272e-06
-4.28992e-06
-1.25147e-06
-3.66063e-06
-1.2709e-06
-3.02136e-06
-1.29341e-06
-2.37132e-06
-1.32311e-06
-1.71274e-06
-1.35199e-06
-1.06758e-06
-1.33537e-06
-4.78854e-07
-1.187e-06
-8.72462e-07
-3.28089e-06
8.40278e-06
-5.34819e-06
6.5577e-06
-6.58717e-06
4.39852e-06
-7.19258e-06
2.30653e-06
-7.3453e-06
7.42647e-07
-7.19435e-06
-3.10522e-07
-6.85026e-06
-9.74149e-07
-6.38958e-06
-1.37505e-06
-5.86101e-06
-1.60774e-06
-5.29496e-06
-1.73799e-06
-4.70993e-06
-1.80804e-06
-4.11489e-06
-1.84615e-06
-3.51521e-06
-1.87091e-06
-2.91119e-06
-1.89713e-06
-2.30491e-06
-1.92963e-06
-1.70145e-06
-1.95536e-06
-1.11373e-06
-1.92329e-06
-5.482e-07
-1.75264e-06
-1.42074e-06
-3.85213e-06
1.22549e-05
-5.8114e-06
8.51697e-06
-6.79347e-06
5.38063e-06
-7.19219e-06
2.70514e-06
-7.21496e-06
7.65556e-07
-6.99292e-06
-5.32752e-07
-6.61602e-06
-1.35095e-06
-6.14641e-06
-1.84479e-06
-5.62366e-06
-2.13059e-06
-5.07253e-06
-2.289e-06
-4.50835e-06
-2.37244e-06
-3.93871e-06
-2.41551e-06
-3.36856e-06
-2.44128e-06
-2.79967e-06
-2.46582e-06
-2.23575e-06
-2.49371e-06
-1.68162e-06
-2.50947e-06
-1.13947e-06
-2.46557e-06
-5.89659e-07
-2.30254e-06
-2.01047e-06
-4.58942e-06
1.68443e-05
-6.44153e-06
1.0369e-05
-7.14554e-06
6.08469e-06
-7.31553e-06
2.87501e-06
-7.18819e-06
6.38302e-07
-6.8788e-06
-8.42302e-07
-6.45655e-06
-1.77316e-06
-5.96795e-06
-2.33348e-06
-5.44262e-06
-2.656e-06
-4.89915e-06
-2.83236e-06
-4.34926e-06
-2.92251e-06
-3.79886e-06
-2.96572e-06
-3.25212e-06
-2.98817e-06
-2.71138e-06
-3.00645e-06
-2.18045e-06
-3.02475e-06
-1.66188e-06
-3.02802e-06
-1.14878e-06
-2.97876e-06
-6.06359e-07
-2.84505e-06
-2.61688e-06
-5.64859e-06
2.24928e-05
-7.33789e-06
1.20583e-05
-7.69756e-06
6.4444e-06
-7.60388e-06
2.78122e-06
-7.30402e-06
3.38477e-07
-6.89013e-06
-1.25632e-06
-6.40853e-06
-2.25476e-06
-5.8888e-06
-2.85328e-06
-5.34992e-06
-3.19498e-06
-4.80394e-06
-3.37826e-06
-4.25866e-06
-3.46794e-06
-3.71801e-06
-3.50625e-06
-3.185e-06
-3.5213e-06
-2.66154e-06
-3.52983e-06
-2.15024e-06
-3.53613e-06
-1.65055e-06
-3.52769e-06
-1.14949e-06
-3.47988e-06
-6.07986e-07
-3.38665e-06
-3.22492e-06
-7.22387e-06
2.97167e-05
-8.63458e-06
1.34688e-05
-8.50895e-06
6.31878e-06
-8.09676e-06
2.36894e-06
-7.59607e-06
-1.62194e-07
-7.05828e-06
-1.79423e-06
-6.50147e-06
-2.8116e-06
-5.93645e-06
-3.41835e-06
-5.3708e-06
-3.76075e-06
-4.80972e-06
-3.9393e-06
-4.2569e-06
-4.02088e-06
-3.71402e-06
-4.04907e-06
-3.18249e-06
-4.0529e-06
-2.66302e-06
-4.04924e-06
-2.15607e-06
-4.04311e-06
-1.65795e-06
-4.02582e-06
-1.15276e-06
-3.98513e-06
-6.05408e-07
-3.93409e-06
-3.83037e-06
-1.02371e-05
3.99538e-05
-1.04327e-05
1.36643e-05
-9.60047e-06
5.48662e-06
-8.79794e-06
1.56638e-06
-8.06735e-06
-8.92749e-07
-7.38779e-06
-2.47386e-06
-6.74098e-06
-3.45845e-06
-6.11692e-06
-4.04242e-06
-5.51122e-06
-4.36655e-06
-4.92209e-06
-4.52842e-06
-4.34901e-06
-4.59403e-06
-3.79125e-06
-4.6068e-06
-3.24838e-06
-4.59581e-06
-2.71943e-06
-4.57817e-06
-2.20237e-06
-4.56019e-06
-1.69072e-06
-4.53749e-06
-1.16783e-06
-4.50807e-06
-6.06026e-07
-4.49598e-06
-4.43644e-06
-6.69834e-06
3.35029e-05
-1.31316e-05
3.37992e-05
-1.91763e-05
3.42729e-05
-2.49475e-05
3.54164e-05
-3.05866e-05
3.73713e-05
-3.61322e-05
4.02768e-05
-4.14761e-05
4.42468e-05
-4.63386e-05
4.92951e-05
-5.02821e-05
5.51301e-05
-5.29848e-05
6.07105e-05
-5.49597e-05
6.38265e-05
-5.72771e-05
6.19013e-05
-6.01038e-05
5.60996e-05
-7.01547e-05
-3.39502e-05
-7.43551e-05
-6.21457e-05
-7.25224e-05
-6.44396e-05
-6.83032e-05
-5.92938e-05
-6.34227e-05
-5.33885e-05
-5.89323e-05
-4.90308e-05
-5.58968e-05
-4.68576e-05
-5.6522e-05
-4.68471e-05
-6.62237e-05
-4.88404e-05
-4.36674e-05
-9.73901e-05
-6.29438e-06
3.97972e-05
-1.2412e-05
3.99167e-05
-1.81814e-05
4.00424e-05
-2.3623e-05
4.0858e-05
-2.88101e-05
4.25584e-05
-3.37621e-05
4.52288e-05
-3.83938e-05
4.88785e-05
-4.25094e-05
5.34108e-05
-4.58618e-05
5.84825e-05
-4.83462e-05
6.31948e-05
-5.02175e-05
6.56978e-05
-5.19391e-05
6.3623e-05
-5.30781e-05
5.72386e-05
-6.02673e-05
-2.6761e-05
-6.45203e-05
-5.78927e-05
-6.47718e-05
-6.41881e-05
-6.27068e-05
-6.13588e-05
-5.97267e-05
-5.63684e-05
-5.68752e-05
-5.18824e-05
-5.51125e-05
-4.86202e-05
-5.56148e-05
-4.63449e-05
-6.06907e-05
-4.37645e-05
-3.64513e-05
-6.7907e-05
-5.76689e-06
4.55641e-05
-1.13793e-05
4.55291e-05
-1.66803e-05
4.53435e-05
-2.16552e-05
4.58329e-05
-2.6332e-05
4.72352e-05
-3.07086e-05
4.96053e-05
-3.47133e-05
5.28831e-05
-3.82059e-05
5.69035e-05
-4.1032e-05
6.13086e-05
-4.31538e-05
6.53166e-05
-4.4801e-05
6.7345e-05
-4.64413e-05
6.52633e-05
-4.81118e-05
5.89091e-05
-5.2972e-05
-2.19009e-05
-5.64233e-05
-5.44415e-05
-5.73261e-05
-6.32853e-05
-5.64636e-05
-6.22212e-05
-5.47469e-05
-5.80851e-05
-5.29555e-05
-5.36737e-05
-5.17756e-05
-4.98e-05
-5.18586e-05
-4.62619e-05
-5.36518e-05
-4.19713e-05
-3.49872e-05
-5.51158e-05
-5.16005e-06
5.07242e-05
-1.01876e-05
5.05567e-05
-1.49454e-05
5.01012e-05
-1.94028e-05
5.02904e-05
-2.3558e-05
5.13904e-05
-2.73915e-05
5.34388e-05
-3.08407e-05
5.63323e-05
-3.38045e-05
5.98673e-05
-3.61871e-05
6.36912e-05
-3.79941e-05
6.71236e-05
-3.94736e-05
6.88244e-05
-4.11366e-05
6.69263e-05
-4.32259e-05
6.09984e-05
-4.68817e-05
-1.82451e-05
-4.95909e-05
-5.17325e-05
-5.06668e-05
-6.22094e-05
-5.04803e-05
-6.24077e-05
-4.95835e-05
-5.89819e-05
-4.84939e-05
-5.47634e-05
-4.76593e-05
-5.06345e-05
-4.74073e-05
-4.6514e-05
-4.77092e-05
-4.16696e-05
-3.50465e-05
-4.765e-05
-4.56046e-06
5.52846e-05
-9.00531e-06
5.50015e-05
-1.32159e-05
5.43118e-05
-1.71575e-05
5.4232e-05
-2.08125e-05
5.50454e-05
-2.41514e-05
5.67777e-05
-2.71193e-05
5.93002e-05
-2.96433e-05
6.23913e-05
-3.16666e-05
6.57145e-05
-3.32228e-05
6.86798e-05
-3.45546e-05
7.01562e-05
-3.61416e-05
6.85133e-05
-3.82481e-05
6.31048e-05
-4.12932e-05
-1.52001e-05
-4.35928e-05
-4.9433e-05
-4.4752e-05
-6.10503e-05
-4.49773e-05
-6.21824e-05
-4.46135e-05
-5.93456e-05
-4.39945e-05
-5.53825e-05
-4.33998e-05
-5.12293e-05
-4.29962e-05
-4.69175e-05
-4.27083e-05
-4.19575e-05
-3.56441e-05
-4.21107e-05
-4.00658e-06
5.92912e-05
-7.90954e-06
5.89045e-05
-1.16063e-05
5.80086e-05
-1.50639e-05
5.76895e-05
-1.82587e-05
5.82401e-05
-2.11582e-05
5.96772e-05
-2.37152e-05
6.18573e-05
-2.58763e-05
6.45523e-05
-2.76092e-05
6.74475e-05
-2.89593e-05
7.00299e-05
-3.01434e-05
7.13404e-05
-3.15772e-05
6.99471e-05
-3.35085e-05
6.50361e-05
-3.61675e-05
-1.25411e-05
-3.82513e-05
-4.73493e-05
-3.94671e-05
-5.98345e-05
-3.99474e-05
-6.17021e-05
-3.99239e-05
-5.93692e-05
-3.96167e-05
-5.56897e-05
-3.92006e-05
-5.16454e-05
-3.87674e-05
-4.73508e-05
-3.82675e-05
-4.24573e-05
-3.64099e-05
-3.75016e-05
-3.50682e-06
6.2798e-05
-6.9206e-06
6.23183e-05
-1.01517e-05
6.12397e-05
-1.31704e-05
6.07083e-05
-1.59526e-05
6.10223e-05
-1.84671e-05
6.21917e-05
-2.06741e-05
6.40643e-05
-2.25336e-05
6.64118e-05
-2.40274e-05
6.89413e-05
-2.52023e-05
7.12048e-05
-2.62423e-05
7.23804e-05
-2.74948e-05
7.11996e-05
-2.91892e-05
6.67305e-05
-3.15541e-05
-1.01763e-05
-3.34854e-05
-4.54182e-05
-3.47197e-05
-5.86003e-05
-3.5344e-05
-6.10778e-05
-3.55259e-05
-5.91873e-05
-3.54181e-05
-5.57976e-05
-3.51343e-05
-5.19292e-05
-3.47308e-05
-4.77543e-05
-3.41846e-05
-4.30035e-05
-3.71856e-05
-3.3409e-05
-3.06053e-06
6.58586e-05
-6.03795e-06
6.52957e-05
-8.8533e-06
6.4055e-05
-1.14805e-05
6.33355e-05
-1.38973e-05
6.34391e-05
-1.60757e-05
6.43701e-05
-1.79826e-05
6.59711e-05
-1.95873e-05
6.80166e-05
-2.08795e-05
7.02335e-05
-2.19015e-05
7.22268e-05
-2.28058e-05
7.32846e-05
-2.38812e-05
7.22751e-05
-2.5337e-05
6.81863e-05
-2.74472e-05
-8.06627e-06
-2.92316e-05
-4.36338e-05
-3.04372e-05
-5.73947e-05
-3.1121e-05
-6.03941e-05
-3.14122e-05
-5.88962e-05
-3.14237e-05
-5.5786e-05
-3.12349e-05
-5.2118e-05
-3.08845e-05
-4.81046e-05
-3.03669e-05
-4.3521e-05
-3.79016e-05
-2.96509e-05
-2.66425e-06
6.85228e-05
-5.25446e-06
6.78859e-05
-7.70086e-06
6.65014e-05
-9.9808e-06
6.56154e-05
-1.20747e-05
6.5533e-05
-1.39586e-05
6.62541e-05
-1.56053e-05
6.76178e-05
-1.69909e-05
6.94022e-05
-1.8109e-05
7.13515e-05
-1.89959e-05
7.31138e-05
-1.97765e-05
7.40653e-05
-2.06924e-05
7.3191e-05
-2.19319e-05
6.94258e-05
-2.38062e-05
-6.19204e-06
-2.54294e-05
-4.20105e-05
-2.65595e-05
-5.62647e-05
-2.72362e-05
-5.97174e-05
-2.75662e-05
-5.85662e-05
-2.76394e-05
-5.57128e-05
-2.75152e-05
-5.2242e-05
-2.72234e-05
-4.83964e-05
-2.67667e-05
-4.39777e-05
-3.85284e-05
-2.61398e-05
-2.31378e-06
7.08366e-05
-4.56138e-06
7.01335e-05
-6.6807e-06
6.86208e-05
-8.65239e-06
6.75871e-05
-1.04602e-05
6.73408e-05
-1.20843e-05
6.78782e-05
-1.35026e-05
6.90361e-05
-1.46963e-05
7.05959e-05
-1.56614e-05
7.23166e-05
-1.64283e-05
7.38806e-05
-1.7099e-05
7.4736e-05
-1.78766e-05
7.39686e-05
-1.89273e-05
7.04764e-05
-2.05777e-05
-4.5415e-06
-2.20205e-05
-4.05678e-05
-2.30319e-05
-5.52531e-05
-2.36476e-05
-5.91017e-05
-2.39626e-05
-5.82512e-05
-2.4054e-05
-5.56213e-05
-2.397e-05
-5.2326e-05
-2.37336e-05
-4.86328e-05
-2.335e-05
-4.43613e-05
-3.90546e-05
-2.28238e-05
-2.00558e-06
7.28422e-05
-3.9507e-06
7.20786e-05
-5.77957e-06
7.04496e-05
-7.47646e-06
6.9284e-05
-9.02893e-06
6.88933e-05
-1.04215e-05
6.92707e-05
-1.16367e-05
7.02513e-05
-1.266e-05
7.16192e-05
-1.34887e-05
7.31453e-05
-1.41482e-05
7.45401e-05
-1.47226e-05
7.53104e-05
-1.53827e-05
7.46287e-05
-1.62716e-05
7.13653e-05
-1.77059e-05
-3.1071e-06
-1.89487e-05
-3.93249e-05
-1.98025e-05
-5.43993e-05
-2.03103e-05
-5.85937e-05
-2.05664e-05
-5.79951e-05
-2.06422e-05
-5.55454e-05
-2.05784e-05
-5.23897e-05
-2.03917e-05
-4.88195e-05
-2.00849e-05
-4.46682e-05
-3.94764e-05
-1.96631e-05
-1.73752e-06
7.45797e-05
-3.41631e-06
7.37574e-05
-4.98611e-06
7.20194e-05
-6.43586e-06
7.07338e-05
-7.75796e-06
7.02154e-05
-8.94168e-06
7.04544e-05
-9.97389e-06
7.12835e-05
-1.08434e-05
7.24887e-05
-1.15487e-05
7.38505e-05
-1.21115e-05
7.5103e-05
-1.26019e-05
7.58009e-05
-1.31639e-05
7.51906e-05
-1.3917e-05
7.21185e-05
-1.51396e-05
-1.88464e-06
-1.61627e-05
-3.83016e-05
-1.68194e-05
-5.37425e-05
-1.71747e-05
-5.82383e-05
-1.7333e-05
-5.78367e-05
-1.73658e-05
-5.55125e-05
-1.73074e-05
-5.2448e-05
-1.71666e-05
-4.89602e-05
-1.69388e-05
-4.4896e-05
-3.97917e-05
-1.66236e-05
-1.50941e-06
7.60891e-05
-2.95475e-06
7.52027e-05
-4.29137e-06
7.3356e-05
-5.51552e-06
7.19579e-05
-6.62642e-06
7.13263e-05
-7.61885e-06
7.14469e-05
-8.48387e-06
7.21485e-05
-9.21281e-06
7.32177e-05
-9.80474e-06
7.44424e-05
-1.02793e-05
7.55776e-05
-1.06969e-05
7.62185e-05
-1.11796e-05
7.56733e-05
-1.18218e-05
7.27608e-05
-1.28405e-05
-8.65788e-07
-1.36196e-05
-3.75223e-05
-1.40302e-05
-5.33317e-05
-1.41828e-05
-5.80855e-05
-1.4206e-05
-5.78134e-05
-1.41744e-05
-5.5544e-05
-1.41141e-05
-5.25083e-05
-1.40212e-05
-4.9053e-05
-1.38788e-05
-4.50383e-05
-3.99949e-05
-1.36757e-05
-1.32422e-06
7.74133e-05
-2.56633e-06
7.64448e-05
-3.68934e-06
7.4479e-05
-4.70238e-06
7.2971e-05
-5.61526e-06
7.22392e-05
-6.42973e-06
7.22613e-05
-7.14049e-06
7.28593e-05
-7.73998e-06
7.38172e-05
-8.22664e-06
7.49291e-05
-8.61867e-06
7.59696e-05
-8.97331e-06
7.65731e-05
-9.39869e-06
7.60987e-05
-9.96224e-06
7.33242e-05
-1.0799e-05
-2.87692e-08
-1.12872e-05
-3.70339e-05
-1.13748e-05
-5.3244e-05
-1.12611e-05
-5.8199e-05
-1.11121e-05
-5.79623e-05
-1.10036e-05
-5.56524e-05
-1.09452e-05
-5.25666e-05
-1.09131e-05
-4.90851e-05
-1.08716e-05
-4.50797e-05
-4.00728e-05
-1.07938e-05
-1.19486e-06
7.86082e-05
-2.26096e-06
7.7511e-05
-3.17934e-06
7.53974e-05
-3.98574e-06
7.37774e-05
-4.70735e-06
7.29608e-05
-5.35433e-06
7.29083e-05
-5.92361e-06
7.34285e-05
-6.40611e-06
7.42997e-05
-6.79626e-06
7.53193e-05
-7.10881e-06
7.62821e-05
-7.40518e-06
7.68695e-05
-7.80598e-06
7.64995e-05
-8.38645e-06
7.39047e-05
-9.05126e-06
6.36202e-07
-9.1258e-06
-3.69591e-05
-8.76018e-06
-5.36094e-05
-8.29851e-06
-5.86606e-05
-7.94801e-06
-5.83127e-05
-7.76867e-06
-5.58316e-05
-7.73648e-06
-5.25987e-05
-7.79527e-06
-4.90263e-05
-7.88358e-06
-4.49914e-05
-4.0002e-05
-7.95438e-06
-1.15916e-06
7.97674e-05
-2.06661e-06
7.84184e-05
-2.76372e-06
7.60945e-05
-3.35136e-06
7.4365e-05
-3.8843e-06
7.34937e-05
-4.37715e-06
7.34011e-05
-4.82457e-06
7.3876e-05
-5.21245e-06
7.46876e-05
-5.52642e-06
7.56332e-05
-5.76888e-06
7.65246e-05
-5.9998e-06
7.71004e-05
-6.42155e-06
7.69212e-05
-7.26345e-06
7.47467e-05
-7.57932e-06
9.52111e-07
-6.99077e-06
-3.75474e-05
-5.99216e-06
-5.46079e-05
-5.10762e-06
-5.95451e-05
-4.56299e-06
-5.88572e-05
-4.3601e-06
-5.60343e-05
-4.41342e-06
-5.25453e-05
-4.61954e-06
-4.88201e-05
-4.88467e-06
-4.47262e-05
-3.97472e-05
-5.13936e-06
-1.363e-06
8.11304e-05
-2.0038e-06
7.90592e-05
-2.38997e-06
7.64807e-05
-2.74868e-06
7.47237e-05
-3.11762e-06
7.38626e-05
-3.49137e-06
7.37749e-05
-3.85747e-06
7.42421e-05
-4.19896e-06
7.50291e-05
-4.49517e-06
7.59294e-05
-4.72945e-06
7.67589e-05
-4.9286e-06
7.72996e-05
-5.28544e-06
7.72781e-05
-6.51424e-06
7.59755e-05
-6.0899e-06
5.27833e-07
-4.48348e-06
-3.91537e-05
-2.68474e-06
-5.64064e-05
-1.38712e-06
-6.08426e-05
-7.49509e-07
-5.94948e-05
-6.46728e-07
-5.61371e-05
-8.98196e-07
-5.22938e-05
-1.34282e-06
-4.83754e-05
-1.85337e-06
-4.42156e-05
-3.92605e-05
-2.34006e-06
-8.49869e-07
8.19803e-05
-1.34323e-06
7.95525e-05
-1.70015e-06
7.68376e-05
-2.04577e-06
7.50694e-05
-2.38447e-06
7.42013e-05
-2.72653e-06
7.4117e-05
-3.08295e-06
7.45985e-05
-3.45799e-06
7.54041e-05
-3.85085e-06
7.63223e-05
-4.25912e-06
7.71672e-05
-4.67523e-06
7.77157e-05
-5.1621e-06
7.77649e-05
-5.72733e-06
7.65406e-05
-4.08932e-06
-1.10999e-06
-9.04534e-07
-4.23385e-05
1.77356e-06
-5.90844e-05
3.27208e-06
-6.23411e-05
3.73584e-06
-5.99585e-05
3.50124e-06
-5.59024e-05
2.87003e-06
-5.16625e-05
2.05794e-06
-4.75632e-05
1.21401e-06
-4.33716e-05
-3.84844e-05
4.3802e-07
-3.12992e-07
8.22933e-05
-8.93485e-07
8.0133e-05
-1.29689e-06
7.7241e-05
-1.62726e-06
7.53997e-05
-1.93865e-06
7.45127e-05
-2.27346e-06
7.44518e-05
-2.65772e-06
7.49827e-05
-3.11586e-06
7.58622e-05
-3.67818e-06
7.68846e-05
-4.38853e-06
7.78775e-05
-5.35088e-06
7.86781e-05
-6.46675e-06
7.88808e-05
-5.11535e-06
7.51892e-05
3.03399e-07
-6.52857e-06
5.26579e-06
-4.7301e-05
8.31166e-06
-6.21302e-05
9.36884e-06
-6.33982e-05
9.1101e-06
-5.96998e-05
8.15437e-06
-5.49466e-05
6.89479e-06
-5.04028e-05
5.55907e-06
-4.62275e-05
4.2855e-06
-4.2098e-05
-3.7362e-05
3.16321e-06
-2.58315e-06
8.48764e-05
-2.04774e-06
7.95976e-05
-1.70813e-06
7.69014e-05
-1.70957e-06
7.54012e-05
-1.91146e-06
7.47146e-05
-2.24714e-06
7.47875e-05
-2.67676e-06
7.54124e-05
-3.20859e-06
7.63941e-05
-3.89092e-06
7.75669e-05
-4.73863e-06
7.87253e-05
-6.31754e-06
8.0257e-05
-9.54386e-06
8.21071e-05
3.64458e-06
6.20007e-05
1.15793e-05
-1.44632e-05
1.6565e-05
-5.22866e-05
1.80133e-05
-6.35787e-05
1.72112e-05
-6.25961e-05
1.53788e-05
-5.78672e-05
1.32235e-05
-5.27912e-05
1.10711e-05
-4.82504e-05
9.06681e-06
-4.42231e-05
7.28488e-06
-4.0316e-05
-3.58525e-05
5.7754e-06
-7.17739e-06
9.20538e-05
-2.78777e-06
7.5208e-05
-1.64584e-06
7.57595e-05
-1.57047e-06
7.53258e-05
-1.93891e-06
7.50831e-05
-2.47567e-06
7.53242e-05
-3.03613e-06
7.59729e-05
-3.59849e-06
7.69565e-05
-4.1701e-06
7.81385e-05
-4.59545e-06
7.91507e-05
-4.81631e-06
8.04778e-05
-3.13909e-06
8.04299e-05
1.79113e-05
4.09503e-05
2.83364e-05
-2.48882e-05
3.19906e-05
-5.59407e-05
2.99768e-05
-6.15648e-05
2.60315e-05
-5.86509e-05
2.19777e-05
-5.38133e-05
1.83176e-05
-4.9131e-05
1.51342e-05
-4.5067e-05
1.24035e-05
-4.14923e-05
1.00928e-05
-3.80052e-05
-3.39532e-05
8.19358e-06
-3.82794e-06
9.58816e-05
-1.18219e-06
7.25622e-05
-4.68281e-08
7.4624e-05
-1.02754e-07
7.53819e-05
-5.6154e-07
7.55416e-05
-1.1149e-06
7.58777e-05
-1.61527e-06
7.64731e-05
-1.96082e-06
7.73021e-05
-1.9023e-06
7.80801e-05
-5.83134e-08
7.73066e-05
1.02178e-05
7.02017e-05
3.36198e-05
5.7028e-05
5.60646e-05
1.85054e-05
5.80812e-05
-2.69048e-05
5.08015e-05
-4.8661e-05
4.20317e-05
-5.2795e-05
3.42557e-05
-5.08749e-05
2.79178e-05
-4.74753e-05
2.28333e-05
-4.40465e-05
1.87172e-05
-4.09508e-05
1.53428e-05
-3.81178e-05
1.25675e-05
-3.52298e-05
-3.17126e-05
1.0327e-05
8.59109e-06
8.72906e-05
6.94099e-06
7.42123e-05
8.4588e-06
7.31063e-05
1.03733e-05
7.34673e-05
1.26107e-05
7.33043e-05
1.53094e-05
7.31789e-05
1.86748e-05
7.31077e-05
2.31619e-05
7.2815e-05
2.9788e-05
7.1454e-05
4.02887e-05
6.6806e-05
5.46948e-05
5.57957e-05
7.38304e-05
3.78924e-05
8.26893e-05
9.6466e-06
7.49519e-05
-1.91673e-05
6.14781e-05
-3.51872e-05
4.92954e-05
-4.06123e-05
3.95884e-05
-4.11677e-05
3.20514e-05
-3.99382e-05
2.61629e-05
-3.8158e-05
2.14774e-05
-3.62652e-05
1.7682e-05
-3.43224e-05
1.45848e-05
-3.21324e-05
-2.9225e-05
1.20973e-05
1.01341e-05
7.71568e-05
1.17414e-05
7.26048e-05
1.41471e-05
7.07007e-05
1.77294e-05
6.98848e-05
2.20436e-05
6.89902e-05
2.71586e-05
6.80636e-05
3.3309e-05
6.69576e-05
4.08775e-05
6.52464e-05
5.02782e-05
6.20532e-05
6.13098e-05
5.57745e-05
7.25522e-05
4.45533e-05
8.18681e-05
2.85766e-05
8.28809e-05
8.63388e-06
7.41983e-05
-1.04846e-05
6.20894e-05
-2.30783e-05
5.08219e-05
-2.93447e-05
4.15089e-05
-3.18546e-05
3.40533e-05
-3.24825e-05
2.80901e-05
-3.21948e-05
2.32679e-05
-3.1443e-05
1.93204e-05
-3.03747e-05
1.6076e-05
-2.88879e-05
-2.66066e-05
1.34577e-05
7.62677e-06
6.953e-05
1.12889e-05
6.89425e-05
1.52137e-05
6.67758e-05
1.98149e-05
6.52835e-05
2.50061e-05
6.3799e-05
3.08656e-05
6.22042e-05
3.75532e-05
6.027e-05
4.52295e-05
5.757e-05
5.38584e-05
5.34243e-05
6.27642e-05
4.68688e-05
7.02925e-05
3.70251e-05
7.46045e-05
2.42647e-05
7.34616e-05
9.77692e-06
6.6881e-05
-3.90392e-06
5.78597e-05
-1.4057e-05
4.88944e-05
-2.03793e-05
4.09913e-05
-2.39514e-05
3.43223e-05
-2.58136e-05
2.87671e-05
-2.66396e-05
2.41382e-05
-2.68141e-05
2.02666e-05
-2.6503e-05
1.70352e-05
-2.56564e-05
-2.39701e-05
1.43987e-05
5.52885e-06
6.40011e-05
1.0095e-05
6.43764e-05
1.46533e-05
6.22171e-05
1.95511e-05
6.03858e-05
2.48122e-05
5.85377e-05
3.04959e-05
5.65207e-05
3.6672e-05
5.40938e-05
4.33455e-05
5.08965e-05
5.03082e-05
4.64618e-05
5.6912e-05
4.02652e-05
6.19665e-05
3.19706e-05
6.43196e-05
2.19117e-05
6.31178e-05
1.09788e-05
5.85676e-05
6.4641e-07
5.21787e-05
-7.66806e-06
4.54144e-05
-1.3615e-05
3.90605e-05
-1.75975e-05
3.34018e-05
-2.01549e-05
2.84795e-05
-2.17172e-05
2.42377e-05
-2.25722e-05
2.05985e-05
-2.28637e-05
1.75025e-05
-2.25604e-05
-2.14082e-05
1.49406e-05
4.63838e-06
5.93626e-05
9.21105e-06
5.98037e-05
1.37744e-05
5.76537e-05
1.85114e-05
5.56489e-05
2.3448e-05
5.3601e-05
2.86047e-05
5.13641e-05
3.39844e-05
4.87141e-05
3.95138e-05
4.53672e-05
4.49545e-05
4.10213e-05
4.98101e-05
3.54097e-05
5.33429e-05
2.84379e-05
5.48743e-05
2.03804e-05
5.4002e-05
1.18511e-05
5.09157e-05
3.73282e-06
4.64297e-05
-3.18201e-06
4.14046e-05
-8.58992e-06
3.64116e-05
-1.26046e-05
3.17411e-05
-1.54844e-05
2.75092e-05
-1.74853e-05
2.37409e-05
-1.88038e-05
2.04232e-05
-1.9546e-05
1.75436e-05
-1.96808e-05
-1.89883e-05
1.51237e-05
4.21836e-06
5.51442e-05
8.53617e-06
5.54858e-05
1.2836e-05
5.33541e-05
1.72111e-05
5.12738e-05
2.16724e-05
4.914e-05
2.62114e-05
4.6825e-05
3.07947e-05
4.41308e-05
3.53227e-05
4.08393e-05
3.95852e-05
3.67588e-05
4.32309e-05
3.1764e-05
4.58072e-05
2.58617e-05
4.69159e-05
1.92719e-05
4.63541e-05
1.2413e-05
4.42602e-05
5.82672e-06
4.10874e-05
-9.13322e-09
3.73537e-05
-4.85625e-06
3.34606e-05
-8.71156e-06
2.96595e-05
-1.16833e-05
2.60874e-05
-1.39131e-05
2.28089e-05
-1.55253e-05
1.98509e-05
-1.65879e-05
1.72325e-05
-1.70624e-05
-1.67534e-05
1.49977e-05
3.90867e-06
5.12357e-05
7.91331e-06
5.14812e-05
1.18571e-05
4.94103e-05
1.58055e-05
4.73253e-05
1.97593e-05
4.51861e-05
2.36982e-05
4.2886e-05
2.75746e-05
4.02546e-05
3.12894e-05
3.71246e-05
3.46736e-05
3.33746e-05
3.74843e-05
2.89533e-05
3.94395e-05
2.39066e-05
4.03037e-05
1.84077e-05
3.99734e-05
1.27433e-05
3.85402e-05
7.25992e-06
3.62663e-05
2.26469e-06
3.34746e-05
-2.06449e-06
3.0441e-05
-5.67803e-06
2.7368e-05
-8.61022e-06
2.43866e-05
-1.09317e-05
2.15752e-05
-1.27139e-05
1.89807e-05
-1.39934e-05
1.66414e-05
-1.47231e-05
-1.47265e-05
1.46145e-05
3.60235e-06
4.76333e-05
7.26908e-06
4.78145e-05
1.08353e-05
4.58439e-05
1.43541e-05
4.38066e-05
1.78232e-05
4.17169e-05
2.12203e-05
3.9489e-05
2.44961e-05
3.6979e-05
2.75635e-05
3.40572e-05
3.02922e-05
3.0646e-05
3.25145e-05
2.67311e-05
3.40516e-05
2.23696e-05
3.47627e-05
1.76966e-05
3.45929e-05
1.2913e-05
3.36029e-05
8.24993e-06
3.19531e-05
3.91441e-06
2.9847e-05
4.15548e-08
2.74772e-05
-3.30819e-06
2.5e-05
-6.13296e-06
2.25293e-05
-8.46089e-06
2.0143e-05
-1.03277e-05
1.78957e-05
-1.1746e-05
1.58345e-05
-1.26619e-05
-1.2915e-05
1.40231e-05
3.27647e-06
4.43569e-05
6.59342e-06
4.44972e-05
9.78749e-06
4.26497e-05
1.28984e-05
4.06956e-05
1.59251e-05
3.86902e-05
1.88469e-05
3.65673e-05
2.16193e-05
3.42066e-05
2.41703e-05
3.15062e-05
2.64016e-05
2.84148e-05
2.81968e-05
2.4936e-05
2.94405e-05
2.11258e-05
3.00469e-05
1.70902e-05
2.99862e-05
1.29736e-05
2.92994e-05
8.93664e-06
2.80889e-05
5.12492e-06
2.64872e-05
1.64326e-06
2.46303e-05
-1.45126e-06
2.26358e-05
-4.13846e-06
2.05983e-05
-6.42334e-06
1.85888e-05
-8.31809e-06
1.66614e-05
-9.81859e-06
1.48662e-05
-1.08666e-05
-1.13162e-05
1.32675e-05
2.93634e-06
4.14203e-05
5.90358e-06
4.15297e-05
8.73955e-06
3.98137e-05
1.14718e-05
3.79633e-05
1.41009e-05
3.60612e-05
1.66092e-05
3.40591e-05
1.8959e-05
3.18568e-05
2.10931e-05
2.93722e-05
2.2938e-05
2.657e-05
2.44124e-05
2.34615e-05
2.54405e-05
2.00976e-05
2.59688e-05
1.6562e-05
2.59809e-05
1.29615e-05
2.55055e-05
9.41204e-06
2.46101e-05
6.02031e-06
2.33849e-05
2.86845e-06
2.19257e-05
7.9902e-09
2.03214e-05
-2.53405e-06
1.8648e-05
-4.7499e-06
1.69669e-05
-6.63689e-06
1.53282e-05
-8.17987e-06
1.37804e-05
-9.31875e-06
-9.92082e-06
1.23851e-05
2.59691e-06
3.88231e-05
5.22221e-06
3.89043e-05
7.71626e-06
3.73196e-05
1.00989e-05
3.55808e-05
1.23712e-05
3.3789e-05
1.45184e-05
3.19118e-05
1.65102e-05
2.9865e-05
1.83017e-05
2.75808e-05
1.98384e-05
2.50334e-05
2.10631e-05
2.22369e-05
2.19249e-05
1.92358e-05
2.23897e-05
1.60971e-05
2.24488e-05
1.29024e-05
2.21226e-05
9.73821e-06
2.14575e-05
6.6854e-06
2.05165e-05
3.80951e-06
1.93681e-05
1.15646e-06
1.80801e-05
-1.24595e-06
1.67119e-05
-3.38159e-06
1.53148e-05
-5.23978e-06
1.39333e-05
-6.79831e-06
1.26118e-05
-7.99717e-06
-8.71605e-06
1.14071e-05
2.27148e-06
3.65516e-05
4.56616e-06
3.66098e-05
6.73504e-06
3.51508e-05
8.79425e-06
3.35217e-05
1.07446e-05
3.18386e-05
1.25741e-05
3.00823e-05
1.42583e-05
2.81809e-05
1.57626e-05
2.60766e-05
1.70464e-05
2.37495e-05
1.80692e-05
2.12141e-05
1.87963e-05
1.85088e-05
1.92056e-05
1.56878e-05
1.92927e-05
1.28153e-05
1.90726e-05
9.95831e-06
1.85782e-05
7.17986e-06
1.78545e-05
4.5333e-06
1.69519e-05
2.05918e-06
1.59215e-05
-2.15476e-07
1.48093e-05
-2.26933e-06
1.36575e-05
-4.0879e-06
1.25036e-05
-5.64436e-06
1.1387e-05
-6.8805e-06
-7.68751e-06
1.03584e-05
1.96388e-06
3.45878e-05
3.9413e-06
3.46324e-05
5.80283e-06
3.32893e-05
7.56268e-06
3.17619e-05
9.22101e-06
3.01802e-05
1.07678e-05
2.85355e-05
1.21837e-05
2.67651e-05
1.34418e-05
2.48184e-05
1.45123e-05
2.26791e-05
1.5366e-05
2.03605e-05
1.5979e-05
1.78958e-05
1.63369e-05
1.53299e-05
1.64377e-05
1.27146e-05
1.62929e-05
1.01032e-05
1.59263e-05
7.5465e-06
1.53711e-05
5.08868e-06
1.46648e-05
2.76551e-06
1.38453e-05
6.0405e-07
1.295e-05
-1.37394e-06
1.20106e-05
-3.14844e-06
1.10579e-05
-4.69165e-06
1.01258e-05
-5.9484e-06
-6.82056e-06
9.25884e-06
1.66929e-06
3.29186e-05
3.34461e-06
3.29571e-05
4.9183e-06
3.17156e-05
6.40167e-06
3.02785e-05
7.79386e-06
2.87881e-05
9.08652e-06
2.72429e-05
1.02644e-05
2.55873e-05
1.13072e-05
2.37756e-05
1.21928e-05
2.17935e-05
1.29001e-05
1.96531e-05
1.34128e-05
1.73832e-05
1.37212e-05
1.50216e-05
1.38247e-05
1.26112e-05
1.37324e-05
1.01956e-05
1.34622e-05
7.81677e-06
1.30388e-05
5.51212e-06
1.24909e-05
3.31347e-06
1.18478e-05
1.24716e-06
1.11376e-05
-6.6365e-07
1.03836e-05
-2.39442e-06
9.60923e-06
-3.91731e-06
8.84299e-06
-5.18218e-06
-6.10104e-06
8.12346e-06
1.38231e-06
3.15363e-05
2.77212e-06
3.15673e-05
4.07819e-06
3.04095e-05
5.30631e-06
2.90504e-05
6.45438e-06
2.764e-05
7.51588e-06
2.61814e-05
8.47942e-06
2.46237e-05
9.32999e-06
2.2925e-05
1.00514e-05
2.10722e-05
1.06285e-05
1.9076e-05
1.10499e-05
1.69618e-05
1.13094e-05
1.47622e-05
1.14072e-05
1.25135e-05
1.13505e-05
1.02525e-05
1.11529e-05
8.01433e-06
1.08337e-05
5.83134e-06
1.04152e-05
3.7319e-06
9.92095e-06
1.74147e-06
9.37178e-06
-1.14481e-07
8.78184e-06
-1.8045e-06
8.16629e-06
-3.30181e-06
7.54897e-06
-4.5649e-06
-5.51562e-06
6.96355e-06
1.10417e-06