/*--------------------------------*- C++ -*----------------------------------*\
  =========                 |
  \\      /  F ield         | OpenFOAM: The Open Source CFD Toolbox
   \\    /   O peration     | Website:  https://openfoam.org
    \\  /    A nd           | Version:  9
     \\/     M anipulation  |
\*---------------------------------------------------------------------------*/
FoamFile
{
    format      ascii;
    class       volVectorField;
    location    "0.05";
    object      U;
}
// * * * * * * * * * * * * * * * * * * * * * * * * * * * * * * * * * * * * * //

dimensions      [0 1 -1 0 0 0 0];

internalField   nonuniform List<vector> 
2268
(
(-0.0128207 0.00800922 0)
(-0.0481052 0.0123625 0)
(-0.0969616 0.0145888 0)
(-0.151074 0.0153531 0)
(-0.208621 0.0162436 0)
(-0.271607 0.0179897 0)
(-0.341846 0.0210086 0)
(-0.426142 0.0251624 0)
(-0.557304 0.0405719 0)
(-0.696434 0.104622 0)
(-0.987594 0.226063 0)
(-1.96922 0.260736 0)
(-1.81133 -0.1738 0)
(-1.1364 -0.151307 0)
(-0.889212 -0.0429805 0)
(-0.746646 -0.0421198 0)
(-0.595369 -0.0341142 0)
(-0.487975 -0.0289477 0)
(-0.388208 -0.0272341 0)
(-0.292989 -0.0274065 0)
(-0.197231 -0.0280724 0)
(-0.103437 -0.0262814 0)
(-0.0280827 -0.0161368 0)
(-0.0176152 0.0210367 0)
(-0.055947 0.0317884 0)
(-0.103391 0.0377878 0)
(-0.156058 0.0405974 0)
(-0.212871 0.043601 0)
(-0.275975 0.0488788 0)
(-0.348596 0.058293 0)
(-0.43887 0.073866 0)
(-0.571757 0.108862 0)
(-0.726707 0.206632 0)
(-0.860859 0.31668 0)
(-1.00088 0.144228 0)
(-1.26144 -0.170326 0)
(-1.12221 -0.270155 0)
(-0.847024 -0.142373 0)
(-0.708424 -0.108456 0)
(-0.574513 -0.0876045 0)
(-0.473883 -0.0742495 0)
(-0.382557 -0.0689821 0)
(-0.295903 -0.06823 0)
(-0.208487 -0.0689874 0)
(-0.118793 -0.0656755 0)
(-0.038009 -0.0446737 0)
(-0.0213977 0.0386068 0)
(-0.0599318 0.0513111 0)
(-0.102426 0.059564 0)
(-0.148959 0.0644372 0)
(-0.199366 0.0697636 0)
(-0.255068 0.0785018 0)
(-0.318156 0.093547 0)
(-0.392711 0.118659 0)
(-0.488147 0.165376 0)
(-0.581869 0.257145 0)
(-0.614697 0.334846 0)
(-0.60717 0.211691 0)
(-0.864949 -0.106842 0)
(-1.02964 -0.330228 0)
(-0.767666 -0.223359 0)
(-0.654529 -0.169433 0)
(-0.538198 -0.136152 0)
(-0.448337 -0.115814 0)
(-0.367961 -0.106803 0)
(-0.29241 -0.105072 0)
(-0.215219 -0.107016 0)
(-0.130302 -0.106358 0)
(-0.0453851 -0.081625 0)
(-0.0236932 0.0581966 0)
(-0.0620877 0.070313 0)
(-0.100588 0.0793315 0)
(-0.14167 0.0857567 0)
(-0.186056 0.0930888 0)
(-0.234745 0.104498 0)
(-0.28873 0.123147 0)
(-0.349044 0.153095 0)
(-0.41654 0.202273 0)
(-0.471594 0.279874 0)
(-0.47244 0.334636 0)
(-0.454448 0.257151 0)
(-0.585044 0.0374464 0)
(-0.910756 -0.347738 0)
(-0.683833 -0.285325 0)
(-0.598574 -0.221567 0)
(-0.500795 -0.179291 0)
(-0.422717 -0.152865 0)
(-0.353162 -0.140438 0)
(-0.288105 -0.138126 0)
(-0.219952 -0.143035 0)
(-0.137873 -0.149032 0)
(-0.0485407 -0.123133 0)
(-0.0243323 0.0782516 0)
(-0.0622667 0.0885613 0)
(-0.0978518 0.0972638 0)
(-0.134656 0.104701 0)
(-0.174002 0.113647 0)
(-0.21668 0.127038 0)
(-0.262988 0.147829 0)
(-0.31235 0.179497 0)
(-0.362371 0.226737 0)
(-0.398444 0.290559 0)
(-0.394699 0.332307 0)
(-0.380903 0.281408 0)
(-0.446601 0.141535 0)
(-0.766875 -0.336109 0)
(-0.604192 -0.326632 0)
(-0.545149 -0.263692 0)
(-0.465893 -0.21617 0)
(-0.399613 -0.185035 0)
(-0.340162 -0.169679 0)
(-0.284542 -0.167294 0)
(-0.224363 -0.177024 0)
(-0.143918 -0.193157 0)
(-0.0493444 -0.161879 0)
(-0.0237681 0.0981027 0)
(-0.0609 0.106051 0)
(-0.0945788 0.113744 0)
(-0.12841 0.121687 0)
(-0.163951 0.131815 0)
(-0.201868 0.146596 0)
(-0.242108 0.168571 0)
(-0.283452 0.200402 0)
(-0.322664 0.244367 0)
(-0.349678 0.297417 0)
(-0.348274 0.33029 0)
(-0.338637 0.296778 0)
(-0.378595 0.206109 0)
(-0.628198 -0.311955 0)
(-0.534442 -0.349833 0)
(-0.498203 -0.295271 0)
(-0.436036 -0.24633 0)
(-0.380758 -0.212152 0)
(-0.330412 -0.194502 0)
(-0.283343 -0.192477 0)
(-0.231095 -0.208598 0)
(-0.154277 -0.239732 0)
(-0.0594808 -0.207053 0)
(-0.0225942 0.117302 0)
(-0.0587686 0.122909 0)
(-0.0914638 0.129282 0)
(-0.123578 0.137295 0)
(-0.156594 0.148157 0)
(-0.19107 0.163803 0)
(-0.226816 0.186294 0)
(-0.262481 0.217529 0)
(-0.295007 0.258174 0)
(-0.317675 0.303138 0)
(-0.319802 0.329829 0)
(-0.314078 0.307859 0)
(-0.341389 0.250908 0)
(-0.521926 -0.282154 0)
(-0.479213 -0.359517 0)
(-0.460537 -0.317464 0)
(-0.413306 -0.270279 0)
(-0.367743 -0.234628 0)
(-0.325406 -0.215239 0)
(-0.286278 -0.213423 0)
(-0.243245 -0.235281 0)
(-0.179921 -0.28647 0)
(-0.116367 -0.288041 0)
(-0.0214228 0.135731 0)
(-0.0568135 0.13949 0)
(-0.0892765 0.144631 0)
(-0.120704 0.15243 0)
(-0.152341 0.163644 0)
(-0.18462 0.179743 0)
(-0.217299 0.202328 0)
(-0.249106 0.232652 0)
(-0.277519 0.270326 0)
(-0.298077 0.309346 0)
(-0.302983 0.331786 0)
(-0.300758 0.317367 0)
(-0.3215 0.280685 0)
(-0.447885 -0.251203 0)
(-0.438459 -0.359845 0)
(-0.432267 -0.332732 0)
(-0.397939 -0.289528 0)
(-0.360804 -0.2537 0)
(-0.325441 -0.232881 0)
(-0.293696 -0.230046 0)
(-0.262077 -0.25226 0)
(-0.233609 -0.315711 0)
(-0.258025 -0.364633 0)
(-0.0131424 0.00675894 0)
(-0.0403945 0.00678714 0)
(-0.0631422 0.00492985 0)
(-0.077763 0.00268598 0)
(-0.0846587 0.000986171 0)
(-0.0860395 -0.000152714 0)
(-0.0837979 -0.000863563 0)
(-0.0793751 -0.00128438 0)
(-0.0736547 -0.00152856 0)
(-0.0671864 -0.00166876 0)
(-0.0603036 -0.00174589 0)
(-0.0531856 -0.00179188 0)
(-0.0459246 -0.00182121 0)
(-0.0385307 -0.00186114 0)
(-0.0309594 -0.00191859 0)
(-0.0231587 -0.00199686 0)
(-0.0152367 -0.00201891 0)
(-0.00775827 -0.00177319 0)
(-0.00210888 -0.0011962 0)
(-0.0169765 0.01813 0)
(-0.0463527 0.0170671 0)
(-0.0671008 0.012308 0)
(-0.079727 0.00670611 0)
(-0.0852256 0.00240608 0)
(-0.0858008 -0.000491338 0)
(-0.0832065 -0.00230922 0)
(-0.0786136 -0.00340093 0)
(-0.072838 -0.00403559 0)
(-0.0663804 -0.00439465 0)
(-0.0595542 -0.00459123 0)
(-0.0525283 -0.00470518 0)
(-0.0453867 -0.00478276 0)
(-0.0381466 -0.004877 0)
(-0.0307879 -0.00500639 0)
(-0.0233008 -0.00514679 0)
(-0.0158068 -0.00510467 0)
(-0.00873086 -0.00446238 0)
(-0.00275805 -0.00302145 0)
(-0.0211528 0.0324297 0)
(-0.052001 0.026972 0)
(-0.0697538 0.0186755 0)
(-0.0798989 0.00997552 0)
(-0.0838046 0.00337268 0)
(-0.0835111 -0.00108118 0)
(-0.0804854 -0.00388516 0)
(-0.0757577 -0.00557852 0)
(-0.0700287 -0.00656221 0)
(-0.0637283 -0.00711528 0)
(-0.0571284 -0.00741518 0)
(-0.0503782 -0.00758156 0)
(-0.0435529 -0.00769252 0)
(-0.0366786 -0.00781587 0)
(-0.0297624 -0.00797459 0)
(-0.0228338 -0.00811247 0)
(-0.0159982 -0.00797986 0)
(-0.00947243 -0.00714988 0)
(-0.00334823 -0.00549982 0)
(-0.0261443 0.0499276 0)
(-0.0589596 0.036627 0)
(-0.0735591 0.0240223 0)
(-0.0809597 0.0124023 0)
(-0.0829449 0.0038096 0)
(-0.0815426 -0.00196859 0)
(-0.0779506 -0.0056113 0)
(-0.0730037 -0.00781203 0)
(-0.0672673 -0.00908824 0)
(-0.0610917 -0.00979916 0)
(-0.0546994 -0.0101779 0)
(-0.0482144 -0.0103792 0)
(-0.0417013 -0.0105059 0)
(-0.0351918 -0.0106337 0)
(-0.0287124 -0.0107846 0)
(-0.0223096 -0.0108844 0)
(-0.0160481 -0.0106838 0)
(-0.0099494 -0.00983911 0)
(-0.00372483 -0.00831649 0)
(-0.0323434 0.0703045 0)
(-0.0681585 0.0459776 0)
(-0.079052 0.0281876 0)
(-0.0834956 0.0138184 0)
(-0.083332 0.00358064 0)
(-0.0806248 -0.00323963 0)
(-0.0763162 -0.00753376 0)
(-0.0710303 -0.0101225 0)
(-0.0651872 -0.0116173 0)
(-0.0590506 -0.0124409 0)
(-0.0527893 -0.0128691 0)
(-0.0464982 -0.0130835 0)
(-0.0402285 -0.0132047 0)
(-0.0340116 -0.0133123 0)
(-0.0278801 -0.0134266 0)
(-0.0218759 -0.0134698 0)
(-0.0160148 -0.0132317 0)
(-0.0101731 -0.0124947 0)
(-0.00386976 -0.0112384 0)
(-0.0410318 0.0952549 0)
(-0.0813255 0.0552783 0)
(-0.0869954 0.0309503 0)
(-0.0880354 0.0140747 0)
(-0.0854411 0.00258506 0)
(-0.0812153 -0.00496358 0)
(-0.076021 -0.00969831 0)
(-0.0702514 -0.0125424 0)
(-0.0641731 -0.0141736 0)
(-0.0579569 -0.0150582 0)
(-0.0517145 -0.0155023 0)
(-0.0455089 -0.0157056 0)
(-0.0393746 -0.0158007 0)
(-0.0333356 -0.0158688 0)
(-0.0274178 -0.0159293 0)
(-0.0216426 -0.0159136 0)
(-0.0159814 -0.0156716 0)
(-0.010225 -0.0151207 0)
(-0.00386168 -0.0141916 0)
(-0.0549793 0.131313 0)
(-0.100353 0.0641726 0)
(-0.0983069 0.0317292 0)
(-0.0951032 0.0129076 0)
(-0.0896842 0.000676759 0)
(-0.0836897 -0.00724442 0)
(-0.0774166 -0.0121886 0)
(-0.0709958 -0.0151444 0)
(-0.0645278 -0.0168233 0)
(-0.0580857 -0.0177131 0)
(-0.0517217 -0.0181364 0)
(-0.0454648 -0.0183033 0)
(-0.0393292 -0.0183531 0)
(-0.0333247 -0.0183674 0)
(-0.0274599 -0.018368 0)
(-0.0217276 -0.0183033 0)
(-0.0160651 -0.0180887 0)
(-0.0102312 -0.0177535 0)
(-0.00380022 -0.0171342 0)
(-0.0945875 0.17981 0)
(-0.12599 0.066461 0)
(-0.113656 0.0291257 0)
(-0.10479 0.00985122 0)
(-0.0960952 -0.00236818 0)
(-0.0880948 -0.0102357 0)
(-0.0805641 -0.015137 0)
(-0.0733317 -0.0180526 0)
(-0.066321 -0.0196858 0)
(-0.0595039 -0.0205217 0)
(-0.0528724 -0.0208852 0)
(-0.04642 -0.0209888 0)
(-0.0401384 -0.0209738 0)
(-0.0340189 -0.0209225 0)
(-0.0280469 -0.020862 0)
(-0.0221865 -0.0207625 0)
(-0.0163545 -0.0205963 0)
(-0.0103147 -0.0204614 0)
(-0.00377556 -0.0200794 0)
(-0.0201882 0.162998 0)
(-0.0547511 0.165469 0)
(-0.0872741 0.169228 0)
(-0.118364 0.176416 0)
(-0.148875 0.187663 0)
(-0.179018 0.203958 0)
(-0.2085 0.226278 0)
(-0.236267 0.255056 0)
(-0.260719 0.288889 0)
(-0.279539 0.32159 0)
(-0.28664 0.339844 0)
(-0.288049 0.330351 0)
(-0.304534 0.299776 0)
(-0.374159 -0.2074 0)
(-0.390455 -0.349996 0)
(-0.397418 -0.347595 0)
(-0.379359 -0.313057 0)
(-0.353469 -0.278849 0)
(-0.327422 -0.256177 0)
(-0.305518 -0.248849 0)
(-0.291593 -0.259953 0)
(-0.317469 -0.293363 0)
(-0.459688 -0.290958 0)
(-0.0188533 0.197847 0)
(-0.0515449 0.199183 0)
(-0.0827356 0.200865 0)
(-0.112292 0.206211 0)
(-0.140723 0.216168 0)
(-0.16806 0.231332 0)
(-0.193989 0.252006 0)
(-0.21771 0.27791 0)
(-0.238317 0.307262 0)
(-0.254758 0.334779 0)
(-0.262283 0.349575 0)
(-0.263665 0.338963 0)
(-0.276616 0.304862 0)
(-0.31973 -0.16168 0)
(-0.336798 -0.323584 0)
(-0.349391 -0.348243 0)
(-0.343715 -0.327235 0)
(-0.328908 -0.297793 0)
(-0.312175 -0.273675 0)
(-0.298322 -0.258461 0)
(-0.292978 -0.250601 0)
(-0.310402 -0.24373 0)
(-0.351858 -0.214589 0)
(-0.0172423 0.230455 0)
(-0.0471876 0.23091 0)
(-0.0759127 0.230794 0)
(-0.103056 0.234309 0)
(-0.128895 0.242689 0)
(-0.153314 0.256315 0)
(-0.175981 0.275021 0)
(-0.196261 0.298062 0)
(-0.21361 0.323529 0)
(-0.22762 0.346906 0)
(-0.234685 0.358909 0)
(-0.234972 0.347361 0)
(-0.246454 0.312344 0)
(-0.288516 -0.13001 0)
(-0.295171 -0.302226 0)
(-0.306688 -0.344206 0)
(-0.306724 -0.334265 0)
(-0.298938 -0.309741 0)
(-0.288661 -0.285514 0)
(-0.279807 -0.265706 0)
(-0.276239 -0.248865 0)
(-0.282853 -0.22857 0)
(-0.295673 -0.19076 0)
(-0.015409 0.260018 0)
(-0.0422118 0.259714 0)
(-0.0680094 0.258052 0)
(-0.0923825 0.259884 0)
(-0.115459 0.266634 0)
(-0.137016 0.278562 0)
(-0.156707 0.295208 0)
(-0.174022 0.31555 0)
(-0.188632 0.337656 0)
(-0.200541 0.357599 0)
(-0.207104 0.367497 0)
(-0.206662 0.356467 0)
(-0.21757 0.323261 0)
(-0.260661 -0.107438 0)
(-0.26008 -0.285934 0)
(-0.269709 -0.338727 0)
(-0.272478 -0.336806 0)
(-0.269058 -0.316515 0)
(-0.263134 -0.293081 0)
(-0.257456 -0.271094 0)
(-0.254274 -0.249804 0)
(-0.255436 -0.224546 0)
(-0.258448 -0.187917 0)
(-0.0136107 0.286261 0)
(-0.0372992 0.285267 0)
(-0.0601385 0.282246 0)
(-0.0817181 0.282544 0)
(-0.102087 0.287698 0)
(-0.120967 0.297888 0)
(-0.138015 0.312478 0)
(-0.15282 0.330305 0)
(-0.165193 0.3495 0)
(-0.17538 0.366654 0)
(-0.181475 0.375137 0)
(-0.180623 0.365417 0)
(-0.190745 0.334946 0)
(-0.231758 -0.0896836 0)
(-0.228641 -0.272647 0)
(-0.237305 -0.332629 0)
(-0.241605 -0.336486 0)
(-0.240941 -0.319684 0)
(-0.237911 -0.297534 0)
(-0.234345 -0.274957 0)
(-0.231506 -0.251873 0)
(-0.230312 -0.225155 0)
(-0.229548 -0.190298 0)
(-0.0119589 0.309364 0)
(-0.0327615 0.307746 0)
(-0.052824 0.303528 0)
(-0.071771 0.302453 0)
(-0.0896164 0.306117 0)
(-0.106072 0.314644 0)
(-0.120818 0.327296 0)
(-0.133521 0.34285 0)
(-0.144081 0.359548 0)
(-0.152857 0.374432 0)
(-0.158456 0.38191 0)
(-0.157339 0.373649 0)
(-0.166464 0.34597 0)
(-0.203553 -0.0744477 0)
(-0.200325 -0.260896 0)
(-0.208587 -0.326157 0)
(-0.213773 -0.334423 0)
(-0.214832 -0.32055 0)
(-0.213681 -0.299903 0)
(-0.211544 -0.27767 0)
(-0.209137 -0.254284 0)
(-0.207081 -0.227582 0)
(-0.204902 -0.194279 0)
(-0.0104694 0.329617 0)
(-0.0286702 0.327441 0)
(-0.0462169 0.322165 0)
(-0.062772 0.319868 0)
(-0.0783372 0.322182 0)
(-0.0926404 0.329184 0)
(-0.105397 0.340077 0)
(-0.116336 0.353625 0)
(-0.125407 0.368191 0)
(-0.133005 0.381201 0)
(-0.138083 0.387891 0)
(-0.13679 0.380917 0)
(-0.144867 0.355775 0)
(-0.177494 -0.060954 0)
(-0.175006 -0.250076 0)
(-0.182975 -0.319485 0)
(-0.188577 -0.331329 0)
(-0.190642 -0.319996 0)
(-0.190656 -0.300927 0)
(-0.189472 -0.279531 0)
(-0.187515 -0.256609 0)
(-0.185288 -0.230548 0)
(-0.182718 -0.198575 0)
(-0.00913751 0.347316 0)
(-0.0250182 0.344642 0)
(-0.0403193 0.338426 0)
(-0.0547374 0.335047 0)
(-0.0682728 0.336153 0)
(-0.0806815 0.341789 0)
(-0.0917166 0.351119 0)
(-0.101157 0.362918 0)
(-0.108981 0.375664 0)
(-0.115569 0.387098 0)
(-0.12012 0.393114 0)
(-0.118728 0.38719 0)
(-0.125803 0.364249 0)
(-0.154106 -0.0489103 0)
(-0.15247 -0.240037 0)
(-0.160041 -0.312842 0)
(-0.165673 -0.327711 0)
(-0.168229 -0.318626 0)
(-0.168905 -0.301113 0)
(-0.168332 -0.280774 0)
(-0.166782 -0.258664 0)
(-0.164696 -0.233478 0)
(-0.162201 -0.202658 0)
(-0.00795451 0.36274 0)
(-0.0217759 0.35962 0)
(-0.0350833 0.352572 0)
(-0.0476043 0.348236 0)
(-0.0593414 0.348273 0)
(-0.0700822 0.3527 0)
(-0.079617 0.36066 0)
(-0.0877655 0.370945 0)
(-0.0945185 0.382134 0)
(-0.100227 0.392224 0)
(-0.104266 0.397637 0)
(-0.102843 0.392544 0)
(-0.108999 0.371482 0)
(-0.133388 -0.0381776 0)
(-0.132431 -0.230817 0)
(-0.139428 -0.306481 0)
(-0.144775 -0.323965 0)
(-0.147435 -0.316875 0)
(-0.14841 -0.300825 0)
(-0.148199 -0.281586 0)
(-0.146989 -0.260396 0)
(-0.145174 -0.236127 0)
(-0.142962 -0.206301 0)
(-0.00690881 0.376147 0)
(-0.0189084 0.372632 0)
(-0.0304492 0.364846 0)
(-0.0412869 0.359663 0)
(-0.0514283 0.358758 0)
(-0.0606935 0.362125 0)
(-0.0689081 0.368892 0)
(-0.075925 0.377873 0)
(-0.0817424 0.38773 0)
(-0.0866726 0.396666 0)
(-0.0902294 0.401531 0)
(-0.0888371 0.397093 0)
(-0.0941647 0.377623 0)
(-0.115107 -0.0286788 0)
(-0.114583 -0.222518 0)
(-0.120818 -0.300649 0)
(-0.125617 -0.320413 0)
(-0.128078 -0.315074 0)
(-0.129081 -0.300333 0)
(-0.129042 -0.282119 0)
(-0.128101 -0.261813 0)
(-0.126598 -0.238399 0)
(-0.124758 -0.209417 0)
(-0.00598987 0.387777 0)
(-0.016385 0.383908 0)
(-0.0263606 0.375459 0)
(-0.0356998 0.369524 0)
(-0.0444171 0.367789 0)
(-0.0523659 0.370232 0)
(-0.0594053 0.375969 0)
(-0.065417 0.38383 0)
(-0.0704034 0.39255 0)
(-0.0746394 0.400498 0)
(-0.077749 0.404872 0)
(-0.0764333 0.400952 0)
(-0.0810225 0.382818 0)
(-0.0989696 -0.0203689 0)
(-0.098621 -0.21525 0)
(-0.103918 -0.295571 0)
(-0.107933 -0.317329 0)
(-0.109943 -0.313486 0)
(-0.11076 -0.299847 0)
(-0.110747 -0.282499 0)
(-0.110008 -0.26295 0)
(-0.108822 -0.240266 0)
(-0.107392 -0.211977 0)
(-0.00519182 0.397853 0)
(-0.0141848 0.393653 0)
(-0.0227716 0.384597 0)
(-0.0307671 0.377984 0)
(-0.0382004 0.375517 0)
(-0.0449608 0.377158 0)
(-0.0509407 0.38201 0)
(-0.0560466 0.388918 0)
(-0.060284 0.396673 0)
(-0.0638929 0.403782 0)
(-0.066591 0.407727 0)
(-0.0653834 0.404229 0)
(-0.0693179 0.387213 0)
(-0.0847063 -0.0132168 0)
(-0.0842655 -0.209114 0)
(-0.0884514 -0.291447 0)
(-0.091447 -0.314947 0)
(-0.092774 -0.312326 0)
(-0.0932216 -0.299526 0)
(-0.0931233 -0.282816 0)
(-0.0925415 -0.263834 0)
(-0.0916771 -0.241715 0)
(-0.0906805 -0.213972 0)
(-0.00451615 0.406592 0)
(-0.0123008 0.402055 0)
(-0.01965 0.392415 0)
(-0.026424 0.385177 0)
(-0.0326809 0.382062 0)
(-0.038352 0.38301 0)
(-0.043363 0.387112 0)
(-0.0476421 0.393216 0)
(-0.0511944 0.400161 0)
(-0.0542282 0.406571 0)
(-0.0565478 0.410164 0)
(-0.0554728 0.407028 0)
(-0.0588313 0.390946 0)
(-0.0720984 -0.00717018 0)
(-0.0713061 -0.204203 0)
(-0.0741554 -0.288487 0)
(-0.0758543 -0.313504 0)
(-0.0762574 -0.311788 0)
(-0.0761786 -0.2995 0)
(-0.075922 -0.283131 0)
(-0.0754894 -0.26447 0)
(-0.0749781 -0.242724 0)
(-0.0744559 -0.215381 0)
(-0.00397492 0.414221 0)
(-0.0107478 0.409281 0)
(-0.0169821 0.399034 0)
(-0.0226182 0.3912 0)
(-0.027771 0.387508 0)
(-0.0324243 0.387869 0)
(-0.0365386 0.391346 0)
(-0.0400576 0.396784 0)
(-0.0429772 0.403058 0)
(-0.0454749 0.408901 0)
(-0.0474427 0.412236 0)
(-0.04652 0.409452 0)
(-0.0493894 0.394147 0)
(-0.0611077 -0.00210879 0)
(-0.0596516 -0.20067 0)
(-0.0607568 -0.287006 0)
(-0.0607738 -0.313303 0)
(-0.0599857 -0.312084 0)
(-0.0592562 -0.299873 0)
(-0.0588267 -0.283469 0)
(-0.0585967 -0.264832 0)
(-0.0585235 -0.243244 0)
(-0.0585594 -0.216159 0)
(-0.00361019 0.420966 0)
(-0.00960463 0.415468 0)
(-0.0147933 0.404515 0)
(-0.0193138 0.396085 0)
(-0.0233913 0.391891 0)
(-0.0270751 0.391779 0)
(-0.0303577 0.394761 0)
(-0.0331874 0.399664 0)
(-0.0355342 0.405389 0)
(-0.0375314 0.410776 0)
(-0.0391636 0.413966 0)
(-0.038375 0.41162 0)
(-0.0408832 0.397037 0)
(-0.0522902 0.00202232 0)
(-0.0493 -0.198944 0)
(-0.0478474 -0.28757 0)
(-0.045615 -0.314757 0)
(-0.0433653 -0.313419 0)
(-0.0419468 -0.300684 0)
(-0.041443 -0.283768 0)
(-0.041571 -0.264816 0)
(-0.0421015 -0.243166 0)
(-0.0428411 -0.216214 0)
(-0.00358828 0.427448 0)
(-0.00907483 0.420799 0)
(-0.0131494 0.408895 0)
(-0.0164619 0.399866 0)
(-0.019445 0.395284 0)
(-0.0222088 0.394853 0)
(-0.024752 0.397495 0)
(-0.0270079 0.401997 0)
(-0.0289011 0.40727 0)
(-0.0304883 0.412257 0)
(-0.0318152 0.415372 0)
(-0.0310794 0.413705 0)
(-0.0333691 0.400393 0)
(-0.0467243 0.00482753 0)
(-0.0398313 -0.199981 0)
(-0.0344424 -0.291073 0)
(-0.0292907 -0.318362 0)
(-0.0254795 -0.315906 0)
(-0.0235605 -0.301828 0)
(-0.0232902 -0.283824 0)
(-0.0240953 -0.264198 0)
(-0.0255106 -0.242288 0)
(-0.0271762 -0.21539 0)
(-0.00472186 0.43224 0)
(-0.00958403 0.425258 0)
(-0.0118151 0.412293 0)
(-0.0137621 0.402801 0)
(-0.0157252 0.398034 0)
(-0.017734 0.397482 0)
(-0.0197387 0.399968 0)
(-0.0216546 0.404222 0)
(-0.0233778 0.40914 0)
(-0.0248875 0.413731 0)
(-0.0261942 0.41669 0)
(-0.0256474 0.416026 0)
(-0.0271988 0.406082 0)
(-0.0426412 0.00538991 0)
(-0.029143 -0.205317 0)
(-0.018345 -0.298446 0)
(-0.009937 -0.3244 0)
(-0.00496947 -0.319345 0)
(-0.00321951 -0.302894 0)
(-0.00383546 -0.283197 0)
(-0.00586683 -0.262589 0)
(-0.00859132 -0.2403 0)
(-0.0114898 -0.21346 0)
(-0.00313752 0.449957 0)
(-0.00580298 0.431747 0)
(-0.00817896 0.41543 0)
(-0.0101016 0.405185 0)
(-0.0119024 0.400252 0)
(-0.0137038 0.399679 0)
(-0.0155694 0.402178 0)
(-0.0175257 0.406418 0)
(-0.0195726 0.411253 0)
(-0.0217859 0.415691 0)
(-0.024146 0.41864 0)
(-0.0250646 0.418848 0)
(-0.0276121 0.413821 0)
(-0.0341447 0.0010775 0)
(-0.0133848 -0.21756 0)
(0.00426339 -0.310812 0)
(0.0150979 -0.332544 0)
(0.0198256 -0.322867 0)
(0.0199972 -0.302942 0)
(0.0173792 -0.281087 0)
(0.0133105 -0.259372 0)
(0.00871204 -0.236755 0)
(0.00420583 -0.210124 0)
(-0.00233162 0.403109 0)
(-0.00266291 0.406792 0)
(-0.00599057 0.401634 0)
(-0.00788048 0.39609 0)
(-0.00954995 0.393124 0)
(-0.0112648 0.393481 0)
(-0.0131695 0.396549 0)
(-0.0153847 0.401283 0)
(-0.0180655 0.406662 0)
(-0.0215604 0.411735 0)
(-0.0262723 0.415276 0)
(-0.0293669 0.414932 0)
(-0.0333532 0.411649 0)
(-0.0207612 -0.0192948 0)
(0.0173167 -0.241398 0)
(0.0393196 -0.328142 0)
(0.0494376 -0.340902 0)
(0.0505984 -0.324383 0)
(0.0467489 -0.300309 0)
(0.040494 -0.276318 0)
(0.0333538 -0.253765 0)
(0.0262387 -0.231145 0)
(0.0197349 -0.205054 0)
(-0.0173473 0.393488 0)
(-0.0104947 0.400896 0)
(-0.00964852 0.397156 0)
(-0.008839 0.392363 0)
(-0.009524 0.389694 0)
(-0.0110733 0.390226 0)
(-0.0131361 0.393411 0)
(-0.0156541 0.398295 0)
(-0.0187947 0.403968 0)
(-0.023239 0.409673 0)
(-0.0300567 0.415099 0)
(-0.0341916 0.416884 0)
(-0.0432991 0.399784 0)
(0.0520162 -0.0577581 0)
(0.0854708 -0.272431 0)
(0.0957137 -0.343104 0)
(0.0957947 -0.34331 0)
(0.0878614 -0.319685 0)
(0.0767026 -0.292395 0)
(0.064954 -0.267349 0)
(0.053724 -0.244867 0)
(0.0435373 -0.222953 0)
(0.034737 -0.197973 0)
(-0.0696203 0.466808 0)
(-0.0156638 0.435787 0)
(-0.0106137 0.420021 0)
(-0.00778942 0.41065 0)
(-0.00908622 0.405985 0)
(-0.0118246 0.40589 0)
(-0.0148335 0.408999 0)
(-0.017814 0.414111 0)
(-0.0207146 0.42025 0)
(-0.0237516 0.426197 0)
(-0.0280674 0.433681 0)
(-0.020731 0.434648 0)
(0.00212976 0.272037 0)
(0.146587 -0.101342 0)
(0.18325 -0.297936 0)
(0.169625 -0.343809 0)
(0.149732 -0.331403 0)
(0.128129 -0.304047 0)
(0.107384 -0.276731 0)
(0.0890738 -0.252915 0)
(0.0732865 -0.232042 0)
(0.0598436 -0.211865 0)
(0.0486945 -0.188738 0)
(-0.0982802 0.571397 0)
(0.0188513 0.428004 0)
(-0.00525919 0.421281 0)
(0.000333338 0.416574 0)
(-0.00152109 0.414178 0)
(-0.00463607 0.415148 0)
(-0.00753777 0.418556 0)
(-0.00990108 0.423874 0)
(-0.0103953 0.430277 0)
(-0.00570134 0.435017 0)
(0.000133425 0.439172 0)
(0.105801 0.439871 0)
(0.256508 0.162197 0)
(0.328773 -0.144694 0)
(0.305469 -0.289299 0)
(0.248776 -0.313736 0)
(0.202329 -0.298581 0)
(0.164965 -0.275126 0)
(0.13476 -0.252571 0)
(0.11041 -0.232869 0)
(0.0905399 -0.215347 0)
(0.0742214 -0.197997 0)
(0.0610109 -0.177472 0)
(-0.00153837 0.538407 0)
(0.0591258 0.38548 0)
(0.0380956 0.400335 0)
(0.0499967 0.409247 0)
(0.0613416 0.412277 0)
(0.0742945 0.414464 0)
(0.0902973 0.417091 0)
(0.110821 0.420093 0)
(0.139794 0.420504 0)
(0.183869 0.405598 0)
(0.242089 0.343388 0)
(0.34743 0.229804 0)
(0.438116 0.0565517 0)
(0.438133 -0.135604 0)
(0.370648 -0.229051 0)
(0.295169 -0.252752 0)
(0.235528 -0.248705 0)
(0.189918 -0.236163 0)
(0.154514 -0.222096 0)
(0.126582 -0.20861 0)
(0.104104 -0.195689 0)
(0.0858354 -0.181951 0)
(0.0711635 -0.164582 0)
(0.0316507 0.437035 0)
(0.0645061 0.390098 0)
(0.0674507 0.387962 0)
(0.084752 0.387929 0)
(0.105897 0.385672 0)
(0.130927 0.38308 0)
(0.160844 0.37998 0)
(0.197202 0.374398 0)
(0.242484 0.361242 0)
(0.298006 0.329036 0)
(0.359097 0.260873 0)
(0.419927 0.163158 0)
(0.453418 0.038597 0)
(0.429842 -0.0812095 0)
(0.367863 -0.154795 0)
(0.301378 -0.186446 0)
(0.245416 -0.195564 0)
(0.200772 -0.194606 0)
(0.165212 -0.189429 0)
(0.136626 -0.182514 0)
(0.113323 -0.174505 0)
(0.0942386 -0.164642 0)
(0.0788472 -0.150669 0)
(0.0250264 0.391154 0)
(0.0527956 0.383342 0)
(0.0705999 0.372166 0)
(0.0933677 0.365195 0)
(0.119483 0.358362 0)
(0.148969 0.351225 0)
(0.182464 0.342593 0)
(0.220917 0.329988 0)
(0.265055 0.309082 0)
(0.313466 0.273174 0)
(0.359429 0.215696 0)
(0.393966 0.138912 0)
(0.404088 0.048848 0)
(0.381546 -0.0366332 0)
(0.336302 -0.0969989 0)
(0.285762 -0.13141 0)
(0.23979 -0.148654 0)
(0.200704 -0.156067 0)
(0.168102 -0.157993 0)
(0.140978 -0.156734 0)
(0.118306 -0.153195 0)
(0.0994174 -0.147011 0)
(0.0840099 -0.136374 0)
(0.0169137 0.360314 0)
(0.0429262 0.360348 0)
(0.0663154 0.348423 0)
(0.0913647 0.339048 0)
(0.118487 0.329767 0)
(0.14779 0.319722 0)
(0.179589 0.307566 0)
(0.214182 0.291138 0)
(0.251269 0.267389 0)
(0.28877 0.23259 0)
(0.321466 0.183987 0)
(0.342672 0.123434 0)
(0.346217 0.0562989 0)
(0.32974 -0.00698855 0)
(0.298524 -0.0561705 0)
(0.261829 -0.0894519 0)
(0.226 -0.110342 0)
(0.193597 -0.122771 0)
(0.165226 -0.129609 0)
(0.140709 -0.132667 0)
(0.11961 -0.132804 0)
(0.101661 -0.12983 0)
(0.0867997 -0.12226 0)
(0.0136187 0.332388 0)
(0.0377601 0.334573 0)
(0.0616959 0.322971 0)
(0.0863559 0.312504 0)
(0.112238 0.301847 0)
(0.139329 0.290172 0)
(0.16767 0.27621 0)
(0.197139 0.25824 0)
(0.227014 0.234271 0)
(0.255395 0.202331 0)
(0.278793 0.161453 0)
(0.293071 0.113296 0)
(0.294971 0.061815 0)
(0.283736 0.0130377 0)
(0.262385 -0.0275607 0)
(0.235979 -0.0582029 0)
(0.208589 -0.0800436 0)
(0.182431 -0.0950335 0)
(0.158467 -0.104931 0)
(0.136987 -0.11102 0)
(0.117956 -0.113976 0)
(0.101409 -0.113645 0)
(0.0874864 -0.108761 0)
(0.0123078 0.308539 0)
(0.0347089 0.310559 0)
(0.057429 0.29895 0)
(0.0804548 0.287849 0)
(0.104126 0.276469 0)
(0.128326 0.264058 0)
(0.152919 0.249476 0)
(0.177577 0.231393 0)
(0.201512 0.208538 0)
(0.223227 0.179952 0)
(0.240456 0.145494 0)
(0.250719 0.1065 0)
(0.25222 0.0656725 0)
(0.244727 0.0266224 0)
(0.230009 -0.00741759 0)
(0.210909 -0.0350312 0)
(0.190057 -0.0563818 0)
(0.169187 -0.0723544 0)
(0.149289 -0.0839576 0)
(0.130847 -0.0920295 0)
(0.114053 -0.0970333 0)
(0.0991423 -0.0987848 0)
(0.0863928 -0.0961699 0)
(0.0114272 0.28677 0)
(0.0322131 0.288192 0)
(0.0531926 0.276758 0)
(0.0741435 0.265444 0)
(0.095314 0.253837 0)
(0.116563 0.241299 0)
(0.137666 0.226838 0)
(0.158227 0.209431 0)
(0.177538 0.188274 0)
(0.194484 0.162945 0)
(0.207593 0.133631 0)
(0.215367 0.101385 0)
(0.216802 0.0680395 0)
(0.211847 0.0358756 0)
(0.201549 0.0069117 0)
(0.187595 -0.0177677 0)
(0.171674 -0.037955 0)
(0.155094 -0.0539807 0)
(0.13873 -0.0663772 0)
(0.123106 -0.0756493 0)
(0.108518 -0.0820696 0)
(0.0953121 -0.0854067 0)
(0.0838462 -0.0846594 0)
(0.010552 0.266537 0)
(0.0296906 0.267519 0)
(0.048779 0.256531 0)
(0.0675647 0.245338 0)
(0.0862829 0.233865 0)
(0.104791 0.221594 0)
(0.122826 0.207679 0)
(0.140009 0.191327 0)
(0.155755 0.172024 0)
(0.169253 0.149621 0)
(0.179536 0.124417 0)
(0.185687 0.0972318 0)
(0.187131 0.0693385 0)
(0.18388 0.0422311 0)
(0.176576 0.0172417 0)
(0.166266 -0.00479809 0)
(0.154043 -0.0235801 0)
(0.140878 -0.0391553 0)
(0.127492 -0.0517665 0)
(0.114376 -0.0616864 0)
(0.101851 -0.0690383 0)
(0.0903107 -0.0735476 0)
(0.0801488 -0.0743054 0)
(0.00962115 0.24797 0)
(0.0270142 0.248689 0)
(0.0441874 0.238315 0)
(0.0608772 0.227486 0)
(0.0773238 0.216395 0)
(0.0933741 0.204629 0)
(0.108771 0.191475 0)
(0.123185 0.176312 0)
(0.136158 0.158805 0)
(0.147104 0.138942 0)
(0.15538 0.117033 0)
(0.160413 0.0937228 0)
(0.161867 0.0699151 0)
(0.159772 0.0466305 0)
(0.154538 0.0247897 0)
(0.146835 0.00503109 0)
(0.137405 -0.0123295 0)
(0.126943 -0.027212 0)
(0.116029 -0.0396918 0)
(0.105091 -0.049887 0)
(0.0944342 -0.0578133 0)
(0.0844603 -0.0631655 0)
(0.075564 -0.0651158 0)
(0.00865034 0.231209 0)
(0.0242326 0.231743 0)
(0.0395267 0.222061 0)
(0.0542551 0.211754 0)
(0.0686333 0.201191 0)
(0.0825024 0.190054 0)
(0.0956381 0.177746 0)
(0.10777 0.163776 0)
(0.118547 0.147917 0)
(0.12755 0.130218 0)
(0.134343 0.110972 0)
(0.13856 0.0906818 0)
(0.140001 0.0700103 0)
(0.138699 0.0496813 0)
(0.134925 0.0303568 0)
(0.129125 0.0125328 0)
(0.121816 -0.00349559 0)
(0.113496 -0.0175981 0)
(0.104622 -0.029755 0)
(0.0955492 -0.0399854 0)
(0.0865533 -0.0482318 0)
(0.0780153 -0.0541725 0)
(0.0703119 -0.0570544 0)
(0.0076666 0.216286 0)
(0.0214496 0.216652 0)
(0.0349355 0.207688 0)
(0.047842 0.197983 0)
(0.0603334 0.188013 0)
(0.0722637 0.177552 0)
(0.0834506 0.166099 0)
(0.0936787 0.153257 0)
(0.102682 0.138866 0)
(0.110157 0.122999 0)
(0.115807 0.105914 0)
(0.119392 0.0880135 0)
(0.120791 0.0697939 0)
(0.120034 0.0517882 0)
(0.117309 0.03449 0)
(0.112921 0.0182915 0)
(0.107237 0.00345626 0)
(0.100624 -0.0098687 0)
(0.0934311 -0.0216111 0)
(0.0859484 -0.0317301 0)
(0.0784124 -0.0401213 0)
(0.071171 -0.0464587 0)
(0.0645703 -0.0500585 0)
(0.00670354 0.20315 0)
(0.0187589 0.203374 0)
(0.0305225 0.195118 0)
(0.0417258 0.186028 0)
(0.0524848 0.17666 0)
(0.0626826 0.166869 0)
(0.072174 0.156233 0)
(0.0807878 0.144419 0)
(0.0883224 0.131309 0)
(0.0945585 0.116981 0)
(0.0992889 0.101659 0)
(0.102355 0.0856661 0)
(0.103681 0.0693867 0)
(0.103296 0.0532269 0)
(0.101333 0.0375669 0)
(0.0980082 0.0227228 0)
(0.0935852 0.00892693 0)
(0.0883426 -0.00366947 0)
(0.08254 -0.0149697 0)
(0.076412 -0.0248959 0)
(0.0701537 -0.0333151 0)
(0.0640731 -0.039907 0)
(0.0584793 -0.0440524 0)
(0.00578517 0.191723 0)
(0.0162011 0.191862 0)
(0.026331 0.184275 0)
(0.0359328 0.175763 0)
(0.045098 0.166965 0)
(0.0537389 0.157803 0)
(0.0617376 0.147916 0)
(0.0689579 0.137014 0)
(0.0752465 0.125003 0)
(0.0804439 0.111958 0)
(0.0844044 0.0980722 0)
(0.0870211 0.0836087 0)
(0.0882472 0.0688748 0)
(0.0881087 0.0541894 0)
(0.0867033 0.0398544 0)
(0.084188 0.02613 0)
(0.0807575 0.013221 0)
(0.0766207 0.0012762 0)
(0.0719786 -0.00959444 0)
(0.0670115 -0.0192893 0)
(0.0618732 -0.0276615 0)
(0.0568281 -0.0344036 0)
(0.0521467 -0.0389565 0)
(0.00491279 0.181935 0)
(0.0137633 0.182047 0)
(0.022348 0.175055 0)
(0.0304489 0.167061 0)
(0.0381505 0.15878 0)
(0.0453841 0.150187 0)
(0.052052 0.140962 0)
(0.0580465 0.130849 0)
(0.0632521 0.119766 0)
(0.0675522 0.10778 0)
(0.0708439 0.0950588 0)
(0.0730547 0.081822 0)
(0.0741561 0.0683206 0)
(0.0741711 0.054813 0)
(0.0731736 0.0415455 0)
(0.0712807 0.0287366 0)
(0.0686392 0.0165678 0)
(0.0654098 0.0051837 0)
(0.0617488 -0.00529515 0)
(0.0577858 -0.0147493 0)
(0.0536337 -0.0230272 0)
(0.049512 -0.0298427 0)
(0.0456541 -0.0346925 0)
(0.00407551 0.173729 0)
(0.0114192 0.173826 0)
(0.0185481 0.167335 0)
(0.0252518 0.159788 0)
(0.0316091 0.151965 0)
(0.0375598 0.143871 0)
(0.0430247 0.135219 0)
(0.0479212 0.125773 0)
(0.0521635 0.115459 0)
(0.0556672 0.104338 0)
(0.0583599 0.0925537 0)
(0.0601922 0.0802952 0)
(0.0611474 0.0677723 0)
(0.0612457 0.0552 0)
(0.0605442 0.0427843 0)
(0.0591326 0.0307118 0)
(0.057125 0.019145 0)
(0.0546492 0.00822374 0)
(0.0518296 -0.00192099 0)
(0.04875 -0.0111452 0)
(0.045475 -0.0192982 0)
(0.0421776 -0.0261285 0)
(0.0390606 -0.0311864 0)
(0.00327046 0.167048 0)
(0.00917177 0.167085 0)
(0.0149348 0.160989 0)
(0.0203402 0.153826 0)
(0.0254528 0.146403 0)
(0.0302191 0.13874 0)
(0.0345799 0.130571 0)
(0.0384757 0.121676 0)
(0.0418445 0.111987 0)
(0.0446261 0.101557 0)
(0.0467698 0.090516 0)
(0.0482422 0.0790273 0)
(0.0490336 0.0672714 0)
(0.0491612 0.0554315 0)
(0.0486697 0.0436832 0)
(0.047629 0.0321879 0)
(0.0461312 0.02109 0)
(0.0442849 0.0105236 0)
(0.0421975 0.0006371 0)
(0.0399104 -0.00837743 0)
(0.0374224 -0.0163756 0)
(0.034858 -0.023171 0)
(0.0324034 -0.0283666 0)
(0.00251521 0.161807 0)
(0.00707418 0.161714 0)
(0.0115648 0.155924 0)
(0.0157562 0.149094 0)
(0.0196994 0.142019 0)
(0.0233566 0.134717 0)
(0.0266919 0.12694 0)
(0.0296651 0.118484 0)
(0.0322328 0.109285 0)
(0.0343522 0.0993934 0)
(0.0359877 0.0889251 0)
(0.0371165 0.0780267 0)
(0.0377325 0.0668572 0)
(0.0378491 0.0555762 0)
(0.0374998 0.0443361 0)
(0.036738 0.0332759 0)
(0.0356385 0.0225192 0)
(0.0343043 0.0121868 0)
(0.0328561 0.00244974 0)
(0.0312836 -0.00638016 0)