/*--------------------------------*- C++ -*----------------------------------*\
  =========                 |
  \\      /  F ield         | OpenFOAM: The Open Source CFD Toolbox
   \\    /   O peration     | Website:  https://openfoam.org
    \\  /    A nd           | Version:  9
     \\/     M anipulation  |
\*---------------------------------------------------------------------------*/
FoamFile
{
    format      ascii;
    class       volScalarField;
    location    "750";
    object      epsilon;
}
// * * * * * * * * * * * * * * * * * * * * * * * * * * * * * * * * * * * * * //

dimensions      [0 2 -3 0 0 0 0];

internalField   nonuniform List<scalar> 
4000
(
9.25096e-08
8.23453e-08
7.45507e-08
6.96633e-08
6.32292e-08
5.95702e-08
5.68074e-08
5.44468e-08
5.36574e-08
5.44748e-08
5.54195e-08
5.4542e-08
5.42812e-08
5.68015e-08
6.26675e-08
6.89762e-08
7.388e-08
7.58294e-08
7.89363e-08
9.44587e-08
3.3466e-07
2.79013e-07
1.98823e-07
1.33057e-07
9.49046e-08
8.15099e-08
7.94532e-08
7.7561e-08
8.21472e-08
8.96157e-08
9.2094e-08
8.59508e-08
8.06496e-08
8.31408e-08
9.24574e-08
1.08481e-07
1.30103e-07
1.41039e-07
1.68126e-07
2.09652e-07
5.98949e-07
5.55817e-07
4.72686e-07
3.64445e-07
2.48314e-07
1.73583e-07
1.24078e-07
8.95198e-08
9.76351e-08
1.09204e-07
1.09572e-07
9.68939e-08
9.92963e-08
1.32229e-07
1.69225e-07
2.13779e-07
2.8288e-07
3.90606e-07
5.03081e-07
5.61147e-07
6.9398e-07
6.77823e-07
6.1141e-07
5.11959e-07
4.03688e-07
3.03905e-07
2.22998e-07
1.57191e-07
1.25302e-07
1.20781e-07
1.19195e-07
1.22481e-07
1.50061e-07
1.92097e-07
2.44396e-07
3.16266e-07
4.32233e-07
5.51274e-07
6.42056e-07
6.82163e-07
7.49834e-07
7.72856e-07
7.47708e-07
6.8667e-07
6.1477e-07
5.47691e-07
4.83532e-07
4.04829e-07
3.08047e-07
2.25422e-07
1.76769e-07
1.77439e-07
2.19106e-07
2.84473e-07
3.64016e-07
4.72399e-07
5.83114e-07
6.86293e-07
7.50194e-07
7.55293e-07
7.94306e-07
8.66101e-07
9.06352e-07
9.24577e-07
9.2988e-07
9.19603e-07
8.88725e-07
8.34335e-07
7.58045e-07
6.65407e-07
5.52552e-07
5.79173e-07
6.31742e-07
6.82743e-07
7.31702e-07
7.78315e-07
8.19975e-07
8.51474e-07
8.53989e-07
8.12071e-07
8.40868e-07
9.6735e-07
1.08213e-06
1.17784e-06
1.25436e-06
1.30242e-06
1.31506e-06
1.28731e-06
1.21856e-06
1.11624e-06
1.02256e-06
1.05719e-06
1.09842e-06
1.12797e-06
1.13917e-06
1.12814e-06
1.09514e-06
1.04333e-06
9.66836e-07
8.68777e-07
8.95909e-07
1.08469e-06
1.27699e-06
1.4496e-06
1.59986e-06
1.71495e-06
1.78183e-06
1.79073e-06
1.73349e-06
1.61197e-06
1.51184e-06
1.56761e-06
1.60216e-06
1.60211e-06
1.56369e-06
1.49046e-06
1.38517e-06
1.25372e-06
1.09604e-06
9.34446e-07
9.70207e-07
1.24487e-06
1.52883e-06
1.79476e-06
2.03634e-06
2.23565e-06
2.37416e-06
2.43195e-06
2.38704e-06
2.23415e-06
2.11092e-06
2.19621e-06
2.21812e-06
2.17404e-06
2.07261e-06
1.92437e-06
1.73558e-06
1.51553e-06
1.26699e-06
1.01963e-06
1.0784e-06
1.45673e-06
1.85293e-06
2.2217e-06
2.56291e-06
2.86572e-06
3.11126e-06
3.27132e-06
3.30595e-06
3.17609e-06
3.01153e-06
3.08914e-06
3.04906e-06
2.92169e-06
2.72578e-06
2.47849e-06
2.19043e-06
1.86535e-06
1.49917e-06
1.14057e-06
8.23453e-08
9.27786e-08
9.6462e-08
1.06296e-07
1.0677e-07
9.98428e-08
9.25759e-08
8.6604e-08
8.40503e-08
8.52502e-08
8.66898e-08
8.44876e-08
8.50878e-08
9.22748e-08
1.07247e-07
1.15502e-07
1.10786e-07
1.00903e-07
9.24393e-08
9.03775e-08
2.79013e-07
2.92958e-07
2.20118e-07
1.83005e-07
1.59266e-07
1.1936e-07
9.89064e-08
8.74185e-08
8.22852e-08
8.71915e-08
9.02609e-08
8.7889e-08
9.17117e-08
1.10993e-07
1.57107e-07
2.18121e-07
2.14891e-07
1.77979e-07
1.70705e-07
1.67144e-07
5.55817e-07
6.12744e-07
5.22054e-07
3.90692e-07
2.86637e-07
2.23858e-07
1.76141e-07
1.3132e-07
1.01063e-07
9.60601e-08
9.81154e-08
1.072e-07
1.37645e-07
1.83227e-07
2.25899e-07
2.68443e-07
3.31154e-07
4.50378e-07
5.81274e-07
5.02391e-07
6.77823e-07
6.35901e-07
5.8422e-07
4.88332e-07
3.68902e-07
2.74005e-07
2.11493e-07
1.72108e-07
1.4592e-07
1.28976e-07
1.27308e-07
1.41421e-07
1.66607e-07
2.02596e-07
2.52276e-07
3.25588e-07
4.4332e-07
5.7515e-07
6.41314e-07
6.53385e-07
7.72856e-07
6.87862e-07
6.63208e-07
6.06415e-07
5.1845e-07
4.15963e-07
3.35168e-07
2.66777e-07
2.12532e-07
1.7745e-07
1.60684e-07
1.71044e-07
2.0304e-07
2.51754e-07
3.17539e-07
4.14431e-07
5.42817e-07
6.3364e-07
6.82026e-07
7.65087e-07
8.66101e-07
7.68993e-07
7.72756e-07
7.686e-07
7.44143e-07
6.79488e-07
5.77625e-07
4.89722e-07
4.22617e-07
3.66287e-07
3.16261e-07
3.29378e-07
3.73073e-07
4.37761e-07
5.15374e-07
6.2916e-07
7.00612e-07
7.4406e-07
7.62113e-07
8.75313e-07
9.6735e-07
8.77851e-07
9.00927e-07
9.32477e-07
9.64085e-07
9.57213e-07
9.07133e-07
8.11062e-07
6.90944e-07
5.97974e-07
5.36444e-07
5.54407e-07
6.05793e-07
6.8143e-07
8.02686e-07
8.72272e-07
8.84385e-07
8.84167e-07
8.79781e-07
9.96568e-07
1.08469e-06
1.05385e-06
1.11239e-06
1.17249e-06
1.25746e-06
1.3262e-06
1.3477e-06
1.32074e-06
1.23897e-06
1.07277e-06
9.52422e-07
1.0095e-06
1.09595e-06
1.1776e-06
1.19741e-06
1.1792e-06
1.13294e-06
1.10305e-06
1.06918e-06
1.13591e-06
1.24487e-06
1.40087e-06
1.60568e-06
1.8007e-06
2.00501e-06
2.18749e-06
2.30038e-06
2.30673e-06
2.17559e-06
1.90478e-06
1.77931e-06
1.9499e-06
2.03152e-06
2.02652e-06
1.96317e-06
1.86339e-06
1.73526e-06
1.60046e-06
1.43729e-06
1.31669e-06
1.45673e-06
1.95934e-06
2.49898e-06
3.02542e-06
3.53994e-06
4.02507e-06
4.44327e-06
4.73815e-06
4.83134e-06
4.66628e-06
4.40707e-06
4.47462e-06
4.36881e-06
4.13027e-06
3.79551e-06
3.40335e-06
2.97603e-06
2.51918e-06
2.02644e-06
1.55042e-06
7.45507e-08
9.6462e-08
1.15255e-07
1.32483e-07
1.3272e-07
1.25889e-07
1.20135e-07
1.14273e-07
1.10478e-07
1.13712e-07
1.16331e-07
1.11021e-07
1.10578e-07
1.19271e-07
1.35836e-07
1.41815e-07
1.31374e-07
1.15052e-07
9.74562e-08
8.22773e-08
1.98823e-07
2.20118e-07
2.04908e-07
2.02149e-07
1.74975e-07
1.41293e-07
1.22068e-07
1.05733e-07
1.00478e-07
1.08041e-07
1.11321e-07
1.06299e-07
1.09645e-07
1.29608e-07
1.68068e-07
2.23695e-07
2.48068e-07
2.12554e-07
1.67423e-07
1.34093e-07
4.72686e-07
5.22054e-07
4.52126e-07
3.59752e-07
2.96337e-07
2.51772e-07
2.02979e-07
1.51175e-07
1.20325e-07
1.15054e-07
1.16574e-07
1.24594e-07
1.56294e-07
2.07761e-07
2.51493e-07
2.83269e-07
3.21361e-07
3.85627e-07
4.67377e-07
4.13671e-07
6.1141e-07
5.8422e-07
5.22743e-07
4.29896e-07
3.34444e-07
2.68844e-07
2.26673e-07
2.00042e-07
1.75585e-07
1.49874e-07
1.44281e-07
1.57789e-07
1.82665e-07
2.15836e-07
2.57993e-07
3.15755e-07
4.03248e-07
5.14901e-07
5.77891e-07
5.82757e-07
7.47708e-07
6.63208e-07
5.84361e-07
4.98651e-07
4.04017e-07
3.2527e-07
2.66544e-07
2.2106e-07
1.91086e-07
1.76494e-07
1.71129e-07
1.77133e-07
1.98423e-07
2.33664e-07
2.83645e-07
3.57352e-07
4.63484e-07
5.62586e-07
6.41171e-07
7.26162e-07
9.06352e-07
7.72756e-07
6.77226e-07
5.96703e-07
5.23069e-07
4.4811e-07
3.72898e-07
3.10165e-07
2.64416e-07
2.36897e-07
2.22461e-07
2.31376e-07
2.62014e-07
3.09629e-07
3.72386e-07
4.62148e-07
5.59874e-07
6.57046e-07
7.56002e-07
9.04037e-07
1.08213e-06
9.00927e-07
7.98197e-07
7.00263e-07
6.23759e-07
5.6777e-07
5.10486e-07
4.47821e-07
3.87559e-07
3.41711e-07
3.17666e-07
3.28544e-07
3.64575e-07
4.20578e-07
4.99763e-07
5.83345e-07
6.83237e-07
7.99474e-07
9.10221e-07
1.11148e-06
1.27699e-06
1.11239e-06
1.05727e-06
9.59345e-07
8.50447e-07
7.95887e-07
7.83335e-07
7.52756e-07
6.92224e-07
6.05401e-07
5.64799e-07
6.05779e-07
6.58554e-07
7.07939e-07
7.49899e-07
8.08482e-07
9.575e-07
1.08843e-06
1.15981e-06
1.34246e-06
1.52883e-06
1.60568e-06
1.85022e-06
2.11064e-06
2.38848e-06
2.64365e-06
2.76268e-06
2.70661e-06
2.44861e-06
2.00753e-06
1.84008e-06
2.0852e-06
2.24654e-06
2.27608e-06
2.27144e-06
2.23384e-06
2.0899e-06
1.90766e-06
1.68984e-06
1.6254e-06
1.85293e-06
2.49898e-06
3.17627e-06
3.85009e-06
4.5322e-06
5.20574e-06
5.81436e-06
6.27342e-06
6.45706e-06
6.26494e-06
5.91088e-06
5.95838e-06
5.75945e-06
5.38321e-06
4.89189e-06
4.35122e-06
3.78995e-06
3.20658e-06
2.5866e-06
1.97078e-06
6.96633e-08
1.06296e-07
1.32483e-07
1.42285e-07
1.40281e-07
1.39402e-07
1.39801e-07
1.38245e-07
1.35467e-07
1.41679e-07
1.4556e-07
1.34793e-07
1.31198e-07
1.38972e-07
1.5076e-07
1.53048e-07
1.4231e-07
1.25098e-07
1.03204e-07
7.6048e-08
1.33057e-07
1.83005e-07
2.02149e-07
1.9453e-07
1.6813e-07
1.48609e-07
1.32597e-07
1.1937e-07
1.21108e-07
1.34276e-07
1.35247e-07
1.23454e-07
1.2179e-07
1.35318e-07
1.55806e-07
1.82734e-07
2.03624e-07
1.96201e-07
1.64603e-07
1.10618e-07
3.64445e-07
3.90692e-07
3.59752e-07
3.2195e-07
2.91433e-07
2.53095e-07
2.00806e-07
1.56041e-07
1.38535e-07
1.3996e-07
1.37764e-07
1.35093e-07
1.56103e-07
2.03901e-07
2.51226e-07
2.80972e-07
3.03121e-07
3.27073e-07
3.50628e-07
3.14578e-07
5.11959e-07
4.88332e-07
4.29896e-07
3.60692e-07
3.03639e-07
2.6621e-07
2.40493e-07
2.16025e-07
1.88784e-07
1.68122e-07
1.59643e-07
1.64272e-07
1.87131e-07
2.17895e-07
2.52359e-07
2.93206e-07
3.48052e-07
4.17789e-07
4.75161e-07
4.9164e-07
6.8667e-07
6.06415e-07
4.98651e-07
4.07999e-07
3.3453e-07
2.8047e-07
2.41536e-07
2.12877e-07
1.97936e-07
1.97757e-07
1.91534e-07
1.84799e-07
1.95741e-07
2.21654e-07
2.59449e-07
3.12824e-07
3.88189e-07
4.80179e-07
5.78096e-07
6.61712e-07
9.24577e-07
7.686e-07
5.96703e-07
4.82281e-07
4.02955e-07
3.41637e-07
2.90557e-07
2.4838e-07
2.20675e-07
2.16181e-07
2.17732e-07
2.1354e-07
2.27926e-07
2.59561e-07
3.05381e-07
3.71557e-07
4.60554e-07
5.81529e-07
7.47336e-07
9.16548e-07
1.17784e-06
9.32477e-07
7.00263e-07
5.50412e-07
4.69402e-07
4.1924e-07
3.79326e-07
3.41815e-07
3.0916e-07
2.92255e-07
2.90549e-07
2.89451e-07
3.05386e-07
3.39142e-07
3.88118e-07
4.53627e-07
5.53212e-07
7.23759e-07
9.53235e-07
1.21469e-06
1.4496e-06
1.17249e-06
9.59345e-07
7.51819e-07
7.30119e-07
7.59264e-07
7.98228e-07
8.07569e-07
7.59833e-07
6.69298e-07
6.35593e-07
6.82381e-07
7.18453e-07
7.29088e-07
7.23775e-07
7.29026e-07
8.02595e-07
1.05909e-06
1.26186e-06
1.53644e-06
1.79476e-06
1.8007e-06
2.11064e-06
2.49134e-06
2.8541e-06
3.36271e-06
3.78263e-06
3.92824e-06
3.66004e-06
3.08918e-06
2.91009e-06
3.2894e-06
3.4884e-06
3.38579e-06
3.09894e-06
2.75577e-06
2.60484e-06
2.27588e-06
1.9515e-06
1.92253e-06
2.2217e-06
3.02542e-06
3.85009e-06
4.68307e-06
5.55807e-06
6.46691e-06
7.3305e-06
8.03071e-06
8.42023e-06
8.35413e-06
7.91443e-06
7.81341e-06
7.41573e-06
6.80773e-06
6.09386e-06
5.35205e-06
4.62961e-06
3.9006e-06
3.13686e-06
2.36292e-06
6.32292e-08
1.0677e-07
1.3272e-07
1.40281e-07
1.42967e-07
1.48514e-07
1.55638e-07
1.6227e-07
1.6615e-07
1.73443e-07
1.76572e-07
1.58787e-07
1.50166e-07
1.54305e-07
1.5635e-07
1.5042e-07
1.35822e-07
1.17211e-07
9.57132e-08
6.75841e-08
9.49046e-08
1.59266e-07
1.74975e-07
1.6813e-07
1.57468e-07
1.46478e-07
1.35593e-07
1.32365e-07
1.46823e-07
1.70229e-07
1.6569e-07
1.43019e-07
1.32283e-07
1.37474e-07
1.46038e-07
1.52511e-07
1.5518e-07
1.50255e-07
1.328e-07
9.56154e-08
2.48314e-07
2.86637e-07
2.96337e-07
2.91433e-07
2.69891e-07
2.28283e-07
1.84832e-07
1.57858e-07
1.59034e-07
1.7312e-07
1.63687e-07
1.44843e-07
1.4856e-07
1.77893e-07
2.18738e-07
2.54434e-07
2.76098e-07
2.82062e-07
2.69613e-07
2.19915e-07
4.03688e-07
3.68902e-07
3.34444e-07
3.03639e-07
2.79521e-07
2.62334e-07
2.42236e-07
2.1503e-07
1.94053e-07
1.94007e-07
1.78894e-07
1.66148e-07
1.8177e-07
2.10484e-07
2.38982e-07
2.67548e-07
2.98042e-07
3.30944e-07
3.61715e-07
3.93249e-07
6.1477e-07
5.1845e-07
4.04017e-07
3.3453e-07
2.87208e-07
2.54231e-07
2.30567e-07
2.14802e-07
2.12508e-07
2.29057e-07
2.17042e-07
1.91436e-07
1.91009e-07
2.09171e-07
2.3716e-07
2.73708e-07
3.2229e-07
3.87942e-07
4.91552e-07
5.90066e-07
9.2988e-07
7.44143e-07
5.23069e-07
4.02955e-07
3.33226e-07
2.87321e-07
2.52805e-07
2.26681e-07
2.17676e-07
2.41612e-07
2.5306e-07
2.2121e-07
2.15301e-07
2.33283e-07
2.65999e-07
3.14746e-07
3.88379e-07
5.10209e-07
7.2771e-07
9.24774e-07
1.25436e-06
9.64085e-07
6.23759e-07
4.69402e-07
3.97333e-07
3.59912e-07
3.36052e-07
3.17989e-07
3.09274e-07
3.26732e-07
3.48385e-07
3.17051e-07
3.03712e-07
3.15599e-07
3.43864e-07
3.91647e-07
4.79423e-07
6.58465e-07
1.00442e-06
1.30757e-06
1.59986e-06
1.25746e-06
8.50447e-07
7.30119e-07
7.69748e-07
8.55558e-07
9.42807e-07
9.84448e-07
9.41378e-07
8.50441e-07
8.34241e-07
8.89318e-07
9.15559e-07
8.92649e-07
8.41292e-07
7.93059e-07
8.0205e-07
1.02291e-06
1.38492e-06
1.7136e-06
2.03634e-06
2.00501e-06
2.38848e-06
2.8541e-06
3.66528e-06
4.56122e-06
5.28609e-06
5.56106e-06
5.14322e-06
4.35794e-06
4.15574e-06
4.75348e-06
5.12837e-06
4.98197e-06
4.48946e-06
3.78756e-06
3.13776e-06
2.67891e-06
2.22896e-06
2.20279e-06
2.56291e-06
3.53994e-06
4.5322e-06
5.55807e-06
6.70429e-06
7.93087e-06
9.13786e-06
1.01895e-05
1.09144e-05
1.11324e-05
1.05504e-05
1.01582e-05
9.44803e-06
8.52926e-06
7.51929e-06
6.49856e-06
5.52823e-06
4.61219e-06
3.67896e-06
2.72786e-06
5.95702e-08
9.98428e-08
1.25889e-07
1.39402e-07
1.48514e-07
1.58394e-07
1.72782e-07
1.90912e-07
2.06188e-07
2.11996e-07
2.11207e-07
1.86526e-07
1.73656e-07
1.69511e-07
1.60484e-07
1.45705e-07
1.26896e-07
1.07114e-07
8.61347e-08
5.97417e-08
8.15099e-08
1.1936e-07
1.41293e-07
1.48609e-07
1.46478e-07
1.40778e-07
1.38775e-07
1.48737e-07
1.81919e-07
2.21027e-07
2.06947e-07
1.70971e-07
1.48368e-07
1.40349e-07
1.36586e-07
1.3343e-07
1.28918e-07
1.20375e-07
1.04671e-07
8.3482e-08
1.73583e-07
2.23858e-07
2.51772e-07
2.53095e-07
2.28283e-07
1.95261e-07
1.70034e-07
1.63181e-07
1.91172e-07
2.25528e-07
2.04069e-07
1.63587e-07
1.47798e-07
1.54855e-07
1.7328e-07
1.98986e-07
2.22164e-07
2.27358e-07
2.05771e-07
1.45184e-07
3.03905e-07
2.74005e-07
2.68844e-07
2.6621e-07
2.62334e-07
2.50935e-07
2.2809e-07
2.05489e-07
2.13474e-07
2.51699e-07
2.20192e-07
1.73223e-07
1.70067e-07
1.93194e-07
2.20471e-07
2.43184e-07
2.59133e-07
2.68681e-07
2.73336e-07
2.98675e-07
5.47691e-07
4.15963e-07
3.2527e-07
2.8047e-07
2.54231e-07
2.3646e-07
2.24109e-07
2.18107e-07
2.3483e-07
2.95342e-07
2.68561e-07
2.02215e-07
1.85281e-07
1.95374e-07
2.15084e-07
2.38887e-07
2.67703e-07
3.09469e-07
3.92429e-07
5.25136e-07
9.19603e-07
6.79488e-07
4.4811e-07
3.41637e-07
2.87321e-07
2.54394e-07
2.31901e-07
2.20441e-07
2.38233e-07
3.20998e-07
3.37209e-07
2.43237e-07
2.0925e-07
2.14269e-07
2.36532e-07
2.72367e-07
3.30876e-07
4.42125e-07
6.81678e-07
9.283e-07
1.30242e-06
9.57213e-07
5.6777e-07
4.1924e-07
3.59912e-07
3.34845e-07
3.2433e-07
3.23502e-07
3.44638e-07
4.27244e-07
4.7876e-07
3.75121e-07
3.21221e-07
3.12548e-07
3.25166e-07
3.58741e-07
4.332e-07
6.07014e-07
1.028e-06
1.38045e-06
1.71495e-06
1.3262e-06
7.95887e-07
7.59264e-07
8.55558e-07
9.93987e-07
1.1236e-06
1.17886e-06
1.12184e-06
1.04993e-06
1.06406e-06
1.10507e-06
1.13702e-06
1.10051e-06
1.00812e-06
9.07111e-07
8.54674e-07
9.86713e-07
1.50054e-06
1.86293e-06
2.23565e-06
2.18749e-06
2.64365e-06
3.36271e-06
4.56122e-06
5.79694e-06
6.755e-06
7.00356e-06
6.33847e-06
5.49407e-06
5.28956e-06
5.98108e-06
6.61601e-06
6.55454e-06
5.86376e-06
4.84546e-06
3.8184e-06
3.12575e-06
2.50047e-06
2.44822e-06
2.86572e-06
4.02507e-06
5.20574e-06
6.46691e-06
7.93087e-06
9.52708e-06
1.11585e-05
1.26931e-05
1.39689e-05
1.47707e-05
1.39509e-05
1.29893e-05
1.17704e-05
1.04219e-05
9.04042e-06
7.69899e-06
6.44882e-06
5.31249e-06
4.19039e-06
3.05299e-06
5.68074e-08
9.25759e-08
1.20135e-07
1.39801e-07
1.55638e-07
1.72782e-07
1.96998e-07
2.30426e-07
2.6422e-07
2.66778e-07
2.54876e-07
2.24829e-07
2.09256e-07
1.90974e-07
1.6805e-07
1.44548e-07
1.21844e-07
1.00756e-07
7.95051e-08
5.39552e-08
7.94532e-08
9.89064e-08
1.22068e-07
1.32597e-07
1.35593e-07
1.38775e-07
1.48772e-07
1.77439e-07
2.42483e-07
3.17491e-07
2.85403e-07
2.23893e-07
1.8085e-07
1.54336e-07
1.36564e-07
1.22902e-07
1.11277e-07
9.91987e-08
8.33648e-08
7.36418e-08
1.24078e-07
1.76141e-07
2.02979e-07
2.00806e-07
1.84832e-07
1.70034e-07
1.6454e-07
1.8557e-07
2.6829e-07
3.80066e-07
3.19414e-07
2.15881e-07
1.65957e-07
1.49066e-07
1.47299e-07
1.51309e-07
1.55779e-07
1.54551e-07
1.35473e-07
9.05567e-08
2.22998e-07
2.11493e-07
2.26673e-07
2.40493e-07
2.42236e-07
2.2809e-07
2.08649e-07
2.12468e-07
3.02474e-07
5.12102e-07
4.08263e-07
2.24378e-07
1.69151e-07
1.70878e-07
1.89892e-07
2.09329e-07
2.20397e-07
2.18663e-07
2.07031e-07
2.15749e-07
4.83532e-07
3.35168e-07
2.66544e-07
2.41536e-07
2.30567e-07
2.24109e-07
2.1986e-07
2.31415e-07
3.36001e-07
6.70076e-07
5.54568e-07
2.60582e-07
1.86279e-07
1.83253e-07
1.94914e-07
2.08384e-07
2.2318e-07
2.4728e-07
3.10309e-07
4.72372e-07
8.88725e-07
5.77625e-07
3.72898e-07
2.90557e-07
2.52805e-07
2.31901e-07
2.21456e-07
2.34102e-07
3.50267e-07
7.79951e-07
7.55883e-07
3.29999e-07
2.14542e-07
2.0074e-07
2.12737e-07
2.37819e-07
2.83123e-07
3.79617e-07
6.12352e-07
9.19716e-07
1.31506e-06
9.07133e-07
5.10486e-07
3.79326e-07
3.36052e-07
3.2433e-07
3.2784e-07
3.52709e-07
4.75385e-07
9.27383e-07
1.00506e-06
5.12199e-07
3.5393e-07
3.1998e-07
3.1891e-07
3.4007e-07
4.01432e-07
5.64188e-07
1.0054e-06
1.42064e-06
1.78183e-06
1.3477e-06
7.83335e-07
7.98228e-07
9.42807e-07
1.1236e-06
1.27326e-06
1.31965e-06
1.30799e-06
1.56413e-06
1.62057e-06
1.32855e-06
1.30929e-06
1.27994e-06
1.17066e-06
1.03019e-06
9.21276e-07
9.55876e-07
1.56657e-06
1.96475e-06
2.37416e-06
2.30038e-06
2.76268e-06
3.78263e-06
5.28609e-06
6.755e-06
7.74866e-06
7.78075e-06
7.14904e-06
7.28261e-06
6.93459e-06
6.86794e-06
7.50541e-06
7.6234e-06
6.89543e-06
5.68651e-06
4.38198e-06
3.47747e-06
2.70713e-06
2.63299e-06
3.11126e-06
4.44327e-06
5.81436e-06
7.3305e-06
9.13786e-06
1.11585e-05
1.33259e-05
1.55736e-05
1.78475e-05
1.99332e-05
1.86703e-05
1.64972e-05
1.43772e-05
1.23957e-05
1.05505e-05
8.8507e-06
7.30856e-06
5.94329e-06
4.63319e-06
3.31944e-06
5.44468e-08
8.6604e-08
1.14273e-07
1.38245e-07
1.6227e-07
1.90912e-07
2.30426e-07
2.85561e-07
3.44585e-07
3.51372e-07
3.11023e-07
2.87017e-07
2.61196e-07
2.21457e-07
1.82695e-07
1.49735e-07
1.22351e-07
9.9267e-08
7.71319e-08
5.08823e-08
7.7561e-08
8.74185e-08
1.05733e-07
1.1937e-07
1.32365e-07
1.48737e-07
1.77439e-07
2.39039e-07
3.6517e-07
5.7464e-07
4.95538e-07
3.29909e-07
2.44709e-07
1.87873e-07
1.51551e-07
1.27712e-07
1.09406e-07
9.22436e-08
7.52895e-08
7.2125e-08
8.95198e-08
1.3132e-07
1.51175e-07
1.56041e-07
1.57858e-07
1.63181e-07
1.8557e-07
2.69659e-07
5.39135e-07
1.23961e-06
9.67129e-07
4.05517e-07
2.32049e-07
1.68458e-07
1.4364e-07
1.33411e-07
1.26483e-07
1.1592e-07
9.71869e-08
7.84355e-08
1.57191e-07
1.72108e-07
2.00042e-07
2.16025e-07
2.1503e-07
2.05489e-07
2.12468e-07
3.12533e-07
8.03993e-07
2.32057e-06
1.8226e-06
5.4934e-07
2.30074e-07
1.65987e-07
1.59977e-07
1.67065e-07
1.73012e-07
1.68471e-07
1.51284e-07
1.51087e-07
4.04829e-07
2.66777e-07
2.2106e-07
2.12877e-07
2.14802e-07
2.18107e-07
2.31415e-07
3.49458e-07
1.10817e-06
3.67362e-06
3.00054e-06
7.56553e-07
2.49945e-07
1.822e-07
1.79623e-07
1.84238e-07
1.88875e-07
2.01155e-07
2.52829e-07
4.24372e-07
8.34335e-07
4.89722e-07
3.10165e-07
2.4838e-07
2.26681e-07
2.20441e-07
2.34102e-07
3.65481e-07
1.31039e-06
4.85799e-06
4.22348e-06
9.99904e-07
2.91582e-07
2.03373e-07
1.98517e-07
2.11598e-07
2.44023e-07
3.24295e-07
5.34471e-07
8.89997e-07
1.28731e-06
8.11062e-07
4.47821e-07
3.41815e-07
3.17989e-07
3.23502e-07
3.52709e-07
5.0134e-07
1.53374e-06
5.54572e-06
5.12019e-06
1.32042e-06
4.64933e-07
3.4478e-07
3.24849e-07
3.32291e-07
3.78206e-07
5.20916e-07
9.40188e-07
1.41745e-06
1.79073e-06
1.32074e-06
7.52756e-07
8.07569e-07
9.84448e-07
1.17886e-06
1.31965e-06
1.43496e-06
2.26301e-06
6.11451e-06
5.67186e-06
2.10571e-06
1.42945e-06
1.36021e-06
1.26626e-06
1.11759e-06
9.72051e-07
9.41056e-07
1.55757e-06
2.00004e-06
2.43195e-06
2.30673e-06
2.7066e-06
3.92824e-06
5.56106e-06
7.00356e-06
7.78075e-06
7.84118e-06
8.72725e-06
1.2575e-05
1.16082e-05
8.20304e-06
7.60417e-06
7.70738e-06
7.17647e-06
6.03346e-06
4.63074e-06
3.56227e-06
2.77746e-06
2.72643e-06
3.27132e-06
4.73815e-06
6.27342e-06
8.03071e-06
1.01895e-05
1.26931e-05
1.55736e-05
1.89693e-05
2.31348e-05
2.79038e-05
2.58065e-05
2.10924e-05
1.73155e-05
1.4351e-05
1.19102e-05
9.81937e-06
7.99285e-06
6.41986e-06
4.95295e-06
3.50003e-06
5.36574e-08
8.40503e-08
1.10478e-07
1.35467e-07
1.6615e-07
2.06188e-07
2.6422e-07
3.44585e-07
4.25544e-07
4.6341e-07
4.10123e-07
3.59935e-07
3.22086e-07
2.58966e-07
2.04069e-07
1.61395e-07
1.28314e-07
1.0178e-07
7.79423e-08
4.97551e-08
8.21472e-08
8.22852e-08
1.00478e-07
1.21108e-07
1.46823e-07
1.81919e-07
2.42483e-07
3.6517e-07
6.82468e-07
2.63655e-06
2.03572e-06
5.75619e-07
3.61022e-07
2.41442e-07
1.76486e-07
1.41762e-07
1.17548e-07
9.60821e-08
7.71005e-08
7.39263e-08
9.76351e-08
1.01063e-07
1.20325e-07
1.38535e-07
1.59034e-07
1.91172e-07
2.6829e-07
5.39135e-07
1.89372e-06
8.50281e-06
6.859e-06
1.37804e-06
4.37715e-07
2.27342e-07
1.60098e-07
1.34188e-07
1.18473e-07
1.03287e-07
8.46982e-08
7.8767e-08
1.25302e-07
1.4592e-07
1.75585e-07
1.88784e-07
1.94053e-07
2.13474e-07
3.02474e-07
8.03993e-07
3.69942e-06
1.57413e-05
1.32062e-05
2.70531e-06
5.69349e-07
2.22583e-07
1.59859e-07
1.43577e-07
1.36497e-07
1.29776e-07
1.15067e-07
1.09117e-07
3.08047e-07
2.12532e-07
1.91086e-07
1.97936e-07
2.12508e-07
2.3483e-07
3.36001e-07
1.10817e-06
5.96033e-06
2.37007e-05
2.03716e-05
4.44984e-06
7.3441e-07
2.42697e-07
1.82453e-07
1.71113e-07
1.66139e-07
1.69223e-07
2.09796e-07
3.69396e-07
7.58045e-07
4.22616e-07
2.64416e-07
2.20675e-07
2.17676e-07
2.38233e-07
3.50267e-07
1.31039e-06
8.07747e-06
3.07014e-05
2.67029e-05
6.07263e-06
8.9348e-07
2.72866e-07
2.06856e-07
1.99636e-07
2.16906e-07
2.79437e-07
4.58575e-07
8.29279e-07
1.21856e-06
6.90944e-07
3.87559e-07
3.0916e-07
3.09274e-07
3.44638e-07
4.75385e-07
1.53374e-06
9.40736e-06
3.4597e-05
3.02091e-05
7.14028e-06
1.14347e-06
4.45888e-07
3.59482e-07
3.40472e-07
3.62438e-07
4.75912e-07
8.45029e-07
1.36097e-06
1.73349e-06
1.23897e-06
6.92224e-07
7.59833e-07
9.41378e-07
1.12184e-06
1.30799e-06
2.26301e-06
9.96078e-06
3.35089e-05
2.97087e-05
7.709e-06
1.95426e-06
1.36461e-06
1.25774e-06
1.1231e-06
9.62301e-07
8.92312e-07
1.45794e-06
1.95036e-06
2.38704e-06
2.17559e-06
2.44861e-06
3.66004e-06
5.14322e-06
6.33847e-06
7.14904e-06
8.72725e-06
1.47344e-05
2.76079e-05
2.4994e-05
1.27561e-05
8.0177e-06
6.9893e-06
6.51774e-06
5.6469e-06
4.37175e-06
3.26882e-06
2.65038e-06
2.69368e-06
3.30595e-06
4.83134e-06
6.45706e-06
8.42023e-06
1.09144e-05
1.39689e-05
1.78475e-05
2.31348e-05
3.06648e-05
3.93781e-05
3.60735e-05
2.72757e-05
2.06751e-05
1.61845e-05
1.29608e-05
1.04481e-05
8.36603e-06
6.64432e-06
5.08308e-06
3.55798e-06
5.44748e-08
8.52502e-08
1.13712e-07
1.41679e-07
1.73443e-07
2.11996e-07
2.66778e-07
3.51372e-07
4.6341e-07
5.16117e-07
4.78781e-07
4.3855e-07
3.72201e-07
2.88024e-07
2.23054e-07
1.74621e-07
1.36815e-07
1.06885e-07
8.08869e-08
4.98534e-08
8.96157e-08
8.71915e-08
1.08041e-07
1.34276e-07
1.70229e-07
2.21027e-07
3.17491e-07
5.7464e-07
2.63655e-06
3.35244e-06
2.90137e-06
2.08062e-06
4.94851e-07
2.79345e-07
1.93456e-07
1.53064e-07
1.26053e-07
1.02188e-07
8.11379e-08
7.54576e-08
1.09204e-07
9.60601e-08
1.15054e-07
1.3996e-07
1.7312e-07
2.25528e-07
3.80066e-07
1.23961e-06
8.50281e-06
6.56933e-06
5.87543e-06
7.21568e-06
1.00147e-06
3.12253e-07
1.82537e-07
1.4345e-07
1.21475e-07
1.01822e-07
8.26331e-08
8.10717e-08
1.20781e-07
1.28976e-07
1.49874e-07
1.68122e-07
1.94007e-07
2.51699e-07
5.12102e-07
2.32057e-06
1.57413e-05
1.02921e-05
9.55192e-06
1.3407e-05
1.79032e-06
3.90946e-07
1.93903e-07
1.49766e-07
1.29314e-07
1.14701e-07
1.00711e-07
9.56562e-08
2.25422e-07
1.7745e-07
1.76494e-07
1.97757e-07
2.29057e-07
2.95342e-07
6.70076e-07
3.67362e-06
2.37007e-05
1.44679e-05
1.38744e-05
2.01102e-05
2.83307e-06
4.93653e-07
2.31667e-07
1.81707e-07
1.61934e-07
1.5491e-07
1.77968e-07
3.02394e-07
6.65407e-07
3.66287e-07
2.36897e-07
2.16181e-07
2.41612e-07
3.20998e-07
7.79951e-07
4.85799e-06
3.07014e-05
1.87664e-05
1.84479e-05
2.55989e-05
3.64231e-06
5.91879e-07
2.79104e-07
2.17881e-07
2.05926e-07
2.47073e-07
3.90499e-07
7.24492e-07
1.11624e-06
5.97974e-07
3.41711e-07
2.92255e-07
3.26732e-07
4.27244e-07
9.27383e-07
5.54572e-06
3.4597e-05
2.24493e-05
2.23907e-05
2.80306e-05
4.08814e-06
8.26759e-07
4.68282e-07
3.78487e-07
3.54695e-07
4.26281e-07
7.19765e-07
1.24249e-06
1.61197e-06
1.07277e-06
6.05401e-07
6.69298e-07
8.50441e-07
1.04993e-06
1.56413e-06
6.11451e-06
3.35089e-05
2.45116e-05
2.4414e-05
2.66385e-05
4.52004e-06
1.57676e-06
1.23956e-06
1.06901e-06
8.83918e-07
7.96396e-07
1.26387e-06
1.80895e-06
2.23415e-06
1.90478e-06
2.00753e-06
3.08918e-06
4.35794e-06
5.49407e-06
7.28261e-06
1.2575e-05
2.76079e-05
2.64265e-05
2.57578e-05
2.2512e-05
1.06804e-05
6.81644e-06
5.65907e-06
4.87425e-06
3.77892e-06
2.75062e-06
2.33402e-06
2.51676e-06
3.17609e-06
4.66628e-06
6.26494e-06
8.35413e-06
1.11324e-05
1.47707e-05
1.99332e-05
2.79038e-05
3.93781e-05
4.18403e-05
3.93438e-05
3.38971e-05
2.42094e-05
1.77416e-05
1.35762e-05
1.06302e-05
8.3339e-06
6.52275e-06
4.9586e-06
3.44503e-06
5.54195e-08
8.66898e-08
1.16331e-07
1.4556e-07
1.76572e-07
2.11207e-07
2.54876e-07
3.11023e-07
4.10123e-07
4.78781e-07
4.63243e-07
4.11507e-07
3.47611e-07
2.72247e-07
2.16801e-07
1.74358e-07
1.39962e-07
1.11479e-07
8.45445e-08
5.00336e-08
9.2094e-08
9.02609e-08
1.11321e-07
1.35247e-07
1.6569e-07
2.06947e-07
2.85403e-07
4.95538e-07
2.03572e-06
2.90137e-06
2.64094e-06
1.48625e-06
4.10394e-07
2.45086e-07
1.79642e-07
1.47644e-07
1.24928e-07
1.03797e-07
8.32084e-08
7.30336e-08
1.09572e-07
9.81154e-08
1.16574e-07
1.37764e-07
1.63687e-07
2.04069e-07
3.19414e-07
9.67129e-07
6.859e-06
5.87543e-06
5.95445e-06
5.23364e-06
7.47125e-07
2.62322e-07
1.70443e-07
1.40143e-07
1.21147e-07
1.03439e-07
8.39373e-08
7.9714e-08
1.19195e-07
1.27308e-07
1.44281e-07
1.59643e-07
1.78894e-07
2.20192e-07
4.08263e-07
1.8226e-06
1.32062e-05
9.55192e-06
1.06254e-05
9.78944e-06
1.29963e-06
3.2848e-07
1.89647e-07
1.53381e-07
1.34324e-07
1.20123e-07
1.05443e-07
9.5767e-08
1.76769e-07
1.60684e-07
1.71129e-07
1.91534e-07
2.17042e-07
2.68561e-07
5.54568e-07
3.00054e-06
2.03716e-05
1.38744e-05
1.65631e-05
1.49756e-05
2.044e-06
4.51843e-07
2.48422e-07
1.96691e-07
1.72148e-07
1.60275e-07
1.63633e-07
2.36499e-07
5.52552e-07
3.16261e-07
2.22461e-07
2.17732e-07
2.5306e-07
3.37209e-07
7.55883e-07
4.22348e-06
2.67029e-05
1.84479e-05
2.29783e-05
1.92857e-05
3.06009e-06
6.47658e-07
3.42811e-07
2.537e-07
2.12917e-07
2.29185e-07
3.37147e-07
6.14341e-07
1.02256e-06
5.36444e-07
3.17666e-07
2.90549e-07
3.48385e-07
4.7876e-07
1.00506e-06
5.12019e-06
3.02091e-05
2.23907e-05
2.84576e-05
2.12185e-05
3.83172e-06
1.03676e-06
5.80766e-07
4.24389e-07
3.5371e-07
3.85637e-07
6.21001e-07
1.11387e-06
1.51184e-06
9.52422e-07
5.64799e-07
6.35593e-07
8.34241e-07
1.06406e-06
1.62057e-06
5.67186e-06
2.97087e-05
2.4414e-05
3.10032e-05
2.06686e-05
4.35201e-06
1.77125e-06
1.32052e-06
1.06551e-06
8.28605e-07
7.27202e-07
1.15744e-06
1.67104e-06
2.11092e-06
1.77931e-06
1.84008e-06
2.91009e-06
4.15574e-06
5.28956e-06
6.93459e-06
1.16082e-05
2.4994e-05
2.57578e-05
3.07857e-05
1.96818e-05
9.99844e-06
6.75729e-06
5.57795e-06
4.70965e-06
3.57684e-06
2.5511e-06
2.18317e-06
2.35877e-06
3.01153e-06
4.40707e-06
5.91088e-06
7.91443e-06
1.05504e-05
1.39509e-05
1.86703e-05
2.58065e-05
3.60735e-05
3.93438e-05
4.24956e-05
3.28899e-05
2.35786e-05
1.74575e-05
1.33925e-05
1.04593e-05
8.15733e-06
6.34727e-06
4.79254e-06
3.29981e-06
5.4542e-08
8.44875e-08
1.11021e-07
1.34793e-07
1.58787e-07
1.86526e-07
2.24829e-07
2.87017e-07
3.59935e-07
4.3855e-07
4.11507e-07
3.61372e-07
2.94344e-07
2.39308e-07
1.97499e-07
1.64872e-07
1.37182e-07
1.12248e-07
8.6259e-08
5.11658e-08
8.59508e-08
8.7889e-08
1.06299e-07
1.23454e-07
1.43019e-07
1.70971e-07
2.23893e-07
3.29909e-07
5.75619e-07
2.08062e-06
1.48625e-06
4.47856e-07
2.6773e-07
1.89217e-07
1.5306e-07
1.33197e-07
1.17694e-07
1.01855e-07
8.35057e-08
6.94217e-08
9.68939e-08
1.072e-07
1.24594e-07
1.35093e-07
1.44843e-07
1.63587e-07
2.15881e-07
4.05517e-07
1.37804e-06
7.21568e-06
5.23364e-06
9.34052e-07
2.99229e-07
1.7445e-07
1.41828e-07
1.29065e-07
1.19595e-07
1.08232e-07
9.12158e-08
7.97731e-08
1.22481e-07
1.41421e-07
1.57789e-07
1.64272e-07
1.66148e-07
1.73223e-07
2.24378e-07
5.4934e-07
2.70531e-06
1.3407e-05
9.78944e-06
1.73343e-06
3.84528e-07
1.90335e-07
1.57529e-07
1.4944e-07
1.45494e-07
1.40112e-07
1.28706e-07
1.15434e-07
1.77439e-07
1.71044e-07
1.77133e-07
1.84799e-07
1.91436e-07
2.02215e-07
2.60582e-07
7.56553e-07
4.44984e-06
2.01102e-05
1.49756e-05
2.89643e-06
5.25317e-07
2.40133e-07
1.99753e-07
1.89357e-07
1.84457e-07
1.80721e-07
1.81384e-07
2.21132e-07
5.79173e-07
3.29378e-07
2.31376e-07
2.13539e-07
2.2121e-07
2.43237e-07
3.29999e-07
9.99904e-07
6.07263e-06
2.55989e-05
1.92857e-05
4.12408e-06
7.315e-07
3.27998e-07
2.62513e-07
2.34986e-07
2.25069e-07
2.41652e-07
3.34271e-07
6.05986e-07
1.05719e-06
5.54407e-07
3.28544e-07
2.89451e-07
3.17051e-07
3.75121e-07
5.12199e-07
1.32042e-06
7.14028e-06
2.80306e-05
2.12185e-05
5.00787e-06
1.18603e-06
6.1692e-07
4.8358e-07
4.06589e-07
3.59167e-07
3.91233e-07
6.26169e-07
1.13801e-06
1.56761e-06
1.0095e-06
6.05779e-07
6.82381e-07
8.89318e-07
1.10507e-06
1.32855e-06
2.10571e-06
7.709e-06
2.66385e-05
2.06686e-05
5.60427e-06
2.09653e-06
1.59658e-06
1.39369e-06
1.15463e-06
8.93916e-07
7.74769e-07
1.22419e-06
1.72582e-06
2.19621e-06
1.9499e-06
2.0852e-06
3.2894e-06
4.75348e-06
5.98108e-06
6.86794e-06
8.20304e-06
1.27561e-05
2.2512e-05
1.96818e-05
1.10955e-05
7.92281e-06
6.97915e-06
6.33597e-06
5.38234e-06
4.02406e-06
2.87291e-06
2.3644e-06
2.45061e-06
3.08914e-06
4.47462e-06
5.95838e-06
7.81341e-06
1.01582e-05
1.29893e-05
1.64972e-05
2.10924e-05
2.72757e-05
3.38971e-05
3.28899e-05
2.56291e-05
1.99299e-05
1.57784e-05
1.26532e-05
1.01646e-05
8.08138e-06
6.37563e-06
4.8499e-06
3.37692e-06
5.42812e-08
8.50878e-08
1.10578e-07
1.31198e-07
1.50166e-07
1.73656e-07
2.09256e-07
2.61196e-07
3.22086e-07
3.72201e-07
3.47611e-07
2.94344e-07
2.47948e-07
2.09988e-07
1.80873e-07
1.57634e-07
1.37024e-07
1.16074e-07
9.06232e-08
5.41471e-08
8.06496e-08
9.17117e-08
1.09645e-07
1.2179e-07
1.32283e-07
1.48368e-07
1.8085e-07
2.44709e-07
3.61022e-07
4.94851e-07
4.10394e-07
2.6773e-07
1.94965e-07
1.56703e-07
1.37805e-07
1.26791e-07
1.1734e-07
1.05773e-07
8.89118e-08
7.1843e-08
9.92963e-08
1.37645e-07
1.56294e-07
1.56103e-07
1.4856e-07
1.47798e-07
1.65957e-07
2.32049e-07
4.37715e-07
1.00147e-06
7.47125e-07
2.99229e-07
1.77851e-07
1.43624e-07
1.35408e-07
1.34372e-07
1.33326e-07
1.27396e-07
1.11641e-07
8.69974e-08
1.50061e-07
1.66607e-07
1.82665e-07
1.87131e-07
1.8177e-07
1.70067e-07
1.69151e-07