/*--------------------------------*- C++ -*----------------------------------*\
  =========                 |
  \\      /  F ield         | OpenFOAM: The Open Source CFD Toolbox
   \\    /   O peration     | Website:  https://openfoam.org
    \\  /    A nd           | Version:  9
     \\/     M anipulation  |
\*---------------------------------------------------------------------------*/
FoamFile
{
    format      ascii;
    class       volScalarField;
    location    "750";
    object      k;
}
// * * * * * * * * * * * * * * * * * * * * * * * * * * * * * * * * * * * * * //

dimensions      [0 2 -2 0 0 0 0];

internalField   nonuniform List<scalar> 
4000
(
1.50842e-05
1.39359e-05
1.29691e-05
1.23528e-05
1.15536e-05
1.10942e-05
1.07484e-05
1.04428e-05
1.03318e-05
1.04227e-05
1.0532e-05
1.04134e-05
1.03848e-05
1.07249e-05
1.14642e-05
1.2223e-05
1.2789e-05
1.30011e-05
1.33381e-05
1.50069e-05
3.6066e-05
3.19384e-05
2.54588e-05
1.92764e-05
1.51941e-05
1.36346e-05
1.34014e-05
1.3175e-05
1.3684e-05
1.449e-05
1.47535e-05
1.40961e-05
1.35185e-05
1.38119e-05
1.48522e-05
1.65264e-05
1.86143e-05
1.97187e-05
2.25044e-05
2.62047e-05
5.20749e-05
4.9577e-05
4.45276e-05
3.7492e-05
2.90537e-05
2.27684e-05
1.81206e-05
1.45275e-05
1.53609e-05
1.6544e-05
1.65754e-05
1.52759e-05
1.55556e-05
1.88113e-05
2.21761e-05
2.59872e-05
3.14113e-05
3.91152e-05
4.6263e-05
4.97621e-05
5.73123e-05
5.64635e-05
5.27359e-05
4.68492e-05
4.00046e-05
3.31279e-05
2.6919e-05
2.11795e-05
1.81451e-05
1.76737e-05
1.75147e-05
1.78558e-05
2.0468e-05
2.41558e-05
2.83948e-05
3.38123e-05
4.17644e-05
4.9116e-05
5.43828e-05
5.66092e-05
6.0331e-05
6.16179e-05
6.03215e-05
5.70348e-05
5.30212e-05
4.90945e-05
4.51291e-05
4.00128e-05
3.31749e-05
2.67563e-05
2.26823e-05
2.27752e-05
2.63297e-05
3.14593e-05
3.71757e-05
4.43091e-05
5.10202e-05
5.68722e-05
6.03286e-05
6.05759e-05
6.2712e-05
6.65022e-05
6.85999e-05
6.95428e-05
6.98054e-05
6.92598e-05
6.76491e-05
6.47922e-05
6.07041e-05
5.55798e-05
4.90101e-05
5.06405e-05
5.37142e-05
5.66102e-05
5.93246e-05
6.18495e-05
6.40511e-05
6.56757e-05
6.57832e-05
6.35869e-05
6.51752e-05
7.16293e-05
7.72331e-05
8.17313e-05
8.52154e-05
8.73385e-05
8.78512e-05
8.65517e-05
8.33791e-05
7.85879e-05
7.41022e-05
7.57936e-05
7.77675e-05
7.91721e-05
7.9715e-05
7.92182e-05
7.76801e-05
7.52142e-05
7.14779e-05
6.65381e-05
6.80378e-05
7.73689e-05
8.6303e-05
9.39146e-05
0.000100271
0.000104973
0.000107617
0.000107903
0.000105517
0.000100457
9.62178e-05
9.85911e-05
0.00010005
0.000100063
9.84748e-05
9.53967e-05
9.08682e-05
8.5034e-05
7.77387e-05
6.98776e-05
7.18107e-05
8.48884e-05
9.73885e-05
0.000108366
0.000117836
0.000125333
0.000130363
0.000132365
0.000130624
0.000124892
0.000120194
0.000123427
0.000124273
0.000122651
0.000118839
0.000113136
0.00010564
9.65281e-05
8.56621e-05
7.40922e-05
7.71287e-05
9.43632e-05
0.00011081
0.000125035
0.000137457
0.000147978
0.000156193
0.000161372
0.000162377
0.000157983
0.000152359
0.000154962
0.000153655
0.000149391
0.000142682
0.00013396
0.000123406
0.000110898
9.58667e-05
7.98708e-05
1.39359e-05
1.50806e-05
1.53877e-05
1.63613e-05
1.64169e-05
1.56931e-05
1.49072e-05
1.42332e-05
1.3926e-05
1.40293e-05
1.41692e-05
1.39261e-05
1.40146e-05
1.48244e-05
1.63838e-05
1.72026e-05
1.67245e-05
1.57108e-05
1.48123e-05
1.45553e-05
3.19384e-05
3.46676e-05
2.99472e-05
2.87525e-05
2.89146e-05
2.59071e-05
2.36484e-05
2.27793e-05
2.22085e-05
2.2668e-05
2.25538e-05
2.19449e-05
2.25853e-05
2.56391e-05
3.15938e-05
3.60121e-05
3.24289e-05
2.65626e-05
2.41581e-05
2.25513e-05
4.9577e-05
5.95656e-05
5.48573e-05
4.53656e-05
3.77276e-05
3.35989e-05
3.07051e-05
2.8136e-05
2.57082e-05
2.54023e-05
2.52483e-05
2.55236e-05
2.81628e-05
3.21599e-05
3.53369e-05
3.74782e-05
4.07234e-05
4.86008e-05
5.6483e-05
4.63473e-05
5.64635e-05
6.29694e-05
6.15647e-05
5.44148e-05
4.45744e-05
3.66792e-05
3.15038e-05
2.86079e-05
2.75887e-05
2.77789e-05
2.74359e-05
2.73958e-05
2.88691e-05
3.17424e-05
3.57146e-05
4.13785e-05
5.04184e-05
5.9983e-05
6.25506e-05
5.50581e-05
6.16179e-05
6.77382e-05
6.87646e-05
6.45132e-05
5.65955e-05
4.75884e-05
4.06476e-05
3.49229e-05
3.07892e-05
2.87999e-05
2.76902e-05
2.79151e-05
3.03945e-05
3.46126e-05
4.0211e-05
4.82213e-05
5.87013e-05
6.54327e-05
6.64604e-05
6.11673e-05
6.65022e-05
7.3793e-05
7.74738e-05
7.78606e-05
7.49574e-05
6.83814e-05
5.92637e-05
5.18244e-05
4.65206e-05
4.24801e-05
3.88345e-05
3.95319e-05
4.28793e-05
4.81339e-05
5.46107e-05
6.44549e-05
7.09145e-05
7.38016e-05
7.22573e-05
6.69284e-05
7.16293e-05
8.07364e-05
8.63413e-05
9.10109e-05
9.43287e-05
9.38436e-05
8.97192e-05
8.14906e-05
7.0957e-05
6.2775e-05
5.73919e-05
5.83843e-05
6.23066e-05
6.84015e-05
7.86493e-05
8.43917e-05
8.4855e-05
8.32148e-05
7.95655e-05
7.29975e-05
7.73689e-05
9.01028e-05
9.78817e-05
0.000105707
0.000114322
0.000120078
0.000122105
0.000121015
0.000116624
0.000106609
9.79685e-05
0.00010108
0.000106594
0.000111516
0.000110741
0.000106697
0.000100409
9.52062e-05
8.95577e-05
7.96728e-05
8.48884e-05
0.000103707
0.000118218
0.000131692
0.000144828
0.000155484
0.000161677
0.000162081
0.000155002
0.000141127
0.000134257
0.000142044
0.000146256
0.000145919
0.000141827
0.000135133
0.000125988
0.00011616
0.000104534
8.79351e-05
9.43632e-05
0.000115062
0.000135299
0.000153596
0.000170407
0.000185464
0.000197903
0.000206364
0.000208877
0.000203957
0.000196244
0.000198241
0.000195149
0.000188043
0.000177812
0.000165417
0.000151335
0.000135483
0.000117225
9.80695e-05
1.29691e-05
1.53877e-05
1.72769e-05
1.89512e-05
1.89892e-05
1.83326e-05
1.77541e-05
1.71361e-05
1.671e-05
1.69875e-05
1.7224e-05
1.67e-05
1.66906e-05
1.75866e-05
1.91673e-05
1.97299e-05
1.87922e-05
1.72195e-05
1.54107e-05
1.37056e-05
2.54588e-05
2.99472e-05
3.13443e-05
3.40534e-05
3.35813e-05
3.0786e-05
2.92158e-05
2.82358e-05
2.80312e-05
2.8526e-05
2.79616e-05
2.70059e-05
2.79133e-05
3.11813e-05
3.61217e-05
4.06049e-05
3.96956e-05
3.26922e-05
2.53794e-05
1.93289e-05
4.45276e-05
5.48573e-05
5.19043e-05
4.56979e-05
4.20997e-05
4.04093e-05
3.79982e-05
3.46992e-05
3.24172e-05
3.21896e-05
3.16649e-05
3.15803e-05
3.43183e-05
3.88752e-05
4.1835e-05
4.25714e-05
4.31481e-05
4.59745e-05
5.00051e-05
4.08402e-05
5.27359e-05
6.15647e-05
6.03854e-05
5.34328e-05
4.53106e-05
3.99803e-05
3.70263e-05
3.61553e-05
3.63485e-05
3.58811e-05
3.42728e-05
3.36663e-05
3.4687e-05
3.69675e-05
3.99669e-05
4.40548e-05
5.05536e-05
5.86956e-05
6.04025e-05
5.10507e-05
6.03215e-05
6.87646e-05
6.76828e-05
6.14392e-05
5.23285e-05
4.46471e-05
3.91286e-05
3.52982e-05
3.38598e-05
3.48336e-05
3.44837e-05
3.32189e-05
3.40963e-05
3.69524e-05
4.13347e-05
4.78808e-05
5.72157e-05
6.45879e-05
6.63035e-05
5.91448e-05
6.85999e-05
7.74738e-05
7.68046e-05
7.20246e-05
6.44218e-05
5.62028e-05
4.85022e-05
4.25165e-05
3.88203e-05
3.773e-05
3.69788e-05
3.65817e-05
3.8614e-05
4.27898e-05
4.87187e-05
5.74188e-05
6.67074e-05
7.32103e-05
7.4921e-05
6.84581e-05
7.72331e-05
8.63413e-05
8.67896e-05
8.31672e-05
7.72916e-05
7.12972e-05
6.53109e-05
5.9054e-05
5.32391e-05
4.92266e-05
4.7053e-05
4.70673e-05
4.96517e-05
5.46033e-05
6.2158e-05
7.03004e-05
7.85757e-05
8.42105e-05
8.5032e-05
7.85636e-05
8.6303e-05
9.78817e-05
0.000102994
0.000103553
0.000101007
9.8055e-05
9.67567e-05
9.39423e-05
8.83089e-05
8.02538e-05
7.612e-05
7.87643e-05
8.27621e-05
8.67473e-05
8.98809e-05
9.36657e-05
9.9994e-05
0.000102135
9.86937e-05
8.90962e-05
9.73885e-05
0.000118218
0.000141507
0.000165387
0.000187276
0.000204509
0.000213147
0.00021202
0.000196764
0.000170533
0.000160444
0.000174618
0.000184893
0.000187748
0.000184482
0.000176937
0.000161192
0.000141985
0.000121107
0.000101208
0.00011081
0.000135299
0.000158682
0.000180251
0.000200757
0.00021995
0.000236523
0.00024856
0.000253166
0.000247947
0.000238493
0.000239775
0.00023446
0.000224209
0.000210438
0.000194726
0.000177695
0.000159046
0.000137891
0.000115064
1.23528e-05
1.63613e-05
1.89512e-05
1.9898e-05
1.9723e-05
1.96316e-05
1.96473e-05
1.94631e-05
1.91358e-05
1.96577e-05
1.99834e-05
1.89986e-05
1.87038e-05
1.94631e-05
2.05678e-05
2.07844e-05
1.98307e-05
1.82307e-05
1.60449e-05
1.3039e-05
1.92764e-05
2.87525e-05
3.40534e-05
3.57158e-05
3.4196e-05
3.29686e-05
3.23843e-05
3.22916e-05
3.39072e-05
3.50003e-05
3.35059e-05
3.15002e-05
3.17873e-05
3.3807e-05
3.60744e-05
3.79915e-05
3.76635e-05
3.37657e-05
2.69762e-05
1.69085e-05
3.7492e-05
4.53656e-05
4.56979e-05
4.48232e-05
4.47624e-05
4.38852e-05
4.07838e-05
3.80737e-05
3.84113e-05
3.9446e-05
3.80605e-05
3.60629e-05
3.71763e-05
4.13071e-05
4.45674e-05
4.50131e-05
4.3981e-05
4.29464e-05
4.18455e-05
3.40843e-05
4.68492e-05
5.44148e-05
5.34328e-05
4.88395e-05
4.47319e-05
4.25317e-05
4.18591e-05
4.19472e-05
4.25333e-05
4.27138e-05
4.01354e-05
3.77512e-05
3.81066e-05
3.99106e-05
4.19611e-05
4.42342e-05
4.75411e-05
5.17938e-05
5.31485e-05
4.56039e-05
5.70348e-05
6.45132e-05
6.14392e-05
5.51828e-05
4.85673e-05
4.35097e-05
4.01491e-05
3.83747e-05
3.93824e-05
4.30735e-05
4.19062e-05
3.79291e-05
3.69731e-05
3.86016e-05
4.1679e-05
4.6227e-05
5.25839e-05
5.91367e-05
6.20274e-05
5.56487e-05
6.95428e-05
7.78606e-05
7.20246e-05
6.46484e-05
5.71661e-05
5.05223e-05
4.50909e-05
4.10909e-05
3.96773e-05
4.2115e-05
4.29696e-05
3.97916e-05
3.93933e-05
4.18727e-05
4.62785e-05
5.28305e-05
6.09911e-05
6.91947e-05
7.50202e-05
6.91397e-05
8.17313e-05
9.10109e-05
8.31672e-05
7.46351e-05
6.78011e-05
6.22877e-05
5.78235e-05
5.40431e-05
5.14661e-05
5.14789e-05
5.19939e-05
4.96086e-05
4.93498e-05
5.19746e-05
5.67963e-05
6.34135e-05
7.18942e-05
8.20183e-05
8.97033e-05
8.3375e-05
9.39146e-05
0.000105707
0.000103553
9.66492e-05
9.66857e-05
9.83881e-05
0.000100468
0.000100507
9.66166e-05
8.98909e-05
8.73566e-05
8.94652e-05
9.1133e-05
9.18325e-05
9.18558e-05
9.27183e-05
9.65114e-05
0.000106232
0.000108021
9.74781e-05
0.000108366
0.000131692
0.000165387
0.000202549
0.000227549
0.00025218
0.000270685
0.000275212
0.000259664
0.000229647
0.000220966
0.000240462
0.000251668
0.000248401
0.000235577
0.000219022
0.000204644
0.000170841
0.000137624
0.000113163
0.000125035
0.000153596
0.000180251
0.000205205
0.000229787
0.00025392
0.000275756
0.000292769
0.000301926
0.000300171
0.000289551
0.000287082
0.000277306
0.00026201
0.000243453
0.00022338
0.000202908
0.00018111
0.000156711
0.000129797
1.15536e-05
1.64169e-05
1.89892e-05
1.9723e-05
1.99827e-05
2.04845e-05
2.11049e-05
2.1657e-05
2.19256e-05
2.24901e-05
2.27123e-05
2.11829e-05
2.04634e-05
2.08756e-05
2.10816e-05
2.05538e-05
1.92183e-05
1.74312e-05
1.52259e-05
1.20437e-05
1.51941e-05
2.89146e-05
3.35813e-05
3.4196e-05
3.39357e-05
3.39676e-05
3.43443e-05
3.60251e-05
3.99983e-05
4.2801e-05
4.00611e-05
3.64705e-05
3.5312e-05
3.54876e-05
3.56294e-05
3.50304e-05
3.31546e-05
2.98262e-05
2.46319e-05
1.52515e-05
2.90537e-05
3.77276e-05
4.20997e-05
4.47624e-05
4.56288e-05
4.37608e-05
4.10459e-05
4.0624e-05
4.42457e-05
4.74455e-05
4.48028e-05
4.01063e-05
3.86616e-05
4.06608e-05
4.34271e-05
4.47108e-05
4.37388e-05
4.088e-05
3.61496e-05
2.67975e-05
4.00046e-05
4.45744e-05
4.53106e-05
4.47319e-05
4.43213e-05
4.47085e-05
4.51041e-05
4.53597e-05
4.718e-05
4.96712e-05
4.59585e-05
4.07703e-05
3.97663e-05
4.11546e-05
4.25244e-05
4.34848e-05
4.42554e-05
4.48435e-05
4.40288e-05
3.93282e-05
5.30212e-05
5.65955e-05
5.23285e-05
4.85673e-05
4.52947e-05
4.30023e-05
4.17384e-05
4.19622e-05
4.5473e-05
5.18267e-05
4.93009e-05
4.19633e-05
3.88797e-05
3.9319e-05
4.11776e-05
4.37808e-05
4.71597e-05
5.09328e-05
5.48067e-05
5.1605e-05
6.98054e-05
7.49574e-05
6.44218e-05
5.71661e-05
5.1739e-05
4.75267e-05
4.43259e-05
4.25008e-05
4.40882e-05
5.09797e-05
5.27565e-05
4.4938e-05
4.11983e-05
4.18027e-05
4.46067e-05
4.90092e-05
5.50138e-05
6.28662e-05
7.30863e-05
6.95755e-05
8.52154e-05
9.43287e-05
7.72916e-05
6.78011e-05
6.24265e-05
5.8967e-05
5.66082e-05
5.52411e-05
5.60321e-05
6.10553e-05
6.44169e-05
5.74343e-05
5.29611e-05
5.28952e-05
5.53728e-05
5.9806e-05
6.67085e-05
7.79035e-05
9.41517e-05
8.75586e-05
0.000100271
0.000114322
0.000101007
9.66857e-05
0.000100435
0.000106139
0.000111537
0.000113946
0.00011135
0.000106569
0.000106605
0.000107802
0.000107407
0.000105233
0.000101978
9.92012e-05
9.91299e-05
0.000108477
0.000118521
0.000104796
0.000117836
0.000144828
0.000187276
0.000227549
0.000268911
0.000309482
0.000339406
0.000347766
0.000325729
0.000287891
0.000280253
0.000308924
0.000327642
0.000323363
0.000302735
0.000271697
0.000239873
0.000198834
0.000154322
0.000123845
0.000137457
0.000170407
0.000200757
0.000229787
0.000260116
0.000290639
0.000319098
0.000342828
0.000358656
0.00036326
0.000350501
0.000341757
0.000325682
0.000304289
0.000279865
0.00025404
0.000228194
0.000202345
0.000174139
0.000142739
1.10942e-05
1.56931e-05
1.83326e-05
1.96316e-05
2.04845e-05
2.13771e-05
2.2619e-05
2.41237e-05
2.53208e-05
2.57084e-05
2.55802e-05
2.35795e-05
2.25347e-05
2.22325e-05
2.14589e-05
2.0135e-05
1.83744e-05
1.64114e-05
1.41786e-05
1.1087e-05
1.36346e-05
2.59071e-05
3.0786e-05
3.29686e-05
3.39676e-05
3.47219e-05
3.63504e-05
4.0096e-05
4.68377e-05
5.18279e-05
4.75995e-05
4.26697e-05
3.96816e-05
3.74827e-05
3.57146e-05
3.3583e-05
3.07688e-05
2.71239e-05
2.21749e-05
1.39012e-05
2.27684e-05
3.35989e-05
4.04093e-05
4.38852e-05
4.37608e-05
4.19669e-05
4.10935e-05
4.34957e-05
5.08151e-05
5.62479e-05
5.21805e-05
4.49678e-05
4.07438e-05
3.99111e-05
4.05211e-05
4.12143e-05
4.06795e-05
3.77111e-05
3.16432e-05
2.02141e-05
3.31279e-05
3.66792e-05
3.99803e-05
4.25317e-05
4.47085e-05
4.60709e-05
4.62632e-05
4.71178e-05
5.24238e-05
5.86591e-05
5.31538e-05
4.40499e-05
4.05449e-05
4.11396e-05
4.23188e-05
4.25699e-05
4.16966e-05
3.97921e-05
3.6603e-05
3.27807e-05
4.90945e-05
4.75884e-05
4.46471e-05
4.35097e-05
4.30023e-05
4.2908e-05
4.34434e-05
4.55651e-05
5.20206e-05
6.24508e-05
5.8062e-05
4.59923e-05
4.02572e-05
3.93723e-05
4.01027e-05
4.11112e-05
4.21554e-05
4.34483e-05
4.61855e-05
4.77868e-05
6.92598e-05
6.83814e-05
5.62028e-05
5.05223e-05
4.75267e-05
4.55607e-05
4.43777e-05
4.49811e-05
5.06393e-05
6.39645e-05
6.59172e-05
5.09811e-05
4.29868e-05
4.15411e-05
4.2813e-05
4.53603e-05
4.92339e-05
5.58086e-05
6.85669e-05
6.97434e-05
8.73385e-05
9.38436e-05
7.12972e-05
6.22877e-05
5.8967e-05
5.76596e-05
5.73296e-05
5.83933e-05
6.32869e-05
7.54702e-05
8.17156e-05
6.70898e-05
5.73104e-05
5.45341e-05
5.49974e-05
5.73985e-05
6.23537e-05
7.30082e-05
9.58418e-05
9.07429e-05
0.000104973
0.000120078
9.8055e-05
9.83881e-05
0.000106139
0.000115581
0.000123776
0.000127254
0.000124717
0.000122795
0.000125889
0.000124759
0.00012341
0.000119921
0.000113978
0.000107615
0.000103415
0.000108303
0.000127107
0.000110742
0.000125333
0.000155484
0.000204509
0.00025218
0.000309482
0.000362586
0.000399216
0.000403889
0.000370833
0.00032945
0.000323801
0.000357403
0.000387621
0.000388734
0.000362374
0.000319827
0.000272818
0.000225262
0.000169622
0.000132794
0.000147978
0.000185464
0.00021995
0.00025392
0.000290639
0.000328097
0.000364204
0.000396563
0.000422485
0.000438358
0.000421981
0.000402355
0.000376811
0.000347526
0.000316195
0.000284202
0.000252652
0.00022214
0.000189755
0.000153744
1.07484e-05
1.49072e-05
1.77541e-05
1.96473e-05
2.11049e-05
2.2619e-05
2.4656e-05
2.7321e-05
2.98634e-05
2.99471e-05
2.89888e-05
2.67084e-05
2.55291e-05
2.4072e-05
2.21339e-05
2.00355e-05
1.78876e-05
1.5754e-05
1.34351e-05
1.03543e-05
1.34014e-05
2.36484e-05
2.92158e-05
3.23843e-05
3.43443e-05
3.63504e-05
3.9623e-05
4.57391e-05
5.57959e-05
6.4194e-05
5.84353e-05
5.18668e-05
4.59813e-05
4.1174e-05
3.73832e-05
3.38396e-05
3.0174e-05
2.60571e-05
2.09062e-05
1.27536e-05
1.81206e-05
3.07051e-05
3.79982e-05
4.07838e-05
4.10459e-05
4.10935e-05
4.2715e-05
4.84991e-05
6.07547e-05
7.11406e-05
6.4076e-05
5.26415e-05
4.51183e-05
4.11478e-05
3.92145e-05
3.78425e-05
3.59988e-05
3.25998e-05
2.63012e-05
1.47035e-05
2.6919e-05
3.15038e-05
3.70263e-05
4.18591e-05
4.51041e-05
4.62632e-05
4.66963e-05
5.04144e-05
6.2932e-05
8.03782e-05
6.96079e-05
5.09189e-05
4.25036e-05
4.06437e-05
4.09548e-05
4.08645e-05
3.93098e-05
3.59053e-05
3.09279e-05
2.64242e-05
4.51291e-05
4.06476e-05
3.91286e-05
4.01491e-05
4.17384e-05
4.34434e-05
4.55599e-05
5.0191e-05
6.41928e-05
9.15539e-05
8.09242e-05
5.34271e-05
4.23096e-05
3.95317e-05
3.90087e-05
3.86213e-05
3.79104e-05
3.73259e-05
3.88456e-05
4.45484e-05
6.76491e-05
5.92637e-05
4.85022e-05
4.50909e-05
4.43259e-05
4.43777e-05
4.53383e-05
4.94847e-05
6.42397e-05
9.91109e-05
9.78828e-05
6.13906e-05
4.56114e-05
4.14345e-05
4.10542e-05
4.19637e-05
4.40536e-05
4.92118e-05
6.22627e-05
6.92793e-05
8.78511e-05
8.97192e-05
6.53109e-05
5.78235e-05
5.66082e-05
5.73296e-05
5.91107e-05
6.35785e-05
7.76873e-05
0.000112645
0.000120083
8.15777e-05
6.2429e-05
5.64724e-05
5.50591e-05
5.56772e-05
5.88573e-05
6.85105e-05
9.38412e-05
9.24384e-05
0.000107617
0.000122105
9.67567e-05
0.000100468
0.000111537
0.000123776
0.000133255
0.000136727
0.00013832
0.000155294
0.000161239
0.000140982
0.000135106
0.000131633
0.000124713
0.000115835
0.000107899
0.000106995
0.000131511
0.000114663
0.000130363
0.000161677
0.000213147
0.000270685
0.000339406
0.000399216
0.000433676
0.000427669
0.000395308
0.000388005
0.000379254
0.000385409
0.000416536
0.00042701
0.00040257
0.000355003
0.000297963
0.000244953
0.000180749
0.000139288
0.000156193
0.000197903
0.000236523
0.000275756
0.000319098
0.000364204
0.000409605
0.000454172
0.000497177
0.000535057
0.000512148
0.000471583
0.00043029
0.000389846
0.000350215
0.000311613
0.000274384
0.000239168
0.000202711
0.000162428
1.04428e-05
1.42332e-05
1.71361e-05
1.94631e-05
2.1657e-05
2.41237e-05
2.7321e-05
3.14787e-05
3.56346e-05
3.5991e-05
3.3121e-05
3.14438e-05
2.95951e-05
2.65503e-05
2.33808e-05
2.04978e-05
1.79268e-05
1.55899e-05
1.31608e-05
9.95702e-06
1.3175e-05
2.27793e-05
2.82358e-05
3.22916e-05
3.60251e-05
4.0096e-05
4.57391e-05
5.48248e-05
6.84614e-05
8.36095e-05
7.63226e-05
6.41078e-05
5.50386e-05
4.7097e-05
4.09987e-05
3.60498e-05
3.14766e-05
2.66787e-05
2.12024e-05
1.25658e-05
1.45275e-05
2.8136e-05
3.46992e-05
3.80737e-05
4.0624e-05
4.34957e-05
4.84991e-05
5.97286e-05
8.33921e-05
0.000122272
0.000104312
6.90815e-05
5.3717e-05
4.52669e-05
4.04444e-05
3.7158e-05
3.39846e-05
2.98519e-05
2.36806e-05
1.33479e-05
2.11795e-05
2.86079e-05
3.61553e-05
4.19472e-05
4.53597e-05
4.71178e-05
5.04144e-05
6.242e-05
0.000100175
0.000176693
0.000147644
7.57942e-05
5.00775e-05
4.20766e-05
3.95594e-05
3.82552e-05
3.62895e-05
3.24108e-05
2.63435e-05
2.08453e-05
4.00128e-05
3.49229e-05
3.52982e-05
3.83747e-05
4.19622e-05
4.55651e-05
5.0191e-05
6.37765e-05
0.000117148
0.000238487
0.000203709
8.81033e-05
4.99662e-05
4.148e-05
3.89833e-05
3.70919e-05
3.48148e-05
3.27571e-05
3.35485e-05
4.14659e-05
6.47922e-05
5.18244e-05
4.25165e-05
4.10909e-05
4.25008e-05
4.49811e-05
4.94847e-05
6.41691e-05
0.000127499
0.000288437
0.000260054
0.000105142
5.4178e-05
4.32959e-05
4.04121e-05
3.94022e-05
3.97632e-05
4.34731e-05
5.55336e-05
6.77317e-05
8.65517e-05
8.14906e-05
5.9054e-05
5.40431e-05
5.52411e-05
5.83933e-05
6.35785e-05
7.87109e-05
0.000144369
0.000320126
0.000304802
0.0001317
7.34501e-05
6.01624e-05
5.62642e-05
5.49505e-05
5.62241e-05
6.411e-05
8.86661e-05
9.22363e-05
0.000107903
0.000121015
9.39423e-05
0.000100507
0.000113946
0.000127254
0.000136727
0.000145891
0.000193119
0.000353124
0.000340395
0.000185013
0.000143698
0.00013704
0.000130915
0.000121478
0.00011108
0.000105854
0.000131062
0.000115946
0.000132365
0.000162081
0.00021202
0.000275212
0.000347766
0.000403889
0.000427669
0.000422433
0.0004479
0.000565442
0.000537805
0.000428406
0.000412558
0.000423442
0.000409203
0.000366874
0.000307516
0.000251599
0.000184667
0.000142443
0.000161372
0.000206364
0.00024856
0.000292769
0.000342828
0.000396563
0.000454172
0.000517757
0.000590844
0.000669252
0.000635154
0.000555226
0.000486813
0.000429572
0.00037943
0.000333693
0.000291003
0.000251562
0.000211748
0.000168132
1.03318e-05
1.3926e-05
1.671e-05
1.91358e-05
2.19256e-05
2.53208e-05
2.98634e-05
3.56346e-05
4.10144e-05
4.33725e-05
3.98785e-05
3.6602e-05
3.39982e-05
2.93907e-05
2.50878e-05
2.14723e-05
1.8442e-05
1.58084e-05
1.32255e-05
9.80477e-06
1.3684e-05
2.22085e-05
2.80312e-05
3.39072e-05
3.99983e-05
4.68377e-05
5.57959e-05
6.84614e-05
9.06652e-05
0.000185393
0.000156376
8.07802e-05
6.56711e-05
5.36962e-05
4.51564e-05
3.89513e-05
3.3541e-05
2.80569e-05
2.21368e-05
1.27657e-05
1.53609e-05
2.57082e-05
3.24172e-05
3.84113e-05
4.42457e-05
5.08151e-05
6.07547e-05
8.33921e-05
0.000158508
0.00039405
0.000335117
0.000123624
6.96552e-05
5.18392e-05
4.34938e-05
3.83185e-05
3.38876e-05
2.90814e-05
2.28124e-05
1.3361e-05
1.81451e-05
2.75887e-05
3.63485e-05
4.25333e-05
4.718e-05
5.24238e-05
6.2932e-05
0.000100175
0.0002415
0.000613013
0.000532582
0.000184621
7.54613e-05
4.89945e-05
4.11669e-05
3.70353e-05
3.36261e-05
2.98544e-05
2.40809e-05
1.67351e-05
3.31749e-05
3.07892e-05
3.38598e-05
3.93824e-05
4.5473e-05
5.20206e-05
6.41928e-05
0.000117148
0.000333605
0.000832687
0.000736413
0.000258005
8.4374e-05
4.94614e-05
4.1711e-05
3.75768e-05
3.37095e-05
3.01381e-05
2.974e-05
3.77538e-05
6.07041e-05
4.65206e-05
3.88203e-05
3.96773e-05
4.40882e-05
5.06393e-05
6.42397e-05
0.000127499
0.00041286
0.00101749
0.000910461
0.000323213
9.45315e-05
5.20716e-05
4.31671e-05
3.89461e-05
3.70197e-05
3.90024e-05
4.91795e-05
6.45742e-05
8.33791e-05
7.0957e-05
5.32391e-05
5.14661e-05
5.60321e-05
6.32869e-05
7.76873e-05
0.000144369
0.000465335
0.00112702
0.00101607
0.000371854
0.000116794
7.12709e-05
6.11712e-05
5.63263e-05
5.4583e-05
5.96536e-05
8.11062e-05
8.97113e-05
0.000105517
0.000116624
8.83089e-05
9.66166e-05
0.00011135
0.000124717
0.00013832
0.000193119
0.000502986
0.00113082
0.00103503
0.000413155
0.000173089
0.000138763
0.000131209
0.000122062
0.000110051
0.0001018
0.000125063
0.000113941
0.000130624
0.000155002
0.000196764
0.000259664
0.000325729
0.000370833
0.000395308
0.0004479
0.000650736
0.000998682
0.000928874
0.000580174
0.00041908
0.000387535
0.000376894
0.000346716
0.000293317
0.000239409
0.000178396
0.00014119
0.000162377
0.000208877
0.000253166
0.000301926
0.000358656
0.000422485
0.000497177
0.000590844
0.000712688
0.000841386
0.000793695
0.000658702
0.000547642
0.0004652
0.00040122
0.000347585
0.000299791
0.000257199
0.000215279
0.000169862
1.04227e-05
1.40293e-05
1.69875e-05
1.96577e-05
2.24901e-05
2.57084e-05
2.99471e-05
3.5991e-05
4.33725e-05
4.66234e-05
4.42581e-05
4.17281e-05
3.73463e-05
3.1493e-05
2.65581e-05
2.2557e-05
1.91789e-05
1.62775e-05
1.35167e-05
9.80622e-06
1.449e-05
2.2668e-05
2.8526e-05
3.50003e-05
4.2801e-05
5.18279e-05
6.4194e-05
8.36095e-05
0.000185393
0.000167497
0.000151304
0.000153297
6.92884e-05
5.56748e-05
4.68816e-05
4.04002e-05
3.47104e-05
2.89122e-05
2.27497e-05
1.29336e-05
1.6544e-05
2.54023e-05
3.21896e-05
3.9446e-05
4.74455e-05
5.62479e-05
7.11406e-05
0.000122272
0.00039405
0.000286293
0.000261694
0.000332715
9.68775e-05
5.67488e-05
4.54792e-05
3.92342e-05
3.39738e-05
2.8519e-05
2.23801e-05
1.35951e-05
1.76737e-05
2.77789e-05
3.58811e-05
4.27138e-05
4.96712e-05
5.86591e-05
8.03782e-05
0.000176693
0.000613013
0.000412622
0.000385232
0.000519566
0.000136828
6.12868e-05
4.48821e-05
3.77945e-05
3.25272e-05
2.786e-05
2.27686e-05
1.51895e-05
2.67563e-05
2.87999e-05
3.48336e-05
4.30735e-05
5.18267e-05
6.24508e-05
9.15539e-05
0.000238487
0.000832687
0.000547495
0.000522427
0.000707358
0.000185839
6.94597e-05
4.86102e-05
4.03075e-05
3.44272e-05
2.96503e-05
2.72701e-05
3.29485e-05
5.55798e-05
4.24801e-05
3.773e-05
4.2115e-05
5.09797e-05
6.39645e-05
9.91109e-05
0.000288437
0.00101749
0.000684008
0.000664565
0.000857923
0.000222276
7.8121e-05
5.33778e-05
4.28497e-05
3.666e-05
3.60794e-05
4.37185e-05
5.89771e-05
7.85879e-05
6.2775e-05
4.92266e-05
5.14789e-05
6.10553e-05
7.54702e-05
0.000112645
0.000320126
0.00112702
0.000804666
0.000790874
0.000936723
0.000249091
0.000101515
7.40845e-05
6.14725e-05
5.40476e-05
5.47258e-05
7.08757e-05
8.44189e-05
0.000100457
0.000106609
8.02538e-05
8.98909e-05
0.000106569
0.000122795
0.000155294
0.000353124
0.00113082
0.000885435
0.000870761
0.000935876
0.000283031
0.000153144
0.000132106
0.000119183
0.000103929
9.32068e-05
0.000112949
0.000108336
0.000124892
0.000141127
0.000170533
0.000229647
0.000287891
0.00032945
0.000388005
0.000565442
0.000998682
0.000951276
0.000923756
0.000849149
0.000496743
0.000369584
0.000335437
0.000309565
0.000262915
0.000211366
0.000161769
0.000134887
0.000157983
0.000203957
0.000247947
0.000300171
0.00036326
0.000438358
0.000535057
0.000669252
0.000841386
0.00087342
0.000840741
0.000761041
0.000608105
0.000494378
0.000413686
0.000351503
0.000298921
0.000253944
0.000211657
0.000166171
1.0532e-05
1.41692e-05
1.7224e-05
1.99834e-05
2.27123e-05
2.55802e-05
2.89888e-05
3.3121e-05
3.98785e-05
4.42581e-05
4.32266e-05
3.99193e-05
3.56916e-05
3.03374e-05
2.60567e-05
2.25256e-05
1.94659e-05
1.67371e-05
1.39206e-05
9.8319e-06
1.47535e-05
2.25538e-05
2.79616e-05
3.35059e-05
4.00611e-05
4.75995e-05
5.84353e-05
7.63226e-05
0.000156376
0.000151304
0.000142808
0.000123797
6.11436e-05
5.06304e-05
4.37551e-05
3.84278e-05
3.35033e-05
2.82659e-05
2.24149e-05
1.26479e-05
1.65754e-05
2.52483e-05
3.16649e-05
3.80605e-05
4.48028e-05
5.21805e-05
6.4076e-05
0.000104312
0.000335117
0.000261694
0.000262163
0.000263354
7.93351e-05
5.03575e-05
4.21628e-05
3.70347e-05
3.23853e-05
2.74975e-05
2.16089e-05
1.34294e-05
1.75147e-05
2.74359e-05
3.42728e-05
4.01354e-05
4.59585e-05
5.31538e-05
6.96079e-05
0.000147644
0.000532582
0.000385232
0.000409832
0.000413091
0.000109337
5.46723e-05
4.26897e-05
3.65957e-05
3.17454e-05
2.73848e-05
2.24966e-05
1.51577e-05
2.26823e-05
2.76902e-05
3.44837e-05
4.19062e-05
4.93009e-05
5.8062e-05
8.09242e-05
0.000203709
0.000736413
0.000522427
0.00058334
0.000573145
0.000149012
6.60741e-05
4.93976e-05
4.11722e-05
3.51127e-05
3.04088e-05
2.64844e-05
2.78802e-05
4.90101e-05
3.88345e-05
3.69788e-05
4.29696e-05
5.27565e-05
6.59172e-05
9.78828e-05
0.000260054
0.000910461
0.000664565
0.000764545
0.000707519
0.000202287
8.43014e-05
6.0373e-05
4.74292e-05
3.81461e-05
3.48123e-05
3.96366e-05
5.28265e-05
7.41022e-05
5.73919e-05
4.7053e-05
5.19939e-05
6.44169e-05
8.17156e-05
0.000120083
0.000304802
0.00101607
0.000790874
0.000922184
0.000782952
0.000248444
0.000119376
8.56992e-05
6.67623e-05
5.40476e-05
5.05607e-05
6.24574e-05
7.85176e-05
9.62178e-05
9.79685e-05
7.612e-05
8.73566e-05
0.000106605
0.000125889
0.000161239
0.000340395
0.00103503
0.000870761
0.00101247
0.00079912
0.000285227
0.000168022
0.000139511
0.0001197
9.92413e-05
8.62204e-05
0.000104219
0.000102827
0.000120194
0.000134257
0.000160444
0.000220966
0.000280253
0.000323801
0.000379254
0.000537805
0.000928874
0.000923756
0.00102861
0.000778043
0.000482241
0.000372121
0.000333598
0.000302436
0.000252655
0.00020008
0.000152348
0.000129294
0.000152359
0.000196244
0.000238493
0.000289551
0.000350501
0.000421981
0.000512148
0.000635154
0.000793695
0.000840741
0.000885308
0.000745695
0.000597376
0.000489099
0.000410062
0.000347905
0.000294901
0.000249595
0.000207095
0.000161595
1.04134e-05
1.39261e-05
1.67e-05
1.89986e-05
2.11829e-05
2.35795e-05
2.67084e-05
3.14438e-05
3.6602e-05
4.17281e-05
3.99193e-05
3.66361e-05
3.19902e-05
2.78807e-05
2.45326e-05
2.17475e-05
1.92357e-05
1.68263e-05
1.41195e-05
9.98623e-06
1.40961e-05
2.19449e-05
2.70059e-05
3.15002e-05
3.64705e-05
4.26697e-05
5.18668e-05
6.41078e-05
8.07802e-05
0.000153297
0.000123797
6.25374e-05
5.1138e-05
4.38959e-05
3.87712e-05
3.48285e-05
3.11332e-05
2.70393e-05
2.17714e-05
1.22239e-05
1.52759e-05
2.55236e-05
3.15803e-05
3.60629e-05
4.01063e-05
4.49678e-05
5.26415e-05
6.90815e-05
0.000123624
0.000332715
0.000263354
8.83813e-05
5.12129e-05
4.12062e-05
3.67194e-05
3.3573e-05
3.05217e-05
2.68912e-05
2.17349e-05
1.34355e-05
1.78558e-05
2.73958e-05
3.36663e-05
3.77512e-05
4.07703e-05
4.40499e-05
5.09189e-05
7.57942e-05
0.000184621
0.000519566
0.000413091
0.000128788
5.62543e-05
4.1515e-05
3.70404e-05
3.43396e-05
3.18767e-05
2.89263e-05
2.44833e-05
1.72153e-05
2.27752e-05
2.79151e-05
3.32189e-05
3.79291e-05
4.19633e-05
4.59923e-05
5.34271e-05
8.81033e-05
0.000258005
0.000707358
0.000573145
0.000184488
6.75102e-05
4.72552e-05
4.19164e-05
3.85447e-05
3.54641e-05
3.20674e-05
2.82641e-05
2.6641e-05
5.06405e-05
3.95319e-05
3.65817e-05
3.97916e-05
4.4938e-05
5.09811e-05
6.13906e-05
0.000105142
0.000323213
0.000857923
0.000707519
0.00024252
8.50401e-05
5.78534e-05
4.97379e-05
4.37161e-05
3.89378e-05
3.63653e-05
3.96941e-05
5.23924e-05
7.57936e-05
5.83843e-05
4.70673e-05
4.96086e-05
5.74343e-05
6.70898e-05
8.15777e-05
0.0001317
0.000371854
0.000936723
0.000782952
0.000293409
0.000125196
8.87251e-05
7.47729e-05
6.36304e-05
5.40902e-05
5.09703e-05
6.26313e-05
7.96858e-05
9.85911e-05
0.00010108
7.87643e-05
8.94652e-05
0.000107802
0.000124759
0.000140982
0.000185013
0.000413155
0.000935876
0.00079912
0.000337476
0.000185977
0.000157283
0.000143062
0.000125184
0.000103735
8.95684e-05
0.000108105
0.000105087
0.000123427
0.000142044
0.000174618
0.000240462
0.000308924
0.000357403
0.000385409
0.000428406
0.000580174
0.000849149
0.000778043
0.000525356
0.000418149
0.000388642
0.00036993
0.000334874
0.000275712
0.000217757
0.000161084
0.00013264
0.000154962
0.000198241
0.000239775
0.000287082
0.000341757
0.000402355
0.000471583
0.000555226
0.000658702
0.000761041
0.000745695
0.000631471
0.000534171
0.000457328
0.000394895
0.000341367
0.000293071
0.000250326
0.000208717
0.000164073
1.03848e-05
1.40146e-05
1.66906e-05
1.87038e-05
2.04634e-05
2.25347e-05
2.55291e-05
2.95951e-05
3.39982e-05
3.73463e-05
3.56916e-05
3.19902e-05
2.8572e-05
2.56019e-05
2.31916e-05
2.11654e-05
1.92741e-05
1.72456e-05
1.46117e-05
1.0375e-05
1.35185e-05
2.25853e-05
2.79133e-05
3.17873e-05
3.5312e-05
3.96816e-05
4.59813e-05
5.50386e-05
6.56711e-05
6.92884e-05
6.11436e-05
5.1138e-05
4.42561e-05
3.89692e-05
3.53771e-05
3.2654e-05
2.99928e-05
2.67504e-05
2.20008e-05
1.25128e-05
1.55556e-05
2.81628e-05
3.43183e-05
3.71763e-05
3.86616e-05
4.07438e-05
4.51183e-05
5.3717e-05
6.96552e-05
9.68775e-05
7.93351e-05
5.12129e-05
4.12215e-05
3.66617e-05
3.44409e-05
3.29851e-05
3.1318e-05
2.86001e-05
2.37299e-05
1.42372e-05
2.0468e-05
2.88691e-05
3.4687e-05
3.81066e-05
3.97663e-05
4.05449e-05
4.25036e-05