/*--------------------------------*- C++ -*----------------------------------*\
  =========                 |
  \\      /  F ield         | OpenFOAM: The Open Source CFD Toolbox
   \\    /   O peration     | Website:  https://openfoam.org
    \\  /    A nd           | Version:  9
     \\/     M anipulation  |
\*---------------------------------------------------------------------------*/
FoamFile
{
    format      ascii;
    class       volVectorField;
    location    "0.27";
    object      U;
}
// * * * * * * * * * * * * * * * * * * * * * * * * * * * * * * * * * * * * * //

dimensions      [0 1 -1 0 0 0 0];

internalField   nonuniform List<vector> 
12225
(
(9.86107 -0.874318 0)
(9.67248 -0.700192 0)
(9.45897 -0.387593 0)
(9.22467 -0.188479 0)
(9.00349 -0.0843947 0)
(8.81041 -0.0328773 0)
(8.64513 -0.00755256 0)
(8.50414 0.00502239 0)
(8.38397 0.0113336 0)
(8.2811 0.0144689 0)
(8.19214 0.0159632 0)
(8.11423 0.0166314 0)
(8.04497 0.0169163 0)
(7.98256 0.017109 0)
(7.92407 0.0174017 0)
(7.87049 0.0184991 0)
(7.80127 0.0214599 0)
(7.775 0.0298325 0)
(10.0547 0.263069 0)
(10.1201 0.36074 0)
(10.118 0.27382 0)
(10.0826 0.187085 0)
(10.0405 0.131159 0)
(9.99392 0.0969236 0)
(9.94013 0.075553 0)
(9.8804 0.0617446 0)
(9.81785 0.0523376 0)
(9.75493 0.045519 0)
(9.69311 0.0403455 0)
(9.63319 0.0363561 0)
(9.57555 0.0332944 0)
(9.52059 0.0311405 0)
(9.46752 0.0297279 0)
(9.41879 0.0308147 0)
(9.36746 0.0318781 0)
(9.34221 0.0521635 0)
(9.99919 0.0460864 0)
(10.0244 0.0342082 0)
(10.0538 0.0149476 0)
(10.0708 0.0218071 0)
(10.0778 0.0366677 0)
(10.0783 0.0460026 0)
(10.0722 0.0499413 0)
(10.0603 0.0511304 0)
(10.0439 0.0510346 0)
(10.0246 0.0503151 0)
(10.0031 0.0493431 0)
(9.98004 0.0483642 0)
(9.95591 0.0475281 0)
(9.93114 0.0470673 0)
(9.90569 0.0470542 0)
(9.88058 0.048816 0)
(9.85506 0.0515292 0)
(9.83518 0.0628215 0)
(9.9968 0.00642732 0)
(10.0085 0.0250164 0)
(10.0342 0.0389345 0)
(10.0528 0.0502972 0)
(10.0644 0.0571003 0)
(10.0731 0.059154 0)
(10.079 0.0588393 0)
(10.0817 0.057916 0)
(10.0816 0.0569056 0)
(10.0795 0.0558834 0)
(10.0758 0.0549019 0)
(10.0707 0.0540474 0)
(10.0645 0.0534094 0)
(10.0573 0.0531804 0)
(10.0494 0.0534928 0)
(10.0412 0.0552157 0)
(10.0333 0.0580144 0)
(10.0278 0.0643659 0)
(9.99922 0.00673659 0)
(10.0081 0.0335711 0)
(10.0271 0.0460383 0)
(10.0418 0.0508376 0)
(10.0524 0.0539033 0)
(10.0622 0.0554887 0)
(10.0708 0.0558317 0)
(10.0775 0.0556433 0)
(10.0823 0.0552696 0)
(10.0858 0.0548015 0)
(10.0881 0.0543131 0)
(10.0895 0.0539084 0)
(10.09 0.0536963 0)
(10.0899 0.0538493 0)
(10.0892 0.0545166 0)
(10.0885 0.0561837 0)
(10.0884 0.0586622 0)
(10.09 0.062431 0)
(10.0002 0.00907291 0)
(10.0078 0.0321211 0)
(10.0225 0.0419049 0)
(10.035 0.045656 0)
(10.0448 0.0491122 0)
(10.0542 0.0516448 0)
(10.063 0.0527794 0)
(10.0705 0.0531263 0)
(10.0767 0.0531607 0)
(10.0819 0.0530464 0)
(10.0864 0.0528747 0)
(10.0901 0.0527528 0)
(10.0932 0.0527906 0)
(10.0959 0.0531297 0)
(10.0983 0.0538917 0)
(10.1007 0.0553144 0)
(10.1037 0.0572385 0)
(10.1081 0.0595094 0)
(10.0003 0.00879908 0)
(10.0068 0.0275136 0)
(10.019 0.0370751 0)
(10.0303 0.0417294 0)
(10.0395 0.0456459 0)
(10.0482 0.0484661 0)
(10.0566 0.0498712 0)
(10.0641 0.0504588 0)
(10.0706 0.0507145 0)
(10.0764 0.0508104 0)
(10.0815 0.0508326 0)
(10.0862 0.0508804 0)
(10.0904 0.0510543 0)
(10.0943 0.0514625 0)
(10.098 0.0521861 0)
(10.1019 0.0533154 0)
(10.1063 0.0546888 0)
(10.1116 0.0559875 0)
(10.0004 0.00783585 0)
(10.0057 0.02369 0)
(10.016 0.0333602 0)
(10.0264 0.038574 0)
(10.0351 0.0424642 0)
(10.0433 0.0452525 0)
(10.0512 0.0468007 0)
(10.0585 0.0475738 0)
(10.0649 0.0479966 0)
(10.0708 0.0482422 0)
(10.0763 0.0483973 0)
(10.0813 0.0485531 0)
(10.086 0.048797 0)
(10.0904 0.0492068 0)
(10.0948 0.0498258 0)
(10.0993 0.050661 0)
(10.1042 0.051552 0)
(10.1098 0.0521912 0)
(10.0004 0.00694965 0)
(10.0049 0.0207023 0)
(10.0136 0.0300252 0)
(10.023 0.0353861 0)
(10.0312 0.0391651 0)
(10.0389 0.0419194 0)
(10.0464 0.0436027 0)
(10.0534 0.0445405 0)
(10.0598 0.0450969 0)
(10.0656 0.045453 0)
(10.0711 0.0457002 0)
(10.0763 0.0459206 0)
(10.0812 0.0461873 0)
(10.0859 0.0465533 0)
(10.0906 0.0470333 0)
(10.0954 0.0475932 0)
(10.1005 0.0480868 0)
(10.1059 0.0482754 0)
(10.0004 0.00616272 0)
(10.0042 0.0181164 0)
(10.0116 0.0267869 0)
(10.0199 0.0321221 0)
(10.0277 0.0358247 0)
(10.035 0.0385476 0)
(10.0421 0.0403235 0)
(10.0488 0.0413858 0)
(10.055 0.042044 0)
(10.0608 0.0424806 0)
(10.0663 0.0427893 0)
(10.0715 0.0430426 0)
(10.0764 0.0432996 0)
(10.0813 0.0435949 0)
(10.0861 0.0439257 0)
(10.091 0.0442429 0)
(10.096 0.0444246 0)
(10.1013 0.044306 0)
(10.0003 0.00542578 0)
(10.0036 0.0157933 0)
(10.0099 0.0237001 0)
(10.0173 0.0288916 0)
(10.0245 0.0325023 0)
(10.0314 0.0351581 0)
(10.0381 0.0369674 0)
(10.0446 0.0381103 0)
(10.0506 0.0388415 0)
(10.0563 0.0393339 0)
(10.0617 0.0396798 0)
(10.0669 0.0399426 0)
(10.0719 0.0401695 0)
(10.0768 0.0403826 0)
(10.0816 0.0405706 0)
(10.0864 0.0406853 0)
(10.0913 0.0406323 0)
(10.0964 0.0403084 0)
(10.0003 0.0047732 0)
(10.0031 0.0138478 0)
(10.0086 0.0210253 0)
(10.0152 0.0259835 0)
(10.0219 0.0294665 0)
(10.0285 0.0320272 0)
(10.0349 0.0338222 0)
(10.041 0.0350017 0)
(10.0469 0.0357736 0)
(10.0525 0.0362954 0)
(10.0578 0.0366555 0)
(10.063 0.0369102 0)
(10.0679 0.0370976 0)
(10.0728 0.0372329 0)
(10.0776 0.0373032 0)
(10.0823 0.0372678 0)
(10.0871 0.0370567 0)
(10.0919 0.0366112 0)
(10.0003 0.00416663 0)
(10.0028 0.0120804 0)
(10.0075 0.0185105 0)
(10.0134 0.023145 0)
(10.0197 0.0264577 0)
(10.0258 0.0288996 0)
(10.0319 0.0306464 0)
(10.0378 0.0318303 0)
(10.0436 0.0326201 0)
(10.049 0.0331535 0)
(10.0543 0.0335132 0)
(10.0593 0.0337495 0)
(10.0642 0.0338936 0)
(10.069 0.033957 0)
(10.0737 0.0339282 0)
(10.0784 0.0337765 0)
(10.0829 0.0334523 0)
(10.0875 0.0329289 0)
(10.0003 0.00353467 0)
(10.0024 0.0102418 0)
(10.0064 0.0158176 0)
(10.0117 0.0199973 0)
(10.0174 0.0230519 0)
(10.0232 0.0253164 0)
(10.0289 0.0269633 0)
(10.0346 0.02811 0)
(10.0401 0.0288876 0)
(10.0454 0.0294099 0)
(10.0505 0.0297507 0)
(10.0555 0.0299542 0)
(10.0603 0.0300461 0)
(10.065 0.0300356 0)
(10.0696 0.0299155 0)
(10.0741 0.0296664 0)
(10.0785 0.0292573 0)
(10.0828 0.0286862 0)
(10.0002 0.00287571 0)
(10.002 0.00833115 0)
(10.0055 0.0129568 0)
(10.0101 0.0165468 0)
(10.0153 0.0192341 0)
(10.0206 0.0212439 0)
(10.026 0.0227247 0)
(10.0314 0.0237769 0)
(10.0366 0.0244988 0)
(10.0418 0.0249779 0)
(10.0467 0.0252758 0)
(10.0516 0.02543 0)
(10.0563 0.0254617 0)
(10.0608 0.0253799 0)
(10.0653 0.0251824 0)
(10.0696 0.0248606 0)
(10.0738 0.0243989 0)
(10.0778 0.0238114 0)
(10.0002 0.00219008 0)
(10.0017 0.00634919 0)
(10.0047 0.00993336 0)
(10.0088 0.0127952 0)
(10.0134 0.0149871 0)
(10.0183 0.0166443 0)
(10.0233 0.0178768 0)
(10.0284 0.0187625 0)
(10.0334 0.0193711 0)
(10.0383 0.0197648 0)
(10.0431 0.01999 0)
(10.0478 0.0200766 0)
(10.0523 0.0200419 0)
(10.0567 0.0198949 0)
(10.061 0.0196382 0)
(10.0651 0.0192711 0)
(10.0691 0.0187887 0)
(10.0729 0.0182137 0)
(10.0002 0.0014747 0)
(10.0015 0.00427945 0)
(10.0041 0.00672509 0)
(10.0077 0.00871897 0)
(10.0119 0.0102754 0)
(10.0164 0.0114637 0)
(10.0211 0.0123505 0)
(10.0258 0.0129864 0)
(10.0306 0.0134145 0)
(10.0353 0.0136731 0)
(10.0399 0.0137924 0)
(10.0444 0.0137928 0)
(10.0487 0.0136872 0)
(10.053 0.0134836 0)
(10.0571 0.0131868 0)
(10.061 0.0128006 0)
(10.0648 0.0123256 0)
(10.0684 0.0117868 0)
(10.0001 0.000711977 0)
(10.0013 0.00206624 0)
(10.0037 0.00325294 0)
(10.0069 0.00423056 0)
(10.0108 0.0050013 0)
(10.015 0.00558963 0)
(10.0194 0.00602042 0)
(10.0239 0.00631368 0)
(10.0285 0.00648709 0)
(10.033 0.0065565 0)
(10.0374 0.00653449 0)
(10.0417 0.00643 0)
(10.0459 0.00624929 0)
(10.05 0.00599702 0)
(10.0539 0.00567707 0)
(10.0576 0.00529374 0)
(10.0612 0.00484907 0)
(10.0646 0.00436579 0)
(10.0001 -0.00014465 0)
(10.0013 -0.000422155 0)
(10.0035 -0.000671559 0)
(10.0066 -0.000880419 0)
(10.0104 -0.00104628 0)
(10.0145 -0.00118304 0)
(10.0188 -0.00130996 0)
(10.0232 -0.00144092 0)
(10.0276 -0.0015846 0)
(10.032 -0.0017482 0)
(10.0363 -0.00193821 0)
(10.0405 -0.00215959 0)
(10.0445 -0.0024155 0)
(10.0484 -0.0027076 0)
(10.0522 -0.00303632 0)
(10.0558 -0.00340042 0)
(10.0592 -0.0037997 0)
(10.0625 -0.00421722 0)
(10.0001 -0.000968073 0)
(10.0014 -0.00282076 0)
(10.0037 -0.00446051 0)
(10.0071 -0.00580537 0)
(10.011 -0.00684911 0)
(10.0153 -0.0076533 0)
(10.0197 -0.00828491 0)
(10.0242 -0.0087892 0)
(10.0286 -0.00920071 0)
(10.033 -0.00955144 0)
(10.0373 -0.00986787 0)
(10.0415 -0.0101686 0)
(10.0455 -0.010466 0)
(10.0493 -0.0107686 0)
(10.053 -0.0110823 0)
(10.0565 -0.0114099 0)
(10.0599 -0.0117541 0)
(10.0631 -0.0121038 0)
(10.0002 -0.00168138 0)
(10.0015 -0.00492225 0)
(10.0042 -0.00778028 0)
(10.0079 -0.0100522 0)
(10.0123 -0.0117536 0)
(10.0168 -0.0130412 0)
(10.0215 -0.0140326 0)
(10.0261 -0.0147873 0)
(10.0307 -0.0153596 0)
(10.0352 -0.0158082 0)
(10.0395 -0.0161802 0)
(10.0437 -0.0165058 0)
(10.0477 -0.0168044 0)
(10.0515 -0.0170901 0)
(10.0552 -0.0173723 0)
(10.0587 -0.0176569 0)
(10.062 -0.0179482 0)
(10.0651 -0.0182385 0)
(10.0002 -0.00236269 0)
(10.0017 -0.00700909 0)
(10.0048 -0.0111132 0)
(10.0092 -0.0142171 0)
(10.014 -0.0164147 0)
(10.019 -0.0180437 0)
(10.0239 -0.0192843 0)
(10.0288 -0.0202009 0)
(10.0336 -0.0208655 0)
(10.0382 -0.0213608 0)
(10.0427 -0.0217481 0)
(10.0469 -0.0220655 0)
(10.0509 -0.0223391 0)
(10.0548 -0.0225883 0)
(10.0584 -0.022826 0)
(10.0619 -0.0230599 0)
(10.0652 -0.0232953 0)
(10.0683 -0.0235272 0)
(10.0002 -0.0029977 0)
(10.0018 -0.00911622 0)
(10.0056 -0.014492 0)
(10.0108 -0.0183398 0)
(10.0163 -0.0209624 0)
(10.0217 -0.0228601 0)
(10.027 -0.0242273 0)
(10.0321 -0.0251699 0)
(10.0371 -0.0258255 0)
(10.0419 -0.0263056 0)
(10.0464 -0.0266703 0)
(10.0507 -0.0269545 0)
(10.0548 -0.0271868 0)
(10.0586 -0.02739 0)
(10.0623 -0.0275789 0)
(10.0658 -0.0277618 0)
(10.069 -0.0279439 0)
(10.0721 -0.0281222 0)
(10.0001 -0.0035732 0)
(10.0019 -0.0115455 0)
(10.0064 -0.0179426 0)
(10.0127 -0.0220725 0)
(10.0189 -0.0250582 0)
(10.0247 -0.0273611 0)
(10.0304 -0.0289056 0)
(10.0359 -0.0298211 0)
(10.0411 -0.0303845 0)
(10.046 -0.0307738 0)
(10.0506 -0.031055 0)
(10.0549 -0.03126 0)
(10.059 -0.0314185 0)
(10.0629 -0.0315537 0)
(10.0666 -0.0316794 0)
(10.07 -0.0318024 0)
(10.0732 -0.0319261 0)
(10.0763 -0.0320467 0)
(9.99997 -0.0036925 0)
(10.0018 -0.0151878 0)
(10.0076 -0.0226629 0)
(10.0148 -0.0259962 0)
(10.0214 -0.0285617 0)
(10.0277 -0.0310263 0)
(10.034 -0.0328072 0)
(10.0399 -0.033849 0)
(10.0454 -0.0344526 0)
(10.0505 -0.0348271 0)
(10.0552 -0.0350556 0)
(10.0596 -0.0351871 0)
(10.0637 -0.0352637 0)
(10.0675 -0.035315 0)
(10.071 -0.0353572 0)
(10.0743 -0.0353989 0)
(10.0773 -0.0354434 0)
(10.0802 -0.0354884 0)
(9.99898 -0.00131117 0)
(9.99999 -0.0179799 0)
(10.0085 -0.0290791 0)
(10.0174 -0.0327065 0)
(10.0244 -0.0341322 0)
(10.0311 -0.0353601 0)
(10.0382 -0.0363086 0)
(10.0448 -0.0369527 0)
(10.0507 -0.037405 0)
(10.0558 -0.0377057 0)
(10.0605 -0.0378693 0)
(10.0646 -0.037932 0)
(10.0683 -0.0379348 0)
(10.0716 -0.0379072 0)
(10.0744 -0.0378675 0)
(10.077 -0.0378269 0)
(10.0792 -0.0377889 0)
(10.0812 -0.0377526 0)
(9.99528 0.00386755 0)
(9.99333 -0.0103155 0)
(10.007 -0.0271093 0)
(10.0212 -0.0389341 0)
(10.0311 -0.0448738 0)
(10.0391 -0.0464819 0)
(10.0465 -0.0459998 0)
(10.0529 -0.0450444 0)
(10.058 -0.0441707 0)
(10.062 -0.0433997 0)
(10.0651 -0.0426881 0)
(10.0673 -0.0420331 0)
(10.0689 -0.0414409 0)
(10.0698 -0.0409112 0)
(10.0702 -0.0404416 0)
(10.0702 -0.0400312 0)
(10.0698 -0.0396703 0)
(10.0691 -0.039332 0)
(9.99144 -0.0172943 0)
(9.99188 0.000362942 0)
(10.01 0.0176612 0)
(10.0295 0.011582 0)
(10.0441 -0.00511756 0)
(10.0541 -0.0188357 0)
(10.0599 -0.0271841 0)
(10.0622 -0.0320633 0)
(10.0616 -0.0349469 0)
(10.059 -0.0365546 0)
(10.0548 -0.0373338 0)
(10.0494 -0.0376096 0)
(10.043 -0.037595 0)
(10.036 -0.0374194 0)
(10.0284 -0.0371667 0)
(10.0204 -0.0368978 0)
(10.0123 -0.0366683 0)
(10.0041 -0.036447 0)
(10.0236 -0.206008 0)
(10.0684 -0.312341 0)
(10.0788 -0.255595 0)
(10.0704 -0.184181 0)
(10.0605 -0.134907 0)
(10.0498 -0.102733 0)
(10.0342 -0.0811737 0)
(10.0129 -0.0666287 0)
(9.98773 -0.0566383 0)
(9.96047 -0.049484 0)
(9.93224 -0.0441281 0)
(9.90372 -0.0399811 0)
(9.8754 -0.0366846 0)
(9.84763 -0.034006 0)
(9.82063 -0.0317974 0)
(9.79453 -0.0299951 0)
(9.76957 -0.0285688 0)
(9.74577 -0.0278351 0)
(9.94226 0.671595 0)
(9.87995 0.567454 0)
(9.77443 0.338465 0)
(9.63235 0.183317 0)
(9.4876 0.0949032 0)
(9.35646 0.0470798 0)
(9.24087 0.0212943 0)
(9.13935 0.00707208 0)
(9.05038 -0.000988009 0)
(8.97235 -0.00562989 0)
(8.90356 -0.00831969 0)
(8.84245 -0.00988251 0)
(8.78779 -0.0107886 0)
(8.73857 -0.0113067 0)
(8.69399 -0.0115977 0)
(8.65332 -0.0117863 0)
(8.61574 -0.0119662 0)
(8.58084 -0.0124984 0)
(0.00383458 -0.00920661 -3.54236e-20)
(0.0135121 -0.0144027 3.50212e-20)
(0.0219826 -0.0126357 0)
(0.0273718 -0.00775748 0)
(0.028928 -0.00198415 0)
(0.0265064 0.00330794 -3.29224e-20)
(0.0209449 0.00741044 0)
(0.0129031 0.0102674 0)
(0.00295329 0.0121507 0)
(-0.00843169 0.013419 0)
(-0.0209618 0.0143494 3.04005e-20)
(-0.034486 0.0151078 0)
(-0.0488973 0.0157869 0)
(-0.0641378 0.0164324 0)
(-0.0801742 0.0170636 0)
(-0.0969843 0.0176867 2.71408e-20)
(-0.11455 0.018302 0)
(-0.132856 0.0189068 0)
(-0.151885 0.019498 0)
(-0.17162 0.0200724 0)
(-0.192042 0.0206274 0)
(-0.213132 0.0211619 0)
(-0.234871 0.0216753 0)
(-0.257238 0.022166 2.31009e-20)
(-0.28021 0.0226271 -2.2709e-20)
(-0.303759 0.0230393 2.2342e-20)
(-0.327844 0.0233677 2.19999e-20)
(-0.352403 0.0235784 0)
(-0.37736 0.0236903 0)
(-0.402679 0.0238376 -2.11253e-20)
(-0.428418 0.0242344 -2.0885e-20)
(-0.454552 0.0248843 0)
(-0.480944 0.0255321 0)
(-0.508156 0.0276552 -2.03315e-20)
(-0.53703 0.0360236 0)
(-0.566258 0.0427306 0)
(-0.596822 0.0271327 2.04083e-20)
(-0.628421 0.0237344 0)
(-0.657371 0.0438593 2.00108e-20)
(-0.692335 0.0395926 3.97122e-20)
(-0.730562 0.0509923 0)
(-0.769497 0.069767 0)
(-0.813948 0.0611022 0)
(-0.853295 0.0402419 0)
(-0.889074 0.0289369 0)
(-0.925546 0.0309821 4.05259e-20)
(-0.964098 0.0331861 4.00681e-20)
(-1.00421 0.0339767 3.96162e-20)
(-1.04495 0.0344817 0)
(-1.0862 0.0346723 -3.87417e-20)
(-1.12771 0.034692 0)
(-1.16937 0.0345934 3.79137e-20)
(-1.21108 0.0344147 3.75171e-20)
(-1.25277 0.0341794 0)
(-1.2944 0.0339022 0)
(-1.33592 0.0335928 0)
(-1.3773 0.033257 3.60361e-20)
(-1.41851 0.0328988 0)
(-1.45952 0.0325202 0)
(-1.5003 0.0321226 0)
(-1.54082 0.0317064 0)
(-1.58106 0.0312717 0)
(-1.62099 0.0308184 0)
(-1.66058 0.030346 0)
(-1.69979 0.0298542 0)
(-1.7386 0.0293425 -3.31348e-20)
(-1.77697 0.0288105 0)
(-1.81486 0.0282581 0)
(-1.85226 0.0276849 3.22368e-20)
(-1.8891 0.0270908 3.19397e-20)
(-1.92537 0.026476 0)
(-1.96103 0.0258406 -3.13453e-20)
(-1.99602 0.0251848 3.10469e-20)
(-2.03033 0.024509 0)
(-2.06391 0.0238137 -3.04446e-20)
(-2.09672 0.0230995 0)
(-2.12873 0.022367 0)
(-2.1599 0.021617 2.95195e-20)
(-2.19019 0.0208502 0)
(-2.21956 0.0200674 -2.8882e-20)
(-2.24798 0.0192694 0)
(-2.27541 0.018457 2.82232e-20)
(-2.30183 0.0176309 2.78846e-20)
(-2.32718 0.0167916 2.75392e-20)
(-2.35145 0.0159396 5.43733e-20)
(-2.3746 0.0150751 -5.36529e-20)
(-2.39659 0.014198 0)
(-2.41739 0.0133076 0)
(-2.43696 0.0124029 0)
(-2.45528 0.011482 -5.06024e-20)
(-2.47231 0.0105421 -4.9794e-20)
(-2.48801 0.00957926 4.89658e-20)
(-2.50234 0.00858895 0)
(-2.51526 0.00756572 -4.72485e-20)
(-2.5267 0.00650291 -4.63583e-20)
(-2.53662 0.0053941 -4.54468e-20)
(-2.54493 0.00423882 0)
(-2.55155 0.00305437 0)
(-2.55638 0.00188416 0)
(-2.55928 0.000783716 -4.15824e-20)
(-2.5604 -0.000194762 0)
(-2.56012 -0.00104565 0)
(-2.55835 -0.00186511 3.84133e-20)
(-2.55512 -0.00267013 0)
(-2.55043 -0.00346851 0)
(-2.54426 -0.00426163 3.50099e-20)
(-2.53661 -0.00504957 0)
(-2.52747 -0.00583174 0)
(-2.51682 -0.00660739 -3.13684e-20)
(-2.50466 -0.00737566 -3.01018e-20)
(-2.49099 -0.0081357 0)
(-2.4758 -0.00888668 2.74903e-20)
(-2.4591 -0.00962774 0)
(-2.44089 -0.0103581 -2.47762e-20)
(-2.42117 -0.0110769 0)
(-2.39994 -0.0117835 -2.19627e-20)
(-2.37721 -0.0124769 -2.05198e-20)
(-2.353 -0.0131566 0)
(-2.32731 -0.0138217 0)
(-2.30015 -0.0144715 0)
(-2.27155 -0.0151055 0)
(-2.24152 -0.0157228 0)
(-2.21007 -0.016323 0)
(-2.17724 -0.0169054 0)
(-2.14303 -0.0174695 -8.19623e-21)
(-2.10748 -0.0180149 6.57057e-21)
(-2.07061 -0.0185409 0)
(-2.03245 -0.0190472 0)
(-1.99303 -0.0195333 0)
(-1.95238 -0.0199987 0)
(-1.91053 -0.0204431 -3.54287e-21)
(-1.86751 -0.0208662 0)
(-1.82336 -0.0212677 1.03719e-20)
(-1.77812 -0.0216476 -1.38097e-20)
(-1.73183 -0.0220055 0)
(-1.68452 -0.0223412 0)
(-1.63623 -0.0226548 0)
(-1.58701 -0.0229461 2.76533e-20)
(-1.53689 -0.0232152 3.11235e-20)
(-1.48592 -0.0234622 0)
(-1.43413 -0.0236872 3.80557e-20)
(-1.38158 -0.0238904 4.15119e-20)
(-1.32831 -0.024072 -4.49579e-20)
(-1.27436 -0.0242322 0)
(-1.21977 -0.0243716 0)
(-1.16459 -0.0244905 -5.52062e-20)
(-1.10885 -0.0245894 0)
(-1.05261 -0.0246687 0)
(-0.995895 -0.0247292 0)
(-0.938757 -0.0247715 0)
(-0.881232 -0.0247964 7.18271e-20)
(-0.823358 -0.0248045 7.50593e-20)
(-0.765173 -0.0247968 0)
(-0.706711 -0.0247741 8.14129e-20)
(-0.648006 -0.0247373 0)
(-0.58909 -0.0246873 0)
(-0.529994 -0.0246252 9.0634e-20)
(-0.470746 -0.0245517 0)
(-0.411372 -0.0244674 9.65525e-20)
(-0.351897 -0.0243726 0)
(-0.29235 -0.0242673 0)
(-0.232753 -0.0241493 1.05052e-19)
(-0.173136 -0.0240117 0)
(-0.113528 -0.0238503 1.1045e-19)
(-0.0539534 -0.0236593 0)
(0.00556003 -0.0233925 0)
(0.0648678 -0.0230222 0)
(0.124067 -0.022639 -1.17319e-19)
(0.183156 -0.0222796 0)
(0.242147 -0.0219387 1.18848e-19)
(0.301047 -0.0216059 0)
(0.359842 -0.0212703 0)
(0.418488 -0.0209174 0)
(0.476881 -0.0205235 0)
(0.534844 -0.0200431 0)
(0.591875 -0.0193841 0)
(0.647555 -0.0183007 0)
(0.697817 -0.0161638 -2.45131e-19)
(0.746699 -0.0113638 0)
(0.749121 0.00624226 0)
(0.00383992 -0.0272557 1.05306e-19)
(0.00847194 -0.0273526 -1.01328e-19)
(0.00840941 -0.0172494 0)
(0.00589133 -0.00610145 6.1517e-20)
(0.00132264 0.00455024 0)
(-0.0050484 0.0139637 2.90186e-20)
(-0.0132213 0.0217818 -5.66245e-20)
(-0.023108 0.0279984 -5.53372e-20)
(-0.0346074 0.0328367 0)
(-0.0475806 0.0366246 -5.28539e-20)
(-0.0618724 0.0396869 -2.58278e-20)
(-0.0773379 0.042271 0)
(-0.0938601 0.0445437 0)
(-0.111353 0.0466093 0)
(-0.129754 0.0485292 0)
(-0.149024 0.0503372 -2.29839e-20)
(-0.169135 0.0520515 0)
(-0.19007 0.0536814 4.39511e-20)
(-0.211821 0.0552317 0)
(-0.234385 0.0567054 0)
(-0.257761 0.0581047 -4.13329e-20)
(-0.281957 0.0594322 0)
(-0.30698 0.0606897 3.98266e-20)
(-0.332843 0.0618779 -1.95942e-20)
(-0.359565 0.0629933 1.92782e-20)
(-0.387171 0.0640264 -1.89864e-20)
(-0.415698 0.0649645 -1.87192e-20)
(-0.445206 0.0658069 0)
(-0.475784 0.0665901 0)
(-0.507535 0.0673942 1.80782e-20)
(-0.54053 0.0682873 -1.78649e-20)
(-0.574879 0.0692025 0)
(-0.610909 0.0698946 0)
(-0.648499 0.0704061 1.77185e-20)
(-0.686443 0.0717994 0)
(-0.724916 0.0743456 0)
(-0.766673 0.0754907 -1.7566e-20)
(-0.809047 0.0775983 0)
(-0.850877 0.0802658 1.71334e-20)
(-0.894183 0.0796606 -3.41783e-20)
(-0.935057 0.0810065 0)
(-0.973424 0.0853196 0)
(-1.01126 0.0849878 -6.55995e-20)
(-1.05324 0.0847509 -6.56644e-20)
(-1.09624 0.0862384 -6.49872e-20)
(-1.1386 0.0877672 3.20281e-20)
(-1.17927 0.0886748 -3.18204e-20)
(-1.21884 0.0889423 -9.42087e-20)
(-1.25782 0.0887989 6.20496e-20)
(-1.29635 0.0883674 3.07571e-20)
(-1.33451 0.0877312 0)
(-1.37235 0.08695 -3.01026e-20)
(-1.40988 0.0860627 2.96429e-20)
(-1.4471 0.0850957 0)
(-1.484 0.0840668 0)
(-1.52058 0.0829874 0)
(-1.55683 0.0818649 -2.86206e-20)
(-1.59273 0.0807035 0)
(-1.62827 0.0795056 5.60046e-20)
(-1.66342 0.0782723 0)
(-1.69818 0.0770035 5.49583e-20)
(-1.73252 0.0756989 0)
(-1.76642 0.0743577 -5.39455e-20)
(-1.79985 0.072979 0)
(-1.8328 0.0715619 5.29576e-20)
(-1.86524 0.0701057 -2.61641e-20)
(-1.89714 0.0686096 0)
(-1.92848 0.0670732 -5.15052e-20)
(-1.95923 0.0654964 -2.55807e-20)
(-1.98936 0.0638792 -2.53396e-20)
(-2.01884 0.0622219 0)
(-2.04765 0.0605251 -2.47272e-20)
(-2.07576 0.0587895 -2.4612e-20)
(-2.10313 0.0570162 0)
(-2.12974 0.0552064 2.4119e-20)
(-2.15557 0.0533614 -4.76232e-20)
(-2.18057 0.0514829 0)
(-2.20473 0.0495726 -2.33592e-20)
(-2.22801 0.0476321 0)
(-2.25039 0.0456635 6.8406e-20)
(-2.27184 0.0436685 0)
(-2.29233 0.0416492 -6.67872e-20)
(-2.31183 0.0396073 -2.20122e-20)
(-2.33033 0.0375446 2.16512e-20)
(-2.34779 0.0354627 4.27323e-20)
(-2.36418 0.0333632 -4.21503e-20)
(-2.37949 0.0312471 0)
(-2.39368 0.0291155 0)
(-2.40674 0.0269688 0)
(-2.41864 0.024807 1.19227e-19)
(-2.42935 0.0226295 3.91042e-20)
(-2.43885 0.0204352 -3.84241e-20)
(-2.44713 0.0182219 0)
(-2.45417 0.0159876 -3.69935e-20)
(-2.45996 0.013729 3.62865e-20)
(-2.46449 0.0114418 3.55404e-20)
(-2.4678 0.00912267 0)
(-2.46992 0.00678064 0)
(-2.47096 0.00445672 0)
(-2.471 0.002215 3.23726e-20)
(-2.46999 7.65799e-05 0)
(-2.46761 -0.00196583 -6.14218e-20)
(-2.46384 -0.00396931 -8.94638e-20)
(-2.45866 -0.00594731 5.78968e-20)
(-2.45203 -0.00790679 0)
(-2.44395 -0.00984829 2.71895e-20)
(-2.43441 -0.0117706 0)
(-2.42339 -0.0136718 5.04117e-20)
(-2.41088 -0.0155496 -2.43253e-20)
(-2.39688 -0.0174017 -2.33349e-20)
(-2.38139 -0.0192258 0)
(-2.3644 -0.0210198 -6.34106e-20)
(-2.34591 -0.0227815 4.02563e-20)
(-2.32593 -0.0245089 1.89229e-20)
(-2.30446 -0.0262001 0)
(-2.2815 -0.0278531 1.67271e-20)
(-2.25706 -0.0294661 4.71406e-20)
(-2.23115 -0.0310374 0)
(-2.20378 -0.0325653 2.69924e-20)
(-2.17497 -0.0340481 2.468e-20)
(-2.14473 -0.0354844 2.23416e-20)
(-2.11307 -0.0368726 0)
(-2.08002 -0.0382117 0)
(-2.0456 -0.0395003 0)
(-2.00982 -0.0407373 -6.5898e-21)
(-1.97272 -0.041922 -4.93525e-21)
(-1.93432 -0.0430533 0)
(-1.89464 -0.0441304 -5.36061e-21)
(-1.85371 -0.0451525 -2.86573e-21)
(-1.81157 -0.046119 0)
(-1.76825 -0.0470294 2.64338e-21)
(-1.72378 -0.0478832 9.37088e-21)
(-1.67819 -0.0486804 -7.71861e-21)
(-1.63153 -0.0494208 -9.25005e-21)
(-1.58382 -0.0501045 0)
(-1.53512 -0.0507316 0)
(-1.48545 -0.0513021 0)
(-1.43486 -0.0518164 -2.04522e-20)
(-1.38338 -0.0522751 2.19246e-20)
(-1.33107 -0.0526789 4.99741e-20)
(-1.27796 -0.0530286 -2.80481e-20)
(-1.22409 -0.0533251 2.94758e-20)
(-1.16951 -0.0535692 3.30623e-20)
(-1.11427 -0.0537623 0)
(-1.05839 -0.0539056 0)
(-1.00194 -0.0540008 -3.93772e-20)
(-0.94494 -0.0540492 0)
(-0.887444 -0.0540525 0)
(-0.829489 -0.0540126 9.43237e-20)
(-0.771117 -0.0539316 0)
(-0.712366 -0.0538113 5.13274e-20)
(-0.653275 -0.053654 -5.47249e-20)
(-0.593879 -0.0534619 0)
(-0.534214 -0.0532373 5.81928e-20)
(-0.474312 -0.0529827 0)
(-0.414206 -0.0527004 0)
(-0.353925 -0.0523928 -6.58299e-20)
(-0.293497 -0.0520618 1.34863e-19)
(-0.232947 -0.0517093 -7.00359e-20)
(-0.172301 -0.0513362 0)
(-0.11158 -0.0509416 0)
(-0.0508089 -0.0505239 7.50646e-20)
(0.00999104 -0.0500795 0)
(0.0707955 -0.0496057 7.80021e-20)
(0.131587 -0.0491087 0)
(0.19235 -0.0485896 0)
(0.253067 -0.0480354 0)
(0.313766 -0.0474698 8.29732e-20)
(0.374438 -0.0469188 0)
(0.435075 -0.0463818 -8.47321e-20)
(0.495667 -0.0458462 0)
(0.556189 -0.0452924 0)
(0.616585 -0.0446898 1.73173e-19)
(0.676747 -0.0439866 -1.74504e-19)
(0.736488 -0.0430828 0)
(0.795375 -0.0417841 0)
(0.852959 -0.0395918 0)
(0.906709 -0.0355545 5.38845e-19)
(0.959192 -0.0264454 0)
(0.989796 -0.00434937 -3.66644e-19)
(0.00129433 -0.0337115 -4.0199e-23)
(-0.00121482 -0.023025 1.31459e-19)
(-0.00692563 -0.0074551 0)
(-0.0138672 0.00711476 -1.13683e-19)
(-0.0220709 0.0203704 0)
(-0.0313732 0.0321827 0)
(-0.0417446 0.0424629 1.14013e-23)
(-0.0532317 0.0512127 4.92029e-20)
(-0.0658848 0.0585577 4.79934e-20)
(-0.0797164 0.0647162 4.6879e-20)
(-0.0946968 0.0699408 0)
(-0.110771 0.0744666 0)
(-0.127877 0.0784859 -4.37303e-20)
(-0.145959 0.0821425 -8.55089e-20)
(-0.164971 0.0855373 8.36324e-20)
(-0.184883 0.0887386 0)
(-0.205671 0.0917912 8.01182e-20)
(-0.227326 0.0947252 -3.92566e-20)
(-0.249843 0.0975615 0)
(-0.273227 0.100316 7.54639e-20)
(-0.297486 0.103002 3.70534e-20)
(-0.322633 0.105631 -7.27698e-20)
(-0.348685 0.108215 -3.57869e-20)
(-0.375662 0.110766 0)
(-0.403587 0.113294 6.93191e-20)
(-0.432487 0.115807 6.83188e-20)
(-0.462395 0.118324 0)
(-0.493348 0.120874 6.65284e-20)
(-0.525383 0.123512 0)
(-0.558513 0.126313 6.5003e-20)
(-0.592691 0.129335 3.21868e-20)
(-0.627846 0.132559 0)
(-0.663989 0.135905 0)
(-0.700984 0.139331 0)
(-0.738137 0.142612 0)
(-0.775292 0.145175 0)
(-0.813131 0.14694 0)
(-0.851125 0.148663 6.01796e-20)
(-0.888629 0.150425 -8.9165e-20)
(-0.926029 0.15153 0)
(-0.962596 0.152497 0)
(-0.997468 0.152643 0)
(-1.03168 0.150962 8.20705e-24)
(-1.0669 0.148434 5.56968e-20)
(-1.10273 0.146168 1.09998e-19)
(-1.13838 0.144567 -1.0859e-19)
(-1.17341 0.143251 -5.35691e-20)
(-1.20791 0.141926 5.29688e-20)
(-1.24202 0.140527 -7.5914e-23)
(-1.27579 0.139032 5.16053e-20)
(-1.30929 0.137443 0)
(-1.34253 0.135772 5.03868e-20)
(-1.37555 0.13403 -8.40682e-23)
(-1.40835 0.132228 0)
(-1.44092 0.130372 0)
(-1.47326 0.128468 -4.81387e-20)
(-1.50537 0.126517 0)
(-1.53723 0.124522 0)
(-1.56882 0.122481 4.64954e-20)
(-1.60013 0.120394 9.21852e-20)
(-1.63114 0.118259 -4.57001e-20)
(-1.66183 0.116074 0)
(-1.69218 0.113837 4.47498e-20)
(-1.72216 0.111546 0)
(-1.75176 0.109201 4.36341e-20)
(-1.78094 0.106798 4.33675e-20)
(-1.80968 0.104338 -8.5643e-20)
(-1.83795 0.10182 -4.22802e-20)
(-1.86573 0.0992436 0)
(-1.89299 0.0966087 8.29624e-20)
(-1.91969 0.0939159 0)
(-1.94581 0.0911663 1.21865e-19)
(-1.97132 0.088361 8.02956e-20)
(-1.9962 0.0855017 7.9403e-20)
(-2.0204 0.0825903 -7.85063e-20)
(-2.0439 0.0796288 1.16484e-19)
(-2.06667 0.0766197 0)
(-2.08868 0.0735655 0)
(-2.10991 0.070469 -7.48522e-20)
(-2.13031 0.067333 -1.10939e-19)
(-2.14987 0.0641603 0)
(-2.16855 0.0609538 3.60614e-20)
(-2.18633 0.0577165 0)
(-2.20318 0.0544511 -1.05114e-19)
(-2.21907 0.0511602 -9.23263e-23)
(-2.23398 0.0478464 8.38004e-23)
(-2.24787 0.0445118 6.69749e-20)
(-2.26074 0.0411586 0)
(-2.27255 0.0377886 -6.48384e-20)
(-2.28327 0.0344033 -4.70303e-23)
(-2.2929 0.0310044 0)
(-2.30141 0.0275934 0)
(-2.30878 0.0241725 0)
(-2.31501 0.0207447 5.91386e-20)
(-2.32007 0.0173154 0)
(-2.32398 0.0138927 0)
(-2.32673 0.0104891 0)
(-2.32831 0.00712198 0)
(-2.32872 0.00381047 0)
(-2.32793 0.000565897 5.14803e-20)
(-2.32587 -0.00264025 0)
(-2.32248 -0.00583659 4.86224e-20)
(-2.31773 -0.00901509 4.71861e-20)
(-2.3116 -0.0121721 -4.57244e-20)
(-2.30407 -0.0153044 0)
(-2.29513 -0.0184083 -4.27253e-20)
(-2.28477 -0.0214801 0)
(-2.27298 -0.0245158 -3.96262e-20)
(-2.25974 -0.0275117 3.80398e-20)
(-2.24506 -0.0304637 1.09641e-19)
(-2.22892 -0.0333684 0)
(-2.21133 -0.0362221 9.98128e-20)
(-2.19229 -0.0390213 3.18793e-20)
(-2.17179 -0.0417629 0)
(-2.14984 -0.0444438 5.65333e-20)
(-2.12645 -0.0470608 5.30684e-20)
(-2.10161 -0.0496111 -7.40921e-20)
(-2.07536 -0.052092 0)
(-2.04768 -0.0545008 -2.09472e-20)
(-2.01859 -0.056835 -1.91307e-20)
(-1.98812 -0.059092 -5.2482e-20)
(-1.95627 -0.0612698 0)
(-1.92306 -0.0633663 0)
(-1.88852 -0.0653798 0)
(-1.85266 -0.0673085 -1.04887e-20)
(-1.81551 -0.069151 0)
(-1.7771 -0.070906 0)
(-1.73744 -0.0725722 4.11833e-21)
(-1.69657 -0.0741487 2.19925e-21)
(-1.65452 -0.0756343 0)
(-1.61131 -0.0770284 0)
(-1.56699 -0.0783306 -7.16871e-21)
(-1.52158 -0.0795405 0)
(-1.47512 -0.0806582 1.48974e-20)
(-1.42765 -0.0816839 1.79733e-20)
(-1.37921 -0.082618 0)
(-1.32982 -0.0834607 0)
(-1.27954 -0.0842128 -2.94907e-20)
(-1.2284 -0.0848752 -8.14743e-22)
(-1.17644 -0.0854492 -8.19993e-22)
(-1.1237 -0.0859364 0)
(-1.07023 -0.0863382 -9.01409e-20)
(-1.01606 -0.0866563 0)
(-0.961246 -0.0868927 0)
(-0.90582 -0.0870498 0)
(-0.849825 -0.0871301 6.02883e-20)
(-0.793304 -0.0871363 0)
(-0.736295 -0.087071 -1.33331e-19)
(-0.678841 -0.0869373 -7.10492e-20)
(-0.620979 -0.0867386 0)
(-0.562748 -0.0864782 -7.80277e-20)
(-0.504185 -0.0861596 0)
(-0.445324 -0.0857866 0)
(-0.386201 -0.085363 -2.62859e-19)
(-0.326846 -0.0848927 1.81272e-19)
(-0.267291 -0.0843794 0)
(-0.207565 -0.0838271 1.9412e-19)
(-0.147693 -0.0832389 -1.00986e-19)
(-0.0877003 -0.0826177 0)
(-0.02761 -0.0819663 0)
(0.032557 -0.0812863 0)
(0.0927802 -0.0805775 -3.33449e-19)
(0.153042 -0.0798386 0)
(0.213327 -0.0790698 -1.15523e-19)
(0.273626 -0.0782769 0)
(0.333939 -0.0774729 0)
(0.39429 -0.0766683 0)
(0.454675 -0.0758693 0)
(0.51508 -0.0750825 0)
(0.575486 -0.0743033 0)
(0.635873 -0.0735155 -2.5299e-19)
(0.69621 -0.0726909 0)
(0.756439 -0.0717828 -1.29863e-19)
(0.816454 -0.0707112 3.92152e-19)
(0.876081 -0.0693276 0)
(0.934959 -0.0673501 0)
(0.992749 -0.0641651 -2.68173e-19)
(1.04775 -0.0586033 -2.71709e-19)
(1.10263 -0.0477414 2.73708e-19)
(1.14536 -0.025323 2.78501e-19)
(-0.00235179 -0.027107 -2.07802e-19)
(-0.00984757 -0.00873581 -1.92625e-19)
(-0.0190561 0.00988081 -1.16027e-19)
(-0.0290658 0.0263713 -5.34426e-20)
(-0.0399271 0.0412357 0)
(-0.0514465 0.0546072 9.63798e-20)
(-0.0636313 0.0665193 -4.65049e-20)
(-0.0765679 0.0770117 0)
(-0.0903449 0.0861806 -4.3974e-20)
(-0.105025 0.0941815 0)
(-0.120639 0.101205 8.37955e-20)
(-0.137191 0.107446 0)
(-0.154669 0.113082 4.00472e-20)
(-0.17305 0.11826 7.83567e-20)
(-0.192315 0.123093 -7.66927e-20)
(-0.212444 0.127666 0)
(-0.233425 0.132042 -7.35848e-20)
(-0.255251 0.136265 0)
(-0.277919 0.140368 0)
(-0.30143 0.144378 -6.94642e-20)
(-0.325787 0.148314 0)
(-0.350995 0.152192 4.95333e-24)
(-0.377058 0.156026 0)
(-0.403977 0.159827 0)
(-0.431749 0.163602 -4.56188e-24)
(-0.460368 0.167359 -6.29813e-20)
(-0.48982 0.171101 -6.20851e-20)
(-0.520077 0.174837 -6.12396e-20)
(-0.551094 0.178572 0)
(-0.582793 0.182307 -1.19283e-19)
(-0.615058 0.186017 0)
(-0.647739 0.189628 -5.81492e-20)
(-0.680693 0.193022 0)
(-0.713768 0.19609 0)
(-0.74677 0.198689 5.59892e-20)
(-0.779616 0.200559 0)
(-0.81237 0.201735 -5.45164e-20)
(-0.844925 0.202524 -4.59665e-24)
(-0.877113 0.202839 1.0606e-19)
(-0.909001 0.202615 -1.04548e-19)
(-0.940512 0.202181 0)
(-0.971461 0.201262 0)
(-1.00214 0.199517 -5.00448e-20)
(-1.03294 0.19726 0)
(-1.06385 0.194878 -4.86635e-20)
(-1.09469 0.192615 4.79922e-20)
(-1.12538 0.190437 4.73397e-20)
(-1.15588 0.188277 0)
(-1.18619 0.1861 -4.60918e-20)
(-1.21635 0.183886 -4.54949e-20)
(-1.24635 0.181625 8.97703e-20)
(-1.27621 0.179314 -4.43513e-20)
(-1.30593 0.176951 -4.38031e-20)
(-1.33552 0.174537 0)
(-1.36496 0.172071 0)