/*--------------------------------*- C++ -*----------------------------------*\
  =========                 |
  \\      /  F ield         | OpenFOAM: The Open Source CFD Toolbox
   \\    /   O peration     | Website:  https://openfoam.org
    \\  /    A nd           | Version:  9
     \\/     M anipulation  |
\*---------------------------------------------------------------------------*/
FoamFile
{
    format      ascii;
    class       volScalarField;
    location    "200";
    object      alphat;
}
// * * * * * * * * * * * * * * * * * * * * * * * * * * * * * * * * * * * * * //

dimensions      [1 -1 -1 0 0 0 0];

internalField   nonuniform List<scalar> 
4000
(
0.000578938
0.000618241
0.000673464
0.000720673
0.000757655
0.000785046
0.000804983
0.00081742
0.000822844
0.000816575
0.00079466
0.000766723
0.000748017
0.000732048
0.000721899
0.000713176
0.000703984
0.000691102
0.000673277
0.000651543
0.000602741
0.000653045
0.000700266
0.000752458
0.000798326
0.000834136
0.000858479
0.000879197
0.000893375
0.000889755
0.000861925
0.000831209
0.00081895
0.000810808
0.000795773
0.000780247
0.000764134
0.000742864
0.000711064
0.000661056
0.000626651
0.000696401
0.000748493
0.00079449
0.000837651
0.000877012
0.00090927
0.00093727
0.000954404
0.000951937
0.00092025
0.000874067
0.00085428
0.000846546
0.000840663
0.000827011
0.000804443
0.000771778
0.0007249
0.000663555
0.000641825
0.000727091
0.000790263
0.000840241
0.000882569
0.000921188
0.000961824
0.000998488
0.00101807
0.00101384
0.000984637
0.000932461
0.000898595
0.000880526
0.000861127
0.000844709
0.000821037
0.000782257
0.000727239
0.000660698
0.000646664
0.000736968
0.000808267
0.000861789
0.000910109
0.000969853
0.0010337
0.00108144
0.00109918
0.00108891
0.00105853
0.00101549
0.000979925
0.000952634
0.00091623
0.000868865
0.000829355
0.000784044
0.000724043
0.000655732
0.000645266
0.000731469
0.000805723
0.000875645
0.000968202
0.00107209
0.00115647
0.00120403
0.00121014
0.0011899
0.00115973
0.00112604
0.00109662
0.00107312
0.00103671
0.000960111
0.000878071
0.000803288
0.000727914
0.000652779
0.000646344
0.000733004
0.000830387
0.000964184
0.00111843
0.0012409
0.00132089
0.00135544
0.00134797
0.00132077
0.00129535
0.00126783
0.00124102
0.00121443
0.00117937
0.00111771
0.0010126
0.00088382
0.000761898
0.000660498
0.00066461
0.000779045
0.00094941
0.00115722
0.00131688
0.00141828
0.00148527
0.00151389
0.00150544
0.00147529
0.00145258
0.0014244
0.00139234
0.00135876
0.00132017
0.00126459
0.00117311
0.00102872
0.000851797
0.000693107
0.000720051
0.000907027
0.00115354
0.00135667
0.00149082
0.00158309
0.00163926
0.00166245
0.00165405
0.00162066
0.00159802
0.00156972
0.00153625
0.00149841
0.00145346
0.00139473
0.00130962
0.00117544
0.000978343
0.000753705
0.000820908
0.00109805
0.00135085
0.00150505
0.00159528
0.00165237
0.00168791
0.00170581
0.0017059
0.00167902
0.00165952
0.00163351
0.00160316
0.00156899
0.00152977
0.00148162
0.00141435
0.00130365
0.00111189
0.000838647
0.000618241
0.000662735
0.000720882
0.000786182
0.000842213
0.000885001
0.000920767
0.000938943
0.000942406
0.000933575
0.000913674
0.000894409
0.000879579
0.000848983
0.000823031
0.000811227
0.000799662
0.000778967
0.000750307
0.000706014
0.000653045
0.00132072
0.00162099
0.00191863
0.00223156
0.0024823
0.00253156
0.00246104
0.00234892
0.00224148
0.00212685
0.00205049
0.00216062
0.00236659
0.00239183
0.00227939
0.00216108
0.00199097
0.00159866
0.000736007
0.000696401
0.0018638
0.00239379
0.00277888
0.00310294
0.00332457
0.00329345
0.00312933
0.00294444
0.00280035
0.00261153
0.00232166
0.00227577
0.00251237
0.00285151
0.0030004
0.00293178
0.00263875
0.0019848
0.000751185
0.000727091
0.00220147
0.00294443
0.00339066
0.00365377
0.00369644
0.00357101
0.00339451
0.00324978
0.00316543
0.00304941
0.00256465
0.00223906
0.00229764
0.00259927
0.00292942
0.00302669
0.00278531
0.00208138
0.000748947
0.000736968
0.00226957
0.0030744
0.003453
0.00353246
0.00344192
0.0033167
0.00323959
0.00323433
0.00328307
0.00328495
0.00289912
0.00228484
0.00211226
0.00223112
0.00249094
0.0026833
0.00257388
0.00197801
0.000734604
0.000731469
0.0020914
0.00273148
0.00290236
0.00284683
0.00277271
0.00278976
0.00291356
0.00309953
0.00328594
0.00337448
0.00315127
0.00252435
0.00211022
0.00201091
0.00207663
0.00221421
0.00220545
0.00178478
0.000718312
0.000733004
0.00180714
0.00218797
0.00220638
0.00218855
0.00230427
0.00257527
0.00293921
0.00329558
0.00355259
0.00364318
0.00344905
0.00295258
0.00245122
0.00210081
0.00190761
0.00186173
0.00184304
0.00158634
0.000716359
0.000779045
0.00154866
0.00176088
0.00183506
0.00204303
0.00246133
0.00300268
0.00352321
0.00389428
0.0040572
0.00402636
0.00381964
0.00343917
0.00300021
0.00250683
0.00207534
0.00177879
0.00161683
0.00142503
0.000747019
0.000907027
0.00141089
0.00165281
0.0019252
0.00239422
0.00300542
0.00355324
0.00392919
0.00415414
0.00413655
0.00396623
0.00376613
0.00350871
0.00318353
0.00277907
0.00231911
0.00189346
0.00158166
0.00133057
0.000828716
0.00109805
0.00136381
0.0015611
0.00168796
0.0017775
0.00184216
0.00188501
0.00190947
0.00191521
0.00188975
0.00186083
0.00182415
0.00178233
0.00173666
0.00168624
0.00162718
0.00155203
0.0014418
0.00125193
0.000951929
0.000673464
0.000720882
0.000756131
0.00081517
0.000883556
0.000938259
0.000975618
0.00100535
0.00101568
0.00101138
0.000997809
0.000984691
0.000969688
0.000935017
0.000906623
0.00089572
0.000881233
0.000853989
0.00081226
0.000748015
0.000700266
0.00162099
0.00193221
0.00224355
0.00269199
0.00317463
0.00351693
0.00355386
0.00345601
0.00331054
0.00316004
0.00310352
0.00324338
0.00343024
0.00335291
0.00315004
0.00295155
0.00266166
0.00204859
0.000791986
0.000748493
0.00239379
0.00313664
0.00365173
0.00415855
0.00460836
0.00486759
0.00485813
0.00468409
0.00442108
0.00406178
0.00373057
0.00372943
0.00403694
0.0043676
0.00442683
0.0042137
0.00367369
0.00261895
0.000813524
0.000790263
0.00294443
0.00409339
0.00478489
0.00526211
0.00555105
0.00563938
0.0055552
0.00539468
0.00517747
0.00477488
0.00406759
0.00368322
0.00380916
0.00420808
0.00453687
0.00450276
0.00396826
0.00278311
0.000813246
0.000808267
0.0030744
0.00440707
0.00512522
0.00547026
0.00559202
0.00560335
0.00558241
0.00556114
0.00550136
0.00525575
0.00447875
0.00360182
0.00337631
0.00358375
0.00391516
0.00404532
0.00369262
0.00264353
0.000795907
0.000805723
0.00273148
0.0038076
0.00428657
0.00447664
0.00459455
0.00475861
0.00499421
0.00525429
0.00544057
0.00538529
0.00484914
0.00373359
0.00309129
0.00298304
0.00310764
0.0032423
0.00308913
0.00233394
0.000776345
0.000830387
0.00218797
0.00281049
0.00303469
0.00319278
0.00346861
0.00392921
0.00450893
0.00508949
0.00549349
0.00555615
0.00515905
0.00431209
0.00336888
0.0028353
0.00260076
0.00252203
0.00242085
0.0019747
0.000782105
0.00094941
0.00176088
0.00212825
0.00241789
0.00287815
0.00355364
0.00444871
0.00530076
0.005849
0.00608469
0.00603211
0.00568737
0.00508625
0.00431571
0.00348842
0.00279234
0.00230546
0.00200804
0.00168289
0.000842817
0.00115354
0.00165281
0.00208368
0.00272186
0.00369226
0.00469422
0.00548711
0.00590992
0.00599472
0.00594172
0.00583191
0.00562842
0.00532623
0.004863
0.00419013
0.00337658
0.00257316
0.00197885
0.00157031
0.000982252
0.00135085
0.0015611
0.00171662
0.00183254
0.00192365
0.00199207
0.00203804
0.00206852
0.00208134
0.00206026
0.00202386
0.00197904
0.00192845
0.00187409
0.00181623
0.00174967
0.00166879
0.00156385
0.00140662
0.00114772
0.000720673
0.000786182
0.00081517
0.000829496
0.000888677
0.000954875
0.0010042
0.00103487
0.0010541
0.00105932
0.00105329
0.00104254
0.0010233
0.000992801
0.000973749
0.000967735
0.000951608
0.000918255
0.000864953
0.000778074
0.000752458
0.00191863
0.00224355
0.0023403
0.00262941
0.00314101
0.00369448
0.00408985
0.00412389
0.004051
0.00394845
0.00393526
0.00405689
0.0041426
0.0040093
0.00384149
0.00364483
0.00324587
0.00238678
0.000830556
0.00079449
0.00277888
0.00365173
0.0040701
0.00447223
0.00496692
0.00544846
0.00577435
0.00585876
0.00565535
0.00529705
0.00501656
0.00503829
0.00528391
0.00547486
0.00543375
0.00511126
0.00436996
0.00300472
0.000852969
0.000840241
0.00339066
0.00478489
0.00554418
0.00604014
0.0064249
0.00671158
0.00687773
0.00690859
0.00673982
0.00621548
0.00549108
0.00512566
0.00523005
0.00553465
0.00569161
0.0054436
0.00464444
0.0031419
0.000852713
0.000861789
0.003453
0.00512522
0.00611929
0.00668879
0.0070238
0.00723505
0.00736873
0.00742307
0.00731597
0.00687285
0.00588224
0.00497046
0.00468763
0.00482908
0.00501663
0.00491038
0.00427092
0.0029281
0.000836291
0.000875645
0.00290236
0.00428657
0.00519547
0.00585378
0.00636134
0.0067876
0.00716759
0.00744449
0.00750563
0.00719194
0.00633369
0.00499654
0.00417719
0.00396486
0.00397909
0.00391258
0.00349767
0.00251141
0.000827963
0.000964184
0.00220638
0.00303469
0.00364019
0.0042409
0.00501353
0.00593169
0.00678826
0.00738962
0.00763188
0.00744283
0.00676374
0.00564795
0.00436771
0.0036248
0.00326347
0.00301117
0.00268045
0.00205631
0.000868165
0.00115722
0.00183506
0.00241789
0.00307324
0.00392178
0.00506818
0.00629412
0.00716947
0.00764475
0.00780091
0.00765312
0.00718068
0.00643447
0.00555091
0.00455469
0.00360243
0.00286809
0.00230276
0.00177444
0.000982689
0.00135667
0.0019252
0.00272186
0.00392887
0.00528611
0.00617302
0.00665851
0.00692518
0.00701941
0.00698037
0.00687627
0.00665517
0.00631359
0.00590038
0.00541263
0.0045456
0.00344701
0.00247202
0.00178623
0.00116129
0.00150505
0.00168796
0.00183254
0.00194809
0.00204144
0.0021156
0.00216649
0.00220087
0.00222131
0.00220749
0.00216461
0.00211185
0.00205305
0.00199058
0.00192417
0.00184958
0.00176285
0.00165711
0.0015168
0.00130672
0.000757655
0.000842213
0.000883556
0.000888677
0.000882337
0.000939269
0.00100542
0.00105071
0.00107516
0.00108279
0.00108082
0.0010701
0.00105537
0.00104022
0.00103745
0.00103181
0.00101311
0.000977005
0.000909122
0.000799842
0.000798326
0.00223156
0.00269199
0.00262941
0.00251503
0.00276438
0.00335543
0.00398106
0.00439637
0.0045389
0.0045041
0.00451523
0.00455884
0.00455069
0.00449864
0.00443851
0.00424167
0.00365383
0.00256831
0.000851796
0.000837651
0.00310294
0.00415855
0.00447223
0.00453758
0.00477143
0.00527777
0.00588389
0.00635725
0.00646224
0.00626486
0.0060661
0.00606313
0.00618688
0.00626033
0.00614002
0.00569027
0.00473679
0.00313692
0.000870332
0.000882569
0.00365377
0.00526211
0.00604014
0.00639055
0.0066374
0.00695008
0.00732437
0.00764378
0.0076945
0.00729548
0.00672083
0.00640242
0.00641707
0.00653486
0.00645645
0.00595997
0.00491257
0.00320793
0.000870858
0.000910109
0.00353246
0.00547026
0.00668879
0.00735418
0.00774724
0.00803875
0.00829763
0.00849629
0.00848518
0.00802322
0.00708612
0.00625916
0.00590086
0.0058631
0.00578518
0.00537297
0.00445104
0.00293312
0.000866593
0.000968202
0.00284683
0.00447664
0.00585378
0.00689427
0.00766563
0.00825701
0.00868387
0.00893548
0.00893443
0.00850607
0.00750434
0.00620701
0.0052783
0.00487652
0.00465819
0.00430076
0.00360292
0.0024712
0.000891576
0.00111843
0.00218855
0.00319278
0.0042409
0.00549349
0.00682659
0.00797835
0.00874476
0.00912712
0.00918432
0.00884099
0.00801764
0.00680044
0.00540718
0.0044451
0.00387318
0.00339329
0.00281272
0.00204016
0.000981836
0.00131688
0.00204303
0.00287815
0.00392178
0.00532887
0.00693039
0.00814359
0.00878796
0.00904266
0.00909285
0.00888561
0.00833303
0.00750815
0.00655195
0.00554668
0.00445383
0.00348755
0.00265604
0.00190193
0.00113097
0.00149082
0.00239422
0.00369226
0.00528611
0.00635258
0.00708357
0.00757081
0.00779117
0.00785347
0.0078088
0.00768191
0.00742403
0.0070514
0.00660892
0.00611494
0.00548934
0.00437532
0.00311627
0.00209373
0.00130355
0.00159528
0.0017775
0.00192365
0.00204144
0.00214073
0.00221607
0.00227382
0.00231856
0.00235203
0.00234792
0.00229327
0.00222721
0.00215692
0.00208501
0.00201085
0.0019297
0.00183604
0.00172687
0.00158987
0.001403
0.000785046
0.000885001
0.000938259
0.000954875
0.000939269
0.000918149
0.000979921
0.00104896
0.00108917
0.00110326
0.00110252
0.00109466
0.00108723
0.00108704
0.00109172
0.00108342
0.00106336
0.0010161
0.000937088
0.000813011
0.000834136
0.0024823
0.00317463
0.00314101
0.00276438
0.00248428
0.00282239
0.00356638
0.00423602
0.00458663
0.00468748
0.00471565
0.00476066
0.0048291
0.00490653
0.00487354
0.00448192
0.00373198
0.00253592
0.000854421
0.000877012
0.00332457
0.00460836
0.00496692
0.00477143
0.00450435
0.00471861
0.00547043
0.00632886
0.00677471
0.00681657
0.00673149
0.00672471
0.00678289
0.00677682
0.00653554
0.0058763
0.00472059
0.00300543
0.000868722
0.000921188
0.00369644
0.00555105
0.0064249
0.0066374
0.00656992
0.00665256
0.00710425
0.00775045
0.00815318
0.00804334
0.007673
0.00739534
0.00728956
0.00719572
0.00686411
0.00610221
0.00483441
0.00304192
0.000880178
0.000969853
0.00344192
0.00559202
0.0070238
0.00774724
0.00804437
0.00819864
0.00844181
0.00882251
0.00907447
0.00883328
0.00811991
0.00739472
0.00692558
0.00664116
0.00625686
0.00553155
0.00436729
0.00277751
0.000905302
0.00107209
0.00277271
0.00459455
0.00636134
0.00766563
0.00853277
0.00903472
0.00931033
0.00954585
0.00967631
0.00938049
0.00849075
0.00733073
0.00633423
0.00568093
0.00516968
0.0045098
0.00357113
0.00236953
0.000972095
0.0012409
0.00230427
0.00346861
0.00501353
0.00682659
0.00837009
0.00933284
0.00971477
0.00986307
0.009981
0.00973716
0.00896856
0.00777963
0.00640911
0.00528224
0.00443967
0.00372646
0.00294862
0.00207698
0.00109463
0.00141828
0.00246133
0.00355364
0.00506818
0.00693039
0.00850991
0.00940722
0.00968796
0.0097407
0.00982302
0.00969957
0.00915824
0.00831625
0.00733734
0.00631699
0.0052317
0.00410853
0.00308556
0.00214812
0.00124888
0.00158309
0.00300542
0.00469422
0.00617302
0.00708357
0.00780893
0.00822943
0.00840282
0.0084682
0.00845796
0.00828846
0.00795572
0.00754352
0.00708033
0.00656574
0.00597729
0.0051052
0.00376681
0.00247928
0.00139446
0.00165237
0.00184216
0.00199207
0.0021156
0.00221607
0.00229842
0.00236854
0.00243227
0.00248666
0.00249647
0.0024213
0.00233313
0.00224504
0.00215957
0.00207512
0.0019868
0.00188585
0.00177302
0.00163452
0.00145397
0.000804983
0.000920767
0.000975618
0.0010042
0.00100542
0.000979921
0.000957541
0.00103301
0.00109839
0.00112278
0.00112582
0.00112564
0.00113
0.00113681
0.00113199
0.00111964
0.00108595
0.00102961
0.000945464
0.00081669
0.000858479
0.00253156
0.00351693
0.00369448
0.00335543
0.00282239
0.00253862
0.00310819
0.00392441
0.00445576
0.00469236
0.00481439
0.00495642
0.00512415
0.00520047
0.00494219
0.00440798
0.00356096
0.00235659
0.000846081
0.00090927
0.00329345
0.00486759
0.00544846
0.00527777
0.00471861
0.00434233
0.00490181
0.00597786
0.00673226
0.00705541
0.00713846
0.00717498
0.00718711
0.00705131
0.00658811
0.00571511
0.00440935
0.00271233
0.000865355
0.000961824
0.00357101
0.00563938
0.00671158
0.00695008
0.00665256
0.00628854
0.00653446
0.00747594
0.0082203
0.00847483
0.00836272
0.00813417
0.00789835
0.00757114
0.00696839
0.00595678
0.00452934
0.0027651
0.000900058
0.0010337
0.0033167
0.00560335
0.00723505
0.00803875
0.00819864
0.00800843
0.00800947
0.00865439
0.009275
0.00937571
0.00897463
0.0083553
0.00775236
0.00718798
0.00649994
0.0054958
0.00415842
0.00258627
0.000954888
0.00115647
0.00278976
0.00475861
0.0067876
0.00825701
0.00903472
0.00919073
0.00911141
0.00946294
0.0100004
0.00997305
0.00936307
0.00837129
0.00731165
0.00639183
0.00556159
0.00463326
0.00352181
0.00231104
0.00104618
0.00132089
0.00257527
0.00392921
0.00593169
0.00797835
0.00933284
0.00982417
0.00973351
0.00988417
0.0103124
0.0103377
0.00974152
0.00867149
0.00735227
0.00608654
0.00498866
0.00404187
0.00312406
0.0022005
0.0011727
0.00148527
0.00300268
0.00444871
0.00629412
0.00814359
0.00940722
0.00990882
0.00991483
0.00996991
0.0102676
0.010277
0.00976891
0.0089403
0.00794934
0.00689801
0.0058054
0.00465133
0.00350878
0.00244701
0.00131308
0.00163926
0.00355324
0.00548711
0.00665851
0.00757081
0.00822943
0.00860769
0.00883143
0.00900342
0.00912075
0.00886763
0.0083646
0.00785866
0.00735415
0.00681176
0.00620375
0.00549153
0.00424344
0.00282021
0.00143968
0.00168791
0.00188501
0.00203804
0.00216649
0.00227382
0.00236854
0.00246019
0.00255361
0.0026372
0.00266788
0.00256202
0.00243962
0.00232498
0.00222007
0.00212116
0.00202221
0.00191545
0.00179631
0.00165499
0.00147529
0.00081742
0.000938943
0.00100535
0.00103487
0.00105071
0.00104896
0.00103301
0.00103381
0.00112027
0.00116349
0.00117342
0.00117798
0.00118056
0.00117274
0.0011585
0.00112936
0.00108527
0.0010245
0.000940094
0.000813349
0.000879197
0.00246104
0.00355386
0.00408985
0.00398106
0.00356638
0.00310819
0.00292261
0.00359315
0.00433938
0.00479221
0.00511554
0.00534025
0.00542322
0.00519928
0.00479114
0.0041595
0.00328005
0.00215226
0.000842709
0.00093727
0.00312933
0.00485813
0.00577435
0.00588389
0.00547043
0.00490181
0.00460935
0.00545546
0.00658415
0.00714544
0.00749052
0.00759202
0.00748197
0.00710492
0.00639519
0.00534712
0.0039796
0.00241652
0.000877338
0.000998488
0.00339451
0.0055552
0.00687773
0.00732437
0.00710425
0.00653446
0.00611857
0.00689372
0.00813426
0.00868542
0.00884105
0.00869753
0.00832403
0.00774219
0.00687002
0.00565798
0.00415575
0.00250987
0.000927644
0.00108144
0.00323959
0.00558241
0.00736873
0.00829763
0.00844181
0.00800947
0.00748321
0.00806047
0.00926532
0.00975467
0.00960229
0.00911593
0.00840527
0.00757493
0.006601
0.00538305
0.00394838
0.00244924
0.000995398
0.00120403
0.00291356
0.00499421
0.00716759
0.00868387
0.00931033
0.00911141
0.00861309
0.00895557
0.010042
0.0104688
0.010052
0.0092509
0.00817503
0.00702711
0.00589998
0.00474881
0.00352039
0.00232742
0.00108896
0.00135544
0.00293921
0.00450893
0.00678826
0.00874476
0.00971477
0.00973351
0.00940124
0.00956111
0.0104666
0.0108609
0.010354
0.00945139
0.00820255
0.00683188
0.00552701
0.0043557
0.00332169
0.00237078
0.00120388
0.00151389
0.00352321
0.00530076
0.00716947
0.00878796
0.00968796
0.00991483
0.00987676
0.00998091
0.0106375
0.0108981
0.0102822
0.00944133
0.00843359
0.00733042
0.00619226
0.0050431
0.00384201
0.00269739
0.00132991
0.00166245
0.00392919
0.00590992
0.00692518
0.00779117
0.00840282
0.00883143
0.00921572
0.0095174
0.00986902
0.0096041
0.00879783
0.00809708
0.00749778
0.00690218
0.0062542
0.00553918
0.00448862
0.00301989
0.00144438
0.00170581
0.00190947
0.00206852
0.00220087
0.00231856
0.00243227
0.00255361
0.00268409
0.00279876
0.00285762
0.00272115
0.00255193
0.00240072
0.0022699
0.00215228
0.00203966
0.00192392
0.00179755
0.00165347
0.00147452
0.000822844
0.000942406
0.00101568
0.0010541
0.00107516
0.00108917
0.00109839
0.00112027
0.0011587
0.00122975
0.00124615
0.00124442
0.00122439
0.00119957
0.0011648
0.00112368
0.00107408
0.00101215
0.000929924
0.000808372
0.000893375
0.00234892
0.00345601
0.00412389
0.00439637
0.00423602
0.00392441
0.00359315
0.0030199
0.00355176
0.00450083
0.00549006
0.00572653
0.0054626
0.0050835
0.00456882
0.00388945
0.00303304
0.00201069
0.000847073
0.000954404
0.00294444
0.00468409
0.00585876
0.00635725
0.00632886
0.00597786
0.00545546
0.00448974
0.00519415
0.00671413
0.00778141
0.00793923
0.00764047
0.00698966
0.00609499
0.00495309
0.00361802
0.00222692
0.00089074
0.00101807
0.00324978
0.00539468
0.00690859
0.00764378
0.00775045
0.00747594
0.00689372
0.00580298
0.00658882
0.0084426
0.00917674
0.00906068
0.00856903
0.00776281
0.00667769
0.00535053
0.00386038
0.00236395
0.000942841
0.00109918
0.00323433
0.00556114
0.00742307
0.00849629
0.00882251
0.00865439
0.00806047
0.00697226
0.00779352
0.00976105
0.0100604
0.00959662
0.00883857
0.00782431
0.00664183
0.00529357
0.0038288
0.00241118
0.00100818
0.00121014
0.00309953
0.00525429
0.00744449
0.00893548
0.00954585
0.00946294
0.00895557
0.00796949
0.00878909
0.0106733
0.0105814
0.00982506
0.00880367
0.00754524
0.00622195
0.0049067
0.00359772
0.00240947
0.00109101
0.00134797
0.00329558
0.00508949
0.00738962
0.00912712
0.00986307
0.00988417
0.00956111
0.00880038
0.0095674
0.0111964
0.0108355
0.00996411
0.00883472
0.00744905
0.00602078
0.00468366
0.00352451
0.00253515
0.00119021
0.00150544
0.00389428
0.005849
0.00764475
0.00904266
0.0097407
0.00996991
0.00998091
0.00960767
0.0102411
0.0113797
0.010707
0.00978511
0.00877966
0.00763976
0.00644353
0.00525309
0.00406294
0.002849
0.00130333
0.00165405
0.00415414
0.00599472
0.00701941
0.00785347
0.0084682
0.00900342
0.0095174
0.00972759
0.0101662
0.0102879
0.00922513
0.00829437
0.00757335
0.00690642
0.00620275
0.00544618
0.00460742
0.00308656
0.00141277
0.0017059
0.00191521
0.00208134
0.00222131
0.00235203
0.00248666
0.0026372
0.00279876
0.00292855
0.00300228
0.00287416
0.00265832
0.00246625
0.00230662
0.00216847
0.00204049
0.00191353
0.00177967
0.00163218
0.00145449
0.000816575
0.000933575
0.00101138
0.00105932
0.00108279
0.00110326
0.00112278
0.00116349
0.00122975
0.0012731
0.0012864
0.0012807
0.00124907
0.00120661
0.00116309
0.00111724
0.00106525
0.00100264
0.000921171
0.00080169
0.000889755
0.00224148
0.00331054
0.004051
0.0045389
0.00458663
0.00445576
0.00433938
0.00355176
0.00252227
0.00366241
0.00581949
0.00575982
0.00540471
0.00495718
0.00440364
0.00372877
0.00291897
0.00196745
0.000843375
0.000951937
0.00280035
0.00442108
0.00565535
0.00646224
0.00677471
0.00673226
0.00658415
0.00519415
0.00383898
0.00613303
0.008163
0.00803895
0.00753879
0.00674816
0.00579135
0.00467431
0.00344662
0.00219155
0.000884678
0.00101384
0.00316543
0.00517747
0.00673982
0.0076945
0.00815318
0.0082203
0.00813426
0.00658882
0.00528286
0.00822882
0.00952668
0.00915143
0.00852754
0.00759555
0.00643431
0.00512163
0.00372941
0.00236809
0.00093242
0.00108891
0.00328307
0.00550136
0.00731597
0.00848518
0.00907447
0.009275
0.00926532
0.00779352
0.00674635
0.00979826
0.0103776
0.00973633
0.00892576
0.00784532
0.00660187
0.00524803
0.00383507
0.00248633
0.00098956
0.0011899
0.00328594
0.00544057
0.00750563
0.00893443
0.00967631
0.0100004
0.010042
0.00878909
0.008093
0.0108443
0.0108586
0.0100073
0.00902264
0.00778368
0.00643451
0.00507581
0.00375174
0.00254135
0.00106058
0.00132077
0.00355259
0.00549349
0.00763188
0.00918432
0.009981
0.0103124
0.0104666
0.0095674
0.0092235
0.0114237
0.0110478
0.0101177
0.00907467
0.00777149
0.00636009
0.00497703
0.0037217
0.00265697
0.0011481
0.00147529
0.0040572
0.00608469
0.00780091
0.00909285
0.00982302
0.0102676
0.0106375
0.0102411
0.0101789
0.0116206
0.0108911
0.00990256
0.00891138
0.0077882
0.00658144
0.00535616
0.00416628
0.00290775
0.00125221
0.00162066
0.00413655
0.00594172
0.00698037
0.0078088
0.00845796
0.00912075
0.00986902
0.0101662
0.0102648
0.0105406
0.00935363
0.00832297
0.00755755
0.00686354
0.00612748
0.00532558
0.00447819
0.0030357
0.00135611
0.00167902
0.00188975
0.00206026
0.00220749
0.00234792
0.00249647
0.00266788
0.00285762
0.00300228
0.00300331
0.0029249
0.00268851
0.0024742
0.00229798
0.00214725
0.00200916
0.001874
0.00173538
0.00158412
0.00140601
0.00079466
0.000913674
0.000997809
0.00105329
0.00108082
0.00110252
0.00112582
0.00117342
0.00124615
0.0012864
0.00127796
0.0012672
0.00124063
0.00120174
0.00116218
0.00111859
0.00106717
0.00100359
0.000919259
0.000793102
0.000861925
0.00212685
0.00316004
0.00394845
0.0045041
0.00468748
0.00469236
0.00479221
0.00450083
0.00366241
0.00433523
0.00585059
0.00565803
0.00533261
0.00490356
0.0043764
0.0037343
0.00295493
0.00200786
0.000830186
0.00092025
0.00261153
0.00406178
0.00529705
0.00626486
0.00681657
0.00705541
0.00714544
0.00671413
0.00613303
0.00710273
0.00813905
0.00790045
0.00728565
0.00651768
0.00561194
0.00457292
0.00342844
0.00221701
0.000859628
0.000984637
0.00304941
0.00477488
0.00621548
0.00729548
0.00804334
0.00847483
0.00868542
0.0084426
0.00822882
0.00902393
0.00938283
0.00891319
0.00815021
0.00718845
0.00608807
0.00489335
0.0036503
0.00240002
0.000900092
0.00105853
0.00328495
0.00525575
0.00687285
0.00802322
0.00883328
0.00937571
0.00975467
0.00976105
0.00979826
0.0102936
0.0101344
0.00942798
0.00850958
0.00745589
0.00630487
0.00507941
0.00382009
0.00257534
0.000951767
0.00115973
0.00337448
0.00538529
0.00719194
0.00850607
0.00938049
0.00997305
0.0104688
0.0106733
0.0108443
0.0110707
0.010564
0.0097005
0.00867914
0.00753599
0.00632307
0.00508812
0.00385963
0.00266647
0.0010184
0.00129535
0.00364318
0.00555615
0.00744283
0.00884099
0.00973716
0.0103377
0.0108609
0.0111964
0.0114237
0.0114579
0.0107611
0.00985571
0.00881637
0.00762705
0.00635335
0.00507331
0.00385252
0.00273506
0.00110461
0.00145258
0.00402636
0.00603211
0.00765312
0.00888561
0.00969957
0.010277
0.0108981
0.0113797
0.0116206
0.0114912
0.010631
0.00968705
0.00871975
0.0076705
0.0065327
0.00534441
0.00416647
0.00291347
0.00121163
0.00159802
0.00396623
0.00583191
0.00687627
0.00768191
0.00828846
0.00886763
0.0096041
0.0102879
0.0105406
0.0100285
0.00895967
0.00810705
0.00743897
0.00679109
0.00606854
0.00525107
0.00436803
0.0029663
0.00132086
0.00165952
0.00186083
0.00202386
0.00216461
0.00229327
0.0024213
0.00256202
0.00272115
0.00287416
0.0029249
0.002763
0.00256055
0.00238393
0.00223342
0.00209856
0.00196982
0.00183931
0.0017023
0.00155325
0.0013806
0.000766723
0.000894409
0.000984691
0.00104254
0.0010701
0.00109466
0.00112564
0.00117798
0.00124442
0.0012807
0.0012672
0.00125043
0.00122148
0.00119276
0.00116282
0.0011265
0.00107911
0.00101592
0.000927725
0.000786419
0.000831209
0.00205049
0.00310352
0.00393526
0.00451523
0.00471565
0.00481439
0.00511554
0.00549006
0.00581949
0.00585059
0.00574036
0.00557312
0.00531391
0.00496214
0.00449767
0.00389076
0.00310598
0.00209807
0.000822682
0.000874067
0.00232166
0.00373057
0.00501656
0.0060661
0.00673149
0.00713846
0.00749052
0.00778141
0.008163
0.00813905
0.00799463
0.00760394
0.00708127
0.00643658
0.00562927
0.00463898
0.00347432
0.00218306
0.00084098
0.000932461
0.00256465
0.00406759
0.00549108
0.00672083
0.007673
0.00836272
0.00884105
0.00917674
0.00952668
0.00938283
0.00901024
0.00842885
0.0076929
0.0068419
0.00585713
0.00473448
0.00350227
0.00222342
0.00087176
0.00101549
0.00289912
0.00447875
0.00588224
0.00708612
0.00811991
0.00897463
0.00960229
0.0100604
0.0103776
0.0101344
0.00953931
0.00873439
0.00782262
0.00685931
0.00582087
0.00469337
0.00350961
0.00232062
0.000922364
0.00112604
0.00315127
0.00484914
0.00633369
0.00750434
0.00849075
0.00936307
0.010052
0.0105814
0.0108586
0.010564
0.00985094
0.00891223
0.00787352
0.00681361
0.00573562
0.00464036
0.00353565
0.00245684
0.000990413
0.00126783
0.00344905
0.00515905
0.00676374
0.00801764
0.00896856
0.00974152
0.010354
0.0108355
0.0110478
0.0107611
0.0100593
0.00913629
0.00810332
0.00702122
0.00589036
0.00475281
0.00365766
0.0026189
0.0010789
0.0014244
0.00381964
0.00568737
0.00718068
0.00833303
0.00915824
0.00976891
0.0102822
0.010707
0.0108911
0.010631
0.00992847
0.00908499
0.00820409
0.0072598
0.00622017
0.00511498
0.00400255
0.00280175
0.00118674
0.00156972
0.00376613
0.00562842
0.00665517
0.00742403
0.00795572
0.0083646
0.00879783
0.00922513
0.00935363
0.00895967
0.0082893
0.00769549
0.00716123
0.00658693
0.00590989
0.00512327
0.00425571
0.00287908
0.00130024
0.00163351
0.00182415
0.00197904
0.00211185
0.00222721
0.00233313
0.00243962
0.00255193
0.00265832
0.00268851
0.00256055
0.00241403
0.00227907
0.00215634
0.00204034
0.00192483
0.00180366
0.00167308
0.00152964
0.00136342
0.000748017
0.000879579
0.000969688
0.0010233
0.00105537
0.00108723
0.00113
0.00118056
0.00122439
0.00124907
0.00124063
0.00122148
0.00120038
0.00117956
0.00115725
0.00112792
0.00108485
0.00102148
0.00092846
0.000781879
0.00081895
0.00216062
0.00324338
0.00405689
0.00455884
0.00476066
0.00495642
0.00534025
0.00572653
0.00575982
0.00565803
0.00557312
0.00547807
0.0053312
0.00508777
0.00470787
0.00415375
0.00337814
0.00230708
0.000827863
0.00085428
0.00227577
0.00372943
0.00503829
0.00606313
0.00672471
0.00717498
0.00759202
0.00793923
0.00803895
0.00790045
0.00760394
0.00730195
0.00695958
0.0064905
0.00581749
0.00489274
0.00370553
0.00230304
0.000838296
0.000898595
0.00223906
0.00368322
0.00512566
0.00640242
0.00739534
0.00813417
0.00869753
0.00906068
0.00915143
0.00891319
0.00842885
0.00788755
0.00732194
0.00666607
0.00583381
0.00478113
0.00352793
0.00217311
0.000860556
0.000979925
0.00228484
0.00360182
0.00497046
0.00625916
0.00739472
0.0083553
0.00911593
0.00959662
0.00973633
0.00942798
0.00873439
0.00794491
0.00716675
0.00637505
0.00547719
0.00443786
0.00328122
0.00209815
0.00090726
0.00109662
0.00252435
0.00373359
0.00499654
0.006207
0.00733073
0.00837129
0.0092509
0.00982506
0.0100073
0.0097005
0.00891223
0.00794634
0.00697316
0.00603666
0.00509686
0.00410659
0.00308746
0.002102
0.000978586
0.00124102
0.00295258
0.00431209
0.00564795
0.00680044
0.00777963
0.00867149
0.00945139
0.00996411
0.0101177
0.00985571
0.00913629
0.00819127
0.00717969
0.00615276
0.00511186
0.00408381
0.00312787
0.00226132
0.00106809
0.00139234
0.00343917
0.00508625
0.00643447
0.00750815
0.00831625
0.0089403
0.00944133
0.00978511
0.00990256
0.00968705
0.00908499
0.00833852
0.0075505
0.00669461
0.00573981
0.00470954
0.0036372
0.00254749
0.00117417
0.00153625
0.00350871
0.00532623
0.00631359
0.0070514
0.00754352
0.00785866
0.00809708
0.00829437
0.00832297
0.00810705
0.00769549
0.00725873
0.00681063
0.00629688
0.00567557
0.00494549
0.00410282
0.00273008
0.00128831
0.00160316
0.00178233
0.00192845
0.00205305
0.00215692
0.00224504
0.00232498
0.00240072
0.00246625
0.0024742
0.00238393
0.00227907
0.00217553
0.00207576
0.00197733
0.00187584
0.00176609
0.00164474
0.00150938
0.00135031
0.000732048
0.000848983
0.000935017
0.000992801
0.00104022
0.00108704
0.00113681
0.00117274
0.00119957
0.00120661
0.00120174
0.00119276
0.00117956
0.00116207
0.00114103
0.00111388
0.00107278
0.00100807
0.000910807
0.000771281
0.000810808
0.00236659
0.00343024
0.0041426
0.00455069
0.0048291
0.00512415
0.00542322
0.0054626
0.00540471
0.00533261
0.00531391
0.0053312
0.00531267
0.00518439
0.00489577
0.00441003
0.00367434
0.00257036
0.000834122
0.000846546
0.00251237
0.00403694
0.00528391
0.00618688
0.00678289
0.00718711
0.00748197
0.00764047
0.00753879
0.00728565
0.00708127
0.00695958
0.00682886
0.00656496
0.00606426
0.00526017
0.0041141
0.00261317
0.000844054
0.000880526
0.00229764
0.00380916
0.00523005
0.00641707
0.00728956
0.00789835
0.00832403