/*--------------------------------*- C++ -*----------------------------------*\
  =========                 |
  \\      /  F ield         | OpenFOAM: The Open Source CFD Toolbox
   \\    /   O peration     | Website:  https://openfoam.org
    \\  /    A nd           | Version:  9
     \\/     M anipulation  |
\*---------------------------------------------------------------------------*/
FoamFile
{
    format      ascii;
    class       volScalarField;
    location    "200";
    object      epsilon;
}
// * * * * * * * * * * * * * * * * * * * * * * * * * * * * * * * * * * * * * //

dimensions      [0 2 -3 0 0 0 0];

internalField   nonuniform List<scalar> 
4000
(
1.31187e-06
1.63931e-06
2.10513e-06
2.56458e-06
2.9721e-06
3.29541e-06
3.53509e-06
3.66951e-06
3.72429e-06
3.68434e-06
3.48414e-06
3.15479e-06
2.93522e-06
2.74167e-06
2.60862e-06
2.50586e-06
2.40185e-06
2.2559e-06
2.07039e-06
1.87216e-06
1.46103e-06
1.91591e-06
2.42038e-06
2.99648e-06
3.55122e-06
3.9996e-06
4.26142e-06
4.4421e-06
4.61324e-06
4.65693e-06
4.39299e-06
3.96587e-06
3.77907e-06
3.68588e-06
3.46691e-06
3.24959e-06
3.05717e-06
2.82701e-06
2.4741e-06
1.95502e-06
1.62723e-06
2.30669e-06
2.90367e-06
3.49028e-06
4.05428e-06
4.56327e-06
4.90289e-06
5.20521e-06
5.49683e-06
5.6044e-06
5.27644e-06
4.61041e-06
4.24082e-06
4.10011e-06
4.06869e-06
3.8648e-06
3.55812e-06
3.16963e-06
2.65847e-06
1.98929e-06
1.74145e-06
2.62176e-06
3.38609e-06
4.05567e-06
4.6454e-06
5.11859e-06
5.56435e-06
6.10611e-06
6.56581e-06
6.70326e-06
6.38065e-06
5.57138e-06
4.94659e-06
4.5081e-06
4.23751e-06
4.12018e-06
3.80814e-06
3.30485e-06
2.66167e-06
1.95391e-06
1.77766e-06
2.74791e-06
3.64309e-06
4.36878e-06
4.92837e-06
5.54542e-06
6.45568e-06
7.4711e-06
8.13496e-06
8.23478e-06
7.83258e-06
7.06892e-06
6.326e-06
5.57334e-06
4.75252e-06
4.2076e-06
3.83473e-06
3.28901e-06
2.58767e-06
1.88264e-06
1.74798e-06
2.67144e-06
3.56384e-06
4.291e-06
5.14264e-06
6.56548e-06
8.4097e-06
1.0018e-05
1.07351e-05
1.0626e-05
1.00836e-05
9.33042e-06
8.57228e-06
7.73697e-06
6.37645e-06
4.91145e-06
3.97931e-06
3.25399e-06
2.49813e-06
1.79829e-06
1.68523e-06
2.51005e-06
3.39736e-06
4.50607e-06
6.49743e-06
9.38389e-06
1.23333e-05
1.43466e-05
1.48361e-05
1.43593e-05
1.36816e-05
1.28442e-05
1.19551e-05
1.08959e-05
9.31355e-06
7.08168e-06
4.96353e-06
3.52627e-06
2.50267e-06
1.73544e-06
1.65635e-06
2.47956e-06
3.726e-06
6.13885e-06
1.01089e-05
1.44972e-05
1.82404e-05
2.04877e-05
2.08059e-05
1.99092e-05
1.90526e-05
1.79188e-05
1.66075e-05
1.50971e-05
1.31713e-05
1.04651e-05
7.28283e-06
4.58816e-06
2.82183e-06
1.76104e-06
1.7807e-06
2.93798e-06
5.3832e-06
1.00328e-05
1.59452e-05
2.1489e-05
2.56656e-05
2.78752e-05
2.80146e-05
2.65536e-05
2.54292e-05
2.39975e-05
2.23335e-05
2.0395e-05
1.79267e-05
1.46363e-05
1.05876e-05
6.58991e-06
3.61415e-06
1.9354e-06
2.13779e-06
4.34492e-06
9.14656e-06
1.5875e-05
2.2094e-05
2.65989e-05
2.94778e-05
3.1002e-05
3.12451e-05
2.98264e-05
2.87491e-05
2.73275e-05
2.57031e-05
2.38541e-05
2.16044e-05
1.85934e-05
1.44452e-05
9.45374e-06
5.01837e-06
2.3226e-06
1.63931e-06
2.05163e-06
2.65725e-06
3.41034e-06
4.19171e-06
4.88076e-06
5.4944e-06
5.7865e-06
5.8254e-06
5.71121e-06
5.47841e-06
5.23418e-06
5.04839e-06
4.46614e-06
3.93618e-06
3.72939e-06
3.55251e-06
3.27697e-06
2.88051e-06
2.39762e-06
1.91591e-06
2.14698e-06
2.66257e-06
3.30585e-06
3.96068e-06
4.43131e-06
4.71007e-06
4.84659e-06
4.90085e-06
4.86256e-06
4.58248e-06
4.23282e-06
4.21916e-06
4.19943e-06
3.90257e-06
3.57166e-06
3.31219e-06
3.08493e-06
2.84397e-06
2.7114e-06
2.30669e-06
2.56349e-06
3.03711e-06
3.59535e-06
4.18722e-06
4.76634e-06
5.16979e-06
5.36975e-06
5.50116e-06
5.63843e-06
5.41184e-06
4.62685e-06
4.37176e-06
4.46997e-06
4.41442e-06
4.04598e-06
3.66529e-06
3.33542e-06
3.03999e-06
2.90897e-06
2.62176e-06
2.99281e-06
3.54021e-06
4.16173e-06
4.8653e-06
5.49354e-06
5.87306e-06
6.07783e-06
6.26032e-06
6.48452e-06
6.556e-06
5.49245e-06
4.7384e-06
4.66106e-06
4.71056e-06
4.49741e-06
4.05212e-06
3.58009e-06
3.14368e-06
2.91872e-06
2.74791e-06
3.27658e-06
4.04398e-06
4.88017e-06
5.66224e-06
6.24223e-06
6.63254e-06
6.90463e-06
7.1142e-06
7.30743e-06
7.41762e-06
6.75153e-06
5.57443e-06
5.18588e-06
5.04209e-06
4.82813e-06
4.35915e-06
3.72769e-06
3.1053e-06
2.77472e-06
2.67144e-06
3.30546e-06
4.30213e-06
5.3114e-06
6.19929e-06
7.00203e-06
7.69318e-06
8.14075e-06
8.31485e-06
8.31818e-06
8.2225e-06
7.80764e-06
6.92349e-06
6.38745e-06
5.94481e-06
5.35041e-06
4.64228e-06
3.78807e-06
2.94213e-06
2.54542e-06
2.51005e-06
3.185e-06
4.46571e-06
5.90378e-06
7.45848e-06
9.02582e-06
1.02125e-05
1.06592e-05
1.04717e-05
1.00407e-05
9.66164e-06
9.2201e-06
8.69881e-06
8.42555e-06
7.99688e-06
6.91319e-06
5.50544e-06
4.10761e-06
2.86798e-06
2.34296e-06
2.47956e-06
3.55844e-06
5.72873e-06
8.52027e-06
1.16024e-05
1.43121e-05
1.57814e-05
1.57726e-05
1.48168e-05
1.38112e-05
1.33029e-05
1.28294e-05
1.22202e-05
1.18193e-05
1.14625e-05
1.02767e-05
8.05496e-06
5.53091e-06
3.37848e-06
2.29585e-06
2.93798e-06
5.52082e-06
1.00779e-05
1.57349e-05
2.12273e-05
2.52824e-05
2.69021e-05
2.64849e-05
2.46753e-05
2.28395e-05
2.2074e-05
2.12198e-05
2.02735e-05
1.94027e-05
1.83341e-05
1.64044e-05
1.31072e-05
8.88249e-06
4.99061e-06
2.57203e-06
4.34492e-06
9.51303e-06
1.75773e-05
2.59276e-05
3.28625e-05
3.81395e-05
4.18091e-05
4.3953e-05
4.45628e-05
4.27534e-05
4.07318e-05
3.82538e-05
3.55373e-05
3.26243e-05
2.93606e-05
2.53906e-05
2.02483e-05
1.38262e-05
7.43003e-06
3.15371e-06
2.10513e-06
2.65725e-06
3.0708e-06
3.83575e-06
4.86005e-06
5.83864e-06
6.61376e-06
7.21243e-06
7.41532e-06
7.36608e-06
7.19094e-06
7.01907e-06
6.80446e-06
6.05147e-06
5.2634e-06
4.99188e-06
4.75094e-06
4.32947e-06
3.6746e-06
2.85788e-06
2.42038e-06
2.66257e-06
3.07463e-06
3.6743e-06
4.44834e-06
5.11733e-06
5.42903e-06
5.49071e-06
5.43025e-06
5.33715e-06
5.12309e-06
4.92394e-06
5.01398e-06
5.07207e-06
4.84896e-06
4.52689e-06
4.22476e-06
3.90514e-06
3.54724e-06
3.3886e-06
2.90367e-06
3.03711e-06
3.48261e-06
4.03296e-06
4.67468e-06
5.27984e-06
5.70493e-06
5.91457e-06
6.01625e-06
6.11612e-06
5.84962e-06
5.14619e-06
4.94698e-06
5.11451e-06
5.12179e-06
4.81843e-06
4.44716e-06
4.09163e-06
3.76465e-06
3.70723e-06
3.38609e-06
3.54021e-06
4.09064e-06
4.72316e-06
5.40998e-06
6.03696e-06
6.45703e-06
6.65249e-06
6.83216e-06
7.12186e-06
7.20031e-06
5.99402e-06
5.14194e-06
5.12018e-06
5.27235e-06
5.15008e-06
4.77822e-06
4.33241e-06
3.8949e-06
3.74949e-06
3.64309e-06
4.04398e-06
4.84905e-06
5.67046e-06
6.41145e-06
6.94639e-06
7.2127e-06
7.33337e-06
7.49719e-06
7.82965e-06
8.21937e-06
7.4074e-06
5.75062e-06
5.3232e-06
5.39802e-06
5.38274e-06
5.05144e-06
4.49507e-06
3.87716e-06
3.55873e-06
3.56384e-06
4.30213e-06
5.32237e-06
6.24755e-06
6.94778e-06
7.39385e-06
7.62948e-06
7.75413e-06
7.91382e-06
8.18025e-06
8.46868e-06
8.3193e-06
6.83253e-06
6.02226e-06
5.90003e-06
5.732e-06
5.29292e-06
4.55812e-06
3.70751e-06
3.23063e-06
3.39736e-06
4.46571e-06
5.83979e-06
7.10928e-06
8.12884e-06
8.77058e-06
8.98225e-06
8.93198e-06
8.98472e-06
9.00464e-06
8.94921e-06
8.73522e-06
8.18042e-06
7.74474e-06
7.70031e-06
7.24961e-06
6.30375e-06
5.04604e-06
3.71213e-06
2.96313e-06
3.726e-06
5.72873e-06
8.44737e-06
1.12118e-05
1.36361e-05
1.49785e-05
1.49388e-05
1.42404e-05
1.35585e-05
1.27959e-05
1.22216e-05
1.17126e-05
1.12543e-05
1.1475e-05
1.21197e-05
1.17301e-05
9.87817e-06
7.29755e-06
4.68408e-06
3.003e-06
5.3832e-06
1.00779e-05
1.63953e-05
2.30684e-05
2.89217e-05
3.19005e-05
3.13701e-05
2.94103e-05
2.68661e-05
2.50549e-05
2.44477e-05
2.39428e-05
2.34349e-05
2.3341e-05
2.30816e-05
2.15833e-05
1.80007e-05
1.29432e-05
7.72274e-06
3.75442e-06
9.14656e-06
1.75773e-05
2.72302e-05
3.58502e-05
4.31865e-05
4.91481e-05
5.34351e-05
5.62365e-05
5.74472e-05
5.55683e-05
5.25608e-05
4.90216e-05
4.52109e-05
4.12713e-05
3.71002e-05
3.23612e-05
2.67324e-05
1.98941e-05
1.21069e-05
5.37104e-06
2.56458e-06
3.41034e-06
3.83575e-06
4.02524e-06
4.91544e-06
6.11352e-06
7.14437e-06
7.84483e-06
8.34785e-06
8.52321e-06
8.48547e-06
8.33837e-06
7.9603e-06
7.08784e-06
6.4349e-06
6.25017e-06
5.96667e-06
5.36354e-06
4.42151e-06
3.22165e-06
2.99648e-06
3.30585e-06
3.6743e-06
3.99e-06
4.65201e-06
5.51674e-06
6.11325e-06
6.20129e-06
6.06214e-06
5.93756e-06
5.80865e-06
5.75324e-06
5.89916e-06
5.97789e-06
5.80174e-06
5.49222e-06
5.12171e-06
4.65377e-06
4.13908e-06
3.92027e-06
3.49028e-06
3.59535e-06
4.03296e-06
4.47657e-06
5.05981e-06
5.72757e-06
6.26531e-06
6.57396e-06
6.75437e-06
6.79707e-06
6.43485e-06
5.83539e-06
5.67987e-06
5.82847e-06
5.83803e-06
5.58351e-06
5.21585e-06
4.80779e-06
4.38837e-06
4.2807e-06
4.05567e-06
4.16173e-06
4.72316e-06
5.3278e-06
5.96722e-06
6.58942e-06
7.07867e-06
7.42636e-06
7.77995e-06
8.17332e-06
8.01612e-06
6.66042e-06
5.75652e-06
5.68211e-06
5.81125e-06
5.73687e-06
5.44055e-06
5.02461e-06
4.54472e-06
4.30752e-06
4.36878e-06
4.88018e-06
5.67046e-06
6.39901e-06
7.07878e-06
7.65799e-06
8.06172e-06
8.35247e-06
8.68991e-06
9.1177e-06
9.38689e-06
8.15052e-06
6.287e-06
5.7098e-06
5.77625e-06
5.82638e-06
5.61398e-06
5.15922e-06
4.54819e-06
4.07203e-06
4.291e-06
5.3114e-06
6.24755e-06
7.03762e-06
7.65262e-06
8.1466e-06
8.54764e-06
8.89527e-06
9.26177e-06
9.60725e-06
9.80832e-06
9.34761e-06
7.40438e-06
6.22139e-06
6.07851e-06
6.0741e-06
5.82332e-06
5.23963e-06
4.42746e-06
3.72979e-06
4.50607e-06
5.90378e-06
7.10928e-06
8.00272e-06
8.50325e-06
8.85311e-06
9.45395e-06
9.99647e-06
1.03879e-05
1.05125e-05
1.04051e-05
1.0047e-05
9.21187e-06
8.20554e-06
7.87058e-06
7.72059e-06
7.12196e-06
6.05761e-06
4.71815e-06
3.61116e-06
6.13885e-06
8.52027e-06
1.12118e-05
1.34799e-05
1.4724e-05
1.52401e-05
1.58223e-05
1.5704e-05
1.52456e-05
1.47029e-05
1.42961e-05
1.39475e-05
1.35462e-05
1.34882e-05
1.34574e-05
1.3308e-05
1.18948e-05
9.41711e-06
6.55133e-06
4.14515e-06
1.00328e-05
1.57349e-05
2.30684e-05
3.01368e-05
3.47306e-05
3.56884e-05
3.37835e-05
3.14174e-05
2.94754e-05
2.83112e-05
2.82968e-05
2.83189e-05
2.79902e-05
2.77573e-05
2.78441e-05
2.66808e-05
2.31495e-05
1.76147e-05
1.14449e-05
5.99559e-06
1.5875e-05
2.59276e-05
3.58502e-05
4.47609e-05
5.27467e-05
5.96023e-05
6.46867e-05
6.81001e-05
7.00423e-05
6.84925e-05
6.44482e-05
5.9727e-05
5.4739e-05
4.96965e-05
4.44604e-05
3.88626e-05
3.26994e-05
2.57137e-05
1.75909e-05
9.12809e-06
2.9721e-06
4.19171e-06
4.86005e-06
4.91544e-06
4.76815e-06
5.75233e-06
7.08986e-06
8.12963e-06
8.76369e-06
9.07397e-06
9.15622e-06
8.94934e-06
8.46925e-06
7.88777e-06
7.66962e-06
7.56291e-06
7.19533e-06
6.43026e-06
5.1525e-06
3.51112e-06
3.55122e-06
3.96068e-06
4.44834e-06
4.65201e-06
4.78071e-06
5.52286e-06
6.51378e-06
7.00178e-06
6.93088e-06
6.71639e-06
6.61118e-06
6.64113e-06
6.80288e-06
6.86275e-06
6.7049e-06
6.36653e-06
5.87233e-06
5.24261e-06
4.57277e-06
4.26068e-06
4.05428e-06
4.18722e-06
4.67468e-06
5.05981e-06
5.40643e-06
5.995e-06
6.7395e-06
7.36359e-06
7.76081e-06
7.75233e-06
7.24207e-06
6.66288e-06
6.49558e-06
6.55602e-06
6.49702e-06
6.22659e-06
5.82807e-06
5.35274e-06
4.81824e-06
4.54568e-06
4.6454e-06
4.8653e-06
5.40998e-06
5.96722e-06
6.51035e-06
7.09512e-06
7.72263e-06
8.37614e-06
9.04515e-06
9.42125e-06
8.79005e-06
7.37009e-06
6.46376e-06
6.27921e-06
6.30054e-06
6.19277e-06
5.91497e-06
5.50547e-06
4.96671e-06
4.52093e-06
4.92837e-06
5.66224e-06
6.41145e-06
7.07878e-06
7.7552e-06
8.4236e-06
9.06119e-06
9.72365e-06
1.04216e-05
1.08253e-05
1.04034e-05
8.64709e-06
6.85555e-06
6.17039e-06
6.12554e-06
6.14119e-06
5.97497e-06
5.58801e-06
4.98738e-06
4.31054e-06
5.14264e-06
6.19929e-06
6.94778e-06
7.65262e-06
8.40384e-06
9.22921e-06
1.00748e-05
1.09047e-05
1.16324e-05
1.18406e-05
1.13261e-05
9.97232e-06
7.89009e-06
6.59656e-06
6.27548e-06
6.29254e-06
6.16189e-06
5.72871e-06
5.01431e-06
4.18093e-06
6.49743e-06
7.45848e-06
8.12884e-06
8.50325e-06
9.07656e-06
1.02863e-05
1.15797e-05
1.26342e-05
1.33433e-05
1.31856e-05
1.23902e-05
1.13441e-05
1.01169e-05
8.88698e-06
8.16885e-06
8.00597e-06
7.72771e-06
6.97235e-06
5.80462e-06
4.60352e-06
1.01089e-05
1.16024e-05
1.36361e-05
1.4724e-05
1.57021e-05
1.72852e-05
1.8145e-05
1.83199e-05
1.8243e-05
1.76745e-05
1.68455e-05
1.62069e-05
1.57303e-05
1.55116e-05
1.52767e-05
1.44778e-05
1.34997e-05
1.14885e-05
8.70376e-06
6.13804e-06
1.59452e-05
2.12273e-05
2.89217e-05
3.47306e-05
3.70443e-05
3.67228e-05
3.55228e-05
3.38374e-05
3.26575e-05
3.19232e-05
3.18805e-05
3.20052e-05
3.18621e-05
3.15262e-05
3.12341e-05
3.04165e-05
2.73275e-05
2.19393e-05
1.5341e-05
9.48469e-06
2.2094e-05
3.28625e-05
4.31865e-05
5.27467e-05
6.17224e-05
6.92085e-05
7.52108e-05
7.98682e-05
8.32639e-05
8.24477e-05
7.66965e-05
7.01649e-05
6.3633e-05
5.73409e-05
5.11801e-05
4.46568e-05
3.78301e-05
3.05609e-05
2.24537e-05
1.3463e-05
3.29541e-06
4.88076e-06
5.83864e-06
6.11352e-06
5.75233e-06
5.30462e-06
6.47004e-06
7.98169e-06
8.99305e-06
9.42826e-06
9.4678e-06
9.26008e-06
8.96051e-06
8.81238e-06
8.93126e-06
8.80552e-06
8.3898e-06
7.34136e-06
5.73754e-06
3.71227e-06
3.9996e-06
4.43131e-06
5.11733e-06
5.51674e-06
5.52286e-06
5.4644e-06
6.54141e-06
7.74585e-06
8.08426e-06
7.83866e-06
7.62781e-06
7.60343e-06
7.67455e-06
7.64792e-06
7.42184e-06
6.95435e-06
6.30803e-06
5.53618e-06
4.75137e-06
4.3352e-06
4.56327e-06
4.76634e-06
5.27984e-06
5.72757e-06
5.995e-06
6.22581e-06
7.09147e-06
8.42884e-06
9.39558e-06
9.22876e-06
8.36632e-06
7.63066e-06
7.32363e-06
7.2032e-06
6.99807e-06
6.63193e-06
6.15133e-06
5.58514e-06
4.93389e-06
4.45953e-06
5.11859e-06
5.49354e-06
6.03696e-06
6.58942e-06
7.09512e-06
7.59049e-06
8.44006e-06
9.88614e-06
1.14042e-05
1.15199e-05
9.99195e-06
8.26871e-06
7.24189e-06
6.85854e-06
6.69013e-06
6.46614e-06
6.12973e-06
5.67477e-06
5.07214e-06
4.44687e-06
5.54542e-06
6.24223e-06
6.94639e-06
7.65799e-06
8.4236e-06
9.25786e-06
1.03496e-05
1.20103e-05
1.37892e-05
1.39199e-05
1.18556e-05
9.3511e-06
7.50764e-06
6.67472e-06
6.43334e-06
6.3199e-06
6.1144e-06
5.74252e-06
5.18355e-06
4.49051e-06
6.56548e-06
7.00203e-06
7.39385e-06
8.1466e-06
9.22921e-06
1.05725e-05
1.21999e-05
1.42856e-05
1.62296e-05
1.59911e-05
1.34589e-05
1.06301e-05
8.36811e-06
7.03194e-06
6.5167e-06
6.3896e-06
6.29744e-06
6.00803e-06
5.50976e-06
4.89446e-06
9.38389e-06
9.02582e-06
8.77058e-06
8.85311e-06
1.02863e-05
1.23276e-05
1.44936e-05
1.699e-05
1.89754e-05
1.81511e-05
1.51925e-05
1.25487e-05
1.07075e-05
9.42187e-06
8.58314e-06
8.05907e-06
7.98692e-06
7.63199e-06
6.89533e-06
6.18101e-06
1.44972e-05
1.43121e-05
1.49785e-05
1.52401e-05
1.72852e-05
1.92243e-05
2.06205e-05
2.22533e-05
2.3584e-05
2.2835e-05
2.00605e-05
1.79907e-05
1.7006e-05
1.66039e-05
1.62153e-05
1.52807e-05
1.41793e-05
1.28847e-05
1.06811e-05
8.87404e-06
2.1489e-05
2.52824e-05
3.19005e-05
3.56884e-05
3.67228e-05
3.71285e-05
3.67735e-05
3.66442e-05
3.7076e-05
3.66231e-05
3.51039e-05
3.41767e-05
3.37681e-05
3.33785e-05
3.27245e-05
3.1752e-05
2.91713e-05
2.45683e-05
1.83347e-05
1.3315e-05
2.65989e-05
3.81395e-05
4.91481e-05
5.96023e-05
6.92085e-05
7.7721e-05
8.52738e-05
9.22059e-05
9.81723e-05
9.87931e-05
9.00612e-05
8.05525e-05
7.17491e-05
6.3818e-05
5.64941e-05
4.92993e-05
4.17268e-05
3.40983e-05
2.59332e-05
1.69629e-05
3.53509e-06
5.4944e-06
6.61376e-06
7.14437e-06
7.08986e-06
6.47004e-06
5.94197e-06
7.49056e-06
9.07476e-06
9.74987e-06
9.83659e-06
9.78428e-06
9.84011e-06
1.00449e-05
1.00275e-05
9.82404e-06
9.04542e-06
7.75019e-06
6.00057e-06
3.79498e-06
4.26142e-06
4.71007e-06
5.42903e-06
6.11325e-06
6.51378e-06
6.54141e-06
6.76487e-06
8.75937e-06
1.00072e-05
9.68461e-06
9.0215e-06
8.66343e-06
8.50063e-06
8.2441e-06
7.75253e-06
7.0839e-06
6.28127e-06
5.45337e-06
4.6681e-06
4.18173e-06
4.90289e-06
5.16979e-06
5.70493e-06
6.26531e-06
6.7395e-06
7.09147e-06
7.85443e-06
1.06478e-05
1.31904e-05
1.27879e-05
1.05695e-05
8.95566e-06
8.18269e-06
7.72405e-06
7.26285e-06
6.71688e-06
6.09963e-06
5.44055e-06
4.75549e-06
4.22499e-06
5.56435e-06
5.87306e-06
6.45703e-06
7.07867e-06
7.72263e-06
8.44006e-06
9.8111e-06
1.34395e-05
1.76879e-05
1.73839e-05
1.31877e-05
9.91998e-06
8.22994e-06
7.43459e-06
6.96887e-06
6.54845e-06
6.0809e-06
5.54865e-06
4.95226e-06
4.42025e-06
6.45568e-06
6.63254e-06
7.2127e-06
8.06172e-06
9.06119e-06
1.03496e-05
1.2584e-05
1.72606e-05
2.27723e-05
2.23471e-05
1.61212e-05
1.1224e-05
8.54382e-06
7.28967e-06
6.73251e-06
6.40512e-06
6.08644e-06
5.69814e-06
5.26981e-06
4.9159e-06
8.4097e-06
7.69318e-06
7.62948e-06
8.54764e-06
1.00748e-05
1.21999e-05
1.55861e-05
2.14927e-05
2.77504e-05
2.67623e-05
1.87736e-05
1.26419e-05
9.29203e-06
7.61499e-06
6.82718e-06
6.4565e-06
6.29058e-06
6.11556e-06
5.95183e-06
5.97575e-06
1.23333e-05
1.02125e-05
8.98225e-06
9.45395e-06
1.15797e-05
1.44936e-05
1.86238e-05
2.50758e-05
3.112e-05
3.06255e-05
2.13875e-05
1.47115e-05
1.14272e-05
9.84074e-06
8.88509e-06
8.17759e-06
7.90215e-06
7.89193e-06
7.7521e-06
8.07616e-06
1.82404e-05
1.57813e-05
1.49388e-05
1.58223e-05
1.8145e-05
2.06205e-05
2.40277e-05
2.93942e-05
3.4216e-05
3.42288e-05
2.63645e-05
2.0206e-05
1.76187e-05
1.67021e-05
1.61228e-05
1.52111e-05
1.38421e-05
1.31137e-05
1.18199e-05
1.15851e-05
2.56656e-05
2.69021e-05
3.13701e-05
3.37835e-05
3.55228e-05
3.67735e-05
3.84331e-05
4.17657e-05
4.5359e-05
4.5552e-05
4.0052e-05
3.58512e-05
3.41008e-05
3.32746e-05
3.23001e-05
3.0736e-05
2.85243e-05
2.47471e-05
1.95645e-05
1.62979e-05
2.94778e-05
4.18091e-05
5.34351e-05
6.46867e-05
7.52108e-05
8.52738e-05
9.54593e-05
0.000106263
0.000116351
0.00011975
0.000106098
9.17127e-05
7.94696e-05
6.92436e-05
6.03903e-05
5.22412e-05
4.41504e-05
3.61296e-05
2.78724e-05
1.90422e-05
3.66951e-06
5.7865e-06
7.21243e-06
7.84483e-06
8.12963e-06
7.98169e-06
7.49056e-06
7.38975e-06
9.43269e-06
1.06059e-05
1.088e-05
1.10208e-05
1.11683e-05
1.10759e-05
1.08344e-05
1.01569e-05
9.09846e-06
7.70546e-06
5.96482e-06
3.75869e-06
4.4421e-06
4.84659e-06
5.49071e-06
6.20129e-06
7.00178e-06
7.74585e-06
8.75937e-06
1.14157e-05
1.5385e-05
1.53419e-05
1.23317e-05
1.02982e-05
9.32308e-06
8.48256e-06
7.61818e-06
6.72421e-06
5.88166e-06
5.1191e-06
4.46988e-06
4.00643e-06
5.20521e-06
5.36975e-06
5.91457e-06
6.57396e-06
7.36359e-06
8.42884e-06
1.06478e-05
1.62434e-05
2.40211e-05
2.53231e-05
1.70513e-05
1.16002e-05
9.32166e-06
8.16309e-06
7.30281e-06
6.50614e-06
5.75256e-06
5.06903e-06
4.50736e-06
4.18985e-06
6.10611e-06
6.07783e-06
6.65249e-06
7.42636e-06
8.37614e-06
9.88614e-06
1.34395e-05
2.22919e-05
3.36624e-05
3.68209e-05
2.31382e-05
1.38287e-05
9.85563e-06
8.15736e-06
7.22826e-06
6.52768e-06
5.89141e-06
5.30138e-06
4.82929e-06
4.69071e-06
7.4711e-06
6.90463e-06
7.33337e-06
8.35247e-06
9.72365e-06
1.20103e-05
1.72606e-05
2.90107e-05
4.20429e-05
4.6519e-05
2.91318e-05
1.62297e-05
1.0545e-05
8.22053e-06
7.15116e-06
6.52348e-06
6.03322e-06
5.60665e-06
5.36832e-06
5.57071e-06
1.0018e-05
8.14075e-06
7.75413e-06
8.89527e-06
1.09047e-05
1.42856e-05
2.14927e-05
3.46498e-05
4.72047e-05
5.26261e-05
3.39655e-05
1.83118e-05
1.13678e-05
8.57002e-06
7.30799e-06
6.63372e-06
6.26541e-06
6.11233e-06
6.26418e-06
7.06912e-06
1.43466e-05
1.06592e-05
8.93198e-06
9.99647e-06
1.26342e-05
1.699e-05
2.50758e-05
3.77612e-05
4.86334e-05
5.39517e-05
3.73208e-05
2.04077e-05
1.31367e-05
1.04034e-05
9.114e-06
8.2209e-06
7.61021e-06
7.70881e-06
8.07994e-06
9.5263e-06
2.04877e-05
1.57726e-05
1.42404e-05
1.5704e-05
1.83199e-05
2.22533e-05
2.93942e-05
4.05372e-05
4.95588e-05
5.38539e-05
4.01209e-05
2.49705e-05
1.85083e-05
1.62926e-05
1.52759e-05
1.42376e-05
1.29599e-05
1.21867e-05
1.17681e-05
1.31973e-05
2.78752e-05
2.64849e-05
2.94103e-05
3.14174e-05
3.38374e-05
3.66442e-05
4.17657e-05
5.04975e-05
5.85297e-05
6.10847e-05
4.98231e-05
3.89077e-05
3.40242e-05
3.19772e-05
3.04402e-05
2.84025e-05
2.59047e-05
2.27666e-05
1.89163e-05
1.7666e-05
3.1002e-05
4.3953e-05
5.62365e-05
6.81001e-05
7.98682e-05
9.22059e-05
0.000106263
0.000122491
0.000137712
0.000145836
0.000126078
0.000104305
8.70792e-05
7.37598e-05
6.29632e-05
5.36179e-05
4.49791e-05
3.65918e-05
2.83333e-05
1.97587e-05
3.72429e-06
5.8254e-06
7.41532e-06
8.34785e-06
8.76369e-06
8.99305e-06
9.07476e-06
9.43269e-06
1.03187e-05
1.23333e-05
1.2914e-05
1.29749e-05
1.24871e-05
1.19147e-05
1.10523e-05
1.00324e-05
8.84564e-06
7.46036e-06
5.79808e-06
3.66989e-06
4.61324e-06
4.90085e-06
5.43025e-06
6.06214e-06
6.93088e-06
8.08426e-06
1.00072e-05
1.5385e-05
2.49872e-05
2.97609e-05
2.1205e-05
1.3298e-05
1.00277e-05
8.3889e-06
7.20092e-06
6.23732e-06
5.43045e-06
4.77637e-06
4.29358e-06
3.97558e-06
5.49683e-06
5.50116e-06
6.01625e-06
6.75437e-06
7.76081e-06
9.39558e-06
1.31904e-05
2.40211e-05
3.6266e-05
4.32739e-05
3.17355e-05
1.74254e-05
1.10797e-05
8.66679e-06
7.27466e-06
6.23444e-06
5.3957e-06
4.7517e-06
4.36987e-06
4.3751e-06
6.56581e-06
6.26032e-06
6.83216e-06
7.77995e-06
9.04515e-06
1.14042e-05
1.76879e-05
3.36624e-05
4.45582e-05
5.22937e-05
4.23581e-05
2.20876e-05
1.25475e-05
9.20739e-06
7.64383e-06
6.60096e-06
5.79049e-06
5.1581e-06
4.82675e-06
5.05381e-06
8.13496e-06
7.1142e-06
7.49719e-06
8.68991e-06
1.04216e-05
1.37892e-05
2.27723e-05
4.20429e-05
5.0111e-05
5.76862e-05
5.12186e-05
2.60985e-05
1.38712e-05
9.62534e-06
7.86145e-06
6.87033e-06
6.15366e-06
5.62531e-06
5.49197e-06
6.07054e-06
1.07351e-05
8.31485e-06
7.91382e-06
9.26176e-06
1.16324e-05
1.62296e-05
2.77504e-05
4.72047e-05
5.3012e-05
6.0103e-05
5.67439e-05
2.86953e-05
1.48354e-05
1.00169e-05
8.0819e-06
7.05493e-06
6.41402e-06
6.10647e-06
6.36679e-06
7.61084e-06
1.48361e-05
1.04717e-05
8.98471e-06
1.03879e-05
1.33433e-05
1.89754e-05
3.112e-05
4.86334e-05
5.38838e-05
6.02558e-05
5.82207e-05
2.99279e-05
1.60276e-05
1.13122e-05
9.42991e-06
8.28473e-06
7.46422e-06
7.23563e-06
7.83008e-06
9.90559e-06
2.08059e-05
1.48168e-05
1.35585e-05
1.52456e-05
1.8243e-05
2.3584e-05
3.4216e-05
4.95588e-05
5.63557e-05
6.16893e-05
5.80218e-05
3.21648e-05
2.00901e-05
1.59746e-05
1.42773e-05
1.29329e-05
1.15446e-05
1.05198e-05
1.0707e-05
1.32119e-05
2.80146e-05
2.46753e-05
2.68661e-05
2.94754e-05
3.26575e-05
3.7076e-05
4.5359e-05
5.85297e-05
6.85724e-05
7.2656e-05
6.29087e-05
4.36368e-05
3.44604e-05
3.06168e-05
2.82201e-05
2.56283e-05
2.25988e-05
1.95632e-05
1.68366e-05
1.72162e-05
3.12451e-05
4.45628e-05
5.74472e-05
7.00423e-05
8.32639e-05
9.81723e-05
0.000116351
0.000137712
0.000156102
0.000167749
0.000147171
0.000117009
9.3868e-05
7.70529e-05
6.41647e-05
5.35448e-05
4.42314e-05
3.56087e-05
2.74831e-05
1.93183e-05
3.68434e-06
5.71121e-06
7.36608e-06
8.52321e-06
9.07397e-06
9.42826e-06
9.74987e-06
1.06059e-05
1.23333e-05
1.40451e-05
1.44853e-05
1.42147e-05
1.33315e-05
1.21632e-05
1.10172e-05
9.8659e-06
8.63873e-06
7.27312e-06
5.66163e-06
3.58091e-06
4.65693e-06
4.86256e-06
5.33715e-06
5.93756e-06
6.71639e-06
7.83866e-06
9.68461e-06
1.53419e-05
2.97609e-05
2.35177e-05
2.23937e-05
1.50092e-05
9.83487e-06
8.08464e-06
6.91706e-06
5.98052e-06
5.2048e-06
4.58181e-06
4.14937e-06
3.97731e-06
5.6044e-06
5.63843e-06
6.11612e-06
6.79707e-06
7.75233e-06
9.22876e-06
1.27879e-05
2.5323e-05
4.32739e-05
2.78165e-05
3.36925e-05
2.2304e-05
1.19078e-05
8.77473e-06
7.21767e-06
6.13016e-06
5.27628e-06
4.63515e-06
4.30471e-06
4.44954e-06
6.70326e-06
6.48452e-06
7.12186e-06
8.17332e-06
9.42125e-06
1.15199e-05
1.73839e-05
3.68209e-05
5.22937e-05
3.25487e-05
4.6248e-05
2.79815e-05
1.43235e-05
1.00851e-05
8.19348e-06
6.92608e-06
5.96927e-06
5.23464e-06
4.88521e-06
5.13886e-06
8.23478e-06
7.30743e-06
7.82965e-06
9.1177e-06
1.08253e-05
1.39199e-05
2.23471e-05
4.6519e-05
5.76862e-05
3.82128e-05
5.6611e-05
3.19314e-05
1.61167e-05
1.09455e-05
8.82698e-06
7.57808e-06
6.61126e-06
5.85049e-06
5.584e-06
6.08129e-06
1.0626e-05
8.31818e-06
8.18025e-06
9.60725e-06
1.18406e-05
1.59911e-05
2.67623e-05
5.26261e-05
6.0103e-05
4.37243e-05
6.26822e-05
3.38247e-05
1.70248e-05
1.13143e-05
9.05604e-06
7.79912e-06
6.90372e-06
6.2445e-06
6.29683e-06
7.42197e-06
1.43593e-05
1.00407e-05
9.00464e-06
1.05125e-05
1.31856e-05
1.81511e-05
3.06255e-05
5.39517e-05
6.02558e-05
4.8097e-05
6.4072e-05
3.38589e-05
1.7593e-05
1.20533e-05
9.84423e-06
8.49037e-06
7.45098e-06
6.80541e-06
7.28876e-06
9.37056e-06
1.99092e-05
1.38112e-05
1.27959e-05
1.47029e-05
1.76745e-05
2.2835e-05
3.42288e-05
5.38539e-05
6.16893e-05
5.33615e-05
6.35627e-05
3.45487e-05
2.04772e-05
1.56852e-05
1.35978e-05
1.19241e-05
1.02624e-05
8.98746e-06
9.35996e-06
1.21483e-05
2.65536e-05
2.28395e-05
2.50549e-05
2.83112e-05
3.19232e-05
3.66231e-05
4.5552e-05
6.10847e-05
7.2656e-05
6.76228e-05
6.64288e-05
4.43679e-05
3.36967e-05
2.92128e-05
2.63792e-05
2.33744e-05
1.99133e-05
1.67833e-05
1.45029e-05
1.55558e-05
2.98264e-05
4.27534e-05
5.55683e-05
6.84925e-05
8.24477e-05
9.87931e-05
0.00011975
0.000145836
0.000167749
0.000168869
0.000154157
0.000120174
9.41765e-05
7.57752e-05
6.20108e-05
5.09193e-05
4.14282e-05
3.30116e-05
2.51932e-05
1.76088e-05
3.48414e-06
5.47841e-06
7.19094e-06
8.48547e-06
9.15622e-06
9.4678e-06
9.83659e-06
1.088e-05
1.2914e-05
1.44853e-05
1.42531e-05
1.38602e-05
1.31071e-05
1.20436e-05
1.10043e-05
9.90981e-06
8.70006e-06
7.32454e-06
5.67273e-06
3.50202e-06
4.39299e-06
4.58248e-06
5.12309e-06
5.80865e-06
6.61118e-06
7.62781e-06
9.0215e-06
1.23317e-05
2.1205e-05
2.23937e-05
1.70216e-05
1.12668e-05
8.8705e-06
7.70417e-06
6.77058e-06
5.9516e-06
5.21864e-06
4.57414e-06
4.07351e-06
3.90504e-06
5.27644e-06
5.41184e-06
5.84962e-06
6.43485e-06
7.24207e-06
8.36632e-06
1.05695e-05
1.70513e-05
3.17355e-05
3.36925e-05
2.42586e-05
1.48024e-05
9.7466e-06
7.87849e-06
6.79808e-06
5.92652e-06
5.163e-06
4.51393e-06
4.10719e-06
4.26321e-06
6.38065e-06
6.556e-06
7.20031e-06
8.01612e-06
8.79005e-06
9.99195e-06
1.31877e-05
2.31382e-05
4.23581e-05
4.6248e-05
3.2187e-05
1.84363e-05
1.15779e-05
9.10731e-06
7.78141e-06
6.75666e-06
5.87635e-06
5.09471e-06
4.62163e-06
4.8436e-06
7.83258e-06
7.41762e-06
8.21937e-06
9.38689e-06
1.04033e-05
1.18556e-05
1.61212e-05
2.91318e-05
5.12186e-05
5.6611e-05
3.86193e-05
2.14351e-05
1.32364e-05
1.03616e-05
8.99854e-06
7.95171e-06
6.92842e-06
5.9518e-06
5.38046e-06
5.67182e-06
1.00836e-05
8.2225e-06
8.46868e-06
9.80832e-06
1.13261e-05
1.34589e-05
1.87736e-05
3.39655e-05
5.67439e-05
6.26822e-05
4.24937e-05
2.32124e-05
1.42011e-05
1.10281e-05
9.57808e-06
8.55786e-06
7.58071e-06
6.52863e-06
6.02903e-06
6.84419e-06
1.36816e-05
9.66164e-06
8.94921e-06
1.04051e-05
1.23902e-05
1.51925e-05
2.13875e-05
3.73208e-05
5.82207e-05
6.4072e-05
4.37617e-05
2.40089e-05
1.49966e-05
1.17108e-05
1.00765e-05
8.83731e-06
7.6987e-06
6.70032e-06
6.72199e-06
8.59651e-06
1.90526e-05
1.33029e-05
1.22216e-05
1.42961e-05
1.68455e-05
2.00605e-05
2.63645e-05
4.01209e-05
5.80218e-05
6.35627e-05
4.4899e-05
2.62231e-05
1.82501e-05
1.52647e-05
1.34608e-05
1.164e-05
9.71009e-06
8.11312e-06
8.37157e-06
1.11553e-05
2.54292e-05
2.2074e-05
2.44477e-05
2.82968e-05
3.18805e-05
3.51039e-05
4.0052e-05
4.98231e-05
6.29087e-05
6.64288e-05
5.17767e-05
3.80092e-05
3.18538e-05
2.89076e-05
2.63198e-05
2.30712e-05
1.91501e-05
1.54595e-05
1.31556e-05
1.44167e-05
2.87491e-05
4.07318e-05
5.25608e-05
6.44482e-05
7.66965e-05
9.00612e-05
0.000106098
0.000126078
0.000147171
0.000154157
0.000129957
0.000103923
8.4253e-05
6.95215e-05
5.78142e-05
4.78879e-05
3.90379e-05
3.10282e-05
2.36568e-05
1.66538e-05
3.15479e-06
5.23418e-06
7.01907e-06
8.33837e-06
8.94934e-06
9.26008e-06
9.78428e-06
1.10208e-05
1.29749e-05
1.42147e-05
1.38602e-05
1.33602e-05
1.25433e-05
1.17872e-05
1.10299e-05
1.01339e-05
9.01923e-06
7.63793e-06
5.88831e-06
3.47879e-06
3.96587e-06
4.23282e-06
4.92394e-06
5.75324e-06
6.64113e-06
7.60343e-06
8.66343e-06
1.02982e-05
1.3298e-05
1.50092e-05
1.12668e-05
9.04503e-06
8.16279e-06
7.432e-06
6.74575e-06
6.07716e-06
5.42315e-06
4.79245e-06
4.2167e-06
3.84762e-06
4.61041e-06
4.62685e-06
5.14619e-06
5.83539e-06
6.66288e-06
7.63066e-06
8.95566e-06
1.16002e-05
1.74254e-05
2.2304e-05
1.48024e-05
9.88622e-06
7.94489e-06
6.98584e-06
6.28238e-06
5.6371e-06
5.01522e-06
4.43502e-06
3.98657e-06
3.99978e-06
5.57138e-06
5.49245e-06
5.99402e-06
6.66042e-06
7.37009e-06
8.26871e-06
9.91998e-06
1.38287e-05
2.20876e-05
2.79815e-05
1.84363e-05
1.16927e-05
8.73143e-06
7.38561e-06
6.55946e-06
5.86923e-06
5.2023e-06
4.56608e-06
4.13644e-06
4.41977e-06
7.06892e-06
6.75153e-06
7.4074e-06
8.15052e-06
8.64709e-06
9.3511e-06
1.1224e-05
1.62297e-05
2.60985e-05
3.19314e-05
2.14351e-05
1.34758e-05
9.78732e-06
8.22069e-06
7.34354e-06
6.5713e-06
5.80079e-06
5.06508e-06
4.65265e-06
5.19767e-06
9.33042e-06
7.80764e-06
8.3193e-06
9.34761e-06
9.97232e-06
1.06301e-05
1.26419e-05
1.83118e-05
2.86953e-05
3.38247e-05
2.32124e-05
1.473e-05
1.07176e-05
9.08959e-06
8.25208e-06
7.50964e-06
6.64828e-06
5.74073e-06
5.37939e-06
6.34634e-06
1.28442e-05
9.2201e-06
8.73522e-06
1.0047e-05
1.13441e-05
1.25487e-05
1.47115e-05
2.04077e-05
2.99279e-05
3.38589e-05
2.40089e-05
1.58382e-05
1.1997e-05
1.03946e-05
9.42047e-06
8.46968e-06
7.43505e-06
6.37813e-06
6.1706e-06
8.02891e-06
1.79188e-05
1.28294e-05
1.17126e-05
1.39475e-05
1.62069e-05
1.79907e-05
2.0206e-05
2.49705e-05
3.21648e-05
3.45487e-05
2.62231e-05
1.9244e-05
1.60989e-05
1.45966e-05
1.31938e-05
1.14404e-05
9.46633e-06
7.73912e-06
7.81204e-06
1.05029e-05
2.39975e-05
2.12198e-05
2.39428e-05
2.83189e-05
3.20052e-05
3.41767e-05
3.58512e-05
3.89077e-05
4.36368e-05
4.43679e-05
3.80092e-05
3.27753e-05
3.02004e-05
2.83933e-05
2.60753e-05
2.28419e-05
1.88802e-05
1.50807e-05
1.25908e-05
1.37282e-05
2.73275e-05
3.82538e-05
4.90216e-05
5.9727e-05
7.01649e-05
8.05525e-05
9.17127e-05
0.000104305
0.000117009
0.000120174
0.000103923
8.73422e-05
7.37102e-05
6.25878e-05
5.31231e-05
4.46513e-05
3.67661e-05
2.94071e-05
2.25452e-05
1.60108e-05
2.93522e-06
5.04839e-06
6.80446e-06
7.9603e-06
8.46925e-06
8.96051e-06
9.84011e-06
1.11683e-05
1.24871e-05
1.33315e-05
1.31071e-05
1.25433e-05
1.19414e-05
1.13949e-05
1.08547e-05
1.01551e-05
9.14048e-06
7.71955e-06
5.82462e-06
3.42392e-06
3.77907e-06
4.21916e-06
5.01398e-06
5.89916e-06
6.80288e-06
7.67455e-06
8.50063e-06
9.32308e-06
1.00277e-05
9.83487e-06
8.8705e-06
8.16279e-06
7.70872e-06
7.29521e-06
6.83446e-06
6.30775e-06
5.7275e-06
5.11211e-06
4.48918e-06
3.96512e-06
4.24082e-06
4.37176e-06
4.94698e-06
5.67987e-06
6.49558e-06
7.32363e-06
8.18269e-06
9.32166e-06
1.10797e-05
1.19078e-05
9.7466e-06
7.94489e-06
7.04095e-06
6.52113e-06
6.08903e-06
5.63786e-06
5.15833e-06
4.67152e-06
4.21221e-06
3.94861e-06
4.94659e-06
4.7384e-06
5.14194e-06
5.75652e-06
6.46376e-06
7.24189e-06
8.22994e-06