/*--------------------------------*- C++ -*----------------------------------*\
  =========                 |
  \\      /  F ield         | OpenFOAM: The Open Source CFD Toolbox
   \\    /   O peration     | Website:  https://openfoam.org
    \\  /    A nd           | Version:  9
     \\/     M anipulation  |
\*---------------------------------------------------------------------------*/
FoamFile
{
    format      ascii;
    class       volScalarField;
    location    "200";
    object      nut;
}
// * * * * * * * * * * * * * * * * * * * * * * * * * * * * * * * * * * * * * //

dimensions      [0 2 -1 0 0 0 0];

internalField   nonuniform List<scalar> 
4000
(
0.000499441
0.000533348
0.00058099
0.000621719
0.000653629
0.000677273
0.000694495
0.000705246
0.000709942
0.000704539
0.00068562
0.000661484
0.00064531
0.000631515
0.000622751
0.000615219
0.000607283
0.000596165
0.000580784
0.000562033
0.000520053
0.000563453
0.000604199
0.000649239
0.000688827
0.000719741
0.00074076
0.000758651
0.000770901
0.000767791
0.000743774
0.000717242
0.000706627
0.000699566
0.000686573
0.000673168
0.000659258
0.000640903
0.000613464
0.000570318
0.000540727
0.000600913
0.000645867
0.000685566
0.000722821
0.000756797
0.000784643
0.00080882
0.000823625
0.000821518
0.000794182
0.000754307
0.000737197
0.000730482
0.000725372
0.000713576
0.000694093
0.000665902
0.000625451
0.00057252
0.000553854
0.000627437
0.000681958
0.000725094
0.000761631
0.000794967
0.000830049
0.000861711
0.00087864
0.000875014
0.000849823
0.000804784
0.000775525
0.000759885
0.000743098
0.000728901
0.00070846
0.000674989
0.000627511
0.000570092
0.00055806
0.000635998
0.000697536
0.000743733
0.000785442
0.000837018
0.000892143
0.000933381
0.00094873
0.00093989
0.000913684
0.00087654
0.00084582
0.000822215
0.000790736
0.000749809
0.000715687
0.000676575
0.000624791
0.00056584
0.000556879
0.000631284
0.000695376
0.000755731
0.00083563
0.000925332
0.000998203
0.00103931
0.00104461
0.00102717
0.00100113
0.000972057
0.000946655
0.000926332
0.000894842
0.000828645
0.000757789
0.000693226
0.000628168
0.000563322
0.00055783
0.000632637
0.000716697
0.000832194
0.000965368
0.00107114
0.00114026
0.00117013
0.00116371
0.00114025
0.00111831
0.00109457
0.00107141
0.00104844
0.00101812
0.0009648
0.000873983
0.000762782
0.000657533
0.00057001
0.000573611
0.000672398
0.000819464
0.000998878
0.00113678
0.0012244
0.0012823
0.00130704
0.00129976
0.00127374
0.00125415
0.00122983
0.00120215
0.00117314
0.00113979
0.00109173
0.00101266
0.000887929
0.000735165
0.000598175
0.000621476
0.000782887
0.000995721
0.00117116
0.00128708
0.00136682
0.00141536
0.00143541
0.00142816
0.00139935
0.0013798
0.00135537
0.00132648
0.00129379
0.00125496
0.00120419
0.00113061
0.00101467
0.00084444
0.000650496
0.000708542
0.000947806
0.00116613
0.00129939
0.00137738
0.00142673
0.00145744
0.00147291
0.00147299
0.0014498
0.00143297
0.0014105
0.0013843
0.00135478
0.0013209
0.00127929
0.00122113
0.00112544
0.000959768
0.00072383
0.000533348
0.000571738
0.000621907
0.000678247
0.000726595
0.000763522
0.000794398
0.000810096
0.000813096
0.000805483
0.000788305
0.000771659
0.000758837
0.000732416
0.000710011
0.000699818
0.000689832
0.000671972
0.00064724
0.000609023
0.000563453
0.00113952
0.00139861
0.00165544
0.00192549
0.00214188
0.00218441
0.0021236
0.00202688
0.00193419
0.00183527
0.00176933
0.00186429
0.00204194
0.00206366
0.0019666
0.0018645
0.00171773
0.00137925
0.000634986
0.000600913
0.00160824
0.00206558
0.00239789
0.00267757
0.00286886
0.00284203
0.00270044
0.00254092
0.00241663
0.00225369
0.00200349
0.00196383
0.00216791
0.00246047
0.0025889
0.00252965
0.00227678
0.00171253
0.000648134
0.000627437
0.00189975
0.0025409
0.00292601
0.0031531
0.00318995
0.00308174
0.00292946
0.00280461
0.00273186
0.00263177
0.00221338
0.00193232
0.00198279
0.002243
0.00252783
0.00261172
0.0024034
0.00179597
0.000646246
0.000635998
0.00195863
0.00265322
0.00297999
0.00304859
0.00297049
0.00286246
0.00279596
0.00279148
0.00283359
0.00283526
0.00250225
0.00197201
0.00182299
0.00192547
0.00214961
0.00231556
0.0022211
0.00170688
0.000633907
0.000631284
0.00180497
0.0023574
0.00250492
0.00245703
0.00239311
0.00240789
0.0025148
0.00267537
0.00283631
0.00291278
0.00272013
0.00217898
0.00182144
0.00173562
0.00179224
0.00191089
0.00190328
0.00154023
0.000619882
0.000632637
0.00155971
0.00188843
0.00190436
0.00188904
0.001989
0.002223
0.00253722
0.00284488
0.00306678
0.00314502
0.00297747
0.0025489
0.00211605
0.00181346
0.00164657
0.00160685
0.00159064
0.00136905
0.000618225
0.000672398
0.00133669
0.0015199
0.00158401
0.00176364
0.00212483
0.00259226
0.00304169
0.00336205
0.00350273
0.00347614
0.00329771
0.00296925
0.00259027
0.00216423
0.0017916
0.00153546
0.00139553
0.00122991
0.00064471
0.000782887
0.00121784
0.00142676
0.00166204
0.00206708
0.00259487
0.00306789
0.0033925
0.00358673
0.00357156
0.00342452
0.00325177
0.00302953
0.00274876
0.00239952
0.0020023
0.00163467
0.00136533
0.00114847
0.000715244
0.000947806
0.00117732
0.00134778
0.00145742
0.00153478
0.00159064
0.00162765
0.00164878
0.00165375
0.00163178
0.00160681
0.00157513
0.001539
0.00149957
0.00145602
0.00140501
0.00134006
0.00124477
0.0010807
0.000821621
0.00058099
0.000621907
0.000652324
0.000703264
0.00076227
0.000809476
0.000841721
0.000867386
0.000876312
0.000872608
0.000860891
0.000849555
0.000836587
0.000806651
0.000782136
0.000772717
0.000760211
0.000736699
0.00070069
0.000645257
0.000604199
0.00139861
0.00166714
0.00193579
0.00232275
0.00273924
0.00303465
0.00306656
0.00298216
0.00285665
0.00272678
0.00267795
0.00279855
0.0029597
0.0028929
0.00271782
0.00254653
0.0022964
0.00176745
0.000683289
0.000645867
0.00206558
0.00270659
0.00315108
0.00358846
0.00397666
0.0042004
0.00419228
0.00404213
0.00381521
0.00350516
0.00321927
0.0032182
0.00348345
0.00376869
0.00381972
0.00363578
0.0031698
0.00225972
0.000701929
0.000681958
0.0025409
0.00353242
0.00412918
0.00454105
0.00479043
0.0048667
0.0047941
0.00465562
0.00446823
0.00412082
0.00351037
0.00317856
0.00328714
0.00363129
0.00391494
0.00388545
0.00342419
0.00240151
0.000701736
0.000697536
0.00265322
0.00380335
0.00442315
0.00472096
0.00482608
0.0048359
0.00481788
0.00479958
0.00474805
0.00453612
0.00386551
0.00310857
0.00291385
0.00309276
0.00337867
0.00349094
0.00318653
0.0022812
0.000686815
0.000695376
0.00235741
0.00328619
0.0036996
0.00386369
0.0039655
0.00410715
0.00431055
0.00453508
0.00469592
0.00464827
0.00418553
0.0032226
0.00266813
0.0025746
0.00268203
0.00279816
0.00266592
0.00201416
0.000669969
0.000716697
0.00188843
0.00242576
0.00261933
0.00275584
0.00299399
0.00339162
0.00389206
0.00439323
0.004742
0.00479615
0.00445342
0.00372232
0.00290808
0.0024474
0.00224482
0.00217676
0.00208935
0.00170424
0.000674972
0.000819464
0.0015199
0.00183707
0.00208717
0.00248458
0.00306777
0.0038405
0.00457607
0.00504936
0.00525285
0.0052075
0.00490993
0.00439104
0.00372585
0.00301158
0.00241055
0.0019901
0.00173324
0.0014525
0.0007274
0.000995721
0.00142676
0.00179883
0.00234992
0.00318782
0.00405294
0.0047375
0.00510254
0.00517575
0.00513001
0.00503522
0.00485955
0.00459868
0.00419877
0.00361781
0.00291532
0.00222154
0.00170829
0.00135546
0.000847787
0.00116613
0.00134778
0.00148216
0.00158231
0.001661
0.00172009
0.00175981
0.00178614
0.00179722
0.00177903
0.0017476
0.00170889
0.00166519
0.00161825
0.00156827
0.00151079
0.00144092
0.00135024
0.00121434
0.000990682
0.000621719
0.000678247
0.000703264
0.000715628
0.000766691
0.000823811
0.00086638
0.000892852
0.000909449
0.000913962
0.000908754
0.000899462
0.000882839
0.000856503
0.000840049
0.000834851
0.000820931
0.00079215
0.000746154
0.00067119
0.000649239
0.00165544
0.00193579
0.00201927
0.00226875
0.00271021
0.00318783
0.00352904
0.00355844
0.00349556
0.00340705
0.00339561
0.00350048
0.00357435
0.00345926
0.00331442
0.00314472
0.00280048
0.00205925
0.000716571
0.000685566
0.00239789
0.00315108
0.0035121
0.00385912
0.00428604
0.00470163
0.0049829
0.00505578
0.00488029
0.00457108
0.00432896
0.00434761
0.00455946
0.00472413
0.00468859
0.00441028
0.00377061
0.0025926
0.000735971
0.000725094
0.00292601
0.00412918
0.00478443
0.00521246
0.00554453
0.00579197
0.0059354
0.00596209
0.0058165
0.00536401
0.00473878
0.00442332
0.00451328
0.00477604
0.00491141
0.00469734
0.0040077
0.00271113
0.000735798
0.000743733
0.00297999
0.00442315
0.00528107
0.00577259
0.00606175
0.0062441
0.00635952
0.00640647
0.00631411
0.00593171
0.00507672
0.0042897
0.00404549
0.00416746
0.00432923
0.00423748
0.00368561
0.0025268
0.00072167
0.000755731
0.00250492
0.0036996
0.00448407
0.00505228
0.00549038
0.00585832
0.00618634
0.00642538
0.00647822
0.00620753
0.00546677
0.00431259
0.00360529
0.00342194
0.00343412
0.00337665
0.00301853
0.00216734
0.000714522
0.000832194
0.00190436
0.00261933
0.003142
0.00366053
0.00432746
0.00512002
0.00585942
0.00637854
0.00658771
0.00642458
0.00583844
0.00487531
0.00377016
0.0031288
0.00281682
0.00259897
0.00231345
0.00177471
0.000749255
0.000998878
0.00158401
0.00208717
0.00265296
0.00338551
0.00437516
0.00543346
0.00618911
0.00659943
0.00673427
0.00660673
0.00619893
0.00555479
0.00479207
0.00393203
0.00310987
0.00247583
0.00198771
0.00153158
0.000848146
0.00117116
0.00166204
0.00234992
0.00339208
0.00456391
0.00532963
0.00574875
0.00597899
0.00606039
0.00602671
0.00593683
0.00574594
0.00545106
0.00509434
0.00467326
0.00392466
0.00297607
0.00213417
0.00154197
0.00100238
0.00129939
0.00145742
0.00158231
0.0016821
0.00176273
0.00182678
0.00187074
0.00190046
0.00191813
0.00190622
0.00186918
0.0018236
0.00177281
0.00171885
0.00166149
0.00159707
0.00152216
0.00143083
0.00130958
0.00112804
0.000653629
0.000726595
0.00076227
0.000766691
0.000761222
0.000810344
0.000867424
0.000906507
0.000927615
0.000934194
0.000932487
0.000923227
0.000910495
0.000897407
0.000895009
0.000890134
0.000873997
0.000842844
0.000784269
0.000689974
0.000688827
0.00192549
0.00232275
0.00226875
0.00217004
0.00238521
0.00289523
0.00343512
0.00379353
0.00391652
0.00388647
0.00389601
0.00393356
0.00392645
0.00388148
0.00382957
0.00365972
0.0031525
0.00221591
0.000734905
0.000722821
0.00267757
0.00358846
0.00385912
0.00391551
0.00411731
0.00455428
0.00507738
0.00548592
0.00557655
0.0054062
0.0052346
0.00523193
0.00533862
0.00540192
0.00529805
0.00490993
0.00408718
0.00270669
0.000750961
0.000761631
0.0031531
0.00454105
0.00521246
0.00551485
0.00572789
0.00599776
0.00632081
0.00659653
0.00664035
0.00629598
0.00579998
0.00552508
0.00553761
0.00563917
0.00557143
0.00514296
0.00423911
0.00276814
0.000751464
0.000785442
0.00304859
0.00472096
0.00577259
0.00634685
0.0066861
0.0069377
0.00716117
0.00733269
0.00732316
0.00692449
0.00611566
0.00540183
0.00509249
0.0050598
0.00499249
0.00463671
0.00384108
0.00253116
0.000747827
0.00083563
0.00245703
0.00386369
0.00505228
0.00595032
0.00661609
0.00712654
0.00749501
0.00771225
0.00771141
0.00734172
0.00647709
0.00535726
0.00455559
0.00420873
0.00402023
0.0037117
0.00310941
0.00213268
0.000769433
0.000965368
0.00188904
0.00275584
0.00366053
0.00474172
0.0058924
0.00688658
0.00754816
0.00787828
0.00792772
0.00763139
0.0069207
0.00587002
0.00466733
0.00383682
0.0033431
0.00292883
0.00242767
0.00176083
0.000847386
0.00113678
0.00176364
0.00248458
0.00338551
0.00460018
0.00598265
0.00702993
0.00758625
0.00780621
0.00784958
0.00767067
0.00719364
0.00648157
0.00565614
0.00478833
0.00384486
0.00301063
0.00229275
0.00164172
0.00097618
0.00128708
0.00206708
0.00318782
0.00456391
0.00548462
0.00611568
0.00653637
0.0067267
0.00678062
0.00674209
0.00663249
0.00640979
0.00608803
0.00570602
0.00527957
0.00473947
0.00377761
0.00269048
0.00180755
0.00112527
0.00137738
0.00153478
0.001661
0.00176273
0.00184848
0.00191356
0.00196347
0.00200214
0.00203109
0.00202758
0.00198036
0.00192328
0.00186254
0.00180041
0.00173635
0.00166627
0.00158538
0.00149109
0.00137274
0.00121127
0.000677273
0.000763522
0.000809476
0.000823811
0.000810344
0.000792119
0.000845417
0.000904988
0.000939692
0.000951845
0.000951194
0.000944401
0.000937974
0.000937798
0.000941832
0.000934672
0.00091736
0.000876588
0.000808409
0.000701344
0.000719741
0.00214188
0.00273924
0.00271021
0.00238521
0.00214351
0.00243525
0.00307725
0.00365511
0.00395765
0.00404465
0.00406889
0.00410766
0.00416666
0.00423344
0.00420496
0.00386705
0.00321998
0.00218799
0.000737182
0.000756797
0.00286886
0.00397666
0.00428604
0.00411731
0.00388682
0.00407172
0.00472053
0.00546138
0.00584615
0.00588223
0.00580873
0.00580278
0.0058529
0.0058476
0.00563936
0.00507049
0.00407324
0.00259327
0.000749582
0.000794967
0.00318995
0.00479043
0.00554453
0.00572789
0.00566963
0.00574096
0.00613082
0.00668858
0.00703618
0.00694134
0.00662164
0.00638191
0.00629052
0.00620946
0.00592324
0.00526574
0.0041717
0.00262492
0.000759516
0.000837018
0.00297049
0.00482608
0.00606175
0.0066861
0.00694251
0.00707567
0.00728561
0.00761429
0.0078318
0.00762358
0.0070078
0.00638182
0.00597682
0.00573127
0.00539957
0.0047736
0.00376885
0.0023969
0.000781246
0.000925332
0.00239311
0.0039655
0.00549038
0.00661609
0.00736451
0.00779778
0.00803575
0.00823917
0.00835184
0.00809646
0.00732841
0.00632709
0.00546691
0.00490298
0.00446169
0.00389215
0.00308203
0.00204499
0.000838947
0.00107114
0.001989
0.00299399
0.00432746
0.0058924
0.00722469
0.00805573
0.00838554
0.00851374
0.00861559
0.00840502
0.00774148
0.00671516
0.00553211
0.00455938
0.00383206
0.00321644
0.00254504
0.00179268
0.000944783
0.0012244
0.00212483
0.00306777
0.00437516
0.00598265
0.00734613
0.00812079
0.00836335
0.00840913
0.00848024
0.0083735
0.00790605
0.00717913
0.00633407
0.00545325
0.00451636
0.00354674
0.00266362
0.00185434
0.00107804
0.00136682
0.00259487
0.00405294
0.00532963
0.00611568
0.00674193
0.0071051
0.00725503
0.00731176
0.00730299
0.00715644
0.00686897
0.00651297
0.00611301
0.00566874
0.00516072
0.0044078
0.00325222
0.00214053
0.00120385
0.00142673
0.00159064
0.00172009
0.00182678
0.00191356
0.00198471
0.00204532
0.00210043
0.00214748
0.00215601
0.00209103
0.00201482
0.00193869
0.00186484
0.00179187
0.00171558
0.0016284
0.00153095
0.00141134
0.00125536
0.000694495
0.000794398
0.000841721
0.00086638
0.000867424
0.000845417
0.000826102
0.000891219
0.000947633
0.000968671
0.000971283
0.000971116
0.000974867
0.000980738
0.000976587
0.000965936
0.000936864
0.000888256
0.000815651
0.000704533
0.00074076
0.00218441
0.00303465
0.00318783
0.00289523
0.00243525
0.00219038
0.00268186
0.0033862
0.00384471
0.00404882
0.00415405
0.00427655
0.00442125
0.00448709
0.00426423
0.00380329
0.00307245
0.00203329
0.000730003
0.000784643
0.00284203
0.0042004
0.00470163
0.00455428
0.00407172
0.00374699
0.00422984
0.00515853
0.00580958
0.00608834
0.00615988
0.00619131
0.00620172
0.00608449
0.00568476
0.00493145
0.00380472
0.0023404
0.000746692
0.000830049
0.00308174
0.0048667
0.00579197
0.00599776
0.00574096
0.0054268
0.00563914
0.00645186
0.00709431
0.00731378
0.00721685
0.00701949
0.00681589
0.00653345
0.00601327
0.00514029
0.00390849
0.00238608
0.000776688
0.000892143
0.00286246
0.0048359
0.0062441
0.0069377
0.00707567
0.00691154
0.00691262
0.00746954
0.00800524
0.00809188
0.00774547
0.00721081
0.00669035
0.0062032
0.00560938
0.00474279
0.00358865
0.00223192
0.000824063
0.000998203
0.00240789
0.00410715
0.00585832
0.00712654
0.00779778
0.00793251
0.00786433
0.00816819
0.0086321
0.00860813
0.00808135
0.00722516
0.00631049
0.00551655
0.00479995
0.00399875
0.00303952
0.00199457
0.000902929
0.00114026
0.002223
0.00339162
0.00512002
0.00688658
0.00805573
0.00847997
0.00840213
0.00853273
0.00890246
0.00892376
0.00840875
0.00748496
0.00634617
0.0052536
0.00430594
0.00348872
0.00269654
0.00189938
0.00101223
0.0012823
0.00259226
0.0038405
0.00543346
0.00702993
0.00812079
0.00855402
0.00855971
0.00860788
0.00886498
0.00887244
0.0084334
0.00771786
0.00686233
0.00595477
0.00501159
0.00401535
0.00302904
0.00211245
0.00113353
0.00141536
0.00306789
0.0047375
0.00574875
0.00653637
0.0071051
0.00743196
0.0076256
0.00777467
0.00787612
0.007657
0.00722225
0.00678516
0.00634945
0.00588112
0.0053562
0.00474133
0.00366377
0.00243495
0.00124297
0.00145744
0.00162765
0.00175981
0.00187074
0.00196347
0.00204532
0.00212457
0.00220536
0.00227768
0.00230427
0.00221271
0.00210689
0.00200779
0.00191712
0.00183165
0.00174617
0.00165396
0.00155107
0.00142903
0.00127382
0.000705246
0.000810096
0.000867386
0.000892852
0.000906507
0.000904988
0.000891219
0.00089191
0.000966511
0.0010038
0.00101235
0.00101627
0.0010185
0.00101175
0.000999474
0.000974329
0.000936295
0.000883864
0.000811033
0.000701669
0.000758651
0.0021236
0.00306656
0.00352904
0.00343512
0.00307725
0.00268186
0.00252176
0.00310051
0.00374455
0.00413513
0.00441393
0.00460777
0.00467934
0.00448611
0.00413395
0.00358894
0.00283012
0.00185702
0.000727111
0.00080882
0.00270044
0.00419228
0.0049829
0.00507738
0.00472053
0.00422984
0.00397763
0.00470821
0.00568247
0.00616643
0.0064638
0.00655122
0.00645619
0.0061308
0.00551835
0.00461397
0.00343395
0.00208519
0.000757051
0.000861711
0.00292946
0.0047941
0.0059354
0.00632081
0.00613082
0.00563914
0.00528061
0.00595037
0.00702133
0.00749614
0.00762982
0.0075057
0.00718326
0.00668111
0.00592843
0.0048825
0.00358617
0.00216588
0.000800519
0.000933381
0.00279596
0.00481788
0.00635952
0.00716117
0.00728561
0.00691262
0.00645906
0.00695839
0.00799867
0.00841974
0.0082874
0.00786731
0.00725384
0.00653719
0.00569664
0.00464555
0.00340746
0.00211372
0.000859059
0.00103931
0.0025148
0.00431055
0.00618634
0.00749501
0.00803575
0.00786433
0.00743509
0.00773201
0.00867019
0.00903696
0.0086762
0.0079844
0.00705568
0.00606486
0.00509204
0.00409853
0.00303836
0.00200878
0.000939898
0.00117013
0.00253722
0.00389206
0.00585942
0.00754816
0.00838554
0.00840213
0.0081163
0.00825571
0.00903779
0.00937641
0.00893772
0.00815819
0.00708009
0.00589694
0.00477064
0.00375964
0.00286718
0.00204643
0.0010392
0.00130704
0.00304169
0.00457607
0.00618911
0.00758625
0.00836335
0.00855971
0.00852786
0.00861913
0.00918648
0.00940975
0.00887688
0.00815048
0.00728035
0.00632801
0.00534552
0.00435356
0.00331675
0.00232867
0.00114812
0.00143541
0.0033925
0.00510254
0.00597899
0.0067267
0.00725503
0.0076256
0.00795826
0.00821986
0.00852389
0.00829379
0.0075967
0.00699116
0.00647349
0.00595916
0.00539971
0.00478244
0.00387546
0.00260739
0.00124706
0.00147291
0.00164878
0.00178614
0.00190046
0.00200214
0.00210043
0.00220536
0.00231823
0.00241749
0.00246848
0.00235034
0.00220399
0.00207326
0.00196019
0.00185854
0.00176124
0.00166128
0.00155214
0.00142772
0.00127317
0.000709942
0.000813096
0.000876312
0.000909449
0.000927615
0.000939692
0.000947633
0.000966511
0.000999796
0.00106122
0.00107525
0.00107363
0.00105632
0.00103491
0.00100492
0.000969445
0.000926646
0.000873221
0.000802271
0.000697392
0.000770901
0.00202688
0.00298216
0.00355844
0.00379353
0.00365511
0.0033862
0.00310051
0.00260674
0.00306733
0.00388535
0.00473747
0.00494118
0.00471338
0.00438626
0.00394217
0.00335597
0.00261702
0.00173491
0.000730895
0.000823625
0.00254092
0.00404213
0.00505578
0.00548592
0.00546138
0.00515853
0.00470821
0.00387659
0.00448694
0.00579664
0.00671541
0.00685099
0.00659303
0.0060314
0.00525937
0.00427402
0.003122
0.00192163
0.00076864
0.00087864
0.00280461
0.00465562
0.00596209
0.00659653
0.00668858
0.00645186
0.00595037
0.00501138
0.00569226
0.00728929
0.00792021
0.00781926
0.00739477
0.00669897
0.00576253
0.00461726
0.00333134
0.00204002
0.000813664
0.00094873
0.00279148
0.00479958
0.00640647
0.00733269
0.00761429
0.00746954
0.00695839
0.00602183
0.00673316
0.00842797
0.00868348
0.00828234
0.00762787
0.00675246
0.00573195
0.0045684
0.00330432
0.00208094
0.00087013
0.00104461
0.00267537
0.00453508
0.00642538
0.00771225
0.00823917
0.00816819
0.00773201
0.0068836
0.00759321
0.00921603
0.00913391
0.00848013
0.0075983
0.00651209
0.00536998
0.00423485
0.00310516
0.00207965
0.000941712
0.00116371
0.00284488
0.00439323
0.00637854
0.00787828
0.00851374
0.00853273
0.00825571
0.00760165
0.00826555
0.00966822
0.00935405
0.0086009
0.00762577
0.00642966
0.00519685
0.00404276
0.00304229
0.00218837
0.00102745
0.00129976
0.00336205
0.00504936
0.00659943
0.00780621
0.00840913
0.00860788
0.00861913
0.00829932
0.00884766
0.00982733
0.00924418
0.00844739
0.0075791
0.006595
0.00556239
0.00453482
0.00350748
0.00245958
0.00112521
0.00142816
0.00358673
0.00517575
0.00606039
0.00678062
0.00731176
0.00777467
0.00821986
0.00840328
0.00878308
0.00888551
0.00796612
0.00716165
0.00653875
0.00596279
0.00535523
0.00470208
0.003978
0.00266496
0.00121979
0.00147299
0.00165375
0.00179722
0.00191813
0.00203109
0.00214748
0.00227768
0.00241749
0.00252995
0.0025939
0.00248275
0.00229601
0.00212992
0.00199192
0.00187253
0.00176196
0.00165229
0.00153669
0.00140933
0.00125589
0.000704539
0.000805483
0.000872608
0.000913962
0.000934194
0.000951845
0.000968671
0.0010038
0.00106122
0.00110456
0.00111425
0.00110504
0.00107763
0.00104099
0.00100345
0.000963887
0.000919034
0.000865015
0.000794727
0.000691636
0.000767791
0.00193419
0.00285665
0.00349556
0.00391652
0.00395765
0.00384471
0.00374455
0.00306733
0.00218551
0.00316704
0.00502245
0.00497
0.00466346
0.00427729
0.00379966
0.00321736
0.00251863
0.00169762
0.000727717
0.000821518
0.00241663
0.00381521
0.00488029
0.00557655
0.00584615
0.00580958
0.00568247
0.00448694
0.00332349
0.00529987
0.00704556
0.0069372
0.00650535
0.00582305
0.00499741
0.00403351
0.00297414
0.00189114
0.000763428
0.000875014
0.00273186
0.00446823
0.0058165
0.00664035
0.00703618
0.00709431
0.00702133
0.00569226
0.00457059
0.00710859
0.00822302
0.00789775
0.00735904
0.00655469
0.00555258
0.00441979
0.00321839
0.00204364
0.000804696
0.00093989
0.00283359
0.00474805
0.00631411
0.00732316
0.0078318
0.00800524
0.00799867
0.00673316
0.00583407
0.00846297
0.00895799
0.00840309
0.00770319
0.00677066
0.00569753
0.00452917
0.0033098
0.00214584
0.000854084
0.00102717
0.00283631
0.00469592
0.00647822
0.00771141
0.00835184
0.0086321
0.00867019
0.00759321
0.0069963
0.00936572
0.00937371
0.00863761
0.00778736
0.00671794
0.0055535
0.00438086
0.00323814
0.00219353
0.000915472
0.00114025
0.00306678
0.004742
0.00658771
0.00792772
0.00861559
0.00890246
0.00903779
0.00826555
0.00797182
0.00986596
0.00953766
0.00873362
0.00783292
0.006708
0.00548975
0.00429601
0.00321252
0.00229357
0.000991117
0.00127374
0.00350273
0.00525285
0.00673427
0.00784958
0.00848024
0.00886498
0.00918648
0.00884766
0.00879645
0.0100364
0.00940342
0.00854882
0.00769279
0.00672312
0.00568141
0.00462377
0.0035967
0.00251032
0.00108109
0.00139935
0.00357156
0.00513001
0.00602671
0.00674209
0.00730299
0.00787612
0.00852389
0.00878308
0.00887008
0.0091045
0.00807728
0.00718638
0.00652509
0.00592573
0.0052902
0.00459791
0.00386639
0.00262104
0.00117089
0.0014498
0.00163178
0.00177903
0.00190622
0.00202758
0.00215601
0.00230427
0.00246848
0.0025939
0.00259521
0.00252678
0.00232217
0.00213682
0.00198447
0.00185421
0.00173489
0.00161815
0.00149843
0.00136782
0.00121403
0.00068562
0.000788305
0.000860891
0.000908754
0.000932487
0.000951194
0.000971283
0.00101235
0.00107525
0.00111425
0.0011059
0.00109333
0.00107034
0.00103678
0.00100265
0.00096505
0.000920686
0.000865833
0.000793074
0.000684222
0.000743774
0.00183527
0.00272678
0.00340705
0.00388647
0.00404465
0.00404882
0.00413513
0.00388535
0.00316704
0.00374519
0.00504881
0.00488208
0.00460121
0.004231
0.00377615
0.00322212
0.00254965
0.00173248
0.000716332
0.000794182
0.00225369
0.00350516
0.00457108
0.0054062
0.00588223
0.00608834
0.00616643
0.00579664
0.00529987
0.00613329
0.00702416
0.00681752
0.00628686
0.00562414
0.00484258
0.00394602
0.00295845
0.00191311
0.000741813
0.000849823
0.00263177
0.00412082
0.00536401
0.00629598
0.00694134
0.00731378
0.00749614
0.00728929
0.00710859
0.00779117
0.00809805
0.00769198
0.00703337
0.00620337
0.00525379
0.0042228
0.00315013
0.0020712
0.000776803
0.000913684
0.00283526
0.00453612
0.00593171
0.00692449
0.00762358
0.00809188
0.00841974
0.00842797
0.00846297
0.00888711
0.00874719
0.0081368
0.00734399
0.00643459
0.00544124
0.00438368
0.00329689
0.00222268
0.000821477
0.00100113
0.00291278
0.00464827
0.00620753
0.00734172
0.00809646
0.00860813
0.00903696
0.00921603
0.00936572
0.00955808
0.00911864
0.0083726
0.00749087
0.00650419
0.00545735
0.00439153
0.00333128
0.00230154
0.000879071
0.00111831
0.00314502
0.00479615
0.00642458
0.00763139
0.00840502
0.00892376
0.00937641
0.00966822
0.00986596
0.00989283
0.00928953
0.00850729
0.00760995
0.00658334
0.00548396
0.00437913
0.00332546
0.00236099
0.000953581
0.00125415
0.00347614
0.0052075
0.00660673
0.00767067
0.0083735
0.00887244
0.00940975
0.00982733
0.0100364
0.00992244
0.00917816
0.0083626
0.00752733
0.0066215
0.00563933
0.00461361
0.00359685
0.00251527
0.00104606
0.0013798
0.00342452
0.00503522
0.00593683
0.00663249
0.00715644
0.007657
0.00829379
0.00888551
0.0091045
0.00866058
0.00773649
0.00699972
0.00642263
0.00586314
0.00523929
0.00453356
0.00377126
0.00256112
0.00114045
0.00143297
0.00160681
0.0017476
0.00186918
0.00198036
0.00209103
0.00221271
0.00235034
0.00248275
0.00252678
0.00238659
0.00221148
0.00205877
0.00192868
0.00181213
0.0017009
0.00158818
0.00146986
0.00134116
0.00119208
0.000661484
0.000771659
0.000849555
0.000899462
0.000923227
0.000944401
0.000971116
0.00101627
0.00107363
0.00110504
0.00109333
0.00107878
0.0010538
0.00102902
0.00100319
0.000971861
0.000930976
0.000876457
0.000800357
0.000678422
0.000717242
0.00176933
0.00267795
0.00339561
0.00389601
0.00406889
0.00415405
0.00441393
0.00473747
0.00502245
0.00504881
0.00495314
0.0048087
0.00458501
0.00428149
0.00388072
0.00335706
0.00267992
0.00181027
0.000709827
0.000754307
0.00200349
0.00321927
0.00432896
0.0052346
0.00580873
0.00615988
0.0064638
0.00671541
0.00704556
0.00702416
0.00689884
0.00656148
0.0061104
0.00555408
0.00485745
0.00400294
0.00299797
0.00188376
0.000725695
0.000804784
0.00221338
0.00351037
0.00473878
0.00579998
0.00662164
0.00721685
0.00762982
0.00792021
0.00822302
0.00809805
0.00777579
0.0072738
0.00663861
0.00590421
0.0050544
0.00408562
0.00302231
0.00191875
0.000752332
0.00087654
0.00250225
0.00386551
0.00507672
0.00611566
0.0070078
0.00774547
0.0082874
0.00868348
0.00895799
0.00874719
0.00823294
0.00753798
0.00675102
0.00591964
0.00502346
0.00405044
0.00302888
0.00200281
0.000796088
0.000972057
0.00272013
0.00418553
0.00546677
0.00647709
0.00732841
0.00808135
0.0086762
0.00913391
0.00937371
0.00911864
0.00850253
0.00769205
0.00679546
0.00588065
0.00495027
0.00400501
0.00305161
0.00212057
0.000854912
0.00109457
0.00297747
0.00445342
0.00583844
0.0069207
0.00774148
0.00840875
0.00893772
0.00935405
0.00953766
0.00928953
0.00868308
0.00788612
0.00699442
0.00606039
0.00508431
0.00410247
0.00315725
0.00226071
0.000931387
0.00122983
0.00329771
0.00490993
0.00619893
0.00719364
0.00790605
0.0084334
0.00887688
0.00924418
0.00940342
0.00917816
0.00857113
0.0078427
0.00708215
0.00626697
0.00536955
0.00441556
0.00345534
0.00241882
0.00102458
0.00135537
0.00325177
0.00485955
0.00574594
0.00640979
0.00686897
0.00722225
0.0075967
0.00796612
0.00807728
0.00773649
0.00715719
0.0066442
0.00618277
0.00568686
0.00510232
0.00442323
0.0036743
0.00248582
0.00112265
0.0014105
0.00157513
0.00170889
0.0018236
0.00192328
0.00201482
0.00210689
0.00220399
0.00229601
0.00232217
0.00221148
0.0020848
0.00196814
0.00186207
0.00176183
0.00166204
0.00155738
0.00144462
0.00132077
0.00117724
0.00064531
0.000758837
0.000836587
0.000882839
0.000910495
0.000937974
0.000974867
0.0010185
0.00105632
0.00107763
0.00107034
0.0010538
0.00103559
0.00101762
0.000998368
0.000973067
0.000935915
0.000881233
0.000800969
0.000674483
0.000706627
0.00186429
0.00279855
0.00350048
0.00393356
0.00410766
0.00427655
0.00460777
0.00494118
0.00497
0.00488208
0.0048087
0.00472662
0.00459987
0.00438981
0.00406202
0.00358391
0.00291468
0.00199055
0.000714267
0.000737197
0.00196383
0.0032182
0.00434761
0.00523193
0.00580278
0.00619131
0.00655122
0.00685099
0.0069372
0.00681752
0.00656148
0.00630078
0.00600531
0.00560051
0.00501976
0.00422181
0.00319739
0.00198722
0.000723347
0.000775525
0.00193232
0.00317856
0.00442332
0.00552508
0.00638191
0.00701949
0.0075057
0.00781926
0.00789775
0.00769198
0.0072738
0.00680655
0.00631839
0.00575237
0.00503417
0.00412577
0.00304436
0.00187527
0.000742629
0.00084582
0.00197201
0.00310857
0.0042897
0.00540183
0.00638182
0.0072108
0.00786731
0.00828234
0.00840309
0.0081368
0.00753798
0.00685651
0.00618488
0.00550161
0.00472674
0.00382982
0.00283168
0.00181073
0.000783018
0.000946655
0.00217898
0.0032226
0.00431259
0.00535726
0.00632709
0.00722516
0.0079844
0.00848013
0.00863761
0.0083726
0.00769205
0.00685828
0.00601829
0.00520999
0.00439888
0.00354423
0.00266471
0.00181425
0.000844678
0.00107141
0.0025489
0.00372232
0.00487531
0.00587002
0.00671516
0.00748496
0.00815819
0.0086009
0.00873362
0.00850729
0.00788612
0.00707032
0.00619713
0.00531073
0.00441229
0.00352495
0.00269989
0.001952
0.000922037
0.00120215
0.00296925
0.00439104
0.00555479
0.00648157
0.00717913
0.00771786
0.00815048
0.00844739
0.00854882
0.0083626
0.0078427
0.00719822
0.00651793
0.00577909
0.0049549
0.00406558
0.00313994
0.00219929
0.00101372
0.00132648
0.00302953
0.00459868
0.00545106
0.00608803
0.00651297
0.00678516
0.00699116
0.00716165
0.00718638
0.00699972
0.0066442
0.00626699
0.00588003
0.00543645
0.00490005
0.00426978
0.00354232
0.00235717
0.00111234
0.0013843
0.001539
0.00166519
0.00177281
0.00186254
0.00193869
0.00200779
0.00207326
0.00212992
0.00213682
0.00205877
0.00196814
0.00187866
0.00179244
0.0017074
0.00161973
0.00152494
0.00142016
0.00130327
0.00116592
0.000631515
0.000732416
0.000806651
0.000856503
0.000897407
0.000937798
0.000980738
0.00101175
0.00103491
0.00104099
0.00103678
0.00102902
0.00101762
0.00100252
0.000984364
0.000960939
0.000925477
0.00086965
0.00078572
0.000665329
0.000699566
0.00204194
0.0029597
0.00357435
0.00392645
0.00416666
0.00442125
0.00467934
0.00471338
0.00466346
0.00460121
0.00458501
0.00459987
0.00458383
0.00447312
0.00422408
0.00380496
0.00317018
0.00221765
0.000719643
0.000730482
0.00216791
0.00348345
0.00455946
0.00533862
0.0058529
0.00620172
0.00645619