/*--------------------------------*- C++ -*----------------------------------*\
  =========                 |
  \\      /  F ield         | OpenFOAM: The Open Source CFD Toolbox
   \\    /   O peration     | Website:  https://openfoam.org
    \\  /    A nd           | Version:  9
     \\/     M anipulation  |
\*---------------------------------------------------------------------------*/
FoamFile
{
    format      ascii;
    class       volVectorField;
    location    "200";
    object      U;
}
// * * * * * * * * * * * * * * * * * * * * * * * * * * * * * * * * * * * * * //

dimensions      [0 1 -1 0 0 0 0];

internalField   nonuniform List<vector> 
4000
(
(0.00260851 -0.00145314 0.00260851)
(0.00202997 0.00113941 0.0027884)
(-0.00368459 0.00149261 0.00220615)
(-0.00921731 0.00113986 0.00167753)
(-0.0149066 0.000634112 0.00134499)
(-0.0200142 -0.000520241 0.00177846)
(-0.02252 -0.00333004 0.00335004)
(-0.0213185 -0.00742477 0.00529984)
(-0.0175679 -0.0107587 0.00642547)
(-0.0139547 -0.0110933 0.0061342)
(-0.0124431 -0.00809265 0.00476788)
(-0.0125825 -0.00296792 0.00270413)
(-0.0144025 -1.3012e-05 0.000482185)
(-0.0174968 0.000646986 -0.000258472)
(-0.0203051 0.00129495 -0.000186947)
(-0.0218274 0.00144113 -0.000337081)
(-0.0215273 0.00104482 -0.00081022)
(-0.0189061 0.000370618 -0.00146289)
(-0.0137888 -0.000505407 -0.00239074)
(-0.00596595 -0.00151396 -0.00413816)
(0.00200449 -0.00786162 0.00200449)
(0.00384141 -0.00218004 0.00189576)
(0.0020887 0.000712302 0.00150199)
(-0.000541706 0.00138682 0.001719)
(-0.00397219 0.000730141 0.00249289)
(-0.00654091 -0.00218182 0.00376772)
(-0.00640444 -0.00874313 0.00542332)
(-0.00406921 -0.0165775 0.00682002)
(-0.00274401 -0.0207819 0.00715329)
(-0.0038716 -0.0188792 0.00633194)
(-0.00742833 -0.0130465 0.00545276)
(-0.0116343 -0.00816029 0.00607329)
(-0.0147321 -0.00387192 0.0057323)
(-0.0173073 -0.000330979 0.00324026)
(-0.0197496 -3.44307e-05 0.00120828)
(-0.0209253 -0.000741838 0.000363322)
(-0.0201755 -0.00211721 -9.45301e-05)
(-0.0172947 -0.00402443 -0.000563589)
(-0.0123534 -0.00631766 -0.00120828)
(-0.00531561 -0.00862314 -0.0023638)
(0.00212424 -0.0136805 0.00212424)
(0.0048304 -0.00557241 0.00180622)
(0.00515382 -0.000963481 0.00139613)
(0.00515665 0.000272481 0.00149163)
(0.00502625 -0.00120502 0.00214406)
(0.00656759 -0.0069017 0.00342846)
(0.00978554 -0.016745 0.00504161)
(0.0117786 -0.0253923 0.00577822)
(0.0102754 -0.0281296 0.00543854)
(0.00599209 -0.0240879 0.00425473)
(-0.000119009 -0.0157684 0.00292947)
(-0.00703554 -0.0118171 0.00429152)
(-0.0125598 -0.0109725 0.00671674)
(-0.0157088 -0.0067505 0.00700665)
(-0.0172769 -0.00226086 0.00401256)
(-0.0184932 -0.0024752 0.00183533)
(-0.0181448 -0.00441955 0.00082553)
(-0.0157446 -0.00741805 0.000255524)
(-0.0112782 -0.0110996 -0.000203541)
(-0.00490314 -0.014786 -0.000935867)
(0.00235698 -0.0214696 0.00235698)
(0.00556955 -0.0110327 0.00218499)
(0.00720352 -0.00507012 0.00189762)
(0.00898381 -0.00367853 0.00208293)
(0.0117869 -0.00677084 0.00301442)
(0.0164207 -0.015107 0.00455422)
(0.0201798 -0.0250294 0.00540275)
(0.0205904 -0.0310546 0.00493882)
(0.0175795 -0.0310406 0.00380115)
(0.0125246 -0.0250752 0.0024303)
(0.00720518 -0.0155278 0.00095776)
(0.000740924 -0.0109301 0.00154806)
(-0.00662635 -0.0140081 0.00484663)
(-0.0128095 -0.0151461 0.00799653)
(-0.0154059 -0.0103128 0.00799765)
(-0.0162174 -0.00705777 0.00493892)
(-0.0160882 -0.00895105 0.00284114)
(-0.0141949 -0.0128643 0.00169677)
(-0.0103229 -0.0178554 0.000977645)
(-0.00457372 -0.0230706 0.000344764)
(0.00246238 -0.0301067 0.00246238)
(0.00608095 -0.0181029 0.00276507)
(0.00872216 -0.0116778 0.00305418)
(0.0120115 -0.0115565 0.0039893)
(0.0166115 -0.0176986 0.00559768)
(0.0209687 -0.0271729 0.00647016)
(0.0225216 -0.034332 0.00556834)
(0.0212764 -0.0364755 0.00360694)
(0.0180589 -0.0333985 0.00181078)
(0.0142742 -0.0259859 0.000539847)
(0.0115018 -0.0161072 -0.000384742)
(0.0092142 -0.0104884 -0.000250787)
(0.00462543 -0.0139011 0.0021089)
(-0.00353259 -0.0205693 0.00622394)
(-0.0100338 -0.0215939 0.00929706)
(-0.0128329 -0.0171086 0.00870175)
(-0.0132684 -0.0165116 0.00582497)
(-0.0119693 -0.0202694 0.00366095)
(-0.00895013 -0.0259739 0.00226319)
(-0.00398919 -0.0326376 0.00141544)
(0.00217733 -0.0394041 0.00217733)
(0.00595651 -0.0273077 0.00336526)
(0.00921254 -0.0221268 0.00482109)
(0.0129375 -0.0249935 0.00669697)
(0.0160792 -0.0332681 0.00763915)
(0.0169599 -0.0406679 0.00626692)
(0.0157307 -0.0436792 0.00327122)
(0.0141055 -0.0421599 0.000308436)
(0.0125178 -0.0368305 -0.00137204)
(0.0118924 -0.0292027 -0.0019913)
(0.0131779 -0.0207657 -0.00204869)
(0.0159899 -0.0152787 -0.00150368)
(0.0168495 -0.0166617 0.000134984)
(0.0128697 -0.0230466 0.00283036)
(0.00447856 -0.0293979 0.00674835)
(-0.0029899 -0.0297424 0.00956016)
(-0.006696 -0.0278081 0.00851921)
(-0.00739248 -0.0298482 0.0057954)
(-0.00626969 -0.0350432 0.0035039)
(-0.00270995 -0.0427597 0.00221227)
(0.00112491 -0.0472654 0.00112491)
(0.00404295 -0.0370624 0.00344919)
(0.0061145 -0.035125 0.0059522)
(0.00725986 -0.0408842 0.00732576)
(0.0061104 -0.048108 0.00569827)
(0.00365944 -0.0518254 0.00180941)
(0.00203172 -0.0514901 -0.00240649)
(0.00289796 -0.0480237 -0.00527923)
(0.00509626 -0.0420002 -0.00611031)
(0.00905222 -0.0356154 -0.00587135)
(0.0145998 -0.0299815 -0.00531481)
(0.0217253 -0.0258625 -0.00426926)
(0.0272263 -0.0254815 -0.00271897)
(0.0285934 -0.0285246 -0.000730519)
(0.0244397 -0.0335099 0.00189465)
(0.0162127 -0.0376963 0.00544034)
(0.00775299 -0.0384433 0.00782556)
(0.00226099 -0.0389875 0.00679935)
(-0.000901408 -0.0426097 0.00426507)
(-0.000174694 -0.0506632 0.00252472)
(-0.00104087 -0.0487656 -0.00104087)
(-0.00110027 -0.0420419 0.00215389)
(-0.00326139 -0.0436908 0.00427497)
(-0.00702954 -0.0501556 0.00296485)
(-0.0115831 -0.0545763 -0.00169249)
(-0.0139259 -0.0556115 -0.00679793)
(-0.0122322 -0.0540948 -0.0108021)
(-0.00688179 -0.0507129 -0.0131094)
(-0.000195921 -0.0453519 -0.0133157)
(0.00861384 -0.0408993 -0.0124042)
(0.017327 -0.0381794 -0.0115843)
(0.0273595 -0.0357461 -0.0101156)
(0.0358809 -0.0346273 -0.00827575)
(0.0411949 -0.0351053 -0.00638617)
(0.0417497 -0.0367626 -0.00417915)
(0.0372253 -0.0394398 -0.00125552)
(0.028616 -0.0417247 0.00223561)
(0.0185001 -0.0425337 0.00435308)
(0.00885494 -0.0442472 0.00372515)
(0.00421177 -0.0513429 0.00215424)
(-0.00474317 -0.0393836 -0.00474317)
(-0.010549 -0.0370338 -0.00176349)
(-0.0187683 -0.0408224 -0.00266221)
(-0.026159 -0.0453941 -0.00780482)
(-0.0303143 -0.0470438 -0.0142192)
(-0.0297239 -0.0468753 -0.019497)
(-0.024405 -0.0460425 -0.0233088)
(-0.0150924 -0.0441676 -0.0255798)
(-0.00460306 -0.0406188 -0.0255615)
(0.00993823 -0.038235 -0.0239551)
(0.0212897 -0.0376669 -0.0228458)
(0.0336663 -0.0363932 -0.0207362)
(0.0441023 -0.0350222 -0.0182463)
(0.0515064 -0.0340474 -0.015696)
(0.0551809 -0.0338025 -0.0130717)
(0.0545311 -0.0344504 -0.0100619)
(0.0489797 -0.0354815 -0.00624801)
(0.0382604 -0.0357726 -0.00218494)
(0.0233178 -0.0361426 0.00030521)
(0.0111363 -0.040841 0.000696285)
(-0.0107114 -0.0222512 -0.0107114)
(-0.0237576 -0.0221301 -0.0111524)
(-0.0368855 -0.0249348 -0.0175825)
(-0.0458389 -0.0255646 -0.0265456)
(-0.048757 -0.023965 -0.0345293)
(-0.0455186 -0.0220663 -0.0406219)
(-0.0368802 -0.0201905 -0.0453065)
(-0.023824 -0.0177827 -0.0484673)
(-0.00993093 -0.0145381 -0.0488947)
(0.0125585 -0.0138533 -0.0464989)
(0.0264383 -0.0153232 -0.0447829)
(0.0410943 -0.0161563 -0.041281)
(0.0532568 -0.0165712 -0.0372806)
(0.0623191 -0.016914 -0.0331979)
(0.0680132 -0.0174655 -0.0291436)
(0.0697622 -0.0185476 -0.024854)
(0.0664581 -0.0200464 -0.0196408)
(0.0568379 -0.0207692 -0.0132152)
(0.0400753 -0.0200915 -0.0068119)
(0.0206876 -0.0221451 -0.00265775)
(0.0027884 0.00113941 0.00202997)
(0.00493571 0.00353814 0.00493571)
(0.00042542 0.00381483 0.0061083)
(-0.00521368 0.00226832 0.00625364)
(-0.0109943 0.000611994 0.00662562)
(-0.0163067 -0.00121065 0.00770162)
(-0.0194621 -0.00363854 0.00972476)
(-0.0197766 -0.00648591 0.0122951)
(-0.0175017 -0.00881724 0.0140378)
(-0.0146015 -0.0094525 0.0140362)
(-0.013052 -0.00811156 0.0125301)
(-0.0125859 -0.00565438 0.0104674)
(-0.0131428 -0.00326651 0.00810494)
(-0.0148739 -0.000657045 0.00524251)
(-0.0173171 0.00133399 0.00296449)
(-0.0189526 0.00210433 0.000962661)
(-0.0186067 0.001892 -0.00107311)
(-0.0159642 0.00117798 -0.00288724)
(-0.0116255 0.000246445 -0.00460824)
(-0.00399732 -0.000803418 -0.00714719)
(0.00189576 -0.00218004 0.00384141)
(0.00456079 0.00204205 0.00456079)
(0.00376297 0.00438887 0.00446246)
(0.00205588 0.00467856 0.00433592)
(-0.000433964 0.00370613 0.00489644)
(-0.00306077 0.00111767 0.00631412)
(-0.00439465 -0.0038212 0.00877197)
(-0.00417852 -0.00933654 0.0114361)
(-0.00401796 -0.0128519 0.013292)
(-0.005535 -0.0125674 0.0136031)
(-0.00950342 -0.00951217 0.0128479)
(-0.0136038 -0.0068399 0.0123159)
(-0.0157727 -0.00428929 0.0113293)
(-0.0169529 -0.00123941 0.00880002)
(-0.0179821 0.000785089 0.00550903)
(-0.0184779 0.00125649 0.00312653)
(-0.0176144 0.000552613 0.00137391)
(-0.0149642 -0.000982868 -0.000136408)
(-0.0107108 -0.00311848 -0.00166667)
(-0.00406119 -0.00561591 -0.00383492)
(0.00180622 -0.00557241 0.0048304)
(0.00476566 -0.00060097 0.00476566)
(0.00585387 0.00265429 0.00434946)
(0.00655304 0.00366322 0.00414158)
(0.00700407 0.00259283 0.0045062)
(0.00836011 -0.00111324 0.00568442)
(0.010166 -0.00717047 0.00762673)
(0.0111356 -0.0130002 0.00956699)
(0.00961664 -0.0159067 0.0109156)
(0.00518255 -0.01456 0.0113069)
(-0.0027667 -0.0102118 0.0109951)
(-0.0112301 -0.00833189 0.0115562)
(-0.0160402 -0.0078708 0.0126035)
(-0.0176048 -0.00525255 0.0121025)
(-0.0176183 -0.00228247 0.00925217)
(-0.0174841 -0.00144121 0.00614431)
(-0.016505 -0.00239266 0.00388996)
(-0.0139882 -0.00447021 0.0022088)
(-0.00996214 -0.00718386 0.000792526)
(-0.00401994 -0.0100742 -0.000930409)
(0.00218499 -0.0110327 0.00556955)
(0.00559784 -0.0054114 0.00559784)
(0.00802995 -0.00166919 0.00544982)
(0.0105734 -0.000475623 0.00562277)
(0.0138114 -0.00201011 0.00641226)
(0.0180427 -0.00606396 0.00763679)
(0.0215973 -0.0110728 0.00863769)
(0.0226513 -0.0147568 0.00919956)
(0.0202684 -0.0155232 0.00944759)
(0.0146262 -0.012636 0.00937952)
(0.00648877 -0.00738957 0.00912689)
(-0.00583661 -0.00580597 0.0102019)
(-0.013972 -0.00879754 0.0126579)
(-0.0179564 -0.00973885 0.0145207)
(-0.0182556 -0.00762064 0.0138407)
(-0.0172614 -0.00632954 0.0108527)
(-0.0159247 -0.00747884 0.00786214)
(-0.013465 -0.01009 0.00548982)
(-0.00958651 -0.0134217 0.00364215)
(-0.00408905 -0.0168337 0.00196764)
(0.00276507 -0.0181029 0.00608095)
(0.00689121 -0.01238 0.00689121)
(0.010679 -0.00884387 0.00783223)
(0.0150019 -0.00811774 0.00916558)
(0.0201567 -0.00998243 0.0106161)
(0.0253097 -0.0131632 0.0113551)
(0.0286301 -0.0157132 0.0110232)
(0.0289863 -0.0163277 0.0100375)
(0.026145 -0.0145055 0.00906328)
(0.0206526 -0.01 0.00839863)
(0.0135383 -0.00359746 0.00806726)
(0.00305606 -0.00113957 0.00909593)
(-0.0076893 -0.00711925 0.0123758)
(-0.0144663 -0.0128049 0.0156303)
(-0.0173954 -0.0146636 0.017289)
(-0.0169804 -0.0139875 0.0160075)
(-0.015301 -0.0150328 0.0127312)
(-0.0128198 -0.017975 0.0093693)
(-0.00919237 -0.0217531 0.00656168)
(-0.00410244 -0.0257301 0.00444014)
(0.00336526 -0.0273077 0.00595651)
(0.00823193 -0.0221191 0.00823193)
(0.0130146 -0.0192592 0.0109718)
(0.0181928 -0.0190156 0.0135874)
(0.0233407 -0.0203671 0.0149491)
(0.0272215 -0.021347 0.0144209)
(0.0288971 -0.0206471 0.0124819)
(0.0282897 -0.0180315 0.0102224)
(0.0255275 -0.0137733 0.00854353)
(0.0213357 -0.00803819 0.00773317)
(0.0168223 -0.00115212 0.00775531)
(0.0115079 0.0027303 0.0088257)
(0.00388121 -0.00346528 0.0119136)
(-0.00392572 -0.0135322 0.0155831)
(-0.00982887 -0.020268 0.0183339)
(-0.0125101 -0.0230426 0.0192648)
(-0.0123358 -0.0246442 0.0170625)
(-0.0106431 -0.0277397 0.0130672)
(-0.00795319 -0.0317299 0.0090291)
(-0.00366312 -0.036338 0.00604949)
(0.00344919 -0.0370624 0.00404295)
(0.00824093 -0.0330076 0.00824093)
(0.0124433 -0.0311063 0.0125511)
(0.0163344 -0.0309282 0.0153726)
(0.0190733 -0.0307415 0.0154107)
(0.0202448 -0.0289181 0.0131862)
(0.0202007 -0.0253706 0.00989267)
(0.0196086 -0.0203792 0.00705879)
(0.0182746 -0.0144393 0.00564529)
(0.016787 -0.00839268 0.00535305)
(0.0164321 -0.00242483 0.00615112)
(0.0170324 0.00124038 0.00788268)
(0.0164914 -0.00253459 0.0103554)
(0.0127458 -0.0121402 0.0132148)
(0.00630492 -0.0222015 0.0159426)
(0.000239236 -0.0291629 0.0181993)
(-0.00340925 -0.0330496 0.0181616)
(-0.00471577 -0.0365892 0.0149344)
(-0.00466573 -0.040646 0.0101367)
(-0.00221766 -0.0458581 0.00607808)
(0.00215389 -0.0420419 -0.00110027)
(0.00500164 -0.0392987 0.00500164)
(0.00590613 -0.038312 0.00933582)
(0.0060091 -0.0377301 0.0103607)
(0.00511904 -0.03586 0.00797499)
(0.00405153 -0.0321719 0.00393221)
(0.0037267 -0.0273005 -0.000851799)
(0.00539645 -0.0215383 -0.00424843)
(0.00783573 -0.0153095 -0.00480841)
(0.0110659 -0.0106794 -0.00406872)
(0.0159283 -0.00778057 -0.00251867)
(0.0222507 -0.00613441 -2.36358e-05)
(0.0274008 -0.00793311 0.00276243)
(0.0288152 -0.0131163 0.00565483)
(0.0262417 -0.0209831 0.00815661)
(0.0203377 -0.0288168 0.0108455)
(0.0132239 -0.0350078 0.0129752)
(0.00707699 -0.0394922 0.012372)
(0.00213234 -0.0434986 0.00864285)
(0.000821696 -0.0487909 0.00400136)
(-0.00176349 -0.0370338 -0.010549)
(-0.00418768 -0.0354352 -0.00418768)
(-0.00970554 -0.034934 -0.00355586)
(-0.0145681 -0.033368 -0.00693861)
(-0.0181415 -0.0308287 -0.0126617)
(-0.0189592 -0.0280015 -0.018785)
(-0.0160644 -0.0249333 -0.0237637)
(-0.0097096 -0.021436 -0.0265756)
(-0.00132852 -0.0165812 -0.0259036)
(0.00897694 -0.0146615 -0.0238974)
(0.0188357 -0.015117 -0.0219851)
(0.0293802 -0.0149845 -0.0187725)
(0.0382737 -0.0154911 -0.0152701)
(0.0441427 -0.0170175 -0.0119453)
(0.0459218 -0.0196748 -0.00875149)
(0.0430064 -0.0235876 -0.00517247)
(0.0357626 -0.028349 -0.00115726)
(0.0258476 -0.0327716 0.00190795)
(0.0145948 -0.0362353 0.00225903)
(0.00648285 -0.0403784 -0.000477857)
(-0.0111524 -0.0221301 -0.0237576)
(-0.0245308 -0.0204623 -0.0245308)
(-0.0385819 -0.0165421 -0.0332691)
(-0.0472102 -0.0111631 -0.0432738)
(-0.0502244 -0.00690975 -0.0521452)
(-0.0476513 -0.00404641 -0.0597066)
(-0.039752 -0.00161366 -0.0660339)
(-0.0268752 0.00125813 -0.0700547)
(-0.0123483 0.00510921 -0.0701551)
(0.0131664 0.00514619 -0.0670291)
(0.0282467 0.00223947 -0.0642731)
(0.0432835 0.00032212 -0.0590933)
(0.0553327 -0.00119997 -0.0532251)
(0.0639818 -0.00269183 -0.0472767)
(0.0688395 -0.004401 -0.0414634)
(0.0692631 -0.00682288 -0.0356647)
(0.0642743 -0.0106508 -0.0291502)
(0.0529326 -0.0156216 -0.0211483)
(0.0351894 -0.0196637 -0.0128415)
(0.0165767 -0.0227695 -0.00854224)
(0.00220615 0.00149261 -0.00368459)
(0.0061083 0.00381483 0.000425419)
(0.00450972 0.00599692 0.00450972)
(-0.00106875 0.00496371 0.00666503)
(-0.00701399 0.0026346 0.00792425)
(-0.0125403 0.000406452 0.0103893)
(-0.0166559 -0.00190914 0.0137812)
(-0.0181707 -0.00437112 0.0173072)
(-0.0175959 -0.00641212 0.0197485)
(-0.016022 -0.00733042 0.0200156)
(-0.0149019 -0.00687681 0.0182006)
(-0.0142514 -0.00548608 0.0152509)
(-0.0139959 -0.00344041 0.0114863)
(-0.0144539 -0.000675156 0.00682627)
(-0.0157872 0.00153235 0.00225243)
(-0.0170361 0.00219608 -0.0016251)
(-0.0164008 0.00157856 -0.00488634)
(-0.0137039 0.000764294 -0.00752702)
(-0.00998792 -1.36345e-05 -0.00970319)
(-0.00262171 -0.000651537 -0.0121022)
(0.00150198 0.000712302 0.0020887)
(0.00446246 0.00438887 0.00376297)
(0.00480373 0.00733012 0.00480373)
(0.00379283 0.00819459 0.00507286)
(0.00190578 0.00743037 0.0056298)
(-0.000358243 0.00531099 0.00757366)
(-0.00258554 0.00157807 0.010914)
(-0.00417063 -0.0030185 0.0146958)
(-0.00564619 -0.00647453 0.0176521)
(-0.0080973 -0.00746757 0.0187772)
(-0.0119372 -0.00643253 0.0181582)
(-0.015386 -0.00507195 0.0169006)
(-0.0169453 -0.00322518 0.0148968)
(-0.0173375 -0.000542194 0.0114776)
(-0.0173596 0.0016439 0.00725199)
(-0.0170931 0.00230643 0.00374409)
(-0.0158507 0.00161816 0.000846416)
(-0.0132476 0.000141275 -0.00175114)
(-0.00947227 -0.00186562 -0.00431734)
(-0.00327158 -0.00414411 -0.00746242)
(0.00139613 -0.000963482 0.00515382)
(0.00434946 0.00265429 0.00585387)
(0.0059844 0.00585838 0.0059844)
(0.00720134 0.00744323 0.00579068)
(0.00801738 0.00721129 0.00592497)
(0.00880902 0.00511693 0.00696218)
(0.00956775 0.00118947 0.00896395)
(0.00935192 -0.00330415 0.0115833)
(0.00699068 -0.00656119 0.0141282)
(0.0018984 -0.00733175 0.0158925)
(-0.00597133 -0.00614807 0.0164195)
(-0.0135132 -0.00569686 0.0166535)
(-0.0175977 -0.00525415 0.0167938)
(-0.018621 -0.00326592 0.0155555)
(-0.0180854 -0.00110554 0.0124584)
(-0.0171917 -0.000378956 0.00887278)
(-0.0156871 -0.00126121 0.00582415)
(-0.0129719 -0.00315923 0.00312198)
(-0.00904291 -0.00553519 0.000447537)
(-0.00343711 -0.00799132 -0.00266631)
(0.00189762 -0.00507012 0.00720352)
(0.00544982 -0.00166919 0.00802995)
(0.00828211 0.00158062 0.00828211)
(0.0110931 0.00354124 0.00831902)
(0.0140187 0.00381419 0.0084285)
(0.0171724 0.00234081 0.00881893)
(0.0199913 -0.000310192 0.00948549)
(0.0205565 -0.00287548 0.0103731)
(0.018037 -0.00427834 0.0116161)
(0.0122088 -0.00375623 0.0129745)
(0.00304561 -0.00215074 0.0141999)
(-0.0090231 -0.00286209 0.0156622)
(-0.0165839 -0.00521258 0.0176385)
(-0.0197723 -0.00571969 0.0189242)
(-0.0196582 -0.00479694 0.0180087)
(-0.0182652 -0.00466614 0.0151423)
(-0.0163637 -0.00611701 0.0118648)
(-0.0134575 -0.00862613 0.00872309)
(-0.00932587 -0.0114769 0.00568483)
(-0.00381924 -0.0140191 0.00242371)
(0.00305418 -0.0116778 0.00872216)
(0.00783223 -0.00884388 0.010679)
(0.0120537 -0.00557425 0.0120537)
(0.0163058 -0.00314682 0.0129194)
(0.0207922 -0.00212182 0.0132453)
(0.0251823 -0.00220613 0.0128292)
(0.0281609 -0.00257072 0.0117211)
(0.028635 -0.00265925 0.0105985)
(0.0260497 -0.00189197 0.010189)
(0.0203327 0.000274214 0.0106632)
(0.0120896 0.00326176 0.0117628)
(-0.00082697 0.00261951 0.0139994)
(-0.012446 -0.0030724 0.0174761)
(-0.0185639 -0.0072908 0.0207696)
(-0.0204768 -0.00929215 0.0224401)
(-0.0194591 -0.0105543 0.0213521)
(-0.0172671 -0.0129667 0.0182787)
(-0.0141982 -0.0164337 0.0145524)
(-0.00996633 -0.0200859 0.0107559)
(-0.00437927 -0.0229994 0.00701551)
(0.00482109 -0.0221268 0.00921254)
(0.0109718 -0.0192592 0.0130146)
(0.0161236 -0.015535 0.0161236)
(0.0210853 -0.0121653 0.0180082)
(0.0258239 -0.00945056 0.0180516)
(0.029712 -0.00707324 0.0161627)
(0.0318613 -0.00471223 0.0131144)
(0.03175 -0.00221047 0.0101577)
(0.029168 0.00064861 0.00838491)
(0.0242386 0.00412614 0.0080992)
(0.0176967 0.00797389 0.00918044)
(0.00923163 0.00901276 0.0115145)
(-0.00303968 0.00137226 0.0159493)
(-0.0115293 -0.00715461 0.0203341)
(-0.0161995 -0.0131142 0.0238874)
(-0.0173434 -0.0172364 0.0251479)
(-0.0160952 -0.0212093 0.0232254)
(-0.0135686 -0.0259397 0.0192004)
(-0.00995176 -0.0307258 0.0144478)
(-0.00463501 -0.034677 0.00980661)
(0.0059522 -0.035125 0.0061145)
(0.0125511 -0.0311063 0.0124433)
(0.0169206 -0.0264455 0.0169206)
(0.0208835 -0.0216875 0.0189811)
(0.0241482 -0.0169496 0.0178511)
(0.0264159 -0.0120283 0.0141026)
(0.0274747 -0.00695472 0.00943617)
(0.0272254 -0.00207368 0.00551724)
(0.0251106 0.00275044 0.00317738)
(0.0218735 0.006915 0.00290425)
(0.0187939 0.0103404 0.00450104)
(0.0158306 0.0116166 0.00742824)
(0.0112207 0.00653496 0.0112228)
(0.00367676 -0.00438693 0.0158428)
(-0.0029736 -0.0143585 0.0200002)
(-0.0072764 -0.0219105 0.0231028)
(-0.00907773 -0.0281761 0.0233439)
(-0.0089618 -0.0344094 0.0201856)
(-0.00768406 -0.0405389 0.0149796)
(-0.00374203 -0.0460163 0.00910386)
(0.00427497 -0.0436908 -0.00326138)
(0.00933582 -0.038312 0.00590613)
(0.00995045 -0.0330221 0.00995045)
(0.0106315 -0.0271489 0.0099977)
(0.0107956 -0.0205713 0.00607204)
(0.0110966 -0.0131933 -0.000159102)
(0.0119099 -0.00509549 -0.00589122)
(0.0132349 0.00201524 -0.00962013)
(0.0141315 0.00741653 -0.0108431)
(0.0149941 0.0102181 -0.00955926)
(0.0171192 0.0111848 -0.00668814)
(0.0202723 0.0111728 -0.00294106)
(0.0227175 0.00810668 0.000552201)
(0.0226145 0.000718344 0.00374603)
(0.0188264 -0.00987742 0.00712213)
(0.0128967 -0.0203142 0.0113609)
(0.00706792 -0.0291474 0.0144956)
(0.00254663 -0.0368911 0.0142699)
(-0.00114323 -0.0441138 0.0105044)
(-0.000742913 -0.0507613 0.00394853)
(-0.00266221 -0.0408224 -0.0187683)
(-0.00355586 -0.034934 -0.00970554)
(-0.0101158 -0.0297525 -0.0101158)
(-0.0139312 -0.024221 -0.0147197)
(-0.0163537 -0.018507 -0.0217759)
(-0.0162501 -0.0127056 -0.0292376)
(-0.0126255 -0.00746763 -0.034929)
(-0.00685867 -0.00219491 -0.0387776)
(0.00136289 0.00388214 -0.0380741)
(0.0102039 0.00483731 -0.0349531)
(0.0188972 0.0024541 -0.0309516)
(0.0279372 0.000995434 -0.0259854)
(0.0356691 -0.00120704 -0.0215389)
(0.0409847 -0.0047175 -0.0182074)
(0.0424429 -0.00939155 -0.0149185)
(0.0396347 -0.0153401 -0.0111463)
(0.0330185 -0.0223092 -0.00667849)
(0.0241078 -0.0296305 -0.00263788)
(0.0133416 -0.0366986 -0.00127334)
(0.00594906 -0.0434146 -0.00532564)
(-0.0175825 -0.0249348 -0.0368855)
(-0.0332691 -0.0165421 -0.0385819)
(-0.0484784 -0.00791332 -0.0484784)
(-0.0559877 -0.00142236 -0.0594014)
(-0.0577578 0.00279707 -0.0697749)
(-0.0539356 0.00587696 -0.078956)
(-0.044691 0.0087689 -0.0866065)
(-0.0299572 0.0121529 -0.0911498)
(-0.012974 0.016694 -0.0905745)
(0.0149444 0.0163078 -0.0866182)
(0.0315779 0.012156 -0.0828015)
(0.0473663 0.00921564 -0.0761322)
(0.0597134 0.00684819 -0.0688394)
(0.0684908 0.0046589 -0.0617692)
(0.0733453 0.00246874 -0.0549309)
(0.0738172 -0.000148799 -0.0481015)
(0.0691871 -0.00400311 -0.0407513)
(0.0585312 -0.0101206 -0.0323404)
(0.0402622 -0.0180912 -0.0232918)
(0.019597 -0.025451 -0.0183514)
(0.00167753 0.00113986 -0.00921731)
(0.00625364 0.00226832 -0.00521368)
(0.00666503 0.00496371 -0.00106875)
(0.00375461 0.00771476 0.00375461)
(-0.0032528 0.00606813 0.00729479)
(-0.00887011 0.00318912 0.0105688)
(-0.013678 0.000585136 0.0153164)
(-0.0168182 -0.00184552 0.0200348)
(-0.0179096 -0.00379778 0.0232794)
(-0.0178918 -0.00487787 0.0239547)
(-0.0175465 -0.00483083 0.0220203)
(-0.0169652 -0.00383399 0.0183414)
(-0.016262 -0.00197156 0.0134741)
(-0.016024 0.000475591 0.00758449)
(-0.0167549 0.00204941 0.00156905)
(-0.0173705 0.00173087 -0.00384209)
(-0.01608 0.000621913 -0.00806866)
(-0.0129482 -0.000279833 -0.0112848)
(-0.00922566 -0.000818264 -0.013754)
(-0.00172996 -0.000600359 -0.0159639)
(0.001719 0.00138682 -0.000541706)
(0.00433592 0.00467856 0.00205588)
(0.00507286 0.00819459 0.00379283)
(0.00483304 0.0110189 0.00483304)
(0.00307157 0.0114235 0.00544162)
(0.00112384 0.00990446 0.00718291)
(-0.00126715 0.00698296 0.0110267)
(-0.00399376 0.00306322 0.0158531)
(-0.00746359 -0.00066103 0.0201559)
(-0.0110902 -0.00261619 0.0221935)
(-0.0148964 -0.00289877 0.0217409)
(-0.0176644 -0.00236583 0.0198249)
(-0.0186094 -0.00102332 0.016839)
(-0.0183506 0.000992389 0.0127626)
(-0.0176958 0.00248665 0.00820977)
(-0.016906 0.00258781 0.00412797)
(-0.0154736 0.00151469 0.000469672)
(-0.0129206 -0.000122565 -0.00302961)
(-0.00923892 -0.0019821 -0.0065046)
(-0.00319125 -0.0034771 -0.010378)
(0.00149163 0.00027248 0.00515665)
(0.00414158 0.00366322 0.00655304)
(0.00579068 0.00744323 0.00720134)
(0.00708563 0.0106519 0.00708563)
(0.00786751 0.0120142 0.00669669)
(0.00844481 0.011355 0.0071346)
(0.00850541 0.00897288 0.00905746)
(0.00733703 0.00554661 0.0122442)
(0.0039821 0.00204305 0.0161053)
(-0.0023116 -0.000512446 0.0194029)
(-0.00966642 -0.00158333 0.0205351)
(-0.0157966 -0.00225261 0.020355)
(-0.018893 -0.0021132 0.0194789)
(-0.0194103 -0.00081899 0.0175249)
(-0.0185898 0.000396507 0.0143193)
(-0.0174025 0.000346654 0.0107422)
(-0.0157061 -0.00106534 0.00738881)
(-0.0129506 -0.00325921 0.00405539)
(-0.00903267 -0.00568633 0.000471306)
(-0.00365653 -0.00775807 -0.00363909)
(0.00208293 -0.00367853 0.00898381)
(0.00562277 -0.000475624 0.0105734)
(0.00831902 0.00354124 0.0110931)
(0.0107999 0.00713062 0.0107999)
(0.0131262 0.00940348 0.00999529)
(0.0153897 0.0100022 0.00935628)
(0.0170847 0.00920046 0.00950081)
(0.0170842 0.00766994 0.0107371)
(0.0142912 0.00614361 0.0131589)
(0.00817368 0.00501282 0.0161469)
(-0.00141041 0.003597 0.0187898)
(-0.0117199 0.000938656 0.0203952)
(-0.0179963 -0.0014373 0.0214398)
(-0.0204518 -0.00209832 0.0217698)
(-0.0202865 -0.00208712 0.0205989)
(-0.0189887 -0.00295616 0.0180789)
(-0.0170514 -0.00516156 0.015014)
(-0.0140824 -0.00828532 0.0116717)
(-0.00982152 -0.0115932 0.00798471)
(-0.0042944 -0.0141626 0.00373621)
(0.0039893 -0.0115565 0.0120115)
(0.00916558 -0.00811774 0.0150019)
(0.0129194 -0.00314682 0.0163058)
(0.0161209 0.00164071 0.0161209)
(0.0192769 0.00508084 0.0149597)
(0.0223302 0.00718006 0.0132386)
(0.0245018 0.00839889 0.0114951)
(0.0247993 0.0091312 0.0106145)
(0.0223091 0.00974162 0.0112969)
(0.016587 0.0103641 0.0133931)
(0.0080347 0.0103074 0.0162174)
(-0.00450063 0.00682615 0.0193661)
(-0.0146708 0.0011222 0.0222407)
(-0.0199532 -0.00257594 0.0246117)
(-0.021487 -0.00475656 0.0257856)
(-0.0207003 -0.0071693 0.0249668)
(-0.0187463 -0.0108317 0.0225162)
(-0.0157165 -0.0155513 0.0191024)
(-0.0113044 -0.0205057 0.0150217)
(-0.00530545 -0.0245177 0.0102635)
(0.00669697 -0.0249935 0.0129375)
(0.0135874 -0.0190156 0.0181928)
(0.0180082 -0.0121653 0.0210853)
(0.0217006 -0.00562144 0.0217006)
(0.0249316 -5.09626e-05 0.0200203)
(0.0276056 0.00431879 0.0166917)
(0.029145 0.0078471 0.0128005)
(0.0289627 0.0108812 0.00978934)
(0.0264885 0.0134643 0.00884599)
(0.0215025 0.0153446 0.0100716)
(0.0145964 0.0161875 0.0128228)
(0.00542567 0.0140564 0.0164243)
(-0.00644184 0.0060989 0.02077)
(-0.0147254 -0.00139583 0.0247629)
(-0.0186133 -0.00679805 0.0278994)
(-0.0194697 -0.0117164 0.0291704)
(-0.0183232 -0.0174093 0.0278115)
(-0.0158509 -0.0241842 0.0243593)
(-0.0120536 -0.0313775 0.0195731)
(-0.00588361 -0.0380192 0.0136103)
(0.00732576 -0.0408842 0.00725986)
(0.0153726 -0.0309282 0.0163344)
(0.0189811 -0.0216875 0.0208835)
(0.0219839 -0.0129744 0.0219839)
(0.0244944 -0.00521177 0.0197297)
(0.0264179 0.00153873 0.0150132)
(0.0268652 0.00762436 0.00894851)
(0.0262982 0.0129663 0.00412655)
(0.0243859 0.0172416 0.00223351)
(0.0211056 0.0194973 0.00333847)
(0.0174192 0.0199146 0.00646862)
(0.0134036 0.0182929 0.0105287)
(0.0078354 0.0124158 0.0146184)
(-0.000545001 0.00204952 0.0196174)
(-0.0070431 -0.00704864 0.0239192)
(-0.0103918 -0.0148204 0.0268238)
(-0.0116536 -0.0227453 0.0271726)
(-0.0113077 -0.0315593 0.0243716)
(-0.00993495 -0.0410455 0.0191502)
(-0.00474224 -0.0507875 0.0112835)
(0.00296485 -0.0501556 -0.00702954)
(0.0103607 -0.0377301 0.0060091)
(0.0099977 -0.0271489 0.0106315)
(0.0102734 -0.0168255 0.0102734)
(0.0106669 -0.00661467 0.00607219)
(0.0114554 0.00315044 -0.000484271)
(0.0119088 0.0112014 -0.00783485)
(0.0134707 0.0175865 -0.0128068)
(0.0149835 0.0221422 -0.0138899)
(0.0159229 0.0230484 -0.011541)
(0.0175366 0.021307 -0.00726578)
(0.0198291 0.0189435 -0.00226359)
(0.0211659 0.0150452 0.00205665)
(0.020317 0.0087023 0.0055146)
(0.0159535 -0.000704005 0.00944796)
(0.0107012 -0.0117976 0.0133207)
(0.00567029 -0.0223897 0.016182)
(0.00161636 -0.0329585 0.0158299)
(-0.00235651 -0.0440787 0.0118975)
(-0.0006379 -0.0558944 0.00274381)
(-0.00780482 -0.0453941 -0.026159)
(-0.00693861 -0.033368 -0.0145681)
(-0.0147197 -0.024221 -0.0139312)
(-0.0183201 -0.0157646 -0.0183201)
(-0.020058 -0.00728572 -0.0254377)
(-0.0195896 0.000718236 -0.0339429)
(-0.0146773 0.00706655 -0.0404456)
(-0.00697634 0.0126393 -0.0447363)
(0.00251279 0.0184013 -0.0443666)
(0.0120108 0.0179291 -0.0404652)
(0.0208546 0.0133758 -0.0351466)
(0.0295666 0.0101825 -0.0288983)
(0.0366685 0.00721287 -0.0234487)
(0.0414901 0.00349536 -0.0193942)
(0.0429773 -0.00152207 -0.0157321)
(0.0405963 -0.00816959 -0.0118403)
(0.034995 -0.0161679 -0.00786634)
(0.0267013 -0.0252366 -0.00454321)
(0.0152643 -0.0356218 -0.00389585)
(0.00852513 -0.0476235 -0.0101939)
(-0.0265456 -0.0255646 -0.0458389)
(-0.0432738 -0.0111631 -0.0472102)
(-0.0594014 -0.00142236 -0.0559877)
(-0.0663338 0.00461423 -0.0663338)
(-0.0668776 0.00874145 -0.0765184)
(-0.0613286 0.012247 -0.0857909)
(-0.050375 0.0159276 -0.0939992)
(-0.0337626 0.020221 -0.0998455)
(-0.0139387 0.0256524 -0.100373)
(0.0180585 0.0248535 -0.0962469)
(0.0368871 0.0191255 -0.090713)
(0.053472 0.0149564 -0.0821752)
(0.0656102 0.0117726 -0.0732356)
(0.0738806 0.00904374 -0.0652536)
(0.0787248 0.0064451 -0.0584289)
(0.0795623 0.00376139 -0.0518692)
(0.0754927 0.000274827 -0.0448897)
(0.0656604 -0.00531781 -0.0373358)
(0.0474304 -0.01458 -0.0296606)
(0.0259884 -0.0273172 -0.0260389)
(0.00134499 0.000634112 -0.0149066)
(0.00662562 0.000611994 -0.0109943)
(0.00792425 0.0026346 -0.00701399)
(0.00729479 0.00606813 -0.0032528)
(0.0021543 0.00958954 0.0021543)
(-0.0055096 0.00720813 0.00798538)
(-0.0104655 0.0038014 0.0137093)
(-0.0148242 0.00100362 0.0201288)
(-0.0180983 -0.00113017 0.0248366)
(-0.0200968 -0.00224679 0.0261478)
(-0.0209331 -0.00226172 0.0238926)
(-0.0207608 -0.001287 0.0192587)
(-0.0200327 0.000353943 0.013113)
(-0.0196812 0.00194633 0.00596106)
(-0.0200793 0.00202257 -0.00126159)
(-0.0193451 0.000581472 -0.00695391)
(-0.0171538 -0.000796581 -0.0113065)
(-0.0133369 -0.0017456 -0.0146632)
(-0.00911182 -0.00201585 -0.0173976)
(-0.00109713 -0.000660704 -0.0196481)
(0.00249289 0.000730141 -0.00397219)
(0.00489644 0.00370613 -0.000433965)
(0.0056298 0.00743037 0.00190578)
(0.00544162 0.0114235 0.00307157)
(0.00384348 0.0146083 0.00384348)
(0.0014471 0.0145736 0.00534956)
(-0.000859783 0.012252 0.00918534)
(-0.00422732 0.00884542 0.0150793)
(-0.00888097 0.005139 0.0207426)
(-0.0140329 0.00239061 0.0237425)
(-0.0183017 0.00113506 0.0233763)
(-0.0206348 0.00106505 0.0208583)
(-0.0209793 0.00179157 0.0171504)
(-0.0201344 0.00280171 0.012653)
(-0.0190832 0.00309773 0.00794468)
(-0.0179615 0.00218 0.00357486)
(-0.0164039 0.000459435 -0.000577595)
(-0.0137144 -0.00151136 -0.00462579)
(-0.00975513 -0.00323434 -0.00878954)
(-0.00363854 -0.0037027 -0.0133145)
(0.00214406 -0.00120502 0.00502625)
(0.0045062 0.00259283 0.00700407)
(0.00592497 0.00721129 0.00801738)
(0.00669669 0.0120142 0.00786751)