# vtk DataFile Version 2.0
track0
ASCII
DATASET POLYDATA
POINTS 12075 float
-0.0205 0.001 1e-05
-0.02052 0.000999985 1e-05
-0.02054 0.000999974 1e-05
-0.02056 0.000999965 1e-05
-0.02058 0.000999959 1e-05
-0.0206 0.000999956 1e-05
-0.0205 0.00367778 1e-05
-0.02052 0.00367778 1e-05
-0.02054 0.00367777 1e-05
-0.02056 0.00367777 1e-05
-0.02058 0.00367777 1e-05
-0.0206 0.00367777 1e-05
-0.0205 0.00635556 1e-05
-0.02052 0.00635555 1e-05
-0.02054 0.00635555 1e-05
-0.02056 0.00635555 1e-05
-0.02058 0.00635555 1e-05
-0.0206 0.00635555 1e-05
-0.0205 0.00903333 1e-05
-0.02052 0.00903333 1e-05
-0.02054 0.00903333 1e-05
-0.02056 0.00903333 1e-05
-0.02058 0.00903333 1e-05
-0.0206 0.00903333 1e-05
-0.0205 0.0117111 1e-05
-0.02052 0.0117111 1e-05
-0.02054 0.0117111 1e-05
-0.02056 0.0117111 1e-05
-0.02058 0.0117111 1e-05
-0.0206 0.0117111 1e-05
-0.0205 0.0143889 1e-05
-0.02052 0.0143889 1e-05
-0.02054 0.0143889 1e-05
-0.02056 0.0143889 1e-05
-0.02058 0.0143889 1e-05
-0.0206 0.0143889 1e-05
-0.0205 0.0170667 1e-05
-0.02052 0.0170667 1e-05
-0.02054 0.0170667 1e-05
-0.02056 0.0170667 1e-05
-0.02058 0.0170667 1e-05
-0.0206 0.0170667 1e-05
-0.0205 0.0197444 1e-05
-0.02052 0.0197444 1e-05
-0.02054 0.0197444 1e-05
-0.02056 0.0197444 1e-05
-0.02058 0.0197444 1e-05
-0.0206 0.0197444 1e-05
-0.0205 0.0224222 1e-05
-0.02052 0.0224222 1e-05
-0.02054 0.0224222 1e-05
-0.02056 0.0224222 1e-05
-0.02058 0.0224222 1e-05
-0.0206 0.0224222 1e-05
-0.0205 0.0251 1e-05
-0.02052 0.0250998 1e-05
-0.02054 0.0250997 1e-05
-0.02056 0.0250995 1e-05
-0.02058 0.0250995 1e-05
-0.0206 0.0250994 1e-05
-0.0205 0.001 1e-05
-0.0202034 0.00100022 1e-05
-0.0199069 0.00100067 1e-05
-0.0196103 0.00100132 1e-05
-0.0193137 0.00100219 1e-05
-0.0190172 0.00100326 1e-05
-0.0187132 0.00100467 1e-05
-0.0184093 0.00100589 1e-05
-0.0181054 0.0010071 1e-05
-0.0178015 0.00100832 1e-05
-0.0174976 0.00100954 1e-05
-0.0172058 0.00101083 1e-05
-0.016914 0.00101194 1e-05
-0.0166222 0.00101304 1e-05
-0.0163305 0.00101414 1e-05
-0.0160387 0.00101523 1e-05
-0.0157586 0.00101638 1e-05
-0.0154784 0.00101746 1e-05
-0.0151983 0.00101858 1e-05
-0.0149182 0.00101973 1e-05
-0.0146381 0.00102092 1e-05
-0.014376 0.0010221 1e-05
-0.0141139 0.00102328 1e-05
-0.0138518 0.0010245 1e-05
-0.0135897 0.00102574 1e-05
-0.0133685 0.00102682 1e-05
-0.0133535 0.00102689 1e-05
-0.0133385 0.00102697 1e-05
-0.0133235 0.00102704 1e-05
-0.0133084 0.00102712 1e-05
-0.0132934 0.00102719 1e-05
-0.0130353 0.00102848 1e-05
-0.0127771 0.00102979 1e-05
-0.0125189 0.00103111 1e-05
-0.0122607 0.00103245 1e-05
-0.0120025 0.00103381 1e-05
-0.0117547 0.00103512 1e-05
-0.0115068 0.00103644 1e-05
-0.0112589 0.00103777 1e-05
-0.0110111 0.0010391 1e-05
-0.0107632 0.00104043 1e-05
-0.0105252 0.00104172 1e-05
-0.0102873 0.001043 1e-05
-0.0100493 0.00104429 1e-05
-0.00981133 0.00104557 1e-05
-0.00957337 0.00104686 1e-05
-0.00934491 0.00104809 1e-05
-0.00911645 0.00104932 1e-05
-0.00888799 0.00105055 1e-05
-0.00865954 0.00105178 1e-05
-0.00843108 0.001053 1e-05
-0.00821175 0.00105417 1e-05
-0.00799242 0.00105534 1e-05
-0.00777309 0.00105651 1e-05
-0.00755376 0.00105767 1e-05
-0.00733443 0.00105883 1e-05
-0.00712387 0.00105994 1e-05
-0.0069133 0.00106104 1e-05
-0.00670273 0.00106215 1e-05
-0.00649216 0.00106325 1e-05
-0.0062816 0.00106435 1e-05
-0.00607944 0.00106539 1e-05
-0.00587729 0.00106644 1e-05
-0.00567514 0.00106749 1e-05
-0.00547298 0.00106853 1e-05
-0.00527083 0.00106958 1e-05
-0.00507675 0.00107057 1e-05
-0.00488267 0.00107156 1e-05
-0.0046886 0.00107256 1e-05
-0.00449452 0.00107355 1e-05
-0.00430044 0.00107455 1e-05
-0.00411412 0.0010755 1e-05
-0.0039278 0.00107645 1e-05
-0.00374147 0.00107741 1e-05
-0.00355515 0.00107836 1e-05
-0.00336883 0.00107932 1e-05
-0.00318995 0.00108023 1e-05
-0.00301107 0.00108116 1e-05
-0.00283219 0.00108209 1e-05
-0.00265331 0.00108302 1e-05
-0.00247443 0.00108396 1e-05
-0.0023027 0.00108487 1e-05
-0.00213097 0.00108578 1e-05
-0.00195924 0.00108671 1e-05
-0.00178751 0.00108765 1e-05
-0.00161577 0.0010886 1e-05
-0.0014509 0.00108951 1e-05
-0.00128603 0.00109045 1e-05
-0.00112116 0.00109141 1e-05
-0.00095629 0.00109239 1e-05
-0.000791418 0.00109339 1e-05
-0.000633135 0.00109438 1e-05
-0.000474851 0.0010954 1e-05
-0.000316568 0.00109645 1e-05
-0.000158285 0.00109753 1e-05
0 0.00109864 1e-05
0.000105677 0.00109939 1e-05
0.000211355 0.00110016 1e-05
0.000317032 0.00110093 1e-05
0.000422709 0.00110171 1e-05
0.000528387 0.0011025 1e-05
0.000634886 0.00110329 1e-05
0.000741385 0.00110407 1e-05
0.000847885 0.00110485 1e-05
0.000954384 0.00110562 1e-05
0.00106088 0.00110638 1e-05
0.00116821 0.00110713 1e-05
0.00127554 0.00110787 1e-05
0.00138286 0.0011086 1e-05
0.00149019 0.00110931 1e-05
0.00159752 0.00111 1e-05
0.00170568 0.00111068 1e-05
0.00181384 0.00111135 1e-05
0.001922 0.001112 1e-05
0.00203016 0.00111264 1e-05
0.00213833 0.00111325 1e-05
0.00224733 0.00111385 1e-05
0.00235633 0.00111445 1e-05
0.00246533 0.00111503 1e-05
0.00257434 0.00111559 1e-05
0.00268334 0.00111613 1e-05
0.00279319 0.00111666 1e-05
0.00290304 0.00111718 1e-05
0.00301289 0.00111769 1e-05
0.00312274 0.00111818 1e-05
0.00323259 0.00111866 1e-05
0.00334329 0.00111912 1e-05
0.003454 0.00111957 1e-05
0.0035647 0.00112001 1e-05
0.0036754 0.00112043 1e-05
0.00378611 0.00112084 1e-05
0.00389767 0.00112123 1e-05
0.00400924 0.00112162 1e-05
0.0041208 0.00112199 1e-05
0.00423237 0.00112235 1e-05
0.00434393 0.00112269 1e-05
0.00445636 0.00112302 1e-05
0.00456879 0.00112333 1e-05
0.00468123 0.00112364 1e-05
0.00479366 0.00112393 1e-05
0.00490609 0.00112421 1e-05
0.0050194 0.00112446 1e-05
0.0051327 0.00112472 1e-05
0.00524601 0.00112495 1e-05
0.00535932 0.00112518 1e-05
0.00547262 0.00112539 1e-05
0.00558681 0.00112558 1e-05
0.005701 0.00112577 1e-05
0.00581518 0.00112595 1e-05
0.00592937 0.00112611 1e-05
0.00604356 0.00112626 1e-05
0.00615863 0.00112639 1e-05
0.00627371 0.00112652 1e-05
0.00638878 0.00112663 1e-05
0.00650386 0.00112673 1e-05
0.00661893 0.00112682 1e-05
0.0067349 0.00112689 1e-05
0.00685087 0.00112696 1e-05
0.00696684 0.00112701 1e-05
0.00708281 0.00112705 1e-05
0.00719878 0.00112708 1e-05
0.00731565 0.00112709 1e-05
0.00743252 0.0011271 1e-05
0.00754939 0.0011271 1e-05
0.00766626 0.00112708 1e-05
0.00778313 0.00112705 1e-05
0.00790091 0.00112701 1e-05
0.00801869 0.00112695 1e-05
0.00813647 0.00112689 1e-05
0.00825425 0.00112682 1e-05
0.00837203 0.00112673 1e-05
0.00843713 0.00112667 1e-05
0.00850223 0.00112662 1e-05
0.00856733 0.00112655 1e-05
0.00863242 0.00112649 1e-05
0.00869506 0.00112642 1e-05
0.00874915 0.00112636 1e-05
0.00880324 0.0011263 1e-05
0.00885733 0.00112624 1e-05
0.00891142 0.00112617 1e-05
0.00896551 0.0011261 1e-05
0.00908513 0.00112594 1e-05
0.00920475 0.00112577 1e-05
0.00932437 0.00112559 1e-05
0.00944398 0.0011254 1e-05
0.0095636 0.0011252 1e-05
0.00968415 0.00112498 1e-05
0.0098047 0.00112475 1e-05
0.00992525 0.00112451 1e-05
0.0100458 0.00112425 1e-05
0.0101663 0.00112399 1e-05
0.0102878 0.00112371 1e-05
0.0104093 0.00112342 1e-05
0.0105308 0.00112311 1e-05
0.0106523 0.0011228 1e-05
0.0107738 0.00112248 1e-05
0.0108962 0.00112213 1e-05
0.0110186 0.00112178 1e-05
0.0111411 0.00112142 1e-05
0.0112635 0.00112104 1e-05
0.0113859 0.00112065 1e-05
0.0115093 0.00112024 1e-05
0.0116327 0.00111983 1e-05
0.0117561 0.0011194 1e-05
0.0118795 0.00111896 1e-05
0.0120028 0.00111851 1e-05
0.0121272 0.00111804 1e-05
0.0122515 0.00111756 1e-05
0.0123759 0.00111707 1e-05
0.0125002 0.00111657 1e-05
0.0126245 0.00111605 1e-05
0.0127498 0.00111552 1e-05
0.0128752 0.00111497 1e-05
0.0130005 0.00111441 1e-05
0.0131258 0.00111384 1e-05
0.0132511 0.00111326 1e-05
0.0133774 0.00111266 1e-05
0.0135036 0.00111205 1e-05
0.0136299 0.00111142 1e-05
0.0137562 0.00111078 1e-05
0.0138825 0.00111013 1e-05
0.0140098 0.00110946 1e-05
0.014137 0.00110878 1e-05
0.0142643 0.00110809 1e-05
0.0143915 0.00110738 1e-05
0.0145188 0.00110666 1e-05
0.0146471 0.00110592 1e-05
0.0147753 0.00110517 1e-05
0.0149036 0.0011044 1e-05
0.0150318 0.00110362 1e-05
0.0151601 0.00110283 1e-05
0.0152893 0.00110203 1e-05
0.0154186 0.0011012 1e-05
0.0155478 0.00110036 1e-05
0.0156771 0.00109951 1e-05
0.0158063 0.00109864 1e-05
0.0159366 0.00109777 1e-05
0.0160668 0.00109687 1e-05
0.0161971 0.00109595 1e-05
0.0163273 0.00109502 1e-05
0.0164576 0.00109408 1e-05
0.0165889 0.00109313 1e-05
0.0167201 0.00109215 1e-05
0.0168514 0.00109116 1e-05
0.0169827 0.00109015 1e-05
0.0171139 0.00108913 1e-05
0.0172462 0.00108811 1e-05
0.0173785 0.00108705 1e-05
0.0175108 0.00108597 1e-05
0.0176431 0.00108488 1e-05
0.0177754 0.00108378 1e-05
0.0179087 0.00108268 1e-05
0.018042 0.00108155 1e-05
0.0181753 0.00108039 1e-05
0.0183087 0.00107921 1e-05
0.018442 0.00107803 1e-05
0.0185763 0.00107684 1e-05
0.0187107 0.00107562 1e-05
0.018845 0.00107437 1e-05
0.0189794 0.0010731 1e-05
0.0191137 0.00107183 1e-05
0.0192491 0.00107056 1e-05
0.0193845 0.00106925 1e-05
0.0195199 0.00106791 1e-05
0.0196553 0.00106654 1e-05
0.0197907 0.00106519 1e-05
0.0199272 0.00106383 1e-05
0.0200636 0.00106243 1e-05
0.0202001 0.00106099 1e-05
0.0203365 0.00105954 1e-05
0.020473 0.00105809 1e-05
0.0206105 0.00105663 1e-05
0.020748 0.00105514 1e-05
0.0208855 0.0010536 1e-05
0.021023 0.00105205 1e-05
0.0211606 0.00105051 1e-05
0.0212991 0.00104895 1e-05
0.0214377 0.00104736 1e-05
0.0215763 0.00104573 1e-05
0.0217149 0.00104408 1e-05
0.0218535 0.00104243 1e-05
0.0219931 0.00104078 1e-05
0.0221328 0.00103908 1e-05
0.0222724 0.00103735 1e-05
0.0224121 0.00103559 1e-05
0.0225517 0.00103384 1e-05
0.0226925 0.00103208 1e-05
0.0228332 0.00103027 1e-05
0.022974 0.00102843 1e-05
0.0231147 0.00102656 1e-05
0.0232555 0.0010247 1e-05
0.0233973 0.00102282 1e-05
0.0235391 0.0010209 1e-05
0.023681 0.00101894 1e-05
0.0238228 0.00101696 1e-05
0.0239647 0.00101498 1e-05
0.0241076 0.00101299 1e-05
0.0242505 0.00101095 1e-05
0.0243935 0.00100887 1e-05
0.0245364 0.00100678 1e-05
0.0246794 0.00100468 1e-05
0.0248234 0.00100256 1e-05
0.0249675 0.0010004 1e-05
0.0251115 0.0009982 1e-05
0.0252556 0.000995983 1e-05
[...]
POINT_DATA 12075
 FIELD attributes 3
age 1 12075 float
0 -2e-05 -4e-05 -6e-05 -8e-05 -0.0001
0 -2e-05 -4e-05 -6e-05 -8e-05 -0.0001
0 -2e-05 -4e-05 -6e-05 -8e-05 -0.0001
0 -2e-05 -4e-05 -6e-05 -8e-05 -0.0001
0 -2e-05 -4e-05 -6e-05 -8e-05 -0.0001
0 -2e-05 -4e-05 -6e-05 -8e-05 -0.0001
0 -2e-05 -4e-05 -6e-05 -8e-05 -0.0001
0 -2e-05 -4e-05 -6e-05 -8e-05 -0.0001
0 -2e-05 -4e-05 -6e-05 -8e-05 -0.0001
0 -2.00009e-05 -4.00018e-05 -6.00027e-05 -8.00036e-05 -0.000100002
0 0.000296567 0.000593135 0.000889702 0.00118627 0.00148284 0.00178676 0.00209069 0.00239461 0.00269853 0.00300245 0.00329423 0.00358601 0.00387779 0.00416957 0.00446135 0.00474147 0.00502159 0.00530171 0.00558183 0.00586196 0.00612405 0.00638615 0.00664825 0.00691034 0.0071316 0.0071466 0.0071616 0.0071766 0.00719161 0.00720661 0.0074648 0.00772298 0.00798117 0.00823935 0.00849754 0.00874541 0.00899328 0.00924116 0.00948903 0.0097369 0.00997487 0.0102128 0.0104508 0.0106888 0.0109267 0.0111552 0.0113837 0.0116121 0.0118406 0.012069 0.0122884 0.0125077 0.012727 0.0129464 0.0131657 0.0133763 0.0135868 0.0137974 0.014008 0.0142186 0.0144207 0.0146229 0.014825 0.0150272 0.0152293 0.0154234 0.0156175 0.0158116 0.0160057 0.0161997 0.0163861 0.0165724 0.0167587 0.016945 0.0171314 0.0173102 0.0174891 0.017668 0.0178469 0.0180258 0.0181975 0.0183692 0.018541 0.0187127 0.0188844 0.0190493 0.0192142 0.0193791 0.0195439 0.0197088 0.0198671 0.0200254 0.0201837 0.020342 0.0205002 0.0206059 0.0207116 0.0208173 0.020923 0.0210286 0.0211352 0.0212417 0.0213482 0.0214547 0.0215612 0.0216685 0.0217758 0.0218831 0.0219905 0.0220978 0.022206 0.0223141 0.0224223 0.0225305 0.0226386 0.0227476 0.0228566 0.0229656 0.0230746 0.0231836 0.0232935 0.0234033 0.0235132 0.023623 0.0237329 0.0238436 0.0239543 0.024065 0.0241757 0.0242864 0.024398 0.0245096 0.0246211 0.0247327 0.0248442 0.0249567 0.0250691 0.0251815 0.025294 0.0254064 0.0255197 0.025633 0.0257463 0.0258596 0.0259729 0.0260871 0.0262013 0.0263155 0.0264297 0.0265439 0.026659 0.026774 0.0268891 0.0270042 0.0271193 0.0272352 0.0273512 0.0274672 0.0275831 0.0276991 0.027816 0.0279328 0.0280497 0.0281666 0.0282835 0.0284012 0.028519 0.0286368 0.0287546 0.0288724 0.0289375 0.0290026 0.0290676 0.0291327 0.0291954 0.0292495 0.0293036 0.0293577 0.0294117 0.0294658 0.0295855 0.0297051 0.0298247 0.0299443 0.0300639 0.0301845 0.030305 0.0304256 0.0305461 0.0306667 0.0307882 0.0309096 0.0310311 0.0311526 0.0312741 0.0313965 0.031519 0.0316414 0.0317638 0.0318863 0.0320096 0.032133 0.0322564 0.0323798 0.0325032 0.0326275 0.0327519 0.0328762 0.0330005 0.0331249 0.0332502 0.0333755 0.0335008 0.0336261 0.0337514 0.0338777 0.034004 0.0341303 0.0342566 0.0343828 0.0345101 0.0346374 0.0347646 0.0348919 0.0350192 0.0351474 0.0352757 0.0354039 0.0355322 0.0356604 0.0357897 0.035919 0.0360482 0.0361775 0.0363067 0.036437 0.0365672 0.0366975 0.0368277 0.036958 0.0370893 0.0372206 0.0373518 0.0374831 0.0376144 0.0377467 0.037879 0.0380112 0.0381435 0.0382758 0.0384092 0.0385425 0.0386758 0.0388091 0.0389424 0.0390768 0.0392112 0.0393455 0.0394799 0.0396142 0.0397496 0.0398851 0.0400205 0.0401559 0.0402913 0.0404277 0.0405642 0.0407006 0.0408371 0.0409736 0.0411111 0.0412486 0.0413861 0.0415236 0.0416612 0.0417997 0.0419383 0.0420769 0.0422155 0.0423541 0.0424938 0.0426334 0.0427731 0.0429128 0.0430525 0.0431932 0.043334 0.0434747 0.0436155 0.0437562 0.0438981 0.0440399 0.0441818 0.0443236 0.0444655 0.0446084 0.0447514 0.0448944 0.0450373 0.0451803 0.0453243 0.0454684 0.0456125 0.0457565 0.0459006 0.0460458 0.046191 0.0463362 0.0464814 0.0466266 0.0467729 0.0469192 0.0470655 0.0472119 0.0473582 0.0475056 0.0476531 0.0478006 0.047948 0.0480955 0.0482441 0.0483927 0.0485413 0.0486899 0.0488385 0.0489883 0.0491381 0.0492878 0.0494376 0.0495874 0.0497383 0.0498893 0.0500402 0.0501911 0.0503421 0.0504918 0.0506415 0.0507912 0.050941 0.0510803 0.0510848 0.0510893 0.0510937 0.0510982 0.0511026 0.0512559 0.0514092 0.0515625 0.0517158 0.0518691 0.0520236 0.0521781 0.0523326 0.0524871 0.0526416 0.0527973 0.052953 0.0531087 0.0532644 0.0534201 0.053577 0.0537339 0.0538908 0.0540477 0.0542046 0.0543628 0.0545209 0.054679 0.0548372 0.0549953 0.0551547 0.0553141 0.0554734 0.0556328 0.0557922 0.0559528 0.0561134 0.056274 0.0564346 0.0565953 0.0567571 0.056919 0.0570809 0.0572427 0.0574046 0.0575678 0.0577309 0.057894 0.0580571 0.0582203 0.0583847 0.0585491 0.0587135 0.0588779 0.0590423 0.059208 0.0593737 0.0595394 0.0597051 0.0598708 0.0600378 0.0602048 0.0603718 0.0605388 0.0607058 0.0608741 0.0610424 0.0612106 0.0613789 0.0615472 0.0617169 0.0618865 0.0620561 0.0622257 0.0623953 0.0625662 0.0627372 0.0629081 0.063079 0.06325 0.0634223 0.0635945 0.0637668 0.0639391 0.0641114 0.0641331 0.0641549 0.0641766 0.0641984 0.06422 0.0643719 0.0645238 0.0646757 0.0648276 0.0649795 0.0651544 0.0653294 0.0655044 0.0656794 0.0658544 0.0660307 0.0662071 0.0663834 0.0665597 0.0667361 0.0669138 0.0670915 0.0672693 0.067447 0.0676247 0.0678038 0.067983 0.0681621 0.0683412 0.0685203 0.0687008 0.0688813 0.0690619 0.0692424 0.0694229 0.0696048 0.0697867 0.0699687 0.0701506 0.0703325 0.0705159 0.0706992 0.0708825 0.0710659 0.0712492 0.071434 0.0716188 0.0718036 0.0719883 0.0721731 0.0723593 0.0725455 0.0727318 0.072918 0.0731042 0.0732919 0.0734795 0.0736672 0.0738548 0.0740425 0.0742316 0.0744208 0.0746099 0.074799 0.0749881 0.0749914 0.0749946 0.0749978 0.075001 0.0750042 0.0751916 0.075379 0.0755664 0.0757537 0.0759411 0.0761332 0.0763252 0.0765173 0.0767094 0.0769014 0.077095 0.0772886 0.0774821 0.0776757 0.0778692 0.0780643 0.0782593 0.0784544 0.0786495 0.0788445 0.0790411 0.0792376 0.0794342 0.0796308 0.0798273 0.0800254 0.0802235 0.0804216 0.0806197 0.0808177 0.0810173 0.081217 0.0814166 0.0816162 0.0818158 0.0820169 0.0822181 0.0824192 0.0826204 0.0828215 0.0830242 0.0832269 0.0834296 0.0836323 0.083835 0.0840393 0.0842435 0.0844478 0.0846521 0.0848563 0.0850621 0.085268 0.0854738 0.0856797 0.0858855 0.0860929 0.0863003 0.0865078 0.0867152 0.0869226 0.0871316 0.0873406 0.0875497 0.0877587 0.0879677 0.0880662 0.0881648 0.0882633 0.0883618 0.0884656 0.0885767 0.0886877 0.0887988 0.0889098 0.0890209 0.0892331 0.0894454 0.0896577 0.0898699 0.0900822 0.0902961 0.09051 0.0907239 0.0909378 0.0911517 0.0913673 0.0915828 0.0917984 0.092014 0.0922295 0.0924468 0.092664 0.0928812 0.0930985 0.0933157 0.0935346 0.0937535 0.0939724 0.0941914 0.0944103 0.0946309 0.0948515 0.0950721 0.0952928 0.0955134 0.0957357 0.0959581 0.0961804 0.0964027 0.0966251 0.0968491 0.0970732 0.0972973 0.0975213 0.0977454 0.0979712 0.0981971 0.0984229 0.0986487 0.0988745 0.0991021 0.0993297 0.0995573 0.0997849 0.100012 0.100242 0.100471 0.100701 0.10093 0.101159 0.10139 0.101622 0.101853 0.102084 0.102315 0.102548 0.102781 0.103014 0.103247 0.10348 0.103715 0.10395 0.104185 0.10442 0.104654 0.104891 0.105128 0.105364 0.105601 0.105838 0.106077 0.106315 0.106554 0.106792 0.107031 0.107272 0.107512 0.107753 0.107993 0.108234 0.108361 0.108489 0.108616 0.108744 0.108856 0.108974 0.109092 0.10921 0.109328 0.109446 0.109691 0.109935 0.110179 0.110424 0.110668 0.110915 0.111161 0.111408 0.111654 0.111901 0.112149 0.112398 0.112646 0.112895 0.113144 0.113394 0.113645 0.113895 0.114146 0.114397 0.11465 0.114902 0.115155 0.115408 0.115661 0.115916 0.116171 0.116426 0.116681 0.116936 0.117009 0.117083 0.117156 0.11723 0.117299 0.117484 0.117668 0.117853 0.118037 0.118222 0.118482 0.118741 0.119001 0.11926 0.11952 0.119782 0.120044 0.120306 0.120568 0.12083 0.121095 0.121359 0.121623 0.121887 0.122153 0.122296 0.122438 0.122581 0.122724 0.122855 0.122981 0.123108 0.123235 0.123361 0.123488 0.123757 0.124027 0.124296 0.124566 0.124836 0.125108 0.12538 0.125653 0.125925 0.126198 0.126415 0.126633 0.12685 0.127067 0.12726 0.127323 0.127386 0.127449 0.127512 0.127574 0.127852 0.12813 0.128408 0.128686 0.128965 0.129246 0.129527 0.129808 0.130089 0.130372 0.130507 0.130642 0.130778 0.130913 0.13104 0.131191 0.131342 0.131492 0.131643 0.131794 0.132081 0.132369 0.132656 0.132943 0.133233 0.133478 0.133723 0.133968 0.134213 0.134435 0.134486 0.134537 0.134587 0.134638 0.134689 0.134983 0.135277 0.135572 0.135866 0.136163 0.136452 0.136741 0.13703 0.137319 0.137579 0.137594 0.13761 0.137625 0.13764 0.137655 0.137957 0.138258 0.13856 0.138862 0.139166 0.139449 0.139733 0.140016 0.140299 0.140559 0.140587 0.140614 0.140642 0.140669 0.140697 0.141006 0.141315 0.141625 0.141934 0.142247 0.142488 0.142729 0.14297 0.143211 0.143439 0.143515 0.14359 0.143665 0.143741 0.143816 0.144134 0.144451 0.144768 0.145085 0.145405 0.14558 0.145754 0.145929 0.146103 0.146272 0.14642 0.146569 0.146717 0.146865 0.147014 0.147338 0.147663 0.147988 0.148312 0.148639 0.148734 0.148829 0.148923 0.149018 0.149112 0.149345 0.149579 0.149813 0.150047 0.150281 0.150587 0.150893 0.151198 0.151504 0.151805 0.151832 0.151858 0.151885 0.151912 0.151938 0.152272 0.152606 0.15294 0.153274 0.153608 0.153783 0.153958 0.154133 0.154308 0.154484 0.154645 0.154806 0.154967 0.155128 0.155289 0.155627 0.155965 0.156303 0.156642 0.156978 0.157023 0.157068 0.157113 0.157158 0.157204 0.157498 0.157793 0.158087 0.158381 0.158673 0.158942 0.15921 0.159478 0.159746 0.160029 0.160098 0.160167 0.160236 0.160305 0.160374 0.160715 0.161057 0.161398 0.16174 0.162077 0.162269 0.16246 0.162651 0.162843 0.163045 0.163193 0.163341 0.163488 0.163636 0.163783 0.164125 0.164468 0.16481 0.165153 0.165491 0.165666 0.165842 0.166017 0.166192 0.16638 0.166544 0.166709 0.166873 0.167037 0.167201 0.167544 0.167887 0.168231 0.168574 0.168913 0.169172 0.169431 0.169689 0.169948 0.170239 0.170317 0.170395 0.170473 0.170551 0.170629 0.170974 0.171319 0.171664 0.172008 0.17235 0.172696 0.173042 0.173387 0.173733 0.174076 0.174259 0.174441 0.174624 0.174807 0.175008 0.175169 0.175329 0.175489 0.175649 0.175809 0.176157 0.176506 0.176854 0.177203 0.177549 0.1779 0.17825 0.1786 0.17895 0.179299 0.179651 0.180003 0.180355 0.180707 0.181058 0.181147 0.181235 0.181324 0.181412 0.181505 0.18177 0.182034 0.182299 0.182563 0.182827 0.183184 0.18354 0.183896 0.184253 0.184608 0.184967 0.185325 0.185684 0.186042 0.1864 0.186761 0.187122 0.187483 0.187844 0.188205 0.188568 0.188932 0.189295 0.189659 0.190022 0.190383 0.190745 0.191107 0.191469 0.191851 0.191863 0.191874 0.191885 0.191896 0.191907 0.192264 0.192622 0.19298 0.193337 0.193695 0.194066 0.194437 0.194809 0.19518 0.195551 0.195926 0.1963 0.196674 0.197048 0.197422 0.197799 0.198176 0.198553 0.19893 0.199306 0.199686 0.200066 0.200446 0.200825 0.201205 0.201588 0.20197 0.202353 0.202736 0.203118 0.203504 0.203889 0.204275 0.20466 0.205046 0.205434 0.205823 0.206211 0.2066 0.206988 0.207379 0.207771 0.208162 0.208554 0.208945 0.20934 0.209734 0.210129 0.210523 0.210917 0.211315 0.211712 0.21211 0.212507 0.212905 0.213305 0.213706 0.214107 0.214507 0.214908 0.215157 0.215405 0.215654 0.215903 0.216196 0.216342 0.216488 0.216634 0.21678 0.216926 0.217333 0.217739 0.218146 0.218553 0.218959 0.219369 0.219779 0.220189 0.220599 0.221009 0.221422 0.221835 0.222248 0.222661 0.223074 0.22349 0.223907 0.224323 0.224739 0.225155 0.225575 0.225994 0.226414 0.226833 0.227252 0.227675 0.228098 0.228521 0.228943 0.229366 0.229776 0.230185 0.230595 0.231004 0.231414 0.231839 0.232265 0.232691 0.233116 0.233542 0.233985 0.234427 0.234869 0.235312 0.235754 0.236214 0.236674 0.237134 0.237593 0.238053 0.238531 0.239009 0.239487 0.239964 0.240442 0.240939 0.241435 0.241932 0.242428 0.242925 0.243441 0.243957 0.244473 0.244989 0.245505 0.246041 0.246577 0.247113 0.247649 0.248186 0.248743 0.2493 0.249857 0.250414 0.250971 0.25155 0.252129 0.252707 0.253286 0.253865 0.254467 0.255068 0.255669 0.256271 0.256872 0.257497 0.258122 0.258747 0.259372 0.259997 0.260646 0.261296 0.261945 0.262594 0.263244 0.263443 0.263642 0.263841 0.264041 0.264252 0.264725 0.265198 0.265671 0.266144 0.266617 0.267318 0.268019 0.26872 0.269421 0.270122 0.27085 0.271578 0.272307 0.273035 0.273763 0.27452 0.275277 0.276033 0.27679 0.277547 0.278333 0.279119 0.279905 0.280692 0.281478 0.282295 0.283112 0.283929 0.284745 0.285562 0.286411 0.28726 0.288108 0.288957 0.289806 0.290688 0.29157 0.292451 0.293333 0.294215 0.295131 0.296047 0.296964 0.29788 0.298796 0.299748 0.3007 0.301652 0.302603 0.303555 0.304544 0.305533 0.306522 0.307511 0.308501 0.309528 0.310555 0.311582 0.31261 0.313635