/*--------------------------------*- C++ -*----------------------------------*\
  =========                 |
  \\      /  F ield         | OpenFOAM: The Open Source CFD Toolbox
   \\    /   O peration     | Website:  https://openfoam.org
    \\  /    A nd           | Version:  9
     \\/     M anipulation  |
\*---------------------------------------------------------------------------*/
FoamFile
{
    format      ascii;
    class       volVectorField;
    location    "560";
    object      U;
}
// * * * * * * * * * * * * * * * * * * * * * * * * * * * * * * * * * * * * * //

dimensions      [0 1 -1 0 0 0 0];

internalField   nonuniform List<vector> 
10720
(
(-1.34675 15.0307 1.5102e-17)
(-0.473991 15.4208 -1.48625e-17)
(0.448225 15.6494 0)
(1.35345 15.4436 -1.80135e-16)
(2.18184 14.8608 2.04845e-16)
(2.87644 13.8123 1.17871e-16)
(3.33031 12.2221 1.50411e-16)
(3.45004 10.1192 0)
(3.15836 7.57712 0)
(2.44031 4.80768 0)
(1.39463 2.17104 1.43066e-17)
(0.172531 0.136972 0)
(-0.882887 -0.653555 2.60756e-15)
(-1.45117 -0.805213 0)
(-1.76547 -0.872739 0)
(-1.95024 -0.873967 0)
(-2.04887 -0.822459 -2.97382e-15)
(-2.05315 -0.717091 -4.26217e-15)
(-2.02615 -0.59078 3.97152e-15)
(-1.96443 -0.466891 0)
(-1.84666 -0.353008 3.92728e-15)
(-1.64115 -0.256666 -8.40896e-15)
(-1.34005 -0.183377 4.73489e-15)
(-0.963414 -0.138961 -1.64525e-16)
(-0.555272 -0.121655 0)
(-0.16161 -0.119182 3.88003e-15)
(0.203905 -0.112572 5.95935e-17)
(0.494396 -0.100675 -1.59651e-15)
(0.656798 -0.0707612 -5.91692e-15)
(0.638052 -0.0215081 -2.37699e-14)
(0.318981 0.0288884 1.05583e-14)
(-0.385287 0.0943838 1.60418e-14)
(-1.18943 0.192295 1.24598e-14)
(-1.87259 0.288923 4.4272e-14)
(-2.21384 0.33079 -2.13455e-14)
(-2.06885 0.299929 -1.52526e-16)
(-1.45386 0.273953 1.66908e-16)
(0.754276 -0.217747 6.30698e-14)
(-0.753533 -0.524373 -3.79988e-14)
(-2.15324 14.4774 6.14543e-18)
(-2.93871 13.7226 1.04453e-17)
(-3.6714 12.7612 -1.45437e-17)
(-4.27256 11.4561 4.4977e-18)
(-4.66196 9.9919 1e-17)
(-4.77802 8.38696 5.86521e-17)
(-4.58274 6.72819 3.84172e-16)
(-4.08121 5.13971 2.31387e-16)
(-3.34038 3.7334 0)
(-2.44666 2.55618 0)
(-1.47382 1.61798 1.33477e-15)
(-0.506703 0.91034 1.1728e-15)
(0.380854 0.383478 -3.15683e-15)
(1.21805 -0.0679055 2.22632e-15)
(2.03559 -0.426574 3.03635e-15)
(2.79545 -0.679582 1.73098e-15)
(3.48338 -0.849314 2.09285e-15)
(4.11567 -0.96362 1.34543e-15)
(4.71074 -1.03987 0)
(5.27817 -1.08509 0)
(5.82516 -1.10398 -1.88015e-15)
(6.35838 -1.09644 -9.55571e-17)
(6.8823 -1.05921 1.43681e-15)
(7.39038 -0.982163 -1.12869e-15)
(7.86199 -0.862288 6.8824e-18)
(8.28926 -0.711389 0)
(8.67874 -0.538619 3.16039e-16)
(9.03539 -0.350145 0)
(9.36189 -0.15039 0)
(9.66053 0.056502 1.43808e-16)
(9.93636 0.266934 0)
(10.1948 0.477921 -1.9628e-16)
(10.444 0.687718 -6.0442e-17)
(10.6938 0.895796 1.36795e-15)
(10.9607 1.10475 -1.19566e-15)
(11.2637 1.31962 5.86585e-18)
(11.6375 1.55562 0)
(12.1775 1.83644 -6.93355e-15)
(12.914 2.20056 -9.08684e-15)
(2.20712 13.5592 2.57924e-18)
(3.09953 13.9412 -5.0551e-18)
(4.08178 14.2064 0)
(5.07512 14.4137 0)
(5.96829 14.5472 -4.96155e-17)
(6.70486 14.6238 -9.30214e-17)
(7.22825 14.5732 0)
(7.48388 14.2776 0)
(7.41019 13.5352 1.12261e-16)
(6.92761 12.1055 0)
(5.96537 9.84573 4.17409e-16)
(4.49686 6.87769 0)
(2.64657 3.75076 2.67229e-16)
(0.780498 1.19785 -4.77738e-16)
(-0.584491 -0.0717712 1.3566e-15)
(-1.25361 -0.509128 -2.54125e-15)
(-1.61564 -0.693705 2.44436e-15)
(-1.83057 -0.734006 2.38265e-15)
(-1.94868 -0.678826 2.39333e-15)
(-1.98709 -0.576495 1.50241e-16)
(-1.94005 -0.462098 -2.62567e-15)
(-1.78911 -0.357496 2.67043e-15)
(-1.5385 -0.274692 -1.603e-16)
(-1.21654 -0.220156 0)
(-0.871474 -0.190247 0)
(-0.551756 -0.168441 0)
(-0.282201 -0.134413 1.60491e-16)
(-0.0817214 -0.0876959 -4.1613e-17)
(-0.0019954 -0.0211649 2.39532e-15)
(-0.164491 0.0690033 3.21198e-18)
(-0.662876 0.165226 -2.35161e-18)
(-1.38038 0.260372 -4.89953e-17)
(-2.07776 0.353223 5.27911e-15)
(-2.59621 0.426183 -1.0297e-14)
(-2.79327 0.432703 -8.16168e-17)
(-2.6621 0.358201 -1.65075e-14)
(-1.9974 0.29791 0)
(0.269455 -0.196317 -1.05079e-14)
(0.151153 -0.491848 -1.45941e-14)
(1.36387 13.0921 -3.575e-18)
(0.553623 12.513 1.07754e-18)
(-0.296157 11.7695 -2.92908e-17)
(-1.08627 10.829 1.75199e-17)
(-1.74574 9.69691 0)
(-2.21586 8.40565 -1.94801e-16)
(-2.44261 7.01303 -1.47309e-16)
(-2.39152 5.6173 -1.03083e-15)
(-2.07907 4.31252 4.27668e-16)
(-1.55877 3.15753 -6.22668e-16)
(-0.896058 2.18744 1.21242e-15)
(-0.156837 1.40944 -5.64735e-16)
(0.603873 0.798491 0)
(1.36094 0.301798 -5.87495e-16)
(2.10769 -0.0730449 -6.23649e-19)
(2.81984 -0.334459 -1.20904e-15)
(3.48473 -0.517408 0)
(4.11012 -0.648908 0)
(4.7069 -0.741702 -1.24417e-16)
(5.28199 -0.799833 1.14371e-16)
(5.84025 -0.827206 -1.43775e-15)
(6.38728 -0.822544 -1.64257e-16)
(6.92633 -0.781543 7.3433e-17)
(7.45233 -0.692912 9.4807e-16)
(7.94839 -0.559045 -8.10511e-16)
(8.40522 -0.40007 -6.39709e-16)
(8.82667 -0.225697 0)
(9.21666 -0.0404231 0)
(9.5771 0.152938 0)
(9.91038 0.35091 3.05865e-18)
(10.2206 0.550639 0)
(10.513 0.749802 0)
(10.7951 0.947664 1.20162e-16)
(11.0764 1.14471 -4.45158e-16)
(11.3722 1.34477 9.85448e-16)
(11.6998 1.55493 -1.51416e-15)
(12.1008 1.79616 4.15573e-15)
(12.6295 2.08801 5.5099e-15)
(13.5179 2.56306 6.83285e-15)
(1.51541 12.5058 8.87852e-19)
(2.12732 12.848 2.38217e-17)
(2.81744 13.1105 -1.89686e-17)
(3.53898 13.2819 -2.00275e-17)
(4.25287 13.3462 -6.04749e-17)
(5.00136 13.3515 1.78727e-16)
(5.74912 13.3729 -1.14836e-16)
(6.44884 13.4713 -9.68305e-17)
(7.06987 13.6348 -4.51964e-18)
(7.53316 13.6644 -9.44647e-17)
(7.68312 13.1602 7.1636e-17)
(7.28152 11.6811 -1.96887e-16)
(6.11071 9.08687 -1.0892e-16)
(4.203 5.78663 0)
(1.99007 2.72655 -4.83855e-16)
(0.226932 0.790411 1.57765e-15)
(-0.763686 -0.038932 0)
(-1.33671 -0.413961 -3.52815e-15)
(-1.68252 -0.53929 -1.74374e-15)
(-1.88112 -0.541775 2.14408e-16)
(-1.94443 -0.490692 -2.15162e-16)
(-1.87264 -0.425263 -1.06293e-16)
(-1.68414 -0.363657 -1.5831e-15)
(-1.42086 -0.313553 8.21456e-16)
(-1.1386 -0.272317 0)
(-0.890221 -0.2267 7.28391e-16)
(-0.70172 -0.160586 -8.96331e-17)
(-0.598302 -0.0713818 0)
(-0.644979 0.0431787 1.29998e-15)
(-0.91569 0.170596 2.25995e-15)
(-1.41339 0.289013 -3.9555e-15)
(-2.01835 0.386395 -3.5605e-15)
(-2.5921 0.464602 -5.29485e-17)
(-3.03182 0.517821 -6.68899e-15)
(-3.21219 0.505039 -6.4083e-15)
(-3.05401 0.393753 9.89004e-15)
(-2.35335 0.293047 0)
(-0.0712862 -0.251025 -5.71203e-15)
(0.533679 -0.851139 1.70278e-14)
(0.966994 12.09 2.01796e-19)
(0.440869 11.5744 -5.0372e-18)
(-0.0746382 10.9005 3.26953e-18)
(-0.57186 10.0822 0)
(-0.984533 9.13319 6.29736e-17)
(-1.28024 8.06403 0)
(-1.42459 6.91083 4.4888e-16)
(-1.39101 5.73927 2.76799e-16)
(-1.17589 4.61202 3.57972e-16)
(-0.798585 3.57366 0)
(-0.296764 2.65785 -1.2134e-15)
(0.289576 1.88261 -3.96988e-16)
(0.922853 1.24518 2.1936e-15)
(1.58085 0.723824 0)
(2.2484 0.316095 -1.06121e-15)
(2.90118 0.00905471 -3.12257e-16)
(3.52564 -0.222586 1.34424e-15)
(4.12299 -0.398256 7.08758e-16)
(4.69927 -0.528264 2.04829e-16)
(5.25921 -0.618081 -1.01386e-16)
(5.80625 -0.672419 1.21046e-15)
(6.34427 -0.691785 0)
(6.87551 -0.673317 0)
(7.3957 -0.610038 4.49131e-18)
(7.89108 -0.504725 0)
(8.35292 -0.371947 1.19581e-15)
(8.78356 -0.21883 -1.6528e-17)
(9.18653 -0.0491204 -9.90444e-17)
(9.56375 0.133901 0)
(9.91762 0.326167 -1.13103e-16)
(10.2521 0.524535 1.56212e-16)
(10.5721 0.726304 0)
(10.885 0.930339 -6.41246e-17)
(11.1995 1.13681 0)
(11.5305 1.34946 0)
(11.8924 1.57502 1.92208e-17)
(12.331 1.83536 -5.7978e-17)
(12.8623 2.15025 -5.30091e-15)
(13.8101 2.69167 -1.35634e-14)
(2.58603 11.6151 -6.61769e-19)
(3.14599 11.9362 8.66305e-19)
(3.76007 12.199 -6.05006e-18)
(4.40178 12.3913 -1.43825e-18)
(5.0378 12.4978 0)
(5.62603 12.5246 0)
(6.13898 12.494 -1.55663e-16)
(6.58123 12.4566 1.75727e-16)
(6.98507 12.5082 0)
(7.39739 12.732 -1.45915e-16)
(7.82643 13.0487 -1.60513e-16)
(8.13788 13.0675 -1.40701e-16)
(7.99293 12.188 1.63741e-16)
(7.01364 9.99758 1.75843e-16)
(5.07888 6.75649 0)
(2.69212 3.51062 5.10239e-16)
(0.695298 1.29442 2.65561e-16)
(-0.512807 0.230718 2.68905e-15)
(-1.20157 -0.224184 1.65571e-16)
(-1.61787 -0.401415 -1.61803e-16)
(-1.83456 -0.451734 1.44106e-15)
(-1.87596 -0.451462 -2.36648e-16)
(-1.77108 -0.427501 1.31551e-15)
(-1.5772 -0.391456 6.02785e-16)
(-1.36049 -0.343567 -3.565e-17)
(-1.18137 -0.276408 -4.99715e-16)
(-1.07269 -0.178199 4.13874e-18)
(-1.06194 -0.0470376 -4.1454e-18)
(-1.19899 0.110239 -9.41136e-16)
(-1.50271 0.266728 -2.60668e-17)
(-1.94862 0.397031 1.53502e-15)
(-2.46058 0.491387 -2.78987e-15)
(-2.95718 0.556622 -2.48506e-15)
(-3.35038 0.590122 -3.84307e-17)
(-3.50576 0.550744 4.4052e-15)
(-3.32796 0.402458 0)
(-2.61708 0.254791 5.78628e-15)
(-0.352758 -0.320945 3.80754e-15)
(0.667846 -1.15207 -5.95754e-15)
(2.06659 11.2466 -5.06783e-18)
(1.55528 10.8062 7.50412e-18)
(1.0408 10.2448 4.73067e-17)
(0.542992 9.55605 0)
(0.118845 8.74937 -5.85888e-17)
(-0.205828 7.8332 0)
(-0.40158 6.83557 -4.20291e-16)
(-0.445846 5.81188 -1.25839e-17)
(-0.334003 4.81212 3.15573e-16)
(-0.0779052 3.87103 4.16857e-16)
(0.296056 3.01839 1.48823e-17)
(0.758934 2.27339 1.2339e-15)
(1.28126 1.63779 -1.0189e-15)
(1.84396 1.10209 3.05432e-16)
(2.43199 0.667195 1.09517e-15)
(3.0233 0.324946 1.23293e-15)
(3.60379 0.0586372 -1.12402e-15)
(4.16974 -0.147471 -4.92567e-18)
(4.72279 -0.303777 0)
(5.26511 -0.416698 1.26243e-15)
(5.79844 -0.490752 6.71384e-17)
(6.32499 -0.527267 -1.03566e-15)
(6.84594 -0.524621 0)
(7.35726 -0.478077 3.34782e-18)
(7.84713 -0.38935 0)
(8.30693 -0.270159 -5.17527e-16)
(8.7375 -0.128285 0)
(9.14183 0.0316603 8.81669e-17)
(9.52167 0.205898 -3.11533e-18)
(9.87944 0.390287 1.85139e-18)
(10.219 0.581793 -1.34187e-16)
(10.5455 0.777803 -3.37027e-18)
(10.8661 0.977308 0)
(11.1896 1.1807 -1.49219e-16)
(11.5308 1.39194 -4.16729e-18)
(11.9034 1.61823 1.26669e-15)
(12.3542 1.88177 -7.10151e-15)
(12.8864 2.20926 -1.52616e-17)
(13.8211 2.76184 0)
(2.83669 10.9597 -2.57453e-18)
(3.27603 11.2687 3.04282e-19)
(3.76756 11.5424 -5.77286e-18)
(4.28632 11.771 5.77903e-17)
(4.80267 11.9319 -1.81407e-17)
(5.32181 12.0273 -4.56778e-17)
(5.83124 12.0589 7.09832e-17)
(6.30644 12.0356 0)
(6.73787 11.9899 1.91114e-16)
(7.13573 11.9994 8.01965e-17)
(7.54437 12.1791 0)
(8.00562 12.5483 1.35958e-16)
(8.41906 12.7855 -6.57306e-17)
(8.42369 12.1957 1.81421e-16)
(7.50397 10.1877 0)
(5.49328 6.98515 -4.06811e-16)
(2.95794 3.71073 5.59885e-16)
(0.845462 1.45878 -8.31838e-18)
(-0.440995 0.359661 0)
(-1.17847 -0.119656 1.16272e-15)
(-1.59795 -0.329493 -1.15382e-15)
(-1.78545 -0.425407 -6.15951e-17)
(-1.78818 -0.457937 -9.69225e-16)
(-1.67587 -0.445819 -8.92223e-16)
(-1.529 -0.396433 0)
(-1.4168 -0.310387 0)
(-1.38003 -0.182712 -1.08245e-16)
(-1.44252 -0.0154459 -1.36118e-17)
(-1.62778 0.17412 7.60569e-16)
(-1.92874 0.350364 -2.09183e-17)
(-2.32547 0.487839 1.80363e-17)
(-2.77574 0.580003 2.16132e-15)
(-3.22326 0.634978 0)
(-3.58245 0.648777 7.45776e-15)
(-3.71963 0.581064 -2.53373e-17)
(-3.53243 0.394495 0)
(-2.82713 0.193935 1.18818e-17)
(-0.606632 -0.406474 0)
(0.647954 -1.38967 4.66004e-15)
(2.43344 10.6133 5.47959e-18)
(2.03951 10.2097 -3.20301e-17)
(1.63829 9.70085 4.10605e-17)
(1.23779 9.08813 6.76785e-17)
(0.887777 8.38273 -2.47406e-16)
(0.606812 7.58475 -3.33721e-16)
(0.420253 6.71355 3.79327e-16)
(0.350608 5.81458 -4.8704e-16)
(0.406259 4.92737 -3.06372e-16)
(0.582439 4.07799 -3.63727e-16)
(0.862482 3.29203 8.68527e-16)
(1.22665 2.58889 -1.04413e-15)
(1.65501 1.97086 -5.28678e-16)
(2.13367 1.43604 4.95378e-16)
(2.6475 0.989422 -1.14869e-15)
(3.17827 0.625579 2.01677e-16)
(3.71236 0.333528 0)
(4.24327 0.101491 -8.653e-16)
(4.76938 -0.0792596 3.11602e-16)
(5.29065 -0.214744 -1.25796e-15)
(5.80732 -0.309004 0)
(6.32008 -0.36371 8.64199e-16)
(6.82902 -0.378084 7.06283e-16)
(7.33017 -0.349281 -6.03906e-16)
(7.81309 -0.278662 0)
(8.26931 -0.175696 -4.70634e-16)
(8.69839 -0.0482055 0)
(9.10251 0.0992154 0)
(9.48315 0.26276 0)
(9.8425 0.438369 9.42777e-17)
(10.1842 0.622916 0)
(10.5132 0.813717 0)
(10.8365 1.00964 -8.17337e-17)
(11.1628 1.21109 1.36784e-16)
(11.5066 1.42204 0)
(11.881 1.6501 1.10147e-15)
(12.3325 1.9176 3.58928e-17)
(12.8595 2.25716 0)
(13.76 2.81817 5.14517e-15)
(3.32524 10.3858 4.39816e-18)
(3.71526 10.678 -3.4892e-18)
(4.15018 10.9447 0)
(4.61027 11.1758 -1.96857e-18)
(5.07157 11.3529 -2.22477e-17)
(5.53486 11.4817 4.47219e-17)
(5.97351 11.5694 1.03618e-17)
(6.37542 11.6206 -1.31884e-16)
(6.74279 11.6403 -2.20179e-17)
(7.08097 11.6373 1.61292e-16)
(7.40734 11.6574 -5.46774e-17)
(7.76917 11.8164 1.08692e-16)
(8.22118 12.1908 4.96501e-17)
(8.68033 12.5026 3.44038e-17)
(8.71807 11.9831 0)
(7.7207 9.95978 -7.07142e-17)
(5.53316 6.72847 -1.84722e-16)
(2.87863 3.52728 -9.93447e-16)
(0.760918 1.40573 4.38601e-16)
(-0.50183 0.378603 -6.3843e-16)
(-1.21324 -0.0948111 -1.06805e-16)
(-1.58919 -0.332283 0)
(-1.72436 -0.44657 7.44074e-16)
(-1.70598 -0.472257 4.94356e-17)
(-1.63123 -0.428208 -2.43061e-17)
(-1.58183 -0.327171 -3.43194e-16)
(-1.60477 -0.174447 8.27319e-17)
(-1.72034 0.0214538 1.7936e-16)
(-1.92996 0.233332 -6.26367e-16)
(-2.22184 0.422991 -3.49189e-17)
(-2.58556 0.566085 1.04085e-15)
(-2.99777 0.657293 1.75558e-15)
(-3.41273 0.702925 0)
(-3.74908 0.697429 2.69784e-17)
(-3.87811 0.601602 -2.6836e-15)
(-3.69108 0.376483 0)
(-3.00313 0.119367 -6.73503e-15)
(-0.848629 -0.506086 0)
(0.529099 -1.58135 -3.76321e-15)
(2.96498 10.0661 -5.20955e-18)
(2.61311 9.70094 1.74929e-17)
(2.25324 9.2448 0)
(1.89383 8.69736 0)
(1.57761 8.07035 1.15217e-16)
(1.31733 7.36212 5.97987e-16)
(1.13388 6.58759 0)
(1.04678 5.78648 -4.43982e-16)
(1.06411 4.99166 -5.34777e-16)
(1.18372 4.22258 6.54943e-16)
(1.39417 3.5004 -1.87364e-17)
(1.68119 2.84255 4.27992e-16)
(2.03236 2.25139 -2.02864e-18)
(2.43814 1.72881 1.23957e-15)
(2.88452 1.28125 1.16274e-15)
(3.35727 0.905794 -1.10222e-15)
(3.84429 0.595881 1.64841e-16)
(4.33795 0.343572 -3.06643e-16)
(4.83453 0.142306 1.4237e-16)
(5.33224 -0.0129099 8.73689e-16)
(5.82995 -0.125602 1.14775e-16)
(6.32706 -0.19754 -9.40363e-17)
(6.82264 -0.228394 -5.9307e-16)
(7.31259 -0.2165 0)
(7.78748 -0.163158 2.99284e-17)
(8.23902 -0.075984 8.32213e-16)
(8.66563 0.0376209 -5.19453e-18)
(9.06869 0.173019 5.01914e-18)
(9.44935 0.326288 0)
(9.80948 0.493285 -8.59428e-17)
(10.1525 0.670778 0)
(10.4831 0.856055 0)
(10.8079 1.04791 7.44585e-17)
(11.1355 1.24683 -1.06259e-16)
(11.4802 1.45679 0)
(11.8544 1.68591 -9.94196e-16)
(12.3038 1.95635 5.59037e-15)
(12.8232 2.30629 -2.37309e-17)
(13.6879 2.87454 -4.53899e-15)
(3.67046 9.92272 1.12528e-19)
(4.00338 10.2034 -4.61551e-18)
(4.37736 10.4682 5.44688e-18)
(4.77379 10.7078 -5.53848e-18)
(5.17207 10.9033 1.43101e-17)
(5.57719 11.0607 0)
(5.97706 11.1801 -4.82095e-17)
(6.36027 11.2647 1.23428e-17)
(6.72243 11.3242 -5.56623e-17)
(7.05914 11.3631 -1.00102e-16)
(7.37173 11.3813 0)
(7.67381 11.4096 -2.0192e-16)
(8.0139 11.5645 -1.60364e-16)
(8.46812 11.9491 -3.58097e-16)
(8.94341 12.2607 0)
(8.91328 11.6391 -2.09059e-16)
(7.69175 9.43541 -2.47511e-16)
(5.26033 6.14554 3.35184e-16)
(2.54222 3.11314 -4.61249e-16)
(0.52683 1.22351 6.29863e-16)
(-0.63103 0.309744 9.15848e-17)
(-1.26791 -0.149847 -8.22273e-16)
(-1.57161 -0.383311 0)
(-1.66283 -0.466961 -7.05355e-16)
(-1.66193 -0.438101 4.19952e-17)
(-1.67016 -0.327523 3.34218e-16)
(-1.74277 -0.155002 0)
(-1.897 0.0622237 -1.05397e-17)
(-2.12287 0.289375 2.51011e-17)
(-2.41062 0.488543 9.16706e-16)
(-2.75647 0.636244 -8.30174e-16)
(-3.14636 0.726487 -1.46954e-15)
(-3.54141 0.763057 1.3367e-15)
(-3.86605 0.739012 3.52432e-18)
(-3.99616 0.615403 2.20854e-15)
(-3.8181 0.351766 3.43919e-15)
(-3.15717 0.036403 2.80415e-15)
(-1.08667 -0.616726 -3.24463e-17)
(0.345425 -1.74008 1.0851e-17)
(3.36318 9.62071 3.16418e-18)
(3.06297 9.282 4.06372e-17)
(2.75294 8.86261 5.35035e-17)
(2.43904 8.36361 -9.38099e-17)
(2.1595 7.79734 -3.73421e-16)
(1.92383 7.15977 1.35416e-16)
(1.75012 6.46249 3.3899e-16)
(1.65623 5.74098 1.03399e-15)
(1.6497 5.02331 5.13653e-16)
(1.72992 4.32389 -5.86783e-16)
(1.88871 3.66063 -2.88165e-17)
(2.11608 3.04778 -3.95766e-16)
(2.4051 2.4879 0)
(2.74874 1.98488 -1.6496e-17)
(3.1352 1.54453 -6.88381e-16)
(3.55397 1.16566 3.16355e-16)
(3.9949 0.845036 -3.02819e-16)
(4.45037 0.578089 0)
(4.91568 0.360368 4.9908e-16)
(5.38784 0.188095 -9.10023e-16)
(5.86459 0.0586691 0)
(6.34428 -0.0294525 7.15743e-16)
(6.82515 -0.0762305 0)
(7.30287 -0.0807666 -3.24219e-17)
(7.7687 -0.0442494 3.12211e-17)
(8.21445 0.0271616 -3.87561e-16)
(8.63768 0.126772 -6.46645e-18)
(9.03899 0.249887 -4.68748e-18)
(9.4191 0.392544 1.51484e-18)
(9.7796 0.550584 -8.38245e-17)
(10.1236 0.720724 -1.14556e-16)
(10.4553 0.900244 1.31438e-16)
(10.7814 1.08787 2.69035e-18)
(11.11 1.28415 8.71223e-18)
(11.4551 1.49305 0)
(11.8285 1.7232 -1.72623e-17)
(12.2747 1.99657 -2.4875e-15)
(12.7855 2.35644 9.26876e-18)
(13.6142 2.93106 -4.04138e-15)
(4.01694 9.52539 1.41479e-18)
(4.31234 9.7941 1.00344e-17)
(4.64505 10.0527 0)
(4.99863 10.2918 -8.8432e-18)
(5.35454 10.4932 -8.54471e-18)
(5.72033 10.6642 0)
(6.08265 10.804 -4.84828e-18)
(6.43023 10.9155 1.47406e-16)
(6.76241 11.0055 -1.88395e-16)
(7.07815 11.0796 5.59111e-17)
(7.37853 11.1385 7.56122e-17)
(7.66477 11.1759 2.56437e-16)
(7.94489 11.2168 1.72839e-16)
(8.27443 11.3884 1.92966e-16)
(8.74459 11.7926 4.78246e-17)
(9.20457 12.0318 1.48666e-16)
(8.98675 11.1538 2.08381e-16)
(7.41444 8.66472 2.35823e-16)
(4.72658 5.35152 -2.33436e-16)
(2.04684 2.5849 -9.81501e-16)
(0.227113 0.968889 0)
(-0.784021 0.163341 1.76154e-18)
(-1.31554 -0.251378 6.25133e-16)
(-1.5447 -0.424219 6.16173e-16)
(-1.62449 -0.425817 -3.65272e-17)
(-1.68567 -0.312653 -2.92504e-16)
(-1.79994 -0.125368 2.33317e-18)
(-1.98489 0.107333 -1.50611e-16)
(-2.22616 0.344761 1.40903e-17)
(-2.51661 0.550391 -1.57003e-15)
(-2.85608 0.701336 1.06332e-18)
(-3.23562 0.790152 -1.92652e-17)
(-3.62175 0.818057 -1.15123e-15)
(-3.94428 0.775943 3.81472e-18)
(-4.08363 0.624684 -1.89524e-15)
(-3.92276 0.322482 -5.90896e-15)
(-3.29732 -0.0517669 2.39534e-15)
(-1.32336 -0.733074 1.59084e-15)
(0.116889 -1.87518 -2.86969e-15)
(3.74412 9.2402 -1.65329e-17)
(3.47822 8.92461 -5.8905e-17)
(3.20255 8.53648 -4.60452e-17)
(2.92216 8.07715 -1.05998e-16)
(2.67095 7.55957 2.23473e-16)
(2.45582 6.97858 -8.03442e-19)
(2.29227 6.34372 -9.57191e-16)
(2.19634 5.68739 -4.09318e-16)
(2.17461 5.03413 -9.59583e-18)
(2.22707 4.39474 0)
(2.34716 3.78469 -6.29798e-16)
(2.5286 3.21498 6.40477e-16)
(2.7682 2.6881 -6.30171e-16)
(3.05945 2.20866 -3.20381e-16)
(3.39356 1.78111 2.91801e-16)
(3.76312 1.40525 2.82355e-16)
(4.16005 1.08022 1.06461e-15)
(4.57753 0.803907 -2.52816e-16)
(5.01066 0.573791 -4.59084e-16)
(5.45583 0.387417 0)
(5.91002 0.243179 -7.42147e-16)
(6.37079 0.140026 -5.84288e-16)
(6.83567 0.0780765 -6.27054e-18)
(7.30014 0.0577052 -6.67803e-17)
(7.75586 0.0779167 -2.59791e-17)
(8.19477 0.133894 4.01484e-16)
(8.61371 0.21956 -9.13735e-18)
(9.01252 0.330297 7.37497e-17)
(9.39152 0.462156 1.43424e-17)
(9.75194 0.611027 7.56016e-17)
(10.0965 0.773604 -2.52371e-18)
(10.4293 0.947153 -2.58256e-16)
(10.7564 1.13038 -8.75143e-17)
(11.0858 1.32384 8.02641e-17)
(11.431 1.53157 7.56498e-18)
(11.8033 1.76268 -4.87287e-18)
(12.2457 2.03893 2.27502e-15)
(12.7473 2.40793 2.95446e-15)
(13.54 2.98785 3.69655e-15)
(4.32438 9.18659 -5.86134e-18)
(4.5865 9.44518 -3.78819e-18)
(4.88291 9.69834 -2.45245e-17)
(5.19832 9.9369 7.88846e-17)
(5.5161 10.1429 -2.77022e-17)
(5.84469 10.3246 5.53986e-18)
(6.17333 10.4795 4.39073e-17)
(6.49425 10.6079 0)
(6.80619 10.7158 5.73112e-17)
(7.10639 10.8083 -2.21934e-19)
(7.39562 10.8901 -6.23418e-17)
(7.67618 10.9605 -2.38445e-16)
(7.94595 11.0081 -9.32359e-17)
(8.21235 11.0614 0)
(8.54828 11.2689 0)
(9.04707 11.6913 0)
(9.43301 11.7625 0)
(8.88971 10.4902 -1.97007e-16)
(6.87816 7.68454 2.39115e-16)
(4.00203 4.44541 3.14756e-16)
(1.48633 2.01904 -3.71252e-16)
(-0.082427 0.666296 4.04616e-16)
(-0.927984 -0.0214239 -4.71544e-16)
(-1.34413 -0.332857 -3.33693e-17)
(-1.52342 -0.388849 -1.5969e-17)
(-1.63823 -0.283456 2.7584e-16)
(-1.78858 -0.0861571 6.41455e-17)
(-1.99913 0.157354 0)
(-2.25688 0.401423 0)
(-2.55597 0.611025 2.90562e-18)
(-2.89788 0.763803 0)
(-3.2766 0.850887 1.09258e-15)
(-3.66274 0.870319 -1.02885e-15)
(-3.99123 0.810339 -1.80082e-15)
(-4.14715 0.631374 3.28524e-15)
(-4.0113 0.290431 2.61615e-15)
(-3.42912 -0.142808 -2.09693e-15)
(-1.56161 -0.852363 -2.84319e-15)
(-0.143341 -1.99309 2.57381e-15)
(4.08226 8.91517 0)
(3.84649 8.61839 1.77527e-17)
(3.60089 8.25549 8.40494e-17)
(3.34958 7.82845 -3.78524e-16)
(3.12324 7.35062 3.20048e-16)
(2.92679 6.81602 -2.49315e-16)
(2.77397 6.23259 -9.84231e-18)
(2.67914 5.6304 3.33512e-16)
(2.64817 5.03151 4.20136e-16)
(2.68105 4.44409 0)
(2.77257 3.88095 2.79335e-16)
(2.91905 3.35165 -8.44814e-16)
(3.11879 2.85828 1.39082e-15)
(3.36621 2.40435 2.67002e-16)
(3.65512 1.99324 -5.38167e-16)
(3.98051 1.62533 -5.1478e-16)
(4.33629 1.30104 -4.86713e-16)
(4.71686 1.02002 0)
(5.11768 0.781326 0)
(5.53499 0.583858 0)
(5.9654 0.42697 6.90981e-16)
(6.40595 0.310295 0)
(6.85368 0.234112 -4.75986e-16)
(7.30389 0.198688 -6.2361e-17)
(7.74851 0.203279 -4.13132e-16)
(8.17954 0.244149 -3.53511e-16)
(8.59324 0.31594 0)
(8.98879 0.414224 -6.10964e-17)
(9.36606 0.535122 -1.48986e-17)
(9.72591 0.674605 2.65558e-18)
(10.0707 0.829366 2.08801e-16)
(10.4042 0.996721 -4.51778e-18)
(10.7322 1.17533 8.47343e-17)
(11.0622 1.36583 6.21444e-17)
(11.4073 1.57225 0)
(11.7783 1.80421 1.45288e-17)
(12.2164 2.08321 -4.7493e-17)
(12.7084 2.46054 -2.78439e-15)
(13.465 3.04501 2.2172e-17)
(4.61168 8.89174 7.06466e-18)
(4.8475 9.14073 0)
(5.11501 9.38776 6.16989e-17)
(5.40009 9.62365 -4.96598e-17)
(5.68756 9.83062 1.19337e-17)
(5.98651 10.0177 -5.24036e-18)
(6.2875 10.1818 -1.3825e-17)
(6.5831 10.3221 -1.93995e-17)
(6.87274 10.4444 0)
(7.154 10.5514 -5.45872e-17)
(7.4277 10.6469 -5.5006e-17)
(7.69671 10.7355 5.16956e-17)
(7.96171 10.8129 1.96952e-16)
(8.21787 10.8649 7.79349e-17)
(8.47691 10.9374 -2.20849e-16)
(8.83983 11.2018 -1.50575e-16)
(9.3649 11.6097 1.10421e-16)
(9.57449 11.3806 8.10985e-17)
(8.55864 9.60761 -4.46342e-17)
(6.0987 6.54777 5.94156e-17)
(3.17433 3.51162 1.98906e-16)
(0.932227 1.45575 5.28086e-17)
(-0.3681 0.351266 -6.30477e-17)
(-1.04187 -0.171654 -4.40008e-16)
(-1.35847 -0.32072 0)
(-1.53629 -0.239085 -2.29856e-16)
(-1.72093 -0.0375233 -1.10727e-16)
(-1.95436 0.212708 -9.65112e-17)
(-2.22962 0.460809 -3.36731e-16)
(-2.54162 0.672538 1.20614e-15)
(-2.8923 0.826038 4.94645e-16)
(-3.27733 0.910893 1.44109e-17)
(-3.67066 0.921766 -1.22668e-18)
(-4.01202 0.843961 0)
(-4.19121 0.637143 -1.47141e-15)
(-4.08794 0.257202 0)
(-3.55639 -0.234832 0)
(-1.80353 -0.972582 1.29655e-15)
(-0.426446 -2.09864 -1.57753e-17)
(4.39395 8.63256 -2.28056e-17)
(4.1823 8.352 7.18611e-17)
(3.96112 8.0106 -1.04812e-18)
(3.73402 7.61068 8.34911e-17)
(3.52883 7.16593 -3.10119e-16)
(3.34895 6.67001 2.40107e-16)
(3.20648 6.1296 2.20162e-17)
(3.1146 5.57304 -3.06689e-16)
(3.07829 5.02036 -3.62579e-16)
(3.09714 4.47823 -4.32442e-16)
(3.16749 3.9567 -9.46244e-16)
(3.28756 3.46448 0)
(3.45525 3.00356 -4.95412e-16)
(3.66631 2.57562 -1.34389e-17)
(3.91651 2.18328 0)
(4.20274 1.82687 -4.51425e-16)
(4.52066 1.50752 -2.15886e-16)
(4.86603 1.22585 -2.07985e-16)
(5.23505 0.982152 7.55851e-16)
(5.62418 0.776506 6.95422e-16)
(6.03 0.609255 -7.71798e-17)
(6.44933 0.480658 5.73031e-16)
(6.8789 0.391388 1.2981e-16)
(7.31391 0.341834 -5.83597e-17)
(7.74646 0.331524 3.65931e-16)
(8.16858 0.357701 2.22978e-17)
(8.57608 0.415789 0)
(8.96755 0.501626 0)
(9.34242 0.61145 -2.63152e-18)
(9.70118 0.741371 6.44516e-18)
(10.0458 0.88811 -2.05985e-16)
(10.3797 1.04904 -4.26643e-18)
(10.7083 1.22282 9.71595e-17)
(11.0387 1.41016 -5.89555e-17)
(11.3835 1.61514 -8.6911e-18)
(11.7529 1.8478 -5.28329e-18)
(12.1863 2.12939 -3.9022e-15)
(12.668 2.51427 2.53937e-15)
(13.3888 3.10212 -2.04643e-17)
(4.87769 8.63303 3.27854e-18)
(5.09116 8.87335 0)
(5.3341 9.11437 -3.19964e-17)
(5.59332 9.34698 0)
(5.85475 9.55358 2.77763e-17)
(6.12784 9.7438 -2.84886e-17)
(6.40411 9.91428 -6.87429e-18)
(6.67732 10.0626 1.90375e-17)
(6.94757 10.1943 0)
(7.21201 10.3117 -2.51928e-17)
(7.47101 10.4172 6.15812e-17)
(7.72702 10.5149 -1.1706e-16)
(7.98186 10.6076 -6.32669e-17)
(8.23572 10.6875 -6.10924e-17)
(8.48027 10.741 1.44262e-16)
(8.74262 10.8475 1.4826e-16)
(9.15691 11.1809 -1.48558e-16)
(9.66963 11.4898 -1.41099e-16)
(9.5468 10.8013 0)
(7.94884 8.50097 4.72773e-17)
(5.13106 5.33039 -1.18324e-16)
(2.33132 2.61177 3.96006e-17)
(0.428117 0.931529 4.37502e-19)
(-0.606909 0.0929802 1.03975e-15)
(-1.11978 -0.207751 -5.5134e-17)
(-1.38442 -0.176055 2.80716e-17)
(-1.60616 0.0209029 9.61332e-17)
(-1.86198 0.274346 9.54134e-17)
(-2.15549 0.524498 2.68142e-16)
(-2.48314 0.736835 -5.21977e-16)
(-2.84696 0.889963 -4.2132e-16)
(-3.24363 0.97197 -1.71315e-15)
(-3.64992 0.974079 1.57898e-15)
(-4.01011 0.878406 -2.17668e-17)
(-4.21872 0.643542 1.35656e-15)
(-4.15541 0.224291 -5.05038e-17)
(-3.68169 -0.326101 2.60657e-17)
(-2.05042 -1.09226 -2.17673e-17)
(-0.726573 -2.19581 2.2305e-15)
(4.68063 8.38469 1.31845e-17)
(4.48946 8.11809 -3.55595e-17)
(4.28907 7.7951 7.20943e-17)
(4.08268 7.4183 0)
(3.89583 7.00164 1.89539e-16)
(3.73077 6.53845 0)
(3.59827 6.03464 0)
(3.51042 5.51698 0)
(3.47138 5.00402 7.09541e-16)
(3.48052 4.50103 -4.02308e-16)
(3.53546 4.01653 4.35995e-16)
(3.63506 3.55859 0)
(3.77691 3.12831 0)
(3.95793 2.726 -4.36869e-16)
(4.17521 2.35363 0)
(4.42703 2.0112 4.16618e-16)
(4.7106 1.69986 9.32653e-18)
(5.02296 1.42093 0)
(5.36119 1.17551 -5.33506e-16)
(5.72232 0.964522 -8.14878e-16)
(6.10316 0.789142 -5.84535e-16)
(6.50052 0.650353 -5.33471e-16)
(6.91109 0.54931 9.45235e-16)
(7.33007 0.486625 0)
(7.74962 0.462255 3.44084e-16)
(8.16184 0.474328 3.37908e-16)
(8.5622 0.519011 1.34754e-16)
(8.94875 0.592481 0)
(9.32052 0.691178 -1.12744e-17)
(9.6776 0.811366 -6.94116e-17)
(10.0216 0.949878 1.9637e-16)
(10.3555 1.10416 -4.0218e-18)
(10.6844 1.2729 -9.12478e-17)
(11.0149 1.4569 -3.78388e-17)
(11.3593 1.66024 4.62258e-18)
(11.7268 1.89342 -7.54409e-18)
(12.1548 2.17745 3.62819e-15)
(12.6259 2.56883 -2.36826e-15)
(13.311 3.15883 -5.64085e-15)
(5.12642 8.40365 2.29867e-18)
(5.32108 8.63589 -1.14632e-17)
(5.54328 8.87094 0)
(5.7807 9.09958 -5.6241e-17)
(6.0202 9.30451 0)
(6.27133 9.49576 0)
(6.52634 9.66988 3.68375e-18)
(6.77963 9.8233 6.61638e-18)
(7.03185 9.96172 3.15789e-17)
(7.27999 10.0867 1.22115e-16)
(7.52434 10.2001 7.2673e-17)
(7.76717 10.3051 8.80157e-17)
(8.00967 10.4043 0)
(8.25466 10.4997 1.73124e-16)
(8.49964 10.5775 -5.81616e-17)
(8.73411 10.6344 0)
(9.02021 10.7996 1.29696e-16)
(9.50151 11.1841 1.37856e-16)
(9.8969 11.2434 0)
(9.25926 9.96068 1.49198e-16)
(7.05567 7.21006 -1.84135e-16)
(4.06299 4.11528 0)
(1.54183 1.79826 -4.09381e-17)
(0.002462 0.50696 2.23256e-17)
(-0.785824 -0.0264484 2.61896e-17)
(-1.17971 -0.0863883 3.80665e-16)
(-1.45036 0.0908162 -4.45951e-19)
(-1.73006 0.343346 -9.41762e-18)
(-2.04255 0.593882 -8.57368e-18)
(-2.38763 0.805535 1.40861e-17)
(-2.7675 0.957256 4.12813e-16)
(-3.1797 1.03572 1.48314e-15)
(-3.60357 1.02877 2.23402e-17)
(-3.98772 0.91513 -1.30849e-15)
(-4.23144 0.652016 -1.17592e-15)
(-4.21525 0.193131 -1.99661e-15)
(-3.8065 -0.415047 -1.62783e-15)
(-2.30296 -1.21011 3.82403e-17)
(-1.03975 -2.28733 -2.06095e-15)
(4.94676 8.16507 -2.86046e-17)
(4.77286 7.91082 -1.01402e-16)
(4.59018 7.60386 1.99438e-16)
(4.40164 7.2471 0)
(4.23074 6.8546 3.46244e-16)
(4.07895 6.4196 0)
(3.95592 5.94729 -2.30638e-16)
(3.87263 5.46316 1.06017e-15)
(3.83259 4.98485 -9.42791e-16)
(3.83522 4.51604 0)
(3.87901 4.06441 7.44935e-16)
(3.96266 3.63778 7.44788e-16)
(4.08373 3.23602 0)
(4.23998 2.85854 -7.57175e-16)
(4.42933 2.50656 1.89353e-16)
(4.65118 2.17959 -1.86276e-16)
(4.9039 1.87862 1.85342e-16)
(5.1857 1.60515 3.39883e-16)
(5.49462 1.36078 -5.54214e-18)
(5.82836 1.14708 4.36861e-16)
(6.18416 0.965881 1.40899e-16)
(6.5591 0.818778 -1.27216e-16)
(6.95006 0.707351 -4.43457e-16)
(7.35225 0.632669 3.90142e-16)
(7.75797 0.595181 -3.04768e-16)
(8.15935 0.593786 -3.39804e-16)
(8.55164 0.625429 -1.27802e-16)
(8.93243 0.686685 -1.53269e-18)
(9.30034 0.774244 1.22126e-17)
(9.65511 0.884606 6.60993e-17)
(9.99794 1.01472 1.83005e-18)
(10.3314 1.16215 -3.77614e-18)
(10.6603 1.32565 1.03019e-16)
(10.9907 1.50609 3.87188e-17)
(11.3342 1.70761 -7.41091e-18)
(11.6995 1.9411 5.9172e-16)
(12.1217 2.22723 -1.7197e-15)
(12.5816 2.6242 0)
(13.2313 3.21527 5.4237e-15)
(5.35958 8.19863 5.96805e-18)
(5.53813 8.42338 0)
(5.7425 8.65255 0)
(5.96118 8.87695 1.01287e-16)
(6.18175 9.07946 -5.26139e-18)
(6.41377 9.27047 0)
(6.6501 9.44642 0)
(6.88562 9.60333 4.88439e-18)
(7.1215 9.74603 -1.1968e-17)
(7.35474 9.87609 -1.1478e-17)
(7.58531 9.99521 -1.67711e-16)
(7.81545 10.106 -5.05184e-17)
(8.04598 10.2098 8.79651e-17)
(8.27905 10.3101 -9.31936e-18)
(8.51761 10.4059 0)
(8.75336 10.4771 0)
(8.98376 10.5507 -3.65989e-16)
(9.32591 10.7999 -6.51696e-17)
(9.84866 11.1541 5.99871e-17)
(9.94564 10.7711 -1.36213e-16)
(8.64037 8.84108 3.0626e-16)
(5.93453 5.82052 1.90258e-16)
(2.99057 2.98559 -2.53568e-16)
(0.853955 1.1339 -3.78505e-16)
(-0.32592 0.257801 7.05133e-17)
(-0.909762 0.0441844 -3.691e-16)
(-1.25444 0.175992 -3.83645e-17)
(-1.56396 0.420906 8.43167e-18)
(-1.89681 0.669911 -7.14908e-18)
(-2.26047 0.879878 2.64458e-17)
(-2.65822 1.02938 4.02109e-19)
(-3.08868 1.10364 -6.9975e-16)
(-3.53366 1.08727 -1.91046e-17)
(-3.94612 0.955526 1.32015e-17)
(-4.23023 0.664002 0)
(-4.26805 0.165156 1.8201e-15)
(-3.93148 -0.500152 1.49185e-15)
(-2.56133 -1.32502 0)
(-1.3636 -2.37491 0)
(5.1949 7.96895 0)
(5.03578 7.72569 9.54903e-17)
(4.86844 7.43289 -3.1246e-16)
(4.69544 7.0937 -1.43204e-16)
(4.53858 6.72232 -3.23787e-16)
(4.39867 6.31188 0)
(4.28452 5.86701 0)
(4.20613 5.41211 -4.95141e-16)
(4.1662 4.9643 5.81786e-16)
(4.16462 4.5257 0)
(4.2005 4.1033 -3.26906e-16)
(4.27168 3.70509 -3.49574e-16)
(4.37603 3.32975 3.41963e-16)
(4.51182 2.97587 3.55919e-16)
(4.67762 2.64407 -6.73997e-16)
(4.87347 2.33337 0)
(5.09874 2.04439 -1.60635e-16)
(5.35255 1.77859 3.79285e-18)
(5.63388 1.53768 7.28169e-16)
(5.94118 1.32362 -1.44705e-16)
(6.27228 1.13876 1.37738e-16)
(6.62468 0.985167 -1.11044e-16)
(6.99555 0.86488 1.56269e-16)