/*--------------------------------*- C++ -*----------------------------------*\
  =========                 |
  \\      /  F ield         | OpenFOAM: The Open Source CFD Toolbox
   \\    /   O peration     | Website:  https://openfoam.org
    \\  /    A nd           | Version:  9
     \\/     M anipulation  |
\*---------------------------------------------------------------------------*/
FoamFile
{
    format      ascii;
    class       volScalarField;
    location    "0.08";
    object      epsilon;
}
// * * * * * * * * * * * * * * * * * * * * * * * * * * * * * * * * * * * * * //

dimensions      [0 2 -3 0 0 0 0];

internalField   nonuniform List<scalar> 
12225
(
278.515
263.66
249.434
236.84
226.741
219.489
215.08
213.283
213.738
216.04
219.787
224.609
230.191
236.271
242.658
249.191
255.977
265.985
61.1167
86.6982
97.9978
107.22
118.488
132.598
149.481
168.723
189.747
211.933
234.695
257.533
280.059
302.004
323.352
344.004
366.209
386.146
25.2777
36.1837
43.3835
48.6252
53.3938
58.3492
63.7922
69.86
76.5792
83.9036
91.746
100.002
108.566
117.354
126.322
135.504
145.183
155.485
17.5217
21.2989
24.7153
27.6117
30.1651
32.5454
34.8752
37.2411
39.697
42.2701
44.9691
47.7915
50.7292
53.7755
56.9313
60.2247
63.7062
67.4576
15.4879
16.752
18.1862
19.5897
20.9109
22.1514
23.3302
24.4711
25.5951
26.7178
27.8496
28.9967
30.1633
31.353
32.5706
33.8276
35.1375
36.5085
14.9085
15.2397
15.7465
16.3344
16.9483
17.5601
18.1577
18.7384
19.3043
19.8587
20.4049
20.9459
21.4843
22.0228
22.5642
23.113
23.6734
24.2417
14.7451
14.7391
14.8342
15.0037
15.2218
15.4684
15.7295
15.9962
16.264
16.5305
16.7945
17.056
17.3152
17.5726
17.8294
18.0869
18.3464
18.604
14.7013
14.5825
14.5116
14.4858
14.4982
14.5405
14.6046
14.6843
14.7746
14.8722
14.9746
15.0802
15.1879
15.2973
15.4081
15.5203
15.634
15.7466
14.6901
14.5373
14.407
14.3008
14.2182
14.1571
14.1146
14.0877
14.0736
14.0698
14.0744
14.0857
14.1025
14.1239
14.1492
14.1779
14.2095
14.2425
14.6874
14.5252
14.3761
14.2411
14.1204
14.0137
13.9202
13.839
13.7688
13.7084
13.6566
13.6123
13.5747
13.5429
13.5163
13.4943
13.4765
13.4621
14.6868
14.5221
14.3677
14.2236
14.0895
13.9655
13.8511
13.7459
13.6493
13.5609
13.48
13.406
13.3383
13.2765
13.22
13.1685
13.1216
13.0791
14.6866
14.5213
14.3656
14.219
14.0812
13.9518
13.8304
13.7167
13.6103
13.5109
13.4179
13.3311
13.2501
13.1745
13.1039
13.0381
12.9768
12.9201
14.6865
14.521
14.3648
14.2175
14.0785
13.9472
13.8233
13.7064
13.5961
13.492
13.3939
13.3013
13.214
13.1316
13.054
12.9809
12.912
12.8477
14.6864
14.5208
14.3645
14.2169
14.0774
13.9456
13.8209
13.7029
13.5911
13.4853
13.3851
13.2902
13.2003
13.115
13.0342
12.9577
12.8852
12.8172
14.6864
14.5207
14.3643
14.2165
14.0769
13.9449
13.8199
13.7016
13.5894
13.4831
13.3823
13.2867
13.1959
13.1097
13.0278
12.9501
12.8762
12.8068
14.6863
14.5206
14.3641
14.2163
14.0766
13.9444
13.8193
13.7009
13.5886
13.4822
13.3812
13.2853
13.1943
13.1079
13.0257
12.9476
12.8734
12.8035
14.6863
14.5205
14.364
14.2161
14.0763
13.9441
13.8189
13.7004
13.5881
13.4816
13.3805
13.2846
13.1935
13.1069
13.0246
12.9464
12.872
12.8021
14.6863
14.5204
14.3639
14.216
14.0761
13.9439
13.8187
13.7001
13.5877
13.4811
13.38
13.284
13.1929
13.1063
13.0239
12.9456
12.8712
12.8011
14.6863
14.5204
14.3639
14.2159
14.0761
13.9438
13.8186
13.7
13.5876
13.481
13.3799
13.2838
13.1926
13.106
13.0236
12.9453
12.8708
12.8007
14.6863
14.5205
14.3639
14.216
14.0762
13.9439
13.8188
13.7002
13.5878
13.4812
13.3801
13.2842
13.193
13.1064
13.024
12.9457
12.8713
12.8012
14.6863
14.5205
14.364
14.2162
14.0764
13.9443
13.8192
13.7008
13.5886
13.4822
13.3813
13.2856
13.1948
13.1085
13.0265
12.9486
12.8746
12.805
14.6863
14.5206
14.3643
14.2167
14.0774
13.9458
13.8214
13.704
13.5929
13.488
13.3888
13.2949
13.2061
13.1221
13.0426
12.9672
12.896
12.8292
14.6865
14.5212
14.3659
14.2202
14.0837
13.9561
13.8369
13.7256
13.6219
13.5251
13.4349
13.3507
13.2721
13.1987
13.1302
13.066
13.0061
12.9506
14.6876
14.5264
14.3794
14.2467
14.1282
14.0231
13.9302
13.8484
13.7762
13.7126
13.6564
13.6066
13.5626
13.5235
13.4887
13.4577
13.4301
13.406
14.6976
14.5664
14.4707
14.4075
14.3714
14.3567
14.3583
14.3717
14.3938
14.4219
14.4545
14.49
14.5277
14.5669
14.6072
14.6481
14.6895
14.7312
14.7737
14.8186
14.9602
15.159
15.3861
15.623
15.8592
16.0897
16.3124
16.5271
16.7342
16.9345
17.1288
17.3181
17.5031
17.6843
17.8623
18.0366
15.2587
16.1151
17.071
17.9723
18.7872
19.5229
20.1931
20.813
21.3963
21.9541
22.4947
23.0241
23.5467
24.0653
24.5818
25.0969
25.6108
26.1211
18.0414
22.0077
24.9882
27.1525
28.887
30.4028
31.8093
33.1739
34.5375
35.9228
37.3406
38.7949
40.2847
41.8061
43.3535
44.9206
46.5009
48.0814
34.0238
45.687
51.3752
54.9396
58.0763
61.2909
64.7403
68.4681
72.4583
76.6681
81.047
85.5455
90.1172
94.7203
99.3193
103.885
108.403
112.846
163.308
157.417
151.704
146.261
141.3
136.946
133.249
130.204
127.777
125.914
124.552
123.628
123.081
122.855
122.898
123.164
123.614
124.211
5.99129
2.92694
3.81238
4.50471
5.06219
5.51771
5.89403
6.20912
6.47938
6.72302
6.96468
7.21236
7.47467
7.75902
8.06691
8.38699
8.68769
8.91185
8.99235
8.78686
8.84864
8.90764
9.00609
9.00456
38.6919
9.05176
39.8104
42.8254
48.3678
54.3786
60.6933
67.2257
73.9068
80.6795
87.4983
94.3277
101.142
107.922
114.659
121.349
127.992
134.593
141.162
147.709
154.245
160.784
167.34
173.925
180.553
187.236
193.986
200.815
207.732
214.748
221.87
229.106
236.464
243.95
251.567
259.321
267.216
275.253
283.435
291.763
300.238
308.859
317.626
326.537
335.59
344.783
354.113
363.575
373.166
382.88
392.713
402.659
412.71
422.861
433.104
443.431
453.833
464.302
474.828
485.402
496.015
506.656
517.319
527.997
538.688
549.4
560.152
570.989
581.895
592.73
603.489
614.163
624.739
635.201
645.535
655.722
665.747
675.59
685.234
694.661
703.851
712.787
721.448
729.815
737.867
745.586
752.95
759.938
766.531
772.707
778.445
783.725
788.525
792.827
796.609
799.853
802.541
804.655
806.18
807.102
807.408
807.088
806.136
804.546
802.318
799.453
795.958
791.842
787.119
781.808
775.932
769.517
762.594
755.2
747.373
739.157
730.598
721.743
712.646
703.351
693.932
684.428
674.871
665.398
656.08
647.595
642.86
639.305
635.846
632.437
629.111
625.909
622.873
620.04
617.445
615.119
613.09
611.382
610.013
608.998
608.347
608.064
608.145
608.582
609.356
610.44
611.794
613.36
615.06
616.783
618.366
619.557
619.895
618.365
612.366
593.557
7.59903
5.47212
5.28062
5.29421
5.34083
5.39777
5.46776
5.5597
5.68612
5.86493
6.1133
6.44083
6.86429
7.40852
8.10671
9.00448
10.1846
11.7326
13.7514
16.5566
18.9336
21.2816
23.6398
26.1837
29.329
31.5689
35.3412
38.4392
41.4175
44.3191
47.1763
49.9963
52.7808
55.5329
58.2577
60.9608
63.6481
66.325
68.9967
71.6683
74.3443
77.0294
79.7277
82.4435
85.1805
87.9426
90.7333
93.5559
96.4136
99.3093
102.246
105.225
108.25
111.322
114.444
117.616
120.84
124.117
127.448
130.833
134.273
137.768
141.318
144.923
148.583
152.296
156.062
159.879
163.748
167.666
171.631
175.643
179.698
183.796
187.933
192.108
196.317
200.559
204.829
209.126
213.445
217.784
222.14
226.509
230.888
235.275
239.668
244.067
248.473
252.892
257.333
261.81
266.35
270.873
275.367
279.827
284.247
288.622
292.946
297.212
301.414
305.546
309.601
313.572
317.453
321.237
324.916
328.484
331.933
335.255
338.443
341.49
344.388
347.129
349.705
352.109
354.332
356.368
358.208
359.846
361.275
362.487
363.478
364.241
364.771
365.065
365.12
364.933
364.503
363.832
362.919
361.769
360.387
358.777
356.949
354.912
352.677
350.256
347.663
344.914
342.025
339.013
335.898
332.694
329.43
326.119
322.745
319.423
316.151
313.071
310.624
308.532
306.567
304.674
302.843
301.08
299.393
297.788
296.273
294.855
293.538
292.327
291.223
290.227
289.337
288.549
287.858
287.257
286.734
286.277
285.869
285.488
285.111
284.706
284.238
283.675
282.974
282.208
281.379
283.16
11.2764
7.5575
6.80076
6.50035
6.34207
6.25904
6.23658
6.27797
6.39773
6.6111
6.93127
7.38341
8.00333
8.84328
9.95316
11.3607
13.0999
15.1682
17.5048
19.9971
22.4403
24.7924
27.0401
29.2257
31.4006
33.5739
35.8192
38.0141
40.1619
42.2851
44.4016
46.5188
48.6391
50.7637
52.8938
55.03
57.1732
59.3244
61.4847
63.6554
65.8381
68.0345
70.2466
72.4766
74.7265
76.9985
79.2947
81.6174
83.9683
86.3496
88.7629
91.2098
93.692
96.2107
98.7672
101.362
103.997
106.673
109.389
112.146
114.946
117.786
120.669
123.593
126.557
129.563
132.608
135.691
138.813
141.972
145.166
148.395
151.656
154.949
158.271
161.621
164.997
168.396
171.818
175.259
178.717
182.192
185.68
189.181
192.693
196.214
199.744
203.285
206.835
210.398
213.976
217.571
221.168
224.748
228.302
231.827
235.317
238.769
242.177
245.536
248.843
252.091
255.276
258.394
261.438
264.403
267.285
270.078
272.777
275.376
277.869
280.252
282.518
284.662
286.679
288.562
290.307
291.907
293.357
294.653
295.788
296.759
297.56
298.188
298.639
298.91
298.999
298.903
298.623
298.158
297.509
296.678
295.669
294.486
293.135
291.622
289.956
288.146
286.202
284.135
281.959
279.684
277.327
274.895
272.41
269.901
267.363
264.834
262.332
259.914
257.703
255.663
253.725
251.859
250.056
248.316
246.639
245.028
243.487
242.018
240.621
239.297
238.045
236.864
235.75
234.7
233.707
232.765
231.867
231.001
230.157
229.322
228.481
227.621
226.732
225.819
224.914
224.19
223.95
225.763
15.6627
9.65897
8.32771
7.79172
7.51886
7.38142
7.34408
7.40428
7.57648
7.86361
8.29652
8.90314
9.7224
10.7952
12.1539
13.8075
15.734
17.8721
20.1261
22.388
24.5677
26.6275
28.5738
30.4451
32.2872
34.1357
36.0045
37.8852
39.7754
41.6796
43.6022
45.5447
47.5067
49.4871
51.4847
53.4984
55.5275
57.5714
59.63
61.7037
63.793
65.8987
68.0221
70.1645
72.3272
74.512
76.7204
78.9541
81.2147
83.5039
85.8232
88.1741
90.5581
92.9764
95.4301
97.9205
100.448
103.015
105.62
108.264
110.949
113.673
116.438
119.242
122.086
124.97
127.892
130.853
133.85
136.884
139.954
143.057
146.193
149.36
152.556
155.781
159.031
162.307
165.604
168.923
172.26
175.615
178.985
182.369
185.765
189.172
192.589
196.016
199.45
202.892
206.34
209.788
213.223
216.637
220.024
223.379
226.699
229.977
233.21
236.394
239.522
242.591
245.596
248.532
251.394
254.177
256.876
259.486
262.003
264.422
266.736
268.943
271.036
273.01
274.861
276.584
278.173
279.625
280.934
282.097
283.107
283.962
284.657
285.19
285.556
285.753
285.779
285.633
285.313
284.82
284.155
283.319
282.316
281.15
279.825
278.348
276.726
274.968
273.084
271.08
268.975
266.77
264.49
262.151
259.764
257.344
254.901
252.454
250.021
247.633
245.341
243.147
241.033
238.986
237.001
235.078
233.217
231.421
229.69
228.025
226.426
224.894
223.426
222.02
220.673
219.381
218.138
216.938
215.775
214.64
213.525
212.422
211.32
210.215
209.108
208.021
207.012
206.263
206.077
207.336
20.4117
11.8341
9.93963
9.1977
8.84116
8.6799
8.65889
8.76831
8.99556
9.35865
9.88391
10.6014
11.5415
12.7282
14.1694
15.8482
17.7184
19.7089
21.7376
23.731
25.6419
27.4585
29.1982
30.8953
32.5851
34.2933
36.0322
37.8041
39.6084
41.4446
43.3124
45.2106
47.1377
49.0919
51.0715
53.0752
55.1016
57.1497
59.219
61.309
63.4198
65.5516
67.7049
69.8804
72.079
74.302
76.5506
78.8261
81.13
83.4638
85.8289
88.2269
90.6593
93.1273
95.6324
98.1757
100.758
103.381
106.046
108.752
111.5
114.292
117.127
120.004
122.925
125.889
128.895
131.942
135.031
138.16
141.328
144.533
147.776
151.053
154.363
157.705
161.077
164.477
167.903
171.353
174.825
178.317
181.827
185.353
188.892
192.443
196.005
199.573
203.148
206.725
210.301
213.866
217.412
220.932
224.421
227.874
231.286
234.652
237.967
241.226
244.423
247.555
250.615
253.598
256.5
259.315
262.038
264.664
267.188
269.605
271.911
274.099
276.167
278.108
279.918
281.593
283.128
284.518
285.76
286.849
287.781
288.552
289.16
289.6
289.87
289.968
289.891
289.639
289.211
288.607
287.829
286.877
285.756
284.469
283.021
281.42
279.671
277.781
275.765
273.624
271.383
269.052
266.644
264.173
261.651
259.091
256.506
253.911
251.323
248.762
246.254
243.812
241.434
239.118
236.864
234.672
232.543
230.481
228.485
226.556
224.694
222.899
221.168
219.499
217.889
216.333
214.828
213.367
211.943
210.552
209.185
207.836
206.5
205.178
203.877
202.629
201.502
200.665
200.362
201.098
25.3189
14.0858
11.6518
10.7209
10.2945
10.12
10.1186
10.2534
10.5171
10.9252
11.4991
12.2613
13.2305
14.4151
15.8073
17.3786
19.0815
20.8568
22.6462
24.4049
26.11
27.762
29.3784
30.9843
32.6036
34.2534
35.9426
37.6742
39.4483
41.264
43.12
45.0147
46.9466
48.9141
50.9157
52.9498
55.0151
57.1105
59.2348
61.3873
63.5674
65.7749
68.0097
70.272
72.5624
74.8816
77.2305
79.6103
82.0221
84.4675
86.9479
89.4647
92.0196
94.6141
97.2497
99.9277
102.65
105.416
108.229
111.089
113.997
116.954
119.959
123.013
126.117
129.269
132.47
135.719
139.016
142.359
145.747
149.18
152.655
156.171
159.726
163.319
166.947
170.609
174.301
178.022
181.769
185.539
189.33
193.14
196.965
200.803
204.65
208.504
212.362
216.22
220.068
223.897
227.701
231.474
235.211
238.905
242.55
246.143
249.675
253.142
256.538
259.857
263.093
266.241
269.295
272.248
275.097
277.834
280.456
282.956
285.329
287.571
289.677
291.642
293.461
295.131
296.646
298.003
299.197
300.225
301.084
301.769
302.279
302.609
302.759
302.725
302.506
302.102
301.513
300.739
299.781
298.641
297.324
295.834
294.173
292.353
290.38
288.254
286.004
283.633
281.155
278.582
275.927
273.205
270.427
267.608
264.761
261.9
259.039
256.197
253.391
250.634
247.931
245.287
242.704
240.185
237.733
235.349
233.035
230.792
228.62
226.517
224.482
222.513
220.607
218.758
216.964
215.217
213.514
211.847
210.212
208.604
207.022
205.467
203.955
202.521
201.233
200.241
199.727
199.987
30.2048
16.4576
13.4482
12.3162
11.8146
11.6209
11.6186
11.7551
12.0269
12.4427
13.0162
13.7612
14.6864
15.7912
17.0617
18.4699
19.9774
21.5412
23.1234
24.6976
26.2527
27.7922
29.3288
30.8789
32.4577
34.076
35.7399
37.4522
39.2135
41.0234
42.8811
44.7858
46.7363
48.7315
50.7701
52.8509
54.9725
57.1337
59.3331
61.5697
63.8426
66.151
68.4944
70.8728
73.2861
75.7348
78.2195
80.7412
83.3008
85.8998
88.5395
91.2215
93.9475
96.7191
99.538
102.406
105.324
108.294
111.318
114.395
117.528
120.718
123.964
127.267
130.628
134.046
137.521
141.052
144.64
148.282
151.977
155.725
159.523
163.37
167.264
171.202
175.182
179.202
183.259
187.349
191.471
195.621
199.795
203.99
208.203
212.429
216.666
220.908
225.152
229.393
233.615
237.811
241.977
246.104
250.188
254.22
258.195
262.106
265.946
269.708
273.387
276.974
280.463
283.848
287.122
290.279
293.313
296.217
298.986
301.613
304.094
306.424
308.596
310.608
312.454
314.129
315.63
316.954
318.095
319.052
319.82
320.398
320.782
320.971
320.963
320.756
320.35
319.744
318.939
317.936
316.738
315.345
313.764
312.001
310.054
307.941
305.671
303.25
300.692
298.008
295.211
292.314
289.33
286.273
283.157
279.997
276.805
273.598
270.388
267.191
264.022
260.894
257.817
254.796
251.837
248.944
246.122
243.372
240.696
238.096
235.572
233.123
230.747
228.442
226.204
224.03
221.916
219.855
217.842
215.874
213.944
212.05
210.193
208.377
206.621
204.96
203.46
202.249
201.455
201.256
34.6107
18.7003
15.1787
13.8659
13.2944
13.0718
13.044
13.1659
13.4238
13.8184
14.3559
15.043
15.8828
16.8711
17.9945
19.2313
20.5538
21.9336
23.3462
24.7759
26.2164
27.67
29.1446
30.65
32.1951
33.7869
35.4298
37.1264
38.8778
40.6846
42.5469
44.4644
46.437
48.464
50.5447
52.678
54.8629
57.0981
59.3822
61.7141
64.0925
66.5164
68.9851
71.498
74.055
76.6561
79.3016
81.9924
84.7293
87.5136
90.3467
93.2301
96.1655
99.1548
102.2
105.302
108.464
111.686
114.971
118.319
121.733
125.212
128.758
132.372
136.052
139.801
143.616
147.498
151.446
155.458
159.533
163.671
167.867
172.122
176.432
180.794
185.207
189.666
194.169
198.712
203.291
207.903
212.544
217.209
221.894
226.594
231.304
236.02
240.737
245.44
250.117
254.762
259.368
263.928
268.435
272.879
277.255
281.554
285.768
289.889
293.909
297.821
301.616
305.287
308.827
312.229
315.484
318.587
321.53
324.308
326.914
329.343
331.589
333.65
335.519
337.192
338.667
339.939
341.005
341.863
342.509
342.943
343.162
343.164
342.951
342.52
341.872
341.006
339.925
338.633
337.131
335.419
333.507
331.405
329.115
326.649
324.017
321.228
318.294
315.228
312.043
308.752
305.37
301.912
298.392
294.825
291.225
287.608
283.987
280.378
276.793
273.247
269.75
266.309
262.933
259.626
256.392
253.237
250.161
247.167
244.254
241.422
238.67
235.995
233.393
230.86
228.393
225.986
223.634
221.331
219.076
216.864
214.698
212.586
210.546
208.613
206.848
205.356
204.223
203.561
38.4509
20.7148
16.7472
15.2746
14.6324
14.3587
14.3019
14.4014
14.6335
14.9913
15.4753
16.0876
16.8286
17.6939
18.674
19.7541
20.9161
22.1419
23.416
24.7283
26.0741
27.454
28.8719
30.333
31.8427
33.4056
35.025
36.7036
38.4431
40.2449
42.1102
44.0397
46.0338
48.0928
50.2163
52.4039
54.6547
56.9678
59.342
61.7759
64.2683
66.8182
69.4245
72.0865
74.8038
77.5762
80.404
83.2876
86.2279
89.226
92.2832
95.4012
98.5817
101.826
105.138
108.517
111.966
115.488
119.082
122.753
126.499
130.323
134.226
138.207
142.268
146.408
150.627
154.924
159.298
163.747
168.271
172.867
177.533
182.266
187.064
191.924
196.842
201.814
206.837
211.907
217.018
222.168
227.35
232.559
237.791
243.039
248.298
253.561
258.821
264.054
269.254
274.413
279.525
284.579
289.568
294.483
299.314
304.052
308.688
313.213
317.617
321.892
326.028
330.016
333.849
337.517
341.013
344.328
347.455
350.388
353.119
355.642
357.954
360.049
361.922
363.57
364.99
366.177
367.131
367.848
368.327
368.568
368.57
368.331
367.853
367.137
366.185
364.996
363.571
361.922
360.05
357.958
355.655
353.15
350.449
347.563
344.502
341.277
337.902
334.389
330.752
327.007
323.167
319.248
315.266
311.236
307.174
303.094
299.011
294.94
290.895
286.888
282.931
279.033
275.202
271.445
267.766
264.171
260.661
257.238
253.904
250.657
247.496
244.418
241.42
238.498
235.646
232.861
230.137
227.469
224.855
222.291
219.782
217.334
214.968
212.715
210.631
208.801
207.277
206.134
41.6594
22.4363
18.0899
16.4656
15.7365
15.4182
15.334
15.4096
15.6128
15.9306
16.3591
16.8976
17.5455
18.3001
19.1556
20.1032
21.1322
22.2314
23.3913
24.6046
25.8676
27.1794
28.5414
29.9561
31.4268
32.9567
34.5488
36.206
37.9306
39.725
41.5911
43.5308
45.5452
47.6355
49.802
52.0449
54.3638
56.7581
59.227
61.7694
64.3841
67.0701
69.8263
72.652
75.5467
78.5099
81.542
84.6431
87.8141
91.056
94.3701
97.7579
101.221
104.762
108.382
112.083
115.868
119.738
123.695
127.74
131.876
136.102
140.421
144.831
149.335
153.93
158.618
163.396
168.263
173.219
178.26
183.384
188.589
193.871
199.228
204.655
210.149
215.704
221.318
226.984
232.698
238.453
244.246
250.068
255.914
261.777
267.651
273.528
279.382
285.2
290.976
296.702
302.368
307.964
313.479
318.904
324.227
329.439
334.528
339.483
344.295
348.953
353.446
357.764
361.897
365.836
369.572
373.096
376.4
379.474
382.312
384.909
387.258
389.356
391.199
392.782
394.103
395.16
395.95
396.471
396.726
396.713
396.433
395.887
395.076
394.006
392.679
391.097
389.265
387.191
384.879
382.337
379.572
376.594
373.413
370.038
366.482
362.758
358.878
354.857
350.71
346.451
342.098
337.666
333.171
328.629
324.057
319.469
314.881
310.307
305.762
301.258
296.807
292.418
288.102
283.863
279.709
275.644
271.671
267.792
264.007
260.316
256.717
253.207
249.784
246.443
243.178
239.985
236.858
233.794
230.787
227.838
224.949
222.128
219.393
216.775
214.32
212.098
210.137
208.489
44.1999
23.832
19.1498
17.3768
16.5783
16.2236
16.116
16.1704
16.348
16.6309
17.0121
17.489
18.0606
18.7259
19.4819
20.3245
21.2477
22.2453
23.3113
24.4406
25.6302
26.8785
28.1857
29.553
30.9827
32.4774
34.0401
35.674
37.3824
39.1684
41.035
42.9849
45.0203
47.1433
49.355
51.6564
54.0478
56.5293
59.1005
61.7606
64.509
67.3447
70.267
73.275
76.3683
79.5466
82.81
86.1587
89.5934
93.1152
96.7251
100.425
104.216
108.1
112.079
116.155
120.331
124.607
128.986
133.469
138.057
142.751
147.552
152.46
157.476
162.598
167.825
173.157
178.591
184.125
189.756
195.481
201.297
207.2
213.187
219.252
225.391
231.599
237.87
244.199
250.58
257.006
263.47
269.966
276.487
283.023
289.568
296.098
302.588
309.032
315.422
321.748
327.999
334.164
340.229
346.184
352.016
357.713
363.263
368.655
373.876
378.913
383.757
388.394
392.814
397.006
400.961
404.668
408.119
411.301
414.209
416.837
419.18
421.232
422.991
424.453
425.616
426.48
427.04
427.298
427.256
426.916
426.282
425.354
424.139
422.64
420.863
418.813
416.497
413.923
411.098
408.03
404.731
401.209
397.477
393.547
389.431
385.143
380.698
376.111
371.398
366.575
361.658
356.665
351.613
346.517
341.394
336.261
331.132
326.022
320.945
315.914
310.941
306.036
301.208
296.464
291.81
287.252
282.791
278.431
274.172
270.013
265.952
261.986
258.113
254.326
250.622
246.994
243.437
239.946
236.518
233.151
229.848
226.616
223.473
220.446
217.573
214.911
212.47
210.29
46.0765
24.842
19.8945
18.0129
17.162
16.7789
16.6529
16.6914
16.8503
17.1083
17.4557
17.8887
18.4059
19.0071
19.6913
20.4569
21.3013
22.2212
23.2132
24.2738
25.4009
26.593
27.85
29.1729
30.5637
32.025
33.5603
35.1733
36.8682
38.6491
40.52
42.4846
44.5465
46.7084
48.9729
51.3416
53.816
56.3967
59.0842
61.8785
64.7793
67.7862
70.8987
74.1164
77.439
80.8662
84.3981
88.0351
91.7777
95.6268
99.5836
103.649
107.825
112.114
116.516
121.033
125.668
130.422
135.296
140.291
145.409
150.649
156.012
161.498
167.107
172.836
178.685
184.652
190.733
196.925
203.225
209.629
216.132
222.731
229.419
236.193
243.046
249.972
256.964
264.017
271.124
278.276
285.466
292.687
299.93
307.185
314.431
321.631
328.779
335.866
342.883
349.818
356.661
363.396
370.007
376.484
382.811
388.978
394.969
400.773
406.374
411.76
416.918
421.835
426.499
430.899
435.022
438.861
442.406
445.638
448.554
451.147
453.414
455.351
456.952
458.218
459.145
459.735
459.986
459.901
459.483
458.736
457.664
456.274
454.57
452.56
450.251
447.652
444.77
441.616
438.2
434.532
430.624
426.488
422.137
417.586
412.847
407.937
402.871
397.666
392.338
386.904
381.382
375.788
370.141
364.457
358.753
353.045
347.347
341.676
336.045
330.466
324.951
319.511
314.154
308.887
303.717
298.649
293.684
288.827
284.075
279.43
274.888
270.448
266.103
261.851
257.685
253.599
249.587
245.645
241.768
237.955
234.207
230.532
226.944
223.467
220.134
216.991
214.033
211.296
47.217
25.4734
20.3597
18.4043
17.5156
17.1117
16.9732
17.0023
17.1514
17.3968
17.7268
18.136
18.6226
19.1862
19.8269
20.5443
21.3376
22.2052
23.1454
24.1563
25.2366
26.3855
27.6034
28.8916
30.2525
31.6894
33.2064
34.8081
36.4997
38.2863
40.1734
42.1658
44.2683
46.485
48.8195
51.2748
53.8533
56.5568
59.3869
62.3444
65.4298
68.6434
71.9854
75.4556
79.054
82.7808
86.6361
90.6201
94.7335
98.977
103.351
107.858
112.497
117.271
122.18
127.226
132.41
137.733
143.195
148.798
154.54
160.423
166.445
172.605
178.902
185.335
191.9
198.594
205.414
212.353
219.407
226.571
233.84
241.21
248.672
256.222
263.852
271.555
279.325
287.153
295.031
302.952
310.907
318.887
326.883
334.866
342.796
350.663
358.459
366.174
373.797
381.315
388.721
395.991
403.107
410.058
416.83
423.41
429.783
435.934
441.849
447.513
452.913
458.033
462.862
467.386
471.594
475.474
479.016
482.208
485.042
487.512
489.613
491.341
492.693
493.668
494.266
494.488
494.335
493.812
492.923
491.675
490.073
488.126
485.843
483.232
480.304
477.069
473.539
469.725
465.64
461.296
456.709
451.891
446.858
441.625
436.209
430.625
424.89
419.022
413.039
406.958
400.798
394.575
388.307
382.012
375.705
369.404
363.124
356.877
350.679
344.542
338.476
332.492
326.598
320.801
315.107
309.52
304.044
298.679
293.427
288.285
283.251
278.322
273.494
268.761
264.117
259.555
255.07
250.656
246.308
242.025
237.806
233.659
229.595
225.635
221.807
218.147
214.643
211.325
47.8138
25.8148
20.6021
18.5987
17.6845
17.2675
17.1236
17.1518
17.3025
17.5498
17.8804
18.2878
18.769
19.3232
19.9502
20.6502
21.4228
22.2677
23.1841
24.1712
25.2288
26.357
27.5571
28.8312
30.1828
31.616
33.1358
34.7482
36.4593
38.276
40.2049
42.2527
44.4256
46.7295
49.1689
51.7481
54.4711
57.3411
60.361
63.5329
66.8583
70.3385
73.9742
77.766
81.7144
85.8196
90.082
94.5017
99.0791
103.815
108.708
113.761
118.973
124.345
129.877
135.57
141.422
147.435
153.607
159.938
166.427
173.072
179.871
186.822
193.922
201.167
208.555
216.082
223.742
231.522
239.418
247.426
255.538
263.749
272.049
280.433
288.891
297.417
306.001
314.635
323.311
332.019
340.75
349.497
358.213
366.861
375.434
383.919
392.308
400.586
408.743
416.764
424.637
432.344
439.868
447.194
454.308
461.195
467.84
474.226
480.339
486.163
491.684
496.887
501.758
506.284
510.452
514.251
517.669
520.696
523.324
525.547
527.359
528.758
529.74
530.307
530.458
530.197
529.527
528.454
526.985
525.128
522.892
520.288
517.327
514.021
510.383
506.426
502.164
497.611
492.784
487.696
482.364
476.805
471.035
465.071
458.931
452.633
446.194
439.633
432.968
426.218
419.4
412.533
405.633
398.718
391.805
384.908
378.042
371.221
364.459
357.765
351.152
344.628
338.202
331.879
325.664
319.563
313.577
307.706
301.952
296.312
290.784
285.363
280.045
274.824
269.693
264.645
259.675
254.775
249.94
245.168
240.459
235.818
231.254
226.785
222.433
218.231
214.157
210.242
48.0228
25.942
20.6806
18.6517
17.7255
17.3064
17.1682
17.2086
17.3764
17.6445
17.9981
18.4294
18.9344
19.5113
20.1593
20.8784
21.6682
22.5287
23.4598
24.4615
25.5344
26.68
27.9005
29.1993
30.5809
32.0512
33.6163
35.2829
37.0591
38.9534
40.9746
43.1313
45.4322
47.886
50.4969
53.2697
56.2113
59.3269
62.6211
66.0973
69.7584
73.6068
77.6439
81.8712
86.2892
90.8985
95.6993
100.691
105.875
111.248
116.812
122.566
128.507
134.636
140.951
147.45
154.132
160.994
168.034
175.248
182.634
190.189
197.906
205.783
213.814
221.994
230.317
238.775
247.362
256.067
264.884
273.803
282.818
291.919
301.098
310.345
319.652
329.011
338.411
347.846
357.302
366.778
376.245
385.643
394.957
404.174
413.283
422.272
431.127
439.837
448.388
456.766
464.957
472.945
480.714
488.249
495.535
502.555
509.296
515.74
521.873
527.678
533.142
538.249
542.984
547.335
551.289
554.833
557.958
560.653
562.91
564.724
566.09
567.005
567.467
567.479
567.041
566.16
564.84
563.089
560.916
558.333
555.351
551.983
548.243
544.146
539.707
534.944
529.872
524.51
518.874
512.983
506.854
500.507
493.959
487.23
480.338
473.302
466.142
458.876
451.522
444.099
436.626
429.119
421.595
414.072
406.564
399.087
391.654
384.277
376.969
369.74
362.6
355.557
348.617
341.786
335.07
328.47
321.989
315.626
309.382
303.254
297.238
291.331
285.527
279.82
274.202
268.667
263.207
257.815
252.486
247.216
242.004
236.854
231.773
226.778
221.885
217.121
212.464
207.944
47.9498
25.9169
20.6531
18.6248
17.7073
17.3059
17.1946
17.2708
17.4824
17.8013
18.2118
18.7048
19.2752
19.9203
20.6387
21.4295
22.2924
23.2274
24.2345
25.3147
26.4694
27.7011
29.0135
30.4107
31.8994
33.4889
35.1862
36.9954
38.9286
40.9974
43.213
45.5864
48.1283
50.8486
53.756
56.8585
60.164
63.6794
67.4109
71.3634
75.5411
79.9472
84.5839
89.4528
94.5545
99.889
105.456
111.253
117.28
123.534
130.012
136.711
143.627
150.757
158.096
165.64
173.383
181.321
189.447
197.755
206.238
214.891
223.705
232.673
241.787
251.039
260.42
269.921
279.532
289.242
299.043
308.923
318.873
328.883
338.944
349.044
359.175
369.33
379.493
389.669
399.825
409.905
419.878
429.736
439.467
449.057
458.494
467.767
476.861
485.766
494.468
502.953
511.207
519.218
526.968
534.445
541.633
548.517
555.083
561.315
567.197
572.717
577.857
582.605
586.946
590.867
594.355
597.4
599.991
602.12
603.778
604.961
605.664
605.886
605.628
604.891
603.68
602
599.86
597.269
594.24
590.786
586.921
582.661
578.022
573.024
567.684
562.022
556.057
549.81
543.299
536.547
529.572
522.396
515.038
507.519
499.858
492.075
484.189
476.219
468.184
460.102
451.991
443.866
435.744
427.64
419.569
411.543
403.576
395.678
387.859
380.13
372.496
364.967
357.546
350.239
343.049
335.978
329.027
322.196
315.482
308.885
302.398
296.019
289.74
283.556
277.459
271.44
265.493
259.61
253.785
248.014
242.295
236.63
231.026
225.495
220.052
214.722
209.478
204.355
47.6903
25.8013
20.5876
18.6004
17.7293
17.3842
17.3408
17.4968
17.8
18.2216
18.7452
19.3613
20.0644
20.8511
21.7197
22.6692
23.6992
24.8099
26.0019
27.277
28.6376
30.0869
31.6334
33.2741
35.0174
36.8751
38.8583
40.978
43.2474
45.68
48.2898
51.0903
54.0948
57.3158
60.7648
64.4523
68.3881
72.5806
77.0373
81.7638
86.7649
92.0435
97.6014
103.439
109.556
115.949
122.616
129.553
136.753
144.212
151.922
159.876
168.065
176.482
185.116
193.96
203.002
212.233
221.643
231.222
240.958
250.842
260.862
271.008
281.269
291.633
302.09
312.628
323.236
333.902
344.615
355.366
366.141
376.93
387.728
398.518
409.291
420.059
430.763
441.347
451.794
462.097
472.243
482.219
492.014
501.617
511.017
520.201
529.16
537.881
546.353
554.565
562.504
570.158
577.514
584.559
591.28
597.662
603.693
609.359
614.645
619.538
624.024
628.09
631.722
634.909
637.638
639.9
641.685
642.985
643.793
644.106
643.92
643.236
642.053
640.377
638.213
635.569
632.455
628.883
624.868
620.424
615.569
610.323
604.703
598.732
592.43
585.82
578.923
571.762
564.36
556.739
548.92
540.926
532.778
524.496
516.102
507.614
499.052
490.435
481.78
473.104
464.423
455.752
447.106
438.498
429.941
421.445
413.022
404.679
396.426
388.27
380.216
372.27
364.436
356.717
349.115
341.631
334.265
327.015
319.88
312.856
305.939
299.123
292.403
285.771
279.22
272.741
266.327
259.97
253.664
247.404
241.187
235.015
228.894
222.832
216.845
210.953
205.131
199.419
47.3393
25.668
20.5662
18.6772
17.9108
17.6841
17.7752
18.0827
18.5544
19.1622
19.8898
20.7283
21.6725
22.72
23.8695
25.1206
26.4736
27.9297
29.4906
31.159
32.9412
34.8275
36.8253
38.9434
41.1926
43.5858
46.137
48.8608
51.7729
54.8895
58.2268
61.8009
65.6271
69.7196
74.0917
78.7549
83.7194
88.9936
94.5839
100.495
106.729
113.287
120.167
127.366
134.878
142.697
150.814
159.219
167.901
176.848
186.046
195.483
205.144
215.015
225.081
235.327
245.738
256.3
266.999
277.821
288.75
299.775
310.882
322.058
333.29
344.567
355.875
367.206
378.545
389.881
401.204
412.509
423.777
434.996
446.189
457.306
468.3
479.111
489.754
500.216
510.485
520.551
530.404
540.036
549.435
558.593
567.501
576.15
584.53
592.633
600.449
607.969
615.183
622.08
628.65
634.882
640.764
646.285
651.433
656.195
660.559
664.513
668.044
671.141
673.79
675.982
677.705
678.951
679.71
679.976
679.743
679.009
677.772
676.032
673.791
671.056
667.833
664.133