/*--------------------------------*- C++ -*----------------------------------*\
  =========                 |
  \\      /  F ield         | OpenFOAM: The Open Source CFD Toolbox
   \\    /   O peration     | Website:  https://openfoam.org
    \\  /    A nd           | Version:  9
     \\/     M anipulation  |
\*---------------------------------------------------------------------------*/
FoamFile
{
    format      ascii;
    class       volScalarField;
    location    "0.08";
    object      p;
}
// * * * * * * * * * * * * * * * * * * * * * * * * * * * * * * * * * * * * * //

dimensions      [0 2 -2 0 0 0 0];

internalField   nonuniform List<scalar> 
12225
(
-1.11224
-3.39495
-4.55672
-4.86382
-5.03069
-5.18856
-5.31084
-5.39637
-5.4624
-5.51894
-5.56751
-5.60748
-5.63854
-5.65874
-5.66533
-5.64274
-5.60094
-5.41253
-4.57978
-5.2816
-5.37113
-5.23498
-5.1935
-5.25898
-5.33745
-5.40045
-5.45392
-5.50291
-5.54694
-5.58444
-5.61457
-5.63534
-5.6454
-5.63337
-5.61787
-5.5515
-4.78456
-4.68132
-4.83741
-4.9585
-5.06444
-5.18496
-5.291
-5.37087
-5.43462
-5.49018
-5.53899
-5.58046
-5.61428
-5.63935
-5.65561
-5.65775
-5.66642
-5.6776
-4.64732
-4.5689
-4.84428
-5.02197
-5.11503
-5.21042
-5.30334
-5.37818
-5.43943
-5.49353
-5.54175
-5.58345
-5.61844
-5.64635
-5.66821
-5.68368
-5.71042
-5.75855
-4.65437
-4.67134
-4.91075
-5.05964
-5.13431
-5.21732
-5.3048
-5.37825
-5.43903
-5.49286
-5.54129
-5.58392
-5.62083
-5.65239
-5.68047
-5.7075
-5.74699
-5.81024
-4.71618
-4.75837
-4.9355
-5.06524
-5.14191
-5.2228
-5.30706
-5.37942
-5.44002
-5.49389
-5.54275
-5.58651
-5.62553
-5.66076
-5.69452
-5.73031
-5.778
-5.84671
-4.77609
-4.81535
-4.95111
-5.07236
-5.15349
-5.23164
-5.31138
-5.3819
-5.44218
-5.49607
-5.54536
-5.59029
-5.63142
-5.67003
-5.70858
-5.75064
-5.80315
-5.87223
-4.82945
-4.8641
-4.97379
-5.08551
-5.16687
-5.24129
-5.31644
-5.38496
-5.44483
-5.49875
-5.54851
-5.59459
-5.63772
-5.6793
-5.72165
-5.76787
-5.82261
-5.88938
-4.87951
-4.91101
-5.00123
-5.10118
-5.18014
-5.25124
-5.32234
-5.38875
-5.44803
-5.50191
-5.55208
-5.59921
-5.64409
-5.68808
-5.73318
-5.78183
-5.83698
-5.90026
-4.9272
-4.95561
-5.03026
-5.11837
-5.19373
-5.26188
-5.32933
-5.39344
-5.45188
-5.50561
-5.55607
-5.60405
-5.65032
-5.69609
-5.74296
-5.7927
-5.84706
-5.90653
-4.97237
-4.99746
-5.05978
-5.13713
-5.2081
-5.27329
-5.33735
-5.39905
-5.45642
-5.50984
-5.56044
-5.60901
-5.65626
-5.70318
-5.75097
-5.80082
-5.85368
-5.90942
-5.01132
-5.03347
-5.08689
-5.15552
-5.22198
-5.28431
-5.34548
-5.40497
-5.46121
-5.51418
-5.56473
-5.61357
-5.66133
-5.70878
-5.75679
-5.80614
-5.8573
-5.90988
-5.04751
-5.06715
-5.11331
-5.17429
-5.23617
-5.29559
-5.35408
-5.41142
-5.46641
-5.5188
-5.56914
-5.61802
-5.66597
-5.71356
-5.76137
-5.80985
-5.8592
-5.90892
-5.0857
-5.10286
-5.14235
-5.1959
-5.2527
-5.30876
-5.36437
-5.41936
-5.47282
-5.52437
-5.57426
-5.62292
-5.67071
-5.71802
-5.76518
-5.81238
-5.85963
-5.90645
-5.12467
-5.13947
-5.1731
-5.21979
-5.27132
-5.32368
-5.37626
-5.42875
-5.48044
-5.53084
-5.57997
-5.62804
-5.67526
-5.72183
-5.76788
-5.81343
-5.85841
-5.90239
-5.16255
-5.17524
-5.20398
-5.24473
-5.2912
-5.33976
-5.38928
-5.43923
-5.48895
-5.53791
-5.58594
-5.63303
-5.67926
-5.72465
-5.76921
-5.81286
-5.8555
-5.89683
-5.1965
-5.20749
-5.23245
-5.26846
-5.31059
-5.35567
-5.40233
-5.44985
-5.49757
-5.54491
-5.59155
-5.63735
-5.68223
-5.72612
-5.76894
-5.81059
-5.85096
-5.88986
-5.22218
-5.23202
-5.2545
-5.28735
-5.32644
-5.36892
-5.41336
-5.45893
-5.50491
-5.55072
-5.59593
-5.64031
-5.68369
-5.72596
-5.767
-5.80671
-5.84502
-5.88179
-5.23261
-5.24206
-5.26374
-5.29561
-5.33375
-5.37532
-5.41886
-5.4635
-5.50855
-5.55337
-5.59753
-5.64073
-5.68281
-5.72365
-5.76313
-5.80119
-5.83777
-5.87283
-5.21935
-5.22954
-5.25281
-5.28689
-5.32727
-5.37059
-5.41533
-5.4608
-5.50639
-5.55146
-5.59556
-5.63846
-5.68003
-5.72018
-5.75883
-5.79596
-5.83152
-5.86554
-5.19433
-5.20566
-5.23178
-5.27002
-5.31444
-5.36081
-5.40781
-5.45512
-5.50209
-5.54805
-5.59262
-5.63571
-5.67726
-5.71721
-5.75552
-5.79219
-5.82725
-5.86072
-5.16025
-5.17279
-5.20319
-5.24821
-5.29842
-5.34842
-5.39816
-5.44801
-5.497
-5.54426
-5.58959
-5.63311
-5.67485
-5.71481
-5.75297
-5.7894
-5.82415
-5.85729
-5.12027
-5.13303
-5.16878
-5.22395
-5.28182
-5.33572
-5.38834
-5.44091
-5.492
-5.5406
-5.58682
-5.63093
-5.67301
-5.71308
-5.75122
-5.78754
-5.82211
-5.85504
-5.07688
-5.08861
-5.13139
-5.1986
-5.26407
-5.32263
-5.3796
-5.43548
-5.48832
-5.53782
-5.5847
-5.6293
-5.67166
-5.71181
-5.74991
-5.78612
-5.82055
-5.8533
-5.03033
-5.03826
-5.0997
-5.1801
-5.24602
-5.30662
-5.36959
-5.43038
-5.48546
-5.53595
-5.58351
-5.6286
-5.67117
-5.71134
-5.74936
-5.78544
-5.81974
-5.8524
-4.98258
-4.95912
-5.07032
-5.17985
-5.24121
-5.29625
-5.36075
-5.42432
-5.48092
-5.53235
-5.58073
-5.62641
-5.6693
-5.70961
-5.74766
-5.78372
-5.81797
-5.85056
-4.97339
-4.82926
-4.98872
-5.15553
-5.24079
-5.30274
-5.3686
-5.43094
-5.48599
-5.53654
-5.58443
-5.62966
-5.67209
-5.71195
-5.74957
-5.78523
-5.81916
-5.85152
-5.11887
-4.83523
-4.87037
-5.00145
-5.1218
-5.22973
-5.32485
-5.40179
-5.46533
-5.52195
-5.57416
-5.62229
-5.66666
-5.70789
-5.74648
-5.7828
-5.81735
-5.85076
-5.05571
-5.55557
-5.56609
-5.40746
-5.32729
-5.35237
-5.40755
-5.45813
-5.50451
-5.55045
-5.59554
-5.6385
-5.67894
-5.71704
-5.75301
-5.78691
-5.819
-5.85114
-1.71706
-3.58779
-4.65946
-4.95313
-5.08872
-5.22638
-5.33933
-5.42048
-5.48471
-5.54209
-5.59483
-5.64301
-5.68718
-5.72806
-5.76605
-5.80116
-5.83304
-5.8599
-6.98797
-6.98221
-6.97805
-6.97637
-6.97654
-6.9781
-6.98059
-6.98347
-6.98611
-6.98804
-6.98935
-6.99002
-6.99013
-6.98988
-6.98958
-6.98969
-6.9908
-6.99356
-6.99514
-6.99296
-6.99426
-7.00151
-7.01101
-7.02306
-7.03699
-7.05253
-7.07122
-7.09418
-7.12201
-7.15412
-7.19005
-7.22948
-7.27171
-7.31603
-7.3617
-7.40801
-7.45433
-7.50014
-7.54501
-7.5886
-7.63068
-7.67109
-7.70974
-7.74656
-7.78154
-7.81469
-7.84602
-7.87555
-7.90332
-7.92933
-7.9536
-7.97614
-7.99693
-8.01597
-8.03323
-8.04865
-8.06221
-8.07384
-8.08346
-8.09101
-8.09638
-8.0995
-8.10025
-8.09853
-8.09421
-8.08719
-8.07732
-8.06447
-8.04852
-8.02932
-8.00672
-7.98058
-7.95076
-7.91709
-7.87942
-7.8376
-7.79147
-7.74086
-7.68561
-7.62556
-7.56053
-7.49037
-7.41488
-7.33391
-7.24728
-7.15482
-7.05635
-6.95171
-6.84077
-6.72345
-6.59956
-6.46868
-6.3308
-6.18529
-6.03222
-5.87148
-5.70295
-5.52648
-5.34195
-5.14922
-4.94818
-4.73873
-4.52078
-4.29427
-4.05916
-3.81542
-3.56307
-3.30214
-3.03267
-2.75477
-2.46855
-2.17417
-1.87182
-1.56172
-1.24414
-0.919376
-0.587785
-0.24975
0.0943011
0.443894
0.798512
1.1576
1.52055
1.88672
2.25544
2.62599
2.99761
3.36954
3.74096
4.11106
4.47902
4.84399
5.20515
5.56167
5.91277
6.25768
6.59566
6.92605
7.24822
7.56162
7.86575
8.1602
8.44466
8.71888
8.9827
9.23608
9.47906
9.71176
9.9344
10.1473
10.3508
10.5451
10.7308
10.9086
11.079
11.2429
11.401
11.5541
11.7033
11.8493
11.9931
12.1357
12.2779
12.4209
12.5656
12.7128
12.8635
13.0186
13.1788
13.3448
13.5174
13.6971
13.8845
14.08
14.2843
14.4983
14.7246
14.9672
15.248
15.5761
-6.99239
-6.98769
-6.98445
-6.9841
-6.98566
-6.98789
-6.99001
-6.99154
-6.99213
-6.99165
-6.98966
-6.98637
-6.98209
-6.97734
-6.97266
-6.96847
-6.96489
-6.96154
-6.95739
-6.95542
-6.95705
-6.96081
-6.96631
-6.97367
-6.983
-6.99707
-7.01804
-7.04554
-7.07776
-7.11362
-7.15317
-7.19599
-7.24128
-7.2882
-7.33596
-7.38385
-7.43127
-7.47775
-7.52293
-7.56656
-7.60849
-7.6486
-7.68687
-7.72327
-7.75783
-7.79056
-7.82151
-7.85069
-7.87816
-7.90392
-7.92799
-7.95038
-7.97108
-7.99008
-8.00733
-8.02282
-8.03648
-8.04825
-8.05807
-8.06586
-8.07153
-8.07498
-8.07611
-8.07481
-8.07096
-8.06445
-8.05513
-8.04289
-8.02759
-8.00908
-7.98722
-7.96188
-7.93289
-7.9001
-7.86338
-7.82255
-7.77746
-7.72796
-7.67388
-7.61506
-7.55134
-7.48254
-7.4085
-7.32905
-7.244
-7.15319
-7.05644
-6.95355
-6.84434
-6.72859
-6.60615
-6.47656
-6.33969
-6.19587
-6.04476
-5.88612
-5.71977
-5.54555
-5.36332
-5.17295
-4.97431
-4.7673
-4.55184
-4.32786
-4.09531
-3.85417
-3.60443
-3.34612
-3.07929
-2.80403
-2.52045
-2.22869
-1.92894
-1.62141
-1.30636
-0.984089
-0.654922
-0.319238
0.0225455
0.369968
0.722526
1.07967
1.44082
1.80535
2.17258
2.54181
2.91231
3.28331
3.65402
4.02363
4.39131
4.75625
5.1176
5.47455
5.82632
6.17211
6.51122
6.84293
7.16663
7.48174
7.78775
8.08423
8.37084
8.64732
8.91349
9.16926
9.41466
9.64978
9.87479
10.0899
10.2955
10.4919
10.6796
10.8592
11.0313
11.1966
11.356
11.5102
11.6601
11.8066
11.9507
12.0932
12.2352
12.3776
12.5214
12.6675
12.8169
12.9703
13.1288
13.2929
13.4635
13.641
13.8263
14.0197
14.2222
14.4348
14.6603
14.9018
15.1788
15.4799
-6.99835
-6.99464
-6.99213
-6.99229
-6.99404
-6.99609
-6.99767
-6.99837
-6.99792
-6.99617
-6.99302
-6.98854
-6.98295
-6.97655
-6.96968
-6.96271
-6.95594
-6.94967
-6.94425
-6.94088
-6.94106
-6.94435
-6.9508
-6.96069
-6.97399
-6.99171
-7.01486
-7.0434
-7.07667
-7.11373
-7.15394
-7.19658
-7.2409
-7.28624
-7.33198
-7.37759
-7.42264
-7.46679
-7.50977
-7.55138
-7.59149
-7.63001
-7.66688
-7.70208
-7.7356
-7.76746
-7.79767
-7.82625
-7.8532
-7.87854
-7.90228
-7.9244
-7.94489
-7.96374
-7.98091
-7.99635
-8.01002
-8.02185
-8.03178
-8.03971
-8.04557
-8.04926
-8.05067
-8.0497
-8.04622
-8.04012
-8.03127
-8.01954
-8.0048
-7.9869
-7.96571
-7.94108
-7.91286
-7.88091
-7.84507
-7.80518
-7.76111
-7.71268
-7.65974
-7.60212
-7.53967
-7.47222
-7.39959
-7.32163
-7.23815
-7.14898
-7.05393
-6.95284
-6.84549
-6.73164
-6.61099
-6.48377
-6.3494
-6.20794
-6.0592
-5.903
-5.73918
-5.56756
-5.388
-5.20035
-5.00451
-4.80036
-4.5878
-4.36678
-4.13722
-3.89911
-3.65244
-3.39723
-3.13351
-2.86138
-2.58092
-2.29229
-1.99565
-1.69121
-1.37921
-1.05994
-0.733713
-0.400897
-0.0618943
0.28285
0.632848
0.987569
1.34644
1.70886
2.07416
2.44166
2.81065
3.18036
3.55002
3.91884
4.28599
4.65067
5.01204
5.36929
5.72163
6.06829
6.40852
6.74162
7.06696
7.38393
7.69202
7.99078
8.27983
8.55887
8.8277
9.08621
9.33435
9.57219
9.79989
10.0177
10.2258
10.4247
10.6148
10.7966
10.9708
11.138
11.2989
11.4543
11.6052
11.7523
11.8967
12.0392
12.1808
12.3225
12.4653
12.6101
12.7578
12.9094
13.0657
13.2275
13.3956
13.5706
13.7531
13.944
14.1441
14.3546
14.5784
14.8171
15.089
15.3616
-7.00275
-7.00161
-7.00073
-7.00149
-7.00306
-7.00446
-7.00515
-7.00481
-7.00326
-7.00036
-6.99609
-6.99052
-6.98383
-6.97631
-6.96835
-6.9604
-6.95296
-6.94658
-6.94191
-6.93972
-6.94086
-6.94565
-6.95437
-6.96729
-6.98452
-7.00611
-7.03211
-7.06223
-7.09601
-7.13282
-7.17204
-7.21306
-7.2553
-7.29823
-7.34138
-7.38435
-7.4268
-7.46844
-7.50906
-7.5485
-7.58663
-7.62336
-7.65864
-7.69245
-7.72475
-7.75555
-7.78485
-7.81264
-7.83894
-7.86373
-7.88702
-7.90878
-7.929
-7.94764
-7.96467
-7.98004
-7.99369
-8.00555
-8.01556
-8.02362
-8.02966
-8.03356
-8.03523
-8.03455
-8.03142
-8.02569
-8.01726
-8.00599
-7.99174
-7.97438
-7.95376
-7.92975
-7.90219
-7.87095
-7.83586
-7.79678
-7.75356
-7.70603
-7.65404
-7.59744
-7.53605
-7.46972
-7.39827
-7.32154
-7.23935
-7.15153
-7.05788
-6.95823
-6.85239
-6.74013
-6.62127
-6.49572
-6.36326
-6.22375
-6.07701
-5.92287
-5.76115
-5.5917
-5.41435
-5.22897
-5.03543
-4.83362
-4.62345
-4.40484
-4.17773
-3.94209
-3.6979
-3.44518
-3.18397
-2.91434
-2.63638
-2.35023
-2.05605
-1.75404
-1.44444
-1.12751
-0.803569
-0.472971
-0.136105
0.206594
0.55465
0.907545
1.26472
1.62558
1.98948
2.35575
2.72367
3.0925
3.46149
3.82983
4.19671
4.56133
4.92287
5.2805
5.63343
5.98089
6.32212
6.65643
6.98314
7.30167
7.61147
7.91206
8.20306
8.48414
8.75511
9.01579
9.26615
9.50619
9.73603
9.95584
10.1659
10.3667
10.5585
10.7419
10.9175
11.0859
11.2478
11.404
11.5554
11.7029
11.8472
11.9894
12.1305
12.2714
12.4131
12.5565
12.7027
12.8524
13.0067
13.1663
13.3319
13.5044
13.6845
13.8728
14.0703
14.2781
14.4988
14.7323
14.9945
15.2389
-7.00019
-7.00197
-7.00325
-7.00505
-7.00683
-7.008
-7.00823
-7.00733
-7.00518
-7.0017
-6.99693
-6.99096
-6.98403
-6.97649
-6.9688
-6.96151
-6.95522
-6.95053
-6.94809
-6.94849
-6.95227
-6.95979
-6.9713
-6.98693
-7.00671
-7.03054
-7.05818
-7.08923
-7.12315
-7.15941
-7.19749
-7.23688
-7.27713
-7.31783
-7.35861
-7.39915
-7.43919
-7.4785
-7.51691
-7.55428
-7.5905
-7.62551
-7.65924
-7.69166
-7.72275
-7.75249
-7.78087
-7.80788
-7.83351
-7.85775
-7.88058
-7.90198
-7.92191
-7.94035
-7.95723
-7.97252
-7.98614
-7.99803
-8.00811
-8.01628
-8.02246
-8.02655
-8.02844
-8.02801
-8.02515
-8.01974
-8.01165
-8.00074
-7.98689
-7.96995
-7.94978
-7.92625
-7.89921
-7.86851
-7.83401
-7.79555
-7.75298
-7.70615
-7.6549
-7.59908
-7.53853
-7.47307
-7.40255
-7.32679
-7.24563
-7.15888
-7.06636
-6.96789
-6.86329
-6.75235
-6.63491
-6.5108
-6.37985
-6.24188
-6.09672
-5.94419
-5.78413
-5.61635
-5.44072
-5.25708
-5.06531
-4.86529
-4.65692
-4.44013
-4.21485
-3.98104
-3.73869
-3.4878
-3.22841
-2.96059
-2.68442
-2.40003
-2.10759
-1.80728
-1.49933
-1.184
-0.861611
-0.532492
-0.197032
0.144345
0.491169
0.842934
1.19909
1.55904
1.92216
2.28777
2.65518
3.02365
3.3924
3.76067
4.12763
4.49248
4.85439
5.21254
5.56614
5.91439
6.25655
6.5919
6.91976
7.23953
7.55065
7.85263
8.14509
8.42769
8.70018
8.96239
9.21424
9.45575
9.68698
9.9081
10.1194
10.3212
10.514
10.6982
10.8745
11.0435
11.2058
11.3623
11.5137
11.661
11.805
11.9467
12.087
12.2269
12.3674
12.5094
12.654
12.802
12.9544
13.1119
13.2754
13.4456
13.6232
13.809
14.0039
14.2086
14.4254
14.6525
14.9035
15.1229
-6.98853
-6.99392
-6.99781
-7.00126
-7.00393
-7.00553
-7.00594
-7.0051
-7.00297
-6.99959
-6.99505
-6.98953
-6.98333
-6.97686
-6.97062
-6.96521
-6.96121
-6.95923
-6.95982
-6.96345
-6.97049
-6.98118
-6.99564
-7.01388
-7.03578
-7.06113
-7.08963
-7.12088
-7.15442
-7.18979
-7.22656
-7.26431
-7.30266
-7.3413
-7.37991
-7.41826
-7.45613
-7.49335
-7.52977
-7.56528
-7.59979
-7.63323
-7.66555
-7.69671
-7.72669
-7.75545
-7.78299
-7.80928
-7.83431
-7.85805
-7.88047
-7.90155
-7.92124
-7.9395
-7.95627
-7.9715
-7.98512
-7.99704
-8.0072
-8.01549
-8.02181
-8.02607
-8.02816
-8.02795
-8.02534
-8.02019
-8.01238
-8.00177
-7.98824
-7.97164
-7.95184
-7.92869
-7.90205
-7.87178
-7.83773
-7.79976
-7.7577
-7.71142
-7.66075
-7.60555
-7.54564
-7.48089
-7.41111
-7.33614
-7.2558
-7.16994
-7.07835
-6.98086
-6.87729
-6.76745
-6.65116
-6.52824
-6.39852
-6.2618
-6.11792
-5.96669
-5.80794
-5.64151
-5.46724
-5.28497
-5.09458
-4.89595
-4.68898
-4.47358
-4.24969
-4.01726
-3.77628
-3.52675
-3.26869
-3.00218
-2.7273
-2.44416
-2.15293
-1.85379
-1.54697
-1.23272
-0.911339
-0.583169
-0.248587
0.0919878
0.438094
0.78923
1.14485
1.50437
1.86716
2.23256
2.59986
2.96833
3.33721
3.70571
4.07301
4.43831
4.80078
5.15958
5.51392
5.863
6.20605
6.54234
6.87121
7.19202
7.50422
7.80731
8.10088
8.38457
8.65812
8.92136
9.17419
9.41661
9.64869
9.87056
10.0825
10.2849
10.4781
10.6626
10.8391
11.0082
11.1704
11.3267
11.4778
11.6245
11.7679
11.9087
12.048
12.1868
12.326
12.4666
12.6096
12.7558
12.9063
13.0619
13.2232
13.3913
13.5666
13.7499
13.942
14.1434
14.3557
14.576
14.8164
15.0146
-6.9695
-6.97782
-6.9851
-6.99089
-6.99504
-6.99766
-6.99883
-6.99862
-6.99713
-6.99447
-6.99083
-6.98646
-6.98172
-6.97706
-6.97301
-6.97014
-6.96902
-6.97017
-6.97403
-6.98096
-6.99119
-7.00485
-7.02195
-7.04238
-7.06598
-7.09246
-7.12151
-7.15276
-7.18583
-7.22033
-7.25589
-7.29218
-7.3289
-7.36578
-7.40257
-7.43909
-7.47515
-7.51061
-7.54537
-7.57931
-7.61237
-7.64449
-7.67562
-7.70571
-7.73475
-7.76269
-7.78952
-7.81522
-7.83975
-7.86309
-7.88519
-7.90603
-7.92555
-7.94369
-7.96041
-7.97564
-7.98929
-8.00128
-8.01154
-8.01995
-8.02643
-8.03086
-8.03314
-8.03314
-8.03074
-8.02582
-8.01824
-8.00789
-7.99461
-7.97828
-7.95876
-7.93591
-7.90958
-7.87963
-7.84593
-7.80832
-7.76665
-7.72079
-7.67057
-7.61584
-7.55645
-7.49225
-7.42306
-7.34872
-7.26906
-7.18392
-7.0931
-6.99642
-6.8937
-6.78477
-6.66943
-6.54749
-6.41877
-6.28308
-6.14025
-5.99008
-5.83241
-5.66706
-5.49388
-5.31271
-5.12342
-4.92589
-4.72
-4.50568
-4.28285
-4.05147
-3.81151
-3.56298
-3.3059
-3.04032
-2.76635
-2.48408
-2.19368
-1.89532
-1.58923
-1.27566
-0.954898
-0.627283
-0.293187
0.0469769
0.39275
0.743634
1.09909
1.45853
1.82134
2.18685
2.55436
2.92313
3.2924
3.66138
4.02925
4.39518
4.75835
5.11792
5.47307
5.82299
6.16692
6.50411
6.8339
7.15563
7.46873
7.77269
8.06709
8.35157
8.62586
8.88977
9.1432
9.38613
9.61862
9.84083
10.053
10.2555
10.4487
10.6332
10.8095
10.9782
11.14
11.2957
11.4461
11.5921
11.7345
11.8743
12.0124
12.1498
12.2876
12.4266
12.5679
12.7124
12.861
13.0146
13.1739
13.3397
13.5127
13.6935
13.8827
14.0806
14.2882
14.5015
14.7323
14.9125
-6.94639
-6.95755
-6.96806
-6.97632
-6.98223
-6.9862
-6.98852
-6.98938
-6.98897
-6.98751
-6.98525
-6.98252
-6.9797
-6.97728
-6.97578
-6.97571
-6.97759
-6.98186
-6.98885
-6.99881
-7.01188
-7.02808
-7.04735
-7.06954
-7.09442
-7.12172
-7.15113
-7.18232
-7.21496
-7.24872
-7.28331
-7.31843
-7.35384
-7.38932
-7.42467
-7.45974
-7.49437
-7.52846
-7.5619
-7.59462
-7.62654
-7.65763
-7.68782
-7.7171
-7.74541
-7.77274
-7.79906
-7.82433
-7.84851
-7.87159
-7.8935
-7.9142
-7.93365
-7.95178
-7.96852
-7.9838
-7.99754
-8.00965
-8.02004
-8.02861
-8.03525
-8.03986
-8.04231
-8.0425
-8.04029
-8.03556
-8.02818
-8.01802
-8.00494
-7.98881
-7.9695
-7.94685
-7.92075
-7.89103
-7.85757
-7.82022
-7.77883
-7.73327
-7.68337
-7.62901
-7.57001
-7.50622
-7.43749
-7.36366
-7.28454
-7.19998
-7.10978
-7.01377
-6.91177
-6.80359
-6.68903
-6.5679
-6.44001
-6.30517
-6.1632
-6.0139
-5.85711
-5.69265
-5.52035
-5.34006
-5.15165
-4.95498
-4.74994
-4.53645
-4.31443
-4.08383
-3.84463
-3.59682
-3.34043
-3.07551
-2.80215
-2.52045
-2.23057
-1.93269
-1.62702
-1.31382
-0.993363
-0.665989
-0.332065
0.00799801
0.353746
0.704683
1.06027
1.41994
1.78305
2.14894
2.51692
2.88624
3.25613
3.62579
3.99441
4.36114
4.72514
5.08557
5.4416
5.79243
6.13725
6.47534
6.80597
7.12851
7.44238
7.74705
8.04208
8.32711
8.60187
8.86616
9.11987
9.36298
9.59556
9.81775
10.0298
10.2321
10.425
10.609
10.7847
10.9528
11.1138
11.2687
11.4181
11.563
11.7042
11.8427
11.9794
12.1154
12.2516
12.389
12.5285
12.6712
12.8178
12.9694
13.1266
13.2902
13.4608
13.6389
13.8251
14.0193
14.2221
14.4287
14.6507
14.8157
-6.92306
-6.93647
-6.9497
-6.96019
-6.96784
-6.97328
-6.97693
-6.9791
-6.98005
-6.98007
-6.97948
-6.97863
-6.97794
-6.97788
-6.97894
-6.9816
-6.98628
-6.99335
-7.00307
-7.01561
-7.03101
-7.04925
-7.07021
-7.09372
-7.11954
-7.14742
-7.17705
-7.20816
-7.24044
-7.27362
-7.30745
-7.34168
-7.37611
-7.41054
-7.44483
-7.47882
-7.5124
-7.54548
-7.57798
-7.60981
-7.64094
-7.6713
-7.70086
-7.72959
-7.75744
-7.78439
-7.8104
-7.83544
-7.85947
-7.88244
-7.90431
-7.92501
-7.9445
-7.96271
-7.97956
-7.99497
-8.00886
-8.02113
-8.03169
-8.04043
-8.04725
-8.05204
-8.05466
-8.05501
-8.05296
-8.04839
-8.04115
-8.03113
-8.01818
-8.00218
-7.98299
-7.96048
-7.93449
-7.90491
-7.87159
-7.8344
-7.79318
-7.74781
-7.69813
-7.64401
-7.58528
-7.52181
-7.45342
-7.37997
-7.30128
-7.21718
-7.12749
-7.03203
-6.93062
-6.82306
-6.70914
-6.58869
-6.46149
-6.32735
-6.18609
-6.03753
-5.88146
-5.71773
-5.54616
-5.36658
-5.17887
-4.98289
-4.77852
-4.56566
-4.34426
-4.11424
-3.87559
-3.62829
-3.37237
-3.10788
-2.83491
-2.55355
-2.26396
-1.96632
-1.66083
-1.34775
-1.02736
-0.699978
-0.365981
-0.0257736
0.320193
0.671427
1.02739
1.38751
1.75115
2.11766
2.48632
2.85638
3.22708
3.5976
3.96711
4.33478
4.69974
5.06115
5.41815
5.76992
6.11566
6.45461
6.78606
7.10934
7.42386
7.7291
8.0246
8.31
8.58501
8.84944
9.10317
9.34619
9.57856
9.80043
10.0121
10.2138
10.406
10.5893
10.7642
10.9313
11.0913
11.245
11.3932
11.5367
11.6766
11.8136
11.9488
12.0831
12.2176
12.3532
12.4909
12.6317
12.7764
12.9258
13.0809
13.2422
13.4103
13.5857
13.7688
13.9591
14.157
14.3571
14.571
14.7231
-6.90234
-6.91729
-6.93254
-6.94481
-6.95398
-6.96079
-6.96578
-6.96931
-6.97171
-6.97329
-6.97443
-6.97549
-6.97689
-6.97907
-6.98248
-6.98754
-6.99461
-7.004
-7.01591
-7.03044
-7.04761
-7.06735
-7.08953
-7.11396
-7.14042
-7.16865
-7.1984
-7.2294
-7.26139
-7.29414
-7.32741
-7.36101
-7.39475
-7.42846
-7.46202
-7.4953
-7.5282
-7.56063
-7.59253
-7.62384
-7.65449
-7.68446
-7.71369
-7.74216
-7.76981
-7.79663
-7.82257
-7.84759
-7.87165
-7.89469
-7.91667
-7.93751
-7.95717
-7.97555
-7.99259
-8.00821
-8.0223
-8.03477
-8.04553
-8.05446
-8.06146
-8.06641
-8.06918
-8.06967
-8.06773
-8.06325
-8.0561
-8.04615
-8.03326
-8.01731
-7.99815
-7.97567
-7.94972
-7.92017
-7.88689
-7.84974
-7.8086
-7.76331
-7.71374
-7.65974
-7.60119
-7.53791
-7.46977
-7.39659
-7.31822
-7.23449
-7.14521
-7.0502
-6.94927
-6.84222
-6.72884
-6.60894
-6.48232
-6.34878
-6.20812
-6.06017
-5.90472
-5.74159
-5.57062
-5.39164
-5.2045
-5.00907
-4.80523
-4.59288
-4.37194
-4.14235
-3.90409
-3.65715
-3.40154
-3.13732
-2.86456
-2.58337
-2.29389
-1.99631
-1.69083
-1.37769
-1.05717
-0.72961
-0.395357
-0.0548226
0.291547
0.64326
0.999783
1.36053
1.72487
2.09215
2.46165
2.83262
3.20427
3.57579
3.94634
4.31506
4.68108
5.04354
5.40156
5.75432
6.10099
6.4408
6.77302
7.09698
7.41207
7.71776
8.01359
8.29919
8.57427
8.83863
9.09217
9.33486
9.56677
9.78807
9.99901
10.1999
10.3913
10.5735
10.7473
10.9132
11.0719
11.2242
11.371
11.513
11.6513
11.7867
11.9201
12.0527
12.1854
12.3192
12.4549
12.5937
12.7363
12.8837
13.0365
13.1954
13.361
13.5336
13.7134
13.8998
14.0928
14.2866
14.493
14.6342
-6.88599
-6.90176
-6.91828
-6.93181
-6.94215
-6.95012
-6.9563
-6.96109
-6.96484
-6.96791
-6.97066
-6.97347
-6.97673
-6.98085
-6.98623
-6.99323
-7.00218
-7.01333
-7.02683
-7.04276
-7.06113
-7.08184
-7.10477
-7.12974
-7.15653
-7.18492
-7.21467
-7.24554
-7.27729
-7.30972
-7.34261
-7.3758
-7.4091
-7.44239
-7.47554
-7.50844
-7.54099
-7.57313
-7.60478
-7.63588
-7.6664
-7.69628
-7.72549
-7.75397
-7.7817
-7.80864
-7.83473
-7.85994
-7.88422
-7.9075
-7.92973
-7.95084
-7.97076
-7.98942
-8.00672
-8.02259
-8.03692
-8.04962
-8.06059
-8.0697
-8.07686
-8.08193
-8.08482
-8.08538
-8.0835
-8.07905
-8.07191
-8.06194
-8.04902
-8.03301
-8.0138
-7.99124
-7.96522
-7.93559
-7.90225
-7.86504
-7.82385
-7.77853
-7.72897
-7.67501
-7.61651
-7.55334
-7.48534
-7.41235
-7.33422
-7.25076
-7.16181
-7.06716
-6.96662
-6.85998
-6.74705
-6.62761
-6.50148
-6.36845
-6.22831
-6.08088
-5.92596
-5.76336
-5.59291
-5.41443
-5.22777
-5.0328
-4.82939
-4.61744
-4.39686
-4.16761
-3.92963
-3.68293
-3.42751
-3.16344
-2.89078
-2.60964
-2.32016
-2.02251
-1.71691
-1.40359
-1.08283
-0.754956
-0.420331
-0.0793507
0.26754
0.619852
0.977049
1.33854
1.70371
2.07188
2.44234
2.81433
3.18705
3.55967
3.93135
4.3012
4.66835
5.0319
5.39099
5.74474
6.09234
6.43298
6.76594
7.09051
7.40609
7.71213
8.00817
8.29383
8.56881
8.83293
9.08608
9.32824
9.55948
9.77999
9.99001
10.1899
10.3801
10.5611
10.7335
10.898
11.0552
11.206
11.3511
11.4915
11.628
11.7616
11.8933
12.024
12.1548
12.2866
12.4204
12.5571
12.6976
12.8428
12.9933
13.1498
13.3128
13.4824
13.6588
13.8412
14.0293
14.217
14.4165
14.5483
-6.87474
-6.89078
-6.90789
-6.92213
-6.93326
-6.94209
-6.94921
-6.95503
-6.95992
-6.96424
-6.96835
-6.9726
-6.97736
-6.98301
-6.98988
-6.99832
-7.00859
-7.0209
-7.03541
-7.05218
-7.07119
-7.09239
-7.11565
-7.14079
-7.16765
-7.196
-7.22562
-7.25631
-7.28785
-7.32004
-7.3527
-7.38565
-7.41876
-7.45188
-7.4849
-7.51771
-7.55023
-7.58238
-7.6141
-7.64533
-7.67601
-7.70611
-7.73557
-7.76435
-7.7924
-7.81968
-7.84614
-7.87172
-7.89638
-7.92004
-7.94265
-7.96413
-7.9844
-8.00339
-8.021
-8.03715
-8.05173
-8.06465
-8.07579
-8.08505
-8.09232
-8.09747
-8.10039
-8.10096
-8.09905
-8.09453
-8.0873
-8.07721
-8.06414
-8.04798
-8.02859
-8.00585
-7.97963
-7.94982
-7.91629
-7.87892
-7.83757
-7.79213
-7.74246
-7.68844
-7.62991
-7.56676
-7.49882
-7.42594
-7.34796
-7.26472
-7.176
-7.08163
-6.9814
-6.8751
-6.76254
-6.64351
-6.5178
-6.38522
-6.24554
-6.09858
-5.94414
-5.78201
-5.61201
-5.43398
-5.24775
-5.05318
-4.85014
-4.63853
-4.41825
-4.18925
-3.95149
-3.70496
-3.44967
-3.18568
-2.91305
-2.63189
-2.34234
-2.04457
-1.73878
-1.42521
-1.10414
-0.775897
-0.440828
-0.0993301
0.248153
0.601133
0.959074
1.32139
1.68745
2.05658
2.42807
2.80113
3.17497
3.54875
3.92159
4.29261
4.66091
5.02559
5.38574
5.74049
6.08899
6.43044
6.76407
7.08919
7.40517
7.71146
8.00758
8.29317
8.56792
8.83164
9.08423
9.32568
9.55607
9.77559
9.98451
10.1832
10.3721
10.5516
10.7226
10.8854
11.041
11.1901
11.3334
11.472
11.6066
11.7384
11.8681
11.9969
12.1257
12.2555
12.3872
12.5218
12.6602
12.8031
12.9513
13.1053
13.2655
13.4321
13.605
13.7833
13.9666
14.1484
14.3412
14.4651
-6.86864
-6.88458
-6.90172
-6.91618
-6.92769
-6.93703
-6.94477
-6.95131
-6.95702
-6.96226
-6.96735
-6.97265
-6.97848
-6.98517
-6.99303
-7.00236
-7.01339
-7.02633
-7.0413
-7.05837
-7.07755
-7.09878
-7.12197
-7.14697
-7.17362
-7.20173
-7.23112
-7.26157
-7.29289
-7.32491
-7.35744
-7.39033
-7.42342
-7.4566
-7.48973
-7.52273
-7.5555
-7.58795
-7.62003
-7.65167
-7.6828
-7.71337
-7.74333
-7.77264
-7.80122
-7.82904
-7.85604
-7.88215
-7.90731
-7.93146
-7.95452
-7.97643
-7.99709
-8.01642
-8.03434
-8.05075
-8.06555
-8.07863
-8.0899
-8.09923
-8.10652
-8.11165
-8.11451
-8.11497
-8.11292
-8.10823
-8.10078
-8.09045
-8.07712
-8.06067
-8.04098
-8.01793
-7.99141
-7.96129
-7.92747
-7.88981
-7.84821
-7.80254
-7.75268
-7.6985
-7.63987
-7.57665
-7.50871
-7.43588
-7.358
-7.27489
-7.18635
-7.09218
-6.99218
-6.88618
-6.77394
-6.65527
-6.52996
-6.39779
-6.25856
-6.11204
-5.95805
-5.79637
-5.62682
-5.44921
-5.26338
-5.06919
-4.8665
-4.6552
-4.4352
-4.20643
-3.96886
-3.72248
-3.46729
-3.20336
-2.93073
-2.64953
-2.35988
-2.06196
-1.75596
-1.44213
-1.12074
-0.792097
-0.456567
-0.114539
0.233548
0.587207
0.945902
1.30905
1.67602
2.04612
2.41864
2.79279
3.16775
3.54268
3.9167
4.28888
4.65832
5.0241
5.38529
5.74099
6.09036
6.43254
6.76678
7.09237
7.40866
7.71509
8.01119
8.29657
8.57095
8.83413
9.08601
9.3266
9.55598
9.77436
9.98201
10.1793
10.3667
10.5447
10.714
10.8751
11.0289
11.1761
11.3176
11.4543
11.587
11.7168
11.8445
11.9713
12.0981
12.2258
12.3555
12.488
12.6241
12.7648
12.9105
13.062
13.2194
13.3829
13.5522
13.7264
13.9048
14.0809
14.2673
14.3845
-6.8673
-6.88289
-6.89971
-6.91402
-6.92556
-6.93504
-6.94302
-6.9499
-6.95603
-6.96175
-6.96739
-6.97325
-6.97965
-6.98687
-6.99519
-7.00487
-7.01613
-7.02915
-7.04408
-7.06097
-7.07987
-7.10074
-7.1235
-7.14806
-7.17427
-7.20197
-7.23098
-7.26113
-7.29224
-7.32412
-7.35662
-7.38957
-7.42282
-7.45624
-7.48971
-7.52313
-7.55638
-7.58939
-7.62207
-7.65435
-7.68616
-7.71743
-7.7481
-7.7781
-7.80738
-7.83587
-7.86351
-7.89023
-7.91597
-7.94064
-7.96418
-7.9865
-8.00753
-8.02717
-8.04534
-8.06194
-8.07686
-8.09002
-8.1013
-8.11059
-8.11779
-8.12278
-8.12544
-8.12567
-8.12333
-8.11833
-8.11053
-8.09983
-8.0861
-8.06924
-8.04913
-8.02566
-7.99871
-7.96819
-7.93397
-7.89594
-7.85399
-7.80802
-7.75789
-7.70349
-7.6447
-7.58137
-7.51338
-7.44056
-7.36272
-7.27967
-7.19124
-7.09723
-6.99745
-6.89171
-6.77979
-6.66148
-6.53656
-6.40481
-6.26602
-6.11996
-5.96642
-5.8052
-5.6361
-5.45893
-5.27352
-5.07971
-4.87738
-4.6664
-4.44668
-4.21815
-3.98079
-3.73456
-3.47949
-3.21562
-2.94303
-2.6618
-2.37208
-2.07403
-1.76786
-1.4538
-1.13211
-0.803121
-0.467172
-0.124656
0.223991
0.578283
0.937688
1.30162
1.66944
2.04047
2.41397
2.78916
3.16521
3.54124
3.91637
4.28967
4.6602
5.02701
5.38917
5.74576
6.09591
6.43875
6.77351
7.09946
7.41595
7.72242
8.01837
8.30344
8.57732
8.83982
9.09087
9.33046
9.55871
9.77581
9.98206
10.1778
10.3636
10.54
10.7075
10.8668
11.0187
11.164
11.3036
11.4383
11.569
11.6968
11.8226
11.9473
12.072
12.1977
12.3252
12.4556
12.5895
12.7279
12.8712
13.02
13.1746
13.3349
13.5006
13.6706
13.8442
14.0147
14.1948
14.3063
-6.87018
-6.88538
-6.90172
-6.91563
-6.92685
-6.93609
-6.94387
-6.95062
-6.95668
-6.96239
-6.96805
-6.97395
-6.98037
-6.98756
-6.99578
-7.00526
-7.01621
-7.0288
-7.04319
-7.05945
-7.07764
-7.09777
-7.11979
-7.14362
-7.16916
-7.19627
-7.2248
-7.25458
-7.28545
-7.31723
-7.34976
-7.38288
-7.41643
-7.45026
-7.48426
-7.51829
-7.55223
-7.586
-7.61948
-7.65258
-7.68523
-7.71735
-7.74885
-7.77966
-7.80971
-7.83893
-7.86725
-7.89458
-7.92087
-7.94603
-7.96999
-7.99266
-8.01396
-8.03381
-8.05211
-8.06877
-8.0837
-8.09679
-8.10794
-8.11705
-8.12401
-8.12871
-8.13104
-8.13089
-8.12814
-8.12269
-8.11442
-8.10321
-8.08898
-8.07159
-8.05095
-8.02696
-7.9995
-7.96847
-7.93378
-7.89531
-7.85296
-7.80663
-7.75619
-7.70155
-7.64257
-7.57912
-7.51104
-7.43816
-7.36028
-7.27726
-7.18892
-7.09508
-6.99553
-6.89007
-6.77849
-6.66057
-6.53607
-6.40479
-6.26648
-6.12092
-5.96789
-5.80718
-5.63857
-5.46188
-5.27693
-5.08356
-4.88162
-4.67101
-4.45162
-4.22339
-3.98627
-3.74025
-3.48535
-3.22161
-2.94909
-2.66791
-2.37818
-2.08009
-1.77382
-1.45961
-1.13772
-0.808468
-0.472195
-0.12929
0.219815
0.574638
0.934647
1.29926
1.66783
2.03968
2.41406
2.79018
3.1672
3.54424
3.92038
4.29468
4.66618
5.03392
5.39695
5.75432
6.10513
6.44853
6.78369
7.10989
7.42647
7.73285
8.02854
8.31316
8.58643
8.84814
9.09824
9.33673
9.56372
9.77945
9.98421
10.1784
10.3625
10.5371
10.7027
10.8602
11.0102
11.1536
11.2912
11.4239
11.5527
11.6784
11.8022
11.9249
12.0476
12.1712
12.2967
12.4249
12.5566
12.6926
12.8335
12.9797
13.1313
13.2884
13.4505
13.6163
13.785
13.9501
14.124
14.2305
-6.8772
-6.89217
-6.90804
-6.92136
-6.93191
-6.94043
-6.94749
-6.95353
-6.95893
-6.96402
-6.96908
-6.97438
-6.98017
-6.98669
-6.99416
-7.0028
-7.01281
-7.02437
-7.03765
-7.05274
-7.06974
-7.08869
-7.10957
-7.13235
-7.15694
-7.18325
-7.21114
-7.24047
-7.27106
-7.30275
-7.33537
-7.36875
-7.40271
-7.4371
-7.47177
-7.50657
-7.54137
-7.57604
-7.61046
-7.64452
-7.67811
-7.71115
-7.74354
-7.77519
-7.80602
-7.83594
-7.86489
-7.89278
-7.91953
-7.94508
-7.96933
-7.99222
-8.01366
-8.03356
-8.05184
-8.06842
-8.08318
-8.09606
-8.10693
-8.11571
-8.12228
-8.12655
-8.12841
-8.12775
-8.12446
-8.11844
-8.10959
-8.09779
-8.08294
-8.06495
-8.04371
-8.01912
-7.99109
-7.95952
-7.92431
-7.88537
-7.84261
-7.79591
-7.74519
-7.69032
-7.63115
-7.56753
-7.4993
-7.42632
-7.34843
-7.26548
-7.17729
-7.08366
-6.98441
-6.87932
-6.76816
-6.65072
-6.52675
-6.39601
-6.25829
-6.11333
-5.9609
-5.80079
-5.63278
-5.45666
-5.27226
-5.07941
-4.87796
-4.6678
-4.44882
-4.22097
-3.98419
-3.73848
-3.48384
-3.22032
-2.94799
-2.66695
-2.37734
-2.07931
-1.77307
-1.45884
-1.13689
-0.807516
-0.471065
-0.127919
0.221492
0.576691
0.937147
1.30228
1.67144
2.04395
2.41905
2.79595
3.17378
3.55167
3.92866
4.30382
4.67615
5.04467
5.40842
5.76642
6.11775
6.46155
6.79697
7.12329
7.43981
7.74597
8.04126
8.32532
8.59784
8.85865
9.10769