/*--------------------------------*- C++ -*----------------------------------*\
  =========                 |
  \\      /  F ield         | OpenFOAM: The Open Source CFD Toolbox
   \\    /   O peration     | Website:  https://openfoam.org
    \\  /    A nd           | Version:  9
     \\/     M anipulation  |
\*---------------------------------------------------------------------------*/
FoamFile
{
    format      ascii;
    class       volScalarField;
    location    "0.7";
    object      alpha.water;
}
// * * * * * * * * * * * * * * * * * * * * * * * * * * * * * * * * * * * * * //

dimensions      [0 0 0 0 0 0 0];

internalField   nonuniform List<scalar> 
2268
(
2.89971e-06
2.6722e-06
3.34906e-07
1.06964e-10
1.39773e-12
1.79209e-14
8.44226e-16
1.24219e-17
2.04725e-19
4.21797e-21
1.10126e-23
-7.778e-23
-9.20855e-23
-2.69673e-23
-5.14598e-24
5.03911e-25
1.94618e-24
1.95479e-24
1.80635e-24
1.59469e-24
1.44121e-24
1.32612e-24
1.0359e-24
1.87693e-06
6.37833e-07
1.97983e-08
1.55673e-10
1.26305e-12
5.14864e-15
8.18207e-18
9.59328e-21
0
-8.56872e-21
-2.93631e-21
-5.02013e-22
-7.34185e-23
-1.02839e-23
-1.31056e-24
-7.56136e-26
7.00568e-26
5.79367e-26
3.98063e-26
1.45091e-25
4.8459e-25
1.00568e-24
9.72145e-25
-1.02567e-13
-2.2108e-15
2.31605e-11
8.26093e-12
3.98738e-14
1.14865e-17
5.32987e-19
-5.21041e-20
-3.39775e-20
-1.29277e-20
-2.67597e-21
-1.99394e-22
-1.37447e-23
-1.00437e-24
-7.93298e-26
-4.861e-27
2.71702e-27
7.88156e-27
8.59133e-27
8.85509e-27
5.97278e-26
5.38931e-25
8.70348e-25
-4.62242e-13
6.23534e-15
2.23362e-17
5.31101e-15
-2.34402e-15
-9.28497e-18
-5.93459e-20
-8.94459e-20
-4.23767e-20
-1.21042e-20
-1.67778e-21
-2.23723e-23
-3.63292e-25
-6.25433e-27
1.14765e-27
4.0947e-27
1.45194e-26
3.48319e-26
3.58592e-26
2.2369e-26
2.15197e-26
2.94138e-25
7.59453e-25
-1.49531e-12
-1.3769e-13
-1.14886e-13
-8.73899e-14
-2.7268e-15
3.14773e-18
-1.83643e-19
-1.08584e-19
-4.02741e-20
-8.90694e-21
-9.26154e-22
2.51211e-24
4.17884e-27
1.39483e-27
3.43966e-27
1.79492e-26
5.08715e-26
8.50545e-26
7.94619e-26
3.96203e-26
2.1494e-26
1.68302e-25
6.64446e-25
-3.38227e-12
-4.69589e-12
-6.35013e-13
-6.90714e-14
-1.29878e-15
1.17093e-17
-5.82984e-20
-1.06471e-19
-3.1755e-20
-5.54907e-21
-4.47642e-22
1.77946e-24
2.48909e-27
2.20347e-27
2.20925e-26
1.22294e-25
3.94583e-25
5.49158e-25
2.76759e-25
5.6627e-26
2.1494e-26
1.64072e-25
6.14461e-25
-5.73415e-12
-7.3895e-12
-6.09483e-13
-4.09762e-14
-5.83018e-16
1.1689e-17
-1.28325e-19
-8.73658e-20
-2.17441e-20
-3.0717e-21
-1.9878e-22
1.09518e-24
3.21798e-27
2.4737e-26
2.23496e-25
1.46905e-24
5.05536e-24
6.73422e-24
1.39499e-24
9.38831e-26
3.40832e-26
1.93568e-25
5.98073e-25
-1.22305e-11
-9.32893e-12
-4.7613e-13
-2.40801e-14
-2.56496e-16
9.01028e-18
-1.46646e-19
-6.23871e-20
-1.3149e-20
-1.55286e-21
-8.39799e-23
6.1572e-25
7.67802e-27
1.11442e-25
9.20409e-25
6.52631e-24
2.26887e-23
2.45688e-23
1.50475e-25
1.4944e-25
8.99007e-26
2.68017e-25
5.43901e-25
3.34933e-22
6.25721e-22
6.22526e-20
1.64575e-18
2.27005e-17
2.13395e-16
1.56973e-15
9.801e-15
5.47576e-14
2.85989e-13
1.4277e-12
6.47121e-12
2.49749e-11
8.39113e-11
2.5904e-10
7.87247e-10
2.79795e-09
1.0411e-08
3.07166e-08
8.32178e-22
1.59078e-20
2.15256e-18
5.24721e-17
6.51157e-16
5.66392e-15
3.94063e-14
2.36843e-13
1.28984e-12
6.52784e-12
2.98443e-11
1.14872e-10
3.92236e-10
1.4409e-09
5.56107e-09
1.76906e-08
3.83032e-08
5.51728e-08
6.53553e-08
1.434e-20
3.74128e-19
1.42093e-17
3.99006e-16
5.29221e-15
4.7938e-14
3.43859e-13
2.10566e-12
1.1332e-11
5.19902e-11
1.92734e-10
6.19645e-10
2.26945e-09
1.06016e-08
4.58861e-08
1.57187e-07
5.0632e-07
1.1491e-06
1.22549e-06
3.56606e-19
3.21843e-18
8.28122e-17
1.94673e-15
2.76581e-14
2.5739e-13
1.87608e-12
1.13488e-11
5.47285e-11
1.92315e-10
5.46369e-10
1.77162e-09
8.32647e-09
4.59886e-08
2.19164e-07
8.77453e-07
3.97912e-06
1.20211e-05
1.40779e-05
2.70193e-18
1.77222e-17
3.71564e-16
7.75387e-15
1.13814e-13
1.07078e-12
7.78739e-12
4.248e-11
1.43272e-10
3.61828e-10
1.34463e-09
6.0984e-09
3.07523e-08
1.6382e-07
7.35953e-07
3.052e-06
2.04023e-05
7.77822e-05
9.86824e-05
1.54389e-17
7.81394e-17
1.44004e-15
2.74406e-14
4.11135e-13
3.90599e-12
2.52042e-11
9.10498e-11
2.3997e-10
9.67675e-10
4.5531e-09
2.37008e-08
1.19435e-07
6.19184e-07
2.82341e-06
1.12624e-05
6.3354e-05
0.000341068
0.000488142
7.16838e-17
3.08412e-16
5.20325e-15
9.40432e-14
1.40203e-12
1.19652e-11
5.18938e-11
1.50492e-10
6.25883e-10
2.8955e-09
1.52002e-08
8.11877e-08
4.07873e-07
2.09265e-06
1.15494e-05
3.8289e-05
0.000183421
0.00100658
0.00161347
3.03988e-16
1.17548e-15
1.70733e-14
2.95867e-13
4.21281e-12
2.54873e-11
9.11269e-11
3.52851e-10
1.5936e-09
8.72246e-09
4.69901e-08
2.45932e-07
1.21193e-06
5.80638e-06
2.90662e-05
0.000132281
0.000525194
0.00177417
0.00417465
-3.7391e-11
-1.78477e-11
-2.90758e-13
-1.02979e-14
-6.0212e-17
2.22171e-18
-1.05557e-19
-3.34716e-20
-6.36781e-21
-7.21552e-22
-3.48224e-23
3.55253e-25
3.79333e-25
4.89544e-24
4.29162e-23
3.17967e-22
1.53434e-21
2.93068e-21
7.28033e-22
2.89882e-22
6.2997e-22
1.93577e-21
2.42981e-18
-6.28278e-11
-2.54971e-11
-1.98549e-13
-4.90237e-15
-8.02039e-18
1.6406e-20
-4.39766e-20
-1.04208e-20
-1.34374e-21
-1.14814e-22
-4.52502e-24
5.235e-25
1.28742e-23
1.30646e-22
1.10896e-21
7.73207e-21
4.2815e-20
1.91639e-19
7.82263e-19
3.35086e-18
1.60457e-17
1.0869e-16
7.57872e-16
-8.33913e-11
-3.12598e-11
-1.49026e-13
-2.39742e-15
3.37939e-17
-2.42044e-21
-1.48176e-20
-2.93042e-21
-2.92328e-22
-1.21479e-23
3.35124e-25
2.0715e-23
2.23909e-22
2.11049e-21
1.73064e-20
1.24549e-19
7.87584e-19
4.29182e-18
1.99574e-17
8.32087e-17
3.38174e-16
1.55447e-15
6.50413e-15
-9.93164e-11
-3.49239e-11
-1.1898e-13
-1.09988e-15
8.60207e-17
7.737e-21
-4.35851e-21
-8.02312e-22
-6.49626e-23
1.30137e-25
1.91454e-23
2.37274e-22
2.15691e-21
1.74771e-20
1.26023e-19
8.0894e-19
4.60636e-18
2.32017e-17
1.04038e-16
4.31158e-16
1.73615e-15
7.60822e-15
2.99471e-14
-1.10684e-10
-3.67931e-11
-9.89347e-14
-4.40281e-16
8.70368e-17
1.04225e-19
-1.06918e-21
-2.10146e-22
-5.71524e-24
2.51199e-24
1.39801e-22
1.28471e-21
1.0499e-20
7.64774e-20
4.99857e-19
2.9445e-18
1.56638e-17
7.53839e-17
3.3145e-16
1.37972e-15
5.66567e-15
2.51367e-14
9.96737e-14
-1.17955e-10
-3.73259e-11
-8.46516e-14
-1.25395e-16
8.19526e-17
5.96363e-20
-1.60262e-22
-4.49881e-23
3.51082e-25
5.71604e-23
6.04755e-22
5.102e-21
3.83192e-20
2.58122e-19
1.57188e-18
8.70683e-18
4.40797e-17
2.05193e-16
8.90172e-16
3.72178e-15
1.54765e-14
6.869e-14
2.71784e-13
-1.21796e-10
-3.69507e-11
-7.39775e-14
-7.1791e-18
6.66953e-17
2.1695e-20
5.74443e-23
-3.44933e-40
1.61899e-23
2.33565e-22
2.11327e-21
1.6707e-20
1.1787e-19
7.50043e-19
4.34223e-18
2.30369e-17
1.12751e-16
5.13487e-16
2.20876e-15
9.24105e-15
3.83765e-14
1.66602e-13
6.43576e-13
-1.22888e-10
-3.60031e-11
-6.56851e-14
5.96925e-17
3.18268e-17
7.1565e-21
1.65632e-22
2.34946e-23
6.97892e-23
7.33702e-22
6.28331e-21
4.71898e-20
3.17763e-19
1.93957e-18
1.08303e-17
5.57642e-17
2.66822e-16
1.19801e-15
5.12163e-15
2.13513e-14
8.76865e-14
3.67538e-13
1.36767e-12
-1.21847e-10
-3.4723e-11
-5.91563e-14
1.03844e-16
8.1684e-18
6.9188e-21
3.90844e-22
9.64882e-23
1.99943e-22
1.97884e-21
1.63357e-20
1.17945e-19
7.6613e-19
4.53087e-18
2.46246e-17
1.24024e-16
5.83745e-16
2.59364e-15
1.1024e-14
4.56404e-14
1.84254e-13
7.40617e-13
2.6196e-12
-1.19186e-10
-3.32735e-11
-5.41715e-14
1.41014e-16
1.32002e-18
1.52076e-20
3.43856e-21
9.60448e-22
6.73233e-22
4.66324e-21
3.79247e-20
2.66014e-19
1.67852e-18
9.67518e-18
5.14248e-17
2.54239e-16
1.17951e-15
5.18746e-15
2.18741e-14
8.949e-14
3.52534e-13
1.34951e-12
4.52264e-12
-1.15312e-10
-3.17615e-11
-5.08501e-14
2.01366e-16
1.09096e-18
1.02639e-19
3.54959e-20
8.90596e-21
4.10308e-21
9.97768e-21
8.00554e-20
5.53557e-19
3.41516e-18
1.92547e-17
1.0032e-16
4.87235e-16
2.22652e-15
9.66859e-15
4.02521e-14
1.61471e-13
6.14655e-13
2.23105e-12
7.15393e-12
-1.10552e-10
-3.02563e-11
-4.95216e-14
3.06855e-16
2.09521e-18
7.48419e-19
2.53685e-19
6.89228e-20
2.663e-20
2.49772e-20
1.56161e-19
1.09442e-18
6.64009e-18
3.67644e-17
1.88134e-16
8.98025e-16
4.03684e-15
1.72496e-14
7.04508e-14
2.74492e-13
1.00116e-12
3.44963e-12
1.06992e-11
-1.0516e-10
-2.88016e-11
-5.05903e-14
4.77869e-16
8.15881e-18
4.37065e-18
1.47861e-18
4.87093e-19
1.75475e-19
1.08325e-19
3.03126e-19
2.09353e-18
1.26757e-17
6.92732e-17
3.49225e-16
1.64113e-15
7.25784e-15
3.04403e-14
1.21194e-13
4.54791e-13
1.58379e-12
5.21275e-12
1.57194e-11
-9.93361e-11
-2.74249e-11
-5.44124e-14
7.33963e-16
3.43576e-17
2.07353e-17
7.64528e-18
3.04498e-18
1.11863e-18
5.86981e-19
6.90475e-19
3.90043e-18
2.39551e-17
1.30062e-16
6.48286e-16
3.00757e-15
1.31029e-14
5.38484e-14
2.07979e-13
7.48848e-13
2.4965e-12
7.89716e-12
2.30392e-11
-9.32347e-11
-2.61424e-11
-6.11882e-14
1.11498e-15
1.29783e-16
8.47209e-17
3.52515e-17
1.61362e-17
6.14642e-18
2.73012e-18
2.12186e-18
7.1863e-18
4.43511e-17
2.41065e-16
1.19225e-15
5.47434e-15
2.35186e-14
9.45503e-14
3.53322e-13
1.22121e-12
3.91171e-12
1.18878e-11
3.31695e-11
-8.6974e-11
-2.49633e-11
-7.08677e-14
1.73933e-15
4.38008e-16
3.08969e-16
1.44072e-16
7.22008e-17
2.83953e-17
1.14731e-17
7.59659e-18
1.37025e-17
7.84088e-17
4.2883e-16
2.10728e-15
9.56638e-15
4.0396e-14
1.58373e-13
5.75221e-13
1.94692e-12
6.19167e-12
1.86552e-11
5.05638e-11
-8.06484e-11
-2.38922e-11
-8.3054e-14
2.90754e-15
1.34274e-15
1.025e-15
5.24541e-16
2.79432e-16
1.1513e-16
4.58104e-17
2.70987e-17
2.92892e-17
1.2739e-16
6.99233e-16
3.4213e-15
1.53495e-14
6.38296e-14
2.46402e-13
8.87061e-13
3.00707e-12
9.57558e-12
2.79157e-11
6.91025e-11
-7.43319e-11
-2.29309e-11
-9.68674e-14
5.28592e-15
3.80815e-15
3.12816e-15
1.72378e-15
9.623e-16
4.22218e-16
1.7358e-16
9.05709e-17
7.53457e-17
1.96041e-16
1.03287e-15
5.12499e-15
2.31998e-14
9.72044e-14
3.78894e-13
1.37403e-12
4.58301e-12
1.35367e-11
3.39913e-11
7.10621e-11
-6.80769e-11
-2.20796e-11
-1.10702e-13
1.02258e-14
1.0087e-14
8.88794e-15
5.19778e-15
3.01486e-15
1.42007e-15
6.2875e-16
3.48926e-16
2.94997e-16
4.4672e-16
1.65484e-15
7.75562e-15
3.67613e-14
1.64779e-13
6.72488e-13
2.40616e-12
7.29915e-12
1.84004e-11
3.85311e-11
6.78876e-11
-6.19146e-11
-2.13373e-11
-1.21807e-13
2.08062e-14
2.46254e-14
2.36481e-14
1.46193e-14
8.71479e-15
4.55039e-15
2.63048e-15
2.16151e-15
2.27547e-15
3.48836e-15
6.177e-15
1.58358e-14
6.38247e-14
3.28172e-13
1.58575e-12
5.77811e-12
1.50032e-11
2.95044e-11
4.8487e-11
7.24577e-11
-5.58605e-11
-2.0703e-11
-1.2575e-13
4.266e-14
5.74122e-14
5.85618e-14
3.88327e-14
2.39264e-14
1.54853e-14
1.30457e-14
1.49169e-14
2.55462e-14
3.89852e-14
5.39988e-14
7.7543e-14
1.49911e-13
4.94109e-13
2.08268e-12
7.49611e-12
2.01361e-11
4.07821e-11
6.68795e-11
9.79586e-11
-4.99391e-11
-2.01754e-11
-1.15646e-13
8.58845e-14
1.28355e-13
1.35993e-13
9.86775e-14
6.59541e-14
5.5195e-14
5.66796e-14
1.00867e-13
2.02525e-13
3.30487e-13
4.53505e-13
5.60404e-13
6.84595e-13
1.00641e-12
2.28526e-12
6.28097e-12
1.67304e-11
3.63086e-11
6.44178e-11
1.04841e-10
-4.4191e-11
-1.97519e-11
-8.12727e-14
1.68502e-13
2.73626e-13
2.99274e-13
2.44309e-13
1.85453e-13
1.77985e-13
2.35469e-13
5.17626e-13
1.13485e-12
1.97688e-12
2.83012e-12
3.50438e-12
3.93694e-12
4.25203e-12
4.78698e-12
6.93251e-12
1.19951e-11
2.24614e-11
4.43493e-11
8.36822e-11
-3.86797e-11
-1.94273e-11
-1.40929e-14
3.13423e-13
5.59033e-13
6.30921e-13
5.92721e-13
5.09201e-13
5.38057e-13
8.45135e-13
2.01335e-12
4.59268e-12
8.30906e-12
1.23636e-11
1.56529e-11
1.73641e-11
1.78038e-11
1.72432e-11
1.81896e-11
1.89777e-11
2.27206e-11
3.02475e-11
4.55251e-11
-3.34626e-11
-1.91953e-11
1.87017e-14
6.06381e-13
1.09654e-12
1.3231e-12
1.38516e-12
1.3316e-12
1.50622e-12
2.37178e-12
5.33101e-12
1.25162e-11
2.4757e-11
3.98443e-11
5.40139e-11
6.72906e-11
8.23647e-11
8.91578e-11
6.38304e-11
5.53438e-11
4.87909e-11
4.63541e-11
4.86392e-11
-2.85975e-11
-1.90339e-11
9.13862e-14
1.12023e-12
2.07402e-12
2.71992e-12
3.13789e-12
3.38161e-12
3.97982e-12
6.27682e-12
1.23003e-11
2.51977e-11
5.0052e-11
8.80793e-11
1.37131e-10
1.97369e-10
2.80894e-10
3.25055e-10
3.00569e-10
2.46576e-10
2.50336e-10
1.8957e-10
1.19204e-10
-2.40661e-11
-1.89055e-11
2.10138e-13
1.9186e-12
3.7733e-12
5.45979e-12
6.9374e-12
8.33823e-12
1.05142e-11
1.80665e-11
3.52646e-11
5.92219e-11
1.00668e-10
1.65554e-10
2.52733e-10
3.72577e-10
4.99437e-10
5.13684e-10
4.73574e-10
4.46116e-10
4.44664e-10
4.42249e-10
4.22194e-10
-1.98808e-11
-1.87362e-11
4.16607e-13
3.09107e-12
6.43514e-12
1.03539e-11
1.48794e-11
1.97899e-11
2.72021e-11
5.26966e-11
1.03474e-10
1.64649e-10
2.37421e-10
3.21565e-10
4.05138e-10
4.99045e-10
5.28856e-10
5.28856e-10
4.79696e-10
4.08553e-10
3.9558e-10
3.92195e-10
3.85589e-10
-1.59039e-11
-1.84131e-11
7.37822e-13
5.20389e-12
1.12394e-11
1.89567e-11
2.92341e-11
4.26765e-11
6.61748e-11
1.39698e-10
2.6767e-10
3.61291e-10
3.937e-10
3.97325e-10
4.01026e-10
4.17357e-10
4.39108e-10
4.41501e-10
1.27942e-09
3.1292e-09
1.33286e-09
3.95574e-10
3.88687e-10
-1.22012e-11
-1.77186e-11
8.48677e-13
8.27293e-12
2.02039e-11
3.7788e-11
6.10914e-11
8.6312e-11
1.42887e-10
2.82287e-10
4.65466e-10
5.62068e-10
6.17254e-10
7.46669e-10
1.2049e-09
1.45658e-09
1.14205e-09
4.99406e-10
5.11948e-10
9.17977e-10
5.49278e-08
7.98677e-08
8.10128e-08
-8.25929e-12
-1.60345e-11
6.95785e-13
9.17528e-12
2.41012e-11
5.12373e-11
9.17127e-11
1.5552e-10
2.76612e-10
4.31097e-10
4.99274e-10
5.01635e-10
5.19652e-10
1.10532e-09
3.76423e-09
6.0642e-09
6.26705e-09
5.54421e-09
2.88897e-09
2.56837e-09
2.81205e-09
4.60627e-08
8.1994e-08
-4.65913e-12
-1.25368e-11
2.63346e-13
6.89414e-12
1.99283e-11
4.23081e-11
8.06095e-11
1.45224e-10
2.62632e-10
4.10211e-10
4.6359e-10
4.29486e-10
4.25966e-10
5.41874e-10
1.25426e-09
4.84018e-09
6.38762e-09
6.38762e-09
4.91362e-09
2.81202e-09
3.76265e-09
7.50163e-09
7.55028e-09
0
4.46267e-06
-1.12797e-11
-5.73645e-12
5.54807e-12
1.04461e-11
2.29581e-11
3.55337e-11
4.93931e-11
9.82465e-11
1.99504e-10
2.57316e-10
2.84299e-10
2.9438e-10
3.3483e-10
8.6496e-10
1.40826e-09
1.36865e-09
1.40656e-09
2.25997e-07
4.40128e-07
4.40128e-07
2.91946e-07
0.000716662
7.09985e-05
-1.20376e-09
-9.61475e-12
-4.03385e-11
-2.81594e-12
0
5.71864e-12
3.2726e-11
2.14959e-10
1.92949e-09
2.80203e-09
1.79985e-09
6.65112e-10
8.78452e-10
1.39575e-09
1.36449e-09
1.36419e-09
5.54227e-09
3.97118e-08
2.4913e-08
2.84465e-09
1.26215e-06
0.00426259
7.70105e-05
-3.98891e-07
-6.26641e-08
0
3.53801e-09
3.17666e-08
4.66481e-08
1.28408e-07
2.38923e-07
2.5484e-07
1.73872e-07
7.08522e-08
1.64017e-08
1.69831e-09
1.37954e-09
1.36449e-09
1.36784e-09
1.57824e-09
1.66376e-09
1.93524e-09
2.37508e-09
2.76472e-09
0.00450565
0.000760511
3.6565e-06
2.75104e-07
2.245e-08
1.36933e-07
5.48364e-07
5.30195e-06
7.01082e-06
5.24266e-06
2.66442e-06
1.88471e-06
1.38461e-06
1.20184e-07
5.71195e-09
2.36706e-09
1.61806e-09
1.53294e-09
2.00535e-09
1.91219e-09
2.09216e-09
2.50423e-06
2.30632e-05
0.00454459
0.00451626
0.00102605
1.20454e-05
2.12963e-06
1.38418e-05
7.80449e-05
0.000110476
7.08527e-05
1.43074e-05
2.45475e-06
9.06469e-07
2.62982e-07
1.22263e-07
7.07203e-08
2.37114e-05
0.000180787
0.000187252
0.000185512
0.000146978
7.96032e-06
2.10114e-06
1.27659e-05
0.00452536
0.00454384
0.00436793
0.0033298
0.002776
0.0026767
0.00134136
8.66434e-05
4.27108e-05
1.98616e-05
4.07442e-06
1.17824e-06
3.83671e-07
1.74212e-07
1.36318e-07
1.66202e-07
1.74233e-06
1.53501e-05
1.36577e-05
4.25965e-06
2.10114e-06
4.04086e-06
3.78196e-06
0.00140393
0.00132644
0.00101642
0.0172985
0.0206961
0.00740492
0.000561316
0.000279261
0.000322305
6.17764e-05
6.76063e-05
4.08068e-06
0.00676661
0.00769008
0.00310036
9.58233e-07
5.10468e-06
1.21879e-05
1.37112e-05
0.00218803
0.0119718
0.0231151
0.0327391
6.86358e-06
1.0643e-05
1.98528e-05
0.00911018
0.0360659
0.0197374
0.0196592
0.0205806
0.0175052
0.00886353
0.0427241
0.388959
0.56106
0.563218
0.545445
0.538276
0.54051
0.547932
0.588563
0.678474
0.679861
0.681608
0.682753
5.32861e-06
6.86391e-06
8.16584e-06
2.1573e-05
0.0604354
0.268761
0.280825
0.283014
0.283014
0.283014
0.148402
0.197454
0.572221
0.650314
0.65113
0.651778
0.653343
0.654942
0.653705
0.532752
0.390806
0.553415
0.822315
5.32861e-06
3.41434e-06
9.23673e-06
0.00218151
0.00540685
0.0200777
0.02239
0.0159723
0.012286
0.00933835
0.012176
0.0253705
0.0550564
0.0590866
0.0654763
0.06006
0.0651813
0.0648184
0.0685973
0.0617115
0.0637256
0.065985
0.0771571
8.59764e-17
7.09926e-16
1.80175e-15
2.20135e-15
2.3377e-15
5.35276e-15
5.21006e-15
4.57798e-15
1.54355e-14
3.08465e-14
3.03015e-14
2.46603e-14
6.88632e-14
1.33293e-13
1.42793e-13
1.21327e-13
2.2814e-13
4.32087e-13
5.20788e-13
4.91541e-13
6.19505e-13
1.16068e-12
1.50881e-12
1.76906e-12
1.44942e-12
2.68103e-12
3.64566e-12
4.93064e-12
3.02302e-12
5.43959e-12
7.2881e-12
1.08225e-11
5.58708e-12
9.70333e-12
1.39017e-11
2.28436e-11
9.38391e-12
1.62569e-11
2.48201e-11
4.20557e-11
1.4699e-11
2.56403e-11
4.00546e-11
6.55869e-11
2.19148e-11
3.78303e-11
5.85922e-11
9.11397e-11
3.18944e-11
5.34274e-11
8.02849e-11
1.17561e-10
4.55912e-11
7.29088e-11
1.05377e-10
1.4694e-10
6.33266e-11
9.71054e-11
1.36447e-10
1.84572e-10
9.32576e-11
1.36135e-10
1.8304e-10
2.35004e-10
1.15069e-10
1.53157e-10
1.94236e-10
2.39882e-10
1.09215e-10
1.41837e-10
1.77073e-10
2.15109e-10
9.25069e-11
1.10149e-10
1.28618e-10
1.48769e-10
9.37422e-11
1.08525e-10
1.21966e-10
1.34087e-10
1.2497e-10
1.40781e-10
1.48994e-10
1.52258e-10
1.49433e-10
1.83836e-10
2.08221e-10
2.23837e-10
1.26901e-10
1.62661e-10
1.93991e-10
2.19283e-10
6.80637e-11
9.11453e-11
1.16796e-10
1.45216e-10
5.46016e-11
6.0645e-11
6.78938e-11
7.82161e-11
9.38731e-11
8.95472e-11
8.81681e-11
9.01278e-11
3.84214e-10
3.33202e-10
2.80799e-10
2.27983e-10
3.83242e-10
3.84295e-10
3.91486e-10
3.92201e-10
3.84129e-10
3.83215e-10
3.83071e-10
3.83222e-10
8.19492e-08
6.78713e-08
1.07262e-08
8.33093e-10
8.24308e-08
8.24308e-08
8.24308e-08
8.22506e-08
8.29428e-09
1.31274e-08
1.80099e-08
2.00893e-08
1.05681e-07
5.10061e-08
2.44782e-08
2.19305e-08
2.09486e-06
2.08827e-06
2.09563e-06
4.06059e-07
1.73293e-08
9.23243e-08
3.05174e-07
2.92337e-06
2.91929e-05
2.97676e-05
2.96418e-05
3.00241e-05
2.75521e-05
2.92013e-05
2.87984e-05
2.50935e-05
3.32326e-06
2.68664e-06
1.88552e-06
1.24121e-06
0.0417664
0.0477098
0.0515383
0.058624
0.681581
0.670489
0.679922
0.731522
0.841318
0.846824
0.850067
0.851699
0.0745443
0.0700164
0.0730235
0.0843669
1.17743e-15
1.47611e-14
2.16093e-13
2.79901e-12
1.99666e-11
7.47485e-11
2.17206e-10
9.53281e-10
4.72115e-09
2.50739e-08
1.27613e-07
6.29138e-07
2.97866e-06
1.38134e-05
0.000105686
0.00137038
0.00753936
0.0174498
0.012895
2.05376e-14
2.39594e-13
2.14516e-12
1.5209e-11
6.04173e-11
1.6289e-10
5.61148e-10
2.393e-09
1.27666e-08
6.44534e-08
3.15702e-07
1.48121e-06
6.69252e-06
3.48486e-05
0.000628843
0.00651527
0.0211065
0.0439056
0.306503
2.07281e-13
1.50009e-12
9.67237e-12
4.41015e-11
1.2211e-10
2.80405e-10
1.09129e-09
5.11297e-09
2.61065e-08
1.29185e-07
6.25512e-07
2.85062e-06
1.3471e-05
0.000288138
0.00231039
0.00902728
0.0135719
0.0466432
0.739592
1.09801e-12
6.06562e-12
2.95782e-11
9.288e-11
2.08388e-10
5.67766e-10
2.15894e-09
1.12612e-08
5.74004e-08
2.92204e-07
1.4279e-06
6.90993e-06
0.000174265
0.00128599
0.00291933
0.00106268
7.25671e-08
0.0281384
0.742992
3.97745e-12
1.8184e-11
6.57275e-11
1.55584e-10
3.17194e-10
1.0872e-09
5.0325e-09
2.63925e-08
1.38711e-07
7.28192e-07
3.64469e-06
9.10265e-05
0.000745362
0.00120594
0.000352151
6.70317e-08
7.00741e-08
0.0134717
0.743057
1.08517e-11
4.12817e-11
1.09586e-10
2.15505e-10
5.68533e-10
2.15614e-09
1.14914e-08
6.11329e-08
3.29318e-07
1.71222e-06
3.34183e-05
0.000370092
0.000528737
0.000164266
6.24379e-08
6.33601e-08
6.70317e-08
0.00643376
0.742929
2.40046e-11
7.4493e-11
1.6181e-10
2.94293e-10
9.56558e-10
4.39785e-09
2.36773e-08
1.28371e-07
6.98475e-07
7.58029e-06
0.000146676
0.000244607
5.75394e-05
6.24379e-08
6.0949e-08
6.63218e-08
7.20978e-08
0.00162499
0.741591
4.54594e-11
1.13336e-10
2.19483e-10
4.53332e-10
1.61598e-09
8.76271e-09
4.82456e-08
2.70501e-07
1.66386e-06
6.05709e-05
0.000115282
1.72485e-05
6.44341e-08
6.09632e-08
6.00745e-08
1.69935e-07
9.26947e-08
1.63474e-07
0.676109
7.50583e-11
1.57629e-10
2.71995e-10
6.51091e-10
2.62278e-09
1.47282e-08
8.32149e-08
4.59607e-07
2.02619e-05
5.77835e-05
2.23857e-05
6.76146e-08
6.30504e-08
5.88912e-08
5.87019e-08
1.60517e-07
1.29204e-07
3.52294e-07
0.615344
1.10394e-10
2.04198e-10
3.15881e-10
8.06224e-10
3.48822e-09
1.96958e-08
1.12331e-07
1.99263e-06
2.66114e-05
2.92899e-05
3.124e-07
7.47551e-08
6.76285e-08
1.16601e-07
5.78974e-08
6.59925e-08
6.16307e-07
1.34374e-06
0.674041
1.46849e-10
2.50035e-10
3.56018e-10
9.30717e-10
4.42922e-09
2.60875e-08
1.57624e-07
7.0297e-06
2.37472e-05
7.61918e-06
3.71349e-07
9.64945e-08
7.47561e-08
4.33056e-07
5.78974e-08
5.83831e-08
3.45523e-06
4.90834e-06
0.821493
1.79714e-10
2.85987e-10
3.78835e-10
9.60512e-10
4.78675e-09
2.95333e-08
2.44164e-07
1.02208e-05
1.96553e-05
5.16433e-06
1.39814e-06
1.12244e-08
1.16871e-07
4.31522e-07
5.87621e-08
6.05783e-08
2.42262e-06
1.41124e-05
0.869885
2.11975e-10
3.39607e-10
4.73325e-10
1.01106e-09
6.05442e-09
3.7548e-08
2.58965e-07
7.4296e-06
1.29946e-05
7.90701e-06
6.80424e-06
1.52198e-07
3.02914e-07
4.34074e-07
6.25046e-08
5.2585e-08
1.20875e-06
4.76497e-05
0.883297
2.47166e-10
3.94417e-10
5.60723e-10
8.60738e-10
6.04617e-09
3.77103e-08
1.89147e-07
2.15475e-06
1.12047e-05
2.61459e-05
0.000135
0.000141325
2.04782e-07
2.5329e-07
6.65291e-08
-1.49093e-07
4.89568e-07
0.000216259
0.907037
2.90947e-10
4.42187e-10
5.80058e-10
6.94496e-10
4.60044e-09
2.5252e-08
9.7012e-08
9.93516e-07
2.01682e-05
0.000195352
0.0012097
0.000522427
1.08235e-07
7.63122e-08
7.23605e-08
-7.03271e-08
0.00147604
0.0222794
0.943938
3.33439e-10
4.61183e-10
5.7849e-10
7.17757e-10
2.7061e-09
1.39801e-08
6.76959e-08
3.26425e-07
2.48436e-05
0.000926622
0.00134874
0.000587589
1.6334e-06
1.35818e-07
7.6303e-08
6.80376e-08
0.00956285
0.35281
0.972915
3.29836e-10
4.48667e-10
5.56469e-10
6.91581e-10
1.80322e-09
1.17584e-08
5.55058e-08
3.55623e-08
1.92436e-05
0.00134856
0.00134897
0.000287116
3.81751e-07
1.28229e-07
8.11023e-08
6.9885e-08
0.0176719
0.82723
0.987804
2.88322e-10
3.87537e-10
4.88389e-10
6.35789e-10
1.36468e-09
6.67624e-09
1.28758e-08
1.02882e-08
0.000287155
0.00134107
0.00134856
0.000159501
2.55469e-07
1.42698e-07
8.18192e-08
-1.22048e-06
0.0175354
0.929616
0.993092
1.93056e-10
2.59939e-10
3.38231e-10
4.77754e-10
1.3707e-09
5.181e-09
2.01966e-09
2.07719e-09
0.00105007
0.0013254
0.00133294
6.8505e-05
9.93649e-08
7.57852e-08
1.30278e-07
2.8448e-06
0.0101912
0.893179
0.99447
1.51439e-10
1.68104e-10
1.73462e-10
1.88407e-10
7.60404e-10
6.4686e-09
1.50502e-09
5.66319e-05
0.00131219
0.00131726
0.00033164
1.70297e-06
7.1671e-08
2.68529e-08
6.40405e-08
8.28715e-05
0.00810937
0.850143
0.994708
2.17969e-10
4.67827e-10
6.6132e-10
1.87989e-10
1.85486e-10
4.8088e-10
6.80438e-10
0.000894119
0.00128104
0.00130726
3.88176e-05
2.13751e-07
1.46793e-08
1.81267e-08
1.87775e-08
0.0002474
0.0193533
0.848844
0.994744
2.43212e-10
2.53568e-10
3.40724e-09
8.52647e-08
3.77944e-07
2.21898e-09
4.48459e-09
0.000606291
0.00110681
0.000180199
3.19891e-09
5.80162e-09
4.54405e-09
1.30795e-08
1.25092e-08
0.000592024
0.0500875
0.926825
0.994744
2.51024e-10
2.61808e-10
6.84078e-09
1.96133e-07
6.55416e-07
1.593e-08
2.72237e-06
6.58234e-05
2.55678e-10
2.94056e-10
2.26456e-09
6.15901e-09
7.9762e-09
7.99914e-09
1.38706e-05
0.0014856
0.095644
0.984934
0.994546
2.11056e-10
3.24243e-10
5.35062e-09
6.65054e-08
3.75965e-07
5.83063e-07
1.02005e-07
2.20942e-10
2.22426e-10
2.66614e-10
2.97273e-10
2.28642e-09
6.15905e-09
9.00955e-09
7.6924e-05
0.00405795
0.201302
0.996039
0.995305
1.10119e-10
1.81133e-10
8.59589e-10
2.8649e-09
1.39735e-10
4.86794e-08
1.46704e-10
1.90836e-10
2.20859e-10
2.20873e-10
1.81054e-10
6.73201e-09
9.00457e-09
1.53884e-08
9.28294e-05
0.011905
0.466749
0.996048
0.996039
1.01218e-10
1.18309e-10
1.3673e-10
1.3707e-10
1.38074e-10
1.39735e-10
1.41742e-10
2.22942e-10
2.23824e-10
2.18919e-10
5.5662e-10
3.30602e-08
1.80282e-08
3.51687e-08
3.40409e-05
0.0268432
0.720731
0.996058
0.996048
1.93211e-10
1.66944e-10
1.67072e-10
1.71451e-10
1.86995e-10
1.73516e-10
2.37346e-10
2.87842e-10
2.36383e-10
2.25073e-10
1.24579e-09
9.61202e-08
4.12268e-08
5.39125e-07
2.36529e-06
0.0336718
0.790255
0.996077
0.996058
3.11489e-10
1.85132e-10
2.20852e-10
2.89218e-10
3.05095e-10
3.18407e-10
3.34372e-10
3.02801e-10
2.42133e-10
2.1745e-10
9.82564e-07
1.4496e-06
1.81171e-07
2.94377e-07
3.17612e-06
0.0325526
0.777972
0.996094
0.995983
5.77962e-10
1.83756e-09
2.51555e-09
2.19801e-09
1.42847e-09
7.43896e-10
4.10872e-10
3.08231e-10
2.37713e-10
2.14996e-10
6.51162e-06
7.36302e-06
6.06313e-07
9.20579e-07
2.68561e-06
0.0259064
0.751957
0.996077
0.995475
9.46353e-10
1.38907e-09
2.7189e-09
2.87977e-09
2.58952e-09
1.38669e-09
4.36337e-10
3.46652e-10
3.00335e-10
7.38716e-07
7.58046e-06
7.58046e-06
1.42306e-06
1.76849e-06
2.94254e-06
0.0236036
0.764528
0.996052
0.995471
8.19346e-08
4.4768e-08
3.10638e-09
1.50699e-09
1.44186e-09
1.16364e-09
5.88726e-10
6.59648e-10
6.33743e-10
2.52705e-06
7.41767e-06
7.58046e-06
4.17008e-06
2.62187e-06
7.32462e-06
0.023575
0.85172
0.996034
0.995512
5.01165e-08
5.30755e-08
5.29894e-08
4.23302e-08
5.68097e-09
1.48675e-09
2.08297e-08
3.7719e-09
3.067e-09
1.53078e-06
5.27958e-06
5.53888e-06
5.99839e-06
5.31451e-06
1.13627e-05
0.0245878
0.904882
0.996009
0.995934
2.78694e-08
3.42073e-08
2.21115e-08
1.05862e-08
6.21519e-09
4.03007e-07
1.43688e-06
1.15077e-06
2.07849e-07
2.9803e-07
3.71612e-07
5.6828e-07
2.43799e-06
8.77718e-06
2.24504e-05
0.107684
0.93163
0.99567
0.995878
2.63012e-08
1.9097e-08
1.3729e-08
1.1578e-08
6.74438e-09
1.10597e-06
2.32224e-06
2.32224e-06
2.01955e-06
5.06785e-07
5.68289e-07
1.07145e-06
6.79225e-06
3.11044e-05
8.66116e-05
0.320462
0.964161
0.995827
0.995842
2.56332e-05
1.78864e-05
1.12208e-06
1.37272e-08
9.23904e-09
4.49495e-07
2.2612e-06
2.32224e-06
2.13679e-06
7.42779e-07
9.54106e-07
3.89228e-06
3.05677e-05
0.000146476
0.000522014
0.544098
0.990148
0.995852
0.99583
3.00241e-05
3.00241e-05
2.25084e-05
1.53588e-06
1.31588e-07
1.19688e-07
2.11758e-07
4.04295e-07
1.74219e-07
1.69073e-07
2.31533e-06
2.76462e-05
0.000141794
0.000664072
0.00339166
0.76909
0.995456
0.995853
0.996021
9.18361e-06
1.33341e-05
1.24833e-05
2.10746e-06
4.54415e-08
1.39429e-23
-2.34371e-07
-8.89984e-07
-2.25256e-07
-3.30362e-09
6.54043e-07
0.000189315
0.000806308
0.0033918
0.41838
0.964135
0.995632
0.995819
0.995841
8.46566e-07
4.65029e-07
1.83127e-07
4.54415e-08
-5.19227e-10
-2.33146e-08
-2.12965e-07
-4.4372e-07
-1.41546e-06
-3.43087e-07
0.000301078
0.00128612
0.0434593
0.331
0.929718
0.994985
0.995811
0.995818
0.995822
0.0572873
0.0528103
0.0544591
0.0585571
0.0652365
0.0744738
0.0871095
0.106149
0.138493
0.18705
0.239905
0.362758
0.719697
0.992471
0.994666
0.995671
0.995839
0.995836
0.99582
0.764575
0.748743
0.744803
0.747882
0.758165
0.774755
0.796264
0.822145
0.852757
0.885769
0.927135
0.98502
0.99168
0.992453
0.993674
0.994003
0.994439
0.995824
0.995824
0.851699
0.853534
0.855246
0.86729
0.878657
0.893326
0.907453
0.927651
0.94093
0.953679
0.976994
0.990085
0.991086
0.992195
0.993255
0.993406
0.986026
0.995806
0.995818
0.0794709
0.0660326
0.0562575
0.0607814
0.0647543
0.0638578
0.0663888
0.0804538
0.0932076
0.0942354
0.112672
0.132222
0.179811
0.214938
0.213569
0.226951
0.303734
0.384863
0.454137
)
;

boundaryField
{
    leftWall
    {
        type            zeroGradient;
    }
    rightWall
    {
        type            zeroGradient;
    }
    lowerWall
    {
        type            zeroGradient;
    }
    atmosphere
    {
        type            inletOutlet;
        inletValue      uniform 0;
        value           nonuniform List<scalar> 
46
(
5.32861e-06
3.41434e-06
0
0
0
0
0.02239
0.0159723
0
0
0.012176
0
0.0550564
0
0.0654763
0
0.0651813
0
0.0685973
0
0.0637256
0
0.0771571
0
0
0.0730235
0.0843669
0.0794709
0
0
0.0607814
0.0647543
0
0
0.0804538
0.0932076
0
0.112672
0
0.179811
0
0.213569
0
0.303734
0
0.454137
)
;
    }
    defaultFaces
    {
        type            empty;
    }
}


// ************************************************************************* //
