/*--------------------------------*- C++ -*----------------------------------*\
  =========                 |
  \\      /  F ield         | OpenFOAM: The Open Source CFD Toolbox
   \\    /   O peration     | Website:  https://openfoam.org
    \\  /    A nd           | Version:  9
     \\/     M anipulation  |
\*---------------------------------------------------------------------------*/
FoamFile
{
    format      ascii;
    class       volScalarField;
    location    "0.7";
    object      alpha.water;
}
// * * * * * * * * * * * * * * * * * * * * * * * * * * * * * * * * * * * * * //

dimensions      [0 0 0 0 0 0 0];

internalField   nonuniform List<scalar> 
2268
(
1
1
1
1
1
1
1
1
1
1
1
1
1
1
1
1
1
0.999997
0.997001
0.964519
0.959593
0.969119
0.99884
1
1
1
1
1
1
1
1
1
1
1
1
1
1
1
1
1
0.999999
0.999847
0.984683
0.959594
0.964038
0.998913
1
1
1
1
1
1
1
1
1
1
1
1
1
1
1
1
1
1
0.999999
0.999875
0.990021
0.968901
0.998948
1
1
1
1
1
1
1
1
1
1
1
1
1
1
1
1
1
1
1
1
0.999225
0.995341
0.999589
1
1
1
1
1
1
1
1
1
1
1
1
1
1
1
1
1
1
1
1
1
1
0.999865
1
1
1
1
0.999999
0.999999
1
1
1
1
1
1
1
1
1
1
1
1
1
1
1
0.999995
0.999644
1
1
1
1
1
0.999968
0.999968
0.999973
0.999982
0.99999
0.999996
0.999998
1
1
1
1
1
1
1
1
1
0.999985
0.99962
1
1
0.992084
0.992432
1
1
0.999998
0.999995
0.999994
0.999994
0.999992
0.999943
0.999951
0.999983
0.999996
1
1
1
1
1
1
0.999985
0.999626
0.96574
0.98568
0.988728
0.989385
0.996647
0.997264
0.997401
0.997465
0.997565
0.998159
0.998255
0.985457
0.973914
0.973784
0.974044
0.969463
0.959991
0.948977
0.918439
0.92946
0.703417
0.510331
0.749366
0.872446
0.945875
0.987534
0.996969
0.998073
0.998255
0.99827
0.99827
0.99827
0.998262
0.99825
0.998122
0.991338
0.990732
0.989634
0.819107
0.124527
0.0173815
0.0126834
0.0491652
0.233588
0.567125
0.822866
0.94788
0.992959
0.998243
0.99827
0.998269
0.998249
0.998121
0.996892
0.936161
0.915508
0.94289
0.798362
0.0320212
0.0065184
0.00470358
0.00460141
0.00205827
0.00117682
0.0122696
0.234404
0.661028
0.922632
0.996756
0.998049
0.998125
0.997689
0.997332
0.963496
0.867005
0.867007
0.525267
0.139817
0.0477901
0.00513418
0.00206738
0.00119967
0.000946327
0.000522245
0.00055491
0.00263865
0.224683
0.720595
0.985964
0.997545
0.997322
0.997018
0.996174
0.950347
0.867003
0.289136
0.294866
0.389882
0.20572
0.0110756
0.00142483
0.000503791
0.000379317
0.000132849
0.000503844
0.0026111
0.0491258
0.58204
0.996064
0.997032
0.996226
0.994162
0.97311
0.867008
0.456896
0.837725
0.861996
0.794823
0.197023
0.00374621
0.000445648
0.000172805
5.53104e-05
0.000127227
0.000544315
0.00290497
0.125248
0.801466
0.995749
0.993171
0.990787
0.958653
0.867074
0.978336
0.964285
0.836586
0.721222
0.244647
0.00473493
0.000414356
4.91807e-05
1.80967e-05
5.24913e-05
0.000235358
0.00141424
0.0445019
0.64013
0.990808
0.917579
0.925525
0.957966
0.867547
0.42561
0.441888
0.473264
0.523338
0.591494
0.67754
0.762713
0.847102
0.921419
0.976668
0.999994
0.999994
0.999994
0.999993
0.99999
0.999954
0.999989
1
1
1
0.999999
0.999996
0.999915
0
2.54038e-05
0.00024594
0.00266576
0.00845781
0.0254437
0.0663075
0.1301
0.220546
0.342664
0.504821
0.688788
0.84791
0.958205
0.999991
0.999983
0.999991
0.999997
0.999998
0.999998
0.999996
0.999988
0.999876
-8.31031e-10
0
1.65235e-06
3.86651e-06
7.37528e-06
1.94971e-05
5.10622e-05
9.66197e-05
0.000138543
0.000257394
0.00612833
0.0382037
0.105065
0.215766
0.39356
0.660678
0.890864
0.960284
0.969872
0.997253
0.999814
0.99974
0.99963
5.21398e-11
1.14666e-09
2.24348e-08
8.0871e-08
1.77952e-07
3.27019e-07
5.28877e-07
8.13006e-07
1.30163e-06
3.42605e-06
1.81791e-05
6.14901e-05
8.24087e-05
6.37274e-05
0.000739659
0.0112141
0.0420788
0.132885
0.303502
0.521751
0.643376
0.708886
0.830438
-4.03083e-10
0
4.57939e-11
1.2628e-09
3.54165e-09
7.13206e-09
1.1907e-08
1.87429e-08
3.03202e-08
5.48596e-08
1.26521e-07
2.24989e-07
3.35869e-07
3.32715e-07
2.56658e-08
1.39003e-10
1.38868e-10
1.3678e-10
2.01443e-11
6.118e-11
2.99756e-09
0.0219897
0.132395
-1.88342e-10
-2.77768e-10
-8.14049e-14
-2.85672e-12
-7.02531e-12
-3.88515e-12
4.8567e-11
2.2297e-10
5.61297e-10
1.26257e-09
3.07464e-09
5.17011e-09
5.63576e-09
1.23313e-08
8.63861e-09
3.95474e-09
9.82027e-09
1.68804e-09
2.0641e-11
2.02015e-11
6.11797e-11
2.95187e-09
1.55005e-07
-7.23973e-11
-9.77366e-11
-2.15793e-10
-2.82988e-10
-2.45881e-10
-8.96411e-11
-8.6204e-14
-1.47556e-12
-3.32578e-12
-8.06825e-12
-8.61607e-16
-1.54073e-15
7.17227e-11
7.49647e-11
1.03488e-10
2.50322e-10
3.17848e-10
2.48147e-10
1.77355e-10
4.32355e-11
4.09355e-11
1.88428e-09
9.8398e-08
-2.34019e-11
-2.78782e-11
-6.10285e-11
-1.04944e-10
-1.56617e-10
-2.13494e-10
-2.8662e-10
-3.82168e-10
-4.90157e-10
-5.5423e-10
-4.26693e-10
-2.06147e-11
0
5.06596e-13
-1.32514e-10
-2.03075e-10
-1.8713e-10
-1.71436e-10
-1.21386e-10
-4.97631e-11
-6.31373e-13
1.5739e-10
1.30601e-08
-6.47281e-12
-6.72777e-12
-1.38871e-11
-2.51211e-11
-3.99791e-11
-5.86138e-11
-8.22762e-11
-1.13647e-10
-1.5574e-10
-2.06998e-10
-2.49136e-10
-2.35884e-10
-1.83968e-10
-1.60394e-10
-1.4671e-10
-1.16442e-10
-7.23418e-11
-2.38305e-11
5.01851e-11
1.78907e-10
2.08404e-10
2.03474e-10
6.2613e-10
-1.61273e-12
-1.47271e-12
-2.83331e-12
-5.36253e-12
-8.66729e-12
-1.26334e-11
-1.74613e-11
-2.35674e-11
-3.1541e-11
-4.17144e-11
-5.27488e-11
-5.82414e-11
-5.24161e-11
-4.36624e-11
-3.22598e-11
-1.48529e-11
1.20145e-11
5.86396e-11
1.17751e-10
1.63507e-10
1.86459e-10
1.82834e-10
8.54598e-11
-4.03958e-13
-3.35034e-13
-6.06156e-13
-1.17771e-12
-1.89184e-12
-2.6159e-12
-3.3558e-12
-4.14026e-12
-4.99862e-12
-5.85117e-12
-6.60139e-12
-6.9802e-12
-6.05359e-12
-3.03439e-12
2.31159e-12
8.61073e-12
1.47859e-11
2.27551e-11
3.21352e-11
3.95329e-11
4.92309e-11
5.86824e-11
5.02679e-11
-1.11259e-13
-8.86492e-14
-1.53964e-13
-2.95683e-13
-4.47164e-13
-5.65133e-13
-6.39219e-13
-6.62288e-13
-6.31477e-13
-4.62323e-13
-2.83497e-13
9.11356e-14
2.5932e-13
5.56405e-13
1.32262e-12
2.23582e-12
2.35919e-12
1.79347e-12
1.80413e-12
2.07587e-12
2.912e-12
4.74824e-12
8.449e-12
-3.19701e-14
-2.53797e-14
-4.28519e-14
-7.72631e-14
-1.07183e-13
-1.20046e-13
-1.1602e-13
-9.37418e-14
-5.88491e-14
1.86424e-14
2.22489e-14
1.01069e-13
1.18192e-13
1.1127e-13
8.65465e-14
8.38091e-14
7.26792e-14
6.36314e-14
6.79396e-14
8.67604e-14
1.31872e-13
2.41906e-13
5.63831e-13
-8.53546e-15
-6.73419e-15
-1.10031e-14
-1.82645e-14
-2.2964e-14
-2.24934e-14
-1.78464e-14
-1.06762e-14
-3.90878e-15
5.82057e-15
3.45917e-15
3.90617e-15
3.79591e-15
3.56153e-15
3.29153e-15
3.28796e-15
3.50805e-15
4.14662e-15
5.59658e-15
8.73574e-15
1.54391e-14
2.99145e-14
6.76767e-14
-1.96991e-15
-1.5175e-15
-2.37813e-15
-3.62633e-15
-4.10398e-15
-3.46578e-15
-2.19253e-15
-9.51564e-16
-2.42057e-16
1.16891e-17
7.24452e-17
1.14294e-16
1.57762e-16
1.82956e-16
1.81429e-16
1.92184e-16
2.30113e-16
3.1851e-16
5.08566e-16
9.38584e-16
2.12132e-15
5.62464e-15
1.94676e-14
-3.75677e-16
-2.77877e-16
-4.14404e-16
-5.80195e-16
-5.88284e-16
-4.22524e-16
-2.10914e-16
-7.09682e-17
-7.62176e-18
2.88247e-18
6.18315e-18
8.01889e-18
9.49871e-18
9.17572e-18
8.03281e-18
9.06439e-18
1.25734e-17
2.08433e-17
4.63605e-17
1.67524e-16
9.27817e-16
4.59718e-15
2.40959e-14
-5.52152e-17
-3.86729e-17
-5.45581e-17
-7.00534e-17
-6.35303e-17
-3.84835e-17
-1.52093e-17
-3.28591e-18
5.15101e-19
2.2379e-19
3.35903e-19
4.21454e-19
4.43208e-19
3.53975e-19
3.15511e-19
3.95663e-19
7.08156e-19
2.51202e-18
1.73868e-17
1.46541e-16
1.12926e-15
7.12015e-15
5.69468e-14
-5.52849e-18
-3.62796e-18
-4.81869e-18
-5.66997e-18
-4.60597e-18
-2.34005e-18
-7.80815e-19
-1.43937e-19
9.86427e-21
1.1685e-20
1.65896e-20
1.92875e-20
1.75666e-20
1.22068e-20
1.18447e-20
2.26993e-20
1.44423e-19
1.57698e-18
1.71036e-17
1.65775e-16
1.65718e-15
1.58592e-14
1.58834e-13
-2.8106e-19
-1.71652e-19
-2.14177e-19
-2.3185e-19
-1.69068e-19
-6.93022e-20
-1.57556e-20
1.11791e-22
3.19819e-22
5.17087e-22
6.64314e-22
7.1625e-22
5.60897e-22
3.92607e-22
6.49075e-22
6.2405e-21
9.61553e-20
1.29907e-18
1.51995e-17
1.59656e-16
2.2421e-15
3.13282e-14
3.46386e-13
-1.52511e-22
-4.43127e-24
-9.71466e-24
-9.38975e-24
8.16493e-25
3.16336e-23
8.54846e-23
5.70878e-23
1.21012e-23
1.93158e-23
2.15579e-23
1.90023e-23
1.37302e-23
1.45286e-23
1.66824e-22
3.40104e-21
5.68343e-20
8.1065e-19
1.01677e-17
1.20983e-16
2.64116e-15
4.95386e-14
5.76501e-13
-3.68047e-25
-5.81315e-25
-1.34226e-24
-1.41796e-24
-2.72316e-25
1.59219e-25
9.77532e-25
3.30736e-25
6.34888e-25
6.99737e-25
5.57991e-25
3.45143e-25
2.74092e-25
2.74266e-24
7.12548e-23
1.45054e-21
2.54222e-20
3.86044e-19
5.00326e-18
6.993e-17
2.31947e-15
6.56193e-14
7.88208e-13
-1.30154e-26
-3.83385e-26
-9.27809e-26
-1.02529e-25
-2.1295e-26
4.62325e-28
5.60339e-27
1.90911e-26
2.62872e-26
2.54543e-26
1.47728e-26
8.24221e-27
2.79783e-26
9.60093e-25
2.3903e-23
5.14304e-22
9.69885e-21
1.47609e-19
1.92083e-18
3.32254e-17
1.8818e-15
6.96413e-14
8.15782e-13
-4.89811e-29
-1.1859e-33
2.10689e-34
5.45162e-31
1.88133e-29
5.3736e-29
1.12756e-28
4.34589e-28
6.36217e-28
6.23895e-28
3.80065e-28
3.12549e-28
8.96318e-27
2.68797e-25
6.99483e-24
1.63881e-22
3.13778e-21
4.64477e-20
6.19596e-19
1.5122e-17
1.47716e-15
6.33641e-14
7.30692e-13
-1.6849e-31
-2.77216e-41
-1.14816e-40
-1.47959e-50
4.70006e-38
1.44034e-34
8.23907e-33
5.96774e-32
1.46865e-31
2.59727e-31
1.3077e-30
5.58079e-29
2.13747e-27
6.63176e-26
1.87888e-24
4.52779e-23
8.56529e-22
1.26547e-20
1.89867e-19
7.9293e-18
1.14307e-15
5.15711e-14
5.72871e-13
-5.95105e-34
-2.8971e-43
-4.48921e-60
4.99438e-45
7.88682e-40
2.62734e-36
1.56522e-34
1.1865e-33
3.37083e-33
9.71619e-33
3.13615e-31
1.34007e-29
4.58639e-28
1.49913e-26
4.37852e-25
1.05927e-23
2.01528e-22
3.3497e-21
7.07238e-20
5.1766e-18
8.25585e-16
3.78688e-14
4.32643e-13
-2.19862e-36
3.00052e-49
3.96772e-51
4.77611e-48
3.63686e-43
8.06589e-39
1.02987e-36
1.27497e-35
6.3803e-35
1.04119e-33
5.67828e-32
2.28296e-30
8.57503e-29
2.89671e-27
8.61023e-26
2.13215e-24
4.63271e-23
1.09151e-21
3.89794e-20
3.67356e-18
5.42142e-16
2.56285e-14
3.30433e-13
-8.47994e-39
-1.04523e-69
-1.22277e-53
1.30279e-50
2.26057e-47
1.51114e-42
1.1415e-39
7.22775e-38
2.48797e-36
1.76804e-34
8.7298e-33
3.68877e-31
1.36965e-29
4.64352e-28
1.44671e-26
4.23266e-25
1.32918e-23
5.15752e-22
2.6612e-20
2.58305e-18
3.47205e-16
1.71175e-14
2.4953e-13
-3.40103e-41
-6.49124e-51
-1.05772e-58
2.88554e-51
5.79404e-46
8.30362e-43
5.03042e-41
4.56637e-39
4.04723e-37
2.29746e-35
1.1095e-33
4.77203e-32
1.74915e-30
6.15795e-29
2.31878e-27
1.01172e-25
5.16625e-24
2.82929e-22
1.71884e-20
1.7605e-18
2.27217e-16
1.10467e-14
1.65668e-13
-1.41012e-43
-2.11526e-50
-1.37801e-49
0
4.42483e-49
2.63905e-44
7.02159e-42
6.09958e-40
3.87273e-38
2.23193e-36
1.14403e-34
4.62353e-33
1.64273e-31
6.67167e-30
3.90795e-28
2.85476e-26
2.03699e-24
1.3196e-22
9.28352e-21
1.13317e-18
1.4524e-16
6.27547e-15
8.47307e-14
-6.0135e-46
-2.85687e-50
-3.62895e-49
-6.8491e-52
2.83441e-50
2.33691e-45
4.15266e-43
3.66741e-41
2.73181e-39
1.66266e-37
7.42966e-36
2.58732e-34
9.1125e-33
5.92056e-31
6.66936e-29
7.17104e-27
6.28463e-25
4.75152e-23
4.10804e-21
6.52215e-19
8.07272e-17
2.86697e-15
3.17633e-14
-2.62647e-48
-2.12587e-50
-3.97428e-49
-2.16628e-48
1.14165e-52
7.37534e-47
2.45099e-44
2.30253e-42
1.05883e-40
2.34298e-39
1.22453e-37
1.39261e-35
1.50454e-33
1.44204e-31
1.37089e-29
1.48419e-27
1.4798e-25
1.31604e-23
1.47359e-21
3.05047e-19
3.54472e-17
1.05167e-15
9.65529e-15
-1.17977e-50
-7.82942e-51
-1.57464e-49
-9.71642e-49
1.01076e-54
6.22118e-49
2.09237e-46
7.3753e-45
1.05323e-42
1.69542e-40
2.48164e-38
3.06697e-36
3.37746e-34
3.33883e-32
2.98717e-30
2.59589e-28
2.47328e-26
2.61018e-24
4.04942e-22
1.09266e-19
1.19451e-17
3.04065e-16
2.39921e-15
-7.67987e-53
-1.88088e-51
-3.9095e-50
-2.53323e-49
3.3671e-56
1.06823e-50
2.79561e-48
6.22975e-46
1.18012e-43
1.96043e-41
2.8852e-39
3.77659e-37
4.40399e-35
4.60738e-33
4.38045e-31
3.83767e-29
3.24337e-27
3.31863e-25
7.26337e-23
2.47393e-20
2.61608e-18
6.26067e-17
4.83084e-16
-3.49372e-54
-2.42511e-52
-5.06996e-51
-3.42173e-50
1.49565e-57
5.02339e-52
1.41896e-49
3.29702e-47
6.71998e-45
1.20917e-42
1.92758e-40
2.72542e-38
3.42026e-36
3.82541e-34
3.85913e-32
3.5635e-30
3.10172e-28
3.14617e-26
6.89392e-24
2.32971e-21
2.81449e-19
9.54786e-18
1.20852e-16
-1.04641e-55
-4.24546e-54
-7.17804e-53
-5.0464e-52
0
1.25483e-53
3.82307e-51
9.73275e-49
2.18067e-46
4.32904e-44
7.63016e-42
1.1939e-39
1.65785e-37
2.0491e-35
2.28032e-33
2.3296e-31
2.24989e-29
2.35672e-27
3.98393e-25
1.09431e-22
1.85316e-20
1.41489e-18
4.78457e-17
-2.23601e-57
-4.90097e-56
-5.27301e-55
-3.10399e-54
-1.21229e-55
1.36343e-55
6.19656e-53
1.74797e-50
4.38293e-48
9.78787e-46
1.94389e-43
3.42525e-41
5.34661e-39
7.40995e-37
9.2305e-35
1.06442e-32
1.18559e-30
1.37011e-28
2.00026e-26
4.5289e-24
1.14786e-21
2.00495e-19
1.45162e-17
-1.64018e-58
-4.92622e-57
-7.07427e-56
-4.70976e-55
-5.10346e-55
7.36553e-61
4.64115e-55
1.48811e-52
4.27212e-50
1.09867e-47
2.51134e-45
5.06942e-43
8.99964e-41
1.40624e-38
1.96033e-36
2.54622e-34
3.34496e-32
4.81767e-30
8.09199e-28
1.8056e-25
6.0055e-23
1.80471e-20
1.94065e-18
-6.76511e-60
-1.08183e-58
-1.29248e-57
-1.34033e-56
-7.48435e-56
9.25985e-65
1.30899e-58
5.58254e-56
1.92176e-53
5.53309e-51
1.36527e-48
1.31801e-46
5.09438e-46
2.15246e-43
9.58538e-41
3.84374e-38
1.389e-35
1.98936e-32
1.34836e-29
4.93145e-27
2.47801e-24
1.2592e-21
1.91424e-19
-1.69602e-61
-8.50487e-61
-1.6257e-60
-4.76186e-64
-3.99581e-67
-5.76625e-87
5.75534e-68
7.57736e-65
9.40288e-62
1.12564e-58
1.25498e-55
1.27347e-52
1.15819e-49
9.34373e-47
6.64225e-44
4.14468e-41
2.26655e-38
1.08353e-35
4.70556e-33
3.30399e-29
2.42986e-26
1.14146e-23
2.35898e-21
-3.54195e-63
-5.07069e-63
-1.65041e-63
-6.85039e-65
-7.23207e-72
-8.96736e-92
1.9839e-75
1.51874e-70
3.24092e-67
6.7902e-64
1.33343e-60
2.38164e-57
3.79443e-54
5.32476e-51
6.53048e-48
6.96941e-45
6.44941e-42
5.19987e-39
1.68973e-35
6.45195e-31
2.13003e-28
2.82904e-26
5.38574e-24
-7.18614e-65
-2.69062e-65
-1.27587e-66
-1.6325e-71
-9.68408e-73
-3.12649e-82
-3.19956e-82
-5.18899e-82
6.4444e-79
7.97745e-75
4.84238e-71
2.51605e-67
1.14134e-63
4.52677e-60
1.56784e-56
4.7357e-53
1.24622e-49
2.85375e-46
1.76887e-39
8.48425e-34
6.43942e-31
4.66089e-29
3.41348e-27
-1.54869e-66
-1.32987e-67
-5.40709e-70
-1.10012e-93
0
-3.17087e-95
-1.18825e-94
-1.03759e-93
-1.46648e-93
-2.43707e-90
-2.40234e-86
-2.67358e-82
-2.9812e-78
-2.94059e-74
-2.40893e-70
-1.59083e-66
-8.57531e-63
-3.79128e-59
-1.39381e-55
-4.29392e-52
4.11083e-40
8.84277e-34
1.26057e-30
0.999727
0.999738
0.999817
0.999828
0.999731
0.999745
0.999814
0.999828
0.999588
0.999642
0.999738
0.99979
0.924319
0.956942
0.988984
0.998769
0.241394
0.327785
0.540209
0.82829
7.23901e-06
0.000231968
0.00223394
0.206495
2.89692e-06
5.33158e-05
0.000400978
0.0018292
4.05148e-07
3.96458e-06
2.86749e-05
0.000157882
2.19034e-08
2.41415e-07
1.97926e-06
1.70704e-05
9.18738e-10
1.21265e-08
1.14409e-07
1.12655e-06
5.40643e-11
5.46219e-10
6.55049e-09
7.05134e-08
7.04757e-12
3.03282e-11
3.21914e-10
3.9358e-09
9.62283e-13
2.2677e-12
2.07371e-11
2.43578e-10
1.24907e-13
2.07224e-13
1.44996e-12
1.68969e-11
4.05874e-14
6.5948e-14
1.77447e-13
1.38803e-12
5.38618e-14
8.97612e-14
1.50185e-13
2.59266e-13
1.33663e-13
2.21903e-13
3.61171e-13
5.43185e-13
3.80489e-13
6.42269e-13
1.03043e-12
1.42795e-12
8.43872e-13
1.45929e-12
2.34374e-12
3.4067e-12
1.42546e-12
2.50999e-12
4.09417e-12
6.3876e-12
1.9847e-12
3.55532e-12
5.82728e-12
9.08769e-12
2.11704e-12
3.89287e-12
6.72377e-12
1.11873e-11
1.96746e-12
3.7026e-12
6.89626e-12
1.41593e-11
1.6164e-12
3.31412e-12
7.38818e-12
2.37793e-11
1.33067e-12
3.28123e-12
8.68598e-12
3.60266e-11
1.17691e-12
3.23361e-12
8.57519e-12
2.82377e-11
9.97915e-13
2.76835e-12
6.65981e-12
1.59849e-11
6.94118e-13
1.73257e-12
3.41124e-12
5.72019e-12
3.42359e-13
7.47256e-13
1.21706e-12
1.38489e-12
1.16131e-13
2.42668e-13
3.91893e-13
4.01351e-13
3.12165e-14
6.2138e-14
1.02828e-13
1.13596e-13
7.0025e-15
1.2512e-14
1.80506e-14
1.96786e-14
1.44155e-15
3.41319e-15
9.96032e-15
3.09658e-14
5.28584e-16
1.98773e-15
8.40456e-15
5.75177e-14
3.6897e-16
1.54764e-15
4.78162e-15
3.46347e-14
1.72053e-16
8.96738e-16
2.04289e-15
5.01064e-15
2.89344e-17
2.13707e-16
5.47648e-16
6.76818e-16
3.26574e-18
3.61397e-17
1.28744e-16
2.19236e-16
4.73455e-20
1.07357e-18
7.73799e-18
3.65106e-17
9.32858e-23
4.64632e-21
8.66569e-20
1.7055e-18
4.50086e-26
5.90312e-24
3.39421e-22
1.52149e-20
1.66584e-29
4.08595e-27
7.40537e-25
3.89765e-23
0.999828
0.676411
0.095175
0.133005
0.127263
0.0189677
0.00143919
8.95496e-05
6.50684e-06
1.87499e-05
0.000140122
0.00107789
0.0340862
0.575918
0.933063
0.676435
0.696006
0.946121
0.90362
0.9998
0.311409
0.000838546
0.0211783
0.0293659
0.0118053
0.00135504
2.51957e-05
2.38412e-06
6.74551e-06
5.16324e-05
0.000459693
0.0645215
0.647748
0.65954
0.631544
0.631544
0.838153
0.915106
0.99551
0.503555
0.000690402
0.00139388
0.00544325
0.000650371
1.35993e-05
2.39892e-06
1.17404e-06
2.27935e-06
1.37006e-05
0.000149212
0.202839
0.687011
0.625782
0.669374
0.676739
0.820471
0.91512
0.988226
0.630834
0.000472885
0.000341749
0.000567584
0.000722408
4.01915e-06
1.19916e-06
9.92849e-07
1.19802e-06
2.30167e-06
1.5274e-05
0.593317
0.686995
0.624821
0.774565
0.839032
0.914776
0.915092
0.978865
0.845983
0.131799
0.000194155
0.000181821
0.000684335
0.000317212
1.89891e-05
9.92094e-07
9.92827e-07
1.62172e-06
0.0697266
0.686728
0.687014
0.652409
0.398002
0.438339
0.900113
0.914776
0.686835
0.874247
0.636066
0.000142309
9.14281e-05
0.000124668
0.000407418
0.000250266
1.4597e-05
1.02612e-06
-1.50742e-06
0.583392
0.654878
0.686728
0.666096
0.0641819
0.058135
0.487774
0.893753
0.100057
0.705623
0.775064
0.449624
9.08551e-05
6.22711e-05
0.000107286
0.000118212
2.79999e-05
1.06395e-06
0.0409181
0.763867
0.691584
0.647537
0.461311
0.0580977
0.0580949
0.0794383
0.813947
0.00118082
0.211889
0.728232
0.719225
0.449415
2.78339e-05
1.62385e-05
5.44082e-06
8.12263e-06
1.07903e-06
0.626709
0.763867
0.760668
0.675092
0.223709
0.0580976
0.058135
0.0588007
0.295327
0.000152758
0.00369458
0.270397
0.696214
0.687308
0.541258
0.0648582
4.10019e-06
4.25599e-06
0.14971
0.805792
0.751302
0.729311
0.630998
0.173423
0.0981452
0.0798963
0.0594194
0.0606102
1.28617e-05
0.000155461
0.00489983
0.258201
0.655359
0.658094
0.591575
0.237816
0.177929
0.761743
0.806545
0.419592
0.482214
0.326405
0.28616
0.284316
0.284316
0.11656
0.060047
9.06296e-07
1.2855e-05
0.000209636
0.00333516
0.169193
0.530059
0.689073
0.740145
0.771202
0.773489
0.576318
0.288787
0.0789745
0.1262
0.284316
0.2849
0.282493
0.280639
0.120014
6.71955e-08
9.08653e-07
1.79969e-05
0.00021502
0.00177266
0.0620797
0.246875
0.407292
0.432389
0.346681
0.0989547
0.077239
0.0131189
0.0802776
0.241243
0.280714
0.280161
0.27966
0.275392
3.94139e-09
6.12308e-08
1.51555e-06
2.18373e-05
0.000148049
0.000687636
0.001962
0.0119281
0.0136278
0.00630698
0.00622465
0.00983303
0.011376
0.0250561
0.0241353
0.0425044
0.111218
0.247437
0.27802
2.42246e-10
4.10694e-09
1.1829e-07
2.01997e-06
1.53939e-05
7.07076e-05
0.000259753
0.000670333
0.00114526
0.00137554
0.00249467
0.00746255
0.0487458
0.0555875
0.0480631
0.0325724
0.0274013
0.0291577
0.189146
1.59908e-11
3.15484e-10
9.76088e-09
1.91778e-07
1.80939e-06
1.03064e-05
9.3684e-05
0.000247283
0.000235852
0.000543028
0.0012203
0.00903008
0.0493778
0.0562751
0.0543686
0.0304856
0.0274013
0.0455097
0.0502135
1.50329e-12
2.68871e-11
8.47741e-10
1.87808e-08
2.38064e-07
1.96331e-06
4.48171e-05
5.82365e-05
8.92522e-05
0.000334491
0.0025498
0.00324181
3.07746e-06
0.00771711
0.0259234
0.00361221
0.0307244
0.138023
0.0528289
1.17576e-12
4.09115e-12
7.89224e-11
1.57002e-09
2.5518e-08
2.98167e-06
2.31065e-05
1.0491e-05
3.33824e-05
0.000482304
0.00104895
0.000249798
2.26547e-06
1.14097e-06
2.23783e-06
3.72268e-05
0.019368
0.138704
0.0873731
3.15995e-12
7.03717e-12
1.27556e-11
1.75355e-10
6.56212e-08
5.35976e-06
4.87788e-06
3.15038e-06
5.19048e-05
0.000283353
8.23855e-05
2.82673e-05
4.10131e-06
8.51252e-07
1.1406e-06
3.0388e-06
0.0038266
0.13681
0.175625
8.47574e-12
1.379e-11
1.84083e-11
3.79669e-11
1.21341e-07
3.95647e-06
4.94456e-07
1.75703e-06
2.69878e-05
1.34087e-05
8.13006e-06
1.88894e-05
8.48236e-06
8.35701e-07
8.49523e-07
1.007e-06
0.00033133
0.130924
0.175646
1.70561e-11
2.20565e-11
2.75378e-11
3.02375e-11
1.18172e-07
3.61893e-07
1.22024e-07
3.83035e-07
8.88016e-07
2.88787e-06
1.78728e-06
7.36066e-06
8.27002e-07
7.40102e-07
2.4981e-06
1.31808e-06
0.00431739
0.166727
0.175691
2.74858e-11
2.9722e-11
3.52417e-11
3.41432e-11
4.44244e-08
2.69633e-08
2.80635e-08
5.01055e-08
2.08526e-07
5.77301e-07
4.51473e-07
2.11017e-06
3.78036e-07
6.04852e-07
1.51799e-05
1.31809e-06
0.0309161
0.175788
0.175668
4.39623e-11
3.68689e-11
4.32277e-11
7.52192e-11
2.56756e-10
4.69001e-09
6.42233e-09
1.1251e-08
4.72447e-08
1.11909e-07
1.16873e-07
1.16615e-07
1.01972e-08
5.84593e-06
1.51798e-05
1.53735e-06
0.0521047
0.176583
0.175669
8.29069e-11
4.8702e-11
5.86388e-11
7.33317e-11
7.61609e-11
8.25716e-10
2.04793e-09
3.15574e-09
1.06971e-08
2.04896e-08
2.23081e-08
2.78392e-09
7.24169e-09
1.11868e-05
1.52289e-05
1.98885e-06
0.0299342
0.17725
0.176698
1.31684e-10
6.28399e-11
1.1545e-10
7.61621e-11
7.82273e-11
2.65125e-10
1.10381e-09
1.66885e-09
2.6843e-09
3.89983e-09
2.53945e-09
1.62577e-09
2.66468e-09
1.0655e-05
1.51799e-05
3.08458e-06
0.00240792
0.087625
0.177719
1.37333e-10
7.33569e-11
7.6698e-11
1.23459e-09
1.951e-09
1.28927e-09
1.5047e-09
1.53516e-09
1.56502e-09
1.72355e-09
1.5644e-09
1.48278e-09
3.97485e-06
1.18528e-05
4.19517e-06
2.75871e-06
2.75871e-06
0.00641342
0.176144
1.29477e-10
9.86871e-11
7.54542e-11
8.01383e-09
1.55463e-08
3.50887e-09
1.53699e-09
1.50551e-09
1.46403e-09
1.47869e-09
1.46651e-09
1.46584e-09
7.20064e-07
1.18046e-05
3.35489e-06
2.79361e-06
2.75871e-06
0.000413789
0.171867
8.57026e-11
1.07429e-10
7.5449e-11
7.86832e-09
1.70958e-08
1.69523e-08
3.13845e-09
1.46421e-09
1.45433e-09
1.4609e-09
1.46559e-09
1.46747e-09
1.02857e-06
4.40297e-07
6.64539e-06
6.06402e-06
2.7934e-06
2.97242e-06
0.111327
3.35741e-11
9.52797e-11
2.50142e-10
2.30189e-09
1.53527e-08
2.03721e-08
7.40806e-09
1.45429e-09
1.45429e-09
2.21306e-09
1.43995e-08
1.68423e-08
1.45846e-08
1.47291e-08
2.08739e-05
1.54156e-05
2.99511e-06
3.46338e-06
0.0242124
1.24427e-11
4.95099e-11
9.48251e-10
1.46854e-09
1.28674e-08
2.03721e-08
1.97098e-08
1.86154e-09
1.45434e-09
1.5623e-08
2.3883e-08
1.64428e-08
1.43995e-08
8.1879e-06
2.16202e-05
1.09175e-05
3.43046e-06
2.26677e-05
0.00925945
6.63688e-12
1.19934e-12
1.1632e-09
6.24666e-09
1.52117e-08
1.58208e-08
2.22809e-08
2.26351e-08
1.81628e-08
2.04772e-08
1.94184e-08
1.43953e-08
1.45103e-08
1.74748e-05
2.13726e-05
6.7168e-06
4.10158e-06
4.44456e-05
4.59238e-05
3.00072e-12
1.09341e-12
8.6006e-10
1.32769e-08
1.57048e-08
1.5535e-08
1.75256e-08
2.62423e-08
2.62423e-08
1.88568e-08
1.43332e-08
1.4515e-08
7.20061e-06
2.35883e-05
2.09135e-05
1.01937e-05
7.75018e-06
1.61518e-05
0.010489
1.10454e-12
1.09352e-12
4.91079e-10
9.06048e-09
8.36516e-09
4.27907e-08
1.6216e-08
1.49506e-08
1.47567e-08
1.42291e-08
1.44266e-08
3.32262e-06
2.05857e-05
2.34334e-05
2.00125e-05
0.000157638
0.000125617
2.45804e-05
0.0396708
5.12603e-13
2.11876e-12
1.35968e-10
1.9115e-09
2.67422e-09
1.40801e-07
1.45732e-08
1.43005e-08
1.43021e-08
1.43026e-08
3.0039e-06
1.39519e-05
9.64992e-06
9.83923e-06
0.00011925
0.00052711
0.000191213
6.33401e-05
0.0397487
5.7722e-13
1.96877e-12
1.55121e-11
2.16047e-10
6.57238e-11
7.66037e-09
5.83603e-07
2.03153e-06
2.51678e-06
3.12621e-06
9.36775e-06
9.74237e-06
9.2815e-06
9.6303e-06
0.000521692
0.00053153
0.000123365
6.05041e-05
0.0397282
6.67828e-13
2.12507e-12
7.0796e-12
9.69749e-11
5.69995e-11
6.57271e-11
5.45353e-06
8.86398e-06
9.08819e-06
8.86398e-06
6.39605e-06
6.47567e-06
6.70176e-06
0.000481579
0.000549705
0.000532628
2.31255e-05
3.08998e-05
0.0369739
6.12206e-13
2.48473e-12
7.95755e-12
5.51841e-11
5.60871e-11
5.69995e-11
2.07755e-06
8.66843e-06
9.08819e-06
6.30958e-06
7.04319e-08
2.133e-05
0.000510455
0.000550747
0.000550747
0.000125874
4.98353e-06
0.00053023
0.0024088
3.19292e-13
2.19955e-12
9.49454e-12
4.89015e-11
1.00562e-10
1.01808e-10
1.06879e-10
1.12191e-06
3.50196e-06
6.57329e-07
2.30227e-08
0.000274462
0.000546358
0.000550747
0.000381844
5.98209e-06
4.50566e-06
0.000528996
8.93703e-06
9.68232e-14
2.10807e-12
1.77617e-11
8.05876e-11
3.2992e-10
2.77445e-10
3.2506e-10
6.68716e-09
7.16269e-09
6.9216e-09
1.71325e-08
9.9914e-05
0.000155691
7.28166e-05
7.60259e-10
4.56436e-10
3.86693e-10
0.000113386
6.09886e-06
1.45453e-14
1.32236e-12
1.81283e-11
1.11955e-10
4.44648e-10
1.18402e-09
2.52734e-09
2.96657e-09
1.53849e-09
3.20777e-09
3.81433e-07
1.14196e-08
2.24398e-09
7.58718e-10
4.24508e-10
4.26198e-10
3.51193e-10
2.24475e-11
4.1489e-11
5.34202e-16
2.1678e-13
8.36247e-12
8.17944e-11
3.66818e-10
1.32685e-09
3.64419e-09
3.39274e-09
1.23863e-09
3.17141e-09
3.30831e-08
4.02027e-09
2.23665e-09
1.42187e-09
3.85876e-10
4.33103e-10
3.556e-10
8.74796e-12
1.31784e-05
3.96029e-18
4.45105e-15
7.62805e-13
2.06954e-11
1.51333e-10
6.72447e-10
2.29826e-09
2.07167e-09
1.09333e-09
8.55341e-10
9.29527e-11
2.03594e-10
1.67633e-11
9.86276e-12
2.03671e-11
3.89136e-10
2.10367e-10
3.83227e-12
5.44927e-05
1.16098e-20
1.08041e-17
7.171e-15
8.09201e-13
1.47528e-11
8.25563e-11
2.744e-10
3.07983e-10
2.63134e-10
9.38291e-11
2.018e-11
1.36066e-11
9.11728e-12
1.14596e-11
1.50181e-12
1.52898e-10
1.5633e-11
3.83227e-12
5.65288e-05
)
;

boundaryField
{
    leftWall
    {
        type            zeroGradient;
    }
    rightWall
    {
        type            zeroGradient;
    }
    lowerWall
    {
        type            zeroGradient;
    }
    atmosphere
    {
        type            inletOutlet;
        inletValue      uniform 0;
        value           nonuniform List<scalar> 
46
(
-1.54869e-66
-1.32987e-67
-5.40709e-70
0
0
0
0
0
0
0
0
0
0
0
0
0
0
0
0
0
0
0
0
0
0
7.40537e-25
3.89765e-23
1.16098e-20
1.08041e-17
7.171e-15
8.09201e-13
1.47528e-11
8.25563e-11
2.744e-10
3.07983e-10
2.63134e-10
9.38291e-11
2.018e-11
1.36066e-11
9.11728e-12
0
0
0
0
0
5.65288e-05
)
;
    }
    defaultFaces
    {
        type            empty;
    }
}


// ************************************************************************* //
