/*--------------------------------*- C++ -*----------------------------------*\
  =========                 |
  \\      /  F ield         | OpenFOAM: The Open Source CFD Toolbox
   \\    /   O peration     | Website:  https://openfoam.org
    \\  /    A nd           | Version:  9
     \\/     M anipulation  |
\*---------------------------------------------------------------------------*/
FoamFile
{
    format      ascii;
    class       volScalarField;
    location    "0.7";
    object      epsilon;
}
// * * * * * * * * * * * * * * * * * * * * * * * * * * * * * * * * * * * * * //

dimensions      [0 2 -3 0 0 0 0];

internalField   nonuniform List<scalar> 
2268
(
0.0501948
0.175798
0.255445
0.339902
0.417659
0.482892
0.53835
0.586939
0.628614
0.66624
0.702047
0.737125
0.770869
0.800747
0.82156
0.825043
0.800851
0.739421
0.634901
0.508277
0.36896
0.224271
0.0352831
0.103509
0.122452
0.160555
0.198762
0.230403
0.254713
0.274521
0.292211
0.308104
0.323255
0.338441
0.353927
0.369298
0.383331
0.393709
0.396904
0.388682
0.365539
0.327984
0.287112
0.242185
0.191232
0.11112
0.15499
0.136604
0.158474
0.183479
0.204379
0.220287
0.233083
0.244684
0.255771
0.267105
0.279201
0.292175
0.305615
0.318405
0.328444
0.332491
0.326596
0.307747
0.276835
0.241801
0.20777
0.175211
0.141765
0.208065
0.156891
0.167681
0.185035
0.200452
0.212465
0.222231
0.231236
0.240272
0.250022
0.260897
0.272959
0.285794
0.298273
0.308269
0.312446
0.306623
0.28759
0.256318
0.220223
0.187079
0.160031
0.1546
0.263503
0.178559
0.179981
0.191566
0.203178
0.212679
0.220574
0.227982
0.235692
0.244314
0.25422
0.265464
0.27764
0.289574
0.299146
0.302946
0.296575
0.276495
0.243419
0.204792
0.170246
0.144636
0.15318
0.317593
0.200434
0.19346
0.200227
0.208784
0.216294
0.222719
0.228854
0.23543
0.243002
0.251893
0.262118
0.273251
0.28419
0.292885
0.295951
0.288966
0.268182
0.233677
0.192404
0.15585
0.130229
0.141665
0.369129
0.222007
0.207486
0.210034
0.2159
0.221617
0.226696
0.23163
0.237074
0.243512
0.251226
0.260194
0.26998
0.279522
0.286867
0.288901
0.281552
0.26119
0.227138
0.184604
0.146426
0.120176
0.127557
0.419801
0.243257
0.221811
0.220549
0.223919
0.2279
0.231626
0.235334
0.239568
0.244746
0.251099
0.25858
0.266753
0.274621
0.280401
0.281345
0.273999
0.255431
0.225017
0.186025
0.150063
0.125252
0.130712
0.033909
0.167236
0.225695
0.257703
0.285988
0.310461
0.329961
0.344411
0.354125
0.359451
0.360906
0.359308
0.353361
0.341246
0.320812
0.28802
0.237814
0.162534
0.0168386
0.100026
0.176796
0.197594
0.183065
0.16852
0.157671
0.149898
0.144138
0.139744
0.136419
0.134239
0.133951
0.135167
0.137137
0.139431
0.140104
0.134106
0.110883
0.0371304
0.195983
0.192151
0.183873
0.153935
0.131829
0.118006
0.109627
0.104762
0.102477
0.102451
0.104781
0.109983
0.118423
0.130434
0.145996
0.16278
0.173906
0.165984
0.0843288
0.290422
0.205407
0.17662
0.142416
0.11935
0.105899
0.09858
0.0954115
0.0955271
0.098775
0.105541
0.116761
0.133782
0.157877
0.189785
0.226533
0.257157
0.266054
0.190487
0.386179
0.219553
0.17364
0.138212
0.115646
0.103175
0.0972163
0.0959724
0.098818
0.105968
0.118384
0.137913
0.167619
0.210684
0.269935
0.341212
0.400356
0.422167
0.375033
0.487978
0.236172
0.173496
0.137459
0.11591
0.104782
0.100527
0.101639
0.107912
0.120204
0.140525
0.172445
0.222288
0.297221
0.403938
0.53201
0.621158
0.631235
0.616897
0.600083
0.254319
0.174663
0.138233
0.118213
0.10888
0.106805
0.110904
0.121613
0.140832
0.172362
0.222934
0.304479
0.430014
0.605653
0.79575
0.88154
0.877869
0.879051
0.735271
0.268662
0.175265
0.139359
0.121634
0.114687
0.115419
0.123342
0.139797
0.168179
0.215021
0.292297
0.421274
0.615007
0.855804
1.06163
1.0908
1.15428
1.14039
0.492053
0.275824
0.244485
0.237736
0.23737
0.238616
0.240121
0.241776
0.243918
0.246917
0.250934
0.255905
0.261442
0.266717
0.270327
0.270252
0.264242
0.251077
0.232289
0.212488
0.199872
0.202759
0.248714
0.589366
0.317585
0.27455
0.261408
0.256339
0.253755
0.25187
0.250266
0.249044
0.248459
0.248679
0.249679
0.25125
0.252994
0.254391
0.254962
0.254719
0.254974
0.259133
0.271694
0.296307
0.342845
0.420676
0.686962
0.358889
0.304616
0.285294
0.275363
0.268506
0.262646
0.257171
0.252045
0.247427
0.243498
0.240344
0.23793
0.236215
0.235285
0.235409
0.237117
0.241148
0.248717
0.261484
0.280789
0.306478
0.333076
0.786639
0.400218
0.334512
0.308897
0.29384
0.28231
0.272032
0.262291
0.252984
0.244232
0.23621
0.229077
0.223001
0.218176
0.214848
0.21338
0.214169
0.217528
0.223365
0.231333
0.240863
0.250428
0.255967
0.888001
0.441412
0.363967
0.331862
0.311448
0.294988
0.280068
0.265942
0.252501
0.23988
0.228283
0.217928
0.20904
0.201867
0.196665
0.19367
0.19299
0.194477
0.19763
0.201631
0.205347
0.207148
0.204556
0.989938
0.48216
0.392741
0.353983
0.328078
0.306593
0.287017
0.268615
0.251308
0.235255
0.220684
0.207827
0.196894
0.188071
0.181491
0.177192
0.175054
0.17474
0.175665
0.177003
0.17773
0.176702
0.172868
1.09142
0.522184
0.420674
0.375185
0.343766
0.31731
0.293226
0.270808
0.250009
0.231005
0.214016
0.199237
0.186813
0.176818
0.169247
0.163984
0.160786
0.15926
0.158867
0.15894
0.158761
0.15772
0.155575
1.19167
0.561293
0.4477
0.395492
0.358643
0.327385
0.299048
0.272952
0.249069
0.227566
0.208621
0.192362
0.178837
0.16801
0.159757
0.153867
0.150043
0.147906
0.147009
0.146872
0.147055
0.147313
0.147793
1.29023
0.599401
0.473828
0.415
0.372891
0.33708
0.304807
0.2754
0.248827
0.225219
0.20469
0.187276
0.172926
0.161504
0.1528
0.146547
0.142438
0.140135
0.139294
0.139594
0.14081
0.142933
0.146334
1.38691
0.636516
0.499138
0.433851
0.386712
0.346644
0.310781
0.278431
0.249533
0.224157
0.202335
0.184008
0.169028
0.157175
0.148179
0.141747
0.13758
0.135396
0.134945
0.136042
0.138631
0.142883
0.149354
1.48178
0.672722
0.523749
0.452207
0.400304
0.356302
0.317202
0.282264
0.251373
0.224522
0.201647
0.182594
0.167126
0.154957
0.145776
0.139279
0.135191
0.133286
0.133406
0.135487
0.13962
0.146141
0.155797
1.57505
0.708163
0.547814
0.470235
0.413851
0.366246
0.324258
0.287074
0.2545
0.226436
0.202721
0.183103
0.167269
0.154876
0.145585
0.139092
0.135155
0.133606
0.134377
0.13752
0.14327
0.15213
0.165048
1.66707
0.743016
0.571491
0.488094
0.427509
0.376628
0.332096
0.292998
0.259043
0.230026
0.20568
0.185664
0.16959
0.157066
0.147734
0.141297
0.137547
0.136378
0.137813
0.142022
0.149386
0.160581
0.176757
1.75828
0.777482
0.59494
0.50592
0.441402
0.387562
0.340825
0.300148
0.265122
0.235428
0.210691
0.190476
0.174325
0.161799
0.152521
0.146202
0.142668
0.141877
0.143942
0.149158
0.158054
0.171485
0.19079
1.84915
0.811769
0.618306
0.523825
0.455618
0.399124
0.35052
0.30861
0.272853
0.242803
0.217971
0.197826
0.181835
0.16951
0.160448
0.15436
0.151103
0.150692
0.15333
0.159433
0.169686
0.185122
0.207258
1.9402
0.846087
0.641717
0.541889
0.470209
0.411355
0.361229
0.318459
0.282357
0.25234
0.227798
0.208099
0.192627
0.18083
0.172267
0.166634
0.1638
0.163825
0.166986
0.173815
0.185146
0.202187
0.226626
2.03199
0.880648
0.665291
0.560173
0.485204
0.424276
0.372986
0.329769
0.293772
0.264269
0.240524
0.221792
0.207364
0.196608
0.189019
0.184253
0.182159
0.182807
0.186524
0.193924
0.205966
0.224018
0.249939
2.12507
0.915677
0.689143
0.578733
0.500631
0.437912
0.385842
0.34264
0.307279
0.278881
0.256581
0.239516
0.226871
0.217913
0.212043
0.208833
0.208066
0.209775
0.214275
0.222209
0.2346
0.252927
0.279195
2.22007
0.951427
0.713415
0.597654
0.516553
0.452335
0.399904
0.357243
0.323137
0.296558
0.276507
0.262004
0.252117
0.245993
0.242903
0.242289
0.243808
0.24738
0.253233
0.261948
0.274519
0.292426
0.317734
2.3177
0.988214
0.73831
0.617092
0.53312
0.467722
0.415403
0.373884
0.341754
0.317827
0.300977
0.290111
0.284174
0.282177
0.283233
0.286601
0.291747
0.298399
0.306605
0.316779
0.329762
0.346893
0.370131
2.41884
1.02646
0.764152
0.637348
0.550656
0.484451
0.432792
0.393108
0.363774
0.343444
0.330868
0.324841
0.324187
0.32777
0.334514
0.34346
0.353826
0.365076
0.376991
0.389717
0.403823
0.420361
0.44099
2.52459
1.06679
0.791471
0.658958
0.569758
0.503213
0.452875
0.415835
0.390226
0.374532
0.367375
0.367434
0.373409
0.383999
0.397929
0.413994
0.431129
0.448495
0.465549
0.4821
0.498351
0.514946
0.533083
2.63644
1.11011
0.821115
0.682825
0.591449
0.525186
0.47699
0.443551
0.422719
0.41278
0.412208
0.419549
0.433354
0.452147
0.474439
0.498777
0.523819
0.548423
0.571716
0.593153
0.612531
0.630009
0.646202
2.75644
1.1578
0.854416
0.710403
0.617384
0.552258
0.507258
0.478581
0.463734
0.460752
0.467914
0.483589
0.506142
0.533898
0.565155
0.598237
0.631569
0.663757
0.693658
0.720425
0.743476
0.762466
0.777353
2.88778
1.21195
0.893421
0.743958
0.650149
0.587367
0.546955
0.5245
0.517065
0.522355
0.538366
0.563217
0.595032
0.631901
0.671937
0.713307
0.754294
0.793358
0.829183
0.860752
0.887214
0.90778
0.92173
3.03553
1.27567
0.941235
0.786957
0.693705
0.634999
0.601078
0.586751
0.588496
0.603542
0.629471
0.664047
0.705104
0.750439
0.798052
0.846081
0.892839
0.936842
0.976605
1.0112
1.0397
1.061
1.07376
3.20723
1.3536
1.00252
0.844636
0.754032
0.701937
0.677195
0.673598
0.686803
0.713337
0.750128
0.794467
0.844038
0.896061
0.948666
1.0002
1.04919
1.09439
1.13475
1.16941
1.19748
1.21775
1.22843
3.41307
1.45251
1.08414
0.924703
0.83994
0.798226
0.786608
0.797438
0.825129
0.865146
0.913385
0.966271
1.02132
1.0763
1.12957
1.17987
1.2262
1.26782
1.30413
1.33461
1.35863
1.37506
1.38185
3.66474
1.58143
1.19562
1.03779
0.963672
0.938082
0.945572
0.976211
1.0224
1.07689
1.135
1.19319
1.24909
1.30115
1.34851
1.39074
1.42764
1.4592
1.48543
1.50631
1.52157
1.53039
1.53067
3.9685
1.74998
1.34802
1.19636
1.14008
1.13954
1.17545
1.23359
1.30109
1.36986
1.43451
1.49184
1.54049
1.58037
1.61219
1.63691
1.65552
1.66896
1.67791
1.68287
1.68399
1.68081
1.6714
4.3037
1.96002
1.54895
1.40963
1.38182
1.42024
1.49876
1.59221
1.68426
1.76501
1.82915
1.87501
1.9037
1.918
1.92126
1.91657
1.90644
1.89279
1.87691
1.85962
1.84129
1.82183
1.79958
4.57862
2.18516
1.78902
1.67096
1.68754
1.78602
1.92322
2.06194
2.18051
2.2674
2.31921
2.33809
2.32982
2.30197
2.26189
2.21536
2.16647
2.11789
2.07112
2.02681
1.9852
1.94636
1.90902
4.60266
2.37422
2.02267
1.9421
2.02627
2.20837
2.41935
2.61188
2.75567
2.83829
2.86187
2.83608
2.77411
2.69002
2.5959
2.50009
2.40759
2.32112
2.24175
2.16943
2.10378
2.04482
1.99183
4.35133
2.49858
2.19907
2.16788
2.34149
2.61153
2.89876
3.14126
3.30028
3.36222
3.34178
3.26076
3.14094
3.00235
2.85973
2.7217
2.59262
2.47452
2.36777
2.27156
2.1849
2.10779
2.04037
3.99998
2.5492
2.33761
2.34742
2.59676
2.9192
3.23347
3.47365
3.59117
3.60344
3.54433
3.43774
3.30072
3.14821
2.99245
2.84078
2.69662
2.56205
2.43831
2.32538
2.22278
2.13098
2.05138
3.56928
2.70183
2.56813
2.62851
2.89926
3.1461
3.33935
3.46833
3.51836
3.50017
3.44212
3.35775
3.25168
3.13168
3.00425
2.8698
2.73074
2.59198
2.45854
2.33374
2.21927
2.11677
2.02844
3.1222
3.14723
3.313
3.42159
3.4242
3.38356
3.37473
3.40262
3.41342
3.3795
3.32723
3.27079
3.19286
3.08919
2.97251
2.84568
2.70723
2.5626
2.42049
2.2878
2.16757
2.06152
1.97153
2.75082
4.03378
5.12679
5.19223
4.67078
4.20536
3.9826
3.89746
3.79134
3.57534
3.37253
3.23213
3.08812
2.92784
2.78749
2.66638
2.54614
2.41717
2.28439
2.16108
2.05314
1.96112
1.88525
1.94639
3.70679
4.51031
3.84905
3.34545
3.33171
3.58443
3.66442
3.48712
3.16056
2.87538
2.72204
2.6219
2.53019
2.44118
2.35833
2.26687
2.1606
2.05601
1.9653
1.88942
1.82763
1.77946
1.21323
2.09549
2.07042
1.76186
1.72984
2.00514
2.27657
2.32991
2.28643
2.22953
2.22962
2.25335
2.24963
2.20793
2.14255
2.06666
1.99335
1.92298
1.8635
1.81532
1.77945
1.7536
1.74123
1.10877
1.15635
1.64729
1.53448
1.26709
1.41464
1.59285
1.60038
1.63499
1.79125
2.10261
2.27913
2.27015
2.13732
2.06123
1.95908
1.92905
1.88548
1.88541
1.87968
1.8996
1.9112
1.9574
1.65013
0.879875
0.679165
0.522447
0.498842
0.707181
0.96961
1.05367
1.37362
1.72346
1.77415
1.81418
1.56884
1.63849
1.6897
1.80395
1.98867
2.04529
2.24453
2.30625
2.51883
2.49878
2.69048
0.536877
0.717745
0.911826
1.08118
0.505859
0.519583
0.514125
0.471687
0.345827
0.33907
0.320364
0.287552
0.250127
0.240016
0.224979
0.206827
0.195516
0.187854
0.179057
0.170209
0.166567
0.162375
0.158375
0.155111
0.153119
0.15198
0.151539
0.15219
0.149091
0.150661
0.15326
0.157302
0.151276
0.155456
0.161015
0.168456
0.157974
0.164825
0.173464
0.184514
0.168209
0.177838
0.189704
0.204551
0.181337
0.193806
0.208951
0.227605
0.196899
0.212156
0.230463
0.252684
0.214595
0.232453
0.253619
0.278931
0.234338
0.254468
0.278045
0.305824
0.256352
0.27829
0.303721
0.333285
0.281358
0.304465
0.331075
0.361709
0.310932
0.334312
0.361212
0.392067
0.348024
0.370466
0.396418
0.426304
0.397174
0.417307
0.440767
0.468034
0.463523
0.480234
0.499779
0.522696
0.550682
0.563455
0.578313
0.595816
0.659128
0.668018
0.678148
0.690117
0.786194
0.791566
0.797349
0.804232
0.927093
0.929379
0.931298
0.933673
1.07609
1.07566
1.07414
1.07249
1.2278
1.22474
1.2199
1.21437
1.37775
1.37178
1.36344
1.35389
1.52208
1.51257
1.50027
1.48638
1.657
1.6431
1.6262
1.60748
1.7781
1.75894
1.73676
1.71271
1.87973
1.85476
1.82686
1.79719
1.95499
1.92429
1.89078
1.85573
1.99715
1.96154
1.92333
1.88404
2.00311
1.96391
1.92281
1.8814
1.97655
1.93553
1.89423
1.85379
1.92104
1.88286
1.84619
1.81054
1.84362
1.81238
1.78344
1.75684
1.75535
1.73787
1.72276
1.71007
1.74503
1.75419
1.76901
1.78669
2.02328
2.10536
2.2209
2.3243
3.052
3.34459
4.28984
4.4061
0.492007
0.252811
0.171443
0.140684
0.128132
0.126059
0.132445
0.148098
0.176195
0.223082
0.300598
0.430503
0.639227
0.908567
1.15882
1.29859
1.27632
1.4566
1.40637
0.335315
0.209398
0.159746
0.141332
0.137807
0.144715
0.162463
0.194857
0.249846
0.342163
0.497952
0.755968
1.093
1.39757
1.54897
1.59518
1.5696
1.79963
1.90363
0.237792
0.176388
0.150905
0.145156
0.152314
0.171815
0.207586
0.268551
0.371372
0.545456
0.834816
1.24387
1.63298
1.85405
1.90952
1.90734
1.84316
2.01484
2.32285
0.185247
0.158221
0.14944
0.155445
0.175413
0.212989
0.277345
0.385853
0.568952
0.871701
1.32779
1.80732
2.13742
2.27515
2.30426
2.26992
2.11729
2.18982
2.74269
0.160837
0.152188
0.15616
0.174616
0.2115
0.275803
0.384496
0.567067
0.868314
1.32934
1.88757
2.3381
2.59379
2.70422
2.72748
2.6414
2.39692
2.39729
3.16027
0.152746
0.155966
0.171696
0.205249
0.265546
0.36856
0.541485
0.82645
1.26851
1.85928
2.42066
2.81235
3.03194
3.12701
3.1055
2.9391
2.66818
2.63361
3.58929
0.155048
0.168271
0.196932
0.249901
0.341846
0.496925
0.752737
1.15583
1.72168
2.36414
2.88846
3.23737
3.42859
3.47703
3.38244
3.17115
2.94049
2.87806
4.03086
0.165003
0.188517
0.232544
0.309976
0.44158
0.6595
1.00795
1.52228
2.16928
2.79821
3.28003
3.59136
3.73689
3.72627
3.59204
3.3891
3.22361
3.12692
4.49852
0.18124
0.216213
0.278252
0.384283
0.560537
0.845065
1.28095
1.87645
2.54922
3.14262
3.58257
3.8511
3.95021
3.90388
3.76953
3.60843
3.51062
3.37672
4.96121
0.202792
0.250367
0.332091
0.468156
0.688647
1.03393
1.53743
2.17486
2.8354
3.38898
3.78961
4.02219
4.09228
4.03754
3.93655
3.84276
3.80117
3.61843
5.36427
0.228594
0.289156
0.390283
0.554033
0.812248
1.2038
1.7476
2.39308
3.02261
3.53821
3.90933
4.12329
4.18321
4.14281
4.10666
4.10231
4.09339
3.82767
5.70383
0.25733
0.330074
0.448012
0.633474
0.918064
1.33649
1.89341
2.52327
3.11471
3.59888
3.95719
4.17111
4.23313
4.22076
4.27614
4.37218
4.3628
3.99049
5.99446
0.287582
0.370508
0.500795
0.699602
0.996728
1.42165
1.96853
2.5671
3.11884
3.58157
3.94593
4.17313
4.23876
4.25624
4.41804
4.61078
4.55427
4.09186
6.20454
0.318151
0.408477
0.545763
0.748852
1.04457
1.45721
1.9751
2.53051
3.04444
3.49855
3.87585
4.11946
4.18227
4.22562
4.50606
4.78597
4.60426
4.09475
6.25287
0.348356
0.443141
0.582328
0.781599
1.06384
1.4487
1.92302
2.42788
2.90931
3.36516
3.75661
4.01253
4.0595
4.13136
4.56595
4.92221
4.47238
3.98441
6.12035
0.378147
0.474864
0.612046
0.801693
1.06204
1.40862
1.83013
2.28128
2.73857
3.20639
3.63112
3.89284
3.91034
4.03217
4.67282
5.05626
4.2822
3.83863
5.91613
0.40803
0.50484
0.637755
0.815043
1.05009
1.35516
1.72336
2.12138
2.56606
3.05473
3.51972
3.78342
3.78663
3.98207
4.79117
5.09766
4.15071
3.70692
5.7176
0.438974
0.534539
0.662342
0.827533
1.03978
1.31278
1.62558
1.97092
2.4164
2.94155
3.42941
3.68544
3.69788
3.96162
4.82561
4.99761
4.01561
3.58186
5.5358
0.472577
0.565351
0.687631
0.842839
1.04093
1.28297
1.54234
1.85747
2.31436
2.88133
3.37792
3.604
3.62519
3.91463
4.72626
4.76681
3.85105
3.45297
5.36662
0.511649
0.598742
0.713765
0.859991
1.0487
1.26573
1.49286
1.80267
2.2842
2.87312
3.3672
3.53971
3.5493
3.81459
4.51405
4.45582
3.64563
3.31402
5.18716
0.560913
0.637561
0.740589
0.874798
1.05248
1.25977
1.48789
1.81646
2.32317
2.90317
3.35038
3.47038
3.45626
3.67677
4.24979
4.10517
3.41705
3.17042
4.98122
0.626327
0.687885
0.772642
0.888056
1.04825
1.25344
1.50918
1.87644
2.38625
2.9304
3.28661
3.36516
3.33347
3.5235
3.97821
3.74937
3.20086
3.03869
4.7639
0.712033
0.756875
0.820448
0.912159
1.04725
1.23905
1.50697
1.89722
2.38788
2.85653
3.14464
3.21113
3.18242
3.36792
3.72755
3.44109
3.0217
2.93362
4.57048
0.817774
0.847076
0.891145
0.958231
1.06458
1.22729
1.47081
1.82333
2.25606
2.66419
2.93433
3.01864
3.02252
3.22334
3.50525
3.19924
2.88724
2.86166
4.42118
0.939375
0.954997
0.981493
1.02601
1.10263
1.22973
1.42905
1.71844
2.07921
2.43976
2.70529
2.82519
2.87882
3.10313
3.31407
3.02223
2.7966
2.82494
4.33592
1.07079
1.07388
1.08424
1.10825
1.15799
1.25025
1.40429
1.63471
1.93245
2.24863
2.50792
2.66124
2.76526
3.01232
3.16365
2.9077
2.74633
2.8233
4.32367
1.20538
1.19681
1.19293
1.19906
1.22552
1.28734
1.4022
1.58427
1.83097
2.10854
2.35768
2.53493
2.68307
2.9525
3.06461
2.84603
2.73122
2.85507
4.38368
1.33749
1.31817
1.30191
1.29304
1.30035
1.33732
1.42052
1.56436
1.77038
2.01468
2.25034
2.44178
2.62594
2.9225
3.01371
2.82383
2.74405
2.91627
4.51122
1.46218
1.43294
1.40605
1.3851
1.37747
1.39515
1.45361
1.56732
1.7405
1.95605
2.17651
2.37422
2.58548
2.91304
3.00167
2.8295
2.7763
2.99989
4.70223
1.57487
1.53636
1.50044
1.47018
1.45158
1.455
1.4946
1.58456
1.73105
1.92218
2.12807
2.32711
2.55644
2.91683
3.01747
2.85114
2.81863
3.09621
4.95507
1.67103
1.62356
1.58038
1.54334
1.51727
1.51084
1.53656
1.608
1.73292
1.9043
2.099
2.29913
2.53879
2.92273
3.04593
2.87712
2.8626
3.19504
5.27065
1.74612
1.69036
1.64151
1.60001
1.56959
1.55708
1.57314
1.63036
1.73801
1.89415
2.08309
2.29038
2.53966
2.92181
3.06245
2.89503
2.90365
3.29122
5.65523
1.79588
1.73329
1.68029
1.6368
1.60474
1.58936
1.59919
1.64552
1.73874
1.88236
2.07026
2.29661
2.57161
2.93312
3.05709
2.89846
2.94343
3.3925
6.13152
1.81753
1.75088
1.69608
1.65247
1.62131
1.60579
1.61211
1.6496
1.72907
1.85921
2.04678
2.3061
2.64177
2.97471
3.0524
2.90978
2.99692
3.52824
6.72776
1.81224
1.74579
1.69226
1.65086
1.62265
1.60937
1.61412
1.64356
1.70796
1.8213
2.0081
2.31359
2.75853
3.0992
3.08973
2.94171
3.07156
3.68808
7.34837
1.78727
1.72643
1.67768
1.64121
1.61838
1.60936
1.6138
1.63559
1.6851
1.78506
1.98616
2.35301
2.93954
3.31128
3.11214
2.98204
3.1761
3.87907
7.94828
1.751
1.69631
1.65426
1.62497
1.60896
1.60452
1.61039
1.63016
1.67774
1.7913
2.04782
2.48209
2.99003
3.16713
2.97261
3.01319
3.31663
4.09528
8.45259
1.71609
1.68166
1.65202
1.62703
1.6098
1.59976
1.59706
1.60927
1.65325
1.76747
2.03174
2.41997
2.62654
2.74741
2.8556
3.09441
3.50385
4.30173
8.73678
1.69247
1.68141
1.67205
1.66344
1.65696
1.65413
1.65581
1.66614
1.69343
1.76114
1.90781
2.13365
2.36365
2.61297
2.91644
3.30572
3.74336
4.44063
8.63541
1.81816
1.84894
1.87369
1.89888
1.91794
1.93599
1.95461
1.97784
2.00009
2.03673
2.11703
2.27042
2.49398
2.8229
3.24648
3.72768
4.02568
4.45607
7.8182
2.44953
2.5362
2.60302
2.7218
2.77966
2.82978
2.87843
2.95506
2.94348
2.92902
2.94407
3.06968
3.18551
3.57525
3.99492
4.56988
4.20676
4.29628
5.76678
4.20271
4.38731
4.41635
5.36012
5.22692
5.29035
5.21233
6.06364
5.50443
4.97434
5.03661
4.60288
4.25603
4.07326
3.86486
3.8631
2.62507
2.67746
2.977
)
;

boundaryField
{
    leftWall
    {
        type            epsilonWallFunction;
        value           nonuniform List<scalar> 
50
(
0.0501948
0.103509
0.15499
0.208065
0.263503
0.317593
0.369129
0.419801
0.492053
0.589366
0.686962
0.786639
0.888001
0.989938
1.09142
1.19167
1.29023
1.38691
1.48178
1.57505
1.66707
1.75828
1.84915
1.9402
2.03199
2.12507
2.22007
2.3177
2.41884
2.52459
2.63644
2.75644
2.88778
3.03553
3.20723
3.41307
3.66474
3.9685
4.3037
4.57862
4.60266
4.35133
3.99998
3.56928
3.1222
2.75082
1.94639
1.21323
1.10877
1.65013
)
;
    }
    rightWall
    {
        type            epsilonWallFunction;
        value           nonuniform List<scalar> 
50
(
0.0168386
0.0371304
0.0843288
0.190487
0.375033
0.616897
0.879051
1.14039
1.40637
1.90363
2.32285
2.74269
3.16027
3.58929
4.03086
4.49852
4.96121
5.36427
5.70383
5.99446
6.20454
6.25287
6.12035
5.91613
5.7176
5.5358
5.36662
5.18716
4.98122
4.7639
4.57048
4.42118
4.33592
4.32367
4.38368
4.51122
4.70223
4.95507
5.27065
5.65523
6.13152
6.72776
7.34837
7.94828
8.45259
8.73678
8.63541
7.8182
5.76678
2.977
)
;
    }
    lowerWall
    {
        type            epsilonWallFunction;
        value           nonuniform List<scalar> 
62
(
0.0501948
0.175798
0.255445
0.339902
0.417659
0.482892
0.53835
0.586939
0.628614
0.66624
0.702047
0.737125
0.770869
0.800747
0.82156
0.825043
0.800851
0.739421
0.634901
0.508277
0.36896
0.224271
0.0352831
0.0352831
0.11112
0.141765
0.1546
0.15318
0.141665
0.127557
0.130712
0.536877
0.717745
0.911826
1.08118
0.033909
0.100026
0.195983
0.290422
0.386179
0.487978
0.600083
0.735271
0.033909
0.167236
0.225695
0.257703
0.285988
0.310461
0.329961
0.344411
0.354125
0.359451
0.360906
0.359308
0.353361
0.341246
0.320812
0.28802
0.237814
0.162534
0.0168386
)
;
    }
    atmosphere
    {
        type            inletOutlet;
        inletValue      uniform 0.1;
        value           nonuniform List<scalar> 
46
(
1.65013
0.879875
0.1
0.1
0.1
0.707181
0.1
0.1
1.37362
1.72346
0.1
1.81418
0.1
1.63849
0.1
1.80395
0.1
2.04529
0.1
2.30625
0.1
2.49878
0.1
3.052
3.34459
0.1
0.1
0.1
4.38731
4.41635
0.1
0.1
5.29035
5.21233
0.1
0.1
4.97434
0.1
4.60288
0.1
4.07326
0.1
3.8631
0.1
2.67746
0.1
)
;
    }
    defaultFaces
    {
        type            empty;
    }
}


// ************************************************************************* //
