/*--------------------------------*- C++ -*----------------------------------*\
  =========                 |
  \\      /  F ield         | OpenFOAM: The Open Source CFD Toolbox
   \\    /   O peration     | Website:  https://openfoam.org
    \\  /    A nd           | Version:  9
     \\/     M anipulation  |
\*---------------------------------------------------------------------------*/
FoamFile
{
    format      ascii;
    class       volScalarField;
    location    "0.7";
    object      k;
}
// * * * * * * * * * * * * * * * * * * * * * * * * * * * * * * * * * * * * * //

dimensions      [0 2 -2 0 0 0 0];

internalField   nonuniform List<scalar> 
2268
(
0.0037732
0.00605509
0.00857996
0.0108145
0.0126513
0.0142058
0.015594
0.016894
0.0181419
0.0193186
0.020398
0.0213417
0.0221016
0.0226218
0.0228331
0.0226577
0.0220174
0.0208452
0.0191303
0.0169792
0.0146337
0.0121373
0.00846341
0.00593893
0.011793
0.0174058
0.0222208
0.0263764
0.0300375
0.0333421
0.0363895
0.0391965
0.0417814
0.0441245
0.0461666
0.0478238
0.0489951
0.0495621
0.0493926
0.0483524
0.0463344
0.043329
0.0394602
0.0348248
0.0276343
0.0156174
0.00687127
0.0145137
0.0212279
0.027331
0.0328034
0.0376803
0.0420755
0.0460659
0.0497118
0.0530388
0.0560297
0.0586267
0.0607478
0.0622964
0.0631624
0.0632249
0.0623643
0.0604877
0.0575618
0.0535553
0.0479284
0.0387172
0.020335
0.00713522
0.0158847
0.0234198
0.0305862
0.0371412
0.0429953
0.0482143
0.052907
0.0571613
0.0610174
0.0644656
0.0674558
0.0699164
0.071766
0.0729142
0.0732648
0.0727269
0.0712371
0.0687434
0.0650343
0.05927
0.0490393
0.025117
0.0070289
0.0165011
0.0248436
0.0330534
0.040618
0.0473205
0.0532302
0.0584974
0.0632422
0.0675221
0.0713362
0.0746434
0.0773871
0.0795057
0.0809324
0.0815993
0.0814482
0.0804414
0.078494
0.07533
0.06992
0.0592595
0.0306331
0.00699385
0.0166933
0.0259071
0.0352083
0.0437319
0.0511802
0.0576692
0.0634111
0.068562
0.0731951
0.0773158
0.0808915
0.0838831
0.0862513
0.0879547
0.0889533
0.089221
0.088725
0.0873898
0.0849213
0.0802249
0.0698221
0.0382346
0.00709939
0.0168978
0.0270306
0.0373664
0.0467745
0.0548465
0.0617973
0.067921
0.0734073
0.0783385
0.0827208
0.0865278
0.0897402
0.0923433
0.0943199
0.0956553
0.096349
0.0963743
0.0956783
0.0939985
0.090327
0.081195
0.0506258
0.00758938
0.0175361
0.0285925
0.0398255
0.0499469
0.0584823
0.0657619
0.0721741
0.0779315
0.0831144
0.0877211
0.0917275
0.0951377
0.0979622
0.100206
0.101873
0.102989
0.103528
0.10347
0.102621
0.100215
0.093711
0.0717609
0.248817
0.425914
0.516126
0.4852
0.372166
0.258317
0.195949
0.167501
0.155576
0.151507
0.151102
0.152576
0.154483
0.154143
0.146724
0.129546
0.104753
0.0710314
0.030696
0.517302
1.0027
1.3613
1.38894
1.08979
0.704916
0.466982
0.355053
0.30934
0.291754
0.28434
0.281759
0.282363
0.282426
0.271644
0.242498
0.198068
0.138688
0.0529371
0.591315
1.41899
2.21965
2.48235
2.06134
1.32372
0.790093
0.516536
0.409533
0.370646
0.353451
0.344904
0.341148
0.338095
0.323414
0.287692
0.234875
0.166545
0.0685394
0.529294
1.38169
2.146
2.80851
3.26219
2.44631
1.36571
0.732519
0.505626
0.431481
0.400205
0.384985
0.376658
0.369769
0.35138
0.311899
0.255278
0.183857
0.0786024
0.46332
1.16114
1.47016
1.95534
2.596
2.97949
2.11136
1.04814
0.619641
0.488498
0.435956
0.413966
0.401338
0.390043
0.367639
0.325959
0.267931
0.195408
0.0858801
0.374289
0.748375
0.911403
1.31018
1.88615
2.28767
2.13069
1.28617
0.718976
0.529845
0.462345
0.436542
0.420791
0.403973
0.376842
0.333976
0.276171
0.203755
0.0915856
0.267246
0.405925
0.577531
0.902043
1.40236
1.82358
1.86329
1.31289
0.748421
0.5487
0.473608
0.451109
0.437955
0.413884
0.381531
0.338295
0.281683
0.210182
0.0962358
0.170415
0.281007
0.432864
0.691691
1.10336
1.50505
1.63186
1.24839
0.745931
0.557255
0.482287
0.462772
0.452998
0.419942
0.383545
0.340743
0.285594
0.21521
0.100038
0.0100254
0.0199431
0.0322427
0.0445108
0.0553722
0.0643096
0.0718622
0.0785737
0.0846576
0.0901655
0.095066
0.0993349
0.103022
0.106171
0.108815
0.110982
0.112707
0.11396
0.114764
0.115015
0.114282
0.111527
0.103018
0.0150587
0.0282709
0.0411367
0.0535158
0.064184
0.0725568
0.0798085
0.08662
0.0929925
0.0988483
0.10404
0.108544
0.112525
0.116061
0.119198
0.121986
0.124443
0.126559
0.128446
0.130169
0.131766
0.133555
0.136239
0.0200807
0.0394989
0.0506248
0.0611406
0.0710317
0.079558
0.0871987
0.0943973
0.101193
0.107463
0.112779
0.117255
0.121381
0.125183
0.128688
0.131956
0.134975
0.137816
0.140636
0.143597
0.147053
0.151818
0.158881
0.0230738
0.0462273
0.058563
0.0680804
0.0764901
0.0843819
0.0922055
0.100033
0.107769
0.114908
0.120807
0.125562
0.129821
0.133775
0.13745
0.140938
0.144355
0.147832
0.151489
0.155544
0.160712
0.168113
0.178542
0.0237228
0.0500894
0.063443
0.0730884
0.0811317
0.0884182
0.0955738
0.102967
0.110577
0.117939
0.124537
0.130388
0.135578
0.140423
0.144887
0.148858
0.152571
0.156572
0.161085
0.166341
0.173618
0.18429
0.199487
0.0240106
0.0517818
0.0661281
0.0762797
0.0845145
0.0917397
0.0985841
0.105459
0.112444
0.119275
0.125638
0.131619
0.137461
0.143199
0.148556
0.153453
0.158009
0.163001
0.168943
0.176258
0.185668
0.20054
0.224885
0.0240034
0.0525582
0.0673797
0.0780317
0.0866796
0.0941768
0.101071
0.107736
0.114319
0.120742
0.126852
0.132697
0.13847
0.144225
0.149857
0.155442
0.161306
0.167971
0.175708
0.184675
0.196061
0.214074
0.241208
0.0240068
0.0527086
0.0677621
0.0787355
0.0877518
0.0956002
0.102738
0.109471
0.115963
0.122229
0.128217
0.133959
0.139588
0.145214
0.150893
0.156787
0.163225
0.170608
0.179216
0.18942
0.202137
0.218981
0.238697
0.0239533
0.0525361
0.0676156
0.0787194
0.0879589
0.0960828
0.103481
0.110402
0.116988
0.123288
0.129301
0.135054
0.140646
0.1462
0.151844
0.157772
0.16428
0.171716
0.1804
0.190703
0.203295
0.21854
0.235166
0.0238179
0.0521334
0.0670945
0.0781815
0.0875005
0.0957783
0.103366
0.110468
0.117204
0.123626
0.129752
0.135608
0.141264
0.146828
0.15244
0.158288
0.164628
0.171767
0.180013
0.189682
0.201129
0.214512
0.229178
0.0236029
0.0515272
0.0662723
0.077239
0.0865224
0.0948381
0.102516
0.109736
0.116598
0.123152
0.129417
0.135414
0.141192
0.146835
0.152465
0.158244
0.164392
0.171173
0.178866
0.187742
0.198031
0.209838
0.223162
0.0233147
0.0507289
0.0651989
0.0759746
0.0851385
0.0933976
0.101072
0.108329
0.11526
0.121907
0.128291
0.134428
0.140348
0.146115
0.151821
0.157604
0.163646
0.170173
0.177433
0.185666
0.195075
0.205809
0.218127
0.0229475
0.0497716
0.0639194
0.0744612
0.0834469
0.091579
0.0991726
0.106391
0.113322
0.120008
0.126468
0.132716
0.138772
0.144678
0.150509
0.156373
0.162423
0.168853
0.17588
0.183726
0.192594
0.202679
0.214323
0.0224894
0.0487011
0.0624829
0.0727656
0.0815378
0.0894928
0.0969472
0.104064
0.110933
0.117599
0.124085
0.130403
0.136568
0.142611
0.14859
0.154593
0.160748
0.167222
0.174212
0.181928
0.190579
0.200393
0.211733
0.0219531
0.047534
0.0609533
0.0709517
0.0794915
0.0872398
0.0945132
0.101481
0.108236
0.114831
0.121292
0.127635
0.133874
0.140036
0.146166
0.152338
0.158662
0.165287
0.172395
0.18019
0.188893
0.198762
0.210171
0.0213603
0.0463011
0.0593703
0.0690898
0.0773796
0.0849061
0.0919746
0.098759
0.105362
0.111843
0.118235
0.12456
0.130836
0.137088
0.143355
0.149704
0.156232
0.163076
0.170408
0.178434
0.187394
0.197576
0.209377
0.0207363
0.0450408
0.0577742
0.0672299
0.075274
0.0825651
0.0894166
0.0959987
0.102422
0.108756
0.115044
0.121314
0.127591
0.133901
0.140285
0.146802
0.153546
0.160643
0.168265
0.176625
0.18598
0.196654
0.209082
0.0201072
0.0437928
0.056208
0.0654148
0.0732259
0.0802852
0.0869089
0.0932792
0.0995071
0.105672
0.111828
0.118014
0.12426
0.130599
0.137073
0.143742
0.150697
0.158062
0.166009
0.174759
0.18459
0.195861
0.209044
0.0194987
0.0425954
0.0547131
0.0636863
0.0712763
0.0781138
0.084513
0.0906629
0.096688
0.102671
0.108676
0.114754
0.120943
0.127284
0.133823
0.140623
0.147776
0.155407
0.16369
0.172853
0.183196
0.195099
0.209065
0.0189323
0.0414835
0.0533266
0.0620815
0.0694617
0.0760864
0.082269
0.0882017
0.0940171
0.0998115
0.105655
0.111606
0.117718
0.124037
0.130618
0.137528
0.144861
0.152745
0.161357
0.170932
0.181778
0.194292
0.208985
0.0184249
0.0404865
0.0520801
0.0606317
0.0678124
0.0742323
0.0802051
0.0859266
0.0915346
0.0971345
0.102809
0.108624
0.114641
0.12092
0.127521
0.134519
0.142011
0.150128
0.15905
0.169013
0.180325
0.193384
0.208689
0.0179899
0.0396278
0.0509984
0.0593612
0.0663518
0.0725738
0.0783422
0.0838572
0.0892623
0.0946685
0.100168
0.105839
0.11175
0.11797
0.124572
0.131635
0.139264
0.14759
0.156793
0.167105
0.178827
0.192339
0.208104
0.017636
0.0389238
0.0500991
0.0582872
0.0650959
0.0711255
0.0766938
0.0820059
0.0872106
0.0924253
0.0977483
0.103268
0.109063
0.11521
0.121793
0.1289
0.136639
0.145146
0.154595
0.16521
0.177274
0.191134
0.2072
0.0173672
0.038384
0.0493926
0.0574196
0.0640537
0.0698954
0.0752667
0.0803778
0.0853833
0.0904065
0.095552
0.100914
0.106583
0.112644
0.119188
0.126316
0.13414
0.142795
0.152453
0.163321
0.175658
0.189765
0.205986
0.0171842
0.0380111
0.0488822
0.0567615
0.0632279
0.0688852
0.0740614
0.0789722
0.083778
0.0886077
0.0935721
0.0987714
0.104302
0.110263
0.11675
0.123871
0.13175
0.140521
0.150347
0.161421
0.173967
0.188237
0.204495
0.0170842
0.0378022
0.0485649
0.0563101
0.0626153
0.0680914
0.0730734
0.0777836
0.0823877
0.08702
0.091797
0.0968249
0.102207
0.108047
0.114454
0.121543
0.129441
0.13829
0.148245
0.159479
0.172182
0.186551
0.202771
0.017063
0.0377499
0.048433
0.0560578
0.0622087
0.0675067
0.0722952
0.0768031
0.081202
0.0856313
0.0902122
0.0950567
0.100273
0.105973
0.112272
0.119295
0.127175
0.136057
0.146096
0.157447
0.170266
0.184696
0.200842
0.0171144
0.0378437
0.0484756
0.0559942
0.0619984
0.0671217
0.0717171
0.0760209
0.08021
0.0844286
0.0888025
0.0934483
0.0984799
0.104014
0.110172
0.117089
0.124905
0.133769
0.143839
0.15526
0.168158
0.182626
0.198699
0.017232
0.0380721
0.0486809
0.0561084
0.0619743
0.0669271
0.0713304
0.0754277
0.0794016
0.0834007
0.0875544
0.0919832
0.0968055
0.102142
0.108123
0.114884
0.12258
0.131367
0.141402
0.152836
0.165772
0.180265
0.196287
0.017409
0.038425
0.0490389
0.0563914
0.0621288
0.0669164
0.0711289
0.0750175
0.0787705
0.0825401
0.086459
0.0906503
0.0952356
0.10034
0.106097
0.112651
0.12016
0.128792
0.138716
0.150085
0.163004
0.177499
0.193494
0.0176412
0.0388963
0.0495446
0.0568396
0.0624596
0.0670882
0.0711119
0.0747901
0.0783161
0.0818459
0.0855144
0.0894464
0.0937649
0.0985973
0.104081
0.110365
0.117614
0.126003
0.135717
0.146923
0.159741
0.174188
0.190164
0.017928
0.0394885
0.0502025
0.0574589
0.0629734
0.0674497
0.071287
0.0747529
0.0780461
0.0813257
0.0847282
0.0883787
0.0924
0.0969197
0.102076
0.108022
0.114928
0.122979
0.132367
0.143283
0.155876
0.170191
0.186111
0.0182774
0.040217
0.0510317
0.0582697
0.0636906
0.0680206
0.0716729
0.0749242
0.0779784
0.0809975
0.0841189
0.0874669
0.091162
0.0953291
0.100105
0.105642
0.112116
0.119719
0.128659
0.139142
0.151347
0.165383
0.181152
0.0187076
0.0411175
0.0520736
0.0593139
0.0646508
0.0688373
0.0723031
0.0753351
0.078143
0.0808915
0.0837178
0.086744
0.0900867
0.0938656
0.0982115
0.103274
0.109225
0.116266
0.124617
0.134508
0.14615
0.159691
0.175142
0.0192527
0.0422557
0.0534025
0.060664
0.0659198
0.0699578
0.073229
0.0760325
0.0785845
0.0810515
0.0835698
0.0862578
0.0892263
0.092587
0.0964617
0.100991
0.106341
0.11271
0.120329
0.129451
0.140325
0.153152
0.168021
0.019969
0.0437448
0.0551435
0.0624366
0.0675984
0.0714673
0.0745235
0.0770811
0.0793627
0.0815359
0.0837343
0.0860708
0.0886484
0.0915687
0.0949411
0.0988924
0.103576
0.109182
0.11594
0.124119
0.134007
0.145868
0.159875
0.0209498
0.045778
0.0574998
0.0648091
0.0698308
0.0734818
0.0762824
0.0785644
0.0805548
0.0824195
0.0842864
0.0862611
0.0884367
0.0909026
0.0937534
0.0970985
0.101072
0.105847
0.111642
0.118731
0.127431
0.138069
0.15091
0.02236
0.048691
0.0607933
0.0680362
0.0728077
0.0761467
0.0786235
0.0805843
0.0822551
0.083794
0.0853192
0.0869251
0.0886929
0.0906981
0.0930189
0.0957449
0.0989877
0.102895
0.107663
0.113558
0.120913
0.130115
0.141528
0.0245213
0.0530636
0.0654983
0.0724448
0.076751
0.0796237
0.0816777
0.083258
0.0845756
0.0857713
0.0869466
0.0881807
0.08954
0.0910847
0.092876
0.0949827
0.0974915
0.10052
0.104237
0.108883
0.114795
0.122417
0.132239
0.0281009
0.0597017
0.0721432
0.0783497
0.0818578
0.0840601
0.085576
0.0867141
0.0876481
0.0884878
0.0893103
0.0901746
0.0911296
0.0922194
0.0934873
0.094982
0.0967649
0.0989222
0.101584
0.104955
0.10936
0.115296
0.123442
0.0342517
0.0687554
0.080728
0.0858327
0.0882041
0.089549
0.0904369
0.0910937
0.0916306
0.092114
0.0925898
0.0930933
0.0936538
0.0942979
0.0950517
0.095944
0.0970112
0.0983061
0.0999133
0.101979
0.104772
0.108796
0.114988
0.0429504
0.0773616
0.0890337
0.0945849
0.0956955
0.0961206
0.0963758
0.0965655
0.0967245
0.0968715
0.0970197
0.0971798
0.0973612
0.0975725
0.0978223
0.0981204
0.0984785
0.0989141
0.0994565
0.100161
0.101146
0.102698
0.105634
0.0825628
0.0802511
0.0856923
0.101456
0.141439
0.147483
0.156836
0.170853
0.167353
0.174347
0.183584
0.196505
0.189063
0.196536
0.204991
0.21589
0.214215
0.222866
0.229219
0.23484
0.251153
0.266081
0.265785
0.259162
0.262839
0.274344
0.287511
0.283182
0.252531
0.261651
0.273508
0.286667
0.247574
0.256584
0.26845
0.283623
0.241279
0.250209
0.261144
0.274682
0.234798
0.243323
0.253211
0.264723
0.229065
0.237042
0.245978
0.255887
0.224649
0.232147
0.240391
0.249292
0.221715
0.228929
0.23679
0.245186
0.22016
0.227353
0.235163
0.243508
0.219702
0.227125
0.235188
0.243843
0.219981
0.227819
0.236347
0.245551
0.220641
0.228981
0.238071
0.247918
0.221366
0.230205
0.239841
0.250292
0.221906
0.231167
0.241248
0.25217
0.222081
0.231645
0.242021
0.253225
0.221792
0.231519
0.242021
0.253307
0.221009
0.230764
0.241234
0.252419
0.219764
0.229432
0.239739
0.250676
0.21813
0.227627
0.237678
0.248267
0.216195
0.225472
0.235218
0.245407
0.214035
0.22308
0.232512
0.242298
0.211685
0.220516
0.229662
0.239083
0.209117
0.217778
0.226693
0.235817
0.206233
0.214778
0.223533
0.232448
0.202869
0.211352
0.22002
0.228818
0.198815
0.207273
0.215913
0.224674
0.19384
0.202284
0.210927
0.219703
0.187738
0.196139
0.204774
0.213579
0.180378
0.18866
0.19723
0.206022
0.171761
0.1798
0.188196
0.196881
0.16209
0.169728
0.177791
0.186227
0.151772
0.158862
0.166435
0.174449
0.141412
0.147865
0.154852
0.162331
0.131605
0.1375
0.143989
0.150978
0.12229
0.128007
0.134635
0.14159
0.11081
0.11659
0.126915
0.135291
0.168806
0.256966
0.379519
0.56027
0.846414
1.16676
1.31665
1.07279
0.718155
0.559675
0.490724
0.479985
0.465701
0.423311
0.384841
0.343071
0.289502
0.220208
0.103297
0.204397
0.286819
0.408629
0.554939
0.755797
0.975788
1.06318
0.886891
0.66454
0.548157
0.499137
0.496784
0.465799
0.425339
0.387234
0.345241
0.292784
0.225498
0.106852
0.226021
0.314257
0.457167
0.588136
0.726177
0.847415
0.876419
0.754407
0.616094
0.547255
0.52243
0.512469
0.47263
0.432527
0.391347
0.3459
0.292613
0.226463
0.107658
0.240602
0.322487
0.460652
0.603382
0.698972
0.772451
0.761171
0.664871
0.585703
0.567753
0.574275
0.538237
0.491569
0.445663
0.397113
0.345702
0.28906
0.221469
0.10491
0.248728
0.306233
0.416909
0.563576
0.660136
0.716607
0.685584
0.604562
0.576886
0.608706
0.636418
0.571017
0.51613
0.461888
0.40398
0.345025
0.283337
0.21198
0.0981095
0.258614
0.290601
0.367138
0.487321
0.600672
0.659273
0.625857
0.5671
0.583109
0.670779
0.684402
0.597235
0.540431
0.479644
0.412371
0.345475
0.278529
0.202008
0.0901929
0.272996
0.285952
0.328878
0.404831
0.500948
0.568662
0.573408
0.547456
0.607818
0.736558
0.688805
0.617604
0.566616
0.501715
0.425569
0.352099
0.281787
0.197704
0.0847851
0.290855
0.293418
0.313865
0.354612
0.411835
0.468889
0.509592
0.549499
0.643583
0.752282
0.667325
0.63807
0.602138
0.535634
0.449866
0.368324
0.294672
0.202204
0.0849178
0.30682
0.312255
0.317976
0.337237
0.369449
0.409619
0.454802
0.53036
0.638198
0.656147
0.661891
0.680219
0.663225
0.591986
0.489026
0.388087
0.30191
0.212679
0.0886306
0.300162
0.330045
0.335053
0.342009
0.360462
0.389087
0.428832
0.490198
0.572489
0.634503
0.706117
0.770934
0.771707
0.680074
0.542028
0.410955
0.301091
0.213613
0.0819455
0.286555
0.322548
0.349276
0.35891
0.371437
0.395593
0.432826
0.490909
0.57858
0.692848
0.832652
0.940663
0.949947
0.799451
0.60991
0.443871
0.308892
0.205687
0.0827083
0.274136
0.305623
0.339646
0.369026
0.391152
0.421292
0.466968
0.541694
0.665047
0.853638
1.08866
1.21116
1.17345
0.931757
0.68443
0.478203
0.322819
0.21086
0.0906917
0.265223
0.291716
0.323308
0.359634
0.400715
0.45245
0.532407
0.650327
0.837496
1.13963
1.43922
1.4069
1.22174
1.00377
0.727336
0.493866
0.333004
0.218914
0.100854
0.260019
0.284066
0.314006
0.352593
0.405886
0.482784
0.600889
0.779961
1.04086
1.33244
1.42837
1.3279
1.14927
0.920115
0.677192
0.478556
0.339287
0.228965
0.112253
0.258271
0.282211
0.313089
0.356106
0.422215
0.531352
0.700555
0.915991
1.13717
1.27651
1.29955
1.23587
1.06377
0.84315
0.635341
0.471359
0.353283
0.245236
0.125903
0.259284
0.284708
0.318298
0.366734
0.442816
0.567439
0.74839
0.950622
1.10962
1.18902
1.22104
1.20761
1.0708
0.835286
0.64027
0.490769
0.383201
0.270347
0.140856
0.262107
0.289763
0.326558
0.379514
0.460682
0.586209
0.752993
0.923148
1.04171
1.10141
1.14157
1.14485
1.03851
0.832516
0.660976
0.523967
0.421057
0.300485
0.155912
0.265724
0.295643
0.335088
0.390442
0.471389
0.588083
0.732202
0.870613
0.963667
1.01344
1.04967
1.04577
0.947298
0.802263
0.666087
0.566103
0.456463
0.331305
0.170061
0.269227
0.300931
0.341892
0.397263
0.473817
0.576758
0.697426
0.809146
0.884938
0.928638
0.960325
0.959285
0.893931
0.788221
0.686626
0.60283
0.4849
0.358635
0.183238
0.271932
0.304671
0.345881
0.399333
0.469225
0.557345
0.656308
0.746851
0.810455
0.850778
0.881847
0.891529
0.86067
0.793475
0.716913
0.633274
0.509498
0.380076
0.194444
0.273429
0.306385
0.346721
0.396961
0.459405
0.534008
0.61458
0.687717
0.741797
0.780435
0.81369
0.835259
0.832101
0.799738
0.748961
0.662325
0.531274
0.396854
0.202414
0.273557
0.305986
0.344575
0.390857
0.445849
0.508587
0.574099
0.633477
0.680127
0.7177
0.753654
0.784823
0.801512
0.796065
0.772334
0.68913
0.550507
0.40986
0.20756
0.272364
0.30367
0.339912
0.3819
0.429863
0.482493
0.535992
0.584745
0.625588
0.662158
0.700063
0.737481
0.76687
0.781076
0.783312
0.711772
0.567758
0.419989
0.210052
0.270042
0.29981
0.333366
0.371027
0.412601
0.456794
0.500872
0.541555
0.577881
0.613371
0.652279
0.693286
0.730401
0.757816
0.77554
0.726562
0.585207
0.428302
0.210114
0.266876
0.294876
0.325633
0.359155
0.395076
0.432316
0.469063
0.503662
0.536488
0.570864
0.610095
0.653143
0.695137
0.730517
0.753871
0.724106
0.601225
0.436354
0.208425
0.263176
0.28935
0.317384
0.347111
0.378145
0.409705
0.440752
0.470739
0.50082
0.534068
0.57314
0.617217
0.662096
0.701722
0.726555
0.705377
0.606156
0.443372
0.206306
0.259231
0.283667
0.309203
0.335586
0.362492
0.389455
0.41605
0.442484
0.47033
0.502385
0.540808
0.584817
0.63039
0.670835
0.694699
0.678531
0.59737
0.445172
0.203515
0.255262
0.278165
0.301537
0.325093
0.348607
0.371896
0.395005
0.41864
0.444566
0.47529
0.512506
0.555239
0.599315
0.637672
0.659001
0.645918
0.579698
0.439919
0.199356
0.25138
0.273044
0.294662
0.315948
0.336772
0.357186
0.377578
0.398963
0.423166
0.452385
0.487846
0.52821
0.568999
0.603223
0.620884
0.609473
0.555023
0.427785
0.196555
0.247571
0.268344
0.288668
0.308252
0.327053
0.345296
0.363604
0.383167
0.405776
0.433321
0.466573
0.503792
0.540287
0.569405
0.583073
0.572286
0.526033
0.411921
0.200992
0.243687
0.263938
0.283443
0.301894
0.3193
0.336003
0.352766
0.370854
0.39196
0.417671
0.448341
0.481869
0.513527
0.537466
0.547607
0.537449
0.498884
0.393867
0.195747
0.239458
0.259544
0.27869
0.296552
0.313152
0.328886
0.344576
0.361478
0.381134
0.40484
0.432573
0.461938
0.48838
0.507134
0.513753
0.503709
0.4723
0.376634
0.184706
0.234528
0.254749
0.273949
0.291722
0.308054
0.323336
0.338374
0.354337
0.372576
0.394091
0.418555
0.443396
0.464384
0.477869
0.480677
0.471489
0.447372
0.363452
0.174382
0.228501
0.249063
0.268645
0.286749
0.303288
0.318583
0.333351
0.348616
0.365487
0.384676
0.405644
0.425803
0.441371
0.449566
0.449615
0.442548
0.424862
0.35196
0.164982
0.221009
0.241991
0.262159
0.280904
0.298027
0.313732
0.328592
0.343435
0.359093
0.375994
0.39346
0.409063
0.419358
0.422873
0.421145
0.415425
0.401577
0.337345
0.155299
0.211802
0.233128
0.25393
0.273475
0.291426
0.307841
0.323114
0.337851
0.352611
0.367544
0.381805
0.393016
0.398465
0.398195
0.393732
0.386616
0.370981
0.316605
0.152834
0.200859
0.222293
0.243601
0.263927
0.282778
0.300045
0.315934
0.330837
0.345068
0.358523
0.370095
0.377458
0.378855
0.37465
0.365974
0.353871
0.33376
0.291624
0.160369
0.188518
0.20969
0.231209
0.25211
0.271741
0.289805
0.306313
0.321448
0.335316
0.347595
0.357082
0.361556
0.359412
0.35082
0.337131
0.31968
0.296689
0.259578
0.156999
0.175598
0.196088
0.217408
0.238529
0.258648
0.27727
0.294194
0.309385
0.322757
0.333833
0.341402
0.343361
0.337585
0.324021
0.305225
0.283347
0.25797
0.222735
0.141794
0.163425
0.182927
0.203645
0.224579
0.244809
0.263648
0.280669
0.295616
0.308204
0.317824
0.323209
0.322152
0.311619
0.290772
0.266291
0.240909
0.214031
0.18145
0.12217
0.15364
0.172172
0.19208
0.212523
0.232534
0.251274
0.268114
0.282581
0.294192
0.302173
0.305064
0.300047
0.281816
0.244868
0.213713
0.188514
0.165677
0.141629
0.0997014
0.147903
0.165878
0.185111
0.205019
0.224666
0.243146
0.25972
0.273779
0.284689
0.291478
0.292273
0.282906
0.252532
0.16489
0.138434
0.127947
0.120262
0.110862
0.0865483
)
;

boundaryField
{
    leftWall
    {
        type            kqRWallFunction;
        value           nonuniform List<scalar> 
50
(
0.0037732
0.00593893
0.00687127
0.00713522
0.0070289
0.00699385
0.00709939
0.00758938
0.0100254
0.0150587
0.0200807
0.0230738
0.0237228
0.0240106
0.0240034
0.0240068
0.0239533
0.0238179
0.0236029
0.0233147
0.0229475
0.0224894
0.0219531
0.0213603
0.0207363
0.0201072
0.0194987
0.0189323
0.0184249
0.0179899
0.017636
0.0173672
0.0171842
0.0170842
0.017063
0.0171144
0.017232
0.017409
0.0176412
0.017928
0.0182774
0.0187076
0.0192527
0.019969
0.0209498
0.02236
0.0245213
0.0281009
0.0342517
0.0429504
)
;
    }
    rightWall
    {
        type            kqRWallFunction;
        value           nonuniform List<scalar> 
50
(
0.030696
0.0529371
0.0685394
0.0786024
0.0858801
0.0915856
0.0962358
0.100038
0.103297
0.106852
0.107658
0.10491
0.0981095
0.0901929
0.0847851
0.0849178
0.0886306
0.0819455
0.0827083
0.0906917
0.100854
0.112253
0.125903
0.140856
0.155912
0.170061
0.183238
0.194444
0.202414
0.20756
0.210052
0.210114
0.208425
0.206306
0.203515
0.199356
0.196555
0.200992
0.195747
0.184706
0.174382
0.164982
0.155299
0.152834
0.160369
0.156999
0.141794
0.12217
0.0997014
0.0865483
)
;
    }
    lowerWall
    {
        type            kqRWallFunction;
        value           nonuniform List<scalar> 
62
(
0.0037732
0.00605509
0.00857996
0.0108145
0.0126513
0.0142058
0.015594
0.016894
0.0181419
0.0193186
0.020398
0.0213417
0.0221016
0.0226218
0.0228331
0.0226577
0.0220174
0.0208452
0.0191303
0.0169792
0.0146337
0.0121373
0.00846341
0.00846341
0.0156174
0.020335
0.025117
0.0306331
0.0382346
0.0506258
0.0717609
0.0825628
0.0802511
0.0856923
0.101456
0.248817
0.517302
0.591315
0.529294
0.46332
0.374289
0.267246
0.170415
0.248817
0.425914
0.516126
0.4852
0.372166
0.258317
0.195949
0.167501
0.155576
0.151507
0.151102
0.152576
0.154483
0.154143
0.146724
0.129546
0.104753
0.0710314
0.030696
)
;
    }
    atmosphere
    {
        type            inletOutlet;
        inletValue      uniform 0.1;
        value           nonuniform List<scalar> 
46
(
0.0429504
0.0773616
0.0890337
0.1
0.1
0.1
0.1
0.1
0.1
0.1
0.1
0.1
0.1
0.1
0.1
0.1
0.1
0.1
0.1
0.1
0.1
0.1
0.1
0.1
0.1
0.126915
0.135291
0.147903
0.165878
0.185111
0.205019
0.224666
0.243146
0.25972
0.273779
0.284689
0.291478
0.292273
0.282906
0.252532
0.1
0.1
0.1
0.1
0.1
0.0865483
)
;
    }
    defaultFaces
    {
        type            empty;
    }
}


// ************************************************************************* //
