/*--------------------------------*- C++ -*----------------------------------*\
  =========                 |
  \\      /  F ield         | OpenFOAM: The Open Source CFD Toolbox
   \\    /   O peration     | Website:  https://openfoam.org
    \\  /    A nd           | Version:  9
     \\/     M anipulation  |
\*---------------------------------------------------------------------------*/
FoamFile
{
    format      ascii;
    class       volScalarField;
    location    "0.7";
    object      k;
}
// * * * * * * * * * * * * * * * * * * * * * * * * * * * * * * * * * * * * * //

dimensions      [0 2 -2 0 0 0 0];

internalField   nonuniform List<scalar> 
2268
(
0.0102948
0.0119331
0.0152879
0.0184983
0.0212353
0.0234104
0.0251941
0.0266989
0.0279554
0.0290632
0.0300949
0.0310855
0.0320209
0.0328347
0.0333908
0.0334729
0.0328023
0.0310907
0.0280788
0.024218
0.0195661
0.0140417
0.0107966
0.0137623
0.0264419
0.0350949
0.0419261
0.0475967
0.0520378
0.0553739
0.057932
0.059965
0.0616627
0.063143
0.0644458
0.0655198
0.0662073
0.0662185
0.0651311
0.0624593
0.0578269
0.0512449
0.042412
0.0328279
0.0244549
0.0145236
0.0179982
0.0363179
0.0472849
0.0556168
0.0622529
0.0673421
0.0711246
0.0739846
0.0762224
0.0780569
0.0796193
0.0809447
0.0819556
0.0824387
0.0820177
0.0801566
0.0762673
0.0699836
0.0614997
0.051246
0.0400818
0.0297756
0.0170939
0.0218895
0.0446593
0.056995
0.0661403
0.0732594
0.0786407
0.082595
0.0855265
0.0877617
0.0895362
0.0909826
0.0921299
0.0928788
0.0929745
0.0919791
0.0892779
0.0842178
0.0764573
0.0663943
0.0549416
0.0430339
0.0318839
0.0181324
0.0256018
0.0520048
0.0654322
0.07511
0.0825132
0.0880527
0.0920659
0.0949565
0.0970714
0.0986511
0.0998332
0.10064
0.100955
0.100491
0.098771
0.0951274
0.0888757
0.0797075
0.0681998
0.0556618
0.0432783
0.0318392
0.0180504
0.0290007
0.0586065
0.0730245
0.083116
0.0907089
0.0963232
0.10032
0.10309
0.104997
0.106282
0.10708
0.107407
0.107135
0.105963
0.103387
0.0987168
0.0912797
0.0808103
0.0680129
0.05451
0.0418238
0.0304558
0.0171651
0.0320667
0.0646604
0.0800146
0.0904604
0.0981805
0.103806
0.107729
0.11031
0.111939
0.112848
0.113168
0.112907
0.111927
0.109919
0.106382
0.100653
0.0921006
0.0805392
0.0667502
0.0525017
0.0396952
0.0285925
0.0159914
0.0349477
0.0702911
0.0865467
0.0973169
0.105121
0.110706
0.114494
0.116843
0.118135
0.118605
0.118376
0.117453
0.115692
0.112783
0.108242
0.101454
0.0918825
0.079496
0.0652354
0.0509311
0.0385251
0.0279631
0.0161767
0.0103307
0.0115834
0.0141156
0.015413
0.0165311
0.0174779
0.0182214
0.0187695
0.019141
0.0193534
0.0194274
0.0193928
0.0192144
0.0188173
0.0181109
0.0169033
0.0148918
0.0115236
0.00483864
0.0145863
0.0299319
0.0323226
0.0311331
0.0301051
0.0295893
0.0294159
0.029439
0.029587
0.0298209
0.0301221
0.0304775
0.0308617
0.0312191
0.0313546
0.0307683
0.0284748
0.022699
0.0082307
0.0228359
0.0417469
0.0434177
0.0411207
0.0392548
0.0381415
0.0374964
0.0371513
0.037032
0.0371026
0.0373469
0.037759
0.0383449
0.0390192
0.0395223
0.0391934
0.036817
0.0306126
0.0148333
0.029646
0.0512038
0.0522116
0.0494385
0.0469423
0.0452022
0.0440076
0.0432381
0.0428283
0.042743
0.0429723
0.043528
0.0444588
0.0457085
0.0470564
0.0477669
0.0462112
0.0405398
0.0254839
0.0358046
0.0595667
0.0597402
0.0566222
0.0535732
0.0512755
0.0496059
0.0484878
0.0478694
0.0477298
0.0480911
0.0490357
0.0507842
0.053527
0.0573668
0.061432
0.0621892
0.0557484
0.0388331
0.0417964
0.0674331
0.0663782
0.0628828
0.0593794
0.0566509
0.0546252
0.0532608
0.0525372
0.0524836
0.053225
0.0550607
0.0586847
0.0649502
0.0745233
0.0853923
0.0889454
0.077597
0.0524028
0.0479131
0.0749207
0.0721973
0.0682817
0.0644756
0.0614725
0.0592218
0.057722
0.0570167
0.0572519
0.0587945
0.0624484
0.0698573
0.0828118
0.101598
0.120325
0.123328
0.105783
0.0648447
0.0547811
0.081586
0.0770765
0.07281
0.0689155
0.0658117
0.0634738
0.0619634
0.0614393
0.0622672
0.0652691
0.0721655
0.0861292
0.108831
0.136871
0.15837
0.15528
0.138785
0.0760732
0.0388244
0.0785482
0.096196
0.107449
0.115332
0.120784
0.124281
0.12618
0.126813
0.126472
0.125276
0.123231
0.120203
0.115914
0.109939
0.101788
0.0911277
0.0782185
0.0643277
0.0515493
0.041928
0.0348293
0.0298133
0.043779
0.0883642
0.107785
0.119649
0.127564
0.132717
0.135683
0.136855
0.136536
0.134985
0.132421
0.128885
0.124322
0.11858
0.111448
0.10277
0.0926501
0.0817707
0.071557
0.0637561
0.0589489
0.0579395
0.0613884
0.0485045
0.0974483
0.118498
0.130876
0.138688
0.143362
0.145599
0.145856
0.144485
0.141767
0.137911
0.133084
0.127369
0.120802
0.113428
0.105395
0.0970432
0.0889508
0.0817833
0.076035
0.0723695
0.0713934
0.0730065
0.0530954
0.106001
0.128494
0.141256
0.148833
0.15288
0.154242
0.153464
0.150966
0.147095
0.142135
0.136331
0.129887
0.123005
0.115908
0.108865
0.102164
0.0960418
0.0906822
0.0863033
0.083276
0.082009
0.0825889
0.0575673
0.114064
0.137817
0.150837
0.158068
0.161387
0.16179
0.15993
0.156314
0.151365
0.145451
0.138898
0.132005
0.125052
0.118312
0.112029
0.106391
0.101497
0.0973766
0.0940568
0.0916329
0.0902242
0.0897796
0.061893
0.121636
0.146483
0.159648
0.166453
0.168991
0.168409
0.165482
0.16081
0.154897
0.148183
0.141057
0.133866
0.126917
0.120465
0.1147
0.109727
0.105561
0.10215
0.0994131
0.0972847
0.0957089
0.0945887
0.0660503
0.128709
0.154501
0.167725
0.174059
0.175802
0.174258
0.170321
0.164686
0.15793
0.150551
0.142976
0.135571
0.128631
0.122377
0.116945
0.112379
0.108639
0.105624
0.103199
0.101227
0.0995916
0.0981985
0.0700279
0.135286
0.161899
0.175119
0.180965
0.181937
0.179486
0.174623
0.16813
0.160648
0.152714
0.144775
0.137195
0.130246
0.124113
0.118885
0.114565
0.111081
0.108303
0.106076
0.104237
0.102653
0.101234
0.0738257
0.141387
0.168714
0.181892
0.18726
0.187508
0.184229
0.178539
0.171296
0.163193
0.154794
0.146551
0.138815
0.131834
0.125758
0.120644
0.116467
0.113136
0.110512
0.108432
0.106731
0.105271
0.103966
0.0774526
0.147044
0.174998
0.188114
0.193034
0.192625
0.188609
0.182198
0.174314
0.165687
0.156898
0.148396
0.140516
0.13348
0.127412
0.122346
0.11824
0.114994
0.112468
0.110503
0.108937
0.107639
0.10653
0.0809239
0.152297
0.180808
0.193861
0.198376
0.197389
0.192737
0.185714
0.177294
0.168236
0.159127
0.150407
0.142394
0.135289
0.129194
0.124127
0.120036
0.11682
0.114344
0.112458
0.111013
0.109887
0.109017
0.0842586
0.157193
0.186206
0.199203
0.20337
0.20189
0.196708
0.189185
0.180337
0.170941
0.161581
0.152691
0.144565
0.137389
0.131246
0.126142
0.122022
0.118788
0.116312
0.114459
0.1131
0.11213
0.111508
0.0874775
0.161779
0.191252
0.20421
0.208087
0.206206
0.200602
0.192695
0.183532
0.173897
0.16437
0.155367
0.147167
0.139935
0.133741
0.128582
0.1244
0.121101
0.118573
0.116696
0.115364
0.114503
0.114103
0.0906022
0.1661
0.195998
0.208939
0.212588
0.210399
0.204488
0.196319
0.186962
0.177201
0.167607
0.158575
0.150364
0.14312
0.136899
0.131688
0.127428
0.12403
0.121393
0.119422
0.118038
0.117203
0.116951
0.0936539
0.170198
0.200492
0.213437
0.216921
0.214519
0.208417
0.200119
0.190705
0.180954
0.17142
0.162476
0.154356
0.147184
0.140998
0.135776
0.131451
0.127939
0.12515
0.123008
0.121469
0.120538
0.120305
0.0966529
0.174109
0.204772
0.21774
0.221121
0.218602
0.212433
0.204149
0.194834
0.185258
0.175949
0.167254
0.159379
0.152419
0.146391
0.141253
0.136929
0.133332
0.130377
0.128006
0.126202
0.125018
0.124612
0.0996189
0.177865
0.208869
0.221877
0.225213
0.222675
0.216571
0.208461
0.199427
0.190223
0.181351
0.173123
0.165711
0.159177
0.153506
0.14863
0.144455
0.140879
0.137814
0.135205
0.133058
0.131464
0.130644
0.102571
0.181496
0.212808
0.22587
0.229218
0.226763
0.220868
0.213109
0.204568
0.195975
0.187799
0.180319
0.173663
0.167855
0.162837
0.158508
0.15474
0.151405
0.148399
0.145656
0.143184
0.141089
0.139639
0.105527
0.185031
0.216619
0.229744
0.233166
0.230903
0.225373
0.218167
0.210359
0.202653
0.195485
0.189093
0.183561
0.178863
0.174895
0.171507
0.168528
0.165792
0.163161
0.160546
0.157932
0.155416
0.153265
0.108508
0.188506
0.220337
0.23354
0.237103
0.235156
0.230166
0.223738
0.216931
0.210423
0.204614
0.199695
0.195705
0.192565
0.190115
0.188147
0.186437
0.184768
0.18296
0.180887
0.178499
0.175855
0.173185
0.111539
0.191972
0.224022
0.237328
0.241114
0.239626
0.235376
0.229975
0.224463
0.219485
0.2154
0.212355
0.210336
0.209207
0.208748
0.208689
0.208745
0.208645
0.208157
0.207111
0.205413
0.203076
0.200269
0.114651
0.195503
0.227767
0.241224
0.245346
0.24449
0.241208
0.237104
0.233192
0.230076
0.228068
0.227262
0.22759
0.228857
0.230781
0.233029
0.235257
0.237139
0.238394
0.238803
0.238224
0.236615
0.234075
0.117884
0.199215
0.231722
0.245419
0.250029
0.250019
0.247963
0.245447
0.243439
0.24249
0.242855
0.244571
0.247506
0.251407
0.255934
0.260701
0.265314
0.269402
0.27264
0.274767
0.275592
0.275006
0.273026
0.121294
0.203282
0.23612
0.250202
0.255512
0.256611
0.256074
0.255443
0.255622
0.257091
0.260035
0.264421
0.270055
0.276627
0.283749
0.291001
0.297958
0.304222
0.309444
0.313333
0.315651
0.316221
0.314958
0.124965
0.207969
0.241304
0.256
0.262296
0.264824
0.26613
0.267679
0.270288
0.274345
0.279948
0.28699
0.295213
0.304259
0.313715
0.32315
0.332141
0.34029
0.347242
0.3527
0.356399
0.358095
0.35759
0.129027
0.213658
0.247773
0.263416
0.271073
0.275411
0.278908
0.28292
0.288145
0.294858
0.303056
0.312552
0.323039
0.334119
0.345387
0.35644
0.366893
0.376392
0.384576
0.391185
0.39595
0.398583
0.398782
0.133673
0.220903
0.256219
0.273263
0.28275
0.28934
0.295399
0.302137
0.310099
0.319422
0.32998
0.341517
0.35373
0.366149
0.378441
0.390282
0.401363
0.411401
0.42013
0.427313
0.432696
0.435965
0.436729
0.139165
0.230462
0.267553
0.286567
0.298435
0.307775
0.316797
0.326511
0.337262
0.349023
0.361518
0.374385
0.387352
0.40011
0.412408
0.424027
0.434773
0.444463
0.452925
0.45998
0.465408
0.468898
0.46999
0.14581
0.243265
0.282828
0.304429
0.319282
0.331938
0.344383
0.357332
0.370864
0.384535
0.398108
0.411307
0.423926
0.435823
0.44691
0.457132
0.466439
0.474778
0.482076
0.488225
0.493055
0.49628
0.497398
0.153825
0.260133
0.302877
0.327593
0.346038
0.362671
0.379127
0.395587
0.411409
0.426284
0.439939
0.45222
0.463118
0.472734
0.481228
0.488759
0.495459
0.50141
0.506641
0.511113
0.514706
0.517171
0.517995
0.162887
0.280835
0.327419
0.355474
0.378078
0.399509
0.420737
0.440548
0.458266
0.473468
0.485982
0.495899
0.503536
0.509354
0.513843
0.517428
0.520433
0.523079
0.525475
0.527628
0.529452
0.530741
0.530992
0.171161
0.30198
0.353303
0.384549
0.411919
0.439235
0.465512
0.488723
0.507834
0.522391
0.532509
0.538691
0.541707
0.542473
0.541877
0.540633
0.539247
0.538041
0.537174
0.536662
0.536422
0.536288
0.535797
0.174098
0.31623
0.372392
0.407018
0.440059
0.473828
0.505105
0.531501
0.551335
0.564343
0.571207
0.572999
0.570981
0.566489
0.560777
0.554804
0.54919
0.544311
0.540337
0.537266
0.535
0.533419
0.532145
0.168737
0.310574
0.37492
0.413377
0.45242
0.491034
0.526092
0.554242
0.573374
0.584087
0.588013
0.586711
0.581588
0.573967
0.565183
0.55631
0.547981
0.540591
0.53435
0.529283
0.525327
0.52244
0.520402
0.159621
0.283114
0.356649
0.398156
0.441092
0.480589
0.513928
0.538283
0.5546
0.564029
0.568337
0.568584
0.56545
0.559753
0.552404
0.544268
0.535908
0.527826
0.520463
0.514085
0.508814
0.504763
0.501935
0.147839
0.261011
0.329573
0.371679
0.412326
0.441894
0.461985
0.479474
0.494787
0.50718
0.517216
0.524631
0.528723
0.529573
0.527817
0.523502
0.517078
0.509405
0.501463
0.494037
0.487627
0.482567
0.479007
0.134574
0.258143
0.328593
0.36305
0.377478
0.384754
0.394503
0.411534
0.431763
0.450537
0.467835
0.483373
0.494364
0.500113
0.501814
0.49983
0.494349
0.486435
0.477638
0.469305
0.462193
0.45669
0.452896
0.122261
0.277533
0.372921
0.394547
0.380584
0.370445
0.378927
0.399819
0.420642
0.432682
0.443099
0.455258
0.46339
0.46575
0.465761
0.464239
0.460178
0.453367
0.44505
0.437308
0.431196
0.426919
0.424307
0.0985363
0.249864
0.317783
0.303764
0.295168
0.316109
0.355919
0.385942
0.397946
0.396658
0.394999
0.401257
0.408877
0.41386
0.416075
0.416468
0.414054
0.408652
0.402658
0.397923
0.394787
0.393226
0.392982
0.0717604
0.160923
0.196327
0.204253
0.21078
0.241592
0.276242
0.296028
0.308761
0.320474
0.336256
0.352316
0.36363
0.369147
0.370439
0.369079
0.366887
0.364235
0.362415
0.361624
0.362003
0.363367
0.365854
0.0661852
0.140773
0.236411
0.236349
0.200592
0.208723
0.229991
0.239442
0.253563
0.280316
0.319574
0.345004
0.351741
0.345126
0.342656
0.336252
0.336504
0.335222
0.338488
0.341094
0.345646
0.349438
0.355665
0.0895593
0.172911
0.175372
0.153792
0.143301
0.162068
0.193401
0.200789
0.234971
0.271945
0.274626
0.287557
0.263264
0.274728
0.277737
0.291845
0.306321
0.31496
0.329341
0.339057
0.353147
0.355659
0.36521
0.0409919
0.0499893
0.0588342
0.0660159
0.0675902
0.0696499
0.0725639
0.0768974
0.0763579
0.0785722
0.0811678
0.0837267
0.0843657
0.0854628
0.0864639
0.0872533
0.0899136
0.0899889
0.0900232
0.0900065
0.0938513
0.0934329
0.0930472
0.0927035
0.0971324
0.0965258
0.0959874
0.0955404
0.100123
0.0994971
0.0989648
0.0985642
0.10297
0.102433
0.102021
0.101791
0.105752
0.105384
0.105184
0.105233
0.108527
0.108383
0.108469
0.108884
0.111343
0.111461
0.111879
0.112718
0.114264
0.114653
0.115418
0.116696
0.117393
0.118029
0.119117
0.120799
0.120922
0.121737
0.123078
0.125082
0.12522
0.126094
0.127561
0.129751
0.130979
0.131729
0.133127
0.1353
0.139399
0.139794
0.140865
0.142738
0.152238
0.152078
0.152557
0.153815
0.171398
0.17063
0.170386
0.170816
0.197986
0.19674
0.195857
0.195484
0.231617
0.230094
0.228774
0.227798
0.270619
0.268973
0.267385
0.266005
0.312718
0.311032
0.309271
0.307604
0.355568
0.35388
0.351991
0.350095
0.397009
0.395339
0.393345
0.39124
0.435204
0.43357
0.431496
0.429208
0.468663
0.467064
0.464931
0.462493
0.496183
0.494606
0.492428
0.489878
0.516796
0.515216
0.513005
0.510385
0.529731
0.528133
0.525906
0.523266
0.534448
0.532842
0.530634
0.528038
0.53074
0.52917
0.527036
0.524571
0.518976
0.517491
0.515506
0.513289
0.500424
0.499039
0.497293
0.495464
0.477303
0.47601
0.474606
0.473306
0.451332
0.450411
0.449624
0.448973
0.423371
0.422944
0.422775
0.422926
0.393416
0.39395
0.394655
0.395574
0.368363
0.370755
0.37338
0.375936
0.36227
0.369403
0.378012
0.384474
0.39536
0.414955
0.468971
0.468265
0.0713391
0.0874654
0.0827772
0.0785609
0.0749214
0.0719394
0.0696915
0.0684037
0.0685301
0.0710028
0.0777403
0.0922824
0.118502
0.153059
0.184235
0.198755
0.187807
0.176932
0.0869318
0.0821008
0.0875763
0.0852075
0.0824149
0.0798705
0.077739
0.0763814
0.0765381
0.0796415
0.0883819
0.107264
0.142068
0.188549
0.230898
0.252793
0.255629
0.238552
0.222666
0.103928
0.0859359
0.0874857
0.0864424
0.0850328
0.0837516
0.0829851
0.0835992
0.0873613
0.0975526
0.119499
0.15992
0.218356
0.274758
0.309898
0.320912
0.315542
0.288381
0.255177
0.11829
0.0879034
0.0883172
0.0879567
0.0876061
0.0877295
0.0891269
0.0935988
0.104664
0.128111
0.171148
0.237678
0.308227
0.36029
0.38651
0.392696
0.380495
0.338754
0.283707
0.131757
0.0899583
0.0899674
0.0901031
0.090832
0.0929013
0.0979297
0.109268
0.13271
0.175884
0.244112
0.326936
0.396589
0.441143
0.463094
0.466101
0.444764
0.387147
0.313592
0.144704
0.0923676
0.0923409
0.0930987
0.0953181
0.100414
0.111326
0.1334
0.174248
0.240348
0.328912
0.414448
0.478574
0.518538
0.536984
0.532513
0.498654
0.431305
0.344232
0.157526
0.0951532
0.095418
0.0971778
0.101663
0.111346
0.130833
0.16721
0.227895
0.313762
0.411305
0.49392
0.553272
0.589039
0.600722
0.585752
0.542778
0.472811
0.373992
0.170278
0.0983194
0.0992316
0.102554
0.110322
0.126309
0.156684
0.209146
0.2882
0.387211
0.484511
0.562772
0.617549
0.647437
0.651242
0.629227
0.582619
0.513061
0.402011
0.183417
0.101873
0.103819
0.109329
0.121377
0.144984
0.187265
0.254891
0.347378
0.451427
0.545312
0.618923
0.66867
0.692883
0.691454
0.666675
0.620141
0.552039
0.428579
0.195588
0.105813
0.109153
0.117375
0.134335
0.165948
0.219376
0.298878
0.398787
0.502468
0.592154
0.661386
0.707052
0.727725
0.724279
0.700582
0.65725
0.590366
0.454169
0.205758
0.110097
0.115087
0.126267
0.148141
0.187006
0.249283
0.336302
0.438622
0.539246
0.624838
0.690899
0.734607
0.754127
0.7515
0.732473
0.695536
0.628291
0.477485
0.21421
0.114643
0.121359
0.13536
0.161462
0.205872
0.273845
0.364145
0.465421
0.561926
0.644217
0.709165
0.753262
0.773367
0.773356
0.762196
0.733459
0.66345
0.497436
0.221322
0.119338
0.127656
0.143978
0.173093
0.220788
0.291121
0.381139
0.479131
0.571271
0.651596
0.717839
0.764159
0.78536
0.788294
0.786963
0.766285
0.689909
0.511616
0.226008
0.12409
0.133718
0.151626
0.182285
0.230873
0.30046
0.387298
0.480355
0.568511
0.648656
0.717419
0.766659
0.788414
0.793828
0.803682
0.790125
0.700654
0.515607
0.226389
0.12889
0.139436
0.15813
0.188902
0.236209
0.302418
0.383821
0.470945
0.555996
0.637593
0.709485
0.761425
0.782208
0.79025
0.815111
0.807165
0.691121
0.507385
0.222639
0.13388
0.144913
0.163674
0.193406
0.237775
0.298702
0.373188
0.454026
0.53729
0.622019
0.699488
0.753489
0.771434
0.78455
0.830191
0.82212
0.673834
0.494269
0.21759
0.139474
0.150515
0.168761
0.196716
0.237252
0.292121
0.359547
0.434378
0.517474
0.606699
0.690691
0.746175
0.762591
0.783844
0.846628
0.828466
0.663427
0.484229
0.212732
0.146568
0.157019
0.174209
0.200031
0.236779
0.286831
0.346825
0.415837
0.500866
0.596671
0.68506
0.7405
0.757725
0.786805
0.855198
0.8225
0.653212
0.475062
0.208265
0.156814
0.165878
0.181334
0.204808
0.238724
0.283926
0.337199
0.403716
0.492374
0.595179
0.685768
0.737798
0.755176
0.787041
0.850207
0.804132
0.639349
0.464804
0.203991
0.172557
0.179377
0.192204
0.212842
0.244209
0.285633
0.335711
0.403049
0.496722
0.603427
0.693905
0.738574
0.752801
0.780952
0.832518
0.776359
0.619743
0.452262
0.199244
0.19585
0.199964
0.209421
0.226551
0.255074
0.29544
0.346559
0.417253
0.514762
0.620287
0.704075
0.740154
0.748696
0.769682
0.807354
0.741726
0.595396
0.437502
0.193629
0.226999
0.228634
0.234755
0.248293
0.273948
0.313701
0.368346
0.443801
0.540738
0.640217
0.710561
0.7381
0.740691
0.755369
0.779033
0.703375
0.569727
0.421526
0.187705
0.264336
0.264088
0.267606
0.278147
0.299852
0.336864
0.391985
0.469198
0.561767
0.649199
0.70775
0.7295
0.728106
0.739297
0.750874
0.667511
0.545943
0.406027
0.182353
0.305265
0.303628
0.305234
0.312565
0.329956
0.361802
0.411824
0.482063
0.564877
0.641786
0.694421
0.714093
0.712647
0.72301
0.724086
0.637378
0.526005
0.392794
0.178196
0.34718
0.344396
0.344119
0.348524
0.361367
0.386898
0.428675
0.48782
0.558418
0.626334
0.675136
0.695773
0.697329
0.708414
0.699722
0.613763
0.510877
0.38308
0.175804
0.387815
0.384017
0.381946
0.383572
0.392076
0.41126
0.444426
0.492655
0.551833
0.611097
0.65638
0.678673
0.68433
0.696607
0.679787
0.597455
0.500901
0.37738
0.17542
0.425325
0.420585
0.416971
0.416144
0.420794
0.434287
0.459758
0.498547
0.547907
0.599389
0.641077
0.664573
0.674384
0.688277
0.666399
0.588016
0.495838
0.375621
0.177007
0.458224
0.452739
0.447931
0.445157
0.446688
0.455515
0.474642
0.505689
0.546893
0.591543
0.629541
0.653505
0.667097
0.683845
0.659389
0.584128
0.495013
0.37744
0.180406
0.48532
0.479377
0.47381
0.469728
0.469027
0.474349
0.488538
0.513412
0.547924
0.586659
0.621022
0.644766
0.661474
0.682263
0.657609
0.584453
0.497576
0.382437
0.185468
0.505653
0.499569
0.49373
0.489036
0.487032
0.490004
0.500577
0.52066
0.549762
0.583523
0.614603
0.637689
0.656626
0.68231
0.659592
0.587502
0.50259
0.390259
0.192082
0.518488
0.51254
0.506954
0.502326
0.499899
0.501588
0.509731
0.526237
0.551083
0.580885
0.609426
0.631969
0.652175
0.681834
0.663231
0.591611
0.509046
0.400459
0.200179
0.523367
0.517848
0.512939
0.508989
0.50691
0.508236
0.514966
0.528925
0.550517
0.57736
0.604426
0.627431
0.648744
0.67902
0.664688
0.594695
0.51593
0.412353
0.209784
0.520207
0.515427
0.51152
0.508696
0.50758
0.509275
0.51539
0.527586
0.54663
0.571197
0.597776
0.623201
0.647822
0.675893
0.661636
0.595102
0.522449
0.425116
0.22127
0.509492
0.505781
0.503159
0.501696
0.501858
0.504436
0.510477
0.521364
0.538099
0.560416
0.5869
0.617176
0.650176
0.674708
0.656734
0.594379
0.528676
0.43833
0.235464
0.49254
0.490209
0.489041
0.489047
0.490596
0.49417
0.5004
0.510073
0.524286
0.543906
0.570483
0.608057
0.656576
0.682064
0.654736
0.593922
0.535767
0.453606
0.249845
0.471499
0.470773
0.47106
0.472468
0.475368
0.479906
0.486072
0.494455
0.506105
0.523617
0.552803
0.600122
0.668603
0.697764
0.647953
0.591328
0.543625
0.47075
0.263392
0.448157
0.448279
0.449487
0.451864
0.45563
0.460594
0.466541
0.474071
0.485151
0.504904
0.542931
0.600169
0.658327
0.664745
0.616316
0.582543
0.551007
0.487904
0.27455
0.423929
0.425936
0.427805
0.429613
0.43204
0.43505
0.438565
0.443826
0.453621
0.4732
0.512682
0.564336
0.584742
0.586716
0.577863
0.571294
0.556545
0.500752
0.280783
0.397568
0.40028
0.402556
0.404389
0.406223
0.408331
0.410658
0.413782
0.419274
0.430584
0.452462
0.482673
0.508071
0.529255
0.548117
0.563547
0.558507
0.503612
0.278623
0.379864
0.383284
0.385822
0.388248
0.390226
0.392252
0.394229
0.396411
0.39883
0.404165
0.41559
0.435418
0.461045
0.494995
0.532478
0.563396
0.553377
0.490791
0.260684
0.390734
0.393745
0.395243
0.400305
0.401879
0.40401
0.406011
0.409056
0.406566
0.406654
0.410069
0.426598
0.444414
0.489247
0.534244
0.580773
0.52466
0.451187
0.210878
0.443933
0.453933
0.449836
0.489107
0.474238
0.479857
0.471977
0.503066
0.468506
0.446198
0.446115
0.434475
0.418702
0.435328
0.4378
0.461045
0.341169
0.267698
0.131727
)
;

boundaryField
{
    leftWall
    {
        type            kqRWallFunction;
        value           nonuniform List<scalar> 
50
(
0.0102948
0.0137623
0.0179982
0.0218895
0.0256018
0.0290007
0.0320667
0.0349477
0.0388244
0.043779
0.0485045
0.0530954
0.0575673
0.061893
0.0660503
0.0700279
0.0738257
0.0774526
0.0809239
0.0842586
0.0874775
0.0906022
0.0936539
0.0966529
0.0996189
0.102571
0.105527
0.108508
0.111539
0.114651
0.117884
0.121294
0.124965
0.129027
0.133673
0.139165
0.14581
0.153825
0.162887
0.171161
0.174098
0.168737
0.159621
0.147839
0.134574
0.122261
0.0985363
0.0717604
0.0661852
0.0895593
)
;
    }
    rightWall
    {
        type            kqRWallFunction;
        value           nonuniform List<scalar> 
50
(
0.00483864
0.0082307
0.0148333
0.0254839
0.0388331
0.0524028
0.0648447
0.0760732
0.0869318
0.103928
0.11829
0.131757
0.144704
0.157526
0.170278
0.183417
0.195588
0.205758
0.21421
0.221322
0.226008
0.226389
0.222639
0.21759
0.212732
0.208265
0.203991
0.199244
0.193629
0.187705
0.182353
0.178196
0.175804
0.17542
0.177007
0.180406
0.185468
0.192082
0.200179
0.209784
0.22127
0.235464
0.249845
0.263392
0.27455
0.280783
0.278623
0.260684
0.210878
0.131727
)
;
    }
    lowerWall
    {
        type            kqRWallFunction;
        value           nonuniform List<scalar> 
62
(
0.0102948
0.0119331
0.0152879
0.0184983
0.0212353
0.0234104
0.0251941
0.0266989
0.0279554
0.0290632
0.0300949
0.0310855
0.0320209
0.0328347
0.0333908
0.0334729
0.0328023
0.0310907
0.0280788
0.024218
0.0195661
0.0140417
0.0107966
0.0107966
0.0145236
0.0170939
0.0181324
0.0180504
0.0171651
0.0159914
0.0161767
0.0409919
0.0499893
0.0588342
0.0660159
0.0103307
0.0145863
0.0228359
0.029646
0.0358046
0.0417964
0.0479131
0.0547811
0.0103307
0.0115834
0.0141156
0.015413
0.0165311
0.0174779
0.0182214
0.0187695
0.019141
0.0193534
0.0194274
0.0193928
0.0192144
0.0188173
0.0181109
0.0169033
0.0148918
0.0115236
0.00483864
)
;
    }
    atmosphere
    {
        type            inletOutlet;
        inletValue      uniform 0.1;
        value           nonuniform List<scalar> 
46
(
0.0895593
0.172911
0.1
0.1
0.1
0.162068
0.1
0.1
0.234971
0.271945
0.1
0.287557
0.1
0.274728
0.1
0.291845
0.1
0.31496
0.1
0.339057
0.1
0.355659
0.1
0.39536
0.414955
0.1
0.1
0.1
0.453933
0.449836
0.1
0.1
0.479857
0.471977
0.1
0.1
0.446198
0.1
0.434475
0.1
0.435328
0.1
0.461045
0.1
0.267698
0.1
)
;
    }
    defaultFaces
    {
        type            empty;
    }
}


// ************************************************************************* //
