/*--------------------------------*- C++ -*----------------------------------*\
  =========                 |
  \\      /  F ield         | OpenFOAM: The Open Source CFD Toolbox
   \\    /   O peration     | Website:  https://openfoam.org
    \\  /    A nd           | Version:  9
     \\/     M anipulation  |
\*---------------------------------------------------------------------------*/
FoamFile
{
    format      ascii;
    class       volScalarField;
    location    "0.7";
    object      nut;
}
// * * * * * * * * * * * * * * * * * * * * * * * * * * * * * * * * * * * * * //

dimensions      [0 2 -1 0 0 0 0];

internalField   nonuniform List<scalar> 
2268
(
5.57966e-05
5.19592e-05
6.17891e-05
6.9286e-05
7.49786e-05
7.95013e-05
8.33545e-05
8.68706e-05
9.01162e-05
9.30459e-05
9.56369e-05
9.78297e-05
9.95436e-05
0.00010068
0.000101115
0.000100703
9.92739e-05
9.66444e-05
9.27047e-05
8.75473e-05
8.16311e-05
7.4218e-05
6.11018e-05
0.000109152
0.000278642
0.000422566
0.000527073
0.000610652
0.000681616
0.000742409
0.000795243
0.000839664
0.000877857
0.000910875
0.000938447
0.00095963
0.000973202
0.000977947
0.000972683
0.00095575
0.000925282
0.000880677
0.00082129
0.000738595
0.000538062
0.000176152
0.000117557
0.000462928
0.000718672
0.000929207
0.00111546
0.00127952
0.00142224
0.001544
0.0016477
0.00173636
0.00181147
0.00187269
0.00191856
0.00194723
0.0019568
0.00194527
0.00190971
0.00184632
0.00175039
0.00160902
0.00136953
0.000910738
0.000201425
0.000119983
0.000573468
0.000918909
0.0012313
0.00152095
0.00178067
0.00200588
0.00219825
0.00236217
0.00250149
0.00261811
0.00271175
0.00278093
0.00282371
0.00283798
0.00282117
0.00276925
0.0026764
0.00253099
0.00230038
0.00190668
0.00121797
0.000224514
0.000119035
0.00062136
0.00104541
0.00145978
0.00185285
0.00220538
0.00251045
0.00277097
0.00299266
0.0031802
0.00333585
0.00345966
0.00355045
0.00360661
0.00362613
0.00360612
0.00354154
0.00342368
0.00323117
0.0029166
0.0023794
0.00147669
0.000249179
0.000118287
0.000619631
0.00111823
0.00163663
0.00213194
0.00257341
0.00295378
0.00327816
0.00355381
0.00378619
0.00397796
0.00412957
0.00424046
0.00430954
0.0043351
0.00431413
0.0042408
0.00410175
0.00386888
0.0034803
0.00281024
0.0016942
0.000280428
0.000118963
0.000597357
0.00116323
0.00178191
0.0023763
0.00290058
0.00334992
0.00373267
0.00405771
0.00433113
0.00455591
0.004733
0.00486261
0.00494429
0.00497673
0.00495693
0.00487829
0.00472382
0.00446033
0.00401418
0.00323049
0.00189461
0.000324522
0.000122542
0.000576236
0.00120578
0.00191735
0.00260152
0.00319943
0.00370981
0.0041446
0.00451402
0.00482449
0.00507913
0.00527942
0.00542649
0.00552052
0.00556066
0.00554403
0.00546391
0.00530095
0.00501983
0.00454256
0.00369504
0.00217286
0.000385039
0.000327691
0.000430012
0.000475566
0.000468016
0.00041106
0.000343496
0.000294648
0.000267665
0.000256476
0.000253758
0.000254573
0.000257095
0.000259872
0.00026018
0.000253371
0.000237208
0.000212704
0.000174424
0.000161096
0.00111051
0.00224837
0.00314222
0.00341599
0.00312952
0.00271635
0.00242294
0.00218969
0.0020081
0.00192964
0.00191646
0.00194766
0.00201155
0.00207433
0.00205581
0.00190149
0.00161397
0.00115511
0.000349879
0.00120598
0.00321769
0.00451654
0.00503141
0.00474648
0.00419357
0.00382663
0.00378831
0.00366887
0.00355188
0.00352541
0.00357912
0.00367682
0.00374891
0.00365418
0.00329508
0.00266729
0.00172732
0.000401602
0.0011377
0.00333
0.0045306
0.00533457
0.0058076
0.0056969
0.00494543
0.00470388
0.0047795
0.00473113
0.00470632
0.00477529
0.00487999
0.00492704
0.00474844
0.00422432
0.00333493
0.00205389
0.00043155
0.00106968
0.00299639
0.00378734
0.00457608
0.00541093
0.00620832
0.00595313
0.00548979
0.00550627
0.00555377
0.00554727
0.00563838
0.00574618
0.00576108
0.00551237
0.00487331
0.00380298
0.00228096
0.000451748
0.000981461
0.00226926
0.00300022
0.00387701
0.00475649
0.00557385
0.00604249
0.00595006
0.00597343
0.00609629
0.00613584
0.00626141
0.00637753
0.00636087
0.00605833
0.00534785
0.00416219
0.00246608
0.000466744
0.000866268
0.00167809
0.00252775
0.00341908
0.00429754
0.00512906
0.00576508
0.00592796
0.00619569
0.00645049
0.00653753
0.00670466
0.00683966
0.00679202
0.00645044
0.00570319
0.00445253
0.00263148
0.000478407
0.000708837
0.00165692
0.00250042
0.00325898
0.00404636
0.00483704
0.00552594
0.00585134
0.00632019
0.00668804
0.00681825
0.00701807
0.00717045
0.00709247
0.00672861
0.00597124
0.00469273
0.00278481
0.000487527
0.000139252
0.000575748
0.0013038
0.00214205
0.00294376
0.00363874
0.00423142
0.00473805
0.00516973
0.00553269
0.00582981
0.00606352
0.00623643
0.00634961
0.00640283
0.00639362
0.00631474
0.0061454
0.00585338
0.00537229
0.00457565
0.00330482
0.00164167
0.000170473
0.000770764
0.00161818
0.00254342
0.00341536
0.00417388
0.00483244
0.00540442
0.00589718
0.0063141
0.00665617
0.00692763
0.00713317
0.00727451
0.00735252
0.00736638
0.00730888
0.00716458
0.00691578
0.00652727
0.00594101
0.00511
0.00408076
0.000197731
0.00112957
0.00205703
0.0029777
0.00385286
0.00464008
0.00534395
0.00596566
0.00650807
0.00696959
0.00734754
0.00765087
0.00788686
0.00805692
0.00816302
0.00820691
0.00818116
0.00808015
0.0078969
0.00761242
0.00719368
0.00661741
0.00588843
0.000213053
0.0014289
0.00248876
0.00339855
0.00423196
0.00501201
0.00573813
0.00640118
0.00699121
0.00749504
0.00791045
0.0082481
0.00851678
0.00871842
0.00885525
0.00893049
0.00894265
0.00889409
0.00878037
0.00858467
0.00827634
0.00782357
0.00718213
0.000216428
0.00160892
0.0028162
0.00377996
0.00461675
0.00538348
0.00609846
0.00676046
0.00735911
0.00788115
0.0083261
0.00870266
0.00901343
0.00925706
0.00943365
0.00954585
0.00960088
0.00960667
0.00955847
0.00943535
0.00920523
0.00882668
0.00824229
0.000218149
0.0017237
0.00306331
0.00410594
0.00497937
0.00575337
0.00645997
0.00710837
0.00769509
0.00821302
0.00866339
0.00905547
0.00939326
0.00967244
0.00988955
0.0100484
0.0101531
0.0102137
0.010226
0.0101692
0.0100034
0.0096947
0.00920746
0.000218313
0.00180383
0.00324569
0.00437521
0.00530306
0.00610209
0.00681228
0.0074518
0.00802594
0.00853503
0.00898244
0.00937586
0.00972008
0.010014
0.0102568
0.0104528
0.0106075
0.0107234
0.0107958
0.0107964
0.0106823
0.0104203
0.0100087
0.000218584
0.00185155
0.00338284
0.00459404
0.00558062
0.00641414
0.00713854
0.00777827
0.0083457
0.00884729
0.00928902
0.00967814
0.0100203
0.0103182
0.0105738
0.010792
0.0109778
0.0111324
0.0112492
0.0113063
0.0112632
0.011079
0.0106976
0.000218494
0.00188458
0.0034881
0.00476977
0.00581168
0.00668223
0.00742692
0.00807416
0.00864115
0.00913882
0.00957564
0.00995944
0.0102969
0.0105928
0.0108516
0.0110785
0.0112785
0.0114532
0.011598
0.0116959
0.0117109
0.0115991
0.0113038
0.000217988
0.00190847
0.00356835
0.00490807
0.0059986
0.00690466
0.0076719
0.00833095
0.00890216
0.00939948
0.00983345
0.0102128
0.0105451
0.0108365
0.0110927
0.0113194
0.0115216
0.0117017
0.0118569
0.0119749
0.0120291
0.0119761
0.0117694
0.000217076
0.00192366
0.00362659
0.00501281
0.00614439
0.00708252
0.00787216
0.00854498
0.00912323
0.0096229
0.0100561
0.0104325
0.0107603
0.0110466
0.0112976
0.0115196
0.0117178
0.0118952
0.0120509
0.0121762
0.0122517
0.0122454
0.0121189
0.000215775
0.0019294
0.00366446
0.00508705
0.00625232
0.00721834
0.00802892
0.00871595
0.00930269
0.0098064
0.0102403
0.0106151
0.0109394
0.0112208
0.0114663
0.0116821
0.0118739
0.0120454
0.012197
0.0123229
0.0124092
0.0124323
0.0123635
0.000214178
0.00192779
0.003684
0.00513359
0.00632568
0.0073153
0.00814477
0.00884557
0.0094413
0.00994996
0.0103856
0.0107595
0.011081
0.0113582
0.0115983
0.011808
0.011993
0.0121579
0.0123038
0.0124273
0.0125175
0.0125567
0.0125222
0.000212147
0.00192225
0.00368731
0.00515531
0.00636775
0.00737685
0.00822295
0.00893663
0.00954127
0.0100552
0.0104929
0.0108664
0.0111854
0.0114585
0.0116935
0.0118972
0.0120758
0.0122342
0.0123744
0.0124938
0.0125839
0.0126294
0.0126113
0.000209717
0.00191202
0.00367849
0.00515494
0.00638193
0.00740651
0.00826695
0.00899236
0.00960549
0.0101245
0.0105643
0.0109371
0.0112534
0.0115222
0.0117517
0.0119493
0.0121216
0.0122737
0.0124082
0.0125233
0.0126113
0.012658
0.0126454
0.000206971
0.00189707
0.00365818
0.00513664
0.00637138
0.00740783
0.00828027
0.00901613
0.00963704
0.0101607
0.0106021
0.0109737
0.0112864
0.01155
0.0117732
0.0119639
0.0121293
0.0122751
0.0124042
0.0125153
0.0126012
0.012648
0.0126376
0.000204019
0.00187785
0.00362695
0.00510223
0.00634021
0.00738413
0.00826638
0.00901122
0.00963901
0.0101667
0.0106088
0.0109782
0.0112862
0.0115432
0.0117586
0.0119411
0.0120986
0.0122374
0.0123611
0.0124691
0.0125545
0.0126039
0.0125987
0.000200985
0.00185499
0.003586
0.00505308
0.0062909
0.00733934
0.00822847
0.00898086
0.00961436
0.010145
0.0105869
0.0109528
0.0112546
0.0115033
0.0117091
0.0118816
0.0120297
0.0121606
0.0122789
0.0123849
0.0124727
0.0125293
0.0125364
0.000198005
0.00182918
0.00353681
0.00499115
0.00622547
0.00727625
0.0081703
0.00892809
0.00956609
0.0100985
0.0105389
0.0108999
0.0111938
0.0114322
0.0116263
0.0117869
0.0119239
0.0120459
0.0121588
0.012264
0.0123573
0.0124267
0.0124549
0.00019517
0.00180123
0.00348107
0.00491875
0.00614648
0.00719733
0.00809475
0.00885644
0.00949719
0.0100301
0.0104676
0.0108222
0.0111064
0.0113326
0.011513
0.0116597
0.011784
0.0118959
0.0120031
0.0121087
0.0122102
0.0122978
0.0123549
0.000192572
0.00177198
0.00342065
0.00483843
0.00605682
0.00710552
0.00800463
0.00876897
0.00941113
0.00994297
0.0103762
0.0107228
0.0109956
0.0112077
0.0113726
0.0115036
0.0116137
0.0117146
0.0118156
0.0119222
0.0120339
0.012143
0.0122346
0.000190293
0.00174235
0.00335755
0.00475298
0.00595967
0.00700414
0.00790319
0.0086688
0.00931125
0.00984077
0.0102683
0.0106056
0.0108655
0.011062
0.0112098
0.0113237
0.0114183
0.0115071
0.0116015
0.0117089
0.0118312
0.011963
0.0120911
0.000188394
0.00171327
0.00329386
0.00466531
0.00585839
0.00689671
0.00779398
0.00855941
0.00920101
0.00972727
0.0101481
0.010475
0.0107209
0.0109006
0.01103
0.0111257
0.0112038
0.0112796
0.0113664
0.0114737
0.0116054
0.0117586
0.0119218
0.000186914
0.00168566
0.00323166
0.00457831
0.00575638
0.00678687
0.00768069
0.0084445
0.00908412
0.00960632
0.0100198
0.0103356
0.0105669
0.0107292
0.0108395
0.0109161
0.0109769
0.0110389
0.011117
0.0112223
0.011361
0.0115321
0.0117259
0.000185869
0.00166032
0.00317288
0.00449477
0.00565695
0.00667819
0.00756701
0.0083278
0.00896437
0.00948181
0.0098876
0.0101921
0.0104087
0.0105535
0.0106445
0.0107015
0.0107443
0.0107916
0.0108595
0.0109608
0.011103
0.0112869
0.0115046
0.000185257
0.00163794
0.00311921
0.00441717
0.0055631
0.00657401
0.00745642
0.00821286
0.00884537
0.00935751
0.00975552
0.010049
0.0102513
0.0103788
0.0104508
0.0104882
0.0105124
0.010544
0.0106002
0.0106949
0.0108368
0.0110277
0.0112617
0.000185062
0.00161903
0.003072
0.00434757
0.00547746
0.00647729
0.00735208
0.0081029
0.0087304
0.00923679
0.00962713
0.00991019
0.0100988
0.0102099
0.0102635
0.0102815
0.0102869
0.0103014
0.0103443
0.0104297
0.0105672
0.0107597
0.0110023
0.000185254
0.0016039
0.00303228
0.00428766
0.00540224
0.00639061
0.00725677
0.0080008
0.00862235
0.00912258
0.00950549
0.0097789
0.0099551
0.0100508
0.0100867
0.0100858
0.010072
0.0100684
0.0100957
0.0101692
0.0102986
0.0104875
0.010732
0.000185801
0.00159277
0.00300076
0.00423876
0.00533928
0.0063162
0.00717292
0.00790902
0.00852365
0.00901728
0.00939302
0.00965774
0.00982288
0.00990473
0.00992397
0.00990444
0.00987112
0.0098483
0.00985756
0.00991606
0.0100338
0.0102148
0.0104555
0.000186667
0.00158578
0.00297807
0.004202
0.00529022
0.00625609
0.00710275
0.00782981
0.00843643
0.00892285
0.0092916
0.00954862
0.00970427
0.00977396
0.00977797
0.00974035
0.00968708
0.00964352
0.00963248
0.00967228
0.00977467
0.00994351
0.0101759
0.000187825
0.00158313
0.00296485
0.0041786
0.00525681
0.00621238
0.00704851
0.00776533
0.00836261
0.00884093
0.00920261
0.00945281
0.00960066
0.00966024
0.00965081
0.00959605
0.00952236
0.00945639
0.00942228
0.00943967
0.00952217
0.00967461
0.00989454
0.000189271
0.00158522
0.00296211
0.00417022
0.00524125
0.00618757
0.00701276
0.00771794
0.00830415
0.00877296
0.00912704
0.00937103
0.00951277
0.00956458
0.00954404
0.00947371
0.00937977
0.00928967
0.00922928
0.00922012
0.00927739
0.00940849
0.00961138
0.000191041
0.00159275
0.00297154
0.00417939
0.00524664
0.00618502
0.00699869
0.0076904
0.00826316
0.00872034
0.00906562
0.00930351
0.00944065
0.00948728
0.0094586
0.00937517
0.00926211
0.00914703
0.00905725
0.00901667
0.0090431
0.00914639
0.00932649
0.000193225
0.00160699
0.00299597
0.00421019
0.00527769
0.0062094
0.00701052
0.00768613
0.00824212
0.00868452
0.00901879
0.00924992
0.00938353
0.00942766
0.00939453
0.00930171
0.00917214
0.00903268
0.0089115
0.00883482
0.00882373
0.00889154
0.0090415
0.000195984
0.00163011
0.00304011
0.00426908
0.00534149
0.00626741
0.00705385
0.00770934
0.0082438
0.00866691
0.0089867
0.00920928
0.00933971
0.00938384
0.00935049
0.00925338
0.009112
0.00895106
0.00879852
0.00868248
0.00862749
0.0086512
0.00876165
0.000199583
0.0016657
0.00311177
0.0043665
0.00544884
0.0063685
0.00713595
0.00776503
0.00827116
0.00866869
0.00896899
0.00917988
0.00930633
0.00935231
0.00932318
0.00922814
0.00908201
0.00890572
0.00872533
0.00856955
0.00846609
0.00843754
0.00849758
0.000204442
0.00171994
0.00322438
0.00451956
0.00561621
0.00652579
0.00726585
0.0078586
0.0083268
0.00869039
0.0089645
0.00915902
0.00927926
0.00932778
0.0093068
0.00922087
0.00907927
0.00889752
0.0086976
0.00850665
0.00835409
0.00826732
0.00826677
0.000211272
0.00180425
0.00340234
0.00475705
0.0058685
0.0067567
0.00745376
0.00799486
0.00841206
0.00873119
0.00897092
0.00914296
0.00925317
0.00930323
0.00929293
0.00922271
0.00909619
0.00892233
0.00871678
0.00850211
0.00830651
0.00816061
0.00809225
0.000221359
0.00194067
0.00369125
0.00512727
0.00624158
0.00708198
0.00770883
0.00817597
0.00852553
0.00878809
0.00898439
0.00912698
0.00922195
0.00927056
0.00927117
0.00922128
0.00911978
0.00896903
0.00877683
0.00855781
0.00833432
0.00813614
0.00799766
0.000236946
0.0021636
0.0041701
0.00570572
0.00678073
0.00752011
0.00803397
0.00839797
0.00866122
0.00885517
0.00899956
0.0091059
0.00917969
0.00922198
0.00923074
0.00920227
0.00913263
0.0090192
0.00886206
0.00866557
0.00844034
0.00820675
0.00799992
0.000260265
0.00247863
0.00493836
0.00659413
0.00752613
0.00807272
0.00841683
0.00864666
0.00880734
0.0089238
0.00901045
0.00907537
0.00912239
0.00915226
0.00916346
0.00915284
0.00911633
0.00904944
0.00894764
0.00880628
0.00862057
0.00838779
0.00812022
0.000286724
0.00276127
0.00593317
0.0079189
0.00847639
0.00870014
0.0088203
0.00889584
0.00894747
0.00898472
0.00901267
0.0090341
0.00905033
0.00906164
0.00906746
0.00906659
0.00905724
0.0090371
0.00900301
0.00894994
0.00886792
0.00873435
0.00849923
0.000413896
0.00040979
0.000424217
0.000462018
0.0032509
0.00305031
0.00290296
0.00278497
0.00518443
0.00476009
0.00430683
0.00384506
0.00642566
0.005891
0.00526752
0.00459313
0.007502
0.0069665
0.00630452
0.00552793
0.00859638
0.00818071
0.00754166
0.00671785
0.00943688
0.00903421
0.00860435
0.00793188
0.0101428
0.00976334
0.00936625
0.00893403
0.0108645
0.0105547
0.0102216
0.00988214
0.0114481
0.0112137
0.0109457
0.0106585
0.0118956
0.0117271
0.0115239
0.011292
0.0122131
0.0120933
0.0119434
0.0117641
0.0124161
0.0123266
0.0122108
0.0120668
0.0125267
0.0124524
0.0123543
0.0122298
0.0125682
0.0124992
0.0124075
0.0122907
0.0125625
0.0124954
0.0124059
0.0122918
0.0125281
0.0124649
0.0123797
0.0122703
0.0124776
0.0124236
0.0123487
0.0122506
0.0124169
0.0123788
0.0123212
0.012242
0.0123461
0.0123296
0.0122955
0.0122416
0.012261
0.01227
0.0122637
0.0122393
0.0121555
0.0121916
0.0122149
0.0122221
0.0120236
0.0120865
0.0121392
0.0121779
0.0118614
0.0119488
0.0120287
0.0120971
0.0116681
0.0117762
0.0118797
0.0119745
0.0114462
0.0115702
0.0116927
0.0118093
0.0112004
0.0113356
0.0114718
0.011605
0.0109372
0.0110788
0.0112237
0.0113683
0.0106623
0.0108065
0.0109559
0.0111073
0.01038
0.010524
0.0106746
0.010829
0.0100926
0.0102341
0.0103836
0.0105384
0.0098002
0.00993739
0.010084
0.0102372
0.00950235
0.00963323
0.00977497
0.00992495
0.00919941
0.00932123
0.0094557
0.00960027
0.00889495
0.00900381
0.0091275
0.00926351
0.00859791
0.00868869
0.00879677
0.00891978
0.00832463
0.00839127
0.00847781
0.00858207
0.00809902
0.00813551
0.00819421
0.00827335
0.00794749
0.00794951
0.00797563
0.00802448
0.0078872
0.00785207
0.00784449
0.00786234
0.00792178
0.0078366
0.00779341
0.00778624
0.00817862
0.00795388
0.00778662
0.00775769
0.00158474
0.00226851
0.00281442
0.00334487
0.0039355
0.00458679
0.00524295
0.0057934
0.00648664
0.0069016
0.00707438
0.00732702
0.00746962
0.00735266
0.00697881
0.00623081
0.00494733
0.00296224
0.000494922
0.00282043
0.002856
0.00323645
0.00367889
0.0040809
0.00452313
0.00500758
0.00569218
0.00645595
0.00685257
0.00712334
0.00746281
0.00759147
0.00750676
0.0071569
0.00643844
0.0051928
0.00318349
0.000501855
0.0033361
0.0031059
0.00352027
0.00395233
0.0042721
0.00455568
0.00489106
0.00560727
0.00630846
0.0067309
0.00712955
0.00752596
0.00768325
0.0076109
0.00724595
0.00652201
0.00530044
0.00331034
0.000501139
0.00380501
0.00332515
0.00367182
0.00417189
0.00444637
0.00467602
0.00492131
0.0055271
0.00614997
0.0067187
0.00731251
0.00769373
0.00785728
0.00773517
0.00729139
0.00650989
0.00526856
0.00328893
0.000491294
0.00451701
0.00364067
0.00370328
0.00419251
0.00452699
0.00476814
0.00496939
0.00543532
0.00609812
0.00693676
0.00769648
0.00799748
0.00813004
0.00788775
0.00730613
0.00642098
0.00512772
0.00316018
0.000475334
0.00552685
0.00420561
0.0038171
0.00408046
0.00447912
0.00477318
0.00498308
0.00540817
0.00623403
0.00740251
0.00812378
0.00841581
0.00845476
0.00803332
0.00727937
0.0062678
0.00492292
0.00299043
0.000460106
0.00677481
0.00518952
0.00427351
0.00408245
0.0043298
0.0046596
0.00501347
0.00555664
0.00662268
0.00796586
0.00848299
0.00887408
0.00875369
0.00814151
0.00721627
0.00608947
0.00473356
0.00286795
0.000454877
0.00810696
0.00657417
0.00527195
0.00456875
0.00444023
0.0046575
0.00515304
0.00596571
0.00718084
0.00842787
0.00899791
0.00932466
0.00900803
0.00823658
0.00716788
0.00593082
0.00455846
0.00279219
0.000468639
0.00939516
0.00813201
0.00673907
0.00566616
0.00514218
0.00513383
0.00558101
0.00648894
0.00768512
0.00872677
0.00954512
0.00970707
0.00925655
0.00839256
0.00719934
0.00580686
0.00432684
0.00266721
0.000476563
0.0102682
0.00946314
0.00831114
0.00717304
0.0064039
0.00614778
0.0064094
0.00711662
0.00816893
0.00934698
0.0100362
0.0100931
0.00962776
0.0087026
0.00736638
0.00581208
0.00413793
0.00247813
0.000449623
0.0109359
0.0103176
0.00956237
0.00865407
0.00788972
0.00752692
0.00763709
0.0081957
0.00909156
0.00998769
0.0104978
0.0106479
0.0102565
0.00918982
0.00771367
0.00605003
0.00419912
0.00231614
0.000461162
0.0114622
0.010899
0.0103146
0.00971176
0.00914588
0.0088373
0.00889605
0.00930195
0.00992154
0.0105965
0.0112283
0.0114699
0.0109792
0.00976424
0.00820011
0.00644496
0.00444319
0.00236366
0.000485611
0.0118113
0.011313
0.0107816
0.0102807
0.00989112
0.00967688
0.00977535
0.0100934
0.0106506
0.011536
0.01227
0.0121269
0.0113675
0.0102135
0.0086509
0.00682366
0.00470537
0.00245787
0.000513938
0.0120034
0.0115465
0.0110404
0.0105678
0.0102128
0.010019
0.0101245
0.0105515
0.0113453
0.0123133
0.0126034
0.012232
0.0114756
0.0103575
0.00889676
0.0071013
0.00494816
0.00256685
0.000547797
0.0120776
0.0116382
0.0111375
0.0106624
0.0103148
0.0102186
0.0105245
0.0111875
0.0119692
0.012445
0.0125034
0.0122973
0.0116535
0.0105902
0.00921042
0.00744605
0.00531454
0.00278498
0.000585774
0.0120856
0.0116538
0.0111584
0.0106961
0.0103934
0.0104085
0.0108622
0.0115596
0.0121301
0.0124007
0.0125382
0.0125137
0.0120041
0.0109555
0.00962968
0.00792988
0.00589192
0.00316897
0.000620297
0.0120757
0.01166
0.0111867
0.0107613
0.0105184
0.0105991
0.0110539
0.0116469
0.0120705
0.0123016
0.0125184
0.0125906
0.0121925
0.0112651
0.0100482
0.00848936
0.00656972
0.00367016
0.000650432
0.0120786
0.0116972
0.0112643
0.0108857
0.0106852
0.0107688
0.0111407
0.0115963
0.0119253
0.0121542
0.0124007
0.0124988
0.0121665
0.0114138
0.010356
0.00908025
0.00719981
0.00420406
0.000675878
0.0121046
0.0117747
0.0113934
0.011058
0.0108738
0.010915
0.0111694
0.0114911
0.0117507
0.011984
0.01225
0.0123958
0.0121777
0.0115716
0.0106908
0.00956123
0.00767215
0.00463185
0.000698927
0.0121482
0.0118818
0.0115562
0.0112548
0.0110657
0.0110448
0.0111793
0.0113812
0.0115841
0.0118236
0.0121152
0.0123184
0.0122196
0.0117735
0.0110297
0.00992394
0.00802473
0.00489623
0.000714683
0.0121954
0.0119997
0.0117305
0.011456
0.0112502
0.0111615
0.0111897
0.0112932
0.0114499
0.0116902
0.0120012
0.0122522
0.0122601
0.0119655
0.0113517
0.0102429
0.00830536
0.00508496
0.000725039
0.0122302
0.0121089
0.0118974
0.0116485
0.0114256
0.0112767
0.0112179
0.0112431
0.011359
0.011589
0.0119029
0.0121802
0.0122674
0.0120984
0.011616
0.0105289
0.00853464
0.00522835
0.000730859
0.0122378
0.0121925
0.0120416
0.0118229
0.0115912
0.0113968
0.0112718
0.0112359
0.011313
0.01152
0.0118173
0.0120972
0.0122341
0.0121621
0.0118046
0.0107724
0.00872596
0.00534099
0.000732216
0.0122063
0.0122368
0.0121508
0.0119713
0.0117445
0.0115229
0.0113518
0.011269
0.0113082
0.0114813
0.0117463
0.0120115
0.0121756
0.0121662
0.0118804
0.0109518
0.00890315
0.00543612
0.000730309
0.0121284
0.012232
0.0122145
0.0120847
0.0118793
0.0116504
0.0114522
0.0113346
0.0113367
0.0114684
0.0116919
0.0119327
0.0121068
0.0121278
0.0118664
0.0110105
0.00905654
0.00553361
0.000727208
0.0120013
0.0121724
0.0122245
0.0121538
0.0119861
0.0117694
0.011562
0.0114204
0.0113874
0.0114741
0.011651
0.0118604
0.012028
0.0120537
0.0117895
0.010955
0.0091127
0.00561525
0.000725498
0.0118272
0.0120568
0.012176
0.0121702
0.0120535
0.0118668
0.0116665
0.0115118
0.0114475
0.0114887
0.0116167
0.0117872
0.0119313
0.0119394
0.0116559
0.0108244
0.00904968
0.00562719
0.000718989
0.0116124
0.0118894
0.0120689
0.0121284
0.0120714
0.0119283
0.0117499
0.0115931
0.0115038
0.011503
0.0115825
0.0117087
0.0118156
0.0117895
0.0114741
0.0106323
0.00890044
0.00556122
0.000709896
0.0113654
0.0116778
0.0119079
0.0120283
0.0120334
0.0119428
0.0117981
0.0116505
0.0115456
0.01151
0.0115454
0.0116259
0.0116876
0.0116161
0.0112589
0.0103964
0.00869043
0.00543105
0.000708581
0.0110949
0.0114318
0.0117016
0.0118747
0.0119391
0.0119045
0.0118017
0.0116741
0.0115651
0.0115052
0.0115041
0.0115413
0.0115546
0.0114318
0.0110276
0.0101382
0.00844477
0.0052629
0.000715479
0.0108074
0.0111603
0.0114598
0.0116763
0.0117938
0.011814
0.0117575
0.011659
0.0115574
0.0114851
0.011456
0.0114532
0.0114164
0.0112387
0.0107853
0.00986694
0.00818957
0.00507777
0.000686595
0.0105062
0.010869
0.0111905
0.0114419
0.011605
0.0116761
0.0116672
0.0116041
0.0115198
0.0114452
0.0113955
0.0113549
0.0112658
0.0110299
0.0105232
0.00957185
0.00791787
0.00491756
0.000665713
0.0101914
0.0105599
0.0108979
0.0111775
0.0113796
0.0114966
0.011534
0.0115097
0.0114496
0.0113802
0.0113151
0.0112383
0.011096
0.0108
0.0102386
0.00926141
0.00764382
0.00478644
0.00064836
0.00986115
0.0102314
0.0105819
0.0108847
0.0111202
0.0112782
0.0113594
0.0113746
0.0113425
0.0112832
0.0112064
0.0110956
0.0109015
0.0105457
0.00993545
0.00894283
0.00736691
0.0046534
0.000630713
0.00951445
0.00988152
0.0102401
0.0105618
0.0108257
0.0110199
0.0111409
0.0111942
0.0111913
0.011145
0.0110596
0.0109177
0.0106736
0.0102611
0.00960837
0.00860409
0.00706626
0.00448982
0.000615338
0.00915424
0.00951053
0.00987125
0.0102064
0.0104935
0.0107182
0.0108742
0.0109619
0.0109866
0.0109541
0.0108621
0.0106904
0.0103979
0.00993432
0.0092428
0.00823052
0.00672141
0.00429709
0.000627218
0.00879122
0.00912575
0.00947963
0.00982061
0.0101238
0.0103723
0.0105564
0.0106724
0.01072
0.0106985
0.0105989
0.0103972
0.0100584
0.00954806
0.00882443
0.00781189
0.00635195
0.00408551
0.000639588
0.00844688
0.00874553
0.00908029
0.00941664
0.00972658
0.00998977
0.0101929
0.0103282
0.0103905
0.0103729
0.0102608
0.0100273
0.00964151
0.00908355
0.00833353
0.00733725
0.0059533
0.00380823
0.000617602
0.00815341
0.00840132
0.00870257
0.00902133
0.00932634
0.00959334
0.00980495
0.00994897
0.0100154
0.00999179
0.00985856
0.00958585
0.00914235
0.00852142
0.00774392
0.00677804
0.00548433
0.00346765
0.000578937
0.00794455
0.00813236
0.00838792
0.0086766
0.00896482
0.00922451
0.00943401
0.00957663
0.00963749
0.00959891
0.00943507
0.00910883
0.00857969
0.00784884
0.00704462
0.0061451
0.00498137
0.00310933
0.000535949
0.00783347
0.00796683
0.00817503
0.00842817
0.00869251
0.00893734
0.00913745
0.00927219
0.00932225
0.00926448
0.00906484
0.00866976
0.00800354
0.00703395
0.00627316
0.00560059
0.00472681
0.0029899
0.00048601
0.00779482
0.00789859
0.00807572
0.00830299
0.0085481
0.00877959
0.0089705
0.00909789
0.00913954
0.00906798
0.00884068
0.00838046
0.00752926
0.00615681
0.00614002
0.00621168
0.00596436
0.00417711
0.000455831
)
;

boundaryField
{
    leftWall
    {
        type            nutkWallFunction;
        Cmu             0.09;
        kappa           0.41;
        E               9.8;
        value           nonuniform List<scalar> 
50
(
1.04517e-05
1.29532e-05
1.38709e-05
1.41179e-05
1.4019e-05
1.39862e-05
1.40847e-05
1.45315e-05
1.65667e-05
1.61954e-05
2.01026e-05
2.21697e-05
2.25975e-05
2.2785e-05
2.27804e-05
2.27826e-05
2.27478e-05
2.26596e-05
2.25189e-05
2.23293e-05
2.20857e-05
2.17786e-05
2.14146e-05
2.10064e-05
2.05696e-05
2.01216e-05
1.96807e-05
1.92631e-05
1.88831e-05
1.85525e-05
1.82801e-05
1.80711e-05
1.79278e-05
1.78492e-05
1.78324e-05
1.78729e-05
1.79653e-05
1.81037e-05
1.82841e-05
1.8505e-05
1.87714e-05
1.90956e-05
1.95002e-05
2.00222e-05
2.07199e-05
2.16913e-05
2.31147e-05
2.53236e-05
2.87736e-05
3.30987e-05
)
;
    }
    rightWall
    {
        type            nutkWallFunction;
        Cmu             0.09;
        kappa           0.41;
        E               9.8;
        value           nonuniform List<scalar> 
50
(
3.05363e-05
3.91669e-05
4.40656e-05
4.69094e-05
4.88402e-05
5.0292e-05
5.14392e-05
5.23547e-05
5.31215e-05
5.39451e-05
5.413e-05
5.34965e-05
5.18889e-05
4.99402e-05
4.856e-05
4.87209e-05
5.03835e-05
4.86206e-05
4.84105e-05
5.02175e-05
5.2704e-05
5.54469e-05
5.93184e-05
6.2371e-05
6.48317e-05
6.70174e-05
6.9332e-05
7.12298e-05
7.25435e-05
7.33767e-05
7.37734e-05
7.37805e-05
7.35144e-05
7.31854e-05
7.29936e-05
7.44462e-05
7.67331e-05
8.6003e-05
7.617e-05
7.0972e-05
6.91347e-05
6.74129e-05
6.56892e-05
7.2503e-05
7.67109e-05
7.58799e-05
7.20068e-05
6.66929e-05
6.00715e-05
5.57458e-05
)
;
    }
    lowerWall
    {
        type            nutkWallFunction;
        Cmu             0.09;
        kappa           0.41;
        E               9.8;
        value           nonuniform List<scalar> 
62
(
5.00015e-06
6.34895e-06
7.53936e-06
8.4376e-06
9.10095e-06
9.62149e-06
1.00602e-05
1.04517e-05
1.0812e-05
1.11394e-05
1.14302e-05
1.16774e-05
1.18721e-05
1.20033e-05
1.20561e-05
1.20123e-05
1.18507e-05
1.15481e-05
1.10878e-05
1.0477e-05
9.75939e-06
8.9212e-06
7.48911e-06
7.48911e-06
2.0318e-05
2.29474e-05
2.52875e-05
2.76995e-05
3.06596e-05
3.48586e-05
4.08759e-05
4.37817e-05
4.32187e-05
4.45305e-05
4.80917e-05
3.63762e-05
0.000110557
0.000117516
0.000111741
0.000105256
9.56973e-05
8.19749e-05
6.67063e-05
3.63762e-05
4.64804e-05
5.07307e-05
4.9323e-05
4.37086e-05
3.70024e-05
3.26138e-05
3.03553e-05
2.9346e-05
2.89919e-05
2.89563e-05
2.90859e-05
2.92523e-05
2.92227e-05
2.85697e-05
2.69847e-05
2.44773e-05
2.04669e-05
1.38572e-05
)
;
    }
    atmosphere
    {
        type            calculated;
        value           nonuniform List<scalar> 
46
(
0.000286724
0.00276127
0.00593317
0.009
0.009
0.009
0.009
0.009
0.009
0.009
0.009
0.009
0.009
0.009
0.009
0.009
0.009
0.009
0.009
0.009
0.009
0.009
0.009
0.009
0.009
0.00778662
0.00775769
0.00779482
0.00789859
0.00807572
0.00830299
0.0085481
0.00877959
0.0089705
0.00909789
0.00913954
0.00906798
0.00884068
0.00838046
0.00752926
0.009
0.009
0.009
0.009
0.009
0.000455831
)
;
    }
    defaultFaces
    {
        type            empty;
    }
}


// ************************************************************************* //
