/*--------------------------------*- C++ -*----------------------------------*\
  =========                 |
  \\      /  F ield         | OpenFOAM: The Open Source CFD Toolbox
   \\    /   O peration     | Website:  https://openfoam.org
    \\  /    A nd           | Version:  9
     \\/     M anipulation  |
\*---------------------------------------------------------------------------*/
FoamFile
{
    format      ascii;
    class       volScalarField;
    location    "0.7";
    object      p;
}
// * * * * * * * * * * * * * * * * * * * * * * * * * * * * * * * * * * * * * //

dimensions      [1 -1 -2 0 0 0 0];

internalField   nonuniform List<scalar> 
2268
(
519.772
518.349
522.123
530.256
541.533
555.044
570.425
587.501
606.193
626.274
647.51
669.686
692.577
715.928
739.47
762.884
785.763
807.672
827.935
844.655
856.402
864.892
871.216
460.745
458.82
462.361
470.436
481.86
495.55
511.142
528.556
547.452
567.65
588.949
611.151
634.056
657.434
681.037
704.572
727.664
749.844
770.449
787.899
799.006
803.933
809.244
400.084
398.661
402.809
410.972
422.391
436.2
452.07
469.627
488.721
509.086
530.492
552.752
575.693
599.093
622.717
646.288
669.435
691.645
712.182
729.635
740.885
744.132
748.333
338.52
337.972
343.005
351.387
362.875
376.776
392.757
410.51
429.799
450.349
471.9
494.266
517.285
540.74
564.398
587.997
611.154
633.317
653.647
670.899
682.362
685.376
688.84
276.723
277.018
282.898
291.558
303.141
317.106
333.167
351.075
370.559
391.313
413.047
435.568
458.724
482.286
506.03
529.721
552.951
575.153
595.538
612.896
624.776
628.056
631
214.767
215.866
222.382
231.359
243.089
257.125
273.245
291.287
310.975
331.964
353.914
376.638
399.986
423.713
447.609
471.488
494.906
517.283
537.985
555.921
568.784
573.087
574.647
152.227
154.249
161.04
170.415
182.389
196.549
212.761
231
250.986
272.312
294.549
317.517
341.099
365.03
389.132
413.297
437.02
459.704
480.972
499.995
514.829
521.552
519.226
88.773
91.4469
98.1298
107.51
119.417
133.845
150.442
169.264
189.975
212.058
234.876
258.222
282.113
306.264
330.578
355.072
379.165
402.262
424.298
444.871
462.812
474.175
469.335
1284.23
801.085
574.343
442.809
382.87
364.17
363.523
370.702
389.921
424.794
482.828
588.696
771.293
1013.99
1230.24
1352.97
1377.98
1334.29
1286.72
1238.85
642.52
456.489
364.122
315.249
298.302
296.199
300.756
316.867
348.562
399.883
493.048
657.142
886.476
1100.24
1231.11
1274.31
1255.47
1225.02
1047.36
508.551
400.509
334.733
287.377
258.484
249.481
246.543
250.529
271.176
311.074
389.581
536.051
757.4
971.546
1110.97
1176.6
1184.48
1159.92
848.227
455.247
383.644
335.112
287.211
248.265
238.008
236.825
233.032
231.517
238.24
286.264
414.171
640.9
862.654
1007.42
1088.39
1118.86
1095.77
820.782
453.972
374.473
325.184
277.379
246.814
239.466
237.91
235.618
234.286
227.335
226.627
304.095
534.285
768.575
913.389
999.804
1045.71
1029.91
840.374
481.005
348.479
295.32
265.059
243.323
238.995
237.563
235.932
235.312
234.546
229.074
248.937
444.497
686.196
825.11
909.917
966.569
961.229
808.744
487.072
298.387
231.472
232.65
236.904
237.705
237.009
235.769
235.24
234.994
234.66
244.276
384.544
617.742
743.066
820.137
885.02
891.397
698.246
421.139
241.838
209.829
209.707
231.61
236.246
236.373
235.509
235.049
234.845
235.725
245.362
348.263
562.121
668.873
735.481
803.395
821.121
26.3077
27.7414
30.8051
35.696
42.3426
51.5931
63.7241
78.6425
96.3643
116.852
139.849
164.45
189.365
214.087
238.765
263.826
288.53
312.238
335.498
358.635
381.183
400.514
418.409
-0.193005
-0.195756
-0.108197
0.0946984
0.588106
1.87628
4.63921
8.9222
15.0277
23.3849
35.1568
50.9381
69.1181
89.2435
112.607
139.687
165.977
189.305
212.7
237.569
261.679
283.239
304.189
-0.354241
-0.35896
-0.354673
-0.346304
-0.327746
-0.310539
-0.325451
-0.354838
-0.370619
-0.340193
0.13119
2.21655
6.32095
12.8649
23.134
38.4929
55.0833
71.1094
91.977
117.759
142.633
166.537
192.082
-0.508743
-0.506613
-0.498926
-0.499039
-0.509063
-0.525864
-0.542065
-0.554085
-0.557578
-0.545364
-0.531031
-0.557659
-0.634476
-0.69147
-0.673026
-0.115494
1.67472
6.57859
15.9419
29.3544
41.6382
56.8308
85.6584
-0.647868
-0.649832
-0.645801
-0.64429
-0.648046
-0.656651
-0.667363
-0.677529
-0.685174
-0.691629
-0.71047
-0.739594
-0.761377
-0.764516
-0.752035
-0.749504
-0.78344
-0.860053
-0.902194
-0.844393
-0.565398
1.92465
11.8559
-0.798328
-0.797542
-0.795521
-0.794492
-0.795846
-0.800232
-0.807215
-0.815273
-0.823137
-0.831655
-0.845925
-0.865168
-0.880635
-0.887753
-0.888199
-0.889062
-0.887221
-0.882341
-0.866355
-0.83534
-0.777357
-0.675295
-0.561916
-0.944445
-0.944135
-0.943441
-0.943453
-0.945036
-0.948563
-0.953801
-0.960006
-0.966585
-0.973788
-0.983341
-0.995638
-1.00734
-1.01502
-1.01788
-1.01781
-1.01391
-1.00326
-0.980602
-0.941919
-0.892787
-0.850524
-0.777009
-1.0906
-1.09037
-1.09026
-1.09082
-1.09253
-1.09554
-1.09966
-1.10451
-1.10985
-1.11582
-1.12297
-1.1313
-1.13908
-1.14419
-1.14559
-1.14356
-1.13747
-1.12488
-1.10124
-1.06218
-1.00685
-0.938091
-0.850552
-1.23621
-1.23615
-1.23636
-1.23716
-1.23879
-1.24129
-1.24452
-1.24832
-1.25258
-1.25738
-1.26284
-1.26868
-1.2738
-1.27687
-1.27698
-1.27373
-1.26626
-1.25289
-1.23102
-1.19831
-1.15412
-1.10135
-1.04223
-1.38106
-1.38121
-1.38166
-1.38257
-1.38406
-1.38612
-1.38867
-1.39164
-1.39502
-1.39883
-1.40302
-1.40727
-1.41082
-1.41279
-1.4124
-1.40906
-1.40196
-1.39005
-1.37213
-1.34734
-1.31599
-1.28121
-1.24616
-1.52501
-1.52541
-1.52606
-1.52701
-1.52835
-1.53004
-1.53208
-1.53445
-1.53718
-1.54029
-1.54366
-1.54699
-1.54974
-1.5513
-1.55108
-1.54854
-1.54311
-1.53423
-1.52142
-1.50456
-1.4844
-1.46381
-1.4455
-1.668
-1.66868
-1.66949
-1.67046
-1.67165
-1.67307
-1.67474
-1.67671
-1.67905
-1.68176
-1.68471
-1.68762
-1.69012
-1.69181
-1.69229
-1.69116
-1.68809
-1.68288
-1.67549
-1.66616
-1.65574
-1.64683
-1.64179
-1.81005
-1.81094
-1.81188
-1.81289
-1.81398
-1.81523
-1.81669
-1.81846
-1.82063
-1.8232
-1.82605
-1.82893
-1.8316
-1.83382
-1.83535
-1.83598
-1.83556
-1.83414
-1.83192
-1.82937
-1.82734
-1.82802
-1.83362
-1.95114
-1.95217
-1.95327
-1.9543
-1.95536
-1.95654
-1.95794
-1.9597
-1.96192
-1.96459
-1.96758
-1.97071
-1.97381
-1.97682
-1.97962
-1.98213
-1.98436
-1.98654
-1.98899
-1.99227
-1.99722
-2.00553
-2.01914
-2.0913
-2.09243
-2.09364
-2.09473
-2.09582
-2.09705
-2.09856
-2.10048
-2.10292
-2.10588
-2.1092
-2.11275
-2.11646
-2.12037
-2.12449
-2.12884
-2.13355
-2.13892
-2.14539
-2.1535
-2.16399
-2.17814
-2.19754
-2.23057
-2.23176
-2.23304
-2.23421
-2.23542
-2.23683
-2.23858
-2.24082
-2.24363
-2.247
-2.25078
-2.25485
-2.25923
-2.26405
-2.26942
-2.27545
-2.28231
-2.29038
-2.30012
-2.31207
-2.32684
-2.34526
-2.36866
-2.36902
-2.37021
-2.37154
-2.37283
-2.37423
-2.37593
-2.37805
-2.38071
-2.384
-2.38787
-2.39215
-2.39676
-2.40179
-2.40745
-2.41392
-2.42137
-2.43002
-2.44026
-2.45254
-2.4674
-2.48533
-2.50678
-2.53278
-2.50669
-2.50785
-2.50921
-2.51065
-2.51232
-2.51439
-2.51696
-2.52012
-2.52393
-2.52831
-2.53309
-2.53822
-2.54382
-2.55018
-2.55757
-2.56616
-2.57623
-2.58814
-2.60235
-2.61931
-2.63941
-2.66289
-2.69046
-2.64366
-2.64476
-2.64615
-2.64776
-2.64974
-2.65223
-2.6553
-2.65898
-2.66329
-2.66814
-2.67338
-2.67895
-2.68503
-2.69196
-2.70004
-2.70952
-2.72067
-2.73385
-2.74946
-2.76787
-2.78936
-2.81397
-2.84223
-2.77997
-2.78102
-2.78243
-2.78422
-2.78654
-2.78948
-2.79303
-2.79719
-2.80195
-2.8072
-2.81281
-2.81874
-2.82521
-2.83257
-2.84117
-2.85131
-2.86325
-2.87734
-2.89393
-2.91328
-2.93554
-2.96061
-2.9888
-2.91568
-2.91667
-2.91811
-2.92008
-2.92272
-2.92607
-2.93007
-2.93464
-2.93975
-2.94531
-2.9512
-2.95743
-2.96422
-2.97194
-2.98094
-2.99152
-3.00399
-3.01867
-3.03586
-3.05571
-3.07825
-3.10324
-3.13086
-3.05083
-3.05177
-3.05323
-3.05535
-3.05826
-3.06195
-3.06631
-3.07121
-3.07659
-3.08236
-3.08845
-3.09493
-3.10202
-3.11006
-3.11937
-3.13025
-3.143
-3.15796
-3.17536
-3.19531
-3.21769
-3.24218
-3.26884
-3.18547
-3.18635
-3.18781
-3.19002
-3.19311
-3.19704
-3.20164
-3.20678
-3.21234
-3.21826
-3.22451
-3.23121
-3.23859
-3.24695
-3.25652
-3.26757
-3.2804
-3.29532
-3.31257
-3.33221
-3.35405
-3.37767
-3.40307
-3.31962
-3.32046
-3.32189
-3.32413
-3.32728
-3.3313
-3.33602
-3.3413
-3.347
-3.35301
-3.35938
-3.36628
-3.37396
-3.3826
-3.39239
-3.40351
-3.41623
-3.43087
-3.44767
-3.46664
-3.48761
-3.5101
-3.53405
-3.45332
-3.45411
-3.45549
-3.45769
-3.46079
-3.46476
-3.4695
-3.47483
-3.4806
-3.48668
-3.49316
-3.50025
-3.50816
-3.51702
-3.52692
-3.53798
-3.55047
-3.56466
-3.5808
-3.5989
-3.61879
-3.64002
-3.66249
-3.58657
-3.58732
-3.58866
-3.59077
-3.59372
-3.59753
-3.60216
-3.60747
-3.61325
-3.61939
-3.62597
-3.63321
-3.64127
-3.6502
-3.66004
-3.67089
-3.683
-3.69664
-3.71202
-3.7292
-3.74797
-3.76794
-3.789
-3.71941
-3.72013
-3.72141
-3.7234
-3.72613
-3.72969
-3.73412
-3.73932
-3.74506
-3.75123
-3.7579
-3.76523
-3.77331
-3.78213
-3.79172
-3.80218
-3.81378
-3.82679
-3.84141
-3.85766
-3.87536
-3.89414
-3.9139
-3.85185
-3.85255
-3.85377
-3.85562
-3.8581
-3.86137
-3.86551
-3.87048
-3.87608
-3.88221
-3.88892
-3.89627
-3.90427
-3.91284
-3.92201
-3.93195
-3.94295
-3.95529
-3.96912
-3.98446
-4.00113
-4.01876
-4.03728
-3.98388
-3.98457
-3.98575
-3.98744
-3.98968
-3.99263
-3.99643
-4.00105
-4.00636
-4.01233
-4.01897
-4.02625
-4.03405
-4.04229
-4.05101
-4.06041
-4.0708
-4.08244
-4.09547
-4.10986
-4.12545
-4.14192
-4.15917
-4.11551
-4.11619
-4.11731
-4.11887
-4.12088
-4.12353
-4.12695
-4.13113
-4.13603
-4.14168
-4.14808
-4.15513
-4.16265
-4.17052
-4.1788
-4.18771
-4.19754
-4.20849
-4.22068
-4.23406
-4.24849
-4.26372
-4.27964
-4.24671
-4.24738
-4.24843
-4.24985
-4.25168
-4.25407
-4.25711
-4.2608
-4.2652
-4.2704
-4.27641
-4.28307
-4.29019
-4.29766
-4.30554
-4.31402
-4.32331
-4.33357
-4.34485
-4.35715
-4.37036
-4.38429
-4.39885
-4.37746
-4.3781
-4.37908
-4.38038
-4.38206
-4.38421
-4.38688
-4.39009
-4.39397
-4.39868
-4.40419
-4.41036
-4.41698
-4.42399
-4.43145
-4.43948
-4.44821
-4.4577
-4.46802
-4.47919
-4.49117
-4.50381
-4.51705
-4.50775
-4.50835
-4.50926
-4.51046
-4.51201
-4.51394
-4.51625
-4.519
-4.52241
-4.52663
-4.53163
-4.53725
-4.54333
-4.54981
-4.55676
-4.56424
-4.5723
-4.58096
-4.59028
-4.60033
-4.61112
-4.62252
-4.63447
-4.63758
-4.63815
-4.639
-4.64014
-4.64157
-4.64327
-4.64522
-4.64756
-4.65055
-4.65432
-4.65883
-4.66389
-4.66938
-4.67525
-4.68158
-4.6884
-4.6957
-4.7035
-4.71184
-4.72082
-4.73047
-4.74064
-4.75122
-4.76698
-4.76755
-4.76838
-4.76949
-4.7708
-4.77225
-4.77384
-4.77579
-4.77839
-4.78176
-4.7858
-4.7903
-4.79514
-4.80033
-4.80595
-4.81203
-4.81857
-4.82554
-4.83298
-4.84094
-4.84941
-4.85822
-4.86724
-4.89598
-4.8966
-4.89747
-4.89855
-4.89972
-4.90088
-4.9021
-4.90369
-4.90595
-4.90893
-4.91248
-4.91639
-4.92055
-4.92501
-4.92989
-4.93527
-4.94111
-4.94734
-4.95391
-4.96079
-4.96794
-4.9752
-4.98251
-5.02464
-5.02536
-5.02628
-5.02731
-5.02828
-5.02911
-5.02998
-5.03126
-5.03319
-5.03578
-5.03881
-5.04207
-5.04552
-5.04927
-5.0535
-5.05829
-5.06352
-5.06902
-5.07463
-5.08029
-5.08596
-5.09162
-5.0973
-5.15298
-5.15386
-5.15484
-5.15575
-5.15645
-5.15694
-5.15751
-5.15852
-5.16014
-5.16227
-5.16471
-5.16729
-5.17004
-5.17317
-5.17689
-5.18118
-5.18582
-5.1905
-5.19499
-5.19929
-5.20352
-5.20777
-5.21216
-5.28105
-5.28211
-5.28314
-5.28385
-5.28423
-5.28442
-5.28476
-5.28553
-5.28679
-5.28841
-5.29019
-5.29207
-5.29419
-5.29681
-5.30008
-5.30387
-5.30779
-5.31147
-5.31477
-5.3178
-5.32082
-5.32398
-5.32733
-5.40892
-5.41014
-5.41116
-5.41153
-5.41152
-5.41146
-5.41163
-5.41217
-5.41304
-5.41409
-5.41522
-5.41647
-5.41806
-5.42022
-5.42297
-5.42605
-5.42906
-5.43167
-5.43388
-5.43592
-5.43804
-5.44028
-5.4426
-5.53669
-5.53782
-5.53878
-5.53869
-5.53817
-5.53792
-5.53797
-5.53829
-5.53879
-5.53937
-5.53999
-5.54076
-5.54186
-5.54342
-5.5454
-5.54753
-5.54948
-5.5511
-5.55245
-5.55375
-5.55512
-5.55651
-5.55781
-5.6646
-5.66526
-5.66601
-5.66587
-5.6651
-5.66484
-5.66483
-5.66495
-5.66514
-5.66535
-5.66558
-5.66588
-5.66633
-5.66697
-5.66777
-5.66859
-5.66932
-5.66992
-5.67042
-5.67092
-5.67144
-5.67195
-5.67243
476.259
495.283
504.816
508.597
329.63
340.351
342.866
336.34
210.622
220.572
227.375
229.908
115.556
135.492
151.527
159.167
24.8597
37.6678
63.0724
82.0842
0.175644
1.52664
3.36184
11.3529
-0.634585
-0.502182
-0.409477
-0.505844
-0.741338
-0.695532
-0.696603
-0.743982
-0.992233
-0.965465
-0.94988
-0.938626
-1.22015
-1.20363
-1.1899
-1.17495
-1.43291
-1.42383
-1.41722
-1.41468
-1.6397
-1.63715
-1.63573
-1.63992
-1.84033
-1.84386
-1.84788
-1.85643
-2.033
-2.04223
-2.05172
-2.06442
-2.21663
-2.23053
-2.2452
-2.26159
-2.39135
-2.40848
-2.4271
-2.44639
-2.55774
-2.57687
-2.59779
-2.61872
-2.71653
-2.73658
-2.75851
-2.77998
-2.86852
-2.88865
-2.91059
-2.93188
-3.01449
-3.0341
-3.0554
-3.07604
-3.15548
-3.17414
-3.1944
-3.21407
-3.29215
-3.30966
-3.3287
-3.34726
-3.42492
-3.44125
-3.45906
-3.47651
-3.55438
-3.56955
-3.58617
-3.60256
-3.68136
-3.69543
-3.71088
-3.72617
-3.8066
-3.81966
-3.83394
-3.848
-3.93041
-3.94258
-3.95571
-3.96847
-4.0528
-4.06415
-4.07619
-4.08768
-4.17366
-4.18419
-4.19518
-4.2055
-4.29303
-4.3027
-4.31267
-4.32193
-4.41115
-4.41998
-4.42899
-4.43724
-4.5283
-4.53635
-4.54442
-4.55163
-4.64465
-4.65186
-4.65892
-4.66506
-4.76016
-4.76638
-4.77235
-4.77749
-4.87468
-4.87977
-4.88473
-4.8891
-4.98836
-4.99241
-4.99655
-5.0004
-5.10185
-5.10512
-5.10863
-5.11192
-5.21579
-5.21848
-5.2213
-5.22387
-5.33011
-5.33216
-5.33427
-5.33619
-5.44438
-5.44573
-5.4473
-5.44891
-5.5585
-5.55923
-5.56049
-5.56217
-5.67273
-5.67338
-5.67475
-5.67639
497.307
295.897
225.678
222.658
214.577
228.703
234.271
235.318
235.014
234.716
234.578
235.868
244.403
316.476
487.498
577.525
633.807
685.205
712.698
311.933
233.118
227.434
228.043
223.015
228.84
232.816
234.094
234.194
234.142
234.143
235.333
242.678
298.787
409.099
477.343
524.329
556.854
583.848
227.608
223.18
229.637
229.515
228.567
230.002
232.11
233.136
233.424
233.581
233.746
234.313
240.111
280.088
346.101
390.752
426.464
449.833
471.362
166.785
208.989
230.1
230.281
230.159
230.87
231.988
232.54
232.85
233.154
233.504
233.033
225.464
250.005
291.078
306.822
327.381
352.525
373.887
100.171
160.226
225.112
230.237
230.855
231.236
231.895
232.206
232.441
232.827
233.074
228.292
194.233
218.055
243.868
237.921
245.547
270.893
288.805
28.8609
83.6729
193.234
229.801
231.077
231.303
231.672
231.885
232.097
232.617
231.115
196.619
165.491
190.931
209.12
209.566
211.949
217.5
227.394
-0.0354231
11.2959
95.3766
198.713
230.558
231.324
231.553
231.561
231.77
231.904
223.297
144.591
152.412
174.498
194.348
201.694
201.087
193.233
194.65
-1.00098
-2.54551
17.6039
101.701
193.13
230.627
231.267
231.255
231.24
229.132
169.539
121.608
155.234
179.106
195.667
198.773
191.65
183.236
172.611
-0.988941
-1.49975
-4.12876
18.5422
93.6838
179.748
225.283
230.35
228.953
191.409
97.8772
109.561
163.264
196.985
206.365
195.144
180.411
169.527
154.932
-1.14894
-1.2618
-1.95482
-4.60506
11.7865
68.707
141.963
193.365
182.511
92.6
60.6147
93.2006
143.348
181.607
189.593
172.507
161.36
153.648
144.349
-1.411
-1.41348
-1.55059
-2.39108
-5.72719
-0.755214
23.0003
54.8794
52.0394
32.154
61.9614
76.138
95.1698
129.869
134.713
129.834
129.283
129.75
126.538
-1.65639
-1.69273
-1.72118
-1.8493
-2.63386
-5.56024
-7.48076
-6.38357
-0.164814
17.7348
30.0515
51.1231
65.1874
76.9756
80.4433
85.3297
91.1508
101.504
97.0436
-1.88059
-1.93892
-2.0036
-2.03816
-2.13407
-2.86919
-4.40627
-5.72746
-5.384
-0.381548
10.7312
29.3097
42.5016
43.1302
48.8161
54.2559
59.618
76.8765
71.9611
-2.0926
-2.15427
-2.23729
-2.32777
-2.40971
-2.58435
-2.99443
-3.31926
-2.9451
-1.8567
0.480748
7.02627
17.5242
22.3105
30.7531
34.6245
41.7726
52.2775
56.7884
-2.29295
-2.35358
-2.43419
-2.5375
-2.65851
-2.80283
-2.98719
-3.08706
-3.1357
-3.13862
-3.31484
-4.15227
-2.80789
3.95533
12.1903
15.4055
27.626
37.5073
42.184
-2.47962
-2.53848
-2.61295
-2.70502
-2.81818
-2.95903
-3.12286
-3.26667
-3.42758
-3.59835
-4.10955
-5.1817
-4.31944
-1.69464
1.30008
3.24629
11.4914
20.5142
32.6331
-2.65274
-2.70916
-2.77817
-2.85985
-2.95584
-3.07252
-3.21319
-3.36636
-3.54355
-3.74847
-4.04904
-4.10833
-3.83859
-3.29035
-2.34277
-0.929974
0.945096
6.48881
24.7886
-2.81373
-2.86731
-2.93135
-3.0058
-3.09128
-3.19179
-3.31368
-3.45964
-3.64359
-3.87772
-4.03069
-3.96815
-3.85475
-3.5787
-3.18791
-2.6531
-2.38414
-1.275
14.6594
-2.96469
-3.01515
-3.07454
-3.14316
-3.22211
-3.31545
-3.43005
-3.57354
-3.76234
-3.9884
-4.13436
-4.1429
-4.03362
-3.79998
-3.51667
-3.17709
-3.37757
-4.36217
7.39576
-3.10762
-3.15489
-3.20992
-3.27333
-3.34679
-3.43514
-3.54562
-3.6868
-3.86907
-4.074
-4.22821
-4.26965
-4.19261
-4.02268
-3.8074
-3.4294
-3.827
-5.9746
3.37953
-3.24418
-3.28835
-3.3393
-3.39782
-3.46593
-3.54858
-3.65289
-3.78632
-3.95204
-4.13264
-4.27784
-4.33851
-4.30861
-4.21266
-4.0674
-3.79278
-4.55311
-7.05746
1.88876
-3.37577
-3.41698
-3.46401
-3.51778
-3.58034
-3.65633
-3.75187
-3.87229
-4.01734
-4.17252
-4.30399
-4.3789
-4.39328
-4.36222
-4.29102
-4.34175
-5.14275
-6.95315
1.15285
-3.50341
-3.54176
-3.58497
-3.63398
-3.69075
-3.7593
-3.84441
-3.94939
-4.0727
-4.2035
-4.32025
-4.40277
-4.44885
-4.46788
-4.47306
-4.76373
-4.73616
-6.1489
-0.518624
-3.62785
-3.66333
-3.70278
-3.74704
-3.7979
-3.85856
-3.93236
-4.02115
-4.12315
-4.23093
-4.33138
-4.41267
-4.47427
-4.52723
-4.58982
-4.80252
-4.69062
-4.60766
-3.38899
-3.74973
-3.78223
-3.81791
-3.85753
-3.90254
-3.95525
-4.01762
-4.09043
-4.17235
-4.25853
-4.34102
-4.4128
-4.47394
-4.53178
-4.59386
-4.69406
-4.70495
-4.80273
-5.90995
-3.86958
-3.89901
-3.93095
-3.96607
-4.00544
-4.05041
-4.10183
-4.15986
-4.22356
-4.28983
-4.35366
-4.41087
-4.4612
-4.50729
-4.55156
-4.59928
-4.59268
-4.68776
-5.15402
-3.98791
-4.01424
-4.04255
-4.07337
-4.1073
-4.14492
-4.1863
-4.23128
-4.27913
-4.3276
-4.37345
-4.41434
-4.44997
-4.48085
-4.5069
-4.51771
-4.46089
-4.5219
-4.96341
-4.105
-4.12837
-4.15328
-4.18002
-4.20872
-4.23944
-4.27186
-4.30569
-4.34016
-4.37342
-4.40337
-4.42883
-4.44985
-4.46745
-4.47824
-4.46493
-4.39349
-4.38303
-4.69777
-4.22089
-4.24153
-4.26331
-4.28617
-4.30988
-4.33423
-4.35886
-4.38339
-4.40694
-4.42797
-4.44516
-4.45807
-4.46727
-4.47461
-4.47401
-4.44757
-4.37746
-4.34356
-4.0881
-4.3356
-4.3537
-4.3725
-4.39166
-4.41072
-4.42942
-4.44752
-4.46452
-4.47954
-4.49143
-4.49924
-4.50295
-4.50351
-4.50214
-4.49319
-4.46497
-4.4076
-4.40831
-4.01022
-4.44924
-4.46488
-4.48079
-4.49648
-4.51141
-4.52539
-4.53825
-4.54945
-4.55817
-4.5637
-4.56519
-4.5624
-4.55631
-4.54608
-4.52879
-4.50146
-4.44602
-4.43116
-3.97474
-4.56193
-4.57516
-4.58835
-4.60094
-4.61246
-4.62278
-4.63168
-4.63865
-4.64308
-4.64446
-4.64208
-4.63526
-4.62341
-4.6046
-4.58588
-4.56361
-4.50903
-4.4721
-4.0531
-4.6737
-4.68472
-4.69548
-4.70553
-4.71446
-4.72211
-4.72817
-4.73222
-4.73407
-4.73326
-4.72886
-4.71928
-4.70295
-4.68389
-4.67577
-4.665
-4.60024
-4.57215
-4.35072
-4.78471
-4.79387
-4.80264
-4.81069
-4.8177
-4.82346
-4.82759
-4.8299
-4.83049
-4.82904
-4.82377
-4.81167
-4.79416
-4.78804
-4.80217
-4.78381
-4.7076
-4.70451
-4.62949
-4.89532
-4.90302
-4.9102
-4.91666
-4.9222
-4.92661
-4.92962
-4.93123
-4.93163
-4.93055
-4.92525
-4.9124
-4.90389
-4.92218
-4.93989
-4.90937
-4.83528
-4.83076
-4.69135
-5.00587
-5.01235
-5.01825
-5.02343
-5.02778
-5.03119
-5.03363
-5.0352
-5.03619
-5.03665
-5.03395
-5.02837
-5.03775
-5.06212
-5.06853
-5.04654
-5.00366
-5.0058
-5.24226
-5.11655
-5.12189
-5.12672
-5.13091
-5.13435
-5.13697
-5.1389
-5.14049
-5.1423
-5.1454
-5.14946
-5.15735
-5.17301
-5.18383
-5.18694
-5.17802
-5.17841
-5.19452
-5.22263
-5.2275
-5.23181
-5.23575
-5.23918
-5.24195
-5.24395
-5.24532
-5.24641
-5.248
-5.25177
-5.26014
-5.2736
-5.2824
-5.28582
-5.28935
-5.2923
-5.30846
-5.30655
-5.21358
-5.33901
-5.34247
-5.34567
-5.34848
-5.3507
-5.35217
-5.35297
-5.35328
-5.35356
-5.35507
-5.35966
-5.36593
-5.36846
-5.37135
-5.379
-5.38816
-5.3995
-5.37752
-5.26873
-5.45141
-5.45436
-5.45708
-5.45952
-5.46143
-5.46259
-5.46289
-5.46242
-5.46123
-5.45967
-5.45851
-5.45726
-5.45496
-5.459
-5.46818
-5.47788
-5.49118
-5.47424
-5.39436
-5.5649
-5.56812
-5.57114
-5.57388
-5.57614
-5.57762
-5.57795
-5.57682
-5.57385
-5.56889
-5.56151
-5.55088
-5.53592
-5.54082
-5.55858
-5.57471
-5.60665
-5.62543
-5.59759
-5.67827
-5.6812
-5.68428
-5.68723
-5.68981
-5.69162
-5.69226
-5.69115
-5.68757
-5.68095
-5.66994
-5.6502
-5.61684
-5.61461
-5.6599
-5.68775
-5.73992
-5.82343
-5.86037
)
;

boundaryField
{
    leftWall
    {
        type            calculated;
        value           nonuniform List<scalar> 
50
(
519.772
460.745
400.084
338.52
276.723
214.767
152.227
88.773
26.3077
-0.193005
-0.354241
-0.508743
-0.647868
-0.798328
-0.944445
-1.0906
-1.23621
-1.38106
-1.52501
-1.668
-1.81005
-1.95114
-2.0913
-2.23057
-2.36902
-2.50669
-2.64366
-2.77997
-2.91568
-3.05083
-3.18547
-3.31962
-3.45332
-3.58657
-3.71941
-3.85185
-3.98388
-4.11551
-4.24671
-4.37746
-4.50775
-4.63758
-4.76698
-4.89598
-5.02464
-5.15298
-5.28105
-5.40892
-5.53669
-5.6646
)
;
    }
    rightWall
    {
        type            calculated;
        value           nonuniform List<scalar> 
50
(
1286.72
1225.02
1159.92
1095.77
1029.91
961.229
891.397
821.121
712.698
583.848
471.362
373.887
288.805
227.394
194.65
172.611
154.932
144.349
126.538
97.0436
71.9611
56.7884
42.184
32.6331
24.7886
14.6594
7.39576
3.37953
1.88876
1.15285
-0.518624
-3.38899
-5.90995
-5.15402
-4.96341
-4.69777
-4.0881
-4.01022
-3.97474
-4.0531
-4.35072
-4.62949
-4.69135
-5.24226
-5.22263
-5.21358
-5.26873
-5.39436
-5.59759
-5.86037
)
;
    }
    lowerWall
    {
        type            calculated;
        value           nonuniform List<scalar> 
62
(
549.201
547.778
551.553
559.686
570.963
584.474
599.855
616.93
635.622
655.703
676.94
699.116
722.006
745.357
768.899
792.314
815.192
837.101
857.277
873.041
884.643
893.413
900.612
871.216
809.244
748.333
688.84
631
574.647
519.226
469.335
538.84
557.863
567.402
571.184
1284.23
1238.85
1047.36
848.227
820.782
840.374
808.744
698.246
1312.65
830.094
603.44
471.926
412.201
393.519
392.876
400.056
419.278
454.169
512.206
617.698
799.956
1042.64
1258.91
1381.5
1406.23
1362.22
1313.76
)
;
    }
    atmosphere
    {
        type            calculated;
        value           nonuniform List<scalar> 
46
(
-5.72904
-5.72904
-5.72904
-5.72904
-5.72906
-5.72908
-5.7291
-5.72911
-5.72912
-5.72913
-5.72914
-5.72914
-5.72914
-5.72914
-5.72914
-5.72914
-5.72914
-5.72914
-5.72913
-5.72913
-5.72911
-5.72909
-5.72906
-5.72904
-5.72904
-5.72904
-5.72904
-5.72904
-5.72904
-5.72904
-5.72904
-5.72904
-5.72904
-5.72904
-5.72904
-5.72904
-5.72904
-5.72904
-5.72904
-5.72904
-5.73024
-5.73594
-5.74994
-5.7739
-5.78826
-6.05257
)
;
    }
    defaultFaces
    {
        type            empty;
    }
}


// ************************************************************************* //
