/*--------------------------------*- C++ -*----------------------------------*\
  =========                 |
  \\      /  F ield         | OpenFOAM: The Open Source CFD Toolbox
   \\    /   O peration     | Website:  https://openfoam.org
    \\  /    A nd           | Version:  9
     \\/     M anipulation  |
\*---------------------------------------------------------------------------*/
FoamFile
{
    format      ascii;
    class       volScalarField;
    location    "0.7";
    object      p_rgh;
}
// * * * * * * * * * * * * * * * * * * * * * * * * * * * * * * * * * * * * * //

dimensions      [1 -1 -2 0 0 0 0];

internalField   nonuniform List<scalar> 
2268
(
-2.81922
-2.82242
-2.82755
-2.83478
-2.84423
-2.85527
-2.86767
-2.88149
-2.89685
-2.91393
-2.93302
-2.95442
-2.97853
-3.0058
-3.03659
-3.07088
-3.10768
-3.14404
-3.17372
-3.18956
-3.18572
-3.16968
-3.15421
-2.82062
-2.82378
-2.82678
-2.83341
-2.84302
-2.85462
-2.86775
-2.88229
-2.89836
-2.91613
-2.93589
-2.95796
-2.98273
-3.01062
-3.04191
-3.07651
-3.11331
-3.14948
-3.17998
-3.19582
-3.19056
-3.16984
-3.15068
-2.82059
-2.82435
-2.82619
-2.83246
-2.84205
-2.85397
-2.86763
-2.88283
-2.89959
-2.91807
-2.9385
-2.96122
-2.98658
-3.01495
-3.04657
-3.08127
-3.11793
-3.15379
-3.18392
-3.201
-3.19827
-3.17753
-3.15652
-2.81991
-2.82411
-2.82565
-2.8318
-2.8412
-2.85318
-2.8671
-2.8827
-2.89993
-2.9189
-2.9398
-2.96293
-2.98862
-3.01722
-3.04894
-3.08367
-3.12039
-3.15654
-3.18739
-3.20637
-3.20727
-3.18953
-3.16745
-2.81811
-2.82286
-2.82485
-2.83101
-2.84025
-2.85217
-2.86616
-2.88195
-2.89944
-2.91868
-2.93983
-2.96314
-2.98893
-3.01753
-3.04919
-3.08387
-3.12081
-3.15774
-3.19013
-3.21151
-3.21592
-3.20186
-3.17966
-2.81531
-2.82062
-2.82355
-2.82983
-2.83901
-2.85085
-2.86485
-2.88071
-2.8983
-2.91765
-2.93888
-2.9622
-2.98791
-3.01633
-3.04775
-3.08227
-3.11939
-3.15725
-3.19153
-3.21553
-3.22303
-3.21243
-3.19056
-2.8116
-2.81766
-2.82163
-2.82817
-2.83739
-2.8492
-2.86316
-2.87901
-2.89662
-2.91596
-2.93714
-2.96033
-2.98581
-3.01389
-3.0449
-3.07907
-3.11619
-3.15485
-3.19099
-3.2176
-3.22774
-3.22007
-3.19858
-2.80717
-2.81399
-2.81912
-2.82606
-2.83541
-2.84721
-2.86112
-2.87691
-2.89444
-2.91368
-2.9347
-2.95765
-2.98277
-3.01038
-3.04083
-3.07443
-3.11127
-3.15045
-3.18827
-3.21724
-3.22954
-3.22288
-3.20474
-2.90888
-2.92449
-2.94379
-2.97522
-3.01077
-3.04537
-3.07555
-3.09975
-3.11738
-3.12804
-3.13131
-3.12631
-3.11169
-3.08548
-3.04594
-2.99632
-2.94443
-2.89504
-2.85963
-2.90648
-2.91904
-2.93765
-2.97142
-3.00904
-3.04488
-3.07567
-3.10027
-3.11836
-3.12964
-3.13362
-3.12964
-3.11659
-3.09279
-3.05576
-3.00801
-2.9591
-2.90866
-2.86077
-2.90128
-2.91657
-2.93701
-2.97214
-3.01031
-3.04604
-3.0766
-3.10118
-3.11959
-3.13155
-3.13653
-3.13392
-3.12288
-3.10173
-3.06688
-3.01964
-2.9759
-2.93156
-2.86184
-2.89694
-2.91887
-2.94282
-2.97766
-3.01489
-3.0495
-3.07934
-3.1037
-3.12234
-3.13496
-3.14094
-3.13962
-3.13046
-3.11211
-3.07969
-3.0322
-2.99679
-2.97633
-2.86757
-2.89765
-2.92622
-2.95391
-2.98718
-3.02261
-3.05554
-3.08431
-3.10819
-3.12689
-3.14003
-3.14692
-3.14684
-3.13964
-3.12482
-3.09678
-3.04984
-3.02715
-3.07394
-2.89589
-2.90909
-2.93962
-2.97001
-3.00036
-3.03325
-3.06403
-3.09139
-3.11457
-3.13315
-3.14671
-3.15447
-3.15577
-3.15092
-3.14086
-3.12058
-3.07639
-3.06723
-3.29338
-3.02986
-2.93967
-2.96098
-2.9912
-3.01693
-3.04645
-3.07465
-3.10034
-3.12264
-3.14101
-3.15494
-3.16363
-3.16653
-3.16465
-3.16093
-3.15302
-3.11783
-3.13512
-3.76847
-3.44996
-3.00017
-2.99552
-3.01731
-3.03658
-3.06179
-3.08708
-3.11092
-3.13222
-3.15032
-3.16463
-3.17436
-3.17919
-3.18137
-3.1862
-3.19455
-3.20555
-3.33613
-4.59819
-4.45606
-2.79932
-2.80727
-2.81435
-2.82216
-2.83185
-2.84368
-2.85748
-2.87308
-2.89037
-2.90929
-2.92988
-2.95225
-2.9766
-3.00321
-3.03244
-3.06473
-3.10056
-3.13986
-3.17991
-3.21319
-3.23068
-3.2287
-3.21818
-2.7867
-2.79648
-2.80589
-2.8152
-2.82563
-2.83769
-2.85142
-2.86672
-2.88353
-2.90181
-2.92153
-2.94277
-2.96563
-2.99029
-3.01704
-3.0463
-3.07872
-3.11491
-3.15362
-3.18883
-3.2103
-3.20978
-3.19873
-2.7727
-2.78433
-2.79597
-2.80687
-2.81819
-2.83064
-2.84438
-2.85942
-2.87573
-2.89328
-2.91207
-2.93212
-2.95347
-2.97625
-3.00066
-3.02697
-3.0556
-3.08674
-3.11922
-3.1496
-3.1715
-3.17953
-3.17681
-2.75776
-2.77128
-2.7851
-2.7976
-2.80989
-2.82284
-2.83672
-2.8516
-2.86751
-2.88445
-2.90242
-2.92145
-2.94158
-2.96287
-2.98545
-3.00943
-3.03487
-3.06148
-3.0881
-3.11238
-3.13129
-3.14296
-3.14844
-2.74237
-2.75779
-2.77376
-2.78783
-2.80115
-2.81469
-2.82882
-2.84368
-2.85935
-2.87587
-2.89325
-2.91153
-2.93075
-2.95095
-2.97216
-2.99439
-3.01751
-3.04112
-3.06428
-3.08552
-3.10331
-3.11703
-3.12776
-2.72701
-2.74433
-2.76236
-2.77798
-2.79233
-2.80653
-2.82102
-2.83598
-2.85156
-2.86781
-2.8848
-2.90257
-2.92114
-2.94054
-2.96077
-2.98175
-3.00329
-3.02503
-3.04635
-3.06647
-3.08468
-3.10065
-3.11531
-2.7122
-2.73135
-2.75134
-2.76844
-2.78381
-2.79869
-2.81358
-2.82873
-2.8443
-2.8604
-2.87711
-2.89449
-2.91257
-2.93135
-2.95081
-2.97084
-2.99127
-3.0118
-3.03208
-3.05174
-3.07054
-3.08836
-3.10597
-2.69844
-2.7193
-2.7411
-2.75957
-2.77591
-2.79146
-2.80675
-2.82209
-2.83767
-2.85365
-2.87011
-2.88713
-2.90475
-2.92297
-2.94175
-2.961
-2.98056
-3.00025
-3.01987
-3.03934
-3.05865
-3.07784
-3.09772
-2.68618
-2.7086
-2.73203
-2.75174
-2.76895
-2.78508
-2.80072
-2.8162
-2.83175
-2.84754
-2.86369
-2.8803
-2.8974
-2.91502
-2.93312
-2.95162
-2.97043
-2.98943
-3.00856
-3.02791
-3.04761
-3.06784
-3.08947
-2.67582
-2.69964
-2.72447
-2.74526
-2.76322
-2.77982
-2.7957
-2.81121
-2.82661
-2.84209
-2.8578
-2.87386
-2.89032
-2.90722
-2.92455
-2.94226
-2.96029
-2.97861
-2.99724
-3.01638
-3.03628
-3.05717
-3.08003
-2.66771
-2.69275
-2.71877
-2.74044
-2.75899
-2.77592
-2.79189
-2.80728
-2.82237
-2.83737
-2.85246
-2.86777
-2.88341
-2.89942
-2.91583
-2.93261
-2.94976
-2.96728
-2.98528
-3.00401
-3.02377
-3.04487
-3.06835
-2.66214
-2.68823
-2.71521
-2.73758
-2.75654
-2.77364
-2.78954
-2.80464
-2.81923
-2.83355
-2.84782
-2.86218
-2.87677
-2.89168
-2.90695
-2.92262
-2.9387
-2.95523
-2.97235
-2.99036
-3.00958
-3.03032
-3.05369
-2.65938
-2.68634
-2.71407
-2.73695
-2.75616
-2.77326
-2.78893
-2.80357
-2.81749
-2.83095
-2.84417
-2.85737
-2.87069
-2.88427
-2.8982
-2.91252
-2.92729
-2.94257
-2.95851
-2.97539
-2.99356
-3.0133
-3.03576
-2.65965
-2.68732
-2.71561
-2.73883
-2.75815
-2.77512
-2.79042
-2.80445
-2.81755
-2.82998
-2.842
-2.85384
-2.86571
-2.87776
-2.89011
-2.90286
-2.91606
-2.92978
-2.94417
-2.95949
-2.97605
-2.99409
-3.01475
-2.66316
-2.69142
-2.7201
-2.74351
-2.76282
-2.77955
-2.79439
-2.80773
-2.81991
-2.83121
-2.84191
-2.85227
-2.86253
-2.87289
-2.88349
-2.89444
-2.90581
-2.91768
-2.93014
-2.94344
-2.95782
-2.97344
-2.99142
-2.67014
-2.69887
-2.72779
-2.7513
-2.77052
-2.78697
-2.80131
-2.81393
-2.82514
-2.83527
-2.8446
-2.85342
-2.86199
-2.87056
-2.87928
-2.88827
-2.8976
-2.90732
-2.91752
-2.92836
-2.94002
-2.95258
-2.96705
-2.68078
-2.70989
-2.73896
-2.76251
-2.78163
-2.79781
-2.81167
-2.82359
-2.83387
-2.84284
-2.85081
-2.85808
-2.86495
-2.87168
-2.87845
-2.88537
-2.8925
-2.89987
-2.90751
-2.91554
-2.92406
-2.93305
-2.94337
-2.69527
-2.72472
-2.75389
-2.77748
-2.79654
-2.8125
-2.82595
-2.83723
-2.84665
-2.85452
-2.86116
-2.86692
-2.87211
-2.877
-2.8818
-2.8866
-2.89145
-2.89633
-2.90124
-2.90623
-2.91134
-2.91647
-2.92228
-2.71378
-2.74356
-2.77285
-2.79651
-2.81557
-2.83139
-2.84451
-2.85524
-2.86385
-2.87067
-2.87603
-2.8803
-2.88384
-2.88691
-2.88974
-2.89241
-2.89494
-2.89731
-2.89944
-2.90134
-2.90299
-2.90424
-2.90552
-2.73642
-2.76658
-2.79601
-2.81979
-2.8389
-2.85464
-2.86746
-2.87765
-2.88547
-2.89124
-2.89533
-2.89813
-2.9
-2.90126
-2.90211
-2.90265
-2.90289
-2.90276
-2.90219
-2.90111
-2.89946
-2.89706
-2.89415
-2.76323
-2.79382
-2.82342
-2.84732
-2.86646
-2.88205
-2.8945
-2.90407
-2.911
-2.91565
-2.91839
-2.91965
-2.91983
-2.91922
-2.91807
-2.91646
-2.91442
-2.91187
-2.9087
-2.90482
-2.90014
-2.8945
-2.88795
-2.79411
-2.8252
-2.85493
-2.87882
-2.8978
-2.91302
-2.92485
-2.93353
-2.93934
-2.94266
-2.94391
-2.94353
-2.94191
-2.93938
-2.93616
-2.93237
-2.92803
-2.92308
-2.9174
-2.91086
-2.90337
-2.89479
-2.88506
-2.82883
-2.86042
-2.89015
-2.91375
-2.9322
-2.94658
-2.95728
-2.9646
-2.9689
-2.97058
-2.97011
-2.96793
-2.96442
-2.95988
-2.95453
-2.94851
-2.94184
-2.93446
-2.92626
-2.91709
-2.90683
-2.89536
-2.88255
-2.86704
-2.89909
-2.9286
-2.95144
-2.96872
-2.98156
-2.99039
-2.99566
-2.99786
-2.9975
-2.99504
-2.9909
-2.98541
-2.97882
-2.97133
-2.96305
-2.95401
-2.94417
-2.93337
-2.92148
-2.90833
-2.89379
-2.87768
-2.90839
-2.94081
-2.96981
-2.99127
-3.00656
-3.01688
-3.02285
-3.02516
-3.02454
-3.02161
-3.01686
-3.01063
-3.00313
-2.99453
-2.98495
-2.97445
-2.96307
-2.95072
-2.93727
-2.92254
-2.90634
-2.88855
-2.86899
-2.95271
-2.98544
-3.01369
-3.03302
-3.04525
-3.05182
-3.0537
-3.05196
-3.04762
-3.04149
-3.03408
-3.02561
-3.01613
-3.00562
-2.99408
-2.98149
-2.96786
-2.95309
-2.93701
-2.91943
-2.90017
-2.87922
-2.8564
-3.00025
-3.0334
-3.06072
-3.07698
-3.08481
-3.08612
-3.08243
-3.07531
-3.0662
-3.05609
-3.04552
-3.03461
-3.0232
-3.011
-2.99777
-2.98336
-2.96769
-2.95068
-2.93214
-2.91185
-2.88972
-2.86593
-2.84043
-3.05211
-3.08592
-3.11219
-3.12412
-3.12582
-3.11996
-3.10887
-3.09479
-3.07962
-3.06462
-3.05036
-3.03676
-3.02341
-3.00974
-2.99519
-2.97937
-2.96205
-2.94314
-2.92247
-2.89982
-2.87521
-2.84911
-2.82158
-3.11048
-3.14537
-3.17018
-3.17593
-3.16919
-3.15377
-3.13303
-3.11007
-3.08738
-3.06645
-3.04781
-3.03125
-3.01604
-3.00124
-2.9859
-2.96929
-2.95094
-2.93068
-2.90839
-2.8839
-2.85726
-2.82925
-2.80007
-3.17912
-3.21547
-3.23758
-3.23416
-3.21589
-3.188
-3.15494
-3.12088
-3.08899
-3.061
-3.03741
-3.01777
-3.00103
-2.98578
-2.97056
-2.95414
-2.93566
-2.91475
-2.89134
-2.86537
-2.83722
-2.80746
-2.7765
-3.26211
-3.3009
-3.31725
-3.30022
-3.26645
-3.2228
-3.17453
-3.12691
-3.08401
-3.04803
-3.01933
-2.99708
-2.97975
-2.9653
-2.95152
-2.9365
-2.91886
-2.89793
-2.87362
-2.84618
-2.81594
-2.78412
-2.75119
-3.36476
-3.40417
-3.4104
-3.37394
-3.32032
-3.25764
-3.19126
-3.12738
-3.07183
-3.02763
-2.99469
-2.97135
-2.95521
-2.9434
-2.9326
-2.92005
-2.90381
-2.88301
-2.85763
-2.82826
-2.79575
-2.76136
-2.72617
-3.47517
-3.54834
-3.51326
-3.45016
-3.37281
-3.28945
-3.20271
-3.11999
-3.05087
-2.99974
-2.96517
-2.94369
-2.93155
-2.92468
-2.91834
-2.90878
-2.89378
-2.87243
-2.84514
-2.81409
-2.77976
-2.74301
-2.70587
-6.74778
-3.95845
-3.58577
-3.50153
-3.40583
-3.3076
-3.20201
-3.09956
-3.01886
-2.9653
-2.93369
-2.918
-2.91298
-2.91344
-2.9126
-2.90554
-2.89077
-2.86762
-2.8371
-2.80134
-2.76254
-2.72334
-2.69251
-23.0634
-3.7758
-3.52013
-3.46418
-3.37856
-3.28863
-3.17519
-3.05845
-2.97477
-2.92911
-2.90765
-2.90102
-2.90373
-2.91237
-2.91731
-2.91045
-2.8933
-2.86654
-2.83193
-2.79134
-2.74779
-2.70536
-2.6666
-23.5832
-6.3708
-3.15965
-3.25245
-3.24394
-3.20068
-3.09608
-2.99611
-2.94072
-2.91683
-2.90678
-2.91149
-2.91726
-2.92237
-2.93085
-2.92262
-2.89829
-2.86475
-2.82525
-2.77933
-2.72805
-2.69021
-2.74091
-23.2903
-23.8339
-7.35209
-2.82594
-3.06787
-3.14424
-3.3079
-3.33839
-3.15095
-2.92162
-2.89874
-2.92304
-2.94144
-2.95041
-2.95033
-3.05308
-3.80296
-3.78562
-3.72969
-3.48631
-2.73037
-2.64196
-2.611
-23.0613
-23.0742
-22.6195
-18.5826
-16.8985
-16.6006
-9.46673
-2.95217
-2.91759
-2.94395
-2.88339
-2.87681
-2.89511
-2.98633
-3.00516
-2.95088
-2.87535
-2.87397
-2.82067
-2.75013
-2.74588
-2.74847
-2.67595
-6.66883
-5.95812
-3.90991
-90.2906
-110.364
-40.7867
-4.46328
-3.45457
-4.39217
-3.38282
-3.47037
-3.30596
-38.4704
-43.4943
-19.5087
-3.30868
-3.19689
-3.12447
-2.93799
-14.3423
-65.6181
-124.136
-174.591
0.798484
0.945511
1.05013
-47.8471
-194.147
-106.855
-105.06
-111.206
-96.4175
-50.6317
-232.417
-2089.08
-3007
-3022.54
-2927.51
-2891.86
-2902.35
-2941.04
-3154.25
-3632.46
-3635.51
-3648.78
-3657.1
0.578516
0.692186
0.698513
0.548179
-334.14
-1482.08
-1521.79
-1532.48
-1549.31
-1549.65
-795.923
-1036.94
-3089.8
-3509.25
-3497.51
-3510.02
-3497.95
-3509.46
-3481.71
-2818.79
-2018.51
-2928.21
-4397.56
0.294612
0.278344
0.206871
-12.4312
-30.0331
-101.653
-52.6941
-24.9083
-47.2286
-28.3443
-15.3449
-97.6965
-159.276
-249.636
-152.042
-237.363
-137.62
-255.03
-142.33
-230.807
-118.88
-250.192
-158.677
-3.25507
-3.28122
-3.33977
-3.38041
-3.20365
-3.19955
-3.1998
-3.20011
-3.17315
-3.16926
-3.16133
-3.1513
-3.15158
-3.15487
-3.15682
-3.15582
-3.13633
-3.14267
-3.14903
-3.15435
-3.12754
-3.136
-3.14453
-3.15261
-3.12101
-3.13156
-3.14231
-3.15257
-3.11511
-3.12746
-3.1401
-3.15222
-3.10877
-3.12255
-3.13667
-3.15024
-3.10074
-3.11558
-3.13081
-3.14549
-3.08988
-3.10538
-3.12137
-3.13684
-3.07538
-3.09111
-3.10745
-3.12338
-3.05683
-3.07229
-3.08854
-3.10456
-3.03435
-3.04899
-3.06466
-3.08032
-3.00867
-3.02191
-3.03643
-3.05122
-2.98114
-2.99239
-3.00516
-3.01848
-2.95363
-2.96236
-2.97279
-2.98398
-2.92828
-2.93408
-2.94161
-2.95002
-2.90714
-2.90978
-2.91395
-2.91901
-2.89166
-2.89108
-2.8916
-2.89286
-2.88188
-2.87824
-2.87503
-2.87226
-2.87591
-2.86943
-2.86264
-2.85595
-2.87033
-2.86103
-2.85093
-2.84078
-2.86193
-2.84962
-2.8364
-2.82342
-2.84938
-2.8339
-2.81769
-2.80233
-2.83311
-2.81454
-2.79537
-2.77768
-2.81407
-2.7927
-2.77053
-2.75023
-2.79289
-2.76901
-2.74369
-2.72041
-2.76934
-2.74299
-2.71445
-2.68808
-2.7435
-2.71464
-2.6829
-2.65376
-2.71563
-2.68464
-2.65083
-2.61968
-2.68824
-2.65565
-2.62029
-2.58773
-2.66579
-2.63215
-2.59553
-2.56175
-2.65829
-2.62581
-2.58929
-2.54638
-2.63005
-2.59874
-2.56361
-2.54026
-2.72675
-2.68755
-2.64378
-2.61193
-2.60065
-2.54313
-2.48093
-2.43109
-2.56471
-2.47895
-2.40325
-2.38239
-221.948
-253.01
-272.852
-310.008
-3657.92
-3600.42
-3644.82
-3913.65
-4500.25
-4544.87
-4558.22
-4515.13
-254.515
-223.098
-136.476
-145.916
-3.175
-3.07558
-3.06268
-3.07035
-3.08808
-3.1087
-3.1296
-3.14932
-3.16697
-3.1818
-3.19326
-3.20228
-3.21394
-3.23495
-3.2898
-3.90498
-6.85205
-13.4839
-8.45152
-3.16535
-3.13007
-3.11184
-3.11298
-3.12486
-3.14131
-3.15965
-3.17839
-3.19659
-3.21333
-3.22804
-3.24279
-3.26405
-3.30539
-3.70686
-7.47407
-16.3733
-33.7449
-186.702
-3.1433
-3.14321
-3.14172
-3.14786
-3.15989
-3.17565
-3.19372
-3.21305
-3.23248
-3.25031
-3.26555
-3.28189
-3.31097
-3.55531
-5.147
-10.3832
-13.8533
-42.7134
-549.373
-3.15319
-3.15822
-3.16591
-3.17783
-3.19305
-3.21106
-3.2313
-3.25283
-3.27365
-3.29109
-3.30525
-3.32425
-3.50003
-4.51694
-5.9568
-4.16016
-3.22258
-30.6714
-652.513
-3.16156
-3.17341
-3.18781
-3.20528
-3.22533
-3.24787
-3.27245
-3.29742
-3.31963
-3.33684
-3.35273
-3.45855
-4.13404
-4.5571
-3.60922
-3.22901
-3.3267
-18.0979
-751.543
-3.16559
-3.18514
-3.20674
-3.23075
-3.25729
-3.28644
-3.31724
-3.34682
-3.37161
-3.39166
-3.44288
-3.83535
-3.97894
-3.4964
-3.2802
-3.29043
-3.36461
-11.1981
-848.554
-3.16918
-3.19489
-3.22329
-3.25456
-3.28906
-3.32664
-3.36538
-3.4013
-3.43125
-3.46258
-3.65156
-3.75544
-3.47126
-3.36605
-3.36198
-3.37262
-3.43426
-5.5986
-944.486
-3.1719
-3.20284
-3.2376
-3.27655
-3.32015
-3.36772
-3.41619
-3.46073
-3.49855
-3.60551
-3.68273
-3.51923
-3.46704
-3.45205
-3.45178
-3.4593
-3.53489
-3.48035
-948.516
-3.17245
-3.20801
-3.24887
-3.29577
-3.3493
-3.40816
-3.46804
-3.52273
-3.59558
-3.67561
-3.61937
-3.56909
-3.55119
-3.5408
-3.54027
-3.54699
-3.63254
-3.56173
-941.755
-3.16968
-3.20922
-3.25577
-3.31062
-3.37449
-3.44542
-3.51748
-3.58461
-3.67291
-3.70143
-3.65796
-3.6494
-3.63491
-3.62602
-3.62686
-3.63689
-3.71783
-3.57668
-1115.71
-3.1625
-3.20522
-3.25677
-3.31905
-3.39302
-3.47586
-3.55946
-3.64434
-3.72655
-3.7275
-3.72803
-3.72553
-3.71311
-3.70662
-3.71185
-3.73222
-3.80496
-3.58704
-1462.11
-3.14995
-3.19482
-3.25024
-3.3188
-3.40168
-3.49501
-3.58847
-3.68691
-3.76236
-3.77149
-3.78884
-3.79397
-3.78513
-3.78184
-3.79901
-3.84677
-3.91396
-3.715
-1658.47
-3.13139
-3.17707
-3.23475
-3.30766
-3.39716
-3.49837
-3.59913
-3.69797
-3.76956
-3.80141
-3.84674
-3.86691
-3.85859
-3.85484
-3.89647
-4.01027
-4.08852
-3.98204
-1796.29
-3.10662
-3.15152
-3.20933
-3.28389
-3.37667
-3.48225
-3.58736
-3.67882
-3.75899
-3.84721
-4.17909
-4.25294
-3.92155
-3.91281
-3.99533
-4.24244
-4.32862
-4.50161
-1958.89
-3.07606
-3.11833
-3.17378
-3.24661
-3.33853
-3.44418
-3.55018
-3.64096
-3.75143
-4.25333
-6.68672
-5.15148
-3.9069
-3.90739
-4.01372
-4.41074
-7.88343
-55.0022
-2153.58
-3.04082
-3.07849
-3.12883
-3.19618
-3.28247
-3.38297
-3.48523
-3.57496
-3.71595
-6.02526
-7.14488
-5.27112
-3.79023
-3.79281
-3.87827
-4.30348
-27.0329
-846.325
-2337.75
-3.00265
-3.0338
-3.07637
-3.13448
-3.2102
-3.29966
-3.39214
-3.47821
-3.63244
-7.11607
-7.18192
-4.40861
-3.613
-3.5985
-3.62467
-3.78604
-48.1004
-2089.5
-2498.49
-2.96391
-2.98685
-3.01938
-3.06511
-3.12591
-3.19896
-3.27544
-3.35343
-4.24468
-7.13745
-7.14372
-3.88233
-3.40884
-3.36993
-3.32257
-3.18272
-49.6936
-2470.48
-2639.9
-2.92719
-2.94077
-2.9618
-2.99311
-3.03613
-3.08908
-3.14637
-3.21502
-6.2477
-7.09656
-7.01088
-3.38139
-3.18669
-3.1518
-3.08644
-2.89798
-31.2173
-2488.56
-2770.65
-2.89478
-2.89871
-2.90789
-2.92428
-2.94878
-2.98049
-3.01727
-3.24958
-6.9445
-6.98007
-3.97588
-2.95507
-2.98116
-2.96939
-2.94834
-3.0868
-26.2251
-2475.36
-2897.17
-2.86777
-2.86267
-2.86084
-2.86342
-2.87107
-2.88413
-2.89744
-5.63265
-6.78103
-6.76143
-2.84183
-2.76077
-2.8042
-2.81404
-2.8503
-3.54357
-61.083
-2576.77
-3023.15
-2.84544
-2.8326
-2.82137
-2.81239
-2.80641
-2.80138
-2.7914
-4.64645
-6.1157
-3.07071
-2.51004
-2.59294
-2.64593
-2.67493
-2.75564
-4.4711
-160.217
-2928.15
-3149.61
-2.82523
-2.80623
-2.78737
-2.76898
-2.75074
-2.72692
-2.70109
-2.81388
-2.46072
-2.3826
-2.40715
-2.46475
-2.50792
-2.5504
-2.72845
-7.28928
-315.949
-3234.32
-3275.69
-2.80406
-2.78029
-2.75524
-2.72837
-2.69917
-2.6637
-2.61006
-2.5187
-2.41491
-2.3514
-2.33913
-2.35292
-2.37527
-2.41639
-2.86943
-16.1527
-687.923
-3394.83
-3403.8
-2.78006
-2.75236
-2.72206
-2.68818
-2.6494
-2.60349
-2.5441
-2.46307
-2.37546
-2.3049
-2.25999
-2.2375
-2.23197
-2.24656
-2.77325
-44.2401
-1649.44
-3518.27
-3530.62
-2.75274
-2.72159
-2.68656
-2.64661
-2.60061
-2.54684
-2.48227
-2.40362
-2.318
-2.23657
-2.16705
-2.11373
-2.07642
-2.04884
-2.27353
-100.218
-2636.31
-3642.15
-3653.9
-2.72233
-2.68785
-2.6484
-2.60281
-2.55021
-2.4894
-2.41876
-2.33679
-2.24646
-2.15326
-2.06321
-1.98289
-1.91526
-1.85055
-1.82695
-129.306
-2990.86
-3765.99
-3775.52
-2.6891
-2.65134
-2.60762
-2.55661
-2.49764
-2.42981
-2.35208
-2.26352
-2.1651
-2.05948
-1.95512
-1.85269
-1.75299
-1.65352
-1.58414
-129.061
-3042.97
-3888.72
-3894.1
-2.65336
-2.61244
-2.56473
-2.5085
-2.44327
-2.36824
-2.28259
-2.18551
-2.07703
-1.95862
-1.85986
-1.73846
-1.5927
-1.46325
-1.40056
-106.255
-3036.04
-4010.14
-4007.07
-2.61616
-2.57257
-2.52118
-2.45998
-2.38861
-2.30625
-2.21204
-2.10513
-1.98522
-1.85639
-1.74353
-1.60106
-1.43766
-1.27917
-1.25512
-99.908
-3182.62
-4129.79
-4116.72
-2.57993
-2.53407
-2.47939
-2.41359
-2.33622
-2.24646
-2.14315
-2.02528
-1.89252
-1.75649
-1.61968
-1.46271
-1.29545
-1.1038
-1.19015
-102.882
-3651.27
-4245.43
-4218.92
-2.54654
-2.49935
-2.44253
-2.37249
-2.28917
-2.19198
-2.07919
-1.94913
-1.80177
-1.64447
-1.48411
-1.30902
-1.14211
-0.947348
-1.22019
-110.871
-3989.72
-4352.04
-4310.62
-2.51921
-2.47112
-2.41285
-2.3389
-2.25018
-2.14766
-2.02953
-1.88478
-1.71642
-1.53205
-1.32838
-1.11884
-0.923759
-0.758806
-1.19653
-492.596
-4211.71
-4439.84
-4380.34
-2.49957
-2.45194
-2.39375
-2.31584
-2.22174
-2.11625
-1.98883
-1.82977
-1.6446
-1.42685
-1.18365
-0.924435
-0.715141
-0.643891
-0.975337
-1495.11
-4443.82
-4504.43
-4424.47
-2.60039
-2.52469
-2.39068
-2.30278
-2.20382
-2.09228
-1.95785
-1.78049
-1.5743
-1.33169
-1.05095
-0.769642
-0.673383
-0.992786
-2.16711
-2592.97
-4624.5
-4538.55
-4431.36
-2.56923
-2.56073
-2.48247
-2.28925
-2.18119
-2.07617
-1.93021
-1.73459
-1.51926
-1.28925
-1.0208
-0.84738
-1.10876
-2.83946
-12.205
-3713.32
-4673.28
-4538.19
-4402.15
-2.35261
-2.43087
-2.39676
-2.22494
-2.11243
-2.0534
-1.9193
-1.68938
-1.48566
-1.30045
-0.956191
-1.28992
-2.97421
-12.1004
-2049.76
-4653.69
-4656.57
-4507.63
-4344.86
-2.47691
-2.72643
-2.72725
-2.46828
-2.2831
-2.27457
-2.09199
-1.62295
-1.17791
-0.7379
-1.01173
-3.06711
-204.852
-1614.02
-4563.61
-4752.05
-4615.68
-4463.14
-4284.27
-303.41
-281.149
-289.972
-310.425
-344.705
-393.168
-458.505
-555.556
-720.962
-968.613
-1229.63
-1838.85
-3620.04
-4918.54
-4797.12
-4696.13
-4564.08
-4427.85
-4240.67
-4088.9
-4029.48
-4013.27
-4008.67
-4055.2
-4160.51
-4271.71
-4371.44
-4503.26
-4663
-4820.83
-5047.25
-4943.33
-4838.69
-4738.85
-4657.57
-4509.03
-4419.94
-4202.4
-4498.24
-4645.64
-4686.39
-4651.38
-4682.59
-4863.92
-4940.99
-4905.35
-4907.09
-5036.36
-5078.69
-5105.29
-4936.06
-4887.23
-4784.9
-4722.89
-4428.55
-4462.8
-4036.63
-118.085
-290.472
-249.554
-80.2291
-84.6153
-278.172
-286.626
-95.5014
-106.97
-334.646
-165.612
-465.151
-281.143
-796.12
-289.121
-716.001
-507.875
-1414.38
-647.695
)
;

boundaryField
{
    leftWall
    {
        type            fixedFluxPressure;
        gradient        uniform 0;
        value           nonuniform List<scalar> 
50
(
-2.81922
-2.82062
-2.82059
-2.81991
-2.81811
-2.81531
-2.8116
-2.80717
-2.79932
-2.7867
-2.7727
-2.75776
-2.74237
-2.72701
-2.7122
-2.69844
-2.68618
-2.67582
-2.66771
-2.66214
-2.65938
-2.65965
-2.66316
-2.67014
-2.68078
-2.69527
-2.71378
-2.73642
-2.76323
-2.79411
-2.82883
-2.86704
-2.90839
-2.95271
-3.00025
-3.05211
-3.11048
-3.17912
-3.26211
-3.36476
-3.47517
-6.74778
-23.0634
-23.5832
-23.2903
-23.0613
-6.66883
0.798484
0.578516
0.294612
)
;
    }
    rightWall
    {
        type            fixedFluxPressure;
        gradient        uniform 0;
        value           nonuniform List<scalar> 
50
(
-2.85963
-2.86077
-2.86184
-2.86757
-2.89589
-3.02986
-3.44996
-4.45606
-8.45152
-186.702
-549.373
-652.513
-751.543
-848.554
-944.486
-948.516
-941.755
-1115.71
-1462.11
-1658.47
-1796.29
-1958.89
-2153.58
-2337.75
-2498.49
-2639.9
-2770.65
-2897.17
-3023.15
-3149.61
-3275.69
-3403.8
-3530.62
-3653.9
-3775.52
-3894.1
-4007.07
-4116.72
-4218.92
-4310.62
-4380.34
-4424.47
-4431.36
-4402.15
-4344.86
-4284.27
-4240.67
-4202.4
-4036.63
-647.695
)
;
    }
    lowerWall
    {
        type            fixedFluxPressure;
        gradient        uniform 0;
        value           nonuniform List<scalar> 
62
(
-2.81922
-2.82242
-2.82755
-2.83478
-2.84423
-2.85527
-2.86767
-2.88149
-2.89685
-2.91393
-2.93302
-2.95442
-2.97853
-3.0058
-3.03659
-3.07088
-3.10768
-3.14404
-3.17372
-3.18956
-3.18572
-3.16968
-3.15421
-3.15421
-3.15068
-3.15652
-3.16745
-3.17966
-3.19056
-3.19858
-3.20474
-3.25507
-3.28122
-3.33977
-3.38041
-2.90888
-2.90648
-2.90128
-2.89694
-2.89765
-2.90909
-2.93967
-3.00017
-2.90888
-2.92449
-2.94379
-2.97522
-3.01077
-3.04537
-3.07555
-3.09975
-3.11738
-3.12804
-3.13131
-3.12631
-3.11169
-3.08548
-3.04594
-2.99632
-2.94443
-2.89504
-2.85963
)
;
    }
    atmosphere
    {
        type            totalPressure;
        rho             rho;
        psi             none;
        gamma           1;
        p0              uniform 0;
        value           nonuniform List<scalar> 
46
(
0
0
-0.0283711
-0.211589
-0.0236504
0
-1.85932
-0.647868
0
0
-0.0345318
0
-5.43074
0
-3.33044
0
-2.634
0
-2.06344
0
-1.0885
0
-1.76404
0
0
-0.430949
-2.24245
-2.08491
0
0
-0.560891
-0.951417
0
0
-0.444976
-0.929767
0
-0.224803
0
-0.320955
0
-0.743112
0
-14.4368
0
-8.13467
)
;
    }
    defaultFaces
    {
        type            empty;
    }
}


// ************************************************************************* //
