/*--------------------------------*- C++ -*----------------------------------*\
  =========                 |
  \\      /  F ield         | OpenFOAM: The Open Source CFD Toolbox
   \\    /   O peration     | Website:  https://openfoam.org
    \\  /    A nd           | Version:  9
     \\/     M anipulation  |
\*---------------------------------------------------------------------------*/
FoamFile
{
    format      ascii;
    class       volVectorField;
    location    "0.7";
    object      U;
}
// * * * * * * * * * * * * * * * * * * * * * * * * * * * * * * * * * * * * * //

dimensions      [0 1 -1 0 0 0 0];

internalField   nonuniform List<vector> 
2268
(
(-0.0379998 0.0172431 0)
(-0.083873 0.0115276 0)
(-0.103698 0.00145951 0)
(-0.101266 -0.00285026 0)
(-0.096131 -0.00322045 0)
(-0.0913063 -0.00241131 0)
(-0.0889233 -0.00134871 0)
(-0.0890114 -0.000450869 0)
(-0.0909898 0.000115271 0)
(-0.0941299 0.000425218 0)
(-0.0976736 0.000516468 0)
(-0.101022 0.000491402 0)
(-0.10395 0.000451262 0)
(-0.106503 0.000497777 0)
(-0.108817 0.000710624 0)
(-0.111252 0.00118712 0)
(-0.114365 0.00208142 0)
(-0.118903 0.0036262 0)
(-0.124948 0.00569788 0)
(-0.135814 0.0065787 0)
(-0.14783 -0.000430179 0)
(-0.125823 -0.0186662 0)
(-0.0463843 -0.0329727 0)
(-0.044495 0.039977 0)
(-0.0676051 0.0240257 0)
(-0.0744395 0.00529079 0)
(-0.0743736 -0.0022289 0)
(-0.0732649 -0.00328031 0)
(-0.0728247 -0.00203596 0)
(-0.0743674 -0.000234376 0)
(-0.0778468 0.00134224 0)
(-0.0827428 0.00236159 0)
(-0.0883635 0.0028536 0)
(-0.094102 0.00289107 0)
(-0.0994862 0.00265251 0)
(-0.104277 0.0023258 0)
(-0.108395 0.00205024 0)
(-0.111777 0.00190991 0)
(-0.114354 0.00200131 0)
(-0.116073 0.00248623 0)
(-0.116927 0.00343697 0)
(-0.115948 0.0042837 0)
(-0.111179 0.00311657 0)
(-0.101077 -0.00603017 0)
(-0.0840993 -0.0282258 0)
(-0.0305453 -0.0614434 0)
(-0.0358659 0.0607851 0)
(-0.0448314 0.0301856 0)
(-0.0516667 0.00646752 0)
(-0.0543266 -0.00200635 0)
(-0.056864 -0.00285216 0)
(-0.0601023 -0.00093501 0)
(-0.0647504 0.00162289 0)
(-0.0707099 0.00381413 0)
(-0.0775505 0.00524756 0)
(-0.0847404 0.00586083 0)
(-0.0918069 0.00579613 0)
(-0.0983656 0.0053063 0)
(-0.104167 0.00463384 0)
(-0.109047 0.00394668 0)
(-0.112813 0.00331015 0)
(-0.11514 0.00278128 0)
(-0.11559 0.00249372 0)
(-0.113668 0.00234329 0)
(-0.108098 0.00126848 0)
(-0.0964133 -0.00320311 0)
(-0.077994 -0.0156297 0)
(-0.0582822 -0.0405745 0)
(-0.0136549 -0.0830415 0)
(-0.0232237 0.0761584 0)
(-0.0249486 0.0345063 0)
(-0.032132 0.00873815 0)
(-0.0373508 -0.000127676 0)
(-0.0434274 -0.00077561 0)
(-0.0500447 0.00161936 0)
(-0.0574879 0.00471481 0)
(-0.0656336 0.0072761 0)
(-0.0741426 0.0088883 0)
(-0.0826289 0.00947998 0)
(-0.0907363 0.00921896 0)
(-0.0981587 0.00839666 0)
(-0.10465 0.00728287 0)
(-0.110005 0.00605523 0)
(-0.113954 0.00472901 0)
(-0.116013 0.00328096 0)
(-0.115525 0.0017968 0)
(-0.111815 1.68774e-05 0)
(-0.103651 -0.00346575 0)
(-0.0888704 -0.0111958 0)
(-0.0667339 -0.0267136 0)
(-0.0433606 -0.0537272 0)
(-0.00275294 -0.0968114 0)
(-0.00888009 0.0841109 0)
(-0.00628238 0.0372637 0)
(-0.0144655 0.0118074 0)
(-0.0227299 0.00333232 0)
(-0.0323592 0.00295978 0)
(-0.0421523 0.00560732 0)
(-0.0521476 0.00893758 0)
(-0.0622525 0.0116272 0)
(-0.0722322 0.0132149 0)
(-0.0818358 0.0136363 0)
(-0.0908138 0.0130746 0)
(-0.0989226 0.0118343 0)
(-0.105919 0.0101873 0)
(-0.111584 0.00830772 0)
(-0.115617 0.00613569 0)
(-0.117424 0.00354025 0)
(-0.116244 0.000577241 0)
(-0.111447 -0.00310677 0)
(-0.102036 -0.00920262 0)
(-0.0862398 -0.0202186 0)
(-0.0631735 -0.0388947 0)
(-0.0374581 -0.0678963 0)
(0.00176702 -0.105849 0)
(0.00488193 0.083173 0)
(0.0109088 0.0396893 0)
(0.0013121 0.0160672 0)
(-0.0106431 0.00861701 0)
(-0.0237875 0.00844875 0)
(-0.0365283 0.0110443 0)
(-0.0488132 0.014282 0)
(-0.0606299 0.0168116 0)
(-0.0718707 0.0181558 0)
(-0.0824189 0.0182467 0)
(-0.0921194 0.0172701 0)
(-0.100767 0.0155203 0)
(-0.108113 0.0132504 0)
(-0.113952 0.0106291 0)
(-0.117992 0.00749913 0)
(-0.119562 0.00360357 0)
(-0.117867 -0.000979722 0)
(-0.112484 -0.00660261 0)
(-0.10279 -0.0151875 0)
(-0.0874225 -0.0292862 0)
(-0.0655055 -0.0512089 0)
(-0.0395496 -0.0829267 0)
(-0.000486256 -0.114387 0)
(0.0154702 0.0752482 0)
(0.0256529 0.0411806 0)
(0.0144581 0.0217416 0)
(-0.00148308 0.0158604 0)
(-0.0179597 0.0157141 0)
(-0.0333907 0.0178974 0)
(-0.0476696 0.0206955 0)
(-0.0609033 0.0227802 0)
(-0.073158 0.0236775 0)
(-0.084461 0.0232899 0)
(-0.094732 0.0217809 0)
(-0.103765 0.0194114 0)
(-0.111293 0.0164142 0)
(-0.117161 0.0129717 0)
(-0.121125 0.00880519 0)
(-0.122447 0.00351 0)
(-0.120337 -0.00273122 0)
(-0.114704 -0.0101573 0)
(-0.105386 -0.0209008 0)
(-0.0914613 -0.0375926 0)
(-0.0723647 -0.0623418 0)
(-0.0492587 -0.0973978 0)
(-0.0167013 -0.129745 0)
(0.0227617 0.0580958 0)
(0.0366277 0.0394614 0)
(0.0238631 0.0269568 0)
(0.00442917 0.0230839 0)
(-0.01503 0.0229733 0)
(-0.0328879 0.0247679 0)
(-0.0487967 0.027163 0)
(-0.0630542 0.0288618 0)
(-0.0760063 0.0294053 0)
(-0.0878501 0.0286229 0)
(-0.0985391 0.0265902 0)
(-0.107794 0.0235008 0)
(-0.115306 0.0196564 0)
(-0.121037 0.0153098 0)
(-0.124823 0.0100372 0)
(-0.125845 0.00324804 0)
(-0.123343 -0.00464624 0)
(-0.117642 -0.0136147 0)
(-0.109066 -0.0260334 0)
(-0.0971126 -0.0445603 0)
(-0.0818821 -0.0707908 0)
(-0.065882 -0.107736 0)
(-0.0574543 -0.149973 0)
(-0.472837 0.189591 0)
(-1.1241 0.143786 0)
(-1.50353 0.041368 0)
(-1.55113 0.00721283 0)
(-1.54691 -0.0027605 0)
(-1.52486 -0.00509353 0)
(-1.49778 -0.00461658 0)
(-1.47628 -0.000704734 0)
(-1.46539 0.000654895 0)
(-1.45576 -0.00483263 0)
(-1.43275 -0.0156059 0)
(-1.37663 -0.031616 0)
(-1.25848 -0.0541629 0)
(-1.05856 -0.0797341 0)
(-0.795855 -0.0952371 0)
(-0.515967 -0.0965292 0)
(-0.253875 -0.0893061 0)
(-0.0343628 -0.063549 0)
(0.104618 0.017777 0)
(-0.709512 0.483163 0)
(-1.19504 0.340732 0)
(-1.47442 0.0827375 0)
(-1.52701 -1.69943e-05 0)
(-1.5466 -0.0174731 0)
(-1.53003 -0.0210988 0)
(-1.49254 -0.0232103 0)
(-1.44548 -0.0199945 0)
(-1.40195 -0.0149039 0)
(-1.36403 -0.0161567 0)
(-1.32716 -0.0264161 0)
(-1.27712 -0.0509353 0)
(-1.18323 -0.0938261 0)
(-1.01817 -0.146975 0)
(-0.794685 -0.178525 0)
(-0.556807 -0.178141 0)
(-0.33524 -0.159126 0)
(-0.145065 -0.110127 0)
(-0.00859864 0.0155066 0)
(-0.663414 0.739169 0)
(-0.52846 0.551904 0)
(-1.09201 0.147462 0)
(-1.33675 0.0262578 0)
(-1.3952 0.00315722 0)
(-1.47526 -0.0212213 0)
(-1.4694 -0.0341185 0)
(-1.41676 -0.0336569 0)
(-1.35366 -0.033885 0)
(-1.2915 -0.0398089 0)
(-1.23439 -0.051637 0)
(-1.17833 -0.0812604 0)
(-1.09735 -0.14001 0)
(-0.956925 -0.218118 0)
(-0.762434 -0.26412 0)
(-0.557702 -0.261674 0)
(-0.369851 -0.235118 0)
(-0.202017 -0.175967 0)
(-0.0698147 -0.0316795 0)
(-0.624965 0.85626 0)
(0.462774 0.738671 0)
(0.941576 0.382426 0)
(0.958285 0.315421 0)
(-0.143156 0.18375 0)
(-1.275 0.00119937 0)
(-1.42565 -0.0377731 0)
(-1.38567 -0.0412558 0)
(-1.31254 -0.0477402 0)
(-1.23395 -0.055891 0)
(-1.15674 -0.0747265 0)
(-1.08641 -0.113323 0)
(-1.00795 -0.185092 0)
(-0.883524 -0.285291 0)
(-0.711009 -0.344753 0)
(-0.532377 -0.33931 0)
(-0.373137 -0.306974 0)
(-0.225033 -0.246769 0)
(-0.0900714 -0.0925886 0)
(-0.527842 0.812356 0)
(0.820393 0.398764 0)
(1.27474 0.00719585 0)
(1.58095 0.136039 0)
(1.926 0.691804 0)
(1.08827 0.645291 0)
(-0.0346129 0.0888798 0)
(-1.06908 -0.0627699 0)
(-1.28029 -0.0684016 0)
(-1.19129 -0.0681928 0)
(-1.08797 -0.0907775 0)
(-1.0011 -0.136803 0)
(-0.915014 -0.225243 0)
(-0.797076 -0.347378 0)
(-0.643445 -0.417335 0)
(-0.487838 -0.406601 0)
(-0.353055 -0.366975 0)
(-0.225456 -0.310795 0)
(-0.0971775 -0.159039 0)
(-0.164006 0.623811 0)
(0.855846 0.0873336 0)
(1.09186 -0.126921 0)
(1.25475 0.0213522 0)
(1.53934 0.462464 0)
(1.74453 0.946849 0)
(0.890904 0.663312 0)
(-0.356588 0.275602 0)
(-0.763952 -0.030298 0)
(-0.948694 -0.158068 0)
(-1.0286 -0.121856 0)
(-0.922596 -0.155159 0)
(-0.82128 -0.257536 0)
(-0.698231 -0.402589 0)
(-0.563563 -0.481347 0)
(-0.432457 -0.463457 0)
(-0.320412 -0.416661 0)
(-0.213111 -0.365507 0)
(-0.0953644 -0.222564 0)
(0.314527 0.3038 0)
(0.758878 -0.0550342 0)
(0.890824 -0.182443 0)
(1.01609 -0.0288215 0)
(1.18422 0.353566 0)
(1.40779 0.962573 0)
(1.10984 1.0386 0)
(0.0276006 0.627528 0)
(-0.461378 0.185122 0)
(-0.747951 -0.0596238 0)
(-0.865786 -0.183427 0)
(-0.83117 -0.216938 0)
(-0.727372 -0.295664 0)
(-0.592382 -0.457268 0)
(-0.477287 -0.535857 0)
(-0.374214 -0.509582 0)
(-0.282441 -0.45779 0)
(-0.19257 -0.413977 0)
(-0.0878674 -0.283307 0)
(0.354664 0.0649255 0)
(0.619599 -0.125517 0)
(0.727555 -0.213175 0)
(0.81797 -0.0516452 0)
(0.935393 0.341233 0)
(1.09644 1.02096 0)
(0.971696 1.27343 0)
(0.119873 0.92347 0)
(-0.323213 0.379278 0)
(-0.625949 0.0564492 0)
(-0.836574 -0.132724 0)
(-0.801326 -0.252768 0)
(-0.617003 -0.358008 0)
(-0.48403 -0.518743 0)
(-0.394037 -0.581299 0)
(-0.318853 -0.546022 0)
(-0.243177 -0.490942 0)
(-0.16652 -0.456077 0)
(-0.0773495 -0.340452 0)
(0.0315869 0.0316804 0)
(0.0470151 0.0329675 0)
(0.0318743 0.0322314 0)
(0.0084175 0.0312477 0)
(-0.0150408 0.0310563 0)
(-0.0360942 0.032455 0)
(-0.0537036 0.0347141 0)
(-0.0685983 0.0363628 0)
(-0.0818905 0.0369597 0)
(-0.0941454 0.036218 0)
(-0.105282 0.0339055 0)
(-0.114645 0.0298758 0)
(-0.12177 0.0247059 0)
(-0.127002 0.0188908 0)
(-0.130335 0.0118004 0)
(-0.130766 0.00247171 0)
(-0.127576 -0.00801276 0)
(-0.121842 -0.0188483 0)
(-0.114567 -0.0330087 0)
(-0.105544 -0.0531118 0)
(-0.0958711 -0.0791897 0)
(-0.0924793 -0.112294 0)
(-0.116617 -0.145885 0)
(0.00907409 0.019934 0)
(0.0427706 0.0441896 0)
(0.0263981 0.0441975 0)
(0.000759987 0.0436834 0)
(-0.0283928 0.0443849 0)
(-0.0549958 0.0453862 0)
(-0.0728854 0.0459654 0)
(-0.0853113 0.0460417 0)
(-0.0957178 0.0453136 0)
(-0.105601 0.043205 0)
(-0.11461 0.0395665 0)
(-0.121143 0.034317 0)
(-0.125751 0.0284843 0)
(-0.129328 0.022007 0)
(-0.131569 0.0133523 0)
(-0.130739 0.000511079 0)
(-0.126137 -0.0133728 0)
(-0.12017 -0.0253634 0)
(-0.114098 -0.0403653 0)
(-0.106764 -0.0613591 0)
(-0.0987735 -0.0853784 0)
(-0.0934838 -0.11318 0)
(-0.0907653 -0.14496 0)
(-0.00083042 -0.075812 0)
(0.0213037 0.0369877 0)
(0.0162523 0.113368 0)
(0.00102299 0.129682 0)
(-0.0220378 0.117641 0)
(-0.0464223 0.0868004 0)
(-0.067097 0.0630762 0)
(-0.0818064 0.0552693 0)
(-0.0930797 0.0514747 0)
(-0.105335 0.0486665 0)
(-0.118943 0.0447189 0)
(-0.126775 0.0376097 0)
(-0.130478 0.0304461 0)
(-0.131293 0.0229124 0)
(-0.128375 0.0124958 0)
(-0.122054 -0.00299837 0)
(-0.115721 -0.017564 0)
(-0.110632 -0.0293884 0)
(-0.105489 -0.045282 0)
(-0.0990421 -0.0676939 0)
(-0.0936513 -0.0903075 0)
(-0.0924608 -0.116022 0)
(-0.0934007 -0.150561 0)
(-0.0229382 0.00756711 0)
(-0.0117588 0.0299934 0)
(0.00375934 0.0712081 0)
(0.0184006 0.101398 0)
(0.0258151 0.119296 0)
(0.0238782 0.121723 0)
(0.0134958 0.110707 0)
(-0.00165783 0.0983992 0)
(-0.0207413 0.0922444 0)
(-0.0429179 0.0932735 0)
(-0.0754876 0.079899 0)
(-0.105872 0.0475907 0)
(-0.11754 0.032649 0)
(-0.120362 0.0229742 0)
(-0.116335 0.0119352 0)
(-0.110118 -0.00634569 0)
(-0.10828 -0.0213088 0)
(-0.103574 -0.0325085 0)
(-0.0934677 -0.0494371 0)
(-0.084167 -0.0723044 0)
(-0.0829928 -0.0924649 0)
(-0.0925397 -0.114415 0)
(-0.107977 -0.146579 0)
(-0.00684761 -0.0191987 0)
(-0.00633737 0.0191661 0)
(0.00377608 0.0527489 0)
(0.0210787 0.0778252 0)
(0.0379472 0.0929106 0)
(0.0488495 0.097585 0)
(0.051552 0.0957059 0)
(0.0474371 0.0936772 0)
(0.0392988 0.0958887 0)
(0.0311786 0.102894 0)
(0.0220742 0.103765 0)
(0.00756731 0.0846823 0)
(-0.010213 0.0538916 0)
(-0.0284293 0.0255318 0)
(-0.0462151 0.00442855 0)
(-0.0714542 -0.0142261 0)
(-0.0850662 -0.0265391 0)
(-0.0859265 -0.0374654 0)
(-0.0725227 -0.0529772 0)
(-0.0627424 -0.0749727 0)
(-0.0698671 -0.0897395 0)
(-0.0981228 -0.103431 0)
(-0.127021 -0.134533 0)
(-0.00489905 -0.00102077 0)
(-0.00313265 0.0177189 0)
(0.00678939 0.0412295 0)
(0.022082 0.0619133 0)
(0.0392397 0.0768993 0)
(0.0543361 0.0854892 0)
(0.0645962 0.0897962 0)
(0.0697282 0.0931564 0)
(0.0715849 0.0977506 0)
(0.0731 0.10275 0)
(0.0742746 0.101454 0)
(0.0706145 0.0883041 0)
(0.0602013 0.0685651 0)
(0.0457538 0.0499293 0)
(0.0307999 0.0341616 0)
(0.0145711 0.0138603 0)
(-0.000249841 -0.0160843 0)
(-0.0144074 -0.0538471 0)
(-0.0295727 -0.0831707 0)
(-0.0507142 -0.0868548 0)
(-0.0767165 -0.0559166 0)
(-0.0856316 -0.0603581 0)
(-0.107656 -0.111476 0)
(-0.00147295 -0.00244629 0)
(0.00172113 0.0116543 0)
(0.0102366 0.029578 0)
(0.0230473 0.0468769 0)
(0.0382834 0.061523 0)
(0.0534489 0.0725551 0)
(0.0664541 0.0806051 0)
(0.0765841 0.0871982 0)
(0.0845736 0.0932907 0)
(0.0918504 0.0979913 0)
(0.0984292 0.0977708 0)
(0.101523 0.089974 0)
(0.0988336 0.0771123 0)
(0.0911648 0.0628718 0)
(0.0808547 0.0480391 0)
(0.0682549 0.0293965 0)
(0.0523349 0.00609073 0)
(0.0310459 -0.0189436 0)
(0.00322397 -0.0377314 0)
(-0.0301414 -0.0429116 0)
(-0.0658985 -0.0320649 0)
(-0.111288 -0.0148508 0)
(-0.191357 0.0312263 0)
(0.000184299 -0.00399416 0)
(0.0039722 0.00581804 0)
(0.0115597 0.0194562 0)
(0.0223956 0.0336547 0)
(0.035538 0.0469269 0)
(0.0494914 0.0584058 0)
(0.0628982 0.068071 0)
(0.0750885 0.0764169 0)
(0.0861711 0.0836698 0)
(0.0965899 0.0891005 0)
(0.106085 0.0908061 0)
(0.112937 0.0872823 0)
(0.115363 0.0794159 0)
(0.113163 0.069056 0)
(0.107211 0.0569172 0)
(0.0974504 0.0420954 0)
(0.0823644 0.0250081 0)
(0.059934 0.00867788 0)
(0.0292702 -0.00160953 0)
(-0.00852217 -0.00129651 0)
(-0.0519552 0.0103222 0)
(-0.105738 0.0309942 0)
(-0.174606 0.0731436 0)
(0.000535311 -0.00630608 0)
(0.00436827 0.000292304 0)
(0.0109986 0.0108368 0)
(0.020162 0.022472 0)
(0.0313879 0.0341053 0)
(0.0438022 0.045036 0)
(0.0565532 0.0549988 0)
(0.0691018 0.0639873 0)
(0.0812737 0.0718621 0)
(0.093015 0.0780225 0)
(0.103881 0.0813742 0)
(0.112696 0.0810408 0)
(0.118164 0.0772857 0)
(0.119686 0.0710334 0)
(0.117223 0.0629193 0)
(0.110318 0.053094 0)
(0.0977183 0.0425695 0)
(0.0780601 0.0340453 0)
(0.0509595 0.0315373 0)
(0.0175001 0.0386962 0)
(-0.0205956 0.0571803 0)
(-0.0636097 0.0870411 0)
(-0.108499 0.130126 0)
(0.000238272 -0.00852719 0)
(0.00361804 -0.00460248 0)
(0.00921737 0.00352145 0)
(0.0168957 0.0130307 0)
(0.0264141 0.0230556 0)
(0.0372532 0.0330241 0)
(0.0488733 0.0425933 0)
(0.0608561 0.0515475 0)
(0.0729268 0.0596076 0)
(0.0848251 0.0662846 0)
(0.0960554 0.0709038 0)
(0.105743 0.0729502 0)
(0.112903 0.0724882 0)
(0.116833 0.07002 0)
(0.117088 0.0661065 0)
(0.113075 0.0613275 0)
(0.103903 0.0568932 0)
(0.0888191 0.0550457 0)
(0.0678571 0.0587786 0)
(0.0421213 0.070844 0)
(0.0134878 0.0927306 0)
(-0.0167569 0.1242 0)
(-0.0450228 0.162919 0)
(-0.000347671 -0.00998445 0)
(0.00228009 -0.00860266 0)
(0.0068005 -0.00254991 0)
(0.0131201 0.00511568 0)
(0.0211046 0.0136107 0)
(0.030426 0.0224472 0)
(0.0407284 0.031276 0)
(0.0516884 0.039815 0)
(0.0630193 0.0477599 0)
(0.0744029 0.0547216 0)
(0.085369 0.0602611 0)
(0.0952338 0.0640668 0)
(0.103225 0.0661565 0)
(0.108674 0.0668562 0)
(0.111035 0.0666713 0)
(0.109748 0.0663037 0)
(0.104223 0.0669188 0)
(0.0941032 0.0703004 0)
(0.0796505 0.0786234 0)
(0.0619085 0.0938333 0)
(0.0426117 0.116918 0)
(0.0231706 0.147233 0)
(0.00637965 0.181595 0)
(-0.00100423 -0.0104321 0)
(0.00076156 -0.0115848 0)
(0.00420083 -0.00740907 0)
(0.00925898 -0.00140251 0)
(0.0158439 0.00564525 0)
(0.0237325 0.013298 0)
(0.0326756 0.0212248 0)
(0.0424201 0.0291413 0)
(0.052705 0.0367655 0)
(0.0632226 0.0437938 0)
(0.0735607 0.0499313 0)
(0.0831763 0.0549885 0)
(0.0914583 0.0589879 0)
(0.0978299 0.0621816 0)
(0.101787 0.0650211 0)
(0.102873 0.0681833 0)
(0.100706 0.0726788 0)
(0.0951618 0.079889 0)
(0.0865857 0.0913799 0)
(0.0758894 0.108486 0)
(0.0645341 0.131778 0)
(0.0536553 0.160447 0)
(0.0452844 0.191467 0)
(-0.00158467 -0.00990511 0)
(-0.000680445 -0.0135187 0)
(0.00173617 -0.0111014 0)
(0.00562527 -0.00662808 0)
(0.0109252 -0.000946135 0)
(0.0174746 0.00552907 0)
(0.025089 0.0124903 0)
(0.033568 0.0196745 0)
(0.0426879 0.0268368 0)
(0.0521799 0.0337431 0)
(0.0617004 0.0401937 0)
(0.070819 0.0460775 0)
(0.0790551 0.0514339 0)
(0.0859401 0.0564784 0)
(0.0910586 0.0616071 0)
(0.0940627 0.0674135 0)
(0.094717 0.0747284 0)
(0.0930107 0.0846032 0)
(0.0892865 0.0981634 0)
(0.0842842 0.116311 0)
(0.0791523 0.139322 0)
(0.0747314 0.166364 0)
(0.0723712 0.194829 0)
(-0.00200912 -0.00854668 0)
(-0.0018799 -0.0144716 0)
(-0.000399889 -0.0137144 0)
(0.00242014 -0.0106687 0)
(0.00654964 -0.00627091 0)
(0.0118619 -0.000937188 0)
(0.0182165 0.00504528 0)
(0.0254557 0.0114413 0)
(0.0333951 0.0180437 0)
(0.041813 0.0246732 0)
(0.0504335 0.0311952 0)
(0.0589192 0.0375507 0)
(0.0668969 0.0437947 0)
(0.0740012 0.0501191 0)
(0.0799101 0.0568656 0)
(0.0843681 0.0645342 0)
(0.0872288 0.0737906 0)
(0.0885285 0.085431 0)
(0.0885581 0.100267 0)
(0.0878669 0.118907 0)
(0.0872838 0.141459 0)
(0.0874113 0.167124 0)
(0.0890278 0.193786 0)
(-0.00225783 -0.00654949 0)
(-0.00277215 -0.014582 0)
(-0.00210954 -0.0153633 0)
(-0.000238152 -0.0136409 0)
(0.00283679 -0.010443 0)
(0.00702218 -0.00619748 0)
(0.0122086 -0.00117831 0)
(0.0182739 0.00440467 0)
(0.0250728 0.0103791 0)
(0.0324307 0.0166081 0)
(0.0401321 0.0230017 0)
(0.0479177 0.0295363 0)
(0.0555023 0.0362776 0)
(0.0626086 0.0433996 0)
(0.0689955 0.0511957 0)
(0.074479 0.0600823 0)
(0.0789631 0.0705916 0)
(0.0824874 0.0833359 0)
(0.0852672 0.0989138 0)
(0.0876753 0.117748 0)
(0.0902322 0.139873 0)
(0.0933082 0.164608 0)
(0.0972751 0.190303 0)
(-0.00234262 -0.00413737 0)
(-0.00334471 -0.0140125 0)
(-0.00336358 -0.0161782 0)
(-0.00230933 -0.0156663 0)
(-0.000164719 -0.0135794 0)
(0.00301054 -0.0103593 0)
(0.00713486 -0.00627071 0)
(0.0121156 -0.00150447 0)
(0.0178441 0.00379655 0)
(0.0241898 0.00952857 0)
(0.0309903 0.0156331 0)
(0.0380499 0.0221096 0)
(0.0451554 0.029031 0)
(0.0521022 0.0365569 0)
(0.0587146 0.044942 0)
(0.0648582 0.0545374 0)
(0.0704636 0.0657782 0)
(0.0755542 0.0791516 0)
(0.0802587 0.0951277 0)
(0.084792 0.114032 0)
(0.0894278 0.135889 0)
(0.0943133 0.160197 0)
(0.0995138 0.185773 0)
(-0.00229128 -0.00152097 0)
(-0.00362562 -0.0129305 0)
(-0.0041834 -0.0163051 0)
(-0.00380925 -0.0168763 0)
(-0.00246473 -0.0158028 0)
(-0.00017742 -0.013537 0)
(0.00299823 -0.010336 0)
(0.00699719 -0.00637488 0)
(0.0117426 -0.00177316 0)
(0.0171425 0.00338979 0)
(0.0230812 0.0090789 0)
(0.0294158 0.0153096 0)
(0.0359907 0.022159 0)
(0.0426594 0.0297755 0)
(0.0492981 0.0383854 0)
(0.0558085 0.0482935 0)
(0.0621321 0.0598731 0)
(0.0682699 0.0735365 0)
(0.0742767 0.0896848 0)
(0.0802295 0.10862 0)
(0.0862082 0.130414 0)
(0.0921932 0.154756 0)
(0.0980418 0.180905 0)
(-0.00213908 0.0011213 0)
(-0.0036651 -0.0114967 0)
(-0.00462325 -0.0158904 0)
(-0.00479331 -0.0174073 0)
(-0.00411768 -0.0172418 0)
(-0.00259318 -0.015852 0)
(-0.000249309 -0.0134873 0)
(0.00287639 -0.0103065 0)
(0.00673531 -0.00641392 0)
(0.0112668 -0.00186933 0)
(0.0163953 0.0033091 0)
(0.0220224 0.00914857 0)
(0.0280398 0.0157287 0)
(0.0343471 0.0231904 0)
(0.040861 0.0317415 0)
(0.0475121 0.0416572 0)
(0.0542486 0.0532758 0)
(0.0610478 0.0669768 0)
(0.067909 0.083139 0)
(0.0748106 0.102082 0)
(0.081686 0.123973 0)
(0.0883949 0.148703 0)
(0.0946951 0.1759 0)
(-0.00192193 0.00365434 0)
(-0.00352223 -0.00985354 0)
(-0.00475475 -0.0150728 0)
(-0.00534124 -0.0173933 0)
(-0.00520763 -0.0180257 0)
(-0.00432306 -0.0174277 0)
(-0.00269134 -0.0158394 0)
(-0.000329019 -0.0134054 0)
(0.00274082 -0.010217 0)
(0.00648708 -0.00631912 0)
(0.0108651 -0.00171819 0)
(0.0158139 0.00362116 0)
(0.0212648 0.00978146 0)
(0.0271559 0.016899 0)
(0.0334356 0.025171 0)
(0.0400583 0.0348581 0)
(0.0469819 0.0462828 0)
(0.0541699 0.0598193 0)
(0.0615812 0.0758616 0)
(0.0691332 0.0947758 0)
(0.0766713 0.116837 0)
(0.0839739 0.142142 0)
(0.090757 0.170632 0)
(-0.00167233 0.0059857 0)
(-0.00325612 -0.00811712 0)
(-0.00465561 -0.0139749 0)
(-0.00554394 -0.0169584 0)
(-0.00583422 -0.0182776 0)
(-0.00547146 -0.018383 0)
(-0.00443773 -0.0175048 0)
(-0.0027303 -0.0157763 0)
(-0.000351157 -0.0132744 0)
(0.0026932 -0.0100336 0)
(0.00638451 -0.00605207 0)
(0.0106917 -0.00128953 0)
(0.0155798 0.00433857 0)
(0.0210203 0.0109674 0)
(0.0269894 0.0187889 0)
(0.0334621 0.0280601 0)
(0.0404088 0.039104 0)
(0.0477928 0.0523053 0)
(0.0555545 0.0680925 0)
(0.0635766 0.0868998 0)
(0.0716641 0.109113 0)
(0.0795692 0.13501 0)
(0.0870045 0.164798 0)
(-0.00141747 0.00806114 0)
(-0.00292101 -0.0063755 0)
(-0.00440121 -0.0126999 0)
(-0.00549326 -0.016213 0)
(-0.00610172 -0.0181103 0)
(-0.0061519 -0.0188304 0)
(-0.00560878 -0.0185925 0)
(-0.00445323 -0.017519 0)
(-0.00266963 -0.0156753 0)
(-0.000245541 -0.013087 0)
(0.00282273 -0.00974607 0)
(0.00652926 -0.00560983 0)
(0.0108671 -0.00059339 0)
(0.0158371 0.00543865 0)
(0.0214419 0.0126778 0)
(0.0276773 0.0213822 0)
(0.0345287 0.0318859 0)
(0.0419686 0.0445968 0)
(0.0499404 0.0599857 0)
(0.0583206 0.0785596 0)
(0.0669045 0.100815 0)
(0.0754564 0.127185 0)
(0.0837283 0.158076 0)
(-0.00117723 0.00986199 0)
(-0.00256245 -0.00468985 0)
(-0.0040583 -0.0113301 0)
(-0.00527395 -0.0152519 0)
(-0.00610933 -0.0176248 0)
(-0.00647587 -0.0188729 0)
(-0.00632606 -0.0192037 0)
(-0.00562754 -0.0187292 0)
(-0.00435052 -0.0175053 0)
(-0.00246842 -0.0155503 0)
(3.86561e-05 -0.0128529 0)
(0.00318616 -0.00936935 0)
(0.00699175 -0.00501546 0)
(0.0114807 0.00034298 0)
(0.0166811 0.00689928 0)
(0.0226111 0.0149161 0)
(0.0292759 0.0247408 0)
(0.0366645 0.0368117 0)
(0.0447356 0.0516481 0)
(0.0533834 0.0698265 0)
(0.0624232 0.091942 0)
(0.0716559 0.118555 0)
(0.0808815 0.150216 0)
(-0.000962825 0.0113953 0)
(-0.00221419 -0.00309747 0)
(-0.00368066 -0.00992811 0)
(-0.00495756 -0.014153 0)
(-0.00594416 -0.0169086 0)
(-0.00654449 -0.0186025 0)
(-0.0067029 -0.0194308 0)
(-0.00637656 -0.0194954 0)
(-0.00552529 -0.0188442 0)
(-0.00411312 -0.017491 0)
(-0.00210863 -0.0154232 0)
(0.000520141 -0.0125983 0)
(0.00381249 -0.00893398 0)
(0.00781545 -0.00429838 0)
(0.0125786 0.00150132 0)
(0.0181449 0.00873451 0)
(0.0245426 0.0177622 0)
(0.0317848 0.0290515 0)
(0.0398551 0.0431709 0)
(0.0486767 0.0607647 0)
(0.0581037 0.0825119 0)
(0.0679913 0.10907 0)
(0.0781999 0.141083 0)
(-0.000777193 0.0126835 0)
(-0.00189715 -0.00161608 0)
(-0.00330688 -0.00853722 0)
(-0.00459906 -0.0129774 0)
(-0.00567669 -0.0160346 0)
(-0.00644279 -0.0180993 0)
(-0.00683725 -0.0193562 0)
(-0.0068095 -0.019898 0)
(-0.00631289 -0.0197662 0)
(-0.00530664 -0.0189728 0)
(-0.00375181 -0.0175064 0)
(-0.0016037 -0.0153273 0)
(0.00119392 -0.0123576 0)
(0.00470687 -0.00847001 0)
(0.00900365 -0.00347419 0)
(0.0141504 0.00290211 0)
(0.0202028 0.0110343 0)
(0.0272013 0.0214145 0)
(0.0351621 0.0346546 0)
(0.0440463 0.0514604 0)
(0.0537545 0.0725848 0)
(0.0642006 0.0987604 0)
(0.075308 0.130687 0)
(-0.000617644 0.0137566 0)
(-0.00162087 -0.000248806 0)
(-0.00296031 -0.00718454 0)
(-0.00423614 -0.0117698 0)
(-0.00535926 -0.0150606 0)
(-0.00623704 -0.0174296 0)
(-0.00680799 -0.0190504 0)
(-0.00701666 -0.0200069 0)
(-0.00681399 -0.0203372 0)
(-0.00615827 -0.0200535 0)
(-0.00500655 -0.0191475 0)
(-0.00330477 -0.0175845 0)
(-0.000984354 -0.0152934 0)
(0.00203417 -0.0121549 0)
(0.00583583 -0.00798496 0)
(0.0105074 -0.00251206 0)
(0.0161331 0.00464829 0)
(0.022784 0.0140111 0)
(0.0305107 0.026224 0)
(0.0393178 0.042046 0)
(0.0491569 0.0622925 0)
(0.0600005 0.0877569 0)
(0.07183 0.119175 0)
(-0.000479936 0.0146443 0)
(-0.00138662 0.00101051 0)
(-0.0026513 -0.00588443 0)
(-0.0038906 -0.0105609 0)
(-0.00502643 -0.0140296 0)
(-0.00597434 -0.0166452 0)
(-0.00667357 -0.0185694 0)
(-0.00706724 -0.0198793 0)
(-0.00710776 -0.0206115 0)
(-0.00675542 -0.0207809 0)
(-0.00596585 -0.0203839 0)
(-0.0046794 -0.0193923 0)
(-0.00281992 -0.0177449 0)
(-0.000299585 -0.015334 0)
(0.00297869 -0.0119864 0)
(0.00711998 -0.00743604 0)
(0.0122337 -0.00129554 0)
(0.0184249 0.0069664 0)
(0.0257789 0.0180288 0)
(0.0343443 0.0326938 0)
(0.0441243 0.0518306 0)
(0.0551478 0.0762826 0)
(0.0674498 0.106813 0)
(-0.000361593 0.0153741 0)
(-0.00119056 0.00217218 0)
(-0.00238068 -0.00464309 0)
(-0.00357134 -0.00937055 0)
(-0.00469734 -0.0129726 0)
(-0.005684 -0.0157851 0)
(-0.00647285 -0.0179572 0)
(-0.00700942 -0.0195606 0)
(-0.00725118 -0.020633 0)
(-0.00716217 -0.0211939 0)
(-0.00669838 -0.0212458 0)
(-0.00579826 -0.020769 0)
(-0.00438353 -0.0197146 0)
(-0.00236325 -0.0179903 0)
(0.000366667 -0.0154381 0)
(0.00392571 -0.0118034 0)
(0.00844463 -0.00670123 0)
(0.0140593 0.000407095 0)
(0.0208933 0.0102258 0)
(0.0290358 0.0235937 0)
(0.0385401 0.0414257 0)
(0.0494865 0.0646092 0)
(0.0619587 0.0939301 0)
(-0.000262287 0.01597 0)
(-0.00102606 0.00324641 0)
(-0.00214315 -0.00346279 0)
(-0.00327844 -0.00821172 0)
(-0.00437967 -0.0119122 0)
(-0.00538108 -0.0148791 0)
(-0.00622805 -0.0172488 0)
(-0.00687269 -0.0190891 0)
(-0.00728036 -0.0204402 0)
(-0.00741983 -0.0213275 0)
(-0.00724864 -0.021761 0)
(-0.00670683 -0.0217318 0)
(-0.00571912 -0.021206 0)
(-0.0041966 -0.0201096 0)
(-0.00203322 -0.0183038 0)
(0.000899528 -0.0155512 0)
(0.00474932 -0.0114777 0)
(0.00967713 -0.00554191 0)
(0.0158439 0.00297421 0)
(0.0233791 0.0149428 0)
(0.0323821 0.0313185 0)
(0.0429792 0.0530305 0)
(0.0552977 0.0808897 0)
(-0.000180811 0.016453 0)
(-0.00088526 0.00424041 0)
(-0.001931 -0.00234428 0)
(-0.00300783 -0.00709335 0)
(-0.00407443 -0.010865 0)
(-0.00507129 -0.0139504 0)
(-0.00594971 -0.0164736 0)
(-0.00667224 -0.0184989 0)
(-0.00721412 -0.0200697 0)
(-0.00754933 -0.0212174 0)
(-0.00763826 -0.0219607 0)
(-0.00742577 -0.0223032 0)
(-0.00684378 -0.0222284 0)
(-0.00580978 -0.0216836 0)
(-0.00422039 -0.0205529 0)
(-0.00194462 -0.0186211 0)
(0.00117666 -0.0155331 0)
(0.00532483 -0.0107545 0)
(0.01069 -0.00356016 0)
(0.0174447 0.0069452 0)
(0.02573 0.0217569 0)
(0.0357162 0.0418449 0)
(0.0475652 0.068052 0)
(-0.000112553 0.0168416 0)
(-0.00076088 0.00515978 0)
(-0.00173808 -0.00128699 0)
(-0.00275604 -0.0060215 0)
(-0.00378079 -0.00984324 0)
(-0.00475628 -0.0130173 0)
(-0.00564234 -0.0156555 0)
(-0.00641493 -0.0178199 0)
(-0.00706002 -0.0195565 0)
(-0.00755705 -0.0209015 0)
(-0.00787106 -0.0218822 0)
(-0.00795481 -0.0225163 0)
(-0.00775054 -0.022806 0)
(-0.00718539 -0.0227215 0)
(-0.00616297 -0.022173 0)
(-0.00455501 -0.0209731 0)
(-0.00219858 -0.0187922 0)
(0.00110056 -0.0151161 0)
(0.00555642 -0.00922294 0)
(0.0113795 -0.000202801 0)
(0.0187561 0.0129765 0)
(0.0278984 0.0313307 0)
(0.038995 0.0557441 0)
(-5.2448e-05 0.01715 0)
(-0.000650357 0.00601153 0)
(-0.00156468 -0.000288921 0)
(-0.00252474 -0.00500061 0)
(-0.00350033 -0.00885714 0)
(-0.00443804 -0.0120953 0)
(-0.00530911 -0.0148159 0)
(-0.00610463 -0.0170792 0)
(-0.00682079 -0.0189327 0)
(-0.00744271 -0.0204168 0)
(-0.00794207 -0.0215666 0)
(-0.00828211 -0.0224135 0)
(-0.00841744 -0.0229783 0)
(-0.00828712 -0.0232541 0)
(-0.00780515 -0.0231791 0)
(-0.00685135 -0.0225979 0)
(-0.00526644 -0.0212153 0)
(-0.00285232 -0.0185479 0)
(0.000621158 -0.0138933 0)
(0.00539708 -0.00633723 0)
(0.0117088 0.00517917 0)
(0.0198134 0.0217262 0)
(0.0299277 0.0442398 0)
(-3.4776e-06 0.0173858 0)
(-0.000562375 0.0068047 0)
(-0.00142228 0.000652378 0)
(-0.00232449 -0.00403621 0)
(-0.00324033 -0.00791924 0)
(-0.00412168 -0.011203 0)
(-0.00495444 -0.0139784 0)
(-0.00574497 -0.0163047 0)
(-0.00649814 -0.0182306 0)
(-0.00720481 -0.0197998 0)
(-0.00784503 -0.0210553 0)
(-0.00839387 -0.0220408 0)
(-0.00881901 -0.0227935 0)
(-0.00907265 -0.023328 0)
(-0.00908184 -0.0236099 0)
(-0.00873937 -0.0235189 0)
(-0.00789749 -0.0228011 0)
(-0.00636386 -0.0210168 0)
(-0.00390148 -0.0174984 0)
(-0.000242114 -0.011345 0)
(0.00489236 -0.00148132 0)
(0.011813 0.0132163 0)
(0.0207746 0.0337499 0)
(1.60749e-05 0.0175649 0)
(-0.000522161 0.00755186 0)
(-0.00133649 0.00153739 0)
(-0.00217623 -0.00313808 0)
(-0.00301528 -0.00704753 0)
(-0.00381693 -0.0103651 0)
(-0.00458509 -0.0131729 0)
(-0.00534022 -0.0155299 0)
(-0.00609397 -0.0174865 0)
(-0.00684287 -0.0190905 0)
(-0.00757599 -0.0203927 0)
(-0.00827987 -0.0214476 0)
(-0.0089345 -0.022306 0)
(-0.00950514 -0.0230006 0)
(-0.00993362 -0.0235227 0)
(-0.0101298 -0.0237875 0)
(-0.00996473 -0.0235877 0)
(-0.00926159 -0.0225376 0)
(-0.00778767 -0.0200212 0)
(-0.00525843 -0.0151708 0)
(-0.00135528 -0.00690854 0)
(0.00428959 0.00592728 0)
(0.0119835 0.0244192 0)
(-3.2129e-05 0.0177415 0)
(-0.000571029 0.00827096 0)
(-0.00134478 0.00236353 0)
(-0.00210896 -0.00232235 0)
(-0.00284554 -0.00626649 0)
(-0.00353761 -0.00961192 0)
(-0.00421028 -0.0124343 0)
(-0.00489608 -0.0147931 0)
(-0.00561169 -0.0167417 0)
(-0.00635907 -0.0183339 0)
(-0.00713545 -0.0196289 0)
(-0.00793671 -0.0206902 0)
(-0.00875295 -0.0215793 0)
(-0.00956137 -0.0223433 0)
(-0.010319 -0.022996 0)
(-0.0109554 -0.0234863 0)
(-0.0113656 -0.0236548 0)
(-0.0113968 -0.0231767 0)
(-0.0108319 -0.0215018 0)
(-0.00938211 -0.0178173 0)
(-0.00669737 -0.0110663 0)
(-0.00235635 -6.50026e-05 0)
(0.00400722 0.0163381 0)
(-0.00019884 0.0180221 0)
(-0.00075492 0.00898488 0)
(-0.00148893 0.00312199 0)
(-0.00215461 -0.00161249 0)
(-0.00275305 -0.00560666 0)
(-0.00329877 -0.0089778 0)
(-0.00384036 -0.0117987 0)
(-0.00442003 -0.0141322 0)
(-0.00505805 -0.0160376 0)
(-0.00576084 -0.017577 0)
(-0.00653128 -0.0188181 0)
(-0.00737114 -0.0198319 0)
(-0.00827761 -0.0206874 0)
(-0.00923778 -0.0214434 0)
(-0.0102229 -0.0221314 0)
(-0.0111826 -0.0227301 0)
(-0.0120376 -0.0231247 0)
(-0.0126645 -0.0230525 0)
(-0.0128719 -0.0220391 0)
(-0.0123819 -0.0193475 0)
(-0.01083 -0.0139731 0)
(-0.00775129 -0.00473737 0)
(-0.00273124 0.00955519 0)
(-0.000535809 0.0185339 0)
(-0.00112039 0.00971646 0)
(-0.00180724 0.00379661 0)
(-0.00233926 -0.00104011 0)
(-0.00275409 -0.0051051 0)
(-0.00311087 -0.0085 0)
(-0.00348317 -0.0113021 0)
(-0.00392019 -0.0135831 0)
(-0.00444395 -0.0154131 0)
(-0.00506279 -0.0168647 0)
(-0.00578134 -0.0180138 0)
(-0.00660337 -0.0189373 0)
(-0.00752991 -0.0197102 0)
(-0.00855533 -0.0203989 0)
(-0.00966259 -0.0210481 0)
(-0.0108187 -0.0216591 0)
(-0.0119682 -0.0221545 0)
(-0.0130182 -0.0223291 0)
(-0.013811 -0.0217887 0)
(-0.0140966 -0.019891 0)
(-0.0135196 -0.0157176 0)
(-0.0115913 -0.00813289 0)
(-0.00786815 0.00407144 0)
(-0.00108032 0.0194449 0)
(-0.00171188 0.0104907 0)
(-0.00232575 0.00436315 0)
(-0.00267364 -0.000648339 0)
(-0.00284957 -0.00480859 0)
(-0.00297192 -0.00822136 0)
(-0.00313873 -0.0109819 0)