# vtk DataFile Version 2.0
track0
ASCII
DATASET POLYDATA
POINTS 12039 float
-0.0205 0.001 1e-05
-0.02052 0.000999985 1e-05
-0.02054 0.000999974 1e-05
-0.02056 0.000999965 1e-05
-0.02058 0.000999959 1e-05
-0.0206 0.000999956 1e-05
-0.0205 0.00367778 1e-05
-0.02052 0.00367778 1e-05
-0.02054 0.00367777 1e-05
-0.02056 0.00367777 1e-05
-0.02058 0.00367777 1e-05
-0.0206 0.00367777 1e-05
-0.0205 0.00635556 1e-05
-0.02052 0.00635555 1e-05
-0.02054 0.00635555 1e-05
-0.02056 0.00635555 1e-05
-0.02058 0.00635555 1e-05
-0.0206 0.00635555 1e-05
-0.0205 0.00903333 1e-05
-0.02052 0.00903333 1e-05
-0.02054 0.00903333 1e-05
-0.02056 0.00903333 1e-05
-0.02058 0.00903333 1e-05
-0.0206 0.00903333 1e-05
-0.0205 0.0117111 1e-05
-0.02052 0.0117111 1e-05
-0.02054 0.0117111 1e-05
-0.02056 0.0117111 1e-05
-0.02058 0.0117111 1e-05
-0.0206 0.0117111 1e-05
-0.0205 0.0143889 1e-05
-0.02052 0.0143889 1e-05
-0.02054 0.0143889 1e-05
-0.02056 0.0143889 1e-05
-0.02058 0.0143889 1e-05
-0.0206 0.0143889 1e-05
-0.0205 0.0170667 1e-05
-0.02052 0.0170667 1e-05
-0.02054 0.0170667 1e-05
-0.02056 0.0170667 1e-05
-0.02058 0.0170667 1e-05
-0.0206 0.0170667 1e-05
-0.0205 0.0197444 1e-05
-0.02052 0.0197444 1e-05
-0.02054 0.0197444 1e-05
-0.02056 0.0197444 1e-05
-0.02058 0.0197444 1e-05
-0.0206 0.0197444 1e-05
-0.0205 0.0224222 1e-05
-0.02052 0.0224222 1e-05
-0.02054 0.0224222 1e-05
-0.02056 0.0224222 1e-05
-0.02058 0.0224222 1e-05
-0.0206 0.0224222 1e-05
-0.0205 0.0251 1e-05
-0.02052 0.0250998 1e-05
-0.02054 0.0250997 1e-05
-0.02056 0.0250995 1e-05
-0.02058 0.0250995 1e-05
-0.0206 0.0250994 1e-05
-0.0205 0.001 1e-05
-0.0202034 0.00100022 1e-05
-0.0199069 0.00100067 1e-05
-0.0196103 0.00100133 1e-05
-0.0193137 0.00100219 1e-05
-0.0190172 0.00100326 1e-05
-0.0187132 0.00100467 1e-05
-0.0184093 0.00100589 1e-05
-0.0181054 0.00100711 1e-05
-0.0178015 0.00100832 1e-05
-0.0174976 0.00100954 1e-05
-0.0172058 0.00101083 1e-05
-0.016914 0.00101193 1e-05
-0.0166222 0.00101303 1e-05
-0.0163305 0.00101413 1e-05
-0.0160387 0.00101523 1e-05
-0.0157586 0.00101637 1e-05
-0.0154784 0.00101745 1e-05
-0.0151983 0.00101856 1e-05
-0.0149182 0.00101972 1e-05
-0.0146381 0.0010209 1e-05
-0.0143746 0.00102209 1e-05
-0.0141111 0.00102327 1e-05
-0.0138476 0.00102449 1e-05
-0.0135841 0.00102574 1e-05
-0.0133616 0.00102682 1e-05
-0.0133479 0.00102688 1e-05
-0.0133343 0.00102695 1e-05
-0.0133207 0.00102702 1e-05
-0.0133071 0.00102709 1e-05
-0.0132934 0.00102716 1e-05
-0.0130353 0.00102844 1e-05
-0.0127771 0.00102975 1e-05
-0.0125189 0.00103106 1e-05
-0.0122607 0.0010324 1e-05
-0.0120025 0.00103375 1e-05
-0.0117547 0.00103506 1e-05
-0.0115068 0.00103637 1e-05
-0.0112589 0.00103769 1e-05
-0.0110111 0.00103902 1e-05
-0.0107632 0.00104035 1e-05
-0.0105252 0.00104162 1e-05
-0.0102873 0.0010429 1e-05
-0.0100493 0.00104418 1e-05
-0.00981133 0.00104546 1e-05
-0.00957337 0.00104674 1e-05
-0.00934491 0.00104796 1e-05
-0.00911645 0.00104918 1e-05
-0.00888799 0.0010504 1e-05
-0.00865954 0.00105162 1e-05
-0.00843108 0.00105283 1e-05
-0.00821175 0.00105399 1e-05
-0.00799242 0.00105514 1e-05
-0.00777309 0.0010563 1e-05
-0.00755376 0.00105745 1e-05
-0.00733443 0.00105859 1e-05
-0.00712387 0.00105968 1e-05
-0.0069133 0.00106077 1e-05
-0.00670273 0.00106186 1e-05
-0.00649216 0.00106294 1e-05
-0.0062816 0.00106402 1e-05
-0.00607944 0.00106504 1e-05
-0.00587729 0.00106607 1e-05
-0.00567514 0.00106709 1e-05
-0.00547298 0.00106811 1e-05
-0.00527083 0.00106912 1e-05
-0.00507675 0.00107009 1e-05
-0.00488267 0.00107105 1e-05
-0.0046886 0.00107201 1e-05
-0.00449452 0.00107297 1e-05
-0.00430044 0.00107392 1e-05
-0.00411412 0.00107483 1e-05
-0.0039278 0.00107574 1e-05
-0.00374147 0.00107664 1e-05
-0.00355515 0.00107755 1e-05
-0.00336883 0.00107844 1e-05
-0.00318995 0.0010793 1e-05
-0.00301107 0.00108015 1e-05
-0.00283219 0.00108101 1e-05
-0.00265331 0.00108186 1e-05
-0.00247443 0.00108271 1e-05
-0.0023027 0.00108352 1e-05
-0.00213097 0.00108433 1e-05
-0.00195924 0.00108514 1e-05
-0.0017875 0.00108595 1e-05
-0.00161577 0.00108676 1e-05
-0.0014509 0.00108753 1e-05
-0.00128603 0.0010883 1e-05
-0.00112116 0.00108907 1e-05
-0.000956289 0.00108985 1e-05
-0.000791418 0.00109062 1e-05
-0.000633135 0.00109136 1e-05
-0.000474851 0.00109211 1e-05
-0.000316567 0.00109286 1e-05
-0.000158284 0.0010936 1e-05
0 0.00109435 1e-05
0.000105677 0.00109484 1e-05
0.000211355 0.00109534 1e-05
0.000317032 0.00109583 1e-05
0.00042271 0.00109632 1e-05
0.000528387 0.00109681 1e-05
0.000634886 0.00109729 1e-05
0.000741385 0.00109778 1e-05
0.000847885 0.00109826 1e-05
0.000954384 0.00109873 1e-05
0.00106088 0.0010992 1e-05
0.00116821 0.00109968 1e-05
0.00127554 0.00110014 1e-05
0.00138286 0.0011006 1e-05
0.00149019 0.00110106 1e-05
0.00159752 0.00110151 1e-05
0.00170568 0.00110195 1e-05
0.00181384 0.00110239 1e-05
0.001922 0.00110282 1e-05
0.00203016 0.00110324 1e-05
0.00213833 0.00110365 1e-05
0.00224733 0.00110405 1e-05
0.00235633 0.00110446 1e-05
0.00246533 0.00110485 1e-05
0.00257434 0.00110523 1e-05
0.00268334 0.0011056 1e-05
0.00279319 0.00110597 1e-05
0.00290304 0.00110633 1e-05
0.00301289 0.00110668 1e-05
0.00312274 0.00110703 1e-05
0.00323259 0.00110736 1e-05
0.00334329 0.00110769 1e-05
0.003454 0.00110801 1e-05
0.0035647 0.00110833 1e-05
0.0036754 0.00110864 1e-05
0.00378611 0.00110894 1e-05
0.00389767 0.00110923 1e-05
0.00400924 0.00110952 1e-05
0.0041208 0.0011098 1e-05
0.00423237 0.00111007 1e-05
0.00434393 0.00111033 1e-05
0.00445636 0.00111059 1e-05
0.00456879 0.00111084 1e-05
0.00468123 0.00111108 1e-05
0.00479366 0.00111131 1e-05
0.00490609 0.00111154 1e-05
0.0050194 0.00111176 1e-05
0.0051327 0.00111197 1e-05
0.00524601 0.00111218 1e-05
0.00535932 0.00111237 1e-05
0.00547262 0.00111256 1e-05
0.00558681 0.00111274 1e-05
0.005701 0.00111292 1e-05
0.00581518 0.00111309 1e-05
0.00592937 0.00111325 1e-05
0.00604356 0.0011134 1e-05
0.00615863 0.00111354 1e-05
0.00627371 0.00111368 1e-05
0.00638878 0.00111381 1e-05
0.00650386 0.00111394 1e-05
0.00661893 0.00111405 1e-05
0.0067349 0.00111416 1e-05
0.00685087 0.00111426 1e-05
0.00696684 0.00111435 1e-05
0.00708281 0.00111444 1e-05
0.00719878 0.00111452 1e-05
0.00729519 0.00111458 1e-05
0.00739161 0.00111463 1e-05
0.00748802 0.00111468 1e-05
0.00758444 0.00111472 1e-05
0.00767642 0.00111475 1e-05
0.00769776 0.00111476 1e-05
0.0077191 0.00111477 1e-05
0.00774045 0.00111478 1e-05
0.00776179 0.00111478 1e-05
0.00778313 0.00111479 1e-05
0.00790091 0.00111482 1e-05
0.00801869 0.00111484 1e-05
0.00813647 0.00111486 1e-05
0.00825425 0.00111487 1e-05
0.00837203 0.00111487 1e-05
0.00849073 0.00111486 1e-05
0.00860942 0.00111484 1e-05
0.00872812 0.00111482 1e-05
0.00884682 0.00111479 1e-05
0.00896551 0.00111475 1e-05
0.00908513 0.00111469 1e-05
0.00920475 0.00111464 1e-05
0.00932437 0.00111457 1e-05
0.00944398 0.0011145 1e-05
0.0095636 0.00111442 1e-05
0.00968415 0.00111432 1e-05
0.0098047 0.00111422 1e-05
0.00992525 0.00111411 1e-05
0.0100458 0.001114 1e-05
0.0101663 0.00111387 1e-05
0.0102878 0.00111373 1e-05
0.0104093 0.00111359 1e-05
0.0105308 0.00111343 1e-05
0.0106523 0.00111328 1e-05
0.0107738 0.00111311 1e-05
0.0108962 0.00111292 1e-05
0.0110186 0.00111273 1e-05
0.0111411 0.00111254 1e-05
0.0112635 0.00111233 1e-05
0.0113859 0.00111212 1e-05
0.0115093 0.00111188 1e-05
0.0116327 0.00111165 1e-05
0.0117561 0.00111141 1e-05
0.0118795 0.00111116 1e-05
0.0120028 0.0011109 1e-05
0.0121272 0.00111062 1e-05
0.0122515 0.00111034 1e-05
0.0123759 0.00111005 1e-05
0.0125002 0.00110975 1e-05
0.0126245 0.00110945 1e-05
0.0127498 0.00110912 1e-05
0.0128752 0.00110879 1e-05
0.0130005 0.00110845 1e-05
0.0131258 0.00110811 1e-05
0.0132511 0.00110775 1e-05
0.0133774 0.00110737 1e-05
0.0135036 0.001107 1e-05
0.0136299 0.00110661 1e-05
0.0137562 0.00110622 1e-05
0.0138825 0.00110581 1e-05
0.0140098 0.00110538 1e-05
0.014137 0.00110496 1e-05
0.0142643 0.00110452 1e-05
0.0143915 0.00110407 1e-05
0.0145188 0.00110362 1e-05
0.0146471 0.00110314 1e-05
0.0147753 0.00110266 1e-05
0.0149036 0.00110217 1e-05
0.0150318 0.00110167 1e-05
0.0151601 0.00110117 1e-05
0.0152893 0.00110064 1e-05
0.0154186 0.00110011 1e-05
0.0155478 0.00109957 1e-05
0.0156771 0.00109901 1e-05
0.0158063 0.00109845 1e-05
0.0159366 0.00109788 1e-05
0.0160668 0.00109729 1e-05
0.0161971 0.0010967 1e-05
0.0163274 0.00109609 1e-05
0.0164576 0.00109548 1e-05
0.0165889 0.00109486 1e-05
0.0167201 0.00109422 1e-05
0.0168514 0.00109357 1e-05
0.0169827 0.00109291 1e-05
0.0171139 0.00109225 1e-05
0.0172462 0.00109157 1e-05
0.0173785 0.00109088 1e-05
0.0175108 0.00109018 1e-05
0.0176431 0.00108946 1e-05
0.0177754 0.00108874 1e-05
0.0179087 0.00108802 1e-05
0.018042 0.00108727 1e-05
0.0181753 0.00108652 1e-05
0.0183087 0.00108575 1e-05
0.018442 0.00108498 1e-05
0.0185763 0.0010842 1e-05
0.0187107 0.0010834 1e-05
0.018845 0.00108259 1e-05
0.0189794 0.00108176 1e-05
0.0191137 0.00108094 1e-05
0.0192491 0.00108011 1e-05
0.0193845 0.00107926 1e-05
0.0195199 0.00107839 1e-05
0.0196553 0.00107751 1e-05
0.0197907 0.00107663 1e-05
0.0199272 0.00107575 1e-05
0.0200636 0.00107485 1e-05
0.0202001 0.00107393 1e-05
0.0203365 0.00107299 1e-05
0.020473 0.00107206 1e-05
0.0206105 0.00107113 1e-05
0.020748 0.00107017 1e-05
0.0208855 0.00106919 1e-05
0.021023 0.0010682 1e-05
0.0211606 0.00106721 1e-05
0.0212991 0.00106623 1e-05
0.0214377 0.00106522 1e-05
0.0215763 0.00106418 1e-05
0.0217149 0.00106314 1e-05
0.0218535 0.0010621 1e-05
0.0219931 0.00106106 1e-05
0.0221328 0.00106 1e-05
0.0222724 0.00105891 1e-05
0.0224121 0.00105781 1e-05
0.0225517 0.00105671 1e-05
0.0226925 0.00105562 1e-05
0.0228332 0.0010545 1e-05
0.022974 0.00105335 1e-05
0.0231147 0.0010522 1e-05
0.0232555 0.00105105 1e-05
0.0233973 0.0010499 1e-05
0.0235391 0.00104873 1e-05
0.023681 0.00104752 1e-05
0.0238228 0.00104631 1e-05
0.0239647 0.00104511 1e-05
0.0241076 0.00104391 1e-05
0.0242505 0.00104267 1e-05
0.0243935 0.00104141 1e-05
0.0245364 0.00104015 1e-05
0.0246794 0.00103889 1e-05
0.0248234 0.00103763 1e-05
0.0249675 0.00103634 1e-05
0.0251115 0.00103502 1e-05
0.0252556 0.0010337 1e-05
[...]
POINT_DATA 12039
 FIELD attributes 1
U 3 12039 float
10.0004 	0.00734827 	0 10.0004 	0.00587862 	0 10.0003 	0.00440896 	0 10.0002 	0.00293931 	0 10.0001 	0.00146965 	0 10 	0 	0
10.0001 	0.000878549 	0 10 	0.000702839 	0 10 	0.000527129 	0 10 	0.000351419 	0 10 	0.00017571 	0 10 	0 	0
10.0001 	0.000466545 	0 10.0001 	0.000373046 	0 10.0001 	0.000279548 	0 10 	0.000186049 	0 10 	9.25502e-05 	0 10 	0 	0
10 	0.000266863 	0 10 	0.00021349 	0 10 	0.000160118 	0 10 	0.000106745 	0 10 	5.33726e-05 	0 10 	0 	0
10 	8.12534e-05 	0 10 	6.50027e-05 	0 10 	4.8752e-05 	0 10 	3.25014e-05 	0 10 	1.62507e-05 	0 10 	0 	0
10 	-2.54373e-05 	0 10 	-2.03499e-05 	0 10 	-1.52624e-05 	0 10 	-1.01749e-05 	0 10 	-5.08746e-06 	0 10 	0 	0
10 	-0.000215529 	0 10 	-0.000172423 	0 10 	-0.000129318 	0 10 	-8.62117e-05 	0 10 	-4.31058e-05 	0 10 	0 	0
10 	-0.00037727 	0 10 	-0.000301816 	0 10 	-0.000226362 	0 10 	-0.000150908 	0 10 	-7.5454e-05 	0 10 	0 	0
9.99999 	-0.000426257 	0 9.99999 	-0.000341006 	0 9.99999 	-0.000255754 	0 10 	-0.000170503 	0 10 	-8.52514e-05 	0 10 	0 	0
9.17387 	0.0871273 	0 9.1308 	0.0697018 	0 9.08741 	0.0522761 	0 9.04368 	0.0348501 	0 8.99963 	0.017424 	0 8.95524 	0 	0
10.0004 	0.00734827 	0 10.0024 	0.0152067 	0 10.0045 	0.0222288 	0 10.0065 	0.0292063 	0 10.0086 	0.0361397 	0 10.0136 	0.0463319 	0 10.0164 	0.0402129 	0 10.0208 	0.0401636 	0 10.0253 	0.0401145 	0 10.0297 	0.0400657 	0 10.0356 	0.0445243 	0 10.0385 	0.0378864 	0 10.0425 	0.0378433 	0 10.0464 	0.0378002 	0 10.0504 	0.037757 	0 10.0545 	0.0408589 	0 10.0567 	0.0387815 	0 10.0591 	0.0400913 	0 10.0616 	0.0414026 	0 10.064 	0.0427156 	0 10.0662 	0.0451742 	0 10.0677 	0.0452857 	0 10.069 	0.0464883 	0 10.0704 	0.047692 	0 10.0717 	0.0488969 	0 10.0728 	0.0499154 	0 10.0729 	0.0499781 	0 10.073 	0.0500409 	0 10.073 	0.0501037 	0 10.0731 	0.0501665 	0 10.0732 	0.0502198 	0 10.0737 	0.0508471 	0 10.0742 	0.0514684 	0 10.0747 	0.0520901 	0 10.0753 	0.0527124 	0 10.0758 	0.0531707 	0 10.0756 	0.053467 	0 10.0753 	0.0536578 	0 10.0749 	0.0538488 	0 10.0746 	0.0540399 	0 10.0741 	0.0539926 	0 10.0736 	0.0541383 	0 10.0725 	0.0541157 	0 10.0715 	0.0540931 	0 10.0704 	0.0540704 	0 10.0688 	0.0537787 	0 10.0684 	0.05386 	0 10.0668 	0.0537276 	0 10.0652 	0.0535951 	0 10.0635 	0.0534626 	0 10.061 	0.0530439 	0 10.061 	0.0530994 	0 10.059 	0.0529063 	0 10.0569 	0.0527132 	0 10.0549 	0.05252 	0 10.0514 	0.052028 	0 10.052 	0.0520829 	0 10.0497 	0.0518641 	0 10.0474 	0.0516452 	0 10.045 	0.0514263 	0 10.0404 	0.0509006 	0 10.0419 	0.0509766 	0 10.0394 	0.0507541 	0 10.0368 	0.0505317 	0 10.0343 	0.0503091 	0 10.0285 	0.0497668 	0 10.031 	0.0498709 	0 10.0284 	0.0496621 	0 10.0257 	0.0494533 	0 10.023 	0.0492445 	0 10.0161 	0.0487088 	0 10.0198 	0.0488516 	0 10.017 	0.048659 	0 10.0143 	0.0484663 	0 10.0115 	0.0482736 	0 10.0034 	0.0477369 	0 10.0083 	0.0479201 	0 10.0055 	0.0477842 	0 10.0028 	0.0476482 	0 10 	0.0475121 	0 9.99078 	0.0470432 	0 9.99695 	0.0473052 	0 9.99424 	0.0471926 	0 9.99153 	0.04708 	0 9.98881 	0.0469674 	0 9.97835 	0.046466 	0 9.9859 	0.0467562 	0 9.98329 	0.0468174 	0 9.98068 	0.0468785 	0 9.97807 	0.0469397 	0 9.96646 	0.0466745 	0 9.97553 	0.0470776 	7.90216e-22 9.97358 	0.0470574 	5.19128e-21 9.97163 	0.0470373 	9.59236e-21 9.96968 	0.0470172 	1.39934e-20 9.95764 	0.0465186 	1.18523e-20 9.96801 	0.0467022 	8.20987e-20 9.9663 	0.0464415 	7.62267e-20 9.96459 	0.0461808 	7.03521e-20 9.96288 	0.04592 	6.44749e-20 9.95064 	0.0452566 	-1.31271e-20 9.96089 	0.0452012 	-3.55573e-20 9.95922 	0.0448694 	-3.95349e-20 9.95755 	0.0445375 	-4.35109e-20 9.95588 	0.0442057 	-4.74854e-20 9.94378 	0.043598 	-1.85787e-20 9.95358 	0.0433594 	-1.6362e-20 9.95171 	0.0427471 	-1.1379e-20 9.94984 	0.0421347 	-6.39637e-21 9.94796 	0.0415222 	-1.41417e-21 9.93601 	0.0406934 	6.18572e-21 9.9454 	0.0403716 	-4.87159e-21 9.94329 	0.0395346 	-2.11016e-20 9.94118 	0.0386975 	-3.73335e-20 9.93906 	0.0378603 	-5.35672e-20 9.92715 	0.0367467 	-7.65303e-20 9.93598 	0.0365113 	-1.08561e-19 9.93351 	0.0356795 	-9.7781e-20 9.93103 	0.0348475 	-8.6994e-20 9.92855 	0.0340153 	-7.62003e-20 9.91659 	0.0327728 	-2.60248e-20 9.92471 	0.0326602 	3.06287e-20 9.92183 	0.0319087 	4.24016e-20 9.91894 	0.031157 	5.41662e-20 9.91605 	0.0304051 	6.59225e-20 9.90411 	0.0291406 	3.20742e-20 9.91144 	0.0290622 	-4.16399e-20 9.90816 	0.0283454 	-4.69516e-20 9.90487 	0.0276284 	-5.22506e-20 9.90158 	0.0269111 	-5.75368e-20 9.88975 	0.0256614 	-2.78445e-22 9.89616 	0.0255427 	5.38212e-20 9.89245 	0.0248336 	4.56224e-20 9.88874 	0.0241243 	3.74109e-20 9.88502 	0.0234146 	2.91867e-20 9.87337 	0.0222172 	-2.4844e-20 9.87868 	0.022034 	-7.3283e-20 9.8745 	0.0213318 	-9.2668e-20 9.87032 	0.0206294 	-1.12048e-19 9.86613 	0.0199267 	-1.31423e-19 9.85476 	0.01881 	-1.18988e-19 9.85875 	0.0185595 	-1.36586e-19 9.85408 	0.0178685 	-1.25734e-19 9.8494 	0.0171772 	-1.14878e-19 9.84472 	0.0164856 	-1.04019e-19 9.8338 	0.0154636 	-7.26705e-20 9.8362 	0.0151538 	-6.11534e-20 9.83104 	0.0144791 	-4.50038e-20 9.82588 	0.0138041 	-2.88558e-20 9.8207 	0.0131288 	-1.27093e-20 9.81047 	0.0122032 	1.88782e-21 9.81098 	0.0118275 	0 9.80534 	0.0111635 	0 9.7997 	0.0104993 	0 9.79405 	0.00983469 	0 9.7848 	0.00900022 	0 9.78305 	0.00854381 	-1.43327e-20 9.77695 	0.00788537 	-3.09012e-20 9.77084 	0.0072266 	-4.74713e-20 9.76472 	0.0065675 	-6.40429e-20 9.75682 	0.00582608 	-8.1277e-20 9.75355 	0.00538734 	-8.52824e-20 9.74814 	0.00484894 	-8.58147e-20 9.74272 	0.0043103 	-8.63438e-20 9.73729 	0.00377142 	-8.68698e-20 9.73211 	0.00325709 	-8.73686e-20 9.7309 	0.00313705 	-8.7664e-20 9.72968 	0.003017 	-8.79595e-20 9.72846 	0.00289693 	-8.8255e-20 9.72724 	0.00277685 	-8.85506e-20 9.72487 	0.00260401 	-8.85462e-20 9.71885 	0.00200194 	-6.44659e-20 9.71176 	0.00135138 	-3.90118e-20 9.70466 	0.000700418 	-1.35662e-20 9.69755 	4.90487e-05 	1.18709e-20 9.68292 	-0.000935524 	4.40103e-20 9.68231 	-0.00128153 	4.48067e-20 9.67478 	-0.00192807 	4.57983e-20 9.66725 	-0.00257505 	4.6788e-20 9.6597 	-0.00322247 	4.77756e-20 9.63842 	-0.00445388 	5.04688e-20 9.64307 	-0.00457581 	3.98042e-20 9.63513 	-0.00521821 	2.91372e-20 9.62718 	-0.0058611 	1.84693e-20 9.61921 	-0.00650447 	7.80022e-21 9.59164 	-0.00793697 	-8.89029e-22 9.60124 	-0.00787908 	-7.36086e-21 9.5929 	-0.00851789 	-1.75552e-20 9.58456 	-0.00915722 	-2.77484e-20 9.57621 	-0.00979707 	-3.79406e-20 9.54283 	-0.0113779 	-4.81458e-20 9.55697 	-0.0111914 	-4.83005e-20 9.54828 	-0.0118287 	-5.47504e-20 9.53957 	-0.0124667 	-6.11973e-20 9.53085 	-0.0131051 	-6.76415e-20 9.49229 	-0.0147781 	-8.38177e-20 9.51046 	-0.0145153 	-1.3026e-19 9.50143 	-0.0151513 	-1.21937e-19 9.49238 	-0.0157879 	-1.13626e-19 9.48333 	-0.0164251 	-1.05327e-19 9.44028 	-0.0181293 	-3.63719e-20 9.4619 	-0.0178402 	-2.33942e-20 9.45256 	-0.0184747 	-1.64356e-20 9.4432 	-0.0191099 	-9.47635e-21 9.43383 	-0.0197456 	-2.51636e-21 9.38702 	-0.0214249 	0 9.41151 	-0.0211595 	0 9.40189 	-0.0217939 	0 9.39225 	-0.022429 	0 9.38259 	-0.0230647 	0 9.33278 	-0.0246676 	0 9.35954 	-0.0244752 	1.52047e-21 9.34966 	-0.0251109 	8.00317e-21 9.33976 	-0.0257473 	1.44852e-20 9.32985 	-0.0263844 	2.09665e-20 9.27777 	-0.0278597 	3.65773e-20 9.30622 	-0.0277893 	1.39154e-19 9.29611 	-0.0284259 	1.41731e-19 9.28598 	-0.0290632 	1.44321e-19 9.27584 	-0.0297013 	1.46924e-19 9.2222 	-0.0309965 	3.67448e-20 9.2518 	-0.0310898 	1.97834e-20 9.24149 	-0.0317258 	1.39752e-20 9.23116 	-0.0323627 	8.16615e-21 9.21895 	-0.0330184 	3.14375e-21 9.16626 	-0.0340701 	1.5271e-20 9.19321 	-0.0343904 	9.21394e-20 9.18604 	-0.0349971 	9.9966e-20 9.17552 	-0.0356326 	1.01065e-19 9.15918 	-0.0362912 	8.9083e-20 9.11013 	-0.0370767 	3.47603e-21 9.13372 	-0.0376153 	-8.75256e-20 9.12998 	-0.0382292 	-1.13086e-19 9.11931 	-0.0388628 	-1.22088e-19 9.09955 	-0.039473 	-1.1333e-19 9.05397 	-0.0400151 	-5.40702e-20 9.07442 	-0.0407506 	-1.57177e-19 9.07355 	-0.0414148 	-1.91316e-19 9.06275 	-0.0420462 	-1.93345e-19 9.04023 	-0.0425631 	-1.53113e-19 8.99792 	-0.0428855 	-4.14601e-20 9.01545 	-0.0437956 	-2.18627e-20 9.01695 	-0.0445472 	-9.7037e-21 9.00603 	-0.0451764 	-3.29647e-21 8.98136 	-0.0455619 	0 8.94212 	-0.045689 	0 8.95697 	-0.0467525 	0 8.96036 	-0.0476227 	0 8.94936 	-0.0482495 	0 8.92309 	-0.0484725 	1.75983e-21 8.88669 	-0.0484279 	4.68582e-21 8.89909 	-0.0496235 	1.8974e-21 8.90397 	-0.0506371 	0 8.8929 	-0.0512615 	0 8.86551 	-0.0512979 	2.10799e-21 8.83175 	-0.051105 	5.03776e-21 8.84191 	-0.0524135 	2.24899e-21 8.84793 	-0.0535901 	1.12588e-21 8.83681 	-0.0542122 	6.94699e-21 8.80872 	-0.0540437 	2.15885e-20 8.77738 	-0.053724 	3.79144e-20 8.78553 	-0.0551263 	1.48873e-19 8.79238 	-0.0564791 	2.52835e-19 8.78123 	-0.0570991 	2.55931e-19 8.75279 	-0.0567142 	1.49327e-19 8.72368 	-0.0562892 	3.83748e-20 8.73001 	-0.057769 	2.22878e-20 8.73629 	-0.0592504 	6.20197e-21 8.7249 	-0.0598286 	2.43055e-22 8.69781 	-0.0593175 	3.06564e-21 8.67072 	-0.058806 	5.88809e-21 8.67542 	-0.0603473 	3.21072e-21 8.68006 	-0.0618901 	5.34101e-22 8.66906 	-0.0624374 	1.93323e-21 8.64381 	-0.0618566 	-1.5202e-21 8.61858 	-0.0612754 	-4.97277e-21 8.62182 	-0.0628627 	-4.33943e-20 8.625 	-0.0644515 	-8.18193e-20 8.61443 	-0.0649696 	-8.30096e-20 8.59086 	-0.064339 	-4.78577e-20 8.56731 	-0.063708 	-1.27041e-20 8.56925 	-0.0653389 	7.51468e-20 8.57115 	-0.0669714 	1.62993e-19 8.56103 	-0.0674622 	1.70539e-19 8.53899 	-0.066788 	9.73406e-20 8.51696 	-0.0661133 	2.41424e-20 8.51777 	-0.0677755 	1.40361e-20 8.51853 	-0.0694394 	3.9266e-21 8.5089 	-0.0699027 	4.0957e-22 8.48823 	-0.0691959 	4.50119e-21 8.46757 	-0.0684886 	8.59433e-21 8.46739 	-0.0701664 	3.67392e-21 8.46714 	-0.0718458 	-1.25117e-21 8.45803 	-0.0722829 	-1.84252e-20 8.43858 	-0.0715615 	-6.28208e-20 8.41916 	-0.0708397 	-1.07218e-19 8.4181 	-0.0725215 	-2.23401e-19 8.41699 	-0.074205 	-3.39579e-19 8.40839 	-0.0746184 	-3.2603e-19 8.39006 	-0.0738978 	-1.92847e-19 8.37174 	-0.0731766 	-5.96652e-20 8.36992 	-0.0748533 	5.03674e-20 8.36795 	-0.0765145 	1.58962e-19 8.35956 	-0.0768765 	1.56792e-19 8.34264 	-0.0762183 	8.02929e-20 8.32533 	-0.0755118 	3.0902e-22 8.32282 	-0.0771803 	-7.90875e-20 8.31939 	-0.0786512 	-1.4758e-19 8.31115 	-0.079022 	-1.55766e-19 8.29631 	-0.0785411 	-1.01723e-19 8.27992 	-0.077856 	-3.27867e-20 8.27681 	-0.0795133 	-2.28371e-20 8.27219 	-0.0807945 	-1.29754e-20 8.26408 	-0.0811751 	-3.31848e-21 8.25107 	-0.0808739 	1.19998e-20 8.2355 	-0.0802152 	3.02838e-20 8.23186 	-0.0818594 	1.08854e-20 8.22629 	-0.0829545 	-2.26217e-21 8.21831 	-0.0833467 	-7.41595e-21 8.20688 	-0.0832256 	-3.30224e-21 8.19206 	-0.0825981 	9.94944e-21 8.18794 	-0.0842292 	-4.77065e-21 8.18163 	-0.085144 	-1.42055e-20 8.17376 	-0.0855496 	-1.98833e-20 8.16371 	-0.0856072 	-3.02829e-20 8.14959 	-0.085014 	-4.9509e-20 8.14504 	-0.086632 	4.69316e-20 8.13815 	-0.0873729 	7.43067e-20 8.1304 	-0.087793 	7.63988e-20 8.12153 	-0.0880266 	6.2311e-20 8.10804 	-0.0874699 	-2.02515e-20 8.10312 	-0.0890752 	6.11696e-20 8.0958 	-0.0896494 	7.32743e-20 8.08815 	-0.0900851 	7.60498e-20 8.08032 	-0.0904913 	7.66141e-20 8.06739 	-0.0899731 	8.83822e-21 8.06206 	-0.0915292 	-5.86684e-22 8.05452 	-0.0919816 	-3.99287e-22 8.04697 	-0.0924342 	-2.11911e-22 8.03939 	-0.0928871 	-2.45553e-23 8.02762 	-0.0925308 	1.53697e-20 8.02172 	-0.0939066 	0 8.01427 	-0.0943771 	0 8.0068 	-0.0948478 	0 7.99931 	-0.0953188 	0 7.98869 	-0.0951503 	1.2554e-20 7.98235 	-0.096354 	0 7.97498 	-0.0968436 	0 7.96759 	-0.0973336 	0 7.96018 	-0.0978239 	0 7.95057 	-0.0978387 	0 7.94391 	-0.0988783 	0 7.93661 	-0.0993883 	0 7.92929 	-0.0998986 	0 7.92195 	-0.100409 	0 7.91321 	-0.100603 	-6.34439e-21 7.90633 	-0.101487 	0 7.89909 	-0.102018 	0 7.89183 	-0.10255 	0 7.88455 	-0.103081 	0 7.87659 	-0.103451 	-6.70491e-21 7.86956 	-0.104185 	0 7.86237 	-0.104739 	0 7.85517 	-0.105292 	0 7.84795 	-0.105847 	0 7.84064 	-0.106387 	-6.11083e-22 7.83994 	-0.10646 	-7.65191e-22 7.83923 	-0.106518 	-1.68258e-21 7.83852 	-0.106575 	-2.59998e-21 7.83781 	-0.106633 	-3.51739e-21 7.8371 	-0.10669 	-4.43078e-21 7.8305 	-0.107211 	-1.21499e-20 7.82388 	-0.107733 	-1.98681e-20 7.81724 	-0.108254 	-2.75851e-20 7.81058 	-0.108776 	-3.53011e-20 7.80466 	-0.109152 	-4.30222e-20 7.79709 	-0.109887 	-4.09951e-20 7.78978 	-0.110491 	-4.04062e-20 7.78245 	-0.111094 	-3.98146e-20 7.77509 	-0.111698 	-3.92203e-20 7.76928 	-0.112 	-4.17062e-20 7.76143 	-0.112903 	-3.24275e-20 7.75415 	-0.113532 	-2.31336e-20 7.74685 	-0.114161 	-1.38382e-20 7.73952 	-0.114791 	-4.5415e-21 7.73453 	-0.114967 	0 7.72639 	-0.116034 	-1.91459e-21 7.71913 	-0.11669 	-6.16493e-21 7.71184 	-0.117346 	-1.04145e-20 7.70453 	-0.118002 	-1.46634e-20 7.70035 	-0.118059 	-1.88842e-20 7.69191 	-0.119286 	-4.62547e-20 7.68467 	-0.119969 	-6.37728e-20 7.6774 	-0.120652 	-8.12926e-20 7.6701 	-0.121336 	-9.88139e-20 7.6667 	-0.121282 	-8.82044e-20 7.65796 	-0.122666 	-6.65772e-20 7.65071 	-0.123379 	-5.66356e-20 7.64345 	-0.124092 	-4.66877e-20 7.63643 	-0.124753 	-3.87394e-20 7.63351 	-0.124646 	-6.02028e-20 7.6247 	-0.126081 	-7.25803e-20 7.61722 	-0.126928 	-6.05613e-20 7.60995 	-0.127673 	-4.42705e-20 7.60374 	-0.128214 	-2.46571e-20 7.60075 	-0.128159 	4.74268e-21 7.59196 	-0.129608 	8.53999e-21 7.58414 	-0.130624 	6.9974e-21 7.57685 	-0.1314 	2.49306e-21 7.57144 	-0.131828 	0 7.56837 	-0.131825 	0 7.55958 	-0.133288 	0 7.55141 	-0.13447 	0 7.54411 	-0.135279 	0 7.53946 	-0.135599 	0 7.5363 	-0.135649 	0 7.52751 	-0.137129 	0 7.519 	-0.138472 	-3.34751e-21 7.51167 	-0.139314 	-1.893e-20 7.50777 	-0.139533 	-3.45707e-20 7.50451 	-0.139636 	-5.02224e-20 7.49571 	-0.141134 	-3.32532e-20 7.48685 	-0.142632 	-1.62779e-20 7.47965 	-0.143481 	3.58386e-21 7.4763 	-0.143636 	7.19828e-21 7.47293 	-0.143791 	1.08126e-20 7.46411 	-0.145309 	3.94723e-20 7.45524 	-0.146828 	6.81303e-20 7.44848 	-0.147704 	8.02281e-20 7.44501 	-0.147913 	6.70608e-20 7.44153 	-0.148121 	5.38917e-20 7.43269 	-0.149661 	3.26639e-20 7.42379 	-0.151201 	1.14281e-20 7.41744 	-0.152106 	3.79628e-21 7.41385 	-0.152368 	1.20109e-20 7.41025 	-0.15263 	2.02265e-20 7.40137 	-0.154192 	7.59219e-20 7.39244 	-0.155755 	1.3162e-19 7.38649 	-0.156692 	1.32233e-19 7.38277 	-0.157006 	7.71364e-20 7.37903 	-0.157321 	2.2038e-20 7.37011 	-0.158908 	1.45686e-20 7.36114 	-0.160495 	7.10257e-21 7.35557 	-0.161464 	7.18448e-21 7.3517 	-0.161832 	1.51853e-20 7.34783 	-0.1622 	2.31872e-20 7.33886 	-0.163812 	7.74641e-20 7.33029 	-0.165346 	1.24794e-19 7.32489 	-0.166323 	1.22751e-19 7.32061 	-0.166847 	7.87369e-20 7.31658 	-0.167268 	2.5084e-20 7.30756 	-0.168906 	1.78521e-20 7.29975 	-0.170326 	1.05803e-20 7.29423 	-0.171343 	3.23194e-21 7.28945 	-0.172055 	0 7.28526 	-0.172528 	0 7.27616 	-0.174194 	0 7.26909 	-0.175503 	0 7.26344 	-0.17656 	0 7.25815 	-0.177457 	0 7.25379 	-0.177982 	0 7.24462 	-0.179676 	0 7.23826 	-0.180878 	0 7.23246 	-0.181975 	0 7.22667 	-0.183056 	4.59952e-22 7.22213 	-0.183632 	1.42777e-20 7.21311 	-0.185313 	5.23993e-22 7.2072 	-0.186452 	8.04212e-21 7.20126 	-0.18759 	1.55624e-20 7.19527 	-0.188728 	2.30849e-20 7.19022 	-0.189478 	3.34125e-20 7.18194 	-0.191046 	8.57389e-20 7.17588 	-0.192224 	8.94522e-20 7.16977 	-0.193402 	9.31448e-20 7.16362 	-0.194581 	9.68166e-20 7.15804 	-0.19552 	5.51117e-20 7.15046 	-0.196977 	8.91266e-20 7.14423 	-0.198195 	7.85435e-20 7.13795 	-0.199413 	6.79393e-20 7.13164 	-0.20063 	5.73139e-20 7.12551 	-0.201757 	3.48128e-20 7.12097 	-0.20264 	3.33624e-20 7.11694 	-0.203432 	3.3634e-20 7.1129 	-0.204223 	3.39075e-20 7.10884 	-0.205015 	3.41829e-20 7.10492 	-0.205774 	3.4449e-20 7.10241 	-0.206246 	3.4016e-20 7.0999 	-0.206717 	3.35823e-20 7.09737 	-0.207188 	3.3148e-20 7.09484 	-0.207659 	3.27129e-20 7.09276 	-0.208081 	3.34332e-20 7.08576 	-0.209424 	3.15144e-20 7.07897 	-0.210718 	3.06969e-20 7.07214 	-0.212012 	2.98744e-20 7.06527 	-0.213306 	2.90468e-20 7.06002 	-0.21442 	3.37053e-20 7.05212 	-0.215934 	3.60927e-20 7.04513 	-0.217266 	3.04792e-20 7.0381 	-0.218598 	2.48733e-20 7.03103 	-0.21993 	1.92751e-20 7.02681 	-0.220953 	2.03772e-21 7.01798 	-0.222636 	-2.30491e-22 7.0108 	-0.224005 	-1.54528e-22 7.00356 	-0.225375 	-7.85368e-23 6.99627 	-0.226744 	-2.51704e-24 6.9931 	-0.227676 	0 6.98353 	-0.229488 	0 6.97591 	-0.230933 	-1.05797e-20 6.96845 	-0.232339 	-2.22798e-20 6.96209 	-0.233625 	-3.3109e-20 6.95883 	-0.234585 	-4.15624e-20 6.94904 	-0.236426 	-3.11462e-20 6.94043 	-0.238044 	-1.92577e-20 6.93275 	-0.239485 	-6.19884e-21 6.92747 	-0.240673 	2.9368e-21 6.92396 	-0.241673 	9.16685e-21 6.91396 	-0.243543 	3.8038e-21 6.90433 	-0.245334 	1.87759e-21 6.89641 	-0.246808 	1.37348e-20 6.89221 	-0.247897 	3.10135e-20 6.88846 	-0.248937 	4.89721e-20 6.87822 	-0.250834 	3.01949e-20 6.86792 	-0.252731 	1.14141e-20 6.86027 	-0.254214 	-4.97827e-22 6.85629 	-0.255292 	-3.30075e-21 6.85228 	-0.256369 	-6.10488e-21 6.8418 	-0.258293 	-4.9768e-20 6.83125 	-0.260216 	-9.34323e-20 6.8239 	-0.261738 	-9.87298e-20 6.81966 	-0.262851 	-6.4433e-20 6.81538 	-0.263965 	-3.01364e-20 6.80466 	-0.265914 	-6.49299e-20 6.79386 	-0.267862 	-9.97302e-20 6.7868 	-0.269422 	-9.7879e-20 6.78229 	-0.27057 	-6.1465e-20 6.77774 	-0.271717 	-2.50498e-20 6.76676 	-0.27369 	-6.15504e-20 6.75663 	-0.275571 	-8.81213e-20 6.74969 	-0.277131 	-8.0119e-20 6.74414 	-0.278441 	-5.02898e-20 6.73931 	-0.279622 	-9.1317e-21 6.72807 	-0.281618 	-6.83277e-21 6.71915 	-0.283378 	-4.41122e-21 6.71193 	-0.284964 	-1.90005e-21 6.70519 	-0.28646 	0 6.70008 	-0.287672 	0 6.68856 	-0.28969 	0 6.68086 	-0.291327 	0 6.67337 	-0.292939 	0 6.66581 	-0.29455 	0 6.66 	-0.295861 	0 6.64948 	-0.297776 	-8.07248e-22 6.64175 	-0.299412 	-3.42017e-21 6.63397 	-0.301047 	-6.03435e-21 6.62614 	-0.302683 	-8.6498e-21 6.61905 	-0.304183 	-7.79189e-21 6.61124 	-0.305668 	-2.14125e-20 6.60468 	-0.307027 	-1.90823e-20 6.59809 	-0.308386 	-1.67394e-20 6.59145 	-0.309745 	-1.43837e-20 6.58514 	-0.311028 	-1.21475e-20 6.5835 	-0.311342 	-1.17323e-20 6.58186 	-0.311655 	-1.13167e-20 6.58021 	-0.311969 	-1.09005e-20 6.57856 	-0.312282 	-1.04838e-20 6.57711 	-0.312569 	-1.23322e-20 6.56827 	-0.314275 	-5.52741e-21 6.55947 	-0.315951 	1.2877e-21 6.5506 	-0.317627 	8.10138e-21 6.54167 	-0.319302 	1.49136e-20 6.53399 	-0.320812 	2.03131e-20 6.52428 	-0.32269 	1.78849e-20 6.51514 	-0.324386 	1.90592e-20 6.50594 	-0.326081 	2.02263e-20 6.49668 	-0.327776 	2.13862e-20 6.48981 	-0.329165 	3.18697e-20 6.47932 	-0.331178 	3.80744e-20 6.46971 	-0.332929 	3.72861e-20 6.46017 	-0.334643 	3.5501e-20 6.45155 	-0.336235 	2.76632e-20 6.44456 	-0.337621 	9.5203e-21 6.43371 	-0.339647 	2.54083e-20 6.42315 	-0.341575 	3.44691e-20 6.41326 	-0.343306 	2.96162e-20 6.40552 	-0.344769 	9.4676e-21 6.3982 	-0.346174 	-1.39972e-20 6.38699 	-0.348211 	-8.20643e-21 6.3757 	-0.350247 	-2.41746e-21 6.36596 	-0.351971 	-1.63192e-21 6.35837 	-0.353394 	-1.13256e-21 6.35071 	-0.354816 	-6.28648e-22 6.33914 	-0.356864 	5.44503e-22 6.32748 	-0.35891 	1.72422e-21 6.318 	-0.360664 	3.23899e-21 6.31007 	-0.362103 	7.51235e-21 6.30208 	-0.363542 	1.17888e-20 6.29013 	-0.365598 	8.35842e-21 6.27877 	-0.367575 	4.9275e-21 6.26939 	-0.369314 	1.48808e-21 6.26061 	-0.37089 	0 6.25227 	-0.372344 	0 6.23994 	-0.374408 	0 6.22958 	-0.376236 	0 6.21985 	-0.377984 	0 6.21005 	-0.379731 	0 6.20128 	-0.381215 	0 6.18927 	-0.383205 	9.35731e-22 6.17925 	-0.384961 	4.56271e-21 6.16915 	-0.386717 	8.19204e-21 6.15898 	-0.388472 	1.18237e-20 6.14907 	-0.39015 	1.54616e-20 6.14418 	-0.390949 	1.49696e-20 6.13989 	-0.39168 	1.52564e-20 6.13559 	-0.392411 	1.55441e-20 6.13128 	-0.393141 	1.58326e-20 6.12707 	-0.393851 	1.6114e-20 6.12116 	-0.39489 	1.74064e-20 6.11523 	-0.395928 	1.87037e-20 6.10928 	-0.396965 	2.00061e-20 6.1033 	-0.398003 	2.13135e-20 6.09739 	-0.398943 	1.75676e-20 6.08739 	-0.400825 	1.52578e-20 6.07705 	-0.402597 	1.04696e-20 6.06664 	-0.404369 	5.69082e-21 6.05616 	-0.40614 	9.21464e-22 6.04588 	-0.407645 	-1.1103e-20 6.03594 	-0.409704 	-3.28065e-20 6.02527 	-0.411496 	-3.37301e-20 6.01448 	-0.413272 	-3.33804e-20 6.00374 	-0.414929 	-2.66283e-20 5.99313 	-0.416388 	-9.05805e-21 5.98282 	-0.418444 	1.86763