/*--------------------------------*- C++ -*----------------------------------*\
  =========                 |
  \\      /  F ield         | OpenFOAM: The Open Source CFD Toolbox
   \\    /   O peration     | Website:  https://openfoam.org
    \\  /    A nd           | Version:  9
     \\/     M anipulation  |
\*---------------------------------------------------------------------------*/
FoamFile
{
    format      ascii;
    class       volScalarField;
    location    "0.09";
    object      epsilon;
}
// * * * * * * * * * * * * * * * * * * * * * * * * * * * * * * * * * * * * * //

dimensions      [0 2 -3 0 0 0 0];

internalField   nonuniform List<scalar> 
12225
(
278.515
263.66
249.434
236.839
226.74
219.487
215.077
213.277
213.729
216.025
219.764
224.577
230.145
236.206
242.566
249.061
255.77
265.578
61.1165
86.6974
97.996
107.217
118.481
132.586
149.46
168.69
189.696
211.857
234.585
257.376
279.835
301.684
322.879
343.295
364.914
384.361
25.2776
36.1835
43.383
48.624
53.3916
58.3454
63.7858
69.8498
76.5633
83.8794
91.7101
99.9487
108.489
117.238
126.147
135.228
144.714
154.679
17.5217
21.2988
24.7151
27.6112
30.1642
32.5438
34.8727
37.2372
39.691
42.2611
44.9558
47.7719
50.7002
53.7319
56.8644
60.1185
63.5324
67.167
15.4879
16.752
18.1861
19.5894
20.9105
22.1507
23.3291
24.4693
25.5925
26.714
27.8439
28.9885
30.1513
31.3352
32.5438
33.7862
35.0727
36.4072
14.9084
15.2396
15.7465
16.3343
16.9481
17.5598
18.1571
18.7376
19.3031
19.8569
20.4022
20.9421
21.4788
22.0147
22.5524
23.0954
23.647
24.2028
14.7451
14.7391
14.8342
15.0037
15.2217
15.4683
15.7292
15.9958
16.2634
16.5295
16.7932
17.0541
17.3125
17.5687
17.8238
18.0788
18.3346
18.5874
14.7013
14.5825
14.5116
14.4858
14.4982
14.5404
14.6045
14.6841
14.7743
14.8717
14.9739
15.0792
15.1866
15.2954
15.4053
15.5164
15.6285
15.7389
14.6901
14.5373
14.407
14.3008
14.2182
14.1571
14.1146
14.0877
14.0735
14.0696
14.0741
14.0853
14.1019
14.123
14.1479
14.176
14.2069
14.2389
14.6874
14.5252
14.3761
14.2411
14.1204
14.0137
13.9203
13.8391
13.7688
13.7084
13.6565
13.6122
13.5745
13.5425
13.5157
13.4935
13.4753
13.4604
14.6868
14.5221
14.3677
14.2236
14.0896
13.9655
13.8511
13.7459
13.6494
13.5609
13.48
13.406
13.3383
13.2764
13.2199
13.1683
13.1211
13.0784
14.6866
14.5213
14.3656
14.219
14.0812
13.9518
13.8304
13.7168
13.6104
13.5109
13.418
13.3312
13.2502
13.1745
13.1039
13.038
12.9766
12.9197
14.6865
14.521
14.3648
14.2175
14.0785
13.9472
13.8233
13.7065
13.5962
13.4921
13.3939
13.3013
13.214
13.1317
13.0541
12.9809
12.9119
12.8476
14.6864
14.5208
14.3645
14.2169
14.0774
13.9456
13.8209
13.7029
13.5912
13.4854
13.3852
13.2903
13.2003
13.1151
13.0343
12.9577
12.8851
12.8171
14.6864
14.5207
14.3643
14.2165
14.0769
13.9449
13.8199
13.7016
13.5894
13.4831
13.3823
13.2867
13.1959
13.1097
13.0278
12.95
12.8762
12.8067
14.6863
14.5206
14.3641
14.2163
14.0766
13.9444
13.8193
13.7009
13.5886
13.4822
13.3812
13.2853
13.1943
13.1078
13.0257
12.9475
12.8733
12.8034
14.6863
14.5205
14.364
14.2161
14.0763
13.9441
13.8189
13.7004
13.5881
13.4815
13.3805
13.2845
13.1934
13.1069
13.0246
12.9463
12.8719
12.8019
14.6863
14.5204
14.3639
14.216
14.0761
13.9439
13.8187
13.7001
13.5877
13.4811
13.38
13.284
13.1928
13.1062
13.0238
12.9455
12.8711
12.801
14.6863
14.5204
14.3639
14.2159
14.0761
13.9438
13.8186
13.7
13.5876
13.481
13.3798
13.2838
13.1926
13.1059
13.0235
12.9452
12.8707
12.8005
14.6863
14.5205
14.3639
14.216
14.0762
13.9439
13.8187
13.7002
13.5878
13.4812
13.3801
13.2841
13.1929
13.1063
13.0239
12.9456
12.8712
12.8011
14.6863
14.5205
14.364
14.2162
14.0764
13.9443
13.8192
13.7008
13.5886
13.4822
13.3813
13.2856
13.1947
13.1084
13.0264
12.9485
12.8745
12.8049
14.6863
14.5206
14.3643
14.2167
14.0774
13.9457
13.8214
13.7039
13.5929
13.488
13.3887
13.2949
13.2061
13.122
13.0425
12.9672
12.8959
12.8291
14.6865
14.5212
14.3659
14.2202
14.0837
13.9561
13.8369
13.7256
13.6218
13.5251
13.4348
13.3507
13.2721
13.1987
13.1301
13.066
13.006
12.9506
14.6876
14.5264
14.3794
14.2467
14.1282
14.0231
13.9302
13.8484
13.7762
13.7126
13.6564
13.6067
13.5626
13.5235
13.4887
13.4578
13.4302
13.4061
14.6976
14.5664
14.4707
14.4075
14.3714
14.3568
14.3583
14.3718
14.3939
14.4221
14.4546
14.4902
14.528
14.5672
14.6075
14.6484
14.6899
14.7317
14.7737
14.8186
14.9602
15.159
15.3861
15.6231
15.8594
16.0899
16.3127
16.5274
16.7346
16.935
17.1294
17.3188
17.5039
17.6852
17.8633
18.0377
15.2587
16.1151
17.0711
17.9724
18.7874
19.5231
20.1934
20.8135
21.3969
21.9549
22.4956
23.0252
23.5481
24.067
24.5837
25.0991
25.6133
26.124
18.0414
22.0078
24.9883
27.1527
28.8873
30.4033
31.8101
33.175
34.5391
35.9248
37.3432
38.7981
40.2886
41.8108
43.359
44.927
46.5082
48.0896
34.0238
45.6872
51.3756
54.9403
58.0775
61.2927
64.7429
68.4719
72.4636
76.675
81.0559
85.5566
90.1306
94.7362
99.3379
103.907
108.427
112.873
163.308
157.417
151.704
146.261
141.3
136.946
133.249
130.205
127.778
125.915
124.553
123.63
123.084
122.859
122.903
123.17
123.62
124.218
2.99262
1.82431
2.49126
3.01892
3.4564
3.83147
4.16484
4.47631
4.79065
5.12536
5.48844
5.88915
6.33477
6.82575
7.34887
7.87868
8.35692
8.7261
8.95731
38.2654
38.4235
8.90731
8.87316
9.00689
9.03893
9.13324
38.8657
38.9247
9.19864
42.3817
46.4393
50.6609
54.9916
59.4052
63.8822
68.4097
72.9793
77.5869
82.2319
86.9161
91.6436
96.4202
101.253
106.149
111.118
116.166
121.304
126.54
131.881
137.336
142.912
148.615
154.452
160.43
166.552
172.824
179.249
185.83
192.571
199.473
206.538
213.765
221.156
228.71
236.426
244.301
252.334
260.522
268.86
277.346
285.975
294.741
303.64
312.664
321.807
331.062
340.421
349.877
359.42
369.042
378.733
388.483
398.281
408.116
417.976
427.85
437.725
447.589
457.429
467.233
476.992
486.699
496.356
505.979
515.611
525.166
534.571
543.822
552.91
561.823
570.546
579.065
587.365
595.431
603.251
610.811
618.099
625.103
631.811
638.214
644.3
650.063
655.492
660.582
665.324
669.714
673.746
677.416
680.718
683.65
686.209
688.392
690.197
691.622
692.666
693.326
693.602
693.492
692.995
692.11
690.835
689.168
687.11
684.657
681.81
678.567
674.926
670.888
666.452
661.618
656.388
650.762
644.744
638.337
631.546
624.379
616.844
608.951
600.713
592.145
583.264
574.095
564.736
555.764
550.11
547.418
544.785
541.941
538.862
535.558
532.044
528.344
524.483
520.489
516.393
512.224
508.015
503.794
499.589
495.427
491.325
487.297
483.342
479.444
475.551
471.545
467.132
461.584
452.705
439.148
4.37704
3.10417
3.04022
3.12223
3.24502
3.39464
3.57516
3.79815
4.07862
4.4247
4.84545
5.3523
5.9606
6.68935
7.51722
8.44168
9.46161
10.599
11.9805
14.3157
15.8081
16.7075
18.4124
19.657
21.5005
23.3135
25.9501
27.9531
29.4541
32.2586
34.2475
36.1647
38.0796
40
41.9287
43.8692
45.8254
47.801
49.7998
51.8252
53.8806
55.9693
58.0943
60.2584
62.4644
64.7149
67.0121
69.3583
71.7554
74.2055
76.71
79.2705
81.8883
84.5645
87.2999
90.0953
92.9513
95.8681
98.846
101.885
104.985
108.145
111.365
114.644
117.981
121.376
124.826
128.331
131.889
135.497
139.155
142.86
146.609
150.402
154.233
158.102
162.005
165.939
169.901
173.887
177.894
181.918
185.955
190.001
194.052
198.104
202.152
206.192
210.22
214.233
218.23
222.21
226.178
230.143
234.134
238.124
242.066
245.951
249.773
253.528
257.209
260.812
264.33
267.758
271.092
274.325
277.454
280.473
283.379
286.166
288.832
291.372
293.783
296.062
298.206
300.213
302.08
303.805
305.386
306.822
308.11
309.251
310.241
311.081
311.768
312.304
312.686
312.913
312.986
312.903
312.664
312.268
311.714
311.002
310.131
309.1
307.91
306.559
305.048
303.377
301.545
299.553
297.403
295.095
292.632
290.015
287.248
284.337
281.284
278.1
274.794
271.395
267.956
264.767
262.225
260.092
257.972
255.793
253.55
251.249
248.899
246.511
244.098
241.671
239.245
236.83
234.44
232.086
229.778
227.526
225.338
223.22
221.176
219.208
217.317
215.504
213.759
212.142
210.63
212.808
6.86738
4.40558
3.98548
3.88549
3.89993
3.98733
4.14259
4.37363
4.68152
5.08293
5.59708
6.23303
7.00609
7.9249
8.98562
10.1761
11.478
12.8716
14.3398
15.869
17.3477
18.7764
20.1854
21.5564
22.9695
24.4272
25.973
27.5296
29.0709
30.6321
32.1402
33.6472
35.1699
36.7122
38.2752
39.86
41.4675
43.099
44.7557
46.4391
48.1507
49.8921
51.6648
53.4704
55.3105
57.1867
59.1002
61.0527
63.0452
65.0791
67.1554
69.2751
71.4391
73.648
75.9026
78.2032
80.5504
82.9441
85.3847
87.872
90.4059
92.9861
95.6123
98.2837
101
103.76
106.563
109.408
112.294
115.219
118.182
121.182
124.216
127.284
130.382
133.51
136.665
139.845
143.047
146.269
149.508
152.762
156.028
159.304
162.586
165.871
169.158
172.445
175.728
179.007
182.281
185.551
188.818
192.084
195.345
198.581
201.779
204.933
208.037
211.086
214.076
217.002
219.86
222.644
225.351
227.977
230.516
232.966
235.321
237.58
239.738
241.792
243.739
245.576
247.302
248.913
250.409
251.786
253.043
254.18
255.194
256.085
256.853
257.495
258.012
258.404
258.67
258.809
258.822
258.709
258.469
258.102
257.609
256.99
256.243
255.371
254.372
253.247
251.996
250.62
249.119
247.495
245.747
243.878
241.889
239.783
237.562
235.23
232.79
230.255
227.622
224.949
222.28
219.712
217.343
215.082
212.82
210.528
208.201
205.846
203.471
201.085
198.698
196.321
193.963
191.634
189.344
187.101
184.914
182.789
180.733
178.753
176.853
175.041
173.325
171.727
170.282
169.11
168.428
169.72
9.96698
5.84826
5.06869
4.83454
4.794
4.86953
5.04557
5.30613
5.66122
6.12562
6.71572
7.44522
8.32276
9.34744
10.5057
11.7718
13.1117
14.4887
15.8695
17.2276
18.5434
19.8189
21.0676
22.3093
23.5676
24.8573
26.1855
27.544
28.9216
30.3122
31.7129
33.1312
34.5718
36.0365
37.5259
39.0404
40.5802
42.146
43.7384
45.358
47.006
48.6834
50.3912
52.1307
53.9031
55.7097
57.5516
59.4302
61.3465
63.3017
65.2969
67.3331
69.4111
71.5318
73.6958
75.9039
78.1565
80.454
82.7967
85.1847
87.6183
90.0971
92.6212
95.1901
97.8034
100.461
103.161
105.904
108.688
111.512
114.376
117.277
120.215
123.188
126.193
129.231
132.297
135.391
138.51
141.652
144.815
147.996
151.193
154.403
157.624
160.854
164.09
167.33
170.571
173.813
177.054
180.291
183.524
186.748
189.953
193.127
196.264
199.356
202.401
205.391
208.322
211.19
213.988
216.714
219.361
221.925
224.402
226.788
229.078
231.268
233.356
235.337
237.209
238.968
240.612
242.139
243.546
244.832
245.995
247.034
247.948
248.736
249.397
249.932
250.339
250.619
250.772
250.798
250.698
250.472
250.12
249.644
249.043
248.318
247.471
246.502
245.411
244.2
242.869
241.42
239.853
238.17
236.373
234.463
232.442
230.314
228.078
225.744
223.308
220.792
218.212
215.591
212.959
210.361
207.827
205.322
202.809
200.273
197.714
195.139
192.556
189.974
187.401
184.849
182.326
179.841
177.403
175.021
172.702
170.453
168.28
166.19
164.191
162.29
160.503
158.856
157.398
156.247
155.606
156.117
13.448
7.4124
6.26273
5.90667
5.82707
5.90398
6.0887
6.37234
6.76152
7.2674
7.90149
8.6718
9.57911
10.6139
11.7553
12.9729
14.2321
15.5004
16.7529
17.9762
19.168
20.3369
21.498
22.6675
23.8597
25.0835
26.3426
27.6356
28.9589
30.3093
31.6857
33.089
34.5203
35.98
37.4683
38.9852
40.5309
42.1055
43.7095
45.3434
47.0078
48.7034
50.4312
52.1922
53.9874
55.818
57.6851
59.59
61.5339
63.5179
65.5433
67.6112
69.7227
71.8788
74.0804
76.3285
78.6237
80.9668
83.3583
85.7986
88.2881
90.8269
93.4151
96.0527
98.7393
101.475
104.258
107.089
109.967
112.891
115.86
118.872
121.926
125.021
128.154
131.325
134.532
137.771
141.042
144.341
147.667
151.016
154.387
157.777
161.183
164.602
168.031
171.469
174.912
178.357
181.802
185.244
188.678
192.095
195.486
198.842
202.159
205.429
208.647
211.807
214.904
217.933
220.886
223.76
226.548
229.246
231.848
234.35
236.746
239.033
241.206
243.261
245.196
247.005
248.687
250.239
251.659
252.944
254.094
255.106
255.98
256.714
257.31
257.766
258.082
258.26
258.299
258.2
257.965
257.593
257.088
256.449
255.677
254.776
253.745
252.586
251.301
249.892
248.36
246.706
244.934
243.043
241.039
238.922
236.691
234.358
231.917
229.381
226.763
224.069
221.313
218.509
215.679
212.847
210.027
207.207
204.372
201.519
198.65
195.773
192.895
190.026
187.174
184.351
181.565
178.825
176.14
173.519
170.969
168.498
166.112
163.818
161.626
159.546
157.595
155.802
154.219
152.951
152.147
152.105
17.2056
9.12505
7.56006
7.0646
6.93714
6.99273
7.17142
7.46006
7.85897
8.37344
9.00886
9.76686
10.6423
11.6217
12.6832
13.7998
14.9439
16.0922
17.2298
18.3515
19.4603
20.5658
21.6797
22.8139
23.9773
25.1756
26.4112
27.6843
28.9935
30.3374
31.7153
33.1267
34.5718
36.0504
37.5624
39.1078
40.6865
42.2987
43.9444
45.6241
47.3381
49.0871
50.8717
52.693
54.5518
56.4492
58.3865
60.365
62.3858
64.4505
66.5602
68.7165
70.9206
73.1738
75.4774
77.8326
80.2403
82.7015
85.2173
87.7882
90.4148
93.0977
95.8372
98.6333
101.486
104.396
107.361
110.382
113.458
116.589
119.772
123.007
126.293
129.627
133.009
136.436
139.906
143.417
146.967
150.553
154.173
157.823
161.501
165.204
168.929
172.672
176.431
180.201
183.979
187.762
191.545
195.325
199.092
202.834
206.546
210.22
213.849
217.427
220.948
224.404
227.789
231.097
234.322
237.457
240.495
243.431
246.259
248.973
251.567
254.037
256.377
258.584
260.652
262.578
264.358
265.991
267.472
268.8
269.973
270.989
271.849
272.55
273.093
273.477
273.704
273.775
273.689
273.448
273.055
272.51
271.816
270.975
269.988
268.857
267.586
266.177
264.631
262.952
261.14
259.202
257.138
254.949
252.641
250.219
247.676
245.033
242.292
239.458
236.541
233.547
230.487
227.375
224.227
221.057
217.874
214.679
211.467
208.24
205.003
201.763
198.53
195.313
192.122
188.966
185.855
182.799
179.806
176.886
174.046
171.294
168.637
166.085
163.646
161.333
159.164
157.169
155.398
153.937
152.89
152.402
20.7432
10.823
8.85967
8.22817
8.03507
8.0524
8.21109
8.48666
8.87185
9.36585
9.96873
10.6778
11.4854
12.378
13.3372
14.3423
15.3736
16.4161
17.4612
18.5072
19.5583
20.6216
21.7058
22.8186
23.9659
25.1517
26.3777
27.6446
28.9522
30.2999
31.6875
33.1147
34.5812
36.0871
37.6321
39.2162
40.8393
42.5015
44.2027
45.9433
47.7235
49.5439
51.405
53.3077
55.2531
57.242
59.2759
61.3561
63.4841
65.6612
67.8893
70.1698
72.5044
74.8947
77.3422
79.8485
82.4149
85.0427
87.7333
90.4875
93.3064
96.1906
99.1408
102.157
105.24
108.39
111.606
114.888
118.235
121.646
125.121
128.658
132.256
135.913
139.627
143.396
147.217
151.089
155.008
158.973
162.979
167.023
171.103
175.214
179.353
183.516
187.699
191.897
196.107
200.323
204.54
208.753
212.944
217.106
221.233
225.317
229.35
233.325
237.234
241.071
244.827
248.495
252.068
255.537
258.897
262.139
265.257
268.245
271.095
273.802
276.36
278.764
281.008
283.089
285.002
286.745
288.313
289.705
290.919
291.953
292.806
293.477
293.966
294.275
294.403
294.352
294.123
293.719
293.141
292.392
291.474
290.392
289.146
287.741
286.179
284.465
282.603
280.593
278.438
276.149
273.725
271.165
268.48
265.681
262.765
259.743
256.62
253.403
250.1
246.718
243.269
239.763
236.213
232.631
229.027
225.404
221.765
218.115
214.461
210.811
207.174
203.561
199.982
196.447
192.966
189.548
186.203
182.939
179.766
176.692
173.725
170.874
168.149
165.565
163.139
160.901
158.896
157.194
155.862
154.973
23.9048
12.4007
10.0823
9.30669
9.03629
9.0115
9.14212
9.39259
9.74857
10.2041
10.7556
11.3984
12.1246
12.9232
13.7804
14.6817
15.614
16.5678
17.5382
18.5246
19.5301
20.5597
21.6192
22.7136
23.847
25.0222
26.241
27.5043
28.8125
30.1659
31.5647
33.0089
34.4987
36.0341
37.6152
39.2419
40.9143
42.6323
44.3962
46.2059
48.062
49.9647
51.9149
53.9132
55.9606
58.0584
60.2079
62.4105
64.6679
66.9819
69.3542
71.7869
74.2817
76.8406
79.4656
82.1585
84.921
87.7548
90.6615
93.6424
96.6987
99.8315
103.042
106.33
109.696
113.141
116.664
120.266
123.944
127.699
131.53
135.435
139.412
143.459
147.575
151.757
156.002
160.308
164.671
169.089
173.557
178.072
182.63
187.227
191.858
196.518
201.204
205.908
210.627
215.353
220.083
224.799
229.488
234.143
238.756
243.319
247.824
252.263
256.625
260.904
265.09
269.174
273.148
277.004
280.733
284.327
287.778
291.078
294.221
297.198
300.004
302.632
305.076
307.331
309.394
311.259
312.925
314.387
315.644
316.694
317.536
318.17
318.595
318.812
318.823
318.629
318.233
317.636
316.841
315.853
314.675
313.311
311.764
310.037
308.135
306.066
303.833
301.439
298.88
296.179
293.337
290.355
287.241
284.003
280.646
277.177
273.604
269.933
266.174
262.335
258.426
254.458
250.442
246.391
242.313
238.216
234.105
229.989
225.875
221.772
217.692
213.644
209.639
205.686
201.797
197.982
194.25
190.61
187.071
183.643
180.335
177.155
174.114
171.228
168.514
166.002
163.728
161.749
160.105
158.835
26.6144
13.8033
11.1438
10.226
9.88673
9.82148
9.92158
10.1419
10.4621
10.8725
11.3672
11.9409
12.5872
13.2979
14.0636
14.8748
15.7231
16.6026
17.5103
18.4457
19.4109
20.409
21.4436
22.5182
23.6358
24.7987
26.0086
27.2669
28.5747
29.9327
31.3417
32.8022
34.3149
35.88
37.498
39.1689
40.8931
42.6706
44.5017
46.3866
48.3258
50.3197
52.369
54.4746
56.6377
58.8594
61.1413
63.4851
65.8925
68.3657
70.9066
73.5175
76.2007
78.9584
81.7928
84.7061
87.7005
90.7781
93.9406
97.1897
100.527
103.954
107.471
111.08
114.78
118.573
122.458
126.434
130.502
134.659
138.906
143.24
147.658
152.16
156.743
161.403
166.138
170.945
175.819
180.757
185.756
190.81
195.914
201.065
206.256
211.482
216.737
222.016
227.31
232.613
237.918
243.195
248.44
253.644
258.799
263.895
268.922
273.871
278.732
283.496
288.151
292.689
297.099
301.373
305.5
309.471
313.278
316.912
320.363
323.626
326.691
329.551
332.201
334.634
336.846
338.831
340.588
342.112
343.401
344.453
345.268
345.844
346.183
346.284
346.15
345.784
345.188
344.363
343.315
342.048
340.568
338.879
336.985
334.89
332.596
330.121
327.466
324.636
321.635
318.474
315.16
311.698
308.096
304.361
300.502
296.526
292.441
288.257
283.982
279.626
275.2
270.714
266.18
261.609
257.012
252.399
247.778
243.157
238.547
233.958
229.399
224.883
220.42
216.021
211.696
207.455
203.309
199.266
195.337
191.531
187.857
184.325
180.946
177.734
174.709
171.895
169.325
167.043
165.07
163.428
28.824
14.9304
11.9859
10.9555
10.5594
10.4585
10.5296
10.7199
11.0046
11.3713
11.8129
12.3241
12.9
13.535
14.2233
14.9589
15.7369
16.5536
17.4069
18.2966
19.2237
20.1902
21.1984
22.251
23.3502
24.4982
25.6971
26.9485
28.254
29.6152
31.0333
32.5094
34.0446
35.6397
37.2955
39.0126
40.7914
42.6323
44.5359
46.5025
48.5328
50.6273
52.7871
55.0131
57.3066
59.669
62.102
64.6076
67.1879
69.845
72.5814
75.3997
78.3022
81.2918
84.3709
87.5421
90.8079
94.1705
97.6323
101.195
104.861
108.63
112.506
116.487
120.576
124.772
129.076
133.486
138.002
142.623
147.347
152.172
157.096
162.116
167.229
172.433
177.722
183.094
188.544
194.067
199.66
205.316
211.03
216.797
222.61
228.462
234.348
240.259
246.187
252.126
258.043
263.928
269.772
275.567
281.302
286.966
292.549
298.039
303.425
308.696
313.841
318.85
323.71
328.412
332.945
337.299
341.463
345.429
349.186
352.728
356.044
359.126
361.968
364.562
366.904
368.99
370.815
372.376
373.67
374.696
375.453
375.94
376.157
376.107
375.791
375.213
374.376
373.283
371.935
370.345
368.516
366.456
364.168
361.658
358.934
356.007
352.882
349.567
346.068
342.396
338.558
334.563
330.418
326.134
321.719
317.183
312.534
307.784
302.942
298.019
293.027
287.976
282.879
277.749
272.596
267.431
262.266
257.11
251.975
246.87
241.808
236.799
231.854
226.985
222.202
217.516
212.936
208.473
204.136
199.934
195.878
191.977
188.242
184.689
181.334
178.2
175.313
172.709
170.394
168.384
30.3827
15.7513
12.6059
11.4915
11.0506
10.9198
10.9655
11.1293
11.3829
11.7121
12.109
12.5685
13.087
13.6609
14.2866
14.961
15.6811
16.4448
17.2509
18.0991
18.9902
19.9254
20.9065
21.9357
23.0151
24.147
25.3337
26.5775
27.8806
29.2449
30.6725
32.1652
33.7247
35.3522
37.0492
38.8167
40.6556
42.5668
44.5511
46.6093
48.7423
50.9511
53.2368
55.6008
58.0444
60.5695
63.1781
65.8722
68.6543
71.527
74.4928
77.5548
80.7156
83.9782
87.3456
90.8204
94.4056
98.1036
101.917
105.847
109.897
114.068
118.361
122.776
127.316
131.979
136.765
141.674
146.705
151.856
157.125
162.509
168.006
173.612
179.323
185.135
191.044
197.046
203.135
209.306
215.553
221.871
228.254
234.693
241.183
247.716
254.284
260.877
267.489
274.089
280.653
287.175
293.644
300.052
306.387
312.636
318.786
324.824
330.738
336.517
342.148
347.619
352.919
358.035
362.956
367.672
372.171
376.443
380.478
384.268
387.804
391.074
394.071
396.788
399.221
401.365
403.216
404.77
406.025
406.979
407.632
407.981
408.029
407.778
407.23
406.391
405.263
403.851
402.161
400.2
397.975
395.494
392.763
389.791
386.585
383.156
379.512
375.663
371.616
367.382
362.972
358.394
353.66
348.778
343.761
338.618
333.361
328.001
322.549
317.018
311.42
305.767
300.073
294.35
288.612
282.87
277.136
271.422
265.74
260.101
254.516
248.997
243.556
238.204
232.95
227.807
222.783
217.888
213.133
208.526
204.078
199.798
195.698
191.792
188.095
184.627
181.411
178.473
175.81
173.434
31.3988
16.3089
13.026
11.8499
11.3741
11.2189
11.2434
11.3854
11.6142
11.9142
12.2768
12.6972
13.1724
13.7
14.2781
14.9051
15.5794
16.3001
17.0665
17.8788
18.7375
19.6439
20.5997
21.6069
22.6679
23.7853
24.9618
26.2003
27.5037
28.8746
30.316
31.8302
33.4197
35.0866
36.8328
38.6603
40.5704
42.5647
44.6445
46.8112
49.066
51.4104
53.846
56.3743
58.9974
61.7173
64.5362
67.4567
70.4815
73.6134
76.8554
80.2106
83.682
87.2729
90.9862
94.8251
98.7924
102.891
107.122
111.49
115.995
120.638
125.422
130.347
135.412
140.618
145.964
151.449
157.071
162.829
168.718
174.737
180.88
187.144
193.524
200.014
206.61
213.306
220.097
226.975
233.935
240.97
248.072
255.234
262.448
269.704
276.995
284.311
291.62
298.891
306.113
313.279
320.377
327.396
334.323
341.146
347.847
354.412
360.829
367.085
373.168
379.064
384.76
390.246
395.508
400.534
405.314
409.836
414.092
418.07
421.767
425.162
428.25
431.025
433.484
435.62
437.431
438.912
440.061
440.878
441.361
441.51
441.327
440.814
439.976
438.816
437.339
435.552
433.46
431.073
428.397
425.441
422.215
418.727
414.986
411.005
406.793
402.36
397.717
392.876
387.848
382.645
377.277
371.758
366.098
360.311
354.409
348.405
342.311
336.142
329.909
323.628
317.313
310.976
304.633
298.297
291.98
285.696
279.456
273.272
267.157
261.123
255.18
249.34
243.613
238.01
232.54
227.213
222.038
217.025
212.184
207.524
203.056
198.793
194.749
190.942
187.39
184.112
181.099
178.363
31.9933
16.6507
13.2775
12.057
11.554
11.3792
11.3871
11.5126
11.7237
12.0035
12.343
12.7372
13.1834
13.6798
14.2253
14.8192
15.4609
16.1501
16.8869
17.6717
18.5055
19.3897
20.3262
21.3174
22.3662
23.4757
24.6492
25.8903
27.2026
28.5899
30.0557
31.6034
33.2363
34.9576
36.7701
38.6763
40.6788
42.7797
44.9813
47.2855
49.6942
52.2096
54.8336
57.5684
60.4164
63.3802
66.4624
69.6659
72.9936
76.4487
80.0343
83.7536
87.61
91.6065
95.7462
100.032
104.467
109.053
113.793
118.689
123.741
128.952
134.321
139.848
145.534
151.377
157.375
163.527
169.83
176.282
182.878
189.615
196.487
203.488
210.61
217.848
225.197
232.65
240.199
247.839
255.561
263.357
271.22
279.141
287.11
295.12
303.159
311.19
319.175
327.104
334.966
342.751
350.445
358.037
365.514
372.867
380.065
387.097
393.952
400.616
407.077
413.32
419.334
425.105
430.62
435.868
440.838
445.518
449.899
453.969
457.722
461.145
464.23
466.972
469.364
471.403
473.084
474.405
475.363
475.958
476.188
476.056
475.563
474.712
473.507
471.954
470.058
467.827
465.267
462.388
459.199
455.709
451.929
447.869
443.541
438.956
434.127
429.064
423.781
418.291
412.605
406.738
400.703
394.512
388.18
381.721
375.148
368.476
361.719
354.892
348.009
341.086
334.137
327.179
320.224
313.29
306.388
299.532
292.736
286.012
279.371
272.827
266.389
260.069
253.877
247.823
241.916
236.166
230.581
225.171
219.944
214.911
210.081
205.466
201.079
196.934
193.047
189.431
186.073
182.986
32.2474
16.8165
13.3926
12.1426
11.6201
11.431
11.4274
11.5429
11.7442
12.0138
12.3422
12.7239
13.1562
13.6374
14.1668
14.744
15.369
16.0421
16.7637
17.5349
18.3571
19.2323
20.1628
21.1518
22.2027
23.3194
24.5063
25.7675
27.1079
28.532
30.0446
31.6503
33.3535
35.1585
37.0693
39.0897
41.2231
43.473
45.8424
48.3345
50.9521
53.6976
56.5737
59.5833
62.7295
66.0151
69.4433
73.0172
76.74
80.6149
84.645
88.8334
93.1832
97.6972
102.378
107.229
112.251
117.447
122.817
128.364
134.086
139.986
146.061
152.311
158.734
165.329
172.091
179.018
186.106
193.351
200.748
208.292
215.983
223.797
231.733
239.785
247.945
256.206
264.56
272.999
281.514
290.098
298.741
307.434
316.165
324.93
333.67
342.351
350.963
359.493
367.93
376.26
384.471
392.547
400.475
408.241
415.826
423.214
430.392
437.347
444.064
450.531
456.735
462.662
468.301
473.64
478.667
483.372
487.745
491.776
495.457
498.778
501.732
504.313
506.515
508.335
509.768
510.813
511.467
511.731
511.604
511.088
510.186
508.902
507.24
505.207
502.809
500.053
496.95
493.507
489.736
485.648
481.253
476.564
471.594
466.355
460.861
455.125
449.162
442.985
436.609
430.049
423.319
416.434
409.409
402.26
395.003
387.652
380.223
372.734
365.198
357.634
350.056
342.481
334.925
327.402
319.928
312.516
305.18
297.933
290.786
283.752
276.84
270.061
263.426
256.943
250.621
244.469
238.495
232.707
227.114
221.725
216.549
211.596
206.877
202.406
198.193
194.249
190.557
187.131
32.2391
16.8444
13.4036
12.1389
11.6058
11.4098
11.4025
11.5168
11.719
11.991
12.3226
12.7082
13.1446
13.63
14.1637
14.7455
15.3757
16.0548
16.784
17.5648
18.3992
19.2899
20.2401
21.2537
22.3353
23.4897
24.7226
26.0392
27.4451
28.9465
30.5495
32.2604
34.085
36.0291
38.0983
40.2977
42.6324
45.107
47.7261
50.4942
53.4159
56.4934
59.7292
63.1276
66.6922
70.4264
74.3336
78.4168
82.6791
87.1233
91.7521
96.5678
101.573
106.769
112.158
117.74
123.518
129.491
135.658
142.02
148.575
155.321
162.255
169.376
176.679
184.159
191.813
199.635
207.619
215.758
224.047
232.477
241.041
249.728
258.529
267.435
276.438
285.53
294.702
303.944
313.248
322.605
332.006
341.444
350.895
360.287
369.603
378.83
387.955
396.964
405.844
414.58
423.159
431.566
439.787
447.806
455.609
463.179
470.503
477.568
484.36
490.867
497.075
502.974
508.551
513.795
518.696
523.244
527.429
531.244
534.679
537.728
540.383
542.64
544.493
545.939
546.975
547.598
547.81
547.608
546.996
545.974
544.546
542.717
540.493
537.879
534.884
531.516
527.785
523.701
519.275
514.52
509.449
504.073
498.408
492.467
486.266
479.819
473.142
466.25
459.159
451.885
444.444
436.853
429.129
421.287
413.345
405.319
397.227
389.086
380.913
372.724
364.538
356.37
348.238
340.156
332.14
324.205
316.363
308.628
301.01
293.523
286.174
278.975
271.933
265.059
258.358
251.84
245.51
239.378
233.45
227.733
222.238
216.971
211.945
207.167
202.647
198.393
194.386
190.64
32.0365
16.7692
13.342
12.0795
11.549
11.3588
11.3612
11.4894
11.7096
12.0032
12.3598
12.7732
13.24
13.7582
14.3272
14.9466
15.6172
16.34
17.1165
17.949
18.8405
19.7945
20.8152
21.9074
23.0771
24.3316
25.6794
27.1245
28.6736
30.3356
32.119
34.0321
36.0829
38.279
40.6281
43.1373
45.8132
48.6623
51.6905
54.9034
58.3059
61.9024
65.6967
69.6927
73.894
78.3037
82.9246
87.759
92.8086
98.075
103.559
109.262
115.182
121.321
127.677
134.249
141.034
148.03
155.235
162.643
170.253
178.057
186.052
194.231
202.588
211.116
219.808
228.655
237.65
246.784
256.048
265.432
274.928
284.523
294.209
303.976
313.814
323.714
333.666
343.663
353.695
363.754
373.831
383.855
393.781
403.601
413.302
422.871
432.293
441.555
450.644
459.545
468.245
476.73
484.985
492.998
500.754
508.239
515.44
522.346
528.943
535.22
541.166
546.77
552.021
556.911
561.43
565.569
569.32
572.676
575.631
578.177
580.31
582.024
583.318
584.186
584.629
584.644
584.232
583.393
582.13
580.445
578.343
575.828
572.907
569.588
565.878
561.786
557.324
552.503
547.334
541.831
536.007
529.876
523.454
516.756
509.799
502.597
495.169
487.53
479.698
471.691
463.526
455.22
446.791
438.258
429.638
420.95
412.211
403.439
394.653
385.869
377.107
368.383
359.713
351.115
342.602
334.189
325.89
317.716
309.68
301.79
294.056
286.488
279.092
271.875
264.846
258.009
251.371
244.938
238.717
232.714
226.936
221.391
216.087
211.033
206.234
201.696
197.399
193.359
31.7398
16.6392
13.2533
12.0164
11.5112
11.3505
11.3884
11.5588
11.8278
12.1769
12.5955
13.0775
13.6194
14.2194
14.8772
15.593
16.368
17.204
18.1037
19.0702
20.1074
21.2213
22.4177
23.6985
25.0732
26.5514
28.1428
29.8566
31.7026
33.6915
35.8341
38.1412
40.6234
43.2907
46.1531
49.2196
52.4988
55.9986
59.7261
63.6874
67.888
72.3322
77.0236
81.9649
87.158
92.6042
98.3035
104.255
110.458
116.91
123.609
130.549
137.728
145.14
152.779
160.641
168.718
177.003
185.489
194.168
203.031
212.071
221.277
230.642
240.155
249.806
259.586
269.486
279.493
289.599
299.794
310.066
320.405
330.801
341.245
351.726
362.235
372.768
383.309
393.861
404.404
414.868
425.2
435.402
445.459
455.358
465.087
474.633
483.983
493.125
502.047
510.736
519.18
527.365
535.282
542.916
550.256
557.291
564.009
570.4
576.453
582.158
587.506
592.488
597.096
601.321
605.155
608.593
611.627
614.252
616.463
618.254
619.622
620.564
621.077
621.159
620.809
620.028
618.816
617.174
615.105
612.613
609.703
606.38
602.65
598.521
594.003
589.104
583.837
578.212
572.242
565.941
559.324
552.405
545.2
537.726
530
522.038
513.86
505.481
496.922
488.201
479.336
470.345
461.249
452.065
442.814
433.513
424.182
414.839
405.502
396.191
386.923
377.716
368.585
359.547
350.617
341.809
333.134
324.605
316.231
308.022
299.985
292.128
284.457
276.977
269.693
262.611
255.734
249.068
242.617
236.387
230.384
224.613
219.081
213.796
208.76
203.978
199.43
195.134
31.4295
16.5041
13.1904
12.012
11.5674
11.4747
11.5901
11.8483
12.216
12.6751
13.2157
13.8324
14.5225
15.2855
16.122
17.0338
18.0235
19.0945
20.2513
21.5004
22.8409
24.2792
25.8249
27.4867
29.2755
31.2034
33.2828
35.5266
37.9481
40.5607
43.3782
46.4138
49.6804
53.1902
56.9542
60.9828
65.2849
69.8678
74.7379
79.8995
85.3558
91.108
97.156
103.498
110.132
117.052
124.253
131.728
139.47
147.469
155.716
164.202
172.914
181.842
190.974
200.299
209.805
219.48
229.311
239.288
249.398
259.63
269.972
280.413
290.942
301.547
312.218
322.946
333.719
344.527
355.362
366.214
377.072
387.929
398.783
409.618
420.421
431.225
441.962
452.569
463.01
473.29
483.392
493.309
503.03
512.543
521.839
530.907
539.737
548.317
556.638
564.689
572.46
579.941
587.122
593.993
600.545
606.767
612.651
618.188
623.37
628.189
632.637
636.708
640.393
643.688
646.587
649.083
651.173
652.852
654.116
654.963
655.388
655.391
654.969
654.122
652.849
651.152
649.031