/*--------------------------------*- C++ -*----------------------------------*\
  =========                 |
  \\      /  F ield         | OpenFOAM: The Open Source CFD Toolbox
   \\    /   O peration     | Website:  https://openfoam.org
    \\  /    A nd           | Version:  9
     \\/     M anipulation  |
\*---------------------------------------------------------------------------*/
FoamFile
{
    format      ascii;
    class       volScalarField;
    location    "0.09";
    object      p;
}
// * * * * * * * * * * * * * * * * * * * * * * * * * * * * * * * * * * * * * //

dimensions      [0 2 -2 0 0 0 0];

internalField   nonuniform List<scalar> 
12225
(
-0.658622
-2.94141
-4.1034
-4.41082
-4.57812
-4.73655
-4.85953
-4.94597
-5.01312
-5.07108
-5.12147
-5.16382
-5.19805
-5.22266
-5.23549
-5.22287
-5.19464
-5.03478
-4.12615
-4.82805
-4.91779
-4.78197
-4.74093
-4.80696
-4.88613
-4.95002
-5.00461
-5.055
-5.10081
-5.14064
-5.17382
-5.19878
-5.21448
-5.21116
-5.2053
-5.15713
-4.33092
-4.22776
-4.38406
-4.50546
-4.61184
-4.73291
-4.83965
-4.92039
-4.98523
-5.04216
-5.0927
-5.13639
-5.17308
-5.20198
-5.2232
-5.23224
-5.24741
-5.26577
-4.19367
-4.11533
-4.39091
-4.56892
-4.66241
-4.75833
-4.85193
-4.92762
-4.98993
-5.04535
-5.0952
-5.13897
-5.17657
-5.20782
-5.23374
-5.25414
-5.28448
-5.33345
-4.20069
-4.21775
-4.45736
-4.60655
-4.68164
-4.76517
-4.85331
-4.92759
-4.98937
-5.04445
-5.0944
-5.13891
-5.17812
-5.21245
-5.24364
-5.27384
-5.31476
-5.37602
-4.26246
-4.30474
-4.48206
-4.6121
-4.68918
-4.77057
-4.85547
-4.9286
-4.99016
-5.04518
-5.09542
-5.14084
-5.18181
-5.21922
-5.25517
-5.29272
-5.34034
-5.40579
-4.32232
-4.36166
-4.49762
-4.61916
-4.70067
-4.7793
-4.85964
-4.93089
-4.99204
-5.04698
-5.0975
-5.14383
-5.18653
-5.22675
-5.26668
-5.30941
-5.36086
-5.42622
-4.37562
-4.41034
-4.52022
-4.63221
-4.71394
-4.78881
-4.86451
-4.9337
-4.99436
-5.0492
-5.1
-5.14723
-5.19154
-5.2342
-5.27724
-5.32334
-5.37647
-5.43951
-4.4256
-4.45717
-4.54756
-4.64776
-4.72706
-4.79858
-4.87018
-4.93719
-4.99716
-5.05183
-5.10284
-5.15085
-5.19656
-5.24116
-5.28641
-5.33442
-5.38766
-5.44747
-4.4732
-4.50167
-4.57647
-4.66482
-4.74049
-4.80901
-4.87691
-4.94153
-5.00055
-5.05492
-5.10603
-5.15463
-5.2014
-5.24739
-5.29401
-5.34277
-5.39515
-5.4515
-4.51825
-4.54339
-4.60585
-4.68341
-4.75466
-4.82017
-4.88461
-4.94674
-5.00459
-5.05849
-5.10955
-5.1585
-5.20596
-5.2528
-5.30006
-5.34875
-5.39966
-5.45266
-4.55707
-4.57928
-4.63281
-4.70163
-4.76832
-4.83093
-4.89242
-4.95226
-5.00886
-5.06218
-5.11303
-5.16206
-5.20981
-5.25696
-5.30427
-5.35238
-5.4017
-5.45187
-4.59312
-4.6128
-4.65907
-4.7202
-4.78228
-4.84193
-4.90067
-4.95828
-5.01352
-5.06614
-5.11662
-5.16552
-5.21329
-5.26041
-5.30741
-5.35465
-5.4023
-5.44991
-4.63111
-4.64832
-4.68789
-4.74156
-4.79851
-4.85474
-4.91052
-4.96568
-5.01929
-5.07093
-5.12081
-5.16932
-5.21678
-5.26351
-5.30978
-5.35578
-5.4015
-5.44652
-4.66984
-4.68467
-4.71835
-4.76513
-4.81675
-4.86922
-4.92189
-4.97445
-5.02616
-5.07651
-5.12549
-5.17327
-5.22005
-5.26595
-5.31111
-5.35554
-5.39918
-5.44166
-4.70741
-4.72011
-4.74888
-4.78966
-4.83617
-4.88476
-4.93428
-4.98419
-5.03381
-5.08261
-5.13036
-5.17707
-5.22276
-5.26746
-5.31116
-5.35381
-5.39531
-5.43539
-4.74096
-4.75194
-4.77691
-4.8129
-4.85501
-4.90003
-4.9466
-4.99399
-5.04151
-5.08858
-5.13487
-5.18021
-5.22452
-5.26773
-5.30976
-5.35053
-5.38994
-5.42783
-4.76615
-4.77598
-4.79843
-4.83121
-4.87021
-4.91257
-4.95684
-5.00219
-5.0479
-5.09337
-5.13817
-5.18206
-5.22488
-5.26651
-5.30685
-5.34581
-5.38331
-5.41927
-4.77603
-4.78545
-4.80706
-4.83882
-4.87682
-4.91821
-4.96152
-5.00589
-5.05061
-5.09506
-5.13878
-5.18151
-5.22306
-5.26332
-5.30219
-5.3396
-5.37553
-5.40992
-4.7623
-4.77245
-4.79564
-4.82959
-4.86979
-4.9129
-4.95738
-5.00256
-5.0478
-5.09248
-5.13616
-5.1786
-5.21967
-5.25929
-5.2974
-5.33396
-5.36896
-5.4024
-4.73697
-4.74826
-4.77428
-4.81237
-4.85661
-4.90275
-4.94948
-4.99647
-5.04309
-5.08866
-5.13282
-5.17546
-5.21654
-5.25599
-5.2938
-5.32996
-5.3645
-5.39747
-4.70266
-4.71515
-4.74544
-4.79031
-4.84033
-4.89008
-4.93955
-4.98908
-5.03772
-5.08459
-5.12951
-5.1726
-5.21389
-5.25338
-5.29107
-5.32702
-5.36129
-5.39395
-4.6625
-4.67522
-4.71087
-4.76588
-4.82354
-4.8772
-4.92953
-4.98179
-5.03252
-5.08074
-5.12656
-5.17024
-5.21189
-5.25151
-5.2892
-5.32506
-5.35918
-5.39166
-4.61899
-4.63068
-4.67335
-4.74041
-4.80566
-4.86397
-4.92066
-4.97622
-5.0287
-5.07783
-5.12431
-5.1685
-5.21043
-5.25014
-5.28781
-5.32358
-5.35757
-5.3899
-4.57236
-4.58025
-4.64158
-4.72182
-4.78752
-4.84787
-4.91056
-4.97102
-5.02576
-5.07587
-5.12304
-5.16772
-5.20987
-5.24961
-5.2872
-5.32286
-5.35673
-5.38898
-4.52456
-4.50105
-4.61214
-4.72151
-4.78266
-4.83744
-4.90166
-4.9649
-5.02116
-5.07222
-5.12021
-5.16548
-5.20796
-5.24785
-5.28548
-5.32112
-5.35496
-5.38714
-4.51534
-4.37116
-4.5305
-4.69714
-4.7822
-4.84389
-4.90947
-4.97149
-5.0262
-5.07637
-5.12388
-5.16871
-5.21073
-5.25017
-5.28738
-5.32262
-5.35614
-5.38811
-4.6608
-4.37712
-4.41215
-4.54306
-4.66319
-4.77087
-4.8657
-4.94233
-5.00552
-5.06177
-5.1136
-5.16132
-5.20529
-5.24611
-5.28428
-5.32019
-5.35434
-5.38735
-4.59763
-5.09744
-5.10786
-4.94905
-4.86866
-4.8935
-4.94839
-4.99865
-5.0447
-5.09026
-5.13497
-5.17753
-5.21756
-5.25526
-5.29081
-5.3243
-5.356
-5.38773
-1.25897
-3.12966
-4.20122
-4.49471
-4.6301
-4.76751
-4.88017
-4.96101
-5.02489
-5.08191
-5.13427
-5.18206
-5.22582
-5.26629
-5.30387
-5.33858
-5.37006
-5.39652
-6.42614
-6.42331
-6.4214
-6.42086
-6.4214
-6.42269
-6.42436
-6.42604
-6.42755
-6.42886
-6.43004
-6.43115
-6.43236
-6.43387
-6.43596
-6.43888
-6.44289
-6.44823
-6.45531
-6.46466
-6.47646
-6.48728
-6.4953
-6.51295
-6.52948
-6.54193
-6.56231
-6.583
-6.60583
-6.63354
-6.66376
-6.69562
-6.72926
-6.76421
-6.80008
-6.83651
-6.87319
-6.90983
-6.94623
-6.98222
-7.01765
-7.05243
-7.0865
-7.11979
-7.15228
-7.18394
-7.21474
-7.24466
-7.27369
-7.30179
-7.32894
-7.3551
-7.38022
-7.40426
-7.42714
-7.4488
-7.46916
-7.48814
-7.50564
-7.52155
-7.53577
-7.54818
-7.55865
-7.56705
-7.57324
-7.57708
-7.57841
-7.57709
-7.57296
-7.56585
-7.5556
-7.54204
-7.525
-7.50432
-7.47982
-7.45134
-7.41869
-7.38172
-7.34025
-7.29411
-7.24314
-7.18718
-7.12607
-7.05966
-6.98779
-6.91032
-6.82712
-6.73806
-6.64302
-6.54189
-6.43458
-6.32107
-6.20135
-6.07534
-5.94282
-5.80349
-5.65729
-5.50434
-5.34465
-5.17826
-5.00516
-4.82537
-4.63892
-4.44585
-4.24622
-4.04008
-3.82753
-3.60864
-3.38353
-3.15228
-2.91504
-2.67191
-2.42304
-2.16856
-1.90862
-1.64337
-1.37295
-1.09754
-0.817266
-0.532302
-0.242801
0.0510806
0.349185
0.651354
0.957431
1.26726
1.58067
1.8975
2.21758
2.54074
2.86678
3.19551
3.52672
3.86017
4.19562
4.53278
4.87138
5.21107
5.55152
5.89232
6.23307
6.57331
6.91257
7.25032
7.58602
7.9191
8.24898
8.57503
8.89665
9.2132
9.52406
9.82862
10.1263
10.4164
10.6983
10.9715
11.2355
11.4899
11.7342
11.9684
12.192
12.4049
12.6071
12.7986
12.9793
13.1494
13.3091
13.4588
13.5988
13.7296
13.8516
13.9655
14.0722
14.1725
14.2678
14.3596
14.4513
14.5473
14.6678
14.8096
-6.42863
-6.42617
-6.42451
-6.42447
-6.42537
-6.42642
-6.42713
-6.42732
-6.42683
-6.42564
-6.42394
-6.42208
-6.42046
-6.41941
-6.4192
-6.41992
-6.42153
-6.42394
-6.42711
-6.43092
-6.43505
-6.43907
-6.45052
-6.46103
-6.47225
-6.49065
-6.50948
-6.53287
-6.56436
-6.59879
-6.63257
-6.66725
-6.70306
-6.73966
-6.77672
-6.81396
-6.85113
-6.88801
-6.92446
-6.96033
-6.99555
-7.03005
-7.06378
-7.09672
-7.12885
-7.16015
-7.19062
-7.22023
-7.24898
-7.27684
-7.30379
-7.32978
-7.35478
-7.37873
-7.40157
-7.42323
-7.44364
-7.46271
-7.48034
-7.49643
-7.51087
-7.52353
-7.53431
-7.54305
-7.54963
-7.5539
-7.55571
-7.55491
-7.55133
-7.54483
-7.53522
-7.52236
-7.50606
-7.48616
-7.46248
-7.43487
-7.40314
-7.36712
-7.32666
-7.28157
-7.23171
-7.1769
-7.117
-7.05184
-6.98128
-6.90519
-6.82341
-6.73583
-6.64231
-6.54275
-6.43703
-6.32503
-6.2066
-6.08159
-5.94983
-5.81154
-5.66679
-5.51544
-5.35743
-5.19274
-5.02136
-4.84331
-4.65861
-4.4673
-4.26943
-4.06506
-3.85427
-3.63715
-3.41379
-3.1843
-2.94881
-2.70742
-2.46028
-2.20753
-1.9493
-1.68575
-1.41703
-1.1433
-0.864697
-0.581392
-0.293537
-0.00128941
0.295194
0.595755
0.900239
1.20849
1.52034
1.83563
2.15419
2.47585
2.80043
3.12772
3.45753
3.78962
4.12376
4.45968
4.79708
5.13566
5.47506
5.81491
6.1548
6.4943
6.83292
7.17016
7.50549
7.83835
8.16816
8.4943
8.81618
9.13317
9.44466
9.75006
10.0488
10.3401
10.6235
10.8981
11.1636
11.4197
11.666
11.9021
12.1278
12.3429
12.5474
12.7411
12.9242
13.0967
13.2588
13.4108
13.5531
13.686
13.8102
13.9263
14.0351
14.1374
14.2348
14.3287
14.4228
14.5202
14.6375
14.7671
-6.4301
-6.4285
-6.42739
-6.42769
-6.42868
-6.42953
-6.42983
-6.42944
-6.42831
-6.42648
-6.42412
-6.42152
-6.41896
-6.41674
-6.41511
-6.41423
-6.4142
-6.41512
-6.41719
-6.42056
-6.42537
-6.43217
-6.4421
-6.45534
-6.47055
-6.4898
-6.51157
-6.53605
-6.56443
-6.59564
-6.6282
-6.66204
-6.69688
-6.73233
-6.76811
-6.80398
-6.83973
-6.87521
-6.9103
-6.94488
-6.97889
-7.01228
-7.04499
-7.07701
-7.1083
-7.13886
-7.16866
-7.19768
-7.2259
-7.25329
-7.27982
-7.30546
-7.33015
-7.35385
-7.37648
-7.39798
-7.41827
-7.43727
-7.45487
-7.47097
-7.48547
-7.49824
-7.50916
-7.5181
-7.52492
-7.52947
-7.53161
-7.53119
-7.52805
-7.52203
-7.51296
-7.50068
-7.48502
-7.46581
-7.44289
-7.41608
-7.38521
-7.35011
-7.31062
-7.26657
-7.21779
-7.16413
-7.10543
-7.04153
-6.97228
-6.89755
-6.81719
-6.73107
-6.63907
-6.54106
-6.43693
-6.32656
-6.20979
-6.08655
-5.95677
-5.82043
-5.67756
-5.52811
-5.37202
-5.20928
-5.03988
-4.86383
-4.68115
-4.49186
-4.29603
-4.09371
-3.88498
-3.66991
-3.44861
-3.22119
-2.98775
-2.74842
-2.50333
-2.25263
-1.99644
-1.73493
-1.46825
-1.19653
-0.91995
-0.638654
-0.352801
-0.0625478
0.23195
0.530537
0.833056
1.13935
1.44926
1.76264
2.0793
2.39908
2.72181
3.04729
3.37533
3.70569
4.03816
4.37246
4.70833
5.04545
5.38348
5.72207
6.06081
6.39928
6.73701
7.07351
7.40826
7.74071
8.07029
8.3964
8.71845
9.03581
9.34787
9.65399
9.95356
10.246
10.5306
10.8069
11.0745
11.3327
11.5813
11.8199
12.0483
12.2661
12.4734
12.67
12.8559
13.0313
13.1962
13.3511
13.4961
13.6318
13.7587
13.8773
13.9885
14.0932
14.1929
14.2892
14.3855
14.4836
14.5993
14.7069
-6.42857
-6.4288
-6.42902
-6.4299
-6.4309
-6.43148
-6.43141
-6.43058
-6.429
-6.42673
-6.42395
-6.42088
-6.41779
-6.41497
-6.4127
-6.41122
-6.41075
-6.41153
-6.41381
-6.41792
-6.42413
-6.43282
-6.44438
-6.45903
-6.47658
-6.49719
-6.52055
-6.54639
-6.57451
-6.60455
-6.63604
-6.66863
-6.70201
-6.73589
-6.77005
-6.80429
-6.83844
-6.87238
-6.90599
-6.93919
-6.97192
-7.00411
-7.03574
-7.06678
-7.09719
-7.12695
-7.15603
-7.18443
-7.2121
-7.23902
-7.26515
-7.29044
-7.31485
-7.33832
-7.36078
-7.38216
-7.40237
-7.42134
-7.43895
-7.45511
-7.46971
-7.48262
-7.49372
-7.50288
-7.50996
-7.51481
-7.51729
-7.51724
-7.51451
-7.50894
-7.50036
-7.48862
-7.47353
-7.45493
-7.43266
-7.40654
-7.37641
-7.34208
-7.30341
-7.26021
-7.21233
-7.1596
-7.10188
-7.03899
-6.9708
-6.89715
-6.81791
-6.73293
-6.6421
-6.54528
-6.44235
-6.3332
-6.21773
-6.09581
-5.96745
-5.8326
-5.69121
-5.54324
-5.38867
-5.22745
-5.05959
-4.88509
-4.70397
-4.51626
-4.32202
-4.12129
-3.91416
-3.7007
-3.48101
-3.2552
-3.02338
-2.78568
-2.54222
-2.29314
-2.03859
-1.77871
-1.51366
-1.24358
-0.968633
-0.688974
-0.404759
-0.116143
0.176719
0.473671
0.77456
1.07923
1.38753
1.6993
2.01437
2.33259
2.65377
2.97774
3.30429
3.63322
3.9643
4.29728
4.63188
4.96781
5.30474
5.64231
5.98014
6.31781
6.65486
6.99081
7.32515
7.65733
7.98679
8.31295
8.63518
8.95288
9.26543
9.57223
9.87261
10.1659
10.4517
10.7294
10.9984
11.2584
11.5088
11.7493
11.9797
12.1997
12.4092
12.608
12.7962
12.9739
13.1411
13.2982
13.4455
13.5833
13.7122
13.8328
13.9459
14.0524
14.1537
14.2512
14.348
14.4446
14.5544
14.6409
-6.42147
-6.42422
-6.42634
-6.42837
-6.42991
-6.43071
-6.43069
-6.42986
-6.42825
-6.42597
-6.42322
-6.42022
-6.41727
-6.41468
-6.41277
-6.41184
-6.41218
-6.41407
-6.41778
-6.42359
-6.43177
-6.44252
-6.456
-6.47223
-6.49114
-6.51261
-6.53646
-6.56249
-6.59042
-6.61987
-6.65046
-6.68191
-6.71396
-6.74642
-6.7791
-6.81184
-6.84451
-6.87701
-6.90925
-6.94116
-6.97268
-7.00377
-7.03439
-7.0645
-7.09407
-7.12309
-7.15153
-7.17935
-7.20652
-7.23302
-7.25879
-7.28378
-7.30796
-7.33124
-7.35357
-7.37486
-7.39503
-7.414
-7.43165
-7.44789
-7.4626
-7.47566
-7.48693
-7.4963
-7.50361
-7.50873
-7.5115
-7.51178
-7.5094
-7.5042
-7.49603
-7.48471
-7.47008
-7.45196
-7.4302
-7.40462
-7.37504
-7.34131
-7.30325
-7.26069
-7.21348
-7.16145
-7.10444
-7.0423
-6.97487
-6.90201
-6.82358
-6.73945
-6.64946
-6.55352
-6.45148
-6.34325
-6.22873
-6.10783
-5.98051
-5.84669
-5.70635
-5.55943
-5.4059
-5.24575
-5.07895
-4.90553
-4.72549
-4.53887
-4.34572
-4.1461
-3.94008
-3.72774
-3.50918
-3.2845
-3.05383
-2.81727
-2.57497
-2.32705
-2.07368
-1.81498
-1.55112
-1.28224
-1.00851
-0.730071
-0.447085
-0.159706
0.131913
0.427618
0.727256
1.03068
1.33773
1.64825
1.9621
2.2791
2.5991
2.9219
3.24732
3.57516
3.9052
4.23718
4.57085
4.90592
5.24207
5.57894
5.91616
6.25332
6.58996
6.92561
7.25976
7.59187
7.92138
8.24769
8.5702
8.88831
9.2014
9.50881
9.8099
10.104
10.3907
10.6694
10.9395
11.2007
11.4524
11.6944
11.9262
12.1477
12.3587
12.5592
12.749
12.9282
13.0971
13.2558
13.4046
13.5438
13.6741
13.796
13.9103
14.0178
14.1197
14.2174
14.3133
14.4068
14.5094
14.578
-6.40927
-6.41429
-6.41898
-6.42279
-6.42543
-6.42697
-6.4275
-6.42712
-6.42597
-6.4242
-6.42204
-6.41975
-6.41765
-6.41607
-6.41535
-6.41582
-6.41778
-6.42149
-6.42721
-6.43513
-6.44542
-6.45817
-6.47343
-6.49113
-6.51115
-6.53333
-6.55747
-6.58335
-6.61072
-6.63932
-6.66886
-6.69912
-6.7299
-6.76102
-6.79234
-6.82372
-6.85506
-6.88628
-6.9173
-6.94805
-6.9785
-7.0086
-7.03831
-7.0676
-7.09645
-7.12482
-7.15269
-7.18002
-7.20677
-7.23291
-7.25839
-7.28316
-7.30716
-7.33032
-7.35257
-7.37382
-7.394
-7.41301
-7.43074
-7.44708
-7.46192
-7.47514
-7.4866
-7.49617
-7.50371
-7.50908
-7.51212
-7.51268
-7.5106
-7.50573
-7.49789
-7.48693
-7.47266
-7.45494
-7.43358
-7.40841
-7.37927
-7.34598
-7.30839
-7.26631
-7.2196
-7.16808
-7.11159
-7.05
-6.98313
-6.91084
-6.833
-6.74946
-6.6601
-6.56478
-6.46339
-6.35583
-6.242
-6.12182
-5.99522
-5.86212
-5.7225
-5.57629
-5.42348
-5.26404
-5.09797
-4.92527
-4.74596
-4.56008
-4.36767
-4.1688
-3.96354
-3.75197
-3.53419
-3.31031
-3.08043
-2.84469
-2.60322
-2.35616
-2.10364
-1.84582
-1.58286
-1.3149
-1.04209
-0.7646
-0.482577
-0.196174
0.0944544
0.389159
0.687788
0.990195
1.29623
1.60574
1.91859
2.2346
2.55362
2.87547
3.19998
3.52694
3.85615
4.18736
4.52031
4.85473
5.1903
5.52668
5.86349
6.20032
6.53674
6.87227
7.20638
7.53856
7.86823
8.19481
8.5177
8.83627
9.14988
9.45789
9.75966
10.0545
10.342
10.6216
10.8927
11.1548
11.4076
11.6507
11.8836
12.1063
12.3185
12.5201
12.7111
12.8916
13.0616
13.2213
13.3712
13.5114
13.6426
13.7653
13.8801
13.988
14.0899
14.187
14.2811
14.3707
14.4663
14.5199
-6.39384
-6.40118
-6.40854
-6.41439
-6.41846
-6.42108
-6.42253
-6.42301
-6.42271
-6.42187
-6.42073
-6.41962
-6.41885
-6.41876
-6.41971
-6.42199
-6.42589
-6.43165
-6.43944
-6.4494
-6.4616
-6.47608
-6.49279
-6.51164
-6.53248
-6.55515
-6.57943
-6.60513
-6.63202
-6.6599
-6.68856
-6.71782
-6.74751
-6.7775
-6.80767
-6.83791
-6.86813
-6.89827
-6.92826
-6.95806
-6.98761
-7.01689
-7.04586
-7.07448
-7.10274
-7.13059
-7.15801
-7.18496
-7.2114
-7.23729
-7.26257
-7.2872
-7.3111
-7.33421
-7.35644
-7.37773
-7.39796
-7.41706
-7.4349
-7.45138
-7.46638
-7.47977
-7.49143
-7.50121
-7.50897
-7.51457
-7.51786
-7.51867
-7.51686
-7.51226
-7.5047
-7.49402
-7.48005
-7.46263
-7.44158
-7.41673
-7.38791
-7.35496
-7.3177
-7.27597
-7.22961
-7.17845
-7.12233
-7.06111
-6.99463
-6.92274
-6.8453
-6.76217
-6.67322
-6.57833
-6.47738
-6.37027
-6.2569
-6.13719
-6.01105
-5.87842
-5.73925
-5.5935
-5.44114
-5.28215
-5.11653
-4.94429
-4.76544
-4.58003
-4.3881
-4.18972
-3.98496
-3.7739
-3.55665
-3.33331
-3.104
-2.86885
-2.62798
-2.38154
-2.12967
-1.87252
-1.61025
-1.34301
-1.07095
-0.794224
-0.512991
-0.227399
0.0623991
0.356256
0.654026
0.955563
1.26072
1.56936
1.88133
2.19649
2.51467
2.83571
3.15943
3.48565
3.81415
4.14472
4.47709
4.811
5.14613
5.48214
5.81868
6.15532
6.49163
6.82714
7.16134
7.4937
7.82364
8.15058
8.4739
8.79297
9.10715
9.41579
9.71824
10.0139
10.3021
10.5825
10.8545
11.1176
11.3713
11.6153
11.8492
12.0728
12.286
12.4885
12.6804
12.8617
13.0325
13.1931
13.3436
13.4845
13.6161
13.7392
13.8542
13.962
14.0634
14.1593
14.2511
14.3365
14.4258
14.4664
-6.37814
-6.38745
-6.39717
-6.40496
-6.41052
-6.41438
-6.41695
-6.41852
-6.41934
-6.41969
-6.41986
-6.42018
-6.42099
-6.42261
-6.42537
-6.42956
-6.43542
-6.44313
-6.45282
-6.46457
-6.47841
-6.49429
-6.51215
-6.53187
-6.5533
-6.57627
-6.6006
-6.62611
-6.65261
-6.67992
-6.70788
-6.73635
-6.76519
-6.79429
-6.82355
-6.85289
-6.88224
-6.91153
-6.94073
-6.96978
-6.99865
-7.0273
-7.05571
-7.08385
-7.11167
-7.13917
-7.16628
-7.19299
-7.21925
-7.245
-7.27019
-7.29477
-7.31867
-7.3418
-7.3641
-7.38548
-7.40583
-7.42506
-7.44305
-7.4597
-7.47489
-7.48847
-7.50033
-7.51031
-7.51829
-7.52411
-7.52761
-7.52865
-7.52706
-7.52268
-7.51535
-7.50489
-7.49115
-7.47395
-7.45312
-7.42849
-7.39989
-7.36716
-7.33013
-7.28863
-7.24249
-7.19156
-7.13567
-7.07468
-7.00843
-6.93678
-6.85958
-6.7767
-6.688
-6.59336
-6.49267
-6.38582
-6.27271
-6.15325
-6.02737
-5.89499
-5.75606
-5.61055
-5.45843
-5.29968
-5.1343
-4.9623
-4.7837
-4.59855
-4.4069
-4.2088
-4.00434
-3.79361
-3.57669
-3.35372
-3.12479
-2.89004
-2.64961
-2.40363
-2.15225
-1.89563
-1.63392
-1.36726
-1.09582
-0.81974
-0.539183
-0.254294
0.0347778
0.327887
0.624891
0.925648
1.23002
1.53787
1.84906
2.16344
2.48086
2.80117
3.12419
3.44975
3.77765
4.10766
4.43955
4.77304
5.10782
5.44357
5.77993
6.11648
6.45279
6.7884
7.12278
7.45541
7.78571
8.11308
8.43691
8.75655
9.07135
9.38066
9.68383
9.98025
10.2693
10.5505
10.8233
11.0872
11.3418
11.5866
11.8214
12.0458
12.2597
12.463
12.6556
12.8375
13.0089
13.1699
13.3209
13.462
13.5939
13.717
13.8318
13.9391
14.0396
14.1339
14.223
14.3042
14.3876
14.4174
-6.36457
-6.37527
-6.38681
-6.39619
-6.4031
-6.40817
-6.4119
-6.41463
-6.41666
-6.41831
-6.41989
-6.42172
-6.42413
-6.42745
-6.43196
-6.43791
-6.44552
-6.45493
-6.46622
-6.47944
-6.49456
-6.51153
-6.53025
-6.5506
-6.57244
-6.5956
-6.61993
-6.64526
-6.67143
-6.6983
-6.72573
-6.7536
-6.7818
-6.81024
-6.83883
-6.86751
-6.89622
-6.92492
-6.95355
-6.98209
-7.01049
-7.03873
-7.06679
-7.09462
-7.1222
-7.1495
-7.17648
-7.20309
-7.2293
-7.25504
-7.28026
-7.3049
-7.32888
-7.35213
-7.37457
-7.3961
-7.41662
-7.43602
-7.45421
-7.47105
-7.48643
-7.50022
-7.51227
-7.52246
-7.53063
-7.53664
-7.54033
-7.54154
-7.54013
-7.53591
-7.52874
-7.51844
-7.50485
-7.48779
-7.46709
-7.44259
-7.41412
-7.38151
-7.34459
-7.3032
-7.25717
-7.20635
-7.15057
-7.08968
-7.02353
-6.95198
-6.87488
-6.7921
-6.7035
-6.60897
-6.50838
-6.40163
-6.28861
-6.16924
-6.04343
-5.91112
-5.77226
-5.62681
-5.47475
-5.31607
-5.15076
-4.97883
-4.80033
-4.61528
-4.42373
-4.22577
-4.02146
-3.8109
-3.59419
-3.37143
-3.14276
-2.9083
-2.66819
-2.42256
-2.17158
-1.91538
-1.65413
-1.38797
-1.11707
-0.841564
-0.561615
-0.277365
0.011038
0.303453
0.599742
0.899769
1.2034
1.51051
1.82095
2.1346
2.45131
2.77094
3.09332
3.41827
3.74562
4.07513
4.40659
4.73972
5.07423
5.40979
5.74605
6.08259
6.41899
6.75477
7.08943
7.42241
7.75314
8.08102
8.40542
8.72569
9.04118
9.35122
9.65516
9.95238
10.2423
10.5243
10.7979
11.0626
11.318
11.5636
11.7991
12.0242
12.2387
12.4425
12.6356
12.818
12.9898
13.1511
13.3022
13.4435
13.5753
13.6981
13.8125
13.919
14.0182
14.1106
14.1968
14.2738
14.3518
14.3723
-6.3546
-6.36613
-6.37883
-6.38934
-6.3973
-6.4034
-6.40819
-6.41202
-6.41522
-6.41812
-6.42104
-6.42429
-6.42818
-6.43301
-6.43904
-6.44649
-6.45553
-6.46629
-6.47881
-6.49312
-6.50918
-6.52692
-6.54623
-6.567
-6.58908
-6.61234
-6.63663
-6.6618
-6.68772
-6.71426
-6.7413
-6.76875
-6.7965
-6.82449
-6.85264
-6.88089
-6.90921
-6.93753
-6.96584
-6.99409
-7.02225
-7.0503
-7.0782
-7.10593
-7.13346
-7.16073
-7.18773
-7.2144
-7.24069
-7.26655
-7.29191
-7.31671
-7.34087
-7.36431
-7.38695
-7.40868
-7.42941
-7.44903
-7.46742
-7.48447
-7.50005
-7.51402
-7.52626
-7.53662
-7.54495
-7.5511
-7.55493
-7.55627
-7.55497
-7.55086
-7.54377
-7.53355
-7.52002
-7.50301
-7.48236
-7.4579
-7.42946
-7.39686
-7.35996
-7.31857
-7.27254
-7.22171
-7.16592
-7.10502
-7.03885
-6.96728
-6.89016
-6.80735
-6.71873
-6.62417
-6.52355
-6.41675
-6.30368
-6.18424
-6.05836
-5.92597
-5.78704
-5.64151
-5.48938
-5.33062
-5.16525
-4.99327
-4.81473
-4.62966
-4.43811
-4.24017
-4.0359
-3.82542
-3.60881
-3.38619
-3.15769
-2.92343
-2.68357
-2.43823
-2.18757
-1.93175
-1.67091
-1.40521
-1.13481
-0.859847
-0.580479
-0.296846
-0.00909237
0.282645
0.578232
0.87754
1.18044
1.48681
1.79653
2.10945
2.42546
2.74441
3.06615
3.39052
3.71733
4.04638
4.37744
4.71026
5.04454
5.37996
5.71617
6.05276
6.3893
6.72532
7.0603
7.39369
7.72492
8.05337
8.3784
8.69936
9.01559
9.3264
9.63115
9.9292
10.2199
10.5028
10.7772
11.0427
11.2988
11.5451
11.7812
12.0069
12.222
12.4263
12.6198
12.8024
12.9744
13.1358
13.2869
13.4281
13.5596
13.682
13.7957
13.9011
13.9989
14.0891
14.1724
14.2452
14.3183
14.3309
-6.34892
-6.36076
-6.37396
-6.38509
-6.39375
-6.40063
-6.40626
-6.41102
-6.41523
-6.41922
-6.4233
-6.42775
-6.43288
-6.43894
-6.44618
-6.45477
-6.46488
-6.47661
-6.48998
-6.50502
-6.52167
-6.53987
-6.55952
-6.58051
-6.60269
-6.62596
-6.65017
-6.67519
-6.70091
-6.72722
-6.75401
-6.78118
-6.80867
-6.83641
-6.86432
-6.89237
-6.92051
-6.94869
-6.9769
-7.00508
-7.03322
-7.06128
-7.08924
-7.11705
-7.1447
-7.17212
-7.19929
-7.22616
-7.25266
-7.27875
-7.30435
-7.32939
-7.3538
-7.37749
-7.40037
-7.42234
-7.4433
-7.46314
-7.48174
-7.49898
-7.51473
-7.52886
-7.54124
-7.55172
-7.56016
-7.5664
-7.5703
-7.57169
-7.57042
-7.56633
-7.55925
-7.54901
-7.53545
-7.51841
-7.49771
-7.47318
-7.44467
-7.41199
-7.37499
-7.33351
-7.28737
-7.23643
-7.18053
-7.11951
-7.05322
-6.98152
-6.90427
-6.82134
-6.73259
-6.63788
-6.5371
-6.43013
-6.31687
-6.19725
-6.07117
-5.9386
-5.79947
-5.65375
-5.50144
-5.34251
-5.17698
-5.00486
-4.82619
-4.64101
-4.44939
-4.25139
-4.0471
-3.83662
-3.62006
-3.39753
-3.16916
-2.93507
-2.69542
-2.45034
-2.19999
-1.94452
-1.68409
-1.41884
-1.14894
-0.874521
-0.595741
-0.312739
-0.0256531
0.265385
0.560248
0.858812
1.16096
1.46657
1.77553
2.08771
2.403
2.72126
3.04235
3.36612
3.6924
4.02098
4.35165
4.68415
5.01822
5.35351
5.68969
6.02636
6.36307
6.69936
7.03471
7.36856
7.70032
8.02938
8.35508
8.67677
8.99377
9.3054
9.61099
9.90989
10.2015
10.4852
10.7604
11.0267
11.2835
11.5304
11.7671
11.9933
12.2089
12.4135
12.6073
12.7901
12.9622
13.1236
13.2746
13.4154
13.5465
13.6682
13.781
13.8852
13.9813
14.0693
14.1495
14.2184
14.2869
14.2929
-6.34752
-6.35921
-6.37237
-6.38366
-6.39266
-6.40001
-6.40623
-6.41167
-6.41665
-6.42147
-6.42644
-6.43181
-6.43786
-6.44482
-6.4529
-6.46228
-6.47308
-6.48539
-6.49926
-6.51468
-6.53161
-6.55
-6.56975
-6.59076
-6.61292
-6.6361
-6.66019
-6.68507
-6.71064
-6.73679
-6.76343
-6.79048
-6.81787
-6.84553
-6.8734
-6.90144
-6.92961
-6.95787
-6.98618
-7.01451
-7.04282
-7.0711
-7.09929
-7.12737
-7.15529
-7.18301
-7.21049
-7.23767
-7.26449
-7.29089
-7.3168
-7.34214
-7.36684
-7.3908
-7.41394
-7.43615
-7.45732
-7.47736
-7.49613
-7.51351
-7.52939
-7.54362
-7.55607
-7.5666
-7.57506
-7.5813
-7.58518
-7.58653
-7.5852
-7.58102
-7.57384
-7.56349
-7.54981
-7.53262
-7.51177
-7.48708
-7.45839
-7.42553
-7.38834
-7.34666
-7.30033
-7.24919
-7.19307
-7.13184
-7.06534
-6.99343
-6.91597
-6.83282
-6.74383
-6.64887
-6.54782
-6.44057
-6.32703
-6.20711
-6.08076
-5.9479
-5.8085
-5.66252
-5.50995
-5.35078
-5.18503
-5.01271
-4.83386
-4.64853
-4.45679
-4.2587
-4.05436
-3.84387
-3.62734
-3.40488
-3.17662
-2.9427
-2.70327
-2.45847
-2.20844
-1.95335
-1.69335
-1.42859
-1.15921
-0.885378
-0.607226
-0.324896
-0.0385219
0.251772
0.545863
0.843636
1.14498
1.44978
1.75793
2.06932
2.38384
2.70137
3.02177
3.34491
3.67061
3.99869
4.32894
4.66112
4.99495
5.33011
5.66626
6.003
6.3399
6.67647
7.01219
7.34651
7.67882
8.00851
8.33491
8.65735
8.97514
9.28759
9.59402
9.89378
10.1862
10.4707
10.7468
11.0137
11.2712
11.5188
11.7561
11.9828
12.1987
12.4036
12.5976
12.7805
12.9525
13.1138
13.2645
13.405
13.5355
13.6564
13.7681
13.871
13.9653
14.0509
14.1282
14.1932
14.2575
14.2579
-6.34995
-6.36117
-6.37388
-6.38494
-6.39395
-6.40146
-6.40797
-6.41379
-6.41923
-6.42458
-6.43011
-6.43607
-6.44269
-6.45019
-6.45876
-6.46854
-6.47967
-6.49222
-6.50624
-6.52173
-6.53866
-6.55698
-6.57663
-6.5975
-6.61949
-6.64251
-6.66643
-6.69117
-6.71662
-6.74268
-6.76927
-6.79632
-6.82374
-6.85149
-6.87949
-6.90771
-6.9361
-6.96462
-6.99323
-7.02189
-7.05056
-7.07921
-7.10779
-7.13627
-7.1646
-7.19273
-7.22061
-7.24818
-7.27537
-7.30213
-7.32838
-7.35404
-7.37902
-7.40324
-7.4266
-7.449
-7.47034
-7.4905
-7.50936
-7.52681
-7.54272
-7.55695
-7.56937
-7.57984
-7.58821
-7.59435
-7.59809
-7.59928
-7.59777
-7.59341
-7.58602
-7.57544
-7.56152
-7.54409
-7.52298
-7.49803
-7.46907
-7.43594
-7.39848
-7.35652
-7.3099
-7.25847
-7.20208
-7.14056
-7.07378
-7.0016
-6.92385
-6.84039
-6.75107
-6.65576
-6.55435
-6.44674
-6.33285
-6.21258
-6.08588
-5.95269
-5.81297
-5.66669
-5.51383
-5.3544
-5.1884
-5.01586
-4.83683
-4.65134
-4.45948
-4.26131
-4.05693
-3.84644
-3.62995
-3.40759
-3.17948
-2.94577
-2.70659
-2.4621
-2.21244
-1.95778
-1.69826
-1.43403
-1.16525
-0.892067
-0.614611
-0.333024
-0.0474336
0.242041
0.535285
0.832188
1.13265
1.43656
1.74383
2.05436
2.36804
2.68476
3.00441
3.32685
3.65192
3.97945
4.30924
4.64104
4.9746
5.3096
5.64569
5.98247
6.31952
6.65636
6.99244
7.32722
7.66008
7.99038
8.31747
8.64065
8.95923
9.2725
9.57977
9.88037
10.1736
10.459
10.7357
11.0035
11.2616
11.5097
11.7475
11.9746
12.1909
12.396
12.5901
12.7731
12.945
13.1061
13.2564
13.3964
13.5262
13.6463
13.7568
13.8582
13.9507
14.0339
14.1082
14.1697
14.2299
14.2256
-6.35553
-6.3661
-6.3781
-6.38866
-6.39738
-6.40476
-6.41123
-6.41711
-6.42268
-6.4282
-6.43394
-6.44011
-6.44693
-6.4546
-6.46328
-6.47312
-6.48423
-6.49668
-6.51054
-6.52581
-6.54248
-6.56052
-6.57986
-6.60043
-6.62215
-6.64492
-6.66864
-6.69323
-6.71859
-6.74462
-6.77124
-6.79839
-6.82598
-6.85395
-6.88224
-6.9108
-6.93957
-6.96851
-6.99757
-7.0267
-7.05586
-7.08501
-7.1141
-7.14307
-7.17188
-7.20047
-7.22879
-7.25677
-7.28434
-7.31144
-7.33799
-7.36391
-7.38911
-7.41351
-7.43701
-7.4595
-7.48089
-7.50106
-7.5199
-7.53728
-7.55309
-7.56718
-7.57944
-7.58971
-7.59787
-7.60376
-7.60723
-7.60814
-7.60634
-7.60165
-7.59394
-7.58303
-7.56877
-7.551
-7.52954
-7.50425
-7.47494
-7.44147
-7.40366
-7.36136
-7.31441
-7.26265
-7.20593
-7.14409
-7.077
-7.00448
-6.92638
-6.84252
-6.7528
-6.65708
-6.55527
-6.44727
-6.33299
-6.21235
-6.08529
-5.95175
-5.8117
-5.66512
-5.51198
-5.35229
-5.18606
-5.01332
-4.83412
-4.64851
-4.45656
-4.25835
-4.05397
-3.84353
-3.62714
-3.40494
-3.17704
-2.94359
-2.70475
-2.46064
-2.21144
-1.95728
-1.69833
-1.43473
-1.16664
-0.894192
-0.617529
-0.336781
-0.0520715
0.236486
0.528783
0.824719
1.1242
1.42713
1.73342
2.04299
2.35574
2.67157
2.99038
3.31203
3.6364
3.9633
4.29255
4.62391
4.95714
5.29191
5.62788
5.96466
6.30182
6.63887
6.97528
7.31047
7.64384
7.97473
8.30247
8.62636
8.9457
9.25975
9.56783
9.86924
10.1633
10.4494
10.7269
10.9953
11.2541
11.5027
11.741
11.9685
12.185
12.3903
12.5845
12.7674
12.9392
13.1
13.2499
13.3893
13.5184
13.6375
13.7468
13.8467
13.9372
14.0181
14.0895
14.1476
14.204
14.1959
-6.3636
-6.37349
-6.38468
-6.39456
-6.40274
-6.40967
-6.41577
-6.42134
-6.42666
-6.43197
-6.43751
-6.4435
-6.45013
-6.45758
-6.466
-6.47553
-6.48627
-6.49831
-6.51171
-6.52649
-6.54265
-6.56019
-6.57905
-6.59918
-6.6205
-6.64295
-6.66643
-6.69085
-6.71613
-6.74218
-6.76891
-6.79624
-6.8241
-6.85241
-6.88111
-6.91013
-6.9394
-6.96887
-6.99849
-7.02818
-7.05791
-7.08762
-7.11724
-7.14673
-7.17602
-7.20505
-7.23376
-7.26209
-7.28996
-7.31731
-7.34405
-7.37011
-7.3954
-7.41984
-7.44332
-7.46576
-7.48704
-7.50706
-7.52571
-7.54287
-7.55841
-7.57222
-7.58416
-7.5941
-7.60189
-7.6074
-7.61048
-7.61099
-7.60877
-7.60368
-7.59554
-7.58422
-7.56954
-7.55135
-7.52949
-7.50379
-7.47409
-7.44023
-7.40205
-7.35938
-7.31208
-7.25997
-7.20292
-7.14075
-7.0733
-7.00039
-6.92185
-6.83756
-6.74741
-6.65128
-6.54906
-6.44067
-6.32601
-6.20501
-6.07761
-5.94376
-5.80343
-5.65657
-5.5032
-5.34331
-5.17691
-5.00405
-4.82475
-4.63909
-4.44713
-4.24896
-4.04467
-3.83437
-3.61818
-3.39622
-3.16863
-2.93556
-2.69715
-2.45354
-2.20489
-1.95136
-1.69309
-1.43024
-1.16295
-0.891357
-0.615605
-0.335816
-0.0521064
0.235415
0.526647
0.821497
1.11988
1.42171
1.72691
2.03541
2.34712
2.66195
2.97982
3.30059
3.62415
3.95033
4.27895
4.60979
4.94259
5.27705
5.61282
5.94953
6.28672
6.62391
6.96057
7.29611
7.62992
7.96133
8.28967
8.61421
8.93424
9.24903
9.55786
9.86002
10.1548
10.4416
10.7198
10.9889
11.2482
11.4974
11.736
11.9638
12.1806
12.3861
12.5803
12.7631
12.9347
13.0952
13.2447
13.3834
13.5117
13.6298
13.7379
13.8362
13.9248
14.0034
14.072
14.1269
14.1798
14.1686
-6.37409
-6.38341
-6.39383
-6.4029
-6.41028
-6.41642
-6.42173
-6.42655
-6.43114
-6.43577
-6.44065
-6.446
-6.45198
-6.45876
-6.46648
-6.47527
-6.48525
-6.4965
-6.50908
-6.52304
-6.53841
-6.55517
-6.57333
-6.59282
-6.6136
-6.63561
-6.65877
-6.68299
-6.70818
-6.73427
-6.76114
-6.78873
-6.81693
-6.84566
-6.87484
-6.90439
-6.93423
-6.96429
-6.99449
-7.02478
-7.05507
-7.08531
-7.11542
-7.14535
-7.17503
-7.2044
-7.23338
-7.26191
-7.28992
-7.31735
-7.3441
-7.37012
-7.39531
-7.41959
-7.44286
-7.46504
-7.48602
-7.50571
-7.52399
-7.54075
-7.55587
-7.56922
-7.5807
-7.59015
-7.59745
-7.60247
-7.60505
-7.60506
-7.60234
-7.59675
-7.58813
-7.57633
-7.56119
-7.54256
-7.52026
-7.49414
-7.46404
-7.4298
-7.39126
-7.34825
-7.30063
-7.24822
-7.19085
-7.12832
-7.06045
-6.98709
-6.90812
-6.82342
-6.73287
-6.63636
-6.53379
-6.42506
-6.31009
-6.1888
-6.06114
-5.92706
-5.78652
-5.6395
-5.48599
-5.32599
-5.15954
-4.98665
-4.80738
-4.62179
-4.42995
-4.23194
-4.02788
-3.81785
-3.602
-3.38044
-3.15331
-2.92075
-2.68292
-2.43996
-2.19203
-1.93927
-1.68184
-1.41989
-1.15356
-0.882994
-0.608312
-0.329639
-0.0470879
0.23924
0.529253
0.822865
1.12
1.42058
1.72455
2.03183
2.34236
2.65606
2.97285
3.29261
3.61523
3.94057
4.26844
4.59864
4.9309
5.26495
5.60042
5.93694
6.27407
6.61131
6.94812
7.28392
7.61808