/*--------------------------------*- C++ -*----------------------------------*\
  =========                 |
  \\      /  F ield         | OpenFOAM: The Open Source CFD Toolbox
   \\    /   O peration     | Website:  https://openfoam.org
    \\  /    A nd           | Version:  9
     \\/     M anipulation  |
\*---------------------------------------------------------------------------*/
FoamFile
{
    format      ascii;
    class       volVectorField;
    location    "0.09";
    object      U;
}
// * * * * * * * * * * * * * * * * * * * * * * * * * * * * * * * * * * * * * //

dimensions      [0 1 -1 0 0 0 0];

internalField   nonuniform List<vector> 
12225
(
(9.86106 -0.874315 0)
(9.67242 -0.700182 0)
(9.45881 -0.387572 0)
(9.22437 -0.188449 0)
(9.003 -0.0843583 0)
(8.80966 -0.0328298 0)
(8.64408 -0.00748977 0)
(8.5027 0.00510441 0)
(8.38205 0.0114401 0)
(8.27859 0.014608 0)
(8.18888 0.0161478 0)
(8.11 0.0168826 0)
(8.03944 0.0172678 0)
(7.97525 0.0176322 0)
(7.914 0.01818 0)
(7.85676 0.0200572 0)
(7.77781 0.0233993 0)
(7.75099 0.0394103 0)
(10.0547 0.263075 0)
(10.1201 0.360757 0)
(10.118 0.27385 0)
(10.0825 0.187136 0)
(10.0403 0.131225 0)
(9.99359 0.0970111 0)
(9.93962 0.0756684 0)
(9.87968 0.0618951 0)
(9.81684 0.0525332 0)
(9.75358 0.045775 0)
(9.69132 0.0406855 0)
(9.63086 0.0368182 0)
(9.57252 0.0339395 0)
(9.51671 0.0320935 0)
(9.46234 0.0311638 0)
(9.41263 0.03344 0)
(9.35823 0.0360386 0)
(9.33679 0.0633674 0)
(9.99918 0.0460945 0)
(10.0244 0.0342351 0)
(10.0538 0.0149943 0)
(10.0706 0.0218809 0)
(10.0776 0.036769 0)
(10.0779 0.0461359 0)
(10.0717 0.0501143 0)
(10.0595 0.0513538 0)
(10.0429 0.0513233 0)
(10.0232 0.050691 0)
(10.0013 0.0498382 0)
(9.97778 0.0490294 0)
(9.95299 0.0484406 0)
(9.92739 0.0483822 0)
(9.90077 0.0489774 0)
(9.87443 0.052034 0)
(9.8471 0.0565496 0)
(9.82717 0.0728784 0)
(9.99679 0.00643796 0)
(10.0085 0.0250506 0)
(10.0342 0.0389946 0)
(10.0527 0.0503873 0)
(10.0641 0.057228 0)
(10.0727 0.0593265 0)
(10.0784 0.0590667 0)
(10.0809 0.0582124 0)
(10.0806 0.0572907 0)
(10.0782 0.0563854 0)
(10.0741 0.0555622 0)
(10.0685 0.0549301 0)
(10.0617 0.0546119 0)
(10.0538 0.0548787 0)
(10.045 0.0559395 0)
(10.0358 0.0590082 0)
(10.0271 0.0637287 0)
(10.0218 0.0737263 0)
(9.99922 0.00675101 0)
(10.0081 0.0336171 0)
(10.027 0.0461194 0)
(10.0417 0.0509577 0)
(10.0522 0.0540701 0)
(10.0618 0.055711 0)
(10.0703 0.0561219 0)
(10.0767 0.0560187 0)
(10.0813 0.055754 0)
(10.0844 0.0554288 0)
(10.0864 0.0551319 0)
(10.0874 0.0549921 0)
(10.0874 0.0551542 0)
(10.0866 0.0558622 0)
(10.0853 0.0573446 0)
(10.084 0.060303 0)
(10.0835 0.0645551 0)
(10.0856 0.0709041 0)
(10.0002 0.0090917 0)
(10.0078 0.0321795 0)
(10.0224 0.0420062 0)
(10.0349 0.045805 0)
(10.0445 0.0493175 0)
(10.0538 0.0519171 0)
(10.0625 0.0531333 0)
(10.0698 0.053582 0)
(10.0757 0.0537457 0)
(10.0807 0.053799 0)
(10.0848 0.0538491 0)
(10.0881 0.0540278 0)
(10.0908 0.0544802 0)
(10.093 0.0554076 0)
(10.0948 0.0569974 0)
(10.0969 0.0596095 0)
(10.0998 0.0630698 0)
(10.1048 0.0672459 0)
(10.0003 0.00882234 0)
(10.0067 0.0275847 0)
(10.0189 0.0371975 0)
(10.0301 0.0419088 0)
(10.0392 0.0458919 0)
(10.0479 0.0487909 0)
(10.0561 0.0502916 0)
(10.0634 0.0509975 0)
(10.0696 0.051402 0)
(10.0751 0.0516884 0)
(10.08 0.0519589 0)
(10.0843 0.0523357 0)
(10.0882 0.0529508 0)
(10.0917 0.0539586 0)
(10.095 0.0554866 0)
(10.0987 0.0576845 0)
(10.1032 0.0603562 0)
(10.1091 0.0631043 0)
(10.0004 0.0078636 0)
(10.0057 0.0237742 0)
(10.016 0.0335046 0)
(10.0263 0.0387852 0)
(10.0349 0.0427524 0)
(10.0429 0.0456317 0)
(10.0507 0.0472892 0)
(10.0578 0.0481965 0)
(10.064 0.0487863 0)
(10.0697 0.0492428 0)
(10.0748 0.0496679 0)
(10.0796 0.050173 0)
(10.0839 0.0508715 0)
(10.0881 0.0518739 0)
(10.0923 0.0532512 0)
(10.0967 0.0550304 0)
(10.1018 0.0570052 0)
(10.1079 0.0587678 0)
(10.0004 0.00698194 0)
(10.0049 0.0208001 0)
(10.0135 0.0301922 0)
(10.0228 0.0356297 0)
(10.031 0.0394965 0)
(10.0386 0.0423534 0)
(10.0459 0.0441595 0)
(10.0528 0.0452463 0)
(10.0589 0.0459861 0)
(10.0646 0.0465704 0)
(10.0698 0.047104 0)
(10.0747 0.0476859 0)
(10.0794 0.0484087 0)
(10.0839 0.0493461 0)
(10.0885 0.0505253 0)
(10.0933 0.0519092 0)
(10.0986 0.0533033 0)
(10.1045 0.0543782 0)
(10.0004 0.00619953 0)
(10.0042 0.0182277 0)
(10.0115 0.0269767 0)
(10.0198 0.0323982 0)
(10.0275 0.0361989 0)
(10.0347 0.039036 0)
(10.0416 0.0409472 0)
(10.0482 0.042172 0)
(10.0543 0.0430276 0)
(10.0599 0.0437058 0)
(10.0651 0.0443116 0)
(10.0701 0.0449306 0)
(10.0749 0.045635 0)
(10.0796 0.0464705 0)
(10.0844 0.0474355 0)
(10.0893 0.0484668 0)
(10.0946 0.0493972 0)
(10.1003 0.0499907 0)
(10.0003 0.00546706 0)
(10.0036 0.015918 0)
(10.0098 0.0239123 0)
(10.0172 0.0291996 0)
(10.0243 0.0329184 0)
(10.0311 0.0356991 0)
(10.0377 0.037655 0)
(10.044 0.038972 0)
(10.05 0.0399117 0)
(10.0555 0.0406549 0)
(10.0607 0.0413028 0)
(10.0658 0.0419282 0)
(10.0706 0.0425857 0)
(10.0754 0.0433012 0)
(10.0803 0.0440579 0)
(10.0852 0.0447889 0)
(10.0904 0.0453616 0)
(10.0958 0.0456205 0)
(10.0003 0.00481854 0)
(10.0031 0.0139846 0)
(10.0085 0.0212575 0)
(10.0151 0.0263197 0)
(10.0218 0.0299194 0)
(10.0282 0.0326138 0)
(10.0345 0.0345643 0)
(10.0406 0.0359263 0)
(10.0463 0.0369139 0)
(10.0518 0.037691 0)
(10.057 0.0383527 0)
(10.062 0.0389612 0)
(10.0669 0.0395582 0)
(10.0717 0.0401579 0)
(10.0766 0.0407385 0)
(10.0815 0.0412407 0)
(10.0865 0.0415634 0)
(10.0916 0.0416103 0)
(10.0003 0.00421581 0)
(10.0027 0.0122285 0)
(10.0074 0.0187615 0)
(10.0133 0.0235075 0)
(10.0195 0.0269446 0)
(10.0256 0.0295277 0)
(10.0316 0.0314372 0)
(10.0374 0.03281 0)
(10.0431 0.0338199 0)
(10.0484 0.0346095 0)
(10.0536 0.0352663 0)
(10.0586 0.0358437 0)
(10.0634 0.0363734 0)
(10.0683 0.0368629 0)
(10.073 0.0372908 0)
(10.0778 0.0376091 0)
(10.0826 0.0377436 0)
(10.0875 0.0376416 0)
(10.0003 0.00358779 0)
(10.0024 0.0104017 0)
(10.0064 0.0160881 0)
(10.0116 0.0203869 0)
(10.0173 0.0235733 0)
(10.023 0.025986 0)
(10.0287 0.0278016 0)
(10.0343 0.0291413 0)
(10.0397 0.0301404 0)
(10.0449 0.030916 0)
(10.05 0.0315443 0)
(10.0549 0.0320703 0)
(10.0598 0.0325178 0)
(10.0645 0.0328906 0)
(10.0692 0.0331715 0)
(10.0739 0.0333265 0)
(10.0785 0.0333068 0)
(10.0831 0.0330933 0)
(10.0002 0.00293265 0)
(10.002 0.00850249 0)
(10.0055 0.0132461 0)
(10.0101 0.0169621 0)
(10.0152 0.0197874 0)
(10.0205 0.0219507 0)
(10.0258 0.0236038 0)
(10.0311 0.0248502 0)
(10.0364 0.0257906 0)
(10.0415 0.0265147 0)
(10.0464 0.0270845 0)
(10.0513 0.0275364 0)
(10.056 0.0278885 0)
(10.0607 0.0281436 0)
(10.0652 0.0282911 0)
(10.0697 0.0283112 0)
(10.0741 0.0281762 0)
(10.0784 0.0278902 0)
(10.0002 0.00225026 0)
(10.0017 0.00653018 0)
(10.0047 0.0102382 0)
(10.0087 0.0132312 0)
(10.0134 0.0155652 0)
(10.0182 0.0173781 0)
(10.0232 0.0187827 0)
(10.0283 0.0198589 0)
(10.0333 0.0206777 0)
(10.0382 0.0213018 0)
(10.043 0.021777 0)
(10.0477 0.0221308 0)
(10.0524 0.0223771 0)
(10.0569 0.0225194 0)
(10.0613 0.0225535 0)
(10.0656 0.0224711 0)
(10.0698 0.0222595 0)
(10.0738 0.0219361 0)
(10.0002 0.00153681 0)
(10.0015 0.00446606 0)
(10.0041 0.00703856 0)
(10.0077 0.00916539 0)
(10.0118 0.0108639 0)
(10.0164 0.0122057 0)
(10.0211 0.013259 0)
(10.0258 0.0140756 0)
(10.0306 0.014699 0)
(10.0354 0.0151672 0)
(10.04 0.0155086 0)
(10.0446 0.0157414 0)
(10.049 0.0158751 0)
(10.0534 0.0159133 0)
(10.0576 0.0158561 0)
(10.0617 0.0157025 0)
(10.0657 0.0154484 0)
(10.0695 0.0151164 0)
(10.0001 0.000773626 0)
(10.0013 0.00225132 0)
(10.0037 0.00356299 0)
(10.0069 0.00467017 0)
(10.0108 0.00557737 0)
(10.0151 0.00631065 0)
(10.0195 0.00689585 0)
(10.0241 0.00735336 0)
(10.0287 0.00770059 0)
(10.0332 0.00795246 0)
(10.0378 0.00811992 0)
(10.0422 0.00820973 0)
(10.0465 0.00822545 0)
(10.0507 0.00816877 0)
(10.0547 0.00804046 0)
(10.0586 0.00784196 0)
(10.0624 0.00757267 0)
(10.066 0.00725434 0)
(10.0001 -8.71825e-05 0)
(10.0013 -0.000249866 0)
(10.0035 -0.000383794 0)
(10.0067 -0.000474253 0)
(10.0105 -0.000517146 0)
(10.0146 -0.000525383 0)
(10.019 -0.00051779 0)
(10.0234 -0.000508302 0)
(10.0279 -0.000506149 0)
(10.0324 -0.000519515 0)
(10.0368 -0.000556277 0)
(10.0411 -0.000623082 0)
(10.0453 -0.000724973 0)
(10.0493 -0.000865546 0)
(10.0532 -0.00104709 0)
(10.057 -0.00127002 0)
(10.0606 -0.00153562 0)
(10.0641 -0.00182724 0)
(10.0002 -0.000917215 0)
(10.0014 -0.00266864 0)
(10.0038 -0.00420728 0)
(10.0072 -0.00544944 0)
(10.0112 -0.00638769 0)
(10.0155 -0.00708294 0)
(10.02 -0.007602 0)
(10.0245 -0.00799031 0)
(10.0291 -0.00828294 0)
(10.0336 -0.00851273 0)
(10.038 -0.00870722 0)
(10.0422 -0.00888621 0)
(10.0464 -0.00906341 0)
(10.0504 -0.00924867 0)
(10.0542 -0.00944893 0)
(10.0579 -0.00966815 0)
(10.0614 -0.00990985 0)
(10.0648 -0.010163 0)
(10.0002 -0.00163739 0)
(10.0015 -0.00479078 0)
(10.0042 -0.00756177 0)
(10.008 -0.00974573 0)
(10.0124 -0.0113573 0)
(10.017 -0.0125527 0)
(10.0217 -0.0134496 0)
(10.0265 -0.0141077 0)
(10.0312 -0.0145816 0)
(10.0358 -0.0149309 0)
(10.0402 -0.0152035 0)
(10.0445 -0.0154305 0)
(10.0487 -0.0156323 0)
(10.0526 -0.0158238 0)
(10.0565 -0.0160155 0)
(10.0601 -0.0162138 0)
(10.0636 -0.0164236 0)
(10.0669 -0.0166375 0)
(10.0002 -0.00232551 0)
(10.0017 -0.00689799 0)
(10.0049 -0.0109286 0)
(10.0093 -0.0139585 0)
(10.0142 -0.0160809 0)
(10.0192 -0.017633 0)
(10.0242 -0.0187953 0)
(10.0292 -0.0196321 0)
(10.0341 -0.020216 0)
(10.0388 -0.0206301 0)
(10.0434 -0.0209365 0)
(10.0477 -0.0211741 0)
(10.0519 -0.0213697 0)
(10.0559 -0.0215432 0)
(10.0597 -0.0217083 0)
(10.0633 -0.0218731 0)
(10.0668 -0.0220434 0)
(10.0701 -0.0222143 0)
(10.0002 -0.00296691 0)
(10.0019 -0.00902433 0)
(10.0056 -0.0143394 0)
(10.0109 -0.0181261 0)
(10.0165 -0.0206867 0)
(10.0219 -0.0225212 0)
(10.0273 -0.0238243 0)
(10.0325 -0.0247017 0)
(10.0377 -0.0252917 0)
(10.0425 -0.025706 0)
(10.0472 -0.0260052 0)
(10.0516 -0.0262251 0)
(10.0558 -0.0263946 0)
(10.0598 -0.026537 0)
(10.0636 -0.0266676 0)
(10.0672 -0.0267951 0)
(10.0707 -0.0269251 0)
(10.074 -0.0270545 0)
(10.0001 -0.0035483 0)
(10.0019 -0.011471 0)
(10.0065 -0.0178191 0)
(10.0128 -0.0218997 0)
(10.0191 -0.0248355 0)
(10.025 -0.0270873 0)
(10.0307 -0.0285799 0)
(10.0363 -0.0294429 0)
(10.0416 -0.0299534 0)
(10.0466 -0.0302898 0)
(10.0513 -0.0305186 0)
(10.0558 -0.0306721 0)
(10.0601 -0.0307803 0)
(10.0641 -0.0308669 0)
(10.0679 -0.030946 0)
(10.0715 -0.0310248 0)
(10.0749 -0.031107 0)
(10.0781 -0.0311886 0)
(9.99997 -0.00367324 0)
(10.0018 -0.0151292 0)
(10.0077 -0.0225652 0)
(10.0149 -0.0258596 0)
(10.0215 -0.0283861 0)
(10.0279 -0.0308106 0)
(10.0343 -0.0325505 0)
(10.0404 -0.0335506 0)
(10.046 -0.0341124 0)
(10.0511 -0.034445 0)
(10.056 -0.034632 0)
(10.0605 -0.0347227 0)
(10.0647 -0.0347595 0)
(10.0687 -0.0347722 0)
(10.0724 -0.0347777 0)
(10.0758 -0.0347843 0)
(10.079 -0.0347959 0)
(10.082 -0.03481 0)
(9.99898 -0.00129694 0)
(10 -0.0179362 0)
(10.0085 -0.0290045 0)
(10.0175 -0.0326009 0)
(10.0245 -0.0339961 0)
(10.0314 -0.035193 0)
(10.0385 -0.0361099 0)
(10.0452 -0.036722 0)
(10.0512 -0.0371419 0)
(10.0565 -0.0374103 0)
(10.0613 -0.0375419 0)
(10.0656 -0.0375729 0)
(10.0694 -0.037545 0)
(10.0728 -0.0374877 0)
(10.0758 -0.0374195 0)
(10.0785 -0.0373519 0)
(10.0809 -0.0372883 0)
(10.083 -0.0372283 0)
(9.99528 0.00387756 0)
(9.99335 -0.0102868 0)
(10.0071 -0.0270614 0)
(10.0213 -0.0388639 0)
(10.0312 -0.0447797 0)
(10.0394 -0.0463632 0)
(10.0469 -0.0458564 0)
(10.0533 -0.044876 0)
(10.0585 -0.0439772 0)
(10.0626 -0.0431813 0)
(10.0658 -0.0424452 0)
(10.0682 -0.0417661 0)
(10.0699 -0.0411505 0)
(10.071 -0.0405983 0)
(10.0715 -0.0401072 0)
(10.0717 -0.0396763 0)
(10.0714 -0.0392962 0)
(10.0709 -0.03894 0)
(9.99144 -0.0172877 0)
(9.9919 0.000383156 0)
(10.01 0.0176952 0)
(10.0296 0.0116319 0)
(10.0443 -0.00504723 0)
(10.0543 -0.0187473 0)
(10.0602 -0.027079 0)
(10.0626 -0.0319415 0)
(10.0621 -0.0348084 0)
(10.0596 -0.0363992 0)
(10.0555 -0.0371617 0)
(10.0503 -0.0374212 0)
(10.044 -0.0373906 0)
(10.0371 -0.0371996 0)
(10.0297 -0.036932 0)
(10.0219 -0.0366491 0)
(10.0139 -0.0364064 0)
(10.0059 -0.0361726 0)
(10.0235 -0.206003 0)
(10.0684 -0.312326 0)
(10.0789 -0.25557 0)
(10.0704 -0.184146 0)
(10.0606 -0.13486 0)
(10.05 -0.102676 0)
(10.0344 -0.0811058 0)
(10.0132 -0.0665503 0)
(9.98817 -0.0565496 0)
(9.96103 -0.0493852 0)
(9.93292 -0.0440197 0)
(9.90454 -0.0398635 0)
(9.87637 -0.0365584 0)
(9.84875 -0.0338717 0)
(9.8219 -0.0316555 0)
(9.79597 -0.0298463 0)
(9.77118 -0.0284138 0)
(9.74755 -0.0276745 0)
(9.94227 0.671597 0)
(9.87998 0.567462 0)
(9.77452 0.33848 0)
(9.63252 0.183339 0)
(9.48788 0.0949274 0)
(9.35687 0.0471084 0)
(9.24142 0.0213287 0)
(9.14005 0.00711262 0)
(9.05126 -0.000941514 0)
(8.97342 -0.00557772 0)
(8.90482 -0.00826218 0)
(8.84391 -0.00982001 0)
(8.78945 -0.0107215 0)
(8.74045 -0.0112353 0)
(8.69608 -0.0115225 0)
(8.65563 -0.0117076 0)
(8.61826 -0.0118844 0)
(8.58358 -0.0124144 0)
(0.00486603 -0.00454051 -3.29024e-20)
(0.0208427 -0.0196237 3.11644e-20)
(0.0419899 -0.0274714 0)
(0.0644477 -0.0295564 0)
(0.0844342 -0.02724 0)
(0.100282 -0.0219766 -2.70874e-20)
(0.11113 -0.0148864 0)
(0.116521 -0.00674522 0)
(0.116105 0.0017678 0)
(0.109961 0.00989663 0)
(0.0987106 0.0169855 2.50479e-20)
(0.0830673 0.0226054 0)
(0.0638815 0.0265411 0)
(0.0420676 0.02877 0)
(0.0184676 0.0294923 0)
(-0.00628185 0.02915 2.35874e-20)
(-0.0318467 0.0283871 0)
(-0.0581511 0.0278395 0)
(-0.0853349 0.0276943 0)
(-0.114079 0.028269 0)
(-0.144269 0.0321776 0)
(-0.176471 0.0363315 0)
(-0.213722 0.0356132 0)
(-0.253559 0.0415872 2.24526e-20)
(-0.295691 0.0508111 -2.31729e-20)
(-0.345468 0.058006 2.36007e-20)
(-0.398271 0.0708814 2.3134e-20)
(-0.45359 0.0804687 0)
(-0.512629 0.0668917 0)
(-0.571302 0.0539981 -2.18291e-20)
(-0.625066 0.0568105 -2.14365e-20)
(-0.681498 0.0568601 0)
(-0.737162 0.0559307 0)
(-0.791787 0.0543528 -2.03947e-20)
(-0.844953 0.0523864 0)
(-0.896463 0.0502193 0)
(-0.946224 0.0479848 1.95616e-20)
(-0.994228 0.0457762 0)
(-1.04052 0.0436567 1.90971e-20)
(-1.0852 0.0416666 3.7772e-20)
(-1.12838 0.0398291 0)
(-1.17019 0.0381544 0)
(-1.21075 0.0366437 0)
(-1.25021 0.0352916 0)
(-1.28869 0.0340886 0)
(-1.32632 0.0330225 3.56297e-20)
(-1.36319 0.0320798 3.53163e-20)
(-1.39941 0.0312466 3.5011e-20)
(-1.43507 0.030509 0)
(-1.47024 0.0298536 -3.44198e-20)
(-1.50498 0.0292679 0)
(-1.53935 0.02874 3.38482e-20)
(-1.57339 0.0282594 3.35679e-20)
(-1.60713 0.0278162 0)
(-1.6406 0.0274017 0)
(-1.67382 0.027008 0)
(-1.7068 0.0266282 3.24684e-20)
(-1.73953 0.0262563 0)
(-1.77202 0.0258868 0)
(-1.80425 0.0255152 0)
(-1.83622 0.0251374 0)
(-1.86791 0.0247502 0)
(-1.89929 0.0243506 0)
(-1.93035 0.0239364 0)
(-1.96106 0.0235056 0)
(-1.99138 0.0230568 -2.99946e-20)
(-2.02129 0.0225887 0)
(-2.05075 0.0221006 0)
(-2.07974 0.0215918 2.91306e-20)
(-2.10821 0.021062 2.88349e-20)
(-2.13613 0.0205111 0)
(-2.16346 0.019939 -2.82292e-20)
(-2.19017 0.0193458 2.79185e-20)
(-2.21621 0.0187319 0)
(-2.24156 0.0180975 -2.72795e-20)
(-2.26617 0.017443 0)
(-2.29 0.0167687 0)
(-2.31302 0.0160748 2.6271e-20)
(-2.33519 0.0153617 0)
(-2.35647 0.0146293 -2.55609e-20)
(-2.37683 0.0138776 0)
(-2.39622 0.013106 2.48171e-20)
(-2.4146 0.0123139 2.44317e-20)
(-2.43194 0.0114998 2.40368e-20)
(-2.44819 0.0106621 4.72643e-20)
(-2.46332 0.00979802 -4.64348e-20)
(-2.47728 0.00890402 0)
(-2.49003 0.00797566 0)
(-2.5015 0.00700778 0)
(-2.51165 0.00599462 -4.29045e-20)
(-2.52041 0.00493199 -4.19669e-20)
(-2.5277 0.00382449 4.10068e-20)
(-2.53344 0.00269715 0)
(-2.53751 0.0015993 -3.90188e-20)
(-2.53983 0.000584857 -3.79847e-20)
(-2.54067 -0.000312977 -3.6922e-20)
(-2.54016 -0.00114021 0)
(-2.53827 -0.00194586 0)
(-2.53502 -0.00274404 0)
(-2.53037 -0.00353892 -3.24057e-20)
(-2.52433 -0.00433161 0)
(-2.51688 -0.005122 0)
(-2.508 -0.00590967 2.87321e-20)
(-2.49768 -0.00669404 0)
(-2.48591 -0.00747456 0)
(-2.47268 -0.00825069 2.48107e-20)
(-2.45799 -0.00902197 0)
(-2.44181 -0.00978799 0)
(-2.42416 -0.0105484 -2.06428e-20)
(-2.40501 -0.011303 -1.91993e-20)
(-2.38437 -0.0120516 0)
(-2.36223 -0.0127941 1.62322e-20)
(-2.33859 -0.0135305 0)
(-2.31345 -0.0142608 -1.31597e-20)
(-2.28679 -0.0149853 0)
(-2.25862 -0.0157041 -9.98373e-21)
(-2.22893 -0.0164176 -8.35746e-21)
(-2.19773 -0.017126 0)
(-2.16499 -0.01783 0)
(-2.13073 -0.0185297 0)
(-2.09493 -0.0192257 0)
(-2.0576 -0.0199185 0)
(-2.01871 -0.0206084 0)
(-1.97827 -0.0212958 0)
(-1.93627 -0.021981 5.54718e-21)
(-1.8927 -0.0226644 -7.39532e-21)
(-1.84754 -0.0233461 0)
(-1.8008 -0.024026 0)
(-1.75246 -0.024704 0)
(-1.70252 -0.0253798 0)
(-1.65096 -0.0260528 -3.3999e-20)
(-1.59778 -0.0267222 0)
(-1.54298 -0.0273869 4.20193e-20)
(-1.48656 -0.0280456 -4.61002e-20)
(-1.42851 -0.0286966 0)
(-1.36883 -0.0293377 0)
(-1.30755 -0.0299668 0)
(-1.24467 -0.0305811 6.28756e-20)
(-1.18022 -0.0311774 6.71747e-20)
(-1.11421 -0.0317523 0)
(-1.0467 -0.032302 7.58826e-20)
(-0.977713 -0.0328223 8.02848e-20)
(-0.907314 -0.0333085 -8.47137e-20)
(-0.835564 -0.0337559 0)
(-0.762541 -0.0341593 0)
(-0.688331 -0.0345133 -9.81083e-20)
(-0.613035 -0.0348123 0)
(-0.536768 -0.0350506 0)
(-0.459657 -0.0352222 0)
(-0.38184 -0.0353204 0)
(-0.303473 -0.0353367 1.20381e-19)
(-0.224721 -0.035256 1.24752e-19)
(-0.14577 -0.0350501 0)
(-0.0668368 -0.0346718 1.33351e-19)
(0.0118812 -0.0340711 0)
(0.090255 -0.0333261 0)
(0.16812 -0.0325283 1.3952e-19)
(0.245307 -0.0316875 0)
(0.321646 -0.0308017 1.41774e-19)
(0.396969 -0.0298726 0)
(0.471106 -0.0289043 0)
(0.543894 -0.0279023 1.44223e-19)
(0.61518 -0.0268732 0)
(0.684824 -0.0258243 1.45294e-19)
(0.752701 -0.0247631 0)
(0.818702 -0.0236974 0)
(0.882738 -0.0226347 0)
(0.944736 -0.021582 -1.46292e-19)
(1.00464 -0.020545 0)
(1.06242 -0.0195276 1.46319e-19)
(1.11803 -0.0185309 0)
(1.17145 -0.0175508 0)
(1.22262 -0.0165752 0)
(1.27142 -0.015578 0)
(1.31766 -0.0144991 0)
(1.36065 -0.0132284 0)
(1.39998 -0.0113861 0)
(1.42944 -0.0082944 -2.90491e-19)
(1.45725 0.000615556 0)
(1.40855 0.0203635 0)
(0.0125968 -0.0453898 9.76108e-20)
(0.0355086 -0.0678928 -9.01061e-20)
(0.0539239 -0.0683357 0)
(0.0679543 -0.0605587 5.16075e-20)
(0.077335 -0.0485531 0)
(0.0821538 -0.0342552 2.3591e-20)
(0.082754 -0.0188598 -4.58268e-20)
(0.079418 -0.00318091 -4.47543e-20)
(0.072455 0.0121036 0)
(0.0619987 0.026348 -4.30652e-20)
(0.0480198 0.0389882 -2.12502e-20)
(0.0305788 0.0496354 0)
(0.00976158 0.0581214 0)
(-0.0143222 0.0645378 0)
(-0.0415898 0.0692622 0)
(-0.0720394 0.0729142 -1.98057e-20)
(-0.105746 0.0762516 0)
(-0.142879 0.0799453 3.84138e-20)
(-0.183803 0.0843254 0)
(-0.228946 0.0895244 0)
(-0.277871 0.0962675 -3.74094e-20)
(-0.330795 0.104716 0)
(-0.387747 0.113699 3.71326e-20)
(-0.446299 0.12121 -1.81479e-20)
(-0.5076 0.129536 1.80201e-20)
(-0.568517 0.136526 -1.77011e-20)
(-0.628234 0.142133 -1.73833e-20)
(-0.686168 0.146024 0)
(-0.74445 0.146658 0)
(-0.801563 0.144528 1.64745e-20)
(-0.856651 0.142064 -1.6089e-20)
(-0.908668 0.13846 0)
(-0.957911 0.133905 0)
(-1.00483 0.128822 1.54213e-20)
(-1.04967 0.123501 0)
(-1.09264 0.118164 0)
(-1.13395 0.112972 -1.48264e-20)
(-1.17376 0.108031 0)
(-1.21225 0.103409 1.44191e-20)
(-1.24958 0.0991438 -2.8686e-20)
(-1.28589 0.0952468 0)
(-1.3213 0.0917142 0)
(-1.35592 0.0885301 -5.5575e-20)
(-1.38986 0.0856707 -5.50751e-20)
(-1.42319 0.0831079 -5.4594e-20)
(-1.456 0.0808113 2.69792e-20)
(-1.48834 0.0787499 -2.6925e-20)
(-1.52026 0.0768932 -7.99444e-20)
(-1.5518 0.0752122 5.2809e-20)
(-1.58299 0.0736797 2.62814e-20)
(-1.61387 0.0722704 0)
(-1.64444 0.0709613 -2.58701e-20)
(-1.67473 0.0697316 2.54935e-20)
(-1.70472 0.0685626 0)
(-1.73443 0.0674377 0)
(-1.76386 0.0663422 0)
(-1.79298 0.0652631 -2.48707e-20)
(-1.82179 0.0641894 0)
(-1.85028 0.0631112 4.87805e-20)
(-1.87843 0.0620203 0)
(-1.90622 0.0609098 4.79841e-20)
(-1.93363 0.0597737 0)
(-1.96063 0.0586073 -4.71772e-20)
(-1.9872 0.0574066 0)
(-2.01331 0.0561688 4.63548e-20)
(-2.03894 0.0548915 -2.28956e-20)
(-2.06405 0.0535731 0)
(-2.08862 0.0522125 -4.5081e-20)
(-2.11262 0.0508091 -2.23882e-20)
(-2.13602 0.0493629 -2.21634e-20)
(-2.15879 0.047874 0)
(-2.1809 0.046343 -2.15818e-20)
(-2.20231 0.0447707 -2.14628e-20)
(-2.22301 0.0431579 0)
(-2.24295 0.041506 2.0971e-20)
(-2.26211 0.039816 -4.13354e-20)
(-2.28046 0.0380892 0)
(-2.29797 0.036327 -2.01905e-20)
(-2.31461 0.0345307 0)
(-2.33035 0.0327015 5.8841e-20)
(-2.34515 0.0308405 0)
(-2.359 0.0289487 -5.71143e-20)
(-2.37186 0.0270269 -1.87575e-20)
(-2.38371 0.0250759 1.84013e-20)
(-2.39452 0.0230957 3.61838e-20)
(-2.40425 0.0210863 -3.5549e-20)
(-2.41289 0.0190468 0)
(-2.42042 0.0169758 0)
(-2.42682 0.0148717 0)
(-2.43207 0.012732 9.85378e-20)
(-2.43617 0.0105537 3.21115e-20)
(-2.43916 0.0083381 -3.13578e-20)
(-2.44106 0.00610296 0)
(-2.44196 0.00389328 -2.98481e-20)
(-2.44195 0.00175769 2.89759e-20)
(-2.44082 -0.000287232 2.81393e-20)
(-2.4384 -0.00227401 0)
(-2.43468 -0.00423404 0)
(-2.42962 -0.00617898 0)
(-2.4232 -0.00811236 2.46029e-20)
(-2.41541 -0.0100343 0)
(-2.40622 -0.0119437 -4.5619e-20)
(-2.39562 -0.0138386 -6.54428e-20)
(-2.38361 -0.0157174 4.17315e-20)
(-2.37016 -0.0175783 0)
(-2.35528 -0.0194196 1.89699e-20)
(-2.33895 -0.02124 0)
(-2.32117 -0.0230381 3.35027e-20)
(-2.30193 -0.0248129 -1.58251e-20)
(-2.28122 -0.0265636 -1.47402e-20)
(-2.25904 -0.0282894 0)
(-2.23539 -0.0299898 -3.6858e-20)
(-2.21026 -0.0316647 2.23952e-20)
(-2.18364 -0.0333139 9.84526e-21)
(-2.15554 -0.0349377 0)
(-2.12596 -0.0365364 7.45251e-21)
(-2.09488 -0.0381106 1.91202e-20)
(-2.0623 -0.0396609 0)
(-2.02822 -0.0411882 7.93976e-21)
(-1.99263 -0.0426934 5.41809e-21)
(-1.95553 -0.0441775 2.86557e-21)
(-1.91691 -0.0456414 0)
(-1.87676 -0.0470861 0)
(-1.83508 -0.0485125 0)
(-1.79185 -0.0499213 3.54824e-21)
(-1.74707 -0.0513134 5.45482e-21)
(-1.70072 -0.0526891 0)
(-1.6528 -0.0540487 1.58334e-20)
(-1.60329 -0.0553919 1.86191e-20)
(-1.55219 -0.0567182 0)
(-1.49949 -0.0580266 2.49098e-20)
(-1.44517 -0.0593156 5.42787e-20)
(-1.38923 -0.0605832 -3.06974e-20)
(-1.33168 -0.0618268 -3.22708e-20)
(-1.27249 -0.063043 0)
(-1.21169 -0.0642281 0)
(-1.14927 -0.0653774 0)
(-1.08525 -0.0664856 -4.55821e-20)
(-1.01965 -0.0675467 4.71382e-20)
(-0.952488 -0.0685541 1.01845e-19)
(-0.883799 -0.0695004 -5.47416e-20)
(-0.813625 -0.0703777 5.62801e-20)
(-0.742017 -0.0711775 6.09067e-20)
(-0.669035 -0.0718907 0)
(-0.594752 -0.0725079 0)
(-0.519251 -0.0730193 -6.85892e-20)
(-0.442627 -0.0734151 0)
(-0.364988 -0.0736853 0)
(-0.286455 -0.0738198 1.57162e-19)
(-0.20716 -0.0738085 0)
(-0.127247 -0.0736397 8.38249e-20)
(-0.0468702 -0.0733042 -8.83264e-20)
(0.0338084 -0.0727955 0)
(0.114632 -0.072111 9.06897e-20)
(0.195455 -0.0712276 0)
(0.276097 -0.0701561 0)
(0.35637 -0.0689425 -9.67322e-20)
(0.4361 -0.0676009 1.94796e-19)
(0.51511 -0.0661332 -9.9318e-20)
(0.593223 -0.0645432 0)
(0.670266 -0.0628384 0)
(0.746073 -0.0610294 1.01378e-19)
(0.820484 -0.059129 0)
(0.893355 -0.0571517 1.03193e-19)
(0.964552 -0.0551132 0)
(1.03396 -0.0530299 0)
(1.10148 -0.0509182 0)
(1.16702 -0.0487934 1.06745e-19)
(1.23053 -0.0466688 0)
(1.29194 -0.0445537 -1.07587e-19)
(1.35122 -0.0424512 0)
(1.40831 -0.0403536 0)
(1.46316 -0.0382345 2.16233e-19)
(1.51564 -0.0360356 -2.16679e-19)
(1.56555 -0.0336263 0)
(1.61237 -0.0307556 0)
(1.6556 -0.0266828 0)
(1.69203 -0.0201891 6.56742e-19)
(1.72477 -0.0053968 0)
(1.73313 0.0257884 -4.43557e-19)
(0.0133967 -0.0977918 -2.69402e-25)
(0.0310081 -0.112571 1.16277e-19)
(0.0410749 -0.0973393 0)
(0.0466305 -0.0766243 -9.67216e-20)
(0.0479202 -0.0542331 0)
(0.0453213 -0.0312695 0)
(0.0393142 -0.00832717 -1.38862e-23)
(0.0302139 0.0141355 4.04742e-20)
(0.0182093 0.0357194 3.94969e-20)
(0.00336159 0.0560614 3.87529e-20)
(-0.0143636 0.0747968 0)
(-0.0350869 0.0916273 0)
(-0.0589986 0.106429 -3.66745e-20)
(-0.0863289 0.11934 -7.21277e-20)
(-0.11732 0.130785 7.09512e-20)
(-0.152174 0.141427 0)
(-0.190994 0.152021 6.87076e-20)
(-0.233729 0.163173 -3.3853e-20)
(-0.2802 0.175107 0)
(-0.330022 0.18763 6.55199e-20)
(-0.382429 0.200389 3.22359e-20)
(-0.436534 0.212692 -6.329e-20)
(-0.491458 0.223431 -3.10656e-20)
(-0.546569 0.232379 0)
(-0.600865 0.239163 5.96281e-20)
(-0.653438 0.243264 5.84275e-20)
(-0.70357 0.244515 0)
(-0.751058 0.242472 5.61565e-20)
(-0.796755 0.237034 0)
(-0.841207 0.229538 5.40191e-20)
(-0.88423 0.221427 2.64961e-20)
(-0.925428 0.212913 0)
(-0.964985 0.204189 0)
(-1.00312 0.195478 0)
(-1.04002 0.186972 0)
(-1.07583 0.178823 0)
(-1.11068 0.171137 0)
(-1.14468 0.16398 4.75622e-20)
(-1.17793 0.157383 -7.04966e-20)
(-1.21051 0.151352 0)
(-1.24248 0.145872 0)
(-1.27391 0.140913 0)
(-1.30486 0.136439 8.94947e-23)
(-1.33537 0.132405 4.46003e-20)
(-1.36548 0.128766 8.82579e-20)
(-1.39522 0.125476 -8.74411e-20)
(-1.42463 0.122491 -4.32736e-20)
(-1.45373 0.119767 4.29962e-20)
(-1.48255 0.117265 -1.08601e-22)
(-1.5111 0.114948 4.215e-20)
(-1.53938 0.112782 0)
(-1.56741 0.110735 4.14394e-20)
(-1.5952 0.108782 -1.12028e-22)
(-1.62273 0.106896 0)
(-1.65001 0.105056 0)
(-1.67703 0.103243 -4.00679e-20)
(-1.70379 0.10144 0)
(-1.73026 0.0996335 0)
(-1.75644 0.0978098 3.89465e-20)
(-1.7823 0.0959588 7.74332e-20)
(-1.80783 0.0940718 -3.84824e-20)
(-1.83301 0.0921413 0)
(-1.85781 0.0901616 3.77928e-20)
(-1.88222 0.088128 0)
(-1.9062 0.086037 3.68953e-20)
(-1.92973 0.0838859 3.67335e-20)
(-1.95279 0.0816733 -7.25582e-20)
(-1.97535 0.079398 -3.58252e-20)
(-1.99738 0.0770598 0)
(-2.01885 0.0746589 7.03407e-20)
(-2.03974 0.0721962 0)
(-2.06001 0.0696726 1.03279e-19)
(-2.07964 0.0670897 6.80105e-20)
(-2.0986 0.0644492 6.72047e-20)
(-2.11685 0.061753 -6.63829e-20)
(-2.13438 0.0590031 9.83792e-20)
(-2.15114 0.0562017 0)
(-2.16712 0.0533509 0)
(-2.18229 0.0504531 -6.29201e-20)
(-2.19661 0.0475104 -9.30555e-20)
(-2.21006 0.044525 0)
(-2.22261 0.041499 3.00948e-20)
(-2.23424 0.0384345 0)
(-2.24492 0.0353338 -8.72359e-20)
(-2.25462 0.0321988 -4.29598e-23)
(-2.26332 0.0290319 3.26661e-23)
(-2.27101 0.0258356 5.4998e-20)
(-2.27766 0.0226132 0)
(-2.28325 0.019369 -5.27806e-20)
(-2.28778 0.0161096 9.97578e-24)
(-2.29124 0.0128451 0)
(-2.29363 0.00959043 0)
(-2.29493 0.00636368 0)
(-2.29513 0.00317742 4.6713e-20)
(-2.29418 2.99345e-05 0)
(-2.29202 -0.00310455 0)
(-2.28861 -0.00623446 0)
(-2.28392 -0.00935503 0)
(-2.27793 -0.012463 0)
(-2.27062 -0.0155552 3.85808e-20)
(-2.26198 -0.0186285 0)
(-2.25198 -0.0216794 3.54806e-20)
(-2.24062 -0.0247047 3.39537e-20)
(-2.22789 -0.0277014 -3.23997e-20)
(-2.21377 -0.0306665 0)
(-2.19826 -0.0335974 -2.92116e-20)
(-2.18135 -0.0364918 0)
(-2.16304 -0.0393478 -2.59188e-20)
(-2.14331 -0.0421636 2.4234e-20)
(-2.12216 -0.044938 6.80713e-20)
(-2.09958 -0.0476698 0)
(-2.07559 -0.0503583 5.76397e-20)
(-2.05016 -0.0530033 1.78184e-20)
(-2.0233 -0.0556047 0)
(-1.995 -0.0581628 2.78463e-20)
(-1.96527 -0.0606783 2.41681e-20)
(-1.93409 -0.0631521 -3.03378e-20)
(-1.90146 -0.0655854 0)
(-1.86739 -0.0679796 -6.08272e-21)
(-1.83185 -0.0703362 -4.14714e-21)
(-1.79485 -0.0726568 -7.32841e-21)
(-1.75639 -0.0749431 0)
(-1.71644 -0.0771965 0)
(-1.67501 -0.0794187 0)
(-1.63208 -0.0816108 4.98043e-21)
(-1.58764 -0.083774 0)
(-1.54169 -0.0859091 0)
(-1.49421 -0.0880164 -1.20303e-20)
(-1.44518 -0.0900956 -1.41333e-20)
(-1.39461 -0.0921457 0)
(-1.34247 -0.0941652 0)
(-1.28876 -0.0961516 -4.108e-20)
(-1.23347 -0.0981018 0)
(-1.1766 -0.100012 4.97735e-20)
(-1.11813 -0.101876 5.31032e-20)
(-1.05807 -0.103688 0)
(-0.996431 -0.105441 0)
(-0.933211 -0.107127 -6.63529e-20)
(-0.868429 -0.108736 -1.12837e-21)
(-0.802108 -0.110257 -1.14335e-21)
(-0.734275 -0.11168 0)
(-0.664969 -0.112992 -1.69687e-19)
(-0.594235 -0.11418 0)
(-0.522131 -0.11523 0)
(-0.448722 -0.116128 0)
(-0.374087 -0.116859 1.03419e-19)
(-0.298314 -0.117408 0)
(-0.221505 -0.11776 -2.22228e-19)
(-0.143771 -0.117902 -1.16726e-19)
(-0.0652356 -0.117819 0)
(0.0139681 -0.117501 -1.24878e-19)
(0.0937011 -0.116939 0)
(0.173817 -0.116132 0)
(0.254175 -0.115083 -3.98425e-19)
(0.334641 -0.113802 2.70322e-19)
(0.415039 -0.11229 0)
(0.495176 -0.110555 2.80655e-19)
(0.574867 -0.108603 -1.43753e-19)
(0.65393 -0.106439 0)
(0.732188 -0.104069 0)
(0.809469 -0.101508 0)
(0.885605 -0.0987703 -4.54259e-19)
(0.960441 -0.0958764 0)
(1.03383 -0.0928484 -1.554e-19)
(1.10564 -0.0897105 0)
(1.17574 -0.0864881 0)
(1.24405 -0.0832067 0)
(1.31046 -0.0798903 0)
(1.37491 -0.07656 0)
(1.43735 -0.0732308 0)
(1.49771 -0.0699082 -3.26317e-19)
(1.55595 -0.0665809 0)
(1.61201 -0.06321 -1.65277e-19)
(1.66576 -0.0597076 4.96848e-19)
(1.71705 -0.0558884 0)
(1.76545 -0.0513898 0)
(1.81066 -0.0453607 -3.34976e-19)
(1.85071 -0.0362631 -3.37598e-19)
(1.88871 -0.0196392 3.39593e-19)
(1.91324 0.013227 3.43991e-19)
(0.00851748 -0.13469 -1.889e-19)
(0.0167237 -0.131468 -1.69134e-19)
(0.01744 -0.10441 -1.00335e-19)
(0.0152484 -0.075056 -4.57602e-20)
(0.010068 -0.0455423 0)
(0.00206491 -0.016383 8.10248e-20)
(-0.00854829 0.0121623 -3.87132e-20)
(-0.0216397 0.0398829 0)
(-0.0372017 0.066592 -3.59944e-20)
(-0.0552944 0.0920819 0)
(-0.0760367 0.116146 6.86858e-20)
(-0.0996054 0.138629 0)
(-0.126215 0.159487 3.3156e-20)
(-0.156079 0.178845 6.52273e-20)
(-0.189351 0.197001 -6.41416e-20)
(-0.226061 0.214357 0)
(-0.266047 0.231286 -6.18955e-20)
(-0.308927 0.247957 0)
(-0.354124 0.26421 0)
(-0.400931 0.279588 -5.83247e-20)
(-0.448545 0.293484 0)
(-0.496163 0.305258 -4.48952e-23)
(-0.543111 0.314297 0)
(-0.588861 0.320304 0)
(-0.633006 0.32318 8.29707e-23)
(-0.675239 0.322899 -5.10209e-20)
(-0.71547 0.319638 -5.00009e-20)
(-0.753842 0.313574 -4.88354e-20)
(-0.790744 0.305098 0)
(-0.826571 0.295059 -9.37823e-20)
(-0.86146 0.28429 0)
(-0.895443 0.273239 -4.51445e-20)
(-0.928601 0.262209 0)
(-0.961021 0.251433 0)
(-0.992783 0.24108 4.28803e-20)
(-1.02395 0.231267 0)
(-1.05459 0.222071 -4.16169e-20)
(-1.08473 0.213533 5.37365e-24)
(-1.11443 0.205664 8.10313e-20)
(-1.14371 0.198454 -8.00265e-20)
(-1.17261 0.191876 0)
(-1.20114 0.185891 0)
(-1.22934 0.180455 -3.86426e-20)
(-1.25724 0.175517 0)
(-1.28484 0.171026 -3.79202e-20)
(-1.31216 0.166929 3.7553e-20)
(-1.33924 0.163177 3.71983e-20)
(-1.36607 0.15972 0)
(-1.39266 0.156513 -3.65202e-20)
(-1.41903 0.153514 -3.61937e-20)
(-1.44519 0.150683 7.1644e-20)
(-1.47113 0.147986 -3.55595e-20)
(-1.49685 0.145389 -3.52496e-20)
(-1.52235 0.142864 0)
(-1.54763 0.140385 0)
(-1.57267 0.13793 3.43379e-20)
(-1.59747 0.135477 0)
(-1.62201 0.133011 0)
(-1.64628 0.130516 -6.68757e-20)
(-1.67025 0.12798 -6.6275e-20)
(-1.69392 0.125391 0)