/*--------------------------------*- C++ -*----------------------------------*\
  =========                 |
  \\      /  F ield         | OpenFOAM: The Open Source CFD Toolbox
   \\    /   O peration     | Website:  https://openfoam.org
    \\  /    A nd           | Version:  9
     \\/     M anipulation  |
\*---------------------------------------------------------------------------*/
FoamFile
{
    format      ascii;
    class       surfaceScalarField;
    location    "150";
    object      phi;
}
// * * * * * * * * * * * * * * * * * * * * * * * * * * * * * * * * * * * * * //

dimensions      [0 3 -1 0 0 0 0];

internalField   nonuniform List<scalar> 
21254
(
-0.164981
0.168116
-0.00313476
0.172062
-0.00394584
0.172975
-0.000912041
0.171973
0.00100289
0.169395
0.00257909
0.163817
0.00557956
0.15576
0.00805651
0.14577
0.00999113
0.133492
0.0122792
0.119584
0.0139088
0.104162
0.0154241
0.0871534
0.0170101
0.0686903
0.0184635
0.0488125
0.019877
0.0280165
0.0207934
0.00799744
0.0200151
-0.00856371
0.016559
-0.0201664
0.0116046
-0.0270381
0.00686952
-0.0315038
0.00445088
-0.0344141
0.00290076
-0.0366845
0.00226659
-0.0394797
0.00280936
-0.0437654
0.00429459
-0.0493841
0.00562024
-0.0554107
0.00602058
-0.0610053
0.00560298
-0.0655774
0.00460031
-0.0683089
0.00274177
-0.0681493
-0.000222651
-0.064104
-0.00390699
-0.0561819
-0.0079828
-0.0452146
-0.0108848
-0.0283611
-0.0162211
-0.0100082
-0.0189124
0.0149816
-0.0249014
0.0217189
-0.00651932
0.0319456
-0.0102906
0.070935
-0.0397993
-0.159153
-0.00582796
-0.153434
-0.00571866
-0.144547
-0.00888659
-0.133587
-0.0109606
-0.121129
-0.0124578
-0.107027
-0.0141029
-0.0916248
-0.0154029
-0.0759052
-0.0157197
-0.0607482
-0.0151571
-0.0464276
-0.0143205
-0.0333448
-0.013083
-0.0216718
-0.011673
-0.01131
-0.0103617
-0.00199763
-0.00931154
0.00645882
-0.00845547
0.0141324
-0.00767255
0.0210836
-0.00695045
0.0274458
-0.00636116
0.0333543
-0.00590853
0.0389128
-0.00555831
0.0442219
-0.00531122
0.049335
-0.00511475
0.054269
-0.00494054
0.0588674
-0.00460547
0.0630554
-0.0041942
0.0669073
-0.00385698
0.0704225
-0.00351973
0.073641
-0.00322469
0.0765854
-0.00294744
0.0792962
-0.00271544
0.0818056
-0.00251593
0.0841742
-0.00237772
0.0864765
-0.0023124
0.0888224
-0.00236105
0.0913779
-0.00257029
0.0943445
-0.00299865
0.0983762
-0.00406161
0.105107
-0.00644782
0.121711
-0.0171188
-0.157329
0.16382
-0.00962509
0.170065
-0.010191
0.175989
-0.00683433
0.181154
-0.00416138
0.186077
-0.00234329
0.190127
0.00153058
0.192916
0.00526695
0.194078
0.0088292
0.193031
0.0133279
0.189418
0.0175226
0.182802
0.0220413
0.172739
0.0270736
0.158799
0.0324034
0.140419
0.0382574
0.117048
0.0441632
0.0883374
0.0487256
0.0553212
0.0495764
0.0220593
0.0448686
-0.00482878
0.0337592
-0.0214567
0.0210761
-0.0309018
0.0123469
-0.0371649
0.00853429
-0.0424011
0.008064
-0.0477271
0.00964151
-0.053018
0.0109284
-0.0577184
0.0107323
-0.0615486
0.00944305
-0.0643366
0.00740692
-0.0657534
0.00416635
-0.0652883
-0.000710964
-0.0614381
-0.00768136
-0.0529874
-0.0164495
-0.0398917
-0.0239461
-0.0221131
-0.0337519
-0.0025697
-0.0385853
0.0164584
-0.0438274
0.0248523
-0.014748
0.0343663
-0.0198787
0.0708437
-0.076723
-0.15025
-0.0129071
-0.142591
-0.0133764
-0.133288
-0.0181906
-0.122861
-0.0213867
-0.111096
-0.0242244
-0.0980825
-0.0271172
-0.0843501
-0.0291355
-0.0704021
-0.0296677
-0.0567886
-0.0287704
-0.0437264
-0.0273825
-0.0315145
-0.025295
-0.0202857
-0.0229016
-0.00999707
-0.0206504
-0.000612388
-0.0186961
0.0079079
-0.0169759
0.0156748
-0.015439
0.0228309
-0.0141061
0.0294803
-0.0130096
0.0357316
-0.0121595
0.0416621
-0.0114882
0.0473508
-0.0110011
0.0528551
-0.0106205
0.058185
-0.0102756
0.0632297
-0.00965617
0.0678941
-0.00886453
0.0722286
-0.00819707
0.0762368
-0.0075336
0.0799406
-0.00693662
0.0833668
-0.00638259
0.0865383
-0.00589489
0.0894908
-0.00547981
0.092287
-0.00518815
0.0949866
-0.00502978
0.0977065
-0.00510399
0.100611
-0.00550037
0.103996
-0.00643669
0.108363
-0.00849851
0.116201
-0.014089
0.130672
-0.0322205
-0.153212
0.159121
-0.0155358
0.164555
-0.0156236
0.169864
-0.0121431
0.174033
-0.00832911
0.177129
-0.00543916
0.179509
-0.000848959
0.181176
0.00359925
0.182486
0.00751942
0.183329
0.0124864
0.183836
0.0170171
0.183672
0.0222058
0.182448
0.0282988
0.179344
0.0355074
0.17348
0.0441203
0.163143
0.0544988
0.146528
0.0653392
0.121311
0.074792
0.087329
0.0788502
0.0478408
0.0732456
0.0118061
0.0571045
-0.0128037
0.0369496
-0.0264949
0.0222243
-0.0348609
0.0164329
-0.0411157
0.0158973
-0.0464781
0.016284
-0.0511792
0.0154257
-0.0552693
0.0135334
-0.0586504
0.0108048
-0.0608822
0.00640263
-0.0610509
-0.000591005
-0.057633
-0.0110309
-0.0493404
-0.0247748
-0.0355749
-0.0376573
-0.0175404
-0.0514853
0.00165055
-0.058037
0.0173295
-0.0595205
0.0257215
-0.023092
0.0348687
-0.0290392
0.069362
-0.111466
-0.14686
-0.0192582
-0.139193
-0.0210438
-0.129462
-0.0279213
-0.118711
-0.0321393
-0.106853
-0.0360829
-0.0938294
-0.0401413
-0.0801805
-0.0427842
-0.0667821
-0.0430658
-0.0537211
-0.0418309
-0.0411617
-0.0399417
-0.0294375
-0.0370189
-0.0185379
-0.033801
-0.00843293
-0.0307549
0.000861322
-0.0279898
0.00941276
-0.0255265
0.0173126
-0.0233383
0.0246675
-0.0214603
0.0315557
-0.0198973
0.0380617
-0.0186652
0.0442568
-0.0176837
0.0502192
-0.0169645
0.0559899
-0.0163931
0.0615769
-0.0158668
0.0669031
-0.0149876
0.0718761
-0.0138423
0.0765117
-0.0128368
0.0808344
-0.0118602
0.0848621
-0.0109688
0.0886338
-0.010154
0.0921622
-0.00942558
0.0954986
-0.00881986
0.0986879
-0.00838225
0.101815
-0.00816142
0.104979
-0.00827707
0.108342
-0.00887104
0.112211
-0.0103205
0.116989
-0.0132826
0.125334
-0.022261
0.138878
-0.0460345
-0.149964
0.156803
-0.0223747
0.163172
-0.0219924
0.169612
-0.018582
0.174991
-0.0137084
0.179525
-0.00997313
0.183121
-0.00444501
0.18569
0.00103054
0.186988
0.00622164
0.187221
0.0122548
0.186547
0.0176922
0.1852
0.023554
0.183445
0.0300537
0.18149
0.0374621
0.179266
0.0463433
0.176296
0.0574671
0.170717
0.070918
0.159522
0.0859865
0.138794
0.0995778
0.105908
0.106133
0.0636922
0.0993206
0.0224501
0.0781944
-0.00676197
0.0514437
-0.0230092
0.032695
-0.0324256
0.0253326
-0.0391147
0.0229895
-0.0446691
0.0209932
-0.0495158
0.0183903
-0.0536209
0.0149243
-0.0564969
0.00928654
-0.0571568
6.44274e-05
-0.0541695
-0.0139711
-0.0461902
-0.0327507
-0.0322661
-0.051564
-0.0141432
-0.069514
0.0046016
-0.0768134
0.0177094
-0.0725698
0.0257631
-0.0310704
0.0347737
-0.0380953
0.0672093
-0.144135
-0.143011
-0.0262111
-0.135125
-0.028931
-0.125165
-0.0378819
-0.114359
-0.0429464
-0.10249
-0.0479529
-0.0894741
-0.0531572
-0.0760356
-0.0562224
-0.0629423
-0.0561584
-0.0502876
-0.054485
-0.0381759
-0.0520528
-0.0268721
-0.0483223
-0.0163383
-0.0443344
-0.00647199
-0.0406206
0.00269365
-0.0371552
0.0112106
-0.034043
0.0191908
-0.0313184
0.0266789
-0.0289478
0.0337466
-0.0269648
0.0404654
-0.0253835
0.0469022
-0.0241207
0.053106
-0.023169
0.059124
-0.022413
0.0649665
-0.0217131
0.0705554
-0.0205815
0.075799
-0.0190911
0.0807058
-0.017749
0.0852912
-0.0164509
0.0895785
-0.0152633
0.0935941
-0.0141769
0.0973734
-0.0132129
0.100958
-0.0124157
0.104405
-0.0118432
0.107791
-0.0115646
0.111237
-0.0117459
0.114898
-0.0125585
0.119103
-0.0145794
0.124227
-0.0184779
0.132864
-0.0308049
0.145945
-0.0596203
-0.149051
0.156155
-0.0294775
0.162822
-0.028659
0.16982
-0.0255795
0.175485
-0.0193739
0.18049
-0.0149775
0.184565
-0.00852084
0.1876
-0.00200445
0.189516
0.00430667
0.190525
0.0112471
0.190399
0.01782
0.189323
0.024631
0.187411
0.0319654
0.185062
0.0398105
0.182444
0.0489605
0.180017
0.0598924
0.177721
0.0732121
0.174286
0.0894197
0.166364
0.107499
0.148283
0.124212
0.115868
0.131732
0.0716018
0.122457
0.0276292
0.0954146
-0.00336013
0.0636841
-0.0203902
0.0423608
-0.030323
0.0329151
-0.0375493
0.0282095
-0.0435154
0.0243539
-0.0484942
0.0199135
-0.0520943
0.0128852
-0.0533389
0.00126429
-0.050853
-0.0164191
-0.0433133
-0.0403188
-0.0295894
-0.0652513
-0.0115289
-0.0873465
0.00678847
-0.0953331
0.0177716
-0.0835857
0.0253561
-0.0386359
0.0344359
-0.0471734
0.0646063
-0.174433
-0.141607
-0.0336561
-0.133336
-0.0372024
-0.122727
-0.048492
-0.111496
-0.0541789
-0.099253
-0.0601962
-0.0859531
-0.0664574
-0.0723203
-0.0698546
-0.0592048
-0.0692731
-0.0467185
-0.0669706
-0.0348787
-0.0638918
-0.0238648
-0.0593358
-0.0136515
-0.054547
-0.0040468
-0.0502249
0.00494951
-0.0461506
0.013386
-0.042479
0.021356
-0.0392877
0.0289179
-0.0365093
0.0361213
-0.0341676
0.0430178
-0.0322799
0.04966
-0.0307629
0.0560963
-0.0296064
0.0623534
-0.0286714
0.0684439
-0.0278067
0.0742944
-0.0264356
0.0798113
-0.0246122
0.0849876
-0.0229288
0.0898354
-0.0213025
0.0943792
-0.0198107
0.098645
-0.0184412
0.102659
-0.0172279
0.106468
-0.0162258
0.11014
-0.0155173
0.11375
-0.0151761
0.117415
-0.0154129
0.121313
-0.0164606
0.125785
-0.0190524
0.131195
-0.0238804
0.140006
-0.0395187
0.152886
-0.0725912
-0.148585
0.156153
-0.0370457
0.163529
-0.0360342
0.171144
-0.0331942
0.177463
-0.0256925
0.182999
-0.0205149
0.18784
-0.0133615
0.191477
-0.00564094
0.194172
0.00161289
0.195765
0.00965568
0.196326
0.0172597
0.195889
0.0250695
0.194406
0.0334474
0.192117
0.0420997
0.18919
0.0518855
0.185946
0.0631351
0.183076
0.0760802
0.18069
0.0918055
0.17793
0.110258
0.171188
0.130954
0.153764
0.149156
0.120146
0.156078
0.073829
0.141736
0.028933
0.10859
-0.00161951
0.0729283
-0.0184941
0.0498068
-0.0288667
0.0385966
-0.0365813
0.0320811
-0.0427491
0.0260944
-0.0473029
0.0174483
-0.0493236
0.00328812
-0.0474948
-0.0182055
-0.040534
-0.0472694
-0.0272797
-0.0784952
-0.00946922
-0.105111
0.0084416
-0.113245
0.0176873
-0.092784
0.02477
-0.0456768
0.0339484
-0.0563843
0.0616898
-0.202359
-0.140705
-0.0415362
-0.132071
-0.0458372
-0.120906
-0.0596586
-0.109134
-0.0659512
-0.0964214
-0.0729101
-0.0827067
-0.0801715
-0.0687624
-0.0837981
-0.0555174
-0.0825172
-0.0430469
-0.0794402
-0.0313179
-0.07562
-0.0205106
-0.0701424
-0.0105343
-0.0645227
-0.00115823
-0.0596003
0.00764107
-0.0549492
0.015952
-0.0507895
0.0238733
-0.0472085
0.0314593
-0.044095
0.0387441
-0.041452
0.0457788
-0.0393146
0.0525974
-0.0375818
0.0592354
-0.0362452
0.0657185
-0.0351565
0.0720487
-0.03414
0.0781679
-0.0325592
0.0839604
-0.0304096
0.0894024
-0.0283758
0.0945219
-0.0264269
0.0993252
-0.0246201
0.103844
-0.0229659
0.108105
-0.0214964
0.112154
-0.0202848
0.116051
-0.0194276
0.119876
-0.0190188
0.123774
-0.0193325
0.127888
-0.0206021
0.132613
-0.0238301
0.138285
-0.029623
0.147256
-0.0484726
0.159966
-0.0856704
-0.149161
0.157318
-0.0452029
0.165071
-0.0437855
0.173324
-0.0414469
0.180203
-0.0325722
0.186304
-0.026615
0.191595
-0.0186534
0.195804
-0.00984959
0.198907
-0.00148799
0.201083
0.00748091
0.202225
0.016118
0.202367
0.0249284
0.201626
0.0341883
0.199979
0.0437465
0.197486
0.054377
0.194371
0.0662488
0.19086
0.0795895
0.187588
0.0950752
0.184999
0.112847
0.182318
0.133634
0.175462
0.156009
0.156747
0.174791
0.120508
0.177974
0.0723138
0.156784
0.0281918
0.117048
-0.000786871
0.0787794
-0.0172765
0.0550778
-0.0279394
0.0427396
-0.0358593
0.0340222
-0.0417177
0.0232976
-0.0448122
0.00633527
-0.0438751
-0.0191175
-0.0376781
-0.0535003
-0.0251263
-0.0910128
-0.00776246
-0.122278
0.00973106
-0.130928
0.0176165
-0.100707
0.0241652
-0.0522143
0.033374
-0.0655859
0.0584736
-0.227548
-0.140746
-0.0499512
-0.131598
-0.0549869
-0.119819
-0.0714392
-0.107458
-0.0783124
-0.0942083
-0.0861602
-0.0799053
-0.0944746
-0.0655136
-0.0981888
-0.0519573
-0.0960724
-0.039331
-0.0920654
-0.0275343
-0.0874159
-0.0168344
-0.0808414
-0.00701198
-0.0743445
0.00217228
-0.0687837
0.0107779
-0.0635543
0.0189366
-0.0589475
0.0267817
-0.0550533
0.0343365
-0.0516493
0.0416613
-0.0487766
0.0487916
-0.0464445
0.055758
-0.0445487
0.0625774
-0.043065
0.0692693
-0.0418499
0.0758355
-0.040708
0.0822067
-0.0389337
0.088272
-0.0364778
0.0939962
-0.0341038
0.099384
-0.0318178
0.104457
-0.0296973
0.109234
-0.0277397
0.113751
-0.0260122
0.11804
-0.0245747
0.122176
-0.0235638
0.126243
-0.0230832
0.13036
-0.0234499
0.134719
-0.0249584
0.139688
-0.0287934
0.145625
-0.0355391
0.154729
-0.0575194
0.167271
-0.0981967
-0.150313
0.159028
-0.0539145
0.167404
-0.0521608
0.176336
-0.0503783
0.183688
-0.0399235
0.190329
-0.033257
0.196149
-0.0244732
0.200806
-0.0145056
0.204525
-0.00520628
0.20709
0.0049176
0.208741
0.0144686
0.209474
0.0241958
0.209233
0.0344287
0.208121
0.0448575
0.206218
0.0562787
0.203574
0.0688913
0.200302
0.08286
0.196696
0.0986806
0.193244
0.116298
0.190417
0.13646
0.187384
0.159042
0.179427
0.182749
0.157863
0.199542
0.118109
0.196544
0.0688641
0.166304
0.0266569
0.121
-0.000471816
0.0822212
-0.0164635
0.0587451
-0.0271449
0.0447174
-0.0348396
0.0310013
-0.0394081
0.0109084
-0.0396974
-0.0187861
-0.0345237
-0.0586612
-0.0229071
-0.102623
-0.00621525
-0.138947
0.010807
-0.147939
0.0176921
-0.107552
0.0236404
-0.0581427
0.0326727
-0.0746434
0.0549614
-0.250017
-0.141397
-0.0588678
-0.131763
-0.0646224
-0.119226
-0.0839777
-0.106176
-0.0913634
-0.0922765
-0.100061
-0.0773567
-0.109394
-0.0623877
-0.113157
-0.0483905
-0.110069
-0.0355087
-0.104946
-0.0235986
-0.099325
-0.0128662
-0.0915729
-0.00313516
-0.0840745
0.00590279
-0.0778208
0.0143389
-0.0719897
0.0223654
-0.0669735
0.0300962
-0.0627835
0.0375983
-0.0591512
0.0449254
-0.0561034
0.052115
-0.0536342
0.0591896
-0.0516236
0.0661616
-0.050038
0.0730435
-0.0487336
0.0798347
-0.0475021
0.0864567
-0.0455595
0.0927909
-0.0428164
0.0987894
-0.040107
0.104456
-0.0374885
0.109804
-0.0350512
0.11485
-0.0327891
0.119623
-0.0307914
0.124172
-0.0291336
0.128554
-0.0279586
0.132863
-0.0274092
0.137227
-0.0278365
0.14182
-0.0295805
0.14704
-0.0340649
0.153248
-0.0418167
0.162445
-0.0667454
0.174802
-0.110825
-0.152182
0.161427
-0.0631602
0.170388
-0.0611199
0.179963
-0.0599521
0.187864
-0.0478265
0.195112
-0.0405033
0.201468
-0.0308299
0.206636
-0.0196737
0.210693
-0.00926143
0.213786
0.00182608
0.215845
0.0124106
0.216948
0.0230934
0.217168
0.0342082
0.216578
0.0454467
0.215171
0.0576842
0.213036
0.0710253
0.210279
0.085615
0.206932
0.102027
0.20322
0.120009
0.199594
0.140085
0.196594
0.162039
0.193024
0.186317
0.182954
0.209612
0.157317
0.222181
0.114079
0.20954
0.0647666
0.17031
0.0249354
0.122047
-0.000250335
0.0839274
-0.0155907
0.0600625
-0.0259939
0.0413901
-0.0325949
0.0174502
-0.0345612
-0.0167999
-0.030773
-0.0624828
-0.0203722
-0.112993
-0.00460831
-0.154529
0.0118236
-0.164559
0.0180129
-0.113784
0.023259
-0.0633812
0.0318388
-0.0832203
0.0510914
-0.269321
-0.142612
-0.0684384
-0.13239
-0.0748459
-0.119101
-0.0972689
-0.105402
-0.105063
-0.0907365
-0.114726
-0.0750811
-0.125049
-0.0593761
-0.128861
-0.0448869
-0.124557
-0.0316288
-0.118203
-0.0194624
-0.11149
-0.00863752
-0.102397
0.00109018
-0.0938011
0.0100424
-0.0867722
0.0183505
-0.080297
0.026228
-0.0748506
0.033849
-0.070404
0.0412593
-0.0665613
0.0485658
-0.0634096
0.0557813
-0.0608498
0.0629367
-0.0587791
0.0700382
-0.0571402
0.077091
-0.0557873
0.0840835
-0.0544964
0.0909516
-0.0524296
0.0975569
-0.0494244
0.103824
-0.0463769
0.109769
-0.0434373
0.115389
-0.0406736
0.120713
-0.0381113
0.125759
-0.0358353
0.130568
-0.0339427
0.135212
-0.0326014
0.13977
-0.0319627
0.144385
-0.0324489
0.149241
-0.0344298
0.15472
-0.0395297
0.161188
-0.0482565
0.170456
-0.0759729
0.182633
-0.122942
-0.154471
0.164396
-0.0730843
0.173974
-0.0706966
0.184289
-0.0702665
0.19273
-0.0562672
0.200421
-0.0481963
0.207344
-0.0377522
0.212965
-0.0252933
0.217487
-0.0137832
0.220994
-0.00167856
0.223451
0.0099539
0.224967
0.0215774
0.225653
0.0335222
0.225436
0.0456626
0.224418
0.0587012
0.222776
0.0726657
0.220418
0.0879721
0.217495
0.104948
0.214013
0.12349
0.210224
0.143874
0.20657
0.165693
0.203428
0.189461
0.198998
0.214046
0.185888
0.235297
0.155618
0.239819
0.109289
0.21665
0.0606368
0.170711
0.0236054
0.120972
0.00041763
0.0832629
-0.0142093
0.0560241
-0.0236636
0.0269024
-0.0279164
-0.0125061
-0.0260076
-0.0643834
-0.0171987
-0.121804
-0.00270408
-0.169014
0.0129417
-0.180184
0.0186469
-0.119455
0.023032
-0.0677637
0.0307879
-0.091
0.0468437
-0.285576
-0.144383
-0.078527
-0.133536
-0.0856959
-0.119398
-0.111408
-0.104853
-0.119609
-0.0894632
-0.130117
-0.0729246
-0.141587
-0.0565024
-0.145282
-0.0413806
-0.139677
-0.0276694
-0.131913
-0.0151424
-0.124016
-0.00413408
-0.113404
0.00562666
-0.103561
0.014546
-0.0956904
0.0227794
-0.0885299
0.0305372
-0.0826077
0.0380289
-0.0778955
0.0453713
-0.0739033
0.0526127
-0.070651
0.0598317
-0.0680687
0.0670391
-0.0659871
0.07424
-0.0643418
0.0814405
-0.0629895
0.0886315
-0.0616897
0.0957325
-0.0595341
0.102589
-0.0562844
0.109132
-0.0529244
0.115348
-0.0496581
0.121253
-0.0465826
0.126853
-0.0437148
0.132174
-0.0411614
0.137262
-0.0390379
0.142166
-0.0375173
0.146992
-0.0368051
0.151872
-0.0373519
0.156989
-0.0395764
0.162721
-0.0453143
0.16947
-0.055073
0.178793
-0.0853497
0.190706
-0.135052
-0.157339
0.167869
-0.0836121
0.178044
-0.080871
0.189082
-0.0813041
0.198198
-0.0653839
0.206505
-0.0565021
0.213956
-0.0452049
0.21995
-0.0312866
0.224953
-0.0187843
0.228871
-0.00559498
0.231726
0.00709986
0.233584
0.0197196
0.234553
0.0325523
0.234745
0.0454698
0.234184
0.0592619
0.232839
0.0740088
0.230888
0.0899225
0.228331
0.107503
0.225276
0.126544
0.221691
0.147458
0.217794
0.16959
0.21413
0.193124
0.210951
0.217224
0.205093
0.241156
0.188141
0.256771
0.152962
0.251829
0.104181
0.21949
0.0572089
0.167943
0.0233384
0.117134
0.00196222
0.0773829
-0.0116227
0.0404156
-0.0190057
-0.00509217
-0.0196572
-0.0637768
-0.0130003
-0.128418
-0.000228613
-0.181613
0.0143407
-0.194934
0.0196496
-0.124812
0.0229685
-0.0710762
0.029504
-0.0975377
0.0421862
-0.298307
-0.146534
-0.0893338
-0.135073
-0.0971573
-0.120044
-0.126439
-0.104655
-0.134999
-0.0883509
-0.146421
-0.070964
-0.158974
-0.0536836
-0.162562
-0.0378665
-0.155493
-0.0235764
-0.146202
-0.0106811
-0.13691
0.000598414
-0.124682
0.01049
-0.113451
0.0194454
-0.104645
0.0276077
-0.0966915
0.035271
-0.0902705
0.0426776
-0.0853019
0.0499156
-0.0811411
0.0571094
-0.0778447
0.0642967
-0.075256
0.0715275
-0.0732183
0.0788054
-0.0716201
0.0861317
-0.0703166
0.0935037
-0.0690628
0.100825
-0.0668571
0.107934
-0.0633949
0.11474
-0.0597329
0.121238
-0.0561583
0.127421
-0.0527689
0.133309
-0.0496004
0.138912
-0.0467625
0.144272
-0.0443971
0.149462
-0.0427047
0.154557
-0.0418953
0.159709
-0.0424983
0.165096
-0.0449518
0.171099
-0.0512967
0.178114
-0.0620538
0.187445
-0.0946426
0.199089
-0.14661
-0.160562
0.171838
-0.0948881
0.182707
-0.0917397
0.19451
-0.0931076
0.204185
-0.0750585
0.213075
-0.0653941
0.221095
-0.0532232
0.22767
-0.0378614
0.233056
-0.0241693
0.23736
-0.00989693
0.240559
0.00390141
0.242806
0.0174726
0.244171
0.0311877
0.244634
0.0450055
0.244358
0.0595366
0.243403
0.0749628
0.24178
0.0915448
0.239533
0.109749
0.236757
0.129319
0.233497
0.150719
0.229815
0.173271
0.225905
0.197035
0.222459
0.220673
0.219154
0.244466
0.211266
0.264667
0.189648
0.273456
0.149532
0.259616
0.0995551
0.217931
0.0553741
0.161326
0.0245963
0.108164
0.00491042
0.0600935
-0.00679362
0.00664427
-0.010946
-0.0596288
-0.00725592
-0.132125
0.00314741
-0.192024
0.0162328
-0.207997
0.0210772
-0.129627
0.0230708
-0.0730794
0.0279182
-0.102412
0.0370848
-0.307699
-0.149109
-0.100787
-0.136897
-0.10937
-0.120981
-0.142355
-0.104659
-0.151323
-0.0874377
-0.163643
-0.0691052
-0.177306
-0.0508746
-0.180792
-0.0343119
-0.172055
-0.019415
-0.161098
-0.00600719
-0.150316
0.00561731
-0.136305
0.0156899
-0.123522
0.0246851
-0.113639
0.0328682
-0.104874
0.0404762
-0.0978781
0.0477861
-0.0926114
0.0549412
-0.0882963
0.0620531
-0.0849564
0.0692097
-0.082413
0.0764401
-0.0804488
0.083766
-0.0789471
0.0911994
-0.0777514
0.0987358
-0.0766015
0.10627
-0.0743945
0.113619
-0.070747
0.120686
-0.066804
0.127454
-0.0629309
0.133924
-0.0592425
0.14009
-0.0557699
0.145984
-0.052661
0.151634
-0.0500521
0.157102
-0.0481823
0.162486
-0.0472942
0.16791
-0.0479446
0.173581
-0.0506544
0.179845
-0.0576104
0.187119
-0.0693936
0.196476
-0.104065
0.207813
-0.158087
-0.164297
0.176205
-0.106795
0.187806
-0.103341
0.200422
-0.105724
0.210805
-0.085443
0.220331
-0.0749191
0.228909
-0.0618021
0.235976
-0.0449277
0.241841
-0.0300321
0.246488
-0.0145432
0.250051
0.000339159
0.252602
0.0149224
0.254252
0.0295374
0.255095
0.0441618
0.255143
0.0594873
0.25446
0.0756447
0.253097
0.0929069
0.25115
0.111696
0.248669
0.131799
0.245705
0.153682
0.242277
0.176699
0.238498
0.200814
0.234713
0.224458
0.231582
0.247599
0.227875
0.268376
0.217105
0.284227
0.190154
0.286568
0.145981
0.262104
0.0965607
0.210748
0.0557737
0.148932
0.0277247
0.0880819
0.0100806
0.0243205
0.00114191
-0.0507235
0.000742533
-0.131674
0.00786779
-0.198979
0.0188614
-0.219169
0.0229946
-0.133811
0.0233464
-0.0734258
0.0260286
-0.105108
0.0314915
-0.313197
-0.152009
-0.113075
-0.139152
-0.122228
-0.122206
-0.159302
-0.104941
-0.168588
-0.0866714
-0.181913
-0.0672627
-0.196715
-0.0481134
-0.19994
-0.0306803
-0.189487
-0.0150983
-0.176678
-0.00113425
-0.164279
0.0108616
-0.148299
0.0211684
-0.133828
0.0303335
-0.122803
0.0385403
-0.11308
0.0461388
-0.105476
0.0533954
-0.0998678
0.0604631
-0.0953638
0.0674871
-0.0919804
0.0745837
-0.0895096
0.0818074
-0.0876728
0.0891684
-0.0863084
0.096694
-0.0852775
0.104365
-0.0842727
0.112097
-0.0821285
0.11968
-0.0783304
0.126999
-0.0741253
0.134037
-0.0699701
0.14078
-0.0659877
0.147239
-0.0622271
0.153425
-0.0588444
0.159369
-0.0559945
0.165134
-0.0539451
0.170805
-0.052958
0.17652
-0.053652
0.182473
-0.0565914
0.189011
-0.0641236
0.196545
-0.0768874
0.205854
-0.113335
0.216868
-0.169018
-0.168348
0.181033
-0.11948
0.193407
-0.115714
0.20689
-0.119209
0.217971
-0.0965236
0.228117
-0.0850675
0.2373
-0.070984
0.244906
-0.0525319
0.251185
-0.0363101
0.256259
-0.0196161
0.260158
-0.00355804
0.263074
0.0120064
0.265014
0.0275964
0.266136
0.0430391
0.266462
0.0591611
0.265989
0.0761161
0.264934
0.093962
0.263237
0.113392
0.260984
0.134053
0.258284
0.156382
0.255149
0.179835
0.251644
0.204321
0.247936
0.228169
0.244516
0.251024
0.2418
0.271098
0.237024
0.289012
0.222231
0.301371
0.190012
0.294333
0.143504
0.257266
0.0961099
0.196329
0.0586888
0.125493
0.0331929
0.0498336
0.0178048
-0.0353588
0.0118764
-0.125782
0.014487
-0.201619
0.0225187
-0.227188
0.025491
-0.136756
0.0238081
-0.0717609
0.0238258
-0.105158
0.0253669
-0.314975
-0.155383
-0.126039
-0.141603
-0.136008
-0.123673
-0.177232
-0.10534
-0.186923
-0.0860509
-0.201203
-0.065559
-0.217207
-0.0452859
-0.220213
-0.0269685
-0.207804
-0.0105871
-0.193058
0.00397695
-0.178841
0.0164296
-0.16075
0.0270295
-0.144426
0.0363631
-0.132135
0.044662
-0.121378
0.0522469
-0.11306
0.0594617
-0.107083
0.06647
-0.102372
0.0734272
-0.0989377
0.0804674
-0.0965499
0.0876589
-0.0948648
0.0950395
-0.0936896
0.102624
-0.0928636
0.110431
-0.0920809
0.118347
-0.0900476
0.126146
-0.0861322
0.133709
-0.0816926
0.14101
-0.0772753
0.148036
-0.0730185
0.154784
-0.0689784
0.161264
-0.0653288
0.167505
-0.0622401
0.173565
-0.060012
0.179537
-0.0589419
0.185545
-0.0596813
0.191791
-0.0628667
0.198592
-0.0709737
0.206372
-0.0847291
0.215666
-0.122695
0.226283
-0.179732
-0.172781
0.186333
-0.133032
0.199476
-0.128859
0.213875
-0.133609
0.225652
-0.108303
0.236479
-0.0958938
0.246368
-0.0808738
0.254452
-0.0606141
0.26122
-0.0430767
0.266764
-0.0251586
0.27103
-0.00782274
0.274224
0.00881222
0.27647
0.0253496
0.277783
0.0417263
0.278376
0.0585668
0.27823
0.0762615
0.277384
0.0948071
0.275928
0.114847
0.273891
0.13609
0.271315
0.158958
0.268384
0.182766
0.265158
0.207547
0.261653
0.231676
0.258193
0.254487
0.255338
0.273955
0.252714
0.29164
0.245899
0.308188
0.226582
0.313653
0.190144
0.293706
0.143186
0.243277
0.0985653
0.170071
0.0640875
0.0843519
0.040419
-0.0117096
0.0272064
-0.112508
0.0236928
-0.197929
0.0275382
-0.231189
0.0286739
-0.137948
0.0245076
-0.0675937
0.0213245
-0.101999
0.0187088
-0.312374
-0.159
-0.13982
-0.144489
-0.15052
-0.125389
-0.196333
-0.105974
-0.206339
-0.0855416
-0.221635
-0.0638337
-0.238916
-0.042467
-0.241579
-0.0231201
-0.227149
-0.00596154
-0.210215
0.00930562
-0.194106
0.0222374
-0.17368
0.0332062
-0.155393
0.0427875
-0.141716
0.0511996
-0.129789
0.0588531
-0.120714
0.0660417
-0.114271
0.0729996
-0.10933
0.0799043
-0.105842
0.0868832
-0.103529
0.0940363
-0.102018
0.10141
-0.101063
0.10905
-0.100504
0.116964
-0.099996
0.125056
-0.0981394
0.133064
-0.0941417
0.140861
-0.0894904
0.148418
-0.0848334
0.155715
-0.0803158
0.162751
-0.0760131
0.169523
-0.0720995
0.176069
-0.0687831
0.182439
-0.066379
0.188708
-0.0652039
0.195023
-0.0659853
0.201567
-0.0693917
0.208632
-0.0780092
0.216646
-0.0927009
0.225867
-0.131871
0.236067
-0.18985
-0.177655
0.192068
-0.147446
0.206025
-0.142817
0.221354
-0.148939
0.233877
-0.120826
0.245482
-0.107502
0.256029
-0.0914191
0.264687
-0.0692702
0.27196
-0.0503488
0.277899
-0.0310962
0.2825
-0.0124229
0.286008
0.00530422
0.28854
0.0228178
0.290197
0.0400688
0.290982
0.0577802
0.291045
0.0761983
0.290408
0.0954432
0.289145
0.116109
0.287294
0.137941
0.284971
0.161282
0.282188
0.18555
0.279111
0.210625
0.275878
0.234912
0.27258
0.257789
0.269605
0.276937
0.267189
0.294063
0.263932
0.311454
0.254259
0.323336
0.230602
0.317374
0.191496
0.282387
0.145475
0.216087
0.103422
0.126408
0.0703542
0.0213154
0.0479264
-0.0901414
0.0362866
-0.186342
0.0343326
-0.229246
0.0326943
-0.136293
0.0255022
-0.0604218
0.0185709
-0.0951092
0.0115431
-0.305591
-0.162969
-0.154505
-0.147546
-0.165943
-0.127312
-0.216568
-0.10673
-0.226921
-0.0851002
-0.243266
-0.0621285
-0.261887
-0.0395446
-0.264163
-0.0191547
-0.247538
-0.00108699
-0.228281
0.0149132
-0.210104
0.028417
-0.187182
0.0397824
-0.166757
0.0496078
-0.15154
0.0582203
-0.138401
0.0659201
-0.128413
0.0731568
-0.121507
0.0800674
-0.116241
0.0869236
-0.112698
0.0938435
-0.110449
0.100956
-0.109131
0.108328
-0.108435
0.115999
-0.108176
0.124013
-0.108012
0.132252
-0.10638
0.140463
-0.102356
0.148481
-0.0975121
0.156286
-0.092643
0.163851
-0.0878858
0.171172
-0.0833389
0.178245
-0.0791776
0.185095
-0.0756379
0.191766
-0.0730558
0.198355
-0.071802
0.204971
-0.0726183
0.211816
-0.0762635
0.219143
-0.0853785
0.227371
-0.100987
0.23652
-0.141079
0.246287
-0.199681
-0.182846
0.198122
-0.162722
0.212997
-0.157694
0.229352
-0.165296
0.242684
-0.13416
0.255065
-0.119881
0.266277
-0.102631
0.275567
-0.0785591
0.283369
-0.0581482
0.28971
-0.0374364
0.294694
-0.0174062
0.29859
0.00140856
0.301367
0.0200399
0.303248
0.0381873
0.30428
0.0567475
0.304524
0.0759543
0.304096
0.0958703
0.302994
0.117212
0.301328
0.139607
0.299118
0.163491
0.29652
0.188149
0.293575
0.213571
0.290504
0.237985
0.287447
0.260849
0.28456
0.279827
0.282011
0.296616
0.279574
0.313896
0.274957
0.327959
0.262005
0.330332
0.234693
0.309699
0.194332
0.25643
0.149505
0.171282
0.108118
0.0627042
0.0750385
-0.0569632
0.0531485
-0.164288
0.0433943
-0.219616
0.037724
-0.130673
0.0268945
-0.0496016
0.0156353
-0.0838742
0.00386525
-0.29381
-0.167259
-0.170093
-0.150923
-0.182279
-0.129462
-0.238031
-0.107614
-0.248769
-0.0847346
-0.266147
-0.0604508
-0.286172
-0.0365256
-0.288088
-0.0150443
-0.269018
0.00400617
-0.247329
0.0207815
-0.226877
0.0348893
-0.201287
0.0466933
-0.17856
0.0568811
-0.161727
0.0656714
-0.147191
0.0735133
-0.136254
0.0807784
-0.128772
0.0877057
-0.123168
0.0945133
-0.119506
0.10139
-0.117326
0.108455
-0.116196
0.115801
-0.115781
0.123502
-0.115877
0.131602
-0.116111
0.139997
-0.114776
0.148378
-0.110737
0.156612
-0.105746
0.164653
-0.100685
0.172484
-0.0957171
0.180082
-0.090935
0.187451
-0.0865452
0.194606
-0.0827899
0.201596
-0.0800418
0.208492
-0.0786899
0.215414
-0.079529
0.222564
-0.0833885
0.230145
-0.0929307
0.238579
-0.109374
0.247629
-0.150083
0.256885
-0.208866
-0.188465
0.2047
-0.178959
0.220538
-0.173534
0.237849
-0.182609
0.252135
-0.148447
0.265219
-0.132967
0.277243
-0.114654
0.287116
-0.0884307
0.295462
-0.0664916
0.302293
-0.0442662
0.307686
-0.0227984
0.311811
-0.00271606
0.314923
0.0169271
0.316998
0.0361119
0.318241
0.0555037
0.318734
0.0754611
0.318438
0.0961653
0.317531
0.118119
0.316001
0.141137
0.313961
0.165532
0.311457
0.190654
0.308625
0.216404
0.305704
0.240909
0.302783
0.263775
0.30007
0.282545
0.297471
0.299222
0.294921
0.316453
0.291947
0.330944
0.285312
0.336978
0.268879
0.326139
0.238631
0.286679
0.197405
0.212507
0.151833
0.108226
0.108673
-0.0138833
0.0749728
-0.130678
0.0552358
-0.199925
0.0439765
-0.119415
0.0288
-0.0344441
0.0126068
-0.0677325
-0.00442569
-0.277017
-0.171927
-0.186631
-0.154588
-0.199619
-0.131793
-0.260826
-0.108672
-0.271892
-0.0844128
-0.290408
-0.0587182
-0.311866
-0.0334773
-0.313328
-0.010731
-0.291762
0.00931152
-0.267369
0.026964
-0.244527
0.0417408
-0.216062
0.0540603
-0.190878
0.0645991
-0.172265
0.0736509
-0.156242
0.0816312
-0.144235
0.0889723
-0.136113
0.0959255
-0.130121
0.102707
-0.126288
0.109536
-0.124154
0.116567
-0.123228
0.123897
-0.123111
0.131608
-0.12359
0.13978
-0.124285
0.148303
-0.123301
0.156862
-0.119298
0.165294
-0.114183
0.173561
-0.108957
0.18164
-0.103801
0.189516
-0.0988168
0.197173
-0.0942082
0.204637
-0.090259
0.211933
-0.0873431
0.219151
-0.0859161
0.226391
-0.0867829
0.233829
-0.0908464
0.241676
-0.100812
0.250277
-0.118025
0.259247
-0.159101
0.268001
-0.217661
-0.194439
0.211685
-0.196205
0.228452
-0.190303
0.246969
-0.201128
0.262029
-0.163508
0.276058
-0.146995
0.28882
-0.127416
0.299429
-0.099038
0.308277
-0.0753375
0.315591
-0.0515787
0.321352
-0.0285586
0.325891
-0.00725416
0.32922
0.0135967
0.331601
0.0337305
0.33304
0.0540641
0.333689
0.0748117
0.333576
0.0962787
0.332787
0.118907
0.331359
0.142565
0.329392
0.1675
0.32699
0.193056
0.324277
0.219119
0.321386
0.243802
0.318566
0.266598
0.31603
0.285085
0.313533
0.301724
0.310825
0.319167
0.30789
0.333887
0.303658
0.341221
0.294141
0.335664
0.273886
0.30694
0.240637
0.245797
0.19682
0.152074
0.147254
0.0357978
0.101803
-0.085029
0.0702465
-0.168457
0.0516511
-0.100853
0.0313621
-0.0141713
0.00960146
-0.0459872
-0.0135852
-0.253792
-0.176901
-0.20417
-0.15851
-0.21801
-0.134329
-0.285009
-0.109873
-0.296349
-0.0841753
-0.316106
-0.0569787
-0.339065
-0.0302578
-0.340047
-0.00626783
-0.315749
0.0148712
-0.288505
0.033434
-0.263087
0.048944
-0.23157
0.0618173
-0.20375
0.0727601
-0.183207
0.0821091
-0.165591
0.090288