/*--------------------------------*- C++ -*----------------------------------*\
  =========                 |
  \\      /  F ield         | OpenFOAM: The Open Source CFD Toolbox
   \\    /   O peration     | Website:  https://openfoam.org
    \\  /    A nd           | Version:  9
     \\/     M anipulation  |
\*---------------------------------------------------------------------------*/
FoamFile
{
    format      ascii;
    class       volVectorField;
    location    "150";
    object      U;
}
// * * * * * * * * * * * * * * * * * * * * * * * * * * * * * * * * * * * * * //

dimensions      [0 1 -1 0 0 0 0];

internalField   nonuniform List<vector> 
10720
(
(-1.9322 18.9387 3.39031e-17)
(-0.714876 19.4632 -3.32011e-17)
(0.613514 19.8571 0)
(1.97616 19.8541 -3.96182e-16)
(3.31443 19.528 4.56252e-16)
(4.5845 18.8342 2.85509e-16)
(5.71288 17.7435 3.4102e-16)
(6.64851 16.3117 0)
(7.3242 14.568 0)
(7.68194 12.5923 0)
(7.68299 10.4864 5.30669e-17)
(7.28949 8.33832 0)
(6.47339 6.23098 1.61292e-15)
(5.21644 4.23704 0)
(3.51796 2.42052 0)
(1.45295 0.867548 0)
(-0.788888 -0.231622 -7.61729e-15)
(-2.07787 -0.513631 -1.07936e-14)
(-2.78163 -0.672908 6.95339e-15)
(-3.38517 -0.712514 0)
(-3.77421 -0.641389 4.55729e-15)
(-4.05165 -0.52325 -8.81104e-15)
(-4.31303 -0.388451 4.32354e-15)
(-4.71346 -0.257425 -1.18545e-16)
(-5.29398 -0.135356 0)
(-5.97444 -0.00761496 1.48208e-15)
(-6.64708 0.137919 2.10735e-17)
(-7.2411 0.29632 -6.20911e-16)
(-7.68892 0.45748 -2.31411e-15)
(-7.86999 0.604819 -8.67549e-15)
(-7.63471 0.712386 3.95881e-15)
(-6.94217 0.753218 7.41919e-15)
(-5.65675 0.673209 6.51107e-15)
(-3.80497 0.418124 2.20765e-14)
(-1.79791 0.0929888 -1.23393e-14)
(0.872591 -0.376127 -9.13052e-17)
(1.82365 -0.399002 8.88977e-17)
(3.82001 -0.770017 3.16079e-14)
(3.21236 -1.4981 -2.17041e-14)
(-3.0315 18.2462 1.48716e-17)
(-4.0978 17.3281 2.74272e-17)
(-5.09593 16.1705 -4.71097e-17)
(-5.94039 14.6052 6.32522e-17)
(-6.5343 12.8544 1.40814e-16)
(-6.80399 10.9314 -6.46872e-17)
(-6.70226 8.93716 1.90266e-17)
(-6.23505 7.0206 1.13902e-16)
(-5.4822 5.31401 0)
(-4.5426 3.86907 0)
(-3.49262 2.69466 6.76616e-16)
(-2.40895 1.78454 5.25977e-16)
(-1.35895 1.11105 -1.60605e-15)
(-0.410865 0.635256 2.89567e-15)
(0.427679 0.259896 6.79197e-15)
(1.24759 -0.0757033 3.23257e-15)
(2.02369 -0.336959 3.4283e-15)
(2.74305 -0.527356 2.05938e-15)
(3.41542 -0.664506 0)
(4.05162 -0.760407 0)
(4.66106 -0.822856 -2.7032e-15)
(5.25096 -0.853678 -1.40132e-16)
(5.82572 -0.851008 2.10327e-15)
(6.37931 -0.806464 -1.69659e-15)
(6.89297 -0.718105 5.61253e-18)
(7.35953 -0.59729 0)
(7.78466 -0.452577 5.47868e-16)
(8.17225 -0.289925 0)
(8.52464 -0.113916 0)
(8.84399 0.0711692 3.50347e-16)
(9.1347 0.261495 0)
(9.40171 0.453789 -9.98127e-16)
(9.65388 0.646322 -1.59638e-15)
(9.89925 0.838092 -6.22612e-15)
(10.1602 1.03186 1.79536e-15)
(10.4417 1.23014 -5.38475e-18)
(10.8274 1.45292 0)
(11.3443 1.731 -1.58441e-15)
(12.3932 2.04685 -4.51756e-15)
(2.7414 17.2363 1.32003e-17)
(3.98119 17.6818 -1.95163e-17)
(5.37857 17.9628 0)
(6.86348 18.0591 0)
(8.3172 18.0014 -1.26529e-16)
(9.72309 17.8296 -2.53539e-16)
(11.0032 17.5078 0)
(12.1059 17.017 0)
(12.9957 16.3585 3.86883e-16)
(13.6294 15.5174 0)
(13.9631 14.4907 1.15455e-15)
(13.9471 13.2748 0)
(13.5251 11.8701 3.46285e-16)
(12.629 10.2782 -3.64492e-16)
(11.1769 8.49606 6.84933e-16)
(9.10282 6.53695 -1.43232e-15)
(6.38915 4.45211 1.65369e-15)
(3.30931 2.44534 2.13203e-15)
(0.312296 0.696541 3.22362e-15)
(-1.77172 -0.186399 2.33527e-16)
(-2.9558 -0.452837 -3.37871e-15)
(-3.72237 -0.484878 3.16599e-15)
(-4.30266 -0.39073 -1.7301e-16)
(-4.87079 -0.255675 0)
(-5.4528 -0.131967 0)
(-5.99155 -0.0178605 0)
(-6.4507 0.1031 1.13117e-16)
(-6.81307 0.227606 -2.61383e-17)
(-7.05308 0.345256 1.60349e-15)
(-7.12667 0.446421 4.19377e-18)
(-6.94057 0.516315 -1.84176e-18)
(-6.28331 0.529269 -3.07427e-17)
(-5.00399 0.451679 3.76403e-15)
(-3.10904 0.192097 -5.6269e-15)
(-1.26697 -0.103 -3.76566e-17)
(1.29885 -0.548741 -8.57583e-15)
(1.84488 -0.433691 0)
(3.86726 -0.913077 -8.09703e-15)
(3.24494 -1.05811 -1.04681e-14)
(1.58248 16.6801 -1.8027e-17)
(0.470735 15.9869 2.74713e-17)
(-0.694303 15.0951 1.72695e-16)
(-1.79333 13.9597 -2.01554e-16)
(-2.73853 12.593 0)
(-3.45981 11.0273 -1.08226e-17)
(-3.88735 9.33217 -6.19607e-17)
(-3.97618 7.62696 -4.39297e-16)
(-3.74623 6.02461 1.99807e-16)
(-3.26061 4.59182 -3.84832e-16)
(-2.58892 3.36913 7.31773e-16)
(-1.8001 2.37308 -3.31962e-16)
(-0.960435 1.59844 0)
(-0.128935 1.02022 -6.78048e-16)
(0.666988 0.569547 -2.14735e-17)
(1.43498 0.206739 -1.71407e-15)
(2.16695 -0.0695867 0)
(2.86237 -0.275196 0)
(3.52469 -0.426595 -1.68599e-16)
(4.15953 -0.533582 1.51699e-16)
(4.77262 -0.602655 -1.94215e-15)
(5.36946 -0.634496 -2.25249e-16)
(5.95299 -0.62647 1.01127e-16)
(6.51817 -0.569755 1.36729e-15)
(7.04951 -0.467284 -1.22253e-15)
(7.53873 -0.337272 -1.00787e-15)
(7.98907 -0.188346 0)
(8.40352 -0.0251471 0)
(8.78366 0.148796 0)
(9.13169 0.329465 2.68858e-18)
(9.45113 0.513548 0)
(9.7466 0.698215 0)
(10.0259 0.882167 2.66784e-15)
(10.2964 1.06528 2.05621e-15)
(10.5802 1.25171 -1.46551e-15)
(10.8803 1.44691 8.69931e-16)
(11.2908 1.67929 -4.46189e-16)
(11.7819 1.95479 1.1854e-15)
(12.9708 2.54039 3.03414e-15)
(1.79034 15.9031 4.28398e-18)
(2.69935 16.322 9.34384e-17)
(3.72611 16.6567 -7.39413e-17)
(4.82576 16.8707 -7.6512e-17)
(5.94851 16.918 -1.88793e-16)
(7.08898 16.7904 5.8608e-16)
(8.24487 16.5024 -3.88227e-16)
(9.37538 16.0788 -3.63933e-16)
(10.4643 15.5493 -1.88536e-17)
(11.4694 14.9408 -3.75729e-16)
(12.3512 14.2715 2.85871e-16)
(13.0725 13.5498 -6.67498e-16)
(13.5789 12.7732 -2.78446e-16)
(13.7978 11.9215 0)
(13.6247 10.9438 -5.33843e-16)
(12.9128 9.74969 9.9716e-16)
(11.4724 8.21084 0)
(9.13199 6.25242 -2.07649e-15)
(5.89712 3.9637 -1.23885e-15)
(2.32517 1.83744 2.05451e-16)
(-0.592078 0.492069 -2.81735e-16)
(-2.27101 0.00297011 -1.49108e-16)
(-3.25752 -0.106839 -1.99483e-15)
(-3.94451 -0.0533342 9.54101e-16)
(-4.51196 0.0276759 0)
(-5.01045 0.097389 7.68443e-16)
(-5.45229 0.174543 -8.6933e-17)
(-5.83751 0.260071 0)
(-6.14187 0.33994 1.16156e-15)
(-6.29632 0.397405 2.15913e-15)
(-6.16502 0.406198 -3.64478e-15)
(-5.5907 0.351294 -2.99761e-15)
(-4.40139 0.226867 -3.50756e-17)
(-2.55423 -0.050089 -3.62692e-15)
(-0.833603 -0.319089 -3.17136e-15)
(1.48539 -0.704299 5.24172e-15)
(1.70938 -0.467795 0)
(3.76695 -0.943288 -5.22162e-15)
(2.97751 -1.2193 1.32697e-14)
(0.980916 15.3913 1.2004e-17)
(0.210103 14.7607 1.62019e-17)
(-0.547864 13.9394 -9.5173e-17)
(-1.28345 12.9391 0)
(-1.91427 11.7834 -1.60957e-17)
(-2.40344 10.4794 0)
(-2.70772 9.07122 1.38348e-16)
(-2.79198 7.63915 1.11855e-16)
(-2.65148 6.25909 1.86156e-16)
(-2.30948 4.98176 0)
(-1.80697 3.8454 -8.11325e-16)
(-1.18806 2.87547 -2.73429e-16)
(-0.500801 2.07991 1.71877e-15)
(0.212385 1.45023 0)
(0.926824 0.949558 -1.34508e-15)
(1.63281 0.548907 -3.88693e-16)
(2.31832 0.23418 1.69614e-15)
(2.97966 -0.0102536 8.9776e-16)
(3.61707 -0.197485 2.62902e-16)
(4.23339 -0.336523 -1.25764e-16)
(4.83235 -0.433516 1.57703e-15)
(5.41765 -0.490321 0)
(5.9912 -0.505496 0)
(6.54862 -0.474044 2.88593e-18)
(7.07716 -0.399134 0)
(7.56893 -0.29411 1.83815e-15)
(8.02582 -0.165552 -2.60881e-17)
(8.45046 -0.0176283 -1.75314e-16)
(8.84444 0.145688 0)
(9.20992 0.319947 -2.62877e-16)
(9.55025 0.501675 4.53381e-16)
(9.8698 0.687759 0)
(10.1762 0.876733 -1.24351e-15)
(10.4759 1.06831 0)
(10.7898 1.26639 0)
(11.1172 1.47649 1.75411e-17)
(11.5575 1.72603 -3.7831e-17)
(12.034 2.03708 -1.12643e-15)
(13.2521 2.67614 -6.11319e-15)
(3.10366 14.7861 1.02872e-17)
(3.96062 15.1624 2.32529e-17)
(4.91378 15.4628 -5.27782e-17)
(5.93424 15.6499 -4.5045e-17)
(6.97607 15.7014 0)
(8.032 15.6118 0)
(9.04717 15.3841 -6.20941e-16)
(9.97574 15.0278 6.65011e-16)
(10.7986 14.556 0)
(11.5105 13.9917 -6.04121e-16)
(12.1103 13.3662 -6.56222e-16)
(12.6055 12.7182 -5.71551e-16)
(13.0067 12.0884 5.83771e-16)
(13.3214 11.5072 5.07554e-16)
(13.5383 10.9749 0)
(13.5921 10.4314 6.45685e-16)
(13.312 9.72097 2.06717e-16)
(12.3893 8.62 1.55644e-15)
(10.4326 6.92609 1.00643e-16)
(7.28219 4.70364 -1.16953e-16)
(3.44494 2.46996 1.33956e-15)
(0.14953 0.950779 -3.08335e-16)
(-1.78227 0.359939 1.93073e-15)
(-2.84083 0.214659 7.9854e-16)
(-3.53114 0.208861 -4.50051e-17)
(-4.08765 0.225825 -5.9884e-16)
(-4.578 0.259508 4.43975e-18)
(-5.01222 0.306817 -3.92396e-18)
(-5.36662 0.347241 -9.00723e-16)
(-5.56931 0.358894 -2.44245e-17)
(-5.48772 0.31308 1.39616e-15)
(-4.99242 0.196507 -2.27818e-15)
(-3.90687 0.0186713 -1.72984e-15)
(-2.14518 -0.27747 -4.17495e-17)
(-0.514319 -0.527193 2.19172e-15)
(1.57115 -0.827371 0)
(1.51848 -0.491726 4.82467e-15)
(3.61161 -0.965778 3.6889e-15)
(2.68694 -1.37065 -4.80662e-15)
(2.31825 14.3412 3.77978e-18)
(1.55566 13.8057 -3.54954e-17)
(0.79008 13.1201 -6.80717e-17)
(0.0458081 12.2713 0)
(-0.602659 11.2807 1.50856e-17)
(-1.12669 10.1537 0)
(-1.48986 8.92563 -1.62008e-16)
(-1.66223 7.66486 -6.56414e-18)
(-1.63804 6.43319 1.76636e-16)
(-1.43195 5.27075 2.84956e-16)
(-1.07277 4.21214 9.36299e-18)
(-0.593627 3.28435 8.57005e-16)
(-0.0335895 2.49913 -8.66186e-16)
(0.573289 1.85146 3.25991e-16)
(1.20367 1.31947 1.3056e-15)
(1.8423 0.884543 1.48026e-15)
(2.47585 0.534137 -1.35509e-15)
(3.09803 0.255846 -7.03859e-18)
(3.70626 0.0383529 0)
(4.30062 -0.127096 1.57728e-15)
(4.88253 -0.246555 8.64553e-17)
(5.45385 -0.322709 -1.34287e-15)
(6.01527 -0.355352 0)
(6.56254 -0.341505 1.80848e-18)
(7.0845 -0.28352 0)
(7.57325 -0.192411 -7.83772e-16)
(8.02927 -0.0754962 0)
(8.45467 0.0623599 1.54534e-16)
(8.85083 0.216807 -6.16968e-18)
(9.21985 0.383347 3.84299e-18)
(9.56501 0.55855 -3.84507e-16)
(9.89067 0.739313 -1.1315e-17)
(10.2045 0.924245 0)
(10.513 1.11329 8.65765e-16)
(10.8371 1.31044 1.1594e-17)
(11.175 1.52223 -7.48841e-16)
(11.6267 1.77631 8.62474e-16)
(12.0948 2.10699 -9.56363e-19)
(13.2773 2.74924 0)
(3.40919 13.9338 1.18824e-17)
(4.12213 14.2888 2.10703e-17)
(4.92555 14.5928 -9.04496e-17)
(5.78623 14.8143 4.18633e-16)
(6.66679 14.9296 -1.09451e-16)
(7.56978 14.9337 -2.3556e-16)
(8.4617 14.8197 2.9285e-16)
(9.32511 14.5787 0)
(10.1442 14.2107 8.13987e-16)
(10.8871 13.7302 3.10088e-16)
(11.5282 13.1589 0)
(12.0526 12.5268 5.49319e-16)
(12.4573 11.8741 -2.48216e-16)
(12.7569 11.2477 6.80724e-16)
(12.9838 10.6951 0)
(13.174 10.2443 -8.28171e-16)
(13.3195 9.85649 7.40339e-16)
(13.2757 9.37995 -1.07439e-17)
(12.6685 8.528 0)
(10.9588 7.01758 7.70583e-16)
(7.83283 4.87058 -8.81018e-16)
(3.87681 2.67073 -6.11992e-17)
(0.498458 1.20012 -1.29761e-15)
(-1.43368 0.623714 -1.34999e-15)
(-2.46598 0.438734 0)
(-3.17163 0.374552 0)
(-3.74882 0.357973 -1.25016e-16)
(-4.24487 0.364306 -1.35553e-17)
(-4.65172 0.363354 7.69839e-16)
(-4.90553 0.327671 -2.01693e-17)
(-4.87782 0.228006 1.733e-17)
(-4.4607 0.0527458 1.72959e-15)
(-3.48505 -0.178595 0)
(-1.83868 -0.491249 4.09001e-15)
(-0.286433 -0.72074 -1.54666e-17)
(1.59663 -0.923483 0)
(1.31683 -0.511014 6.21407e-18)
(3.43008 -0.985355 0)
(2.40829 -1.5034 3.90294e-15)
(2.76047 13.5205 -1.26998e-17)
(2.13495 13.0336 3.84987e-17)
(1.49999 12.4157 -2.331e-17)
(0.867812 11.661 1.20321e-17)
(0.304928 10.7933 -4.16285e-18)
(-0.168332 9.80806 -1.15792e-16)
(-0.520049 8.73083 1.50282e-16)
(-0.719877 7.61858 -2.62392e-16)
(-0.75771 6.52125 -2.01716e-16)
(-0.64054 5.46911 -2.59861e-16)
(-0.386661 4.49201 6.18237e-16)
(-0.0194429 3.61675 -7.86144e-16)
(0.432433 2.85731 -4.86448e-16)
(0.943707 2.21027 5.33311e-16)
(1.49302 1.66337 -1.32428e-15)
(2.06389 1.2061 2.31157e-16)
(2.64322 0.829335 0)
(3.22293 0.523402 -1.03518e-15)
(3.79829 0.279168 3.76938e-16)
(4.36713 0.0888421 -1.54628e-15)
(4.92892 -0.0530918 0)
(5.48377 -0.149569 1.1088e-15)
(6.0312 -0.201073 9.28491e-16)
(6.56689 -0.206305 -8.24886e-16)
(7.0808 -0.16733 0)
(7.56501 -0.0932626 -7.01413e-16)
(8.01877 0.00853056 0)
(8.44346 0.133241 0)
(8.84014 0.276513 0)
(9.21061 0.433878 2.08559e-16)
(9.55791 0.601779 0)
(9.88618 0.777038 0)
(10.2028 0.958133 -9.97947e-16)
(10.5142 1.1451 -7.79516e-16)
(10.8411 1.34195 0)
(11.1808 1.55628 -7.00657e-16)
(11.6326 1.81494 3.50137e-17)
(12.0892 2.16334 0)
(13.2192 2.8118 2.06525e-15)
(3.96916 13.1809 -1.84439e-17)
(4.61928 13.508 1.42414e-17)
(5.34919 13.7936 0)
(6.13008 14.0072 -3.62839e-18)
(6.9278 14.1298 -2.62991e-16)
(7.75115 14.157 2.25819e-16)
(8.57086 14.0813 1.98125e-17)
(9.35901 13.9029 -6.9159e-16)
(10.0962 13.6264 -5.61831e-17)
(10.7635 13.2597 7.04441e-16)
(11.3463 12.8131 -2.3593e-16)
(11.8337 12.2997 4.47262e-16)
(12.2172 11.7401 2.12364e-16)
(12.497 11.1615 1.68549e-16)
(12.6879 10.5994 0)
(12.8258 10.097 -1.86736e-16)
(12.9626 9.68858 -3.59951e-16)
(13.1203 9.36121 -1.31057e-15)
(13.1735 8.97415 3.76563e-16)
(12.7026 8.22118 -4.47544e-16)
(11.0363 6.77517 -7.63981e-17)
(7.83374 4.69313 0)
(3.84745 2.6309 8.06087e-16)
(0.618104 1.32044 6.85953e-17)
(-1.16281 0.78007 -3.75769e-17)
(-2.17128 0.568166 -4.84273e-16)
(-2.89665 0.479032 1.01368e-16)
(-3.48062 0.43701 1.98094e-16)
(-3.95438 0.39169 -6.77977e-16)
(-4.27236 0.306679 -3.54977e-17)
(-4.30969 0.15244 9.78857e-16)
(-3.97492 -0.0804579 1.42618e-15)
(-3.11203 -0.364885 0)
(-1.60147 -0.693527 2.58268e-17)
(-0.128948 -0.900668 -1.40758e-15)
(1.5852 -0.997287 0)
(1.13158 -0.528641 -6.16204e-15)
(3.23557 -1.00303 0)
(2.15002 -1.62291 -3.23587e-15)
(3.37401 12.8059 1.24001e-17)
(2.80079 12.3694 -1.37674e-17)
(2.21658 11.8182 0)
(1.63403 11.1444 0)
(1.11215 10.3729 4.43718e-18)
(0.664316 9.49679 2.01441e-16)
(0.317273 8.5365 0)
(0.0984622 7.5422 -2.62238e-16)
(0.0181287 6.55614 -3.4927e-16)
(0.072166 5.60096 4.50623e-16)
(0.247729 4.70194 -9.55461e-18)
(0.52719 3.88429 3.35036e-16)
(0.889982 3.16014 -1.51128e-17)
(1.31763 2.5262 1.36813e-15)
(1.79163 1.97725 1.31337e-15)
(2.29675 1.50841 -1.25361e-15)
(2.82125 1.11364 1.93011e-16)
(3.35642 0.786214 -3.60635e-16)
(3.89615 0.519463 1.68351e-16)
(4.43662 0.30708 1.0613e-15)
(4.97563 0.144336 1.40689e-16)
(5.51185 0.0283416 -1.21192e-16)
(6.04367 -0.0417106 -7.77435e-16)
(6.56651 -0.0655524 0)
(7.07114 -0.0451742 4.31086e-17)
(7.54961 0.0119191 1.23293e-15)
(8.00008 0.098719 -8.47534e-18)
(8.42318 0.210378 8.18906e-18)
(8.81959 0.342457 0)
(9.19077 0.490413 -1.89411e-16)
(9.53944 0.650564 0)
(9.86945 0.819716 0)
(10.1879 0.996257 8.90966e-16)
(10.501 1.18036 7.33749e-16)
(10.8288 1.3759 0)
(11.1683 1.59174 6.31131e-16)
(11.617 1.85333 -8.16637e-16)
(12.0607 2.21774 -1.00334e-18)
(13.1355 2.87017 -1.81152e-15)
(4.36834 12.5535 -4.64607e-18)
(4.94712 12.8602 1.11573e-17)
(5.59884 13.1355 -6.32624e-17)
(6.29532 13.3505 6.36058e-17)
(7.00511 13.4884 1.67422e-16)
(7.7411 13.5478 0)
(8.47681 13.5205 -3.5879e-16)
(9.19024 13.4046 3.48372e-17)
(9.87481 13.1975 -2.44367e-16)
(10.5119 12.904 -4.49651e-16)
(11.0851 12.5336 0)
(11.5818 12.0988 -8.2945e-16)
(11.9899 11.6168 -6.15299e-16)
(12.3032 11.106 -1.35061e-15)
(12.5233 10.587 0)
(12.6643 10.0843 -6.83527e-16)
(12.7606 9.62711 -6.46542e-16)
(12.8673 9.2461 6.22387e-16)
(13.0196 8.93511 -5.82826e-16)
(13.0953 8.56392 5.42641e-16)
(12.6122 7.81025 6.68526e-17)
(10.8224 6.35667 -6.23859e-16)
(7.4742 4.34034 0)
(3.57321 2.4719 -8.36486e-16)
(0.649197 1.33935 6.0378e-17)
(-0.967707 0.849763 5.06142e-16)
(-1.95503 0.639111 0)
(-2.67493 0.530771 -1.17673e-17)
(-3.23949 0.434983 2.95101e-17)
(-3.63989 0.297684 1.06103e-15)
(-3.75889 0.0873518 -8.33638e-16)
(-3.51577 -0.203497 -1.25167e-15)
(-2.7697 -0.540342 9.60795e-16)
(-1.40695 -0.886215 1.31829e-17)
(-0.0223662 -1.06968 1.18232e-15)
(1.55363 -1.05455 2.14685e-15)
(0.979112 -0.547426 2.628e-15)
(3.03377 -1.02016 -3.41411e-17)
(1.91356 -1.73104 9.01213e-18)
(3.83735 12.2057 -4.59046e-18)
(3.32603 11.8063 -1.29824e-17)
(2.80041 11.3047 7.83393e-18)
(2.27126 10.6937 8.75478e-18)
(1.79253 9.99885 -1.01263e-16)
(1.37373 9.21056 5.62242e-17)
(1.03835 8.3454 1.80036e-16)
(0.812279 7.4485 6.30445e-16)
(0.705416 6.55627 3.5161e-16)
(0.715382 5.68576 -4.12387e-16)
(0.832629 4.85902 -3.02845e-17)
(1.04367 4.09948 -3.36638e-16)
(1.3345 3.41443 0)
(1.6903 2.80176 -1.70891e-17)
(2.09564 2.26088 -7.63162e-16)
(2.53898 1.78948 3.60445e-16)
(3.00988 1.38435 -3.43316e-16)
(3.49979 1.04165 0)
(4.0021 0.75693 5.91896e-16)
(4.51197 0.52555 -1.10007e-15)
(5.02593 0.34391 0)
(5.54145 0.209548 9.03573e-16)
(6.05599 0.121456 0)
(6.56468 0.0793624 -4.43753e-17)
(7.05874 0.0813571 4.26626e-17)
(7.53019 0.12132 -5.70214e-16)
(7.97629 0.192785 -9.24647e-18)
(8.39695 0.290909 -7.58705e-18)
(8.79241 0.411214 3.01865e-18)
(9.16378 0.549181 -1.80057e-16)
(9.5134 0.701064 -3.04477e-16)
(9.84481 0.863655 4.99733e-16)
(10.1648 1.03526 1.43835e-17)
(10.4791 1.21619 7.83732e-18)
(10.8074 1.41017 0)
(11.1463 1.62737 6.5151e-18)
(11.5905 1.89157 3.8337e-16)
(12.0217 2.27116 8.342e-18)
(13.0386 2.92582 -1.48424e-15)
(4.75274 12.0062 -2.22364e-18)
(5.28089 12.2933 -1.81465e-17)
(5.87572 12.5552 0)
(6.51072 12.7641 -1.53116e-17)
(7.15599 12.9055 1.20156e-16)
(7.82681 12.9798 0)
(8.49964 12.9785 -1.3193e-16)
(9.15547 12.8996 9.30548e-16)
(9.78676 12.7436 -1.11613e-15)
(10.3781 12.5134 3.48125e-16)
(10.9171 12.2147 3.70184e-16)
(11.395 11.8558 1.10119e-15)
(11.8025 11.4495 7.00827e-16)
(12.1335 11.0099 7.19736e-16)
(12.3858 10.5524 1.66414e-16)
(12.5626 10.0921 4.90082e-16)
(12.6757 9.6432 6.15145e-16)
(12.7536 9.2245 5.68266e-16)
(12.8462 8.86027 -4.03701e-16)
(12.9889 8.54883 -1.1628e-15)
(13.0364 8.15379 0)
(12.4284 7.34106 5.88937e-18)
(10.3946 5.83647 5.18678e-16)
(6.90994 3.90285 6.43879e-16)
(3.22847 2.24918 -4.57806e-17)
(0.64238 1.2927 -4.3331e-16)
(-0.833719 0.866875 3.35951e-18)
(-1.77709 0.656659 -2.09091e-16)
(-2.47112 0.497398 1.91951e-17)
(-2.97794 0.302855 -2.03183e-15)
(-3.19995 0.0339633 -2.0886e-18)
(-3.06241 -0.316223 -1.94839e-17)
(-2.44144 -0.704983 -8.62712e-16)
(-1.2322 -1.07048 1.22048e-17)
(0.050821 -1.22988 -1.04163e-15)
(1.51457 -1.10075 -3.76835e-15)
(0.867867 -0.568963 2.23561e-15)
(2.82804 -1.03697 1.58618e-15)
(1.69548 -1.82495 -2.6516e-15)
(4.26706 11.6837 9.49892e-18)
(3.80003 11.3167 1.55702e-17)
(3.3176 10.8573 -4.70815e-18)
(2.82977 10.2986 -2.31016e-17)
(2.3858 9.66621 5.52651e-17)
(1.9922 8.94948 8.20973e-18)
(1.6695 8.16253 -5.35425e-16)
(1.44188 7.34651 -2.7794e-16)
(1.31847 6.53345 -2.12184e-17)
(1.29763 5.73666 0)
(1.37142 4.97609 -4.85088e-16)
(1.52938 4.27223 5.81423e-16)
(1.76165 3.62772 -6.52957e-16)
(2.05645 3.0413 -3.4054e-16)
(2.40133 2.51521 3.24674e-16)
(2.788 2.04835 3.12582e-16)
(3.20779 1.6397 1.2113e-15)
(3.65295 1.28756 -2.89671e-16)
(4.11703 0.989478 -5.41637e-16)
(4.59476 0.742481 0)
(5.08188 0.544192 -9.1121e-16)
(5.57495 0.392814 -7.33971e-16)
(6.07069 0.287531 -5.07318e-18)
(6.56393 0.22775 -8.75953e-17)
(7.04614 0.211793 -3.69845e-17)
(7.50929 0.234819 5.85171e-16)
(7.9499 0.290866 -1.46897e-17)
(8.36718 0.375207 1.22856e-16)
(8.76094 0.48339 2.67178e-17)
(9.13188 0.61099 1.62589e-16)
(9.48199 0.754223 -2.12423e-18)
(9.81446 0.909867 -9.77893e-16)
(10.1357 1.07619 -7.73304e-16)
(10.4511 1.25362 -6.26047e-16)
(10.7797 1.44576 -1.43602e-17)
(11.1177 1.66408 5.68395e-18)
(11.5565 1.9306 -4.23898e-16)
(11.9755 2.324 4.5523e-16)
(12.9327 2.97909 1.35843e-15)
(5.09001 11.5289 7.06946e-18)
(5.57336 11.7989 1.04323e-17)
(6.11801 12.049 8.43003e-17)
(6.69861 12.2524 -3.74091e-16)
(7.2868 12.3963 2.02079e-16)
(7.89919 12.4825 -2.34423e-16)
(8.51457 12.503 5.6425e-16)
(9.11597 12.4556 0)
(9.69917 12.3411 3.55817e-16)
(10.252 12.1596 -9.44194e-18)
(10.7637 11.9152 -3.31099e-16)
(11.2266 11.6145 -1.03162e-15)
(11.6319 11.2676 -3.53512e-16)
(11.9738 10.8861 0)
(12.25 10.4826 0)
(12.4611 10.0693 0)
(12.6118 9.65501 0)
(12.7117 9.24615 -5.42339e-16)
(12.7825 8.85319 5.16301e-16)
(12.869 8.499 4.92462e-16)
(12.9991 8.17846 -4.04464e-16)
(12.9765 7.73343 3.42086e-16)
(12.1474 6.81647 -3.74604e-16)
(9.81322 5.253 -3.08787e-17)
(6.27853 3.43169 -1.83704e-17)
(2.89454 2.00135 3.68003e-16)
(0.619111 1.21177 9.58715e-17)
(-0.71649 0.834141 0)
(-1.60585 0.586928 0)
(-2.25235 0.325747 -9.71638e-19)
(-2.60437 -0.00580748 0)
(-2.59096 -0.417926 1.12115e-15)
(-2.10914 -0.858857 -8.23084e-16)
(-1.05684 -1.24682 -1.13224e-15)
(0.107293 -1.38282 1.84759e-15)
(1.47771 -1.14055 1.69591e-15)
(0.798497 -0.593153 -1.9466e-15)
(2.62093 -1.05274 -2.84272e-15)
(1.48916 -1.90117 2.48715e-15)
(4.64458 11.2276 0)
(4.21642 10.8877 -5.87115e-18)
(3.7719 10.4634 1.42002e-18)
(3.32026 9.9482 -7.64728e-17)
(2.90714 9.36789 1.06899e-16)
(2.53671 8.71081 -1.1389e-16)
(2.22751 7.9893 -2.02852e-17)
(2.00207 7.24128 2.00738e-16)
(1.86901 6.49569 2.87227e-16)
(1.82664 5.76344 0)
(1.86801 5.0629 2.29499e-16)
(1.9852 4.41033 -8.01705e-16)
(2.17012 3.80576 1.45518e-15)
(2.41319 3.24868 2.89329e-16)
(2.70553 2.74193 -5.86459e-16)
(3.04114 2.28518 -5.71953e-16)
(3.41317 1.87868 -5.51049e-16)
(3.81507 1.52232 0)
(4.241 1.21524 0)
(4.68577 0.956067 0)
(5.14474 0.743648 8.46361e-16)
(5.61393 0.576982 0)
(6.08951 0.455608 -6.12346e-16)
(6.56607 0.378955 -8.1588e-17)
(7.03523 0.345717 -5.72587e-16)
(7.48884 0.352071 -5.15627e-16)
(7.92283 0.392731 0)
(8.33576 0.463135 -1.02192e-16)
(8.727 0.558949 -2.78448e-17)
(9.09685 0.675851 5.19694e-18)
(9.44691 0.81006 5.40926e-16)
(9.78001 0.958411 -3.84617e-18)
(10.1021 1.1191 7.4001e-16)
(10.4184 1.29274 -5.90126e-16)
(10.7469 1.48277 0)
(11.0838 1.70196 -6.13216e-18)
(11.5165 1.9705 -2.7854e-17)
(11.9236 2.37617 -4.31435e-16)
(12.82 3.03046 5.65008e-18)
(5.39781 11.1062 -3.84877e-18)
(5.84396 11.3608 0)
(6.34681 11.5993 -1.27718e-16)
(6.88217 11.7961 1.53951e-16)
(7.42297 11.9395 -9.70667e-17)
(7.98657 12.0327 2.23438e-16)
(8.55349 12.0678 -2.5471e-16)
(9.10866 12.0429 -2.58371e-16)
(9.64941 11.9595 0)
(10.1652 11.8171 -3.12617e-16)
(10.6475 11.6185 -2.90665e-16)
(11.0905 11.3679 2.78546e-16)
(11.4868 11.0729 8.71236e-16)
(11.8312 10.7423 2.91992e-16)
(12.121 10.3861 -8.31399e-16)
(12.3559 10.0148 -5.32775e-16)
(12.5386 9.63675 3.82354e-16)
(12.6736 9.25574 2.49781e-16)
(12.7663 8.87226 -1.19483e-16)
(12.8333 8.49448 1.15276e-16)
(12.9175 8.14556 2.79953e-16)
(13.0305 7.80798 5.30465e-17)
(12.8891 7.281 -5.31525e-17)
(11.7633 6.2355 -3.79998e-16)
(9.1495 4.63651 0)
(5.65971 2.95957 -2.80854e-16)
(2.60267 1.7529 -1.60787e-16)
(0.621227 1.09611 -1.67694e-16)
(-0.585399 0.716618 -6.11582e-16)
(-1.42175 0.372504 2.09476e-15)
(-1.93857 -0.0288296 7.47039e-16)
(-2.07323 -0.506924 2.29929e-17)
(-1.75105 -1.00153 -5.09019e-18)
(-0.862664 -1.41495 0)
(0.162832 -1.52923 -8.44911e-16)
(1.45051 -1.17757 0)
(0.766927 -0.618734 0)
(2.41487 -1.06545 1.3005e-15)
(1.28717 -1.95741 -1.46096e-17)
(4.98575 10.8238 9.27168e-18)
(4.59006 10.5073 -7.90534e-18)
(4.17746 10.1132 -5.03912e-18)
(3.75687 9.63502 8.7758e-18)
(3.37071 9.0987 -1.24307e-16)
(3.02139 8.49216 1.30522e-16)
(2.72556 7.82615 3.43715e-17)
(2.50466 7.13606 -1.89425e-16)
(2.36655 6.44847 -2.46933e-16)
(2.30924 5.77308 -3.15573e-16)
(2.32645 5.12645 -8.18192e-16)
(2.41199 4.52062 0)
(2.55861 3.95436 -5.12985e-16)
(2.75851 3.42779 -1.34775e-17)
(3.00567 2.94328 0)
(3.29591 2.5007 -4.99901e-16)
(3.62402 2.10098 -2.41392e-16)
(3.98483 1.74491 -2.36621e-16)
(4.37344 1.43292 8.86181e-16)
(4.78506 1.16496 8.31803e-16)
(5.2151 0.94104 -9.54756e-17)
(5.65933 0.76097 7.15134e-16)
(6.11363 0.62484 1.67521e-16)
(6.57241 0.532344 -7.62317e-17)
(7.02738 0.482576 5.06329e-16)
(7.47029 0.472686 3.15391e-17)
(7.89655 0.498122 0)
(8.30415 0.554566 0)
(8.69204 0.637845 -5.10388e-18)
(9.0601 0.743805 1.38144e-17)
(9.40953 0.868702 -5.24747e-16)
(9.74279 1.00944 -3.57985e-18)
(10.0654 1.16419 7.35761e-16)
(10.3821 1.33375 5.58535e-16)
(10.7104 1.52145 1.11187e-17)
(11.0459 1.7412 -4.42834e-18)
(11.4715 2.01147 8.38005e-16)
(11.867 2.42775 3.19011e-16)
(12.7021 3.07961 -4.87412e-18)
(5.67764 10.7291 -1.64021e-18)
(6.0916 10.9698 0)
(6.55833 11.1976 5.51865e-17)
(7.05456 11.3878 0)
(7.55433 11.5296 -1.65656e-16)
(8.0755 11.6273 1.67089e-16)
(8.59993 11.6733 1.98549e-16)
(9.11421 11.6661 2.46644e-16)
(9.61673 11.6071 0)
(10.0987 11.4961 -2.47597e-16)
(10.5536 11.3343 3.05731e-16)
(10.9771 11.1247 -5.68908e-16)
(11.3624 10.8731 -2.86168e-16)
(11.7051 10.586 -2.62809e-16)
(12.0023 10.2713 5.32158e-16)
(12.2528 9.93747 5.13844e-16)
(12.4583 9.59189 -4.93787e-16)
(12.6221 9.23914 -4.59622e-16)
(12.7465 8.87879 0)
(12.8335 8.50886 1.08542e-16)
(12.8973 8.13841 -2.08713e-16)
(12.9836 7.79125 4.94594e-17)
(13.0671 7.4178 -9.96483e-19)
(12.7464 6.77692 8.72021e-16)
(11.2894 5.60445 -5.28467e-17)
(8.45472 4.00808 3.1243e-17)
(5.09633 2.50745 1.34884e-16)
(2.39521 1.49952 1.65668e-16)
(0.677553 0.908067 5.29483e-16)
(-0.433011 0.452218 -1.05108e-15)
(-1.1614 -0.0301595 -7.65172e-16)
(-1.47559 -0.580309 -2.30126e-15)
(-1.34104 -1.13135 1.52266e-15)
(-0.633782 -1.57294 -1.87442e-17)
(0.233055 -1.66933 7.88759e-16)
(1.43885 -1.21416 -3.52737e-17)
(0.767606 -0.64347 2.20704e-17)
(2.21209 -1.07239 -2.40914e-17)
(1.08352 -1.99325 2.31762e-15)
(5.29465 10.4634 -6.94398e-18)
(4.92704 10.1671 1.91705e-18)
(4.54225 9.79913 6.53629e-18)
(4.1488 9.35298 0)
(3.78656 8.85445 7.53645e-17)
(3.4565 8.29124 0)
(3.1738 7.67298 0)
(2.95883 7.03271 0)
(2.81878 6.3956 4.99796e-16)
(2.75123 5.77065 -3.21143e-16)
(2.7507 5.17178 3.86735e-16)
(2.81148 4.60827 0)
(2.92687 4.07853 0)
(3.09107 3.58238 -4.6171e-16)
(3.29977 3.12171 0)
(3.55008 2.69614 4.59728e-16)
(3.83836 2.30664 1.01175e-17)
(4.16078 1.95468 0)
(4.51344 1.64148 -6.22297e-16)
(4.8923 1.36798 -9.71171e-16)
(5.29309 1.13517 -7.13942e-16)
(5.71162 0.94375 -6.67637e-16)
(6.14373 0.794388 1.21627e-15)
(6.58382 0.687192 0)
(7.02356 0.6218 4.74633e-16)
(7.45466 0.596297 4.88534e-16)
(7.87215 0.606813 2.06749e-16)
(8.27348 0.64939 0)
(8.65717 0.72007 -2.04641e-17)
(9.02272 0.814889 -1.43452e-16)
(9.37091 0.930227 4.94479e-16)
(9.70381 1.06307 -3.3184e-18)
(10.0265 1.21162 -6.70794e-16)
(10.3434 1.37682 5.19968e-16)
(10.6709 1.5619 3.88073e-18)
(11.0046 1.78186 1.01532e-17)
(11.4224 2.05361 -8.65871e-16)
(11.8061 2.47848 -2.9759e-16)
(12.5803 3.12646 -1.66071e-15)
(5.93434 10.3899 -2.84289e-18)
(6.32041 10.6181 6.70883e-18)
(6.75577 10.8358 0)
(7.21813 11.0192 1.03299e-16)
(7.68253 11.1584 0)
(8.16695 11.2585 0)
(8.65444 11.3124 6.35438e-19)
(9.13282 11.3185 1.98947e-16)
(9.60155 11.2783 4.43898e-16)
(10.0528 11.1925 1.00064e-15)
(10.4817 11.061 4.83624e-16)
(10.8852 10.8858 4.83497e-16)
(11.2577 10.671 0)
(11.5952 10.4216 7.22057e-16)
(11.8949 10.1435 -2.36147e-16)
(12.1553 9.84342 0)
(12.3768 9.52746 4.43143e-16)
(12.5616 9.20028 4.43203e-16)
(12.712 8.86297 0)
(12.828 8.51272 4.01655e-16)
(12.9083 8.14693 -3.89496e-16)
(12.9714 7.77922 0)
(13.0635 7.42384 -4.74493e-17)
(13.0866 6.98567 1.62738e-17)
(12.5317 6.21117 2.36343e-17)
(10.7418 4.93092 4.1181e-16)
(7.77159 3.3875 -5.05633e-19)
(4.64376 2.07435 -1.59753e-17)
(2.30217 1.19998 -1.6338e-17)
(0.783533 0.579465 3.23494e-17)
(-0.220747 -0.0035676 9.07007e-16)
(-0.757988 -0.633833 2.36156e-15)
(-0.847721 -1.24555 2.91949e-17)
(-0.35301 -1.71853 -9.63497e-16)
(0.333777 -1.80221 -7.06402e-16)
(1.44776 -1.25146 -1.24688e-15)
(0.795305 -0.664986 -1.3653e-15)
(2.01496 -1.07016 3.96632e-17)
(0.874274 -2.0089 -2.24512e-15)
(5.5765 10.139 6.98753e-18)
(5.23334 9.86064 -5.81117e-18)
(4.8729 9.5155 2.97561e-17)
(4.50347 9.09733 0)
(4.16253 8.63167 1.5413e-16)
(3.85013 8.10612 0)
(3.58015 7.52931 -1.49866e-16)
(3.37187 6.93241 7.16159e-16)
(3.23197 6.33977 -6.72045e-16)
(3.15762 5.75968 0)
(3.14394 5.20297 6.98341e-16)
(3.1853 4.67763 7.4589e-16)
(3.27541 4.18228 0)
(3.41022 3.71586 -7.99907e-16)
(3.58627 3.27961 2.06593e-16)
(3.8018 2.87277 -2.03169e-16)
(4.05438 2.49614 2.06329e-16)
(4.34135 2.15137 3.89683e-16)
(4.65992 1.84015 -2.59574e-18)
(5.00687 1.56413 5.24012e-16)
(5.3785 1.32509 1.73647e-16)
(5.77095 1.12448 -1.57031e-16)
(6.18024 0.963516 -5.70509e-16)
(6.60082 0.842919 5.18292e-16)
(7.02443 0.762953 -4.2001e-16)
(7.44272 0.722535 -4.90849e-16)
(7.85042 0.71855 -1.96242e-16)
(8.24456 0.747439 -2.63336e-18)
(8.62323 0.805519 2.20452e-17)
(8.98553 0.889089 1.36755e-16)
(9.33185 0.994669 1.40022e-18)
(9.66387 1.11938 -3.0538e-18)
(9.98618 1.26147 6.72595e-16)
(10.3027 1.42203 -5.29683e-16)
(10.6291 1.60427 1.05349e-17)
(10.9606 1.82406 -5.26924e-16)
(11.3698 2.09688 4.29137e-16)
(11.7416 2.52838 0)
(12.4556 3.17114 1.60646e-15)
(6.17078 10.0827 -2.3679e-18)
(6.53239 10.2994 0)
(6.94019 10.5077 0)
(7.37284 10.6844 -1.9964e-16)
(7.80628 10.8206 -4.98757e-18)
(8.25847 10.9218 0)
(8.71347 10.981 0)
(9.16007 10.9974 -7.18548e-16)
(9.59861 10.9721 -3.17086e-17)
(10.022 10.9065 -3.31966e-17)
(10.4268 10.7997 -1.14576e-15)
(10.8109 10.653 -2.49276e-16)
(11.1697 10.4692 4.4014e-16)
(11.4999 10.2522 -2.42467e-17)
(11.7988 10.0063 0)
(12.0646 9.7366 0)
(12.2971 9.44798 -1.25232e-15)
(12.4973 9.14447 -2.05302e-16)
(12.6669 8.82795 1.95898e-16)
(12.8069 8.49735 -3.87608e-16)
(12.9144 8.14823 7.42963e-16)
(12.9882 7.7801 3.58936e-16)
(13.0561 7.40866 -3.52738e-16)
(13.1472 7.02515 -4.01373e-16)
(13.0667 6.49405 6.6553e-17)
(12.234 5.57761 -3.93678e-16)
(10.1452 4.22862 -5.05827e-17)
(7.16488 2.78214 1.39269e-17)
(4.34741 1.62283 -1.49626e-17)
(2.31198 0.780332 5.90059e-17)
(0.946145 0.0611492 -7.12541e-18)
(0.125949 -0.662183 -1.30924e-15)
(-0.233849 -1.33998 -2.09745e-17)
(0.00190274 -1.84838 1.54579e-17)
(0.480999 -1.92572 0)
(1.4819 -1.28907 1.13722e-15)
(0.845981 -0.680687 1.22903e-15)
(1.82586 -1.05543 0)
(0.657681 -2.00444 0)
(5.83511 9.84521 0)
(5.51339 9.58272 8.32653e-18)
(5.17459 9.25777 -5.81223e-17)
(4.82657 8.8643 -5.06472e-17)
(4.50481 8.42754 -1.44908e-16)
(4.20857 7.93504 0)
(3.95076 7.39458 0)
(3.74966 6.83589 -3.37288e-16)
(3.61127 6.28283 4.31782e-16)
(3.53271 5.7424 0)
(3.50916 5.22316 -3.2071e-16)
(3.53516 4.73251 -3.53289e-16)
(3.60507 4.26914 3.55811e-16)
(3.71567 3.83114 3.78917e-16)
(3.86421 3.41918 -7.28038e-16)
(4.0496 3.03203 0)
(4.27042 2.6701 -1.82408e-16)
(4.52503 2.33498 7.90933e-19)
(4.81164 2.0285 8.50715e-16)
(5.12794 1.75268 -1.7397e-16)
(5.47093 1.50991 1.65887e-16)
(5.83726 1.30223 -1.40836e-16)
(6.22329 1.13144 1.99988e-16)
(6.62373 0.998861 -1.0375e-15)
(7.03042 0.905457 -3.92479e-16)
(7.435 0.850981 3.80973e-16)
(7.83198 0.833033 -2.41613e-17)
(8.21802 0.848531 0)
(8.59084 0.894129 -1.86557e-17)
(8.94916 0.966411 1.23775e-16)
(9.29297 1.06209 -2.19965e-16)
(9.62355 1.17845 3.87681e-16)