/*--------------------------------*- C++ -*----------------------------------*\
  =========                 |
  \\      /  F ield         | OpenFOAM: The Open Source CFD Toolbox
   \\    /   O peration     | Website:  https://openfoam.org
    \\  /    A nd           | Version:  9
     \\/     M anipulation  |
\*---------------------------------------------------------------------------*/
FoamFile
{
    format      ascii;
    class       volScalarField;
    location    "520";
    object      p;
}
// * * * * * * * * * * * * * * * * * * * * * * * * * * * * * * * * * * * * * //

dimensions      [0 2 -2 0 0 0 0];

internalField   nonuniform List<scalar> 
10720
(
-107.025
-117.12
-127.881
-134.76
-136.841
-137.404
-134.696
-128.145
-118.828
-107.002
-94.0173
-81.5443
-71.3439
-64.9064
-62.1028
-60.8305
-59.7262
-58.993
-58.6217
-58.5314
-58.7157
-59.2033
-59.9423
-60.8116
-61.7295
-62.6032
-63.3274
-63.8575
-64.1634
-64.1681
-63.768
-62.8199
-61.1731
-58.3471
-53.8339
-48.3736
-43.8067
-30.7235
-41.8932
-93.7595
-81.072
-63.3717
-43.7917
-23.3244
-2.80638
16.554
33.1284
46.0319
55.4564
61.7619
65.4486
67.0645
67.3903
66.8366
65.5345
63.7392
61.5985
59.1808
56.509
53.6064
50.4604
47.0751
43.477
39.8522
36.3558
32.9329
29.5759
26.3014
23.1262
20.021
16.9749
13.9376
10.8314
7.55056
3.86263
-0.450248
-6.4683
-15.7497
-54.1993
-63.5821
-72.6728
-80.4859
-86.7812
-91.2468
-92.9822
-92.262
-89.6518
-85.3589
-79.8416
-73.7959
-68.1715
-64.0443
-61.6357
-59.9561
-58.9601
-58.4869
-58.2233
-58.1727
-58.3775
-58.8888
-59.6652
-60.5726
-61.5093
-62.3894
-63.1216
-63.661
-63.9817
-64.0095
-63.6342
-62.7078
-61.0824
-58.284
-53.8064
-48.3409
-43.8875
-31.1113
-42.6283
-44.8997
-35.3642
-24.7287
-12.5968
0.401138
13.819
26.9166
38.7105
48.5047
56.0749
61.4468
64.8083
66.4718
66.9024
66.4245
65.249
63.5778
61.537
59.197
56.5916
53.7456
50.6579
47.3375
43.8168
40.2465
36.762
33.3361
29.9664
26.6725
23.4719
20.3382
17.2617
14.1946
11.061
7.75737
4.05467
-0.259657
-6.26994
-15.1706
-46.1439
-54.5703
-62.6797
-70.3569
-76.5421
-80.9302
-83.5639
-84.3119
-83.2013
-80.3952
-76.2162
-71.2906
-66.4821
-62.7007
-60.2712
-58.7578
-58.2755
-58.0265
-57.9122
-57.8875
-58.1128
-58.6534
-59.4633
-60.4055
-61.3623
-62.2507
-62.9903
-63.5353
-63.8636
-63.9072
-63.5515
-62.6425
-61.0315
-58.2555
-53.8214
-48.3108
-43.9301
-31.4387
-43.3964
-37.5726
-27.9517
-17.0592
-5.24391
6.88791
19.0088
30.5208
40.7449
49.2677
55.9477
60.7955
63.9336
65.6044
66.1462
65.8138
64.7937
63.255
61.3178
59.0591
56.5214
53.7325
50.7006
47.4376
43.9768
40.4428
36.9635
33.5388
30.1678
26.8693
23.6599
20.5157
17.427
14.348
11.2038
7.893
4.18928
-0.113918
-6.08744
-14.5844
-28.9392
-36.2641
-43.6589
-50.6372
-56.793
-61.9753
-66.0041
-68.6588
-69.8138
-69.5135
-67.9423
-65.4925
-62.7133
-60.1963
-58.3761
-57.4068
-57.4515
-57.6377
-57.648
-57.6241
-57.8848
-58.4714
-59.3157
-60.2824
-61.2506
-62.143
-62.8871
-63.4349
-63.7659
-63.8207
-63.4842
-62.5958
-61.0004
-58.244
-53.8615
-48.3066
-43.9924
-31.7399
-44.0703
-21.7622
-14.1247
-5.5822
3.94094
13.8318
23.8611
33.5304
42.2343
49.6082
55.5168
59.9245
62.88
64.5584
65.2096
65.0284
64.1699
62.7804
60.9715
58.8204
56.374
53.6636
50.7045
47.512
44.1206
40.6373
37.1814
33.7697
30.404
27.1036
23.8854
20.7292
17.6254
14.5307
11.3719
8.05032
4.34285
0.0512324
-5.8756
-13.9974
-21.0216
-27.7797
-34.6524
-41.3561
-47.4263
-52.7831
-57.16
-60.323
-62.1746
-62.7758
-62.2998
-61.0481
-59.4194
-57.8365
-56.652
-56.0701
-56.215
-56.6975
-57.1604
-57.4024
-57.7044
-58.3122
-59.2002
-60.1931
-61.1671
-62.0581
-62.8023
-63.3502
-63.681
-63.743
-63.4249
-62.5603
-60.9822
-58.2428
-53.9115
-48.3141
-44.0723
-32.0459
-44.6206
-14.3418
-7.26197
0.601247
9.19556
17.9751
26.8131
35.3214
42.9926
49.5336
54.8473
58.8921
61.6851
63.366
64.1196
64.0878
63.3975
62.1712
60.5084
58.483
56.1445
53.5273
50.6522
47.5385
44.2222
40.7966
37.3717
33.9777
30.6213
27.3225
24.0991
20.9343
17.8183
14.7108
11.5399
8.21026
4.5021
0.22728
-5.64099
-13.3986
-13.6197
-19.7252
-26.0547
-32.2621
-38.0099
-43.2723
-47.7998
-51.4464
-54.1269
-55.808
-56.5607
-56.5571
-56.0622
-55.396
-54.8673
-54.6661
-54.8734
-55.4104
-56.219
-57.0149
-57.6025
-58.2019
-59.0999
-60.1291
-61.1118
-61.9978
-62.7373
-63.2825
-63.6113
-63.6777
-63.376
-62.5355
-60.9759
-58.2512
-53.9687
-48.3288
-44.158
-32.3615
-45.0435
-7.63677
-1.37881
5.57699
13.2144
20.996
28.8431
36.4222
43.2776
49.1568
53.989
57.7277
60.3763
62.055
62.8988
63.0085
62.4854
61.4293
59.9251
58.0409
55.8265
53.3179
50.5402
47.5158
44.2822
40.9227
37.5386
34.1698
30.8292
27.5371
24.3124
21.1419
18.0159
14.8969
11.7153
8.37864
4.67161
0.417283
-5.38209
-12.7837
-8.53624
-14.1878
-20.0955
-25.9534
-31.4372
-36.5866
-41.1758
-45.0405
-48.1146
-50.3407
-51.772
-52.5409
-52.8356
-52.888
-52.935
-53.1351
-53.5526
-54.1806
-55.0963
-56.2703
-57.3747
-58.1722
-59.0344
-60.0734
-61.0782
-61.9619
-62.6935
-63.2324
-63.5571
-63.6258
-63.3387
-62.5224
-60.9824
-58.2705
-54.032
-48.3492
-44.2419
-32.6793
-45.3244
-3.01168
2.7154
9.06599
16.01
23.0457
30.1349
36.9924
43.2041
48.5533
52.9891
56.4633
58.983
60.6541
61.5719
61.8105
61.4479
60.5624
59.2243
57.4933
55.4165
53.0304
50.3627
47.4382
44.2953
41.0099
37.6763
34.341
31.0226
27.7427
24.5209
21.3479
18.2146
15.0862
11.8957
8.55392
4.85051
0.620596
-5.09814
-12.1551
-4.50732
-9.73653
-15.2543
-20.7532
-25.9462
-30.9149
-35.4416
-39.3886
-42.7243
-45.3774
-47.3601
-48.7608
-49.707
-50.3637
-50.9149
-51.5053
-52.2087
-53.03
-54.0212
-55.301
-56.8057
-58.0632
-59.0402
-60.0308
-61.0486
-61.9438
-62.668
-63.1981
-63.517
-63.5867
-63.3132
-62.5206
-61.001
-58.2998
-54.0997
-48.3731
-44.3175
-32.9962
-45.4674
0.593592
5.84181
11.6633
18.0238
24.447
30.9185
37.188
42.8741
47.7868
51.8864
55.1283
57.532
59.188
60.163
60.5146
60.3009
59.5812
58.4113
56.8411
54.9126
52.6611
50.1151
47.3011
44.2572
41.0548
37.7814
34.4881
31.1989
27.937
24.723
21.5514
18.4137
15.2785
12.0812
8.73623
5.0393
0.838189
-4.78917
-11.5109
-1.43432
-6.31553
-11.4986
-16.6911
-21.6232
-26.4049
-30.8379
-34.7947
-38.2618
-41.1681
-43.5065
-45.3446
-46.7719
-47.9046
-48.8788
-49.8174
-50.8022
-51.856
-52.9921
-54.3073
-55.9554
-57.6686
-59.0165
-60.0419
-61.0172
-61.9305
-62.6583
-63.1792
-63.4905
-63.5596
-63.2988
-62.5305
-61.033
-58.3412
-54.1711
-48.3982
-44.3788
-33.3034
-45.4472
3.31673
8.17655
13.5648
19.4449
25.3628
31.3249
37.107
42.357
46.9016
50.7098
53.7484
56.046
57.6783
58.6948
59.1418
59.0619
58.4987
57.4942
56.0879
54.3151
52.2079
49.7942
47.1003
44.1643
41.0534
37.8498
34.6075
31.3551
28.1175
24.9166
21.7506
18.6121
15.4728
12.2712
8.92549
5.23808
1.06991
-4.45479
-10.8538
0.968115
-3.60608
-8.48951
-13.4008
-18.0866
-22.6762
-26.9842
-30.8971
-34.4167
-37.4818
-40.0709
-42.2308
-44.024
-45.5346
-46.8622
-48.1049
-49.3422
-50.6157
-51.9394
-53.3499
-55.0151
-56.9625
-58.7744
-60.0561
-61.0138
-61.9063
-62.6524
-63.1718
-63.4756
-63.543
-63.2948
-62.5512
-61.0775
-58.3938
-54.2459
-48.4218
-44.4179
-33.5949
-45.2511
5.41529
9.93932
14.9578
20.4293
25.9209
31.4524
36.8228
41.7023
45.9307
49.4831
52.3435
54.5421
56.1421
57.1861
57.7111
57.7482
57.3291
56.4834
55.2399
53.6265
51.6706
49.3976
46.8328
44.0131
41.0022
37.878
34.6958
31.4879
28.2813
25.0994
21.9437
18.8084
15.6682
12.465
9.12127
5.447
1.31643
-4.09551
-10.1816
2.84426
-1.46188
-6.08045
-10.7399
-15.1992
-19.603
-23.7768
-27.6196
-31.1375
-34.2841
-37.0325
-39.4152
-41.4756
-43.276
-44.89
-46.3935
-47.8547
-49.3224
-50.827
-52.3866
-54.0897
-56.0809
-58.2196
-59.9272
-61.0293
-61.8888
-62.636
-63.1697
-63.4712
-63.5365
-63.3004
-62.5824
-61.1355
-58.4601
-54.3244
-48.4424
-44.4291
-33.8586
-44.8667
7.02611
11.2619
15.961
21.0815
26.2075
31.3694
36.3862
40.9465
44.8983
48.2255
50.9276
53.0324
54.5943
55.6529
56.2388
56.3762
56.0869
55.3899
54.3048
52.8512
51.0506
48.9249
46.4969
43.8009
40.8982
37.8626
34.7494
31.5942
28.426
25.2691
22.1289
19.0012
15.8637
12.6622
9.32342
5.66596
1.5773
-3.71159
-9.4978
4.3141
0.245553
-4.1354
-8.56664
-12.8172
-17.0423
-21.077
-24.8297
-28.3121
-31.4883
-34.333
-36.867
-39.1203
-41.1404
-42.9817
-44.7024
-46.3594
-47.9995
-49.6608
-51.3714
-53.168
-55.1555
-57.4072
-59.516
-60.958
-61.8877
-62.6098
-63.1578
-63.4706
-63.5377
-63.314
-62.6228
-61.2052
-58.5386
-54.4063
-48.4574
-44.4047
-34.0871
-44.3209
8.26199
12.2443
16.6652
21.4781
26.2863
31.1271
35.8353
40.1164
43.8224
46.951
49.5119
51.5266
53.0457
54.1075
54.7398
54.9609
54.7861
54.2259
53.2915
51.9949
50.351
48.3768
46.0914
43.5261
40.7391
37.8007
34.7654
31.6711
28.5485
25.4233
22.3042
19.1888
16.058
12.8618
9.53132
5.89493
1.85322
-3.30391
-8.80033
5.46244
1.60555
-2.56115
-6.78515
-10.8436
-14.8993
-18.7956
-22.4477
-25.8738
-29.043
-31.9357
-34.5655
-36.9521
-39.133
-41.1496
-43.0463
-44.8696
-46.6612
-48.4581
-50.2965
-52.2055
-54.2271
-56.4706
-58.8035
-60.6665
-61.8437
-62.5924
-63.1298
-63.4642
-63.5435
-63.3347
-62.6714
-61.2863
-58.6307
-54.492
-48.4661
-44.3399
-34.2674
-43.6246
9.20096
12.9607
17.1344
21.6765
26.2043
30.7627
35.1994
39.2318
42.7187
45.6713
48.1035
50.031
51.5042
52.5607
53.2257
53.5155
53.4398
53.0033
52.21
51.0648
49.5761
47.7552
45.6165
43.1876
40.523
37.6897
34.7409
31.7156
28.6462
25.5596
22.4674
19.3695
16.2501
13.063
9.74467
6.1336
2.14326
-2.87338
-8.09301
6.35393
2.687
-1.28469
-5.31913
-9.20018
-13.0961
-16.8571
-20.4034
-23.7605
-26.8968
-29.8022
-32.4859
-34.9601
-37.2543
-39.4022
-41.4373
-43.3969
-45.3175
-47.2322
-49.1759
-51.1829
-53.2707
-55.496
-57.8776
-60.0708
-61.6408
-62.5562
-63.096
-63.4385
-63.5443
-63.3583
-62.7256
-61.375
-58.7325
-54.5798
-48.4649
-44.2282
-34.3916
-42.8046
9.90469
13.4648
17.4194
21.7187
25.9978
30.3052
34.499
38.308
41.5985
44.3942
46.7078
48.5517
49.9766
51.0202
51.7068
52.051
52.0597
51.7332
51.0701
50.0687
48.7312
47.0632
45.0736
42.7852
40.2488
37.5278
34.6734
31.7252
28.7166
25.6755
22.6165
19.5418
16.4384
13.265
9.96269
6.38178
2.44805
-2.42112
-7.3739
7.03809
3.54395
-0.249916
-4.11028
-7.82761
-11.573
-15.2028
-18.6423
-21.9211
-25.0069
-27.8987
-30.6049
-33.131
-35.5015
-37.7432
-39.8829
-41.9505
-43.9769
-45.9914
-48.0241
-50.1077
-52.2619
-54.5002
-56.8559
-59.2025
-61.1705
-62.4206
-63.0532
-63.3977
-63.5287
-63.3787
-62.7827
-61.4697
-58.8433
-54.6682
-48.4531
-44.0664
-34.4478
-41.8688
10.419
13.7999
17.5562
21.6382
25.6939
29.7756
33.7512
37.3567
40.4711
43.1248
45.3282
47.0919
48.4675
49.4924
50.1908
50.5773
50.6566
50.4266
49.8816
49.0147
47.8226
46.3048
44.4648
42.3198
39.916
37.3134
34.5608
31.6972
28.757
25.7687
22.7494
19.7037
16.6216
13.4665
10.1848
6.63889
2.76631
-1.94883
-6.64722
7.55394
4.21775
0.587269
-3.11258
-6.6781
-10.2816
-13.7851
-17.1182
-20.3132
-23.3373
-26.1969
-28.9014
-31.4517
-33.868
-36.173
-38.3882
-40.5377
-42.6475
-44.7427
-46.8491
-48.9935
-51.1978
-53.4644
-55.7972
-58.1638
-60.3962
-62.0707
-62.9511
-63.3435
-63.4906
-63.3834
-62.8352
-61.5634
-58.9548
-54.7518
-48.4247
-43.8484
-34.4287
-40.8376
10.7803
13.9984
17.5758
21.4598
25.3136
29.1916
32.9685
36.3887
39.3433
41.8673
43.9679
45.6551
46.9805
47.9821
48.6846
49.1022
49.2399
49.0931
48.6539
47.9114
46.8571
45.485
43.7931
41.7925
39.5247
37.0457
34.4014
31.6297
28.7651
25.8368
22.864
19.8535
16.7983
13.6666
10.4103
6.90451
3.09855
-1.45774
-5.9113
7.93244
4.74123
1.26137
-2.28947
-5.71397
-9.18328
-12.566
-15.7943
-18.9027
-21.8593
-24.673
-27.3569
-29.9094
-32.3473
-34.6901
-36.9556
-39.1637
-41.3359
-43.4932
-45.6576
-47.8499
-50.089
-52.3786
-54.7072
-57.0504
-59.3809
-61.4231
-62.6973
-63.2519
-63.433
-63.3631
-62.8723
-61.6502
-59.0631
-54.8255
-48.377
-43.5722
-34.3246
-39.7175
11.0167
14.0869
17.5
21.204
24.8738
28.5652
32.1603
35.4113
38.2203
40.6248
42.6287
44.2425
45.5179
46.4931
47.1929
47.6328
47.8174
47.7419
47.3963
46.7672
45.8418
44.6094
43.0624
41.2059
39.076
36.7245
34.1941
31.5208
28.7389
25.8777
22.958
19.989
16.9667
13.8639
10.6382
7.17779
3.44291
-0.950417
-5.1706
8.19805
5.14044
1.80106
-1.61162
-4.90367
-8.24721
-11.5141
-14.6401
-17.6609
-20.5464
-23.3046
-25.9541
-28.4918
-30.9321
-33.2918
-35.5859
-37.8318
-40.047
-42.2487
-44.4553
-46.6832
-48.9456
-51.2466
-53.5745
-55.9001
-58.2292
-60.4783
-62.1846
-63.0568
-63.3415
-63.3128
-62.8777
-61.7144
-59.1544
-54.8783
-48.3003
-43.2313
-34.1284
-38.5235
11.1514
14.0853
17.3483
20.8857
24.3868
27.9076
31.3341
34.43
37.1064
39.3995
41.3124
42.856
44.0819
45.0282
45.7202
46.1744
46.3962
46.3806
46.117
45.5901
44.7841
43.6841
42.2772
40.5628
38.5712
36.35
33.938
31.3692
28.6764
25.8893
23.0297
20.1089
17.1255
14.0574
10.8677
7.45816
3.79981
-0.428152
-4.4241
8.37077
5.43741
2.22844
-1.05458
-4.2232
-7.44698
-10.6034
-13.6299
-16.5635
-19.3753
-22.0717
-24.6763
-27.1864
-29.6139
-31.9735
-34.2783
-36.5437
-38.7845
-41.0143
-43.2483
-45.499
-47.7749
-50.0774
-52.3973
-54.7115
-57.0151
-59.32
-61.3567
-62.6587
-63.1757
-63.2222
-62.8406
-61.7381
-59.215
-54.9
-48.1877
-42.8238
-33.8322
-37.2614
11.2028
14.011
17.1342
20.5186
23.8634
27.226
30.4967
33.4497
36.0039
38.193
40.0198
41.4963
42.6733
43.589
44.2692
44.7314
44.9817
45.016
44.8235
44.3878
43.6911
42.7151
41.4425
39.867
38.013
35.9235
33.6334
31.1738
28.5763
25.8697
23.0769
20.2108
17.2729
14.2453
11.0974
7.74429
4.16686
0.105791
-3.67676
8.46675
5.64901
2.56232
-0.599221
-3.65115
-6.76213
-9.81246
-12.7427
-15.59
-18.3265
-20.9565
-23.5088
-25.9809
-28.3837
-30.7298
-33.0306
-35.3
-37.551
-39.7943
-42.0416
-44.3026
-46.5822
-48.8782
-51.1811
-53.478
-55.7599
-58.0456
-60.2434
-61.962
-62.8528
-63.0598
-62.7447
-61.6974
-59.2147
-54.8721
-48.024
-42.3419
-33.4307
-35.943
11.1856
13.8769
16.8709
20.1122
23.3123
26.5285
29.6538
32.4741
34.9147
37.0064
38.7521
40.1641
41.2931
42.1773
42.8426
43.3075
43.579
43.654
43.5223
43.1673
42.5698
41.7089
40.5634
39.1222
37.4038
35.446
33.2802
30.9341
28.4372
25.8175
23.098
20.2933
17.4073
14.4268
11.3266
8.03548
4.5442
0.650166
-2.92773
8.49925
5.79005
2.81815
-0.228903
-3.1712
-6.17436
-9.12355
-11.9606
-14.7229
-17.3832
-19.9451
-22.4397
-24.866
-27.2342
-29.5557
-31.8401
-34.1004
-36.3478
-38.5913
-40.8394
-43.099
-45.372
-47.6538
-49.9327
-52.202
-54.4606
-56.712
-58.9379
-60.937
-62.2682
-62.7638
-62.5614
-61.5716
-59.1249
-54.7699
-47.7937
-41.7806
-32.9212
-34.5742
11.1122
13.6944
16.5671
19.6756
22.7408
25.82
28.8101
31.5068
33.841
35.841
37.5097
38.8602
39.9424
40.7942
41.4421
41.9052
42.1918
42.2996
42.2195
41.9353
41.4269
40.6718
39.6459
38.3333
36.747
34.9201
32.8797
30.6501
28.2583
25.7311
23.0912
20.3543
17.5268
14.5997
11.5533
8.32984
4.92879
1.20092
-2.18254
8.47926
5.87199
3.00855
0.0696977
-2.76833
-5.66947
-8.52141
-11.2682
-13.947
-16.5315
-19.0247
-21.4581
-23.8323
-26.1582
-28.4461
-30.7039
-32.9438
-35.176
-37.4077
-39.6451
-41.8925
-44.1493
-46.4085
-48.6569
-50.8896
-53.1148
-55.3316
-57.5268
-59.6366
-61.3418
-62.2356
-62.2375
-61.3257
-58.9121
-54.5537
-47.4711
-41.1307
-32.3022
-33.1626
10.9928
13.4724
16.2318
19.2151
22.1545
25.1061
27.9687
30.5494
32.7837
34.6973
36.2932
37.5846
38.6212
39.4405
40.0691
40.5271
40.8234
40.9572
40.9205
40.6976
40.2686
39.6099
38.6953
37.5047
36.0463
34.3481
32.433
30.322
28.0392
25.6094
23.055
20.3925
17.6301
14.7628
11.7767
8.62642
5.32054
1.75676
-1.44089
8.4161
5.90512
3.1442
0.308097
-2.43156
-5.23447
-7.99337
-10.6529
-13.2502
-15.7592
-18.1837
-20.5532
-22.8708
-25.1485
-27.3956
-29.6185
-31.8285
-34.0354
-36.2449
-38.4615
-40.6867
-42.9179
-45.1464
-47.3578
-49.547
-51.7273
-53.9026
-56.0528
-58.1577
-60.0719
-61.3728
-61.6897
-60.9105
-58.5406
-54.1763
-47.026
-40.382
-31.5711
-31.7183
10.8354
13.2191
15.8712
18.7376
21.5587
24.3892
27.1327
29.6047
31.7444
33.5762
35.1027
36.3376
37.33
38.117
38.725
39.1748
39.4766
39.6304
39.6296
39.4595
39.1008
38.5294
37.7174
36.6418
35.306
33.7332
31.9425
29.951
27.7799
25.4519
22.9885
20.4061
17.7152
14.9141
11.9946
8.92282
5.71573
2.31332
-0.708459
8.3173
5.89737
3.23407
0.4957
-2.14975
-4.85944
-7.52857
-10.1036
-12.6213
-15.056
-17.4118
-19.7158
-21.9736
-24.1984
-26.3989
-28.5803
-30.7528
-32.9256
-35.1039
-37.2903
-39.4845
-41.6817
-43.8716
-46.0388
-48.1781
-50.3047
-52.4267
-54.5247
-56.5761
-58.5337
-60.1224
-60.8136
-60.2524
-57.9608
-53.5935
-46.42
-39.5187
-30.7254
-30.2573
10.6476
12.9402
15.4919
18.2472
20.9569
23.6733
26.3039
28.6736
30.724
32.4781
33.9386
35.1194
36.0688
36.8236
37.4102
37.8499
38.1534
38.3222
38.3508
38.226
37.9289
37.4357
36.7178
35.7497
34.5304
33.0789
31.4104
29.5384
27.4809
25.2582
22.8904
20.3942
17.7808
15.0526
12.2059
9.21812
6.11391
2.86937
0.0148238
8.18941
5.85634
3.28575
0.640737
-1.91505
-4.53473
-7.11757
-9.61093
-12.0508
-14.4122
-16.6993
-18.9368
-21.1329
-23.3015
-25.451
-27.5855
-29.7143
-31.8458
-33.985
-36.1331
-38.2884
-40.4438
-42.5878
-44.7037
-46.7868
-48.8526
-50.9106
-52.945
-54.9264
-56.8277
-58.5207
-59.5309
-59.264
-57.1159
-52.7706
-45.616
-38.5168
-29.7665
-28.8001
10.435
12.6419
15.0976
17.7485
20.3524
22.9598
25.4846
27.7581
29.7236
31.4034
32.801
33.9299
34.8378
35.5609
36.1255
36.5534
36.8558
37.0353
37.0876
37.0009
36.7576
36.3342
35.7019
34.8334
33.7242
32.3891
30.8398
29.0862
27.1433
25.0286
22.7604
20.3553
17.8255
15.1761
12.4081
9.5094
6.51095
3.42034
0.723216
8.03789
5.78743
3.30568
0.749858
-1.71957
-4.25336
-6.7527
-9.16658
-11.5307
-13.82
-16.0387
-18.2095
-20.3424
-22.452
-24.547
-26.6304
-28.7103
-30.7949
-32.8883
-34.9913
-37.1003
-39.2071
-41.2985
-43.3569
-45.3774
-47.376
-49.3616
-51.3195
-53.2194
-55.0241
-56.67
-57.8389
-57.8681
-55.9429
-51.6747
-44.5881
-37.3556
-28.7034
-27.3642
10.2031
12.3282
14.6933
17.2441
19.7478
22.2526
24.6762
26.8586
28.7433
30.3525
31.6898
32.7692
33.637
34.329
34.8715
35.2861
35.5849
35.7714
35.8426
35.788
35.5913
35.2296
34.6747
33.898
32.8919
31.6677
30.2338
28.5967
26.7682
24.7632
22.5983
20.289
17.8482
15.2836
12.6004
9.79553
6.90627
3.96488
1.41658
7.86761
5.69619
3.29933
0.829146
-1.55773
-4.0081
-6.42699
-8.764
-11.0539
-13.2723
-15.4232
-17.528
-19.5971
-21.6455
-23.6829
-25.7117
-27.7386
-29.7712
-31.8135
-33.8654
-35.922
-37.9739
-40.0067
-42.0015
-43.9535
-45.8792
-47.7858
-49.6577
-51.4635
-53.1571
-54.6776
-55.827
-56.0481
-54.3914
-50.2835
-43.3276
-36.0255
-27.5506
-25.9609
9.95584
12.0033
14.2815
16.7378
19.1458
21.5522
23.8806
25.9763
27.7839
29.3256
30.6054
31.6371
32.4661
33.1279
33.648
34.0486
34.3421
34.5326
34.6185
34.5905
34.4337
34.1265
33.6411
32.9484
32.0385
30.9192
29.596
28.0727
26.3578
24.4635
22.4042
20.1945
17.8476
15.3731
12.7801
10.0733
7.29532
4.49858
2.08943
7.68244
5.5866
3.2714
0.883624
-1.42347
-3.79392
-6.13462
-8.39679
-10.6144
-12.7632
-14.8471
-16.8871
-18.8919
-20.8776
-22.855
-24.8263
-26.7969
-28.7735
-30.76
-32.7558
-34.755
-36.7465
-38.7153
-40.6415
-42.5198
-44.367
-46.1892
-47.9681
-49.67
-51.2432
-52.6133
-53.6254
-53.8761
-52.4541
-48.5903
-41.8469
-34.5472
-26.3212
-24.5962
9.69712
11.6702
13.8661
16.2311
18.5482
20.8618
23.0985
25.1115
26.8456
28.3228
29.5475
30.5335
31.3254
31.9574
32.4556
32.8414
33.128
33.3202
33.4171
33.4111
33.2883
33.0289
32.6056
31.9894
31.1683
30.1477
28.9303
27.5172
25.914
24.1304
22.1786
20.0717
17.823
15.4439
12.9462
10.3417
7.67736
5.01998
2.74167
7.48596
5.46285
3.22591
0.917634
-1.31296
-3.60554
-5.87059
-8.06014
-10.2069
-12.2876
-14.3053
-16.2811
-18.2217
-20.1438
-22.0598
-23.9714
-25.8831
-27.8006
-29.7275
-31.6628
-33.6
-35.5268
-37.4271
-39.2803
-41.0808
-42.8448
-44.5779
-46.2589
-47.8511
-49.298
-50.5143
-51.3464
-51.4914
-50.1964
-46.6165
-40.179
-32.9567
-25.0291
-23.2785
9.42999
11.3322
13.4484
15.727
17.9569
20.181
22.3312
24.2651
25.9289
27.3443
28.5162
29.4583
30.2143
30.8178
31.2939
31.6647
31.9432
32.1349
32.2401
32.2519
32.1582
31.9402
31.5721
31.0252
30.286
29.3575
28.2404
26.9335
25.4396
23.7659
21.9223
19.9208
17.7739
15.4942
13.0963
10.5974
8.0476
5.52485
3.3682
7.28098
5.32757
3.16645
0.93476
-1.22144
-3.43914
-5.63053
-7.749
-9.82682
-11.8405
-13.7931
-15.7053
-17.5818
-19.4402
-21.2938
-23.1443
-24.995
-26.8508
-28.7153
-30.5869
-32.4584
-34.3166
-36.1447
-37.9213
-39.6404
-41.3179
-42.9581
-44.5383
-46.018
-47.3363
-48.4021
-49.0556
-49.0356
-47.7506
-44.4267
-38.3782
-31.3206
-23.7087
-22.0118
9.15723
10.991
13.0316
15.2265
17.3732
19.5127
21.5791
23.4371
25.0337
26.3899
27.5112
28.4114
29.1328
29.7084
30.1632
30.5187
30.7883
30.9779
31.0886
31.1149
31.0457
30.8637
30.5445
30.06
29.3957
28.5529
27.5304
26.325
24.9372
23.3718
21.6366
19.742
17.6999
15.5235
13.2294
10.8392
8.40519
6.01196
3.96925
7.07015
5.18418
3.09583
0.93839
-1.14624
-3.29069
-5.41061
-7.46009
-9.47015
-11.4182
-13.3066
-15.1557
-16.9685
-18.7632
-20.5538
-22.3421
-24.1306
-25.9232
-27.7228
-29.5279
-31.3309
-33.1177
-34.8706
-36.5679
-38.2031
-39.7915
-41.3367
-42.8143
-44.1813
-45.3734
-46.2958
-46.7879
-46.6045
-45.267
-42.131
-36.5108
-29.7208
-22.43
-20.8134
8.88099
10.6494
12.6164
14.7321
16.7987
18.8562
20.8432
22.6286
24.1606
25.4601
26.5327
27.3925
28.0806
28.6294
29.0632
29.4035
29.6635
29.8497
29.964
30.0017
29.9531
29.8021
29.526
29.0975
28.5016
27.7381
26.8043
25.6954
24.41
22.9506
21.3231
19.5361
17.6007
15.5305
13.3432
11.0638
8.74578
6.4772
4.54022
6.85552
5.0344
3.0168
0.931149
-1.08375
-3.15761
-5.20776
-7.18971
-9.13373
-11.0172
-12.8424
-14.6291
-16.3788
-18.1101
-19.8374
-21.5629
-23.2882
-25.0162
-26.7495
-28.4863
-30.2186
-31.9317
-33.6072
-35.2233
-36.773
-38.2713
-39.7204
-41.0952
-42.3514
-43.4222
-44.2118
-44.5639
-44.246
-42.8555
-39.8601
-34.6543
-28.242
-21.2854
-19.7251
8.60337
10.3086
12.2057
14.244
16.2343
18.2138
20.1235
21.8391
23.3093
24.5544
25.5805
26.4015
27.0578
27.5805
27.9939
28.319
28.5691
28.751
28.8669
28.9136
28.882
28.758
28.5197
28.1413
27.6074
26.9169
26.0659
25.0483
23.861
22.5047
20.9834
19.3041
17.4768
15.515
13.4371
11.2703
9.06827
6.91954
5.0816
6.63909
4.88087
2.93144
0.91552
-1.03205
-3.03666
-5.01899
-6.93516
-8.81431
-10.6345
-12.3976
-14.1225
-15.8102
-17.479
-19.1427
-20.8048
-22.4663
-24.129
-25.795
-27.4621
-29.1223
-30.7603
-32.3571
-33.8909
-35.3545
-36.7623
-38.1159
-39.3893
-40.538
-41.495
-42.1648
-42.3995
-41.9818
-40.5693
-37.7184
-32.8905
-26.9384
-20.365
-18.8127
8.32595
9.97046
11.7994
13.7645
15.6807
17.5846
19.4213
21.0696
22.4803
23.6733
24.6546
25.4383
26.0637
26.5616
26.9551
27.2653
27.5051
27.6817
27.7982
27.8516
27.8344
27.7332
27.5281
27.1944
26.7167
26.093
25.319
24.3873
23.2937
22.0371
20.6198
19.0472
17.3283
15.476
13.5091
11.4557
9.36889
7.33541
5.58949
6.42226
4.72473
2.84177
0.893485
-0.988265
-2.92607
-4.84199
-6.6937
-8.50942
-10.2674
-11.9695
-13.6335
-15.2606
-16.8673
-18.4677
-20.0663
-21.6637
-23.2609
-24.8588
-26.4557
-28.0429
-29.6049
-31.1225
-32.5737
-33.9516
-35.2699
-36.5295
-37.7045
-38.7506
-39.6025
-40.167
-40.3069
-39.8231
-38.4235
-35.7538
-31.2926
-25.8374
-19.7231
-18.1399
8.05031
9.63601
11.4
13.2933
15.1385
16.9707
18.7362
20.3198
21.6733
22.8161
23.7544
24.5024
25.0984
25.5721
25.9465
26.242
26.4715
26.6425
26.7581
26.8166
26.811
26.7296
26.5535
26.2595
25.8326
25.2701
24.5672
23.7161
22.7113
21.5504
20.2343
18.7669
17.1561
15.4139
13.5588
11.6194
9.64666
7.72404
6.06486
6.2066
4.56809
2.7493
0.866856
-0.95121
-2.82334
-4.6747
-6.46352
-8.21703
-9.91403
-11.5561
-13.1603
-14.7277
-16.2731
-17.8107
-19.3459
-20.8794
-22.4108
-23.9409
-25.4673
-26.9812
-28.4672
-29.9057
-31.2751
-32.5682
-33.7988
-34.9673
-36.048
-36.9978
-37.7542
-38.2286
-38.2955
-37.7769
-36.4204
-33.9663
-29.9005
-24.9418
-19.3704
-17.763
7.77753
9.30665
11.0071
12.8322
14.6085
16.3708
18.069
19.5903
20.8885
21.9831
22.8802
23.5938
24.1615
24.6122
24.9681
25.2492
25.4685
25.6333
25.7473
25.8092
25.8132
25.7485
25.5978
25.3391
24.9579
24.4512
23.8139
23.0379
22.117
21.0476
19.8294
18.465
16.9608
15.3282
13.5848
11.7587
9.89842
8.08235
6.50441
5.99307
4.41162
2.65551
0.837091
-0.918626
-2.72721
-4.51525
-6.24243
-7.93516
-9.57231
-11.1554
-12.7008
-14.2095
-15.6946
-17.1702
-18.6427
-20.1124
-21.5785
-23.0409
-24.4971
-25.9382
-27.3487
-28.709
-29.9977
-31.2082
-32.3537
-33.4348
-34.4264
-35.2872
-35.9583
-36.3578
-36.3718
-35.8459
-34.559
-32.3357
-28.7112
-24.2447
-19.2699
-17.6979
7.50883
8.983
10.6228
12.3809
14.0911
15.7868
17.4194
18.8806
20.1258
21.174
22.0315
22.7123
23.2528
23.6813
24.0194
24.2867
24.4958
24.6541
24.7658
24.83
24.8417
24.7913
24.6627
24.4353
24.0952
23.6392
23.0623
22.356
21.514
20.5316
19.4075
18.1431
16.7437
15.2195
13.5871
11.8732
10.1235
8.41012
6.90943
5.78288
4.25702
2.5615
0.805499
-0.889749
-2.63585
-4.36222
-6.02923
-7.66221
-9.24071
-10.7659
-12.2535
-13.7045
-15.1303
-16.5449
-17.9554
-19.3621
-20.7636
-22.159
-23.5457
-24.9148
-26.2507
-27.5344
-28.7445
-29.8749
-30.9388
-31.937
-32.8454
-33.6251
-34.2218
-34.5605
-34.5398
-34.0294
-32.8361
-30.8438
-27.6884
-23.7257
-19.3582
-17.9238
7.24499
8.6662
10.2465
11.9409
13.5868
15.2176
16.7879
18.1912
19.3852
20.3887
21.2082
21.8574
22.372
22.7792
23.1002
23.354
23.5531
23.7049
23.8137
23.8793
23.8972
23.8589
23.7495
23.5499
23.2467
22.8368
22.3152
21.6736
20.9053
20.0052
18.9711
17.8033
16.506
15.0881
13.565
11.9614
10.3195
8.70489
7.27734
5.57666
4.10462
2.4684
0.773169
-0.862851
-2.54839
-4.21431
-5.82228
-7.39683
-8.9178
-10.3862
-11.8171
-13.2113
-14.5788
-15.9337
-17.2831
-18.6279
-19.9657
-21.2951
-22.6134
-23.9118
-25.1749
-26.3838
-27.5179
-28.5714
-29.5579
-30.4781
-31.3097
-32.0166
-32.5493
-32.8408
-32.8016
-32.3242
-31.2444
-29.4785
-26.785
-23.3524
-19.5603
-18.3655
6.98684
8.35657
9.8799
11.5117
13.0959
14.6649
16.1741
17.5217
18.6665
19.6271
20.41
21.029
21.5185
21.9054
22.2101
22.451
22.6403
22.7856
22.8912
22.9572
22.9801
22.9519
22.8594
22.6844
22.4143
22.0462
21.5752
20.9934
20.2938
19.4712
18.5226
17.4476
16.249
14.9348
13.5186
12.023
10.4863
8.96688
7.60979
5.37533
3.95576
2.37694
0.74104
-0.837492
-2.46338
-4.07036
-5.62067
-7.13791
-8.6025
-10.0153
-11.3905
-12.729
-14.0394
-15.3357
-16.6253
-17.909
-19.1845
-20.4494
-21.7007
-22.9301
-24.1223
-25.2589
-26.32
-27.3005
-28.2139
-29.0617
-29.8232
-30.4655
-30.9443
-31.2006
-31.1569
-30.7253
-29.7726
-28.23
-25.9612
-23.0816
-19.8179
-18.9269
6.73494
8.05497
9.52248
11.0946
12.6188
14.1273
15.5786
16.8723
17.9696
18.8889
19.6367
20.2267
20.6924
21.0598
21.3487
21.5773
21.7571
21.8959
21.998
22.0639
22.0906
22.0711
21.9933
21.8401
21.5997
21.2694
20.8447
20.3178
19.6821
18.9322
18.0645
17.0779
15.9743
14.7603
13.4479
12.0573
10.6223
9.19447
7.90478
5.17928
3.81055
2.28793
0.709844
-0.812314
-2.38038
-3.92949
-5.42329
-6.88449
-8.29386
-9.65203
-10.9728
-12.2565
-13.5114
-14.7507
-15.9815
-17.2056
-18.4198
-19.6218
-20.808
-21.9704
-23.094
-24.1612
-25.1528
-26.0643
-26.9094
-27.6904
-28.3886
-28.9744
-29.4085
-29.6402
-29.6031
-29.2264
-28.4068
-27.0853
-25.1915
-22.8595
-20.0866
-19.4953
6.48995
7.7616
9.17569
10.6889
12.1556
13.6065
15.0008
16.2426
17.2942
18.1738
18.8879
19.4502
19.8931
20.2419
20.5158
20.7325
20.9033
21.0356
21.134
21.1994
21.2291
21.2169
21.1518
21.0179
20.8042
20.5082
20.1256
19.6493
19.0728
18.3906
17.599
16.6962
15.6834
14.5658
13.3536
12.0644
10.7278
9.38823
8.16428
4.98924
3.6701
2.20188
0.680243
-0.787176
-2.29832
-3.791
-5.2296
-6.63579
-7.99106
-9.29582
-10.5632
-11.7935
-12.9943
-14.178
-15.3515
-16.5171
-17.6718
-18.8125
-19.9356
-21.0333
-22.0911
-23.092
-24.0176
-24.8644
-25.6463
-26.3662
-27.0075
-27.5442
-27.9421
-28.1579
-28.1364
-27.8201
-27.1327
-26.0277
-24.461
-22.6289
-20.3313
-19.9845
6.25219
7.4771
8.83869
10.2959
11.7065
13.1008
14.441
15.6327
16.6403
17.4817
18.1635
18.6991
19.1203
19.4513
19.711
19.9162
20.0783
20.2044
20.2991
20.3635
20.3955
20.3895
20.3354
20.2187
20.0289
19.7639
19.4198
18.9898
18.4678
17.8486
17.1283
16.3046
15.378
14.3523
13.2362
12.0444
10.8023
9.54747
8.38693
4.80537
3.53432
2.11942
0.652755
-0.760993
-2.21695
-3.65426
-5.03874
-6.39126
-7.69359
-8.9461
-10.1613
-11.3394
-12.4877
-13.6172
-14.7349
-15.8436
-16.9404
-18.0217
-19.0839
-20.1193
-21.1141
-22.052
-22.9156
-23.702
-24.4255
-25.0899
-25.6807
-26.1751
-26.5439
-26.7509
-26.751
-26.4981
-25.9369
-25.0375
-23.7594
-22.3491
-20.5187
-20.3322
6.02212
7.20145
8.51274
9.91462
11.2714
12.6118
13.8988
15.0422
16.0073
16.812
17.4629
17.9732
18.3735
18.6876
18.9337
19.1281
19.2818
19.4019
19.4929
19.556
19.5897
19.5889
19.5445
19.443
19.2747
19.0376
18.7285
18.341
17.8693
17.3084
16.6545
15.905
15.0596
14.1212
13.0966
11.998
10.8465
9.67313
8.57489
4.62821
3.4041
2.04083
0.627833
-0.733728
-2.13542
-3.51882
-4.85047
-6.15033
-7.40087
-8.60227
-9.7666
-10.8937
-11.9908
-13.0678
-14.1313
-15.1848
-16.2254
-17.2494
-18.253
-19.2287
-20.1636
-21.0419
-21.8474
-22.5776
-23.2476
-23.8619
-24.4078
-24.866
-25.2118
-25.4152
-25.4404
-25.2511
-24.807
-24.0959
-23.0752
-22.0014
-20.6119
-20.5193
5.79985
6.93517
8.19694
9.5462
10.8504
12.138
13.3744
14.4712
15.3954
16.1648
16.7859
17.2718
17.6524
17.9503
18.1835
18.3676
18.5134
18.6276
18.7149
18.7767
18.8115
18.8152
18.7792
18.6911
18.5421
18.3303
18.0531
17.7044
17.2788
16.7717
16.1794
15.4991
14.73
13.8739
12.9359
11.9258
10.8606
9.76535
8.72747
4.45777
3.2792
1.96655
0.605859
-0.704633
-2.05369
-3.38422
-4.66412
-5.91263
-7.11256
-8.26407
-9.37869
-10.4562
-11.5035
-12.5294
-13.5403
-14.5404
-15.5268
-16.4956
-17.4429
-18.3617
-19.2397
-20.0619
-20.8129
-21.4913
-22.1124
-22.6815
-23.1878
-23.6149
-23.9424
-24.1459
-24.1975
-24.0694
-23.7318
-23.1864
-22.3947
-21.5838
-20.5783
-20.539
5.58572
6.67802
7.89244
9.18954
10.4433
11.6806
12.8672
13.919
14.8038
15.5393
16.1319
16.5946
16.9562
17.2389
17.4599
17.6343
17.7724
17.8811
17.9647
18.025
18.0607
18.0681
18.0395
17.9634
17.8316
17.6427
17.3943
17.081
16.6977
16.2402
15.7048
15.0887
14.3907
13.6117
12.7554
11.829
10.8458
9.82544
8.847
4.29442
3.16035
1.8967
0.587093
-0.673801
-1.97109
-3.25016
-4.47962
-5.67785
-6.82836
-7.93116
-8.99731
-10.0265
-11.0254
-12.0018
-12.9619
-13.9104
-14.8445
-15.7603
-16.6537
-17.5183
-18.3423
-19.1118
-19.8119
-20.4429
-21.0192
-21.5476
-22.0187
-22.4189
-22.7316
-22.9376
-23.0147
-22.9432
-22.7006
-22.2967
-21.704
-21.1005
-20.403
-20.4018
5.37964
6.43038
7.59809
8.84567
10.0502
11.2381
12.3775
13.3858
14.2327
14.9355
15.5008
15.9412
16.2849
16.553
16.7622
16.9275
17.0585
17.1618
17.2419
17.3005
17.3368
17.3474
17.3252
17.2597
17.1434
16.9751
16.7529
16.4718