/*--------------------------------*- C++ -*----------------------------------*\
  =========                 |
  \\      /  F ield         | OpenFOAM: The Open Source CFD Toolbox
   \\    /   O peration     | Website:  https://openfoam.org
    \\  /    A nd           | Version:  9
     \\/     M anipulation  |
\*---------------------------------------------------------------------------*/
FoamFile
{
    format      ascii;
    class       surfaceScalarField;
    location    "520";
    object      phi;
}
// * * * * * * * * * * * * * * * * * * * * * * * * * * * * * * * * * * * * * //

dimensions      [0 3 -1 0 0 0 0];

internalField   nonuniform List<scalar> 
21254
(
-0.15009
0.153269
-0.00318028
0.157078
-0.00380867
0.15794
-0.000862706
0.156765
0.00117581
0.153743
0.00302234
0.147396
0.00634681
0.138038
0.00935757
0.125935
0.0121016
0.110559
0.0153754
0.0923634
0.0181949
0.0715274
0.0208345
0.0485911
0.0229345
0.0251479
0.0234414
0.00406413
0.0210828
-0.011884
0.0159479
-0.0210309
0.00914574
-0.0250519
0.00401674
-0.0276855
0.00262482
-0.0292761
0.00158252
-0.0305081
0.0012241
-0.0320165
0.00150358
-0.0343268
0.00230286
-0.0373784
0.00306091
-0.0407532
0.0033864
-0.0441761
0.00343396
-0.0474946
0.00332699
-0.0505231
0.00303277
-0.053171
0.00265558
-0.0554124
0.00224394
-0.0571993
0.00178162
-0.0583498
0.00113155
-0.0584455
0.000167386
-0.0573275
-0.00111113
-0.054888
-0.00247802
-0.0505683
-0.00425527
-0.0423147
-0.00823239
-0.0397282
-0.0025608
-0.0163436
-0.0235073
0.0434528
-0.0616563
-0.144381
-0.0057085
-0.138682
-0.00570099
-0.130004
-0.00867775
-0.119368
-0.0106358
-0.107313
-0.0120547
-0.0937349
-0.0135789
-0.0789946
-0.0147406
-0.0640228
-0.0149722
-0.049628
-0.0143953
-0.0360794
-0.0135491
-0.0237375
-0.0123426
-0.0127038
-0.0110348
-0.00285696
-0.00984878
0.00593785
-0.00879726
0.0138155
-0.00787974
0.0208864
-0.0070727
0.0273233
-0.00643871
0.0332322
-0.00591091
0.0387404
-0.00551006
0.0439405
-0.00520245
0.0489286
-0.00498992
0.0537471
-0.00482053
0.058411
-0.00466338
0.0627473
-0.00433424
0.06668
-0.00393003
0.0702873
-0.00360509
0.0735668
-0.00327947
0.0765576
-0.00299273
0.0792723
-0.00272444
0.081768
-0.00248426
0.0840512
-0.00228121
0.0861809
-0.00212794
0.0882158
-0.00203192
0.0902463
-0.00202781
0.0923951
-0.00214247
0.0948304
-0.00241449
0.0979722
-0.00314608
0.102761
-0.0051245
0.116645
-0.0134573
-0.14226
0.148399
-0.00932053
0.154281
-0.00969052
0.159857
-0.00643865
0.16474
-0.00370708
0.169353
-0.00159072
0.173041
0.00265818
0.175315
0.00708268
0.175607
0.0118092
0.173005
0.0179764
0.166664
0.0245351
0.155465
0.0320319
0.13826
0.040139
0.114252
0.0474487
0.0833801
0.0519535
0.0482317
0.0510961
0.0144385
0.0429384
-0.00978067
0.0282337
-0.0223616
0.0152012
-0.0288279
0.00804393
-0.0328693
0.00525967
-0.0361613
0.00479089
-0.0395098
0.00564686
-0.0428912
0.00644995
-0.0461239
0.00663252
-0.0491507
0.00647536
-0.0519229
0.00611078
-0.0543695
0.00548748
-0.0564455
0.00473897
-0.0580831
0.00388446
-0.0592202
0.00291292
-0.0597911
0.00168048
-0.0596514
8.87071e-05
-0.0584874
-0.00225749
-0.0557853
-0.00518776
-0.0508894
-0.00911026
-0.042229
-0.0168794
-0.0336613
-0.0111009
-0.0145394
-0.0427322
0.042771
-0.119931
-0.135552
-0.012417
-0.128248
-0.0130058
-0.119347
-0.0175785
-0.109364
-0.0206189
-0.0981017
-0.0233176
-0.0856538
-0.0260271
-0.072538
-0.0278568
-0.0592523
-0.0282584
-0.0463063
-0.0273417
-0.0339087
-0.0259472
-0.0223356
-0.0239163
-0.0117019
-0.0216693
-0.00197381
-0.019578
0.00686216
-0.0176346
0.0148656
-0.0158845
0.0221668
-0.0143754
0.0288847
-0.0131582
0.0351362
-0.0121641
0.0410265
-0.0114022
0.0466271
-0.0108051
0.0520159
-0.0103805
0.0572446
-0.0100511
0.0623218
-0.0097404
0.0671242
-0.00913519
0.071553
-0.008356
0.0756614
-0.00771162
0.0794506
-0.00706832
0.0829404
-0.00648643
0.0861483
-0.00594334
0.0891109
-0.00544078
0.0918411
-0.00501337
0.0943989
-0.00468652
0.0968275
-0.00446191
0.0992189
-0.00441811
0.101696
-0.00462101
0.10449
-0.00518998
0.107902
-0.00655597
0.113615
-0.0111244
0.124972
-0.0244118
-0.1386
0.144214
-0.014934
0.14934
-0.0148175
0.154272
-0.0113687
0.158046
-0.00748201
0.160739
-0.00428476
0.162779
0.000616879
0.164257
0.00560413
0.165591
0.0104744
0.166701
0.0168654
0.167578
0.0236574
0.167421
0.0321873
0.164806
0.0427527
0.157216
0.0550385
0.141607
0.0675614
0.115254
0.0774489
0.0786627
0.0795293
0.0374219
0.0694727
0.00350994
0.0491091
-0.0165629
0.0281111
-0.0264553
0.0151469
-0.0322477
0.0105779
-0.0364645
0.00985969
-0.040132
0.0101185
-0.0434995
0.0100041
-0.0466151
0.0095948
-0.0494989
0.00899717
-0.0521199
0.00811008
-0.0544227
0.00704476
-0.0563584
0.00582247
-0.0578469
0.00439935
-0.0587724
0.0026044
-0.0588707
0.000220186
-0.05784
-0.00329285
-0.0552108
-0.00784837
-0.0503084
-0.0139771
-0.0417056
-0.0254709
-0.03054
-0.0222638
-0.0125828
-0.0607087
0.0389223
-0.17193
-0.13254
-0.0184784
-0.125224
-0.0203217
-0.115922
-0.0268815
-0.105633
-0.030907
-0.0942825
-0.0346688
-0.0818214
-0.0384887
-0.068779
-0.0408997
-0.0559865
-0.0410512
-0.0435402
-0.0397884
-0.0315947
-0.0378932
-0.0204597
-0.035052
-0.0101394
-0.0319903
-0.000587541
-0.029131
0.00819266
-0.0264159
0.0162703
-0.0239632
0.0237406
-0.0218469
0.0306796
-0.0200983
0.0371791
-0.0186649
0.0433259
-0.0175504
0.0491902
-0.0166709
0.0548505
-0.0160423
0.0603429
-0.0155449
0.0656725
-0.0150702
0.070755
-0.0142167
0.075493
-0.0130923
0.0799037
-0.0121209
0.08401
-0.0111737
0.0878277
-0.0103049
0.0913869
-0.00950682
0.0947129
-0.00875798
0.0978352
-0.00813291
0.100794
-0.00764253
0.10366
-0.00732296
0.106505
-0.00726057
0.109452
-0.00755835
0.11273
-0.00844907
0.116565
-0.0103982
0.122777
-0.0175487
0.133177
-0.0345318
-0.135578
0.142037
-0.0213945
0.148022
-0.0208023
0.15401
-0.0173567
0.158934
-0.0124065
0.163
-0.00835177
0.166074
-0.00245919
0.168088
0.00358908
0.168863
0.0097
0.168754
0.0169734
0.168178
0.0242319
0.167635
0.0327298
0.167417
0.0429688
0.166962
0.0554931
0.163936
0.0705858
0.154223
0.0871614
0.132587
0.101165
0.0964945
0.105564
0.0517112
0.0938909
0.0119609
0.0678594
-0.0126789
0.0397842
-0.0248428
0.0227383
-0.0315988
0.0166137
-0.0363167
0.0148394
-0.0402564
0.0139523
-0.0437718
0.0131207
-0.0469874
0.0122237
-0.0499216
0.0110528
-0.0525493
0.0096799
-0.0548206
0.00809719
-0.056632
0.0062082
-0.0578162
0.00378047
-0.0580795
0.000516165
-0.0571488
-0.00421158
-0.0545954
-0.0104011
-0.0498238
-0.0187248
-0.0414896
-0.0337967
-0.0289483
-0.0347879
-0.0114527
-0.0782662
0.0330891
-0.21694
-0.128971
-0.0250849
-0.121462
-0.0278316
-0.111947
-0.0363968
-0.101608
-0.0412461
-0.0902449
-0.0460323
-0.0777848
-0.0509493
-0.064924
-0.0537609
-0.0524032
-0.0535725
-0.0403199
-0.0518721
-0.0287716
-0.049442
-0.018009
-0.0458152
-0.00800048
-0.0419996
0.0013403
-0.0384727
0.0100115
-0.035088
0.0180837
-0.0320364
0.0256456
-0.0294098
0.0327327
-0.0271866
0.0394204
-0.0253539
0.045785
-0.0239165
0.0518922
-0.0227798
0.0577912
-0.0219431
0.0635266
-0.0212819
0.0691069
-0.0206513
0.0744466
-0.0195557
0.0794508
-0.018095
0.0841281
-0.0167962
0.0884924
-0.0155369
0.0925648
-0.0143795
0.0963633
-0.0133125
0.099935
-0.0123265
0.103301
-0.0115009
0.106513
-0.0108559
0.109632
-0.0104426
0.112752
-0.0103803
0.115989
-0.0107952
0.119589
-0.012032
0.123757
-0.014563
0.130249
-0.0242286
0.140087
-0.0440683
-0.134823
0.141543
-0.0281158
0.14782
-0.0270798
0.154341
-0.0238781
0.159551
-0.0176168
0.164063
-0.012866
0.167602
-0.00599896
0.170114
0.00107745
0.171523
0.00828916
0.172061
0.0164354
0.171619
0.0246727
0.170581
0.0337672
0.169433
0.0441154
0.168941
0.0559848
0.169008
0.0705179
0.16806
0.0881082
0.161422
0.107802
0.142064
0.12492
0.105771
0.130182
0.0581893
0.115438
0.0153038
0.0826664
-0.0111786
0.0492167
-0.0241764
0.0296074
-0.0314673
0.0221287
-0.0365859
0.0190711
-0.0407785
0.0173146
-0.0444667
0.0159129
-0.047787
0.0143722
-0.0507632
0.0126579
-0.0533623
0.0106966
-0.0554831
0.00832925
-0.0569161
0.00521735
-0.0573425
0.000960387
-0.0564932
-0.00506707
-0.0539936
-0.0129297
-0.0493624
-0.0233297
-0.0413837
-0.0417684
-0.0282093
-0.0479629
-0.0111171
-0.0953593
0.0265773
-0.254883
-0.127746
-0.0321619
-0.119864
-0.0357145
-0.109722
-0.0465381
-0.098963
-0.0520059
-0.0872266
-0.057769
-0.0744732
-0.0637035
-0.0614045
-0.0668301
-0.0488405
-0.066137
-0.0368926
-0.0638204
-0.0255765
-0.0607586
-0.0150672
-0.0563251
-0.0053347
-0.0517329
0.00378326
-0.0475915
0.0123112
-0.043617
0.0203222
-0.0400483
0.0278928
-0.0369814
0.0350695
-0.0343643
0.0419037
-0.0321892
0.0484517
-0.0304658
0.0547668
-0.0290963
0.0608968
-0.0280745
0.0668674
-0.0272538
0.07269
-0.0264744
0.0782859
-0.0251516
0.0835577
-0.0233656
0.0884985
-0.0217359
0.0931189
-0.0201559
0.0974415
-0.018702
0.101484
-0.0173547
0.105282
-0.0161195
0.108864
-0.0150793
0.112293
-0.0142807
0.115626
-0.0137699
0.11895
-0.0137015
0.122409
-0.0142433
0.126245
-0.0158505
0.130671
-0.0189967
0.137287
-0.0309557
0.14682
-0.0534572
-0.134515
0.141692
-0.0352934
0.148648
-0.0340363
0.155769
-0.0310006
0.161608
-0.0234577
0.166646
-0.017904
0.170949
-0.010304
0.17406
-0.00203396
0.176239
0.00611096
0.177351
0.0153224
0.177525
0.0244982
0.176855
0.0344367
0.175458
0.045511
0.173898
0.0575432
0.172839
0.0715766
0.172709
0.0882369
0.172451
0.108059
0.166782
0.130588
0.147326
0.149636
0.108894
0.153869
0.0585922
0.132966
0.0146213
0.0931864
-0.0115213
0.0557491
-0.0244373
0.0350471
-0.0319475
0.0265866
-0.0373114
0.0226873
-0.0417054
0.0203166
-0.0455302
0.018207
-0.0489152
0.016051
-0.0518759
0.0136629
-0.0543158
0.0107689
-0.05602
0.00692111
-0.0566377
0.00159768
-0.0558807
-0.00581485
-0.0534149
-0.0153914
-0.0489073
-0.0278191
-0.0413224
-0.0493456
-0.0280039
-0.061266
-0.0114781
-0.111934
0.020037
-0.286698
-0.12701
-0.0396677
-0.118766
-0.0439587
-0.108075
-0.0572282
-0.0967834
-0.0632985
-0.0845762
-0.069977
-0.0713993
-0.0768808
-0.0580025
-0.0802275
-0.0452842
-0.0788558
-0.0333219
-0.0757832
-0.0220838
-0.0719972
-0.0117441
-0.0666656
-0.0022109
-0.061267
0.00671328
-0.0565166
0.0150741
-0.0519787
0.0229834
-0.0479585
0.0305242
-0.0445232
0.0377414
-0.0415824
0.0446713
-0.0391204
0.0513657
-0.0371615
0.0578611
-0.0355933
0.0641938
-0.0344089
0.0703885
-0.0334502
0.0764458
-0.0325328
0.0823055
-0.0310114
0.0878473
-0.0289066
0.0930476
-0.0269343
0.0979332
-0.0250399
0.102508
-0.0232768
0.106796
-0.0216469
0.110833
-0.0201539
0.114646
-0.0188934
0.118288
-0.0179241
0.121824
-0.0173067
0.125367
-0.0172435
0.129022
-0.0178971
0.133078
-0.0198909
0.137731
-0.0236444
0.144451
-0.0377801
0.153743
-0.0625457
-0.135224
0.142976
-0.0430457
0.150313
-0.0413746
0.158059
-0.038747
0.164447
-0.0298472
0.170036
-0.0234951
0.174787
-0.0150549
0.178458
-0.00570521
0.181051
0.00351786
0.182762
0.0136115
0.183546
0.0237137
0.183465
0.0345162
0.182683
0.0462921
0.18127
0.0589556
0.179524
0.0733211
0.178179
0.0895809
0.177815
0.108422
0.177425
0.130976
0.171253
0.155806
0.149514
0.175606
0.107127
0.17535
0.0543446
0.145966
0.0112905
0.0988003
-0.0131155
0.0594501
-0.0254138
0.0388835
-0.0329098
0.0301822
-0.0384291
0.0258359
-0.0429691
0.0227453
-0.0468808
0.0199624
-0.0502772
0.0170589
-0.053093
0.0135842
-0.0551074
0.00894068
-0.0559535
0.00245711
-0.0553125
-0.00646465
-0.0528704
-0.0178601
-0.0484464
-0.0322212
-0.0412777
-0.0565074
-0.0281651
-0.074383
-0.01239
-0.127702
0.0135425
-0.312769
-0.127191
-0.0477007
-0.118436
-0.0527126
-0.107132
-0.0685335
-0.0952482
-0.0751822
-0.0824955
-0.0827301
-0.0687244
-0.0906529
-0.0548649
-0.0940876
-0.0418167
-0.0919045
-0.0296752
-0.0879252
-0.0183449
-0.0833281
-0.00807663
-0.0769345
0.00132484
-0.0706693
0.0100876
-0.0652803
0.0182939
-0.0601859
0.0260785
-0.0557441
0.033564
-0.0520096
0.0407711
-0.0487905
0.0477566
-0.0461068
0.0545581
-0.0439641
0.0612077
-0.0422441
0.0677243
-0.0409268
0.074127
-0.0398539
0.0804178
-0.0388248
0.0865241
-0.0371178
0.092334
-0.0347169
0.0978116
-0.0324102
0.102959
-0.0301867
0.107797
-0.0281132
0.112335
-0.026184
0.116618
-0.024431
0.120663
-0.0229347
0.124534
-0.0217904
0.128298
-0.0210651
0.132044
-0.0209853
0.135924
-0.0217658
0.140191
-0.0241409
0.14507
-0.0285338
0.151881
-0.0446404
0.160961
-0.0715609
-0.136499
0.144804
-0.0513527
0.152757
-0.0493277
0.161172
-0.0471639
0.168035
-0.0367124
0.174162
-0.0296225
0.179439
-0.0203323
0.183571
-0.00983695
0.186766
0.000323081
0.188862
0.0115154
0.190132
0.0224432
0.190617
0.0340306
0.190313
0.0465946
0.189355
0.0599129
0.187849
0.0748261
0.186002
0.0914271
0.184436
0.109987
0.183934
0.131477
0.183131
0.156607
0.175
0.183735
0.148627
0.201723
0.101103
0.193489
0.0469598
0.152943
0.00650113
0.0999101
-0.0153688
0.0607579
-0.0268424
0.0416626
-0.0342641
0.0332671
-0.0398839
0.0283749
-0.0445202
0.0246084
-0.0484697
0.0210158
-0.0517516
0.016869
-0.0541506
0.0113433
-0.0552815
0.00360104
-0.0547831
-0.00695599
-0.0523694
-0.0202679
-0.047992
-0.0365819
-0.0412337
-0.0632567
-0.0285962
-0.0870052
-0.0137788
-0.14256
0.00707151
-0.33383
-0.127962
-0.0562372
-0.118718
-0.0619574
-0.10666
-0.0805913
-0.0940859
-0.0877567
-0.0806768
-0.0961401
-0.0662761
-0.105054
-0.0518265
-0.108538
-0.0383232
-0.105408
-0.0259035
-0.100346
-0.0144307
-0.0948015
-0.00410279
-0.0872633
0.00523233
-0.0800053
0.0138764
-0.0739252
0.021947
-0.0682574
0.0296255
-0.0634235
0.0370226
-0.0594077
0.0441975
-0.0559664
0.051203
-0.0531135
0.0580769
-0.0508393
0.0648441
-0.0490127
0.0715179
-0.0476022
0.0781127
-0.0464505
0.0846268
-0.0453403
0.090981
-0.0434729
0.0970558
-0.0407915
0.102803
-0.0381559
0.108223
-0.0356053
0.113331
-0.0332191
0.11813
-0.0309854
0.12266
-0.0289588
0.126956
-0.0272289
0.131061
-0.0258954
0.135054
-0.0250584
0.139031
-0.0249608
0.143125
-0.0258561
0.14761
-0.0286116
0.152723
-0.0336395
0.159599
-0.0515675
0.168484
-0.0803006
-0.138469
0.147311
-0.0601952
0.155846
-0.0578642
0.164904
-0.0562232
0.172318
-0.044128
0.179047
-0.036352
0.18486
-0.0261454
0.189502
-0.0144789
0.193047
-0.00322158
0.195664
0.00889822
0.197332
0.0207748
0.198162
0.0331999
0.198271
0.0464842
0.197779
0.0604041
0.196686
0.0759178
0.195064
0.0930477
0.193136
0.111914
0.191475
0.133137
0.19084
0.157239
0.189075
0.185498
0.177327
0.213468
0.144413
0.226401
0.0915879
0.205766
0.0377811
0.153714
0.00130862
0.0972274
-0.0178534
0.0608231
-0.028614
0.0440255
-0.0359494
0.0357088
-0.0416271
0.0302839
-0.046326
0.0257135
-0.0502079
0.0207482
-0.0531052
0.0142457
-0.0546054
0.00511126
-0.0543049
-0.00726524
-0.0519188
-0.022682
-0.047553
-0.0409266
-0.0411815
-0.0696243
-0.0292265
-0.0989645
-0.0155424
-0.156237
0.000605982
-0.350052
-0.129284
-0.0654228
-0.119449
-0.0717918
-0.106635
-0.0934067
-0.093398
-0.100994
-0.0792184
-0.11032
-0.0640722
-0.120202
-0.0488806
-0.12373
-0.0348665
-0.119423
-0.0220525
-0.11316
-0.0103036
-0.106551
0.000136941
-0.0977046
0.00949125
-0.0893605
0.0180811
-0.0825159
0.0260546
-0.0762319
0.033614
-0.0709837
0.0409246
-0.0667193
0.0480323
-0.063075
0.0550353
-0.0601175
0.0619502
-0.0577552
0.0688091
-0.0558729
0.0756205
-0.0544147
0.0823888
-0.0532202
0.0891049
-0.0520573
0.0957034
-0.0500723
0.102047
-0.0471347
0.108058
-0.0441676
0.113754
-0.0412993
0.119125
-0.0385901
0.124198
-0.0360558
0.128992
-0.033749
0.133539
-0.0317696
0.137895
-0.030248
0.142124
-0.0292802
0.146335
-0.0291681
0.15067
-0.0301781
0.155387
-0.0333116
0.16072
-0.0389839
0.167657
-0.0585215
0.176369
-0.0889956
-0.140857
0.150374
-0.0697149
0.159529
-0.0670207
0.169324
-0.0660207
0.177283
-0.0520883
0.184469
-0.0435374
0.19085
-0.0325268
0.195949
-0.0195777
0.199968
-0.00724003
0.202996
0.00587023
0.205052
0.0187186
0.206267
0.0319833
0.206792
0.0459588
0.206599
0.0605953
0.205813
0.0767026
0.204604
0.0942557
0.202827
0.113689
0.200741
0.135221
0.199004
0.158974
0.198263
0.186236
0.194789
0.21694
0.177413
0.243776
0.136638
0.246541
0.0795818
0.210771
0.0282872
0.148525
-0.00362185
0.0927375
-0.0204766
0.0608885
-0.0306696
0.0459116
-0.0379211
0.0375462
-0.0436532
0.0314548
-0.048334
0.0254353
-0.0518871
0.0178043
-0.0538831
0.00711737
-0.053859
-0.00728321
-0.0515264
-0.0250082
-0.0471393
-0.0452971
-0.0411159
-0.0756365
-0.0300112
-0.110053
-0.0176526
-0.16863
-0.00582529
-0.362036
-0.131141
-0.0751383
-0.120676
-0.082257
-0.10701
-0.107073
-0.0929252
-0.11508
-0.0780051
-0.125242
-0.0619712
-0.136236
-0.0460472
-0.139655
-0.0313892
-0.134082
-0.0181032
-0.126447
-0.00597481
-0.11868
0.00466342
-0.108344
0.0140717
-0.0987696
0.0226605
-0.0911056
0.030586
-0.0841583
0.0380529
-0.0784515
0.0452615
-0.0739288
0.0523211
-0.0701355
0.0592806
-0.067078
0.066216
-0.0646919
0.0731398
-0.0627979
0.0800582
-0.0613347
0.0869807
-0.0601442
0.0938972
-0.0589756
0.100728
-0.0569043
0.10732
-0.0537279
0.113606
-0.0504522
0.119568
-0.0472605
0.12522
-0.0442407
0.130563
-0.0413988
0.135625
-0.0388081
0.140441
-0.0365817
0.145047
-0.0348511
0.149532
-0.0337626
0.153991
-0.0336261
0.158566
-0.0347482
0.16351
-0.0382401
0.169088
-0.0445534
0.176084
-0.0655343
0.184572
-0.0973733
-0.1438
0.153931
-0.0798478
0.163691
-0.0767827
0.174214
-0.0765456
0.182847
-0.0607218
0.190648
-0.0513395
0.197565
-0.0394428
0.203049
-0.0250619
0.207552
-0.0117422
0.210989
0.00243271
0.213436
0.0162714
0.214975
0.0304427
0.215748
0.0451855
0.215896
0.0604454
0.215475
0.0771223
0.21447
0.0952598
0.213023
0.115136
0.211061
0.137181
0.208866
0.161168
0.207217
0.187883
0.206121
0.218035
0.199447
0.250447
0.174493
0.271493
0.1255
0.259762
0.0664991
0.207524
0.0194045
0.139829
-0.00816056
0.0884517
-0.0232511
0.0609985
-0.0329732
0.0472667
-0.0401913
0.0386688
-0.0459408
0.0311816
-0.0503605
0.0222256
-0.053035
0.00980091
-0.0534171
-0.00691306
-0.0511906
-0.027263
-0.0467536
-0.0497162
-0.0410318
-0.0813558
-0.0308954
-0.120196
-0.0200204
-0.179498
-0.0121547
-0.369948
-0.133368
-0.0855707
-0.12228
-0.0933447
-0.107717
-0.121637
-0.0927785
-0.130019
-0.0769396
-0.141081
-0.060043
-0.153134
-0.0432513
-0.156448
-0.0278849
-0.149449
-0.0140087
-0.140324
-0.00149409
-0.131195
0.00943011
-0.119269
0.0189903
-0.108331
0.0276412
-0.0997573
0.035525
-0.0920429
0.0429235
-0.0858509
0.050069
-0.0810751
0.0570484
-0.0771157
0.0639796
-0.0740101
0.070901
-0.0716143
0.0778627
-0.0697606
0.0848703
-0.0683434
0.0919257
-0.0672007
0.0990258
-0.066077
0.106078
-0.0639579
0.112923
-0.060573
0.119469
-0.0569988
0.12571
-0.0535017
0.131638
-0.0501671
0.137263
-0.0470229
0.1426
-0.044141
0.14768
-0.041657
0.152562
-0.0397268
0.157303
-0.0384982
0.162019
-0.0383374
0.166845
-0.0395609
0.172035
-0.0434128
0.177845
-0.0503772
0.184874
-0.072563
0.193151
-0.10566
-0.147091
0.15797
-0.090728
0.168428
-0.0872433
0.179723
-0.0878415
0.188925
-0.0699254
0.197318
-0.0597317
0.204806
-0.0469314
0.210871
-0.0311264
0.215763
-0.0166345
0.219589
-0.00139319
0.222375
0.013485
0.224285
0.028532
0.225418
0.044051
0.225788
0.0600741
0.225574
0.0773349
0.224858
0.095975
0.223648
0.116344
0.221934
0.138893
0.219739
0.163361
0.217423
0.190197
0.215973
0.219483
0.213935
0.252483
0.202202
0.283225
0.168043
0.29392
0.112092
0.263476
0.0535329
0.198391
0.0114013
0.130589
-0.0123874
0.084796
-0.0261344
0.0610246
-0.0355539
0.0480988
-0.0427704
0.0384067
-0.0483391
0.0278011
-0.0519285
0.0133994
-0.052905
-0.00592946
-0.0508843
-0.0292766
-0.0463995
-0.054184
-0.0409207
-0.0868203
-0.0318288
-0.129269
-0.022595
-0.188758
-0.0183121
-0.374347
-0.136003
-0.0966595
-0.124162
-0.105186
-0.108701
-0.137097
-0.0928226
-0.145899
-0.0760554
-0.15785
-0.058201
-0.170989
-0.0404506
-0.174199
-0.0243236
-0.165577
-0.00982294
-0.154825
0.00321145
-0.144231
0.0144908
-0.130549
0.0242562
-0.118097
0.0329745
-0.108476
0.0409003
-0.0999695
0.0482671
-0.0932184
0.0553407
-0.0881496
0.0622585
-0.0840343
0.0691296
-0.0808822
0.0760391
-0.0785248
0.0830161
-0.0767389
0.0900842
-0.0754128
0.0972549
-0.0743732
0.104526
-0.0733493
0.111793
-0.0712277
0.118878
-0.0676591
0.125685
-0.0638066
0.132195
-0.060011
0.138405
-0.0563768
0.144304
-0.0529221
0.149926
-0.0497604
0.155288
-0.0470127
0.160439
-0.044872
0.165457
-0.043511
0.170431
-0.0433077
0.175522
-0.0446447
0.180953
-0.0488281
0.186992
-0.0564053
0.194085
-0.0796502
0.20214
-0.113625
-0.150875
0.1624
-0.102255
0.173596
-0.0984406
0.185709
-0.0999564
0.195624
-0.0798409
0.204657
-0.0687655
0.212713
-0.054987
0.219276
-0.0376891
0.224647
-0.0220061
0.228826
-0.00557161
0.231968
0.0103421
0.234165
0.0263343
0.235555
0.0426592
0.236259
0.0593689
0.236305
0.0772876
0.235774
0.0965055
0.234722
0.117395
0.233231
0.140382
0.231281
0.165309
0.228889
0.192589
0.226627
0.221742
0.225286
0.253823
0.22106
0.287448
0.202004
0.312975
0.158185
0.307293
0.0972962
0.259278
0.0411877
0.186695
0.00431119
0.12167
-0.0163656
0.0816978
-0.0291851
0.0609147
-0.0384617
0.0476769
-0.0455575
0.0348971
-0.0503758
0.0182226
-0.0522011
-0.00411993
-0.0505503
-0.0309582
-0.0460561
-0.0586634
-0.0407628
-0.0921146
-0.0327582
-0.137281
-0.0252762
-0.196238
-0.0242316
-0.375419
-0.138955
-0.108581
-0.126453
-0.117688
-0.109958
-0.153594
-0.0931243
-0.162733
-0.0753035
-0.175672
-0.0563654
-0.189929
-0.037679
-0.192887
-0.0206713
-0.182586
-0.0054727
-0.170025
0.0081293
-0.157833
0.0197962
-0.142216
0.0298172
-0.128118
0.0387226
-0.117383
0.0466962
-0.107944
0.0540735
-0.100596
0.061115
-0.0951919
0.0679682
-0.0908883
0.0747738
-0.0876886
0.0816429
-0.0853947
0.0886296
-0.0837266
0.0957459
-0.0825302
0.103019
-0.0816474
0.110431
-0.0807623
0.117901
-0.0786991
0.125221
-0.0749802
0.132281
-0.0708674
0.139059
-0.0667896
0.145541
-0.0628587
0.151729
-0.0591105
0.157637
-0.0556656
0.163287
-0.0526573
0.168727
-0.0503067
0.174021
-0.0487974
0.179273
-0.0485556
0.184628
-0.0499863
0.190317
-0.054501
0.19659
-0.0626933
0.203694
-0.0867465
0.21153
-0.121485
-0.154971
0.16728
-0.114565
0.179255
-0.110417
0.192243
-0.112946
0.202862
-0.0904614
0.212527
-0.07843
0.221195
-0.0636554
0.228301
-0.0447951
0.234093
-0.0277981
0.238703
-0.0101816
0.242175
0.00686968
0.244722
0.0237858
0.246379
0.0410011
0.247322
0.0584243
0.247589
0.0770199
0.247193
0.0968996
0.246359
0.118229
0.245023
0.141716
0.243247
0.167084
0.241058
0.194776
0.238538
0.22426
0.236572
0.255788
0.234997
0.289023
0.226754
0.321217
0.198624
0.335424
0.145505
0.312398
0.081809
0.250394
0.0299297
0.173555
-0.00187921
0.113517
-0.0202361
0.0792816
-0.0325123
0.0599632
-0.0416585
0.0440507
-0.048108
0.024682
-0.051129
-0.00108977
-0.0500967
-0.0319814
-0.0456894
-0.063054
-0.0405375
-0.0972487
-0.0336222
-0.144176
-0.0279869
-0.201892
-0.0298886
-0.373599
-0.142359
-0.121194
-0.128938
-0.131111
-0.111445
-0.171087
-0.0935371
-0.180642
-0.0746817
-0.194529
-0.0546473
-0.209964
-0.0348306
-0.212705
-0.0169241
-0.200493
-0.000921991
-0.186028
0.0132929
-0.172049
0.0254343
-0.154358
0.035767
-0.138452
0.044862
-0.126478
0.0529461
-0.116029
0.0603326
-0.107984
0.0673542
-0.102214
0.0741687
-0.0977036
0.0809269
-0.0944476
0.0877589
-0.0922278
0.0947318
-0.0907006
0.101882
-0.089682
0.109226
-0.0889935
0.116782
-0.0883201
0.124441
-0.0863601
0.131981
-0.0825222
0.139286
-0.0781743
0.146327
-0.0738326
0.15309
-0.0696227
0.159565
-0.0655865
0.165763
-0.0618614
0.171704
-0.0585919
0.177431
-0.0560246
0.183015
-0.0543739
0.188549
-0.054082
0.194181
-0.0556084
0.200122
-0.0604255
0.206622
-0.0691812
0.213782
-0.0938854
0.221358
-0.128984
-0.159441
0.172619
-0.127745
0.185374
-0.123173
0.199285
-0.126858
0.210613
-0.101791
0.220966
-0.088784
0.230345
-0.0730339
0.237941
-0.0523901
0.244227
-0.0340848
0.249308
-0.0152627
0.253143
0.00303348
0.255961
0.0209672
0.257903
0.0390584
0.259003
0.0573233
0.259489
0.0765321
0.259356
0.0970313
0.258653
0.118931
0.257471
0.142897
0.255832
0.168721
0.253735
0.196871
0.251287
0.226707
0.248845
0.258228
0.247262
0.290605
0.244446
0.324031
0.230051
0.349817
0.191455
0.350992
0.130101
0.311747
0.0665003
0.237153
0.0201242
0.15989
-0.00735339
0.106754
-0.0241931
0.0767961
-0.0361617
0.0560169
-0.0447631
0.0332837
-0.0494361
0.00356514
-0.0493755
-0.0320793
-0.0452287
-0.0671916
-0.0402043
-0.102278
-0.0343507
-0.150038
-0.0306366
-0.205609
-0.0352824
-0.368966
-0.146005
-0.134631
-0.131835
-0.145281
-0.113168
-0.189757
-0.0941657
-0.199645
-0.0741577
-0.214538
-0.052898
-0.231226
-0.0319715
-0.233633
-0.0130261
-0.21944
0.00376886
-0.202823
0.0186943
-0.186974
0.0313321
-0.166996
0.0420484
-0.149168
0.0514062
-0.135837
0.0596229
-0.124246
0.0670946
-0.115456
0.0741104
-0.109231
0.0808947
-0.104489
0.0876201
-0.101174
0.0944105
-0.099019
0.101363
-0.0976537
0.108522
-0.0968429
0.115935
-0.0964076
0.123609
-0.0959953
0.131449
-0.0942011
0.139204
-0.0902784
0.146745
-0.0857173
0.154044
-0.0811327
0.161076
-0.0766569
0.167838
-0.0723488
0.174325
-0.0683469
0.180564
-0.0648278
0.186595
-0.0620497
0.192469
-0.0602413
0.198299
-0.0599058
0.204216
-0.0615143
0.210412
-0.066606
0.217137
-0.0759233
0.224315
-0.101053
0.231633
-0.136335
-0.164337
0.178386
-0.141796
0.191966
-0.136756
0.206819
-0.141713
0.218902
-0.113875
0.230042
-0.0999228
0.240088
-0.0830804
0.248265
-0.0605669
0.255062
-0.0408815
0.260542
-0.0207432
0.264716
-0.00114162
0.26784
0.0178426
0.270048
0.0368493
0.271464
0.0559058
0.272102
0.0758934
0.272124
0.0970075
0.271563
0.11949
0.270497
0.143962
0.268959
0.170257
0.267063
0.198765
0.264754
0.229015
0.262171
0.26081
0.260045
0.292729
0.258717
0.325358
0.253136
0.355399
0.230163
0.373966
0.180155
0.361757
0.113004
0.304307
0.0523621
0.220539
0.0117778
0.147347
-0.0124213
0.101004
-0.0284014
0.0720055
-0.0398598
0.0447529
-0.0467618
0.0104792
-0.0481636
-0.0306665
-0.044567
-0.0707718
-0.0397074
-0.107119
-0.034873
-0.154849
-0.0331285
-0.207365
-0.0404037
-0.361742
-0.149991
-0.148977
-0.134903
-0.16037
-0.115087
-0.209573
-0.0949083
-0.219826
-0.0736897
-0.235758
-0.051154
-0.253763
-0.0289979
-0.255791
-0.00899652
-0.239442
0.00871694
-0.220537
0.0243872
-0.202645
0.0376105
-0.18022
0.0487381
-0.160296
0.0583588
-0.145458
0.0667885
-0.132676
0.0743273
-0.122996
0.0814062
-0.11631
0.0881641
-0.111247
0.0948599
-0.107871
0.101611
-0.105771
0.108541
-0.104585
0.115715
-0.104018
0.123173
-0.103867
0.130958
-0.103782
0.138955
-0.102201
0.146917
-0.098243
0.154683
-0.0934868
0.162232
-0.0886842
0.169534
-0.0839619
0.17658
-0.0793969
0.183365
-0.0751317
0.189906
-0.0713631
0.196231
-0.0683668
0.202417
-0.0664155
0.20854
-0.0660178
0.214748
-0.0677087
0.221205
-0.0730455
0.228143
-0.082846
0.235354
-0.108233
0.242429
-0.14334
-0.169548
0.184472
-0.156722
0.198977
-0.151262
0.214865
-0.157602
0.22777
-0.126781
0.239693
-0.111847
0.250417
-0.0938045
0.259234
-0.0693833
0.266566
-0.048214
0.272453
-0.0266302
0.277015
-0.00570417
0.280519
0.0143372
0.282962
0.0344059
0.28458
0.0542867
0.28543
0.0750414
0.285588
0.0968485
0.285181
0.119897
0.284207
0.144934
0.282783
0.17168
0.280925
0.200622
0.27878
0.231159
0.276295
0.263294
0.273835
0.295187
0.272296
0.326896
0.2706
0.357094
0.259944
0.38462
0.225855
0.395845
0.165104
0.365057
0.095637
0.290003
0.0399701
0.203009
0.00461334
0.136355
-0.0174386
0.0940533
-0.0327455
0.060058
-0.0426315
0.0203424
-0.0461522
-0.0271826
-0.043536
-0.0733889
-0.0389585
-0.111702
-0.0350937
-0.158724
-0.0353472
-0.20712
-0.0452301
-0.351866
-0.15429
-0.164236
-0.138277
-0.176383
-0.117222
-0.230631
-0.0957667
-0.241281
-0.0732843
-0.258242
-0.0494218
-0.277628
-0.0259152
-0.279298
-0.00481046
-0.260547
0.013894
-0.239241
0.0303573
-0.219108
0.044199
-0.194062
0.0557802
-0.171878
0.065773
-0.155451
0.0743987
-0.141303
0.0820918
-0.130689
0.0892186
-0.123438
0.0960085
-0.118038
0.102676
-0.114539
0.109402
-0.112498
0.116303
-0.111488
0.123469
-0.111185
0.130972
-0.111372
0.138854
-0.111666
0.147016
-0.110364
0.155157
-0.106385
0.163145
-0.101477
0.170934
-0.0964756
0.178504
-0.091534
0.185827
-0.0867216
0.192907
-0.0822116
0.199749
-0.0782032
0.206389
-0.075003
0.212877
-0.0728974
0.219301
-0.0724361
0.225808
-0.0742028
0.232522
-0.0797479
0.239676
-0.0900181
0.246912
-0.11546
0.253698
-0.150163
-0.175173
0.191067
-0.172618
0.206546
-0.166743
0.223408
-0.174466
0.237272
-0.140647
0.249916
-0.12449
0.261461
-0.105349
0.270873
-0.0787951
0.278758
-0.0560983
0.285139
-0.0330121
0.290118
-0.0106835
0.293851
0.0106035
0.296618
0.0316378
0.298413
0.0524904
0.299449
0.0740043
0.299819
0.096477
0.299495
0.120219
0.298663
0.145765
0.297315
0.173027
0.295562
0.202373
0.293457
0.233262
0.291098
0.265651
0.288663
0.29762
0.286626
0.328932
0.285721
0.357998
0.282132
0.38821
0.263282
0.414696
0.216621
0.41172
0.147602
0.359027
0.0792543
0.271363
0.0294766
0.18614
-0.00184108
0.125379
-0.0225434
0.0807725
-0.0364036
0.0342161
-0.042897
-0.0206756
-0.0418776
-0.0743937
-0.0378338
-0.115729
-0.034911
-0.161621
-0.0371679
-0.204869
-0.049698
-0.339363
-0.158954
-0.180456
-0.141928
-0.19341
-0.119528
-0.253032
-0.0967849
-0.264027
-0.0729113
-0.282118
-0.0476234
-0.302916
-0.0227835
-0.30414
-0.000405744
-0.282926
0.0193051
-0.258952
0.0366568
-0.23646
0.05118
-0.208585
0.0632874
-0.183985
0.0736456
-0.16581
0.0825441
-0.150202
0.0903917
-0.138538
0.0976092
-0.130656
0.104442
-0.124871
0.111101
-0.121198
0.117797
-0.119195
0.124683
-0.118374
0.131849
-0.118353
0.139379
-0.118904
0.147348
-0.119637
0.155648
-0.118667
0.163975
-0.114715
0.172169
-0.109674
0.180188
-0.1045
0.188009
-0.0993586
0.195613
-0.0943297
0.202981
-0.0895806
0.210131
-0.0853509
0.217075
-0.0819392
0.223882
-0.0796932
0.230622
-0.0791613
0.237413
-0.0809776
0.244406
-0.0867195
0.25175
-0.0973462
0.259043
-0.122714
0.265575
-0.15663
-0.181149
0.198065
-0.189536
0.214488
-0.183167
0.232564
-0.192544
0.247223
-0.155306
0.260819
-0.138088
0.273118
-0.117647
0.283274
-0.0889511
0.291674
-0.0644989
0.298548
-0.0398856
0.303904
-0.0160397
0.308049
0.00645711
0.31103
0.0286556
0.313121
0.0503991
0.314332
0.0727912
0.314831
0.0959771
0.314653
0.120396
0.313895
0.146522
0.312596
0.174325
0.310863
0.204105
0.308805
0.235319
0.30655
0.267905
0.304169
0.3
0.301952
0.331148
0.300752
0.359197
0.299885
0.389075
0.291901
0.422679
0.262032
0.441589
0.203048
0.418009
0.129217
0.34519
0.064757
0.250594
0.0205856
0.169548
-0.00801925
0.109373
-0.0272053
0.0533821
-0.0377779
-0.0101424
-0.0392262
-0.0729506
-0.0361431
-0.118821
-0.0341958
-0.163574
-0.0384479
-0.200632
-0.0537094
-0.324107
-0.163917
-0.19769
-0.145828
-0.2115
-0.122028