/*--------------------------------*- C++ -*----------------------------------*\
  =========                 |
  \\      /  F ield         | OpenFOAM: The Open Source CFD Toolbox
   \\    /   O peration     | Website:  https://openfoam.org
    \\  /    A nd           | Version:  9
     \\/     M anipulation  |
\*---------------------------------------------------------------------------*/
FoamFile
{
    format      ascii;
    class       volVectorField;
    location    "520";
    object      U;
}
// * * * * * * * * * * * * * * * * * * * * * * * * * * * * * * * * * * * * * //

dimensions      [0 1 -1 0 0 0 0];

internalField   nonuniform List<vector> 
10720
(
(-1.61706 17.2563 2.55586e-17)
(-0.529916 17.755 -2.50058e-17)
(0.656171 18.1235 0)
(1.86342 18.1072 -3.02449e-16)
(3.03138 17.7678 3.45651e-16)
(4.11302 17.0526 2.11204e-16)
(5.02729 15.9158 2.56507e-16)
(5.70454 14.3905 0)
(6.05456 12.4913 0)
(5.99014 10.2859 0)
(5.44552 7.87605 3.96002e-17)
(4.37936 5.37889 0)
(2.8193 2.95248 1.42543e-15)
(0.898601 0.805899 0)
(-0.993932 -0.501897 0)
(-1.93708 -0.805546 0)
(-2.56283 -0.957949 -4.03384e-15)
(-2.92877 -0.944138 -5.08697e-15)
(-3.16238 -0.865579 4.38341e-15)
(-3.33106 -0.744463 0)
(-3.50139 -0.61201 3.66452e-15)
(-3.7406 -0.483676 -6.95764e-15)
(-4.06502 -0.366293 3.34692e-15)
(-4.44624 -0.258419 -9.32389e-17)
(-4.84072 -0.152224 0)
(-5.22611 -0.0370512 1.2855e-15)
(-5.58404 0.0906606 1.90896e-17)
(-5.90126 0.227345 -5.82295e-16)
(-6.17438 0.369426 -2.21661e-15)
(-6.39776 0.51053 -8.42499e-15)
(-6.55763 0.643374 4.00892e-15)
(-6.62477 0.762033 7.89997e-15)
(-6.56034 0.859055 7.37889e-15)
(-6.34659 0.925567 2.79707e-14)
(-5.91482 0.939077 -1.29195e-14)
(-5.2731 0.883934 -1.00795e-16)
(-4.46615 0.756054 8.16101e-17)
(-3.02079 0.221975 3.21499e-14)
(-2.07912 -0.13702 -2.85111e-14)
(-2.59853 16.5976 1.09485e-17)
(-3.5466 15.7288 1.97459e-17)
(-4.42874 14.6381 -3.22821e-17)
(-5.1635 13.1717 3.66992e-17)
(-5.66198 11.5354 8.08897e-17)
(-5.85723 9.74535 -7.42264e-18)
(-5.70763 7.8968 1.8909e-16)
(-5.22036 6.12714 1.68451e-16)
(-4.47011 4.55789 0)
(-3.54917 3.23685 0)
(-2.52963 2.1729 9.383e-16)
(-1.4912 1.36295 7.42778e-16)
(-0.517443 0.777597 -2.57208e-15)
(0.350165 0.334836 3.35412e-15)
(1.17993 -0.0536567 4.57571e-15)
(1.97363 -0.356362 2.37358e-15)
(2.70675 -0.574531 2.73554e-15)
(3.38328 -0.728438 1.71708e-15)
(4.01655 -0.836282 0)
(4.61706 -0.907929 0)
(5.19354 -0.949683 -2.37195e-15)
(5.75281 -0.962258 -1.23115e-16)
(6.29898 -0.943116 1.85888e-15)
(6.82561 -0.883103 -1.49721e-15)
(7.31285 -0.779937 6.18806e-18)
(7.7531 -0.645342 0)
(8.15229 -0.488163 4.76165e-16)
(8.51455 -0.314498 0)
(8.84169 -0.128867 0)
(9.13576 0.0642722 2.94988e-16)
(9.40117 0.261222 0)
(9.64178 0.45861 -8.0715e-16)
(9.86451 0.654468 -1.25729e-15)
(10.0769 0.847767 -4.70165e-15)
(10.2941 1.04027 1.2658e-15)
(10.524 1.2346 -3.57705e-18)
(10.82 1.44651 0)
(11.1796 1.69373 -1.79288e-15)
(12.0147 1.98656 -3.96852e-15)
(2.56594 15.6072 8.4027e-18)
(3.66968 16.0329 -1.302e-17)
(4.91354 16.3037 0)
(6.22783 16.4193 0)
(7.50269 16.4069 -9.37992e-17)
(8.70551 16.303 -1.85524e-16)
(9.76286 16.0729 0)
(10.6173 15.6948 0)
(11.2193 15.1487 2.5602e-16)
(11.5033 14.3845 0)
(11.39 13.3422 7.24723e-16)
(10.7802 11.9392 0)
(9.57135 10.0977 2.21357e-16)
(7.69143 7.78004 -2.55252e-16)
(5.15609 5.1116 6.01165e-16)
(2.3196 2.44113 -1.74611e-15)
(-0.393077 0.261412 2.79215e-15)
(-1.94482 -0.523915 3.00516e-15)
(-2.76997 -0.757302 2.69557e-15)
(-3.28283 -0.775746 1.6237e-16)
(-3.67125 -0.68691 -2.60255e-15)
(-4.05373 -0.560642 2.45705e-15)
(-4.434 -0.428085 -1.33699e-16)
(-4.79932 -0.308212 0)
(-5.1408 -0.19939 0)
(-5.45423 -0.0875915 0)
(-5.73291 0.0336275 1.05965e-16)
(-5.97332 0.161735 -2.53862e-17)
(-6.17095 0.295465 1.5831e-15)
(-6.31609 0.428683 6.15645e-18)
(-6.39795 0.552243 -4.96552e-18)
(-6.41171 0.662035 -5.08436e-17)
(-6.34958 0.755198 5.06559e-15)
(-6.13793 0.817583 -9.13348e-15)
(-5.70119 0.824474 -6.05866e-17)
(-5.01902 0.76367 -1.42007e-14)
(-4.08011 0.739612 0)
(-2.27717 0.257847 -7.26447e-15)
(-1.5243 -0.249078 -1.13884e-14)
(1.53427 15.0817 -1.15127e-17)
(0.54697 14.4285 1.54718e-17)
(-0.4836 13.5911 8.0138e-17)
(-1.44781 12.5309 -1.00889e-16)
(-2.26519 11.2584 0)
(-2.87134 9.80697 -9.76944e-17)
(-3.20445 8.24167 -1.03288e-16)
(-3.22577 6.67269 -7.21945e-16)
(-2.95485 5.20364 3.07696e-16)
(-2.45029 3.8964 -4.98298e-16)
(-1.77847 2.78927 9.54035e-16)
(-1.0065 1.89973 -4.34499e-16)
(-0.201358 1.21904 0)
(0.588518 0.691531 -7.15453e-16)
(1.35593 0.267737 -1.10064e-17)
(2.09461 -0.051495 -1.4746e-15)
(2.7947 -0.28497 0)
(3.4567 -0.455147 0)
(4.08645 -0.577902 -1.5077e-16)
(4.6905 -0.661031 1.37261e-16)
(5.27465 -0.709818 -1.7553e-15)
(5.84434 -0.723776 -2.03527e-16)
(6.40241 -0.699573 9.15874e-17)
(6.94362 -0.62732 1.22869e-15)
(7.45162 -0.509902 -1.09087e-15)
(7.91756 -0.366528 -8.94603e-16)
(8.34481 -0.206239 0)
(8.73651 -0.0336396 0)
(9.09371 0.148021 0)
(9.41853 0.334616 2.83031e-18)
(9.71442 0.523193 0)
(9.98506 0.710887 0)
(10.2364 0.896249 2.11685e-15)
(10.4752 1.07892 1.56428e-15)
(10.7157 1.26205 -1.03998e-15)
(10.9651 1.45075 5.29224e-16)
(11.2828 1.66632 4.24475e-17)
(11.6294 1.91801 1.3638e-15)
(12.5666 2.36754 2.75236e-15)
(1.75763 14.4057 2.74654e-18)
(2.54935 14.8013 6.21412e-17)
(3.4416 15.1171 -4.92235e-17)
(4.39491 15.3244 -5.12691e-17)
(5.35752 15.3778 -1.32231e-16)
(6.33268 15.2757 4.08815e-16)
(7.32298 15.0453 -2.67855e-16)
(8.28278 14.7249 -2.42722e-16)
(9.19419 14.3608 -1.43201e-17)
(10.015 13.9875 -2.40595e-16)
(10.6962 13.6109 1.75554e-16)
(11.1673 13.1806 -3.88444e-16)
(11.3027 12.562 -1.59617e-16)
(10.91 11.5258 0)
(9.73619 9.8087 -3.40544e-16)
(7.57326 7.30435 7.63961e-16)
(4.47094 4.26644 0)
(1.17908 1.59346 -2.9685e-15)
(-1.16683 0.150639 -2.05332e-15)
(-2.36019 -0.322498 2.52408e-16)
(-3.05198 -0.429149 -2.32361e-16)
(-3.53129 -0.372798 -1.11222e-16)
(-3.92659 -0.274846 -1.56307e-15)
(-4.28402 -0.18251 7.83622e-16)
(-4.61347 -0.0979821 0)
(-4.91736 -0.00908767 6.93311e-16)
(-5.19424 0.0892818 -8.20572e-17)
(-5.44132 0.194857 0)
(-5.65445 0.307502 1.19002e-15)
(-5.82542 0.42289 2.32786e-15)
(-5.94209 0.531269 -4.44378e-15)
(-5.98941 0.625035 -4.1354e-15)
(-5.94493 0.697643 -6.24088e-17)
(-5.75964 0.741224 -6.57805e-15)
(-5.36128 0.730377 -5.73631e-15)
(-4.71512 0.631806 9.60009e-15)
(-3.78287 0.585591 0)
(-1.85715 0.0434191 -4.5771e-15)
(-1.28332 -0.608907 1.38289e-14)
(1.05166 13.9271 6.64262e-18)
(0.378649 13.3385 6.38979e-18)
(-0.280352 12.5734 -4.99221e-17)
(-0.916199 11.6445 0)
(-1.45372 10.5718 2.09553e-17)
(-1.85817 9.36456 0)
(-2.0906 8.06398 2.87271e-16)
(-2.12043 6.7442 1.91257e-16)
(-1.94412 5.47503 2.69599e-16)
(-1.58334 4.30387 0)
(-1.07756 3.26729 -1.0092e-15)
(-0.470057 2.39035 -3.33219e-16)
(0.193636 1.67877 2.1287e-15)
(0.879158 1.107 0)
(1.56902 0.647948 -1.21917e-15)
(2.24795 0.289413 -3.5701e-16)
(2.9045 0.0129658 1.5556e-15)
(3.53549 -0.198715 8.25126e-16)
(4.14286 -0.358276 2.41383e-16)
(4.73045 -0.473564 -1.17083e-16)
(5.30222 -0.549987 1.45038e-15)
(5.86192 -0.588567 0)
(6.4114 -0.587333 0)
(6.94617 -0.540441 3.65591e-18)
(7.45282 -0.451022 0)
(7.92294 -0.333053 1.64951e-15)
(8.35846 -0.193332 -2.33479e-17)
(8.76216 -0.0359017 -1.54425e-16)
(9.1351 0.135497 0)
(9.4794 0.316132 -2.25138e-16)
(9.7983 0.502942 3.82147e-16)
(10.0953 0.692636 0)
(10.3761 0.883497 -9.94754e-16)
(10.6467 1.07492 0)
(10.9206 1.26979 0)
(11.2012 1.47282 1.77151e-17)
(11.552 1.70502 -3.87371e-17)
(11.8993 1.98317 -1.30999e-15)
(12.8658 2.49244 -5.58995e-15)
(2.96227 13.3853 5.32564e-18)
(3.70322 13.7411 1.31639e-17)
(4.52404 14.0268 -3.1772e-17)
(5.40039 14.2138 -2.53598e-17)
(6.28752 14.2802 0)
(7.17691 14.2239 0)
(8.00308 14.0534 -4.0879e-16)
(8.73255 13.7812 4.41655e-16)
(9.35514 13.4315 0)
(9.87818 13.0468 -3.82005e-16)
(10.3207 12.6858 -4.02487e-16)
(10.7148 12.4073 -3.38515e-16)
(11.0778 12.2245 3.28533e-16)
(11.3563 12.0317 2.84963e-16)
(11.3433 11.5466 0)
(10.6405 10.3756 3.97194e-16)
(8.79585 8.20956 1.47456e-16)
(5.68507 5.22682 1.46219e-15)
(2.07613 2.35634 1.30156e-16)
(-0.671584 0.619024 -1.81709e-16)
(-2.0824 0.0240204 1.73061e-15)
(-2.84214 -0.117583 -2.68309e-16)
(-3.3375 -0.0986317 1.43365e-15)
(-3.7354 -0.0483341 6.31538e-16)
(-4.08635 0.00535932 -3.7268e-17)
(-4.40514 0.0687913 -5.18986e-16)
(-4.69645 0.144303 4.05744e-18)
(-4.95986 0.228686 -3.78184e-18)
(-5.19277 0.321329 -9.21621e-16)
(-5.38736 0.418781 -2.7384e-17)
(-5.5283 0.511264 1.75995e-15)
(-5.59474 0.588636 -3.28e-15)
(-5.56365 0.64229 -2.7481e-15)
(-5.3988 0.666968 -3.86184e-17)
(-5.03876 0.641345 4.12288e-15)
(-4.44589 0.522176 0)
(-3.56868 0.458102 6.20437e-15)
(-1.60767 -0.13022 3.28329e-15)
(-1.17847 -0.919282 -5.01319e-15)
(2.28188 12.9692 -2.80601e-19)
(1.61951 12.47 -1.59127e-17)
(0.956207 11.8324 -1.49456e-17)
(0.314654 11.0467 0)
(-0.238528 10.1299 -1.95598e-17)
(-0.675987 9.08927 0)
(-0.964709 7.95744 -2.86487e-16)
(-1.07858 6.79752 -9.98948e-18)
(-1.01279 5.66613 2.44762e-16)
(-0.780862 4.60086 3.51575e-16)
(-0.410774 3.63481 1.23069e-17)
(0.0645173 2.79351 1.04561e-15)
(0.610258 2.08468 -1.00176e-15)
(1.19735 1.49397 3.36921e-16)
(1.80653 1.00726 1.22241e-15)
(2.42157 0.614606 1.38641e-15)
(3.02994 0.302891 -1.2703e-15)
(3.62548 0.0585636 -6.03295e-18)
(4.20678 -0.129707 0)
(4.77484 -0.269969 1.47119e-15)
(5.33147 -0.367586 8.01174e-17)
(5.87868 -0.424517 -1.24501e-15)
(6.41722 -0.440001 0)
(6.94277 -0.410304 2.55472e-18)
(7.44371 -0.337577 0)
(7.91166 -0.23325 -7.0781e-16)
(8.34709 -0.104893 0)
(8.75225 0.042673 1.3679e-16)
(9.12808 0.205262 -5.38841e-18)
(9.47661 0.378055 3.34484e-18)
(9.80104 0.558115 -3.25636e-16)
(10.1049 0.742159 -9.51136e-18)
(10.394 0.928528 0)
(10.6746 1.11681 6.7354e-16)
(10.9601 1.30996 8.80127e-18)
(11.2534 1.51335 -4.68149e-16)
(11.6183 1.7478 2.20326e-17)
(11.9684 2.04104 -2.05043e-18)
(12.9015 2.55457 0)
(3.25417 12.6209 5.32844e-18)
(3.8609 12.9571 1.17055e-17)
(4.54123 13.2474 -5.22973e-17)
(5.26739 13.469 2.5652e-16)
(6.00451 13.5976 -6.85152e-17)
(6.75079 13.6309 -1.51037e-16)
(7.48199 13.5634 1.93817e-16)
(8.18126 13.3899 0)
(8.82802 13.1183 5.17633e-16)
(9.39438 12.7713 1.95785e-16)
(9.86584 12.3845 0)
(10.2509 12.0106 3.29871e-16)
(10.5858 11.7178 -1.46131e-16)
(10.9237 11.5585 3.94249e-16)
(11.2714 11.486 0)
(11.4567 11.252 -4.76211e-16)
(11.0252 10.3732 4.59727e-16)
(9.34089 8.40442 -9.82255e-18)
(6.17471 5.48327 0)
(2.38504 2.6056 9.47756e-16)
(-0.477486 0.884751 -1.30512e-15)
(-1.91426 0.287012 -7.86351e-17)
(-2.67466 0.122946 -1.16172e-15)
(-3.18001 0.100635 -1.01984e-15)
(-3.58169 0.115062 0)
(-3.92914 0.150023 0)
(-4.24072 0.202037 -1.08162e-16)
(-4.52169 0.265912 -1.26108e-17)
(-4.7722 0.339477 7.66031e-16)
(-4.98589 0.418959 -2.22676e-17)
(-5.14647 0.494675 2.13042e-17)
(-5.23004 0.555171 2.56862e-15)
(-5.21211 0.590264 0)
(-5.063 0.59553 7.76121e-15)
(-4.73475 0.553581 -2.61254e-17)
(-4.19634 0.416153 0)
(-3.39933 0.334477 8.74963e-18)
(-1.46472 -0.274477 0)
(-1.17195 -1.16638 4.0363e-15)
(2.70079 12.2343 -4.45376e-18)
(2.16556 11.7805 6.1536e-18)
(1.62328 11.2058 6.33175e-18)
(1.08528 10.5078 3.82887e-17)
(0.610321 9.70525 -1.18064e-16)
(0.218185 8.79632 -2.19823e-16)
(-0.0621737 7.80424 2.6049e-16)
(-0.204216 6.7814 -3.72522e-16)
(-0.198966 5.77345 -2.5426e-16)
(-0.0525585 4.80892 -3.12898e-16)
(0.217042 3.91668 7.45429e-16)
(0.58661 3.12199 -9.3816e-16)
(1.032 2.43251 -5.38879e-16)
(1.52989 1.84033 5.35196e-16)
(2.06205 1.34032 -1.26179e-15)
(2.61339 0.925889 2.2143e-16)
(3.17134 0.588028 0)
(3.72797 0.316561 -9.77911e-16)
(4.27943 0.102343 3.55445e-16)
(4.82439 -0.0619064 -1.45304e-15)
(5.36282 -0.181101 0)
(5.8951 -0.257534 1.03312e-15)
(6.42086 -0.291177 8.6165e-16)
(6.93578 -0.280056 -7.5979e-16)
(7.4295 -0.226009 0)
(7.89371 -0.138407 -6.37123e-16)
(8.32759 -0.0249031 0)
(8.73264 0.109741 0)
(9.10954 0.261294 0)
(9.46001 0.425005 1.80841e-16)
(9.78701 0.597786 0)
(10.0939 0.77627 0)
(10.3864 0.958634 -8.10246e-16)
(10.6704 1.14446 -6.07557e-16)
(10.9593 1.33668 0)
(11.2558 1.5413 -4.5065e-16)
(11.6219 1.7783 3.42114e-17)
(11.9697 2.08473 0)
(12.8464 2.60049 1.98973e-15)
(3.78064 11.9497 -8.12396e-18)
(4.32927 12.2613 6.25396e-18)
(4.94152 12.5363 0)
(5.59462 12.7525 -2.89535e-18)
(6.25731 12.8902 -1.55322e-16)
(6.93428 12.948 1.4473e-16)
(7.60028 12.9221 1.51693e-17)
(8.22538 12.8176 -4.31401e-16)
(8.79513 12.6422 -3.97376e-17)
(9.2969 12.4062 4.38636e-16)
(9.72325 12.1229 -1.45844e-16)
(10.0741 11.8102 2.72912e-16)
(10.3605 11.4987 1.27909e-16)
(10.6177 11.2387 1.05087e-16)
(10.9059 11.0901 0)
(11.2573 11.0515 -1.10954e-16)
(11.522 10.8967 -2.14134e-16)
(11.1772 10.1094 -8.26343e-16)
(9.45908 8.18046 2.75343e-16)
(6.13327 5.29193 -4.10804e-16)
(2.26368 2.55642 -9.2451e-17)
(-0.488296 1.00824 0)
(-1.82921 0.463901 9.81428e-16)
(-2.56471 0.290328 6.02409e-17)
(-3.06636 0.242146 -2.83134e-17)
(-3.46402 0.241201 -3.74447e-16)
(-3.80592 0.266788 8.29883e-17)
(-4.10883 0.30915 1.74208e-16)
(-4.37798 0.363617 -6.47276e-16)
(-4.60982 0.424975 -3.78881e-17)
(-4.78895 0.483142 1.22396e-15)
(-4.89011 0.525843 2.14094e-15)
(-4.88672 0.542292 0)
(-4.75175 0.528261 2.50639e-17)
(-4.4493 0.469665 -2.65341e-15)
(-3.96016 0.314733 0)
(-3.25586 0.212713 -7.42034e-15)
(-1.39298 -0.399173 0)
(-1.23465 -1.35761 -3.35859e-15)
(3.27692 11.5977 4.38877e-18)
(2.78997 11.1902 4.68779e-19)
(2.29444 10.677 0)
(1.80214 10.0538 0)
(1.36443 9.34028 5.62025e-17)
(0.994797 8.53226 3.89796e-16)
(0.717482 7.64815 0)
(0.556262 6.73397 -3.5143e-16)
(0.520202 5.82823 -4.41794e-16)
(0.60592 4.95251 5.53972e-16)
(0.800699 4.1314 -1.42189e-17)
(1.08766 3.38811 3.98807e-16)
(1.4498 2.72768 -9.35903e-18)
(1.86926 2.14623 1.33016e-15)
(2.33033 1.64435 1.26556e-15)
(2.82009 1.21825 -1.20608e-15)
(3.327 0.862328 1.83885e-16)
(3.84258 0.569656 -3.43543e-16)
(4.36144 0.333534 1.60283e-16)
(4.88055 0.148047 1.00318e-15)
(5.39824 0.00892258 1.32808e-16)
(5.91351 -0.0861747 -1.13019e-16)
(6.42494 -0.137597 -7.22951e-16)
(6.92805 -0.144471 0)
(7.41335 -0.10857 3.94157e-17)
(7.8726 -0.0375312 1.12291e-15)
(8.30389 0.0613552 -7.60631e-18)
(8.70794 0.183287 7.36066e-18)
(9.08507 0.32391 0)
(9.43668 0.478409 -1.6454e-16)
(9.7654 0.643525 0)
(10.0744 0.815873 0)
(10.3691 0.993511 7.24874e-16)
(10.6551 1.17608 5.77377e-16)
(10.9456 1.36635 0)
(11.2428 1.57103 4.06936e-16)
(11.6066 1.80902 -1.3788e-16)
(11.9497 2.12597 -2.78262e-18)
(12.7689 2.6417 -1.75772e-15)
(4.15745 11.3975 -2.50446e-18)
(4.64057 11.6916 4.06832e-18)
(5.18106 11.9589 -3.2427e-17)
(5.757 12.1788 3.27138e-17)
(6.34003 12.3331 9.8803e-17)
(6.93883 12.4233 0)
(7.53066 12.4448 -2.21029e-16)
(8.09837 12.396 2.49837e-17)
(8.63503 12.2797 -1.53689e-16)
(9.12503 12.1056 -2.78872e-16)
(9.55736 11.887 0)
(9.92693 11.638 -5.06115e-16)
(10.2326 11.3727 -3.72823e-16)
(10.4839 11.108 -8.16034e-16)
(10.7113 10.8765 0)
(10.9747 10.7351 -4.13767e-16)
(11.3208 10.6955 -3.90684e-16)
(11.5946 10.5419 3.80667e-16)
(11.19 9.71248 -3.79102e-16)
(9.25578 7.70032 4.0783e-16)
(5.69184 4.83919 6.38736e-17)
(1.87071 2.34402 -7.7373e-16)
(-0.606945 1.04056 0)
(-1.80665 0.569934 -9.52605e-16)
(-2.49872 0.402459 5.11639e-17)
(-2.9847 0.3483 3.76937e-16)
(-3.37454 0.341316 0)
(-3.70806 0.359552 -9.88546e-18)
(-4.00021 0.393966 2.68835e-17)
(-4.25236 0.436811 1.05224e-15)
(-4.45133 0.476856 -1.00985e-15)
(-4.57161 0.500962 -1.87618e-15)
(-4.58448 0.498264 1.65853e-15)
(-4.46335 0.464818 1.16077e-18)
(-4.18242 0.389832 2.24392e-15)
(-3.73536 0.218614 3.56955e-15)
(-3.1282 0.0942323 3.09004e-15)
(-1.36958 -0.509292 -3.32788e-17)
(-1.34189 -1.50404 9.88629e-18)
(3.71302 11.0695 -1.08359e-18)
(3.28324 10.6953 1.1432e-17)
(2.84191 10.2269 2.9036e-17)
(2.39891 9.66109 -3.85657e-17)
(2.00067 9.0178 -2.29094e-16)
(1.65719 8.29032 9.33592e-17)
(1.38974 7.49348 2.56787e-16)
(1.22064 6.66857 8.29056e-16)
(1.15857 5.84881 4.3336e-16)
(1.20181 5.05068 -5.00644e-16)
(1.34085 4.29574 -3.05545e-17)
(1.56374 3.60364 -3.84642e-16)
(1.85775 2.97696 0)
(2.20951 2.41466 -1.69372e-17)
(2.60652 1.91978 -7.42494e-16)
(3.03852 1.49045 3.47216e-16)
(3.49547 1.12377 -3.31717e-16)
(3.96917 0.815797 0)
(4.4536 0.56205 5.63956e-16)
(4.94466 0.358148 -1.04271e-15)
(5.43941 0.200861 0)
(5.9357 0.0881447 8.48532e-16)
(6.43126 0.0194277 0)
(6.92131 -0.00509168 -4.09948e-17)
(7.39698 0.0129362 3.94863e-17)
(7.85004 0.0672667 -5.20598e-16)
(8.2777 0.151246 -8.49758e-18)
(8.67991 0.260006 -6.8378e-18)
(9.05662 0.389172 2.65081e-18)
(9.40884 0.533927 -1.57167e-16)
(9.73886 0.690913 -2.613e-16)
(10.0496 0.85671 4.2032e-16)
(10.3461 1.02929 1.1961e-17)
(10.6338 1.2083 8.08931e-18)
(10.9253 1.39639 0)
(11.2227 1.60095 3.60591e-18)
(11.5831 1.83974 7.87389e-17)
(11.9207 2.16592 6.90044e-18)
(12.6839 2.68045 -1.47156e-15)
(4.52367 10.9199 -5.83706e-19)
(4.96118 11.1971 -5.56727e-18)
(5.45036 11.4538 0)
(5.97124 11.6699 -1.21089e-17)
(6.49734 11.8294 6.29163e-17)
(7.03962 11.9352 0)
(7.57878 11.982 -7.57142e-17)
(8.09811 11.9695 5.80938e-16)
(8.59129 11.901 -6.75455e-16)
(9.04679 11.7825 2.09497e-16)
(9.45754 11.623 2.25305e-16)
(9.82133 11.433 6.72085e-16)
(10.1367 11.2236 4.27928e-16)
(10.4055 11.003 4.36812e-16)
(10.6344 10.7782 1.03065e-16)
(10.8462 10.5726 3.02146e-16)
(11.0976 10.4394 3.8041e-16)
(11.4371 10.3952 3.52534e-16)
(11.6709 10.1902 -2.52524e-16)
(11.07 9.20943 -7.80386e-16)
(8.75916 7.03299 0)
(4.96559 4.24381 2.08476e-18)
(1.35408 2.06806 6.57737e-16)
(-0.767852 1.0215 8.44073e-16)
(-1.81812 0.628928 -4.79983e-17)
(-2.45981 0.482166 -3.51856e-16)
(-2.92779 0.429905 2.49252e-18)
(-3.30656 0.419091 -1.63807e-16)
(-3.62964 0.431351 1.6291e-17)
(-3.9071 0.454788 -1.90093e-15)
(-4.1296 0.476063 -2.33041e-19)
(-4.27204 0.480747 -2.68608e-17)
(-4.30355 0.458151 -1.51263e-15)
(-4.1966 0.404845 1.50676e-18)
(-3.93399 0.31369 -1.9777e-15)
(-3.52159 0.127892 -6.17038e-15)
(-3.01061 -0.0195664 2.62156e-15)
(-1.37913 -0.606643 1.56893e-15)
(-1.47578 -1.61348 -2.64922e-15)
(4.12018 10.614 -2.27089e-18)
(3.73056 10.2686 -1.83201e-17)
(3.32854 9.83816 -2.36057e-17)
(2.92329 9.31947 -6.15988e-17)
(2.55656 8.73307 1.33857e-16)
(2.23566 8.07083 3.69122e-18)
(1.97914 7.34532 -7.39806e-16)
(1.80764 6.59426 -3.43901e-16)
(1.72908 5.8469 -1.61775e-17)
(1.74243 5.11634 0)
(1.84 4.42179 -5.73751e-16)
(2.01296 3.77845 6.42611e-16)
(2.25164 3.18736 -6.61699e-16)
(2.54595 2.64929 -3.37746e-16)
(2.88645 2.16766 3.16037e-16)
(3.26544 1.74179 3.05163e-16)
(3.67468 1.37087 1.17066e-15)
(4.10682 1.05313 -2.79443e-16)
(4.55593 0.786105 -5.17548e-16)
(5.01738 0.566952 0)
(5.48744 0.393571 -8.62279e-16)
(5.96308 0.264472 -6.90744e-16)
(6.4413 0.179229 -5.44495e-18)
(6.91709 0.137611 -8.17963e-17)
(7.38191 0.138194 -3.39807e-17)
(7.82757 0.176024 5.36037e-16)
(8.25052 0.24502 -1.32489e-17)
(8.65002 0.340381 1.10385e-16)
(9.02559 0.45777 2.36821e-17)
(9.37787 0.592436 1.4201e-16)
(9.70875 0.740935 -2.2918e-18)
(10.0209 0.899823 -8.23806e-16)
(10.319 1.06702 -6.35846e-16)
(10.6081 1.24216 -4.96e-16)
(10.9005 1.4278 -1.08089e-17)
(11.1978 1.63196 4.11791e-18)
(11.5543 1.8713 -1.35915e-16)
(11.8861 2.20516 5.94406e-16)
(12.5953 2.71728 1.35141e-15)
(4.84685 10.5073 1.28167e-18)
(5.24415 10.7701 4.04651e-18)
(5.68845 11.0177 3.57662e-17)
(6.16103 11.2306 -1.72612e-16)
(6.63713 11.394 1.00269e-16)
(7.12905 11.5126 -1.28164e-16)
(7.61982 11.5807 3.3247e-16)
(8.09483 11.5977 0)
(8.55204 11.5654 2.13568e-16)
(8.9815 11.4872 -5.1609e-18)
(9.37629 11.3701 -1.99667e-16)
(9.73411 11.2229 -6.29295e-16)
(10.0534 11.0551 -2.1608e-16)
(10.3354 10.8748 0)
(10.5829 10.6853 0)
(10.7998 10.4881 0)
(11.004 10.3013 0)
(11.2525 10.1802 -3.4297e-16)
(11.5876 10.1249 3.27016e-16)
(11.7227 9.80984 3.18202e-16)
(10.7734 8.58262 -2.83526e-16)
(7.99378 6.23532 2.85192e-16)
(4.07653 3.60472 -3.92381e-16)
(0.8263 1.79215 -3.94886e-17)
(-0.926331 0.97997 -2.26435e-17)
(-1.84368 0.664879 3.55419e-16)
(-2.44135 0.540212 7.51304e-17)
(-2.8894 0.491038 0)
(-3.25588 0.47741 0)
(-3.56646 0.47978 3.07891e-19)
(-3.8185 0.481328 0)
(-3.98806 0.465614 1.55695e-15)
(-4.04197 0.422089 -1.424e-15)
(-3.95043 0.348104 -2.23472e-15)
(-3.70383 0.240843 3.53334e-15)
(-3.31894 0.0424398 2.75089e-15)
(-2.89952 -0.127579 -2.28364e-15)
(-1.41077 -0.692128 -2.83298e-15)
(-1.62368 -1.69026 2.43689e-15)
(4.47959 10.2197 0)
(4.12505 9.89802 4.85113e-18)
(3.75738 9.49876 3.94843e-17)
(3.385 9.01899 -2.15618e-16)
(3.04614 8.47954 2.06148e-16)
(2.74597 7.87132 -1.78291e-16)
(2.5012 7.20518 -1.56658e-17)
(2.33088 6.51597 2.65368e-16)
(2.24239 5.83028 3.53706e-16)
(2.23464 5.1589 0)
(2.3014 4.51838 2.65448e-16)
(2.43544 3.92043 -8.67852e-16)
(2.62921 3.36515 1.45565e-15)
(2.87528 2.85393 2.85066e-16)
(3.16665 2.38974 -5.76549e-16)
(3.49783 1.97257 -5.58148e-16)
(3.86242 1.60278 -5.34165e-16)
(4.25425 1.28023 0)
(4.66797 1.00402 0)
(5.09893 0.772843 0)
(5.54298 0.585691 8.0212e-16)
(5.99656 0.441817 0)
(6.45616 0.341039 -5.74381e-16)
(6.91654 0.283103 -7.63075e-17)
(7.36937 0.266874 -5.29531e-16)
(7.80644 0.288475 -4.72499e-16)
(8.22361 0.342489 0)
(8.61947 0.424309 -9.18064e-17)
(8.99316 0.529667 -2.46857e-17)
(9.34487 0.653936 4.59233e-18)
(9.67614 0.793578 4.66288e-16)
(9.98928 0.945234 -4.10083e-18)
(10.2886 1.10671 6.09109e-16)
(10.5791 1.2777 -4.70843e-16)
(10.872 1.46061 0)
(11.1691 1.66411 -3.60283e-18)
(11.5212 1.90376 -2.85728e-17)
(11.8472 2.24379 -5.63356e-16)
(12.5043 2.75271 6.25737e-18)
(5.14412 10.1448 1.02401e-18)
(5.50858 10.3946 0)
(5.91614 10.6331 -4.38185e-17)
(6.34924 10.8414 6.36713e-17)
(6.78459 11.0058 -4.8605e-17)
(7.23527 11.132 1.21736e-16)
(7.68602 11.2143 -1.47375e-16)
(8.12421 11.2518 -1.53547e-16)
(8.54836 11.2471 0)
(8.95082 11.2018 -1.88003e-16)
(9.32602 11.1208 -1.76358e-16)
(9.67241 11.0102 1.67958e-16)
(9.98829 10.8773 5.31906e-16)
(10.2745 10.7291 1.81364e-16)
(10.5335 10.5707 -5.14691e-16)
(10.7669 10.4024 -3.34523e-16)
(10.9754 10.2223 2.42124e-16)
(11.1755 10.0501 1.60175e-16)
(11.4311 9.94357 -7.61284e-17)
(11.7547 9.85774 7.539e-17)
(11.6947 9.35577 1.87322e-16)
(10.2534 7.8283 3.88141e-17)
(7.00868 5.37081 -4.74229e-17)
(3.14931 2.99813 -4.22486e-16)
(0.365229 1.55134 0)
(-1.06435 0.937859 -3.22411e-16)
(-1.88039 0.68696 -1.44372e-16)
(-2.43723 0.58088 -1.2865e-16)
(-2.86628 0.534747 -4.6027e-16)
(-3.22105 0.513295 1.6947e-15)
(-3.51083 0.493614 7.22298e-16)
(-3.71461 0.456189 2.32108e-17)
(-3.79669 0.390346 -1.06835e-18)
(-3.7233 0.294488 0)
(-3.49153 0.170898 -1.62835e-15)
(-3.12754 -0.0379709 0)
(-2.79243 -0.229019 0)
(-1.45607 -0.766243 1.29905e-15)
(-1.77629 -1.73623 -1.51347e-17)
(4.80657 9.87329 -5.0645e-18)
(4.48099 9.572 2.79486e-17)
(4.14195 9.1993 -3.02643e-18)
(3.79751 8.75244 4.318e-17)
(3.48277 8.2524 -2.11146e-16)
(3.20134 7.68966 1.82878e-16)
(2.96817 7.07362 2.94005e-17)
(2.80125 6.43695 -2.46486e-16)
(2.70716 5.80424 -3.04118e-16)
(2.68468 5.18481 -3.80012e-16)
(2.72845 4.59216 -9.18961e-16)
(2.83215 4.03584 0)
(2.98952 3.51561 -5.16116e-16)
(3.19532 3.03221 -1.36038e-17)
(3.4444 2.58815 0)
(3.73303 2.1835 -4.89347e-16)
(4.05648 1.81926 -2.35552e-16)
(4.40993 1.49619 -2.29475e-16)
(4.7889 1.21465 8.51171e-16)
(5.18906 0.974606 7.9447e-16)
(5.60628 0.776141 -9.03609e-17)
(6.03674 0.619224 6.75989e-16)
(6.47659 0.504144 1.56889e-16)
(6.92052 0.430841 -7.13911e-17)
(7.36028 0.398518 4.68612e-16)
(7.78764 0.404279 2.9106e-17)
(8.19797 0.443455 0)
(8.58928 0.511688 0)
(8.96028 0.604841 -4.51049e-18)
(9.31078 0.718463 1.2102e-17)
(9.64191 0.848963 -4.53434e-16)
(9.95564 0.993067 -3.83242e-18)
(10.256 1.14852 6.0899e-16)
(10.5473 1.31507 4.45999e-16)
(10.8407 1.495 8.11623e-18)
(11.1373 1.69754 -4.07577e-18)
(11.4847 1.93723 3.29296e-16)
(11.8045 2.28193 4.49931e-16)
(12.4116 2.7866 -5.50819e-18)
(5.41651 9.82353 5.35911e-19)
(5.75282 10.0617 0)
(6.12891 10.2917 1.65481e-17)
(6.52825 10.4953 0)
(6.92869 10.6593 -8.02224e-17)
(7.34385 10.7905 8.13376e-17)
(7.75983 10.8833 1.0858e-16)
(8.16551 10.9366 1.45999e-16)
(8.56007 10.9531 0)
(8.93819 10.9334 -1.43123e-16)
(9.29509 10.8807 1.85369e-16)
(9.6295 10.7998 -3.44723e-16)
(9.9396 10.6961 -1.73019e-16)
(10.2256 10.5751 -1.60797e-16)
(10.4892 10.4414 3.30745e-16)
(10.7326 10.2978 3.22816e-16)
(10.9559 10.1421 -3.14192e-16)
(11.1575 9.97161 -2.97505e-16)
(11.3577 9.81282 0)
(11.6305 9.71961 7.19362e-17)
(11.9071 9.55814 -1.37945e-16)
(11.519 8.79128 3.31513e-17)
(9.48606 6.96374 -1.29055e-18)
(5.8945 4.51185 8.27623e-16)
(2.29477 2.47191 -6.0206e-17)
(0.000604517 1.36218 3.54962e-17)
(-1.19212 0.898106 1.40511e-16)
(-1.92304 0.698502 1.40164e-16)
(-2.44472 0.607326 4.0075e-16)
(-2.85929 0.557425 -7.93841e-16)
(-3.19738 0.514257 -6.58034e-16)
(-3.44455 0.453385 -2.73365e-15)
(-3.56296 0.363352 2.42454e-15)
(-3.51262 0.243946 -3.11873e-17)
(-3.29615 0.103422 1.53316e-15)
(-2.9473 -0.11372 -5.24118e-17)
(-2.68743 -0.32321 2.99221e-17)
(-1.50785 -0.829383 -2.12744e-17)
(-1.92779 -1.7578 2.10203e-15)
(5.10449 9.56613 1.9825e-18)
(4.80379 9.28244 -1.50734e-17)
(4.48946 8.93262 3.63743e-17)
(4.16922 8.51402 0)
(3.87571 8.04769 1.2861e-16)
(3.61126 7.52375 0)
(3.38944 6.95065 0)
(3.22721 6.35908 0)
(3.13046 5.77244 6.04665e-16)
(3.09784 5.19859 -3.74523e-16)
(3.1243 4.64848 4.30939e-16)
(3.20412 4.13019 0)
(3.33219 3.64329 0)
(3.5046 3.18763 -4.6091e-16)
(3.71758 2.7652 0)
(3.96872 2.37577 4.51055e-16)
(4.25478 2.02035 9.79967e-18)
(4.57227 1.70039 0)
(4.91766 1.41703 -5.99143e-16)
(5.28729 1.17117 -9.29371e-16)
(5.67729 0.963823 -6.79026e-16)
(6.08385 0.79575 -6.30996e-16)
(6.50309 0.667781 1.14281e-15)
(6.92965 0.580165 0)
(7.35534 0.53261 4.40142e-16)
(7.77191 0.523115 4.49363e-16)
(8.17438 0.547736 1.88404e-16)
(8.56022 0.602439 0)
(8.92776 0.683308 -1.82474e-17)
(9.27637 0.78606 -1.26243e-16)
(9.60679 0.907173 4.28068e-16)
(9.92067 1.04343 -3.5685e-18)
(10.2216 1.19259 -5.55821e-16)
(10.5136 1.35442 4.18524e-16)
(10.807 1.53111 3.65887e-18)
(11.1029 1.73235 7.5535e-18)
(11.445 1.97184 -3.79654e-16)
(11.7585 2.31957 -4.21035e-16)
(12.3178 2.8189 -1.75408e-15)
(5.66837 9.53607 -5.69486e-19)
(5.98054 9.76376 -1.29256e-18)
(6.32967 9.98577 0)
(6.70016 10.1842 3.37148e-17)
(7.07089 10.3467 0)
(7.4557 10.4808 0)
(7.84177 10.5808 2.08836e-18)
(8.21915 10.6455 1.15517e-16)
(8.58763 10.6781 2.65782e-16)
(8.94315 10.6784 5.8429e-16)
(9.28194 10.6486 2.87818e-16)
(9.60323 10.5923 2.92692e-16)
(9.90536 10.5135 0)
(10.1883 10.4162 4.49725e-16)
(10.4529 10.3042 -1.46446e-16)
(10.7007 10.1805 0)
(10.9331 10.0457 2.84907e-16)
(11.1484 9.8958 2.87351e-16)
(11.3436 9.73026 0)
(11.5522 9.58672 2.67159e-16)
(11.8442 9.49109 -2.60098e-16)
(11.9945 9.18588 0)
(11.1293 8.09576 -3.46603e-17)
(8.50022 6.03927 1.56388e-17)
(4.76689 3.72154 2.36939e-17)
(1.57294 2.04688 4.74154e-16)
(-0.291931 1.21623 -2.28253e-20)
(-1.30738 0.862395 -1.52898e-17)
(-1.9696 0.70186 -1.34928e-17)
(-2.46689 0.615194 2.39008e-17)
(-2.86687 0.54512 6.929e-16)
(-3.16864 0.458486 2.50721e-15)
(-3.33405 0.341838 3.70794e-17)
(-3.31436 0.196591 -1.83124e-15)
(-3.11591 0.038024 -1.3682e-15)
(-2.77785 -0.185299 -2.11419e-15)
(-2.58286 -0.409765 -1.68933e-15)
(-1.55967 -0.881829 3.93621e-17)
(-2.07144 -1.75836 -1.98265e-15)
(5.37824 9.29129 -8.88791e-18)
(5.09893 9.02313 -4.85933e-17)
(4.80601 8.69328 1.06196e-16)
(4.50698 8.29931 0)
(4.23219 7.86218 2.43014e-16)
(3.98317 7.37183 0)
(3.7723 6.83589 -1.89178e-16)
(3.61548 6.28353 8.84909e-16)
(3.51811 5.73734 -8.08468e-16)
(3.47871 5.20349 0)
(3.49215 4.69106 7.48297e-16)
(3.55306 4.20753 7.63265e-16)
(3.65751 3.75192 0)
(3.80231 3.32337 -7.99771e-16)
(3.98458 2.92313 2.03838e-16)
(4.20298 2.55055 -2.00559e-16)
(4.45545 2.20651 2.01998e-16)
(4.73966 1.89258 3.77822e-16)
(5.05311 1.61041 -3.74235e-18)
(5.39291 1.36158 5.01282e-16)
(5.75569 1.14784 1.64572e-16)
(6.13792 0.970635 -1.49168e-16)
(6.53589 0.831282 -5.36467e-16)
(6.94429 0.730568 4.8444e-16)
(7.35503 0.66876 -3.8969e-16)
(7.75983 0.644665 -4.51736e-16)
(8.15346 0.655102 -1.78855e-16)
(8.53294 0.696424 -2.36314e-18)
(8.8962 0.764975 1.96768e-17)
(9.24225 0.856729 1.20362e-16)
(9.57139 0.968236 1.56414e-18)
(9.88493 1.09639 -3.30139e-18)
(10.186 1.23899 5.60173e-16)
(10.4784 1.39582 -4.26604e-16)
(10.7716 1.56901 7.81416e-18)
(11.0664 1.76861 -3.73677e-16)
(11.4028 2.00752 1.96185e-16)
(11.7096 2.35676 0)
(12.2235 2.84988 1.69869e-15)
(5.90212 9.27693 1.31407e-18)
(6.19335 9.49501 0)
(6.51906 9.70941 0)
(6.86454 9.90262 -6.81468e-17)
(7.20956 10.063 -5.29307e-18)
(7.56801 10.1984 0)
(7.92802 10.3034 0)
(8.28049 10.3765 -4.04915e-16)
(8.62592 10.4212 -2.13146e-17)
(8.96075 10.4372 -2.07443e-17)
(9.28238 10.4257 -6.81221e-16)
(9.59046 10.3893 -1.52166e-16)
(9.88347 10.3312 2.70591e-16)
(10.1613 10.2544 -1.38451e-17)
(10.4245 10.1617 0)
(10.6737 10.0555 0)
(10.9102 9.93731 -8.09067e-16)
(11.1345 9.80632 -1.35682e-16)
(11.3425 9.65697 1.28138e-16)
(11.5341 9.49499 -2.58996e-16)
(11.7625 9.3661 5.01054e-16)
(12.0511 9.23092 2.43831e-16)
(11.9481 8.7022 -2.46666e-16)
(10.4946 7.2851 -3.05427e-16)
(7.37377 5.11714 5.86909e-17)
(3.71329 3.03696 -4.08936e-16)
(0.986142 1.71797 -5.71312e-17)
(-0.529389 1.10271 1.47227e-17)
(-1.41062 0.830478 -1.31925e-17)
(-2.02569 0.691227 4.65775e-17)
(-2.50579 0.588668 -4.80247e-20)
(-2.87563 0.473219 -1.25601e-15)
(-3.10116 0.326898 -3.15355e-17)
(-3.12281 0.152778 2.48474e-17)
(-2.94805 -0.0256139 0)
(-2.61832 -0.253348 1.94198e-15)
(-2.47725 -0.48858 1.53679e-15)
(-1.60591 -0.923992 0)
(-2.20183 -1.7414 0)
(5.63111 9.04358 0)
(5.37038 8.7892 4.72723e-17)
(5.09631 8.47702 -1.72577e-16)
(4.81597 8.10473 -9.26892e-17)
(4.5579 7.69322 -2.27872e-16)
(4.32288 7.23227 0)
(4.12241 6.72884 0)
(3.97145 6.211 -4.14812e-16)
(3.87487 5.70057 5.148e-16)
(3.83088 5.20206 0)
(3.83449 4.72314 -3.3139e-16)
(3.88065 4.27125 -3.6016e-16)
(3.96607 3.84477 3.58272e-16)
(4.08803 3.44213 3.77765e-16)
(4.24433 3.06398 -7.2215e-16)
(4.4343 2.7092 0)
(4.65684 2.37828 -1.77585e-16)
(4.91059 2.07275 1.9799e-18)
(5.19402 1.79439 8.21042e-16)
(5.50509 1.54516 -1.66124e-16)
(5.84104 1.32736 1.58432e-16)
(6.19884 1.143 -1.3295e-16)
(6.57507 0.993916 1.88545e-16)
(6.96468 0.88142 -9.70528e-16)
(7.35968 0.80642 -3.64731e-16)
(7.75183 0.768535 3.50645e-16)
(8.13568 0.765279 -2.21742e-17)
(8.50792 0.793484 0)
(8.86611 0.849797 -1.66779e-17)
(9.20889 0.930486 1.09308e-16)