/*--------------------------------*- C++ -*----------------------------------*\
  =========                 |
  \\      /  F ield         | OpenFOAM: The Open Source CFD Toolbox
   \\    /   O peration     | Website:  https://openfoam.org
    \\  /    A nd           | Version:  9
     \\/     M anipulation  |
\*---------------------------------------------------------------------------*/
FoamFile
{
    format      ascii;
    class       volScalarField;
    location    "1550";
    object      alphat;
}
// * * * * * * * * * * * * * * * * * * * * * * * * * * * * * * * * * * * * * //

dimensions      [1 -1 -1 0 0 0 0];

internalField   nonuniform List<scalar> 
4000
(
0.000359825
0.000323973
0.00025333
0.000188513
0.000149991
0.000140551
0.000126594
0.000115784
0.000112077
0.000111837
0.000111523
0.000110864
0.000115034
0.000129298
0.000144477
0.000163392
0.000233963
0.000301216
0.000354351
0.000382856
0.000415489
0.000398953
0.000373383
0.000334479
0.00029769
0.000256105
0.000170498
0.000146386
0.000141893
0.000144289
0.000144951
0.000142559
0.00014888
0.000183528
0.000268638
0.000308215
0.000341246
0.00037718
0.000403013
0.000420414
0.000433785
0.000420201
0.000392733
0.000358488
0.000320586
0.000283895
0.00024518
0.000195482
0.000152857
0.000162258
0.000163398
0.000156268
0.000200672
0.000245647
0.000284252
0.000321299
0.000359417
0.000394923
0.000423315
0.000437154
0.000443398
0.000435035
0.000411264
0.000376633
0.000335489
0.000296304
0.000262247
0.000228717
0.000203118
0.000198957
0.000206389
0.000219416
0.000242684
0.000268871
0.000298773
0.000337112
0.000379182
0.000414016
0.000437966
0.000446362
0.000449611
0.000447423
0.000432668
0.000411892
0.000389406
0.0003691
0.000352155
0.000338083
0.000327516
0.000321355
0.00032706
0.000335566
0.000345955
0.000359046
0.000374869
0.000394159
0.000415865
0.000436167
0.000450611
0.00045263
0.000454688
0.000459672
0.000456102
0.000448815
0.000440324
0.000431432
0.00042264
0.000413778
0.000405058
0.000397595
0.000401716
0.000410438
0.000419341
0.000428067
0.000436623
0.000445184
0.000453269
0.000460148
0.000463292
0.000457934
0.000459861
0.000472077
0.000478051
0.000480482
0.00048094
0.000479362
0.000475585
0.000469806
0.0004619
0.000452699
0.000456037
0.000465958
0.000474338
0.000480473
0.000484437
0.000486065
0.000485443
0.00048266
0.00047616
0.0004634
0.00046587
0.000485255
0.000499351
0.000509006
0.000515727
0.000519473
0.000519984
0.000516854
0.000509418
0.000498084
0.000501122
0.000512754
0.000520873
0.000524747
0.00052478
0.000521303
0.000514542
0.00050456
0.000489843
0.000469744
0.00047407
0.00050185
0.000523343
0.000539106
0.000550928
0.000559035
0.000563339
0.000562933
0.000556229
0.000542593
0.000545661
0.000559181
0.000566805
0.000568299
0.000564803
0.0005571
0.000545271
0.000529166
0.000506989
0.00047831
0.000486306
0.000522372
0.000551412
0.000572904
0.000589814
0.000602829
0.000611745
0.000615704
0.000613062
0.000601575
0.00060475
0.000615919
0.000619296
0.000616331
0.000608281
0.000595856
0.000579216
0.000557578
0.000527948
0.000490908
0.000323973
0.000302885
0.000248214
0.000203475
0.000183748
0.000178873
0.000168954
0.000143455
0.000133068
0.000132115
0.000132425
0.000134626
0.000148719
0.000173177
0.000179918
0.000188863
0.0002327
0.000288929
0.000336719
0.000354034
0.000398953
0.000541922
0.000527341
0.00046268
0.000424084
0.000399253
0.000346263
0.000320374
0.00033483
0.00038351
0.000377063
0.000326794
0.000306254
0.00034847
0.000418069
0.000442473
0.000477129
0.000539201
0.00055048
0.000402834
0.000420201
0.000557074
0.000566617
0.000517058
0.000455005
0.00041072
0.000378332
0.000343618
0.000346259
0.000419383
0.000406214
0.000347505
0.000348232
0.000378498
0.000416226
0.000461212
0.000523633
0.000577199
0.000568879
0.000423506
0.000435035
0.000586163
0.000608288
0.000555497
0.000469456
0.00040962
0.000368321
0.000329384
0.000318374
0.000407504
0.0003722
0.000317836
0.000336833
0.000372866
0.00041579
0.000477802
0.000564329
0.000614959
0.000591962
0.000438373
0.000447423
0.000616574
0.000652255
0.000610874
0.000513929
0.000434392
0.000383984
0.000337861
0.000311535
0.00032417
0.000323857
0.000321955
0.000353146
0.000396566
0.000447105
0.00052642
0.000619514
0.000657547
0.000620593
0.000451129
0.000459672
0.000642592
0.000690939
0.000677972
0.000608951
0.000509235
0.000447392
0.000400726
0.000374462
0.000372559
0.000377549
0.000386521
0.000417006
0.000464353
0.00052847
0.000622463
0.000684349
0.000693868
0.000645362
0.000463758
0.000472077
0.000659564
0.000713984
0.00073559
0.000729955
0.000689226
0.000608302
0.000535193
0.000485961
0.00047054
0.000478233
0.000502173
0.000559734
0.00063198
0.000704925
0.000740052
0.000740847
0.00071645
0.000662478
0.000476542
0.000485255
0.000666586
0.000719822
0.000768285
0.000807678
0.000820817
0.000809848
0.000785941
0.000752474
0.000721117
0.000727219
0.000762359
0.00079659
0.000822047
0.000832606
0.000818242
0.000774935
0.000724404
0.000671166
0.000490171
0.00050185
0.000645841
0.000706608
0.000751775
0.000783935
0.000799023
0.000800969
0.000787417
0.00074965
0.000692563
0.000697621
0.000755621
0.000798627
0.000817227
0.000816269
0.000799251
0.00076339
0.000715822
0.000653474
0.000507246
0.000522372
0.000560048
0.000591518
0.000616375
0.000637632
0.000655596
0.000669294
0.000676807
0.000675477
0.000662863
0.000666009
0.000678485
0.000680785
0.000674617
0.000662133
0.000645013
0.00062416
0.000599122
0.000566925
0.000528069
0.00025333
0.000248214
0.000221101
0.000202403
0.000199867
0.000202878
0.000188629
0.000162582
0.000147625
0.000144342
0.000145369
0.000151692
0.0001693
0.000193467
0.000200097
0.000197909
0.000215555
0.000253113
0.0002883
0.000300067
0.000373383
0.000527341
0.000527419
0.000494505
0.000482034
0.000467207
0.000419313
0.000391017
0.000403293
0.000458072
0.000447048
0.000395232
0.00037998
0.000419115
0.000489843
0.000507462
0.000513909
0.000542191
0.000536154
0.000375787
0.000392733
0.000566617
0.000602183
0.000560798
0.000514006
0.000481601
0.000462964
0.000438167
0.000435105
0.000499021
0.000489693
0.000441111
0.000443494
0.000462872
0.00048985
0.000525594
0.000571054
0.000612247
0.000577467
0.000395099
0.000411264
0.000608288
0.000655523
0.000615839
0.000537802
0.000483709
0.000451585
0.000424593
0.000429019
0.000503516
0.000485138
0.000429815
0.000430652
0.000455613
0.000493345
0.000553289
0.000631809
0.000666252
0.000615591
0.000414844
0.000432668
0.000652255
0.000708537
0.000671232
0.000571924
0.000489789
0.000439102
0.000396522
0.000371431
0.000402371
0.000395567
0.000379629
0.000408341
0.000450061
0.00050388
0.000587948
0.00068475
0.000716938
0.000657528
0.000437176
0.000456102
0.000690939
0.000758134
0.000734278
0.000633336
0.000520837
0.000448124
0.000392107
0.000353477
0.00035522
0.000358658
0.000367753
0.000410012
0.00046643
0.000540492
0.000648264
0.0007422
0.000761342
0.000693327
0.00046093
0.000478051
0.000713984
0.00079161
0.000787761
0.00071294
0.000610876
0.000525686
0.000459828
0.000415443
0.000403623
0.000409083
0.00043002
0.000482759
0.000550769
0.000632908
0.000726218
0.00079235
0.000792421
0.000715997
0.000483261
0.000499351
0.000719822
0.000814998
0.000852798
0.000830593
0.00077069
0.00070934
0.000654279
0.000601109
0.000560377
0.000566383
0.000616311
0.000678676
0.00073961
0.000797546
0.000847734
0.000858859
0.000818589
0.000724834
0.000505043
0.000523343
0.000706608
0.000856452
0.000990094
0.00106993
0.00110118
0.00109209
0.001064
0.000992525
0.000882123
0.00088986
0.00100674
0.0010894
0.00112886
0.0011349
0.00109712
0.00100919
0.000869834
0.000717111
0.000529627
0.000551412
0.000591518
0.000624702
0.000651816
0.000676238
0.000698238
0.000716307
0.0007273
0.000727415
0.000713158
0.000716247
0.000730564
0.000731657
0.00072235
0.000705829
0.000684893
0.000660926
0.000633483
0.000599355
0.000557836
0.000188513
0.000203475
0.000202403
0.000204897
0.00021124
0.000216808
0.000199006
0.00017493
0.000159039
0.000155532
0.000156492
0.000163005
0.000180378
0.0002027
0.000215173
0.00020655
0.000204765
0.000215776
0.000231944
0.000231445
0.000334479
0.00046268
0.000494505
0.000503902
0.00051555
0.000499418
0.000458698
0.000434888
0.000449208
0.000518136
0.000510788
0.000447728
0.000427799
0.000450694
0.000514946
0.000542862
0.00052704
0.000508492
0.000469573
0.000338109
0.000358488
0.000517058
0.000560798
0.000551103
0.000533381
0.000522643
0.000518439
0.000496514
0.000493781
0.000566482
0.00056085
0.000501798
0.000501315
0.000517164
0.0005272
0.000545484
0.000561863
0.000568417
0.00052172
0.00035946
0.000376633
0.000555497
0.000615839
0.000597686
0.000554809
0.000524971
0.000509242
0.000495273
0.000506234
0.000573333
0.000561864
0.000512322
0.000502565
0.000512413
0.000533449
0.000571149
0.000616409
0.000630611
0.000564537
0.000380608
0.000411892
0.000610874
0.000671232
0.000652287
0.000588847
0.000532728
0.00049779
0.000471239
0.000465569
0.000523781
0.00051085
0.000471319
0.000481026
0.000507188
0.00054607
0.000605796
0.000668826
0.000683691
0.000619519
0.000417274
0.000448815
0.000677972
0.000734278
0.000717661
0.000640997
0.000556173
0.000496852
0.000451187
0.00042088
0.000438831
0.000437884
0.000433573
0.000467671
0.000513718
0.000574097
0.000655944
0.000727387
0.000740306
0.000682596
0.000454198
0.000480482
0.00073559
0.000787761
0.000778022
0.000708651
0.000618757
0.000547931
0.000493505
0.000452728
0.000444856
0.000450658
0.000469995
0.000517358
0.000573253
0.000641254
0.00072247
0.000782781
0.000788973
0.000736775
0.00048615
0.000509006
0.000768285
0.000852798
0.000882234
0.000843398
0.000775493
0.000716786
0.000667876
0.000616192
0.000570033
0.000578932
0.000637454
0.000698873
0.000752517
0.000807422
0.000864201
0.000891245
0.000854601
0.000771349
0.000515192
0.000539106
0.000751775
0.000990094
0.00117775
0.00120041
0.00121318
0.00123326
0.00123546
0.00117318
0.00104753
0.00105057
0.00119168
0.00127189
0.00128391
0.00126694
0.00124746
0.00121962
0.00100787
0.000765201
0.00054598
0.000572904
0.000616375
0.000651816
0.00068149
0.000709982
0.000737068
0.000760438
0.000775987
0.000779217
0.000766973
0.000769871
0.000782483
0.00078073
0.000767105
0.000745557
0.000719665
0.000691637
0.000661375
0.000624749
0.000579691
0.000149991
0.000183748
0.000199867
0.00021124
0.000223174
0.000220439
0.000202497
0.000181843
0.000167352
0.00016507
0.000165762
0.000170547
0.000185832
0.00020475
0.0002198
0.000219225
0.000206381
0.00019797
0.000188375
0.00015825
0.00029769
0.000424084
0.000482034
0.00051555
0.00052528
0.000507285
0.000479736
0.000462911
0.000481684
0.000562529
0.000561638
0.000486676
0.000460166
0.00046753
0.000503816
0.000540156
0.000535842
0.000495423
0.000429073
0.000301833
0.000320586
0.000455005
0.000514006
0.000533381
0.000542181
0.000552613
0.000551319
0.000528301
0.000531855
0.000620369
0.000623507
0.000543566
0.000531612
0.000546486
0.000548045
0.000546065
0.000540772
0.000518199
0.000454574
0.000319597
0.000335489
0.000469456
0.000537802
0.000554809
0.000550552
0.000548113
0.000546967
0.000542675
0.000556919
0.000630921
0.000629533
0.000567467
0.000550928
0.000548073
0.000550192
0.000559138
0.000567081
0.00054812
0.000475433
0.000339981
0.000389406
0.000513929
0.000571924
0.000588847
0.00057247
0.000551854
0.000537736
0.000527793
0.000539181
0.000609084
0.000603328
0.000546882
0.00053631
0.000543857
0.000559996
0.000584075
0.000601888
0.000584517
0.000527233
0.000395701
0.000440324
0.000608951
0.000633336
0.000640997
0.000613311
0.000572183
0.00053847
0.000512676
0.000506742
0.00055802
0.000555212
0.000517297
0.000526149
0.000551326
0.000585424
0.000625617
0.000651919
0.000644508
0.000619816
0.00044606
0.00048094
0.000729955
0.00071294
0.000708651
0.000678996
0.000630035
0.000585051
0.000548829
0.000528342
0.000551771
0.000557097
0.000545533
0.000570478
0.000606545
0.000648858
0.000692187
0.000716989
0.000719222
0.000732507
0.000486776
0.000515727
0.000807678
0.000830593
0.000843398
0.000816913
0.000768266
0.00072397
0.000686582
0.000645607
0.000611721
0.000621965
0.000669217
0.000718864
0.000758846
0.00079938
0.000839017
0.000856748
0.00083654
0.000809903
0.000522093
0.000550928
0.000783935
0.00106993
0.00120041
0.00126967
0.00132624
0.00138218
0.00140063
0.00132191
0.00114852
0.00114541
0.00133685
0.00144082
0.00144216
0.00139154
0.00132764
0.00124776
0.00109344
0.000801381
0.000558075
0.000589814
0.000637632
0.000676238
0.000709982
0.000744965
0.000777952
0.000806359
0.000826316
0.000833151
0.000823846
0.000826993
0.000836366
0.000830965
0.000812996
0.000786405
0.000754786
0.000720364
0.000685933
0.000646021
0.000596592
0.000140551
0.000178873
0.000202878
0.000216808
0.000220439
0.000214025
0.000200479
0.000185101
0.000173974
0.000174142
0.000174578
0.000176287
0.000187703
0.000201569
0.000213063
0.000217528
0.000211493
0.000196936
0.000174574
0.000133327
0.000256105
0.000399253
0.000467207
0.000499418
0.000507285
0.000501356
0.000488498
0.000481456
0.000508832
0.000599153
0.000603766
0.00051887
0.000482163
0.000477291
0.000482517
0.000495498
0.000499385
0.000469166
0.000397755
0.000258977
0.000283895
0.00041072
0.000481601
0.000522643
0.000552613
0.000568878
0.000561373
0.000542452
0.000557266
0.000649926
0.000658066
0.000573191
0.000545365
0.000552088
0.000555517
0.000541018
0.000516222
0.0004769
0.000404526
0.000279253
0.000296304
0.00040962
0.000483709
0.000524971
0.000548113
0.000563058
0.000569859
0.000569972
0.000585691
0.000653077
0.000659183
0.000598723
0.00057649
0.000568405
0.000557322
0.000543969
0.000523727
0.000483036
0.000409001
0.000301266
0.0003691
0.000434392
0.000489789
0.000532728
0.000551854
0.000558833
0.000561407
0.00056415
0.000585836
0.000646778
0.000649813
0.000597267
0.00057112
0.000562684
0.000558792
0.000553243
0.000535777
0.00049433
0.00044148
0.000375775
0.000431432
0.000509235
0.000520837
0.000556173
0.000572183
0.000569465
0.000560695
0.000554368
0.000569224
0.000625617
0.000628235
0.000580615
0.000564241
0.000567305
0.000574854
0.000577565
0.000563201
0.000532293
0.000525345
0.000437164
0.000479362
0.000689226
0.000610876
0.000618757
0.000630035
0.00062099
0.000602004
0.000584285
0.000585494
0.000631509
0.000639528
0.000602825
0.000601665
0.00061685
0.00063315
0.000639762
0.000628464
0.000621954
0.000695398
0.000485053
0.000519473
0.000820817
0.00077069
0.000775493
0.000768266
0.000745521
0.000721822
0.000697385
0.000663455
0.000638452
0.000650231
0.000686369
0.000727502
0.000754472
0.0007752
0.000791208
0.000793342
0.000781729
0.000823584
0.000525625
0.000559035
0.000799023
0.00110118
0.00121318
0.00132624
0.001431
0.00151484
0.00152856
0.0013948
0.00112066
0.00110752
0.00139023
0.00155691
0.0015721
0.00150037
0.0013933
0.00126785
0.00112997
0.000818691
0.000565972
0.000602829
0.000655596
0.000698238
0.000737068
0.000777952
0.000816564
0.000850181
0.000875132
0.000886912
0.000883199
0.000887248
0.000890008
0.000879174
0.00085601
0.000824176
0.000787058
0.00074681
0.000707324
0.000663484
0.000609251
0.000126594
0.000168954
0.000188629
0.000199006
0.000202497
0.000200479
0.000194061
0.000185791
0.00018009
0.000185104
0.000185262
0.000181535
0.00018727
0.000194614
0.000199782
0.000200734
0.000196155
0.000184276
0.000160994
0.000119828
0.000170498
0.000346263
0.000419313
0.000458698
0.000479736
0.000488498
0.000490265
0.000496124
0.000535158
0.000626834
0.000635412
0.000547687
0.000499027
0.000482303
0.000470841
0.000455121
0.000432789
0.000397013
0.000326486
0.00016999
0.00024518
0.000378332
0.000462964
0.000518439
0.000551319
0.000561373
0.000554906
0.000549033
0.000573274
0.000626088
0.000634627
0.000591106
0.000553546
0.000544806
0.000542496
0.000529787
0.000497625
0.000443471
0.000361621
0.000236124
0.000262247
0.000368321
0.000451585
0.000509242
0.000546967
0.000569859
0.00057973
0.000581372
0.000593705
0.000588453
0.000595454
0.000607288
0.000584116
0.000574155
0.000559245
0.000533293
0.000495031
0.000438436
0.000359716
0.000267152
0.000352155
0.000383984
0.000439102
0.00049779
0.000537736
0.000561407
0.000574712
0.000584972
0.000601124
0.000562716
0.000570455
0.000615061
0.00059024
0.000571343
0.000553588
0.000528512
0.00048888
0.000432868
0.000384577
0.00035817
0.00042264
0.000447392
0.000448124
0.000496852
0.00053847
0.000560695
0.000570445
0.000578715
0.000594516
0.000548372
0.000555708
0.000607827
0.000585241
0.000570379
0.000557014
0.000533739
0.00049381
0.000449781
0.000453412
0.000427795
0.000475585
0.000608302
0.000525686
0.000547931
0.000585051
0.000602004
0.000602089
0.000599682
0.000611367
0.000596076
0.000606327
0.000630109
0.000613086
0.000609797
0.000605976
0.000587558
0.000552457
0.000535176
0.000622687
0.00048087
0.000519984
0.000809848
0.00070934
0.000716786
0.00072397
0.000721822
0.000712653
0.000692743
0.000656919
0.000623972
0.000638368
0.000677494
0.000717135
0.000740409
0.000748199
0.000745623
0.000735209
0.00072435
0.000815708
0.00052563
0.000563339
0.000800969
0.00109209
0.00123326
0.00138218
0.00151484
0.00160448
0.00157616
0.0013328
0.000970671
0.000969222
0.00129703
0.00157184
0.0016392
0.00157232
0.00144576
0.00128785
0.00113394
0.00082186
0.000569643
0.000611745
0.000669294
0.000716307
0.000760438
0.000806359
0.000850181
0.000889554
0.000920925
0.000941358
0.000951938
0.000958136
0.000945032
0.000924367
0.000894196
0.000856436
0.000814012
0.000768643
0.000724147
0.000676199
0.000617472
0.000115784
0.000143455
0.000162582
0.00017493
0.000181843
0.000185101
0.000185791
0.000185285
0.00018677
0.000197538
0.000197542
0.000187279
0.000185967
0.000186012
0.000184828
0.000181042
0.000173494
0.000160209
0.000138076
0.000109257
0.000146386
0.000320374
0.000391017
0.000434888
0.000462911
0.000481456
0.000496124
0.000516996
0.000548306
0.000527426
0.000538426
0.000559703
0.000520763
0.000492598
0.000471674
0.000447417
0.000414383
0.000368002
0.000300241
0.000138404
0.000195482
0.000343618
0.000438167
0.000496514
0.000528301
0.000542452
0.000549033
0.000557184
0.000535628
0.000375659
0.000381693
0.000545449
0.000562758
0.00054424
0.000528698
0.000509116
0.000475551
0.00041849
0.000328337
0.000182031
0.000228717
0.000329384
0.000424593
0.000495273
0.000542675
0.000569972
0.000581372
0.000582159
0.000517707
0.000338756
0.000348285
0.000522163
0.00058193
0.000573659
0.000558281
0.000528566
0.000479379
0.000408726
0.000319037
0.000229936
0.000338083
0.000337861
0.000396522
0.000471239
0.000527793
0.00056415
0.000584972
0.000590917
0.000499099
0.000362658
0.000380072
0.000509161
0.000594043
0.000580609
0.000554127
0.00051455
0.000457192
0.000385975
0.000336673
0.000342466
0.000413778
0.000400726
0.000392107
0.000451187
0.000512676
0.000554368
0.000578715
0.000585969
0.000480805
0.000409558
0.000433634
0.000492888
0.000589779
0.00057507
0.000545413
0.000501441
0.000441846
0.000389405
0.000404485
0.000417978
0.000469806
0.000535193
0.000459829
0.000493505
0.000548829
0.000584285
0.000599682
0.000604024
0.000528689
0.000492027
0.000523278
0.000546897
0.000615119
0.00060301
0.000582226
0.000544547
0.000491095
0.000463249
0.000546032
0.000474375
0.000516854
0.000785941
0.000654279
0.000667876
0.000686582
0.000697385
0.000692743
0.000667807
0.000620108
0.000590897
0.000620208
0.000638624
0.000685371
0.000711976
0.000716844
0.000703021
0.000680241
0.000664059
0.000794102
0.000521765
0.000562933
0.000787417
0.001064
0.00123546
0.00140063
0.00152856
0.00157616
0.00143717
0.00111548
0.00101745
0.00104121
0.00110383
0.00140464
0.0015719
0.0015558
0.0014426
0.00127441
0.00109437
0.000804637
0.000568224
0.000615704
0.000676807
0.0007273
0.000775987
0.000826316
0.000875132
0.000920925
0.000961979
0.0010009
0.00104426
0.00105302
0.00100709
0.000966051
0.000924799
0.00087998
0.000832213
0.000782326
0.000733382
0.000682338
0.000620476
0.000112077
0.000133068
0.000147625
0.000159039
0.000167352
0.000173974
0.00018009
0.00018677
0.000194057
0.000205659
0.000206839
0.000193425
0.000186295
0.000179516
0.000173101
0.000166
0.000156983
0.000144368
0.000126895
0.000106846
0.000141893
0.00033483
0.000403293
0.000449208
0.000481684
0.000508832
0.000535158
0.000548306
0.000448192
0.000493644
0.000497258
0.000455954
0.000552049
0.000536417
0.000507918
0.000478309
0.00044339
0.000396532
0.000333722
0.000137885
0.000152857
0.000346259
0.000435105
0.000493781
0.000531855
0.000557266
0.000573274
0.000535628
0.000337482
0.00060379
0.000614428
0.000338219
0.000536678
0.000577067
0.000558387
0.000529238
0.000488265
0.000429211
0.000339677
0.000150263
0.000203118
0.000318374
0.000429019
0.000506234
0.000556919
0.000585691
0.000593705
0.000517707
0.000343002
0.000808185
0.000826602
0.000346569
0.000512632
0.000592795
0.000583498
0.000553136
0.000500627
0.000420835
0.000309504
0.000197993
0.000327516
0.000311535
0.000371431
0.000465569
0.000539181
0.000585836
0.000601124
0.000499099
0.000392755
0.0010517
0.00108036
0.000407439
0.000500605
0.000603519
0.000586117
0.000535894
0.000459408
0.000366329
0.000311827
0.00032997
0.000405058
0.000374462
0.000353477
0.00042088
0.000506742
0.000569224
0.000594516
0.000480805
0.000458416
0.00128701
0.00132604
0.000479731
0.000485122
0.000595814
0.000566812
0.000500647
0.000415438
0.000354067
0.000377677
0.000408234
0.0004619
0.000485961
0.000415443
0.000452728
0.000528342
0.000585494
0.000611367
0.000528689
0.000553028
0.00145305
0.00150365
0.000581667
0.000541094
0.000617494
0.00058565
0.000523997
0.000448544
0.000416955
0.000491258
0.000465744
0.000509418
0.000752474
0.000601109
0.000616192
0.000645607
0.000663455
0.000656919
0.000620108
0.00066208
0.00150828
0.00156881
0.000690348
0.000635428
0.000670227
0.000675456
0.000655004
0.000621903
0.000606626
0.00076142
0.000513645
0.000556229
0.00074965
0.000992525
0.00117318
0.00132191
0.0013948
0.0013328
0.00111548
0.00109681
0.00150789
0.00155157
0.00112191
0.00110831
0.00131198
0.00139267
0.00133734
0.00119286
0.00101164
0.000762888
0.000560653
0.000613062
0.000675477
0.000727415
0.000779217
0.000833151
0.000886912
0.000941358
0.0010009
0.00107483
0.00115993
0.00117002
0.00108349
0.00100734
0.00094606
0.000891263
0.000837848
0.000784135
0.000732222
0.00068002
0.000617131
0.000111837
0.000132115
0.000144342
0.000155532
0.00016507
0.000174142
0.000185104
0.000197538
0.000205659
0.000213557
0.000214806
0.000205823
0.000195539
0.000182954
0.000171725
0.000162173
0.000152135
0.000139989
0.000126829
0.00010718
0.000144289
0.00038351
0.000458072
0.000518136
0.000562529
0.000599153
0.000626834
0.000527426
0.000493644
0.000318181
0.000318053
0.000498216
0.000526658
0.000626781
0.000599554
0.000562771
0.000518211
0.000459538
0.000387819
0.000141314
0.000162258
0.000419383
0.000499021
0.000566481
0.000620369
0.000649926
0.000626088
0.000375659
0.00060379
0.000467533
0.00046721
0.000619291
0.000372059
0.000628731
0.000657593
0.000629818
0.000574785
0.000507149
0.000426987
0.000159085
0.000198957
0.000407504
0.000503516
0.000573333
0.000630921
0.000653077
0.000588453
0.000338756
0.000808185
0.000630002
0.000628718
0.000832404
0.000340353
0.000593344
0.00066585
0.000644473
0.000583129
0.000509785
0.000402111
0.000190405
0.000321355
0.00032417
0.000402371
0.000523781
0.000609084
0.000646778
0.000562716
0.000362658
0.0010517
0.000812549
0.000810409
0.00108576
0.00037379
0.000571524
0.000662032
0.00062422
0.000533543
0.000404449
0.000325798
0.000322016
0.000397595
0.000372559
0.00035522
0.000438831
0.00055802
0.000625617
0.000548372
0.000409557
0.00128701
0.0010118
0.00100937
0.00132793
0.000426634
0.000557543
0.000636158
0.000565692
0.00044146
0.000360355
0.000375346
0.000399729
0.000452699
0.00047054
0.000403623
0.000444856
0.000551771
0.000631509
0.000596076
0.000492027
0.00145305
0.00120852
0.00120662
0.00149761
0.000515843
0.000610504
0.000639631
0.000553619
0.000444489
0.000406976
0.000473521
0.000455752
0.000498084
0.000721117
0.000560377
0.000570033
0.000611721
0.000638452
0.000623972
0.000590897
0.00150828
0.00136276
0.00136134
0.00155486
0.000614799
0.000641151
0.00064861
0.00061749
0.000574387
0.000565698
0.000728226
0.000501596
0.000542593
0.000692563
0.000882123
0.00104753
0.00114852
0.00112066
0.000970671
0.00101745
0.00150789
0.00145852
0.00146198
0.00154384
0.00103853
0.000974026
0.00111005
0.00114852
0.0010572
0.000896562
0.000703317
0.000546355
0.000601575
0.000662863
0.000713158
0.000766973
0.000823846
0.000883199
0.000951938
0.00104426
0.00115993
0.00121109
0.00121068
0.00116921
0.00105267
0.000958616
0.000888352
0.000828502
0.000771541
0.000717624
0.000667045
0.000605247
0.000111523
0.000132425
0.000145369
0.000156492
0.000165762
0.000174578
0.000185262
0.000197542
0.000206839
0.000214806
0.00021939
0.000210623
0.00019945
0.000186224
0.000174456
0.000164524
0.000154065
0.000141846
0.000128529
0.00010827
0.000144951
0.000377063
0.000447048
0.000510788
0.000561638
0.000603766
0.000635412
0.000538426
0.000497259
0.000318054
0.000325002
0.00051092
0.000528887
0.000641483
0.000617637
0.000579202
0.000528723
0.000465894
0.000393377
0.000142996
0.000163398
0.000406214
0.000489693
0.00056085
0.000623507
0.000658066
0.000634627
0.000381693
0.000614428
0.00046721
0.000479445
0.000650678
0.000380986
0.0006407
0.000672096
0.000639618
0.000575832
0.000504271
0.000422576
0.000161265
0.000206389
0.0003722
0.000485138
0.000561864
0.000629533
0.000659183
0.000595454
0.000348285
0.000826602
0.000628718
0.000645249
0.000874324
0.000352071
0.000598567
0.000665404
0.000634066
0.000565971
0.000487597
0.000367086
0.000193792
0.00032706
0.000323857
0.000395567
0.00051085
0.000603328
0.000649813
0.000570455
0.000380072
0.00108036
0.00081041
0.000830241
0.00113558
0.00038536
0.000568741
0.000646815
0.000597547
0.000504024
0.000390813
0.000321481
0.000325926
0.000401716
0.000377549
0.000358658
0.000437884
0.000555212
0.000628235
0.000555708
0.000433634
0.00132604
0.00100937
0.00103166
0.00138508
0.000438839
0.000549738
0.000618172
0.0005426
0.000429316
0.000358214
0.00037709
0.000403055
0.000456037
0.000478233
0.000409083
0.000450658
0.000557097
0.000639528
0.000606327
0.000523278
0.00150365
0.00120662
0.00123024
0.00156024
0.000527166
0.000600025
0.000626923
0.000543544
0.000443826
0.000409671
0.000478734
0.000458578
0.000501122
0.000727219
0.000566383
0.000578932
0.000621965
0.000650231
0.000638368
0.000620208
0.00156881
0.00136134
0.00138576
0.00162264
0.000624733
0.000633009
0.000641765
0.000616953
0.000580037
0.000571385
0.000733255
0.000504246
0.000545661
0.000697621
0.00088986
0.00105057
0.00114541
0.00110752
0.000969222
0.00104121
0.00155157
0.00146198
0.00149041
0.00159286
0.00105655
0.000969328
0.00110146
0.00114964
0.00106314
0.000905868
0.00070702
0.000549179
0.00060475
0.000666009
0.000716247
0.000769871
0.000826993
0.000887248
0.000958136
0.00105302
0.00117002
0.00121068
0.00122096
0.00118588
0.00106571
0.000967972
0.000895157
0.000833975
0.000776248
0.00072204
0.000670874
0.000608446
0.000110864
0.000134626
0.000151692
0.000163005
0.000170547
0.000176287
0.000181535
0.000187279
0.000193425
0.000205823
0.000210623
0.0001968
0.000188523
0.000181041
0.000174536
0.000167693
0.000159194
0.000147035
0.0001305
0.000109062
0.000142559
0.000326794
0.000395232
0.000447728
0.000486676
0.00051887
0.000547687
0.000559703
0.000455954
0.000498216
0.00051092
0.00045364
0.00056012
0.000550573
0.000521811
0.000490032
0.000452132
0.00040011
0.000337072
0.000140985
0.000156268
0.000347505
0.000441111
0.000501798
0.000543566
0.000573191
0.000591106
0.000545449
0.000338219
0.000619291
0.000650678
0.000343759
0.000541787
0.000590371
0.000572507
0.00054256
0.000500543
0.000440969
0.000349551
0.000154146
0.000219416
0.000317836
0.000429815
0.000512322
0.000567467
0.000598723
0.000607288
0.000522163
0.000346569
0.000832403
0.000874324
0.000357616
0.00051564
0.000600169
0.000589456
0.00055569
0.000499345
0.000418122
0.000310015
0.000207055
0.000335566
0.000321955
0.000379629
0.000471319
0.000546882
0.000597267
0.000615061
0.000509161
0.000407439
0.00108576
0.00113558
0.000420693
0.00049809
0.000601028
0.00058034
0.000528573
0.000454861
0.000369188
0.000317702
0.000334972
0.000410438
0.000386521
0.000367753
0.000433573
0.000517297
0.000580615
0.000607827
0.000492888
0.000479731
0.00132793
0.00138508
0.000495533
0.000479713
0.000590233
0.000560283
0.000497653
0.000419792
0.000362792
0.000385498
0.00041213
0.000465958
0.000502173
0.00043002
0.000469995
0.000545533
0.000602825
0.000630109
0.000546897
0.000581667
0.00149761
0.00156024
0.000596783
0.000534357
0.000613377
0.000584063
0.000528268
0.000459542
0.000429057
0.000504694
0.00046872
0.000512754
0.000762359
0.000616311
0.000637454
0.000669217
0.000686369
0.000677494
0.000638624
0.000690348
0.00155486
0.00162264
0.000703601
0.000628728
0.000666987
0.000677658
0.000663592
0.000636257
0.000620537
0.000767515
0.000516046
0.000559181
0.000755621
0.00100674
0.00119168
0.00133685
0.00139023
0.00129703
0.00110383
0.00112191
0.00154384
0.00159286
0.00114288
0.00109894
0.00129134
0.00139484
0.00135125
0.00120845
0.00102535
0.000764688
0.00056289
0.000615919
0.000678485
0.000730564
0.000782483
0.000836366
0.000890008
0.000945032
0.00100709
0.00108349
0.00116921
0.00118588
0.00109722
0.0010178
0.00095383
0.000897824
0.000843657
0.000789207
0.000736653
0.00068356
0.000619728
0.000115034
0.000148719
0.0001693
0.000180378
0.000185832
0.000187703
0.00018727
0.000185967
0.000186295
0.000195539
0.00019945
0.000188523
0.00018506
0.000184363
0.000183418
0.000180473
0.000174141
0.00016213
0.000141141
0.000112095
0.00014888
0.000306254
0.00037998
0.000427799
0.000460166
0.000482163
0.000499027
0.000520763
0.000552049
0.000526658
0.000528887
0.00056012
0.000520312
0.000490235
0.000469984
0.000447306
0.000416073
0.000370965
0.000299759
0.000143844
0.000200672
0.000348232
0.000443494
0.000501315
0.000531612
0.000545365
0.000553546
0.000562758
0.000536678
0.000372059
0.000380986
0.000541787
0.000560542
0.000545619
0.000535225
0.000520092
0.00048922
0.000432068
0.000339843
0.000194689
0.000242684
0.000336833
0.000430652
0.000502565
0.000550928
0.00057649
0.000584116
0.00058193
0.000512632
0.000340353
0.000352071
0.00051564
0.000578365
0.00057522
0.000563683
0.000536097
0.000488281
0.000418905
0.000329552
0.00024006
0.000345955
0.000353146
0.000408341
0.000481026
0.00053631