/*--------------------------------*- C++ -*----------------------------------*\
  =========                 |
  \\      /  F ield         | OpenFOAM: The Open Source CFD Toolbox
   \\    /   O peration     | Website:  https://openfoam.org
    \\  /    A nd           | Version:  9
     \\/     M anipulation  |
\*---------------------------------------------------------------------------*/
FoamFile
{
    format      ascii;
    class       volScalarField;
    location    "1550";
    object      epsilon;
}
// * * * * * * * * * * * * * * * * * * * * * * * * * * * * * * * * * * * * * //

dimensions      [0 2 -3 0 0 0 0];

internalField   nonuniform List<scalar> 
4000
(
2.54779e-07
1.84018e-07
8.46374e-08
3.59759e-08
1.98073e-08
1.64904e-08
1.17432e-08
9.09164e-09
8.27836e-09
8.2316e-09
8.15521e-09
7.99198e-09
8.925e-09
1.26014e-08
1.78959e-08
2.48637e-08
6.92043e-08
1.51079e-07
2.51559e-07
3.20076e-07
4.15131e-07
3.68651e-07
3.03518e-07
2.18383e-07
1.53644e-07
9.5889e-08
2.81257e-08
1.83228e-08
1.67518e-08
1.75855e-08
1.78333e-08
1.6958e-08
1.94038e-08
3.5387e-08
1.12653e-07
1.71156e-07
2.33022e-07
3.13583e-07
3.81075e-07
4.31701e-07
4.74791e-07
4.32439e-07
3.54015e-07
2.69788e-07
1.93155e-07
1.3407e-07
8.62794e-08
4.40324e-08
2.09266e-08
2.49887e-08
2.5552e-08
2.23978e-08
4.72535e-08
8.69777e-08
1.3411e-07
1.93532e-07
2.71026e-07
3.59711e-07
4.42218e-07
4.86439e-07
5.08242e-07
4.80862e-07
4.07081e-07
3.13308e-07
2.21885e-07
1.52802e-07
1.05563e-07
6.9897e-08
4.86031e-08
4.55576e-08
5.08078e-08
6.18866e-08
8.41632e-08
1.14327e-07
1.5653e-07
2.24313e-07
3.18969e-07
4.14873e-07
4.90369e-07
5.18483e-07
5.30674e-07
5.23862e-07
4.74453e-07
4.09813e-07
3.46431e-07
2.94838e-07
2.55835e-07
2.26257e-07
2.05648e-07
1.94112e-07
2.04641e-07
2.2133e-07
2.42738e-07
2.71419e-07
3.08847e-07
3.58866e-07
4.21188e-07
4.85438e-07
5.34602e-07
5.41145e-07
5.49504e-07
5.68722e-07
5.56333e-07
5.30585e-07
5.01273e-07
4.71608e-07
4.43397e-07
4.16146e-07
3.90424e-07
3.69166e-07
3.80654e-07
4.06035e-07
4.32993e-07
4.60459e-07
4.88426e-07
5.17436e-07
5.4578e-07
5.70464e-07
5.81532e-07
5.60893e-07
5.69073e-07
6.16652e-07
6.4109e-07
6.51355e-07
6.53434e-07
6.47136e-07
6.32029e-07
6.09314e-07
5.79079e-07
5.45152e-07
5.57301e-07
5.94421e-07
6.26935e-07
6.51375e-07
6.67365e-07
6.73801e-07
6.70835e-07
6.58825e-07
6.31872e-07
5.81726e-07
5.92259e-07
6.70374e-07
7.3117e-07
7.74794e-07
8.06109e-07
8.23897e-07
8.26383e-07
8.11589e-07
7.77086e-07
7.26461e-07
7.39988e-07
7.9256e-07
8.30578e-07
8.48988e-07
8.48847e-07
8.31727e-07
7.99324e-07
7.53164e-07
6.88495e-07
6.0647e-07
6.2466e-07
7.42164e-07
8.42318e-07
9.21106e-07
9.83217e-07
1.02732e-06
1.05128e-06
1.04915e-06
1.01233e-06
9.40048e-07
9.56433e-07
1.02885e-06
1.07112e-06
1.07922e-06
1.05902e-06
1.01582e-06
9.51949e-07
8.69489e-07
7.64023e-07
6.40809e-07
6.74826e-07
8.37539e-07
9.85799e-07
1.10603e-06
1.20714e-06
1.289e-06
1.34727e-06
1.37406e-06
1.35705e-06
1.28297e-06
1.30389e-06
1.37643e-06
1.39845e-06
1.37783e-06
1.32399e-06
1.24393e-06
1.14198e-06
1.01805e-06
8.63485e-07
6.93357e-07
1.84018e-07
1.51949e-07
8.2101e-08
4.70646e-08
3.66037e-08
3.41869e-08
2.77791e-08
1.70389e-08
1.37865e-08
1.35437e-08
1.36506e-08
1.43614e-08
1.93354e-08
3.0686e-08
3.45771e-08
3.8822e-08
6.96094e-08
1.33348e-07
2.15843e-07
2.51201e-07
3.68651e-07
4.64531e-07
3.89261e-07
2.8169e-07
2.10391e-07
1.50015e-07
7.68392e-08
3.39779e-08
2.08024e-08
1.68867e-08
1.75128e-08
2.19967e-08
3.74852e-08
8.92628e-08
1.69562e-07
2.22515e-07
2.86434e-07
3.91277e-07
4.63609e-07
3.8062e-07
4.32439e-07
4.20982e-07
3.62226e-07
2.78e-07
2.02715e-07
1.48171e-07
1.08001e-07
7.04949e-08
4.0071e-08
2.47987e-08
2.6069e-08
4.06638e-08
6.92217e-08
1.04113e-07
1.47534e-07
2.00606e-07
2.77491e-07
3.71064e-07
4.35462e-07
4.42868e-07
4.80862e-07
4.37768e-07
3.89721e-07
3.07222e-07
2.12516e-07
1.50047e-07
1.07507e-07
7.2009e-08
4.61036e-08
3.71439e-08
4.03478e-08
5.37206e-08
7.79356e-08
1.0963e-07
1.51372e-07
2.1555e-07
3.14063e-07
3.97808e-07
4.47182e-07
4.91765e-07
5.23862e-07
4.74238e-07
4.38602e-07
3.71379e-07
2.80254e-07
2.06919e-07
1.59785e-07
1.23074e-07
1.01591e-07
9.66213e-08
1.01379e-07
1.12476e-07
1.3695e-07
1.72707e-07
2.19249e-07
2.93358e-07
3.83476e-07
4.50083e-07
4.84955e-07
5.36476e-07
5.68722e-07
5.16744e-07
4.8931e-07
4.44963e-07
3.85673e-07
3.07218e-07
2.52702e-07
2.12613e-07
1.88678e-07
1.79055e-07
1.85067e-07
1.99836e-07
2.27085e-07
2.69008e-07
3.26068e-07
4.01962e-07
4.58796e-07
5.0202e-07
5.28598e-07
5.83389e-07
6.16652e-07
5.59822e-07
5.31283e-07
5.02234e-07
4.81815e-07
4.45223e-07
3.75551e-07
3.13572e-07
2.72702e-07
2.55135e-07
2.6138e-07
2.85059e-07
3.32824e-07
3.95974e-07
4.62574e-07
4.99321e-07
5.19881e-07
5.47516e-07
5.74734e-07
6.33566e-07
6.70374e-07
6.22477e-07
6.00469e-07
5.83929e-07
5.92866e-07
5.99918e-07
5.88606e-07
5.60444e-07
5.12466e-07
4.51357e-07
4.64463e-07
5.29674e-07
5.78868e-07
6.09489e-07
6.22909e-07
6.17995e-07
6.09335e-07
6.24645e-07
6.43809e-07
6.90108e-07
7.42164e-07
7.71082e-07
8.05986e-07
8.32533e-07
8.66792e-07
8.99463e-07
9.20769e-07
9.11654e-07
8.48792e-07
7.2847e-07
7.42558e-07
8.62266e-07
9.33552e-07
9.52462e-07
9.38379e-07
9.0855e-07
8.73206e-07
8.43569e-07
8.01785e-07
7.6543e-07
8.37539e-07
1.0332e-06
1.21792e-06
1.37834e-06
1.52612e-06
1.65887e-06
1.76522e-06
1.82603e-06
1.81627e-06
1.71759e-06
1.74318e-06
1.84133e-06
1.85899e-06
1.80805e-06
1.70881e-06
1.57899e-06
1.43006e-06
1.2641e-06
1.0704e-06
8.6434e-07
8.46373e-08
8.2101e-08
5.9683e-08
4.80426e-08
4.74785e-08
4.96714e-08
3.886e-08
2.47438e-08
1.86658e-08
1.7614e-08
1.80539e-08
2.05383e-08
2.85215e-08
4.26068e-08
4.76607e-08
4.53139e-08
5.65962e-08
8.95998e-08
1.3253e-07
1.49237e-07
3.03518e-07
3.89261e-07
3.36444e-07
2.65929e-07
2.1406e-07
1.54857e-07
8.45832e-08
4.55357e-08
2.89178e-08
2.17123e-08
2.26505e-08
3.03223e-08
4.85652e-08
9.71677e-08
1.77957e-07
2.31433e-07
2.71978e-07
3.37197e-07
3.87949e-07
3.10721e-07
3.54015e-07
3.62225e-07
3.22602e-07
2.56633e-07
1.98128e-07
1.51949e-07
1.18603e-07
8.3768e-08
5.13732e-08
3.21261e-08
3.29901e-08
5.1144e-08
8.06953e-08
1.13352e-07
1.51967e-07
1.97514e-07
2.53966e-07
3.26132e-07
3.72741e-07
3.60184e-07
4.07081e-07
3.89721e-07
3.40743e-07
2.70428e-07
1.96241e-07
1.46417e-07
1.12249e-07
8.15851e-08
5.67195e-08
4.02017e-08
4.35095e-08
6.08116e-08
8.33394e-08
1.11144e-07
1.47361e-07
2.01138e-07
2.7901e-07
3.49589e-07
3.99652e-07
4.17369e-07
4.74453e-07
4.38602e-07
3.75928e-07
3.03546e-07
2.22557e-07
1.62162e-07
1.23317e-07
9.15691e-08
6.64941e-08
5.24167e-08
5.72586e-08
7.4819e-08
9.97691e-08
1.30195e-07
1.69811e-07
2.32827e-07
3.15989e-07
3.8869e-07
4.50975e-07
4.88855e-07
5.56333e-07
4.8931e-07
4.14672e-07
3.40947e-07
2.6584e-07
1.96426e-07
1.50772e-07
1.1678e-07
9.26368e-08
8.19689e-08
8.54202e-08
1.00677e-07
1.26539e-07
1.61607e-07
2.08602e-07
2.77612e-07
3.52983e-07
4.27786e-07
5.02408e-07
5.73502e-07
6.4109e-07
5.31283e-07
4.47785e-07
3.58316e-07
2.92672e-07
2.36789e-07
1.89063e-07
1.52005e-07
1.27223e-07
1.15064e-07
1.17892e-07
1.33619e-07
1.62358e-07
2.01399e-07
2.49456e-07
3.05194e-07
3.73234e-07
4.65591e-07
5.4866e-07
6.61497e-07
7.3117e-07
6.00469e-07
5.25738e-07
4.0688e-07
3.24836e-07
2.95728e-07
2.65762e-07
2.36909e-07
2.06942e-07
1.77587e-07
1.79876e-07
2.13143e-07
2.49049e-07
2.82755e-07
3.14747e-07
3.4484e-07
4.37879e-07
5.56387e-07
6.2652e-07
7.55605e-07
8.42318e-07
8.05986e-07
8.47836e-07
8.90266e-07
9.17287e-07
9.33199e-07
9.75331e-07
9.79968e-07
8.81311e-07
6.90894e-07
7.03961e-07
9.03585e-07
1.02098e-06
1.03583e-06
1.0095e-06
9.95898e-07
9.57211e-07
9.04262e-07
8.46702e-07
8.72067e-07
9.85799e-07
1.21792e-06
1.43509e-06
1.63045e-06
1.82087e-06
2.00453e-06
2.16431e-06
2.26635e-06
2.26877e-06
2.13948e-06
2.16898e-06
2.29939e-06
2.30828e-06
2.22026e-06
2.07056e-06
1.89094e-06
1.69857e-06
1.49504e-06
1.26565e-06
1.01978e-06
3.59759e-08
4.70646e-08
4.80426e-08
5.10692e-08
5.64457e-08
6.02055e-08
4.57339e-08
3.08216e-08
2.3252e-08
2.19412e-08
2.2463e-08
2.54411e-08
3.44531e-08
4.88798e-08
5.91126e-08
5.21844e-08
4.9901e-08
5.68767e-08
6.91802e-08
6.73033e-08
2.18383e-07
2.8169e-07
2.65929e-07
2.32592e-07
1.93336e-07
1.34599e-07
7.78006e-08
4.81052e-08
3.33071e-08
2.79052e-08
2.83652e-08
3.42989e-08
4.9725e-08
8.50951e-08
1.54858e-07
2.16788e-07
2.44881e-07
2.67229e-07
2.7898e-07
2.2619e-07
2.69788e-07
2.78e-07
2.56633e-07
2.17534e-07
1.78083e-07
1.44398e-07
1.18383e-07
8.49777e-08
5.43187e-08
3.76588e-08
3.75339e-08
5.29124e-08
8.05947e-08
1.11921e-07
1.42416e-07
1.79236e-07
2.15058e-07
2.53237e-07
2.78072e-07
2.70859e-07
3.13308e-07
3.07222e-07
2.70428e-07
2.20342e-07
1.72014e-07
1.37303e-07
1.11432e-07
8.58049e-08
6.27784e-08
4.53534e-08
4.73331e-08
6.54375e-08
8.62881e-08
1.09068e-07
1.37284e-07
1.76682e-07
2.28368e-07
2.79727e-07
3.16312e-07
3.22449e-07
4.09813e-07
3.71379e-07
3.03546e-07
2.40704e-07
1.82881e-07
1.40349e-07
1.1106e-07
8.55287e-08
6.24726e-08
4.43606e-08
4.84294e-08
6.828e-08
9.037e-08
1.14631e-07
1.45391e-07
1.91273e-07
2.52301e-07
3.16462e-07
3.85029e-07
4.25542e-07
5.30585e-07
4.44963e-07
3.40947e-07
2.66048e-07
2.02892e-07
1.52462e-07
1.17799e-07
9.009e-08
6.64055e-08
4.90291e-08
5.27745e-08
7.27116e-08
9.72028e-08
1.25231e-07
1.60895e-07
2.12128e-07
2.76499e-07
3.52951e-07
4.58929e-07
5.49296e-07
6.51355e-07
5.02234e-07
3.58316e-07
2.71184e-07
2.12046e-07
1.67099e-07
1.33591e-07
1.06889e-07
8.48873e-08
6.88719e-08
7.16636e-08
9.07454e-08
1.15399e-07
1.43399e-07
1.77291e-07
2.22178e-07
2.82919e-07
3.73783e-07
5.19161e-07
6.73991e-07
7.74794e-07
5.83929e-07
4.0688e-07
3.05787e-07
2.72313e-07
2.56598e-07
2.47542e-07
2.36488e-07
2.09823e-07
1.69219e-07
1.72923e-07
2.21003e-07
2.55121e-07
2.70195e-07
2.79354e-07
2.92977e-07
3.2893e-07
4.42753e-07
6.10664e-07
8.02632e-07
9.21106e-07
8.32533e-07
8.90266e-07
9.50448e-07
1.07456e-06
1.23025e-06
1.39221e-06
1.47045e-06
1.36767e-06
1.09937e-06
1.10406e-06
1.40377e-06
1.54471e-06
1.48905e-06
1.33856e-06
1.17392e-06
1.04464e-06
9.65058e-07
8.80213e-07
9.5594e-07
1.10603e-06
1.37834e-06
1.63045e-06
1.86369e-06
2.1076e-06
2.35837e-06
2.59037e-06
2.75363e-06
2.78994e-06
2.66265e-06
2.69441e-06
2.82594e-06
2.80512e-06
2.65958e-06
2.44071e-06
2.19428e-06
1.94707e-06
1.702e-06
1.43416e-06
1.14508e-06
1.98073e-08
3.66037e-08
4.74785e-08
5.64457e-08
6.61756e-08
6.27711e-08
4.81544e-08
3.46546e-08
2.70606e-08
2.61608e-08
2.66417e-08
2.91158e-08
3.76394e-08
5.03252e-08
6.26221e-08
6.25116e-08
5.18549e-08
4.54086e-08
3.86563e-08
2.28276e-08
1.53644e-07
2.10391e-07
2.1406e-07
1.93336e-07
1.5246e-07
1.03614e-07
6.72406e-08
4.66392e-08
3.48218e-08
3.25603e-08
3.28924e-08
3.55184e-08
4.70446e-08
6.91594e-08
1.13557e-07
1.71852e-07
2.11424e-07
2.21413e-07
2.10197e-07
1.59758e-07
1.93155e-07
2.02715e-07
1.98128e-07
1.78083e-07
1.53863e-07
1.33114e-07
1.09307e-07
7.78359e-08
5.20151e-08
4.01373e-08
3.97819e-08
5.00181e-08
7.22596e-08
1.00958e-07
1.26077e-07
1.52024e-07
1.76927e-07
1.9398e-07
1.97398e-07
1.89938e-07
2.21885e-07
2.12516e-07
1.96241e-07
1.72014e-07
1.46157e-07
1.24925e-07
1.05281e-07
8.38615e-08
6.30863e-08
4.81876e-08
4.92641e-08
6.46034e-08
8.37894e-08
1.02125e-07
1.22258e-07
1.47085e-07
1.75712e-07
2.00474e-07
2.16656e-07
2.29862e-07
3.46431e-07
2.80254e-07
2.22557e-07
1.82881e-07
1.49094e-07
1.22754e-07
1.01902e-07
8.22261e-08
6.38981e-08
5.02866e-08
5.29508e-08
6.81115e-08
8.51945e-08
1.0342e-07
1.25202e-07
1.54253e-07
1.90941e-07
2.3337e-07
2.96274e-07
3.63212e-07
5.01273e-07
3.85673e-07
2.6584e-07
2.02892e-07
1.5954e-07
1.26721e-07
1.02126e-07
8.1248e-08
6.30475e-08
5.04576e-08
5.31152e-08
6.78202e-08
8.63418e-08
1.07094e-07
1.32501e-07
1.66673e-07
2.11909e-07
2.77515e-07
4.01193e-07
5.20705e-07
6.53434e-07
4.81815e-07
2.92672e-07
2.12046e-07
1.67715e-07
1.37018e-07
1.14187e-07
9.58172e-08
8.06753e-08
7.15101e-08
7.41259e-08
8.65022e-08
1.03521e-07
1.22421e-07
1.45449e-07
1.76399e-07
2.21836e-07
3.04574e-07
4.97256e-07
6.76985e-07
8.06109e-07
5.92866e-07
3.24836e-07
2.72313e-07
2.6401e-07
2.66686e-07
2.75002e-07
2.77911e-07
2.56097e-07
2.11973e-07
2.16027e-07
2.70323e-07
3.01999e-07
3.03431e-07
2.94001e-07
2.8777e-07
2.92789e-07
3.43104e-07
6.20168e-07
8.35721e-07
9.83217e-07
8.66792e-07
9.17287e-07
1.07456e-06
1.36573e-06
1.66644e-06
1.93936e-06
2.078e-06
1.91927e-06
1.494e-06
1.48656e-06
1.95479e-06
2.18113e-06
2.08577e-06
1.81461e-06
1.50375e-06
1.18762e-06
1.01926e-06
9.1967e-07
1.02134e-06
1.20714e-06
1.52612e-06
1.82087e-06
2.1076e-06
2.43522e-06
2.77367e-06
3.08955e-06
3.32604e-06
3.41147e-06
3.30099e-06
3.34017e-06
3.45119e-06
3.38249e-06
3.16644e-06
2.86477e-06
2.5321e-06
2.20053e-06
1.89944e-06
1.58636e-06
1.24873e-06
1.64904e-08
3.41869e-08
4.96714e-08
6.02055e-08
6.27711e-08
5.70721e-08
4.66557e-08
3.65898e-08
3.0409e-08
3.06607e-08
3.10756e-08
3.21411e-08
3.87656e-08
4.79576e-08
5.67479e-08
6.07037e-08
5.59263e-08
4.50423e-08
3.12689e-08
1.39324e-08
9.5889e-08
1.50015e-07
1.54857e-07
1.34599e-07
1.03614e-07
7.64833e-08
5.71256e-08
4.36836e-08
3.58289e-08
3.81975e-08
3.86232e-08
3.62924e-08
4.31555e-08
5.60175e-08
7.6585e-08
1.09382e-07
1.45228e-07
1.63035e-07
1.5253e-07
9.97701e-08
1.3407e-07
1.48171e-07
1.51949e-07
1.44398e-07
1.33114e-07
1.16868e-07
9.28063e-08
6.68947e-08
4.80783e-08
4.21341e-08
4.19254e-08
4.61014e-08
6.09813e-08
8.29149e-08
1.05682e-07
1.23364e-07
1.37593e-07
1.45578e-07
1.40646e-07
1.26555e-07
1.52802e-07
1.50047e-07
1.46417e-07
1.37303e-07
1.24925e-07
1.11134e-07
9.51635e-08
7.69537e-08
5.93676e-08
4.90571e-08
4.98531e-08
5.95758e-08
7.57262e-08
9.15842e-08
1.05945e-07
1.2065e-07
1.34729e-07
1.44708e-07
1.49961e-07
1.60142e-07
2.94838e-07
2.06919e-07
1.62162e-07
1.40349e-07
1.22754e-07
1.06884e-07
9.18694e-08
7.68832e-08
6.32626e-08
5.51529e-08
5.77361e-08
6.67182e-08
7.86729e-08
9.18478e-08
1.06763e-07
1.24046e-07
1.43678e-07
1.68121e-07
2.17641e-07
3.11294e-07
4.71608e-07
3.07218e-07
1.96426e-07
1.52462e-07
1.26721e-07
1.06717e-07
8.98826e-08
7.50573e-08
6.32766e-08
5.92656e-08
6.19731e-08
6.72484e-08
7.85932e-08
9.28179e-08
1.10059e-07
1.3144e-07
1.59533e-07
2.07488e-07
3.25309e-07
4.90485e-07
6.47136e-07
4.45223e-07
2.36789e-07
1.67099e-07
1.37018e-07
1.17994e-07
1.03565e-07
9.25055e-08
8.54178e-08
8.88318e-08
9.24646e-08
9.14714e-08
9.941e-08
1.10356e-07
1.24753e-07
1.44318e-07
1.75762e-07
2.47518e-07
4.58674e-07
6.701e-07
8.23897e-07
5.99918e-07
2.95728e-07
2.56598e-07
2.66686e-07
2.90075e-07
3.16519e-07
3.30752e-07
3.04979e-07
2.50602e-07
2.5414e-07
3.17514e-07
3.55909e-07
3.48272e-07
3.21216e-07
2.94228e-07
2.78747e-07
3.12211e-07
6.24476e-07
8.53068e-07
1.02732e-06
8.99463e-07
9.33199e-07
1.23025e-06
1.66644e-06
2.12973e-06
2.52785e-06
2.72203e-06
2.43029e-06
1.76363e-06
1.73518e-06
2.41526e-06
2.81065e-06
2.68731e-06
2.30021e-06
1.83558e-06
1.36298e-06
1.03911e-06
9.51351e-07
1.06568e-06
1.289e-06
1.65887e-06
2.00453e-06
2.35837e-06
2.77367e-06
3.20815e-06
3.62197e-06
3.95193e-06
4.11593e-06
4.06661e-06
4.12389e-06
4.15821e-06
4.00563e-06
3.69601e-06
3.29797e-06
2.87153e-06
2.4526e-06
2.08341e-06
1.71908e-06
1.33035e-06
1.17432e-08
2.77791e-08
3.886e-08
4.57339e-08
4.81544e-08
4.66557e-08
4.22514e-08
3.70284e-08
3.37505e-08
3.67621e-08
3.70677e-08
3.50955e-08
3.84988e-08
4.31497e-08
4.66957e-08
4.74503e-08
4.43231e-08
3.67579e-08
2.44891e-08
1.00529e-08
2.81257e-08
7.68392e-08
8.45832e-08
7.78006e-08
6.72406e-08
5.71256e-08
4.80571e-08
4.05978e-08
3.81395e-08
5.07505e-08
5.14518e-08
3.83663e-08
3.93478e-08
4.55922e-08
5.3884e-08
6.42358e-08
7.65033e-08
8.48195e-08
7.56315e-08
2.79075e-08
8.62794e-08
1.08001e-07
1.18603e-07
1.18383e-07
1.09307e-07
9.28063e-08
7.33553e-08
5.61095e-08
4.57089e-08
5.19875e-08
5.24571e-08
4.42823e-08
5.0813e-08
6.38807e-08
8.01593e-08
9.54313e-08
1.04715e-07
1.05397e-07
9.57577e-08
7.67689e-08
1.05563e-07
1.07507e-07
1.12249e-07
1.11432e-07
1.05281e-07
9.51635e-08
8.20328e-08
6.72015e-08
5.57025e-08
6.15772e-08
6.35768e-08
5.53934e-08
6.43805e-08
7.75772e-08
8.93432e-08
9.83984e-08
1.04465e-07
1.06112e-07
1.04604e-07
1.11859e-07
2.55835e-07
1.59785e-07
1.23317e-07
1.1106e-07
1.01902e-07
9.18694e-08
8.08586e-08
6.97391e-08
6.23603e-08
7.5951e-08
8.11073e-08
6.58391e-08
7.07138e-08
7.98591e-08
9.00974e-08
1.00497e-07
1.10883e-07
1.25676e-07
1.67291e-07
2.69742e-07
4.43397e-07
2.52702e-07
1.50772e-07
1.17799e-07
1.02126e-07
8.98826e-08
7.85819e-08
6.87652e-08
6.49995e-08
9.11884e-08
9.83727e-08
6.93861e-08
7.11677e-08
7.99165e-08
9.11017e-08
1.04171e-07
1.215e-07
1.57088e-07
2.63166e-07
4.59825e-07
6.32029e-07
3.75551e-07
1.89063e-07
1.33591e-07
1.14187e-07
1.03565e-07
9.58746e-08
9.10451e-08
9.35529e-08
1.35882e-07
1.47145e-07
1.00867e-07
9.7095e-08
1.01319e-07
1.0866e-07
1.19546e-07
1.40033e-07
1.98074e-07
3.92469e-07
6.53088e-07
8.26383e-07
5.88606e-07
2.65762e-07
2.47542e-07
2.75002e-07
3.16519e-07
3.59541e-07
3.76388e-07
3.32383e-07
2.91938e-07
3.01971e-07
3.38233e-07
3.934e-07
3.88064e-07
3.48001e-07
3.03538e-07
2.69581e-07
2.80883e-07
6.10718e-07
8.53235e-07
1.05128e-06
9.20769e-07
9.75331e-07
1.39221e-06
1.93936e-06
2.52785e-06
3.08125e-06
3.281e-06
2.68773e-06
2.02747e-06
2.03426e-06
2.58142e-06
3.2688e-06
3.19326e-06
2.6935e-06
2.11166e-06
1.51911e-06
1.06213e-06
9.65808e-07
1.08679e-06
1.34727e-06
1.76522e-06
2.16431e-06
2.59037e-06
3.08955e-06
3.62197e-06
4.14998e-06
4.6063e-06
4.92137e-06
5.09015e-06
5.19216e-06
4.97733e-06
4.65472e-06
4.21251e-06
3.70069e-06
3.17723e-06
2.6746e-06
2.23613e-06
1.82023e-06
1.38523e-06
9.09164e-09
1.70389e-08
2.47438e-08
3.08216e-08
3.46546e-08
3.65898e-08
3.70284e-08
3.67453e-08
3.76519e-08
4.46152e-08
4.48954e-08
3.85213e-08
3.77077e-08
3.76981e-08
3.6973e-08
3.47675e-08
3.06214e-08
2.41287e-08
1.54587e-08
7.65365e-09
1.83228e-08
3.39779e-08
4.55357e-08
4.81052e-08
4.66392e-08
4.36836e-08
4.05978e-08
3.93078e-08
4.48698e-08
7.36649e-08
7.4324e-08
4.46284e-08
3.76032e-08
3.78774e-08
4.01787e-08
4.25946e-08
4.39207e-08
4.17924e-08
3.11604e-08
1.55072e-08
4.40324e-08
7.04949e-08
8.37681e-08
8.49777e-08
7.78359e-08
6.68948e-08
5.61095e-08
4.85684e-08
5.17039e-08
1.27716e-07
1.31268e-07
5.09774e-08
4.4339e-08
4.88016e-08
5.67785e-08
6.56693e-08
7.19468e-08
7.12363e-08
5.98753e-08
3.51012e-08
6.9897e-08
7.2009e-08
8.15851e-08
8.5805e-08
8.38615e-08
7.69537e-08
6.72015e-08
5.86883e-08
6.69572e-08
2.24671e-07
2.35566e-07
6.7958e-08
5.51303e-08
6.19569e-08
7.1158e-08
7.78975e-08
7.99486e-08
7.65383e-08
6.99383e-08
7.18058e-08
2.26257e-07
1.23074e-07
9.15691e-08
8.55287e-08
8.22261e-08
7.68832e-08
6.97391e-08
6.44568e-08
8.57576e-08
3.78011e-07
4.05487e-07
9.19886e-08
6.50202e-08
6.85746e-08
7.49841e-08
8.04593e-08
8.47498e-08
9.30159e-08
1.28549e-07
2.35962e-07
4.16146e-07
2.12613e-07
1.1678e-07
9.009e-08
8.1248e-08
7.50573e-08
6.87652e-08
6.59081e-08
1.03249e-07
5.6185e-07
6.1013e-07
1.12658e-07
6.78754e-08
6.91486e-08
7.50222e-08
8.16008e-08
9.1631e-08
1.20535e-07
2.20381e-07
4.29006e-07
6.09314e-07
3.13572e-07
1.52005e-07
1.06889e-07
9.58172e-08
9.25055e-08
9.10451e-08
9.46083e-08
1.52278e-07
7.50357e-07
8.25145e-07
1.67702e-07
1.00351e-07
9.52623e-08
9.60752e-08
9.90885e-08
1.1057e-07
1.57874e-07
3.27214e-07
6.27025e-07
8.11589e-07
5.60444e-07
2.36909e-07
2.36488e-07
2.77911e-07
3.30752e-07
3.76388e-07
3.76291e-07
3.54231e-07
8.26798e-07
9.08219e-07
3.66206e-07
3.81218e-07
3.92427e-07
3.5466e-07
3.01131e-07
2.53783e-07
2.48652e-07
5.80738e-07
8.34562e-07
1.04915e-06
9.11654e-07
9.79968e-07
1.47045e-06
2.078e-06
2.72203e-06
3.281e-06
3.22501e-06
2.58914e-06
3.35891e-06
3.45957e-06
2.58772e-06
3.10641e-06
3.27458e-06
2.82331e-06
2.20557e-06
1.56942e-06
1.04238e-06
9.45683e-07
1.07877e-06
1.37406e-06
1.82603e-06
2.26635e-06
2.75363e-06
3.32604e-06
3.95193e-06
4.6063e-06
5.25125e-06
5.91491e-06
6.71745e-06
6.89053e-06
6.02314e-06
5.31268e-06
4.6594e-06
4.01412e-06
3.39525e-06
2.82029e-06
2.32303e-06
1.8705e-06
1.40572e-06
8.27836e-09
1.37865e-08
1.86658e-08
2.3252e-08
2.70606e-08
3.0409e-08
3.37505e-08
3.76519e-08
4.22261e-08
5.05584e-08
5.17962e-08
4.24029e-08
3.78784e-08
3.38702e-08
3.03551e-08
2.67733e-08
2.26594e-08
1.76512e-08
1.20122e-08
7.15471e-09
1.67518e-08
2.08024e-08
2.89178e-08
3.33071e-08
3.48218e-08
3.58289e-08
3.81395e-08
4.48698e-08
6.68756e-08
4.6125e-07
4.72402e-07
6.63182e-08
4.29878e-08
3.60222e-08
3.34734e-08
3.21647e-08
3.03832e-08
2.60509e-08
1.78317e-08
1.53701e-08
2.09266e-08
4.0071e-08
5.13732e-08
5.43187e-08
5.20151e-08
4.80783e-08
4.57089e-08
5.17039e-08
1.52039e-07
1.83798e-06
1.90789e-06
1.56003e-07
4.88906e-08
4.12392e-08
4.21191e-08
4.47295e-08
4.61618e-08
4.32265e-08
3.24569e-08
1.98753e-08
4.86031e-08
4.61036e-08
5.67195e-08
6.27784e-08
6.30863e-08
5.93676e-08
5.57025e-08
6.69572e-08
3.03113e-07
3.55068e-06
3.73956e-06
3.16717e-07
6.49991e-08
5.14606e-08
5.45142e-08
5.8574e-08
5.92202e-08
5.45053e-08
4.58677e-08
4.63947e-08
2.05648e-07
1.01591e-07
6.64942e-08
6.24726e-08
6.38981e-08
6.32626e-08
6.23603e-08
8.57576e-08
5.37642e-07
5.76235e-06
6.10543e-06
5.75127e-07
8.86413e-08
6.20481e-08
6.23931e-08
6.32491e-08
6.2916e-08
6.89953e-08
1.05806e-07
2.11186e-07
3.90424e-07
1.88678e-07
9.26368e-08
6.64055e-08
6.30475e-08
6.32766e-08
6.49995e-08
1.03249e-07
8.21663e-07
8.05786e-06
8.55642e-06
8.82852e-07
1.08948e-07
6.59024e-08
6.32e-08
6.28954e-08
6.72699e-08
9.57673e-08
1.94707e-07
3.99687e-07
5.79079e-07
2.72702e-07
1.27223e-07
8.48873e-08
8.06753e-08
8.54178e-08
9.35529e-08
1.52278e-07
1.11007e-06
9.48938e-06
1.00992e-05
1.19423e-06
1.6357e-07
9.80466e-08
8.82143e-08
8.23267e-08
8.66591e-08
1.31599e-07
2.82677e-07
5.93313e-07
7.77086e-07
5.12466e-07
2.06942e-07
2.09823e-07
2.56097e-07
3.04979e-07
3.32383e-07
3.54231e-07
1.17686e-06
8.95597e-06
9.57837e-06
1.2611e-06
3.63936e-07
3.38637e-07
3.16598e-07
2.69043e-07
2.19532e-07
2.15377e-07
5.31059e-07
7.96096e-07
1.01233e-06
8.48792e-07
8.81311e-07
1.36767e-06
1.91927e-06
2.43029e-06
2.68773e-06
2.58914e-06
3.57942e-06
7.8058e-06
8.16645e-06
3.70706e-06
2.58392e-06
2.63579e-06
2.44552e-06
1.97899e-06
1.42405e-06
9.2164e-07
8.73642e-07
1.03615e-06
1.35705e-06
1.81627e-06
2.26877e-06
2.78994e-06
3.41147e-06
4.11593e-06
4.92137e-06
5.91491e-06
7.32371e-06
9.1999e-06
9.4469e-06
7.49674e-06
6.02238e-06
4.98776e-06
4.17041e-06
3.46486e-06
2.84013e-06
2.31224e-06
1.85171e-06
1.38324e-06
8.2316e-09
1.35437e-08
1.7614e-08
2.19412e-08
2.61608e-08
3.06607e-08
3.67621e-08
4.46152e-08
5.05584e-08
5.7019e-08
5.84308e-08
5.11101e-08
4.36442e-08
3.57362e-08
2.9562e-08
2.49131e-08
2.05981e-08
1.60981e-08
1.20028e-08
7.23351e-09
1.75855e-08
1.68867e-08
2.17123e-08
2.79052e-08
3.25603e-08
3.81975e-08
5.07505e-08
7.36649e-08
4.6125e-07
7.19548e-07
7.29387e-07
4.81688e-07
7.11242e-08
4.8081e-08
3.63173e-08
3.09996e-08
2.65157e-08
2.04455e-08
1.56286e-08
1.65266e-08
2.49887e-08
2.47987e-08
3.21261e-08
3.76588e-08
4.01373e-08
4.21341e-08
5.19875e-08
1.27716e-07
1.83798e-06
1.65919e-06
1.65808e-06
1.93981e-06
1.28045e-07
4.94106e-08
3.95765e-08
3.71802e-08
3.40876e-08
2.85076e-08
2.19884e-08
2.3563e-08
4.55576e-08
3.71439e-08
4.02017e-08
4.53534e-08
4.81876e-08
4.90571e-08
6.15772e-08
2.24671e-07
3.55068e-06
2.92278e-06
2.89859e-06
3.78309e-06
2.31627e-07
6.06904e-08
4.72041e-08
4.59009e-08
4.29927e-08
3.91364e-08
3.7125e-08
4.11028e-08
1.94112e-07
9.66213e-08
5.24167e-08
4.43606e-08
5.02866e-08
5.51529e-08
7.5951e-08
3.78011e-07
5.76235e-06
4.54394e-06
4.48804e-06
6.15515e-06
4.00879e-07
7.90109e-08
5.55832e-08
4.98858e-08
4.43189e-08
5.55445e-08
1.00041e-07
1.96089e-07
3.69166e-07
1.79055e-07
8.19689e-08
4.90291e-08
5.04576e-08
5.92656e-08
9.11884e-08
5.6185e-07
8.05786e-06
6.43929e-06
6.34757e-06
8.58507e-06
5.99541e-07
9.66864e-08
6.02084e-08
5.00692e-08
4.98831e-08
8.5536e-08
1.83741e-07
3.75008e-07
5.45152e-07
2.55135e-07
1.15064e-07
6.88719e-08
7.15101e-08
8.88318e-08
1.35882e-07
7.50357e-07
9.48938e-06
8.29606e-06
8.16879e-06
1.00708e-05
8.02328e-07
1.46644e-07
9.2502e-08
7.2586e-08
7.07184e-08
1.19491e-07
2.62987e-07
5.55744e-07
7.26461e-07
4.51357e-07
1.77587e-07
1.69219e-07
2.11973e-07
2.50602e-07
2.91938e-07
8.26798e-07
8.95597e-06
9.47167e-06
9.30948e-06
9.49176e-06
8.79787e-07
3.04875e-07
2.5691e-07
2.17349e-07
1.74373e-07
1.84366e-07
4.65753e-07
7.41215e-07
9.40048e-07
7.2847e-07
6.90894e-07
1.09937e-06
1.494e-06
1.76363e-06
2.02747e-06
3.35891e-06
7.8058e-06
9.65341e-06
9.55147e-06
8.12503e-06
3.46088e-06
2.05845e-06
1.76432e-06
1.51491e-06
1.13035e-06
7.18271e-07
7.47706e-07
9.58843e-07
1.28297e-06
1.71759e-06
2.13948e-06
2.66265e-06
3.30099e-06
4.06661e-06
5.09015e-06
6.71745e-06
9.1999e-06
1.03978e-05
1.04317e-05
9.40281e-06
6.86649e-06
5.18778e-06
4.12963e-06
3.35047e-06
2.70574e-06
2.1769e-06
1.74797e-06
1.30504e-06
8.15521e-09
1.36506e-08
1.80539e-08
2.2463e-08
2.66417e-08
3.10756e-08
3.70677e-08
4.48954e-08
5.17962e-08
5.84308e-08
6.25216e-08
5.50405e-08
4.66804e-08
3.79122e-08
3.11297e-08
2.61011e-08
2.1448e-08
1.67812e-08
1.25081e-08
7.46913e-09
1.78333e-08
1.75128e-08
2.26505e-08
2.83652e-08
3.28924e-08
3.86232e-08
5.14518e-08
7.4324e-08
4.72402e-07
7.29387e-07
7.70181e-07
5.26267e-07
7.63846e-08
5.05396e-08
3.75844e-08
3.19497e-08
2.71439e-08
2.11392e-08
1.62365e-08
1.71087e-08
2.5552e-08
2.6069e-08
3.29901e-08
3.75339e-08
3.97819e-08
4.19254e-08
5.24571e-08
1.31268e-07
1.90789e-06
1.65808e-06
1.73466e-06
2.11579e-06
1.41203e-07
5.2897e-08
4.17438e-08
3.93826e-08
3.64938e-08
3.1324e-08
2.42805e-08
2.45384e-08
5.08078e-08
4.03478e-08
4.35095e-08
4.73331e-08
4.92641e-08
4.98531e-08
6.35768e-08
2.35566e-07
3.73956e-06
2.89859e-06
3.0038e-06
4.09683e-06
2.53366e-07
6.40477e-08
4.96168e-08
4.86975e-08
4.65903e-08
4.29812e-08
3.90335e-08
4.25636e-08
2.04641e-07
1.01379e-07
5.72586e-08
4.84294e-08
5.29508e-08
5.77361e-08
8.11073e-08
4.05487e-07
6.10543e-06
4.48804e-06
4.61344e-06
6.6185e-06
4.31626e-07
8.10013e-08
5.7008e-08
5.21696e-08
4.86488e-08
5.90105e-08
1.01917e-07
2.02378e-07
3.80654e-07
1.85067e-07
8.54202e-08
5.27745e-08
5.31152e-08
6.19731e-08
9.83727e-08
6.1013e-07
8.55642e-06
6.34757e-06
6.48231e-06
9.19295e-06
6.43219e-07
9.71343e-08
6.02995e-08
5.21738e-08
5.40793e-08
8.83767e-08
1.88094e-07
3.83589e-07
5.57301e-07
2.6138e-07
1.17892e-07
7.16636e-08
7.41259e-08
9.24646e-08
1.47145e-07
8.25145e-07
1.00992e-05
8.16879e-06
8.29603e-06
1.07643e-05
8.57965e-07
1.45505e-07
9.06576e-08
7.36103e-08
7.40441e-08
1.22561e-07
2.68609e-07
5.65425e-07
7.39988e-07
4.64463e-07
1.79876e-07
1.72923e-07
2.16027e-07
2.5414e-07
3.01971e-07
9.08219e-07
9.57836e-06
9.30948e-06
9.41494e-06
1.01751e-05
9.39518e-07
3.04315e-07
2.55767e-07
2.19695e-07
1.78769e-07
1.88038e-07
4.77558e-07
7.5231e-07
9.56433e-07
7.42558e-07
7.03961e-07
1.10406e-06
1.48656e-06
1.73518e-06
2.03426e-06
3.45957e-06
8.16645e-06
9.55147e-06
9.71028e-06
8.54251e-06
3.57794e-06
2.08357e-06
1.7687e-06
1.53267e-06
1.14785e-06
7.35893e-07
7.63567e-07
9.72875e-07
1.30389e-06
1.74318e-06
2.16898e-06
2.69441e-06
3.34017e-06
4.12389e-06
5.19216e-06
6.89053e-06
9.4469e-06
1.04317e-05
1.07609e-05
9.79876e-06
7.1124e-06
5.33256e-06
4.21925e-06
3.41308e-06
2.75272e-06
2.21526e-06
1.77642e-06
1.32435e-06
7.99198e-09
1.43614e-08
2.05383e-08
2.54411e-08
2.91158e-08
3.21411e-08
3.50955e-08
3.85213e-08
4.24029e-08
5.11101e-08
5.50405e-08
4.50664e-08
3.94757e-08
3.48317e-08
3.11352e-08
2.75824e-08
2.36006e-08
1.86347e-08
1.30732e-08
7.62027e-09
1.6958e-08
2.19967e-08
3.03223e-08
3.42989e-08
3.55184e-08
3.62924e-08
3.83663e-08
4.46284e-08
6.63182e-08
4.81688e-07
5.26267e-07
7.1221e-08
4.45918e-08
3.70122e-08
3.46816e-08
3.39006e-08
3.27009e-08
2.82636e-08
1.9897e-08
1.63995e-08
2.23978e-08
4.06638e-08
5.1144e-08
5.29124e-08
5.00181e-08
4.61014e-08
4.42823e-08
5.09774e-08
1.56003e-07
1.93981e-06
2.11579e-06
1.73916e-07
5.2251e-08
4.39926e-08
4.56693e-08
4.94508e-08
5.20567e-08
4.98682e-08
3.89008e-08
2.14609e-08
6.18866e-08
5.37206e-08
6.08116e-08
6.54375e-08
6.46034e-08
5.95758e-08
5.53934e-08
6.7958e-08
3.16717e-07
3.78309e-06
4.09683e-06
3.50027e-07
6.90507e-08
5.49296e-08
5.87666e-08
6.33554e-08
6.39055e-08
5.91162e-08
5.06276e-08
5.17295e-08
2.2133e-07
1.12476e-07
7.4819e-08
6.828e-08
6.81115e-08
6.67182e-08
6.58391e-08
9.19886e-08
5.75127e-07
6.15515e-06
6.6185e-06
6.27114e-07
9.25718e-08
6.4746e-08
6.57161e-08
6.71609e-08
6.79056e-08
7.50874e-08
1.12193e-07
2.19531e-07
4.06035e-07
1.99836e-07
1.00677e-07
7.27116e-08
6.78202e-08
6.72484e-08
6.93861e-08
1.12658e-07
8.82852e-07
8.58507e-06
9.19295e-06
9.55673e-07
1.12907e-07
6.78151e-08
6.60381e-08
6.7296e-08
7.36527e-08
1.0315e-07
2.03319e-07
4.09908e-07
5.94421e-07
2.85059e-07
1.33619e-07
9.07454e-08
8.65022e-08
9.14714e-08
1.00867e-07
1.67702e-07
1.19423e-06
1.00708e-05
1.07643e-05
1.27821e-06
1.67391e-07
9.89601e-08
9.03426e-08
8.6595e-08
9.3174e-08
1.39089e-07
2.94901e-07
6.03595e-07
7.9256e-07
5.29674e-07
2.13143e-07
2.21003e-07
2.70323e-07
3.17514e-07
3.38233e-07
3.66206e-07
1.2611e-06
9.49176e-06
1.01751e-05
1.34156e-06
3.65729e-07
3.38767e-07
3.2167e-07
2.7675e-07
2.28247e-07
2.23306e-07
5.44502e-07
8.06114e-07
1.02885e-06
8.62266e-07
9.03585e-07
1.40377e-06
1.95479e-06
2.41526e-06
2.58142e-06
2.58772e-06
3.70706e-06
8.12503e-06
8.54251e-06
3.86521e-06
2.61959e-06
2.6104e-06
2.47995e-06
2.03305e-06
1.46353e-06
9.45408e-07
8.87863e-07
1.047e-06
1.37643e-06
1.84133e-06
2.29939e-06
2.82594e-06
3.45119e-06
4.15821e-06
4.97733e-06
6.02314e-06
7.49674e-06
9.40281e-06
9.79876e-06
7.76262e-06
6.19717e-06
5.10073e-06
4.25414e-06
3.52997e-06
2.88973e-06
2.34997e-06
1.87728e-06
1.39824e-06
8.925e-09
1.93354e-08
2.85215e-08
3.44531e-08
3.76394e-08
3.87656e-08
3.84988e-08
3.77077e-08
3.78784e-08
4.36442e-08
4.66804e-08
3.94757e-08
3.71213e-08
3.65215e-08
3.58504e-08
3.41022e-08
3.06388e-08
2.47747e-08
1.63588e-08
8.24219e-09
1.94038e-08
3.74852e-08
4.85652e-08
4.9725e-08
4.70446e-08
4.31555e-08
3.93478e-08
3.76032e-08
4.29878e-08
7.11242e-08
7.63846e-08
4.45918e-08
3.69749e-08
3.80307e-08
4.18015e-08
4.60029e-08
4.93162e-08
4.87586e-08
3.66753e-08
1.72878e-08
4.72535e-08
6.92217e-08
8.06953e-08
8.05947e-08
7.22596e-08
6.09813e-08
5.0813e-08
4.4339e-08
4.88906e-08
1.28045e-07
1.41203e-07
5.2251e-08
4.50818e-08
5.10639e-08
6.09799e-08
7.18541e-08
7.96213e-08
7.9009e-08
6.67984e-08
4.26477e-08
8.41632e-08
7.79356e-08
8.33394e-08
8.62881e-08