/*--------------------------------*- C++ -*----------------------------------*\
  =========                 |
  \\      /  F ield         | OpenFOAM: The Open Source CFD Toolbox
   \\    /   O peration     | Website:  https://openfoam.org
    \\  /    A nd           | Version:  9
     \\/     M anipulation  |
\*---------------------------------------------------------------------------*/
FoamFile
{
    format      ascii;
    class       volVectorField;
    location    "1550";
    object      U;
}
// * * * * * * * * * * * * * * * * * * * * * * * * * * * * * * * * * * * * * //

dimensions      [0 1 -1 0 0 0 0];

internalField   nonuniform List<vector> 
4000
(
(0.00542465 -0.00817498 0.00542465)
(0.00909038 0.00133141 0.00458085)
(0.00708545 0.00816484 0.00253364)
(0.00247261 0.00611673 0.00101783)
(-0.00241674 -0.000224025 0.000324061)
(-0.00327053 -0.00306872 0.000205826)
(-0.00297137 -0.00166624 -2.1645e-05)
(-0.00159453 -0.00071036 -0.000150184)
(-0.00084993 -0.000836578 -0.000171351)
(4.8321e-07 -0.0008418 -0.000216817)
(0.000742066 -0.000801006 -0.000207801)
(0.00146768 -0.000692459 -6.36397e-05)
(0.00162142 -0.000612606 -0.000100501)
(0.00275596 -0.00150706 0.000126251)
(0.00227323 -0.00211314 0.000419576)
(0.000867002 0.00153094 0.000649097)
(-0.00407693 0.00691827 0.00162687)
(-0.009544 0.00639491 0.00349975)
(-0.0107469 -0.00341662 0.0053175)
(-0.00613067 -0.0138672 0.00608737)
(0.00458293 -0.0268931 0.00458293)
(0.010977 -0.0166539 0.00507588)
(0.0157754 -0.00733915 0.00509062)
(0.0166211 0.000477229 0.0045211)
(0.0126851 0.00427962 0.00360193)
(0.00568828 0.00325857 0.00280465)
(-0.00238732 -0.00104224 0.000384909)
(-0.00214336 -0.00140201 -0.000610644)
(-0.00207194 -0.000631721 -0.00107882)
(-0.000804615 -0.000543306 -0.00139109)
(0.000471936 -0.000533545 -0.00144813)
(0.00201874 -0.000730476 -0.00109993)
(0.00207437 -0.00131349 -0.000633656)
(0.00234729 -0.000493491 0.000655762)
(-0.00637435 0.00347673 0.00289967)
(-0.0135017 0.00257074 0.00347529)
(-0.0167315 -0.000112564 0.00417039)
(-0.015291 -0.00645796 0.00456438)
(-0.0103241 -0.0165664 0.00452309)
(-0.00415769 -0.0277874 0.00403622)
(0.00248685 -0.0380806 0.00248685)
(0.00645063 -0.026485 0.00337713)
(0.0087615 -0.0142142 0.0036036)
(0.0108716 -0.00411818 0.00367678)
(0.0118462 0.00245559 0.00350665)
(0.00904132 0.00351149 0.00320506)
(0.0052093 0.00219578 0.00267688)
(0.000571815 -6.10508e-05 0.00165292)
(-0.00211639 -0.000715854 -0.000795673)
(-0.000718557 -0.000835805 -0.00181964)
(0.000204042 -0.000826207 -0.00181732)
(0.00156164 -0.000635607 -0.000667916)
(-0.00145882 0.000620975 0.00153162)
(-0.00545254 0.0029707 0.00236772)
(-0.0085999 0.00447716 0.00296569)
(-0.0114372 0.00266681 0.00331289)
(-0.0104378 -0.0044638 0.00363418)
(-0.00829897 -0.0147046 0.00349725)
(-0.00596467 -0.027264 0.00316424)
(-0.00227449 -0.0390506 0.00218372)
(0.00118422 -0.0442537 0.00118422)
(0.00275554 -0.0327924 0.00246269)
(0.0015923 -0.0206801 0.00290765)
(0.00203752 -0.0104177 0.00366752)
(0.00228767 -0.00270323 0.00441245)
(0.00327904 0.00108088 0.00435822)
(0.00216999 0.00148546 0.00393126)
(0.000228839 0.00143044 0.00322512)
(-0.00173526 0.00150966 0.00187917)
(-0.00122861 0.00141105 0.00105423)
(0.000268782 0.00138922 0.00134343)
(0.00022486 0.00173896 0.00243657)
(-0.00149871 0.00172591 0.00340118)
(-0.00285759 0.00164249 0.00394184)
(-0.003367 0.00107176 0.0043111)
(-0.00189959 -0.00292655 0.00441826)
(-0.00167167 -0.0107171 0.00367554)
(-0.00131753 -0.0208515 0.00291867)
(-0.00252284 -0.0331107 0.00242167)
(-0.00111953 -0.0446797 0.00106425)
(0.000315985 -0.0466202 0.000315985)
(0.000228502 -0.0355933 0.00186817)
(-0.0031566 -0.0244894 0.00225679)
(-0.0039869 -0.0161447 0.00284957)
(-0.00452744 -0.0103825 0.00341232)
(-0.00411777 -0.00709139 0.00367717)
(-0.00351429 -0.00512542 0.0035539)
(-0.00285496 -0.00392186 0.00343136)
(-0.00206465 -0.00333594 0.00336671)
(-0.00111034 -0.00316254 0.00327634)
(0.000623879 -0.00366055 0.00321923)
(0.00172585 -0.00389412 0.00335735)
(0.00271552 -0.00432999 0.00346271)
(0.00351612 -0.00548272 0.00359932)
(0.00421264 -0.00745959 0.003699)
(0.00469308 -0.0107416 0.00344027)
(0.00415589 -0.0164555 0.00289735)
(0.00329081 -0.0247385 0.00229817)
(-0.000105194 -0.0358241 0.00188656)
(-0.000301153 -0.0468566 0.000280633)
(-0.00044903 -0.046272 -0.000449031)
(-0.00156891 -0.0365948 0.00118152)
(-0.00601871 -0.0275399 0.00114984)
(-0.00737979 -0.0211299 0.00114166)
(-0.00800332 -0.0167925 0.00103696)
(-0.00746975 -0.0140453 0.000932456)
(-0.00627974 -0.0122754 0.000862698)
(-0.00465669 -0.0110709 0.000861934)
(-0.00273891 -0.0103158 0.000949109)
(-0.0010635 -0.010039 0.00106026)
(0.0012339 -0.0105609 0.000904786)
(0.00295574 -0.0109859 0.000797945)
(0.00492532 -0.0116572 0.000760274)
(0.00658778 -0.0127567 0.000821865)
(0.00777185 -0.0144484 0.000942661)
(0.00826903 -0.0171492 0.00107829)
(0.00758632 -0.0214438 0.00119905)
(0.0061499 -0.0278181 0.00120193)
(0.00165908 -0.036851 0.00122106)
(0.000453897 -0.0464692 -0.000441182)
(-0.0013697 -0.0436648 -0.0013697)
(-0.00308686 -0.0358675 0.000155911)
(-0.0082871 -0.0290138 -0.000406099)
(-0.0100551 -0.0245881 -0.000957299)
(-0.0106269 -0.0217209 -0.00154105)
(-0.00981606 -0.0199305 -0.00202116)
(-0.00811187 -0.0187374 -0.00240339)
(-0.00583386 -0.0178533 -0.00261715)
(-0.00318201 -0.0171974 -0.0026046)
(-0.00103997 -0.0168302 -0.0024049)
(0.00161885 -0.0172618 -0.00255347)
(0.00375733 -0.017791 -0.00273736)
(0.00637638 -0.0183903 -0.00270718)
(0.00863928 -0.0191899 -0.00244573)
(0.0102978 -0.0203231 -0.00202406)
(0.0110347 -0.0220789 -0.00150689)
(0.0103624 -0.0249083 -0.000904292)
(0.00847883 -0.0293061 -0.000355076)
(0.00319479 -0.0361314 0.000199834)
(0.00137696 -0.0438739 -0.00134209)
(-0.00282745 -0.0378964 -0.00282745)
(-0.00517099 -0.0321858 -0.00160724)
(-0.0109025 -0.0277446 -0.00255227)
(-0.0129827 -0.0252729 -0.00350339)
(-0.0134185 -0.0237754 -0.00436834)
(-0.0122777 -0.0229226 -0.00508574)
(-0.0100452 -0.0223806 -0.00566384)
(-0.00707706 -0.0219491 -0.0060592)
(-0.00365772 -0.0215649 -0.00619364)
(-0.00111409 -0.0212783 -0.00597697)
(0.00190491 -0.0215249 -0.00608727)
(0.00447908 -0.0219332 -0.00626405)
(0.00782856 -0.0223024 -0.0061088)
(0.0107429 -0.0226997 -0.00569386)
(0.0129005 -0.0232292 -0.00509531)
(0.01395 -0.0240857 -0.00435239)
(0.0133909 -0.0255667 -0.00346521)
(0.011165 -0.0280262 -0.00250974)
(0.0053152 -0.032443 -0.00156347)
(0.00284868 -0.0380995 -0.00279626)
(-0.005345 -0.0281489 -0.005345)
(-0.00876442 -0.024192 -0.00491049)
(-0.0146694 -0.0219091 -0.00606755)
(-0.0167641 -0.02106 -0.00731537)
(-0.0169821 -0.0208602 -0.00843087)
(-0.0154845 -0.0210208 -0.00933814)
(-0.0127052 -0.0212455 -0.0100624)
(-0.00899965 -0.0213767 -0.0105363)
(-0.00468257 -0.0212949 -0.0106157)
(-0.00149172 -0.0210109 -0.0100252)
(0.00245048 -0.0211752 -0.0101828)
(0.00566985 -0.0215369 -0.0106894)
(0.00989096 -0.0216094 -0.0105861)
(0.0135266 -0.0214668 -0.0100977)
(0.0162167 -0.0212409 -0.0093582)
(0.0176072 -0.0210891 -0.00842928)
(0.0172588 -0.0213034 -0.00728964)
(0.0150052 -0.02215 -0.00603038)
(0.00895115 -0.0244048 -0.00486719)
(0.00538938 -0.0283138 -0.00531873)
(-0.00942736 -0.0173205 -0.00942736)
(-0.0152132 -0.0136686 -0.0107285)
(-0.0210293 -0.0118928 -0.0129342)
(-0.0229064 -0.0111962 -0.015021)
(-0.0227248 -0.0108432 -0.0169955)
(-0.020746 -0.0105866 -0.018764)
(-0.0173306 -0.0102407 -0.0202345)
(-0.0127287 -0.00972541 -0.0213317)
(-0.00717233 -0.00902337 -0.0217818)
(-0.00264897 -0.008307 -0.0208645)
(0.00369367 -0.008414 -0.0210763)
(0.00820401 -0.00914199 -0.0218645)
(0.0136719 -0.0098152 -0.0213886)
(0.0182186 -0.010306 -0.0202842)
(0.0215578 -0.0106506 -0.018796)
(0.0234284 -0.0109234 -0.0170058)
(0.023475 -0.0113022 -0.0150217)
(0.0214324 -0.0120202 -0.0129228)
(0.0154417 -0.0138014 -0.0107054)
(0.00950185 -0.0174361 -0.00941317)
(0.00458085 0.00133141 0.00909038)
(0.00729703 0.00600233 0.00729703)
(0.00632863 0.00728851 0.00445003)
(0.00326863 0.00383644 0.00219909)
(-0.00011492 -0.00095072 0.000935655)
(-0.00148886 -0.00313394 0.000801227)
(-0.0011283 -0.00185434 0.000782029)
(-0.000346607 -0.000724641 0.000452402)
(-4.52984e-05 -0.000580321 0.000333214)
(0.000249219 -0.000651326 0.000208351)
(0.000398593 -0.000618107 0.000313863)
(0.000454243 -0.000513973 0.000620254)
(0.000321728 -0.000770713 0.000679283)
(0.000657764 -0.00187953 0.00107955)
(0.000345158 -0.00276452 0.00101255)
(-0.00101149 0.000156141 0.00144004)
(-0.00400004 0.00509086 0.00257688)
(-0.00752249 0.0075262 0.00504046)
(-0.00845808 0.00362893 0.00845525)
(-0.00537686 -0.00321632 0.0107008)
(0.00507588 -0.0166539 0.010977)
(0.0112934 -0.0103523 0.0112934)
(0.0158149 -0.00343787 0.0102223)
(0.0164964 0.0021257 0.00825619)
(0.0129721 0.00457608 0.00597875)
(0.00717455 0.00330663 0.00432638)
(0.00184703 -0.00087111 0.0022803)
(0.00024141 -0.00197378 0.000177696)
(-0.000418354 -0.00124253 -0.000879042)
(-0.000293246 -0.00104092 -0.00163109)
(-0.000133885 -0.00100206 -0.00162592)
(9.06471e-05 -0.00115183 -0.00094395)
(-0.000418605 -0.00150969 0.000176173)
(-0.00199021 0.000210795 0.00248637)
(-0.0079099 0.00325284 0.00444408)
(-0.0140056 0.0028709 0.00605716)
(-0.0169728 0.00101431 0.0081396)
(-0.0156004 -0.00307729 0.00977657)
(-0.0108462 -0.00972143 0.0105927)
(-0.00465454 -0.0163422 0.0101079)
(0.00337713 -0.026485 0.00645063)
(0.00833123 -0.0193167 0.00833123)
(0.0116034 -0.0100414 0.00850241)
(0.0139478 -0.00127197 0.00755268)
(0.0137472 0.00369803 0.006325)
(0.0109013 0.00408809 0.00532726)
(0.00743686 0.00209145 0.00429653)
(0.00337083 -0.000153742 0.00279423)
(0.000883807 -0.0014335 0.000370447)
(-0.000183149 -0.00139938 -0.002111)
(-0.000625161 -0.00145128 -0.0020687)
(-0.00160598 -0.00127904 7.05104e-06)
(-0.00416731 0.000458306 0.00230208)
(-0.00756173 0.00309107 0.00376884)
(-0.0105364 0.00505579 0.00489066)
(-0.0134738 0.00381532 0.00598025)
(-0.0136969 -0.00184116 0.00741309)
(-0.0114578 -0.0107528 0.00835926)
(-0.00810746 -0.0200682 0.00795992)
(-0.00323121 -0.0271447 0.00584679)
(0.00246269 -0.0327924 0.00275554)
(0.00625886 -0.0260488 0.00625886)
(0.00693135 -0.0162145 0.00758835)
(0.00781787 -0.00599543 0.00789061)
(0.0087414 0.00170287 0.00749713)
(0.0078382 0.00430762 0.00666962)
(0.00556625 0.00364594 0.00561368)
(0.00288954 0.00231277 0.00423222)
(0.00033609 0.00127538 0.00212461)
(-0.000731738 0.000816704 -0.000731353)
(-0.000943848 0.00106189 -5.73243e-05)
(-0.00206762 0.00192673 0.00248743)
(-0.00430854 0.00297576 0.00429374)
(-0.00643909 0.0041705 0.00552854)
(-0.00800597 0.00470527 0.00646947)
(-0.00848096 0.00175909 0.00729555)
(-0.00755765 -0.00626524 0.00779126)
(-0.00677864 -0.016489 0.00755696)
(-0.00617002 -0.0263909 0.00615021)
(-0.00243273 -0.033062 0.00251891)
(0.00186817 -0.0355933 0.000228501)
(0.00521057 -0.0288679 0.00521057)
(0.00371327 -0.0187517 0.00736974)
(0.00308847 -0.00831503 0.00827569)
(0.00209128 -0.00054928 0.00870653)
(0.00214596 0.00296297 0.00813893)
(0.00112011 0.00341041 0.00708209)
(-6.13996e-05 0.00307056 0.00595313)
(-0.00101918 0.00278059 0.00483978)
(-0.000951616 0.00278094 0.00369134)
(2.5221e-06 0.00277193 0.00396588)
(2.67243e-05 0.00302403 0.00522535)
(-0.000817024 0.00340859 0.00630393)
(-0.00177882 0.00357188 0.00732645)
(-0.00248371 0.00295329 0.00822963)
(-0.00213372 -0.000658784 0.00874916)
(-0.002999 -0.00848521 0.0083293)
(-0.00362736 -0.0189936 0.00743179)
(-0.00515961 -0.029178 0.00524914)
(-0.00185763 -0.0358515 0.000207982)
(0.00118152 -0.0365948 -0.00156891)
(0.00450925 -0.0293534 0.00450925)
(0.00140596 -0.0194165 0.00701387)
(0.000178642 -0.00940434 0.00800998)
(-0.00134706 -0.00235896 0.00839483)
(-0.0013043 0.00145263 0.00833518)
(-0.00155913 0.00263811 0.00770889)
(-0.00179456 0.00300521 0.00712286)
(-0.0016656 0.00321692 0.00665527)
(-0.000946372 0.00333507 0.00615276)
(0.000586404 0.00329413 0.00623897)
(0.00126109 0.00331153 0.00678783)
(0.00145657 0.0031605 0.00728274)
(0.00134519 0.00264533 0.00787518)
(0.00123075 0.00121604 0.00843932)
(0.0013356 -0.00264921 0.00849014)
(-0.000105888 -0.0096606 0.0081285)
(-0.00131866 -0.0197014 0.00713161)
(-0.00445206 -0.0296908 0.00462577)
(-0.00117083 -0.0369075 -0.00147974)
(0.000155911 -0.0358675 -0.00308687)
(0.003467 -0.0279996 0.003467)
(-0.000982239 -0.0186629 0.0059389)
(-0.00219299 -0.0103341 0.00677151)
(-0.00344373 -0.0047545 0.00688684)
(-0.00356298 -0.00150893 0.00687209)
(-0.00302674 0.000290218 0.00695798)
(-0.00235268 0.00104855 0.00704156)
(-0.00153233 0.00132007 0.00709629)
(-0.000677964 0.00136333 0.0068973)
(0.000707583 0.00128611 0.0068916)
(0.00158415 0.00125744 0.00706493)
(0.00251183 0.000997753 0.00697165)
(0.00328629 0.000116712 0.00692307)
(0.00383591 -0.00178443 0.00690491)
(0.0036627 -0.00507186 0.00699044)
(0.00237169 -0.010693 0.00690867)
(0.00112666 -0.0189996 0.00608202)
(-0.00337446 -0.0283678 0.00361633)
(-0.000139002 -0.0361979 -0.00296762)
(-0.00160724 -0.0321858 -0.00517099)
(0.00101362 -0.024275 0.00101362)
(-0.0042611 -0.0170018 0.00303467)
(-0.00543036 -0.0110568 0.00340591)
(-0.00635907 -0.00686819 0.00288075)
(-0.00622008 -0.00437195 0.00234515)
(-0.00532205 -0.00284942 0.00198619)
(-0.00386699 -0.00172065 0.00199167)
(-0.00207715 -0.000580691 0.00252373)
(-0.000551133 0.000657506 0.00343638)
(0.00117883 0.000302753 0.00312042)
(0.00273851 -0.000971564 0.00218306)
(0.00450881 -0.00197831 0.00177309)
(0.00592309 -0.00307198 0.00185702)
(0.00675541 -0.00462301 0.0023088)
(0.00679929 -0.00716313 0.00294142)
(0.00578623 -0.0114278 0.00352377)
(0.00449511 -0.0173839 0.00316768)
(-0.000859288 -0.0246445 0.00117065)
(0.00163848 -0.0324917 -0.00505882)
(-0.00491049 -0.024192 -0.00876442)
(-0.00496185 -0.0183302 -0.00496185)
(-0.0100096 -0.0140106 -0.00401381)
(-0.0112895 -0.0116496 -0.00442486)
(-0.0112949 -0.0103409 -0.00522928)
(-0.0101024 -0.00987588 -0.00592034)
(-0.00817015 -0.0098259 -0.00641791)
(-0.00571826 -0.00993462 -0.00649012)
(-0.00297936 -0.00993571 -0.00599205)
(-0.000847635 -0.00947778 -0.0046899)
(0.0019003 -0.00955443 -0.00494465)
(0.00394589 -0.0100473 -0.00617)
(0.00660601 -0.0100428 -0.00660931)
(0.00899497 -0.00997204 -0.00647625)
(0.0108496 -0.010078 -0.00593113)
(0.0119624 -0.0106061 -0.00519069)
(0.0118245 -0.0119653 -0.0043295)
(0.0103568 -0.0143282 -0.00390953)
(0.00515668 -0.0186105 -0.00486406)
(0.00498264 -0.0244388 -0.00869414)
(-0.0107285 -0.0136686 -0.0152132)
(-0.0159673 -0.00831014 -0.0159673)
(-0.0217649 -0.00539358 -0.018451)
(-0.0234214 -0.00384981 -0.0211742)
(-0.0231966 -0.00287009 -0.0239053)
(-0.0213566 -0.00209744 -0.0264451)
(-0.0182563 -0.00123117 -0.028554)
(-0.0140529 -0.000189587 -0.0301182)
(-0.00872689 0.00103123 -0.0307501)
(-0.00374316 0.00240066 -0.0296057)
(0.00480551 0.00232785 -0.0298573)
(0.00971333 0.00100698 -0.0308896)
(0.0150026 -0.000168531 -0.030219)
(0.0191939 -0.00117738 -0.028638)
(0.0222423 -0.00205067 -0.0264987)
(0.0239816 -0.00285922 -0.0239332)
(0.0240775 -0.00389698 -0.0212059)
(0.0222436 -0.00549159 -0.0184681)
(0.0162613 -0.00844084 -0.0159663)
(0.0108646 -0.0138218 -0.0151993)
(0.00253364 0.00816484 0.00708545)
(0.00445003 0.00728851 0.00632863)
(0.00416146 0.0048974 0.00416146)
(0.00238625 0.00120604 0.00226144)
(0.000459352 -0.00228496 0.00129777)
(-0.000175451 -0.00303974 0.00144711)
(0.000237997 -0.00185648 0.001679)
(0.0008643 -0.000829594 0.00153334)
(0.000774534 -0.000588847 0.00129948)
(0.000568597 -0.000660427 0.00105319)
(0.000155735 -0.000599947 0.0012699)
(-0.000337877 -0.000450946 0.00167426)
(-0.000747241 -0.000815713 0.00178235)
(-0.000564989 -0.00201424 0.00190694)
(-0.000634132 -0.00290743 0.00179203)
(-0.00130262 -0.00162758 0.0019466)
(-0.00276085 0.0021887 0.00269388)
(-0.00447893 0.00609114 0.00457835)
(-0.0049321 0.0074732 0.00742384)
(-0.00352011 0.00653044 0.00923499)
(0.00509062 -0.00733914 0.0157754)
(0.0102223 -0.00343787 0.0158149)
(0.0139672 0.000825145 0.0139672)
(0.0141574 0.00378213 0.010883)
(0.0110509 0.00466436 0.00769763)
(0.0064025 0.00253864 0.00534171)
(0.00267064 -0.00129714 0.00312686)
(0.00150124 -0.0022288 0.00133301)
(0.000797874 -0.00164976 1.99316e-05)
(0.00015905 -0.00123267 -0.00107814)
(-0.000624762 -0.00117328 -0.00105165)
(-0.00110371 -0.00136082 -0.000161189)
(-0.00164796 -0.00157111 0.00109926)
(-0.00278191 -0.00026369 0.00310561)
(-0.00702131 0.00279805 0.00531254)
(-0.0121102 0.00318529 0.00783595)
(-0.0150207 0.00200328 0.0110453)
(-0.0141883 6.4344e-05 0.0137321)
(-0.0100845 -0.00291083 0.015176)
(-0.00475673 -0.00602626 0.0149183)
(0.0036036 -0.0142142 0.0087615)
(0.00850241 -0.0100414 0.0116034)
(0.0120677 -0.0041042 0.0120677)
(0.0143682 0.00195973 0.0109202)
(0.0137626 0.00470449 0.0090742)
(0.0111605 0.00409712 0.00744915)
(0.00793608 0.00183182 0.00583632)
(0.00415068 -0.000447911 0.00378914)
(0.00177329 -0.00151805 0.00105643)
(0.000299098 -0.00134384 -0.00159453)
(-0.00125535 -0.0013299 -0.00169555)
(-0.00255554 -0.00135476 0.000435716)
(-0.00494614 8.21962e-05 0.00299215)
(-0.00816113 0.00281492 0.00506776)
(-0.0109033 0.0051466 0.00673547)
(-0.013592 0.00498566 0.00844436)
(-0.0143491 0.00142238 0.0105082)
(-0.012175 -0.00493394 0.0118236)
(-0.0085751 -0.0106623 0.0112273)
(-0.00357752 -0.0144772 0.0081713)
(0.00290765 -0.0206801 0.0015923)
(0.00758835 -0.0162145 0.00693135)
(0.00954824 -0.00977941 0.00954824)
(0.0111039 -0.00220688 0.0101828)
(0.0117443 0.00350959 0.00963468)
(0.0102503 0.00507059 0.00848656)
(0.00751305 0.00391811 0.00699847)
(0.00446373 0.00195712 0.00509062)
(0.00175046 0.00036593 0.00222607)
(-0.000235312 -0.000241431 -0.00140147)
(-0.00167576 -3.78596e-05 -0.00102774)
(-0.00345301 0.000931538 0.00226767)
(-0.00598813 0.00260608 0.00489741)
(-0.00851916 0.0044808 0.00669365)
(-0.010584 0.00558524 0.00806975)
(-0.0116986 0.00367594 0.00918797)
(-0.0109784 -0.00250383 0.00986192)
(-0.00950985 -0.0101829 0.00935724)
(-0.00762652 -0.0165124 0.00675111)
(-0.00290487 -0.0208125 0.00137648)
(0.00225679 -0.0244894 -0.0031566)
(0.00736974 -0.0187517 0.00371327)
(0.00767005 -0.0120027 0.00767005)
(0.00784349 -0.00401658 0.00939644)
(0.00747468 0.00269006 0.00989455)
(0.00661182 0.00560877 0.00912776)
(0.00467624 0.00525052 0.00770662)
(0.00243492 0.0036821 0.00586018)
(0.000295918 0.00234947 0.00340265)
(-0.000718117 0.00176698 0.000399188)
(-0.000733567 0.00203275 0.000883938)
(-0.00174022 0.00292136 0.00380001)
(-0.00371082 0.00421643 0.00607849)
(-0.00567062 0.00551857 0.00780849)
(-0.00718418 0.00570767 0.00909626)
(-0.00769941 0.00270346 0.00982508)
(-0.00788373 -0.00415449 0.00939557)
(-0.00767855 -0.0123061 0.00772587)
(-0.00738946 -0.0191157 0.00378157)
(-0.00223758 -0.0248348 -0.00308029)
(0.00114985 -0.0275399 -0.00601871)
(0.00701387 -0.0194165 0.00140596)
(0.00598574 -0.0121765 0.00598574)
(0.00540441 -0.0040689 0.00817913)
(0.00417258 0.00274267 0.00904508)
(0.00344326 0.00609809 0.00866261)
(0.00220531 0.00623653 0.00741802)
(0.000778372 0.0052024 0.00588962)
(-0.000481789 0.00435482 0.00412936)
(-0.000748939 0.00397839 0.00231025)
(-0.000145595 0.00415326 0.00248765)
(-0.000422147 0.00485236 0.00440797)
(-0.00154291 0.00567509 0.00607853)
(-0.00280262 0.00639067 0.00757421)
(-0.00383002 0.005963 0.00874664)
(-0.00438873 0.00254801 0.00914956)
(-0.00547249 -0.00431586 0.00834828)
(-0.00598873 -0.0125496 0.00619132)
(-0.00701834 -0.0198781 0.00160035)
(-0.00113422 -0.027945 -0.0058615)
(-0.000406099 -0.0290138 -0.0082871)
(0.0059389 -0.0186629 -0.00098224)
(0.0038249 -0.011063 0.0038249)
(0.00327211 -0.00352477 0.00624801)
(0.00174489 0.0020736 0.00700092)
(0.00107564 0.00519012 0.00666514)
(0.00055093 0.00548818 0.00581054)
(-1.39834e-05 0.00464082 0.00485005)
(-0.000489118 0.00390551 0.00385634)
(-0.000494745 0.00364233 0.00273598)
(0.000102751 0.00375509 0.00278845)
(0.000166845 0.00424899 0.00394247)
(-0.000191158 0.0049686 0.00491589)
(-0.000671475 0.00550705 0.00589423)
(-0.00114281 0.0049208 0.00678321)
(-0.00180032 0.00173644 0.00721765)
(-0.00326712 -0.00387259 0.00651992)
(-0.00377753 -0.0115328 0.00409983)
(-0.0059254 -0.0192118 -0.000759175)
(0.000421989 -0.0294446 -0.00813139)
(-0.00255227 -0.0277446 -0.0109025)
(0.00303467 -0.0170018 -0.0042611)
(-1.9722e-06 -0.00888901 -1.97355e-06)
(-2.03329e-05 -0.0009271 0.00209448)
(-0.000731203 0.00428711 0.00274187)
(-0.000641215 0.00669902 0.00242377)
(-0.000541242 0.0073541 0.00175465)
(-0.00039613 0.00743971 0.00121005)
(-0.000165511 0.0074678 0.000971677)
(-5.35797e-06 0.00745139 0.000881335)
(0.000174919 0.00751045 0.000799866)
(0.000338585 0.00764524 0.000923881)
(0.000601139 0.00762216 0.00119651)
(0.000760831 0.00738367 0.00176464)
(0.000844287 0.00653684 0.0024833)
(0.000922199 0.00401161 0.00293087)
(0.000258412 -0.00142395 0.00231221)
(0.000156591 -0.00943822 0.000253071)
(-0.00298857 -0.0174895 -0.00410342)
(0.00258506 -0.0281471 -0.0107763)
(-0.00606755 -0.0219091 -0.0146694)
(-0.00401381 -0.0140106 -0.0100096)
(-0.00725071 -0.00821745 -0.00725071)
(-0.00684065 -0.00474577 -0.00619603)
(-0.00570793 -0.00247053 -0.00560052)
(-0.00369923 -0.0016429 -0.00497066)
(-0.00218126 -0.00203028 -0.00531072)
(-0.00097022 -0.00269911 -0.0055791)
(-9.45044e-05 -0.00286891 -0.00541286)
(0.000226649 -0.00163187 -0.00482226)
(0.000595607 -0.00170063 -0.00496619)
(0.000916028 -0.00288013 -0.00556137)
(0.0018218 -0.00269221 -0.00569241)
(0.00302211 -0.00217025 -0.00541063)
(0.0045095 -0.00197756 -0.00515558)
(0.00644206 -0.00291242 -0.0057545)
(0.00732425 -0.00522196 -0.00612094)
(0.00755475 -0.00867 -0.00717096)
(0.00417294 -0.0143715 -0.00994293)
(0.00614577 -0.0222224 -0.0145957)
(-0.0129342 -0.0118928 -0.0210293)
(-0.018451 -0.00539358 -0.0217649)
(-0.0242056 -0.00201661 -0.0242056)
(-0.0254159 -0.000177602 -0.0270414)
(-0.0247888 0.00105937 -0.0299616)
(-0.0227305 0.00209216 -0.0329076)
(-0.0195981 0.00326933 -0.0355924)
(-0.0154421 0.004677 -0.0377067)
(-0.0099967 0.00631225 -0.0386684)
(-0.00454462 0.00812639 -0.0373399)
(0.00548182 0.00810213 -0.0376148)
(0.0108963 0.00635341 -0.0388323)
(0.0163618 0.00476434 -0.0378199)
(0.0205613 0.00339337 -0.0357076)
(0.0236735 0.00220107 -0.0330162)
(0.0256383 0.00112396 -0.0300732)
(0.0261482 -0.000180199 -0.0271698)
(0.0247353 -0.00208126 -0.0242932)
(0.0187755 -0.00550504 -0.021817)
(0.0130978 -0.0120575 -0.0210348)
(0.00101783 0.00611673 0.00247261)
(0.00219909 0.00383644 0.00326863)
(0.00226145 0.00120604 0.00238625)
(0.00148356 -0.00158586 0.00148356)
(0.000758345 -0.00322611 0.00128926)
(0.000923112 -0.00273773 0.00200645)
(0.00148539 -0.00167749 0.00263376)
(0.00193423 -0.000765372 0.00284373)
(0.00161854 -0.000599333 0.00281171)
(0.000959261 -0.000731341 0.0026105)
(-2.24786e-05 -0.000629403 0.00284038)
(-0.000973114 -0.000406681 0.00314079)
(-0.00165456 -0.000655606 0.00306711)
(-0.00157831 -0.0017697 0.00284512)
(-0.0014296 -0.00269912 0.00242597)
(-0.00142639 -0.00299181 0.00211454)
(-0.00190059 -0.000986469 0.00229765)
(-0.00242944 0.00214942 0.00297568)
(-0.00239766 0.00495939 0.00390586)
(-0.00157841 0.00687262 0.00357174)
(0.0045211 0.00047723 0.0166211)
(0.00825619 0.00212571 0.0164964)
(0.010883 0.00378213 0.0141574)
(0.0106859 0.00466695 0.0106859)
(0.00821446 0.00390086 0.00739787)
(0.00491592 0.000912274 0.00512312)
(0.00285436 -0.00191355 0.00345448)
(0.00224195 -0.00227402 0.00229386)
(0.00168826 -0.00173649 0.00140791)
(0.000652713 -0.00129768 0.000501644)
(-0.00103334 -0.00115021 0.000450009)
(-0.00191555 -0.00129122 0.00109833)
(-0.0023451 -0.00158629 0.00184806)
(-0.00281846 -0.00111789 0.00305665)
(-0.00525725 0.00157725 0.00481391)
(-0.0090117 0.00313444 0.00738689)
(-0.011669 0.00284359 0.0110037)
(-0.0115503 0.00198631 0.0143738)
(-0.00849712 0.00113228 0.0163022)
(-0.00439086 0.000205743 0.0160454)
(0.00367678 -0.00411818 0.0108716)
(0.00755268 -0.00127197 0.0139478)
(0.0109202 0.00195973 0.0143682)
(0.0126727 0.00445775 0.0126727)
(0.0121552 0.00495939 0.0104001)
(0.0101315 0.00336214 0.00839718)
(0.0072561 0.00102451 0.00645489)
(0.00410947 -0.00100303 0.0043917)
(0.00222227 -0.00164439 0.00212962)
(0.000636431 -0.00124266 -0.00019364)
(-0.00158624 -0.00116524 -0.000437191)
(-0.0029424 -0.00146461 0.00132243)
(-0.00481615 -0.000681744 0.00337305)
(-0.0076263 0.00178318 0.0055132)
(-0.00995295 0.00438514 0.00747019)
(-0.0119351 0.00562106 0.00951541)
(-0.012591 0.00440736 0.011987)
(-0.0109766 0.00140708 0.0138585)
(-0.00771719 -0.00179402 0.0134102)
(-0.00376359 -0.00438209 0.0104006)
(0.00366752 -0.0104177 0.00203752)
(0.00789061 -0.00599543 0.00781787)
(0.0101828 -0.00220688 0.0111039)
(0.0119352 0.00223661 0.0119352)
(0.0122322 0.004958 0.0110391)
(0.0107274 0.00507395 0.00952338)
(0.00807394 0.00350007 0.00777933)
(0.00516432 0.00141817 0.0057535)
(0.0025486 -9.57331e-05 0.00292052)
(0.000255357 -0.000237671 -0.000435745)
(-0.00204284 -0.000161799 -0.00037503)
(-0.00407476 0.000258622 0.00257663)
(-0.00662734 0.0018844 0.00530643)
(-0.00913258 0.00391648 0.00731779)
(-0.011199 0.00552782 0.00899961)
(-0.0123164 0.00528641 0.0104574)
(-0.0118811 0.00215305 0.0114232)
(-0.0101434 -0.00257074 0.01073)
(-0.00790546 -0.00636431 0.00756321)
(-0.00363647 -0.0107823 0.00191763)
(0.00284957 -0.0161447 -0.0039869)
(0.00827569 -0.00831503 0.00308847)
(0.00939644 -0.00401658 0.00784349)
(0.0101445 0.000756232 0.0101445)
(0.0101229 0.0048179 0.0105947)
(0.00902459 0.00630489 0.00976509)
(0.00688339 0.00535332 0.00829296)
(0.00435862 0.00331019 0.00631529)
(0.00185751 0.00156052 0.0035183)
(-0.000101808 0.000885944 -1.68409e-05)
(-0.00167344 0.00111685 0.000312361)
(-0.0034106 0.00205894 0.00366156)
(-0.00576336 0.00371491 0.00631595)
(-0.00801049 0.00549303 0.00823599)
(-0.00975229 0.00632855 0.00964429)
(-0.0105012 0.00483316 0.0104491)
(-0.0103099 0.000650663 0.0100753)
(-0.00946002 -0.00430605 0.00788345)
(-0.00829442 -0.00872604 0.00322974)
(-0.00279394 -0.0166105 -0.0037798)
(0.00114166 -0.0211299 -0.00737979)
(0.00800998 -0.00940434 0.000178641)
(0.00817913 -0.0040689 0.00540441)
(0.00818939 0.00101136 0.00818939)
(0.00768833 0.00546335 0.00939773)
(0.00683616 0.00751866 0.00917852)
(0.00530831 0.00697326 0.00806522)
(0.0033915 0.00524593 0.00641739)
(0.00136023 0.00372224 0.0041506)
(-0.000170294 0.00296727 0.00129784)
(-0.00117396 0.00318196 0.00156402)
(-0.00250055 0.00420274 0.00433123)
(-0.00437184 0.00562651 0.00651451)
(-0.00611299 0.00700206 0.00813358)
(-0.00742231 0.00730154 0.00921919)
(-0.00806614 0.00521162 0.0094717)
(-0.00838676 0.000702648 0.00835958)
(-0.0082428 -0.00452353 0.00564014)
(-0.00802487 -0.00998609 0.000432369)
(-0.00112207 -0.0215977 -0.00717941)
(-0.000957299 -0.0245881 -0.0100551)
(0.00677151 -0.0103341 -0.00219299)
(0.00624801 -0.00352477 0.00327211)
(0.00600572 0.00155303 0.00600572)
(0.00529455 0.00559001 0.00736984)
(0.00479155 0.00754199 0.00752661)
(0.00404659 0.00702587 0.00691026)
(0.0029521 0.00535054 0.00590939)
(0.00153738 0.0038125 0.00456908)
(0.00019485 0.00301169 0.00279531)
(-0.000929663 0.00316504 0.00288979)
(-0.00208134 0.00418105 0.00464822)
(-0.00337622 0.00562176 0.0059732)
(-0.00440144 0.00694408 0.00698114)
(-0.00508446 0.00717262 0.00762447)
(-0.00552408 0.00515486 0.00756361)
(-0.00617305 0.0010772 0.00631759)
(-0.00628475 -0.00404384 0.00356232)
(-0.0067765 -0.0108997 -0.00199832)
(0.000969128 -0.0250665 -0.00989696)
(-0.00350339 -0.0252729 -0.0129827)
(0.00340591 -0.0110568 -0.00543036)
(0.00209448 -0.0009271 -2.03342e-05)
(0.00274842 0.00474483 0.00274841)
(0.00248081 0.00754648 0.00408171)
(0.00274596 0.00879862 0.00436283)
(0.00287882 0.00863796 0.00407793)
(0.00266432 0.0080587 0.00361979)
(0.00205455 0.00767881 0.0031708)
(0.000905003 0.00750326 0.00259051)
(-0.000898749 0.00754036 0.00257714)
(-0.00197826 0.00783556 0.00318103)
(-0.00254963 0.00819944 0.00366428)
(-0.00279176 0.00858131 0.00413278)
(-0.00271629 0.00856786 0.00445391)
(-0.002494 0.00727766 0.00428696)
(-0.00277275 0.00440232 0.00303197)
(-0.00197895 -0.00162362 0.000102616)
(-0.00335043 -0.0116283 -0.00533496)
(0.00353783 -0.0257174 -0.01287)
(-0.00731537 -0.02106 -0.0167641)
(-0.00442486 -0.0116496 -0.0112895)
(-0.00619603 -0.00474576 -0.00684065)
(-0.00397666 -0.000385777 -0.00397667)
(-0.00315113 0.00167974 -0.00342002)
(-0.00129109 0.00176051 -0.00325899)
(0.000297142 0.00063876 -0.00359819)
(0.00114547 -0.000533113 -0.00404719)
(0.00137924 -0.00102648 -0.00411276)
(0.000845927 0.000194374 -0.0036932)
(-2.64396e-05 0.00021019 -0.00379239)
(-0.000541822 -0.000981846 -0.0042224)
(-0.000274521 -0.000468416 -0.00412886)
(0.000561151 0.000555023 -0.00369238)
(0.00197251 0.00143386 -0.00336206)
(0.00361897 0.00125063 -0.0033764)
(0.00422415 -0.000990425 -0.0037739)
(0.00651859 -0.00529909 -0.00687415)
(0.00456855 -0.0120491 -0.0113059)
(0.00740087 -0.0214053 -0.0167154)
(-0.015021 -0.0111962 -0.0229064)
(-0.0211742 -0.00384981 -0.0234214)
(-0.0270414 -0.000177602 -0.0254159)
(-0.0276866 0.00179675 -0.0276866)
(-0.0265662 0.00314021 -0.0302781)
(-0.024497 0.00432649 -0.0334815)
(-0.0216205 0.00576631 -0.0369721)
(-0.017615 0.0075568 -0.0401001)
(-0.0119449 0.00965169 -0.0420162)
(-0.00574756 0.0120256 -0.0413916)
(0.00653925 0.0120369 -0.0416232)
(0.0127486 0.00972139 -0.0421668)
(0.0184797 0.00766184 -0.0402008)
(0.0225581 0.0059131 -0.037087)
(0.0254622 0.00447847 -0.0336637)
(0.0274764 0.00325786 -0.0305114)
(0.0285365 0.00184942 -0.0279781)
(0.0276154 -0.000192066 -0.0255982)
(0.0215074 -0.00391869 -0.0235406)
(0.015197 -0.0113481 -0.0229458)
(0.000324061 -0.000224025 -0.00241674)
(0.000935655 -0.00095072 -0.000114921)
(0.00129777 -0.00228496 0.000459351)
(0.00128926 -0.00322611 0.000758344)
(0.00156574 -0.00297248 0.00156574)
(0.00207758 -0.00231362 0.00265957)
(0.0027651 -0.00124468 0.00364603)
(0.00298575 -0.000586263 0.00428273)
(0.00245568 -0.000581275 0.00462257)
(0.00142842 -0.00080249 0.00468215)
(-0.00016753 -0.000662758 0.00488917)
(-0.0015568 -0.000340116 0.00488367)
(-0.00251949 -0.000408863 0.00447281)
(-0.00264309 -0.00124049 0.00386659)
(-0.00232285 -0.00228536 0.00306199)
(-0.00202619 -0.00288331 0.00240667)
(-0.00173166 -0.00297449 0.00196436)
(-0.00163049 -0.00163152 0.00170652)