/*--------------------------------*- C++ -*----------------------------------*\
  =========                 |
  \\      /  F ield         | OpenFOAM: The Open Source CFD Toolbox
   \\    /   O peration     | Website:  https://openfoam.org
    \\  /    A nd           | Version:  9
     \\/     M anipulation  |
\*---------------------------------------------------------------------------*/
FoamFile
{
    format      ascii;
    class       volVectorField;
    location    "0.15";
    object      U;
}
// * * * * * * * * * * * * * * * * * * * * * * * * * * * * * * * * * * * * * //

dimensions      [0 1 -1 0 0 0 0];

internalField   nonuniform List<vector> 
900
(
(0.000361152 -0.000358879 0)
(0.000679119 -0.000168319 0)
(3.43789e-05 0.000250777 0)
(-0.00169532 0.000645735 0)
(-0.00436653 0.000953921 0)
(-0.00774065 0.00116537 0)
(-0.0115677 0.00128651 0)
(-0.0156138 0.00132886 0)
(-0.0196683 0.00130376 0)
(-0.0235456 0.00122091 0)
(-0.0270827 0.0010883 0)
(-0.0301373 0.000912581 0)
(-0.0325871 0.000699871 0)
(-0.0343297 0.000456435 0)
(-0.0352847 0.000189409 0)
(-0.0353974 -9.26594e-05 0)
(-0.0346425 -0.000379458 0)
(-0.0330289 -0.000658795 0)
(-0.0306046 -0.000916784 0)
(-0.0274596 -0.00113831 0)
(-0.0237278 -0.0013078 0)
(-0.0195855 -0.00141017 0)
(-0.0152478 -0.00143189 0)
(-0.0109611 -0.00136213 0)
(-0.00699182 -0.00119392 0)
(-0.00361143 -0.000926125 0)
(-0.00107472 -0.000568029 0)
(0.000417919 -0.000149509 0)
(0.000816721 0.000247301 0)
(0.000375151 0.000371651 0)
(0.000189289 -0.000692211 0)
(-0.000512979 0.000540557 0)
(-0.00350556 0.00250461 0)
(-0.0088262 0.00438887 0)
(-0.0161807 0.00591877 0)
(-0.0251092 0.00700644 0)
(-0.0350785 0.00764404 0)
(-0.0455489 0.0078602 0)
(-0.0560105 0.00769582 0)
(-0.0659965 0.00719358 0)
(-0.0750885 0.00639446 0)
(-0.0829189 0.00533767 0)
(-0.089172 0.00406245 0)
(-0.0935881 0.00261058 0)
(-0.0959685 0.0010289 0)
(-0.0961833 -0.000628545 0)
(-0.0941815 -0.00229935 0)
(-0.0899999 -0.00391265 0)
(-0.0837721 -0.00539052 0)
(-0.0757342 -0.00665076 0)
(-0.0662261 -0.00761118 0)
(-0.0556862 -0.00819502 0)
(-0.044639 -0.00833725 0)
(-0.0336735 -0.00799153 0)
(-0.0234124 -0.00713828 0)
(-0.0144688 -0.00579607 0)
(-0.0073866 -0.0040413 0)
(-0.00255475 -0.00204306 0)
(-9.72839e-05 -0.000149279 0)
(0.00027133 0.000824525 0)
(-0.000218039 -9.01344e-05 0)
(-0.00249185 0.0035229 0)
(-0.00832677 0.00824343 0)
(-0.0173792 0.0127318 0)
(-0.0291467 0.0164205 0)
(-0.0430142 0.0190731 0)
(-0.0582594 0.0206295 0)
(-0.0741331 0.0211232 0)
(-0.0899115 0.0206318 0)
(-0.104921 0.0192499 0)
(-0.11855 0.0170778 0)
(-0.130259 0.0142186 0)
(-0.139585 0.0107799 0)
(-0.146147 0.00687813 0)
(-0.149658 0.00264329 0)
(-0.149936 -0.00177692 0)
(-0.146914 -0.00621513 0)
(-0.140654 -0.0104849 0)
(-0.131358 -0.0143848 0)
(-0.119374 -0.0177057 0)
(-0.105195 -0.0202417 0)
(-0.0894513 -0.0218042 0)
(-0.0728912 -0.0222387 0)
(-0.0563473 -0.0214427 0)
(-0.0406923 -0.0193879 0)
(-0.0267772 -0.016147 0)
(-0.015348 -0.0119336 0)
(-0.00694266 -0.00716018 0)
(-0.00185161 -0.00255186 0)
(-7.81957e-05 0.000504223 0)
(-0.000632099 0.00162959 0)
(-0.00456844 0.00898497 0)
(-0.0133924 0.0174014 0)
(-0.0262159 0.0251992 0)
(-0.0422502 0.0315683 0)
(-0.060716 0.0361308 0)
(-0.0807309 0.0387676 0)
(-0.101383 0.0395127 0)
(-0.121789 0.0384815 0)
(-0.141122 0.0358292 0)
(-0.158626 0.0317302 0)
(-0.173633 0.0263708 0)
(-0.185566 0.0199504 0)
(-0.193956 0.0126869 0)
(-0.198447 0.0048234 0)
(-0.198814 -0.00336592 0)
(-0.194978 -0.0115736 0)
(-0.187017 -0.0194606 0)
(-0.175179 -0.0266636 0)
(-0.159892 -0.0328089 0)
(-0.141759 -0.0375313 0)
(-0.121553 -0.0404996 0)
(-0.100185 -0.0414457 0)
(-0.0786736 -0.0401986 0)
(-0.0580867 -0.0367207 0)
(-0.0394724 -0.0311522 0)
(-0.0237633 -0.0238661 0)
(-0.0116707 -0.0155352 0)
(-0.00374368 -0.00724339 0)
(-0.000443383 -0.000814222 0)
(-0.00100595 0.00444091 0)
(-0.00654871 0.0169241 0)
(-0.0183326 0.0299211 0)
(-0.0348738 0.0415967 0)
(-0.055047 0.0509955 0)
(-0.0778857 0.0576462 0)
(-0.102349 0.0613924 0)
(-0.127384 0.0622786 0)
(-0.151978 0.0604652 0)
(-0.175187 0.0561756 0)
(-0.196146 0.0496685 0)
(-0.21409 0.0412264 0)
(-0.228358 0.0311562 0)
(-0.238409 0.0197954 0)
(-0.243835 0.00752036 0)
(-0.244374 -0.0052468 0)
(-0.239926 -0.0180349 0)
(-0.230573 -0.0303272 0)
(-0.216591 -0.0415726 0)
(-0.198454 -0.0512057 0)
(-0.176844 -0.0586756 0)
(-0.152634 -0.0634832 0)
(-0.126866 -0.0652257 0)
(-0.100709 -0.0636456 0)
(-0.075406 -0.058685 0)
(-0.0521957 -0.0505436 0)
(-0.0322127 -0.0397432 0)
(-0.0163825 -0.0271929 0)
(-0.00557571 -0.0142777 0)
(-0.000773 -0.00312847 0)
(-0.00133751 0.00825591 0)
(-0.00839036 0.0272515 0)
(-0.0230291 0.0457349 0)
(-0.0431811 0.0618492 0)
(-0.0673646 0.074588 0)
(-0.0944061 0.0834492 0)
(-0.123101 0.0882781 0)
(-0.152262 0.0891536 0)
(-0.180766 0.086296 0)
(-0.207572 0.0800087 0)
(-0.231734 0.070645 0)
(-0.252412 0.058594 0)
(-0.26888 0.0442809 0)
(-0.280543 0.0281744 0)
(-0.286944 0.0107964 0)
(-0.287784 -0.00726856 0)
(-0.282937 -0.02537 0)
(-0.272473 -0.042796 0)
(-0.256668 -0.0587872 0)
(-0.236021 -0.072564 0)
(-0.211259 -0.0833645 0)
(-0.18333 -0.0904948 0)
(-0.15338 -0.0933893 0)
(-0.122717 -0.0916775 0)
(-0.0927539 -0.085255 0)
(-0.0649358 -0.0743561 0)
(-0.0406284 -0.0596241 0)
(-0.0210127 -0.0421694 0)
(-0.00732173 -0.0236283 0)
(-0.00106607 -0.00636879 0)
(-0.00163572 0.0129908 0)
(-0.0101041 0.0398442 0)
(-0.0274724 0.0647245 0)
(-0.0511085 0.0858408 0)
(-0.0791727 0.102219 0)
(-0.110274 0.11339 0)
(-0.143039 0.11925 0)
(-0.176149 0.119944 0)
(-0.208379 0.115777 0)
(-0.238609 0.107146 0)
(-0.265829 0.0945121 0)
(-0.289141 0.0783781 0)
(-0.307772 0.0592946 0)
(-0.321078 0.0378671 0)
(-0.328559 0.0147695 0)
(-0.329875 -0.00924502 0)
(-0.324865 -0.0333383 0)
(-0.313564 -0.0565913 0)
(-0.29623 -0.0780215 0)
(-0.273358 -0.0966142 0)
(-0.245694 -0.11137 0)
(-0.214234 -0.121369 0)
(-0.180214 -0.125847 0)
(-0.145073 -0.124281 0)
(-0.110404 -0.11648 0)
(-0.0778785 -0.102674 0)
(-0.0491299 -0.0835894 0)
(-0.0256361 -0.0605036 0)
(-0.00902456 -0.035272 0)
(-0.00133696 -0.0104827 0)
(-0.00191092 0.0185801 0)
(-0.0117172 0.0545854 0)
(-0.0316969 0.0867609 0)
(-0.0586901 0.113441 0)
(-0.0905065 0.133753 0)
(-0.125534 0.147325 0)
(-0.16223 0.154156 0)
(-0.199145 0.154496 0)
(-0.234963 0.148762 0)
(-0.268498 0.137465 0)
(-0.298687 0.121185 0)
(-0.324593 0.100546 0)
(-0.345402 0.0762267 0)
(-0.360434 0.0489713 0)
(-0.369147 0.0196041 0)
(-0.371155 -0.0109534 0)
(-0.366246 -0.0416736 0)
(-0.354406 -0.0714253 0)
(-0.335848 -0.0989913 0)
(-0.311034 -0.123103 0)
(-0.2807 -0.142496 0)
(-0.245869 -0.155986 0)
(-0.207847 -0.162564 0)
(-0.168201 -0.161502 0)
(-0.128715 -0.15247 0)
(-0.0913121 -0.13564 0)
(-0.0579324 -0.111777 0)
(-0.0303936 -0.08229 0)
(-0.0107545 -0.0492402 0)
(-0.00160408 -0.0154566 0)
(-0.00217143 0.0249773 0)
(-0.0132566 0.0713784 0)
(-0.0357459 0.111726 0)
(-0.0659764 0.144524 0)
(-0.101417 0.16906 0)
(-0.140235 0.185121 0)
(-0.180719 0.19286 0)
(-0.221297 0.192678 0)
(-0.26057 0.185133 0)
(-0.297298 0.170875 0)
(-0.330381 0.150613 0)
(-0.358854 0.125101 0)
(-0.381879 0.0951456 0)
(-0.398744 0.0616227 0)
(-0.408867 0.0255013 0)
(-0.411813 -0.0121359 0)
(-0.407306 -0.0500778 0)
(-0.395264 -0.0869821 0)
(-0.375827 -0.12139 0)
(-0.349394 -0.151763 0)
(-0.31666 -0.17654 0)
(-0.278642 -0.194232 0)
(-0.236698 -0.203528 0)
(-0.192512 -0.20343 0)
(-0.148066 -0.193394 0)
(-0.105563 -0.173469 0)
(-0.0672889 -0.144404 0)
(-0.0354505 -0.107707 0)
(-0.0125892 -0.0656411 0)
(-0.00188563 -0.02132 0)
(-0.00242315 0.0321499 0)
(-0.0147438 0.0901462 0)
(-0.0396573 0.139516 0)
(-0.0730128 0.178968 0)
(-0.111944 0.208006 0)
(-0.154402 0.226635 0)
(-0.19851 0.235215 0)
(-0.242581 0.234346 0)
(-0.285145 0.224762 0)
(-0.324923 0.207278 0)
(-0.360795 0.182745 0)
(-0.391786 0.15205 0)
(-0.417046 0.116125 0)
(-0.435842 0.0759697 0)
(-0.44756 0.0326842 0)
(-0.451708 -0.0125033 0)
(-0.44794 -0.0582114 0)
(-0.436083 -0.102895 0)
(-0.416178 -0.144855 0)
(-0.388526 -0.182268 0)
(-0.353742 -0.21325 0)
(-0.3128 -0.235955 0)
(-0.267076 -0.248706 0)
(-0.218353 -0.250152 0)
(-0.168811 -0.239449 0)
(-0.120954 -0.216434 0)
(-0.0774575 -0.181771 0)
(-0.0409764 -0.137027 0)
(-0.0146062 -0.0846658 0)
(-0.00219864 -0.0281453 0)
(-0.00267003 0.0400762 0)
(-0.016195 0.110828 0)
(-0.043461 0.170037 0)
(-0.079833 0.21665 0)
(-0.12211 0.250441 0)
(-0.168028 0.271693 0)
(-0.215551 0.281034 0)
(-0.26289 0.279309 0)
(-0.308517 0.267472 0)
(-0.351133 0.246524 0)
(-0.38962 0.217478 0)
(-0.423014 0.181356 0)
(-0.450472 0.139208 0)
(-0.471258 0.0921454 0)
(-0.48473 0.0413773 0)
(-0.490346 -0.0117442 0)
(-0.487681 -0.0656907 0)
(-0.476453 -0.118733 0)
(-0.456575 -0.168939 0)
(-0.428212 -0.214195 0)
(-0.391851 -0.252268 0)
(-0.348374 -0.280906 0)
(-0.299128 -0.297988 0)
(-0.245961 -0.301714 0)
(-0.191236 -0.290828 0)
(-0.137774 -0.264845 0)
(-0.0886832 -0.224249 0)
(-0.0471361 -0.170609 0)
(-0.0168805 -0.106588 0)
(-0.00255929 -0.036046 0)
(-0.00291504 0.0487418 0)
(-0.0176233 0.133376 0)
(-0.0471819 0.203202 0)
(-0.0864618 0.257441 0)
(-0.13192 0.296192 0)
(-0.181076 0.320081 0)
(-0.231741 0.330069 0)
(-0.282035 0.327303 0)
(-0.330396 0.312999 0)
(-0.37553 0.288377 0)
(-0.416347 0.254624 0)
(-0.451921 0.212903 0)
(-0.481443 0.164372 0)
(-0.504194 0.110233 0)
(-0.519523 0.051781 0)
(-0.526848 -0.00954211 0)
(-0.525659 -0.0720933 0)
(-0.515555 -0.133989 0)
(-0.496294 -0.193086 0)
(-0.46786 -0.246986 0)
(-0.430558 -0.293088 0)
(-0.385115 -0.328685 0)
(-0.332781 -0.351133 0)
(-0.275415 -0.358066 0)
(-0.215528 -0.347678 0)
(-0.156257 -0.319017 0)
(-0.101185 -0.27226 0)
(-0.0540859 -0.208895 0)
(-0.0194858 -0.131759 0)
(-0.00298367 -0.0451753 0)
(-0.00316124 0.0581389 0)
(-0.0190432 0.157755 0)
(-0.0508475 0.238929 0)
(-0.0929258 0.301197 0)
(-0.141373 0.345044 0)
(-0.193486 0.371517 0)
(-0.246929 0.381981 0)
(-0.299749 0.377951 0)
(-0.350378 0.360956 0)
(-0.397555 0.332466 0)
(-0.440258 0.293863 0)
(-0.477633 0.246448 0)
(-0.508939 0.191481 0)
(-0.533506 0.130229 0)
(-0.550699 0.0640369 0)
(-0.55991 -0.00560096 0)
(-0.560556 -0.0769732 0)
(-0.552109 -0.148087 0)
(-0.534146 -0.216624 0)
(-0.506431 -0.279923 0)
(-0.469024 -0.335011 0)
(-0.422415 -0.378689 0)
(-0.367672 -0.407702 0)
(-0.306577 -0.418994 0)
(-0.241727 -0.410038 0)
(-0.176554 -0.379226 0)
(-0.115147 -0.326253 0)
(-0.0619717 -0.252392 0)
(-0.0224951 -0.160607 0)
(-0.00348855 -0.055725 0)
(-0.00341316 0.0682681 0)
(-0.0204763 0.183944 0)
(-0.0545002 0.277146 0)
(-0.0992681 0.347759 0)
(-0.150479 0.396738 0)
(-0.20519 0.425636 0)
(-0.26093 0.436316 0)
(-0.315694 0.430734 0)
(-0.367942 0.410789 0)
(-0.416492 0.378243 0)
(-0.460429 0.33469 0)
(-0.499019 0.281574 0)
(-0.531632 0.220238 0)
(-0.557687 0.15199 0)
(-0.576603 0.0781856 0)
(-0.587773 0.000318796 0)
(-0.59056 -0.079887 0)
(-0.584312 -0.16039 0)
(-0.568411 -0.238754 0)
(-0.542362 -0.3121 0)
(-0.505911 -0.377101 0)
(-0.459223 -0.430042 0)
(-0.403066 -0.466986 0)
(-0.339026 -0.484042 0)
(-0.269685 -0.477763 0)
(-0.198707 -0.445646 0)
(-0.130704 -0.386655 0)
(-0.070928 -0.301653 0)
(-0.0259832 -0.193624 0)
(-0.00409241 -0.0679267 0)
(-0.00367865 0.079144 0)
(-0.0219593 0.21195 0)
(-0.0582121 0.317793 0)
(-0.105569 0.396953 0)
(-0.159276 0.450951 0)
(-0.216133 0.481965 0)
(-0.273536 0.492464 0)
(-0.329468 0.484939 0)
(-0.382458 0.461731 0)
(-0.431457 0.424931 0)
(-0.475717 0.37637 0)
(-0.514675 0.317634 0)
(-0.547868 0.250135 0)
(-0.574854 0.175189 0)
(-0.59515 0.0941165 0)
(-0.608195 0.00835448 0)
(-0.613327 -0.0804319 0)
(-0.609789 -0.17023 0)
(-0.596769 -0.258566 0)
(-0.573478 -0.342415 0)
(-0.539292 -0.418146 0)
(-0.493939 -0.481539 0)
(-0.437757 -0.527914 0)
(-0.371974 -0.55241 0)
(-0.298996 -0.550429 0)
(-0.222614 -0.518267 0)
(-0.14793 -0.453824 0)
(-0.0810764 -0.357251 0)
(-0.0300292 -0.231368 0)
(-0.00481676 -0.0820535 0)
(-0.00397164 0.0908055 0)
(-0.0235548 0.241826 0)
(-0.0621066 0.360841 0)
(-0.111973 0.448587 0)
(-0.16786 0.507284 0)
(-0.226283 0.539891 0)
(-0.284528 0.549623 0)
(-0.340603 0.539623 0)
(-0.393175 0.512747 0)
(-0.441397 0.471472 0)
(-0.484751 0.417879 0)
(-0.522918 0.3537 0)
(-0.55566 0.280394 0)
(-0.582735 0.199253 0)
(-0.603814 0.111512 0)
(-0.618435 0.0184869 0)
(-0.625958 -0.0782962 0)
(-0.625558 -0.176947 0)
(-0.616243 -0.27506 0)
(-0.596924 -0.36957 0)
(-0.566549 -0.456634 0)
(-0.524314 -0.531579 0)
(-0.469961 -0.588967 0)
(-0.404159 -0.622841 0)
(-0.328921 -0.627208 0)
(-0.247971 -0.596787 0)
(-0.166815 -0.527961 0)
(-0.0925245 -0.419733 0)
(-0.034721 -0.27445 0)
(-0.00568813 -0.0984244 0)
(-0.00431629 0.103334 0)
(-0.0253674 0.273701 0)
(-0.066385 0.406315 0)
(-0.118716 0.502456 0)
(-0.176404 0.565241 0)
(-0.235652 0.598622 0)
(-0.293664 0.606747 0)
(-0.348551 0.593545 0)
(-0.399199 0.562482 0)
(-0.44505 0.516467 0)
(-0.485905 0.457852 0)
(-0.521759 0.388508 0)
(-0.552673 0.30992 0)
(-0.578666 0.223315 0)
(-0.599629 0.129794 0)
(-0.615259 0.0304815 0)
(-0.625 -0.0733196 0)
(-0.628014 -0.179949 0)
(-0.623172 -0.287198 0)
(-0.609101 -0.392102 0)
(-0.584296 -0.490749 0)
(-0.547329 -0.578125 0)
(-0.497185 -0.648081 0)
(-0.433728 -0.693489 0)
(-0.358281 -0.706714 0)
(-0.274214 -0.680465 0)
(-0.187237 -0.609014 0)
(-0.105365 -0.489579 0)
(-0.0401634 -0.323527 0)
(-0.00674151 -0.117412 0)
(-0.00475371 0.11688 0)
(-0.0275663 0.307829 0)
(-0.0713622 0.454322 0)
(-0.12616 0.55834 0)
(-0.185173 0.624195 0)
(-0.244273 0.657132 0)
(-0.300651 0.662474 0)
(-0.352625 0.645103 0)
(-0.399422 0.609193 0)
(-0.440888 0.558126 0)
(-0.477237 0.494539 0)
(-0.508863 0.420422 0)
(-0.536196 0.337259 0)
(-0.559582 0.246172 0)
(-0.579195 0.148075 0)
(-0.594957 0.0438334 0)
(-0.606468 -0.0655583 0)
(-0.612951 -0.178783 0)
(-0.613213 -0.293972 0)
(-0.605649 -0.408438 0)
(-0.588314 -0.518395 0)
(-0.559102 -0.618682 0)
(-0.516093 -0.702572 0)
(-0.458079 -0.761779 0)
(-0.385321 -0.786828 0)
(-0.300413 -0.767938 0)
(-0.208919 -0.696525 0)
(-0.119675 -0.567116 0)
(-0.0464907 -0.379294 0)
(-0.00802648 -0.139458 0)
(-0.00535335 0.13171 0)
(-0.03042 0.344648 0)
(-0.0775113 0.505083 0)
(-0.134819 0.615981 0)
(-0.194513 0.68332 0)
(-0.252151 0.714068 0)
(-0.305043 0.715034 0)
(-0.351879 0.692246 0)
(-0.392396 0.650678 0)
(-0.42698 0.594218 0)
(-0.456374 0.525769 0)
(-0.481453 0.447413 0)
(-0.503081 0.36059 0)
(-0.521988 0.266271 0)
(-0.538684 0.165133 0)
(-0.553379 0.0577265 0)
(-0.565902 -0.0553448 0)
(-0.575626 -0.173214 0)
(-0.581392 -0.294499 0)
(-0.581461 -0.41699 0)
(-0.573519 -0.537276 0)
(-0.554797 -0.650325 0)
(-0.522363 -0.749091 0)
(-0.473686 -0.824281 0)
(-0.407529 -0.864486 0)
(-0.325139 -0.856984 0)
(-0.231358 -0.789431 0)
(-0.135512 -0.652416 0)
(-0.0538911 -0.442473 0)
(-0.00961876 -0.165097 0)
(-0.00623335 0.148275 0)
(-0.0343492 0.384875 0)
(-0.0855168 0.558955 0)
(-0.145366 0.675025 0)
(-0.204782 0.741477 0)
(-0.25912 0.767609 0)
(-0.306043 0.762113 0)
(-0.344876 0.732366 0)
(-0.376083 0.68421 0)
(-0.400769 0.622029 0)
(-0.420315 0.548946 0)
(-0.436159 0.467072 0)
(-0.449641 0.377744 0)
(-0.461909 0.281733 0)
(-0.473841 0.179431 0)
(-0.485979 0.071025 0)
(-0.498446 -0.0433277 0)
(-0.510856 -0.163299 0)
(-0.522205 -0.288129 0)
(-0.530764 -0.416288 0)
(-0.533999 -0.545023 0)
(-0.528576 -0.669793 0)
(-0.510555 -0.78364 0)
(-0.475886 -0.876604 0)
(-0.421389 -0.935465 0)
(-0.346245 -0.944221 0)
(-0.253709 -0.885776 0)
(-0.152904 -0.745123 0)
(-0.0626468 -0.513799 0)
(-0.0116423 -0.195007 0)
(-0.00759784 0.167326 0)
(-0.0400107 0.42961 0)
(-0.0963285 0.616416 0)
(-0.158579 0.734874 0)
(-0.216162 0.79699 0)
(-0.264529 0.815242 0)
(-0.302114 0.800667 0)
(-0.329257 0.762169 0)
(-0.347446 0.70647 0)
(-0.358686 0.638365 0)
(-0.365111 0.561089 0)
(-0.368761 0.476682 0)
(-0.371464 0.386295 0)
(-0.37478 0.290437 0)
(-0.379948 0.189179 0)
(-0.38785 0.0823158 0)
(-0.398941 -0.0304727 0)
(-0.413156 -0.149446 0)
(-0.429779 -0.274564 0)
(-0.447274 -0.405151 0)
(-0.463108 -0.539398 0)
(-0.473612 -0.673686 0)
(-0.473988 -0.801689 0)
(-0.458632 -0.91338 0)
(-0.422046 -0.994174 0)
(-0.360536 -1.02474 0)
(-0.274561 -0.982304 0)
(-0.171801 -0.84418 0)
(-0.0731983 -0.593984 0)
(-0.0143107 -0.230101 0)
(-0.00980635 0.190106 0)
(-0.0484236 0.480461 0)
(-0.111184 0.677939 0)
(-0.175139 0.794376 0)
(-0.228219 0.847275 0)
(-0.266633 0.853419 0)
(-0.290278 0.826671 0)
(-0.301042 0.777548 0)
(-0.301779 0.713521 0)
(-0.295578 0.639604 0)
(-0.285382 0.558953 0)
(-0.27382 0.473379 0)
(-0.263156 0.383733 0)
(-0.255289 0.290199 0)
(-0.251759 0.192496 0)
(-0.253744 0.090025 0)
(-0.262028 -0.0180008 0)
(-0.276914 -0.132424 0)
(-0.298089 -0.253955 0)
(-0.324413 -0.382878 0)
(-0.353652 -0.518574 0)
(-0.382164 -0.658771 0)
(-0.40466 -0.798448 0)
(-0.414205 -0.928383 0)
(-0.402841 -1.03351 0)
(-0.363233 -1.09169 0)
(-0.291521 -1.07388 0)
(-0.191928 -0.947364 0)
(-0.0862327 -0.683629 0)
(-0.018004 -0.271687 0)
(-0.0135007 0.218682 0)
(-0.0611468 0.539633 0)
(-0.131497 0.743632 0)
(-0.195078 0.851205 0)
(-0.238971 0.888202 0)
(-0.261442 0.877065 0)
(-0.264909 0.834837 0)
(-0.253482 0.77348 0)
(-0.231714 0.700872 0)
(-0.203876 0.621879 0)
(-0.173672 0.539277 0)
(-0.144197 0.454431 0)
(-0.118001 0.36776 0)
(-0.0971707 0.279053 0)
(-0.0834097 0.187662 0)
(-0.0780895 0.0926276 0)
(-0.082254 -0.00724508 0)
(-0.0965703 -0.113308 0)
(-0.121206 -0.226964 0)
(-0.155608 -0.349454 0)
(-0.198168 -0.481473 0)
(-0.245767 -0.622451 0)
(-0.293233 -0.769361 0)
(-0.332903 -0.914885 0)
(-0.354663 -1.04493 0)
(-0.347107 -1.13584 0)
(-0.300404 -1.15265 0)
(-0.212383 -1.05048 0)
(-0.10276 -0.782973 0)
(-0.0233965 -0.321769 0)
(-0.0198201 0.256489 0)
(-0.080454 0.609805 0)
(-0.158323 0.812332 0)
(-0.216412 0.900693 0)
(-0.242985 0.91311 0)
(-0.240646 0.878965 0)
(-0.215774 0.818372 0)
(-0.17537 0.744112 0)
(-0.125855 0.663767 0)
(-0.0725607 0.581482 0)
(-0.0196995 0.499245 0)
(0.0294547 0.417715 0)
(0.0723498 0.336739 0)
(0.106959 0.255661 0)
(0.131627 0.173485 0)
(0.144965 0.0889561 0)
(0.145794 0.000584721 0)
(0.133158 -0.0933455 0)
(0.1064 -0.194762 0)
(0.065356 -0.305719 0)
(0.0106952 -0.428162 0)
(-0.0555336 -0.563373 0)
(-0.129119 -0.710872 0)
(-0.202727 -0.866417 0)
(-0.265098 -1.0188 0)
(-0.301106 -1.14535 0)
(-0.293705 -1.20702 0)
(-0.23061 -1.14593 0)
(-0.124004 -0.891188 0)
(-0.0316301 -0.383472 0)
(-0.0306606 0.30913 0)
(-0.109172 0.693345 0)
(-0.190589 0.879644 0)
(-0.23197 0.933899 0)
(-0.227661 0.911529 0)
(-0.188078 0.849261 0)
(-0.125054 0.769116 0)
(-0.0487591 0.683291 0)
(0.032841 0.597928 0)
(0.113903 0.515681 0)
(0.190276 0.43728 0)
(0.259017 0.362439 0)
(0.317989 0.29034 0)
(0.365569 0.219879 0)
(0.400421 0.149776 0)
(0.421361 0.0785946 0)
(0.427258 0.0047122 0)
(0.417001 -0.0737419 0)
(0.389521 -0.158958 0)
(0.343914 -0.2535 0)
(0.279709 -0.360265 0)
(0.197384 -0.482212 0)
(0.0992546 -0.621581 0)
(-0.00915829 -0.77813 0)
(-0.117367 -0.945664 0)
(-0.208266 -1.10606 0)
(-0.257771 -1.22057 0)
(-0.23991 -1.22048 0)
(-0.150479 -1.00462 0)
(-0.0443399 -0.461447 0)
(-0.0485006 0.385582 0)
(-0.148763 0.789769 0)
(-0.219829 0.933943 0)
(-0.222349 0.93467 0)
(-0.166416 0.867991 0)
(-0.0741992 0.775689 0)
(0.0365855 0.678643 0)
(0.153533 0.586053 0)
(0.268428 0.501104 0)
(0.376116 0.424137 0)
(0.473469 0.35427 0)
(0.558587 0.290163 0)
(0.630268 0.230358 0)
(0.687662 0.173404 0)
(0.730034 0.117869 0)
(0.756626 0.0622973 0)
(0.766546 0.00512782 0)
(0.758705 -0.0554157 0)
(0.731785 -0.121462 0)
(0.684255 -0.195656 0)
(0.614502 -0.281314 0)
(0.521169 -0.382484 0)
(0.403897 -0.503692 0)
(0.264764 -0.648872 0)
(0.110729 -0.818489 0)
(-0.0427838 -1.00314 0)
(-0.16782 -1.17146 0)
(-0.223772 -1.25193 0)
(-0.178396 -1.11319 0)
(-0.0626584 -0.562375 0)
(-0.0737771 0.500887 0)
(-0.191345 0.888802 0)
(-0.216119 0.947764 0)
(-0.141334 0.874837 0)
(-0.00738785 0.76121 0)
(0.151164 0.645183 0)
(0.313848 0.540838 0)
(0.469325 0.451293 0)
(0.611794 0.375404 0)
(0.738667 0.310795 0)
(0.849046 0.255004 0)
(0.942823 0.205845 0)
(1.02018 0.161469 0)
(1.0813 0.120313 0)
(1.12625 0.0810063 0)
(1.15481 0.0422745 0)
(1.16648 0.00282383 0)
(1.16037 -0.0387834 0)
(1.13511 -0.0842926 0)
(1.08881 -0.135963 0)
(1.01899 -0.196846 0)
(0.922611 -0.271117 0)
(0.796411 -0.364387 0)
(0.637862 -0.483667 0)
(0.447476 -0.636084 0)
(0.233549 -0.824058 0)
(0.0199838 -1.03266 0)
(-0.144584 -1.20419 0)
(-0.189783 -1.1932 0)
(-0.082541 -0.696218 0)
(-0.0911708 0.671519 0)
(-0.19324 0.950107 0)
(-0.0946172 0.864398 0)
(0.110662 0.712117 0)
(0.342 0.568663 0)
(0.565221 0.450542 0)
(0.767427 0.358164 0)
(0.944531 0.286736 0)
(1.09669 0.230909 0)
(1.22574 0.186319 0)
(1.33388 0.149725 0)
(1.42312 0.118764 0)
(1.49505 0.0917053 0)
(1.55087 0.0672452 0)
(1.59133 0.0443457 0)
(1.61675 0.0221128 0)
(1.62702 -0.000310114 0)
(1.62153 -0.0238478 0)
(1.59911 -0.0496266 0)
(1.55788 -0.0791484 0)
(1.49503 -0.11456 0)
(1.40659 -0.159069 0)
(1.28715 -0.217578 0)
(1.12984 -0.297549 0)
(0.927265 -0.409777 0)
(0.675147 -0.567417 0)
(0.380108 -0.778602 0)
(0.0770273 -1.02349 0)
(-0.128799 -1.18745 0)
(-0.0775269 -0.861605 0)
(0.0101994 0.815321 0)
(0.0266378 0.852609 0)
(0.359476 0.615932 0)
(0.722718 0.430593 0)
(1.02419 0.304789 0)
(1.26708 0.219813 0)
(1.46292 0.162409 0)
(1.62068 0.122969 0)
(1.748 0.0949225 0)
(1.85098 0.0741159 0)
(1.93417 0.0579804 0)
(2.00081 0.0449028 0)
(2.05318 0.0338364 0)
(2.09287 0.0240699 0)
(2.12088 0.0150861 0)
(2.13776 0.00647169 0)
(2.14362 -0.00214787 0)
(2.13815 -0.0111668 0)
(2.12056 -0.021061 0)
(2.08939 -0.0324824 0)
(2.04234 -0.0464101 0)
(1.97581 -0.0644224 0)
(1.88425 -0.0892122 0)
(1.75919 -0.125576 0)
(1.58806 -0.182222 0)
(1.35364 -0.274517 0)
(1.03294 -0.426819 0)
(0.607373 -0.667122 0)
(0.174434 -0.967863 0)
(0.0770713 -0.930325 0)
(0.886963 0.431536 0)
(1.15962 0.378519 0)
(1.62532 0.230009 0)
(1.97396 0.136115 0)
(2.18834 0.0829054 0)
(2.32886 0.0522602 0)
(2.42821 0.0343871 0)
(2.50115 0.0237053 0)
(2.55614 0.0170062 0)
(2.59846 0.0125305 0)
(2.63135 0.00933072 0)
(2.65684 0.00688708 0)
(2.67623 0.00490295 0)
(2.69035 0.00319929 0)
(2.69973 0.00165911 0)
(2.70466 0.000196921 0)
(2.70524 -0.00125968 0)
(2.70135 -0.0027857 0)
(2.69269 -0.00447015 0)
(2.67867 -0.00643935 0)
(2.65829 -0.00889364 0)
(2.62991 -0.0121823 0)
(2.5908 -0.0169675 0)
(2.5362 -0.0245965 0)
(2.45757 -0.0379416 0)
(2.33898 -0.0632065 0)
(2.14509 -0.113456 0)
(1.79811 -0.213468 0)
(1.28212 -0.383518 0)
(0.943183 -0.45238 0)
)
;

boundaryField
{
    movingWall
    {
        type            fixedValue;
        value           uniform (3 0 0);
    }
    fixedWalls
    {
        type            noSlip;
    }
    frontAndBack
    {
        type            empty;
    }
}


// ************************************************************************* //
