/*--------------------------------*- C++ -*----------------------------------*\
  =========                 |
  \\      /  F ield         | OpenFOAM: The Open Source CFD Toolbox
   \\    /   O peration     | Website:  https://openfoam.org
    \\  /    A nd           | Version:  9
     \\/     M anipulation  |
\*---------------------------------------------------------------------------*/
FoamFile
{
    format      ascii;
    class       volScalarField;
    location    "300";
    object      p;
}
// * * * * * * * * * * * * * * * * * * * * * * * * * * * * * * * * * * * * * //

dimensions      [0 2 -2 0 0 0 0];

internalField   nonuniform List<scalar> 
10720
(
-145.225
-151.452
-157.688
-159.347
-155.183
-148.431
-137.315
-122.607
-107.412
-94.2521
-85.9041
-83.0362
-82.7693
-82.3647
-81.4758
-80.9359
-80.4731
-80.3776
-80.8974
-82.1735
-84.1911
-86.8447
-89.8881
-93.0836
-96.3422
-99.5616
-102.599
-105.414
-107.982
-110.269
-112.233
-113.695
-114.232
-112.925
-108.475
-98.2188
-78.8171
-49.257
-32.5977
-133.902
-122.969
-104.944
-83.8074
-60.5713
-36.0455
-11.5823
10.5723
28.8826
43.2701
53.8188
61.0469
65.6966
68.358
69.4727
69.6072
69.0107
67.772
66.0901
64.0495
61.6844
59.0086
56.0408
52.8105
49.4641
46.1424
42.8317
39.5443
36.3077
33.145
30.065
27.0539
24.0901
21.1407
18.1347
15.0058
11.5851
7.89567
3.15128
-77.4946
-85.9898
-93.7311
-98.6593
-100.49
-99.8163
-96.7834
-92.3223
-87.8214
-84.2941
-82.6128
-82.4973
-81.823
-80.8807
-80.6143
-80.4105
-80.0085
-79.9074
-80.4286
-81.7189
-83.7596
-86.4268
-89.487
-92.7019
-95.9588
-99.1642
-102.199
-105.017
-107.595
-109.9
-111.89
-113.383
-113.959
-112.697
-108.293
-98.1228
-78.9591
-49.8273
-32.8279
-69.0465
-60.2694
-50.0996
-37.7301
-23.7402
-8.52206
7.1749
22.1527
35.4012
46.4176
54.9865
61.2047
65.402
67.9276
69.1027
69.3022
68.75
67.5933
65.9877
64.0119
61.7046
59.0866
56.1807
53.0213
49.7307
46.4329
43.1325
39.8459
36.6026
33.4265
30.328
27.2956
24.3097
21.339
18.3148
15.1731
11.7486
8.06882
3.31482
-68.7673
-75.9295
-82.0555
-87.1139
-90.3148
-91.6211
-91.1459
-89.0818
-86.0158
-82.8964
-80.7212
-79.8704
-79.2915
-79.3228
-79.8361
-79.7883
-79.5002
-79.3599
-79.8934
-81.2374
-83.3561
-86.0837
-89.1859
-92.4331
-95.6977
-98.8943
-101.927
-104.747
-107.333
-109.653
-111.662
-113.179
-113.789
-112.57
-108.204
-98.0724
-79.074
-50.3888
-33.184
-61.0212
-51.6286
-40.389
-27.7084
-14.1661
-0.0848108
13.8539
26.8198
38.2388
47.7982
55.3621
60.9871
64.8902
67.3185
68.5293
68.8101
68.3534
67.2979
65.7757
63.8675
61.6186
59.0561
56.205
53.1017
49.8504
46.5679
43.2774
39.9966
36.755
33.5764
30.472
27.432
24.4379
21.4591
18.4292
15.286
11.8675
8.19835
3.50093
-45.7301
-52.2805
-58.6339
-64.2808
-68.9425
-72.4734
-74.7211
-75.7294
-75.7491
-75.3012
-74.8803
-74.8542
-75.3228
-76.7198
-78.4878
-79.1695
-78.9261
-78.8197
-79.3848
-80.8046
-83.0244
-85.8242
-88.9667
-92.2348
-95.4976
-98.6797
-101.704
-104.524
-107.116
-109.449
-111.476
-113.014
-113.658
-112.494
-108.184
-98.1026
-79.2559
-50.9303
-33.5146
-39.1559
-31.8823
-23.4089
-13.4799
-2.71535
8.67501
20.1385
30.9456
40.5986
48.83
55.4926
60.5784
64.216
66.5641
67.811
68.1785
67.8282
66.882
65.4575
63.6341
61.4608
58.9688
56.1853
53.1482
49.9495
46.6985
43.4298
40.1629
36.9279
33.7491
30.6395
27.5913
24.5871
21.598
18.5598
15.4128
11.9981
8.34103
3.70296
-36.1911
-42.4881
-48.6826
-54.5373
-59.5099
-63.5243
-66.4502
-68.2767
-69.265
-69.8121
-70.2754
-70.9468
-72.0328
-73.7416
-75.7838
-77.3433
-78.0647
-78.3725
-78.9899
-80.4471
-82.7773
-85.6541
-88.8308
-92.1094
-95.3607
-98.5194
-101.526
-104.338
-106.931
-109.275
-111.32
-112.88
-113.557
-112.452
-108.209
-98.1868
-79.4991
-51.478
-33.7939
-29.7944
-22.7479
-14.6498
-5.49813
4.15779
14.2195
24.2659
33.7047
42.1492
49.4113
55.3716
60.0082
63.4082
65.6788
66.9589
67.4154
67.1781
66.3527
65.0411
63.3184
61.2347
58.8246
56.1177
53.1532
50.0142
46.802
43.5599
40.311
37.0862
33.9107
30.7987
27.7447
24.7329
21.7354
18.6908
15.5417
12.1329
8.49147
3.91581
-26.3868
-32.2051
-38.1296
-43.8068
-48.8871
-53.4143
-57.2166
-60.2241
-62.5435
-64.362
-65.8996
-67.3856
-69.0027
-70.835
-72.791
-74.669
-76.3777
-77.7767
-78.8222
-80.2434
-82.6171
-85.5781
-88.7887
-92.0675
-95.2972
-98.4236
-101.403
-104.196
-106.783
-109.133
-111.193
-112.776
-113.489
-112.449
-108.281
-98.3243
-79.7964
-52.0431
-34.0226
-20.5833
-14.3358
-7.17628
0.958537
9.5032
18.4033
27.2975
35.6565
43.1501
49.6403
55.0277
59.2855
62.4765
64.6736
65.9823
66.5267
66.4058
65.7087
64.5216
62.9129
60.9324
58.6164
55.9964
53.1126
50.0415
46.8771
43.669
40.4445
37.2351
34.067
30.9559
27.8986
24.8808
21.8763
18.8262
15.6759
12.2741
8.64996
4.14014
-19.832
-25.3746
-31.0982
-36.7086
-41.8473
-46.5874
-50.7708
-54.2789
-57.1961
-59.66
-61.835
-63.8852
-65.9292
-68.0043
-70.0878
-72.1592
-74.3207
-76.5816
-78.568
-80.2875
-82.5852
-85.5729
-88.8295
-92.1058
-95.3045
-98.3902
-101.333
-104.099
-106.673
-109.024
-111.099
-112.707
-113.459
-112.489
-108.409
-98.5231
-80.1517
-52.6338
-34.2337
-14.3345
-8.5007
-1.86464
5.59695
13.3546
21.3984
29.4239
36.9536
43.7053
49.5799
54.4973
58.4327
61.437
63.5632
64.8951
65.5222
65.517
64.9519
63.8978
62.4145
60.5495
58.3394
55.8167
53.0221
50.027
46.9195
43.7535
40.5598
37.3712
34.2148
31.1082
28.0504
25.0287
22.0189
18.9647
15.8144
12.4211
8.81583
4.37601
-14.46
-19.6949
-25.1806
-30.6121
-35.6756
-40.4839
-44.8975
-48.797
-52.2155
-55.2244
-57.9307
-60.4546
-62.8883
-65.2806
-67.6445
-69.9813
-72.3717
-74.9698
-77.7364
-80.2905
-82.7792
-85.6588
-88.9305
-92.2181
-95.3821
-98.4186
-101.316
-104.048
-106.6
-108.947
-111.034
-112.67
-113.465
-112.573
-108.593
-98.7899
-80.5683
-53.2464
-34.4293
-9.30346
-3.89147
2.24686
9.1255
16.2325
23.5814
30.9074
37.7702
43.9222
49.2914
53.8154
57.473
60.307
62.3654
63.714
64.4144
64.5203
64.087
63.1706
61.8213
60.0824
57.9892
55.5739
52.8772
49.9668
46.9255
43.8096
40.6538
37.4919
34.3522
31.2541
28.1988
25.1758
22.1626
19.1061
15.9571
12.574
8.98925
4.62244
-10.3276
-15.3093
-20.5836
-25.8581
-30.8295
-35.6432
-40.1582
-44.2629
-47.9683
-51.3115
-54.3725
-57.2438
-59.9937
-62.6764
-65.3259
-67.9461
-70.5639
-73.3159
-76.4279
-79.8001
-82.9942
-85.9322
-89.0887
-92.3825
-95.5249
-98.5076
-101.352
-104.041
-106.566
-108.904
-111.002
-112.669
-113.513
-112.705
-108.843
-99.1332
-81.0541
-53.8904
-34.6378
-5.44018
-0.361581
5.38013
11.7851
18.3617
25.1457
31.9005
38.2185
43.8756
48.8235
53.0139
56.4278
59.1061
61.0982
62.4554
63.2181
63.4269
63.1213
62.3436
61.1339
59.5292
57.5624
55.2641
52.6742
49.857
46.8912
43.834
40.7234
37.5946
34.4771
31.3918
28.3427
25.3212
22.3068
19.2497
16.1036
12.7325
9.16994
4.87951
-7.02044
-11.7683
-16.8361
-21.9381
-26.788
-31.5505
-36.0858
-40.3026
-44.2028
-47.7846
-51.107
-54.2462
-57.2539
-60.1814
-63.0712
-65.9411
-68.8059
-71.7469
-75.0068
-78.7964
-82.8032
-86.2758
-89.3842
-92.5814
-95.7161
-98.6558
-101.442
-104.081
-106.573
-108.896
-111.001
-112.701
-113.6
-112.888
-109.158
-99.5586
-81.61
-54.5629
-34.8476
-2.38035
2.40392
7.80147
13.8029
19.9338
26.244
32.5217
38.3828
43.6243
48.2154
52.1186
55.3146
57.8511
59.7784
61.1344
61.9481
62.2492
62.0642
61.4228
60.3546
58.89
57.057
54.8844
52.4095
49.6941
46.8127
43.8231
40.7654
37.6764
34.5868
31.5192
28.4802
25.4634
22.4505
19.3949
16.2535
12.8965
9.35772
5.14594
-4.38206
-8.92052
-13.7968
-18.7331
-23.4531
-28.1393
-32.6498
-36.907
-40.9128
-44.6416
-48.1376
-51.4685
-54.6745
-57.7989
-60.884
-63.9596
-67.0532
-70.2215
-73.6308
-77.5538
-82.0407
-86.3076
-89.7786
-92.8649
-95.9294
-98.848
-101.582
-104.166
-106.618
-108.924
-111.036
-112.771
-113.732
-113.126
-109.55
-100.074
-82.2452
-55.2775
-35.082
0.0403555
4.57011
9.67046
15.3248
21.0755
26.9826
32.854
38.3263
43.2131
47.4976
51.1487
54.1497
56.5573
58.4198
59.7652
60.6185
61.0002
60.9263
60.4157
59.4882
58.1663
56.473
54.4329
52.0806
49.4749
46.6868
43.7734
40.7767
37.7345
34.679
31.6344
28.6099
25.6013
22.5927
19.5412
16.4064
13.0657
9.55237
5.4218
-2.25906
-6.60509
-11.3014
-16.0762
-20.662
-25.2529
-29.7085
-33.956
-38.0117
-41.8298
-45.4398
-48.904
-52.2565
-55.5354
-58.7791
-62.0226
-65.3057
-68.6853
-72.2704
-76.2616
-80.8831
-85.7615
-89.968
-93.2469
-96.1844
-99.0597
-101.764
-104.298
-106.707
-108.99
-111.107
-112.88
-113.911
-113.422
-110.015
-100.683
-82.9595
-56.0281
-35.3233
1.96761
6.27117
11.1106
16.4611
21.8822
27.4409
32.9604
38.0967
42.6761
46.6934
50.1206
52.9478
55.2371
57.033
58.3613
59.2429
59.6927
59.7189
59.3312
58.5406
57.3616
55.8112
53.909
51.6858
49.1971
46.5106
43.6819
40.7539
37.766
34.751
31.7351
28.7297
25.7333
22.7323
19.6875
16.5617
13.2397
9.75341
5.70573
-0.545991
-4.71728
-9.24493
-13.8652
-18.3172
-22.8036
-27.1862
-31.3918
-35.4533
-39.3158
-42.9933
-46.544
-49.9985
-53.3922
-56.7611
-60.1404
-63.5742
-67.1211
-70.8681
-74.9454
-79.5625
-84.6938
-89.6382
-93.5209
-96.5146
-99.2876
-101.965
-104.467
-106.835
-109.095
-111.216
-113.031
-114.14
-113.778
-110.566
-101.39
-83.7583
-56.8279
-35.5904
3.50155
7.60407
12.2109
17.2929
22.4239
27.6778
32.889
37.7302
42.0408
45.8215
49.0483
51.7195
53.899
55.6283
56.9332
57.8332
58.339
58.4532
58.1788
57.5188
56.4805
55.0739
53.3131
51.2243
48.8591
46.2816
43.5456
40.6944
37.768
34.8004
31.819
28.8379
25.858
22.8683
19.8333
16.7189
13.4182
9.96079
5.99771
0.837379
-3.17319
-7.54242
-12.0148
-16.3349
-20.712
-25.0098
-29.1525
-33.1895
-37.0626
-40.7731
-44.3738
-47.8939
-51.3678
-54.8302
-58.3149
-61.8649
-65.5368
-69.4078
-73.5749
-78.183
-83.3283
-88.7044
-93.3661
-96.7939
-99.563
-102.172
-104.658
-107.001
-109.24
-111.365
-113.224
-114.421
-114.2
-111.195
-102.195
-84.6345
-57.6639
-35.8636
4.72153
8.64195
13.0403
17.8813
22.7549
27.7379
32.6755
37.256
41.3279
44.897
47.9442
50.4749
52.5509
54.214
55.4905
56.3994
56.9495
57.1399
56.9681
56.4309
55.5285
54.2644
52.6467
50.6961
48.4597
45.9979
43.3622
40.5954
37.7378
34.8245
31.8839
28.9325
25.9737
22.9991
19.9773
16.8771
13.6004
10.1737
6.29639
1.95299
-1.90864
-6.12909
-10.4604
-14.6525
-18.9186
-23.1236
-27.1935
-31.1828
-35.0394
-38.7558
-42.3779
-45.9338
-49.4584
-52.9845
-56.5449
-60.1802
-63.9425
-67.9002
-72.1363
-76.7508
-81.8369
-87.3289
-92.5937
-96.7516
-99.822
-102.407
-104.85
-107.19
-109.421
-111.555
-113.463
-114.756
-114.686
-111.912
-103.097
-85.5836
-58.5401
-36.1555
5.68711
9.44154
13.6503
18.2739
22.9161
27.6563
32.3489
36.6957
40.5538
43.9316
46.8176
49.2199
51.1985
52.7965
54.0407
54.9508
55.5345
55.7892
55.7088
55.285
54.512
53.3872
51.9123
50.102
47.9985
45.6582
43.1295
40.4544
37.673
34.8208
31.9275
29.0115
26.0788
23.1236
20.1187
17.0358
13.786
10.3921
6.60169
2.84951
-0.87287
-4.95348
-9.15044
-13.2186
-17.3734
-21.4819
-25.4713
-29.3974
-33.2173
-36.9189
-40.5406
-44.1079
-47.6572
-51.2212
-54.8302
-58.5225
-62.3458
-66.3593
-70.6358
-75.2528
-80.2765
-85.7172
-91.2595
-96.1351
-99.852
-102.647
-105.058
-107.385
-109.631
-111.784
-113.746
-115.146
-115.24
-112.705
-104.093
-86.5935
-59.4271
-36.4426
6.44452
10.047
14.0825
18.5078
22.9404
27.4609
31.9321
36.0676
39.7318
42.9366
45.6768
47.9607
49.8472
51.3811
52.5901
53.4945
54.1026
54.4104
54.4101
54.0895
53.438
52.4473
51.1132
49.4438
47.4759
45.2616
42.846
40.2693
37.5711
34.787
31.9474
29.0727
26.1713
23.2402
20.2561
17.1938
13.974
10.6152
6.91218
3.5656
-0.0269116
-3.97527
-8.04362
-11.9925
-16.0367
-20.0468
-23.951
-27.8029
-31.5713
-35.2414
-38.8449
-42.4044
-45.9569
-49.5358
-53.1695
-56.8936
-60.7517
-64.7953
-69.0863
-73.6891
-78.6515
-83.9905
-89.5653
-94.8945
-99.3835
-102.732
-105.275
-107.586
-109.849
-112.042
-114.071
-115.587
-115.852
-113.575
-105.173
-87.6544
-60.3171
-36.727
7.0309
10.4931
14.369
18.6123
22.8538
27.1735
31.443
35.3863
38.8728
41.9203
44.5272
46.701
48.501
49.9724
51.1439
52.0372
52.6611
53.0119
53.0806
52.8527
52.3138
51.4506
50.2534
48.7239
46.8929
44.808
42.5105
40.0383
37.4298
34.7206
31.9414
29.1141
26.2497
23.3475
20.3885
17.3505
14.1639
10.8427
7.22786
4.13212
0.661674
-3.16074
-7.10677
-10.9398
-14.876
-18.7871
-22.6023
-26.3745
-30.0797
-33.7045
-37.2759
-40.8118
-44.3499
-47.9239
-51.5612
-55.2949
-59.1643
-63.2147
-67.4984
-72.0686
-76.9628
-82.1903
-87.6834
-93.1811
-98.2744
-102.407
-105.395
-107.796
-110.073
-112.314
-114.424
-116.073
-116.521
-114.499
-106.322
-88.7474
-61.1789
-36.975
7.47585
10.8078
14.5356
18.6109
22.6765
26.812
30.896
34.6626
37.9865
40.8898
43.3739
45.4453
47.1636
48.5743
49.7068
50.5844
51.2169
51.6014
51.7284
51.5826
51.1467
50.4033
49.3377
47.9455
46.2514
44.2979
42.1224
39.7601
37.2475
34.6196
31.9073
29.1337
26.3118
23.4437
20.5144
17.5046
14.3547
11.0737
7.54695
4.57431
1.21905
-2.48368
-6.31191
-10.0338
-13.8637
-17.6759
-21.4009
-25.0907
-28.724
-32.2923
-35.8197
-39.3195
-42.828
-46.3801
-50.0025
-53.7259
-57.586
-61.6226
-65.8802
-70.4016
-75.2167
-80.3293
-85.6994
-91.1883
-96.5924
-101.456
-105.189
-107.938
-110.298
-112.59
-114.788
-116.578
-117.217
-115.456
-107.506
-89.8451
-61.9963
-37.1707
7.80377
11.0138
14.6037
18.5227
22.4249
26.3902
30.3029
33.9058
37.0798
39.8506
42.2207
44.1963
45.8373
47.1891
48.282
49.1403
49.7753
50.1852
50.361
50.2869
49.9439
49.3118
48.3714
47.1126
45.5538
43.7325
41.6819
39.4337
37.0225
34.482
31.843
29.1294
26.356
23.5275
20.6327
17.6554
14.5456
11.3079
7.86933
4.91278
1.6668
-1.92182
-5.63713
-9.25113
-12.9773
-16.6917
-20.3252
-23.9313
-27.4863
-30.9891
-34.4631
-37.916
-41.3828
-44.8988
-48.4903
-52.1863
-56.019
-60.0234
-64.2374
-68.6961
-73.422
-78.4152
-83.6463
-89.0422
-94.5229
-99.85
-104.401
-107.819
-110.465
-112.856
-115.146
-117.078
-117.911
-116.391
-108.668
-90.8969
-62.7214
-37.2781
8.03406
11.1298
14.5903
18.3634
22.1134
25.92
29.6732
33.1236
36.1588
38.8075
41.0714
42.9572
44.5247
45.8197
46.8726
47.709
48.3413
48.7692
48.9848
48.9726
48.7127
48.1827
47.3599
46.2293
44.8032
43.1136
41.1893
39.0588
36.7537
34.3064
31.7466
29.0992
26.3803
23.5969
20.7416
17.8012
14.7353
11.5439
8.19318
5.16449
2.02246
-1.45662
-5.06313
-8.57313
-12.1976
-15.8152
-19.3578
-22.8781
-26.3503
-29.7813
-33.1935
-36.5915
-40.0067
-43.4745
-47.0215
-50.675
-54.4642
-58.42
-62.5752
-66.9583
-71.5854
-76.4538
-81.538
-86.8012
-92.2264
-97.7338
-102.905
-107.166
-110.402
-113.048
-115.466
-117.534
-118.54
-117.233
-109.711
-91.8227
-63.3003
-37.2718
8.18339
11.171
14.5097
18.1455
21.7528
25.4114
29.0154
32.3235
35.2294
37.7639
39.9283
41.7301
43.228
44.468
45.4809
46.2931
46.9186
47.3582
47.6057
47.6462
47.4596
47.0224
46.3092
45.3006
44.003
42.4434
40.646
38.6354
36.4404
34.0911
31.6165
29.0412
26.3829
23.6502
20.8398
17.9411
14.9228
11.7813
8.51828
5.34375
2.3012
-1.07292
-4.57442
-7.98337
-11.5087
-15.0308
-18.4822
-21.9155
-25.3031
-28.6569
-32.0006
-35.3362
-38.6917
-42.1017
-45.5924
-49.1906
-52.9225
-56.8155
-60.8981
-65.1934
-69.7126
-74.45
-79.3815
-84.4899
-89.7923
-95.2899
-100.776
-105.776
-109.834
-113.002
-115.668
-117.897
-119.054
-117.89
-110.518
-92.5147
-63.6438
-37.0979
8.26503
11.1503
14.3736
17.8797
21.3529
24.8725
28.3364
31.5108
34.2956
36.7233
38.7944
40.5167
41.9485
43.1354
44.1085
44.8953
45.5104
45.9565
46.2288
46.3135
46.191
45.8372
45.225
44.3313
43.1573
41.7247
40.0534
38.164
36.0821
33.8352
31.451
28.9536
26.3617
23.6857
20.9255
18.0733
15.1065
12.0184
8.84247
5.46268
2.51506
-0.757648
-4.15751
-7.46882
-10.8966
-14.3244
-17.6858
-21.0315
-24.3336
-27.6062
-30.8752
-34.1418
-37.4308
-40.7745
-44.1991
-47.7307
-51.3936
-55.2116
-59.2095
-63.4058
-67.808
-72.4077
-77.1813
-82.121
-87.2628
-92.6449
-98.1933
-103.636
-108.497
-112.433
-115.565
-118.037
-119.347
-118.264
-110.98
-92.8727
-63.6843
-36.7031
8.29035
11.0784
14.192
17.575
20.9217
24.3103
27.6417
30.6904
33.3615
35.6886
37.6715
39.3187
40.6877
41.8237
42.7576
43.5176
44.1197
44.5678
44.8585
44.9797
44.9126
44.6332
44.1132
43.3268
42.2705
40.961
39.4139
37.6459
35.679
33.5381
31.2489
28.8349
26.3152
23.7017
20.9971
18.1966
15.2854
12.2545
9.16568
5.53112
2.67498
-0.500002
-3.8013
-7.01741
-10.3499
-13.685
-16.9563
-20.2145
-23.4315
-26.6197
-29.8093
-33.0014
-36.2175
-39.488
-42.8381
-46.2937
-49.8769
-53.6091
-57.5115
-61.5991
-65.8755
-70.3306
-74.9402
-79.7007
-84.6588
-89.8676
-95.3187
-100.898
-106.293
-111.032
-114.851
-117.728
-119.24
-118.196
-110.937
-92.7795
-63.3688
-36.0474
8.26897
10.9641
13.9731
17.2393
20.466
23.7302
26.936
29.8659
32.4305
34.6622
36.5618
38.1377
39.4468
40.5336
41.4291
42.1618
42.7487
43.1949
43.4988
43.6496
43.6297
43.4159
42.9795
42.2924
41.3472
40.1558
38.7299
37.0825
35.2317
33.1994
31.0093
28.6838
26.2417
23.6962
21.0529
18.3091
15.4577
12.4879
9.48555
5.55753
2.78962
-0.290597
-3.49605
-6.61934
-9.85844
-13.1017
-16.2842
-19.4546
-22.5859
-25.6873
-28.7937
-31.907
-35.0458
-38.2372
-41.506
-44.8773
-48.372
-52.009
-55.8063
-59.7762
-63.9187
-68.2217
-72.6603
-77.2332
-81.9919
-86.9935
-92.2566
-97.7508
-103.334
-108.637
-113.181
-116.62
-118.425
-117.416
-110.111
-92.0505
-62.6447
-35.1242
8.20901
10.8152
13.7242
16.8787
19.9911
23.1371
26.2234
29.041
31.5048
33.6461
35.4665
36.9749
38.2269
39.2663
40.1242
40.8295
41.3995
41.8408
42.1531
42.3273
42.3474
42.1908
41.8293
41.2335
40.3922
39.3133
38.0049
36.476
34.7413
32.8196
30.7318
28.4991
26.1399
23.668
21.0913
18.4097
15.6222
12.7177
9.80201
5.54917
2.86682
-0.121644
-3.23381
-6.26635
-9.41372
-12.5665
-15.6604
-18.7434
-21.7883
-24.8018
-27.8222
-30.8521
-33.9093
-37.0172
-40.1989
-43.4792
-46.878
-50.4116
-54.0957
-57.9395
-61.9408
-66.0848
-70.3457
-74.7228
-79.2692
-84.042
-89.0655
-94.3421
-99.8279
-105.318
-110.359
-114.356
-116.522
-115.557
-108.146
-90.3797
-61.3868
-33.9236
8.11735
10.6381
13.4511
16.4987
19.5021
22.5351
25.5076
28.2184
30.5867
32.6421
34.3873
35.8314
37.0288
38.0228
38.8441
39.5215
40.0735
40.5073
40.8241
41.0163
41.0697
40.9626
40.6678
40.155
39.4103
38.4378
37.2422
35.829
34.2095
32.399
30.4162
28.28
26.0083
23.6154
21.1106
18.4964
15.777
12.9417
10.1125
5.51238
2.91258
0.0137926
-3.0074
-5.95112
-9.00828
-12.0717
-15.0779
-18.0736
-21.0315
-23.9572
-26.8897
-29.8326
-32.8037
-35.824
-38.9138
-42.0974
-45.3936
-48.8171
-52.3809
-56.0915
-59.9443
-63.9227
-67.9993
-72.1728
-76.497
-81.0252
-85.7793
-90.7648
-95.9741
-101.31
-106.448
-110.751
-113.202
-112.275
-104.735
-87.415
-59.3911
-32.4041
7.99999
10.4384
13.1591
16.1042
19.0031
21.9283
24.7919
27.4008
29.678
31.6518
33.3253
34.7079
35.8532
36.8034
37.5891
38.2392
38.7721
39.1964
39.5143
39.72
39.8005
39.7359
39.4999
39.0622
38.4065
37.5337
36.4456
35.1445
33.6382
31.9391
30.0627
28.0262
25.8463
23.5371
21.1096
18.5678
15.9209
13.159
10.4168
5.45238
2.93308
0.121289
-2.81072
-5.66752
-8.63579
-11.6109
-14.53
-17.4388
-20.3097
-23.148
-25.9909
-28.8437
-31.7256
-34.6543
-37.648
-40.73
-43.9182
-47.2256
-50.6629
-54.2342
-57.9323
-61.7391
-65.6251
-69.5887
-73.6814
-77.9529
-82.4181
-87.0744
-91.9117
-96.8708
-101.73
-105.934
-108.397
-107.416
-99.8124
-82.9715
-56.4824
-30.514
7.86183
10.221
12.8526
15.6991
18.4978
21.3195
24.079
26.5904
28.7805
30.6765
32.2816
33.6056
34.701
35.6091
36.3602
36.983
37.4965
37.9096
38.2259
38.4409
38.5432
38.5148
38.3302
37.9598
37.3856
36.6056
35.619
34.4256
33.0299
31.4412
29.6722
27.7376
25.653
23.4321
21.0865
18.6221
16.052
13.3673
10.7123
5.37377
2.93258
0.205988
-2.6387
-5.4102
-8.29103
-11.1786
-14.0114
-16.8335
-19.6175
-22.3683
-25.1203
-27.8812
-30.6708
-33.5051
-36.3996
-39.3759
-42.4514
-45.6376
-48.9429
-52.3692
-55.9076
-59.5373
-63.228
-66.9759
-70.8299
-74.8352
-78.9983
-83.3052
-87.7281
-92.2009
-96.5386
-100.275
-102.389
-101.158
-93.578
-77.3052
-52.7084
-28.2508
7.70748
9.98986
12.5355
15.2867
17.9891
20.7115
23.3713
25.7892
27.8958
29.7172
31.257
32.525
33.5726
34.4404
35.1578
35.7538
36.2473
36.6481
36.9604
37.1812
37.3009
37.3026
37.1627
36.8523
36.352
35.6579
34.7668
33.6761
32.3875
30.9074
29.2456
27.4147
25.4283
23.2994
21.0404
18.6582
16.1689
13.5655
10.9988
5.28051
2.91557
0.272122
-2.48697
-5.17462
-7.96902
-10.7701
-13.517
-16.2527
-18.9498
-21.613
-24.2731
-26.9405
-29.6358
-32.3732
-35.1659
-38.0335
-40.9924
-44.0532
-47.2222
-50.4993
-53.8731
-57.3216
-60.8125
-64.3404
-67.9508
-71.6827
-75.5354
-79.4824
-83.4756
-87.4255
-91.1409
-94.1994
-95.6865
-94.0041
-86.4842
-71.015
-48.3887
-25.7197
7.54051
9.7485
12.2108
14.8701
17.4797
20.1062
22.6705
24.999
27.0253
28.7751
30.2523
31.4666
32.4683
33.2973
33.9823
34.5521
35.0256
35.4128
35.7193
35.9432
36.076
36.1027
36.0013
35.744
35.3105
34.6951
33.893
32.8996
31.7141
30.34
28.7846
27.058
25.1719
23.1384
20.9698
18.6741
16.2696
13.7511
11.2734
5.176
2.8853
0.323386
-2.3516
-4.95678
-7.66601
-10.3813
-13.043
-15.6927
-18.303
-20.8782
-23.4463
-26.0194
-28.618
-31.2565
-33.9453
-36.7018
-39.5413
-42.4733
-45.5024
-48.6265
-51.8322
-55.0959
-58.3841
-61.6891
-65.0524
-68.5074
-72.0455
-75.6289
-79.192
-82.6207
-85.7036
-88.0312
-88.783
-86.5552
-79.1122
-64.6754
-43.952
-23.1059
7.36425
9.49998
11.8815
14.4519
16.9718
19.5059
21.978
24.2209
26.1701
27.8512
29.2681
30.431
31.3888
32.1804
32.8341
33.3781
33.8316
34.2048
34.504
34.7283
34.8707
34.9179
34.8495
34.6387
34.2651
33.7216
33.002
32.1001
31.013
29.7418
28.2912
26.6687
24.8844
22.9489
20.8744
18.6692
16.3532
13.9233
11.5359
5.06313
2.84513
0.362925
-2.22945
-4.75352
-7.37849
-10.0089
-12.5861
-15.1501
-17.6739
-20.161
-22.6378
-25.116
-27.6161
-30.1537
-32.7367
-35.3802
-38.0981
-40.8987
-43.7854
-46.7536
-49.7887
-52.8651
-55.9485
-59.0294
-62.1448
-65.322
-68.5451
-71.7672
-74.9083
-77.8354
-80.3192
-81.9562
-82.0043
-79.261
-71.9171
-58.5805
-39.7272
-20.6025
7.18129
9.24692
11.5499
14.034
16.4674
18.9121
21.2954
23.4561
25.3309
26.946
28.3052
29.4187
30.3344
31.09
31.7134
32.2325
32.666
33.0248
33.3155
33.5381
33.6872
33.7507
33.7102
33.54
33.2199
32.7416
32.098
31.2816
30.2879
29.1157
27.7674
26.2482
24.5663
22.7308
20.7531
18.6418
16.4176
14.0793
11.7833
4.94435
2.79727
0.393465
-2.11768
-4.56177
-7.10364
-9.6499
-12.1431
-14.622
-17.0596
-19.4589
-21.8452
-24.2281
-26.6288
-29.0639
-31.5396
-34.0686
-36.6632
-39.3309
-42.073
-44.8837
-47.7464
-50.6343
-53.5126
-56.3696
-59.2383
-62.1396
-65.0516
-67.9198
-70.6535
-73.1074
-75.0431
-76.0677
-75.5113
-72.355
-65.156
-52.8632
-35.8295
-18.3136
6.99417
8.99146
11.2182
13.6186
15.9682
18.3265
20.6242
22.7053
24.5088
26.0604
27.364
28.4301
29.3052
30.0263
30.6205
31.1153
31.5292
31.8732
32.1545
32.3739
32.527
32.6034
32.5862
32.4513
32.1785
31.759
31.1851
30.4482
29.5425
28.465
27.216
25.7986
24.2189
22.4845
20.6059
18.5915
16.4624
14.2187
12.0153
4.82177
2.74432
0.417229
-2.01397
-4.3793
-6.83898
-9.30194
-11.7119
-14.1059
-16.4578
-18.7695
-21.0658
-23.3534
-25.6543
-27.9863
-30.3539
-32.7676
-35.238
-37.7713
-40.3679
-43.02
-45.7096
-48.4091
-51.0829
-53.7184
-56.3437
-58.9741
-61.5825
-64.1084
-66.4547
-68.469
-69.9127
-70.4112
-69.3657
-65.9169
-58.9209
-47.5908
-32.2299
-16.2484
6.8048
8.73563
10.8881
13.2073
15.4756
17.7504
19.9652
21.9698
23.7044
25.1947
26.4449
27.4654
28.3015
28.9894
29.5556
30.0268
30.4214
30.7505
31.0217
31.2366
31.3915
31.4778
31.4798
31.3753
31.1443
30.7776
30.2671
29.6038
28.7806
27.7931
26.6398
25.3219
23.8434
22.2106
20.4326
18.5174
16.4856
14.3389
12.2294
4.69729
2.68777
0.436219
-1.91632
-4.20399
-6.58261
-8.96307
-11.2904
-13.6003
-15.8668
-18.0915
-20.2981
-22.4908
-24.692
-26.9203
-29.1795
-31.4775
-33.8233
-36.2221
-38.6728
-41.1664
-43.6835
-46.1957
-48.6674
-51.0847
-53.4721
-55.8392
-58.1547
-60.3542
-62.3368
-63.9491
-64.9584
-65.015
-63.5893
-59.96
-53.2199
-42.7842
-28.8967
-14.3542
6.61501
8.48097
10.5612
12.8015
14.9909
17.1849
19.3195
21.2501
22.9182
24.3495
25.5483
26.5248
27.3236
27.9797
28.5189
28.9671
29.3429
29.6572
29.9178
30.1269
30.2821
30.3755
30.3933
30.3146
30.1204
29.8009
29.3479
28.7522
28.0059
27.1035
26.0418
24.8205
23.4418
21.9102
20.2336
18.4192
16.487
14.4395
12.4249
4.57235
2.6296
0.45198
-1.82315
-4.03434
-6.33273
-8.63162
-10.877
-13.1035
-15.2852
-17.4234
-19.5407
-21.6392
-23.7415
-25.8661
-28.0168
-30.1994
-32.421
-34.6855
-36.9909
-39.3269
-41.673
-44.0004
-46.2735
-48.4781
-50.6348
-52.7487
-54.7847
-56.6766
-58.3227
-59.5723
-60.2037
-59.8963
-58.1863
-54.4705
-48.027
-38.4216
-25.8357
-12.6092
6.42622
8.22902
10.2388
12.4023
14.5152
16.6309
18.688
20.5468
22.1509
23.5253
24.6745
25.6089
26.3717
26.9972
27.5102
27.9366
28.2939
28.5935
28.8431
29.0458
29.1995
29.2978
29.3284
29.2718
29.1095
28.832
28.431
27.8971
27.2222
26.3997
25.4253
24.2972
23.0159
21.5845
20.0093
18.2967
16.4654
14.5185
12.5997
4.44829
2.57079
0.465928
-1.73305
-3.86882
-6.08824
-8.30634
-10.4707
-12.6145
-14.712
-16.7644
-18.793
-20.7987
-22.8031
-24.8243
-26.8668
-28.9346
-31.0329
-33.1643
-35.3258
-37.5059
-39.6834
-41.8296
-43.9093
-45.9081
-47.8432
-49.7155
-51.4879
-53.0937
-54.4327
-55.3598
-55.6678
-55.0673
-53.1554
-49.4295
-43.3125
-34.4799
-23.0555
-11.0241
6.23978
7.98086
9.92199
12.0107
14.0494
16.0891
18.0712
19.8608
21.4028
22.7222
23.8237
24.7175
25.4459
26.0418
26.5299
26.9349
27.2744
27.5595
27.7981
27.9936
28.1447
28.2461
28.2867
28.2486
28.1141
27.8738
27.5196
27.0422
26.4331
25.6853
24.7936
23.7548
22.5681
21.2352
19.7608
18.1503
16.4208
14.5757
12.7533
4.32622
2.51283
0.479167
-1.64488
-3.70652
-5.84784
-7.98635
-10.0705
-12.1323
-14.1466
-16.1141
-18.0549
-19.9695
-21.8771
-23.7958
-25.7308
-27.685
-29.6614
-31.6614
-33.6811
-35.7082
-37.7208
-39.6905
-41.583
-43.384
-45.1081
-46.7526
-48.2791
-49.6216
-50.6838
-51.3283
-51.3648
-50.5346
-48.4904
-44.8147
-39.0432
-30.9312
-20.5557
-9.61401
6.05657
7.73754
9.61158
11.6277
13.5941
15.5603
17.4697
19.1923
20.6744
21.9408
22.9962
23.8509
24.546
25.1137
25.5777
25.9623
26.2845
26.5553
26.7828
26.9706
27.1184
27.2212
27.2695
27.2469
27.1365
26.9291
26.6167
26.1906
25.6421
24.9638
24.1499
23.1962
22.1008
20.8639
19.489
17.98
16.3526
14.6097
12.8838
4.20701
2.45621
0.492692
-1.55768
-3.54637
-5.61087
-7.67069
-9.67575
-11.6566
-13.5887
-15.4723
-17.3266
-19.1516
-20.964
-22.7814
-24.6104
-26.4524
-28.309
-30.18
-32.0608
-33.9384
-35.7907
-37.5897
-39.3024
-40.9152
-42.4402
-43.8717
-45.1712
-46.2746
-47.0907
-47.4915
-47.3045
-46.3011
-44.1834
-40.6052
-35.1902
-27.7528
-18.3276
-8.37789
5.87759
7.49976
9.30853
11.2538
13.1502
15.0451
16.884
18.5416
19.9659
21.1811
22.1921
23.0093
23.6724
24.2129
24.6538
25.0187
25.3242
25.5811
25.7976
25.9775
26.1209
26.2239
26.2782
26.2683
26.1786
26
25.7252
25.3455
24.8525
24.2386
23.4976
22.6246
21.6167
20.473
19.1955
17.787
16.2612
14.6205
12.9912
4.09132
2.40202
0.507104
-1.47087
-3.38784
-5.37656
-7.35897
-9.28599
-11.1871
-13.0381
-14.8391
-16.608
-18.3451
-20.064
-21.7823
-23.5071
-25.2392
-26.9783
-28.7234
-30.4689
-32.2015
-33.899
-35.5341
-37.0756
-38.5105
-39.8492
-41.0838
-42.1759
-43.0649
-43.6651
-43.8594
-43.4927
-42.3652
-40.2228
-36.7781
-31.7242
-24.9185
-16.3606
-7.31464
5.70338
7.26829
9.01332
10.8898
12.7181
14.5438
16.3146
17.9093
19.2776
20.4433
21.4115
22.1925
22.8249
23.3393
23.7581
24.104
24.3934
24.6369
24.8424
25.0143
25.1528
25.2551
25.3135
25.3141
25.2421
25.0889
24.8475
24.5096
24.0673
23.5129
22.8399
22.043
21.1186
20.0646
18.8818
17.572
16.1467
14.6075
13.0741
3.97971
2.35047
0.523002
-1.38384
-3.23032
-5.1447
-7.05073
-8.90106
-10.7236
-12.4948
-14.2147
-15.8999
-17.5506
-19.1781
-20.7996
-22.4226
-24.0474
-25.6723
-27.295
-28.9096
-30.5024
-32.0514
-33.5304
-34.9098
-36.1782
-37.3442
-38.3984
-39.3033
-40.0023
-40.416
-40.4384
-39.9319
-38.7231
-36.5958
-33.3123
-28.6199
-22.4075
-14.6442
-6.42771
5.53463
7.04357
8.72665
10.536
12.2982
14.0569
15.7616
17.2953
18.6096
19.7276
20.6546
21.4007
22.0037
22.4931
22.8905
23.2183
23.4922
23.7226
23.9175
24.0812
24.2145
24.3151
24.3763
24.3855
24.3286
24.1975
23.9858
23.6856
23.2893
22.7896
22.1798
21.4544
20.6091
19.641
18.55
17.3364
16.0099
14.571
13.1326
3.87261
2.30227
0.540721
-1.29634
-3.07365
-4.91481
-6.74593
-8.52082
-10.2662
-11.9592
-13.5994
-15.2028
-16.769
-18.3075
-19.8348
-21.3588
-22.8792
-24.3935
-25.8983
-27.3869
-28.8457
-30.2533
-31.5846
-32.8121
-33.9259
-34.9332
-35.8238
-36.5618
-37.0945
-37.3496
-37.2324
-36.6217
-35.368
-33.2884
-30.1859
-25.8515
-20.1969
-13.1682
-5.72066
5.37168
6.82616
8.44872
10.1929
11.8907
13.5844
15.2252
16.6999
17.9619
19.0339
19.9211
20.6339
21.2086
21.674
22.0511
22.3614
22.6205
22.8383
23.0228
23.1783
23.3061
23.4043
23.4672
23.4832
23.4393
23.3275
23.142
22.8757
22.5213
22.0717
21.5204
20.8618
20.091
19.2048
18.2018
17.0815
15.8514
14.511
13.166
3.7704
2.25744
0.560602
-1.20809
-2.91747
-4.68701
-6.44451
-8.14544
-9.8152
-11.4315
-12.9939
-14.5172
-16.001
-17.4534
-18.8898
-20.3177
-21.7372
-23.1449
-24.5365
-25.9047
-27.236
-28.5099
-29.7025
-30.7889
-31.7599
-32.6228
-33.3669
-33.9577
-34.347
-34.47
-34.2425
-33.5589
-32.2912
-30.2853
-27.3783
-23.3958
-18.2675
-11.9223
-5.19536
5.21498
6.61634
8.18002
9.86063
11.4959
13.1266
14.7054
16.123
17.3344
18.3621
19.2112
19.8918
20.4395
20.8819
21.2396
21.5333
21.7781
21.9837
22.1581
22.3056
22.4278
22.5231
22.5868
22.6082
22.5752
22.4802
22.318
22.082
21.7655
21.3617
20.8644
20.2679
19.5671
18.7584
17.8396
16.809
15.6725
14.4282
13.175
3.67335
2.21653
0.582785
-1.11901
-2.76199
-4.46116
-6.14663
-7.77504
-9.37082
-10.9123
-12.3987
-13.8441
-15.2479
-16.6174
-17.966
-19.3012
-20.6236
-21.9292
-23.2127
-24.4665
-25.6774
-26.8258
-27.8894
-28.8452
-29.6861
-30.4192
-31.033
-31.4959
-31.7637
-31.7788
-31.4674
-30.7383
-29.4824
-27.5707
-24.8683
-21.2297
-16.5984
-10.8941
-4.84694
5.06473
6.41436
7.92062
9.53934
11.1138
12.6832
14.2021
15.5645
16.7272
17.7121
18.5245
19.1744
19.6962
20.1167
20.4558
20.7337
20.9648
21.1588
21.3234
21.4631
21.5794
21.6716
21.7353
21.7611
21.7372
21.6569
21.5152
21.3063
21.0241
20.6621
20.2144
19.6754
19.0401
18.3043
17.4653
16.5206
15.4743
14.3233
13.1591
3.58161
2.17949
0.607442
-1.02894
-2.60703
-4.2375
-5.85242
-7.41003
-8.93359
-10.4021
-11.8145
-13.1845
-14.5107
-15.8004
-17.0649
-18.3113
-19.5407
-20.7488
-21.9297
-23.0756
-24.1736
-25.2052
-26.1495
-26.9856
-27.7093
-28.3262
-28.8263
-29.1794
-29.346
-29.2754
-28.9038
-28.1526
-26.9298
-25.1279
-22.6357
-19.3316
-15.1705
-10.0689
-4.66874
4.92114
6.22029
7.67063
9.22902
10.7445
12.2545
13.7153
15.0244
16.14
17.0839
17.861
18.4814
18.9784
19.378
19.6994
19.9623
20.1805
20.3634
20.5186
20.6506
20.7612
20.8499
20.913