/*--------------------------------*- C++ -*----------------------------------*\
  =========                 |
  \\      /  F ield         | OpenFOAM: The Open Source CFD Toolbox
   \\    /   O peration     | Website:  https://openfoam.org
    \\  /    A nd           | Version:  9
     \\/     M anipulation  |
\*---------------------------------------------------------------------------*/
FoamFile
{
    format      ascii;
    class       volScalarField;
    location    "0.45";
    object      p;
}
// * * * * * * * * * * * * * * * * * * * * * * * * * * * * * * * * * * * * * //

dimensions      [0 2 -2 0 0 0 0];

internalField   nonuniform List<scalar> 
900
(
2.35605e-05
-0.00776404
-0.0210836
-0.0360189
-0.0493061
-0.0588674
-0.0634894
-0.0625629
-0.0559046
-0.043636
-0.0261074
-0.00385342
0.0224289
0.0518912
0.0835421
0.11626
0.148815
0.179908
0.208225
0.232504
0.251626
0.264706
0.271194
0.270979
0.26448
0.252741
0.237522
0.221421
0.208047
0.20106
0.00781209
-8.48906e-05
-0.0106801
-0.021798
-0.031516
-0.0383207
-0.0412307
-0.0397031
-0.0335238
-0.0227336
-0.00757714
0.0115298
0.0340201
0.0591873
0.0861959
0.114097
0.141851
0.168364
0.192537
0.213327
0.229822
0.241321
0.247416
0.24807
0.243681
0.235134
0.223833
0.211706
0.201054
0.194102
0.0213963
0.0103141
-0.00060656
-0.0105321
-0.0187652
-0.0242799
-0.0263568
-0.0245988
-0.0188432
-0.00911814
0.0043833
0.0213228
0.041228
0.0634998
0.0874201
0.112164
0.136821
0.160427
0.182012
0.200651
0.215538
0.226051
0.231829
0.232832
0.229382
0.222192
0.212383
0.201404
0.19046
0.180651
0.0373085
0.0214777
0.00845275
-0.00195251
-0.0100999
-0.0153571
-0.0172533
-0.0155671
-0.0102283
-0.0012932
0.0110621
0.0265469
0.0447571
0.0651743
0.087167
0.109997
0.132837
0.154798
0.174971
0.192478
0.206541
0.216543
0.222102
0.223118
0.21981
0.212725
0.202772
0.191078
0.177958
0.163674
0.0525274
0.0315328
0.0157302
0.00411423
-0.004605
-0.0101207
-0.0121831
-0.0107428
-0.00583051
0.0024569
0.0139465
0.028382
0.0454145
0.0645919
0.0853522
0.107024
0.128835
0.14994
0.169452
0.186499
0.200283
0.210149
0.215647
0.216591
0.213078
0.205501
0.194604
0.181296
0.165153
0.145814
0.0649186
0.0387678
0.0199095
0.00667987
-0.0030082
-0.0091098
-0.0115618
-0.0104695
-0.00595855
0.00183189
0.0127266
0.0264962
0.0428372
0.0613525
0.0815356
0.102763
0.124298
0.145309
0.164903
0.182174
0.196267
0.206444
0.212156
0.2131
0.20924
0.200827
0.188486
0.172992
0.153335
0.12871
0.0728975
0.0417511
0.0197571
0.00470847
-0.00617202
-0.0130495
-0.0160145
-0.0153054
-0.0111312
-0.00366855
0.00690547
0.0203851
0.036507
0.0549212
0.0751662
0.0966531
0.118662
0.140355
0.160803
0.179035
0.194101
0.205146
0.211482
0.21266
0.208495
0.199102
0.185025
0.166975
0.143469
0.113395
0.0751885
0.0392506
0.0141575
-0.00277115
-0.0149285
-0.0226534
-0.0261641
-0.025812
-0.0218755
-0.01456
-0.00403999
0.00950431
0.025849
0.0446884
0.0656009
0.0880246
0.111245
0.134401
0.156506
0.176497
0.193296
0.205889
0.213414
0.215237
0.211004
0.200685
0.184764
0.163938
0.13632
0.100573
0.0706791
0.0301454
0.00204577
-0.0167344
-0.030158
-0.0387155
-0.0427346
-0.0426633
-0.0388369
-0.0314791
-0.0207544
-0.00681186
0.0101683
0.0299272
0.0520845
0.0761039
0.101272
0.126694
0.151312
0.173945
0.193355
0.208329
0.217785
0.220863
0.216999
0.206
0.188288
0.164573
0.13259
0.0908122
0.0583311
0.0133702
-0.0176209
-0.0381712
-0.0527874
-0.0621004
-0.0665372
-0.0666316
-0.062765
-0.0551703
-0.0439921
-0.0293397
-0.0113411
0.00980025
0.0337528
0.0600122
0.087869
0.116394
0.144447
0.17071
0.193753
0.212123
0.224464
0.229633
0.2268
0.215566
0.196272
0.169648
0.133026
0.0846998
0.0371275
-0.0121225
-0.045883
-0.0680878
-0.0837762
-0.0937184
-0.0984377
-0.098549
-0.0944729
-0.0864433
-0.0745754
-0.058927
-0.039561
-0.0166113
0.00965452
0.0387785
0.0700673
0.102565
0.135046
0.166044
0.193908
0.2169
0.233325
0.241686
0.24081
0.230021
0.209535
0.180081
0.138526
0.0829712
0.00604392
-0.0473898
-0.0837976
-0.107514
-0.124112
-0.134508
-0.139329
-0.139271
-0.134794
-0.126127
-0.113345
-0.0964424
-0.0753995
-0.0502603
-0.021206
0.0113755
0.0468301
0.084192
0.122163
0.159121
0.193171
0.222244
0.244239
0.257209
0.259534
0.25016
0.229099
0.197025
0.150242
0.0866228
-0.0359688
-0.0935213
-0.132458
-0.157511
-0.174805
-0.185419
-0.190098
-0.189635
-0.18453
-0.175007
-0.161093
-0.142703
-0.119715
-0.0920582
-0.059796
-0.0232124
0.0171119
0.0602339
0.104805
0.149057
0.19084
0.227708
0.257078
0.276444
0.283604
0.27698
0.256256
0.221963
0.169691
0.09703
-0.0899976
-0.151664
-0.193015
-0.219187
-0.236883
-0.247386
-0.251588
-0.250399
-0.244377
-0.233741
-0.218467
-0.198373
-0.173212
-0.142767
-0.106946
-0.0658842
-0.0200423
0.0297075
0.0820073
0.134973
0.186199
0.232834
0.271735
0.299711
0.31381
0.311733
0.292656
0.256817
0.198879
0.116079
-0.157188
-0.223057
-0.266713
-0.293707
-0.311391
-0.321304
-0.324542
-0.322173
-0.314836
-0.302756
-0.285852
-0.263834
-0.236301
-0.202853
-0.1632
-0.117274
-0.065353
-0.0081754
0.0529561
0.116092
0.178602
0.237217
0.288168
0.327447
0.351146
0.355993
0.340398
0.304077
0.24046
0.146324
-0.238787
-0.309099
-0.354945
-0.382332
-0.399383
-0.407992
-0.409542
-0.405323
-0.396095
-0.382109
-0.363225
-0.339024
-0.308927
-0.27231
-0.228631
-0.177558
-0.119116
-0.053823
0.0171584
0.0918966
0.167601
0.240606
0.30648
0.360269
0.39688
0.411747
0.402161
0.366967
0.297927
0.191192
-0.33622
-0.411447
-0.459345
-0.486466
-0.501928
-0.508146
-0.50692
-0.499857
-0.487898
-0.471338
-0.449979
-0.423257
-0.390379
-0.350452
-0.302626
-0.246239
-0.180973
-0.107035
-0.0253328
0.062336
0.153127
0.243059
0.327038
0.399067
0.452633
0.481497
0.481354
0.449666
0.37588
0.25525
-0.451249
-0.532205
-0.581932
-0.607729
-0.620112
-0.622283
-0.616654
-0.605288
-0.589375
-0.569284
-0.544749
-0.515034
-0.47909
-0.435709
-0.38367
-0.321906
-0.249674
-0.166753
-0.073668
0.0280694
0.135722
0.24513
0.350626
0.445133
0.520504
0.568399
0.582311
0.557582
0.480379
0.344573
-0.586256
-0.674229
-0.725343
-0.748072
-0.755037
-0.750652
-0.73823
-0.720463
-0.698872
-0.673911
-0.645226
-0.611864
-0.572468
-0.52545
-0.46916
-0.40205
-0.322861
-0.230832
-0.12596
-0.00928672
0.11677
0.248097
0.378636
0.500306
0.603189
0.676414
0.710533
0.697739
0.619457
0.46729
-0.744748
-0.841636
-0.89318
-0.909916
-0.907793
-0.893104
-0.87045
-0.843357
-0.813743
-0.78213
-0.748012
-0.710142
-0.66678
-0.615888
-0.555314
-0.482959
-0.396961
-0.295912
-0.179128
-0.0469818
0.0986923
0.254137
0.413222
0.567102
0.704107
0.810471
0.872974
0.879278
0.803859
0.634414
-0.932293
-1.04064
-1.09051
-1.0963
-1.07937
-1.04887
-1.01117
-0.970825
-0.930154
-0.889648
-0.84852
-0.805104
-0.757162
-0.702114
-0.637229
-0.559786
-0.467249
-0.357463
-0.228926
-0.0811279
0.0849743
0.266377
0.457352
0.648749
0.827424
0.976556
1.07833
1.11412
1.04816
0.861211
-1.15826
-1.28096
-1.32457
-1.31099
-1.27041
-1.21618
-1.15692
-1.0983
-1.04288
-0.990877
-0.940991
-0.890926
-0.837785
-0.778326
-0.709155
-0.626865
-0.528182
-0.41013
-0.270265
-0.107002
0.079899
0.288658
0.514583
0.748966
0.977858
1.18163
1.33727
1.4178
1.37248
1.16959
-1.43917
-1.57802
-1.6056
-1.55839
-1.48069
-1.39164
-1.30238
-1.21943
-1.14512
-1.07894
-1.01864
-0.961005
-0.902244
-0.838311
-0.765054
-0.678323
-0.574066
-0.448435
-0.297955
-0.119789
0.0878112
0.32481
0.588349
0.871247
1.15999
1.4331
1.66235
1.81039
1.80506
1.59255
-1.80555
-1.95672
-1.94765
-1.84281
-1.70796
-1.56918
-1.4396
-1.32564
-1.22841
-1.1458
-1.07402
-1.00846
-0.944189
-0.876177
-0.799426
-0.709007
-0.600074
-0.467887
-0.307886
-0.11585
0.111768
0.377228
0.680444
1.01723
1.37649
1.7371
2.06695
2.31709
2.38641
2.18307
-2.31609
-2.45693
-2.36802
-2.1659
-1.94527
-1.73794
-1.55665
-1.40547
-1.28245
-1.18253
-1.09949
-1.02684
-0.958159
-0.887303
-0.808371
-0.715649
-0.603525
-0.466394
-0.298611
-0.0944877
0.151563
0.44463
0.788441
1.18364
1.62453
2.09438
2.56141
2.96679
3.17466
3.031
-3.08373
-3.1399
-2.88402
-2.52177
-2.17686
-1.87952
-1.63622
-1.4442
-1.29539
-1.17997
-1.08821
-1.01115
-0.940698
-0.869492
-0.790763
-0.698088
-0.585181
-0.445665
-0.272886
-0.0596917
0.20169
0.519635
0.902747
1.35863
1.891
2.49435
3.14624
3.78635
4.24801
4.28755
-4.32422
-4.09135
-3.50629
-2.89315
-2.37657
-1.96816
-1.65716
-1.42622
-1.2566
-1.13143
-1.0365
-0.96004
-0.892203
-0.824557
-0.749615
-0.660432
-0.550244
-0.412079
-0.23847
-0.0209532
0.250398
0.587514
1.00481
1.51921
2.14903
2.91017
3.80471
4.78988
5.70241
6.20494
-6.5311
-5.41652
-4.19609
-3.22059
-2.48992
-1.96148
-1.5906
-1.33394
-1.15669
-1.03318
-0.944483
-0.876285
-0.817409
-0.758752
-0.692488
-0.611481
-0.508794
-0.377261
-0.208922
0.00554827
0.277743
0.622776
1.06103
1.62051
2.33988
3.26994
4.46034
5.93101
7.66302
9.33063
-11.0278
-7.16614
-4.64473
-3.22575
-2.32079
-1.7297
-1.35336
-1.11502
-0.96311
-0.865474
-0.801004
-0.754849
-0.715955
-0.675581
-0.626329
-0.561482
-0.474493
-0.358559
-0.206021
-0.00773203
0.248046
0.577386
1.00366
1.56277
2.31307
3.34906
4.80332
6.88898
10.2077
15.0254
-19.0539
-8.87655
-4.22263
-2.48946
-1.6304
-1.14307
-0.874858
-0.730363
-0.654029
-0.616392
-0.600226
-0.593979
-0.589109
-0.578761
-0.556983
-0.51824
-0.457055
-0.367658
-0.243635
-0.0773738
0.140785
0.424055
0.792101
1.27725
1.93912
2.89533
4.37709
6.96991
12.6571
23.9018
)
;

boundaryField
{
    movingWall
    {
        type            zeroGradient;
    }
    fixedWalls
    {
        type            zeroGradient;
    }
    frontAndBack
    {
        type            empty;
    }
}


// ************************************************************************* //
