/*--------------------------------*- C++ -*----------------------------------*\
  =========                 |
  \\      /  F ield         | OpenFOAM: The Open Source CFD Toolbox
   \\    /   O peration     | Website:  https://openfoam.org
    \\  /    A nd           | Version:  9
     \\/     M anipulation  |
\*---------------------------------------------------------------------------*/
FoamFile
{
    format      ascii;
    class       volVectorField;
    location    "0.45";
    object      U;
}
// * * * * * * * * * * * * * * * * * * * * * * * * * * * * * * * * * * * * * //

dimensions      [0 1 -1 0 0 0 0];

internalField   nonuniform List<vector> 
900
(
(0.00036096 -0.000360502 0)
(0.000679758 -0.000170422 0)
(3.62532e-05 0.00024923 0)
(-0.00169425 0.000645344 0)
(-0.00436894 0.000954704 0)
(-0.00774879 0.001167 0)
(-0.0115831 0.00128866 0)
(-0.015637 0.00133123 0)
(-0.0196996 0.00130616 0)
(-0.0235846 0.0012232 0)
(-0.0271287 0.00109035 0)
(-0.0301893 0.000914303 0)
(-0.0326436 0.000701188 0)
(-0.0343893 0.000457291 0)
(-0.0353458 0.00018976 0)
(-0.0354582 -9.28374e-05 0)
(-0.0347012 -0.00038016 0)
(-0.033084 -0.000659985 0)
(-0.0306546 -0.000918391 0)
(-0.0275033 -0.00114024 0)
(-0.0237642 -0.00130995 0)
(-0.0196142 -0.0014124 0)
(-0.0152689 -0.00143407 0)
(-0.0109749 -0.00136409 0)
(-0.00699924 -0.00119547 0)
(-0.00361387 -0.000927128 0)
(-0.00107391 -0.00056837 0)
(0.000420093 -0.000149187 0)
(0.000818602 0.000248088 0)
(0.000375844 0.000372351 0)
(0.000188101 -0.000694454 0)
(-0.000516347 0.000539086 0)
(-0.00351395 0.00250558 0)
(-0.00884344 0.00439413 0)
(-0.0162111 0.00592835 0)
(-0.0251568 0.00701922 0)
(-0.0351459 0.0076588 0)
(-0.0456375 0.00787574 0)
(-0.0561202 0.00771115 0)
(-0.0661263 0.00720786 0)
(-0.0752363 0.006407 0)
(-0.0830817 0.00534789 0)
(-0.0893463 0.00406992 0)
(-0.0937697 0.00261495 0)
(-0.0961529 0.00102996 0)
(-0.0963661 -0.000630884 0)
(-0.0943579 -0.00230499 0)
(-0.0901656 -0.00392132 0)
(-0.0839233 -0.00540178 0)
(-0.0758678 -0.00666404 0)
(-0.0663398 -0.00762577 0)
(-0.0557789 -0.00821012 0)
(-0.0447105 -0.00835197 0)
(-0.033725 -0.00800495 0)
(-0.023446 -0.00714951 0)
(-0.0144878 -0.00580436 0)
(-0.0073948 -0.00404619 0)
(-0.00255644 -0.00204456 0)
(-9.63531e-05 -0.000148151 0)
(0.000272014 0.000826367 0)
(-0.000220238 -8.87446e-05 0)
(-0.00250107 0.00352905 0)
(-0.00834981 0.00825578 0)
(-0.0174213 0.0127533 0)
(-0.0292132 0.0164508 0)
(-0.0431096 0.0191103 0)
(-0.0583864 0.0206708 0)
(-0.074293 0.0211659 0)
(-0.0901037 0.0206734 0)
(-0.105143 0.0192883 0)
(-0.1188 0.0171112 0)
(-0.130531 0.0142455 0)
(-0.139873 0.010799 0)
(-0.146445 0.00688863 0)
(-0.14996 0.00264466 0)
(-0.150234 -0.00178481 0)
(-0.147202 -0.00623199 0)
(-0.140925 -0.01051 0)
(-0.131606 -0.0144169 0)
(-0.119594 -0.0177432 0)
(-0.105385 -0.0202827 0)
(-0.0896085 -0.0218466 0)
(-0.0730155 -0.0222801 0)
(-0.0564403 -0.0214808 0)
(-0.0407569 -0.0194205 0)
(-0.0268178 -0.0161722 0)
(-0.01537 -0.0119505 0)
(-0.00695186 -0.00716869 0)
(-0.00185364 -0.00255345 0)
(-7.80918e-05 0.000506127 0)
(-0.000634861 0.00163726 0)
(-0.0045822 0.00900565 0)
(-0.0134278 0.017435 0)
(-0.0262806 0.0252479 0)
(-0.04235 0.031631 0)
(-0.0608555 0.0362041 0)
(-0.0809128 0.0388469 0)
(-0.101608 0.0395934 0)
(-0.122056 0.0385595 0)
(-0.141428 0.0359007 0)
(-0.158966 0.0317919 0)
(-0.174001 0.0264199 0)
(-0.185955 0.0199847 0)
(-0.194356 0.0127049 0)
(-0.198851 0.00482429 0)
(-0.199213 -0.00338234 0)
(-0.195363 -0.0116067 0)
(-0.187379 -0.0195089 0)
(-0.175512 -0.026725 0)
(-0.16019 -0.0328803 0)
(-0.142018 -0.0376093 0)
(-0.121769 -0.0405801 0)
(-0.100359 -0.0415246 0)
(-0.0788067 -0.0402717 0)
(-0.0581823 -0.0367842 0)
(-0.0395356 -0.0312031 0)
(-0.0238002 -0.0239024 0)
(-0.0116883 -0.0155566 0)
(-0.00374913 -0.00725177 0)
(-0.000443961 -0.000814017 0)
(-0.00100907 0.00445679 0)
(-0.00656605 0.0169654 0)
(-0.0183785 0.0299844 0)
(-0.0349576 0.0416825 0)
(-0.0551753 0.0511009 0)
(-0.078063 0.0577656 0)
(-0.102578 0.0615194 0)
(-0.127664 0.0624065 0)
(-0.152308 0.0605877 0)
(-0.175562 0.0562871 0)
(-0.196561 0.0497639 0)
(-0.214537 0.0413017 0)
(-0.228828 0.0312083 0)
(-0.238894 0.0198219 0)
(-0.244323 0.00752002 0)
(-0.244855 -0.00527407 0)
(-0.24039 -0.018088 0)
(-0.231012 -0.0304039 0)
(-0.216995 -0.0416694 0)
(-0.198817 -0.0513181 0)
(-0.177161 -0.0587982 0)
(-0.152902 -0.0636101 0)
(-0.127084 -0.0653505 0)
(-0.100878 -0.0637622 0)
(-0.0755299 -0.0587877 0)
(-0.0522797 -0.0506277 0)
(-0.0322636 -0.0398057 0)
(-0.0164081 -0.0272329 0)
(-0.00558437 -0.014297 0)
(-0.000774194 -0.0031318 0)
(-0.00134101 0.00828165 0)
(-0.00841072 0.0273178 0)
(-0.0230834 0.045835 0)
(-0.0432802 0.0619802 0)
(-0.0675155 0.0747444 0)
(-0.0946134 0.0836229 0)
(-0.123367 0.0884604 0)
(-0.152586 0.0893354 0)
(-0.181145 0.086469 0)
(-0.208001 0.0801653 0)
(-0.232206 0.0707783 0)
(-0.252919 0.0586986 0)
(-0.269413 0.0443525 0)
(-0.28109 0.0282099 0)
(-0.287495 0.0107942 0)
(-0.288327 -0.00730837 0)
(-0.283462 -0.0254459 0)
(-0.272969 -0.0429047 0)
(-0.257126 -0.058924 0)
(-0.236435 -0.0727227 0)
(-0.211622 -0.0835378 0)
(-0.183639 -0.0906745 0)
(-0.153633 -0.0935668 0)
(-0.122915 -0.0918444 0)
(-0.0929016 -0.0854035 0)
(-0.0650376 -0.0744798 0)
(-0.0406913 -0.0597186 0)
(-0.0210452 -0.042233 0)
(-0.00733309 -0.0236623 0)
(-0.00106776 -0.00637726 0)
(-0.00163954 0.0130277 0)
(-0.0101268 0.0399393 0)
(-0.0275327 0.0648666 0)
(-0.0512184 0.0860231 0)
(-0.0793395 0.102432 0)
(-0.110502 0.113624 0)
(-0.14333 0.119493 0)
(-0.176501 0.120185 0)
(-0.20879 0.116005 0)
(-0.239073 0.107352 0)
(-0.266339 0.0946861 0)
(-0.289688 0.0785139 0)
(-0.308345 0.0593868 0)
(-0.321666 0.0379121 0)
(-0.329151 0.0147653 0)
(-0.330459 -0.00929831 0)
(-0.32543 -0.0334384 0)
(-0.314099 -0.0567342 0)
(-0.296726 -0.078201 0)
(-0.273807 -0.0968224 0)
(-0.24609 -0.111598 0)
(-0.214573 -0.121606 0)
(-0.180493 -0.126082 0)
(-0.145294 -0.124503 0)
(-0.11057 -0.11668 0)
(-0.0779941 -0.102842 0)
(-0.0492023 -0.0837211 0)
(-0.0256739 -0.0605951 0)
(-0.00903801 -0.0353237 0)
(-0.00133901 -0.0104976 0)
(-0.00191494 0.0186291 0)
(-0.0117411 0.0547117 0)
(-0.0317604 0.0869482 0)
(-0.0588056 0.113678 0)
(-0.0906812 0.134027 0)
(-0.125773 0.147623 0)
(-0.162533 0.154463 0)
(-0.199511 0.154798 0)
(-0.235388 0.149046 0)
(-0.268977 0.137721 0)
(-0.299213 0.1214 0)
(-0.325155 0.100713 0)
(-0.345992 0.0763402 0)
(-0.361039 0.049026 0)
(-0.369757 0.0195979 0)
(-0.371757 -0.0110202 0)
(-0.366829 -0.0417983 0)
(-0.35496 -0.071603 0)
(-0.336363 -0.0992144 0)
(-0.311502 -0.123362 0)
(-0.281114 -0.142779 0)
(-0.246225 -0.156282 0)
(-0.208143 -0.162859 0)
(-0.168437 -0.161783 0)
(-0.128893 -0.152725 0)
(-0.0914372 -0.135857 0)
(-0.0580113 -0.111949 0)
(-0.0304351 -0.0824125 0)
(-0.0107694 -0.0493118 0)
(-0.00160638 -0.0154787 0)
(-0.00217549 0.0250388 0)
(-0.0132807 0.0715367 0)
(-0.0358096 0.11196 0)
(-0.066092 0.144817 0)
(-0.101591 0.169396 0)
(-0.140472 0.185484 0)
(-0.18102 0.193231 0)
(-0.22166 0.193042 0)
(-0.260992 0.185474 0)
(-0.297772 0.17118 0)
(-0.3309 0.150871 0)
(-0.359409 0.125301 0)
(-0.382461 0.0952803 0)
(-0.399342 0.0616874 0)
(-0.40947 0.0254937 0)
(-0.412409 -0.0122155 0)
(-0.407885 -0.0502261 0)
(-0.395815 -0.0871934 0)
(-0.376341 -0.121656 0)
(-0.349863 -0.152071 0)
(-0.317077 -0.176879 0)
(-0.279003 -0.194587 0)
(-0.237 -0.203883 0)
(-0.192755 -0.20377 0)
(-0.14825 -0.193704 0)
(-0.105693 -0.173737 0)
(-0.0673715 -0.144619 0)
(-0.0354943 -0.107863 0)
(-0.012605 -0.0657342 0)
(-0.00188809 -0.02135 0)
(-0.00242704 0.0322237 0)
(-0.0147668 0.0903357 0)
(-0.039718 0.139795 0)
(-0.0731226 0.179316 0)
(-0.112109 0.208402 0)
(-0.154626 0.227059 0)
(-0.198794 0.235648 0)
(-0.242924 0.234768 0)
(-0.285544 0.225158 0)
(-0.32537 0.207631 0)
(-0.361285 0.183042 0)
(-0.392311 0.152281 0)
(-0.417596 0.116281 0)
(-0.436408 0.0760449 0)
(-0.448131 0.0326762 0)
(-0.452275 -0.0125938 0)
(-0.448492 -0.058381 0)
(-0.436611 -0.103138 0)
(-0.416673 -0.14516 0)
(-0.38898 -0.182624 0)
(-0.354148 -0.213642 0)
(-0.313154 -0.236367 0)
(-0.267373 -0.24912 0)
(-0.218593 -0.25055 0)
(-0.168995 -0.239815 0)
(-0.121085 -0.216753 0)
(-0.077541 -0.18203 0)
(-0.0410208 -0.137216 0)
(-0.0146223 -0.084781 0)
(-0.00220116 -0.0281835 0)
(-0.00267353 0.0401614 0)
(-0.0162156 0.111046 0)
(-0.0435154 0.170357 0)
(-0.0799312 0.217048 0)
(-0.122258 0.250892 0)
(-0.168229 0.272174 0)
(-0.215806 0.281524 0)
(-0.263197 0.279786 0)
(-0.308873 0.267918 0)
(-0.351534 0.246921 0)
(-0.39006 0.217812 0)
(-0.423486 0.181616 0)
(-0.450968 0.139384 0)
(-0.471768 0.0922314 0)
(-0.485247 0.0413706 0)
(-0.490861 -0.0118432 0)
(-0.488184 -0.065878 0)
(-0.476937 -0.119002 0)
(-0.457031 -0.169279 0)
(-0.428634 -0.214592 0)
(-0.392231 -0.252707 0)
(-0.348707 -0.281369 0)
(-0.29941 -0.298457 0)
(-0.246191 -0.302168 0)
(-0.191414 -0.291248 0)
(-0.137901 -0.265213 0)
(-0.0887649 -0.22455 0)
(-0.0471798 -0.170832 0)
(-0.0168965 -0.106725 0)
(-0.00256181 -0.0360925 0)
(-0.00291793 0.0488369 0)
(-0.0176403 0.13362 0)
(-0.0472268 0.203558 0)
(-0.0865431 0.257881 0)
(-0.132043 0.29669 0)
(-0.181243 0.320611 0)
(-0.231953 0.330608 0)
(-0.282291 0.327827 0)
(-0.330694 0.313489 0)
(-0.375865 0.288813 0)
(-0.416716 0.254992 0)
(-0.452317 0.213189 0)
(-0.481861 0.164567 0)
(-0.504626 0.11033 0)
(-0.519964 0.0517773 0)
(-0.527289 -0.00964614 0)
(-0.526093 -0.0722937 0)
(-0.515975 -0.134279 0)
(-0.496693 -0.193454 0)
(-0.468232 -0.247418 0)
(-0.430897 -0.293568 0)
(-0.385415 -0.329194 0)
(-0.333039 -0.35165 0)
(-0.275627 -0.35857 0)
(-0.215693 -0.348147 0)
(-0.156376 -0.319431 0)
(-0.101263 -0.272602 0)
(-0.0541276 -0.20915 0)
(-0.0195011 -0.131918 0)
(-0.00298612 -0.0452298 0)
(-0.00316333 0.0582417 0)
(-0.0190555 0.158017 0)
(-0.0508802 0.239314 0)
(-0.0929853 0.301671 0)
(-0.141464 0.345581 0)
(-0.193609 0.372087 0)
(-0.247086 0.38256 0)
(-0.29994 0.378514 0)
(-0.350601 0.361482 0)
(-0.397809 0.332935 0)
(-0.440539 0.294258 0)
(-0.477936 0.246757 0)
(-0.509261 0.191693 0)
(-0.533841 0.130337 0)
(-0.551043 0.0640383 0)
(-0.560258 -0.00570619 0)
(-0.560902 -0.0771812 0)
(-0.552448 -0.14839 0)
(-0.534472 -0.217012 0)
(-0.506739 -0.280381 0)
(-0.469308 -0.335522 0)
(-0.422671 -0.379234 0)
(-0.367895 -0.40826 0)
(-0.306763 -0.419541 0)
(-0.241874 -0.41055 0)
(-0.176661 -0.379681 0)
(-0.115218 -0.326631 0)
(-0.0620102 -0.252677 0)
(-0.0225095 -0.160785 0)
(-0.00349087 -0.0557872 0)
(-0.00341426 0.068376 0)
(-0.020483 0.184219 0)
(-0.0545184 0.277549 0)
(-0.0993019 0.348257 0)
(-0.150531 0.397301 0)
(-0.205263 0.426234 0)
(-0.261024 0.436923 0)
(-0.31581 0.431324 0)
(-0.368079 0.411341 0)
(-0.41665 0.378736 0)
(-0.460606 0.335107 0)
(-0.499214 0.281902 0)
(-0.531842 0.220465 0)
(-0.557909 0.152109 0)
(-0.576835 0.0781942 0)
(-0.588011 0.000216514 0)
(-0.590802 -0.0800964 0)
(-0.584553 -0.160699 0)
(-0.568649 -0.239153 0)
(-0.542591 -0.312574 0)
(-0.506129 -0.377633 0)
(-0.459423 -0.430613 0)
(-0.403244 -0.467573 0)
(-0.339179 -0.484621 0)
(-0.269808 -0.47831 0)
(-0.1988 -0.446136 0)
(-0.130766 -0.387066 0)
(-0.0709621 -0.301965 0)
(-0.0259961 -0.193821 0)
(-0.00409454 -0.0679958 0)
(-0.00367864 0.0792538 0)
(-0.0219597 0.212231 0)
(-0.0582143 0.318204 0)
(-0.105575 0.397462 0)
(-0.159286 0.451526 0)
(-0.216149 0.482577 0)
(-0.27356 0.493086 0)
(-0.329501 0.485546 0)
(-0.382501 0.462298 0)
(-0.431511 0.42544 0)
(-0.475781 0.376802 0)
(-0.51475 0.317975 0)
(-0.547955 0.250374 0)
(-0.574951 0.175319 0)
(-0.595257 0.0941341 0)
(-0.608311 0.00825924 0)
(-0.613452 -0.0806366 0)
(-0.609921 -0.170537 0)
(-0.596906 -0.258966 0)
(-0.573618 -0.342894 0)
(-0.539431 -0.418687 0)
(-0.494074 -0.482123 0)
(-0.437883 -0.52852 0)
(-0.372086 -0.553012 0)
(-0.29909 -0.551002 0)
(-0.222687 -0.518785 0)
(-0.147981 -0.454261 0)
(-0.0811048 -0.357584 0)
(-0.0300402 -0.231581 0)
(-0.00481864 -0.0821288 0)
(-0.00397045 0.0909138 0)
(-0.0235486 0.242104 0)
(-0.0620919 0.361249 0)
(-0.111948 0.449093 0)
(-0.167826 0.507857 0)
(-0.226241 0.540502 0)
(-0.284479 0.550246 0)
(-0.34055 0.540232 0)
(-0.39312 0.513319 0)
(-0.441341 0.471986 0)
(-0.484697 0.418318 0)
(-0.522868 0.354049 0)
(-0.555617 0.280643 0)
(-0.5827 0.199393 0)
(-0.603789 0.11154 0)
(-0.618422 0.0184023 0)
(-0.625958 -0.0784902 0)
(-0.625571 -0.177244 0)
(-0.616269 -0.275451 0)
(-0.596964 -0.370042 0)
(-0.5666 -0.457172 0)
(-0.524374 -0.532163 0)
(-0.470026 -0.589577 0)
(-0.404224 -0.623452 0)
(-0.328981 -0.627795 0)
(-0.248021 -0.597322 0)
(-0.166852 -0.528417 0)
(-0.0925461 -0.420084 0)
(-0.0347297 -0.274676 0)
(-0.00568971 -0.0985048 0)
(-0.00431393 0.103437 0)
(-0.0253547 0.273968 0)
(-0.0663536 0.406708 0)
(-0.118662 0.502946 0)
(-0.176327 0.565798 0)
(-0.235552 0.599219 0)
(-0.293543 0.607358 0)
(-0.348412 0.594144 0)
(-0.399046 0.563048 0)
(-0.444886 0.516977 0)
(-0.485734 0.45829 0)
(-0.521586 0.388859 0)
(-0.5525 0.310173 0)
(-0.578498 0.223463 0)
(-0.599471 0.129833 0)
(-0.615113 0.0304106 0)
(-0.624871 -0.0734977 0)
(-0.627903 -0.180229 0)
(-0.623083 -0.28757 0)
(-0.609036 -0.392556 0)
(-0.584254 -0.49127 0)
(-0.547309 -0.578696 0)
(-0.497183 -0.648681 0)
(-0.43374 -0.694096 0)
(-0.358301 -0.707302 0)
(-0.274237 -0.681005 0)
(-0.187257 -0.609479 0)
(-0.105378 -0.489941 0)
(-0.0401693 -0.323761 0)
(-0.00674272 -0.117497 0)
(-0.00475024 0.116975 0)
(-0.0275475 0.308076 0)
(-0.0713153 0.454689 0)
(-0.126079 0.5588 0)
(-0.185055 0.624722 0)
(-0.244119 0.6577 0)
(-0.300463 0.663059 0)
(-0.352406 0.64568 0)
(-0.399178 0.60974 0)
(-0.440622 0.558623 0)
(-0.476955 0.494968 0)
(-0.508571 0.42077 0)
(-0.535899 0.337514 0)
(-0.559287 0.246326 0)
(-0.578907 0.148125 0)
(-0.594682 0.0437781 0)
(-0.606212 -0.0657165 0)
(-0.612719 -0.179039 0)
(-0.613009 -0.294318 0)
(-0.605477 -0.408864 0)
(-0.588174 -0.518888 0)
(-0.558997 -0.619226 0)
(-0.516019 -0.703149 0)
(-0.458034 -0.762368 0)
(-0.385299 -0.787403 0)
(-0.300406 -0.768473 0)
(-0.208921 -0.69699 0)
(-0.119679 -0.567482 0)
(-0.0464935 -0.379532 0)
(-0.00802724 -0.139545 0)
(-0.00534892 0.131793 0)
(-0.0303959 0.344869 0)
(-0.077451 0.505414 0)
(-0.134714 0.6164 0)
(-0.194361 0.683805 0)
(-0.251951 0.714595 0)
(-0.304796 0.71558 0)
(-0.351591 0.692789 0)
(-0.392071 0.651196 0)
(-0.426625 0.594691 0)
(-0.455994 0.526181 0)
(-0.481056 0.44775 0)
(-0.502674 0.360841 0)
(-0.521578 0.266429 0)
(-0.538279 0.165193 0)
(-0.552986 0.0576876 0)
(-0.565529 -0.0554805 0)
(-0.575279 -0.173442 0)
(-0.581078 -0.294811 0)
(-0.581184 -0.417379 0)
(-0.573284 -0.53773 0)
(-0.554606 -0.65083 0)
(-0.522217 -0.749632 0)
(-0.473581 -0.824837 0)
(-0.407461 -0.865036 0)
(-0.3251 -0.8575 0)
(-0.23134 -0.789885 0)
(-0.135506 -0.652777 0)
(-0.0538903 -0.442711 0)
(-0.009619 -0.165184 0)
(-0.00622821 0.148344 0)
(-0.0343212 0.385063 0)
(-0.0854464 0.559242 0)
(-0.145244 0.675394 0)
(-0.204603 0.741908 0)
(-0.258884 0.768084 0)
(-0.305751 0.762611 0)
(-0.344533 0.732864 0)
(-0.375695 0.684689 0)
(-0.400341 0.62247 0)
(-0.419856 0.549333 0)
(-0.435675 0.467392 0)
(-0.449142 0.377986 0)
(-0.461403 0.281889 0)
(-0.473337 0.179498 0)
(-0.485485 0.0710017 0)
(-0.497971 -0.0434399 0)
(-0.510408 -0.163496 0)
(-0.521792 -0.288404 0)
(-0.530393 -0.416634 0)
(-0.533676 -0.545429 0)
(-0.528305 -0.670249 0)
(-0.510338 -0.784131 0)
(-0.475722 -0.877114 0)
(-0.421274 -0.935975 0)
(-0.346172 -0.944706 0)
(-0.253669 -0.886208 0)
(-0.152887 -0.745471 0)
(-0.062642 -0.51403 0)
(-0.0116419 -0.195094 0)
(-0.00759231 0.16738 0)
(-0.0399804 0.42976 0)
(-0.0962523 0.616652 0)
(-0.158446 0.735185 0)
(-0.215967 0.797361 0)
(-0.264271 0.815657 0)
(-0.301793 0.801107 0)
(-0.328879 0.762615 0)
(-0.347014 0.706903 0)
(-0.358209 0.638767 0)
(-0.364595 0.561446 0)
(-0.368215 0.47698 0)
(-0.370898 0.386523 0)
(-0.374202 0.290589 0)
(-0.379368 0.189251 0)
(-0.387277 0.0823062 0)
(-0.398385 -0.0305621 0)
(-0.412627 -0.149611 0)
(-0.429285 -0.2748 0)
(-0.446824 -0.405449 0)
(-0.462709 -0.539752 0)
(-0.47327 -0.674084 0)
(-0.473706 -0.802121 0)
(-0.458413 -0.913834 0)
(-0.421887 -0.994632 0)
(-0.36043 -1.02518 0)
(-0.274499 -0.982703 0)
(-0.171771 -0.844505 0)
(-0.0731891 -0.594203 0)
(-0.0143097 -0.230184 0)
(-0.00980085 0.190144 0)
(-0.0483933 0.480574 0)
(-0.111107 0.678122 0)
(-0.175004 0.794626 0)
(-0.22802 0.847581 0)
(-0.266368 0.853768 0)
(-0.289947 0.827048 0)
(-0.300649 0.777935 0)
(-0.301328 0.713901 0)
(-0.295076 0.639961 0)
(-0.284837 0.559273 0)
(-0.27324 0.473648 0)
(-0.262551 0.383943 0)
(-0.254667 0.290343 0)
(-0.251131 0.192569 0)
(-0.25312 0.0900263 0)
(-0.261418 -0.0180697 0)
(-0.276328 -0.132559 0)
(-0.297536 -0.254151 0)
(-0.323904 -0.383129 0)
(-0.353194 -0.518872 0)
(-0.381765 -0.659108 0)
(-0.404326 -0.798817 0)
(-0.413939 -0.928771 0)
(-0.402641 -1.03391 0)
(-0.363096 -1.09208 0)
(-0.291438 -1.07423 0)
(-0.191886 -0.947659 0)
(-0.0862192 -0.683831 0)
(-0.0180022 -0.271765 0)
(-0.0134957 0.218704 0)
(-0.0611187 0.539708 0)
(-0.131425 0.743765 0)
(-0.194951 0.851394 0)
(-0.238782 0.888443 0)
(-0.261188 0.877348 0)
(-0.264589 0.835149 0)
(-0.253099 0.773806 0)
(-0.23127 0.701196 0)
(-0.203378 0.622187 0)
(-0.173127 0.539556 0)
(-0.143614 0.454668 0)
(-0.117387 0.367946 0)
(-0.0965361 0.279182 0)
(-0.0827647 0.187732 0)
(-0.0774445 0.092636 0)
(-0.0816193 -0.00729645 0)
(-0.0959564 -0.113416 0)
(-0.120623 -0.227122 0)
(-0.155065 -0.349658 0)
(-0.197675 -0.481716 0)
(-0.245332 -0.622726 0)
(-0.292862 -0.769661 0)
(-0.332602 -0.915204 0)
(-0.354432 -1.04525 0)
(-0.346944 -1.13617 0)
(-0.300302 -1.15295 0)
(-0.212331 -1.05073 0)
(-0.102742 -0.783152 0)
(-0.023394 -0.321838 0)
(-0.0198161 0.256497 0)
(-0.0804307 0.609847 0)
(-0.158262 0.812417 0)
(-0.216302 0.900826 0)
(-0.242819 0.913289 0)
(-0.24042 0.879184 0)
(-0.215485 0.818619 0)
(-0.175019 0.744376 0)
(-0.125444 0.664033 0)
(-0.0720935 0.581738 0)
(-0.0191828 0.499479 0)
(0.0300136 0.417915 0)
(0.0729424 0.336898 0)
(0.107576 0.255773 0)
(0.132258 0.173548 0)
(0.1456 0.0889677 0)
(0.146423 0.000547113 0)
(0.133769 -0.093429 0)
(0.106984 -0.194886 0)
(0.065903 -0.305879 0)
(0.0111963 -0.428352 0)
(-0.0550866 -0.563588 0)
(-0.128733 -0.711106 0)
(-0.202408 -0.866666 0)
(-0.264849 -1.01906 0)
(-0.300927 -1.1456 0)
(-0.293591 -1.20727 0)
(-0.23055 -1.14614 0)
(-0.123983 -0.891338 0)
(-0.0316268 -0.383532 0)
(-0.0306581 0.309128 0)
(-0.109156 0.69336 0)
(-0.190544 0.87969 0)
(-0.231885 0.933983 0)
(-0.227529 0.911654 0)
(-0.187893 0.84942 0)
(-0.124812 0.769302 0)
(-0.0484583 0.683494 0)
(0.0331997 0.598137 0)
(0.114317 0.515884 0)
(0.19074 0.437467 0)
(0.259525 0.362601 0)
(0.318534 0.290468 0)
(0.36614 0.21997 0)
(0.401009 0.149827 0)
(0.421956 0.0786059 0)
(0.42785 0.00468474 0)
(0.417579 -0.073805 0)
(0.390076 -0.159053 0)
(0.344436 -0.253621 0)
(0.28019 -0.360408 0)
(0.197816 -0.482371 0)
(0.0996311 -0.621754 0)
(-0.00884274 -0.778312 0)
(-0.117116 -0.945853 0)
(-0.208082 -1.10625 0)
(-0.25765 -1.22075 0)
(-0.239844 -1.22064 0)
(-0.150455 -1.00474 0)
(-0.044336 -0.461495 0)
(-0.0484999 0.385573 0)
(-0.148755 0.789766 0)
(-0.219802 0.933961 0)
(-0.222295 0.934717 0)
(-0.166325 0.86807 0)
(-0.0740642 0.775798 0)
(0.0367698 0.678775 0)
(0.15377 0.586201 0)
(0.268719 0.501257 0)
(0.37646 0.424287 0)
(0.473862 0.354409 0)
(0.559023 0.290283 0)
(0.630742 0.230454 0)
(0.688163 0.173472 0)
(0.730554 0.117908 0)
(0.757154 0.0623057 0)
(0.767073 0.00510756 0)
(0.759221 -0.0554619 0)
(0.732281 -0.121531 0)
(0.684722 -0.195743 0)
(0.614934 -0.281415 0)
(0.521558 -0.382595 0)
(0.404239 -0.50381 0)
(0.265053 -0.648995 0)
(0.110962 -0.818615 0)
(-0.0426085 -1.00326 0)
(-0.167702 -1.17158 0)
(-0.223707 -1.25205 0)
(-0.178371 -1.11328 0)
(-0.062654 -0.56241 0)
(-0.073778 0.500877 0)
(-0.191344 0.88879 0)
(-0.216111 0.947764 0)
(-0.141309 0.874858 0)
(-0.0073379 0.761254 0)
(0.151248 0.64525 0)
(0.313971 0.540923 0)
(0.469494 0.451389 0)
(0.612011 0.375506 0)
(0.738932 0.310896 0)
(0.849356 0.255097 0)
(0.943174 0.205925 0)
(1.02056 0.161533 0)
(1.08172 0.120357 0)
(1.12668 0.0810308 0)
(1.15525 0.0422787 0)
(1.16692 0.0028089 0)
(1.1608 -0.0388153 0)
(1.13552 -0.0843387 0)
(1.0892 -0.136021 0)
(1.01935 -0.196911 0)
(0.922933 -0.271187 0)
(0.796694 -0.364459 0)
(0.638103 -0.483741 0)
(0.447673 -0.63616 0)
(0.233699 -0.824134 0)
(0.0200873 -1.03274 0)
(-0.144524 -1.20425 0)
(-0.18976 -1.19325 0)
(-0.0825367 -0.69624 0)
(-0.0911729 0.671511 0)
(-0.193246 0.950095 0)
(-0.0946227 0.864391 0)
(0.110663 0.712122 0)
(0.342015 0.568682 0)
(0.565259 0.450576 0)
(0.767496 0.358209 0)
(0.944635 0.28679 0)
(1.09683 0.230966 0)
(1.22592 0.186376 0)
(1.33411 0.149777 0)
(1.42337 0.118808 0)
(1.49534 0.0917401 0)
(1.55118 0.0672689 0)
(1.59165 0.0443577 0)
(1.61708 0.0221133 0)
(1.62735 -0.000320221 0)
(1.62185 -0.0238671 0)
(1.59942 -0.0496533 0)
(1.55816 -0.0791805 0)
(1.49529 -0.114595 0)
(1.40682 -0.159107 0)
(1.28736 -0.217616 0)
(1.13001 -0.297586 0)
(0.927408 -0.409813 0)
(0.675258 -0.567454 0)
(0.380186 -0.778637 0)
(0.0770731 -1.02353 0)
(-0.12878 -1.18747 0)
(-0.0775235 -0.861615 0)
(0.0101973 0.815317 0)
(0.0266307 0.852602 0)
(0.359464 0.615926 0)
(0.722706 0.430591 0)
(1.02418 0.304795 0)
(1.26709 0.219825 0)
(1.46295 0.162426 0)
(1.62073 0.122989 0)
(1.74807 0.0949445 0)
(1.85109 0.0741375 0)
(1.9343 0.058 0)
(2.00096 0.0449192 0)
(2.05336 0.0338487 0)
(2.09306 0.0240777 0)
(2.12108 0.0150892 0)
(2.13796 0.00647031 0)
(2.14382 -0.00215325 0)
(2.13835 -0.0111755 0)
(2.12075 -0.0210722 0)
(2.08957 -0.0324952 0)
(2.0425 -0.0464237 0)
(1.97595 -0.0644361 0)
(1.88437 -0.0892254 0)
(1.75929 -0.125588 0)
(1.58814 -0.182233 0)
(1.35371 -0.274528 0)
(1.03298 -0.42683 0)
(0.6074 -0.667133 0)
(0.174444 -0.967871 0)
(0.0770731 -0.930328 0)
(0.886962 0.431535 0)
(1.15962 0.378517 0)
(1.62532 0.230007 0)
(1.97395 0.136114 0)
(2.18834 0.0829058 0)
(2.32886 0.052262 0)
(2.42821 0.03439 0)
(2.50116 0.0237089 0)
(2.55617 0.01701 0)
(2.5985 0.0125341 0)
(2.6314 0.00933386 0)
(2.6569 0.00688951 0)
(2.67629 0.00490454 0)
(2.69042 0.00319999 0)
(2.69981 0.00165894 0)
(2.70474 0.000195974 0)
(2.70531 -0.00126127 0)
(2.70141 -0.00278777 0)
(2.69275 -0.00447252 0)
(2.67872 -0.00644184 0)
(2.65833 -0.00889609 0)
(2.62995 -0.0121846 0)
(2.59083 -0.0169695 0)
(2.53623 -0.0245983 0)
(2.45759 -0.037943 0)
(2.339 -0.0632078 0)
(2.1451 -0.113457 0)
(1.79812 -0.213469 0)
(1.28212 -0.383519 0)
(0.943183 -0.45238 0)
)
;

boundaryField
{
    movingWall
    {
        type            fixedValue;
        value           uniform (3 0 0);
    }
    fixedWalls
    {
        type            noSlip;
    }
    frontAndBack
    {
        type            empty;
    }
}


// ************************************************************************* //
