/*--------------------------------*- C++ -*----------------------------------*\
  =========                 |
  \\      /  F ield         | OpenFOAM: The Open Source CFD Toolbox
   \\    /   O peration     | Website:  https://openfoam.org
    \\  /    A nd           | Version:  9
     \\/     M anipulation  |
\*---------------------------------------------------------------------------*/
FoamFile
{
    format      ascii;
    class       volScalarField;
    location    "55";
    object      p;
}
// * * * * * * * * * * * * * * * * * * * * * * * * * * * * * * * * * * * * * //

dimensions      [0 2 -2 0 0 0 0];

internalField   nonuniform List<scalar> 
112055
(
0.0189737
0.00400526
-0.00724514
-0.0104504
-0.00268677
0.00745679
0.0183541
-0.0102474
-0.00396866
0.0184778
0.004043
0.0174551
-0.00368478
0.0174482
0.0285827
-0.000313278
-0.0591284
0.022654
0.00403608
-0.00401419
-0.00029379
6.22527e-05
0.00405639
-0.00132332
0.000867318
-0.00425637
0.0410577
0.00556742
0.00741355
-0.000283076
0.00863407
-0.0170308
-0.000863469
-0.051264
-0.00400286
-0.000555649
-0.00409338
0.0637577
-0.0118965
-0.00015235
-0.00110147
-0.0109849
-0.000644232
-0.00714199
0.0232045
-0.0024807
-0.05093
0.001161
-0.00083134
-0.0107583
-0.00998189
-0.0175976
-0.000126804
-0.011687
-0.00481289
0.0184856
0.00102583
0.00130179
-0.011583
-0.00251611
0.0150492
0.00108586
-5.40532e-05
-5.62495e-05
0.0115102
-0.00450795
0.0662402
6.27365e-05
0.00216248
-0.00246056
0.00131185
-0.0601573
-0.00119918
0.0376756
-0.0418308
-0.0374305
0.00373739
0.0188231
-0.0149936
-0.0113929
0.000415581
-0.040895
-0.00984744
-0.00441523
-0.000295049
0.00132339
-0.00536401
-0.00477578
-0.0249269
-0.0047028
-0.000114874
-0.000571244
-0.00572347
-0.0026731
-0.0411867
0.0036969
-0.0175434
0.0282359
0.00863063
0.00101774
-0.00365012
-0.000463255
-0.00076795
0.00497053
-0.0417689
-0.058087
0.011496
-4.73606e-06
-0.000337614
0.00130291
-0.0599506
-0.031974
-0.00454477
0.00640597
0.00217216
0.0215051
0.0115621
-0.000536003
-0.0245239
-0.00410112
0.00595564
0.00558005
0.0184242
7.16076e-05
-0.00108956
0.00488128
-0.0593505
-2.00232e-05
-0.00533205
-0.0411203
7.0298e-05
0.0407667
5.85629e-05
0.0529955
-0.012195
-0.000151641
-0.000873771
0.0012989
-0.00677234
-0.00394128
0.00120873
-0.00257424
-0.0171758
0.0119571
2.83672e-06
-0.00377694
0.0206345
4.07275e-05
-0.000549356
0.000433765
-0.0588116
3.92578e-05
0.016051
-0.000130676
-0.00672255
0.00655736
0.00945017
0.00648615
-0.0108901
-0.00431681
-0.00452106
4.47317e-05
-0.00389013
-0.00413602
-0.00150769
-0.00127886
0.00954787
-0.0173778
-0.00187804
0.0115416
0.0082223
0.00653341
-0.00388286
0.0117743
-0.018017
-0.00413433
-0.000879118
-0.0050513
-0.00566984
-0.000167456
-0.0177716
-0.000852907
-0.000377332
0.00866351
-0.0136141
0.0163199
5.10984e-05
-0.00153104
-0.01763
-0.00198472
0.00147427
-0.000844204
-0.00464425
0.00598094
-0.00614261
-6.10721e-05
-0.0150529
-0.0321666
-0.0016053
0.00941105
0.062973
0.0129738
0.0151502
5.00743e-06
0.000328188
0.0212455
0.0662613
0.0102254
-0.0585861
-0.00079383
0.000177069
-0.000913344
0.0202407
-0.000798596
-0.0172345
0.0103574
0.00832948
-0.00664726
-0.00297468
-0.0107605
-0.000108682
-0.0224035
-0.00449082
-0.00455104
-0.034575
-0.00191113
-0.000460066
0.00930231
0.0034514
-0.000941103
-0.000539826
-0.0030209
-0.0134547
0.00460093
-0.0238651
0.00130502
-6.57698e-05
-0.000554093
-0.0664389
0.0986807
1.51281e-05
-0.0114552
-0.0033136
2.17952e-05
-0.00209285
-0.0238011
-0.0139911
-0.0118204
0.000215953
-0.0105902
-0.00224598
-0.000861706
-0.0484063
-0.00403628
-0.0147643
0.000451988
0.00143354
-0.00536578
-0.0325687
-0.000770301
-0.0349176
0.0215194
-0.0013438
0.0166952
0.0533051
-0.00188907
0.000320383
-0.00498964
0.0136588
6.2763e-05
-0.00225802
-0.00885035
-0.00155756
-0.0166136
-0.00304829
-0.0019073
-0.0418179
-0.0625535
-0.0617114
-0.0480965
-0.000338901
0.00423922
0.0128799
0.00777596
0.00537446
-0.0058545
0.00517547
-0.000812562
-4.9492e-05
0.0139494
-0.00505796
-0.000127612
0.00520125
-0.00245653
0.00463832
0.00535193
0.010505
-0.0041045
-0.00156611
-0.00011385
0.00449188
0.00867139
0.00914482
0.00497746
-0.00977647
6.6264e-05
-0.000360195
-0.00399857
-0.00301829
-7.71738e-05
-0.00406549
0.00234801
-0.0010675
0.00060228
-0.0151003
-0.0229572
-0.014029
0.00121751
-0.00242838
-0.00154342
-0.00210369
0.0540628
0.0301248
-0.00406485
-0.0136176
-0.00749535
-0.00304639
-0.000570452
0.00428948
-0.000848259
0.00342915
0.000563211
0.0113901
-0.00881265
-0.0107232
-0.000116936
-0.000909981
-0.0008527
0.00245571
-0.0257981
0.0629548
-0.0588591
0.000799751
-1.42611e-05
8.4943e-05
-0.0120088
3.64643e-05
-0.0123159
0.0114586
0.00039532
0.0263272
0.0149084
0.0167912
-0.0477097
-0.00546635
-0.00546885
0.037463
-0.000108975
-0.000799267
0.0173087
-0.042506
-0.000790339
-0.0106304
0.107831
0.000210765
-0.0663531
-0.0260804
-0.00764215
0.00439067
-0.00559315
0.0230056
0.0234445
0.0105282
0.0165026
0.139897
-6.87099e-05
-6.62009e-05
-0.00586766
-0.00587912
-0.00420114
-0.00110017
0.00749452
0.0173248
0.000292853
-0.00412655
-6.60298e-05
-6.4581e-05
-0.00636893
0.0126796
0.0226796
0.00361569
-9.14526e-05
0.000566389
-0.0266378
0.0373083
-0.00519616
0.00135885
-0.00968626
-0.00539007
0.000641553
0.0208166
0.00431194
-0.0165788
0.0165915
-4.19187e-05
-0.0317368
-0.00853936
-0.00252654
-0.00574868
0.00289384
-0.00881476
-3.86846e-05
-0.00322177
-3.81027e-05
-0.000138725
-0.011388
0.00632077
-0.0148374
-0.0030635
0.00645443
0.0305872
-0.00451869
0.000653987
0.00664869
0.00516566
-0.01193
0.010252
3.94579e-05
-0.0139764
-0.00875124
-0.00322122
0.0103799
-0.00545469
-0.0123965
-0.0112363
0.0260012
-0.000202773
-0.0124913
0.0980086
0.025659
-0.0117176
-0.000909679
0.00635462
-0.0136215
0.00359608
-1.26467e-05
0.0369981
0.0252832
0.000675481
-0.00940567
-0.00415103
0.00589024
-0.00451572
0.0077214
-0.00741242
-0.0604257
-2.17965e-05
-7.31957e-08
0.00930423
-7.1035e-05
-0.00555644
-0.00358389
-0.000137025
0.00146311
-0.0110984
-2.5301e-05
-0.000184502
0.0165942
0.00518466
-0.00160485
0.00752721
-0.000905227
-0.00540031
-0.0141445
0.00757045
-0.00986439
-0.00270172
-0.000105204
-0.00361939
0.00066383
-0.0478832
-0.070261
0.000316049
-0.0153609
-0.0014872
-0.0316057
0.013193
7.73971e-05
-0.00325015
-0.00265639
-6.29208e-05
-0.0405513
-0.00982129
-2.75337e-05
0.0100166
-0.00470533
0.00717174
-0.000452544
-0.00240916
0.00018208
-0.000128017
0.000177145
-0.00468081
0.0104246
-3.56611e-05
0.00521587
-0.00216078
-0.0485123
-0.000146284
-0.000180302
-0.00983963
0.0234547
-0.0111013
0.00283933
0.0664
-5.8882e-05
-5.63241e-05
-5.81799e-05
-0.0139473
-0.0141749
0.00791744
-0.000655179
-0.000796169
-0.00449788
0.00326141
-0.00255847
-4.28662e-05
0.0669632
-0.00364518
-8.40485e-05
0.00594475
-0.00589103
-0.0584061
0.0528861
-0.000269304
0.0138591
-0.0111383
-0.078665
-0.00514215
1.60514e-05
-0.000203175
1.19832e-05
-0.0764013
0.0264156
-0.0152652
-0.0110301
-0.0155302
0.00346358
0.00638552
-0.00133221
0.0264873
0.00554942
0.00934842
-0.0247972
0.00717976
-1.75821e-05
-0.019597
-0.00212429
-2.25376e-05
-0.0110564
-0.0435117
-0.00101581
0.000283815
-7.7604e-05
0.105707
-0.00450033
-0.0057662
-0.0626654
-0.00149835
-0.0614608
-0.0126309
0.00776955
-0.000497818
-0.0463759
1.46205e-05
0.0041757
0.0059478
-0.0144299
0.00963309
-0.0296709
-0.00309899
-1.36381e-05
0.0128837
0.00476325
0.00877997
-4.505e-05
0.00815401
0.00322332
0.00621386
8.90444e-06
0.00588741
-2.48723e-05
-8.57979e-05
-3.72125e-05
-0.0040725
0.00661223
0.00320747
-0.00291146
0.00547161
-0.00612742
-4.1887e-06
-0.0146234
0.00145166
0.00535659
-0.00396399
0.00323834
-0.00453613
0.00827182
0.011673
-0.000125193
-0.00467056
0.0112949
-0.000207902
-0.00710818
0.0513207
0.00557756
-3.78567e-05
-0.00062833
-0.0145458
0.0036213
-0.0279018
0.00911066
0.0049991
-0.000141103
0.00526082
-0.0477172
-0.00354127
-0.0117533
-0.0055275
-0.00749883
-0.000144648
-0.0603614
-0.00115845
-0.057787
-0.000424982
-0.000269676
-0.000335611
-0.000246967
0.000360771
0.00478401
-0.000475849
0.000350434
-0.00436496
-0.0057318
0.00224583
0.0242837
0.0755243
0.00816745
-0.0435608
-0.00715044
-0.0699873
-0.00603264
-8.00596e-06
0.0197284
-1.12466e-05
0.000295379
0.0102854
0.0148675
-0.00596046
-0.0149648
0.00994789
0.00826458
4.98215e-05
0.0183768
-1.97325e-05
-0.00377265
-0.028435
-0.0459138
-0.000126913
0.00551661
-0.0137821
-0.0243321
-0.0119
0.0178513
-0.00381472
8.88924e-05
0.00526932
0.0194812
0.0790064
-0.000318174
-0.000106441
-0.00616031
-0.00188358
-0.0414391
-0.00451279
0.0130026
-0.00734088
-1.21684e-05
-0.0478214
-0.0109945
9.43917e-05
0.00741162
0.00416263
0.00757145
0.0241614
0.0185261
0.0230232
0.0131179
0.000192679
-0.00236692
-0.00470455
-8.74287e-05
0.00814953
-0.000123736
-0.00377966
0.00433128
-0.00437645
-0.00131581
0.130054
9.04688e-05
0.00903035
-0.00275579
-0.0018844
-0.00748273
-8.53401e-05
0.00138213
0.0130091
-1.44263e-05
0.00436361
-0.00158463
-0.00384853
-0.00436341
-0.00104254
-0.0159487
-0.00013262
0.00998915
0.0127622
0.0158844
-0.000126398
-0.00205951
-0.00331973
0.0151929
-0.0589095
-0.00452821
0.00641805
-0.000488331
0.0498072
-0.00783279
-0.00270949
0.00107286
-0.0129949
-0.000488405
-0.0132575
0.00738506
-0.0652381
0.000569898
-0.0136522
0.011164
0.00366506
0.00518999
-0.000156806
-0.00125099
-0.000126566
-0.0140486
-0.00255987
0.011005
0.00636261
-0.000107444
0.016772
9.44862e-05
-0.000129472
-0.00230272
-0.0145977
-0.029898
0.0394151
0.0653522
0.00628275
-0.0038232
-0.000181901
4.03874e-05
-0.00123795
-0.00773405
-0.00121437
-0.000305604
-0.000311206
0.00535669
-0.0597012
-0.00304519
-8.57506e-05
0.0147187
-0.0121799
0.0177915
2.49486e-05
-0.0029426
-0.0729693
1.37628e-05
-0.000160178
-0.000443977
-0.00416765
-0.0119146
-0.00305565
-0.00521396
-0.000862777
-0.03546
-0.00552832
-0.000721612
-0.040969
-0.00452046
0.00457898
-0.000165842
-0.00441803
0.0148985
-0.00410198
-0.0115734
-0.0990461
-0.000178645
-0.0145917
-0.00894461
0.000590413
-0.000187211
-0.0259234
-0.00328303
-0.0119559
0.0132204
-0.00515741
-0.0177163
-0.00110372
0.00829913
-0.000306035
-0.0054837
-0.00305575
0.00651619
0.000243893
0.00838119
-0.00245332
-0.010272
0.015878
-0.00862358
-0.015698
-7.23774e-05
-0.000306088
0.0158549
0.018143
-0.00257147
0.129012
0.00497697
0.000114432
0.00534285
0.0110028
-0.00856701
-0.00259007
0.138701
0.0143845
-0.0043649
-0.000887903
-0.000319296
-0.0376264
-0.00369872
0.00842937
-0.000249729
-0.00521823
0.000648486
0.0392864
-0.000250596
-0.0176044
6.65744e-05
0.0183931
7.48422e-05
0.00775282
8.25662e-05
0.0791078
-0.00045912
-0.00347754
-0.0349058
-0.0122913
0.000139747
0.00533269
0.00857845
-0.0408195
-0.00373211
0.00112903
0.00704613
0.0147076
-0.0687793
-0.0279399
0.00529839
0.00769953
0.000301975
-0.0147645
0.00446114
-0.00159351
-0.000447271
-9.28656e-05
-0.00247092
-3.30816e-05
-0.00354461
-0.000140159
0.0134687
-0.000100466
0.00336472
-0.00214158
0.00515225
-0.00440559
-0.0126278
-0.0399034
3.84585e-06
-0.00742581
0.086155
-0.000603842
-0.0597933
-0.00974098
0.0036151
-0.0118759
-0.000159159
-0.0151446
-0.0391529
9.42209e-05
0.0041206
-0.00959689
0.00391159
0.0179416
-0.00619713
0.0019162
0.00330365
-0.0597176
0.0130043
-0.00159262
-0.00544294
3.57241e-05
-0.00132575
-0.00108493
-9.21755e-05
-0.00153833
-0.00665423
0.000285735
0.00457678
-1.09584e-05
0.00860757
1.82954e-05
-0.00114177
-1.53028e-05
0.000622961
-0.00435187
-8.03566e-05
-0.00797787
0.0001076
-0.00742192
-0.00132459
0.00860011
-0.000252594
0.0139119
0.0100669
-0.000238482
0.00226139
-0.0330288
-0.000241129
-0.000649779
0.000371903
-0.0140204
0.0194776
-0.0508941
0.00609812
-0.000318372
0.00163695
-0.00634456
0.0216463
-0.00247265
-0.00453748
0.000714833
-0.0316417
-0.000264495
-0.00346298
-0.00385025
-0.00297872
-0.00658921
-0.00784817
-0.0366914
-0.000244414
-0.0782338
-0.000243183
0.00736743
-0.00810476
0.00516324
-0.0142188
-0.00934609
-0.00571164
-0.0379008
0.0354386
-0.00339504
0.0180324
0.00298814
-0.000100604
-0.000919772
-0.0246539
0.00885998
0.00418067
-0.000323721
-0.015344
0.00237614
-0.000623472
0.000602478
0.017421
-0.000905263
-0.00977047
0.00914574
0.00566409
-0.00267533
0.0112626
-0.0036092
0.00880075
-0.00461378
-0.00615057
-0.0113538
-0.00587791
-0.00702815
0.0408899
-0.00957356
-0.00241529
0.00225437
-0.00349559
-0.0587871
0.000648743
-4.8571e-05
-0.00180728
-0.0308466
0.0051858
0.00689973
0.00849194
-0.00210769
0.00568298
0.00130573
-0.0441058
0.000720836
-0.000642493
-0.00539478
-0.0037872
-0.000703538
0.00423726
-0.000245525
4.05353e-05
0.022671
-0.00591201
-0.00792143
-0.00483341
-0.000239275
0.0649
0.00634054
6.34309e-05
-0.00411275
0.00255525
0.00583445
0.0156968
-0.000253684
-0.0439444
0.00749591
-0.0046286
2.30096e-05
0.00527433
0.000114474
-0.0450579
2.65744e-05
-0.0217341
-8.94709e-05
-0.000256621
0.00563681
-0.0189756
-8.41234e-05
0.000218447
6.57754e-05
-0.00234631
0.00458309
0.0229179
-0.0037383
0.0769976
-0.0299765
-0.00643987
-0.011913
-0.0376757
-0.000249915
0.0158309
0.00874786
0.010448
-0.0182167
-8.12958e-05
-0.0711677
-0.00272482
-0.00717429
-0.0549414
-0.0029866
0.00916736
-0.00328844
1.58904e-05
-7.46362e-05
0.00414297
-0.00941141
-0.00530295
-0.00382671
5.86084e-06
-0.00486847
-0.00158168
-0.0160819
-0.008946
-0.00266328
4.73144e-05
7.89724e-06
-0.000257107
0.000199869
0.0500691
-6.37165e-05
0.00888079
-0.0309136
-0.0039426
0.00515735
-4.31679e-05
-0.00162391
0.0015596
-0.0125637
-0.00324961
-0.000231111
-0.000257144
-0.0188392
-0.0111725
-0.000111828
-0.000314959
1.08239e-05
0.000294673
0.0206245
0.00387693
-0.000320277
-0.00135732
0.00511555
-0.00382321
0.0728377
-0.00515022
-0.00373834
0.111859
0.00418343
-0.0534881
0.0103093
4.18409e-06
0.00599056
-0.00519805
-0.005141
0.0137959
0.0281564
-0.0197572
-0.000336537
0.0802049
0.000481794
-0.0406809
-0.0375526
-0.00835903
-0.00438762
-0.0164484
-0.000603473
0.00037314
-0.00294214
-0.000607061
6.82666e-05
0.0157366
-4.91552e-05
0.00916752
0.000336086
-0.00601672
-0.0211612
-0.00658372
0.000647601
-0.000191524
0.0150755
-0.0101353
-0.0051755
0.0159532
0.00688164
-0.00147878
-0.000279801
-0.000185033
-0.0207096
-0.012004
0.00796001
0.00605251
0.0245577
-0.000130892
0.00313537
-0.00500668
-0.00417113
-0.0191918
1.09073e-05
0.0304794
0.00442899
-0.00465512
0.0354578
-0.000527468
-0.0755989
0.0182375
-0.000105089
0.00484003
0.00092683
0.110102
-0.00198868
-0.0609957
-9.74264e-05
0.000133089
-0.000619567
-0.000323187
-0.00639355
3.29135e-05
-0.0130357
-0.0394661
-0.0178134
-0.00970287
-8.45994e-05
-0.0315589
-0.0456463
-0.0630659
-0.000622281
0.0906677
-0.0648849
-0.0044859
0.00514928
-0.000810856
-7.87658e-06
6.29901e-05
-0.00323488
-0.000567054
-0.00145914
-0.000326865
0.00919525
-0.0384705
-0.00577058
-0.00239569
-0.0451478
-0.0385115
0.0079282
-1.48958e-05
-0.00247492
-0.0051656
0.00563805
-0.00477362
0.00523873
0.0118629
-0.0141068
0.0573193
0.000286488
0.0304485
-0.0300425
-0.0022511
0.00655138
-0.000273547
-6.05502e-05
0.0135914
-0.0154587
-0.00390527
0.0154517
-0.00325084
-0.000157841
-0.00735327
-0.00657537
-0.062257
-0.0122511
0.009349
-0.00100371
-0.0108789
0.000903999
0.0741439
-0.0437052
0.00863308
-0.00232604
0.00108338
0.0426819
-0.00231113
-0.00644823
-0.000154831
0.00359408
-0.00499987
-0.00407336
0.00650732
-0.0187918
-0.00184644
-0.00442065
-1.96183e-05
7.15849e-06
0.00751954
-0.00381543
-0.000640296
0.00672328
0.00306662
-0.0155833
-0.00867075
0.00554519
0.0650333
0.0160665
-0.000992644
-0.00549513
0.00301327
0.00935142
-0.00460093
0.000750588
0.0125054
-0.00212223
0.0564527
-0.0546362
-7.93769e-05
-0.00709471
0.00722385
-0.00900092
-0.032549
-0.00945811
-0.00259611
-0.00573216
-0.0537105
0.00861038
-0.0042954
0.0907402
-0.000728833
-0.00383889
0.00749501
0.00484043
0.00559016
-0.000860337
-0.00340868
0.00999721
-0.00203038
-0.0420453
-0.0558671
-0.0206618
-0.0034635
-0.00907024
-0.00468634
-0.00234216
-0.00349564
-0.00597682
-0.00429097
-0.00423728
0.00936939
0.0157698
-0.010423
-0.0138434
-0.00390374
0.000256372
0.0010101
-0.000387429
0.000343928
7.67787e-05
-0.00943222
-0.0371401
0.00692716
-0.0535507
-0.000577302
8.19011e-05
0.0111406
-0.00017622
-0.0246191
-0.00146918
0.00885293
-0.000502959
0.00113875
-0.00729686
-1.24527e-06
0.057285
5.62766e-05
-0.0121737
-0.000204838
0.000257475
-0.00692303
-0.00887544
0.00665186
0.00303681
0.0471925
0.00138061
0.0097463
-0.00471752
-0.0141438
-0.00715631
-0.00518271
-0.000143559
0.000241874
-0.0171088
-4.30527e-05
-0.00323455
0.00926726
-0.0195575
-0.0626141
2.61978e-05
2.16096e-05
0.00217484
0.00730744
0.00234451
0.0244921
-0.00380018
-4.59963e-05
-0.00820698
0.00491886
0.00294186
0.0073585
-0.0226809
-0.0217532
-0.00454565
-0.0599895
-0.00386987
0.0109885
0.000175996
-7.16213e-05
-6.55975e-05
0.0072096
0.0242341
3.19979e-05
-0.0378249
0.059957
0.000194564
-0.0200133
0.000249789
0.00879128
-0.0455218
-0.0287834
-0.00873305
-0.00989272
-0.014105
0.00651447
0.00471008
-0.0603995
-0.00703274
0.0255701
0.0111803
-0.000149838
0.0134257
-0.015948
-0.0039163
0.00476381
-0.0190558
0.00165515
-0.004306
-0.000488697
-0.00297778
-0.0307303
-0.00123799
-0.0598305
-0.0545624
-0.000395636
0.000109358
-0.0241304
0.0116031
-0.00265716
-0.00394021
-0.0348237
0.0138972
0.000102301
0.00286026
0.0845796
0.00430151
-0.0197258
-0.0158791
0.00901453
-0.00191217
-0.0626156
-0.00157805
0.0020539
-0.0792426
0.109863
0.00184662
0.00724436
-0.0223793
-0.00397712
0.00951023
-0.000432521
-0.00504367
-0.00442417
2.81134e-06
0.01623
0.0984324
0.00736401
-0.00345991
-0.00200635
-0.00260524
-0.00366306
-0.00313287
0.0465127
-1.82693e-05
0.0495001
-0.000447292
-0.00560712
-0.0390444
-0.00582071
-0.0103374
0.000288136
-0.00403786
-0.000335022
0.00907675
-0.000327982
-0.000144553
0.00187633
-0.000637612
0.045506
0.0036877
0.0162521
-0.045696
-0.000142115
0.00694395
-0.0687555
0.00183342
0.00824311
-9.71723e-06
0.0223886
0.035324
-0.0479963
-0.00954146
-0.00430399
-0.00450316
-0.0123365
-0.00137975
-0.00796835
0.0103064
-0.00737537
-0.00977031
0.0365241
-0.00704665
-0.00447063
0.0144953
-0.0992818
0.00382281
-0.00223852
0.00780885
-0.00043518
0.00692207
-0.0017013
-0.000336592
0.00690732
-0.00194326
-0.00571516
0.0110888
0.000102385
-0.00366529
-0.00374814
0.000769583
0.00459784
0.00605245
0.000199945
-0.0140711
-0.00589887
-0.018646
-0.0015839
0.000507724
2.03502e-06
-0.00043414
0.124631
0.000224849
0.00527342
-0.00865357
-0.0606866
0.00568449
-0.000186184
0.000788245
0.00869736
0.000192849
0.0174692
-0.0590992
0.00129258
0.00968965
0.0486419
-2.11986e-05
0.0105477
-0.00137996
0.00536437
-0.000989964
-0.014702
-0.00719335
-0.000160966
-0.0175393
0.00749145
0.00605432
0.0126753
-0.000183982
-0.00316104
-0.00246163
0.000136576
0.00842401
-0.00128555
-0.000244877
-0.0129421
-0.000325827
0.000414064
-0.000331201
-0.0494014
-0.000195667
0.0054418
0.00762103
-0.0124265
0.00864014
0.00446987
0.00532603
-0.00934577
0.000182901
-4.11211e-05
0.00645104
-0.00291683
-0.00756025
-0.000964005
-0.0621092
0.00224752
0.00864388
0.0178943
-0.0111016
-0.00746529
-0.00821392
-0.00259648
0.00247662
0.00732898
0.00834108
-7.40465e-05
0.0328706
0.00675668
5.29993e-05
-0.00164551
0.0230721
-0.00278402
0.00791271
-0.000283875
-7.25261e-05
-0.0199144
-0.0453616
-0.00519373
0.00542308
0.0279583
0.0655634
0.0105855
0.00355789
-0.0264626
-0.00444869
-5.27005e-05
-0.00520563
0.00029086
-0.000179179
-0.000204514
0.0081998
-0.00028019
0.00132669
0.000933563
-0.00200562
-6.92486e-05
-0.0622066
-0.0575295
2.78823e-05
-0.000174349
-0.0268454
-0.00127539
0.0178279
-0.0060547
0.0136392
0.00586027
-0.00196006
-0.0115199
-0.00257922
-0.000267523
-0.0012356
-0.00415996
-2.70193e-05
-0.00305976
0.00738923
0.0133552
-0.0606992
-0.00827471
0.000409769
-0.00252658
-0.00025668
-0.000233123
-0.000117273
-0.00148451
-0.0436545
-0.0255406
-2.83497e-05
2.19411e-05
-0.0275647
0.000206438
0.00419117
-0.006525
-0.00408365
-0.000322935
0.0105651
0.00708309
-0.0104046
0.00666126
-0.00212255
-0.00324191
-0.000681276
-0.000493951
0.0208037
-0.0602916
-0.0626066
0.0358315
0.002313
0.00553315
-0.000606787
0.0225631
-0.00937181
0.00839904
-0.0485275
0.00634525
-0.0750167
-0.00373757
-0.0260244
0.000405942
-0.000608332
-0.0110432
0.046757
-0.0592875
-9.28947e-05
-0.00630393
-0.0034894
-0.0243265
-0.00330433
0.0080021
-0.000948458
0.00473503
0.00780794
-0.00237279
-0.00440454
-0.0382152
-0.0193605
0.00638287
-0.00371422
-0.000665077
-0.0680275
0.00477602
-0.00189961
-1.87439e-05
-1.0419e-05
-0.00536861
0.0080837
1.76297e-05
0.0173576
0.00762856
-0.000113607
-0.000328514
-0.0149906
-0.0646092
0.00451621
0.00903629
-8.80867e-05
6.88597e-05
0.00602222
-0.00189157
-0.00861749
0.042014
-0.000897197
5.91163e-05
0.00996063
0.00120356
-0.0278458
-0.0611436
0.00732042
-0.0435243
-0.000444877
-0.0241477
-0.00669783
-0.00424481
-0.00185613
0.0102351
-1.04006e-05
-0.0113225
-0.00973916
-0.00439271
-0.0614945
0.0086207
0.00516927
-0.0242532
0.00417304
-0.00104078
-0.0121576
0.00582047
-0.00464787
-0.000157864
0.011436
0.00307926
-0.000453813
-0.00292598
0.00917631
-0.00461879
-0.00994926
-0.0041656
-0.00260438
-0.0161417
0.00477799
6.20732e-07
0.00120752
-0.00364778
0.00537692
-0.000121553
0.0107841
-0.00152873
0.0107305
-0.00368243
0.000517893
0.00522434
0.00994414
-0.00418502
-0.0119318
-0.00329906
-0.00450635
0.010376
-0.0399014
-0.000149251
-0.0463524
-0.00361758
-0.00737138
-0.00452031
-0.0121111
-0.00643144
0.00159744
0.000310494
0.00529404
-0.020478
-0.000288803
-0.000257805
-0.0227303
0.00122614
-0.00490524
-0.00730647
0.00549666
-0.00967906
-0.0198318
0.00918464
-0.00462852
0.00855105
-0.00492943
0.0264517
-0.00554626
0.00102288
0.000157024
-0.000788904
0.000456085
-0.00335293
2.86599e-05
-0.00110318
0.00645639
0.00515373
0.00748839
0.0110928
-0.00359676
0.0150104
0.00381163
-0.0580107
6.57687e-05
-5.86205e-05
-0.0510587
0.00571903
-0.0477103
0.00371966
-0.00958147
2.64601e-05
0.00687876
-0.0148727
-0.00287835
-0.0137534
-0.00178579
-0.000520205
2.04529e-05
0.00373274
-0.00616712
-1.09575e-05
-0.00394622
0.00584762
-0.00448967
0.00845282
-1.70204e-05
0.00755713
-0.0536394
0.0560926
0.00806357
-0.0265076
-0.00201836
0.00404058
0.000754778
-0.000862446
-2.06913e-05
-0.000791388
-0.0140545
0.0286421
-0.00151537
-9.35975e-06
-0.00782512
-0.00164109
0.00116404
3.56214e-06
-0.00151698
-0.000137386
0.00797311
-0.000140843
6.67889e-05
-0.00207815
-0.00484121
0.0109114
0.0109446
-3.97684e-05
0.0392665
-0.00523109
-9.77031e-05
0.00603671
-5.69595e-05
-1.59765e-05
0.00886703
-0.000348307
-4.13159e-05
-0.00914294
-0.00687286
0.000781326
0.00297588
0.00844783
-0.00419836
0.0276479
0.0064602
-0.000232165
0.000707285
-0.0623911
-0.00909495
0.0033358
-0.000330945
-2.99534e-05
-0.0183851
-0.00145966
-0.00469802
0.0190824
-0.000214863
-0.0158945
-0.000408065
0.00891824
-0.0087528
-0.0158603
0.0017282
-0.00322814
0.00861284
-0.00535819
0.00193574
3.81988e-05
0.0075736
0.00182096
-0.000327919
-2.36405e-05
-0.0323213
-0.0493267
-0.0491295
-0.000222601
0.00655208
0.0391125
-0.0130347
-0.000423246
0.010234
-4.74419e-05
0.00053697
-0.0232207
-0.0110829
-0.00237355
-0.0284147
-0.00139236
0.000207078
9.07707e-05
0.0107235
-0.0500498
-0.00473189
-0.00474556
0.00044818
0.000732958
-0.00152856
-0.00353875
-0.000390696
-0.0196016
-0.000100778
-0.0403081
0.000804035
0.00933459
0.0114538
0.00339268
0.00259266
-0.00470797
-0.000409469
0.00363579
-0.00174981
0.0196974
0.00943396
-0.00525484
-0.000147665
0.000206956
0.0877491
0.0182997
-0.0036272
0.0272729
0.00531708
6.91245e-05
0.00785449
-0.000102232
0.00286834
-0.0134133
-0.000584006
0.00426093
-0.00268453
0.0241954
-0.00295286
-9.97748e-05
0.0159174
-0.00198554
-0.00967729
0.00438067
0.0170713
-0.000510853
0.0171269
-0.00153152
-0.020238
-0.000660215
0.0365864
-0.0496152
0.00589895
-0.000272305
-0.00463395
-0.00392857
0.00186018
0.0052808
0.00602369
-0.0303349
0.00496245
-0.0262795
-0.00531462
-0.0386086
0.00164516
-0.00445882
-0.0194222
-0.00261636
0.0223625
-0.00356463
0.0585559
-0.0105146
-6.37288e-05
0.00023969
-0.000291944
0.00674415
0.00454876
0.00397692
-0.00389548
-0.00677722
-0.0499912
-0.0167387
-0.0172186
-7.09179e-05
-0.000259022
-0.000423347
0.00356169
-0.00489887
0.00868654
-0.00788758
0.00431297
0.00617165
-4.99565e-06
0.032318
0.00693611
0.0306489
-0.00015858
-0.0014398
-0.0121767
0.00799839
-0.0569389
0.000749982
-0.000883923
0.00148275
-0.00612416
0.00784166
0.000220552
0.011243
-0.000754517
-0.00299456
-0.000184562
-3.06882e-05
-0.0125554
0.0206611
-0.0157179
-0.00899164
-0.0310665
-0.00356019
-0.00178899
0.022842
0.0178463
-0.00256823
-9.27218e-05
0.00740945
0.00259586
-0.0017998
-0.00362064
-0.0159424
-0.0597051
-0.00209448
0.00834062
-0.00345582
-0.00700323
0.000420603
0.031241
0.0134866
-0.0044713
-0.00498932
0.00226579
-0.00396281
-0.0555906
0.000355487
-0.0634951
0.00415184
0.0127029
-0.00175828
0.000932762
-0.0610984
0.0775913
-0.000231975
-0.00372043
-0.00449192
2.54983e-05
0.000366489
-0.000223187
0.0075871
0.0219629
-0.00582573
0.00713704
-0.0493041
0.00562098
-0.0102748
-0.0332413
0.000951448
0.031717
-0.000300621
-0.067347
0.00573589
-4.79602e-05
-0.000174796
-0.032525
-0.000524736
-0.0175663
0.00931676
-0.0226675
0.00687711
0.0132224
-0.00150121
0.00794863
-0.00309894
0.00850045
-0.044222
0.0115253
0.00579289
-0.000241609
0.0159176
0.00442218
-0.000930514
0.00652723
0.00371333
0.00422494
-0.0715149
0.000488376
-0.0478739
-0.00376627
0.0295478
-2.24274e-05
-0.00142791
0.0140362
-0.0453967
0.00126558
-0.000370604
-0.000239012
0.034118
0.00525125
0.0166662
-0.000246177
-0.00323847
-0.0715806
0.00506689
0.00302374
-0.000105062
0.00662513
-0.00173017
-0.0046677
-0.000927784
-0.00753999
-0.00042254
-0.000195875
2.0507e-05
0.00831111
-0.00976984
0.00281255
-0.0258882
-0.000296161
-0.0332778
8.78869e-05
-0.0095351
-0.00848584
-0.00319482
0.00227536
-0.00938742
0.0109289
-0.0123285
0.023445
-0.00380701
-0.00756828
0.00551629
-0.000177864
-0.00530576
0.000853335
0.0214337
0.00668657
0.0796378
-0.00256858
0.00216859
0.0065714
0.0159355
0.0201088
2.00426e-05
-0.000261767
-8.09171e-07
-0.00183974
-0.00352715
-0.00541042
0.0694768
0.095205
-0.00745785
-0.0114707
0.008569
0.0143535
-0.00797294
5.00809e-05
-0.0821111
0.00880326
0.000140032
0.00594832
-0.00315551
-0.000195181
-0.0115846
-0.0150476
-0.000860026
0.021301
-0.000264695
-0.0644039
-0.00266251
0.00594266
-0.0208508
-0.000291616
-0.0235184
0.00123652
-0.0129511
-0.00262491
3.81024e-05
0.000129431
-0.0554139
-0.024094
0.00784161
-0.000159593
0.0178821
0.00463213
-0.0449854
-0.0365092
0.0126032
-0.00535771
0.00816395
0.00617119
-0.00332938
0.00730851
-0.0136162
0.00889164
-0.00530096
-4.70804e-06
0.000997482
-0.000994397
-0.00420262
-0.0674977
0.000545116
-0.00171461
-0.00621175
-0.000666158
0.00196142
-0.0506798
-0.0616862
0.00482545
0.0284924
-0.0661263
-0.00375587
-0.0722072
0.00145746
-0.00502948
0.00859969
0.0101317
0.00628416
-0.0184637
0.000333985
-0.0628469
-0.0542808
0.00137772
-0.0068021
0.00859873
-0.0383682
-0.00433586
-0.00194979
-0.0688648
-0.0619257
-0.0537834
0.00339065
-0.00185138
0.00686278
-4.9484e-05
-1.59415e-05
-0.00441465
6.53554e-05
0.0085815
-0.0122244
-0.00175981
-0.0030648
0.00445392
0.00729761
0.00968132
-0.0593471
-0.00467994
-0.000454131
-2.65724e-05
0.00490061
-0.0100072
0.0170837
-0.00872459
0.0065686
-0.0012836
-0.000166262
0.00488235
-0.000348706
0.00790952
0.00610874
-0.00529256
-0.0394294
-0.0155539
0.0290667
-0.00395091
0.00604378
-0.00449134
-0.0084785
-0.0610525
-0.00337965
-0.00979274
-0.0290472
-0.0292251
-0.00386697
-0.0664604
-0.0286848
0.00245861
0.00388377
-0.00199301
-0.000895755
0.00588525
0.0159079
0.000134511
-0.00705274
-0.00223825
-0.000100317
0.000616651
-0.0092954
-8.77485e-05
0.00877572
-0.0019582
-0.0171659
-0.00460204
0.029403
0.000678446
0.0044974
0.00166809
-7.4291e-05
-0.0152614
-7.31896e-05
-0.000477097
-0.000305896
-0.0014041
-0.0626294
0.000700633
0.0219814
-0.0138257
-0.0355963
-0.00464864
-0.00443937
-0.00372621
-0.0453175
-0.0205035
-1.36391e-05
-0.000214629
-0.0674896
0.00918415
0.000223191
0.00688476
0.0409394
-0.000150327
0.00534088
-0.00014518
0.0472169
0.00117609
0.00486003
0.00610114
-0.000328195
-0.000322454
-4.34748e-05
-0.0114175
-0.0320765
-0.051105
-0.0128334
0.00908957
-2.51608e-05
0.0060641
3.99553e-06
-0.00119562
-0.000235276
-0.000425399
-0.00327183
-0.000137161
-0.00574061
-0.0674869
-0.000921418
-0.0512355
0.0105641
-0.000252228
-0.00114325
-0.0088076
0.000399165
-0.00052916
7.11781e-06
-0.0112398
0.00694412
2.57818e-05
-0.000187159
-0.00115638
0.00345744
-0.00363097
-0.0573358
0.000862094
0.000131835
-0.00253005
0.00481548
0.0150126
-0.00393314
-0.00161721
-0.053758
-0.000241314
0.00920784
0.00546156
0.00485536
0.000486594
0.00783045
0.00489213
0.0315678
0.00851766
-1.74358e-05
0.000572522
0.000174978
-0.00349713
0.00234862
-0.0255422
0.000901535
0.00534902
-2.80605e-05
-0.0150598
0.00635555
-0.000265873
-0.0101906
-4.51332e-05
-0.0065763
-0.0300631
-0.00234858
0.0447258
-7.02026e-06
-0.00522873
2.61687e-06
0.00553798
-0.061032
-0.000869234
0.032418
-0.00304081
-0.00974012
-0.000264748
7.34443e-06
-0.00456345
0.00761028
-8.50658e-05
-7.71697e-06
0.00817699
0.0290003
0.00372343
0.00648882
0.000788204
-0.0268186
0.00776038
-0.00942635
-7.35534e-05
-0.0257929
-0.0142168
-0.000980132
0.00295414
0.00339502
0.00861566
0.00514563
0.00347493
-0.000442556
-0.00028877
0.0417137
0.00697214
-0.000256156
0.00605197
-0.0152601
0.00414873
0.00471533
-0.00818789
-0.0018389
-5.3949e-05
-3.59275e-05
0.00740079
-8.41631e-06
-0.00959496
0.0112739
-0.00607469
-0.00061687
0.00038344
0.0103976
-0.00947591
-0.0190322
-0.000109376
-0.0312491
-0.000945419
-0.0085006
-0.0025612
-0.000163905
-1.04254e-05
-0.000113592
-0.0154956
6.40113e-05
-0.000169607
0.00534072
-0.0169575
-0.0514007
-0.00020807
-5.45672e-05
0.00387261
6.8287e-05
-0.0160517
0.00570556
0.00138453
-0.00514221
-0.00143857
-0.00413456
0.0157668
-0.000854328
0.00388356
-0.000109765
-0.00591806
0.0153595
-0.0287723
0.00758539
-0.0263373
6.77062e-05
-0.00632256
-0.000707488
-0.0358114
-8.81222e-06
0.00520873
0.000135554
0.00589789
-0.000331773
-0.000286379
-0.00328607
-0.0530625
0.0150433
-0.0494894
0.00396814
0.0039538
-0.00480802
0.000142768
-0.0168109
-4.80262e-05
-3.13769e-05
-0.00268362
-0.00297299
7.39494e-05
0.00529162
0.000152716