/*--------------------------------*- C++ -*----------------------------------*\
  =========                 |
  \\      /  F ield         | OpenFOAM: The Open Source CFD Toolbox
   \\    /   O peration     | Website:  https://openfoam.org
    \\  /    A nd           | Version:  9
     \\/     M anipulation  |
\*---------------------------------------------------------------------------*/
FoamFile
{
    format      ascii;
    class       surfaceScalarField;
    location    "55";
    object      phi;
}
// * * * * * * * * * * * * * * * * * * * * * * * * * * * * * * * * * * * * * //

dimensions      [0 3 -1 0 0 0 0];

internalField   nonuniform List<scalar> 
167688
(
-0.0422283
0.0254522
0.0167761
0.00803273
-0.0735544
0.0655217
0.0355456
0.0488556
-0.0844013
0.0390099
-0.0856656
0.0466558
0.0992191
-0.0900207
-0.00919844
-0.0730366
0.0130972
0.0599394
0.0419543
-0.0246838
-0.0172705
-0.039012
0.0780218
-0.12465
0.0422236
0.0824262
-0.0261334
-0.00371872
0.0298521
-0.0516838
0.0597165
-0.0616885
0.0349536
0.0267349
0.116688
-0.0892005
-0.0274879
-0.0464552
-0.0152333
-0.0373258
0.0169802
0.0203455
0.0425845
0.0309422
-0.0735266
0.0189019
-0.0026711
-0.0162308
0.0211704
-0.0259591
0.00478876
0.0300803
0.0389091
-0.0689894
0.108387
-0.0663516
-0.0420354
-0.0803104
-0.0231004
0.103411
0.045044
0.0525796
-0.0976236
0.0625989
-0.0325186
-0.0890163
0.0646952
0.0243211
0.0931633
-0.0133102
-0.0798531
-0.0771446
0.0284113
0.0487333
0.0124256
0.0103767
-0.0228023
0.0718211
-0.0802076
0.00838654
-0.0911649
0.0181283
0.00152612
-0.0818366
0.0117402
0.0691953
-0.0809355
0.0613166
-0.0580253
-0.00329131
0.134378
-0.119721
-0.0146567
-0.00663784
0.00626867
0.00036917
-0.0709039
-0.0537459
-0.116304
0.0761761
0.0401277
0.0526021
0.0557848
0.00443809
-0.0141102
0.00967213
0.0269754
0.0383331
-0.0653085
-0.0563581
-0.0360133
0.0923714
0.0346879
-0.0911822
0.0564943
-0.0639017
0.0142893
0.0496124
-0.0745463
-0.0108458
0.085392
0.0652696
-0.029724
0.0411151
-0.0199448
0.0404165
-0.0671982
0.0267817
-0.00368251
-0.00295533
-0.116124
0.00510344
0.111021
-0.0992301
0.0369016
0.0623285
-0.00215825
-0.0617435
0.0703703
-0.0288096
-0.0415607
-0.0264656
0.0234743
0.00299135
0.0879529
-0.0870759
-0.000876994
-0.0552646
0.08224
0.00632056
-0.0701557
0.0638351
0.0227913
0.019163
-0.0804514
0.0549499
0.0255015
0.0799587
-0.0324156
-0.0475431
-0.0344229
0.00426762
0.0301553
0.0726248
-0.0322084
0.0085356
0.0326202
-0.0411558
-0.0487419
-0.0673823
0.115906
-0.033639
-0.0822673
-0.00115694
0.117063
-0.00718316
-0.0295592
0.0367423
0.125718
-0.072914
-0.0528044
0.0143117
-0.00987361
0.111074
-0.0889736
-0.0221009
-0.0612387
0.0054056
0.0558331
-0.0853637
-0.0152217
0.100585
0.0559722
0.0239865
-0.00413571
0.00229157
0.00184414
-0.0620328
-0.0269835
-0.0268998
0.0212551
0.00564477
-0.0121517
0.0411193
-0.0289676
-0.00941994
0.0124075
-0.00298751
0.0903556
-0.00565174
-0.0847038
-0.019437
0.0463921
-0.0237501
-0.0226419
-0.0590394
0.0037748
0.0156968
0.0659177
-0.0816145
-0.00217512
-0.00724482
0.0480782
0.0222921
-0.0646469
-0.0124977
0.110942
-0.0683575
0.0157879
-0.0700325
0.0542446
0.0719186
-0.0508018
-0.0211167
0.0670068
-0.0606862
-0.00269649
0.00182972
0.000866773
-0.0665073
0.0845344
-0.0180271
0.134788
-0.0576479
-0.0771404
-0.0500149
-0.0662888
0.0353847
0.0365339
0.0283037
0.0709155
0.0342746
-0.0464263
0.118487
-0.0281314
0.0747208
-0.0498872
-0.0248337
-0.0281817
-0.00914407
0.0787696
-0.0670294
-0.0673763
-0.0130751
0.0589121
0.0577762
0.108393
-0.105092
-0.00330131
-0.0912722
0.0647338
0.0265384
0.0632843
-0.102665
0.0393808
-0.00749275
0.0369224
-0.0294297
-0.0156255
0.00324762
0.0123779
-0.0484423
0.0412592
-0.0582698
0.0940591
-0.0357893
0.0747785
-0.111665
0.0368865
-0.0640174
0.0798054
-0.000723442
-0.00341227
-0.0457988
0.0462838
-0.000485078
0.0450839
0.0318668
-0.0769506
-0.0723941
0.047002
0.0253921
-0.0754705
0.0142318
-0.0576527
0.0202151
0.0374376
0.0424296
-0.00488237
-0.0375473
0.00454514
-0.0705944
0.0660492
-0.00216811
-0.000528388
-0.127006
0.0894235
0.0375828
0.0510296
-0.0822727
0.0312431
-0.00811358
0.0799347
-0.0399144
0.013781
0.0602131
-0.084646
0.0244329
-0.0534733
0.0881613
-0.0199632
0.0832476
-0.00189392
-0.0176835
0.0195775
0.00157798
0.0641955
-0.0657735
-0.0856733
0.0225235
0.0631497
0.0326
-0.0400927
-0.0289894
0.0892025
0.0303505
-0.0179249
0.0208058
0.074458
-0.0952637
0.0208942
-0.00436261
-0.0165316
-0.0166514
0.0549845
-0.101503
0.0451448
0.126139
-0.0900259
-0.0361132
0.103053
-0.0745107
-0.0285422
-0.0447178
-0.0274705
0.0721883
0.0505475
-0.0101042
-0.0404434
0.0399549
0.063098
-0.0522076
0.0521474
6.01303e-05
-0.0678641
-0.00341693
0.071281
-0.00835723
0.0132546
-0.00489733
0.020061
-0.0783308
-0.0696167
0.0388522
0.0307645
0.0239838
0.00547823
-0.0294621
-0.116976
0.0374776
0.0794988
0.0732456
-0.0687004
-0.0835611
0.0873737
-0.00381261
-0.0163288
0.00070333
-0.0358243
0.0808683
-0.0365716
0.051402
-0.0148304
0.00438398
0.083569
-0.0874892
0.0427715
0.0706484
-0.0350098
-0.0356386
-0.0864085
0.0749616
0.0114469
-0.0254316
-0.0469625
-0.036642
0.00221909
0.0375432
-0.00235407
-0.0351891
0.0977588
-0.0526749
-0.121558
0.0814579
0.0400996
0.00667214
0.0459835
-0.0526557
-0.073318
0.0364939
0.036824
-0.0852659
0.0927867
-0.0075209
0.0844922
-0.00550631
-0.0789859
0.0522065
0.00505195
-0.0572585
0.022568
0.0387487
-0.087949
0.00817052
0.0797785
-0.0563858
0.0604063
-0.00402056
0.0177739
0.0426835
-0.0604573
0.0651847
0.00546375
0.0887261
-0.082054
-0.0187059
0.0103487
-0.0160652
-0.0477167
0.0637819
-0.0452815
-0.0817248
-0.091198
-0.00803213
0.121427
-0.0299847
-0.0914426
0.0652023
-0.0504586
-0.0147437
0.000785836
-0.0763737
0.0755878
-0.0522773
0.0362122
0.081175
0.0211082
-0.102283
-0.113423
0.0119988
0.101425
0.0722009
-0.102156
0.0299556
-0.0721714
0.0441117
0.0280597
-0.0455126
0.0329848
0.0125278
-0.0668281
-0.0547294
-0.00369076
-0.0815751
-0.0740448
0.0061807
-0.0694646
0.0194284
0.0500362
0.0105563
0.049488
-0.0600443
0.0850277
0.04935
-0.107136
0.0406289
-0.0199891
0.0710187
0.100982
-0.047997
-0.0529848
-0.138867
0.0966601
0.0422073
0.0584861
-0.0675105
0.00902444
-0.00515183
-0.0406469
0.101407
-0.0435881
-0.057819
-0.0293434
-0.0570651
0.00138041
-0.0133321
0.0119516
-0.0179587
0.0422824
-0.0243237
-0.0284131
0.0369487
0.0284257
-0.0812225
0.0527967
-0.0899352
-0.0209737
0.110909
-0.0347331
-0.0229195
-0.0194463
0.00432548
0.0151208
0.0199225
-0.0444139
0.0244913
0.029093
-0.0101911
0.0730701
0.0166209
-0.0896909
-0.0985233
0.074769
0.0237543
0.111408
0.00275432
-0.114163
-0.0153147
0.0392985
-0.0182021
0.0806337
-0.00591293
-0.0202927
0.0402152
0.0554143
-0.0376404
-0.0565851
-0.00549259
0.0620777
-0.133378
0.0432837
0.0900941
0.0839677
-0.0305671
-0.0534006
-0.105055
0.0216388
0.0834162
0.0188173
-0.0435455
0.0247282
0.0951036
0.0306147
-0.00801542
0.0455586
0.06311
-0.0130585
-0.0500514
-0.111343
0.023394
0.0155543
0.0928389
-0.0183232
0.047112
-0.0287887
-0.0419144
0.0701793
-0.0282649
0.0742249
-0.103776
0.029551
-0.111597
0.0399427
0.0716546
-0.0719301
-0.0614477
-0.0424457
-0.0297257
-0.114876
0.0489649
0.0659107
0.029595
-0.00034725
-0.0292478
-0.0951651
0.0361614
0.0590037
-0.0845108
-0.0543566
-0.0354212
-7.03363e-05
0.00040549
-0.000335154
-0.00181619
-0.00453861
0.0063548
-0.0603637
-0.0223527
0.0827164
-0.0379492
0.0489565
-0.0110073
0.112013
-0.080127
-0.0318862
-0.118195
0.0578318
-0.0165518
-0.0660702
0.0826221
0.0395746
-0.00997951
0.0666836
0.00963542
-0.076319
0.0300608
-0.0638802
0.0338193
0.120952
-0.0596393
-0.0613131
0.0212753
0.0626925
0.0245811
0.0354438
-0.0600249
0.100716
-0.019541
0.0115509
-0.0107427
-0.000808198
0.0919366
-0.0367027
-0.0552339
0.00223107
0.056255
0.00167798
-0.0852391
0.0584306
-0.0478744
-0.0908939
0.00522063
0.0108809
-0.00305281
-0.00782806
-0.0191161
0.0838498
0.0562428
0.00686718
0.0297459
-0.0287925
-0.000953395
0.0224205
0.0620717
-0.0160338
-0.0294788
-0.00297471
-0.0132497
0.0162244
-0.0770449
0.00758028
0.000352106
-0.0902873
0.0447884
0.0766389
-0.00974567
-0.0325498
0.0422954
0.0427513
0.0683231
0.0634685
-0.0388875
-0.0277078
-0.0183754
0.0460832
0.0684098
0.0329973
-0.0331619
0.00669623
0.0332439
0.0417059
-0.0749499
0.015828
0.0100955
-0.0259235
0.0284712
0.0196631
-0.0481342
-0.000262014
0.00023215
2.98636e-05
-0.000242762
-1.92522e-05
0.00256747
0.00898344
-0.00214466
0.0769231
-0.0812942
0.0661772
0.015117
-0.0225971
-0.0151396
0.0377367
0.0550236
-0.0625239
0.00750034
0.101402
-0.0836731
-0.0177286
0.0323334
0.0328688
0.100963
-0.0263988
-0.0745643
0.121857
-0.031093
-0.0907645
0.0830073
-0.0814293
-0.0349404
0.0251947
-0.0967785
0.0510791
0.0456995
0.0100408
0.0593729
-0.0694137
-0.0459231
-0.0301373
0.0760605
0.109869
-0.0558361
-0.0540326
-0.0681143
-0.0467613
0.0574222
0.0439795
-0.0533192
0.0687304
-0.0154112
0.0845109
-0.0836775
-0.000833399
0.100146
-0.0592542
-0.0408923
0.103819
0.0309692
0.106478
-0.0413571
-0.0651207
0.0814675
-0.00926661
0.0243374
-0.0426607
-0.11001
0.102392
0.00761805
-0.0797406
0.0629519
0.0167887
-0.054477
0.0752828
0.00317746
-0.116601
0.0531731
-0.0746413
0.0214682
0.0854455
-0.0522016
0.00069934
-0.0731593
0.07246
-0.0207158
-0.096069
0.0505807
0.0454884
-0.124154
0.0373398
0.0868146
-0.117026
0.0229047
0.0941215
0.00118676
0.0432596
-0.0444464
0.0473305
-0.0285131
-0.0233986
-0.036106
0.0595046
-0.0889069
-0.00625811
-0.103672
0.0724975
0.0311746
0.0957483
0.0043982
-0.0830369
0.0664851
0.0217171
-0.000822892
0.0103613
-0.0310327
0.0206714
0.105043
-0.0205317
0.0684879
-0.00180429
0.0534294
-0.0865318
0.0331024
-0.0156109
-0.0365967
-0.0826056
0.00805939
-0.0587465
-0.0225477
0.078045
0.0480942
-0.0666972
0.0247828
-0.0638774
-0.0143491
0.0782265
0.054438
-0.0120084
0.0668395
-0.000661871
-0.0661776
0.100148
-0.0428825
-0.0572658
-0.0204668
-0.0503737
0.0708405
-0.0202181
0.0944429
0.0511666
0.0458701
-0.0970367
-0.012697
-0.083372
-0.0337603
0.00955847
0.0242018
-0.0098154
0.0111958
-0.0221059
0.020212
0.113256
-0.0200926
-0.109683
0.0858343
0.0238483
-0.108804
0.0414551
0.0673489
-0.029999
0.0600598
-0.124138
0.00716143
0.064998
-0.054458
-0.01054
-0.00785744
-0.0485283
-0.0615631
0.0772599
0.00617085
0.0181657
-0.0243366
0.0106297
0.0260956
-0.0367253
-0.000244629
-0.0240059
0.0242505
0.0131005
0.00446572
-0.0175663
-0.0644371
-0.00215211
0.0665892
-0.0732762
0.00883914
-0.0186008
-0.00775329
0.0263541
-0.0827637
0.0835495
0.12218
-0.123131
0.000951495
0.016531
0.0228941
-0.0394251
-0.0334629
0.0109512
0.0225117
0.0519211
0.0702585
0.0825705
0.0175778
-0.00767525
0.00659197
0.00108328
0.0310863
0.0898661
0.000378696
-0.000449032
-0.0185667
-0.0151936
-0.012405
-0.0365581
0.0489631
0.0798382
0.0266395
0.0493737
-0.0813753
0.0320016
-0.0277853
-0.00813028
0.0359156
0.00643054
-0.0342159
-0.0306093
-0.0131893
0.0437986
0.0180556
0.0060829
-0.0241385
-0.00047166
0.000347074
0.000124586
0.122104
-0.0406493
-0.081455
0.0663142
0.0557902
0.0780114
-0.0804953
0.00248382
-0.0320137
-0.0085594
0.0405731
0.106891
-0.0520262
-0.0548651
-0.0565527
-0.0676017
0.0876356
-0.096937
0.00930132
0.0370587
-0.0205276
-0.0136768
0.0691154
-0.0554386
0.00525629
0.0479168
0.100949
-0.00590401
-0.0950448
0.0209853
0.0799635
0.0019499
-0.058535
-0.0390981
0.016501
-0.0294318
0.0310069
-0.00157506
-0.0352711
1.24056e-05
0.0352587
0.00585121
-0.0753346
0.0694834
-0.0264231
0.0876676
-0.0612445
0.0292181
0.0242454
-0.0534635
-0.0275391
0.000639286
-0.0836982
-0.0130803
-0.0992261
0.0655792
0.0336468
-0.0454
-0.0218512
0.0672512
-0.0164126
0.0133909
0.00302164
-0.0809451
0.054522
0.00461117
0.0251347
-0.00741399
-0.0278571
-0.00416703
0.00453612
-0.000369097
0.0520014
-0.0213733
-0.0306281
0.0218403
-0.0755609
0.0537206
-0.0242653
0.0232938
0.000971476
0.0705752
-0.035849
-0.0347262
0.00408979
-0.0894535
0.106536
-0.0241267
-0.0824094
0.111322
-0.093333
-0.0179893
0.069228
-0.00238848
0.0654342
-0.0897543
0.0243201
-0.0403147
-0.0449214
0.0852361
0.0924108
-0.0269766
-0.0720669
0.0516001
0.0476625
-0.0680073
0.0203448
0.0310539
0.0432562
-0.0743101
0.0529231
-0.0517363
-0.0993947
0.0902869
0.00910781
0.0559759
-0.066839
0.0108631
-0.0156992
0.0260606
0.0792452
-0.110183
0.0309378
0.0629712
0.00216238
-0.0651336
0.0832185
-0.0805272
-0.00269132
0.0896258
0.0113373
0.0641074
0.0120907
-0.0761981
0.00966525
-0.0428468
0.0331815
0.100318
-0.0222622
-0.0780556
0.0327159
-0.0561145
0.0271665
0.0434087
0.0536655
-0.0939802
-0.0582354
0.0276261
-0.0713531
0.00817295
0.0631802
0.0149988
0.0036246
-0.0186234
0.00788166
-0.03274
0.0248583
0.024106
-0.0179352
0.0652652
0.0230314
-0.0882966
-0.00410802
0.069106
-0.00826189
0.00644571
-0.0239059
-0.00229878
0.0262047
0.0618211
0.00228638
-0.0226975
0.0738641
0.0738901
-0.0428362
0.00471907
0.0108445
-0.0155636
-0.0939328
0.00984221
0.0840906
-0.125126
0.113169
0.0119567
-0.0249156
0.00631477
0.00830799
-0.0322139
-0.0927444
0.0288669
0.0201907
-0.0655907
0.0461958
0.00435173
-0.0379859
0.0890539
-0.051068
0.0154087
0.0638365
-0.0137774
0.068801
-0.0114214
0.0648507
0.00335601
-0.00131868
-0.00203733
0.0675347
-0.0850455
0.0175108
-0.0521242
0.0805499
0.0300213
0.0192048
-0.049226
-0.0740789
0.0747783
0.0343118
0.0722243
-0.0587194
-0.0108974
0.0652171
-0.0551763
0.0564784
-0.0683538
0.0118753
-0.00584241
-0.0321068
0.0596308
0.0286541
-0.0882849
0.0689476
0.0100807
-0.0790283
0.0502595
0.00174182
0.0431048
-0.0890279
0.0977414
-0.038175
-0.0595665
0.0144754
0.0731602
0.052247
0.0591615
-0.0835462
0.0121931
-0.0709708
0.00542743
0.0655433
-0.011701
0.0443335
-0.0326325
-0.0268127
-0.0370034
0.0638161
0.131515
-0.0791964
-0.0523188
-0.037162
-0.067893
-0.0877332
0.0916457
-0.00391255
-0.0308627
-0.0861635
0.0230117
-0.00991117
0.000559019
-0.000445996
-0.000113023
-0.0717082
0.0580314
0.0509328
-0.00454068
-0.0167419
-0.049479
0.066221
0.00825603
0.00262484
-0.0205629
-0.0252688
0.0458317
-0.0977324
-0.0110715
0.0536151
0.0583981
0.0489396
0.0825756
0.0893675
-0.0320718
-0.0572957
0.0497954
-0.057574
0.00777855
-0.0307629
-0.0489778
-0.0339325
0.0935633
0.0439301
-0.0342649
-0.0881462
-0.00422426
0.0923704
-0.121407
0.0945159
0.0268914
-0.0877686
0.0142108
0.0735577
0.112408
-0.00253961
0.117556
-0.062377
-0.0551794
-0.0343888
-0.0348014
0.0691901
0.0983169
0.0192395
0.00593418
-0.0940804
-0.00309523
-0.0502239
0.128594
-0.0676733
-0.0609203
-0.0892484
-0.0127915
0.10204
0.140492
-0.0480302
-0.0924622
0.025463
0.0126452
-0.0381082
0.112087
-0.107221
-0.00486574
0.10337
-0.0344225
0.0212655
-0.00920778
0.0226396
-0.0134318
0.0153044
0.0394651
-0.0547696
0.0440855
0.0672368
-0.000771637
0.010274
-0.00950233
-0.0731612
0.0830952
-0.00993399
0.0457888
-0.11895
0.103683
-0.0143156
0.0166347
-0.0119156
-0.0154937
-0.0374004
0.0528941
0.0904795
-0.0266893
-0.0637901
-0.0195682
-0.0414318
0.061
0.0635408
0.0583166
-0.0902738
0.0853852
0.00488863
-0.0264833
-0.0219564
0.0484397
-0.000261421
0.0261698
-0.0259084
-0.0951885
-0.0184581
0.113647
-0.018985
-0.000461346
-0.0966765
0.00894329
0.111407
-0.0810571
-0.03035
-0.0944273
0.0564415
0.0193927
0.0586187
-0.00204314
0.0163279
-0.0142848
-0.0192147
0.01624
-0.11904
0.0566004
0.0624392
0.0608128
-0.0275356
-0.0332772
-0.0279553
0.0775929
-0.0496376
0.00657421
-0.0120717
0.00549752
-0.0983853
0.0863023
0.012083
0.122329
-0.0120928
-0.110236
0.110408
-0.0451428
0.0850869
0.0372418
-0.00515359
0.0117278
0.0381934
-0.0272209
-0.0109725
-0.0711906
0.0189585
0.0522321
-0.0585225
-0.0661908
-0.00499972
0.0380188
-0.0519253
0.0139066
0.0635151
-0.00753916
-0.0165883
-0.0620908
0.0786791
0.0290688
0.00912453
-0.0837786
0.0032946
0.080484
0.038495
0.0346265
-0.0731215
0.0211551
-0.0480171
0.026862
-0.0586906
-0.0627166
-0.0371803
-0.0725023
0.0257389
0.0126541
-0.038393
0.0574555
0.0961888
0.0362065
-0.0283248
0.00343004
-0.00115896
-0.00227108
-0.0954108
0.104829
-0.00941839
0.070527
-0.0951982
0.0246712
-0.0626171
0.0282283
-0.00720414
-0.000471108
0.0208096
-0.111083
-0.0803732
0.0769558
0.0034174
1.73372e-05
0.000214813
-0.0823636
0.0656216
-7.40415e-05
-0.00016872
0.0658655
-0.0186086
-0.0472569
0.0309519
-0.0426529
-0.0693077
-0.000135242
0.0694429
-0.00396921
-0.0263817
0.0303509
0.111576
-0.0299887
-0.0815876
-0.0583329
0.0996842
-0.0413513
0.0729778
-0.009586
-0.0633918
-0.064143
-0.00682772
0.096844
-0.0446375
-0.0296955
0.00543018
-0.0134732
-0.0859215
-0.0451393
-0.0799866
-0.0657636
0.0290404
0.0367232
-0.0197582
0.0826418
-0.0628837
-0.013729
0.0618513
-0.0481223
-0.0137386
-0.0814499
-0.0429161
0.0484581
-0.00554196
0.000616993
0.0374018
-0.0825383
-0.00706517
0.0896034
-0.000142147
0.0565566
-0.0564144
0.0850165
-0.0120387
0.0256227
-0.0591476
0.0335249
-0.0157552
0.127162
0.0687536
-0.0431309
0.0895678
0.0173234
0.0119039
0.0713146
0.0754841
-0.0915248
0.0160407
0.0187274
-0.0724254
0.053698
-0.0482782
0.0883201
-0.0400419
0.0602164
0.0407654
-0.0356371
-0.0453034
0.0809405
-0.0157734
-0.0402328
0.0560062
-0.00198829
0.0584667
-0.00241726
-0.0479968
0.050414
0.0914344
0.000502186
-0.0502223
0.023739
0.0636778
0.0167523
-0.0804301
0.0924755
-0.022326
-0.0701495
0.0385157
-0.0340726
-0.00444318
-0.141556
0.0480101
0.0935454
0.00745163
-0.0590344
0.0515828
-0.0526581
-0.00533957
0.0579976
0.0120009
-0.0758503
0.0638494
-0.0894986
0.0377019
0.0517967
0.0136984
0.00694037
-0.0206388
-0.112634
0.0288559
0.0946611
0.0885665
-0.038668
-0.0498985
0.0441365
-0.0599099
0.0245542
-0.0465374
-0.00860438
0.0551417
-0.0928524
0.0712706
0.0215818
-0.0408601
-0.0691498
-0.0622991
0.0743
-0.0162717
-0.0729766
-0.0133109
0.0387739
0.106668
-0.0582616
-0.0484069
-0.0819882
0.0472217
0.0347665
-0.0215639
0.0709375
-0.0554913
0.0430863
-0.00658616
-0.00982639
-4.03437e-07
0.0001418
-0.000141397
0.0919718
-0.0635538
-0.028418
-0.00268975
-0.00107278
0.00376253
0.0775028
-0.0188836
-0.0586192
-0.0950342
-0.0240054
0.115718
-0.061555
-0.0541626
0.105988
-0.028485
0.099958
-0.0968871
-0.00307093
0.0583929
-0.0781511
-0.114336
0.0662159
0.0481198
0.0334358
0.0665222
-0.0982459
0.0820862
0.0161597
-0.0280888
-0.0522844
-0.0280998
0.0300145
-0.00191463
-0.0264083
0.0332139
-0.00680565
-0.0154886
0.0145487
0.000939918
-0.00135509
-0.0406405
0.0419956
0.00261293
0.000817113
-0.0439443
-0.0455543
-6.31123e-06
0.00056533
-0.0550632
0.0918344
-0.0367712
0.0388348
-0.077936
0.0391012
-0.0447812
0.04023
0.00455124
-0.0396248
0.0784595
-0.0205794
0.0911064
-0.0732965
0.0324446
0.0408519
-0.0427033
0.0573482
-0.014645
-0.0703999
0.0383861
0.0683525
-0.0149516
-0.0534009
0.0395268
0.0179023
-0.0574291
-0.041368
0.0400129
0.116734
-0.0164163
0.043065
-0.0137493
-0.0293157
0.0693117
0.00720564
-0.0765174
-0.0610375
-0.0291071
0.0901446
-0.0598784
0.013341
0.0299527
-0.033922
-0.0690882
-0.0724673
0.02307
-0.0713482
-0.0721843
0.0565725
0.0156119
-0.0220856
0.0432407
0.0955609
-0.058107
-0.0374539
-6.32977e-05
0.0209823
-0.020919
0.0966252
-0.0467474
-0.0498777
0.112757
-0.0411035
-0.0716533
0.0394313
0.0285136
-0.0679449
-0.0220086
-0.0227726
0.00995682
0.000712859
-0.0106697
0.0926172
0.019702
0.0706669
-0.0903689
0.00444021
-0.0595034
-0.0217992
0.0773836
-0.0555844
-0.0134552
0.0419264
0.103765
-0.0231813
-0.0805837
-0.0582791
0.0403204
-0.0692946
-0.00225596
0.0715505
0.0590143
-0.0946514
-0.0391012
0.0375485
0.0015527
-0.0393193
0.0546237
-0.0261617
-0.0570685
0.0832302
-0.0905696
0.0722923
0.0182773
0.0450085
0.0295914
-0.0745999
0.0463884
0.00716473
-0.0535531
-0.0343456
0.00793734
0.0341052
0.0089598
0.0107954
-0.0200031
-0.0586316
0.0311833
0.0274483
0.0803204
-0.0059247
-0.0743956
0.0389336
-0.0231055
-0.0652682
0.0727199
-0.0794684
0.123927
-0.0444582
0.00161387
-0.04453
0.00848773
-0.0879562
-0.0989503
0.0379128
0.0448975
-0.00404429
-0.0408532
-0.0982459
-0.0860111
0.0694229
-0.000492563
-0.00119034
0.0016829
0.0522779
-0.0784397
0.0492704
-0.0192491
-0.0098492
-0.0480958
0.057945
0.0538228
-0.075622
-0.0661046
0.0586333
0.00747133
-0.0615957
0.0674469
-0.0296381
0.0634946
-0.0338565
-0.0453019
-0.0133297
0.0863819
-0.0645415
-0.0542105
-0.0211456
0.0753561
0.0457604
0.0599699
-0.10573
-0.0876905
0.0518757
0.0358148
0.0293268
0.0457217
-0.0750485
-0.0372963
-0.0581145
0.0539899
0.00306563
-0.0570555
0.0326154
0.0794718
0.0815914
-0.0420646
-0.0342773
-0.0314862
0.00560071
0.0133611
-0.0189618
0.00664065
-0.0877473
0.0811067
-0.044003
-0.000114707
0.0441177
0.087531
-0.0905423
0.00301137
0.00396183
0.0289717
-0.0329336
0.0142936
-0.0163368
0.0357105
-0.088498
0.0527875
0.0518519
0.0255821
-0.0774339
-0.0279927
-0.0863431
-0.00338454
0.017083
0.0667737
-0.0842394
0.0174658
-0.0900377
-3.80258e-05
0.0900757
0.0391158
0.0404574
-0.0795732
-0.0514542
0.0497892
0.00166492
-0.0145645
-0.073204
0.0100476
-0.0119038
0.0018562
0.0563424
-0.00995396
0.0242706
-0.0182801
-0.0059905
0.0827784
-0.0198072
0.0202723
-0.0657717
0.0454994
-0.0681894
0.0155313
0.0984159
-0.0348708
-0.063545
-0.0253519
0.0647832
-0.0558097
0.102609
-0.0467996
0.102392
0.00814073
-0.110533
-0.0657714
-0.00796076
0.0737322
0.00948098
-0.0816653
0.100184
-0.0692613
-0.0309232
-0.0387147
0.0564786
-0.0177639
0.098572
-0.0467201
-0.0592964
0.0789984
0.0362227
-0.0364673
0.0132884
-0.0817813
0.0684929
-0.0903293
0.0245579
0.0189357
-0.0191971
0.0728591
-0.00450657
0.0653221
-0.0349324
-0.0303897
-0.0273652
0.0158074
0.0115578
0.00919966
-0.0099713
-0.0282555
-0.0542828
0.0944808
-0.0693974
-0.0250834
0.0110435
-0.070604
0.0595606
-0.1148
0.0326367
0.0821633
0.0183009
0.0840913
0.0811697
-0.014396
0.0183852
0.0532365
-0.0716218
-0.12833
0.060013
0.0683171
-0.0945962
-0.0337338
-0.0422262
0.0700345
-0.0278083
0.00620942
-0.00634623
0.000136814
-0.0750892
-0.0179427
0.0930319
-0.00464634
-0.06474
0.0693863
0.0375839
-0.0269542
0.00522172
-0.0391863
0.0339646
0.0391342
-0.0391975
-0.120033
0.00523309
0.091356
-0.0726286
0.0118904
-0.0205453
0.0086549
0.0854351
-0.00451167
-0.0809234
0.0386212
-0.0873448
0.0487237
-0.0358025
0.0815332
-0.0457306
-0.125562
0.053169
0.0723933
0.0372499
-0.0320281
0.0419947
-0.117084
0.0350885
-0.0663197
0.0312312
-0.101273
0.064331
0.0369415
0.0556357
-0.0418973
-0.0137384
0.104435
-0.0519642
-0.0524709
0.000725652
-0.0702439
0.0695182
-0.0269414
-0.00652157
0.0907143
0.0130507
0.0306234
-0.0628689
0.0322455
0.0833962
-0.0447751
-0.0304439
-0.0562149
0.0866589
-0.0381774
0.00550805
0.0326693
-0.0709732
-0.054589
0.0758878
0.0196731
0.00551511
0.00114504
-0.00666015
-0.0737439
0.0847874
-0.0654964
0.0234436
0.0420528
-0.0748806
0.0471728
0.00754964
0.0562814
-0.0638311
-0.0423639
-0.0432439
0.0856078
-0.0367554
0.0393013
-0.00254582
0.00612687
0.0814041
-0.0526451
-0.0293431
-0.0598319
0.039269
-0.0424276
-0.0559577
-0.0651209
0.00433083
0.06079
0.0144149
0.0775569
0.0356931
0.0567825
0.0287482
-0.0819229
0.0531747
0.0614672
0.042968
-0.014015
-0.0461924
0.0602074
-0.0801168
0.0312711
0.0488458
-0.0965769
0.0179813
0.0785956
-0.0940119
0.0190372
0.0749747
-0.0414107
-0.0517807
0.0931914
-0.0064225
0.00225547
-0.00692322
-0.0296484
-0.0782785
0.0543865
0.023892
-0.00250593
0.0564958
0.113377
-0.103431
-0.00994614
-0.0454169
0.0741651
0.0343773
-0.0163217
-0.00501016
0.0317892
-0.026779
-0.0310375
0.0975943
-0.0665568
0.0018699
-0.00236246
0.0611164
-0.0696249
0.00850854
-0.105349
0.0710017
0.0343473
-0.0732479
-0.0234782
0.0967261
0.010119
-0.0488337
-0.0687879
-0.00949057
0.0447837
-0.0758212
-0.000112022
-0.000359637
-0.00704736
0.0403601
-0.0333127
0.0969587
-0.0676318
-0.0591733
-0.0420992
0.0679717
-0.0928573
0.0248856
0.00291807
-0.00380289
0.000884813
-0.0498518
-0.0378387
-0.0183254
-0.0265093
0.0448347
0.0456635
-0.0935519
0.0478884
-0.0310932
0.0661817
-0.0716272
0.0791768
-0.0236162
-0.00374895
-0.041413
0.0870766
-0.0773851
0.0122642
0.0867854
-0.07777
-0.00901535
-0.0467181
0.0312979
0.0154202
-0.0817808
0.0950692
-0.00790495
0.0637097
-0.0558047
0.0953104
0.0174463
0.015297
-0.00534017
-0.0438772
0.0787124
-0.0348352
0.0991619
-0.03433
-0.064832
0.0463798
0.00925595
0.0121932
0.0536723
-0.0425092
-0.0628398
0.0200921
-0.09334
-0.0505921
0.0322666
0.0363402
0.106397
-0.00977176
-0.00805766
0.0621552
-0.0540976
0.0704735
-0.0440202
-0.0264533
0.000863548
-0.0435668
0.00496544
0.00981348
-0.0147789
0.00201468
-0.00244396
0.000429287
-0.0666296
0.0642123
0.0517355
-0.0596405
-0.0478312
-0.050692
0.00857323
0.0196019
-0.0281751
0.0567759
-0.0261525
-0.0873154
0.0716576
0.0156578
-0.103124
0.0673211
-0.0204874
-0.0560416
0.076529
-0.0588179
-0.0448541
-0.0915903
0.00495713
0.0866332
0.0908572
0.00830472
-0.0517074
0.0583481
-0.03621
0.00523058
0.0309794
-0.115652
0.0678833
0.0477684
0.113505
-0.0380764
-0.0754285
-0.0620256
0.0180226
0.0760523
-0.0760523
0.0633027
-0.0937466
0.0322133
-0.0172146
-0.0458311
0.0345449
0.0112862
-0.0796241
0.079482
0.00532926
-0.0746238
-0.00765536
0.0133314
-0.00567607
-0.0885778
0.0690095
0.00276845
0.000587551
0.0785107
-0.0127297
-0.065781
0.0884295
0.00998632
0.0687853
-0.0148911
-0.0538942
-0.0935337
0.037724
-0.084375
0.0347815
0.0495935
-0.0171183
-0.0287128
0.0713007
-0.113306
0.0420051
-0.00861366
-0.056425
0.0650387
0.0867545
-0.0770983
-0.00965619
0.0994393
-0.0943502
-0.00508911
-0.02621
-0.002409
0.028619
0.063327
-0.0735223
0.0101953
0.0151979
-0.0572819
0.042084
0.0483331
0.0651717
-0.000110229
0.00631964
-0.0253934
0.00278678
0.0226066
0.0843578
-0.0385974
-0.088133
0.0891002
-0.000967183
0.0652548
-0.109844
0.0445887
0.0749985
0.0337827
-0.108781
0.00758615
0.0761497
-0.0837358
-0.105259
0.0847715
0.0920463
-0.0336382
-0.0584081
0.0925909
-0.0237969
-0.068794
-0.0611945
-0.0279763
0.0891708
0.0326107
0.0591945
-0.0918052
-0.0058307
-0.0708606
0.0766913
0.0863249
0.00206034
-0.0883852
0.132641
-0.0514734
-0.081168
-0.0594236
0.100022
-0.0405986
-0.132041
0.0744657
0.057575
-0.102876
0.0265553
0.0763212
0.0805834
-0.0785493
-0.00203412
-0.0655587
0.0609123
0.0228857
-0.0773132
0.0544275
-0.00613536
0.0774361
0.00011614
-0.0251242
0.025008
-0.035313
0.110311
0.0390032
0.0355883
-0.0745916
-0.0834129
-0.0159926
0.0994055
0.0418905
0.0189223
0.0833512
-0.0646871
-0.0186641
0.129715
-0.0273777
-0.102338
-0.0675361
0.0341231
0.033413
0.0468972
-0.0467691
-0.000128053
0.102259
-0.0313051
-0.0709542
-0.0279506
0.0999838
-0.0720332
-0.0337359
-0.0500434
0.0837793
0.07766
-0.0335483
0.0171504
0.00995183
-0.0271022
0.00611581
0.00363719
-0.009753
0.0467296
0.000272457
-0.0845553
0.0165718
0.0679835
0.0680368
-0.0944341
0.0263972
0.045131
-0.000538416
-0.0445926
-0.0260909
0.0431571
-0.0170662
0.0920795
0.00810489
0.0802581
-0.0445476
0.101346
-0.0510063
-0.0503396
-0.0157656
-0.0236568
0.0394223
0.114134
-0.0597498
-0.0543839
0.0142002
0.0674965
-0.0816967
0.0354046
0.0294414
-0.064846
-0.124143
0.0515471
0.0725955
0.0612759
0.0296723
-0.0909482
-0.092945
0.0367268
0.0562182
-0.00366105
0.00366105
-0.0120395
0.114299
0.000598596
-0.000486743
-0.000111854
0.0272368
0.0570396
-0.0842764
0.0599594
-0.0323283
-0.0276311
-0.0901359
0.0362021
0.0539337
-0.0531029
-0.0464897
0.0995925
-0.051947
0.0545974
-0.00265039
-0.00651028
-0.061723
0.0682333
0.0145929
0.0660408
-0.0806337
-0.0509947
0.0589306
-0.00793592
0.00462797
0.0227376
-0.0273656
-0.0515329
0.0900923
-0.0385595
0.00919123
-0.033875
-0.111801
0.0488622
0.062939
-0.00529642
0.0790602
-0.0737638
0.100531
0.00184222
-0.102373
0.000408759
-0.00160961
0.00120086
0.0182576
0.0459736
-0.0642312
0.0489407
-0.0575544
-0.023526
0.0914977
0.0293671
-0.0529676
0.0236005
-0.0508553
-0.0166808
-0.0274628
-0.0527704
0.0802332
0.0958576
-0.0785381
-0.0173195
0.0265148
-0.0440166
0.0175018
0.0606081
0.0399225
0.0385912
0.0491249
-0.0877161
-0.103918
0.0288861
0.0750316
-0.0498931
-0.0528943
0.102787
-0.0204598
0.0632474
-0.0427875
-0.000496022
0.052852
-0.052356
0.0962114
-0.0504671
-0.0457443
0.0234879
-0.0734897
0.0500018
0.112401
-0.0532729
-0.0591283
0.0798125
-0.0164856
0.0828305
-0.0319397
-0.0508907
-0.110009
0.0439951
0.0660134
0.0522089
-0.101953
0.0497444
-0.0189105
0.00282658
0.016084
0.0830192
-0.00450844
-0.012699
-0.023374
0.0360731
0.076814
-0.0995663
0.0227523
0.0588054
0.0245805
-0.0833859
-0.0101845
0.0279342
-0.0177497
0.0107026
-0.0521819
0.0414793
-0.13375
0.0766391
0.057111
0.072062
-0.0939872
0.0219252
0.0673564
-0.0245904
-0.0427659
0.0482046
-0.0193709
-0.0288337
-0.0566299
0.00370483
0.0529251
-0.0909573
0.0772921
0.0136652
-0.106247
0.0401772
-0.0831471
0.0512217
0.0319253
-0.0598195
0.0620083
-0.00218877
0.0189364
0.00777988
-0.0267163
0.000169185
0.046071
-0.0462402
0.127856
-0.0745167
-0.0533389
0.0679763
-0.0531521
-0.0148242
-0.0125607
-0.00904402
0.0216047
-0.00742629
0.0970643
-0.089638
-0.0690649
0.0311335
0.0379314
-0.0256361
-0.0425324
0.0681685
-0.0767318
-0.0187537
0.0954854
-0.0343886
0.00495679
0.077256
-0.0999815
0.0227255
0.092867
-0.0644555
-0.0284116
-0.081844
0.0880452
-0.00620125
-0.124119
0.0634969
0.0606224
0.0128556
-0.0129747
0.000119065
0.0303715
-0.0246833
-0.00568821
0.0576857
-0.072864
0.0151782
0.0971347
-0.0787523
-0.0183825
-0.00879559
-0.05528
0.0640756
0.0686153
0.0313847
0.0309654
0.00370203
-0.0346675
0.0210586
0.0606051
-0.0816637
0.0374377
-0.0312474
-0.00619028
0.0394811
0.00240882
-0.04189
0.0858011
0.0266001
0.109094
-0.11593
0.00683627
-0.0711107
-0.000587367
0.0716981
0.107747
-0.0108934
-0.0968538
-0.0467954
0.0135309
0.0332645
0.013783
0.0953106
0.0568189
0.00434165
-0.0611606
0.102778
0.00588048
-0.108658
0.0789195
0.015181
-0.0941005
0.047883
0.0244756
-0.0723586
0.0402189
0.028105
-0.0683239
0.00509532
0.0976827
0.0875737
-0.00205438
-0.0855193
0.0982031
0.0095441
-0.0737797
0.0291309
0.0446488
0.0420749
-0.0456105
0.0035356
-0.0374942
0.0341341
0.00336009
0.0646411
-0.0356288
-0.0290123
-0.00859498
-0.00151797
0.010113
0.042991
0.0223311
-0.0600361
0.0402035
0.0198327
-0.0355463
0.0696014
-0.0340552
0.0264718
0.0153059
-0.0417777
-0.103401
0.105082
-0.0016814
-0.0521654
0.0191755
0.0329899
-0.0156397
-0.0626806
0.0783204
0.0381153
-0.0634316
0.0253163
0.0391709
-0.0343134
-0.00485746
0.100227
-0.107635
0.00740842
0.0216568
-0.0226693
0.00101248
-0.0163408
-0.0635449
0.0798857
0.0400626
-0.0835111
0.0434485
0.0401589
-0.0178369
-0.0223221
0.0319128
-0.0459279
0.0568407
-0.088595
0.0317543
0.117516
-0.0182637
-0.0992524