/*--------------------------------*- C++ -*----------------------------------*\
  =========                 |
  \\      /  F ield         | OpenFOAM: The Open Source CFD Toolbox
   \\    /   O peration     | Website:  https://openfoam.org
    \\  /    A nd           | Version:  9
     \\/     M anipulation  |
\*---------------------------------------------------------------------------*/
FoamFile
{
    format      ascii;
    class       volScalarField;
    location    "550";
    object      k;
}
// * * * * * * * * * * * * * * * * * * * * * * * * * * * * * * * * * * * * * //

dimensions      [0 2 -2 0 0 0 0];

internalField   nonuniform List<scalar> 
4000
(
6.11447e-05
5.14481e-05
3.87436e-05
2.83117e-05
2.18996e-05
1.98198e-05
1.90714e-05
1.85063e-05
1.80687e-05
1.75232e-05
1.67287e-05
1.58891e-05
1.67016e-05
1.74e-05
1.8151e-05
1.92991e-05
2.20906e-05
2.7749e-05
3.68698e-05
4.73009e-05
8.16854e-05
7.49159e-05
6.42402e-05
5.09037e-05
3.96174e-05
3.02047e-05
2.43802e-05
2.14697e-05
2.00197e-05
1.91427e-05
1.83204e-05
1.77811e-05
1.81915e-05
1.93331e-05
2.19693e-05
2.73016e-05
3.54374e-05
4.63845e-05
5.82253e-05
6.89051e-05
9.20196e-05
8.78912e-05
7.85987e-05
6.71457e-05
5.45613e-05
4.33551e-05
3.28681e-05
2.50677e-05
2.16182e-05
2.04334e-05
2.02698e-05
1.99123e-05
2.00827e-05
2.21426e-05
2.80746e-05
3.7183e-05
4.87136e-05
6.11979e-05
7.29749e-05
8.13283e-05
9.8132e-05
9.69309e-05
8.9954e-05
7.97024e-05
6.84618e-05
5.69422e-05
4.55506e-05
3.43697e-05
2.61082e-05
2.32525e-05
2.31603e-05
2.36075e-05
2.4885e-05
2.89128e-05
3.78234e-05
5.02011e-05
6.29211e-05
7.47622e-05
8.45136e-05
8.90209e-05
0.00010252
0.00010464
0.000101569
9.5482e-05
8.81191e-05
8.0117e-05
7.15231e-05
6.23179e-05
5.23232e-05
4.25564e-05
3.94493e-05
4.5134e-05
5.23663e-05
5.90728e-05
6.61718e-05
7.43259e-05
8.25148e-05
8.98653e-05
9.48263e-05
9.46174e-05
0.000106254
0.000111998
0.000113821
0.000113075
0.000110999
0.000107939
0.000104001
9.91898e-05
9.35384e-05
8.73913e-05
8.51139e-05
8.93377e-05
9.33953e-05
9.67729e-05
9.97493e-05
0.000102338
0.000104339
0.00010548
0.000104593
9.93349e-05
0.000109958
0.000119468
0.000126068
0.000130197
0.000132693
0.000133677
0.000133206
0.000131244
0.000127693
0.000122808
0.000120769
0.000124198
0.000127079
0.000128474
0.000128331
0.000126869
0.000124124
0.000120046
0.00011379
0.000103595
0.000113983
0.000127495
0.000138625
0.000147149
0.000153664
0.000158185
0.000160609
0.000160816
0.000158582
0.000154275
0.000152164
0.00015543
0.000157269
0.000156715
0.000153765
0.000148912
0.000142302
0.00013384
0.000122763
0.000107955
0.000118931
0.000137353
0.000153445
0.000166425
0.000176866
0.000184734
0.00018998
0.000192363
0.000191386
0.000187333
0.000184969
0.000188224
0.000188893
0.000186316
0.000180585
0.000172323
0.000161786
0.000149011
0.00013312
0.000113335
0.000125302
0.000147295
0.000166578
0.000181931
0.000194548
0.00020486
0.000213043
0.000218925
0.000221921
0.00022131
0.000220365
0.000221178
0.000218195
0.000211959
0.000203223
0.000192412
0.000179462
0.000163937
0.000144349
0.00012033
5.14481e-05
4.6719e-05
3.68837e-05
2.92804e-05
2.50945e-05
2.43422e-05
2.45442e-05
2.46585e-05
2.40619e-05
2.26535e-05
2.10961e-05
1.95434e-05
2.02907e-05
2.11845e-05
2.15029e-05
2.20437e-05
2.44145e-05
3.00577e-05
3.89863e-05
4.56418e-05
7.49159e-05
8.47774e-05
7.52579e-05
5.94112e-05
4.72817e-05
3.92355e-05
3.58355e-05
3.56236e-05
3.59066e-05
3.50873e-05
3.2052e-05
2.90481e-05
2.92722e-05
2.97832e-05
3.0763e-05
3.4657e-05
4.3063e-05
5.68205e-05
7.06424e-05
6.80609e-05
8.78912e-05
9.84105e-05
9.32029e-05
7.97487e-05
6.35687e-05
5.17283e-05
4.43234e-05
4.04725e-05
3.8358e-05
3.7602e-05
3.5863e-05
3.42082e-05
3.45537e-05
3.5656e-05
3.76638e-05
4.41282e-05
5.72826e-05
7.36337e-05
8.58306e-05
8.14759e-05
9.69309e-05
0.00010651
0.000104517
9.37097e-05
7.87635e-05
6.35108e-05
5.17239e-05
4.32378e-05
3.82187e-05
3.6571e-05
3.59171e-05
3.49302e-05
3.50957e-05
3.72987e-05
4.3216e-05
5.47496e-05
7.11479e-05
8.62589e-05
9.502e-05
9.02124e-05
0.00010464
0.000116703
0.000118624
0.000111124
9.84187e-05
8.32476e-05
6.71559e-05
5.35335e-05
4.39704e-05
3.94333e-05
3.86426e-05
4.01726e-05
4.40123e-05
5.04412e-05
6.00569e-05
7.57651e-05
9.0321e-05
0.000101678
0.000105368
9.71207e-05
0.000111998
0.000128152
0.000134588
0.000132224
0.000124708
0.000113597
0.00010013
8.57877e-05
7.41646e-05
6.69613e-05
6.54177e-05
6.96338e-05
7.52591e-05
8.35835e-05
9.62943e-05
0.000107124
0.000114736
0.000119094
0.000116716
0.000103572
0.000119468
0.00014034
0.000151269
0.000154909
0.000155482
0.00015238
0.000146038
0.00013721
0.000126911
0.000115579
0.00011141
0.000119166
0.000128342
0.000136056
0.000140726
0.000142146
0.000140141
0.000136259
0.000128535
0.000110554
0.000127495
0.000154788
0.000171092
0.000181929
0.000190106
0.00019483
0.000196068
0.000193788
0.00018813
0.000180928
0.00017919
0.000184817
0.000188988
0.000189345
0.000185281
0.000177428
0.000166947
0.000155914
0.000142572
0.000118827
0.000137353
0.000170907
0.000197117
0.000218095
0.000235327
0.000247858
0.000255211
0.000256658
0.000250739
0.000238992
0.000233462
0.000241521
0.000246185
0.000244198
0.000234867
0.000220911
0.000203527
0.000183963
0.000161036
0.000128918
0.000147295
0.000174333
0.000198659
0.000218895
0.000236248
0.000251093
0.000263497
0.000273071
0.000278843
0.000279835
0.000279388
0.000278361
0.000272163
0.000261661
0.000248053
0.000232184
0.000214152
0.000193543
0.00016883
0.000140155
3.87436e-05
3.68837e-05
3.21972e-05
2.853e-05
2.74222e-05
2.81514e-05
2.91669e-05
2.97889e-05
2.92029e-05
2.73311e-05
2.53488e-05
2.3201e-05
2.37183e-05
2.49674e-05
2.50369e-05
2.48392e-05
2.5839e-05
2.94722e-05
3.58063e-05
4.01987e-05
6.42402e-05
7.52579e-05
6.89929e-05
5.80634e-05
4.94796e-05
4.42976e-05
4.33075e-05
4.47881e-05
4.64053e-05
4.61038e-05
4.21148e-05
3.78521e-05
3.8549e-05
3.89122e-05
3.83048e-05
3.96704e-05
4.54413e-05
5.63462e-05
6.7219e-05
6.26859e-05
7.85987e-05
9.32029e-05
9.11772e-05
7.98905e-05
6.6338e-05
5.6857e-05
5.17887e-05
5.00419e-05
5.01973e-05
5.06169e-05
4.8643e-05
4.63743e-05
4.65354e-05
4.63805e-05
4.58081e-05
4.93324e-05
6.01907e-05
7.4868e-05
8.45665e-05
7.73753e-05
8.9954e-05
0.000104517
0.00010453
9.52888e-05
8.09698e-05
6.7035e-05
5.75344e-05
5.25851e-05
5.01262e-05
4.94228e-05
4.85825e-05
4.70006e-05
4.64953e-05
4.64699e-05
4.88481e-05
5.76357e-05
7.30227e-05
8.78207e-05
9.52561e-05
8.779e-05
0.000101569
0.000118624
0.000120531
0.00011271
9.8707e-05
8.22889e-05
6.75442e-05
5.58125e-05
4.8521e-05
4.72322e-05
4.70633e-05
4.59064e-05
4.62518e-05
4.98707e-05
5.7918e-05
7.20683e-05
8.91659e-05
0.000102791
0.000107574
9.69478e-05
0.000113821
0.000134588
0.000139938
0.000134835
0.000122291
0.000104807
8.71138e-05
7.22177e-05
6.28446e-05
5.9406e-05
5.86771e-05
5.92931e-05
6.16716e-05
6.78429e-05
7.94273e-05
9.47266e-05
0.00011038
0.000121043
0.000121979
0.000106385
0.000126068
0.000151269
0.000162676
0.000162693
0.000154457
0.000139608
0.000123095
0.000110313
0.000100585
9.32083e-05
9.06642e-05
9.35048e-05
9.78241e-05
0.000103536
0.000111863
0.000125272
0.000136626
0.000142338
0.000137982
0.000116917
0.000138625
0.000171092
0.000194096
0.000206387
0.000209366
0.000206113
0.000196506
0.000184309
0.000170893
0.000159025
0.00015465
0.000159742
0.000164908
0.000168271
0.00017403
0.000178105
0.00017796
0.000172326
0.000157562
0.000128802
0.000153445
0.000197117
0.00024282
0.000283596
0.000314138
0.000333705
0.000344116
0.000345281
0.000334137
0.000310931
0.000299482
0.00031416
0.000325724
0.000324322
0.000309876
0.000288587
0.000259778
0.000223445
0.000183952
0.000143742
0.000166578
0.000198659
0.000227554
0.000252281
0.000273949
0.00029298
0.000309381
0.00032266
0.000331523
0.000334618
0.000335242
0.000331767
0.000321896
0.000307018
0.000288722
0.000268211
0.000245715
0.000220727
0.0001918
0.000158961
2.83117e-05
2.92804e-05
2.853e-05
2.85277e-05
2.98695e-05
3.15769e-05
3.33426e-05
3.45297e-05
3.42253e-05
3.20817e-05
2.96757e-05
2.69607e-05
2.71748e-05
2.88043e-05
2.87352e-05
2.78957e-05
2.74623e-05
2.83961e-05
3.0975e-05
3.27449e-05
5.09037e-05
5.94112e-05
5.80634e-05
5.32802e-05
4.91091e-05
4.76663e-05
4.9156e-05
5.24615e-05
5.57765e-05
5.68366e-05
5.24171e-05
4.6744e-05
4.73397e-05
4.70737e-05
4.47363e-05
4.32084e-05
4.47323e-05
5.00978e-05
5.63659e-05
5.31274e-05
6.71457e-05
7.97487e-05
7.98905e-05
7.27326e-05
6.44459e-05
5.87572e-05
5.6525e-05
5.72621e-05
6.03863e-05
6.34104e-05
6.19012e-05
5.85265e-05
5.72409e-05
5.49409e-05
5.18484e-05
5.15754e-05
5.75191e-05
6.79348e-05
7.49955e-05
6.80113e-05
7.97024e-05
9.37097e-05
9.52888e-05
8.89158e-05
7.7863e-05
6.76839e-05
6.16232e-05
6.00995e-05
6.1075e-05
6.34649e-05
6.27347e-05
5.96687e-05
5.72588e-05
5.48137e-05
5.35106e-05
5.80182e-05
6.95509e-05
8.19221e-05
8.80382e-05
7.96474e-05
9.5482e-05
0.000111124
0.00011271
0.000106441
9.46146e-05
8.08685e-05
6.92104e-05
6.13591e-05
5.90961e-05
6.18181e-05
6.09163e-05
5.65644e-05
5.30481e-05
5.27036e-05
5.74078e-05
6.8289e-05
8.37642e-05
9.69972e-05
0.000102634
9.14968e-05
0.000113075
0.000132224
0.000134835
0.000129382
0.000117309
0.000101812
8.59877e-05
7.36432e-05
6.82617e-05
6.91659e-05
6.7317e-05
6.27373e-05
6.01308e-05
6.26734e-05
7.14064e-05
8.55263e-05
0.000102458
0.000115697
0.000119579
0.000105357
0.000130197
0.000154909
0.000162693
0.000161349
0.000152009
0.000138849
0.000123355
0.000111413
0.000104398
0.000100254
9.5989e-05
9.23829e-05
9.04118e-05
9.20424e-05
9.90323e-05
0.000112607
0.000128482
0.000139756
0.000138204
0.000120155
0.000147149
0.000181929
0.000206387
0.00022213
0.000226792
0.000225077
0.000217619
0.000207169
0.00019398
0.000179477
0.000171148
0.000172589
0.000174319
0.000173928
0.000173848
0.000175682
0.000181442
0.000178626
0.000162308
0.000136057
0.000166425
0.000218095
0.000283596
0.000347866
0.000393347
0.000413981
0.000421635
0.000417734
0.000400145
0.000374434
0.000361859
0.000376063
0.000387653
0.000385809
0.00037235
0.000352696
0.00031356
0.000256226
0.00019908
0.000155252
0.000181931
0.000218895
0.000252281
0.000281596
0.000307932
0.000331873
0.000353075
0.000371067
0.000384377
0.000391364
0.000394573
0.000386515
0.000371266
0.000350613
0.000326663
0.000300729
0.000273431
0.000243986
0.000210943
0.000173977
2.18996e-05
2.50945e-05
2.74222e-05
2.98695e-05
3.23178e-05
3.48423e-05
3.72994e-05
3.91838e-05
3.95271e-05
3.74379e-05
3.44725e-05
3.10547e-05
3.08792e-05
3.2732e-05
3.25535e-05
3.12602e-05
2.9733e-05
2.855e-05
2.78625e-05
2.6567e-05
3.96174e-05
4.72817e-05
4.94796e-05
4.91091e-05
4.91784e-05
5.09184e-05
5.46655e-05
6.00209e-05
6.57504e-05
6.91478e-05
6.48766e-05
5.71061e-05
5.65038e-05
5.48044e-05
5.08251e-05
4.6946e-05
4.46511e-05
4.43614e-05
4.49716e-05
4.21788e-05
5.45613e-05
6.35687e-05
6.6338e-05
6.44459e-05
6.12801e-05
5.94245e-05
5.99856e-05
6.39159e-05
7.13361e-05
7.80522e-05
7.70816e-05
7.17348e-05
6.76897e-05
6.24632e-05
5.69665e-05
5.3302e-05
5.34023e-05
5.74198e-05
6.08494e-05
5.60304e-05
6.84618e-05
7.87635e-05
8.09698e-05
7.7863e-05
7.1865e-05
6.64215e-05
6.42747e-05
6.63803e-05
7.30722e-05
8.06312e-05
7.9445e-05
7.34015e-05
6.75333e-05
6.20602e-05
5.76029e-05
5.69301e-05
6.23418e-05
7.0421e-05
7.50433e-05
6.84463e-05
8.81191e-05
9.84187e-05
9.8707e-05
9.46146e-05
8.65718e-05
7.72441e-05
6.99246e-05
6.78595e-05
7.39585e-05
8.30318e-05
7.97981e-05
7.02817e-05
6.17245e-05
5.66859e-05
5.69153e-05
6.32537e-05
7.44636e-05
8.54845e-05
9.17204e-05
8.37873e-05
0.000110999
0.000124708
0.000122291
0.000117309
0.000109212
9.84548e-05
8.78743e-05
8.18811e-05
8.52162e-05
9.302e-05
8.68852e-05
7.44323e-05
6.48515e-05
6.21753e-05
6.67296e-05
7.71798e-05
9.09538e-05
0.000103995
0.000111481
0.000102245
0.000132693
0.000155482
0.000154457
0.000152009
0.000148995
0.000142073
0.00013289
0.000126729
0.000126385
0.000126342
0.000116511
0.000103879
9.43586e-05
9.06997e-05
9.37223e-05
0.000102977
0.000114856
0.00012814
0.000134203
0.000121118
0.000153664
0.000190106
0.000209366
0.000226792
0.000241722
0.000247941
0.000246571
0.000239854
0.000227878
0.00021161
0.000197913
0.000193584
0.000191239
0.000187198
0.000182073
0.000177683
0.000173812
0.000171025
0.000163446
0.00014074
0.000176866
0.000235327
0.000314138
0.000393347
0.000438708
0.000469162
0.000483726
0.000480806
0.000460374
0.000431791
0.000417949
0.000431429
0.000444171
0.000441117
0.000420332
0.000386257
0.00034599
0.000275586
0.000208858
0.000163675
0.000194548
0.000236248
0.000273949
0.000307932
0.000340044
0.000369679
0.000397081
0.000421856
0.000442347
0.000456236
0.000463909
0.000448206
0.000424585
0.000395893
0.000364515
0.000331759
0.00029831
0.000264179
0.000227133
0.000186044
1.98198e-05
2.43422e-05
2.81514e-05
3.15769e-05
3.48423e-05
3.80617e-05
4.1249e-05
4.40824e-05
4.55701e-05
4.41903e-05
4.04104e-05
3.57859e-05
3.5147e-05
3.68503e-05
3.64308e-05
3.4805e-05
3.25512e-05
2.99746e-05
2.70547e-05
2.31419e-05
3.02047e-05
3.92355e-05
4.42976e-05
4.76663e-05
5.09184e-05
5.50786e-05
6.08996e-05
6.87432e-05
7.77851e-05
8.45102e-05
8.12129e-05
7.00646e-05
6.7027e-05
6.29321e-05
5.73356e-05
5.18568e-05
4.69728e-05
4.27075e-05
3.83872e-05
3.28596e-05
4.33551e-05
5.17283e-05
5.6857e-05
5.87572e-05
5.94245e-05
6.05474e-05
6.40055e-05
7.2101e-05
8.50322e-05
9.61409e-05
9.53038e-05
8.69817e-05
7.9238e-05
7.04511e-05
6.26321e-05
5.66685e-05
5.24746e-05
5.00378e-05
4.81385e-05
4.37953e-05
5.69422e-05
6.35108e-05
6.7035e-05
6.76839e-05
6.64215e-05
6.54216e-05
6.7031e-05
7.42588e-05
8.93551e-05
0.000103415
0.000100423
8.96533e-05
7.89617e-05
6.96002e-05
6.25662e-05
5.77812e-05
5.62676e-05
5.79027e-05
5.97184e-05
5.62895e-05
8.0117e-05
8.32476e-05
8.22889e-05
8.08685e-05
7.72441e-05
7.28484e-05
7.11696e-05
7.74741e-05
9.55302e-05
0.000113377
0.000105431
8.79635e-05
7.3004e-05
6.29221e-05
5.80959e-05
5.85828e-05
6.35342e-05
7.03619e-05
7.65037e-05
7.50106e-05
0.000107939
0.000113597
0.000104807
0.000101812
9.84548e-05
9.36529e-05
9.02795e-05
9.43186e-05
0.000112436
0.000130933
0.000116785
9.26045e-05
7.40794e-05
6.47923e-05
6.38261e-05
6.88488e-05
7.73836e-05
8.71952e-05
9.87827e-05
9.77733e-05
0.000133677
0.00015238
0.000139608
0.000138849
0.000142073
0.000143529
0.000143821
0.000147876
0.000159406
0.000166719
0.00014785
0.000122345
0.000103548
9.33954e-05
9.06889e-05
9.37177e-05
0.000100216
0.000109568
0.000127285
0.000120241
0.000158185
0.00019483
0.000206113
0.000225077
0.000247941
0.000263325
0.000269951
0.000269059
0.000261821
0.000247662
0.000227182
0.000213481
0.00020519
0.000196788
0.000186195
0.000174303
0.000162341
0.000155322
0.000162031
0.000143017
0.000184734
0.000247858
0.000333705
0.000413981
0.000469162
0.000508451
0.000527307
0.000524841
0.000504319
0.00047828
0.000463812
0.000469721
0.000478359
0.00047462
0.000449904
0.000405604
0.000349929
0.000282386
0.000213368
0.000169151
0.00020486
0.000251093
0.00029298
0.000331873
0.000369679
0.000406078
0.000441645
0.000476113
0.000507745
0.000533165
0.000548033
0.000519704
0.000483032
0.000442983
0.000402013
0.000361116
0.000320808
0.000281694
0.000240705
0.000195573
1.90714e-05
2.45442e-05
2.91669e-05
3.33426e-05
3.72994e-05
4.1249e-05
4.53789e-05
4.95621e-05
5.28e-05
5.30239e-05
4.8469e-05
4.13805e-05
4.03365e-05
4.12841e-05
4.02999e-05
3.82819e-05
3.55083e-05
3.20308e-05
2.76327e-05
2.16622e-05
2.43802e-05
3.58355e-05
4.33075e-05
4.9156e-05
5.46655e-05
6.08996e-05
6.90425e-05
8.0036e-05
9.31748e-05
0.000104322
0.00010213
8.6341e-05
7.97153e-05
7.23243e-05
6.48746e-05
5.81762e-05
5.17031e-05
4.50496e-05
3.73863e-05
2.69787e-05
3.28681e-05
4.43234e-05
5.17887e-05
5.6525e-05
5.99856e-05
6.40055e-05
7.12326e-05
8.46018e-05
0.000104048
0.000121243
0.000119533
0.00010585
9.36456e-05
8.0966e-05
7.0628e-05
6.27507e-05
5.60276e-05
4.94488e-05
4.21333e-05
3.31309e-05
4.55506e-05
5.17239e-05
5.75344e-05
6.16232e-05
6.42747e-05
6.7031e-05
7.31949e-05
8.81985e-05
0.000114984
0.000140335
0.000134211
0.000113426
9.55135e-05
8.10128e-05
7.08426e-05
6.33682e-05
5.67239e-05
5.10553e-05
4.70108e-05
4.43227e-05
7.15231e-05
6.71559e-05
6.75442e-05
6.92104e-05
6.99246e-05
7.11696e-05
7.72254e-05
9.50729e-05
0.000130931
0.000167601
0.00015287
0.000118091
9.20765e-05
7.50888e-05
6.45165e-05
5.84602e-05
5.63006e-05
5.68796e-05
6.0072e-05
6.57251e-05
0.000104001
0.00010013
8.71138e-05
8.59877e-05
8.78743e-05
9.02795e-05
9.666e-05
0.000115967
0.000157772
0.000199203
0.000175349
0.000126813
9.28672e-05
7.38641e-05
6.5174e-05
6.30138e-05
6.48001e-05
7.00901e-05
8.41351e-05
9.23649e-05
0.000133206
0.000146038
0.000123095
0.000123355
0.00013289
0.000143821
0.000156001
0.0001749
0.000207812
0.00023815
0.0002098
0.000156956
0.000120676
0.000100177
8.95147e-05
8.48579e-05
8.45008e-05
9.07923e-05
0.000118184
0.000117815
0.000160609
0.000196068
0.000196506
0.000217619
0.000246571
0.000269951
0.000285074
0.000293804
0.000302442
0.000307845
0.000281855
0.000243278
0.00021779
0.000200382
0.000183451
0.000164636
0.000145766
0.000134997
0.000158658
0.000143093
0.00018998
0.000255211
0.000344116
0.000421635
0.000483726
0.000527307
0.000549361
0.000551877
0.000544029
0.000539395
0.000530671
0.000507572
0.000494712
0.00048484
0.000457943
0.000408783
0.000342868
0.000280156
0.000212564
0.000171789
0.000213043
0.000263497
0.000309381
0.000353075
0.000397081
0.000441645
0.000487903
0.000536226
0.000585378
0.000630816
0.000657918
0.000607757
0.000549929
0.000493265
0.000439603
0.000388864
0.000340834
0.000296573
0.000251694
0.000202725
1.85063e-05
2.46585e-05
2.97889e-05
3.45297e-05
3.91838e-05
4.40824e-05
4.95621e-05
5.56092e-05
6.11463e-05
6.37979e-05
5.85758e-05
4.75663e-05
4.64814e-05
4.58484e-05
4.38056e-05
4.11321e-05
3.78481e-05
3.37686e-05
2.84465e-05
2.10665e-05
2.14697e-05
3.56236e-05
4.47881e-05
5.24615e-05
6.00209e-05
6.87432e-05
8.0036e-05
9.49078e-05
0.000112261
0.000129729
0.000127917
0.000105591
9.44491e-05
8.31015e-05
7.32858e-05
6.50914e-05
5.74083e-05
4.93713e-05
3.95261e-05
2.43708e-05
2.50677e-05
4.04725e-05
5.00419e-05
5.72621e-05
6.39159e-05
7.2101e-05
8.46018e-05
0.000104651
0.000133899
0.000173653
0.000174158
0.000134839
0.000112977
9.51869e-05
8.1596e-05
7.12538e-05
6.23464e-05
5.33989e-05
4.2547e-05
2.60158e-05
3.43697e-05
4.32378e-05
5.25851e-05
6.00995e-05
6.63803e-05
7.42588e-05
8.81985e-05
0.000115441
0.000164298
0.000234527
0.000232213
0.000163724
0.000124141
0.000100016
8.42671e-05
7.30721e-05
6.2969e-05
5.18862e-05
4.10395e-05
3.29365e-05
6.23179e-05
5.35335e-05
5.58125e-05
6.13591e-05
6.78595e-05
7.74741e-05
9.50729e-05
0.000131563
0.000204944
0.000305863
0.000300021
0.000194374
0.000131773
9.86651e-05
7.92613e-05
6.59242e-05
5.61806e-05
4.97081e-05
4.8059e-05
5.63412e-05
9.91898e-05
8.57877e-05
7.22177e-05
7.36432e-05
8.18811e-05
9.43186e-05
0.000115967
0.000160614
0.000249953
0.000372092
0.000363867
0.000223874
0.000138751
9.69907e-05
7.573e-05
6.39705e-05
5.77212e-05
5.70454e-05
6.91277e-05
8.63268e-05
0.000131244
0.00013721
0.000110313
0.000111413
0.000126729
0.000147876
0.0001749
0.00021821
0.00030253
0.000425821
0.00041889
0.00026292
0.000164293
0.000117141
9.36134e-05
8.01439e-05
7.33148e-05
7.73812e-05
0.000106971
0.000114016
0.000160816
0.000193788
0.000184309
0.000207169
0.000239854
0.000269059
0.000293804
0.000323085
0.000383873
0.000485419
0.000493038
0.000351197
0.000249617
0.000201891
0.000175148
0.000151474
0.000129813
0.000119884
0.000152722
0.000141049
0.000192363
0.000256658
0.000345281
0.000417734
0.000480806
0.000524841
0.000551877
0.000571639
0.000606258
0.000673072
0.000696487
0.000591556
0.000513058
0.000477371
0.000445384
0.000395488
0.000326073
0.000261986
0.000204732
0.000171439
0.000218925
0.000273071
0.00032266
0.000371067
0.000421856
0.000476113
0.000536226
0.000604349
0.000681351
0.000762308
0.000810663
0.000722663
0.000629538
0.000547865
0.000477097
0.000414363
0.000357659
0.000307929
0.00025946
0.000207214
1.80687e-05
2.40619e-05
2.92029e-05
3.42253e-05
3.95271e-05
4.55701e-05
5.28e-05
6.11463e-05
6.89887e-05
7.20168e-05
6.75376e-05
5.37513e-05
5.26123e-05
4.96565e-05
4.60746e-05
4.24746e-05
3.86428e-05
3.4181e-05
2.84639e-05
2.07219e-05
2.00197e-05
3.59066e-05
4.64053e-05
5.57765e-05
6.57504e-05
7.77851e-05
9.31748e-05
0.000112261
0.000134981
0.000212112
0.000229204
0.00013645
0.000111286
9.46242e-05
8.16059e-05
7.12402e-05
6.21948e-05
5.31826e-05
4.19393e-05
2.35362e-05
2.16182e-05
3.8358e-05
5.01973e-05
6.03863e-05
7.13361e-05
8.50322e-05
0.000104048
0.000133899
0.000197393
0.000376789
0.000436912
0.000214648
0.000142833
0.000111722
9.30348e-05
7.94831e-05
6.82259e-05
5.72396e-05
4.38188e-05
2.25179e-05
2.61082e-05
3.82187e-05
5.01262e-05
6.1075e-05
7.30722e-05
8.93551e-05
0.000114984
0.000164298
0.000282176
0.000536909
0.000637969
0.000310835
0.00017576
0.000123788
9.82045e-05
8.18966e-05
6.8442e-05
5.46641e-05
3.95536e-05
2.45888e-05
5.23232e-05
4.39704e-05
4.8521e-05
5.90961e-05
7.39585e-05
9.55302e-05
0.000130931
0.000204944
0.000375626
0.000693438
0.00083105
0.000416855
0.000212463
0.000130949
9.65338e-05
7.64268e-05
6.08492e-05
4.83569e-05
4.19702e-05
4.68114e-05
9.35384e-05
7.41645e-05
6.28446e-05
6.82617e-05
8.52162e-05
0.000112436
0.000157772
0.000249953
0.00045847
0.000823492
0.000990729
0.000516479
0.000246902
0.000135504
9.36456e-05
7.19812e-05
5.80716e-05
5.22076e-05
6.08701e-05
8.02582e-05
0.000127693
0.000126911
0.000100585
0.000104398
0.000126385
0.000159406
0.000207812
0.00030253
0.000523255
0.000906014
0.00108975
0.000599772
0.000281931
0.000149856
0.000103791
8.11349e-05
6.81038e-05
6.82121e-05
9.32183e-05
0.000109247
0.000158582
0.00018813
0.000170893
0.00019398
0.000227878
0.000261821
0.000302442
0.000383873
0.000584784
0.000941206
0.00110702
0.000681148
0.000340305
0.000209401
0.000165119
0.000138025
0.000115841
0.000107081
0.000145813
0.000137341
0.000191386
0.000250739
0.000334137
0.000400145
0.000460374
0.000504319
0.000544029
0.000606258
0.000739928
0.000971978
0.00108319
0.000815543
0.000576244
0.000470442
0.000419078
0.000367502
0.000299105
0.000234704
0.000192702
0.000168539
0.000221921
0.000278843
0.000331523
0.000384377
0.000442347
0.000507745
0.000585378
0.000681351
0.000801708
0.000941848
0.00102083
0.000876898
0.00072577
0.000606444
0.000512691
0.000435538
0.000369361
0.000314079
0.000262848
0.000208425
1.75232e-05
2.26535e-05
2.73311e-05
3.20817e-05
3.74379e-05
4.41903e-05
5.30239e-05
6.37979e-05
7.20168e-05
7.69697e-05
7.25257e-05
6.27587e-05
5.5922e-05
5.09544e-05
4.61906e-05
4.19473e-05
3.77853e-05
3.32219e-05
2.7561e-05
2.02674e-05
1.91427e-05
3.50873e-05
4.61038e-05
5.68366e-05
6.91478e-05
8.45102e-05
0.000104322
0.000129729
0.000212112
0.000245269
0.000245789
0.000250424
0.000139635
0.000106504
8.86937e-05
7.57069e-05
6.52538e-05
5.53659e-05
4.34356e-05
2.25178e-05
2.04334e-05
3.7602e-05
5.06169e-05
6.34104e-05
7.80522e-05
9.61409e-05
0.000121243
0.000173653
0.000376789
0.000439677
0.00043554
0.000475929
0.000199269
0.000125138
9.88846e-05
8.30482e-05
7.04789e-05
5.82594e-05
4.36263e-05
2.13362e-05
2.32525e-05
3.6571e-05
4.94228e-05
6.34649e-05
8.06312e-05
0.000103415
0.000140335
0.000234527
0.000536909
0.000664527
0.000655414
0.000694577
0.000262905
0.000134297
9.76503e-05
7.98574e-05
6.6e-05
5.24412e-05
3.78243e-05
2.28436e-05
4.25564e-05
3.94333e-05
4.72322e-05
6.18181e-05
8.30318e-05
0.000113377
0.000167601
0.000305863
0.000693438
0.000904177
0.000898561
0.000905511
0.000328641
0.000141894
9.46293e-05
7.44928e-05
5.92968e-05
4.64889e-05
3.83911e-05
3.81403e-05
8.73913e-05
6.69613e-05
5.9406e-05
6.91659e-05
9.302e-05
0.000130933
0.000199203
0.000372092
0.000823492
0.00112853
0.00114173
0.00109337
0.000391547
0.000151673
9.45317e-05
7.23511e-05
5.75794e-05
5.00749e-05
5.66939e-05
7.50565e-05
0.000122808
0.000115579
9.32083e-05
0.000100254
0.000126342
0.000166719
0.00023815
0.000425821
0.000906014
0.00130297
0.00134772
0.0012264
0.000441224
0.000167786
0.000104335
8.04644e-05
6.59736e-05
6.35873e-05
8.46217e-05
0.000104473
0.000154275
0.000180928
0.000159025
0.000179477
0.00021161
0.000247662
0.000307845
0.000485419
0.000941206
0.00139395
0.00147244
0.00127868
0.000487368
0.000215879
0.000154184
0.000127239
0.000105973
9.83109e-05
0.000139204
0.00013271
0.000187333
0.000238992
0.000310931
0.000374434
0.000431791
0.00047828
0.000539395
0.000673072
0.000971978
0.0013806
0.00148447
0.00122219
0.000709879
0.000481493
0.000393202
0.000335372
0.000268975
0.000206846
0.000179216
0.000163788
0.00022131
0.000279835
0.000334618
0.000391364
0.000456236
0.000533165
0.000630816
0.000762308
0.000941848
0.00115173
0.00122251
0.00106416
0.000833404
0.000663251
0.000541602
0.000448903
0.00037349
0.000313139
0.000261129
0.000206136
1.67287e-05
2.10961e-05
2.53488e-05
2.96757e-05
3.44725e-05
4.04104e-05
4.8469e-05
5.85758e-05
6.75376e-05
7.25257e-05
7.249e-05
6.67944e-05
5.53739e-05
4.94755e-05
4.45305e-05
4.018e-05
3.60424e-05
3.16336e-05
2.62861e-05
1.9607e-05
1.83204e-05
3.2052e-05
4.21148e-05
5.24171e-05
6.48766e-05
8.12129e-05
0.00010213
0.000127917
0.000229204
0.000245789
0.000231091
0.000292547
0.000142345
0.000103008
8.56538e-05
7.34016e-05
6.35548e-05
5.40574e-05
4.26758e-05
2.08271e-05
2.02698e-05
3.5863e-05
4.8643e-05
6.19012e-05
7.70816e-05
9.53038e-05
0.000119533
0.000174158
0.000436912
0.00043554
0.000354893
0.000604902
0.000198809
0.000112364
8.98251e-05
7.68738e-05
6.5937e-05
5.45999e-05
4.08889e-05
2.07826e-05
2.31603e-05
3.59171e-05
4.85825e-05
6.27347e-05
7.9445e-05
0.000100423
0.000134211
0.000232213
0.000637969
0.000655414
0.000471196
0.000926142
0.00026282
0.000116779
8.56905e-05
7.13327e-05
5.95173e-05
4.76989e-05
3.53727e-05
2.32521e-05
3.94493e-05
3.86426e-05
4.70633e-05
6.09163e-05
7.97981e-05
0.000105431
0.00015287
0.000300021
0.00083105
0.000898561
0.000591562
0.00122282
0.000331307
0.000120848
8.13223e-05
6.57383e-05
5.38188e-05
4.37935e-05
3.74332e-05
3.59072e-05
8.51139e-05
6.54177e-05
5.86771e-05
6.7317e-05
8.68852e-05
0.000116785
0.000175349
0.000363867
0.000990729
0.00114173
0.000715686
0.00146124
0.000398557
0.000128283
8.13917e-05
6.50636e-05
5.41103e-05
4.88924e-05
5.61045e-05
7.32362e-05
0.000120769
0.00011141
9.06642e-05
9.5989e-05
0.000116511
0.00014785
0.0002098
0.00041889
0.00108975
0.00134772
0.000830959
0.00160369
0.000455708
0.000145621
9.31545e-05
7.54577e-05
6.42893e-05
6.31491e-05
8.43943e-05
0.00010286
0.000152164
0.00017919
0.00015465
0.000171148
0.000197913
0.000227182
0.000281855
0.000493038
0.00110702
0.00147244
0.000925915
0.00160706
0.000523357
0.0001971
0.000144877
0.000123531
0.000104742
9.77468e-05
0.000138247
0.000131036
0.000184969
0.000233462
0.000299482
0.000361859
0.000417949
0.000463812
0.000530671
0.000696487
0.00108319
0.00148447
0.00103941
0.00141317
0.00076408
0.000475535
0.000378894
0.000323517
0.000259116
0.000198277
0.000174827
0.000161832
0.000220365
0.000279388
0.000335242
0.000394573
0.000463909
0.000548033
0.000657918
0.000810663
0.00102083
0.00122251
0.000993914
0.00111541
0.000877135
0.000685929
0.000552061
0.000452516
0.000372874
0.00031009
0.000258688
0.000204513
1.58891e-05
1.95434e-05
2.3201e-05
2.69607e-05
3.10547e-05
3.57859e-05
4.13805e-05
4.75663e-05
5.37513e-05
6.27587e-05
6.67944e-05
5.01872e-05
4.53732e-05
4.3395e-05
4.0068e-05
3.65842e-05
3.30153e-05
2.91215e-05
2.44039e-05
1.85789e-05
1.77811e-05
2.90481e-05
3.78521e-05
4.6744e-05
5.71061e-05
7.00646e-05
8.6341e-05
0.000105591
0.00013645
0.000250424
0.000292547
0.000124518
8.76546e-05
7.69649e-05
6.96721e-05
6.28161e-05
5.59637e-05
4.82884e-05
3.843e-05
1.9082e-05
1.99123e-05
3.42082e-05
4.63743e-05
5.85265e-05
7.17348e-05
8.69817e-05
0.00010585
0.000134839
0.000214648
0.000475929
0.000604902
0.00022641
0.00011648
8.77086e-05
7.63558e-05
6.79966e-05
5.95205e-05
4.96359e-05
3.73364e-05
2.06152e-05
2.36075e-05
3.49302e-05
4.70006e-05
5.96687e-05
7.34015e-05
8.96533e-05
0.000113426
0.000163724
0.000310835
0.000694577
0.000926142
0.000352271
0.000141844
9.06281e-05
7.44383e-05
6.40573e-05
5.42596e-05
4.41429e-05
3.38974e-05
2.44341e-05
4.5134e-05
4.01726e-05
4.59064e-05
5.65644e-05
7.02817e-05
8.79635e-05
0.000118091
0.000194374
0.000416855
0.000905511
0.00122282
0.00048448
0.000161796
8.86043e-05
6.9151e-05
5.83274e-05
4.95385e-05
4.26484e-05
3.95397e-05
4.03475e-05
8.93377e-05
6.96338e-05
5.92931e-05
6.27373e-05
7.44323e-05
9.26045e-05
0.000126813
0.000223874
0.000516479
0.00109337
0.00146124
0.000609634
0.000181461
8.91523e-05
6.81873e-05
5.80623e-05
5.1368e-05
4.98897e-05
6.02092e-05
7.773e-05
0.000124198
0.000119166
9.35048e-05
9.23829e-05
0.000103879
0.000122345
0.000156956
0.00026292
0.000599772
0.0012264
0.00160369
0.000712653
0.000209723
0.000103962
8.17229e-05
7.09386e-05
6.41293e-05
6.65585e-05
9.13492e-05
0.000107283
0.00015543
0.000184817
0.000159742
0.000172589
0.000193584
0.000213481
0.000243278
0.000351197
0.000681148
0.00127868
0.00160706
0.000793206
0.000272947
0.000169904
0.000147143
0.000129846
0.000112773
0.000106133
0.000148284
0.000135956
0.000188224
0.000241521
0.00031416
0.000376063
0.000431429
0.000469721
0.000507572
0.000591556
0.000815543
0.00122219
0.00141317
0.000922507
0.000563588
0.000449255
0.00040371
0.000352266
0.0002855
0.000222549
0.000189005
0.000167246
0.000221178
0.000278361
0.000331767
0.000386515
0.000448206
0.000519704
0.000607757
0.000722663
0.000876898
0.00106416
0.00111541
0.000940569
0.000759162
0.000624048
0.000521413
0.000438578
0.000368775
0.000311468
0.000261131
0.000207758
1.67016e-05
2.02907e-05
2.37183e-05
2.71748e-05
3.08792e-05
3.5147e-05
4.03365e-05
4.64814e-05
5.26123e-05
5.5922e-05
5.53739e-05
4.53732e-05
3.724e-05
3.62599e-05
3.44778e-05
3.20213e-05
2.92019e-05
2.59547e-05
2.19495e-05
1.70014e-05
1.81915e-05
2.92722e-05
3.8549e-05
4.73397e-05
5.65038e-05
6.7027e-05
7.97153e-05
9.44491e-05
0.000111286
0.000139635
0.000142345
8.76546e-05
6.7089e-05
6.20872e-05
5.84669e-05
5.47008e-05
5.00607e-05
4.37902e-05
3.46891e-05
1.78506e-05
2.00827e-05
3.45537e-05
4.65354e-05
5.72409e-05
6.76897e-05
7.9238e-05
9.36456e-05
0.000112977
0.000142833
0.000199269
0.000198809
0.00011648
8.64725e-05
7.63295e-05
7.03379e-05
6.43663e-05
5.69945e-05
4.76292e-05
3.60382e-05
2.18826e-05
2.4885e-05
3.50957e-05
4.64953e-05
5.72588e-05
6.75333e-05
7.89617e-05
9.55135e-05
0.000124141
0.00017576
0.000262905
0.00026282
0.000141844