/*--------------------------------*- C++ -*----------------------------------*\
  =========                 |
  \\      /  F ield         | OpenFOAM: The Open Source CFD Toolbox
   \\    /   O peration     | Website:  https://openfoam.org
    \\  /    A nd           | Version:  9
     \\/     M anipulation  |
\*---------------------------------------------------------------------------*/
FoamFile
{
    format      ascii;
    class       surfaceScalarField;
    location    "550";
    object      phi;
}
// * * * * * * * * * * * * * * * * * * * * * * * * * * * * * * * * * * * * * //

dimensions      [1 0 -1 0 0 0 0];

internalField   nonuniform List<scalar> 
11200
(
0.00244192
-0.00488351
0.00244192
0.00288071
-0.00225944
0.00182099
0.00196274
-0.000114098
0.00103227
0.000658479
0.000832653
0.00047172
-9.9851e-05
0.000485091
0.000273231
-0.000109188
-0.000355084
0.000364438
0.000414241
-0.00107951
0.000556181
0.000988588
-0.00132697
0.000752752
0.0012323
-0.00120344
0.000959847
0.000957483
-0.000887073
0.00116197
0.000200333
-0.000586088
0.00134323
-0.000475917
-0.000665104
0.00134134
-0.000319598
-0.00128173
0.0011255
7.32861e-06
-0.00129909
0.000972273
2.83956e-06
-0.000820669
0.000825224
-0.000605631
-0.00010885
0.000717314
-0.0016845
0.000327816
0.000751094
-0.00265688
-1.15469e-05
0.000984079
-0.00251077
-0.00153828
0.0013925
-0.00442311
0.00191274
0.00235439
-0.00959219
0.00235439
0.00385692
-0.0060103
0.00224847
0.00429797
-0.00244064
0.00188565
0.00377976
-5.97855e-05
0.00141069
0.00243229
0.000933606
0.00089906
0.00111269
0.000503062
0.000461567
0.000414198
-0.000558241
0.000177327
0.000363413
-0.0013602
8.41211e-05
0.000251146
-0.00125527
0.000164185
-0.000165293
-0.000849751
0.000379163
-0.000533498
-0.000877914
0.000660077
-0.000460796
-0.00141653
0.000678836
-0.000552321
-0.00171435
0.000524292
-0.000985272
-0.00125025
0.000384244
-0.00191108
-0.000232034
0.000337275
-0.00310614
0.000608595
0.000477758
-0.0039496
0.000408111
0.000763311
-0.0039159
-0.00116588
0.00112083
-0.0026118
-0.0043221
0.00147991
-0.00892064
0.00188587
0.00154703
-0.0126862
0.00154703
0.00269207
-0.00900647
0.00185118
0.00353355
-0.00514593
0.00186388
0.00384596
-0.00209491
0.00172278
0.00356084
-0.000190177
0.00140894
0.00255833
0.000537729
0.000967919
0.00127713
0.000307911
0.000415173
0.000372809
-0.000449956
-5.82178e-06
6.1241e-06
-0.000691615
-0.000196918
-0.000238929
-0.000516874
-8.78054e-05
-0.000444761
-0.00076065
8.861e-05
-0.000694037
-0.00124296
7.58107e-05
-0.00128594
-0.00109337
-2.89524e-05
-0.00219804
-0.000275783
-6.22461e-05
-0.00320738
0.000623062
0.000154371
-0.00380071
0.000627284
0.000574737
-0.00376538
-0.000632722
0.00100559
-0.00298301
-0.0032533
0.00130516
-0.00163135
-0.00715627
0.0014826
-0.0122211
0.00166914
0.000838365
-0.0143629
0.000838365
0.00114037
-0.0108098
0.00150139
0.00132592
-0.00713982
0.00180837
0.00156631
-0.00431153
0.00197627
0.00171947
-0.00236334
0.00202004
0.00161345
-0.00115076
0.00179453
0.00114609
-0.000546175
0.00132147
0.000505157
-0.000508779
0.000699832
2.54473e-05
-0.000471193
0.000259346
-0.000231517
-0.000297466
3.75713e-05
-0.000518316
-0.000477068
3.25323e-06
-0.00100596
-0.000794996
3.97816e-05
-0.0016337
-0.000626352
0.000160837
-0.00214533
-0.000209727
0.000445657
-0.0022849
-0.000149358
0.000912018
-0.00205379
-0.00100728
0.00140348
-0.00158856
-0.00278091
0.00168301
-0.00104428
-0.00548243
0.0016849
-0.000476196
-0.00929255
0.00156824
-0.0141511
0.0014539
0.000293761
-0.0149504
0.000293761
-0.000114314
-0.0116653
0.00126352
-0.000537192
-0.0084932
0.00177627
-0.000732661
-0.00619478
0.00207873
-0.000757256
-0.00459496
0.00225622
-0.000669449
-0.00352837
0.00228981
-0.000545367
-0.00282046
0.00215022
-0.000511199
-0.00238524
0.00184232
-0.000410695
-0.00207682
0.00150518
-0.000220854
-0.00172287
0.00123567
-0.000118269
-0.00165246
0.00107294
-4.81697e-05
-0.00199816
0.00113319
7.70768e-05
-0.00210113
0.00134961
0.000303039
-0.00213706
0.00170141
0.000602302
-0.00251496
0.00206636
0.000795821
-0.00345976
0.00225898
0.000832254
-0.00500426
0.00218694
0.000703265
-0.00729732
0.00194391
0.000406843
-0.0106216
0.00162554
-0.0149682
0.00122399
-0.0001495
-0.0146514
-0.0001495
-0.0010029
-0.0118607
0.00104883
-0.00170432
-0.00937772
0.00158594
-0.00206467
-0.00770175
0.0018673
-0.00206901
-0.00658602
0.00199539
-0.00178904
-0.00586575
0.00205741
-0.00132185
-0.00538113
0.00209347
-0.000781357
-0.00501989
0.00209415
-0.000246513
-0.00467923
0.00206757
0.000285601
-0.00425688
0.0020019
0.000730298
-0.00405109
0.00195394
0.0011153
-0.00434866
0.00196552
0.00154513
-0.00457645
0.0020455
0.00203862
-0.00479129
0.00216074
0.00243005
-0.00516025
0.00225385
0.0025637
-0.00582904
0.00223564
0.00235885
-0.00692007
0.00212069
0.00182969
-0.00862242
0.00185427
0.00095557
-0.0112689
0.00152143
-0.0149346
0.000921954
-0.000529075
-0.0135932
-0.000529075
-0.00171818
-0.0113896
0.000718003
-0.00261784
-0.00962231
0.00114424
-0.00305149
-0.00857198
0.00130386
-0.00301532
-0.00793716
0.00131495
-0.00261268
-0.00757483
0.00130642
-0.0019566
-0.00735729
0.00132005
-0.00117458
-0.00718901
0.00138709
-0.00038371
-0.00698319
0.00151307
0.000371908
-0.00666452
0.00165201
0.0010305
-0.00642147
0.00171178
0.00168117
-0.00663811
0.00163877
0.00237975
-0.00684131
0.00156627
0.00304436
-0.0070019
0.001546
0.00352211
-0.00720555
0.00156755
0.00366192
-0.00755472
0.00158586
0.00335207
-0.00816706
0.00155684
0.00257533
-0.00925266
0.00140699
0.00131518
-0.0111778
0.00116906
-0.0140412
0.000421873
-0.00107529
-0.0114426
-0.00107529
-0.00259744
-0.00977068
-9.67812e-05
-0.00367081
-0.00867097
0.000122013
-0.00415711
-0.00816943
8.37295e-05
-0.00408045
-0.00794638
-6.74768e-05
-0.00356483
-0.00788743
-0.000203051
-0.00273894
-0.00789808
-0.00028512
-0.00173589
-0.00789428
-0.000297814
-0.000695355
-0.0078018
-0.000221947
0.000265777
-0.00757301
-5.26635e-05
0.00110884
-0.00732841
6.38682e-05
0.00206087
-0.00750924
-8.09115e-05
0.00305572
-0.00766594
-0.000170235
0.00394144
-0.00773931
-0.000148322
0.00455214
-0.00778101
-3.52482e-05
0.00474006
-0.00787004
0.00012739
0.00435573
-0.00811276
0.000330023
0.00337679
-0.0086488
0.000375087
0.00176663
-0.00984817
0.000280544
-0.0119098
-0.000364809
-0.00202591
-0.00739084
-0.00202591
-0.0039295
-0.00643267
-0.00143445
-0.00510995
-0.00600385
-0.0014867
-0.00559021
-0.00596647
-0.00172274
-0.00545915
-0.00606548
-0.002012
-0.00483443
-0.00623265
-0.00227954
-0.00383174
-0.00641911
-0.0024817
-0.00257545
-0.00657422
-0.0025764
-0.00123317
-0.00663407
-0.00251004
2.62504e-05
-0.00655403
-0.00227842
0.00119452
-0.00639722
-0.00209949
0.0025369
-0.00652583
-0.00232582
0.00386867
-0.0065746
-0.00242312
0.00500345
-0.00649505
-0.00237906
0.00577293
-0.00635045
-0.00220006
0.00604477
-0.00620229
-0.00193961
0.00569422
-0.00610699
-0.00165522
0.00460585
-0.00614463
-0.0014158
0.00264378
-0.00659729
-0.00128882
-0.00774957
-0.00151638
-0.00369544
-0.00369544
-0.00608547
-0.00404267
-0.00729946
-0.00478991
-0.00771743
-0.00554855
-0.00749113
-0.00629184
-0.00673876
-0.00698507
-0.00554842
-0.00760949
-0.00399931
-0.00812338
-0.00219686
-0.00843657
-0.000374786
-0.00837614
0.00151745
-0.00828948
0.0035064
-0.00851481
0.00529146
-0.0083597
0.00670958
-0.00791319
0.00766645
-0.00730735
0.00807641
-0.00661227
0.00781985
-0.00585045
0.00672754
-0.00505232
0.00431967
-0.00418942
-0.00342988
0.00182099
-0.00225944
0.00288071
0.00228282
-0.000923397
0.00228282
0.00168402
0.000241723
0.0013895
0.000788618
0.000650719
0.000716461
0.000257849
0.000321353
0.000482628
0.000343142
-0.000336255
0.000615407
0.000798526
-0.000794589
0.000895446
0.00125404
-0.000934841
0.00123216
0.00139664
-0.000799053
0.00161636
0.0010708
-0.000517074
0.00200491
0.000310504
-0.000229524
0.00233299
-0.000356899
-0.000380267
0.00238895
-0.000248698
-0.00106772
0.00208509
2.2404e-05
-0.00110616
0.00180742
-3.28851e-05
-0.000682843
0.0015634
-0.000634504
-0.000110226
0.00142914
-0.00166537
0.000235772
0.00154622
-0.00255637
-0.00012411
0.00199933
-0.00235382
-0.00153774
0.002728
-0.00388583
0.00344513
0.00224847
-0.0060103
0.00385692
0.00377373
-0.00397378
0.00377373
0.00429268
-0.00160669
0.00321526
0.00384864
9.51489e-05
0.00241036
0.0026813
0.000825441
0.00156243
0.00150658
0.000402436
0.000897705
0.000868485
-0.00050284
0.000523747
0.000727011
-0.00113575
0.000426579
0.000542821
-0.00101915
0.000568526
9.20567e-05
-0.000618635
0.000931523
-0.000287991
-0.00057418
0.00138481
-0.000324877
-0.00113123
0.00146678
-0.00052967
-0.00152271
0.00118421
-0.00108434
-0.00110482
0.00093768
-0.00206902
-0.000243786
0.000882994
-0.00331703
0.000471554
0.00114412
-0.0042004
0.000205787
0.00167682
-0.00415927
-0.00138496
0.00234077
-0.00281104
-0.00435283
0.00294697
-0.00816202
0.00335117
0.00185118
-0.00900647
0.00269207
0.00330689
-0.00688514
0.00330689
0.00428765
-0.00410291
0.00337941
0.00457912
-0.00150821
0.00303476
0.00421599
0.000153993
0.00244356
0.00313174
0.000764742
0.00168998
0.00182409
0.000326907
0.000893193
0.000878424
-0.000486025
0.000290217
0.000369685
-0.000733376
2.61035e-05
-8.38073e-06
-0.000476113
0.000147757
-0.000357742
-0.000585473
0.000449293
-0.00073367
-0.00114464
0.000465243
-0.00146863
-0.00110913
0.000292551
-0.00256465
-0.000348748
0.000277817
-0.0037588
0.000498343
0.000606534
-0.00454934
0.00060962
0.00122734
-0.00461717
-0.000629877
0.00190922
-0.00380753
-0.00332492
0.00243559
-0.00225861
-0.00709333
0.00267426
-0.0113384
0.00258697
0.00150139
-0.0108098
0.00114037
0.0024152
-0.00871272
0.0024152
0.00292403
-0.00583794
0.0030346
0.003228
-0.0030282
0.00319233
0.00328736
-0.000939375
0.00305409
0.00298658
0.000267221
0.00259285
0.00220463
0.000564434
0.00186595
0.00120548
0.000224356
0.000988678
0.000406914
-1.02215e-05
0.000334784
-8.31347e-05
8.15157e-06
4.33571e-05
-0.000549999
-0.000157855
4.25062e-05
-0.00124857
-0.000497891
9.16651e-05
-0.0021834
-0.000239839
0.00022645
-0.00308846
0.000373512
0.000628548
-0.00367136
0.000707222
0.00128612
-0.00370271
6.46574e-05
0.00197984
-0.00327495
-0.00186302
0.00248846
-0.00258406
-0.0049623
0.00263145
-0.0015642
-0.00894257
0.00239767
-0.0131693
0.00172072
0.00126352
-0.0116653
-0.000114314
0.00166305
-0.00951176
0.00166305
0.0015776
-0.00665179
0.00267559
0.00136007
-0.00388422
0.00315231
0.00112875
-0.00178326
0.00333144
0.00090575
-0.000462446
0.00324249
0.000571378
0.000191121
0.00285791
0.000115346
0.000304125
0.00221861
-0.000184734
0.000245834
0.00154924
-0.00028101
0.000288671
0.00105144
-0.000444779
0.000205529
0.000873349
-0.000812105
2.8261e-05
0.000974411
-0.00120236
0.000156389
0.0013437
-0.00147743
0.000431422
0.00191861
-0.00153107
0.000287666
0.00253958
-0.00144558
-0.000770064
0.00300824
-0.00140545
-0.00279075
0.00307458
-0.00134111
-0.00589151
0.00280882
-0.00101539
-0.00978481
0.00214211
-0.0138391
0.000878443
0.00104883
-0.0118607
-0.0010029
0.0010572
-0.00952848
0.0010572
0.000577059
-0.00683083
0.00224512
9.42504e-05
-0.00437362
0.00283953
-0.000246342
-0.00256632
0.00311905
-0.000390434
-0.00142044
0.00315951
-0.000391754
-0.000752177
0.0030381
-0.000330447
-0.000442116
0.0027791
-0.000226173
-0.000270385
0.00247955
-4.01997e-05
-7.95078e-05
0.00218414
7.20069e-05
1.43993e-05
0.0020329
9.75112e-05
-0.000171695
0.00214003
0.000127991
-0.000240145
0.0024116
0.000277187
-0.000332226
0.00277522
0.000401651
-0.000736121
0.00315319
0.000297091
-0.00176204
0.0033322
2.13397e-05
-0.00357656
0.00318227
-0.000448897
-0.00627375
0.00270678
-0.000635851
-0.00982939
0.00175301
-0.0136008
4.78034e-05
0.000718003
-0.0113896
-0.00171818
0.000384759
-0.008862
0.000384759
-0.000324332
-0.00651421
0.00153671
-0.000822586
-0.00465773
0.00208621
-0.00103229
-0.00335449
0.00231282
-0.000998903
-0.00252797
0.00238057
-0.000783013
-0.00200291
0.0023549
-0.000483551
-0.00165993
0.00230545
-0.000167237
-0.00136433
0.00229071
0.000153484
-0.00101663
0.00226843
0.000458329
-0.000833557
0.00225491
0.000705291
-0.00103747
0.00225762
0.000966836
-0.00126246
0.00232706
0.00123489
-0.00152951
0.00247523
0.00137175
-0.00198553
0.00268011
0.00126741
-0.00282739
0.00275556
0.00089265
-0.00424044
0.0025955
0.000236061
-0.0062916
0.00208145
-0.000256573
-0.009231
0.00106333
-0.0125809
-0.000854517
-9.67812e-05
-0.00977068
-0.00259744
-0.00073397
-0.00758764
-0.000733971
-0.00155
-0.00580288
0.000226693
-0.00203129
-0.00462236
0.000529639
-0.00212431
-0.00383961
0.000510631
-0.00188963
-0.00337425
0.000408531
-0.00144327
-0.00309873
0.000364324
-0.000902628
-0.00289864
0.000400237
-0.000362574
-0.00266673
0.000540397
0.000133093
-0.00230787
0.000742907
0.000594431
-0.00208637
0.000855344
0.00108183
-0.00231129
0.000705498
0.00159403
-0.00256856
0.000623658
0.00204323
-0.00280359
0.000676548
0.00234514
-0.00310158
0.000778888
0.00235807
-0.0036137
0.000900776
0.00197916
-0.00448016
0.000948649
0.00122534
-0.00580149
0.00063881
0.00034848
-0.00790604
-0.000167539
-0.0106123
-0.00198486
-0.00143445
-0.00643267
-0.0039295
-0.0028026
-0.00485137
-0.0028026
-0.00374864
-0.00387105
-0.00247254
-0.00416229
-0.00337505
-0.00255644
-0.00408078
-0.00309918
-0.00283397
-0.00361252
-0.00296469
-0.00315738
-0.00286576
-0.0029093
-0.00341792
-0.00194767
-0.00287395
-0.00351921
-0.000988536
-0.0027822
-0.00335374
-6.34711e-05
-0.00250952
-0.00300185
0.000773877
-0.00225379
-0.00276944
0.00171636
-0.00255693
-0.00302269
0.00266581
-0.00277533
-0.00316581
0.0035337
-0.0028802
-0.00317036
0.00414536
-0.00297295
-0.00294037
0.00435615
-0.00313787
-0.00262625
0.00403275
-0.0034424
-0.0023696
0.0031052
-0.00398401
-0.00230573
0.00160816
-0.0050802
-0.00261761
-0.00693829
-0.0035822
-0.00404267
-0.00608547
-0.00646838
-0.00646838
-0.00772078
-0.00740861
-0.00816786
-0.00847657
-0.00798808
-0.00957087
-0.00730557
-0.0106323
-0.00619877
-0.0116256
-0.00471819
-0.012478
-0.00288872
-0.0130483
-0.00068794
-0.0130865
0.00175584
-0.0129871
0.0039224
-0.0132383
0.00569968
-0.0129123
0.00705835
-0.0121521
0.00795815
-0.0111801
0.00831802
-0.01011
0.00800274
-0.00897759
0.00680836
-0.00784196
0.00430295
-0.0067642
-0.00606521
0.00103227
-0.000114098
0.00196274
0.0013895
0.000241723
0.00168402
0.00112424
0.000530601
0.00112424
0.000696738
0.000433696
0.000710271
0.000511539
4.04736e-05
0.000627315
0.000742658
-0.000482627
0.000866933
0.0011715
-0.000762957
0.0012296
0.00154762
-0.000814174
0.00167026
0.00160021
-0.000619253
0.00218306
0.001211
-0.000328442
0.00272255
0.000415495
-4.27681e-05
0.00317118
-0.000266426
-0.000243474
0.00331427
-0.00022352
-0.000945807
0.00298804
-5.24778e-06
-0.00102507
0.0026143
-5.29203e-05
-0.00068136
0.00229247
-0.000485113
-0.00026028
0.00212161
-0.00125059
8.3636e-05
0.00222805
-0.00189965
-7.13769e-05
0.00271987
-0.00170705
-0.000939584
0.00347525
-0.00237381
0.00411225
0.00188565
-0.00244064
0.00429797
0.00321526
-0.00160669
0.00429268
0.00371455
-0.000467876
0.00371455
0.00333879
0.000425449
0.00279447
0.0024389
0.000625179
0.00187775
0.00154085
0.000121513
0.0011917
0.00109025
-0.00068182
0.000893276
0.00095501
-0.00112808
0.000875792
0.000751566
-0.000945513
0.00109827
0.000279453
-0.000480949
0.00155616
-0.000109043
-0.000377178
0.00210773
-0.000227205
-0.000917913
0.00225946
-0.000508379
-0.00137974
0.00189943
-0.00107829
-0.00108991
0.00157253
-0.00194334
-0.000427004
0.00149377
-0.00305521
0.000198017
0.0017978
-0.00386895
8.69812e-05
0.00248739
-0.00382727
-0.00110601
0.00333394
-0.0025695
-0.00329267
0.00404249
-0.00590168
0.00430972
0.00186388
-0.00514593
0.00353355
0.00337941
-0.00410291
0.00428765
0.00439368
-0.00249632
0.00439368
0.00469847
-0.000777484
0.00393298
0.00426471
0.000349372
0.00315321
0.00320733
0.000646095
0.00222291
0.00198871
8.01841e-05
0.00134991
0.0011175
-0.000730396
0.00076383
0.000602109
-0.000924092
0.000520122
0.000137214
-0.000508669
0.000640389
-0.00027406
-0.000496461
0.000979869
-0.000722186
-0.00104005
0.00103558
-0.00151624
-0.00113486
0.000841823
-0.00262258
-0.000536646
0.000831006
-0.00385362
0.000208218
0.00120249
-0.00473448
0.000372698
0.00193367
-0.00487083
-0.00063764
0.00277032
-0.00404923
-0.0028999
0.003408
-0.00239575
-0.00582868
0.0035569
-0.00877709
0.00306673
0.00180837
-0.00713982
0.00132592
0.0030346
-0.00583794
0.00292403
0.00382421
-0.00407551
0.00382421
0.00425253
-0.0020678
0.00405438
0.00426002
-0.000397639
0.00379366
0.00378387
0.000546238
0.00316891
0.00280266
0.00064619
0.00228125
0.0016109
0.000118338
0.00133179
0.000660848
-0.000283992
0.000644786
9.35513e-06
-0.000156669
0.000342852
-0.000569818
-0.000246932
0.000372155
-0.00137975
-0.000579751
0.000441353
-0.00248389
-0.000371913
0.00056772
-0.00363929
0.000283019
0.000964382
-0.00450429
0.00069829
0.00166115
-0.00473955
0.0001316
0.00245628
-0.0043411
-0.00162379
0.00307624
-0.00343838
-0.00439277
0.00322167
-0.00202932
-0.00753764
0.00269763
-0.0104654
0.0013798
0.00177627
-0.0084932
-0.000537192
0.00267559
-0.00665179
0.0015776
0.00300706
-0.00473843
0.00300706
0.00300324
-0.00262877
0.00371713
0.00280889
-0.000816167
0.00394435
0.00240795
0.000408512
0.00378118
0.00172728
0.00091809
0.0032667
0.000859491
0.000755313
0.00244946
0.000151645
0.00042136
0.00155175
-0.000256234
0.000368592
0.000934055
-0.000687302
0.000292723
0.000764762
-0.00136722
0.00017041
0.000904198
-0.00214396
0.000417259
0.00133132
-0.00283061
0.000880132
0.0020082
-0.00324522
0.000924827
0.0027277
-0.00330557
-7.32565e-05
0.00327349
-0.00310258
-0.00215986
0.0034077
-0.00265212
-0.00505793
0.00302356
-0.00171862
-0.00822607
0.0018971
-0.0111353
-0.000170283
0.00158594
-0.00937772
-0.00170432
0.00224512
-0.00683083
0.000577058
0.00224524
-0.00473865
0.00224524
0.00190234
-0.00263445
0.00318812
0.0014504
-0.000893497
0.00364834
0.00103598
0.000235317
0.00374714
0.000641093
0.000834522
0.00351657
0.000275303
0.000864301
0.00303593
-2.02016e-05
0.000739303
0.00245713
-0.000188717
0.000773655
0.0019476
-0.000412001
0.000789948
0.00175898
-0.000750743
0.000732979
0.00191623
-0.00108985
0.00085135
0.00231666
-0.00131996
0.00103634
0.00284914
-0.0014851
0.000852771
0.00339041
-0.00168641
-0.000223665
0.00368394
-0.00190648
-0.00223482
0.00347734
-0.0019317
-0.005038
0.00271212
-0.00143226
-0.00813794
0.00116548
-0.0112231
-0.00129656
0.00114424
-0.00962231
-0.00261784
0.00153671
-0.00651421
-0.000324332
0.00136675
-0.00439873
0.00136675
0.000963897
-0.00248387
0.00233849
0.000584132
-0.00104331
0.0028424
0.000277208
-2.45161e-05
0.00294734
0.000130823
0.000447597
0.00288822
3.20865e-05
0.000589519
0.00267898
-4.11034e-05
0.000639345
0.00246388
-6.13217e-05
0.000770976
0.00229134
-0.000110324
0.000869765
0.00222411
-0.00019867
0.000803456
0.0022755
-0.000267712
0.000781327
0.00246614
-0.000287459
0.000752307
0.00277903
-0.00033344
0.000439934
0.00313894
-0.00054725
-0.000544345
0.00329006
-0.000882233
-0.0022506
0.00294629
-0.00117283
-0.00464568
0.00197975
-0.00101698
-0.00742988
0.000199456
-0.0108353
-0.00225924
0.000122013
-0.00867097
-0.00367081
0.000226693
-0.00580288
-0.00155
-0.000165924
-0.00361351
-0.000165924
-0.000476857
-0.00220246
0.000559149
-0.000639999
-0.00117884
0.000809296
-0.000583512
-0.000558369
0.000885893
-0.000416002
-0.000245462
0.000889875
-0.000223275
-0.000103582
0.000900614
-5.38348e-05
3.81355e-05
0.000972171
-1.71684e-05
0.000391693
0.00108553
-5.97495e-05
0.000622024
0.00114567
2.95889e-05
0.00035897
0.00106065
0.000246517
0.000119233
0.00106883
0.000527833
-4.47989e-05
0.00119234
0.000776115
-0.000336196
0.00130674
0.000783106
-0.000981021
0.00133047
0.000503068
-0.00214602
0.00112411
-2.99481e-05
-0.0037959
0.000322068
-6.68357e-05
-0.00631884
-0.00124166
-0.00945982
-0.00342713
-0.0014867
-0.00600385
-0.00510995
-0.00247254
-0.00387105
-0.00374864
-0.00301157
-0.00253547
-0.00301157
-0.00319433
-0.00177148
-0.00280468
-0.00303794
-0.0012656
-0.00290362
-0.00260543
-0.000925554
-0.00322273
-0.00200593
-0.000692513
-0.00357039
-0.00135368
-0.000487352
-0.00378771
-0.000765088
-0.000176434
-0.00372778
-0.000243253
0.000258822
-0.00339083
0.000222095
0.000515484
-0.00312826
0.000805209
0.000144486
-0.00339133
0.00149181
-0.000232655
-0.00350053
0.00224078
-0.000583883
-0.00338026
0.00286279
-0.000871937
-0.00302664
0.00318569
-0.00127185
-0.00265832
0.00312
-0.00183924
-0.00261069
0.00259602
-0.00267644
-0.00290121
0.00152094
-0.00413544
-0.00372592
-0.00646125
-0.00505981
-0.00478991
-0.00729946
-0.00740861
-0.00772078
-0.00867638
-0.00867638
-0.00909286
-0.00983163
-0.00887035
-0.011059
-0.00815851
-0.0122698
-0.00702582
-0.0134509
-0.005488
-0.0145032
-0.00348104
-0.0152317
-0.000926307
-0.0153825
0.00196342
-0.0153614
0.00442121
-0.0155517
0.00635442
-0.0150783
0.00777991
-0.0141615
0.00874508
-0.0130173
0.00916933
-0.0118062
0.00888448
-0.010532
0.00766404
-0.00929797
0.00497475
-0.00821035
-0.0075517
0.00047172
0.000832653
0.00065848
0.000716461
0.000650719
0.000788618
0.000710271
0.000433696
0.000696738
0.000658321
0.000103863
0.000658321
0.000807257
-0.000371117
0.000849503
0.00114633
-0.000668952
0.00119685
0.00157731
-0.000847904
0.00164657
0.00189904
-0.000825061
0.00217363
0.00187313
-0.000577075
0.00278607
0.00139971
-0.000256899
0.00345284
0.000538607
1.70199e-05
0.00401517
-0.000191943
-0.000180232
0.00422496
-0.000237906
-0.000866418
0.00390046
-6.95639e-05
-0.000990511
0.00343653
-6.98753e-05
-0.000742917
0.00303573
-0.000289428
-0.000448162
0.00278932
-0.000686266
-0.000164316
0.0027892
-0.00102741
-2.86435e-05
0.00308969
-0.000903275
-0.000231021
0.00358229
-0.00072923
0.00393847
0.00141069
-5.97856e-05
0.00377976
0.00241036
9.51489e-05
0.00384864
0.00279447
0.000425449
0.00333879
0.0025623
0.000568328
0.0025623
0.00197773
0.000276266
0.00181504
0.00148765
-0.000363182
0.00137608
0.00125621
-0.00098271
0.00125959
0.00117746
-0.00125516
0.00138471
0.000971753
-0.000987023
0.00171396
0.000466596
-0.000446541
0.00225096
2.14009e-05
-0.00029283
0.00286276
-0.000183787
-0.00077213
0.0030566
-0.000516269
-0.00127701
0.0026426
-0.00101308
-0.00115744
0.00223636
-0.00163476
-0.000716011
0.00208862
-0.00241517
-0.000181969
0.00231211
-0.00303946
2.00803e-05
0.00292741
-0.00301161
-0.00048058
0.00375824
-0.00201308
-0.00162977
0.00444293
-0.00303248
0.0046001
0.00172278
-0.00209491
0.00384596
0.00303476
-0.00150821
0.00457912
0.00393298
-0.000777484
0.00469847
0.0042215
-8.62179e-06
0.0042215
0.00380223
0.000475091
0.00337376
0.00289689
0.000322196
0.002443
0.00192479
-0.000350467
0.00168987
0.00121664
-0.00103832
0.00125521
0.000739095
-0.00111737
0.00112807
0.000245323
-0.000600304
0.00128793
-0.000239784
-0.000464625
0.00163678
-0.000730603
-0.000940054
0.00169439
-0.00148201
-0.00114835
0.00146465
-0.00241749
-0.000798179
0.00140732
-0.00346116
-0.000193029
0.00172329
-0.00428187
0.000139222
0.00243333
-0.00445238
-0.000351587
0.00331265
-0.00372524
-0.0017874
0.00398782
-0.00219728
-0.00365681
0.0040561
-0.00549703
0.00333409
0.00197627
-0.00431153
0.00156631
0.00319233
-0.0030282
0.003228
0.00405438
-0.0020678
0.00425253
0.00452486
-0.000949524
0.00452486
0.00453164
3.15439e-05
0.00423048
0.00397417
0.000515817
0.00353283
0.00292984
0.000353146
0.00262207
0.00172794
-0.000255146
0.0017506
0.000768941
-0.000653941
0.0011404
5.35247e-05
-0.000412576
0.000870544
-0.000612177
-0.000343406
0.000916637
-0.00144936
-0.000621057
0.000959577
-0.0025243
-0.000540302
0.00103467
-0.00369799
-2.46466e-05
0.00136463
-0.0046499
0.000400414
0.00201974
-0.00499049
0.000100934
0.00283527
-0.00462154
-0.00111092
0.00346672
-0.00362864
-0.00308663
0.00352807
-0.0021149
-0.00519212
0.00271927
-0.00724543
0.00101335
0.00207873
-0.00619478
-0.000732661
0.00315231
-0.00388422
0.00136007
0.00371713
-0.00262877
0.00300324
0.00392609
-0.00136742
0.00392609
0.00385492
-0.000215873
0.00426298
0.00344604
0.000599306
0.0041066
0.00265386
0.000855324
0.00355674
0.00159442
0.000544778
0.00270901
0.000561364
0.000122818
0.00180807
-0.000206618
0.000100954
0.0011885
-0.000922079
0.000123427
0.00101338
-0.0018314
5.65254e-05
0.00113595
-0.00283831
0.00028738
0.0015106
-0.00374069
0.000749043
0.00213695
-0.00430263
0.000862952
0.00282715
-0.00437188
0.000114336
0.0033294
-0.00396944
-0.0015161
0.00341049
-0.00320742
-0.00365025
0.0028252
-0.00198322
-0.00584987
0.00133069
-0.00841894
-0.000979935
0.0018673
-0.00770175
-0.00206467
0.00283953
-0.00437362
9.42504e-05
0.00318812
-0.00263445
0.00190234
0.00309337
-0.0011779
0.00309337
0.00277508
-2.55812e-05
0.00377637
0.00229374
0.000839206
0.0039886
0.00168932
0.00118651
0.00378984
0.000988844
0.00102229
0.00325891
0.000294543
0.000723794
0.00255048
-0.000268568
0.000688574
0.0019231
-0.000854056
0.000749405
0.00171849
-0.00152274
0.0007686
0.00187285
-0.00215888
0.000959237
0.00228097
-0.00263897
0.00124972
0.00282858
-0.00294022
0.00121498
0.00333966
-0.00305223
0.000350136
0.00356017
-0.00300302
-0.00129045
0.00320253
-0.00261758
-0.00350442
0.00218089
-0.0017133
-0.00587197
0.000283338
-0.00925487
-0.00217387
0.00130386
-0.00857198
-0.00305149
0.00208621
-0.00465773
-0.000822586
0.00233849
-0.00248387
0.000963897
0.00218375
-0.000868401
0.00218375
0.00180158
0.000331342
0.00286766
0.00141833
0.00101027
0.00315955
0.00106203
0.00128755
0.00314349
0.000656168
0.00123225
0.0028749
0.00021451
0.00112439
0.00250496
-0.000210801
0.00121009
0.00219514
-0.000667792
0.00131868
0.00211183
-0.00109419
0.00127781
0.00219269
-0.00141845
0.00131541
0.00243425
-0.00159061
0.00141551
0.00278541
-0.00165979
0.00130732
0.00311581
-0.00181204
0.000622483
0.00316999
-0.00195061
-0.000903838
0.00269827
-0.00178876
-0.00308272
0.00139622
-0.00119075
-0.0055848
-0.000685678
-0.00959306
-0.00311175
8.37295e-05
-0.00816943
-0.00415711
0.000529639
-0.00462236
-0.00203129
0.000559149
-0.00220246
-0.000476857
0.000499445
-0.000748996
0.000499445
0.000473896
0.000137592
0.0010286
0.000381221
0.000805522
0.00118332
0.000319926
0.00107512
0.00116361
0.000233761
0.00116302
0.00105602
7.52102e-05
0.00127434
0.000980773
-0.000223027
0.00157806
0.00101579
-0.000617053
0.00177177
0.0010866
-0.000804895
0.00151069
0.00101562
-0.00078652
0.00131769
0.00104817
-0.000627639
0.0012305
0.00121847
-0.000449368
0.00102503
0.00141077
-0.000293683
0.000352251
0.00144503
-0.00024737
-0.000765393
0.000939366
-0.000358594
-0.00246707
-0.000182335
-4.04549e-05
-0.00510713
-0.00203745
-0.00882548
-0.00423513
-0.00172274
-0.00596647
-0.00559021
-0.00255644
-0.00337505
-0.00416229
-0.00280468
-0.00177148
-0.00319433
-0.0027717
-0.000814986
-0.0027717
-0.00257937
-8.5773e-05
-0.00287261
-0.002177
0.000267016
-0.00308662
-0.00173562
0.00047661
-0.00341328
-0.00129905
0.000664831
-0.00372611
-0.000848769
0.000940539
-0.00384428
-0.000429038
0.00142658
-0.00365909
-0.000143588
0.0017811
-0.00342306
0.000356482
0.00125568
-0.00363641
0.000942912
0.000839544
-0.00360883
0.00155147
0.000574809
-0.00333313
0.00217141
0.000335483
-0.00295705
0.00261415
-5.64192e-05
-0.0026924
0.00280041
-0.000876827
-0.00268552
0.00259527
-0.00191351
-0.00324963
0.00172849
-0.00361858
-0.00434767
-0.00636754
-0.00578924
-0.00554855
-0.00771743
-0.00847657
-0.00816786
-0.00983163
-0.00909286
-0.0102392
-0.0102392
-0.00995396
-0.0114301
-0.00919886
-0.0127579
-0.00802341
-0.0141498
-0.00638199
-0.0154799
-0.00416144
-0.0165118
-0.00118473
-0.0169327
0.00230721
-0.0170723
0.00510547
-0.0170943
0.00719906
-0.0163324
0.00872671
-0.0151144
0.00977934
-0.0137345
0.0102989
-0.0123822
0.01003
-0.0111399
0.00872387
-0.00990537
0.00573795
-0.00884303
-0.00818127
0.000273231
0.000485091
-9.9851e-05
0.000482628
0.000321353
0.000257849
0.000627315
4.04736e-05
0.000511539
0.000849503
-0.000371117
0.000807257
0.00117034
-0.000641641
0.00117034
0.00159552
-0.000850232
0.00162194
0.00203725
-0.000948743
0.00215362
0.00232043
-0.000878546
0.00276903
0.00222004
-0.000608446
0.00349492
0.00162905
-0.000269762
0.00431358
0.00064909
-1.38495e-05
0.0050089
-0.000158793
-0.000157664
0.00519041
-0.000300048
-0.000795918
0.00483767
-0.000186185
-0.000945494
0.00426821
-0.000133313
-0.000808907
0.00379179
-0.000163077
-0.000634646
0.00345374
-0.000262606
-0.000409381
0.00329811
-0.000346212
-0.000168352
0.00334166
-0.000291902
3.82207e-05
0.00348982
0.000144713
0.00350199
0.00089906
0.000933606
0.00243229
0.00156243
0.000825441
0.0026813
0.00187775
0.000625179
0.0024389
0.00181504
0.000276266
0.00197773
0.00162885
-0.00026919
0.00162885
0.00149763
-0.000853734
0.00151088
0.00146746
-0.00128377
0.00162485
0.00144419
-0.00140311
0.00193261
0.00121605
-0.00108161
0.00241529
0.000636811
-0.000498625
0.00305906
5.51837e-05
-0.000298881
0.00372941
-0.000225595
-0.000681447
0.0038612
-0.000580692
-0.00117023
0.00337208
-0.000957694
-0.00120407
0.002872
-0.00130954
-0.000989346
0.00262096
-0.00171035
-0.000601222
0.00267957
-0.00204001
-0.000214459
0.00306225
-0.00200079
-0.000113478
0.0036643
-0.00134901
-0.000353719
0.00418329
-0.000825664
0.00422167
0.00140894
-0.000190177
0.00356084
0.00244356
0.000153993
0.004216
0.0031532
0.000349372
0.00426471
0.00337376
0.000475091
0.00380223
0.00307379
0.000330899
0.00307379
0.0024605
-0.000164682
0.00236734
0.0018224
-0.000855531
0.00189983
0.00130575
-0.00136003
0.00172885
0.000847693
-0.0013046
0.00180915
0.000290966
-0.000732348
0.00207838
-0.000297954
-0.000490123
0.00241694
-0.000811313
-0.000853209
0.00237955
-0.00144691
-0.00112697
0.00205703
-0.0021178
-0.00101937
0.00189358
-0.0028226
-0.000623909
0.00206274
-0.00341877
-0.000167277
0.00259568
-0.00357556
-0.000102013
0.00335715
-0.00305643
-0.000643049
0.00399841
-0.00187492
-0.00156282
0.00408382
-0.00273406
0.00336767
0.00202004
-0.00236334
0.00171947
0.00305409
-0.000939375
0.00328736
0.00379366
-0.000397639
0.00426002
0.00423048
3.15439e-05
0.00453164
0.00422477
0.000342389
0.00422477
0.00369924
0.00033858
0.0035552
0.00276544
-7.23265e-05
0.00277277
0.00172698
-0.000705116
0.00213422
0.000819926
-0.00100242
0.00174531
9.17128e-06
-0.000646472
0.00159542
-0.000744867
-0.000417382
0.00159792
-0.00154298
-0.00062284
0.00152735
-0.00243918
-0.000665981
0.00146993
-0.00339678
-0.000359454
0.00166239
-0.00422691
3.90396e-05
0.00218703
-0.0045889
0.000108732
0.00292137
-0.00431646
-0.000422481
0.00351484
-0.00346004