/*--------------------------------*- C++ -*----------------------------------*\
  =========                 |
  \\      /  F ield         | OpenFOAM: The Open Source CFD Toolbox
   \\    /   O peration     | Website:  https://openfoam.org
    \\  /    A nd           | Version:  9
     \\/     M anipulation  |
\*---------------------------------------------------------------------------*/
FoamFile
{
    format      ascii;
    class       volVectorField;
    location    "550";
    object      U;
}
// * * * * * * * * * * * * * * * * * * * * * * * * * * * * * * * * * * * * * //

dimensions      [0 1 -1 0 0 0 0];

internalField   nonuniform List<vector> 
4000
(
(0.00573453 -0.0118826 0.00573453)
(0.00979146 -0.00361536 0.00474402)
(0.00925343 0.00251001 0.0030079)
(0.00488918 0.00315996 0.00141085)
(0.000392187 0.000378868 0.000674361)
(-0.000853867 -0.00218919 0.000692461)
(0.000342755 -0.00340317 0.00101)
(0.00238199 -0.00375149 0.00137426)
(0.00408664 -0.00339753 0.00181967)
(0.00427367 -0.00263624 0.00231126)
(0.00340176 -0.00131955 0.00276736)
(-0.0017429 -0.000582301 0.00274237)
(-0.00222386 -0.00268638 0.00217713)
(-0.000522507 -0.00330285 0.00177429)
(0.00025722 -0.00251896 0.00141392)
(-0.000693663 -0.00109057 0.00117149)
(-0.00410942 0.00054621 0.00126465)
(-0.00820233 0.000909839 0.00184045)
(-0.00972096 -0.00234147 0.00286854)
(-0.0058445 -0.0100722 0.00415692)
(0.00456336 -0.0266872 0.00456336)
(0.0108296 -0.0150848 0.00487147)
(0.0145994 -0.00403227 0.00441991)
(0.0148408 0.00285593 0.00345619)
(0.0114667 0.00366789 0.00223058)
(0.00615169 0.000443746 0.00105027)
(0.00221761 -0.00357282 0.00018088)
(0.00107572 -0.00533838 -0.000179824)
(0.00118748 -0.00465939 -2.93385e-05)
(0.000216337 -0.00315211 0.000495775)
(-0.00117223 -0.0025594 0.00122383)
(-0.00215674 -0.00384347 0.00128658)
(-0.0016166 -0.00575179 0.000949455)
(-0.0025134 -0.00518772 0.000651039)
(-0.0049229 -0.00251354 0.000564892)
(-0.00904696 0.000793692 0.000887137)
(-0.0129909 0.0020829 0.00151982)
(-0.0144323 -0.00128681 0.00231779)
(-0.0119166 -0.0103127 0.00316668)
(-0.00428703 -0.0244396 0.0042533)
(0.0027124 -0.0401149 0.0027124)
(0.00750838 -0.0274427 0.00372184)
(0.0104348 -0.0142545 0.0039812)
(0.0130847 -0.00384419 0.00394538)
(0.0135709 0.0021221 0.00343027)
(0.0113008 0.00315786 0.00244457)
(0.00696192 0.000461593 0.00102305)
(0.00253573 -0.0031356 -0.000165235)
(0.00033823 -0.00363099 -0.000539659)
(-0.000388024 -0.00240625 -0.000318982)
(-0.0011575 -0.00297933 6.84601e-05)
(-0.00194645 -0.00512008 3.24802e-05)
(-0.00313241 -0.00539516 -0.000209193)
(-0.00599311 -0.0028555 -0.00030625)
(-0.0098441 0.00124019 0.000235958)
(-0.0128888 0.00313662 0.00128167)
(-0.0137724 0.000289749 0.0022434)
(-0.0117399 -0.00804125 0.00278949)
(-0.00842465 -0.0210001 0.00313299)
(-0.00150493 -0.0381915 0.00386542)
(0.00136573 -0.0477289 0.00136573)
(0.0040148 -0.0351423 0.00287635)
(0.00365483 -0.0218495 0.00356593)
(0.00501309 -0.0112657 0.00418513)
(0.00573459 -0.00399822 0.00465765)
(0.00602705 0.000133005 0.00456642)
(0.00506348 0.00148714 0.00378154)
(0.00314372 0.000413606 0.00239326)
(0.000769792 -0.000633416 0.0012413)
(-0.000578717 -0.000967154 0.000485154)
(-0.00126129 -0.00203409 0.000296377)
(-0.00250738 -0.00287209 0.000522281)
(-0.00450978 -0.00136352 0.000988232)
(-0.0069656 0.00134433 0.00168997)
(-0.00825481 0.00286242 0.00271221)
(-0.00779636 0.000699994 0.00365932)
(-0.00636777 -0.00551083 0.00388332)
(-0.00403045 -0.0154107 0.00348895)
(-0.00327937 -0.0292018 0.00315464)
(0.000741448 -0.0466735 0.00343709)
(0.000360986 -0.0514355 0.000360986)
(0.00124861 -0.0394729 0.00217941)
(-0.00187194 -0.0272812 0.00294122)
(-0.00222936 -0.0182889 0.00357818)
(-0.00272746 -0.0120188 0.00410794)
(-0.00251341 -0.00784463 0.00446085)
(-0.00211998 -0.00511731 0.00459091)
(-0.00189303 -0.0035839 0.00446882)
(-0.00151614 -0.00217354 0.00419357)
(-0.0010498 -0.00073602 0.0038108)
(-0.000690032 -0.000781222 0.003424)
(-0.000324725 -0.0021366 0.00347675)
(6.86059e-05 -0.00263027 0.00378821)
(0.000650579 -0.00262207 0.00435127)
(0.00158172 -0.00376724 0.00478916)
(0.0025292 -0.00735256 0.00470364)
(0.00284889 -0.0134053 0.00418632)
(0.00334429 -0.0223266 0.00339653)
(0.00116459 -0.0349507 0.00288332)
(0.00231554 -0.0510876 0.00288778)
(-0.000547615 -0.0519838 -0.000547615)
(-0.000933127 -0.041306 0.00136644)
(-0.00549703 -0.0315658 0.00174987)
(-0.00675158 -0.0247459 0.00195757)
(-0.00742492 -0.0201216 0.00201111)
(-0.00684887 -0.0170904 0.00207771)
(-0.00549538 -0.015052 0.00221073)
(-0.00369822 -0.0136391 0.00243281)
(-0.00172023 -0.0124658 0.00275618)
(-9.6434e-05 -0.0110504 0.00313082)
(0.00190008 -0.0105201 0.00323911)
(0.00317294 -0.0116659 0.00293225)
(0.00463013 -0.0122434 0.0027757)
(0.00626709 -0.0128019 0.00279812)
(0.00786471 -0.0141532 0.00282825)
(0.00887929 -0.0168614 0.00273818)
(0.00874831 -0.0213269 0.00256202)
(0.00801504 -0.0282007 0.00220221)
(0.00408623 -0.0385683 0.00208948)
(0.00346036 -0.0525338 0.00212463)
(-0.00168121 -0.0495555 -0.00168121)
(-0.00289597 -0.0410336 0.000137918)
(-0.00836846 -0.033838 -4.39931e-05)
(-0.0101721 -0.0293278 -0.00036725)
(-0.0108278 -0.0265008 -0.000783369)
(-0.00996039 -0.0248141 -0.00111944)
(-0.00805542 -0.0237612 -0.00132787)
(-0.00549495 -0.0229626 -0.00135632)
(-0.00260777 -0.0220788 -0.00116163)
(-0.000223837 -0.0207907 -0.000795211)
(0.00267342 -0.0199024 -0.000579027)
(0.00456213 -0.0207162 -0.000817855)
(0.00705347 -0.0214638 -0.000954813)
(0.00949294 -0.0221077 -0.000881466)
(0.0115493 -0.0230209 -0.000667204)
(0.0127405 -0.0246377 -0.000387998)
(0.012495 -0.0274042 -6.25439e-05)
(0.0110971 -0.0320337 0.000197152)
(0.00600426 -0.0397865 0.000663524)
(0.00446437 -0.0509438 0.000932089)
(-0.0034241 -0.0432335 -0.0034241)
(-0.00554846 -0.0369866 -0.00195791)
(-0.0117403 -0.0324924 -0.00264198)
(-0.0139993 -0.0302227 -0.00346961)
(-0.0146129 -0.029067 -0.00428862)
(-0.0134746 -0.0286103 -0.00498868)
(-0.0110804 -0.0285223 -0.00552998)
(-0.00783671 -0.0285125 -0.00586253)
(-0.00411328 -0.0282942 -0.00591088)
(-0.000988919 -0.0276346 -0.00567965)
(0.00267781 -0.0268499 -0.0054365)
(0.00532299 -0.0273251 -0.00568288)
(0.00889218 -0.0277146 -0.0056747)
(0.0122439 -0.0278887 -0.00538492)
(0.0149253 -0.028079 -0.00490173)
(0.0164316 -0.0285469 -0.00424601)
(0.0161875 -0.0296608 -0.00345564)
(0.0142554 -0.032033 -0.00263376)
(0.0083153 -0.0369464 -0.00165604)
(0.00593045 -0.0448928 -0.00108149)
(-0.00634494 -0.0321933 -0.00634494)
(-0.0099464 -0.0278538 -0.00585592)
(-0.0165256 -0.0255494 -0.00700764)
(-0.0189957 -0.0249424 -0.00833654)
(-0.01948 -0.0250207 -0.00964305)
(-0.0180656 -0.0254647 -0.0108119)
(-0.0151816 -0.0260403 -0.0117857)
(-0.0112007 -0.0265332 -0.0124714)
(-0.00653836 -0.0267086 -0.0127116)
(-0.00245179 -0.0263661 -0.0123582)
(0.00252836 -0.025907 -0.0119953)
(0.00637321 -0.0262908 -0.0124874)
(0.0111662 -0.0264513 -0.0124326)
(0.0155193 -0.0262007 -0.0118891)
(0.0188894 -0.0257596 -0.0109838)
(0.0208065 -0.0253798 -0.00983726)
(0.0208 -0.0253293 -0.00853127)
(0.0187132 -0.0259591 -0.00716213)
(0.0123675 -0.0284028 -0.00569002)
(0.00862979 -0.0336063 -0.00452021)
(-0.0109125 -0.0201394 -0.0109125)
(-0.0172928 -0.0161014 -0.0123817)
(-0.0240321 -0.01419 -0.014885)
(-0.0264707 -0.0135378 -0.0173035)
(-0.0266678 -0.0132751 -0.0196451)
(-0.0248745 -0.0131583 -0.0218329)
(-0.0214482 -0.0130326 -0.023816)
(-0.0166416 -0.0127658 -0.0254741)
(-0.0107967 -0.0122307 -0.0265401)
(-0.00522719 -0.0114348 -0.0264867)
(0.0024648 -0.0106249 -0.0262855)
(0.00885314 -0.0115166 -0.0268458)
(0.0153679 -0.0123275 -0.0262175)
(0.0209506 -0.0128392 -0.0247361)
(0.0251255 -0.0131384 -0.0227892)
(0.0275973 -0.0133663 -0.0205796)
(0.028 -0.0136946 -0.018178)
(0.0260549 -0.0143929 -0.0156454)
(0.0196361 -0.0163961 -0.0127766)
(0.0131687 -0.0210063 -0.00972351)
(0.00474402 -0.00361536 0.00979146)
(0.00764317 0.00046272 0.00764317)
(0.00739624 0.00292021 0.00456826)
(0.0044738 0.00206806 0.00220029)
(0.00148277 -0.000299385 0.00130671)
(0.000789532 -0.00199342 0.00163876)
(0.00184622 -0.00275629 0.00248121)
(0.00352277 -0.00279527 0.00342421)
(0.00486132 -0.00234431 0.00445525)
(0.00478394 -0.00158679 0.00547425)
(0.00360723 -0.000284001 0.0063427)
(-0.00110681 0.000145526 0.00642413)
(-0.00194156 -0.00219046 0.00552314)
(-0.000327534 -0.00294358 0.00478572)
(0.000204028 -0.0023202 0.00413389)
(-0.000852191 -0.00115925 0.00376663)
(-0.0040852 0.000200615 0.00409343)
(-0.00791482 0.000572217 0.00532736)
(-0.00919165 -0.00212501 0.0073088)
(-0.00598736 -0.00824656 0.00941305)
(0.00487147 -0.0150848 0.0108296)
(0.0106652 -0.00852665 0.0106652)
(0.0144474 -0.00152216 0.00913594)
(0.0147663 0.00293897 0.00681786)
(0.0118793 0.00301482 0.00437291)
(0.00722551 0.000197892 0.0023566)
(0.0038133 -0.00282289 0.00110943)
(0.00253933 -0.00406786 0.000714559)
(0.00225284 -0.0033364 0.00110699)
(0.00122677 -0.00191192 0.00216726)
(-0.000228909 -0.0012677 0.00349768)
(-0.00146059 -0.00270902 0.00366338)
(-0.0013218 -0.00488429 0.00285158)
(-0.00261987 -0.00438322 0.00214878)
(-0.00534291 -0.00200352 0.0019681)
(-0.00962093 0.000792626 0.00271028)
(-0.0137687 0.00168433 0.00419803)
(-0.0152592 -0.00185234 0.00605088)
(-0.0126128 -0.0102439 0.0078312)
(-0.00564783 -0.0219516 0.00931896)
(0.00372184 -0.0274427 0.00750838)
(0.00924137 -0.0201122 0.00924137)
(0.0130509 -0.0108533 0.00939249)
(0.0157059 -0.00257451 0.0084576)
(0.0158971 0.00227989 0.00676159)
(0.0133585 0.00273063 0.0046093)
(0.0088035 -5.51412e-05 0.00214264)
(0.00441459 -0.00316755 0.000165092)
(0.00181304 -0.00349007 -0.000660863)
(0.00057486 -0.00212633 -0.000199969)
(-0.000604068 -0.00230716 0.000719105)
(-0.00183421 -0.00443016 0.000671259)
(-0.00350287 -0.00501728 7.74166e-05)
(-0.00685837 -0.00278659 -1.48284e-05)
(-0.011346 0.000604367 0.00101505)
(-0.0151483 0.0022985 0.00299619)
(-0.0166052 -0.000540493 0.00511115)
(-0.0147808 -0.00880241 0.00677698)
(-0.0109086 -0.0210089 0.00774165)
(-0.00379639 -0.0353278 0.00807074)
(0.00287635 -0.0351423 0.0040148)
(0.00750106 -0.0279175 0.00750106)
(0.00897359 -0.0180474 0.00906849)
(0.0106534 -0.00845503 0.00944036)
(0.0114019 -0.00141884 0.00906807)
(0.0112797 0.00210228 0.00770473)
(0.00944076 0.00219352 0.00553431)
(0.0062145 3.94682e-05 0.00281629)
(0.00252847 -0.00139823 0.000816692)
(0.000314602 -0.00116538 -0.000128282)
(-0.00104784 -0.00181518 -0.000213061)
(-0.0028742 -0.00326788 -8.44743e-05)
(-0.00575885 -0.00232667 0.000365258)
(-0.00941092 0.000577871 0.00166233)
(-0.0123189 0.00262624 0.00375458)
(-0.0133636 0.00145105 0.00597363)
(-0.012206 -0.00453441 0.00760774)
(-0.00981993 -0.0149988 0.00819364)
(-0.00782871 -0.028642 0.00792669)
(-0.00224949 -0.0434292 0.00672887)
(0.00217941 -0.0394729 0.00124861)
(0.00624551 -0.0321458 0.00624551)
(0.00530258 -0.0221445 0.00884109)
(0.00511955 -0.0122992 0.0100007)
(0.00424987 -0.00483226 0.010449)
(0.00353712 -0.000181675 0.0102269)
(0.00274061 0.00199656 0.0091729)
(0.00110141 0.00190555 0.00734055)
(-0.000282216 0.00153255 0.00552334)
(-0.000853204 0.00156284 0.00417115)
(-0.00125757 0.000968213 0.00355011)
(-0.00209287 0.000222806 0.0038691)
(-0.00341311 0.000947345 0.00492853)
(-0.00475488 0.00245641 0.00656265)
(-0.00557204 0.00260936 0.00839794)
(-0.00507159 -0.000945513 0.00978958)
(-0.00495585 -0.00812715 0.00996889)
(-0.00424924 -0.019159 0.00938505)
(-0.00517207 -0.0330084 0.00803515)
(-0.00115202 -0.0474615 0.0053028)
(0.00136644 -0.041306 -0.000933127)
(0.00521108 -0.033566 0.00521108)
(0.00240306 -0.0238473 0.00823573)
(0.00118039 -0.0146317 0.00963578)
(-0.000469568 -0.0076299 0.0102515)
(-0.00122056 -0.00328045 0.0104206)
(-0.00148109 -0.000814494 0.0103836)
(-0.00131828 8.76975e-05 0.010068)
(-0.000971082 0.000441374 0.00954252)
(-0.000517971 0.000949312 0.00881281)
(9.21295e-05 0.00093157 0.00840439)
(0.000375308 0.000292299 0.0087357)
(0.000410778 0.000401549 0.00938959)
(0.000612803 0.000596577 0.0101622)
(0.00135106 -0.000650284 0.0108684)
(0.00142757 -0.00438964 0.0110283)
(0.000473168 -0.0111083 0.0106365)
(-0.000148343 -0.0214406 0.00953627)
(-0.00332513 -0.034582 0.00760706)
(-0.000291978 -0.0482573 0.00356449)
(0.000137918 -0.0410336 -0.00289597)
(0.00374633 -0.0326639 0.00374633)
(-0.000598447 -0.0236805 0.00661333)
(-0.00206527 -0.0161401 0.00777469)
(-0.00343574 -0.0108232 0.00813171)
(-0.00366985 -0.00734174 0.00827094)
(-0.00319473 -0.00516191 0.0084127)
(-0.0022665 -0.00386166 0.00873735)
(-0.00111769 -0.00291595 0.0092213)
(-0.000113171 -0.00180211 0.00962779)
(0.00110374 -0.00128723 0.00977511)
(0.00199557 -0.00193749 0.00961064)
(0.00292738 -0.00260843 0.00939661)
(0.00388616 -0.00351018 0.00931374)
(0.00464892 -0.0052232 0.00938813)
(0.00477852 -0.00857468 0.00941461)
(0.00387092 -0.0141877 0.00909723)
(0.00285671 -0.022328 0.00807672)
(-0.00171283 -0.0337288 0.00612767)
(0.000710581 -0.0460398 0.00108408)
(-0.00195791 -0.0369866 -0.00554846)
(0.000612414 -0.0287672 0.000612414)
(-0.00484046 -0.0218466 0.00273073)
(-0.00643332 -0.0167818 0.00325226)
(-0.00743587 -0.0132824 0.00293625)
(-0.00711831 -0.0111205 0.00241711)
(-0.00588413 -0.00973502 0.0021333)
(-0.00412003 -0.00867747 0.00229841)
(-0.00215501 -0.00750207 0.00303499)
(-0.000466372 -0.00594228 0.00413275)
(0.001341 -0.00501046 0.00471995)
(0.00283475 -0.00592999 0.0039406)
(0.00464405 -0.00700893 0.00331515)
(0.00636972 -0.00808293 0.00323545)
(0.00772674 -0.00951906 0.00362005)
(0.00835142 -0.0119545 0.00419828)
(0.00779685 -0.0159659 0.00447062)
(0.00644719 -0.0216887 0.00396832)
(0.00105244 -0.0301437 0.00252462)
(0.00259882 -0.0403004 -0.00250901)
(-0.00585592 -0.0278538 -0.0099464)
(-0.00634537 -0.0217615 -0.00634537)
(-0.0121236 -0.0175457 -0.00576163)
(-0.0140461 -0.0153511 -0.00639858)
(-0.0145497 -0.0141439 -0.00747762)
(-0.0135024 -0.0136313 -0.00857125)
(-0.0113397 -0.0135638 -0.00938379)
(-0.00842223 -0.0136968 -0.00967811)
(-0.00509045 -0.0137146 -0.00919052)
(-0.00203517 -0.0130723 -0.00796244)
(0.00144033 -0.0126049 -0.0070113)
(0.00428349 -0.0131469 -0.00815353)
(0.0076344 -0.0135254 -0.00872015)
(0.0108407 -0.0135933 -0.00865433)
(0.013462 -0.01374 -0.00792975)
(0.0150013 -0.0143223 -0.00684985)
(0.0149145 -0.0156079 -0.0057798)
(0.0132142 -0.0179833 -0.00512969)
(0.00725941 -0.0227121 -0.00545953)
(0.00642539 -0.0300565 -0.00809247)
(-0.0123817 -0.0161014 -0.0172928)
(-0.0184373 -0.01027 -0.0184373)
(-0.0254823 -0.00708083 -0.0214677)
(-0.0279816 -0.00540614 -0.0248063)
(-0.0283179 -0.00431535 -0.0281861)
(-0.026734 -0.00349689 -0.0314127)
(-0.0236081 -0.00275525 -0.0343781)
(-0.0191102 -0.00193054 -0.0368796)
(-0.0133432 -0.000871001 -0.038509)
(-0.007129 0.000523915 -0.0385597)
(0.00237971 0.00178416 -0.0382531)
(0.0101687 0.000268527 -0.0390007)
(0.0169096 -0.00109724 -0.0380665)
(0.0223391 -0.00217285 -0.0358476)
(0.0262713 -0.00309683 -0.0329452)
(0.0285542 -0.00405714 -0.0296839)
(0.0287701 -0.00527836 -0.0261841)
(0.0266278 -0.00711409 -0.0226339)
(0.0196087 -0.0106152 -0.0191196)
(0.0132037 -0.0172349 -0.0166573)
(0.0030079 0.00251001 0.00925343)
(0.00456826 0.00292021 0.00739624)
(0.00463957 0.00232772 0.00463957)
(0.00316963 0.000484193 0.00260174)
(0.00194621 -0.00136672 0.00197466)
(0.00205998 -0.00234758 0.00256525)
(0.00322165 -0.00270503 0.00363852)
(0.00469804 -0.00248233 0.00496745)
(0.00572826 -0.0018554 0.0065228)
(0.00540448 -0.00105083 0.0081372)
(0.00386242 0.000170599 0.00948251)
(-0.000538325 0.000468034 0.00982973)
(-0.00179675 -0.00193587 0.00873085)
(-0.000312642 -0.0028004 0.00761081)
(4.13036e-05 -0.0023629 0.00665364)
(-0.000735379 -0.0015205 0.00616992)
(-0.00303861 -0.000453027 0.00663138)
(-0.00585738 0.000327679 0.00835728)
(-0.00682142 -0.000697569 0.0109697)
(-0.00489212 -0.00399245 0.0132859)
(0.00441991 -0.00403227 0.0145994)
(0.00913594 -0.00152216 0.0144474)
(0.0124283 0.00154095 0.0124283)
(0.0127508 0.00301371 0.00939722)
(0.0103795 0.00183197 0.00625247)
(0.00680653 -0.000873452 0.00375532)
(0.00437019 -0.00303994 0.0024937)
(0.00338781 -0.0037327 0.00223542)
(0.00300634 -0.00278536 0.00282866)
(0.00197091 -0.00121971 0.00424121)
(0.000379726 -0.000539255 0.00599227)
(-0.000924979 -0.00201352 0.00640961)
(-0.00112373 -0.00431555 0.0052935)
(-0.00261101 -0.00409409 0.00432116)
(-0.00514458 -0.00225007 0.00413946)
(-0.00881793 4.14976e-05 0.00520267)
(-0.0126014 0.00118588 0.00739843)
(-0.0140336 -0.001019 0.0100065)
(-0.0115999 -0.00692054 0.0121585)
(-0.00583125 -0.0148678 0.0131161)
(0.0039812 -0.0142545 0.0104348)
(0.00939249 -0.0108533 0.0130509)
(0.013554 -0.00565477 0.013554)
(0.0161456 -0.000461947 0.0122807)
(0.0161069 0.002379 0.00993009)
(0.0134792 0.00185611 0.00699355)
(0.00908341 -0.00101804 0.00400208)
(0.00515207 -0.00362532 0.0018627)
(0.00267972 -0.00365899 0.000895713)
(0.00126242 -0.00194948 0.00128625)
(-0.000173847 -0.00179303 0.00240999)
(-0.00165875 -0.00381496 0.00255703)
(-0.00358846 -0.00473155 0.00193514)
(-0.0070169 -0.00307723 0.00194343)
(-0.0114592 -0.000325893 0.00321307)
(-0.0155607 0.00136013 0.00560019)
(-0.0173639 -0.000740755 0.00822964)
(-0.0157716 -0.00744313 0.0101814)
(-0.0115604 -0.0168724 0.0107098)
(-0.00476158 -0.0269128 0.00946097)
(0.00356593 -0.0218495 0.00365483)
(0.00906849 -0.0180474 0.00897359)
(0.0118542 -0.0122386 0.0118542)
(0.0140598 -0.00560515 0.0126607)
(0.0149896 -0.00030188 0.0120148)
(0.0143795 0.00216485 0.0101211)
(0.011906 0.00151329 0.00728419)
(0.00787413 -0.00113633 0.00398886)
(0.00359458 -0.00250809 0.00159047)
(0.000917226 -0.00158092 0.000548574)
(-0.000898695 -0.00166143 0.000615732)
(-0.00308476 -0.0032418 0.000830242)
(-0.00642298 -0.00288676 0.00130737)
(-0.0107826 -0.000443291 0.00274784)
(-0.0147184 0.00164592 0.00516527)
(-0.0166836 0.00086235 0.00778989)
(-0.0159818 -0.00437727 0.00978889)
(-0.0133817 -0.0134181 0.0102702)
(-0.0100927 -0.0240785 0.00881046)
(-0.0036405 -0.0342589 0.00502308)
(0.00294122 -0.0272812 -0.00187194)
(0.00884109 -0.0221445 0.00530258)
(0.00986569 -0.0158566 0.00986569)
(0.0104987 -0.00865624 0.0120959)
(0.0101091 -0.00246699 0.0128728)
(0.00922574 0.00152812 0.0124391)
(0.00744256 0.00291458 0.0108393)
(0.00455418 0.00206668 0.00827322)
(0.001503 0.00078383 0.00539669)
(-0.000392403 0.000657667 0.00332613)
(-0.00156258 0.000175325 0.00271284)
(-0.00336042 -0.000497814 0.00316032)
(-0.00598182 0.000497754 0.00463311)
(-0.00879504 0.00250958 0.00691541)
(-0.0109413 0.00306147 0.00934958)
(-0.0115941 -8.08032e-06 0.0111892)
(-0.0111273 -0.00693056 0.0115645)
(-0.00974251 -0.0169205 0.0103764)
(-0.00867812 -0.0279142 0.00702733)
(-0.00262792 -0.0379348 0.000793308)
(0.00174987 -0.0315658 -0.00549703)
(0.00823573 -0.0238473 0.00240306)
(0.00775753 -0.0168783 0.00775753)
(0.00732946 -0.00946908 0.0106681)
(0.00581946 -0.00310275 0.0120861)
(0.00427716 0.00136021 0.0124141)
(0.00287078 0.00347907 0.0117581)
(0.00151074 0.00334777 0.01038)
(0.000329414 0.00253932 0.00880169)
(-0.000434596 0.00238164 0.00735689)
(-0.00102263 0.00224641 0.0067141)
(-0.00192647 0.00201839 0.00720602)
(-0.00314072 0.00272658 0.00845688)
(-0.00426319 0.00384041 0.01011)
(-0.00488737 0.00349394 0.0118305)
(-0.00540968 -0.000341274 0.0127203)
(-0.00630138 -0.00779492 0.0119847)
(-0.00633439 -0.0179011 0.00966434)
(-0.00747276 -0.02884 0.00496771)
(-0.0014464 -0.0390528 -0.0030693)
(-4.39931e-05 -0.033838 -0.00836846)
(0.00661333 -0.0236805 -0.000598447)
(0.00477366 -0.0162062 0.00477366)
(0.00416297 -0.00915777 0.00766425)
(0.00264376 -0.00363204 0.00905891)
(0.00138979 -5.86668e-05 0.0095545)
(0.000630858 0.00160442 0.00949719)
(0.000212334 0.00184029 0.00899351)
(-6.41532e-05 0.00175764 0.00853969)
(-0.000227178 0.0021805 0.00811683)
(-0.000296658 0.00245979 0.00790312)
(-0.000515358 0.00221709 0.00802577)
(-0.000784055 0.00228954 0.00858875)
(-0.000958226 0.00250512 0.00953936)
(-0.00102454 0.00172822 0.0106644)
(-0.00134611 -0.00160611 0.0109005)
(-0.00256087 -0.00806963 0.00984685)
(-0.00300932 -0.0171887 0.00710058)
(-0.00589087 -0.0276223 0.00190523)
(0.000245407 -0.0389156 -0.00645307)
(-0.00264198 -0.0324924 -0.0117403)
(0.00273073 -0.0218466 -0.00484046)
(-0.000546621 -0.0140576 -0.000546621)
(-0.000998721 -0.00788192 0.0013362)
(-0.00202546 -0.00304331 0.00163214)
(-0.00218166 0.000211948 0.00153164)
(-0.00175311 0.00221398 0.00156685)
(-0.00111633 0.00321604 0.00180964)
(-0.000424841 0.00381221 0.00232158)
(-8.3011e-05 0.00440332 0.0028828)
(-0.000141865 0.00484895 0.00314807)
(-0.000164901 0.00467331 0.00274614)
(0.000436876 0.00440249 0.00267006)
(0.00129416 0.00378439 0.00305501)
(0.00227311 0.00200939 0.0032828)
(0.00283837 -0.00158688 0.00337239)
(0.00221383 -0.00732328 0.0032074)
(0.00189522 -0.0148408 0.00135006)
(-0.00244592 -0.0242098 -0.00326225)
(0.00279626 -0.0358032 -0.010426)
(-0.00700764 -0.0255494 -0.0165256)
(-0.00576163 -0.0175457 -0.0121236)
(-0.0101811 -0.0120418 -0.0101811)
(-0.0109279 -0.0088825 -0.00993819)
(-0.010949 -0.0068265 -0.0106089)
(-0.00985388 -0.0056505 -0.0116254)
(-0.0080452 -0.0051488 -0.0124553)
(-0.00587855 -0.00503368 -0.0126852)
(-0.00359971 -0.00483427 -0.011823)
(-0.00173528 -0.00358953 -0.0103672)
(-1.79447e-05 -0.00289355 -0.00956067)
(0.00163464 -0.00407487 -0.0103584)
(0.00390035 -0.00489446 -0.0110913)
(0.00651764 -0.00520572 -0.0114401)
(0.00890751 -0.00572487 -0.0107892)
(0.0106312 -0.00704834 -0.00984288)
(0.0111652 -0.0093222 -0.00926549)
(0.0107056 -0.0127737 -0.00966033)
(0.00597996 -0.0188272 -0.011747)
(0.00723163 -0.027577 -0.0159414)
(-0.014885 -0.01419 -0.0240321)
(-0.0214677 -0.00708083 -0.0254823)
(-0.028819 -0.00325044 -0.028819)
(-0.0312387 -0.0011443 -0.0327534)
(-0.0314295 0.000297312 -0.0368401)
(-0.0297234 0.00145339 -0.0408251)
(-0.0265399 0.0025269 -0.0445882)
(-0.0219361 0.00371119 -0.0478394)
(-0.0157967 0.00518813 -0.0500108)
(-0.00872297 0.00707013 -0.0501525)
(0.00235308 0.00874636 -0.0498064)
(0.0115579 0.00671321 -0.0507537)
(0.0189927 0.00486426 -0.0495074)
(0.0247516 0.00336889 -0.0466816)
(0.028877 0.00206531 -0.0430487)
(0.0313892 0.000729524 -0.0390628)
(0.0317905 -0.000895923 -0.0348357)
(0.0297107 -0.003218 -0.0306465)
(0.0223187 -0.00738264 -0.0268526)
(0.0154768 -0.0151418 -0.024517)
(0.00141085 0.00315996 0.00488918)
(0.00220029 0.00206806 0.0044738)
(0.00260174 0.000484193 0.00316964)
(0.0023647 -0.00118705 0.0023647)
(0.00250997 -0.00225572 0.00257866)
(0.00332621 -0.00279101 0.00355742)
(0.00466129 -0.00288778 0.00492809)
(0.00604416 -0.00251664 0.00657975)
(0.00680827 -0.00174153 0.00851869)
(0.00622617 -0.000868187 0.0106079)
(0.00425804 0.00027748 0.0123511)
(1.04867e-05 0.000576657 0.0129822)
(-0.00175523 -0.00178303 0.0118737)
(-0.000454551 -0.00273624 0.010431)
(-0.000191186 -0.00250508 0.00919891)
(-0.000527301 -0.00199458 0.00850997)
(-0.0017076 -0.00125153 0.00873533)
(-0.00319609 -0.000302054 0.01017)
(-0.00369425 0.000236197 0.0124638)
(-0.00306605 -0.000153404 0.0143611)
(0.00345619 0.00285593 0.0148408)
(0.00681786 0.00293897 0.0147663)
(0.00939722 0.00301371 0.0127508)
(0.00968564 0.00211713 0.00968564)
(0.00799872 2.43982e-06 0.00658983)
(0.00595603 -0.00224804 0.00454039)
(0.00465984 -0.00367631 0.00375358)
(0.00414094 -0.00390419 0.00388633)
(0.00380902 -0.00272471 0.00480174)
(0.0027255 -0.000986884 0.0065055)
(0.000866973 -0.000246079 0.00852149)
(-0.000595934 -0.00161531 0.00915288)
(-0.00112852 -0.00392461 0.00783438)
(-0.00258912 -0.00407372 0.00658846)
(-0.00455324 -0.00288927 0.00624537)
(-0.00708496 -0.00116594 0.00723797)
(-0.00983095 0.00037692 0.0096016)
(-0.0110495 0.000253964 0.0125933)
(-0.00920164 -0.0022575 0.015008)
(-0.00509085 -0.00616126 0.0156695)
(0.00394538 -0.00384419 0.0130847)
(0.0084576 -0.00257451 0.0157059)
(0.0122807 -0.000461947 0.0161456)
(0.014522 0.00163996 0.014522)
(0.0144064 0.00205922 0.0116894)
(0.0119354 0.00032236 0.00833157)
(0.00837703 -0.00249838 0.00538623)
(0.00528405 -0.00442397 0.00351512)
(0.00318325 -0.00401885 0.0028)
(0.00172207 -0.00200241 0.00324782)
(6.72761e-05 -0.0015626 0.00444761)
(-0.0016543 -0.00333783 0.00469113)
(-0.00362642 -0.00450817 0.00399054)
(-0.00662905 -0.00364789 0.00392752)
(-0.010294 -0.0016577 0.00520131)
(-0.0138881 0.000253246 0.00778381)
(-0.0157841 -0.000164321 0.0107828)
(-0.0145918 -0.0040203 0.0129712)
(-0.0106608 -0.00988086 0.013192)
(-0.0048156 -0.0159659 0.0109106)
(0.00418513 -0.0112657 0.00501309)
(0.00944036 -0.00845503 0.0106534)
(0.0126607 -0.00560515 0.0140598)
(0.0150254 -0.00204212 0.0150254)
(0.0160015 0.000846094 0.0141206)
(0.0151936 0.00170389 0.0118411)
(0.0124071 0.000196717 0.00864078)
(0.00816218 -0.00243434 0.00538514)
(0.00400616 -0.00350594 0.00302311)
(0.0012144 -0.00215118 0.00196749)
(-0.000943899 -0.00168835 0.00212694)
(-0.00333488 -0.00307991 0.00236956)
(-0.00662749 -0.00325677 0.00276671)
(-0.0108255 -0.00161862 0.00407776)
(-0.0149514 0.000406728 0.00650643)
(-0.0173451 0.000554639 0.00934498)
(-0.017033 -0.00284608 0.0114698)
(-0.0143928 -0.00913 0.0117395)
(-0.0105129 -0.0161421 0.00932001)
(-0.00404466 -0.0227232 0.00392968)
(0.00357818 -0.0182889 -0.00222936)
(0.0100007 -0.0122992 0.00511955)
(0.0120959 -0.00865624 0.0104987)
(0.0133779 -0.00458505 0.0133779)
(0.0136189 -0.000781156 0.0143841)
(0.0129025 0.00167967 0.0138265)
(0.0108945 0.00211396 0.0119587)
(0.00757078 0.000698253 0.00899691)
(0.0035945 -0.000826947 0.00574245)
(0.000321281 -0.00059272 0.00348445)
(-0.00192909 -0.00054278 0.00287906)
(-0.00454721 -0.00109826 0.00338854)
(-0.00798225 -0.000372976 0.00487415)
(-0.0116067 0.00142342 0.00725866)
(-0.0143752 0.00214423 0.00977401)
(-0.015445 3.59136e-05 0.011622)
(-0.0145512 -0.00509702 0.0120077)
(-0.0124257 -0.012288 0.0102864)
(-0.0100161 -0.0196363 0.00562958)
(-0.00300797 -0.0271245 -0.00219449)
(0.00195757 -0.0247459 -0.00675158)
(0.00963578 -0.0146317 0.00118039)
(0.0106681 -0.00946908 0.00732946)
(0.0110964 -0.00475923 0.0110964)
(0.0103216 -0.000531314 0.0131038)
(0.0088607 0.00255661 0.0135864)
(0.00695894 0.00388349 0.0127515)
(0.00464807 0.00320104 0.0108811)
(0.0021322 0.00188385 0.00853646)
(-8.50618e-05 0.00158358 0.00647106)
(-0.0019382 0.00167507 0.00578518)
(-0.00404575 0.00170774 0.00637578)
(-0.00635991 0.00257358 0.00787858)
(-0.00842344 0.00389857 0.00988468)
(-0.00981166 0.00391448 0.011853)
(-0.0104892 0.000849899 0.0128636)
(-0.0106299 -0.00518745 0.0118879)
(-0.00968643 -0.0128453 0.00871658)
(-0.00914418 -0.0207542 0.0025654)
(-0.00143063 -0.0310761 -0.00632869)
(-0.00036725 -0.0293278 -0.0101721)
(0.00777469 -0.0161401 -0.00206527)
(0.00766425 -0.00915777 0.00416297)
(0.00808318 -0.00383276 0.00808318)
(0.00707782 6.88949e-05 0.0102529)
(0.00556514 0.00280307 0.0108351)
(0.00426518 0.00386827 0.0105765)
(0.00294524 0.00345541 0.00961531)
(0.00148032 0.00277136 0.00847694)
(-2.83979e-05 0.00292041 0.00757335)
(-0.0015572 0.00323391 0.00729333)
(-0.00308517 0.0032198 0.00756878)
(-0.00437332 0.00360127 0.00842043)
(-0.005247 0.00425239 0.00971691)
(-0.00564746 0.00397609 0.0110817)
(-0.00598066 0.00119046 0.0115968)
(-0.00674068 -0.00417889 0.010117)
(-0.00616672 -0.0116896 0.00604318)
(-0.00733204 -0.0202304 -0.000898089)
(0.000742174 -0.0335896 -0.00972534)
(-0.00346961 -0.0302227 -0.0139993)
(0.00325226 -0.0167818 -0.00643332)
(0.0013362 -0.00788192 -0.000998721)
(0.00208538 -0.00164775 0.00208538)
(0.00172744 0.00276503 0.00367783)
(0.00148453 0.00499531 0.0041117)
(0.00120255 0.00596067 0.00399232)
(0.000954314 0.0061072 0.00370102)
(0.00062015 0.00612225 0.00358018)
(-0.000165001 0.00658098 0.00376497)
(-0.00151847 0.00708746 0.00395838)
(-0.00261149 0.00684822 0.00375282)
(-0.00282136 0.00675651 0.00389908)
(-0.0024763 0.00675585 0.00448574)
(-0.00186518 0.00616878 0.00520426)
(-0.00122617 0.00395452 0.00545409)
(-0.00111116 -0.00136547 0.00395873)
(-0.000241309 -0.00928539 0.000413898)
(-0.00311215 -0.0190843 -0.00591208)
(0.00371923 -0.032998 -0.013797)
(-0.00833654 -0.0249424 -0.0189957)
(-0.00639858 -0.0153511 -0.0140461)
(-0.00993819 -0.0088825 -0.0109279)
(-0.00971598 -0.00500981 -0.00971598)
(-0.00925385 -0.00252147 -0.00977707)
(-0.00816357 -0.00113988 -0.0104377)
(-0.0067942 -0.000598246 -0.0115539)
(-0.00530979 -0.000428751 -0.0125179)
(-0.00372195 3.02594e-05 -0.012759)
(-0.00220065 0.00140267 -0.0119391)
(-0.0010173 0.00198154 -0.0110648)
(0.000217012 0.000594669 -0.0118507)
(0.002274 -0.000427093 -0.0118563)
(0.00433611 -0.000788273 -0.0109497)
(0.00638634 -0.00128148 -0.00961902)
(0.00816713 -0.00284704 -0.00874317)
(0.00952691 -0.00561335 -0.00915531)
(0.0101548 -0.00971949 -0.010813)
(0.00637156 -0.0166031 -0.014355)
(0.0085819 -0.0267064 -0.0193314)
(-0.0173035 -0.0135378 -0.0264707)
(-0.0248063 -0.00540614 -0.0279816)
(-0.0327534 -0.0011443 -0.0312387)
(-0.0352313 0.00119902 -0.0352313)
(-0.0352536 0.00283771 -0.0394299)
(-0.0333706 0.00420786 -0.0437077)
(-0.0300919 0.00553684 -0.0480341)
(-0.0252953 0.00705541 -0.0520296)
(-0.0186206 0.00896392 -0.0549241)
(-0.0105755 0.0114013 -0.05578)
(0.0025935 0.013622 -0.0559116)
(0.0135045 0.0109599 -0.0563547)
(0.0217471 0.00862973 -0.054357)
(0.0279028 0.00672203 -0.0508175)
(0.0322794 0.00509732 -0.0466078)
(0.0351071 0.00350744 -0.0423542)
(0.035743 0.00162163 -0.038012)
(0.0336249 -0.000972813 -0.0337415)
(0.0256353 -0.0055553 -0.0300313)
(0.0179393 -0.0142959 -0.0277789)
(0.000674361 0.000378868 0.000392187)
(0.00130671 -0.000299385 0.00148277)
(0.00197466 -0.00136672 0.00194621)
(0.00257866 -0.00225572 0.00250998)
(0.00348211 -0.00283455 0.00348211)
(0.00475503 -0.00310126 0.00485346)
(0.00626914 -0.00307203 0.00653376)
(0.00761343 -0.0026503 0.00849078)
(0.00814396 -0.0018265 0.0107805)
(0.00724388 -0.000904107 0.0133251)
(0.004737 0.000170557 0.0154658)
(0.000370438 0.000550336 0.0161843)
(-0.00184551 -0.00165192 0.0150754)
(-0.000784244 -0.00263393 0.0132992)
(-0.000576411 -0.00257589 0.011794)
(-0.000491295 -0.00234469 0.0108005)
(-0.000764814 -0.00193697 0.0105521)
(-0.00120072 -0.00120466 0.0111768)
(-0.00114903 -0.000185047 0.0123608)
(-0.001287 0.000872941 0.0131222)
(0.00223058 0.00366789 0.0114667)
(0.00437291 0.00301482 0.0118793)
(0.00625247 0.00183197 0.0103795)