/*--------------------------------*- C++ -*----------------------------------*\
  =========                 |
  \\      /  F ield         | OpenFOAM: The Open Source CFD Toolbox
   \\    /   O peration     | Website:  https://openfoam.org
    \\  /    A nd           | Version:  9
     \\/     M anipulation  |
\*---------------------------------------------------------------------------*/
FoamFile
{
    format      ascii;
    class       volScalarField;
    location    "0.26";
    object      k;
}
// * * * * * * * * * * * * * * * * * * * * * * * * * * * * * * * * * * * * * //

dimensions      [0 2 -2 0 0 0 0];

internalField   nonuniform List<scalar> 
12225
(
0.353921
0.335043
0.316966
0.300961
0.288125
0.278906
0.273297
0.271001
0.271563
0.274466
0.279195
0.285281
0.292318
0.29997
0.307981
0.316136
0.324479
0.336558
0.436864
0.448979
0.438084
0.43306
0.438785
0.453583
0.474795
0.499972
0.527126
0.554771
0.58188
0.607786
0.632112
0.65468
0.675595
0.694753
0.714216
0.729505
0.395187
0.410874
0.410631
0.405747
0.40201
0.400923
0.402613
0.406805
0.413078
0.420974
0.430057
0.43995
0.45034
0.460985
0.471742
0.4825
0.49354
0.504231
0.379641
0.38484
0.386546
0.38573
0.383905
0.382026
0.380567
0.379738
0.379605
0.380146
0.381299
0.382982
0.385112
0.387615
0.390436
0.393541
0.396947
0.40055
0.374976
0.3759
0.376239
0.375721
0.37457
0.373084
0.371496
0.369967
0.368593
0.367426
0.366484
0.365767
0.365266
0.364965
0.364852
0.364917
0.365154
0.365534
0.373488
0.372555
0.371759
0.370807
0.369631
0.368275
0.366809
0.3653
0.363804
0.362358
0.36099
0.359714
0.358537
0.357461
0.356487
0.355615
0.354843
0.354166
0.373012
0.371296
0.369813
0.368416
0.367025
0.36561
0.364169
0.362712
0.361258
0.359824
0.358426
0.357073
0.355774
0.354533
0.353354
0.35224
0.351191
0.350215
0.372865
0.370838
0.369004
0.367311
0.365711
0.364174
0.362679
0.361216
0.359783
0.358381
0.357015
0.355688
0.354402
0.353161
0.351967
0.350822
0.349728
0.348696
0.37282
0.37068
0.368691
0.366836
0.365095
0.363449
0.36188
0.360376
0.358928
0.357531
0.356183
0.35488
0.353622
0.352409
0.351241
0.350118
0.349042
0.348023
0.372806
0.370628
0.368578
0.366648
0.364829
0.36311
0.361482
0.359934
0.358457
0.357046
0.355694
0.354397
0.353153
0.351959
0.350812
0.349713
0.34866
0.347664
0.372801
0.370609
0.368537
0.366576
0.36472
0.362964
0.361299
0.359719
0.358216
0.356785
0.355421
0.354118
0.352874
0.351685
0.350547
0.34946
0.348421
0.34744
0.372799
0.370602
0.368522
0.36655
0.36468
0.362907
0.361225
0.359627
0.358109
0.356664
0.355289
0.353978
0.352729
0.351537
0.3504
0.349315
0.34828
0.347304
0.372797
0.370599
0.368514
0.366537
0.364661
0.36288
0.361188
0.359581
0.358053
0.3566
0.355216
0.353899
0.352644
0.351448
0.350308
0.349221
0.348185
0.34721
0.372796
0.370596
0.368509
0.366528
0.364649
0.362864
0.361168
0.359555
0.358022
0.356563
0.355174
0.353851
0.352592
0.351392
0.350248
0.349157
0.348119
0.347141
0.372795
0.370593
0.368505
0.366523
0.364641
0.362853
0.361154
0.359539
0.358003
0.35654
0.355148
0.353823
0.35256
0.351357
0.350209
0.349116
0.348074
0.347094
0.372794
0.370592
0.368502
0.366518
0.364634
0.362845
0.361145
0.359527
0.357989
0.356525
0.355131
0.353803
0.352538
0.351333
0.350184
0.349088
0.348044
0.347061
0.372794
0.37059
0.368499
0.366515
0.36463
0.362839
0.361137
0.359519
0.357979
0.356514
0.355118
0.353789
0.352523
0.351316
0.350165
0.349067
0.348021
0.347037
0.372794
0.370589
0.368498
0.366512
0.364627
0.362835
0.361132
0.359513
0.357972
0.356506
0.355109
0.353779
0.352511
0.351303
0.350151
0.349052
0.348005
0.347019
0.372793
0.370589
0.368497
0.366512
0.364626
0.362834
0.361131
0.359511
0.357969
0.356502
0.355105
0.353774
0.352506
0.351297
0.350144
0.349044
0.347997
0.34701
0.372794
0.37059
0.368498
0.366513
0.364628
0.362836
0.361133
0.359514
0.357973
0.356506
0.355109
0.353779
0.352511
0.351302
0.350149
0.349049
0.348001
0.347015
0.372794
0.370591
0.3685
0.366516
0.364632
0.362841
0.36114
0.359522
0.357982
0.356517
0.355122
0.353793
0.352526
0.351319
0.350167
0.349069
0.348023
0.347037
0.372795
0.370593
0.368504
0.366522
0.364641
0.362855
0.361158
0.359546
0.358012
0.356552
0.355163
0.353839
0.352578
0.351375
0.350228
0.349134
0.348091
0.347108
0.372796
0.370598
0.368518
0.366547
0.364681
0.362912
0.361235
0.359642
0.358127
0.356685
0.355311
0.354001
0.35275
0.351556
0.350415
0.349324
0.348281
0.347298
0.372804
0.370631
0.368592
0.366676
0.364872
0.363166
0.361548
0.360006
0.358532
0.35712
0.355767
0.354467
0.353219
0.352019
0.350867
0.349761
0.348701
0.347697
0.372856
0.370818
0.368973
0.367264
0.365645
0.364085
0.362567
0.361083
0.359631
0.358213
0.356833
0.355493
0.354196
0.352946
0.351743
0.35059
0.349486
0.348445
0.373166
0.37177
0.370579
0.369371
0.368049
0.366605
0.365072
0.363492
0.361905
0.360342
0.358826
0.357372
0.355991
0.354688
0.353468
0.352329
0.351272
0.350303
0.374797
0.375829
0.376175
0.375401
0.373834
0.371876
0.369792
0.36774
0.365814
0.364067
0.362524
0.361195
0.360075
0.359157
0.358425
0.357864
0.357457
0.35719
0.382729
0.39167
0.392375
0.388805
0.384384
0.380403
0.377247
0.374998
0.373621
0.373039
0.373153
0.373867
0.375084
0.376717
0.378686
0.380923
0.383366
0.385947
0.407499
0.414514
0.405423
0.395992
0.390555
0.389292
0.391456
0.396217
0.402838
0.410729
0.419437
0.428623
0.438033
0.447478
0.456823
0.465972
0.474882
0.483465
0.360554
0.347547
0.334933
0.322917
0.311965
0.302353
0.29419
0.287471
0.282115
0.278005
0.275002
0.272968
0.271768
0.271276
0.271379
0.271976
0.272979
0.274306
0.000678377
0.00383839
0.00636378
0.00858811
0.0108651
0.0135713
0.016714
0.0203919
0.0247142
0.0295896
0.0347393
0.0401691
0.0458401
0.0517033
0.0577094
0.0638114
0.0699646
0.0761261
0.0822544
0.0883094
0.0942526
0.100047
0.105658
0.11105
0.116185
0.121025
0.12552
0.129617
0.133255
0.136375
0.138923
0.140849
0.142119
0.142785
0.143094
0.143215
0.142471
0.142914
0.142667
0.143857
0.144721
0.143309
0.144799
0.145643
0.150784
0.157575
0.164757
0.172186
0.179829
0.187667
0.195688
0.203886
0.212254
0.220789
0.229487
0.238345
0.24736
0.256531
0.265852
0.275323
0.284938
0.294695
0.30459
0.314618
0.324775
0.335056
0.345454
0.355965
0.366582
0.377299
0.388108
0.399003
0.409977
0.42102
0.432127
0.443287
0.454493
0.465736
0.477008
0.488298
0.499599
0.510902
0.522196
0.533472
0.544722
0.555935
0.567102
0.578213
0.589259
0.60023
0.611114
0.621903
0.632586
0.643153
0.653594
0.663901
0.67407
0.684101
0.694008
0.703826
0.71353
0.723011
0.732271
0.741308
0.750113
0.758676
0.766985
0.775031
0.782802
0.790288
0.797479
0.804364
0.810935
0.817183
0.823099
0.828675
0.833904
0.838779
0.843293
0.847442
0.851219
0.854621
0.857642
0.860281
0.862535
0.8644
0.865877
0.866963
0.86766
0.867968
0.867888
0.867422
0.866572
0.865343
0.863739
0.861763
0.859421
0.85672
0.853665
0.850265
0.846526
0.842457
0.838066
0.833365
0.828361
0.823065
0.817489
0.811644
0.80554
0.79919
0.792606
0.7858
0.778786
0.771576
0.764182
0.756617
0.748899
0.741036
0.733044
0.724939
0.716719
0.708433
0.700051
0.691642
0.683283
0.675821
0.671877
0.668458
0.665049
0.661625
0.658184
0.654726
0.651244
0.647718
0.644102
0.640294
0.636065
0.630813
0.623063
0.606309
0.00260493
0.0109912
0.016595
0.0210672
0.0252738
0.0294091
0.0337116
0.0383416
0.0433586
0.0487453
0.0544444
0.060406
0.0665834
0.072933
0.0794147
0.0859913
0.0926284
0.0992934
0.105956
0.112587
0.119163
0.125658
0.132053
0.138327
0.144462
0.150438
0.156234
0.161829
0.167207
0.172365
0.177319
0.182118
0.186853
0.191678
0.196831
0.202603
0.209168
0.216241
0.223488
0.231044
0.23954
0.249975
0.261301
0.27335
0.284969
0.296514
0.308461
0.320841
0.333613
0.346748
0.360229
0.374043
0.388185
0.402649
0.417433
0.432535
0.447952
0.463682
0.479724
0.496074
0.512731
0.529691
0.54695
0.564504
0.582348
0.600476
0.618883
0.637561
0.656503
0.675701
0.695146
0.714827
0.734736
0.75486
0.775189
0.79571
0.81641
0.837278
0.858298
0.879458
0.900742
0.922137
0.943626
0.965196
0.986829
1.00851
1.03023
1.05196
1.07369
1.09541
1.11709
1.13872
1.16029
1.18177
1.20315
1.22441
1.24553
1.26648
1.28725
1.30776
1.32781
1.34757
1.36704
1.38621
1.40506
1.42356
1.4417
1.45945
1.4768
1.49371
1.51017
1.52616
1.54166
1.55664
1.5711
1.58501
1.59835
1.61111
1.62327
1.63482
1.64574
1.65602
1.66565
1.67462
1.68292
1.69053
1.69746
1.70369
1.70922
1.71405
1.71817
1.72158
1.72428
1.72628
1.72757
1.72815
1.72804
1.72724
1.72575
1.72358
1.72075
1.71726
1.71313
1.70836
1.70298
1.697
1.69043
1.68329
1.6756
1.66738
1.65865
1.64943
1.63973
1.62959
1.61902
1.60804
1.59669
1.58498
1.57294
1.5606
1.54794
1.53509
1.52193
1.50864
1.49529
1.48205
1.46936
1.45675
1.4441
1.43141
1.41868
1.40593
1.39317
1.3804
1.3676
1.35473
1.34165
1.32822
1.31321
1.29377
0.00522283
0.0182636
0.0258904
0.0317324
0.0368867
0.0418811
0.0469753
0.0523106
0.0579488
0.0638967
0.0701287
0.076607
0.0832918
0.0901456
0.0971347
0.104229
0.111403
0.118634
0.125902
0.133191
0.140488
0.147784
0.155074
0.162354
0.169626
0.176894
0.184166
0.19146
0.198803
0.206238
0.213827
0.221652
0.229815
0.238436
0.247645
0.25755
0.268142
0.279233
0.290756
0.302801
0.315574
0.329261
0.343708
0.358647
0.373823
0.389272
0.405118
0.421408
0.438143
0.455311
0.472902
0.490908
0.509322
0.528138
0.547353
0.566961
0.58696
0.607346
0.628116
0.649266
0.670791
0.692687
0.714948
0.73757
0.760544
0.783863
0.80752
0.831506
0.85581
0.880422
0.905331
0.930525
0.95599
0.981713
1.00768
1.03387
1.06028
1.08688
1.11366
1.1406
1.16769
1.1949
1.22222
1.24962
1.27709
1.30461
1.33215
1.3597
1.38725
1.41475
1.44221
1.46959
1.49687
1.52404
1.55108
1.57796
1.60467
1.63118
1.65749
1.68342
1.709
1.73423
1.7591
1.78359
1.80766
1.8313
1.85447
1.87714
1.89928
1.92088
1.94189
1.9623
1.98207
2.00119
2.01962
2.03735
2.05435
2.07061
2.08609
2.10078
2.11467
2.12774
2.13997
2.15134
2.16185
2.17149
2.18024
2.1881
2.19506
2.20112
2.20626
2.2105
2.21382
2.21624
2.21775
2.21836
2.21807
2.21689
2.21484
2.21191
2.20813
2.20351
2.19807
2.19181
2.18476
2.17694
2.16837
2.15907
2.14907
2.13838
2.12703
2.11506
2.10248
2.08932
2.07562
2.06139
2.04669
2.03152
2.01592
1.99996
1.98354
1.96693
1.95004
1.93294
1.91571
1.89846
1.88142
1.8644
1.84734
1.83023
1.8131
1.79596
1.77885
1.76179
1.7448
1.72789
1.71106
1.69437
1.67726
1.65937
0.00836176
0.025154
0.0344861
0.0412922
0.0472354
0.0529036
0.0585846
0.0644348
0.0705322
0.0769028
0.0835399
0.0904198
0.0975118
0.104785
0.112212
0.119769
0.127436
0.135199
0.143046
0.150971
0.158971
0.167049
0.175209
0.183463
0.191825
0.200314
0.208956
0.217784
0.22684
0.236178
0.245862
0.255963
0.266554
0.277708
0.289489
0.301938
0.315047
0.328758
0.343043
0.357932
0.373483
0.389732
0.406623
0.424044
0.441898
0.460162
0.478861
0.498018
0.517641
0.537732
0.558288
0.579308
0.600787
0.622724
0.645115
0.667957
0.691247
0.714984
0.739163
0.763782
0.788836
0.81432
0.84023
0.86656
0.893301
0.920448
0.94799
0.975918
1.00422
1.03289
1.06191
1.09127
1.12095
1.15093
1.18121
1.21176
1.24256
1.2736
1.30486
1.33631
1.36793
1.3997
1.4316
1.46361
1.4957
1.52786
1.56004
1.59224
1.62443
1.65658
1.68867
1.72068
1.75258
1.78436
1.81597
1.84742
1.87866
1.90968
1.94041
1.97075
2.00071
2.03026
2.05938
2.08805
2.11623
2.14389
2.17099
2.1975
2.22339
2.24862
2.27316
2.29698
2.32005
2.34233
2.36381
2.38445
2.40423
2.42311
2.44109
2.45812
2.47421
2.48931
2.50343
2.51653
2.52862
2.53966
2.54966
2.55861
2.56649
2.5733
2.57904
2.58371
2.5873
2.58982
2.59127
2.59166
2.591
2.58929
2.58655
2.58279
2.57802
2.57227
2.56554
2.55787
2.54927
2.53976
2.52938
2.51814
2.50608
2.49321
2.47959
2.46522
2.45014
2.43441
2.41803
2.40102
2.38348
2.36538
2.34678
2.3278
2.3084
2.28868
2.26866
2.24838
2.22791
2.20737
2.18687
2.16636
2.1458
2.1252
2.10459
2.08401
2.06351
2.04312
2.02291
2.00296
1.98337
1.96436
1.94574
1.92769
0.011495
0.0315344
0.0421921
0.0499085
0.0565552
0.0627957
0.0689532
0.0752063
0.0816526
0.088337
0.0952708
0.102445
0.10984
0.117433
0.125204
0.133135
0.141211
0.149425
0.157771
0.16625
0.174867
0.183632
0.192558
0.201665
0.210976
0.220518
0.230324
0.240435
0.250897
0.261761
0.273083
0.284919
0.297324
0.310341
0.324007
0.338342
0.353342
0.368985
0.385254
0.40215
0.419684
0.437859
0.456647
0.476001
0.495874
0.516244
0.537111
0.558479
0.580355
0.602742
0.625642
0.649055
0.672981
0.697421
0.722373
0.747837
0.773812
0.800296
0.827288
0.854785
0.882784
0.911281
0.940271
0.969749
0.999709
1.03014
1.06104
1.09239
1.12419
1.15642
1.18906
1.22211
1.25554
1.28934
1.32349
1.35797
1.39275
1.42782
1.46316
1.49873
1.53452
1.57049
1.60662
1.64289
1.67927
1.71573
1.75223
1.78877
1.8253
1.86179
1.89823
1.93458
1.97081
2.0069
2.04282
2.07855
2.11404
2.14928
2.18413
2.21856
2.25256
2.2861
2.31915
2.35168
2.38364
2.415
2.44571
2.47574
2.50506
2.53361
2.56137
2.5883
2.61436
2.63952
2.66375
2.68702
2.70929
2.73054
2.75074
2.76986
2.78788
2.80479
2.82055
2.83516
2.84859
2.86084
2.87188
2.88172
2.89035
2.89775
2.90392
2.90887
2.9126
2.9151
2.91638
2.91646
2.91533
2.91302
2.90953
2.90488
2.8991
2.89219
2.88418
2.8751
2.86497
2.85381
2.84166
2.82855
2.8145
2.79955
2.78374
2.7671
2.74965
2.73146
2.71256
2.69292
2.67272
2.65195
2.63063
2.60886
2.58663
2.56403
2.54108
2.51784
2.49437
2.47077
2.44712
2.42342
2.39966
2.37588
2.35211
2.32841
2.30482
2.28143
2.25834
2.23568
2.21363
2.19247
2.17219
2.15296
0.0144326
0.0370428
0.0489568
0.0575159
0.0648004
0.0715455
0.0781092
0.0846928
0.0914124
0.0983315
0.105478
0.112858
0.120464
0.128285
0.136305
0.144514
0.152904
0.16147
0.170214
0.179143
0.188265
0.197597
0.207158
0.216972
0.227067
0.237476
0.248234
0.259383
0.270967
0.283031
0.295623
0.308787
0.322561
0.336977
0.352057
0.367812
0.384241
0.401333
0.419077
0.437465
0.456497
0.476166
0.496459
0.517353
0.538825
0.56086
0.583453
0.606605
0.630318
0.654596
0.679442
0.704859
0.73085
0.757417
0.784562
0.812286
0.840591
0.869477
0.898944
0.92899
0.959615
0.990815
1.02259
1.05493
1.08783
1.12128
1.15528
1.18981
1.22487
1.26044
1.2965
1.33303
1.37003
1.40747
1.44533
1.48358
1.52221
1.56118
1.60047
1.64005
1.67989
1.71997
1.76024
1.80069
1.84127
1.88196
1.92272
1.96353
2.00434
2.04512
2.08585
2.12648
2.16699
2.20735
2.24751
2.28745
2.32713
2.3665
2.40541
2.44386
2.48182
2.51926
2.55614
2.59242
2.62807
2.66302
2.69725
2.7307
2.76333
2.7951
2.82597
2.8559
2.88484
2.91277
2.93963
2.96541
2.99006
3.01355
3.03585
3.05694
3.07678
3.09537
3.11266
3.12865
3.14332
3.15666
3.16864
3.17927
3.18853
3.19642
3.20293
3.20807
3.21183
3.21423
3.21526
3.21494
3.21329
3.2103
3.20601
3.20043
3.19357
3.18547
3.17615
3.16563
3.15394
3.14112
3.12719
3.11221
3.09618
3.07915
3.06118
3.0423
3.02249
3.0019
2.98055
2.95844
2.93568
2.91229
2.88832
2.86382
2.83884
2.81343
2.78764
2.76152
2.73515
2.70859
2.68191
2.65516
2.62836
2.60153
2.57474
2.54804
2.52152
2.49527
2.46943
2.44417
2.41972
2.39638
2.37416
2.35315
0.0169499
0.0417721
0.0547714
0.0640703
0.0719157
0.0791006
0.0860114
0.0928679
0.0998029
0.106895
0.114189
0.121703
0.129444
0.13741
0.145594
0.153992
0.162602
0.171426
0.180468
0.189739
0.199254
0.209032
0.219096
0.229472
0.240192
0.251288
0.262798
0.27476
0.287215
0.300201
0.313758
0.327921
0.34272
0.358178
0.37431
0.391126
0.408625
0.426804
0.445656
0.465174
0.485356
0.506195
0.527686
0.549817
0.572578
0.595962
0.619965
0.644587
0.669832
0.695704
0.722208
0.749349
0.777132
0.805562
0.834644
0.86438
0.894776
0.925833
0.957553
0.989938
1.02299
1.0567
1.09107
1.1261
1.16178
1.19811
1.23507
1.27266
1.31086
1.34966
1.38904
1.42899
1.46948
1.5105
1.55201
1.59399
1.63642
1.67927
1.72249
1.76607
1.80997
1.85414
1.89857
1.9432
1.988
2.03294
2.07797
2.12306
2.16818
2.21327
2.25831
2.30326
2.34807
2.3927
2.43713
2.48131
2.5252
2.56865
2.61161
2.65407
2.69597
2.73729
2.77799
2.81801
2.8573
2.89582
2.93351
2.97033
3.00624
3.04117
3.07509
3.10795
3.13971
3.17032
3.19976
3.22796
3.25491
3.28057
3.3049
3.32786
3.34945
3.36962
3.38836
3.40564
3.42146
3.43579
3.44862
3.45995
3.46976
3.47805
3.48481
3.49005
3.49378
3.49599
3.4967
3.49592
3.49366
3.48995
3.48479
3.47821
3.47023
3.46088
3.4502
3.43821
3.42494
3.41041
3.3947
3.37782
3.35981
3.34067
3.32055
3.29944
3.27738
3.25444
3.23067
3.2061
3.1808
3.15483
3.12822
3.10104
3.07334
3.04516
3.01658
2.98763
2.9584
2.92894
2.89932
2.8696
2.83983
2.81004
2.7803
2.7507
2.72132
2.69229
2.66376
2.63594
2.60906
2.58343
2.55902
2.53588
0.0190963
0.0457412
0.0596387
0.0695574
0.0778751
0.0854291
0.092627
0.099703
0.106802
0.114017
0.121403
0.128994
0.136806
0.144849
0.153123
0.161633
0.170381
0.179375
0.188622
0.198138
0.207939
0.218048
0.22849
0.239291
0.250484
0.262102
0.274178
0.28675
0.299852
0.313518
0.327782
0.342673
0.358214
0.374425
0.391321
0.408909
0.427194
0.446175
0.46585
0.486218
0.507277
0.529025
0.551461
0.574582
0.598385
0.622868
0.648033
0.673882
0.700421
0.727656
0.755594
0.784242
0.813609
0.843702
0.874528
0.906094
0.938406
0.971469
1.00529
1.03986
1.0752
1.1113
1.14816
1.18577
1.22414
1.26325
1.3031
1.34368
1.38497
1.42696
1.46963
1.51296
1.55692
1.6015
1.64667
1.69239
1.73864
1.78537
1.83256
1.88016
1.92814
1.97645
2.02506
2.07391
2.12298
2.17221
2.22155
2.27098
2.32043
2.36987
2.41926
2.46854
2.51768
2.56663
2.61534
2.66377
2.71186
2.75941
2.80643
2.85288
2.89872
2.9439
2.98838
3.0321
3.07501
3.11705
3.15817
3.19831
3.23742
3.27546
3.31236
3.34808
3.38258
3.41581
3.44772
3.47828
3.50744
3.53517
3.56142
3.58618
3.6094
3.63107
3.65115
3.66963
3.6865
3.70173
3.71531
3.72724
3.73751
3.74611
3.75303
3.75829
3.7619
3.76385
3.76415
3.76284
3.75991
3.75539
3.74931
3.74168
3.73252
3.72189
3.7098
3.69631
3.68142
3.66515
3.64762
3.62885
3.60886
3.5877
3.56545
3.54214
3.51782
3.49255
3.46638
3.43937
3.41157
3.38304
3.35383
3.32401
3.29362
3.26273
3.23139
3.19966
3.16761
3.1353
3.10281
3.0702
3.03752
3.00484
2.97223
2.93978
2.90761
2.87585
2.84467
2.81429
2.78495
2.75692
2.73014
2.70463
0.0208563
0.0489646
0.0635762
0.0739904
0.0826856
0.090533
0.0979552
0.105196
0.112411
0.119701
0.127134
0.134752
0.142584
0.150646
0.15895
0.167506
0.176321
0.185407
0.194777
0.204447
0.214438
0.224772
0.235474
0.246573
0.258098
0.270082
0.282555
0.295552
0.309103
0.323239
0.337988
0.353377
0.369426
0.386153
0.403575
0.421699
0.440535
0.460085
0.480354
0.501345
0.523059
0.5455
0.568672
0.592577
0.617218
0.6426
0.668728
0.69561
0.723253
0.751667
0.780863
0.81085
0.84164
0.873243
0.90567
0.938931
0.973033
1.00799
1.0438
1.08047
1.118
1.15641
1.19568
1.23582
1.27683
1.31868
1.36139
1.40493
1.4493
1.49447
1.54042
1.58714
1.63459
1.68276
1.7316
1.78108
1.83117
1.88183
1.93302
1.98468
2.03678
2.08927
2.1421
2.19522
2.24858
2.30213
2.35582
2.4096
2.46341
2.51722
2.57096
2.6246
2.67807
2.73133
2.78433
2.83702
2.8892
2.94083
2.99186
3.04227
3.09199
3.14098
3.18918
3.23653
3.28297
3.32845
3.3729
3.41626
3.45848
3.49951
3.53928
3.57775
3.61487
3.65058
3.68485
3.71763
3.74888
3.77855
3.80661
3.83302
3.85776
3.88079
3.90209
3.92164
3.93943
3.95544
3.96966
3.98208
3.99269
4.00149
4.00847
4.01366
4.01704
4.01864
4.01846
4.01653
4.01286
4.00748
4.00041
3.99167
3.98129
3.96932
3.9558
3.94078
3.92427
3.90631
3.88699
3.86633
3.84439
3.82121
3.79685
3.77137
3.74482
3.71725
3.68873
3.65931
3.62906
3.59802
3.56626
3.53385
3.50083
3.46728
3.43325
3.3988
3.36401
3.32893
3.29365
3.25822
3.22272
3.18723
3.15183
3.11662
3.08172
3.04728
3.01348
2.98056
2.94873
2.91823
2.88897
2.86097
0.0222301
0.0514742
0.0666238
0.0774107
0.0863874
0.0944499
0.102031
0.109382
0.116664
0.123986
0.131422
0.139026
0.146832
0.154867
0.163149
0.171693
0.180514
0.189626
0.199044
0.208789
0.218879
0.229339
0.240194
0.251471
0.263199
0.275407
0.288125
0.301382
0.315209
0.329632
0.344678
0.36037
0.37673
0.393778
0.411527
0.429993
0.449186
0.469116
0.489791
0.511219
0.533408
0.556366
0.580102
0.604623
0.62994
0.656061
0.682998
0.710761
0.739364
0.768819
0.799142
0.830345
0.862443
0.895451
0.929383
0.96425
1.00006
1.03684
1.07458
1.1133
1.15299
1.19367
1.23534
1.27799
1.32161
1.36622
1.41178
1.4583
1.50576
1.55413
1.6034
1.65353
1.70451
1.75629
1.80884
1.86212
1.91609
1.97071
2.02592
2.08168
2.13793
2.19462
2.25169
2.30908
2.36674
2.42461
2.48263
2.54075
2.5989
2.65704
2.71511
2.77305
2.83081
2.88832
2.94554
3.00235
3.05857
3.11416
3.16911
3.22334
3.27683
3.32949
3.38128
3.43212
3.48195
3.5307
3.57832
3.62473
3.66989
3.71372
3.75619
3.79722
3.83677
3.87479
3.91123
3.94604
3.97919
4.01063
4.04031
4.0682
4.09427
4.11849
4.14083
4.16129
4.17984
4.19648
4.21119
4.22396
4.23478
4.24365
4.25057
4.25555
4.25861
4.25976
4.25901
4.25638
4.25189
4.24557
4.23746
4.22759
4.21597
4.20266
4.18771
4.17116
4.15304
4.1334
4.1123
4.08979
4.06593
4.04076
4.01435
3.98674
3.95801
3.92821
3.8974
3.86565
3.83301
3.79955
3.76533
3.73041
3.69486
3.65874
3.62211
3.58504
3.5476
3.50985
3.47188
3.43375
3.39554
3.35735
3.31925
3.28137
3.24383
3.20679
3.17044
3.135
3.10068
3.06769
3.03589
3.00536
0.0232331
0.0533192
0.0688431
0.0798854
0.08905
0.0972496
0.104924
0.112329
0.11963
0.126939
0.13434
0.141889
0.149632
0.157599
0.165814
0.174299
0.183072
0.192149
0.20155
0.211295
0.221404
0.231901
0.24281
0.254157
0.26597
0.278275
0.291102
0.304478
0.31843
0.332985
0.348169
0.364004
0.380514
0.397719
0.415638
0.434288
0.453684
0.473842
0.494774
0.516496
0.539019
0.562359
0.586528
0.611542
0.637414
0.664162
0.691799
0.720344
0.749812
0.780223
0.811594
0.843944
0.877291
0.911653
0.947047
0.98349
1.021
1.05958
1.09925
1.14001
1.18188
1.22485
1.26894
1.31413
1.36042
1.40781
1.45628
1.50583
1.55642
1.60805
1.66067
1.71427
1.76881
1.82425
1.88056
1.93767
1.99555
2.05415
2.1134
2.17326
2.23366
2.29453
2.35582
2.41745
2.47936
2.54149
2.60377
2.66615
2.72855
2.79092
2.8532
2.91533
2.97724
3.03887
3.10016
3.16085
3.22091
3.28028
3.33893
3.39679
3.45381
3.50992
3.56506
3.61915
3.67212
3.7239
3.77442
3.82362
3.87144
3.91783
3.96271
4.00604
4.04775
4.0878
4.12615
4.16273
4.19752
4.23048
4.26154
4.29067
4.31783
4.34301
4.36618
4.38733
4.40645
4.42351
4.43852
4.45147
4.46234
4.47112
4.47783
4.48249
4.4851
4.48569
4.48427
4.48086
4.4755
4.46821
4.45903
4.44798
4.43511
4.42046
4.40408
4.38602
4.36631
4.34501
4.32219
4.29788
4.27215
4.24506
4.21666
4.18702
4.1562
4.12426
4.09127
4.05728
4.02237
3.9866
3.95004
3.91274
3.87478
3.83623
3.79714
3.75758
3.71763
3.67736
3.63683
3.59615
3.55537
3.51461
3.47396
3.43353
3.39347
3.35393
3.31511
3.27722
3.24046
3.205
3.17069
3.13764
0.023894
0.054563
0.0703127
0.081502
0.0907658
0.0990272
0.10673
0.114133
0.121403
0.128659
0.135984
0.143445
0.151088
0.15895
0.16706
0.175443
0.18412
0.193111
0.202436
0.212115
0.222169
0.232622
0.243497
0.254819
0.266613
0.278908
0.291728
0.305102
0.319056
0.333617
0.348811
0.364662
0.381195
0.398434
0.416401
0.435118
0.454604
0.474881
0.495968
0.517885
0.540652
0.564288
0.588814
0.61425
0.640617
0.667936
0.696229
0.725518
0.755825
0.787173
0.819585
0.853084
0.887692
0.92343
0.96032
0.99838
1.03763
1.07808
1.11975
1.16264
1.20676
1.25212
1.29872
1.34654
1.39559
1.44586
1.49733
1.54999
1.60381
1.65876
1.71482
1.77195
1.83011
1.88925
1.94933
2.01029
2.07209
2.13465
2.19792
2.26184
2.32633
2.39132
2.45673
2.52249
2.58853
2.65478
2.72117
2.78762
2.85409
2.92049
2.98676
3.05285
3.11868
3.1842
3.24914
3.31343
3.37701
3.43984
3.50186
3.56301
3.62322
3.68242
3.74055
3.79754
3.85328
3.90771
3.96076
4.01237
4.06248
4.11103
4.15796
4.2032
4.24672
4.28844
4.32833
4.36634
4.40244
4.43659
4.46872
4.49877
4.52672
4.55257
4.57629
4.59787
4.61729
4.63454
4.64962
4.66253
4.67324
4.68177
4.68813
4.69233
4.69438
4.69431
4.69213
4.68788
4.68158
4.67327
4.66298
4.65075
4.63662
4.62064
4.60286
4.58331
4.56207
4.53917
4.51468
4.48866
4.46115
4.43224
4.40197
4.37041
4.33763
4.30368
4.26865
4.23258
4.19556
4.15764
4.1189
4.0794
4.0392
3.99839
3.95702
3.91515
3.87288
3.83026
3.78737
3.74431
3.70116
3.65801
3.61497
3.57216
3.52973
3.48785
3.44669
3.40645
3.36734
3.32949
3.29273
3.25725
0.0242529
0.0552804
0.0711239
0.0823623
0.0916433
0.0998953
0.107565
0.114911
0.122103
0.129262
0.136477
0.143814
0.151324
0.159049
0.167019
0.175263
0.183803
0.192661
0.201857
0.211413
0.221349
0.231688
0.242454
0.253671
0.265364
0.277558
0.290281
0.303561
0.317423
0.331897
0.347009
0.362788
0.37926
0.396454
0.414395
0.433111
0.452628
0.472971
0.494169
0.516246
0.53923
0.563147
0.588025
0.613891
0.640772
0.668694
0.697685
0.727772
0.758984
0.791349
0.824893
0.859644
0.895628
0.932869
0.971392
1.01122
1.05236
1.09485
1.13868
1.18388
1.23044
1.27836
1.32763
1.37826
1.43024
1.48354
1.53815
1.59405
1.65121
1.7096
1.76918
1.8299
1.89172
1.95458
2.01844
2.08323
2.14888
2.21534
2.28253
2.35038
2.41882
2.48777
2.55712
2.62679
2.69672
2.76681
2.83701
2.90724
2.97744
3.04753
3.11744
3.18712
3.2565
3.32532
3.39347
3.4609
3.52755
3.59336
3.65827
3.7222
3.78508
3.84686
3.90748
3.96688
4.02487
4.08143
4.13649
4.19
4.24189
4.2921
4.34058
4.38726
4.4321
4.47503
4.51601
4.555
4.59195
4.62684
4.65959
4.69019
4.71858
4.74477
4.76872
4.79043
4.80988
4.82706
4.84197
4.85461
4.86497
4.87306
4.8789
4.88249
4.88385
4.88301
4.87999
4.87482
4.86753
4.85816
4.84675
4.83333
4.81796
4.80067
4.78152
4.76056
4.73785
4.71344
4.68739
4.65977
4.63062
4.60002
4.56803
4.53472
4.50014
4.46438
4.42749
4.38954
4.35061
4.31075
4.27005
4.22856
4.18636
4.14351
4.10008
4.05615
4.01178
3.96705
3.92204
3.87684
3.83153
3.78622
3.74101
3.69604
3.65144
3.60739
3.56405
3.52164
3.48031
3.4402
3.40114
3.36334
0.0243596
0.055554
0.0713761
0.0825764
0.0918004
0.0999771
0.107554
0.114791
0.121861
0.128884
0.135952
0.143134
0.150482
0.15804
0.16584
0.173912
0.182279
0.190965
0.19999
0.209375
0.219143
0.229315
0.239915
0.250967
0.262497
0.274531
0.287098
0.300225
0.313942
0.328279
0.343267
0.358937
0.375321
0.392451
0.41036
0.429079
0.448642
0.469082
0.490432
0.512726
0.536
0.560288
0.585625
0.612045
0.639583
0.668269
0.698135
0.729215
0.761542
0.795148
0.830066
0.866324
0.903951
0.942973
0.983416
1.0253
1.06864
1.11347
1.15978
1.20759
1.25689
1.30766
1.35989
1.41358
1.46872
1.52527
1.58321
1.64252
1.70316
1.76508
1.82824
1.89259
1.95807
2.02463
2.09219
2.16069
2.23005
2.30021
2.37109
2.44261
2.51471
2.58734
2.66027
2.73346
2.80684
2.88033
2.95387
3.02738
3.10079
3.17404
3.24705
3.31976
3.39189
3.46335
3.53407
3.60398
3.67303
3.74113
3.80823
3.87425
3.93912
4.00277
4.06513
4.12614
4.18568
4.24368
4.3001
4.35485
4.40789
4.45914
4.50856
4.55609
4.60166
4.64524
4.68677
4.72622
4.76353
4.79868
4.83162
4.86231
4.89073
4.91686
4.94068
4.96217
4.98132
4.99814
5.01261
5.02473
5.03452
5.04197
5.0471
5.04992
5.05047
5.04875
5.04479
5.03864
5.03032
5.01987
5.00733
4.99274
4.97616
4.95762
4.93719
4.91491
4.89085
4.86506
4.83759
4.80852
4.77791
4.74581
4.7123
4.67744
4.6413
4.60394
4.56544
4.52587
4.48528
4.44376
4.40136
4.35816
4.31423
4.26964
4.22444
4.17873
4.13255
4.086
4.03915
3.99209
3.94491
3.89771
3.85061
3.80373
3.75721
3.71122
3.66593
3.62154
3.57819
3.53602
3.49484
3.4549
0.0242716
0.0554706
0.0711718
0.0822573
0.0913576
0.0993991
0.10683
0.113911
0.120815
0.127667
0.134556
0.141554
0.148714
0.15608
0.163685
0.171559
0.179727
0.188211
0.197035
0.206219
0.215786
0.225759
0.236162
0.247022
0.258365
0.27022
0.282617
0.295588
0.309165
0.323383
0.338276
0.353882
0.370239
0.387384
0.405358
0.4242
0.443949
0.464646
0.486333
0.509053
0.532851
0.55777
0.583855
0.611151
0.639699
0.669524
0.700663
0.733154
0.767036
0.802342
0.839107
0.877361
0.917131
0.95844
1.00131
1.04576
1.0918
1.13945
1.18872
1.23964
1.29215
1.34618
1.40175
1.45883
1.51742
1.57746
1.63894
1.70181
1.76602
1.83152
1.89826
1.96616
2.03518
2.10524
2.17626
2.24818
2.32091
2.39437
2.46848
2.54317
2.61834
2.6939
2.76975
2.84578
2.92193
2.99811
3.07425
3.15029
3.22614
3.30177
3.37703
3.45168
3.52564
3.59886
3.67125
3.74275
3.81328
3.88277
3.95115
4.01835
4.0843
4.14893
4.21218
4.27395
4.33419
4.39281
4.44975
4.50495
4.55835
4.60989
4.65951
4.70716
4.75279
4.79636
4.8378
4.87709
4.91419
4.94905
4.98164
5.01194
5.03991
5.06554
5.0888
5.10969
5.1282
5.14432
5.15806
5.16941
5.17838
5.18498
5.18922
5.19113
5.19072
5.18803
5.18307
5.17589
5.16651
5.15499
5.14135
5.12565
5.10793
5.08824
5.06665
5.04319
5.01793
4.99093
4.96224
4.93194
4.90008
4.86673
4.83196
4.79583
4.7584
4.71975
4.67994
4.63905
4.59713
4.55426
4.51051
4.46594
4.42062
4.37462
4.32801
4.28085
4.23323
4.1852
4.13686
4.08828
4.03957
3.99081
3.94213
3.89365
3.84552
3.79788
3.75092
3.7048
3.65969
3.61569
3.57264
3.53079
0.0240418
0.0551061
0.0705953
0.0814937
0.0904054
0.0982521
0.105482
0.112358
0.119055
0.125698
0.132376
0.139162
0.146108
0.153257
0.160645
0.1683
0.176249
0.184515
0.193122
0.202094
0.211455
0.221231
0.231448
0.242136
0.253326
0.26505
0.277344
0.290245
0.303791
0.318023
0.332983
0.348716
0.365269
0.382693
0.401037
0.420347
0.440667
0.462047
0.484541
0.508203
0.533087
0.559246
0.586737
0.615622
0.645978
0.677754
0.711
0.745765
0.782089
0.820004
0.859539
0.900717
0.943556
0.98807
1.03427
1.08216
1.13173
1.183
1.23594
1.29054
1.34677
1.40458
1.46394
1.52481
1.58716
1.65094
1.7161
1.78259
1.85035
1.91932
1.98944
2.06063
2.13282
2.20595
2.27993
2.35468
2.43012
2.50617
2.58275
2.65976
2.73713
2.81476
2.89256
2.97045
3.04833
3.12615
3.20383
3.28131
3.35851
3.43521
3.51127
3.58664
3.66124
3.735
3.80784
3.8797
3.95049
4.02017
4.08864
4.15585
4.22173
4.2862
4.34921
4.41068
4.47054
4.52873
4.58519
4.63985
4.69265
4.74355
4.79248
4.8394
4.88426
4.92701
4.96761
5.00602
5.04221
5.07613
5.10776
5.13708
5.16405
5.18866
5.2109
5.23075
5.24821
5.26326
5.27593
5.2862
5.29409
5.2996
5.30276
5.30358
5.30209
5.29831
5.29228
5.28402
5.27358
5.26099
5.2463
5.22954
5.21078
5.19006
5.16744
5.14296
5.11669
5.08869
5.05901
5.02772
4.99488
4.96055
4.92481
4.8877
4.84931
4.80969
4.76892
4.72705
4.68416
4.64031
4.59557
4.55001
4.50368
4.45667
4.40902
4.36081
4.31211
4.263
4.21354
4.16383
4.11395
4.064
4.0141
3.96437
3.91494
3.86597
3.81764
3.7701
3.72349
3.67795
3.63329
3.58981
0.0237896
0.0546074
0.0698153
0.0804692
0.0891414
0.0967486
0.10374
0.110382
0.116849
0.123266
0.129724
0.136292
0.143024
0.149963
0.157145
0.164599
0.172355
0.180438
0.188877
0.197699
0.206932
0.21661
0.226764
0.237431
0.248651
0.260463
0.272913
0.286047
0.299919
0.314579
0.330073
0.34646
0.363804
0.382176
0.401657
0.422291
0.444091
0.467136
0.491493
0.517226
0.544395
0.573055
0.603261
0.635064
0.668504
0.703596
0.740364
0.778832
0.819021
0.860945
0.904612
0.950024
0.997177
1.04606
1.09666
1.14896
1.20293
1.25854
1.31577