/*--------------------------------*- C++ -*----------------------------------*\
  =========                 |
  \\      /  F ield         | OpenFOAM: The Open Source CFD Toolbox
   \\    /   O peration     | Website:  https://openfoam.org
    \\  /    A nd           | Version:  9
     \\/     M anipulation  |
\*---------------------------------------------------------------------------*/
FoamFile
{
    format      ascii;
    class       volScalarField;
    location    "0.26";
    object      p;
}
// * * * * * * * * * * * * * * * * * * * * * * * * * * * * * * * * * * * * * //

dimensions      [0 2 -2 0 0 0 0];

internalField   nonuniform List<scalar> 
12225
(
-1.18943
-3.47245
-4.63498
-4.94326
-5.11165
-5.27153
-5.39632
-5.48497
-5.55485
-5.61619
-5.67078
-5.71846
-5.75955
-5.79339
-5.81888
-5.82575
-5.8237
-5.71709
-4.65693
-5.35906
-5.44935
-5.3144
-5.27447
-5.34192
-5.42288
-5.48898
-5.54628
-5.60001
-5.64998
-5.69502
-5.73487
-5.76865
-5.79596
-5.80982
-5.82304
-5.8087
-4.86168
-4.75875
-4.91558
-5.03781
-5.14532
-5.26781
-5.37632
-5.45924
-5.52675
-5.58695
-5.64153
-5.69025
-5.73328
-5.77038
-5.80197
-5.82499
-5.85365
-5.88687
-4.72438
-4.64628
-4.92241
-5.10124
-5.19583
-5.29315
-5.38849
-5.46631
-5.53121
-5.58979
-5.64351
-5.69203
-5.73549
-5.77404
-5.80872
-5.83959
-5.87833
-5.93115
-4.73135
-4.74863
-4.98877
-5.13878
-5.21496
-5.29985
-5.38969
-5.46603
-5.53032
-5.58843
-5.64203
-5.69093
-5.73541
-5.77603
-5.81426
-5.85181
-5.89725
-5.95732
-4.79303
-4.83551
-5.01336
-5.1442
-5.22234
-5.30506
-5.39159
-5.46672
-5.53066
-5.58853
-5.64216
-5.69156
-5.73713
-5.77974
-5.82108
-5.86341
-5.91284
-5.97474
-4.85276
-4.8923
-5.02876
-5.15108
-5.23361
-5.31352
-5.39543
-5.46856
-5.53196
-5.58953
-5.64311
-5.69296
-5.73955
-5.7839
-5.82771
-5.87323
-5.92467
-5.9855
-4.90589
-4.94081
-5.05117
-5.1639
-5.2466
-5.32269
-5.39986
-5.47081
-5.53354
-5.59076
-5.64427
-5.69449
-5.74198
-5.78777
-5.8334
-5.88081
-5.93275
-5.99109
-4.95567
-4.98742
-5.07827
-5.17917
-5.25938
-5.33203
-5.405
-5.47361
-5.53545
-5.59221
-5.64555
-5.69603
-5.74421
-5.79103
-5.83782
-5.88606
-5.93746
-5.99279
-5.00301
-5.03165
-5.10688
-5.19588
-5.27239
-5.34195
-5.41108
-5.47714
-5.5378
-5.59396
-5.647
-5.69755
-5.74613
-5.79356
-5.84088
-5.88914
-5.93934
-5.99158
-5.04776
-5.07306
-5.13591
-5.21406
-5.28606
-5.3525
-5.41804
-5.48142
-5.54065
-5.59604
-5.64862
-5.69902
-5.74771
-5.79532
-5.84263
-5.89033
-5.93895
-5.98825
-5.08624
-5.10859
-5.16248
-5.23182
-5.2992
-5.36262
-5.42506
-5.48597
-5.54371
-5.59823
-5.65024
-5.70029
-5.74879
-5.79623
-5.84314
-5.88998
-5.937
-5.98383
-5.12191
-5.14172
-5.18829
-5.24989
-5.31256
-5.3729
-5.43244
-5.49093
-5.54709
-5.60061
-5.65192
-5.70146
-5.74956
-5.79656
-5.84283
-5.88861
-5.93399
-5.97858
-5.1594
-5.17672
-5.21654
-5.27059
-5.32802
-5.38481
-5.44121
-5.49702
-5.55128
-5.60351
-5.65385
-5.70261
-5.75001
-5.79625
-5.84153
-5.88594
-5.92948
-5.97178
-5.19747
-5.21238
-5.24626
-5.29332
-5.34528
-5.39814
-5.45121
-5.50418
-5.55624
-5.60685
-5.65593
-5.70359
-5.74993
-5.79505
-5.83901
-5.88179
-5.92335
-5.96339
-5.23417
-5.24693
-5.27581
-5.31676
-5.36346
-5.41225
-5.46194
-5.51199
-5.56166
-5.61038
-5.65789
-5.70413
-5.74909
-5.79276
-5.83511
-5.87609
-5.91562
-5.9535
-5.26663
-5.27763
-5.30262
-5.33865
-5.38078
-5.42578
-5.47229
-5.51954
-5.56681
-5.61349
-5.65922
-5.7038
-5.74714
-5.78914
-5.82974
-5.86884
-5.90639
-5.94225
-5.29046
-5.30026
-5.32265
-5.35533
-5.39417
-5.4363
-5.48027
-5.52522
-5.5704
-5.61521
-5.65919
-5.7021
-5.74377
-5.78408
-5.82292
-5.86023
-5.89595
-5.93002
-5.29873
-5.30808
-5.32954
-5.36106
-5.39872
-5.43969
-5.48248
-5.52622
-5.57019
-5.61376
-5.65647
-5.69805
-5.73833
-5.77719
-5.81455
-5.85035
-5.88457
-5.91719
-5.28365
-5.29369
-5.31666
-5.35027
-5.39003
-5.43259
-5.4764
-5.5208
-5.56516
-5.60884
-5.65139
-5.6926
-5.73234
-5.77054
-5.80713
-5.8421
-5.87545
-5.9072
-5.25737
-5.26855
-5.29431
-5.332
-5.37572
-5.42123
-5.46721
-5.51335
-5.55901
-5.6035
-5.64648
-5.68785
-5.72756
-5.76557
-5.80187
-5.83646
-5.86939
-5.90071
-5.22236
-5.23472
-5.26473
-5.30917
-5.35862
-5.40769
-5.45635
-5.50497
-5.5526
-5.59835
-5.64206
-5.68384
-5.72376
-5.7618
-5.79798
-5.83239
-5.86507
-5.89613
-5.18169
-5.19428
-5.22962
-5.28417
-5.34124
-5.39417
-5.44567
-5.49698
-5.54666
-5.59374
-5.63831
-5.68068
-5.72094
-5.75911
-5.7953
-5.82963
-5.86218
-5.89308
-5.13782
-5.14937
-5.19173
-5.25829
-5.32293
-5.3805
-5.43632
-5.49091
-5.54233
-5.59029
-5.63551
-5.67838
-5.71891
-5.75718
-5.79335
-5.8276
-5.86004
-5.89081
-5.09094
-5.09868
-5.15969
-5.23943
-5.3045
-5.36408
-5.42589
-5.48537
-5.53902
-5.58796
-5.63387
-5.67722
-5.71797
-5.75627
-5.79238
-5.82652
-5.85885
-5.88955
-5.04297
-5.01931
-5.13007
-5.23895
-5.29945
-5.35346
-5.41679
-5.47904
-5.5342
-5.58407
-5.6308
-5.67474
-5.71582
-5.75427
-5.79043
-5.82456
-5.85687
-5.88751
-5.03365
-4.8893
-5.0483
-5.21443
-5.29885
-5.35977
-5.42446
-5.48549
-5.5391
-5.58809
-5.63434
-5.67783
-5.71846
-5.75647
-5.7922
-5.82594
-5.85794
-5.88838
-5.17905
-4.89523
-4.92993
-5.06031
-5.1798
-5.2867
-5.38064
-5.45626
-5.51835
-5.57342
-5.62398
-5.67038
-5.71296
-5.75234
-5.78904
-5.82345
-5.85608
-5.88757
-5.11584
-5.61552
-5.62559
-5.46626
-5.38519
-5.40928
-5.4633
-5.51256
-5.5575
-5.60188
-5.64533
-5.68655
-5.7252
-5.76146
-5.79553
-5.82753
-5.85771
-5.88791
-1.77716
-3.6477
-4.71893
-5.01191
-5.14665
-5.28328
-5.39506
-5.47491
-5.5377
-5.59354
-5.64464
-5.6911
-5.73348
-5.77252
-5.80864
-5.84186
-5.87183
-5.89678
-6.79473
-6.7947
-6.79502
-6.79564
-6.79647
-6.79746
-6.79861
-6.79996
-6.80151
-6.80329
-6.80532
-6.80764
-6.81028
-6.81328
-6.81668
-6.82052
-6.82483
-6.82965
-6.83502
-6.84099
-6.84758
-6.85484
-6.86282
-6.87155
-6.88108
-6.89145
-6.90273
-6.91495
-6.92818
-6.94246
-6.95782
-6.9743
-6.99189
-7.01051
-7.03035
-7.05184
-7.07469
-7.099
-7.12818
-7.16519
-7.19896
-7.21247
-7.22293
-7.24621
-7.27282
-7.30051
-7.32908
-7.35863
-7.38887
-7.4197
-7.45097
-7.48258
-7.51441
-7.54634
-7.57827
-7.61008
-7.64167
-7.67292
-7.70371
-7.73392
-7.76342
-7.79209
-7.81978
-7.84636
-7.87167
-7.89557
-7.9179
-7.93849
-7.95718
-7.97379
-7.98815
-8.00008
-8.0094
-8.01592
-8.01945
-8.0198
-8.01679
-8.01023
-7.99992
-7.98567
-7.96731
-7.94463
-7.91748
-7.88565
-7.84898
-7.80731
-7.76045
-7.70825
-7.65056
-7.58722
-7.51809
-7.44304
-7.36194
-7.27468
-7.18114
-7.08123
-6.97491
-6.86222
-6.74311
-6.61736
-6.48478
-6.34509
-6.19848
-6.045
-5.88468
-5.71755
-5.54363
-5.36296
-5.17561
-4.98165
-4.78116
-4.57426
-4.36107
-4.14171
-3.91635
-3.68515
-3.44829
-3.20597
-2.9584
-2.7058
-2.4484
-2.18646
-1.92023
-1.64998
-1.37598
-1.09853
-0.817913
-0.534431
-0.248392
0.0398961
0.330117
0.621955
0.915091
1.20921
1.50398
1.79911
2.09426
2.38914
2.68343
2.97684
3.26908
3.55986
3.8489
4.13593
4.42071
4.70298
4.9825
5.25906
5.53244
5.80244
6.06887
6.33156
6.59035
6.84508
7.09562
7.34185
7.58365
7.82092
8.05356
8.28151
8.50468
8.72302
8.93649
9.14507
9.34872
9.54741
9.74097
9.92926
10.1123
10.29
10.4626
10.6298
10.7919
10.9487
11.1005
11.2474
11.3905
11.531
11.6779
11.832
-6.79372
-6.79392
-6.79428
-6.79481
-6.79535
-6.79588
-6.79645
-6.79717
-6.79813
-6.79936
-6.8009
-6.80277
-6.80498
-6.80757
-6.81055
-6.81397
-6.81784
-6.8222
-6.82709
-6.83254
-6.83859
-6.84528
-6.85265
-6.86074
-6.86957
-6.87919
-6.88963
-6.9009
-6.91301
-6.92596
-6.93975
-6.95436
-6.96984
-6.98635
-7.00395
-7.0223
-7.04142
-7.06185
-7.08228
-7.09731
-7.10841
-7.13753
-7.18097
-7.21614
-7.24696
-7.27661
-7.30669
-7.33707
-7.3678
-7.39886
-7.43023
-7.46183
-7.49359
-7.52542
-7.55723
-7.58892
-7.62039
-7.65153
-7.68222
-7.71236
-7.74182
-7.77046
-7.79816
-7.82478
-7.85017
-7.87418
-7.89665
-7.91743
-7.93634
-7.95322
-7.96788
-7.98016
-7.98986
-7.99681
-8.00082
-8.00169
-7.99925
-7.99329
-7.98363
-7.97009
-7.95247
-7.93059
-7.90427
-7.87333
-7.83759
-7.7969
-7.75107
-7.69995
-7.64339
-7.58124
-7.51336
-7.43962
-7.35988
-7.27403
-7.18197
-7.08357
-6.97873
-6.86734
-6.74927
-6.62428
-6.4924
-6.35401
-6.2089
-6.05701
-5.89831
-5.73282
-5.56056
-5.38156
-5.19588
-5.00358
-4.80476
-4.59952
-4.38796
-4.17024
-3.94649
-3.71689
-3.4816
-3.24082
-2.99476
-2.74364
-2.48768
-2.22714
-1.96227
-1.69333
-1.4206
-1.14436
-0.864899
-0.582524
-0.297533
-0.0102353
0.279056
0.570025
0.862355
1.15573
1.44983
1.74434
2.03894
2.33334
2.62721
2.92027
3.21221
3.50276
3.79163
4.07857
4.36329
4.64557
4.92516
5.20184
5.47539
5.74561
6.0123
6.2753
6.53444
6.78956
7.04052
7.2872
7.52949
7.76726
8.00044
8.22894
8.45268
8.67162
8.88571
9.0949
9.29919
9.4985
9.69268
9.88163
10.0653
10.2438
10.417
10.585
10.7478
10.9055
11.0583
11.2065
11.3514
11.494
11.6444
11.7924
-6.79062
-6.79152
-6.79245
-6.79332
-6.79396
-6.79444
-6.79489
-6.79545
-6.79622
-6.79726
-6.79859
-6.80025
-6.80227
-6.80468
-6.80749
-6.81074
-6.81446
-6.81867
-6.82342
-6.82874
-6.83466
-6.84122
-6.84845
-6.8564
-6.86509
-6.87457
-6.88486
-6.89599
-6.90799
-6.92089
-6.93473
-6.94955
-6.96536
-6.98225
-7.00035
-7.01956
-7.03977
-7.06125
-7.08386
-7.10544
-7.12519
-7.14842
-7.17678
-7.20572
-7.23464
-7.26373
-7.2933
-7.32327
-7.35359
-7.38421
-7.41511
-7.44621
-7.47745
-7.50875
-7.54004
-7.57121
-7.60218
-7.63284
-7.66309
-7.6928
-7.72187
-7.75016
-7.77755
-7.80389
-7.82905
-7.85288
-7.87521
-7.8959
-7.91477
-7.93165
-7.94638
-7.95878
-7.96866
-7.97584
-7.98013
-7.98135
-7.97931
-7.97382
-7.9647
-7.95174
-7.93477
-7.91361
-7.88806
-7.85796
-7.82313
-7.78339
-7.73858
-7.68855
-7.63313
-7.57218
-7.50556
-7.43312
-7.35475
-7.27031
-7.1797
-7.0828
-6.9795
-6.86966
-6.75314
-6.63004
-6.50014
-6.36357
-6.22028
-6.07023
-5.91341
-5.74982
-5.57948
-5.40241
-5.21866
-5.02831
-4.83144
-4.62814
-4.41853
-4.20274
-3.9809
-3.75319
-3.51978
-3.28085
-3.03661
-2.78727
-2.53306
-2.27422
-2.01101
-1.74368
-1.47251
-1.19777
-0.919763
-0.638775
-0.355108
-0.0690697
0.21903
0.508877
0.800157
1.09255
1.38575
1.67943
1.97328
2.267
2.56027
2.8528
3.1443
3.43448
3.72305
4.00976
4.29433
4.57653
4.8561
5.13283
5.40649
5.67689
5.94382
6.20711
6.46658
6.72209
6.97349
7.22065
7.46345
7.70178
7.93554
8.16465
8.38903
8.60861
8.82334
9.03317
9.23807
9.43796
9.6328
9.82251
10.007
10.1863
10.3604
10.5293
10.6931
10.8518
11.0058
11.1555
11.3023
11.4466
11.5997
11.7376
-6.78578
-6.78734
-6.78918
-6.79077
-6.79189
-6.79269
-6.79337
-6.79408
-6.79492
-6.79599
-6.79732
-6.79896
-6.80096
-6.80333
-6.80611
-6.80932
-6.813
-6.81718
-6.82189
-6.82716
-6.83303
-6.83953
-6.8467
-6.85458
-6.86319
-6.87257
-6.88274
-6.89375
-6.90562
-6.91839
-6.93209
-6.94676
-6.96243
-6.97911
-6.99686
-7.01568
-7.03555
-7.05648
-7.07836
-7.10096
-7.12426
-7.14885
-7.17494
-7.20203
-7.22984
-7.25826
-7.28721
-7.31662
-7.34642
-7.37655
-7.40696
-7.43759
-7.46837
-7.49923
-7.53008
-7.56084
-7.59141
-7.62171
-7.65162
-7.68102
-7.70982
-7.73787
-7.76506
-7.79123
-7.81626
-7.84
-7.86228
-7.88296
-7.90186
-7.91882
-7.93366
-7.94622
-7.9563
-7.96372
-7.96831
-7.96986
-7.9682
-7.96314
-7.95448
-7.94204
-7.92563
-7.90506
-7.88017
-7.85076
-7.81666
-7.77771
-7.73373
-7.68456
-7.63006
-7.57006
-7.50443
-7.43302
-7.3557
-7.27235
-7.18285
-7.08708
-6.98494
-6.8763
-6.76107
-6.63924
-6.51076
-6.37561
-6.23375
-6.08515
-5.92979
-5.76768
-5.59882
-5.42324
-5.24101
-5.05216
-4.8568
-4.65501
-4.4469
-4.2326
-4.01225
-3.78601
-3.55405
-3.31655
-3.07372
-2.82577
-2.57292
-2.31541
-2.05349
-1.78741
-1.51746
-1.2439
-0.96703
-0.68713
-0.404504
-0.119457
0.167703
0.456664
0.747111
1.03873
1.3312
1.62422
1.91747
2.21064
2.50343
2.79553
3.08666
3.37652
3.66485
3.95136
4.23579
4.51791
4.79745
5.0742
5.34794
5.61845
5.88555
6.14905
6.40878
6.66459
6.91632
7.16385
7.40705
7.6458
7.88001
8.10959
8.33446
8.55456
8.76983
8.9802
9.18561
9.38598
9.58128
9.7715
9.95657
10.1365
10.3112
10.4807
10.6452
10.8047
10.9595
11.1101
11.2578
11.4022
11.5542
11.68
-6.78027
-6.78256
-6.78545
-6.78793
-6.78969
-6.79098
-6.79205
-6.79307
-6.79416
-6.79542
-6.79691
-6.7987
-6.80081
-6.80329
-6.80618
-6.80949
-6.81327
-6.81754
-6.82234
-6.8277
-6.83366
-6.84025
-6.84751
-6.85548
-6.86418
-6.87366
-6.88394
-6.89506
-6.90706
-6.91996
-6.9338
-6.94861
-6.96441
-6.98123
-6.99906
-7.01791
-7.03778
-7.05863
-7.08035
-7.1029
-7.12644
-7.15115
-7.17695
-7.20356
-7.23086
-7.25877
-7.28723
-7.31616
-7.34551
-7.37521
-7.40522
-7.43546
-7.46587
-7.49637
-7.52689
-7.55734
-7.58763
-7.61766
-7.64733
-7.67652
-7.70513
-7.73303
-7.76009
-7.78617
-7.81113
-7.83483
-7.85711
-7.87781
-7.89676
-7.91381
-7.92877
-7.94147
-7.95172
-7.95935
-7.96418
-7.966
-7.96463
-7.95989
-7.95159
-7.93954
-7.92354
-7.90343
-7.87901
-7.8501
-7.81654
-7.77815
-7.73476
-7.68621
-7.63235
-7.57303
-7.5081
-7.43742
-7.36086
-7.27828
-7.18958
-7.09463
-6.99333
-6.88558
-6.77131
-6.65044
-6.52295
-6.38879
-6.24793
-6.10033
-5.94598
-5.78488
-5.61704
-5.44249
-5.26127
-5.07346
-4.87912
-4.67835
-4.47126
-4.25797
-4.03863
-3.81338
-3.5824
-3.34588
-3.10401
-2.85699
-2.60506
-2.34845
-2.08741
-1.82219
-1.55307
-1.28031
-1.00421
-0.725058
-0.443144
-0.158775
0.127739
0.41609
0.705962
0.997043
1.28902
1.58158
1.8744
2.16719
2.45963
2.75143
3.0423
3.33194
3.62008
3.90644
4.19077
4.47282
4.75233
5.02909
5.30286
5.57345
5.84066
6.1043
6.3642
6.6202
6.87216
7.11993
7.36339
7.60244
7.83697
8.06689
8.29212
8.51258
8.72821
8.93894
9.14469
9.34537
9.54097
9.73148
9.91688
10.0971
10.2722
10.4421
10.607
10.7669
10.9221
11.073
11.2207
11.364
11.5132
11.6273
-6.77507
-6.7781
-6.78197
-6.78533
-6.7878
-6.78966
-6.79121
-6.79264
-6.79409
-6.79565
-6.79743
-6.79946
-6.80182
-6.80452
-6.80763
-6.81115
-6.81515
-6.81963
-6.82465
-6.83022
-6.8364
-6.84322
-6.85071
-6.85891
-6.86786
-6.87759
-6.88813
-6.89952
-6.9118
-6.92498
-6.9391
-6.95418
-6.97023
-6.98727
-7.0053
-7.0243
-7.04427
-7.06517
-7.08694
-7.10957
-7.13307
-7.15752
-7.18288
-7.20902
-7.23585
-7.26331
-7.29134
-7.31987
-7.34885
-7.3782
-7.40788
-7.43781
-7.46793
-7.49817
-7.52845
-7.55867
-7.58876
-7.61862
-7.64814
-7.67721
-7.70571
-7.73353
-7.76053
-7.78658
-7.81154
-7.83525
-7.85756
-7.87832
-7.89736
-7.91451
-7.92959
-7.94243
-7.95285
-7.96067
-7.96569
-7.96773
-7.96661
-7.96213
-7.9541
-7.94233
-7.92665
-7.90686
-7.88279
-7.85425
-7.82106
-7.78307
-7.7401
-7.69199
-7.63858
-7.57973
-7.51528
-7.44511
-7.36907
-7.28704
-7.1989
-7.10454
-7.00384
-6.89673
-6.78311
-6.66293
-6.53611
-6.40263
-6.26244
-6.11551
-5.96184
-5.80141
-5.63424
-5.46036
-5.27983
-5.09269
-4.89902
-4.69892
-4.4925
-4.27989
-4.06121
-3.83662
-3.60629
-3.37041
-3.12917
-2.88278
-2.63147
-2.37546
-2.11501
-1.85037
-1.5818
-1.30959
-1.03402
-0.755367
-0.473941
-0.19004
0.0960283
0.383954
0.673425
0.964127
1.25575
1.54798
1.8405
2.13301
2.4252
2.71677
3.00743
3.2969
3.58489
3.87114
4.15537
4.43734
4.71682
4.99355
5.26733
5.53795
5.80521
6.06893
6.32893
6.58504
6.83714
7.08507
7.32871
7.56795
7.80269
8.03283
8.25829
8.47899
8.69485
8.9058
9.11177
9.31266
9.50845
9.69916
9.88476
10.0652
10.2405
10.4107
10.5758
10.7359
10.8913
11.042
11.1892
11.3307
11.4769
11.5806
-6.77119
-6.77477
-6.77945
-6.78358
-6.7867
-6.78913
-6.79117
-6.79304
-6.79488
-6.79681
-6.79892
-6.80128
-6.80394
-6.80695
-6.81034
-6.81416
-6.81844
-6.82322
-6.82853
-6.8344
-6.84088
-6.84801
-6.85581
-6.86432
-6.87358
-6.88363
-6.89449
-6.9062
-6.91878
-6.93226
-6.94666
-6.96199
-6.97827
-6.99549
-7.01366
-7.03276
-7.05278
-7.0737
-7.09547
-7.11809
-7.14155
-7.16584
-7.19092
-7.21676
-7.24327
-7.27042
-7.29813
-7.32637
-7.35507
-7.38417
-7.41361
-7.44334
-7.47327
-7.50334
-7.53347
-7.56357
-7.59356
-7.62333
-7.65278
-7.68181
-7.71029
-7.73811
-7.76512
-7.7912
-7.81621
-7.83998
-7.86238
-7.88323
-7.90238
-7.91964
-7.93486
-7.94784
-7.95842
-7.96639
-7.97159
-7.97381
-7.97288
-7.96859
-7.96077
-7.94922
-7.93376
-7.9142
-7.89036
-7.86206
-7.82913
-7.7914
-7.7487
-7.70087
-7.64776
-7.58921
-7.52508
-7.45524
-7.37954
-7.29787
-7.21009
-7.11611
-7.01581
-6.90911
-6.79592
-6.67617
-6.54978
-6.41673
-6.27696
-6.13045
-5.97719
-5.81717
-5.65042
-5.47696
-5.29684
-5.11011
-4.91687
-4.71719
-4.51118
-4.29898
-4.08071
-3.85654
-3.62663
-3.39116
-3.15033
-2.90434
-2.65342
-2.39781
-2.13774
-1.87348
-1.60529
-1.33345
-1.05823
-0.779932
-0.498844
-0.21527
0.0704828
0.358105
0.647285
0.937709
1.22907
1.52105
1.81333
2.10563
2.39761
2.689
2.97949
3.26881
3.55667
3.84279
4.12693
4.40882
4.68822
4.96491
5.23866
5.50926
5.77652
6.04026
6.30029
6.55646
6.80862
7.05664
7.30038
7.53973
7.77459
8.00486
8.23046
8.4513
8.6673
8.87839
9.08449
9.28552
9.48146
9.67231
9.85804
10.0386
10.2141
10.3844
10.5496
10.7097
10.865
11.0154
11.1617
11.3013
11.4447
11.5393
-6.76903
-6.77302
-6.77831
-6.78306
-6.78674
-6.78967
-6.79217
-6.79447
-6.79671
-6.79901
-6.80147
-6.80417
-6.80716
-6.81049
-6.8142
-6.81834
-6.82295
-6.82805
-6.83368
-6.83988
-6.8467
-6.85415
-6.86228
-6.87113
-6.88072
-6.89109
-6.90227
-6.91428
-6.92715
-6.9409
-6.95554
-6.97108
-6.98754
-7.00491
-7.02319
-7.04236
-7.06241
-7.08333
-7.10508
-7.12766
-7.15105
-7.17522
-7.20016
-7.2258
-7.25212
-7.27907
-7.3066
-7.33465
-7.36318
-7.39214
-7.42145
-7.45106
-7.4809
-7.5109
-7.54098
-7.57105
-7.60102
-7.63079
-7.66027
-7.68933
-7.71786
-7.74574
-7.77283
-7.799
-7.82411
-7.84799
-7.8705
-7.89147
-7.91074
-7.92814
-7.94349
-7.95661
-7.96732
-7.97544
-7.98077
-7.98314
-7.98234
-7.97819
-7.97051
-7.9591
-7.94377
-7.92435
-7.90065
-7.87249
-7.8397
-7.80211
-7.75956
-7.71188
-7.65892
-7.60054
-7.53658
-7.46691
-7.3914
-7.30992
-7.22236
-7.12859
-7.02852
-6.92205
-6.80909
-6.68956
-6.56341
-6.43057
-6.29102
-6.14472
-5.99167
-5.83187
-5.66533
-5.49208
-5.31217
-5.12566
-4.93263
-4.73317
-4.52739
-4.31541
-4.09738
-3.87344
-3.64376
-3.40853
-3.16793
-2.92218
-2.67151
-2.41614
-2.15631
-1.8923
-1.62435
-1.35275
-1.07777
-0.799705
-0.51885
-0.235507
0.0500203
0.337421
0.626384
0.916598
1.20775
1.49953
1.79163
2.08374
2.37556
2.66678
2.95712
3.24629
3.53401
3.82002
4.10404
4.38582
4.66514
4.94174
5.21543
5.48597
5.75319
6.0169
6.27692
6.53309
6.78526
7.03329
7.27707
7.51646
7.75138
7.98171
8.20737
8.42828
8.64436
8.85553
9.0617
9.26283
9.45886
9.64981
9.83563
10.0163
10.1918
10.3622
10.5274
10.6875
10.8425
10.9924
11.1376
11.2752
11.416
11.5026
-6.76886
-6.77312
-6.77881
-6.784
-6.78812
-6.79146
-6.79436
-6.79703
-6.79963
-6.80227
-6.80507
-6.80808
-6.81139
-6.81503
-6.81906
-6.82351
-6.82842
-6.83383
-6.83978
-6.84629
-6.85342
-6.86118
-6.86962
-6.87877
-6.88865
-6.89931
-6.91076
-6.92303
-6.93614
-6.95011
-6.96494
-6.98066
-6.99725
-7.01473
-7.03308
-7.05231
-7.07239
-7.09331
-7.11505
-7.1376
-7.16094
-7.18505
-7.20989
-7.23544
-7.26166
-7.28851
-7.31595
-7.34392
-7.37239
-7.40129
-7.43057
-7.46017
-7.49002
-7.52003
-7.55015
-7.58027
-7.6103
-7.64016
-7.66972
-7.69889
-7.72753
-7.75553
-7.78275
-7.80905
-7.83428
-7.8583
-7.88094
-7.90205
-7.92145
-7.93897
-7.95445
-7.96768
-7.97851
-7.98673
-7.99216
-7.99461
-7.99389
-7.98982
-7.9822
-7.97085
-7.95558
-7.93621
-7.91255
-7.88443
-7.85168
-7.81413
-7.77161
-7.72397
-7.67105
-7.61271
-7.54879
-7.47918
-7.40372
-7.32231
-7.23481
-7.14112
-7.04113
-6.93473
-6.82184
-6.70238
-6.57629
-6.44351
-6.30401
-6.15777
-6.00477
-5.84502
-5.67853
-5.50533
-5.32548
-5.13904
-4.94608
-4.74669
-4.54099
-4.3291
-4.11116
-3.88732
-3.65775
-3.42262
-3.18215
-2.93653
-2.68598
-2.43075
-2.17107
-1.9072
-1.6394
-1.36796
-1.09314
-0.815243
-0.534555
-0.251379
0.0339771
0.321206
0.609997
0.900039
1.19102
1.48263
1.77456
2.06651
2.35816
2.64922
2.93941
3.22843
3.516
3.80186
4.08575
4.36741
4.64661
4.9231
5.19669
5.46714
5.73428
5.99791
6.25787
6.51399
6.76612
7.01412
7.25787
7.49726
7.73217
7.9625
8.18818
8.40911
8.62521
8.83641
9.04262
9.2438
9.43989
9.63088
9.81676
9.99748
10.173
10.3434
10.5085
10.6684
10.823
10.9722
11.1163
11.2519
11.3903
11.4701
-6.77076
-6.77513
-6.78103
-6.78648
-6.79089
-6.79455
-6.79775
-6.80073
-6.80362
-6.80656
-6.80963
-6.81292
-6.81649
-6.8204
-6.82469
-6.8294
-6.83458
-6.84025
-6.84646
-6.85323
-6.86061
-6.86863
-6.87732
-6.88671
-6.89683
-6.90771
-6.91937
-6.93183
-6.94512
-6.95925
-6.97422
-6.99005
-7.00675
-7.0243
-7.04271
-7.06197
-7.08208
-7.10301
-7.12476
-7.14731
-7.17064
-7.19473
-7.21955
-7.24508
-7.27128
-7.29812
-7.32556
-7.35355
-7.38204
-7.41098
-7.44032
-7.46998
-7.49991
-7.53003
-7.56025
-7.59049
-7.62066
-7.65065
-7.68036
-7.70968
-7.73847
-7.76662
-7.79399
-7.82044
-7.84582
-7.86998
-7.89275
-7.91398
-7.9335
-7.95113
-7.96669
-7.98001
-7.99089
-7.99917
-8.00464
-8.00712
-8.00641
-8.00234
-7.99471
-7.98334
-7.96804
-7.94863
-7.92492
-7.89675
-7.86394
-7.82632
-7.78374
-7.73603
-7.68305
-7.62464
-7.56067
-7.49099
-7.41549
-7.33403
-7.24649
-7.15275
-7.05271
-6.94626
-6.83331
-6.71378
-6.58762
-6.45477
-6.3152
-6.16889
-6.01582
-5.85599
-5.68944
-5.51619
-5.33629
-5.1498
-4.9568
-4.75738
-4.55167
-4.33977
-4.12183
-3.898
-3.66845
-3.43336
-3.19293
-2.94736
-2.69688
-2.44172
-2.18212
-1.91835
-1.65065
-1.37932
-1.10462
-0.826851
-0.546297
-0.263263
0.0219467
0.309024
0.597658
0.88754
1.17836
1.4698
1.76155
2.05332
2.3448
2.63569
2.92571
3.21455
3.50196
3.78765
4.07138
4.35289
4.63193
4.90828
5.18172
5.45205
5.71906
5.98258
6.24242
6.49844
6.75048
6.9984
7.24209
7.48141
7.71627
7.94657
8.17221
8.39312
8.6092
8.82039
9.02661
9.2278
9.42391
9.61492
9.80081
9.98153
10.157
10.3273
10.4923
10.6519
10.8061
10.9545
11.0974
11.231
11.3672
11.4413
-6.77463
-6.77899
-6.78491
-6.79046
-6.79503
-6.79888
-6.80229
-6.80548
-6.80859
-6.81173
-6.81501
-6.8185
-6.82227
-6.82637
-6.83084
-6.83574
-6.8411
-6.84696
-6.85335
-6.86031
-6.86786
-6.87606
-6.88492
-6.89447
-6.90475
-6.91577
-6.92757
-6.94016
-6.95357
-6.96779
-6.98286
-6.99876
-7.01552
-7.03312
-7.05158
-7.07088
-7.09101
-7.11197
-7.13375
-7.15632
-7.17968
-7.2038
-7.22866
-7.25424
-7.28049
-7.3074
-7.33491
-7.36298
-7.39157
-7.42063
-7.45009
-7.4799
-7.50997
-7.54024
-7.57063
-7.60104
-7.63138
-7.66154
-7.69143
-7.72091
-7.74987
-7.77818
-7.8057
-7.83229
-7.8578
-7.88207
-7.90495
-7.92626
-7.94585
-7.96353
-7.97913
-7.99246
-8.00334
-8.0116
-8.01703
-8.01946
-8.01869
-8.01453
-8.0068
-7.99532
-7.9799
-7.96036
-7.93651
-7.90819
-7.87523
-7.83747
-7.79473
-7.74686
-7.69373
-7.63517
-7.57105
-7.50123
-7.42559
-7.344
-7.25633
-7.16245
-7.06225
-6.95564
-6.84252
-6.72282
-6.59649
-6.46347
-6.32374
-6.17726
-6.02403
-5.86406
-5.69736
-5.52398
-5.34395
-5.15735
-4.96425
-4.76475
-4.55895
-4.34699
-4.129
-3.90513
-3.67557
-3.44047
-3.20005
-2.9545
-2.70405
-2.44894
-2.18941
-1.92571
-1.6581
-1.38687
-1.11228
-0.834633
-0.554217
-0.271331
0.013721
0.300633
0.589096
0.8788
1.16943
1.46068
1.75225
2.04382
2.33509
2.62578
2.91559
3.20423
3.49143
3.77692
4.06044
4.34175
4.6206
4.89676
5.17001
5.44016
5.707
5.97035
6.23004
6.48591
6.73782
6.98562
7.22918
7.4684
7.70317
7.93339
8.15896
8.3798
8.59583
8.80698
9.01317
9.21434
9.41044
9.60145
9.78732
9.968
10.1435
10.3136
10.4784
10.6377
10.7914
10.939
11.0805
11.2122
11.3465
11.4157
-6.78027
-6.78451
-6.79031
-6.79581
-6.80041
-6.80433
-6.80785
-6.81114
-6.81436
-6.81762
-6.821
-6.82459
-6.82846
-6.83266
-6.83723
-6.84222
-6.84767
-6.85362
-6.86009
-6.86714
-6.87479
-6.88306
-6.892
-6.90164
-6.91199
-6.92309
-6.93495
-6.94761
-6.96106
-6.97534
-6.99045
-7.00639
-7.02318
-7.04082
-7.05931
-7.07864
-7.09881
-7.11982
-7.14164
-7.16428
-7.1877
-7.2119
-7.23685
-7.26252
-7.28888
-7.31591
-7.34355
-7.37177
-7.40051
-7.42973
-7.45936
-7.48934
-7.5196
-7.55005
-7.58062
-7.61121
-7.64173
-7.67207
-7.70211
-7.73175
-7.76085
-7.78928
-7.81691
-7.84359
-7.86918
-7.8935
-7.91641
-7.93774
-7.95732
-7.97496
-7.99051
-8.00377
-8.01456
-8.0227
-8.028
-8.03028
-8.02934
-8.02501
-8.01709
-8.00541
-7.98977
-7.97001
-7.94594
-7.9174
-7.8842
-7.8462
-7.80324
-7.75515
-7.70179
-7.64301
-7.57868
-7.50866
-7.43282
-7.35103
-7.26314
-7.16903
-7.0686
-6.96174
-6.84838
-6.72844
-6.60187
-6.46863
-6.32867
-6.18197
-6.02854
-5.86837
-5.70149
-5.52793
-5.34774
-5.161
-4.96777
-4.76816
-4.56227
-4.35023
-4.13217
-3.90827
-3.67867
-3.44357
-3.20315
-2.95764
-2.70724
-2.45219
-2.19274
-1.92913
-1.66164
-1.39052
-1.11608
-0.838579
-0.558328
-0.275621
0.00924276
0.295956
0.584211
0.873697
1.1641
1.45512
1.74644
2.03777
2.32879
2.61923
2.90878
3.19716
3.4841
3.76934
4.0526
4.33366
4.61225
4.88817
5.16119
5.4311
5.69772
5.96085
6.22034
6.47602
6.72773
6.97536
7.21877
7.45784
7.69247
7.92257
8.14803
8.36877
8.58472
8.7958
9.00193
9.20306
9.39913
9.59011
9.77594
9.95657
10.1319
10.3019
10.4665
10.6254
10.7785
10.9252
11.0655
11.1954
11.3278
11.3929
-6.78743
-6.79147
-6.79703
-6.80236
-6.80687
-6.81075
-6.81424
-6.81753
-6.82074
-6.82399
-6.82737
-6.83095
-6.83481
-6.83899
-6.84354
-6.84852
-6.85395
-6.85988
-6.86635
-6.87339
-6.88102
-6.8893
-6.89823
-6.90786
-6.91821
-6.92931
-6.94117
-6.95383
-6.96729
-6.98157
-6.99668
-7.01263
-7.02944
-7.0471
-7.06561
-7.08498
-7.1052
-7.12626
-7.14815
-7.17086
-7.19438
-7.21869
-7.24375
-7.26955
-7.29606
-7.32323
-7.35103
-7.37942
-7.40833
-7.43772
-7.46753
-7.49768
-7.52811
-7.55873
-7.58945
-7.62019
-7.65084
-7.6813
-7.71145
-7.74116
-7.77033
-7.79881
-7.82645
-7.85313
-7.87868
-7.90296
-7.92579
-7.94702
-7.96648
-7.98398
-7.99936
-8.01243
-8.02301
-8.03093
-8.03599
-8.03801
-8.0368
-8.03219
-8.02398
-8.01201
-7.99607
-7.97601
-7.95164
-7.9228
-7.88932
-7.85103
-7.80778
-7.75941
-7.70578
-7.64675
-7.58217
-7.51192
-7.43584
-7.35378
-7.26561
-7.17121
-7.07048
-6.96333
-6.84969
-6.72947
-6.60264
-6.46913
-6.32893
-6.182
-6.02835
-5.86799
-5.70092
-5.5272
-5.34686
-5.15999
-4.96665
-4.76694
-4.56098
-4.34889
-4.1308
-3.90688
-3.67729
-3.44222
-3.20185
-2.95641
-2.7061
-2.45116
-2.19183
-1.92836
-1.66103
-1.39009
-1.11584
-0.838548
-0.55852
-0.27605
0.00856295
0.295014
0.582995
0.872198
1.16231
1.45303
1.74405
2.03506
2.32577
2.61588
2.90511
3.19316
3.47978
3.76469
4.04764
4.32837
4.60666
4.88227
5.15499
5.42461
5.69094
5.95381
6.21303
6.46846
6.71995
6.96736
7.21056
7.44944
7.6839
7.91383
8.13915
8.35977
8.5756
8.78659
8.99264
9.19371
9.38973
9.58065
9.76642
9.94697
10.1222
10.292
10.4563
10.6148
10.7673
10.9131
11.0522
11.1804
11.311
11.3728
-6.79588
-6.79968
-6.80492
-6.80997
-6.81427
-6.81798
-6.82132
-6.82446
-6.82753
-6.83064
-6.83387
-6.83731
-6.84102
-6.84506
-6.84948
-6.85433
-6.85963
-6.86545
-6.8718
-6.87873
-6.88627
-6.89445
-6.9033
-6.91285
-6.92313
-6.93416
-6.94596
-6.95856
-6.97198
-6.98622
-7.00131
-7.01725
-7.03404
-7.05171
-7.07024
-7.08963
-7.10989
-7.13101
-7.15297
-7.17577
-7.19939
-7.2238
-7.24898
-7.27491
-7.30155
-7.32886
-7.3568
-7.38532
-7.41437
-7.44389
-7.47381
-7.50407
-7.53459
-7.56529
-7.59608
-7.62686
-7.65753
-7.68799
-7.71811
-7.74778
-7.77687
-7.80525
-7.83277
-7.8593
-7.88467
-7.90875
-7.93136
-7.95234
-7.97153
-7.98875
-8.00382
-8.01657
-8.02682
-8.03439
-8.03909
-8.04075
-8.03918
-8.03419
-8.02562
-8.01327
-7.99698
-7.97656
-7.95185
-7.92267
-7.88887
-7.85027
-7.80672
-7.75807
-7.70418
-7.64489
-7.58007
-7.50957
-7.4332
-7.35082
-7.26233
-7.16762
-7.06659
-6.95915
-6.84522
-6.72474
-6.59765
-6.46391
-6.32348
-6.17635
-6.02252
-5.86199
-5.69478
-5.52093
-5.34049
-5.15353
-4.96013
-4.76039
-4.55441
-4.34233
-4.12427
-3.9004
-3.67089
-3.43591
-3.19567
-2.95037
-2.70023
-2.44547
-2.18635
-1.92311
-1.65602
-1.38534
-1.11137
-0.834372
-0.554654
-0.272508
0.0117672
0.297868
0.585488
0.87432
1.16405
1.45439
1.74501
2.03562
2.32593
2.61564
2.90446
3.19211
3.47832
3.76283
4.04538
4.32573
4.60363
4.87886
5.15121
5.42048
5.68647
5.949
6.20791
6.46304
6.71424
6.96138
7.20433
7.44298
7.67722
7.90696
8.1321
8.35256
8.56827
8.77913
8.98509
9.18608
9.38203
9.57289
9.75859
9.93904
10.1142
10.2838
10.4478
10.6058
10.7577
10.9026
11.0405
11.1671
11.2959
11.3551
-6.80542
-6.80897
-6.81386
-6.81855
-6.82253
-6.82592
-6.82895
-6.83178
-6.83453
-6.83733
-6.84026
-6.84341
-6.84683
-6.8506
-6.85476
-6.85935
-6.86442
-6.87001
-6.87615
-6.88288
-6.89024
-6.89825
-6.90694
-6.91634
-6.92648
-6.93738
-6.94907
-6.96157
-6.97489
-6.98906
-7.00408
-7.01996
-7.03672
-7.05435
-7.07287
-7.09227
-7.11254
-7.13368
-7.15568
-7.17853
-7.20219
-7.22666
-7.2519
-7.27789
-7.30458
-7.33194
-7.35991
-7.38846
-7.41752
-7.44703
-7.47693
-7.50715
-7.5376
-7.56821
-7.59888
-7.62952
-7.66002
-7.69028
-7.72019
-7.74962
-7.77844
-7.80653
-7.83374
-7.85994
-7.88496
-7.90867
-7.93089
-7.95148
-7.97025
-7.98704
-8.00168
-8.014
-8.02381
-8.03093
-8.03519
-8.03641
-8.03441
-8.029
-8.02001
-8.00726
-7.99058
-7.9698
-7.94474
-7.91523
-7.88111
-7.84222
-7.79841
-7.74951
-7.69539
-7.63589
-7.57083
-7.50003
-7.42334
-7.34066
-7.25187
-7.15687
-7.05557
-6.94787
-6.83371
-6.71301
-6.58572
-6.4518
-6.31121
-6.16395
-6.01001
-5.84939
-5.68212
-5.50823
-5.32778
-5.14083
-4.94746
-4.74778
-4.54189
-4.32991
-4.11199
-3.88828
-3.65895
-3.42418
-3.18417
-2.93912
-2.68925
-2.43479
-2.17599
-1.91309
-1.64635
-1.37605
-1.10247
-0.825885
-0.54659
-0.26488
0.0189454
0.304585
0.591734
0.880086
1.16933
1.45917
1.7493
2.03941
2.32921
2.61842
2.90674
3.19389
3.47961
3.76363
4.04569
4.32556
4.603
4.87778
5.14969
5.41853
5.68411
5.94624
6.20478
6.45955
6.71041
6.95723
7.19988
7.43826
7.67225
7.90177
8.1267
8.34699
8.56253
8.77327
8.97911
9.18001
9.37588
9.56667
9.75229
9.93264
10.1076
10.277
10.4407
10.5983
10.7495
10.8935
11.0302
11.1553
11.2824
11.3398
-6.81639
-6.8197
-6.82421
-6.82846
-6.83196
-6.83484
-6.83734
-6.83963
-6.84185
-6.84412
-6.84654
-6.84921
-6.85218
-6.85552
-6.85927
-6.86348
-6.8682
-6.87346
-6.87929
-6.88572
-6.8928
-6.90054
-6.90899
-6.91816
-6.92808
-6.93877
-6.95027
-6.96259
-6.97574
-6.98974
-7.00462
-7.02036
-7.03699
-7.05451
-7.07292
-7.09222
-7.11239
-7.13344
-7.15535
-7.17809
-7.20166
-7.22603
-7.25115
-7.27701
-7.30357
-7.33076
-7.35856
-7.38691
-7.41575
-7.44502
-7.47465
-7.50457
-7.53471
-7.56497
-7.59527
-7.62552
-7.65561
-7.68543
-7.71489
-7.74384
-7.77218
-7.79976
-7.82646
-7.85213
-7.87662
-7.89979
-7.92147
-7.9415
-7.95973
-7.97598
-7.99008
-8.00187
-8.01116
-8.01777
-8.02154
-8.02228
-8.01981
-8.01397
-8.00456
-7.99143
-7.97439
-7.95327
-7.9279
-7.89811
-7.86375
-7.82465
-7.78066
-7.73162
-7.67733
-7.61761
-7.55228
-7.4812
-7.40424
-7.32132
-7.2323
-7.1371
-7.03561
-6.92776
-6.81345
-6.69264
-6.56526
-6.43127
-6.29064
-6.14337
-5.98944
-5.82886
-5.66165
-5.48785
-5.30752
-5.12072
-4.92753
-4.72805
-4.52238
-4.31066
-4.09302
-3.86962
-3.64062
-3.40621
-3.16658
-2.92194
-2.6725
-2.4185
-2.16017
-1.89776
-1.63153
-1.36176