/*--------------------------------*- C++ -*----------------------------------*\
  =========                 |
  \\      /  F ield         | OpenFOAM: The Open Source CFD Toolbox
   \\    /   O peration     | Website:  https://openfoam.org
    \\  /    A nd           | Version:  9
     \\/     M anipulation  |
\*---------------------------------------------------------------------------*/
FoamFile
{
    format      ascii;
    class       surfaceScalarField;
    location    "0.26";
    object      phi;
}
// * * * * * * * * * * * * * * * * * * * * * * * * * * * * * * * * * * * * * //

dimensions      [0 3 -1 0 0 0 0];

internalField   nonuniform List<scalar> 
24170
(
3.1336e-06
5.48062e-08
3.04827e-06
8.53263e-08
2.97315e-06
7.51234e-08
2.90431e-06
6.88358e-08
2.83949e-06
6.48287e-08
2.78226e-06
5.7221e-08
2.73337e-06
4.88991e-08
2.69184e-06
4.15235e-08
2.6564e-06
3.54383e-08
2.62588e-06
3.05208e-08
2.59931e-06
2.65714e-08
2.57589e-06
2.34261e-08
2.55492e-06
2.0966e-08
2.53574e-06
1.9177e-08
2.51771e-06
1.80274e-08
2.49907e-06
1.86454e-08
2.47855e-06
2.05207e-08
3.7639e-08
2.44091e-06
3.45361e-06
1.84443e-08
3.45616e-06
8.27727e-08
3.44962e-06
8.16677e-08
3.438e-06
8.04566e-08
3.42351e-06
7.93164e-08
3.40597e-06
7.47611e-08
3.38634e-06
6.85276e-08
3.36544e-06
6.24261e-08
3.34403e-06
5.6844e-08
3.32273e-06
5.18234e-08
3.30193e-06
4.73722e-08
3.28186e-06
4.34998e-08
3.26262e-06
4.01992e-08
3.24422e-06
3.75796e-08
3.2267e-06
3.5554e-08
3.20989e-06
3.5454e-08
3.19469e-06
3.57136e-08
4.58489e-08
3.18648e-06
3.66535e-06
1.56075e-08
3.67825e-06
6.98732e-08
3.68531e-06
7.46061e-08
3.6896e-06
7.61739e-08
3.69127e-06
7.76421e-08
3.69014e-06
7.58921e-08
3.68669e-06
7.19783e-08
3.6815e-06
6.76206e-08
3.67498e-06
6.33557e-08
3.6675e-06
5.93027e-08
3.65934e-06
5.55379e-08
3.6507e-06
5.21394e-08
3.64174e-06
4.91621e-08
3.63256e-06
4.67547e-08
3.62317e-06
4.49412e-08
3.61401e-06
4.4622e-08
3.60472e-06
4.4996e-08
4.95739e-08
3.601e-06
3.92465e-06
1.63467e-08
3.9358e-06
5.8721e-08
3.94255e-06
6.78616e-08
3.94802e-06
7.06969e-08
3.95244e-06
7.32292e-08
3.95536e-06
7.29707e-08
3.95691e-06
7.04241e-08
3.9574e-06
6.71366e-08
3.957e-06
6.37535e-08
3.95587e-06
6.04341e-08
3.95413e-06
5.7272e-08
3.9519e-06
5.43677e-08
3.94926e-06
5.1804e-08
3.94629e-06
4.97235e-08
3.94303e-06
4.82034e-08
3.93991e-06
4.7744e-08
3.93693e-06
4.79734e-08
4.98373e-08
3.93667e-06
4.20777e-06
1.57062e-08
4.216e-06
5.04886e-08
4.22166e-06
6.21967e-08
4.2266e-06
6.57635e-08
4.2313e-06
6.85287e-08
4.23526e-06
6.90122e-08
4.23835e-06
6.73266e-08
4.24073e-06
6.47646e-08
4.24248e-06
6.19968e-08
4.24371e-06
5.92073e-08
4.24449e-06
5.64969e-08
4.24488e-06
5.39745e-08
4.24495e-06
5.17343e-08
4.24477e-06
4.98974e-08
4.24444e-06
4.8542e-08
4.24427e-06
4.79114e-08
4.24446e-06
4.77848e-08
4.82004e-08
4.24609e-06
4.51044e-06
1.43532e-08
4.51686e-06
4.40654e-08
4.52218e-06
5.68843e-08
4.52684e-06
6.11025e-08
4.53145e-06
6.39137e-08
4.53564e-06
6.48191e-08
4.53923e-06
6.37402e-08
4.54228e-06
6.17179e-08
4.54487e-06
5.94089e-08
4.54705e-06
5.70206e-08
4.54889e-06
5.46597e-08
4.55043e-06
5.24357e-08
4.55172e-06
5.04419e-08
4.55284e-06
4.87737e-08
4.5539e-06
4.74871e-08
4.55514e-06
4.66744e-08
4.55676e-06
4.61573e-08
4.57001e-08
4.55926e-06
4.83412e-06
1.2952e-08
4.83958e-06
3.86054e-08
4.84483e-06
5.16312e-08
4.84943e-06
5.65106e-08
4.85394e-06
5.9402e-08
4.85817e-06
6.05881e-08
4.86194e-06
5.99724e-08
4.86527e-06
5.83804e-08
4.86825e-06
5.64357e-08
4.8709e-06
5.43677e-08
4.87327e-06
5.22883e-08
4.8754e-06
5.03024e-08
4.87735e-06
4.84966e-08
4.87918e-06
4.69412e-08
4.881e-06
4.56659e-08
4.883e-06
4.46793e-08
4.88533e-06
4.38217e-08
4.28291e-08
4.88821e-06
5.1809e-06
1.16319e-08
5.18571e-06
3.37998e-08
5.19084e-06
4.64956e-08
5.19542e-06
5.193e-08
5.19989e-06
5.49364e-08
5.20415e-06
5.63257e-08
5.20804e-06
5.60863e-08
5.21155e-06
5.48626e-08
5.21476e-06
5.32287e-08
5.2177e-06
5.14315e-08
5.2204e-06
4.95886e-08
5.2229e-06
4.77983e-08
5.22526e-06
4.61377e-08
5.22755e-06
4.46567e-08
5.22985e-06
4.33639e-08
5.2323e-06
4.22273e-08
5.23501e-06
4.11084e-08
3.97944e-08
5.23805e-06
5.5526e-06
1.03684e-08
5.55685e-06
2.95491e-08
5.56177e-06
4.15768e-08
5.56634e-06
4.73612e-08
5.5708e-06
5.04777e-08
5.57511e-06
5.20156e-08
5.57911e-06
5.20871e-08
5.58278e-06
5.11903e-08
5.58617e-06
4.98352e-08
5.58933e-06
4.82779e-08
5.59227e-06
4.66417e-08
5.59505e-06
4.5018e-08
5.59772e-06
4.34743e-08
5.60033e-06
4.2046e-08
5.60296e-06
4.07286e-08
5.60571e-06
3.94766e-08
5.60864e-06
3.8178e-08
3.66851e-08
5.61175e-06
5.95099e-06
9.15825e-09
5.95476e-06
2.57763e-08
5.95942e-06
3.692e-08
5.96395e-06
4.28251e-08
5.96841e-06
4.60185e-08
5.97277e-06
4.76591e-08
5.97687e-06
4.79798e-08
5.98069e-06
4.73703e-08
5.98426e-06
4.6268e-08
5.98761e-06
4.49282e-08
5.99078e-06
4.34778e-08
5.99379e-06
4.20018e-08
5.99671e-06
4.05589e-08
5.99958e-06
3.91756e-08
6.00246e-06
3.78425e-08
6.00542e-06
3.6516e-08
6.00849e-06
3.51118e-08
3.35393e-08
6.01164e-06
6.37796e-06
8.01496e-09
6.38133e-06
2.24038e-08
6.38571e-06
3.2534e-08
6.39019e-06
3.83467e-08
6.39465e-06
4.15646e-08
6.39904e-06
4.32664e-08
6.40324e-06
4.37746e-08
6.40721e-06
4.3408e-08
6.41094e-06
4.25324e-08
6.41448e-06
4.13902e-08
6.41785e-06
4.01091e-08
6.42108e-06
3.87682e-08
6.42422e-06
3.74192e-08
6.42731e-06
3.6084e-08
6.4304e-06
3.47543e-08
6.43352e-06
3.33957e-08
6.43668e-06
3.195e-08
3.03699e-08
6.43985e-06
5.74175e-06
7.10018e-09
5.74433e-06
1.98187e-08
5.74783e-06
2.90337e-08
5.75156e-06
3.46203e-08
5.75532e-06
3.78081e-08
5.75905e-06
3.95332e-08
5.76267e-06
4.0154e-08
5.76612e-06
3.99554e-08
5.76941e-06
3.92494e-08
5.77254e-06
3.82595e-08
5.77554e-06
3.71104e-08
5.77843e-06
3.58772e-08
5.78124e-06
3.4607e-08
5.784e-06
3.33203e-08
5.78675e-06
3.20119e-08
5.78948e-06
3.06578e-08
5.79222e-06
2.92181e-08
2.76737e-08
5.79491e-06
6.99913e-06
6.1226e-09
7.00187e-06
1.70846e-08
7.00565e-06
2.52462e-08
7.00982e-06
3.04538e-08
7.0141e-06
3.35285e-08
7.0184e-06
3.52346e-08
7.02262e-06
3.59378e-08
7.02668e-06
3.5891e-08
7.03058e-06
3.53518e-08
7.03432e-06
3.45184e-08
7.03792e-06
3.35091e-08
7.0414e-06
3.23942e-08
7.04479e-06
3.12168e-08
7.04812e-06
2.99972e-08
7.05139e-06
2.87359e-08
7.05463e-06
2.74202e-08
7.05782e-06
2.60273e-08
2.45596e-08
7.06093e-06
8.53188e-06
5.09142e-09
8.53473e-06
1.42278e-08
8.53878e-06
2.11984e-08
8.54338e-06
2.58534e-08
8.54821e-06
2.8703e-08
8.55312e-06
3.03272e-08
8.55799e-06
3.10654e-08
8.56274e-06
3.11388e-08
8.56734e-06
3.07529e-08
8.57178e-06
3.00744e-08
8.57608e-06
2.92107e-08
8.58025e-06
2.82262e-08
8.58431e-06
2.71605e-08
8.58827e-06
2.60348e-08
8.59215e-06
2.48557e-08
8.59595e-06
2.36213e-08
8.59965e-06
2.23227e-08
2.09766e-08
8.60324e-06
1.04003e-05
4.0172e-09
1.04033e-05
1.12661e-08
1.04075e-05
1.6909e-08
1.04126e-05
2.08252e-08
1.0418e-05
2.33097e-08
1.04235e-05
2.47653e-08
1.04291e-05
2.54733e-08
1.04346e-05
2.56194e-08
1.044e-05
2.5361e-08
1.04453e-05
2.48293e-08
1.04504e-05
2.41152e-08
1.04553e-05
2.32756e-08
1.04601e-05
2.23464e-08
1.04648e-05
2.13493e-08
1.04694e-05
2.02959e-08
1.04738e-05
1.91924e-08
1.04781e-05
1.80397e-08
1.6862e-08
1.04822e-05
1.26779e-05
2.90557e-09
1.2681e-05
8.19101e-09
1.26855e-05
1.23695e-08
1.2691e-05
1.5358e-08
1.2697e-05
1.73143e-08
1.27033e-05
1.84892e-08
1.27096e-05
1.90852e-08
1.2716e-05
1.92432e-08
1.27223e-05
1.90758e-08
1.27285e-05
1.86769e-08
1.27345e-05
1.81159e-08
1.27403e-05
1.74391e-08
1.2746e-05
1.66769e-08
1.27515e-05
1.58496e-08
1.27568e-05
1.49712e-08
1.27619e-05
1.4052e-08
1.27669e-05
1.30982e-08
1.21359e-08
1.27716e-05
1.54543e-05
1.74546e-09
1.54576e-05
4.95185e-09
1.54624e-05
7.51293e-09
1.54684e-05
9.38196e-09
1.54751e-05
1.06332e-08
1.54822e-05
1.13964e-08
1.54895e-05
1.17869e-08
1.54968e-05
1.18896e-08
1.55041e-05
1.17722e-08
1.55113e-05
1.14908e-08
1.55184e-05
1.10889e-08
1.55252e-05
1.05976e-08
1.55318e-05
1.00385e-08
1.55383e-05
9.42757e-09
1.55445e-05
8.77701e-09
1.55504e-05
8.0974e-09
1.55561e-05
7.39567e-09
6.69593e-09
1.55615e-05
1.88389e-05
4.95499e-10
1.88424e-05
1.41768e-09
1.88478e-05
2.15346e-09
1.88545e-05
2.69209e-09
1.8862e-05
3.05523e-09
1.88702e-05
3.27224e-09
1.88786e-05
3.36562e-09
1.88871e-05
3.35406e-09
1.88956e-05
3.25583e-09
1.8904e-05
3.08729e-09
1.89123e-05
2.86154e-09
1.89203e-05
2.58899e-09
1.8928e-05
2.27826e-09
1.89355e-05
1.93691e-09
1.89427e-05
1.57172e-09
1.89496e-05
1.18957e-09
1.89563e-05
7.95019e-10
4.071e-10
1.89625e-05
2.29648e-05
-9.51193e-10
2.29689e-05
-2.7127e-09
2.29752e-05
-4.14559e-09
2.29831e-05
-5.20726e-09
2.29921e-05
-5.91453e-09
2.30017e-05
-6.35414e-09
2.30117e-05
-6.61941e-09
2.30218e-05
-6.76901e-09
2.30319e-05
-6.83967e-09
2.30419e-05
-6.86257e-09
2.30516e-05
-6.86283e-09
2.3061e-05
-6.85645e-09
2.30702e-05
-6.8521e-09
2.3079e-05
-6.85425e-09
2.30874e-05
-6.86483e-09
2.30955e-05
-6.88347e-09
2.31032e-05
-6.90995e-09
-6.93213e-09
2.31105e-05
1.68118e-05
-2.09586e-09
1.68151e-05
-5.94533e-09
1.682e-05
-9.07031e-09
1.68261e-05
-1.13268e-08
1.6833e-05
-1.27635e-08
1.68402e-05
-1.36148e-08
1.68477e-05
-1.40845e-08
1.68552e-05
-1.42808e-08
1.68627e-05
-1.42787e-08
1.68699e-05
-1.41487e-08
1.6877e-05
-1.39456e-08
1.68839e-05
-1.37036e-08
1.68905e-05
-1.34432e-08
1.68968e-05
-1.31775e-08
1.69028e-05
-1.29148e-08
1.69086e-05
-1.26587e-08
1.69141e-05
-1.2412e-08
-1.21664e-08
1.69193e-05
1.46357e-05
-3.20396e-09
1.46388e-05
-9.10246e-09
1.46437e-05
-1.38909e-08
1.46495e-05
-1.72038e-08
1.4656e-05
-1.91875e-08
1.46627e-05
-2.03167e-08
1.46695e-05
-2.08937e-08
1.46762e-05
-2.10526e-08
1.46829e-05
-2.09133e-08
1.46893e-05
-2.05921e-08
1.46955e-05
-2.01679e-08
1.47015e-05
-1.96862e-08
1.47073e-05
-1.91757e-08
1.47127e-05
-1.86565e-08
1.4718e-05
-1.81413e-08
1.47229e-05
-1.76369e-08
1.47277e-05
-1.7147e-08
-1.66665e-08
1.47322e-05
1.27412e-05
-4.25148e-09
1.27444e-05
-1.23108e-08
1.27493e-05
-1.88448e-08
1.27551e-05
-2.29929e-08
1.27612e-05
-2.52948e-08
1.27675e-05
-2.65956e-08
1.27738e-05
-2.71994e-08
1.278e-05
-2.72331e-08
1.2786e-05
-2.68882e-08
1.27917e-05
-2.63361e-08
1.27972e-05
-2.56716e-08
1.28025e-05
-2.49444e-08
1.28075e-05
-2.41886e-08
1.28123e-05
-2.34289e-08
1.28168e-05
-2.26804e-08
1.28211e-05
-2.19504e-08
1.28252e-05
-2.12429e-08
-2.05541e-08
1.28291e-05
1.10918e-05
-5.12796e-09
1.10951e-05
-1.56305e-08
1.11004e-05
-2.41365e-08
1.11062e-05
-2.87691e-08
1.1112e-05
-3.1129e-08
1.11179e-05
-3.25059e-08
1.11238e-05
-3.30479e-08
1.11294e-05
-3.28741e-08
1.11348e-05
-3.22762e-08
1.11399e-05
-3.14705e-08
1.11448e-05
-3.05542e-08
1.11495e-05
-2.95785e-08
1.11539e-05
-2.85831e-08
1.1158e-05
-2.75953e-08
1.1162e-05
-2.66303e-08
1.11657e-05
-2.56948e-08
1.11693e-05
-2.47918e-08
-2.39182e-08
1.11726e-05
9.65583e-06
-5.74125e-09
9.65935e-06
-1.91523e-08
9.66495e-06
-2.97336e-08
9.67062e-06
-3.44467e-08
9.67626e-06
-3.67607e-08
9.68188e-06
-3.81327e-08
9.68731e-06
-3.84717e-08
9.69243e-06
-3.79972e-08
9.69727e-06
-3.71165e-08
9.70185e-06
-3.60521e-08
9.70618e-06
-3.48838e-08
9.71027e-06
-3.36629e-08
9.71412e-06
-3.24344e-08
9.71775e-06
-3.12274e-08
9.72117e-06
-3.00562e-08
9.72441e-06
-2.89267e-08
9.72746e-06
-2.78402e-08
-2.67918e-08
9.73033e-06
8.40543e-06
-5.8205e-09
8.4098e-06
-2.35245e-08
8.4153e-06
-3.52326e-08
8.42049e-06
-3.96311e-08
8.42591e-06
-4.21834e-08
8.43137e-06
-4.35951e-08
8.43651e-06
-4.36117e-08
8.44126e-06
-4.27449e-08
8.44567e-06
-4.15308e-08
8.44979e-06
-4.01694e-08
8.45363e-06
-3.87179e-08
8.45719e-06
-3.72284e-08
8.46051e-06
-3.57487e-08
8.46359e-06
-3.43077e-08
8.46645e-06
-3.29192e-08
8.46911e-06
-3.15889e-08
8.47159e-06
-3.03177e-08
-2.91017e-08
8.4739e-06
7.31506e-06
-3.59254e-09
7.32194e-06
-3.04069e-08
7.32738e-06
-4.06784e-08
7.33215e-06
-4.43933e-08
7.33745e-06
-4.74879e-08
7.34282e-06
-4.89603e-08
7.34777e-06
-4.85631e-08
7.35224e-06
-4.72143e-08
7.35627e-06
-4.55611e-08
7.35988e-06
-4.37819e-08
7.3631e-06
-4.19358e-08
7.36596e-06
-4.00859e-08
7.36849e-06
-3.82819e-08
7.37073e-06
-3.65498e-08
7.37271e-06
-3.49012e-08
7.37446e-06
-3.33406e-08
7.37601e-06
-3.18653e-08
-3.04689e-08
7.37738e-06
6.36222e-06
4.25374e-09
6.37294e-06
-4.11291e-08
6.38006e-06
-4.78009e-08
6.38624e-06
-5.05676e-08
6.3922e-06
-5.34494e-08
6.39748e-06
-5.42386e-08
6.40183e-06
-5.2911e-08
6.40539e-06
-5.07787e-08
6.40829e-06
-4.84555e-08
6.41056e-06
-4.60538e-08
6.41226e-06
-4.36412e-08
6.41347e-06
-4.12953e-08
6.41425e-06
-3.90647e-08
6.41467e-06
-3.6969e-08
6.41479e-06
-3.50148e-08
6.41465e-06
-3.32032e-08
6.41431e-06
-3.1526e-08
-2.99627e-08
6.4138e-06
5.53608e-06
1.3639e-08
5.54775e-06
-5.28008e-08
5.55743e-06
-5.74835e-08
5.566e-06
-5.91314e-08
5.57276e-06
-6.02095e-08
5.57717e-06
-5.86511e-08
5.57931e-06
-5.50478e-08
5.57973e-06
-5.12018e-08
5.57886e-06
-4.75877e-08
5.57699e-06
-4.41771e-08
5.57432e-06
-4.09774e-08
5.57105e-06
-3.80263e-08
5.56733e-06
-3.53373e-08
5.56326e-06
-3.29021e-08
5.55895e-06
-3.07063e-08
5.55449e-06
-2.87468e-08
5.54998e-06
-2.70146e-08
-2.54489e-08
5.54547e-06
4.85751e-06
-1.62614e-08
4.86091e-06
-5.6201e-08
4.8615e-06
-5.80739e-08
4.85883e-06
-5.64599e-08
4.85482e-06
-5.61979e-08
4.84811e-06
-5.19497e-08
4.83885e-06
-4.57871e-08
4.82759e-06
-3.99421e-08
4.81497e-06
-3.49686e-08
4.80159e-06
-3.07895e-08
4.78788e-06
-2.72686e-08
4.77415e-06
-2.43031e-08
4.76062e-06
-2.18019e-08
4.7474e-06
-1.9686e-08
4.73459e-06
-1.78924e-08
4.72225e-06
-1.64112e-08
4.71051e-06
-1.5269e-08
-1.49586e-08
4.70002e-06
4.18641e-06
4.13021e-06
4.07214e-06
4.01568e-06
3.95948e-06
3.90753e-06
3.86175e-06
3.8218e-06
3.78683e-06
3.75605e-06
3.72878e-06
3.70447e-06
3.68267e-06
3.66299e-06
3.64509e-06
3.62868e-06
3.61341e-06
3.59845e-06
9.36516e-09
-9.36516e-09
2.02262e-08
-1.0861e-08
2.80706e-08
-7.84439e-09
3.17091e-08
-3.63859e-09
3.09098e-08
7.99332e-10
2.62224e-08
4.68736e-09
1.83628e-08
7.85968e-09
8.07001e-09
1.02928e-08
-4.05869e-09
1.21287e-08
-1.7615e-08
1.35563e-08
-3.23461e-08
1.47311e-08
-4.81003e-08
1.57543e-08
-6.47909e-08
1.66906e-08
-8.23673e-08
1.75764e-08
-1.00798e-07
1.84307e-08
-1.2006e-07
1.92623e-08
-1.40135e-07
2.00747e-08
-1.61003e-07
2.08683e-08
-1.82645e-07
2.16419e-08
-2.05039e-07
2.23932e-08
-2.28158e-07
2.3119e-08
-2.51974e-07
2.3816e-08
-2.76454e-07
2.44808e-08
-3.01565e-07
2.51102e-08
-3.27265e-07
2.57003e-08
-3.53513e-07
2.62479e-08
-3.80265e-07
2.67523e-08
-4.07484e-07
2.72194e-08
-4.35151e-07
2.76667e-08
-4.63288e-07
2.81365e-08
-4.92002e-07
2.87141e-08
-5.21506e-07
2.95039e-08
-5.51991e-07
3.04848e-08
-5.8332e-07
3.13294e-08
-6.15032e-07
3.17121e-08
-6.47189e-07
3.21567e-08
-6.80434e-07
3.32449e-08
-7.14423e-07
3.39897e-08
-7.47965e-07
3.35418e-08
-7.85292e-07
3.73272e-08
-8.35129e-07
4.98363e-08
-8.84266e-07
4.91377e-08
-9.22173e-07
3.79065e-08
-9.59901e-07
3.77279e-08
-9.9931e-07
3.94094e-08
-1.04138e-06
4.20714e-08
-1.08459e-06
4.32133e-08
-1.12861e-06
4.40114e-08
-1.17311e-06
4.45048e-08
-1.21789e-06
4.47809e-08
-1.2628e-06
4.49086e-08
-1.30773e-06
4.49299e-08
-1.3526e-06
4.48727e-08
-1.39736e-06
4.47557e-08
-1.44195e-06
4.45908e-08
-1.48634e-06
4.43859e-08
-1.53048e-06
4.41458e-08
-1.57435e-06
4.38733e-08
-1.61792e-06
4.357e-08
-1.66116e-06
4.32363e-08
-1.70403e-06
4.28722e-08
-1.74651e-06
4.24769e-08
-1.78856e-06
4.20497e-08
-1.83015e-06
4.15895e-08
-1.87124e-06
4.10952e-08
-1.91181e-06
4.05657e-08
-1.95181e-06
4e-08
-1.99121e-06
3.93972e-08
-2.02996e-06
3.87564e-08
-2.06804e-06
3.80769e-08
-2.1054e-06
3.73582e-08
-2.142e-06
3.65999e-08
-2.1778e-06
3.58018e-08
-2.21276e-06
3.49639e-08
-2.24685e-06
3.40862e-08
-2.28002e-06
3.31691e-08
-2.31223e-06
3.22127e-08
-2.34345e-06
3.12178e-08
-2.37364e-06
3.01847e-08
-2.40275e-06
2.91144e-08
-2.43076e-06
2.80074e-08
-2.45762e-06
2.68646e-08
-2.48331e-06
2.56867e-08
-2.50778e-06
2.44745e-08
-2.53101e-06
2.32287e-08
-2.55296e-06
2.19496e-08
-2.5736e-06
2.06378e-08
-2.59289e-06
1.92931e-08
-2.61081e-06
1.79152e-08
-2.62731e-06
1.65031e-08
-2.64237e-06
1.50553e-08
-2.65593e-06
1.3569e-08
-2.66798e-06
1.20406e-08
-2.67844e-06
1.04635e-08
-2.68727e-06
8.82927e-09
-2.69439e-06
7.12598e-09
-2.69973e-06
5.3366e-09
-2.70318e-06
3.45008e-09
-2.70465e-06
1.46958e-09
-2.70412e-06
-5.34229e-10
-2.70192e-06
-2.19564e-09
-2.69813e-06
-3.78646e-09
-2.69279e-06
-5.34736e-09
-2.68589e-06
-6.90095e-09
-2.67743e-06
-8.45887e-09
-2.6674e-06
-1.00231e-08
-2.65581e-06
-1.15932e-08
-2.64264e-06
-1.31675e-08
-2.6279e-06
-1.47441e-08
-2.61158e-06
-1.63209e-08
-2.59368e-06
-1.78957e-08
-2.57422e-06
-1.94665e-08
-2.55318e-06
-2.10311e-08
-2.5306e-06
-2.25874e-08
-2.50646e-06
-2.41333e-08
-2.4808e-06
-2.56669e-08
-2.45361e-06
-2.71858e-08
-2.42492e-06
-2.86882e-08
-2.39475e-06
-3.01719e-08
-2.36312e-06
-3.16349e-08
-2.33004e-06
-3.30752e-08
-2.29555e-06
-3.44909e-08
-2.25967e-06
-3.588e-08
-2.22243e-06
-3.72409e-08
-2.18386e-06
-3.85716e-08
-2.14399e-06
-3.98704e-08
-2.10285e-06
-4.11358e-08
-2.06049e-06
-4.2366e-08
-2.01693e-06
-4.35595e-08
-1.97221e-06
-4.47146e-08
-1.92638e-06
-4.583e-08
-1.87948e-06
-4.69043e-08
-1.83154e-06
-4.79363e-08
-1.78262e-06
-4.8925e-08
-1.73275e-06
-4.98694e-08
-1.68198e-06
-5.07684e-08
-1.63036e-06
-5.16213e-08
-1.57793e-06
-5.24272e-08
-1.52474e-06
-5.31857e-08
-1.47085e-06
-5.38964e-08
-1.41629e-06
-5.45592e-08
-1.36111e-06
-5.51737e-08
-1.30537e-06
-5.57399e-08
-1.24912e-06
-5.6258e-08
-1.19239e-06
-5.67285e-08
-1.13524e-06
-5.71518e-08
-1.07771e-06
-5.75285e-08
-1.01985e-06
-5.78594e-08
-9.61703e-07
-5.81455e-08
-9.03315e-07
-5.83881e-08
-8.44726e-07
-5.85884e-08
-7.85978e-07
-5.87478e-08
-7.2711e-07
-5.88681e-08
-6.68159e-07
-5.8951e-08
-6.09161e-07
-5.89984e-08
-5.50149e-07
-5.90122e-08
-4.91154e-07
-5.89944e-08
-4.32208e-07
-5.89467e-08
-3.73337e-07
-5.88706e-08
-3.1457e-07
-5.87667e-08
-2.55934e-07
-5.86361e-08
-1.9746e-07
-5.84747e-08
-1.39177e-07
-5.82826e-08
-8.11174e-08
-5.80596e-08
-2.33224e-08
-5.7795e-08
3.41723e-08
-5.74948e-08
9.13275e-08
-5.71552e-08
1.48143e-07
-5.68157e-08
2.04641e-07
-5.64979e-08
2.60838e-07
-5.61963e-08
3.16729e-07
-5.5891e-08
3.72285e-07
-5.5556e-08
4.27437e-07
-5.5152e-08
4.82049e-07
-5.46119e-08
5.35854e-07
-5.38056e-08
5.88321e-07
-5.2467e-08
6.38238e-07
-4.99172e-08
6.82758e-07
-4.45194e-08
7.14338e-07
-3.15804e-08
8.34909e-09
7.05989e-07
6.95912e-09
-1.63243e-08
9.35551e-09
-1.32574e-08
7.87573e-09
-6.3646e-09
3.65043e-09
5.86711e-10
-2.69107e-09
7.14083e-09
-1.10343e-08
1.30306e-08
-2.13088e-08
1.81342e-08
-3.34449e-08
2.24289e-08
-4.73115e-08
2.59953e-08
-6.2731e-08
2.89758e-08
-7.95242e-08
3.15244e-08
-9.75413e-08
3.37713e-08
-1.16666e-07
3.5815e-08
-1.36813e-07
3.77241e-08
-1.57926e-07
3.95435e-08
-1.79965e-07
4.13014e-08
-2.02905e-07
4.30148e-08
-2.26731e-07
4.46935e-08
-2.51432e-07
4.63429e-08
-2.77004e-07
4.79661e-08
-3.03451e-07
4.95651e-08
-3.30777e-07
5.11424e-08
-3.58998e-07
5.27016e-08
-3.88136e-07
5.4248e-08
-4.18224e-07
5.57889e-08
-4.49311e-07
5.73349e-08
-4.8146e-07
5.8901e-08
-5.14749e-07
6.05082e-08
-5.49266e-07
6.21837e-08
-5.85091e-07
6.39617e-08
-6.22259e-07
6.5882e-08
-6.60722e-07
6.79675e-08
-7.004e-07
7.01627e-08
-7.41366e-07
7.22952e-08
-7.83901e-07
7.42474e-08
-8.2797e-07
7.62257e-08
-8.73118e-07
7.83929e-08
-9.19408e-07
8.02788e-08
-9.67576e-07
8.17106e-08
-1.01459e-06
8.43384e-08
-1.05332e-06
8.85651e-08
-1.0936e-06
8.94251e-08
-1.14225e-06
8.6551e-08
-1.18973e-06
8.5213e-08
-1.23553e-06
8.52028e-08
-1.27922e-06
8.57685e-08
-1.32208e-06
8.60687e-08
-1.36425e-06
8.61775e-08
-1.40587e-06
8.61337e-08
-1.44705e-06
8.59553e-08
-1.48781e-06
8.56673e-08
-1.52817e-06
8.52893e-08
-1.56813e-06
8.48366e-08
-1.60769e-06
8.43201e-08
-1.64685e-06
8.37472e-08
-1.68559e-06
8.31226e-08
-1.72389e-06
8.24487e-08
-1.76174e-06
8.17265e-08
-1.79913e-06
8.09556e-08
-1.83603e-06
8.01348e-08
-1.87242e-06
7.92627e-08
-1.90828e-06
7.8337e-08
-1.94358e-06
7.73556e-08
-1.97831e-06
7.63164e-08
-2.01243e-06
7.5217e-08
-2.04592e-06
7.40556e-08
-2.07875e-06
7.28301e-08
-2.1109e-06
7.15391e-08
-2.14232e-06
7.0181e-08
-2.173e-06
6.87549e-08
-2.2029e-06
6.72597e-08
-2.23199e-06
6.5695e-08
-2.26025e-06
6.40605e-08
-2.28765e-06
6.23561e-08
-2.31414e-06
6.05821e-08
-2.33971e-06
5.87389e-08
-2.36433e-06
5.68273e-08
-2.38796e-06
5.4848e-08
-2.41057e-06
5.28021e-08
-2.43215e-06
5.06908e-08
-2.45266e-06
4.85153e-08
-2.47207e-06
4.6277e-08
-2.49036e-06
4.39771e-08
-2.5075e-06
4.16169e-08
-2.52347e-06
3.91976e-08
-2.53824e-06
3.67203e-08
-2.55179e-06
3.41859e-08
-2.56409e-06
3.15948e-08
-2.57512e-06
2.89474e-08
-2.58486e-06
2.62436e-08
-2.59329e-06
2.3483e-08
-2.60039e-06
2.06649e-08
-2.60614e-06
1.77886e-08
-2.61053e-06
1.48535e-08
-2.61356e-06
1.18602e-08
-2.61524e-06
8.81158e-09
-2.61562e-06
5.71625e-09
-2.61477e-06
2.59585e-09
-2.61281e-06
-4.87609e-10
-2.60976e-06
-3.58814e-09
-2.60536e-06
-6.59483e-09
-2.59952e-06
-9.62402e-09
-2.59219e-06
-1.2675e-08
-2.58335e-06
-1.57448e-08
-2.57298e-06
-1.88328e-08
-2.56106e-06
-2.19367e-08
-2.5476e-06
-2.5053e-08
-2.53259e-06
-2.8178e-08
-2.51603e-06
-3.13074e-08
-2.49791e-06
-3.44371e-08
-2.47824e-06
-3.75628e-08
-2.45703e-06
-4.06803e-08
-2.43428e-06
-4.37854e-08
-2.40999e-06
-4.68738e-08
-2.38418e-06
-4.99415e-08
-2.35686e-06
-5.29842e-08
-2.32805e-06
-5.5998e-08
-2.29776e-06
-5.89787e-08
-2.26601e-06
-6.19221e-08
-2.23282e-06
-6.48243e-08
-2.19822e-06
-6.76813e-08
-2.16222e-06
-7.04891e-08
-2.12485e-06
-7.3244e-08
-2.08615e-06
-7.59424e-08
-2.04614e-06
-7.85808e-08
-2.00486e-06
-8.11558e-08
-1.96233e-06
-8.3664e-08
-1.91859e-06
-8.61021e-08
-1.87369e-06
-8.84671e-08
-1.82765e-06
-9.07557e-08
-1.78051e-06
-9.29651e-08
-1.73232e-06
-9.50926e-08
-1.68312e-06
-9.71359e-08
-1.63295e-06
-9.90928e-08
-1.58186e-06
-1.00961e-07
-1.52989e-06
-1.0274e-07
-1.47709e-06
-1.04426e-07
-1.42349e-06
-1.06019e-07
-1.36916e-06
-1.07517e-07
-1.31414e-06
-1.0892e-07
-1.25847e-06
-1.10228e-07
-1.2022e-06
-1.11439e-07
-1.14539e-06
-1.12555e-07
-1.08807e-06
-1.13574e-07
-1.0303e-06
-1.14499e-07
-9.72125e-07
-1.15329e-07
-9.13586e-07
-1.16067e-07
-8.54731e-07
-1.16714e-07
-7.95606e-07
-1.17271e-07
-7.36252e-07
-1.17742e-07
-6.76711e-07
-1.18129e-07
-6.17025e-07
-1.18434e-07
-5.57232e-07
-1.18661e-07
-4.97368e-07
-1.18815e-07
-4.3747e-07
-1.18897e-07
-3.77569e-07
-1.18913e-07
-3.17697e-07
-1.18866e-07
-2.57884e-07
-1.1876e-07
-1.98157e-07
-1.18598e-07
-1.38542e-07
-1.18382e-07
-7.90632e-08
-1.18115e-07
-1.97453e-08
-1.17793e-07
3.93857e-08
-1.17414e-07
9.83038e-08
-1.16978e-07
1.56992e-07
-1.16483e-07
2.15437e-07
-1.1594e-07
2.73644e-07
-1.15362e-07
3.31609e-07
-1.1478e-07
3.89325e-07
-1.14214e-07
4.46782e-07
-1.13654e-07
5.03961e-07
-1.1307e-07
5.60822e-07
-1.12417e-07
6.17286e-07
-1.11616e-07
6.73209e-07
-1.10535e-07
7.28324e-07
-1.0892e-07
7.82135e-07
-1.06279e-07
8.33678e-07
-1.0146e-07
8.81345e-07
-9.21864e-08
9.21841e-07
-7.20762e-08
-2.50967e-08
9.55287e-07
1.7239e-11
-1.63415e-08
-4.82015e-09
-8.42002e-09
-1.20805e-08
8.95732e-10
-2.08466e-08
9.35281e-09
-3.08344e-08
1.71287e-08
-4.1994e-08
2.41902e-08
-5.43675e-08
3.05077e-08
-6.8018e-08
3.60794e-08
-8.29777e-08
4.0955e-08
-9.92305e-08
4.52285e-08
-1.16722e-07
4.90157e-08
-1.35382e-07
5.24311e-08
-1.55141e-07
5.5574e-08
-1.7594e-07
5.85232e-08
-1.97734e-07
6.13374e-08
-2.20491e-07
6.40585e-08
-2.44191e-07
6.67154e-08
-2.68826e-07
6.93281e-08
-2.94393e-07
7.19104e-08
-3.209e-07
7.44727e-08
-3.48359e-07
7.70237e-08
-3.76788e-07
7.9572e-08
-4.06213e-07
8.21268e-08
-4.36664e-07
8.46988e-08
-4.68175e-07
8.72998e-08
-5.00783e-07
8.99424e-08
-5.34521e-07
9.26392e-08
-5.69413e-07
9.54009e-08
-6.05463e-07
9.82332e-08
-6.42634e-07
1.01132e-07
-6.80831e-07
1.0408e-07
-7.19901e-07
1.07037e-07
-7.59675e-07
1.09936e-07
-8.00067e-07
1.12688e-07
-8.4105e-07
1.15231e-07
-8.82396e-07
1.17571e-07
-9.23693e-07
1.1969e-07
-9.64894e-07
1.2148e-07
-1.00619e-06
1.23009e-07
-1.04638e-06
1.24521e-07
-1.08361e-06
1.25796e-07
-1.12023e-06
1.26046e-07
-1.15901e-06
1.25329e-07
-1.19836e-06
1.24569e-07
-1.23723e-06
1.24075e-07
-1.27521e-06
1.23745e-07
-1.31254e-06
1.23397e-07
-1.34935e-06
1.22994e-07
-1.38574e-06
1.22523e-07
-1.42177e-06
1.21979e-07
-1.45746e-06
1.21363e-07
-1.49285e-06
1.20678e-07
-1.52794e-06
1.19929e-07
-1.56274e-06
1.19118e-07
-1.59724e-06
1.18246e-07
-1.63143e-06
1.17312e-07
-1.6653e-06
1.16318e-07
-1.69883e-06
1.15259e-07
-1.73201e-06
1.14134e-07
-1.76482e-06
1.1294e-07
-1.79723e-06
1.11673e-07
-1.82922e-06
1.1033e-07
-1.86077e-06
1.08907e-07
-1.89185e-06
1.074e-07
-1.92244e-06
1.05807e-07
-1.95251e-06
1.04124e-07
-1.98203e-06
1.02349e-07
-2.01097e-06
1.00479e-07
-2.0393e-06
9.85122e-08
-2.06699e-06
9.6447e-08
-2.09402e-06
9.42822e-08
-2.12034e-06
9.20168e-08
-2.14593e-06
8.96505e-08
-2.17076e-06
8.71833e-08
-2.19479e-06
8.46152e-08
-2.218e-06
8.19469e-08
-2.24035e-06
7.91794e-08
-2.26182e-06
7.63138e-08
-2.28236e-06
7.33515e-08
-2.30197e-06
7.02942e-08
-2.3206e-06
6.71437e-08
-2.33822e-06
6.39018e-08
-2.35481e-06
6.05705e-08
-2.37035e-06
5.7152e-08
-2.3848e-06
5.36481e-08
-2.39814e-06
5.00608e-08
-2.41035e-06
4.6392e-08
-2.4214e-06
4.26433e-08
-2.43126e-06
3.88162e-08
-2.43993e-06
3.49124e-08
-2.44738e-06
3.09333e-08
-2.4536e-06
2.68807e-08
-2.45857e-06
2.27571e-08
-2.46228e-06
1.85659e-08
-2.46473e-06
1.43126e-08
-2.46593e-06
1.00054e-08
-2.46587e-06
5.6565e-09
-2.46455e-06
1.28287e-09
-2.46195e-06
-3.0942e-09
-2.45804e-06
-7.49143e-09
-2.45273e-06
-1.19073e-08
-2.44599e-06
-1.63661e-08
-2.4378e-06
-2.08667e-08
-2.42814e-06
-2.54043e-08
-2.417e-06
-2.99735e-08
-2.40437e-06
-3.45682e-08
-2.39024e-06
-3.91824e-08
-2.3746e-06
-4.38099e-08
-2.35747e-06
-4.84442e-08
-2.33883e-06
-5.30791e-08
-2.31868e-06
-5.77083e-08
-2.29704e-06
-6.23253e-08
-2.2739e-06
-6.69239e-08
-2.24927e-06
-7.1498e-08
-2.22317e-06
-7.60414e-08
-2.19561e-06
-8.0548e-08
-2.1666e-06
-8.50116e-08
-2.13615e-06
-8.94263e-08
-2.10428e-06
-9.37859e-08
-2.07102e-06
-9.80844e-08
-2.03639e-06
-1.02316e-07
-2.0004e-06
-1.06474e-07
-1.96309e-06
-1.10555e-07
-1.92448e-06
-1.14551e-07
-1.88461e-06
-1.18458e-07
-1.84349e-06
-1.22272e-07
-1.80117e-06
-1.25986e-07
-1.75768e-06
-1.29596e-07
-1.71305e-06
-1.33097e-07
-1.66732e-06
-1.36486e-07
-1.62052e-06
-1.39757e-07
-1.57271e-06
-1.42906e-07
-1.52392e-06
-1.4593e-07
-1.47418e-06
-1.48826e-07
-1.42356e-06
-1.5159e-07
-1.37207e-06
-1.54221e-07
-1.31979e-06
-1.56715e-07
-1.26673e-06
-1.5907e-07
-1.21297e-06
-1.61285e-07
-1.15853e-06
-1.63358e-07
-1.10347e-06
-1.6529e-07
-1.04783e-06
-1.67079e-07
-9.91658e-07
-1.68725e-07
-9.35004e-07
-1.70228e-07
-8.77912e-07
-1.71591e-07
-8.20428e-07
-1.72814e-07
-7.62596e-07
-1.73899e-07
-7.04461e-07
-1.74849e-07
-6.46066e-07
-1.75666e-07
-5.87453e-07
-1.76355e-07
-5.28663e-07
-1.76919e-07
-4.69734e-07
-1.77362e-07
-4.10706e-07
-1.7769e-07
-3.51613e-07
-1.77908e-07
-2.92489e-07
-1.7802e-07
-2.33368e-07
-1.78034e-07
-1.74278e-07
-1.77956e-07
-1.15248e-07
-1.7779e-07
-5.63039e-08
-1.77542e-07
2.53081e-09
-1.77217e-07
6.1232e-08
-1.76816e-07
1.19778e-07
-1.76339e-07
1.78152e-07
-1.75787e-07
2.36336e-07
-1.75162e-07
2.94327e-07
-1.74474e-07
3.52131e-07
-1.73744e-07
4.09758e-07
-1.72989e-07
4.67195e-07
-1.72217e-07
5.24422e-07
-1.71441e-07
5.81419e-07
-1.70651e-07
6.38159e-07
-1.6981e-07
6.94596e-07
-1.68854e-07
7.50652e-07
-1.67672e-07
8.06189e-07
-1.66072e-07
8.60973e-07
-1.63703e-07
9.146e-07
-1.59906e-07
9.66441e-07
-1.53302e-07
1.0156e-06
-1.41343e-07
1.06156e-06
-1.18038e-07
-7.20193e-08
1.10848e-06
-6.2515e-09
-1.009e-08
-1.62829e-08
1.61136e-09
-2.74957e-08
1.21086e-08
-3.95133e-08
2.13704e-08
-5.22098e-08
2.98251e-08
-6.56117e-08
3.75921e-08
-7.98013e-08
4.46972e-08
-9.48756e-08
5.11537e-08
-1.10916e-07
5.69955e-08
-1.27972e-07
6.22847e-08
-1.4606e-07
6.71038e-08
-1.65172e-07
7.15424e-08
-1.85284e-07
7.56864e-08
-2.06371e-07
7.96103e-08
-2.28408e-07
8.33748e-08
-2.51377e-07
8.70271e-08
-2.75264e-07
9.06025e-08
-3.00063e-07
9.4127e-08
-3.25772e-07
9.76197e-08
-3.52395e-07
1.01095e-07
-3.79936e-07
1.04565e-07
-4.08402e-07
1.08038e-07
-4.37798e-07
1.11523e-07
-4.68127e-07
1.15027e-07
-4.99381e-07
1.18554e-07
-5.31543e-07
1.22105e-07
-5.6458e-07
1.25676e-07
-5.98434e-07
1.29255e-07
-6.3302e-07
1.32819e-07
-6.68223e-07
1.36335e-07
-7.03898e-07
1.39755e-07
-7.39884e-07
1.43023e-07
-7.76026e-07
1.46078e-07
-8.12199e-07
1.48861e-07
-8.48302e-07
1.51333e-07
-8.84202e-07
1.53472e-07
-9.19772e-07
1.55259e-07
-9.54982e-07
1.56691e-07
-9.89801e-07
1.57828e-07
-1.024e-06
1.5872e-07
-1.05745e-06
1.59244e-07
-1.09062e-06
1.5922e-07
-1.12405e-06
1.5876e-07
-1.15764e-06
1.58151e-07
-1.1911e-06
1.57536e-07
-1.22428e-06
1.56926e-07
-1.25718e-06
1.56296e-07
-1.28981e-06
1.55631e-07
-1.32221e-06
1.54921e-07
-1.35439e-06
1.54158e-07
-1.38637e-06
1.53338e-07
-1.41815e-06
1.52457e-07
-1.44973e-06
1.51512e-07
-1.48111e-06
1.50501e-07
-1.51229e-06
1.4942e-07
-1.54324e-06
1.48267e-07
-1.57396e-06
1.47037e-07
-1.60443e-06
1.45726e-07
-1.63462e-06
1.44329e-07
-1.66452e-06
1.42841e-07
-1.6941e-06
1.41257e-07
-1.72335e-06
1.39572e-07
-1.75222e-06
1.37781e-07
-1.7807e-06
1.3588e-07
-1.80876e-06
1.33865e-07
-1.83636e-06
1.3173e-07
-1.86349e-06
1.29474e-07
-1.8901e-06
1.27092e-07
-1.91617e-06
1.24583e-07
-1.94167e-06
1.21944e-07
-1.96656e-06
1.19174e-07
-1.99082e-06
1.16271e-07
-2.0144e-06
1.13235e-07
-2.03728e-06
1.10067e-07
-2.05943e-06
1.06765e-07
-2.08082e-06
1.03332e-07
-2.10141e-06
9.97679e-08
-2.12117e-06
9.60748e-08
-2.14007e-06
9.22545e-08
-2.15809e-06
8.8309e-08
-2.17518e-06
8.42409e-08
-2.19133e-06
8.00527e-08
-2.20651e-06
7.57472e-08
-2.22069e-06
7.13272e-08
-2.23383e-06
6.67957e-08
-2.24593e-06
6.21556e-08
-2.25695e-06
5.74098e-08
-2.26686e-06
5.25611e-08
-2.27566e-06
4.76124e-08
-2.28331e-06
4.25666e-08
-2.28981e-06
3.74268e-08
-2.29512e-06
3.21965e-08
-2.29925e-06
2.68797e-08
-2.30216e-06
2.14817e-08
-2.30386e-06
1.60088e-08
-2.30432e-06
1.0469e-08
-2.30354e-06
4.87182e-09
-2.30148e-06
-7.73205e-10
-2.29812e-06
-6.45937e-09
-2.29342e-06
-1.21921e-08
-2.28734e-06
-1.79793e-08
-2.27988e-06
-2.38277e-08
-2.27102e-06
-2.97334e-08
-2.26073e-06
-3.56897e-08
-2.24901e-06
-4.16889e-08
-2.23586e-06
-4.77227e-08
-2.22126e-06
-5.37826e-08
-2.20521e-06
-5.98603e-08
-2.18771e-06
-6.59473e-08
-2.16875e-06
-7.20351e-08
-2.14834e-06
-7.81156e-08
-2.12649e-06
-8.41802e-08
-2.10319e-06
-9.02209e-08
-2.07846e-06
-9.62294e-08
-2.0523e-06
-1.02198e-07
-2.02473e-06
-1.08118e-07
-1.99576e-06
-1.13981e-07
-1.96541e-06
-1.1978e-07
-1.93369e-06