/*--------------------------------*- C++ -*----------------------------------*\
  =========                 |
  \\      /  F ield         | OpenFOAM: The Open Source CFD Toolbox
   \\    /   O peration     | Website:  https://openfoam.org
    \\  /    A nd           | Version:  9
     \\/     M anipulation  |
\*---------------------------------------------------------------------------*/
FoamFile
{
    format      ascii;
    class       volScalarField;
    location    "0.15";
    object      alpha.water;
}
// * * * * * * * * * * * * * * * * * * * * * * * * * * * * * * * * * * * * * //

dimensions      [0 0 0 0 0 0 0];

internalField   nonuniform List<scalar> 
1935
(
1
1
1
1
1
1
1
1
1
1
1
1
1
1
1
1
1
1
1
1
1
1
1
1
1
1
1
1
1
1
1
1
1
0.999999
0.999999
0.999999
0.999999
0.999999
0.999999
0.996502
0.987281
0.985928
0.971229
0.676473
1
1
1
1
1
1
1
1
1
1
1
1
1
1
1
1
1
1
1
1
1
1
1
1
1
1
1
1
1
1
1
1
1
1
0.99998
0.999972
0.999971
0.999934
0.999832
0.998922
0.976085
0.748659
0.306623
0.134338
1
1
1
1
1
1
1
1
1
1
1
1
1
1
1
1
1
1
1
1
1
1
1
1
1
1
1
1
1
1
1
1
1
0.999999
0.999993
0.999717
0.999098
0.999087
0.997943
0.973934
0.756316
0.251123
0.0162344
0.0139845
1
1
1
1
1
1
1
1
1
1
1
1
1
1
1
1
1
1
1
1
1
1
1
1
1
1
1
1
1
1
1
1
1
0.999963
0.999189
0.998534
0.998252
0.987932
0.88077
0.501934
0.128994
0.0229126
0.00355451
0.00239171
1
1
1
1
1
1
1
1
1
1
1
1
1
1
1
1
1
1
1
1
1
1
1
1
1
1
1
1
1
1
1
1
0.999969
0.999286
0.998279
0.991393
0.916026
0.603485
0.201669
0.0486288
0.018037
0.00544058
0.000757275
0.00041208
1
1
1
1
1
1
1
1
1
1
1
1
1
1
1
1
1
1
1
1
1
1
1
1
1
1
1
1
1
1
1
0.99998
0.99977
0.997343
0.957042
0.711085
0.272507
0.0548887
0.0185713
0.00837727
0.00303397
0.000849972
0.000172133
0.000151937
1
1
1
1
1
1
1
1
1
1
1
1
1
1
1
1
1
1
1
1
1
1
1
1
1
1
1
1
1
1
1
0.999997
0.997663
0.894925
0.48799
0.095623
0.0139954
0.00639372
0.00288346
0.00105601
0.000352455
0.000106982
4.45534e-05
6.01636e-05
1
1
1
1
1
1
1
1
1
1
1
1
1
1
1
1
1
1
1
1
1
1
1
1
1
1
1
1
1
1
0.999999
0.999926
0.862329
0.383033
0.0417643
0.00443911
0.00171846
0.000715532
0.000275892
0.000100609
3.85902e-05
1.70621e-05
1.30498e-05
2.06213e-05
1
1
1
1
1
1
1
1
1
1
1
1
1
1
1
1
1
1
1
1
1
1
1
1
1
1
1
1
1
1
0.99999
0.907563
0.403126
0.031238
0.00460293
0.00129369
0.000333894
8.98312e-05
2.5959e-05
9.55669e-06
5.32956e-06
4.24028e-06
4.02923e-06
7.76078e-06
1
1
1
1
1
1
1
1
1
1
1
1
1
1
1
1
1
1
1
1
1
1
1
1
1
1
1
1
1
1
0.985478
0.555495
0.0553097
0.00530532
0.00131879
0.000324549
8.33106e-05
2.39028e-05
6.47899e-06
2.1468e-06
1.239e-06
1.12537e-06
1.2289e-06
2.72536e-06
1
1
1
1
1
1
1
1
1
1
1
1
1
1
1
1
1
1
1
1
1
1
1
1
1
1
1
1
1
1.00001
0.794915
0.172535
0.00789426
0.00188818
0.000438973
0.000100729
2.40533e-05
6.31353e-06
1.96696e-06
6.10038e-07
3.18982e-07
3.04556e-07
3.53092e-07
6.73396e-07
1
1
1
1
1
1
1
1
1
1
1
1
1
1
1
1
1
1
1
1
1
1
1
1
1
1
1
1
1
0.987323
0.462218
0.0214062
0.00332422
0.000752566
0.00016391
3.52011e-05
7.73574e-06
1.94033e-06
5.99477e-07
1.90341e-07
8.85593e-08
8.23081e-08
8.78787e-08
2.15659e-07
1
1
1
1
1
1
1
1
1
1
1
1
1
1
1
1
1
1
1
1
1
1
1
1
1
1
1
1
1
0.832985
0.173026
0.00676438
0.001466
0.000318482
6.6133e-05
1.34813e-05
2.79086e-06
6.43168e-07
1.87725e-07
6.35169e-08
2.68441e-08
2.2165e-08
2.42374e-08
6.40055e-08
1
1
1
1
1
1
1
1
1
1
1
1
1
1
1
1
1
1
1
1
1
1
1
1
1
1
1
1
0.999996
0.57996
0.0377552
0.00325926
0.000672581
0.00013927
2.77768e-05
5.43456e-06
1.07241e-06
2.32232e-07
6.25373e-08
2.28902e-08
8.92346e-09
6.3424e-09
6.95305e-09
1.682e-08
1
1
1
1
1
1
1
1
1
1
1
1
1
1
1
1
1
1
1
1
1
1
1
1
1
1
1
1
0.954627
0.306145
0.00810941
0.00161973
0.000325841
6.35191e-05
1.21279e-05
2.29335e-06
4.38726e-07
8.96965e-08
2.32296e-08
9.21568e-09
3.89353e-09
2.39311e-09
2.21395e-09
4.52635e-09
1
1
1
1
1
1
1
1
1
1
1
1
1
1
1
1
1
1
1
1
1
1
1
1
1
1
1
1
0.805205
0.124503
0.00428871
0.00079788
0.000154336
2.88414e-05
5.36141e-06
1.01173e-06
2.02018e-07
4.02317e-08
9.38923e-09
3.90581e-09
2.12555e-09
1.37373e-09
1.07443e-09
1.30329e-09
1
1
1
1
1
1
1
1
1
1
1
1
1
1
1
1
1
1
1
1
1
1
1
1
1
1
1
0.999999
0.596248
0.0344795
0.00228047
0.000404659
7.40359e-05
1.32679e-05
2.43408e-06
4.98513e-07
1.03457e-07
2.05853e-08
4.29197e-09
2.05623e-09
1.4776e-09
1.05044e-09
6.89587e-10
5.9475e-10
1
1
1
1
1
1
1
1
1
1
1
1
1
1
1
1
1
1
1
1
1
1
1
1
1
1
1
0.992639
0.361459
0.00710636
0.00122537
0.000209894
3.62037e-05
6.31122e-06
1.23451e-06
2.67233e-07
5.4839e-08
1.05534e-08
2.22917e-09
1.33312e-09
1.15241e-09
8.7392e-10
5.65094e-10
3.64707e-10
1
1
1
1
1
1
1
1
1
1
1
1
1
1
1
1
1
1
1
1
1
1
1
1
1
1
1
0.890429
0.187513
0.00403237
0.000638822
0.000105279
1.7396e-05
3.08134e-06
6.80619e-07
1.42e-07
2.88745e-08
5.51072e-09
1.28533e-09
9.88371e-10
8.59169e-10
6.45431e-10
4.1536e-10
2.62096e-10
1
1
1
1
1
1
1
1
1
1
1
1
1
1
1
1
1
1
1
1
1
1
1
1
1
1
1
0.747896
0.0765686
0.00220441
0.000328761
5.16962e-05
8.26401e-06
1.65865e-06
3.5603e-07
7.15467e-08
1.44779e-08
2.81416e-09
9.22751e-10
7.63571e-10
5.9083e-10
4.05852e-10
2.50239e-10
1.52076e-10
1
1
1
1
1
1
1
1
1
1
1
1
1
1
1
1
1
1
1
1
1
1
1
1
1
1
1
0.56025
0.0213244
0.00123076
0.00017434
2.59072e-05
4.11423e-06
9.05607e-07
1.82327e-07
3.51879e-08
6.95736e-09
1.41359e-09
7.87169e-10
5.79769e-10
3.80629e-10
2.27797e-10
1.27612e-10
7.10119e-11
4.87739e-11
1
1
1
1
1
1
1
1
1
1
1
1
1
1
1
1
1
1
1
1
1
1
1
1
1
1
0.998962
0.356874
0.00499584
0.000687797
9.35831e-05
1.32836e-05
2.37261e-06
5.00411e-07
9.56152e-08
1.77063e-08
3.30964e-09
8.90037e-10
6.39891e-10
4.16614e-10
2.32613e-10
1.18601e-10
5.83618e-11
2.91606e-11
1.64365e-11
1
1
1
1
1
1
1
1
1
1
1
1
1
1
1
1
1
1
1
1
1
1
1
1
1
1
0.916888
0.205256
0.00290464
0.000368507
4.79294e-05
6.634e-06
1.4021e-06
2.75546e-07
5.01485e-08
9.06281e-09
1.59492e-09
7.01653e-10
4.80132e-10
2.76592e-10
1.34152e-10
5.88245e-11
2.51702e-11
1.10509e-11
5.34682e-12
1
1
1
1
1
1
1
1
1
1
1
1
1
1
1
1
1
1
1
1
1
1
1
1
1
1
0.805125
0.0986645
0.00157951
0.00018732
2.34759e-05
3.36428e-06
7.68348e-07
1.44963e-07
2.5566e-08
4.57711e-09
8.81474e-10
5.52048e-10
3.38889e-10
1.71242e-10
7.28859e-11
2.79988e-11
1.05075e-11
4.05035e-12
1.69698e-12
1
1
1
1
1
1
1
1
1
1
1
1
1
1
1
1
1
1
1
1
1
1
1
1
1
1
0.653474
0.0348173
0.000861249
9.53313e-05
1.15099e-05
2.02137e-06
4.15292e-07
7.4966e-08
1.29145e-08
2.24928e-09
6.3338e-10
4.05526e-10
2.22777e-10
9.93531e-11
3.74198e-11
1.28038e-11
4.27586e-12
1.45832e-12
5.31874e-13
1
1
1
1
1
1
1
1
1
1
1
1
1
1
1
1
1
1
1
1
1
1
1
1
1
1
0.474265
0.00781719
0.000486243
5.07782e-05
5.83837e-06
1.2122e-06
2.31713e-07
3.97555e-08
6.68895e-09
1.11078e-09
5.02072e-10
2.87336e-10
1.38201e-10
5.43175e-11
1.82403e-11
5.63241e-12
1.69693e-12
5.17525e-13
1.65853e-13
1
1
1
1
1
1
1
1
1
1
1
1
1
1
1
1
1
1
1
1
1
1
1
1
1
0.988981
0.301373
0.00268711
0.000270935
2.71556e-05
3.08324e-06
7.15463e-07
1.29266e-07
2.12811e-08
3.50483e-09
6.37367e-10
3.71256e-10
1.94163e-10
8.19807e-11
2.83329e-11
8.52151e-12
2.39328e-12
6.56938e-13
1.81031e-13
5.15405e-14
1
1
1
1
1
1
1
1
1
1
1
1
1
1
1
1
1
1
1
1
1
1
1
1
1
0.90553
0.177506
0.00150126
0.000139756
1.34911e-05
1.90496e-06
4.1249e-07
7.0035e-08
1.11544e-08
1.78797e-09
4.6397e-10
2.55924e-10
1.21504e-10
4.57974e-11
1.41223e-11
3.84306e-12
9.87512e-13
2.48449e-13
6.23746e-14
1.59519e-14
1
1
1
1
1
1
1
1
1
1
1
1
1
1
1
1
1
1
1
1
1
1
1
1
1
0.801019
0.0875878
0.000767291
6.53422e-05
6.10233e-06
1.17786e-06
2.26514e-07
3.66812e-08
5.7369e-09
9.07387e-10
3.60887e-10
1.73705e-10
7.1613e-11
2.39402e-11
6.68232e-12
1.6704e-12
3.96091e-13
9.18322e-14
2.11393e-14
4.90402e-15
1
1
1
1
1
1
1
1
1
1
1
1
1
1
1
1
1
1
1
1
1
1
1
1
1
0.661533
0.0313615
0.000383438
2.96211e-05
2.68902e-06
6.70647e-07
1.20051e-07
1.89687e-08
2.95172e-09
5.19147e-10
2.60016e-10
1.14202e-10
4.05996e-11
1.18699e-11
3.00523e-12
6.96789e-13
1.53825e-13
3.30792e-14
7.0251e-15
1.49099e-15
1
1
1
1
1
1
1
1
1
1
1
1
1
1
1
1
1
1
1
1
1
1
1
1
1
0.496499
0.00642571
0.000203876
1.45521e-05
1.36491e-06
3.82618e-07
6.45521e-08
9.93268e-09
1.52214e-09
3.62369e-10
1.72993e-10
6.97949e-11
2.18879e-11
5.63785e-12
1.29502e-12
2.78888e-13
5.75756e-14
1.15512e-14
2.27735e-15
4.45632e-16
1
1
1
1
1
1
1
1
1
1
1
1
1
1
1
1
1
1
1
1
1
1
1
1
1
0.330358
0.001585
0.000110727
7.64709e-06
9.97009e-07
2.27491e-07
3.55665e-08
5.25555e-09
7.94133e-10
2.6431e-10
1.10488e-10
3.93873e-11
1.10139e-11
2.55296e-12
5.36414e-13
1.07255e-13
2.07121e-14
3.88947e-15
7.15583e-16
1.2999e-16
0.999999
1
1
1
1
1
1
1
1
1
1
1
1
1
1
1
1
1
1
1
1
1
1
1
0.940996
0.203683
0.000869695
5.51632e-05
3.64755e-06
6.9252e-07
1.31092e-07
1.90526e-08
2.72251e-09
4.42403e-10
1.79617e-10
6.72081e-11
2.06948e-11
5.14826e-12
1.09194e-12
2.1244e-13
3.9547e-14
7.14171e-15
1.25689e-15
2.16554e-16
3.67211e-17
0.999997
0.999999
0.999999
1
1
1
1
1
1
1
1
1
1
1
1
1
1
1
1
1
1
1
1
1
0.848352
0.109839
0.000411385
2.28729e-05
1.46077e-06
4.11845e-07
6.80773e-08
9.51267e-09
1.34993e-09
2.83253e-10
1.11851e-10
3.77355e-11
1.01105e-11
2.24241e-12
4.38667e-13
7.9734e-14
1.38863e-14
2.34863e-15
3.878e-16
6.27192e-17
9.96897e-18
0.999988
0.999994
0.999998
0.999999
1
1
1
1
1
1
1
1
1
1
1
1
1
1
1
1
1
1
1
1
0.726174
0.0457246
0.000167395
7.82997e-06
5.33127e-07
2.1694e-07
3.33948e-08
4.6308e-09
6.70222e-10
1.8706e-10
6.5356e-11
1.93836e-11
4.56482e-12
9.11096e-13
1.65039e-13
2.81363e-14
4.60328e-15
7.31248e-16
1.13494e-16
1.72673e-17
2.58103e-18
0.999949
0.999973
0.999989
0.999996
0.999998
0.999999
1
1
1
1
1
1
1
1
1
1
1
1
1
1
1
1
1
0.999999
0.573705
0.0120587
6.64879e-05
2.75532e-06
4.34201e-07
1.20804e-07
1.75985e-08
2.42328e-09
3.58787e-10
1.16738e-10
3.59706e-11
9.16549e-12
1.90241e-12
3.44838e-13
5.79856e-14
9.27652e-15
1.4287e-15
2.13755e-16
3.1263e-17
4.48529e-18
6.32365e-19
0.999779
0.999882
0.999951
0.999979
0.999991
0.999996
0.999998
0.999999
0.999999
0.999999
0.999999
0.999999
0.999999
0.999999
0.999999
0.999999
0.999999
0.999999
0.999999
0.999999
0.999999
0.999999
1
0.999997
0.408372
0.00101279
3.01986e-05
1.22081e-06
3.77936e-07
7.60203e-08
1.02935e-08
1.36971e-09
2.14144e-10
6.7373e-11
1.82414e-11
3.9841e-12
7.32221e-13
1.21286e-13
1.89496e-14
2.84163e-15
4.12131e-16
5.8188e-17
8.0398e-18
1.09061e-18
1.45461e-19
0.999042
0.999479
0.999776
0.999902
0.999956
0.999977
0.999987
0.999992
0.999995
0.999996
0.999997
0.999997
0.999997
0.999997
0.999997
0.999997
0.999996
0.999996
0.999995
0.999994
0.999994
0.999995
0.999998
0.999848
0.259153
0.000416231
1.42191e-05
6.09283e-07
2.81013e-07
4.71829e-08
6.03733e-09
7.81065e-10
1.3168e-10
3.57542e-11
8.32252e-12
1.57369e-12
2.58886e-13
3.93776e-14
5.71972e-15
8.03441e-16
1.09744e-16
1.46399e-17
1.91513e-18
2.46297e-19
3.11719e-20
0.995816
0.99768
0.998967
0.99953
0.999782
0.999886
0.999933
0.999957
0.99997
0.999977
0.999981
0.999983
0.999984
0.999984
0.999983
0.999981
0.999979
0.999976
0.999972
0.999969
0.999966
0.999976
0.999988
0.915165
0.14968
0.000182218
5.18056e-06
2.61053e-07
1.80227e-07
2.72514e-08
3.24659e-09
4.02393e-10
7.52481e-11
1.71396e-11
3.37469e-12
5.59509e-13
8.33386e-14
1.16807e-14
1.57889e-15
2.07823e-16
2.67464e-17
3.37723e-18
4.19399e-19
5.12805e-20
6.17782e-21
0.963789
0.989565
0.995204
0.997741
0.998923
0.99942
0.999649
0.999773
0.99984
0.999876
0.999896
0.999906
0.999909
0.999908
0.999904
0.999895
0.999883
0.999867
0.999849
0.99983
0.999813
0.999868
0.999914
0.802703
0.0682409
5.73061e-05
1.12909e-06
9.50164e-08
8.60915e-08
1.27764e-08
1.30007e-09
1.83061e-10
3.81016e-11
7.30354e-12
1.21687e-12
1.79065e-13
2.43805e-14
3.1622e-15
3.97572e-16
4.89108e-17
5.92168e-18
7.08933e-19
8.37482e-20
9.76806e-21
1.12457e-21
0.437855
0.709198
0.921871
0.989163
0.994665
0.997059
0.998171
0.998791
0.999131
0.999319
0.999422
0.999475
0.999494
0.999488
0.999462
0.999417
0.999352
0.99927
0.999177
0.99908
0.998982
0.999264
0.999535
0.629514
0.0193392
1.06315e-05
1.73168e-07
1.46542e-07
3.05362e-08
3.4704e-09
4.28216e-10
7.83662e-11
1.64379e-11
2.7198e-12
3.90788e-13
5.15933e-14
6.45697e-15
7.77868e-16
9.12802e-17
1.05282e-17
1.20054e-18
1.3568e-19
1.51948e-20
1.69325e-21
1.86786e-22
0.00115948
0.0973742
0.326772
0.6468
0.871515
0.968867
0.990474
0.993565
0.995302
0.996268
0.996804
0.997077
0.997173
0.99714
0.996999
0.996758
0.996414
0.995986
0.995503
0.995002
0.994491
0.995516
0.997483
0.424432
0.00162074
1.00382e-06
1.78468e-08
8.22183e-08
5.94618e-09
5.77736e-10
1.56982e-10
3.14518e-11
5.98293e-12
8.78514e-13
1.11771e-13
1.33734e-14
1.54389e-15
1.73289e-16
1.90635e-17
2.07038e-18
2.23071e-19
2.38768e-20
2.54131e-21
2.69384e-22
2.83274e-23
1.75491e-13
0
2.24989e-08
0.0601264
0.223719
0.452034
0.646476
0.779078
0.859279
0.905089
0.930148
0.942316
0.945983
0.943734
0.936436
0.924301
0.907095
0.885655
0.861922
0.837342
0.811496
0.826249
0.931548
0.226178
5.32141e-05
2.21064e-08
1.16826e-08
4.67109e-08
3.04236e-10
1.29863e-10
6.35651e-11
1.15931e-11
1.88104e-12
2.475e-13
2.84527e-14
3.11376e-15
3.32876e-16
3.49306e-17
3.61675e-18
3.71436e-19
3.79821e-20
3.8705e-21
3.92915e-22
3.9737e-23
3.99528e-24
1.28131e-17
-1.43189e-17
0
-2.8814e-10
-3.31034e-11
0.000326338
0.0464404
0.114759
0.186516
0.248552
0.296201
0.32502
0.334134
0.328004
0.309391
0.281646
0.249588
0.21591
0.18565
0.158968
)
;

boundaryField
{
    leftWall
    {
        type            zeroGradient;
    }
    rightWall
    {
        type            zeroGradient;
    }
    lowerWall
    {
        type            zeroGradient;
    }
    atmosphere
    {
        type            inletOutlet;
        inletValue      nonuniform List<scalar> 0();
        value           nonuniform List<scalar> 0();
    }
    defaultFaces
    {
        type            empty;
    }
    procBoundary0to1
    {
        type            processor;
        value           nonuniform List<scalar> 
44
(
0.0764813
0.061672
0.0256165
0.00521796
0.00104933
0.00044213
0.000160625
5.92889e-05
2.69441e-05
7.2069e-06
1.96032e-06
6.92752e-07
2.09819e-07
6.30131e-08
1.71205e-08
4.54e-09
1.21593e-09
4.15077e-10
1.75751e-10
1.07099e-10
1.07099e-10
3.70378e-11
1.21993e-11
3.1618e-12
8.36067e-13
2.22624e-13
5.95031e-14
1.6019e-14
4.34939e-15
1.18853e-15
3.25281e-16
8.85263e-17
2.37503e-17
6.22209e-18
1.57674e-18
3.8299e-19
8.83975e-20
1.92262e-20
3.90935e-21
7.3771e-22
1.28346e-22
2.0451e-23
2.97578e-24
4.00895e-25
)
;
    }
    procBoundary0to2
    {
        type            processor;
        value           nonuniform List<scalar> 
46
(
0.134925
0.147408
0.286852
0.065372
2.35574e-05
2.41444e-09
1.10076e-08
2.65323e-08
6.19054e-12
5.43829e-11
2.60134e-11
3.92477e-12
5.26164e-13
6.14144e-14
6.43442e-15
6.48847e-16
6.45584e-17
6.36363e-18
6.23265e-19
6.08468e-20
5.93427e-21
5.78147e-22
5.62025e-23
5.45052e-24
5.25687e-25
2.38607e-17
-8.88073e-17
-1.00826e-16
-1.38608e-14
-5.0697e-13
-1.22045e-13
-1.21769e-12
-7.17838e-12
-5.68374e-12
-1.25719e-11
-8.83622e-10
-3.36079e-09
0
0
-5.85626e-09
-1.13321e-09
-2.07208e-10
-8.35033e-11
-2.32322e-11
0.134925
-4.39656e-12
)
;
    }
}


// ************************************************************************* //
