/*--------------------------------*- C++ -*----------------------------------*\
  =========                 |
  \\      /  F ield         | OpenFOAM: The Open Source CFD Toolbox
   \\    /   O peration     | Website:  https://openfoam.org
    \\  /    A nd           | Version:  9
     \\/     M anipulation  |
\*---------------------------------------------------------------------------*/
FoamFile
{
    format      ascii;
    class       volScalarField;
    location    "0.15";
    object      k;
}
// * * * * * * * * * * * * * * * * * * * * * * * * * * * * * * * * * * * * * //

dimensions      [0 2 -2 0 0 0 0];

internalField   nonuniform List<scalar> 
1935
(
0.00630039
0.0112451
0.0157525
0.0190431
0.0215843
0.0236322
0.025335
0.0267919
0.0280758
0.0292433
0.0303399
0.0314036
0.0324672
0.0335604
0.0347103
0.0359427
0.0372816
0.0387484
0.0403599
0.0421258
0.0440442
0.0460972
0.0482464
0.0504289
0.0525564
0.0545183
0.05619
0.0574477
0.0581861
0.0583353
0.0578694
0.0567801
0.0550397
0.0528319
0.05044
0.0479411
0.0455124
0.0433817
0.0417578
0.0407582
0.0403662
0.0404205
0.0402727
0.0386544
0.0103598
0.0231554
0.0315672
0.0377238
0.0424089
0.0460916
0.049075
0.0515696
0.0537288
0.0556683
0.0574792
0.0592353
0.0609993
0.0628256
0.0647633
0.0668561
0.0691419
0.0716504
0.0743983
0.0773837
0.0805782
0.0839191
0.0873031
0.0905828
0.0935698
0.0960473
0.0977938
0.0986192
0.0984085
0.0971601
0.0949963
0.0921323
0.0887736
0.0848352
0.0806389
0.076681
0.0734145
0.0711588
0.0700673
0.0701476
0.0712425
0.0729074
0.0738907
0.0720418
0.0129883
0.0287663
0.0387813
0.0460775
0.0516748
0.0561124
0.059733
0.0627802
0.0654362
0.0678405
0.0701033
0.0723146
0.0745494
0.0768725
0.0793406
0.0820022
0.0848965
0.0880497
0.0914692
0.0951365
0.0989986
0.102961
0.106879
0.110561
0.113776
0.116267
0.117792
0.118168
0.117325
0.115355
0.11252
0.109207
0.105792
0.102534
0.0995268
0.0969088
0.0948819
0.0937328
0.0937831
0.0953055
0.0984793
0.103566
0.111016
0.112831
0.0147822
0.0324885
0.0434632
0.0513689
0.0574391
0.0622788
0.066255
0.0696267
0.0725885
0.075291
0.0778537
0.0803737
0.0829321
0.0855976
0.0884284
0.0914723
0.0947646
0.0983234
0.102144
0.10619
0.110388
0.114616
0.118706
0.122441
0.12557
0.12783
0.128992
0.128907
0.127565
0.125148
0.122027
0.118689
0.115585
0.113009
0.111094
0.109985
0.109892
0.111095
0.113956
0.118919
0.126628
0.13898
0.161727
0.17945
0.0161095
0.0351428
0.0468123
0.0551286
0.0614899
0.0665688
0.0707599
0.0743353
0.0774974
0.0804024
0.083174
0.0859127
0.0887012
0.0916087
0.0946918
0.0979947
0.101546
0.105354
0.109402
0.113638
0.117971
0.122264
0.126332
0.129951
0.132871
0.134845
0.135673
0.135255
0.133645
0.131097
0.128057
0.125073
0.122634
0.121064
0.120578
0.121416
0.12387
0.1283
0.1352
0.145257
0.159584
0.180372
0.207171
0.223768
0.0171489
0.0370833
0.0492946
0.0579294
0.0644957
0.0697271
0.0740496
0.0777504
0.0810394
0.0840765
0.0869874
0.0898732
0.0928163
0.0958838
0.0991291
0.102591
0.10629
0.110227
0.114371
0.118661
0.122994
0.127224
0.131163
0.134594
0.137282
0.139011
0.139624
0.13907
0.137461
0.1351
0.132474
0.13016
0.128673
0.128409
0.129741
0.133106
0.138916
0.147623
0.159821
0.176931
0.199683
0.222811
0.231685
0.229218
0.0179967
0.0385312
0.0511689
0.0600613
0.066784
0.072119
0.076522
0.0802961
0.0836591
0.0867744
0.0897689
0.092743
0.0957773
0.0989359
0.102268
0.105806
0.109564
0.113534
0.117678
0.121925
0.126168
0.130262
0.134027
0.13726
0.139757
0.14134
0.141897
0.141428
0.140083
0.138192
0.136252
0.134837
0.134492
0.135766
0.139315
0.145865
0.155859
0.169556
0.188227
0.212222
0.235084
0.242303
0.229331
0.214585
0.018711
0.0396368
0.0526062
0.0617029
0.0685458
0.0739524
0.078403
0.0822153
0.0856146
0.0887676
0.0918019
0.0948169
0.0978909
0.101085
0.104442
0.107991
0.11174
0.115672
0.119746
0.123888
0.127992
0.13192
0.135508
0.138579
0.140964
0.142528
0.143207
0.143039
0.142198
0.141017
0.13997
0.139603
0.140493
0.143429
0.149494
0.159486
0.173532
0.192106
0.213788
0.232295
0.23908
0.230468
0.212169
0.195517
0.0193291
0.0405031
0.0537265
0.0629776
0.069908
0.0753613
0.0798363
0.0836622
0.0870708
0.0902316
0.0932726
0.096292
0.0993656
0.102551
0.105887
0.109398
0.113087
0.116934
0.120896
0.1249
0.128847
0.132612
0.136055
0.13903
0.141406
0.143095
0.144073
0.14441
0.144289
0.144023
0.144039
0.144807
0.146916
0.151423
0.159584
0.172149
0.188944
0.206996
0.220516
0.225227
0.220532
0.208871
0.194832
0.181645
0.019876
0.0412008
0.0546147
0.0639742
0.0709615
0.0764397
0.0809208
0.0847426
0.0881411
0.0912881
0.0943116
0.0973085
0.100352
0.103497
0.10678
0.11022
0.113817
0.117552
0.121381
0.125239
0.129038
0.132671
0.136025
0.138988
0.141473
0.143432
0.144883
0.145916
0.146712
0.147555
0.148788
0.150744
0.153957
0.159638
0.169437
0.183468
0.198036
0.208402
0.211788
0.20814
0.199754
0.190241
0.183241
0.177913
0.0203695
0.0417794
0.0553336
0.0647617
0.0717781
0.077262
0.0817344
0.0855383
0.0889127
0.0920305
0.0950195
0.0979752
0.100969
0.104053
0.10726
0.110609
0.114099
0.117711
0.121406
0.125129
0.128807
0.132356
0.135693
0.138743
0.14146
0.14384
0.145933
0.147848
0.149758
0.151909
0.154522
0.157738
0.161967
0.168754
0.17959
0.191562
0.200134
0.202761
0.199193
0.191188
0.182118
0.175985
0.176141
0.181849
0.0208271
0.0422761
0.0559284
0.0653891
0.0724086
0.0778797
0.0823294
0.0861036
0.0894429
0.0925203
0.0954628
0.0983646
0.101295
0.104305
0.107426
0.110675
0.114054
0.117545
0.121121
0.124735
0.128335
0.131863
0.135266
0.138511
0.141591
0.144543
0.147448
0.15043
0.153655
0.157317
0.161485
0.166099
0.17131
0.179093
0.188744
0.195861
0.197939
0.194428
0.186295
0.176079
0.167462
0.164344
0.169736
0.184293
0.0212539
0.0427104
0.0564256
0.0658879
0.0728872
0.0783285
0.082743
0.0864777
0.0897734
0.0928025
0.0956912
0.0985322
0.101394
0.104324
0.107356
0.110507
0.113781
0.117168
0.120648
0.124193
0.12777
0.131348
0.134909
0.138458
0.142029
0.145698
0.149575
0.153793
0.158517
0.163865
0.169745
0.175768
0.181871
0.189687
0.195774
0.197122
0.193401
0.185214
0.174151
0.162937
0.155024
0.153787
0.161552
0.179112
0.0216559
0.0430986
0.0568476
0.0662851
0.0732439
0.0786405
0.0830085
0.0866953
0.0899408
0.0929166
0.0957473
0.0985246
0.101315
0.104168
0.107115
0.110177
0.113362
0.116668
0.120087
0.123609
0.127223
0.130927
0.134739
0.1387
0.142886
0.147408
0.152404
0.158013
0.164393
0.171574
0.179328
0.186626
0.193523
0.199549
0.200552
0.196253
0.187718
0.17614
0.163313
0.151783
0.144467
0.143991
0.151916
0.168315
0.0220376
0.0434526
0.0572112
0.0666023
0.0735035
0.0788422
0.0831539
0.0867854
0.0899757
0.0928949
0.0956663
0.0983803
0.101103
0.103884
0.106756
0.109743
0.11286
0.116114
0.119512
0.123062
0.126776
0.130684
0.134836
0.139313
0.144228
0.149729
0.155974
0.163115
0.171284
0.180406
0.190045
0.19845
0.205609
0.207952
0.203425
0.19411
0.181793
0.167884
0.154121
0.142669
0.13579
0.135351
0.142273
0.156057
0.0224022
0.0437811
0.0575293
0.0668564
0.0736861
0.0789557
0.0832026
0.0867729
0.0899041
0.092765
0.0954775
0.0981311
0.100792
0.103509
0.106319
0.10925
0.112324
0.11556
0.118979
0.122607
0.126485
0.130671
0.135249
0.140337
0.146088
0.15268
0.160289
0.169086
0.17917
0.190362
0.201832
0.211403
0.217351
0.214707
0.204916
0.191417
0.176249
0.160844
0.146719
0.135568
0.129019
0.128282
0.133806
0.144937
0.0227522
0.0440906
0.0578119
0.0670612
0.0738081
0.0789997
0.0831747
0.0866788
0.0897483
0.0925503
0.0952057
0.0978032
0.100409
0.103074
0.105838
0.108734
0.111792
0.115044
0.118525
0.122285
0.126387
0.130919
0.136002
0.14179
0.148471
0.156255
0.165336
0.1759
0.188012
0.201444
0.214804
0.225339
0.228152
0.22005
0.205569
0.188684
0.171447
0.155167
0.141056
0.13033
0.124057
0.122933
0.127089
0.135916
0.0230892
0.0443856
0.0580666
0.0672275
0.073883
0.0789895
0.0830873
0.0865215
0.0895273
0.0922708
0.0948718
0.0974188
0.0999786
0.102604
0.105338
0.10822
0.11129
0.114592
0.118178
0.122117
0.126499
0.131443
0.137102
0.143668
0.151365
0.160432
0.171085
0.183525
0.197764
0.213512
0.228575
0.239106
0.237446
0.224156
0.205719
0.186188
0.167513
0.150806
0.13694
0.126689
0.120663
0.119178
0.12216
0.129065
0.0234144
0.0446696
0.0582992
0.0673639
0.073922
0.0789383
0.0829549
0.0863165
0.0892577
0.0919438
0.0944939
0.0969965
0.0995194
0.102117
0.104839
0.10773
0.110839
0.114223
0.117952
0.122116
0.12683
0.132244
0.138545
0.145959
0.154749
0.165179
0.177502
0.191925
0.208407
0.226478
0.243092
0.251872
0.245018
0.227182
0.205553
0.184034
0.16442
0.147594
0.134095
0.124319
0.118515
0.116726
0.118745
0.124068
0.0237287
0.0449449
0.0585142
0.0674773
0.073934
0.0788569
0.0827896
0.0860772
0.0889539
0.0915842
0.0940873
0.0965519
0.0990472
0.101631
0.104357
0.107277
0.11045
0.113948
0.117857
0.122287
0.127381
0.133317
0.140316
0.148643
0.158594
0.170465
0.184547
0.201054
0.219937
0.240538
0.258303
0.263342
0.251107
0.229363
0.205195
0.182226
0.162051
0.145305
0.132226
0.122891
0.117276
0.115232
0.11646
0.120478
0.0240327
0.0452133
0.0587149
0.067573
0.0739262
0.0787541
0.0826018
0.0858151
0.088628
0.091205
0.0936652
0.0960984
0.0985755
0.101158
0.103903
0.106873
0.110135
0.113775
0.117896
0.122631
0.128147
0.134652
0.142403
0.151699
0.162874
0.176256
0.192176
0.21085
0.232264
0.255336
0.273081
0.273138
0.255866
0.230834
0.204685
0.180704
0.160248
0.143708
0.131053
0.12211
0.116648
0.11438
0.114948
0.117875
0.122528
0.0243268
0.0454762
0.0589041
0.0676554
0.0739047
0.0786373
0.0824002
0.0855399
0.0882905
0.090817
0.0932391
0.0956474
0.0981154
0.100708
0.103489
0.106526
0.1099
0.113708
0.118072
0.123146
0.129121
0.136238
0.144787
0.155106
0.167562
0.182521
0.200348
0.221248
0.245208
0.270136
0.28618
0.280832
0.25925
0.2316
0.203991
0.179367
0.158846
0.142587
0.130341
0.121736
0.116389
0.113919
0.113921
0.115931
0.119364
0.0246114
0.0457346
0.0590837
0.067728
0.0738741
0.0785125
0.082192
0.0852597
0.0879506
0.09043
0.0928186
0.0952088
0.0976766
0.100291
0.103121
0.106244
0.10975
0.113751
0.118385
0.123828
0.130298
0.138065
0.147455
0.158842
0.172631
0.189228
0.209024
0.23221
0.258691
0.284761
0.29721
0.286431
0.261323
0.231694
0.203085
0.178122
0.157696
0.141767
0.129903
0.121586
0.116323
0.113666
0.113183
0.114418
0.116839
0.0248866
0.0459892
0.0592555
0.0677934
0.0738384
0.0783849
0.0819833
0.0849817
0.0876159
0.0900522
0.0924126
0.0947914
0.0972676
0.0999146
0.102808
0.106033
0.10969
0.113906
0.118835
0.124676
0.131672
0.140125
0.150395
0.162894
0.17806
0.196346
0.218163
0.243715
0.272838
0.299141
0.306226
0.290343
0.262339
0.231216
0.20196
0.176889
0.156677
0.141106
0.1296
0.121531
0.116329
0.113502
0.112604
0.113191
0.114779
0.0251527
0.0462407
0.0594209
0.0678541
0.0738009
0.0782587
0.0817793
0.0847118
0.0872932
0.089691
0.0920287
0.0944029
0.0968961
0.0995864
0.102556
0.105898
0.109724
0.114175
0.119424
0.125689
0.133241
0.142414
0.1536
0.167247
0.183831
0.203844
0.227715
0.255695
0.287431
0.312612
0.313542
0.292997
0.262526
0.230248
0.200609
0.175608
0.155696
0.140501
0.129334
0.121483
0.116329
0.113354
0.112104
0.112153
0.113064
0.0254099
0.0464898
0.0595811
0.067912
0.0737643
0.0781376
0.0815846
0.0844556
0.0869888
0.089353
0.0916738
0.0940505
0.0965694
0.0993133
0.102371
0.105845
0.109858
0.114564
0.120153
0.126868
0.135004
0.144926
0.157063
0.171895
0.18993
0.211694
0.237624
0.26802
0.301643
0.323998
0.318987
0.294414
0.26191
0.228798
0.19901
0.174224
0.154685
0.139882
0.129039
0.121389
0.11628
0.11318
0.111639
0.111249
0.111614
0.0256584
0.0467372
0.0597373
0.067969
0.0737313
0.078025
0.0814034
0.084218
0.0867082
0.0890444
0.0913547
0.0937412
0.0962943
0.0991023
0.102261
0.10588
0.110096
0.115075
0.121027
0.128214
0.136961
0.147663
0.160781
0.176829
0.196347
0.21988
0.24785
0.280526
0.314827
0.332789
0.322267
0.294442
0.260445
0.226855
0.197145
0.172704
0.153598
0.139203
0.128677
0.12122
0.116161
0.112963
0.111185
0.11044
0.11037
0.0258985
0.0469837
0.0598907
0.0680269
0.0737046
0.0779244
0.0812401
0.084004
0.086457
0.0887715
0.0910778
0.0934818
0.096078
0.0989603
0.102231
0.106011
0.110445
0.115716
0.12205
0.129733
0.139116
0.150625
0.164753
0.182046
0.203075
0.228398
0.258413
0.293301
0.327116
0.339072
0.323521
0.293202
0.258219
0.224467
0.195024
0.171035
0.15241
0.138437
0.128229
0.120963
0.115964
0.112697
0.110732
0.109705
0.10929
0.0261309
0.0472307
0.060043
0.068088
0.073687
0.0778394
0.081099
0.0838188
0.0862411
0.0885405
0.0908501
0.0932795
0.0959279
0.0988949
0.10229
0.106244
0.110912
0.116492
0.123229
0.13143
0.141473
0.153815
0.168979
0.187543
0.210106
0.237241
0.269346
0.306501
0.338531
0.343466
0.323458
0.291127
0.255457
0.221733
0.192682
0.169219
0.151113
0.137576
0.127689
0.120618
0.115691
0.112383
0.110276
0.109028
0.108342
0.0263564
0.0474798
0.0601961
0.0681549
0.073682
0.0777744
0.0809852
0.0836681
0.0860668
0.0883583
0.0906789
0.0931421
0.0958519
0.0989143
0.102446
0.106587
0.111505
0.117411
0.124569
0.13331
0.144038
0.157238
0.173463
0.193315
0.217426
0.246385
0.280635
0.320043
0.349033
0.346881
0.322778
0.288595
0.252337
0.218733
0.19015
0.167265
0.149707
0.136619
0.127058
0.120191
0.115351
0.112027
0.109817
0.108399
0.107502
0.0265767
0.0477338
0.0603526
0.0682308
0.0736937
0.0777344
0.0809046
0.0835586
0.0859415
0.0882329
0.0905725
0.0930781
0.095859
0.0990274
0.102708
0.107049
0.112231
0.11848
0.12608
0.135381
0.146817
0.160898
0.178206
0.199364
0.225022
0.255783
0.292169
0.332907
0.357292
0.349189
0.321462
0.285593
0.248861
0.215477
0.187438
0.165182
0.148199
0.135575
0.126348
0.119692
0.114954
0.111637
0.109357
0.107811
0.106749
0.0267946
0.0479968
0.0605164
0.0683203
0.0737276
0.0777259
0.0808647
0.0834983
0.0858737
0.0881733
0.0905404
0.0930975
0.0959594
0.0992445
0.103086
0.10764
0.113101
0.119709
0.127767
0.137649
0.149814
0.1648
0.183211
0.205689
0.232887
0.265382
0.303697
0.344064
0.362753
0.349647
0.318986
0.281861
0.244932
0.21194
0.184549
0.162979
0.146601
0.134454
0.125571
0.119135
0.114512
0.111221
0.108898
0.107257
0.10607
0.0270147
0.0482759
0.0606932
0.0684298
0.0737912
0.0777571
0.0808744
0.0834971
0.085874
0.0881905
0.0905941
0.093212
0.0961647
0.0995774
0.103591
0.108371
0.114125
0.121107
0.129639
0.140119
0.153031
0.168941
0.188477
0.212295
0.241038
0.275226
0.315243
0.353869
0.365661
0.347951
0.315121
0.277303
0.240529
0.208133
0.181502
0.160674
0.144931
0.133274
0.124742
0.118534
0.114037
0.110789
0.108444
0.106736
0.105452
0.0272452
0.0485823
0.0608924
0.0685687
0.0738945
0.0778391
0.0809453
0.0835671
0.0859549
0.0882976
0.090747
0.0934354
0.0964889
0.10004
0.104236
0.109254
0.115312
0.122681
0.131702
0.142794
0.156469
0.173318
0.193995
0.219177
0.249501
0.285431
0.327144
0.362626
0.366634
0.34477
0.310303
0.272167
0.235784
0.204126
0.178335
0.158295
0.143207
0.132053
0.123878
0.117904
0.113541
0.110349
0.107999
0.106243
0.104886
0.0274995
0.0489343
0.061128
0.0687503
0.0740511
0.0779857
0.0810921
0.0837234
0.0861321
0.0885107
0.0910155
0.0937839
0.0969482
0.100647
0.105037
0.110303
0.116677
0.124443
0.133962
0.145676
0.160122
0.177917
0.199744
0.22631
0.258271
0.296091
0.339693
0.370972
0.367089
0.341276
0.305241
0.266819
0.230871
0.2
0.175092
0.155869
0.141455
0.13081
0.122997
0.117261
0.113037
0.109909
0.107567
0.105779
0.104366
0.0278
0.0493572
0.0614201
0.0689929
0.0742789
0.0782149
0.0813326
0.0839841
0.0864241
0.0888486
0.0914187
0.0942771
0.0975619
0.101418
0.10601
0.111534
0.118231
0.126402
0.136425
0.148766
0.163981
0.182718
0.205686
0.233628
0.267258
0.307157
0.352524
0.378364
0.367656
0.338003
0.300221
0.261389
0.225845
0.195785
0.171798
0.153421
0.139695
0.129568
0.122117
0.116619
0.112537
0.109477
0.107151
0.105342
0.103886
0.028185
0.0498803
0.0617932
0.0693193
0.0746001
0.0785486
0.0816886
0.0843711
0.0868528
0.0893336
0.0919793
0.0949378
0.0983526
0.102375
0.107178
0.112966
0.119991
0.12857
0.139098
0.152059
0.168035
0.187694
0.21177
0.241037
0.276263
0.318224
0.363167
0.38224
0.36694
0.334097
0.294743
0.255613
0.220593
0.191453
0.168463
0.150976
0.137956
0.128349
0.121258
0.115995
0.112053
0.109062
0.106756
0.104933
0.103443
0.0287246
0.0505236
0.0622705
0.0697557
0.0750412
0.0790127
0.0821854
0.0849093
0.0874433
0.0899912
0.0927233
0.0957923
0.099347
0.103545
0.108565
0.114622
0.121977
0.130962
0.141985
0.155552
0.172265
0.192812
0.217946
0.248447
0.285057
0.328461
0.370962
0.383098
0.363519
0.328246
0.287992
0.249062
0.214947
0.186971
0.165111
0.148572
0.136277
0.127186
0.120443
0.115406
0.111596
0.108673
0.106386
0.104553
0.103034
0.0293804
0.0513916
0.0629165
0.0703299
0.0756296
0.0796358
0.0828512
0.0856263
0.0882232
0.0908495
0.0936796
0.0968705
0.100576
0.104959
0.110203
0.116532
0.124217
0.133598
0.1451
0.159245
0.176654
0.198038
0.22417
0.255834
0.293713
0.33829
0.376725
0.380399
0.356617
0.319791
0.279566
0.241643
0.208906
0.182355
0.161757
0.146222
0.134668
0.126094
0.119696
0.114871
0.111182
0.108316
0.106046
0.104203
0.102658
0.0301075
0.0526368
0.0637829
0.0710951
0.0763944
0.0804437
0.0837136
0.0865504
0.089221
0.0919376
0.0948787
0.0982051
0.102074
0.106653
0.112131
0.118736
0.126746
0.136512
0.148467
0.163146
0.181189
0.203331
0.230382
0.263162
0.302342
0.348099
0.380767
0.37514
0.347111
0.309335
0.269908
0.23353
0.202553
0.177656
0.158433
0.143949
0.133145
0.125081
0.119013
0.11439
0.110814
0.108
0.105741
0.103884
0.102313
0.0309353
0.0545036
0.0649209
0.0720813
0.0773785
0.0814651
0.0847951
0.0877042
0.0904601
0.0932805
0.0963483
0.0998276
0.103878
0.10867
0.114395
0.121284
0.12962
0.139755
0.152129
0.167284
0.185871
0.20865
0.236483
0.270298
0.310943
0.358097
0.383297
0.36829
0.336202
0.297813
0.259517
0.225017
0.196055
0.172965
0.155193
0.141782
0.131725
0.124157
0.118403
0.113967
0.110492
0.107721
0.10547
0.103597
0.102001
0.0321876
0.0572699
0.0663445
0.0733445
0.0786482
0.0827643
0.0861363
0.0891122
0.0919591
0.0948955
0.0981085
0.101764
0.106022
0.111053
0.11705
0.124242
0.132912
0.14341
0.156171
0.171734
0.190749
0.213983
0.242338
0.276896
0.318969
0.364661
0.379466
0.358356
0.323665
0.285341
0.24862
0.216306
0.189556
0.168376
0.15209
0.13975
0.130425
0.123331
0.117869
0.113603
0.110215
0.107478
0.105227
0.103337
0.101714
0.0338893
0.0602833
0.0678139
0.0748834
0.0802985
0.0844539
0.0878357
0.0908438
0.0937635
0.0968164
0.100189
0.104048
0.108549
0.11386
0.120169
0.127702
0.136732
0.147601
0.160729
0.176636
0.19595
0.219411
0.247878
0.282453
0.324689
0.362912
0.366973
0.342906
0.308164
0.271436
0.237152
0.207485
0.183162
0.163968
0.149175
0.137885
0.129259
0.122609
0.117416
0.113298
0.109982
0.107268
0.105011
0.1031
0.101449
0.034598
0.058907
0.0687675
0.0765997
0.0823062
0.0865791
0.0899343
0.0929535
0.0959205
0.0990751
0.102619
0.106711
0.1115
0.117145
0.123826
0.131756
0.141196
0.152467
0.165965
0.182177
)
;

boundaryField
{
    leftWall
    {
        type            kqRWallFunction;
        value           nonuniform List<scalar> 
44
(
0.00630039
0.0103598
0.0129883
0.0147822
0.0161095
0.0171489
0.0179967
0.018711
0.0193291
0.019876
0.0203695
0.0208271
0.0212539
0.0216559
0.0220376
0.0224022
0.0227522
0.0230892
0.0234144
0.0237287
0.0240327
0.0243268
0.0246114
0.0248866
0.0251527
0.0254099
0.0256584
0.0258985
0.0261309
0.0263564
0.0265767
0.0267946
0.0270147
0.0272452
0.0274995
0.0278
0.028185
0.0287246
0.0293804
0.0301075
0.0309353
0.0321876
0.0338893
0.034598
)
;
    }
    rightWall
    {
        type            kqRWallFunction;
        value           nonuniform List<scalar> 0();
    }
    lowerWall
    {
        type            kqRWallFunction;
        value           nonuniform List<scalar> 
44
(
0.00630039
0.0112451
0.0157525
0.0190431
0.0215843
0.0236322
0.025335
0.0267919
0.0280758
0.0292433
0.0303399
0.0314036
0.0324672
0.0335604
0.0347103
0.0359427
0.0372816
0.0387484
0.0403599
0.0421258
0.0440442
0.0460972
0.0482464
0.0504289
0.0525564
0.0545183
0.05619
0.0574477
0.0581861
0.0583353
0.0578694
0.0567801
0.0550397
0.0528319
0.05044
0.0479411
0.0455124
0.0433817
0.0417578
0.0407582
0.0403662
0.0404205
0.0402727
0.0386544
)
;
    }
    atmosphere
    {
        type            inletOutlet;
        inletValue      nonuniform List<scalar> 0();
        value           nonuniform List<scalar> 0();
    }
    defaultFaces
    {
        type            empty;
    }
    procBoundary0to1
    {
        type            processor;
        value           nonuniform List<scalar> 
44
(
0.0362381
0.0761754
0.108949
0.158229
0.193084
0.197747
0.178865
0.157935
0.149722
0.161269
0.18398
0.196794
0.19722
0.188126
0.174185
0.160151
0.148281
0.138973
0.131909
0.126588
0.126588
0.128058
0.123481
0.119809
0.116822
0.114369
0.112333
0.110628
0.109186
0.107954
0.10689
0.105964
0.105148
0.104423
0.103774
0.103187
0.102655
0.102169
0.101724
0.101316
0.100942
0.1006
0.100287
0.0999952
)
;
    }
    procBoundary0to2
    {
        type            processor;
        value           nonuniform List<scalar> 
46
(
0.201695
0.225185
0.253348
0.287043
0.327551
0.354416
0.346838
0.321875
0.289511
0.25609
0.225231
0.198698
0.176995
0.159828
0.146501
0.136214
0.128242
0.121999
0.117043
0.113051
0.10979
0.107088
0.104818
0.102882
0.101203
0.0348253
0.0584517
0.0678507
0.0772132
0.0839512
0.088759
0.09222
0.0953108
0.0983541
0.101606
0.105336
0.109705
0.114844
0.120897
0.12803
0.136442
0.146373
0.158116
0.172032
0.201695
0.188569
)
;
    }
}


// ************************************************************************* //
