/*--------------------------------*- C++ -*----------------------------------*\
  =========                 |
  \\      /  F ield         | OpenFOAM: The Open Source CFD Toolbox
   \\    /   O peration     | Website:  https://openfoam.org
    \\  /    A nd           | Version:  9
     \\/     M anipulation  |
\*---------------------------------------------------------------------------*/
FoamFile
{
    format      ascii;
    class       volScalarField;
    location    "0.15";
    object      p_rgh;
}
// * * * * * * * * * * * * * * * * * * * * * * * * * * * * * * * * * * * * * //

dimensions      [1 -1 -2 0 0 0 0];

internalField   nonuniform List<scalar> 
1935
(
1937.93
1941.27
1943.98
1944.57
1941.86
1935.6
1926.01
1913.36
1897.83
1879.52
1858.51
1834.81
1808.41
1779.24
1747.19
1712.09
1673.72
1631.83
1586.07
1536.07
1481.4
1421.58
1356.17
1284.74
1207.01
1122.96
1032.96
937.951
839.605
740.4
643.549
552.621
472.354
405.761
348.884
298.774
254.107
214.123
178.78
148.052
121.942
102.464
86.9362
73.2701
1936.35
1939.09
1939.85
1938.43
1934.33
1927.19
1917.04
1904.02
1888.22
1869.7
1848.49
1824.59
1797.94
1768.47
1736.04
1700.48
1661.56
1619
1572.46
1521.55
1465.85
1404.91
1338.31
1265.69
1186.85
1101.89
1011.32
916.233
818.445
720.514
625.518
536.657
456.379
387.148
333.399
290.448
254.161
220.846
188.37
156.682
124.722
79.7005
33.0755
21.1609
1934.7
1937.84
1937.21
1933.78
1927.95
1919.48
1908.32
1894.52
1878.08
1859.02
1837.31
1812.91
1785.73
1755.67
1722.57
1686.25
1646.46
1602.89
1555.21
1503.04
1445.97
1383.61
1315.58
1241.62
1161.67
1075.96
985.166
890.545
794.032
698.234
606.199
521.056
445.578
382.235
329.827
287.731
251.639
218.13
185.582
153.339
106.412
36.8257
7.14329
7.78973
1932.53
1936.38
1935.28
1930.66
1923.54
1913.89
1901.7
1887.02
1869.82
1850.08
1827.73
1802.69
1774.87
1744.13
1710.3
1673.17
1632.49
1587.93
1539.18
1485.86
1427.6
1364.02
1294.84
1219.86
1139.1
1052.9
962.062
867.921
772.482
678.371
588.618
506.193
433.382
371.523
319.805
277.109
240.487
207.181
165.675
91.2739
24.9501
6.76211
4.2675
4.63754
1929.85
1934.18
1932.98
1927.81
1919.94
1909.49
1896.54
1881.14
1863.29
1842.94
1819.99
1794.38
1765.96
1734.6
1700.12
1662.29
1620.85
1575.49
1525.89
1471.69
1412.53
1348.09
1278.11
1202.45
1121.18
1034.71
943.878
850.058
755.257
662.07
573.416
491.998
419.688
357.37
304.438
260.662
215.007
134.441
45.0334
12.3508
6.19908
3.65323
3.05905
3.35666
1926.72
1931.27
1930.08
1924.72
1916.46
1905.54
1892.1
1876.21
1857.87
1837.04
1813.62
1787.52
1758.61
1726.74
1691.71
1653.31
1611.26
1565.27
1515.01
1460.15
1400.35
1335.32
1264.81
1188.73
1107.19
1020.62
929.861
836.269
741.792
648.896
560.2
477.853
403.378
338.638
279.401
189.97
70.4406
14.7034
6.27852
4.07982
2.82824
2.42702
2.54478
2.78096
1923.22
1927.8
1926.68
1921.32
1912.94
1901.8
1888.1
1871.91
1853.26
1832.09
1808.32
1781.86
1752.57
1720.3
1684.85
1646
1603.49
1557.01
1506.27
1450.94
1390.71
1325.3
1254.5
1178.24
1096.66
1010.17
919.614
826.272
731.977
638.921
549.03
463.567
385.494
296.835
148.826
27.9611
4.92011
3.30779
2.48123
2.06509
1.98383
2.06633
2.2797
2.47878
1919.5
1923.99
1922.95
1917.74
1909.4
1898.23
1884.45
1868.14
1849.33
1827.97
1803.98
1777.28
1747.73
1715.17
1679.42
1640.26
1597.41
1550.61
1499.55
1443.93
1383.46
1317.88
1247.02
1170.81
1089.41
1003.25
913.098
820.167
726.123
632.661
540.36
451.113
332.32
135.024
14.1968
2.43407
1.92675
1.72157
1.66539
1.69987
1.79353
1.9383
2.12132
2.28543
1915.68
1920.01
1919.09
1914.1
1905.92
1894.86
1881.14
1864.85
1846.02
1824.6
1800.53
1773.71
1744.01
1711.3
1675.37
1636.01
1592.98
1545.99
1494.78
1439.04
1378.52
1312.98
1242.26
1166.35
1085.4
999.836
910.381
818.173
724.704
630.721
535.291
411.75
166.206
12.8376
3.04947
1.94326
1.57905
1.51119
1.54698
1.63211
1.74399
1.87163
2.00294
2.11132
1911.92
1916.05
1915.26
1910.54
1902.6
1891.75
1878.2
1862.05
1843.31
1821.95
1797.91
1771.09
1741.37
1708.62
1672.63
1633.21
1590.12
1543.1
1491.88
1436.2
1375.81
1310.51
1240.17
1164.8
1084.57
999.901
911.489
820.452
728.041
633.32
529.76
267.849
26.781
3.81992
2.05473
1.60616
1.49148
1.49047
1.5421
1.62195
1.71361
1.80765
1.8918
1.93599
1908.3
1912.23
1911.57
1907.15
1899.5
1888.94
1875.65
1859.72
1841.18
1819.98
1796.07
1769.37
1739.74
1707.06
1671.14
1631.78
1588.77
1541.86
1490.79
1435.33
1375.26
1310.4
1240.65
1166.06
1086.83
1003.36
916.366
827.028
736.011
639.7
445.134
93.2321
5.97223
2.46662
1.67435
1.49542
1.46578
1.48888
1.53838
1.60163
1.66952
1.73338
1.77793
1.75898
1904.95
1908.66
1908.15
1904.04
1896.72
1886.49
1873.52
1857.9
1839.64
1818.7
1795.03
1768.53
1739.11
1706.61
1670.88
1631.72
1588.92
1542.26
1491.5
1436.43
1376.85
1312.62
1243.69
1170.11
1092.13
1010.14
924.935
837.785
747.828
642.332
277.432
15.7381
3.60922
1.8794
1.52385
1.45407
1.45181
1.47636
1.5164
1.56421
1.61277
1.6532
1.66865
1.60931
1901.99
1905.5
1905.13
1901.33
1894.36
1884.5
1871.91
1856.65
1838.73
1818.13
1794.79
1768.61
1739.49
1707.29
1671.85
1633.01
1590.56
1544.29
1493.98
1439.46
1380.55
1317.14
1249.2
1176.85
1100.31
1020.04
936.943
852.231
761.806
563.633
115.161
6.76123
2.42715
1.60823
1.45335
1.42431
1.42818
1.44936
1.48058
1.51613
1.55013
1.57432
1.57487
1.51579
1899.53
1902.84
1902.62
1899.11
1892.5
1883.04
1870.86
1856.01
1838.51
1818.32
1795.38
1769.61
1740.88
1709.08
1674.06
1635.65
1593.67
1547.92
1498.21
1444.39
1386.3
1323.87
1257.1
1186.13
1111.2
1032.79
952.032
869.298
776.068
413.038
30.501
4.04691
1.84469
1.47008
1.40199
1.38765
1.39385
1.41179
1.43591
1.46203
1.48536
1.49924
1.49389
1.44882
1897.65
1900.78
1900.7
1897.48
1891.23
1882.18
1870.43
1856.05
1839.01
1819.29
1796.83
1771.53
1743.29
1711.98
1677.48
1639.61
1598.22
1553.11
1504.14
1451.15
1394.03
1332.72
1267.27
1197.8
1124.58
1048.18
969.848
887.799
759.279
233.581
9.29777
2.70545
1.56559
1.38712
1.35161
1.34414
1.35164
1.36682
1.38547
1.40452
1.42023
1.42744
1.41897
1.38281
1896.45
1899.41
1899.46
1896.51
1890.62
1881.98
1870.7
1856.79
1840.26
1821.07
1799.14
1774.39
1746.71
1715.99
1682.1
1644.88
1604.18
1559.84
1511.73
1459.7
1403.67
1343.61
1279.58
1211.71
1140.27
1065.97
990.004
906.915
663.748
103.695
5.58705
1.95963
1.39809
1.31732
1.29727
1.29521
1.30365
1.31674
1.33147
1.34553
1.356
1.35884
1.34868
1.3179
1896
1898.78
1898.95
1896.27
1890.73
1882.51
1871.69
1858.3
1842.31
1823.68
1802.34
1778.2
1751.16
1721.1
1687.91
1651.43
1611.53
1568.07
1520.92
1469.97
1415.15
1356.44
1293.92
1227.7
1158.09
1085.94
1011.78
925.896
512.741
33.1247
3.48329
1.54238
1.28697
1.25099
1.24018
1.24237
1.25158
1.26336
1.27557
1.28638
1.2935
1.29386
1.28357
1.2578
1896.34
1898.97
1899.25
1896.81
1891.61
1883.81
1873.47
1860.6
1845.18
1827.16
1806.45
1782.98
1756.64
1727.33
1694.91
1659.27
1620.26
1577.78
1531.7
1481.92
1428.39
1371.11
1310.17
1245.66
1177.93
1107.92
1034.59
938.834
327.636
9.37644
2.39915
1.32634
1.20639
1.18702
1.1816
1.18683
1.19675
1.20796
1.21879
1.22771
1.23295
1.23224
1.22285
1.2017
1897.55
1900.02
1900.4
1898.18
1893.31
1885.93
1876.07
1863.75
1848.92
1831.53
1811.5
1788.75
1763.17
1734.67
1703.11
1668.38
1630.36
1588.94
1544.01
1495.49
1443.34
1387.57
1328.25
1265.51
1199.76
1131.95
1058.37
868.954
180.545
5.93851
1.76053
1.18638
1.13318
1.12195
1.12149
1.12923
1.14004
1.1513
1.1616
1.16966
1.17413
1.17333
1.1653
1.14812
1899.66
1901.97
1902.44
1900.44
1895.9
1888.92
1879.56
1867.78
1853.56
1836.84
1817.52
1795.53
1770.77
1743.14
1712.51
1678.77
1641.82
1601.54
1557.85
1510.67
1459.96
1405.75
1348.12
1287.19
1223.51
1157.8
1083.22
755.677
79.4037
3.68793
1.34139
1.07785
1.05999
1.05581
1.05995
1.0701
1.08203
1.09379
1.10419
1.11214
1.11665
1.11646
1.1101
1.09633
1902.72
1904.88
1905.43
1903.63
1899.4
1892.83
1883.96
1872.74
1859.15
1843.11
1824.54
1803.36
1779.46
1752.75
1723.11
1690.43
1654.61
1615.56
1573.18
1527.4
1478.21
1425.64
1369.74
1310.68
1249.12
1185.12
1108.92
588.782
24.973
2.38462
1.0941
0.991944
0.989001
0.989616
0.997726
1.01001
1.02314
1.03572
1.04668
1.05508
1.06018
1.06107
1.05655
1.04577
1.02834
1906.77
1908.78
1909.4
1907.79
1903.86
1897.7
1889.31
1878.67
1865.72
1850.39
1832.59
1812.25
1789.26
1763.53
1734.93
1703.37
1668.75
1630.98
1589.97
1545.68
1498.08
1447.21
1393.12
1336.02
1276.58
1213.67
1134.65
392.362
7.55952
1.68713
0.957398
0.919723
0.920374
0.924153
0.935304
0.949361
0.963759
0.977351
0.989187
0.998442
1.00451
1.00674
1.00419
0.996077
0.982449
1911.85
1913.7
1914.38
1912.95
1909.31
1903.55
1895.66
1885.6
1873.3
1858.7
1841.7
1822.23
1800.19
1775.48
1747.98
1717.59
1684.22
1647.79
1608.23
1565.49
1519.57
1470.49
1418.3
1363.29
1306.09
1243.68
1073.92
236.839
4.93258
1.26517
0.860272
0.849488
0.851785
0.858997
0.872673
0.888405
0.90415
0.918921
0.931858
0.942224
0.949487
0.953156
0.952555
0.947021
0.936606
1917.97
1919.67
1920.4
1919.14
1915.79
1910.43
1903.04
1893.56
1881.93
1868.08
1851.91
1833.35
1812.29
1788.64
1762.28
1733.11
1701.06
1666.04
1627.98
1586.86
1542.68
1495.46
1445.28
1392.5
1337.61
1275.54
974.585
120.102
3.08144
0.957135
0.771874
0.776779
0.782417
0.79362
0.80983
0.827312
0.844519
0.860601
0.874784
0.886414
0.895007
0.900167
0.901427
0.898326
0.890884
1925.16
1926.71
1927.48
1926.38
1923.32
1918.36
1911.47
1902.59
1891.65
1878.57
1863.26
1845.63
1825.59
1803.03
1777.86
1749.97
1719.29
1685.73
1649.25
1609.82
1567.45
1522.15
1474.04
1423.57
1370.92
1309.02
819.48
45.3405
1.85763
0.740945
0.690048
0.703537
0.713001
0.728281
0.74697
0.766259
0.785024
0.802507
0.818024
0.831002
0.841007
0.847699
0.850763
0.849906
0.845158
1933.43
1934.83
1935.64
1934.69
1931.92
1927.37
1920.99
1912.72
1902.48
1890.19
1875.76
1859.09
1840.09
1818.67
1794.72
1768.17
1738.92
1706.89
1672.05
1634.37
1593.87
1550.55
1504.56
1456.42
1405.69
1343.78
617.531
11.6467
1.19937
0.611216
0.616691
0.63216
0.645001
0.663552
0.684397
0.70546
0.725819
0.744757
0.761659
0.776026
0.787484
0.795739
0.800577
0.801827
0.799515
1942.79
1944.04
1944.88
1944.09
1941.61
1937.47
1931.61
1923.96
1914.44
1902.96
1889.42
1873.74
1855.82
1835.56
1812.88
1787.71
1759.94
1729.51
1696.37
1660.51
1621.93
1580.65
1536.86
1491.04
1441.77
1365.61
408.443
4.80966
0.861694
0.53205
0.549148
0.563224
0.578641
0.599575
0.62231
0.645101
0.667066
0.687493
0.705811
0.721592
0.734515
0.744342
0.750921
0.754162
0.754096
1953.25
1954.34
1955.21
1954.57
1952.38
1948.67
1943.34
1936.33
1927.54
1916.88
1904.27
1889.6
1872.78
1853.73
1832.36
1808.6
1782.35
1753.56
1722.19
1688.2
1651.62
1612.46
1570.98
1527.6
1479.57
1289.53
250.634
3.06909
0.63903
0.462547
0.481402
0.494859
0.513001
0.536122
0.560747
0.585299
0.608898
0.630849
0.650619
0.667837
0.682234
0.693622
0.701896
0.707019
0.709047
1964.79
1965.72
1966.61
1966.13
1964.25
1960.97
1956.19
1949.83
1941.79
1931.98
1920.31
1906.68
1891
1873.19
1853.17
1830.87
1806.18
1779.07
1749.5
1717.45
1682.93
1645.99
1606.95
1566.09
1519.39
1177.59
129.104
1.79627
0.453447
0.387689
0.409349
0.425657
0.447386
0.473039
0.49972
0.52612
0.551411
0.574933
0.5962
0.614882
0.630763
0.643701
0.653622
0.660534
0.664529
1977.41
1978.16
1979.08
1978.76
1977.21
1974.37
1970.16
1964.47
1957.21
1948.26
1937.56
1925
1910.49
1893.96
1875.33
1854.52
1831.44
1806.04
1778.32
1748.26
1715.87
1681.22
1644.68
1606.36
1560.97
1005.1
48.5277
0.870864
0.294088
0.309352
0.335067
0.356223
0.382108
0.410499
0.439353
0.467672
0.494703
0.519839
0.542643
0.562823
0.580204
0.594683
0.606218
0.614845
0.620702
1991.07
1991.64
1992.59
1992.45
1991.23
1988.87
1985.25
1980.26
1973.79
1965.73
1956.02
1944.55
1931.24
1916.02
1898.81
1879.52
1858.09
1834.47
1808.65
1780.63
1750.41
1718.1
1684.08
1648.09
1603.89
780.271
10.8131
0.415087
0.186674
0.236214
0.26404
0.288966
0.318119
0.348941
0.379898
0.410128
0.438913
0.465691
0.490059
0.511761
0.530654
0.54667
0.559794
0.570087
0.577722
2005.75
2006.1
2007.11
2007.16
2006.32
2004.46
2001.46
1997.19
1991.53
1984.4
1975.69
1965.34
1953.24
1939.35
1923.57
1905.85
1886.1
1864.31
1840.46
1814.54
1786.55
1756.62
1725.09
1691.09
1648.17
537.46
3.12924
0.245025
0.128683
0.173026
0.197984
0.224581
0.255785
0.288619
0.321551
0.353654
0.384197
0.412631
0.438579
0.461815
0.482224
0.499769
0.51446
0.526381
0.535728
2021.39
2021.5
2022.58
2022.86
2022.43
2021.12
2018.78
2015.26
2010.46
2004.26
1996.59
1987.35
1976.49
1963.92
1949.61
1933.48
1915.47
1895.56
1873.73
1849.97
1824.27
1796.79
1767.81
1735.62
1596.52
343.105
1.91236
0.151172
0.0806213
0.111262
0.133637
0.161668
0.194676
0.229461
0.264358
0.298345
0.330663
0.360775
0.388321
0.4131
0.435025
0.454087
0.470322
0.483836
0.494832
2037.94
2037.7
2038.92
2039.49
2039.54
2038.84
2037.2
2034.48
2030.55
2025.31
2018.69
2010.59
2000.96
1989.75
1976.92
1962.41
1946.17
1928.19
1908.44
1886.89
1863.56
1838.63
1812.32
1782.08
1482.84
191.617
1.01202
0.0473387
0.0179932
0.0436328
0.0679834
0.0989407
0.134373
0.171374
0.208359
0.244294
0.278429
0.310244
0.339403
0.365729
0.389165
0.409724
0.427473
0.442535
0.455114
2055.27
2054.57
2056.03
2056.99
2057.61
2057.59
2056.72
2054.84
2051.81
2047.55
2041.98
2035.02
2026.64
2016.8
2005.48
1992.62
1978.19
1962.17
1944.53
1925.26
1904.37
1882.11
1858.59
1830.48
1308.31
82.597
0.255246
-0.0793624
-0.0581537
-0.0291996
0.000929769
0.0364466
0.0750082
0.114533
0.153745
0.191696
0.22768
0.261207
0.291975
0.319836
0.344759
0.366782
0.385995
0.402541
0.41662
2073.09
2071.96
2073.77
2075.29
2076.62
2077.39
2077.35
2076.34
2074.24
2070.96
2066.43
2060.62
2053.49
2045.03
2035.22
2024.04
2011.44
1997.42
1981.94
1965.01
1946.64
1927.11
1906.41
1880.51
1065.81
22.5224
-0.235481
-0.205791
-0.137298
-0.100653
-0.06445
-0.0245049
0.0172122
0.0593346
0.100829
0.140821
0.178654
0.213876
0.246223
0.27558
0.30194
0.325367
0.345969
0.363906
0.37938
2090.55
2089.79
2092.07
2094.42
2096.59
2098.24
2099.1
2098.99
2097.82
2095.52
2092.04
2087.36
2081.47
2074.38
2066.09
2056.58
2045.84
2033.85
2020.59
2006.05
1990.27
1973.52
1955.51
1931.83
782.265
1.95924
-0.328853
-0.271804
-0.201726
-0.163735
-0.125255
-0.0827454
-0.0384521
0.00613496
0.0498936
0.0919249
0.131586
0.168464
0.202335
0.233122
0.260845
0.285589
0.307483
0.326696
0.343438
2106.01
2107.34
2110.5
2114.25
2117.58
2120.26
2122.07
2122.89
2122.64
2121.28
2118.82
2115.23
2110.56
2104.82
2098.03
2090.19
2081.31
2071.38
2060.39
2048.32
2035.22
2021.32
2005.93
1984.37
511.868
0.8183
-0.302756
-0.295048
-0.253886
-0.221751
-0.183129
-0.138785
-0.0920378
-0.0449411
0.00113279
0.0452202
0.0866919
0.125177
0.160501
0.192627
0.221612
0.247566
0.270634
0.290997
0.308877
2115.86
2121.93
2127.61
2134.07
2139.29
2143.38
2146.32
2148.11
2148.76
2148.31
2146.81
2144.27
2140.76
2136.33
2131
2124.82
2117.8
2109.95
2101.27
2091.75
2081.47
2070.68
2058.1
1867.9
304.818
0.305008
-0.330041
-0.341149
-0.314617
-0.282743
-0.241321
-0.193759
-0.143823
-0.093845
-0.0452926
0.000895105
0.0441539
0.0841856
0.120879
0.154247
0.184381
0.21142
0.235532
0.256912
0.275801
2063.44
2125.26
2139.97
2151.85
2160.38
2166.66
2171.17
2174.17
2175.86
2176.37
2175.81
2174.3
2171.9
2168.7
2164.78
2160.19
2154.98
2149.19
2142.82
2135.9
2128.62
2121.37
2112.2
1685.34
143.165
-0.205716
-0.423718
-0.416152
-0.387555
-0.34839
-0.300334
-0.24762
-0.193566
-0.14028
-0.0890886
-0.0407906
0.00418424
0.0456545
0.0835986
0.11809
0.149256
0.17726
0.202288
0.224558
0.244329
953.469
1551.32
2009.57
2159.66
2177.08
2187.64
2194.53
2199.27
2202.32
2203.99
2204.52
2204.06
2202.77
2200.76
2198.17
2195.09
2191.62
2187.84
2183.81
2179.62
2175.49
2172.54
2167.48
1359.81
41.5531
-0.709028
-0.564677
-0.506873
-0.464932
-0.414597
-0.357932
-0.299028
-0.240376
-0.183605
-0.129771
-0.0794641
-0.0329306
0.00980248
0.0488235
0.0842731
0.116319
0.145153
0.17098
0.19403
0.21457
1.58066
219.204
730.188
1442.36
1942.04
2159.88
2210.13
2219.33
2225.08
2228.53
2230.41
2231.14
2230.96
2230.11
2228.77
2227.07
2225.14
2223.12
2221.17
2219.33
2217.78
2220.49
2222.04
942.679
3.28954
-0.800486
-0.65877
-0.587152
-0.534063
-0.474626
-0.410641
-0.346028
-0.283033
-0.223007
-0.166773
-0.114715
-0.0668833
-0.0231317
0.0167433
0.0529444
0.0856794
0.115172
0.141657
0.165376
0.186578
-0.926797
-0.688789
-0.92063
137.316
512.606
1034.33
1477.41
1779
1961.1
2065.09
2122.03
2149.72
2158.15
2153.23
2137
2109.98
2071.69
2024.07
1971.48
1916.96
1859.59
1895.59
2134.98
516.267
-0.288639
-0.750964
-0.711354
-0.655223
-0.594892
-0.527439
-0.457009
-0.387345
-0.320565
-0.257799
-0.199622
-0.146208
-0.0974141
-0.0529345
-0.0124648
0.0242491
0.0574511
0.087403
0.114373
0.138615
0.160355
-0.924839
-0.899919
-0.928622
-0.980904
-1.21526
-0.495606
108.054
268.759
437.566
583.505
695.611
763.435
784.938
770.645
727.042
662.002
586.85
507.915
437.047
374.566
)
;

boundaryField
{
    leftWall
    {
        type            fixedFluxPressure;
        gradient        uniform 0;
        value           nonuniform List<scalar> 
44
(
1937.93
1936.35
1934.7
1932.53
1929.85
1926.72
1923.22
1919.5
1915.68
1911.92
1908.3
1904.95
1901.99
1899.53
1897.65
1896.45
1896
1896.34
1897.55
1899.66
1902.72
1906.77
1911.85
1917.97
1925.16
1933.43
1942.79
1953.25
1964.79
1977.41
1991.07
2005.75
2021.39
2037.94
2055.27
2073.09
2090.55
2106.01
2115.86
2063.44
953.469
1.58066
-0.926797
-0.924839
)
;
    }
    rightWall
    {
        type            fixedFluxPressure;
        gradient        nonuniform List<scalar> 0();
        value           nonuniform List<scalar> 0();
    }
    lowerWall
    {
        type            fixedFluxPressure;
        gradient        uniform 0;
        value           nonuniform List<scalar> 
44
(
1937.93
1941.27
1943.98
1944.57
1941.86
1935.6
1926.01
1913.36
1897.83
1879.52
1858.51
1834.81
1808.41
1779.24
1747.19
1712.09
1673.72
1631.83
1586.07
1536.07
1481.4
1421.58
1356.17
1284.74
1207.01
1122.96
1032.96
937.951
839.605
740.4
643.549
552.621
472.354
405.761
348.884
298.774
254.107
214.123
178.78
148.052
121.942
102.464
86.9362
73.2701
)
;
    }
    atmosphere
    {
        type            totalPressure;
        rho             rho;
        psi             none;
        gamma           1;
        p0              nonuniform List<scalar> 0();
        value           nonuniform List<scalar> 0();
    }
    defaultFaces
    {
        type            empty;
    }
    procBoundary0to1
    {
        type            processor;
        value           nonuniform List<scalar> 
44
(
55.0228
28.7528
12.9832
5.85906
3.53743
2.71251
2.39902
2.27035
2.11935
1.91198
1.64818
1.44759
1.37705
1.34314
1.30086
1.25508
1.21031
1.16529
1.11972
1.07403
1.07403
1.00386
0.963192
0.921647
0.879423
0.836737
0.793828
0.7509
0.708158
0.665798
0.624003
0.582939
0.542753
0.503565
0.465451
0.428454
0.39261
0.357953
0.324542
0.29248
0.261895
0.2329
0.205549
0.179853
)
;
    }
    procBoundary0to2
    {
        type            processor;
        value           nonuniform List<scalar> 
46
(
318.261
348.418
677.486
152.937
-1.09263
-0.848452
-0.786464
-0.727547
-0.653055
-0.574279
-0.496602
-0.422188
-0.352238
-0.287393
-0.227881
-0.173614
-0.12426
-0.0794028
-0.0386633
-0.00172807
0.0316889
0.0618815
0.0891445
0.113741
0.135892
-0.916625
-0.894538
-0.922953
-0.958914
-1.00264
-1.01582
-1.07998
-1.26396
-1.34679
-1.36596
-1.36761
-1.36522
-1.36332
-1.36372
-1.36552
-1.36761
-1.36794
-1.36355
-1.35759
318.261
-1.35011
)
;
    }
}


// ************************************************************************* //
