/*--------------------------------*- C++ -*----------------------------------*\
  =========                 |
  \\      /  F ield         | OpenFOAM: The Open Source CFD Toolbox
   \\    /   O peration     | Website:  https://openfoam.org
    \\  /    A nd           | Version:  9
     \\/     M anipulation  |
\*---------------------------------------------------------------------------*/
FoamFile
{
    format      ascii;
    class       surfaceScalarField;
    location    "0.15";
    object      phi;
}
// * * * * * * * * * * * * * * * * * * * * * * * * * * * * * * * * * * * * * //

dimensions      [0 3 -1 0 0 0 0];

internalField   nonuniform List<scalar> 
3781
(
-2.0111e-07
2.0111e-07
1.69758e-06
-1.89868e-06
4.6561e-06
-2.95852e-06
7.91655e-06
-3.26045e-06
1.11973e-05
-3.28077e-06
1.44134e-05
-3.21612e-06
1.75444e-05
-3.13097e-06
2.05923e-05
-3.04788e-06
2.35682e-05
-2.97588e-06
2.64868e-05
-2.91864e-06
2.93644e-05
-2.87761e-06
3.22179e-05
-2.85351e-06
3.50648e-05
-2.8469e-06
3.79233e-05
-2.85844e-06
4.08122e-05
-2.88896e-06
4.37517e-05
-2.93949e-06
4.67628e-05
-3.0111e-06
4.98677e-05
-3.10483e-06
5.3089e-05
-3.22133e-06
5.64494e-05
-3.36039e-06
5.99697e-05
-3.52028e-06
6.36665e-05
-3.69689e-06
6.75491e-05
-3.8826e-06
7.16144e-05
-4.06525e-06
7.58414e-05
-4.22701e-06
8.01851e-05
-4.34374e-06
8.45704e-05
-4.38525e-06
8.88875e-05
-4.31712e-06
9.299e-05
-4.10253e-06
9.66948e-05
-3.7048e-06
9.98038e-05
-3.10893e-06
0.0001021
-2.29658e-06
0.000103188
-1.08747e-06
0.000102533
6.55008e-07
0.000100207
2.32569e-06
9.67861e-05
3.42102e-06
9.29973e-05
3.78884e-06
8.95119e-05
3.48533e-06
8.67883e-05
2.72363e-06
8.49738e-05
1.81452e-06
8.39679e-05
1.0059e-06
8.39037e-05
6.41354e-08
8.46404e-05
-7.36661e-07
2.02705e-06
1.55808e-06
-1.35697e-06
4.12508e-06
-4.46568e-06
6.97562e-06
-5.80907e-06
9.90773e-06
-6.19255e-06
1.28319e-05
-6.20498e-06
1.57102e-05
-6.09443e-06
1.85318e-05
-5.9525e-06
2.12992e-05
-5.8153e-06
2.40216e-05
-5.69832e-06
2.67114e-05
-5.60846e-06
2.93827e-05
-5.54891e-06
3.20506e-05
-5.5214e-06
3.4731e-05
-5.52724e-06
3.74404e-05
-5.56783e-06
4.01961e-05
-5.64475e-06
4.30164e-05
-5.75977e-06
4.592e-05
-5.91464e-06
4.89258e-05
-6.11071e-06
5.20528e-05
-6.34831e-06
5.53182e-05
-6.62576e-06
5.8736e-05
-6.93812e-06
6.23147e-05
-7.2756e-06
6.60539e-05
-7.62171e-06
6.99399e-05
-7.95133e-06
7.3942e-05
-8.22907e-06
7.80065e-05
-8.40828e-06
8.2053e-05
-8.43168e-06
8.59702e-05
-8.23436e-06
8.96173e-05
-7.74961e-06
9.28325e-05
-6.92002e-06
9.5445e-05
-5.72142e-06
9.73227e-05
-4.17428e-06
9.85513e-05
-2.3161e-06
9.93552e-05
-1.48895e-07
9.96265e-05
2.0544e-06
9.90458e-05
4.00175e-06
9.75979e-05
5.23672e-06
9.55867e-05
5.49655e-06
9.3543e-05
4.76732e-06
9.20231e-05
3.33445e-06
9.12842e-05
1.74478e-06
9.07018e-05
6.46495e-07
8.96077e-05
3.57503e-07
5.12755e-06
2.58152e-06
-3.93849e-06
5.552e-06
-7.43616e-06
8.38499e-06
-8.64206e-06
1.11254e-05
-8.93301e-06
1.38033e-05
-8.88283e-06
1.64277e-05
-8.71885e-06
1.90057e-05
-8.53044e-06
2.15457e-05
-8.3553e-06
2.40581e-05
-8.2108e-06
2.6555e-05
-8.10536e-06
2.90494e-05
-8.04327e-06
3.15551e-05
-8.02709e-06
3.40866e-05
-8.05879e-06
3.66591e-05
-8.1403e-06
3.92881e-05
-8.27371e-06
4.19895e-05
-8.46117e-06
4.47794e-05
-8.70454e-06
4.76735e-05
-9.0048e-06
5.06862e-05
-9.36105e-06
5.38296e-05
-9.76919e-06
5.71117e-05
-1.02201e-05
6.05337e-05
-1.06976e-05
6.40877e-05
-1.11758e-05
6.77532e-05
-1.16168e-05
7.14928e-05
-1.19687e-05
7.52487e-05
-1.21642e-05
7.89391e-05
-1.21221e-05
8.24561e-05
-1.17514e-05
8.56671e-05
-1.09606e-05
8.84227e-05
-9.67563e-06
9.05702e-05
-7.86891e-06
9.19875e-05
-5.59155e-06
9.26613e-05
-2.98995e-06
9.27702e-05
-2.57787e-07
9.24797e-05
2.34489e-06
9.1977e-05
4.50446e-06
9.13752e-05
5.83854e-06
9.08079e-05
6.0639e-06
9.04463e-05
5.12888e-06
9.04167e-05
3.36404e-06
9.07376e-05
1.42386e-06
9.05548e-05
8.29359e-07
8.40095e-05
6.90278e-06
1.64568e-05
3.049e-06
-6.98749e-06
6.31768e-06
-1.07048e-05
9.21572e-06
-1.15401e-05
1.18763e-05
-1.15936e-05
1.44056e-05
-1.14121e-05
1.68549e-05
-1.11682e-05
1.92519e-05
-1.09274e-05
2.16146e-05
-1.0718e-05
2.39579e-05
-1.05541e-05
2.62953e-05
-1.04428e-05
2.86403e-05
-1.03883e-05
3.10063e-05
-1.03931e-05
3.34071e-05
-1.04596e-05
3.58565e-05
-1.05897e-05
3.83685e-05
-1.07857e-05
4.09569e-05
-1.10496e-05
4.36353e-05
-1.1383e-05
4.64163e-05
-1.17858e-05
4.93105e-05
-1.22552e-05
5.23255e-05
-1.27842e-05
5.54642e-05
-1.33589e-05
5.87228e-05
-1.39562e-05
6.20882e-05
-1.45412e-05
6.55351e-05
-1.50637e-05
6.9023e-05
-1.54565e-05
7.24928e-05
-1.5634e-05
7.58646e-05
-1.54939e-05
7.9036e-05
-1.49227e-05
8.18838e-05
-1.38084e-05
8.42726e-05
-1.20644e-05
8.60725e-05
-9.66887e-06
8.71997e-05
-6.71878e-06
8.76714e-05
-3.46157e-06
8.7653e-05
-2.39449e-07
8.74012e-05
2.59671e-06
8.72064e-05
4.6993e-06
8.72602e-05
5.78467e-06
8.7606e-05
5.71812e-06
8.81973e-05
4.53762e-06
8.89518e-05
2.60954e-06
8.91065e-05
1.26913e-06
8.62615e-05
3.67435e-06
7.4918e-05
1.82463e-05
3.73439e-05
3.24928e-06
-1.02368e-05
6.67408e-06
-1.41296e-05
9.62928e-06
-1.44953e-05
1.22621e-05
-1.42264e-05
1.4708e-05
-1.3858e-05
1.7043e-05
-1.35032e-05
1.93106e-05
-1.31949e-05
2.15385e-05
-1.29459e-05
2.3747e-05
-1.27626e-05
2.59527e-05
-1.26485e-05
2.81706e-05
-1.26061e-05
3.04144e-05
-1.2637e-05
3.26976e-05
-1.27428e-05
3.50333e-05
-1.29253e-05
3.7434e-05
-1.31864e-05
3.9912e-05
-1.35276e-05
4.24785e-05
-1.39494e-05
4.51432e-05
-1.44505e-05
4.79135e-05
-1.50256e-05
5.07935e-05
-1.56641e-05
5.3782e-05
-1.63474e-05
5.68713e-05
-1.70456e-05
6.0045e-05
-1.77148e-05
6.32751e-05
-1.82938e-05
6.65203e-05
-1.87017e-05
6.97231e-05
-1.88368e-05
7.28078e-05
-1.85786e-05
7.56801e-05
-1.7795e-05
7.82288e-05
-1.63572e-05
8.03346e-05
-1.41701e-05
8.18915e-05
-1.12258e-05
8.28522e-05
-7.67942e-06
8.32811e-05
-3.89045e-06
8.33928e-05
-3.512e-07
8.34732e-05
2.51632e-06
8.37914e-05
4.38108e-06
8.44736e-05
5.10251e-06
8.55532e-05
4.63853e-06
8.66696e-05
3.42125e-06
8.67781e-05
2.50105e-06
8.45226e-05
3.52454e-06
7.66897e-05
1.15073e-05
6.13992e-05
3.35368e-05
5.87609e-05
3.32307e-06
-1.35598e-05
6.7904e-06
-1.7597e-05
9.76294e-06
-1.74678e-05
1.23791e-05
-1.68426e-05
1.47754e-05
-1.62543e-05
1.70357e-05
-1.57636e-05
1.92121e-05
-1.53713e-05
2.13391e-05
-1.50729e-05
2.34419e-05
-1.48653e-05
2.55401e-05
-1.47468e-05
2.76505e-05
-1.47165e-05
2.97879e-05
-1.47743e-05
3.19656e-05
-1.49205e-05
3.41962e-05
-1.5156e-05
3.64915e-05
-1.54817e-05
3.88619e-05
-1.58981e-05
4.13169e-05
-1.64044e-05
4.38636e-05
-1.69972e-05
4.65068e-05
-1.76687e-05
4.92473e-05
-1.84047e-05
5.20812e-05
-1.91812e-05
5.49979e-05
-1.99622e-05
5.79786e-05
-2.06956e-05
6.0995e-05
-2.13101e-05
6.40064e-05
-2.17131e-05
6.69588e-05
-2.17893e-05
6.97833e-05
-2.14031e-05
7.23953e-05
-2.0407e-05
7.46972e-05
-1.86591e-05
7.65856e-05
-1.60586e-05
7.7976e-05
-1.26162e-05
7.88542e-05
-8.55757e-06
7.93406e-05
-4.37682e-06
7.96915e-05
-7.02169e-07
8.01821e-05
2.02572e-06
8.1049e-05
3.51425e-06
8.23821e-05
3.76937e-06
8.37098e-05
3.31083e-06
8.38367e-05
3.29433e-06
8.14325e-05
4.90521e-06
7.41262e-05
1.08309e-05
6.01971e-05
2.54365e-05
4.38194e-05
4.99145e-05
7.61881e-05
3.32717e-06
-1.6887e-05
6.76257e-06
-2.10324e-05
9.71403e-06
-2.04193e-05
1.2308e-05
-1.94365e-05
1.46687e-05
-1.8615e-05
1.68777e-05
-1.79726e-05
1.89889e-05
-1.74826e-05
2.10404e-05
-1.71245e-05
2.30606e-05
-1.68855e-05
2.50716e-05
-1.67578e-05
2.70918e-05
-1.67367e-05
2.91368e-05
-1.68193e-05
3.12203e-05
-1.70041e-05
3.33547e-05
-1.72903e-05
3.55506e-05
-1.76776e-05
3.78176e-05
-1.8165e-05
4.01629e-05
-1.87498e-05
4.25921e-05
-1.94263e-05
4.51073e-05
-2.01839e-05
4.7707e-05
-2.10044e-05
5.03848e-05
-2.18591e-05
5.31283e-05
-2.27058e-05
5.5918e-05
-2.34852e-05
5.87254e-05
-2.41176e-05
6.15125e-05
-2.45003e-05
6.42301e-05
-2.45068e-05
6.68168e-05
-2.39898e-05
6.91991e-05
-2.27893e-05
7.12921e-05
-2.0752e-05
7.30057e-05
-1.77722e-05
7.42704e-05
-1.3881e-05
7.51063e-05
-9.3935e-06
7.56968e-05
-4.96726e-06
7.62918e-05
-1.29724e-06
7.717e-05
1.14756e-06
7.8537e-05
2.1472e-06
7.97191e-05
2.58728e-06
7.9518e-05
3.51199e-06
7.66052e-05
6.20709e-06
6.90989e-05
1.24116e-05
5.64035e-05
2.35262e-05
4.09693e-05
4.08708e-05
2.6939e-05
6.39447e-05
9.07368e-05
3.28892e-06
-2.01759e-05
6.64649e-06
-2.43899e-05
9.54818e-06
-2.3321e-05
1.21097e-05
-2.1998e-05
1.44387e-05
-2.0944e-05
1.66086e-05
-2.01425e-05
1.86713e-05
-1.95453e-05
2.06654e-05
-1.91185e-05
2.26206e-05
-1.88407e-05
2.45608e-05
-1.86979e-05
2.65053e-05
-1.86812e-05
2.84705e-05
-1.87845e-05
3.04704e-05
-1.9004e-05
3.2517e-05
-1.93369e-05
3.46203e-05
-1.97809e-05
3.67886e-05
-2.03333e-05
3.90279e-05
-2.09891e-05
4.13417e-05
-2.17402e-05
4.37304e-05
-2.25726e-05
4.61905e-05
-2.34645e-05
4.87139e-05
-2.43824e-05
5.12869e-05
-2.52789e-05
5.38898e-05
-2.60881e-05
5.64955e-05
-2.67233e-05
5.9069e-05
-2.70737e-05
6.15663e-05
-2.70041e-05
6.39341e-05
-2.63576e-05
6.61087e-05
-2.49639e-05
6.80155e-05
-2.26588e-05
6.95712e-05
-1.93279e-05
7.07184e-05
-1.50281e-05
7.15239e-05
-1.0199e-05
7.21987e-05
-5.64209e-06
7.29411e-05
-2.03958e-06
7.40042e-05
8.43831e-08
7.45094e-05
1.64202e-06
7.34384e-05
3.65828e-06
6.94477e-05
7.50269e-06
6.18202e-05
1.38347e-05
5.10523e-05
2.31794e-05
3.84712e-05
3.61073e-05
2.58447e-05
5.34974e-05
1.43693e-05
7.54202e-05
0.000103157
3.22397e-06
-2.33999e-05
6.47689e-06
-2.76429e-05
9.30962e-06
-2.61537e-05
1.18287e-05
-2.45171e-05
1.41249e-05
-2.32402e-05
1.62613e-05
-2.22789e-05
1.82854e-05
-2.15694e-05
2.02343e-05
-2.10674e-05
2.21376e-05
-2.07441e-05
2.40197e-05
-2.058e-05
2.59005e-05
-2.0562e-05
2.77968e-05
-2.06808e-05
2.97226e-05
-2.09297e-05
3.16894e-05
-2.13038e-05
3.37069e-05
-2.17984e-05
3.57822e-05
-2.24085e-05
3.792e-05
-2.3127e-05
4.01225e-05
-2.39426e-05
4.23883e-05
-2.48384e-05
4.47124e-05
-2.57886e-05
4.70855e-05
-2.67555e-05
4.94935e-05
-2.76868e-05
5.19168e-05
-2.85115e-05
5.43302e-05
-2.91366e-05
5.67018e-05
-2.94453e-05
5.89931e-05
-2.92954e-05
6.11579e-05
-2.85223e-05
6.31404e-05
-2.69465e-05
6.48716e-05
-2.439e-05
6.62693e-05
-2.07256e-05
6.73003e-05
-1.60592e-05
6.808e-05
-1.09787e-05
6.87274e-05
-6.28948e-06
6.9193e-05
-2.5052e-06
6.90526e-05
2.24745e-07
6.71189e-05
3.57571e-06
6.25349e-05
8.24226e-06
5.54753e-05
1.45624e-05
4.66571e-05
2.26529e-05
3.68318e-05
3.30047e-05
2.66767e-05
4.62625e-05
1.69931e-05
6.3181e-05
8.05733e-06
8.43559e-05
0.00011216
3.14214e-06
-2.6542e-05
6.2759e-06
-3.07766e-05
9.02788e-06
-2.89057e-05
1.14965e-05
-2.69858e-05
1.37567e-05
-2.55004e-05
1.58614e-05
-2.43836e-05
1.78522e-05
-2.35602e-05
1.97637e-05
-2.29789e-05
2.16244e-05
-2.26047e-05
2.34582e-05
-2.24138e-05
2.5285e-05
-2.23888e-05
2.71215e-05
-2.25173e-05
2.89814e-05
-2.27897e-05
3.08762e-05
-2.31985e-05
3.28146e-05
-2.37368e-05
3.48028e-05
-2.43968e-05
3.68447e-05
-2.51688e-05
3.8941e-05
-2.60389e-05
4.1089e-05
-2.69865e-05
4.32828e-05
-2.79823e-05
4.55122e-05
-2.89849e-05
4.77629e-05
-2.99376e-05
5.00163e-05
-3.07648e-05
5.22489e-05
-3.13692e-05
5.44323e-05
-3.16287e-05
5.65326e-05
-3.13958e-05
5.85096e-05
-3.04992e-05
6.03132e-05
-2.87501e-05
6.18748e-05
-2.59516e-05
6.31189e-05
-2.19697e-05
6.40541e-05
-1.69943e-05
6.48044e-05
-1.17291e-05
6.5182e-05
-6.66711e-06
6.51517e-05
-2.47486e-06
6.3342e-05
2.0344e-06
5.90126e-05
7.90518e-06
5.25606e-05
1.46943e-05
4.49429e-05
2.21801e-05
3.68014e-05
3.07944e-05
2.86142e-05
4.11919e-05
2.08248e-05
5.40519e-05
1.38933e-05
7.01125e-05
7.99357e-06
9.02557e-05
0.000116902
3.10237e-06
-2.96444e-05
6.16442e-06
-3.38387e-05
8.87601e-06
-3.16173e-05
1.13307e-05
-2.94404e-05
1.35905e-05
-2.77602e-05
1.56997e-05
-2.64927e-05
1.76946e-05
-2.55552e-05
1.96068e-05
-2.48911e-05
2.14635e-05
-2.44614e-05
2.32878e-05
-2.42381e-05
2.50995e-05
-2.42006e-05
2.69151e-05
-2.43329e-05
2.87483e-05
-2.46229e-05
3.061e-05
-2.50602e-05
3.25084e-05
-2.56352e-05
3.44493e-05
-2.63377e-05
3.64353e-05
-2.71549e-05
3.84662e-05
-2.80698e-05
4.05385e-05
-2.90587e-05
4.2645e-05
-3.00889e-05
4.47753e-05
-3.11152e-05
4.6915e-05
-3.20773e-05
4.90462e-05
-3.2896e-05
5.11471e-05
-3.34701e-05
5.31921e-05
-3.36737e-05
5.51511e-05
-3.33548e-05
5.69879e-05
-3.2336e-05
5.86551e-05
-3.04173e-05
6.0083e-05
-2.73796e-05
6.1224e-05
-2.31107e-05
6.21512e-05
-1.79214e-05
6.28749e-05
-1.24528e-05
6.31805e-05
-6.97267e-06
6.21232e-05
-1.41752e-06
5.84952e-05
5.66241e-06
5.27753e-05
1.36251e-05
4.59936e-05
2.1476e-05
3.88506e-05
2.93232e-05
3.17916e-05
3.78534e-05
2.52216e-05
4.77619e-05
1.95843e-05
5.96893e-05
1.53935e-05
7.43032e-05
1.32453e-05
9.24039e-05
0.000115592
3.02708e-06
-3.26715e-05
5.98418e-06
-3.67958e-05
8.62537e-06
-3.42585e-05
1.10381e-05
-3.18532e-05
1.3273e-05
-2.9995e-05
1.53656e-05
-2.85853e-05
1.73469e-05
-2.75365e-05
1.92449e-05
-2.67891e-05
2.10845e-05
-2.6301e-05
2.28875e-05
-2.60412e-05
2.46728e-05
-2.59859e-05
2.64564e-05
-2.61164e-05
2.82512e-05
-2.64177e-05
3.00677e-05
-2.68767e-05
3.19136e-05
-2.74811e-05
3.37937e-05
-2.82178e-05
3.57099e-05
-2.90711e-05
3.76611e-05
-3.0021e-05
3.96431e-05
-3.10407e-05
4.16483e-05
-3.20941e-05
4.3666e-05
-3.31329e-05
4.56825e-05
-3.40938e-05
4.76809e-05
-3.48945e-05
4.96417e-05
-3.54309e-05
5.1542e-05
-3.55741e-05
5.33554e-05
-3.51682e-05
5.50499e-05
-3.40304e-05
5.65801e-05
-3.19475e-05
5.78869e-05
-2.86864e-05
5.89685e-05
-2.41923e-05
5.99937e-05
-1.89467e-05
6.09687e-05
-1.34278e-05
6.08513e-05
-6.85525e-06
5.8308e-05
1.12581e-06
5.34647e-05
1.05056e-05
4.74795e-05
1.96103e-05
4.11741e-05
2.77814e-05
3.49659e-05
3.55313e-05
2.92086e-05
4.36108e-05
2.43075e-05
5.26629e-05
2.07679e-05
6.3229e-05
1.92662e-05
7.5805e-05
2.08482e-05
9.08219e-05
0.000108527
2.94613e-06
-3.56176e-05
5.79593e-06
-3.96456e-05
8.36266e-06
-3.68252e-05
1.07281e-05
-3.42187e-05
1.29328e-05
-3.21997e-05
1.50051e-05
-3.06576e-05
1.69709e-05
-2.95022e-05
1.88544e-05
-2.86726e-05
2.06781e-05
-2.81247e-05
2.24621e-05
-2.78252e-05
2.42241e-05
-2.77478e-05
2.59789e-05
-2.78713e-05
2.7739e-05
-2.81779e-05
2.95142e-05
-2.86518e-05
3.13112e-05
-2.92782e-05
3.31344e-05
-3.00409e-05
3.49849e-05
-3.09216e-05
3.6861e-05
-3.18971e-05
3.87578e-05
-3.29376e-05
4.06678e-05
-3.40041e-05
4.25805e-05
-3.50456e-05
4.44829e-05
-3.59961e-05
4.63596e-05
-3.67712e-05
4.81933e-05
-3.72646e-05
4.9964e-05
-3.73448e-05
5.16488e-05
-3.6853e-05
5.32193e-05
-3.56009e-05
5.46311e-05
-3.33593e-05
5.58566e-05
-2.99119e-05
5.69631e-05
-2.52988e-05
5.81215e-05
-2.01051e-05
5.89209e-05
-1.42273e-05
5.79106e-05
-5.84492e-06
5.42559e-05
4.78045e-06
4.90405e-05
1.57211e-05
4.34163e-05
2.52345e-05
3.78769e-05
3.33209e-05
3.27062e-05
4.07021e-05
2.82246e-05
4.80924e-05
2.48367e-05
5.60507e-05
2.3066e-05
6.49998e-05
2.36288e-05
7.52421e-05
2.75834e-05
8.68674e-05
9.93622e-05
2.86166e-06
-3.84793e-05
5.60365e-06
-4.23876e-05
8.0933e-06
-3.93149e-05
1.04069e-05
-3.65323e-05
1.25766e-05
-3.43694e-05
1.46245e-05
-3.27056e-05
1.65719e-05
-3.14496e-05
1.84394e-05
-3.05401e-05
2.02471e-05
-2.99323e-05
2.20129e-05
-2.9591e-05
2.3753e-05
-2.9488e-05
2.54815e-05
-2.95997e-05
2.72096e-05
-2.9906e-05
2.89464e-05
-3.03886e-05
3.0698e-05
-3.10298e-05
3.24679e-05
-3.18109e-05
3.42568e-05
-3.27105e-05
3.60625e-05
-3.37028e-05
3.788e-05
-3.47551e-05
3.97017e-05
-3.58257e-05
4.15176e-05
-3.68615e-05
4.3316e-05
-3.77944e-05
4.5083e-05
-3.85383e-05
4.68036e-05
-3.89851e-05
4.84608e-05
-3.90019e-05
5.00351e-05
-3.84274e-05
5.1502e-05
-3.70678e-05
5.28227e-05
-3.468e-05
5.40067e-05
-3.10959e-05
5.52268e-05
-2.65189e-05
5.66803e-05
-2.15586e-05
5.68062e-05
-1.43531e-05
5.46027e-05
-3.64143e-06
5.02699e-05
9.11323e-06
4.5222e-05
2.0769e-05
4.02103e-05
3.02463e-05
3.55143e-05
3.80168e-05
3.13561e-05
4.48603e-05
2.80253e-05
5.14232e-05
2.58922e-05
5.81838e-05
2.54257e-05
6.54663e-05
2.72387e-05
7.34293e-05
3.2138e-05
8.19681e-05
9.03625e-05
2.77511e-06
-4.12544e-05
5.40986e-06
-4.50223e-05
7.82073e-06
-4.17258e-05
1.00787e-05
-3.87903e-05
1.22089e-05
-3.64996e-05
1.42282e-05
-3.47249e-05
1.61537e-05
-3.33751e-05
1.8003e-05
-3.23894e-05
1.97932e-05
-3.17225e-05
2.15405e-05
-3.13383e-05
2.32595e-05
-3.1207e-05
2.49628e-05
-3.1303e-05
2.66608e-05
-3.1604e-05
2.83615e-05
-3.20893e-05
3.00705e-05
-3.27387e-05
3.17906e-05
-3.3531e-05
3.3522e-05
-3.44419e-05
3.52622e-05
-3.5443e-05
3.70062e-05
-3.6499e-05
3.87467e-05
-3.75663e-05
4.04746e-05
-3.85895e-05
4.21793e-05
-3.94991e-05
4.38489e-05
-4.02079e-05
4.54704e-05
-4.06066e-05
4.70295e-05
-4.0561e-05
4.85101e-05
-3.99079e-05
4.98909e-05
-3.84486e-05
5.11521e-05
-3.59413e-05
5.23319e-05
-3.22756e-05
5.36419e-05
-2.78289e-05
5.509e-05
-2.30066e-05
5.43648e-05
-1.36279e-05
5.10732e-05
-3.4988e-07
4.65328e-05
1.36537e-05
4.18986e-05
2.54031e-05
3.75686e-05
3.45763e-05
3.36916e-05
4.18938e-05
3.0449e-05
4.81029e-05
2.80872e-05
5.3785e-05
2.6915e-05
5.9356e-05
2.73085e-05
6.50727e-05
2.97276e-05
7.10101e-05
3.47183e-05
7.69773e-05
8.2281e-05
2.68743e-06
-4.39418e-05
5.21601e-06
-4.75509e-05
7.54704e-06
-4.40568e-05
9.74632e-06
-4.09896e-05
1.18329e-05
-3.85862e-05
1.38194e-05
-3.67114e-05
1.57193e-05
-3.52751e-05
1.75473e-05
-3.42174e-05
1.93181e-05
-3.34933e-05
2.10457e-05
-3.3066e-05
2.27432e-05
-3.29044e-05
2.44216e-05
-3.29815e-05
2.60905e-05
-3.32728e-05
2.77569e-05
-3.37557e-05
2.94256e-05
-3.44075e-05
3.10989e-05
-3.52043e-05
3.27766e-05
-3.61196e-05
3.4456e-05
-3.71224e-05
3.61323e-05
-3.81753e-05
3.77988e-05
-3.92327e-05
3.94472e-05
-4.02379e-05
4.10683e-05
-4.11203e-05
4.2652e-05
-4.17915e-05
4.41873e-05
-4.2142e-05
4.56624e-05
-4.20362e-05
4.70635e-05
-4.1309e-05
4.83696e-05
-3.97547e-05
4.95885e-05
-3.71602e-05
5.08023e-05
-3.34894e-05
5.21786e-05
-2.92053e-05
5.28599e-05
-2.36879e-05
5.11981e-05
-1.19661e-05
4.73756e-05
3.47264e-06
4.3035e-05
1.79942e-05
3.89473e-05
2.94909e-05
3.52897e-05
3.82339e-05
3.21584e-05
4.50251e-05
2.96991e-05
5.05622e-05
2.81078e-05
5.53763e-05
2.76224e-05
5.98415e-05
2.85208e-05
6.41744e-05
3.11195e-05
6.84113e-05
3.57542e-05
7.23427e-05
7.53777e-05
2.59915e-06
-4.6541e-05
5.02287e-06
-4.99746e-05
7.2734e-06
-4.63073e-05
9.41127e-06
-4.31274e-05
1.14505e-05
-4.06254e-05
1.34002e-05
-3.8661e-05
1.52708e-05
-3.71456e-05
1.70742e-05
-3.60208e-05
1.88229e-05
-3.5242e-05
2.0529e-05
-3.47721e-05
2.22038e-05
-3.45792e-05
2.38571e-05
-3.46348e-05
2.54973e-05
-3.4913e-05
2.71304e-05
-3.53889e-05
2.87606e-05
-3.60377e-05
3.03897e-05
-3.68333e-05
3.2017e-05
-3.77469e-05
3.364e-05
-3.87454e-05
3.52541e-05
-3.97894e-05
3.68531e-05
-4.08318e-05
3.843e-05
-4.18148e-05
3.99767e-05
-4.26669e-05
4.14847e-05
-4.32995e-05
4.29449e-05
-4.36022e-05
4.43477e-05
-4.34389e-05
4.56808e-05
-4.2642e-05
4.69239e-05
-4.09978e-05
4.81035e-05
-3.83399e-05
4.93523e-05
-3.47381e-05
5.08685e-05
-3.07215e-05
5.05353e-05
-2.33547e-05
4.78536e-05
-9.28446e-06
4.38234e-05
7.50287e-06
3.98397e-05
2.1978e-05
3.62971e-05
3.30335e-05
3.32529e-05
4.12781e-05
3.07669e-05
4.75112e-05
2.89481e-05
5.2381e-05
2.79405e-05
5.63839e-05
2.79139e-05
5.98681e-05
2.90575e-05
6.30307e-05
3.15706e-05
6.58983e-05
3.56311e-05
6.82822e-05
6.9708e-05
2.51056e-06
-4.90515e-05
4.83078e-06
-5.22948e-05
7.00032e-06
-4.84769e-05
9.07454e-06
-4.52016e-05
1.10631e-05
-4.2614e-05
1.29721e-05
-4.057e-05
1.48095e-05
-3.8983e-05
1.65849e-05
-3.77962e-05
1.83085e-05
-3.69656e-05
1.99908e-05
-3.64543e-05
2.16413e-05
-3.62297e-05
2.32686e-05
-3.62622e-05
2.48798e-05
-3.65242e-05
2.64802e-05
-3.69893e-05
2.80732e-05
-3.76307e-05
2.96601e-05
-3.84202e-05
3.124e-05
-3.93269e-05
3.28104e-05
-4.03158e-05
3.43671e-05
-4.13461e-05
3.59047e-05
-4.23694e-05
3.7417e-05
-4.3327e-05
3.88971e-05
-4.41471e-05
4.03379e-05
-4.47403e-05
4.17316e-05
-4.4996e-05
4.30699e-05
-4.47772e-05
4.43427e-05
-4.39148e-05
4.55353e-05
-4.21904e-05
4.66807e-05
-3.94853e-05
4.79376e-05
-3.5995e-05
4.94243e-05
-3.22083e-05
4.81926e-05
-2.21229e-05
4.4596e-05
-5.6879e-06
4.05445e-05
1.15544e-05
3.69386e-05
2.55839e-05
3.38922e-05
3.60799e-05
3.13814e-05
4.37889e-05
2.94344e-05
4.94581e-05
2.81216e-05
5.36937e-05
2.75385e-05
5.6967e-05
2.77958e-05
5.96109e-05
2.90117e-05
6.18148e-05
3.12983e-05
6.36117e-05
3.47288e-05
6.48516e-05
6.51693e-05
2.42178e-06
-5.14733e-05
4.63975e-06
-5.45128e-05
6.72795e-06
-5.05651e-05
8.73651e-06
-4.72102e-05
1.06714e-05
-4.45489e-05
1.25362e-05
-4.24348e-05
1.43367e-05
-4.07835e-05
1.60805e-05
-3.95399e-05
1.77759e-05
-3.86611e-05
1.94317e-05
-3.811e-05
2.10558e-05
-3.78539e-05
2.26557e-05
-3.7862e-05
2.42373e-05
-3.81058e-05
2.5805e-05
-3.8557e-05
2.73615e-05
-3.91872e-05
2.89077e-05
-3.99663e-05
3.04426e-05
-4.08618e-05
3.19638e-05
-4.18369e-05
3.34673e-05
-4.28496e-05
3.49485e-05
-4.38506e-05
3.64019e-05
-4.47805e-05
3.78219e-05
-4.5567e-05
3.9202e-05
-4.61204e-05
4.05351e-05
-4.63291e-05
4.1813e-05
-4.60551e-05
4.3025e-05
-4.51268e-05
4.41711e-05
-4.33365e-05
4.52909e-05
-4.06051e-05
4.64912e-05
-3.71952e-05
4.7306e-05
-3.30231e-05
4.52e-05
-2.00169e-05
4.1271e-05
-1.75889e-06
3.74605e-05
1.53649e-05
3.42723e-05
2.87721e-05
3.1677e-05
3.86752e-05
2.96245e-05
4.58414e-05
2.81185e-05
5.09642e-05
2.71956e-05
5.46166e-05
2.69107e-05
5.72518e-05
2.73282e-05
5.91934e-05
2.85137e-05
6.06293e-05
3.05203e-05
6.16051e-05
3.33585e-05
6.20134e-05
6.15841e-05
2.33282e-06
-5.38061e-05
4.44962e-06
-5.66296e-05
6.45612e-06
-5.25716e-05
8.39722e-06
-4.91513e-05
1.02757e-05
-4.64274e-05
1.2093e-05
-4.42521e-05
1.38531e-05
-4.25437e-05
1.55618e-05
-4.12486e-05
1.72258e-05
-4.03251e-05
1.88522e-05
-3.97365e-05
2.04478e-05
-3.94494e-05
2.20185e-05
-3.94328e-05
2.35694e-05
-3.96566e-05
2.51039e-05
-4.00916e-05
2.66243e-05
-4.07075e-05
2.81308e-05
-4.14729e-05
2.96225e-05
-4.23535e-05
3.10969e-05
-4.33113e-05
3.25507e-05
-4.43034e-05
3.39795e-05
-4.52794e-05
3.53788e-05
-4.61798e-05
3.67435e-05
-4.69317e-05
3.80678e-05
-4.74447e-05
3.93446e-05
-4.7606e-05
4.05649e-05
-4.72753e-05
4.17151e-05
-4.6277e-05
4.28077e-05
-4.44291e-05
4.38986e-05
-4.1696e-05
4.50523e-05
-3.8349e-05
4.47992e-05
-3.277e-05
4.19104e-05
-1.71282e-05
3.80318e-05
2.11976e-06
3.45897e-05
1.8807e-05
3.18117e-05
3.15501e-05
2.96187e-05
4.08682e-05
2.7953e-05
4.75071e-05
2.6801e-05
5.21162e-05
2.61727e-05
5.5245e-05
2.60912e-05
5.73333e-05
2.65867e-05
5.8698e-05
2.76887e-05
5.95274e-05
2.94129e-05
5.98809e-05
3.17323e-05
5.9694e-05
5.87701e-05
2.2436e-06
-5.60497e-05
4.26005e-06
-5.8646e-05
6.18445e-06
-5.4496e-05
8.05646e-06
-5.10233e-05
9.87598e-06
-4.82469e-05
1.16427e-05
-4.60189e-05
1.33591e-05
-4.42601e-05
1.50294e-05
-4.29189e-05
1.66589e-05
-4.19546e-05
1.82531e-05
-4.13307e-05
1.98176e-05
-4.10139e-05
2.13572e-05
-4.09724e-05
2.28759e-05
-4.11754e-05
2.43765e-05
-4.15922e-05
2.58606e-05
-4.21915e-05
2.7328e-05
-4.29404e-05
2.87778e-05
-4.38032e-05
3.02074e-05
-4.4741e-05
3.16139e-05
-4.57098e-05
3.29935e-05
-4.6659e-05
3.43422e-05
-4.75284e-05
3.56552e-05
-4.82447e-05
3.69269e-05
-4.87165e-05
3.81505e-05
-4.88296e-05
3.93156e-05
-4.84404e-05
4.04053e-05
-4.73667e-05
4.1439e-05
-4.54628e-05
4.24913e-05
-4.27483e-05
4.37038e-05
-3.95616e-05
4.23317e-05
-3.13978e-05
3.88282e-05
-1.36246e-05
3.50748e-05
5.87315e-06
3.19722e-05
2.19096e-05
2.95484e-05
3.39739e-05
2.76954e-05
4.27212e-05
2.63482e-05
4.88543e-05
2.54761e-05
5.29883e-05
2.50671e-05
5.5654e-05
2.51207e-05
5.72796e-05
2.56432e-05
5.81755e-05
2.66398e-05
5.85308e-05
2.81033e-05
5.84174e-05
2.99943e-05
5.78031e-05
3.22013e-05
5.65631e-05
5.45157e-05
2.15394e-06
-5.82037e-05
4.07061e-06
-6.05627e-05
5.91243e-06
-5.63378e-05
7.7138e-06
-5.28247e-05
9.47207e-06
-5.00051e-05
1.11855e-05
-4.77323e-05
1.28551e-05
-4.59297e-05
1.44838e-05
-4.45477e-05
1.60756e-05
-4.35463e-05
1.76348e-05
-4.28899e-05
1.91656e-05
-4.25447e-05
2.0672e-05
-4.24787e-05
2.2157e-05
-4.26603e-05
2.36227e-05
-4.30579e-05
2.50699e-05
-4.36388e-05
2.64984e-05
-4.43689e-05
2.79068e-05
-4.52117e-05
2.92931e-05
-4.61272e-05
3.06542e-05
-4.7071e-05
3.19869e-05
-4.79917e-05
3.32873e-05
-4.88289e-05
3.45509e-05
-4.95083e-05
3.5772e-05
-4.99376e-05
3.69435e-05
-5.0001e-05
3.80551e-05
-4.95521e-05
3.90902e-05
-4.84018e-05
4.00661e-05
-4.64387e-05
4.10618e-05
-4.37439e-05
4.21551e-05
-4.06549e-05
3.99515e-05
-2.91942e-05
3.60043e-05
-9.67748e-06
3.23957e-05
9.48178e-06
2.95779e-05
2.47274e-05
2.74497e-05
3.61022e-05
2.58809e-05
4.429e-05
2.47942e-05
4.99411e-05
2.41421e-05
5.36403e-05
2.38954e-05
5.59007e-05
2.4037e-05
5.7138e-05
2.45571e-05
5.76554e-05
2.54463e-05
5.76416e-05
2.6684e-05
5.71798e-05
2.82235e-05
5.62635e-05
2.99674e-05
5.48192e-05
5.27281e-05
2.06361e-06
-6.02673e-05
3.88076e-06
-6.23799e-05
5.6394e-06
-5.80964e-05
7.36865e-06
-5.45539e-05
9.06355e-06
-5.17e-05
1.07211e-05
-4.93898e-05
1.23411e-05
-4.75497e-05
1.39253e-05
-4.61319e-05
1.54765e-05
-4.50975e-05
1.69978e-05
-4.44112e-05
1.84926e-05
-4.40395e-05
1.99636e-05
-4.39497e-05
2.1413e-05
-4.41098e-05
2.28423e-05
-4.44872e-05
2.42519e-05
-4.50483e-05
2.56412e-05
-4.57582e-05
2.70087e-05
-4.65792e-05
2.83523e-05
-4.74708e-05
2.96693e-05
-4.83879e-05
3.09565e-05
-4.9279e-05
3.22103e-05
-5.00826e-05
3.34259e-05
-5.07239e-05
3.4597e-05
-5.11087e-05
3.57154e-05
-5.11194e-05
3.67703e-05
-5.06069e-05
3.77518e-05
-4.93833e-05
3.86738e-05
-4.73607e-05
3.95758e-05
-4.4646e-05
4.01555e-05
-4.12346e-05
3.72447e-05
-2.62833e-05
3.32198e-05
-5.65265e-06
2.98607e-05
1.28409e-05
2.73308e-05
2.72573e-05
2.54708e-05
3.79622e-05
2.41481e-05
4.56127e-05
2.32768e-05
5.08124e-05
2.27985e-05
5.41187e-05
2.26725e-05
5.60267e-05
2.2871e-05
5.69395e-05
2.33743e-05
5.71521e-05
2.41642e-05
5.68517e-05
2.52144e-05
5.61296e-05
2.64775e-05
5.50003e-05
2.78712e-05
5.34255e-05
5.13384e-05
1.97236e-06
-6.22396e-05
3.68996e-06
-6.40975e-05
5.36467e-06
-5.97711e-05
7.02032e-06
-5.62096e-05
8.64987e-06
-5.33296e-05
1.02491e-05
-5.09891e-05
1.18169e-05
-4.91175e-05
1.33539e-05
-4.76689e-05
1.48618e-05
-4.66054e-05
1.63427e-05
-4.58921e-05
1.77988e-05
-4.54956e-05
1.92322e-05
-4.53831e-05
2.06443e-05
-4.55219e-05
2.20358e-05
-4.58787e-05
2.34068e-05
-4.64193e-05
2.47562e-05
-4.71076e-05
2.60826e-05
-4.79056e-05
2.73839e-05
-4.87721e-05
2.86574e-05
-4.96615e-05
2.99002e-05
-5.05217e-05
3.11084e-05
-5.12908e-05
3.22769e-05
-5.18924e-05
3.33985e-05
-5.22303e-05
3.44632e-05
-5.21841e-05
3.54583e-05
-5.16021e-05
3.63811e-05
-5.0306e-05
3.7252e-05
-4.82317e-05
3.80717e-05
-4.54656e-05
3.77092e-05
-4.08721e-05
3.42182e-05
-2.27923e-05
3.04287e-05
-1.86314e-06
2.74195e-05
1.58502e-05
2.51915e-05
2.94853e-05
2.35845e-05
3.95692e-05
2.24772e-05
4.672e-05
2.17852e-05
5.15045e-05
2.14453e-05
5.44585e-05
2.14104e-05
5.60616e-05
2.16462e-05
5.67038e-05
2.21274e-05
5.66709e-05
2.28315e-05
5.61476e-05
2.37299e-05
5.52312e-05
2.47786e-05
5.39516e-05
2.59082e-05
5.22959e-05
5.02315e-05
1.87994e-06
-6.41196e-05
3.4976e-06
-6.57151e-05
5.08744e-06
-6.1361e-05
6.668e-06
-5.77901e-05
8.23032e-06
-5.48919e-05
9.76914e-06
-5.25279e-05
1.12824e-05
-5.06307e-05
1.27696e-05
-4.91562e-05
1.42316e-05
-4.80674e-05
1.56696e-05
-4.733e-05
1.70847e-05
-4.69108e-05
1.84784e-05
-4.67767e-05
1.98512e-05
-4.68947e-05
2.12033e-05
-4.72309e-05
2.25344e-05
-4.77503e-05
2.38432e-05
-4.84164e-05
2.51281e-05
-4.91905e-05
2.6387e-05
-5.0031e-05
2.76173e-05
-5.08918e-05
2.88161e-05
-5.17205e-05
2.99794e-05
-5.24541e-05
3.11016e-05
-5.30145e-05
3.21745e-05
-5.33032e-05
3.31863e-05
-5.31959e-05
3.41209e-05
-5.25367e-05
3.49829e-05
-5.1168e-05
3.58038e-05
-4.90526e-05
3.66331e-05
-4.62949e-05
3.4899e-05
-3.9138e-05
3.12351e-05
-1.91285e-05
2.77806e-05
1.59138e-06
2.51198e-05
1.85109e-05
2.31671e-05
3.1438e-05
2.17805e-05
4.09558e-05
2.08557e-05
4.76448e-05
2.03115e-05
5.20487e-05
2.00823e-05
5.46877e-05
2.01174e-05
5.60266e-05
2.03789e-05
5.64423e-05
2.08386e-05
5.62112e-05
2.14721e-05
5.55141e-05
2.22512e-05
5.4452e-05
2.31363e-05
5.30665e-05
2.407e-05
5.13623e-05
4.93284e-05
1.78608e-06
-6.59057e-05
3.303e-06
-6.7232e-05
4.80681e-06
-6.28648e-05
6.31073e-06
-5.92941e-05
7.80402e-06
-5.63852e-05
9.28043e-06
-5.40043e-05
1.07369e-05
-5.20872e-05
1.21722e-05
-5.05915e-05
1.3586e-05
-4.94812e-05
1.49787e-05
-4.87227e-05
1.63507e-05
-4.82828e-05
1.77024e-05
-4.81285e-05
1.9034e-05
-4.82263e-05
2.03451e-05
-4.8542e-05
2.16349e-05
-4.90401e-05
2.29021e-05
-4.96836e-05
2.41448e-05
-5.04332e-05
2.53609e-05
-5.12471e-05
2.65481e-05
-5.2079e-05
2.77031e-05
-5.28755e-05
2.88217e-05
-5.35727e-05
2.9898e-05
-5.40908e-05
3.09233e-05
-5.43285e-05
3.18846e-05
-5.41572e-05
3.27629e-05
-5.34151e-05
3.3567e-05
-5.19721e-05
3.43297e-05
-4.98153e-05
3.51849e-05
-4.71501e-05
3.24523e-05
-3.64054e-05
2.8658e-05
-1.53342e-05
2.54288e-05
4.82062e-06
2.30063e-05
2.09334e-05
2.12574e-05
3.31869e-05
2.00461e-05
4.21671e-05
1.92706e-05
4.84203e-05
1.88473e-05
5.2472e-05
1.87075e-05
5.48275e-05
1.87978e-05
5.59362e-05
1.90788e-05
5.61614e-05
1.95208e-05
5.57692e-05
2.00991e-05
5.49358e-05
2.07869e-05
5.37643e-05
2.15493e-05
5.23041e-05
2.23392e-05
5.05723e-05
4.85722e-05
1.69046e-06
-6.75961e-05
3.10534e-06
-6.86469e-05
4.52167e-06
-6.42811e-05
5.94735e-06
-6.07197e-05
7.36991e-06
-5.78078e-05
8.78211e-06
-5.54165e-05
1.018e-05
-5.3485e-05
1.15612e-05
-5.19727e-05
1.29248e-05
-5.08448e-05
1.42701e-05
-5.0068e-05
1.55968e-05
-4.96095e-05
1.69046e-05
-4.94363e-05
1.81931e-05
-4.95148e-05
1.94615e-05
-4.98104e-05
2.07085e-05
-5.02872e-05
2.19328e-05
-5.09078e-05
2.31324e-05
-5.16328e-05
2.43053e-05
-5.242e-05
2.54489e-05
-5.32226e-05
2.65599e-05
-5.39866e-05
2.76339e-05
-5.46467e-05
2.86642e-05
-5.51211e-05
2.96419e-05
-5.53062e-05
3.05542e-05
-5.50696e-05
3.13827e-05
-5.42435e-05
3.21313e-05
-5.27207e-05
3.28221e-05
-5.05062e-05
3.34691e-05
-4.7797e-05
3.02502e-05
-3.31865e-05
2.63701e-05
-1.1454e-05
2.32751e-05
7.91557e-06
2.10148e-05
2.31938e-05
1.94222e-05
3.47794e-05
1.83555e-05
4.32338e-05
1.77052e-05
4.90706e-05
1.73827e-05
5.27946e-05
1.73169e-05
5.48934e-05
1.7453e-05
5.58001e-05
1.77508e-05
5.58637e-05
1.81804e-05
5.53396e-05
1.87176e-05
5.43986e-05
1.93375e-05
5.31444e-05
2.00098e-05
5.16318e-05
2.06956e-05
4.98865e-05
4.79208e-05
1.59267e-06
-6.91888e-05
2.9036e-06
-6.99579e-05
4.23069e-06
-6.56082e-05
5.57647e-06
-6.20655e-05
6.92672e-06
-5.9158e-05
8.27312e-06
-5.67629e-05
9.6107e-06
-5.48226e-05
1.09363e-05
-5.32983e-05
1.22478e-05
-5.21563e-05
1.35437e-05
-5.13639e-05
1.48232e-05
-5.08889e-05
1.60851e-05
-5.06982e-05
1.73286e-05
-5.07583e-05
1.85524e-05
-5.10342e-05
1.97552e-05
-5.149e-05
2.09353e-05