/*--------------------------------*- C++ -*----------------------------------*\
  =========                 |
  \\      /  F ield         | OpenFOAM: The Open Source CFD Toolbox
   \\    /   O peration     | Website:  https://openfoam.org
    \\  /    A nd           | Version:  9
     \\/     M anipulation  |
\*---------------------------------------------------------------------------*/
FoamFile
{
    format      ascii;
    class       surfaceScalarField;
    location    "95";
    object      phi;
}
// * * * * * * * * * * * * * * * * * * * * * * * * * * * * * * * * * * * * * //

dimensions      [0 3 -1 0 0 0 0];

internalField   nonuniform List<scalar> 
167688
(
-0.0422036
0.0254428
0.0167608
0.00801214
-0.0735512
0.0655391
0.0359804
0.0486725
-0.0846529
0.0399202
-0.0858462
0.045926
0.103528
-0.0957107
-0.00781746
-0.073024
0.0130849
0.0599391
0.0419305
-0.0246636
-0.017267
-0.0382133
0.0781335
-0.125501
0.0425263
0.0829748
-0.0261276
-0.00371164
0.0298392
-0.0517018
0.059714
-0.0616583
0.0349255
0.0267328
0.117553
-0.0899137
-0.0276389
-0.0464228
-0.0152355
-0.0372967
0.0169601
0.0203365
0.0417244
0.0324848
-0.0742092
0.0189765
-0.00243513
-0.0165413
0.0211412
-0.025946
0.00480487
0.0300519
0.0389381
-0.06899
0.108534
-0.0663754
-0.0421584
-0.0836729
-0.0225305
0.106203
0.0476623
0.0534398
-0.101102
0.0625939
-0.032542
-0.0890681
0.0646758
0.0243923
0.0884426
-0.00674167
-0.0817009
-0.0793694
0.0288168
0.0505526
0.0124
0.0103711
-0.0227711
0.0718174
-0.0802077
0.00839032
-0.0911617
0.0181376
-0.000119262
-0.0835536
0.0117421
0.0691935
-0.0809357
0.0613249
-0.0581125
-0.00321246
0.136125
-0.122157
-0.0139681
-0.00647258
0.00408144
0.00239115
-0.0714065
-0.0540946
-0.118184
0.0785013
0.0396823
0.0527702
0.0557636
0.00443949
-0.0140677
0.00962818
0.0272102
0.038111
-0.0653212
-0.0575241
-0.0368519
0.0943759
0.0341884
-0.0922215
0.0580331
-0.0637461
0.0140725
0.0496735
-0.0746406
-0.0108035
0.0854441
0.0655186
-0.0295382
0.0410882
-0.019947
0.0405611
-0.0672581
0.026697
-0.00546678
-0.00100581
-0.111464
0.00360419
0.10786
-0.0995235
0.0353523
0.0641713
-0.00195903
-0.061787
0.070792
-0.0295776
-0.0412143
-0.0263252
0.0234197
0.00290556
0.0913146
-0.0890781
-0.00223654
-0.0550016
0.0822117
0.00648595
-0.0704104
0.0639244
0.0227716
0.019159
-0.0694308
0.0412365
0.0281944
0.0598845
-0.00873322
-0.0511512
-0.0343081
0.00415996
0.0301481
0.0727187
-0.0321577
0.00852375
0.0326143
-0.0411381
-0.0465172
-0.0649471
0.117478
-0.0348662
-0.0826119
-0.000361442
0.11784
-0.0071832
-0.0295547
0.0367379
0.126375
-0.0733472
-0.0530276
0.0142723
-0.00983282
0.111611
-0.0892794
-0.0223314
-0.0611813
0.00534571
0.0558356
-0.0856868
-0.0160137
0.101701
0.0531294
0.00675502
-0.00415432
0.00199014
0.00216418
-0.0621283
-0.0269397
-0.0268662
0.0212366
0.00562959
-0.0112129
0.0393834
-0.0281706
-0.00943074
0.0124215
-0.00299074
0.0903619
-0.00564885
-0.0847131
-0.019432
0.0464241
-0.0238614
-0.0225626
-0.0589927
0.00399113
0.0129364
0.0661954
-0.0791318
-0.00217765
-0.0072531
0.0479448
0.0228472
-0.0667599
-0.0126095
0.111762
-0.0700376
0.0158065
-0.0700685
0.0542621
0.0718612
-0.0507108
-0.0211504
0.0672521
-0.0607661
0.00738633
-0.00911724
0.00173091
-0.0665697
0.0848072
-0.0182376
0.135896
-0.0587079
-0.0771879
-0.0498414
-0.0683423
0.0352992
0.036562
0.0275324
0.0759958
0.0337099
-0.0449227
0.118501
-0.0281388
0.0765307
-0.0506554
-0.0258753
-0.0281668
-0.00912984
0.0787711
-0.067029
-0.052875
-0.0165558
0.0592828
0.0582699
0.112468
-0.108133
-0.00433477
-0.0927006
0.0665409
0.0261597
0.0633093
-0.102673
0.0393638
-0.00725075
0.0373279
-0.0300771
-0.0161135
0.00355118
0.0125623
-0.0484368
0.0412536
-0.0579588
0.093199
-0.0352402
0.0781514
-0.11702
0.0388684
-0.0640382
0.0798447
-0.00110342
-0.0030509
-0.048019
0.0466119
0.00140712
0.0454449
0.0319115
-0.0773563
-0.0723509
0.0470158
0.025335
-0.0754598
0.0142785
-0.0576175
0.0202038
0.0374136
0.042432
-0.00490571
-0.0375263
0.00613087
-0.072167
0.0660361
0.00676234
0.000623995
-0.127871
0.0899574
0.0379139
0.0510217
-0.0822704
0.0312487
-0.00811763
0.079935
-0.0399
0.0137724
0.0601775
-0.083729
0.0235515
-0.0551399
0.0893283
-0.01994
0.0832493
-0.00156031
-0.0174818
0.0190421
0.00236858
0.0641851
-0.0665537
-0.0858527
0.0221596
0.0636931
0.0333888
-0.0406396
-0.0277306
0.0879081
0.0303054
-0.0179054
0.0217428
0.0730767
-0.0948195
0.0208726
-0.00437037
-0.0165023
-0.0168535
0.0549645
-0.103628
0.0461041
0.128216
-0.0909379
-0.0372783
0.103109
-0.0745236
-0.028585
-0.0444853
-0.0278777
0.0723631
0.0438893
-0.000182905
-0.0437064
0.0400086
0.0631001
-0.0452007
0.039765
0.00543568
-0.0701194
-0.00296222
0.0730816
-0.00835576
0.0132629
-0.00490714
0.0195595
-0.0775183
-0.0696044
0.0387889
0.0308155
0.0239913
0.00545821
-0.0294495
-0.116654
0.0371205
0.0795336
0.0752843
-0.0691534
-0.087798
0.0914072
-0.00360919
-0.016682
0.000568561
-0.0356657
0.083328
-0.0365577
0.0513839
-0.0148262
0.00651505
0.0847996
-0.0876606
0.0431752
0.0706289
-0.0349767
-0.0356522
-0.0864066
0.0749592
0.0114474
-0.0253829
-0.0469679
-0.036612
0.00230388
0.0375998
-0.00243142
-0.0351684
0.098309
-0.0528641
-0.10391
0.0686826
0.0352272
0.00741144
0.0459662
-0.0533776
-0.0734021
0.0364523
0.0369498
-0.0866162
0.0940737
-0.00745752
0.084593
-0.00556177
-0.0790312
0.0521954
0.00506004
-0.0572554
0.0224923
0.0388326
-0.0887084
0.00789502
0.0808133
-0.0563714
0.060397
-0.00402562
0.0177528
0.0426955
-0.0604483
0.0651874
0.0054415
0.0898869
-0.0824755
-0.018713
0.0103573
-0.0158524
-0.0474242
0.0632766
-0.0454844
-0.0823869
-0.0936764
-0.00584713
0.12234
-0.0304424
-0.0918977
0.0652059
-0.0505522
-0.0146536
-0.00203256
-0.078166
0.0801986
-0.0518816
0.0360292
0.0832222
0.0209743
-0.104196
-0.11657
0.0137656
0.102804
0.0721975
-0.102156
0.0299581
-0.0720641
0.0438424
0.0282217
-0.0454984
0.0329604
0.012538
-0.0581858
-0.045724
-0.00394865
-0.0826675
-0.0758969
0.00577754
-0.0695394
0.0195141
0.0500253
0.010642
0.0494498
-0.0600919
0.0854245
0.0507007
-0.107426
0.0408559
-0.0199992
0.0710209
0.101321
-0.0479677
-0.053353
-0.138802
0.0961282
0.0426735
0.0593723
-0.0681665
0.00879417
-0.00726463
-0.0407544
0.101981
-0.0449308
-0.0570504
-0.0293434
-0.0570631
0.00140221
-0.0133283
0.0119261
-0.0179606
0.0422746
-0.024314
-0.0284118
0.0369355
0.0271525
-0.0798389
0.0526863
-0.0894886
-0.024016
0.113505
-0.0347132
-0.0229042
-0.0194441
0.00430654
0.0151376
0.0198816
-0.0443827
0.0245011
0.0294933
-0.0105168
0.0749513
0.0161459
-0.0910972
-0.0985345
0.0748267
0.0237078
0.114143
0.00249935
-0.116643
-0.0152943
0.0392856
-0.0177492
0.0820904
-0.00555975
-0.020318
0.0401995
0.0553994
-0.0376466
-0.0563994
-0.00561194
0.0620113
-0.134584
0.043634
0.0909505
0.084182
-0.0310774
-0.0531046
-0.104938
0.0214899
0.0834476
0.018689
-0.0435971
0.0249081
0.0955435
0.0308312
-0.00794507
0.0455449
0.0618627
-0.0125392
-0.0493235
-0.112678
0.0239696
0.0171469
0.0953208
-0.018273
0.0470786
-0.0288057
-0.0418626
0.070174
-0.0283114
0.0744064
-0.105303
0.0308967
-0.113246
0.0395604
0.0736858
-0.0726199
-0.0619646
-0.0425308
-0.0295333
-0.114879
0.048969
0.0659096
0.0295345
-0.000297779
-0.0292368
-0.0918546
0.0391547
0.0527
-0.085122
-0.0536796
-0.0347448
-5.97849e-05
0.000422662
-0.000362877
-0.0018506
-0.00449682
0.00634742
-0.061069
-0.0217589
0.0828279
-0.0378729
0.0489527
-0.0110797
0.113051
-0.0804225
-0.0326287
-0.117966
0.0568973
-0.0165201
-0.0670308
0.0835509
0.0395397
-0.0100052
0.0674867
0.00966582
-0.0771525
0.0296865
-0.0638306
0.0341441
0.120005
-0.059772
-0.0602332
0.022132
0.06205
0.0247099
0.035372
-0.0600818
0.102682
-0.0194599
0.00972509
-0.00745906
-0.00226603
0.0929799
-0.0375899
-0.0553899
0.00266488
0.0567074
0.00132294
-0.0891209
0.0584939
-0.0478519
-0.0914879
0.00563519
0.0173309
-0.00293068
-0.0144003
-0.0186913
0.0852322
0.0553925
0.00647019
0.0297151
-0.0287436
-0.000971569
0.0224966
0.0620964
-0.0160422
-0.0294563
-0.00298545
-0.0132195
0.0162049
-0.0770508
0.0075114
0.00327506
-0.0927637
0.045365
0.0769751
-0.00977335
-0.0325149
0.0422883
0.0432004
0.0684105
0.0635364
-0.0388265
-0.0327661
-0.0149949
0.0477611
0.067579
0.0344022
-0.0330712
0.006746
0.0328982
0.0425049
-0.075403
0.00842702
0.0119846
-0.0204116
0.028354
0.0180284
-0.0463824
-0.000308352
0.00027504
3.33127e-05
-0.000283519
-2.48331e-05
0.00390199
0.0058231
-0.00252565
0.0806771
-0.0812806
0.066196
0.0150846
-0.0225616
-0.0151573
0.0377188
0.0550366
-0.0625235
0.00748688
0.101403
-0.0836726
-0.0177301
0.0322769
0.032929
0.100963
-0.0263978
-0.0745654
0.124093
-0.031092
-0.0930007
0.0842784
-0.0819098
-0.0349418
0.0251684
-0.0959726
0.0521713
0.0438013
0.0107056
0.0600015
-0.0707071
-0.0459174
-0.0301439
0.0760613
0.110975
-0.0563199
-0.0546551
-0.0681188
-0.0467598
0.0574213
0.0439814
-0.0533058
0.0687225
-0.0154167
0.0853842
-0.0842478
-0.00113633
0.101624
-0.0598512
-0.0417732
0.103914
0.0319814
0.106501
-0.0413906
-0.0651101
0.0814679
-0.00927035
0.0243582
-0.0426312
-0.110012
0.102394
0.00761838
-0.0800605
0.0630164
0.0170442
-0.0528898
0.0746326
0.00180362
-0.118373
0.0531186
-0.0746827
0.0215641
0.0859546
-0.0530565
0.000587184
-0.0730052
0.072418
-0.0206319
-0.0961089
0.0505643
0.0455447
-0.126745
0.0385469
0.0881979
-0.109105
0.0221938
0.0869112
0.00172942
0.0431447
-0.0448741
0.0473411
-0.0286521
-0.0210674
-0.0372153
0.0582827
-0.0829796
-0.00887503
-0.104833
0.0731938
0.0316388
0.0968659
0.00475842
-0.0838494
0.0673293
0.0216795
-0.00080689
0.010339
-0.0310071
0.0206681
0.105867
-0.0204831
0.06924
-0.00175334
0.053661
-0.0866027
0.0329418
-0.0171371
-0.0280636
-0.082653
0.00801242
-0.0587668
-0.0225137
0.079788
0.0484283
-0.066686
0.0248234
-0.0554212
-0.0189116
0.0743328
0.0544107
-0.0119788
0.0665601
3.7767e-06
-0.0665638
0.10045
-0.0428218
-0.0576279
-0.0194857
-0.0527232
0.0722089
-0.0215023
0.0959087
0.0492921
0.0434553
-0.0927474
-0.0127364
-0.0833725
-0.0393352
0.0164645
0.0228707
-0.00978636
0.0111886
-0.0215195
0.0199592
0.113122
-0.0246795
-0.108533
0.0854598
0.0230736
-0.0916746
0.0330402
0.0586344
-0.0303767
0.0600631
-0.124114
0.00745969
0.0647417
-0.0545472
-0.0101946
-0.00784848
-0.0485229
-0.0626064
0.0755428
0.00618307
0.0181438
-0.0243268
0.0106465
0.0260676
-0.036714
-0.00024309
-0.0239977
0.0242407
0.0151114
0.00340912
-0.0185206
-0.0645282
-0.00247901
0.0670072
-0.0736987
0.00917054
-0.0185705
-0.00776168
0.0263322
-0.0885845
0.0865519
0.124574
-0.124523
-5.0189e-05
0.0165313
0.0228811
-0.0394124
-0.0333016
0.0108394
0.0224622
0.0537197
0.0708538
0.0830136
0.0174362
-0.00765782
0.00660302
0.00105479
0.0315407
0.0884645
0.000412611
-0.000472396
-0.0251607
-0.0141746
-0.0122591
-0.0366697
0.0489289
0.0798245
0.0266762
0.0494187
-0.0821671
0.0327484
-0.0277889
-0.00811186
0.0359008
0.00641179
-0.0342007
-0.0305757
-0.0132084
0.0437841
0.018063
0.00606489
-0.0241279
-0.000483858
0.000360833
0.000123026
0.126948
-0.0426482
-0.0842996
0.0693746
0.0575732
0.078219
-0.0805466
0.00232756
-0.0321357
-0.0084752
0.0406109
0.106249
-0.0503024
-0.0559469
-0.0582672
-0.0684776
0.0876309
-0.0969372
0.00930626
0.0370464
-0.020515
-0.00895057
0.0657349
-0.0567844
0.00513426
0.0479843
0.104429
-0.00668503
-0.0977435
0.0222153
0.0822133
0.0021108
-0.0585102
-0.0390741
0.0165125
-0.0294259
0.0309872
-0.00156131
-0.035163
-3.45362e-05
0.0351975
0.005816
-0.075358
0.069542
-0.0298419
0.0830291
-0.0531872
0.0304059
0.0230426
-0.0534485
-0.0275138
0.000647526
-0.0816366
-0.0143359
-0.0992559
0.0656265
0.0336294
-0.0451806
-0.0219898
0.0671704
-0.0164276
0.0134042
0.00302345
-0.0753964
0.0455545
0.00462654
0.0250886
-0.00732976
-0.0278332
-0.00417226
0.00454188
-0.00036962
0.0519764
-0.0213745
-0.0306019
0.0203591
-0.076963
0.0566038
-0.0241177
0.0232206
0.00089707
0.0705794
-0.0357753
-0.0348041
0.00491357
-0.0906004
0.108727
-0.0241252
-0.0846013
0.111328
-0.0933601
-0.0179684
0.0694927
-0.00293259
0.0665915
-0.090138
0.0235465
-0.0412338
-0.0447501
0.085984
0.0929129
-0.0263213
-0.0729692
0.0534835
0.0474957
-0.0680037
0.020508
0.031053
0.0432567
-0.0743097
0.0535786
-0.0518491
-0.100308
0.0911064
0.00920149
0.0559927
-0.066842
0.0108493
-0.0157012
0.0260402
0.0795306
-0.110777
0.0312461
0.063059
0.00209334
-0.0651524
0.0832263
-0.0805275
-0.00269888
0.0896271
0.0113361
0.0645595
0.0120621
-0.0766217
0.00969804
-0.0428497
0.0331517
0.0975126
-0.0224506
-0.0750619
0.0338694
-0.0549369
0.0270914
0.0434879
0.0537074
-0.0949412
-0.0582125
0.0276368
-0.071402
0.00800993
0.0633921
0.0149879
0.00363565
-0.0186236
0.00803938
-0.0327818
0.0247424
0.0240991
-0.017916
0.0655161
0.0240599
-0.0895759
-0.00435294
0.0690947
-0.00826372
0.00641312
-0.0238783
-0.00231775
0.0261961
0.0621541
0.00240542
-0.0215785
0.0708705
0.0738895
-0.0428364
0.00522146
0.003144
-0.00836546
-0.0939396
0.00983869
0.0841009
-0.131223
0.118254
0.0129686
-0.0248923
0.00632179
0.00831634
-0.0321947
-0.0870361
0.0316149
0.0203432
-0.0655238
0.0462957
-0.0024064
-0.0379951
0.0890562
-0.0510611
0.0152664
0.0642641
-0.013759
0.0687956
-0.0112398
0.0649008
0.00350573
-0.00107151
-0.00243422
0.0662795
-0.0840509
0.0177714
-0.0523537
0.0795063
0.0300444
0.019169
-0.0492135
-0.0740445
0.0746317
0.0345289
0.0741977
-0.0587706
-0.0108338
0.0665143
-0.0558087
0.0568331
-0.0630565
0.00622335
-0.00570839
-0.0321645
0.0584
0.0290133
-0.0874133
0.0707746
0.00954843
-0.080323
0.0502235
0.00175294
0.04311
-0.0890274
0.0983835
-0.0397687
-0.0586148
0.0144693
0.0731616
0.0537955
0.0603478
-0.0837715
0.0123695
-0.0731677
0.00619942
0.0669683
-0.0117457
0.0443474
-0.0326017
-0.0261213
-0.037894
0.0640152
0.132873
-0.0802217
-0.0526511
-0.03698
-0.0679575
-0.0885376
0.0923679
-0.00383032
-0.0285648
-0.0805403
0.0247355
-0.00962402
0.0005877
-0.000467612
-0.000120088
-0.0689125
0.0599619
0.050849
-0.00442494
-0.016394
-0.0504522
0.0668462
0.0161459
0.00118502
-0.0205646
-0.0252572
0.0458218
-0.0842833
-0.00739131
0.0545164
0.0585349
0.0496606
0.0832122
0.0927357
-0.0339872
-0.0587486
0.0472002
-0.0553734
0.00817329
-0.0311308
-0.0489297
-0.0341014
0.0925014
0.0439283
-0.0342302
-0.0883866
-0.00434651
0.0927331
-0.121406
0.0945146
0.0268918
-0.0879727
0.0132666
0.0747062
0.113662
-0.00268672
0.116661
-0.0626242
-0.0540372
-0.0343247
-0.0348858
0.0692105
0.0985036
0.0181577
0.00606828
-0.0944549
-0.00308453
-0.0502212
0.127546
-0.0676064
-0.0599397
-0.0892569
-0.0127862
0.102043
0.14206
-0.0484429
-0.0936172
0.0258215
0.0122315
-0.038053
0.114813
-0.110072
-0.00474066
0.105235
-0.0344599
0.0218235
-0.00919194
0.0226299
-0.013438
0.018453
0.0383932
-0.0568462
0.0440639
0.0672645
-0.000774586
0.0102268
-0.00945221
-0.0728938
0.0828472
-0.00995345
0.0457505
-0.118644
0.106874
-0.0141383
0.00959378
-0.00437232
-0.0133331
-0.0378942
0.0512273
0.0904817
-0.0266947
-0.063787
-0.0244638
-0.0388362
0.0633
0.0640842
0.0600085
-0.0906385
0.0856813
0.00495713
-0.0264014
-0.0220135
0.0484149
-0.000190139
0.0260411
-0.025851
-0.0941894
-0.0184348
0.112624
-0.0189643
-0.00047982
-0.0974239
0.00888636
0.111732
-0.081089
-0.030643
-0.0944316
0.0564366
0.0196177
0.0586013
-0.00223183
0.0166289
-0.014397
-0.0191942
0.0162088
-0.12382
0.0592388
0.0645813
0.0607777
-0.0275015
-0.0332761
-0.0270748
0.0772078
-0.050133
0.0065372
-0.0119866
0.00544943
-0.0987587
0.086833
0.0119257
0.124638
-0.0126558
-0.111982
0.111743
-0.0462269
0.0863913
0.038247
-0.00510787
0.0116451
0.0381726
-0.027193
-0.0109796
-0.0727629
0.0194461
0.0533167
-0.0581522
-0.0677159
-0.00504698
0.0380596
-0.0519135
0.0138539
0.0635143
-0.00752158
-0.0175711
-0.0625997
0.0801708
0.0290665
0.00910602
-0.0837812
0.00329688
0.0804843
0.0384967
0.0346231
-0.0731198
0.0213816
-0.0481249
0.0267432
-0.0586904
-0.0627159
-0.0362282
-0.0723052
0.0257246
0.0126799
-0.0384045
0.0582107
0.0952928
0.0362778
-0.0282384
0.00404497
0.000294177
-0.00433915
-0.0975517
0.106801
-0.00924945
0.0639224
-0.0891712
0.0252488
-0.0626235
0.0282988
-0.00721519
-0.000442628
0.0208248
-0.111463
-0.0805454
0.0769828
0.00356265
3.03636e-05
0.000244676
-0.0831498
0.0667558
-7.61628e-05
-0.000207356
0.0657321
-0.0231863
-0.0425458
0.0309053
-0.042651
-0.0705553
-0.00104076
0.0715961
-0.00380173
-0.0246914
0.0284931
0.111713
-0.0297318
-0.0819808
-0.0583291
0.0996896
-0.0413605
0.0729899
-0.00959997
-0.0633899
-0.0657487
-0.00741897
0.0968363
-0.0446409
-0.0295871
0.00546941
-0.0136264
-0.0866815
-0.0477072
-0.0835154
-0.0657514
0.0290358
0.0367156
-0.0197622
0.0826456
-0.0628834
-0.0137341
0.0618542
-0.0481201
-0.0134562
-0.0807332
-0.0428647
0.0484386
-0.00557392
0.000678771
0.0373808
-0.0825501
-0.00704951
0.0895996
-0.000861282
0.056579
-0.0557177
0.0850195
-0.0120296
0.0255578
-0.0591455
0.0335877
-0.0155151
0.127247
0.0687494
-0.0431916
0.0906835
0.0155658
0.0119131
0.0713133
0.0755186
-0.0915407
0.0160221
0.01868
-0.0725064
0.0538264
-0.0482886
0.0883254
-0.0400368
0.0606066
0.0407141
-0.0353809
-0.0460924
0.0814733
-0.0163907
-0.0410633
0.057454
0.000213957
0.0566192
-0.00239716
-0.0480108
0.050408
0.0918967
0.00108316
-0.0501886
0.0237872
0.0644246
0.0165966
-0.0810213
0.0924725
-0.022322
-0.0701505
0.0385069
-0.0340308
-0.00447616
-0.142437
0.048666
0.0937711
0.00730299
-0.0591059
0.0518029
-0.0526318
-0.0053578
0.0579896
0.0128064
-0.0762335
0.063427
-0.0898074
0.0375461
0.0522613
0.0136544
0.00692503
-0.0205795
-0.112635
0.0288538
0.0934447
0.091191
-0.040149
-0.051042
0.0448715
-0.0612621
0.0245612
-0.0466435
-0.00877558
0.0554191
-0.0928514
0.0712687
0.0215826
-0.0408612
-0.0691507
-0.061622
0.0744285
-0.0162791
-0.0729778
-0.0129972
0.0388187
0.106826
-0.0582708
-0.0485551
-0.0816792
0.0477571
0.0339221
-0.0222941
0.0717128
-0.0554499
0.0431908
-0.00659041
-0.00983722
9.92475e-05
4.25691e-05
-0.000141817
0.0921805
-0.0653755
-0.026805
-0.00125815
-0.00223205
0.0034902
0.079433
-0.01619
-0.0632431
-0.0992027
-0.0246174
0.117424
-0.0634506
-0.0539734
0.112855
-0.0334216
0.0982325
-0.096653
-0.00157947
0.0583911
-0.0781533
-0.116817
0.0669457
0.0498717
0.0316964
0.066536
-0.098759
0.0825277
0.0162313
-0.0282661
-0.0522793
-0.0279989
0.0299523
-0.00195339
-0.0263874
0.033191
-0.00680358
-0.0154531
0.0145401
0.000912959
-0.0013786
-0.0406227
0.0420013
0.0059624
-0.00191743
-0.0437523
-0.0460551
-2.17884e-06
0.000589879
-0.0553492
0.0934061
-0.0380569
0.0383028
-0.0776627
0.03936
-0.0447619
0.04021
0.00455194
-0.0398687
0.0781715
-0.0207123
0.0846347
-0.0732875
0.0324487
0.0408388
-0.042682
0.0573283
-0.0146463
-0.0704854
0.0383497
0.0694586
-0.0153327
-0.0541259
0.0395246
0.0179016
-0.0574262
-0.041376
0.0399974
0.112374
-0.0148612
0.0430158
-0.0137151
-0.0293007
0.0713033
0.00613297
-0.0774363
-0.0613879
-0.0294022
0.0907901
-0.0601808
0.0135373
0.0283783
-0.03218
-0.0698698
-0.0725673
0.0230611
-0.0713497
-0.072267
0.0560087
0.0162583
-0.0219322
0.0433139
0.0969421
-0.057975
-0.038967
-5.70535e-05
0.0209705
-0.0209134
0.0971892
-0.0466731
-0.0505162
0.112907
-0.041613
-0.0712937
0.039464
0.0284873
-0.0679512
-0.022002
-0.02276
0.00990802
0.000741846
-0.0106499
0.0948935
0.0205966
0.0705136
-0.0911102
0.00523367
-0.0605828
-0.0223075
0.0784255
-0.056118
-0.0118775
0.0402315
0.10415
-0.023352
-0.0807981
-0.0582699
0.0403093
-0.0697415
-0.00199525
0.0717367
0.0599112
-0.0952921
-0.0387635
0.0368173
0.00194627
-0.0379008
0.0563538
-0.0232211
-0.0486869
0.071908
-0.0905669
0.0722948
0.0182721
0.0450187
0.0295887
-0.0746074
0.0464188
0.00711595
-0.0535347
-0.034323
0.00793557
0.0340796
0.00893624
0.0108048
-0.0199967
-0.0585983
0.0311805
0.0274178
0.0792779
-0.00532381
-0.073954
0.0272386
-0.0188115
-0.0655939
0.0728969
-0.0800611
0.125237
-0.045176
0.00164404
-0.0445088
0.00898887
-0.0890499
-0.0996381
0.0382502
0.0448388
-0.0039849
-0.0408539
-0.098759
-0.087673
0.070102
-0.000527386
-0.00115297
0.00168035
0.0457635
-0.0689846
0.0492559
-0.0192115
-0.00970567
-0.0481964
0.057902
0.0542762
-0.0765837
-0.0660758
0.0586963
0.00737944
-0.061662
0.067478
-0.0147835
0.0566489
-0.0418654
-0.0452935
-0.0133049
0.0876304
-0.0672713
-0.0542116
-0.0211481
0.0753597
0.0468033
0.060468
-0.107271
-0.0877104
0.0519921
0.0357184
0.02945
0.045855
-0.075305
-0.0385983
-0.0589533
0.054502
0.00257052
-0.0570726
0.0331974
0.0816152
0.0815869
-0.0420623
-0.0342717
-0.0314797
0.00560709
0.0133054
-0.0189125
0.00670542
-0.087818
0.0811126
-0.0442401
0.00350352
0.0407365
0.0889828
-0.091373
0.00239018
0.00398305
0.0289517
-0.0329348
0.0142972
-0.016529
0.0356919
-0.088946
0.0532541
0.0518629
0.0255734
-0.0774363
-0.0278693
-0.0889481
-0.00337986
0.0170343
0.0673987
-0.0845765
0.0171778
-0.0903863
-0.000773944
0.0911602
0.0430634
0.0270548
-0.0701182
-0.0514685
0.0496759
0.00179258
-0.013583
-0.0743897
0.0187536
-0.0168557
-0.00189792
0.0563368
-0.00991801
0.024361
-0.0183103
-0.00605074
0.0828265
-0.0197675
0.0204484
-0.0657716
0.0453232
-0.0681753
0.0155435
0.0984294
-0.0348777
-0.0635517
-0.0253239
0.0647879
-0.0571229
0.104411
-0.0472878
0.104313
0.00777186
-0.112085
-0.0663913
-0.00838369
0.074775
0.00879762
-0.0810646
0.100245
-0.0697258
-0.0305188
-0.0387125
0.0564731
-0.0177605
0.0985758
-0.0467129
-0.0589876
0.0795842
0.0362111
-0.0364542
0.0159022
-0.0837978
0.0678956
-0.0915091
0.0251178
0.0189234
-0.0191135
0.0739246
-0.00446593
0.0648224
-0.0346906
-0.0301318
-0.0273242
0.0157807
0.0115436
0.00915047
-0.00992505
-0.028273
-0.0542771
0.0951749
-0.0701353
-0.0250396
0.0116942
-0.0741668
0.0624726
-0.111011
0.0314888
0.0795221
0.0191131
0.0851998
0.0814378
-0.0140391
0.0193463
0.0551387
-0.074485
-0.130994
0.0605189
0.0704754
-0.0972198
-0.0337745
-0.042193
0.0700223
-0.0278293
0.00668746
-0.00667638
-1.10829e-05
-0.0756725
-0.0181973
0.0938698
-0.00520615
-0.0677864
0.0729925
0.0375826
-0.0269361
0.00528578
-0.0391346
0.0338488
0.039124
-0.039181
-0.116105
0.00509379
0.0914459
-0.0727659
0.0118523
-0.0204261
0.00857373
0.0837905
-0.00375211
-0.0800384
0.0393533
-0.0892686
0.0499153
-0.0351035
0.0827996
-0.047696
-0.125826
0.0533516
0.0724743
0.0372188
-0.031933
0.0424341
-0.118107
0.0349327
-0.0666023
0.0316696
-0.102762
0.0645801
0.0381824
0.0563757
-0.0430721
-0.0133036
0.104918
-0.0524425
-0.0524756
0.0053175
-0.0711202
0.0658027
-0.0268784
-0.00642318
0.0909697
0.0131804
0.0306753
-0.0628841
0.0322088
0.0851239
-0.0457706
-0.0305141
-0.0564428
0.0869569
-0.0381457
0.00548861
0.0326571
-0.0712005
-0.0546254
0.0781726
0.0187695
0.00553042
0.00114556
-0.00667597
-0.0774769
0.089171
-0.0695078
0.0256955
0.0438123
-0.0783849
0.0456188
0.0116572
0.0561402
-0.0677974
-0.0415699
-0.0445469
0.0861168
-0.0369845
0.0393891
-0.00240457
0.00683578
0.082147
-0.0515965
-0.0300827
-0.0598214
0.0392568
-0.0423699
-0.0563888
-0.0650373
0.00368745
0.0613498
0.012725
0.0794555
0.0356866
0.0567859
0.0286382
-0.0838757
0.0552375
0.0619654
0.0429526
-0.0138743
-0.0462697
0.060144
-0.0801247
0.0312823
0.0488424
-0.100042
0.0201343
0.0799081
-0.0940081
0.0190341
0.0749739
-0.0417112
-0.0524424
0.0941535
-0.00643049
0.00225823
-0.00691871
-0.029639
-0.0783172
0.0542699
0.0240473
-0.00208314
0.0565852
0.113946
-0.103494
-0.0104523
-0.0473718
0.07601
0.0343672
-0.0163042
-0.00498977
0.0317598
-0.0267701
-0.0311584
0.0985131
-0.0673546
0.00183507
-0.00236246
0.0611369
-0.0696278
0.00849091
-0.0966345
0.0639257
0.0327088
-0.0732479
-0.0234782
0.0967261
0.0101161
-0.0488287
-0.0686919
-0.00962523
0.0454125
-0.0765709
-0.00013028
-0.000353578
-0.00703462
0.0403414
-0.0333068
0.097302
-0.0678519
-0.0606739
-0.0420886
0.0700554
-0.0943049
0.0242495
0.00510676
-0.00738934
0.00228259
-0.0499443
-0.0377661
-0.0183553
-0.0264781
0.0448334
0.0477502
-0.0951511
0.0474009
-0.0316041
0.0665368
-0.0733073
0.0849646
-0.0235843
-0.0037399
-0.0411633
0.0889136
-0.0779454
0.0129081
0.074383
-0.0652762
-0.00910681
-0.0466831
0.0312841
0.0153991
-0.0811689
0.097071
-0.00789528
0.0637032
-0.0558079
0.0949098
0.0179969
0.0152504
-0.00534239
-0.0430741
0.0794295
-0.0363554
0.0993466
-0.0344963
-0.0648503
0.0477069
0.00866884
0.0174022
0.04833
-0.0396199
-0.0570146
0.0200921
-0.09334
-0.0505936
0.0322383
0.0353227
0.107339
-0.0101498
0.00196514
0.0463055
-0.0482706
0.0704784
-0.0440023
-0.0264761
0.00087095
-0.043553
0.00497976
0.00964117
-0.0146209
-0.00973757
0.00382048
0.0059171
-0.0666206
0.0642234
0.0517396
-0.0596349
-0.0477744
-0.0507601
0.00854028
0.0196111
-0.0281514
0.0567896
-0.0261143
-0.0882983
0.07269
0.0156083
-0.104601
0.0694976
-0.0207837
-0.0558895
0.0766732
-0.0596328
-0.0451998
-0.0918066
0.00393936
0.0878672
0.090948
0.0083986
-0.0517053
0.0584107
-0.0361764
0.00520726
0.0309692
-0.116212
0.0678871
0.0483244
0.113521
-0.0380805
-0.0754404
-0.0562136
0.0119735
0.0760523
-0.0760523
0.0635503
-0.0940644
0.0322076
-0.0172197
-0.0458201
0.0344405
0.0113796
-0.0798954
0.0790342
0.0050119
-0.0747534
-0.00761205
0.0133004
-0.00568832
-0.0918019
0.0673381
0.00319026
0.000315474
0.0779445
-0.010903
-0.0670414
0.08844
0.00998939
0.0687991
-0.0146524
-0.0541468
-0.0951211
0.0379982
-0.0849607
0.035376
0.0495847
-0.017194
-0.028626
0.072646
-0.113929
0.0412831
-0.00865106
-0.0564128
0.0650639
0.0868493
-0.0769827
-0.0098666
0.0994405
-0.0943598
-0.00508073
-0.0262075
-0.00238161
0.0285892
0.0632662
-0.074193
0.0109268
0.015269
-0.0573133
0.0420443
0.0483383
0.0651827
9.83024e-05
0.00658916
-0.0253413
0.00280089
0.0225404
0.0855471
-0.0387438
-0.0886393
0.0893511
-0.000711846
0.0637853
-0.104797
0.0410121
0.0767786
0.0336937
-0.110472
0.00761341
0.076207
-0.0838204
-0.105561
0.0847773
0.0921637
-0.0337561
-0.0584075
0.0932047
-0.0243837
-0.068821
-0.058111
-0.0314459
0.0895569
0.0326151
0.0591933
-0.0918084
-0.00543977
-0.0706817
0.0761215
0.0863256
0.00205486
-0.0883804
0.132906
-0.0520161
-0.0808897
-0.0619056
0.102074
-0.0401681
-0.131461
0.0739359
0.0575253
-0.102932
0.0265667
0.0763656
0.0813725
-0.0788459
-0.00252662
-0.0690213
0.0638151
0.0232326
-0.0775612
0.0543286
-0.00508003
0.077726
0.000197163
-0.0250999
0.0249027
-0.0352947
0.112073
0.0389961
0.0355947
-0.0745909
-0.0869378
-0.016096
0.103034
0.041882
0.0188957
0.0833367
-0.0646884
-0.0186482
0.132808
-0.0273306
-0.105477
-0.0675606
0.0341745
0.033386
0.0473593
-0.047102
-0.00025728
0.104984
-0.0330996
-0.0718845
-0.029811
0.10203
-0.0722188
-0.0337791
-0.0500545
0.0838336
0.0776315
-0.033789
0.0171588
0.00992691
-0.0270857
0.00802244
0.000827118
-0.00884956
0.0466884
0.000327494
-0.0883758
0.017854
0.0705218
0.0680913
-0.094464
0.0263727
0.0452345
-0.000650548
-0.044584
-0.0260776
0.0431275
-0.0170498
0.0926623
0.0075823
0.0806396
-0.0449477
0.0920429
-0.0446572
-0.0473857
-0.0159727
-0.0234061
0.0393788
0.115472
-0.0594001
-0.0560718
0.0143799
0.0674866
-0.0818665
0.0352967
0.0295361
-0.0648328
-0.125421
0.0523245
0.0730966
0.0611062
0.0301457
-0.0912519
-0.0913769
0.0338301
0.0575468
-0.00366611
0.00366611
-0.0113586
0.116343
0.000578139
-0.000468056
-0.000110083
0.0289066
0.0573511
-0.0862577
0.0599427
-0.0323489
-0.0275938
-0.0906636
0.0367872
0.0538764
-0.053097
-0.0464975
0.0995945
-0.0517371
0.0545573
-0.00282023
-0.00625037
-0.0619044
0.0681547
0.0142147
0.0668533
-0.0810679
-0.0501167
0.0578291
-0.0077124
0.00460815
0.0227414
-0.0273495
-0.0514294
0.0901092
-0.0386798
0.00919581
-0.0338594
-0.111816
0.0488473
0.0629689
-0.00492099
0.0790849
-0.0741639
0.102762
0.00108249
-0.103844
0.000649977
0.00730475
-0.00795473
0.0182511
0.0459767
-0.0642278
0.0489211
-0.0575721
-0.0223207
0.0923761
0.0292394
-0.0529447
0.0237052
-0.0508322
-0.0167284
-0.0292132
-0.0537242
0.0829374
0.0828098
-0.0729118
-0.00989802
0.0265086
-0.0439986
0.01749
0.0611707
0.0415908
0.0378149
0.0498424
-0.0876573
-0.103915
0.028882
0.0750334
-0.0498926
-0.0528946
0.102787
-0.0203379
0.0632052
-0.0428674
-0.000472069
0.0528241
-0.052352
0.096966
-0.0509968
-0.0459692
0.0235037
-0.0734918
0.0499881
0.112821
-0.0533896
-0.0594316
0.0804028
-0.0171367
0.0830301
-0.0313313
-0.0516988
-0.110331
0.0439183
0.0664123
0.0526434
-0.102325
0.0496812
-0.0188479
0.00281628
0.0160316
0.0843188
-0.00637436
-0.00859079
-0.0149442
0.023535
0.0768448
-0.099592
0.0227473
0.0595715
0.0244803
-0.0840518
-0.00986113
0.0275207
-0.0176596
0.0106767
-0.0521932
0.0415165
-0.135318
0.0783909
0.0569266
0.0728648
-0.0951564
0.0222916
0.0640589
-0.0203317
-0.0437272
0.0481792
-0.0193817
-0.0287976
-0.0565935
0.00366009
0.0529334
-0.0909422
0.0772987
0.0136435
-0.107501
0.0404699
-0.0831507
0.0512491
0.0319016
-0.0725411
0.0652502
0.00729096
0.0187689
0.00788944
-0.0266584
0.000262766
0.0459873
-0.0462501
0.129128
-0.0755612
-0.0535666
0.0680345
-0.0530251
-0.0150094
0.0049297
-0.0231886
0.018259
-0.00738968
0.0997127
-0.092323
-0.0690385
0.0310817
0.0379567
-0.0263244
-0.0444749
0.0707993
-0.0709428
-0.018369
0.0893118
-0.0343705
0.00494457
0.0773036
-0.100243
0.022939
0.0931402
-0.0643396
-0.0288006
-0.0821699
0.0887021
-0.00653218
-0.127669
0.0657706
0.061898
0.0128059
-0.0129179
0.000111975
0.0302974
-0.0245962
-0.00570127
0.0419703
-0.0638069
0.0218366
0.0978151
-0.0791745
-0.0186407
-0.00874483
-0.0553229
0.0640678
0.068615
0.031385
0.0309573
0.00369779
-0.0346551
0.0224605
0.0634032
-0.0858637
0.0375003
-0.0311154
-0.00638488
0.0394334
0.00243785
-0.0418712
0.0860237
0.0267975
0.108891
-0.115961
0.00706964
-0.0710929
-0.000620633
0.0717136
0.0993464
-0.0109484
-0.088398
-0.0459719
0.0128462
0.0331257
0.013552
0.0953392
0.0567124
0.00400182
-0.0607142
0.102836
0.00627685
-0.109113
0.0808388
0.0137894
-0.0946283
0.0479074
0.0244526
-0.07236
0.0397848
0.0284086
-0.0681935
0.00482136
0.0980147
0.0905618
-0.00339067
-0.0871712
0.0901258
0.00922065
-0.0738448
0.029088
0.0447568
0.0420867
-0.045585
0.0034983
-0.0374829
0.0341136
0.00336921
0.0645679
-0.0355247
-0.0290432
-0.00854792
-0.00152483
0.0100728
0.0426195
0.0222029
-0.0600232
0.0400919
0.0199313
-0.036033
0.0699993
-0.0339663
0.0267307
0.0170088
-0.0437396
-0.106231
0.106902
-0.000671153
-0.0521482
0.0191641
0.0329841
-0.0156297
-0.0626845
0.0783142
0.0381287
-0.0634173
0.0252885
0.0391211
-0.0341953
-0.00492579
0.0997616
-0.107422
0.00766073
0.0216662
-0.0226943
0.00102806
-0.0166004
-0.0640917
0.0806921
0.0405516
-0.0838568
0.0433052
0.040554
-0.0175593
-0.0229946
0.0319941
-0.0458684
0.0568436
-0.0885948
0.0317512
0.118271
-0.017988
-0.100283
-0.114059
0.0129562
0.0389509