/*--------------------------------*- C++ -*----------------------------------*\
  =========                 |
  \\      /  F ield         | OpenFOAM: The Open Source CFD Toolbox
   \\    /   O peration     | Website:  https://openfoam.org
    \\  /    A nd           | Version:  9
     \\/     M anipulation  |
\*---------------------------------------------------------------------------*/
FoamFile
{
    format      ascii;
    class       surfaceScalarField;
    location    "50";
    object      phi;
}
// * * * * * * * * * * * * * * * * * * * * * * * * * * * * * * * * * * * * * //

dimensions      [0 3 -1 0 0 0 0];

internalField   nonuniform List<scalar> 
24170
(
3.12886e-06
5.95452e-08
3.04612e-06
8.27501e-08
2.97242e-06
7.36975e-08
2.90295e-06
6.94611e-08
2.83749e-06
6.54748e-08
2.77875e-06
5.87338e-08
2.72781e-06
5.09515e-08
2.6839e-06
4.3899e-08
2.64587e-06
3.80381e-08
2.61262e-06
3.32396e-08
2.58313e-06
2.94987e-08
2.55636e-06
2.67667e-08
2.5314e-06
2.49629e-08
2.50725e-06
2.41521e-08
2.48283e-06
2.44189e-08
2.45542e-06
2.73906e-08
2.4232e-06
3.21852e-08
5.60108e-08
2.36715e-06
3.45302e-06
2.37777e-08
3.45685e-06
7.89334e-08
3.45013e-06
8.0429e-08
3.43823e-06
8.13681e-08
3.42286e-06
8.08588e-08
3.40485e-06
7.67596e-08
3.38463e-06
7.11834e-08
3.36281e-06
6.5733e-08
3.34009e-06
6.07725e-08
3.31703e-06
5.63063e-08
3.29409e-06
5.24602e-08
3.27143e-06
4.94418e-08
3.24913e-06
4.7268e-08
3.2271e-06
4.61931e-08
3.20535e-06
4.61884e-08
3.18347e-06
4.92672e-08
3.16214e-06
5.34906e-08
7.22568e-08
3.14589e-06
3.6681e-06
1.8191e-08
3.67893e-06
6.81057e-08
3.68479e-06
7.45684e-08
3.6883e-06
7.78424e-08
3.68924e-06
7.99256e-08
3.68746e-06
7.85446e-08
3.68329e-06
7.53482e-08
3.67717e-06
7.18452e-08
3.66948e-06
6.84681e-08
3.66049e-06
6.52902e-08
3.65043e-06
6.25159e-08
3.63946e-06
6.04089e-08
3.62766e-06
5.90735e-08
3.61503e-06
5.88204e-08
3.60148e-06
5.97305e-08
3.58738e-06
6.33637e-08
3.57198e-06
6.8866e-08
8.24921e-08
3.56175e-06
3.92577e-06
1.78113e-08
3.93557e-06
5.83195e-08
3.9418e-06
6.83444e-08
3.94676e-06
7.2899e-08
3.95044e-06
7.62524e-08
3.95247e-06
7.65241e-08
3.953e-06
7.48257e-08
3.95227e-06
7.25852e-08
3.95045e-06
7.03037e-08
3.94763e-06
6.81184e-08
3.94391e-06
6.62522e-08
3.93933e-06
6.49999e-08
3.9339e-06
6.45088e-08
3.92764e-06
6.50837e-08
3.92049e-06
6.68929e-08
3.9129e-06
7.09452e-08
3.90461e-06
7.71467e-08
8.78704e-08
3.89923e-06
4.20808e-06
1.68543e-08
4.21559e-06
5.08109e-08
4.22084e-06
6.30943e-08
4.2253e-06
6.84266e-08
4.22926e-06
7.23029e-08
4.23222e-06
7.35595e-08
4.23416e-06
7.28871e-08
4.23519e-06
7.155e-08
4.23539e-06
7.00974e-08
4.2348e-06
6.8702e-08
4.23346e-06
6.75939e-08
4.23141e-06
6.70561e-08
4.22865e-06
6.72703e-08
4.22523e-06
6.85022e-08
4.22117e-06
7.09472e-08
4.21689e-06
7.52221e-08
4.2126e-06
8.14218e-08
8.99823e-08
4.2105e-06
4.51058e-06
1.53589e-08
4.51647e-06
4.49405e-08
4.52122e-06
5.83486e-08
4.52535e-06
6.4303e-08
4.52921e-06
6.84585e-08
4.53238e-06
7.03938e-08
4.53475e-06
7.05199e-08
4.5364e-06
6.99118e-08
4.53737e-06
6.91377e-08
4.53766e-06
6.84155e-08
4.5373e-06
6.79615e-08
4.53632e-06
6.80412e-08
4.53475e-06
6.88425e-08
4.53267e-06
7.05869e-08
4.53017e-06
7.3446e-08
4.52762e-06
7.77724e-08
4.52544e-06
8.35904e-08
9.06772e-08
4.52473e-06
4.83421e-06
1.38726e-08
4.83919e-06
3.99569e-08
4.84378e-06
5.37509e-08
4.84777e-06
6.03085e-08
4.8515e-06
6.47378e-08
4.85468e-06
6.72061e-08
4.8572e-06
6.80002e-08
4.85909e-06
6.80216e-08
4.86039e-06
6.78413e-08
4.86109e-06
6.77103e-08
4.86122e-06
6.78345e-08
4.86081e-06
6.84514e-08
4.85991e-06
6.97403e-08
4.85862e-06
7.1876e-08
4.85708e-06
7.49861e-08
4.85561e-06
7.92428e-08
4.85458e-06
8.45943e-08
9.07083e-08
4.85458e-06
5.18092e-06
1.25325e-08
5.18529e-06
3.55957e-08
5.18975e-06
4.93011e-08
5.19367e-06
5.64005e-08
5.1973e-06
6.11175e-08
5.20048e-06
6.40273e-08
5.20309e-06
6.54059e-08
5.20511e-06
6.59991e-08
5.2066e-06
6.63602e-08
5.20756e-06
6.67566e-08
5.20801e-06
6.73933e-08
5.20799e-06
6.84745e-08
5.20757e-06
7.01645e-08
5.20686e-06
7.25872e-08
5.20602e-06
7.58277e-08
5.20531e-06
7.99424e-08
5.20506e-06
8.48512e-08
9.01516e-08
5.20562e-06
5.55256e-06
1.13091e-08
5.55642e-06
3.17374e-08
5.56067e-06
4.5046e-08
5.56453e-06
5.25467e-08
5.56811e-06
5.7539e-08
5.57132e-06
6.08232e-08
5.57401e-06
6.2716e-08
5.57616e-06
6.38445e-08
5.57782e-06
6.47097e-08
5.57899e-06
6.55851e-08
5.57971e-06
6.66714e-08
5.58004e-06
6.81528e-08
5.58004e-06
7.01661e-08
5.57983e-06
7.27939e-08
5.57958e-06
7.60787e-08
5.57951e-06
8.00135e-08
5.57987e-06
8.4483e-08
8.91499e-08
5.58091e-06
5.95091e-06
1.01801e-08
5.95432e-06
2.83374e-08
5.95833e-06
4.10398e-08
5.96212e-06
4.87731e-08
5.96568e-06
5.39934e-08
5.96892e-06
5.7588e-08
5.97172e-06
5.99301e-08
5.97402e-06
6.15556e-08
5.97585e-06
6.28861e-08
5.97725e-06
6.41884e-08
5.97826e-06
6.56621e-08
5.97894e-06
6.74808e-08
5.97936e-06
6.97464e-08
5.97965e-06
7.25114e-08
5.97994e-06
7.57774e-08
5.98045e-06
7.95041e-08
5.98136e-06
8.3582e-08
8.76956e-08
5.98283e-06
6.37785e-06
9.14256e-09
6.38088e-06
2.53108e-08
6.38466e-06
3.72653e-08
6.38837e-06
4.50658e-08
6.39192e-06
5.04537e-08
6.39522e-06
5.42968e-08
6.39813e-06
5.70239e-08
6.4006e-06
5.9092e-08
6.40264e-06
6.08465e-08
6.40431e-06
6.25244e-08
6.40564e-06
6.43307e-08
6.4067e-06
6.64158e-08
6.40757e-06
6.88779e-08
6.40836e-06
7.17136e-08
6.40921e-06
7.49213e-08
6.41028e-06
7.84284e-08
6.41172e-06
8.2133e-08
8.58117e-08
6.41364e-06
5.74165e-06
8.32775e-09
5.74395e-06
2.30138e-08
5.74697e-06
3.42557e-08
5.75006e-06
4.19829e-08
5.75306e-06
4.74647e-08
5.75588e-06
5.1477e-08
5.75844e-06
5.44691e-08
5.76069e-06
5.6849e-08
5.76262e-06
5.89158e-08
5.76427e-06
6.08793e-08
5.76567e-06
6.29196e-08
5.76689e-06
6.52062e-08
5.76799e-06
6.77588e-08
5.76908e-06
7.06313e-08
5.77025e-06
7.37429e-08
5.7716e-06
7.70703e-08
5.77325e-06
8.04958e-08
8.38381e-08
5.77524e-06
6.99902e-06
7.4664e-09
7.00145e-06
2.05916e-08
7.00472e-06
3.09867e-08
7.00819e-06
3.85199e-08
7.01163e-06
4.40267e-08
7.01495e-06
4.81692e-08
7.01802e-06
5.13963e-08
7.02079e-06
5.40796e-08
7.02326e-06
5.64508e-08
7.02544e-06
5.86814e-08
7.02742e-06
6.09627e-08
7.02922e-06
6.3388e-08
7.03095e-06
6.6045e-08
7.03268e-06
6.88854e-08
7.03454e-06
7.19026e-08
7.0366e-06
7.50014e-08
7.03899e-06
7.81334e-08
8.11163e-08
7.04172e-06
8.53175e-06
6.56416e-09
8.53429e-06
1.80472e-08
8.53781e-06
2.74785e-08
8.54169e-06
3.4639e-08
8.54564e-06
4.00824e-08
8.54953e-06
4.42836e-08
8.55323e-06
4.76949e-08
8.55668e-06
5.06277e-08
8.55985e-06
5.32735e-08
8.56279e-06
5.5753e-08
8.56554e-06
5.82151e-08
8.56819e-06
6.0764e-08
8.57078e-06
6.34502e-08
8.57344e-06
6.62446e-08
8.57623e-06
6.91079e-08
8.57928e-06
7.19725e-08
8.58263e-06
7.47787e-08
7.74016e-08
8.58639e-06
1.04002e-05
5.62914e-09
1.04028e-05
1.53838e-08
1.04066e-05
2.37072e-08
1.04109e-05
3.02997e-08
1.04155e-05
3.55225e-08
1.04201e-05
3.97124e-08
1.04246e-05
4.31992e-08
1.04289e-05
4.63026e-08
1.0433e-05
4.91406e-08
1.0437e-05
5.18167e-08
1.04408e-05
5.43962e-08
1.04446e-05
5.70119e-08
1.04484e-05
5.96545e-08
1.04523e-05
6.2358e-08
1.04564e-05
6.50231e-08
1.04607e-05
6.7635e-08
1.04654e-05
7.01077e-08
7.23747e-08
1.04704e-05
1.26778e-05
4.63664e-09
1.26806e-05
1.25583e-08
1.26847e-05
1.96189e-08
1.26896e-05
2.54085e-08
1.26949e-05
3.02134e-08
1.27004e-05
3.42284e-08
1.27059e-05
3.76797e-08
1.27114e-05
4.08006e-08
1.27169e-05
4.37311e-08
1.27222e-05
4.6486e-08
1.27275e-05
4.91311e-08
1.27328e-05
5.1702e-08
1.27383e-05
5.42714e-08
1.27438e-05
5.67927e-08
1.27496e-05
5.92552e-08
1.27556e-05
6.1574e-08
1.2762e-05
6.37432e-08
6.56534e-08
1.27687e-05
1.54543e-05
3.55305e-09
1.54574e-05
9.47768e-09
1.5462e-05
1.50214e-08
1.54676e-05
1.97662e-08
1.5474e-05
2.38856e-08
1.54807e-05
2.75133e-08
1.54876e-05
3.07463e-08
1.54947e-05
3.37323e-08
1.55019e-05
3.65801e-08
1.55091e-05
3.92982e-08
1.55163e-05
4.1887e-08
1.55237e-05
4.43665e-08
1.55312e-05
4.67701e-08
1.55389e-05
4.90899e-08
1.55469e-05
5.12974e-08
1.55551e-05
5.3341e-08
1.55636e-05
5.51982e-08
5.68197e-08
1.55724e-05
1.88389e-05
2.30447e-09
1.88425e-05
5.90905e-09
1.88479e-05
9.58434e-09
1.88548e-05
1.29549e-08
1.88626e-05
1.60843e-08
1.88711e-05
1.90401e-08
1.888e-05
2.18383e-08
1.88892e-05
2.4508e-08
1.88987e-05
2.71011e-08
1.89084e-05
2.9617e-08
1.89182e-05
3.20402e-08
1.89283e-05
3.43553e-08
1.89385e-05
3.65653e-08
1.89489e-05
3.86568e-08
1.89596e-05
4.06106e-08
1.89706e-05
4.23982e-08
1.89817e-05
4.39991e-08
4.5395e-08
1.89932e-05
2.2965e-05
6.95582e-10
2.29694e-05
1.43744e-09
2.29763e-05
2.69044e-09
2.29851e-05
4.22389e-09
2.29952e-05
5.9933e-09
2.30063e-05
7.95964e-09
2.3018e-05
1.00721e-08
2.30303e-05
1.22481e-08
2.3043e-05
1.44357e-08
2.3056e-05
1.66216e-08
2.30692e-05
1.8792e-08
2.30827e-05
2.09035e-08
2.30964e-05
2.29177e-08
2.31102e-05
2.47987e-08
2.31243e-05
2.65319e-08
2.31386e-05
2.81071e-08
2.3153e-05
2.95147e-08
3.07627e-08
2.31677e-05
1.6812e-05
-6.31073e-10
1.68157e-05
-2.21178e-09
1.68213e-05
-2.94549e-09
1.68284e-05
-2.8881e-09
1.68366e-05
-2.16792e-09
1.68455e-05
-9.37482e-10
1.68549e-05
6.58042e-10
1.68647e-05
2.48699e-09
1.68747e-05
4.39884e-09
1.6885e-05
6.38128e-09
1.68954e-05
8.37664e-09
1.6906e-05
1.0377e-08
1.69166e-05
1.22773e-08
1.69274e-05
1.40745e-08
1.69382e-05
1.57115e-08
1.69491e-05
1.72218e-08
1.696e-05
1.85711e-08
1.98054e-08
1.6971e-05
1.46359e-05
-1.92603e-09
1.46395e-05
-5.83014e-09
1.46451e-05
-8.53518e-09
1.4652e-05
-9.83389e-09
1.46599e-05
-9.98718e-09
1.46683e-05
-9.37635e-09
1.46772e-05
-8.19446e-09
1.46863e-05
-6.64898e-09
1.46956e-05
-4.91001e-09
1.4705e-05
-3.06657e-09
1.47146e-05
-1.14356e-09
1.47242e-05
7.77563e-10
1.47338e-05
2.64082e-09
1.47435e-05
4.38164e-09
1.47532e-05
6.00168e-09
1.4763e-05
7.48528e-09
1.47727e-05
8.84453e-09
1.00852e-08
1.47824e-05
1.27414e-05
-3.14678e-09
1.2745e-05
-9.48564e-09
1.27507e-05
-1.42441e-08
1.27576e-05
-1.66775e-08
1.27651e-05
-1.74794e-08
1.2773e-05
-1.73464e-08
1.27813e-05
-1.64853e-08
1.27898e-05
-1.5119e-08
1.27984e-05
-1.34774e-08
1.2807e-05
-1.16766e-08
1.28156e-05
-9.77617e-09
1.28243e-05
-7.86298e-09
1.28329e-05
-6.00793e-09
1.28416e-05
-4.26515e-09
1.28502e-05
-2.63555e-09
1.28588e-05
-1.12555e-09
1.28674e-05
2.67701e-10
1.55785e-09
1.28759e-05
1.1092e-05
-4.19179e-09
1.10957e-05
-1.32028e-08
1.11016e-05
-2.01912e-08
1.11084e-05
-2.34554e-08
1.11156e-05
-2.46646e-08
1.11231e-05
-2.48634e-08
1.11308e-05
-2.41822e-08
1.11386e-05
-2.28783e-08
1.11464e-05
-2.12547e-08
1.11542e-05
-1.9445e-08
1.11619e-05
-1.75247e-08
1.11696e-05
-1.55801e-08
1.11773e-05
-1.37036e-08
1.1185e-05
-1.19273e-08
1.11926e-05
-1.0267e-08
1.12002e-05
-8.7101e-09
1.12077e-05
-7.26867e-09
-5.92099e-09
1.12152e-05
9.65601e-06
-4.9887e-09
9.65991e-06
-1.70955e-08
9.666e-06
-2.62784e-08
9.67254e-06
-2.99925e-08
9.67943e-06
-3.15481e-08
9.68656e-06
-3.19992e-08
9.69371e-06
-3.13287e-08
9.70079e-06
-2.99542e-08
9.70781e-06
-2.827e-08
9.71477e-06
-2.64073e-08
9.72168e-06
-2.44243e-08
9.72852e-06
-2.24207e-08
9.73531e-06
-2.04869e-08
9.74204e-06
-1.8659e-08
9.74871e-06
-1.6944e-08
9.75533e-06
-1.53299e-08
9.76188e-06
-1.38251e-08
-1.24069e-08
9.76837e-06
8.40548e-06
-5.11704e-09
8.41025e-06
-2.18618e-08
8.41618e-06
-3.22066e-08
8.42214e-06
-3.59453e-08
8.42866e-06
-3.80692e-08
8.43546e-06
-3.87957e-08
8.44217e-06
-3.80277e-08
8.4487e-06
-3.64859e-08
8.4551e-06
-3.46657e-08
8.46136e-06
-3.26735e-08
8.4675e-06
-3.05612e-08
8.47352e-06
-2.8429e-08
8.47942e-06
-2.63791e-08
8.48521e-06
-2.44506e-08
8.49091e-06
-2.26411e-08
8.49652e-06
-2.09422e-08
8.50204e-06
-1.93461e-08
-1.78433e-08
8.50748e-06
7.31468e-06
-2.51394e-09
7.32171e-06
-2.88816e-08
7.3279e-06
-3.8401e-08
7.3337e-06
-4.17445e-08
7.34013e-06
-4.44878e-08
7.34666e-06
-4.53247e-08
7.35292e-06
-4.42895e-08
7.3589e-06
-4.24671e-08
7.36464e-06
-4.03972e-08
7.37012e-06
-3.81552e-08
7.37536e-06
-3.57978e-08
7.38037e-06
-3.34338e-08
7.38518e-06
-3.11775e-08
7.3898e-06
-2.90687e-08
7.39426e-06
-2.71032e-08
7.39859e-06
-2.52602e-08
7.40278e-06
-2.35433e-08
-2.19237e-08
7.40687e-06
6.36261e-06
4.93883e-09
6.37234e-06
-3.86042e-08
6.38028e-06
-4.63347e-08
6.38765e-06
-4.91045e-08
6.39483e-06
-5.1678e-08
6.40121e-06
-5.1696e-08
6.4067e-06
-4.97851e-08
6.41153e-06
-4.72901e-08
6.41582e-06
-4.46859e-08
6.41964e-06
-4.19759e-08
6.42306e-06
-3.92031e-08
6.42611e-06
-3.64909e-08
6.42887e-06
-3.39297e-08
6.43138e-06
-3.15699e-08
6.43367e-06
-2.93949e-08
6.4358e-06
-2.73789e-08
6.43779e-06
-2.55272e-08
-2.37773e-08
6.43965e-06
5.54132e-06
9.08395e-09
5.5507e-06
-4.79844e-08
5.5591e-06
-5.47204e-08
5.56737e-06
-5.73652e-08
5.57454e-06
-5.885e-08
5.57972e-06
-5.68859e-08
5.58299e-06
-5.30472e-08
5.5847e-06
-4.89991e-08
5.58521e-06
-4.51987e-08
5.58482e-06
-4.15724e-08
5.58374e-06
-3.81215e-08
5.58217e-06
-3.49171e-08
5.58024e-06
-3.20018e-08
5.57807e-06
-2.93916e-08
5.57574e-06
-2.70543e-08
5.57332e-06
-2.49611e-08
5.57091e-06
-2.31023e-08
-2.14093e-08
5.56855e-06
4.86001e-06
-2.33136e-08
4.86553e-06
-5.35056e-08
4.86566e-06
-5.48433e-08
4.863e-06
-5.46947e-08
4.85835e-06
-5.41963e-08
4.85151e-06
-5.00492e-08
4.84264e-06
-4.41772e-08
4.83221e-06
-3.85696e-08
4.82072e-06
-3.37051e-08
4.80865e-06
-2.94981e-08
4.7964e-06
-2.58645e-08
4.78424e-06
-2.27504e-08
4.77235e-06
-2.0105e-08
4.76083e-06
-1.78731e-08
4.74978e-06
-1.59961e-08
4.73925e-06
-1.44252e-08
4.72936e-06
-1.32007e-08
-1.28466e-08
4.72082e-06
4.17936e-06
4.12586e-06
4.07102e-06
4.01632e-06
3.96212e-06
3.91208e-06
3.8679e-06
3.82933e-06
3.79562e-06
3.76613e-06
3.74026e-06
3.71751e-06
3.69741e-06
3.67954e-06
3.66354e-06
3.64912e-06
3.63592e-06
3.62308e-06
1.02197e-07
-1.02477e-07
2.4336e-07
-1.41545e-07
3.84401e-07
-1.4128e-07
5.14215e-07
-1.30228e-07
6.25043e-07
-1.11003e-07
7.09276e-07
-8.46534e-08
7.66167e-07
-5.69901e-08
7.9119e-07
-2.53869e-08
7.81609e-07
9.49576e-09
7.34245e-07
4.72197e-08
6.69634e-07
6.45771e-08
6.05977e-07
6.35997e-08
5.50085e-07
5.58122e-08
5.0201e-07
4.77861e-08
4.54328e-07
4.74407e-08
4.07088e-07
4.6634e-08
3.54061e-07
5.26397e-08
2.86346e-07
6.71734e-08
1.99061e-07
8.68842e-08
8.9981e-08
1.09107e-07
-4.42905e-08
1.34123e-07
-2.05081e-07
1.61335e-07
-3.90183e-07
1.8512e-07
-5.93473e-07
2.03786e-07
-8.10831e-07
2.17436e-07
-1.03704e-06
2.26433e-07
-1.26813e-06
2.31127e-07
-1.5002e-06
2.32015e-07
-1.72983e-06
2.29685e-07
-1.9548e-06
2.24737e-07
-2.17249e-06
2.17831e-07
-2.38235e-06
2.09577e-07
-2.58265e-06
2.00521e-07
-2.77398e-06
1.91052e-07
-2.95516e-06
1.81536e-07
-3.12756e-06
1.72159e-07
-3.29029e-06
1.63144e-07
-3.44508e-06
1.54524e-07
-3.59107e-06
1.46422e-07
-3.73015e-06
1.38769e-07
-3.86137e-06
1.31632e-07
-3.98659e-06
1.24888e-07
-4.10476e-06
1.18578e-07
-4.21761e-06
1.12545e-07
-4.32395e-06
1.06822e-07
-4.42544e-06
1.01232e-07
-4.52078e-06
9.58175e-08
-4.61143e-06
9.03979e-08
-4.69594e-06
8.50115e-08
-4.77577e-06
7.94839e-08
-4.84924e-06
7.38979e-08
-4.91778e-06
6.80509e-08
-4.97949e-06
6.20322e-08
-5.03565e-06
5.56591e-08
-5.08425e-06
4.90443e-08
-5.1267e-06
4.19621e-08
-5.16085e-06
3.45647e-08
-5.18799e-06
2.66645e-08
-5.20598e-06
1.85505e-08
-5.21661e-06
1.01975e-08
-5.21845e-06
2.36043e-09
-5.21382e-06
-4.93354e-09
-5.20121e-06
-1.18984e-08
-5.18228e-06
-1.90488e-08
-5.15555e-06
-2.59603e-08
-5.1225e-06
-3.31256e-08
-5.08128e-06
-4.05387e-08
-5.03335e-06
-4.80497e-08
-4.97761e-06
-5.51877e-08
-4.91526e-06
-6.25193e-08
-4.84475e-06
-7.00571e-08
-4.76768e-06
-7.72185e-08
-4.68362e-06
-8.36935e-08
-4.59392e-06
-8.97595e-08
-4.49828e-06
-9.53214e-08
-4.39606e-06
-1.02107e-07
-4.28809e-06
-1.07705e-07
-4.17536e-06
-1.12455e-07
-4.05827e-06
-1.16856e-07
-3.9371e-06
-1.20675e-07
-3.81212e-06
-1.24709e-07
-3.68412e-06
-1.27313e-07
-3.55425e-06
-1.29692e-07
-3.42196e-06
-1.3134e-07
-3.28902e-06
-1.32628e-07
-3.15476e-06
-1.33272e-07
-3.02086e-06
-1.33806e-07
-2.88737e-06
-1.334e-07
-2.75479e-06
-1.33109e-07
-2.62287e-06
-1.33159e-07
-2.49227e-06
-1.31574e-07
-2.36302e-06
-1.30048e-07
-2.2356e-06
-1.28013e-07
-2.11044e-06
-1.25753e-07
-1.98755e-06
-1.23352e-07
-1.86719e-06
-1.2081e-07
-1.74932e-06
-1.18152e-07
-1.63413e-06
-1.15419e-07
-1.52151e-06
-1.12634e-07
-1.41162e-06
-1.0982e-07
-1.30429e-06
-1.07009e-07
-1.19955e-06
-1.04166e-07
-1.09729e-06
-1.01361e-07
-9.97537e-07
-9.85228e-08
-9.00388e-07
-9.58376e-08
-8.05787e-07
-9.32093e-08
-7.13802e-07
-9.07953e-08
-6.24238e-07
-8.84814e-08
-5.37049e-07
-8.63808e-08
-4.52036e-07
-8.43282e-08
-3.6912e-07
-8.24544e-08
-2.88156e-07
-8.05988e-08
-2.09039e-07
-7.88986e-08
-1.31645e-07
-7.7263e-08
-5.59402e-08
-7.56533e-08
1.84089e-08
-7.43053e-08
9.17574e-08
-7.33755e-08
1.63753e-07
-7.20744e-08
2.34022e-07
-7.04969e-08
3.02654e-07
-6.87747e-08
3.69789e-07
-6.71135e-08
4.35611e-07
-6.54961e-08
5.00048e-07
-6.40296e-08
5.63098e-07
-6.25669e-08
6.24528e-07
-6.1134e-08
6.84482e-07
-5.96825e-08
7.42934e-07
-5.8376e-08
8.00123e-07
-5.70896e-08
8.5595e-07
-5.58824e-08
9.10642e-07
-5.46886e-08
9.64001e-07
-5.34925e-08
1.01613e-06
-5.21864e-08
1.06697e-06
-5.10252e-08
1.11677e-06
-4.99218e-08
1.1654e-06
-4.88755e-08
1.21292e-06
-4.77019e-08
1.25913e-06
-4.65402e-08
1.30423e-06
-4.54493e-08
1.34811e-06
-4.44776e-08
1.39082e-06
-4.33916e-08
1.43229e-06
-4.22231e-08
1.47267e-06
-4.10662e-08
1.512e-06
-3.9935e-08
1.55024e-06
-3.87536e-08
1.58729e-06
-3.75287e-08
1.62327e-06
-3.63856e-08
1.65815e-06
-3.52636e-08
1.69207e-06
-3.4227e-08
1.72502e-06
-3.32448e-08
1.75689e-06
-3.21013e-08
1.78755e-06
-3.08784e-08
1.81676e-06
-2.93866e-08
1.84418e-06
-2.75961e-08
1.86956e-06
-2.55101e-08
1.89237e-06
-2.29627e-08
1.91217e-06
-1.99184e-08
1.92906e-06
-1.70341e-08
1.94332e-06
-1.43915e-08
1.95567e-06
-1.2526e-08
1.96678e-06
-1.12751e-08
1.97666e-06
-1.00811e-08
1.98723e-06
-1.0757e-08
2.00078e-06
-1.37428e-08
2.02151e-06
-2.09083e-08
2.05448e-06
-3.31496e-08
2.0819e-06
-2.76064e-08
2.10469e-06
-2.29662e-08
2.13539e-06
-3.08682e-08
2.16371e-06
-2.84976e-08
2.18788e-06
-2.43529e-08
2.20781e-06
-2.01135e-08
2.22438e-06
-1.67662e-08
2.23751e-06
-1.33258e-08
2.24695e-06
-9.64398e-09
2.25336e-06
-6.6087e-09
2.25443e-06
-1.27242e-09
2.2462e-06
8.02571e-09
2.22286e-06
2.31516e-08
2.16641e-06
5.62737e-08
1.10326e-07
2.05595e-06
1.47664e-07
-2.50265e-07
2.74239e-07
-2.68286e-07
3.67867e-07
-2.34995e-07
4.31675e-07
-1.94224e-07
4.72126e-07
-1.51531e-07
4.94089e-07
-1.06826e-07
4.98658e-07
-6.1641e-08
4.89582e-07
-1.65013e-08
4.71715e-07
2.72952e-08
4.52232e-07
6.66171e-08
4.20491e-07
9.62769e-08
3.66672e-07
1.17391e-07
2.87893e-07
1.34521e-07
1.83174e-07
1.52378e-07
6.01836e-08
1.70258e-07
-8.69228e-08
1.93506e-07
-2.60874e-07
2.26387e-07
-4.60756e-07
2.66909e-07
-6.82463e-07
3.08472e-07
-9.20428e-07
3.47085e-07
-1.16781e-06
3.81485e-07
-1.41639e-06
4.10046e-07
-1.66219e-06
4.30955e-07
-1.90178e-06
4.43513e-07
-2.13232e-06
4.48034e-07
-2.35127e-06
4.45463e-07
-2.55715e-06
4.3703e-07
-2.74918e-06
4.24025e-07
-2.92726e-06
4.0778e-07
-3.09214e-06
3.89553e-07
-3.24453e-06
3.70252e-07
-3.38568e-06
3.50637e-07
-3.51637e-06
3.31273e-07
-3.63796e-06
3.12557e-07
-3.75106e-06
2.94748e-07
-3.85694e-06
2.77976e-07
-3.95596e-06
2.62299e-07
-4.0492e-06
2.47692e-07
-4.13674e-06
2.34103e-07
-4.2195e-06
2.2143e-07
-4.29732e-06
2.09579e-07
-4.37095e-06
1.98419e-07
-4.4401e-06
1.87844e-07
-4.50535e-06
1.77718e-07
-4.5663e-06
1.67941e-07
-4.62348e-06
1.58385e-07
-4.67644e-06
1.48968e-07
-4.72565e-06
1.39575e-07
-4.77059e-06
1.3015e-07
-4.81173e-06
1.20589e-07
-4.84855e-06
1.10859e-07
-4.88152e-06
1.00894e-07
-4.91006e-06
9.06914e-08
-4.93467e-06
8.01856e-08
-4.95488e-06
6.93917e-08
-4.97129e-06
5.82576e-08
-4.98341e-06
4.68339e-08
-4.99189e-06
3.50764e-08
-4.99624e-06
2.30549e-08
-4.99685e-06
1.07315e-08
-4.99246e-06
-1.86747e-09
-4.98252e-06
-1.48838e-08
-4.96593e-06
-2.8246e-08
-4.9429e-06
-4.20006e-08
-4.91259e-06
-5.59975e-08
-4.87532e-06
-7.0288e-08
-4.83084e-06
-8.4782e-08
-4.7794e-06
-9.94175e-08
-4.72042e-06
-1.13979e-07
-4.65432e-06
-1.28569e-07
-4.58125e-06
-1.42963e-07
-4.50152e-06
-1.56901e-07
-4.41482e-06
-1.70245e-07
-4.32146e-06
-1.8305e-07
-4.2214e-06
-1.95231e-07
-4.11645e-06
-2.06923e-07
-4.00629e-06
-2.17714e-07
-3.89103e-06
-2.27551e-07
-3.77143e-06
-2.36278e-07
-3.64779e-06
-2.44055e-07
-3.52149e-06
-2.50802e-07
-3.39222e-06
-2.56302e-07
-3.26097e-06
-2.60706e-07
-3.12793e-06
-2.6398e-07
-2.994e-06
-2.66238e-07
-2.85939e-06
-2.6747e-07
-2.72518e-06
-2.67839e-07
-2.59116e-06
-2.67343e-07
-2.45837e-06
-2.66342e-07
-2.32742e-06
-2.64591e-07
-2.19755e-06
-2.61945e-07
-2.06939e-06
-2.5852e-07
-1.94314e-06
-2.54467e-07
-1.81911e-06
-2.49961e-07
-1.69747e-06
-2.45103e-07
-1.57836e-06
-2.40007e-07
-1.46181e-06
-2.34701e-07
-1.34791e-06
-2.29286e-07
-1.23661e-06
-2.23778e-07
-1.12798e-06
-2.18269e-07
-1.02189e-06
-2.12751e-07
-9.18353e-07
-2.07272e-07
-8.17207e-07
-2.01833e-07
-7.18546e-07
-1.9648e-07
-6.22264e-07
-1.91293e-07
-5.28469e-07
-1.86309e-07
-4.36999e-07
-1.81591e-07
-3.47852e-07
-1.77143e-07
-2.60834e-07
-1.72953e-07
-1.75895e-07
-1.68985e-07
-9.27862e-08
-1.653e-07
-1.14183e-08
-1.61828e-07
6.83771e-08
-1.58557e-07
1.46523e-07
-1.55369e-07
2.2318e-07
-1.52257e-07
2.98121e-07
-1.49259e-07
3.7108e-07
-1.46329e-07
4.42219e-07
-1.43297e-07
5.11836e-07
-1.40205e-07
5.80057e-07
-1.37087e-07
6.47011e-07
-1.34033e-07
7.12696e-07
-1.31048e-07
7.77073e-07
-1.28178e-07
8.40069e-07
-1.25366e-07
9.01708e-07
-1.22598e-07
9.6198e-07
-1.19858e-07
1.0209e-06
-1.17225e-07
1.07848e-06
-1.14655e-07
1.13477e-06
-1.12165e-07
1.18977e-06
-1.09719e-07
1.24354e-06
-1.07298e-07
1.29612e-06
-1.04828e-07
1.34748e-06
-1.02447e-07
1.39761e-06
-1.00157e-07
1.44656e-06
-9.79361e-08
1.49437e-06
-9.56516e-08
1.541e-06
-9.33383e-08
1.5864e-06
-9.111e-08
1.63056e-06
-8.89902e-08
1.67355e-06
-8.68286e-08
1.71543e-06
-8.45589e-08
1.75624e-06
-8.22925e-08
1.79598e-06
-8.00373e-08
1.83464e-06
-7.7733e-08
1.87221e-06
-7.53757e-08
1.90866e-06
-7.31038e-08
1.94404e-06
-7.08717e-08
1.97835e-06
-6.87471e-08
2.01158e-06
-6.66483e-08
2.04364e-06
-6.43135e-08
2.07424e-06
-6.16117e-08
2.10319e-06
-5.84435e-08
2.13036e-06
-5.48583e-08
2.15565e-06
-5.08799e-08
2.17892e-06
-4.62936e-08
2.20018e-06
-4.12199e-08
2.21956e-06
-3.6469e-08
2.2376e-06
-3.24751e-08
2.25477e-06
-2.97638e-08
2.27184e-06
-2.84073e-08
2.28974e-06
-2.80827e-08
2.30858e-06
-2.96831e-08
2.32759e-06
-3.28718e-08
2.34495e-06
-3.84015e-08
2.35704e-06
-4.53907e-08
2.37014e-06
-4.0894e-08
2.38157e-06
-3.458e-08
2.38942e-06
-3.89048e-08
2.39948e-06
-3.8747e-08
2.41082e-06
-3.58952e-08
2.42227e-06
-3.17641e-08
2.43281e-06
-2.75186e-08
2.44218e-06
-2.2905e-08
2.44964e-06
-1.73217e-08
2.45412e-06
-1.13001e-08
2.45607e-06
-3.43373e-09
2.45499e-06
8.90755e-09
2.44892e-06
2.90226e-08
2.43568e-06
6.93484e-08
1.44726e-07
2.40114e-06
9.6249e-08
-3.46556e-07
1.54567e-07
-3.26702e-07
1.90636e-07
-2.71108e-07
2.07664e-07
-2.1136e-07
2.07567e-07
-1.51483e-07
1.92748e-07
-9.21303e-08
1.64986e-07
-3.39335e-08
1.2584e-07
2.25479e-08
7.64293e-08
7.66506e-08
1.5536e-08
1.27482e-07
-6.25623e-08
1.7434e-07
-1.63531e-07
2.18355e-07
-2.90676e-07
2.61627e-07
-4.4436e-07
3.06016e-07
-6.25913e-07
3.51743e-07
-8.31753e-07
3.99269e-07
-1.05298e-06
4.47531e-07
-1.2794e-06
4.93279e-07
-1.50404e-06
5.33053e-07
-1.72167e-06
5.64727e-07
-1.92763e-06
5.87424e-07
-2.1185e-06
6.00977e-07
-2.29321e-06
6.05683e-07
-2.45199e-06
6.02366e-07
-2.59621e-06
5.92278e-07
-2.72747e-06
5.7677e-07
-2.84765e-06
5.57228e-07
-2.9586e-06
5.34984e-07
-3.06198e-06
5.1118e-07
-3.15919e-06
4.86729e-07
-3.25124e-06
4.6233e-07
-3.33916e-06
4.38508e-07
-3.42346e-06
4.15614e-07
-3.50481e-06
3.93862e-07
-3.58336e-06
3.73359e-07
-3.65956e-06
3.54128e-07
-3.73332e-06
3.3613e-07
-3.80497e-06
3.19284e-07
-3.87429e-06
3.03485e-07
-3.94153e-06
2.88607e-07
-4.00642e-06
2.74523e-07
-4.06916e-06
2.61096e-07
-4.12945e-06
2.48192e-07
-4.18746e-06
2.35679e-07
-4.24287e-06
2.23434e-07
-4.29583e-06
2.11335e-07
-4.34602e-06
1.99276e-07
-4.39358e-06
1.87151e-07
-4.43818e-06
1.74867e-07
-4.47991e-06
1.62341e-07
-4.51844e-06
1.49506e-07
-4.55384e-06
1.36295e-07
-4.58572e-06
1.22671e-07
-4.61408e-06
1.08577e-07
-4.63855e-06
9.39764e-08
-4.6591e-06
7.88238e-08
-4.67526e-06
6.30959e-08
-4.68692e-06
4.6748e-08
-4.69354e-06
2.9757e-08
-4.69489e-06
1.20824e-08
-4.69042e-06
-6.28083e-09
-4.67993e-06
-2.53516e-08
-4.66303e-06
-4.50737e-08
-4.63958e-06
-6.53982e-08
-4.60925e-06
-8.62293e-08
-4.57199e-06
-1.07484e-07
-4.52764e-06
-1.29038e-07
-4.47621e-06
-1.50786e-07
-4.41756e-06
-1.72556e-07
-4.35181e-06
-1.94247e-07
-4.27905e-06
-2.15643e-07
-4.19937e-06
-2.36498e-07
-4.11289e-06
-2.56638e-07
-4.01996e-06
-2.75889e-07
-3.92099e-06
-2.94099e-07
-3.81657e-06
-3.11234e-07
-3.70702e-06
-3.27146e-07
-3.59274e-06
-3.41724e-07
-3.4742e-06
-3.54696e-07
-3.35201e-06
-3.66099e-07
-3.22687e-06
-3.75807e-07
-3.09921e-06
-3.83813e-07
-2.96962e-06
-3.90126e-07
-2.83861e-06
-3.94778e-07
-2.70678e-06
-3.97844e-07
-2.57463e-06
-3.99386e-07
-2.44275e-06
-3.99547e-07
-2.3116e-06
-3.98489e-07
-2.18169e-06
-3.96346e-07
-2.05345e-06
-3.93148e-07
-1.92669e-06
-3.88881e-07
-1.80165e-06
-3.83572e-07
-1.67863e-06
-3.7746e-07
-1.55782e-06
-3.70677e-07
-1.43941e-06
-3.63418e-07
-1.32347e-06
-3.55786e-07
-1.21009e-06
-3.47911e-07
-1.09929e-06
-3.39865e-07
-9.91061e-07
-3.3175e-07
-8.85397e-07
-3.23625e-07
-7.82219e-07
-3.15535e-07
-6.81497e-07
-3.0753e-07
-5.83111e-07
-2.99618e-07
-4.87109e-07
-2.91893e-07
-3.93382e-07
-2.84383e-07
-3.01992e-07
-2.77202e-07
-2.12772e-07
-2.70335e-07
-1.25719e-07
-2.63877e-07
-4.05921e-08
-2.57779e-07
4.26284e-08
-2.52034e-07
1.24055e-07
-2.46553e-07
2.0364e-07
-2.41337e-07
2.81494e-07
-2.36318e-07
3.57621e-07
-2.3148e-07
4.3217e-07
-2.26768e-07
5.05068e-07
-2.2218e-07
5.76355e-07
-2.17631e-07
6.46077e-07
-2.13103e-07
7.14385e-07
-2.08589e-07
7.81341e-07
-2.04119e-07
8.47055e-07
-1.99715e-07
9.11495e-07
-1.95404e-07
9.74662e-07
-1.91185e-07
1.03647e-06
-1.87056e-07
1.09696e-06
-1.82972e-07
1.15611e-06
-1.78961e-07
1.21397e-06
-1.75029e-07
1.2705e-06
-1.71184e-07
1.32576e-06
-1.67413e-07
1.37971e-06
-1.63704e-07
1.43241e-06
-1.60011e-07
1.48386e-06
-1.56337e-07
1.53411e-06
-1.52733e-07
1.5831e-06
-1.49226e-07
1.63086e-06
-1.45764e-07
1.67739e-06
-1.42287e-07
1.72275e-06
-1.38822e-07
1.76691e-06
-1.35464e-07
1.80987e-06
-1.32205e-07
1.85167e-06
-1.28929e-07
1.89239e-06
-1.25584e-07
1.93205e-06
-1.222e-07
1.97061e-06
-1.18812e-07
2.00809e-06
-1.15382e-07
2.04451e-06
-1.11948e-07
2.07986e-06
-1.08575e-07
2.11415e-06
-1.05277e-07
2.14731e-06
-1.02004e-07
2.17925e-06
-9.86632e-08
2.20992e-06
-9.50585e-08
2.23926e-06
-9.10057e-08
2.26716e-06
-8.64031e-08
2.29355e-06
-8.12994e-08
2.31833e-06
-7.56962e-08
2.34153e-06
-6.95442e-08
2.36338e-06
-6.31029e-08
2.38401e-06
-5.71467e-08
2.40382e-06
-5.23228e-08
2.42316e-06
-4.91444e-08
2.44244e-06
-4.77179e-08
2.46195e-06
-4.76352e-08
2.48152e-06
-4.92826e-08
2.5006e-06
-5.19867e-08
2.51746e-06
-5.52958e-08
2.52983e-06
-5.78165e-08
2.54187e-06
-5.29912e-08
2.55367e-06
-4.64699e-08
2.56077e-06
-4.60902e-08
2.56694e-06
-4.50025e-08
2.5734e-06
-4.24459e-08
2.58029e-06
-3.87487e-08
2.58701e-06
-3.43265e-08
2.593e-06
-2.89831e-08
2.59772e-06
-2.21352e-08
2.60046e-06
-1.41393e-08
2.60087e-06
-3.93718e-09
2.5983e-06
1.13841e-08
2.59139e-06
3.58498e-08
2.58165e-06
7.90146e-08
1.54548e-07
2.57178e-06
2.33899e-08
-3.69994e-07
1.93138e-08
-3.22691e-07
3.45084e-09
-2.55288e-07
-2.40254e-08
-1.8395e-07
-6.3279e-08
-1.12271e-07
-1.14266e-07
-4.11965e-08
-1.77164e-07
2.89222e-08
-2.52578e-07
9.7935e-08
-3.41641e-07
1.6568e-07
-4.46084e-07
2.31929e-07
-5.6838e-07
2.96608e-07
-7.09859e-07
3.59842e-07
-8.69911e-07
4.21644e-07
-1.0453e-06
4.81391e-07
-1.23139e-06
5.37778e-07
-1.42122e-06
5.89064e-07
-1.60703e-06
6.33286e-07
-1.78242e-06
6.68642e-07
-1.94375e-06
6.9433e-07
-2.08939e-06
7.10364e-07
-2.21933e-06
7.17345e-07
-2.33454e-06
7.16215e-07
-2.43699e-06
7.08127e-07
-2.52892e-06
6.94331e-07
-2.61271e-06
6.76082e-07
-2.69049e-06
6.54564e-07
-2.76408e-06
6.30849e-07
-2.83496e-06
6.05866e-07
-2.90413e-06
5.8037e-07
-2.97234e-06
5.54927e-07
-3.03995e-06
5.29971e-07
-3.10729e-06
5.05816e-07
-3.1743e-06
4.82662e-07
-3.24109e-06
4.60621e-07
-3.30742e-06
4.39731e-07
-3.37331e-06
4.19973e-07
-3.43843e-06
4.01293e-07
-3.5028e-06
3.83601e-07
-3.56607e-06
3.66792e-07
-3.62827e-06
3.50748e-07
-3.68906e-06
3.35345e-07
-3.74848e-06
3.20451e-07
-3.8062e-06
3.0594e-07
-3.86224e-06
2.91681e-07
-3.91631e-06
2.77551e-07
-3.96841e-06
2.63429e-07
-4.01825e-06
2.49198e-07
-4.06583e-06
2.3475e-07
-4.11085e-06
2.19983e-07
-4.15326e-06
2.048e-07
-4.19276e-06
1.89114e-07
-4.22927e-06
1.7285e-07
-4.26241e-06
1.55934e-07
-4.29207e-06
1.38296e-07
-4.31784e-06
1.19874e-07
-4.33956e-06
1.00605e-07
-4.3568e-06
8.04385e-08
-4.36933e-06
5.9322e-08
-4.37672e-06
3.72196e-08
-4.37874e-06
1.41097e-08
-4.37499e-06
-1.00012e-08
-4.36527e-06
-3.50861e-08
-4.34923e-06
-6.10831e-08
-4.32671e-06
-8.792e-08
-4.29744e-06
-1.15481e-07
-4.26128e-06
-1.43633e-07
-4.21807e-06
-1.72224e-07
-4.16774e-06
-2.01088e-07
-4.11023e-06
-2.30023e-07
-4.04559e-06
-2.58825e-07
-3.97393e-06
-2.8724e-07
-3.89536e-06
-3.14987e-07
-3.8101e-06
-3.41814e-07
-3.71843e-06
-3.67472e-07
-3.62074e-06
-3.91695e-07
-3.5175e-06
-4.14378e-07
-3.40913e-06
-4.35421e-07
-3.29616e-06
-4.546e-07
-3.17909e-06
-4.71674e-07
-3.05852e-06
-4.86562e-07
-2.93505e-06
-4.99176e-07
-2.80925e-06
-5.09506e-07
-2.68169e-06
-5.17564e-07
-2.55293e-06
-5.23398e-07
-2.4235e-06
-5.27095e-07
-2.29394e-06
-5.28768e-07
-2.16477e-06
-5.28584e-07
-2.03644e-06
-5.2672e-07
-1.90952e-06
-5.23398e-07
-1.78414e-06
-5.18602e-07
-1.66045e-06
-5.12567e-07
-1.53858e-06
-5.0531e-07
-1.41879e-06
-4.97047e-07
-1.30126e-06
-4.87979e-07
-1.18612e-06
-4.78298e-07
-1.07346e-06
-4.68176e-07
-9.63319e-07
-4.57746e-07
-8.55719e-07
-4.47144e-07
-7.50645e-07
-4.36464e-07
-6.48063e-07
-4.25813e-07
-5.47913e-07
-4.15226e-07
-4.50121e-07
-4.0479e-07
-3.54633e-07
-3.94521e-07
-2.61404e-07
-3.84526e-07
-1.70407e-07
-3.74838e-07
-8.15589e-08
-3.65594e-07
5.22662e-09
-3.56755e-07
8.99943e-08
-3.48367e-07
1.72786e-07
-3.40358e-07
2.53657e-07
-3.32754e-07
3.32685e-07
-3.25465e-07
4.0993e-07
-3.18508e-07
4.85461e-07
-3.11793e-07
5.59335e-07
-3.0533e-07
6.3162e-07
-2.99037e-07
7.02343e-07
-2.92919e-07
7.71561e-07
-2.86884e-07
8.39328e-07
-2.80946e-07
9.05732e-07
-2.75062e-07
9.70837e-07
-2.69275e-07
1.03471e-06
-2.63549e-07