/*--------------------------------*- C++ -*----------------------------------*\
  =========                 |
  \\      /  F ield         | OpenFOAM: The Open Source CFD Toolbox
   \\    /   O peration     | Website:  https://openfoam.org
    \\  /    A nd           | Version:  9
     \\/     M anipulation  |
\*---------------------------------------------------------------------------*/
FoamFile
{
    format      ascii;
    class       volVectorField;
    location    "50";
    object      U;
}
// * * * * * * * * * * * * * * * * * * * * * * * * * * * * * * * * * * * * * //

dimensions      [0 1 -1 0 0 0 0];

internalField   nonuniform List<vector> 
12225
(
(9.85685 -0.886478 0)
(9.66583 -0.740516 0)
(9.45337 -0.429494 0)
(9.21992 -0.221783 0)
(8.99875 -0.105649 0)
(8.80298 -0.0449078 0)
(8.63107 -0.0141932 0)
(8.48312 0.00162737 0)
(8.35471 0.00988457 0)
(8.24428 0.0141887 0)
(8.14647 0.0163309 0)
(8.05884 0.017879 0)
(7.97799 0.0190132 0)
(7.90174 0.0203396 0)
(7.82564 0.0221846 0)
(7.75075 0.0253507 0)
(7.64511 0.0308909 0)
(7.60172 0.0448497 0)
(10.0545 0.227697 0)
(10.1208 0.327161 0)
(10.1189 0.262054 0)
(10.0838 0.187327 0)
(10.0402 0.135821 0)
(9.99162 0.102464 0)
(9.93628 0.0808764 0)
(9.87395 0.0666072 0)
(9.80856 0.0569791 0)
(9.74124 0.0501327 0)
(9.67391 0.045182 0)
(9.60681 0.0416602 0)
(9.54083 0.0394428 0)
(9.47611 0.0386692 0)
(9.41158 0.0393818 0)
(9.35011 0.0440422 0)
(9.28061 0.0503341 0)
(9.23951 0.0803329 0)
(10.0035 0.0580718 0)
(10.0299 0.0564012 0)
(10.055 0.0346679 0)
(10.068 0.0340409 0)
(10.0731 0.0421204 0)
(10.0719 0.0484748 0)
(10.0641 0.0518578 0)
(10.0497 0.0536141 0)
(10.0307 0.0544497 0)
(10.0079 0.0547098 0)
(9.98183 0.054796 0)
(9.95289 0.0551544 0)
(9.92162 0.056083 0)
(9.88835 0.0580582 0)
(9.85258 0.0612015 0)
(9.81546 0.0678778 0)
(9.77446 0.0768535 0)
(9.73765 0.100971 0)
(9.99776 0.0112315 0)
(10.0106 0.0272105 0)
(10.0337 0.0380929 0)
(10.0499 0.0494407 0)
(10.0601 0.0574593 0)
(10.0671 0.0608864 0)
(10.0705 0.0618461 0)
(10.0702 0.0620852 0)
(10.0669 0.0621675 0)
(10.061 0.0622328 0)
(10.0526 0.0625388 0)
(10.042 0.0634315 0)
(10.0291 0.0651267 0)
(10.0143 0.0680293 0)
(9.99726 0.0724261 0)
(9.97862 0.0799163 0)
(9.95822 0.0905939 0)
(9.93953 0.109581 0)
(9.99929 0.00744312 0)
(10.0085 0.0323789 0)
(10.0261 0.0451587 0)
(10.0391 0.0518776 0)
(10.0485 0.0563391 0)
(10.0564 0.0587518 0)
(10.0624 0.0599585 0)
(10.066 0.0608278 0)
(10.0674 0.0616637 0)
(10.067 0.0625796 0)
(10.0647 0.0637964 0)
(10.0606 0.0656264 0)
(10.0548 0.0682962 0)
(10.0475 0.072181 0)
(10.0386 0.0776442 0)
(10.0287 0.0857759 0)
(10.0182 0.0970124 0)
(10.0098 0.112967 0)
(10.0002 0.00950199 0)
(10.0078 0.0320953 0)
(10.0214 0.0426023 0)
(10.0323 0.047863 0)
(10.0407 0.0523273 0)
(10.0483 0.0556186 0)
(10.0546 0.0577618 0)
(10.0591 0.0593999 0)
(10.062 0.0609367 0)
(10.0635 0.0625583 0)
(10.0634 0.064485 0)
(10.0618 0.0670079 0)
(10.0589 0.0703728 0)
(10.0549 0.0749363 0)
(10.0498 0.0810597 0)
(10.0441 0.0894827 0)
(10.0385 0.10055 0)
(10.0349 0.114651 0)
(10.0004 0.00934785 0)
(10.0067 0.028238 0)
(10.0177 0.0384225 0)
(10.0275 0.0442921 0)
(10.0353 0.0493118 0)
(10.0423 0.0531753 0)
(10.0483 0.0558519 0)
(10.0529 0.0579645 0)
(10.0562 0.0599769 0)
(10.0583 0.0621157 0)
(10.0592 0.0645856 0)
(10.0588 0.0676512 0)
(10.0574 0.0715643 0)
(10.0551 0.0766412 0)
(10.0522 0.083196 0)
(10.0489 0.0916926 0)
(10.0461 0.102323 0)
(10.0448 0.114911 0)
(10.0004 0.00839849 0)
(10.0055 0.0247449 0)
(10.0148 0.0350852 0)
(10.0237 0.041512 0)
(10.031 0.0467257 0)
(10.0374 0.0508048 0)
(10.043 0.0538257 0)
(10.0475 0.0563316 0)
(10.051 0.0587609 0)
(10.0534 0.061346 0)
(10.0547 0.0642851 0)
(10.0551 0.0678195 0)
(10.0546 0.0721916 0)
(10.0535 0.0776612 0)
(10.0519 0.0844731 0)
(10.0503 0.0928952 0)
(10.0492 0.102999 0)
(10.0494 0.114443 0)
(10.0003 0.00752436 0)
(10.0046 0.0220147 0)
(10.0125 0.0321825 0)
(10.0204 0.0388405 0)
(10.0272 0.0441059 0)
(10.0333 0.0483301 0)
(10.0385 0.0516645 0)
(10.0429 0.0545549 0)
(10.0464 0.0573823 0)
(10.049 0.0603706 0)
(10.0507 0.0637206 0)
(10.0516 0.0676566 0)
(10.0518 0.0723974 0)
(10.0516 0.0781405 0)
(10.0511 0.0850641 0)
(10.0507 0.0933119 0)
(10.0509 0.102884 0)
(10.0521 0.113424 0)
(10.0003 0.00677754 0)
(10.0039 0.0196743 0)
(10.0105 0.0293984 0)
(10.0176 0.0361138 0)
(10.0239 0.0414404 0)
(10.0296 0.045823 0)
(10.0346 0.0494397 0)
(10.0389 0.0526757 0)
(10.0424 0.0558579 0)
(10.0452 0.0592031 0)
(10.0472 0.0629061 0)
(10.0486 0.0671758 0)
(10.0494 0.0721923 0)
(10.05 0.0781038 0)
(10.0504 0.0850303 0)
(10.051 0.0930403 0)
(10.0522 0.102092 0)
(10.0541 0.111861 0)
(10.0003 0.00610176 0)
(10.0033 0.0175886 0)
(10.0088 0.026743 0)
(10.0151 0.0334107 0)
(10.021 0.038779 0)
(10.0264 0.0432978 0)
(10.0312 0.0471496 0)
(10.0354 0.0506705 0)
(10.039 0.0541491 0)
(10.042 0.0577912 0)
(10.0443 0.0617845 0)
(10.0461 0.066311 0)
(10.0476 0.0715189 0)
(10.0488 0.0775077 0)
(10.0501 0.0843552 0)
(10.0515 0.0920771 0)
(10.0535 0.10062 0)
(10.0561 0.109707 0)
(10.0003 0.00551409 0)
(10.0028 0.0158639 0)
(10.0076 0.0244542 0)
(10.0132 0.0310265 0)
(10.0187 0.0363778 0)
(10.0238 0.04096 0)
(10.0285 0.0449933 0)
(10.0327 0.0487404 0)
(10.0364 0.0524386 0)
(10.0395 0.0562871 0)
(10.0422 0.0604806 0)
(10.0444 0.0651922 0)
(10.0463 0.0705191 0)
(10.0482 0.0765318 0)
(10.0501 0.0832471 0)
(10.0523 0.090675 0)
(10.0549 0.0987515 0)
(10.058 0.107277 0)
(10.0002 0.0049748 0)
(10.0024 0.0142853 0)
(10.0066 0.022283 0)
(10.0117 0.0286789 0)
(10.0168 0.0339632 0)
(10.0217 0.0385493 0)
(10.0262 0.0427023 0)
(10.0304 0.0466387 0)
(10.0341 0.0505251 0)
(10.0375 0.0545297 0)
(10.0405 0.0588516 0)
(10.0432 0.0636581 0)
(10.0456 0.0690296 0)
(10.048 0.0749998 0)
(10.0506 0.0815567 0)
(10.0533 0.0886792 0)
(10.0565 0.0963153 0)
(10.0601 0.104288 0)
(10.0002 0.00441883 0)
(10.0021 0.0126539 0)
(10.0057 0.0199453 0)
(10.0102 0.026043 0)
(10.015 0.0312133 0)
(10.0196 0.0357454 0)
(10.0241 0.0399468 0)
(10.0283 0.0440295 0)
(10.0321 0.0480943 0)
(10.0357 0.0522388 0)
(10.0391 0.05665 0)
(10.0423 0.0614715 0)
(10.0453 0.0668101 0)
(10.0483 0.0726539 0)
(10.0515 0.0789947 0)
(10.0548 0.0857624 0)
(10.0586 0.0929157 0)
(10.0627 0.100286 0)
(10.0002 0.00384372 0)
(10.0018 0.0109457 0)
(10.0049 0.017456 0)
(10.009 0.0231042 0)
(10.0133 0.028063 0)
(10.0178 0.0324865 0)
(10.0223 0.0366304 0)
(10.0265 0.0407387 0)
(10.0305 0.0448988 0)
(10.0344 0.049157 0)
(10.0381 0.0536004 0)
(10.0418 0.0583716 0)
(10.0455 0.0635472 0)
(10.0492 0.0691606 0)
(10.0529 0.0751564 0)
(10.0569 0.0814906 0)
(10.0613 0.0880821 0)
(10.0659 0.094811 0)
(10.0002 0.00323887 0)
(10.0016 0.00914744 0)
(10.0043 0.0147787 0)
(10.008 0.01981 0)
(10.012 0.0243979 0)
(10.0163 0.0286223 0)
(10.0208 0.0326132 0)
(10.0252 0.0365978 0)
(10.0295 0.0407013 0)
(10.0336 0.0449461 0)
(10.0378 0.0493423 0)
(10.042 0.0539656 0)
(10.0463 0.0588788 0)
(10.0507 0.0641232 0)
(10.0551 0.0696624 0)
(10.0597 0.0754414 0)
(10.0646 0.0813955 0)
(10.0697 0.0874028 0)
(10.0001 0.00258377 0)
(10.0014 0.00721724 0)
(10.0039 0.011816 0)
(10.0073 0.0160614 0)
(10.0112 0.0200807 0)
(10.0154 0.0239322 0)
(10.0199 0.0276516 0)
(10.0246 0.031371 0)
(10.0292 0.0352293 0)
(10.0338 0.0392479 0)
(10.0383 0.0434271 0)
(10.0431 0.0477598 0)
(10.048 0.0522985 0)
(10.053 0.0570459 0)
(10.0581 0.0620087 0)
(10.0632 0.0671186 0)
(10.0686 0.0723466 0)
(10.0742 0.0775734 0)
(10.0001 0.00184445 0)
(10.0013 0.00505254 0)
(10.0037 0.00842626 0)
(10.007 0.0116872 0)
(10.011 0.0148889 0)
(10.0153 0.0180999 0)
(10.0199 0.0213275 0)
(10.0249 0.0246079 0)
(10.03 0.0280186 0)
(10.0349 0.0315948 0)
(10.04 0.03533 0)
(10.0452 0.0392055 0)
(10.0507 0.0432206 0)
(10.0563 0.0473666 0)
(10.0619 0.0516322 0)
(10.0676 0.055984 0)
(10.0734 0.060387 0)
(10.0794 0.0647824 0)
(10.0002 0.000942171 0)
(10.0014 0.00244457 0)
(10.0038 0.00427482 0)
(10.0073 0.00623956 0)
(10.0115 0.0083404 0)
(10.0161 0.0106125 0)
(10.0211 0.0130676 0)
(10.0264 0.0156711 0)
(10.032 0.0184273 0)
(10.0375 0.0213367 0)
(10.0431 0.0244086 0)
(10.0488 0.0276118 0)
(10.0548 0.030933 0)
(10.0609 0.0343334 0)
(10.0671 0.037795 0)
(10.0732 0.0412846 0)
(10.0794 0.0447869 0)
(10.0857 0.0482793 0)
(10.0002 1.64419e-05 0)
(10.0015 -0.000206485 0)
(10.0043 1.67378e-05 0)
(10.0081 0.000625464 0)
(10.0128 0.00158961 0)
(10.0179 0.0028853 0)
(10.0233 0.00449166 0)
(10.0291 0.00636242 0)
(10.0351 0.00841777 0)
(10.0411 0.0106552 0)
(10.0471 0.0130527 0)
(10.0533 0.015611 0)
(10.0597 0.018266 0)
(10.0662 0.0209947 0)
(10.0726 0.0237394 0)
(10.0791 0.0265032 0)
(10.0855 0.0292468 0)
(10.092 0.0320023 0)
(10.0002 -0.000810502 0)
(10.0017 -0.00260214 0)
(10.0048 -0.00382601 0)
(10.0092 -0.00438013 0)
(10.0144 -0.00434598 0)
(10.02 -0.00383358 0)
(10.0259 -0.00290048 0)
(10.0322 -0.00162449 0)
(10.0385 -0.000116974 0)
(10.0448 0.00159817 0)
(10.0513 0.00350428 0)
(10.0578 0.00558583 0)
(10.0645 0.00776262 0)
(10.0711 0.00999714 0)
(10.0778 0.0122347 0)
(10.0844 0.0144808 0)
(10.091 0.0167052 0)
(10.0976 0.0189441 0)
(10.0002 -0.00160599 0)
(10.0019 -0.00498613 0)
(10.0056 -0.00768222 0)
(10.0107 -0.00933009 0)
(10.0164 -0.0100912 0)
(10.0226 -0.010212 0)
(10.029 -0.00978939 0)
(10.0356 -0.00897831 0)
(10.0423 -0.00790489 0)
(10.049 -0.00662086 0)
(10.0557 -0.00511612 0)
(10.0626 -0.00345156 0)
(10.0694 -0.00168021 0)
(10.0762 0.000113553 0)
(10.083 0.00192848 0)
(10.0897 0.00373115 0)
(10.0964 0.00554259 0)
(10.1031 0.00735762 0)
(10.0002 -0.0023551 0)
(10.0021 -0.00738293 0)
(10.0064 -0.0115312 0)
(10.0123 -0.0141437 0)
(10.0188 -0.0156357 0)
(10.0256 -0.0163413 0)
(10.0325 -0.0163548 0)
(10.0394 -0.0158737 0)
(10.0464 -0.0150976 0)
(10.0533 -0.0140909 0)
(10.0604 -0.0128787 0)
(10.0674 -0.0115201 0)
(10.0744 -0.0100913 0)
(10.0813 -0.00864404 0)
(10.0882 -0.00719253 0)
(10.095 -0.0057323 0)
(10.1018 -0.00427234 0)
(10.1085 -0.00279079 0)
(10.0002 -0.00302416 0)
(10.0022 -0.0101592 0)
(10.0073 -0.015522 0)
(10.0142 -0.0185529 0)
(10.0214 -0.0205616 0)
(10.0287 -0.0218888 0)
(10.0361 -0.022402 0)
(10.0435 -0.0222715 0)
(10.0507 -0.0217459 0)
(10.0579 -0.0209395 0)
(10.0652 -0.0199184 0)
(10.0724 -0.0187638 0)
(10.0795 -0.0175681 0)
(10.0864 -0.0163612 0)
(10.0933 -0.0151631 0)
(10.1002 -0.0139546 0)
(10.107 -0.0127625 0)
(10.1137 -0.0115606 0)
(9.99995 -0.00298276 0)
(10.002 -0.0138708 0)
(10.0084 -0.0208831 0)
(10.0163 -0.0236126 0)
(10.0238 -0.0253311 0)
(10.0317 -0.0267321 0)
(10.0397 -0.0274949 0)
(10.0476 -0.0276845 0)
(10.0553 -0.0274885 0)
(10.0628 -0.0269815 0)
(10.0703 -0.0262213 0)
(10.0776 -0.0253109 0)
(10.0846 -0.024338 0)
(10.0915 -0.0233424 0)
(10.0983 -0.0223289 0)
(10.105 -0.0213036 0)
(10.1117 -0.020278 0)
(10.1181 -0.0192598 0)
(9.99864 -9.24375e-05 0)
(9.99945 -0.0149261 0)
(10.0086 -0.0259522 0)
(10.0187 -0.0304795 0)
(10.0271 -0.0323144 0)
(10.0356 -0.0329637 0)
(10.0444 -0.0329009 0)
(10.0528 -0.0325812 0)
(10.0607 -0.0321818 0)
(10.0684 -0.0316515 0)
(10.0758 -0.0309698 0)
(10.0829 -0.0301939 0)
(10.0896 -0.029399 0)
(10.0959 -0.0285968 0)
(10.1021 -0.0277796 0)
(10.1081 -0.026942 0)
(10.1139 -0.0260927 0)
(10.1195 -0.0252354 0)
(9.99495 0.0015516 0)
(9.99328 -0.00753655 0)
(10.0071 -0.0192956 0)
(10.0221 -0.0306434 0)
(10.0339 -0.0384445 0)
(10.0442 -0.0417436 0)
(10.0534 -0.0421522 0)
(10.0615 -0.0414463 0)
(10.0685 -0.0404017 0)
(10.0749 -0.0391758 0)
(10.0807 -0.0378407 0)
(10.0858 -0.0365009 0)
(10.0903 -0.0352468 0)
(10.0943 -0.0341024 0)
(10.098 -0.0330393 0)
(10.1015 -0.0320205 0)
(10.1047 -0.031048 0)
(10.1077 -0.0300527 0)
(9.99478 -0.0304415 0)
(9.9996 -0.0223968 0)
(10.0156 -0.00203452 0)
(10.0322 -0.000845557 0)
(10.0463 -0.0100851 0)
(10.0577 -0.0189744 0)
(10.0656 -0.0250011 0)
(10.0698 -0.0289336 0)
(10.0716 -0.0314156 0)
(10.0716 -0.0327473 0)
(10.0704 -0.0332098 0)
(10.068 -0.0331151 0)
(10.0647 -0.0327161 0)
(10.0608 -0.0322009 0)
(10.0567 -0.0316351 0)
(10.0524 -0.0310394 0)
(10.0481 -0.0304788 0)
(10.0436 -0.0298499 0)
(10.0272 -0.182681 0)
(10.0764 -0.288093 0)
(10.0877 -0.247306 0)
(10.079 -0.186044 0)
(10.0685 -0.139622 0)
(10.0572 -0.107158 0)
(10.0416 -0.08442 0)
(10.0212 -0.0686752 0)
(9.99811 -0.0577441 0)
(9.97354 -0.0498146 0)
(9.94843 -0.0437808 0)
(9.92311 -0.0389974 0)
(9.89803 -0.0351248 0)
(9.87359 -0.0319624 0)
(9.8501 -0.0293495 0)
(9.82769 -0.0272235 0)
(9.8066 -0.0254935 0)
(9.78666 -0.0244843 0)
(9.93588 0.689398 0)
(9.86927 0.609728 0)
(9.76637 0.381295 0)
(9.63003 0.218025 0)
(9.49137 0.119711 0)
(9.36543 0.0637601 0)
(9.25396 0.0323959 0)
(9.15562 0.014648 0)
(9.06948 0.00441624 0)
(8.99461 -0.00157446 0)
(8.92922 -0.00504155 0)
(8.87176 -0.00703066 0)
(8.82087 -0.00811466 0)
(8.77568 -0.00868929 0)
(8.73541 -0.00902528 0)
(8.69935 -0.00914422 0)
(8.66667 -0.00925785 0)
(8.63672 -0.00980179 0)
(0.0815829 -0.0594604 -2.00346e-19)
(0.163267 -0.132393 1.07485e-19)
(0.258528 -0.162602 0)
(0.399782 -0.168765 0)
(0.51187 -0.156831 0)
(0.600191 -0.131222 -8.94284e-20)
(0.65988 -0.105612 0)
(0.699911 -0.0655286 0)
(0.712571 -0.00714086 0)
(0.68105 0.0813406 0)
(0.620203 0.116135 5.48403e-20)
(0.563473 0.0957526 0)
(0.513823 0.0551515 0)
(0.475225 0.0134802 0)
(0.425598 0.0123231 0)
(0.385144 0.00236549 1.24978e-19)
(0.341305 -0.00540811 0)
(0.288824 -0.00626432 0)
(0.218703 0.00311263 0)
(0.128704 0.0280638 0)
(0.0276986 0.0609476 0)
(-0.101457 0.0961549 0)
(-0.258989 0.131101 0)
(-0.435621 0.161083 9.07051e-20)
(-0.626337 0.18468 -7.37099e-20)
(-0.827109 0.201851 6.20201e-20)
(-1.03397 0.212787 5.37545e-20)
(-1.24341 0.218135 0)
(-1.45228 0.218839 0)
(-1.65779 0.215728 -4.00826e-20)
(-1.85797 0.209915 -3.76069e-20)
(-2.05143 0.202301 0)
(-2.23715 0.193627 0)
(-2.41466 0.184442 -3.31596e-20)
(-2.58371 0.175179 0)
(-2.74441 0.166086 0)
(-2.89695 0.157376 3.10929e-20)
(-3.04176 0.1491 0)
(-3.17918 0.141331 3.03577e-20)
(-3.30971 0.134001 6.02126e-20)
(-3.43373 0.127119 0)
(-3.55168 0.120571 0)
(-3.66387 0.114343 0)
(-3.77063 0.108301 0)
(-3.8722 0.102441 0)
(-3.96879 0.0966412 5.8997e-20)
(-4.06051 0.0909249 5.8976e-20)
(-4.14747 0.0851873 5.89877e-20)
(-4.22965 0.0794772 0)
(-4.30707 0.0737241 -5.91209e-20)
(-4.37961 0.0680142 0)
(-4.44717 0.0622592 5.94192e-20)
(-4.50948 0.0565484 5.96406e-20)
(-4.56628 0.0507989 0)
(-4.6172 0.0451108 0)
(-4.66202 0.0393705 0)
(-4.70028 0.0336443 6.10274e-20)
(-4.73165 0.0277413 0)
(-4.75562 0.02181 0)
(-4.77211 0.0158344 0)
(-4.78075 0.0104042 0)
(-4.78269 0.00548283 0)
(-4.77822 0.000500497 0)
(-4.76721 -0.00488201 0)
(-4.74968 -0.00977327 0)
(-4.7257 -0.0150244 -6.3742e-20)
(-4.69501 -0.0211049 0)
(-4.6574 -0.0270805 0)
(-4.61308 -0.0322661 6.27142e-20)
(-4.56209 -0.0378609 6.20307e-20)
(-4.50423 -0.0447181 0)
(-4.43935 -0.0507728 -6.00571e-20)
(-4.3683 -0.0553555 5.8662e-20)
(-4.2912 -0.0590313 0)
(-4.20881 -0.0624222 -5.52683e-20)
(-4.12042 -0.0696518 0)
(-4.02577 -0.0741052 0)
(-3.92683 -0.0771191 4.80248e-20)
(-3.82294 -0.0804282 0)
(-3.71555 -0.0832737 -4.19184e-20)
(-3.60375 -0.0878046 0)
(-3.48901 -0.0896244 3.47293e-20)
(-3.37168 -0.0915803 3.07573e-20)
(-3.25224 -0.0928429 2.65471e-20)
(-3.13115 -0.0940003 4.42127e-20)
(-3.00888 -0.0946589 -3.48706e-20)
(-2.88608 -0.0954177 0)
(-2.76325 -0.0943421 0)
(-2.64166 -0.094299 0)
(-2.51965 -0.0954203 6.64897e-21)
(-2.39895 -0.0936106 1.80194e-20)
(-2.27895 -0.0927153 -2.98041e-20)
(-2.16039 -0.0912011 0)
(-2.04359 -0.0895871 5.46763e-20)
(-1.92871 -0.0879778 6.7805e-20)
(-1.81589 -0.0862663 8.14332e-20)
(-1.70525 -0.0844885 0)
(-1.59685 -0.0826784 0)
(-1.49074 -0.0808479 0)
(-1.38696 -0.0790234 1.41968e-19)
(-1.28549 -0.0772201 0)
(-1.18625 -0.0754305 0)
(-1.08922 -0.0736938 -1.95865e-19)
(-0.994363 -0.0719805 0)
(-0.901765 -0.0704258 0)
(-0.81144 -0.0689868 -2.60645e-19)
(-0.723403 -0.0677271 0)
(-0.637594 -0.0665939 0)
(-0.553893 -0.0656472 3.41408e-19)
(-0.472191 -0.0647914 3.73322e-19)
(-0.392362 -0.0641083 0)
(-0.314304 -0.0634916 -4.47572e-19)
(-0.237862 -0.0629972 0)
(-0.162997 -0.062586 5.40871e-19)
(-0.0898761 -0.0622261 0)
(-0.0179621 -0.0611559 6.29833e-19)
(0.0533384 -0.0589744 6.11941e-19)
(0.123561 -0.0562609 0)
(0.192396 -0.0536112 0)
(0.259738 -0.051037 0)
(0.325727 -0.0486233 0)
(0.390545 -0.0463994 0)
(0.454229 -0.0444349 0)
(0.516751 -0.0426374 0)
(0.577912 -0.0408972 4.42104e-19)
(0.637678 -0.0390851 -4.29747e-19)
(0.696253 -0.0374784 0)
(0.753583 -0.0360892 0)
(0.809714 -0.0348246 0)
(0.864916 -0.0338185 0)
(0.918918 -0.0328493 -7.63548e-19)
(0.971758 -0.0315532 0)
(1.02367 -0.0302727 7.34747e-19)
(1.07465 -0.0292678 -7.21835e-19)
(1.1246 -0.0285432 0)
(1.17341 -0.0276644 0)
(1.2212 -0.0264734 0)
(1.26815 -0.0253311 6.77187e-19)
(1.31414 -0.0246124 6.67705e-19)
(1.35886 -0.0240553 0)
(1.40246 -0.0234391 6.5056e-19)
(1.4452 -0.0228988 6.42668e-19)
(1.48705 -0.022442 -6.3512e-19)
(1.52782 -0.0218007 0)
(1.56763 -0.0209301 0)
(1.60653 -0.020173 -6.1442e-19)
(1.64446 -0.0195496 0)
(1.68154 -0.0194425 0)
(1.71763 -0.019429 0)
(1.75275 -0.0185379 0)
(1.78702 -0.0170193 5.84443e-19)
(1.82009 -0.0153614 5.79173e-19)
(1.8518 -0.0141482 0)
(1.88167 -0.0136228 5.70066e-19)
(1.909 -0.0130678 0)
(1.93361 -0.0121304 0)
(1.95565 -0.0116301 5.63147e-19)
(1.97468 -0.0113622 0)
(1.99167 -0.0115694 5.67908e-19)
(2.00727 -0.0118425 0)
(2.02074 -0.0112129 0)
(2.03481 -0.0135315 5.89148e-19)
(2.0496 -0.0196196 0)
(2.07222 -0.0288576 5.96984e-19)
(2.10259 -0.0270316 0)
(2.13156 0.0387633 0)
(2.16906 0.0657644 0)
(2.20091 0.0316182 -4.96849e-19)
(2.23579 0.0126677 0)
(2.26702 0.00179794 4.9197e-19)
(2.29399 -0.00437083 0)
(2.31723 -0.00875171 0)
(2.33685 -0.00895756 0)
(2.35339 -0.007102 0)
(2.36655 -0.00751313 0)
(2.37568 -0.00528868 0)
(2.37777 -0.000430063 0)
(2.36519 0.00466986 -9.89452e-19)
(2.34215 0.0145006 0)
(2.23372 0.028812 0)
(0.0798164 -0.360038 4.77659e-19)
(0.194238 -0.413651 -2.53811e-19)
(0.28782 -0.378116 0)
(0.358251 -0.324225 1.07063e-19)
(0.40478 -0.262826 0)
(0.432232 -0.19332 4.67244e-20)
(0.443434 -0.120632 -9.4971e-20)
(0.441087 -0.0473336 -9.97484e-20)
(0.430514 0.0217002 0)
(0.413556 0.0774016 -1.05808e-19)
(0.391137 0.112578 -5.02209e-20)
(0.352687 0.132166 0)
(0.297953 0.143552 0)
(0.216818 0.153762 0)
(0.114256 0.154491 0)
(-0.00615085 0.163539 -7.64675e-20)
(-0.149342 0.196047 0)
(-0.317668 0.251426 1.1479e-19)
(-0.508355 0.315179 0)
(-0.715707 0.377532 0)
(-0.932443 0.434778 -7.59206e-20)
(-1.15494 0.482787 0)
(-1.37797 0.518946 5.98946e-20)
(-1.59738 0.542393 -2.74858e-20)
(-1.80993 0.553672 2.52201e-20)
(-2.01313 0.554381 -2.34549e-20)
(-2.20521 0.546354 -2.20975e-20)
(-2.38519 0.531469 0)
(-2.55252 0.511664 0)
(-2.70775 0.48872 1.9672e-20)
(-2.85157 0.463826 -1.96679e-20)
(-2.98485 0.438119 0)
(-3.10852 0.41246 0)
(-3.22354 0.387459 1.8657e-20)
(-3.33082 0.363562 0)
(-3.43118 0.340992 0)
(-3.52536 0.319914 -1.86018e-20)
(-3.614 0.300315 0)
(-3.69761 0.282194 1.87435e-20)
(-3.77662 0.26541 -3.75488e-20)
(-3.85138 0.249889 0)
(-3.92213 0.235433 0)
(-3.98907 0.221939 -7.58151e-20)
(-4.05233 0.209185 -7.61275e-20)
(-4.11199 0.197076 -7.64583e-20)
(-4.16808 0.185397 3.8173e-20)
(-4.22064 0.174074 -3.88232e-20)
(-4.26966 0.162909 -1.16564e-19)
(-4.31513 0.151851 7.79439e-20)
(-4.35702 0.140725 3.93895e-20)
(-4.39531 0.129543 0)
(-4.42995 0.118166 -3.97933e-20)
(-4.46088 0.106644 3.97043e-20)
(-4.48806 0.0948635 0)
(-4.5115 0.0829076 0)
(-4.53123 0.0706595 0)
(-4.54733 0.0582709 -4.10005e-20)
(-4.55981 0.0456757 0)
(-4.56882 0.0331013 8.27596e-20)
(-4.57424 0.0205301 0)
(-4.57609 0.00828573 8.3494e-20)
(-4.573 -0.00377395 0)
(-4.56415 -0.0156416 -8.38818e-20)
(-4.54929 -0.0276259 0)
(-4.52812 -0.0396078 8.37879e-20)
(-4.50035 -0.0516994 -4.18215e-20)
(-4.46605 -0.0637247 0)
(-4.42519 -0.075806 -8.2267e-20)
(-4.3776 -0.0876882 -4.0346e-20)
(-4.32322 -0.0995103 -3.96212e-20)
(-4.26223 -0.110807 0)
(-4.19488 -0.121629 -3.88602e-20)
(-4.12119 -0.131971 -3.68094e-20)
(-4.04113 -0.141917 0)
(-3.95462 -0.151097 3.43601e-20)
(-3.86244 -0.159521 -6.7194e-20)
(-3.76581 -0.167487 0)
(-3.66423 -0.174695 -2.91868e-20)
(-3.55799 -0.180748 0)
(-3.44778 -0.186024 7.75909e-20)
(-3.33423 -0.190222 0)
(-3.21796 -0.193534 -6.44435e-20)
(-3.09919 -0.195955 -1.84038e-20)
(-2.97851 -0.197459 1.81613e-20)
(-2.85638 -0.19815 3.13041e-20)
(-2.73331 -0.198031 -2.61079e-20)
(-2.60987 -0.197302 0)
(-2.48663 -0.196119 0)
(-2.36389 -0.194492 0)
(-2.24234 -0.192263 3.13685e-21)
(-2.1221 -0.18943 -6.10788e-21)
(-2.00276 -0.185899 1.18074e-20)
(-1.88502 -0.181968 0)
(-1.76901 -0.177744 1.90741e-20)
(-1.65498 -0.173311 -2.9081e-20)
(-1.54308 -0.168764 -3.4873e-20)
(-1.43339 -0.164121 0)
(-1.32596 -0.15945 0)
(-1.22082 -0.154771 0)
(-1.11798 -0.150141 -5.8148e-20)
(-1.01743 -0.145566 0)
(-0.919084 -0.141061 1.36165e-19)
(-0.822891 -0.136643 2.23802e-19)
(-0.728823 -0.132326 -1.59941e-19)
(-0.636884 -0.128201 0)
(-0.547083 -0.124266 -9.03228e-20)
(-0.459399 -0.120594 0)
(-0.373754 -0.117162 -2.08292e-19)
(-0.290066 -0.11398 1.08793e-19)
(-0.208206 -0.110975 1.15105e-19)
(-0.128065 -0.108198 0)
(-0.0494834 -0.105618 3.87766e-19)
(0.0277658 -0.10328 -2.63763e-19)
(0.103652 -0.101077 -1.3439e-19)
(0.178157 -0.098979 0)
(0.251323 -0.096745 -1.3643e-19)
(0.322872 -0.0941118 -4.1019e-19)
(0.392708 -0.0911879 0)
(0.461077 -0.088239 -2.77162e-19)
(0.528214 -0.0853382 -2.79274e-19)
(0.594247 -0.0825633 -2.81278e-19)
(0.659228 -0.0799232 0)
(0.723129 -0.0774295 0)
(0.785862 -0.0750212 0)
(0.847437 -0.0727056 1.43283e-19)
(0.907853 -0.0704577 1.45708e-19)
(0.967075 -0.0683432 0)
(1.02516 -0.0663317 2.92726e-19)
(1.08211 -0.0643874 2.94144e-19)
(1.13791 -0.0624826 0)
(1.19266 -0.0606304 2.97926e-19)
(1.24641 -0.0587713 5.95573e-19)
(1.29913 -0.0570372 -3.0017e-19)
(1.35077 -0.0553999 -2.98844e-19)
(1.40135 -0.0538257 0)
(1.45095 -0.0522286 0)
(1.4996 -0.0506549 0)
(1.5472 -0.0491756 -3.04297e-19)
(1.5937 -0.0477996 3.03073e-19)
(1.63913 -0.0463845 6.09535e-19)
(1.68356 -0.0448895 -3.06332e-19)
(1.72708 -0.0434123 3.05027e-19)
(1.76969 -0.0419796 3.07206e-19)
(1.81139 -0.0405474 0)
(1.8521 -0.0390988 0)
(1.89189 -0.0377813 -3.06206e-19)
(1.93071 -0.0364842 0)
(1.96851 -0.0352315 0)
(2.00549 -0.0340292 6.13088e-19)
(2.04153 -0.0327165 0)
(2.07629 -0.0313481 3.05076e-19)
(2.10961 -0.029857 -3.05682e-19)
(2.14131 -0.0281808 0)
(2.17131 -0.0262862 3.03196e-19)
(2.19945 -0.0239917 0)
(2.22553 -0.0212829 0)
(2.24978 -0.0187503 -3.04561e-19)
(2.27258 -0.0164993 6.1355e-19)
(2.29432 -0.0148663 -3.12084e-19)
(2.31566 -0.0139208 0)
(2.33731 -0.0135524 0)
(2.36032 -0.0136151 3.40881e-19)
(2.38414 -0.0140325 0)
(2.40698 -0.016847 3.67359e-19)
(2.42697 -0.025664 0)
(2.44633 -0.0402792 0)
(2.45914 -0.0391929 0)
(2.47426 -0.0308981 3.41001e-19)
(2.48852 -0.0246891 0)
(2.50464 -0.0201401 -3.37506e-19)
(2.52131 -0.0165983 0)
(2.53757 -0.0137248 0)
(2.5532 -0.0116021 6.86231e-19)
(2.56697 -0.00953595 -6.80931e-19)
(2.57837 -0.00699931 0)
(2.5866 -0.00404764 0)
(2.59283 0.00073992 0)
(2.59288 0.00927263 2.05042e-18)
(2.59319 0.0272308 0)
(2.5701 0.0576543 -1.36868e-18)
(0.0500413 -0.61001 8.11802e-22)
(0.11716 -0.603569 2.61445e-19)
(0.15627 -0.505449 0)
(0.17895 -0.400957 -1.71348e-19)
(0.186692 -0.298412 0)
(0.180202 -0.198716 0)
(0.161233 -0.102906 -4.21264e-22)
(0.131488 -0.0118782 8.23406e-20)
(0.0921794 0.0732158 8.49073e-20)
(0.0436346 0.149951 8.65157e-20)
(-0.0166504 0.213935 0)
(-0.0949179 0.267367 0)
(-0.195351 0.317434 -7.80277e-20)
(-0.321172 0.371178 -1.46861e-19)
(-0.471418 0.430469 1.36488e-19)
(-0.645907 0.497915 0)
(-0.838899 0.573294 1.14603e-19)
(-1.04128 0.650163 -5.29354e-20)
(-1.24492 0.720092 0)
(-1.44458 0.777905 8.83215e-20)
(-1.63527 0.821488 4.15806e-20)
(-1.81369 0.850006 -7.69293e-20)
(-1.97831 0.863331 -3.63086e-20)
(-2.12858 0.862606 0)
(-2.26521 0.849804 6.56218e-20)
(-2.38959 0.827125 6.29987e-20)
(-2.50327 0.796977 0)
(-2.60789 0.761672 5.90736e-20)
(-2.70516 0.723226 0)
(-2.79646 0.683402 5.67929e-20)
(-2.8828 0.643548 2.737e-20)
(-2.96512 0.604636 0)
(-3.0441 0.567338 0)
(-3.12027 0.532066 0)
(-3.19397 0.499035 0)
(-3.26548 0.468295 0)
(-3.33495 0.439802 0)
(-3.40247 0.413415 5.4537e-20)
(-3.46809 0.38897 -8.17804e-20)
(-3.53183 0.366254 0)
(-3.59366 0.345068 0)
(-3.65354 0.325187 0)
(-3.71144 0.306418 6.31027e-23)
(-3.76729 0.288549 5.55892e-20)
(-3.82101 0.271409 1.11568e-19)
(-3.87252 0.254813 -1.12107e-19)
(-3.92175 0.238622 -5.62049e-20)
(-3.96862 0.222681 5.67511e-20)
(-4.01302 0.206889 -2.83465e-22)
(-4.05486 0.191121 5.70663e-20)
(-4.09401 0.175316 0)
(-4.13037 0.159386 5.77093e-20)
(-4.16376 0.143309 -2.64511e-22)
(-4.19402 0.127014 0)
(-4.22096 0.110491 0)
(-4.2444 0.093677 -5.91167e-20)
(-4.2641 0.0765847 0)
(-4.27979 0.0591479 0)
(-4.29117 0.0413795 6.00049e-20)
(-4.29787 0.0232185 1.20804e-19)
(-4.29958 0.00470012 -6.05674e-20)
(-4.29584 -0.01422 0)
(-4.2864 -0.0334425 6.05453e-20)
(-4.271 -0.0529475 0)
(-4.24942 -0.072593 6.0543e-20)
(-4.22146 -0.092353 5.9781e-20)
(-4.18704 -0.112094 -1.19213e-19)
(-4.14605 -0.131728 -5.94521e-20)
(-4.09842 -0.151048 0)
(-4.04415 -0.170042 1.14544e-19)
(-3.98326 -0.188511 0)
(-3.9159 -0.206152 1.64004e-19)
(-3.84207 -0.222782 1.07056e-19)
(-3.76201 -0.238364 1.03775e-19)
(-3.67598 -0.252911 -9.99477e-20)
(-3.58451 -0.266396 1.42212e-19)
(-3.4882 -0.27848 0)
(-3.38702 -0.28925 0)
(-3.28156 -0.29847 -8.03246e-20)
(-3.17224 -0.30625 -1.10592e-19)
(-3.05971 -0.312499 0)
(-2.94448 -0.317186 2.9721e-20)
(-2.82701 -0.320394 0)
(-2.70781 -0.322158 -7.19005e-20)
(-2.58736 -0.322598 2.89301e-21)
(-2.4662 -0.321759 -2.88175e-21)
(-2.3448 -0.319823 2.73961e-20)
(-2.22375 -0.31689 0)
(-2.10339 -0.313226 -1.25501e-20)
(-1.98432 -0.308696 2.73726e-21)
(-1.86648 -0.303348 0)
(-1.7499 -0.297187 0)
(-1.63489 -0.29043 0)
(-1.52169 -0.283228 -2.71117e-20)
(-1.41046 -0.275734 0)
(-1.30135 -0.268052 0)
(-1.19442 -0.260266 0)
(-1.08971 -0.252451 0)
(-0.987259 -0.244667 0)
(-0.88705 -0.236975 -6.71548e-20)
(-0.789046 -0.229397 0)
(-0.693192 -0.22197 -8.27616e-20)
(-0.599419 -0.214697 -8.93533e-20)
(-0.507702 -0.207639 9.58657e-20)
(-0.418021 -0.200833 0)
(-0.330357 -0.194347 1.0868e-19)
(-0.244663 -0.188185 0)
(-0.160863 -0.182387 1.21262e-19)
(-0.0788789 -0.176926 -1.2749e-19)
(0.00149114 -0.171806 -3.93117e-19)
(0.0802871 -0.167001 0)
(0.157488 -0.162442 -4.11505e-19)
(0.233153 -0.15805 -1.37845e-19)
(0.307325 -0.153798 0)
(0.380073 -0.149682 -2.89395e-19)
(0.451449 -0.145704 -2.94392e-19)
(0.521415 -0.141818 4.50377e-19)
(0.589997 -0.137978 0)
(0.657302 -0.134181 1.55754e-19)
(0.723434 -0.130451 1.58021e-19)
(0.788483 -0.126823 4.78273e-19)
(0.852487 -0.123303 0)
(0.915419 -0.119901 0)
(0.977238 -0.116599 0)
(1.03791 -0.113368 1.66383e-19)
(1.09744 -0.110237 0)
(1.15584 -0.107212 0)
(1.21312 -0.104265 -1.74196e-19)
(1.26928 -0.101414 -1.76043e-19)
(1.32434 -0.0986192 0)
(1.37831 -0.0958607 0)
(1.4312 -0.0931642 -3.62499e-19)
(1.48303 -0.0905719 0)
(1.53381 -0.0880679 3.69002e-19)
(1.58352 -0.0856062 3.70469e-19)
(1.63217 -0.0831513 0)
(1.67976 -0.0807605 0)
(1.72634 -0.0784878 -3.78525e-19)
(1.77189 -0.0762803 -1.27194e-21)
(1.8164 -0.0740572 -1.2308e-21)
(1.85992 -0.0718178 0)
(1.90254 -0.0695955 -7.76108e-19)
(1.94426 -0.0673933 0)
(1.98501 -0.0652004 0)
(2.02483 -0.0630544 0)
(2.06372 -0.060959 3.93861e-19)
(2.10167 -0.0589467 0)
(2.13869 -0.0569476 -7.87837e-19)
(2.17473 -0.0549121 -3.95008e-19)
(2.20963 -0.0528445 0)
(2.24328 -0.0506172 -3.94595e-19)
(2.27564 -0.0481222 0)
(2.30669 -0.0453448 0)
(2.33632 -0.042233 -1.17494e-18)
(2.36438 -0.0388007 7.81216e-19)
(2.39101 -0.0352701 0)
(2.41646 -0.0319929 7.82062e-19)
(2.44107 -0.0293665 -3.94647e-19)
(2.46507 -0.0276548 0)
(2.48897 -0.026904 0)
(2.51315 -0.0268662 0)
(2.53755 -0.0279129 -1.33782e-18)
(2.56216 -0.0295361 0)
(2.58503 -0.0312145 -4.95286e-19)
(2.6049 -0.0325599 0)
(2.62316 -0.0306508 0)
(2.63916 -0.0292503 0)
(2.65323 -0.0302413 0)
(2.66477 -0.0292621 0)
(2.67635 -0.027221 0)
(2.68826 -0.0247448 -1.09625e-18)
(2.70067 -0.0221449 0)
(2.7129 -0.0193176 -5.50259e-19)
(2.72352 -0.0160982 1.64798e-18)
(2.73297 -0.0125843 0)
(2.74008 -0.00807473 0)
(2.74483 -0.00140789 -1.1058e-18)
(2.74463 0.00927448 -1.11037e-18)
(2.74386 0.0291506 1.09331e-18)
(2.73131 0.0656605 1.10357e-18)
(0.00159085 -0.711273 -5.76276e-19)
(0.0230758 -0.632483 -3.34051e-19)
(0.0125211 -0.511328 -1.71144e-19)
(-0.00771776 -0.385234 -7.39528e-20)
(-0.0371345 -0.2606 0)
(-0.0767401 -0.139088 1.33747e-19)
(-0.127009 -0.0218002 -6.59945e-20)
(-0.18826 0.0908355 0)
(-0.261141 0.198559 -6.29226e-20)
(-0.346841 0.301034 0)
(-0.447289 0.398671 1.16471e-19)
(-0.564549 0.493096 0)
(-0.699374 0.586289 5.19267e-20)
(-0.850283 0.678859 9.67255e-20)
(-1.01344 0.769576 -8.99012e-20)
(-1.18337 0.855517 0)
(-1.35326 0.932411 -7.80916e-20)
(-1.51635 0.995781 0)
(-1.66829 1.04335 0)
(-1.80655 1.07437 -6.4488e-20)
(-1.93048 1.0893 0)
(-2.04065 1.08939 -4.01239e-22)
(-2.13852 1.0764 0)
(-2.22611 1.05243 0)
(-2.30551 1.01992 1.00011e-21)
(-2.3787 0.981202 -4.88052e-20)
(-2.44749 0.938421 -4.8631e-20)
(-2.51335 0.893449 -4.64386e-20)
(-2.57738 0.847821 0)
(-2.64037 0.802631 -9.11867e-20)
(-2.70278 0.758696 0)
(-2.76492 0.716585 -4.52234e-20)
(-2.8269 0.676643 0)
(-2.88873 0.639037 0)
(-2.95035 0.603801 4.46024e-20)
(-3.01165 0.570872 0)
(-3.07249 0.540122 -4.45159e-20)
(-3.13273 0.51137 3.55865e-22)
(-3.19222 0.484422 8.8927e-20)
(-3.25082 0.459062 -8.94093e-20)
(-3.30838 0.43508 0)
(-3.36476 0.412261 0)
(-3.41983 0.390403 -4.52233e-20)
(-3.47346 0.369309 0)
(-3.52552 0.348801 -4.55472e-20)
(-3.57587 0.328706 4.58003e-20)
(-3.62438 0.30887 4.6062e-20)
(-3.67092 0.28915 0)
(-3.71535 0.269421 -4.66163e-20)
(-3.75751 0.249567 -4.69097e-20)
(-3.79724 0.229497 9.42557e-20)
(-3.83436 0.209122 -4.75271e-20)
(-3.86865 0.188379 -4.78494e-20)
(-3.89989 0.167194 0)
(-3.92783 0.145511 0)
(-3.95222 0.123271 4.88439e-20)
(-3.97276 0.100441 0)
(-3.98914 0.0769768 0)
(-4.00107 0.0528639 -9.95265e-20)
(-4.00822 0.0280904 -9.9947e-20)
(-4.01032 0.00268176 0)
(-4.00704 -0.0233358 0)
(-3.99814 -0.0498741 0)
(-3.98336 -0.0768462 0)
(-3.96249 -0.104117 -9.95932e-20)
(-3.93533 -0.131551 9.98914e-20)
(-3.90173 -0.158985 9.82328e-20)
(-3.86156 -0.186262 1.95507e-19)
(-3.81476 -0.213178 0)
(-3.7613 -0.239559 1.41081e-21)
(-3.70124 -0.265157 0)
(-3.63465 -0.289723 -9.02031e-20)