/*--------------------------------*- C++ -*----------------------------------*\
  =========                 |
  \\      /  F ield         | OpenFOAM: The Open Source CFD Toolbox
   \\    /   O peration     | Website:  https://openfoam.org
    \\  /    A nd           | Version:  9
     \\/     M anipulation  |
\*---------------------------------------------------------------------------*/
FoamFile
{
    format      ascii;
    class       volScalarField;
    location    "0.65";
    object      epsilon;
}
// * * * * * * * * * * * * * * * * * * * * * * * * * * * * * * * * * * * * * //

dimensions      [0 2 -3 0 0 0 0];

internalField   nonuniform List<scalar> 
2268
(
0.0254685
0.0725421
0.125162
0.179136
0.2256
0.266676
0.304731
0.341186
0.376373
0.410285
0.442427
0.471519
0.495621
0.512573
0.521051
0.516587
0.495417
0.455389
0.397249
0.325491
0.254853
0.186989
0.128232
0.0320755
0.0502332
0.0735567
0.0974079
0.118516
0.137222
0.154589
0.171235
0.187311
0.202764
0.217384
0.23077
0.242338
0.251413
0.257786
0.260333
0.257533
0.248235
0.231535
0.206959
0.177705
0.145703
0.148463
0.0394156
0.0458907
0.0642164
0.0828849
0.0993388
0.113787
0.127026
0.139591
0.151693
0.163354
0.174473
0.184827
0.194113
0.202016
0.208278
0.212407
0.213617
0.211229
0.204523
0.192791
0.177657
0.166276
0.218306
0.0411203
0.0449372
0.0613446
0.0779429
0.0925796
0.105387
0.117021
0.127961
0.138453
0.148581
0.158307
0.167508
0.17599
0.183544
0.189967
0.194969
0.198119
0.199037
0.197328
0.192807
0.187458
0.192772
0.296288
0.0415768
0.0459067
0.0610385
0.0763882
0.0900924
0.102114
0.112953
0.123056
0.132702
0.142024
0.15105
0.159689
0.167809
0.175268
0.181919
0.187581
0.192034
0.195138
0.196862
0.197751
0.201116
0.22344
0.385339
0.0426567
0.0482948
0.0625294
0.0770382
0.0901237
0.101613
0.111916
0.121468
0.130576
0.139411
0.148029
0.15636
0.164309
0.171784
0.178693
0.184934
0.190439
0.195274
0.199768
0.205237
0.216871
0.257221
0.48934
0.0445172
0.0526917
0.066041
0.0796867
0.0921122
0.103036
0.112819
0.121897
0.130588
0.139079
0.147435
0.155587
0.16346
0.171009
0.178194
0.184985
0.191431
0.197768
0.204643
0.21406
0.233148
0.293717
0.649208
0.0518395
0.0606784
0.0720145
0.0843131
0.0958026
0.105971
0.115121
0.123698
0.132
0.140214
0.148386
0.156432
0.16428
0.171934
0.17941
0.186741
0.194064
0.201744
0.210668
0.223282
0.247757
0.326721
1.03616
3.95348
11.2848
16.4591
19.9568
21.0285
20.1908
19.2173
18.3894
17.3209
15.9427
14.5465
13.3977
12.6719
12.273
11.4558
9.63348
7.09757
4.23177
1.01492
6.13762
14.6475
17.0957
17.5157
14.1746
11.2051
10.1895
9.67392
9.15113
8.46626
7.67089
6.8332
6.10569
5.55548
5.00464
4.26015
3.34452
2.36546
1.32279
8.64212
28.1526
40.6286
40.9943
22.5074
13.3235
10.5009
9.51593
8.95339
8.25238
7.42693
6.28522
5.26143
4.56762
4.01137
3.42639
2.79658
2.19785
1.71807
6.76069
46.2817
73.6429
60.7187
35.3315
17.8267
11.8523
10.0036
9.40299
8.99364
8.29546
6.53573
5.05944
4.15971
3.56506
3.0479
2.55757
2.14689
1.97235
4.73177
28.0707
52.4505
52.8319
39.871
20.5002
12.161
9.82756
9.13035
8.93039
8.30422
6.76488
4.92109
3.8426
3.23723
2.77689
2.38305
2.09373
2.16218
2.86923
32.943
36.5865
40.4863
36.2922
21.9533
12.2591
9.43331
8.4793
7.82768
6.95294
6.04515
4.62666
3.53597
2.96309
2.56124
2.24018
2.03783
2.32666
2.35064
15.8573
28.3552
30.1846
30.5196
21.8519
12.1408
9.0653
7.90633
7.02312
6.03316
5.14298
4.24058
3.27069
2.74173
2.39347
2.1269
1.99067
2.48166
2.71328
7.071
19.9256
23.0819
25.6153
20.2773
11.7184
8.8088
7.56693
6.57321
5.54916
4.66918
3.93742
3.07565
2.57546
2.27129
2.04377
1.95704
2.63377
0.0889868
0.0798695
0.084989
0.0943063
0.103886
0.112515
0.120402
0.128075
0.135758
0.143581
0.151524
0.159465
0.167313
0.175158
0.183104
0.191262
0.19987
0.209421
0.221006
0.237095
0.263836
0.321591
0.494145
0.159924
0.120041
0.112429
0.114997
0.120608
0.125552
0.13047
0.136608
0.143461
0.150871
0.158723
0.166673
0.174504
0.182566
0.191093
0.200247
0.210305
0.221713
0.2354
0.253048
0.277752
0.317267
0.388808
0.2361
0.154322
0.135664
0.131753
0.132919
0.135943
0.140231
0.145971
0.152599
0.160081
0.168291
0.176255
0.183639
0.191698
0.200645
0.210552
0.221691
0.234267
0.248873
0.266321
0.288051
0.317432
0.359563
0.279834
0.161885
0.148109
0.144787
0.144283
0.14497
0.147885
0.153073
0.159926
0.16829
0.17747
0.186142
0.19386
0.201997
0.211105
0.221189
0.232883
0.246183
0.261075
0.277579
0.296935
0.321429
0.354197
0.282154
0.164247
0.149892
0.14762
0.148039
0.149426
0.152125
0.156618
0.162964
0.171105
0.180408
0.189803
0.19912
0.20886
0.219731
0.231114
0.243014
0.256567
0.271518
0.286886
0.304756
0.327415
0.357754
0.280717
0.160541
0.146506
0.145365
0.147194
0.14996
0.153562
0.158363
0.164583
0.172228
0.180873
0.189872
0.199259
0.209732
0.221429
0.233748
0.246338
0.260185
0.275949
0.293042
0.311349
0.334475
0.367982
0.276556
0.155725
0.141307
0.14057
0.143417
0.147532
0.152425
0.158149
0.164858
0.172587
0.181102
0.190018
0.199315
0.209436
0.220595
0.232667
0.245867
0.260916
0.277673
0.295285
0.315283
0.341801
0.379988
0.272496
0.150788
0.135631
0.134791
0.138114
0.143118
0.149066
0.155799
0.163298
0.171555
0.180423
0.189659
0.199199
0.209279
0.22014
0.231899
0.244819
0.259355
0.27568
0.29387
0.315261
0.342197
0.37544
0.269003
0.145989
0.129926
0.128699
0.132076
0.137492
0.144081
0.151541
0.159767
0.168654
0.178074
0.187851
0.197898
0.20831
0.219267
0.230937
0.24356
0.257493
0.27308
0.290735
0.311372
0.336187
0.36564
0.265203
0.141212
0.124291
0.122555
0.125714
0.131173
0.13801
0.145847
0.154511
0.163885
0.173806
0.184123
0.194732
0.205639
0.216938
0.228761
0.241305
0.254868
0.26982
0.286628
0.30598
0.328736
0.355805
0.260455
0.136292
0.118738
0.11647
0.119255
0.124505
0.131282
0.13918
0.147988
0.157569
0.167794
0.178503
0.189573
0.200958
0.212681
0.224817
0.237516
0.251018
0.265666
0.281904
0.300335
0.32177
0.347361
0.254277
0.131147
0.113256
0.110513
0.112853
0.117735
0.124234
0.131942
0.140641
0.150189
0.160458
0.171327
0.18268
0.194425
0.206536
0.219046
0.232056
0.245762
0.260463
0.276583
0.294714
0.315715
0.340912
0.246559
0.125792
0.107865
0.104751
0.106629
0.111055
0.117134
0.124473
0.132866
0.142176
0.152293
0.163108
0.174521
0.186456
0.198858
0.211722
0.225115
0.239193
0.254226
0.270627
0.289018
0.310351
0.336139
0.237495
0.12031
0.102622
0.099247
0.100693
0.104618
0.110197
0.117052
0.124998
0.133918
0.143722
0.154322
0.165637
0.177598
0.190155
0.203302
0.217082
0.231618
0.24716
0.264123
0.283176
0.305391
0.332506
0.227459
0.114827
0.0976051
0.0940662
0.0951276
0.0985609
0.10359
0.109896
0.11731
0.125738
0.135113
0.145376
0.156469
0.168341
0.180955
0.194304
0.208434
0.223461
0.239613
0.257317
0.277294
0.300742
0.329639
0.216907
0.109492
0.0928971
0.0892732
0.0899963
0.0929646
0.0974554
0.103179
0.110012
0.117892
0.126769
0.136615
0.1474
0.159099
0.171697
0.185197
0.199647
0.215172
0.231999
0.250562
0.271629
0.296513
0.327411
0.206311
0.104452
0.0885805
0.0849273
0.0853525
0.087887
0.0918641
0.0970253
0.10327
0.110568
0.118917
0.128304
0.138735
0.150212
0.162747
0.176366
0.19113
0.207165
0.224719
0.244228
0.266498
0.292924
0.325866
0.196106
0.0998419
0.0847291
0.0810778
0.0812363
0.0833681
0.0868618
0.0914905
0.0971772
0.103912
0.111719
0.120632
0.130695
0.14193
0.154386
0.168114
0.183197
0.199774
0.218104
0.238637
0.262194
0.29021
0.32512
0.18666
0.0957785
0.081404
0.0777628
0.0776743
0.0794301
0.0824719
0.0866022
0.0917667
0.0979771
0.105279
0.113736
0.123421
0.134416
0.146798
0.160644
0.176067
0.193226
0.212389
0.234019
0.258932
0.288555
0.325293
0.178262
0.0923515
0.0786511
0.0750073
0.0746796
0.0760796
0.0786979
0.0823645
0.0870453
0.0927719
0.099612
0.107655
0.117006
0.127776
0.140086
0.154069
0.169864
0.187648
0.207705
0.230502
0.256833
0.288065
0.326479
0.171114
0.0896237
0.0765
0.0728234
0.0722529
0.0733093
0.0755276
0.0787619
0.082996
0.0882791
0.0946997
0.102372
0.111431
0.122023
0.134305
0.148445
0.164627
0.183078
0.204089
0.228117
0.255921
0.288773
0.328738
0.165335
0.0876297
0.0749629
0.0712099
0.070383
0.0711001
0.0729355
0.0757636
0.0795834
0.0844596
0.090499
0.0978397
0.106645
0.117096
0.12939
0.143734
0.160352
0.179496
0.20149
0.226809
0.256144
0.290638
0.332092
0.160973
0.0863777
0.074035
0.0701529
0.069048
0.0694232
0.0708861
0.073328
0.0767599
0.0812591
0.0869486
0.0939882
0.102569
0.112907
0.12524
0.139818
0.156909
0.176798
0.199827
0.226455
0.257371
0.293556
0.336508
0.158014
0.0858522
0.0736959
0.0696263
0.0682164
0.0682416
0.0693368
0.0714062
0.0744696
0.078614
0.0839763
0.0907356
0.0991092
0.109348
0.12173
0.136553
0.15413
0.174789
0.198895
0.226894
0.259408
0.29735
0.34188
0.156403
0.0860181
0.0739108
0.0695934
0.0678486
0.0675121
0.0682401
0.0699452
0.0726528
0.0764566
0.0815043
0.0879921
0.096162
0.106298
0.11872
0.133773
0.151822
0.173243
0.198432
0.227837
0.262014
0.301754
0.348001
0.156057
0.086826
0.0746343
0.0700092
0.0678992
0.0671874
0.0675456
0.0688905
0.0712492
0.0747188
0.0794549
0.0856677
0.0936212
0.103631
0.116057
0.131298
0.14977
0.171905
0.198143
0.228945
0.264829
0.306431
0.354543
0.156882
0.0882169
0.0758126
0.0708229
0.0683184
0.0672183
0.0672031
0.0681891
0.0702012
0.0733365
0.0777547
0.0836767
0.0913851
0.101224
0.113594
0.128943
0.147748
0.170502
0.197699
0.229834
0.267412
0.31095
0.361034
0.158777
0.0901272
0.0773885
0.0719806
0.0690556
0.0675559
0.0671641
0.0677915
0.0694566
0.0722526
0.0763392
0.0819437
0.0893632
0.0989663
0.11119
0.126533
0.145533
0.168752
0.196751
0.23008
0.26926
0.314745
0.366901
0.161639
0.0924926
0.0793045
0.0734296
0.0700618
0.0681541
0.0673846
0.0676543
0.068971
0.0714197
0.0751558
0.0804079
0.0874819
0.0967653
0.108727
0.123911
0.142918
0.166385
0.194953
0.229245
0.269831
0.317163
0.371454
0.165367
0.0952539
0.081508
0.0751212
0.0712922
0.068972
0.0678267
0.0677418
0.0687099
0.0708029
0.0741672
0.0790269
0.0856902
0.0945558
0.106116
0.120956
0.139734
0.163165
0.19198
0.226896
0.268568
0.317495
0.373839
0.169884
0.0983646
0.0839559
0.0770147
0.0727093
0.0699759
0.0684607
0.068028
0.0686502
0.0703814
0.0733536
0.0777802
0.083964
0.0923058
0.103312
0.117596
0.135868
0.158915
0.187567
0.222653
0.264942
0.315034
0.373142
0.175176
0.101803
0.0866204
0.0790809
0.0742856
0.0711416
0.0692668
0.068498
0.068782
0.0701501
0.0727142
0.0766709
0.0823094
0.0900222
0.100316
0.113819
0.131278
0.153546
0.181545
0.216228
0.258507
0.309133
0.368459
0.181343
0.105585
0.0894965
0.0813062
0.0760058
0.0724563
0.0702372
0.0691499
0.06911
0.0701208
0.0722688
0.0757274
0.0807642
0.0877524
0.0971844
0.109685
0.126017
0.147078
0.173873
0.207479
0.248966
0.299279
0.358986
0.188651
0.109786
0.0926109
0.0836974
0.0778704
0.0739217
0.0713782
0.069997
0.0696555
0.0703238
0.0720584
0.0750035
0.0793977
0.0855844
0.0940269
0.105325
0.120233
0.139663
0.164679
0.19646
0.236242
0.285184
0.34413
0.1976
0.114569
0.0960353
0.086287
0.0798975
0.0755552
0.072713
0.0710706
0.0704592
0.0708107
0.0721469
0.0745787
0.0783097
0.0836445
0.0910033
0.100942
0.114174
0.131591
0.154271
0.183466
0.220547
0.2669
0.323685
0.209053
0.120232
0.0999029
0.0891358
0.0821236
0.0773918
0.0742846
0.0724242
0.0715858
0.0716575
0.0726239
0.0745596
0.0776293
0.0820926
0.0883161
0.0967929
0.108169
0.123274
0.143146
0.169048
0.20244
0.2449
0.297921
0.224477
0.127298
0.104422
0.0923242
0.0845944
0.0794818
0.0761588
0.0741396
0.0731305
0.072972
0.0736103
0.0750837
0.0775166
0.0811204
0.0862018
0.0931788
0.102607
0.115216
0.131947
0.153998
0.182834
0.220158
0.267758
0.246517
0.136651
0.109846
0.0959018
0.0873368
0.0818826
0.0784278
0.0763352
0.0752298
0.0749037
0.075268
0.0763272
0.0781675
0.0809524
0.0849265
0.0904268
0.0979054
0.107963
0.121399
0.139266
0.162936
0.19413
0.234852
0.280615
0.14963
0.116236
0.099727
0.0902943
0.0846461
0.0812188
0.0791822
0.0780787
0.0776615
0.0778159
0.0785204
0.0798275
0.081856
0.08479
0.0888858
0.094488
0.102058
0.112218
0.125826
0.144069
0.16858
0.201509
0.34022
0.167192
0.122561
0.103111
0.0932388
0.0878215
0.0847205
0.0829335
0.0819588
0.0815401
0.0815565
0.0819726
0.0828153
0.0841635
0.086145
0.088939
0.0927861
0.0980079
0.105046
0.11453
0.127412
0.145193
0.170245
0.465139
0.183752
0.124535
0.104442
0.0958063
0.091543
0.0892548
0.0879793
0.0872836
0.0869606
0.0869141
0.0871112
0.0875625
0.0883125
0.0894366
0.0910417
0.0932698
0.0963106
0.100426
0.106013
0.113752
0.125003
0.142773
0.746073
0.164134
0.113348
0.101985
0.0980533
0.0963126
0.0954224
0.0949337
0.094664
0.0945304
0.0944944
0.0945422
0.0946756
0.0949093
0.0952687
0.0957899
0.0965206
0.0975235
0.0988853
0.100747
0.103411
0.107812
0.117794
1.4228
1.24493
1.27761
1.62081
0.494211
0.539723
0.60661
0.738906
0.406612
0.445518
0.50519
0.611233
0.390054
0.421349
0.467496
0.541843
0.390459
0.41703
0.45194
0.50202
0.406201
0.432743
0.455508
0.487255
0.415172
0.43589
0.461598
0.489389
0.403748
0.424516
0.451104
0.483378
0.391409
0.410734
0.43422
0.462799
0.380286
0.398692
0.420204
0.445495
0.370819
0.388451
0.408727
0.432169
0.3642
0.381718
0.401795
0.424925
0.360224
0.378386
0.399277
0.423445
0.35815
0.377547
0.400002
0.42616
0.357299
0.378268
0.402692
0.431323
0.357245
0.379869
0.406324
0.437453
0.357782
0.38193
0.410187
0.443437
0.358852
0.384242
0.413859
0.448564
0.360481
0.386755
0.417192
0.452567
0.362753
0.389558
0.42029
0.45559
0.365801
0.392859
0.423488
0.458175
0.369763
0.396906
0.427202
0.460987
0.374734
0.40191
0.431803
0.464613
0.380727
0.407984
0.437537
0.469466
0.387637
0.415102
0.444481
0.475752
0.395204
0.423063
0.452509
0.483436
0.403001
0.431471
0.46127
0.49222
0.410417
0.439721
0.470172
0.501531
0.416653
0.447
0.478387
0.510523
0.420857
0.452341
0.484862
0.51809
0.421963
0.454663
0.48842
0.522906
0.418851
0.452697
0.487726
0.523584
0.410449
0.445187
0.481315
0.518477
0.395864
0.431024
0.467852
0.506009
0.374548
0.409426
0.446293
0.484846
0.346487
0.380157
0.416144
0.454201
0.312429
0.343809
0.377793
0.414207
0.274107
0.302109
0.332902
0.366401
0.234324
0.258153
0.284809
0.314291
0.196713
0.216328
0.238645
0.263696
0.165035
0.181723
0.20079
0.222245
0.143183
0.15995
0.178082
0.197937
1.38719
4.60323
14.2911
16.3599
18.4636
16.0815
10.9412
8.60835
7.40989
6.35998
5.29029
4.36252
3.67974
2.8905
2.42984
2.17145
1.97852
1.93604
2.7976
1.15477
4.1032
13.3312
14.4652
14.4892
12.8385
10.0919
8.53687
7.58583
6.55185
5.2965
4.17934
3.39858
2.73398
2.37059
2.14233
1.96894
1.9637
3.1031
0.958887
2.9831
8.94156
14.7539
13.7631
11.6805
9.59562
8.31252
7.50846
6.60283
5.31857
4.05247
3.25794
2.7598
2.43277
2.18945
2.00311
2.00311
3.29884
0.754067
1.7389
4.81552
11.0901
13.796
11.9905
9.83477
8.34201
7.3782
6.48084
5.42286
4.2282
3.4009
2.91577
2.56648
2.27032
2.03805
2.01213
3.34769
0.627218
1.0989
2.44639
5.52776
9.04002
10.0249
9.02752
7.65606
6.59558
5.77607
5.25779
4.50161
3.59163
3.12601
2.72133
2.33992
2.03969
1.96532
3.24658
0.56351
0.808625
1.4113
2.74852
4.55879
5.7672
5.979
5.58155
5.04694
5.10267
5.2185
4.19197
3.72312
3.34219
2.85174
2.36913
1.99476
1.84809
2.91829
0.545743
0.686742
0.983724
1.56529
2.42148
3.17054
3.55226
3.62839
3.75045
4.28647
4.14341
3.99431
3.94591
3.55709
2.92608
2.3437
1.9096
1.67917
2.35416
0.545928
0.649392
0.818032
1.10496
1.51981
1.96369
2.31575
2.54563
2.849
3.34299
3.72913
4.15597
4.24262
3.69672
2.92498
2.28256
1.82294
1.53741
1.81033
0.520022
0.637303
0.766497
0.958267
1.19033
1.47242
1.7648
2.05728
2.45382
3.05725
3.79836
4.45141
4.40694
3.72015
2.88851
2.25767
1.81922
1.50524
1.54698
0.49499
0.593238
0.729864
0.908073
1.1188
1.33711
1.60581
1.93627
2.40439
3.10825
3.99431
4.63101
4.42356
3.73735
2.87785
2.25116
1.87759
1.55803
1.57004
0.477655
0.566277
0.694322
0.870981
1.09761
1.36383
1.6883
2.04765
2.56222
3.31153
4.23003
4.71705
4.61795
3.94988
2.92973
2.19503
1.82518
1.78923
1.51225
0.469752
0.557173
0.684538
0.864804
1.10287
1.40464
1.79914
2.26689
2.86508
3.65047
4.57955
5.18765
5.82939
4.57607
3.2078
2.30503
1.86097
1.78223
1.26133
0.470522
0.563653
0.701119
0.900316
1.17754
1.55269
2.03801
2.5907
3.27954
4.17835
5.37288
6.77279
7.64514
5.82342
4.1051
2.75924
2.084
1.82227
1.52291
0.477496
0.581293
0.73763
0.970829
1.3041
1.76075
2.35125
3.04175
3.85567
4.88472
6.2483
7.79584
8.24409
8.4646
6.00909
3.68117
2.50524
2.01715
1.90751
0.487877
0.604682
0.784361
1.05554
1.443
1.96748
2.63046
3.40924
4.31375
5.3515
6.39188
7.05239
7.24105
7.08674
6.12938
4.45403
2.75804
2.11457
2.17175
0.499159
0.628475
0.828825
1.12851
1.55377
2.11671
2.80779
3.60211
4.46379
5.27073
5.79668
5.95124
6.18057
6.39356
4.96075
3.36163
2.40671
2.05968
2.29048
0.509323
0.648003
0.85965
1.17309
1.61165
2.17887
2.85461
3.6006
4.33976
4.91945
5.20303
5.45739
6.42568
6.09069
3.94442
2.77878
2.17406
1.9866
2.35853
0.516983
0.659486
0.872496
1.18345
1.61175
2.15477
2.784
3.44934
4.06288
4.49886
4.74511
5.30314
6.53042
5.59666
3.69048
2.67052
2.14681
1.99754
2.51446
0.521664
0.662256
0.867842
1.16258
1.56239
2.06156
2.62769
3.20644
3.7175
4.07656
4.3682
5.11617
6.26116
5.32029
3.70199
2.73249
2.21889
2.07419
2.81175
0.523643
0.657937
0.849529
1.11855
1.47808
1.92199
2.41872
2.91638
3.34991
3.67789
4.04433
4.93055
6.04648
5.38061
3.90025
2.88633
2.34733
2.19759
3.21223
0.524032
0.649123
0.822868
1.06116
1.3748
1.75889
2.1863
2.61222
2.99067
3.32017
3.78124
4.73283
5.77483
5.43298
4.1541
3.0975
2.51322
2.35339
3.67925
0.524088
0.639158
0.79347
0.999919
1.26746
1.59317
1.95601
2.32072
2.65842
2.99933
3.52674
4.47644
5.4343
5.36189
4.32731
3.31578
2.70004
2.52071
4.1907
0.524861
0.630117
0.76601
0.94253
1.16695
1.4381
1.74157
2.05332
2.36095
2.71241
3.27125
4.18002
5.0787
5.21651
4.45727
3.51317
2.86989
2.69197
4.72981
0.52711
0.623451
0.74275
0.892517
1.07866
1.30154
1.55292
1.81961
2.10267
2.45726
3.0199
3.87538
4.74023
5.0559
4.56685
3.67126
2.98207
2.8324
5.15785
0.531293
0.620113
0.725255
0.852227
1.00589
1.18795
1.39536
1.62402
1.88482
2.23341
2.7795
3.57325
4.39951
4.84489
4.61669
3.73914
3.03052
2.93324
5.45068
0.537553
0.620567
0.714338
0.822796
0.950052
1.09891
1.27038
1.46726
1.7068
2.04122
2.55588
3.27812
4.04193
4.55265
4.55338
3.74823
3.06462
3.00523
5.64697
0.545697
0.624785
0.710095
0.804311
0.910996
1.03382
1.17677
1.34744
1.56655
1.88073
2.35431
2.99857
3.68573
4.20476
4.39733
3.76666
3.10185
3.05605
5.7475
0.555184
0.632265
0.711988
0.796018
0.887479
0.990678
1.11166
1.26106
1.46081
1.75098
2.17839
2.74354
3.34917
3.85457
4.20542
3.7941
3.15634
3.08946
5.71957
0.565135
0.642061
0.71893
0.796516
0.877523
0.966649
1.07129
1.20377
1.38569
1.65044
2.03089
2.52194
3.05364
3.53926
3.93838
3.83891
3.25892
3.11141
5.55295
0.57434
0.652815
0.729355
0.803895
0.878655
0.958474
1.05152
1.17089
1.33704
1.57728
1.91398
2.33957
2.80627
3.26321
3.6725
3.80196
3.35066
3.12336
5.28796
0.58129
0.662781
0.741261
0.815805
0.888022
0.962615
1.04807
1.15763
1.31033
1.52853
1.8268
2.19563
2.60012
3.00487
3.37724
3.61449
3.38411
3.15094
5.0274
0.584231
0.669864
0.752224
0.829466
0.902406
0.975286
1.05646
1.15889
1.30018
1.49884
1.7639
2.08346
2.42764
2.76622
3.07243
3.29074
3.32404
3.22981
4.95898
0.581354
0.671665
0.759421
0.841644
0.918177
0.99242
1.07207
1.16936
1.30035
1.4807
1.71533
1.98965
2.27723
2.55169
2.79777
2.99877
3.16172
3.30413
5.30949
0.570802
0.665584
0.759683
0.848623
0.931181
1.00958
1.09027
1.18405
1.30499
1.46618
1.66961
1.89843
2.13041
2.35017
2.55893
2.77555
3.04661
3.28798
5.33328
0.550722
0.649188
0.749645
0.846254
0.936636
1.02165
1.10606
1.19848
1.31012
1.45087
1.62057
1.80354
1.98533
2.16713
2.36123
2.60194
2.93268
3.19437
5.214
0.519798
0.620358
0.726051
0.830195
0.929207
1.02254
1.11315
1.20715
1.3123
1.43403
1.57062
1.71521
1.86105
2.01297
2.19823
2.46088
2.83306
3.06451
4.83291
0.477693
0.577851
0.686402
0.796582
0.903599
1.00557
1.10365
1.20161
1.30408
1.41305
1.52577
1.63999
1.75387
1.87588
2.04234
2.30551
2.7096
2.89296
4.18192
0.425659
0.522164
0.630051
0.743299
0.856045
0.965154
1.07005
1.17236
1.27439
1.37673
1.47602
1.5681
1.65164
1.73528
1.8526
2.065
2.43522
2.68753
3.96372
0.367355
0.456682
0.559795
0.671902
0.786651
0.899778
1.009
1.11396
1.21511
1.31193
1.40111
1.47614
1.53013
1.56786
1.61893
1.73321
1.96314
2.39107
4.5154
0.309556
0.389017
0.483612
0.590047
0.702355
0.815424
0.925351
1.02984
1.12755
1.21667
1.29326
1.3492
1.36994
1.35294
1.33913
1.37123
1.4987
1.83497
4.21747
0.261796
0.331124
0.415545
0.513263
0.619492
0.728753
0.835831
0.936593
1.02777
1.1059
1.16546
1.19458
1.16458
1.04054
0.945719
0.905579
0.944651
1.15975
3.09603
0.234079
0.29662
0.373229
0.463154
0.562797
0.666876
0.769639
0.865853
0.950819
1.01922
1.06232
1.05939
0.947715
0.482351
0.345537
0.306047
0.305106
0.368213
2.19742
)
;

boundaryField
{
    leftWall
    {
        type            epsilonWallFunction;
        value           nonuniform List<scalar> 
50
(
0.0254685
0.0320755
0.0394156
0.0411203
0.0415768
0.0426567
0.0445172
0.0518395
0.0889868
0.159924
0.2361
0.279834
0.282154
0.280717
0.276556
0.272496
0.269003
0.265203
0.260455
0.254277
0.246559
0.237495
0.227459
0.216907
0.206311
0.196106
0.18666
0.178262
0.171114
0.165335
0.160973
0.158014
0.156403
0.156057
0.156882
0.158777
0.161639
0.165367
0.169884
0.175176
0.181343
0.188651
0.1976
0.209053
0.224477
0.246517
0.280615
0.34022
0.465139
0.746073
)
;
    }
    rightWall
    {
        type            epsilonWallFunction;
        value           nonuniform List<scalar> 
50
(
1.01492
1.32279
1.71807
1.97235
2.16218
2.32666
2.48166
2.63377
2.7976
3.1031
3.29884
3.34769
3.24658
2.91829
2.35416
1.81033
1.54698
1.57004
1.51225
1.26133
1.52291
1.90751
2.17175
2.29048
2.35853
2.51446
2.81175
3.21223
3.67925
4.1907
4.72981
5.15785
5.45068
5.64697
5.7475
5.71957
5.55295
5.28796
5.0274
4.95898
5.30949
5.33328
5.214
4.83291
4.18192
3.96372
4.5154
4.21747
3.09603
2.19742
)
;
    }
    lowerWall
    {
        type            epsilonWallFunction;
        value           nonuniform List<scalar> 
62
(
0.0254685
0.0725421
0.125162
0.179136
0.2256
0.266676
0.304731
0.341186
0.376373
0.410285
0.442427
0.471519
0.495621
0.512573
0.521051
0.516587
0.495417
0.455389
0.397249
0.325491
0.254853
0.186989
0.128232
0.128232
0.148463
0.218306
0.296288
0.385339
0.48934
0.649208
1.03616
1.4228
1.24493
1.27761
1.62081
3.95348
6.13762
8.64212
6.76069
4.73177
2.86923
2.35064
2.71328
3.95348
11.2848
16.4591
19.9568
21.0285
20.1908
19.2173
18.3894
17.3209
15.9427
14.5465
13.3977
12.6719
12.273
11.4558
9.63348
7.09757
4.23177
1.01492
)
;
    }
    atmosphere
    {
        type            inletOutlet;
        inletValue      uniform 0.1;
        value           nonuniform List<scalar> 
46
(
0.746073
0.1
0.1
0.1
0.1
0.1
0.1
0.1
0.1
0.1
0.1
0.1
0.1
0.1
0.1
0.1
0.1
0.1
0.1
0.1
0.1
0.1
0.1
0.143183
0.15995
0.178082
0.197937
0.234079
0.29662
0.373229
0.463154
0.562797
0.666876
0.769639
0.865853
0.950819
1.01922
1.06232
1.05939
0.947715
0.1
0.1
0.1
0.1
0.1
2.19742
)
;
    }
    defaultFaces
    {
        type            empty;
    }
}


// ************************************************************************* //
