/*--------------------------------*- C++ -*----------------------------------*\
  =========                 |
  \\      /  F ield         | OpenFOAM: The Open Source CFD Toolbox
   \\    /   O peration     | Website:  https://openfoam.org
    \\  /    A nd           | Version:  9
     \\/     M anipulation  |
\*---------------------------------------------------------------------------*/
FoamFile
{
    format      ascii;
    class       volScalarField;
    location    "0.65";
    object      epsilon;
}
// * * * * * * * * * * * * * * * * * * * * * * * * * * * * * * * * * * * * * //

dimensions      [0 2 -3 0 0 0 0];

internalField   nonuniform List<scalar> 
2268
(
0.0517737
0.199884
0.297946
0.393848
0.477344
0.545513
0.598662
0.646848
0.688367
0.727635
0.767476
0.808843
0.850251
0.888575
0.917804
0.928241
0.907637
0.843756
0.728624
0.579778
0.419011
0.254025
0.151565
0.126865
0.149535
0.197583
0.240499
0.272863
0.296116
0.313887
0.330984
0.346918
0.362976
0.380194
0.398825
0.418229
0.436804
0.451717
0.458667
0.452307
0.427722
0.384138
0.332335
0.275777
0.213396
0.12167
0.1926
0.168132
0.195524
0.222644
0.242672
0.256847
0.267954
0.278947
0.290216
0.302438
0.316212
0.331815
0.348618
0.365296
0.37934
0.386896
0.382985
0.363112
0.326836
0.282296
0.237832
0.194639
0.15437
0.26361
0.193135
0.205378
0.223192
0.23719
0.247263
0.255381
0.263622
0.27274
0.283274
0.295608
0.309818
0.32546
0.341365
0.354949
0.362453
0.358727
0.338994
0.302605
0.257029
0.213483
0.176667
0.165274
0.334586
0.219302
0.218804
0.229649
0.239485
0.24685
0.25295
0.259322
0.266834
0.275988
0.287059
0.300016
0.314372
0.328952
0.341464
0.348228
0.343965
0.323693
0.286186
0.23823
0.193191
0.158757
0.159619
0.401843
0.245435
0.233913
0.238892
0.245266
0.250382
0.254747
0.259493
0.265472
0.273154
0.282748
0.294146
0.306811
0.319569
0.330276
0.335513
0.330506
0.310378
0.273137
0.223754
0.177178
0.143585
0.144091
0.466198
0.271403
0.250044
0.249778
0.252969
0.255944
0.258604
0.261735
0.266094
0.272117
0.279948
0.289419
0.299958
0.310424
0.318854
0.322228
0.316479
0.297469
0.263253
0.216738
0.171397
0.138413
0.133024
0.529371
0.297368
0.266927
0.261793
0.261897
0.262698
0.263571
0.265003
0.267609
0.271782
0.2776
0.284845
0.292933
0.3008
0.306749
0.308342
0.302588
0.286823
0.260106
0.223625
0.187228
0.159906
0.149431
0.0333758
0.169795
0.237631
0.274557
0.301815
0.322029
0.335402
0.342668
0.344722
0.342565
0.33723
0.32573
0.307429
0.28147
0.247194
0.205902
0.163514
0.033525
0.0152126
0.09562
0.167315
0.190581
0.178684
0.164665
0.153423
0.1447
0.137641
0.131752
0.12678
0.122974
0.118775
0.113698
0.10733
0.0990123
0.0876131
0.070745
0.041113
0.0206663
0.188894
0.180037
0.175461
0.149645
0.128808
0.114957
0.105909
0.0999099
0.0959652
0.0935073
0.0922474
0.0914903
0.0908961
0.0899977
0.0879442
0.0831434
0.0726863
0.0527131
0.0279326
0.285789
0.194329
0.169451
0.139191
0.116986
0.103013
0.0944755
0.0894269
0.0867585
0.085858
0.0863911
0.0879123
0.0901202
0.0925292
0.094188
0.0932399
0.0861541
0.067628
0.0364435
0.388197
0.211808
0.168486
0.135906
0.113436
0.0997207
0.091702
0.0874243
0.0857763
0.0861771
0.0883361
0.0919602
0.0968252
0.102517
0.108079
0.111395
0.107868
0.0888819
0.0459158
0.501552
0.233739
0.170793
0.135953
0.113537
0.100269
0.0928366
0.0893218
0.0886739
0.0904002
0.0943246
0.100358
0.108466
0.118474
0.129575
0.139362
0.141606
0.122241
0.0578669
0.631545
0.25883
0.174713
0.137412
0.115373
0.102787
0.0960866
0.093426
0.0938756
0.0971028
0.103158
0.112303
0.124904
0.14133
0.161217
0.181912
0.194946
0.178277
0.0780258
0.797598
0.280709
0.177938
0.138929
0.117862
0.106294
0.10054
0.0988917
0.100606
0.105592
0.11431
0.127676
0.146771
0.17304
0.207078
0.246016
0.278459
0.273219
0.121613
0.629464
0.338232
0.29428
0.281899
0.277191
0.274435
0.272307
0.270871
0.270518
0.271567
0.274044
0.277686
0.281954
0.285996
0.288643
0.288529
0.284558
0.277006
0.268939
0.265891
0.272362
0.300205
0.392065
0.7491
0.389164
0.330524
0.309877
0.29904
0.29124
0.284572
0.278712
0.273819
0.270084
0.267556
0.266002
0.265088
0.264442
0.263845
0.263547
0.264696
0.26967
0.281961
0.305235
0.342256
0.396487
0.468137
0.871086
0.440588
0.367568
0.338737
0.321419
0.307965
0.296097
0.285245
0.275403
0.266673
0.259094
0.252635
0.247146
0.242553
0.239028
0.237142
0.237887
0.242446
0.25182
0.266779
0.287309
0.311911
0.335666
0.99672
0.492814
0.405035
0.367764
0.343572
0.32399
0.306494
0.29038
0.275559
0.262097
0.250043
0.239409
0.230196
0.222493
0.216549
0.21278
0.211662
0.213531
0.218381
0.225776
0.234727
0.243356
0.248106
1.12572
0.545644
0.44255
0.396504
0.365129
0.339147
0.315868
0.294525
0.274992
0.257323
0.241581
0.227804
0.216021
0.206297
0.198736
0.193457
0.190504
0.189751
0.190827
0.193073
0.195487
0.196619
0.194459
1.25726
0.598783
0.47984
0.424721
0.385981
0.353533
0.324544
0.298212
0.274389
0.253101
0.234387
0.218245
0.204641
0.19352
0.1848
0.178354
0.173972
0.171333
0.169979
0.169312
0.168581
0.166917
0.16343
1.39055
0.652006
0.516767
0.452362
0.406205
0.367381
0.332909
0.301945
0.274294
0.249927
0.228806
0.210841
0.195882
0.183732
0.174148
0.166843
0.161478
0.157671
0.154987
0.152955
0.15108
0.148905
0.146114
1.52507
0.705223
0.553326
0.479502
0.42598
0.380982
0.341343
0.306143
0.275108
0.248112
0.225007
0.205579
0.189551
0.176592
0.166339
0.158406
0.152401
0.147934
0.144628
0.142131
0.140132
0.138421
0.136949
1.66073
0.758481
0.589611
0.506297
0.445537
0.394633
0.350182
0.311141
0.277118
0.247857
0.223074
0.202422
0.185497
0.171858
0.161054
0.152644
0.146214
0.141395
0.137869
0.135379
0.133746
0.132909
0.132964
1.79786
0.811954
0.625791
0.532947
0.465116
0.408605
0.359708
0.317201
0.280536
0.249302
0.223068
0.201353
0.183638
0.169392
0.158101
0.149293
0.142555
0.137546
0.134006
0.131758
0.130724
0.130957
0.132667
1.93712
0.865926
0.662081
0.559664
0.484942
0.423133
0.370147
0.324526
0.285527
0.252567
0.225062
0.202404
0.183971
0.16916
0.157413
0.148241
0.141242
0.136112
0.132646
0.130747
0.130431
0.131861
0.135374
2.07945
0.92076
0.698727
0.586652
0.505207
0.438402
0.381673
0.333272
0.292226
0.257767
0.229158
0.205668
0.186586
0.171247
0.159061
0.149534
0.142282
0.137042
0.133672
0.132158
0.132622
0.135353
0.140852
2.22607
0.97689
0.735979
0.614092
0.52606
0.454546
0.394413
0.343557
0.300751
0.265027
0.235495
0.211308
0.191672
0.175867
0.163275
0.153401
0.145886
0.140516
0.137221
0.136082
0.137346
0.141464
0.149145
2.37837
1.0348
0.774079
0.642125
0.547602
0.471647
0.408443
0.355468
0.311209
0.274489
0.244264
0.219574
0.19954
0.183387
0.170469
0.160289
0.152515
0.146985
0.143713
0.142895
0.144932
0.150475
0.160507
2.5379
1.095
0.813244
0.67085
0.56988
0.489738
0.423799
0.369062
0.323699
0.286315
0.255711
0.230807
0.210637
0.194361
0.181293
0.170926
0.162946
0.157247
0.153934
0.153338
0.156046
0.162958
0.175398
2.70627
1.15806
0.853665
0.700319
0.592898
0.508813
0.44049
0.384382
0.338324
0.300697
0.270141
0.245455
0.22557
0.209563
0.196688
0.186402
0.17839
0.172587
0.169192
0.168682
0.171855
0.17991
0.194579
2.88498
1.22454
0.895506
0.730557
0.616639
0.528851
0.458514
0.401474
0.355206
0.317868
0.287938
0.264085
0.245124
0.230024
0.217941
0.208255
0.20061
0.194949
0.191534
0.190982
0.194312
0.203042
0.21936
3.07516
1.29509
0.938922
0.761589
0.6411
0.549857
0.477906
0.420425
0.374522
0.338131
0.309576
0.287393
0.270267
0.257029
0.246696
0.238511
0.232011
0.227072
0.223961
0.223382
0.226536
0.23524
0.252113
3.27695
1.37035
0.984094
0.793496
0.666354
0.571924
0.498795
0.441427
0.396555
0.361903
0.335653
0.316211
0.302126
0.292071
0.284877
0.279587
0.275539
0.27244
0.270449
0.270243
0.273107
0.281041
0.296981
3.48809
1.45103
1.03131
0.826499
0.692637
0.595316
0.52149
0.464857
0.421783
0.389793
0.366941
0.35152
0.341948
0.336729
0.334478
0.333979
0.334281
0.334805
0.335448
0.336698
0.339737
0.346563
0.36019
3.70249
1.53795
1.08108
0.86106
0.720433
0.620562
0.54659
0.491407
0.451001
0.422713
0.404479
0.394499
0.391071
0.392534
0.397273
0.403782
0.410759
0.417235
0.422709
0.427292
0.431846
0.438109
0.448873
3.91014
1.63183
1.13415
0.897944
0.750565
0.648575
0.575124
0.522235
0.485498
0.462056
0.449737
0.446651
0.450986
0.460924
0.474628
0.490293
0.506253
0.521108
0.533878
0.544166
0.552319
0.559562
0.568151
4.09726
1.73341
1.19158
0.938287
0.784295
0.680796
0.608747
0.559206
0.527308
0.509968
0.504885
0.510067
0.523584
0.543458
0.567638
0.594048
0.62069
0.645769
0.667841
0.685974
0.699911
0.710191
0.718269
4.24805
1.8426
1.25478
0.983735
0.823523
0.719456
0.650049
0.605237
0.579604
0.569768
0.573246
0.587902
0.611655
0.64234
0.677703
0.715447
0.753321
0.789238
0.821405
0.848453
0.869566
0.884565
0.893962
4.34323
1.95859
1.32614
1.03683
0.871166
0.768018
0.703059
0.664864
0.647311
0.646606
0.659989
0.685103
0.719659
0.761251
0.807433
0.855771
0.903894
0.949588
0.990897
1.02621
1.05433
1.07449
1.08626
4.38153
2.07853
1.40975
1.10166
0.931849
0.831935
0.77409
0.745169
0.738117
0.748533
0.773206
0.809444
0.854748
0.90635
0.961632
1.0182
1.07377
1.12622
1.17367
1.21454
1.24749
1.27142
1.28515
4.413
2.20352
1.51196
1.18478
1.01301
0.919887
0.873113
0.857286
0.864081
0.88815
0.92546
0.972816
1.02734
1.08628
1.14716
1.20776
1.26608
1.32036
1.36906
1.41086
1.44457
1.46901
1.48255
4.46722
2.34119
1.64147
1.29631
1.12643
1.04562
1.01587
1.01874
1.04348
1.08345
1.13388
1.19099
1.2517
1.31348
1.37426
1.43241
1.48657
1.53565
1.57868
1.61486
1.64342
1.6634
1.67297
4.51342
2.49131
1.80847
1.45048
1.28965
1.23023
1.22662
1.255
1.30241
1.36045
1.42323
1.48654
1.54753
1.60437
1.65607
1.70215
1.7424
1.77671
1.805
1.82717
1.84305
1.85211
1.85268
4.50138
2.64711
2.01895
1.66331
1.52617
1.50389
1.53837
1.60173
1.67748
1.75461
1.82603
1.88779
1.93825
1.97742
2.00638
2.02667
2.03984
2.04714
2.04952
2.04768
2.04208
2.0328
2.01851
4.43053
2.80183
2.28386
1.94788
1.86305
1.90059
1.99187
2.10327
2.21301
2.30675
2.37715
2.42245
2.44439
2.44661
2.43364
2.41008
2.37981
2.34571
2.30971
2.27312
2.23691
2.20168
2.16661
4.34896
2.93274
2.59221
2.31013
2.31849
2.4505
2.6249
2.79968
2.94576
3.04577
3.09544
3.09958
3.06688
3.00691
2.92901
2.84147
2.75071
2.66104
2.57506
2.4943
2.41973
2.3522
2.29144
4.27179
3.04818
2.93803
2.75589
2.89648
3.16151
3.4454
3.69327
3.86707
3.94924
3.94589
3.8759
3.75912
3.61249
3.45012
3.28345
3.12066
2.9667
2.82416
2.69424
2.57748
2.47456
2.38571
4.24567
3.28393
3.3531
3.30072
3.583
3.99374
4.38826
4.69375
4.86385
4.88828
4.79423
4.62196
4.40417
4.16291
3.91402
3.66949
3.43752
3.2226
3.02668
2.8504
2.6938
2.5574
2.4419
4.33111
3.8211
3.90004
3.95788
4.34195
4.84051
5.28033
5.57604
5.68124
5.60833
5.41179
5.14545
4.84602
4.53506
4.22583
3.92788
3.64769
3.38893
3.15338
2.94184
2.75455
2.59203
2.45558
4.57572
4.74728
4.67549
4.74311
5.10171
5.52921
5.8542
6.01352
6.00432
5.86051
5.62734
5.33576
5.01115
4.67621
4.34534
4.02684
3.72569
3.44503
3.18763
2.95589
2.75128
2.57447
2.42653
4.9652
6.3174
5.89079
5.67878
5.78014
5.94223
6.03886
6.03978
5.93537
5.75692
5.54012
5.26735
4.93905
4.59541
4.26082
3.94314
3.64378
3.36249
3.10295
2.87009
2.66585
2.49135
2.34851
4.80388
7.78776
7.20694
6.60634
6.46998
6.41118
6.33601
6.13094
5.7263
5.31255
4.98227
4.68781
4.39364
4.10136
3.82001
3.55354
3.30368
3.06682
2.84564
2.64974
2.48176
2.34116
2.22794
3.05201
4.4009
5.19444
5.51463
5.87078
5.76562
5.43933
4.94292
4.51893
4.22724
4.00444
3.80035
3.59104
3.37866
3.1689
2.96982
2.78527
2.61751
2.4696
2.34149
2.23097
2.13741
2.06199
1.94534
2.15678
2.95683
3.67053
3.95999
3.88344
3.61771
3.27356
3.06714
2.97395
2.92291
2.86028
2.76624
2.64798
2.51934
2.39281
2.28215
2.19065
2.12276
2.07388
2.03543
2.00127
1.97882
1.82162
1.24732
1.47536
2.00416
2.28952
2.23702
2.07933
1.86919
1.78831
1.8768
2.03373
2.13313
2.15223
2.11745
2.09709
2.02744
2.00697
1.99857
2.01702
2.05763
2.11746
2.13443
2.20687
1.94009
0.4049
0.386909
0.748758
1.11018
1.11182
1.25121
1.16845
1.09443
1.24262
1.59827
1.81363
1.86139
2.11533
2.19859
2.14609
2.32762
2.21965
2.40827
2.46537
2.70931
2.79487
3.19555
0.723013
0.898487
1.08819
1.26261
0.536758
0.553715
0.551787
0.50823
0.347089
0.342347
0.325796
0.294892
0.243311
0.235066
0.222253
0.206076
0.187465
0.18133
0.173847
0.165699
0.158186
0.154453
0.15046
0.146505
0.143111
0.141269
0.139558
0.138137
0.136034
0.135741
0.135776
0.136264
0.134031
0.135163
0.136794
0.139055
0.135761
0.138362
0.141667
0.145842
0.140675
0.144911
0.150119
0.156529
0.148642
0.154761
0.162206
0.171297
0.159766
0.168065
0.178138
0.190415
0.174295
0.18507
0.19816
0.214109
0.192582
0.206055
0.222463
0.242453
0.215113
0.23131
0.251119
0.275265
0.242672
0.26124
0.284105
0.312047
0.276854
0.296835
0.321707
0.352306
0.321014
0.340766
0.365729
0.396809
0.381128
0.398665
0.421231
0.449796
0.465034
0.478773
0.496776
0.520009
0.579227
0.588593
0.601038
0.617463
0.725206
0.730637
0.737801
0.747549
0.898272
0.900748
0.903657
0.90786
1.08922
1.0897
1.08948
1.08949
1.28729
1.28634
1.28375
1.28055
1.48328
1.48072
1.47579
1.46961
1.6706
1.66548
1.65754
1.64794
1.8447
1.8355
1.82331
1.80934
2.00203
1.98685
1.96884
1.94922
2.13879
2.1157
2.09025
2.06364
2.25009
2.21748
2.18334
2.14873
2.33006
2.28722
2.24391
2.20105
2.37316
2.32077
2.26912
2.219
2.37696
2.31726
2.25967
2.2047
2.34317
2.28049
2.22146
2.16575
2.27164
2.21491
2.16168
2.11031
2.16595
2.11802
2.07279
2.03077
2.02298
1.99366
1.9671
1.94301
1.97401
1.97601
1.98437
1.99597
2.27213
2.35833
2.48204
2.58809
3.6206
3.97042
5.15455
5.37456
0.539108
0.269435
0.176609
0.139935
0.121773
0.112454
0.108601
0.108878
0.112927
0.121093
0.134434
0.15512
0.185436
0.228408
0.285742
0.3534
0.415334
0.436124
0.223727
0.360041
0.220093
0.162653
0.137301
0.125363
0.120495
0.12057
0.125103
0.134612
0.150597
0.17587
0.215524
0.276237
0.365769
0.489792
0.6393
0.774468
0.866053
0.58653
0.245607
0.180504
0.148937
0.134677
0.129389
0.129877
0.135375
0.146508
0.165186
0.195011
0.242131
0.316623
0.435369
0.616441
0.870753
1.15537
1.32931
1.46945
1.23776
0.185328
0.15606
0.140413
0.134651
0.13563
0.142275
0.155153
0.176397
0.210187
0.263761
0.349188
0.486708
0.714235
1.05933
1.48961
1.84202
1.90034
2.12132
2.04462
0.155829
0.142982
0.13719
0.138245
0.145593
0.159819
0.183124
0.219985
0.278359
0.371836
0.523993
0.777788
1.19153
1.73328
2.19286
2.41292
2.38386
2.73405
2.89469
0.142027
0.137827
0.138909
0.146269
0.160979
0.185384
0.224104
0.285469
0.383954
0.545049
0.815467
1.27514
1.92178
2.52843
2.81126
2.89314
2.82718
3.16032
3.67196
0.137015
0.138565
0.145553
0.159836
0.184101
0.223126
0.285418
0.385824
0.550444
0.826646
1.29493
2.02841
2.80427
3.27926
3.40972
3.38669
3.2279
3.44585
4.31318
0.1378
0.144321
0.157578
0.180574
0.218211
0.279019
0.377824
0.540408
0.812745
1.27356
2.01873
2.93134
3.64547
3.97129
4.02582
3.88691
3.58783
3.68601
4.9158
0.143191
0.155023
0.175942
0.210724
0.267578
0.360734
0.51457
0.771089
1.20115
1.89682
2.87476
3.79916
4.38329
4.61394
4.58301
4.29397
3.89364
3.94008
5.4802
0.152895
0.171112
0.201981
0.252898
0.336739
0.475465
0.705835
1.08878
1.7116
2.63101
3.69464
4.53449
4.99976
5.119
4.95273
4.54723
4.16381
4.19503
6.01472
0.167073
0.193274
0.237052
0.309243
0.428419
0.625253
0.949388
1.47644
2.28415
3.34221
4.36755
5.09164
5.42615
5.40337
5.12388
4.71032
4.43163
4.44604
6.53383
0.186067
0.22214
0.281957
0.380142
0.540853
0.802433
1.22429
1.88461
2.82185
3.91106
4.84953
5.44486
5.63933
5.4979
5.17693
4.84123
4.71108
4.69059
7.03981
0.2102
0.257986
0.33638
0.463252
0.666767
0.990066
1.49676
2.25457
3.25254
4.30694
5.14662
5.62061
5.69591
5.47597
5.17487
4.97763
5.00192
4.91667
7.4838
0.239624
0.300539
0.39873
0.553844
0.795484
1.16806
1.73393
2.5439
3.54801
4.54232
5.29312
5.66777
5.65125
5.38852
5.15516
5.14088
5.29776
5.10663
7.83655
0.274208
0.348949
0.466527
0.646384
0.916825
1.32039
1.91468
2.73518
3.71227
4.64468
5.32406
5.62111
5.53511
5.25802
5.12747
5.32161
5.56958
5.24514
8.09978
0.313416
0.401783
0.536884
0.736007
1.02384
1.43846
2.03093
2.82761
3.75846
4.63408
5.25414
5.48559
5.35166
5.08556
5.07611
5.4744
5.75254
5.31215
8.25541
0.356177
0.456853
0.606466
0.818653
1.11266
1.51955
2.08173
2.82282
3.69075
4.49223
5.03952
5.22958
5.0922
4.87734
4.99198
5.56899
5.80004
5.25967
8.24116
0.401054
0.511109
0.671022
0.890016
1.18055
1.56359
2.06862
2.72063
3.49364
4.1788
4.65955
4.8738
4.79426
4.67943
4.91891
5.63628
5.6999
5.10084
8.0473
0.447431
0.561541
0.725664
0.944833
1.22407
1.57113
1.99565
2.53302
3.17152
3.77852
4.26335
4.54736
4.55977
4.56662
4.92437
5.69705
5.4987
4.91874
7.76477
0.498094
0.608093
0.767534
0.978927
1.24095
1.54811
1.88872
2.31721
2.86564
3.45264
3.98036
4.34056
4.45446
4.55445
4.98637
5.70536
5.2743
4.74403
7.49176
0.561316
0.657472
0.800597
0.993913
1.23436
1.51262
1.79258
2.14868
2.65402
3.25683
3.85373
4.26253
4.43964
4.56213
4.98531
5.59244
5.03807
4.58312
7.25929
0.648483
0.72307
0.838529
1.00169
1.21547
1.48051
1.74833
2.08075
2.58409
3.21784
3.85031
4.25768
4.42761
4.50752
4.88041
5.36831
4.79841
4.44214
7.0695
0.767415
0.817864
0.90006
1.0243
1.20394
1.45063
1.75057
2.12923
2.65317
3.28033
3.85342
4.22605
4.35491
4.38284
4.71521
5.11273
4.55435
4.32532
6.91672
0.917644
0.94606
0.996784
1.08147
1.21873
1.42415
1.72348
2.14334
2.65953
3.23636
3.75822
4.10426
4.21031
4.22426
4.53647
4.83533
4.33321
4.24176
6.80104
1.09104
1.10158
1.12642
1.17612
1.2667
1.41851
1.66158
2.02749
2.50726
3.04816
3.55213
3.89305
4.02057
4.06018
4.36287
4.5633
4.17138
4.20031
6.7365
1.27547
1.27195
1.27569
1.2954
1.34503
1.44496
1.6236
1.91373
2.32576
2.81962
3.30064
3.65325
3.82351
3.90811
4.21067
4.34981
4.06882
4.19954
6.73148
1.45853
1.44378
1.43105
1.42697
1.44367
1.50045
1.62383
1.84669
2.18759
2.62233
3.07246
3.43296
3.64555
3.78219
4.08787
4.19338
4.00725
4.23249
6.80162
1.63053
1.60635
1.58118
1.55969
1.55208
1.57568
1.65557
1.82321
2.10085
2.47668
2.88918
3.24662
3.4941
3.68889
4.00353
4.08078
3.97288
4.29095
6.95871
1.78445
1.75162
1.71715
1.68394
1.6601
1.66035
1.70792
1.83195
2.05596
2.37671
2.74725
3.09097
3.3647
3.62325
3.96347
4.01042
3.96196
4.36915
7.20843
1.91514
1.87364
1.83203
1.7916
1.75829
1.74389
1.76887
1.85935
2.03856
2.30909
2.63639
2.95946
3.25179
3.57634
3.96211
3.9754
3.97052
4.46301
7.55218
2.01853
1.96794
1.92052
1.87611
1.83853
1.81658
1.82701
1.89234
2.03452
2.2605
2.54732
2.84938
3.15609
3.54422
3.98652
3.96699
3.99183
4.56637
7.99368
2.09121
2.03132
1.97899
1.9328
1.89458
1.87036
1.8725
1.91954
2.03152
2.21965
2.47349
2.76303
3.08694
3.52802
4.00948
3.97158
4.01859
4.67694
8.55151
2.13092
2.06229
2.00596
1.95936
1.92268
1.89946
1.89779
1.93182
2.01943
2.17679
2.40845
2.70336
3.05995
3.53884
3.99516
3.95077
4.04781
4.81911
9.28063
2.1379
2.06234
2.00313
1.95693
1.92275
1.90185
1.89886
1.92335
1.9908
2.12262
2.34249
2.66826
3.09026
3.60867
3.92284
3.86335
4.07636
4.98478
10.1077
2.1165
2.03712
1.97648
1.93133
1.90002
1.88176
1.87779
1.89397
1.94316
2.05305
2.27198
2.66004
3.18845
3.71911
3.81597
3.7972
4.13217
5.19538
10.9736
2.07616
1.99678
1.93647
1.89317
1.86516
1.84963
1.84432
1.85209
1.88576
1.98315
2.22033
2.70187
3.34504
3.7139
3.66237
3.76323
4.24806
5.46708
11.7854
2.02588
1.94931
1.89124
1.85077
1.82522
1.81059
1.80428
1.80954
1.84261
1.94156
2.17012
2.60498
3.1206
3.31633
3.43797
3.7685
4.43775
5.77838
12.418
1.96426
1.90623
1.85954
1.82486
1.80277
1.78993
1.78367
1.78896
1.82193
1.90758
2.06914
2.32176
2.6394
2.94084
3.31246
3.88038
4.70709
6.05945
12.6937
1.9056
1.87686
1.85685
1.84504
1.84032
1.84186
1.84875
1.86354
1.8927
1.95132
2.06211
2.24635
2.52034
2.89995
3.43928
4.18077
5.05619
6.21868
12.3922
2.01764
2.04084
2.06474
2.09614
2.12614
2.15744
2.19164
2.23446
2.28038
2.33777
2.42447
2.57776
2.83953
3.25206
3.89045
4.72932
5.50575
6.18569
11.0683
2.72687
2.82241
2.91168
3.07441
3.1785
3.26074
3.3481
3.49814
3.5793
3.63001
3.67427
3.74629
3.8795
4.11095
4.81054
5.64803
6.15465
5.88551
8.14262
5.18397
5.32053
5.35611
6.64642
6.60501
6.73039
6.73401
8.18969
7.80389
7.4351
6.8101
6.01464
5.41887
4.94414
5.01107
5.34723
4.76262
3.81686
3.9789
)
;

boundaryField
{
    leftWall
    {
        type            epsilonWallFunction;
        value           nonuniform List<scalar> 
50
(
0.0517737
0.126865
0.1926
0.26361
0.334586
0.401843
0.466198
0.529371
0.629464
0.7491
0.871086
0.99672
1.12572
1.25726
1.39055
1.52507
1.66073
1.79786
1.93712
2.07945
2.22607
2.37837
2.5379
2.70627
2.88498
3.07516
3.27695
3.48809
3.70249
3.91014
4.09726
4.24805
4.34323
4.38153
4.413
4.46722
4.51342
4.50138
4.43053
4.34896
4.27179
4.24567
4.33111
4.57572
4.9652
4.80388
3.05201
1.94534
1.82162
1.94009
)
;
    }
    rightWall
    {
        type            epsilonWallFunction;
        value           nonuniform List<scalar> 
50
(
0.0152126
0.0206663
0.0279326
0.0364435
0.0459158
0.0578669
0.0780258
0.121613
0.223727
0.58653
1.23776
2.04462
2.89469
3.67196
4.31318
4.9158
5.4802
6.01472
6.53383
7.03981
7.4838
7.83655
8.09978
8.25541
8.24116
8.0473
7.76477
7.49176
7.25929
7.0695
6.91672
6.80104
6.7365
6.73148
6.80162
6.95871
7.20843
7.55218
7.99368
8.55151
9.28063
10.1077
10.9736
11.7854
12.418
12.6937
12.3922
11.0683
8.14262
3.9789
)
;
    }
    lowerWall
    {
        type            epsilonWallFunction;
        value           nonuniform List<scalar> 
62
(
0.0517737
0.199884
0.297946
0.393848
0.477344
0.545513
0.598662
0.646848
0.688367
0.727635
0.767476
0.808843
0.850251
0.888575
0.917804
0.928241
0.907637
0.843756
0.728624
0.579778
0.419011
0.254025
0.151565
0.151565
0.12167
0.15437
0.165274
0.159619
0.144091
0.133024
0.149431
0.723013
0.898487
1.08819
1.26261
0.0333758
0.09562
0.188894
0.285789
0.388197
0.501552
0.631545
0.797598
0.0333758
0.169795
0.237631
0.274557
0.301815
0.322029
0.335402
0.342668
0.344722
0.342565
0.33723
0.32573
0.307429
0.28147
0.247194
0.205902
0.163514
0.033525
0.0152126
)
;
    }
    atmosphere
    {
        type            inletOutlet;
        inletValue      uniform 0.1;
        value           nonuniform List<scalar> 
46
(
0.1
0.1
0.1
0.748758
0.1
0.1
1.25121
1.16845
1.09443
1.24262
1.59827
1.81363
0.1
2.11533
0.1
2.14609
0.1
2.21965
0.1
2.46537
0.1
2.79487
0.1
3.6206
3.97042
0.1
0.1
0.1
5.32053
5.35611
0.1
0.1
6.73039
6.73401
0.1
0.1
7.4351
6.8101
6.01464
5.41887
0.1
5.01107
5.34723
4.76262
3.81686
0.1
)
;
    }
    defaultFaces
    {
        type            empty;
    }
}


// ************************************************************************* //
