/*--------------------------------*- C++ -*----------------------------------*\
  =========                 |
  \\      /  F ield         | OpenFOAM: The Open Source CFD Toolbox
   \\    /   O peration     | Website:  https://openfoam.org
    \\  /    A nd           | Version:  9
     \\/     M anipulation  |
\*---------------------------------------------------------------------------*/
FoamFile
{
    format      ascii;
    class       volScalarField;
    location    "0.65";
    object      k;
}
// * * * * * * * * * * * * * * * * * * * * * * * * * * * * * * * * * * * * * //

dimensions      [0 2 -2 0 0 0 0];

internalField   nonuniform List<scalar> 
2268
(
0.0105854
0.0129822
0.0169217
0.0203919
0.0231953
0.025359
0.0269962
0.0284475
0.0296721
0.0308026
0.0319191
0.0330492
0.0341562
0.0351609
0.0359123
0.0361684
0.0356163
0.0339123
0.0307434
0.0264079
0.021272
0.0152339
0.0106117
0.0157622
0.0299609
0.0393863
0.0467435
0.0525556
0.0568952
0.0601118
0.0625387
0.0645331
0.0662905
0.0679244
0.0694588
0.0708191
0.07182
0.0721355
0.0712891
0.0687075
0.063889
0.0567181
0.0469204
0.0358416
0.0261499
0.015374
0.0207821
0.0414665
0.053328
0.0621499
0.0688247
0.0737344
0.0773078
0.0799388
0.0820636
0.083896
0.0855663
0.0871051
0.0883949
0.0891915
0.0890746
0.0874455
0.0836009
0.0770096
0.0677161
0.0562369
0.0434368
0.0315305
0.0180438
0.0255918
0.0510555
0.0642862
0.0738771
0.0809979
0.0861457
0.0898069
0.0924195
0.0944528
0.0961422
0.0976198
0.0989
0.0998587
0.100206
0.0994553
0.0969245
0.0918372
0.083664
0.072618
0.0597167
0.0460692
0.0333436
0.0189011
0.0300052
0.0593679
0.0737399
0.0838467
0.0912282
0.0964749
0.100106
0.102583
0.104389
0.105782
0.106894
0.107724
0.108129
0.107797
0.106212
0.102631
0.0962662
0.0866146
0.0740252
0.0598854
0.0457096
0.0328585
0.0184898
0.0339058
0.0668484
0.0822609
0.0927565
0.100289
0.105545
0.109066
0.111324
0.112801
0.113777
0.114381
0.114601
0.114275
0.113067
0.11045
0.10571
0.0980813
0.0871231
0.0732767
0.0581382
0.043725
0.0311709
0.0172829
0.0374319
0.0737204
0.09013
0.10095
0.108559
0.113755
0.117099
0.119074
0.120138
0.120602
0.12059
0.120079
0.118893
0.116687
0.112934
0.106958
0.0980784
0.085999
0.0713503
0.0558393
0.0416834
0.0296123
0.0163606
0.0407289
0.0801383
0.0975196
0.108628
0.11626
0.121335
0.124443
0.12608
0.126669
0.126553
0.12585
0.124533
0.122421
0.119172
0.114285
0.107154
0.0972381
0.0844583
0.0696699
0.0546195
0.0415056
0.0304397
0.0175986
0.0101522
0.0117384
0.0146608
0.0161299
0.0171865
0.0179599
0.018472
0.018758
0.018853
0.0187929
0.0186183
0.018226
0.0175762
0.016619
0.0152932
0.0135803
0.0116204
0.0103005
0.00431966
0.0141943
0.0300125
0.0332278
0.0327072
0.031995
0.0316015
0.0314198
0.0313424
0.0313042
0.0312635
0.0311713
0.0309563
0.0305224
0.0297045
0.0282381
0.0257123
0.021513
0.015077
0.00513366
0.0223369
0.0421816
0.0450842
0.0436459
0.0420514
0.0409382
0.0401813
0.0396689
0.0393276
0.0391021
0.0389279
0.0387069
0.0382929
0.0374579
0.0358434
0.032885
0.0276931
0.0191337
0.00631746
0.0294096
0.0522163
0.0545611
0.0525942
0.0502464
0.0484103
0.0470579
0.0461069
0.045473
0.0450783
0.0448293
0.0445897
0.0441713
0.0432984
0.0415499
0.0382792
0.0324649
0.0226915
0.00758324
0.0360346
0.0614276
0.0627977
0.0603323
0.0573257
0.0548775
0.0530297
0.0517182
0.050845
0.0503093
0.0499864
0.049712
0.0492645
0.0483363
0.0464746
0.0429994
0.0368117
0.0262018
0.00893342
0.0426988
0.0704792
0.0702541
0.0671854
0.0636297
0.0607117
0.0584853
0.0568901
0.0558181
0.0551538
0.0547498
0.0544252
0.0539365
0.0529662
0.0510563
0.0475204
0.0412025
0.0300723
0.010684
0.0497283
0.0794862
0.0770354
0.0732455
0.069287
0.0660512
0.0635587
0.0617443
0.0604992
0.0597051
0.0592094
0.0588285
0.0583147
0.0573697
0.0555667
0.0522492
0.0462347
0.0351388
0.0136968
0.0580005
0.0878903
0.0829502
0.0784641
0.0743071
0.0709139
0.0682609
0.0662809
0.0648745
0.0639336
0.0633301
0.0629067
0.0624305
0.0616764
0.0603254
0.0578255
0.0529843
0.0429943
0.0195003
0.0457067
0.0896451
0.108507
0.12003
0.127627
0.13243
0.135084
0.136093
0.135849
0.134696
0.132809
0.130164
0.126598
0.121812
0.115396
0.106915
0.0961174
0.0833272
0.0698294
0.0575899
0.0482838
0.0419561
0.0392738
0.0513413
0.10069
0.121529
0.133647
0.141164
0.145506
0.147434
0.147492
0.1461
0.14356
0.140086
0.135789
0.130603
0.124401
0.117058
0.108561
0.0991896
0.0896695
0.0811616
0.0748954
0.0711399
0.070196
0.0723368
0.0567756
0.111022
0.133667
0.146264
0.153544
0.15723
0.158235
0.157181
0.154547
0.150692
0.145877
0.140264
0.133977
0.127105
0.119777
0.112248
0.10493
0.0983155
0.0927854
0.0884507
0.0855169
0.0844206
0.0853881
0.0621079
0.120825
0.145062
0.157994
0.164892
0.167772
0.167722
0.165475
0.161587
0.156496
0.150542
0.143997
0.13709
0.130041
0.123091
0.116511
0.110577
0.105493
0.101341
0.098131
0.0959343
0.094926
0.095183
0.0673482
0.130142
0.155762
0.168884
0.175285
0.177265
0.176099
0.172647
0.167562
0.161362
0.154468
0.147226
0.139933
0.132853
0.126226
0.120255
0.115088
0.110786
0.107329
0.104662
0.102745
0.101559
0.101014
0.0724815
0.138977
0.165786
0.178975
0.1848
0.185837
0.183553
0.178942
0.172753
0.165583
0.157911
0.15013
0.142562
0.135465
0.129037
0.123409
0.118639
0.11471
0.111551
0.109065
0.107154
0.105721
0.104647
0.077494
0.147336
0.175163
0.188321
0.193525
0.193622
0.190262
0.18457
0.177389
0.169375
0.161051
0.152828
0.145025
0.137875
0.131531
0.126063
0.121474
0.117703
0.114651
0.112202
0.110234
0.108635
0.107297
0.0823829
0.155238
0.183937
0.196991
0.201562
0.200753
0.196389
0.189716
0.181653
0.172907
0.164023
0.155416
0.147387
0.14014
0.133786
0.128358
0.123821
0.120092
0.117059
0.114598
0.112583
0.110905
0.109467
0.0871582
0.162722
0.192168
0.205068
0.209018
0.20736
0.202082
0.194534
0.185699
0.176317
0.166944
0.157987
0.149729
0.142344
0.135913
0.130441
0.125875
0.12212
0.11906
0.11657
0.114528
0.112829
0.111384
0.091841
0.169836
0.199924
0.21264
0.215996
0.213563
0.207471
0.199157
0.189654
0.179723
0.169921
0.160642
0.152149
0.144593
0.138035
0.132462
0.127811
0.123984
0.120865
0.118334
0.116274
0.114584
0.113181
0.0964611
0.176643
0.20728
0.219791
0.222593
0.219467
0.212666
0.203698
0.19363
0.183234
0.173059
0.163487
0.15476
0.147014
0.140294
0.134578
0.129799
0.125862
0.122655
0.120063
0.117977
0.116303
0.11496
0.101054
0.183206
0.214308
0.226601
0.228893
0.225161
0.21776
0.208253
0.197727
0.186952
0.176468
0.16664
0.157696
0.149754
0.142852
0.136965
0.132025
0.127942
0.124611
0.121928
0.119792
0.118116
0.116828
0.105658
0.189593
0.221076
0.233136
0.234965
0.230715
0.222829
0.212903
0.202031
0.190977
0.180263
0.170238
0.161111
0.152992
0.145908
0.139834
0.134708
0.130444
0.12695
0.124131
0.121899
0.12018
0.118914
0.110316
0.19587
0.227644
0.239451
0.24086
0.236183
0.22793
0.217713
0.206625
0.195409
0.18457
0.174433
0.165192
0.156943
0.149706
0.143455
0.13813
0.133657
0.129954
0.126941
0.124545
0.122711
0.121404
0.115069
0.2021
0.234058
0.245581
0.246609
0.241599
0.233104
0.222741
0.211583
0.200352
0.189526
0.179406
0.170164
0.161879
0.15456
0.148176
0.142669
0.137973
0.134019
0.130742
0.128093
0.12604
0.124586
0.119961
0.208348
0.240354
0.251549
0.252232
0.246985
0.238384
0.228034
0.21698
0.205916
0.195287
0.185366
0.176298
0.168135
0.160869
0.154456
0.148834
0.143938
0.139711
0.136107
0.133098
0.130687
0.128924
0.125029
0.214676
0.246558
0.257365
0.257737
0.252355
0.243798
0.233641
0.222897
0.212222
0.202029
0.192556
0.183913
0.176118
0.169133
0.162886
0.157298
0.152299
0.147834
0.143871
0.140407
0.137477
0.135191
0.130304
0.221151
0.252687
0.263033
0.263131
0.257728
0.249381
0.239622
0.229426
0.21941
0.209952
0.201251
0.193374
0.186298
0.179937
0.174176
0.168901
0.164015
0.159453
0.155188
0.151233
0.147654
0.144609
0.135794
0.227846
0.258758
0.268566
0.268437
0.263144
0.255192
0.246064
0.236688
0.227646
0.219278
0.211744
0.205066
0.199165
0.193898
0.189089
0.184563
0.180175
0.175825
0.171471
0.167129
0.162885
0.158925
0.141465
0.234848
0.264802
0.273998
0.273709
0.268678
0.261333
0.253093
0.244842
0.237125
0.230247
0.224329
0.219345
0.215159
0.211558
0.208288
0.205097
0.201765
0.198131
0.194111
0.189702
0.184986
0.18016
0.147208
0.242256
0.270876
0.279404
0.279051
0.274464
0.267965
0.260899
0.254102
0.248083
0.243113
0.239274
0.236494
0.234576
0.233235
0.232136
0.230935
0.229321
0.22705
0.223968
0.220024
0.215277
0.209904
0.15284
0.250165
0.277071
0.284911
0.284633
0.280709
0.275326
0.269746
0.264748
0.260799
0.258135
0.256798
0.25667
0.257498
0.258927
0.260541
0.26191
0.26263
0.262365
0.260875
0.258039
0.253857
0.24846
0.158109
0.25866
0.283526
0.290713
0.290701
0.287711
0.283758
0.28
0.277145
0.27561
0.275586
0.277075
0.279912
0.283791
0.288296
0.292947
0.29724
0.300696
0.302898
0.303521
0.302361
0.299335
0.294488
0.162714
0.267732
0.290435
0.297087
0.297609
0.295886
0.293726
0.292149
0.291768
0.292932
0.29578
0.300268
0.306185
0.313177
0.320786
0.328486
0.335731
0.341995
0.346807
0.34978
0.350631
0.349183
0.345362
0.166224
0.277286
0.298133
0.304451
0.305854
0.305813
0.305862
0.306839
0.309232
0.3133
0.319119
0.326595
0.335477
0.345372
0.355795
0.366213
0.376075
0.384847
0.392043
0.397246
0.400119
0.400402
0.397886
0.168229
0.287006
0.307184
0.31344
0.316154
0.318293
0.321021
0.324932
0.330356
0.337437
0.346171
0.356419
0.36791
0.38021
0.392837
0.405299
0.417086
0.427704
0.436696
0.443652
0.448219
0.450082
0.448925
0.169092
0.296999
0.318424
0.324979
0.329527
0.334428
0.340353
0.347571
0.356244
0.366339
0.377755
0.390309
0.403707
0.417566
0.431476
0.445013
0.457754
0.469288
0.479222
0.487192
0.49286
0.495889
0.495884
0.170332
0.308168
0.332889
0.340292
0.347329
0.355673
0.365381
0.376247
0.388181
0.401047
0.414658
0.428784
0.443159
0.457492
0.471495
0.484884
0.497369
0.508663
0.518473
0.526507
0.532474
0.536047
0.536774
0.171854
0.320755
0.35145
0.360641
0.37109
0.383754
0.397692
0.412433
0.427594
0.442847
0.457916
0.472584
0.486683
0.50009
0.512716
0.524482
0.535289
0.545008
0.553472
0.560484
0.565817
0.569179
0.570096
0.172262
0.333426
0.373532
0.386456
0.4019
0.419823
0.438745
0.457705
0.475964
0.492979
0.508437
0.522239
0.534441
0.545193
0.554699
0.563159
0.570716
0.577426
0.583259
0.588116
0.591842
0.594198
0.594716
0.170543
0.341485
0.397452
0.416314
0.438969
0.464092
0.489248
0.512943
0.534059
0.551881
0.566218
0.57731
0.585629
0.59174
0.596231
0.59964
0.602381
0.604705
0.606711
0.60838
0.609615
0.610231
0.609796
0.168308
0.338035
0.418074
0.445779
0.479411
0.514764
0.547944
0.57698
0.600443
0.617628
0.628825
0.634995
0.637292
0.636824
0.634607
0.631516
0.628217
0.625127
0.622439
0.620187
0.618301
0.616638
0.614819
0.165631
0.329884
0.429834
0.470542
0.518976
0.56742
0.61007
0.644485
0.669092
0.683571
0.689281
0.688416
0.683043
0.674821
0.6651
0.654984
0.64529
0.636518
0.628912
0.622534
0.617325
0.613169
0.609755
0.163529
0.326279
0.435459
0.490471
0.553359
0.614647
0.665754
0.703669
0.727013
0.736406
0.734855
0.726115
0.713129
0.697837
0.681621
0.66557
0.650492
0.636887
0.625014
0.614974
0.606743
0.60026
0.595301
0.163463
0.333531
0.438853
0.505444
0.578029
0.646153
0.699813
0.736087
0.754775
0.75804
0.750342
0.73617
0.718582
0.699397
0.679743
0.660479
0.642274
0.625612
0.610822
0.598126
0.587623
0.579328
0.573126
0.166876
0.349663
0.443735
0.5143
0.586627
0.649689
0.695231
0.723083
0.735881
0.73704
0.729792
0.71657
0.699466
0.680412
0.660659
0.64097
0.621919
0.603992
0.587686
0.57347
0.561661
0.552359
0.54545
0.173761
0.384338
0.458397
0.515902
0.574442
0.622628
0.656907
0.677894
0.687797
0.689724
0.686913
0.677871
0.662708
0.64471
0.625954
0.60722
0.588873
0.571168
0.55475
0.54042
0.528597
0.519476
0.51308
0.167133
0.405494
0.46899
0.509167
0.557585
0.597622
0.625968
0.637843
0.63118
0.62065
0.612299
0.603156
0.591411
0.5778
0.563364
0.548731
0.534374
0.520254
0.50693
0.495678
0.486959
0.480748
0.476806
0.121372
0.255649
0.357553
0.431048
0.496699
0.527051
0.534968
0.523593
0.512282
0.507601
0.505748
0.502984
0.497533
0.489894
0.480782
0.471268
0.462087
0.453792
0.446972
0.441751
0.437899
0.435343
0.434032
0.0940855
0.157997
0.237152
0.314376
0.362686
0.381822
0.382127
0.372665
0.372231
0.380011
0.390356
0.398118
0.401275
0.400549
0.397481
0.393549
0.390558
0.388945
0.389119
0.390631
0.392533
0.394113
0.396175
0.0936783
0.133261
0.15793
0.206125
0.241826
0.25222
0.253
0.247729
0.251498
0.270325
0.29569
0.315064
0.325571
0.329967
0.335179
0.335039
0.339891
0.345514
0.351681
0.358979
0.367085
0.369894
0.377311
0.0978717
0.121563
0.122682
0.159696
0.197953
0.194063
0.208358
0.203402
0.196962
0.213194
0.249409
0.272472
0.276528
0.30298
0.312325
0.315394
0.33539
0.333485
0.344442
0.349081
0.360139
0.367954
0.38902
0.0503056
0.0583304
0.0664094
0.0733902
0.0763671
0.0788106
0.0824428
0.0872519
0.0881185
0.0901703
0.0924973
0.0946299
0.0962889
0.0969704
0.0975336
0.0978909
0.10086
0.100738
0.100541
0.100262
0.103876
0.103398
0.102898
0.102378
0.106273
0.105652
0.105033
0.104416
0.108369
0.107709
0.107059
0.106418
0.110304
0.10966
0.109031
0.108413
0.112167
0.111574
0.111002
0.110446
0.11404
0.113519
0.113035
0.112582
0.116011
0.115579
0.115209
0.114906
0.118193
0.117857
0.117628
0.11752
0.120746
0.1205
0.120425
0.120552
0.123916
0.123729
0.123796
0.124173
0.128107
0.127901
0.128051
0.128636
0.134008
0.133639
0.133729
0.134384
0.142777
0.14203
0.141813
0.142263
0.15618
0.154821
0.153986
0.153838
0.176416
0.174306
0.172618
0.171516
0.205343
0.202544
0.199994
0.19784
0.24347
0.240213
0.237013
0.234006
0.289511
0.286079
0.282525
0.278987
0.340771
0.337413
0.33377
0.33
0.393927
0.390814
0.387271
0.383484
0.445723
0.442928
0.439576
0.435864
0.493407
0.490954
0.487841
0.484275
0.534865
0.532712
0.529832
0.52644
0.568521
0.566576
0.56388
0.560652
0.593217
0.59136
0.588777
0.585687
0.608127
0.606241
0.603704
0.600723
0.612788
0.610779
0.60824
0.605365
0.607263
0.60508
0.602527
0.599783
0.592356
0.590013
0.587486
0.584942
0.569816
0.567372
0.564959
0.562717
0.541974
0.539617
0.537526
0.535736
0.510328
0.508682
0.5073
0.506072
0.475029
0.47384
0.47289
0.472354
0.433798
0.433844
0.434106
0.434619
0.398029
0.399986
0.402362
0.40486
0.382829
0.389797
0.398631
0.405458
0.42017
0.441483
0.504481
0.509326
0.0789393
0.095736
0.090054
0.0852057
0.0811344
0.077747
0.0749953
0.0728287
0.0711757
0.0699489
0.069039
0.0683962
0.0679066
0.0675551
0.0673052
0.0667567
0.0643793
0.0567492
0.0300534
0.0923813
0.0964628
0.0933819
0.09002
0.0869736
0.0842383
0.0818347
0.0797792
0.0780761
0.0767286
0.0757782
0.0754691
0.0763251
0.0792155
0.0850744
0.0930957
0.0980839
0.0940418
0.0554945
0.0962781
0.0967619
0.0951354
0.0931762
0.0911847
0.0892049
0.0872893
0.0855106
0.08398
0.0829048
0.0827421
0.0845415
0.0905587
0.103651
0.125374
0.1498
0.159198
0.149656
0.0861837
0.0980654
0.0977681
0.0968217
0.095698
0.0944741
0.0931428
0.0917442
0.0904157
0.0894755
0.0896182
0.0923399
0.100679
0.120258
0.154859
0.199523
0.234105
0.232885
0.217665
0.115419
0.099852
0.0992449
0.0985948
0.0979477
0.0972558
0.0964746
0.0956755
0.0951827
0.0958281
0.0994648
0.109842
0.133607
0.17849
0.239535
0.292376
0.316213
0.302598
0.285632
0.142208
0.101723
0.100974
0.100457
0.100107
0.0998407
0.0996548
0.0998063
0.101132
0.105643
0.117506
0.144101
0.196011
0.271651
0.344622
0.383905
0.393153
0.368732
0.336095
0.162526
0.103651
0.102849
0.102432
0.102347
0.102578
0.103324
0.105349
0.110628
0.123395
0.151289
0.205269
0.292863
0.386687
0.450582
0.475336
0.471217
0.431092
0.373361
0.179786
0.105621
0.104842
0.104584
0.104889
0.105952
0.108461
0.114234
0.127295
0.155138
0.208923
0.29938
0.410259
0.501548
0.552174
0.567217
0.548134
0.487728
0.405909
0.195241
0.107648
0.106991
0.107046
0.108058
0.110655
0.116442
0.129007
0.155197
0.205593
0.291198
0.411417
0.52668
0.607057
0.647401
0.651245
0.613685
0.535357
0.437258
0.20934
0.109778
0.109386
0.11002
0.112284
0.117537
0.128796
0.151952
0.196569
0.274063
0.389035
0.521214
0.630021
0.699055
0.727183
0.715345
0.661682
0.576173
0.46626
0.222417
0.112089
0.112159
0.113757
0.118029
0.127363
0.146497
0.183519
0.249339
0.352324
0.485694
0.615771
0.71418
0.770441
0.783817
0.75817
0.697686
0.613592
0.492447
0.235003
0.114677
0.115458
0.118491
0.125619
0.140392
0.169124
0.22123
0.306769
0.427773
0.5667
0.689339
0.775887
0.818741
0.819586
0.786558
0.727365
0.649759
0.51679
0.246684
0.117653
0.119418
0.124363
0.135063
0.156069
0.19468
0.260434
0.360789
0.491043
0.627813
0.741521
0.81691
0.848434
0.840597
0.806211
0.754654
0.685808
0.53986
0.256395
0.121136
0.124135
0.131367
0.145996
0.17315
0.220346
0.296291
0.405331
0.537969
0.669409
0.774961
0.841365
0.864302
0.851393
0.82076
0.782196
0.721819
0.561012
0.263899
0.125258
0.129658
0.139346
0.157794
0.190165
0.243535
0.325337
0.437429
0.568154
0.693705
0.792847
0.852629
0.869317
0.854241
0.831207
0.809792
0.755193
0.578909
0.269365
0.130193
0.135996
0.148039
0.169761
0.205861
0.26251
0.345816
0.456304
0.582555
0.702663
0.797004
0.851792
0.864356
0.849497
0.83661
0.832962
0.779584
0.590513
0.272075
0.136237
0.143168
0.157129
0.181232
0.219334
0.276352
0.357068
0.461836
0.581658
0.695161
0.784266
0.836625
0.849027
0.838074
0.836492
0.848652
0.789909
0.590377
0.270663
0.144012
0.151368
0.16635
0.191609
0.229929
0.28464
0.358981
0.454029
0.564395
0.668185
0.753334
0.809466
0.827389
0.825329
0.835915
0.860156
0.784776
0.579074
0.265581
0.154838
0.161358
0.175822
0.200535
0.237208
0.287304
0.351985
0.434379
0.531797
0.630327
0.718917
0.783523
0.81043
0.820547
0.843075
0.870736
0.769754
0.56497
0.259195
0.171052
0.175107
0.18685
0.208653
0.241617
0.285561
0.339687
0.409752
0.499122
0.599211
0.695317
0.769343
0.807088
0.827202
0.856905
0.877265
0.753604
0.552484
0.253258
0.195517
0.195873
0.202709
0.218822
0.245812
0.283607
0.329003
0.390621
0.477635
0.583744
0.690419
0.771027
0.815515
0.837449
0.865104
0.873356
0.737071
0.54089
0.248145
0.229959
0.226545
0.227663
0.236256
0.255309
0.287172
0.328502
0.387592
0.478128
0.591577
0.704165
0.784673
0.826943
0.842058
0.862585
0.858659
0.71894
0.529768
0.243832
0.273673
0.267342
0.263716
0.265418
0.276428
0.301899
0.344261
0.4093
0.50556
0.619671
0.725171
0.799535
0.833695
0.839114
0.852729
0.839222
0.698227
0.5187
0.240173
0.323903
0.31567
0.308905
0.305946
0.31101
0.330471
0.372273
0.443655
0.538131
0.643882
0.739771
0.806379
0.832595
0.831308
0.839611
0.815147
0.677125
0.507732
0.237322
0.376994
0.367655
0.359014
0.353319
0.354554
0.369056
0.405526
0.469294
0.555992
0.652789
0.741302
0.801642
0.824428
0.820819
0.824938
0.789165
0.659361
0.498213
0.235661
0.429279
0.41952
0.409818
0.402236
0.400458
0.4103
0.438578
0.490546
0.565158
0.651866
0.732909
0.789565
0.812197
0.8093
0.810757
0.767435
0.646199
0.491292
0.23548
0.47779
0.468005
0.457728
0.448726
0.444243
0.449281
0.469493
0.510301
0.572395
0.647989
0.721454
0.775132
0.798873
0.79866
0.798477
0.750726
0.637071
0.487813
0.237157
0.520157
0.510632
0.500236
0.490365
0.483737
0.484519
0.497883
0.529064
0.579804
0.644636
0.710327
0.760694
0.785887
0.790248
0.789741
0.738418
0.63169
0.488292
0.240917
0.554621
0.545601
0.535567
0.525534
0.517673
0.515401
0.523465
0.54677
0.587672
0.642498
0.700288
0.746734
0.773329
0.784028
0.785843
0.731335
0.630315
0.492839
0.246797
0.579929
0.57163
0.562428
0.552981
0.544938
0.541026
0.545416
0.562577
0.595169
0.640918
0.690968
0.733122
0.760934
0.779238
0.786488
0.729047
0.632481
0.500948
0.254712
0.59526
0.587874
0.579918
0.571732
0.564485
0.560274
0.56252
0.575147
0.600909
0.638692
0.681701
0.719914
0.74895
0.775377
0.790119
0.730066
0.637067
0.511674
0.264643
0.60025
0.59395
0.587565
0.581159
0.575475
0.572052
0.57345
0.582959
0.603286
0.634428
0.671801
0.707557
0.738497
0.772204
0.793086
0.732135
0.642464
0.523991
0.276904
0.595114
0.590057
0.585448
0.581121
0.577465
0.575511
0.577036
0.58457
0.600697
0.6266
0.660258
0.696365
0.731365
0.770409
0.790219
0.73009
0.646569
0.5366
0.292599
0.580868
0.57716
0.574363
0.572152
0.57065
0.570407
0.572563
0.57889
0.591717
0.613452
0.645267
0.685695
0.72921
0.773337
0.777822
0.718358
0.649463
0.551654
0.3099
0.559404
0.557047
0.555889
0.555581
0.556065
0.55745
0.560211
0.56558
0.575514
0.59379
0.625683
0.675352
0.732942
0.778335
0.758583
0.705981
0.653702
0.570467
0.32746
0.533288
0.532091
0.532179
0.533341
0.535426
0.538111
0.541188
0.545376
0.552854
0.569174
0.604207
0.667786
0.740221
0.765678
0.729599
0.693129
0.660497
0.592493
0.343502
0.504435
0.503829
0.50455
0.506495
0.509301
0.512376
0.515381
0.519052
0.526251
0.542595
0.576319
0.63411
0.691941
0.698586
0.685067
0.677837
0.668647
0.614281
0.355781
0.472297
0.473399
0.474874
0.47683
0.479427
0.48214
0.48449
0.487413
0.493805
0.507248
0.530223
0.56268
0.597292
0.620476
0.640412
0.663795
0.675895
0.62922
0.361064
0.436024
0.438527
0.441361
0.444361
0.447394
0.450292
0.452805
0.455328
0.459121
0.466706
0.480502
0.502234
0.531506
0.56681
0.61007
0.65651
0.680171
0.630075
0.355122
0.409026
0.413287
0.417369
0.421634
0.425268
0.428475
0.431277
0.434119
0.437021
0.441838
0.450924
0.467766
0.496004
0.538187
0.597385
0.658621
0.681187
0.611187
0.328548
0.413445
0.418314
0.422678
0.431003
0.435306
0.43871
0.441981
0.448119
0.450379
0.453735
0.460144
0.474211
0.498559
0.534038
0.608491
0.674705
0.679159
0.558564
0.263978
0.486956
0.494253
0.49075
0.541298
0.530909
0.538956
0.534923
0.58681
0.562774
0.555061
0.532302
0.511918
0.509405
0.499164
0.547874
0.595621
0.517649
0.336712
0.157358
)
;

boundaryField
{
    leftWall
    {
        type            kqRWallFunction;
        value           nonuniform List<scalar> 
50
(
0.0105854
0.0157622
0.0207821
0.0255918
0.0300052
0.0339058
0.0374319
0.0407289
0.0457067
0.0513413
0.0567756
0.0621079
0.0673482
0.0724815
0.077494
0.0823829
0.0871582
0.091841
0.0964611
0.101054
0.105658
0.110316
0.115069
0.119961
0.125029
0.130304
0.135794
0.141465
0.147208
0.15284
0.158109
0.162714
0.166224
0.168229
0.169092
0.170332
0.171854
0.172262
0.170543
0.168308
0.165631
0.163529
0.163463
0.166876
0.173761
0.167133
0.121372
0.0940855
0.0936783
0.0978717
)
;
    }
    rightWall
    {
        type            kqRWallFunction;
        value           nonuniform List<scalar> 
50
(
0.00431966
0.00513366
0.00631746
0.00758324
0.00893342
0.010684
0.0136968
0.0195003
0.0300534
0.0554945
0.0861837
0.115419
0.142208
0.162526
0.179786
0.195241
0.20934
0.222417
0.235003
0.246684
0.256395
0.263899
0.269365
0.272075
0.270663
0.265581
0.259195
0.253258
0.248145
0.243832
0.240173
0.237322
0.235661
0.23548
0.237157
0.240917
0.246797
0.254712
0.264643
0.276904
0.292599
0.3099
0.32746
0.343502
0.355781
0.361064
0.355122
0.328548
0.263978
0.157358
)
;
    }
    lowerWall
    {
        type            kqRWallFunction;
        value           nonuniform List<scalar> 
62
(
0.0105854
0.0129822
0.0169217
0.0203919
0.0231953
0.025359
0.0269962
0.0284475
0.0296721
0.0308026
0.0319191
0.0330492
0.0341562
0.0351609
0.0359123
0.0361684
0.0356163
0.0339123
0.0307434
0.0264079
0.021272
0.0152339
0.0106117
0.0106117
0.015374
0.0180438
0.0189011
0.0184898
0.0172829
0.0163606
0.0175986
0.0503056
0.0583304
0.0664094
0.0733902
0.0101522
0.0141943
0.0223369
0.0294096
0.0360346
0.0426988
0.0497283
0.0580005
0.0101522
0.0117384
0.0146608
0.0161299
0.0171865
0.0179599
0.018472
0.018758
0.018853
0.0187929
0.0186183
0.018226
0.0175762
0.016619
0.0152932
0.0135803
0.0116204
0.0103005
0.00431966
)
;
    }
    atmosphere
    {
        type            inletOutlet;
        inletValue      uniform 0.1;
        value           nonuniform List<scalar> 
46
(
0.1
0.1
0.1
0.159696
0.1
0.1
0.208358
0.203402
0.196962
0.213194
0.249409
0.272472
0.1
0.30298
0.1
0.315394
0.1
0.333485
0.1
0.349081
0.1
0.367954
0.1
0.42017
0.441483
0.1
0.1
0.1
0.494253
0.49075
0.1
0.1
0.538956
0.534923
0.1
0.1
0.555061
0.532302
0.511918
0.509405
0.1
0.547874
0.595621
0.517649
0.336712
0.1
)
;
    }
    defaultFaces
    {
        type            empty;
    }
}


// ************************************************************************* //
