/*--------------------------------*- C++ -*----------------------------------*\
  =========                 |
  \\      /  F ield         | OpenFOAM: The Open Source CFD Toolbox
   \\    /   O peration     | Website:  https://openfoam.org
    \\  /    A nd           | Version:  9
     \\/     M anipulation  |
\*---------------------------------------------------------------------------*/
FoamFile
{
    format      ascii;
    class       volScalarField;
    location    "0.65";
    object      nut;
}
// * * * * * * * * * * * * * * * * * * * * * * * * * * * * * * * * * * * * * //

dimensions      [0 2 -1 0 0 0 0];

internalField   nonuniform List<scalar> 
2268
(
5.79557e-05
5.45075e-05
6.52547e-05
7.35268e-05
7.94118e-05
8.39851e-05
8.78171e-05
9.11888e-05
9.42175e-05
9.69652e-05
9.94403e-05
0.000101584
0.000103302
0.0001045
0.000105094
0.000104795
0.000103354
0.000100509
9.6052e-05
8.99341e-05
8.29356e-05
7.49893e-05
6.5693e-05
0.000113044
0.000301597
0.000457763
0.000561452
0.000647302
0.000720236
0.000782093
0.000834581
0.000879512
0.000918379
0.00095205
0.000980505
0.00100315
0.0010192
0.00102255
0.00101024
0.000980834
0.000931771
0.000863102
0.00077823
0.000687311
0.00053112
0.000187448
0.000121128
0.000495933
0.000763367
0.00097599
0.00116598
0.00133486
0.00148189
0.0016083
0.00171672
0.00180983
0.00188941
0.00195553
0.00200638
0.00203833
0.0020449
0.00202011
0.00196003
0.00185993
0.00171864
0.00153696
0.00130557
0.000916022
0.000213083
0.000122888
0.000603091
0.000955425
0.00126985
0.00156496
0.00183308
0.00206949
0.0022742
0.00245009
0.00260082
0.00272895
0.00283337
0.0029116
0.00295947
0.00297039
0.00293729
0.00285423
0.00271474
0.0025144
0.00224478
0.00186789
0.0012465
0.000235547
0.000123049
0.000637168
0.00106038
0.00147322
0.00187327
0.00224063
0.00256566
0.00284763
0.00309017
0.00329805
0.00347293
0.00361422
0.0037191
0.00378318
0.00380029
0.00376333
0.0036652
0.00349756
0.00325116
0.00290428
0.00238593
0.00152449
0.000257318
0.00012395
0.000619313
0.001104
0.00161491
0.00211911
0.00258266
0.00299225
0.00334758
0.00365377
0.00391506
0.00413417
0.00431043
0.00444087
0.00452138
0.00454655
0.00450974
0.00440318
0.0042166
0.00393527
0.00352336
0.00287848
0.00179082
0.000279539
0.000125611
0.000581704
0.00111662
0.0017228
0.00232656
0.0028798
0.00336721
0.00379018
0.00415444
0.00446497
0.00472511
0.00493392
0.00508857
0.00518555
0.00522034
0.00518698
0.00507741
0.00487954
0.00457386
0.00411352
0.00337136
0.00208096
0.00030947
0.000131786
0.000547137
0.00112895
0.00182336
0.00251658
0.0031491
0.00370527
0.00418815
0.004604
0.00495917
0.00525657
0.00549516
0.00567244
0.00578566
0.00583126
0.00580402
0.00569589
0.0054935
0.00517462
0.00468843
0.0038968
0.00246897
0.000365072
0.000278271
0.0003446
0.000376715
0.000388624
0.000371094
0.000348508
0.000337651
0.000330909
0.000323363
0.000314579
0.000306466
0.000299902
0.000296647
0.000294441
0.000287422
0.000271026
0.000244887
0.000205604
0.000197766
0.000937377
0.00174935
0.00239564
0.00291263
0.00290687
0.00258124
0.00243962
0.00241109
0.00239924
0.00236009
0.00229476
0.00220352
0.00214932
0.00216326
0.00216213
0.00204352
0.00176779
0.0012806
0.000434718
0.00105626
0.00261937
0.00394388
0.00499405
0.00483128
0.00444001
0.0041816
0.00411281
0.00410619
0.0040734
0.0039997
0.00384834
0.00374894
0.00375336
0.00372727
0.00348043
0.00290827
0.00191965
0.000477404
0.000981001
0.00268287
0.0043613
0.0056623
0.00590672
0.00558417
0.00524936
0.00514715
0.00515853
0.005173
0.00512423
0.00493474
0.00481277
0.00481516
0.00477704
0.00444855
0.00366878
0.00232021
0.000502178
0.000882411
0.00207681
0.00348935
0.00491538
0.00606877
0.0061101
0.00582555
0.0057494
0.00580034
0.00585985
0.00581081
0.00565249
0.00551741
0.00554227
0.00551559
0.00514626
0.00423597
0.00263163
0.000519544
0.000691337
0.00223741
0.00297917
0.00420885
0.00567461
0.00624434
0.00607364
0.00606311
0.00617
0.00625541
0.0062194
0.0061282
0.00601065
0.00606846
0.00606115
0.0056752
0.0046894
0.00290254
0.000533677
0.000579546
0.00190388
0.00280375
0.003746
0.005236
0.00608721
0.00608805
0.00615515
0.00633027
0.00648683
0.00652046
0.00646342
0.00639808
0.00647435
0.00647585
0.00608328
0.005059
0.00314891
0.000546132
0.000586562
0.0019788
0.00264938
0.00347054
0.00485747
0.00577855
0.00591813
0.00606887
0.00632307
0.00657275
0.0067124
0.00673602
0.00671707
0.00679891
0.00679252
0.00639559
0.00535669
0.00337252
0.000557526
0.000157468
0.00054042
0.00119438
0.00200397
0.00281201
0.00354831
0.00419629
0.00475987
0.00524732
0.00566524
0.00601518
0.00629633
0.00650672
0.00664492
0.00670877
0.00669428
0.00659389
0.00639369
0.00607167
0.00558127
0.00482018
0.00363419
0.00196975
0.000191573
0.000736573
0.00152903
0.0024218
0.00329186
0.00408936
0.00480041
0.00542851
0.00597807
0.00645273
0.00685343
0.00717784
0.00742451
0.00759383
0.00768533
0.00769704
0.00762385
0.00745453
0.0071729
0.0067528
0.00614676
0.00530851
0.00424976
0.000218374
0.00119163
0.0021025
0.00297884
0.00382162
0.00461596
0.00534886
0.00601339
0.00660384
0.00711924
0.00755816
0.00791581
0.00819207
0.00839045
0.00851124
0.00855443
0.00851826
0.00839289
0.0081721
0.00784739
0.00740015
0.00683096
0.00617638
0.000231274
0.00150769
0.00262492
0.00353532
0.00435227
0.0051183
0.00584166
0.00651441
0.00712634
0.00767068
0.00813933
0.00852788
0.0088342
0.00906308
0.00921533
0.00929171
0.0092937
0.00921841
0.00906486
0.00882941
0.00850708
0.00811201
0.00765932
0.000232241
0.00168972
0.00297682
0.00398534
0.00483639
0.00560477
0.00631706
0.00697888
0.00758624
0.00813226
0.00860876
0.00901319
0.00934804
0.00961234
0.00980416
0.00991959
0.00995946
0.00993486
0.00984473
0.00968341
0.00945762
0.00917988
0.00884881
0.00023216
0.00180053
0.00322782
0.0043373
0.00525351
0.00604912
0.00676575
0.00741996
0.00801577
0.00855093
0.00902119
0.00942625
0.00977019
0.0100542
0.010274
0.0104264
0.0105122
0.0105362
0.0105036
0.010413
0.0102673
0.0100791
0.00984422
0.000231208
0.00187411
0.00340711
0.0046105
0.00559559
0.00643462
0.00716944
0.00782581
0.00841481
0.0089402
0.00940263
0.00980385
0.0101477
0.0104366
0.0106694
0.0108457
0.010968
0.011038
0.0110567
0.0110223
0.010942
0.0108266
0.0106667
0.000230234
0.00192148
0.00353739
0.00482233
0.00587124
0.00675477
0.0075168
0.00818361
0.00877293
0.0092936
0.00975056
0.0101478
0.0104894
0.010779
0.0110182
0.0112085
0.0113526
0.0114517
0.0115056
0.0115161
0.0114889
0.0114281
0.0113179
0.00022936
0.00194945
0.00363233
0.00498496
0.0060895
0.00701394
0.00780336
0.00848647
0.00908149
0.00960223
0.0100569
0.0104516
0.0107914
0.0110807
0.0113227
0.0115204
0.0116768
0.0117938
0.0118722
0.0119144
0.0119247
0.0119037
0.0118399
0.000228356
0.00196415
0.00369887
0.00510613
0.00625746
0.00721779
0.00803243
0.00873192
0.0093367
0.00986075
0.0103157
0.0107094
0.0110482
0.011337
0.0115802
0.0117815
0.0119444
0.0120718
0.0121662
0.0122303
0.0122668
0.0122751
0.0122469
0.000227057
0.00197103
0.00374031
0.00519084
0.00638067
0.00737171
0.00820878
0.00892341
0.00953779
0.0100677
0.0105247
0.0109185
0.0112567
0.011545
0.0117883
0.0119911
0.0121573
0.0122906
0.0123946
0.0124726
0.012527
0.0125568
0.0125558
0.000225319
0.0019715
0.00376263
0.00524286
0.00646372
0.00748066
0.00833743
0.00906581
0.00968899
0.0102241
0.0106842
0.011079
0.0114166
0.011704
0.0119467
0.0121494
0.0123168
0.0124533
0.0125631
0.0126502
0.0127171
0.0127627
0.0127806
0.000223089
0.00196549
0.00376899
0.00526818
0.00651065
0.00754922
0.00842324
0.00916412
0.00979545
0.0103352
0.0107973
0.0111926
0.0115296
0.0118155
0.0120564
0.0122577
0.0124245
0.0125619
0.0126748
0.0127677
0.0128433
0.0129003
0.012931
0.000220394
0.00195332
0.00375991
0.00527061
0.00652773
0.00758162
0.00847081
0.00922314
0.00986214
0.0104061
0.0108696
0.0112642
0.0115992
0.0118822
0.0121199
0.012318
0.0124823
0.0126184
0.0127319
0.0128278
0.0129091
0.0129743
0.0130143
0.000217314
0.00193553
0.00373658
0.00525171
0.00651875
0.00758424
0.00848444
0.00924732
0.00989364
0.0104416
0.010906
0.011299
0.0116304
0.0119087
0.0121409
0.0123335
0.0124928
0.012625
0.0127364
0.0128327
0.0129173
0.0129888
0.0130371
0.000213964
0.00191283
0.00370058
0.00521365
0.00648611
0.00756049
0.00847011
0.00924098
0.00989395
0.0104458
0.0109107
0.0113012
0.0116277
0.0118992
0.0121235
0.0123079
0.0124593
0.0125847
0.0126912
0.0127853
0.0128712
0.0129481
0.013006
0.000210476
0.00188603
0.00365372
0.00515894
0.00643263
0.00751327
0.00843086
0.00920907
0.00986734
0.010422
0.0108871
0.0112743
0.0115945
0.0118574
0.0120714
0.0122447
0.0123852
0.0125009
0.0125998
0.0126895
0.0127753
0.0128577
0.0129279
0.000206988
0.00185606
0.00359797
0.00509028
0.00636137
0.00744568
0.00836969
0.00915443
0.00981753
0.0103743
0.0108382
0.0112211
0.0115337
0.0117861
0.0119875
0.0121472
0.012274
0.0123773
0.0124664
0.0125499
0.0126348
0.0127233
0.0128089
0.000203636
0.00182391
0.00353546
0.00501057
0.0062756
0.00736102
0.00828973
0.00907995
0.0097472
0.0103054
0.0107672
0.0111443
0.0114478
0.0116879
0.0118748
0.0120186
0.0121296
0.0122185
0.0122959
0.0123722
0.0124558
0.0125512
0.0126549
0.000200545
0.00179061
0.00346836
0.0049228
0.00617871
0.00726276
0.00819433
0.0089887
0.00965915
0.010218
0.0106768
0.0110469
0.0113395
0.0115656
0.0117362
0.0118626
0.0119562
0.0120293
0.0120942
0.0121628
0.0122451
0.0123479
0.0124707
0.000197819
0.00175721
0.00339893
0.0048301
0.00607427
0.00715458
0.00808701
0.00888399
0.00955648
0.010115
0.0105699
0.010932
0.0112125
0.0114229
0.0115756
0.0116831
0.0117586
0.0118156
0.0118678
0.0119288
0.0120101
0.0121201
0.0122612
0.00019554
0.00172471
0.00332941
0.00473558
0.0059659
0.00704026
0.00797153
0.00876939
0.00944254
0.00999961
0.0104498
0.010803
0.0110704
0.0112643
0.011398
0.0114857
0.0115425
0.0115834
0.0116236
0.0116776
0.0117581
0.0118748
0.012032
0.000193762
0.00169409
0.00326197
0.00464233
0.00585722
0.00692367
0.00785174
0.00864865
0.00932095
0.00987549
0.01032
0.0106638
0.0109177
0.0110945
0.0112089
0.0112767
0.0113147
0.0113399
0.0113686
0.0114164
0.0114966
0.011619
0.011789
0.00019251
0.00166621
0.00319864
0.00455324
0.0057517
0.00680857
0.00773149
0.00852557
0.00919545
0.0097463
0.0101845
0.0105185
0.0107587
0.0109186
0.0110139
0.0110622
0.011082
0.0110921
0.01111
0.0111521
0.0112322
0.0113592
0.0115387
0.000191784
0.00164178
0.00314117
0.00447092
0.00565252
0.00669847
0.00761444
0.00840381
0.00906966
0.0096157
0.0100471
0.0103711
0.010598
0.0107415
0.0108184
0.0108478
0.0108502
0.0108459
0.0108539
0.0108907
0.0109702
0.011101
0.0112871
0.000191563
0.00162134
0.00309096
0.00439752
0.00556241
0.00659648
0.00750387
0.00828673
0.00894695
0.00948709
0.00991112
0.0102254
0.0104397
0.0105677
0.0106271
0.0106385
0.0106242
0.010606
0.0106042
0.0106358
0.0107142
0.0108477
0.0110385
0.000191813
0.00160518
0.00304901
0.0043347
0.00548359
0.0065052
0.00740263
0.00817723
0.00883022
0.00936338
0.00977973
0.0100847
0.0102873
0.010401
0.010444
0.0104383
0.0104076
0.0103756
0.0103637
0.0103894
0.0104657
0.0106008
0.010795
0.000192491
0.00159344
0.00301593
0.00428361
0.00541771
0.00642671
0.00731303
0.00807775
0.00872191
0.00924696
0.00965529
0.00995141
0.0101434
0.0102443
0.0102723
0.0102502
0.0102032
0.0101567
0.0101333
0.0101516
0.0102245
0.0103594
0.0105558
0.000193548
0.00158609
0.00299199
0.00424501
0.00536603
0.00636265
0.007237
0.00799029
0.00862399
0.00913971
0.00953961
0.00982742
0.0100102
0.0100999
0.0101143
0.0100766
0.010013
0.00995058
0.00991357
0.00992165
0.00998837
0.0101208
0.010318
0.000194931
0.00158305
0.00297735
0.00421943
0.00532953
0.00631443
0.00717616
0.00791659
0.00853809
0.0090431
0.00943397
0.00971392
0.00988878
0.00996914
0.0099717
0.00991921
0.00983868
0.0097584
0.00970456
0.00969851
0.00975497
0.00988128
0.010077
0.000196599
0.00158429
0.00297222
0.00420749
0.00530927
0.00628345
0.00713216
0.00785828
0.0084657
0.00895831
0.00933927
0.00961158
0.00977991
0.00985302
0.00984579
0.00977979
0.00968198
0.00958172
0.00950716
0.00948184
0.00952243
0.00963759
0.00982757
0.000198533
0.00158996
0.00297714
0.00421025
0.00530677
0.00627152
0.00710688
0.00781716
0.00840836
0.00888649
0.00925616
0.00952069
0.00968371
0.00975186
0.00973745
0.0096599
0.00954514
0.00942305
0.00932356
0.00927288
0.00929046
0.0093873
0.00956519
0.000200758
0.00160057
0.00299339
0.0042297
0.00532448
0.00628125
0.00710283
0.00779543
0.0083678
0.00882878
0.00918519
0.00944123
0.00959982
0.00966537
0.009647
0.00956091
0.0094308
0.009286
0.00915783
0.00907531
0.00906144
0.00913067
0.00928755
0.000203352
0.00161722
0.00302345
0.00426938
0.00536641
0.00631657
0.00712347
0.00779589
0.00834609
0.00878649
0.00912682
0.00937286
0.00952732
0.00959251
0.00957394
0.0094836
0.00934155
0.00917515
0.00901604
0.00889579
0.00884144
0.00887203
0.0089962
0.000206464
0.0016419
0.00307171
0.00433529
0.00543902
0.00638335
0.00717353
0.00782203
0.00834558
0.00876096
0.00908142
0.00931496
0.00946468
0.00953122
0.00951646
0.00942744
0.00927917
0.00909521
0.00890582
0.00874404
0.00864094
0.00862102
0.00869867
0.000210342
0.00167803
0.00314557
0.00443728
0.0055523
0.00649007
0.0072593
0.007878
0.00836873
0.00875334
0.00904905
0.00926647
0.00940968
0.0094783
0.009471
0.00938969
0.00924324
0.00904949
0.00883495
0.00863211
0.00847491
0.00839358
0.00840968
0.000215379
0.00173133
0.00325757
0.00459135
0.00572152
0.00664857
0.00738854
0.00796819
0.00841759
0.00876419
0.00902918
0.00922576
0.00935937
0.00942933
0.00943198
0.00936464
0.00922971
0.00903776
0.00880899
0.00857221
0.00836172
0.00821229
0.00815329
0.000222224
0.00181201
0.00343012
0.0048243
0.00596966
0.00687451
0.00756998
0.00809635
0.00849297
0.00879282
0.00902026
0.00919049
0.00931016
0.00937894
0.00939201
0.00934339
0.00922974
0.00905395
0.00882778
0.00857288
0.00831977
0.00810449
0.0079631
0.000232112
0.00194176
0.00370817
0.00518296
0.00633078
0.00718685
0.00781132
0.00826369
0.0085931
0.00883647
0.00901937
0.0091575
0.00925809
0.00932142
0.00934272
0.00931455
0.00922976
0.00908468
0.00888213
0.00863379
0.00836146
0.00809671
0.00787808
0.000247696
0.0021808
0.00419403
0.00575167
0.00685192
0.00760365
0.00811482
0.00846596
0.00871212
0.0088897
0.00902205
0.00912306
0.00919932
0.00925163
0.0092762
0.00926613
0.00921321
0.00911
0.00895227
0.00874125
0.00848595
0.00820546
0.0079316
0.000274931
0.00273763
0.00513796
0.00667255
0.00758216
0.00812855
0.00846898
0.00868975
0.00883898
0.00894451
0.00902286
0.00908351
0.00913107
0.00916634
0.00918705
0.0091885
0.00916426
0.00910711
0.00901009
0.00886745
0.00867518
0.00843123
0.00813892
0.000320592
0.00457545
0.00715092
0.0081108
0.00851715
0.00872158
0.00883817
0.00891049
0.00895833
0.00899192
0.00901702
0.00903685
0.00905301
0.00906585
0.00907466
0.00907782
0.00907288
0.00905673
0.00902566
0.00897507
0.00889746
0.00877287
0.00853117
0.000405112
0.000390505
0.00039667
0.00043115
0.00334775
0.00316347
0.00305799
0.00294431
0.00566512
0.00537223
0.00504635
0.00462136
0.00725283
0.00695346
0.00657668
0.00608109
0.00851189
0.00824585
0.00790048
0.007452
0.00958445
0.00936871
0.00907483
0.00869885
0.0104625
0.0102921
0.01008
0.00980153
0.0111651
0.0110433
0.010896
0.0107128
0.0117366
0.0116532
0.011552
0.0114287
0.0121838
0.0121288
0.0120585
0.0119701
0.0125187
0.0124809
0.0124278
0.0123569
0.0127584
0.0127296
0.0126843
0.0126196
0.0129166
0.0128919
0.0128488
0.012784
0.0130045
0.0129822
0.0129397
0.0128734
0.0130324
0.0130137
0.0129739
0.0129087
0.0130099
0.0129984
0.0129657
0.0129076
0.0129455
0.0129457
0.0129263
0.0128826
0.0128459
0.0128624
0.0128621
0.0128403
0.0127156
0.0127517
0.012775
0.0127807
0.0125571
0.0126143
0.0126634
0.0126993
0.0123725
0.0124501
0.0125241
0.0125895
0.0121648
0.0122599
0.0123555
0.0124469
0.0119386
0.0120473
0.0121597
0.0122716
0.0117001
0.0118181
0.0119424
0.0120688
0.0114559
0.0115798
0.0117113
0.0118469
0.0112117
0.0113388
0.0114744
0.0116151
0.0109707
0.0110998
0.0112376
0.0113809
0.0107334
0.010864
0.0110032
0.0111483
0.0104971
0.010629
0.0107699
0.0109169
0.0102567
0.01039
0.0105328
0.0106823
0.0100061
0.0101401
0.0102847
0.0104369
0.00973913
0.00987231
0.0100176
0.010172
0.00945137
0.00958079
0.0097244
0.00987915
0.00914181
0.0092628
0.00940058
0.00955211
0.00881512
0.00892108
0.00904686
0.00918955
0.00848391
0.00856648
0.00867206
0.00879806
0.00817159
0.00822128
0.00829682
0.00839625
0.00791412
0.00792192
0.00795722
0.00801915
0.00775766
0.00771794
0.00770512
0.00771986
0.00774547
0.00765859
0.00759527
0.00755811
0.00788798
0.00775585
0.00764414
0.00755745
0.00810938
0.00792028
0.00776365
0.00763824
0.00154846
0.00236665
0.00278176
0.00331628
0.00433256
0.00514933
0.00541369
0.00572459
0.00612308
0.0065194
0.00682755
0.00700601
0.00709179
0.00714479
0.00709952
0.0066949
0.00565387
0.00361445
0.000568869
0.00284029
0.00265771
0.00323705
0.00355546
0.00405825
0.00455436
0.00477216
0.00504592
0.00553435
0.00614201
0.00669812
0.00710927
0.0073653
0.00745277
0.00736974
0.00694391
0.00590735
0.00383658
0.000586995
0.00384697
0.00296966
0.0033936
0.00393112
0.00416957
0.00434247
0.00444599
0.00467124
0.00513637
0.00580618
0.0064977
0.00711438
0.00753096
0.00767998
0.00756021
0.00708871
0.00603781
0.00394215
0.000598665
0.00515284
0.0037096
0.00335848
0.00389332
0.00441479
0.00451243
0.00453201
0.00470338
0.00514854
0.00587383
0.00672596
0.00743511
0.0078353
0.00793599
0.00771602
0.00715936
0.00607176
0.00397251
0.000601233
0.00659834
0.00497749
0.003806
0.00363667
0.00413004
0.00456023
0.00474178
0.00493698
0.00540149
0.00626685
0.00736164
0.00804598
0.00826511
0.00819966
0.00782099
0.00714568
0.0060037
0.00392521
0.000593574
0.00800481
0.00655374
0.00499756
0.0040368
0.00395801
0.00427944
0.00466931
0.00508951
0.00576192
0.00694557
0.00812252
0.00854526
0.00865511
0.00839068
0.00784225
0.00703461
0.00582295
0.00377771
0.000569775
0.00927118
0.00815339
0.00670459
0.00535759
0.00464922
0.00459307
0.00487587
0.00542001
0.00635154
0.00759827
0.00852976
0.00893901
0.00889021
0.00847513
0.00777028
0.0068189
0.00552085
0.00351997
0.000528259
0.01037
0.00956521
0.00846665
0.00723406
0.00621568
0.00574887
0.00576716
0.00621853
0.00703711
0.00806995
0.00886268
0.00915129
0.00901175
0.00847924
0.0076167
0.00650175
0.00510166
0.00315998
0.000488961
0.0111938
0.0106854
0.00990312
0.00898577
0.00804349
0.00737985
0.00713222
0.00732953
0.00787033
0.00857378
0.00910118
0.00928871
0.00908706
0.00843809
0.00739861
0.00611597
0.0046643
0.00286971
0.000470102
0.0118024
0.0114166
0.0108763
0.010193
0.00946216
0.00880266
0.00841711
0.00834737
0.00856847
0.00894944
0.00929904
0.00944475
0.00918938
0.00841222
0.00716291
0.00567896
0.00417509
0.00265147
0.000475753
0.0122187
0.011895
0.0114388
0.0108592
0.0102413
0.00967086
0.00928789
0.00905306
0.00907226
0.00927465
0.00955539
0.00970106
0.0094201
0.00850155
0.00699097
0.0052453
0.00359242
0.0023181
0.000457364
0.0124892
0.0121718
0.0117217
0.0111679
0.0105689
0.0100397
0.00968958
0.00949212
0.00949395
0.00967162
0.00997121
0.0101632
0.00999688
0.00883502
0.00706248
0.00513771
0.00336428
0.00199543
0.000445758
0.0126509
0.0123133
0.0118343
0.0112584
0.0106664
0.0101853
0.00990087
0.00978761
0.00986773
0.0101314
0.0105476
0.0108996
0.0107425
0.00947691
0.00758663
0.00554094
0.00366009
0.00202084
0.000478249
0.0127362
0.012374
0.0118624
0.011262
0.0106918
0.0102834
0.0100994
0.0101096
0.0102889
0.0106047
0.0110185
0.0113618
0.0110654
0.0103447
0.00855144
0.00632029
0.00427708
0.00234184
0.000509457
0.0127737
0.0123985
0.0118686
0.0112742
0.0107568
0.0104276
0.010328
0.0104216
0.0106568
0.0109553
0.0111814
0.0111101
0.0107021
0.0100068
0.0087686
0.00693407
0.00475389
0.00261295
0.000526722
0.0127862
0.0124196
0.011902
0.0113482
0.0108878
0.0106172
0.0105621
0.0106826
0.0108986
0.0110699
0.011028
0.010731
0.0104402
0.0100094
0.00863897
0.00679366
0.00478655
0.00266621
0.000534583
0.0127886
0.0124569
0.0119883
0.0114859
0.0110694
0.0108234
0.0107671
0.0108573
0.0109924
0.0110221
0.0108395
0.0106016
0.0106751
0.00998733
0.00845814
0.00677643
0.00483113
0.00263265
0.000545232
0.0127869
0.0125191
0.0121196
0.0116706
0.0112803
0.0110274
0.0109319
0.0109522
0.0109882
0.0109154
0.0107087
0.010637
0.0107651
0.00994572
0.00855087
0.00698067
0.00504794
0.00271182
0.000566546
0.0127776
0.0125951
0.0122763
0.0118816
0.0115054
0.0112247
0.0110662
0.0109989
0.0109412
0.0108093
0.0106461
0.0106941
0.0107539
0.0100095
0.00878309
0.00732834
0.00544437
0.00298282
0.00059384
0.0127515
0.0126647
0.0124347
0.0120984
0.0117338
0.0114171
0.0111862
0.0110278
0.0108887
0.0107317
0.0106403
0.010759
0.0108001
0.0102205
0.00912143
0.00775472
0.00593714
0.0033752
0.00062265
0.0126956
0.0127066
0.01257
0.0122995
0.0119536
0.0116051
0.0113041
0.0110597
0.0108508
0.0106831
0.0106521
0.0108136
0.0108786
0.0104461
0.009483
0.00819693
0.0064305
0.00378042
0.000651165
0.0126003
0.0127008
0.012658
0.0124607
0.0121456
0.0117776
0.0114172
0.0110979
0.0108334
0.0106606
0.010661
0.0108351
0.0109345
0.0106357
0.00980625
0.00860608
0.0068853
0.00417988
0.000679474
0.0124629
0.0126389
0.0126811
0.0125594
0.0122887
0.0119215
0.011523
0.0111475
0.0108382
0.0106523
0.010656
0.01083
0.0109747
0.010797
0.0101094
0.00897
0.00725386
0.00445519
0.000702429
0.0122874
0.0125221
0.0126372
0.0125894
0.0123739
0.0120279
0.0116144
0.0112019
0.0108559
0.0106467
0.0106344
0.0108031
0.0109934
0.010929
0.0103779
0.00927207
0.00751405
0.00463194
0.000715981
0.012083
0.012359
0.0125316
0.0125506
0.0123959
0.0120875
0.0116807
0.0112497
0.0108744
0.0106352
0.0105948
0.0107501
0.0109704
0.0109984
0.0105768
0.00947965
0.00767447
0.00473965
0.000724413
0.011861
0.012163
0.012377
0.0124514
0.012356
0.0120956
0.0117131
0.0112808
0.0108855
0.0106155
0.0105416
0.010674
0.0109025
0.0109922
0.0106847
0.00961949
0.00778854
0.00481316
0.000729662
0.0116317
0.0119486
0.0121901
0.012307
0.0122644
0.0120555
0.0117099
0.0112918
0.0108886
0.0105947
0.0104895
0.0105933
0.0108115
0.0109373
0.0107305
0.00973246
0.00786292
0.00485878
0.000730291
0.0114022
0.0117279
0.0119874
0.0121357
0.0121377
0.0119792
0.0116781
0.0112881
0.0108923
0.010588
0.010461
0.0105381
0.0107373
0.0108779
0.0107437
0.00982189
0.00791035
0.00487335
0.000725152
0.0111742
0.0115075
0.0117809
0.0119541
0.011994
0.0118834
0.0116316
0.011282
0.0109109
0.0106143
0.0104798
0.0105366
0.0107118
0.0108403
0.0107043
0.00989077
0.00796595
0.00485998
0.000714708
0.0109446
0.0112875
0.0115753
0.0117717
0.0118468
0.011783
0.0115845
0.0112863
0.0109566
0.0106861
0.010558
0.0105978
0.0107364
0.0108186
0.0106384
0.00986212
0.00797018
0.00482168
0.000701881
0.0107058
0.0110616
0.0113673
0.0115894
0.0117008
0.0116852
0.0115442
0.0113063
0.0110311
0.0108004
0.0106866
0.0107051
0.0107855
0.0107818
0.0105102
0.00971483
0.00793083
0.00480915
0.000692736
0.0104475
0.0108191
0.0111469
0.0113989
0.0115502
0.0115859
0.0115063
0.0113346
0.0111214
0.0109363
0.0108366
0.0108257
0.0108323
0.0107252
0.0103471
0.00949129
0.00784355
0.0048893
0.000698351
0.0101591
0.0105468
0.0108993
0.011185
0.01138
0.0114702
0.0114547
0.0113517
0.0112017
0.0110604
0.0109697
0.0109219
0.0108509
0.0106445
0.010173
0.00926879
0.00767918
0.00493278
0.000723074
0.0098318
0.0102317
0.0106086
0.0109293
0.01117
0.0113161
0.011365
0.0113296
0.0112398
0.0111364
0.0110475
0.0109584
0.0108111
0.0105154
0.00996647
0.00902721
0.00748228
0.00484485
0.000711899
0.00946091
0.00986434
0.0102607
0.0106138
0.0108986
0.011099
0.0112098
0.011238
0.0112031
0.0111312
0.0110378
0.0109063
0.0106895
0.0103171
0.009706
0.00873827
0.00722034
0.00466259
0.000697702
0.00904921
0.00944216
0.0098475
0.0102252
0.0105479
0.010797
0.0109634
0.0110483
0.0110615
0.0110154
0.0109134
0.0107426
0.010467
0.0100286
0.0093669
0.00838058
0.00689368
0.00442528
0.000674644
0.00861161
0.00897406
0.00937142
0.00976012
0.0101096
0.0103967
0.010608
0.0107386
0.0107899
0.0107633
0.0106531
0.0104469
0.0101176
0.00962291
0.00892118
0.00792713
0.0064925
0.00413268
0.000642371
0.00818042
0.00848661
0.0088525
0.00923249
0.00959163
0.00990143
0.0101427
0.0103043
0.01038
0.0103639
0.0102445
0.0100056
0.00962505
0.00907885
0.00834063
0.00735199
0.005992
0.00381893
0.000637518
0.00780914
0.0080301
0.00833613
0.00868201
0.0090288
0.00934179
0.00959516
0.00977093
0.00985619
0.00983885
0.00970335
0.00942887
0.00899166
0.00838287
0.00761104
0.00664695
0.00539678
0.00355959
0.000663737
0.00756424
0.00767614
0.00789522
0.00818036
0.00849053
0.00878533
0.00903199
0.00920554
0.00928656
0.00925719
0.00909631
0.00877501
0.00825711
0.00753671
0.00671892
0.00578891
0.00466064
0.00306442
0.000642284
0.00748369
0.0074849
0.00760754
0.00781731
0.00807395
0.00833396
0.00855901
0.00871799
0.00878558
0.00873809
0.00854625
0.00816335
0.00751195
0.00652724
0.00568453
0.00487596
0.00394622
0.00256691
0.000575678
0.00750872
0.00743707
0.00749282
0.00764592
0.00785798
0.00808565
0.00828849
0.00843211
0.00848755
0.00842654
0.00821127
0.00777024
0.0069371
0.00548193
0.00531967
0.00519441
0.00483694
0.00342425
0.000518155
)
;

boundaryField
{
    leftWall
    {
        type            nutkWallFunction;
        Cmu             0.09;
        kappa           0.41;
        E               9.8;
        value           nonuniform List<scalar> 
50
(
1.08093e-05
1.33643e-05
1.42544e-05
1.4445e-05
1.44868e-05
1.45987e-05
1.4791e-05
1.54987e-05
1.83437e-05
1.89022e-05
2.27357e-05
2.45501e-05
2.46519e-05
2.46072e-05
2.44515e-05
2.42968e-05
2.41613e-05
2.40109e-05
2.38197e-05
2.35664e-05
2.32431e-05
2.28534e-05
2.24089e-05
2.19258e-05
2.14231e-05
2.09207e-05
2.04384e-05
1.99942e-05
1.96036e-05
1.92786e-05
1.9027e-05
1.88526e-05
1.87553e-05
1.87319e-05
1.87775e-05
1.88854e-05
1.90481e-05
1.9258e-05
1.95085e-05
1.97967e-05
2.01254e-05
2.05056e-05
2.09582e-05
2.15175e-05
2.22385e-05
2.32111e-05
2.46025e-05
2.67723e-05
3.05525e-05
3.69111e-05
)
;
    }
    rightWall
    {
        type            nutkWallFunction;
        Cmu             0.09;
        kappa           0.41;
        E               9.8;
        value           nonuniform List<scalar> 
50
(
3.71818e-05
4.7261e-05
5.12417e-05
5.3495e-05
5.50547e-05
5.6324e-05
5.74576e-05
5.8515e-05
5.95965e-05
6.14529e-05
6.25926e-05
6.28635e-05
6.22452e-05
6.01921e-05
5.63425e-05
5.21468e-05
4.98728e-05
5.05491e-05
5.0606e-05
4.82736e-05
5.07021e-05
5.33697e-05
5.53869e-05
5.62513e-05
5.69267e-05
5.95371e-05
6.17301e-05
6.43247e-05
6.70144e-05
6.96555e-05
7.10799e-05
7.25694e-05
7.36818e-05
7.44003e-05
7.47959e-05
7.45928e-05
7.38272e-05
7.26956e-05
7.16508e-05
7.19907e-05
8.36211e-05
7.50096e-05
7.32954e-05
7.14911e-05
6.84099e-05
6.99264e-05
8.1902e-05
7.98404e-05
7.1927e-05
6.41125e-05
)
;
    }
    lowerWall
    {
        type            nutkWallFunction;
        Cmu             0.09;
        kappa           0.41;
        E               9.8;
        value           nonuniform List<scalar> 
62
(
5.18444e-06
6.64049e-06
7.93399e-06
8.90691e-06
9.58996e-06
1.01158e-05
1.05541e-05
1.09388e-05
1.12836e-05
1.1595e-05
1.18741e-05
1.21149e-05
1.23067e-05
1.24384e-05
1.25033e-05
1.24696e-05
1.2307e-05
1.19856e-05
1.14811e-05
1.07818e-05
9.97711e-06
9.04236e-06
7.9939e-06
7.9939e-06
2.14613e-05
2.41557e-05
2.65141e-05
2.8737e-05
3.09338e-05
3.37758e-05
3.90254e-05
4.31637e-05
4.15204e-05
4.19158e-05
4.51003e-05
2.54688e-05
8.12e-05
9.12902e-05
8.97522e-05
8.10209e-05
6.2828e-05
5.7514e-05
5.95855e-05
2.54688e-05
3.35962e-05
3.7285e-05
3.92386e-05
3.92942e-05
3.83753e-05
3.76656e-05
3.71151e-05
3.64183e-05
3.55111e-05
3.45685e-05
3.37573e-05
3.32473e-05
3.29489e-05
3.22561e-05
3.059e-05
2.78684e-05
2.37753e-05
1.6942e-05
)
;
    }
    atmosphere
    {
        type            calculated;
        value           nonuniform List<scalar> 
46
(
0.000320592
0.009
0.009
0.009
0.009
0.009
0.009
0.009
0.009
0.009
0.009
0.009
0.009
0.009
0.009
0.009
0.009
0.009
0.009
0.009
0.009
0.009
0.009
0.00810938
0.00792028
0.00776365
0.00763824
0.00750872
0.00743707
0.00749282
0.00764592
0.00785798
0.00808565
0.00828849
0.00843211
0.00848755
0.00842654
0.00821127
0.00777024
0.0069371
0.009
0.009
0.009
0.009
0.009
0.000518155
)
;
    }
    defaultFaces
    {
        type            empty;
    }
}


// ************************************************************************* //
