/*--------------------------------*- C++ -*----------------------------------*\
  =========                 |
  \\      /  F ield         | OpenFOAM: The Open Source CFD Toolbox
   \\    /   O peration     | Website:  https://openfoam.org
    \\  /    A nd           | Version:  9
     \\/     M anipulation  |
\*---------------------------------------------------------------------------*/
FoamFile
{
    format      ascii;
    class       volScalarField;
    location    "0.65";
    object      p;
}
// * * * * * * * * * * * * * * * * * * * * * * * * * * * * * * * * * * * * * //

dimensions      [1 -1 -2 0 0 0 0];

internalField   nonuniform List<scalar> 
2268
(
-1.55181
-1.55614
-1.56117
-1.56934
-1.5808
-1.59428
-1.60972
-1.62706
-1.64632
-1.6676
-1.69108
-1.71693
-1.74548
-1.77708
-1.81212
-1.85074
-1.89222
-1.93408
-1.97041
-1.99285
-1.99421
-1.98028
-1.96562
-1.49433
-1.49836
-1.5006
-1.5082
-1.5201
-1.53426
-1.55059
-1.56882
-1.58893
-1.61104
-1.6353
-1.66194
-1.69124
-1.72355
-1.75918
-1.79815
-1.83966
-1.88123
-1.91791
-1.94071
-1.94073
-1.9221
-1.90375
-1.43576
-1.43996
-1.44054
-1.44782
-1.45954
-1.47421
-1.49125
-1.51031
-1.53128
-1.55423
-1.57929
-1.60667
-1.63664
-1.66949
-1.70545
-1.74448
-1.78574
-1.82682
-1.86297
-1.88662
-1.88928
-1.87099
-1.85093
-1.37615
-1.38078
-1.38124
-1.3882
-1.39961
-1.41441
-1.4318
-1.45137
-1.47293
-1.49647
-1.52208
-1.54993
-1.58025
-1.61329
-1.64927
-1.68814
-1.72919
-1.77023
-1.80682
-1.8321
-1.83834
-1.82331
-1.8024
-1.31561
-1.32085
-1.32222
-1.32905
-1.3402
-1.35495
-1.37246
-1.39227
-1.41415
-1.43801
-1.4639
-1.49193
-1.5223
-1.55523
-1.59094
-1.62947
-1.6703
-1.71161
-1.74926
-1.77671
-1.78628
-1.77494
-1.75411
-1.25429
-1.26054
-1.26324
-1.27021
-1.28125
-1.29591
-1.31342
-1.33331
-1.35532
-1.3793
-1.40524
-1.43322
-1.46338
-1.49595
-1.53114
-1.56909
-1.60949
-1.65099
-1.68975
-1.71962
-1.73194
-1.72384
-1.70345
-1.1925
-1.20007
-1.20438
-1.21175
-1.22283
-1.23743
-1.25488
-1.27475
-1.29673
-1.32065
-1.34646
-1.37418
-1.40393
-1.4359
-1.47032
-1.50738
-1.54703
-1.58839
-1.62827
-1.6597
-1.67451
-1.66847
-1.6502
-1.13036
-1.1394
-1.1456
-1.15364
-1.16491
-1.1795
-1.19686
-1.21661
-1.23845
-1.26218
-1.28769
-1.31498
-1.34413
-1.37529
-1.4087
-1.44459
-1.48312
-1.52389
-1.56437
-1.597
-1.61428
-1.60931
-1.59585
-1.62835
-1.64277
-1.65743
-1.68015
-1.70216
-1.71797
-1.72423
-1.71938
-1.70263
-1.67338
-1.63075
-1.57406
-1.5034
-1.42014
-1.32831
-1.23541
-1.15331
-1.10015
-1.08663
-1.56746
-1.57882
-1.59293
-1.61798
-1.64204
-1.65917
-1.66624
-1.66208
-1.64605
-1.61762
-1.57602
-1.52075
-1.45168
-1.36998
-1.27912
-1.18613
-1.10198
-1.04369
-1.02522
-1.50476
-1.51844
-1.53395
-1.55995
-1.58453
-1.60184
-1.60922
-1.60564
-1.59053
-1.56331
-1.52334
-1.46989
-1.4026
-1.32232
-1.23181
-1.13728
-1.04822
-0.982021
-0.960649
-1.44335
-1.46317
-1.48166
-1.50685
-1.53057
-1.54719
-1.55444
-1.55127
-1.53704
-1.51106
-1.47262
-1.42083
-1.355
-1.27551
-1.1845
-1.08737
-0.992398
-0.91767
-0.892562
-1.38767
-1.41328
-1.43524
-1.45827
-1.48025
-1.49555
-1.50227
-1.49924
-1.48571
-1.46085
-1.42379
-1.37349
-1.30894
-1.22991
-1.13791
-1.03767
-0.936368
-0.852021
-0.820691
-1.34384
-1.36989
-1.39449
-1.41395
-1.43335
-1.44681
-1.45265
-1.44954
-1.43657
-1.41274
-1.37703
-1.32824
-1.26503
-1.1865
-1.09341
-0.989967
-0.882157
-0.786382
-0.744658
-1.32144
-1.33535
-1.35966
-1.37373
-1.38962
-1.40079
-1.40548
-1.40212
-1.38961
-1.3668
-1.33249
-1.28537
-1.22376
-1.14607
-1.05212
-0.945776
-0.832042
-0.722415
-0.662751
-1.33324
-1.3167
-1.33077
-1.33751
-1.34883
-1.35731
-1.36063
-1.35691
-1.34481
-1.32306
-1.2903
-1.24511
-1.1856
-1.10944
-1.01526
-0.906842
-0.78844
-0.660508
-0.570601
-1.03253
-1.04355
-1.05265
-1.06205
-1.07384
-1.08847
-1.10569
-1.12517
-1.14666
-1.16993
-1.19482
-1.22126
-1.24928
-1.27898
-1.31054
-1.34425
-1.38052
-1.41976
-1.46111
-1.49922
-1.52066
-1.51952
-1.51256
-0.899016
-0.912046
-0.923942
-0.935259
-0.948034
-0.963054
-0.980284
-0.999511
-1.02051
-1.04307
-1.06702
-1.0922
-1.11857
-1.14612
-1.17494
-1.20522
-1.2373
-1.27167
-1.30794
-1.34216
-1.36666
-1.37317
-1.36932
-0.766252
-0.781453
-0.796062
-0.809442
-0.823481
-0.839145
-0.856562
-0.875613
-0.896122
-0.917909
-0.940811
-0.964705
-0.989493
-1.01516
-1.04175
-1.06939
-1.09825
-1.12833
-1.15876
-1.18667
-1.20774
-1.21836
-1.21949
-0.634962
-0.65248
-0.669902
-0.68551
-0.701045
-0.717604
-0.735424
-0.754468
-0.774619
-0.795738
-0.817702
-0.840428
-0.863859
-0.887987
-0.912837
-0.938433
-0.964737
-0.991463
-1.01765
-1.04132
-1.06002
-1.07213
-1.07789
-0.50567
-0.52566
-0.546004
-0.563974
-0.581188
-0.598847
-0.617267
-0.636482
-0.656437
-0.677052
-0.698259
-0.720022
-0.742334
-0.765211
-0.788666
-0.812672
-0.837099
-0.861591
-0.885369
-0.907171
-0.925598
-0.93958
-0.949092
-0.378746
-0.401283
-0.424566
-0.444942
-0.463931
-0.482816
-0.501974
-0.521497
-0.541392
-0.561644
-0.582247
-0.603224
-0.624615
-0.646465
-0.66879
-0.691548
-0.714588
-0.737582
-0.759964
-0.780988
-0.799885
-0.815884
-0.828946
-0.254422
-0.279469
-0.305576
-0.328279
-0.349026
-0.369166
-0.389118
-0.409022
-0.428942
-0.448925
-0.469028
-0.489331
-0.509925
-0.530886
-0.552248
-0.573974
-0.59593
-0.617857
-0.639371
-0.66005
-0.67948
-0.697118
-0.713078
-0.13281
-0.160213
-0.188893
-0.213725
-0.236105
-0.257434
-0.278161
-0.29846
-0.318444
-0.338214
-0.357884
-0.37759
-0.397469
-0.417634
-0.438137
-0.45896
-0.480002
-0.501073
-0.521933
-0.542373
-0.562195
-0.581003
-0.599124
-0.013939
-0.0434599
-0.0743667
-0.101042
-0.124856
-0.147248
-0.168681
-0.189355
-0.209417
-0.229014
-0.248307
-0.267477
-0.286706
-0.306139
-0.32585
-0.345837
-0.366026
-0.386286
-0.406488
-0.426575
-0.44651
-0.465992
-0.485576
0.102163
0.0707978
0.0380433
0.00983237
-0.0152009
-0.0385148
-0.0605777
-0.0815993
-0.10175
-0.121208
-0.140172
-0.158861
-0.17749
-0.19623
-0.215176
-0.234333
-0.253642
-0.273017
-0.292412
-0.311902
-0.331585
-0.351253
-0.371693
0.215395
0.182428
0.148155
0.118666
0.0925907
0.0684679
0.0458384
0.0244945
0.00425542
-0.0150801
-0.0337426
-0.0519775
-0.070022
-0.0880687
-0.106222
-0.124491
-0.142821
-0.161155
-0.179521
-0.198117
-0.217188
-0.236642
-0.257499
0.325521
0.291106
0.255523
0.224916
0.19791
0.17306
0.149925
0.128307
0.108022
0.0888478
0.0705244
0.0527811
0.0353667
0.0180806
0.000813451
-0.0164408
-0.0336296
-0.0507214
-0.067816
-0.0852385
-0.1034
-0.122364
-0.143379
0.432166
0.396328
0.359503
0.327838
0.29997
0.274477
0.250942
0.22917
0.208973
0.190105
0.172268
0.155159
0.138515
0.122138
0.105924
0.0898703
0.0740268
0.0583946
0.0427978
0.026778
0.00974748
-0.00853834
-0.0295197
0.534871
0.497506
0.459394
0.426693
0.398047
0.372066
0.348339
0.32666
0.306818
0.288536
0.271467
0.25526
0.239633
0.224395
0.209457
0.194825
0.180542
0.166573
0.152664
0.138228
0.122515
0.105114
0.0844583
0.633191
0.594112
0.554642
0.520974
0.491734
0.465542
0.441974
0.420781
0.401699
0.384408
0.368502
0.353569
0.33929
0.325477
0.312061
0.299066
0.286531
0.27439
0.262319
0.249628
0.235451
0.219272
0.19948
0.726817
0.685822
0.644985
0.610559
0.58106
0.555081
0.532158
0.511962
0.494142
0.47831
0.464003
0.450745
0.438168
0.426073
0.414411
0.403232
0.392585
0.38239
0.372282
0.361516
0.34918
0.334738
0.316617
0.81564
0.77259
0.730511
0.695722
0.66646
0.641238
0.619518
0.600866
0.584818
0.570891
0.558566
0.547318
0.536736
0.526604
0.516888
0.507666
0.499012
0.49086
0.482847
0.474233
0.464131
0.452058
0.436543
0.899741
0.854604
0.811568
0.776999
0.748596
0.724731
0.704762
0.688142
0.674287
0.66261
0.652531
0.643501
0.635096
0.627092
0.619469
0.61233
0.605782
0.599792
0.594039
0.587841
0.580382
0.571268
0.559192
0.979237
0.932122
0.888568
0.854973
0.828135
0.806233
0.788495
0.774274
0.762888
0.753668
0.745981
0.739269
0.733124
0.727349
0.721944
0.717031
0.712739
0.70907
0.705765
0.702223
0.697709
0.691925
0.683796
1.05398
1.00528
0.961816
0.930109
0.905605
0.886278
0.871207
0.859663
0.850909
0.844239
0.839004
0.834654
0.830821
0.827357
0.824299
0.821777
0.819921
0.818749
0.818046
0.817284
0.815802
0.813391
0.809289
1.1233
1.07403
1.03147
1.00277
0.981471
0.965402
0.953488
0.94491
0.93893
0.934865
0.932098
0.93013
0.928654
0.927584
0.926993
0.927016
0.927758
0.929205
0.931149
0.933117
0.934509
0.935221
0.934863
1.18583
1.13807
1.09766
1.07343
1.05643
1.04445
1.03633
1.03113
1.02813
1.02674
1.02644
1.02683
1.0277
1.02905
1.03098
1.03362
1.03701
1.04108
1.04557
1.05004
1.05399
1.05744
1.06037
1.23905
1.19709
1.16083
1.14304
1.13177
1.12493
1.12134
1.12003
1.1203
1.12166
1.12376
1.12639
1.12949
1.13316
1.13751
1.14266
1.14859
1.15513
1.16194
1.1686
1.17475
1.18058
1.18637
1.27822
1.25184
1.22229
1.21334
1.20957
1.20905
1.21077
1.2138
1.21753
1.22163
1.22597
1.23058
1.23565
1.24137
1.24788
1.25526
1.26344
1.27217
1.28102
1.28958
1.29764
1.30557
1.31387
1.29658
1.30693
1.28517
1.28717
1.29254
1.29947
1.30712
1.31475
1.32192
1.32856
1.33482
1.34105
1.34767
1.35503
1.3633
1.37249
1.38252
1.3931
1.40374
1.414
1.42375
1.4335
1.44397
1.29349
1.37139
1.35508
1.36834
1.38386
1.39889
1.41283
1.42503
1.43537
1.44415
1.45187
1.4592
1.46681
1.47523
1.48471
1.49519
1.50657
1.51861
1.53082
1.54267
1.55394
1.56523
1.57749
1.33379
1.44604
1.43699
1.46039
1.4863
1.50985
1.5301
1.54658
1.55951
1.56969
1.57814
1.58584
1.5937
1.60244
1.61243
1.62364
1.63588
1.64898
1.66252
1.67586
1.68857
1.70115
1.71476
1.46736
1.52565
1.52996
1.56465
1.60178
1.63447
1.66095
1.68104
1.69565
1.70623
1.71435
1.72138
1.72844
1.73647
1.74613
1.75746
1.77015
1.78395
1.79852
1.81319
1.82732
1.84111
1.85574
1.5831
1.59942
1.62747
1.67934
1.73138
1.77486
1.80748
1.83012
1.84497
1.85437
1.86059
1.86551
1.87046
1.87661
1.88494
1.89575
1.90857
1.92283
1.9381
1.95384
1.96933
1.98444
2.00008
1.71805
1.63658
1.72413
1.80433
1.87774
1.93402
1.97204
1.99539
2.00822
2.01406
2.01608
2.01689
2.01827
2.02139
2.02743
2.03703
2.04971
2.0644
2.08031
2.09691
2.11365
2.13026
2.14717
1.9788
1.65538
1.83692
1.95133
2.04895
2.11723
2.15761
2.17801
2.18514
2.18402
2.17886
2.1732
2.16932
2.1684
2.17143
2.17917
2.19132
2.20654
2.22348
2.24131
2.25947
2.27771
2.29614
2.34916
1.82133
2.01918
2.1472
2.25968
2.33167
2.3671
2.37829
2.37417
2.36126
2.34533
2.33068
2.31979
2.31387
2.31356
2.31926
2.33063
2.34642
2.36501
2.38502
2.40541
2.42589
2.44629
3.02141
2.26481
2.28617
2.41256
2.52475
2.58464
2.60274
2.59541
2.57212
2.54052
2.50918
2.48331
2.46426
2.45284
2.44949
2.45386
2.46504
2.48177
2.50259
2.52566
2.54937
2.57337
2.59711
3.97666
2.95922
2.73205
2.78007
2.85873
2.88382
2.86631
2.82732
2.77398
2.71396
2.66178
2.62366
2.59639
2.57965
2.57469
2.57988
2.59273
2.61145
2.63546
2.66304
2.69165
2.72005
2.74775
5.1038
4.08684
3.45954
3.27966
3.26929
3.23158
3.15546
3.06808
2.97156
2.87095
2.79382
2.74805
2.7151
2.69233
2.68616
2.69502
2.71417
2.73777
2.76689
2.80085
2.83693
2.87139
2.90401
6.3516
5.49299
4.42458
3.91275
3.74669
3.61768
3.45544
3.30041
3.14452
2.99318
2.89511
2.85615
2.83053
2.80227
2.79394
2.80626
2.83698
2.87184
2.90995
2.95211
2.99793
3.04155
3.08276
7.02619
6.532
5.36891
4.56815
4.2624
4.03274
3.75707
3.52286
3.28091
3.05555
2.95205
2.93868
2.94682
2.92953
2.93736
2.96431
3.00284
3.04127
3.08839
3.13699
3.19462
3.24829
3.32677
6.86199
6.58748
5.67313
5.01602
4.75371
4.44977
4.08748
3.87578
3.5225
2.90768
2.7797
2.92114
3.03179
2.98434
2.91303
2.88817
2.89013
2.8916
2.95607
3.05174
3.11647
3.11011
3.12601
6.05061
6.20618
5.13675
5.10616
5.30115
4.69835
3.83068
3.53631
4.38415
9.80877
15.5344
15.7958
13.0009
10.2453
9.76062
9.45004
9.40127
9.75383
12.3081
16.5458
17.6482
15.6883
12.6256
6.18655
4.40613
3.12645
5.3565
7.78529
8.50976
5.82804
2.77763
9.48484
14.067
25.5812
39.5796
60.1314
48.6266
57.5606
53.9231
59.2027
59.3204
68.7242
74.9296
91.479
84.5257
86.0985
6.05666
5.08017
-0.314906
7.44468
43.1533
51.6687
15.263
-3.34
-1.40975
1.5709
13.1537
51.3221
139.752
99.5512
147.672
119.567
124.482
125.698
152.692
174.419
246.324
232.181
268.512
5.30255
5.26065
6.72101
15.6538
88.4895
79.5757
22.3572
10.9487
8.88576
11.8865
27.7983
53.1665
228.208
113.516
234.349
111.698
204.127
111.132
233.54
155.178
426.606
202.984
464.535
-1.55865
-1.60095
-1.67831
-1.71651
-1.36881
-1.3647
-1.36601
-1.36132
-1.21484
-1.20979
-1.19947
-1.18489
-1.07952
-1.08076
-1.08002
-1.07557
-0.954435
-0.957775
-0.960697
-0.962443
-0.837774
-0.843252
-0.848342
-0.852731
-0.724909
-0.732558
-0.739939
-0.746528
-0.613257
-0.62268
-0.632125
-0.640835
-0.501305
-0.512117
-0.523422
-0.534223
-0.388416
-0.400308
-0.413319
-0.426189
-0.274838
-0.287575
-0.302067
-0.316809
-0.161161
-0.174541
-0.190147
-0.206301
-0.047626
-0.0613951
-0.0775889
-0.0944675
0.066318
0.0525551
0.036424
0.0195917
0.181931
0.168751
0.153383
0.137308
0.300602
0.288711
0.274784
0.260057
0.423118
0.413225
0.401353
0.388492
0.549249
0.541935
0.53266
0.522202
0.677864
0.67352
0.667313
0.659831
0.807491
0.806315
0.803546
0.799563
0.936989
0.938989
0.939845
0.939687
1.06603
1.07103
1.07543
1.07911
1.19514
1.20286
1.21051
1.21773
1.32542
1.33559
1.34613
1.35647
1.45807
1.47054
1.48372
1.49674
1.59406
1.60885
1.62444
1.6397
1.73364
1.75081
1.76884
1.78612
1.87659
1.89602
1.91649
1.9358
2.02258
2.04394
2.06668
2.08801
2.17126
2.19436
2.21916
2.24243
2.32203
2.34706
2.37413
2.39941
2.47391
2.50074
2.5303
2.55799
2.62716
2.65542
2.68709
2.71719
2.78158
2.81222
2.84609
2.87825
2.9425
2.97774
3.01582
3.05061
3.11565
3.15692
3.20623
3.24973
3.42127
3.48527
3.54577
3.58364
3.20784
3.3395
3.50657
3.6026
9.91672
9.54142
10.8772
12.1916
75.3354
73.5446
87.5477
105.43
277.103
262.391
272.281
348.022
279.078
287.268
453.48
537.255
-1.45116
-1.31973
-1.29159
-1.28539
-1.28874
-1.29284
-1.29395
-1.28969
-1.27836
-1.25848
-1.22858
-1.18714
-1.13212
-1.06003
-0.967541
-0.857939
-0.735463
-0.575444
-0.417451
-1.31128
-1.25978
-1.22607
-1.21321
-1.21092
-1.21154
-1.2111
-1.2071
-1.19775
-1.18155
-1.15717
-1.12351
-1.07928
-1.02108
-0.9414
-0.836741
-0.736376
-0.616317
-0.204953
-1.1681
-1.15667
-1.14247
-1.13568
-1.13421
-1.13481
-1.13491
-1.13258
-1.12638
-1.11524
-1.09842
-1.07606
-1.04978
-1.01903
-0.967294
-0.873976
-0.855734
-1.1627
0.301389
-1.06562
-1.05997
-1.05609
-1.05583
-1.05799
-1.06113
-1.06374
-1.06461
-1.06292
-1.05832
-1.05109
-1.04374
-1.04222
-1.04447
-1.02544
-0.966865
-0.792996
-2.86805
2.15486
-0.96348
-0.965813
-0.969523
-0.975328
-0.982365
-0.989723
-0.996487
-1.00202
-1.00619
-1.00932
-1.01283
-1.02165
-1.04232
-1.06662
-1.06584
-1.0024
-0.317275
-5.20571
8.37614
-0.859605
-0.870296
-0.881754
-0.894229
-0.90724
-0.920215
-0.932616
-0.944256
-0.955381
-0.966369
-0.978653
-0.996698
-1.02377
-1.05728
-1.11136
-1.1129
-0.453067
-3.98138
32.2032
-0.757182
-0.774579
-0.793185
-0.812672
-0.832578
-0.852477
-0.872061
-0.891309
-0.910066
-0.927352
-0.942964
-0.960753
-0.987437
-1.03961
-1.08617
-1.14127
-0.787651
-2.60259
39.6587
-0.655128
-0.678537
-0.703911
-0.730691
-0.75837
-0.786598
-0.815185
-0.843758
-0.870564
-0.892229
-0.908021
-0.924783
-0.956358
-0.975409
-0.94187
-0.894937
-0.981327
-2.02612
29.5887
-0.552198
-0.581447
-0.613586
-0.648084
-0.684525
-0.722741
-0.762546
-0.802462
-0.838089
-0.864576
-0.883881
-0.903227
-0.909902
-0.870221
-0.833532
-0.834249
-0.968935
-1.42356
21.8888
-0.447847
-0.482817
-0.521784
-0.564456
-0.610739
-0.660843
-0.714408
-0.768193
-0.815293
-0.850695
-0.875875
-0.885011
-0.855531
-0.814565
-0.805198
-0.825403
-0.958398
-1.02429
15.3322
-0.341871
-0.382258
-0.427957
-0.479118
-0.536264
-0.600198
-0.670236
-0.741308
-0.804459
-0.852776
-0.879975
-0.871349
-0.836515
-0.81061
-0.80596
-0.816932
-0.960027
-0.870747
10.5242
-0.234045
-0.279208
-0.331236
-0.390904
-0.459649
-0.539052
-0.62816
-0.72017
-0.803187
-0.864757
-0.890937
-0.879242
-0.848212
-0.821828
-0.809484
-0.811537
-0.956845
-0.839053
7.87242
-0.123807
-0.172729
-0.230298
-0.298047
-0.378543
-0.474321
-0.584207
-0.699244
-0.803151
-0.877551
-0.909052
-0.900116
-0.866141
-0.831204
-0.810967
-0.806171
-0.935136
-0.777177
7.1244
-0.0101147
-0.0614754
-0.123387
-0.198206
-0.289742
-0.401559
-0.53213
-0.669749
-0.79377
-0.88348
-0.925268
-0.91817
-0.877247
-0.832711
-0.809003
-0.804309
-0.89826
-0.664174
7.4936
0.10837
0.0560994
-0.00854584
-0.088742
-0.189515
-0.315392
-0.464426
-0.622339
-0.765209
-0.871534
-0.926084
-0.923462
-0.875908
-0.822687
-0.802935
-0.813528
-0.906218
-0.683535
6.33373
0.232854
0.181368
0.115996
0.0328179
-0.0742461
-0.210573
-0.374099
-0.548545
-0.706725
-0.830789
-0.911392
-0.928413
-0.867277
-0.799905
-0.792594
-0.84701
-1.02368
-0.892208
4.49354
0.363941
0.315127
0.251421
0.168284
0.0588176
-0.0831191
-0.25571
-0.441978
-0.616763
-0.782644
-0.928166
-0.951836
-0.840426
-0.746558
-0.747317
-0.862809
-1.21773
-1.23556
3.46432
0.501321
0.45731
0.398035
0.318497
0.211297
0.0697566
-0.105638
-0.306528
-0.544564
-0.775601
-0.938381
-0.891849
-0.725291
-0.612469
-0.605495
-0.768542
-1.19426
-1.46578
4.46246
0.643742
0.606798
0.555002
0.483122
0.383804
0.250153
0.0769197
-0.155296
-0.448
-0.733168
-0.80921
-0.637918
-0.467572
-0.357382
-0.332759
-0.506582
-0.37258
3.82512
7.40304
0.78924
0.761357
0.720044
0.66024
0.575397
0.459665
0.303428
0.0555892
-0.239126
-0.47154
-0.420721
-0.213483
-0.0969047
-5.36202e-05
0.060634
0.00784179
0.52435
7.8671
7.21387
0.935659
0.917981
0.889348
0.845507
0.7818
0.697948
0.587829
0.407108
0.1505
-0.00033134
0.150733
0.286664
0.324666
0.397712
0.494789
0.5727
0.861061
4.27284
3.62187
1.0813
1.07375
1.0584
1.03254
0.994283
0.949094
0.915048
0.848958
0.696649
0.66955
0.754886
0.752781
0.736599
0.777197
0.861279
0.904029
1.16408
0.872416
-0.420579
1.22554
1.22682
1.2234
1.21446
1.20022
1.18968
1.21008
1.24718
1.23352
1.2407
1.21097
1.13695
1.10664
1.12041
1.16134
1.06095
1.40241
-0.303839
-4.40393
1.369
1.37714
1.38287
1.38697
1.39125
1.40424
1.44509
1.51141
1.55512
1.55179
1.50122
1.45682
1.44258
1.45074
1.49012
1.30119
1.54144
-1.00853
-8.73922
1.513
1.52613
1.53813
1.55061
1.56594
1.58987
1.63253
1.69163
1.73431
1.74621
1.74182
1.74276
1.75346
1.77561
1.85737
1.70096
1.37771
-1.84139
-12.5309
1.65885
1.67563
1.69209
1.71006
1.73184
1.7609
1.80186
1.85276
1.89943
1.93704
1.97156
2.00804
2.04438
2.08636
2.2042
2.04672
0.470284
-3.97487
-14.1277
1.80749
1.82694
1.84692
1.86919
1.89583
1.92924
1.97191
2.02327
2.07838
2.13566
2.19673
2.26134
2.32323
2.3875
2.51657
2.31244
-1.44043
-7.36256
-11.9044
1.95908
1.98055
2.00354
2.0297
2.06087
2.09902
2.14605
2.20245
2.26697
2.33942
2.42059
2.50906
2.59709
2.68709
2.82306
2.72128
-3.42082
-8.81462
-4.53108
2.11321
2.13632
2.16198
2.19195
2.22779
2.27125
2.32412
2.38745
2.46156
2.54695
2.64452
2.7532
2.86533
2.98022
3.12707
3.15108
-4.22812
-6.31856
8.77084
2.26963
2.29412
2.32215
2.35587
2.3966
2.44589
2.50549
2.57668
2.66036
2.75739
2.86885
2.99412
3.12592
3.26288
3.42257
3.47285
-5.32728
0.129284
29.0435
2.4285
2.45405
2.48403
2.5213
2.5669
2.62218
2.68897
2.76864
2.86211
2.97043
3.09488
3.23372
3.37821
3.52622
3.69068
3.80808
-6.16802
11.0128
58.9282
2.58943
2.61576
2.64708
2.68753
2.73768
2.79863
2.87261
2.96134
3.06555
3.18725
3.32773
3.48204
3.63385
3.76858
3.862
3.96041
-5.75564
30.9208
104.153
2.75133
2.77797
2.80977
2.85304
2.90717
2.97291
3.05376
3.15228
3.26977
3.40998
3.57709
3.76453
3.93605
4.03654
3.87933
3.68258
-1.48877
73.251
174.08
2.91484
2.93912
2.96944
3.01571
3.07327
3.14187
3.22887
3.33894
3.47239
3.63563
3.84055
4.08082
4.29557
4.41574
3.95085
1.6061
23.7021
149.232
287.493
3.08875
3.1018
3.12571
3.17574
3.23644
3.30381
3.39481
3.51823
3.66627
3.84027
4.05452
4.31577
4.56778
4.89973
5.80496
10.7818
103.364
271.85
452.824
3.29654
3.2828
3.29484
3.35237
3.41364
3.46858
3.55663
3.69036
3.83661
3.98373
4.1751
4.53947
5.21337
7.28104
20.594
78.7863
239.032
439.969
662.799
3.57873
3.49013
3.48884
3.58416
3.64758
3.64962
3.71697
3.87406
4.01099
4.20182
4.81352
6.34733
9.7851
25.4518
110.443
251.952
419.138
635.164
889.351
3.54439
3.19884
3.15952
3.44083
3.59361
3.48476
3.58773
4.04676
4.48466
5.40697
9.56707
25.2703
70.9217
185.148
327.024
457.575
604.795
822.298
1091.24
11.639
9.2601
9.87908
13.4722
15.9141
16.2993
19.3116
27.446
39.7847
58.5021
98.498
188.448
326.244
458.194
542.991
638.114
756.663
966.397
1243.36
109.654
58.1175
47.6418
97.3025
114.987
73.1631
75.7339
147.523
194.94
189.176
249.25
414.815
587.982
675.258
678.273
752.36
832.893
1045.58
1376.86
366.634
172.796
131.128
291.608
334.808
168.626
147.515
335.231
408.783
259.37
281.959
536.205
780.732
834.729
672.95
732.042
763.625
1038.64
1662.25
542.953
145.068
128.12
491.781
502.708
143.088
139.516
529.664
581.813
189.192
216.083
733.025
874.107
867.37
465.446
889.523
494.929
660.585
2258.51
)
;

boundaryField
{
    leftWall
    {
        type            calculated;
        value           nonuniform List<scalar> 
50
(
-1.55181
-1.49433
-1.43576
-1.37615
-1.31561
-1.25429
-1.1925
-1.13036
-1.03253
-0.899016
-0.766252
-0.634962
-0.50567
-0.378746
-0.254422
-0.13281
-0.013939
0.102163
0.215395
0.325521
0.432166
0.534871
0.633191
0.726817
0.81564
0.899741
0.979237
1.05398
1.1233
1.18583
1.23905
1.27822
1.29658
1.29349
1.33379
1.46736
1.5831
1.71805
1.9788
2.34916
3.02141
3.97666
5.1038
6.3516
7.02619
6.86199
6.05061
6.18655
6.05666
5.30255
)
;
    }
    rightWall
    {
        type            calculated;
        value           nonuniform List<scalar> 
50
(
-1.08663
-1.02522
-0.960649
-0.892562
-0.820691
-0.744658
-0.662751
-0.570601
-0.417451
-0.204953
0.301389
2.15486
8.37614
32.2032
39.6587
29.5887
21.8888
15.3322
10.5242
7.87242
7.1244
7.4936
6.33373
4.49354
3.46432
4.46246
7.40304
7.21387
3.62187
-0.420579
-4.40393
-8.73922
-12.5309
-14.1277
-11.9044
-4.53108
8.77084
29.0435
58.9282
104.153
174.08
287.493
452.824
662.799
889.351
1091.24
1243.36
1376.86
1662.25
2258.51
)
;
    }
    lowerWall
    {
        type            calculated;
        value           nonuniform List<scalar> 
62
(
-1.58133
-1.58563
-1.5906
-1.59877
-1.61023
-1.62371
-1.63914
-1.65649
-1.67575
-1.69703
-1.7205
-1.74636
-1.77491
-1.80651
-1.84155
-1.88016
-1.92165
-1.96351
-1.99984
-2.02228
-2.02364
-2.00971
-1.99505
-1.96562
-1.90375
-1.85093
-1.8024
-1.75411
-1.70345
-1.6502
-1.59585
-1.62124
-1.66354
-1.74091
-1.77911
-1.62835
-1.56746
-1.50476
-1.44335
-1.38767
-1.34384
-1.32144
-1.33324
-1.65778
-1.6722
-1.68686
-1.70958
-1.73158
-1.7474
-1.75366
-1.7488
-1.73206
-1.70281
-1.66018
-1.60349
-1.53282
-1.44957
-1.35774
-1.26484
-1.18274
-1.12958
-1.11606
)
;
    }
    atmosphere
    {
        type            calculated;
        value           nonuniform List<scalar> 
46
(
4.36836
5.05265
5.72048
5.72904
166.264
128.299
5.72904
5.72904
6.35269
6.97634
31.1707
5.72904
414.891
5.72904
392.054
5.72904
298.861
5.72904
339.016
5.72904
724.127
5.72904
729.245
5.72904
5.72904
673.907
749.198
734.839
5.72904
5.72904
666.399
664.064
5.72904
5.72904
685.969
756.461
5.72904
5.72904
829.102
916.402
1013.82
5.72904
1105.9
5.72904
5.72904
3244.41
)
;
    }
    defaultFaces
    {
        type            empty;
    }
}


// ************************************************************************* //
