/*--------------------------------*- C++ -*----------------------------------*\
  =========                 |
  \\      /  F ield         | OpenFOAM: The Open Source CFD Toolbox
   \\    /   O peration     | Website:  https://openfoam.org
    \\  /    A nd           | Version:  9
     \\/     M anipulation  |
\*---------------------------------------------------------------------------*/
FoamFile
{
    format      ascii;
    class       volScalarField;
    location    "0.65";
    object      p;
}
// * * * * * * * * * * * * * * * * * * * * * * * * * * * * * * * * * * * * * //

dimensions      [1 -1 -2 0 0 0 0];

internalField   nonuniform List<scalar> 
2268
(
506.576
505.117
509.832
518.327
529.638
542.687
557.304
573.507
591.345
610.771
631.648
653.78
676.893
700.712
724.975
749.301
773.329
796.541
818.252
836.793
849.324
857.518
870.431
447.563
445.45
449.384
457.939
469.17
482.283
497.075
513.504
531.583
551.228
572.289
594.579
617.865
641.942
666.494
691.243
715.84
739.779
762.201
781.484
793.839
796.962
808.65
387.166
385.494
389.98
398.074
409.06
422.101
436.959
453.542
471.835
491.706
512.983
535.483
559.009
583.321
608.177
633.284
658.292
682.645
705.333
724.637
737.517
738.466
749.233
326.311
325.324
330.441
338.416
349.202
362.108
376.934
393.582
412.036
432.121
453.634
476.379
500.15
524.742
549.893
575.296
600.586
625.142
647.887
667.016
680.302
681.364
692.388
265.54
265.297
270.826
278.784
289.377
302.116
316.836
333.476
352.057
372.348
394.113
417.14
441.197
466.098
491.568
517.278
542.858
567.613
590.496
609.743
623.685
626.104
637.626
204.679
205.47
211.019
218.984
229.414
241.967
256.528
273.1
291.805
312.313
334.357
357.708
382.091
407.342
433.178
459.261
485.237
510.303
533.516
553.292
567.959
572.593
585.387
143.393
145.282
150.66
158.62
168.96
181.392
195.848
212.264
231.127
251.919
274.338
298.103
322.853
348.482
374.723
401.256
427.762
453.283
477.037
497.778
513.803
521.022
535.919
81.4303
84.7126
89.7066
97.1591
106.993
119.239
133.854
150.053
169.235
190.59
213.744
238.261
263.508
289.568
316.229
343.251
370.368
396.477
420.969
443.065
461.229
471.929
488.508
662.019
542.355
443.744
393.174
361.911
360.44
373.426
385.095
393.863
408.422
438.241
487.624
622.687
890.036
1210.95
1449.2
1555.86
1546.68
1469.58
625.839
478.057
368.751
336.145
328.76
329.181
331.04
334.085
335.318
334.924
351.194
384.95
497.539
742.148
1054.57
1300.74
1429.5
1452.07
1400.84
578.598
431.156
343.974
332.735
329.332
328.466
327.279
326.841
326.554
323.307
317.315
306.428
371.709
592.144
903.694
1157.49
1306.86
1360.21
1326.18
561.523
421.954
336.99
330.126
329.542
328.514
327.509
327.129
327.106
326.95
325.859
308.848
301.217
459.007
775.254
1037.56
1197.9
1270.27
1247.49
553.86
421.419
341.252
328.873
329.423
328.39
327.389
326.981
326.949
327.092
327.09
324.574
306.788
370.288
665.506
933.742
1094.95
1178.75
1169.47
548.875
407.97
337.25
328.379
329.341
328.13
327.229
326.829
326.784
326.902
327.078
326.859
323.35
337.405
574.532
841.622
996.019
1082.96
1089.59
440.209
337.852
323.737
325.879
328.596
327.72
327.002
326.657
326.648
326.776
326.974
327.122
326.488
333.055
503.732
759.921
902.802
986.821
1008.18
340.268
295.977
304.533
323.951
327.507
327.248
326.695
326.453
326.508
326.685
326.888
327.025
327.477
333.541
453.695
687.758
816.623
895.009
927.473
23.604
24.9825
27.5445
31.0228
35.7033
42.2286
51.4431
63.6323
78.5862
96.7216
118.35
143.136
169.75
196.952
224.536
252.428
280.608
307.726
333.486
357.953
380.026
396.505
415.384
-0.163596
-0.124848
-0.0846728
-0.0491412
0.000948238
0.469038
2.10976
4.87192
9.03988
15.1189
23.842
36.4745
53.7575
74.5143
98.7295
127.708
159.182
187.447
213.94
240.888
265.693
286.969
307.449
-0.260313
-0.267728
-0.267955
-0.262858
-0.251946
-0.230748
-0.216289
-0.220877
-0.235919
-0.247717
-0.217871
0.267758
2.55015
7.70804
16.3405
31.0347
51.3292
71.904
95.9836
126.303
153.388
176.59
200.644
-0.420052
-0.415684
-0.402526
-0.391312
-0.386685
-0.390971
-0.402651
-0.412719
-0.420514
-0.422167
-0.409436
-0.382583
-0.400886
-0.499778
-0.554984
-0.175145
1.98235
7.43746
18.2309
36.9326
53.2011
72.8704
101.685
-0.552802
-0.552945
-0.54715
-0.541868
-0.535157
-0.534721
-0.538913
-0.544006
-0.549256
-0.553076
-0.556141
-0.570606
-0.598623
-0.617846
-0.614231
-0.614416
-0.669907
-0.808641
-0.896343
-0.820681
1.62427
9.07019
25.422
-0.695899
-0.694949
-0.69171
-0.687862
-0.684076
-0.682754
-0.684149
-0.687055
-0.690849
-0.694896
-0.69998
-0.711255
-0.729669
-0.746136
-0.756197
-0.768565
-0.788099
-0.799885
-0.799137
-0.781249
-0.785884
-0.844707
-0.856424
-0.838164
-0.837526
-0.835641
-0.833193
-0.83111
-0.83041
-0.831374
-0.833602
-0.836761
-0.840649
-0.845661
-0.853743
-0.866237
-0.880527
-0.893384
-0.906581
-0.921731
-0.934349
-0.934608
-0.919808
-0.903243
-0.894592
-0.86514
-0.980836
-0.980433
-0.979374
-0.977986
-0.976906
-0.976707
-0.977602
-0.97948
-0.982217
-0.985808
-0.990536
-0.997225
-1.00641
-1.01695
-1.0271
-1.03702
-1.0472
-1.0551
-1.05528
-1.04449
-1.02705
-1.0055
-0.967939
-1.12355
-1.12345
-1.12297
-1.1223
-1.12187
-1.12202
-1.12292
-1.12457
-1.12697
-1.13016
-1.13434
-1.13986
-1.14681
-1.15452
-1.16203
-1.16902
-1.17513
-1.17867
-1.17686
-1.16804
-1.15346
-1.13345
-1.10358
-1.26609
-1.26632
-1.26629
-1.26612
-1.26613
-1.26654
-1.26748
-1.269
-1.27114
-1.27394
-1.27751
-1.282
-1.28735
-1.29315
-1.29876
-1.30371
-1.3074
-1.30866
-1.30603
-1.29862
-1.28672
-1.27062
-1.24943
-1.4083
-1.40885
-1.4092
-1.40941
-1.40974
-1.41036
-1.41136
-1.4128
-1.41473
-1.4172
-1.42025
-1.42394
-1.42817
-1.43266
-1.43696
-1.4406
-1.44301
-1.44341
-1.44094
-1.43509
-1.42594
-1.41393
-1.39941
-1.55013
-1.55097
-1.55164
-1.55215
-1.55273
-1.55351
-1.55457
-1.55598
-1.55776
-1.55997
-1.56263
-1.56574
-1.56922
-1.57286
-1.57631
-1.57919
-1.58104
-1.58135
-1.57957
-1.57544
-1.56903
-1.56085
-1.5516
-1.69155
-1.69263
-1.69358
-1.69434
-1.69511
-1.69603
-1.69717
-1.69857
-1.70027
-1.7023
-1.70469
-1.70741
-1.71041
-1.71353
-1.71651
-1.71906
-1.72084
-1.72148
-1.72069
-1.7183
-1.71445
-1.7096
-1.70453
-1.83257
-1.83383
-1.835
-1.83597
-1.83692
-1.83798
-1.8392
-1.84062
-1.84229
-1.84422
-1.84644
-1.84894
-1.85167
-1.85452
-1.85732
-1.85984
-1.86183
-1.8631
-1.86342
-1.86274
-1.86121
-1.85923
-1.85749
-1.97322
-1.97459
-1.97593
-1.97708
-1.97819
-1.97937
-1.98069
-1.98216
-1.98383
-1.98573
-1.98787
-1.99027
-1.99289
-1.99567
-1.99849
-2.00119
-2.00362
-2.00561
-2.00709
-2.00806
-2.00863
-2.00914
-2.01015
-2.11351
-2.11493
-2.11638
-2.11769
-2.11894
-2.12025
-2.12167
-2.12321
-2.12492
-2.12683
-2.12897
-2.13136
-2.13399
-2.13683
-2.1398
-2.14281
-2.14576
-2.14856
-2.15119
-2.15369
-2.15618
-2.15891
-2.16233
-2.25345
-2.25489
-2.2564
-2.25782
-2.25921
-2.26065
-2.26217
-2.2638
-2.26558
-2.26755
-2.26973
-2.27217
-2.27489
-2.27787
-2.28108
-2.28448
-2.28799
-2.29161
-2.29533
-2.29924
-2.30345
-2.30818
-2.31381
-2.39308
-2.39447
-2.39602
-2.39753
-2.39903
-2.40058
-2.40222
-2.40396
-2.40583
-2.40788
-2.41014
-2.41268
-2.41552
-2.4187
-2.42221
-2.42603
-2.43014
-2.43455
-2.4393
-2.44448
-2.45024
-2.45674
-2.46437
-2.53238
-2.53372
-2.53527
-2.53684
-2.53843
-2.54009
-2.54183
-2.54369
-2.54567
-2.54782
-2.5502
-2.55286
-2.55586
-2.55925
-2.56308
-2.56734
-2.57206
-2.57724
-2.58296
-2.58931
-2.59645
-2.60454
-2.61397
-2.67138
-2.67265
-2.67418
-2.67578
-2.67744
-2.67919
-2.68104
-2.68301
-2.68511
-2.68738
-2.68989
-2.69269
-2.69586
-2.69948
-2.70361
-2.70831
-2.7136
-2.71954
-2.72617
-2.73362
-2.74202
-2.75155
-2.7626
-2.81007
-2.81127
-2.81276
-2.81438
-2.81609
-2.81791
-2.81985
-2.82193
-2.82415
-2.82656
-2.8292
-2.83215
-2.8355
-2.83933
-2.84375
-2.84884
-2.85466
-2.86128
-2.86877
-2.87724
-2.88681
-2.89766
-2.91019
-2.94845
-2.94959
-2.95103
-2.95265
-2.95439
-2.95627
-2.95829
-2.96046
-2.96279
-2.96533
-2.96811
-2.97122
-2.97474
-2.97878
-2.98345
-2.98887
-2.99514
-3.00235
-3.0106
-3.01998
-3.03062
-3.04267
-3.05652
-3.08653
-3.0876
-3.089
-3.0906
-3.09235
-3.09427
-3.09635
-3.0986
-3.10104
-3.1037
-3.10662
-3.10987
-3.11356
-3.11778
-3.12266
-3.12836
-3.13499
-3.14269
-3.15155
-3.16171
-3.17326
-3.18634
-3.20134
-3.2243
-3.22531
-3.22666
-3.22824
-3.22999
-3.23193
-3.23405
-3.23636
-3.23889
-3.24165
-3.24469
-3.24809
-3.25192
-3.2563
-3.26138
-3.26729
-3.2742
-3.28226
-3.29161
-3.30236
-3.31464
-3.32854
-3.34445
-3.36175
-3.36271
-3.36402
-3.36556
-3.36731
-3.36925
-3.37139
-3.37375
-3.37633
-3.37917
-3.38232
-3.38583
-3.38979
-3.39432
-3.39955
-3.40563
-3.41275
-3.42107
-3.43075
-3.44193
-3.45474
-3.46926
-3.48577
-3.4989
-3.49981
-3.50107
-3.50258
-3.5043
-3.50623
-3.50838
-3.51075
-3.51337
-3.51626
-3.51948
-3.52308
-3.52715
-3.53178
-3.53713
-3.54335
-3.55061
-3.5591
-3.56899
-3.58044
-3.59358
-3.60851
-3.6253
-3.63573
-3.6366
-3.63782
-3.6393
-3.64098
-3.64288
-3.64501
-3.64737
-3.65
-3.65292
-3.65617
-3.65982
-3.66395
-3.66866
-3.67408
-3.68037
-3.68771
-3.69628
-3.70628
-3.71786
-3.73114
-3.74619
-3.76323
-3.77226
-3.77309
-3.77427
-3.7757
-3.77734
-3.7792
-3.78129
-3.78363
-3.78623
-3.78914
-3.79239
-3.79605
-3.80019
-3.80492
-3.81036
-3.81666
-3.824
-3.83257
-3.84256
-3.85413
-3.8674
-3.88241
-3.89939
-3.9085
-3.90929
-3.91042
-3.91181
-3.9134
-3.9152
-3.91724
-3.91951
-3.92207
-3.92492
-3.92814
-3.93176
-3.93587
-3.94055
-3.94594
-3.95218
-3.95944
-3.96792
-3.97778
-3.98921
-4.0023
-4.0171
-4.03378
-4.04445
-4.04519
-4.04629
-4.04762
-4.04915
-4.05089
-4.05284
-4.05505
-4.05752
-4.0603
-4.06343
-4.06697
-4.07098
-4.07557
-4.08083
-4.08693
-4.09402
-4.10229
-4.11191
-4.12305
-4.13581
-4.1502
-4.16639
-4.18011
-4.18082
-4.18187
-4.18314
-4.18461
-4.18626
-4.18813
-4.19024
-4.1926
-4.19527
-4.19828
-4.20169
-4.20556
-4.20998
-4.21505
-4.22092
-4.22775
-4.2357
-4.24495
-4.25565
-4.26791
-4.28171
-4.2972
-4.31551
-4.31619
-4.31719
-4.3184
-4.31979
-4.32135
-4.32312
-4.3251
-4.32734
-4.32986
-4.33271
-4.33595
-4.33963
-4.34382
-4.34864
-4.35421
-4.36068
-4.36822
-4.37697
-4.38709
-4.39867
-4.4117
-4.42629
-4.45065
-4.45131
-4.45226
-4.45341
-4.45471
-4.45617
-4.45782
-4.45966
-4.46175
-4.4641
-4.46676
-4.46979
-4.47323
-4.47715
-4.48166
-4.48686
-4.49289
-4.4999
-4.50805
-4.51745
-4.52821
-4.54029
-4.5538
-4.58556
-4.5862
-4.58711
-4.58819
-4.5894
-4.59075
-4.59225
-4.59394
-4.59585
-4.59801
-4.60046
-4.60324
-4.60641
-4.61002
-4.61416
-4.61893
-4.62446
-4.63087
-4.63831
-4.64689
-4.65668
-4.66767
-4.67993
-4.72024
-4.72091
-4.72178
-4.72278
-4.72388
-4.7251
-4.72645
-4.72797
-4.72968
-4.73162
-4.73383
-4.73635
-4.73921
-4.74247
-4.74621
-4.7505
-4.75547
-4.76123
-4.76789
-4.77556
-4.78429
-4.79407
-4.80495
-4.85473
-4.85546
-4.8563
-4.85721
-4.85819
-4.85926
-4.86044
-4.86176
-4.86326
-4.86497
-4.86692
-4.86915
-4.87168
-4.87457
-4.87786
-4.88165
-4.88603
-4.89108
-4.89692
-4.90363
-4.91123
-4.91972
-4.92914
-4.98904
-4.9899
-4.99071
-4.99152
-4.99236
-4.99325
-4.99424
-4.99536
-4.99664
-4.9981
-4.99978
-5.00169
-5.00387
-5.00636
-5.0092
-5.01246
-5.01621
-5.02054
-5.02552
-5.03123
-5.03768
-5.04484
-5.05276
-5.12321
-5.12428
-5.12508
-5.12576
-5.12641
-5.12711
-5.12789
-5.12879
-5.12983
-5.13104
-5.13243
-5.13402
-5.13584
-5.13791
-5.14027
-5.14298
-5.14609
-5.14968
-5.1538
-5.1585
-5.16378
-5.1696
-5.17601
-5.25728
-5.25863
-5.25946
-5.25995
-5.26037
-5.26083
-5.26139
-5.26207
-5.26288
-5.26383
-5.26493
-5.26619
-5.26763
-5.26927
-5.27114
-5.27328
-5.27575
-5.27858
-5.28183
-5.28551
-5.28963
-5.29412
-5.29901
-5.39089
-5.39297
-5.39394
-5.39406
-5.39414
-5.39435
-5.3947
-5.39517
-5.39575
-5.39644
-5.39725
-5.39818
-5.39923
-5.40044
-5.40182
-5.40339
-5.4052
-5.40728
-5.40965
-5.41233
-5.41528
-5.4184
-5.42166
-5.52519
-5.52757
-5.52862
-5.52799
-5.52761
-5.52761
-5.52779
-5.52808
-5.52846
-5.52891
-5.52943
-5.53002
-5.5307
-5.53147
-5.53234
-5.53335
-5.5345
-5.53582
-5.53731
-5.53898
-5.54075
-5.5423
-5.54336
-5.66036
-5.66254
-5.66349
-5.6623
-5.66182
-5.66174
-5.66179
-5.6619
-5.66204
-5.66221
-5.66239
-5.66259
-5.66282
-5.66308
-5.66338
-5.66372
-5.66412
-5.66458
-5.66508
-5.6656
-5.66603
-5.66582
-5.66361
443.372
447.853
443.519
425.146
323.94
330.066
330.059
319.628
214.266
221.789
227.847
232.24
124.142
137.177
148.391
158.719
44.6212
56.6808
68.5977
81.2102
-0.446443
0.527944
3.3603
9.40276
-0.785167
-0.702912
-0.615461
-0.575175
-0.916675
-0.90085
-0.926147
-0.916229
-1.07012
-1.05078
-1.03962
-1.02919
-1.22987
-1.21694
-1.20506
-1.19556
-1.38739
-1.37941
-1.37148
-1.36524
-1.54498
-1.54101
-1.53719
-1.53424
-1.70192
-1.70101
-1.70064
-1.70075
-1.85786
-1.85919
-1.86132
-1.86383
-2.01287
-2.01586
-2.01977
-2.02398
-2.1671
-2.17148
-2.17679
-2.18227
-2.32053
-2.32626
-2.33288
-2.33952
-2.47292
-2.48002
-2.488
-2.49588
-2.62413
-2.63248
-2.64183
-2.65105
-2.77415
-2.78356
-2.79413
-2.80466
-2.92296
-2.93327
-2.94483
-2.95645
-3.0704
-3.08148
-3.09384
-3.10631
-3.21618
-3.22793
-3.24092
-3.254
-3.36005
-3.37232
-3.38578
-3.39925
-3.50189
-3.5145
-3.52824
-3.54188
-3.6417
-3.65447
-3.66827
-3.68183
-3.77961
-3.79231
-3.80593
-3.81919
-3.91557
-3.92805
-3.94129
-3.95405
-4.04961
-4.06172
-4.07443
-4.08652
-4.18169
-4.19333
-4.20539
-4.2167
-4.31183
-4.32291
-4.33425
-4.3447
-4.44009
-4.45051
-4.46106
-4.47063
-4.56661
-4.57629
-4.586
-4.59468
-4.6916
-4.70044
-4.70923
-4.71697
-4.81535
-4.82324
-4.83104
-4.83782
-4.93817
-4.94504
-4.95178
-4.95755
-5.06036
-5.06617
-5.0718
-5.07656
-5.1822
-5.18692
-5.19146
-5.1952
-5.30381
-5.3075
-5.31098
-5.3138
-5.42517
-5.42791
-5.43047
-5.43252
-5.54579
-5.54787
-5.54982
-5.55137
-5.66393
-5.66606
-5.66819
-5.6699
326.872
299.848
308.55
323.794
326.359
326.53
326.186
326.127
326.297
326.551
326.775
326.919
327.867
333.509
407.674
592.364
698.416
765.954
809.075
291.781
314.211
322.401
324.836
325.661
325.887
325.761
325.853
326.125
326.423
326.666
326.839
327.638
333.777
385.868
498.447
565.002
619.833
672.997
241.835
304.296
324.033
325.427
325.575
325.699
325.709
325.848
326.114
326.376
326.598
326.819
327.001
325.063
361.684
421.829
463.617
505.867
558.754
177.246
241.955
313.286
324.928
325.633
325.724
325.814
325.95
326.151
326.351
326.571
326.659
324.49
297.796
321.885
361.502
392.549
421.141
465.537
101.41
154.186
248.897
314.629
325.187
325.633
325.792
325.893
326.064
326.275
326.684
325.684
291.679
267.539
286.423
310.212
331.839
347.525
382.468
27.5829
57.5957
126.738
233.185
307.078
325.084
325.461
325.644
325.847
326.012
325.44
304.934
234.765
246.049
260.224
261.677
272.029
279.672
305.896
-0.754659
4.62073
24.1487
93.999
193.933
277.105
317.123
325.526
325.388
324.2
303.905
222.976
210.168
235.67
228.49
213.691
216.68
222.07
239.951
-0.858198
-0.983349
-0.998149
10.4813
55.2793
137.765
228.797
293.741
318.879
301.16
215.433
188.884
223.582
226.392
195.112
182.245
186.441
185.707
196.577
-1.00022
-0.944714
-1.19321
-2.01313
1.10147
23.8106
78.6696
157.616
218.368
188.73
159.078
199.055
229.961
211.979
185.791
178.959
179.767
169.505
183.08
-1.17972
-1.13426
-1.07254
-1.31878
-1.9484
-1.89829
5.60573
27.5547
64.6085
86.8632
117.248
161.619
192.3
201.165
203.311
186.831
172.711
163.585
157.445
-1.35783
-1.34669
-1.3271
-1.33129
-1.34514
-1.73376
-2.56329
-2.54179
4.63445
21.1445
39.1095
67.3705
92.0428
134.102
175.241
174.028
162.688
157.466
150.919
-1.53114
-1.53225
-1.54177
-1.55718
-1.53755
-1.53969
-1.75148
-2.21312
-2.39073
-0.596232
3.45116
8.96389
13.8707
49.9009
87.9302
124.566
146.61
152.005
148.914
-1.7011
-1.70462
-1.71562
-1.73591
-1.74811
-1.74628
-1.74941
-1.71766
-1.7477
-1.66576
-1.33153
1.09355
4.16999
6.9055
20.2237
63.8385
108.732
134.043
142.165
-1.86709
-1.87202
-1.87994
-1.89178
-1.90247
-1.9102
-1.9076
-1.86909
-1.82797
-1.66193
-1.10786
-0.0259779
1.19155
3.06123
9.4518
29.4099
64.962
105.264
114.189
-2.02944
-2.03567
-2.04217
-2.04799
-2.05011
-2.04868
-2.04312
-2.01979
-1.9391
-1.70283
-1.23549
-0.464992
0.716504
2.52607
6.20701
14.8397
32.3787
68.6055
76.503
-2.18946
-2.19705
-2.20373
-2.2084
-2.20917
-2.2063
-2.20221
-2.19263
-2.15413
-2.04978
-1.90488
-1.70021
-1.10303
0.35499
2.79064
8.21041
24.7065
39.4062
38.2457
-2.34836
-2.35784
-2.36634
-2.37354
-2.37973
-2.38756
-2.40304
-2.43337
-2.47838
-2.55502
-2.76353
-3.10279
-2.86753
-1.91628
-1.79765
1.84359
15.6773
22.4154
23.4486
-2.50661
-2.51874
-2.53067
-2.54315
-2.55873
-2.58343
-2.62826
-2.70859
-2.84245
-3.07368
-3.51201
-4.15067
-4.39657
-4.31211
-2.85391
1.27003
9.94441
15.1692
11.6075
-2.66395
-2.67941
-2.69593
-2.71527
-2.74178
-2.7841
-2.85668
-2.98002
-3.18174
-3.50709
-4.02746
-4.74398
-5.42639
-5.73757
-2.68754
0.745018
3.86129
8.25946
9.51606
-2.81986
-2.83891
-2.86046
-2.88695
-2.92372
-2.98066
-3.07327
-3.22287
-3.45642
-3.80622
-4.30048
-4.92745
-5.52896
-5.67804
-5.05813
-3.71541
-1.11839
2.78111
6.72185
-2.97371
-2.99632
-3.02253
-3.05529
-3.1001
-3.16665
-3.26939
-3.42673
-3.65857
-3.98101
-4.3927
-4.84941
-5.22621
-5.27793
-5.00994
-4.68201
-4.53972
-3.73198
4.00823
-3.12519
-3.1507
-3.18075
-3.21822
-3.26813
-3.33903
-3.4429
-3.59355
-3.8028
-4.07386
-4.39222
-4.7122
-4.95118
-5.0106
-4.89875
-4.70255
-4.8814
-5.91335
3.335
-3.274
-3.30155
-3.3342
-3.37451
-3.42669
-3.49757
-3.5962
-3.73186
-3.91007
-4.12718
-4.36537
-4.58791
-4.74503
-4.79881
-4.74782
-4.59692
-4.95334
-7.52201
2.37611
-3.41989
-3.44855
-3.48246
-3.5238
-3.57582
-3.64363
-3.73356
-3.85126
-3.99821
-4.16774
-4.34248
-4.49433
-4.59503
-4.6252
-4.56825
-4.42332
-4.79489
-8.02373
3.05333
-3.56271
-3.5916
-3.62553
-3.66628
-3.71629
-3.77917
-3.8591
-3.95918
-4.07861
-4.21011
-4.33886
-4.44447
-4.509
-4.5139
-4.42694
-4.31267
-4.98201
-7.38101
4.42245
-3.70245
-3.7308
-3.76371
-3.80261
-3.84928
-3.9062
-3.97608
-4.06039
-4.15743
-4.26082
-4.35975
-4.44119
-4.49178
-4.49425
-4.4162
-4.35023
-6.53884
-5.92442
5.54471
-3.83921
-3.86642
-3.89754
-3.93369
-3.97616
-4.02668
-4.08697
-4.1577
-4.23715
-4.32061
-4.40133
-4.4724
-4.52513
-4.54554
-4.50167
-4.53154
-5.57612
-5.22183
5.59521
-3.97315
-3.99876
-4.02756
-4.06044
-4.09831
-4.14239
-4.19378
-4.25285
-4.31835
-4.38735
-4.45642
-4.52298
-4.58367
-4.63306
-4.67229
-4.97763
-4.55873
-6.70574
2.95378
-4.10444
-4.12812
-4.15429
-4.18363
-4.21682
-4.25471
-4.29802
-4.34699
-4.40094
-4.45842
-4.51814
-4.57978
-4.64419
-4.71345
-4.79318
-4.9668
-5.11321
-7.53652
-2.50529
-4.23325
-4.25478
-4.27815
-4.30387
-4.3325
-4.36462
-4.40065
-4.4408
-4.48475
-4.53199
-4.58235
-4.63669
-4.6959
-4.75551
-4.79978
-4.81446
-4.92058
-5.8521
-6.42409
-4.35978
-4.37905
-4.39955
-4.42171
-4.44599
-4.4728
-4.50235
-4.53478
-4.56993
-4.6077
-4.64887
-4.69526
-4.74574
-4.79453
-4.83096
-4.84292
-4.91751
-5.0818
-6.03834
-4.48423
-4.5012
-4.51891
-4.53767
-4.55791
-4.57996
-4.60379
-4.62962
-4.65722
-4.68659
-4.71866
-4.75447
-4.79292
-4.83388
-4.87811
-4.91101
-4.92648
-5.00293
-4.30955
-4.60683
-4.62148
-4.63661
-4.65223
-4.66885
-4.68676
-4.70578
-4.72611
-4.74734
-4.76886
-4.7901
-4.81196
-4.83661
-4.8701
-4.91625
-4.95273
-4.93585
-4.97951
-5.04941
-4.72761
-4.7403
-4.75298
-4.76581
-4.77927
-4.79366
-4.80898
-4.82499
-4.84102
-4.8546
-4.86366
-4.87305
-4.89224
-4.93044
-4.96473
-4.96469
-4.91239
-4.95486
-4.67068
-4.847
-4.85776
-4.86827
-4.87868
-4.88944
-4.90092
-4.91344
-4.92662
-4.93955
-4.94755
-4.94923
-4.96165
-4.99167
-5.02018
-5.02122
-4.97849
-4.90762
-4.93596
-4.55933
-4.9653
-4.97421
-4.98279
-4.99114
-4.99968
-5.00883
-5.01903
-5.03063
-5.04396
-5.0543
-5.06018
-5.07853
-5.10612
-5.10949
-5.08261
-5.01904
-4.95037
-4.98994
-4.78591
-5.08288
-5.09005
-5.09689
-5.10348
-5.11023
-5.11755
-5.12583
-5.13589
-5.14961
-5.16613
-5.18393
-5.19517
-5.2013
-5.1921
-5.15693
-5.09495
-5.03977
-5.05724
-4.68008
-5.20017
-5.20573
-5.21101
-5.21609
-5.22135
-5.22713
-5.23368
-5.24151
-5.25234
-5.26812
-5.28634
-5.29473
-5.29176
-5.28015
-5.25459
-5.22094
-5.19561
-5.23105
-4.85123
-5.31755
-5.32171
-5.32566
-5.3295
-5.33352
-5.338
-5.34291
-5.34828
-5.35476
-5.36337
-5.37233
-5.37709
-5.3748
-5.3725
-5.37334
-5.37898
-5.40225
-5.46728
-5.59211
-5.43533
-5.43856
-5.44168
-5.44475
-5.448
-5.45153
-5.45513
-5.45836
-5.46112
-5.46367
-5.46555
-5.46527
-5.4631
-5.46669
-5.47838
-5.49986
-5.54322
-5.58995
-5.58914
-5.55375
-5.55705
-5.56047
-5.56394
-5.56746
-5.57087
-5.57368
-5.57516
-5.57463
-5.57178
-5.56612
-5.55701
-5.54516
-5.54976
-5.56949
-5.5942
-5.64811
-5.70879
-5.75213
-5.67229
-5.67574
-5.67958
-5.68364
-5.68764
-5.69112
-5.69342
-5.69363
-5.69085
-5.68428
-5.67253
-5.65017
-5.61012
-5.61037
-5.66047
-5.69171
-5.76526
-5.91978
-6.08592
)
;

boundaryField
{
    leftWall
    {
        type            calculated;
        value           nonuniform List<scalar> 
50
(
506.576
447.563
387.166
326.311
265.54
204.679
143.393
81.4303
23.604
-0.163596
-0.260313
-0.420052
-0.552802
-0.695899
-0.838164
-0.980836
-1.12355
-1.26609
-1.4083
-1.55013
-1.69155
-1.83257
-1.97322
-2.11351
-2.25345
-2.39308
-2.53238
-2.67138
-2.81007
-2.94845
-3.08653
-3.2243
-3.36175
-3.4989
-3.63573
-3.77226
-3.9085
-4.04445
-4.18011
-4.31551
-4.45065
-4.58556
-4.72024
-4.85473
-4.98904
-5.12321
-5.25728
-5.39089
-5.52519
-5.66036
)
;
    }
    rightWall
    {
        type            calculated;
        value           nonuniform List<scalar> 
50
(
1469.58
1400.84
1326.18
1247.49
1169.47
1089.59
1008.18
927.473
809.075
672.997
558.754
465.537
382.468
305.896
239.951
196.577
183.08
157.445
150.919
148.914
142.165
114.189
76.503
38.2457
23.4486
11.6075
9.51606
6.72185
4.00823
3.335
2.37611
3.05333
4.42245
5.54471
5.59521
2.95378
-2.50529
-6.42409
-6.03834
-4.30955
-5.04941
-4.67068
-4.55933
-4.78591
-4.68008
-4.85123
-5.59211
-5.58914
-5.75213
-6.08592
)
;
    }
    lowerWall
    {
        type            calculated;
        value           nonuniform List<scalar> 
62
(
536.006
534.547
539.261
547.756
559.068
572.117
586.733
602.936
620.774
640.2
661.078
683.209
706.323
730.141
754.404
778.731
802.758
825.971
847.681
865.653
877.465
885.732
899.748
870.431
808.65
749.233
692.388
637.626
585.387
535.919
488.508
505.949
510.431
506.097
487.741
662.019
625.839
578.598
561.523
553.86
548.875
440.209
340.268
663.857
551.248
466.973
416.405
384.97
384.442
400.517
413.76
423.018
437.706
467.575
516.986
652.075
919.433
1239.84
1477.38
1583.78
1574.29
1496.52
)
;
    }
    atmosphere
    {
        type            calculated;
        value           nonuniform List<scalar> 
46
(
-5.72904
-5.72916
-5.72943
-5.72959
-5.72968
-5.72973
-5.72975
-5.72975
-5.72973
-5.7297
-5.72965
-5.7296
-5.72954
-5.72948
-5.72942
-5.72936
-5.72931
-5.72925
-5.72921
-5.72916
-5.72911
-5.72907
-5.72905
-5.72904
-5.72904
-5.72904
-5.72904
-5.72904
-5.72904
-5.72904
-5.72904
-5.72904
-5.72904
-5.72904
-5.72904
-5.72904
-5.72904
-5.72904
-5.72904
-5.72904
-5.72959
-5.73381
-5.74517
-5.77223
-5.80872
-6.41914
)
;
    }
    defaultFaces
    {
        type            empty;
    }
}


// ************************************************************************* //
