/*--------------------------------*- C++ -*----------------------------------*\
  =========                 |
  \\      /  F ield         | OpenFOAM: The Open Source CFD Toolbox
   \\    /   O peration     | Website:  https://openfoam.org
    \\  /    A nd           | Version:  9
     \\/     M anipulation  |
\*---------------------------------------------------------------------------*/
FoamFile
{
    format      ascii;
    class       volScalarField;
    location    "0.65";
    object      p_rgh;
}
// * * * * * * * * * * * * * * * * * * * * * * * * * * * * * * * * * * * * * //

dimensions      [1 -1 -2 0 0 0 0];

internalField   nonuniform List<scalar> 
2268
(
-1.58133
-1.58563
-1.5906
-1.59877
-1.61023
-1.62371
-1.63914
-1.65649
-1.67575
-1.69703
-1.7205
-1.74636
-1.77491
-1.80651
-1.84155
-1.88016
-1.92165
-1.96351
-1.99984
-2.02228
-2.02364
-2.00971
-1.99505
-1.58285
-1.58669
-1.58889
-1.59649
-1.60839
-1.62255
-1.63887
-1.65711
-1.67722
-1.69933
-1.72359
-1.75023
-1.77953
-1.81184
-1.84747
-1.88644
-1.92795
-1.96952
-2.0062
-2.029
-2.02902
-2.01039
-1.99204
-1.58291
-1.58711
-1.58769
-1.59497
-1.60668
-1.62136
-1.6384
-1.65745
-1.67843
-1.70137
-1.72644
-1.75382
-1.78379
-1.81663
-1.8526
-1.89163
-1.93289
-1.97397
-2.01012
-2.03377
-2.03642
-2.01813
-1.99807
-1.58215
-1.58679
-1.58724
-1.5942
-1.60561
-1.62042
-1.63781
-1.65737
-1.67893
-1.70247
-1.72809
-1.75594
-1.78625
-1.81929
-1.85527
-1.89415
-1.93519
-1.97624
-2.01282
-2.0381
-2.04434
-2.02932
-2.00841
-1.58047
-1.58571
-1.58708
-1.59391
-1.60507
-1.61982
-1.63732
-1.65713
-1.67901
-1.70288
-1.72877
-1.7568
-1.78716
-1.82009
-1.85581
-1.89434
-1.93516
-1.97647
-2.01412
-2.04158
-2.05115
-2.03981
-2.01897
-1.57802
-1.58427
-1.58697
-1.59393
-1.60497
-1.61964
-1.63714
-1.65704
-1.67904
-1.70302
-1.72896
-1.75694
-1.78711
-1.81967
-1.85487
-1.89281
-1.93321
-1.97471
-2.01347
-2.04335
-2.05566
-2.04757
-2.02718
-1.57508
-1.58265
-1.58696
-1.59433
-1.60541
-1.62001
-1.63746
-1.65733
-1.67931
-1.70323
-1.72904
-1.75677
-1.78652
-1.81848
-1.8529
-1.88996
-1.92961
-1.97098
-2.01085
-2.04228
-2.0571
-2.05105
-2.03278
-1.5718
-1.58084
-1.58704
-1.59508
-1.60636
-1.62094
-1.6383
-1.65805
-1.67989
-1.70362
-1.72913
-1.75642
-1.78557
-1.81673
-1.85014
-1.88603
-1.92456
-1.96533
-2.00581
-2.03844
-2.05572
-2.05075
-2.03729
-1.65778
-1.6722
-1.68686
-1.70958
-1.73158
-1.7474
-1.75366
-1.7488
-1.73206
-1.70281
-1.66018
-1.60349
-1.53282
-1.44957
-1.35774
-1.26484
-1.18274
-1.12958
-1.11606
-1.65575
-1.66711
-1.68122
-1.70627
-1.73033
-1.74745
-1.75453
-1.75037
-1.73434
-1.7059
-1.6643
-1.60903
-1.53997
-1.45827
-1.36741
-1.27442
-1.19026
-1.13198
-1.11351
-1.65191
-1.66559
-1.6811
-1.7071
-1.73168
-1.74899
-1.75636
-1.75279
-1.73768
-1.71046
-1.67049
-1.61703
-1.54975
-1.46946
-1.37895
-1.28443
-1.19537
-1.12917
-1.1078
-1.64935
-1.66918
-1.68767
-1.71285
-1.73658
-1.75319
-1.76045
-1.75728
-1.74304
-1.71707
-1.67862
-1.62683
-1.56101
-1.48151
-1.3905
-1.29337
-1.1984
-1.12368
-1.09857
-1.65253
-1.67815
-1.7001
-1.72314
-1.74512
-1.76041
-1.76713
-1.76411
-1.75058
-1.72572
-1.68865
-1.63836
-1.57381
-1.49477
-1.40277
-1.30254
-1.20124
-1.11689
-1.08556
-1.66756
-1.69361
-1.71822
-1.73767
-1.75708
-1.77053
-1.77637
-1.77327
-1.76029
-1.73647
-1.70075
-1.65197
-1.58875
-1.51022
-1.41714
-1.3137
-1.20591
-1.11017
-1.06843
-1.70402
-1.71793
-1.74224
-1.75631
-1.7722
-1.78337
-1.78806
-1.7847
-1.77219
-1.74938
-1.71507
-1.66795
-1.60634
-1.52866
-1.43472
-1.32842
-1.21485
-1.1055
-1.04589
-1.77468
-1.75814
-1.77221
-1.77895
-1.79027
-1.79875
-1.80207
-1.79835
-1.78625
-1.7645
-1.73174
-1.68655
-1.62705
-1.5509
-1.45679
-1.34867
-1.23125
-1.1053
-1.01665
-1.56599
-1.57702
-1.58612
-1.59552
-1.6073
-1.62194
-1.63916
-1.65864
-1.68013
-1.70339
-1.72829
-1.75473
-1.78275
-1.81244
-1.844
-1.87771
-1.91398
-1.95323
-1.99457
-2.03268
-2.05413
-2.05299
-2.04603
-1.55768
-1.57071
-1.5826
-1.59392
-1.6067
-1.62172
-1.63895
-1.65817
-1.67917
-1.70173
-1.72568
-1.75086
-1.77723
-1.80478
-1.8336
-1.86388
-1.89596
-1.93033
-1.9666
-2.00082
-2.02532
-2.03183
-2.02798
-1.55011
-1.56531
-1.57992
-1.5933
-1.60734
-1.623
-1.64042
-1.65947
-1.67998
-1.70177
-1.72467
-1.74856
-1.77335
-1.79901
-1.82561
-1.85325
-1.8821
-1.91219
-1.94261
-1.97052
-1.9916
-2.00222
-2.00334
-1.54401
-1.56153
-1.57895
-1.59456
-1.6101
-1.62665
-1.64447
-1.66352
-1.68367
-1.70479
-1.72675
-1.74948
-1.77291
-1.79704
-1.82189
-1.84748
-1.87379
-1.90051
-1.9267
-1.95037
-1.96907
-1.98119
-1.98694
-1.53992
-1.5599
-1.58025
-1.59822
-1.61543
-1.63309
-1.65151
-1.67073
-1.69068
-1.7113
-1.7325
-1.75427
-1.77658
-1.79946
-1.82291
-1.84692
-1.87134
-1.89584
-1.91961
-1.94142
-1.95984
-1.97382
-1.98334
-1.53819
-1.56072
-1.58401
-1.60438
-1.62337
-1.64226
-1.66141
-1.68094
-1.70083
-1.72108
-1.74169
-1.76266
-1.78405
-1.8059
-1.82823
-1.85099
-1.87403
-1.89702
-1.9194
-1.94043
-1.95932
-1.97532
-1.98839
-1.53906
-1.5641
-1.59021
-1.61291
-1.63366
-1.6538
-1.67375
-1.69366
-1.71358
-1.73356
-1.75366
-1.77396
-1.79456
-1.81552
-1.83688
-1.85861
-1.88056
-1.90249
-1.92401
-1.94468
-1.96411
-1.98175
-1.99771
-1.54264
-1.57004
-1.59872
-1.62355
-1.64593
-1.66726
-1.68799
-1.70829
-1.72827
-1.74804
-1.76771
-1.78742
-1.8073
-1.82746
-1.84797
-1.86879
-1.88983
-1.9109
-1.93176
-1.9522
-1.97202
-1.99083
-2.00895
-1.54896
-1.57848
-1.60939
-1.63607
-1.65988
-1.68227
-1.7037
-1.72438
-1.74444
-1.76404
-1.78333
-1.8025
-1.82173
-1.84116
-1.86087
-1.88086
-1.90105
-1.92131
-1.94151
-1.9616
-1.98153
-2.00102
-2.0206
-1.55805
-1.58942
-1.62217
-1.65039
-1.67542
-1.69873
-1.7208
-1.74182
-1.76197
-1.78143
-1.80039
-1.81908
-1.83771
-1.85645
-1.87539
-1.89455
-1.91386
-1.93323
-1.95263
-1.97212
-1.9918
-2.01147
-2.03191
-1.57002
-1.60298
-1.63726
-1.66675
-1.69282
-1.71694
-1.73957
-1.76092
-1.78116
-1.80049
-1.81915
-1.83739
-1.85543
-1.87348
-1.89163
-1.9099
-1.92823
-1.94657
-1.96493
-1.98353
-2.0026
-2.02205
-2.04291
-1.58509
-1.6195
-1.65508
-1.68569
-1.7127
-1.73755
-1.76068
-1.7823
-1.80259
-1.82176
-1.84008
-1.85783
-1.87524
-1.89253
-1.90979
-1.92705
-1.94424
-1.96133
-1.97842
-1.99585
-2.01401
-2.03297
-2.05399
-1.60363
-1.63947
-1.6763
-1.70796
-1.73583
-1.76132
-1.78486
-1.80663
-1.82683
-1.8457
-1.86353
-1.88064
-1.89729
-1.91366
-1.92988
-1.94593
-1.96177
-1.97741
-1.993
-2.00902
-2.02605
-2.04434
-2.06532
-1.62613
-1.66349
-1.7016
-1.7343
-1.76295
-1.78893
-1.81266
-1.83434
-1.85418
-1.87246
-1.88953
-1.90574
-1.92136
-1.9366
-1.95154
-1.96617
-1.98045
-1.99442
-2.00833
-2.02277
-2.03848
-2.05588
-2.07654
-1.653
-1.69208
-1.73155
-1.76522
-1.79446
-1.82065
-1.84422
-1.86541
-1.88449
-1.90178
-1.91769
-1.93262
-1.9469
-1.96071
-1.97413
-1.98712
-1.99966
-2.0118
-2.02387
-2.03656
-2.05074
-2.06692
-2.08671
-1.68457
-1.72556
-1.7664
-1.80083
-1.83033
-1.8563
-1.87923
-1.89942
-1.91724
-1.93308
-1.94738
-1.96064
-1.97322
-1.98531
-1.99697
-2.00815
-2.0188
-2.02899
-2.0391
-2.04987
-2.0622
-2.07665
-2.09477
-1.72094
-1.76399
-1.80607
-1.84086
-1.87012
-1.89534
-1.91706
-1.93571
-1.95176
-1.96569
-1.97801
-1.98926
-1.99984
-2.00998
-2.01969
-2.02891
-2.03757
-2.04572
-2.05373
-2.06235
-2.07245
-2.08452
-2.10004
-1.76203
-1.80717
-1.85021
-1.88478
-1.91318
-1.93704
-1.95701
-1.97363
-1.98749
-1.99916
-2.00924
-2.01827
-2.02668
-2.03468
-2.0423
-2.04944
-2.05599
-2.06198
-2.06773
-2.07393
-2.08139
-2.09051
-2.10258
-1.80773
-1.85485
-1.8984
-1.932
-1.95883
-1.98074
-1.99847
-2.01269
-2.02408
-2.0333
-2.04099
-2.0477
-2.05384
-2.05962
-2.06502
-2.06994
-2.07423
-2.0779
-2.0812
-2.08475
-2.08926
-2.09504
-2.10317
-1.85818
-1.90688
-1.95035
-1.98205
-2.00656
-2.02589
-2.04096
-2.0525
-2.06125
-2.06792
-2.07316
-2.07751
-2.08134
-2.08481
-2.08786
-2.09039
-2.09224
-2.09341
-2.09412
-2.09488
-2.09636
-2.09877
-2.10287
-1.91405
-1.96332
-2.00589
-2.03459
-2.05589
-2.07196
-2.08387
-2.09245
-2.09843
-2.10249
-2.10526
-2.10723
-2.1087
-2.10977
-2.11036
-2.11034
-2.1096
-2.10815
-2.10621
-2.10424
-2.10285
-2.10214
-2.10249
-1.97672
-2.02448
-2.06489
-2.08913
-2.10613
-2.1181
-2.12622
-2.13142
-2.13442
-2.13581
-2.13611
-2.13572
-2.13485
-2.1335
-2.13157
-2.12894
-2.12554
-2.12147
-2.11699
-2.11251
-2.10856
-2.10511
-2.10218
-2.0487
-2.09066
-2.12692
-2.14471
-2.15597
-2.16281
-2.1664
-2.16772
-2.16745
-2.16609
-2.16399
-2.16136
-2.15825
-2.15459
-2.15023
-2.14509
-2.13915
-2.13262
-2.12581
-2.11915
-2.113
-2.10716
-2.10137
-2.13472
-2.1611
-2.19065
-2.1996
-2.20337
-2.20389
-2.20217
-2.19915
-2.19542
-2.19131
-2.18697
-2.18236
-2.17729
-2.17157
-2.16506
-2.15768
-2.1495
-2.14077
-2.13192
-2.12336
-2.1153
-2.10737
-2.09907
-2.24156
-2.23121
-2.25296
-2.25097
-2.2456
-2.23867
-2.23101
-2.22339
-2.21621
-2.20957
-2.20331
-2.19709
-2.19047
-2.18311
-2.17484
-2.16564
-2.15562
-2.14504
-2.1344
-2.12414
-2.11439
-2.10464
-2.09417
-2.91005
-2.29194
-2.30825
-2.29499
-2.27947
-2.26444
-2.2505
-2.2383
-2.22796
-2.21918
-2.21146
-2.20413
-2.19652
-2.1881
-2.17862
-2.16814
-2.15676
-2.14472
-2.13251
-2.12067
-2.10939
-2.0981
-2.08584
-8.34114
-2.34248
-2.35153
-2.32813
-2.30223
-2.27868
-2.25843
-2.24195
-2.22902
-2.21883
-2.21039
-2.20268
-2.19483
-2.18609
-2.17609
-2.16489
-2.15265
-2.13954
-2.12601
-2.11267
-2.09996
-2.08738
-2.07376
-20.1689
-2.38807
-2.38376
-2.34907
-2.31194
-2.27925
-2.25277
-2.23268
-2.21807
-2.20749
-2.19937
-2.19234
-2.18529
-2.17725
-2.16759
-2.15626
-2.14357
-2.12977
-2.1152
-2.10053
-2.0864
-2.07262
-2.05798
-21.5118
-2.43949
-2.41144
-2.35957
-2.30753
-2.26406
-2.23144
-2.20879
-2.19395
-2.18454
-2.17832
-2.17341
-2.16845
-2.16231
-2.15398
-2.14317
-2.13034
-2.1161
-2.10088
-2.08514
-2.0696
-2.05447
-2.03883
-22.3659
-2.52753
-2.43998
-2.35978
-2.28637
-2.23009
-2.19207
-2.16872
-2.1559
-2.15005
-2.14803
-2.14722
-2.14585
-2.14273
-2.13669
-2.12708
-2.1144
-2.09972
-2.08416
-2.06761
-2.05088
-2.03425
-2.01707
-22.9559
-2.85886
-2.45238
-2.33798
-2.24035
-2.17208
-2.1317
-2.1113
-2.10416
-2.10529
-2.11044
-2.11611
-2.12001
-2.12094
-2.11791
-2.11017
-2.09801
-2.08278
-2.06585
-2.0482
-2.03028
-2.01204
-1.99361
-23.3739
-3.5239
-2.39548
-2.2673
-2.15481
-2.08283
-2.04739
-2.03621
-2.04033
-2.05324
-2.06917
-2.08382
-2.09471
-2.10064
-2.10098
-2.09528
-2.08389
-2.0681
-2.04952
-2.02952
-2.00913
-1.98868
-1.96835
-23.4566
-4.60377
-2.25858
-2.12717
-2.01494
-1.95505
-1.93695
-1.94429
-1.96758
-1.99917
-2.03051
-2.05638
-2.07543
-2.08686
-2.09021
-2.08584
-2.07465
-2.06146
-2.04329
-2.01875
-1.99038
-1.9664
-1.94271
-23.2389
-8.34643
-1.97504
-1.88965
-1.80666
-1.78113
-1.79858
-1.83757
-1.89091
-1.95093
-2.00311
-2.04123
-2.06851
-2.08525
-2.09021
-2.08501
-2.07216
-2.0536
-2.02969
-2.00224
-2.01679
-1.99885
-1.93338
-22.836
-16.1836
-1.73635
-1.55537
-1.52917
-1.56006
-1.63493
-1.72208
-1.81855
-1.91914
-1.99627
-2.04204
-2.07499
-2.09776
-2.10393
-2.09507
-2.07591
-2.05232
-2.02352
-1.99431
-2.00631
-2.0443
-2.00134
-9.87328
-8.72845
-3.26836
-1.16004
-1.2148
-1.30968
-1.46285
-1.61548
-1.77184
-1.92569
-2.03135
-2.06078
-2.08476
-2.11301
-2.12135
-2.10902
-2.10679
-2.20773
-2.18588
-2.14569
-2.09946
-2.05584
-1.93836
-0.0462167
0.0378931
-1.06216
-1.04118
-0.837921
-1.03088
-1.2925
-1.52712
-1.81048
-2.02416
-2.09781
-2.2065
-4.16167
-4.47535
-4.42741
-3.87135
-2.18646
-2.02604
-1.99572
-2.00001
-1.93632
-1.83053
-1.72422
-1.87627
0.164742
-0.178702
-0.455678
-0.490563
-0.74638
-1.09222
-1.30137
-1.65561
-2.27041
-2.40055
-2.25518
-2.16497
-2.28109
-2.36755
-2.33109
-2.30303
-2.29204
-2.22323
-2.12402
-2.05649
-2.06136
-2.04474
-32.745
-58.7973
-26.5222
-0.552974
-0.144082
-0.656836
-1.48613
-13.8741
-197.756
-806.344
-1276.69
-1167.21
-831.002
-639.584
-648.681
-691.124
-728.886
-805.821
-1073.01
-1505.75
-1570.48
-1458.88
-1212.6
-7.96198
-173.429
-307.898
-137.452
-127.687
-301.996
-247.998
-143.363
-2914.98
-3825.93
-3818.69
-3804.71
-3813
-3880.71
-3944.84
-4033.23
-4113.31
-4195.02
-4272.11
-4355.51
-4439.98
-4570.15
-4564.08
0.515409
-0.461075
-932.762
-1701.53
-1702.04
-1709.2
-1741.68
-1631.05
-926.986
-1050.29
-1865.66
-3391.59
-3784.01
-3782.35
-3294.75
-2599.81
-2135.17
-2194.2
-2830.99
-3931.5
-4573.13
-4651.77
-4630.37
-0.363897
-0.405797
1.05457
-45.3404
-79.7527
-49.7548
-10.6517
5.28226
2.60248
4.98639
-3.03177
-150.447
-183.288
-300.617
-155.091
-197.451
-91.5074
-158.551
-101.813
-345.498
-292.424
-494.886
-258.928
-2.09211
-2.13441
-2.21178
-2.24998
-2.02747
-2.02336
-2.02468
-2.01998
-1.9987
-1.99365
-1.98333
-1.96875
-1.98858
-1.98981
-1.98907
-1.98462
-1.98868
-1.99202
-1.99494
-1.99669
-1.99721
-2.00269
-2.00778
-2.01217
-2.00954
-2.01719
-2.02457
-2.03116
-2.02309
-2.03251
-2.04195
-2.05066
-2.03633
-2.04714
-2.05845
-2.06925
-2.04863
-2.06053
-2.07354
-2.08641
-2.06025
-2.07299
-2.08748
-2.10222
-2.07177
-2.08515
-2.10075
-2.11691
-2.08343
-2.0972
-2.11339
-2.13027
-2.09468
-2.10844
-2.12457
-2.1414
-2.10426
-2.11744
-2.13281
-2.14888
-2.11078
-2.12267
-2.1366
-2.15133
-2.11346
-2.12335
-2.13523
-2.14809
-2.11253
-2.11984
-2.12911
-2.13957
-2.1091
-2.11345
-2.11966
-2.12714
-2.10467
-2.10585
-2.10862
-2.1126
-2.10037
-2.09837
-2.09751
-2.09767
-2.09652
-2.09152
-2.08712
-2.08345
-2.09261
-2.08488
-2.07723
-2.07002
-2.08753
-2.07736
-2.06681
-2.05647
-2.08006
-2.06759
-2.05442
-2.0414
-2.06927
-2.05448
-2.03889
-2.02364
-2.05489
-2.03771
-2.01968
-2.00241
-2.03713
-2.01771
-1.99723
-1.97792
-2.01634
-1.99497
-1.97224
-1.95091
-1.99286
-1.96975
-1.94495
-1.92168
-1.96772
-1.94268
-1.91544
-1.88991
-1.94073
-1.9139
-1.88439
-1.85679
-1.91268
-1.88442
-1.85275
-1.82267
-1.88407
-1.85287
-1.81895
-1.78679
-1.95079
-1.90498
-1.81491
-1.73975
-1.9081
-1.8641
-1.77872
-1.6759
-1.63068
-1.5991
-1.54581
-1.47286
-1.96213
-1.82923
-1.66064
-1.56354
-952.453
-872.383
-954.599
-1027.43
-4553.99
-4540.66
-4543.63
-4540.67
-4630.69
-4649.1
-4644.5
-4607.3
-413.393
-356.649
-213.331
-206.158
-1.98463
-1.85319
-1.82505
-1.81886
-1.82221
-1.82631
-1.82742
-1.82316
-1.81183
-1.79195
-1.76205
-1.72061
-1.66561
-1.59358
-1.50142
-1.39333
-1.27632
-1.12874
-0.982889
-1.96994
-1.91844
-1.88473
-1.87187
-1.86958
-1.8702
-1.86976
-1.86576
-1.85641
-1.84021
-1.81583
-1.78219
-1.73804
-1.68027
-1.60244
-1.50472
-1.43265
-1.39215
-1.04934
-1.95195
-1.94053
-1.92633
-1.91954
-1.91806
-1.91866
-1.91877
-1.91644
-1.91024
-1.8991
-1.8823
-1.86006
-1.83435
-1.80631
-1.76705
-1.71513
-1.90157
-2.99678
-1.83962
-1.97467
-1.96902
-1.96514
-1.96488
-1.96704
-1.97018
-1.97279
-1.97366
-1.97197
-1.9674
-1.96026
-1.95339
-1.95416
-1.96697
-2.00555
-2.36513
-5.75649
-15.3275
-6.09071
-1.99773
-2.00006
-2.00377
-2.00957
-2.01661
-2.02397
-2.03073
-2.03627
-2.04045
-2.04364
-2.04742
-2.05754
-2.08412
-2.13513
-2.44623
-6.98423
-19.1884
-36.7305
-73.441
-2.01904
-2.02974
-2.04119
-2.05367
-2.06668
-2.07966
-2.09206
-2.1037
-2.11485
-2.12595
-2.13878
-2.15925
-2.19712
-2.31652
-4.00692
-13.0541
-21.3105
-35.6317
-596.161
-2.04182
-2.05921
-2.07782
-2.09731
-2.11721
-2.13711
-2.1567
-2.17595
-2.19475
-2.21224
-2.2288
-2.25071
-2.3066
-3.01568
-6.37607
-7.08811
-2.36656
-27.9161
-918.885
-2.06496
-2.08837
-2.11374
-2.14052
-2.1682
-2.19643
-2.22502
-2.25361
-2.28049
-2.30254
-2.3201
-2.34681
-2.66936
-4.10175
-3.72231
-2.30489
-2.39128
-19.5697
-1022.37
-2.08722
-2.11647
-2.14861
-2.18311
-2.21955
-2.25777
-2.29758
-2.33752
-2.3733
-2.40051
-2.42325
-2.54641
-3.20696
-2.93787
-2.36867
-2.3694
-2.50409
-11.2707
-1123.49
-2.10806
-2.14303
-2.182
-2.22467
-2.27096
-2.32106
-2.37464
-2.42847
-2.47583
-2.5125
-2.56646
-2.82014
-2.69039
-2.47491
-2.46554
-2.48575
-2.61876
-5.36112
-1222.61
-2.12728
-2.16767
-2.21337
-2.26453
-2.32168
-2.38561
-2.45567
-2.52682
-2.59039
-2.64734
-2.75668
-2.72433
-2.62207
-2.59616
-2.59151
-2.60257
-2.74563
-2.67995
-1276.21
-2.14465
-2.18981
-2.24184
-2.30151
-2.37026
-2.44966
-2.5388
-2.63096
-2.71536
-2.81157
-2.85587
-2.79003
-2.75897
-2.73258
-2.72023
-2.72254
-2.86772
-2.75024
-1299.48
-2.15961
-2.20853
-2.2661
-2.33385
-2.41435
-2.51013
-2.62005
-2.73529
-2.84731
-2.94736
-2.95612
-2.93622
-2.90213
-2.86715
-2.84692
-2.84217
-2.97109
-2.81414
-1451.52
-2.17111
-2.22247
-2.28438
-2.3592
-2.45074
-2.56256
-2.69318
-2.83107
-2.96667
-3.06849
-3.08914
-3.07988
-3.03854
-2.99413
-2.97016
-2.96545
-3.05927
-2.82851
-1791.96
-2.17782
-2.23009
-2.29474
-2.37493
-2.47571
-2.60159
-2.75067
-2.909
-3.06507
-3.18031
-3.21661
-3.21162
-3.16493
-3.1104
-3.08928
-3.09988
-3.19157
-2.97852
-2022.18
-2.17853
-2.23002
-2.29539
-2.37857
-2.48563
-2.62197
-2.78552
-2.96049
-3.14574
-3.28613
-3.33605
-3.3448
-3.28464
-3.21289
-3.20414
-3.25853
-3.42757
-3.47369
-2180.47
-2.17264
-2.22145
-2.28516
-2.3683
-2.47776
-2.61971
-2.79231
-2.97871
-3.17906
-3.39348
-3.61927
-3.80709
-3.38026
-3.28438
-3.28404
-3.39951
-3.73655
-12.0555
-2342.13
-2.16045
-2.20446
-2.26374
-2.34328
-2.45048
-2.59202
-2.76743
-2.96849
-3.23319
-5.31243
-6.40283
-4.64055
-3.39016
-3.27497
-3.26739
-3.43041
-3.84267
-130.765
-2530.73
-2.14323
-2.18017
-2.23197
-2.30385
-2.40317
-2.53684
-2.71011
-2.94335
-6.56327
-7.51029
-7.58784
-4.69001
-3.26165
-3.14456
-3.11981
-3.29327
-6.55269
-1015.26
-2713.25
-2.12292
-2.15081
-2.19212
-2.25192
-2.33677
-2.45261
-2.66228
-5.17771
-7.31902
-7.55481
-7.50473
-3.59191
-3.01021
-2.91229
-2.85158
-2.90519
-12.6799
-2266.85
-2870.26
-2.1017
-2.11938
-2.14801
-2.19189
-2.25563
-2.33953
-3.30565
-6.96847
-7.22764
-7.38459
-5.63427
-2.82314
-2.71311
-2.63969
-2.5426
-2.46471
-12.7478
-2690.5
-3010.73
-2.08125
-2.0888
-2.10417
-2.13024
-2.17022
-2.21371
-3.10075
-6.7868
-6.98291
-6.64152
-2.44612
-2.411
-2.42603
-2.38537
-2.30131
-2.25841
-7.127
-2743.54
-3144.04
-2.06221
-2.06093
-2.06436
-2.07362
-2.09018
-2.09877
-2.34236
-4.01461
-4.3621
-2.10335
-2.07677
-2.1508
-2.18111
-2.16735
-2.12643
-2.22681
-8.96237
-2725.33
-3274.4
-2.04394
-2.0358
-2.03008
-2.02612
-2.02294
-2.01175
-1.9679
-1.90154
-1.85782
-1.86115
-1.91172
-1.95612
-1.97036
-1.9622
-1.92283
-2.11179
-40.6648
-2819.7
-3403.91
-2.02513
-2.012
-2.00001
-1.98754
-1.9722
-1.94854
-1.90561
-1.84651
-1.80383
-1.79193
-1.79632
-1.79538
-1.78468
-1.76253
-1.68079
-1.83717
-109.293
-3181.89
-3532.25
-2.00448
-1.9877
-1.97124
-1.95328
-1.93149
-1.90243
-1.86147
-1.81057
-1.76391
-1.72629
-1.69177
-1.6553
-1.61895
-1.57698
-1.45919
-1.61654
-224.022
-3537.54
-3658.39
-1.98103
-1.96159
-1.9416
-1.91933
-1.89269
-1.85928
-1.81661
-1.76525
-1.71014
-1.65287
-1.5918
-1.52719
-1.46532
-1.40109
-1.27197
-1.47481
-481.2
-3751.76
-3780.02
-1.95464
-1.93317
-1.91018
-1.88402
-1.85285
-1.8147
-1.76767
-1.71127
-1.64675
-1.5743
-1.49315
-1.40469
-1.31671
-1.22684
-1.09151
-1.94308
-1220.77
-3902.11
-3898.65
-1.92572
-1.90261
-1.87694
-1.84696
-1.81112
-1.76766
-1.71479
-1.65146
-1.57736
-1.49197
-1.39447
-1.28582
-1.17385
-1.05973
-0.91507
-1.98361
-2222.91
-4027.6
-4012.66
-1.89449
-1.87
-1.84198
-1.80824
-1.76751
-1.71822
-1.65862
-1.58743
-1.50375
-1.40676
-1.29569
-1.17038
-1.03905
-0.904242
-0.764603
-1.98108
-2715.92
-4144.06
-4117.04
-1.86082
-1.83526
-1.80528
-1.76801
-1.7224
-1.66713
-1.60035
-1.52066
-1.4272
-1.32559
-1.21349
-1.05864
-0.913842
-0.772805
-0.632166
-0.588119
-2839.73
-4254.88
-4211.81
-1.82536
-1.79894
-1.76742
-1.72697
-1.67682
-1.61615
-1.54227
-1.45327
-1.35098
-1.27914
-1.1397
-0.94871
-0.790608
-0.670112
-0.65291
-0.810211
-2977.55
-4359.35
-4290.56
-1.78851
-1.76187
-1.73052
-1.69208
-1.63793
-1.56861
-1.48629
-1.38753
-1.31107
-1.18414
-1.01703
-0.81022
-0.635223
-0.575168
-0.970085
-2.21987
-3544.58
-4446.01
-4345.07
-1.75019
-1.72592
-1.6978
-1.66087
-1.60372
-1.53466
-1.43875
-1.32628
-1.20361
-1.0655
-0.856806
-0.620547
-0.436678
-0.556079
-1.96139
-218.56
-4147.64
-4495.82
-4358
-1.70155
-1.68844
-1.66466
-1.62291
-1.5666
-1.49938
-1.40841
-1.28497
-1.13056
-0.95451
-0.742695
-0.488668
-0.428224
-1.45727
-5.28793
-2001.66
-4553.58
-4497.9
-4317.47
-1.62013
-1.63286
-1.62044
-1.56337
-1.50347
-1.45108
-1.36659
-1.23216
-1.07901
-0.932217
-0.759656
-0.61883
-1.0302
-5.56976
-19.1511
-3709.67
-4652.05
-4454.56
-4232
-1.46212
-1.55034
-1.55036
-1.45176
-1.3843
-1.37741
-1.30405
-1.13869
-1.01106
-0.820416
-0.489133
-0.709876
-4.80767
-209.674
-2299.92
-4674.84
-4599.15
-4384.11
-4129.78
-1.62136
-1.96683
-2.00532
-1.72262
-1.56823
-1.6755
-1.57131
-1.1123
-0.677819
-10.6817
-63.2193
-293.096
-972.156
-3230.56
-4805.84
-4683.65
-4538.85
-4321.5
-4052.58
-947.037
-983.279
-1160.69
-1381.95
-1511.5
-1607.12
-1733.14
-1916.83
-2217.03
-2662.11
-3269.21
-4212.38
-4911.74
-4796.68
-4721.09
-4629.4
-4511.79
-4302.22
-4025.12
-4517.08
-4613.92
-4751.9
-4828.1
-4884.34
-4974.32
-5014.76
-4987.63
-4982.14
-5047.59
-5089.47
-4938.43
-4768.86
-4687.2
-4689.86
-4630.86
-4558.66
-4346.24
-4016.28
-4635.22
-4890.26
-4991.28
-4918.46
-4931.39
-5131.29
-5168.23
-5025.11
-4973.09
-5127.39
-5115.39
-4871.24
-4643.6
-4575.8
-4604.99
-4418.69
-4422.94
-4467.55
-3855.45
-186.564
-511.228
-476.952
-169.006
-156.491
-480.487
-470.314
-149.502
-168.208
-577.1
-573.445
-87.0186
-32.2824
-136.514
-466.527
-204.292
-1431.99
-1901.5
-964.406
)
;

boundaryField
{
    leftWall
    {
        type            fixedFluxPressure;
        gradient        uniform 0;
        value           nonuniform List<scalar> 
50
(
-1.58133
-1.58285
-1.58291
-1.58215
-1.58047
-1.57802
-1.57508
-1.5718
-1.56599
-1.55768
-1.55011
-1.54401
-1.53992
-1.53819
-1.53906
-1.54264
-1.54896
-1.55805
-1.57002
-1.58509
-1.60363
-1.62613
-1.653
-1.68457
-1.72094
-1.76203
-1.80773
-1.85818
-1.91405
-1.97672
-2.0487
-2.13472
-2.24156
-2.91005
-8.34114
-20.1689
-21.5118
-22.3659
-22.9559
-23.3739
-23.4566
-23.2389
-22.836
-9.87328
-0.0462167
-1.87627
-32.745
-7.96198
0.515409
-0.363897
)
;
    }
    rightWall
    {
        type            fixedFluxPressure;
        gradient        uniform 0;
        value           nonuniform List<scalar> 
50
(
-1.11606
-1.11351
-1.1078
-1.09857
-1.08556
-1.06843
-1.04589
-1.01665
-0.982889
-1.04934
-1.83962
-6.09071
-73.441
-596.161
-918.885
-1022.37
-1123.49
-1222.61
-1276.21
-1299.48
-1451.52
-1791.96
-2022.18
-2180.47
-2342.13
-2530.73
-2713.25
-2870.26
-3010.73
-3144.04
-3274.4
-3403.91
-3532.25
-3658.39
-3780.02
-3898.65
-4012.66
-4117.04
-4211.81
-4290.56
-4345.07
-4358
-4317.47
-4232
-4129.78
-4052.58
-4025.12
-4016.28
-3855.45
-964.406
)
;
    }
    lowerWall
    {
        type            fixedFluxPressure;
        gradient        uniform 0;
        value           nonuniform List<scalar> 
62
(
-1.58133
-1.58563
-1.5906
-1.59877
-1.61023
-1.62371
-1.63914
-1.65649
-1.67575
-1.69703
-1.7205
-1.74636
-1.77491
-1.80651
-1.84155
-1.88016
-1.92165
-1.96351
-1.99984
-2.02228
-2.02364
-2.00971
-1.99505
-1.99505
-1.99204
-1.99807
-2.00841
-2.01897
-2.02718
-2.03278
-2.03729
-2.09211
-2.13441
-2.21178
-2.24998
-1.65778
-1.65575
-1.65191
-1.64935
-1.65253
-1.66756
-1.70402
-1.77468
-1.65778
-1.6722
-1.68686
-1.70958
-1.73158
-1.7474
-1.75366
-1.7488
-1.73206
-1.70281
-1.66018
-1.60349
-1.53282
-1.44957
-1.35774
-1.26484
-1.18274
-1.12958
-1.11606
)
;
    }
    atmosphere
    {
        type            totalPressure;
        rho             rho;
        psi             none;
        gamma           1;
        p0              uniform 0;
        value           nonuniform List<scalar> 
46
(
-1.36068
-0.676389
-0.00856272
0
-3.83631
-2.46049
0
0
0
0
0
0
-1.15085
0
-1.68871
0
-0.0393132
0
-0.042629
0
-2.84657
0
-2.21045
0
0
-0.270289
-2.42772
-2.73801
0
0
-1.68751
-2.41674
0
0
-0.699146
-1.8463
0
0
0
0
-1.14888
0
0
0
0
-14.1126
)
;
    }
    defaultFaces
    {
        type            empty;
    }
}


// ************************************************************************* //
