/*--------------------------------*- C++ -*----------------------------------*\
  =========                 |
  \\      /  F ield         | OpenFOAM: The Open Source CFD Toolbox
   \\    /   O peration     | Website:  https://openfoam.org
    \\  /    A nd           | Version:  9
     \\/     M anipulation  |
\*---------------------------------------------------------------------------*/
FoamFile
{
    format      ascii;
    class       surfaceScalarField;
    location    "0.65";
    object      phi;
}
// * * * * * * * * * * * * * * * * * * * * * * * * * * * * * * * * * * * * * //

dimensions      [0 3 -1 0 0 0 0];

internalField   nonuniform List<scalar> 
4432
(
-4.89824e-06
4.89824e-06
-7.74204e-06
2.84379e-06
-7.67631e-06
-6.57321e-08
-6.50433e-06
-1.17198e-06
-5.17953e-06
-1.3248e-06
-4.02716e-06
-1.15237e-06
-3.13181e-06
-8.95348e-07
-2.48148e-06
-6.50334e-07
-2.03514e-06
-4.46338e-07
-1.73516e-06
-2.99976e-07
-1.52609e-06
-2.09075e-07
-1.38175e-06
-1.44334e-07
-1.30366e-06
-7.80986e-08
-1.32596e-06
2.23084e-08
-1.51664e-06
1.9067e-07
-1.97018e-06
4.53548e-07
-2.82605e-06
8.5586e-07
-4.2645e-06
1.43845e-06
-6.41698e-06
2.15248e-06
-9.2e-06
2.78302e-06
-1.1209e-05
2.00904e-06
-9.24728e-06
-1.96177e-06
-9.24728e-06
-4.14139e-06
9.03964e-06
-5.09975e-06
3.80215e-06
-4.65879e-06
-5.06695e-07
-3.75033e-06
-2.08043e-06
-2.80771e-06
-2.26742e-06
-2.01988e-06
-1.9402e-06
-1.44533e-06
-1.4699e-06
-1.07936e-06
-1.01631e-06
-8.85445e-07
-6.40253e-07
-8.19249e-07
-3.66171e-07
-8.37016e-07
-1.91311e-07
-9.0677e-07
-7.45766e-08
-1.03002e-06
4.51464e-08
-1.22056e-06
2.12855e-07
-1.49671e-06
4.66808e-07
-1.89606e-06
8.52904e-07
-2.47215e-06
1.43195e-06
-3.30829e-06
2.2746e-06
-4.40847e-06
3.25266e-06
-5.53863e-06
3.91317e-06
-6.05082e-06
2.52123e-06
-5.31597e-06
-2.69661e-06
-1.45633e-05
-2.59101e-06
1.16307e-05
-2.79669e-06
4.00782e-06
-2.36104e-06
-9.42344e-07
-1.72761e-06
-2.71386e-06
-1.12111e-06
-2.87392e-06
-6.55599e-07
-2.40572e-06
-3.63415e-07
-1.76208e-06
-2.384e-07
-1.14133e-06
-2.52065e-07
-6.26589e-07
-3.68514e-07
-2.4972e-07
-5.50222e-07
-9.60542e-09
-7.69313e-07
1.44516e-07
-1.02056e-06
2.96389e-07
-1.30669e-06
4.98992e-07
-1.62563e-06
7.85739e-07
-1.97059e-06
1.19787e-06
-2.33542e-06
1.79676e-06
-2.70704e-06
2.64622e-06
-3.01065e-06
3.55626e-06
-3.05379e-06
3.95632e-06
-2.81322e-06
2.28066e-06
-2.23341e-06
-3.27642e-06
-1.67967e-05
-9.94138e-07
1.26248e-05
-7.278e-07
3.74149e-06
-3.60629e-07
-1.30952e-06
9.81306e-09
-3.0843e-06
2.8829e-07
-3.1524e-06
4.43426e-07
-2.56086e-06
4.68033e-07
-1.78668e-06
3.67818e-07
-1.04111e-06
1.64258e-07
-4.2303e-07
-1.15365e-07
2.99054e-08
-4.38829e-07
3.13856e-07
-7.79625e-07
4.85312e-07
-1.13035e-06
6.47115e-07
-1.48595e-06
8.54595e-07
-1.82866e-06
1.12844e-06
-2.12498e-06
1.4942e-06
-2.32937e-06
2.00115e-06
-2.38816e-06
2.70501e-06
-2.20382e-06
3.37192e-06
-1.63536e-06
3.38786e-06
-9.06168e-07
1.55147e-06
-1.61366e-08
-4.16646e-06
-1.68128e-05
6.41264e-07
1.19835e-05
1.16452e-06
3.21823e-06
1.45611e-06
-1.60111e-06
1.53455e-06
-3.16274e-06
1.48229e-06
-3.10014e-06
1.33726e-06
-2.41582e-06
1.11019e-06
-1.55962e-06
8.00922e-07
-7.3184e-07
4.22949e-07
-4.50578e-08
-5.13014e-09
4.57986e-07
-4.55301e-07
7.64024e-07
-9.01221e-07
9.31233e-07
-1.33438e-06
1.08027e-06
-1.74385e-06
1.26406e-06
-2.10122e-06
1.48581e-06
-2.35449e-06
1.74747e-06
-2.43545e-06
2.08211e-06
-2.2801e-06
2.54966e-06
-1.79357e-06
2.88539e-06
-8.82063e-07
2.47635e-06
2.19176e-07
4.50227e-07
1.00925e-06
-4.95653e-06
-1.58036e-05
2.12711e-06
9.85642e-06
2.93162e-06
2.41373e-06
3.07567e-06
-1.74516e-06
2.82693e-06
-2.914e-06
2.44381e-06
-2.71702e-06
2.01773e-06
-1.98974e-06
1.56413e-06
-1.10602e-06
1.06824e-06
-2.35946e-07
5.35654e-07
4.87523e-07
-2.44158e-08
1.01805e-06
-5.86871e-07
1.32648e-06
-1.12327e-06
1.46763e-06
-1.62496e-06
1.58196e-06
-2.07695e-06
1.71606e-06
-2.44347e-06
1.85232e-06
-2.6597e-06
1.96369e-06
-2.64513e-06
2.06754e-06
-2.34393e-06
2.24845e-06
-1.68075e-06
2.22221e-06
-5.8661e-07
1.38221e-06
7.42737e-07
-8.79122e-07
1.5976e-06
-5.81138e-06
-1.4206e-05
3.24405e-06
6.61237e-06
4.47956e-06
1.17822e-06
4.42404e-06
-1.68964e-06
3.83213e-06
-2.32209e-06
3.13827e-06
-2.02316e-06
2.46235e-06
-1.31383e-06
1.82005e-06
-4.63719e-07
1.16698e-06
4.17122e-07
5.05795e-07
1.14871e-06
-1.67296e-07
1.69115e-06
-8.26408e-07
1.98559e-06
-1.43898e-06
2.08021e-06
-1.99529e-06
2.13826e-06
-2.4788e-06
2.19958e-06
-2.84943e-06
2.22295e-06
-3.03305e-06
2.14731e-06
-2.94329e-06
1.97779e-06
-2.54571e-06
1.85087e-06
-1.7924e-06
1.4689e-06
-6.39431e-07
2.29233e-07
7.6504e-07
-2.28359e-06
1.77224e-06
-6.81859e-06
-1.24337e-05
4.10574e-06
2.50663e-06
5.67913e-06
-3.95173e-07
5.40233e-06
-1.41284e-06
4.50114e-06
-1.4209e-06
3.53828e-06
-1.06029e-06
2.65161e-06
-4.27161e-07
1.87161e-06
3.16287e-07
1.1029e-06
1.18583e-06
3.43191e-07
1.90842e-06
-4.19052e-07
2.45339e-06
-1.15801e-06
2.72454e-06
-1.83021e-06
2.75241e-06
-2.42754e-06
2.73559e-06
-2.93026e-06
2.70231e-06
-3.29849e-06
2.59117e-06
-3.45104e-06
2.29986e-06
-3.2993e-06
1.82605e-06
-2.83902e-06
1.39058e-06
-2.05197e-06
6.81854e-07
-9.14516e-07
-9.08222e-07
4.31512e-07
-3.62962e-06
1.45097e-06
-7.83804e-06
-1.09827e-05
-0.000103653
0.000103653
-0.000152521
4.88678e-05
-0.000174548
2.20271e-05
-0.000181496
6.94844e-06
-0.000178055
-3.44131e-06
-0.00017096
-7.09431e-06
-0.000164349
-6.61188e-06
-0.00015808
-6.26825e-06
-0.000152749
-5.33139e-06
-0.000148771
-3.97828e-06
-0.000144875
-3.89567e-06
-0.000139428
-5.44666e-06
-0.000129048
-1.03803e-05
-0.000109589
-1.94595e-05
-8.18803e-05
-2.77082e-05
-5.20342e-05
-2.98461e-05
-2.39682e-05
-2.8066e-05
-2.46042e-06
-2.15078e-05
-2.46042e-06
-0.000123516
0.000227168
-0.000180747
0.000106099
-0.000204386
4.56659e-05
-0.000190521
-6.91687e-06
-0.00017343
-2.05318e-05
-0.000168611
-1.19131e-05
-0.000163074
-1.21492e-05
-0.000155796
-1.35463e-05
-0.00014777
-1.33575e-05
-0.000140182
-1.15657e-05
-0.000133012
-1.10664e-05
-0.000125992
-1.2466e-05
-0.000116552
-1.98207e-05
-0.000100532
-3.54794e-05
-7.80497e-05
-5.01905e-05
-5.39095e-05
-5.39863e-05
-3.13632e-05
-5.06123e-05
-1.17369e-05
-4.11341e-05
-1.41973e-05
-6.98716e-05
0.00029704
-0.000111189
0.000147416
-0.000140552
7.5029e-05
-0.000149521
2.05264e-06
-0.000155548
-1.45053e-05
-0.000162748
-4.7133e-06
-0.000161217
-1.36803e-05
-0.000153233
-2.15298e-05
-0.00014266
-2.3931e-05
-0.000132649
-2.15762e-05
-0.000122922
-2.07938e-05
-0.000113646
-2.17417e-05
-0.000103648
-2.9819e-05
-8.97518e-05
-4.93753e-05
-7.12464e-05
-6.86959e-05
-5.1433e-05
-7.37997e-05
-3.28657e-05
-6.91796e-05
-1.54711e-05
-5.85287e-05
-2.96684e-05
4.98158e-05
0.000247224
1.68619e-05
0.00018037
8.11671e-06
8.37741e-05
-3.57695e-05
4.5939e-05
-8.33103e-05
3.30353e-05
-0.000109564
2.15401e-05
-0.00012449
1.24671e-06
-0.000129794
-1.62262e-05
-0.000131273
-2.24519e-05
-0.000127684
-2.51654e-05
-0.000112993
-3.54851e-05
-0.000100391
-3.43434e-05
-9.00264e-05
-4.01837e-05
-7.77508e-05
-6.16509e-05
-6.2501e-05
-8.39457e-05
-4.62935e-05
-9.00072e-05
-3.09615e-05
-8.45116e-05
-1.56863e-05
-7.38039e-05
-4.53547e-05
0.000204068
4.31564e-05
0.000232249
0.000152189
0.000129955
0.000186069
3.50301e-05
0.000140864
-2.95148e-05
9.75803e-05
-7.49392e-05
6.69643e-05
-9.86589e-05
2.49665e-05
-0.000106349
-8.53526e-06
-0.000101912
-2.68891e-05
-9.0948e-05
-3.61296e-05
-8.31533e-05
-4.32797e-05
-8.23561e-05
-3.51406e-05
-7.52037e-05
-4.7336e-05
-6.47923e-05
-7.20622e-05
-5.24233e-05
-9.63147e-05
-3.94117e-05
-0.000103019
-2.69725e-05
-9.69508e-05
-1.41961e-05
-8.65803e-05
-5.95508e-05
6.23118e-05
-1.91554e-05
0.000173442
4.10582e-05
0.000168923
0.000190588
8.00635e-05
0.000229723
8.71559e-06
0.000168928
-4.60348e-05
0.000121715
-7.61622e-05
5.50939e-05
-8.62176e-05
1.52026e-06
-8.25511e-05
-3.05556e-05
-7.14171e-05
-4.72637e-05
-6.14634e-05
-5.32335e-05
-5.55122e-05
-4.1092e-05
-5.92595e-05
-4.35887e-05
-5.1802e-05
-7.95198e-05
-4.18912e-05
-0.000106225
-3.17156e-05
-0.000113194
-2.19033e-05
-0.000106763
-1.19568e-05
-9.65268e-05
-7.15075e-05
3.11346e-05
-5.029e-05
8.24202e-05
-1.02274e-05
0.000115009
0.000158
8.22279e-05
0.000262504
2.98215e-05
0.000221335
-2.30362e-05
0.000174573
-5.5831e-05
8.78887e-05
-6.78709e-05
1.35602e-05
-6.70871e-05
-3.13394e-05
-6.03379e-05
-5.40129e-05
-5.31103e-05
-6.0461e-05
-4.47171e-05
-4.94854e-05
-4.58977e-05
-4.24081e-05
-3.9874e-05
-8.55435e-05
-3.1637e-05
-0.000114462
-2.39467e-05
-0.000120885
-1.65503e-05
-0.000114159
-9.30999e-06
-0.000103767
-8.08175e-05
2.2248e-05
-7.2538e-05
4.42212e-05
-3.22007e-05
7.96853e-05
0.000122536
7.61065e-05
0.000266083
3.71674e-05
0.000260274
-7.71005e-06
0.00021945
-3.71127e-05
0.000117291
-5.00814e-05
2.6529e-05
-5.25676e-05
-2.88531e-05
-5.06914e-05
-5.58891e-05
-4.72588e-05
-6.38933e-05
-3.87485e-05
-5.79957e-05
-3.53406e-05
-4.5816e-05
-2.92073e-05
-9.16768e-05
-2.2085e-05
-0.000121585
-1.6562e-05
-0.000126408
-1.13706e-05
-0.000119351
-6.48207e-06
-0.000108656
-8.72996e-05
1.16711e-05
-9.16452e-06
1.46134e-05
-3.33744e-06
1.33206e-05
-1.19992e-07
1.07359e-05
1.16372e-06
7.96766e-06
1.70798e-06
5.51508e-06
2.02542e-06
3.48873e-06
2.34264e-06
1.66875e-06
3.00581e-06
-1.22873e-07
3.70005e-06
-1.94789e-06
4.2784e-06
-3.73312e-06
4.50978e-06
-5.32911e-06
4.3484e-06
-6.66286e-06
4.06934e-06
-7.74513e-06
3.78458e-06
-8.48698e-06
3.33303e-06
-8.71261e-06
2.52549e-06
-8.19366e-06
1.30711e-06
-7.07317e-06
2.70094e-07
-5.40551e-06
-9.8581e-07
-3.12265e-06
-3.19108e-06
-6.14125e-07
-6.13815e-06
1.37196e-06
-9.82413e-06
-1.3376e-05
3.76521e-06
1.15358e-05
-2.07004e-05
1.35753e-05
-5.37689e-06
1.23669e-05
1.0884e-06
9.8277e-06
3.7029e-06
5.77971e-06
5.75596e-06
1.83492e-06
5.9702e-06
-2.86092e-08
4.20616e-06
-1.5191e-06
4.4963e-06
-2.94049e-06
5.12143e-06
-4.3738e-06
5.71171e-06
-5.88105e-06
6.01703e-06
-7.2659e-06
5.73325e-06
-8.303e-06
5.10644e-06
-9.11844e-06
4.60001e-06
-9.73521e-06
3.9498e-06
-9.76345e-06
2.55373e-06
-8.86002e-06
4.03669e-07
-7.60707e-06
-9.82855e-07
-6.05123e-06
-2.54165e-06
-3.81209e-06
-5.43021e-06
-1.27678e-06
-8.67345e-06
1.2444e-06
-1.23453e-05
-1.68108e-05
4.67924e-06
2.02808e-06
-2.27285e-05
5.80763e-06
-9.15646e-06
7.46191e-06
-5.65905e-07
6.90669e-06
4.25807e-06
4.86853e-06
7.79408e-06
2.78616e-06
8.05252e-06
4.42688e-07
6.54961e-06
-1.53837e-06
6.47734e-06
-3.10755e-06
6.69061e-06
-4.54434e-06
7.1485e-06
-6.63715e-06
8.10984e-06
-9.25361e-06
8.34971e-06
-1.05701e-05
6.42292e-06
-1.07391e-05
4.76905e-06
-1.04343e-05
3.64497e-06
-9.37831e-06
1.49775e-06
-7.94425e-06
-1.03039e-06
-6.7193e-06
-2.2078e-06
-5.33636e-06
-3.92459e-06
-3.04185e-06
-7.72472e-06
-8.08987e-07
-1.09063e-05
1.12936e-06
-1.42837e-05
-1.90898e-05
3.40835e-06
-4.55488e-06
-1.81736e-05
-1.7939e-06
-1.19175e-05
2.32226e-06
-4.68212e-06
6.09488e-06
4.85391e-07
9.20517e-06
4.68375e-06
1.0782e-05
6.47565e-06
1.0417e-05
6.91459e-06
9.31194e-06
7.58243e-06
7.4393e-06
8.56325e-06
4.40261e-06
1.01852e-05
-1.12753e-07
1.26252e-05
-4.79888e-06
1.30359e-05
-8.06352e-06
9.6876e-06
-9.34678e-06
6.05233e-06
-9.10817e-06
3.40638e-06
-8.53023e-06
9.19807e-07
-7.4545e-06
-2.10611e-06
-5.61301e-06
-4.04929e-06
-3.22079e-06
-6.31681e-06
-6.46706e-07
-1.02988e-05
7.68139e-07
-1.23212e-05
1.28053e-06
-1.4796e-05
-1.95998e-05
1.7905e-06
-1.44534e-06
-1.67283e-05
-7.84905e-07
-1.25779e-05
1.98765e-06
-7.45469e-06
5.34948e-06
-2.87644e-06
9.03114e-06
1.00209e-06
1.1843e-05
3.66383e-06
1.33261e-05
5.43155e-06
1.38724e-05
7.03612e-06
1.36485e-05
8.78718e-06
1.2939e-05
1.08947e-05
1.24022e-05
1.31621e-05
1.14643e-05
1.39738e-05
9.00192e-06
1.215e-05
5.60575e-06
9.44855e-06
1.72077e-06
7.29139e-06
-1.92024e-06
4.56083e-06
-3.84061e-06
-1.85749e-07
-2.8142e-06
-5.0757e-06
1.84615e-07
-9.31563e-06
1.02178e-06
-1.1136e-05
1.12254e-06
-1.24219e-05
1.0367e-06
-1.47102e-05
-1.90262e-05
4.63089e-07
-9.51063e-07
-1.57772e-05
-1.28175e-07
-1.34008e-05
2.03629e-06
-9.61912e-06
4.92701e-06
-5.76714e-06
8.157e-06
-2.22786e-06
1.11089e-05
7.11969e-07
1.34056e-05
3.13487e-06
1.50824e-05
5.35939e-06
1.62873e-05
7.58234e-06
1.73086e-05
9.87338e-06
1.84815e-05
1.19892e-05
1.93668e-05
1.30886e-05
1.90473e-05
1.24695e-05
1.77594e-05
1.07366e-05
1.62797e-05
8.7711e-06
1.47926e-05
6.04793e-06
1.28205e-05
1.7863e-06
1.11728e-05
-3.42809e-06
9.2737e-06
-7.41653e-06
7.3141e-06
-9.17638e-06
5.56945e-06
-1.06773e-05
5.36377e-06
-1.45045e-05
-1.64964e-05
2.83397e-06
-3.32425e-07
-1.54447e-05
4.03334e-07
-1.41365e-05
2.07801e-06
-1.12938e-05
4.42063e-06
-8.10972e-06
7.14624e-06
-4.95339e-06
9.89973e-06
-2.04146e-06
1.24251e-05
6.09615e-07
1.46732e-05
3.11128e-06
1.67157e-05
5.53988e-06
1.8711e-05
7.8781e-06
2.0786e-05
9.91427e-06
2.27065e-05
1.11681e-05
2.39364e-05
1.12396e-05
2.43531e-05
1.03198e-05
2.43257e-05
8.7985e-06
2.38902e-05
6.48341e-06
2.26314e-05
3.04503e-06
2.0183e-05
-9.79706e-07
1.70515e-05
-4.28502e-06
1.39781e-05
-6.10302e-06
1.0813e-05
-7.51219e-06
5.17481e-06
-8.8662e-06
-6.69639e-06
-4.62509e-06
-3.67518e-08
-1.5408e-05
5.95747e-07
-1.4769e-05
1.90219e-06
-1.26002e-05
3.77279e-06
-9.98025e-06
6.03966e-06
-7.22019e-06
8.49471e-06
-4.49644e-06
1.09752e-05
-1.87078e-06
1.34209e-05
6.65524e-07
1.58497e-05
3.11113e-06
1.83224e-05
5.40537e-06
2.08601e-05
7.37663e-06
2.32954e-05
8.73277e-06
2.52987e-05
9.23626e-06
2.66949e-05
8.92363e-06
2.75513e-05
7.9421e-06
2.77916e-05
6.24302e-06
2.70537e-05
3.78294e-06
2.50895e-05
9.84476e-07
2.21607e-05
-1.35627e-06
1.88074e-05
-2.74972e-06
1.47334e-05
-3.43805e-06
9.00457e-06
-3.13719e-06
-2.90379e-07
2.59859e-06
-2.36693e-08
-1.53843e-05
4.83141e-07
-1.52758e-05
1.50435e-06
-1.36214e-05
2.99609e-06
-1.1472e-05
4.86998e-06
-9.09404e-06
7.00891e-06
-6.63531e-06
9.31238e-06
-4.17421e-06
1.17277e-05
-1.74981e-06
1.42428e-05
5.96091e-07
1.68612e-05
2.78692e-06
1.9551e-05
4.6869e-06
2.2175e-05
6.10867e-06
2.4511e-05
6.90021e-06
2.63925e-05
7.04214e-06
2.77468e-05
6.58778e-06
2.84368e-05
5.55291e-06
2.82092e-05
4.01057e-06
2.69133e-05
2.28035e-06
2.46894e-05
8.67589e-07
2.17951e-05
1.44611e-07
1.81353e-05
2.21757e-07
1.35765e-05
1.42166e-06
4.36588e-06
8.92022e-06
-1.47774e-07
-1.52365e-05
1.89579e-07
-1.56132e-05
9.60226e-07
-1.43921e-05
2.13794e-06
-1.26497e-05
3.67509e-06
-1.06312e-05
5.50654e-06
-8.46675e-06
7.57054e-06
-6.2382e-06
9.82449e-06
-4.00375e-06
1.22425e-05
-1.82188e-06
1.47993e-05
2.30128e-07
1.74407e-05
2.04547e-06
2.00519e-05
3.4974e-06
2.24689e-05
4.48324e-06
2.45404e-05
4.97058e-06
2.61473e-05
4.98092e-06
2.71457e-05
4.55446e-06
2.73621e-05
3.79421e-06
2.67016e-05
2.9408e-06
2.52332e-05
2.33596e-06
2.31008e-05
2.27694e-06
2.03607e-05
2.96191e-06
1.71501e-05
4.63236e-06
7.49752e-06
1.40184e-05
-3.32402e-07
-1.49042e-05
-1.87055e-07
-1.57587e-05
3.52312e-07
-1.49315e-05
1.25554e-06
-1.35529e-05
2.49557e-06
-1.18712e-05
4.03404e-06
-1.00052e-05
5.83181e-06
-8.03596e-06
7.85503e-06
-6.02697e-06
1.00732e-05
-4.04006e-06
1.24494e-05
-2.14605e-06
1.49238e-05
-4.28948e-07
1.73993e-05
1.02193e-06
1.97472e-05
2.13531e-06
2.18359e-05
2.88198e-06
2.35425e-05
3.27427e-06
2.47392e-05
3.3578e-06
2.53011e-05
3.23228e-06
2.51621e-05
3.07984e-06
2.43556e-05
3.14243e-06
2.29803e-05
3.65217e-06
2.11472e-05
4.79507e-06
1.90475e-05
6.73203e-06
9.52497e-06
1.702e-05
-5.22483e-07
-1.43818e-05
-5.72117e-07
-1.57092e-05
-2.52166e-07
-1.52515e-05
4.04252e-07
-1.42094e-05
1.37406e-06
-1.2841e-05
2.63407e-06
-1.12652e-05
4.15776e-06
-9.55966e-06
5.91788e-06
-7.7871e-06
7.88426e-06
-6.00644e-06
1.00175e-05
-4.27929e-06
1.22601e-05
-2.67154e-06
1.45298e-05
-1.2477e-06
1.67228e-05
-5.76625e-08
1.87279e-05
8.77014e-07
2.04352e-05
1.56704e-06
2.1737e-05
2.056e-06
2.2539e-05
2.43027e-06
2.27899e-05
2.8289e-06
2.25037e-05
3.42854e-06
2.17491e-05
4.40677e-06
2.06305e-05
5.91371e-06
1.93063e-05
8.05628e-06
1.08497e-05
1.79816e-05
-6.85231e-07
-1.36966e-05
-9.16289e-07
-1.54782e-05
-7.99829e-07
-1.5368e-05
-3.71635e-07
-1.46376e-05
3.49497e-07
-1.35622e-05
1.34582e-06
-1.22616e-05
2.59843e-06
-1.08123e-05
4.0851e-06
-9.2738e-06
5.77826e-06
-7.69962e-06
7.64075e-06
-6.14179e-06
9.62095e-06
-4.65171e-06
1.16496e-05
-3.27629e-06
1.36422e-05
-2.05014e-06
1.55064e-05
-9.8705e-07
1.7149e-05
-7.55444e-08
1.84812e-05
7.23846e-07
1.94279e-05
1.48355e-06
1.99448e-05
2.31191e-06
2.00315e-05
3.34183e-06
1.97278e-05
4.71046e-06
1.91049e-05
6.53668e-06
1.82623e-05
8.89891e-06
1.18076e-05
1.73044e-05
-8.05017e-07
-1.28917e-05
-1.19246e-06
-1.50908e-05
-1.259e-06
-1.53015e-05
-1.03854e-06
-1.48581e-05
-5.4744e-07
-1.40533e-05
2.0122e-07
-1.30103e-05
1.19277e-06
-1.18039e-05
2.40915e-06
-1.04902e-05
3.82628e-06
-9.11679e-06
5.41131e-06
-7.72683e-06
7.11978e-06
-6.36011e-06
8.89412e-06
-5.05052e-06
1.06654e-05
-3.82126e-06
1.23577e-05
-2.67933e-06
1.3894e-05
-1.61171e-06
1.52002e-05
-5.82445e-07
1.62147e-05
4.69021e-07
1.68947e-05
1.63185e-06
1.72269e-05
3.00958e-06
1.72234e-05
4.71404e-06
1.69148e-05
6.84531e-06
1.63406e-05
9.47322e-06
1.26237e-05
1.55247e-05
-8.77486e-07
-1.20142e-05
-1.3898e-06
-1.45785e-05
-1.61445e-06
-1.50769e-05
-1.57948e-06
-1.48931e-05
-1.29765e-06
-1.43353e-05
-7.78415e-07
-1.35296e-05
-3.25267e-08
-1.25499e-05
9.25456e-07
-1.14483e-05
2.07529e-06
-1.02667e-05
3.38919e-06
-9.04071e-06
4.82996e-06
-7.80081e-06
6.35045e-06
-6.57089e-06
7.89471e-06
-5.3654e-06
9.40106e-06
-4.18561e-06
1.08059e-05
-3.01654e-06
1.20479e-05
-1.82451e-06
1.30723e-05
-5.55455e-07
1.38389e-05
8.65294e-07
1.43211e-05
2.52739e-06
1.45067e-05
4.52852e-06
1.43893e-05
6.96283e-06
1.39563e-05
9.90625e-06
1.3411e-05
1.31691e-05
-9.05474e-07
-1.11088e-05
-1.50911e-06
-1.39749e-05
-1.86418e-06
-1.47218e-05
-1.98997e-06
-1.47674e-05
-1.89442e-06
-1.44309e-05
-1.58318e-06
-1.3841e-05
-1.06348e-06
-1.30697e-05
-3.46248e-07
-1.21656e-05
5.52362e-07
-1.11653e-05
1.60961e-06
-1.00979e-05
2.79524e-06
-8.98636e-06
4.07122e-06
-7.84679e-06
5.39267e-06
-6.68679e-06
6.70985e-06
-5.50276e-06
7.97074e-06
-4.27746e-06
9.12397e-06
-2.97781e-06
1.01217e-05
-1.55326e-06
1.09227e-05
6.43672e-08
1.14917e-05
1.9584e-06
1.17973e-05
4.22305e-06
1.18037e-05
6.95658e-06
1.14592e-05
1.02508e-05
1.419e-05
1.06802e-05
-8.96132e-07
-1.02126e-05
-1.55895e-06
-1.33121e-05
-2.01601e-06
-1.42648e-05
-2.27627e-06
-1.45072e-05
-2.342e-06
-1.43653e-05
-2.21483e-06
-1.39682e-05
-1.89843e-06
-1.33861e-05
-1.40017e-06
-1.26639e-05
-7.32101e-07
-1.18334e-05
8.80286e-08
-1.0918e-05
1.03635e-06
-9.93462e-06
2.08288e-06
-8.89327e-06
3.19221e-06
-7.7961e-06
4.32482e-06
-6.63539e-06
5.43873e-06
-5.39142e-06
6.49122e-06
-4.03034e-06
7.44032e-06
-2.50234e-06
8.24534e-06
-7.40636e-07
8.86568e-06
1.33809e-06
9.25697e-06
3.83183e-06
9.3637e-06
6.84995e-06
9.10875e-06
1.05058e-05
1.49173e-05
8.3814e-06
-8.58782e-07
-9.35383e-06
-1.55251e-06
-1.26183e-05
-2.08423e-06
-1.37332e-05
-2.45239e-06
-1.41391e-05
-2.65337e-06
-1.41643e-05
-2.68466e-06
-1.3937e-05
-2.54648e-06
-1.35244e-05
-2.24271e-06
-1.29678e-05
-1.78153e-06
-1.22946e-05
-1.17594e-06
-1.15236e-05
-4.43948e-07
-1.06666e-05
3.91611e-07
-9.72884e-06
1.30361e-06
-8.70814e-06
2.26146e-06
-7.59329e-06
3.23209e-06
-6.3621e-06
4.18076e-06
-4.97906e-06
5.0714e-06
-3.39303e-06
5.866e-06
-1.53526e-06
6.52233e-06
6.81809e-07
6.98965e-06
3.36458e-06
7.20214e-06
6.6375e-06
7.07005e-06
1.06379e-05
1.55159e-05
6.47143e-06
-8.03243e-07
-8.5506e-06
-1.50489e-06
-1.19167e-05
-2.08653e-06
-1.31516e-05
-2.5371e-06
-1.36886e-05
-2.84742e-06
-1.3854e-05
-3.01105e-06
-1.37733e-05
-3.02498e-06
-1.35105e-05
-2.88987e-06
-1.31029e-05
-2.61033e-06
-1.25742e-05
-2.19506e-06
-1.19389e-05
-1.65675e-06
-1.12049e-05
-1.01186e-06
-1.03738e-05
-2.80164e-07
-9.43991e-06
5.15771e-07
-8.38928e-06
1.35104e-06
-7.1974e-06
2.19862e-06
-5.82665e-06
3.02901e-06
-4.22344e-06
3.8088e-06
-2.3151e-06
4.49791e-06
-7.32442e-09
5.04527e-06
2.81727e-06
5.38308e-06
6.29977e-06
5.41987e-06
1.06012e-05
1.59003e-05
5.03547e-06
-7.38592e-07
-7.81202e-06
-1.43099e-06
-1.12243e-05
-2.04145e-06
-1.25411e-05
-2.55111e-06
-1.31789e-05
-2.94609e-06
-1.3459e-05
-3.21656e-06
-1.35028e-05
-3.35668e-06
-1.33704e-05
-3.36427e-06
-1.30954e-05
-3.24082e-06
-1.26977e-05
-2.9912e-06
-1.21885e-05
-2.62343e-06
-1.15727e-05
-2.14832e-06
-1.0849e-05
-1.57907e-06
-1.00092e-05
-9.30935e-07
-9.03742e-06
-2.2113e-07
-7.90719e-06
5.30995e-07
-6.57881e-06
1.30319e-06
-4.99569e-06
2.06852e-06
-3.08045e-06
2.79224e-06
-7.3104e-07
3.42768e-06
2.18184e-06
3.91177e-06
5.81573e-06
4.15969e-06
1.03533e-05
1.59974e-05
4.06269e-06
-6.72239e-07
-7.13977e-06
-1.34386e-06
-1.05526e-05
-1.96618e-06
-1.19188e-05
-2.51461e-06
-1.26304e-05
-2.97176e-06
-1.30018e-05
-3.3252e-06
-1.31494e-05
-3.56684e-06
-1.31288e-05
-3.69216e-06
-1.29701e-05
-3.70002e-06
-1.26899e-05
-3.59204e-06
-1.22966e-05
-3.37221e-06
-1.17926e-05
-3.04644e-06
-1.11748e-05
-2.62207e-06
-1.04336e-05
-2.10775e-06
-9.55172e-06
-1.51341e-06
-8.5015e-06
-8.5068e-07
-7.24155e-06
-1.33975e-07
-5.71248e-06
6.17513e-07
-3.83201e-06
1.37678e-06
-1.49031e-06
2.1051e-06
1.45356e-06
2.74846e-06
5.17241e-06
3.23423e-06
9.86757e-06
1.57607e-05
3.47096e-06
-6.09378e-07
-6.53036e-06
-1.25366e-06
-9.90826e-06
-1.87511e-06
-1.12972e-05
-2.44547e-06
-1.206e-05
-2.94514e-06
-1.25021e-05
-3.3601e-06
-1.27345e-05
-3.68063e-06
-1.28084e-05
-3.90055e-06
-1.27503e-05
-4.01664e-06
-1.25739e-05
-4.02786e-06
-1.22854e-05
-3.93486e-06
-1.18856e-05
-3.73933e-06
-1.13703e-05
-3.44356e-06
-1.07293e-05
-3.05025e-06
-9.945e-06
-2.56255e-06
-8.98919e-06
-1.98459e-06
-7.81956e-06
-1.32263e-06
-6.3745e-06
-5.87209e-07
-4.56749e-06
2.03862e-07
-2.28142e-06
1.02186e-06
6.35587e-07
1.82421e-06
4.37014e-06
2.55313e-06
9.13873e-06
1.5177e-05
3.13684e-06
-5.52827e-07
-5.97749e-06
-1.16722e-06
-9.29377e-06
-1.779e-06
-1.06854e-05
-2.35804e-06
-1.1481e-05
-2.88381e-06
-1.19763e-05
-3.34166e-06
-1.22767e-05
-3.72109e-06
-1.24291e-05
-4.01492e-06
-1.24565e-05
-4.21846e-06
-1.23704e-05
-4.32865e-06
-1.21752e-05
-4.34349e-06
-1.18708e-05
-4.2612e-06
-1.14526e-05
-4.07976e-06
-1.09108e-05
-3.79667e-06
-1.02281e-05
-3.40895e-06
-9.37692e-06
-2.91364e-06
-8.31495e-06
-2.30895e-06
-6.97926e-06
-1.5965e-06
-5.27997e-06
-7.8422e-07
-3.09369e-06
1.10209e-07
-2.5882e-07
1.05643e-06
3.42395e-06
2.01168e-06
8.18354e-06
1.42651e-05
2.9237e-06
-5.03317e-07
-5.4741e-06
-1.08815e-06
-8.70886e-06
-1.68484e-06
-1.00886e-05
-2.26263e-06
-1.09032e-05
-2.80129e-06
-1.14376e-05
-3.28648e-06
-1.17915e-05
-3.70769e-06
-1.20079e-05
-4.0575e-06
-1.21068e-05
-4.33033e-06
-1.20975e-05
-4.52181e-06
-1.19837e-05
-4.62794e-06
-1.17647e-05
-4.64424e-06
-1.14364e-05
-4.56524e-06
-1.09898e-05
-4.38406e-06
-1.04093e-05
-4.09234e-06
-9.66865e-06
-3.68066e-06
-8.72666e-06
-3.13968e-06
-7.52027e-06
-2.4623e-06
-5.95738e-06
-1.64654e-06
-3.90947e-06
-6.98915e-07
-1.20644e-06
3.62741e-07
2.36229e-06
1.50908e-06
7.0372e-06
1.30699e-05
2.70426e-06
-4.60212e-07
-5.01383e-06
-1.01754e-06
-8.15148e-06
-1.59627e-06
-9.50994e-06
-2.16571e-06
-1.03337e-05
-2.70698e-06
-1.08964e-05
-3.20684e-06
-1.12917e-05
-3.65561e-06
-1.15591e-05
-4.0462e-06
-1.17162e-05
-4.37285e-06
-1.17708e-05
-4.63046e-06
-1.1726e-05
-4.81375e-06
-1.15814e-05
-4.91633e-06
-1.13338e-05
-4.93013e-06
-1.0976e-05
-4.84488e-06
-1.04945e-05
-4.64775e-06
-9.86579e-06
-4.32376e-06
-9.05066e-06
-3.85671e-06
-7.98731e-06
-3.23131e-06
-6.58278e-06
-2.43612e-06
-4.70471e-06
-1.46693e-06
-2.17567e-06
-3.29956e-07
1.2253e-06
9.58228e-07
5.74901e-06
1.16529e-05
2.37526e-06
-4.22426e-07
-4.59137e-06
-9.54927e-07
-7.61895e-06
-1.5143e-06
-8.95067e-06
-2.07043e-06
-9.77758e-06
-2.60645e-06
-1.03604e-05
-3.11088e-06
-1.07872e-05
-3.57557e-06
-1.10943e-05
-3.9943e-06
-1.12974e-05
-4.36168e-06
-1.14034e-05
-4.67254e-06
-1.14152e-05
-4.92095e-06
-1.13331e-05
-5.09942e-06
-1.11554e-05
-5.19823e-06
-1.08772e-05
-5.20468e-06
-1.04881e-05
-5.10262e-06
-9.9678e-06
-4.87254e-06
-9.28071e-06
-4.49239e-06
-8.36746e-06
-3.93949e-06
-7.13573e-06
-3.19349e-06
-5.45078e-06
-2.24006e-06
-3.12916e-06
-1.07414e-06
5.93186e-08
2.99772e-07
4.37505e-06
1.00867e-05
1.86593e-06
-3.89135e-07
-4.20223e-06
-8.99065e-07
-7.1091e-06
-1.4382e-06
-8.41165e-06
-1.9774e-06
-9.23844e-06
-2.50212e-06
-9.83575e-06
-3.00315e-06
-1.02862e-05
-3.4743e-06
-1.06231e-05
-3.91062e-06
-1.0861e-05
-4.30767e-06
-1.10064e-05
-4.66066e-06
-1.10622e-05
-4.96368e-06
-1.10301e-05
-5.20894e-06
-1.09101e-05
-5.38599e-06
-1.07001e-05
-5.48077e-06
-1.03932e-05
-5.47499e-06
-9.97352e-06
-5.34588e-06
-9.40979e-06
-5.06671e-06
-8.64667e-06
-4.6084e-06
-7.59412e-06
-3.94249e-06
-6.11675e-06
-3.04516e-06
-4.02654e-06
-1.90125e-06
-1.08464e-06
-5.06514e-07
2.98025e-06
8.44014e-06
1.14002e-06
-3.59857e-07
-3.84238e-06
-8.48301e-07
-6.62084e-06
-1.36619e-06
-7.89385e-06
-1.88554e-06
-8.71918e-06
-2.39418e-06
-9.3272e-06
-2.88543e-06
-9.79487e-06
-3.35521e-06
-1.01533e-05
-3.80024e-06
-1.04159e-05
-4.21731e-06
-1.05893e-05
-4.60253e-06
-1.0677e-05
-4.95059e-06
-1.0682e-05
-5.2541e-06
-1.06065e-05
-5.50273e-06
-1.04514e-05
-5.68216e-06
-1.02137e-05
-5.77321e-06
-9.88247e-06
-5.75122e-06
-9.43182e-06
-5.58614e-06
-8.81183e-06
-5.24369e-06
-7.93665e-06
-4.68816e-06
-6.67231e-06
-3.88659e-06
-4.82811e-06
-2.81338e-06
-2.15789e-06
-1.45351e-06
1.62034e-06
6.78628e-06
2.00309e-07
-3.33876e-07
-3.50856e-06
-8.00644e-07
-6.15425e-06
-1.29593e-06
-7.39862e-06
-1.79286e-06
-8.22235e-06
-2.2815e-06
-8.83865e-06
-2.75767e-06
-9.31872e-06
-3.21944e-06
-9.69154e-06
-3.66537e-06
-9.97001e-06
-4.09379e-06
-1.01609e-05
-4.50201e-06
-1.02688e-05
-4.88581e-06
-1.02981e-05
-5.23883e-06
-1.02534e-05
-5.55161e-06
-1.01386e-05
-5.81055e-06
-9.95482e-06
-5.99683e-06
-9.69625e-06
-6.0854e-06
-9.34334e-06
-6.04442e-06
-8.85289e-06
-5.83583e-06
-8.14526e-06
-5.41768e-06
-7.09045e-06
-4.7482e-06
-5.4976e-06
-3.79107e-06
-3.11507e-06
-2.52031e-06
3.49526e-07
5.18648e-06
-9.20522e-07
-3.09761e-07
-3.19892e-06
-7.5401e-07
-5.71009e-06
-1.22522e-06
-6.92744e-06
-1.69741e-06
-7.75023e-06
-2.16264e-06
-8.37347e-06
-2.61907e-06
-8.86236e-06
-3.06685e-06
-9.24379e-06
-3.50653e-06
-9.53035e-06
-3.93807e-06
-9.72934e-06
-4.36026e-06
-9.84654e-06
-4.77032e-06
-9.88796e-06
-5.16331e-06
-9.86037e-06
-5.53125e-06
-9.77069e-06
-5.86213e-06
-9.62401e-06
-6.13867e-06
-9.41977e-06
-6.3369e-06
-9.14515e-06
-6.42491e-06
-8.76488e-06
-6.36255e-06
-8.20758e-06
-6.10286e-06
-7.35011e-06
-5.59571e-06
-6.0048e-06
-4.79359e-06
-3.91728e-06
-3.65807e-06
-7.86049e-07
3.69192e-06
-2.16352e-06
-2.86077e-07
-2.91295e-06
-7.07134e-07
-5.28903e-06
-1.15296e-06
-6.48159e-06
-1.59823e-06
-7.30502e-06
-2.03677e-06
-7.93494e-06
-2.46896e-06
-8.43025e-06
-2.89703e-06
-8.81573e-06
-3.32351e-06
-9.10388e-06
-3.75008e-06
-9.30276e-06
-4.1771e-06
-9.41944e-06
-4.60339e-06
-9.46163e-06
-5.02563e-06
-9.43817e-06
-5.43773e-06
-9.35865e-06
-5.82994e-06
-9.23183e-06
-6.18752e-06
-9.06216e-06
-6.48898e-06
-8.84364e-06
-6.70411e-06
-8.5497e-06
-6.7926e-06
-8.11905e-06
-6.70413e-06
-7.43859e-06
-6.38107e-06
-6.32793e-06
-5.76426e-06
-4.53415e-06
-4.80097e-06
-1.74935e-06
2.3431e-06
-3.45212e-06
-2.6331e-07
-2.64966e-06
-6.61246e-07
-4.89102e-06
-1.08051e-06
-6.06229e-06
-1.4963e-06
-6.88926e-06
-1.90446e-06
-7.52683e-06
-2.30756e-06
-8.0272e-06
-2.71001e-06
-8.41326e-06
-3.11628e-06
-8.69762e-06
-3.52968e-06
-8.88935e-06
-3.95213e-06
-8.99696e-06
-4.38396e-06
-9.02983e-06
-4.8235e-06
-8.9987e-06
-5.2667e-06
-8.91547e-06
-5.70647e-06
-8.792e-06
-6.13132e-06
-8.63722e-06
-6.52339e-06
-8.4515e-06
-6.85587e-06
-8.2172e-06
-7.09042e-06
-7.88452e-06
-7.17561e-06
-7.35345e-06
-7.04787e-06
-6.4557e-06
-6.63657e-06
-4.94543e-06
-5.87293e-06
-2.51291e-06
1.17067e-06
-4.70043e-06
-2.45807e-07
-2.4038e-06
-6.21685e-07
-4.51506e-06
-1.01257e-06
-5.67139e-06
-1.39513e-06
-6.50671e-06
-1.76801e-06
-7.15402e-06
-2.13628e-06
-7.65893e-06
-2.50668e-06
-8.04283e-06
-2.88545e-06
-8.31887e-06
-3.27735e-06
-8.49745e-06
-3.68562e-06
-8.58871e-06
-4.11181e-06
-8.6037e-06
-4.55573e-06
-8.55483e-06
-5.01528e-06
-8.45587e-06
-5.48606e-06
-8.32112e-06
-5.96014e-06
-8.16305e-06
-6.42407e-06
-7.98756e-06
-6.85586e-06
-7.78544e-06
-7.22134e-06
-7.51906e-06
-7.47075e-06
-7.10404e-06
-7.53728e-06
-6.38912e-06
-7.34021e-06
-5.14242e-06
-6.79374e-06
-3.05929e-06
1.97553e-07
-5.82055e-06
-2.42301e-07
-2.16143e-06
-5.97954e-07
-4.15936e-06
-9.56943e-07
-5.31242e-06
-1.30039e-06
-6.16323e-06
-1.63114e-06
-6.82328e-06
-1.95754e-06
-7.33244e-06
-2.28874e-06
-7.71161e-06
-2.63247e-06
-7.97517e-06
-2.99457e-06
-8.13538e-06
-3.37911e-06
-8.20424e-06
-3.78843e-06
-8.19445e-06
-4.22338e-06
-8.11987e-06
-4.68351e-06
-7.99566e-06
-5.16678e-06
-7.83775e-06
-5.66872e-06
-7.66108e-06
-6.18049e-06
-7.47581e-06
-6.68588e-06
-7.28006e-06
-7.15689e-06
-7.04802e-06
-7.54848e-06
-6.71239e-06
-7.79438e-06
-6.14317e-06
-7.80699e-06
-5.12977e-06
-7.48469e-06
-3.38156e-06
-5.60039e-07
-6.72708e-06
-2.64751e-07
-1.89665e-06
-6.01887e-07
-3.82221e-06
-9.22934e-07
-4.99138e-06
-1.21853e-06
-5.86758e-06
-1.49802e-06
-6.54372e-06
-1.77412e-06
-7.05623e-06
-2.05836e-06
-7.42738e-06
-2.35954e-06
-7.67406e-06
-2.68394e-06
-7.81104e-06
-3.03574e-06
-7.85249e-06
-3.41746e-06
-7.81275e-06
-3.83044e-06
-7.70684e-06
-4.27526e-06
-7.55078e-06
-4.7517e-06
-7.36129e-06
-5.25817e-06
-7.15465e-06
-5.79019e-06
-6.94381e-06
-6.33757e-06
-6.73263e-06
-6.87976e-06
-6.50573e-06
-7.37932e-06
-6.21278e-06
-7.77489e-06
-5.74759e-06
-7.97724e-06
-4.92741e-06
-7.87296e-06
-3.48583e-06
-1.0933e-06
-7.33969e-06
-3.26029e-07
-1.57062e-06
-6.45533e-07
-3.50274e-06
-9.19062e-07
-4.7178e-06
-1.15471e-06
-5.63188e-06
-1.3716e-06
-6.3267e-06
-1.58797e-06
-6.8398e-06
-1.81751e-06
-7.1979e-06
-2.0693e-06
-7.4223e-06
-2.34912e-06
-7.53123e-06
-2.66036e-06
-7.54123e-06
-3.00494e-06
-7.46812e-06
-3.38401e-06
-7.32772e-06
-3.7985e-06
-7.13628e-06
-4.24926e-06
-6.91057e-06
-4.7368e-06
-6.66714e-06
-5.2602e-06
-6.42036e-06
-5.8148e-06
-6.17792e-06
-6.38771e-06
-5.93274e-06
-6.95091e-06
-5.64957e-06
-7.45226e-06
-5.24626e-06
-7.80744e-06
-4.57222e-06
-7.89852e-06
-3.39475e-06
-1.40541e-06
-7.58641e-06
-4.37092e-07
-1.13352e-06
-7.37838e-07
-3.20205e-06
-9.49846e-07
-4.50574e-06
-1.11004e-06
-5.47164e-06
-1.25154e-06
-6.18506e-06
-1.39896e-06
-6.69235e-06
-1.56727e-06
-7.02959e-06
-1.76457e-06
-7.22496e-06
-1.99478e-06
-7.30095e-06
-2.25946e-06
-7.27647e-06
-2.55913e-06
-7.1684e-06
-2.89408e-06
-6.99277e-06