/*--------------------------------*- C++ -*----------------------------------*\
  =========                 |
  \\      /  F ield         | OpenFOAM: The Open Source CFD Toolbox
   \\    /   O peration     | Website:  https://openfoam.org
    \\  /    A nd           | Version:  9
     \\/     M anipulation  |
\*---------------------------------------------------------------------------*/
FoamFile
{
    format      ascii;
    class       volScalarField;
    location    "0.15";
    object      alpha.water;
}
// * * * * * * * * * * * * * * * * * * * * * * * * * * * * * * * * * * * * * //

dimensions      [0 0 0 0 0 0 0];

internalField   nonuniform List<scalar> 
1935
(
5.0535e-26
5.97435e-27
6.62128e-28
6.87099e-29
6.66432e-30
6.02833e-31
5.07316e-32
3.96099e-33
2.86024e-34
1.90317e-35
1.1618e-36
6.47181e-38
3.26655e-39
1.47885e-40
5.91491e-42
2.15428e-43
8.20976e-45
3.09201e-46
1.07698e-47
3.4754e-49
1.0325e-50
2.81844e-52
7.06474e-54
1.62513e-55
3.42953e-57
6.63926e-59
1.17991e-60
1.94812e-62
2.99801e-64
4.28104e-66
5.99405e-68
8.07582e-70
1.21044e-71
1.69884e-73
2.16624e-75
2.73667e-77
3.98696e-79
6.4045e-81
8.95485e-83
1.12203e-84
1.26965e-86
1.22811e-88
8.02391e-90
4.93795e-27
5.12823e-28
5.39595e-29
5.78926e-30
5.61802e-28
5.62911e-29
5.72241e-30
5.95097e-31
6.0038e-29
5.83229e-30
5.75362e-31
5.81735e-32
6.02489e-30
5.69627e-31
5.47117e-32
5.40178e-33
5.66754e-31
5.23431e-32
4.9131e-33
4.75641e-34
4.98732e-32
4.5168e-33
4.1585e-34
3.9629e-35
4.09655e-33
3.6529e-34
3.31121e-35
3.11861e-36
3.13324e-34
2.76282e-35
2.47557e-36
2.31406e-37
2.22538e-35
1.94967e-36
1.73426e-37
1.61613e-38
1.46313e-36
1.28037e-37
1.13591e-38
1.06038e-39
8.8724e-38
7.80218e-39
6.93966e-40
6.52367e-41
4.94057e-39
4.39721e-40
3.94434e-41
3.7559e-42
2.51248e-40
2.28325e-41
2.07983e-42
2.01952e-43
1.15841e-41
1.08726e-42
1.0142e-43
1.01205e-44
4.78762e-43
4.72069e-44
4.55708e-45
4.71688e-46
1.79175e-44
1.85124e-45
1.87888e-46
2.04022e-47
6.45935e-46
6.66322e-47
7.06143e-48
8.17211e-49
2.38805e-47
2.25543e-48
2.45999e-49
3.02356e-50
8.46079e-49
7.85151e-50
8.08034e-51
1.03285e-51
2.77186e-50
2.61197e-51
2.59319e-52
3.32778e-53
8.45101e-52
8.13391e-53
8.11847e-54
1.0194e-54
2.38092e-53
2.35319e-54
2.3829e-55
2.96074e-56
6.18899e-55
6.32134e-56
6.60874e-57
8.14446e-58
1.48405e-56
1.57728e-57
1.71095e-58
2.1334e-59
3.28212e-58
3.65731e-59
4.13081e-60
5.37485e-61
6.69755e-60
7.88678e-61
9.31074e-62
1.27765e-62
1.27328e-61
1.58343e-62
1.98391e-63
2.94256e-64
2.25441e-63
2.96461e-64
4.01965e-65
6.52627e-66
3.71402e-65
5.2868e-66
7.72183e-67
1.38885e-67
5.7981e-67
9.10705e-68
1.42835e-68
2.82679e-69
8.91914e-69
1.49182e-69
2.75303e-70
5.52176e-71
1.34408e-70
2.67141e-71
5.01306e-72
1.04631e-72
2.20267e-72
4.44379e-73
8.66351e-74
1.90067e-74
3.26595e-74
6.96367e-75
1.4631e-75
3.5466e-76
4.60287e-76
1.06637e-76
2.46553e-77
6.68444e-78
6.47853e-78
1.72836e-78
4.38101e-79
1.24783e-79
1.0381e-79
3.01059e-80
7.96171e-81
2.20991e-81
1.74132e-81
5.01639e-82
1.34631e-82
3.73675e-83
2.59704e-83
7.72763e-84
2.13203e-84
6.04866e-85
3.51417e-85
1.10322e-85
3.19215e-86
9.34118e-87
4.36005e-87
1.46025e-87
4.49193e-88
1.3757e-88
4.70855e-89
1.71957e-89
5.70996e-90
1.85869e-90
2.75197e-90
8.62749e-91
2.57833e-91
7.75992e-92
6.14433e-31
6.2303e-32
6.54519e-33
6.97761e-34
7.31808e-35
7.34609e-36
6.92504e-37
6.0666e-38
4.91696e-39
3.68359e-40
2.55291e-41
1.63945e-42
9.77409e-44
5.41985e-45
2.80019e-46
1.35005e-47
6.08217e-49
2.56338e-50
1.01166e-51
3.74172e-53
1.29786e-54
4.22435e-56
1.29094e-57
3.70586e-59
9.99844e-61
2.53667e-62
6.05485e-64
1.36034e-65
2.87754e-67
5.73064e-69
1.07376e-70
1.88969e-72
3.11284e-74
4.7696e-76
6.72386e-78
8.55841e-80
9.51732e-82
8.70497e-84
5.78601e-86
1.9316e-88
6.09077e-32
5.96056e-33
6.06787e-34
6.26335e-35
6.382e-36
6.24606e-37
5.759e-38
4.94913e-39
3.94458e-40
2.91161e-41
1.99127e-42
1.26351e-43
7.45099e-45
4.09063e-46
2.09419e-47
1.00121e-48
4.47583e-50
1.87299e-51
7.34369e-53
2.69992e-54
9.31414e-56
3.01686e-57
9.17988e-59
2.62569e-60
7.0638e-62
1.78857e-63
4.26522e-65
9.586e-67
2.03157e-68
4.06107e-70
7.65475e-72
1.35874e-73
2.26438e-75
3.52247e-77
5.06149e-79
6.59544e-81
7.54347e-83
7.12907e-85
4.91495e-87
1.69652e-89
5.78358e-33
5.4669e-34
5.35647e-35
5.32964e-36
5.27843e-37
5.03361e-38
4.54232e-39
3.83269e-40
3.0052e-41
2.18585e-42
1.47528e-43
9.24963e-45
5.39544e-46
2.93276e-47
1.48777e-48
7.05352e-50
3.12903e-51
1.30017e-52
5.06483e-54
1.85112e-55
6.3519e-57
2.0476e-58
6.20483e-60
1.76865e-61
4.74559e-63
1.19956e-64
2.85903e-66
6.43086e-68
1.36627e-69
2.74334e-71
5.20633e-73
9.33056e-75
1.57506e-76
2.49104e-78
3.65429e-80
4.8835e-82
5.75555e-84
5.63106e-86
4.03367e-88
1.44032e-90
5.25128e-34
4.8087e-35
4.55062e-36
4.37756e-37
4.18766e-38
3.86657e-39
3.40688e-40
2.81618e-41
2.17095e-42
1.55703e-43
1.03757e-44
6.42915e-46
3.71019e-47
1.99704e-48
1.00403e-49
4.72104e-51
2.07855e-52
8.5772e-54
3.32018e-55
1.20652e-56
4.1187e-58
1.32166e-59
3.98939e-61
1.13354e-62
3.03442e-64
7.66012e-66
1.82551e-67
4.11174e-69
8.76296e-71
1.76878e-72
3.38297e-74
6.12819e-76
1.04922e-77
1.68961e-79
2.53472e-81
3.48032e-83
4.23494e-85
4.29765e-87
3.20404e-89
1.18381e-91
4.5428e-35
4.0446e-36
3.71429e-37
3.46462e-38
3.21162e-39
2.88056e-40
2.46434e-41
1.98001e-42
1.49404e-43
1.05365e-44
6.91951e-46
4.24008e-47
2.42226e-48
1.2915e-49
6.43679e-51
3.00259e-52
1.31234e-53
5.37937e-55
2.0697e-56
7.47989e-58
2.54091e-59
8.11872e-61
2.44177e-62
6.91835e-64
1.8484e-65
4.66205e-67
1.1115e-68
2.50846e-70
5.36675e-72
1.08991e-73
2.103e-75
3.85528e-77
6.7041e-79
1.10099e-80
1.69204e-82
2.39159e-84
3.01056e-86
3.17512e-88
2.46788e-90
9.43705e-93
3.73628e-36
3.24627e-37
2.9023e-38
2.63288e-39
2.37452e-40
2.07468e-41
1.72856e-42
1.35474e-43
9.96697e-45
6.85101e-46
4.40538e-47
2.66176e-48
1.50116e-49
7.92909e-51
3.92016e-52
1.81506e-53
7.87811e-55
3.20888e-56
1.22754e-57
4.41347e-59
1.49242e-60
4.74986e-62
1.42395e-63
4.02469e-65
1.07369e-66
2.7071e-68
6.46063e-70
1.46196e-71
3.14249e-73
6.42731e-75
1.25252e-76
2.32671e-78
4.11546e-80
6.90404e-82
1.08894e-83
1.58749e-85
2.07145e-87
2.2749e-89
1.84653e-91
7.30908e-94
2.91609e-37
2.48085e-38
2.16643e-39
1.91737e-40
1.68677e-41
1.43898e-42
1.17171e-43
8.98439e-45
6.46314e-46
4.3458e-47
2.73468e-48
1.61392e-49
8.91335e-51
4.64673e-52
2.27224e-53
1.04263e-54
4.49711e-56
1.82139e-57
6.93117e-59
2.48021e-60
8.35208e-62
2.64886e-63
7.91878e-65
2.23381e-66
5.95349e-68
1.5014e-69
3.58919e-71
8.14992e-73
1.76161e-74
3.63238e-76
7.15769e-78
1.34918e-79
2.43113e-81
4.17331e-83
6.76809e-85
1.01966e-86
1.38194e-88
1.58337e-90
1.34432e-92
5.50785e-95
2.15598e-38
1.80199e-39
1.54212e-40
1.33548e-41
1.14904e-42
9.59459e-44
7.65196e-45
5.75174e-46
4.05824e-47
2.6779e-48
1.65319e-49
9.5653e-51
5.18522e-52
2.64801e-53
1.26946e-54
5.73768e-56
2.45234e-57
9.85107e-59
3.72654e-60
1.32808e-61
4.45674e-63
1.40932e-64
4.20355e-66
1.1841e-67
3.15461e-69
7.96251e-71
1.90809e-72
4.35128e-74
9.46703e-76
1.97016e-77
3.93063e-79
7.52877e-81
1.38428e-82
2.43585e-84
4.0695e-86
6.34847e-88
8.95412e-90
1.07231e-91
9.53701e-94
4.04305e-96
1.50739e-39
1.242e-40
1.04508e-41
8.88221e-43
7.49461e-44
6.13995e-45
4.80642e-46
3.54909e-47
2.46098e-48
1.5966e-49
9.69396e-51
5.5176e-52
2.94287e-53
1.47702e-54
6.96408e-56
3.09587e-57
1.2994e-58
5.13717e-60
1.92296e-61
6.80807e-63
2.27193e-64
7.15695e-66
2.13139e-67
5.99993e-69
1.59906e-70
4.04284e-72
9.71925e-74
2.22795e-75
4.88418e-77
1.02707e-78
2.0774e-80
4.04947e-82
7.6099e-84
1.37512e-85
2.37116e-87
3.83769e-89
5.64379e-91
7.07663e-93
6.6018e-95
2.89368e-97
9.94943e-41
8.10933e-42
6.73189e-43
5.63249e-44
4.67372e-45
3.76585e-46
2.90005e-47
2.10796e-48
1.43923e-49
9.19744e-51
5.50271e-52
3.08639e-53
1.62284e-54
8.03003e-56
3.73397e-57
1.63637e-58
6.76756e-60
2.63934e-61
9.74057e-63
3.39842e-64
1.12026e-65
3.49992e-67
1.03861e-68
2.91681e-70
7.76855e-72
1.96689e-73
4.74801e-75
1.09522e-76
2.42206e-78
5.15319e-80
1.05823e-81
2.1026e-83
4.04539e-85
7.52049e-87
1.34094e-88
2.25589e-90
3.46532e-92
4.5566e-94
4.46376e-96
2.01993e-98
6.18878e-42
5.00767e-43
4.11543e-44
3.40045e-45
2.78271e-46
2.21079e-47
1.67874e-48
1.2037e-49
8.10827e-51
5.11372e-52
3.02001e-53
1.67209e-54
8.68276e-56
4.24277e-57
1.94894e-58
8.43936e-60
3.44941e-61
1.32999e-62
4.85045e-64
1.67268e-65
5.45676e-67
1.68792e-68
4.95762e-70
1.3809e-71
3.65952e-73
9.25266e-75
2.2405e-76
5.19796e-78
1.15954e-79
2.49708e-81
5.21052e-83
1.05655e-84
2.08437e-86
3.9934e-88
7.3769e-90
1.29251e-91
2.07792e-93
2.87035e-95
2.95682e-97
1.38112e-99
3.62162e-43
2.92001e-44
2.38416e-45
1.95172e-46
1.57975e-47
1.24074e-48
9.31196e-50
6.60088e-51
4.39588e-52
2.74136e-53
1.601e-54
8.76581e-56
4.50275e-57
2.17623e-58
9.89112e-60
4.2389e-61
1.71481e-62
6.54734e-64
2.36518e-65
8.08265e-67
2.61452e-68
8.021e-70
2.33764e-71
6.47137e-73
1.70776e-74
4.30716e-76
1.04203e-77
2.42315e-79
5.43907e-81
1.18371e-82
2.50815e-84
5.19071e-86
1.0507e-87
2.07687e-89
3.98036e-91
7.27538e-93
1.22629e-94
1.7827e-96
1.93457e-98
9.34908e-101
1.99052e-44
1.60535e-45
1.30704e-46
1.06359e-47
8.54057e-49
6.64894e-50
4.94429e-51
3.47267e-52
2.29117e-53
1.41564e-54
8.19118e-56
4.44305e-57
2.26145e-58
1.08284e-59
4.87726e-61
2.07161e-62
8.30652e-64
3.14517e-65
1.12699e-66
3.82156e-68
1.2275e-69
3.74192e-71
1.0845e-72
2.98937e-74
7.86591e-76
1.98127e-77
4.79663e-79
1.11954e-80
2.53109e-82
5.57036e-84
1.19891e-85
2.53259e-87
5.25996e-89
1.0726e-90
2.13238e-92
4.06481e-94
7.18013e-96
1.09799e-97
1.2548e-99
6.27083e-102
1.02588e-45
8.30943e-47
6.77195e-48
5.49657e-49
4.39217e-50
3.3987e-51
2.51041e-52
1.75106e-53
1.14704e-54
7.03601e-56
4.0413e-57
2.17565e-58
1.09917e-59
5.22307e-61
2.33503e-62
9.84463e-64
3.9183e-65
1.47329e-66
5.24312e-68
1.76641e-69
5.64108e-71
1.7108e-72
4.93638e-74
1.35633e-75
3.56288e-77
8.9748e-79
2.17758e-80
5.10772e-82
1.16427e-83
2.59304e-85
5.67191e-87
1.22339e-88
2.60759e-90
5.48605e-92
1.13135e-93
2.24887e-95
4.16204e-97
6.6929e-99
8.05218e-101
4.15716e-103
4.9504e-47
4.04408e-48
3.31213e-49
2.69095e-50
2.14655e-51
1.65564e-52
1.21784e-53
8.45594e-55
5.5116e-56
3.36337e-57
1.92138e-58
1.02855e-59
5.16691e-61
2.44066e-62
1.08475e-63
4.54645e-65
1.79887e-66
6.72592e-68
2.38042e-69
7.97788e-71
2.53604e-72
7.65995e-74
2.20276e-75
6.03914e-77
1.58528e-78
3.99719e-80
9.72783e-82
2.29479e-83
5.27735e-85
1.19018e-86
2.64713e-88
5.83237e-90
1.27617e-91
2.77065e-93
5.92761e-95
1.22872e-96
2.38256e-98
4.02874e-100
5.1022e-102
2.71927e-104
2.23351e-48
1.84846e-49
1.5277e-50
1.24691e-51
9.96132e-53
7.68038e-54
5.64076e-55
3.90806e-56
2.54029e-57
1.54538e-58
8.79775e-60
4.69182e-61
2.34772e-62
1.10428e-63
4.88712e-65
2.0394e-66
8.0335e-68
2.99103e-69
1.05415e-70
3.51903e-72
1.11481e-73
3.35728e-75
9.63222e-77
2.63763e-78
6.92505e-80
1.74924e-81
4.27318e-83
1.0145e-84
2.35529e-86
5.38166e-88
1.21765e-89
2.74152e-91
6.15984e-93
1.38033e-94
3.06404e-96
6.62362e-98
1.34564e-99
2.39245e-101
3.18912e-103
1.75343e-105
9.41028e-50
7.92727e-51
6.63988e-52
5.46482e-53
4.3867e-54
3.39091e-55
2.49317e-56
1.72775e-57
1.12251e-58
6.82195e-60
3.87799e-61
2.06421e-62
1.03069e-63
4.8357e-65
2.13446e-66
8.88199e-68
3.48842e-69
1.29513e-70
4.55145e-72
1.51534e-73
4.78975e-75
1.4398e-76
4.12576e-78
1.12954e-79
2.96875e-81
7.51855e-83
1.84505e-84
4.41145e-86
1.03455e-87
2.39619e-89
5.51766e-91
1.26992e-92
2.93079e-94
6.77991e-96
1.56169e-97
3.52081e-99
7.49374e-101
1.40073e-102
1.96493e-104
1.11378e-106
3.69879e-51
3.18742e-52
2.71796e-53
2.26432e-54
1.83245e-55
1.42432e-56
1.05121e-57
7.30435e-59
4.75401e-60
2.89246e-61
1.64509e-62
8.75663e-64
4.37071e-65
2.0489e-66
9.03449e-68
3.75459e-69
1.47244e-70
5.45869e-72
1.91538e-73
6.36803e-75
2.01067e-76
6.03969e-78
1.73037e-79
4.74097e-81
1.2485e-82
3.17278e-84
7.82735e-86
1.88604e-87
4.47046e-89
1.05012e-90
2.46195e-92
5.79419e-94
1.37385e-95
3.28154e-97
7.84424e-99
1.84437e-100
4.11243e-102
8.08035e-104
1.1926e-105
6.96452e-108
1.35531e-52
1.20116e-53
1.04758e-54
8.86858e-56
7.26011e-57
5.69124e-58
4.2276e-59
2.95264e-60
1.92949e-61
1.17775e-62
6.71525e-64
3.58117e-65
1.78998e-66
8.39831e-68
3.70529e-69
1.5402e-70
6.04008e-72
2.239e-73
7.85451e-75
2.61095e-76
8.24461e-78
2.47745e-79
7.10397e-81
1.94975e-82
5.1491e-84
1.31407e-85
3.26147e-87
7.92491e-89
1.89966e-90
4.52777e-92
1.0812e-93
2.60284e-95
6.34211e-97
1.56435e-98
3.88093e-100
9.51648e-102
2.22269e-103
4.58995e-105
7.1257e-107
4.28423e-109
4.62734e-54
4.24255e-55
3.80247e-56
3.28398e-57
2.72864e-58
2.16361e-59
1.6219e-60
1.14133e-61
7.50534e-63
4.60565e-64
2.63779e-65
1.41197e-66
7.07975e-68
3.33013e-69
1.4724e-70
6.13098e-72
2.40773e-73
8.93646e-75
3.13824e-76
1.0443e-77
3.30164e-79
9.93554e-81
2.85432e-82
7.85482e-84
2.08203e-85
5.34012e-87
1.33437e-88
3.27172e-90
7.93548e-92
1.92002e-93
4.67163e-95
1.15071e-96
2.88191e-98
7.34168e-100
1.89037e-101
4.83406e-103
1.18253e-104
2.56592e-106
4.18877e-108
2.59107e-110
1.47237e-55
1.40562e-56
1.3007e-57
1.15039e-58
9.73351e-60
7.82929e-61
5.93813e-62
4.22024e-63
2.79882e-64
1.73019e-65
9.97283e-67
5.36809e-68
2.70473e-69
1.27756e-70
5.66957e-72
2.36834e-73
9.3271e-75
3.47075e-76
1.22166e-77
4.07446e-79
1.29118e-80
3.89523e-82
1.12225e-83
3.09937e-85
8.25241e-87
2.12888e-88
5.35924e-90
1.32675e-91
3.25782e-93
8.00519e-95
1.98531e-96
5.00491e-98
1.28861e-99
3.39074e-101
9.06155e-103
2.41637e-104
6.18998e-106
1.41097e-107
2.4212e-109
1.53981e-111
4.38771e-57
4.37519e-58
4.19819e-59
3.81647e-60
3.29849e-61
2.6989e-62
2.07623e-63
1.49365e-64
1.00112e-65
6.24691e-67
3.63058e-68
1.96862e-69
9.98402e-71
4.74317e-72
2.11591e-73
8.87984e-75
3.51177e-76
1.31184e-77
4.63389e-79
1.55079e-80
4.93123e-82
1.49289e-83
4.31763e-85
1.19774e-86
3.20608e-88
8.32469e-90
2.11269e-91
5.28389e-93
1.31416e-94
3.28083e-96
8.29615e-98
2.14101e-99
5.66787e-101
1.54059e-102
4.27315e-104
1.18813e-105
3.18666e-107
7.62842e-109
1.37547e-110
8.98714e-113
1.24096e-58
1.28195e-59
1.28143e-60
1.20103e-61
1.06337e-62
8.8731e-64
6.93969e-65
5.06446e-66
3.4375e-67
2.16921e-68
1.27344e-69
6.96764e-71
3.56261e-72
1.70493e-73
7.65649e-75
3.23261e-76
1.28549e-77
4.82663e-79
1.71302e-80
5.75896e-82
1.83944e-83
5.59387e-85
1.62553e-86
4.53329e-88
1.22085e-89
3.19287e-91
8.17403e-93
2.06646e-94
5.20809e-96
1.3215e-97
3.40821e-99
9.0061e-101
2.45173e-102
6.88424e-104
1.98177e-105
5.74473e-107
1.61285e-108
4.05348e-110
7.67639e-112
5.14933e-114
3.37467e-60
3.56233e-61
3.70925e-62
3.59345e-63
3.26724e-64
2.78652e-65
2.22033e-66
1.64699e-67
1.13419e-68
7.25099e-70
4.30699e-71
2.3818e-72
1.22968e-73
5.93674e-75
2.68763e-76
1.14311e-77
4.57669e-79
1.72928e-80
6.17354e-82
2.08718e-83
6.70312e-85
2.0496e-86
5.98964e-88
1.68062e-89
4.55696e-91
1.20118e-92
3.1039e-94
7.93584e-96
2.02763e-97
5.23101e-99
1.37634e-100
3.72464e-102
1.0428e-103
3.02488e-105
9.03686e-107
2.73067e-108
8.02305e-110
2.1162e-111
4.2072e-113
2.89532e-115
8.76229e-62
9.44714e-63
1.02166e-63
1.02529e-64
9.58934e-66
8.3751e-67
6.81118e-68
5.14447e-69
3.60049e-70
2.3358e-71
1.40604e-72
7.87063e-74
4.10895e-75
2.00404e-76
9.15804e-78
3.92886e-79
1.58563e-80
6.03603e-82
2.16993e-83
7.38517e-85
2.3871e-86
7.34548e-88
2.16055e-89
6.10407e-91
1.66755e-92
4.43301e-94
1.15687e-95
2.99275e-97
7.75503e-99
2.03481e-100
5.46319e-102
1.51434e-103
4.3607e-105
1.30673e-106
4.05103e-108
1.27578e-109
3.9217e-111
1.08519e-112
2.26377e-114
1.59708e-116
2.16902e-63
2.40726e-64
2.68899e-65
2.79909e-66
2.69571e-67
2.41455e-68
2.00719e-69
1.54602e-70
1.10132e-71
7.26092e-73
4.4357e-74
2.51688e-75
1.33046e-76
6.56393e-78
3.03162e-79
1.31342e-80
5.34945e-82
2.05381e-83
7.44265e-85
2.55244e-86
8.31097e-88
2.5759e-89
7.63187e-91
2.17262e-92
5.98386e-94
1.60524e-95
4.23288e-97
1.10844e-98
2.91406e-100
7.77867e-102
2.13157e-103
6.05269e-105
1.79273e-106
5.54947e-108
1.78507e-109
5.8578e-111
1.88334e-112
5.46515e-114
1.19557e-115
8.64061e-118
5.13902e-65
5.90921e-66
6.80021e-67
7.338e-68
7.28077e-69
6.69408e-70
5.69453e-71
4.47845e-72
3.25139e-73
2.18129e-74
1.35411e-75
7.79819e-77
4.17915e-78
2.08814e-79
9.75859e-81
4.2743e-82
1.75875e-83
6.81709e-85
2.49263e-86
8.62174e-88
2.8304e-89
8.84299e-91
2.64108e-92
7.58094e-94
2.1063e-95
5.70496e-97
1.52078e-98
4.03278e-100
1.07597e-101
2.92268e-103
8.17561e-105
2.37838e-106
7.24586e-108
2.3169e-109
7.73162e-111
2.64314e-112
8.88525e-114
2.70265e-115
6.19671e-117
4.58444e-119
1.1685e-66
1.39289e-67
1.66036e-68
1.85434e-69
1.89541e-70
1.78943e-71
1.55897e-72
1.25305e-73
9.28142e-75
6.34324e-76
4.00609e-77
2.3442e-78
1.27506e-79
6.45938e-81
3.05771e-82
1.35541e-83
5.63991e-85
2.20912e-86
8.15761e-88
2.84824e-89
9.43473e-91
2.97356e-92
8.95854e-94
2.59441e-95
7.27573e-97
1.99065e-98
5.36673e-100
1.44167e-101
3.90477e-103
1.07954e-104
3.08305e-106
9.18925e-108
2.87954e-109
9.51004e-111
3.29178e-112
1.17203e-113
4.11803e-115
1.31237e-116
3.15182e-118
2.3852e-120
2.55258e-68
3.15639e-69
3.929e-70
4.53369e-71
4.77039e-72
4.62468e-73
4.12822e-74
3.39361e-75
2.56677e-76
1.78875e-77
1.15042e-78
6.84703e-80
3.78372e-81
1.94536e-82
9.33695e-84
4.19263e-85
1.76582e-86
6.9955e-88
2.611e-89
9.20956e-91
3.0804e-92
9.80049e-94
2.9803e-95
8.71294e-97
2.46753e-98
6.82281e-100
1.86099e-101
5.06584e-103
1.39321e-104
3.92099e-106
1.14336e-107
3.49166e-109
1.12536e-110
3.8383e-112
1.3778e-113
5.10774e-115
1.87507e-116
6.25776e-118
1.57319e-119
1.21693e-121
5.36117e-70
6.99601e-71
9.04636e-72
1.07576e-72
1.16388e-73
1.15857e-74
1.05985e-75
8.9154e-77
6.89038e-78
4.9002e-79
3.21213e-80
1.94624e-81
1.09366e-82
5.71184e-84
2.78202e-85
1.26654e-86
5.40375e-88
2.16689e-89
8.18088e-91
2.91714e-92
9.85893e-94
3.16836e-95
9.73072e-97
2.87327e-98
8.22111e-100
2.29818e-101
6.34416e-103
1.75044e-104
4.88918e-106
1.4009e-107
4.17123e-109
1.30515e-110
4.32612e-112
1.5236e-113
5.67049e-115
2.18809e-116
8.38913e-118
2.93042e-119
7.70657e-121
6.08919e-123
1.08139e-71
1.51123e-72
2.0326e-73
2.48312e-74
2.76029e-75
2.82011e-76
2.64398e-77
2.27677e-78
1.79903e-79
1.3065e-80
8.73543e-82
5.39244e-83
3.08381e-84
1.63734e-85
8.09919e-87
3.74124e-88
1.61819e-89
6.57282e-91
2.5118e-92
9.06043e-94
3.09589e-95
1.00553e-96
3.12052e-98
9.31069e-100
2.69256e-101
7.61237e-103
2.12738e-104
5.95087e-106
1.68833e-107
4.92555e-109
1.49759e-110
4.80083e-112
1.6364e-113
5.94987e-115
2.29535e-116
9.2162e-118
3.6888e-119
1.34796e-120
3.70583e-122
2.98873e-124
2.17868e-73
3.19545e-74
4.45813e-75
5.58389e-76
6.377e-77
6.6835e-78
6.42266e-79
5.66328e-80
4.57734e-81
3.39656e-82
2.31789e-83
1.45878e-84
8.49602e-86
4.58916e-87
2.30708e-88
1.08206e-89
4.74783e-91
1.95466e-92
7.56557e-94
2.76223e-95
9.54757e-97
3.13563e-98
9.83725e-100
2.96705e-101
8.67535e-103
2.48125e-104
7.02155e-106
1.99161e-107
5.74004e-109
1.70515e-110
5.29391e-112
1.73857e-113
6.09308e-115
2.28671e-116
9.14165e-118
3.81796e-119
1.59461e-120
6.09243e-122
1.74973e-123
1.43937e-125
4.33265e-75
6.67752e-76
9.53519e-77
1.22518e-77
1.43714e-78
1.54488e-79
1.52206e-80
1.37471e-81
1.13704e-82
8.62564e-84
6.01147e-85
3.85961e-86
2.2907e-87
1.25959e-88
6.43954e-90
3.06848e-91
1.36664e-92
5.70601e-94
2.23808e-95
8.27504e-97
2.89469e-98
9.61714e-100
3.05128e-101
9.30628e-103
2.75198e-104
7.96458e-106
2.28267e-107
6.56607e-109
1.92257e-110
5.81544e-112
1.84352e-113
6.20164e-115
2.23433e-116
8.65317e-118
3.58368e-119
1.55625e-120
6.7794e-122
2.70662e-123
8.1147e-125
6.80423e-127
8.60412e-77
1.36238e-77
1.98782e-78
2.62687e-79
3.16261e-80
3.48874e-81
3.52477e-82
3.26218e-83
2.76249e-84
2.14353e-85
1.5265e-86
1.0004e-87
6.05406e-89
3.3908e-90
1.76387e-91
8.54382e-93
3.86454e-94
1.63717e-95
6.51053e-97
2.43881e-98
8.63748e-100
2.90406e-101
9.32123e-103
2.87565e-104
8.60236e-106
2.51973e-107
7.315e-109
2.13404e-110
6.34828e-112
1.95522e-113
6.32812e-115
2.18029e-116
8.07352e-118
3.22573e-119
1.38351e-120
6.24453e-122
2.83594e-123
1.18245e-124
3.69814e-126
3.15871e-128
1.66157e-78
2.69579e-79
4.05053e-80
5.50188e-81
6.80418e-82
7.70726e-83
7.98854e-84
7.57996e-85
6.57528e-86
5.22146e-87
3.80166e-88
2.54446e-89
1.57089e-90
8.96645e-92
4.74831e-93
2.33913e-94
1.07501e-95
4.62291e-97
1.86466e-98
7.07934e-100
2.53941e-101
8.643e-103
2.80729e-104
8.76238e-106
2.65216e-107
7.86357e-109
2.31261e-110
6.84287e-112
2.06806e-113
6.48505e-115
2.14266e-116
7.55954e-118
2.87641e-119
1.1853e-120
5.26291e-122
2.46794e-123
1.16789e-124
5.08261e-126
1.65703e-127
1.44079e-129
3.08802e-80
5.19849e-81
8.0517e-82
1.12604e-82
1.43254e-83
1.66741e-84
1.77432e-85
1.72717e-86
1.53565e-87
1.24871e-88
9.30018e-90
6.36038e-91
4.00801e-92
2.33254e-93
1.25805e-94
6.30567e-96
2.94565e-97
1.28634e-98
5.26448e-100
2.0264e-101
7.36415e-103
2.53797e-104
8.34383e-106
2.63545e-107
8.07228e-109
2.42297e-110
7.21907e-112
2.16655e-113
6.65189e-115
2.12356e-116
7.16142e-118
2.58677e-119
1.01113e-120
4.29592e-122
1.97396e-123
9.61272e-125
4.73771e-126
2.15077e-127
7.30418e-129
6.46137e-131
5.55175e-82
9.74229e-83
1.56094e-83
2.25319e-84
2.95307e-85
3.53602e-86
3.86666e-87
3.86431e-88
3.52393e-89
2.93594e-90
2.23803e-91
1.56476e-92
1.00692e-93
5.97746e-95
3.28486e-96
1.67586e-97
7.96042e-99
3.53125e-100
1.46684e-101
5.72597e-103
2.10871e-104
7.3606e-106
2.44981e-107
7.83152e-109
2.42774e-110
7.3777e-112
2.227e-113
6.77876e-115
2.11423e-116
6.87054e-118
2.36454e-119
8.74221e-121
3.50946e-122
1.5368e-123
7.30486e-125
3.69252e-126
1.89441e-127
8.96568e-129
3.16947e-130
2.85087e-132
9.64753e-84
1.77313e-84
2.95062e-85
4.40774e-86
5.96287e-87
7.35607e-88
8.27499e-89
8.49791e-90
7.95388e-91
6.79398e-92
5.30369e-93
3.79292e-94
2.49363e-95
1.51064e-96
8.46185e-98
4.39577e-99
2.12386e-100
9.5735e-102
4.0374e-103
1.59873e-104
5.96779e-106
2.11022e-107
7.11151e-109
2.30121e-110
7.22056e-112
2.2217e-113
6.79453e-115
2.0976e-116
6.64535e-118
2.19797e-119
7.71831e-121
2.9202e-122
1.20358e-123
5.43036e-125
2.66903e-126
1.39979e-127
7.47155e-129
3.6842e-130
1.35478e-131
1.23843e-133
1.6172e-85
3.13076e-86
5.43428e-87
8.42799e-88
1.17956e-88
1.50162e-89
1.7398e-90
1.83765e-91
1.76678e-92
1.54828e-93
1.23852e-94
9.06458e-96
6.09155e-97
3.76754e-98
2.15199e-99
1.13872e-100
5.59815e-102
2.56491e-103
1.0985e-104
4.41354e-106
1.67027e-107
5.98419e-109
2.04232e-110
6.69044e-112
2.12507e-113
6.62083e-115
2.05152e-116
6.42343e-118
2.06694e-119
6.95744e-121
2.49244e-122
9.64796e-124
4.08149e-125
1.89668e-126
9.63539e-128
5.24039e-129
2.90849e-130
1.49334e-131
5.70828e-133
5.30045e-135
2.61201e-87
5.35654e-88
9.74368e-89
1.57403e-89
2.28444e-90
3.00616e-91
3.5919e-92
3.90624e-93
3.86107e-94
3.47396e-95
2.84951e-96
2.13561e-97
1.46777e-98
9.2726e-100
5.4032e-101
2.91349e-102
1.45791e-103
6.79178e-105
2.95487e-106
1.2049e-107
4.624e-109
1.67892e-110
5.80381e-112
1.92508e-113
6.19054e-115
1.95315e-116
6.13217e-118
1.94736e-119
6.36457e-121
2.18013e-122
7.96679e-124
3.15456e-125
1.36942e-126
6.55228e-128
3.43906e-129
1.93867e-130
1.11818e-131
5.97419e-133
2.37217e-134
2.23688e-136
4.06197e-89
8.86766e-90
1.69757e-90
2.86533e-91
4.32253e-92
5.89034e-93
7.26843e-94
8.148e-95
8.28813e-96
7.66306e-97
6.45028e-98
4.95383e-99
3.4843e-100
2.24969e-101
1.33804e-102
7.35571e-104
3.74819e-105
1.77612e-106
7.85259e-108
3.25082e-109
1.26549e-110
4.65786e-112
1.63132e-113
5.47992e-115
1.78443e-116
5.70228e-118
1.81429e-119
5.84422e-121
1.94018e-122
6.76337e-124
2.52106e-125
1.02106e-126
4.54774e-128
2.23988e-129
1.21419e-130
7.09103e-132
4.24769e-133
2.35982e-134
9.72607e-136
9.11909e-138
5.89646e-91
1.3811e-91
2.80248e-92
4.97178e-93
7.83447e-94
1.11033e-94
1.42027e-95
1.64672e-96
1.72896e-97
1.64716e-98
1.42627e-99
1.12491e-100
8.11297e-102
5.36309e-103
3.26095e-104
1.82975e-105
9.50338e-107
4.58435e-108
2.06094e-109
8.66649e-111
3.42388e-112
1.27809e-113
4.53692e-115
1.54404e-116
5.09307e-118
1.64898e-119
5.31845e-121
1.73827e-122
5.86331e-124
2.08054e-125
7.91243e-127
3.27835e-128
1.49828e-129
7.5963e-131
4.25235e-132
2.57219e-133
1.59955e-134
9.23392e-136
3.94645e-137
2.5804e-139
1.85519e-92
3.81817e-93
6.94083e-94
1.12632e-94
1.64704e-95
2.17766e-96
2.61165e-97
2.84219e-98
2.81317e-99
2.53933e-100
2.09647e-101
1.58812e-102
1.10638e-103
7.10922e-105
4.22494e-106
2.36822e-107
1.23818e-108
6.03479e-110
2.76045e-111
1.18107e-112
4.74348e-114
1.7988e-115
6.48657e-117
2.24144e-118
7.50519e-120
2.46678e-121
8.07975e-123
2.68389e-124
9.21221e-126
3.33221e-127
1.29473e-128
5.49802e-130
2.5829e-131
1.35024e-132
7.82056e-134
4.90133e-135
3.16064e-136
1.89286e-137
8.40144e-139
2.4629e-139
)
;

boundaryField
{
    leftWall
    {
        type            zeroGradient;
    }
    rightWall
    {
        type            zeroGradient;
    }
    lowerWall
    {
        type            zeroGradient;
    }
    atmosphere
    {
        type            inletOutlet;
        inletValue      uniform 0;
        value           nonuniform List<scalar> 
45
(
8.02391e-90
2.75197e-90
8.62749e-91
2.57833e-91
7.75992e-92
1.85519e-92
3.81817e-93
6.94083e-94
1.12632e-94
1.64704e-95
2.17766e-96
2.61165e-97
2.84219e-98
2.81317e-99
2.53933e-100
2.09647e-101
1.58812e-102
1.10638e-103
7.10922e-105
4.22494e-106
2.36822e-107
1.23818e-108
6.03479e-110
2.76045e-111
1.18107e-112
4.74348e-114
1.7988e-115
6.48657e-117
2.24144e-118
7.50519e-120
2.46678e-121
8.07975e-123
2.68389e-124
9.21221e-126
3.33221e-127
1.29473e-128
5.49802e-130
2.5829e-131
1.35024e-132
7.82056e-134
4.90133e-135
3.16064e-136
1.89286e-137
8.40144e-139
2.4629e-139
)
;
    }
    defaultFaces
    {
        type            empty;
    }
    procBoundary3to1
    {
        type            processor;
        value           nonuniform List<scalar> 
45
(
4.00895e-25
4.08069e-26
4.4057e-27
4.81593e-28
5.33608e-29
5.87071e-30
6.12096e-31
6.65575e-32
7.34721e-33
7.95511e-34
8.20618e-35
7.91504e-36
7.06976e-37
5.82682e-38
4.43001e-39
3.11085e-40
2.02159e-41
1.21831e-42
6.82259e-44
3.55695e-45
1.72924e-46
7.85043e-48
3.33209e-49
1.32362e-50
4.92489e-52
1.71759e-53
5.61811e-55
1.72437e-56
4.96864e-58
1.34463e-59
3.41896e-61
8.17084e-63
1.83582e-64
3.87792e-66
7.6989e-68
1.4351e-69
2.50643e-71
4.08567e-73
6.17436e-75
8.55258e-77
1.06519e-78
1.15386e-80
1.02341e-82
6.57075e-85
2.12382e-87
)
;
    }
    procBoundary3to2
    {
        type            processor;
        value           nonuniform List<scalar> 
43
(
5.25687e-25
6.4605e-26
7.41803e-27
7.94689e-28
7.92813e-29
7.3485e-30
6.31105e-31
5.00636e-32
3.65492e-33
2.44501e-34
1.49077e-35
8.22773e-37
4.07156e-38
1.77635e-39
6.85997e-41
2.63121e-42
1.04225e-43
3.87399e-45
1.32734e-46
4.17009e-48
1.1989e-49
3.1512e-51
7.56465e-53
1.65716e-54
3.3108e-56
6.03074e-58
1.00189e-59
1.51987e-61
2.16441e-63
2.85028e-65
3.62622e-67
4.51594e-69
6.28522e-71
8.15423e-73
9.39926e-75
1.07356e-76
1.51446e-78
2.26178e-80
2.83492e-82
3.12743e-84
3.05585e-86
2.50484e-88
2.2342e-89
)
;
    }
}


// ************************************************************************* //
