/*--------------------------------*- C++ -*----------------------------------*\
  =========                 |
  \\      /  F ield         | OpenFOAM: The Open Source CFD Toolbox
   \\    /   O peration     | Website:  https://openfoam.org
    \\  /    A nd           | Version:  9
     \\/     M anipulation  |
\*---------------------------------------------------------------------------*/
FoamFile
{
    format      ascii;
    class       volScalarField;
    location    "0.15";
    object      epsilon;
}
// * * * * * * * * * * * * * * * * * * * * * * * * * * * * * * * * * * * * * //

dimensions      [0 2 -3 0 0 0 0];

internalField   nonuniform List<scalar> 
1935
(
0.0923402
0.091971
0.091624
0.0912865
0.0909464
0.0905926
0.0902152
0.0898056
0.0893575
0.0888671
0.0883337
0.0877596
0.0871504
0.086514
0.0858605
0.0852011
0.0845472
0.0839095
0.0832975
0.0827188
0.0821786
0.0816805
0.0812257
0.0808142
0.0804445
0.0801144
0.0798211
0.0795619
0.0793338
0.0791343
0.0789611
0.0788124
0.0786873
0.0785852
0.0785066
0.0784527
0.0784258
0.0784282
0.0784617
0.0785245
0.0786063
0.0786816
0.0787168
0.0907641
0.0893549
0.0880693
0.086916
0.0903658
0.0889415
0.087652
0.0865031
0.0899927
0.0885561
0.0872652
0.0861222
0.0896332
0.0881882
0.0868991
0.0857643
0.0892771
0.0878288
0.0865456
0.0854221
0.0889152
0.0874701
0.0861977
0.0850892
0.0885394
0.0871051
0.0858497
0.0847608
0.0881431
0.0867287
0.085497
0.0844326
0.0877215
0.0863367
0.0851362
0.084102
0.0872716
0.085927
0.0847654
0.0837669
0.086793
0.0854989
0.0843839
0.0834267
0.0862874
0.0850537
0.0839923
0.0830817
0.0857588
0.0845941
0.0835927
0.082733
0.0852131
0.0841244
0.0831879
0.0823828
0.0846577
0.08365
0.0827818
0.0820336
0.0841006
0.0831767
0.0823786
0.0816885
0.0835502
0.0827105
0.0819828
0.0813507
0.0830143
0.0822574
0.0815984
0.0810231
0.0825
0.0818223
0.0812293
0.0807085
0.0820128
0.0814096
0.0808786
0.0804092
0.0815568
0.0810222
0.0805486
0.0801271
0.0811346
0.0806623
0.080241
0.0798632
0.0807475
0.0803308
0.0799565
0.0796183
0.0803953
0.0800278
0.0796953
0.0793925
0.0800772
0.0797527
0.079457
0.0791856
0.0797916
0.0795044
0.0792408
0.0789971
0.0795365
0.0792814
0.0790457
0.0788261
0.0793097
0.0790821
0.0788704
0.0786718
0.079109
0.0789049
0.0787137
0.0785331
0.0789325
0.078748
0.0785743
0.0784092
0.0787782
0.0786102
0.078451
0.0782989
0.0786448
0.07849
0.0783426
0.0782012
0.0785311
0.0783862
0.0782481
0.0781152
0.0784362
0.078298
0.0781661
0.0780395
0.0783597
0.0782242
0.0780955
0.0779725
0.0783015
0.0781636
0.0780343
0.0779122
0.0782614
0.0781148
0.0779802
0.0778556
0.0782386
0.0780751
0.0779297
0.0777989
0.0782314
0.078041
0.0778784
0.0777377
0.0782354
0.0780075
0.0778217
0.077668
0.0782422
0.077969
0.0777565
0.0775885
0.0782397
0.0779223
0.0776855
0.0775055
0.0782222
0.0778772
0.0776264
0.0774403
0.0858456
0.0848792
0.0840455
0.0833155
0.082666
0.0820801
0.0815457
0.0810551
0.0806035
0.080188
0.0798068
0.0794591
0.0791442
0.0788619
0.0786122
0.0783959
0.0782149
0.0780727
0.0779753
0.0779314
0.0779544
0.0780624
0.0782801
0.0786399
0.0791831
0.0799621
0.0810416
0.0825018
0.084441
0.0869808
0.0902727
0.0945089
0.0999392
0.106902
0.115884
0.127673
0.143802
0.16828
0.21762
0.447091
0.0854425
0.0844898
0.0836717
0.0829592
0.0823294
0.0817649
0.0812531
0.0807855
0.0803567
0.0799635
0.0796037
0.079276
0.0789798
0.0787145
0.0784803
0.0782781
0.0781098
0.077979
0.0778919
0.0778575
0.0778892
0.0780054
0.0782311
0.0785987
0.0791499
0.079937
0.0810251
0.0824942
0.0844429
0.0869928
0.0902955
0.0945429
0.0999848
0.106959
0.115951
0.127747
0.143874
0.168329
0.217575
0.446474
0.0850724
0.0841332
0.0833303
0.0826346
0.0820228
0.0814771
0.0809848
0.0805374
0.0801289
0.0797554
0.0794147
0.079105
0.0788256
0.0785759
0.0783559
0.0781666
0.0780099
0.0778898
0.0778124
0.077787
0.0778271
0.0779513
0.0781848
0.0785602
0.0791192
0.0799145
0.0810112
0.0824894
0.0844477
0.0870078
0.0903213
0.09458
0.100033
0.107018
0.11602
0.127823
0.143948
0.168377
0.21752
0.445795
0.0847269
0.0838019
0.0830141
0.0823344
0.0817395
0.0812115
0.0807373
0.080308
0.0799174
0.0795618
0.0792382
0.0789449
0.0786808
0.0784452
0.0782383
0.078061
0.0779153
0.0778051
0.0777369
0.07772
0.0777682
0.0779002
0.0781413
0.0785244
0.0790913
0.0798948
0.0810001
0.0824874
0.0844554
0.0870258
0.0903501
0.0946201
0.100085
0.107081
0.116092
0.1279
0.144021
0.168422
0.217456
0.445066
0.0843992
0.0834898
0.0827176
0.0820538
0.0814752
0.0809638
0.0805065
0.0800942
0.0797204
0.079381
0.079073
0.0787946
0.0785446
0.0783221
0.0781273
0.0779611
0.0778256
0.0777249
0.0776654
0.0776567
0.0777126
0.0778522
0.0781008
0.0784915
0.0790662
0.0798779
0.0809918
0.0824882
0.084466
0.0870467
0.0903817
0.0946629
0.100139
0.107146
0.116166
0.127979
0.144095
0.168466
0.217383
0.444293
0.0840837
0.0831919
0.0824364
0.0817888
0.0812263
0.0807309
0.0802898
0.0798935
0.0795355
0.0792114
0.0789181
0.0786536
0.0784165
0.0782062
0.0780227
0.0778668
0.0777409
0.0776491
0.0775978
0.077597
0.0776604
0.0778074
0.0780633
0.0784615
0.079044
0.0798638
0.0809863
0.0824919
0.0844793
0.0870703
0.0904161
0.0947083
0.100195
0.107212
0.116242
0.128058
0.144168
0.168507
0.217303
0.443483
0.083776
0.0829041
0.0821668
0.0815363
0.0809901
0.0805107
0.0800852
0.0797042
0.0793612
0.0790515
0.0787721
0.0785208
0.078296
0.0780971
0.0779241
0.077778
0.0776612
0.0775777
0.0775344
0.077541
0.0776117
0.0777658
0.0780289
0.0784344
0.0790246
0.0798525
0.0809835
0.0824983
0.0844954
0.0870965
0.0904529
0.094756
0.100254
0.107281
0.116318
0.128138
0.144241
0.168545
0.217215
0.442638
0.0834725
0.0826234
0.0819061
0.0812938
0.0807645
0.0803011
0.079891
0.0795249
0.0791964
0.0789006
0.0786344
0.0783955
0.0781824
0.0779943
0.0778314
0.0776945
0.0775863
0.0775108
0.0774749
0.0774887
0.0775664
0.0777274
0.0779976
0.0784103
0.0790081
0.079844
0.0809835
0.0825073
0.084514
0.0871252
0.0904921
0.0948059
0.100314
0.107351
0.116396
0.128219
0.144313
0.16858
0.21712
0.441761
0.0831706
0.0823474
0.0816523
0.0810595
0.0805478
0.0801008
0.0797061
0.0793547
0.0790402
0.0787578
0.0785042
0.0782772
0.0780752
0.0778975
0.0777441
0.0776161
0.077516
0.0774482
0.0774195
0.0774402
0.0775246
0.0776924
0.0779694
0.0783892
0.0789944
0.0798382
0.0809862
0.0825189
0.0845351
0.0871562
0.0905335
0.0948577
0.100376
0.107423
0.116474
0.128299
0.144384
0.168613
0.217019
0.440852
0.0828687
0.0820746
0.0814039
0.080832
0.0803388
0.0799086
0.0795295
0.0791927
0.0788919
0.0786225
0.0783812
0.0781656
0.0779743
0.0778064
0.0776622
0.0775426
0.0774504
0.0773899
0.0773681
0.0773955
0.0774864
0.0776607
0.0779443
0.0783711
0.0789836
0.0798352
0.0809915
0.0825331
0.0845586
0.0871896
0.0905769
0.0949115
0.10044
0.107495
0.116554
0.12838
0.144456
0.168646
0.216916
0.43991
0.0825659
0.081804
0.08116
0.0806106
0.0801368
0.0797239
0.0793605
0.0790383
0.078751
0.0784943
0.0782648
0.0780602
0.0778792
0.0777208
0.0775853
0.0774738
0.0773891
0.0773356
0.0773206
0.0773544
0.0774517
0.0776324
0.0779226
0.0783562
0.0789759
0.0798351
0.0809995
0.0825498
0.0845845
0.0872252
0.0906226
0.0949672
0.100506
0.10757
0.116635
0.128464
0.144531
0.16869
0.216854
0.439078
0.0822622
0.0815356
0.0809202
0.0803946
0.0799412
0.079546
0.0791986
0.0788909
0.0786171
0.0783728
0.0781548
0.0779609
0.0777897
0.0776404
0.0775132
0.0774095
0.077332
0.0772853
0.0772767
0.0773168
0.0774203
0.0776072
0.0779039
0.0783442
0.078971
0.0798379
0.0810104
0.0825693
0.0846131
0.0872633
0.0906706
0.0950251
0.100573
0.107646
0.116718
0.128549
0.14461
0.168743
0.216815
0.438332
0.0819582
0.0812694
0.0806846
0.080184
0.0797517
0.0793748
0.0790435
0.0787504
0.0784898
0.0782577
0.0780509
0.0778673
0.0777056
0.077565
0.0774459
0.0773496
0.077279
0.0772388
0.0772364
0.0772825
0.077392
0.077585
0.0778879
0.0783349
0.0789688
0.0798431
0.0810236
0.082591
0.0846438
0.0873034
0.0907202
0.0950844
0.100642
0.107723
0.116801
0.128634
0.14469
0.168799
0.216786
0.437607
0.0816554
0.0810064
0.0804535
0.079979
0.0795684
0.0792101
0.0788951
0.0786164
0.078369
0.0781487
0.0779528
0.0777793
0.0776267
0.0774945
0.0773831
0.0772939
0.0772299
0.0771959
0.0771994
0.0772513
0.0773666
0.0775655
0.0778746
0.078328
0.0789687
0.0798503
0.0810387
0.0826144
0.084676
0.0873446
0.0907708
0.0951442
0.100711
0.1078
0.116884
0.128719
0.144769
0.168856
0.216755
0.436879
0.0813554
0.0807476
0.0802277
0.0797799
0.0793914
0.0790519
0.0787532
0.0784889
0.0782543
0.0780458
0.0778605
0.0776965
0.0775527
0.0774286
0.0773246
0.0772422
0.0771845
0.0771564
0.0771657
0.0772231
0.077344
0.0775486
0.0778635
0.0783231
0.0789705
0.0798592
0.0810552
0.0826389
0.084709
0.0873864
0.0908214
0.0952037
0.100778
0.107875
0.116965
0.128802
0.144846
0.168908
0.216718
0.436138
0.0810604
0.0804944
0.0800079
0.0795872
0.079221
0.0789003
0.0786178
0.0783678
0.0781458
0.0779486
0.0777736
0.077619
0.0774836
0.0773672
0.0772702
0.0771943
0.0771426
0.0771202
0.0771349
0.0771977
0.0773238
0.0775338
0.0778545
0.0783201
0.0789739
0.0798694
0.0810726
0.0826641
0.0847422
0.087428
0.0908715
0.0952622
0.100845
0.107948
0.117042
0.128881
0.144918
0.168955
0.216672
0.435384
0.0807724
0.0802483
0.0797951
0.0794014
0.0790575
0.0787555
0.078489
0.0782529
0.0780433
0.0778571
0.077692
0.0775464
0.0774191
0.0773101
0.0772198
0.07715
0.077104
0.0770871
0.0771069
0.0771747
0.0773059
0.0775211
0.0778472
0.0783185
0.0789783
0.0798804
0.0810906
0.0826894
0.0847752
0.0874688
0.0909203
0.0953187
0.100908
0.108018
0.117116
0.128955
0.144985
0.168995
0.216617
0.434621
0.0804937
0.0800106
0.0795903
0.0792232
0.0789012
0.0786176
0.0783668
0.0781443
0.0779467
0.0777712
0.0776156
0.0774785
0.0773591
0.077257
0.0771731
0.0771092
0.0770686
0.0770567
0.0770815
0.0771541
0.0772901
0.0775101
0.0778413
0.078318
0.0789837
0.0798919
0.0811086
0.0827143
0.0848073
0.0875083
0.0909672
0.0953726
0.100969
0.108084
0.117185
0.129023
0.145045
0.169028
0.216552
0.433853
0.0802261
0.0797828
0.0793943
0.0790532
0.0787525
0.0784868
0.0782512
0.0780419
0.0778559
0.0776906
0.0775442
0.0774154
0.0773032
0.0772079
0.07713
0.0770716
0.0770362
0.0770291
0.0770584
0.0771355
0.077276
0.0775006
0.0778366
0.0783184
0.0789895
0.0799035
0.0811263
0.0827384
0.0848381
0.0875459
0.0910114
0.0954233
0.101025
0.108144
0.117249
0.129085
0.145097
0.169052
0.216479
0.433084
0.0799715
0.0795659
0.079208
0.0788917
0.0786116
0.0783631
0.0781422
0.0779457
0.0777708
0.0776153
0.0774777
0.0773566
0.0772515
0.0771624
0.0770903
0.0770371
0.0770064
0.0770038
0.0770374
0.0771187
0.0772634
0.0774924
0.0778329
0.0783194
0.0789955
0.0799148
0.0811433
0.0827613
0.0848671
0.0875811
0.0910527
0.0954702
0.101077
0.1082
0.117306
0.12914
0.145142
0.169067
0.216397
0.432319
0.0797309
0.0793609
0.0790318
0.0787392
0.0784787
0.0782467
0.0780399
0.0778555
0.0776912
0.0775451
0.0774157
0.077302
0.0772035
0.0771204
0.0770536
0.0770054
0.0769792
0.0769808
0.0770184
0.0771037
0.0772522
0.0774852
0.0778298
0.0783207
0.0790014
0.0799256
0.0811592
0.0827827
0.0848939
0.0876134
0.0910903
0.0955128
0.101124
0.10825
0.117356
0.129187
0.145178
0.169074
0.216307
0.431563
0.0795054
0.0791683
0.0788663
0.0785959
0.078354
0.0781376
0.0779441
0.0777713
0.077617
0.0774798
0.0773582
0.0772515
0.0771592
0.0770817
0.07702
0.0769763
0.0769543
0.0769598
0.0770012
0.07709
0.0772422
0.0774788
0.0778271
0.078322
0.0790069
0.0799355
0.0811738
0.082802
0.0849182
0.0876425
0.091124
0.0955506
0.101165
0.108293
0.117399
0.129226
0.145206
0.169073
0.216209
0.43082
0.0792954
0.0789886
0.0787116
0.078462
0.0782374
0.0780357
0.0778548
0.0776928
0.0775481
0.0774192
0.077305
0.0772048
0.0771184
0.0770461
0.076989
0.0769496
0.0769315
0.0769407
0.0769854
0.0770776
0.077233
0.0774729
0.0778247
0.0783231
0.0790118
0.0799444
0.0811868
0.0828192
0.0849396
0.087668
0.0911534
0.0955834
0.1012
0.108329
0.117435
0.129257
0.145225
0.169062
0.216106
0.430095
0.0791011
0.0788219
0.0785678
0.0783374
0.0781289
0.0779409
0.0777718
0.07762
0.0774841
0.077363
0.0772558
0.0771617
0.0770808
0.0770133
0.0769606
0.0769251
0.0769107
0.0769232
0.076971
0.0770662
0.0772246
0.0774675
0.0778223
0.0783239
0.0790159
0.0799519
0.0811978
0.0828339
0.0849578
0.0876897
0.0911782
0.0956108
0.101229
0.108359
0.117462
0.129279
0.145235
0.169044
0.215996
0.429392
0.0789224
0.0786681
0.0784348
0.0782219
0.0780284
0.0778531
0.0776949
0.0775526
0.0774251
0.0773113
0.0772104
0.0771221
0.0770462
0.0769832
0.0769346
0.0769027
0.0768916
0.0769071
0.0769578
0.0770557
0.0772167
0.0774623
0.0778198
0.0783241
0.0790189
0.0799579
0.0812069
0.0828459
0.0849728
0.0877074
0.0911982
0.0956325
0.101252
0.108381
0.117482
0.129293
0.145237
0.169017
0.215882
0.428715
0.0787588
0.0785268
0.0783124
0.0781155
0.0779356
0.0777721
0.077624
0.0774905
0.0773706
0.0772636
0.0771687
0.0770856
0.0770144
0.0769556
0.0769107
0.0768822
0.0768741
0.0768923
0.0769456
0.0770459
0.0772093
0.0774571
0.077817
0.0783237
0.0790209
0.0799623
0.0812137
0.0828551
0.0849843
0.0877209
0.0912133
0.0956486
0.101268
0.108396
0.117494
0.129299
0.14523
0.168982
0.215763
0.428068
0.0786099
0.0783977
0.0782002
0.0780178
0.0778504
0.0776975
0.0775587
0.0774333
0.0773205
0.0772198
0.0771304
0.0770522
0.0769853
0.0769304
0.0768889
0.0768634
0.076858
0.0768787
0.0769343
0.0770367
0.0772021
0.077452
0.0778137
0.0783224
0.0790215
0.0799649
0.0812182
0.0828614
0.0849922
0.0877301
0.0912234
0.0956589
0.101278
0.108404
0.117498
0.129296
0.145214
0.168939
0.215642
0.427455
0.0784748
0.0782802
0.0780979
0.0779285
0.0777723
0.0776292
0.0774989
0.0773809
0.0772747
0.0771796
0.0770953
0.0770216
0.0769587
0.0769072
0.0768688
0.0768461
0.0768432
0.0768662
0.0769237
0.077028
0.0771952
0.0774466
0.07781
0.0783202
0.0790208
0.0799656
0.0812203
0.0828647
0.0849964
0.087735
0.0912284
0.0956633
0.101281
0.108404
0.117494
0.129284
0.14519
0.16889
0.215518
0.42688
0.078353
0.0781738
0.0780049
0.0778472
0.0777011
0.0775668
0.0774442
0.077333
0.0772327
0.0771429
0.0770633
0.0769937
0.0769343
0.0768861
0.0768505
0.0768303
0.0768296
0.0768545
0.0769138
0.0770197
0.0771883
0.0774411
0.0778057
0.078317
0.0790188
0.0799645
0.08122
0.082865
0.0849971
0.0877355
0.0912283
0.095662
0.101277
0.108397
0.117482
0.129265
0.145159
0.168834
0.215393
0.426346
0.0782435
0.0780777
0.0779207
0.0777733
0.0776363
0.07751
0.0773944
0.0772893
0.0771944
0.0771094
0.077034
0.0769681
0.0769121
0.0768667
0.0768337
0.0768157
0.076817
0.0768436
0.0769045
0.0770116
0.0771814
0.0774353
0.0778008
0.0783129
0.0790152
0.0799615
0.0812172
0.0828623
0.0849941
0.0877318
0.0912234
0.0956551
0.101268
0.108383
0.117463
0.129238
0.145119
0.168771
0.215268
0.425856
0.0781455
0.0779914
0.0778447
0.0777065
0.0775776
0.0774584
0.077349
0.0772495
0.0771595
0.0770788
0.0770073
0.0769448
0.0768917
0.076849
0.0768183
0.0768023
0.0768053
0.0768334
0.0768956
0.0770038
0.0771745
0.0774291
0.0777952
0.0783077
0.0790103
0.0799566
0.0812121
0.0828567
0.0849876
0.087724
0.0912137
0.0956427
0.101252
0.108363
0.117436
0.129203
0.145073
0.168704
0.215143
0.425413
0.0780582
0.077914
0.0777762
0.077646
0.0775242
0.0774113
0.0773077
0.0772131
0.0771276
0.0770509
0.0769828
0.0769234
0.076873
0.0768327
0.0768041
0.0767899
0.0767944
0.0768239
0.0768871
0.0769962
0.0771675
0.0774226
0.0777889
0.0783015
0.079004
0.0799499
0.0812047
0.0828483
0.0849778
0.0877122
0.0911993
0.0956252
0.10123
0.108336
0.117403
0.129162
0.14502
0.168632
0.21502
0.42502
0.0779806
0.0778446
0.0777144
0.0775911
0.0774755
0.0773683
0.0772697
0.0771797
0.0770982
0.0770251
0.0769602
0.0769036
0.0768558
0.0768176
0.0767908
0.0767783
0.0767841
0.0768147
0.0768788
0.0769886
0.0771604
0.0774157
0.077782
0.0782944
0.0789963
0.0799414
0.0811951
0.0828372
0.0849647
0.0876967
0.0911807
0.0956026
0.101203
0.108303
0.117363
0.129114
0.144961
0.168555
0.2149
0.424678
0.0779112
0.0777818
0.077658
0.0775406
0.0774306
0.0773284
0.0772344
0.0771485
0.0770708
0.0770009
0.076939
0.076885
0.0768395
0.0768033
0.0767783
0.0767672
0.0767743
0.0768059
0.0768707
0.076981
0.077153
0.0774083
0.0777744
0.0782862
0.0789873
0.0799312
0.0811834
0.0828236
0.0849486
0.0876776
0.091158
0.0955756
0.101171
0.108265
0.117318
0.12906
0.144897
0.168476
0.214783
0.424388
0.0778486
0.0777242
0.0776054
0.0774932
0.077388
0.0772903
0.0772005
0.0771185
0.0770443
0.0769776
0.0769185
0.076867
0.0768237
0.0767894
0.076766
0.0767563
0.0767646
0.076797
0.0768625
0.0769731
0.0771453
0.0774004
0.077766
0.0782771
0.078977
0.0799195
0.0811698
0.0828076
0.0849298
0.0876553
0.0911315
0.0955443
0.101134
0.108222
0.117267
0.129002
0.144829
0.168394
0.214671
0.424151
0.0777904
0.0776693
0.0775546
0.0774466
0.0773458
0.0772524
0.0771666
0.0770884
0.0770176
0.076954
0.0768977
0.0768487
0.0768076
0.0767752
0.0767535
0.0767452
0.0767545
0.0767878
0.0768539
0.0769648
0.077137
0.0773918
0.0777568
0.0782669
0.0789656
0.0799063
0.0811544
0.0827895
0.0849084
0.0876301
0.0911019
0.0955095
0.101093
0.108174
0.117213
0.128939
0.144757
0.16831
0.214564
0.423964
0.0777335
0.0776142
0.0775026
0.0773984
0.0773017
0.0772124
0.0771307
0.0770563
0.0769891
0.0769288
0.0768754
0.076829
0.0767902
0.0767599
0.0767399
0.076733
0.0767436
0.0767778
0.0768445
0.0769557
0.0771279
0.0773824
0.0777467
0.0782557
0.0789529
0.0798916
0.0811373
0.0827695
0.0848849
0.0876024
0.0910694
0.0954715
0.101049
0.108123
0.117154
0.128873
0.144683
0.168226
0.214462
0.423823
0.0776741
0.0775552
0.0774459
0.0773452
0.0772527
0.0771679
0.0770906
0.0770203
0.076957
0.0769003
0.0768502
0.0768067
0.0767705
0.0767424
0.0767244
0.0767192
0.0767311
0.0767663
0.0768337
0.0769454
0.0771176
0.0773718
0.0777354
0.0782433
0.0789389
0.0798756
0.0811188
0.0827478
0.0848596
0.0875728
0.0910348
0.0954312
0.101002
0.10807
0.117093
0.128804
0.144607
0.168143
0.214367
0.42372
0.077608
0.0774883
0.0773811
0.0772842
0.0771962
0.0771163
0.0770439
0.0769785
0.0769196
0.076867
0.0768205
0.0767805
0.0767472
0.0767218
0.076706
0.0767027
0.0767162
0.0767528
0.0768211
0.0769334
0.0771058
0.0773598
0.0777228
0.0782297
0.0789238
0.0798585
0.0810991
0.082725
0.084833
0.0875419
0.0909989
0.0953897
0.100954
0.108015
0.117032
0.128736
0.144532
0.168062
0.214278
0.423639
0.0775318
0.0774109
0.077306
0.0772133
0.0771307
0.0770565
0.0769897
0.0769297
0.0768759
0.076828
0.0767858
0.0767496
0.0767197
0.0766974
0.0766842
0.0766833
0.0766987
0.0767368
0.0768063
0.0769194
0.0770923
0.0773463
0.0777089
0.0782149
0.0789077
0.0798405
0.0810787
0.0827016
0.0848061
0.0875108
0.090963
0.0953484
0.100907
0.107961
0.116972
0.128669
0.14446
0.167985
0.214196
0.423555
0.0774457
0.0773241
0.0772222
0.0771347
0.077058
0.0769901
0.0769296
0.0768756
0.0768273
0.0767845
0.076747
0.076715
0.0766889
0.0766699
0.0766597
0.0766613
0.0766789
0.0767188
0.0767898
0.076904
0.0770776
0.0773318
0.0776943
0.0781997
0.0788913
0.0798226
0.0810587
0.0826789
0.0847802
0.0874811
0.090929
0.0953094
0.100863
0.107912
0.116916
0.128608
0.144395
0.167917
0.214123
0.423424
0.0773581
0.0772371
0.077139
0.0770569
0.0769864
0.0769248
0.0768705
0.0768222
0.0767794
0.0767415
0.0767085
0.0766806
0.0766581
0.0766424
0.0766351
0.0766392
0.076659
0.0767008
0.0767733
0.0768887
0.0770631
0.0773178
0.0776803
0.0781854
0.0788763
0.0798064
0.0810409
0.0826591
0.0847578
0.0874557
0.0908999
0.0952764
0.100825
0.107869
0.116869
0.128558
0.144343
0.167866
0.214075
0.423187
0.0772913
0.077172
0.0770774
0.0769995
0.0769336
0.0768767
0.0768268
0.0767827
0.0767437
0.0767094
0.0766797
0.0766546
0.0766349
0.0766215
0.0766163
0.0766223
0.0766438
0.076687
0.0767607
0.076877
0.0770521
0.0773074
0.0776701
0.0781751
0.0788657
0.0797952
0.0810287
0.0826457
0.0847428
0.0874388
0.0908808
0.0952546
0.100801
0.107841
0.116838
0.128523
0.144305
0.167826
0.214022
0.422751
)
;

boundaryField
{
    leftWall
    {
        type            epsilonWallFunction;
        value           nonuniform List<scalar> 0();
    }
    rightWall
    {
        type            epsilonWallFunction;
        value           nonuniform List<scalar> 
43
(
0.447091
0.446474
0.445795
0.445066
0.444293
0.443483
0.442638
0.441761
0.440852
0.43991
0.439078
0.438332
0.437607
0.436879
0.436138
0.435384
0.434621
0.433853
0.433084
0.432319
0.431563
0.43082
0.430095
0.429392
0.428715
0.428068
0.427455
0.42688
0.426346
0.425856
0.425413
0.42502
0.424678
0.424388
0.424151
0.423964
0.423823
0.42372
0.423639
0.423555
0.423424
0.423187
0.422751
)
;
    }
    lowerWall
    {
        type            epsilonWallFunction;
        value           nonuniform List<scalar> 0();
    }
    atmosphere
    {
        type            inletOutlet;
        inletValue      uniform 0.1;
        value           nonuniform List<scalar> 
45
(
0.0787168
0.0782222
0.0778772
0.0776264
0.0774403
0.0772913
0.077172
0.0770774
0.0769995
0.0769336
0.0768767
0.0768268
0.0767827
0.0767437
0.0767094
0.0766797
0.0766546
0.0766349
0.0766215
0.0766163
0.0766223
0.0766438
0.076687
0.0767607
0.076877
0.0770521
0.0773074
0.0776701
0.0781751
0.0788657
0.0797952
0.0810287
0.0826457
0.0847428
0.0874388
0.0908808
0.0952546
0.100801
0.107841
0.116838
0.128523
0.144305
0.167826
0.214022
0.422751
)
;
    }
    defaultFaces
    {
        type            empty;
    }
    procBoundary3to1
    {
        type            processor;
        value           nonuniform List<scalar> 
45
(
0.0927468
0.0912013
0.089809
0.088529
0.087372
0.0862924
0.085313
0.0844621
0.0837115
0.0830389
0.0824279
0.0818674
0.0813504
0.0808725
0.0804315
0.0800262
0.0796559
0.0793202
0.0790188
0.0787519
0.0785202
0.0783254
0.078171
0.0780625
0.0780088
0.0780226
0.0781221
0.0783317
0.0786835
0.0792188
0.0799897
0.0810608
0.0825121
0.0844419
0.0869716
0.0902529
0.094478
0.0998968
0.106848
0.115819
0.127601
0.14373
0.168229
0.217654
0.447638
)
;
    }
    procBoundary3to2
    {
        type            processor;
        value           nonuniform List<scalar> 
43
(
0.0941253
0.0937982
0.0934917
0.093191
0.0928818
0.09255
0.0921829
0.091769
0.0912995
0.0907691
0.0901765
0.0895245
0.0888205
0.0880752
0.0873023
0.0865172
0.0857355
0.0849718
0.084239
0.0835471
0.0829035
0.0823123
0.0817753
0.081292
0.0808604
0.0804773
0.080139
0.0798416
0.0795814
0.0793551
0.0791599
0.0789938
0.0788558
0.0787459
0.0786657
0.0786188
0.0786107
0.0786489
0.0787419
0.0788947
0.079098
0.0793097
0.0794457
)
;
    }
}


// ************************************************************************* //
