/*--------------------------------*- C++ -*----------------------------------*\
  =========                 |
  \\      /  F ield         | OpenFOAM: The Open Source CFD Toolbox
   \\    /   O peration     | Website:  https://openfoam.org
    \\  /    A nd           | Version:  9
     \\/     M anipulation  |
\*---------------------------------------------------------------------------*/
FoamFile
{
    format      ascii;
    class       volScalarField;
    location    "0.15";
    object      p;
}
// * * * * * * * * * * * * * * * * * * * * * * * * * * * * * * * * * * * * * //

dimensions      [1 -1 -2 0 0 0 0];

internalField   nonuniform List<scalar> 
1935
(
-2.18846
-2.27617
-2.3629
-2.4487
-2.53358
-2.61758
-2.70071
-2.78304
-2.86464
-2.94561
-3.02608
-3.10618
-3.18606
-3.26584
-3.34565
-3.42557
-3.50568
-3.58602
-3.66661
-3.74745
-3.82851
-3.90978
-3.99122
-4.0728
-4.15448
-4.23628
-4.31816
-4.40016
-4.48226
-4.5645
-4.6469
-4.72951
-4.81238
-4.89562
-4.97934
-5.06367
-5.14877
-5.23478
-5.32181
-5.40995
-5.49927
-5.58971
-5.68151
-2.17088
-2.15519
-2.1407
-2.12722
-2.25818
-2.24205
-2.22711
-2.21322
-2.34459
-2.3281
-2.31282
-2.2986
-2.4302
-2.41349
-2.39797
-2.38354
-2.51504
-2.49824
-2.48261
-2.46807
-2.59913
-2.58236
-2.56673
-2.55219
-2.68248
-2.66586
-2.65035
-2.63589
-2.76514
-2.74879
-2.73349
-2.7192
-2.84718
-2.83119
-2.8162
-2.80216
-2.92868
-2.91314
-2.89853
-2.88481
-3.00974
-2.99472
-2.98056
-2.96721
-3.0905
-3.07605
-3.06238
-3.04943
-3.17107
-3.15722
-3.14405
-3.13154
-3.25156
-3.23832
-3.22568
-3.21359
-3.33208
-3.31944
-3.30731
-3.29564
-3.41271
-3.40066
-3.38901
-3.37772
-3.4935
-3.482
-3.47081
-3.45988
-3.57449
-3.5635
-3.55271
-3.54211
-3.65568
-3.64516
-3.63474
-3.62443
-3.73708
-3.72697
-3.71688
-3.70684
-3.81866
-3.80892
-3.79912
-3.78933
-3.90039
-3.89098
-3.88146
-3.87192
-3.98225
-3.97315
-3.9639
-3.95461
-4.06421
-4.05541
-4.04644
-4.03742
-4.14626
-4.13778
-4.12909
-4.12037
-4.22841
-4.22024
-4.21187
-4.20348
-4.31066
-4.30283
-4.29481
-4.28677
-4.39303
-4.38556
-4.37791
-4.37026
-4.47551
-4.46843
-4.46119
-4.45396
-4.55815
-4.55148
-4.54467
-4.5379
-4.64096
-4.63473
-4.62838
-4.62209
-4.72399
-4.71822
-4.71237
-4.70658
-4.8073
-4.80202
-4.79668
-4.79143
-4.89098
-4.88621
-4.88143
-4.87674
-4.97515
-4.97092
-4.9667
-4.9626
-5.05996
-5.05628
-5.05264
-5.04913
-5.14555
-5.14243
-5.13938
-5.13645
-5.23207
-5.22951
-5.22704
-5.22469
-5.31964
-5.31764
-5.31573
-5.31392
-5.40834
-5.40689
-5.40552
-5.40423
-5.49824
-5.49733
-5.49647
-5.49564
-5.58933
-5.58897
-5.5886
-5.58823
-5.6818
-5.68199
-5.68212
-5.68218
-2.11404
-2.10132
-2.0896
-2.07887
-2.0692
-2.06061
-2.05312
-2.04668
-2.0412
-2.03658
-2.0327
-2.02947
-2.02677
-2.02454
-2.02269
-2.02118
-2.01993
-2.01888
-2.01796
-2.01713
-2.01631
-2.01547
-2.01458
-2.01362
-2.01259
-2.01151
-2.01041
-2.0093
-2.00823
-2.00721
-2.00627
-2.00541
-2.00464
-2.00394
-2.00332
-2.00274
-2.0022
-2.00166
-2.00109
-2.00058
-2.19964
-2.18653
-2.17442
-2.1633
-2.15321
-2.14415
-2.13614
-2.12912
-2.12303
-2.11778
-2.11329
-2.10944
-2.10617
-2.1034
-2.10105
-2.09906
-2.09736
-2.0959
-2.09459
-2.09339
-2.09223
-2.09107
-2.08989
-2.08867
-2.08742
-2.08614
-2.08485
-2.08359
-2.08238
-2.08124
-2.08019
-2.07924
-2.07839
-2.07763
-2.07696
-2.07636
-2.07581
-2.07528
-2.07475
-2.07428
-2.28473
-2.27135
-2.25899
-2.24759
-2.23718
-2.22775
-2.21929
-2.21176
-2.20512
-2.1993
-2.19422
-2.18981
-2.18599
-2.18271
-2.17988
-2.17744
-2.17532
-2.17345
-2.17176
-2.1702
-2.16871
-2.16725
-2.16579
-2.16433
-2.16286
-2.1614
-2.15996
-2.15856
-2.15723
-2.15598
-2.15483
-2.15379
-2.15286
-2.15204
-2.15133
-2.1507
-2.15014
-2.14962
-2.14912
-2.14869
-2.36948
-2.35591
-2.34336
-2.33175
-2.32107
-2.31132
-2.30247
-2.2945
-2.28737
-2.28102
-2.27542
-2.27049
-2.26618
-2.26242
-2.25915
-2.25629
-2.25377
-2.25152
-2.24947
-2.24757
-2.24576
-2.24402
-2.2423
-2.24062
-2.23895
-2.23731
-2.23572
-2.23419
-2.23274
-2.23139
-2.23014
-2.22902
-2.22802
-2.22715
-2.22638
-2.22573
-2.22516
-2.22466
-2.2242
-2.22381
-2.4539
-2.44023
-2.42754
-2.41577
-2.40488
-2.39485
-2.38567
-2.3773
-2.36973
-2.36293
-2.35685
-2.35146
-2.3467
-2.34252
-2.33883
-2.33558
-2.33269
-2.33009
-2.32771
-2.32549
-2.32339
-2.32138
-2.31942
-2.31752
-2.31567
-2.31387
-2.31213
-2.31047
-2.30891
-2.30746
-2.30613
-2.30493
-2.30386
-2.30293
-2.30212
-2.30144
-2.30087
-2.30038
-2.29996
-2.29963
-2.538
-2.52428
-2.51153
-2.49965
-2.48859
-2.47834
-2.46886
-2.46015
-2.4522
-2.44499
-2.4385
-2.4327
-2.42754
-2.42297
-2.41891
-2.41531
-2.41207
-2.40915
-2.40645
-2.40394
-2.40158
-2.39932
-2.39714
-2.39504
-2.39301
-2.39106
-2.38919
-2.38741
-2.38574
-2.38419
-2.38277
-2.3815
-2.38036
-2.37938
-2.37854
-2.37784
-2.37726
-2.37679
-2.37641
-2.37612
-2.62177
-2.60809
-2.59533
-2.58338
-2.5722
-2.56176
-2.55204
-2.54304
-2.53475
-2.52719
-2.52034
-2.51418
-2.50867
-2.50376
-2.49937
-2.49544
-2.4919
-2.48867
-2.4857
-2.48293
-2.48031
-2.47782
-2.47545
-2.47316
-2.47097
-2.46888
-2.46688
-2.46499
-2.46322
-2.46158
-2.46008
-2.45873
-2.45753
-2.4565
-2.45563
-2.45491
-2.45433
-2.45388
-2.45354
-2.45329
-2.70522
-2.69164
-2.67892
-2.66696
-2.6557
-2.64511
-2.6352
-2.62595
-2.6174
-2.60954
-2.60238
-2.59592
-2.5901
-2.58488
-2.5802
-2.57598
-2.57216
-2.56867
-2.56544
-2.56242
-2.55959
-2.5569
-2.55433
-2.55189
-2.54955
-2.54732
-2.5452
-2.54321
-2.54134
-2.53961
-2.53803
-2.53661
-2.53536
-2.53428
-2.53338
-2.53264
-2.53207
-2.53164
-2.53133
-2.53113
-2.78839
-2.77497
-2.76234
-2.7504
-2.7391
-2.72841
-2.71834
-2.7089
-2.70012
-2.69202
-2.68461
-2.67788
-2.6718
-2.66633
-2.66139
-2.65692
-2.65285
-2.64912
-2.64566
-2.64243
-2.63939
-2.63652
-2.63379
-2.6312
-2.62872
-2.62637
-2.62415
-2.62205
-2.62009
-2.61828
-2.61663
-2.61515
-2.61384
-2.61272
-2.61179
-2.61104
-2.61047
-2.61006
-2.60979
-2.60963
-2.87131
-2.85809
-2.84559
-2.83371
-2.8224
-2.81165
-2.80146
-2.79187
-2.78292
-2.77463
-2.76702
-2.76008
-2.75379
-2.74809
-2.74294
-2.73825
-2.73397
-2.73002
-2.72636
-2.72295
-2.71973
-2.7167
-2.71382
-2.71109
-2.7085
-2.70604
-2.70371
-2.70152
-2.69948
-2.69759
-2.69587
-2.69433
-2.69297
-2.69182
-2.69086
-2.6901
-2.68953
-2.68915
-2.68891
-2.68878
-2.95402
-2.94105
-2.92871
-2.91692
-2.90563
-2.89484
-2.88458
-2.87489
-2.8658
-2.85737
-2.84961
-2.84251
-2.83605
-2.83018
-2.82484
-2.81997
-2.81551
-2.81138
-2.80755
-2.80397
-2.8006
-2.79742
-2.79442
-2.79157
-2.78887
-2.78631
-2.78389
-2.78161
-2.77949
-2.77753
-2.77575
-2.77415
-2.77275
-2.77156
-2.77058
-2.76981
-2.76925
-2.76888
-2.76868
-2.76858
-3.03659
-3.02387
-3.01172
-3.00004
-2.98879
-2.978
-2.96771
-2.95795
-2.94879
-2.94026
-2.9324
-2.92518
-2.9186
-2.91259
-2.90711
-2.90209
-2.89747
-2.89319
-2.88921
-2.88549
-2.88199
-2.87869
-2.87558
-2.87262
-2.86982
-2.86717
-2.86467
-2.86232
-2.86012
-2.8581
-2.85625
-2.8546
-2.85316
-2.85194
-2.85094
-2.85017
-2.84962
-2.84927
-2.8491
-2.84904
-3.11905
-3.10661
-3.09466
-3.08309
-3.07192
-3.06116
-3.05086
-3.04108
-3.03189
-3.02332
-3.01539
-3.0081
-3.00143
-2.99533
-2.98973
-2.98459
-2.97985
-2.97545
-2.97135
-2.96752
-2.96391
-2.96051
-2.95729
-2.95425
-2.95137
-2.94864
-2.94606
-2.94363
-2.94137
-2.93928
-2.93739
-2.93569
-2.93421
-2.93296
-2.93195
-2.93118
-2.93063
-2.9303
-2.93017
-2.93014
-3.20145
-3.1893
-3.17754
-3.16611
-3.15503
-3.14432
-3.13406
-3.12431
-3.11512
-3.10655
-3.0986
-3.09129
-3.08456
-3.07839
-3.07272
-3.0675
-3.06266
-3.05817
-3.05397
-3.05004
-3.04635
-3.04286
-3.03957
-3.03645
-3.03349
-3.03069
-3.02804
-3.02555
-3.02323
-3.02109
-3.01914
-3.01741
-3.0159
-3.01463
-3.0136
-3.01282
-3.01229
-3.01198
-3.01188
-3.01189
-3.28385
-3.27196
-3.26041
-3.24913
-3.23815
-3.22753
-3.21734
-3.20765
-3.19851
-3.18998
-3.18205
-3.17474
-3.168
-3.1618
-3.15608
-3.1508
-3.1459
-3.14134
-3.13707
-3.13307
-3.12931
-3.12575
-3.12239
-3.11921
-3.11619
-3.11332
-3.11062
-3.10807
-3.1057
-3.10351
-3.10152
-3.09975
-3.09821
-3.09692
-3.09589
-3.09511
-3.09459
-3.0943
-3.09423
-3.09428
-3.36626
-3.35464
-3.34328
-3.33215
-3.32131
-3.3108
-3.30072
-3.29113
-3.28208
-3.27362
-3.26576
-3.25848
-3.25176
-3.24556
-3.23983
-3.23451
-3.22957
-3.22496
-3.22065
-3.2166
-3.21278
-3.20918
-3.20577
-3.20253
-3.19946
-3.19654
-3.19378
-3.19119
-3.18877
-3.18654
-3.18451
-3.18271
-3.18115
-3.17985
-3.17881
-3.17804
-3.17753
-3.17726
-3.17722
-3.1773
-3.44871
-3.43734
-3.42618
-3.41522
-3.40453
-3.39417
-3.38423
-3.37478
-3.36586
-3.35751
-3.34973
-3.34253
-3.33586
-3.32968
-3.32395
-3.31864
-3.31368
-3.30905
-3.30471
-3.30063
-3.29678
-3.29315
-3.28969
-3.28642
-3.2833
-3.28034
-3.27754
-3.2749
-3.27244
-3.27018
-3.26812
-3.2663
-3.26473
-3.26342
-3.26238
-3.26161
-3.26111
-3.26087
-3.26086
-3.26096
-3.53122
-3.52008
-3.50913
-3.49836
-3.48785
-3.47767
-3.46791
-3.45862
-3.44986
-3.44165
-3.434
-3.42689
-3.42029
-3.41417
-3.40848
-3.40318
-3.39823
-3.39361
-3.38926
-3.38517
-3.38131
-3.37765
-3.37417
-3.37086
-3.36771
-3.36472
-3.36188
-3.35921
-3.35672
-3.35443
-3.35235
-3.35051
-3.34893
-3.34761
-3.34658
-3.34582
-3.34533
-3.34511
-3.34513
-3.34526
-3.61379
-3.60289
-3.59216
-3.5816
-3.57129
-3.56132
-3.55177
-3.54269
-3.53411
-3.52608
-3.51857
-3.51158
-3.50508
-3.49904
-3.4934
-3.48815
-3.48324
-3.47863
-3.4743
-3.47022
-3.46635
-3.46268
-3.45919
-3.45586
-3.45269
-3.44967
-3.44681
-3.44412
-3.4416
-3.43929
-3.4372
-3.43535
-3.43376
-3.43245
-3.43141
-3.43067
-3.4302
-3.43
-3.43004
-3.4302
-3.69644
-3.68578
-3.67528
-3.66495
-3.65489
-3.64516
-3.63585
-3.627
-3.61864
-3.6108
-3.60346
-3.59662
-3.59024
-3.58429
-3.57874
-3.57356
-3.5687
-3.56414
-3.55984
-3.55578
-3.55192
-3.54826
-3.54477
-3.54143
-3.53824
-3.53521
-3.53233
-3.52962
-3.52709
-3.52476
-3.52266
-3.52081
-3.51922
-3.51792
-3.51689
-3.51616
-3.51571
-3.51553
-3.51559
-3.51578
-3.77918
-3.76878
-3.75853
-3.74846
-3.73867
-3.72922
-3.72017
-3.71158
-3.70346
-3.69583
-3.68869
-3.68201
-3.67578
-3.66995
-3.66451
-3.65941
-3.65463
-3.65012
-3.64588
-3.64185
-3.63802
-3.63438
-3.63089
-3.62755
-3.62437
-3.62132
-3.61843
-3.61571
-3.61318
-3.61085
-3.60875
-3.6069
-3.60532
-3.60403
-3.60302
-3.6023
-3.60186
-3.6017
-3.60179
-3.602
-3.86202
-3.85189
-3.84192
-3.83216
-3.82266
-3.81351
-3.80476
-3.79645
-3.78859
-3.7812
-3.77427
-3.76778
-3.76171
-3.75603
-3.75071
-3.74572
-3.74103
-3.7366
-3.73242
-3.72845
-3.72466
-3.72104
-3.71757
-3.71425
-3.71106
-3.70802
-3.70513
-3.70242
-3.69988
-3.69756
-3.69547
-3.69363
-3.69206
-3.69078
-3.68979
-3.68909
-3.68867
-3.68853
-3.68863
-3.68886
-3.94499
-3.93516
-3.9255
-3.91606
-3.90689
-3.89807
-3.88964
-3.88162
-3.87405
-3.86691
-3.86022
-3.85393
-3.84805
-3.84253
-3.83736
-3.8325
-3.82791
-3.82359
-3.81948
-3.81557
-3.81183
-3.80825
-3.80481
-3.80151
-3.79834
-3.79531
-3.79243
-3.78972
-3.7872
-3.78489
-3.78281
-3.78099
-3.77944
-3.77818
-3.77721
-3.77653
-3.77613
-3.77601
-3.77613
-3.77638
-4.0281
-4.0186
-4.00929
-4.00019
-3.99138
-3.98291
-3.97482
-3.96712
-3.95985
-3.95299
-3.94654
-3.94049
-3.93481
-3.92948
-3.92447
-3.91975
-3.9153
-3.91108
-3.90706
-3.90322
-3.89955
-3.89601
-3.89261
-3.88934
-3.88619
-3.88319
-3.88033
-3.87764
-3.87514
-3.87285
-3.8708
-3.869
-3.86748
-3.86624
-3.86529
-3.86463
-3.86426
-3.86415
-3.86429
-3.86455
-4.11138
-4.10224
-4.0933
-4.08459
-4.07616
-4.06805
-4.06032
-4.05297
-4.04601
-4.03945
-4.03327
-4.02747
-4.02201
-4.01689
-4.01206
-4.0075
-4.00319
-3.99909
-3.99517
-3.99142
-3.98781
-3.98434
-3.98098
-3.97775
-3.97464
-3.97166
-3.96883
-3.96617
-3.9637
-3.96145
-3.95943
-3.95766
-3.95617
-3.95496
-3.95404
-3.95341
-3.95305
-3.95296
-3.95311
-3.95338
-4.19485
-4.1861
-4.17756
-4.16925
-4.16122
-4.15352
-4.14616
-4.13916
-4.13254
-4.1263
-4.12041
-4.11488
-4.10967
-4.10476
-4.10013
-4.09575
-4.09159
-4.08762
-4.08382
-4.08016
-4.07663
-4.07322
-4.06993
-4.06674
-4.06367
-4.06074
-4.05795
-4.05533
-4.0529
-4.05069
-4.0487
-4.04698
-4.04552
-4.04435
-4.04346
-4.04285
-4.04252
-4.04244
-4.04261
-4.04289
-4.27853
-4.2702
-4.26209
-4.25421
-4.2466
-4.23931
-4.23235
-4.22573
-4.21947
-4.21356
-4.20799
-4.20274
-4.1978
-4.19313
-4.18871
-4.18452
-4.18052
-4.17669
-4.17301
-4.16945
-4.16601
-4.16268
-4.15945
-4.15632
-4.15331
-4.15043
-4.14769
-4.14512
-4.14274
-4.14058
-4.13864
-4.13697
-4.13555
-4.13442
-4.13356
-4.13298
-4.13267
-4.13261
-4.13279
-4.13307
-4.36244
-4.35456
-4.3469
-4.33947
-4.33231
-4.32545
-4.31891
-4.31269
-4.30681
-4.30126
-4.29602
-4.29108
-4.28641
-4.28199
-4.2778
-4.2738
-4.26998
-4.2663
-4.26274
-4.2593
-4.25596
-4.25271
-4.24955
-4.2465
-4.24355
-4.24073
-4.23806
-4.23555
-4.23324
-4.23113
-4.22926
-4.22763
-4.22627
-4.22518
-4.22436
-4.22381
-4.22351
-4.22347
-4.22365
-4.22394
-4.44659
-4.43918
-4.432
-4.42505
-4.41836
-4.41195
-4.40585
-4.40007
-4.39458
-4.38941
-4.38451
-4.37989
-4.37552
-4.37136
-4.3674
-4.36361
-4.35997
-4.35645
-4.35303
-4.34971
-4.34647
-4.34331
-4.34025
-4.33727
-4.33441
-4.33167
-4.32907
-4.32664
-4.32439
-4.32236
-4.32055
-4.31898
-4.31768
-4.31663
-4.31585
-4.31533
-4.31506
-4.31503
-4.31522
-4.31551
-4.531
-4.5241
-4.51742
-4.51097
-4.50477
-4.49885
-4.49321
-4.48787
-4.48281
-4.47802
-4.47349
-4.46921
-4.46513
-4.46125
-4.45753
-4.45396
-4.4505
-4.44714
-4.44387
-4.44067
-4.43755
-4.43451
-4.43154
-4.42866
-4.42589
-4.42324
-4.42073
-4.41838
-4.41622
-4.41426
-4.41253
-4.41104
-4.40979
-4.4088
-4.40806
-4.40757
-4.40732
-4.40731
-4.4075
-4.40779
-4.6157
-4.60933
-4.60318
-4.59726
-4.59158
-4.58616
-4.58101
-4.57612
-4.5715
-4.56712
-4.56297
-4.55903
-4.55526
-4.55166
-4.54819
-4.54483
-4.54157
-4.53838
-4.53527
-4.53221
-4.52922
-4.52629
-4.52343
-4.52067
-4.518
-4.51545
-4.51305
-4.5108
-4.50874
-4.50687
-4.50522
-4.5038
-4.50262
-4.50168
-4.50099
-4.50053
-4.50031
-4.5003
-4.50049
-4.50078
-4.70073
-4.69492
-4.68932
-4.68395
-4.67881
-4.67392
-4.66927
-4.66486
-4.66068
-4.65672
-4.65295
-4.64936
-4.64591
-4.64259
-4.63937
-4.63624
-4.63318
-4.63017
-4.62722
-4.62432
-4.62146
-4.61867
-4.61595
-4.6133
-4.61076
-4.60833
-4.60604
-4.60391
-4.60195
-4.60019
-4.59863
-4.59729
-4.59618
-4.5953
-4.59466
-4.59424
-4.59403
-4.59404
-4.59423
-4.59451
-4.78615
-4.78092
-4.77591
-4.77111
-4.76652
-4.76216
-4.75803
-4.75411
-4.75038
-4.74684
-4.74345
-4.74021
-4.73708
-4.73404
-4.73108
-4.72818
-4.72533
-4.72251
-4.71974
-4.717
-4.7143
-4.71166
-4.70908
-4.70658
-4.70418
-4.70189
-4.69973
-4.69772
-4.69588
-4.69422
-4.69277
-4.69152
-4.69049
-4.68967
-4.68907
-4.68869
-4.6885
-4.68852
-4.6887
-4.68898
-4.87205
-4.86742
-4.863
-4.85878
-4.85476
-4.85094
-4.84732
-4.84388
-4.84061
-4.83748
-4.83448
-4.83158
-4.82877
-4.82602
-4.82332
-4.82065
-4.81802
-4.81541
-4.81282
-4.81027
-4.80774
-4.80527
-4.80285
-4.80051
-4.79827
-4.79613
-4.79412
-4.79225
-4.79054
-4.789
-4.78766
-4.7865
-4.78555
-4.7848
-4.78425
-4.7839
-4.78374
-4.78376
-4.78394
-4.7842
-4.95851
-4.95449
-4.95068
-4.94704
-4.94358
-4.9403
-4.93719
-4.93423
-4.9314
-4.92868
-4.92605
-4.92349
-4.92099
-4.91853
-4.91609
-4.91367
-4.91126
-4.90887
-4.90649
-4.90413
-4.9018
-4.89951
-4.89728
-4.89512
-4.89305
-4.89108
-4.88922
-4.88751
-4.88594
-4.88454
-4.88331
-4.88225
-4.88139
-4.88071
-4.88021
-4.8799
-4.87976
-4.87978
-4.87996
-4.88021
-5.04565
-5.04225
-5.03902
-5.03596
-5.03305
-5.03029
-5.02767
-5.02516
-5.02276
-5.02043
-5.01816
-5.01594
-5.01375
-5.01157
-5.0094
-5.00724
-5.00507
-5.0029
-5.00075
-4.9986
-4.99649
-4.99441
-4.99238
-4.99042
-4.98853
-4.98675
-4.98507
-4.98352
-4.98211
-4.98084
-4.97974
-4.97879
-4.97801
-4.97741
-4.97696
-4.97669
-4.97656
-4.9766
-4.97676
-4.977
-5.13357
-5.13077
-5.12812
-5.1256
-5.12322
-5.12096
-5.1188
-5.11672
-5.11472
-5.11277
-5.11085
-5.10895
-5.10706
-5.10517
-5.10328
-5.10137
-5.09946
-5.09754
-5.09562
-5.09371
-5.09183
-5.08997
-5.08817
-5.08642
-5.08475
-5.08317
-5.08168
-5.08031
-5.07906
-5.07794
-5.07696
-5.07613
-5.07545
-5.07491
-5.07452
-5.07428
-5.07418
-5.07421
-5.07437
-5.07459
-5.22238
-5.22015
-5.21804
-5.21604
-5.21415
-5.21234
-5.21061
-5.20894
-5.20732
-5.20572
-5.20413
-5.20255
-5.20096
-5.19935
-5.19773
-5.1961
-5.19445
-5.19279
-5.19113
-5.18948
-5.18784
-5.18624
-5.18468
-5.18316
-5.18172
-5.18035
-5.17907
-5.17788
-5.17681
-5.17584
-5.175
-5.17429
-5.1737
-5.17324
-5.17291
-5.1727
-5.17262
-5.17266
-5.1728
-5.173
-5.31216
-5.31046
-5.30885
-5.30733
-5.30588
-5.30449
-5.30316
-5.30186
-5.30058
-5.29931
-5.29804
-5.29676
-5.29546
-5.29415
-5.29281
-5.29145
-5.29008
-5.2887
-5.28732
-5.28594
-5.28457
-5.28323
-5.28193
-5.28066
-5.27946
-5.27832
-5.27725
-5.27627
-5.27537
-5.27457
-5.27388
-5.27328
-5.27279
-5.27241
-5.27213
-5.27196
-5.27189
-5.27193
-5.27206
-5.27225
-5.40297
-5.40175
-5.4006
-5.3995
-5.39845
-5.39744
-5.39646
-5.39549
-5.39454
-5.39357
-5.39261
-5.39162
-5.39062
-5.38959
-5.38854
-5.38748
-5.38639
-5.3853
-5.38421
-5.38312
-5.38204
-5.38098
-5.37995
-5.37895
-5.378
-5.3771
-5.37626
-5.37548
-5.37478
-5.37415
-5.3736
-5.37313
-5.37274
-5.37243
-5.37221
-5.37207
-5.37202
-5.37205
-5.37217
-5.37233
-5.49484
-5.49406
-5.49331
-5.4926
-5.49191
-5.49123
-5.49057
-5.48991
-5.48925
-5.48858
-5.4879
-5.4872
-5.48648
-5.48575
-5.485
-5.48423
-5.48345
-5.48266
-5.48186
-5.48108
-5.48029
-5.47953
-5.47878
-5.47806
-5.47738
-5.47673
-5.47612
-5.47556
-5.47505
-5.47459
-5.47419
-5.47384
-5.47355
-5.47332
-5.47315
-5.47305
-5.473
-5.47303
-5.47314
-5.47327
-5.58785
-5.58748
-5.58712
-5.58675
-5.58639
-5.58602
-5.58565
-5.58528
-5.5849
-5.58451
-5.5841
-5.58368
-5.58325
-5.58281
-5.58235
-5.58188
-5.58141
-5.58093
-5.58044
-5.57996
-5.57949
-5.57902
-5.57856
-5.57812
-5.5777
-5.5773
-5.57693
-5.57658
-5.57627
-5.57598
-5.57572
-5.5755
-5.5753
-5.57514
-5.57502
-5.57492
-5.57487
-5.57487
-5.57495
-5.57506
-5.6822
-5.6822
-5.68218
-5.68213
-5.68207
-5.68198
-5.68189
-5.68178
-5.68166
-5.68153
-5.68138
-5.68123
-5.68108
-5.68091
-5.68074
-5.68056
-5.68038
-5.6802
-5.68001
-5.67983
-5.67965
-5.67947
-5.67929
-5.67912
-5.67895
-5.67879
-5.67865
-5.67851
-5.67838
-5.67826
-5.67815
-5.67805
-5.67796
-5.67788
-5.67781
-5.67775
-5.6777
-5.67767
-5.67768
-5.67774
)
;

boundaryField
{
    leftWall
    {
        type            calculated;
        value           nonuniform List<scalar> 0();
    }
    rightWall
    {
        type            calculated;
        value           nonuniform List<scalar> 
43
(
-2.00058
-2.07428
-2.14869
-2.22381
-2.29963
-2.37612
-2.45329
-2.53113
-2.60963
-2.68878
-2.76858
-2.84904
-2.93014
-3.01189
-3.09428
-3.1773
-3.26096
-3.34526
-3.4302
-3.51578
-3.602
-3.68886
-3.77638
-3.86455
-3.95338
-4.04289
-4.13307
-4.22394
-4.31551
-4.40779
-4.50078
-4.59451
-4.68898
-4.7842
-4.88021
-4.977
-5.07459
-5.173
-5.27225
-5.37233
-5.47327
-5.57506
-5.67774
)
;
    }
    lowerWall
    {
        type            calculated;
        value           nonuniform List<scalar> 0();
    }
    atmosphere
    {
        type            calculated;
        value           nonuniform List<scalar> 
45
(
-5.72904
-5.72904
-5.72904
-5.72904
-5.72904
-5.72904
-5.72904
-5.72904
-5.72904
-5.72904
-5.72904
-5.72904
-5.72904
-5.72904
-5.72904
-5.72904
-5.72904
-5.72904
-5.72904
-5.72904
-5.72904
-5.72904
-5.72904
-5.72904
-5.72904
-5.72904
-5.72904
-5.72904
-5.72904
-5.72904
-5.72904
-5.72904
-5.72904
-5.72904
-5.72904
-5.72904
-5.72904
-5.72904
-5.72904
-5.72904
-5.72904
-5.72904
-5.72904
-5.72904
-5.72904
)
;
    }
    defaultFaces
    {
        type            empty;
    }
    procBoundary3to1
    {
        type            processor;
        value           nonuniform List<scalar> 
45
(
-2.09971
-2.08258
-2.06736
-2.05337
-2.04039
-2.02774
-2.01558
-2.00442
-1.99427
-1.98519
-1.97723
-1.97037
-1.96458
-1.95976
-1.9558
-1.95257
-1.94996
-1.94786
-1.94618
-1.94486
-1.94382
-1.94302
-1.94239
-1.94187
-1.9414
-1.94093
-1.94041
-1.93982
-1.93914
-1.93837
-1.93752
-1.93663
-1.93571
-1.9348
-1.93392
-1.9331
-1.93234
-1.93165
-1.93102
-1.93043
-1.92988
-1.92934
-1.92877
-1.92817
-1.9276
)
;
    }
    procBoundary3to2
    {
        type            processor;
        value           nonuniform List<scalar> 
43
(
-2.20839
-2.29645
-2.38342
-2.46931
-2.55414
-2.63796
-2.72078
-2.80269
-2.88376
-2.96411
-3.0439
-3.12326
-3.20235
-3.28132
-3.3603
-3.43938
-3.51866
-3.59818
-3.67798
-3.75806
-3.83842
-3.91904
-3.99989
-4.08094
-4.16216
-4.24352
-4.32502
-4.40663
-4.48836
-4.57023
-4.65227
-4.73452
-4.81705
-4.89996
-4.98335
-5.06734
-5.15207
-5.23766
-5.3242
-5.41178
-5.50046
-5.59013
-5.6811
)
;
    }
}


// ************************************************************************* //
