/*--------------------------------*- C++ -*----------------------------------*\
  =========                 |
  \\      /  F ield         | OpenFOAM: The Open Source CFD Toolbox
   \\    /   O peration     | Website:  https://openfoam.org
    \\  /    A nd           | Version:  9
     \\/     M anipulation  |
\*---------------------------------------------------------------------------*/
FoamFile
{
    format      ascii;
    class       volScalarField;
    location    "0.15";
    object      p_rgh;
}
// * * * * * * * * * * * * * * * * * * * * * * * * * * * * * * * * * * * * * //

dimensions      [1 -1 -2 0 0 0 0];

internalField   nonuniform List<scalar> 
1935
(
0.155824
0.133442
0.112643
0.0933888
0.075663
0.0594518
0.0447311
0.0314551
0.0195505
0.00891799
-0.000560432
-0.00901405
-0.016576
-0.0233725
-0.0295132
-0.035086
-0.0401546
-0.0447577
-0.0489089
-0.0525995
-0.0558041
-0.0584863
-0.0606061
-0.062126
-0.0630171
-0.06326
-0.0628445
-0.0617677
-0.0600334
-0.0576534
-0.0546494
-0.0510578
-0.046936
-0.0423678
-0.0374639
-0.0323558
-0.027183
-0.0220777
-0.0171496
-0.0124789
-0.00812127
-0.00401732
-0.000401435
0.173403
0.189092
0.203584
0.217063
0.15143
0.16756
0.182495
0.196391
0.130951
0.147436
0.162723
0.17694
0.111884
0.128594
0.144112
0.158544
0.0942025
0.111006
0.126635
0.141174
0.0779018
0.0946726
0.110296
0.124845
0.0629643
0.0795821
0.095092
0.109555
0.0493536
0.0657064
0.0810014
0.0952911
0.0370099
0.0529976
0.0679869
0.0820249
0.0258497
0.0413875
0.0559939
0.0697138
0.0157718
0.0307917
0.0449541
0.0583038
0.00666425
0.0211167
0.0347912
0.0477349
-0.00158768
0.0122664
0.0254277
0.0379467
-0.00909331
0.0041501
0.0167912
0.0288833
-0.0159477
-0.00330998
0.00882089
0.0204986
-0.0222251
-0.0101732
0.00147155
0.012759
-0.0279767
-0.0164778
-0.00528419
0.00564439
-0.0332293
-0.022241
-0.011457
-0.000853109
-0.0379876
-0.0274618
-0.0170443
-0.00673288
-0.0422371
-0.0321253
-0.0220345
-0.01199
-0.0459502
-0.0362083
-0.0264127
-0.0166194
-0.0490929
-0.0396854
-0.0301651
-0.0206192
-0.0516315
-0.0425352
-0.0332834
-0.0239928
-0.0535388
-0.0447442
-0.035767
-0.0267496
-0.0547975
-0.0463076
-0.037622
-0.0289031
-0.0553995
-0.0472279
-0.0388585
-0.0304673
-0.0553445
-0.0475116
-0.0394868
-0.0314544
-0.0546367
-0.0471668
-0.0395168
-0.0318739
-0.0532849
-0.0462035
-0.0389582
-0.0317347
-0.051302
-0.0446347
-0.0378233
-0.0310487
-0.0487089
-0.0424803
-0.0361317
-0.0298358
-0.04554
-0.0397748
-0.0339181
-0.0281307
-0.0418519
-0.0365746
-0.0312385
-0.0259886
-0.0377287
-0.0329629
-0.0281741
-0.023487
-0.0332828
-0.0290495
-0.0248294
-0.0207239
-0.0286476
-0.0249632
-0.0213256
-0.0178106
-0.0239655
-0.0208404
-0.0177892
-0.0148619
-0.019372
-0.01681
-0.0143384
-0.0119838
-0.0149808
-0.0129797
-0.011071
-0.00926326
-0.010872
-0.00942319
-0.00805209
-0.0067561
-0.00709882
-0.00618732
-0.00532156
-0.00449682
-0.00364212
-0.00328141
-0.00291144
-0.00253764
-0.000689544
-0.000884969
-0.00100782
-0.00107039
0.230242
0.242963
0.254688
0.265414
0.275087
0.283669
0.29116
0.297605
0.303084
0.307704
0.311579
0.314817
0.317513
0.319747
0.32159
0.323106
0.324357
0.325408
0.32632
0.327157
0.327972
0.328811
0.329704
0.330664
0.331691
0.332769
0.333875
0.334979
0.336052
0.33707
0.338014
0.338874
0.339648
0.340342
0.340967
0.34154
0.342082
0.342627
0.343191
0.343707
0.209967
0.223079
0.235185
0.246305
0.256403
0.265456
0.273472
0.28049
0.286579
0.291825
0.296323
0.300165
0.303437
0.306213
0.308562
0.310552
0.312246
0.313712
0.315016
0.316221
0.31738
0.318535
0.319715
0.320934
0.32219
0.323471
0.324754
0.326015
0.327226
0.328365
0.329416
0.330369
0.331221
0.331978
0.332649
0.33325
0.333801
0.334331
0.33486
0.335333
0.190807
0.204188
0.216554
0.22795
0.238365
0.247794
0.256253
0.263777
0.270418
0.276243
0.281324
0.285734
0.289547
0.292835
0.295664
0.298104
0.300224
0.302093
0.303779
0.305342
0.306834
0.308294
0.309747
0.311208
0.312676
0.31414
0.315582
0.316981
0.318315
0.319563
0.320711
0.32175
0.322678
0.323496
0.324214
0.324845
0.325405
0.325923
0.326418
0.326846
0.172607
0.186173
0.198727
0.210337
0.221012
0.230764
0.23961
0.247581
0.254715
0.261059
0.266666
0.271594
0.275904
0.279663
0.282937
0.285798
0.288318
0.290567
0.292614
0.294516
0.296322
0.298069
0.29978
0.301469
0.303136
0.304773
0.306366
0.307896
0.309346
0.310698
0.311939
0.313061
0.31406
0.314938
0.315699
0.316356
0.316924
0.317429
0.317887
0.31827
0.155343
0.16902
0.181702
0.193474
0.204364
0.214392
0.223578
0.231945
0.239516
0.246321
0.252395
0.257785
0.262543
0.266731
0.270414
0.273664
0.276554
0.279158
0.28154
0.283757
0.285856
0.28787
0.289822
0.291724
0.293579
0.29538
0.297116
0.298772
0.300334
0.301786
0.303117
0.304319
0.305386
0.306319
0.307122
0.307802
0.308375
0.308863
0.309283
0.309621
0.139032
0.152746
0.165496
0.177381
0.188438
0.198696
0.208173
0.216882
0.224835
0.232046
0.238535
0.244335
0.249493
0.254066
0.258119
0.261725
0.264957
0.267886
0.270578
0.273087
0.275455
0.277716
0.27989
0.28199
0.284019
0.285974
0.287845
0.289622
0.29129
0.292839
0.294257
0.295534
0.296667
0.297651
0.298491
0.299192
0.299768
0.300238
0.30062
0.300912
0.123678
0.137359
0.150119
0.162067
0.173247
0.18369
0.19341
0.202411
0.210692
0.218252
0.225101
0.231262
0.236773
0.24169
0.246076
0.250003
0.253545
0.256771
0.259746
0.26252
0.265135
0.267621
0.269999
0.272281
0.274472
0.276569
0.278567
0.280457
0.282228
0.283868
0.285368
0.286719
0.287912
0.288945
0.289819
0.290538
0.291114
0.291565
0.29191
0.292158
0.109272
0.122854
0.135572
0.147537
0.158798
0.169383
0.1793
0.188544
0.1971
0.204956
0.212111
0.21858
0.224399
0.229617
0.234298
0.238513
0.242334
0.245829
0.249059
0.252073
0.254911
0.257601
0.260163
0.262611
0.264949
0.267178
0.269294
0.27129
0.273158
0.274886
0.276464
0.277883
0.279134
0.280212
0.281117
0.281851
0.282426
0.282857
0.283165
0.28337
0.0957954
0.109221
0.121847
0.133788
0.145091
0.155779
0.165851
0.17529
0.18407
0.192169
0.199578
0.206305
0.212383
0.21786
0.222798
0.227266
0.231335
0.235069
0.238527
0.241756
0.244794
0.247666
0.250394
0.252991
0.255463
0.257813
0.260039
0.262134
0.264092
0.265903
0.267555
0.269038
0.270343
0.271463
0.272395
0.273143
0.273714
0.274125
0.274395
0.274562
0.0832157
0.0964353
0.10893
0.120813
0.132124
0.142879
0.153064
0.162653
0.171608
0.179898
0.187509
0.194446
0.200737
0.20643
0.211587
0.216273
0.220557
0.224501
0.22816
0.231579
0.234793
0.237827
0.240703
0.243433
0.246027
0.248487
0.250813
0.253001
0.255044
0.256932
0.258653
0.260196
0.261551
0.262708
0.263665
0.264423
0.26499
0.26538
0.265612
0.265747
0.0714926
0.0844698
0.0968035
0.108599
0.11989
0.130677
0.140937
0.15063
0.159712
0.168144
0.175907
0.183005
0.189465
0.195335
0.200672
0.205542
0.21001
0.214134
0.217967
0.22155
0.224917
0.228093
0.231099
0.233948
0.23665
0.23921
0.241629
0.243903
0.246024
0.247984
0.249769
0.251368
0.252767
0.253959
0.254938
0.255704
0.256266
0.256635
0.256833
0.256932
0.0605813
0.073292
0.0854434
0.0971309
0.108375
0.119164
0.129461
0.139216
0.148377
0.156902
0.16477
0.171984
0.17857
0.184576
0.190059
0.195079
0.199699
0.203975
0.207954
0.211677
0.215175
0.218473
0.221591
0.224544
0.227343
0.229993
0.232496
0.234849
0.237043
0.239069
0.240914
0.242563
0.244004
0.245226
0.246223
0.246996
0.24755
0.247899
0.248063
0.248127
0.0504367
0.0628692
0.0748261
0.0863896
0.0975652
0.108326
0.118623
0.128398
0.137594
0.146165
0.154092
0.161379
0.168052
0.174157
0.17975
0.184889
0.189631
0.194029
0.198129
0.201967
0.205574
0.208975
0.212189
0.215233
0.218117
0.220847
0.223427
0.225851
0.228112
0.230199
0.232097
0.233792
0.235269
0.236518
0.23753
0.238307
0.238853
0.239181
0.239312
0.239339
0.0410174
0.0531706
0.064928
0.0763555
0.0874422
0.0981461
0.108408
0.118162
0.127347
0.135922
0.143866
0.151185
0.157907
0.164077
0.169747
0.174973
0.179809
0.184303
0.188497
0.192428
0.196123
0.199609
0.202904
0.206024
0.208982
0.211784
0.214431
0.216919
0.21924
0.221382
0.223328
0.225064
0.226573
0.227844
0.228868
0.229646
0.230183
0.23049
0.230589
0.230579
0.032289
0.0441701
0.0557273
0.0670087
0.0779864
0.0886046
0.0987949
0.108487
0.117622
0.126159
0.13408
0.141395
0.148131
0.154333
0.16005
0.165334
0.170235
0.174798
0.179064
0.183064
0.186829
0.190382
0.193743
0.196928
0.199949
0.202812
0.205519
0.208064
0.210439
0.212628
0.214617
0.216388
0.217924
0.219212
0.220246
0.221022
0.221549
0.221834
0.221902
0.221857
0.0242261
0.0358468
0.0472048
0.0583294
0.0691769
0.0796797
0.0897631
0.099356
0.108401
0.116861
0.124724
0.132001
0.138719
0.144922
0.150657
0.155972
0.160912
0.16552
0.169833
0.173883
0.177698
0.181302
0.184715
0.187952
0.191026
0.193942
0.196701
0.199295
0.201716
0.203947
0.205972
0.207771
0.209329
0.210631
0.211669
0.212442
0.212956
0.213221
0.213259
0.213181
0.0168128
0.0281854
0.0393436
0.0502984
0.0609922
0.0713486
0.0812899
0.0907465
0.0996655
0.108015
0.115787
0.122995
0.129666
0.135843
0.141568
0.146887
0.151841
0.15647
0.160809
0.164889
0.168737
0.172377
0.175828
0.179107
0.182223
0.185183
0.187984
0.19062
0.193079
0.195345
0.197399
0.199222
0.200796
0.202107
0.203146
0.203913
0.204413
0.204656
0.204667
0.204558
0.0100403
0.0211745
0.032128
0.0428959
0.0534098
0.0635878
0.0733524
0.0826383
0.0913982
0.0996063
0.107258
0.114369
0.120967
0.12709
0.132781
0.138079
0.143023
0.147651
0.151995
0.156086
0.159951
0.163612
0.16709
0.170398
0.173547
0.176541
0.179377
0.182047
0.184537
0.18683
0.188906
0.190746
0.19233
0.193645
0.194682
0.19544
0.195926
0.196148
0.196132
0.195995
0.00390474
0.0148036
0.0255419
0.0361013
0.0464063
0.0563734
0.0659284
0.0750117
0.0835827
0.0916213
0.0991267
0.106115
0.112615
0.118661
0.124293
0.129546
0.134458
0.139063
0.143394
0.147479
0.151344
0.155014
0.158505
0.161833
0.165005
0.168025
0.170887
0.173582
0.176095
0.178407
0.180499
0.182348
0.183937
0.185251
0.186282
0.187029
0.1875
0.187701
0.18766
0.187497
-0.00159734
0.00906156
0.0195674
0.0298925
0.039958
0.0496824
0.0589968
0.0678487
0.0762042
0.0840485
0.0913838
0.0982269
0.104605
0.110551
0.116101
0.121287
0.126146
0.130708
0.135006
0.139069
0.142921
0.146586
0.15008
0.153417
0.156603
0.159638
0.162518
0.16523
0.167758
0.170082
0.172181
0.174034
0.175622
0.17693
0.177951
0.178685
0.179139
0.17932
0.179256
0.179069
-0.00647099
0.00393472
0.0141851
0.0242469
0.0340419
0.0434932
0.0525387
0.0611333
0.0692496
0.0768772
0.0840207
0.090697
0.0969319
0.102756
0.108201
0.1133
0.118084
0.122586
0.126835
0.13086
0.134686
0.138334
0.14182
0.145156
0.148345
0.151388
0.154276
0.156996
0.15953
0.161858
0.163958
0.165807
0.167387
0.168685
0.169693
0.170412
0.170848
0.171009
0.170924
0.170715
-0.0107248
-0.000593239
0.00937416
0.0191422
0.0286366
0.0377866
0.0465377
0.0548518
0.0627075
0.0700979
0.0770291
0.0835179
0.0895883
0.0952686
0.100589
0.105579
0.11027
0.114694
0.118878
0.122852
0.126639
0.13026
0.133728
0.137052
0.140236
0.143277
0.146164
0.148883
0.151415
0.153738
0.15583
0.157669
0.159237
0.160519
0.16151
0.162211
0.162629
0.162771
0.162666
0.162437
-0.0143716
-0.00454071
0.00511373
0.0145579
0.0237233
0.0325464
0.04098
0.0489928
0.0565679
0.0637016
0.0704007
0.0766816
0.0825667
0.0880825
0.0932573
0.0981203
0.102701
0.10703
0.111137
0.115047
0.118784
0.122366
0.125806
0.12911
0.132279
0.135308
0.138185
0.140894
0.143415
0.145725
0.147802
0.149623
0.151172
0.152434
0.153405
0.154086
0.154484
0.154607
0.154484
0.154239
-0.0174273
-0.00792703
0.00138408
0.0104757
0.0192859
0.0277588
0.0358541
0.043546
0.0508216
0.0576792
0.0641265
0.0701792
0.0758585
0.0811897
0.0862
0.0909179
0.0953727
0.0995938
0.10361
0.107445
0.111122
0.114656
0.118058
0.121332
0.124476
0.127484
0.130341
0.133031
0.135531
0.137819
0.139872
0.141669
0.143193
0.14443
0.145377
0.146036
0.146414
0.146519
0.14638
0.146121
-0.0199093
-0.0107704
-0.00183189
0.00688037
0.0153117
0.023413
0.0311501
0.038502
0.0454591
0.0520212
0.0581968
0.064001
0.0694546
0.074582
0.0794101
0.0839669
0.0882814
0.0923821
0.096296
0.100047
0.103654
0.107131
0.110485
0.11372
0.11683
0.119806
0.122634
0.125294
0.127764
0.130021
0.132042
0.133807
0.135299
0.136508
0.137427
0.138062
0.138419
0.138507
0.138354
0.138083
-0.0218332
-0.0130856
-0.00454726
0.00376085
0.0117909
0.0195
0.0268594
0.033852
0.0404709
0.0467177
0.0526013
0.0581372
0.0633458
0.0682517
0.0728815
0.0772631
0.0814249
0.0853943
0.0891966
0.0928535
0.0963815
0.0997918
0.10309
0.106275
0.109341
0.112276
0.115063
0.117683
0.120113
0.12233
0.124311
0.126036
0.127491
0.128665
0.129554
0.130163
0.130499
0.13057
0.130406
0.130126
-0.0232107
-0.014883
-0.00677097
0.00110922
0.00871595
0.016012
0.0229733
0.0295863
0.0358466
0.0417577
0.0473293
0.0525775
0.0575235
0.0621918
0.0666093
0.0708035
0.074802
0.0786306
0.0823125
0.0858666
0.0893069
0.0926416
0.0958733
0.0989988
0.10201
0.104892
0.107628
0.110197
0.112576
0.114743
0.116675
0.118354
0.119766
0.120901
0.121757
0.122338
0.122652
0.122708
0.122534
0.122247
-0.0240503
-0.0161702
-0.00850988
-0.00108135
0.00607949
0.0129407
0.0194823
0.0256943
0.0315751
0.0371299
0.0423701
0.0473129
0.0519802
0.0563971
0.0605903
0.064587
0.0684131
0.0720925
0.0756456
0.0790886
0.0824323
0.0856819
0.0888372
0.0918923
0.0948365
0.0976547
0.100328
0.102835
0.105152
0.107259
0.109133
0.110758
0.112121
0.113212
0.114032
0.114583
0.114876
0.114917
0.114736
0.114445
-0.0243605
-0.0169552
-0.00977219
-0.00281979
0.00387153
0.0102748
0.0163743
0.0221637
0.0276441
0.0328231
0.0377141
0.0423358
0.0467109
0.0508648
0.0548242
0.0586147
0.0622605
0.0657829
0.0691994
0.0725227
0.0757604
0.0789146
0.0819823
0.0849553
0.0878207
0.0905621
0.0931597
0.0955921
0.0978372
0.0998736
0.101682
0.103246
0.104553
0.105597
0.106377
0.106898
0.107169
0.107196
0.107009
0.106717
-0.024153
-0.0172502
-0.0105709
-0.00411994
0.00207742
0.00799927
0.0136344
0.0189801
0.0240407
0.0288266
0.0333534
0.0376411
0.0417133
0.0455955
0.0493131
0.0528903
0.0563488
0.0597066
0.0629781
0.0661724
0.0692938
0.0723413
0.0753091
0.0781868
0.08096
0.0836111
0.0861202
0.0884659
0.090627
0.0925831
0.0943163
0.0958115
0.0970583
0.0980507
0.0987886
0.0992776
0.0995264
0.0995418
0.0993515
0.0990609
-0.0234483
-0.0170762
-0.0109275
-0.00500345
0.000675896
0.0060939
0.011244
0.0161274
0.020752
0.025131
0.029282
0.0332265
0.0369883
0.0405922
0.0440621
0.0474198
0.0506839
0.0538693
0.0569865
0.0600414
0.0630347
0.0659626
0.0688168
0.0715849
0.0742513
0.0767977
0.0792044
0.0814506
0.083516
0.0853818
0.0870313
0.0884511
0.0896318
0.0905685
0.0912619
0.0917178
0.0919448
0.0919492
0.0917579
0.0914711
-0.0222814
-0.0164678
-0.0108754
-0.00550211
-0.000362432
0.00453241
0.0091806
0.0135876
0.0177647
0.0217277
0.025496
0.0290919
0.0325387
0.03586
0.0390774
0.0422097
0.0452724
0.0482767
0.0512293
0.0541327
0.0569845
0.0597782
0.0625033
0.065146
0.0676899
0.0701165
0.0724065
0.07454
0.0764982
0.0782635
0.0798209
0.0811584
0.0822677
0.0831452
0.0837918
0.0842137
0.084419
0.0844138
0.0842234
0.0839428
-0.0207054
-0.0154757
-0.010462
-0.0056589
-0.00107547
0.00328263
0.00741836
0.0113412
0.0150654
0.018609
0.0219926
0.0252384
0.0283687
0.0314049
0.0343659
0.0372671
0.0401205
0.0429336
0.0457097
0.0484478
0.0511429
0.053786
0.0563651
0.0588654
0.0612701
0.0635611
0.0657197
0.0677274
0.0695666
0.0712214
0.0726784
0.0739269
0.0749599
0.0757746
0.0763725
0.0767595
0.0769434
0.0769297
0.0767423
0.0764701
-0.0187934
-0.0141671
-0.00974774
-0.00552695
-0.00150832
0.00230776
0.00592869
0.00936736
0.0126406
0.0157677
0.0187697
0.0216678
0.0244825
0.0272325
0.0299334
0.0325974
0.0352326
0.037843
0.0404288
0.0429861
0.0455073
0.047982
0.0503969
0.0527368
0.054985
0.057124
0.0591364
0.0610048
0.0627135
0.064248
0.0655964
0.0667495
0.0677015
0.0684503
0.0689975
0.0693489
0.0695118
0.0694908
0.0693083
0.0690468
-0.0166352
-0.0126224
-0.00880342
-0.00516667
-0.00171094
0.00156814
0.00468162
0.00764505
0.0104767
0.0131965
0.0158245
0.0183804
0.0208823
0.0233457
0.025783
0.0282026
0.0306094
0.0330042
0.0353842
0.0377433
0.0400723
0.0423594
0.0445909
0.0467516
0.0488255
0.0507962
0.0526474
0.0543634
0.05593
0.0573346
0.0585666
0.0596183
0.0604849
0.0611647
0.0616597
0.061975
0.0621171
0.0620901
0.0619143
0.0616655
-0.0143307
-0.01093
-0.00770495
-0.00464174
-0.0017351
0.0010231
0.00364653
0.00615222
0.00855888
0.0108857
0.0131513
0.0153732
0.0175663
0.0197431
0.0219125
0.0240798
0.0262467
0.0284114
0.0305689
0.0327114
0.0348285
0.0369081
0.0389365
0.0408991
0.042781
0.0445669
0.0462422
0.0477929
0.0492064
0.0504717
0.05158
0.0525246
0.0533017
0.05391
0.0543513
0.0546302
0.0547522
0.0547204
0.0545531
0.0543188
-0.0119815
-0.00917791
-0.0065274
-0.00401463
-0.00163153
0.000632468
0.00279234
0.00486531
0.00686932
0.00882198
0.0107397
0.0126372
0.0145264
0.0164165
0.0183133
0.0202194
0.0221339
0.0240531
0.0259704
0.0278771
0.0297625
0.0316146
0.0334204
0.0351664
0.0368388
0.0384241
0.0399092
0.0412822
0.042532
0.0436495
0.0446271
0.0454595
0.0461435
0.0466781
0.0470647
0.0473072
0.0474099
0.0473746
0.0472172
0.0469993
-0.00968084
-0.00744661
-0.00533898
-0.0033423
-0.00144716
0.000357937
0.00208778
0.00375851
0.00538623
0.00698619
0.00857209
0.0101556
0.0117457
0.0133487
0.0149678
0.0166033
0.0182525
0.0199106
0.0215701
0.0232221
0.0248564
0.0264617
0.0280261
0.0295375
0.030984
0.0323537
0.0336355
0.0348192
0.0358956
0.0368573
0.0376981
0.0384137
0.0390016
0.0394608
0.0397923
0.0399989
0.0400833
0.0400459
0.0398998
0.0396997
-0.00750393
-0.00580078
-0.00419485
-0.00267158
-0.00122189
0.000165015
0.00150237
0.00280406
0.00408351
0.00535305
0.00662338
0.00790317
0.00919875
0.0105139
0.0118498
0.0132052
0.0145765
0.0159581
0.0173429
0.0187225
0.0200875
0.021428
0.0227338
0.0239946
0.0252001
0.0263407
0.0274071
0.0283911
0.0292856
0.0300844
0.0307831
0.0313782
0.0318676
0.0322503
0.0325268
0.0326984
0.0327662
0.0327284
0.0325949
0.0324139
-0.00549787
-0.00427985
-0.00312844
-0.00203153
-0.000981899
2.91218e-05
0.00101202
0.00197756
0.0029359
0.00389615
0.00486594
0.0058512
0.00685587
0.00788183
0.0089289
0.00999497
0.0110762
0.0121674
0.0132622
0.0143532
0.0154327
0.0164926
0.0175245
0.0185202
0.0194716
0.0203712
0.0212119
0.0219874
0.0226924
0.0233226
0.0238745
0.0243458
0.0247347
0.0250404
0.0252623
0.0254005
0.0254539
0.0254181
0.0252982
0.0251374
-0.0036942
-0.00291422
-0.0021701
-0.00145381
-0.000761216
-8.6854e-05
0.000576167
0.00123489
0.0018959
0.00256498
0.00324684
0.00394492
0.00466125
0.00539638
0.00614939
0.00691806
0.00769904
0.008488
0.00927992
0.0100693
0.0108502
0.0116166
0.0123626
0.0130821
0.0137695
0.0144192
0.0150266
0.0155873
0.0160978
0.0165554
0.016958
0.0173039
0.017592
0.0178214
0.0179909
0.0180995
0.0181435
0.0181142
0.0180095
0.0178698
-0.00216354
-0.00179406
-0.00142809
-0.00106227
-0.000697272
-0.000331971
3.60114e-05
0.000409394
0.000790813
0.00118259
0.00158658
0.00200395
0.00243515
0.00287983
0.00333687
0.00380444
0.00428014
0.00476108
0.00524405
0.00572557
0.00620206
0.00666988
0.00712543
0.00756521
0.0079859
0.00838447
0.00875823
0.00910496
0.00942292
0.00971079
0.00996765
0.0101929
0.0103859
0.0105462
0.0106727
0.0107642
0.0108162
0.010814
0.0107387
0.0106284
-0.00108949
-0.00109249
-0.00107109
-0.00102476
-0.000958241
-0.000875227
-0.000778075
-0.000668405
-0.00054741
-0.000416009
-0.000274973
-0.000125041
3.30053e-05
0.000198288
0.000369817
0.00054649
0.00072711
0.000910406
0.00109506
0.00127973
0.00146307
0.00164373
0.0018204
0.00199182
0.00215678
0.00231418
0.00246308
0.00260271
0.00273251
0.00285214
0.00296146
0.00306057
0.00314969
0.00322909
0.00329911
0.00336004
0.00341035
0.00343978
0.00342526
0.00337382
)
;

boundaryField
{
    leftWall
    {
        type            fixedFluxPressure;
        gradient        nonuniform List<scalar> 0();
        value           nonuniform List<scalar> 0();
    }
    rightWall
    {
        type            fixedFluxPressure;
        gradient        uniform 0;
        value           nonuniform List<scalar> 
43
(
0.343707
0.335333
0.326846
0.31827
0.309621
0.300912
0.292158
0.28337
0.274562
0.265747
0.256932
0.248127
0.239339
0.230579
0.221857
0.213181
0.204558
0.195995
0.187497
0.179069
0.170715
0.162437
0.154239
0.146121
0.138083
0.130126
0.122247
0.114445
0.106717
0.0990609
0.0914711
0.0839428
0.0764701
0.0690468
0.0616655
0.0543188
0.0469993
0.0396997
0.0324139
0.0251374
0.0178698
0.0106284
0.00337382
)
;
    }
    lowerWall
    {
        type            fixedFluxPressure;
        gradient        nonuniform List<scalar> 0();
        value           nonuniform List<scalar> 0();
    }
    atmosphere
    {
        type            totalPressure;
        rho             rho;
        psi             none;
        gamma           1;
        p0              uniform 0;
        value           uniform 0;
    }
    defaultFaces
    {
        type            empty;
    }
    procBoundary3to1
    {
        type            processor;
        value           nonuniform List<scalar> 
45
(
0.179853
0.196978
0.212195
0.226191
0.239165
0.251815
0.26398
0.275142
0.285289
0.294364
0.302329
0.309184
0.314979
0.3198
0.323763
0.326991
0.329602
0.331702
0.333377
0.3347
0.335734
0.336538
0.337171
0.337693
0.338162
0.338633
0.33915
0.339741
0.340423
0.341192
0.342037
0.342933
0.343851
0.34476
0.345636
0.346458
0.347217
0.34791
0.348543
0.349127
0.34968
0.350222
0.350787
0.351391
0.351954
)
;
    }
    procBoundary3to2
    {
        type            processor;
        value           nonuniform List<scalar> 
43
(
0.135892
0.113154
0.0921221
0.0727776
0.055101
0.0390737
0.0246618
0.0118081
0.000428485
-0.00958889
-0.0183792
-0.0260901
-0.0328681
-0.0388515
-0.0441623
-0.0489006
-0.0531392
-0.0569249
-0.060282
-0.0632148
-0.0657099
-0.0677401
-0.0692711
-0.0702664
-0.0706902
-0.0705095
-0.069698
-0.0682403
-0.0661332
-0.0633851
-0.0600181
-0.0560721
-0.0516078
-0.0467075
-0.0414741
-0.0360252
-0.030482
-0.0249573
-0.0195437
-0.0143115
-0.00931473
-0.00444587
5.3813e-06
)
;
    }
}


// ************************************************************************* //
