/*--------------------------------*- C++ -*----------------------------------*\
  =========                 |
  \\      /  F ield         | OpenFOAM: The Open Source CFD Toolbox
   \\    /   O peration     | Website:  https://openfoam.org
    \\  /    A nd           | Version:  9
     \\/     M anipulation  |
\*---------------------------------------------------------------------------*/
FoamFile
{
    format      ascii;
    class       surfaceScalarField;
    location    "0.15";
    object      phi;
}
// * * * * * * * * * * * * * * * * * * * * * * * * * * * * * * * * * * * * * //

dimensions      [0 3 -1 0 0 0 0];

internalField   nonuniform List<scalar> 
3782
(
3.61096e-05
-3.6061e-06
3.5154e-05
-5.02723e-06
3.41368e-05
-6.41484e-06
3.30598e-05
-7.76028e-06
3.1926e-05
-9.05437e-06
3.07402e-05
-1.02878e-05
2.95083e-05
-1.14513e-05
2.82375e-05
-1.25361e-05
2.69359e-05
-1.35337e-05
2.56127e-05
-1.4437e-05
2.42776e-05
-1.52399e-05
2.29404e-05
-1.59376e-05
2.16111e-05
-1.65271e-05
2.02991e-05
-1.70069e-05
1.90133e-05
-1.73774e-05
1.77616e-05
-1.764e-05
1.65509e-05
-1.77981e-05
1.53869e-05
-1.78557e-05
1.42742e-05
-1.7818e-05
1.32159e-05
-1.76906e-05
1.22145e-05
-1.74798e-05
1.12711e-05
-1.71916e-05
1.03861e-05
-1.68323e-05
9.55909e-06
-1.64079e-05
8.78923e-06
-1.5924e-05
8.07508e-06
-1.53857e-05
7.4149e-06
-1.47979e-05
6.80671e-06
-1.41646e-05
6.24844e-06
-1.34895e-05
5.73791e-06
-1.27758e-05
5.273e-06
-1.20262e-05
4.85163e-06
-1.12427e-05
4.47187e-06
-1.04276e-05
4.13202e-06
-9.5827e-06
3.83066e-06
-8.71059e-06
3.56682e-06
-7.81495e-06
3.34018e-06
-6.90178e-06
3.15144e-06
-5.98123e-06
3.00271e-06
-5.07027e-06
2.89793e-06
-4.19678e-06
2.84229e-06
-3.40504e-06
2.83903e-06
-2.76219e-06
-2.37333e-06
-2.82484e-06
3.3016e-05
-2.10337e-06
3.19922e-05
-1.4395e-06
3.10348e-05
3.01446e-05
-8.30354e-07
-4.19101e-06
3.21798e-05
-3.41764e-06
3.12188e-05
-2.70423e-06
3.03214e-05
2.94877e-05
-2.04734e-06
-5.52434e-06
3.12893e-05
-4.69985e-06
3.03943e-05
-3.93779e-06
2.95593e-05
2.87842e-05
-3.23424e-06
-6.81719e-06
3.03462e-05
-5.94324e-06
2.95204e-05
-5.13422e-06
2.87503e-05
2.80357e-05
-4.38572e-06
-8.0615e-06
2.93534e-05
-7.14072e-06
2.85996e-05
-6.28725e-06
2.78968e-05
2.72446e-05
-5.49621e-06
-9.24908e-06
2.83146e-05
-8.28504e-06
2.76356e-05
-7.39042e-06
2.70022e-05
2.64141e-05
-6.55995e-06
-1.03717e-05
2.7235e-05
-9.36894e-06
2.66328e-05
-8.43726e-06
2.60705e-05
2.5548e-05
-7.57113e-06
-1.14216e-05
2.61205e-05
-1.03854e-05
2.55965e-05
-9.42147e-06
2.51066e-05
2.46506e-05
-8.52407e-06
-1.23912e-05
2.4978e-05
-1.13277e-05
2.4533e-05
-1.03371e-05
2.4116e-05
2.37269e-05
-9.41336e-06
-1.3274e-05
2.3815e-05
-1.21899e-05
2.34489e-05
-1.11786e-05
2.31046e-05
2.27823e-05
-1.0234e-05
-1.40644e-05
2.26395e-05
-1.2967e-05
2.23514e-05
-1.19413e-05
2.20789e-05
2.18227e-05
-1.09817e-05
-1.4758e-05
2.146e-05
-1.36545e-05
2.12479e-05
-1.26213e-05
2.10456e-05
2.0854e-05
-1.16526e-05
-1.53517e-05
2.02846e-05
-1.42497e-05
2.01459e-05
-1.32155e-05
2.00114e-05
1.98825e-05
-1.2244e-05
-1.58438e-05
1.91215e-05
-1.47506e-05
1.90526e-05
-1.37221e-05
1.8983e-05
1.8914e-05
-1.27537e-05
-1.62341e-05
1.79782e-05
-1.51565e-05
1.7975e-05
-1.41401e-05
1.79666e-05
1.79545e-05
-1.31806e-05
-1.65235e-05
1.68617e-05
-1.5468e-05
1.69195e-05
-1.44696e-05
1.69682e-05
1.70095e-05
-1.35246e-05
-1.67144e-05
1.5778e-05
-1.56867e-05
1.58917e-05
-1.47117e-05
1.59931e-05
1.6084e-05
-1.37861e-05
-1.68101e-05
1.47324e-05
-1.58151e-05
1.48968e-05
-1.48682e-05
1.50462e-05
1.51825e-05
-1.39667e-05
-1.68146e-05
1.3729e-05
-1.58566e-05
1.39388e-05
-1.49419e-05
1.41315e-05
1.4309e-05
-1.40684e-05
-1.67328e-05
1.27713e-05
-1.58151e-05
1.30211e-05
-1.49359e-05
1.32524e-05
1.34668e-05
-1.40937e-05
-1.65699e-05
1.18614e-05
-1.56949e-05
1.21461e-05
-1.4854e-05
1.24114e-05
1.26587e-05
-1.40459e-05
-1.63312e-05
1.1001e-05
-1.55008e-05
1.13158e-05
-1.47001e-05
1.16106e-05
1.18868e-05
-1.39282e-05
-1.60221e-05
1.01908e-05
-1.52375e-05
1.05312e-05
-1.44783e-05
1.08515e-05
1.11527e-05
-1.37442e-05
-1.56481e-05
9.43099e-06
-1.49097e-05
9.79284e-06
-1.41929e-05
1.01347e-05
1.04574e-05
-1.34976e-05
-1.52141e-05
8.72111e-06
-1.4522e-05
9.10071e-06
-1.38479e-05
9.46064e-06
9.80163e-06
-1.31922e-05
-1.4725e-05
8.06036e-06
-1.40787e-05
8.4544e-06
-1.34473e-05
8.82931e-06
9.18563e-06
-1.28313e-05
-1.41851e-05
7.44758e-06
-1.35838e-05
7.85317e-06
-1.29948e-05
8.24031e-06
8.60931e-06
-1.24185e-05
-1.35984e-05
6.88136e-06
-1.30412e-05
7.29604e-06
-1.24939e-05
7.69299e-06
8.07236e-06
-1.19569e-05
-1.29683e-05
6.36016e-06
-1.24541e-05
6.78184e-06
-1.19477e-05
7.18655e-06
7.57428e-06
-1.14496e-05
-1.2298e-05
5.88234e-06
-1.18255e-05
6.3093e-06
-1.1359e-05
6.72004e-06
7.11442e-06
-1.08991e-05
-1.15901e-05
5.44626e-06
-1.11579e-05
5.87711e-06
-1.07303e-05
6.29248e-06
6.69208e-06
-1.0308e-05
-1.08468e-05
5.05031e-06
-1.04537e-05
5.484e-06
-1.00641e-05
5.90288e-06
6.30653e-06
-9.67851e-06
-1.00703e-05
4.693e-06
-9.71503e-06
5.12877e-06
-9.36245e-06
5.55031e-06
5.95709e-06
-9.013e-06
-9.26271e-06
4.373e-06
-8.9443e-06
4.81037e-06
-8.62795e-06
5.23396e-06
5.64314e-06
-8.314e-06
-8.42686e-06
4.08927e-06
-8.14447e-06
4.52798e-06
-7.8637e-06
4.95319e-06
5.36423e-06
-7.58478e-06
-7.56678e-06
3.8411e-06
-7.31986e-06
4.28107e-06
-7.07428e-06
4.70762e-06
5.12004e-06
-6.83009e-06
-6.68899e-06
3.62832e-06
-6.47742e-06
4.0695e-06
-6.26689e-06
4.49709e-06
4.91043e-06
-6.05727e-06
-5.80434e-06
3.45144e-06
-5.62845e-06
3.89361e-06
-5.4531e-06
4.32175e-06
4.73533e-06
-5.278e-06
-4.93069e-06
3.31188e-06
-4.79126e-06
3.75419e-06
-4.65135e-06
4.18184e-06
4.59456e-06
-4.51058e-06
-4.09669e-06
3.21181e-06
-3.99468e-06
3.65219e-06
-3.89018e-06
4.07735e-06
4.48739e-06
-3.78301e-06
-3.34662e-06
3.15342e-06
-3.2822e-06
3.58777e-06
-3.2119e-06
4.00705e-06
4.41164e-06
-3.13615e-06
-2.74519e-06
3.13643e-06
-2.71577e-06
3.55836e-06
-2.67583e-06
3.96711e-06
4.36278e-06
-2.62697e-06
-2.38725e-06
-2.38271e-06
-2.36357e-06
-2.33277e-06
-2.10949e-07
3.26793e-05
3.46515e-07
3.16742e-05
8.44295e-07
3.06898e-05
1.28491e-06
2.97246e-05
1.67113e-06
2.87794e-05
2.00594e-06
2.78564e-05
2.29246e-06
2.69581e-05
2.53391e-06
2.60874e-05
2.73358e-06
2.52467e-05
2.89475e-06
2.44383e-05
3.02064e-06
2.36637e-05
3.11439e-06
2.2924e-05
3.17899e-06
2.22198e-05
3.21726e-06
2.15513e-05
3.23185e-06
2.09185e-05
3.22519e-06
2.0321e-05
3.19954e-06
1.97586e-05
3.15691e-06
1.9231e-05
3.09913e-06
1.87382e-05
3.02782e-06
1.82803e-05
2.94438e-06
1.78581e-05
2.85007e-06
1.74728e-05
2.74596e-06
1.71262e-05
2.63297e-06
1.68208e-05
2.51186e-06
1.65599e-05
2.3833e-06
1.63473e-05
2.24784e-06
1.61878e-05
2.10592e-06
1.60864e-05
1.95793e-06
1.60488e-05
1.80419e-06
1.6081e-05
1.64499e-06
1.6189e-05
1.48059e-06
1.63788e-05
1.31123e-06
1.66557e-05
1.13713e-06
1.70244e-05
9.58475e-07
1.74877e-05
7.75409e-07
1.80459e-05
5.87978e-07
1.8694e-05
3.96034e-07
1.94173e-05
1.99237e-07
2.01735e-05
2.06063e-05
-1.37646e-06
3.20084e-05
-7.68908e-07
3.10667e-05
-2.22138e-07
3.0143e-05
2.66553e-07
2.92359e-05
6.99982e-07
2.8346e-05
1.08112e-06
2.74752e-05
1.41306e-06
2.66262e-05
1.69898e-06
2.58015e-05
1.94205e-06
2.50036e-05
2.14548e-06
2.42349e-05
2.31238e-06
2.34968e-05
2.44581e-06
2.27905e-05
2.54869e-06
2.21169e-05
2.62378e-06
2.14762e-05
2.67369e-06
2.08686e-05
2.70083e-06
2.02939e-05
2.70743e-06
1.9752e-05
2.69552e-06
1.92429e-05
2.66695e-06
1.87667e-05
2.62339e-06
1.83239e-05
2.56632e-06
1.79152e-05
2.49706e-06
1.75421e-05
2.41676e-06
1.72065e-05
2.32643e-06
1.69112e-05
2.22696e-06
1.66594e-05
2.1191e-06
1.64552e-05
2.00352e-06
1.63033e-05
1.88079e-06
1.62091e-05
1.75142e-06
1.61782e-05
1.61587e-06
1.62166e-05
1.47455e-06
1.63303e-05
1.32787e-06
1.65255e-05
1.1762e-06
1.68074e-05
1.0199e-06
1.71806e-05
8.59304e-07
1.76483e-05
6.94694e-07
1.82104e-05
5.26254e-07
1.88624e-05
3.53991e-07
1.95896e-05
1.7776e-07
2.03497e-05
2.07841e-05
-2.5132e-06
3.12874e-05
-1.85704e-06
3.04105e-05
-1.26293e-06
2.95489e-05
-7.28001e-07
2.87009e-05
-2.49305e-07
2.78673e-05
1.76191e-07
2.70497e-05
5.51559e-07
2.62508e-05
8.79918e-07
2.54731e-05
1.16442e-06
2.47192e-05
1.40818e-06
2.39911e-05
1.61427e-06
2.32907e-05
1.78566e-06
2.26191e-05
1.92522e-06
2.19773e-05
2.03567e-06
2.13658e-05
2.11957e-06
2.07847e-05
2.17931e-06
2.02341e-05
2.21711e-06
1.97142e-05
2.23502e-06
1.9225e-05
2.23491e-06
1.87668e-05
2.21847e-06
1.83403e-05
2.18724e-06
1.79464e-05
2.14261e-06
1.75867e-05
2.0858e-06
1.72633e-05
2.0179e-06
1.6979e-05
1.93989e-06
1.67374e-05
1.85263e-06
1.65424e-05
1.75689e-06
1.63991e-05
1.65336e-06
1.63126e-05
1.54266e-06
1.62889e-05
1.42537e-06
1.63338e-05
1.30205e-06
1.64537e-05
1.17322e-06
1.66543e-05
1.03939e-06
1.69412e-05
9.0106e-07
1.7319e-05
7.58695e-07
1.77906e-05
6.12715e-07
1.83564e-05
4.63441e-07
1.90116e-05
3.11042e-07
1.9742e-05
1.55634e-07
2.05051e-05
2.09397e-05
-3.61642e-06
3.05181e-05
-2.91366e-06
2.97077e-05
-2.2743e-06
2.89095e-05
-1.69527e-06
2.81219e-05
-1.17347e-06
2.73455e-05
-7.05831e-07
2.65821e-05
-2.89243e-07
2.58342e-05
7.94258e-08
2.51044e-05
4.03283e-07
2.43953e-05
6.85393e-07
2.3709e-05
9.28769e-07
2.30473e-05
1.13634e-06
2.24116e-05
1.31092e-06
2.18027e-05
1.45519e-06
2.12215e-05
1.57168e-06
2.06682e-05
1.66276e-06
2.01431e-05
1.73064e-06
1.96463e-05
1.77738e-06
1.91783e-05
1.80485e-06
1.87393e-05
1.8148e-06
1.83303e-05
1.8088e-06
1.79524e-05
1.78828e-06
1.76072e-05
1.75454e-06
1.72971e-05
1.70874e-06
1.70248e-05
1.65194e-06
1.67942e-05
1.58509e-06
1.66093e-05
1.50905e-06
1.64751e-05
1.42463e-06
1.63971e-05
1.33256e-06
1.63809e-05
1.23354e-06
1.64329e-05
1.12825e-06
1.6559e-05
1.01733e-06
1.67652e-05
9.01422e-07
1.70571e-05
7.81162e-07
1.74392e-05
6.57149e-07
1.79146e-05
5.29938e-07
1.84836e-05
3.99995e-07
1.91416e-05
2.6767e-07
1.98743e-05
1.33337e-07
2.06394e-05
2.1073e-05
-4.68128e-06
2.97031e-05
-3.93449e-06
2.89609e-05
-3.25241e-06
2.82275e-05
-2.63175e-06
2.75012e-05
-2.0693e-06
2.6783e-05
-1.5619e-06
2.60747e-05
-1.10641e-06
2.53787e-05
-6.99692e-07
2.46977e-05
-3.38674e-07
2.40343e-05
-2.03035e-08
2.33906e-05
2.58394e-07
2.27686e-05
5.00287e-07
2.21697e-05
7.08147e-07
2.15949e-05
8.84624e-07
2.1045e-05
1.03222e-06
2.05206e-05
1.1533e-06
2.0022e-05
1.25005e-06
1.95496e-05
1.32453e-06
1.91038e-05
1.37864e-06
1.86852e-05
1.41414e-06
1.82948e-05
1.43265e-06
1.79339e-05
1.43563e-06
1.76042e-05
1.42443e-06
1.73082e-05
1.40029e-06
1.7049e-05
1.36434e-06
1.68301e-05
1.31761e-06
1.6656e-05
1.26107e-06
1.65317e-05
1.19559e-06
1.64625e-05
1.12204e-06
1.64545e-05
1.04122e-06
1.65137e-05
9.53914e-07
1.66463e-05
8.60898e-07
1.68582e-05
7.62939e-07
1.7155e-05
6.60793e-07
1.75414e-05
5.55192e-07
1.80202e-05
4.4683e-07
1.8592e-05
3.36326e-07
1.92521e-05
2.24206e-07
1.99864e-05
1.11077e-07
2.07525e-05
2.11841e-05
-5.70266e-06
2.88458e-05
-4.91493e-06
2.81732e-05
-4.19309e-06
2.75056e-05
-3.53367e-06
2.68418e-05
-2.93332e-06
2.61827e-05
-2.38882e-06
2.55302e-05
-1.89697e-06
2.48869e-05
-1.45464e-06
2.42554e-05
-1.05877e-06
2.36384e-05
-7.06331e-07
2.30382e-05
-3.94409e-07
2.24567e-05
-1.20153e-07
2.18954e-05
1.19177e-07
2.13555e-05
3.26187e-07
2.0838e-05
5.03349e-07
2.03434e-05
6.52997e-07
1.98723e-05
7.77329e-07
1.94252e-05
8.78393e-07
1.90027e-05
9.58103e-07
1.86055e-05
1.01823e-06
1.82347e-05
1.06042e-06
1.78917e-05
1.08619e-06
1.75784e-05
1.09692e-06
1.72975e-05
1.09392e-06
1.7052e-05
1.07838e-06
1.68457e-05
1.0514e-06
1.6683e-05
1.01404e-06
1.6569e-05
9.67271e-07
1.65093e-05
9.12041e-07
1.65097e-05
8.49263e-07
1.65765e-05
7.79833e-07
1.67157e-05
7.04642e-07
1.69334e-05
6.24576e-07
1.72351e-05
5.40513e-07
1.76254e-05
4.53316e-07
1.81074e-05
3.63813e-07
1.86815e-05
2.72769e-07
1.93431e-05
1.80883e-07
2.00782e-05
8.89509e-08
2.08444e-05
2.1273e-05
-6.67537e-06
2.79501e-05
-5.85035e-06
2.73482e-05
-5.09216e-06
2.67474e-05
-4.39719e-06
2.61468e-05
-3.762e-06
2.55475e-05
-3.1833e-06
2.49515e-05
-2.65786e-06
2.43614e-05
-2.18254e-06
2.37801e-05
-1.7543e-06
2.32102e-05
-1.37015e-06
2.2654e-05
-1.02718e-06
2.21137e-05
-7.22601e-07
2.15908e-05
-4.53716e-07
2.10866e-05
-2.17953e-07
2.06022e-05
-1.2862e-08
2.01383e-05
1.63871e-07
1.96956e-05
3.14418e-07
1.92747e-05
4.40827e-07
1.88763e-05
5.45014e-07
1.85013e-05
6.28767e-07
1.81509e-05
6.9375e-07
1.78267e-05
7.41505e-07
1.75307e-05
7.73473e-07
1.72655e-05
7.90994e-07
1.70344e-05
7.95326e-07
1.68413e-05
7.87648e-07
1.66907e-05
7.6908e-07
1.65876e-05
7.40687e-07
1.65377e-05
7.03502e-07
1.65469e-05
6.58536e-07
1.66214e-05
6.06791e-07
1.67674e-05
5.49267e-07
1.69909e-05
4.86964e-07
1.72974e-05
4.20878e-07
1.76915e-05
3.51995e-07
1.81763e-05
2.81274e-07
1.87522e-05
2.09621e-07
1.94148e-05
1.37882e-07
2.015e-05
6.70202e-08
2.09152e-05
2.134e-05
-7.59435e-06
2.70203e-05
-6.73616e-06
2.649e-05
-5.94546e-06
2.59567e-05
-5.21853e-06
2.54199e-05
-4.55185e-06
2.48808e-05
-3.9421e-06
2.43417e-05
-3.38603e-06
2.38054e-05
-2.88053e-06
2.32746e-05
-2.42256e-06
2.27522e-05
-2.00916e-06
2.22406e-05
-1.63747e-06
2.1742e-05
-1.30474e-06
2.12581e-05
-1.0083e-06
2.07902e-05
-7.45636e-07
2.03396e-05
-5.1433e-07
1.9907e-05
-3.12103e-07
1.94933e-05
-1.36792e-07
1.90993e-05
1.36412e-08
1.87258e-05
1.41112e-07
1.83738e-05
2.47409e-07
1.80446e-05
3.34209e-07
1.77398e-05
4.03082e-07
1.74618e-05
4.55503e-07
1.72131e-05
4.92859e-07
1.69971e-05
5.16457e-07
1.68177e-05
5.2754e-07
1.66796e-05
5.27295e-07
1.65879e-05
5.16865e-07
1.65482e-05
4.97367e-07
1.65665e-05
4.69903e-07
1.66489e-05
4.35572e-07
1.68018e-05
3.95478e-07
1.7031e-05
3.50728e-07
1.73422e-05
3.02431e-07
1.77398e-05
2.51689e-07
1.82271e-05
1.99583e-07
1.88043e-05
1.47144e-07
1.94672e-05
9.53456e-08
2.02018e-05
4.52821e-08
2.09653e-05
2.13853e-05
-8.45472e-06
2.60617e-05
-7.56798e-06
2.56032e-05
-6.74899e-06
2.51377e-05
-5.99399e-06
2.46649e-05
-5.29946e-06
2.41863e-05
-4.66204e-06
2.37043e-05
-4.07852e-06
2.32218e-05
-3.5458e-06
2.27419e-05
-3.06087e-06
2.22673e-05
-2.62082e-06
2.18006e-05
-2.22285e-06
2.1344e-05
-1.86423e-06
2.08994e-05
-1.54236e-06
2.04683e-05
-1.25475e-06
2.0052e-05
-9.99046e-07
1.96513e-05
-7.72983e-07
1.92673e-05
-5.74431e-07
1.89008e-05
-4.0137e-07
1.85527e-05
-2.51898e-07
1.82243e-05
-1.24224e-07
1.79169e-05
-1.66584e-08
1.76323e-05
7.23865e-08
1.73727e-05
1.4441e-07
1.7141e-05
2.00834e-07
1.69406e-05
2.43013e-07
1.67755e-05
2.72243e-07
1.66504e-05
2.89773e-07
1.65704e-05
2.96817e-07
1.65411e-05
2.9457e-07
1.65687e-05
2.84219e-07
1.66593e-05
2.66954e-07
1.6819e-05
2.43975e-07
1.7054e-05
2.16488e-07
1.73697e-05
1.85709e-07
1.77706e-05
1.52847e-07
1.826e-05
1.19094e-07
1.88381e-05
8.55947e-08
1.95007e-05
5.34157e-08
2.0234e-05
2.36172e-08
2.09951e-05
2.14089e-05
-9.25198e-06
2.50796e-05
-8.34166e-06
2.46929e-05
-7.49895e-06
2.4295e-05
-6.72009e-06
2.3886e-05
-6.00157e-06
2.34678e-05
-5.34009e-06
2.30428e-05
-4.73246e-06
2.26142e-05
-4.17563e-06
2.2185e-05
-3.66666e-06
2.17583e-05
-3.20268e-06
2.13366e-05
-2.78095e-06
2.09223e-05
-2.39881e-06
2.05173e-05
-2.05371e-06
2.01232e-05
-1.74322e-06
1.97415e-05
-1.46501e-06
1.93731e-05
-1.21687e-06
1.90191e-05
-9.96686e-07
1.86806e-05
-8.02477e-07
1.83585e-05
-6.32352e-07
1.80541e-05
-4.84529e-07
1.7769e-05
-3.57321e-07
1.7505e-05
-2.49131e-07
1.72645e-05
-1.5844e-07
1.70503e-05
-8.37921e-08
1.6866e-05
-2.37949e-08
1.67155e-05
2.28944e-08
1.66037e-05
5.75785e-08
1.65357e-05
8.15346e-08
1.65172e-05
9.6029e-08
1.65542e-05
1.02328e-07
1.6653e-05
1.01704e-07
1.68197e-05
9.54454e-08
1.70603e-05
8.48515e-08
1.73802e-05
7.12344e-08
1.77842e-05
5.59065e-08
1.82753e-05
4.01597e-08
1.88538e-05
2.52262e-08
1.95157e-05
1.2223e-08
2.0247e-05
1.91485e-09
2.10054e-05
2.14109e-05
-9.98207e-06
2.408e-05
-9.05348e-06
2.37643e-05
-8.19188e-06
2.34334e-05
-7.39358e-06
2.30877e-05
-6.65515e-06
2.27293e-05
-5.97337e-06
2.2361e-05
-5.34512e-06
2.1986e-05
-4.76744e-06
2.16074e-05
-4.23746e-06
2.12283e-05
-3.75239e-06
2.08515e-05
-3.30954e-06
2.04794e-05
-2.90633e-06
2.01141e-05
-2.54029e-06
1.97572e-05
-2.20903e-06
1.94102e-05
-1.91029e-06
1.90743e-05
-1.64189e-06
1.87507e-05
-1.40177e-06
1.84404e-05
-1.18797e-06
1.81447e-05
-9.98624e-07
1.78648e-05
-8.31966e-07
1.76024e-05
-6.86317e-07
1.73594e-05
-5.60076e-07
1.71382e-05
-4.51711e-07
1.69419e-05
-3.59748e-07
1.6774e-05
-2.82763e-07
1.66385e-05
-2.19376e-07
1.65403e-05
-1.68236e-07
1.64845e-05
-1.28005e-07
1.6477e-05
-9.73527e-08
1.65236e-05
-7.49432e-08
1.66306e-05
-5.94271e-08
1.68041e-05
-4.9438e-08
1.70503e-05
-4.35898e-08
1.73744e-05
-4.04827e-08
1.77811e-05
-3.87139e-08
1.82735e-05
-3.69071e-08
1.8852e-05
-3.37846e-08
1.95125e-05
-2.83888e-08
2.02416e-05
-2.09881e-08
2.0998e-05
2.13899e-05
-1.06415e-05
2.30688e-05
-9.70018e-06
2.28229e-05
-8.8247e-06
2.25579e-05
-8.01155e-06
2.22746e-05
-7.25745e-06
2.19752e-05
-6.55926e-06
2.16628e-05
-5.91402e-06
2.13407e-05
-5.31885e-06
2.10122e-05
-4.77098e-06
2.06804e-05
-4.26772e-06
2.03482e-05
-3.80647e-06
2.00182e-05
-3.38473e-06
1.96924e-05
-3.0001e-06
1.93726e-05
-2.65027e-06
1.90604e-05
-2.33303e-06
1.87571e-05
-2.04627e-06
1.84639e-05
-1.78797e-06
1.81821e-05
-1.5562e-06
1.79129e-05
-1.34913e-06
1.76577e-05
-1.16502e-06
1.74182e-05
-1.0022e-06
1.71965e-05
-8.59076e-07
1.69951e-05
-7.34113e-07
1.6817e-05
-6.2582e-07
1.66657e-05
-5.32753e-07
1.65455e-05
-4.53498e-07
1.6461e-05
-3.86661e-07
1.64177e-05
-3.30857e-07
1.64212e-05
-2.84698e-07
1.64774e-05
-2.46787e-07
1.65927e-05
-2.15707e-07
1.67731e-05
-1.90018e-07
1.70246e-05
-1.68258e-07
1.73527e-05
-1.48948e-07
1.77618e-05
-1.30606e-07
1.82552e-05
-1.11787e-07
1.88332e-05
-9.11745e-08
1.94919e-05
-6.7834e-08
2.02183e-05
-4.20777e-08
2.09723e-05
2.13478e-05
-1.12276e-05
2.20524e-05
-1.02791e-05
2.18744e-05
-9.39482e-06
2.16737e-05
-8.57152e-06
2.14513e-05
-7.80605e-06
2.12098e-05
-7.09546e-06
2.09522e-05
-6.43691e-06
2.06822e-05
-5.82768e-06
2.04029e-05
-5.26512e-06
2.01178e-05
-4.74664e-06
1.98298e-05
-4.26976e-06
1.95413e-05
-3.83208e-06
1.92547e-05
-3.43128e-06
1.89718e-05
-3.06513e-06
1.86942e-05
-2.73149e-06
1.84234e-05
-2.42832e-06
1.81607e-05
-2.15364e-06
1.79074e-05
-1.90558e-06
1.76648e-05
-1.68234e-06
1.74345e-05
-1.48222e-06
1.72181e-05
-1.30357e-06
1.70179e-05
-1.1448e-06
1.68363e-05
-1.00438e-06
1.66765e-05
-8.8081e-07
1.65421e-05
-7.72632e-07
1.64373e-05
-6.78407e-07
1.63668e-05
-5.96706e-07
1.6336e-05
-5.26104e-07
1.63506e-05
-4.65164e-07
1.64165e-05
-4.12435e-07
1.65399e-05
-3.66439e-07
1.67271e-05
-3.25674e-07
1.69838e-05
-2.88608e-07
1.73156e-05
-2.53692e-07
1.77269e-05
-2.19372e-07
1.82209e-05
-1.84139e-07
1.8798e-05
-1.46627e-07
1.94544e-05
-1.05854e-07
2.01775e-05
-6.18637e-08
2.09283e-05
2.1286e-05
-1.17381e-05
2.10368e-05
-1.0788e-05
2.09243e-05
-9.90017e-06
2.07858e-05
-9.07143e-06
2.06225e-05
-8.29893e-06
2.04373e-05
-7.57995e-06
2.02333e-05
-6.91183e-06
2.0014e-05
-6.29201e-06
1.97831e-05
-5.71798e-06
1.95438e-05
-5.18731e-06
1.92991e-05
-4.69762e-06
1.90516e-05
-4.24662e-06
1.88037e-05
-3.8321e-06
1.85572e-05
-3.45193e-06
1.8314e-05
-3.10403e-06
1.80755e-05
-2.78643e-06
1.78431e-05
-2.49724e-06
1.76182e-05
-2.23462e-06
1.74022e-05
-1.99684e-06
1.71967e-05
-1.7822e-06
1.70035e-05
-1.58911e-06
1.68248e-05
-1.41598e-06
1.66632e-05
-1.2613e-06
1.65218e-05
-1.12357e-06
1.64044e-05
-1.00131e-06
1.6315e-05
-8.93075e-07
1.62586e-05
-7.97408e-07
1.62403e-05
-7.12848e-07
1.6266e-05
-6.3792e-07
1.63415e-05
-5.71125e-07
1.64731e-05
-5.10934e-07
1.66669e-05
-4.55787e-07
1.69287e-05
-4.04092e-07
1.72639e-05
-3.54234e-07
1.76771e-05
-3.04595e-07
1.81712e-05
-2.53597e-07
1.8747e-05
-1.99803e-07
1.94006e-05
-1.42119e-07
2.01198e-05
-8.02645e-08
2.08665e-05
2.12057e-05
-1.21719e-05
2.00281e-05
-1.12257e-05
1.99782e-05
-1.03392e-05
1.98993e-05
-9.50971e-06
1.9793e-05
-8.7345e-06
1.96621e-05
-8.01112e-06
1.95099e-05
-7.33715e-06
1.93401e-05
-6.7102e-06
1.91562e-05
-6.12794e-06
1.89615e-05
-5.58809e-06
1.87592e-05
-5.08842e-06
1.85519e-05
-4.62676e-06
1.8342e-05
-4.201e-06
1.81315e-05
-3.80911e-06
1.79221e-05
-3.44912e-06
1.77155e-05
-3.11914e-06
1.75131e-05
-2.81732e-06
1.73164e-05
-2.54192e-06
1.71268e-05
-2.29124e-06
1.6946e-05
-2.06365e-06
1.67759e-05
-1.85755e-06
1.66187e-05
-1.67141e-06
1.64771e-05
-1.50372e-06
1.63542e-05
-1.35298e-06
1.62536e-05
-1.21774e-06
1.61798e-05
-1.09651e-06
1.61373e-05
-9.87837e-07
1.61317e-05
-8.90224e-07
1.61684e-05
-8.02164e-07
1.62535e-05
-7.22121e-07
1.63931e-05
-6.48521e-07
1.65933e-05
-5.79753e-07
1.68599e-05
-5.14173e-07
1.71983e-05
-4.50105e-07
1.7613e-05
-3.8587e-07
1.8107e-05
-3.19823e-07
1.8681e-05
-2.50438e-07
1.93313e-05
-1.76493e-07
2.00459e-05
-9.74262e-08
2.07874e-05
2.11083e-05
-1.25283e-05
1.90318e-05
-1.15913e-05
1.90412e-05
-1.07111e-05
1.90191e-05
-9.88531e-06
1.89672e-05
-9.11158e-06
1.88883e-05
-8.38773e-06
1.8786e-05
-7.71156e-06
1.86639e-05
-7.08091e-06
1.85255e-05
-6.49363e-06
1.83742e-05
-5.94761e-06
1.82132e-05
-5.44077e-06
1.80451e-05
-4.97108e-06
1.78723e-05
-4.53657e-06
1.7697e-05
-4.1353e-06
1.75209e-05
-3.76541e-06
1.73456e-05
-3.42508e-06
1.71728e-05
-3.11258e-06
1.70039e-05
-2.82619e-06
1.68405e-05
-2.56431e-06
1.66842e-05
-2.32533e-06
1.65369e-05
-2.10771e-06
1.64011e-05
-1.90994e-06
1.62793e-05
-1.73053e-06
1.61747e-05
-1.56802e-06
1.60911e-05
-1.42092e-06
1.60327e-05
-1.28778e-06
1.60042e-05
-1.16711e-06
1.6011e-05
-1.0574e-06
1.60587e-05
-9.57126e-07
1.61532e-05
-8.64713e-07
1.63007e-05
-7.78552e-07
1.65071e-05
-6.96989e-07
1.67783e-05
-6.18331e-07
1.71197e-05
-5.40853e-07
1.75355e-05
-4.62817e-07
1.8029e-05
-3.82511e-07
1.86007e-05
-2.98325e-07
1.92471e-05
-2.08912e-07
1.99565e-05
-1.13483e-07
2.0692e-05
2.09948e-05
-1.28076e-05
1.80533e-05
-1.18848e-05
1.81184e-05
-1.10154e-05
1.81498e-05
-1.01977e-05
1.81494e-05
-9.42947e-06
1.81201e-05
-8.70893e-06
1.80655e-05
-8.03412e-06
1.79891e-05
-7.40311e-06
1.78945e-05
-6.81394e-06
1.77851e-05
-6.26471e-06
1.7664e-05
-5.75349e-06
1.75339e-05
-5.2784e-06
1.73972e-05
-4.8376e-06
1.72562e-05
-4.42927e-06
1.71125e-05
-4.05166e-06
1.6968e-05
-3.70305e-06
1.68242e-05
-3.38179e-06
1.66827e-05
-3.08625e-06
1.65449e-05
-2.81487e-06
1.64128e-05
-2.56611e-06
1.62882e-05
-2.33848e-06
1.61735e-05
-2.13051e-06
1.60713e-05
-1.94073e-06
1.5985e-05
-1.76768e-06
1.59181e-05
-1.60993e-06
1.58749e-05
-1.46599e-06
1.58603e-05
-1.33438e-06
1.58794e-05
-1.21359e-06
1.59379e-05
-1.10207e-06
1.60417e-05
-9.98221e-07
1.61968e-05
-9.00404e-07
1.64093e-05
-8.0693e-07
1.66849e-05
-7.16066e-07
1.70288e-05
-6.26043e-07
1.74455e-05
-5.3507e-07
1.7938e-05
-4.41375e-07
1.8507e-05
-3.4327e-07
1.9149e-05
-2.39292e-07
1.98526e-05
-1.2846e-07
2.05812e-05
2.08664e-05
-1.30108e-05
1.70973e-05
-1.21066e-05
1.72142e-05
-1.12524e-05
1.72956e-05
-1.04467e-05
1.73437e-05
-9.68786e-06
1.73613e-05
-8.97425e-06
1.73519e-05
-8.30422e-06
1.73191e-05
-7.67607e-06
1.72663e-05
-7.08808e-06
1.71971e-05
-6.53851e-06
1.71144e-05
-6.02563e-06
1.7021e-05
-5.54772e-06
1.69193e-05
-5.10306e-06
1.68115e-05
-4.68997e-06
1.66994e-05
-4.30682e-06
1.65849e-05
-3.95198e-06
1.64694e-05
-3.6239e-06
1.63546e-05
-3.32103e-06
1.62421e-05
-3.04188e-06
1.61336e-05
-2.78498e-06
1.60313e-05
-2.54887e-06
1.59374e-05
-2.33214e-06
1.58546e-05
-2.13335e-06
1.57862e-05
-1.95107e-06
1.57358e-05
-1.78387e-06
1.57077e-05
-1.63029e-06
1.57067e-05
-1.48886e-06
1.57379e-05
-1.35805e-06
1.58071e-05
-1.2363e-06
1.59199e-05
-1.122e-06
1.60825e-05
-1.01349e-06
1.63008e-05
-9.09041e-07
1.65804e-05
-8.06902e-07
1.69267e-05
-7.0526e-07
1.73439e-05
-6.02282e-07
1.7835e-05
-4.9614e-07
1.84009e-05
-3.85076e-07
1.9038e-05
-2.67524e-07
1.9735e-05
-1.42326e-07
2.04561e-05
2.07241e-05
-1.31393e-05
1.61682e-05
-1.22578e-05
1.63327e-05
-1.14227e-05
1.64606e-05
-1.06328e-05
1.65538e-05
-9.88689e-06
1.66154e-05
-9.18361e-06
1.66486e-05
-8.52159e-06
1.6657e-05
-7.89939e-06
1.66441e-05
-7.31549e-06
1.66132e-05
-6.76838e-06
1.65673e-05
-6.25649e-06
1.65091e-05
-5.77825e-06
1.64411e-05
-5.33212e-06
1.63654e-05
-4.91654e-06
1.62839e-05
-4.52998e-06
1.61983e-05
-4.17095e-06
1.61104e-05
-3.83797e-06
1.60216e-05
-3.5296e-06
1.59337e-05
-3.2444e-06
1.58484e-05
-2.98099e-06
1.57679e-05
-2.73796e-06
1.56943e-05
-2.51394e-06
1.56306e-05
-2.30752e-06
1.55798e-05
-2.11733e-06
1.55456e-05
-1.94194e-06
1.55323e-05
-1.77993e-06
1.55447e-05
-1.62981e-06
1.55878e-05
-1.49008e-06
1.56673e-05
-1.35917e-06
1.5789e-05
-1.23545e-06
1.59588e-05
-1.11724e-06
1.61826e-05
-1.00282e-06
1.6466e-05
-8.90388e-07
1.68142e-05
-7.78111e-07
1.72316e-05
-6.64119e-07
1.77211e-05
-5.46538e-07
1.82833e-05
-4.23546e-07
1.8915e-05
-2.93484e-07
1.9605e-05
-1.55027e-07
2.03176e-05
2.0569e-05
-1.31951e-05
1.52696e-05
-1.234e-05
1.54775e-05
-1.15275e-05
1.56481e-05
-1.07568e-05
1.57832e-05
-1.00271e-05
1.58857e-05
-9.33728e-06
1.59588e-05
-8.6863e-06
1.60061e-05
-8.07295e-06
1.60308e-05
-7.49593e-06
1.60362e-05
-6.95393e-06
1.60253e-05
-6.44556e-06
1.60007e-05
-5.96944e-06
1.5965e-05
-5.52415e-06
1.59201e-05
-5.10828e-06
1.5868e-05
-4.72042e-06
1.58105e-05
-4.35919e-06
1.57491e-05
-4.02322e-06
1.56856e-05
-3.71115e-06
1.56216e-05
-3.42164e-06
1.55589e-05
-3.15335e-06
1.54996e-05
-2.90495e-06
1.54459e-05
-2.67511e-06
1.54007e-05
-2.46248e-06
1.53671e-05
-2.26571e-06
1.53488e-05
-2.08342e-06
1.53501e-05
-1.91419e-06
1.53755e-05
-1.75657e-06
1.54302e-05
-1.60905e-06
1.55198e-05
-1.47007e-06
1.565e-05
-1.338e-06
1.58267e-05
-1.21116e-06
1.60557e-05
-1.08779e-06
1.63426e-05
-9.66102e-07
1.66925e-05
-8.44228e-07
1.71097e-05
-7.20269e-07
1.75971e-05
-5.92313e-07
1.81554e-05
-4.58485e-07
1.87812e-05
-3.17041e-07
1.94635e-05
-1.66502e-07
2.01671e-05
2.04025e-05
-1.31809e-05
1.44046e-05
-1.23551e-05
1.46517e-05
-1.15683e-05
1.48612e-05
-1.08198e-05
1.50347e-05
-1.01093e-05
1.51751e-05
-9.43584e-06
1.52854e-05
-8.79871e-06
1.53689e-05
-8.19691e-06
1.5429e-05
-7.62939e-06
1.54687e-05
-7.09502e-06
1.54909e-05
-6.5926e-06
1.54983e-05
-6.12092e-06
1.54933e-05
-5.6787e-06
1.54778e-05
-5.26467e-06
1.5454e-05
-4.87756e-06
1.54233e-05
-4.5161e-06
1.53877e-05
-4.179e-06
1.53485e-05
-3.86502e-06
1.53076e-05
-3.57289e-06
1.52668e-05
-3.30135e-06
1.5228e-05
-3.04913e-06
1.51937e-05
-2.81495e-06
1.51665e-05
-2.59753e-06
1.51497e-05
-2.39554e-06
1.51469e-05
-2.20764e-06
1.51622e-05
-2.03244e-06
1.52003e-05
-1.86852e-06
1.52663e-05
-1.71438e-06
1.53657e-05
-1.56846e-06
1.55041e-05
-1.42915e-06
1.56874e-05
-1.29476e-06
1.59213e-05
-1.16353e-06
1.62114e-05
-1.03366e-06
1.65627e-05
-9.03269e-07
1.69794e-05
-7.7044e-07
1.74643e-05
-6.33228e-07
1.80181e-05
-4.89712e-07
1.86377e-05
-3.38072e-07
1.93119e-05
-1.76687e-07
2.00057e-05
2.02258e-05
-1.30993e-05
1.35757e-05
-1.23055e-05
1.3858e-05
-1.1547e-05
1.41026e-05
-1.08234e-05
1.43112e-05
-1.01346e-05
1.44863e-05
-9.48017e-06
1.46309e-05
-8.85943e-06
1.47482e-05
-8.27169e-06
1.48412e-05
-7.7161e-06
1.49131e-05
-7.19172e-06
1.49665e-05
-6.69755e-06
1.50042e-05
-6.23252e-06
1.50282e-05
-5.79551e-06
1.50408e-05
-5.38539e-06
1.50438e-05
-5.001e-06
1.5039e-05
-4.6412e-06
1.50279e-05
-4.30481e-06
1.50121e-05
-3.99067e-06
1.49935e-05
-3.6976e-06
1.49737e-05
-3.42441e-06
1.49548e-05
-3.16991e-06
1.49392e-05
-2.93288e-06
1.49295e-05
-2.71207e-06
1.49289e-05
-2.50622e-06
1.4941e-05
-2.31402e-06
1.497e-05
-2.13413e-06
1.50204e-05
-1.96513e-06
1.50973e-05
-1.80555e-06
1.52061e-05
-1.65386e-06
1.53524e-05
-1.50844e-06
1.5542e-05
-1.36762e-06
1.57805e-05
-1.22965e-06
1.60734e-05
-1.09271e-06
1.64257e-05
-9.54927e-07
1.68416e-05
-8.14367e-07
1.73237e-05
-6.69064e-07
1.78728e-05
-5.17058e-07
1.84857e-05
-3.56464e-07
1.91513e-05
-1.85531e-07
1.98348e-05
2.00403e-05
-1.29534e-05
1.27849e-05
-1.21938e-05
1.30984e-05
-1.14657e-05
1.33745e-05
-1.07693e-05
1.36148e-05
-1.01046e-05
1.38216e-05
-9.47138e-06
1.39977e-05
-8.86933e-06
1.41461e-05
-8.29792e-06
1.42698e-05
-7.7565e-06
1.43717e-05
-7.24433e-06
1.44544e-05
-6.76055e-06
1.45204e-05
-6.30426e-06
1.45719e-05
-5.87449e-06
1.46111e-05
-5.47024e-06
1.46396e-05
-5.09049e-06
1.46592e-05
-4.73419e-06
1.46716e-05
-4.40028e-06
1.46782e-05
-4.08769e-06
1.46809e-05
-3.79532e-06
1.46813e-05
-3.52208e-06
1.46816e-05
-3.26681e-06
1.46839e-05
-3.02838e-06
1.46911e-05
-2.8056e-06
1.47061e-05
-2.59725e-06
1.47327e-05
-2.40208e-06
1.47748e-05
-2.21876e-06
1.48371e-05
-2.04592e-06
1.49245e-05
-1.88211e-06
1.50423e-05
-1.72582e-06
1.51961e-05
-1.57546e-06
1.53916e-05
-1.42936e-06
1.56344e-05
-1.28579e-06
1.59299e-05
-1.14294e-06
1.62829e-05
-9.98928e-07
1.66976e-05
-8.51816e-07
1.71766e-05
-6.99627e-07
1.77207e-05
-5.40374e-07
1.83264e-05
-3.72116e-07
1.8983e-05
-1.92986e-07
1.96556e-05
1.98473e-05
-1.27463e-05
1.20336e-05
-1.20225e-05
1.23745e-05
-1.13267e-05
1.26787e-05
-1.06593e-05
1.29475e-05
-1.00207e-05
1.3183e-05
-9.41078e-06
1.33878e-05
-8.82948e-06
1.35648e-05
-8.27646e-06
1.37168e-05
-7.75126e-06
1.38465e-05
-7.25331e-06
1.39564e-05
-6.78192e-06
1.4049e-05
-6.33633e-06
1.41263e-05
-5.91573e-06
1.41905e-05
-5.51922e-06
1.42431e-05
-5.14593e-06
1.42859e-05
-4.7949e-06
1.43205e-05
-4.46518e-06
1.43485e-05
-4.1558e-06
1.43715e-05
-3.86575e-06
1.43912e-05
-3.59399e-06
1.44098e-05
-3.33946e-06
1.44294e-05
-3.10108e-06
1.44527e-05
-2.87773e-06
1.44828e-05
-2.66824e-06
1.45232e-05
-2.4714e-06
1.4578e-05
-2.28594e-06
1.46516e-05
-2.1105e-06
1.4749e-05
-1.94368e-06
1.48755e-05
-1.784e-06
1.50364e-05
-1.62987e-06
1.52375e-05
-1.47967e-06
1.54842e-05
-1.33168e-06
1.57819e-05
-1.18409e-06
1.61353e-05
-1.03503e-06
1.65485e-05
-8.82582e-07
1.70242e-05
-7.24749e-07
1.75628e-05
-5.59531e-07
1.81612e-05
-3.84941e-07
1.88084e-05
-1.99013e-07
1.94697e-05
1.96483e-05
-1.24814e-05
1.13228e-05
-1.17945e-05
1.16877e-05
-1.11323e-05
1.20166e-05
-1.04956e-05
1.23107e-05
-9.88469e-06
1.2572e-05
-9.29984e-06
1.2803e-05
-8.74109e-06
1.30061e-05
-8.20829e-06
1.3184e-05
-7.70117e-06
1.33393e-05
-7.2193e-06
1.34745e-05
-6.76215e-06
1.35918e-05
-6.3291e-06
1.36933e-05
-5.91945e-06
1.37808e-05
-5.53247e-06
1.38561e-05
-5.16736e-06
1.39208e-05
-4.8233e-06
1.39765e-05
-4.49943e-06
1.40246e-05
-4.19486e-06
1.40669e-05
-3.90867e-06
1.4105e-05
-3.63991e-06
1.4141e-05
-3.38759e-06
1.41771e-05
-3.15069e-06
1.42158e-05
-2.92815e-06
1.42603e-05
-2.71887e-06
1.4314e-05
-2.52167e-06
1.43808e-05
-2.33534e-06
1.44653e-05
-2.15856e-06
1.45723e-05
-1.98996e-06
1.47069e-05
-1.82808e-06
1.48745e-05
-1.67139e-06
1.50808e-05
-1.51828e-06
1.53311e-05
-1.36705e-06
1.56307e-05
-1.21592e-06
1.59842e-05
-1.06304e-06
1.63956e-05
-9.06491e-07
1.68676e-05