/*--------------------------------*- C++ -*----------------------------------*\
  =========                 |
  \\      /  F ield         | OpenFOAM: The Open Source CFD Toolbox
   \\    /   O peration     | Website:  https://openfoam.org
    \\  /    A nd           | Version:  9
     \\/     M anipulation  |
\*---------------------------------------------------------------------------*/
FoamFile
{
    format      ascii;
    class       volVectorField;
    location    "0.15";
    object      U;
}
// * * * * * * * * * * * * * * * * * * * * * * * * * * * * * * * * * * * * * //

dimensions      [0 1 -1 0 0 0 0];

internalField   nonuniform List<vector> 
1935
(
(-0.0417164 0.394592 0)
(-0.0561902 0.384618 0)
(-0.0700499 0.373968 0)
(-0.0832167 0.36266 0)
(-0.0956087 0.350721 0)
(-0.107146 0.338192 0)
(-0.117752 0.32513 0)
(-0.127359 0.311607 0)
(-0.135906 0.297704 0)
(-0.143347 0.283518 0)
(-0.149651 0.269149 0)
(-0.154802 0.254705 0)
(-0.158801 0.240292 0)
(-0.161668 0.226017 0)
(-0.163438 0.21198 0)
(-0.164157 0.19827 0)
(-0.163887 0.184969 0)
(-0.162697 0.172144 0)
(-0.16066 0.159851 0)
(-0.157855 0.148132 0)
(-0.154361 0.137017 0)
(-0.150254 0.126524 0)
(-0.145607 0.116661 0)
(-0.140489 0.107428 0)
(-0.134963 0.098818 0)
(-0.129086 0.0908176 0)
(-0.122909 0.0834096 0)
(-0.116476 0.0765738 0)
(-0.109825 0.070288 0)
(-0.102989 0.0645292 0)
(-0.0959957 0.0592739 0)
(-0.0888675 0.0544994 0)
(-0.0816249 0.0501838 0)
(-0.0742877 0.0463072 0)
(-0.0668778 0.0428524 0)
(-0.059425 0.0398059 0)
(-0.0519745 0.0371602 0)
(-0.0445993 0.0349163 0)
(-0.0374183 0.0330884 0)
(-0.0306245 0.0317092 0)
(-0.0245237 0.0308229 0)
(-0.0195824 0.0305415 0)
(-0.0165439 0.0309326 0)
(-0.0330693 0.381504 0)
(-0.0253146 0.369468 0)
(-0.018162 0.358205 0)
(-0.0115809 0.347727 0)
(-0.0470242 0.372272 0)
(-0.0387961 0.360937 0)
(-0.0311918 0.350344 0)
(-0.0241741 0.3405 0)
(-0.0603828 0.362408 0)
(-0.0516982 0.351807 0)
(-0.0436592 0.341912 0)
(-0.0362236 0.332725 0)
(-0.0730767 0.351932 0)
(-0.0639611 0.342103 0)
(-0.0555129 0.332935 0)
(-0.0476848 0.324427 0)
(-0.0850351 0.340872 0)
(-0.0755242 0.331849 0)
(-0.0667004 0.323437 0)
(-0.0585121 0.315631 0)
(-0.0961892 0.329262 0)
(-0.0863277 0.321078 0)
(-0.0771698 0.313448 0)
(-0.0686599 0.306365 0)
(-0.106473 0.317155 0)
(-0.0963145 0.309837 0)
(-0.0868711 0.30301 0)
(-0.0780846 0.296669 0)
(-0.115828 0.304612 0)
(-0.105432 0.298182 0)
(-0.0957583 0.292175 0)
(-0.0867455 0.286589 0)
(-0.1242 0.291708 0)
(-0.113635 0.286178 0)
(-0.103791 0.281002 0)
(-0.094607 0.276179 0)
(-0.13155 0.278525 0)
(-0.120887 0.273899 0)
(-0.110937 0.269556 0)
(-0.101639 0.265498 0)
(-0.137847 0.265154 0)
(-0.12716 0.261426 0)
(-0.117171 0.25791 0)
(-0.10782 0.254612 0)
(-0.143077 0.251687 0)
(-0.132441 0.248841 0)
(-0.122479 0.246138 0)
(-0.113136 0.243588 0)
(-0.147239 0.238222 0)
(-0.136725 0.23623 0)
(-0.126857 0.234317 0)
(-0.117582 0.232496 0)
(-0.150346 0.224851 0)
(-0.140024 0.223679 0)
(-0.130312 0.222525 0)
(-0.121161 0.221405 0)
(-0.152425 0.211666 0)
(-0.142359 0.211269 0)
(-0.132861 0.210836 0)
(-0.123888 0.210384 0)
(-0.153516 0.198748 0)
(-0.143761 0.199076 0)
(-0.13453 0.199319 0)
(-0.125784 0.199498 0)
(-0.15367 0.186174 0)
(-0.144274 0.18717 0)
(-0.135354 0.188041 0)
(-0.126879 0.188808 0)
(-0.152943 0.174008 0)
(-0.143946 0.175612 0)
(-0.135377 0.177059 0)
(-0.127207 0.178368 0)
(-0.151402 0.162303 0)
(-0.142833 0.164455 0)
(-0.134644 0.166423 0)
(-0.126812 0.168227 0)
(-0.149113 0.151102 0)
(-0.140994 0.153741 0)
(-0.133209 0.156176 0)
(-0.125737 0.158426 0)
(-0.146145 0.140437 0)
(-0.13849 0.143504 0)
(-0.131124 0.146352 0)
(-0.12403 0.149001 0)
(-0.142567 0.130331 0)
(-0.135383 0.133767 0)
(-0.128446 0.136978 0)
(-0.121741 0.139978 0)
(-0.138446 0.120796 0)
(-0.131732 0.124549 0)
(-0.125227 0.128072 0)
(-0.118917 0.131379 0)
(-0.133844 0.111836 0)
(-0.127595 0.115856 0)
(-0.12152 0.119647 0)
(-0.115608 0.123218 0)
(-0.12882 0.10345 0)
(-0.123027 0.107693 0)
(-0.117377 0.111709 0)
(-0.111858 0.115507 0)
(-0.123427 0.0956313 0)
(-0.118077 0.100056 0)
(-0.112842 0.10426 0)
(-0.107713 0.108248 0)
(-0.117715 0.0883672 0)
(-0.112792 0.0929394 0)
(-0.107961 0.0972968 0)
(-0.103211 0.101444 0)
(-0.111726 0.0816431 0)
(-0.107213 0.086332 0)
(-0.102771 0.0908141 0)
(-0.098392 0.0950922 0)
(-0.105497 0.0754422 0)
(-0.101376 0.0802217 0)
(-0.0973095 0.084803 0)
(-0.0932889 0.0891871 0)
(-0.0990604 0.069746 0)
(-0.0953135 0.0745945 0)
(-0.091607 0.0792535 0)
(-0.0879327 0.0837224 0)
(-0.0924451 0.0645357 0)
(-0.0890537 0.0694355 0)
(-0.0856918 0.0741545 0)
(-0.0823513 0.0786902 0)
(-0.0856749 0.0597926 0)
(-0.0826215 0.0647298 0)
(-0.0795891 0.0694943 0)
(-0.0765701 0.0740822 0)
(-0.0787714 0.0554986 0)
(-0.0760397 0.060463 0)
(-0.0733228 0.0652619 0)
(-0.0706137 0.06989 0)
(-0.0717562 0.0516374 0)
(-0.0693313 0.056622 0)
(-0.0669172 0.0614471 0)
(-0.0645073 0.0661062 0)
(-0.0646538 0.0481951 0)
(-0.0625231 0.0531959 0)
(-0.0604009 0.0580415 0)
(-0.0582808 0.0627244 0)
(-0.057497 0.0451614 0)
(-0.0556508 0.0501766 0)
(-0.0538119 0.0550389 0)
(-0.051974 0.0597402 0)
(-0.0503359 0.0425307 0)
(-0.0487681 0.0475602 0)
(-0.0472064 0.0524363 0)
(-0.0456446 0.057151 0)
(-0.0432495 0.0403045 0)
(-0.0419584 0.0453476 0)
(-0.0406707 0.0502338 0)
(-0.0393803 0.054956 0)
(-0.0363649 0.0384936 0)
(-0.0353536 0.0435456 0)
(-0.0343387 0.0484341 0)
(-0.0333149 0.0531544 0)
(-0.0298832 0.0371203 0)
(-0.0291576 0.0421667 0)
(-0.0284138 0.0470417 0)
(-0.0276485 0.0517444 0)
(-0.0241127 0.0362083 0)
(-0.0236751 0.0412184 0)
(-0.023193 0.046052 0)
(-0.0226687 0.0507126 0)
(-0.0195023 0.035811 0)
(-0.0193355 0.0407162 0)
(-0.0190867 0.045455 0)
(-0.018769 0.0500319 0)
(-0.0167177 0.0358908 0)
(-0.016744 0.0405406 0)
(-0.0166555 0.0450739 0)
(-0.0164758 0.0494838 0)
(-0.00523089 0.337364 0)
(0.000854399 0.326769 0)
(0.00630361 0.316398 0)
(0.0111449 0.306236 0)
(0.0154084 0.296293 0)
(0.0191248 0.286593 0)
(0.0223259 0.277161 0)
(0.0250447 0.268028 0)
(0.0273152 0.259219 0)
(0.0291712 0.250756 0)
(0.0306464 0.242654 0)
(0.0317737 0.234926 0)
(0.0325846 0.227575 0)
(0.0331093 0.220604 0)
(0.033376 0.214011 0)
(0.0334111 0.207791 0)
(0.0332388 0.201942 0)
(0.0328813 0.196458 0)
(0.0323585 0.191339 0)
(0.031688 0.186585 0)
(0.0308855 0.182204 0)
(0.0299647 0.178206 0)
(0.0289374 0.17461 0)
(0.0278138 0.171439 0)
(0.0266027 0.168728 0)
(0.0253113 0.166514 0)
(0.0239458 0.164845 0)
(0.0225114 0.163774 0)
(0.0210123 0.163357 0)
(0.0194523 0.163656 0)
(0.0178345 0.164731 0)
(0.0161616 0.166644 0)
(0.0144363 0.169449 0)
(0.012661 0.173194 0)
(0.0108378 0.177908 0)
(0.0089679 0.183593 0)
(0.00705131 0.190198 0)
(0.00509699 0.197571 0)
(0.00312626 0.205277 0)
(0.00129723 0.209686 0)
(-0.0173763 0.330767 0)
(-0.0108274 0.320811 0)
(-0.00492163 0.311055 0)
(0.000371875 0.301481 0)
(0.00508416 0.292098 0)
(0.00924545 0.282926 0)
(0.0128871 0.273993 0)
(0.0160414 0.265325 0)
(0.018741 0.256949 0)
(0.0210186 0.248886 0)
(0.0229066 0.241152 0)
(0.0244367 0.233759 0)
(0.0256393 0.226714 0)
(0.0265437 0.22002 0)
(0.0271773 0.213677 0)
(0.0275659 0.207683 0)
(0.0277333 0.202036 0)
(0.0277015 0.196734 0)
(0.0274902 0.191778 0)
(0.0271174 0.187171 0)
(0.0265991 0.182921 0)
(0.0259497 0.179042 0)
(0.0251817 0.175552 0)
(0.0243062 0.172478 0)
(0.0233327 0.169854 0)
(0.0222696 0.167722 0)
(0.0211241 0.166128 0)
(0.0199027 0.165126 0)
(0.0186107 0.164774 0)
(0.0172532 0.165133 0)
(0.0158345 0.166266 0)
(0.014359 0.168233 0)
(0.0128305 0.171089 0)
(0.0112528 0.174882 0)
(0.0096296 0.179641 0)
(0.00796355 0.185369 0)
(0.00625617 0.192015 0)
(0.0045168 0.199431 0)
(0.00276492 0.207182 0)
(0.00114847 0.21161 0)
(-0.0289989 0.323643 0)
(-0.0220098 0.314344 0)
(-0.0156719 0.305216 0)
(-0.00995267 0.296242 0)
(-0.00481972 0.287431 0)
(-0.000241924 0.278799 0)
(0.00381178 0.270374 0)
(0.00737284 0.262182 0)
(0.0104732 0.254249 0)
(0.0131446 0.246596 0)
(0.0154186 0.239241 0)
(0.0173259 0.232197 0)
(0.0188961 0.225471 0)
(0.0201576 0.219068 0)
(0.0211372 0.212989 0)
(0.02186 0.207235 0)
(0.0223496 0.201805 0)
(0.0226275 0.1967 0)
(0.0227136 0.191921 0)
(0.022626 0.187474 0)
(0.022381 0.183369 0)
(0.0219934 0.179621 0)
(0.0214763 0.17625 0)
(0.0208415 0.173285 0)
(0.0200993 0.17076 0)
(0.0192591 0.168718 0)
(0.0183291 0.167208 0)
(0.0173166 0.166282 0)
(0.0162283 0.166002 0)
(0.0150703 0.166427 0)
(0.0138483 0.16762 0)
(0.0125678 0.169643 0)
(0.0112341 0.17255 0)
(0.00985232 0.176389 0)
(0.0084273 0.181191 0)
(0.00696324 0.186958 0)
(0.00546315 0.19364 0)
(0.00393681 0.201092 0)
(0.00240165 0.208878 0)
(0.000995991 0.213314 0)
(-0.0400594 0.316016 0)
(-0.0326584 0.307389 0)
(-0.0259176 0.298903 0)
(-0.0198022 0.290542 0)
(-0.0142782 0.28231 0)
(-0.00931395 0.274229 0)
(-0.00487856 0.266321 0)
(-0.000940438 0.258615 0)
(0.00253187 0.251135 0)
(0.00556933 0.243903 0)
(0.00820255 0.236939 0)
(0.0104615 0.230255 0)
(0.0123751 0.223861 0)
(0.0139709 0.217761 0)
(0.0152752 0.211961 0)
(0.0163127 0.20646 0)
(0.0171064 0.201261 0)
(0.0176779 0.196366 0)
(0.0180467 0.191778 0)
(0.018231 0.187504 0)
(0.0182475 0.183557 0)
(0.0181112 0.179951 0)
(0.0178358 0.176711 0)
(0.0174336 0.173864 0)
(0.0169157 0.171448 0)
(0.0162921 0.169505 0)
(0.015572 0.168085 0)
(0.0147636 0.167243 0)
(0.0138748 0.167038 0)
(0.0129126 0.167533 0)
(0.011884 0.168789 0)
(0.0107956 0.170869 0)
(0.00965397 0.173827 0)
(0.00846545 0.177712 0)
(0.00723625 0.182554 0)
(0.0059719 0.188355 0)
(0.00467693 0.195068 0)
(0.00336167 0.202548 0)
(0.00204173 0.21036 0)
(0.000844755 0.214794 0)
(-0.0505188 0.30791 0)
(-0.0427399 0.299972 0)
(-0.0356296 0.292141 0)
(-0.0291508 0.284402 0)
(-0.023268 0.276761 0)
(-0.017949 0.269237 0)
(-0.0131625 0.261856 0)
(-0.00887735 0.254644 0)
(-0.00506253 0.247627 0)
(-0.00168747 0.240828 0)
(0.00127798 0.234265 0)
(0.00386294 0.227952 0)
(0.00609552 0.221901 0)
(0.00800278 0.216117 0)
(0.00961042 0.210606 0)
(0.0109427 0.205372 0)
(0.0120222 0.200416 0)
(0.0128702 0.195743 0)
(0.0135064 0.191357 0)
(0.0139488 0.187269 0)
(0.0142143 0.18349 0)
(0.0143181 0.180039 0)
(0.0142743 0.176939 0)
(0.0140957 0.17422 0)
(0.013794 0.171921 0)
(0.01338 0.170084 0)
(0.0128635 0.168762 0)
(0.0122538 0.168008 0)
(0.0115594 0.167884 0)
(0.0107887 0.168451 0)
(0.00994947 0.169773 0)
(0.00904957 0.17191 0)
(0.00809664 0.17492 0)
(0.00709829 0.178848 0)
(0.00606194 0.183727 0)
(0.00499445 0.189559 0)
(0.00390189 0.196297 0)
(0.00279506 0.203797 0)
(0.00168791 0.211624 0)
(0.000697055 0.216043 0)
(-0.0603375 0.299353 0)
(-0.0522196 0.292119 0)
(-0.044777 0.284956 0)
(-0.0379706 0.27785 0)
(-0.0317638 0.270809 0)
(-0.0261238 0.263853 0)
(-0.0210189 0.257007 0)
(-0.016418 0.250297 0)
(-0.0122906 0.243752 0)
(-0.00860654 0.237393 0)
(-0.00533644 0.23124 0)
(-0.00245175 0.225309 0)
(7.52268e-05 0.21961 0)
(0.0022709 0.214152 0)
(0.00416027 0.208942 0)
(0.00576711 0.203984 0)
(0.00711378 0.199282 0)
(0.00822121 0.194841 0)
(0.00910891 0.19067 0)
(0.009795 0.186777 0)
(0.0102963 0.183177 0)
(0.0106283 0.179889 0)
(0.0108054 0.176939 0)
(0.0108407 0.174357 0)
(0.0107465 0.172182 0)
(0.0105342 0.17046 0)
(0.0102144 0.16924 0)
(0.00979697 0.168581 0)
(0.00929147 0.168541 0)
(0.00870701 0.169184 0)
(0.0080525 0.170573 0)
(0.00733676 0.17277 0)
(0.00656853 0.175829 0)
(0.00575656 0.1798 0)
(0.00490942 0.184712 0)
(0.00403528 0.190569 0)
(0.00314166 0.197326 0)
(0.0022398 0.204839 0)
(0.00134188 0.212672 0)
(0.000553323 0.217065 0)
(-0.0694771 0.290381 0)
(-0.0610638 0.283865 0)
(-0.0533299 0.277382 0)
(-0.046235 0.270918 0)
(-0.0397413 0.264485 0)
(-0.0338157 0.258104 0)
(-0.0284264 0.251799 0)
(-0.0235424 0.2456 0)
(-0.0191335 0.239532 0)
(-0.01517 0.233621 0)
(-0.0116232 0.227886 0)
(-0.00846502 0.222344 0)
(-0.00566857 0.217006 0)
(-0.00320807 0.211884 0)
(-0.00105898 0.206983 0)
(0.000802042 0.202311 0)
(0.00239691 0.197873 0)
(0.00374619 0.193675 0)
(0.00486922 0.189726 0)
(0.00578405 0.186038 0)
(0.00650752 0.182626 0)
(0.00705526 0.179511 0)
(0.00744184 0.176718 0)
(0.0076808 0.17428 0)
(0.00778483 0.172238 0)
(0.0077658 0.170635 0)
(0.00763492 0.169525 0)
(0.00740285 0.168964 0)
(0.00707982 0.169013 0)
(0.0066758 0.169734 0)
(0.00620061 0.171192 0)
(0.005664 0.173447 0)
(0.00507576 0.176556 0)
(0.00444566 0.180566 0)
(0.0037834 0.185509 0)
(0.00309836 0.191388 0)
(0.0023994 0.198157 0)
(0.00169808 0.205674 0)
(0.00100471 0.213503 0)
(0.000413552 0.217861 0)
(-0.0779018 0.281037 0)
(-0.0692411 0.27525 0)
(-0.0612605 0.269454 0)
(-0.0539186 0.26364 0)
(-0.0471775 0.257822 0)
(-0.0410034 0.25202 0)
(-0.035365 0.246263 0)
(-0.0302314 0.240578 0)
(-0.0255728 0.234995 0)
(-0.0213602 0.229537 0)
(-0.0175652 0.224226 0)
(-0.0141606 0.21908 0)
(-0.01112 0.214111 0)
(-0.00841839 0.20933 0)
(-0.00603173 0.204747 0)
(-0.00393734 0.200369 0)
(-0.00211374 0.196203 0)
(-0.000540584 0.192256 0)
(0.000801233 0.188539 0)
(0.00192957 0.185063 0)
(0.00286115 0.181847 0)
(0.00361169 0.178912 0)
(0.00419593 0.176284 0)
(0.00462769 0.173998 0)
(0.00492 0.172093 0)
(0.00508517 0.170616 0)
(0.00513494 0.169619 0)
(0.00508058 0.169161 0)
(0.004933 0.169301 0)
(0.00470291 0.170103 0)
(0.00440098 0.171631 0)
(0.00403783 0.173945 0)
(0.00362418 0.177102 0)
(0.00317077 0.18115 0)
(0.00268832 0.186119 0)
(0.00218733 0.192015 0)
(0.00167791 0.198791 0)
(0.00117173 0.206305 0)
(0.000676812 0.21412 0)
(0.000277396 0.218434 0)
(-0.0855802 0.271371 0)
(-0.0767233 0.266318 0)
(-0.0685434 0.261214 0)
(-0.0609987 0.256055 0)
(-0.0540512 0.250854 0)
(-0.0476675 0.245636 0)
(-0.0418163 0.240429 0)
(-0.0364675 0.235263 0)
(-0.0315918 0.230168 0)
(-0.0271607 0.225168 0)
(-0.0231466 0.220285 0)
(-0.0195229 0.215539 0)
(-0.0162639 0.210944 0)
(-0.0133453 0.206512 0)
(-0.0107438 0.202253 0)
(-0.00843713 0.198175 0)
(-0.00640433 0.194287 0)
(-0.00462551 0.190598 0)
(-0.0030819 0.187119 0)
(-0.00175584 0.183864 0)
(-0.000630668 0.18085 0)
(0.000309344 0.178101 0)
(0.00107899 0.175645 0)
(0.00169224 0.173516 0)
(0.0021624 0.171754 0)
(0.00250216 0.170408 0)
(0.00272372 0.169529 0)
(0.00283885 0.169177 0)
(0.00285909 0.169411 0)
(0.00279584 0.170295 0)
(0.00266048 0.171893 0)
(0.00246448 0.174266 0)
(0.00221937 0.17747 0)
(0.00193677 0.181553 0)
(0.00162834 0.186546 0)
(0.0013056 0.192452 0)
(0.000979777 0.199229 0)
(0.000662413 0.206733 0)
(0.000357896 0.214526 0)
(0.000143495 0.218785 0)
(-0.0924855 0.261436 0)
(-0.0834865 0.257119 0)
(-0.0751569 0.252708 0)
(-0.0674553 0.248203 0)
(-0.0603441 0.243621 0)
(-0.0537905 0.238987 0)
(-0.047764 0.234331 0)
(-0.0422351 0.229685 0)
(-0.0371753 0.225079 0)
(-0.0325568 0.220539 0)
(-0.0283529 0.216089 0)
(-0.0245376 0.211746 0)
(-0.0210863 0.207529 0)
(-0.0179752 0.203449 0)
(-0.0151816 0.199518 0)
(-0.0126841 0.195746 0)
(-0.0104622 0.192142 0)
(-0.00849632 0.188716 0)
(-0.00676816 0.185481 0)
(-0.00526032 0.182452 0)
(-0.00395633 0.179647 0)
(-0.00284061 0.17709 0)
(-0.00189836 0.17481 0)
(-0.00111543 0.172843 0)
(-0.000478331 0.17123 0)
(2.59299e-05 0.170018 0)
(0.000409897 0.169261 0)
(0.000685797 0.169016 0)
(0.000865701 0.169346 0)
(0.000961619 0.170314 0)
(0.000985606 0.171983 0)
(0.000949816 0.174414 0)
(0.000866545 0.177664 0)
(0.00074822 0.181779 0)
(0.00060734 0.186791 0)
(0.000456351 0.192704 0)
(0.000307449 0.199475 0)
(0.000172101 0.206961 0)
(4.60083e-05 0.214725 0)
(7.179e-06 0.218922 0)
(-0.0985975 0.251291 0)
(-0.0895121 0.247705 0)
(-0.0810838 0.243983 0)
(-0.0732722 0.240129 0)
(-0.0660409 0.236162 0)
(-0.059358 0.23211 0)
(-0.0531941 0.228004 0)
(-0.0475207 0.223878 0)
(-0.0423101 0.21976 0)
(-0.0375356 0.21568 0)
(-0.0331713 0.211662 0)
(-0.0291923 0.207726 0)
(-0.0255747 0.203888 0)
(-0.0222956 0.200163 0)
(-0.0193331 0.196564 0)
(-0.0166663 0.1931 0)
(-0.0142754 0.189784 0)
(-0.0121414 0.186626 0)
(-0.0102463 0.183639 0)
(-0.00857301 0.18084 0)
(-0.00710545 0.178248 0)
(-0.00582812 0.175888 0)
(-0.00472629 0.173789 0)
(-0.0037858 0.171988 0)
(-0.00299304 0.170527 0)
(-0.00233483 0.169453 0)
(-0.00179832 0.16882 0)
(-0.00137089 0.168686 0)
(-0.00104 0.169114 0)
(-0.000793113 0.170166 0)
(-0.000617597 0.171905 0)
(-0.000500677 0.174393 0)
(-0.000429393 0.177686 0)
(-0.000390611 0.181831 0)
(-0.000371097 0.186859 0)
(-0.000357632 0.192774 0)
(-0.000337346 0.199534 0)
(-0.000299237 0.206999 0)
(-0.000255803 0.214741 0)
(-0.000125991 0.218823 0)
(-0.103903 0.240997 0)
(-0.0947873 0.238132 0)
(-0.0863118 0.235091 0)
(-0.0784376 0.23188 0)
(-0.0711301 0.228522 0)
(-0.0643588 0.225046 0)
(-0.0580956 0.221485 0)
(-0.0523132 0.217874 0)
(-0.0469852 0.214242 0)
(-0.0420861 0.210621 0)
(-0.037591 0.207033 0)
(-0.0334761 0.203502 0)
(-0.0297183 0.200044 0)
(-0.0262958 0.196676 0)
(-0.0231874 0.19341 0)
(-0.020373 0.190257 0)
(-0.0178334 0.187231 0)
(-0.0155502 0.184344 0)
(-0.0135059 0.181609 0)
(-0.0116838 0.179043 0)
(-0.0100682 0.176668 0)
(-0.00864369 0.174508 0)
(-0.00739575 0.172594 0)
(-0.00631027 0.170962 0)
(-0.00537358 0.169655 0)
(-0.00457236 0.168721 0)
(-0.00389356 0.168214 0)
(-0.00332422 0.168193 0)
(-0.00285143 0.168719 0)
(-0.00246223 0.169855 0)
(-0.00214349 0.171665 0)
(-0.0018819 0.174209 0)
(-0.00166391 0.177543 0)
(-0.00147579 0.181715 0)
(-0.00130367 0.186754 0)
(-0.00113369 0.192667 0)
(-0.000952411 0.199411 0)
(-0.000749436 0.206851 0)
(-0.000544001 0.214572 0)
(-0.000255389 0.218495 0)
(-0.108396 0.230617 0)
(-0.0993059 0.228457 0)
(-0.0908342 0.226083 0)
(-0.0829445 0.223503 0)
(-0.0756044 0.220743 0)
(-0.0687851 0.217835 0)
(-0.0624604 0.214811 0)
(-0.0566044 0.211708 0)
(-0.0511923 0.208558 0)
(-0.0461997 0.20539 0)
(-0.0416031 0.202231 0)
(-0.0373798 0.199102 0)
(-0.0335079 0.196023 0)
(-0.0299664 0.19301 0)
(-0.0267352 0.190077 0)
(-0.0237948 0.187236 0)
(-0.0211268 0.184502 0)
(-0.0187135 0.181886 0)
(-0.0165379 0.179405 0)
(-0.0145838 0.177075 0)
(-0.0128357 0.174919 0)
(-0.0112787 0.172961 0)
(-0.0098984 0.171234 0)
(-0.00868079 0.169773 0)
(-0.00761222 0.168623 0)
(-0.00667933 0.167831 0)
(-0.00586887 0.167453 0)
(-0.00516769 0.167545 0)
(-0.00456257 0.168169 0)
(-0.00404019 0.16939 0)
(-0.00358702 0.171269 0)
(-0.00318929 0.173868 0)
(-0.00283298 0.177241 0)
(-0.00250381 0.181436 0)
(-0.00218739 0.186483 0)
(-0.00186929 0.192389 0)
(-0.00153552 0.199112 0)
(-0.00117612 0.206521 0)
(-0.000813577 0.214215 0)
(-0.000374566 0.217959 0)
(-0.112079 0.220215 0)
(-0.103068 0.218739 0)
(-0.0946501 0.217012 0)
(-0.0867908 0.215047 0)
(-0.0794606 0.212871 0)
(-0.0726332 0.210517 0)
(-0.066284 0.20802 0)
(-0.0603892 0.205417 0)
(-0.0549255 0.20274 0)
(-0.0498702 0.20002 0)
(-0.0452011 0.197283 0)
(-0.0408967 0.194553 0)
(-0.0369363 0.191849 0)
(-0.0333 0.189189 0)
(-0.0299687 0.186587 0)
(-0.0269238 0.184058 0)
(-0.0241477 0.181614 0)
(-0.0216233 0.179271 0)
(-0.0193342 0.177044 0)
(-0.0172648 0.174951 0)
(-0.0154001 0.173014 0)
(-0.0137255 0.171261 0)
(-0.0122268 0.169722 0)
(-0.0108901 0.168435 0)
(-0.009702 0.167442 0)
(-0.00864903 0.166794 0)
(-0.0077179 0.166543 0)
(-0.0068953 0.166749 0)
(-0.0061678 0.167473 0)
(-0.00552179 0.168777 0)
(-0.00494343 0.170724 0)
(-0.00441856 0.173375 0)
(-0.00393275 0.176785 0)
(-0.00347128 0.181 0)
(-0.00301928 0.186052 0)
(-0.0025618 0.191946 0)
(-0.00208424 0.198643 0)
(-0.00157689 0.206016 0)
(-0.00106282 0.213672 0)
(-0.000480618 0.21723 0)
(-0.114962 0.209853 0)
(-0.106082 0.209033 0)
(-0.0977644 0.207929 0)
(-0.0899796 0.206559 0)
(-0.0827004 0.204949 0)
(-0.075903 0.203134 0)
(-0.0695654 0.201151 0)
(-0.0636656 0.199035 0)
(-0.0581821 0.196821 0)
(-0.0530939 0.19454 0)
(-0.0483804 0.192218 0)
(-0.0440216 0.189881 0)
(-0.0399979 0.187548 0)
(-0.0362907 0.185236 0)
(-0.0328818 0.182963 0)
(-0.0297537 0.180742 0)
(-0.0268894 0.178588 0)
(-0.0242727 0.176516 0)
(-0.0218881 0.174543 0)
(-0.0197203 0.172686 0)
(-0.0177548 0.17097 0)
(-0.0159774 0.169421 0)
(-0.0143743 0.16807 0)
(-0.0129319 0.166957 0)
(-0.0116367 0.166123 0)
(-0.0104755 0.165618 0)
(-0.00943494 0.165496 0)
(-0.00850164 0.165815 0)
(-0.00766204 0.166637 0)
(-0.00690231 0.168024 0)
(-0.00620836 0.170038 0)
(-0.00556574 0.17274 0)
(-0.00495966 0.176183 0)
(-0.00437503 0.180416 0)
(-0.00379659 0.185468 0)
(-0.00320885 0.191345 0)
(-0.00259662 0.198012 0)
(-0.00195031 0.205342 0)
(-0.0012926 0.21295 0)
(-0.000575376 0.216319 0)
(-0.117063 0.19959 0)
(-0.10836 0.199394 0)
(-0.100188 0.198887 0)
(-0.0925189 0.198086 0)
(-0.0853295 0.197021 0)
(-0.0785988 0.195727 0)
(-0.072307 0.19424 0)
(-0.0664346 0.192598 0)
(-0.0609619 0.190835 0)
(-0.0558698 0.188982 0)
(-0.0511393 0.187066 0)
(-0.0467519 0.185113 0)
(-0.0426895 0.183144 0)
(-0.0389346 0.181176 0)
(-0.0354701 0.179226 0)
(-0.0322795 0.177311 0)
(-0.0293468 0.175443 0)
(-0.0266566 0.17364 0)
(-0.024194 0.171918 0)
(-0.0219444 0.170297 0)
(-0.0198939 0.1688 0)
(-0.0180287 0.167455 0)
(-0.0163353 0.166293 0)
(-0.0148004 0.165352 0)
(-0.0134108 0.164676 0)
(-0.0121534 0.164315 0)
(-0.0110149 0.164321 0)
(-0.00998189 0.164753 0)
(-0.00904073 0.165672 0)
(-0.00817749 0.16714 0)
(-0.00737788 0.169219 0)
(-0.00662722 0.171969 0)
(-0.00591046 0.175444 0)
(-0.00521221 0.17969 0)
(-0.00451683 0.184738 0)
(-0.00380841 0.190595 0)
(-0.00307114 0.197224 0)
(-0.0022956 0.204505 0)
(-0.00150383 0.212056 0)
(-0.000661132 0.215239 0)
(-0.118405 0.189484 0)
(-0.109923 0.189876 0)
(-0.101936 0.189933 0)
(-0.0944216 0.189675 0)
(-0.0873583 0.18913 0)
(-0.0807284 0.188335 0)
(-0.0745149 0.187326 0)
(-0.0687004 0.186141 0)
(-0.0632677 0.184813 0)
(-0.0581993 0.183376 0)
(-0.0534781 0.181855 0)
(-0.0490871 0.180277 0)
(-0.0450097 0.178663 0)
(-0.0412295 0.177032 0)
(-0.0377308 0.1754 0)
(-0.0344981 0.173784 0)
(-0.0315163 0.172199 0)
(-0.0287709 0.170661 0)
(-0.0262476 0.169188 0)
(-0.0239328 0.1678 0)
(-0.0218129 0.166521 0)
(-0.0198746 0.165377 0)
(-0.018105 0.164402 0)
(-0.0164911 0.163633 0)
(-0.0150198 0.163115 0)
(-0.0136783 0.162895 0)
(-0.0124534 0.163028 0)
(-0.0113319 0.163572 0)
(-0.0102999 0.164586 0)
(-0.00934357 0.166134 0)
(-0.00844848 0.168276 0)
(-0.00759979 0.171071 0)
(-0.00678225 0.174575 0)
(-0.00598023 0.178831 0)
(-0.00517782 0.183872 0)
(-0.0043587 0.189703 0)
(-0.00350656 0.19629 0)
(-0.00261211 0.203514 0)
(-0.00169677 0.210999 0)
(-0.000738972 0.214 0)
(-0.11902 0.179585 0)
(-0.110796 0.180526 0)
(-0.103031 0.181114 0)
(-0.0957051 0.181367 0)
(-0.0888008 0.181316 0)
(-0.0823033 0.180996 0)
(-0.0761981 0.180444 0)
(-0.0704704 0.179697 0)
(-0.0651049 0.178789 0)
(-0.0600865 0.177752 0)
(-0.0553995 0.176614 0)
(-0.0510288 0.1754 0)
(-0.046959 0.174131 0)
(-0.0431753 0.172827 0)
(-0.039663 0.171506 0)
(-0.0364079 0.170183 0)
(-0.0333957 0.168875 0)
(-0.0306129 0.167598 0)
(-0.0280461 0.16637 0)
(-0.0256821 0.165211 0)
(-0.0235082 0.164146 0)
(-0.0215116 0.163202 0)
(-0.0196798 0.162412 0)
(-0.018 0.161814 0)
(-0.0164598 0.161451 0)
(-0.0150464 0.161371 0)
(-0.0137468 0.16163 0)
(-0.0125479 0.162283 0)
(-0.0114361 0.163391 0)
(-0.0103973 0.165016 0)
(-0.00941714 0.167218 0)
(-0.00848066 0.170057 0)
(-0.00757249 0.173586 0)
(-0.00667687 0.177849 0)
(-0.00577763 0.182878 0)
(-0.00485816 0.188679 0)
(-0.00390171 0.195219 0)
(-0.00289918 0.202379 0)
(-0.00187127 0.20979 0)
(-0.000809159 0.212613 0)
(-0.118941 0.16994 0)
(-0.111008 0.171389 0)
(-0.103497 0.17247 0)
(-0.0963905 0.173202 0)
(-0.0896749 0.173616 0)
(-0.0833382 0.173745 0)
(-0.0773689 0.173627 0)
(-0.0717544 0.173298 0)
(-0.0664818 0.172792 0)
(-0.0615377 0.172139 0)
(-0.0569085 0.171369 0)
(-0.0525805 0.170506 0)
(-0.04854 0.169572 0)
(-0.0447735 0.168586 0)
(-0.0412675 0.167566 0)
(-0.0380088 0.166529 0)
(-0.0349844 0.165491 0)
(-0.0321815 0.164468 0)
(-0.0295876 0.163481 0)
(-0.0271904 0.162547 0)
(-0.0249776 0.161693 0)
(-0.022937 0.160945 0)
(-0.0210567 0.160337 0)
(-0.0193244 0.159906 0)
(-0.0177278 0.159696 0)
(-0.0162547 0.159755 0)
(-0.0148922 0.160136 0)
(-0.0136273 0.160897 0)
(-0.0124466 0.162097 0)
(-0.011336 0.163796 0)
(-0.0102813 0.166057 0)
(-0.00926745 0.168936 0)
(-0.00827903 0.172486 0)
(-0.00730017 0.176753 0)
(-0.00631459 0.181766 0)
(-0.00530541 0.187533 0)
(-0.00425555 0.19402 0)
(-0.00315611 0.20111 0)
(-0.00202701 0.20844 0)
(-0.000871636 0.211091 0)
(-0.118209 0.16059 0)
(-0.110594 0.162505 0)
(-0.103363 0.164041 0)
(-0.0965022 0.165218 0)
(-0.0900013 0.166066 0)
(-0.083851 0.166617 0)
(-0.0780424 0.166909 0)
(-0.0725653 0.166976 0)
(-0.0674088 0.166851 0)
(-0.0625617 0.166566 0)
(-0.0580121 0.166148 0)
(-0.053748 0.165622 0)
(-0.0497571 0.16501 0)
(-0.0460273 0.16433 0)
(-0.0425464 0.163602 0)
(-0.0393023 0.162842 0)
(-0.0362831 0.162067 0)
(-0.0334768 0.161292 0)
(-0.0308719 0.160539 0)
(-0.0284567 0.159825 0)
(-0.0262197 0.159177 0)
(-0.0241493 0.158622 0)
(-0.022234 0.158192 0)
(-0.0204621 0.157925 0)
(-0.0188218 0.157865 0)
(-0.0173009 0.158059 0)
(-0.0158871 0.15856 0)
(-0.0145676 0.159425 0)
(-0.013329 0.160714 0)
(-0.0121576 0.162486 0)
(-0.011039 0.164801 0)
(-0.00995826 0.167717 0)
(-0.00890009 0.171287 0)
(-0.00784856 0.175553 0)
(-0.00678731 0.180547 0)
(-0.00569929 0.186275 0)
(-0.00456716 0.192704 0)
(-0.00338225 0.19972 0)
(-0.00216363 0.20696 0)
(-0.000926258 0.209445 0)
(-0.116865 0.151569 0)
(-0.109589 0.153906 0)
(-0.10266 0.155859 0)
(-0.0960675 0.157447 0)
(-0.0898035 0.158697 0)
(-0.0838618 0.159643 0)
(-0.0782358 0.160318 0)
(-0.0729176 0.160758 0)
(-0.0678985 0.160995 0)
(-0.0631691 0.161058 0)
(-0.0587193 0.160976 0)
(-0.0545386 0.160772 0)
(-0.0506164 0.160468 0)
(-0.0469418 0.160083 0)
(-0.0435038 0.159636 0)
(-0.0402915 0.159143 0)
(-0.0372939 0.158622 0)
(-0.0345003 0.158088 0)
(-0.0318997 0.157561 0)
(-0.0294814 0.157062 0)
(-0.0272344 0.156614 0)
(-0.025148 0.156246 0)
(-0.0232109 0.15599 0)
(-0.0214122 0.155883 0)
(-0.0197404 0.155969 0)
(-0.0181838 0.156295 0)
(-0.0167303 0.156913 0)
(-0.0153674 0.15788 0)
(-0.014082 0.159255 0)
(-0.0128604 0.161096 0)
(-0.0116886 0.163463 0)
(-0.0105516 0.166413 0)
(-0.00943434 0.169998 0)
(-0.00832081 0.174261 0)
(-0.00719471 0.179232 0)
(-0.00603887 0.184917 0)
(-0.00483579 0.191283 0)
(-0.00357705 0.198218 0)
(-0.00228081 0.205362 0)
(-0.000972886 0.207687 0)
(-0.114951 0.142906 0)
(-0.108031 0.145623 0)
(-0.101422 0.147955 0)
(-0.0951153 0.149917 0)
(-0.089107 0.151538 0)
(-0.0833928 0.152849 0)
(-0.0779685 0.153883 0)
(-0.0728283 0.154672 0)
(-0.0679654 0.155248 0)
(-0.0633723 0.155641 0)
(-0.0590407 0.155876 0)
(-0.0549615 0.155978 0)
(-0.0511256 0.155968 0)
(-0.0475232 0.155865 0)
(-0.0441448 0.155688 0)
(-0.0409805 0.155452 0)
(-0.0380204 0.155175 0)
(-0.0352546 0.154873 0)
(-0.0326731 0.154565 0)
(-0.0302658 0.154273 0)
(-0.0280227 0.15402 0)
(-0.0259334 0.153834 0)
(-0.0239876 0.153746 0)
(-0.0221745 0.153795 0)
(-0.0204833 0.154023 0)
(-0.0189027 0.154477 0)
(-0.0174209 0.155209 0)
(-0.0160257 0.156274 0)
(-0.0147044 0.15773 0)
(-0.0134435 0.159637 0)
(-0.0122291 0.162053 0)
(-0.0110466 0.165034 0)
(-0.00988085 0.168631 0)
(-0.00871608 0.172887 0)
(-0.00753602 0.177831 0)
(-0.00632349 0.18347 0)
(-0.00506092 0.18977 0)
(-0.00374012 0.196619 0)
(-0.00237831 0.20366 0)
(-0.00101143 0.205833 0)
(-0.112512 0.134623 0)
(-0.105958 0.137679 0)
(-0.0996824 0.140351 0)
(-0.0936761 0.142655 0)
(-0.0879385 0.144615 0)
(-0.0824677 0.146262 0)
(-0.0772612 0.147628 0)
(-0.0723155 0.148742 0)
(-0.0676256 0.149636 0)
(-0.0631855 0.150338 0)
(-0.0589885 0.150872 0)
(-0.0550272 0.151264 0)
(-0.0512937 0.151533 0)
(-0.0477795 0.151698 0)
(-0.0444762 0.151777 0)
(-0.0413751 0.151787 0)
(-0.0384672 0.151744 0)
(-0.0357436 0.151665 0)
(-0.0331952 0.151569 0)
(-0.0308126 0.151476 0)
(-0.0285865 0.15141 0)
(-0.0265073 0.151399 0)
(-0.024565 0.151475 0)
(-0.0227497 0.151675 0)
(-0.0210508 0.15204 0)
(-0.0194577 0.152617 0)
(-0.0179589 0.153458 0)
(-0.0165425 0.154618 0)
(-0.0151961 0.156153 0)
(-0.0139066 0.158122 0)
(-0.0126602 0.160584 0)
(-0.0114427 0.163592 0)
(-0.0102391 0.167198 0)
(-0.00903388 0.171444 0)
(-0.00781079 0.176358 0)
(-0.00655276 0.181946 0)
(-0.0052422 0.188175 0)
(-0.0038712 0.194935 0)
(-0.00245601 0.201867 0)
(-0.00104186 0.203895 0)
(-0.109591 0.126738 0)
(-0.103411 0.130094 0)
(-0.0974764 0.13307 0)
(-0.091781 0.13568 0)
(-0.086326 0.137949 0)
(-0.0811111 0.139904 0)
(-0.0761361 0.141574 0)
(-0.0713989 0.14299 0)
(-0.0668963 0.144179 0)
(-0.0626238 0.14517 0)
(-0.0585763 0.145986 0)
(-0.0547476 0.146649 0)
(-0.0511311 0.147182 0)
(-0.0477196 0.147601 0)
(-0.0445058 0.147924 0)
(-0.0414819 0.148167 0)
(-0.0386402 0.148348 0)
(-0.0359724 0.148482 0)
(-0.0334703 0.148588 0)
(-0.0311253 0.148686 0)
(-0.0289288 0.148801 0)
(-0.0268718 0.148959 0)
(-0.0249452 0.149192 0)
(-0.0231393 0.149536 0)
(-0.0214443 0.150033 0)
(-0.0198498 0.150729 0)
(-0.0183449 0.151675 0)
(-0.0169181 0.152925 0)
(-0.0155573 0.154535 0)
(-0.0142497 0.156563 0)
(-0.0129819 0.159066 0)
(-0.01174 0.162099 0)
(-0.0105092 0.16571 0)
(-0.00927413 0.169943 0)
(-0.00801892 0.174823 0)
(-0.00672656 0.180358 0)
(-0.00537954 0.186513 0)
(-0.00397023 0.193179 0)
(-0.00251388 0.199998 0)
(-0.00106418 0.201888 0)
(-0.106229 0.119264 0)
(-0.100426 0.122881 0)
(-0.0948386 0.126126 0)
(-0.0894613 0.129011 0)
(-0.0842974 0.131559 0)
(-0.0793485 0.133793 0)
(-0.0746158 0.135743 0)
(-0.0700988 0.137436 0)
(-0.0657957 0.138898 0)
(-0.0617037 0.140157 0)
(-0.0578185 0.141235 0)
(-0.0541356 0.142154 0)
(-0.0506493 0.142934 0)
(-0.0473537 0.143592 0)
(-0.0442425 0.144145 0)
(-0.041309 0.14461 0)
(-0.0385462 0.145003 0)
(-0.0359468 0.145339 0)
(-0.0335035 0.145638 0)
(-0.0312083 0.145919 0)
(-0.0290534 0.146206 0)
(-0.0270305 0.146526 0)
(-0.0251309 0.146909 0)
(-0.0233458 0.147392 0)
(-0.0216657 0.148016 0)
(-0.0200807 0.148825 0)
(-0.0185804 0.149871 0)
(-0.0171537 0.151207 0)
(-0.0157889 0.152888 0)
(-0.0144737 0.154971 0)
(-0.0131949 0.157513 0)
(-0.0119389 0.160566 0)
(-0.0106913 0.164181 0)
(-0.00943712 0.168396 0)
(-0.00816063 0.173241 0)
(-0.00684505 0.178719 0)
(-0.00547304 0.184797 0)
(-0.00403728 0.191365 0)
(-0.00255197 0.198066 0)
(-0.00107841 0.199827 0)
(-0.102468 0.112208 0)
(-0.0970418 0.116052 0)
(-0.0918029 0.119533 0)
(-0.0867477 0.122662 0)
(-0.0818809 0.125459 0)
(-0.0772053 0.127947 0)
(-0.0727234 0.130151 0)
(-0.0684362 0.132097 0)
(-0.0643429 0.133811 0)
(-0.060442 0.135318 0)
(-0.0567306 0.136639 0)
(-0.0532049 0.137796 0)
(-0.0498606 0.138807 0)
(-0.0466928 0.139689 0)