/*--------------------------------*- C++ -*----------------------------------*\
  =========                 |
  \\      /  F ield         | OpenFOAM: The Open Source CFD Toolbox
   \\    /   O peration     | Website:  https://openfoam.org
    \\  /    A nd           | Version:  9
     \\/     M anipulation  |
\*---------------------------------------------------------------------------*/
FoamFile
{
    format      ascii;
    class       volScalarField;
    location    "0.275";
    object      p;
}
// * * * * * * * * * * * * * * * * * * * * * * * * * * * * * * * * * * * * * //

dimensions      [0 2 -2 0 0 0 0];

internalField   nonuniform List<scalar> 
900
(
8.15591e-06
-0.00778938
-0.0211082
-0.0360396
-0.0493232
-0.0588813
-0.0635001
-0.0625709
-0.0559111
-0.0436421
-0.0261134
-0.00385953
0.0224223
0.0518834
0.0835325
0.116248
0.148801
0.179893
0.208208
0.232486
0.251607
0.264687
0.271177
0.270964
0.264468
0.252733
0.237517
0.221419
0.208047
0.201061
0.00778426
-0.000113261
-0.0107064
-0.0218208
-0.0315356
-0.0383376
-0.0412452
-0.0397151
-0.0335339
-0.0227426
-0.00758578
0.0115213
0.0340117
0.0591786
0.0861865
0.114086
0.141839
0.168351
0.192523
0.213313
0.229808
0.241307
0.247403
0.248058
0.243672
0.235128
0.223829
0.211705
0.201055
0.194104
0.0213636
0.0102837
-0.000634646
-0.0105573
-0.0187873
-0.0242993
-0.026374
-0.0246138
-0.0188559
-0.00912917
0.00437328
0.0213132
0.0412187
0.0634906
0.0874107
0.112154
0.13681
0.160416
0.182
0.200639
0.215526
0.22604
0.231819
0.232823
0.229375
0.222188
0.212382
0.201405
0.190463
0.180656
0.0372718
0.0214451
0.0084231
-0.00197947
-0.010124
-0.0153783
-0.017272
-0.0155835
-0.0102427
-0.00130557
0.0110513
0.0265371
0.0447479
0.0651655
0.0871583
0.109989
0.132828
0.154789
0.174961
0.192468
0.206531
0.216535
0.222094
0.223112
0.219806
0.212724
0.202773
0.191082
0.177964
0.163683
0.0524863
0.0314973
0.015699
0.004086
-0.0046306
-0.0101433
-0.0122028
-0.01076
-0.0058455
0.00244393
0.0139354
0.0283726
0.0454062
0.0645843
0.0853451
0.107017
0.128828
0.149932
0.169444
0.186492
0.200276
0.210142
0.215642
0.216587
0.213076
0.205501
0.194608
0.181302
0.165163
0.145827
0.0648739
0.0387298
0.0198768
0.00665098
-0.00303434
-0.00913317
-0.0115821
-0.0104868
-0.00597326
0.00181939
0.0127162
0.0264877
0.0428304
0.0613469
0.0815307
0.102758
0.124294
0.145305
0.164898
0.182169
0.196262
0.20644
0.212153
0.213099
0.209241
0.20083
0.188492
0.173002
0.153348
0.128727
0.0728507
0.0417115
0.0197234
0.0046794
-0.00619779
-0.0130724
-0.0160344
-0.0153221
-0.0111449
-0.00367958
0.00689675
0.0203785
0.0365025
0.0549183
0.0751644
0.0966519
0.118661
0.140354
0.160801
0.179033
0.1941
0.205145
0.211482
0.212661
0.208499
0.199108
0.185033
0.166987
0.143485
0.113417
0.0751413
0.0392113
0.014124
-0.00279976
-0.0149531
-0.0226748
-0.0261825
-0.025827
-0.0218873
-0.0145687
-0.00404593
0.00950082
0.0258478
0.044689
0.065603
0.0880275
0.111248
0.134404
0.156509
0.176499
0.193298
0.205891
0.213416
0.215241
0.211009
0.200694
0.184775
0.163953
0.13634
0.100599
0.0706334
0.0301082
0.00201422
-0.0167614
-0.0301808
-0.0387345
-0.0427502
-0.0426755
-0.0388456
-0.0314844
-0.0207566
-0.00681119
0.0101714
0.0299325
0.0520914
0.0761118
0.10128
0.126702
0.151319
0.173952
0.193361
0.208335
0.217791
0.22087
0.217007
0.206011
0.188301
0.164591
0.132612
0.0908412
0.0582888
0.0133367
-0.0176488
-0.038195
-0.0528072
-0.0621163
-0.0665493
-0.06664
-0.0627696
-0.0551711
-0.0439895
-0.0293338
-0.0113324
0.00981121
0.0337655
0.060026
0.0878831
0.116408
0.14446
0.170721
0.193763
0.212133
0.224473
0.229642
0.226811
0.215578
0.196288
0.169668
0.133051
0.0847312
0.0370909
-0.0121509
-0.0459058
-0.0681067
-0.0837917
-0.0937301
-0.0984454
-0.0985526
-0.0944725
-0.0864387
-0.0745669
-0.0589149
-0.0395459
-0.0165937
0.00967386
0.0387989
0.070088
0.102585
0.135065
0.166061
0.193923
0.216914
0.233339
0.241699
0.240823
0.230036
0.209553
0.180102
0.138552
0.083004
0.00601533
-0.0474115
-0.0838142
-0.107527
-0.124122
-0.134514
-0.139331
-0.13927
-0.134788
-0.126116
-0.11333
-0.0964235
-0.0753772
-0.0502354
-0.0211793
0.0114033
0.046858
0.0842192
0.122188
0.159144
0.193193
0.222264
0.244257
0.257226
0.259551
0.250178
0.229119
0.197048
0.15027
0.0866559
-0.0359872
-0.0935346
-0.132467
-0.157518
-0.174808
-0.185419
-0.190094
-0.189627
-0.184518
-0.174989
-0.161071
-0.142677
-0.119685
-0.0920256
-0.0597615
-0.0231769
0.0171474
0.0602684
0.104837
0.149087
0.190868
0.227733
0.2571
0.276464
0.283624
0.277
0.256278
0.221987
0.169719
0.0970627
-0.0900044
-0.151667
-0.193016
-0.219185
-0.236879
-0.247379
-0.251577
-0.250385
-0.244358
-0.233717
-0.218438
-0.198339
-0.173175
-0.142727
-0.106903
-0.065841
-0.0199992
0.0297494
0.0820471
0.13501
0.186233
0.232864
0.271762
0.299735
0.313833
0.311755
0.292679
0.256842
0.198907
0.11611
-0.157183
-0.223051
-0.266705
-0.293697
-0.311379
-0.32129
-0.324525
-0.322152
-0.31481
-0.302726
-0.285817
-0.263794
-0.236257
-0.202806
-0.16315
-0.117223
-0.0653029
-0.0081266
0.0530024
0.116135
0.178641
0.237252
0.288199
0.327475
0.351172
0.356018
0.340422
0.304101
0.240487
0.146354
-0.238768
-0.309081
-0.354928
-0.382315
-0.399364
-0.407971
-0.409518
-0.405295
-0.396064
-0.382073
-0.363183
-0.338978
-0.308877
-0.272257
-0.228575
-0.177502
-0.11906
-0.0537684
0.0172104
0.091945
0.167645
0.240646
0.306516
0.3603
0.396908
0.411773
0.402186
0.366992
0.297952
0.191219
-0.336189
-0.411419
-0.459319
-0.48644
-0.501902
-0.508119
-0.50689
-0.499824
-0.487861
-0.471297
-0.449933
-0.423207
-0.390324
-0.350394
-0.302566
-0.246178
-0.180913
-0.106976
-0.0252768
0.0623882
0.153175
0.243102
0.327076
0.399101
0.452663
0.481524
0.481378
0.449689
0.375903
0.255273
-0.451207
-0.532168
-0.581898
-0.607697
-0.62008
-0.622251
-0.61662
-0.605252
-0.589335
-0.56924
-0.5447
-0.51498
-0.479033
-0.435648
-0.383607
-0.321843
-0.249611
-0.166692
-0.0736099
0.0281235
0.135772
0.245175
0.350666
0.445168
0.520535
0.568426
0.582334
0.557603
0.480399
0.344592
-0.586204
-0.674184
-0.725303
-0.748035
-0.755001
-0.750617
-0.738194
-0.720425
-0.69883
-0.673866
-0.645177
-0.61181
-0.57241
-0.525389
-0.469097
-0.401987
-0.322798
-0.230772
-0.125902
-0.00923323
0.116819
0.248141
0.378675
0.50034
0.603219
0.67644
0.710555
0.697757
0.619472
0.467303
-0.744688
-0.841586
-0.893135
-0.909875
-0.907755
-0.893068
-0.870413
-0.843319
-0.813702
-0.782086
-0.747964
-0.71009
-0.666724
-0.615829
-0.555254
-0.482898
-0.3969
-0.295854
-0.179074
-0.0469314
0.0987378
0.254177
0.413258
0.567133
0.704133
0.810493
0.872993
0.879293
0.803869
0.63442
-0.93223
-1.04059
-1.09046
-1.09626
-1.07933
-1.04883
-1.01113
-0.97079
-0.930117
-0.889608
-0.848476
-0.805056
-0.757109
-0.702059
-0.637172
-0.559729
-0.467193
-0.35741
-0.228876
-0.0810829
0.0850141
0.266412
0.457382
0.648775
0.827445
0.976574
1.07834
1.11413
1.04817
0.861209
-1.1582
-1.2809
-1.32452
-1.31095
-1.27038
-1.21614
-1.15689
-1.09827
-1.04284
-0.990842
-0.940952
-0.890883
-0.837738
-0.778277
-0.709104
-0.626814
-0.528132
-0.410083
-0.270222
-0.106964
0.0799314
0.288685
0.514605
0.748983
0.977872
1.18164
1.33727
1.41781
1.37247
1.16958
-1.43911
-1.57797
-1.60556
-1.55836
-1.48066
-1.39162
-1.30236
-1.2194
-1.1451
-1.07891
-1.01861
-0.960969
-0.902204
-0.838268
-0.765009
-0.678278
-0.574023
-0.448396
-0.297919
-0.119759
0.0878352
0.324828
0.588361
0.871255
1.15999
1.4331
1.66235
1.81039
1.80505
1.59253
-1.8055
-1.95668
-1.94761
-1.84278
-1.70794
-1.56916
-1.43959
-1.32563
-1.2284
-1.14578
-1.074
-1.00843
-0.944157
-0.876141
-0.799389
-0.70897
-0.600038
-0.467854
-0.307858
-0.115828
0.111784
0.377237
0.680447
1.01723
1.37649
1.73709
2.06695
2.31708
2.3864
2.18304
-2.31604
-2.45689
-2.36799
-2.16587
-1.94526
-1.73793
-1.55665
-1.40547
-1.28244
-1.18252
-1.09948
-1.02682
-0.958134
-0.887275
-0.80834
-0.715618
-0.603495
-0.466368
-0.29859
-0.0944725
0.151572
0.444631
0.788436
1.18363
1.62451
2.09436
2.56139
2.96677
3.17464
3.03097
-3.0837
-3.13987
-2.884
-2.52176
-2.17686
-1.87952
-1.63622
-1.4442
-1.29539
-1.17996
-1.0882
-1.01114
-0.940679
-0.86947
-0.790738
-0.698062
-0.585157
-0.445645
-0.27287
-0.0596818
0.201693
0.519631
0.902736
1.35862
1.89098
2.49432
3.14621
3.78633
4.24798
4.28751
-4.3242
-4.09134
-3.50628
-2.89315
-2.37658
-1.96817
-1.65717
-1.42623
-1.25661
-1.13143
-1.0365
-0.960032
-0.89219
-0.824539
-0.749595
-0.660411
-0.550224
-0.412062
-0.238458
-0.0209467
0.250398
0.587507
1.0048
1.51919
2.149
2.91014
3.80467
4.78984
5.70238
6.2049
-6.53109
-5.41651
-4.19609
-3.22059
-2.48992
-1.96149
-1.59061
-1.33396
-1.1567
-1.03319
-0.944485
-0.876281
-0.8174
-0.758738
-0.692471
-0.611463
-0.508777
-0.377246
-0.208911
0.00555355
0.277742
0.622769
1.06102
1.62048
2.33985
3.26991
4.4603
5.93097
7.66299
9.33059
-11.0278
-7.16613
-4.64473
-3.22576
-2.3208
-1.72971
-1.35338
-1.11504
-0.963126
-0.865486
-0.80101
-0.754849
-0.715949
-0.675571
-0.626315
-0.561465
-0.474477
-0.358544
-0.20601
-0.00772567
0.248046
0.57738
1.00364
1.56275
2.31304
3.34903
4.80329
6.88895
10.2077
15.0254
-19.0539
-8.87654
-4.22263
-2.48946
-1.63041
-1.14308
-0.874881
-0.730387
-0.654051
-0.61641
-0.600238
-0.593984
-0.589108
-0.578753
-0.55697
-0.518224
-0.457038
-0.367641
-0.243621
-0.0773645
0.140789
0.424053
0.792093
1.27723
1.93909
2.89531
4.37706
6.96987
12.657
23.9018
)
;

boundaryField
{
    movingWall
    {
        type            zeroGradient;
    }
    fixedWalls
    {
        type            zeroGradient;
    }
    frontAndBack
    {
        type            empty;
    }
}


// ************************************************************************* //
