/*--------------------------------*- C++ -*----------------------------------*\
  =========                 |
  \\      /  F ield         | OpenFOAM: The Open Source CFD Toolbox
   \\    /   O peration     | Website:  https://openfoam.org
    \\  /    A nd           | Version:  9
     \\/     M anipulation  |
\*---------------------------------------------------------------------------*/
FoamFile
{
    format      ascii;
    class       volVectorField;
    location    "0.275";
    object      U;
}
// * * * * * * * * * * * * * * * * * * * * * * * * * * * * * * * * * * * * * //

dimensions      [0 1 -1 0 0 0 0];

internalField   nonuniform List<vector> 
900
(
(0.000361361 -0.000359928 0)
(0.000680273 -0.000170045 0)
(3.63903e-05 0.000249367 0)
(-0.00169407 0.00064532 0)
(-0.00436841 0.000954575 0)
(-0.00774775 0.00116681 0)
(-0.0115814 0.00128846 0)
(-0.0156347 0.00133101 0)
(-0.0196966 0.00130594 0)
(-0.023581 0.00122299 0)
(-0.0271245 0.00109017 0)
(-0.0301846 0.000914158 0)
(-0.0326385 0.00070108 0)
(-0.0343839 0.000457218 0)
(-0.0353403 0.000189725 0)
(-0.0354528 -9.28255e-05 0)
(-0.0346959 -0.000380097 0)
(-0.033079 -0.000659873 0)
(-0.03065 -0.000918239 0)
(-0.0274993 -0.00114006 0)
(-0.0237608 -0.00130974 0)
(-0.0196116 -0.00141218 0)
(-0.0152669 -0.00143384 0)
(-0.0109736 -0.00136388 0)
(-0.00699858 -0.00119531 0)
(-0.00361368 -0.000927018 0)
(-0.00107403 -0.000568329 0)
(0.000419836 -0.000149218 0)
(0.00081839 0.000248003 0)
(0.000375769 0.000372272 0)
(0.000188322 -0.000693507 0)
(-0.000515875 0.000539681 0)
(-0.00351323 0.00250558 0)
(-0.00884198 0.00439362 0)
(-0.0162084 0.00592744 0)
(-0.0251526 0.00701804 0)
(-0.0351399 0.00765749 0)
(-0.0456298 0.0078744 0)
(-0.0561107 0.00770984 0)
(-0.066115 0.00720663 0)
(-0.0752235 0.00640591 0)
(-0.0830676 0.00534702 0)
(-0.0893313 0.00406928 0)
(-0.0937541 0.00261456 0)
(-0.096137 0.00102983 0)
(-0.0963502 -0.000630735 0)
(-0.0943425 -0.00230455 0)
(-0.0901511 -0.00392061 0)
(-0.0839099 -0.00540083 0)
(-0.0758559 -0.00666289 0)
(-0.0663296 -0.00762449 0)
(-0.0557705 -0.00820877 0)
(-0.044704 -0.00835062 0)
(-0.0337203 -0.00800369 0)
(-0.023443 -0.00714844 0)
(-0.0144861 -0.00580357 0)
(-0.00739416 -0.00404573 0)
(-0.0025564 -0.00204445 0)
(-9.6523e-05 -0.000148321 0)
(0.000271923 0.00082614 0)
(-0.000220108 -8.82044e-05 0)
(-0.00250042 0.00352906 0)
(-0.00834811 0.00825481 0)
(-0.017418 0.0127514 0)
(-0.0292077 0.0164481 0)
(-0.0431015 0.019107 0)
(-0.0583755 0.0206671 0)
(-0.0742792 0.0211621 0)
(-0.0900871 0.0206698 0)
(-0.105124 0.019285 0)
(-0.118778 0.0171083 0)
(-0.130507 0.0142431 0)
(-0.139848 0.0107973 0)
(-0.146419 0.00688765 0)
(-0.149934 0.00264442 0)
(-0.150208 -0.00178429 0)
(-0.147176 -0.00623071 0)
(-0.140901 -0.010508 0)
(-0.131584 -0.0144143 0)
(-0.119575 -0.01774 0)
(-0.105367 -0.0202791 0)
(-0.089594 -0.0218429 0)
(-0.073004 -0.0222763 0)
(-0.0564316 -0.0214773 0)
(-0.0407509 -0.0194174 0)
(-0.026814 -0.0161699 0)
(-0.015368 -0.0119489 0)
(-0.00695108 -0.00716797 0)
(-0.00185352 -0.00255344 0)
(-7.81298e-05 0.000505833 0)
(-0.000634703 0.00163733 0)
(-0.00458116 0.00900454 0)
(-0.0134249 0.0174322 0)
(-0.0262751 0.0252435 0)
(-0.0423413 0.0316253 0)
(-0.0608431 0.0361975 0)
(-0.0808965 0.0388398 0)
(-0.101588 0.0395863 0)
(-0.122032 0.0385527 0)
(-0.1414 0.0358945 0)
(-0.158936 0.0317865 0)
(-0.173968 0.0264155 0)
(-0.18592 0.0199816 0)
(-0.19432 0.0127031 0)
(-0.198814 0.00482394 0)
(-0.199177 -0.00338124 0)
(-0.195328 -0.0116042 0)
(-0.187346 -0.019505 0)
(-0.175481 -0.0267199 0)
(-0.160162 -0.0328743 0)
(-0.141993 -0.0376025 0)
(-0.121748 -0.040573 0)
(-0.100342 -0.0415175 0)
(-0.0787936 -0.040265 0)
(-0.0581729 -0.0367782 0)
(-0.0395293 -0.0311983 0)
(-0.0237965 -0.0238989 0)
(-0.0116866 -0.0155547 0)
(-0.00374863 -0.00725115 0)
(-0.000443922 -0.000814195 0)
(-0.00100883 0.0044562 0)
(-0.00656453 0.0169625 0)
(-0.0183743 0.0299789 0)
(-0.0349498 0.0416746 0)
(-0.0551632 0.0510912 0)
(-0.0780462 0.0577547 0)
(-0.102556 0.0615078 0)
(-0.127638 0.062395 0)
(-0.152277 0.0605768 0)
(-0.175527 0.0562772 0)
(-0.196522 0.0497554 0)
(-0.214495 0.041295 0)
(-0.228784 0.0312035 0)
(-0.238848 0.0198193 0)
(-0.244277 0.00751961 0)
(-0.244809 -0.00527218 0)
(-0.240346 -0.0180839 0)
(-0.23097 -0.0303976 0)
(-0.216955 -0.0416613 0)
(-0.198782 -0.0513084 0)
(-0.17713 -0.0587875 0)
(-0.152875 -0.0635988 0)
(-0.127061 -0.0653391 0)
(-0.100861 -0.0637513 0)
(-0.075517 -0.0587779 0)
(-0.0522708 -0.0506195 0)
(-0.0322582 -0.0397995 0)
(-0.0164053 -0.027229 0)
(-0.00558346 -0.0142953 0)
(-0.000774075 -0.00313164 0)
(-0.00134067 0.00828011 0)
(-0.00840871 0.0273125 0)
(-0.023078 0.0458259 0)
(-0.0432702 0.0619679 0)
(-0.0675003 0.0747296 0)
(-0.0945925 0.0836066 0)
(-0.12334 0.0884435 0)
(-0.152554 0.0893187 0)
(-0.181107 0.0864532 0)
(-0.207958 0.0801511 0)
(-0.232159 0.0707662 0)
(-0.252869 0.058689 0)
(-0.26936 0.0443458 0)
(-0.281036 0.0282062 0)
(-0.28744 0.0107938 0)
(-0.288273 -0.0073055 0)
(-0.28341 -0.0254399 0)
(-0.272919 -0.0428956 0)
(-0.25708 -0.0589123 0)
(-0.236392 -0.0727089 0)
(-0.211585 -0.0835223 0)
(-0.183606 -0.0906581 0)
(-0.153606 -0.0935503 0)
(-0.122894 -0.0918284 0)
(-0.0928854 -0.085389 0)
(-0.0650263 -0.0744675 0)
(-0.0406843 -0.0597091 0)
(-0.0210415 -0.0422265 0)
(-0.0073318 -0.0236589 0)
(-0.00106757 -0.00637655 0)
(-0.00163911 0.0130249 0)
(-0.0101243 0.039931 0)
(-0.0275263 0.0648531 0)
(-0.0512066 0.0860054 0)
(-0.0793216 0.102411 0)
(-0.110478 0.113601 0)
(-0.143299 0.11947 0)
(-0.176464 0.120162 0)
(-0.208747 0.115983 0)
(-0.239025 0.107333 0)
(-0.266286 0.09467 0)
(-0.289631 0.0785012 0)
(-0.308286 0.059378 0)
(-0.321605 0.0379074 0)
(-0.32909 0.0147649 0)
(-0.330399 -0.00929429 0)
(-0.325371 -0.0334302 0)
(-0.314043 -0.056722 0)
(-0.296674 -0.0781853 0)
(-0.27376 -0.0968038 0)
(-0.246047 -0.111577 0)
(-0.214536 -0.121584 0)
(-0.180463 -0.12606 0)
(-0.145269 -0.124482 0)
(-0.110551 -0.11666 0)
(-0.0779808 -0.102825 0)
(-0.0491938 -0.0837073 0)
(-0.0256695 -0.0605854 0)
(-0.00903641 -0.0353183 0)
(-0.00133875 -0.0104962 0)
(-0.00191444 0.018625 0)
(-0.0117383 0.0546999 0)
(-0.0317532 0.0869298 0)
(-0.0587925 0.113655 0)
(-0.0906616 0.134 0)
(-0.125746 0.147594 0)
(-0.162499 0.154433 0)
(-0.19947 0.15477 0)
(-0.235342 0.149019 0)
(-0.268925 0.137696 0)
(-0.299156 0.12138 0)
(-0.325095 0.100697 0)
(-0.345929 0.0763292 0)
(-0.360975 0.0490203 0)
(-0.369691 0.0195977 0)
(-0.371692 -0.011015 0)
(-0.366766 -0.0417878 0)
(-0.3549 -0.0715874 0)
(-0.336307 -0.0991944 0)
(-0.311451 -0.123338 0)
(-0.281069 -0.142753 0)
(-0.246186 -0.156253 0)
(-0.20811 -0.16283 0)
(-0.16841 -0.161755 0)
(-0.128872 -0.152699 0)
(-0.0914224 -0.135834 0)
(-0.0580018 -0.111931 0)
(-0.0304301 -0.0823992 0)
(-0.0107676 -0.0493041 0)
(-0.00160609 -0.0154764 0)
(-0.00217497 0.0250332 0)
(-0.0132777 0.0715211 0)
(-0.0358019 0.111936 0)
(-0.0660783 0.144787 0)
(-0.10157 0.169362 0)
(-0.140445 0.185447 0)
(-0.180985 0.193195 0)
(-0.221619 0.193006 0)
(-0.260944 0.185441 0)
(-0.297718 0.171151 0)
(-0.330842 0.150846 0)
(-0.359348 0.125282 0)
(-0.382396 0.0952672 0)
(-0.399275 0.0616808 0)
(-0.409403 0.0254937 0)
(-0.412343 -0.0122089 0)
(-0.407821 -0.0502132 0)
(-0.395754 -0.0871744 0)
(-0.376284 -0.121631 0)
(-0.349811 -0.152043 0)
(-0.31703 -0.176847 0)
(-0.278962 -0.194553 0)
(-0.236965 -0.203848 0)
(-0.192726 -0.203735 0)
(-0.148228 -0.193672 0)
(-0.105678 -0.173708 0)
(-0.0673614 -0.144596 0)
(-0.0354889 -0.107846 0)
(-0.0126031 -0.0657238 0)
(-0.00188777 -0.0213467 0)
(-0.00242652 0.0322166 0)
(-0.0147639 0.0903163 0)
(-0.0397104 0.139765 0)
(-0.073109 0.179279 0)
(-0.112089 0.208361 0)
(-0.154599 0.227015 0)
(-0.19876 0.235604 0)
(-0.242883 0.234726 0)
(-0.285497 0.225119 0)
(-0.325318 0.207596 0)
(-0.361229 0.183013 0)
(-0.39225 0.152258 0)
(-0.417533 0.116265 0)
(-0.436344 0.0760373 0)
(-0.448067 0.0326764 0)
(-0.452211 -0.012586 0)
(-0.44843 -0.0583657 0)
(-0.436552 -0.103115 0)
(-0.416617 -0.145132 0)
(-0.388929 -0.18259 0)
(-0.354102 -0.213604 0)
(-0.313113 -0.236327 0)
(-0.267339 -0.249078 0)
(-0.218565 -0.250509 0)
(-0.168973 -0.239777 0)
(-0.121069 -0.216718 0)
(-0.0775309 -0.182001 0)
(-0.0410154 -0.137195 0)
(-0.0146203 -0.0847679 0)
(-0.00220084 -0.0281792 0)
(-0.00267304 0.0401528 0)
(-0.0162129 0.111023 0)
(-0.0435082 0.170323 0)
(-0.0799185 0.217005 0)
(-0.122239 0.250845 0)
(-0.168204 0.272124 0)
(-0.215774 0.281474 0)
(-0.263159 0.279738 0)
(-0.30883 0.267873 0)
(-0.351486 0.246882 0)
(-0.390008 0.21778 0)
(-0.42343 0.18159 0)
(-0.45091 0.139367 0)
(-0.471709 0.0922228 0)
(-0.485187 0.0413708 0)
(-0.490802 -0.0118342 0)
(-0.488126 -0.0658606 0)
(-0.476881 -0.118977 0)
(-0.456979 -0.169246 0)
(-0.428585 -0.214554 0)
(-0.392187 -0.252664 0)
(-0.348669 -0.281323 0)
(-0.299378 -0.298409 0)
(-0.246164 -0.302121 0)
(-0.191393 -0.291203 0)
(-0.137886 -0.265173 0)
(-0.0887551 -0.224516 0)
(-0.0471745 -0.170806 0)
(-0.0168945 -0.106709 0)
(-0.00256149 -0.0360872 0)
(-0.0029175 0.0488269 0)
(-0.0176379 0.133593 0)
(-0.0472206 0.203519 0)
(-0.0865321 0.257833 0)
(-0.132026 0.296636 0)
(-0.181221 0.320555 0)
(-0.231925 0.330552 0)
(-0.282258 0.327773 0)
(-0.330656 0.313439 0)
(-0.375823 0.28877 0)
(-0.41667 0.254956 0)
(-0.452269 0.213161 0)
(-0.481811 0.164548 0)
(-0.504575 0.110321 0)
(-0.519912 0.0517776 0)
(-0.527237 -0.00963623 0)
(-0.526043 -0.0722745 0)
(-0.515927 -0.134251 0)
(-0.496648 -0.193418 0)
(-0.46819 -0.247376 0)
(-0.430858 -0.29352 0)
(-0.385381 -0.329143 0)
(-0.333009 -0.351597 0)
(-0.275603 -0.358517 0)
(-0.215674 -0.348097 0)
(-0.156362 -0.319386 0)
(-0.101254 -0.272564 0)
(-0.0541227 -0.20912 0)
(-0.0194993 -0.1319 0)
(-0.00298582 -0.0452235 0)
(-0.00316298 0.0582305 0)
(-0.0190536 0.157988 0)
(-0.0508754 0.239271 0)
(-0.0929767 0.301619 0)
(-0.141451 0.345522 0)
(-0.193592 0.372026 0)
(-0.247065 0.382499 0)
(-0.299915 0.378456 0)
(-0.350572 0.361428 0)
(-0.397776 0.332888 0)
(-0.440503 0.294219 0)
(-0.477898 0.246727 0)
(-0.509222 0.191672 0)
(-0.533801 0.130327 0)
(-0.551002 0.0640385 0)
(-0.560217 -0.00569562 0)
(-0.560862 -0.0771606 0)
(-0.552409 -0.148361 0)
(-0.534435 -0.216973 0)
(-0.506705 -0.280336 0)
(-0.469277 -0.335471 0)
(-0.422643 -0.379178 0)
(-0.36787 -0.408202 0)
(-0.306742 -0.419483 0)
(-0.241858 -0.410495 0)
(-0.176649 -0.379631 0)
(-0.11521 -0.326589 0)
(-0.0620059 -0.252644 0)
(-0.0225078 -0.160765 0)
(-0.00349059 -0.0557799 0)
(-0.00341403 0.068364 0)
(-0.0204818 0.184188 0)
(-0.0545153 0.277503 0)
(-0.0992962 0.348201 0)
(-0.150522 0.397238 0)
(-0.205251 0.426169 0)
(-0.261009 0.436858 0)
(-0.315793 0.431262 0)
(-0.368059 0.411284 0)
(-0.416628 0.378687 0)
(-0.460582 0.335066 0)
(-0.499188 0.28187 0)
(-0.531815 0.220444 0)
(-0.557882 0.152099 0)
(-0.576806 0.0781943 0)
(-0.587983 0.000227417 0)
(-0.590774 -0.0800751 0)
(-0.584526 -0.160668 0)
(-0.568623 -0.239113 0)
(-0.542567 -0.312527 0)
(-0.506106 -0.377579 0)
(-0.459402 -0.430555 0)
(-0.403226 -0.467512 0)
(-0.339163 -0.48456 0)
(-0.269795 -0.478252 0)
(-0.19879 -0.446082 0)
(-0.13076 -0.38702 0)
(-0.0709585 -0.301929 0)
(-0.0259947 -0.193799 0)
(-0.0040943 -0.0679878 0)
(-0.00367855 0.0792413 0)
(-0.0219592 0.212198 0)
(-0.058213 0.318157 0)
(-0.105572 0.397404 0)
(-0.159282 0.451462 0)
(-0.216144 0.48251 0)
(-0.273554 0.493019 0)
(-0.329493 0.485482 0)
(-0.382492 0.46224 0)
(-0.431501 0.425389 0)
(-0.47577 0.376759 0)
(-0.514738 0.317943 0)
(-0.547942 0.250352 0)
(-0.574938 0.175308 0)
(-0.595243 0.0941339 0)
(-0.608297 0.00827012 0)
(-0.613438 -0.0806151 0)
(-0.609907 -0.170505 0)
(-0.596892 -0.258925 0)
(-0.573604 -0.342845 0)
(-0.539417 -0.418632 0)
(-0.494061 -0.482063 0)
(-0.437871 -0.528457 0)
(-0.372075 -0.552948 0)
(-0.299081 -0.550941 0)
(-0.22268 -0.518728 0)
(-0.147976 -0.454212 0)
(-0.0811022 -0.357547 0)
(-0.0300391 -0.231557 0)
(-0.00481845 -0.0821202 0)
(-0.00397052 0.0909014 0)
(-0.023549 0.242071 0)
(-0.0620927 0.361201 0)
(-0.11195 0.449034 0)
(-0.167828 0.507792 0)
(-0.226244 0.540435 0)
(-0.284481 0.550179 0)
(-0.340553 0.540168 0)
(-0.393123 0.51326 0)
(-0.441344 0.471934 0)
(-0.4847 0.418275 0)
(-0.522871 0.354016 0)
(-0.55562 0.28062 0)
(-0.582702 0.199381 0)
(-0.603791 0.11154 0)
(-0.618423 0.0184128 0)
(-0.625959 -0.078469 0)
(-0.625571 -0.177213 0)
(-0.616269 -0.27541 0)
(-0.596962 -0.369994 0)
(-0.566598 -0.457117 0)
(-0.524371 -0.532103 0)
(-0.470023 -0.589514 0)
(-0.40422 -0.623388 0)
(-0.328977 -0.627732 0)
(-0.248018 -0.597264 0)
(-0.166849 -0.528367 0)
(-0.0925445 -0.420045 0)
(-0.0347291 -0.27465 0)
(-0.00568957 -0.0984958 0)
(-0.00431415 0.103425 0)
(-0.0253559 0.273936 0)
(-0.0663565 0.406662 0)
(-0.118667 0.502888 0)
(-0.176334 0.565735 0)
(-0.235561 0.599152 0)
(-0.293555 0.607291 0)
(-0.348425 0.594081 0)
(-0.39906 0.562989 0)
(-0.444902 0.516926 0)
(-0.485751 0.458248 0)
(-0.521603 0.388826 0)
(-0.552518 0.310151 0)
(-0.578516 0.223451 0)
(-0.599488 0.129832 0)
(-0.61513 0.0304204 0)
(-0.624887 -0.0734775 0)
(-0.627918 -0.180199 0)
(-0.623096 -0.287531 0)
(-0.609047 -0.392509 0)
(-0.584263 -0.491216 0)
(-0.547315 -0.578637 0)
(-0.497188 -0.648619 0)
(-0.433743 -0.694033 0)
(-0.358303 -0.70724 0)
(-0.274237 -0.680948 0)
(-0.187257 -0.609429 0)
(-0.105378 -0.489901 0)
(-0.0401691 -0.323735 0)
(-0.00674263 -0.117487 0)
(-0.00475061 0.116964 0)
(-0.0275494 0.308046 0)
(-0.0713202 0.454645 0)
(-0.126087 0.558746 0)
(-0.185068 0.624661 0)
(-0.244135 0.657637 0)
(-0.300482 0.662995 0)
(-0.352429 0.645619 0)
(-0.399203 0.609683 0)
(-0.44065 0.558574 0)
(-0.476985 0.494927 0)
(-0.508603 0.420738 0)
(-0.535932 0.337492 0)
(-0.559319 0.246315 0)
(-0.57894 0.148123 0)
(-0.594714 0.0437869 0)
(-0.606243 -0.0656978 0)
(-0.612748 -0.179011 0)
(-0.613035 -0.294281 0)
(-0.6055 -0.408819 0)
(-0.588194 -0.518837 0)
(-0.559013 -0.619171 0)
(-0.516032 -0.70309 0)
(-0.458043 -0.762307 0)
(-0.385305 -0.787343 0)
(-0.30041 -0.768417 0)
(-0.208923 -0.69694 0)
(-0.11968 -0.567442 0)
(-0.0464936 -0.379506 0)
(-0.00802722 -0.139535 0)
(-0.00534943 0.131783 0)
(-0.0303985 0.344842 0)
(-0.0774577 0.505374 0)
(-0.134726 0.616351 0)
(-0.194377 0.683749 0)
(-0.251973 0.714536 0)
(-0.304823 0.715521 0)
(-0.351623 0.692732 0)
(-0.392107 0.651143 0)
(-0.426664 0.594644 0)
(-0.456036 0.526142 0)
(-0.4811 0.44772 0)
(-0.502719 0.36082 0)
(-0.521624 0.266417 0)
(-0.538325 0.165191 0)
(-0.553032 0.0576952 0)
(-0.565573 -0.0554636 0)
(-0.575321 -0.173416 0)
(-0.581116 -0.294778 0)
(-0.581219 -0.417338 0)
(-0.573315 -0.537683 0)
(-0.554632 -0.650778 0)
(-0.522238 -0.749577 0)
(-0.473597 -0.82478 0)
(-0.407472 -0.864979 0)
(-0.325107 -0.857447 0)
(-0.231344 -0.789838 0)
(-0.135508 -0.652739 0)
(-0.0538909 -0.442685 0)
(-0.00961905 -0.165175 0)
(-0.00622881 0.148336 0)
(-0.0343244 0.38504 0)
(-0.0854544 0.559207 0)
(-0.145258 0.67535 0)
(-0.204623 0.741858 0)
(-0.258911 0.768031 0)
(-0.305784 0.762557 0)
(-0.344571 0.732812 0)
(-0.375738 0.684641 0)
(-0.400389 0.622427 0)
(-0.419907 0.549297 0)
(-0.43573 0.467364 0)
(-0.449198 0.377966 0)
(-0.46146 0.281878 0)
(-0.473394 0.179496 0)
(-0.485542 0.0710081 0)
(-0.498026 -0.0434252 0)
(-0.51046 -0.163473 0)
(-0.52184 -0.288375 0)
(-0.530437 -0.416598 0)
(-0.533715 -0.545387 0)
(-0.528339 -0.670203 0)
(-0.510366 -0.784082 0)
(-0.475744 -0.877063 0)
(-0.42129 -0.935924 0)
(-0.346183 -0.944657 0)
(-0.253676 -0.886164 0)
(-0.15289 -0.745435 0)
(-0.062643 -0.514007 0)
(-0.011642 -0.195085 0)
(-0.00759298 0.167373 0)
(-0.039984 0.429742 0)
(-0.0962612 0.616623 0)
(-0.158461 0.735147 0)
(-0.215989 0.797318 0)
(-0.2643 0.81561 0)
(-0.30183 0.801059 0)
(-0.328922 0.762569 0)
(-0.347063 0.70686 0)
(-0.358263 0.638728 0)
(-0.364654 0.561413 0)
(-0.368276 0.476954 0)
(-0.370962 0.386505 0)
(-0.374267 0.290578 0)
(-0.379433 0.189248 0)
(-0.387342 0.0823113 0)
(-0.398448 -0.0305496 0)
(-0.412687 -0.149592 0)
(-0.429341 -0.274774 0)
(-0.446875 -0.405418 0)
(-0.462755 -0.539716 0)
(-0.47331 -0.674044 0)
(-0.47374 -0.802078 0)
(-0.45844 -0.913789 0)
(-0.421907 -0.994587 0)
(-0.360444 -1.02514 0)
(-0.274508 -0.982663 0)
(-0.171776 -0.844473 0)
(-0.0731905 -0.594182 0)
(-0.0143099 -0.230176 0)
(-0.00980153 0.190139 0)
(-0.0483969 0.480559 0)
(-0.111116 0.678099 0)
(-0.17502 0.794596 0)
(-0.228043 0.847545 0)
(-0.266399 0.853729 0)
(-0.289986 0.827008 0)
(-0.300694 0.777895 0)
(-0.30138 0.713863 0)
(-0.295133 0.639927 0)
(-0.284898 0.559244 0)
(-0.273305 0.473625 0)
(-0.262618 0.383926 0)
(-0.254736 0.290333 0)
(-0.2512 0.192566 0)
(-0.253189 0.0900301 0)
(-0.261485 -0.0180594 0)
(-0.276392 -0.132543 0)
(-0.297597 -0.254129 0)
(-0.32396 -0.383103 0)
(-0.353245 -0.518842 0)
(-0.38181 -0.659075 0)
(-0.404364 -0.79878 0)
(-0.413969 -0.928733 0)
(-0.402664 -1.03387 0)
(-0.363113 -1.09204 0)
(-0.291448 -1.0742 0)
(-0.191892 -0.94763 0)
(-0.086221 -0.683811 0)
(-0.0180025 -0.271757 0)
(-0.0134964 0.218701 0)
(-0.0611221 0.539699 0)
(-0.131434 0.743748 0)
(-0.194966 0.851371 0)
(-0.238805 0.888415 0)
(-0.261218 0.877317 0)
(-0.264627 0.835115 0)
(-0.253143 0.773773 0)
(-0.231321 0.701164 0)
(-0.203434 0.622158 0)
(-0.173188 0.539531 0)
(-0.143678 0.454648 0)
(-0.117455 0.367932 0)
(-0.0966055 0.279174 0)
(-0.0828348 0.187729 0)
(-0.0775142 0.0926388 0)
(-0.0816875 -0.00728825 0)
(-0.0960221 -0.113403 0)
(-0.120685 -0.227105 0)
(-0.155123 -0.349637 0)
(-0.197728 -0.481691 0)
(-0.245378 -0.622698 0)
(-0.292902 -0.769632 0)
(-0.332635 -0.915174 0)
(-0.354457 -1.04522 0)
(-0.346962 -1.13614 0)
(-0.300314 -1.15293 0)
(-0.212337 -1.05071 0)
(-0.102744 -0.783135 0)
(-0.0233943 -0.321832 0)
(-0.0198166 0.256496 0)
(-0.0804336 0.609842 0)
(-0.15827 0.812406 0)
(-0.216315 0.900809 0)
(-0.242839 0.913268 0)
(-0.240447 0.87916 0)
(-0.215519 0.818593 0)
(-0.175059 0.744349 0)
(-0.125491 0.664007 0)
(-0.0721461 0.581715 0)
(-0.0192401 0.499458 0)
(0.0299524 0.417899 0)
(0.0728783 0.336886 0)
(0.10751 0.255766 0)
(0.132191 0.173545 0)
(0.145533 0.0889697 0)
(0.146357 0.000553463 0)
(0.133706 -0.0934187 0)
(0.106924 -0.194873 0)
(0.0658469 -0.305863 0)
(0.0111451 -0.428333 0)
(-0.0551321 -0.563567 0)
(-0.128772 -0.711084 0)
(-0.202441 -0.866643 0)
(-0.264874 -1.01903 0)
(-0.300945 -1.14558 0)
(-0.293603 -1.20725 0)
(-0.230556 -1.14612 0)
(-0.123985 -0.891325 0)
(-0.0316272 -0.383526 0)
(-0.0306584 0.309128 0)
(-0.109158 0.693358 0)
(-0.190549 0.879683 0)
(-0.231895 0.933973 0)
(-0.227545 0.911639 0)
(-0.187915 0.849403 0)
(-0.12484 0.769283 0)
(-0.048493 0.683474 0)
(0.0331591 0.598118 0)
(0.114271 0.515865 0)
(0.19069 0.437451 0)
(0.25947 0.362587 0)
(0.318476 0.290459 0)
(0.36608 0.219964 0)
(0.400949 0.149825 0)
(0.421896 0.0786073 0)
(0.42779 0.00468951 0)
(0.417521 -0.0737973 0)
(0.390021 -0.159042 0)
(0.344385 -0.253609 0)
(0.280143 -0.360394 0)
(0.197774 -0.482356 0)
(0.0995947 -0.621738 0)
(-0.0088732 -0.778295 0)
(-0.11714 -0.945835 0)
(-0.2081 -1.10624 0)
(-0.257662 -1.22074 0)
(-0.239851 -1.22063 0)
(-0.150458 -1.00472 0)
(-0.0443364 -0.461491 0)
(-0.0485 0.385574 0)
(-0.148756 0.789766 0)
(-0.219806 0.933958 0)
(-0.222302 0.934711 0)
(-0.166336 0.868061 0)
(-0.0740806 0.775786 0)
(0.0367481 0.678762 0)
(0.153743 0.586186 0)
(0.268686 0.501243 0)
(0.376422 0.424274 0)
(0.47382 0.354397 0)
(0.558978 0.290273 0)
(0.630693 0.230447 0)
(0.688112 0.173468 0)
(0.730502 0.117906 0)
(0.757103 0.0623068 0)
(0.767022 0.00511103 0)
(0.759172 -0.0554563 0)
(0.732234 -0.121523 0)
(0.684678 -0.195734 0)
(0.614893 -0.281405 0)
(0.521522 -0.382585 0)
(0.404207 -0.503799 0)
(0.265027 -0.648984 0)
(0.110941 -0.818604 0)
(-0.0426245 -1.00325 0)
(-0.167713 -1.17157 0)
(-0.223713 -1.25204 0)
(-0.178373 -1.11327 0)
(-0.0626545 -0.562407 0)
(-0.0737779 0.500878 0)
(-0.191344 0.888791 0)
(-0.216112 0.947764 0)
(-0.141313 0.874855 0)
(-0.00734445 0.761248 0)
(0.151237 0.645242 0)
(0.313956 0.540914 0)
(0.469475 0.45138 0)
(0.611987 0.375496 0)
(0.738903 0.310887 0)
(0.849324 0.255089 0)
(0.943139 0.205919 0)
(1.02053 0.161528 0)
(1.08168 0.120355 0)
(1.12663 0.0810299 0)
(1.15521 0.0422795 0)
(1.16688 0.0028113 0)
(1.16076 -0.0388115 0)
(1.13548 -0.0843339 0)
(1.08917 -0.136015 0)
(1.01932 -0.196905 0)
(0.922904 -0.27118 0)
(0.796669 -0.364453 0)
(0.638082 -0.483735 0)
(0.447656 -0.636153 0)
(0.233686 -0.824127 0)
(0.0200785 -1.03273 0)
(-0.14453 -1.20425 0)
(-0.189762 -1.19325 0)
(-0.0825371 -0.696238 0)
(-0.0911727 0.671512 0)
(-0.193245 0.950097 0)
(-0.0946223 0.864391 0)
(0.110662 0.712121 0)
(0.342013 0.56868 0)
(0.565254 0.450572 0)
(0.767487 0.358204 0)
(0.944624 0.286784 0)
(1.09681 0.23096 0)
(1.2259 0.186371 0)
(1.33408 0.149772 0)
(1.42335 0.118805 0)
(1.49531 0.0917376 0)
(1.55115 0.0672674 0)
(1.59162 0.0443573 0)
(1.61705 0.022114 0)
(1.62732 -0.00031874 0)
(1.62183 -0.0238649 0)
(1.59939 -0.0496506 0)
(1.55814 -0.0791774 0)
(1.49527 -0.114592 0)
(1.4068 -0.159103 0)
(1.28734 -0.217613 0)
(1.13 -0.297583 0)
(0.927396 -0.40981 0)
(0.675249 -0.567451 0)
(0.38018 -0.778635 0)
(0.0770694 -1.02352 0)
(-0.128782 -1.18747 0)
(-0.0775238 -0.861615 0)
(0.0101976 0.815318 0)
(0.0266315 0.852602 0)
(0.359465 0.615927 0)
(0.722707 0.430591 0)
(1.02418 0.304794 0)
(1.26709 0.219824 0)
(1.46295 0.162424 0)
(1.62073 0.122987 0)
(1.74807 0.0949424 0)
(1.85108 0.0741355 0)
(1.93429 0.0579983 0)
(2.00095 0.0449179 0)
(2.05334 0.0338479 0)
(2.09305 0.0240772 0)
(2.12107 0.0150892 0)
(2.13794 0.00647069 0)
(2.1438 -0.00215255 0)
(2.13833 -0.0111745 0)
(2.12073 -0.021071 0)
(2.08955 -0.032494 0)
(2.04248 -0.0464225 0)
(1.97593 -0.0644349 0)
(1.88436 -0.0892243 0)
(1.75928 -0.125587 0)
(1.58814 -0.182232 0)
(1.3537 -0.274527 0)
(1.03298 -0.426829 0)
(0.607398 -0.667132 0)
(0.174444 -0.96787 0)
(0.0770729 -0.930328 0)
(0.886962 0.431535 0)
(1.15962 0.378518 0)
(1.62532 0.230007 0)
(1.97395 0.136114 0)
(2.18834 0.0829057 0)
(2.32886 0.0522618 0)
(2.42821 0.0343897 0)
(2.50116 0.0237085 0)
(2.55617 0.0170096 0)
(2.59849 0.0125338 0)
(2.63139 0.00933357 0)
(2.65689 0.00688931 0)
(2.67629 0.00490443 0)
(2.69041 0.00319997 0)
(2.6998 0.001659 0)
(2.70473 0.000196099 0)
(2.7053 -0.00126109 0)
(2.70141 -0.00278756 0)
(2.69275 -0.00447229 0)
(2.67872 -0.0064416 0)
(2.65833 -0.00889586 0)
(2.62995 -0.0121844 0)
(2.59083 -0.0169693 0)
(2.53623 -0.0245981 0)
(2.45759 -0.0379429 0)
(2.339 -0.0632077 0)
(2.1451 -0.113457 0)
(1.79812 -0.213469 0)
(1.28212 -0.383519 0)
(0.943183 -0.45238 0)
)
;

boundaryField
{
    movingWall
    {
        type            fixedValue;
        value           uniform (3 0 0);
    }
    fixedWalls
    {
        type            noSlip;
    }
    frontAndBack
    {
        type            empty;
    }
}


// ************************************************************************* //
