/*--------------------------------*- C++ -*----------------------------------*\
  =========                 |
  \\      /  F ield         | OpenFOAM: The Open Source CFD Toolbox
   \\    /   O peration     | Website:  https://openfoam.org
    \\  /    A nd           | Version:  9
     \\/     M anipulation  |
\*---------------------------------------------------------------------------*/
FoamFile
{
    format      ascii;
    class       volScalarField;
    location    "0.15";
    object      k;
}
// * * * * * * * * * * * * * * * * * * * * * * * * * * * * * * * * * * * * * //

dimensions      [0 2 -2 0 0 0 0];

internalField   nonuniform List<scalar> 
1915
(
0.201695
0.225185
0.253348
0.287043
0.327551
0.354416
0.346838
0.321875
0.289511
0.25609
0.225231
0.198698
0.176995
0.159828
0.146501
0.136214
0.128242
0.121999
0.117043
0.113051
0.10979
0.107088
0.104818
0.102882
0.101203
0.0348253
0.0584517
0.0678507
0.0772132
0.0839512
0.088759
0.09222
0.0953108
0.0983541
0.101606
0.105336
0.109705
0.114844
0.120897
0.12803
0.136442
0.146373
0.158116
0.172032
0.188569
0.208281
0.231765
0.259462
0.29177
0.325314
0.335123
0.322186
0.298213
0.269502
0.240309
0.213422
0.190268
0.171237
0.156054
0.14412
0.134763
0.127384
0.121499
0.116746
0.112855
0.109632
0.106931
0.104641
0.102677
0.100969
0.0349863
0.0574179
0.0669865
0.0760388
0.0835705
0.0891424
0.0932833
0.0967502
0.100089
0.103624
0.107685
0.112464
0.118091
0.124696
0.132428
0.141465
0.152016
0.164337
0.17874
0.195613
0.215431
0.238611
0.264946
0.292226
0.311018
0.311537
0.297247
0.27541
0.250476
0.225478
0.202486
0.182591
0.166087
0.15274
0.14207
0.133542
0.126681
0.121102
0.116513
0.112699
0.109497
0.106786
0.104471
0.102477
0.10074
0.0352311
0.0560773
0.066767
0.0752081
0.0825727
0.088724
0.0937222
0.0979172
0.101758
0.105733
0.110224
0.115455
0.121574
0.12871
0.136993
0.146568
0.157604
0.1703
0.184879
0.201591
0.220619
0.241819
0.264015
0.28329
0.29257
0.288756
0.274799
0.255354
0.233825
0.212522
0.192972
0.175961
0.161682
0.14994
0.140364
0.132545
0.126119
0.120788
0.116327
0.112564
0.109369
0.106641
0.104298
0.102273
0.100509
0.0356818
0.0557588
0.0672274
0.075395
0.0824262
0.08863
0.0940477
0.0988514
0.103362
0.10796
0.112978
0.118649
0.125157
0.132644
0.141235
0.151048
0.162207
0.174832
0.18903
0.204827
0.222064
0.240043
0.256986
0.269521
0.273651
0.268151
0.255254
0.23827
0.21981
0.201688
0.185054
0.170469
0.158052
0.147648
0.138977
0.131739
0.125662
0.120526
0.116158
0.112426
0.109228
0.106478
0.104108
0.102055
0.100268
0.0363373
0.0564827
0.0682147
0.0762068
0.0829673
0.089109
0.0947458
0.0999832
0.105025
0.110131
0.115578
0.121593
0.128358
0.136017
0.144684
0.154447
0.165377
0.177505
0.190797
0.205087
0.21993
0.234386
0.246749
0.254589
0.25572
0.249766
0.238359
0.22384
0.208182
0.19281
0.178614
0.166019
0.155113
0.145787
0.137842
0.131065
0.12526
0.120271
0.11597
0.112257
0.10905
0.106281
0.103886
0.101811
0.100007
0.0370935
0.0576711
0.0694824
0.077312
0.0838161
0.0898125
0.0955123
0.100999
0.106395
0.111878
0.117653
0.12391
0.130815
0.138498
0.147052
0.156533
0.166955
0.178266
0.190318
0.202801
0.215146
0.226403
0.235194
0.239928
0.239434
0.233712
0.223922
0.211727
0.198569
0.185551
0.173378
0.162397
0.152701
0.144229
0.136856
0.130439
0.124847
0.119971
0.115721
0.112022
0.108811
0.106028
0.103618
0.10153
0.0997184
0.037582
0.0589395
0.0708895
0.0786064
0.0848589
0.0906261
0.0962278
0.10177
0.107334
0.113029
0.118996
0.125379
0.13231
0.139892
0.148191
0.157227
0.166963
0.177284
0.187965
0.198633
0.208704
0.217357
0.223573
0.226353
0.225095
0.219933
0.211703
0.201565
0.190555
0.179513
0.169004
0.159331
0.150603
0.142812
0.135894
0.129765
0.124346
0.119567
0.115366
0.111689
0.108484
0.1057
0.103289
0.101202
0.0993937
0.0377498
0.0600072
0.072209
0.0799399
0.086022
0.0915499
0.096951
0.102384
0.107926
0.11365
0.119648
0.126017
0.132849
0.140215
0.148148
0.156633
0.165594
0.174875
0.184217
0.193239
0.201416
0.20809
0.212545
0.214166
0.212655
0.20818
0.201337
0.192935
0.183709
0.174294
0.165146
0.156537
0.148598
0.141365
0.134826
0.128946
0.123685
0.119004
0.114864
0.111225
0.108045
0.105281
0.102887
0.100817
0.0990266
0.0376516
0.0607614
0.0732962
0.0811646
0.0871877
0.0925259
0.0976945
0.102916
0.10829
0.113881
0.119751
0.125962
0.132572
0.139615
0.147094
0.154966
0.163127
0.1714
0.179525
0.187149
0.193828
0.19906
0.202353
0.203327
0.20184
0.19805
0.192381
0.185395
0.177616
0.169523
0.161489
0.153761
0.146486
0.139735
0.133536
0.127893
0.122798
0.118234
0.11418
0.110606
0.107479
0.104759
0.102404
0.100369
0.0986129
0.0373524
0.0611865
0.0740722
0.0821568
0.0882186
0.0934398
0.098395
0.103363
0.108481
0.113823
0.119439
0.12537
0.131646
0.138275
0.145235
0.152461
0.159833
0.167173
0.174234
0.180706
0.186231
0.190431
0.192965
0.193597
0.192261
0.189087
0.184377
0.178525
0.171905
0.164887
0.157775
0.150797
0.144105
0.137798
0.131932
0.12654
0.121637
0.117224
0.113291
0.109817
0.106774
0.104126
0.101834
0.0998559
0.0981509
0.0369102
0.061309
0.0745092
0.0828339
0.0889952
0.0941644
0.0989466
0.103664
0.108488
0.113511
0.118787
0.124347
0.130206
0.136353
0.142749
0.149315
0.155929
0.162418
0.168559
0.17409
0.178723
0.182175
0.184205
0.184662
0.183513
0.180859
0.176916
0.171967
0.166281
0.160147
0.153818
0.147501
0.14135
0.135478
0.129962
0.124852
0.120181
0.11596
0.112189
0.108854
0.10593
0.103384
0.101181
0.0992795
0.0976423
0.0363689
0.0611728
0.0746159
0.0831584
0.0894388
0.0945967
0.0992451
0.103732
0.108256
0.112931
0.11782
0.122954
0.128339
0.133958
0.139763
0.145671
0.151561
0.157274
0.162615
0.167364
0.171291
0.17418
0.175857
0.176218
0.175245
0.173015
0.169684
0.165458
0.160538
0.155151
0.14951
0.143801
0.138175
0.13275
0.127613
0.122827
0.118432
0.11445
0.110885
0.107727
0.104955
0.102541
0.10045
0.0986452
0.0970915
0.0357618
0.060826
0.0744244
0.0831329
0.0895175
0.0946777
0.099218
0.103497
0.107733
0.112055
0.116537
0.121217
0.126101
0.131169
0.136372
0.14163
0.14683
0.151831
0.156463
0.160544
0.163889
0.16633
0.167737
0.168033
0.167208
0.165318
0.162477
0.158842
0.154572
0.149839
0.144825
0.139697
0.134596
0.129638
0.124916
0.120496
0.116423
0.112722
0.109403
0.106457
0.103869
0.101611
0.0996534
0.0979627
0.0965061
0.0351141
0.0603159
0.0739818
0.0827905
0.0892426
0.0943962
0.0988379
0.102927
0.106889
0.110866
0.114943
0.119162
0.123536
0.128048
0.132653
0.137277
0.141822
0.146162
0.150154
0.153648
0.156493
0.158557
0.159738
0.159979
0.15927
0.157654
0.155217
0.152079
0.148378
0.144238
0.139813
0.135251
0.130681
0.126213
0.121937
0.117919
0.114205
0.110822
0.107781
0.105077
0.102696
0.100615
0.0988081
0.0972446
0.0958958
0.0344442
0.0596868
0.073342
0.0821841
0.0886574
0.0937813
0.098121
0.102028
0.105731
0.109378
0.11306
0.116828
0.1207
0.124666
0.128689
0.132705
0.136629
0.140354
0.143763
0.146729
0.149131
0.150863
0.151846
0.152033
0.151417
0.150028
0.147935
0.145234
0.142038
0.138445
0.134582
0.130575
0.12654
0.122577
0.118769
0.115178
0.111849
0.108809
0.106068
0.103625
0.101468
0.0995785
0.0979329
0.0965058
0.0952718
0.033766
0.0589772
0.0725589
0.081375
0.0878232
0.0928887
0.0971152
0.100844
0.104299
0.107632
0.110938
0.114275
0.117667
0.121111
0.124579
0.12802
0.131363
0.134521
0.137395
0.139883
0.141888
0.143324
0.144128
0.144262
0.143721
0.142528
0.140737
0.138424
0.135682
0.132604
0.129277
0.125811
0.122306
0.11885
0.115517
0.112364
0.109432
0.106745
0.104315
0.102143
0.100218
0.0985267
0.0970482
0.0957618
0.0946459
0.0330908
0.0582197
0.0716815
0.0804246
0.0868076
0.0917874
0.0958878
0.0994379
0.102657
0.105695
0.10865
0.111584
0.114527
0.117484
0.120436
0.123344
0.126153
0.128791
0.131181
0.133239
0.134887
0.136059
0.136703
0.136789
0.136313
0.135294
0.133773
0.131813
0.129488
0.126882
0.124061
0.121111
0.118118
0.115157
0.112291
0.10957
0.107031
0.104695
0.102576
0.100673
0.0989801
0.0974856
0.0961739
0.0950279
0.0940298
0.0324274
0.0574413
0.0707527
0.0793892
0.0856766
0.0905493
0.0945137
0.0978873
0.100883
0.103648
0.106281
0.108846
0.11138
0.113893
0.116376
0.118803
0.12113
0.123303
0.12526
0.126936
0.128271
0.12921
0.129714
0.12976
0.129343
0.12848
0.127203
0.125563
0.123618
0.121438
0.119085
0.116618
0.114105
0.111611
0.109188
0.106879
0.104716
0.102718
0.100895
0.0992517
0.0977823
0.0964783
0.095328
0.0943179
0.0934339
0.031782
0.0566629
0.0698076
0.0783167
0.0844892
0.0892412
0.0930649
0.0962674
0.0990551
0.101571
0.103914
0.106151
0.10832
0.11044
0.112509
0.11451
0.116414
0.118179
0.119759
0.121103
0.122166
0.122906
0.123292
0.123306
0.122946
0.122225
0.121167
0.119813
0.11821
0.116413
0.114478
0.112446
0.110372
0.108305
0.106289
0.10436
0.102544
0.100858
0.0993123
0.0979102
0.0966495
0.0955241
0.0945254
0.0936433
0.092867
0.0311586
0.0559001
0.0688728
0.0772448
0.083293
0.0879188
0.0916032
0.0946443
0.0972423
0.0995367
0.101625
0.103575
0.105428
0.107208
0.10892
0.110556
0.112097
0.113514
0.114773
0.115838
0.116672
0.117246
0.117535
0.117528
0.117222
0.116627
0.115764
0.114662
0.11336
0.111899
0.110325
0.108679
0.106992
0.105304
0.103651
0.10206
0.100555
0.0991501
0.097854
0.0966706
0.0955995
0.094637
0.0937771
0.0930128
0.0923359
0.0305606
0.0551638
0.067967
0.0762011
0.0821235
0.0866248
0.0901764
0.0930695
0.0954987
0.0976002
0.0994702
0.101176
0.102762
0.104256
0.105669
0.107001
0.10824
0.109368
0.110363
0.111196
0.111844
0.112283
0.112498
0.112477
0.112222
0.111739
0.111043
0.11016
0.109116
0.107946
0.106682
0.105361
0.104006
0.102644
0.101304
0.100008
0.098774
0.0976142
0.0965371
0.0955466
0.0946436
0.0938261
0.0930906
0.0924321
0.091845
0.0299903
0.0544612
0.0671031
0.0752044
0.0810059
0.0853892
0.0888188
0.0915798
0.0938625
0.0958
0.097487
0.0989907
0.100358
0.101617
0.102787
0.103871
0.104866
0.105762
0.106543
0.107192
0.107692
0.108027
0.108185
0.108159
0.10795
0.107563
0.107011
0.106311
0.105485
0.104557
0.103554
0.102502
0.101424
0.100336
0.0992598
0.0982123
0.097208
0.0962575
0.0953682
0.094544
0.0937867
0.0930957
0.0924693
0.0919043
0.0913969
0.0294487
0.0537969
0.0662893
0.0742671
0.0799564
0.0842319
0.0875523
0.0901984
0.0923567
0.0941579
0.0956951
0.0970355
0.0982264
0.0993
0.100276
0.101165
0.101968
0.102682
0.103297
0.103804
0.10419
0.104446
0.104563
0.104538
0.104371
0.104066
0.103632
0.103084
0.102436
0.101708
0.100918
0.100086
0.0992313
0.098368
0.0975083
0.0966661
0.0958527
0.0950771
0.0943454
0.0936619
0.0930286
0.092446
0.0919136
0.0914299
0.0909921
0.0289361
0.0531729
0.0655299
0.073396
0.0789842
0.0831634
0.0863885
0.0889366
0.0909916
0.0926818
0.0940993
0.0953107
0.096364
0.0972931
0.0981203
0.0988591
0.0995155
0.10009
0.10058
0.10098
0.101282
0.10148
0.10157
0.10155
0.101419
0.101182
0.100846
0.100419
0.0999153
0.0993466
0.0987279
0.0980737
0.0973978
0.0967134
0.0960282
0.0953524
0.0946947
0.0940624
0.0934611
0.0928945
0.0923651
0.0918741
0.0914217
0.0910074
0.0906298
0.0284531
0.0525907
0.064827
0.0725938
0.0780925
0.0821876
0.085331
0.0877972
0.0897679
0.0913697
0.0926935
0.0938054
0.0947539
0.0955736
0.0962889
0.0969156
0.097463
0.0979353
0.098333
0.0986542
0.0988958
0.0990545
0.0991277
0.0991145
0.0990157
0.0988343
0.0985754
0.0982462
0.0978555
0.097413
0.0969293
0.0964152
0.0958811
0.0953366
0.0947903
0.0942474
0.0937148
0.0931985
0.0927034
0.0922328
0.0917894
0.0913747
0.0909896
0.0906343
0.0903079
0.0280009
0.0520514
0.0641811
0.0718608
0.0772815
0.0813043
0.0843789
0.0867778
0.088681
0.0902137
0.0914657
0.0925027
0.093373
0.0941122
0.0947455
0.0952907
0.0957593
0.0961579
0.0964899
0.0967561
0.0969559
0.0970882
0.0971521
0.0971477
0.0970759
0.0969393
0.0967419
0.0964887
0.0961864
0.0958422
0.0954637
0.095059
0.0946358
0.0942015
0.093763
0.0933248
0.0928916
0.0924683
0.0920587
0.0916663
0.0912934
0.0909419
0.0906128
0.0903069
0.0900239
0.0275812
0.0515565
0.0635928
0.0711965
0.07655
0.0805116
0.0835292
0.0858738
0.087724
0.0892037
0.0904019
0.0913837
0.0921973
0.0928785
0.0934535
0.093941
0.094354
0.0947012
0.0949877
0.0952163
0.0953883
0.0955041
0.0955641
0.095569
0.09552
0.0954192
0.0952698
0.0950757
0.0948417
0.0945731
0.0942758
0.0939556
0.0936183
0.0932697
0.0929149
0.0925588
0.092204
0.0918544
0.0915135
0.0911842
0.0908687
0.0905689
0.0902862
0.0900214
0.0897748
0.027196
0.0511083
0.063063
0.0706012
0.0758977
0.0798082
0.0827794
0.0850809
0.0868902
0.0883301
0.0894888
0.0904309
0.0912044
0.091845
0.0923794
0.092827
0.0932021
0.0935143
0.0937702
0.0939739
0.0941281
0.0942344
0.0942939
0.0943079
0.0942777
0.0942053
0.0940933
0.0939446
0.0937629
0.0935523
0.0933171
0.0930617
0.0927907
0.0925083
0.0922188
0.0919259
0.0916326
0.0913413
0.091055
0.0907763
0.0905072
0.0902496
0.0900049
0.0897742
0.0895578
0.0268472
0.0507096
0.0625943
0.0700772
0.0753262
0.079195
0.0821291
0.0843971
0.0861754
0.087586
0.0887164
0.0896306
0.0903762
0.090989
0.0914958
0.0919166
0.0922662
0.0925552
0.092791
0.0929788
0.0931221
0.0932233
0.0932843
0.0933065
0.0932917
0.0932416
0.0931582
0.0930442
0.0929023
0.0927357
0.0925477
0.0923418
0.0921214
0.0918899
0.0916507
0.0914068
0.0911612
0.0909156
0.0906724
0.0904339
0.090202
0.0899784
0.0897647
0.0895617
0.0893701
0.0265372
0.0503655
0.0621926
0.0696305
0.0748414
0.0786772
0.0815822
0.0838245
0.0855796
0.0869689
0.0880792
0.0889739
0.0897005
0.0902945
0.0907828
0.0911858
0.0915185
0.0917921
0.0920148
0.0921925
0.0923292
0.092428
0.0924911
0.0925205
0.0925178
0.0924847
0.0924232
0.0923353
0.0922234
0.0920898
0.0919373
0.0917686
0.0915865
0.0913936
0.0911928
0.0909865
0.0907772
0.0905669
0.0903572
0.0901502
0.0899476
0.0897511
0.0895619
0.0893812
0.0892097
0.0262687
0.0500851
0.0618699
0.0692742
0.0744562
0.0782666
0.0811492
0.0833718
0.0851094
0.0864828
0.0875784
0.0884592
0.0891724
0.0897533
0.0902289
0.0906195
0.0909407
0.0912039
0.0914177
0.0915885
0.091721
0.0918184
0.0918836
0.0919184
0.0919248
0.0919044
0.091859
0.0917904
0.0917004
0.0915912
0.0914648
0.0913235
0.0911696
0.0910054
0.090833
0.0906547
0.0904726
0.0902886
0.0901041
0.089921
0.0897406
0.0895647
0.0893944
0.0892309
0.0890748
0.0260466
0.0498862
0.0616487
0.0690325
0.0741944
0.0779856
0.0808505
0.0830567
0.0847797
0.0861398
0.0872232
0.0880927
0.0887951
0.0893656
0.0898311
0.0902122
0.0905243
0.0907794
0.0909863
0.0911517
0.0912805
0.0913766
0.0914427
0.0914811
0.0914937
0.0914821
0.091448
0.0913929
0.0913184
0.0912263
0.0911183
0.0909964
0.0908623
0.0907181
0.0905657
0.090407
0.0902439
0.090078
0.0899111
0.0897445
0.0895797
0.0894182
0.0892611
0.0891097
0.0889647
0.0258836
0.0498027
0.0615704
0.0689479
0.0740969
0.0778721
0.0807199
0.0829095
0.0846168
0.0859626
0.0870327
0.0878899
0.0885808
0.0891405
0.0895958
0.0899672
0.0902704
0.0905175
0.0907174
0.0908771
0.0910019
0.0910955
0.0911611
0.0912009
0.0912169
0.0912106
0.0911835
0.091137
0.0910726
0.0909916
0.0908955
0.0907858
0.0906643
0.0905326
0.0903923
0.0902452
0.0900931
0.0899376
0.0897804
0.089623
0.0894666
0.0893128
0.0891629
0.089018
0.0888791
0.02581
0.0498992
0.0617077
0.0690917
0.0742298
0.0779852
0.0808099
0.082976
0.0846607
0.0859855
0.0870364
0.087876
0.0885508
0.0890958
0.0895376
0.0898968
0.090189
0.0904262
0.0906176
0.0907701
0.0908892
0.0909787
0.0910417
0.0910805
0.0910971
0.0910929
0.0910693
0.0910273
0.0909682
0.0908932
0.0908033
0.0906998
0.0905841
0.0904577
0.0903219
0.0901786
0.0900292
0.0898756
0.0897196
0.0895627
0.0894065
0.0892526
0.0891026
0.0889577
0.088819
0.025889
0.0502911
0.0621828
0.069578
0.0746938
0.0784125
0.0811955
0.0833201
0.0849659
0.0862552
0.0872742
0.0880854
0.088735
0.0892576
0.0896797
0.0900214
0.0902983
0.0905221
0.0907019
0.0908448
0.0909558
0.0910389
0.0910971
0.0911327
0.0911474
0.0911425
0.0911191
0.0910782
0.0910207
0.0909472
0.0908587
0.0907561
0.0906402
0.0905123
0.0903735
0.0902255
0.0900697
0.0899082
0.0897429
0.089576
0.0894095
0.0892453
0.0890856
0.0889321
0.0887861
0.0262386
0.0511731
0.063189
0.0705769
0.0756327
0.0792727
0.0819747
0.0840229
0.0855998
0.0868283
0.0877943
0.0885597
0.0891697
0.0896584
0.0900513
0.090368
0.0906234
0.0908289
0.0909933
0.0911231
0.0912233
0.0912976
0.0913488
0.0913789
0.0913895
0.0913817
0.0913562
0.0913139
0.091255
0.09118
0.0910893
0.0909831
0.090862
0.0907265
0.0905774
0.0904158
0.0902433
0.0900621
0.0898744
0.0896833
0.0894919
0.0893033
0.0891206
0.0889466
0.0887832
0.0270782
0.0528552
0.0650099
0.0723216
0.0772306
0.08071
0.0832605
0.0851741
0.0866347
0.0877644
0.0886471
0.0893423
0.0898937
0.0903332
0.0906849
0.0909673
0.091194
0.0913756
0.09152
0.0916333
0.0917199
0.0917831
0.0918253
0.0918483
0.0918533
0.0918411
0.0918122
0.091767
0.0917053
0.0916272
0.0915324
0.0914203
0.0912907
0.0911432
0.0909776
0.0907942
0.0905939
0.0903787
0.0901515
0.0899167
0.0896794
0.0894454
0.0892201
0.0890084
0.0888136
0.0288496
0.0558144
0.068028
0.0750935
0.0796895
0.0828695
0.0851586
0.0868527
0.0881321
0.0891133
0.0898746
0.0904708
0.0909413
0.0913147
0.0916125
0.0918507
0.0920414
0.0921934
0.0923138
0.0924074
0.092478
0.0925283
0.0925603
0.0925752
0.0925741
0.0925573
0.092525
0.0924771
0.0924133
0.0923328
0.0922347
0.0921175
0.0919797
0.0918194
0.0916346
0.0914235
0.0911853
0.0909204
0.0906316
0.0903249
0.0900096
0.0896975
0.0893999
0.0891256
0.0888799
0.0324032
0.0607558
0.0727018
0.0791681
0.0831695
0.0858441
0.0877247
0.0890947
0.0901181
0.090897
0.0914979
0.0919667
0.0923354
0.0926276
0.0928602
0.0930461
0.0931946
0.0933128
0.0934059
0.0934777
0.093531
0.0935678
0.0935893
0.0935965
0.0935899
0.0935697
0.0935358
0.0934877
0.0934246
0.0933455
0.0932487
0.0931318
0.0929917
0.0928246
0.0926255
0.0923887
0.0921084
0.09178
0.0914025
0.0909822
0.0905359
0.0900923
0.0896762
0.0893036
0.0889814
0.0391972
0.0686449
0.0794493
0.0846729
0.087671
0.089589
0.0909061
0.091854
0.0925582
0.093093
0.0935055
0.0938276
0.0940815
0.0942831
0.0944441
0.0945731
0.0946765
0.0947589
0.0948237
0.0948732
0.0949094
0.0949332
0.0949454
0.0949466
0.0949369
0.0949162
0.0948842
0.0948405
0.0947841
0.0947137
0.0946272
0.0945218
0.0943933
0.0942357
0.0940406
0.0937964
0.0934878
0.0930966
0.0926055
0.0920081
0.0913297
0.09066
0.0900538
0.0895355
0.0891082
0.0525421
0.0806659
0.0882744
0.0912856
0.0928535
0.0938253
0.0944932
0.0949801
0.0953474
0.0956304
0.0958516
0.0960263
0.0961657
0.0962776
0.0963679
0.0964412
0.0965004
0.0965481
0.0965857
0.0966144
0.0966351
0.0966481
0.0966537
0.096652
0.096643
0.0966266
0.0966024
0.09657
0.0965286
0.0964773
0.0964144
0.0963373
0.0962421
0.0961225
0.0959686
0.095764
0.0954818
0.0950787
0.0944891
0.0936298
0.0924649
0.0913894
0.0904944
0.0897836
0.0892323
0.0866222
0.0968089
0.097485
0.0977263
0.0978843
0.098021
0.0981422
0.0982466
0.0983343
0.0984071
0.0984671
0.0985167
0.0985577
0.0985919
0.0986205
0.0986445
0.0986647
0.0986815
0.0986953
0.0987062
0.0987145
0.09872
0.0987228
0.0987228
0.09872
0.0987143
0.0987055
0.0986934
0.0986779
0.0986585
0.0986347
0.0986056
0.0985696
0.0985239
0.0984633
0.0983771
0.0982423
0.0980049
0.0975319
0.0964766
0.0938556
0.0920919
0.0908507
0.0899578
0.0893071
)
;

boundaryField
{
    leftWall
    {
        type            kqRWallFunction;
        value           nonuniform List<scalar> 
42
(
0.0348253
0.0349863
0.0352311
0.0356818
0.0363373
0.0370935
0.037582
0.0377498
0.0376516
0.0373524
0.0369102
0.0363689
0.0357618
0.0351141
0.0344442
0.033766
0.0330908
0.0324274
0.031782
0.0311586
0.0305606
0.0299903
0.0294487
0.0289361
0.0284531
0.0280009
0.0275812
0.027196
0.0268472
0.0265372
0.0262687
0.0260466
0.0258836
0.02581
0.025889
0.0262386
0.0270782
0.0288496
0.0324032
0.0391972
0.0525421
0.0866222
)
;
    }
    rightWall
    {
        type            kqRWallFunction;
        value           nonuniform List<scalar> 0();
    }
    lowerWall
    {
        type            kqRWallFunction;
        value           nonuniform List<scalar> 0();
    }
    atmosphere
    {
        type            inletOutlet;
        inletValue      uniform 0.1;
        value           nonuniform List<scalar> 
45
(
0.1
0.1
0.1
0.1
0.1
0.1
0.1
0.1
0.1
0.1
0.1
0.1
0.1
0.1
0.1
0.1
0.1
0.1
0.1
0.1
0.1
0.1
0.1
0.1
0.1
0.1
0.1
0.1
0.1
0.1
0.1
0.1
0.1
0.1
0.1
0.1
0.1
0.1
0.1
0.1
0.0938556
0.0920919
0.0908507
0.0899578
0.0893071
)
;
    }
    defaultFaces
    {
        type            empty;
    }
    procBoundary2to0
    {
        type            processor;
        value           nonuniform List<scalar> 
46
(
0.19595
0.219411
0.247878
0.282453
0.324689
0.362912
0.366973
0.342906
0.308164
0.271436
0.237152
0.207485
0.183162
0.163968
0.149175
0.137885
0.129259
0.122609
0.117416
0.113298
0.109982
0.107268
0.105011
0.1031
0.101449
0.034598
0.058907
0.0687675
0.0765997
0.0823062
0.0865791
0.0899343
0.0929535
0.0959205
0.0990751
0.102619
0.106711
0.1115
0.117145
0.123826
0.131756
0.141196
0.152467
0.165965
0.182177
0.182177
)
;
    }
    procBoundary2to3
    {
        type            processor;
        value           nonuniform List<scalar> 
43
(
0.0997222
0.099463
0.0992108
0.0989593
0.0987016
0.0984308
0.0981403
0.0978241
0.0974773
0.0970969
0.0966819
0.0962335
0.0957554
0.0952532
0.0947341
0.0942067
0.0936799
0.0931624
0.092662
0.0921855
0.091738
0.0913231
0.0909428
0.0905975
0.0902869
0.0900094
0.0897631
0.089546
0.0893556
0.0891901
0.0890475
0.0889266
0.0888264
0.0887466
0.0886871
0.0886486
0.0886318
0.0886373
0.0886643
0.0887094
0.0887636
0.0888097
0.0888289
)
;
    }
}


// ************************************************************************* //
