/*--------------------------------*- C++ -*----------------------------------*\
  =========                 |
  \\      /  F ield         | OpenFOAM: The Open Source CFD Toolbox
   \\    /   O peration     | Website:  https://openfoam.org
    \\  /    A nd           | Version:  9
     \\/     M anipulation  |
\*---------------------------------------------------------------------------*/
FoamFile
{
    format      ascii;
    class       volScalarField;
    location    "0.15";
    object      p;
}
// * * * * * * * * * * * * * * * * * * * * * * * * * * * * * * * * * * * * * //

dimensions      [1 -1 -2 0 0 0 0];

internalField   nonuniform List<scalar> 
1915
(
-0.0685878
0.85178
3.35039
-2.50407
-3.49209
-3.19274
-3.13077
-3.07189
-2.99734
-2.91856
-2.84088
-2.76647
-2.69652
-2.63168
-2.57216
-2.5179
-2.46854
-2.42369
-2.38295
-2.34601
-2.31259
-2.2824
-2.25514
-2.23054
-2.20839
-3.32623
-3.30415
-3.33256
-3.36852
-3.41225
-3.42543
-3.48959
-3.67357
-3.7564
-3.77557
-3.77721
-3.77482
-3.77293
-3.77332
-3.77512
-3.77721
-3.77755
-3.77315
-3.7672
-3.75972
-3.76625
-3.83177
-3.93073
-3.7185
-3.64098
-3.41799
-3.29367
-3.19987
-3.10841
-3.01998
-2.93651
-2.85866
-2.78671
-2.72076
-2.66069
-2.60619
-2.55679
-2.51198
-2.47135
-2.43453
-2.40119
-2.371
-2.34364
-2.31887
-2.29645
-3.38297
-3.37108
-3.38709
-3.41579
-3.44819
-3.47201
-3.49495
-3.53908
-3.57088
-3.58878
-3.60015
-3.60944
-3.61915
-3.63074
-3.64466
-3.6606
-3.6779
-3.69591
-3.71449
-3.73531
-3.76043
-3.79581
-3.82682
-3.79899
-3.67354
-3.51816
-3.3969
-3.29337
-3.19673
-3.10544
-3.02041
-2.94184
-2.86976
-2.80405
-2.74444
-2.69046
-2.6416
-2.59736
-2.55726
-2.52091
-2.48794
-2.45798
-2.43074
-2.40596
-2.38342
-3.43922
-3.43937
-3.44642
-3.46449
-3.49074
-3.51905
-3.54817
-3.58168
-3.61029
-3.63101
-3.64576
-3.65731
-3.66783
-3.6786
-3.69013
-3.70219
-3.71431
-3.72631
-3.73781
-3.74934
-3.76054
-3.77041
-3.77111
-3.74151
-3.65751
-3.55084
-3.45008
-3.35441
-3.26232
-3.17448
-3.09206
-3.01565
-2.94548
-2.8815
-2.82342
-2.77079
-2.72312
-2.67993
-2.64077
-2.60522
-2.57288
-2.54339
-2.51645
-2.49182
-2.46931
-3.49331
-3.50107
-3.5051
-3.51617
-3.53399
-3.55618
-3.58198
-3.60948
-3.63414
-3.65378
-3.66906
-3.68142
-3.69221
-3.70236
-3.71221
-3.72157
-3.72994
-3.73709
-3.74314
-3.74708
-3.74884
-3.74631
-3.73325
-3.70044
-3.63948
-3.5619
-3.47942
-3.39556
-3.31196
-3.2307
-3.15345
-3.08127
-3.01462
-2.9536
-2.89799
-2.84744
-2.80154
-2.75988
-2.72203
-2.68757
-2.65611
-2.62729
-2.60082
-2.5765
-2.55414
-3.54248
-3.55249
-3.55664
-3.56437
-3.57638
-3.59222
-3.61088
-3.63077
-3.64942
-3.66543
-3.67873
-3.68991
-3.69972
-3.70877
-3.71725
-3.72486
-3.73105
-3.73546
-3.73803
-3.7384
-3.73528
-3.72695
-3.71003
-3.67869
-3.63035
-3.56852
-3.49957
-3.42651
-3.35189
-3.27819
-3.20733
-3.14053
-3.07841
-3.02117
-2.96871
-2.92082
-2.87717
-2.83744
-2.80122
-2.76812
-2.73774
-2.70975
-2.6839
-2.66001
-2.63796
-3.58443
-3.59321
-3.59994
-3.60683
-3.61567
-3.62695
-3.64009
-3.65395
-3.66728
-3.67926
-3.68963
-3.69856
-3.70647
-3.71379
-3.72059
-3.72654
-3.73104
-3.73368
-3.73415
-3.73207
-3.72639
-3.71556
-3.69715
-3.66831
-3.62711
-3.57541
-3.51629
-3.4524
-3.38625
-3.32022
-3.25614
-3.19523
-3.13814
-3.08515
-3.03629
-2.99146
-2.95044
-2.91294
-2.8786
-2.84704
-2.81789
-2.79087
-2.76575
-2.74242
-2.72078
-3.61918
-3.62833
-3.63676
-3.6442
-3.65204
-3.66092
-3.67059
-3.68046
-3.68991
-3.69852
-3.70608
-3.71266
-3.71856
-3.72402
-3.729
-3.73312
-3.73583
-3.73669
-3.73536
-3.73136
-3.72387
-3.71158
-3.6928
-3.66567
-3.6292
-3.58418
-3.53255
-3.47644
-3.418
-3.3593
-3.30192
-3.24695
-3.19503
-3.14649
-3.10147
-3.05995
-3.02179
-2.98672
-2.95442
-2.92453
-2.89672
-2.87075
-2.84647
-2.8238
-2.80269
-3.65052
-3.66003
-3.66973
-3.67824
-3.68623
-3.6942
-3.70212
-3.70974
-3.71682
-3.72313
-3.72855
-3.73321
-3.73734
-3.74106
-3.74417
-3.74627
-3.74692
-3.74574
-3.74245
-3.73664
-3.72756
-3.71416
-3.69514
-3.66929
-3.63602
-3.59588
-3.55025
-3.5008
-3.44928
-3.39733
-3.34627
-3.29701
-3.25015
-3.20607
-3.16497
-3.12688
-3.09169
-3.05916
-3.02897
-3.0008
-2.97439
-2.94955
-2.92618
-2.90425
-2.88376
-3.6808
-3.69043
-3.70099
-3.7105
-3.71891
-3.72664
-3.7338
-3.74033
-3.74611
-3.75097
-3.7549
-3.75813
-3.76085
-3.76301
-3.76432
-3.7644
-3.76297
-3.7598
-3.75467
-3.74721
-3.73677
-3.72244
-3.70321
-3.67831
-3.64749
-3.61124
-3.57062
-3.52695
-3.48155
-3.43569
-3.3904
-3.34646
-3.30443
-3.2647
-3.22747
-3.19281
-3.16059
-3.13057
-3.10249
-3.07605
-3.05107
-3.0274
-3.00501
-2.98391
-2.96411
-3.71147
-3.72098
-3.73195
-3.742
-3.75067
-3.75834
-3.7652
-3.77121
-3.77624
-3.78017
-3.78312
-3.78535
-3.78699
-3.78785
-3.78756
-3.78584
-3.7826
-3.77773
-3.77108
-3.76228
-3.75072
-3.73564
-3.71632
-3.69232
-3.66362
-3.63072
-3.59446
-3.55581
-3.51579
-3.47532
-3.43522
-3.39616
-3.35866
-3.32307
-3.28958
-3.25822
-3.22886
-3.20128
-3.17523
-3.1505
-3.12695
-3.10449
-3.08314
-3.06292
-3.0439
-3.74335
-3.75257
-3.76353
-3.77364
-3.78233
-3.78995
-3.79665
-3.80232
-3.80679
-3.81009
-3.81244
-3.81403
-3.81485
-3.81462
-3.81298
-3.80979
-3.8051
-3.79893
-3.79112
-3.78129
-3.76889
-3.75333
-3.73415
-3.71116
-3.68449
-3.65462
-3.62219
-3.58794
-3.5526
-3.51687
-3.48142
-3.4468
-3.41349
-3.38177
-3.35178
-3.32351
-3.29683
-3.27154
-3.24743
-3.22436
-3.20223
-3.18101
-3.16073
-3.14145
-3.12326
-3.77694
-3.78577
-3.79639
-3.80626
-3.81483
-3.82237
-3.82886
-3.83415
-3.83817
-3.84109
-3.8431
-3.84426
-3.84439
-3.84319
-3.84042
-3.83609
-3.83034
-3.82324
-3.81461
-3.80408
-3.79116
-3.77543
-3.75667
-3.73484
-3.71018
-3.68307
-3.65404
-3.62362
-3.59235
-3.5608
-3.52951
-3.49893
-3.46943
-3.44125
-3.41445
-3.389
-3.36476
-3.34157
-3.3193
-3.29783
-3.27711
-3.25714
-3.23797
-3.21967
-3.20235
-3.81257
-3.82094
-3.83104
-3.84061
-3.849
-3.85634
-3.86249
-3.86736
-3.87106
-3.8738
-3.87564
-3.87642
-3.87587
-3.87377
-3.87008
-3.86492
-3.85847
-3.85079
-3.84165
-3.83071
-3.81758
-3.802
-3.78389
-3.76335
-3.74062
-3.71604
-3.69002
-3.66296
-3.6353
-3.60747
-3.57989
-3.55293
-3.52685
-3.50181
-3.47784
-3.45488
-3.43284
-3.4116
-3.39104
-3.37111
-3.35178
-3.33307
-3.31503
-3.29774
-3.28132
-3.85045
-3.85833
-3.86794
-3.8772
-3.88535
-3.89234
-3.89806
-3.90256
-3.90607
-3.90872
-3.91037
-3.91069
-3.90944
-3.90656
-3.9022
-3.89655
-3.88976
-3.8818
-3.87243
-3.86134
-3.84825
-3.83304
-3.81574
-3.79652
-3.77563
-3.75338
-3.73006
-3.70603
-3.68159
-3.65707
-3.6328
-3.60902
-3.58593
-3.56361
-3.54209
-3.52133
-3.50125
-3.48177
-3.46283
-3.44437
-3.4264
-3.40894
-3.39204
-3.37578
-3.3603
-3.89073
-3.89814
-3.90734
-3.91624
-3.92401
-3.93055
-3.93586
-3.9401
-3.94348
-3.94597
-3.94728
-3.94705
-3.94517
-3.94176
-3.93706
-3.93127
-3.92444
-3.91644
-3.90703
-3.89595
-3.88306
-3.86835
-3.85195
-3.83408
-3.81498
-3.79491
-3.77412
-3.75283
-3.73129
-3.7097
-3.6883
-3.66725
-3.64669
-3.6267
-3.60729
-3.58845
-3.57013
-3.55227
-3.53483
-3.51778
-3.50112
-3.48488
-3.46912
-3.45392
-3.43938
-3.93351
-3.94053
-3.94927
-3.95766
-3.96489
-3.97095
-3.97596
-3.98005
-3.98326
-3.98544
-3.98627
-3.98553
-3.98326
-3.97966
-3.97497
-3.96931
-3.9626
-3.95466
-3.94526
-3.93428
-3.92168
-3.90759
-3.89221
-3.87577
-3.85848
-3.84053
-3.8221
-3.8033
-3.78431
-3.76525
-3.74627
-3.72751
-3.70909
-3.69106
-3.67348
-3.65633
-3.63959
-3.62322
-3.60718
-3.59145
-3.57604
-3.561
-3.54637
-3.53224
-3.51866
-3.97886
-3.98549
-3.99365
-4.00137
-4.008
-4.01364
-4.01844
-4.02239
-4.02535
-4.02711
-4.02748
-4.02641
-4.02403
-4.02053
-4.01605
-4.01059
-4.00399
-3.99608
-3.98673
-3.97593
-3.9638
-3.95054
-3.93636
-3.92147
-3.90602
-3.89011
-3.87382
-3.85722
-3.84039
-3.82344
-3.80648
-3.78964
-3.77301
-3.75669
-3.7407
-3.72506
-3.70974
-3.69471
-3.67996
-3.66546
-3.65125
-3.63736
-3.62386
-3.61079
-3.59818
-4.02675
-4.03294
-4.04043
-4.04747
-4.05357
-4.05887
-4.06345
-4.06715
-4.06976
-4.0711
-4.07114
-4.06994
-4.06765
-4.06435
-4.06008
-4.05473
-4.04816
-4.04029
-4.0311
-4.02072
-4.00932
-3.99714
-3.98435
-3.97109
-3.95742
-3.94337
-3.92894
-3.91418
-3.89914
-3.88393
-3.86866
-3.85344
-3.83838
-3.82355
-3.80899
-3.79469
-3.78064
-3.76683
-3.75324
-3.73988
-3.72679
-3.71403
-3.70163
-3.68963
-3.67798
-4.077
-4.08271
-4.0896
-4.09609
-4.10177
-4.10675
-4.11099
-4.11429
-4.11646
-4.11745
-4.1173
-4.1161
-4.11393
-4.1108
-4.10663
-4.10133
-4.09483
-4.08714
-4.07837
-4.0687
-4.05833
-4.04742
-4.0361
-4.0244
-4.01232
-3.99983
-3.98695
-3.97369
-3.96013
-3.94639
-3.93257
-3.91879
-3.90513
-3.89164
-3.87834
-3.86524
-3.85232
-3.83959
-3.82705
-3.81475
-3.80273
-3.79104
-3.77973
-3.76878
-3.75806
-4.12938
-4.13467
-4.14108
-4.14715
-4.15246
-4.15703
-4.16078
-4.16358
-4.16534
-4.16608
-4.16585
-4.1647
-4.16264
-4.1596
-4.15551
-4.15032
-4.14406
-4.13682
-4.12876
-4.12006
-4.11085
-4.10125
-4.09127
-4.08091
-4.07014
-4.05892
-4.04728
-4.03528
-4.023
-4.01056
-3.99806
-3.98559
-3.9732
-3.96091
-3.94874
-3.93669
-3.92476
-3.913
-3.90143
-3.89011
-3.87911
-3.86846
-3.8582
-3.84825
-3.83842
-4.18379
-4.18874
-4.19473
-4.20038
-4.20525
-4.20931
-4.21253
-4.21488
-4.21636
-4.21698
-4.21676
-4.21569
-4.2137
-4.21076
-4.20681
-4.2019
-4.19609
-4.18953
-4.18235
-4.17469
-4.16661
-4.15815
-4.14928
-4.13999
-4.13025
-4.12007
-4.1095
-4.09862
-4.08752
-4.0763
-4.06502
-4.05375
-4.0425
-4.03128
-4.02009
-4.00897
-3.99793
-3.98704
-3.97637
-3.966
-3.95596
-3.94632
-3.93704
-3.92804
-3.91904
-4.24022
-4.24486
-4.2504
-4.25555
-4.25989
-4.26344
-4.26624
-4.26831
-4.26967
-4.27028
-4.27011
-4.26909
-4.26719
-4.26438
-4.26069
-4.25619
-4.25098
-4.24517
-4.23888
-4.23215
-4.22501
-4.21746
-4.20947
-4.20104
-4.19217
-4.18292
-4.17334
-4.16353
-4.15355
-4.14348
-4.13333
-4.12314
-4.1129
-4.10261
-4.0923
-4.082
-4.07178
-4.06173
-4.05192
-4.04245
-4.03335
-4.02464
-4.01628
-4.00814
-3.99989
-4.29864
-4.30291
-4.30795
-4.31255
-4.3164
-4.31956
-4.32212
-4.32408
-4.32539
-4.326
-4.32582
-4.32483
-4.323
-4.32037
-4.317
-4.31298
-4.30838
-4.3033
-4.29776
-4.2918
-4.28542
-4.2786
-4.27134
-4.26367
-4.25563
-4.24727
-4.23868
-4.22991
-4.221
-4.21197
-4.20284
-4.1936
-4.18423
-4.17477
-4.16524
-4.15572
-4.14629
-4.13705
-4.1281
-4.1195
-4.11128
-4.10343
-4.09591
-4.08853
-4.08094
-4.35886
-4.36274
-4.36725
-4.37136
-4.37483
-4.37776
-4.38019
-4.38206
-4.38328
-4.38379
-4.38354
-4.38253
-4.38079
-4.37838
-4.37537
-4.37183
-4.36782
-4.36335
-4.35846
-4.35314
-4.34739
-4.34122
-4.33465
-4.32774
-4.32052
-4.31307
-4.30544
-4.29764
-4.2897
-4.28161
-4.27336
-4.26494
-4.25635
-4.24764
-4.23885
-4.23009
-4.22145
-4.21303
-4.20491
-4.19714
-4.18975
-4.18269
-4.1759
-4.16918
-4.16216
-4.42072
-4.42419
-4.42823
-4.43196
-4.43516
-4.43791
-4.44017
-4.44185
-4.44287
-4.4432
-4.44284
-4.44182
-4.44022
-4.43809
-4.43547
-4.43241
-4.42891
-4.425
-4.42066
-4.41591
-4.41075
-4.40522
-4.39935
-4.3932
-4.38682
-4.38024
-4.37349
-4.36657
-4.35948
-4.35219
-4.3447
-4.337
-4.32913
-4.32113
-4.31308
-4.30509
-4.29725
-4.28964
-4.28234
-4.27537
-4.26873
-4.26236
-4.2562
-4.25005
-4.24352
-4.4842
-4.48732
-4.49097
-4.49436
-4.4973
-4.49979
-4.50176
-4.50314
-4.50389
-4.50402
-4.5036
-4.50266
-4.50127
-4.49946
-4.49723
-4.49461
-4.49158
-4.48814
-4.4843
-4.48008
-4.4755
-4.4706
-4.46543
-4.46002
-4.45442
-4.44864
-4.44267
-4.43652
-4.43015
-4.42355
-4.41673
-4.4097
-4.40251
-4.39523
-4.38794
-4.38073
-4.37369
-4.36688
-4.36036
-4.35412
-4.34815
-4.34239
-4.33677
-4.3311
-4.32502
-4.54948
-4.55232
-4.55562
-4.55868
-4.56128
-4.56339
-4.56497
-4.566
-4.5665
-4.56652
-4.56611
-4.56532
-4.56417
-4.56266
-4.56077
-4.5585
-4.55584
-4.55281
-4.5494
-4.54566
-4.54163
-4.53733
-4.53281
-4.5281
-4.5232
-4.51811
-4.51282
-4.50732
-4.50158
-4.49561
-4.48941
-4.48303
-4.47653
-4.46997
-4.46344
-4.45701
-4.45075
-4.44471
-4.43891
-4.43334
-4.42796
-4.42273
-4.41757
-4.41232
-4.40663
-4.61674
-4.61935
-4.62233
-4.62502
-4.62721
-4.62889
-4.63008
-4.63082
-4.63114
-4.63112
-4.63078
-4.63013
-4.62915
-4.62782
-4.62614
-4.62409
-4.6217
-4.61896
-4.61592
-4.61262
-4.60908
-4.60534
-4.60142
-4.59732
-4.59304
-4.58856
-4.58386
-4.57893
-4.57376
-4.56837
-4.56279
-4.55706
-4.55124
-4.54541
-4.53962
-4.53395
-4.52844
-4.5231
-4.51795
-4.51296
-4.50811
-4.50333
-4.49858
-4.4937
-4.48836
-4.68599
-4.68838
-4.69106
-4.69338
-4.69516
-4.69647
-4.69736
-4.6979
-4.69813
-4.69807
-4.69774
-4.6971
-4.69614
-4.69485
-4.69322
-4.69127
-4.68902
-4.68652
-4.6838
-4.68089
-4.67782
-4.67459
-4.67121
-4.66765
-4.66391
-4.65997
-4.65579
-4.65139
-4.64677
-4.64195
-4.63697
-4.63188
-4.62674
-4.62161
-4.61654
-4.61157
-4.60673
-4.60203
-4.59745
-4.59298
-4.58857
-4.58419
-4.57978
-4.57523
-4.57023
-4.75703
-4.75922
-4.76162
-4.76361
-4.76508
-4.76613
-4.76683
-4.76723
-4.76735
-4.7672
-4.76674
-4.76597
-4.76488
-4.76348
-4.7618
-4.75988
-4.75776
-4.75547
-4.75305
-4.75052
-4.74788
-4.74512
-4.74222
-4.73915
-4.73589
-4.73242
-4.72873
-4.72482
-4.72071
-4.71645
-4.71205
-4.70759
-4.7031
-4.69864
-4.69423
-4.6899
-4.68567
-4.68152
-4.67744
-4.6734
-4.66937
-4.66532
-4.66122
-4.65696
-4.65227
-4.82961
-4.83163
-4.83378
-4.83552
-4.83679
-4.83768
-4.83825
-4.83852
-4.83847
-4.83811
-4.83742
-4.83641
-4.83512
-4.83358
-4.83185
-4.82997
-4.82799
-4.82594
-4.82383
-4.82167
-4.81942
-4.81707
-4.81459
-4.81193
-4.80909
-4.80603
-4.80278
-4.79933
-4.79572
-4.79199
-4.78816
-4.78429
-4.78042
-4.77657
-4.77276
-4.769
-4.76529
-4.76162
-4.75796
-4.75428
-4.75057
-4.7468
-4.74294
-4.73893
-4.73452
-4.90362
-4.90548
-4.90744
-4.90902
-4.91016
-4.91093
-4.91136
-4.91144
-4.91116
-4.91053
-4.90957
-4.90833
-4.90686
-4.90524
-4.90352
-4.90175
-4.89997
-4.89817
-4.89637
-4.89453
-4.89261
-4.8906
-4.88844
-4.88611
-4.8836
-4.88091
-4.87805
-4.87503
-4.87188
-4.86865
-4.86537
-4.86206
-4.85876
-4.85547
-4.8522
-4.84894
-4.84568
-4.84241
-4.83909
-4.83571
-4.83225
-4.82869
-4.82503
-4.82121
-4.81705
-4.97905
-4.9808
-4.98262
-4.98408
-4.98511
-4.98576
-4.986
-4.98585
-4.98531
-4.98443
-4.98325
-4.98186
-4.98034
-4.97874
-4.97712
-4.97552
-4.97395
-4.97239
-4.97082
-4.96922
-4.96753
-4.96573
-4.9638
-4.96171
-4.95947
-4.95708
-4.95456
-4.95194
-4.94924
-4.9465
-4.94373
-4.94095
-4.93817
-4.93539
-4.9326
-4.92978
-4.92691
-4.92396
-4.92092
-4.91776
-4.91449
-4.91109
-4.90757
-4.9039
-4.89996
-5.05592
-5.0576
-5.05932
-5.06069
-5.0616
-5.06207
-5.06211
-5.06172
-5.06097
-5.05992
-5.05865
-5.05724
-5.05577
-5.05429
-5.05283
-5.0514
-5.04999
-5.04859
-5.04716
-5.04566
-5.04408
-5.04239
-5.04059
-5.03867
-5.03663
-5.03451
-5.03232
-5.03008
-5.02781
-5.02554
-5.02326
-5.02098
-5.01869
-5.01637
-5.014
-5.01155
-5.00899
-5.00631
-5.00348
-5.00049
-4.99735
-4.99407
-4.99065
-4.98709
-4.98335
-5.13421
-5.13583
-5.13746
-5.13872
-5.13948
-5.13975
-5.13959
-5.13903
-5.13816
-5.13707
-5.13583
-5.13451
-5.13318
-5.13184
-5.13053
-5.12921
-5.12789
-5.12653
-5.12511
-5.12362
-5.12205
-5.12039
-5.11865
-5.11685
-5.11501
-5.11314
-5.11127
-5.10941
-5.10757
-5.10575
-5.10394
-5.10213
-5.10028
-5.09836
-5.09635
-5.09421
-5.0919
-5.08942
-5.08675
-5.08389
-5.08086
-5.07766
-5.07433
-5.07089
-5.06734
-5.2138
-5.21528
-5.2168
-5.21793
-5.21852
-5.2186
-5.21827
-5.21762
-5.21674
-5.21571
-5.2146
-5.21344
-5.21226
-5.21106
-5.20983
-5.20856
-5.20722
-5.20582
-5.20434
-5.20279
-5.20118
-5.19952
-5.19784
-5.19617
-5.19452
-5.19291
-5.19137
-5.18988
-5.18845
-5.18706
-5.18568
-5.18428
-5.18281
-5.18124
-5.17952
-5.17763
-5.17553
-5.17321
-5.17067
-5.16792
-5.16498
-5.16189
-5.15867
-5.15538
-5.15207
-5.29428
-5.29568
-5.2971
-5.2981
-5.29851
-5.29841
-5.29797
-5.29729
-5.29647
-5.29556
-5.29461
-5.29361
-5.29256
-5.29145
-5.29025
-5.28896
-5.28758
-5.2861
-5.28454
-5.28293
-5.28129
-5.27966
-5.27807
-5.27655
-5.27512
-5.27379
-5.27256
-5.27143
-5.27037
-5.26935
-5.26833
-5.26726
-5.26611
-5.26481
-5.26333
-5.26164
-5.2597
-5.25752
-5.2551
-5.25247
-5.24967
-5.24674
-5.24372
-5.24066
-5.23766
-5.37517
-5.37698
-5.37837
-5.37924
-5.3794
-5.37909
-5.37852
-5.37783
-5.37709
-5.37631
-5.3755
-5.37463
-5.37368
-5.37261
-5.37142
-5.3701
-5.36867
-5.36714
-5.36555
-5.36393
-5.36233
-5.36079
-5.35933
-5.35799
-5.35678
-5.35571
-5.35476
-5.35393
-5.35316
-5.35243
-5.35169
-5.35088
-5.34996
-5.34887
-5.34757
-5.34604
-5.34425
-5.34221
-5.33992
-5.33745
-5.33486
-5.3322
-5.32949
-5.32679
-5.3242
-5.45725
-5.45988
-5.46112
-5.46159
-5.46132
-5.46067
-5.45992
-5.45918
-5.45849
-5.4578
-5.45708
-5.45629
-5.45538
-5.45434
-5.45316
-5.45185
-5.45042
-5.44891
-5.44737
-5.44583
-5.44433
-5.44292
-5.44163
-5.44047
-5.43947
-5.43861
-5.43787
-5.43724
-5.43668
-5.43613
-5.43557
-5.43493
-5.43416
-5.43323
-5.43209
-5.43071
-5.42907
-5.42718
-5.42504
-5.42276
-5.42047
-5.41823
-5.41601
-5.41383
-5.41178
-5.54285
-5.54623
-5.54649
-5.54551
-5.54433
-5.54324
-5.5423
-5.54151
-5.54082
-5.54016
-5.53947
-5.53869
-5.5378
-5.53678
-5.53563
-5.53436
-5.53301
-5.5316
-5.53017
-5.52877
-5.52743
-5.52618
-5.52505
-5.52405
-5.52318
-5.52245
-5.52182
-5.52129
-5.5208
-5.52034
-5.51985
-5.51929
-5.51863
-5.51782
-5.51683
-5.51562
-5.51418
-5.51247
-5.51046
-5.50828
-5.50636
-5.50479
-5.5033
-5.50183
-5.50046
-5.62703
-5.64254
-5.6387
-5.63209
-5.62876
-5.62719
-5.62614
-5.62529
-5.62455
-5.62384
-5.62308
-5.62226
-5.62134
-5.62032
-5.61922
-5.61804
-5.6168
-5.61554
-5.61428
-5.61304
-5.61186
-5.61075
-5.60974
-5.60882
-5.60801
-5.6073
-5.60667
-5.60611
-5.60559
-5.6051
-5.6046
-5.60406
-5.60346
-5.60277
-5.60195
-5.60097
-5.59978
-5.59823
-5.59602
-5.59314
-5.59155
-5.59127
-5.59104
-5.59061
-5.59013
-5.68105
-5.76008
-5.73887
-5.72086
-5.71465
-5.71208
-5.71041
-5.70912
-5.70804
-5.70706
-5.7061
-5.70515
-5.70417
-5.70318
-5.70217
-5.70114
-5.7001
-5.69907
-5.69804
-5.69704
-5.69607
-5.69514
-5.69426
-5.69344
-5.69267
-5.69196
-5.69131
-5.6907
-5.69014
-5.68961
-5.68911
-5.68861
-5.68811
-5.68758
-5.68698
-5.68625
-5.68527
-5.68374
-5.68089
-5.67608
-5.67519
-5.6779
-5.67964
-5.68054
-5.6811
)
;

boundaryField
{
    leftWall
    {
        type            calculated;
        value           nonuniform List<scalar> 
42
(
-3.32623
-3.38297
-3.43922
-3.49331
-3.54248
-3.58443
-3.61918
-3.65052
-3.6808
-3.71147
-3.74335
-3.77694
-3.81257
-3.85045
-3.89073
-3.93351
-3.97886
-4.02675
-4.077
-4.12938
-4.18379
-4.24022
-4.29864
-4.35886
-4.42072
-4.4842
-4.54948
-4.61674
-4.68599
-4.75703
-4.82961
-4.90362
-4.97905
-5.05592
-5.13421
-5.2138
-5.29428
-5.37517
-5.45725
-5.54285
-5.62703
-5.68105
)
;
    }
    rightWall
    {
        type            calculated;
        value           nonuniform List<scalar> 0();
    }
    lowerWall
    {
        type            calculated;
        value           nonuniform List<scalar> 0();
    }
    atmosphere
    {
        type            calculated;
        value           nonuniform List<scalar> 
45
(
-5.73785
-5.76237
-5.7592
-5.75643
-5.75432
-5.75258
-5.75108
-5.74975
-5.74853
-5.74741
-5.74634
-5.74533
-5.74435
-5.7434
-5.74247
-5.74157
-5.74068
-5.7398
-5.73895
-5.73811
-5.73729
-5.7365
-5.73573
-5.73499
-5.73429
-5.73363
-5.733
-5.73241
-5.73187
-5.73138
-5.73093
-5.73053
-5.73018
-5.72988
-5.72962
-5.72942
-5.72926
-5.72914
-5.72907
-5.72904
-5.72904
-5.72904
-5.72904
-5.72904
-5.72904
)
;
    }
    defaultFaces
    {
        type            empty;
    }
    procBoundary2to0
    {
        type            processor;
        value           nonuniform List<scalar> 
46
(
9.30304
11.7087
11.3097
-1.08177
-2.68938
-3.03057
-2.99094
-2.93489
-2.87445
-2.807
-2.73657
-2.6669
-2.60012
-2.53736
-2.47918
-2.42577
-2.37697
-2.33249
-2.29202
-2.25531
-2.22211
-2.19216
-2.16519
-2.14094
-2.1192
-3.26912
-3.2442
-3.2729
-3.32519
-3.55955
-3.60415
-3.05043
-2.34294
-1.588
-0.933993
-0.417201
-0.0846271
0.0727088
0.135464
0.122699
0.0600664
-0.0136939
-0.0770696
-0.0775561
-0.0712951
-0.0712951
)
;
    }
    procBoundary2to3
    {
        type            processor;
        value           nonuniform List<scalar> 
43
(
-2.18846
-2.27617
-2.3629
-2.4487
-2.53358
-2.61758
-2.70071
-2.78304
-2.86464
-2.94561
-3.02608
-3.10618
-3.18606
-3.26584
-3.34565
-3.42557
-3.50568
-3.58602
-3.66661
-3.74745
-3.82851
-3.90978
-3.99122
-4.0728
-4.15448
-4.23628
-4.31816
-4.40016
-4.48226
-4.5645
-4.6469
-4.72951
-4.81238
-4.89562
-4.97934
-5.06367
-5.14877
-5.23478
-5.32181
-5.40995
-5.49927
-5.58971
-5.68151
)
;
    }
}


// ************************************************************************* //
