/*--------------------------------*- C++ -*----------------------------------*\
  =========                 |
  \\      /  F ield         | OpenFOAM: The Open Source CFD Toolbox
   \\    /   O peration     | Website:  https://openfoam.org
    \\  /    A nd           | Version:  9
     \\/     M anipulation  |
\*---------------------------------------------------------------------------*/
FoamFile
{
    format      ascii;
    class       surfaceScalarField;
    location    "0.3";
    object      alphaPhi0.water;
}
// * * * * * * * * * * * * * * * * * * * * * * * * * * * * * * * * * * * * * //

dimensions      [0 3 -1 0 0 0 0];

internalField   nonuniform List<scalar> 
3781
(
-3.09456e-06
3.09456e-06
-3.05616e-06
-3.84031e-08
-1.15094e-06
-1.90522e-06
1.46388e-06
-2.61483e-06
4.2883e-06
-2.82441e-06
7.04934e-06
-2.76104e-06
9.64189e-06
-2.59255e-06
1.20484e-05
-2.40646e-06
1.42874e-05
-2.23906e-06
1.63911e-05
-2.1037e-06
1.83942e-05
-2.00306e-06
2.03287e-05
-1.93452e-06
2.2222e-05
-1.89328e-06
2.40961e-05
-1.87416e-06
2.59684e-05
-1.87224e-06
2.78514e-05
-1.88309e-06
2.97541e-05
-1.9027e-06
3.16816e-05
-1.92746e-06
3.36356e-05
-1.95401e-06
3.56147e-05
-1.97912e-06
3.76144e-05
-1.99962e-06
3.96266e-05
-2.01222e-06
4.164e-05
-2.01342e-06
4.36394e-05
-1.99941e-06
4.56053e-05
-1.96591e-06
4.75134e-05
-1.90805e-06
4.93335e-05
-1.82011e-06
5.10287e-05
-1.69527e-06
5.25536e-05
-1.52487e-06
5.3851e-05
-1.29736e-06
5.48445e-05
-9.93523e-07
5.54274e-05
-5.82924e-07
5.54417e-05
-1.43079e-08
5.45677e-05
8.74e-07
5.26114e-05
1.95628e-06
4.93309e-05
3.2805e-06
4.44922e-05
4.83877e-06
3.79326e-05
6.55956e-06
2.96564e-05
8.27617e-06
1.9959e-05
9.6974e-06
9.50265e-06
1.04564e-05
-8.37549e-07
1.03402e-05
-9.18382e-06
9.15031e-06
5.48208e-06
-8.5385e-07
3.9484e-06
1.44177e-07
-1.03643e-06
2.03375e-06
-3.79479e-06
4.3999e-06
-4.98098e-06
6.89551e-06
-5.32002e-06
9.36672e-06
-5.23225e-06
1.17435e-05
-4.96933e-06
1.40052e-05
-4.66818e-06
1.61597e-05
-4.39357e-06
1.82273e-05
-4.17133e-06
2.02318e-05
-4.00751e-06
2.21957e-05
-3.89847e-06
2.4139e-05
-3.83648e-06
2.60774e-05
-3.81264e-06
2.80234e-05
-3.81824e-06
2.99856e-05
-3.84526e-06
3.19693e-05
-3.8864e-06
3.39769e-05
-3.93504e-06
3.60079e-05
-3.985e-06
3.80591e-05
-4.03033e-06
4.01246e-05
-4.06511e-06
4.21956e-05
-4.0832e-06
4.42601e-05
-4.078e-06
4.6303e-05
-4.04227e-06
4.83049e-05
-3.96785e-06
5.02423e-05
-3.8454e-06
5.20862e-05
-3.66403e-06
5.38017e-05
-3.41079e-06
5.53467e-05
-3.0698e-06
5.66702e-05
-2.62095e-06
5.77141e-05
-2.03739e-06
5.84162e-05
-1.28502e-06
5.87215e-05
-3.19565e-07
5.86405e-05
9.54966e-07
5.80048e-05
2.59193e-06
5.66214e-05
4.66392e-06
5.42346e-05
7.22563e-06
5.05162e-05
1.0278e-05
4.50975e-05
1.36949e-05
3.76772e-05
1.71177e-05
2.82553e-05
1.98782e-05
1.74751e-05
2.11204e-05
6.79719e-06
1.99845e-05
1.44087e-05
6.95948e-07
3.25245e-06
2.10963e-06
-2.45012e-06
4.0686e-06
-5.75376e-06
6.28567e-06
-7.19805e-06
8.57457e-06
-7.60892e-06
1.08421e-05
-7.49982e-06
1.3048e-05
-7.17514e-06
1.51817e-05
-6.80194e-06
1.725e-05
-6.46183e-06
1.9267e-05
-6.18831e-06
2.1249e-05
-5.98957e-06
2.32118e-05
-5.86123e-06
2.51687e-05
-5.79343e-06
2.71307e-05
-5.77461e-06
2.91057e-05
-5.79324e-06
3.1099e-05
-5.8386e-06
3.31135e-05
-5.90088e-06
3.51495e-05
-5.97108e-06
3.72053e-05
-6.04076e-06
3.92767e-05
-6.1017e-06
4.13572e-05
-6.14563e-06
4.34379e-05
-6.16388e-06
4.55069e-05
-6.14706e-06
4.75495e-05
-6.08478e-06
4.95469e-05
-5.96527e-06
5.14766e-05
-5.7751e-06
5.33112e-05
-5.49865e-06
5.50179e-05
-5.11754e-06
5.65578e-05
-4.6097e-06
5.78851e-05
-3.94817e-06
5.8947e-05
-3.09936e-06
5.96834e-05
-2.02137e-06
6.00274e-05
-6.63629e-07
5.99338e-05
1.04863e-06
5.93288e-05
3.19694e-06
5.81277e-05
5.865e-06
5.62279e-05
9.12538e-06
5.34979e-05
1.3008e-05
4.97553e-05
1.74374e-05
4.47479e-05
2.21251e-05
3.82023e-05
2.64239e-05
3.00844e-05
2.92382e-05
2.10437e-05
2.90252e-05
2.34485e-05
1.40104e-06
1.85141e-06
3.27103e-06
-4.32011e-06
5.39342e-06
-7.87614e-06
7.59389e-06
-9.39852e-06
9.77945e-06
-9.79449e-06
1.1918e-05
-9.6384e-06
1.40038e-05
-9.26094e-06
1.60421e-05
-8.84025e-06
1.80433e-05
-8.46294e-06
2.00191e-05
-8.16419e-06
2.19815e-05
-7.95189e-06
2.39406e-05
-7.82037e-06
2.59052e-05
-7.75801e-06
2.78818e-05
-7.75124e-06
2.98752e-05
-7.78658e-06
3.18879e-05
-7.85136e-06
3.3921e-05
-7.93393e-06
3.59734e-05
-8.02352e-06
3.80425e-05
-8.10987e-06
4.01237e-05
-8.1829e-06
4.22104e-05
-8.23231e-06
4.42936e-05
-8.24714e-06
4.6362e-05
-8.21547e-06
4.84012e-05
-8.12394e-06
5.03934e-05
-7.95746e-06
5.2317e-05
-7.69876e-06
5.41463e-05
-7.32789e-06
5.58503e-05
-6.82158e-06
5.7393e-05
-6.15234e-06
5.87321e-05
-5.2873e-06
5.98195e-05
-4.18679e-06
6.0601e-05
-2.80288e-06
6.10167e-05
-1.07928e-06
6.10091e-05
1.05622e-06
6.05199e-05
3.6861e-06
5.94912e-05
6.89376e-06
5.78666e-05
1.075e-05
5.55887e-05
1.52859e-05
5.25828e-05
2.04433e-05
4.87197e-05
2.59882e-05
4.3771e-05
3.13726e-05
3.74504e-05
3.55588e-05
2.96412e-05
3.68344e-05
3.26403e-05
1.64815e-06
2.03256e-07
3.90007e-06
-6.57202e-06
6.2137e-06
-1.01898e-05
8.45231e-06
-1.16371e-05
1.05948e-05
-1.1937e-05
1.26592e-05
-1.17028e-05
1.46696e-05
-1.12713e-05
1.6646e-05
-1.08166e-05
1.86034e-05
-1.04204e-05
2.05535e-05
-1.01143e-05
2.25051e-05
-9.90349e-06
2.44649e-05
-9.78018e-06
2.64379e-05
-9.73102e-06
2.84276e-05
-9.74096e-06
3.04362e-05
-9.79513e-06
3.24644e-05
-9.87956e-06
3.45118e-05
-9.98133e-06
3.65766e-05
-1.00883e-05
3.86557e-05
-1.01889e-05
4.07442e-05
-1.02714e-05
4.28357e-05
-1.03238e-05
4.49217e-05
-1.03331e-05
4.69911e-05
-1.02849e-05
4.90302e-05
-1.01631e-05
5.10223e-05
-9.94956e-06
5.2947e-05
-9.62338e-06
5.47797e-05
-9.16059e-06
5.64916e-05
-8.53349e-06
5.8049e-05
-7.70977e-06
5.94132e-05
-6.65147e-06
6.05401e-05
-5.31378e-06
6.13812e-05
-3.64394e-06
6.18829e-05
-1.58101e-06
6.19917e-05
9.47508e-07
6.16558e-05
4.02191e-06
6.08279e-05
7.72173e-06
5.94654e-05
1.21125e-05
5.75286e-05
1.72227e-05
5.49673e-05
2.30045e-05
5.1689e-05
2.92666e-05
4.75031e-05
3.55585e-05
4.2075e-05
4.09869e-05
3.49619e-05
4.39475e-05
4.19072e-05
1.78646e-06
-1.5832e-06
4.26553e-06
-9.0511e-06
6.70257e-06
-1.26268e-05
8.96768e-06
-1.39022e-05
1.10844e-05
-1.40537e-05
1.31039e-05
-1.37224e-05
1.50695e-05
-1.32369e-05
1.70105e-05
-1.27575e-05
1.8945e-05
-1.23549e-05
2.08843e-05
-1.20536e-05
2.28349e-05
-1.18542e-05
2.48011e-05
-1.17464e-05
2.67852e-05
-1.17151e-05
2.87886e-05
-1.17443e-05
3.08116e-05
-1.18181e-05
3.28538e-05
-1.19217e-05
3.49139e-05
-1.20414e-05
3.69896e-05
-1.21641e-05
3.90776e-05
-1.2277e-05
4.11734e-05
-1.23672e-05
4.32706e-05
-1.2421e-05
4.53612e-05
-1.24237e-05
4.7435e-05
-1.23586e-05
4.9479e-05
-1.22071e-05
5.14774e-05
-1.1948e-05
5.34109e-05
-1.15569e-05
5.52566e-05
-1.10063e-05
5.69874e-05
-1.02643e-05
5.85719e-05
-9.29429e-06
5.99745e-05
-8.05401e-06
6.1155e-05
-6.49431e-06
6.20696e-05
-4.55854e-06
6.26709e-05
-2.18236e-06
6.29112e-05
7.0724e-07
6.27445e-05
4.18864e-06
6.21283e-05
8.33789e-06
6.1024e-05
1.32168e-05
5.93924e-05
1.88543e-05
5.71804e-05
2.52165e-05
5.42928e-05
3.21542e-05
5.05405e-05
3.93108e-05
4.55704e-05
4.5957e-05
3.88012e-05
5.07168e-05
5.12936e-05
1.90066e-06
-3.48386e-06
4.49514e-06
-1.16456e-05
6.97474e-06
-1.51064e-05
9.22895e-06
-1.61564e-05
1.13132e-05
-1.61379e-05
1.3298e-05
-1.57072e-05
1.52356e-05
-1.51745e-05
1.71583e-05
-1.46802e-05
1.90845e-05
-1.42811e-05
2.10239e-05
-1.39929e-05
2.29811e-05
-1.38114e-05
2.49582e-05
-1.37234e-05
2.69557e-05
-1.37127e-05
2.89734e-05
-1.3762e-05
3.10105e-05
-1.38552e-05
3.30659e-05
-1.39771e-05
3.51377e-05
-1.41132e-05
3.72237e-05
-1.425e-05
3.93205e-05
-1.43738e-05
4.1424e-05
-1.44706e-05
4.35283e-05
-1.45253e-05
4.56261e-05
-1.45215e-05
4.77078e-05
-1.44404e-05
4.97617e-05
-1.42609e-05
5.17727e-05
-1.3959e-05
5.3723e-05
-1.35072e-05
5.55908e-05
-1.28741e-05
5.73509e-05
-1.20244e-05
5.89741e-05
-1.09175e-05
6.04274e-05
-9.50729e-06
6.16743e-05
-7.74126e-06
6.26755e-05
-5.55969e-06
6.33891e-05
-2.89594e-06
6.37729e-05
3.23359e-07
6.37864e-05
4.1752e-06
6.33908e-05
8.73351e-06
6.25486e-05
1.40589e-05
6.1218e-05
2.0185e-05
5.93389e-05
2.70955e-05
5.68062e-05
3.46869e-05
5.34202e-05
4.26968e-05
4.88067e-05
5.05706e-05
4.22995e-05
5.72239e-05
6.07551e-05
2.00328e-06
-5.48715e-06
4.63912e-06
-1.42814e-05
7.09489e-06
-1.75622e-05
9.30047e-06
-1.8362e-05
1.13381e-05
-1.81755e-05
1.32883e-05
-1.76574e-05
1.52047e-05
-1.70909e-05
1.71178e-05
-1.65933e-05
1.90434e-05
-1.62068e-05
2.09888e-05
-1.59383e-05
2.29565e-05
-1.5779e-05
2.49466e-05
-1.57135e-05
2.69582e-05
-1.57243e-05
2.899e-05
-1.57938e-05
3.10405e-05
-1.59057e-05
3.3108e-05
-1.60446e-05
3.51907e-05
-1.61959e-05
3.72862e-05
-1.63456e-05
3.93917e-05
-1.64793e-05
4.15034e-05
-1.65822e-05
4.36161e-05
-1.66381e-05
4.57233e-05
-1.66287e-05
4.78164e-05
-1.65335e-05
4.98845e-05
-1.63291e-05
5.1914e-05
-1.59885e-05
5.3888e-05
-1.54812e-05
5.57862e-05
-1.47724e-05
5.7585e-05
-1.38231e-05
5.92571e-05
-1.25895e-05
6.0772e-05
-1.10223e-05
6.20967e-05
-9.06596e-06
6.31958e-05
-6.65881e-06
6.40327e-05
-3.73279e-06
6.45707e-05
-2.14617e-07
6.47743e-05
3.97159e-06
6.46091e-05
8.89869e-06
6.40401e-05
1.46279e-05
6.30257e-05
2.11994e-05
6.15042e-05
2.8617e-05
5.93683e-05
3.68228e-05
5.64169e-05
4.56482e-05
5.22676e-05
5.47199e-05
4.62016e-05
6.32899e-05
7.0016e-05
2.0951e-06
-7.58224e-06
4.71707e-06
-1.69034e-05
7.09918e-06
-1.99443e-05
9.22678e-06
-2.04896e-05
1.12047e-05
-2.01534e-05
1.31166e-05
-1.95693e-05
1.50123e-05
-1.89866e-05
1.69179e-05
-1.84989e-05
1.8845e-05
-1.81339e-05
2.07977e-05
-1.7891e-05
2.27761e-05
-1.77575e-05
2.47787e-05
-1.77161e-05
2.68033e-05
-1.77489e-05
2.88477e-05
-1.78383e-05
3.091e-05
-1.7968e-05
3.29881e-05
-1.81228e-05
3.50802e-05
-1.82881e-05
3.71843e-05
-1.84497e-05
3.92979e-05
-1.85929e-05
4.14178e-05
-1.87021e-05
4.35397e-05
-1.87599e-05
4.56579e-05
-1.87469e-05
4.7765e-05
-1.86406e-05
4.98511e-05
-1.84152e-05
5.19038e-05
-1.80412e-05
5.39075e-05
-1.74848e-05
5.58431e-05
-1.6708e-05
5.76885e-05
-1.56685e-05
5.94181e-05
-1.43191e-05
6.10038e-05
-1.2608e-05
6.24154e-05
-1.04776e-05
6.36217e-05
-7.86503e-06
6.45906e-05
-4.70172e-06
6.52911e-05
-9.15109e-07
6.56933e-05
3.56933e-06
6.57686e-05
8.82345e-06
6.54872e-05
1.49093e-05
6.48132e-05
2.18733e-05
6.36932e-05
2.9737e-05
6.20335e-05
3.84825e-05
5.96569e-05
4.80248e-05
5.62157e-05
5.81611e-05
5.10165e-05
6.84892e-05
7.83616e-05
2.17326e-06
-9.7555e-06
4.73711e-06
-1.94672e-05
7.00959e-06
-2.22168e-05
9.03903e-06
-2.25191e-05
1.09474e-05
-2.20618e-05
1.28162e-05
-2.14381e-05
1.46887e-05
-2.08591e-05
1.65847e-05
-2.03949e-05
1.85113e-05
-2.00604e-05
2.0469e-05
-1.98487e-05
2.24557e-05
-1.97442e-05
2.44681e-05
-1.97286e-05
2.6503e-05
-1.97838e-05
2.85574e-05
-1.98927e-05
3.06288e-05
-2.00394e-05
3.27152e-05
-2.02092e-05
3.48148e-05
-2.03877e-05
3.69258e-05
-2.05607e-05
3.90463e-05
-2.07134e-05
4.11737e-05
-2.08295e-05
4.33048e-05
-2.0891e-05
4.54348e-05
-2.08769e-05
4.75574e-05
-2.07632e-05
4.96641e-05
-2.05219e-05
5.17436e-05
-2.01207e-05
5.37815e-05
-1.95227e-05
5.57601e-05
-1.86866e-05
5.76582e-05
-1.75666e-05
5.9452e-05
-1.61129e-05
6.11153e-05
-1.42712e-05
6.26207e-05
-1.1983e-05
6.39403e-05
-9.18462e-06
6.5047e-05
-5.80843e-06
6.59152e-05
-1.78337e-06
6.65216e-05
2.96298e-06
6.68445e-05
8.50055e-06
6.68628e-05
1.4891e-05
6.65524e-05
2.21837e-05
6.5878e-05
3.04114e-05
6.47782e-05
3.95823e-05
6.31339e-05
4.96691e-05
6.07006e-05
6.05944e-05
5.69549e-05
7.22348e-05
8.46252e-05
2.27424e-06
-1.20297e-05
4.78757e-06
-2.19806e-05
6.96219e-06
-2.43914e-05
8.91408e-06
-2.4471e-05
1.07784e-05
-2.39261e-05
1.26317e-05
-2.32915e-05
1.45096e-05
-2.2737e-05
1.64253e-05
-2.23106e-05
1.83813e-05
-2.20164e-05
2.03748e-05
-2.18422e-05
2.24012e-05
-2.17706e-05
2.44556e-05
-2.1783e-05
2.65336e-05
-2.18617e-05
2.86313e-05
-2.19904e-05
3.07459e-05
-2.2154e-05
3.28751e-05
-2.23384e-05
3.50172e-05
-2.25298e-05
3.71708e-05
-2.27143e-05
3.93345e-05
-2.2877e-05
4.15064e-05
-2.30014e-05
4.36841e-05
-2.30687e-05
4.58641e-05
-2.30569e-05
4.80411e-05
-2.29403e-05
5.02079e-05
-2.26887e-05
5.23543e-05
-2.22671e-05
5.4467e-05
-2.16355e-05
5.65291e-05
-2.07487e-05
5.852e-05
-1.95576e-05
6.04166e-05
-1.80095e-05
6.21938e-05
-1.60485e-05
6.38262e-05
-1.36153e-05
6.52888e-05
-1.06473e-05
6.65588e-05
-7.07841e-06
6.76159e-05
-2.84048e-06
6.84433e-05
2.13556e-06
6.90278e-05
7.91603e-06
6.93591e-05
1.45597e-05
6.94286e-05
2.21143e-05
6.92265e-05
3.06135e-05
6.87366e-05
4.00722e-05
6.79246e-05
5.04811e-05
6.67166e-05
6.18024e-05
6.49511e-05
7.40003e-05
8.72306e-05
2.33913e-06
-1.43689e-05
4.74351e-06
-2.43849e-05
6.77812e-06
-2.6426e-05
8.62364e-06
-2.63165e-05
1.04205e-05
-2.5723e-05
1.22364e-05
-2.51073e-05
1.40977e-05
-2.45983e-05
1.60112e-05
-2.42241e-05
1.79745e-05
-2.39797e-05
1.99817e-05
-2.38494e-05
2.20259e-05
-2.38147e-05
2.41004e-05
-2.38575e-05
2.61997e-05
-2.3961e-05
2.83193e-05
-2.411e-05
3.04558e-05
-2.42904e-05
3.26067e-05
-2.44893e-05
3.47705e-05
-2.46936e-05
3.6946e-05
-2.48898e-05
3.91323e-05
-2.50634e-05
4.13285e-05
-2.51976e-05
4.35331e-05
-2.52733e-05
4.57439e-05
-2.52676e-05
4.79569e-05
-2.51533e-05
5.01665e-05
-2.48982e-05
5.23638e-05
-2.44645e-05
5.45369e-05
-2.38085e-05
5.66694e-05
-2.28812e-05
5.87415e-05
-2.16297e-05
6.07304e-05
-1.99984e-05
6.26119e-05
-1.793e-05
6.43622e-05
-1.53656e-05
6.59596e-05
-1.22446e-05
6.73853e-05
-8.50412e-06
6.86249e-05
-4.08011e-06
6.9669e-05
1.09147e-06
7.05136e-05
7.07146e-06
7.11604e-05
1.39129e-05
7.1618e-05
2.16567e-05
7.19036e-05
3.03279e-05
7.20457e-05
3.99301e-05
7.20895e-05
5.04373e-05
7.21104e-05
6.17815e-05
7.22597e-05
7.3851e-05
8.65222e-05
2.38358e-06
-1.67524e-05
4.64587e-06
-2.66472e-05
6.52319e-06
-2.83033e-05
8.25444e-06
-2.80477e-05
9.97848e-06
-2.7447e-05
1.17515e-05
-2.68804e-05
1.35907e-05
-2.64375e-05
1.54961e-05
-2.61295e-05
1.7461e-05
-2.59446e-05
1.94763e-05
-2.58647e-05
2.15329e-05
-2.58713e-05
2.36226e-05
-2.59473e-05
2.57387e-05
-2.60771e-05
2.78759e-05
-2.62471e-05
3.00301e-05
-2.64447e-05
3.2199e-05
-2.66581e-05
3.43807e-05
-2.68753e-05
3.65747e-05
-2.70837e-05
3.87804e-05
-2.72691e-05
4.09979e-05
-2.74151e-05
4.32266e-05
-2.75021e-05
4.54655e-05
-2.75066e-05
4.77125e-05
-2.74003e-05
4.99634e-05
-2.71491e-05
5.22112e-05
-2.67123e-05
5.44451e-05
-2.60424e-05
5.66497e-05
-2.50858e-05
5.8805e-05
-2.3785e-05
6.08881e-05
-2.20814e-05
6.28749e-05
-1.99168e-05
6.47429e-05
-1.72336e-05
6.64727e-05
-1.39744e-05
6.80499e-05
-1.00813e-05
6.94658e-05
-5.496e-06
7.07184e-05
-1.61076e-07
7.18128e-05
5.97707e-06
7.27622e-05
1.29634e-05
7.35905e-05
2.08283e-05
7.43362e-05
2.95822e-05
7.50587e-05
3.92076e-05
7.58486e-05
4.96474e-05
7.68445e-05
6.07857e-05
7.82665e-05
7.24289e-05
8.43038e-05
2.40544e-06
-1.91579e-05
4.49343e-06
-2.87352e-05
6.19953e-06
-3.00094e-05
7.81098e-06
-2.96592e-05
9.45814e-06
-2.90942e-05
1.1184e-05
-2.86062e-05
1.29961e-05
-2.82496e-05
1.48883e-05
-2.80217e-05
1.68495e-05
-2.79058e-05
1.88677e-05
-2.78829e-05
2.09317e-05
-2.79354e-05
2.30318e-05
-2.80473e-05
2.51599e-05
-2.82053e-05
2.73101e-05
-2.83973e-05
2.94778e-05
-2.86125e-05
3.16603e-05
-2.88406e-05
3.38559e-05
-2.90709e-05
3.6064e-05
-2.92919e-05
3.82849e-05
-2.949e-05
4.05192e-05
-2.96494e-05
4.27675e-05
-2.97504e-05
4.50302e-05
-2.97692e-05
4.73067e-05
-2.96768e-05
4.95949e-05
-2.94373e-05
5.189e-05
-2.90074e-05
5.41826e-05
-2.83351e-05
5.64579e-05
-2.73611e-05
5.86956e-05
-2.60226e-05
6.08715e-05
-2.42574e-05
6.2961e-05
-2.20063e-05
6.49416e-05
-1.92143e-05
6.67962e-05
-1.5829e-05
6.85142e-05
-1.17993e-05
7.00925e-05
-7.07438e-06
7.15364e-05
-1.60493e-06
7.28593e-05
4.65414e-06
7.40845e-05
1.17383e-05
7.52471e-05
1.96657e-05
7.63993e-05
2.843e-05
7.76158e-05
3.79911e-05
7.90013e-05
4.82619e-05
8.06969e-05
5.90901e-05
8.28854e-05
7.02405e-05
8.13944e-05
2.40248e-06
-2.15604e-05
4.28287e-06
-3.06156e-05
5.8067e-06
-3.15333e-05
7.29556e-06
-3.1148e-05
8.86403e-06
-3.06627e-05
1.05402e-05
-3.02824e-05
1.23219e-05
-3.00313e-05
1.41969e-05
-2.98967e-05
1.61501e-05
-2.9859e-05
1.81667e-05
-2.98996e-05
2.02335e-05
-3.00021e-05
2.23393e-05
-3.01531e-05
2.44749e-05
-3.03409e-05
2.66335e-05
-3.05558e-05
2.88101e-05
-3.0789e-05
3.10015e-05
-3.1032e-05
3.3206e-05
-3.12755e-05
3.54235e-05
-3.15093e-05
3.76542e-05
-3.17208e-05
3.98996e-05
-3.18948e-05
4.21613e-05
-3.2012e-05
4.44408e-05
-3.20488e-05
4.67395e-05
-3.19755e-05
4.90578e-05
-3.17556e-05
5.13933e-05
-3.13429e-05
5.37389e-05
-3.06807e-05
5.60803e-05
-2.97025e-05
5.8396e-05
-2.83384e-05
6.06597e-05
-2.6521e-05
6.28445e-05
-2.41911e-05
6.49274e-05
-2.12972e-05
6.68926e-05
-1.77942e-05
6.87334e-05
-1.36401e-05
7.04523e-05
-8.79329e-06
7.20611e-05
-3.21373e-06
7.35809e-05
3.13431e-06
7.50429e-05
1.02764e-05
7.64896e-05
1.82189e-05
7.79799e-05
2.69398e-05
7.95925e-05
3.63785e-05
8.14295e-05
4.64248e-05
8.36143e-05
5.69053e-05
8.62849e-05
6.75699e-05
7.80937e-05
2.37022e-06
-2.39306e-05
4.00808e-06
-3.22535e-05
5.34316e-06
-3.28683e-05
6.7111e-06
-3.2516e-05
8.20251e-06
-3.21541e-05
9.82901e-06
-3.19089e-05
1.15789e-05
-3.17812e-05
1.34342e-05
-3.1752e-05
1.53761e-05
-3.18009e-05
1.73872e-05
-3.19107e-05
1.94526e-05
-3.20675e-05
2.15596e-05
-3.22601e-05
2.36982e-05
-3.24795e-05
2.58606e-05
-3.27182e-05
2.80412e-05
-3.29697e-05
3.02365e-05
-3.32273e-05
3.24449e-05
-3.34839e-05
3.46658e-05
-3.37302e-05
3.69002e-05
-3.39552e-05
3.91495e-05
-3.41441e-05
4.14163e-05
-3.42788e-05
4.37033e-05
-3.43357e-05
4.60136e-05
-3.42858e-05
4.83503e-05
-3.40923e-05
5.07149e-05
-3.37075e-05
5.31032e-05
-3.3069e-05
5.55018e-05
-3.21012e-05
5.78871e-05
-3.07236e-05
6.02288e-05
-2.88628e-05
6.24964e-05
-2.64587e-05
6.46651e-05
-2.34658e-05
6.67199e-05
-1.9849e-05
6.86576e-05
-1.55779e-05
7.04866e-05
-1.06223e-05
7.2225e-05
-4.95214e-06
7.39008e-05
1.4585e-06
7.55511e-05
8.62603e-06
7.72227e-05
1.65474e-05
7.89755e-05
2.5187e-05
8.0886e-05
3.4468e-05
8.30461e-05
4.42647e-05
8.55567e-05
5.43947e-05
8.85148e-05
6.46117e-05
7.46108e-05
2.29756e-06
-2.62281e-05
3.66061e-06
-3.36165e-05
4.80991e-06
-3.40176e-05
6.06559e-06
-3.37717e-05
7.48599e-06
-3.35745e-05
9.06559e-06
-3.34885e-05
1.07839e-05
-3.34995e-05
1.26179e-05
-3.35859e-05
1.45457e-05
-3.37287e-05
1.65478e-05
-3.39129e-05
1.86077e-05
-3.41274e-05
2.07117e-05
-3.43641e-05
2.28487e-05
-3.46165e-05
2.50101e-05
-3.48796e-05
2.71898e-05
-3.51493e-05
2.93839e-05
-3.54214e-05
3.15902e-05
-3.56902e-05
3.38084e-05
-3.59484e-05
3.60391e-05
-3.61858e-05
3.8284e-05
-3.63891e-05
4.05459e-05
-3.65406e-05
4.28282e-05
-3.6618e-05
4.51355e-05
-3.65932e-05
4.74742e-05
-3.6431e-05
4.98508e-05
-3.6084e-05
5.22658e-05
-3.54841e-05
5.47074e-05
-3.45427e-05
5.71486e-05
-3.31648e-05
5.95534e-05
-3.12676e-05
6.18853e-05
-2.87907e-05
6.41162e-05
-2.56966e-05
6.62314e-05
-2.19643e-05
6.8232e-05
-1.75784e-05
7.01321e-05
-1.25224e-05
7.19565e-05
-6.77653e-06
7.37396e-05
-3.24609e-07
7.55233e-05
6.84235e-06
7.73554e-05
1.47152e-05
7.92938e-05
2.32487e-05
8.14088e-05
3.2353e-05
8.37804e-05
4.18932e-05
8.64872e-05
5.16878e-05
8.95909e-05
6.1508e-05
7.1084e-05
2.16253e-06
-2.83907e-05
3.23406e-06
-3.4688e-05
4.21713e-06
-3.50007e-05
5.37806e-06
-3.49326e-05
6.73767e-06
-3.49341e-05
8.27496e-06
-3.50257e-05
9.96258e-06
-3.51872e-05
1.17738e-05
-3.53972e-05
1.36846e-05
-3.56394e-05
1.56738e-05
-3.59021e-05
1.77239e-05
-3.61775e-05
1.98203e-05
-3.64604e-05
2.19509e-05
-3.67471e-05
2.41063e-05
-3.70351e-05
2.62799e-05
-3.73229e-05
2.8467e-05
-3.76085e-05
3.06654e-05
-3.78886e-05
3.2874e-05
-3.8157e-05
3.50932e-05
-3.84051e-05
3.73245e-05
-3.86203e-05
3.957e-05
-3.87862e-05
4.18331e-05
-3.88811e-05
4.41189e-05
-3.8879e-05
4.64373e-05
-3.87493e-05
4.88016e-05
-3.84483e-05
5.12204e-05
-3.79028e-05
5.36841e-05
-3.70063e-05
5.61615e-05
-3.56422e-05
5.86079e-05
-3.3714e-05
6.09784e-05
-3.11611e-05
6.32396e-05
-2.79578e-05
6.53775e-05
-2.41022e-05
6.7398e-05
-1.95989e-05
6.93222e-05
-1.44466e-05
7.11817e-05
-8.63605e-06
7.30177e-05
-2.16055e-06
7.48762e-05
4.98386e-06
7.68042e-05
1.27872e-05
7.88546e-05
2.11983e-05
8.10908e-05
3.01168e-05
8.35817e-05
3.94023e-05
8.6388e-05
4.88816e-05
8.95451e-05
5.83509e-05
6.75799e-05
1.93537e-06
-3.0326e-05
2.73544e-06
-3.54881e-05
3.59422e-06
-3.58595e-05
4.68575e-06
-3.60241e-05
5.99647e-06
-3.62448e-05
7.49554e-06
-3.65248e-05
9.15223e-06
-3.68438e-05
1.0938e-05
-3.7183e-05
1.28275e-05
-3.75289e-05
1.4799e-05
-3.78736e-05
1.6834e-05
-3.82125e-05
1.89172e-05
-3.85436e-05
2.1036e-05
-3.88659e-05
2.31801e-05
-3.91792e-05
2.53417e-05
-3.94845e-05
2.7516e-05
-3.97828e-05
2.97e-05
-4.00726e-05
3.18921e-05
-4.03491e-05
3.40919e-05
-4.06048e-05
3.62997e-05
-4.08282e-05
3.85169e-05
-4.10033e-05
4.07449e-05
-4.11091e-05
4.29877e-05
-4.11218e-05
4.52573e-05
-4.10189e-05
4.75772e-05
-4.07681e-05
4.9968e-05
-4.02935e-05
5.24251e-05
-3.94633e-05
5.49113e-05
-3.81283e-05
5.73698e-05
-3.61724e-05
5.97439e-05
-3.35351e-05
6.1994e-05
-3.02079e-05
6.41072e-05
-2.62153e-05
6.60958e-05
-2.15875e-05
6.79898e-05
-1.63406e-05
6.98278e-05
-1.0474e-05
7.16587e-05
-3.99142e-06
7.3534e-05
3.1085e-06
7.54979e-05
1.08234e-05
7.75961e-05
1.91001e-05
7.98855e-05
2.78274e-05
8.24269e-05
3.68609e-05
8.5268e-05
4.60404e-05
8.84252e-05
5.51937e-05
6.41243e-05
1.59595e-06
-3.1922e-05
2.20458e-06
-3.60967e-05
3.00177e-06
-3.66566e-05
4.05058e-06
-3.70728e-05
5.32072e-06
-3.75148e-05
6.78168e-06
-3.79857e-05
8.40373e-06
-3.84658e-05
1.01584e-05
-3.89375e-05
1.20201e-05
-3.93905e-05
1.39668e-05
-3.98201e-05
1.59795e-05
-4.02251e-05
1.80428e-05
-4.06068e-05
2.01434e-05
-4.09664e-05
2.22696e-05
-4.13053e-05
2.44129e-05
-4.16277e-05
2.65678e-05
-4.19376e-05
2.87308e-05
-4.22354e-05
3.08993e-05
-4.25175e-05
3.30716e-05
-4.27769e-05
3.5247e-05
-4.30033e-05
3.74246e-05
-4.31807e-05
3.96026e-05
-4.32867e-05
4.17795e-05
-4.32983e-05
4.39669e-05
-4.32058e-05
4.62012e-05
-4.30016e-05
4.85226e-05
-4.26141e-05
5.0935e-05
-4.18747e-05
5.33929e-05
-4.05854e-05
5.58229e-05
-3.86017e-05
5.8154e-05
-3.58658e-05
6.03394e-05
-3.2393e-05
6.23692e-05
-2.82448e-05
6.42657e-05
-2.34837e-05
6.607e-05
-1.81445e-05
6.78263e-05
-1.22297e-05
6.95944e-05
-5.75903e-06
7.14353e-05
1.26781e-06
7.33868e-05
8.87177e-06
7.54864e-05
1.70007e-05
7.77844e-05
2.55294e-05
8.03368e-05
3.43085e-05
8.31819e-05
4.31953e-05
8.63174e-05
5.20581e-05
6.07204e-05
1.16117e-06
-3.30831e-05
1.7373e-06
-3.66726e-05
2.5415e-06
-3.74604e-05
3.5627e-06
-3.80934e-05
4.78928e-06
-3.87406e-05
6.20397e-06
-3.93995e-05
7.78184e-06
-4.00428e-05
9.49544e-06
-4.06502e-05
1.13192e-05
-4.12134e-05
1.3231e-05
-4.17311e-05
1.5212e-05
-4.22053e-05
1.72462e-05
-4.26403e-05
1.93204e-05
-4.30398e-05
2.14208e-05
-4.3405e-05
2.3538e-05
-4.37441e-05
2.56659e-05
-4.40647e-05
2.78005e-05
-4.43691e-05
2.9938e-05
-4.46539e-05
3.2075e-05
-4.49127e-05
3.42093e-05
-4.51361e-05
3.63385e-05
-4.53082e-05
3.8455e-05
-4.54011e-05
4.05454e-05
-4.53863e-05
4.26132e-05
-4.527e-05
4.47115e-05
-4.50942e-05
4.69125e-05
-4.48079e-05
4.92323e-05
-4.41875e-05
5.16118e-05
-4.29591e-05
5.39557e-05
-4.09413e-05
5.61795e-05
-3.80861e-05
5.82265e-05
-3.44369e-05
6.00967e-05
-3.01123e-05
6.18291e-05
-2.52135e-05
6.34801e-05
-1.97934e-05
6.50978e-05
-1.38431e-05
6.67543e-05
-7.40967e-06
6.85301e-05
-4.99389e-07
7.04526e-05
6.95418e-06
7.2541e-05
1.49123e-05
7.48473e-05
2.32233e-05
7.74174e-05
3.17383e-05
8.02751e-05
4.03375e-05
8.33932e-05
4.894e-05
8.67581e-05
5.73556e-05
6.54824e-05
7.37948e-07
-3.38205e-05
1.50076e-06
-3.74335e-05
2.35826e-06
-3.8314e-05
3.33768e-06
-3.90675e-05
4.49753e-06
-3.98943e-05
5.8455e-06
-4.07407e-05
7.36202e-06
-4.15524e-05
9.01919e-06
-4.23006e-05
1.07907e-05
-4.29784e-05
1.2654e-05
-4.35881e-05
1.459e-05
-4.41353e-05
1.6583e-05
-4.46277e-05
1.86198e-05
-4.50712e-05
2.06838e-05
-4.54636e-05
2.27642e-05
-4.58189e-05
2.4855e-05
-4.61494e-05
2.69515e-05
-4.64588e-05
2.9048e-05
-4.67428e-05
3.11388e-05
-4.69946e-05
3.32206e-05
-4.72073e-05
3.52909e-05
-4.7366e-05
3.73351e-05
-4.74313e-05
3.93165e-05
-4.73505e-05
4.12118e-05
-4.71391e-05
4.31095e-05
-4.69498e-05
4.51347e-05
-4.67815e-05
4.73163e-05
-4.63199e-05
4.95513e-05
-4.51547e-05
5.17164e-05
-4.30766e-05
5.37179e-05
-4.00614e-05
5.54848e-05
-3.61803e-05
5.70348e-05
-3.16369e-05
5.84249e-05
-2.65729e-05
5.97976e-05
-2.1138e-05
6.12043e-05
-1.52285e-05
6.27383e-05
-8.90706e-06
6.43709e-05
-2.15917e-06
6.66058e-05
4.72222e-06
6.88126e-05
1.27061e-05
7.12392e-05
2.07967e-05
7.39349e-05
2.90425e-05
7.68647e-05
3.74077e-05
7.9992e-05
4.58128e-05
8.33346e-05
5.4013e-05
6.1957e-05
5.30737e-07
-3.4346e-05
1.73089e-06
-3.86175e-05
2.62173e-06
-3.91741e-05
3.48685e-06
-3.98907e-05
4.5279e-06
-4.08873e-05
5.77638e-06
-4.19378e-05
7.20925e-06
-4.29333e-05
8.7911e-06
-4.38318e-05
1.04925e-05
-4.46317e-05
1.22898e-05
-4.53403e-05
1.41628e-05
-4.59663e-05
1.60967e-05
-4.65217e-05
1.80795e-05
-4.70166e-05
2.0089e-05
-4.74355e-05
2.21133e-05
-4.78039e-05
2.41465e-05
-4.81403e-05
2.6183e-05
-4.84487e-05
2.82129e-05
-4.87198e-05
3.0226e-05
-4.89464e-05
3.22172e-05
-4.91261e-05
3.41857e-05
-4.92501e-05
3.61067e-05
-4.92562e-05
3.78875e-05
-4.90112e-05
3.9427e-05
-4.84923e-05
4.09914e-05
-4.82116e-05
4.27992e-05
-4.82309e-05
4.4893e-05
-4.80776e-05
4.69021e-05
-4.68993e-05
4.86968e-05
-4.46626e-05
5.00782e-05
-4.12502e-05
5.08834e-05
-3.67957e-05
4.9952e-05
-2.76684e-05
4.63823e-05
-1.70689e-05
4.23036e-05
-9.83275e-06
3.74156e-05
-3.22371e-06
3.69306e-05
-6.34455e-07
3.86851e-05
-1.2196e-07
3.96937e-05
5.85899e-07
4.34712e-05
2.01144e-06
5.19871e-05
4.65919e-06
6.32117e-05
1.11301e-05
7.04144e-05
2.51679e-05
7.60351e-05
4.01952e-05
7.99431e-05
5.01154e-05
5.84173e-05
8.93061e-07
-3.51928e-05
2.72934e-06
-4.03231e-05
3.40607e-06
-3.96076e-05
3.9712e-06
-4.01308e-05
4.81758e-06
-4.13684e-05
5.93101e-06
-4.26688e-05
7.26162e-06
-4.38838e-05
8.75013e-06
-4.49554e-05
1.03628e-05
-4.5902e-05
1.2073e-05
-4.67341e-05
1.38581e-05
-4.74593e-05
1.57029e-05
-4.8092e-05
1.75968e-05
-4.86561e-05
1.95071e-05
-4.90907e-05
2.142e-05
-4.9452e-05
2.33297e-05
-4.97657e-05
2.52246e-05
-5.00307e-05
2.7079e-05
-5.02206e-05
2.88689e-05
-5.03267e-05
3.05821e-05
-5.03582e-05
3.22099e-05
-5.0215e-05
3.36054e-05
-4.79824e-05
3.36316e-05
-4.18959e-05
3.14088e-05
-3.10714e-05
3.12393e-05
-2.26173e-05
3.31852e-05
-2.30748e-05
3.74563e-05
-2.77287e-05
3.93118e-05
-3.14468e-05
3.9075e-05
-2.86044e-05
3.31702e-05
-1.93662e-05
2.14218e-05
-4.30714e-06
1.14234e-05
-6.22201e-07
5.66359e-06
-8.49444e-08
3.95312e-06
-1.13668e-08
7.69024e-07
-1.46056e-09
1.34897e-07
-2.17361e-10
1.29857e-08
-3.15019e-11
5.44682e-07
2.1922e-09
1.85216e-06
3.19462e-08
4.73238e-06
1.07594e-07
1.22258e-05
3.25091e-07
2.90298e-05
9.34635e-07
5.33026e-05
3.72236e-06
6.62295e-05
2.1523e-05
4.63143e-05
2.69351e-06
-3.45913e-05
4.01443e-06
-2.9291e-05
3.17081e-06
-1.68212e-05
3.11064e-06
-1.25727e-05
3.62888e-06
-1.24825e-05
4.53547e-06
-1.37561e-05
5.74404e-06
-1.59573e-05
7.13292e-06
-1.86168e-05
8.67491e-06
-2.15336e-05
1.03186e-05
-2.45184e-05
1.20103e-05
-2.72753e-05
1.37216e-05
-2.94571e-05
1.53851e-05
-3.18406e-05
1.69223e-05
-3.20966e-05
1.82762e-05
-3.16864e-05
1.94181e-05
-3.05025e-05
2.02633e-05
-2.86515e-05
2.05634e-05
-2.5844e-05
2.01464e-05
-2.21613e-05
1.897e-05
-1.78981e-05
1.70368e-05
-1.35969e-05
1.37321e-05
-4.93695e-06
9.10492e-06
-4.56095e-07
4.75376e-06
-4.50354e-08
4.38633e-06
-4.57231e-09
5.5927e-06
-4.68228e-10
9.30089e-06
-3.31158e-11
9.87426e-06
1.97041e-12
7.67342e-06
3.73607e-12
5.02763e-06
3.54632e-12
7.2021e-07
4.90346e-12
9.80043e-08
1.98823e-12
1.30662e-08
6.95419e-13
1.75249e-09
2.52399e-13
2.53358e-10
8.81174e-14
3.59748e-11
2.24917e-14
4.46961e-12
3.28735e-15
2.19931e-09
1.64399e-11
3.33996e-08
9.48975e-10
1.35498e-07
5.89318e-09
4.35128e-07
2.42043e-08
1.27405e-06
8.66372e-08
3.96623e-06
2.74713e-07
1.83673e-05
1.07286e-06
3.4929e-06
3.55863e-06
1.17176e-14
1.12341e-06
5.93028e-16
2.99025e-07
1.93165e-17
2.20802e-07
6.71415e-19
2.51132e-07
1.36089e-19
3.95852e-07
2.42282e-19
6.6337e-07
9.40444e-19
1.04068e-06
5.58248e-18
1.54227e-06
3.33487e-17
2.14934e-06
1.3212e-16
2.8088e-06
1.0229e-12
3.46784e-06
2.13927e-11
3.9944e-06
3.72899e-11
4.26235e-06
1.64434e-11
4.28454e-06
3.05243e-12
4.07451e-06
1.01734e-12
3.64648e-06
5.39881e-13
2.9207e-06
3.06396e-13
2.01667e-06
1.7121e-13
1.09938e-06
9.36208e-14
1.35357e-06
5.00746e-14
5.06283e-07
2.6522e-14
5.01827e-08
3.18202e-12
5.13634e-09
1.09982e-11
5.45992e-10
1.80332e-11
5.76929e-11
2.00716e-11
4.13294e-12
2.0444e-11
-1.6927e-12
1.93326e-11
-3.37676e-12
1.73576e-11
-3.62164e-12
1.29793e-11
-5.97551e-12
8.42923e-12
-2.93932e-12
4.72559e-12
-1.28358e-12
2.38538e-12
-5.63146e-13
1.12094e-12
-2.44859e-13
4.71828e-13
-9.68298e-14
1.55272e-13
-3.27693e-14
3.29576e-14
1.63945e-11
4.9353e-16
9.54571e-10
2.47906e-11
6.60996e-09
2.85796e-10
2.92892e-08
1.71529e-09
1.09524e-07
7.96334e-09
3.5354e-07
3.01842e-08
1.26396e-06
1.36845e-07
4.70981e-07
-4.76207e-15
1.63187e-16
-1.63179e-16
4.51964e-17
-3.77292e-18
8.74567e-18
-1.23734e-19
1.87323e-18
-2.55188e-20
9.58535e-19
-4.78586e-20
1.82812e-18
-1.99846e-19
6.94511e-18
-1.29224e-18
4.04288e-17
-8.45038e-18
1.06019e-16
-3.66528e-17
3.64879e-16
-3.10104e-13
4.65844e-14
-7.05592e-12
1.48566e-12
-1.33088e-11
4.19803e-12
-6.33613e-12
5.09919e-12
-1.26704e-12
4.32118e-12
-4.53302e-13
2.97575e-12
-2.57221e-13
1.82255e-12
-1.55561e-13
1.04817e-12
-9.24024e-14
5.83031e-13
-5.3631e-14
3.16836e-13
-3.05554e-14
1.68732e-13
-1.74081e-14
8.91479e-14
-2.27881e-12
8.68778e-12
-8.44851e-12
2.42607e-11
-1.46755e-11
3.55231e-11
-1.73962e-11
3.70851e-11
-1.88955e-11
3.4725e-11
-1.91313e-11
3.00047e-11
-1.8751e-11
2.32361e-11
-1.49183e-11
1.64556e-11
-1.0543e-11
1.07309e-11
-6.93477e-12
6.21452e-12
-4.25696e-12
3.18592e-12
-2.44081e-12
1.4388e-12
-1.28841e-12
5.53773e-13
-6.20986e-13
1.59706e-13
-2.67002e-13
2.60464e-14
-8.7179e-14
8.54319e-16
2.41446e-11
4.76527e-13
3.01228e-10
1.14932e-11
1.92573e-09
1.05452e-10
9.24766e-09
6.61461e-10
3.61492e-08
3.15803e-09
1.54578e-07
1.61885e-08
6.34108e-08
-1.03516e-17
1.61837e-16
-5.6652e-18
5.71982e-17
-1.51797e-18
9.00525e-18
-3.28458e-19
2.10437e-18
-1.96446e-19
1.53482e-18
-4.3189e-19
3.19503e-18
-1.83548e-18
1.20612e-17
-1.17245e-17
6.40429e-17
-3.33479e-17
1.63096e-16
-1.23656e-16
4.34132e-16
-1.69288e-14
5.77668e-14
-5.7765e-13
1.92855e-12
-1.74607e-12
5.28681e-12
-2.26839e-12