/*--------------------------------*- C++ -*----------------------------------*\
  =========                 |
  \\      /  F ield         | OpenFOAM: The Open Source CFD Toolbox
   \\    /   O peration     | Website:  https://openfoam.org
    \\  /    A nd           | Version:  9
     \\/     M anipulation  |
\*---------------------------------------------------------------------------*/
FoamFile
{
    format      ascii;
    class       volVectorField;
    location    "0.3";
    object      U;
}
// * * * * * * * * * * * * * * * * * * * * * * * * * * * * * * * * * * * * * //

dimensions      [0 1 -1 0 0 0 0];

internalField   nonuniform List<vector> 
1935
(
(-0.0385152 0.0189224 0)
(-0.0531592 -0.000179284 0)
(-0.032717 -0.0166032 0)
(0.000102279 -0.0212361 0)
(0.0395487 -0.0224101 0)
(0.0792457 -0.0214629 0)
(0.117301 -0.0197381 0)
(0.152854 -0.0179546 0)
(0.185814 -0.0163832 0)
(0.216561 -0.0151054 0)
(0.24561 -0.0141277 0)
(0.273455 -0.013421 0)
(0.300523 -0.0129427 0)
(0.327169 -0.0126491 0)
(0.353674 -0.0125007 0)
(0.380249 -0.0124627 0)
(0.407046 -0.0125049 0)
(0.434164 -0.0126002 0)
(0.46165 -0.0127239 0)
(0.489505 -0.0128529 0)
(0.517687 -0.0129642 0)
(0.546106 -0.0130349 0)
(0.574627 -0.0130407 0)
(0.60306 -0.0129559 0)
(0.631162 -0.0127517 0)
(0.658624 -0.0123962 0)
(0.68506 -0.0118519 0)
(0.709998 -0.0110745 0)
(0.732857 -0.0100077 0)
(0.752906 -0.00857688 0)
(0.769254 -0.00665096 0)
(0.780475 -0.00402288 0)
(0.785852 0.000231147 0)
(0.780157 0.00607852 0)
(0.760606 0.0138259 0)
(0.724255 0.0235948 0)
(0.667763 0.0352794 0)
(0.58808 0.0483487 0)
(0.483586 0.0612659 0)
(0.355634 0.0711685 0)
(0.209867 0.0744589 0)
(0.0596398 0.0697408 0)
(-0.0892142 0.05921 0)
(-0.235248 0.0142858 0)
(-0.0202593 0.0446506 0)
(-0.00863153 -0.00107401 0)
(0.0127656 -0.0291293 0)
(0.044069 -0.0410887 0)
(0.0788908 -0.044775 0)
(0.114294 -0.0441941 0)
(0.148767 -0.0418685 0)
(0.181692 -0.0391419 0)
(0.212993 -0.0366339 0)
(0.242892 -0.0345916 0)
(0.27172 -0.0330752 0)
(0.299817 -0.0320533 0)
(0.327485 -0.0314561 0)
(0.35498 -0.0312039 0)
(0.382501 -0.031219 0)
(0.410195 -0.0314301 0)
(0.43816 -0.0317727 0)
(0.466449 -0.0321882 0)
(0.495074 -0.0326221 0)
(0.524008 -0.0330225 0)
(0.553187 -0.0333379 0)
(0.582507 -0.0335155 0)
(0.611822 -0.0334988 0)
(0.640941 -0.0332263 0)
(0.66962 -0.0326289 0)
(0.697557 -0.0316275 0)
(0.724382 -0.0301301 0)
(0.749646 -0.0280264 0)
(0.772803 -0.0251796 0)
(0.793198 -0.0214112 0)
(0.810059 -0.0164568 0)
(0.822532 -0.00994291 0)
(0.829294 -0.00107214 0)
(0.831201 0.0106656 0)
(0.826548 0.0258025 0)
(0.812862 0.0447865 0)
(0.78705 0.0679053 0)
(0.74507 0.0948565 0)
(0.681833 0.123963 0)
(0.591905 0.151404 0)
(0.471519 0.170971 0)
(0.324207 0.176236 0)
(0.163775 0.162846 0)
(0.017921 0.110383 0)
(0.00204668 0.0432192 0)
(0.0174131 -0.0164723 0)
(0.0420441 -0.0497018 0)
(0.0721574 -0.0646177 0)
(0.104321 -0.0691503 0)
(0.136734 -0.0683709 0)
(0.168501 -0.0653414 0)
(0.199282 -0.0617563 0)
(0.229065 -0.0584463 0)
(0.258012 -0.0557578 0)
(0.286349 -0.0537825 0)
(0.314307 -0.0524844 0)
(0.342092 -0.0517715 0)
(0.369877 -0.051534 0)
(0.397792 -0.0516618 0)
(0.425932 -0.0520527 0)
(0.454352 -0.0526131 0)
(0.483073 -0.0532577 0)
(0.512086 -0.0539067 0)
(0.541347 -0.0544832 0)
(0.570782 -0.0549103 0)
(0.600283 -0.0551077 0)
(0.629703 -0.054989 0)
(0.658856 -0.0544587 0)
(0.687505 -0.0534089 0)
(0.71536 -0.0517159 0)
(0.74207 -0.0492357 0)
(0.767209 -0.0457978 0)
(0.790269 -0.0411955 0)
(0.810653 -0.0351726 0)
(0.827659 -0.0274025 0)
(0.840499 -0.0174676 0)
(0.848166 -0.00488316 0)
(0.850014 0.0111903 0)
(0.845206 0.031604 0)
(0.832611 0.057228 0)
(0.810937 0.0887858 0)
(0.778617 0.12646 0)
(0.733545 0.169143 0)
(0.672633 0.213275 0)
(0.591512 0.251596 0)
(0.486455 0.273231 0)
(0.359453 0.264753 0)
(0.225083 0.203839 0)
(0.0106851 0.0295325 0)
(0.0314526 -0.034092 0)
(0.0603196 -0.0716685 0)
(0.0912972 -0.0882836 0)
(0.122406 -0.0930506 0)
(0.153034 -0.0918647 0)
(0.182959 -0.0882015 0)
(0.212179 -0.0839678 0)
(0.240805 -0.0801051 0)
(0.268997 -0.0770055 0)
(0.296923 -0.0747682 0)
(0.324736 -0.0733451 0)
(0.35257 -0.0726226 0)
(0.380531 -0.0724659 0)
(0.408696 -0.0727396 0)
(0.437115 -0.0733172 0)
(0.465813 -0.0740825 0)
(0.494789 -0.0749286 0)
(0.524017 -0.0757548 0)
(0.553446 -0.0764627 0)
(0.582997 -0.0769524 0)
(0.612562 -0.0771186 0)
(0.641998 -0.0768467 0)
(0.671124 -0.0760088 0)
(0.699713 -0.0744604 0)
(0.727491 -0.0720353 0)
(0.75412 -0.0685414 0)
(0.779202 -0.063753 0)
(0.802263 -0.057402 0)
(0.822748 -0.0491642 0)
(0.840016 -0.0386437 0)
(0.853346 -0.0253567 0)
(0.861898 -0.00873002 0)
(0.864863 0.0120282 0)
(0.861435 0.037787 0)
(0.85078 0.0694474 0)
(0.832098 0.107782 0)
(0.804625 0.153125 0)
(0.767511 0.204771 0)
(0.719456 0.259934 0)
(0.657954 0.31217 0)
(0.578821 0.349762 0)
(0.477452 0.354472 0)
(0.353884 0.29972 0)
(0.0121271 0.0127812 0)
(0.0382979 -0.0565248 0)
(0.0712204 -0.0956228 0)
(0.103656 -0.112168 0)
(0.134552 -0.116303 0)
(0.164222 -0.114431 0)
(0.193015 -0.110191 0)
(0.221227 -0.105524 0)
(0.249095 -0.101367 0)
(0.2768 -0.0980993 0)
(0.304479 -0.0958012 0)
(0.332236 -0.0944058 0)
(0.360148 -0.093781 0)
(0.388273 -0.0937734 0)
(0.416647 -0.0942303 0)
(0.445292 -0.0950081 0)
(0.474206 -0.0959746 0)
(0.503376 -0.0970066 0)
(0.532765 -0.0979865 0)
(0.562318 -0.0987978 0)
(0.591957 -0.0993206 0)
(0.621576 -0.0994264 0)
(0.651038 -0.0989742 0)
(0.680171 -0.097806 0)
(0.708761 -0.0957419 0)
(0.736545 -0.0925765 0)
(0.763206 -0.0880723 0)
(0.788369 -0.081954 0)
(0.811589 -0.0738982 0)
(0.832354 -0.0635222 0)
(0.850078 -0.0503701 0)
(0.864103 -0.0339002 0)
(0.873694 -0.0134815 0)
(0.878093 0.0116623 0)
(0.876563 0.0423962 0)
(0.868392 0.0795844 0)
(0.852954 0.123941 0)
(0.829697 0.175764 0)
(0.798055 0.234459 0)
(0.757158 0.29773 0)
(0.705191 0.360212 0)
(0.638443 0.411445 0)
(0.550427 0.433201 0)
(0.433577 0.39768 0)
(0.0127566 -0.0056066 0)
(0.0422153 -0.0820239 0)
(0.0776917 -0.121208 0)
(0.1111 -0.136361 0)
(0.141889 -0.139141 0)
(0.170975 -0.13631 0)
(0.199084 -0.131493 0)
(0.226704 -0.126523 0)
(0.254152 -0.122247 0)
(0.281621 -0.118979 0)
(0.309223 -0.116761 0)
(0.337026 -0.115499 0)
(0.365071 -0.115044 0)
(0.393378 -0.115228 0)
(0.421957 -0.115887 0)
(0.450806 -0.116867 0)
(0.479913 -0.118025 0)
(0.509251 -0.119226 0)
(0.538783 -0.120338 0)
(0.568451 -0.121232 0)
(0.598182 -0.121769 0)
(0.627874 -0.121799 0)
(0.657401 -0.121158 0)
(0.686599 -0.119658 0)
(0.715268 -0.117087 0)
(0.743161 -0.113202 0)
(0.769978 -0.107723 0)
(0.795367 -0.10033 0)
(0.818914 -0.0906511 0)
(0.840142 -0.0782521 0)
(0.858515 -0.0626276 0)
(0.873436 -0.0431893 0)
(0.884254 -0.0192654 0)
(0.89029 0.00992126 0)
(0.89089 0.0452139 0)
(0.88542 0.0874328 0)
(0.873321 0.137239 0)
(0.854077 0.194912 0)
(0.827104 0.259974 0)
(0.791485 0.330557 0)
(0.745417 0.402293 0)
(0.685257 0.466417 0)
(0.603925 0.50677 0)
(0.490208 0.497201 0)
(0.0135932 -0.025336 0)
(0.0449328 -0.109302 0)
(0.0815217 -0.147657 0)
(0.115074 -0.16063 0)
(0.145487 -0.16166 0)
(0.174057 -0.157758 0)
(0.2017 -0.152398 0)
(0.228984 -0.147228 0)
(0.256243 -0.14295 0)
(0.283656 -0.139791 0)
(0.311309 -0.13774 0)
(0.33924 -0.136674 0)
(0.36746 -0.136426 0)
(0.395966 -0.13682 0)
(0.42475 -0.137685 0)
(0.453795 -0.13886 0)
(0.483079 -0.140195 0)
(0.512574 -0.141548 0)
(0.542241 -0.142776 0)
(0.572026 -0.143737 0)
(0.601861 -0.144277 0)
(0.631654 -0.144228 0)
(0.661288 -0.143402 0)
(0.690612 -0.141584 0)
(0.71944 -0.138531 0)
(0.747541 -0.133964 0)
(0.774635 -0.127565 0)
(0.800391 -0.11897 0)
(0.82442 -0.107765 0)
(0.846283 -0.0934714 0)
(0.865486 -0.0755432 0)
(0.881491 -0.0533559 0)
(0.893716 -0.0262088 0)
(0.901564 0.00667854 0)
(0.904461 0.0461301 0)
(0.901841 0.0929349 0)
(0.893183 0.147728 0)
(0.877967 0.210819 0)
(0.855541 0.281904 0)
(0.824862 0.359588 0)
(0.783987 0.440506 0)
(0.729122 0.517708 0)
(0.652793 0.577894 0)
(0.541541 0.598388 0)
(0.0146045 -0.0462196 0)
(0.0469839 -0.137388 0)
(0.0835892 -0.174175 0)
(0.116529 -0.184562 0)
(0.146222 -0.183751 0)
(0.174205 -0.178837 0)
(0.201453 -0.173048 0)
(0.228522 -0.167791 0)
(0.255712 -0.163612 0)
(0.283166 -0.16064 0)
(0.310938 -0.158811 0)
(0.339037 -0.157976 0)
(0.36745 -0.157954 0)
(0.396157 -0.158563 0)
(0.425135 -0.159628 0)
(0.454361 -0.160986 0)
(0.483809 -0.162484 0)
(0.513449 -0.163973 0)
(0.543245 -0.165305 0)
(0.573149 -0.166326 0)
(0.6031 -0.166868 0)
(0.633018 -0.166746 0)
(0.662797 -0.16575 0)
(0.692302 -0.163641 0)
(0.721362 -0.160144 0)
(0.749762 -0.154947 0)
(0.777241 -0.147694 0)
(0.803488 -0.137983 0)
(0.828141 -0.125359 0)
(0.85079 -0.109307 0)
(0.870984 -0.0892486 0)
(0.888234 -0.0645311 0)
(0.902028 -0.0344361 0)
(0.911841 0.00181725 0)
(0.917181 0.0450384 0)
(0.917549 0.0959999 0)
(0.912477 0.155337 0)
(0.901462 0.223422 0)
(0.883845 0.300169 0)
(0.858549 0.384686 0)
(0.823606 0.474634 0)
(0.775205 0.564997 0)
(0.705738 0.645877 0)
(0.599954 0.699684 0)
(0.0157151 -0.0681611 0)
(0.0485059 -0.165604 0)
(0.0843136 -0.200139 0)
(0.116065 -0.20779 0)
(0.144751 -0.205261 0)
(0.172048 -0.199526 0)
(0.198891 -0.193478 0)
(0.225771 -0.18827 0)
(0.252924 -0.184285 0)
(0.280444 -0.181565 0)
(0.308345 -0.179999 0)
(0.336608 -0.179416 0)
(0.365201 -0.179628 0)
(0.394089 -0.180449 0)
(0.42324 -0.181706 0)
(0.452624 -0.183235 0)
(0.482214 -0.184883 0)
(0.511981 -0.186497 0)
(0.541893 -0.187926 0)
(0.571912 -0.189004 0)
(0.601984 -0.189555 0)
(0.632043 -0.189376 0)
(0.661997 -0.188237 0)
(0.691726 -0.185875 0)
(0.721076 -0.181986 0)
(0.74985 -0.176224 0)
(0.777806 -0.168197 0)
(0.804651 -0.157465 0)
(0.830047 -0.143538 0)
(0.85361 -0.125871 0)
(0.874925 -0.103856 0)
(0.893553 -0.0768273 0)
(0.909044 -0.0440553 0)
(0.920945 -0.00476557 0)
(0.928844 0.0418381 0)
(0.932326 0.0965179 0)
(0.930998 0.159919 0)
(0.924436 0.232492 0)
(0.912069 0.314362 0)
(0.892966 0.40512 0)
(0.865414 0.503416 0)
(0.826033 0.606185 0)
(0.767887 0.707287 0)
(0.67485 0.795956 0)
(0.0168477 -0.0910393 0)
(0.0495164 -0.193432 0)
(0.0839136 -0.225095 0)
(0.114076 -0.230051 0)
(0.141561 -0.226065 0)
(0.16808 -0.219774 0)
(0.194472 -0.213674 0)
(0.221131 -0.208657 0)
(0.24822 -0.204964 0)
(0.275774 -0.202556 0)
(0.303769 -0.201289 0)
(0.33216 -0.200976 0)
(0.360895 -0.201426 0)
(0.389925 -0.202456 0)
(0.419211 -0.203896 0)
(0.448718 -0.205586 0)
(0.478419 -0.207373 0)
(0.508287 -0.209106 0)
(0.538296 -0.210628 0)
(0.568415 -0.21177 0)
(0.598603 -0.212343 0)
(0.628807 -0.212131 0)
(0.65895 -0.210886 0)
(0.68893 -0.20832 0)
(0.718612 -0.204102 0)
(0.747817 -0.197851 0)
(0.77632 -0.18914 0)
(0.803848 -0.177492 0)
(0.830078 -0.162385 0)
(0.854653 -0.143247 0)
(0.877188 -0.119453 0)
(0.897287 -0.0903284 0)
(0.91456 -0.0551464 0)
(0.928628 -0.0131456 0)
(0.939158 0.0364511 0)
(0.945837 0.0943906 0)
(0.948378 0.161323 0)
(0.946491 0.237752 0)
(0.939807 0.32397 0)
(0.927726 0.419942 0)
(0.909133 0.525115 0)
(0.881734 0.638098 0)
(0.840687 0.756278 0)
(0.771787 0.876619 0)
(0.0179442 -0.114908 0)
(0.0500089 -0.220684 0)
(0.0825113 -0.248929 0)
(0.110811 -0.251362 0)
(0.136963 -0.246257 0)
(0.162622 -0.239706 0)
(0.188497 -0.233772 0)
(0.214873 -0.229098 0)
(0.241833 -0.225794 0)
(0.269359 -0.223763 0)
(0.297388 -0.222833 0)
(0.325849 -0.22281 0)
(0.354669 -0.223507 0)
(0.383791 -0.224746 0)
(0.413163 -0.226365 0)
(0.44275 -0.228209 0)
(0.472522 -0.23013 0)
(0.502456 -0.231979 0)
(0.532532 -0.233598 0)
(0.562728 -0.234813 0)
(0.593015 -0.235428 0)
(0.623354 -0.235214 0)
(0.653686 -0.233907 0)
(0.683929 -0.231195 0)
(0.713966 -0.226717 0)
(0.74364 -0.220061 0)
(0.772744 -0.21076 0)
(0.801017 -0.198302 0)
(0.828155 -0.182132 0)
(0.853815 -0.161657 0)
(0.87764 -0.136243 0)
(0.899274 -0.105215 0)
(0.91838 -0.0678629 0)
(0.934654 -0.0234488 0)
(0.947847 0.0287738 0)
(0.957762 0.0895215 0)
(0.964239 0.159427 0)
(0.96717 0.239005 0)
(0.96646 0.328614 0)
(0.961972 0.428406 0)
(0.95344 0.538256 0)
(0.940225 0.657708 0)
(0.921163 0.78628 0)
(0.891037 0.925805 0)
(0.0189548 -0.139699 0)
(0.0499689 -0.247081 0)
(0.0801792 -0.271469 0)
(0.106428 -0.271672 0)
(0.131155 -0.265842 0)
(0.155883 -0.259348 0)
(0.181168 -0.253806 0)
(0.207183 -0.249629 0)
(0.233937 -0.246819 0)
(0.261357 -0.245233 0)
(0.289347 -0.244683 0)
(0.317808 -0.244977 0)
(0.34665 -0.245934 0)
(0.375803 -0.247387 0)
(0.405208 -0.249184 0)
(0.434823 -0.25118 0)
(0.46462 -0.253234 0)
(0.494578 -0.255201 0)
(0.524683 -0.256924 0)
(0.554921 -0.258228 0)
(0.585277 -0.25891 0)
(0.615727 -0.258733 0)
(0.64623 -0.257415 0)
(0.676727 -0.254624 0)
(0.707124 -0.24997 0)
(0.737285 -0.243002 0)
(0.76702 -0.233216 0)
(0.796082 -0.220059 0)
(0.824173 -0.202945 0)
(0.850964 -0.181262 0)
(0.876115 -0.154376 0)
(0.899303 -0.121625 0)
(0.920244 -0.0823281 0)
(0.938705 -0.0357854 0)
(0.954524 0.0187024 0)
(0.967626 0.0818017 0)
(0.977991 0.154097 0)
(0.985704 0.236054 0)
(0.990957 0.327988 0)
(0.994075 0.430017 0)
(0.995578 0.541999 0)
(0.996286 0.663485 0)
(0.997842 0.793968 0)
(1.00143 0.934364 0)
(0.0198451 -0.16511 0)
(0.0493832 -0.27213 0)
(0.0769788 -0.2924 0)
(0.101064 -0.290788 0)
(0.124317 -0.284667 0)
(0.148059 -0.278554 0)
(0.172687 -0.273626 0)
(0.198269 -0.270097 0)
(0.224739 -0.267885 0)
(0.251977 -0.266813 0)
(0.279852 -0.26669 0)
(0.308241 -0.26733 0)
(0.337039 -0.268564 0)
(0.366159 -0.270239 0)
(0.395536 -0.272217 0)
(0.425125 -0.274365 0)
(0.454893 -0.276552 0)
(0.484824 -0.278641 0)
(0.514908 -0.280477 0)
(0.545141 -0.281888 0)
(0.57552 -0.282667 0)
(0.606035 -0.282568 0)
(0.636669 -0.281298 0)
(0.667384 -0.278503 0)
(0.698112 -0.273765 0)
(0.728743 -0.266596 0)
(0.759105 -0.256443 0)
(0.788962 -0.242709 0)
(0.818016 -0.224775 0)
(0.845937 -0.202014 0)
(0.872394 -0.173799 0)
(0.897091 -0.1395 0)
(0.919788 -0.0984752 0)
(0.940325 -0.0500835 0)
(0.958625 0.00631037 0)
(0.974731 0.0713016 0)
(0.988759 0.145397 0)
(1.00097 0.228965 0)
(1.01179 0.322185 0)
(1.02188 0.424983 0)
(1.03226 0.536921 0)
(1.04443 0.65704 0)
(1.06082 0.783757 0)
(1.08421 0.91509 0)
(0.0206018 -0.190908 0)
(0.0482322 -0.295482 0)
(0.0729326 -0.311559 0)
(0.094797 -0.30864 0)
(0.116553 -0.302683 0)
(0.139274 -0.297271 0)
(0.163196 -0.293174 0)
(0.188283 -0.290444 0)
(0.214402 -0.288933 0)
(0.241389 -0.288448 0)
(0.269081 -0.288801 0)
(0.297331 -0.289818 0)
(0.326017 -0.291347 0)
(0.355041 -0.293255 0)
(0.38433 -0.295419 0)
(0.41383 -0.297721 0)
(0.443511 -0.300043 0)
(0.473356 -0.302257 0)
(0.503359 -0.304218 0)
(0.533526 -0.305753 0)
(0.563863 -0.306657 0)
(0.594377 -0.30668 0)
(0.625071 -0.305517 0)
(0.655933 -0.3028 0)
(0.686926 -0.298081 0)
(0.717971 -0.290829 0)
(0.748918 -0.280438 0)
(0.779536 -0.266256 0)
(0.809518 -0.247624 0)
(0.83852 -0.223905 0)
(0.866208 -0.194488 0)
(0.8923 -0.158788 0)
(0.916599 -0.116228 0)
(0.939009 -0.0662397 0)
(0.95954 -0.00826994 0)
(0.978337 0.0581881 0)
(0.995645 0.133543 0)
(1.01186 0.218034 0)
(1.02757 0.311664 0)
(1.04363 0.414109 0)
(1.06123 0.524577 0)
(1.08203 0.641604 0)
(1.10823 0.762827 0)
(1.14239 0.884883 0)
(0.0212331 -0.216837 0)
(0.0464694 -0.316783 0)
(0.068029 -0.328811 0)
(0.0876728 -0.325187 0)
(0.107948 -0.31986 0)
(0.129643 -0.315463 0)
(0.152832 -0.31241 0)
(0.177385 -0.310623 0)
(0.203104 -0.309913 0)
(0.229783 -0.310086 0)
(0.257231 -0.310962 0)
(0.28528 -0.312388 0)
(0.313793 -0.314234 0)
(0.342659 -0.316386 0)
(0.371795 -0.318741 0)
(0.401145 -0.321199 0)
(0.430675 -0.323658 0)
(0.460367 -0.326002 0)
(0.49022 -0.328093 0)
(0.520244 -0.329768 0)
(0.550456 -0.330822 0)
(0.580877 -0.331006 0)
(0.611527 -0.330009 0)
(0.642424 -0.327452 0)
(0.673568 -0.32286 0)
(0.704922 -0.315657 0)
(0.736362 -0.305168 0)
(0.767659 -0.290671 0)
(0.798486 -0.27146 0)
(0.828467 -0.246883 0)
(0.857247 -0.216363 0)
(0.884547 -0.179378 0)
(0.910204 -0.135438 0)
(0.934187 -0.0840666 0)
(0.956589 -0.0248083 0)
(0.977645 0.0427438 0)
(0.997711 0.118889 0)
(1.01728 0.203734 0)
(1.03702 0.297103 0)
(1.05787 0.398432 0)
(1.08103 0.506637 0)
(1.10802 0.619939 0)
(1.14064 0.735685 0)
(1.18082 0.850316 0)
(0.0217334 -0.242604 0)
(0.0439962 -0.335658 0)
(0.0622377 -0.344065 0)
(0.0797467 -0.340426 0)
(0.0986123 -0.336201 0)
(0.119316 -0.333119 0)
(0.141778 -0.331308 0)
(0.165777 -0.330599 0)
(0.191061 -0.330786 0)
(0.217386 -0.331681 0)
(0.244537 -0.333127 0)
(0.272329 -0.334994 0)
(0.300608 -0.337176 0)
(0.329255 -0.339582 0)
(0.358177 -0.342132 0)
(0.387313 -0.344748 0)
(0.416623 -0.347343 0)
(0.44609 -0.349816 0)
(0.475714 -0.352042 0)
(0.505507 -0.353863 0)
(0.535492 -0.355084 0)
(0.5657 -0.355456 0)
(0.596167 -0.354674 0)
(0.626939 -0.352351 0)
(0.658064 -0.347997 0)
(0.689558 -0.340984 0)
(0.72134 -0.330552 0)
(0.753179 -0.315882 0)
(0.784711 -0.2962 0)
(0.815507 -0.270844 0)
(0.845167 -0.239283 0)
(0.873403 -0.201086 0)
(0.900083 -0.155874 0)
(0.925238 -0.103288 0)
(0.949045 -0.0429774 0)
(0.971819 0.0253559 0)
(0.994014 0.101906 0)
(1.01618 0.18666 0)
(1.03902 0.279285 0)
(1.06344 0.37902 0)
(1.09058 0.484575 0)
(1.12174 0.594016 0)
(1.15828 0.704667 0)
(1.20144 0.813131 0)
(0.0219722 -0.267844 0)
(0.0406479 -0.351739 0)
(0.0555573 -0.357303 0)
(0.0711434 -0.35442 0)
(0.0887404 -0.351754 0)
(0.108529 -0.350261 0)
(0.130293 -0.349865 0)
(0.153735 -0.350352 0)
(0.178557 -0.351518 0)
(0.204488 -0.353195 0)
(0.231292 -0.355252 0)
(0.25877 -0.357588 0)
(0.286759 -0.360124 0)
(0.315125 -0.362793 0)
(0.34377 -0.365541 0)
(0.372624 -0.368312 0)
(0.401644 -0.371039 0)
(0.43081 -0.373635 0)
(0.460119 -0.37599 0)
(0.489583 -0.377955 0)
(0.519224 -0.379343 0)
(0.549076 -0.379915 0)
(0.579184 -0.379372 0)
(0.609617 -0.377342 0)
(0.640481 -0.373332 0)
(0.671872 -0.366663 0)
(0.70377 -0.356458 0)
(0.735948 -0.341765 0)
(0.76798 -0.321713 0)
(0.799355 -0.295626 0)
(0.829603 -0.263038 0)
(0.858412 -0.223647 0)
(0.885679 -0.177222 0)
(0.911506 -0.123536 0)
(0.936153 -0.0623587 0)
(0.960015 0.00650193 0)
(0.983628 0.0831448 0)
(1.00757 0.167473 0)
(1.03254 0.259031 0)
(1.05938 0.356904 0)
(1.08909 0.459671 0)
(1.12276 0.565365 0)
(1.16135 0.67144 0)
(1.20553 0.774824 0)
(0.0215445 -0.292014 0)
(0.0362409 -0.364762 0)
(0.0481138 -0.368663 0)
(0.0621424 -0.367325 0)
(0.0786771 -0.366615 0)
(0.0976545 -0.366931 0)
(0.118759 -0.36809 0)
(0.14164 -0.369867 0)
(0.16597 -0.372079 0)
(0.19146 -0.374586 0)
(0.217863 -0.377291 0)
(0.244969 -0.380121 0)
(0.272604 -0.383026 0)
(0.300627 -0.385966 0)
(0.328929 -0.388912 0)
(0.357432 -0.391833 0)
(0.386089 -0.394682 0)
(0.414874 -0.397391 0)
(0.443779 -0.399858 0)
(0.472809 -0.40195 0)
(0.50198 -0.403487 0)
(0.531318 -0.404239 0)
(0.56086 -0.403927 0)
(0.590688 -0.402214 0)
(0.62097 -0.398638 0)
(0.651922 -0.392473 0)
(0.683624 -0.382691 0)
(0.715856 -0.368136 0)
(0.748107 -0.347802 0)
(0.77974 -0.320992 0)
(0.810189 -0.287338 0)
(0.839103 -0.24671 0)
(0.866417 -0.199069 0)
(0.892317 -0.144352 0)
(0.917154 -0.0824433 0)
(0.941406 -0.01326 0)
(0.965686 0.0632243 0)
(0.990602 0.146876 0)
(1.01679 0.237162 0)
(1.04498 0.333046 0)
(1.07608 0.433028 0)
(1.11097 0.535194 0)
(1.15032 0.637242 0)
(1.19439 0.736521 0)
(0.0197457 -0.31425 0)
(0.0307287 -0.374767 0)
(0.0403153 -0.378514 0)
(0.0532768 -0.379394 0)
(0.0689824 -0.380916 0)
(0.0872435 -0.383183 0)
(0.107706 -0.385987 0)
(0.130001 -0.389121 0)
(0.153791 -0.39243 0)
(0.178779 -0.395808 0)
(0.204711 -0.399191 0)
(0.231372 -0.402539 0)
(0.258584 -0.40583 0)
(0.286195 -0.409046 0)
(0.314082 -0.412187 0)
(0.342161 -0.41525 0)
(0.370378 -0.418209 0)
(0.398702 -0.42101 0)
(0.427114 -0.423565 0)
(0.455606 -0.42575 0)
(0.484182 -0.427392 0)
(0.512848 -0.428269 0)
(0.541605 -0.428125 0)
(0.570516 -0.426692 0)
(0.599817 -0.423599 0)
(0.629892 -0.418106 0)
(0.660982 -0.408968 0)
(0.692886 -0.394734 0)
(0.724974 -0.37419 0)
(0.756441 -0.346617 0)
(0.786587 -0.311784 0)
(0.815021 -0.269807 0)
(0.841733 -0.220897 0)
(0.86702 -0.165175 0)
(0.89133 -0.102633 0)
(0.915233 -0.0333019 0)
(0.93943 0.0427963 0)
(0.964559 0.12557 0)
(0.991156 0.214455 0)
(1.01985 0.308306 0)
(1.05142 0.405556 0)
(1.08663 0.504404 0)
(1.12594 0.602868 0)
(1.16934 0.698717 0)
(0.0158885 -0.333444 0)
(0.0244839 -0.382346 0)
(0.0330284 -0.387478 0)
(0.0454239 -0.390939 0)
(0.0604741 -0.394779 0)
(0.0780465 -0.399043 0)
(0.0978296 -0.403537 0)
(0.119471 -0.408069 0)
(0.142637 -0.412512 0)
(0.167031 -0.416794 0)
(0.1924 -0.420885 0)
(0.218526 -0.424776 0)
(0.245229 -0.428468 0)
(0.272345 -0.431966 0)
(0.299736 -0.435299 0)
(0.327309 -0.438494 0)
(0.355006 -0.441547 0)
(0.382787 -0.444415 0)
(0.410617 -0.447021 0)
(0.438475 -0.449248 0)
(0.466349 -0.450928 0)
(0.494209 -0.451828 0)
(0.521986 -0.451708 0)
(0.549663 -0.450414 0)
(0.577521 -0.447781 0)
(0.60618 -0.443123 0)
(0.636127 -0.434891 0)
(0.6672 -0.421183 0)
(0.698612 -0.400484 0)
(0.729344 -0.372048 0)
(0.758538 -0.335851 0)
(0.785766 -0.292355 0)
(0.811116 -0.242102 0)
(0.835031 -0.185412 0)
(0.858059 -0.122351 0)
(0.880867 -0.0530763 0)
(0.904292 0.0223597 0)
(0.929012 0.104028 0)
(0.955432 0.191402 0)
(0.984049 0.283214 0)
(1.01556 0.377819 0)
(1.05063 0.473544 0)
(1.08951 0.568772 0)
(1.13205 0.661587 0)
(0.00995752 -0.348513 0)
(0.0186611 -0.388847 0)
(0.0277085 -0.396328 0)
(0.0398434 -0.402202 0)
(0.0542269 -0.408211 0)
(0.0710033 -0.414428 0)
(0.0899796 -0.420622 0)
(0.110838 -0.426581 0)
(0.13325 -0.432192 0)
(0.156923 -0.437413 0)
(0.181603 -0.442245 0)
(0.207075 -0.44671 0)
(0.23316 -0.450831 0)
(0.259681 -0.454619 0)
(0.286478 -0.458139 0)
(0.313451 -0.461455 0)
(0.340538 -0.464584 0)
(0.36769 -0.467491 0)
(0.394854 -0.470103 0)
(0.421992 -0.472314 0)
(0.449081 -0.473951 0)
(0.476057 -0.474744 0)
(0.502737 -0.474429 0)
(0.528928 -0.473009 0)
(0.554894 -0.470707 0)
(0.581541 -0.467027 0)
(0.6097 -0.459986 0)
(0.639274 -0.447016 0)
(0.669293 -0.426188 0)
(0.698502 -0.396754 0)
(0.725878 -0.358979 0)
(0.750994 -0.313818 0)
(0.7741 -0.262231 0)
(0.795834 -0.204738 0)
(0.81684 -0.141405 0)
(0.837889 -0.072544 0)
(0.859995 0.00178667 0)
(0.883906 0.0819238 0)
(0.909914 0.167503 0)
(0.938397 0.257174 0)
(0.969912 0.349263 0)
(1.00493 0.442231 0)
(1.04341 0.534755 0)
(1.08517 0.624987 0)
(1.12981 0.711758 0)
(0.00299684 -0.358687 0)
(0.015482 -0.396514 0)
(0.0264148 -0.405726 0)
(0.0381167 -0.413124 0)
(0.05149 -0.421008 0)
(0.0671762 -0.42915 0)
(0.0851148 -0.437087 0)
(0.104997 -0.44452 0)
(0.126481 -0.451339 0)
(0.149267 -0.457535 0)
(0.173097 -0.463141 0)
(0.19776 -0.468215 0)
(0.223088 -0.472802 0)
(0.248887 -0.476893 0)
(0.274966 -0.480603 0)
(0.30122 -0.484043 0)
(0.327591 -0.487251 0)
(0.354019 -0.49019 0)
(0.380429 -0.492791 0)
(0.406762 -0.494965 0)
(0.432999 -0.496542 0)
(0.459062 -0.497165 0)
(0.48463 -0.496472 0)
(0.509267 -0.494616 0)
(0.533124 -0.492387 0)
(0.557318 -0.489665 0)
(0.582989 -0.483943 0)
(0.610132 -0.471798 0)
(0.637649 -0.450792 0)
(0.664128 -0.420211 0)
(0.688477 -0.3807 0)
(0.710359 -0.333761 0)
(0.730264 -0.280786 0)
(0.748988 -0.222522 0)
(0.767332 -0.158903 0)
(0.786233 -0.0905384 0)
(0.806691 -0.0177465 0)
(0.829529 0.0604871 0)
(0.855408 0.143735 0)
(0.884716 0.230521 0)
(0.91758 0.319203 0)
(0.953588 0.408759 0)
(0.99204 0.49914 0)
(1.03329 0.587642 0)
(1.07699 0.673054 0)
(-0.00300391 -0.365413 0)
(0.0183233 -0.40837 0)
(0.0315933 -0.415764 0)
(0.0417599 -0.423203 0)
(0.0533081 -0.432923 0)
(0.067461 -0.443233 0)
(0.0841065 -0.45311 0)
(0.102827 -0.46213 0)
(0.123211 -0.470218 0)
(0.144933 -0.477426 0)
(0.167728 -0.483833 0)
(0.19139 -0.48955 0)
(0.215775 -0.494651 0)
(0.240676 -0.499069 0)
(0.265867 -0.502993 0)
(0.291244 -0.506596 0)
(0.316756 -0.509933 0)
(0.34233 -0.512954 0)
(0.367863 -0.515589 0)
(0.393273 -0.517774 0)
(0.418537 -0.519346 0)
(0.443591 -0.519817 0)
(0.468065 -0.518585 0)
(0.49145 -0.515775 0)
(0.51384 -0.512867 0)
(0.535891 -0.510577 0)
(0.55845 -0.505831 0)
(0.581693 -0.494296 0)
(0.604824 -0.472816 0)
(0.626631 -0.44073 0)
(0.646317 -0.398943 0)
(0.663844 -0.349738 0)
(0.679902 -0.294992 0)
(0.694987 -0.235503 0)
(0.710313 -0.170868 0)
(0.727692 -0.10278 0)
(0.746527 -0.0313174 0)
(0.768108 0.0450443 0)
(0.794802 0.125874 0)
(0.827081 0.209523 0)
(0.863716 0.294634 0)
(0.901813 0.380402 0)
(0.941776 0.465725 0)
(0.984076 0.549616 0)
(1.02673 0.633085 0)
(-0.00219188 -0.374775 0)
(0.0321432 -0.42611 0)
(0.0451509 -0.42529 0)
(0.0510508 -0.431802 0)
(0.0596211 -0.443803 0)
(0.0719768 -0.456589 0)
(0.0873049 -0.468554 0)
(0.104854 -0.479247 0)
(0.124084 -0.488686 0)
(0.144635 -0.496995 0)
(0.166234 -0.504291 0)
(0.188702 -0.510733 0)
(0.211897 -0.51646 0)
(0.235641 -0.52124 0)
(0.259714 -0.525392 0)
(0.284011 -0.529142 0)
(0.308469 -0.53255 0)
(0.332997 -0.535525 0)
(0.357478 -0.537968 0)
(0.381808 -0.539824 0)
(0.405923 -0.54097 0)
(0.429684 -0.540781 0)
(0.452782 -0.538354 0)
(0.475428 -0.533866 0)
(0.498278 -0.529761 0)
(0.520077 -0.527444 0)
(0.539243 -0.522943 0)
(0.556529 -0.511042 0)
(0.572492 -0.48842 0)
(0.586925 -0.454322 0)
(0.600236 -0.409802 0)
(0.613237 -0.358274 0)
(0.62593 -0.301741 0)
(0.63753 -0.241023 0)
(0.650041 -0.1746 0)
(0.667408 -0.105911 0)
(0.68307 -0.035064 0)
(0.70253 0.0394588 0)
(0.729956 0.116673 0)
(0.76613 0.195261 0)
(0.809074 0.275568 0)
(0.854109 0.358701 0)
(0.901864 0.441284 0)
(0.94586 0.52218 0)
(0.987062 0.600478 0)
(0.026056 -0.390952 0)
(0.0641962 -0.448271 0)
(0.0661889 -0.432079 0)
(0.063971 -0.437671 0)
(0.0690083 -0.452476 0)
(0.0798964 -0.467668 0)
(0.0942243 -0.481471 0)
(0.110791 -0.493587 0)
(0.128959 -0.504194 0)
(0.148345 -0.513493 0)
(0.168678 -0.52161 0)
(0.189865 -0.528738 0)
(0.211602 -0.535068 0)
(0.23385 -0.540146 0)
(0.256585 -0.544438 0)
(0.279617 -0.548184 0)
(0.302813 -0.551429 0)
(0.326024 -0.554035 0)
(0.34915 -0.555881 0)
(0.37216 -0.556916 0)
(0.394989 -0.557043 0)
(0.417274 -0.555709 0)
(0.439076 -0.552114 0)
(0.462011 -0.546637 0)
(0.488164 -0.541258 0)
(0.511999 -0.537837 0)
(0.526499 -0.532492 0)
(0.535727 -0.519514 0)
(0.542882 -0.495559 0)
(0.5488 -0.460082 0)
(0.556619 -0.413693 0)
(0.566999 -0.362374 0)
(0.577847 -0.308398 0)
(0.588816 -0.252839 0)
(0.651095 -0.220512 0)
(0.686954 -0.154152 0)
(0.715647 -0.0821021 0)
(0.71696 -0.00883513 0)
(0.70975 0.0649565 0)
(0.718055 0.146474 0)
(0.746299 0.236982 0)
(0.789499 0.329958 0)
(0.853091 0.41828 0)
(0.910007 0.500141 0)
(0.961123 0.57717 0)
(0.121242 -0.433674 0)
(0.124037 -0.477386 0)
(0.0908973 -0.426722 0)
(0.0810706 -0.433655 0)
(0.0829662 -0.454099 0)
(0.0923121 -0.472366 0)
(0.105138 -0.48829 0)
(0.120283 -0.501989 0)
(0.137125 -0.513848 0)
(0.155211 -0.524159 0)
(0.174229 -0.533068 0)
(0.194215 -0.540793 0)
(0.21439 -0.547647 0)
(0.235058 -0.552989 0)
(0.256601 -0.55744 0)
(0.278621 -0.561193 0)
(0.300871 -0.564271 0)
(0.323157 -0.566496 0)
(0.34547 -0.567702 0)
(0.367758 -0.567668 0)
(0.390653 -0.566011 0)
(0.413882 -0.563086 0)
(0.435518 -0.560092 0)
(0.459124 -0.55909 0)
(0.48663 -0.559816 0)
(0.508814 -0.550886 0)
(0.518648 -0.538207 0)
(0.519692 -0.522487 0)
(0.518529 -0.498624 0)
(0.518914 -0.46718 0)
(0.581041 -0.447783 0)
(0.619928 -0.400268 0)
(0.658948 -0.348229 0)
(0.690702 -0.310908 0)
(0.718628 -0.248946 0)
(0.740116 -0.168339 0)
(0.764717 -0.0819779 0)
(0.785396 -0.00175756 0)
(0.801253 0.0587833 0)
(0.812738 0.104669 0)
(0.821932 0.154398 0)
(0.83441 0.217087 0)
(0.850814 0.307281 0)
(0.86125 0.445527 0)
(0.925369 0.547298 0)
(0.370596 -0.567759 0)
(0.124933 -0.455758 0)
(0.0835378 -0.40323 0)
(0.0904055 -0.429338 0)
(0.0961656 -0.460616 0)
(0.106973 -0.483427 0)
(0.119061 -0.500478 0)
(0.132492 -0.514071 0)
(0.147588 -0.525416 0)
(0.164142 -0.535131 0)
(0.181873 -0.543576 0)
(0.200855 -0.550962 0)
(0.21996 -0.557386 0)
(0.239696 -0.563228 0)
(0.260669 -0.568447 0)
(0.282292 -0.573169 0)
(0.30424 -0.577478 0)
(0.326387 -0.581675 0)
(0.34901 -0.58625 0)
(0.372389 -0.592895 0)
(0.402381 -0.609356 0)
(0.438785 -0.61974 0)
(0.475172 -0.623286 0)
(0.508618 -0.626012 0)
(0.536108 -0.618156 0)
(0.558142 -0.592802 0)
(0.576471 -0.560997 0)
(0.59383 -0.533968 0)
(0.61381 -0.513466 0)
(0.632062 -0.511185 0)
(0.654448 -0.479789 0)
(0.677824 -0.428212 0)
(0.708243 -0.372426 0)
(0.73713 -0.321434 0)
(0.75945 -0.262107 0)
(0.778928 -0.186355 0)
(0.803179 -0.101475 0)
(0.830586 -0.0168419 0)
(0.856904 0.0593382 0)
(0.877916 0.126062 0)
(0.891921 0.189354 0)
(0.900226 0.251345 0)
(0.906698 0.309753 0)
(0.909298 0.369484 0)
(0.939927 0.43172 0)
(0.0692117 -0.839768 0)
(0.00706152 -0.304158 0)
(0.0470805 -0.328223 0)
(0.0750732 -0.432339 0)
(0.0978804 -0.482608 0)
(0.12251 -0.511719 0)
(0.146035 -0.534047 0)
(0.167847 -0.552835 0)
(0.188473 -0.568767 0)
(0.208551 -0.582235 0)
(0.228488 -0.593704 0)
(0.24867 -0.602928 0)
(0.269462 -0.610742 0)
(0.291252 -0.618538 0)
(0.31419 -0.625677 0)
(0.338358 -0.631377 0)
(0.363847 -0.635853 0)
(0.390506 -0.639532 0)
(0.418356 -0.642919 0)
(0.446772 -0.645588 0)
(0.474417 -0.644077 0)
(0.50053 -0.639942 0)
(0.526748 -0.634956 0)
(0.551636 -0.628161 0)
(0.573919 -0.615723 0)
(0.594466 -0.594799 0)
(0.615256 -0.570917 0)
(0.637032 -0.549547 0)
(0.659688 -0.531478 0)
(0.679266 -0.517877 0)
(0.694832 -0.491894 0)
(0.710652 -0.448269 0)
(0.731648 -0.395637 0)
(0.753677 -0.34028 0)
(0.773155 -0.278921 0)
(0.792816 -0.206739 0)
(0.817353 -0.126746 0)
(0.847044 -0.0445439 0)
(0.878966 0.0346114 0)
(0.908793 0.109467 0)
(0.933677 0.182743 0)
(0.953152 0.256439 0)
(0.96764 0.33088 0)
(0.977779 0.399965 0)
(0.985322 0.454402 0)
(-0.159241 -0.724147 0)
(-0.0653797 -0.396418 0)
(0.0205894 -0.417814 0)
(0.0816037 -0.471844 0)
(0.11965 -0.50574 0)
(0.150446 -0.526954 0)
(0.177752 -0.543347 0)
(0.202414 -0.557615 0)
(0.225227 -0.570442 0)
(0.246973 -0.582023 0)
(0.268268 -0.59246 0)
(0.289665 -0.601721 0)
(0.311647 -0.610207 0)
(0.33443 -0.618351 0)
(0.358041 -0.625827 0)
(0.382598 -0.632251 0)
(0.408201 -0.637664 0)
(0.434735 -0.642323 0)
(0.461996 -0.646677 0)
(0.4892 -0.650753 0)
(0.514919 -0.654195 0)
(0.538552 -0.655011 0)
(0.560429 -0.652153 0)
(0.58083 -0.644929 0)
(0.59966 -0.631363 0)
(0.618314 -0.611848 0)
(0.638116 -0.590101 0)
(0.658591 -0.569632 0)
(0.678191 -0.550444 0)
(0.69418 -0.530593 0)
(0.705928 -0.502885 0)
(0.716971 -0.462518 0)
(0.73083 -0.412734 0)
(0.746607 -0.357182 0)
(0.763133 -0.295707 0)
(0.782096 -0.22681 0)
(0.806258 -0.151901 0)
(0.836551 -0.0743307 0)
(0.8714 0.00282284 0)
(0.90783 0.0786684 0)
(0.943367 0.154674 0)
(0.976452 0.232951 0)