/*--------------------------------*- C++ -*----------------------------------*\
  =========                 |
  \\      /  F ield         | OpenFOAM: The Open Source CFD Toolbox
   \\    /   O peration     | Website:  https://openfoam.org
    \\  /    A nd           | Version:  9
     \\/     M anipulation  |
\*---------------------------------------------------------------------------*/
FoamFile
{
    format      ascii;
    class       volScalarField;
    location    "180";
    object      nut;
}
// * * * * * * * * * * * * * * * * * * * * * * * * * * * * * * * * * * * * * //

dimensions      [0 2 -1 0 0 0 0];

internalField   nonuniform List<scalar> 
10720
(
0.0716214
0.0740889
0.0759432
0.0769509
0.0772604
0.0761132
0.0728908
0.0667689
0.0565714
0.0416253
0.0229442
0.0127824
0.0168698
0.0209468
0.0220518
0.0213473
0.0200951
0.0185155
0.0176574
0.0178499
0.0203262
0.0243717
0.028905
0.033184
0.0371534
0.0410902
0.045127
0.0488354
0.0523096
0.0556296
0.0588395
0.0618796
0.0645114
0.0663045
0.0663792
0.0634961
0.0567056
0.0454103
0.0466772
0.0692099
0.0666554
0.0639086
0.0607791
0.0573977
0.0537051
0.0496897
0.0453869
0.0408847
0.0362725
0.0315614
0.0267883
0.0218993
0.0168021
0.0120812
0.0109474
0.0101837
0.0116224
0.0142971
0.0165401
0.018466
0.0202994
0.0221585
0.0240706
0.0260001
0.0278919
0.0297148
0.0314507
0.033088
0.0346164
0.036037
0.0373527
0.0385728
0.0397453
0.0409275
0.0421267
0.0434265
0.0446884
0.0474112
0.0664032
0.0655146
0.0651489
0.0654012
0.0677723
0.0717378
0.076639
0.081633
0.0855325
0.086686
0.0835664
0.0781141
0.0808118
0.0879831
0.0771477
0.0620192
0.0568589
0.0529047
0.054642
0.0536493
0.0546319
0.056584
0.0580378
0.0580545
0.0569348
0.0561297
0.0589584
0.0611362
0.0626786
0.0636273
0.0641448
0.0646221
0.0650513
0.0658827
0.0678237
0.0701964
0.0713149
0.0744977
0.101849
0.0671581
0.0675591
0.0681104
0.0681457
0.0678633
0.06719
0.0659698
0.064154
0.0618431
0.0592277
0.0563223
0.0532844
0.0502871
0.0474115
0.0446669
0.0419642
0.0393518
0.0368677
0.0346141
0.0326039
0.0308117
0.0292235
0.0278135
0.0265166
0.0253085
0.0242253
0.0232819
0.0224907
0.0218549
0.0213728
0.0210376
0.0208398
0.0207608
0.0210755
0.0219536
0.0231565
0.0245956
0.0256958
0.0267256
0.0951442
0.0940392
0.0923576
0.0899099
0.087837
0.0857513
0.0842312
0.0821183
0.083312
0.0873715
0.0931525
0.099045
0.107543
0.12385
0.137616
0.140376
0.121935
0.092592
0.0785075
0.0754895
0.0782771
0.0853795
0.0941176
0.103024
0.111518
0.119789
0.127395
0.133275
0.137564
0.140292
0.141423
0.141034
0.139628
0.138566
0.140212
0.144
0.145813
0.149164
0.193594
0.0960826
0.0966068
0.0972427
0.0974223
0.097292
0.09678
0.0957545
0.0941472
0.0920174
0.0894786
0.0865328
0.0833008
0.0799187
0.0764764
0.073049
0.0697201
0.0664535
0.0633325
0.0604202
0.0576908
0.0551263
0.0527066
0.0504123
0.0481511
0.0458772
0.0436299
0.0414297
0.0392972
0.037247
0.0352916
0.0334427
0.0317139
0.0301111
0.0286712
0.027349
0.0269205
0.0273666
0.028756
0.0249975
0.111279
0.110457
0.109196
0.107459
0.10524
0.102239
0.0995556
0.096415
0.0931342
0.0907524
0.091071
0.0958513
0.105758
0.124811
0.154479
0.183533
0.18688
0.165089
0.133035
0.122808
0.131458
0.148703
0.165576
0.181135
0.194541
0.205631
0.214229
0.219965
0.222941
0.223514
0.222325
0.220212
0.218175
0.217327
0.218621
0.221054
0.222544
0.229105
0.291026
0.111934
0.112332
0.112738
0.112879
0.112785
0.112434
0.111736
0.110635
0.109148
0.107306
0.1051
0.102587
0.0998381
0.0969132
0.0938739
0.0907997
0.0876911
0.0846081
0.0816123
0.0787093
0.0759058
0.0731947
0.0705601
0.0679118
0.0651902
0.0624457
0.0597056
0.0569927
0.0543271
0.0517249
0.049202
0.0467745
0.0444556
0.0422684
0.0402148
0.0384047
0.036694
0.0365644
0.0303987
0.120429
0.119834
0.118926
0.117692
0.11615
0.114089
0.111492
0.108249
0.105121
0.101564
0.0979604
0.0948484
0.0979456
0.110528
0.138995
0.184298
0.223108
0.225206
0.203226
0.189764
0.196053
0.213409
0.233231
0.252365
0.269328
0.283596
0.294653
0.30193
0.305452
0.305858
0.30435
0.302253
0.300488
0.299288
0.298847
0.299083
0.300473
0.313128
0.389765
0.120874
0.121153
0.121418
0.121524
0.121467
0.121239
0.120783
0.120062
0.119077
0.117835
0.116324
0.11456
0.112576
0.110396
0.108058
0.105612
0.103066
0.100451
0.097816
0.0951772
0.0925538
0.0899478
0.0873516
0.0846871
0.0818977
0.0790249
0.0760963
0.07314
0.0701818
0.0672448
0.0643475
0.0615116
0.0587562
0.0561097
0.0535897
0.0512819
0.048951
0.0482474
0.0417416
0.126144
0.125747
0.125116
0.124253
0.123172
0.121745
0.119907
0.117518
0.114555
0.111351
0.107733
0.103164
0.0994443
0.101186
0.116635
0.15613
0.216163
0.260625
0.260771
0.2495
0.253393
0.271106
0.29387
0.316977
0.338272
0.356767
0.371548
0.381755
0.387286
0.388932
0.38827
0.386945
0.385669
0.383785
0.380838
0.377859
0.378931
0.399504
0.487008
0.12642
0.126585
0.126731
0.126779
0.126714
0.126535
0.126209
0.125712
0.125042
0.124201
0.123175
0.121969
0.120594
0.119058
0.117381
0.115587
0.113673
0.111649
0.109546
0.107378
0.105161
0.1029
0.100591
0.0981702
0.095586
0.0928695
0.0900449
0.0871374
0.0841696
0.0811642
0.0781454
0.0751398
0.0721719
0.0692767
0.0664833
0.063883
0.0612369
0.0601628
0.0538524
0.12986
0.129587
0.129132
0.128507
0.127721
0.1267
0.125411
0.123784
0.12166
0.118946
0.115559
0.111963
0.107447
0.103121
0.104866
0.125628
0.179132
0.252862
0.298375
0.301591
0.305433
0.32349
0.349292
0.376788
0.402968
0.426371
0.445737
0.459909
0.468582
0.472532
0.473539
0.473518
0.47311
0.470862
0.465375
0.458425
0.458524
0.486201
0.58119
0.130031
0.130121
0.130188
0.130191
0.130108
0.129946
0.129688
0.12932
0.128841
0.128249
0.127535
0.1267
0.125747
0.124677
0.123506
0.122234
0.120852
0.11936
0.117774
0.116099
0.114347
0.112518
0.110605
0.108558
0.106332
0.103946
0.101415
0.098759
0.0959946
0.0931418
0.0902233
0.0872669
0.0842997
0.081359
0.0784747
0.0757453
0.0729588
0.0716109
0.0656515
0.132439
0.132256
0.13193
0.131481
0.130912
0.130161
0.129216
0.128042
0.126544
0.124616
0.122039
0.118802
0.115285
0.110673
0.105944
0.109364
0.139602
0.210806
0.295603
0.340407
0.352538
0.371704
0.400387
0.432405
0.463787
0.492562
0.517163
0.53615
0.54894
0.556151
0.559593
0.561389
0.562262
0.56024
0.552844
0.541699
0.539283
0.570872
0.671031
0.132535
0.13257
0.132581
0.132545
0.132442
0.132281
0.132055
0.131761
0.131398
0.130964
0.130451
0.129858
0.129187
0.128438
0.127621
0.126726
0.12574
0.124662
0.123497
0.122244
0.12091
0.11949
0.117977
0.116329
0.114507
0.112519
0.110373
0.108079
0.105647
0.103091
0.100427
0.0976817
0.0948799
0.0920577
0.0892467
0.0865455
0.0837667
0.0822783
0.0767396
0.134288
0.134167
0.133932
0.133606
0.133191
0.132636
0.131941
0.131081
0.129991
0.128614
0.126814
0.124372
0.121291
0.11781
0.11291
0.108062
0.116048
0.161612
0.253373
0.345657
0.391075
0.415724
0.447473
0.483984
0.520734
0.555202
0.585541
0.610051
0.627842
0.639249
0.645939
0.650065
0.652422
0.650827
0.642192
0.627273
0.619479
0.650973
0.754993
0.134334
0.134333
0.134305
0.134241
0.13412
0.133953
0.133741
0.133489
0.1332
0.132868
0.132489
0.132058
0.131579
0.13105
0.130477
0.129844
0.12914
0.128362
0.127511
0.126586
0.125587
0.124509
0.123342
0.122053
0.120608
0.119011
0.11726
0.115358
0.113309
0.111119
0.108798
0.106365
0.10384
0.101257
0.0986428
0.096093
0.0934426
0.0919185
0.0868684
0.135657
0.135585
0.135425
0.135199
0.134904
0.134495
0.133979
0.13334
0.132533
0.131519
0.130228
0.128507
0.126173
0.123203
0.119624
0.114218
0.110117
0.127423
0.195399
0.308404
0.404547
0.453462
0.49037
0.531496
0.573699
0.614071
0.650519
0.681136
0.704723
0.721265
0.7321
0.739134
0.74292
0.741016
0.730475
0.712234
0.696737
0.723677
0.83099
0.135666
0.135639
0.135586
0.135504
0.135368
0.135194
0.134986
0.134758
0.134515
0.134254
0.133965
0.133648
0.133302
0.132929
0.132525
0.132072
0.131566
0.131003
0.130382
0.129699
0.128955
0.128142
0.127252
0.126258
0.125133
0.123875
0.12248
0.120947
0.119273
0.117457
0.115506
0.113429
0.111241
0.108967
0.106633
0.104321
0.101891
0.100417
0.095899
0.136697
0.13667
0.136574
0.136428
0.136222
0.135921
0.135531
0.135048
0.134444
0.133691
0.13274
0.131504
0.129845
0.12758
0.124646
0.120774
0.114661
0.114053
0.1477
0.244557
0.376468
0.473651
0.527807
0.574668
0.622496
0.66892
0.711735
0.74891
0.778996
0.801595
0.817577
0.828275
0.833457
0.829757
0.814332
0.790598
0.768599
0.785877
0.896177
0.136674
0.136629
0.13656
0.136465
0.13632
0.136139
0.135931
0.135715
0.135504
0.135292
0.135069
0.134832
0.134584
0.13432
0.134033
0.133708
0.133342
0.132933
0.132478
0.131975
0.13142
0.130808
0.130132
0.12937
0.128499
0.127519
0.126423
0.125206
0.123864
0.122394
0.120795
0.119072
0.117233
0.115297
0.113281
0.111259
0.109106
0.107751
0.103778
0.137508
0.137524
0.137479
0.137388
0.137238
0.137005
0.136698
0.136324
0.135864
0.135302
0.134599
0.133698
0.132516
0.130902
0.128667
0.125705
0.121207
0.114978
0.122436
0.181738
0.311656
0.457006
0.552979
0.612536
0.666774
0.719458
0.768827
0.812887
0.850053
0.879588
0.901803
0.917196
0.92417
0.917365
0.89278
0.857208
0.828407
0.834343
0.946881
0.137454
0.137391
0.137311
0.137211
0.13706
0.136874
0.136664
0.136454
0.136264
0.136088
0.135913
0.135737
0.135561
0.135375
0.13517
0.134936
0.134672
0.134374
0.134041
0.133669
0.133256
0.132797
0.132283
0.131699
0.131028
0.130267
0.12941
0.128454
0.127391
0.126218
0.124931
0.123531
0.122021
0.120414
0.118722
0.117006
0.115158
0.113964
0.110533
0.138155
0.138204
0.138189
0.138122
0.137996
0.137802
0.13755
0.13725
0.136893
0.136467
0.135947
0.135291
0.134445
0.13331
0.131714
0.129483
0.126444
0.120995
0.116311
0.139649
0.234624
0.396899
0.54799
0.641233
0.705699
0.765275
0.82141
0.872587
0.917281
0.954532
0.984106
1.00552
1.01539
1.00532
0.96807
0.911934
0.865995
0.865793
0.978662
0.13807
0.137988
0.137898
0.137797
0.137643
0.137454
0.137241
0.137034
0.136858
0.136711
0.136572
0.136444
0.13632
0.136189
0.136043
0.135876
0.135686
0.135471
0.135228
0.134954
0.134647
0.134303
0.133914
0.133467
0.13295
0.132361
0.131694
0.130946
0.130111
0.129183
0.12816
0.127039
0.125822
0.124516
0.123129
0.121709
0.120169
0.119155
0.11626
0.138676
0.13874
0.13873
0.138662
0.138543
0.138371
0.138158
0.137911
0.137626
0.137298
0.136909
0.13643
0.135824
0.135026
0.133905
0.132315
0.130104
0.12663
0.120236
0.121819
0.171802
0.309606
0.497508
0.646409
0.736788
0.805598
0.86901
0.92752
0.980056
1.02566
1.06368
1.09267
1.10732
1.0955
1.04454
0.96022
0.883027
0.874415
0.98659
0.138566
0.138465
0.138361
0.138262
0.138108
0.137917
0.137702
0.137495
0.13733
0.137205
0.137097
0.137005
0.136919
0.136828
0.136725
0.136607
0.136472
0.136317
0.136142
0.135942
0.135716
0.135459
0.135166
0.134826
0.134429
0.133974
0.133458
0.132876
0.132223
0.131497
0.130692
0.129807
0.12884
0.127797
0.126683
0.125537
0.124291
0.123453
0.121129
0.139091
0.139152
0.139126
0.139047
0.13893
0.138774
0.138592
0.138386
0.138155
0.137896
0.1376
0.137245
0.136804
0.136235
0.135453
0.134331
0.132802
0.130531
0.126138
0.120221
0.135864
0.224433
0.406323
0.60828
0.749664
0.838523
0.910866
0.977117
1.03774
1.09217
1.13958
1.17774
1.19963
1.18933
1.12706
1.01116
0.887799
0.847818
0.96583
0.138968
0.138852
0.13873
0.138634
0.138483
0.138291
0.138073
0.137865
0.137709
0.137602
0.137519
0.137455
0.137397
0.137334
0.137264
0.137182
0.137088
0.13698
0.136856
0.136712
0.136548
0.136359
0.13614
0.135883
0.135581
0.135232
0.134834
0.134385
0.133882
0.133319
0.132694
0.132004
0.131248
0.130431
0.129556
0.128656
0.127684
0.127005
0.125317
0.139415
0.139455
0.139407
0.139318
0.139205
0.139066
0.13891
0.138735
0.138545
0.138339
0.13811
0.137841
0.13751
0.137093
0.136549
0.135775
0.134725
0.133282
0.130721
0.12513
0.123606
0.16425
0.300823
0.519817
0.723863
0.856725
0.945359
1.02058
1.08961
1.15318
1.2107
1.25951
1.29132
1.28691
1.21901
1.07425
0.895311
0.797744
0.91212
0.139292
0.139168
0.139028
0.138933
0.138786
0.138594
0.138374
0.138165
0.138017
0.137926
0.137864
0.137821
0.137782
0.137741
0.137694
0.13764
0.137577
0.137503
0.137418
0.137318
0.137201
0.137065
0.136905
0.136713
0.136486
0.136222
0.13592
0.135579
0.135197
0.134769
0.134292
0.133765
0.133187
0.132563
0.131896
0.131215
0.130494
0.129965
0.12891
0.13966
0.13967
0.139604
0.139511
0.139404
0.139281
0.139148
0.139001
0.138842
0.138676
0.138496
0.138286
0.138032
0.137722
0.137345
0.136839
0.136131
0.13524
0.133748
0.130367
0.12451
0.134411
0.212276
0.399209
0.643076
0.841511
0.967171
1.05643
1.13476
1.20773
1.27582
1.33643
1.38061
1.3867
1.32053
1.15515
0.922039
0.743972
0.823554
0.139545
0.139425
0.139269
0.139174
0.139033
0.138841
0.138619
0.138408
0.138269
0.138192
0.138146
0.138118
0.138094
0.138069
0.13804
0.138007
0.137967
0.13792
0.137864
0.137798
0.137719
0.137624
0.13751
0.137371
0.137203
0.137008
0.136785
0.136534
0.136252
0.135935
0.135582
0.135192
0.134766
0.134309
0.133825
0.133342
0.132847
0.132469
0.131942
0.139834
0.139817
0.139741
0.139649
0.139551
0.139443
0.13933
0.139206
0.139072
0.138937
0.138793
0.138625
0.138426
0.1382
0.13795
0.137645
0.137212
0.136648
0.135856
0.134007
0.129468
0.126471
0.157561
0.281634
0.514135
0.771064
0.960249
1.08053
1.17173
1.2547
1.3336
1.40669
1.46508
1.48569
1.42832
1.25236
0.97665
0.711463
0.699522
0.139733
0.139623
0.139465
0.139369
0.139234
0.139043
0.13882
0.138607
0.138477
0.138412
0.138379
0.138362
0.138349
0.138335
0.138321
0.138302
0.138281
0.138254
0.138221
0.13818
0.138131
0.138069
0.137992
0.137895
0.137777
0.137639
0.137482
0.137305
0.137106
0.136884
0.136635
0.136363
0.136068
0.135758
0.135437
0.135133
0.134835
0.134603
0.134447
0.139945
0.139916
0.139839
0.13975
0.139662
0.139568
0.13947
0.139365
0.139252
0.13914
0.139022
0.138884
0.13873
0.138578
0.138433
0.138276
0.138054
0.137729
0.137293
0.136402
0.133871
0.128726
0.134259
0.196335
0.370432
0.640499
0.900647
1.07942
1.19697
1.29246
1.38249
1.46829
1.54189
1.57991
1.53699
1.3585
1.05376
0.718221
0.574597
0.139862
0.139766
0.139622
0.139527
0.1394
0.13921
0.138984
0.138769
0.138649
0.138594
0.138571
0.138562
0.138557
0.138553
0.138548
0.138541
0.138533
0.138521
0.138507
0.138487
0.13846
0.138425
0.138378
0.138316
0.138238
0.138148
0.138047
0.137933
0.137806
0.137662
0.137504
0.137333
0.137153
0.136972
0.136794
0.136644
0.136502
0.136391
0.136432
0.140015
0.139983
0.139908
0.139825
0.139746
0.139664
0.139579
0.139489
0.139392
0.1393
0.1392
0.139086
0.138974
0.138889
0.138835
0.138789
0.138712
0.138561
0.138317
0.1379
0.136707
0.133193
0.129844
0.15086
0.251571
0.476114
0.773569
1.02925
1.19907
1.31762
1.42048
1.51899
1.60791
1.66487
1.64056
1.46479
1.13921
0.758194
0.491367
0.139946
0.139866
0.139745
0.139654
0.139534
0.139348
0.139119
0.138901
0.138793
0.138746
0.13873
0.138727
0.138728
0.13873
0.138733
0.138735
0.138736
0.138737
0.138735
0.138732
0.138724
0.13871
0.138687
0.138654
0.138611
0.138563
0.138509
0.138449
0.138382
0.138306
0.138225
0.138141
0.138059
0.137985
0.13792
0.137882
0.13784
0.137816
0.137904
0.140058
0.140031
0.139958
0.13988
0.13981
0.139737
0.139663
0.139585
0.139504
0.139426
0.139341
0.139246
0.139173
0.139149
0.139164
0.139185
0.13919
0.139154
0.139049
0.138852
0.138398
0.136626
0.132606
0.134801
0.177984
0.323568
0.594893
0.90816
1.15544
1.3201
1.44385
1.55603
1.65972
1.73563
1.73289
1.56362
1.21994
0.808564
0.471347
0.140001
0.139934
0.139834
0.139752
0.139642
0.139461
0.13923
0.13901
0.138913
0.138872
0.138861
0.138862
0.138867
0.138874
0.138883
0.138891
0.1389
0.138909
0.138918
0.138927
0.138935
0.138938
0.138936
0.138927
0.138915
0.138902
0.13889
0.138875
0.138857
0.138837
0.138819
0.138804
0.138794
0.138792
0.138792
0.138811
0.138816
0.138846
0.138915
0.140084
0.140064
0.139992
0.139921
0.139859
0.139793
0.139727
0.13966
0.139591
0.139525
0.139451
0.139374
0.139335
0.139359
0.139412
0.139471
0.139524
0.139557
0.139551
0.139483
0.139335
0.138694
0.136265
0.133348
0.14501
0.217167
0.41101
0.7207
1.03998
1.27891
1.44321
1.5749
1.69326
1.7868
1.80709
1.64776
1.28792
0.850329
0.490107
0.140036
0.13998
0.139898
0.139826
0.139726
0.139554
0.139321
0.1391
0.139013
0.138977
0.138969
0.138973
0.138981
0.138991
0.139004
0.139016
0.139031
0.139046
0.139064
0.139083
0.139102
0.13912
0.139135
0.139148
0.139162
0.139181
0.139202
0.139223
0.139244
0.139265
0.139289
0.139314
0.139341
0.13937
0.139398
0.139438
0.139462
0.139518
0.139567
0.140098
0.140085
0.140014
0.13995
0.139894
0.139835
0.139776
0.139717
0.139659
0.139602
0.139537
0.139476
0.13947
0.13952
0.139591
0.139671
0.13975
0.139823
0.139879
0.139901
0.139884
0.139737
0.138762
0.136174
0.136069
0.16179
0.268917
0.509346
0.846956
1.16583
1.39888
1.5663
1.70303
1.81231
1.85467
1.70854
1.33685
0.87583
0.508971
0.140058
0.14001
0.139941
0.139879
0.139788
0.139627
0.139395
0.139175
0.139095
0.139063
0.139057
0.139063
0.139073
0.139086
0.139101
0.139117
0.139135
0.139155
0.139179
0.139205
0.139234
0.139264
0.139294
0.139326
0.139363
0.139408
0.139454
0.139499
0.139543
0.139586
0.139627
0.139668
0.139708
0.139749
0.139788
0.139836
0.139871
0.13994
0.139981
0.140104
0.140095
0.140028
0.13997
0.139919
0.139864
0.139811
0.139761
0.139711
0.139661
0.139603
0.139559
0.13958
0.139642
0.139721
0.139809
0.139901
0.139995
0.140086
0.140164
0.140222
0.140253
0.140023
0.138789
0.136595
0.141546
0.186158
0.330994
0.612125
0.96712
1.28188
1.51119
1.67924
1.80587
1.86713
1.73574
1.35965
0.883767
0.512704
0.14007
0.140029
0.139971
0.139916
0.139834
0.139685
0.139454
0.139238
0.139163
0.139133
0.139128
0.139135
0.139146
0.139161
0.139177
0.139196
0.139216
0.13924
0.139268
0.1393
0.139337
0.139377
0.13942
0.139468
0.139524
0.139586
0.139646
0.139702
0.139755
0.139804
0.139852
0.139898
0.139943
0.139989
0.140034
0.140087
0.14013
0.140206
0.140244
0.140104
0.140097
0.140034
0.139982
0.139935
0.139884
0.139836
0.139792
0.13975
0.139706
0.139657
0.139626
0.139663
0.139732
0.139814
0.139904
0.140001
0.140104
0.140211
0.14032
0.140425
0.140526
0.140578
0.140246
0.138879
0.137878
0.150575
0.217456
0.398857
0.711163
1.07315
1.38051
1.60275
1.75652
1.83668
1.72214
1.34924
0.870216
0.500403
0.140075
0.140041
0.139991
0.139943
0.139868
0.139729
0.139501
0.139291
0.139218
0.13919
0.139185
0.139192
0.139204
0.139219
0.139237
0.139257
0.139279
0.139305
0.139336
0.139372
0.139415
0.139464
0.139518
0.13958
0.139648
0.139717
0.139781
0.13984
0.139894
0.139946
0.139995
0.140043
0.140092
0.140141
0.140191
0.140247
0.140296
0.140377
0.140415
0.1401
0.140093
0.140035
0.139988
0.139944
0.139896
0.139853
0.139815
0.139778
0.139742
0.139699
0.139679
0.139723
0.139793
0.139875
0.139965
0.140063
0.140168
0.140282
0.140406
0.140536
0.140673
0.140815
0.14087
0.140442
0.139137
0.140457
0.163161
0.253261
0.465385
0.79563
1.15298
1.44494
1.64452
1.75062
1.65687
1.29637
0.830112
0.473906
0.140076
0.140047
0.140005
0.139962
0.139893
0.139762
0.139537
0.139335
0.139264
0.139235
0.13923
0.139236
0.139249
0.139264
0.139283
0.139304
0.139327
0.139355
0.139387
0.139426
0.139474
0.139529
0.139592
0.139662
0.139735
0.139806
0.139871
0.139929
0.139984
0.140036
0.140087
0.140137
0.140188
0.140239
0.140292
0.140352
0.140405
0.140488
0.140528
0.140092
0.140085
0.140032
0.139988
0.139946
0.139902
0.139864
0.13983
0.139798
0.139769
0.139732
0.139719
0.139765
0.139834
0.139914
0.140001
0.140096
0.140201
0.140316
0.140444
0.140585
0.140741
0.140913
0.141092
0.14114
0.140631
0.139744
0.144497
0.178329
0.288996
0.520351
0.850497
1.18616
1.44294
1.58879
1.52466
1.19014
0.758387
0.434784
0.140073
0.140049
0.140013
0.139975
0.139911
0.139787
0.139566
0.139372
0.1393
0.139271
0.139264
0.13927
0.139282
0.139298
0.139317
0.139339
0.139363
0.139391
0.139424
0.139465
0.139517
0.139577
0.139646
0.139721
0.139795
0.139865
0.139929
0.139987
0.140042
0.140095
0.140147
0.140198
0.14025
0.140304
0.14036
0.140421
0.140477
0.140562
0.140604
0.140081
0.140073
0.140025
0.139984
0.139944
0.139903
0.139869
0.139839
0.139813
0.139788
0.139757
0.139752
0.139799
0.139864
0.139938
0.14002
0.140111
0.140212
0.140324
0.140451
0.140595
0.140758
0.140941
0.14115
0.141358
0.141386
0.140872
0.140832
0.14973
0.193829
0.317612
0.550024
0.854812
1.14025
1.3297
1.30957
1.02265
0.65326
0.384167
0.140066
0.140047
0.140017
0.139984
0.139924
0.139806
0.139587
0.139402
0.139329
0.139298
0.139289
0.139294
0.139306
0.139322
0.139342
0.139364
0.139389
0.139417
0.139451
0.139493
0.139546
0.13961
0.139684
0.13976
0.139835
0.139904
0.139967
0.140025
0.140081
0.140134
0.140187
0.140239
0.140293
0.140348
0.140405
0.140468
0.140527
0.140612
0.140657
0.140068
0.140059
0.140014
0.139976
0.139939
0.139901
0.13987
0.139844
0.139822
0.139803
0.139778
0.13978
0.139826
0.139886
0.139954
0.14003
0.140114
0.140209
0.140316
0.140438
0.140579
0.140741
0.140926
0.141139
0.141381
0.141612
0.141625
0.141233
0.142385
0.155319
0.206042
0.330096
0.53842
0.783097
0.981536
1.01091
0.799886
0.522591
0.325743
0.140057
0.140042
0.140018
0.139989
0.139934
0.139819
0.139602
0.139427
0.139353
0.139319
0.139308
0.139312
0.139323
0.13934
0.13936
0.139383
0.139408
0.139437
0.13947
0.139512
0.139567
0.139633
0.139709
0.139786
0.13986
0.139929
0.139992
0.140051
0.140107
0.140161
0.140214
0.140268
0.140323
0.140379
0.140437
0.140501
0.140561
0.140647
0.140693
0.140053
0.140042
0.140001
0.139966
0.13993
0.139895
0.139868
0.139847
0.139828
0.139813
0.139795
0.139802
0.139846
0.139901
0.139963
0.140033
0.14011
0.140198
0.140298
0.140413
0.140548
0.140704
0.140885
0.141094
0.141334
0.141608
0.141859
0.141883
0.141748
0.144184
0.159845
0.21058
0.317809
0.472852
0.623195
0.67551
0.555404
0.386773
0.267213
0.140045
0.140034
0.140015
0.139992
0.13994
0.139829
0.139612
0.139449
0.139372
0.139336
0.139323
0.139325
0.139336
0.139353
0.139374
0.139397
0.139423
0.139452
0.139485
0.139527
0.139581
0.139649
0.139726
0.139804
0.139879
0.139948
0.140011
0.14007
0.140126
0.140181
0.140236
0.14029
0.140345
0.140403
0.140462
0.140526
0.140587
0.140673
0.14072
0.140036
0.140025
0.139986
0.139952
0.139919
0.139888
0.139865
0.139847
0.139833
0.139823
0.139811
0.139819
0.139859
0.139909
0.139966
0.140029
0.1401
0.14018
0.140273
0.140381
0.140508
0.140655
0.140828
0.141028
0.141259
0.141527
0.141834
0.142108
0.142183
0.142388
0.145803
0.161677
0.204117
0.278043
0.360722
0.396221
0.349648
0.274226
0.218072
0.140032
0.140024
0.14001
0.139991
0.139944
0.139835
0.139619
0.139467
0.13939
0.139352
0.139336
0.139337
0.139348
0.139365
0.139386
0.13941
0.139437
0.139466
0.139499
0.13954
0.139593
0.139661
0.139739
0.139818
0.139893
0.139963
0.140026
0.140086
0.140143
0.140199
0.140253
0.140308
0.140364
0.140422
0.140482
0.140546
0.140608
0.140694
0.140742
0.140019
0.140006
0.139969
0.139937
0.139907
0.139879
0.13986
0.139846
0.139836
0.139831
0.139825
0.139833
0.139869
0.139913
0.139964
0.140021
0.140085
0.140159
0.140245
0.140345
0.140463
0.140601
0.140763
0.140952
0.141169
0.141422
0.141721
0.142061
0.142366
0.142531
0.143062
0.14677
0.159843
0.187386
0.222534
0.240694
0.229223
0.204418
0.184746
0.140017
0.140012
0.140003
0.139989
0.139946
0.139839
0.139623
0.139483
0.139407
0.139367
0.139351
0.13935
0.13936
0.139377
0.1394
0.139425
0.139452
0.139482
0.139514
0.139554
0.139605
0.139674
0.139752
0.139832
0.139908
0.139977
0.140042
0.140102
0.140159
0.140215
0.140271
0.140326
0.140382
0.14044
0.1405
0.140565
0.140627
0.140712
0.140761
0.14
0.139986
0.139951
0.139921
0.139894
0.139869
0.139854
0.139844
0.139838
0.139838
0.139836
0.139846
0.139878
0.139917
0.139962
0.140012
0.14007
0.140137
0.140215
0.140307
0.140416
0.140545
0.140696
0.140872
0.141074
0.141309
0.141587
0.141918
0.142292
0.142639
0.142919
0.143665
0.146844
0.155109
0.167468
0.175927
0.175522
0.169977
0.165899
0.14
0.139999
0.139993
0.139985
0.139946
0.139842
0.139625
0.139499
0.139425
0.139385
0.139368
0.139367
0.139377
0.139394
0.139417
0.139443
0.139471
0.139501
0.139534
0.139571
0.139621
0.139689
0.139768
0.139848
0.139924
0.139994
0.140059
0.14012
0.140177
0.140234
0.140289
0.140345
0.140401
0.140459
0.140519
0.140583
0.140646
0.140729
0.140779
0.139981
0.139967
0.139932
0.139904
0.13988
0.13986
0.139848
0.139842
0.139841
0.139845
0.139848
0.13986
0.139887
0.13992
0.139959
0.140004
0.140055
0.140115
0.140186
0.14027
0.14037
0.140489
0.140628
0.140791
0.140978
0.141195
0.141452
0.141757
0.14212
0.142529
0.142931
0.143329
0.144131
0.146292
0.15014
0.153832
0.155211
0.15524
0.156377
0.139982
0.139983
0.139982
0.139979
0.139946
0.139844
0.139627
0.139514
0.139445
0.139407
0.13939
0.139388
0.139398
0.139416
0.13944
0.139466
0.139495
0.139526
0.139559
0.139595
0.139643
0.139709
0.139788
0.139869
0.139945
0.140016
0.14008
0.140141
0.140198
0.140255
0.14031
0.140366
0.140422
0.14048
0.140539
0.140603
0.140665
0.140748
0.140798
0.139961
0.139947
0.139913
0.139887
0.139867
0.139851
0.139843
0.139841
0.139845
0.139853
0.139862
0.139874
0.139896
0.139924
0.139957
0.139996
0.140041
0.140095
0.140159
0.140235
0.140326
0.140435
0.140563
0.140713
0.140885
0.141084
0.141319
0.141598
0.141931
0.142326
0.142773
0.143238
0.14374
0.144496
0.145803
0.147474
0.148768
0.149751
0.15195
0.139964
0.139967
0.13997
0.139972
0.139944
0.139846
0.13963
0.13953
0.139468
0.139433
0.139417
0.139416
0.139427
0.139445
0.139469
0.139497
0.139527
0.139558
0.139591
0.139627
0.139673
0.139737
0.139816
0.139896
0.139972
0.140042
0.140106
0.140166
0.140224
0.140279
0.140334
0.14039
0.140446
0.140503
0.140562
0.140625
0.140687
0.140768
0.140818
0.139941
0.139927
0.139895
0.139871
0.139855
0.139843
0.139839
0.139842
0.139849
0.139861
0.139872
0.139885
0.139902
0.139926
0.139955
0.139989
0.140029
0.140077
0.140134
0.140203
0.140286
0.140385
0.140502
0.140638
0.140796
0.140978
0.141193
0.141447
0.14175
0.142111
0.142538
0.143027
0.143557
0.144138
0.144881
0.14588
0.14688
0.147868
0.149952
0.139944
0.139949
0.139956
0.139963
0.139941
0.139848
0.139635
0.139547
0.139494
0.139463
0.13945
0.13945
0.139462
0.139481
0.139506
0.139535
0.139565
0.139597
0.13963
0.139666
0.139711
0.139773
0.139851
0.139931
0.140006
0.140075
0.140138
0.140197
0.140253
0.140308
0.140363
0.140417
0.140473
0.140529
0.140588
0.14065
0.140711
0.14079
0.14084
0.139921
0.139908
0.139878
0.139857
0.139844
0.139836
0.139837
0.139843
0.139853
0.139866
0.13988
0.139892
0.139908
0.139928
0.139953
0.139983
0.140019
0.140062
0.140113
0.140175
0.140249
0.140338
0.140445
0.140569
0.140713
0.140879
0.141075
0.141306
0.14158
0.141907
0.142297
0.142758
0.143291
0.143876
0.144546
0.145382
0.146245
0.147129
0.148978
0.139924
0.13993
0.13994
0.139953
0.139938
0.139851
0.139644
0.139567
0.139522
0.139497
0.139487
0.13949
0.139502
0.139523
0.139549
0.139579
0.139611
0.139644
0.139678
0.139713
0.139757
0.139818
0.139895
0.139973
0.140046
0.140113
0.140175
0.140232
0.140288
0.140342
0.140395
0.140449
0.140503
0.140559
0.140616
0.140678
0.140738
0.140815
0.140865
0.139901
0.139891
0.139863
0.139845
0.139837
0.139832
0.139836
0.139845
0.139858
0.139872
0.139887
0.1399
0.139914
0.139932
0.139954
0.139981
0.140012
0.14005
0.140095
0.14015
0.140216
0.140297
0.140393
0.140505
0.140636
0.140787
0.140965
0.141175
0.141424
0.14172
0.142072
0.142492
0.14299
0.143558
0.144214
0.145016
0.145843
0.146665
0.148315
0.139903
0.13991
0.139923
0.139942
0.139934
0.139855
0.139658
0.13959
0.139553
0.139534
0.139528
0.139533
0.139548
0.13957
0.139598
0.13963
0.139663
0.139697
0.139732
0.139767
0.13981
0.139871
0.139947
0.140022
0.140093
0.140157
0.140217
0.140272
0.140326
0.140379
0.140431
0.140484
0.140537
0.140592
0.140648
0.140708
0.140767
0.140843
0.140892
0.139884
0.139876
0.139852
0.139838
0.139833
0.139831
0.139836
0.139847
0.139861
0.139877
0.139893
0.139906
0.13992
0.139937
0.139957
0.139981
0.140009
0.140042
0.140082
0.14013
0.140189
0.14026
0.140346
0.140447
0.140565
0.140701
0.140863
0.141053
0.141279
0.141548
0.141866
0.142247
0.142701
0.14323
0.143854
0.14463
0.145437
0.146231
0.147759
0.139883
0.139889
0.139904
0.13993
0.139928
0.139858
0.139676
0.139615
0.139586
0.139572
0.13957
0.139578
0.139596
0.139621
0.139652
0.139685
0.139721
0.139756
0.139791
0.139828
0.139871
0.139932
0.140005
0.140078
0.140145
0.140206
0.140263
0.140316
0.140368
0.140419
0.14047
0.140522
0.140574
0.140627
0.140683
0.140741
0.140799
0.140872
0.14092
0.13987
0.139866
0.139848
0.139838
0.139835
0.139835
0.13984
0.13985
0.139865
0.139881
0.139897
0.139912
0.139926
0.139941
0.13996
0.139982
0.140008
0.140037
0.140072
0.140115
0.140167
0.14023
0.140305
0.140396
0.140501
0.140624
0.140769
0.140941
0.141146
0.141389
0.141678
0.142024
0.142437
0.142921
0.143503
0.144237
0.145015
0.14579
0.147252
0.139865
0.139868
0.139885
0.139916
0.139922
0.139862
0.139697
0.139643
0.13962
0.139611
0.139613
0.139625
0.139646
0.139675
0.139709
0.139745
0.139782
0.13982
0.139856
0.139893
0.139937
0.139999
0.140069
0.140137
0.1402
0.140258
0.140312
0.140363
0.140413
0.140463
0.140513
0.140563
0.140613
0.140666
0.140719
0.140776
0.140832
0.140903
0.14095
0.139862
0.139861
0.139851
0.139845
0.139844
0.139845
0.139848
0.139857
0.13987
0.139886
0.139901
0.139916
0.13993
0.139945
0.139963
0.139984
0.140007
0.140034
0.140066
0.140104
0.140149
0.140205
0.140271
0.140351
0.140444
0.140553
0.140684
0.140839
0.141024
0.141244
0.141506
0.14182
0.142195
0.142638
0.143176
0.143861
0.1446
0.145347
0.146788
0.139852
0.139849
0.139866
0.139901
0.139915
0.139865
0.139719
0.139672
0.139655
0.13965
0.139656
0.139672
0.139697
0.13973
0.139768
0.139808
0.139848
0.139887
0.139924
0.139962
0.140009
0.140071
0.140137
0.1402
0.140258
0.140312
0.140363
0.140413
0.140461
0.140509
0.140557
0.140606
0.140655
0.140706
0.140758
0.140813
0.140867
0.140935
0.140981
0.139861
0.139865
0.139865
0.139864
0.139865
0.139865
0.139865
0.139869
0.139879
0.139893
0.139907
0.139921
0.139935
0.139949
0.139965
0.139985
0.140007
0.140032
0.140061
0.140096
0.140136
0.140185
0.140243
0.140313
0.140395
0.140491
0.140607
0.140746
0.140912
0.14111
0.141347
0.141632
0.141975
0.142379
0.142875
0.143512
0.144204
0.144913
0.146367
0.139846
0.139837
0.13985
0.139886
0.139907
0.139867
0.139742
0.139702
0.13969
0.13969
0.139699
0.139719
0.139749
0.139788
0.13983
0.139874
0.139916
0.139957
0.139996
0.140036
0.140084
0.140145
0.140205
0.140263
0.140317
0.140368
0.140416
0.140464
0.14051
0.140557
0.140603
0.140651
0.140698
0.140747
0.140798
0.14085
0.140903
0.140968
0.141012
0.139872
0.139883
0.139891