/*--------------------------------*- C++ -*----------------------------------*\
  =========                 |
  \\      /  F ield         | OpenFOAM: The Open Source CFD Toolbox
   \\    /   O peration     | Website:  https://openfoam.org
    \\  /    A nd           | Version:  9
     \\/     M anipulation  |
\*---------------------------------------------------------------------------*/
FoamFile
{
    format      ascii;
    class       volScalarField;
    location    "180";
    object      p;
}
// * * * * * * * * * * * * * * * * * * * * * * * * * * * * * * * * * * * * * //

dimensions      [0 2 -2 0 0 0 0];

internalField   nonuniform List<scalar> 
10720
(
-143.217
-146.058
-148.721
-147.212
-139.734
-129.517
-116.02
-101.549
-90.2149
-84.3143
-83.4369
-84.0021
-83.7539
-83.2892
-82.9609
-82.2922
-81.5307
-81.1164
-81.3625
-82.3493
-84.2085
-87.1521
-91.1724
-96.0253
-101.499
-107.371
-113.373
-119.383
-125.373
-131.38
-137.352
-142.772
-147.044
-148.41
-143.422
-127.312
-96.2076
-54.21
-42.3885
-134.532
-125.949
-109.751
-89.9987
-67.6351
-43.4125
-18.6732
4.17928
23.4028
38.8263
50.408
58.5591
63.992
67.3417
69.0893
69.6647
69.4644
68.5974
67.1847
65.3788
63.2326
60.7576
57.9751
54.9168
51.7157
48.5054
45.2855
42.075
38.9037
35.7987
32.7668
29.806
26.8971
24.0055
21.0686
17.9947
14.6794
10.6341
5.32041
-75.8243
-83.0552
-89.0642
-91.2305
-90.2303
-87.4979
-83.839
-80.734
-79.8854
-81.32
-83.0481
-82.6191
-82.1833
-82.5629
-82.6179
-82.0853
-81.3618
-80.909
-81.0963
-82.0493
-83.898
-86.8296
-90.8385
-95.6801
-101.116
-106.929
-112.887
-118.866
-124.84
-130.848
-136.841
-142.303
-146.627
-148.054
-143.147
-127.174
-96.4265
-54.9292
-42.537
-68.6559
-61.1491
-52.2328
-40.9469
-27.7867
-13.0843
2.45705
17.6112
31.2866
42.9035
52.1604
59.0667
63.9019
67.0155
68.7341
69.3749
69.2178
68.3998
67.0581
65.3147
63.2228
60.8021
58.0776
55.0854
51.9382
48.754
45.5476
42.3412
39.1665
36.0515
33.0047
30.0256
27.0974
24.1868
21.2336
18.1483
14.8303
10.7877
5.62622
-68.0396
-73.8146
-78.2714
-81.5601
-83.1796
-83.2395
-82.078
-80.2323
-78.7434
-78.5182
-79.2593
-79.7129
-80.9051
-81.8191
-82.0716
-81.6921
-80.9361
-80.3684
-80.4804
-81.4743
-83.4489
-86.4969
-90.5684
-95.4286
-100.841
-106.608
-112.531
-118.489
-124.454
-130.467
-136.486
-141.994
-146.368
-147.853
-143.014
-127.105
-96.6329
-55.7374
-42.831
-61.486
-53.1176
-42.761
-30.8171
-17.8032
-4.01675
9.86714
22.9985
34.7653
44.8033
52.9186
59.1122
63.5659
66.518
68.2146
68.9102
68.8267
68.0933
66.8344
65.1574
63.1208
60.7527
58.0803
55.1413
52.0329
48.8664
45.6718
42.4729
39.3016
36.1855
33.1346
30.1494
27.214
24.2965
21.3385
18.2525
14.9411
10.9142
5.9473
-44.6709
-50.2809
-55.6222
-60.3452
-64.1192
-66.8782
-68.6914
-69.8374
-70.6953
-71.7236
-73.1371
-75.1107
-78.0667
-80.42
-81.3452
-81.0657
-80.3783
-79.6981
-79.7335
-80.8144
-82.9832
-86.203
-90.3604
-95.24
-100.63
-106.354
-112.243
-118.179
-124.133
-130.147
-136.186
-141.74
-146.169
-147.73
-142.989
-127.155
-96.9252
-56.5788
-43.0782
-38.9711
-32.5261
-24.8392
-15.5864
-5.33768
5.72302
17.0558
27.9204
37.7905
46.3607
53.4414
58.9812
63.0795
65.8851
67.567
68.3181
68.3171
67.677
66.5098
64.9128
62.9465
60.6447
58.0362
55.1598
52.1026
48.9685
45.7971
42.6137
39.4509
36.3368
33.2833
30.2918
27.3483
24.4223
21.4576
18.3694
15.0633
11.0596
6.27502
-35.591
-41.1613
-46.5671
-51.6223
-55.7921
-59.0849
-61.5552
-63.4084
-64.9927
-66.6663
-68.641
-71.0629
-74.0486
-76.9643
-79.1772
-80.0886
-79.7594
-79.0486
-79.0321
-80.2123
-82.5786
-85.9717
-90.2237
-95.1296
-100.5
-106.182
-112.03
-117.935
-123.869
-129.875
-135.926
-141.526
-146.016
-147.664
-143.04
-127.29
-97.2885
-57.4365
-43.1676
-29.855
-23.4111
-15.8711
-7.21369
2.05623
11.8621
21.7966
31.2661
39.8665
47.3849
53.6738
58.6791
62.4655
65.1336
66.7985
67.6047
67.6915
67.1535
66.0902
64.5877
62.7056
60.481
57.9452
55.1381
52.1388
49.0443
45.9009
42.7372
39.5865
36.4775
33.4241
30.4289
27.4794
24.5468
21.5773
18.4888
15.1911
11.2192
6.60979
-25.744
-30.9916
-36.3223
-41.424
-46.0263
-50.1584
-53.7243
-56.7761
-59.4907
-62.0641
-64.6506
-67.3257
-70.1201
-72.9479
-75.7329
-78.0158
-78.9217
-78.5419
-78.4773
-79.7306
-82.2942
-85.848
-90.1883
-95.1202
-100.47
-106.107
-111.906
-117.769
-123.671
-129.659
-135.713
-141.357
-145.914
-147.662
-143.172
-127.515
-97.7201
-58.3037
-43.0707
-20.4758
-14.7301
-8.04397
-0.32597
7.88959
16.5651
25.3507
33.7165
41.3195
48.0049
53.6524
58.2105
61.7261
64.2685
65.9149
66.7741
66.9514
66.522
65.5718
64.1757
62.3903
60.2546
57.8014
55.0714
52.138
49.0914
45.9832
42.8453
39.7118
36.6121
33.5619
30.5654
27.6118
24.6742
21.7011
18.6136
15.3261
11.3927
6.95505
-19.2922
-24.3934
-29.665
-34.8599
-39.6355
-44.0755
-48.0536
-51.5663
-54.7726
-57.8054
-60.7642
-63.6882
-66.5831
-69.458
-72.3483
-75.1418
-77.2491
-77.9862
-78.2028
-79.4087
-82.1207
-85.8326
-90.2522
-95.2061
-100.535
-106.125
-111.869
-117.68
-123.541
-129.502
-135.555
-141.244
-145.876
-147.737
-143.4
-127.842
-98.2241
-59.178
-42.826
-14.2127
-8.77048
-2.50578
4.62286
12.1126
19.9695
27.8994
35.4258
42.2581
48.2859
53.4132
57.5951
60.8743
63.3001
64.9269
65.835
66.1011
65.7835
64.9533
63.6736
61.9965
59.9609
57.6003
54.9556
52.0959
49.106
46.0406
42.9348
39.8237
36.7376
33.6943
30.6992
27.7437
24.8028
21.8276
18.743
15.4681
11.5802
7.30831
-13.9276
-18.8083
-23.9428
-29.0613
-33.8609
-38.487
-42.7914
-46.7087
-50.3411
-53.7681
-57.0576
-60.2615
-63.3975
-66.4623
-69.4363
-72.2824
-74.8927
-76.8511
-78.0602
-79.3968
-82.0595
-85.9109
-90.4149
-95.3869
-100.693
-106.232
-111.916
-117.669
-123.481
-129.406
-135.451
-141.186
-145.902
-147.891
-143.731
-128.283
-98.8066
-60.0505
-42.4501
-9.11076
-4.01988
1.81353
8.41814
15.3027
22.4944
29.7369
36.5914
42.805
48.2976
52.9931
56.8556
59.9261
62.2422
63.847
64.7982
65.148
64.9422
64.2355
63.0796
61.5206
59.5955
57.3373
54.7865
52.0089
49.0846
46.0699
43.003
39.92
36.8523
33.8197
30.8293
27.8743
24.9322
21.9568
18.877
15.6168
11.7809
7.66994
-9.80728
-14.5073
-19.5098
-24.5545
-29.3401
-34.0327
-38.4935
-42.6196
-46.492
-50.1645
-53.6884
-57.1134
-60.4582
-63.7143
-66.8335
-69.7558
-72.5192
-75.1708
-77.5729
-79.6409
-82.2481
-86.0691
-90.6709
-95.6663
-100.945
-106.431
-112.05
-117.737
-123.493
-129.378
-135.413
-141.197
-146.006
-148.139
-144.18
-128.852
-99.4757
-60.9256
-41.9913
-5.19484
-0.376629
5.11694
11.298
17.691
24.3441
31.028
37.3369
43.0439
48.0938
52.4264
56.014
58.8983
61.1108
62.6899
63.676
64.1025
64.0043
63.4216
62.3942
60.9609
59.1552
57.0086
54.5603
51.8732
49.0231
46.0674
43.0465
39.9979
36.954
33.9364
30.9541
28.0026
25.0617
22.088
19.0151
15.7725
11.9944
8.03725
-6.49537
-11.0161
-15.873
-20.8063
-25.5274
-30.2173
-34.7518
-39.0147
-43.0568
-46.9069
-50.6074
-54.2016
-57.7032
-61.114
-64.404
-67.5151
-70.4584
-73.4081
-76.5841
-79.7054
-82.738
-86.3959
-91.0031
-96.0443
-101.299
-106.726
-112.275
-117.891
-123.584
-129.423
-135.442
-141.279
-146.19
-148.486
-144.754
-129.562
-100.237
-61.7984
-41.4646
-2.07967
2.49071
7.68497
13.5028
19.4823
25.6843
31.9029
37.757
43.0413
47.7186
51.7422
55.0898
57.8047
59.9208
61.4703
62.4806
62.9756
62.9787
62.5171
61.6197
60.3172
58.6382
56.6113
54.2736
51.6851
48.9182
46.0298
43.0625
40.0549
37.0404
34.0425
31.0723
28.1275
25.1904
22.2209
19.1573
15.9344
12.2196
8.41072
-3.84867
-8.2049
-12.9194
-17.7364
-22.3724
-27.0238
-31.5692
-35.896
-40.0313
-43.9868
-47.8016
-51.5162
-55.1375
-58.6738
-62.1215
-65.4533
-68.6561
-71.83
-75.3366
-79.2822
-83.1952
-87.0035
-91.4424
-96.5028
-101.753
-107.12
-112.593
-118.132
-123.758
-129.547
-135.552
-141.445
-146.473
-148.951
-145.473
-130.421
-101.1
-62.6799
-40.9161
0.390635
4.74502
9.67897
15.1837
20.8102
26.6289
32.4529
37.9218
42.8474
47.2065
50.9628
54.099
56.6603
58.685
60.2
61.2252
61.7792
61.8749
61.5292
60.7606
59.5913
58.0442
56.1438
53.9239
51.4418
48.7664
45.9538
43.0477
40.0879
37.1088
34.1359
31.1821
28.2476
25.3173
22.3546
19.3027
16.1029
12.4557
8.78777
-1.71473
-5.91538
-10.4899
-15.1844
-19.7216
-24.3083
-28.8233
-33.1675
-37.3528
-41.3705
-45.2569
-49.0542
-52.7678
-56.4102
-59.9918
-63.513
-66.9756
-70.4161
-74.1022
-78.4427
-83.24
-87.7056
-92.1031
-97.0368
-102.294
-107.615
-113.01
-118.468
-124.023
-129.76
-135.748
-141.702
-146.86
-149.539
-146.343
-131.441
-102.063
-63.5664
-40.3501
2.36269
6.52249
11.2265
16.4556
21.776
27.2638
32.7471
37.8848
42.5007
46.5846
50.1077
53.0551
55.4772
57.4144
58.8901
59.9224
60.5249
60.7034
60.466
59.8224
58.7863
57.3742
55.6053
53.5096
51.1411
48.5651
45.8363
42.9992
40.0944
37.1571
34.2146
31.2819
28.3616
25.4414
22.4884
19.4512
16.2768
12.7015
9.16873
0.00827663
-4.04836
-8.48719
-13.0594
-17.4915
-21.9992
-26.4583
-30.7843
-34.9847
-39.0318
-42.9566
-46.8062
-50.5868
-54.3144
-58.0063
-61.677
-65.3499
-69.0591
-72.9524
-77.4378
-82.7625
-88.1291
-92.9291
-97.7257
-102.899
-108.2
-113.525
-118.899
-124.38
-130.065
-136.04
-142.063
-147.366
-150.268
-147.382
-132.633
-103.13
-64.467
-39.7961
3.93515
7.92073
12.4182
17.4035
22.4541
27.6528
32.8386
37.6863
42.0323
45.8753
49.1917
51.9697
54.2648
56.118
57.5511
58.5831
59.224
59.4746
59.3366
58.8119
57.9066
56.6302
54.9963
53.0299
50.781
48.3117
45.6746
42.9141
40.0713
37.1825
34.2761
31.3697
28.4678
25.5615
22.6214
19.6017
16.4562
12.9558
9.55105
1.39933
-2.52246
-6.83055
-11.2815
-15.6057
-20.0255
-24.4146
-28.6969
-32.8873
-36.9399
-40.8792
-44.7561
-48.5805
-52.371
-56.1503
-59.9392
-63.773
-67.7044
-71.8325
-76.4292
-81.9243
-88.0049
-93.6183
-98.5852
-103.6
-108.851
-114.133
-119.43
-124.837
-130.47
-136.433
-142.532
-147.996
-151.14
-148.591
-134.008
-104.302
-65.3664
-39.2471
5.1871
9.01343
13.3253
18.0909
22.9022
27.8445
32.7668
37.3587
41.4665
45.0965
48.2276
50.8535
53.0318
54.8031
56.1917
57.2166
57.8862
58.1984
58.15
57.7366
56.9576
55.8156
54.3181
52.4847
50.3607
48.0045
45.4663
42.7898
40.0164
37.1827
34.3187
31.4437
28.565
25.6764
22.7528
19.754
16.6399
13.2173
9.93488
2.51946
-1.27557
-5.45834
-9.79093
-14.0074
-18.3346
-22.6452
-26.8671
-31.027
-35.0667
-39.002
-42.8865
-46.7342
-50.5671
-54.4108
-58.2916
-62.2496
-66.3481
-70.6826
-75.424
-80.9379
-87.3443
-93.8241
-99.418
-104.44
-109.57
-114.81
-120.051
-125.39
-130.976
-136.935
-143.117
-148.755
-152.158
-149.974
-135.567
-105.588
-66.2664
-38.7202
6.17808
9.85845
14.0006
18.5679
23.1639
27.8765
32.5634
36.9268
40.8226
44.2613
47.2258
49.7137
51.7837
53.4767
54.8192
55.8314
56.5209
56.8844
56.9153
56.6045
55.9455
54.9346
53.5733
51.8748
49.8796
47.642
45.2093
42.6239
39.9268
37.155
34.3395
31.5017
28.6511
25.7846
22.8812
19.9067
16.8278
13.4845
10.3177
3.41684
-0.258221
-4.32147
-8.5391
-12.6494
-16.8812
-21.1082
-25.2579
-29.3721
-33.3848
-37.3029
-41.1797
-45.0334
-48.8899
-52.7773
-56.7257
-60.7781
-64.9992
-69.4857
-74.3701
-79.8991
-86.3416
-93.3842
-99.8714
-105.307
-110.391
-115.546
-120.747
-126.038
-131.586
-137.544
-143.815
-149.64
-153.311
-151.508
-137.298
-106.979
-67.1564
-38.2034
6.95477
10.5007
14.4874
18.8731
23.2741
27.7791
32.2536
36.411
40.1161
43.382
46.1958
48.5578
50.5261
52.1443
53.4401
54.4346
55.1364
55.5413
55.6412
55.4235
54.8769
53.9923
52.7649
51.202
49.3382
47.2237
44.9022
42.4144
39.8004
37.0973
34.3369
31.542
28.7247
25.885
23.0059
20.0594
17.0183
13.7562
10.6995
4.13004
0.567784
-3.38106
-7.48716
-11.4935
-15.6291
-19.7696
-23.8411
-27.8972
-31.8718
-35.7618
-39.6182
-43.4633
-47.3268
-51.2394
-55.2328
-59.3524
-63.6609
-68.2494
-73.2389
-78.8018
-85.1764
-92.3989
-99.657
-105.899
-111.252
-116.357
-121.497
-126.759
-132.287
-138.256
-144.619
-150.637
-154.576
-153.164
-139.164
-108.463
-68.0454
-37.7151
7.55459
10.9759
14.8186
19.0375
23.2605
27.5757
31.8569
35.8278
39.3594
42.4683
45.1444
47.3903
49.2638
50.8107
52.0593
53.0325
53.7397
54.1772
54.336
54.2015
53.7588
52.9941
51.8971
50.4687
48.7376
46.7492
44.5439
42.1595
39.635
37.0072
34.3081
31.5622
28.7838
25.9757
23.1252
20.2104
17.2111
14.0305
11.0778
4.68988
1.23436
-2.60444
-6.60327
-10.5076
-14.5481
-18.6006
-22.5914
-26.5803
-30.5069
-34.3598
-38.1862
-42.0103
-45.8664
-49.7869
-53.8046
-57.966
-62.3313
-66.9834
-72.0333
-77.6204
-83.9191
-91.0804
-98.7362
-105.868
-111.92
-117.216
-122.31
-127.537
-133.062
-139.055
-145.513
-151.723
-155.922
-154.892
-141.116
-110.005
-68.9187
-37.2701
8.00761
11.3127
15.0216
19.0857
23.1448
27.2862
31.3897
35.1896
38.5626
41.5278
44.0779
46.2161
48.0013
49.48
50.6816
51.6304
52.3371
52.799
53.0072
52.9461
52.5983
51.9461
50.9744
49.6779
48.0794
46.2193
44.1337
41.8579
39.4289
36.8827
34.2514
31.5607
28.8267
26.0553
23.2383
20.3592
17.4044
14.3059
11.4521
5.12172
1.76753
-1.9659
-5.86052
-9.66605
-13.6121
-17.5761
-21.4848
-25.3998
-29.2703
-33.079
-36.8678
-40.6611
-44.4967
-48.4096
-52.4329
-56.6127
-61.0075
-65.6921
-70.7656
-76.3487
-82.5734
-89.585
-97.2915
-105.041
-112.033
-117.937
-123.163
-128.364
-133.887
-139.915
-146.467
-152.86
-157.3
-156.63
-143.079
-111.564
-69.7626
-36.9226
8.33853
11.5344
15.1179
19.0383
22.945
26.9257
30.8654
34.5077
37.7342
40.5668
43.0006
45.0388
46.7415
48.1551
49.3104
50.2325
50.9339
51.4132
51.6621
51.6647
51.4024
50.8546
50.0018
48.8335
47.3661
45.6349
43.6718
41.5087
39.1805
36.7218
34.1645
31.535
28.8513
26.122
23.3431
20.5038
17.5976
14.5806
11.82
5.44634
2.18879
-1.4435
-5.23742
-8.94647
-12.7997
-16.6752
-20.5007
-24.3373
-28.1448
-31.9027
-35.6473
-39.4012
-43.2053
-47.0971
-51.1094
-55.2874
-59.6872
-64.3775
-69.445
-74.9948
-81.1342
-87.9761
-95.5401
-103.519
-111.314
-118.173
-123.913
-129.223
-134.752
-140.807
-147.44
-153.996
-158.647
-158.287
-144.963
-113.068
-70.5273
-36.6847
8.56714
11.6602
15.126
18.9116
22.6763
26.5073
30.2948
33.7908
36.8819
39.5918
41.9175
43.8625
45.4874
46.8393
47.9488
48.8429
49.5349
50.0252
50.3066
50.3641
50.1779
49.7256
48.9847
47.9396
46.6006
44.9977
43.1586
41.1116
38.8887
36.523
34.0456
31.4834
28.856
26.1744
23.4386
20.6436
17.7886
14.8533
12.1809
5.68094
2.51586
-1.01873
-4.71509
-8.33047
-12.092
-15.8798
-19.622
-23.3781
-27.1164
-30.8175
-34.5117
-38.2193
-41.9821
-45.8402
-49.8266
-53.9849
-58.3681
-63.0397
-68.0764
-73.5681
-79.6045
-86.2711
-93.6166
-101.537
-109.754
-117.573
-124.237
-129.985
-135.622
-141.707
-148.39
-155.059
-159.868
-159.742
-146.624
-114.418
-71.1526
-36.525
8.71045
11.7059
15.0605
18.7193
22.3509
26.042
29.6873
33.0469
36.0119
38.6075
40.832
42.6901
44.2421
45.5348
46.5996
47.4642
48.1437
48.6396
48.9465
49.0503
48.9312
48.5658
47.9289
47.0009
45.7864
44.3101
42.5953
40.6665
38.5527
36.2848
33.893
31.404
28.8387
26.2104
23.5229
20.7764
17.9766
15.1215
12.5322
5.84012
2.76392
-0.676431
-4.27795
-7.80189
-11.4736
-15.1743
-18.8329
-22.508
-26.1724
-29.8107
-33.4495
-37.1043
-40.8174
-44.6308
-48.5777
-52.7001
-57.0478
-61.6793
-66.6631
-72.0756
-77.9917
-84.4767
-91.5779
-99.2898
-107.559
-116.004
-123.734
-130.344
-136.367
-142.56
-149.273
-155.989
-160.871
-160.858
-147.894
-115.457
-71.5526
-36.3559
8.78221
11.6849
14.934
18.4728
21.979
25.5387
29.0504
32.2816
35.1287
37.6177
39.7476
41.5241
43.0072
44.2435
45.2647
46.0994
46.7637
47.2608
47.587
47.7292
47.6685
47.3809
46.8399
46.0221
44.9273
43.5747
41.9835
40.1741
38.1723
36.0065
33.7053
31.2952
28.7978
26.2285
23.5946
20.9011
18.1592
15.3839
12.8732
5.93633
2.94545
-0.403388
-3.91263
-7.34768
-10.9305
-14.5449
-18.1201
-21.714
-25.2998
-28.8703
-32.4485
-36.0452
-39.7015
-43.4606
-47.3561
-51.4282
-55.7238
-60.2964
-65.2076
-70.5221
-76.3022
-82.5981
-89.4466
-96.883
-104.971
-113.61
-122.16
-129.868
-136.678
-143.204
-149.995
-156.704
-161.561
-161.525
-148.614
-116.023
-71.6529
-36.115
8.79422
11.6087
14.7572
18.1818
21.5694
25.0051
28.3908
31.5011
34.2369
36.626
38.6668
40.3668
41.785
42.9677
43.9464
44.7507
45.3977
45.8923
46.2321
46.4058
46.3952
46.177
45.7235
45.0087
44.0277
42.795
41.3254
39.6355
37.7476
35.6872
33.4812
31.1552
28.7313
26.2266
23.6515
21.0154
18.3352
15.6383
13.2015
5.97984
3.07144
-0.188605
-3.60774
-6.9557
-10.4512
-13.9801
-17.4718
-20.9837
-24.4883
-27.9863
-31.4989
-35.0324
-38.6256
-42.3219
-46.1553
-50.1647
-54.3933
-58.8905
-63.7113
-68.9114
-74.5408
-80.6392
-87.2305
-94.3626
-102.151
-110.656
-119.569
-128.219
-136.088
-143.297
-150.339
-157.048
-161.803
-161.603
-148.657
-115.965
-71.3844
-35.7473
8.75662
11.4864
14.5388
17.8547
21.1298
24.4478
27.714
30.71
33.341
35.6356
37.5926
39.2202
40.5768
41.7081
42.6458
43.4198
44.0481
44.537
44.8857
45.0845
45.1167
44.9595
44.5851
43.9656
43.0921
41.9745
40.6236
39.0524
37.2792
35.3268
33.2199
30.9829
28.6378
26.2032
23.6922
21.1181
18.5022
15.883
13.5162
5.9795
3.15117
-0.0224095
-3.35347
-6.61594
-10.0252
-13.4691
-16.8776
-20.3071
-23.7289
-27.1502
-30.5918
-34.0574
-37.5818
-41.2078
-44.9697
-48.9051
-53.0539
-57.4611
-62.1759
-67.2464
-72.7123
-78.6032
-84.9327
-91.7483
-99.1825
-107.366
-116.222
-125.358
-134.186
-142.334
-149.897
-156.719
-161.34
-160.844
-147.823
-115.183
-70.7132
-35.2214
8.67795
11.3265
14.2865
17.4983
20.666
23.8719
27.0248
29.9126
32.4444
34.6492
36.5268
38.0862
39.3844
40.4666
41.3645
42.1085
42.717
43.1977
43.5511
43.7695
43.8376
43.7336
43.4301
42.8981
42.1252
41.1172
39.8813
38.4266
36.7683
34.9256
32.9208
30.777
28.5158
26.1565
23.7146
21.2068
18.6586
16.1158
13.8153
5.94299
3.19258
0.103301
-3.14146
-6.31985
-9.64399
-13.0034
-16.3287
-19.6753
-23.0141
-26.3549
-29.7206
-33.1129
-36.5634
-40.1122
-43.794
-47.6452
-51.7029
-56.0073
-60.6026
-65.5298
-70.8203
-76.494
-82.5559
-89.048
-96.1038
-103.874
-112.397
-121.524
-130.858
-139.849
-148.115
-155.221
-159.754
-158.872
-145.774
-113.518
-69.6043
-34.5114
8.56559
11.1357
14.0069
17.1186
20.1837
23.2827
26.3269
29.1119
31.5496
33.6691
35.4716
36.9661
38.2089
39.2443
40.1039
40.8179
41.4059
41.8762
42.2311
42.4642
42.562
42.5038
42.2634
41.8111
41.1316
40.2271
39.1016
37.7608
36.2162
34.484
32.5838
30.5368
28.364
26.085
23.7172
21.28
18.8021
16.335
14.0977
5.87705
3.20233
0.195794
-2.96435
-6.0599
-9.29962
-12.575
-15.8172
-19.0804
-22.3356
-25.5924
-28.878
-32.1929
-35.5643
-39.0303
-42.6242
-46.3822
-50.3382
-54.5287
-58.9925
-63.7643
-68.868
-74.3153
-80.103
-86.266
-92.9331
-100.25
-108.295
-117.051
-126.338
-135.707
-144.528
-151.974
-156.48
-155.184
-141.984
-110.686
-67.9872
-33.623
8.42587
10.9201
13.7053
16.721
19.6874
22.6839
25.6244
28.3108
30.659
32.6975
34.4285
35.8614
37.0513
38.0419
38.8645
39.5493
40.1163
40.5748
40.9281
41.1717
41.2935
41.2747
41.0899
40.7095
40.1161
39.3088
38.2884
37.0578
35.6251
34.0032
32.2091
30.2618
28.1812
25.987
23.6979
21.3353
18.9309
16.5388
14.3618
5.78724
3.18663
0.260994
-2.81559
-5.82953
-8.98554
-12.1771
-15.3363
-18.5155
-21.686
-24.8559
-28.0579
-31.2908
-34.579
-37.9567
-41.4564
-45.1131
-48.9584
-53.0248
-57.3466
-61.9525
-66.8593
-72.0717
-77.5782
-83.4076
-89.6792
-96.527
-104.03
-112.213
-121.021
-130.174
-139.06
-146.615
-151.027
-149.308
-136
-106.322
-65.735
-32.558
8.26411
10.6849
13.387
16.3097
19.1812
22.0794
24.92
27.5122
29.7748
31.7361
33.3991
34.7733
35.9129
36.8606
37.6475
38.3037
38.8495
39.2948
39.6443
39.8946
40.0356
40.0501
39.914
39.5981
39.0834
38.3664
37.4455
36.3207
34.9971
33.4846
31.7973
29.9518
27.9668
25.8615
23.6554
21.3714
19.0429
16.7252
14.6064
5.67851
3.15041
0.304371
-2.68989
-5.62316
-8.69605
-11.804
-14.8799
-17.9746
-21.0596
-24.1408
-27.2557
-30.4022
-33.6024
-36.8875
-40.2873
-43.8357
-47.5624
-51.496
-55.6661
-60.0966
-64.7981
-69.7677
-74.988
-80.4795
-86.352
-92.7251
-99.6624
-107.187
-115.274
-123.747
-132.106
-139.279
-143.329
-141.158
-127.847
-100.294
-62.7568
-31.3249
8.08517
10.4344
13.0558
15.8886
18.6686
21.4719
24.2167
26.7182
28.8991
30.7865
32.3845
33.7028
34.7944
35.7012
36.4535
37.0818
37.6062
38.0375
38.3811
38.6352
38.7911
38.8334
38.7394
38.4809
38.0379
37.4044
36.5769
35.553
34.3351
32.9302
31.3493
29.607
27.7202
25.7072
23.588
21.3859
19.136
16.8925
14.8303
5.55508
3.09812
0.330462
-2.58247
-5.43584
-8.42599
-11.4504
-14.4428
-17.4526
-20.4511
-23.4433
-26.4678
-29.5233
-32.6314
-35.8192
-39.114
-42.548
-46.1489
-49.9425
-53.9532
-58.2002
-62.6885
-67.4094
-72.3384
-77.4894
-82.9617
-88.8589
-95.2271
-102.069
-109.342
-116.892
-124.299
-130.59
-133.903
-131.236
-118.217
-92.966
-59.1248
-29.936
7.89305
10.1726
12.7155
15.461
18.1526
20.8644
23.5169
25.9311
28.0334
29.85
31.3859
32.6508
33.6963
34.564
35.2833
35.8844
36.3876
36.804
37.1402
37.3955
37.5625
37.6276
37.5699
37.3623
36.9838
36.427
35.6865
34.7583
33.642
32.3419
30.8666
29.228
27.4413
25.5234
23.4943
21.3775
19.2083
17.0389
15.0323
5.42067
3.03361
0.343214
-2.48923
-5.26337
-8.17114
-11.112
-14.0207
-16.9451
-19.8564
-22.759
-25.6903
-28.6514
-31.6634
-34.7498
-37.935
-41.2492
-44.7185
-48.3651
-52.2098
-56.2667
-60.5357
-65.0025
-69.6375
-74.4471
-79.5198
-84.9449
-90.7502
-96.9142
-103.367
-109.931
-116.21
-121.336
-123.64
-120.441
-108.064
-85.1201
-55.1114
-28.4448
7.6913
9.90281
12.3692
15.03
17.6359
20.2591
22.8226
25.153
27.1794
28.9282
30.4044
31.618
32.6196
33.4496
34.1372
34.7119
35.1941
35.5953
35.9228
36.177
36.352
36.4356
36.4089
36.2458
35.9252
35.4383
34.7786
33.9402
32.9209
31.7225
30.3509
28.8157
27.13
25.3095
23.3732
21.3443
19.258
17.163
15.2116
5.27844
2.96016
0.34604
-2.40669
-5.10227
-7.92788
-10.7852
-13.6101
-16.4485
-19.2717
-22.0839
-24.9195
-27.7833
-30.6956
-33.6773
-36.7491
-39.9391
-43.2714
-46.7658
-50.4388
-54.3002
-58.3452
-62.5544
-66.8938
-71.3635
-76.0409
-81.001
-86.2552
-91.762
-97.4231
-103.036
-108.199
-112.124
-113.366
-109.658
-98.0955
-77.5148
-51.0571
-26.9242
7.48287
9.62796
12.0196
14.5979
17.1208
19.6581
22.1356
24.3851
26.3384
28.0219
29.4409
30.6055
31.5649
32.3588
33.0157
33.5648
34.0264
34.4122
34.73
34.9813
35.1615
35.2598
35.2592
35.1349
34.8659
34.4425
33.8571
33.1026
32.1752
31.0746
29.8042
28.3714
26.787
25.0652
23.2239
21.2852
19.2833
17.263
15.367
5.13111
2.88057
0.34189
-2.33187
-4.94929
-7.69304
-10.4668
-13.2074
-15.9594
-18.6939
-21.4147
-24.153
-26.9172
-29.7266
-32.6002
-35.5555
-38.6177
-41.809
-45.1466
-48.6435
-52.3054
-56.1231
-60.0732
-64.1175
-68.2507
-72.5398
-77.0463
-81.7671
-86.645
-91.5611
-96.293
-100.44
-103.28
-103.577
-99.4805
-88.7603
-70.5231
-47.1977
-25.4479
7.27053
9.35052
11.6691
14.167
16.6091
19.0629
21.4573
23.6287
25.5114
27.1321
28.4961
29.6135
30.5325
31.2918
31.9192
32.4436
32.8849
33.2551
33.5626
33.8095
33.9925
34.1023
34.1234
34.0327
33.8094
33.4431
32.9258
32.2494
31.4086
30.4013
29.2288
27.8965
26.4129
24.7904
23.0456
21.1987
19.283
17.338
15.4979
4.98099
2.79735
0.333207
-2.26214
-4.80195
-7.46404
-10.1541
-12.8103
-15.4752
-18.1204
-20.7488
-23.3895
-26.0521
-28.7555
-31.5182
-34.3543
-37.2858
-40.333
-43.5104
-46.8282
-50.2877
-53.8764
-57.5671
-61.3188
-65.1215
-69.0325
-73.1003
-77.3106
-81.5938
-85.8183
-89.753
-93.0078
-94.9284
-94.4658
-90.1328
-80.2384
-64.1433
-43.6201
-24.0519
7.05645
9.07265
11.3198
13.7391
16.1025
18.4754
20.7889
22.8848
24.6993
26.2595
27.5705
28.6426
29.5227
30.2488
30.8479
31.3485
31.7699
32.1246
32.4212
32.6626
32.8463
32.9647
33.0037
32.9419
32.759
32.4439
31.9884
31.3841
30.6243
29.7056
28.6274
27.393
26.009
24.4857
22.8379
21.0843
19.2555
17.3865
15.6034
4.83019
2.71243
0.32216
-2.19545
-4.658
-7.23875
-9.84524
-12.4167
-14.9943
-17.5498
-20.0852
-22.6283
-25.1878
-27.7826
-30.4318
-33.1464
-35.9449
-38.8455
-41.8606
-44.9971
-48.2531
-51.6127
-55.0459
-58.5094
-61.9895
-65.5349
-69.1829
-72.9095
-76.6368
-80.2268
-83.4499
-85.9367
-87.1026
-86.0642
-81.6343
-72.5341
-58.3148
-40.2874
-22.7179
6.8426
8.79614
10.9732
13.3158
15.6026
17.8966
20.1317
22.1545
23.9032
25.4049
26.6649
27.6933
28.5363
29.2304
29.8024
30.2796
30.6819
31.0211
31.3064
31.5413
31.7242
31.8487
31.9023
31.865
31.7174
31.4481
31.0486
30.5103
29.826
28.9908
28.0027
26.8631
25.5766
24.1515
22.6008
20.9409
19.2
17.4077
15.6831
4.68025
2.62769
0.310424
-2.12996
-4.5158
-7.01528
-9.53819
-12.0249
-14.515
-16.9803
-19.4224
-21.8678
-24.3229
-26.8079
-29.3418
-31.9332
-34.5972
-37.3497
-40.201
-43.1555
-46.2081
-49.34
-52.5191
-55.7006
-58.8685
-62.0635
-65.313
-68.5857
-71.7991
-74.8141
-77.4094
-79.2431
-79.801
-78.3447
-73.9292
-65.5843
-52.9954
-37.1445
-21.403
6.63056
8.52261
10.631
12.8986
15.1106
17.3279
19.4867
21.4386
23.1236
24.5689
25.7797
26.7661
27.5732
28.2366
28.7824
29.2375
29.6209
29.945
30.2188
30.4464
30.6271
30.7555
30.8207
30.8043
30.6873
30.4586
30.1096
29.6317
29.0171
28.2602
27.3576
26.309
25.1173
23.7889
22.3346
20.7685
19.1157
17.4009
15.7362
4.53264
2.54439
0.299492
-2.06432
-4.37372
-6.79248
-9.23188
-11.6338
-14.0362
-16.4112
-18.7597
-21.107
-23.4572
-25.8315
-28.249
-30.7162
-33.2451
-35.849
-38.5363
-41.3092
-44.1596
-47.0666
-49.9968
-52.9047
-55.7725
-58.6341
-61.5087
-64.3596
-67.103
-69.6029
-71.6502
-72.9352
-73.0118
-71.2661
-66.9474
-59.3171
-48.1525
-34.1814
-20.1
6.42178
8.25336
10.2943
12.4886
14.6276
16.7702
18.855
20.738
22.3614
23.752
24.9153
25.8612
26.6338
27.2678
27.7884
28.222
28.5872
28.8964
29.1585
29.3783
29.5557
29.6863
29.7605
29.7615
29.671
29.4781
29.1744
28.7513
28.201
27.517
26.695
25.7334
24.6332
23.3992
22.0399
20.5669
19.0023
17.3655
15.7626
4.3885
2.4639
0.290479
-1.99724
-4.23093
-6.56902
-8.92524
-11.2425
-13.5572
-15.8418
-18.0967
-20.3459
-22.5913
-24.8549
-27.155
-29.4974
-31.8914
-34.3471
-36.8712
-39.4638
-42.115
-44.8016
-47.4895
-50.1336
-52.7149
-55.2622
-57.7871
-60.2499
-62.5675
-64.6103
-66.1847
-67.0149
-66.7168
-64.7839
-60.6201
-53.659
-43.7416
-31.4034
-18.8193
6.21727
7.98954
9.96434
12.0868
14.1547
16.2246
18.2371
20.0534
21.6169
22.9547
24.072
24.9789
25.7183
26.3239
26.8203
27.2332
27.5809
27.8753
28.1259
28.3375
28.5107
28.6419
28.7229
28.7383
28.6706
28.5091
28.2459
27.8724
27.3809
26.7644
26.018
25.1387
24.1265
22.9839
21.7176
20.3366
18.8597
17.3013
15.7619
4.24882
2.38689
0.284392
-1.92796
-4.0863
-6.34435
-8.61762
-10.8504
-13.0776
-15.2721
-17.4337
-19.5849
-21.7265
-23.8798
-26.0622
-28.2799
-30.5394
-32.8482
-35.2109
-37.6259
-40.0816
-42.5536
-45.0073
-47.3987
-49.709
-51.962
-54.1635
-56.2722
-58.208
-59.8494
-61.0203
-61.4781
-60.8955
-58.8558
-54.8857
-48.5483
-39.7278
-28.8122
-17.5727
6.01812
7.73206
9.64202
11.6942
13.6925
15.6915
17.6339
19.3852
20.8908
22.1773
23.2502
24.1195
24.8268
25.4051
25.8782
26.2712
26.6018
26.882
27.1211
27.3242
27.4924
27.623
27.7089
27.736
27.6878
27.5539
27.3265
26.9977
26.5597
26.0055
25.3295
24.528
23.5994
22.5449
21.369
20.0783
18.6881
17.2084
15.7342
4.11435
2.31439
0.28181
-1.85579
-3.93957
-6.11781
-8.3086
-10.4574
-12.5974
-14.7022
-16.7708
-18.8247
-20.8641
-22.9077
-24.973
-27.0666
-29.1929
-31.3567
-33.5607
-35.8018
-38.067
-40.3314
-42.5603
-44.7117
-46.7673
-48.7467
-50.6516
-52.4402
-54.0367
-55.3291
-56.1597
-56.3168
-55.524
-53.4396
-49.6871
-43.9264
-36.0715
-26.3993
-16.365
5.82507
7.48179
9.32812
11.3115
13.2419
15.1718
17.0457
18.7339
20.1832
21.4201
22.4501
23.283
23.9594
24.5114
24.9622
25.3359
25.6502
25.9165
26.1441
26.3386
26.5013
26.6303
26.7195
26.756
26.7242
26.6142
26.4186
26.1299
25.7405
25.2433
24.6326
23.9039
23.0545
22.0842
20.9956
19.7929
18.4882
17.0871
15.6794
3.98575
2.24674
0.283372
-1.78034
-3.79006
-5.88946
-7.99816
-10.0633
-12.1169
-14.1324
-16.1091
-18.0666
-20.0049
-21.9402
-23.8897
-25.8606
-27.8556
-29.877
-31.9259
-33.9979
-36.0789
-38.1436
-40.1583
-42.0829
-43.9007
-45.6282
-47.2632
-48.7646
-50.0624
-51.0543
-51.6009
-51.5194
-50.5776
-48.4956
-44.9739
-39.7452
-32.7425
-24.1581
-15.1956
5.63885
7.23931
9.02329
10.9392
12.8032
14.6657
16.473
18.0998
19.4946
20.6835
21.6718
22.4697
23.1164
23.643
24.0722
24.4275
24.7259
24.9787
25.1952
25.3809
25.5376
25.6642
25.7552
25.7992
25.7813
25.6919
25.5243
25.2713
24.9257
24.4807
23.9302
23.2692
22.4944
21.6041
20.5992
19.4819
18.2609
16.9381
15.5981
3.86349
2.18468
0.289406
-1.70123
-3.63793
-5.65891
-7.68635
-9.6688
-11.6364
-13.5637
-15.4493
-17.3116
-19.1504
-20.9791
-22.8148
-24.6652
-26.5314
-28.414
-30.3122
-32.2205
-34.1243
-35.9983
-37.81
-39.5222
-41.1198
-42.6166
-44.008
-45.2541
-46.2909
-47.0268
-47.3394
-47.072
-46.0307
-43.9864
-40.6999
-35.9587
-29.7083
-22.076
-14.0658
5.45989
7.00516
8.72787
10.5778
12.3769
14.1737
15.9162
17.4832
18.825
19.9673
20.9155
21.6795
22.2976
22.7999
23.2083
23.5458
23.8289
24.0686
24.2742
24.4511
24.6016
24.7249
24.8166
24.8663
24.8599
24.7883
24.6452
24.424
24.1179
23.7202
23.225
22.6268
21.9217
21.1069
20.182
19.1468
18.0074
16.762
15.4906
3.74796
2.12823
0.300288
-1.61835
-3.48266
-5.42655
-7.37356
-9.274
-11.1568
-12.9968
-14.7924
-16.5611
-18.3021
-20.0264
-21.7509
-23.4834
-25.2243
-26.9721
-28.7247
-30.4757
-32.2101
-33.9032
-35.524
-37.0385
-38.4332
-39.7205
-40.8936
-41.9147
-42.7256
-43.2455
-43.3678
-42.9591
-41.8578
-39.8769
-36.8243
-32.5288
-26.9439
-20.1465
-12.9757
5.28859
6.77966
8.44229
10.2275
11.9632
13.6959
15.3754
16.8842
18.1747
19.2719
20.1812
20.9125
21.503
21.9818
22.3704
22.6908
22.9591
23.1862
23.3811
23.5493
23.6933
23.8128
23.9043
23.9581
23.9612
23.9048
23.7831
23.59
23.3193
22.9645
22.5196
21.9793
21.339
20.5952
19.746
18.7896
17.7294
16.5604
15.358
3.63934
2.07788
0.316057
-1.53155
-3.32481
-5.19225
-7.06002
-8.87971
-10.6787
-12.4327
-14.14
-15.8167
-17.4619
-19.0846
-20.701
-22.3187
-23.9379
-25.5556
-27.1684
-28.7691
-30.3426
-31.8652
-33.3078
-34.6392
-35.8487
-36.947
-37.9259
-38.7502
-39.3676
-39.7071
-39.6769
-39.1642
-38.0343
-36.1346
-33.31
-29.4206
-24.4245
-18.3592
-11.9344
5.12511
6.56298
8.1667
9.8886
11.5624
13.2326
14.8506
16.303
17.5436
18.5971
19.4688
20.1686
20.7325
21.1888
21.5583
21.8623
22.1164
22.3313
22.5157
22.6753
22.8127
22.9281
23.0184
23.0751
23.0859
23.0423
22.9392
22.771
22.5318
22.2156
21.8166
21.3294
20.7491
20.0715
19.2938
18.4124
17.4285
16.3344
15.2008
3.53766
2.03339
0.336774
-1.44094
-3.16407
-4.9566
-6.74626
-8.48636
-10.2032
-11.8728
-13.4934
-15.0801
-16.6317
-18.1562
-19.6682
-21.1746
-22.6762
-24.169
-25.6482
-27.1062
-28.5279
-29.8908
-31.1677
-32.3308
-33.3725
-34.3014
-35.1092
-35.7625
-36.2154
-36.4061
-36.2561
-35.6699
-34.536
-32.7295
-30.1243
-26.6045
-22.1309
-16.7109
-10.9437
4.96956
6.35521
7.90122
9.56116
11.1745
12.7838
14.3421
15.7396
16.9318
17.943
18.7785
19.4477
19.9861
20.4207
20.7718
21.0602
21.3007
21.5038
21.6781
21.8292
21.96
22.0708
22.1593
22.2178
22.2346
22.2018
22.1148