/*--------------------------------*- C++ -*----------------------------------*\
  =========                 |
  \\      /  F ield         | OpenFOAM: The Open Source CFD Toolbox
   \\    /   O peration     | Website:  https://openfoam.org
    \\  /    A nd           | Version:  9
     \\/     M anipulation  |
\*---------------------------------------------------------------------------*/
FoamFile
{
    format      ascii;
    class       volVectorField;
    location    "180";
    object      U;
}
// * * * * * * * * * * * * * * * * * * * * * * * * * * * * * * * * * * * * * //

dimensions      [0 1 -1 0 0 0 0];

internalField   nonuniform List<vector> 
10720
(
(-2.613 19.2719 2.96895e-17)
(-1.53685 19.4706 -2.97355e-17)
(-0.415036 19.2939 0)
(0.670843 18.5144 -3.08791e-16)
(1.63521 17.1921 3.66107e-16)
(2.38377 15.2206 2.17064e-16)
(2.76604 12.548 2.64781e-16)
(2.67367 9.29092 0)
(2.06033 5.66609 0)
(0.994891 2.08091 0)
(-0.410017 -0.589782 4.294e-18)
(-1.54122 -1.31335 0)
(-2.25412 -1.57811 3.33183e-15)
(-2.60014 -1.58679 0)
(-2.66958 -1.54478 0)
(-2.54657 -1.40487 0)
(-2.22009 -1.15741 -5.75047e-15)
(-1.82809 -0.875889 -9.35945e-15)
(-1.53537 -0.615052 9.53618e-15)
(-1.53399 -0.426285 0)
(-1.99549 -0.343182 6.67446e-15)
(-2.85828 -0.321926 -1.05662e-14)
(-3.94001 -0.302346 4.49144e-15)
(-5.07255 -0.254254 -1.14801e-16)
(-6.17608 -0.167581 0)
(-7.23151 -0.0332581 1.54237e-15)
(-8.22136 0.148503 2.22895e-17)
(-9.14445 0.368035 -6.95382e-16)
(-10.0244 0.62001 -2.65108e-15)
(-10.8888 0.899618 -1.01018e-14)
(-11.7581 1.20155 4.81516e-15)
(-12.617 1.51681 9.48741e-15)
(-13.4043 1.8298 9.02613e-15)
(-13.9747 2.11075 3.50827e-14)
(-14.0723 2.30468 -1.63725e-14)
(-13.4485 2.33287 -1.20633e-16)
(-11.8721 2.07772 7.03292e-17)
(-9.02154 1.39352 2.84589e-14)
(-4.55433 0.828535 -2.53294e-14)
(-3.67429 18.8619 1.38446e-17)
(-4.76514 18.1749 2.65664e-17)
(-5.83887 17.224 -4.75384e-17)
(-6.79882 15.809 5.87417e-17)
(-7.54084 14.163 1.53478e-16)
(-7.97176 12.2864 -9.09481e-17)
(-8.02339 10.2741 -8.11347e-17)
(-7.68108 8.28272 7.62264e-17)
(-7.01546 6.46557 0)
(-6.12592 4.89283 0)
(-5.0962 3.58906 4.52273e-16)
(-4.01897 2.55627 3.47634e-16)
(-2.95393 1.75799 -9.50954e-16)
(-1.92927 1.15297 1.40908e-15)
(-0.969993 0.706732 4.56047e-15)
(-0.101804 0.378346 5.54146e-15)
(0.683571 0.088493 7.45324e-15)
(1.44458 -0.158806 3.70442e-15)
(2.16752 -0.346362 0)
(2.84461 -0.481782 0)
(3.48739 -0.57745 -3.96657e-15)
(4.10644 -0.638422 -2.02263e-16)
(4.70735 -0.664706 2.97512e-15)
(5.28635 -0.649822 -2.38711e-15)
(5.82796 -0.591931 4.30101e-18)
(6.32493 -0.500572 0)
(6.78068 -0.383488 7.77472e-16)
(7.19779 -0.246434 0)
(7.57761 -0.0939513 0)
(7.92118 0.069582 5.20666e-16)
(8.23153 0.240097 0)
(8.51203 0.41404 -1.5976e-15)
(8.76718 0.588657 -2.70721e-15)
(9.00304 0.762264 -1.16155e-14)
(9.22787 0.935228 3.90763e-15)
(9.44885 1.10959 -1.34887e-17)
(9.68827 1.29453 0)
(9.94293 1.49889 3.3416e-15)
(10.4769 1.73458 1.47865e-15)
(2.37448 17.9024 1.10984e-17)
(3.51891 18.2202 -1.57069e-17)
(4.67207 18.5325 0)
(5.73261 18.7458 0)
(6.60715 18.814 -8.29151e-17)
(7.25032 18.7083 -1.50298e-16)
(7.60307 18.2749 0)
(7.60311 17.3118 0)
(7.17353 15.5471 2.26189e-16)
(6.23745 12.7829 0)
(4.71791 9.09 9.94576e-16)
(2.66042 4.98445 0)
(0.287641 1.03232 9.246e-16)
(-1.45888 -0.755749 -1.28315e-15)
(-2.22576 -1.25089 2.21521e-15)
(-2.65358 -1.47947 -4.22178e-15)
(-2.76407 -1.45562 3.95233e-15)
(-2.76963 -1.24475 4.01681e-15)
(-2.88074 -0.959186 4.12228e-15)
(-3.28767 -0.711424 2.28306e-16)
(-4.02476 -0.542266 -3.17566e-15)
(-4.99721 -0.441519 2.71886e-15)
(-6.03866 -0.363276 -1.39859e-16)
(-7.03594 -0.278704 0)
(-7.96149 -0.173592 0)
(-8.82385 -0.0307135 0)
(-9.63444 0.155695 1.18441e-16)
(-10.4065 0.377373 -2.93759e-17)
(-11.149 0.629451 1.81156e-15)
(-11.8631 0.904761 1.21341e-17)
(-12.536 1.19235 -1.07481e-17)
(-13.1274 1.476 -7.06401e-17)
(-13.5765 1.73579 6.44955e-15)
(-13.802 1.95395 -1.26622e-14)
(-13.6744 2.10483 -8.69576e-17)
(-12.9383 2.1363 -1.95652e-14)
(-11.216 1.93332 0)
(-8.3292 1.23342 -7.73693e-15)
(-4.43876 0.319733 -1.02591e-14)
(1.24779 17.4681 -1.49249e-17)
(0.129222 16.9129 2.44943e-17)
(-1.09827 16.163 1.64527e-16)
(-2.29307 15.1593 -2.04343e-16)
(-3.37334 13.8901 0)
(-4.25865 12.3814 2.24295e-17)
(-4.86249 10.6928 -3.14194e-17)
(-5.11646 8.94332 -2.59297e-16)
(-5.02328 7.2559 1.28315e-16)
(-4.63955 5.71217 -2.87369e-16)
(-4.03443 4.37055 5.33861e-16)
(-3.2863 3.25543 -2.36641e-16)
(-2.46416 2.35558 0)
(-1.61727 1.64667 -4.51444e-16)
(-0.781166 1.10273 -2.59157e-17)
(0.0193835 0.688778 -2.36831e-15)
(0.777774 0.350825 0)
(1.51012 0.0824812 0)
(2.21108 -0.115733 -2.47311e-16)
(2.87868 -0.260965 2.13874e-16)
(3.52042 -0.365012 -2.70443e-15)
(4.14371 -0.430268 -3.10443e-16)
(4.75209 -0.455278 1.37683e-16)
(5.34217 -0.433077 1.87271e-15)
(5.90094 -0.365618 -1.68427e-15)
(6.4203 -0.267944 -1.39266e-15)
(6.90171 -0.14813 0)
(7.34693 -0.0110388 0)
(7.75655 0.139543 0)
(8.13155 0.299325 2.3146e-18)
(8.47397 0.464507 0)
(8.7868 0.631838 0)
(9.07393 0.7992 4.49587e-15)
(9.3406 0.965476 3.82378e-15)
(9.5935 1.13182 -3.19681e-15)
(9.83889 1.30188 2.60499e-15)
(10.1011 1.48812 -3.99156e-15)
(10.3594 1.69794 -2.72551e-15)
(10.9603 1.9998 -1.37061e-15)
(0.756333 16.437 3.61249e-18)
(1.56367 16.7207 7.58366e-17)
(2.43482 16.8885 -6.12189e-17)
(3.37648 16.9718 -5.62181e-17)
(4.32059 16.9967 -1.2634e-16)
(5.27167 17.0488 3.58282e-16)
(6.17489 17.1897 -2.25215e-16)
(6.96951 17.3904 -1.93151e-16)
(7.60392 17.4533 -1.70238e-18)
(7.94724 16.9598 -1.86336e-16)
(7.76898 15.396 1.69907e-16)
(6.76698 12.4357 -4.36874e-16)
(4.77708 8.20571 -2.75994e-16)
(2.07268 3.76311 0)
(-0.432384 0.544923 -1.45229e-15)
(-1.82204 -0.735417 3.47352e-15)
(-2.54799 -1.2299 0)
(-2.98443 -1.2484 -6.22413e-15)
(-3.3722 -0.989282 -3.02407e-15)
(-3.91506 -0.682076 3.25708e-16)
(-4.61761 -0.437155 -2.68171e-16)
(-5.39646 -0.276637 -1.22142e-16)
(-6.17662 -0.169288 -1.65001e-15)
(-6.93268 -0.0810274 8.33987e-16)
(-7.67083 0.0126435 0)
(-8.39701 0.134423 7.71028e-16)
(-9.10933 0.294383 -9.33029e-17)
(-9.8042 0.487732 0)
(-10.4786 0.709744 1.40028e-15)
(-11.13 0.953259 2.78182e-15)
(-11.7517 1.20822 -5.39825e-15)
(-12.3191 1.4594 -5.18696e-15)
(-12.7878 1.68633 -8.79814e-17)
(-13.0693 1.86777 -1.00889e-14)
(-12.976 1.96133 -9.2496e-15)
(-12.2256 1.90876 1.48572e-14)
(-10.5112 1.63054 0)
(-7.73116 0.884695 -5.40498e-15)
(-4.39174 -0.0674935 1.2668e-14)
(0.0196115 16.049 1.01545e-17)
(-0.707547 15.5314 1.60992e-17)
(-1.44833 14.8172 -9.04822e-17)
(-2.19572 13.9199 0)
(-2.86856 12.8468 -2.08602e-17)
(-3.42552 11.6012 0)
(-3.81678 10.2198 7.52925e-17)
(-3.99526 8.77927 7.11297e-17)
(-3.94294 7.35722 1.33961e-16)
(-3.6745 6.01305 0)
(-3.22741 4.79631 -6.35726e-16)
(-2.64622 3.73889 -2.13223e-16)
(-1.97673 2.84646 1.29701e-15)
(-1.25884 2.11115 0)
(-0.525822 1.51936 -1.26344e-15)
(0.199753 1.05064 -4.99466e-16)
(0.907944 0.671873 2.44247e-15)
(1.60148 0.371064 1.26079e-15)
(2.27287 0.139468 3.63021e-16)
(2.91947 -0.0379031 -1.67526e-16)
(3.5456 -0.170738 2.11958e-15)
(4.15633 -0.261939 0)
(4.75408 -0.311043 0)
(5.33574 -0.314336 1.06288e-18)
(5.89044 -0.274226 0)
(6.41049 -0.201839 2.4933e-15)
(6.89634 -0.103552 -3.54051e-17)
(7.34949 0.0162581 -2.43357e-16)
(7.77057 0.153572 0)
(8.16061 0.303846 -3.81684e-16)
(8.52165 0.463235 6.77079e-16)
(8.85657 0.628335 0)
(9.16915 0.796734 -2.06896e-15)
(9.46436 0.967121 0)
(9.74867 1.1405 0)
(10.0263 1.32019 1.49975e-17)
(10.3232 1.51848 -1.69001e-17)
(10.5974 1.74215 2.59749e-15)
(11.2399 2.09695 2.55239e-15)
(2.19634 15.3343 8.14742e-18)
(2.96112 15.6257 1.76667e-17)
(3.77073 15.8394 -3.98722e-17)
(4.57536 15.9662 -3.17013e-17)
(5.30617 15.9991 0)
(5.95415 15.9607 0)
(6.52424 15.9137 -3.64365e-16)
(7.0435 15.9539 3.71727e-16)
(7.5639 16.1746 0)
(8.11159 16.5151 -3.12695e-16)
(8.59641 16.6346 -3.25462e-16)
(8.72626 15.9376 -3.0648e-16)
(8.07124 13.7965 3.53628e-16)
(6.23171 10.0102 4.17978e-16)
(3.31177 5.34704 0)
(0.320714 1.50482 1.49061e-15)
(-1.54975 -0.294731 6.7699e-16)
(-2.55628 -0.860268 5.02969e-15)
(-3.18201 -0.771316 2.92901e-16)
(-3.76283 -0.457782 -2.53224e-16)
(-4.39243 -0.188549 1.96649e-15)
(-5.03791 -0.0206346 -2.89392e-16)
(-5.68908 0.0749978 1.51961e-15)
(-6.35374 0.139387 6.74294e-16)
(-7.03396 0.205196 -4.13818e-17)
(-7.72216 0.297169 -5.80987e-16)
(-8.40801 0.425953 4.76472e-18)
(-9.08431 0.58893 -4.37499e-18)
(-9.74764 0.781937 -1.11767e-15)
(-10.3983 0.998133 -3.47502e-17)
(-11.0337 1.22776 2.2328e-15)
(-11.6308 1.45458 -4.30626e-15)
(-12.1409 1.65364 -3.98089e-15)
(-12.4614 1.79871 -5.71026e-17)
(-12.3908 1.84179 7.15834e-15)
(-11.654 1.7236 0)
(-9.96733 1.37701 7.95612e-15)
(-7.28895 0.577367 4.03681e-15)
(-4.37727 -0.396615 -4.64435e-15)
(1.46507 14.9795 3.17234e-18)
(0.727485 14.5337 -2.85815e-17)
(-0.0401741 13.9422 -5.99379e-17)
(-0.808775 13.1862 0)
(-1.50708 12.2686 1.97876e-17)
(-2.10149 11.1951 0)
(-2.54884 9.99489 -1.18178e-16)
(-2.81 8.73298 3.68821e-18)
(-2.87011 7.47182 1.3907e-16)
(-2.73782 6.25827 2.33865e-16)
(-2.439 5.1347 2.07345e-18)
(-2.00535 4.13206 6.82345e-16)
(-1.47174 3.26084 -6.85308e-16)
(-0.87149 2.52109 2.64957e-16)
(-0.235115 1.9068 1.31884e-15)
(0.415202 1.40463 1.88266e-15)
(1.06634 0.991516 -1.83897e-15)
(1.71475 0.656781 -9.05733e-18)
(2.35178 0.392075 0)
(2.97327 0.185234 2.07808e-15)
(3.58048 0.0274069 1.14085e-16)
(4.17607 -0.0852966 -1.75831e-15)
(4.76113 -0.153682 0)
(5.33235 -0.175893 -2.48844e-20)
(5.87995 -0.153923 0)
(6.39623 -0.097005 -1.04931e-15)
(6.88052 -0.0119217 0)
(7.33378 0.0964295 2.12388e-16)
(7.75646 0.223689 -8.65651e-18)
(8.14949 0.365205 5.41986e-18)
(8.51484 0.5171 -5.6911e-16)
(8.85539 0.675911 -1.70313e-17)
(9.17493 0.839196 0)
(9.47853 1.00569 1.54966e-15)
(9.77275 1.17642 2.23536e-17)
(10.0618 1.35497 -2.17789e-15)
(10.3724 1.55299 6.89249e-15)
(10.6565 1.7839 1.09955e-17)
(11.2829 2.14512 0)
(2.25462 14.5155 9.06946e-18)
(2.85719 14.8154 1.54464e-17)
(3.50732 15.0656 -6.79976e-17)
(4.17403 15.2573 3.14491e-16)
(4.84065 15.368 -7.92448e-17)
(5.51228 15.4013 -1.53208e-16)
(6.15429 15.3697 1.73868e-16)
(6.74199 15.3057 0)
(7.28549 15.2865 4.57013e-16)
(7.82321 15.4211 1.6418e-16)
(8.40269 15.7567 0)
(8.9885 16.0949 2.86622e-16)
(9.33411 15.8404 -1.41997e-16)
(8.91101 14.1852 4.21891e-16)
(7.13804 10.6827 0)
(4.0296 6.00859 -9.66829e-16)
(0.707281 2.01465 1.50325e-15)
(-1.49361 0.083281 -1.48976e-17)
(-2.58986 -0.333785 0)
(-3.25634 -0.145772 1.89619e-15)
(-3.86062 0.102107 -1.65839e-15)
(-4.46325 0.250353 -8.44148e-17)
(-5.08069 0.321164 -1.22146e-15)
(-5.72479 0.358242 -1.07876e-15)
(-6.39064 0.396105 0)
(-7.06681 0.459186 0)
(-7.74374 0.558271 -1.25216e-16)
(-8.41602 0.6928 -1.54719e-17)
(-9.08264 0.859528 9.50558e-16)
(-9.74654 1.0517 -2.91357e-17)
(-10.4064 1.25901 2.72033e-17)
(-11.0376 1.46324 3.49068e-15)
(-11.5859 1.63425 0)
(-11.9427 1.74095 1.33821e-14)
(-11.9026 1.73202 -4.70904e-17)
(-11.1925 1.5493 0)
(-9.54198 1.1381 2.64185e-17)
(-6.9582 0.297605 0)
(-4.39033 -0.681219 3.71461e-15)
(1.68619 14.164 -9.22112e-18)
(1.11693 13.7388 3.06652e-17)
(0.517563 13.186 -1.67907e-17)
(-0.101074 12.5013 9.55749e-18)
(-0.676632 11.6923 -6.66344e-18)
(-1.18542 10.7541 -1.00045e-16)
(-1.5909 9.70623 1.22161e-16)
(-1.85504 8.60106 -2.14413e-16)
(-1.95926 7.48756 -1.71737e-16)
(-1.90483 6.40057 -2.2425e-16)
(-1.70647 5.37513 5.19102e-16)
(-1.38424 4.4395 -6.43741e-16)
(-0.9621 3.60574 -3.97888e-16)
(-0.465469 2.87834 4.59497e-16)
(0.0804399 2.25777 -1.41471e-15)
(0.656376 1.73661 2.93333e-16)
(1.24802 1.29909 0)
(1.84828 0.937709 -1.35292e-15)
(2.44752 0.645664 4.89313e-16)
(3.04027 0.412887 -1.99927e-15)
(3.62531 0.231566 0)
(4.20307 0.0975758 1.43343e-15)
(4.7733 0.0094872 1.2015e-15)
(5.33232 -0.0323304 -1.07511e-15)
(5.8711 -0.0297564 0)
(6.38188 0.00959262 -9.26771e-16)
(6.863 0.0789308 0)
(7.31478 0.173404 0)
(7.73733 0.288586 0)
(8.13132 0.419856 2.95386e-16)
(8.49846 0.563221 0)
(8.84144 0.715127 0)
(9.1639 0.872985 -1.61514e-15)
(9.47073 1.03546 -1.38994e-15)
(9.76831 1.20346 0)
(10.0608 1.38075 -1.96311e-15)
(10.3738 1.57828 2.67072e-17)
(10.6611 1.81519 0)
(11.247 2.17594 -1.21259e-15)
(2.81377 13.7802 -1.31163e-17)
(3.37008 14.0727 1.01754e-17)
(3.96834 14.3273 0)
(4.58705 14.5349 -4.54181e-18)
(5.18767 14.6829 -1.89569e-16)
(5.76465 14.7828 1.50431e-16)
(6.304 14.8387 1.09418e-17)
(6.80218 14.8545 -4.0348e-16)
(7.26877 14.8416 -2.39323e-17)
(7.71947 14.8388 4.06238e-16)
(8.19066 14.9351 -1.31993e-16)
(8.73803 15.223 2.54579e-16)
(9.35666 15.5892 1.17937e-16)
(9.80099 15.4947 9.67776e-17)
(9.45822 14.0485 0)
(7.60826 10.6678 -1.55071e-16)
(4.25704 6.05111 -4.18754e-16)
(0.67826 2.16827 -2.51e-15)
(-1.55104 0.495738 1.00082e-15)
(-2.55925 0.273667 -1.10691e-15)
(-3.21696 0.425017 -1.60094e-16)
(-3.82983 0.538387 0)
(-4.45356 0.578442 1.01439e-15)
(-5.10157 0.585605 6.1984e-17)
(-5.76747 0.594194 -3.10087e-17)
(-6.44128 0.627915 -4.17366e-16)
(-7.11674 0.697857 9.67267e-17)
(-7.79152 0.805131 2.11487e-16)
(-8.4674 0.947305 -8.17779e-16)
(-9.14952 1.11742 -5.06466e-17)
(-9.83726 1.30409 1.63968e-15)
(-10.5045 1.48643 2.96552e-15)
(-11.0936 1.62929 0)
(-11.4922 1.69671 4.56572e-17)
(-11.4922 1.63437 -5.15523e-15)
(-10.8186 1.38575 0)
(-9.21023 0.910887 -1.10776e-14)
(-6.71431 0.0411816 0)
(-4.42042 -0.927376 -3.1535e-15)
(2.28672 13.4491 9.26815e-18)
(1.76105 13.0586 -8.80581e-18)
(1.20831 12.558 0)
(0.641464 11.9403 0)
(0.114039 11.2155 8.12763e-18)
(-0.35823 10.3783 1.91957e-16)
(-0.745772 9.44387 0)
(-1.01584 8.45806 -2.35936e-16)
(-1.15162 7.46179 -3.09313e-16)
(-1.1527 6.48126 3.86118e-16)
(-1.02836 5.5449 -1.13987e-18)
(-0.792082 4.67717 2.83372e-16)
(-0.460395 3.88881 -1.74038e-17)
(-0.0523053 3.18564 1.24736e-15)
(0.412243 2.57198 1.48766e-15)
(0.917281 2.04375 -1.59337e-15)
(1.44934 1.59115 2.49533e-16)
(1.99989 1.2102 -4.62224e-16)
(2.55889 0.895859 2.14131e-16)
(3.11992 0.640445 1.35408e-15)
(3.67986 0.437547 1.78608e-16)
(4.23732 0.28326 -1.5587e-16)
(4.79076 0.175925 -9.99171e-16)
(5.33602 0.115058 0)
(5.86451 0.0987294 5.64196e-17)
(6.36842 0.120652 1.61782e-15)
(6.84516 0.174388 -1.1355e-17)
(7.29439 0.255083 1.09194e-17)
(7.71584 0.358229 0)
(8.10988 0.479147 -2.67117e-16)
(8.47788 0.613729 0)
(8.82231 0.758354 0)
(9.14654 0.910315 1.43655e-15)
(9.45525 1.06822 1.28749e-15)
(9.75451 1.23283 0)
(10.0484 1.40803 1.7655e-15)
(10.3609 1.60403 -5.61861e-15)
(10.6486 1.84461 1.7901e-17)
(11.1919 2.20236 1.08257e-15)
(3.14952 13.185 -3.22824e-18)
(3.63382 13.4759 7.52046e-18)
(4.15771 13.7422 -4.4577e-17)
(4.70074 13.9744 4.56246e-17)
(5.23296 14.1559 1.23216e-16)
(5.77057 14.2939 0)
(6.29584 14.3907 -2.28779e-16)
(6.79401 14.4527 1.61458e-17)
(7.26503 14.4878 -1.39012e-16)
(7.7094 14.4991 -2.58198e-16)
(8.1374 14.5042 0)
(8.58327 14.5743 -4.89064e-16)
(9.10905 14.81 -3.66156e-16)
(9.72883 15.1537 -8.11295e-16)
(10.1907 15.0856 0)
(9.78518 13.6438 -4.6903e-16)
(7.69262 10.2161 -5.49913e-16)
(4.01674 5.67001 7.46276e-16)
(0.369836 2.1781 -1.1001e-15)
(-1.5938 0.951309 1.31717e-15)
(-2.48638 0.812481 1.51804e-16)
(-3.16209 0.849865 -1.20708e-15)
(-3.81757 0.85086 0)
(-4.48375 0.823814 -9.91338e-16)
(-5.15899 0.800548 5.34611e-17)
(-5.8373 0.803898 4.17079e-16)
(-6.51661 0.844933 0)
(-7.198 0.925969 -1.22524e-17)
(-7.88616 1.04507 3.4526e-17)
(-8.5886 1.19473 1.39113e-15)
(-9.30597 1.36204 -1.3723e-15)
(-10.012 1.5232 -2.62742e-15)
(-10.6465 1.63793 2.56512e-15)
(-11.0945 1.66528 3.9084e-18)
(-11.1436 1.54797 4.52734e-15)
(-10.515 1.23123 7.17196e-15)
(-8.9539 0.692101 4.89627e-15)
(-6.53847 -0.198419 -4.30671e-17)
(-4.45218 -1.14269 1.30233e-17)
(2.69104 12.8634 -2.93827e-18)
(2.23384 12.4935 -4.59576e-18)
(1.74879 12.0258 1.09283e-17)
(1.24573 11.4563 -2.78032e-18)
(0.773068 10.7966 -1.12452e-16)
(0.342494 10.0392 6.33036e-17)
(-0.0203876 9.1955 1.73249e-16)
(-0.285551 8.30676 5.79645e-16)
(-0.437576 7.4079 3.14424e-16)
(-0.475005 6.51872 -3.66898e-16)
(-0.403746 5.66254 -2.25376e-17)
(-0.232659 4.86028 -2.87711e-16)
(0.0266301 4.12038 0)
(0.360209 3.44867 -1.2307e-17)
(0.752981 2.85109 -8.94021e-16)
(1.19244 2.32507 4.59611e-16)
(1.6669 1.86571 -4.32718e-16)
(2.1676 1.47203 0)
(2.68493 1.14068 7.48659e-16)
(3.21207 0.866316 -1.39062e-15)
(3.74452 0.644269 0)
(4.27945 0.471219 1.14595e-15)
(4.81426 0.345471 0)
(5.34424 0.266113 -5.71975e-17)
(5.86101 0.23128 5.46097e-17)
(6.35664 0.235801 -7.43619e-16)
(6.82778 0.273783 -1.18909e-17)
(7.27346 0.340388 -1.00531e-17)
(7.69297 0.431087 4.17176e-18)
(8.08634 0.541212 -2.51379e-16)
(8.45461 0.666578 -4.38714e-16)
(8.79993 0.803508 7.50258e-16)
(9.12541 0.949195 2.22487e-17)
(9.43546 1.10217 6.05905e-18)
(9.73582 1.26306 0)
(10.0304 1.43583 2.33706e-17)
(10.3414 1.63 2.52767e-15)
(10.6284 1.87314 4.94815e-18)
(11.1316 2.22634 1.10161e-15)
(3.52461 12.6643 -1.40104e-18)
(3.96714 12.9488 -1.1076e-17)
(4.44686 13.2161 0)
(4.94628 13.4553 -1.21454e-17)
(5.43836 13.6512 8.64431e-17)
(5.93291 13.8139 0)
(6.41548 13.9436 -8.78178e-17)
(6.87698 14.0427 5.63583e-16)
(7.32158 14.1186 -6.57456e-16)
(7.74998 14.1739 2.03289e-16)
(8.16333 14.2051 2.18719e-16)
(8.56794 14.2207 6.70306e-16)
(8.99065 14.2799 4.35987e-16)
(9.49568 14.4889 4.45902e-16)
(10.1044 14.8008 1.07714e-16)
(10.5197 14.6619 3.23653e-16)
(9.90506 13.0453 4.47142e-16)
(7.40134 9.44763 5.13295e-16)
(3.4145 5.08421 -5.18557e-16)
(-0.0095624 2.20547 -2.22116e-15)
(-1.59978 1.36703 0)
(-2.44438 1.20698 -1.36868e-18)
(-3.16356 1.14471 9.27241e-16)
(-3.8633 1.07665 9.21427e-16)
(-4.55705 1.01768 -4.96506e-17)
(-5.24618 0.988676 -3.86227e-16)
(-5.93371 1.00035 2.93066e-18)
(-6.62444 1.05569 -1.99424e-16)
(-7.32633 1.15281 2.03522e-17)
(-8.04982 1.28337 -2.52812e-15)
(-8.79776 1.43249 1.68945e-18)
(-9.54501 1.5731 -3.68673e-17)
(-10.2301 1.65968 -2.35113e-15)
(-10.7347 1.64595 6.2213e-18)
(-10.8419 1.47162 -4.10851e-15)
(-10.2665 1.08385 -1.29217e-14)
(-8.75783 0.479047 4.4084e-15)
(-6.41625 -0.426833 2.26332e-15)
(-4.47774 -1.33645 -2.48429e-15)
(3.10599 12.3552 4.46154e-18)
(2.69025 12.0055 3.33381e-18)
(2.24861 11.5676 -1.07264e-17)
(1.7901 11.0384 -3.13555e-17)
(1.35782 10.431 6.85503e-17)
(0.960057 9.73714 1.20338e-17)
(0.618671 8.96641 -5.23965e-16)
(0.360862 8.15655 -2.59054e-16)
(0.200283 7.33828 -2.14112e-17)
(0.138588 6.52689 0)
(0.171547 5.74177 -4.29488e-16)
(0.293066 5.00049 5.11164e-16)
(0.494832 4.30914 -6.03702e-16)
(0.766577 3.6729 -3.58918e-16)
(1.09702 3.09733 3.95165e-16)
(1.47707 2.58064 3.91304e-16)
(1.89718 2.12184 1.51848e-15)
(2.34912 1.72161 -3.61249e-16)
(2.8244 1.3784 -6.78559e-16)
(3.31626 1.089 0)
(3.81939 0.850455 -1.1451e-15)
(4.32995 0.660313 -9.2464e-16)
(4.84443 0.517236 -4.98293e-18)
(5.35769 0.420101 -1.10721e-16)
(5.86136 0.3673 -4.77731e-17)
(6.34735 0.354734 7.56984e-16)
(6.81171 0.376984 -1.94384e-17)
(7.2528 0.429352 1.63247e-16)
(7.66952 0.507345 3.62737e-17)
(8.06151 0.606365 2.2664e-16)
(8.42945 0.722177 -1.46687e-18)
(8.77517 0.851055 -1.46461e-15)
(9.10149 0.990134 -1.22435e-15)
(9.4125 1.13783 -1.08779e-15)
(9.71359 1.2947 -2.89199e-17)
(10.0086 1.46472 1.29233e-17)
(10.3176 1.6568 -2.42333e-15)
(10.6033 1.90122 -1.70946e-15)
(11.0694 2.24859 -1.00827e-15)
(3.85555 12.2142 3.86895e-18)
(4.25853 12.4931 6.7487e-18)
(4.69651 12.7612 5.51891e-17)
(5.15344 13.0073 -2.5345e-16)
(5.60414 13.2156 1.42484e-16)
(6.06124 13.3962 -1.70316e-16)
(6.51514 13.5469 3.80403e-16)
(6.95513 13.6681 0)
(7.38342 13.7668 2.08527e-16)
(7.79946 13.8475 -5.85623e-19)
(8.20453 13.911 -1.98848e-16)
(8.60045 13.9525 -6.38187e-16)
(8.98913 13.9748 -2.23306e-16)
(9.39544 14.0331 0)
(9.8885 14.2324 0)
(10.4792 14.503 0)
(10.7769 14.2041 0)
(9.7946 12.2728 -4.16823e-16)
(6.7593 8.47893 4.98745e-16)
(2.62505 4.48059 6.71268e-16)
(-0.325944 2.28292 -7.84773e-16)
(-1.62573 1.67328 7.12218e-16)
(-2.47111 1.47461 -7.1247e-16)
(-3.2278 1.34978 -4.98131e-17)
(-3.95202 1.24922 -2.46931e-17)
(-4.65898 1.18456 3.84319e-16)
(-5.35891 1.16549 8.57611e-17)
(-6.06104 1.195 0)
(-6.77711 1.27083 0)
(-7.52122 1.38333 -6.4695e-20)
(-8.29958 1.51528 0)
(-9.08954 1.63598 2.21236e-15)
(-9.82912 1.69419 -2.22574e-15)
(-10.3973 1.638 -4.16521e-15)
(-10.5716 1.40408 7.50919e-15)
(-10.0581 0.941894 5.96349e-15)
(-8.60795 0.269465 -4.01731e-15)
(-6.3356 -0.648445 -4.21419e-15)
(-4.49492 -1.5164 2.33336e-15)
(3.47438 11.9152 0)
(3.09643 11.5818 -1.47831e-18)
(2.69351 11.168 1.29568e-17)
(2.27375 10.6716 -1.19376e-16)
(1.87654 10.1071 1.31344e-16)
(1.50767 9.46541 -1.20462e-16)
(1.18654 8.75475 -2.04974e-17)
(0.937893 8.01025 1.97045e-16)
(0.77415 7.25972 2.69717e-16)
(0.696608 6.51502 0)
(0.702052 5.7925 2.08763e-16)
(0.786022 5.10704 -7.23271e-16)
(0.942171 4.46265 1.43457e-15)
(1.16302 3.86345 3.34321e-16)
(1.44009 3.31339 -7.25417e-16)
(1.76718 2.81146 -7.09058e-16)
(2.13689 2.35905 -6.83838e-16)
(2.54218 1.95773 0)
(2.97595 1.60743 0)
(3.43187 1.30691 0)
(3.90441 1.05475 1.05729e-15)
(4.38908 0.849555 0)
(4.88178 0.690452 -7.69912e-16)
(5.37699 0.576512 -1.02612e-16)
(5.86625 0.506493 -7.30037e-16)
(6.34133 0.477202 -6.65302e-16)
(6.79772 0.483831 0)
(7.23321 0.52189 -1.35629e-16)
(7.64627 0.586992 -3.77536e-17)
(8.03615 0.674626 7.09087e-18)
(8.40316 0.78056 7.72622e-16)
(8.7488 0.901056 -2.6774e-18)
(9.07552 1.03319 1.17056e-15)
(9.38715 1.1753 -1.01378e-15)
(9.68867 1.32784 0)
(9.98365 1.49479 -2.06662e-17)
(10.2905 1.6845 -3.21868e-18)
(10.5744 1.92909 1.61154e-15)
(11.0063 2.26972 -9.9506e-18)
(4.1721 11.8156 -1.29885e-18)
(4.54455 12.088 0)
(4.9502 12.3541 -7.77805e-17)
(5.37439 12.6023 1.00419e-16)
(5.79357 12.8167 -6.83996e-17)
(6.2206 13.0082 1.65422e-16)
(6.64621 13.1742 -1.77295e-16)
(7.06106 13.3134 -1.68565e-16)
(7.46798 13.431 0)
(7.86641 13.5298 -1.92509e-16)
(8.25769 13.6131 -1.854e-16)
(8.64461 13.6811 1.75349e-16)
(9.02565 13.7271 5.6087e-16)
(9.40066 13.7535 1.96472e-16)
(9.79559 13.8182 -5.56756e-16)
(10.2849 14.0238 -3.63976e-16)
(10.8454 14.2374 2.6268e-16)
(10.9326 13.6821 1.80036e-16)
(9.41358 11.3258 -9.67874e-17)
(5.84091 7.42335 1.25022e-16)
(1.82739 3.96872 4.1348e-16)
(-0.569027 2.36637 1.01096e-16)
(-1.70239 1.87874 -1.07711e-16)
(-2.55798 1.65305 -6.90215e-16)
(-3.3314 1.4996 0)
(-4.06587 1.39423 -3.45744e-16)
(-4.78318 1.34177 -1.62519e-16)
(-5.49867 1.34449 -1.53658e-16)
(-6.22875 1.39922 -5.82429e-16)
(-6.99204 1.49449 2.25378e-15)
(-7.79913 1.6102 9.9778e-16)
(-8.63131 1.71153 3.32097e-17)
(-9.42744 1.74102 -3.18644e-18)
(-10.0647 1.64068 0)
(-10.3153 1.34424 -3.54156e-15)
(-9.87363 0.803613 0)
(-8.49009 0.0607947 0)
(-6.28567 -0.867449 1.99836e-15)
(-4.50415 -1.68956 -2.11785e-17)
(3.81994 11.5264 1.85671e-18)
(3.47174 11.2078 8.8411e-18)
(3.09977 10.815 -5.39104e-18)
(2.71179 10.3464 1.98264e-17)
(2.34384 9.81784 -1.46695e-16)
(1.99981 9.21973 1.39473e-16)
(1.69689 8.5593 3.07914e-17)
(1.45805 7.86982 -1.90029e-16)
(1.29438 7.17672 -2.4189e-16)
(1.20672 6.48946 -2.97869e-16)
(1.19238 5.82199 -7.57444e-16)
(1.24794 5.18716 0)
(1.36807 4.5873 -5.44703e-16)
(1.54717 4.02486 -1.23499e-17)
(1.77893 3.50218 0)
(2.05945 3.01893 -6.17875e-16)
(2.38309 2.57748 -2.97797e-16)
(2.7445 2.17968 -2.91305e-16)
(3.13803 1.8267 1.09745e-15)
(3.55807 1.5188 1.03168e-15)
(3.99928 1.256 -1.19207e-16)
(4.45697 1.03789 8.90782e-16)
(4.92667 0.864322 2.10317e-16)
(5.40261 0.734738 -9.54496e-17)
(5.87627 0.648337 6.43305e-16)
(6.33922 0.602826 4.01466e-17)
(6.78651 0.594073 0)
(7.21539 0.617858 0)
(7.62392 0.669957 -6.9457e-18)
(8.01096 0.746003 1.91167e-17)
(8.37642 0.841796 -7.45783e-16)
(8.72145 0.953601 -2.37945e-18)
(9.04818 1.07847 1.15249e-15)
(9.36006 1.21469 9.6009e-16)
(9.66169 1.36263 2.42524e-17)
(9.9564 1.52618 -3.51275e-18)
(10.2608 1.71325 4.33648e-15)
(10.5424 1.95689 -1.58084e-15)
(10.943 2.29 9.68416e-18)
(4.46808 11.4597 -4.08259e-19)
(4.81434 11.7257 0)
(5.19221 11.989 3.2362e-17)
(5.58803 12.2376 0)
(5.97929 12.4556 -1.16063e-16)
(6.37981 12.6547 1.20192e-16)
(6.78078 12.8311 1.43694e-16)
(7.17448 12.9827 1.65053e-16)
(7.56309 13.1137 0)
(7.94541 13.2261 -1.52314e-16)
(8.32246 13.3226 1.90583e-16)
(8.69735 13.4057 -3.61191e-16)
(9.07037 13.4743 -1.80786e-16)
(9.43911 13.5214 -1.72897e-16)
(9.80233 13.5526 3.62652e-16)
(10.1918 13.6361 3.56875e-16)
(10.6883 13.8611 -3.46601e-16)
(11.1928 13.9752 -3.30889e-16)
(10.933 13.0344 0)
(8.74339 10.221 9.99277e-17)
(4.77224 6.39493 -2.47961e-16)
(1.13688 3.58309 7.65749e-17)
(-0.774238 2.43108 -4.98659e-18)
(-1.82302 2.0096 1.65487e-15)
(-2.67745 1.77575 -8.85886e-17)
(-3.45482 1.62103 3.90471e-17)
(-4.19689 1.53095 1.55821e-16)
(-4.92844 1.50486 1.6518e-16)
(-5.67213 1.53801 5.00608e-16)
(-6.45208 1.61655 -1.04992e-15)
(-7.28444 1.71679 -9.06814e-16)
(-8.15578 1.79919 -3.92059e-15)
(-9.00745 1.79949 3.82736e-15)
(-9.71685 1.6529 -5.78075e-17)
(-10.0522 1.29063 3.44797e-15)
(-9.69404 0.667246 -1.16974e-16)
(-8.38827 -0.149137 6.4214e-17)
(-6.25481 -1.08728 -2.4893e-17)
(-4.50667 -1.8615 2.06064e-15)
(4.14078 11.1798 -1.90841e-18)
(3.81787 10.8742 -5.42912e-18)
(3.47219 10.4996 1.91556e-17)
(3.11117 10.0551 0)
(2.7683 9.55717 9.13485e-17)
(2.44598 8.99609 0)
(2.15963 8.37846 0)
(1.9307 7.73589 0)
(1.76913 7.09208 4.87369e-16)
(1.67534 6.45461 -3.07549e-16)
(1.64695 5.8357 3.58776e-16)
(1.6809 5.24663 0)
(1.77264 4.68834 0)
(1.91755 4.16121 -5.65158e-16)
(2.11114 3.66672 0)
(2.35102 3.20483 5.63339e-16)
(2.6332 2.77753 1.08139e-17)
(2.95398 2.38707 0)
(3.30905 2.03531 -7.64863e-16)
(3.69386 1.72358 -1.19721e-15)
(4.10354 1.45304 -8.83795e-16)
(4.5335 1.22434 -8.29169e-16)
(4.97925 1.03802 1.51735e-15)
(5.43491 0.89406 0)
(5.89186 0.792279 5.99567e-16)
(6.34154 0.731249 6.23348e-16)
(6.77863 0.707487 2.67185e-16)
(7.19993 0.71714 0)
(7.60306 0.756209 -2.73652e-17)
(7.98651 0.8205 -1.96472e-16)
(8.34981 0.90592 6.99777e-16)
(8.69372 1.00877 -2.0824e-18)
(9.02001 1.1261 -1.04929e-15)
(9.33179 1.25614 8.80605e-16)
(9.63323 1.39916 3.34282e-18)
(9.92737 1.55901 2.22677e-17)
(10.229 1.74314 -4.17338e-15)
(10.508 1.98476 1.48183e-15)
(10.8799 2.30957 2.0384e-15)
(4.74781 11.1385 -1.43574e-18)
(5.07205 11.3978 2.03568e-18)
(5.42655 11.6573 0)
(5.79851 11.9046 6.19798e-17)
(6.16632 12.1237 0)
(6.54447 12.327 0)
(6.9234 12.5102 3.38428e-18)
(7.29734 12.6707 1.42465e-16)
(7.66839 12.812 2.89519e-16)
(8.03492 12.9352 6.21772e-16)
(8.39776 13.0424 3.10812e-16)
(8.7598 13.1362 3.18155e-16)
(9.12174 13.2177 0)
(9.48389 13.2856 4.98706e-16)
(9.84244 13.3338 -1.61782e-16)
(10.197 13.3755 0)
(10.5928 13.4928 3.23132e-16)
(11.108 13.7334 3.22165e-16)
(11.4911 13.6522 0)
(10.7132 12.2059 3.32719e-16)
(7.81065 9.01659 -3.93894e-16)
(3.69853 5.48958 0)
(0.591847 3.31662 -8.38661e-17)
(-0.965276 2.46945 4.61155e-17)
(-1.96286 2.09285 4.19976e-17)
(-2.80943 1.87006 6.44938e-16)
(-3.58867 1.73537 3.09868e-19)
(-4.34111 1.67695 -1.80683e-17)
(-5.09846 1.68711 -1.77199e-17)
(-5.89191 1.74886 3.05913e-17)
(-6.74421 1.8341 9.53525e-16)
(-7.64861 1.89784 3.60316e-15)
(-8.55086 1.86824 6.02224e-17)
(-9.33129 1.67308 -3.57059e-15)
(-9.75724 1.24144 -3.17699e-15)
(-9.49519 0.530587 -5.20388e-15)
(-8.28283 -0.362669 -3.51031e-15)
(-6.22917 -1.31161 6.24438e-17)
(-4.50264 -2.03721 -1.99736e-15)
(4.44131 10.8672 -1.47884e-18)
(4.13972 10.5735 -2.72791e-17)
(3.8163 10.2152 6.73244e-17)
(3.47834 9.79176 0)
(3.15702 9.32047 1.89099e-16)
(2.85377 8.7914 0)
(2.58251 8.21068 -1.58289e-16)
(2.36322 7.60865 7.38074e-16)
(2.20506 7.00758 -6.72901e-16)
(2.10792 6.41367 0)
(2.0696 5.83767 6.86811e-16)
(2.08715 5.28989 8.13188e-16)
(2.15646 4.76987 0)
(2.27349 4.27623 -9.81542e-16)
(2.435 3.80995 2.53379e-16)
(2.63967 3.37075 -2.47953e-16)
(2.88498 2.95999 2.51104e-16)
(3.16857 2.57987 4.7754e-16)
(3.48746 2.23263 -1.64009e-18)
(3.83815 1.9203 6.4568e-16)
(4.21653 1.64494 2.14365e-16)
(4.61842 1.40802 -1.93392e-16)
(5.03954 1.21078 -7.09087e-16)
(5.47406 1.05389 6.47558e-16)
(5.91333 0.937862 -5.28958e-16)
(6.34869 0.862087 -6.2452e-16)
(6.77455 0.823799 -2.5311e-16)
(7.1873 0.819551 -3.47864e-18)
(7.58418 0.845632 2.93987e-17)
(7.96329 0.89809 1.87131e-16)
(8.3238 0.972956 6.88071e-19)
(8.66606 1.06662 -1.77996e-18)
(8.99149 1.17613 1.04186e-15)
(9.30279 1.29971 -8.98187e-16)
(9.60372 1.43755 2.23916e-17)
(9.89702 1.59336 -1.29501e-15)
(10.1956 1.77421 2.01322e-15)
(10.4718 2.01283 0)
(10.8174 2.32884 -1.96656e-15)
(5.01207 10.8458 -2.30326e-19)
(5.3174 11.0985 0)
(5.65176 11.3537 0)
(6.00311 11.5985 -1.21546e-16)
(6.35059 11.8174 -5.68797e-18)
(6.70897 12.0227 0)
(7.06867 12.21 0)
(7.42488 12.3765 -5.21505e-16)
(7.77997 12.5253 -1.7464e-17)
(8.13191 12.6566 -1.62018e-17)
(8.48128 12.7723 -7.43077e-16)
(8.83105 12.8748 -1.64651e-16)
(9.18165 12.9652 3.01788e-16)
(9.53431 13.0451 -1.15925e-17)
(9.8888 13.113 0)
(10.2399 13.1645 0)
(10.593 13.2255 -9.30965e-16)
(11.0146 13.3892 -1.57345e-16)
(11.5441 13.6027 1.46018e-16)
(11.6816 13.1905 -3.06318e-16)
(10.2208 11.184 6.69033e-16)
(6.70714 7.81547 4.06678e-16)
(2.74065 4.76389 -5.242e-16)
(0.181264 3.13739 -7.27324e-16)
(-1.14129 2.48554 1.25866e-16)
(-2.10539 2.15157 -6.69947e-16)
(-2.94364 1.95861 -7.346e-17)
(-3.72619 1.86204 1.75756e-17)
(-4.49887 1.84647 -1.57122e-17)
(-5.30248 1.89057 6.17057e-17)
(-6.16786 1.96085 4.81187e-18)
(-7.09633 2.00588 -1.80143e-15)
(-8.03983 1.94543 -4.73196e-17)
(-8.8848 1.6991 3.4792e-17)
(-9.4024 1.19421 0)
(-9.24698 0.390943 4.99738e-15)
(-8.14754 -0.582986 3.3837e-15)
(-6.19045 -1.54374 0)
(-4.48965 -2.22023 0)
(4.72352 10.5829 0)
(4.44015 10.3001 2.85933e-17)
(4.136 9.95647 -1.16467e-16)
(3.81799 9.55184 -7.09621e-17)
(3.51546 9.10403 -1.78034e-16)
(3.22899 8.603 0)
(2.97144 8.05454 0)
(2.7615 7.48798 -3.49213e-16)
(2.6075 6.92437 4.33569e-16)
(2.509 6.36876 0)
(2.46377 5.83094 -3.30473e-16)
(2.46895 5.32044 -4.05583e-16)
(2.52041 4.83528 4.3559e-16)
(2.61469 4.37304 4.6057e-16)
(2.74938 3.93444 -8.9062e-16)
(2.92377 3.51843 0)
(3.13655 3.12573 -2.23265e-16)
(3.38644 2.75831 -2.28906e-19)
(3.67165 2.41838 1.04106e-15)
(3.98976 2.10831 -2.12848e-16)
(4.33752 1.8308 2.02504e-16)
(4.71138 1.588 -1.74413e-16)
(5.10745 1.38178 2.47229e-16)
(5.52015 1.21351 -1.29166e-15)
(5.9409 1.08448 -4.91869e-16)
(6.36099 0.994894 4.83311e-16)
(6.77464 0.942685 -3.07587e-17)
(7.17791 0.924888 0)
(7.56769 0.938133 -2.47475e-17)
(7.94172 0.978741 1.67962e-16)
(8.29879 1.04293 -3.09383e-16)