/*--------------------------------*- C++ -*----------------------------------*\
  =========                 |
  \\      /  F ield         | OpenFOAM: The Open Source CFD Toolbox
   \\    /   O peration     | Website:  https://openfoam.org
    \\  /    A nd           | Version:  9
     \\/     M anipulation  |
\*---------------------------------------------------------------------------*/
FoamFile
{
    format      ascii;
    class       volScalarField;
    location    "0.14";
    object      nut;
}
// * * * * * * * * * * * * * * * * * * * * * * * * * * * * * * * * * * * * * //

dimensions      [0 2 -1 0 0 0 0];

internalField   nonuniform List<scalar> 
12225
(
4.04768e-05
3.83178e-05
3.62504e-05
3.44199e-05
3.2952e-05
3.18978e-05
3.12564e-05
3.09941e-05
3.10587e-05
3.13911e-05
3.19326e-05
3.26295e-05
3.34354e-05
3.43118e-05
3.52297e-05
3.61647e-05
3.71227e-05
3.8511e-05
0.000281048
0.000209265
0.000176266
0.000157438
0.00014627
0.000139686
0.000135792
0.000133429
0.000131915
0.000130858
0.000130043
0.000129357
0.000128739
0.000128162
0.000127623
0.00012708
0.000126689
0.000125721
0.000556047
0.000419906
0.000349813
0.000304733
0.000272445
0.00024798
0.000228762
0.000213296
0.000200666
0.000190264
0.000181647
0.000174478
0.000168487
0.000163452
0.000159199
0.00015554
0.000152391
0.000149303
0.000740308
0.00062582
0.000544114
0.000484996
0.000439767
0.000403645
0.000373834
0.000348596
0.000326843
0.000307877
0.000291226
0.000276542
0.000263554
0.000252032
0.00024178
0.000232579
0.00022427
0.000216563
0.000817069
0.000759141
0.000700544
0.000648575
0.000603893
0.000565577
0.000532465
0.000503502
0.000477864
0.000454942
0.00043429
0.000415572
0.000398531
0.000382953
0.000368659
0.000355462
0.000343215
0.000331816
0.0008421
0.000819687
0.000789923
0.000757604
0.00072555
0.000695158
0.000666958
0.000641007
0.000617162
0.000595221
0.000574982
0.000556256
0.000538879
0.000522703
0.000507597
0.00049343
0.000480097
0.000467643
0.000849261
0.000841808
0.000829741
0.000814187
0.000796478
0.000777757
0.000758844
0.000740248
0.000722258
0.00070502
0.000688594
0.000672987
0.000658178
0.000644129
0.000630791
0.00061811
0.000606042
0.000594716
0.00085112
0.000848747
0.00084448
0.000838236
0.000830245
0.000820893
0.000810595
0.000799717
0.000788547
0.000777303
0.00076614
0.000755165
0.000744446
0.000734026
0.000723928
0.00071416
0.000704735
0.000695805
0.00085156
0.000850665
0.00084917
0.000846886
0.00084374
0.000839757
0.000835032
0.000829691
0.00082387
0.000817699
0.000811289
0.000804737
0.000798117
0.000791491
0.000784905
0.000778394
0.000771996
0.000765848
0.000851652
0.000851133
0.000850468
0.000849564
0.000848347
0.000846771
0.000844825
0.000842518
0.000839881
0.000836954
0.000833784
0.000830416
0.000826893
0.000823256
0.000819539
0.000815775
0.000811996
0.0008083
0.000851668
0.00085123
0.000850778
0.000850278
0.000849697
0.000849006
0.000848182
0.00084721
0.000846086
0.000844811
0.000843395
0.000841848
0.000840186
0.000838424
0.000836578
0.000834665
0.000832705
0.000830753
0.000851669
0.000851245
0.000850835
0.000850429
0.000850013
0.000849575
0.0008491
0.000848579
0.000848001
0.000847363
0.000846662
0.000845898
0.000845073
0.000844192
0.00084326
0.000842282
0.00084127
0.000840255
0.000851668
0.000851244
0.000850843
0.000850459
0.000850088
0.000849725
0.000849365
0.000849001
0.000848628
0.000848242
0.000847839
0.000847418
0.000846977
0.000846515
0.000846033
0.000845532
0.000845016
0.000844504
0.000851667
0.000851242
0.000850839
0.000850458
0.000850096
0.000849751
0.00084942
0.000849101
0.000848792
0.00084849
0.000848193
0.0008479
0.000847609
0.000847319
0.000847029
0.000846739
0.00084645
0.000846176
0.000851666
0.000851239
0.000850835
0.000850452
0.00085009
0.000849746
0.000849419
0.000849108
0.000848811
0.000848528
0.000848256
0.000847995
0.000847745
0.000847503
0.000847271
0.000847046
0.000846831
0.000846636
0.000851665
0.000851236
0.000850831
0.000850447
0.000850083
0.000849737
0.000849409
0.000849098
0.000848801
0.000848519
0.00084825
0.000847994
0.00084775
0.000847516
0.000847294
0.000847081
0.000846881
0.000846702
0.000851664
0.000851235
0.000850828
0.000850442
0.000850077
0.00084973
0.000849401
0.000849088
0.00084879
0.000848507
0.000848237
0.00084798
0.000847735
0.000847502
0.000847279
0.000847067
0.000846866
0.000846689
0.000851663
0.000851234
0.000850826
0.00085044
0.000850073
0.000849725
0.000849395
0.000849081
0.000848782
0.000848498
0.000848227
0.000847969
0.000847723
0.000847488
0.000847264
0.000847051
0.000846849
0.00084667
0.000851663
0.000851233
0.000850825
0.000850439
0.000850072
0.000849724
0.000849393
0.000849078
0.000848779
0.000848494
0.000848223
0.000847964
0.000847717
0.000847482
0.000847257
0.000847042
0.00084684
0.00084666
0.000851664
0.000851234
0.000850826
0.00085044
0.000850074
0.000849726
0.000849396
0.000849082
0.000848783
0.000848497
0.000848226
0.000847966
0.000847718
0.000847481
0.000847255
0.000847038
0.000846833
0.000846651
0.000851664
0.000851235
0.000850829
0.000850443
0.000850078
0.00084973
0.000849399
0.000849083
0.00084878
0.00084849
0.00084821
0.000847941
0.00084768
0.000847428
0.000847184
0.000846946
0.000846717
0.000846508
0.000851665
0.000851237
0.00085083
0.000850442
0.000850069
0.000849706
0.000849351
0.000848999
0.000848648
0.000848294
0.000847935
0.000847571
0.0008472
0.000846821
0.000846434
0.000846041
0.000845644
0.000845255
0.000851664
0.000851228
0.000850794
0.000850348
0.00084987
0.000849345
0.000848762
0.000848111
0.000847389
0.000846594
0.000845729
0.000844798
0.000843808
0.000842764
0.000841675
0.000840547
0.000839392
0.000838231
0.000851634
0.000851073
0.000850343
0.000849363
0.00084808
0.000846468
0.000844532
0.000842293
0.000839787
0.000837054
0.000834138
0.000831078
0.000827914
0.000824678
0.0008214
0.000818106
0.000814819
0.000811586
0.000851287
0.000849596
0.000846721
0.000842578
0.000837263
0.00083098
0.000823973
0.000816473
0.000808677
0.000800742
0.000792789
0.000784909
0.000777165
0.000769605
0.000762257
0.000755141
0.000748271
0.000741702
0.000848318
0.000839426
0.000826161
0.000810018
0.000792359
0.000774227
0.000756321
0.000739044
0.000722594
0.000707051
0.000692426
0.000678692
0.000665803
0.000653704
0.000642338
0.000631652
0.000621597
0.000612184
0.000828548
0.000788843
0.000746034
0.000705702
0.000669462
0.000637498
0.000609441
0.000584734
0.000562838
0.000543299
0.000525746
0.000509881
0.000495463
0.000482297
0.000470224
0.000459115
0.000448861
0.000439416
0.000730726
0.000627345
0.000554506
0.000501058
0.000460316
0.000428344
0.000402629
0.000381464
0.000363704
0.000348574
0.000335528
0.000324169
0.000314198
0.000305387
0.000297555
0.000290557
0.000284275
0.000278625
0.000439249
0.000338471
0.000287935
0.000256868
0.000236361
0.00022251
0.000212993
0.000206311
0.000201505
0.000197959
0.000195271
0.000193177
0.000191499
0.000190117
0.000188947
0.000187933
0.000187036
0.00018621
7.16431e-05
6.90587e-05
6.65522e-05
6.41646e-05
6.19883e-05
6.00783e-05
5.84563e-05
5.71211e-05
5.60568e-05
5.52399e-05
5.4643e-05
5.42386e-05
5.39998e-05
5.39017e-05
5.39218e-05
5.40399e-05
5.42387e-05
5.45019e-05
5.51537e-07
1.17814e-05
1.86697e-05
2.49252e-05
3.1544e-05
3.89528e-05
4.72851e-05
5.67089e-05
6.7041e-05
7.75034e-05
8.7984e-05
9.83367e-05
0.000108433
0.000118176
0.000127495
0.000136342
0.000144682
0.000152492
0.000159749
0.000166438
0.000172549
0.00017808
0.000183035
0.000187408
0.000191164
0.000194211
0.000196382
0.000197492
0.000197584
0.000197361
0.000197482
0.00019774
0.000197477
0.000200337
4.58998e-05
0.000200603
0.000203345
4.6641e-05
0.000201405
4.6788e-05
4.78079e-05
4.87747e-05
4.97658e-05
5.07684e-05
5.17777e-05
5.27914e-05
5.3808e-05
5.48266e-05
5.58465e-05
5.68674e-05
5.7889e-05
5.89108e-05
5.99328e-05
6.09547e-05
6.19761e-05
6.29969e-05
6.40167e-05
6.50351e-05
6.6052e-05
6.70667e-05
6.80791e-05
6.90887e-05
7.0095e-05
7.10976e-05
7.20961e-05
7.30899e-05
7.40787e-05
7.50619e-05
7.6039e-05
7.70095e-05
7.79729e-05
7.89288e-05
7.98766e-05
8.08158e-05
8.17459e-05
8.26665e-05
8.3577e-05
8.4477e-05
8.53659e-05
8.62434e-05
8.7109e-05
8.79622e-05
8.88026e-05
8.96298e-05
9.04434e-05
9.12429e-05
9.20279e-05
9.2798e-05
9.35528e-05
9.42919e-05
9.5015e-05
9.57214e-05
9.6411e-05
9.70833e-05
9.77382e-05
9.83755e-05
9.89957e-05
9.96e-05
0.000100191
0.000100768
0.000101324
0.000101859
0.000102373
0.000102865
0.000103336
0.000103785
0.000104211
0.000104615
0.000104995
0.000105353
0.000105686
0.000105996
0.000106281
0.000106541
0.000106777
0.000106988
0.000107174
0.000107334
0.000107469
0.000107578
0.000107662
0.00010772
0.000107752
0.000107759
0.00010774
0.000107695
0.000107625
0.000107529
0.000107408
0.000107261
0.00010709
0.000106894
0.000106674
0.000106429
0.00010616
0.000105868
0.000105552
0.000105213
0.000104852
0.000104469
0.000104064
0.000103638
0.000103191
0.000102724
0.000102238
0.000101732
0.000101208
0.000100666
0.000100107
9.95314e-05
9.89398e-05
9.83329e-05
9.77114e-05
9.7076e-05
9.64274e-05
9.57665e-05
9.50937e-05
9.441e-05
9.37162e-05
9.30124e-05
9.23011e-05
9.15802e-05
9.08557e-05
9.01328e-05
8.94966e-05
8.90752e-05
8.86739e-05
8.82713e-05
8.78663e-05
8.74589e-05
8.70493e-05
8.66374e-05
8.62226e-05
8.58036e-05
8.53772e-05
8.49367e-05
8.44663e-05
8.39256e-05
8.32105e-05
8.19036e-05
1.70652e-06
3.3725e-05
7.07147e-05
9.78528e-05
0.000117345
0.000131896
0.000144248
0.000155902
0.000167543
0.000179359
0.000191285
0.000203172
0.000214858
0.000226203
0.000237089
0.000247423
0.000257123
0.000266118
0.000274339
0.000281723
0.000288211
0.000293738
0.000298219
0.000301514
0.000303377
0.000303412
0.000301076
0.000295913
0.000288267
0.000280139
0.000274236
0.000269282
0.000265809
0.000268164
0.00025545
0.000264222
0.000266425
0.000257878
0.000267201
0.000265147
0.000271113
0.000277293
0.000283322
0.000289671
0.000296274
0.000303073
0.000310027
0.000317114
0.000324317
0.00033163
0.000339046
0.000346564
0.000354182
0.000361899
0.000369716
0.000377632
0.000385647
0.00039376
0.000401972
0.000410281
0.000418687
0.000427187
0.00043578
0.000444464
0.000453237
0.000462095
0.000471035
0.000480054
0.000489148
0.000498313
0.000507543
0.000516835
0.000526183
0.000535582
0.000545027
0.000554512
0.000564031
0.000573579
0.000583151
0.000592739
0.000602339
0.000611944
0.00062155
0.000631151
0.000640742
0.000650318
0.000659873
0.000669404
0.000678905
0.000688373
0.000697802
0.000707188
0.000716523
0.000725799
0.000735003
0.000744114
0.000753097
0.000761896
0.000770424
0.000778283
0.000785969
0.000793536
0.000800986
0.000808314
0.000815515
0.000822583
0.000829513
0.000836299
0.000842935
0.000849416
0.000855736
0.000861891
0.000867874
0.000873682
0.000879309
0.000884752
0.000890005
0.000895064
0.000899926
0.000904588
0.000909045
0.000913294
0.000917333
0.000921159
0.00092477
0.000928163
0.000931336
0.000934288
0.000937017
0.000939522
0.000941803
0.000943858
0.000945688
0.000947292
0.000948671
0.000949826
0.000950757
0.000951466
0.000951954
0.000952223
0.000952275
0.000952113
0.00095174
0.000951158
0.00095037
0.000949382
0.000948195
0.000946815
0.000945247
0.000943494
0.000941562
0.000939456
0.000937182
0.000934746
0.000932152
0.000929411
0.000926525
0.000923503
0.000920356
0.000917076
0.000913698
0.000910214
0.000906569
0.000902626
0.000897549
0.000890613
0.00088315
0.000875501
0.000867755
0.000859944
0.000852083
0.000844183
0.000836247
0.000828278
0.000820266
0.000812189
0.000803973
0.000795507
0.000785768
0.00076627
3.20873e-06
5.19834e-05
0.000107398
0.000148913
0.000179073
0.000201603
0.000219451
0.000234702
0.000248676
0.00026209
0.000275249
0.000288217
0.000300938
0.000313311
0.000325227
0.000336584
0.000347293
0.000357279
0.000366485
0.000374873
0.000382424
0.000389137
0.000395022
0.00040008
0.0004043
0.000407665
0.00041019
0.000412051
0.000413754
0.000416166
0.00041997
0.000424885
0.00043083
0.000437857
0.000444607
0.000453355
0.00046256
0.000471867
0.000483211
0.000494912
0.000507862
0.0005213
0.000534975
0.000548919
0.000563127
0.000577584
0.000592274
0.000607184
0.000622307
0.000637638
0.000653173
0.000668909
0.000684847
0.000700986
0.000717323
0.00073386
0.000750593
0.000767523
0.000784645
0.000801957
0.000819456
0.000837137
0.000854994
0.000873023
0.000891216
0.000909566
0.000928065
0.000946705
0.000965476
0.000984368
0.00100337
0.00102248
0.00104167
0.00106094
0.00108027
0.00109966
0.00111909
0.00113855
0.00115802
0.0011775
0.00119696
0.00121641
0.00123582
0.00125518
0.00127449
0.00129373
0.00131288
0.00133194
0.0013509
0.00136974
0.00138844
0.00140699
0.00142538
0.00144357
0.00146154
0.00147926
0.00149669
0.00151379
0.00153022
0.00154619
0.00156187
0.00157731
0.00159249
0.00160741
0.00162206
0.00163643
0.0016505
0.00166427
0.00167773
0.00169085
0.00170364
0.00171607
0.00172815
0.00173985
0.00175118
0.00176211
0.00177265
0.00178278
0.0017925
0.0018018
0.00181066
0.0018191
0.00182709
0.00183463
0.00184173
0.00184837
0.00185455
0.00186027
0.00186552
0.0018703
0.00187462
0.00187846
0.00188184
0.00188474
0.00188718
0.00188915
0.00189065
0.00189169
0.00189227
0.00189239
0.00189206
0.00189128
0.00189007
0.00188842
0.00188634
0.00188384
0.00188094
0.00187763
0.00187392
0.00186984
0.00186538
0.00186055
0.00185538
0.00184988
0.00184404
0.0018379
0.00183146
0.00182474
0.00181777
0.00181054
0.00180308
0.0017954
0.00178737
0.0017788
0.00176901
0.0017575
0.00174515
0.00173238
0.00171935
0.00170616
0.00169282
0.00167937
0.00166582
0.00165217
0.0016384
0.00162444
0.00161008
0.00159482
0.00157671
0.00154699
4.91748e-06
6.50736e-05
0.000133541
0.000186174
0.000225379
0.000254958
0.000278088
0.000297159
0.000313837
0.00032918
0.000343787
0.000357944
0.000371746
0.000385184
0.000398207
0.000410752
0.000422763
0.0004342
0.000445048
0.000455319
0.000465054
0.000474319
0.000483201
0.000491798
0.000500215
0.000508571
0.000517009
0.000525731
0.000535013
0.000545154
0.000556326
0.000568475
0.00058154
0.000595467
0.000610161
0.000625748
0.000642123
0.000659263
0.000677264
0.00069595
0.000715229
0.000734921
0.000754919
0.000775198
0.000795755
0.000816588
0.000837696
0.000859079
0.000880736
0.000902665
0.000924867
0.000947342
0.000970089
0.000993107
0.0010164
0.00103995
0.00106377
0.00108786
0.0011122
0.0011368
0.00116164
0.00118672
0.00121203
0.00123756
0.0012633
0.00128925
0.00131538
0.00134168
0.00136815
0.00139476
0.00142151
0.00144836
0.00147532
0.00150235
0.00152945
0.0015566
0.00158377
0.00161095
0.00163812
0.00166527
0.00169237
0.00171941
0.00174637
0.00177322
0.00179997
0.00182658
0.00185304
0.00187933
0.00190543
0.00193133
0.001957
0.00198242
0.00200757
0.00203242
0.00205694
0.0020811
0.00210486
0.00212816
0.00215084
0.00217306
0.0021949
0.0022164
0.00223754
0.00225831
0.0022787
0.0022987
0.00231829
0.00233745
0.00235617
0.00237444
0.00239223
0.00240954
0.00242636
0.00244266
0.00245843
0.00247367
0.00248835
0.00250248
0.00251603
0.00252901
0.00254139
0.00255317
0.00256434
0.0025749
0.00258484
0.00259415
0.00260283
0.00261086
0.00261826
0.00262501
0.00263111
0.00263656
0.00264136
0.00264551
0.00264901
0.00265187
0.00265407
0.00265564
0.00265657
0.00265686
0.00265653
0.00265557
0.00265401
0.00265183
0.00264906
0.00264571
0.00264178
0.00263728
0.00263224
0.00262665
0.00262054
0.00261392
0.00260681
0.00259922
0.00259117
0.00258269
0.00257379
0.00256449
0.00255481
0.00254478
0.00253438
0.00252364
0.00251244
0.00250063
0.00248779
0.00247365
0.00245865
0.0024431
0.00242718
0.00241099
0.00239458
0.00237799
0.00236125
0.00234436
0.0023273
0.00230997
0.0022921
0.00227302
0.00225058
0.00221826
6.56339e-06
7.55327e-05
0.000154076
0.000215944
0.000262832
0.000298565
0.000326485
0.000349191
0.000368578
0.000385947
0.000402121
0.00041758
0.00043257
0.000447196
0.000461485
0.000475436
0.000489038
0.000502297
0.000515235
0.000527902
0.000540373
0.000552745
0.000565131
0.000577653
0.000590436
0.000603605
0.00061729
0.000631621
0.000646729
0.00066272
0.000679642
0.000697477
0.000716189
0.000735736
0.000756079
0.000777191
0.000799032
0.000821564
0.00084474
0.000868481
0.000892698
0.000917306
0.000942251
0.00096751
0.000993076
0.00101895
0.00104514
0.00107164
0.00109845
0.00112558
0.00115303
0.0011808
0.00120888
0.00123729
0.001266
0.00129503
0.00132437
0.00135401
0.00138394
0.00141416
0.00144466
0.00147543
0.00150646
0.00153774
0.00156924
0.00160097
0.00163289
0.001665
0.00169728
0.00172971
0.00176227
0.00179493
0.00182769
0.00186051
0.00189338
0.00192628
0.00195917
0.00199205
0.00202489
0.00205765
0.00209034
0.00212291
0.00215535
0.00218765
0.00221977
0.00225169
0.00228341
0.00231489
0.00234611
0.00237706
0.0024077
0.00243803
0.00246801
0.00249762
0.00252684
0.00255564
0.00258401
0.00261175
0.00263895
0.00266569
0.00269199
0.00271788
0.00274334
0.00276837
0.00279295
0.00281706
0.00284069
0.00286381
0.00288641
0.00290847
0.00292998
0.00295091
0.00297126
0.00299101
0.00301014
0.00302863
0.00304648
0.00306367
0.00308019
0.00309602
0.00311116
0.00312559
0.0031393
0.00315229
0.00316455
0.00317607
0.00318684
0.00319686
0.00320611
0.00321461
0.00322234
0.0032293
0.00323549
0.00324091
0.00324556
0.00324944
0.00325255
0.0032549
0.00325649
0.00325732
0.00325741
0.00325675
0.00325536
0.00325324
0.00325041
0.00324688
0.00324265
0.00323774
0.00323216
0.00322593
0.00321907
0.00321159
0.00320351
0.00319485
0.00318563
0.00317586
0.00316559
0.00315482
0.00314357
0.00313187
0.00311972
0.00310712
0.00309401
0.00308028
0.0030657
0.00305013
0.00303376
0.00301681
0.00299941
0.00298168
0.00296366
0.00294543
0.002927
0.0029084
0.00288962
0.00287057
0.00285099
0.00283022
0.00280639
0.0027752
8.05164e-06
8.39296e-05
0.0001708
0.000240414
0.00029393
0.000335135
0.000367459
0.000393633
0.000415713
0.000435175
0.000453022
0.0004699
0.000486194
0.000502123
0.000517799
0.000533285
0.000548621
0.000563847
0.000579015
0.000594193
0.000609465
0.000624932
0.0006407
0.000656879
0.000673576
0.000690889
0.000708904
0.000727698
0.000747328
0.000767829
0.000789208
0.000811444
0.000834502
0.000858342
0.000882922
0.000908199
0.000934128
0.000960663
0.000987754
0.00101534
0.00104337
0.00107179
0.00110058
0.0011297
0.00115916
0.00118895
0.00121908
0.00124955
0.00128036
0.00131151
0.00134301
0.00137485
0.00140704
0.00143957
0.00147243
0.00150563
0.00153916
0.00157301
0.00160717
0.00164163
0.00167639
0.00171142
0.00174672
0.00178228
0.00181807
0.00185407
0.00189028
0.00192667
0.00196322
0.00199991
0.00203672
0.00207362
0.0021106
0.00214762
0.00218466
0.00222171
0.00225873
0.0022957
0.00233259
0.00236938
0.00240605
0.00244256
0.00247891
0.00251506
0.00255098
0.00258667
0.00262209
0.00265723
0.00269206
0.00272656
0.00276072
0.0027945
0.0028279
0.00286088
0.00289342
0.00292551
0.0029571
0.00298808
0.00301853
0.0030485
0.00307801
0.00310706
0.00313566
0.00316378
0.0031914
0.00321852
0.0032451
0.00327114
0.00329661
0.0033215
0.00334578
0.00336945
0.00339247
0.00341484
0.00343653
0.00345754
0.00347785
0.00349743
0.00351628
0.00353439
0.00355173
0.00356831
0.0035841
0.0035991
0.0036133
0.00362669
0.00363926
0.00365101
0.00366192
0.003672
0.00368123
0.00368962
0.00369717
0.00370386
0.00370971
0.0037147
0.00371885
0.00372215
0.00372462
0.00372625
0.00372704
0.00372701
0.00372617
0.00372452
0.00372207
0.00371883
0.00371482
0.00371004
0.00370452
0.00369826
0.00369129
0.00368363
0.00367527
0.00366626
0.00365661
0.00364634
0.00363549
0.00362406
0.00361208
0.00359958
0.00358656
0.00357301
0.00355893
0.00354422
0.00352879
0.00351256
0.00349561
0.00347807
0.00346006
0.00344167
0.00342296
0.003404
0.00338483
0.00336549
0.00334599
0.00332627
0.00330612
0.003285
0.00326145
0.00323274
9.2804e-06
9.08173e-05
0.000184437
0.000260534
0.000319798
0.000365913
0.000402327
0.000431837
0.000456603
0.000478227
0.000497852
0.000516257
0.000533953
0.000551262
0.000568379
0.000585431
0.0006025
0.000619657
0.000636972
0.000654518
0.000672376
0.000690635
0.000709383
0.000728707
0.000748684
0.000769381
0.000790852
0.000813134
0.000836248
0.000860201
0.000884978
0.000910553
0.000936891
0.000963951
0.000991691
0.00102007
0.00104904
0.00107856
0.00110858
0.00113908
0.00117
0.00120131
0.001233
0.00126505
0.00129745
0.0013302
0.0013633
0.00139676
0.00143057
0.00146474
0.00149927
0.00153414
0.00156938
0.00160496
0.00164089
0.00167716
0.00171376
0.00175069
0.00178793
0.00182547
0.00186331
0.00190143
0.00193981
0.00197844
0.00201729
0.00205636
0.00209562
0.00213505
0.00217463
0.00221434
0.00225416
0.00229405
0.002334
0.00237398
0.00241396
0.00245392
0.00249383
0.00253367
0.00257341
0.00261302
0.00265248
0.00269176
0.00273083
0.00276968
0.00280827
0.00284659
0.00288461
0.00292231
0.00295967
0.00299667
0.00303329
0.00306952
0.00310533
0.0031407
0.00317561
0.00321006
0.00324394
0.00327726
0.00331006
0.00334239
0.00337425
0.00340565
0.00343656
0.00346698
0.00349689
0.00352628
0.00355511
0.00358337
0.00361105
0.00363812
0.00366456
0.00369035
0.00371548
0.00373993
0.00376368
0.00378671
0.003809
0.00383054
0.00385132
0.00387131
0.0038905
0.00390888
0.00392645
0.00394318
0.00395907
0.00397411
0.00398829
0.00400159
0.00401402
0.00402556
0.00403622
0.00404597
0.00405484
0.00406281
0.00406988
0.00407604
0.0040813
0.00408567
0.00408914
0.00409173
0.00409342
0.00409423
0.00409417
0.00409325
0.00409148
0.00408886
0.00408539
0.00408112
0.00407605
0.00407017
0.00406351
0.0040561
0.00404795
0.00403908
0.00402952
0.00401928
0.0040084
0.00399688
0.00398476
0.00397205
0.00395877
0.00394493
0.00393051
0.00391548
0.00389979
0.0038834
0.00386636
0.00384875
0.00383066
0.00381215
0.00379331
0.0037742
0.00375488
0.00373541
0.00371581
0.00369608
0.00367607
0.00365536
0.00363289
0.0036069
1.02892e-05
9.62315e-05
0.00019525
0.00027677
0.000341029
0.000391562
0.000431778
0.000464495
0.000491929
0.000515764
0.000537246
0.000557262
0.000576425
0.000595147
0.0006137
0.000632265
0.000650967
0.000669901
0.000689146
0.000708778
0.00072887
0.000749493
0.000770715
0.000792599
0.000815197
0.00083855
0.000862686
0.000887621
0.000913357
0.000939882
0.000967176
0.000995209
0.00102395
0.00105335
0.00108338
0.00111399
0.00114515
0.00117682
0.00120897
0.00124156
0.00127457
0.00130797
0.00134175
0.0013759
0.0014104
0.00144526
0.00148048
0.00151606
0.00155199
0.00158828
0.00162493
0.00166193
0.00169928
0.00173698
0.00177503
0.00181341
0.00185212
0.00189115
0.00193049
0.00197013
0.00201005
0.00205025
0.0020907
0.0021314
0.00217231
0.00221343
0.00225474
0.00229621
0.00233782
0.00237955
0.00242138
0.00246327
0.00250522
0.00254719
0.00258916
0.00263109
0.00267297
0.00271476
0.00275644
0.00279798
0.00283935
0.00288053
0.00292149
0.0029622
0.00300265
0.0030428
0.00308264
0.00312215
0.00316129
0.00320007
0.00323844
0.00327641
0.00331395
0.00335105
0.00338768
0.00342383
0.00345941
0.00349448
0.00352907
0.0035632
0.00359687
0.00363007
0.0036628
0.00369503
0.00372675
0.00375794
0.00378857
0.00381863
0.0038481
0.00387696
0.00390517
0.00393274
0.00395963
0.00398582
0.0040113
0.00403605
0.00406005
0.00408328
0.00410572
0.00412736
0.00414819
0.00416818
0.00418733
0.00420562
0.00422305
0.0042396
0.00425526
0.00427003
0.00428389
0.00429683
0.00430884
0.00431994
0.00433011
0.00433935
0.00434767
0.00435503
0.00436146
0.00436696
0.00437153
0.00437518
0.0043779
0.00437969
0.00438057
0.00438055
0.00437966
0.00437786
0.00437517
0.00437163
0.00436724
0.00436201
0.00435597
0.00434913
0.0043415
0.00433312
0.004324
0.00431416
0.00430362
0.00429241
0.00428055
0.00426806
0.00425495
0.00424124
0.00422693
0.00421201
0.00419646
0.00418027
0.00416347
0.00414612
0.00412827
0.00411001
0.00409139
0.0040725
0.0040534
0.00403417
0.00401487
0.00399552
0.00397604
0.00395615
0.00393505
0.00391157
1.10793e-05
0.000100293
0.000203491
0.000289473
0.000358036
0.000412517
0.000456246
0.000492017
0.000522063
0.00054812
0.000571498
0.000593165
0.000613817
0.000633941
0.000653872
0.000673841
0.00069401
0.000714494
0.000735383
0.000756751
0.000778664
0.000801179
0.000824344
0.000848203
0.000872788
0.000898122
0.000924216
0.000951071
0.000978678
0.00100702
0.00103607
0.0010658
0.00109618
0.00112717
0.00115873
0.00119083
0.00122345
0.00125653
0.00129007
0.00132403
0.00135839
0.00139313
0.00142825
0.00146373
0.00149957
0.00153576
0.0015723
0.00160919
0.00164643
0.00168402
0.00172196
0.00176025
0.00179888
0.00183785
0.00187716
0.00191679
0.00195675
0.00199701
0.00203759
0.00207845
0.00211959
0.002161
0.00220267
0.00224457
0.0022867
0.00232902
0.00237154
0.00241422
0.00245704
0.00249999
0.00254305
0.00258618
0.00262936
0.00267258
0.00271579
0.00275899
0.00280213
0.0028452
0.00288816
0.00293098
0.00297364
0.00301612
0.00305837
0.00310038
0.00314213
0.00318357
0.0032247
0.0032655
0.00330593
0.00334599
0.00338565
0.0034249
0.00346373
0.00350212
0.00354005
0.00357748
0.00361442
0.0036509
0.00368693
0.00372253
0.00375768
0.00379239
0.00382663
0.00386039
0.00389364
0.00392637
0.00395856
0.00399018
0.00402121
0.00405162
0.0040814
0.00411053
0.00413899
0.00416674
0.00419378
0.00422009
0.00424564
0.00427041
0.00429438
0.00431754
0.00433988
0.00436136
0.004382
0.00440176
0.00442064
0.00443864
0.00445573
0.0044719
0.00448715
0.00450145
0.00451482
0.00452724
0.00453871
0.00454925
0.00455882
0.00456743
0.00457507
0.00458175
0.00458748
0.00459228
0.00459612
0.00459899
0.00460092
0.00460193
0.00460201
0.00460117
0.00459943
0.00459679
0.00459328
0.00458891
0.00458369
0.00457763
0.00457077
0.00456311
0.00455468
0.0045455
0.00453558
0.00452496
0.00451365
0.00450167
0.00448904
0.00447578
0.00446189
0.00444738
0.00443226
0.00441651
0.00440018
0.00438331
0.00436594
0.00434815
0.00433
0.00431157
0.00429293
0.00427419
0.00425542
0.00423668
0.00421794
0.00419903
0.00417933
0.00415803
1.16588e-05
0.000103138
0.00020941
0.000298963
0.000371168
0.000429131
0.00047606
0.000514692
0.000547249
0.00057548
0.00060074
0.000624049
0.000646163
0.000667629
0.000688835
0.000710055
0.00073148
0.000753246
0.000775455
0.000798179
0.000821479
0.000845401
0.000869981
0.000895247
0.000921217
0.000947902
0.000975301
0.00100341
0.00103221
0.00106168
0.0010918
0.00112254
0.00115386
0.00118574
0.00121814
0.00125104
0.00128441
0.00131821
0.00135243
0.00138705
0.00142205
0.00145742
0.00149314
0.00152922
0.00156563
0.00160239
0.00163948
0.00167692
0.00171469
0.0017528
0.00179124
0.00183002
0.00186913
0.00190857
0.00194834
0.00198843
0.00202884
0.00206956
0.00211058
0.00215189
0.00219349
0.00223536
0.00227748
0.00231986
0.00236247
0.0024053
0.00244833
0.00249155
0.00253494
0.00257847
0.00262212
0.00266589
0.00270973
0.00275363
0.00279755
0.00284149
0.0028854
0.00292926
0.00297304
0.0030167
0.00306023
0.00310359
0.00314676
0.00318969
0.00323237
0.00327476
0.00331685
0.00335861
0.00340002
0.00344106
0.00348172
0.00352197
0.00356181
0.00360123
0.0036402
0.00367873
0.00371685
0.00375456
0.00379186
0.00382876
0.00386525
0.00390131
0.00393692
0.00397207
0.00400673
0.00404089
0.0040745
0.00410756
0.00414004
0.00417192
0.00420316
0.00423376
0.00426369
0.00429292
0.00432144
0.00434922
0.00437625
0.0044025
0.00442794
0.00445257
0.00447636
0.00449929
0.00452137
0.00454256
0.00456287
0.00458228
0.00460078
0.00461835
0.00463497
0.00465064
0.00466535
0.00467911
0.00469191
0.00470375
0.00471464
0.00472452
0.00473341
0.00474133
0.00474827
0.00475426
0.00475927
0.0047633
0.00476638
0.00476851
0.0047697
0.00476995
0.00476927
0.00476769
0.0047652
0.00476184
0.0047576
0.0047525
0.00474658
0.00473983
0.00473228
0.00472396
0.00471487
0.00470505
0.0046945
0.00468326
0.00467134
0.00465876
0.00464553
0.00463166
0.00461717
0.00460208
0.0045864
0.00457018
0.00455346
0.00453631
0.00451879
0.00450098
0.00448298
0.00446489
0.0044468
0.0044288
0.00441091
0.00439301
0.00437463
0.00435516
1.20422e-05
0.000104911
0.000213261
0.000305553
0.000380759
0.000441726
0.00049151
0.000532765
0.00056767
0.000597969
0.000625032
0.000649911
0.000673405
0.000696102
0.000718433
0.000740707
0.000763141
0.000785891
0.000809066
0.000832744
0.000856982
0.00088182
0.000907287
0.000933399
0.000960167
0.000987592
0.00101567
0.00104439
0.00107372
0.00110366
0.00113418
0.00116525
0.00119684
0.00122892
0.00126147
0.00129447
0.00132788
0.00136169
0.00139589
0.00143044
0.00146535
0.0015006
0.00153617
0.00157208
0.00160831
0.00164486
0.00168174
0.00171893
0.00175645
0.00179429
0.00183246
0.00187096
0.00190978
0.00194893
0.0019884
0.00202821
0.00206833
0.00210877
0.00214953
0.0021906
0.00223197
0.00227364
0.0023156
0.00235783
0.00240033
0.00244309
0.00248609
0.00252932
0.00257275
0.00261638
0.00266019
0.00270415
0.00274823
0.00279243
0.0028367
0.00288103
0.00292538
0.00296973
0.00301404
0.00305829
0.00310243
0.00314644
0.00319029
0.00323393
0.00327735
0.0033205
0.00336337
0.00340593
0.00344815
0.00349002
0.00353151
0.00357262
0.00361333
0.00365363
0.00369358
0.00373318
0.00377242
0.00381131
0.00384983
0.00388799
0.00392577
0.00396314
0.0040001
0.0040366
0.00407264
0.00410817
0.00414319
0.00417766
0.00421156
0.00424487
0.00427755
0.00430959
0.00434097
0.00437165
0.00440162
0.00443086
0.00445936
0.00448707
0.00451397
0.00454004
0.00456527
0.00458965
0.00461316
0.00463578
0.00465751
0.00467833
0.00469826
0.00471724
0.00473525
0.0047523
0.00476839
0.0047835
0.00479764
0.00481082
0.00482301
0.0048342
0.0048444
0.00485362
0.00486184
0.00486909
0.00487536
0.00488064
0.00488496
0.00488831
0.00489071
0.00489216
0.00489267
0.00489225
0.00489093
0.0048887
0.00488558
0.0048816
0.00487675
0.00487107
0.00486457
0.00485727
0.00484918
0.00484034
0.00483074
0.00482042
0.0048094
0.00479769
0.00478531
0.00477227
0.0047586
0.00474432
0.00472945
0.00471402
0.0046981
0.00468173
0.00466498
0.00464794
0.0046307
0.00461337
0.00459606
0.00457888
0.00456188
0.00454498
0.00452782
0.00450987
1.22494e-05
0.000105757
0.000215303
0.000309557
0.000387134
0.00045061
0.000502865
0.000546446
0.000583472
0.000615658
0.00064437
0.000670675
0.000695395
0.000719149
0.000742398
0.000765475
0.000788624
0.000812013
0.000835765
0.000859961
0.00088466
0.000909898
0.000935699
0.000962077
0.000989035
0.00101657
0.00104468
0.00107334
0.00110253
0.00113225
0.00116246
0.00119314
0.00122427
0.00125582
0.00128778
0.00132012
0.00135282
0.00138587
0.00141925
0.00145296
0.00148698
0.00152131
0.00155593
0.00159086
0.0016261
0.00166163
0.00169747
0.00173363
0.0017701
0.00180688
0.001844
0.00188145
0.00191923
0.00195735
0.00199583
0.00203465
0.00207382
0.00211335