/*--------------------------------*- C++ -*----------------------------------*\
  =========                 |
  \\      /  F ield         | OpenFOAM: The Open Source CFD Toolbox
   \\    /   O peration     | Website:  https://openfoam.org
    \\  /    A nd           | Version:  9
     \\/     M anipulation  |
\*---------------------------------------------------------------------------*/
FoamFile
{
    format      ascii;
    class       volVectorField;
    location    "0.14";
    object      U;
}
// * * * * * * * * * * * * * * * * * * * * * * * * * * * * * * * * * * * * * //

dimensions      [0 1 -1 0 0 0 0];

internalField   nonuniform List<vector> 
12225
(
(9.86107 -0.874317 0)
(9.67246 -0.700189 0)
(9.45892 -0.387587 0)
(9.22458 -0.18847 0)
(9.00335 -0.0843845 0)
(8.8102 -0.0328642 0)
(8.64484 -0.00753553 0)
(8.50374 0.00504422 0)
(8.38345 0.0113613 0)
(8.28043 0.0145041 0)
(8.19128 0.0160083 0)
(8.11314 0.0166905 0)
(8.04359 0.0169954 0)
(7.98078 0.0172203 0)
(7.92174 0.0175596 0)
(7.86744 0.0187867 0)
(7.79652 0.0218173 0)
(7.76992 0.0313892 0)
(10.0547 0.263071 0)
(10.1201 0.360745 0)
(10.118 0.273828 0)
(10.0826 0.1871 0)
(10.0405 0.131178 0)
(9.99383 0.0969478 0)
(9.93998 0.0755844 0)
(9.8802 0.0617847 0)
(9.81757 0.0523886 0)
(9.75456 0.0455839 0)
(9.69262 0.0404289 0)
(9.63257 0.0364652 0)
(9.57476 0.0334402 0)
(9.51959 0.0313444 0)
(9.46623 0.0300199 0)
(9.41725 0.0313073 0)
(9.36533 0.0326314 0)
(9.34051 0.0540311 0)
(9.99919 0.0460887 0)
(10.0244 0.0342159 0)
(10.0538 0.0149609 0)
(10.0707 0.0218281 0)
(10.0778 0.0366961 0)
(10.0782 0.0460396 0)
(10.0721 0.0499887 0)
(10.0601 0.0511904 0)
(10.0437 0.0511106 0)
(10.0242 0.0504116 0)
(10.0026 0.0494664 0)
(9.97944 0.0485241 0)
(9.95515 0.0477389 0)
(9.93018 0.047356 0)
(9.90446 0.0474568 0)
(9.87907 0.0494438 0)
(9.85315 0.0524681 0)
(9.83313 0.0645823 0)
(9.9968 0.00643039 0)
(10.0085 0.0250263 0)
(10.0342 0.0389517 0)
(10.0528 0.0503228 0)
(10.0643 0.0571362 0)
(10.073 0.059202 0)
(10.0788 0.0589016 0)
(10.0814 0.0579959 0)
(10.0813 0.0570073 0)
(10.0792 0.0560129 0)
(10.0754 0.0550675 0)
(10.0702 0.0542614 0)
(10.0638 0.0536902 0)
(10.0564 0.0535592 0)
(10.0482 0.0540142 0)
(10.0398 0.0559793 0)
(10.0317 0.0591191 0)
(10.0261 0.0660948 0)
(9.99922 0.00674075 0)
(10.0081 0.0335843 0)
(10.0271 0.0460615 0)
(10.0418 0.0508717 0)
(10.0524 0.0539503 0)
(10.0621 0.0555506 0)
(10.0707 0.0559114 0)
(10.0773 0.0557449 0)
(10.082 0.0553981 0)
(10.0854 0.0549642 0)
(10.0876 0.0545199 0)
(10.0889 0.0541736 0)
(10.0893 0.0540407 0)
(10.089 0.0543059 0)
(10.0882 0.0551322 0)
(10.0873 0.0570407 0)
(10.087 0.0598472 0)
(10.0886 0.0640877 0)
(10.0002 0.00907834 0)
(10.0078 0.032138 0)
(10.0225 0.0419339 0)
(10.035 0.0456984 0)
(10.0447 0.0491702 0)
(10.0541 0.0517208 0)
(10.0629 0.0528769 0)
(10.0703 0.05325 0)
(10.0764 0.0533166 0)
(10.0816 0.0532427 0)
(10.0859 0.0531226 0)
(10.0896 0.0530681 0)
(10.0926 0.0531954 0)
(10.0951 0.0536566 0)
(10.0973 0.0545852 0)
(10.0996 0.0562403 0)
(10.1026 0.0584637 0)
(10.1069 0.0611102 0)
(10.0003 0.0088058 0)
(10.0068 0.0275341 0)
(10.0189 0.0371103 0)
(10.0302 0.0417805 0)
(10.0394 0.0457154 0)
(10.0481 0.048557 0)
(10.0565 0.0499874 0)
(10.0639 0.0506056 0)
(10.0703 0.0508987 0)
(10.076 0.051041 0)
(10.0811 0.0511218 0)
(10.0857 0.0512447 0)
(10.0898 0.0515161 0)
(10.0935 0.0520526 0)
(10.0972 0.0529443 0)
(10.1009 0.054293 0)
(10.1052 0.055935 0)
(10.1106 0.0575442 0)
(10.0004 0.00784389 0)
(10.0057 0.0237143 0)
(10.016 0.0334017 0)
(10.0264 0.0386343 0)
(10.0351 0.0425459 0)
(10.0432 0.045359 0)
(10.0511 0.0469362 0)
(10.0583 0.0477443 0)
(10.0647 0.0482094 0)
(10.0705 0.0485071 0)
(10.0759 0.048727 0)
(10.0808 0.0489643 0)
(10.0854 0.0493113 0)
(10.0897 0.0498524 0)
(10.094 0.0506368 0)
(10.0985 0.0516767 0)
(10.1034 0.0528074 0)
(10.1089 0.0537094 0)
(10.0004 0.00695902 0)
(10.0049 0.0207306 0)
(10.0136 0.0300733 0)
(10.0229 0.0354558 0)
(10.0312 0.0392593 0)
(10.0388 0.0420416 0)
(10.0463 0.0437579 0)
(10.0532 0.0447348 0)
(10.0595 0.0453383 0)
(10.0653 0.0457516 0)
(10.0708 0.0460688 0)
(10.0758 0.0463756 0)
(10.0806 0.046749 0)
(10.0853 0.0472465 0)
(10.0899 0.0478864 0)
(10.0947 0.0486357 0)
(10.0997 0.0493432 0)
(10.1052 0.0497585 0)
(10.0004 0.00617341 0)
(10.0042 0.0181486 0)
(10.0116 0.0268417 0)
(10.0199 0.0322013 0)
(10.0276 0.0359314 0)
(10.0349 0.0386857 0)
(10.0419 0.0404982 0)
(10.0486 0.0416036 0)
(10.0548 0.0423131 0)
(10.0605 0.0428113 0)
(10.0659 0.0431943 0)
(10.0711 0.0435373 0)
(10.076 0.0439026 0)
(10.0808 0.0443275 0)
(10.0855 0.0448107 0)
(10.0904 0.0453025 0)
(10.0954 0.0456755 0)
(10.1007 0.0457555 0)
(10.0003 0.0054378 0)
(10.0036 0.0158296 0)
(10.0099 0.0237615 0)
(10.0173 0.0289803 0)
(10.0245 0.0326214 0)
(10.0313 0.0353118 0)
(10.038 0.0371611 0)
(10.0444 0.0383508 0)
(10.0504 0.039137 0)
(10.0561 0.0396945 0)
(10.0614 0.0401177 0)
(10.0665 0.0404722 0)
(10.0715 0.0408071 0)
(10.0763 0.0411461 0)
(10.0811 0.0414781 0)
(10.0859 0.0417531 0)
(10.0909 0.0418718 0)
(10.0959 0.0417238 0)
(10.0003 0.00478644 0)
(10.0031 0.0138877 0)
(10.0085 0.0210927 0)
(10.0152 0.0260807 0)
(10.0219 0.0295967 0)
(10.0284 0.0321947 0)
(10.0347 0.0340326 0)
(10.0409 0.0352616 0)
(10.0468 0.0360914 0)
(10.0523 0.0366807 0)
(10.0576 0.0371199 0)
(10.0627 0.0374666 0)
(10.0676 0.0377604 0)
(10.0724 0.038017 0)
(10.0772 0.0382229 0)
(10.0819 0.0383354 0)
(10.0867 0.0382801 0)
(10.0915 0.037993 0)
(10.0003 0.00418104 0)
(10.0027 0.0121237 0)
(10.0075 0.0185836 0)
(10.0134 0.0232502 0)
(10.0196 0.0265983 0)
(10.0258 0.0290799 0)
(10.0318 0.030872 0)
(10.0377 0.032108 0)
(10.0434 0.0329578 0)
(10.0488 0.0335604 0)
(10.054 0.0339998 0)
(10.0591 0.0343275 0)
(10.0639 0.0345753 0)
(10.0687 0.0347546 0)
(10.0734 0.0348531 0)
(10.0781 0.0348378 0)
(10.0827 0.0346552 0)
(10.0873 0.0342752 0)
(10.0003 0.00355029 0)
(10.0024 0.0102888 0)
(10.0064 0.0158967 0)
(10.0117 0.0201109 0)
(10.0174 0.0232033 0)
(10.0231 0.02551 0)
(10.0288 0.0272045 0)
(10.0345 0.0284052 0)
(10.0399 0.0292443 0)
(10.0452 0.0298367 0)
(10.0503 0.030257 0)
(10.0553 0.03055 0)
(10.0601 0.0307413 0)
(10.0648 0.03084 0)
(10.0694 0.0308376 0)
(10.0739 0.0307124 0)
(10.0783 0.0304306 0)
(10.0826 0.0299875 0)
(10.0002 0.00289254 0)
(10.002 0.0083817 0)
(10.0055 0.013042 0)
(10.0101 0.0166687 0)
(10.0153 0.019396 0)
(10.0206 0.02145 0)
(10.0259 0.0229803 0)
(10.0313 0.0240879 0)
(10.0365 0.0248719 0)
(10.0416 0.0254208 0)
(10.0466 0.0257964 0)
(10.0514 0.0260364 0)
(10.0561 0.0261617 0)
(10.0607 0.0261807 0)
(10.0652 0.02609 0)
(10.0695 0.0258789 0)
(10.0737 0.0255299 0)
(10.0778 0.0250551 0)
(10.0002 0.00220799 0)
(10.0017 0.00640295 0)
(10.0047 0.0100238 0)
(10.0088 0.0129242 0)
(10.0134 0.0151579 0)
(10.0183 0.0168606 0)
(10.0233 0.0181434 0)
(10.0283 0.0190847 0)
(10.0333 0.0197549 0)
(10.0383 0.0202163 0)
(10.0431 0.0205156 0)
(10.0477 0.0206824 0)
(10.0523 0.0207338 0)
(10.0567 0.0206778 0)
(10.061 0.0205157 0)
(10.0652 0.0202457 0)
(10.0692 0.019861 0)
(10.0731 0.0193832 0)
(10.0002 0.00149333 0)
(10.0015 0.00433535 0)
(10.0041 0.00681889 0)
(10.0077 0.00885242 0)
(10.0118 0.0104512 0)
(10.0164 0.0116853 0)
(10.021 0.0126218 0)
(10.0258 0.0133118 0)
(10.0306 0.0137988 0)
(10.0353 0.0141212 0)
(10.0399 0.014309 0)
(10.0444 0.0143822 0)
(10.0488 0.0143532 0)
(10.053 0.0142293 0)
(10.0572 0.0140143 0)
(10.0611 0.0137108 0)
(10.0649 0.0133183 0)
(10.0686 0.0128611 0)
(10.0001 0.000730658 0)
(10.0013 0.00212226 0)
(10.0037 0.00334675 0)
(10.0069 0.00436358 0)
(10.0108 0.00517568 0)
(10.015 0.00580813 0)
(10.0194 0.00628615 0)
(10.024 0.00663003 0)
(10.0285 0.00685754 0)
(10.033 0.00698445 0)
(10.0375 0.00702309 0)
(10.0418 0.00698202 0)
(10.0461 0.00686692 0)
(10.0501 0.0066818 0)
(10.0541 0.00642979 0)
(10.0579 0.00611443 0)
(10.0615 0.0057369 0)
(10.065 0.00531959 0)
(10.0001 -0.000127036 0)
(10.0013 -0.000369391 0)
(10.0035 -0.000583411 0)
(10.0067 -0.000755885 0)
(10.0104 -0.000883785 0)
(10.0145 -0.000980605 0)
(10.0189 -0.00106537 0)
(10.0233 -0.00115187 0)
(10.0277 -0.0012488 0)
(10.0321 -0.00136352 0)
(10.0364 -0.0015028 0)
(10.0406 -0.00167196 0)
(10.0447 -0.00187464 0)
(10.0487 -0.002113 0)
(10.0525 -0.00238801 0)
(10.0561 -0.00269895 0)
(10.0596 -0.00304619 0)
(10.0629 -0.00341295 0)
(10.0001 -0.00095233 0)
(10.0014 -0.00277371 0)
(10.0038 -0.00438214 0)
(10.0071 -0.00569504 0)
(10.0111 -0.00670575 0)
(10.0154 -0.00747555 0)
(10.0198 -0.00807126 0)
(10.0243 -0.00853812 0)
(10.0288 -0.00891072 0)
(10.0332 -0.00922123 0)
(10.0375 -0.00949638 0)
(10.0417 -0.00975506 0)
(10.0457 -0.01001 0)
(10.0496 -0.0102703 0)
(10.0534 -0.0105419 0)
(10.0569 -0.0108282 0)
(10.0603 -0.0111321 0)
(10.0636 -0.0114428 0)
(10.0002 -0.00166767 0)
(10.0015 -0.00488132 0)
(10.0042 -0.0077122 0)
(10.008 -0.00995657 0)
(10.0123 -0.0116296 0)
(10.0169 -0.0128878 0)
(10.0215 -0.0138487 0)
(10.0262 -0.0145719 0)
(10.0308 -0.0151115 0)
(10.0354 -0.0155267 0)
(10.0397 -0.0158646 0)
(10.0439 -0.0161557 0)
(10.048 -0.0164198 0)
(10.0519 -0.016671 0)
(10.0556 -0.0169193 0)
(10.0591 -0.0171707 0)
(10.0625 -0.0174298 0)
(10.0657 -0.0176892 0)
(10.0002 -0.00235105 0)
(10.0017 -0.00697434 0)
(10.0049 -0.0110554 0)
(10.0092 -0.014136 0)
(10.0141 -0.0163097 0)
(10.0191 -0.017914 0)
(10.024 -0.0191292 0)
(10.029 -0.0200195 0)
(10.0338 -0.0206571 0)
(10.0384 -0.0211248 0)
(10.0429 -0.0214841 0)
(10.0471 -0.0217733 0)
(10.0512 -0.0220189 0)
(10.0551 -0.0222401 0)
(10.0588 -0.0224504 0)
(10.0623 -0.0226577 0)
(10.0657 -0.0228673 0)
(10.0689 -0.0230744 0)
(10.0002 -0.00298802 0)
(10.0018 -0.00908739 0)
(10.0056 -0.0144441 0)
(10.0109 -0.0182725 0)
(10.0164 -0.0208754 0)
(10.0218 -0.0227526 0)
(10.027 -0.0240989 0)
(10.0323 -0.02502 0)
(10.0373 -0.0256535 0)
(10.0421 -0.0261111 0)
(10.0466 -0.026453 0)
(10.051 -0.0267143 0)
(10.0551 -0.0269239 0)
(10.059 -0.0271046 0)
(10.0627 -0.0272715 0)
(10.0662 -0.0274329 0)
(10.0696 -0.0275943 0)
(10.0727 -0.0277527 0)
(10.0001 -0.00356536 0)
(10.0019 -0.0115221 0)
(10.0065 -0.0179037 0)
(10.0127 -0.022018 0)
(10.019 -0.0249877 0)
(10.0248 -0.0272741 0)
(10.0305 -0.0288016 0)
(10.036 -0.0296996 0)
(10.0412 -0.0302451 0)
(10.0462 -0.0306163 0)
(10.0508 -0.0308791 0)
(10.0552 -0.0310659 0)
(10.0594 -0.0312061 0)
(10.0633 -0.0313232 0)
(10.067 -0.0314312 0)
(10.0705 -0.0315371 0)
(10.0738 -0.0316443 0)
(10.0769 -0.031749 0)
(9.99997 -0.00368642 0)
(10.0018 -0.0151693 0)
(10.0076 -0.0226321 0)
(10.0148 -0.025953 0)
(10.0214 -0.028506 0)
(10.0278 -0.0309576 0)
(10.0341 -0.032725 0)
(10.0401 -0.0337529 0)
(10.0456 -0.0343424 0)
(10.0507 -0.0347024 0)
(10.0554 -0.0349165 0)
(10.0599 -0.0350334 0)
(10.064 -0.0350955 0)
(10.0679 -0.0351324 0)
(10.0714 -0.0351607 0)
(10.0748 -0.0351888 0)
(10.0779 -0.0352202 0)
(10.0808 -0.0352527 0)
(9.99898 -0.00130667 0)
(9.99999 -0.0179661 0)
(10.0085 -0.0290555 0)
(10.0174 -0.0326731 0)
(10.0244 -0.034089 0)
(10.0312 -0.0353068 0)
(10.0383 -0.0362449 0)
(10.0449 -0.0368783 0)
(10.0508 -0.0373197 0)
(10.0561 -0.0376092 0)
(10.0607 -0.0377616 0)
(10.0649 -0.037813 0)
(10.0687 -0.0378046 0)
(10.072 -0.037766 0)
(10.0749 -0.0377154 0)
(10.0775 -0.0376643 0)
(10.0798 -0.0376161 0)
(10.0818 -0.0375702 0)
(9.99528 0.00387071 0)
(9.99334 -0.0103064 0)
(10.007 -0.0270942 0)
(10.0212 -0.0389119 0)
(10.0311 -0.0448439 0)
(10.0392 -0.046444 0)
(10.0466 -0.0459538 0)
(10.053 -0.04499 0)
(10.0582 -0.0441078 0)
(10.0622 -0.0433283 0)
(10.0653 -0.0426082 0)
(10.0676 -0.0419445 0)
(10.0692 -0.0413438 0)
(10.0702 -0.0408057 0)
(10.0707 -0.040328 0)
(10.0707 -0.0399096 0)
(10.0703 -0.0395411 0)
(10.0697 -0.0391955 0)
(9.99144 -0.0172922 0)
(9.99189 0.000369326 0)
(10.01 0.017672 0)
(10.0296 0.0115978 0)
(10.0442 -0.00509519 0)
(10.0541 -0.0188075 0)
(10.06 -0.0271504 0)
(10.0623 -0.032024 0)
(10.0618 -0.0349019 0)
(10.0592 -0.0365038 0)
(10.055 -0.0372771 0)
(10.0497 -0.0375471 0)
(10.0434 -0.0375266 0)
(10.0363 -0.0373453 0)
(10.0288 -0.0370869 0)
(10.0209 -0.0368125 0)
(10.0128 -0.0365778 0)
(10.0047 -0.0363514 0)
(10.0235 -0.206007 0)
(10.0684 -0.312336 0)
(10.0789 -0.255587 0)
(10.0704 -0.18417 0)
(10.0606 -0.134892 0)
(10.0499 -0.102715 0)
(10.0342 -0.0811519 0)
(10.013 -0.0666033 0)
(9.98787 -0.0566094 0)
(9.96065 -0.0494516 0)
(9.93246 -0.0440922 0)
(9.90398 -0.0399418 0)
(9.87572 -0.0366421 0)
(9.84799 -0.0339604 0)
(9.82105 -0.0317487 0)
(9.795 -0.0299436 0)
(9.7701 -0.0285146 0)
(9.74636 -0.0277785 0)
(9.94226 0.671595 0)
(9.87996 0.567456 0)
(9.77446 0.33847 0)
(9.6324 0.183324 0)
(9.48769 0.0949109 0)
(9.35659 0.0470889 0)
(9.24105 0.0213053 0)
(9.13957 0.00708517 0)
(9.05066 -0.00097289 0)
(8.9727 -0.0056128 0)
(8.90397 -0.00830069 0)
(8.84293 -0.00986168 0)
(8.78833 -0.010766 0)
(8.73919 -0.0112825 0)
(8.69467 -0.0115719 0)
(8.65408 -0.011759 0)
(8.61658 -0.0119376 0)
(8.58176 -0.0124687 0)
(0.00543158 -0.0119668 -3.5378e-20)
(0.016904 -0.016639 3.46741e-20)
(0.0256229 -0.0130718 0)
(0.0302544 -0.00620541 0)
(0.0297376 0.0013128 0)
(0.0244052 0.0078567 -3.18836e-20)
(0.0152275 0.0127359 0)
(0.00310082 0.0159743 0)
(-0.0111628 0.0179848 0)
(-0.0269833 0.019238 0)
(-0.0440193 0.0200862 2.8477e-20)
(-0.0620391 0.0207509 0)
(-0.080911 0.0213487 0)
(-0.10056 0.0219278 0)
(-0.120937 0.0224981 0)
(-0.142004 0.023052 2.52599e-20)
(-0.163723 0.0235762 0)
(-0.186058 0.0240602 0)
(-0.208969 0.0244994 0)
(-0.23242 0.0248946 0)
(-0.256376 0.0252436 0)
(-0.2808 0.0255269 0)
(-0.30564 0.0257068 0)
(-0.330823 0.0257693 2.20344e-20)
(-0.35626 0.025805 -2.17583e-20)
(-0.381943 0.0260942 2.15078e-20)
(-0.408113 0.0272869 2.12843e-20)
(-0.435095 0.0302467 0)
(-0.46287 0.033421 0)
(-0.49137 0.0329375 -2.07523e-20)
(-0.520166 0.0319368 -2.05949e-20)
(-0.54895 0.0355659 0)
(-0.578576 0.0290936 0)
(-0.608898 0.0276272 -2.05904e-20)
(-0.638958 0.0452929 0)
(-0.672402 0.045482 0)
(-0.708317 0.0428188 2.00419e-20)
(-0.743321 0.0608028 0)
(-0.781045 0.0573575 2.09558e-20)
(-0.818757 0.0406824 4.25965e-20)
(-0.852368 0.0330251 0)
(-0.886883 0.0282135 0)
(-0.921556 0.0308809 0)
(-0.958093 0.0317041 0)
(-0.995257 0.0321771 0)
(-1.03292 0.0324025 3.99e-20)
(-1.07091 0.0324794 3.94778e-20)
(-1.10913 0.0324648 3.90665e-20)
(-1.1475 0.0323913 0)
(-1.18598 0.0322781 -3.82755e-20)
(-1.22453 0.0321361 0)
(-1.26314 0.0319716 3.75237e-20)
(-1.30176 0.0317879 3.71612e-20)
(-1.34039 0.0315867 0)
(-1.379 0.0313683 0)
(-1.41756 0.0311326 0)
(-1.45606 0.030879 3.57877e-20)
(-1.49446 0.0306067 0)
(-1.53275 0.0303148 0)
(-1.57088 0.0300023 0)
(-1.60885 0.0296685 0)
(-1.6466 0.0293125 0)
(-1.68412 0.0289336 0)
(-1.72136 0.0285313 0)
(-1.75829 0.0281052 0)
(-1.79488 0.027655 -3.29962e-20)
(-1.83109 0.0271805 0)
(-1.86688 0.0266817 0)
(-1.90221 0.0261586 3.21068e-20)
(-1.93705 0.0256116 3.18104e-20)
(-1.97135 0.0250409 0)
(-2.00507 0.0244471 -3.12143e-20)
(-2.03818 0.0238305 3.09136e-20)
(-2.07064 0.023192 0)
(-2.1024 0.0225321 -3.03045e-20)
(-2.13343 0.0218517 0)
(-2.16368 0.0211515 0)
(-2.19312 0.0204324 2.93639e-20)
(-2.22172 0.0196951 0)
(-2.24943 0.0189406 -2.8713e-20)
(-2.27621 0.0181696 0)
(-2.30203 0.0173828 2.80388e-20)
(-2.32686 0.0165807 2.76917e-20)
(-2.35065 0.015764 2.73375e-20)
(-2.37338 0.0149326 5.39514e-20)
(-2.395 0.0140865 -5.32117e-20)
(-2.41549 0.0132253 0)
(-2.43481 0.0123477 0)
(-2.45291 0.011452 0)
(-2.46977 0.0105357 -5.00777e-20)
(-2.48535 0.00959495 -4.92469e-20)
(-2.4996 0.00862555 4.8396e-20)
(-2.51247 0.00762255 0)
(-2.52392 0.00658016 -4.6632e-20)
(-2.53387 0.00549261 -4.5718e-20)
(-2.54226 0.00435938 -4.47826e-20)
(-2.54901 0.00319594 0)
(-2.55401 0.00203918 0)
(-2.55712 0.000930043 0)
(-2.5584 -7.34476e-05 -4.08115e-20)
(-2.55833 -0.000930141 0)
(-2.55677 -0.00175253 0)
(-2.55376 -0.00255989 3.7558e-20)
(-2.5493 -0.00336109 0)
(-2.54338 -0.00415778 0)
(-2.53597 -0.00495012 3.40668e-20)
(-2.52708 -0.00573754 0)
(-2.5167 -0.00651926 0)
(-2.5048 -0.00729442 -3.03352e-20)
(-2.4914 -0.00806212 -2.90381e-20)
(-2.47647 -0.00882149 0)
(-2.46004 -0.00957166 2.63653e-20)
(-2.44208 -0.0103118 0)
(-2.42261 -0.011041 -2.35896e-20)
(-2.40163 -0.0117585 0)
(-2.37915 -0.0124635 -2.07142e-20)
(-2.35516 -0.0131552 -1.92404e-20)
(-2.32969 -0.0138328 0)
(-2.30275 -0.0144956 0)
(-2.27434 -0.0151428 0)
(-2.24449 -0.0157739 0)
(-2.21321 -0.0163881 0)
(-2.18052 -0.0169849 0)
(-2.14645 -0.0175636 0)
(-2.11101 -0.0181238 -6.67347e-21)
(-2.07423 -0.0186648 5.0183e-21)
(-2.03614 -0.0191862 0)
(-1.99677 -0.0196876 0)
(-1.95615 -0.0201683 0)
(-1.9143 -0.0206282 0)
(-1.87127 -0.0210668 -6.93219e-21)
(-1.82708 -0.0214838 0)
(-1.78177 -0.0218791 1.38694e-20)
(-1.73538 -0.0222524 -1.73597e-20)
(-1.68795 -0.0226035 0)
(-1.63952 -0.0229322 0)
(-1.59013 -0.0232386 0)
(-1.53981 -0.0235226 3.14032e-20)
(-1.48861 -0.0237843 3.49206e-20)
(-1.43658 -0.0240238 0)
(-1.38375 -0.0242411 4.19433e-20)
(-1.33018 -0.0244366 4.5443e-20)
(-1.27589 -0.0246103 -4.89311e-20)
(-1.22095 -0.0247627 0)
(-1.16538 -0.0248943 0)
(-1.10923 -0.0250053 -5.92981e-20)
(-1.05256 -0.0250963 0)
(-0.995388 -0.0251678 0)
(-0.937769 -0.0252205 0)
(-0.879741 -0.025255 0)
(-0.821343 -0.025272 7.60898e-20)
(-0.762614 -0.0252723 7.9352e-20)
(-0.703592 -0.0252566 0)
(-0.64431 -0.0252258 8.57613e-20)
(-0.584805 -0.0251806 0)
(-0.525108 -0.0251219 0)
(-0.465252 -0.0250502 9.50551e-20)
(-0.405265 -0.0249662 0)
(-0.345178 -0.0248696 1.01014e-19)
(-0.285022 -0.0247601 0)
(-0.224827 -0.0246345 0)
(-0.164627 -0.0244856 1.09564e-19)
(-0.104454 -0.0243096 0)
(-0.0443308 -0.0240992 1.14989e-19)
(0.0156601 -0.0237919 0)
(0.0754506 -0.0233917 0)
(0.135112 -0.0229966 0)
(0.194642 -0.0226264 -1.19863e-19)
(0.254054 -0.0222737 0)
(0.313359 -0.0219301 1.21265e-19)
(0.372551 -0.0215879 0)
(0.431604 -0.0212377 0)
(0.490458 -0.0208655 0)
(0.548995 -0.0204478 0)
(0.607022 -0.0199376 0)
(0.664005 -0.0192415 0)
(0.719508 -0.0181041 0)
(0.769275 -0.0158841 -2.49147e-19)
(0.817512 -0.0107802 0)
(0.816965 0.00701825 0)
(0.0047913 -0.0344822 1.04884e-19)
(0.00919802 -0.0297899 -9.94668e-20)
(0.00780776 -0.0157524 0)
(0.00356399 -0.00135976 5.89981e-20)
(-0.00318148 0.0120019 0)
(-0.0122768 0.023551 2.73977e-20)
(-0.023641 0.0329207 -5.31856e-20)
(-0.0371482 0.0401465 -5.17376e-20)
(-0.0526309 0.0455555 0)
(-0.069874 0.0496023 -4.90496e-20)
(-0.0886474 0.0527056 -2.39116e-20)
(-0.108742 0.0551852 0)
(-0.129987 0.0572583 0)
(-0.152254 0.059058 0)
(-0.17545 0.0606589 0)
(-0.19951 0.0620998 -2.12593e-20)
(-0.224388 0.063401 0)
(-0.250059 0.0645761 4.08274e-20)
(-0.276504 0.0656379 0)
(-0.30372 0.0665988 0)
(-0.331706 0.0674655 -3.88213e-20)
(-0.360474 0.0682327 0)
(-0.390049 0.0688864 3.77637e-20)
(-0.420475 0.069427 -1.86868e-20)
(-0.451823 0.0698982 1.84914e-20)
(-0.484174 0.0703921 -1.83276e-20)
(-0.517483 0.071042 -1.82012e-20)
(-0.551453 0.0719854 0)
(-0.586039 0.0730247 0)
(-0.621843 0.0735747 1.80438e-20)
(-0.658828 0.0740262 -1.78872e-20)
(-0.696037 0.0751285 0)
(-0.734707 0.0767016 0)
(-0.773689 0.0767276 1.75601e-20)
(-0.812202 0.0771016 0)
(-0.850869 0.0786009 0)
(-0.888852 0.0787565 -1.71415e-20)
(-0.92592 0.0790757 0)
(-0.962761 0.0801586 1.68794e-20)
(-1.00013 0.0810887 -3.36886e-20)
(-1.03934 0.0822287 0)
(-1.07819 0.0831478 0)
(-1.1163 0.0839889 -6.4905e-20)
(-1.15334 0.0843453 -6.41827e-20)
(-1.18983 0.0843406 -6.34823e-20)
(-1.22599 0.0841039 3.13237e-20)
(-1.26193 0.0837098 -3.11473e-20)
(-1.29769 0.0832075 -9.23233e-20)
(-1.33328 0.0826282 6.08718e-20)
(-1.36872 0.0819909 3.02083e-20)
(-1.404 0.0813072 0)
(-1.43912 0.0805835 -2.96218e-20)
(-1.47405 0.0798229 2.91833e-20)
(-1.5088 0.0790266 0)
(-1.54333 0.0781941 0)
(-1.57765 0.0773245 0)
(-1.61172 0.0764163 -2.82643e-20)
(-1.64552 0.0754677 0)
(-1.67904 0.074477 5.53553e-20)
(-1.71225 0.0734426 0)
(-1.74513 0.0723629 5.4366e-20)
(-1.77764 0.0712367 0)
(-1.80978 0.0700629 -5.33982e-20)
(-1.84149 0.0688408 0)
(-1.87277 0.0675699 5.24452e-20)
(-1.90358 0.06625 -2.59137e-20)
(-1.93389 0.064881 0)
(-1.96367 0.0634633 -5.10284e-20)
(-1.99289 0.0619975 -2.53468e-20)
(-2.02152 0.0604843 -2.51086e-20)
(-2.04953 0.0589248 0)
(-2.0769 0.0573202 -2.45002e-20)
(-2.10359 0.0556719 -2.43853e-20)
(-2.12956 0.0539813 0)
(-2.1548 0.0522503 2.38918e-20)
(-2.17926 0.0504805 -4.71686e-20)
(-2.20293 0.0486739 0)
(-2.22577 0.0468325 -2.31272e-20)
(-2.24774 0.0449581 0)
(-2.26884 0.0430528 6.76962e-20)
(-2.28901 0.0411186 0)
(-2.30825 0.0391573 -6.60559e-20)
(-2.32651 0.0371707 -2.17631e-20)
(-2.34377 0.0351606 2.14016e-20)
(-2.36001 0.0331283 4.22239e-20)
(-2.37519 0.0310751 -4.16319e-20)
(-2.3893 0.0290019 0)
(-2.4023 0.0269093 0)
(-2.41417 0.0247975 0)
(-2.42489 0.0226661 1.17514e-19)
(-2.43443 0.0205139 3.85167e-20)
(-2.44278 0.0183391 -3.78233e-20)
(-2.4499 0.0161397 0)
(-2.4558 0.013913 -3.63777e-20)
(-2.46046 0.0116547 3.56435e-20)
(-2.46391 0.00936017 3.48828e-20)
(-2.46619 0.00703567 0)
(-2.46738 0.00472353 0)
(-2.46757 0.00249534 0)
(-2.46676 0.000350863 3.16445e-20)
(-2.46459 -0.00169388 0)
(-2.46105 -0.00370007 -5.99175e-20)
(-2.45611 -0.00568186 -8.71508e-20)
(-2.44974 -0.00764703 5.63268e-20)
(-2.44192 -0.00959637 0)
(-2.43264 -0.0115287 2.63787e-20)
(-2.4219 -0.0134421 0)
(-2.40967 -0.0153342 4.87049e-20)
(-2.39595 -0.0172027 -2.34627e-20)
(-2.38074 -0.0190451 -2.24547e-20)
(-2.36403 -0.0208592 0)
(-2.34582 -0.0226427 -6.06301e-20)
(-2.32611 -0.0243936 3.83727e-20)
(-2.30491 -0.0261097 1.79546e-20)
(-2.28221 -0.027789 0)
(-2.25802 -0.0294296 1.5723e-20)
(-2.23236 -0.0310297 4.40922e-20)
(-2.20523 -0.0325874 0)
(-2.17663 -0.0341009 2.48951e-20)
(-2.1466 -0.0355688 2.25475e-20)
(-2.11514 -0.0369893 2.01741e-20)
(-2.08226 -0.0383613 0)
(-2.048 -0.0396834 0)
(-2.01236 -0.0409544 0)
(-1.97538 -0.0421733 -5.44627e-21)
(-1.93708 -0.043339 -3.75774e-21)
(-1.89749 -0.0444507 0)
(-1.85662 -0.0455075 -2.95761e-21)
(-1.81452 -0.0465086 -4.30843e-22)
(-1.77121 -0.0474534 0)
(-1.72673 -0.0483416 5.15706e-21)
(-1.68111 -0.0491728 1.44254e-20)
(-1.63439 -0.0499469 -1.02918e-20)
(-1.58661 -0.0506639 -1.18199e-20)
(-1.53779 -0.0513237 0)
(-1.48799 -0.0519264 0)
(-1.43723 -0.0524723 0)
(-1.38557 -0.0529619 -2.31627e-20)
(-1.33304 -0.0533958 2.46306e-20)
(-1.27969 -0.0537747 5.5466e-20)
(-1.22556 -0.0540995 -3.08327e-20)
(-1.17068 -0.054371 3.22554e-20)
(-1.11511 -0.0545902 3.58927e-20)
(-1.05889 -0.0547585 0)
(-1.00206 -0.0548774 0)
(-0.944666 -0.0549482 -4.22451e-20)
(-0.886746 -0.0549724 0)
(-0.828344 -0.0549519 0)
(-0.769501 -0.0548886 1.00202e-19)
(-0.710257 -0.0547842 0)
(-0.650652 -0.0546409 5.42902e-20)
(-0.590724 -0.0544608 -5.7727e-20)
(-0.530509 -0.054246 0)
(-0.470042 -0.0539988 6.12044e-20)
(-0.409358 -0.0537213 0)
(-0.348489 -0.0534156 0)
(-0.287464 -0.0530834 -6.89031e-20)
(-0.226314 -0.0527262 1.41015e-19)
(-0.165066 -0.0523442 -7.31325e-20)
(-0.103748 -0.0519362 0)
(-0.0423876 -0.0515003 0)
(0.0189892 -0.0510326 7.78515e-20)
(0.0803532 -0.050532 0)
(0.141687 -0.0500078 8.01608e-20)
(0.202966 -0.0494547 0)
(0.264187 -0.048867 0)
(0.325366 -0.048275 0)
(0.386493 -0.0477004 8.51028e-20)
(0.447563 -0.0471411 0)
(0.50857 -0.0465876 -8.67995e-20)
(0.569501 -0.0460263 0)
(0.630321 -0.045438 0)
(0.690966 -0.0447921 1.77129e-19)
(0.751316 -0.0440356 -1.78403e-19)
(0.811169 -0.043065 0)
(0.870069 -0.0416806 0)
(0.927546 -0.0393621 0)
(0.980979 -0.0351218 5.50014e-19)
(1.0329 -0.0255003 0)
(1.06267 -0.00239993 -3.74162e-19)
(0.000681166 -0.0400406 -5.45895e-23)
(-0.00324183 -0.0222017 1.28275e-19)
(-0.0108891 -0.00190404 0)
(-0.0200425 0.016563 -1.07663e-19)
(-0.030743 0.0331912 0)
(-0.0428011 0.0478568 0)
(-0.0562011 0.0604314 9.99877e-24)
(-0.0710144 0.0709162 4.5689e-20)
(-0.0872969 0.0794849 4.44613e-20)
(-0.105041 0.086437 4.33504e-20)
(-0.12418 0.0921137 0)
(-0.144613 0.0968326 0)
(-0.166232 0.100852 -4.03581e-20)
(-0.188937 0.104363 -7.89528e-20)
(-0.212646 0.107499 7.73008e-20)
(-0.237296 0.11035 0)
(-0.262839 0.112977 7.43263e-20)
(-0.289245 0.115426 -3.65127e-20)
(-0.316494 0.117734 0)
(-0.344572 0.119931 7.06382e-20)
(-0.373468 0.122039 3.48116e-20)
(-0.403178 0.124074 -6.86333e-20)
(-0.433697 0.126049 -3.38887e-20)
(-0.465026 0.127991 0)
(-0.497156 0.129955 6.61799e-20)
(-0.530061 0.132013 6.54902e-20)
(-0.56363 0.134228 0)
(-0.597629 0.136563 6.4278e-20)
(-0.63189 0.138769 0)
(-0.666486 0.140531 6.31762e-20)
(-0.701442 0.14191 3.1296e-20)
(-0.736524 0.143084 0)
(-0.771657 0.143815 0)
(-0.806957 0.144582 0)
(-0.841863 0.14569 0)
(-0.876072 0.14609 0)
(-0.909926 0.1459 0)
(-0.943158 0.145632 5.78563e-20)
(-0.975811 0.144293 -8.57706e-20)
(-1.00865 0.142063 0)
(-1.04195 0.140002 0)
(-1.07529 0.138367 0)
(-1.10837 0.137153 7.62715e-23)
(-1.14103 0.136044 5.38609e-20)
(-1.17341 0.134949 1.06373e-19)
(-1.20557 0.133827 -1.05137e-19)
(-1.23755 0.132663 -5.19242e-20)
(-1.2694 0.131456 5.14259e-20)
(-1.30112 0.130206 -8.99252e-23)
(-1.33272 0.128915 5.02093e-20)
(-1.3642 0.127582 0)
(-1.39556 0.126208 4.91344e-20)
(-1.42679 0.12479 -9.59733e-23)
(-1.45788 0.123326 0)
(-1.48881 0.121814 0)
(-1.51957 0.12025 -4.71199e-20)
(-1.55015 0.118631 0)
(-1.58052 0.116954 0)
(-1.61066 0.115216 4.56028e-20)
(-1.64056 0.113414 9.04894e-20)
(-1.67019 0.111547 -4.48923e-20)
(-1.69952 0.109613 0)
(-1.72854 0.107609 4.40011e-20)
(-1.75721 0.105535 0)
(-1.78551 0.103391 4.29286e-20)
(-1.81341 0.101176 4.26891e-20)
(-1.84089 0.0988903 -8.43208e-20)
(-1.86791 0.0965345 -4.16355e-20)
(-1.89445 0.0941096 0)
(-1.92048 0.0916169 8.1736e-20)
(-1.94596 0.0890578 0)
(-1.97087 0.0864344 1.20096e-19)
(-1.99519 0.0837486 7.91358e-20)
(-2.01886 0.0810029 7.82599e-20)
(-2.04188 0.0781997 -7.73774e-20)
(-2.0642 0.0753417 1.14806e-19)
(-2.08581 0.0724318 0)
(-2.10665 0.0694727 0)
(-2.12672 0.0664676 -7.37581e-20)
(-2.14597 0.0634194 -1.09301e-19)
(-2.16439 0.060331 0)
(-2.18193 0.0572054 3.55145e-20)
(-2.19858 0.0540453 0)
(-2.21431 0.0508533 -1.03474e-19)
(-2.22908 0.0476321 -8.51081e-23)
(-2.24288 0.0443839 7.62474e-23)
(-2.25567 0.0411108 6.58684e-20)
(-2.26744 0.0378147 0)
(-2.27815 0.0344972 -6.37159e-20)
(-2.28779 0.0311601 -3.82884e-23)
(-2.29634 0.0278051 0)
(-2.30378 0.0244344 0)
(-2.31009 0.0210512 0)
(-2.31526 0.0176605 5.79504e-20)
(-2.31929 0.0142704 0)
(-2.32218 0.010892 0)
(-2.32392 0.00754012 0)
(-2.32448 0.00423505 0)
(-2.32388 0.000999763 0)
(-2.32204 -0.00219692 5.01942e-20)
(-2.31886 -0.00539055 0)
(-2.31434 -0.00857127 4.72918e-20)
(-2.30846 -0.0117348 4.58374e-20)
(-2.30119 -0.0148774 -4.43572e-20)
(-2.29251 -0.0179953 0)
(-2.28242 -0.0210848 -4.13197e-20)
(-2.2709 -0.0241417 0)
(-2.25794 -0.027162 -3.8181e-20)
(-2.24354 -0.0301418 3.65744e-20)
(-2.22768 -0.0330773 1.05209e-19)
(-2.21037 -0.0359646 0)
(-2.1916 -0.0388002 9.52576e-20)
(-2.17137 -0.0415807 3.03573e-20)
(-2.14969 -0.0443028 0)
(-2.12656 -0.0469632 5.33803e-20)
(-2.10198 -0.0495589 4.98737e-20)
(-2.07596 -0.052087 -6.92245e-20)
(-2.04852 -0.0545446 0)
(-2.01965 -0.0569289 -1.92744e-20)
(-1.98938 -0.0592375 -1.74374e-20)
(-1.95773 -0.0614679 -4.73667e-20)
(-1.9247 -0.0636179 0)
(-1.89031 -0.0656857 0)
(-1.8546 -0.0676693 0)
(-1.81757 -0.0695671 -8.72075e-21)
(-1.77926 -0.0713777 0)
(-1.73968 -0.0730997 0)
(-1.69888 -0.0747319 2.2675e-21)
(-1.65687 -0.0762731 3.29966e-22)
(-1.61368 -0.0777225 0)
(-1.56935 -0.0790795 0)
(-1.52392 -0.0803438 -1.10138e-20)
(-1.4774 -0.0815152 0)
(-1.42986 -0.0825939 1.88099e-20)
(-1.38131 -0.0835799 2.1895e-20)
(-1.33179 -0.0844736 0)
(-1.28135 -0.0852756 0)
(-1.23003 -0.0859866 -3.35063e-20)
(-1.17787 -0.086608 -8.36593e-22)
(-1.1249 -0.0871409 -8.41461e-22)
(-1.07117 -0.087587 0)
(-1.01671 -0.0879475 -9.84215e-20)
(-0.961586 -0.0882246 0)
(-0.905823 -0.0884203 0)
(-0.849465 -0.0885372 0)
(-0.792556 -0.0885776 6.45398e-20)
(-0.735136 -0.0885441 0)
(-0.677247 -0.0884397 -1.4189e-19)
(-0.618927 -0.0882675 -7.5369e-20)
(-0.560218 -0.0880307 0)
(-0.501156 -0.0877326 -8.23897e-20)
(-0.441778 -0.0873768 0)
(-0.382121 -0.0869669 0)
(-0.322218 -0.0865064 -2.7609e-19)
(-0.262102 -0.0859988 1.9012e-19)
(-0.201804 -0.0854476 0)
(-0.141354 -0.0848556 2.03039e-19)
(-0.0807787 -0.0842253 -1.05475e-19)
(-0.0201049 -0.0835589 0)
(0.0406423 -0.0828575 0)
(0.101439 -0.0821204 0)
(0.162264 -0.081347 -3.43945e-19)
(0.223099 -0.080539 0)
(0.283931 -0.0797053 -1.18964e-19)
(0.344766 -0.0788599 0)
(0.40562 -0.0780137 0)
(0.466483 -0.0771743 0)
(0.527338 -0.0763491 0)
(0.58817 -0.075535 0)
(0.648966 -0.0747206 0)
(0.709704 -0.0738873 -2.5971e-19)
(0.770349 -0.0730059 0)
(0.830837 -0.0720286 -1.33164e-19)
(0.891051 -0.0708729 4.01975e-19)
(0.950807 -0.0693858 0)
(1.00972 -0.0672761 0)
(1.06744 -0.0639059 -2.74593e-19)
(1.12223 -0.0580566 -2.78104e-19)
(1.17672 -0.0466285 2.80122e-19)
(1.21897 -0.0230681 2.85024e-19)
(-0.00415719 -0.0291717 -2.06273e-19)
(-0.0137267 -0.00315729 -1.87012e-19)
(-0.0253737 0.0204774 -1.10539e-19)
(-0.0380194 0.0411626 -5.0332e-20)
(-0.0516308 0.0597008 0)
(-0.0660142 0.0762671 8.96482e-20)
(-0.0812112 0.0908744 -4.31109e-20)
(-0.0973439 0.103547 0)
(-0.114525 0.114395 -4.06016e-20)
(-0.132822 0.123613 0)
(-0.152254 0.131452 7.72612e-20)
(-0.172801 0.13817 0)
(-0.194415 0.144006 3.69339e-20)
(-0.217037 0.149158 7.23225e-20)
(-0.240606 0.153779 -7.08709e-20)
(-0.265067 0.157986 0)
(-0.290372 0.161865 -6.82362e-20)
(-0.316476 0.16548 0)
(-0.34334 0.16888 0)
(-0.370927 0.172099 -6.48921e-20)
(-0.399194 0.17516 0)
(-0.428098 0.178071 -1.13393e-24)
(-0.457589 0.180838 0)
(-0.487611 0.183464 0)
(-0.518092 0.185956 6.61446e-25)
(-0.548939 0.188321 -5.97625e-20)
(-0.580027 0.190548 -5.90284e-20)
(-0.611204 0.192579 -5.83104e-20)
(-0.642346 0.194277 0)
(-0.67342 0.195508 -1.13781e-19)
(-0.704425 0.196274 0)
(-0.73532 0.19668 -5.54503e-20)
(-0.766059 0.196721 0)
(-0.796592 0.196498 0)
(-0.826836 0.196149 5.32944e-20)
(-0.85673 0.19546 0)
(-0.886317 0.194424 -5.18884e-20)
(-0.915644 0.193171 -7.38972e-24)
(-0.944796 0.1915 1.01028e-19)
(-0.973951 0.189458 -9.96775e-20)
(-1.0032 0.187351 0)
(-1.03248 0.185338 0)
(-1.0617 0.183476 -4.78825e-20)
(-1.09081 0.181704 0)
(-1.11983 0.179978 -4.67363e-20)
(-1.14876 0.178269 4.6163e-20)
(-1.17761 0.176557 4.5605e-20)
(-1.20639 0.174828 0)
(-1.2351 0.173072 -4.45321e-20)
(-1.26376 0.171284 -4.40157e-20)
(-1.29235 0.169456 8.69388e-20)
(-1.32086 0.167583 -4.30189e-20)
(-1.3493 0.165658 -4.25371e-20)
(-1.37764 0.163677 0)
(-1.40587 0.161633 0)
(-1.43398 0.159523 4.11497e-20)
(-1.46195 0.15734 0)