/*--------------------------------*- C++ -*----------------------------------*\
  =========                 |
  \\      /  F ield         | OpenFOAM: The Open Source CFD Toolbox
   \\    /   O peration     | Website:  https://openfoam.org
    \\  /    A nd           | Version:  9
     \\/     M anipulation  |
\*---------------------------------------------------------------------------*/
FoamFile
{
    format      ascii;
    class       volScalarField;
    location    "1850";
    object      alphat;
}
// * * * * * * * * * * * * * * * * * * * * * * * * * * * * * * * * * * * * * //

dimensions      [1 -1 -1 0 0 0 0];

internalField   nonuniform List<scalar> 
4000
(
0.000361975
0.000323337
0.000258728
0.000172727
0.000145363
0.000135146
0.000123132
0.000107786
0.000104617
0.000105534
0.00010622
0.0001062
0.00011012
0.000124585
0.000136845
0.000145232
0.000161515
0.000251023
0.000321157
0.000361896
0.000402455
0.00038568
0.000360187
0.00033536
0.000303393
0.000266594
0.000189862
0.000134871
0.000132926
0.000137608
0.000138396
0.000135235
0.000138172
0.000186356
0.000264781
0.000300683
0.00033122
0.000354898
0.000384072
0.000401992
0.000420184
0.000407642
0.000383772
0.000353074
0.000317391
0.000280769
0.000238667
0.000184269
0.00014565
0.000154913
0.000154133
0.000144688
0.000194258
0.000243925
0.0002852
0.000321012
0.000354988
0.000384058
0.000407578
0.000420251
0.000429648
0.00042253
0.000401606
0.000370634
0.000330093
0.000289957
0.00025593
0.000223913
0.000204543
0.000196515
0.000193074
0.00019935
0.000223626
0.000256468
0.000291201
0.000331316
0.00037077
0.000401381
0.000422632
0.000429976
0.000435941
0.000435091
0.000422635
0.000404485
0.000384182
0.000365335
0.000349467
0.000336209
0.000325865
0.000316823
0.000313736
0.000320848
0.000331365
0.000345473
0.000362349
0.000382162
0.00040325
0.000422145
0.000435261
0.000436403
0.000441209
0.000447425
0.000445652
0.000440191
0.000433111
0.000425191
0.000417025
0.000408482
0.000399524
0.000390259
0.00038758
0.000395689
0.000404642
0.000413692
0.000422562
0.000431205
0.000438993
0.00044514
0.000447503
0.000441726
0.000446641
0.000459947
0.000467254
0.000470901
0.000472291
0.000471382
0.00046801
0.000462334
0.000454106
0.000443735
0.00044155
0.000451146
0.000459418
0.000465524
0.000469444
0.000470956
0.000470121
0.000466968
0.000460087
0.000447203
0.000452974
0.000473323
0.000488368
0.00049885
0.000506269
0.000510531
0.000511325
0.000508205
0.000500455
0.000488391
0.000486433
0.000497968
0.000505936
0.000509552
0.000509307
0.00050558
0.000498591
0.000488419
0.00047362
0.000453589
0.000461545
0.000490194
0.000512369
0.000528707
0.000541052
0.000549598
0.000554136
0.000553707
0.000546818
0.000533028
0.000531133
0.000544801
0.000552128
0.000553163
0.000549171
0.000541083
0.000529033
0.000512835
0.000490697
0.000462218
0.000474187
0.000511206
0.000540993
0.000563103
0.000580485
0.000593794
0.000602793
0.000606673
0.000603897
0.000592605
0.000590855
0.000602451
0.000605674
0.000602292
0.000593696
0.000580705
0.000563553
0.000541547
0.000511779
0.000474895
0.000323337
0.000295035
0.000244203
0.000197545
0.000184805
0.00018053
0.000168637
0.000138757
0.000123584
0.000122897
0.000123446
0.000125471
0.000139341
0.000173174
0.000187872
0.000186965
0.000189017
0.000237301
0.000297546
0.000322629
0.00038568
0.000534271
0.000517428
0.000474857
0.00044387
0.000413806
0.000338727
0.000282809
0.000299778
0.000359177
0.000354007
0.000306056
0.000294613
0.000347027
0.000414943
0.000442692
0.000466956
0.000500972
0.000520692
0.000383268
0.000407642
0.000546432
0.000547231
0.000502355
0.0004483
0.000406492
0.000364256
0.00032292
0.000320633
0.000402128
0.000379394
0.000320169
0.000330303
0.000374257
0.000414629
0.000456747
0.000510728
0.000556195
0.00055885
0.000406851
0.00042253
0.000560459
0.000577734
0.000531825
0.000450431
0.000392966
0.000348803
0.000307784
0.000301392
0.000404212
0.000361495
0.000291548
0.000313907
0.000356695
0.000398427
0.000453037
0.000529256
0.000575812
0.000562277
0.0004221
0.000435091
0.000590127
0.000624806
0.000593404
0.000503254
0.000421387
0.000368828
0.000324087
0.000301862
0.000318382
0.000307278
0.000298976
0.00032662
0.00037243
0.000422704
0.000501553
0.000588451
0.000622175
0.000590563
0.00043504
0.000447425
0.00061601
0.000663541
0.00065984
0.000599398
0.000501925
0.000438205
0.000391955
0.000367437
0.000364577
0.000358526
0.000363247
0.000389819
0.000436246
0.000499874
0.000593284
0.000655113
0.000662617
0.000617118
0.000447676
0.000459947
0.000633282
0.000685507
0.000713297
0.000715163
0.000679737
0.000601658
0.000528287
0.000478324
0.000458101
0.000452676
0.000469772
0.00051606
0.000590546
0.000668691
0.000707168
0.000709814
0.000686474
0.000635319
0.00046053
0.000473323
0.000641833
0.000691341
0.000740716
0.000782206
0.000799565
0.000792719
0.000771969
0.000738927
0.000703007
0.000697148
0.000727394
0.000761853
0.000784761
0.000793717
0.000779532
0.000740651
0.000694493
0.000644759
0.000474168
0.000490194
0.000626155
0.000682733
0.000726383
0.000759949
0.00077861
0.000783912
0.00077219
0.000735686
0.000680019
0.000674569
0.000728276
0.000767656
0.000783075
0.000780087
0.000763747
0.000731315
0.000687906
0.000629699
0.000491246
0.000511206
0.000549533
0.00058157
0.000606989
0.000628774
0.000647143
0.000661013
0.000668534
0.000667169
0.000654806
0.000653016
0.000665802
0.000667845
0.000661069
0.000647789
0.00062989
0.000608401
0.000583015
0.000550806
0.000512263
0.000258728
0.000244203
0.000221411
0.000206924
0.000203872
0.000204627
0.000189663
0.000161456
0.000142191
0.000135674
0.000135398
0.000142061
0.000162407
0.000194535
0.000213546
0.000209687
0.000206875
0.000213683
0.000244413
0.000261359
0.000360187
0.000517428
0.000535346
0.000518575
0.000507366
0.000482246
0.000407604
0.000350746
0.000360667
0.00041948
0.000413889
0.000365524
0.00036497
0.000420975
0.000485894
0.000507047
0.000512206
0.000519965
0.000496361
0.000351376
0.000383772
0.000547231
0.000577532
0.000549596
0.000510095
0.000477429
0.000444921
0.000412877
0.000410528
0.000473712
0.000448347
0.000405438
0.000421528
0.000457763
0.000488562
0.00052036
0.000559992
0.00058631
0.000557223
0.000383001
0.000401606
0.000577734
0.000619282
0.000586366
0.000516731
0.000465689
0.000428922
0.000399017
0.000412158
0.000485984
0.000452135
0.0003934
0.000403839
0.000438631
0.000473531
0.00052036
0.000584443
0.000615975
0.000575663
0.000400512
0.000422635
0.000624806
0.000677459
0.00064797
0.000553186
0.000469977
0.000415715
0.000371722
0.000353346
0.000384868
0.000364388
0.000347108
0.000378735
0.000424183
0.000475625
0.000554822
0.000644879
0.00067434
0.000622112
0.000421846
0.000445652
0.000663541
0.000725877
0.000708737
0.000613785
0.000502057
0.000428057
0.000372389
0.00033878
0.000341603
0.000334286
0.000338003
0.000378059
0.000434026
0.000506102
0.00061486
0.000708198
0.000726291
0.000663051
0.000445426
0.000467254
0.000685507
0.000755185
0.000754676
0.000686091
0.000587473
0.000504125
0.000439279
0.000396563
0.000385017
0.000382229
0.000396947
0.000441191
0.000507891
0.000590502
0.00068867
0.000757847
0.000759704
0.000687742
0.00046768
0.000488368
0.000691341
0.000775771
0.000809259
0.000789937
0.00073609
0.000679312
0.00062644
0.000575765
0.000537031
0.000535648
0.00057613
0.000630565
0.000686971
0.000743558
0.000797552
0.00081738
0.000784682
0.00069632
0.00048932
0.000512369
0.000682733
0.000821819
0.000949713
0.00103026
0.00106616
0.00106355
0.00104074
0.000974413
0.000866587
0.000862151
0.000971084
0.00104649
0.00107818
0.00107969
0.00104468
0.000964474
0.000834286
0.000689689
0.000513683
0.000540993
0.00058157
0.000615096
0.000642628
0.00066758
0.000690098
0.000708442
0.000719561
0.000719779
0.000705808
0.00070397
0.000718559
0.000719253
0.000709087
0.000691472
0.000669536
0.000644856
0.000617168
0.000583216
0.000542156
0.000172727
0.000197545
0.000206924
0.000210062
0.000214423
0.000217578
0.000199974
0.000174132
0.000155091
0.000147256
0.00014652
0.000154811
0.000175409
0.000204248
0.000225191
0.000224709
0.000215031
0.000207267
0.000190925
0.00016344
0.00033536
0.000474857
0.000518575
0.000532944
0.000537785
0.000508268
0.000436869
0.000393377
0.00040894
0.000474576
0.000468079
0.000413425
0.000407827
0.000454924
0.00051738
0.00053772
0.000530258
0.00050978
0.000461335
0.000327467
0.000353074
0.000502355
0.000549596
0.000547115
0.000532803
0.000516224
0.000497701
0.00046881
0.000468967
0.000536699
0.000509265
0.000462047
0.000478999
0.000512843
0.000530528
0.000544733
0.000559072
0.000560937
0.000512046
0.000354529
0.000370634
0.000531825
0.000586366
0.000574434
0.000537817
0.000508276
0.00048656
0.000469886
0.000490121
0.000550926
0.000515236
0.000468894
0.000472238
0.000496404
0.000518378
0.000544962
0.00057738
0.000586299
0.000530159
0.000369922
0.000404485
0.000593404
0.00064797
0.00063181
0.000569608
0.000512402
0.000473499
0.000444888
0.00044634
0.000505348
0.00046973
0.000432179
0.00044989
0.000482664
0.00052076
0.000575591
0.000634002
0.000647382
0.000589595
0.000402947
0.000440191
0.00065984
0.000708737
0.000692853
0.000617675
0.000533663
0.000472947
0.000426141
0.000399211
0.000413562
0.00039772
0.000396431
0.000433893
0.000482392
0.000542121
0.000625033
0.000698453
0.000711287
0.000657183
0.000439478
0.000470901
0.000713297
0.000754676
0.000742494
0.000675807
0.000589741
0.000520576
0.000465659
0.000425955
0.000417876
0.000415105
0.000431404
0.000476514
0.000532263
0.000600899
0.000687348
0.000753437
0.000762159
0.000713569
0.000471149
0.00049885
0.000740716
0.000809259
0.000831385
0.000795207
0.000733885
0.000680596
0.000635028
0.000587981
0.000547445
0.000548289
0.000596774
0.000650487
0.000699052
0.000752744
0.000815372
0.000852007
0.000824511
0.000746229
0.000499827
0.000528707
0.000726383
0.000949713
0.00112833
0.00115351
0.0011747
0.00120618
0.00121785
0.00116384
0.00104496
0.00104148
0.00117051
0.00123619
0.00123331
0.00120604
0.00118751
0.00116423
0.000969292
0.000735841
0.000530193
0.000563103
0.000606989
0.000642628
0.000672594
0.000701591
0.00072933
0.000753184
0.000769021
0.000772487
0.00076071
0.000758952
0.000771534
0.000769068
0.000754222
0.000731256
0.000704165
0.000675386
0.000645027
0.000608759
0.00056426
0.000145363
0.000184805
0.000203872
0.000214423
0.000223932
0.000220423
0.000201971
0.000180545
0.000163828
0.000157107
0.000156443
0.000163645
0.000181946
0.000205783
0.000226815
0.000232279
0.000224501
0.000209539
0.000186654
0.000145914
0.000303393
0.00044387
0.000507366
0.000537785
0.000538051
0.000501143
0.000446376
0.000420755
0.000443266
0.000524368
0.000519413
0.000447311
0.00043366
0.000466042
0.000517745
0.000543843
0.000536942
0.000504864
0.000439201
0.000298508
0.000317391
0.0004483
0.000510095
0.000532803
0.000539499
0.000538699
0.000526453
0.000496819
0.00050625
0.000594408
0.000566516
0.000498222
0.000507472
0.000542402
0.000555635
0.00055402
0.000545395
0.000521914
0.000458484
0.000321115
0.000330093
0.000450431
0.000516731
0.000537817
0.000536017
0.000530475
0.00052293
0.000516742
0.00054008
0.000612278
0.000576433
0.000519127
0.000517384
0.000532224
0.000542291
0.000547023
0.000546745
0.00052373
0.000455172
0.000330305
0.000384182
0.000503254
0.000553186
0.000569608
0.000553613
0.000531474
0.000513277
0.000501475
0.000521
0.000595106
0.000557424
0.000502229
0.000503676
0.000521778
0.000541534
0.000563628
0.000578393
0.000559568
0.000504201
0.000381795
0.000433111
0.000599398
0.000613785
0.000617675
0.000589549
0.000548581
0.000512892
0.000484977
0.000482173
0.000534494
0.000509269
0.000474405
0.000491853
0.000523337
0.000559887
0.000601594
0.000629259
0.000621502
0.000597564
0.000431936
0.000472291
0.000715163
0.000686091
0.000675807
0.000645864
0.000598978
0.000554164
0.000516011
0.000495666
0.000520672
0.000516061
0.000502152
0.000529794
0.000569247
0.000614659
0.000663039
0.000692849
0.000697465
0.00071365
0.00047236
0.000506269
0.000782206
0.000789937
0.000795207
0.000769323
0.000724714
0.000685112
0.000651705
0.000616301
0.000590073
0.000593501
0.000630058
0.00067253
0.000708331
0.000749073
0.000795445
0.000821817
0.000809887
0.000789607
0.000507194
0.000541052
0.000759949
0.00103026
0.00115351
0.00122634
0.00129258
0.00136215
0.00139207
0.0013217
0.0011535
0.00115258
0.00133323
0.00141636
0.0013956
0.00133016
0.00126564
0.00119185
0.00105351
0.00077036
0.000542574
0.000580485
0.000628774
0.00066758
0.000701591
0.000737185
0.00077084
0.000799717
0.000819952
0.000826959
0.000817967
0.000816263
0.000826015
0.00081998
0.000800735
0.000772684
0.000739672
0.000704332
0.000669881
0.000630422
0.00058155
0.000135146
0.00018053
0.000204627
0.000217578
0.000220423
0.00021302
0.000198968
0.000183581
0.000170924
0.000166671
0.000166166
0.000170751
0.000184694
0.000202037
0.000218085
0.000226899
0.000225007
0.000212669
0.000185915
0.000135119
0.000266594
0.000413806
0.000482246
0.000508268
0.000501143
0.000473723
0.000448967
0.000440345
0.000472216
0.000561888
0.000557569
0.000475226
0.000449564
0.000464549
0.000493476
0.000516665
0.000516151
0.000484975
0.00041484
0.000265008
0.000280769
0.000406492
0.000477429
0.000516224
0.000538699
0.000546651
0.000530557
0.000506981
0.000531019
0.000622192
0.00059773
0.00052167
0.000515567
0.00054548
0.000563633
0.000555551
0.000531122
0.000490131
0.000416648
0.00028538
0.000289957
0.000392966
0.000465689
0.000508276
0.000530475
0.000541132
0.000542613
0.000541533
0.000565995
0.000635183
0.000603217
0.00054666
0.000541061
0.000550462
0.000552853
0.000543314
0.000520578
0.000476485
0.000400135
0.000289485
0.000365335
0.000421387
0.000469977
0.000512401
0.000531474
0.000536402
0.000535184
0.000536608
0.000567352
0.000632439
0.000602127
0.000548397
0.000536858
0.000542163
0.000546244
0.000542588
0.000523524
0.000479178
0.000424368
0.000361834
0.000425191
0.000501925
0.000502057
0.000533663
0.000548581
0.000544611
0.000532972
0.000524228
0.000543486
0.00060404
0.000582293
0.000533692
0.000529466
0.00054261
0.000556035
0.000561238
0.000546262
0.000511312
0.000502144
0.000423495
0.000471382
0.000679737
0.000587473
0.000589741
0.000598978
0.000589011
0.000568012
0.000547596
0.000550151
0.000603729
0.000599547
0.000556751
0.00056165
0.00058356
0.000605401
0.000616486
0.00060695
0.000599665
0.000676666
0.000471217
0.000510531
0.000799565
0.000736089
0.000733885
0.000724714
0.000703139
0.00068277
0.000662354
0.000633884
0.000617981
0.000622364
0.000648951
0.00068441
0.000707293
0.000728532
0.000750915
0.000759653
0.000755995
0.000806595
0.000511342
0.000549598
0.000778609
0.00106616
0.0011747
0.00129258
0.00140843
0.00150446
0.00152738
0.00139713
0.00112068
0.00111772
0.00140621
0.00154978
0.00153677
0.00144518
0.00133078
0.00121038
0.00109091
0.000788002
0.000551016
0.000593794
0.000647143
0.000690098
0.00072933
0.00077084
0.000810016
0.00084394
0.00086897
0.000880668
0.000876897
0.000875058
0.000879422
0.000868607
0.000844536
0.000811436
0.000772879
0.000731602
0.000692046
0.000648566
0.000594738
0.000123132
0.000168637
0.000189663
0.000199974
0.000201971
0.000198968
0.000192498
0.000184399
0.000177617
0.000178429
0.000178135
0.000177271
0.000184766
0.000194222
0.000202285
0.000206432
0.00020484
0.000194073
0.000169576
0.000122026
0.000189862
0.000338727
0.000407604
0.000436869
0.000446376
0.000448967
0.000449611
0.000457578
0.000500669
0.000590412
0.000585478
0.000501658
0.000461391
0.00045687
0.000461101
0.000461439
0.000450754
0.000417704
0.00034523
0.00018936
0.000238667
0.000364256
0.000444921
0.000497701
0.000526453
0.000530557
0.000518224
0.000512692
0.000546612
0.00059435
0.000577583
0.000536336
0.000515853
0.000528179
0.000544169
0.000541069
0.000511535
0.000456835
0.000373499
0.000242144
0.00025593
0.000348803
0.000428922
0.00048656
0.00052293
0.000542613
0.000549065
0.000549224
0.000570377
0.000562869
0.000546486
0.000553919
0.000547091
0.000553348
0.000551026
0.00053353
0.000497876
0.000439481
0.000355823
0.000253264
0.000349467
0.000368828
0.000415715
0.000473499
0.000513277
0.000535184
0.000545607
0.00055527
0.000580001
0.000539829
0.000527293
0.000564688
0.00055418
0.00054995
0.000542374
0.000522325
0.00048343
0.000424652
0.000371905
0.000344937
0.000417025
0.000438205
0.000428057
0.000472947
0.000512892
0.000532972
0.000539618
0.000545818
0.000567001
0.000524437
0.000514893
0.000559158
0.000549176
0.0005468
0.000541921
0.000523074
0.000483383
0.000436152
0.000438303
0.00041484
0.00046801
0.000601658
0.000504125
0.000520576
0.000554164
0.000568012
0.000564873
0.000560132
0.000576021
0.000576561
0.000575014
0.000582772
0.000572963
0.000578639
0.000582112
0.000568634
0.000534662
0.000514712
0.00059794
0.000467609
0.000511324
0.000792719
0.000679312
0.000680596
0.000685112
0.00068277
0.000676006
0.000658943
0.000627293
0.000606061
0.000609163
0.00064052
0.000678705
0.000698574
0.000706072
0.000708298
0.000703087
0.000698795
0.000798932
0.000511999
0.000554136
0.000783912
0.00106355
0.00120618
0.00136215
0.00150446
0.00160276
0.00157688
0.00132795
0.000954309
0.000948372
0.00132714
0.00159049
0.00162843
0.00153697
0.00139597
0.00123706
0.00109231
0.000792711
0.000555407
0.000602793
0.000661013
0.000708442
0.000753184
0.000799717
0.00084394
0.000883385
0.000914525
0.000934569
0.000944846
0.000942837
0.000932867
0.00091356
0.000883369
0.000844804
0.000801206
0.0007549
0.00071008
0.000662218
0.000603595
0.000107786
0.000138757
0.000161456
0.000174132
0.000180545
0.000183581
0.000184399
0.000184097
0.000184662
0.000191432
0.0001912
0.000184121
0.000183482
0.000184392
0.000184449
0.00018205
0.000175687
0.000161909
0.000133397
0.000105566
0.000134871
0.000282809
0.000350746
0.000393377
0.000420755
0.000440345
0.000457578
0.000481463
0.000514622
0.00048574
0.000474358
0.000510448
0.000479644
0.000456198
0.000440986
0.000423387
0.000396757
0.000353625
0.00028249
0.000132241
0.000184269
0.00032292
0.000412877
0.00046881
0.000496819
0.000506981
0.000512692
0.000523714
0.000505072
0.000345321
0.000335625
0.000495305
0.000519831
0.000513655
0.00051208
0.000504176
0.000476357
0.000419243
0.000327917
0.000188185
0.000223913
0.000307784
0.000399017
0.000469886
0.000516742
0.000541533
0.000549224
0.000548402
0.000484605
0.00031417
0.000304332
0.000474171
0.000543226
0.000547908
0.000542723
0.000519786
0.000474213
0.000403972
0.000310894
0.000217095
0.000336209
0.000324087
0.000371722
0.000444888
0.000501474
0.000536608
0.00055527
0.000559523
0.000467828
0.000345927
0.00033424
0.000460212
0.000556588
0.000555184
0.000537966
0.000504341
0.000449469
0.000377167
0.000325289
0.00033063
0.000408482
0.000391955
0.000372389
0.000426141
0.000484977
0.000524228
0.000545818
0.000550911
0.000447317
0.000394166
0.000381847
0.00044445
0.000552187
0.000548484
0.000527767
0.000489662
0.000432067
0.000377923
0.000390965
0.000405823
0.000462334
0.000528287
0.000439279
0.000465659
0.000516011
0.000547596
0.000560132
0.000563872
0.000495352
0.000478483
0.000471822
0.00050179
0.000574414
0.000570253
0.000557216
0.000525718
0.000475867
0.000447664
0.000523474
0.000461681
0.000508205
0.000771969
0.00062644
0.000635027
0.000651705
0.000662354
0.000658943
0.000634482
0.000589742
0.000570597
0.000569018
0.000598496
0.000649417
0.000676622
0.000681269
0.000670887
0.000654318
0.00064474
0.000776482
0.000508709
0.000553707
0.00077219
0.00104074
0.00121785
0.00139207
0.00152738
0.00157688
0.00142905
0.00109261
0.000992509
0.000990144
0.00108669
0.00142779
0.00159107
0.00155248
0.00142077
0.00124484
0.00106745
0.000780171
0.000554785
0.000606673
0.000668534
0.000719561
0.000769021
0.000819952
0.00086897
0.000914525
0.000954992
0.000993442
0.00103685
0.00103458
0.000991521
0.000953478
0.000913898
0.000869273
0.000820932
0.000770288
0.000720846
0.000669451
0.000607253
0.000104617
0.000123584
0.000142191
0.000155091
0.000163828
0.000170924
0.000177617
0.000184662
0.00019142
0.000201716
0.000201488
0.000190503
0.00018329
0.000176063
0.000169496
0.000162407
0.000153295
0.00013883
0.000118789
0.000101431
0.000132926
0.000299778
0.000360667
0.00040894
0.000443266
0.000472216
0.000500669
0.000514622
0.000417599
0.000462326
0.000454262
0.00040358
0.00050655
0.000495873
0.000468621
0.000440556
0.000406504
0.00035689
0.000301885
0.000131621
0.00014565
0.000320633
0.000410528
0.000468967
0.00050625
0.000531019
0.000546612
0.000505072
0.000308546
0.000579291
0.000575427
0.000302269
0.000494555
0.000539476
0.000526059
0.000502857
0.000466304
0.000408052
0.00031747
0.000144523
0.000204543
0.000301392
0.000412158
0.000490121
0.00054008
0.000565995
0.000570377
0.000484605
0.00031453
0.000787989
0.000785054
0.000311677
0.00047444
0.000561792
0.000557726
0.000531674
0.000481492
0.000403875
0.000296072
0.000189594
0.000325865
0.000301862
0.000353346
0.00044634
0.000521
0.000567352
0.000580001
0.000467828
0.000370328
0.00103988
0.00103803
0.000370126
0.000460027
0.000571174
0.000557366
0.000510922
0.000438412
0.00034988
0.000298307
0.000319328
0.000399524
0.000367437
0.00033878
0.000399211
0.000482174
0.000543486
0.000567001
0.000447317
0.000436467
0.00128131
0.00127918
0.000438216
0.000443304
0.000560549
0.000535476
0.000475129
0.000396319
0.000339252
0.00036395
0.000396439
0.000454106
0.000478324
0.000396563
0.000425955
0.000495666
0.000550151
0.000576021
0.000495352
0.000531128
0.00145072
0.00144974
0.000535576
0.000499801
0.000578642
0.000551288
0.000497458
0.000430889
0.000401791
0.000473552
0.000453269
0.000500455
0.000738927
0.000575765
0.000587981
0.000616301
0.000633884
0.000627293
0.000589742
0.000631738
0.00149637
0.00149559
0.00063607
0.000597343
0.000637143
0.000645689
0.000630142
0.000604225
0.00059267
0.000741549
0.000500856
0.000546818
0.000735686
0.000974413
0.00116384
0.0013217
0.00139713
0.00132795
0.00109261
0.00106549
0.0014843
0.00148064
0.00106677
0.00108794
0.00133126
0.00141304
0.00134462
0.00118774
0.000998931
0.000743183
0.000547748
0.000603897
0.000667169
0.000719779
0.000772487
0.000826959
0.000880668
0.000934569
0.000993442
0.00106721
0.00115221
0.00114859
0.00106539
0.000992035
0.000933707
0.000880603
0.000827574
0.000773442
0.000720816
0.000667855
0.000604266
0.000105534
0.000122897
0.000135674
0.000147256
0.000157107
0.000166671
0.000178429
0.000191432
0.000201716
0.00021004
0.000208967
0.000199788
0.000188995
0.00017565
0.00016359
0.000153741
0.000143428
0.000130835
0.000119176
0.000102401
0.000137608
0.000359177
0.00041948
0.000474576
0.000524368
0.000561888
0.000590412
0.00048574
0.000462326
0.000302359
0.000295434
0.000446335
0.000460817
0.000578598
0.000556293
0.000522199
0.000471761
0.000419636
0.000361503
0.000136496
0.000154913
0.000402128
0.000473712
0.000536699
0.000594408
0.000622192
0.00059435
0.000345321
0.000579291
0.000444109
0.000434477
0.000576943
0.000329065
0.000576577
0.000609976
0.000585074
0.000527077
0.000464212
0.000393474
0.000154301
0.000196515
0.000404212
0.000485984
0.000550926
0.000612278
0.000635183
0.000562869
0.00031417
0.000787989
0.000599681
0.000587722
0.000796103
0.000305023
0.000544048
0.000619219
0.000599068
0.000537106
0.000470239
0.000391323
0.000181852
0.000316823
0.000318382
0.000384868
0.000505348
0.000595106
0.000632439
0.000539829
0.000345927
0.00103988
0.000776285
0.000761944
0.00105818
0.000342442
0.000520736
0.000613429
0.00057488
0.000485255
0.000371535
0.000311479
0.000309814
0.000390259
0.000364577
0.000341603
0.000413562
0.000534494
0.00060404
0.000524437
0.000394166
0.00128131
0.000970629
0.000953556
0.00130493
0.000394914
0.000507289
0.000584673
0.000513597
0.000399595
0.000336264
0.000358975
0.00038703
0.000443735
0.000458101
0.000385017
0.000417876
0.000520672
0.000603729
0.000576561
0.000478482
0.00145072
0.00116385
0.00114356
0.00147363
0.000481648
0.000569793
0.000595093
0.000512653
0.00041655
0.000386446
0.000452271
0.000443037
0.000488391
0.000703007
0.000537031
0.000547445
0.000590073
0.000617981
0.000606061
0.000570597
0.00149637
0.00131591
0.00129154
0.0015145
0.000574326
0.000606801
0.00062075
0.000597192
0.000559931
0.000551171
0.000705036
0.000489078
0.000533028
0.000680019
0.000866587
0.00104496
0.0011535
0.00112068
0.000954309
0.000992509
0.0014843
0.00141255
0.00138701
0.00149139
0.000994746
0.000952404
0.00112677
0.00116983
0.00106495
0.000889209
0.000687848
0.000534136
0.000592605
0.000654806
0.000705808
0.00076071
0.000817967
0.000876897
0.000944846
0.00103685
0.00115221
0.00119562
0.00118529
0.0011507
0.00103625
0.0009443
0.000876772
0.000818457
0.000761567
0.000706887
0.00065548
0.000592937
0.00010622
0.000123446
0.000135398
0.00014652
0.000156443
0.000166166
0.000178135
0.0001912
0.000201488
0.000208967
0.000206235
0.000198247
0.00018793
0.000174774
0.000162712
0.000152911
0.000142823
0.000130739
0.000120179
0.000103786
0.000138396
0.000354007
0.000413889
0.000468079
0.000519413
0.000557569
0.000585478
0.000474358
0.000454262
0.000295434
0.000286251
0.000436508
0.000447345
0.000561799
0.00053574
0.000501148
0.00045318
0.00040377
0.000348348
0.000137143
0.000154133
0.000379394
0.000448347
0.000509266
0.000566516
0.00059773
0.000577583
0.000335625
0.000575427
0.000434477
0.000422087
0.000561752
0.000320912
0.00055828
0.000580567
0.000554357
0.000502208
0.000443847
0.00037838
0.000153234
0.000193074
0.000361495
0.000452135
0.000515236
0.000576433
0.000603217
0.000546486
0.000304332
0.000785055
0.000587722
0.000573259
0.000774067
0.000295956
0.000533783
0.000591908
0.000569593
0.000512913
0.000450011
0.000370471
0.000174438
0.000313736
0.000307278
0.000364389
0.00046973
0.000557424
0.000602127
0.000527293
0.00033424
0.00103803
0.000761944
0.000746535
0.0010303
0.000330326
0.000518709
0.000593112
0.000551019
0.000465639
0.000361232
0.00030366
0.000304226
0.00038758
0.000358526
0.000334286
0.00039772
0.000509269
0.000582293
0.000514893
0.000381847
0.00127918
0.000953556
0.000938093
0.00127024
0.000380053
0.000510591
0.000574149
0.000501591
0.000392684
0.000332103
0.000352668
0.000382947
0.00044155
0.000452676
0.000382229
0.000415105
0.000516061
0.000599547
0.000575014
0.000471822
0.00144974
0.00114356
0.00112904
0.00143619
0.000473314
0.000579115
0.000598259
0.000514077
0.000415656
0.000382945
0.000445509
0.000440272
0.000486433
0.000697148
0.000535648
0.000548289
0.000593501
0.000622364
0.000609163
0.000569018
0.00149559
0.00129154
0.00127844
0.00147719
0.000574673
0.000618142
0.000630263
0.000602616
0.000559808
0.000547596
0.000697631
0.000487063
0.000531133
0.000674569
0.000862151
0.00104148
0.00115258
0.00111772
0.000948372
0.000990144
0.00148064
0.00138701
0.00137395
0.0014636
0.000989177
0.000959277
0.00113524
0.00117561
0.00106544
0.000883466
0.000682963
0.000532605
0.000590855
0.000653016
0.00070397
0.000758952
0.000816263
0.000875058
0.000942837
0.00103458
0.00114859
0.00118529
0.00118599
0.00114616
0.00103316
0.000942842
0.000876258
0.000818319
0.000761386
0.000706339
0.000654763
0.000591964
0.0001062
0.000125471
0.000142061
0.000154811
0.000163645
0.000170751
0.000177271
0.000184121
0.000190503
0.000199788
0.000198247
0.00018948
0.000183279
0.00017647
0.000169936
0.000162778
0.000153687
0.000139108
0.000122631
0.000104308
0.000135235
0.000306056
0.000365524
0.000413425
0.000447311
0.000475226
0.000501658
0.000510448
0.000403581
0.000446335
0.000436508
0.00038896
0.000495212
0.000486436
0.000461303
0.000435252
0.000403328
0.000356372
0.000300989
0.000134494
0.000144688
0.000320169
0.000405438
0.000462047
0.000498222
0.00052167
0.000536336
0.000495305
0.000302269
0.000576943
0.000561752
0.000296083
0.000487122
0.00052663
0.000513484
0.000491597
0.000457206
0.000402655
0.00031903
0.000144904
0.00019935
0.000291548
0.0003934
0.000468894
0.000519127
0.00054666
0.000553919
0.000474171
0.000311677
0.000796103
0.000774067
0.000305563
0.000471908
0.000548551
0.000541935
0.000516255
0.000468618
0.000395256
0.00029285
0.000179753
0.000320848
0.000298976
0.000347108
0.000432179
0.000502229
0.000548397
0.000564688
0.000460212
0.000370126
0.00105818
0.0010303
0.000363299
0.000464576
0.000563819
0.000547212
0.000501891
0.000433215
0.000348573
0.000295173
0.000311103
0.000395689
0.000363247
0.000338003
0.000396431
0.000474405
0.000533692
0.000559158
0.00044445
0.000438216
0.00130493
0.00127024
0.000428475
0.000453956
0.000561565
0.000534629
0.000475551
0.000398434
0.000338959
0.000357424
0.00039089
0.000451146
0.000469772
0.000396947
0.000431404
0.000502152
0.000556751
0.000582772
0.00050179
0.000535576
0.00147363
0.00143619
0.000527492
0.000517839
0.000591768
0.000563442
0.000507743
0.000436522
0.000398995
0.000462581
0.000449786
0.000497968
0.000727393
0.00057613
0.000596774
0.000630058
0.00064895
0.00064052
0.000598496
0.00063607
0.0015145
0.00147719
0.000634769
0.000615568
0.000657023
0.000664798
0.000644916
0.000610623
0.000589097
0.000730065
0.000498663
0.000544801
0.000728276
0.000971084
0.00117051
0.00133323
0.00140621
0.00132714
0.00108669
0.00106677
0.00149139
0.0014636
0.00106065
0.00110104
0.00135032
0.00143319
0.00136129
0.00119547
0.000994491
0.000738648
0.000546541
0.000602451
0.000665802
0.000718559
0.000771534
0.000826015
0.000879422
0.000932867
0.000991521
0.00106539
0.0011507
0.00114616
0.00106287
0.000990736
0.000933458
0.000881013
0.000828234
0.00077394
0.00072083
0.000667621
0.000603765
0.00011012
0.000139341
0.000162407
0.000175409
0.000181946
0.000184694
0.000184766
0.000183482
0.00018329
0.000188995
0.00018793
0.000183279
0.000184181
0.000185797
0.00018598
0.000183374
0.00017667
0.000161836
0.000138815
0.000109064
0.000138172
0.000294613
0.00036497
0.000407827
0.00043366
0.000449564
0.000461391
0.000479643
0.00050655
0.000460817
0.000447345
0.000495212
0.00047397
0.000457286
0.000445618
0.000430138
0.000405261
0.000362661
0.000292667
0.00013717
0.000194258
0.000330303
0.000421528
0.000478999
0.000507472
0.000515567
0.000515853
0.000519831
0.000494555
0.000329065
0.000320912
0.000487122
0.000515819
0.000512735
0.000511784
0.000503093
0.000475304
0.000419985
0.000330279
0.000187038
0.000223626
0.000313907
0.000403838
0.000472238
0.000517384
0.000541061
0.000547091
0.000543226
0.00047444
0.000305023
0.000295956
0.000471908
0.000540103
0.000544093
0.000538639
0.000516549
0.000473254
0.000406119
0.000314037
0.000210054
0.000331365
0.00032662
0.000378735