/*--------------------------------*- C++ -*----------------------------------*\
  =========                 |
  \\      /  F ield         | OpenFOAM: The Open Source CFD Toolbox
   \\    /   O peration     | Website:  https://openfoam.org
    \\  /    A nd           | Version:  9
     \\/     M anipulation  |
\*---------------------------------------------------------------------------*/
FoamFile
{
    format      ascii;
    class       volScalarField;
    location    "1850";
    object      nut;
}
// * * * * * * * * * * * * * * * * * * * * * * * * * * * * * * * * * * * * * //

dimensions      [0 2 -1 0 0 0 0];

internalField   nonuniform List<scalar> 
4000
(
0.000312348
0.000278993
0.000223217
0.000149006
0.000125403
0.000116592
0.000106229
9.29889e-05
9.02554e-05
9.10466e-05
9.16383e-05
9.1621e-05
9.50025e-05
0.000107482
0.000118057
0.00012529
0.000139335
0.000216569
0.000277113
0.00031228
0.000347306
0.00033283
0.000310826
0.000289397
0.000261803
0.000230045
0.000163831
0.00011638
0.000114702
0.000118742
0.000119422
0.000116694
0.000119229
0.000160805
0.000228478
0.000259463
0.000285822
0.000306259
0.000331443
0.000346907
0.000362621
0.000351801
0.000331203
0.00030471
0.000273912
0.000242301
0.000205965
0.00015902
0.000125693
0.000133687
0.000133014
0.000124863
0.00016764
0.000210502
0.000246126
0.000277037
0.000306362
0.00033145
0.000351746
0.00036268
0.000370804
0.000364665
0.00034661
0.000319882
0.000284891
0.000250248
0.000220879
0.000193246
0.000176529
0.0001696
0.00016663
0.000172047
0.000192998
0.000221344
0.000251322
0.000285947
0.000319999
0.000346416
0.000364753
0.000371088
0.000376251
0.000375522
0.000364775
0.000349112
0.000331589
0.000315323
0.000301627
0.000290184
0.000281256
0.000273452
0.000270787
0.000276926
0.000286003
0.00029818
0.000312746
0.000329846
0.000348047
0.000364353
0.000375669
0.00037665
0.000380812
0.000386182
0.000384656
0.000379946
0.000373837
0.000367002
0.000359954
0.00035258
0.000344848
0.000336852
0.000334539
0.000341539
0.000349266
0.000357077
0.000364733
0.000372192
0.000378912
0.000384216
0.00038625
0.000381259
0.000385516
0.000397005
0.000403317
0.000406469
0.000407671
0.000406888
0.000403979
0.00039908
0.000391978
0.000383025
0.00038114
0.000389423
0.000396563
0.000401833
0.000405215
0.00040652
0.000405796
0.000403072
0.000397127
0.000386002
0.000390997
0.000408567
0.000421558
0.00043061
0.000437017
0.000440699
0.000441385
0.000438693
0.000432004
0.00042159
0.0004199
0.000429857
0.000436735
0.000439856
0.000439643
0.000436423
0.000430387
0.000421603
0.000408823
0.000391528
0.000398409
0.000423144
0.000442291
0.000456399
0.000467059
0.00047444
0.000478359
0.00047799
0.000472044
0.000460139
0.000458503
0.000470303
0.000476628
0.000477519
0.000474072
0.000467086
0.000456681
0.000442694
0.00042358
0.000398991
0.000409334
0.000441294
0.000467012
0.000486103
0.000501112
0.000512605
0.000520377
0.000523729
0.000521334
0.000511585
0.000510075
0.000520086
0.000522868
0.000519946
0.000512522
0.000501303
0.000486492
0.000467491
0.000441789
0.000409946
0.000278993
0.000254557
0.000210677
0.000170416
0.000159428
0.000155745
0.000145487
0.000119709
0.000106618
0.000106026
0.0001065
0.000108246
0.000120213
0.000149402
0.00016208
0.000161293
0.000163059
0.000204722
0.000256728
0.000278384
0.00033283
0.000461053
0.000446514
0.000409772
0.000383025
0.000357074
0.000292285
0.000244035
0.000258679
0.000309934
0.000305473
0.000264096
0.000254221
0.000299446
0.000358052
0.000382004
0.000402949
0.000432307
0.000449332
0.000330749
0.000351801
0.00047158
0.000472271
0.000433543
0.000386887
0.000350799
0.000314345
0.000278673
0.0002767
0.000347028
0.000327409
0.000276299
0.000285044
0.000322976
0.000357821
0.000394177
0.000440769
0.000480008
0.000482297
0.000351119
0.000364665
0.000483707
0.000498619
0.000458999
0.00038875
0.000339149
0.000301031
0.000265628
0.000260111
0.000348848
0.000311982
0.000251615
0.000270913
0.000307842
0.000343863
0.000390999
0.000456783
0.000496961
0.000485277
0.000364295
0.000375522
0.000509334
0.000539269
0.00051217
0.000434362
0.0003637
0.000318334
0.000279718
0.000260535
0.000274793
0.000265209
0.000258045
0.000281904
0.000321443
0.000364836
0.000432893
0.000507896
0.000536999
0.000509711
0.000375479
0.000386182
0.000531696
0.000572726
0.000569535
0.000517367
0.000433233
0.000378233
0.000338312
0.00031715
0.000314681
0.000309458
0.000313534
0.00033647
0.000376542
0.000431464
0.00051209
0.000565456
0.00057193
0.000532653
0.0003864
0.000397005
0.000546626
0.000591711
0.000615703
0.000617316
0.000586737
0.000519341
0.000456009
0.000412882
0.000395425
0.000390743
0.000405501
0.000445455
0.000509751
0.000577203
0.000610415
0.000612698
0.000592547
0.000548385
0.00039751
0.000408567
0.000554029
0.000596771
0.000639398
0.000675216
0.000690202
0.000684294
0.000666382
0.00063786
0.000606852
0.000601795
0.000627904
0.000657651
0.000677425
0.000685155
0.000672909
0.000639342
0.000599493
0.000556556
0.000409297
0.000423144
0.000540516
0.000589363
0.000627049
0.000656031
0.000672143
0.000676724
0.000666607
0.000635095
0.00058704
0.000582336
0.000628699
0.000662694
0.000676002
0.00067342
0.00065931
0.000631308
0.000593829
0.000543575
0.000424054
0.000441294
0.000474383
0.000502045
0.000523994
0.000542806
0.000558669
0.000570647
0.000577143
0.000575967
0.000565293
0.000563748
0.000574787
0.000576549
0.000570696
0.000559227
0.000543769
0.000525214
0.000503293
0.000475484
0.000442207
0.000223217
0.000210677
0.000191007
0.000178507
0.000175877
0.000176534
0.000163628
0.000139292
0.000122671
0.000117049
0.000116811
0.00012256
0.000140113
0.000167831
0.000184229
0.000180895
0.000178466
0.00018434
0.00021086
0.000225491
0.000310826
0.000446514
0.000461973
0.000447493
0.000437813
0.000416129
0.000351717
0.000302657
0.000311219
0.000361969
0.000357145
0.000315411
0.000314931
0.000363254
0.000419274
0.000437533
0.000441992
0.000448693
0.000428326
0.000303218
0.000331203
0.000472271
0.000498422
0.000474311
0.000440214
0.000412015
0.000383957
0.000356304
0.000354277
0.000408804
0.000386914
0.000349884
0.000363769
0.00039504
0.000421623
0.000449072
0.000483283
0.000505998
0.000480895
0.000330537
0.00034661
0.000498619
0.00053448
0.000506072
0.000445969
0.000401912
0.000370176
0.000344365
0.000355706
0.000419421
0.000390208
0.000339517
0.000348526
0.000378556
0.000408681
0.000449102
0.000504412
0.000531626
0.000496834
0.000345666
0.000364775
0.000539269
0.000584717
0.000559266
0.000477457
0.000405636
0.0003588
0.000320828
0.000304967
0.000332173
0.000314498
0.000299584
0.000326881
0.000366109
0.000410511
0.00047887
0.000556599
0.000582026
0.000536946
0.000364095
0.000384656
0.000572726
0.000626534
0.000611741
0.000529785
0.000433345
0.000369471
0.000321422
0.000292411
0.000294848
0.000288533
0.000291741
0.000326316
0.000374624
0.000436837
0.000530713
0.000611277
0.000626892
0.000572304
0.000384462
0.000403317
0.000591711
0.000651859
0.000651422
0.000592221
0.000507096
0.00043515
0.000379176
0.000342304
0.000332338
0.000329932
0.000342636
0.000380827
0.000438401
0.000509711
0.000594448
0.00065416
0.000655761
0.000593642
0.000403686
0.000421558
0.000596771
0.000669658
0.000698567
0.000681889
0.000635406
0.000586394
0.000540754
0.000497009
0.000463573
0.000462379
0.000497325
0.000544315
0.000593006
0.000641854
0.000688463
0.000705578
0.000677351
0.00060107
0.000422381
0.000442291
0.000589363
0.000709436
0.000819848
0.000889382
0.000920379
0.00091813
0.000898441
0.000841183
0.000748098
0.000744269
0.00083831
0.000903403
0.000930757
0.000932061
0.000901836
0.000832591
0.000720199
0.000595368
0.000443427
0.000467012
0.000502045
0.000530993
0.000554767
0.000576314
0.00059576
0.000611602
0.000621206
0.000621397
0.000609336
0.00060775
0.000620344
0.000620941
0.00061216
0.000596947
0.000578003
0.000556691
0.000532783
0.000503467
0.000468017
0.000149006
0.000170416
0.000178507
0.000181216
0.000184982
0.000187709
0.000172524
0.000150228
0.000133801
0.000127041
0.000126406
0.000133559
0.00015133
0.000176211
0.000194277
0.000193857
0.000185504
0.000178804
0.000164705
0.000140995
0.000289397
0.000409772
0.000447493
0.000459887
0.000464057
0.000438581
0.000376969
0.000339443
0.000352875
0.000409512
0.000403906
0.000356745
0.000351913
0.000392548
0.00044644
0.000463997
0.000457564
0.000439899
0.000398097
0.000282581
0.00030471
0.000433543
0.000474311
0.000472164
0.000459806
0.000445491
0.000429505
0.000404572
0.000404709
0.000463161
0.000439486
0.000398736
0.000413365
0.000442572
0.000457837
0.000470102
0.000482484
0.000484099
0.000441907
0.000305966
0.000319882
0.000458999
0.000506072
0.000495772
0.000464166
0.000438664
0.000419919
0.000405527
0.000422991
0.000475469
0.000444667
0.000404671
0.000407557
0.000428415
0.000447383
0.000470333
0.000498316
0.000506014
0.000457562
0.000319267
0.000349112
0.00051217
0.000559266
0.000545318
0.00049163
0.000442251
0.000408671
0.000383975
0.000385229
0.000436158
0.000405417
0.000373007
0.000388293
0.000416582
0.000449466
0.000496794
0.000547211
0.000558759
0.000508883
0.000347785
0.000379946
0.000569535
0.000611741
0.000598032
0.000533141
0.000460624
0.000408216
0.000367815
0.00034457
0.000356956
0.000343282
0.00034217
0.000374506
0.000416368
0.000467926
0.000539493
0.000602866
0.000613944
0.000567243
0.000379331
0.000406469
0.000615703
0.000651422
0.000640907
0.000583344
0.000509052
0.000449348
0.000401944
0.000367673
0.000360699
0.000358307
0.000372376
0.000411314
0.000459437
0.000518684
0.000593306
0.000650354
0.000657882
0.000615939
0.000406684
0.00043061
0.000639398
0.000698567
0.000717666
0.000686437
0.000633502
0.0005875
0.000548164
0.000507552
0.00047256
0.000473289
0.000515143
0.00056151
0.000603432
0.000649782
0.000703844
0.000735468
0.000711734
0.000644158
0.000431455
0.000456399
0.000627049
0.000819848
0.000974045
0.000995786
0.00101408
0.00104126
0.00105134
0.00100471
0.000902081
0.00089908
0.00101047
0.00106717
0.00106468
0.00104113
0.00102514
0.00100504
0.00083675
0.000635215
0.000457682
0.000486103
0.000523994
0.000554767
0.000580643
0.000605683
0.000629638
0.000650239
0.000663918
0.000666916
0.000656748
0.000655231
0.000666094
0.00066396
0.000651136
0.000631302
0.000607906
0.000583054
0.000556839
0.000525523
0.000487103
0.000125403
0.000159428
0.000175877
0.000184982
0.000193189
0.000190165
0.000174247
0.000155762
0.000141338
0.00013554
0.000134967
0.00014118
0.000156971
0.000177536
0.000195679
0.000200391
0.000193677
0.000180766
0.000161023
0.000125878
0.000261803
0.000383025
0.000437813
0.000464057
0.000464282
0.000432431
0.000385174
0.000363069
0.000382495
0.000452478
0.000448202
0.000385985
0.000374205
0.000402143
0.000446754
0.000469276
0.000463326
0.00043565
0.00037899
0.000257585
0.000273912
0.000386887
0.000440214
0.000459806
0.000465579
0.000464885
0.000454316
0.000428744
0.000436884
0.000512963
0.000488893
0.000429955
0.000437936
0.00046808
0.0004795
0.000478111
0.000470673
0.000450414
0.000395675
0.000277126
0.000284891
0.00038875
0.000445969
0.000464166
0.000462608
0.00045782
0.000451306
0.000445966
0.000466108
0.000528419
0.000497483
0.000448024
0.00044652
0.000459328
0.000468019
0.000472107
0.000471871
0.000452011
0.000392842
0.000285075
0.000331589
0.000434362
0.000477457
0.00049163
0.000477822
0.00045871
0.000443001
0.000432814
0.000449666
0.000513627
0.000481104
0.000433465
0.000434714
0.000450339
0.000467393
0.000486466
0.000499213
0.000482966
0.00043518
0.00032953
0.000373837
0.000517367
0.000529785
0.000533141
0.000508863
0.000473499
0.000442693
0.000418597
0.000416176
0.000461335
0.000439563
0.000409471
0.000424532
0.000451708
0.000483259
0.00051926
0.000543141
0.000536446
0.000515785
0.000372823
0.000407671
0.000617316
0.000592221
0.000583344
0.000557496
0.000517024
0.000478339
0.000445406
0.000427844
0.000449429
0.000445448
0.000433443
0.000457303
0.000491359
0.00053056
0.000572322
0.000598055
0.000602041
0.000616011
0.000407731
0.000437017
0.000675216
0.000681889
0.000686437
0.000664093
0.000625584
0.000591398
0.00056256
0.000531998
0.000509356
0.000512315
0.000543873
0.000580536
0.000611441
0.000646612
0.000686642
0.000709408
0.00069911
0.000681606
0.000437817
0.000467059
0.000656031
0.000889381
0.000995786
0.00105866
0.00111585
0.0011759
0.00120174
0.00114099
0.000995781
0.000994988
0.00115094
0.00122271
0.00120478
0.00114828
0.00109258
0.00102888
0.00090946
0.000665019
0.000468374
0.000501112
0.000542806
0.000576314
0.000605683
0.000636421
0.000665486
0.000690425
0.000707905
0.00071396
0.000706198
0.000704728
0.000713146
0.000707929
0.000691305
0.000667078
0.000638569
0.00060805
0.000578301
0.00054423
0.000502033
0.000116592
0.000155745
0.000176534
0.000187709
0.000190165
0.000183779
0.000171656
0.000158381
0.000147461
0.000143792
0.000143356
0.000147312
0.000159341
0.000174304
0.000188149
0.000195752
0.000194118
0.000183472
0.00016039
0.000116568
0.000230045
0.000357074
0.000416129
0.000438581
0.000432431
0.00040877
0.000387412
0.000379974
0.000407477
0.000484855
0.000481128
0.000410074
0.000387929
0.000400857
0.000425814
0.000445822
0.00044538
0.000418481
0.000357963
0.000228674
0.000242301
0.000350799
0.000412015
0.000445491
0.000464885
0.000471746
0.000457858
0.000437513
0.00045826
0.000536941
0.00051583
0.000450191
0.000444923
0.000470736
0.000486402
0.000479428
0.000458349
0.000422977
0.000359563
0.00024628
0.000250248
0.000339149
0.000401912
0.000438664
0.00045782
0.000467015
0.000468293
0.000467361
0.000488474
0.000548187
0.000520599
0.000471787
0.000466954
0.000475067
0.000477132
0.000468902
0.000449282
0.00041123
0.000345337
0.000249841
0.000315323
0.0003637
0.000405636
0.000442251
0.00045871
0.000462961
0.000461908
0.000463136
0.000489672
0.000545848
0.000519686
0.000473311
0.000463352
0.000467931
0.000471456
0.000468303
0.000451851
0.000413578
0.000366273
0.000312301
0.000367002
0.000433233
0.000433345
0.000460624
0.000473499
0.000470071
0.000460023
0.000452475
0.000469096
0.000521362
0.000502591
0.000460642
0.000456996
0.000468342
0.000479931
0.000484424
0.0004715
0.000441335
0.000433424
0.000365538
0.000406888
0.000586737
0.000507096
0.000509052
0.000517024
0.000508419
0.000490291
0.000472668
0.000474873
0.00052112
0.000517511
0.00048057
0.000484799
0.000503712
0.000522566
0.000532137
0.000523907
0.00051762
0.000584087
0.000406747
0.000440699
0.000690202
0.000635406
0.000633502
0.000625584
0.00060696
0.000589376
0.000571751
0.000547175
0.000533445
0.000537229
0.00056018
0.00059079
0.000610545
0.000628879
0.000648201
0.000655746
0.00065259
0.000696272
0.000441399
0.00047444
0.000672143
0.000920379
0.00101408
0.00111585
0.00121585
0.00129876
0.00131855
0.00120611
0.000967459
0.000964898
0.00121395
0.00133789
0.00132665
0.00124758
0.00114882
0.00104488
0.000941744
0.000680252
0.000475664
0.000512605
0.000558669
0.00059576
0.000629638
0.000665486
0.000699319
0.00072862
0.000750242
0.000760352
0.0007571
0.000755513
0.000759277
0.00074993
0.000729136
0.000700546
0.000667246
0.000631601
0.000597442
0.000559898
0.000513421
0.000106229
0.000145487
0.000163628
0.000172524
0.000174247
0.000171656
0.000166074
0.000159086
0.000153235
0.000153936
0.000153682
0.000152937
0.000159403
0.000167562
0.000174518
0.000178095
0.000176721
0.000167432
0.000146298
0.000105274
0.000163831
0.000292285
0.000351717
0.000376969
0.000385174
0.000387412
0.000387969
0.000394845
0.000432029
0.000509468
0.000505211
0.000432883
0.000398136
0.000394233
0.000397882
0.000398171
0.00038895
0.000360432
0.000297895
0.000163397
0.000205965
0.000314345
0.000383957
0.000429505
0.000454316
0.000457858
0.000447216
0.000442443
0.000471717
0.000512914
0.000498444
0.000462848
0.000445171
0.000455806
0.000469604
0.000466929
0.000441443
0.000394239
0.000322322
0.000208965
0.000220879
0.000301031
0.000370176
0.000419919
0.000451306
0.000468293
0.000473861
0.000473999
0.000492257
0.000485778
0.000471639
0.000478052
0.000472158
0.000477557
0.000475553
0.000460454
0.000429685
0.000379288
0.00030709
0.000218577
0.000301627
0.000318334
0.0003588
0.000408671
0.000443001
0.000461908
0.000470903
0.000479243
0.000500589
0.000465919
0.000455099
0.000487373
0.000478302
0.000474652
0.000468114
0.00045081
0.000417243
0.000366513
0.00032099
0.000297717
0.000359954
0.000378233
0.000369471
0.000408216
0.000442693
0.000460023
0.000465758
0.000471109
0.000489392
0.000452655
0.000444417
0.000482623
0.000474007
0.000471957
0.000467747
0.000451481
0.000417224
0.000376459
0.000378318
0.000358068
0.000403979
0.000519341
0.00043515
0.000449348
0.000478339
0.000490291
0.000487581
0.000483488
0.000497203
0.000497669
0.000496333
0.00050303
0.000494564
0.000499464
0.000502463
0.00049083
0.000461508
0.000444289
0.000516133
0.000403633
0.000441385
0.000684294
0.000586394
0.0005875
0.000591398
0.000589376
0.000583536
0.000568806
0.000541484
0.000523156
0.000525833
0.000552902
0.000585865
0.000603017
0.00060949
0.000611413
0.000606916
0.000603213
0.000689658
0.000441969
0.000478359
0.000676724
0.00091813
0.00104126
0.0011759
0.00129876
0.00138363
0.0013613
0.0011464
0.000823842
0.000818717
0.0011457
0.00137305
0.00140579
0.00132683
0.0012051
0.00106792
0.000942958
0.000684321
0.000479457
0.000520377
0.000570647
0.000611602
0.000650239
0.000690425
0.00072862
0.000762692
0.000789595
0.000806915
0.000815799
0.000814065
0.000805447
0.000788762
0.000762679
0.000729367
0.000691712
0.000651722
0.000613017
0.000571688
0.000521071
9.29889e-05
0.000119709
0.000139292
0.000150228
0.000155762
0.000158381
0.000159086
0.000158826
0.000159313
0.000165155
0.000164955
0.000158848
0.000158296
0.00015908
0.00015913
0.000157059
0.00015157
0.000139683
0.000115084
9.10733e-05
0.00011638
0.000244035
0.000302657
0.000339444
0.000363069
0.000379974
0.000394845
0.000415457
0.00044407
0.000419148
0.000409327
0.000440469
0.000413887
0.000393655
0.000380527
0.00036534
0.00034236
0.000305141
0.000243759
0.000114111
0.00015902
0.000278673
0.000356304
0.000404572
0.000428744
0.000437513
0.000442443
0.000451956
0.000435869
0.000298007
0.000289639
0.00042744
0.000448605
0.000443274
0.000441914
0.000435092
0.000411085
0.000361797
0.000282985
0.000162399
0.000193246
0.000265628
0.000344365
0.000405527
0.000445966
0.000467361
0.000473999
0.000473291
0.000418233
0.000271142
0.000262651
0.000409227
0.000468823
0.000472863
0.000468387
0.000448592
0.000409261
0.000348641
0.000268312
0.000187361
0.000290184
0.000279718
0.000320828
0.000383975
0.000432814
0.000463136
0.000479243
0.000482914
0.000403775
0.000298565
0.000288478
0.000397201
0.00048038
0.000479169
0.000464308
0.000435287
0.000387929
0.000325527
0.000280755
0.000285369
0.00035258
0.000338312
0.000321422
0.000367815
0.000418597
0.000452475
0.000471109
0.000475504
0.00038609
0.000340215
0.000329582
0.000383615
0.000476606
0.00047341
0.000455529
0.000422641
0.000372929
0.000326198
0.000337459
0.000350286
0.00039908
0.000456009
0.000379176
0.000401944
0.000445406
0.000472668
0.000483488
0.000486715
0.000427571
0.000413011
0.000407262
0.000433129
0.000495815
0.000492225
0.000480972
0.000453785
0.000410756
0.000386414
0.000451856
0.000398517
0.000438693
0.000666382
0.000540754
0.000548164
0.00056256
0.000571751
0.000568806
0.000547691
0.00050907
0.000492545
0.000491183
0.000516626
0.000560583
0.000584067
0.000588079
0.000579118
0.000564816
0.000556551
0.000670279
0.000439129
0.00047799
0.000666607
0.000898441
0.00105134
0.00120174
0.00131855
0.0013613
0.00123368
0.000943246
0.000856851
0.000854809
0.000938139
0.0012326
0.00137354
0.00134022
0.00122651
0.00107463
0.000921502
0.000673498
0.000478922
0.000523729
0.000577143
0.000621206
0.000663918
0.000707905
0.000750242
0.000789595
0.000824557
0.000857781
0.000895289
0.000893328
0.000856124
0.000823251
0.000789054
0.000750504
0.000708751
0.000665013
0.000622316
0.000577935
0.000524231
9.02554e-05
0.000106618
0.000122671
0.000133801
0.000141338
0.000147461
0.000153235
0.000159313
0.000165144
0.00017403
0.000173834
0.000164354
0.000158131
0.000151895
0.000146228
0.000140112
0.000132251
0.000119771
0.000102481
8.7506e-05
0.000114702
0.000258679
0.000311219
0.000352875
0.000382495
0.000407477
0.000432029
0.00044407
0.000360349
0.000398954
0.000391996
0.000348253
0.000437105
0.000427891
0.000404375
0.000380157
0.000350773
0.00030796
0.000260496
0.000113575
0.000125693
0.0002767
0.000354277
0.000404709
0.000436884
0.00045826
0.000471717
0.000435869
0.000266271
0.00049993
0.000496596
0.000260853
0.000426793
0.000465558
0.000453979
0.000433955
0.000402411
0.00035214
0.00027397
0.00012472
0.000176529
0.000260111
0.000355706
0.000422991
0.000466108
0.000488474
0.000492257
0.000418233
0.000271452
0.000680085
0.000677552
0.000268989
0.00040946
0.000484847
0.000481337
0.000458853
0.000415543
0.000348557
0.000255519
0.000163627
0.000281256
0.000260535
0.000304967
0.000385229
0.000449666
0.000489672
0.000500589
0.000403775
0.000319625
0.000897535
0.000895939
0.000319451
0.000397042
0.000492971
0.000481053
0.000440967
0.000378386
0.000301976
0.000257466
0.000275614
0.000344848
0.00031715
0.000292411
0.00034457
0.000416176
0.000469096
0.000489392
0.00038609
0.000376727
0.00110598
0.00110414
0.000378236
0.000382626
0.000483823
0.000462182
0.000410096
0.000342074
0.000292819
0.000314141
0.000342186
0.000391978
0.000412882
0.000342304
0.000367673
0.000427844
0.000474873
0.000497203
0.000427571
0.000458454
0.00125228
0.00125143
0.000462293
0.000431412
0.000499465
0.000475855
0.000429391
0.000371932
0.000346817
0.000408764
0.000391256
0.000432004
0.00063786
0.000497009
0.000507552
0.000531998
0.000547175
0.000541484
0.00050907
0.000545325
0.00129177
0.00129109
0.000549064
0.000515631
0.000549987
0.000557365
0.000543945
0.000521575
0.000511603
0.000640124
0.00043235
0.000472044
0.000635095
0.000841183
0.00100471
0.00114099
0.00120611
0.0011464
0.000943246
0.000919869
0.00128155
0.00127838
0.000920976
0.000939219
0.00114926
0.00121985
0.00116078
0.00102534
0.00086235
0.000641568
0.000472848
0.000521334
0.000575967
0.000621397
0.000666916
0.00071396
0.000760352
0.000806915
0.000857781
0.000921516
0.000994974
0.000991854
0.000919952
0.000856567
0.000806172
0.000760296
0.000714492
0.00066774
0.000622293
0.00057656
0.000521653
9.10466e-05
0.000106026
0.000117049
0.000127041
0.00013554
0.000143792
0.000153936
0.000165155
0.00017403
0.000181483
0.000180556
0.000172367
0.000163053
0.000151538
0.000141132
0.000132636
0.000123738
0.000112874
0.000102815
8.83425e-05
0.000118742
0.000309934
0.000361969
0.000409512
0.000452478
0.000484855
0.000509468
0.000419148
0.000398954
0.000261167
0.000255187
0.000385156
0.000397642
0.000499275
0.000480027
0.000450607
0.000407083
0.000362104
0.000311941
0.000117782
0.000133687
0.000347028
0.000408804
0.000463161
0.000512963
0.000536941
0.000512914
0.000298007
0.00049993
0.000383556
0.000375241
0.000497904
0.000283978
0.000497577
0.000526399
0.000504908
0.000454857
0.000400606
0.00033956
0.000133159
0.0001696
0.000348848
0.000419421
0.000475469
0.000528419
0.000548187
0.000485778
0.000271142
0.000680085
0.000517887
0.000507564
0.000687088
0.000263247
0.000469535
0.00053441
0.000517018
0.000463542
0.000405832
0.000337724
0.000156945
0.000273452
0.000274793
0.000332173
0.000436158
0.000513627
0.000545848
0.000465919
0.000298565
0.000897535
0.000670388
0.000658009
0.00091333
0.000295557
0.000449439
0.000529441
0.00049617
0.000418816
0.000320666
0.000268835
0.000267402
0.000336852
0.000314681
0.000294848
0.000356956
0.000461335
0.000521362
0.000452655
0.000340215
0.00110598
0.000838215
0.000823478
0.00112637
0.000340861
0.000437853
0.000504646
0.000443299
0.000344901
0.00029024
0.000309846
0.000334065
0.000383025
0.000395425
0.000332338
0.000360699
0.000449429
0.00052112
0.000497669
0.000413011
0.00125228
0.00100509
0.000987572
0.00127205
0.000415743
0.000491826
0.000513666
0.000442507
0.000359554
0.000333572
0.000390394
0.000382424
0.00042159
0.000606852
0.000463573
0.00047256
0.000509356
0.000533445
0.000523156
0.000492545
0.00129177
0.00113643
0.0011154
0.00130741
0.000495764
0.000523795
0.000535836
0.000515501
0.000483339
0.00047578
0.000608604
0.000422184
0.000460139
0.00058704
0.000748098
0.000902081
0.000995781
0.000967459
0.000823842
0.000856851
0.00128155
0.00121993
0.00119789
0.00128767
0.000858782
0.000822198
0.000972717
0.00100988
0.00091934
0.000767628
0.000593799
0.000461096
0.000511585
0.000565293
0.000609336
0.000656748
0.000706198
0.0007571
0.000815799
0.000895289
0.000994974
0.00103261
0.00102369
0.000993677
0.00089477
0.000815328
0.000756993
0.000706622
0.000657489
0.000610268
0.000565876
0.000511872
9.16383e-05
0.0001065
0.000116811
0.000126406
0.000134967
0.000143356
0.000153682
0.000164955
0.000173834
0.000180556
0.000178193
0.000171037
0.000162134
0.000150783
0.000140376
0.000131919
0.000123216
0.000112791
0.000103681
8.95377e-05
0.000119422
0.000305473
0.000357145
0.000403906
0.000448202
0.000481128
0.000505211
0.000409327
0.000391996
0.000255187
0.000247253
0.000376676
0.000386018
0.000484779
0.000462292
0.000432441
0.00039105
0.000348413
0.000300589
0.000118341
0.000133014
0.000327409
0.000386914
0.000439486
0.000488893
0.00051583
0.000498444
0.000289639
0.000496596
0.000375241
0.000364538
0.000484795
0.000276942
0.000481786
0.000501019
0.0004784
0.000433396
0.000383031
0.000326535
0.000132238
0.00016663
0.000311982
0.000390208
0.000444667
0.000497483
0.000520599
0.000471639
0.000262651
0.000677552
0.000507564
0.000495072
0.000668069
0.000255422
0.000460676
0.000510839
0.00049158
0.000442662
0.000388375
0.000319729
0.000150546
0.000270787
0.000265209
0.000314498
0.000405417
0.000481104
0.000519686
0.000455099
0.000288478
0.000895939
0.000658009
0.0006447
0.000889267
0.0002851
0.00044769
0.000511906
0.000475576
0.000401886
0.000311774
0.000262086
0.000262579
0.000334539
0.000309458
0.000288533
0.000343282
0.000439563
0.000502591
0.000444417
0.000329582
0.00110414
0.000823478
0.000810122
0.00109642
0.000328034
0.000440703
0.000495562
0.000432936
0.000338936
0.000286649
0.000304402
0.000330541
0.00038114
0.000390743
0.000329932
0.000358307
0.000445448
0.000517511
0.000496333
0.000407262
0.00125143
0.000987573
0.000975024
0.00123973
0.000408549
0.000499873
0.000516398
0.000443736
0.000358783
0.00033055
0.000384557
0.000380037
0.0004199
0.000601795
0.000462379
0.000473289
0.000512315
0.000537229
0.000525833
0.000491183
0.00129109
0.0011154
0.00110408
0.00127521
0.000496064
0.000533584
0.000544048
0.000520183
0.000483233
0.000472694
0.000602212
0.000420444
0.000458503
0.000582336
0.000744269
0.00089908
0.000994988
0.000964898
0.000818717
0.000854809
0.00127838
0.00119789
0.0011866
0.00126367
0.000853974
0.000828131
0.000980027
0.00101487
0.000919763
0.00076267
0.000589582
0.000459775
0.000510075
0.000563748
0.00060775
0.000655231
0.000704728
0.000755513
0.000814065
0.000893328
0.000991855
0.00102369
0.00102429
0.000989757
0.000892105
0.000814069
0.000756549
0.000706503
0.000657333
0.000609795
0.000565257
0.000511032
9.1621e-05
0.000108246
0.00012256
0.000133559
0.00014118
0.000147312
0.000152937
0.000158848
0.000164354
0.000172367
0.000171037
0.000163471
0.000158121
0.000152246
0.000146608
0.000140432
0.000132589
0.000120011
0.000105795
8.9988e-05
0.000116694
0.000264096
0.000315411
0.000356745
0.000385985
0.000410074
0.000432883
0.000440469
0.000348253
0.000385156
0.000376676
0.000335638
0.000427322
0.000419749
0.00039806
0.00037558
0.000348032
0.000307513
0.000259723
0.000116055
0.000124863
0.000276299
0.000349884
0.000398736
0.000429955
0.000450191
0.000462848
0.00042744
0.000260853
0.000497904
0.000484795
0.000255516
0.000420379
0.000454472
0.000443127
0.000424239
0.000394559
0.000347482
0.000275316
0.00012505
0.000172047
0.000251615
0.000339517
0.000404671
0.000448024
0.000471787
0.000478052
0.000409227
0.000268989
0.000687088
0.000668069
0.000263713
0.000407275
0.00047342
0.000467709
0.000445546
0.000404433
0.000341119
0.000252739
0.000155133
0.000276926
0.000258045
0.000299584
0.000373007
0.000433465
0.000473311
0.000487373
0.000397201
0.000319451
0.00091333
0.000889267
0.000313559
0.000400969
0.000486623
0.00047229
0.000433173
0.000373901
0.000300848
0.000254762
0.000268515
0.000341539
0.000313534
0.000291741
0.00034217
0.000409471
0.000460642
0.000482623
0.000383615
0.000378236
0.00112637
0.00109642
0.000369828
0.00039182
0.0004847
0.000461451
0.00041046
0.000343899
0.000292567
0.000308508
0.000337397
0.000389423
0.000405501
0.000342636
0.000372376
0.000433443
0.00048057
0.00050303
0.000433128
0.000462293
0.00127205
0.00123973
0.000455316
0.000446981
0.000510795
0.000486346
0.000438269
0.000376794
0.000344404
0.000399294
0.000388251
0.000429857
0.000627904
0.000497325
0.000515143
0.000543873
0.00056018
0.000552902
0.000516626
0.000549064
0.00130741
0.00127521
0.000547942
0.000531363
0.000567148
0.00057386
0.000556698
0.000527098
0.000508519
0.000630211
0.000430458
0.000470303
0.000628699
0.00083831
0.00101047
0.00115094
0.00121395
0.0011457
0.000938139
0.000920976
0.00128767
0.00126367
0.000915689
0.00095053
0.00116572
0.00123725
0.00117517
0.00103202
0.000858518
0.000637655
0.000471806
0.000520086
0.000574787
0.000620344
0.000666094
0.000713146
0.000759277
0.000805447
0.000856124
0.000919952
0.000993677
0.000989757
0.000917774
0.000855446
0.000805957
0.000760651
0.000715062
0.000668171
0.000622306
0.000576358
0.000521221
9.50025e-05
0.000120213
0.000140113
0.00015133
0.000156971
0.000159341
0.000159403
0.000158296
0.000158131
0.000163053
0.000162134
0.000158121
0.000158898
0.000160293
0.00016045
0.000158202
0.000152418
0.00013962
0.000119758
9.40914e-05
0.000119229
0.000254221
0.000314931
0.000351913
0.000374205
0.000387929
0.000398136
0.000413887
0.000437105
0.000397642
0.000386018
0.000427322
0.000408991
0.000394594
0.000384525
0.000371166
0.000349698
0.000312939
0.000252541
0.000118364
0.00016764
0.000285044
0.000363769
0.000413365
0.000437936
0.000444923
0.000445171
0.000448605
0.000426793
0.000283978
0.000276942
0.000420379
0.000445142
0.00044248
0.000441658
0.000434158
0.000410176
0.000362437
0.000285023
0.00016141
0.000192998
0.000270913
0.000348526
0.000407557
0.00044652
0.000466954
0.000472158
0.000468823
0.00040946
0.000263247
0.000255422
0.000407275
0.000466128
0.000469571
0.000464864
0.000445799