/*--------------------------------*- C++ -*----------------------------------*\
  =========                 |
  \\      /  F ield         | OpenFOAM: The Open Source CFD Toolbox
   \\    /   O peration     | Website:  https://openfoam.org
    \\  /    A nd           | Version:  9
     \\/     M anipulation  |
\*---------------------------------------------------------------------------*/
FoamFile
{
    format      ascii;
    class       surfaceScalarField;
    location    "1850";
    object      phi;
}
// * * * * * * * * * * * * * * * * * * * * * * * * * * * * * * * * * * * * * //

dimensions      [1 0 -1 0 0 0 0];

internalField   nonuniform List<scalar> 
11200
(
0.00239659
-0.00479316
0.00239659
0.00199167
-0.00132103
0.00172603
0.000630359
0.000485656
0.000875794
-0.000167344
0.000298905
0.000498826
-0.000694577
0.000454892
7.23299e-05
-0.000879815
0.00012849
5.67416e-05
-0.000723732
-0.00022839
7.2303e-05
-0.000488488
-0.000210156
-2.50864e-05
-0.000277636
-0.000137346
-7.3514e-05
-1.20779e-05
-0.000131709
-0.000133858
0.000243954
-0.000124767
-0.000131276
0.000464122
-0.000136059
-8.41181e-05
0.00076181
-0.000227662
-7.00216e-05
0.00106676
-0.000316067
1.11244e-05
0.00104811
1.35753e-06
1.72963e-05
0.000701002
0.000317128
2.99779e-05
5.1771e-05
0.000254532
0.00039469
-0.0014237
0.000803381
0.000672166
-0.00219251
-0.000906974
0.00167581
-0.0045241
0.00233159
0.00226744
-0.00932804
0.00226744
0.00437446
-0.00581681
0.00238877
0.00550294
-0.00307288
0.00243008
0.00481106
-0.00107438
0.00206518
0.00316105
0.000549521
0.0015554
0.00106787
0.00104639
0.0011753
-0.000250544
0.000417285
0.000672749
-0.000521239
3.34316e-06
5.71941e-05
-0.000354206
-6.236e-05
-0.000242021
2.96723e-05
-8.78288e-05
-0.000427759
0.00043948
-0.00010198
-0.000432595
0.000655047
-0.000106036
-0.00024559
0.000424476
-2.89123e-05
3.1822e-05
-0.000924876
0.000379833
0.000653457
-0.00301987
0.000938186
0.0011582
-0.00468422
0.000471565
0.00150995
-0.00548841
-0.0010117
0.00207047
-0.00437479
-0.00275916
0.00244896
-0.00222598
-0.00539929
0.00234351
-0.00899405
0.00224397
0.00134189
-0.0120118
0.00134189
0.00249547
-0.00872765
0.00175727
0.00313293
-0.00556552
0.00185518
0.0032075
-0.00287756
0.00172862
0.00282118
-0.000543313
0.00147916
0.00204199
0.000565284
0.0012603
0.000876503
0.000531682
0.00105109
-9.6365e-05
0.000293649
0.000682562
-0.000259246
0.00015112
-5.0597e-05
8.02344e-05
0.000109754
-0.000537062
0.000378588
8.69275e-05
-0.000487259
0.000101553
0.000121987
4.90149e-05
-0.000959671
0.000281872
0.000750442
-0.00215073
0.000503321
0.00106757
-0.00300224
0.000491272
0.00129843
-0.0034147
-0.000635293
0.00151933
-0.00336831
-0.00282844
0.00177035
-0.00265898
-0.00536743
0.00189894
-0.00136313
-0.00846988
0.00177474
-0.0117187
0.00136153
0.000636656
-0.0132851
0.000636656
0.000734221
-0.0101452
0.00132
0.000563282
-0.00699143
0.00159685
0.000371784
-0.00445742
0.00177136
0.000439782
-0.00244121
0.00182989
0.000548076
-0.00121976
0.00167675
0.000327222
-0.000722896
0.00147543
-6.19552e-05
-0.000501827
0.00118466
-0.00014841
-0.000444558
0.000682137
0.000225359
-0.000381017
0.000117007
0.00041511
-0.000352239
0.000249422
0.000150056
-0.000388387
0.000775432
-0.000291052
-0.000460054
0.00118304
-0.00053541
-0.00069175
0.00143943
-0.000516508
-0.00119842
0.00167079
-0.000555011
-0.00243784
0.00184105
-0.000771167
-0.00440772
0.00179544
-0.000882229
-0.00688139
0.00162503
-0.000687016
-0.00999996
0.00133487
-0.0130572
0.000651492
0.000128459
-0.0135421
0.000128459
-0.000442527
-0.0106698
0.00109558
-0.00104724
-0.00787438
0.00148767
-0.00143228
-0.00579966
0.00172728
-0.00146601
-0.00430121
0.00189374
-0.00123518
-0.00333614
0.00188554
-0.00094441
-0.0027595
0.00174584
-0.000635472
-0.00240049
0.00158972
-0.000284842
-0.00220086
0.00140567
0.000183135
-0.00205183
0.00120284
0.000529049
-0.00197002
0.00127187
0.000779713
-0.00208497
0.00144592
0.00101281
-0.00228439
0.00159124
0.00124623
-0.00265813
0.00173296
0.00142273
-0.00325257
0.00187765
0.00133028
-0.00423282
0.00188743
0.000917717
-0.00572612
0.00173095
0.000327597
-0.0077853
0.00149403
-0.000193683
-0.0105668
0.00108809
-0.0133705
0.000119601
-0.000227961
-0.0130861
-0.000227961
-0.00118198
-0.0106414
0.000925662
-0.00196002
-0.00840748
0.00131114
-0.00237343
-0.0068647
0.00147844
-0.00239487
-0.00580682
0.00152705
-0.00213395
-0.00511873
0.00152167
-0.00168726
-0.00465128
0.0014451
-0.00114013
-0.00431969
0.00137207
-0.000562472
-0.00409245
0.00131393
5.63753e-05
-0.00392189
0.00125122
0.000627478
-0.00384178
0.00130066
0.00116702
-0.00398066
0.00135615
0.00168093
-0.00419973
0.00140143
0.0020992
-0.00453997
0.00146357
0.00233467
-0.00502231
0.00153427
0.00228704
-0.00572446
0.00153926
0.00185845
-0.00678531
0.00148779
0.00109023
-0.0083267
0.00130963
0.000174349
-0.0105539
0.000902998
-0.0129465
-0.000249618
-0.000534289
-0.0120175
-0.000534289
-0.00175972
-0.0100837
0.000667718
-0.00268411
-0.00843952
0.000956434
-0.003129
-0.00741686
0.000997058
-0.00310869
-0.00673908
0.000911942
-0.00274309
-0.00631584
0.000831524
-0.00215169
-0.00603273
0.000790044
-0.00143735
-0.00581189
0.000777866
-0.000706331
-0.00562118
0.000797716
6.07592e-06
-0.00544093
0.000806631
0.000705526
-0.00538327
0.000842039
0.00141952
-0.00553526
0.000840605
0.00211349
-0.00571938
0.000825693
0.00268795
-0.00594617
0.000831735
0.0030372
-0.00624003
0.000868484
0.0030425
-0.00667205
0.000942293
0.00258922
-0.00734726
0.00101524
0.00167429
-0.00836751
0.000955731
0.000482081
-0.010005
0.000643335
-0.0119036
-0.000560868
-0.000977962
-0.0100616
-0.000977962
-0.0024522
-0.00859657
-1.29037e-05
-0.00350248
-0.00754361
0.000154363
-0.0039577
-0.00698132
1.96877e-05
-0.00387176
-0.00665175
-0.000173269
-0.00338985
-0.00646963
-0.000328125
-0.00262697
-0.00634666
-0.000448948
-0.00170897
-0.00622748
-0.000502405
-0.000786728
-0.00608607
-0.000457351
3.1077e-06
-0.00591505
-0.000315712
0.000778639
-0.0058792
-0.000279604
0.00167942
-0.00603515
-0.00040088
0.0025818
-0.00617037
-0.000451395
0.00333043
-0.00629124
-0.000403566
0.00379866
-0.00641793
-0.000290336
0.00387431
-0.00660224
-0.000145457
0.00341357
-0.00693019
4.36669e-05
0.00237131
-0.00748995
0.0001647
0.000927411
-0.00853457
-2.65317e-05
-0.00997614
-0.00100002
-0.00177573
-0.00651015
-0.00177573
-0.00352503
-0.00567788
-0.00116939
-0.00461704
-0.00525137
-0.00120023
-0.00503302
-0.00514566
-0.00141968
-0.0048652
-0.00516081
-0.00165876
-0.00425327
-0.00523426
-0.00184729
-0.00330776
-0.00530332
-0.00198885
-0.00215733
-0.00533342
-0.00204448
-0.000976595
-0.00528723
-0.00197957
3.10423e-07
-0.00515663
-0.00173533
0.000959402
-0.00513701
-0.00170128
0.00212332
-0.00526098
-0.00193809
0.00326267
-0.0053064
-0.00200331
0.00419698
-0.00527749
-0.00194806
0.00479823
-0.00520873
-0.00181044
0.00495745
-0.00513454
-0.00162692
0.00453734
-0.00511894
-0.00139113
0.00345174
-0.00522204
-0.00118232
0.00172739
-0.00564297
-0.00116725
-0.00646069
-0.00178806
-0.00325507
-0.00325507
-0.00539483
-0.00353812
-0.00645452
-0.00419167
-0.00676295
-0.00483723
-0.00647099
-0.00545276
-0.00570075
-0.00600449
-0.0045468
-0.00645727
-0.00309187
-0.00678835
-0.00146812
-0.00691098
-1.5281e-05
-0.00660947
0.00142294
-0.00657523
0.00304323
-0.00688127
0.00449643
-0.0067596
0.00564814
-0.0064292
0.00641115
-0.00597174
0.00669417
-0.00541756
0.00638079
-0.00480556
0.00532476
-0.00416601
0.00320516
-0.00352337
-0.00325552
0.00172603
-0.00132103
0.00199167
0.00141825
0.000615631
0.00141825
0.000824046
0.00044983
0.00102028
0.000459906
0.000178495
0.00068449
5.07371e-05
0.000201555
0.000279921
-0.000166701
4.29761e-05
0.000231182
-0.00013981
-0.000235835
0.000281241
-7.49743e-05
-0.000297667
0.000207755
-6.36052e-05
-0.00020067
0.000115789
-1.08538e-05
-0.000179139
-7.4713e-06
4.5449e-05
-0.00016665
-2.09304e-05
8.32384e-05
-0.000185686
6.37779e-05
0.000192717
-0.000313504
0.000134015
0.000357853
-0.000378361
0.000224362
0.000303401
-0.000105178
0.000176925
7.5502e-05
9.40704e-05
0.000163799
-0.000105222
4.89524e-05
0.00052646
-0.000806049
0.000669436
0.000703618
-0.00150282
0.00131494
0.00105765
-0.000878353
0.00170715
0.00238877
-0.00581681
0.00437446
0.00457314
-0.00375307
0.00457314
0.00548157
-0.00215995
0.00413146
0.00494453
-0.000496908
0.00327765
0.00347504
0.000851091
0.00237537
0.00184552
0.00114313
0.00170469
0.000730604
0.000458538
0.00109331
0.000163017
-8.11678e-05
0.00040828
-1.28482e-05
-0.000179146
-8.76815e-05
4.969e-07
-0.000189267
-0.000430975
5.40901e-05
-0.000217673
-0.000435164
-3.86585e-05
-0.000223616
-0.000114911
-0.000548569
-0.000126886
0.000355113
-0.00169784
0.000351995
0.00107238
-0.00329851
0.000977805
0.00167593
-0.00474982
0.000745874
0.0023095
-0.00538491
-0.000451316
0.00320587
-0.00453637
-0.00184556
0.00411545
-0.00230552
-0.00307028
0.00449792
-0.00523824
0.00429834
0.00175727
-0.00872765
0.00249547
0.00325537
-0.00674927
0.00325537
0.00399818
-0.00432466
0.00327708
0.00405693
-0.00172079
0.00289374
0.00354435
0.000454651
0.00238818
0.00270086
0.00126405
0.00198287
0.00164004
0.000981203
0.00158925
0.000734446
0.000504348
0.00100264
0.000186625
0.000175077
0.000143002
-1.93596e-05
9.65215e-05
-0.000616865
-0.000256961
4.94305e-05
-0.000516759
-0.000821579
0.000117856
0.000272163
-0.00170899
0.000454958
0.00105601
-0.00281599
0.000905241
0.00162133
-0.00372305
0.00114015
0.00204315
-0.00422628
0.000293935
0.00247451
-0.00416052
-0.00173312
0.0029864
-0.00339054
-0.00411217
0.00339556
-0.00175338
-0.00634703
0.00341433
-0.00829462
0.00266452
0.00132
-0.0101452
0.000734221
0.00206122
-0.00823171
0.00206122
0.00223581
-0.00547645
0.00257405
0.00219929
-0.00254764
0.00263474
0.00206514
-6.43266e-05
0.00248302
0.00172652
0.00106306
0.00221636
0.00117805
0.00112846
0.00187664
0.000560846
0.000923789
0.00138242
0.000137113
0.00072614
0.000554807
7.94216e-05
0.000658019
-0.000386801
-6.97875e-05
0.000616446
-0.000168385
-0.000572695
0.00066289
0.000733307
-0.00118769
0.000846367
0.00140662
-0.00174316
0.0010381
0.00186204
-0.00210929
0.00094892
0.00222815
-0.00230796
-0.000191136
0.00252479
-0.00236886
-0.00258005
0.00270327
-0.00214916
-0.00536348
0.00265665
-0.00132947
-0.0079898
0.00215794
-0.00982969
0.000857099
0.00109558
-0.0106698
-0.000442527
0.00132805
-0.00869664
0.00132805
0.00102069
-0.00583256
0.00215114
0.000578735
-0.00283424
0.00245584
0.000423882
-0.000574518
0.00255878
0.000358727
0.000640957
0.0023728
0.000189132
0.000983241
0.00206065
-1.37835e-05
0.00105775
0.00165868
-6.01485e-05
0.00106585
0.00111232
0.000171551
0.00110255
0.000526609
0.000304905
0.0010782
0.000676759
0.000148698
0.00103017
0.00123484
-0.000103106
0.00101057
0.00167884
-0.000308648
0.000922756
0.00205385
-0.000417874
0.000559937
0.00237585
-0.000635557
-0.000652439
0.00256642
-0.00109809
-0.00286729
0.00248073
-0.00138144
-0.00576765
0.00218155
-0.00110825
-0.00853082
0.00135593
-0.0104274
-0.000390988
0.000925662
-0.0106414
-0.00118198
0.000819762
-0.00848484
0.000819762
0.000233328
-0.0057187
0.00178372
-0.000276724
-0.00300637
0.00216062
-0.000489159
-0.00112174
0.00228671
-0.000472485
-6.40771e-05
0.00221003
-0.000477172
0.000479333
0.0019537
-0.000440894
0.000729944
0.0016636
-0.000266155
0.000856181
0.00134886
0.000122178
0.000937857
0.00102757
0.000449624
0.000930151
0.00112126
0.000565017
0.000847705
0.00142322
0.000564185
0.000716068
0.00169676
0.000534159
0.000449374
0.00196698
0.000508879
-0.00010162
0.00222111
0.000243985
-0.00115125
0.00230297
-0.000293155
-0.00302117
0.00217881
-0.000863832
-0.00567843
0.00179108
-0.000942199
-0.00836192
0.000812466
-0.0104469
-0.00117227
0.000667718
-0.0100837
-0.00175972
0.000282079
-0.00771356
0.000282079
-0.000456563
-0.00529006
0.00126644
-0.000947773
-0.00318258
0.00166448
-0.00112838
-0.0017637
0.00173451
-0.00104475
-0.000967637
0.00165146
-0.000826235
-0.000484631
0.00153549
-0.0005652
-0.000172343
0.00141912
-0.000267271
6.73375e-05
0.00128863
9.59731e-05
0.000264405
0.00111684
0.000415259
0.000290019
0.00116288
0.00066572
0.000103624
0.00133422
0.000884556
-0.000133758
0.00145668
0.00106985
-0.00047094
0.00156675
0.00112088
-0.000968731
0.00168457
0.000910942
-0.00176848
0.00176945
0.000404999
-0.00318577
0.00168578
-0.000324581
-0.00526136
0.00126825
-0.000688836
-0.00762313
0.000268801
-0.0099331
-0.00176351
-1.29038e-05
-0.00859657
-0.0024522
-0.00061019
-0.00651898
-0.00061019
-0.00140246
-0.00464384
0.000300417
-0.00187141
-0.00327941
0.000585474
-0.00198621
-0.00237372
0.000551555
-0.00183407
-0.00186449
0.000416586
-0.00146802
-0.00158426
0.000284631
-0.00097795
-0.00139453
0.000229715
-0.00043394
-0.00120537
0.000271346
5.1101e-05
-0.000931785
0.000395437
0.000513434
-0.000901317
0.000449397
0.00102193
-0.00115633
0.000350576
0.00149233
-0.0013535
0.000297959
0.00183335
-0.00156008
0.000344554
0.0019636
-0.00185879
0.000469469
0.00183091
-0.00237859
0.000597346
0.00135508
-0.00328186
0.000615593
0.000563692
-0.00461806
0.000312786
-1.22063e-05
-0.00645837
-0.000615386
-0.00849243
-0.00245289
-0.00116939
-0.00567788
-0.00352503
-0.00233793
-0.0041819
-0.00233793
-0.00314951
-0.0031931
-0.00183939
-0.00341843
-0.0026489
-0.00178127
-0.00324255
-0.00234546
-0.0018629
-0.00280697
-0.00220423
-0.00194313
-0.00215692
-0.00210746
-0.0021157
-0.00140878
-0.00200649
-0.00218067
-0.000651982
-0.00185006
-0.00209168
2.88015e-05
-0.0015404
-0.00180749
0.000705281
-0.00152774
-0.00175134
0.00145552
-0.00183312
-0.00201154
0.00219032
-0.00199163
-0.00209998
0.00281797
-0.00209884
-0.00203695
0.00323605
-0.00220009
-0.00188722
0.00339769
-0.0023433
-0.00182384
0.0031063
-0.00264734
-0.00173425
0.00229222
-0.0031811
-0.00180519
0.0011413
-0.0041511
-0.00232361
-0.00562139
-0.00351779
-0.00353812
-0.00539483
-0.00562907
-0.00562907
-0.00663558
-0.00637825
-0.00690467
-0.00721704
-0.00661968
-0.00808321
-0.00590948
-0.00891892
-0.00485344
-0.00962076
-0.0034995
-0.0101488
-0.0018896
-0.0103709
-1.39852e-05
-0.0100255
0.0018669
-0.00998387
0.0034832
-0.0103307
0.00483937
-0.0101074
0.00589146
-0.00958013
0.0065901
-0.00887047
0.0068614
-0.00803216
0.00658246
-0.00717396
0.0055758
-0.00634045
0.00350174
-0.0056004
-0.00537518
0.000875795
0.000485656
0.000630359
0.00102028
0.00044983
0.000824046
0.000918454
0.000203703
0.000918454
0.00070261
0.000184411
0.000715913
0.000406237
0.000117923
0.000458345
0.000249037
-6.81146e-05
0.000456469
0.000304761
-0.000329025
0.000554539
0.000284175
-0.00033117
0.000559521
0.000142878
-0.000245822
0.000502915
-1.22238e-05
-0.00021328
0.000360915
-0.000167173
-0.000196327
0.000330348
-0.000299027
-0.00022783
0.000423466
-0.00028052
-0.000358374
0.000473896
-0.000112974
-0.000442126
0.000498956
-0.000117008
-0.000221571
0.000402531
-0.000313691
2.22772e-05
0.000338184
-0.000393395
7.45567e-05
0.000531592
-0.000418691
0.000106203
0.000622744
-0.000516455
0.000909385
0.000246094
0.00112414
6.66327e-05
0.00243008
-0.00307288
0.00550294
0.00413146
-0.00215995
0.00548157
0.00478012
-0.00109359
0.00478012
0.00431836
0.000218124
0.00370571
0.00307802
0.00112119
0.00261247
0.001792
0.00109539
0.00182724
0.000952897
0.000362136
0.00124127
0.000516781
-0.000159549
0.000672773
0.000234381
-0.0002628
0.000211697
-2.40406e-05
-0.000220074
-0.000165758
-0.000224453
-0.00024807
-0.000183007
-0.00041644
-0.000314077
0.000163323
-0.000826635
-0.000211217
0.00061815
-0.00166595
0.000258858
0.00121072
-0.00292796
0.000914115
0.00180229
-0.00412912
0.000980957
0.00255201
-0.00462478
0.000188397
0.00358773
-0.00410518
-0.000953921
0.004656
-0.00238886
-0.00172118
0.00541219
-0.00246071
0.00549435
0.00185518
-0.00556552
0.00313293
0.00327708
-0.00432466
0.00399818
0.0040597
-0.00265884
0.0040597
0.00416697
-0.000594209
0.00359881
0.00366308
0.0010573
0.00295598
0.0028283
0.00151132
0.00240171
0.00182394
0.00108475
0.001871
0.0009804
0.00047728
0.00120934
0.000391168
9.51263e-05
0.000374306
-8.82054e-05
2.10402e-05
-0.000378607
-0.000528434
-4.8486e-05
-0.000276115
-0.00107163
2.65046e-05
0.000474775
-0.00190083
0.000423845
0.00125016
-0.00293117
0.00100774
0.00190279
-0.0038051
0.00136539
0.0024658
-0.00429673
0.000887929
0.00305917
-0.00416181
-0.000677504
0.00371739
-0.00337196
-0.00254883
0.00420062
-0.00188118
-0.00402142
0.0042238
-0.00513257
0.0034552
0.00159685
-0.00699143
0.000563282
0.00257405
-0.00547645
0.00223581
0.00303668
-0.00358409
0.00303668
0.00316275
-0.0012529
0.00316735
0.00295497
0.000823549
0.00292455
0.00240764
0.00172231
0.0025527
0.00169233
0.00156762
0.00210908
0.000963189
0.00106862
0.00152021
0.000365102
0.000662777
0.00058524
-4.55588e-05
0.000474065
-0.000429169
-0.00046674
0.00042373
-0.000219422
-0.00105474
0.000575759
0.000772051
-0.00175133
0.000970952
0.00155611
-0.00244688
0.00145675
0.00210858
-0.00300025
0.00157719
0.00256973
-0.00322245
0.000663797
0.00297112
-0.00310767
-0.0013325
0.00324349
-0.00262561
-0.00352639
0.00315214
-0.0016112
-0.00528568
0.00240779
-0.00668886
0.000802187
0.00148767
-0.00787438
-0.00104724
0.00215114
-0.00583256
0.00102069
0.00225174
-0.0037853
0.00225174
0.00208482
-0.00138205
0.0027519
0.00187249
0.000751066
0.00284359
0.00152772
0.0018167
0.00262317
0.00105338
0.00185377
0.00224885
0.000530974
0.00153273
0.00171697
0.000153886
0.00124642
0.000905769
0.000111126
0.00107342
-2.99888e-05
-3.22424e-05
0.00105419
0.000189666
-0.000486417
0.00116836
0.00109642
-0.00102547
0.00142601
0.00176283
-0.0015001
0.0017326
0.00225264
-0.00185606
0.00167766
0.00263133
-0.00209591
0.000605828
0.00286423
-0.00227728
-0.00145665
0.00278625
-0.00217026
-0.00375599
0.00230413
-0.00149573
-0.00569639
0.00109211
-0.00762975
-0.000945813
0.00131114
-0.00840748
-0.00196002
0.00178372
-0.0057187
0.000233328
0.00165613
-0.00353013
0.00165613
0.00128445
-0.00115729
0.00230754
0.00100618
0.000757813
0.00255823
0.00076441
0.00179905
0.00246945
0.00046417
0.00193024
0.00217746
0.000156172
0.00174347
0.00176085
3.87576e-06
0.00156925
0.00117832
0.00012616
0.00146749
0.00051121
0.000183814
0.00145098
0.000666811
-4.44724e-05
0.00150687
0.00131299
-0.000385833
0.00164902
0.00181511
-0.00070247
0.00181555
0.00220066
-0.000967162
0.00167112
0.00249234
-0.0012801
0.000634017
0.00258772
-0.00167511
-0.00122075
0.00233791
-0.00180213
-0.00351964
0.00168175
-0.001325
-0.00561742
0.000256371
-0.00820542
-0.0019216
0.000956434
-0.00843952
-0.00268411
0.00126644
-0.00529006
-0.000456563
0.001038
-0.00307325
0.001038
0.000612641
-0.000793623
0.00172617
0.000312594
0.000813793
0.00197857
0.000179198
0.00162108
0.00196282
7.65368e-05
0.00177196
0.00179642
-2.08602e-05
0.00169208
0.0015679
-2.89028e-05
0.0016029
0.00126301
0.000114756
0.00155793
0.000882734
0.000216768
0.00154526
0.000966583
0.000149971
0.00155509
0.0013528
1.63749e-05
0.00161332
0.00162598
-0.000115925
0.00167119
0.0018434
-0.000278953
0.0015077
0.00201102
-0.000617398
0.000712054
0.00202986
-0.00106451
-0.000859929
0.00177207
-0.0012908
-0.00308616
0.00106105
-0.000976203
-0.00522127
-0.000441945
-0.0082807
-0.00266443
0.000154363
-0.00754361
-0.00350248
0.000300417
-0.00464384
-0.00140246
-5.34984e-05
-0.00236542
-5.34983e-05
-0.000238983
-0.000679319
0.000656654
-0.000285876
0.000458859
0.000953379
-0.000250017
0.00105943
0.000942372
-0.00017549
0.00115469
0.000827368
-9.23942e-05
0.00111931
0.000719382
1.79297e-05
0.0011208
0.000643113
8.89169e-05
0.00131703
0.000565343
0.00014362
0.00131409
0.000625869
0.000232407
0.00109435
0.000722523
0.000285339
0.00106769
0.000790645
0.000327243
0.00107988
0.000893963
0.000327085
0.000966329
0.001011
0.000254786
0.00035542
0.00102628
3.58267e-05
-0.000736663
0.000711286
-0.000328384
-0.00238032
-2.88497e-05
-0.000191279
-0.00459587
-0.00137788
-0.00743957
-0.0034853
-0.00120023
-0.00525137
-0.00461704
-0.00183939
-0.0031931
-0.00314951
-0.00210499
-0.00183422
-0.00210499
-0.00198263
-0.000994996
-0.00158795
-0.0014954
-0.000398237
-0.00149304
-0.00095328
-4.4248e-05
-0.00138157
-0.000520124
6.40813e-05
-0.00145824
-0.000218752
0.000158568
-0.00152131
-2.52292e-05
0.000306357
-0.00147076
8.29244e-05
0.000679137
-0.00127776
0.000184913
0.000687199
-0.00122644
0.000365249
0.000311411
-0.00140894
0.000642033
0.000154675
-0.00146375
0.00105221
4.38763e-05
-0.00141113
0.00156295
-7.97368e-05
-0.0013519
0.00199942
-0.000447081
-0.00145781
0.00207228
-0.0010272
-0.00151658
0.00179029
-0.00184281
-0.0020607
0.00116552
-0.00317203
-0.00312268
-0.00519773
-0.00459412
-0.00419167
-0.00645452
-0.00637825
-0.00663558
-0.00729535
-0.00729535
-0.00743815
-0.00806924
-0.0070542
-0.00886538
-0.00627682
-0.00974056
-0.00522047
-0.010613
-0.00385969
-0.011351
-0.00215992
-0.0117643
-4.0955e-06
-0.0115022
0.00216201
-0.0114628
0.00387091
-0.0117282
0.00523648
-0.0113183
0.00628576
-0.0105855
0.00704762
-0.00971207
0.00740696
-0.00883857
0.0072478
-0.008042
0.00632244
-0.0072579
0.00414992
-0.00659991
-0.00642299
0.000498826
0.000298905
-0.000167345
0.00068449
0.000178495
0.000459906
0.000715913
0.000184411
0.00070261
0.000645115
0.000141569
0.000645115
0.000523669
2.16078e-05
0.000558145
0.000536421
-0.00023901
0.000682709
0.000640633
-0.000425357
0.000875687
0.000563254
-0.000332722
0.000969631
0.000322855
-0.000249401
0.000992723
-3.83726e-06
-0.000224637
0.00091225
-0.000343156
-0.000201889
0.000871557
-0.000592116
-0.000234628
0.00090706
-0.000632812
-0.000368707
0.000883312
-0.000443056
-0.000518835
0.000828051
-0.000318399
-0.00037637
0.000654251
-0.000355831
-0.000115085
0.000490686
-0.000395
4.31912e-05
0.000527548
-0.000396366
8.93651e-05
0.000534731
-0.000313945
9.94948e-05
6.41841e-05
0.000370379
-0.000617697
0.00206518
-0.00107438
0.00481106
0.00327765
-0.000496908
0.00494453
0.00370571
0.000218124
0.00431836
0.00328863
0.000975757
0.00328863
0.00236385
0.00125451
0.00230438
0.00147467
0.000831512
0.00164592
0.000944002
0.00012419
0.0012224
0.000690722
-0.000278104
0.000871433
0.000394174
-0.000309817
0.00056866
-4.05561e-05
-0.000225263
0.000269598
-0.000412439
-0.000256692
0.000243679
-0.000623676
-0.000362646
0.000502578
-0.000841773
-0.00033002
0.000797557
-0.00137317
4.75364e-05
0.00117575
-0.00224907
0.000673361
0.00162849
-0.0031402
0.00106561
0.00226249
-0.00354569
0.000842813
0.00319363
-0.00316426
0.000189062
0.00417491
-0.00203642
-0.000400887
0.00478476
-0.000858437
0.00468678
0.00172862
-0.00287756
0.0032075
0.00289374
-0.00172079
0.00405693
0.00359881
-0.000594209
0.00416697
0.00373179
0.000709801
0.00373179
0.00332509
0.00152586
0.00309133
0.00258182
0.00149185
0.00248465
0.00171491
0.000951643
0.00191045
0.0010162
0.000324479
0.00130546
0.000458447
1.61467e-06
0.00062063
-0.000134277
-1.37874e-05
2.63855e-06
-0.000648951
-9.82301e-05
8.00968e-05
-0.00112355
-9.3176e-05
0.000679905
-0.00179953
0.000276152
0.00131997
-0.00267231
0.000897847
0.00192527
-0.00343366
0.00137118
0.00252933
-0.00384031
0.00135163
0.00317981
-0.00368311
0.000550921
0.00385209
-0.00294897
-0.000660286
0.00431584
-0.00174038
-0.00165667
0.00427099
-0.00264461
0.003501
0.00177136
-0.00445742
0.000371784
0.00263474
-0.00254764
0.00219929
0.00316735
-0.0012529
0.00316275
0.0033838
0.000276894
0.0033838
0.00317694
0.00152589
0.00313139
0.002607
0.00190768
0.0027068
0.00188878
0.00154735
0.0022316
0.00115619
0.000936899
0.00164038
0.00049588
0.000482749
0.00076441
-0.000122369
0.000307232
-0.000131943
-0.000704569
0.000215177
4.93685e-05
-0.00130357
0.000367446
0.000910428
-0.00198687
0.000842792
0.00167276
-0.00266543
0.00145215
0.00223285
-0.00321883
0.00177731
0.002717
-0.00341333
0.00135266
0.0031646
-0.00319519
0.000137025
0.00343925
-0.00265178
-0.00131503
0.00326348
-0.00176943
-0.00250669
0.00237546
-0.00424018
0.000628326
0.00172728
-0.00579966
-0.00143228
0.00245584
-0.00283424
0.000578735
0.0027519
-0.00138205
0.00208482
0.00280505
0.000170603
0.00280505
0.0026349
0.00158678
0.00295285
0.00221581
0.00219902
0.00275091
0.00163552
0.00199906
0.00237742
0.000997269
0.00146514
0.00182698
0.000417495
0.000992759
0.000975526
-1.06882e-05
0.000700447
4.97389e-06
-0.000459218
0.000642185
0.000211183
-0.00105154
0.000889106
0.00116708
-0.00167391
0.00134143
0.00188656
-0.00222839
0.0018682
0.00239107
-0.00263012
0.00204886
0.00276151
-0.00279817
0.00141234
0.0029726
-0.00274244
2.76256e-05
0.00283992
-0.00244947
-0.00144316
0.0021393
-0.00172414
-0.00280036
0.000660452
-0.0055806
-0.00132954
0.00147844
-0.0068647
-0.00237343
0.00216062
-0.00300637
-0.000276724
0.00230754
-0.00115729
0.00128445
0.00219593
0.000393832
0.00219593
0.00200624
0.0017414
0.00259331
0.00170734
0.00237972
0.00258765
0.00128608
0.00226158
0.00233618
0.000790283
0.00182684
0.00189495
0.000336239
0.00141827
0.00120685
5.48682e-05
0.00112352
0.000369507
-0.000255588
0.00108669
0.00053276
-0.00074359
0.00132755
0.00136254
-0.00125435
0.00170411
0.00196319
-0.0016768
0.00212186
0.00236945
-0.00197718
0.00222568
0.0026159
-0.00218004
0.00157843
0.00262448
-0.00230504
0.000261557
0.00222898
-0.00216962
-0.00121257
0.00131574
-0.00149792
-0.00297164
-0.000244044
-0.00666878
-0.00233133
0.000997058
-0.00741686
-0.003129
0.00166448
-0.00318258
-0.000947773
0.00172617
-0.000793623
0.000612641
0.00151782
0.00081054
0.00151782
0.00137233
0.00184334
0.00202211
0.00123651
0.00231813
0.00216023
0.00102836
0.00220003
0.00206612
0.000724078
0.00187237
0.00182665
0.000383156
0.00159045
0.00143175
8.84404e-05
0.00140185
0.000899114
-0.000227937
0.00137605
0.000993589
-0.000612756
0.00152178
0.00154339
-0.000952791
0.00177198
0.00189815
-0.00118302
0.00207538
0.0021201
-0.00133959
0.00218059
0.00221269
-0.00151179
0.00170411
0.00207637
-0.00174789
0.000703598
0.00156613
-0.00168937
-0.000862777
0.000652736
-0.00103533
-0.00315397
-0.000913652
-0.00726403
-0.00310451
1.96877e-05
-0.00698132
-0.0039577
0.000585474
-0.00327941
-0.00187141
0.000656654
-0.000679319
-0.000238983
0.000627586
0.000868674
0.000627586
0.000668076
0.00164585
0.00111038
0.000763045
0.00188039
0.00128513
0.000791653
0.00173019
0.0012686
0.000706551
0.00150993
0.00116692
0.000516416
0.00139364
0.00103006
0.000101767
0.00153447
0.000847364
-0.000326023
0.00152684
0.000902866
-0.000550029
0.00136168
0.00110663
-0.000675932
0.00145693
0.0012316
-0.000686265
0.00165202
0.00132766
-0.000630154
0.00178725
0.00134822
-0.000628674
0.00154869
0.00118022
-0.000674306
0.000766616
0.000693898
-0.000621231
-0.00074127
-0.000203433
-6.76541e-05
-0.00326251
-0.00182292
-0.00688044
-0.00393654
-0.00141968
-0.00514566
-0.00503302
-0.00178127
-0.0026489
-0.00341843
-0.00158795
-0.000994996
-0.00198263
-0.00120772
0.000108216
-0.00120772
-0.000721882
0.000522466
-0.000855496
-0.000185471
0.000669681
-0.000707271
0.000175764
0.000689582
-0.000778874
0.000336446
0.000748768
-0.000920826
0.000315185
0.000928802
-0.000984664
0.000102606
0.00140213
-0.000932846
-0.000119596
0.00140808
-0.000885479
-0.000164514
0.000928833
-0.000931181
-2.69898e-05
0.00074203
-0.000886381
0.000288523
0.000674728
-0.000749355
0.00077154
0.000639489
-0.000687153
0.00119888
0.000484074
-0.000820544
0.00153375
6.49448e-05
-0.00114978
0.00171785
-0.00102555
-0.00196053
0.00137226
-0.00263856
-0.00340104
-0.0050962
-0.0050061
-0.00483723
-0.00676295
-0.00721704
-0.00690467
-0.00806924
-0.00743815
-0.00801513
-0.00801513
-0.00754089
-0.00881716
-0.00679705
-0.00981472
-0.00580086
-0.0109196
-0.00444077
-0.0119623
-0.00258402
-0.0126923
1.25355e-06
-0.0126853
0.00259806
-0.0126515
0.00446347
-0.0126647
0.00582708
-0.0119399
0.00681924
-0.010903
0.00755066
-0.009804
0.00800418
-0.00880802
0.00803114
-0.00800401
0.0071551
-0.00740741
0.00478827
-0.00687163
-0.00673092
7.23299e-05
0.000454892
-0.000694577
0.000279921
0.000201555
5.07369e-05
0.000458345
0.000117923
0.000406236
0.000558145
2.16078e-05
0.000523669
0.000655681
-0.000195096
0.000655681
0.000828744
-0.00041296
0.0009226
0.000938504
-0.000435807
0.00120174
0.000809053
-0.000300084
0.00139917
0.000482531
-0.00023347
0.00155272
5.49303e-07
-0.000217954
0.00161219
-0.000499873
-0.000195621
0.0015676
-0.000840282
-0.000226357
0.00147383
-0.000936161
-0.000348987
0.00132819
-0.000766628
-0.000515177
0.00117371
-0.000511953
-0.000533594
0.000933183
-0.000352455
-0.00032584
0.000657028
-0.000215227
-0.000107421
0.000497725
-3.25071e-05
2.39924e-05
0.000327995
5.68145e-05
8.71511e-05
-0.0001123
0.000343432
-0.00090432
0.0015554
0.000549521
0.00316104
0.00237537
0.000851091
0.00347504
0.00261247
0.00112119
0.00307802
0.00230438
0.00125451
0.00236385
0.00171643
0.000980835
0.00171643
0.00121928
0.0003778
0.00135233
0.000964247
-0.000148607
0.00119024
0.000823539
-0.000377425
0.00108948
0.000495253
-0.000310383
0.000973857
-5.09073e-05
-0.000211154
0.000808956
-0.000533328
-0.000245333
0.00077581
-0.000779755
-0.000373916
0.000896564
-0.000890614
-0.000443117
0.00100254
-0.00114144
-0.000217351
0.00112875
-0.00164075
0.000276377
0.00131784
-0.00220696
0.000812985
0.0016899
-0.00249829
0.00107138
0.00230621
-0.00226063
0.000980346
0.00298092
-0.00148035
0.000743621
0.00334804
0.000493979
0.00305591
0.00147916
-0.000543313
0.00282118
0.00238818
0.000454651
0.00354435
0.00295598
0.0010573
0.00366308
0.00309133
0.00152586
0.00332509
0.0027804
0.00160269
0.0027804
0.00217118
0.00123696
0.00223471
0.00151061
0.000655279
0.00176714
0.000975632
0.000117464
0.00134555
0.000476161
-8.83486e-05
0.000898064
-0.000153872
-4.89533e-05
0.000470469
-0.000689729
-0.000140535
0.000511154
-0.00108801
-0.00020282
0.000907092
-0.00158917
5.79651e-05
0.00132004
-0.00224613
0.000614715
0.00175016
-0.0028581
0.00116769
0.00224999
-0.00316935
0.00147214
0.00283191
-0.00302271
0.00136711
0.00340972
-0.00242632
0.000918555
0.00378125
-0.00147927
0.000360475
0.00370709
-0.000504411
0.00302012
0.00182989
-0.00244121
0.000439782
0.00248302
-6.43267e-05
0.00206514
0.00292455
0.000823549
0.00295497
0.00313139
0.00152589
0.00317694
0.00296153
0.0019424
0.00296153
0.00247972
0.00184278
0.00258278
0.00185193
0.00133957
0.00217509
0.00118423
0.000745299
0.00168025
0.000522707
0.0003459
0.000991676
-0.000167572
0.00020489
0.000304488
-0.000781907
9.61989e-05
0.000426967
-0.00136465
0.000210888
0.00107946
-0.00197342
0.00065204
0.00168746
-0.00255352
0.00126412
0.00216355
-0.00300191
0.0017504
0.00258269
-0.00314922