/*--------------------------------*- C++ -*----------------------------------*\
  =========                 |
  \\      /  F ield         | OpenFOAM: The Open Source CFD Toolbox
   \\    /   O peration     | Website:  https://openfoam.org
    \\  /    A nd           | Version:  9
     \\/     M anipulation  |
\*---------------------------------------------------------------------------*/
FoamFile
{
    format      ascii;
    class       volVectorField;
    location    "1850";
    object      U;
}
// * * * * * * * * * * * * * * * * * * * * * * * * * * * * * * * * * * * * * //

dimensions      [0 1 -1 0 0 0 0];

internalField   nonuniform List<vector> 
4000
(
(0.0058266 -0.0109673 0.0058266)
(0.00928826 0.00381458 0.00519269)
(0.0048253 0.0102087 0.00285903)
(7.59513e-05 0.00369048 0.00111275)
(-0.00151229 5.09975e-05 7.94541e-05)
(-0.00298049 -0.00250072 -2.22351e-07)
(-0.00291095 -0.00150947 -0.00013604)
(-0.00205231 -0.00069672 -0.000372347)
(-0.00140783 -0.000673508 -0.000421448)
(-0.000539258 -0.000678632 -0.000514863)
(0.000442555 -0.000676079 -0.000506168)
(0.00126811 -0.000612427 -0.000413436)
(0.00208224 -0.000668388 -0.000409205)
(0.00328117 -0.00173736 -0.000274684)
(0.00383327 -0.00325806 -0.000140493)
(0.0029793 -0.00140543 2.20058e-05)
(0.00246214 0.00178366 0.000897944)
(-0.00232695 0.00997761 0.00240087)
(-0.00821864 0.00501916 0.00510996)
(-0.00547454 -0.0102813 0.0056876)
(0.00413039 -0.0263802 0.00413039)
(0.0116316 -0.0148643 0.00500622)
(0.0171059 -0.00680384 0.00537514)
(0.0191548 -0.00123269 0.00499332)
(0.0152103 0.00305152 0.00401702)
(0.00814208 0.00357988 0.00317098)
(-0.000428805 0.00018763 0.00128411)
(-0.00169625 -0.000657516 -0.000526919)
(-0.00176315 -0.000171895 -0.00103424)
(-0.00060097 -0.000156059 -0.00142019)
(0.000822549 -0.000152648 -0.00145403)
(0.00213314 -0.000310999 -0.00104022)
(0.00222342 -0.000917073 -0.000511398)
(0.00118633 -5.51688e-05 0.00117022)
(-0.00766466 0.00337831 0.00313318)
(-0.014771 0.00360701 0.00392038)
(-0.0189507 4.20391e-05 0.0049679)
(-0.0169426 -0.00473992 0.00537076)
(-0.0117351 -0.0129462 0.00492435)
(-0.004001 -0.0251209 0.00399226)
(0.00239783 -0.0383502 0.00239783)
(0.00675697 -0.0267274 0.00349112)
(0.00949659 -0.0163115 0.00387315)
(0.011093 -0.00744184 0.00398738)
(0.0115787 0.000203015 0.00376061)
(0.00904308 0.00323611 0.0033538)
(0.00527983 0.00252724 0.0028085)
(0.000783922 0.000672812 0.0015864)
(-0.0015174 -0.000328361 -0.000722533)
(-0.000233486 -0.000552906 -0.00178943)
(0.000735131 -0.000671496 -0.00171211)
(0.00204137 -0.000520458 -0.000547504)
(-0.0012816 0.000711356 0.00189704)
(-0.00550275 0.00239095 0.00283194)
(-0.0096202 0.00262147 0.00343811)
(-0.0121795 -0.000645183 0.00384482)
(-0.0119535 -0.00784396 0.00406739)
(-0.0102291 -0.0158454 0.00394651)
(-0.00705054 -0.0256954 0.00346455)
(-0.0024239 -0.0372746 0.00233238)
(0.0012146 -0.0445146 0.0012146)
(0.00287566 -0.0333807 0.0025762)
(0.00182916 -0.0221176 0.00305013)
(0.00163277 -0.0125363 0.00373604)
(0.00109963 -0.0042252 0.00444579)
(0.00224338 0.000537201 0.0044503)
(0.00183324 0.00152995 0.00409717)
(0.000406007 0.00168449 0.0033977)
(-0.000888955 0.00155119 0.00220556)
(-1.42067e-05 0.00148827 0.00136988)
(0.00144725 0.0014356 0.00153207)
(0.00142869 0.00154478 0.00233453)
(-0.000342881 0.00157088 0.00341911)
(-0.00169619 0.00146035 0.00398533)
(-0.00230663 0.000486969 0.00442251)
(-0.0015921 -0.00428519 0.00444193)
(-0.0023751 -0.0123715 0.00379523)
(-0.0024734 -0.0216537 0.00312132)
(-0.00319207 -0.0327407 0.00257044)
(-0.00130148 -0.043638 0.00114248)
(0.000371116 -0.046955 0.000371116)
(0.000234324 -0.0363677 0.00193372)
(-0.00321922 -0.025778 0.00226488)
(-0.00441966 -0.01777 0.00275286)
(-0.00522619 -0.0120041 0.00323606)
(-0.00472239 -0.00844475 0.00356318)
(-0.00377625 -0.00626582 0.00354689)
(-0.00273778 -0.0049118 0.00348463)
(-0.00161307 -0.004283 0.00342801)
(-0.000253998 -0.0038093 0.0033683)
(0.00141993 -0.00356092 0.00350928)
(0.00223759 -0.00390542 0.00356614)
(0.003085 -0.00452443 0.00358865)
(0.0039075 -0.00594408 0.00360541)
(0.00466481 -0.00817574 0.00360777)
(0.00497176 -0.011793 0.00328137)
(0.00398115 -0.0175221 0.00280085)
(0.0027669 -0.0254497 0.00230659)
(-0.000546393 -0.0359949 0.00190189)
(-0.000481843 -0.046279 0.000266225)
(-0.000388496 -0.0466335 -0.000388496)
(-0.00163164 -0.0373346 0.00121392)
(-0.00618828 -0.0286439 0.00109851)
(-0.007756 -0.0224502 0.000997007)
(-0.00850407 -0.0181342 0.000817981)
(-0.00797115 -0.0153254 0.000686528)
(-0.00668495 -0.0135041 0.000615123)
(-0.00492649 -0.0122633 0.00061309)
(-0.00285873 -0.0114561 0.000704178)
(-0.00101478 -0.0108791 0.000855013)
(0.00136936 -0.0105522 0.00102025)
(0.00301042 -0.0110083 0.000899594)
(0.00495685 -0.0117998 0.000800862)
(0.00661125 -0.0130836 0.000775582)
(0.00780631 -0.0149725 0.000819173)
(0.00825073 -0.0178422 0.000923216)
(0.00741629 -0.0221688 0.00107733)
(0.00583908 -0.028345 0.00114041)
(0.00134497 -0.0369955 0.00117718)
(0.00025772 -0.0461026 -0.000511337)
(-0.00131627 -0.0439938 -0.00131627)
(-0.00318723 -0.0365111 0.000169611)
(-0.0084979 -0.0299116 -0.000479716)
(-0.010418 -0.025615 -0.00112618)
(-0.0110792 -0.0227618 -0.00178365)
(-0.0103013 -0.0209632 -0.00231426)
(-0.0085773 -0.0197614 -0.00272226)
(-0.00625776 -0.0188672 -0.00295533)
(-0.00355114 -0.01816 -0.00294607)
(-0.00137854 -0.0175354 -0.00272927)
(0.00142197 -0.0172862 -0.00259566)
(0.00351156 -0.0178024 -0.00278245)
(0.00615868 -0.0184853 -0.00279279)
(0.00841599 -0.0194051 -0.00257077)
(0.0100819 -0.0206523 -0.00218004)
(0.0108069 -0.0224919 -0.00166938)
(0.0100955 -0.0253495 -0.00103451)
(0.00817501 -0.0296426 -0.000432098)
(0.00291982 -0.0362202 0.000142619)
(0.00118423 -0.0435548 -0.00143469)
(-0.00278621 -0.0381577 -0.00278621)
(-0.00529709 -0.0326838 -0.00160377)
(-0.0111365 -0.0284055 -0.00262433)
(-0.013342 -0.0259958 -0.00365917)
(-0.0138497 -0.0244559 -0.0045678)
(-0.0127557 -0.0235652 -0.00530971)
(-0.0105335 -0.0229954 -0.00590059)
(-0.00755877 -0.022545 -0.00630261)
(-0.00411489 -0.0221199 -0.00644498)
(-0.00156678 -0.0216583 -0.00625657)
(0.00158498 -0.0215295 -0.00618153)
(0.00403943 -0.021934 -0.00637307)
(0.0074295 -0.0223341 -0.00622765)
(0.0103544 -0.0227923 -0.00581695)
(0.0125278 -0.0233782 -0.0052212)
(0.0135813 -0.0242749 -0.00447822)
(0.013036 -0.0257881 -0.00357277)
(0.0108339 -0.028185 -0.00257321)
(0.00504354 -0.0324359 -0.00161167)
(0.00264992 -0.0378173 -0.00288108)
(-0.00531572 -0.0283179 -0.00531572)
(-0.00890268 -0.0245174 -0.00492005)
(-0.0149217 -0.0223101 -0.00614522)
(-0.0171321 -0.0214774 -0.00745014)
(-0.0174272 -0.0212665 -0.00859998)
(-0.0159736 -0.0213972 -0.00952688)
(-0.0132201 -0.0215963 -0.0102571)
(-0.00952981 -0.0217127 -0.0107293)
(-0.00521219 -0.0216098 -0.0108142)
(-0.00204923 -0.0212142 -0.0102635)
(0.00204497 -0.0211377 -0.0101662)
(0.00511531 -0.0215053 -0.0107202)
(0.00939518 -0.0216036 -0.010635)
(0.0130486 -0.0214935 -0.0101593)
(0.015763 -0.0212953 -0.00942902)
(0.0171815 -0.0211584 -0.00850489)
(0.0168614 -0.021362 -0.00736097)
(0.0146475 -0.0221758 -0.00608178)
(0.00867289 -0.0243522 -0.00490512)
(0.00517095 -0.0280891 -0.00537599)
(-0.00940546 -0.0174034 -0.00940546)
(-0.0153546 -0.0138432 -0.0107615)
(-0.0213049 -0.012095 -0.01304)
(-0.0232948 -0.0113933 -0.0151798)
(-0.0231847 -0.011024 -0.0171825)
(-0.0212494 -0.0107465 -0.0189544)
(-0.0178665 -0.0103857 -0.0204098)
(-0.01329 -0.00986894 -0.0214884)
(-0.00774839 -0.00916349 -0.0219343)
(-0.00333857 -0.00838714 -0.0210766)
(0.00320757 -0.00832506 -0.0209536)
(0.00758373 -0.00907224 -0.0218325)
(0.0131223 -0.00977001 -0.0213875)
(0.0176935 -0.0102868 -0.0203075)
(0.0210583 -0.0106545 -0.0188387)
(0.0229638 -0.0109401 -0.0170587)
(0.0230469 -0.0113182 -0.015067)
(0.021048 -0.0120223 -0.0129506)
(0.0151313 -0.0137592 -0.0107133)
(0.0092462 -0.0172744 -0.00942701)
(0.00519269 0.00381458 0.00928826)
(0.00643207 0.0110669 0.00643207)
(0.00337216 0.00750252 0.00348329)
(0.00226804 0.00114448 0.00215504)
(0.000831115 -0.00179342 0.000473232)
(-0.000439775 -0.00312362 0.000396693)
(-0.000631458 -0.00196106 0.000608717)
(-0.000261031 -0.000849048 0.000203698)
(-0.000317843 -0.000598833 -9.45853e-05)
(-0.000134648 -0.000605556 -0.000454873)
(4.77483e-05 -0.000563233 -0.000447635)
(0.00024926 -0.000503585 -0.000201586)
(0.000410548 -0.000826339 -4.68517e-05)
(0.000994647 -0.00232992 0.000349734)
(0.00126187 -0.00366154 0.000240206)
(0.000649237 -0.00311825 0.000193836)
(2.53502e-05 -0.00116449 0.00164311)
(-0.00071417 0.00668301 0.00251603)
(-0.00524537 0.0116555 0.00596584)
(-0.00477847 0.00465124 0.00887268)
(0.00500622 -0.0148643 0.0116315)
(0.0122134 -0.00741793 0.0122134)
(0.0176106 -0.00375912 0.0114478)
(0.0193328 0.000456244 0.00948184)
(0.0156981 0.0034803 0.00703159)
(0.00946594 0.00355564 0.00514633)
(0.00340914 0.000520169 0.00330771)
(0.00115555 -0.00123024 0.000953488)
(-2.9765e-05 -0.000739615 -0.000670779)
(-3.80504e-05 -0.000673566 -0.00162451)
(4.24621e-05 -0.000667259 -0.00162807)
(0.000301174 -0.000863143 -0.000707602)
(-0.000560284 -0.00143754 0.000734921)
(-0.00282989 5.33267e-05 0.00325105)
(-0.00885826 0.00321777 0.00505379)
(-0.0150432 0.00395096 0.00684986)
(-0.0189331 0.0016503 0.0093733)
(-0.01729 -0.00143151 0.0113916)
(-0.0120173 -0.00363921 0.0120845)
(-0.00484692 -0.0123876 0.0116575)
(0.00349112 -0.0267274 0.00675697)
(0.00895946 -0.0200885 0.00895946)
(0.0124974 -0.0126214 0.00917026)
(0.0143035 -0.00462804 0.00819573)
(0.014157 0.0018715 0.00679405)
(0.0111488 0.00405834 0.00565577)
(0.00757768 0.00279515 0.00460986)
(0.00381219 0.000712021 0.00302327)
(0.0011142 -0.000663077 0.000300292)
(0.000162493 -0.000752671 -0.00212741)
(-0.000290766 -0.000985833 -0.00183297)
(-0.00142277 -0.000855769 0.00081367)
(-0.00408797 0.000628043 0.00319144)
(-0.00788803 0.00245421 0.00470218)
(-0.011706 0.003304 0.0058294)
(-0.0147344 0.00100915 0.00701622)
(-0.0149161 -0.00514872 0.00842964)
(-0.0130479 -0.0122097 0.00942944)
(-0.00917054 -0.018696 0.00923055)
(-0.00344085 -0.0251063 0.00701461)
(0.0025762 -0.0333807 0.00287566)
(0.00654024 -0.0267495 0.00654024)
(0.00724982 -0.017584 0.00787172)
(0.00756869 -0.00764941 0.00807137)
(0.00774026 0.000961301 0.00763608)
(0.00701167 0.00464425 0.00677553)
(0.00519652 0.00437589 0.00581272)
(0.00293509 0.0031917 0.00447221)
(0.000796177 0.00214302 0.00217588)
(0.000238088 0.00159586 -0.000715077)
(0.000264574 0.00146151 -1.85797e-05)
(-0.000793876 0.00190143 0.00269108)
(-0.00301647 0.0029105 0.00448909)
(-0.00521146 0.00410574 0.00572527)
(-0.00713905 0.00429033 0.00679022)
(-0.00793501 0.000604219 0.00773853)
(-0.00807394 -0.00763501 0.00820842)
(-0.00765503 -0.0170333 0.00802225)
(-0.00668047 -0.0257089 0.00668217)
(-0.00259356 -0.0321336 0.0030568)
(0.00193372 -0.0363677 0.000234324)
(0.00531465 -0.0297399 0.00531465)
(0.0037755 -0.0199133 0.00743542)
(0.00280639 -0.00952128 0.00823578)
(0.0013784 -0.00130407 0.00862496)
(0.00163916 0.0028667 0.0081419)
(0.00102581 0.00360858 0.00726794)
(0.000286591 0.00349966 0.00629068)
(-0.000390727 0.00328111 0.00511644)
(4.99137e-05 0.00337536 0.00387988)
(0.00105801 0.00322957 0.00422352)
(0.000953736 0.00308743 0.00530606)
(8.97399e-05 0.00327255 0.00625569)
(-0.000793332 0.00334389 0.00717838)
(-0.00151736 0.00254461 0.00809312)
(-0.00147676 -0.0016909 0.00858093)
(-0.00308195 -0.00965353 0.00824834)
(-0.00402706 -0.0196341 0.00745476)
(-0.00540315 -0.0290684 0.00530072)
(-0.00196773 -0.0354285 0.000288032)
(0.00121392 -0.0373346 -0.00163164)
(0.0045401 -0.0302029 0.0045401)
(0.00136863 -0.0203712 0.00699396)
(-5.75734e-05 -0.010235 0.00790381)
(-0.00169013 -0.0029343 0.00822905)
(-0.00158162 0.00117619 0.00820627)
(-0.00162148 0.00263586 0.00768319)
(-0.00162366 0.00323646 0.00715512)
(-0.00134111 0.00356372 0.00667217)
(-0.000383212 0.00382875 0.00613426)
(0.00118747 0.00380168 0.00629868)
(0.00181886 0.0035415 0.0067746)
(0.00198207 0.00318435 0.00718475)
(0.00186975 0.00252386 0.00767202)
(0.00175205 0.00097779 0.00818425)
(0.00165459 -0.00308248 0.00823051)
(-0.000121646 -0.0103253 0.00790945)
(-0.00157846 -0.0201896 0.00695947)
(-0.00462372 -0.0297062 0.00443958)
(-0.0012631 -0.0365763 -0.00167173)
(0.000169611 -0.0365111 -0.00318723)
(0.00345629 -0.0287536 0.00345629)
(-0.00110116 -0.0194371 0.00587409)
(-0.00246956 -0.0109852 0.00660482)
(-0.00379713 -0.00522576 0.00664113)
(-0.0038697 -0.00178572 0.00659772)
(-0.00322115 0.00020763 0.0067052)
(-0.00240232 0.00117145 0.00682841)
(-0.00144127 0.00155926 0.00689657)
(-0.00039027 0.00173833 0.00670935)
(0.00102703 0.00170437 0.00678491)
(0.001854 0.00149833 0.00698586)
(0.00266837 0.00109234 0.00695036)
(0.00336787 9.90235e-05 0.00680719)
(0.00390116 -0.00189702 0.006696)
(0.00371637 -0.00530593 0.00672663)
(0.00230824 -0.0110025 0.00664086)
(0.000888739 -0.0193313 0.00583379)
(-0.00355074 -0.028381 0.00334145)
(-0.000229804 -0.0359136 -0.00325937)
(-0.00160377 -0.0326838 -0.00529709)
(0.000952721 -0.0248612 0.000952721)
(-0.00444822 -0.0175976 0.00292341)
(-0.00577656 -0.0115543 0.00315928)
(-0.00681741 -0.00733299 0.00249443)
(-0.00669451 -0.00477408 0.00186846)
(-0.00576945 -0.00320592 0.00146238)
(-0.00425577 -0.00202059 0.00145412)
(-0.00237177 -0.000817346 0.00199305)
(-0.00072498 0.000686232 0.00302584)
(0.00107492 0.000928581 0.00325843)
(0.00257297 -0.000436495 0.00239061)
(0.00436984 -0.00169977 0.00180298)
(0.00580857 -0.00298494 0.00176033)
(0.00665402 -0.00466656 0.00210869)
(0.00670352 -0.00729947 0.00266836)
(0.00563065 -0.0115598 0.00324694)
(0.0042678 -0.0175007 0.00292649)
(-0.00106689 -0.0246146 0.000875937)
(0.00153109 -0.0322517 -0.00535322)
(-0.00492005 -0.0245174 -0.00890268)
(-0.00508725 -0.0186986 -0.00508725)
(-0.0102546 -0.014369 -0.00421445)
(-0.0116441 -0.011937 -0.00471081)
(-0.0117097 -0.010559 -0.00557704)
(-0.0105488 -0.0100407 -0.0063125)
(-0.00862883 -0.00995326 -0.00682469)
(-0.00618439 -0.0100367 -0.00689384)
(-0.00344171 -0.0100219 -0.00640079)
(-0.00135361 -0.00945533 -0.00509808)
(0.00155026 -0.0094509 -0.00492028)
(0.00361983 -0.0100189 -0.0061562)
(0.00632443 -0.0100536 -0.00664805)
(0.00871071 -0.0100064 -0.0065816)
(0.0105622 -0.0101109 -0.00609287)
(0.0116663 -0.0106247 -0.00539575)
(0.0115336 -0.0119733 -0.00456223)
(0.0100878 -0.0143291 -0.00412525)
(0.0049483 -0.0185524 -0.00507112)
(0.0048242 -0.0242551 -0.00891802)
(-0.0107615 -0.0138432 -0.0153546)
(-0.0161445 -0.00849358 -0.0161445)
(-0.0220747 -0.00555841 -0.0187068)
(-0.0238341 -0.00398065 -0.0214849)
(-0.0236702 -0.00297049 -0.0242381)
(-0.021865 -0.00216806 -0.0267657)
(-0.0187862 -0.00128294 -0.028837)
(-0.0145974 -0.000242607 -0.030365)
(-0.00927704 0.000971146 -0.0309784)
(-0.00445879 0.0023692 -0.0298751)
(0.0043616 0.00243571 -0.029742)
(0.00921478 0.00106621 -0.0308523)
(0.0145489 -0.000135489 -0.0302346)
(0.0187398 -0.00117562 -0.0287045)
(0.0217885 -0.00207718 -0.0266089)
(0.0235461 -0.00289974 -0.0240702)
(0.0236667 -0.00393336 -0.0213388)
(0.0218792 -0.00551762 -0.018588)
(0.0159773 -0.00842987 -0.0160676)
(0.0106375 -0.0137127 -0.0153193)
(0.00285903 0.0102087 0.0048253)
(0.00348329 0.00750252 0.00337216)
(0.00324845 0.00287033 0.00324844)
(0.00299795 -0.000564959 0.002517)
(0.0018846 -0.0027787 0.00136984)
(0.000998295 -0.00324611 0.00121247)
(0.000867082 -0.00213811 0.00144807)
(0.0011488 -0.000977831 0.00131106)
(0.000764745 -0.000594686 0.000971919)
(0.000259607 -0.000598812 0.000416127)
(-0.000362691 -0.000540391 0.000330852)
(-0.000822569 -0.000479772 0.000702562)
(-0.00115586 -0.00101797 0.0010241)
(-0.000627475 -0.00240361 0.00127082)
(-0.000275077 -0.00369594 0.00102229)
(-0.000628647 -0.00376204 0.000883957)
(-0.00147 -0.00232198 0.00190432)
(-0.00105087 0.000415777 0.00208468)
(-0.00171123 0.00766886 0.00163591)
(-0.00221945 0.010543 0.00337848)
(0.00537514 -0.00680384 0.0171059)
(0.0114478 -0.00375912 0.0176106)
(0.0159822 -0.00104358 0.0159822)
(0.0167848 0.00218785 0.012679)
(0.0135654 0.00386453 0.00913346)
(0.0084503 0.00298172 0.00646371)
(0.00396282 -1.98741e-05 0.0042633)
(0.00221697 -0.00146065 0.00196801)
(0.0012383 -0.0011797 0.000132212)
(0.000375014 -0.000888251 -0.00121919)
(-0.000529536 -0.000899173 -0.0012487)
(-0.00100563 -0.00124292 -1.03154e-05)
(-0.00182493 -0.00166031 0.00181157)
(-0.00352919 -0.000418045 0.00418005)
(-0.00795155 0.00254727 0.00635389)
(-0.0129193 0.00402731 0.00889772)
(-0.0162454 0.00301275 0.0123692)
(-0.0158067 0.000567719 0.0158042)
(-0.0111939 -0.000743806 0.0171553)
(-0.00523495 -0.00330667 0.0167948)
(0.00387315 -0.0163115 0.00949659)
(0.00917026 -0.0126214 0.0124974)
(0.0127986 -0.007443 0.0127986)
(0.0147792 -0.00107953 0.0114958)
(0.0142345 0.00351157 0.00953857)
(0.0114564 0.00445234 0.00781441)
(0.00814787 0.00272141 0.00617534)
(0.00463114 0.000492017 0.00397765)
(0.00206622 -0.00067376 0.000827699)
(0.000480976 -0.000573634 -0.00188403)
(-0.00105435 -0.000806259 -0.00151128)
(-0.00242445 -0.000916468 0.0012476)
(-0.00491265 0.000366916 0.00414334)
(-0.00845192 0.00238097 0.00629641)
(-0.0119231 0.00371783 0.00804111)
(-0.0146883 0.00263013 0.00986887)
(-0.0151817 -0.0018026 0.0118786)
(-0.0131779 -0.00752894 0.0132897)
(-0.00936043 -0.0119443 0.013196)
(-0.00391594 -0.0150705 0.0103874)
(0.00305013 -0.0221176 0.00182916)
(0.00787172 -0.017584 0.00724982)
(0.00970309 -0.0113496 0.00970309)
(0.0107614 -0.0034642 0.0101356)
(0.0110562 0.00330701 0.00952668)
(0.00963996 0.00578576 0.00840784)
(0.00722198 0.00486706 0.00702503)
(0.00452124 0.00297179 0.00509842)
(0.00209418 0.00140591 0.00185564)
(0.000476167 0.000697175 -0.00174329)
(-0.000821354 0.00047672 -0.00100439)
(-0.00244128 0.00115003 0.00256443)
(-0.0047812 0.00271304 0.00520401)
(-0.00736123 0.00458299 0.00700474)
(-0.00979373 0.00536726 0.00846757)
(-0.0112192 0.00287991 0.00969043)
(-0.0110225 -0.00356818 0.0103985)
(-0.00992917 -0.0109743 0.0100612)
(-0.00794765 -0.0167384 0.00772749)
(-0.00311926 -0.0209024 0.00247471)
(0.00226488 -0.025778 -0.00321922)
(0.00743542 -0.0199133 0.0037755)
(0.00762495 -0.0131355 0.00762495)
(0.00751164 -0.00490692 0.00919002)
(0.00686576 0.00249318 0.00962297)
(0.00616772 0.00605415 0.00889576)
(0.00458943 0.00593297 0.00763929)
(0.0027287 0.00456168 0.00589814)
(0.000909071 0.00339194 0.00327891)
(0.000263578 0.00274547 0.000290262)
(0.00043478 0.0026347 0.00102113)
(-0.000701608 0.00305573 0.00391161)
(-0.00262417 0.00416933 0.00602672)
(-0.00449268 0.00551093 0.0076342)
(-0.00608163 0.00555044 0.0089189)
(-0.00683784 0.00191422 0.00968023)
(-0.00760647 -0.00521716 0.00929942)
(-0.0077154 -0.013015 0.00777465)
(-0.00744057 -0.0193737 0.00395636)
(-0.00234394 -0.0248476 -0.00292026)
(0.00109851 -0.0286439 -0.00618828)
(0.00699396 -0.0203712 0.00136863)
(0.00587693 -0.0129797 0.00587693)
(0.00515886 -0.00457728 0.00794806)
(0.0038141 0.00266812 0.00871347)
(0.00319856 0.00638518 0.00832938)
(0.00220386 0.00674695 0.00720042)
(0.00104659 0.00597302 0.00575649)
(1.15181e-05 0.00532548 0.00398674)
(3.52308e-05 0.00493942 0.00216291)
(0.000778077 0.00489008 0.00266512)
(0.000428414 0.00511027 0.00439343)
(-0.000736472 0.0056593 0.00593329)
(-0.00196817 0.00636364 0.00727286)
(-0.00300759 0.0059533 0.00839847)
(-0.00372732 0.00225642 0.00880044)
(-0.00520939 -0.0048132 0.00803885)
(-0.00596418 -0.0129099 0.00593986)
(-0.00700731 -0.0199553 0.00140321)
(-0.00120433 -0.0278604 -0.00608195)
(-0.000479716 -0.0299116 -0.0084979)
(0.00587409 -0.0194371 -0.00110116)
(0.00366537 -0.0116838 0.00366537)
(0.00302899 -0.00386219 0.00601574)
(0.00143987 0.00207263 0.00667039)
(0.000845769 0.00542149 0.00630392)
(0.00045972 0.00589608 0.00550049)
(7.01612e-05 0.00530644 0.00463208)
(-0.000219542 0.00471419 0.00367975)
(4.48058e-05 0.0044136 0.00262261)
(0.000726619 0.00435122 0.00289135)
(0.000727843 0.00449398 0.00392893)
(0.00031191 0.00495088 0.00479337)
(-0.000197246 0.00546967 0.00563308)
(-0.000662194 0.0049572 0.00644496)
(-0.00139009 0.00164172 0.00682732)
(-0.00309413 -0.00406516 0.00612458)
(-0.00378258 -0.0116728 0.00371464)
(-0.00591159 -0.0191395 -0.00108763)
(0.000365697 -0.0292857 -0.00845051)
(-0.00262433 -0.0284055 -0.0111365)
(0.00292341 -0.0175976 -0.00444822)
(-0.000222994 -0.00934091 -0.000222994)
(-0.000308362 -0.00107863 0.00186084)
(-0.00102508 0.00439366 0.00244197)
(-0.000907052 0.00693444 0.00205902)
(-0.000726552 0.00768459 0.00141105)
(-0.000477681 0.00788529 0.000958868)
(-0.000115382 0.00795069 0.00077145)
(0.000194107 0.00789112 0.000739405)
(0.000443389 0.00786039 0.000945241)
(0.000640387 0.00782475 0.00103432)
(0.000903691 0.00769442 0.00118865)
(0.00104367 0.00743182 0.00161277)
(0.00111413 0.00663788 0.00224646)
(0.00112528 0.00410784 0.00263147)
(0.000300895 -0.00131316 0.00199698)
(8.73129e-05 -0.00940649 -0.000123895)
(-0.00300047 -0.0174143 -0.00440108)
(0.0025121 -0.0279576 -0.0110893)
(-0.00614522 -0.0223101 -0.0149217)
(-0.00421445 -0.014369 -0.0102546)
(-0.00753264 -0.00847124 -0.00753264)
(-0.00716789 -0.0048447 -0.00648252)
(-0.00600897 -0.00246464 -0.00585721)
(-0.00398632 -0.00157999 -0.00524557)
(-0.00247458 -0.00192993 -0.00559285)
(-0.00123698 -0.00253676 -0.00579112)
(-0.000294565 -0.00271445 -0.00558188)
(8.54745e-05 -0.00140259 -0.00496152)
(0.000509541 -0.00139034 -0.00479099)
(0.00083874 -0.00274786 -0.00533477)
(0.00170164 -0.00266824 -0.0055465)
(0.0028389 -0.00215899 -0.00537335)
(0.00428544 -0.00188451 -0.00516233)
(0.00619469 -0.00277311 -0.00582897)
(0.00712724 -0.00506565 -0.00632251)
(0.00737377 -0.00854492 -0.00738605)
(0.0040495 -0.0142772 -0.0101694)
(0.00602072 -0.0220632 -0.0148536)
(-0.01304 -0.012095 -0.0213049)
(-0.0187068 -0.00555841 -0.0220747)
(-0.0245763 -0.00213709 -0.0245763)
(-0.02585 -0.000251337 -0.0274325)
(-0.0252496 0.00102459 -0.030337)
(-0.0232054 0.0020889 -0.033239)
(-0.0200744 0.00328023 -0.0358494)
(-0.0159166 0.00468277 -0.037906)
(-0.0104641 0.00630287 -0.0388398)
(-0.00513954 0.00811884 -0.0375329)
(0.00511937 0.00817338 -0.0373867)
(0.0104888 0.00638302 -0.0387023)
(0.0159647 0.00477699 -0.0377787)
(0.0201302 0.00337764 -0.0357421)
(0.0232147 0.00215938 -0.0331046)
(0.0251893 0.00107123 -0.0301959)
(0.0257221 -0.000225442 -0.0272973)
(0.0243838 -0.00211669 -0.0244337)
(0.0185215 -0.00551037 -0.0219516)
(0.0128895 -0.0119784 -0.0212035)
(0.00111275 0.00369048 7.59517e-05)
(0.00215504 0.00114448 0.00226804)
(0.002517 -0.000564959 0.00299795)
(0.00244188 -0.00236211 0.00244188)
(0.00198083 -0.00342691 0.00179311)
(0.00179721 -0.00306691 0.00203589)
(0.00199783 -0.0020874 0.00248957)
(0.00223874 -0.000919338 0.00264145)
(0.00164409 -0.00055616 0.00256784)
(0.000682352 -0.000570194 0.00214529)
(-0.000721372 -0.000500261 0.00201372)
(-0.00173516 -0.000463923 0.00227623)
(-0.00229322 -0.00101588 0.00233804)
(-0.00182474 -0.00235152 0.00230432)
(-0.00126218 -0.00342786 0.00188274)
(-0.00114359 -0.00393956 0.00148874)
(-0.00131655 -0.00347848 0.00183826)
(-0.00136826 -0.00221659 0.00213089)
(-0.00129696 -0.00100177 0.000232466)
(-0.000701402 0.00203299 -0.00267947)
(0.00499332 -0.00123269 0.0191548)
(0.00948184 0.000456244 0.0193328)
(0.012679 0.00218785 0.0167848)
(0.0128345 0.00363983 0.0128345)
(0.0102315 0.00368662 0.00900998)
(0.0064867 0.00170014 0.00628405)
(0.00359567 -0.00101486 0.00434708)
(0.00266142 -0.00161044 0.00270114)
(0.00195774 -0.00124103 0.00135279)
(0.000733873 -0.000926941 8.01591e-05)
(-0.000995421 -0.000940498 -6.49634e-07)
(-0.00182363 -0.00131882 0.00115587)
(-0.00236249 -0.0018216 0.00248077)
(-0.00322696 -0.00136778 0.00420971)
(-0.00614673 0.00122204 0.00620628)
(-0.00971796 0.00344587 0.00879214)
(-0.0122815 0.00394172 0.0124377)
(-0.0122609 0.00303191 0.0163447)
(-0.00921336 0.00192492 0.0190156)
(-0.00483716 0.000738464 0.0189202)
(0.00398738 -0.00744184 0.011093)
(0.00819573 -0.00462804 0.0143035)
(0.0114958 -0.00107953 0.0147792)
(0.0131909 0.00274611 0.0131909)
(0.0126281 0.00477332 0.0108383)
(0.0104053 0.00416513 0.00873552)
(0.0075675 0.00204666 0.00677516)
(0.00449557 -0.000110872 0.00445707)
(0.00238322 -0.000876989 0.00172684)
(0.000607065 -0.000604396 -0.00076677)
(-0.00147709 -0.00083503 -0.00042596)
(-0.00282781 -0.00112638 0.00201605)
(-0.00481197 -0.000221983 0.00457279)
(-0.00785633 0.00181433 0.00687476)
(-0.0107758 0.00357646 0.00894521)
(-0.01301 0.00391206 0.0111855)
(-0.0135145 0.00187348 0.0136069)
(-0.011751 -0.00177416 0.0153005)
(-0.00831126 -0.00499371 0.0151384)
(-0.00399155 -0.00736462 0.0122856)
(0.00373604 -0.0125363 0.00163277)
(0.00807137 -0.00764941 0.00756869)
(0.0101356 -0.0034642 0.0107614)
(0.0115611 0.00166883 0.0115611)
(0.0117311 0.00537901 0.0107315)
(0.0102939 0.00604351 0.00931938)
(0.00788939 0.00450939 0.00766525)
(0.00522949 0.00239852 0.00554056)
(0.00277396 0.000891124 0.00230267)
(0.000615191 0.000514699 -0.00112154)
(-0.00147942 0.000169721 -0.00043423)
(-0.00336884 0.000533569 0.00289646)
(-0.00564541 0.00217282 0.00567298)
(-0.00812847 0.00429499 0.00767549)
(-0.0104619 0.00568275 0.0093758)
(-0.0118527 0.00490221 0.0108817)
(-0.0116689 0.00133234 0.0118096)
(-0.0102142 -0.00349037 0.0111808)
(-0.00806411 -0.00734512 0.00824596)
(-0.00376677 -0.0117288 0.00256127)
(0.00275286 -0.01777 -0.00441966)
(0.00823578 -0.00952128 0.00280639)
(0.00919002 -0.00490692 0.00751164)
(0.0096979 0.000334326 0.0096979)
(0.00958775 0.00512606 0.0101559)
(0.00863712 0.00703248 0.00940848)
(0.00678433 0.00616811 0.00806293)
(0.00456164 0.00419499 0.0061039)
(0.00232761 0.00249714 0.00306491)
(0.000672438 0.00147561 -0.000518905)
(-0.000768943 0.001226 0.000305365)
(-0.00249996 0.00209778 0.00377274)
(-0.00473665 0.00378396 0.00630046)
(-0.00686626 0.00575478 0.00809976)
(-0.00864161 0.00652501 0.00944713)
(-0.00955249 0.00448304 0.0102355)
(-0.00967446 -0.000238843 0.00983234)
(-0.00915949 -0.00516675 0.00772921)
(-0.0081678 -0.00940588 0.00311019)
(-0.00284736 -0.0169737 -0.00402991)
(0.000997007 -0.0224502 -0.007756)
(0.00790381 -0.010235 -5.75734e-05)
(0.00794806 -0.00457728 0.00515886)
(0.00784143 0.000874555 0.00784143)
(0.00730313 0.00574573 0.00898347)
(0.00657609 0.00804621 0.00878442)
(0.00527225 0.00759898 0.00776977)
(0.00360535 0.00602157 0.00617946)
(0.00182344 0.00461039 0.00383441)
(0.000602629 0.00365248 0.0010524)
(-0.000241363 0.00351594 0.00162325)
(-0.00161598 0.00430313 0.00437394)
(-0.00349002 0.0056134 0.0064005)
(-0.00517257 0.00714214 0.0078728)
(-0.00646375 0.00753708 0.0088791)
(-0.00720908 0.00519367 0.00909691)
(-0.00781684 0.000440889 0.00796525)
(-0.00796443 -0.00477503 0.00528032)
(-0.0079026 -0.0101108 6.06383e-05)
(-0.0011635 -0.0217055 -0.00760067)
(-0.00112618 -0.025615 -0.010418)
(0.00660482 -0.0109852 -0.00246956)
(0.00601574 -0.00386219 0.00302899)
(0.00569725 0.00151146 0.00569725)
(0.00497578 0.00583909 0.00698896)
(0.00456818 0.00793046 0.00714046)
(0.00396884 0.00748943 0.0065972)
(0.00305578 0.00596269 0.00569545)
(0.00187202 0.00448994 0.0044113)
(0.000828439 0.00343441 0.00280999)
(-0.000206521 0.00330121 0.00310694)
(-0.00142408 0.00415209 0.00477229)
(-0.00274837 0.00550083 0.00592218)
(-0.00375706 0.00696495 0.00677033)
(-0.00441008 0.00736749 0.00731634)
(-0.00489945 0.00526228 0.00717962)
(-0.00573984 0.00107204 0.00587665)
(-0.00608703 -0.00403457 0.00314208)
(-0.00668835 -0.0108723 -0.00237373)
(0.00094321 -0.0250057 -0.0103283)
(-0.00365917 -0.0259958 -0.013342)
(0.00315928 -0.0115543 -0.00577656)
(0.00186084 -0.00107863 -0.000308362)
(0.00245484 0.00481703 0.00245484)
(0.00218055 0.00774596 0.00374358)
(0.00251554 0.00904205 0.00401373)
(0.00273774 0.00890606 0.00378501)
(0.00264069 0.00838647 0.00342403)
(0.00219951 0.00801243 0.00304388)
(0.00123981 0.00772597 0.00254986)
(-0.000518243 0.00767363 0.00273308)
(-0.00161905 0.00787255 0.00329974)
(-0.00217669 0.00816298 0.00365326)
(-0.00241328 0.00858959 0.00400333)
(-0.00231675 0.00869738 0.00425186)
(-0.00211372 0.0073996 0.00400801)
(-0.00250523 0.00451545 0.00269413)
(-0.00194184 -0.00137289 -0.000201479)
(-0.0033355 -0.0114802 -0.00565682)
(0.00349114 -0.0255678 -0.0132598)
(-0.00745014 -0.0214774 -0.0171321)
(-0.00471081 -0.011937 -0.0116441)
(-0.00648252 -0.0048447 -0.00716789)
(-0.00422819 -0.000332795 -0.00422819)
(-0.00338837 0.00176673 -0.00364518)
(-0.00148561 0.00181431 -0.00346867)
(0.000104912 0.000674438 -0.00375642)
(0.000977262 -0.000480436 -0.00411245)
(0.00126686 -0.00100547 -0.00413238)
(0.000800393 0.000212257 -0.00370855)
(-8.49324e-05 0.000206637 -0.00353368)
(-0.000653355 -0.00108109 -0.00394048)
(-0.000449564 -0.000615808 -0.00396164)
(0.000328119 0.000467027 -0.00363399)
(0.00175515 0.00151166 -0.00334881)
(0.0034585 0.00142771 -0.00346257)
(0.00410373 -0.000697304 -0.00397755)
(0.00630979 -0.00504274 -0.00703242)
(0.00447912 -0.0119184 -0.0115612)
(0.00729203 -0.0212524 -0.0170379)
(-0.0151798 -0.0113933 -0.0232948)
(-0.0214849 -0.00398065 -0.0238341)
(-0.0274325 -0.000251337 -0.02585)
(-0.0280874 0.0017643 -0.0280874)
(-0.02696 0.00313737 -0.0306229)
(-0.0248974 0.00434724 -0.033765)
(-0.0220307 0.0057993 -0.0371846)
(-0.0180179 0.00758477 -0.0402509)
(-0.0123382 0.00966987 -0.0421509)
(-0.00622602 0.0120389 -0.0415758)
(0.00624212 0.0121003 -0.0414491)
(0.0124007 0.00975254 -0.0420436)
(0.0181041 0.00767387 -0.0401611)
(0.0221173 0.00589172 -0.0371133)
(0.0249609 0.00442284 -0.033718)
(0.0269646 0.00318656 -0.0305863)
(0.0280272 0.00178897 -0.0280475)
(0.0272438 -0.000236787 -0.0257397)
(0.0212699 -0.00393583 -0.0237121)
(0.0150002 -0.0112857 -0.0231791)
(7.94542e-05 5.09984e-05 -0.00151229)
(0.000473232 -0.00179341 0.000831114)
(0.00136984 -0.00277869 0.0018846)
(0.00179311 -0.00342691 0.00198083)
(0.00215651 -0.00328206 0.00215651)
(0.00255098 -0.00271306 0.00280554)
(0.0030711 -0.00169303 0.00358355)
(0.00320702 -0.000745206 0.00409478)
(0.00239729 -0.000497227 0.00438594)
(0.00108128 -0.000536002 0.00430828)
(-0.00108403 -0.000465956 0.00415611)
(-0.00249913 -0.000451938 0.00409353)
(-0.00325976 -0.000902384 0.00381738)
(-0.00295219 -0.00197546 0.00345025)
(-0.00219265 -0.00300999 0.00277411)
(-0.00153518 -0.00364985 0.00204606)
(-0.00102203 -0.00392956 0.00179281)
(-0.000441814 -0.00373206 0.00145413)