/*--------------------------------*- C++ -*----------------------------------*\
  =========                 |
  \\      /  F ield         | OpenFOAM: The Open Source CFD Toolbox
   \\    /   O peration     | Website:  https://openfoam.org
    \\  /    A nd           | Version:  9
     \\/     M anipulation  |
\*---------------------------------------------------------------------------*/
FoamFile
{
    format      ascii;
    class       volScalarField;
    location    "40";
    object      p;
}
// * * * * * * * * * * * * * * * * * * * * * * * * * * * * * * * * * * * * * //

dimensions      [0 2 -2 0 0 0 0];

internalField   nonuniform List<scalar> 
112055
(
0.0187223
0.00406637
-0.00622203
-0.00896753
-0.000622052
0.00742615
0.0181102
-0.00877549
-0.00300426
0.0182387
0.00410228
0.0172121
-0.00270939
0.0172065
0.0282563
-0.000235999
-0.0612975
0.0222479
0.00408549
-0.00354642
-0.000128233
0.000125928
0.00410426
-0.00110826
0.000862509
-0.00228718
0.0407085
0.00559808
0.00738419
-0.000122748
0.00857169
-0.0170031
-0.000567469
-0.0521895
-0.00303905
-0.000464058
-0.00361709
0.0634579
-0.0115847
-5.96939e-05
-0.000782154
-0.0106681
-0.000377391
-0.00612057
0.0227935
-0.00216786
-0.0518852
0.0013605
0.000314052
-0.0104479
-0.00854889
-0.0183505
1.83854e-05
-0.0113593
-0.00408076
0.0182397
0.000594745
0.00186023
-0.0120763
-0.00219722
0.0148443
0.00135116
-1.35533e-05
-1.4219e-05
0.0113819
-0.00359695
0.0659513
5.50425e-05
0.00222174
-0.0013998
0.00179511
-0.0621357
-0.00098804
0.0373281
-0.0416778
-0.0390315
0.00383384
0.0185739
-0.0153363
-0.0110674
0.000152299
-0.0424884
-0.00840499
-0.0024206
-0.000227778
0.00150829
-0.00552854
-0.00404409
-0.0230652
-0.00398833
-0.000119084
-0.000472867
-0.00588136
-0.000631822
-0.0410543
0.00379487
-0.0164527
0.027911
0.00856821
0.000598947
-0.00267821
-0.000423557
-0.000435658
0.00499495
-0.0431813
-0.0603618
0.0113678
1.73301e-05
-0.000290881
0.0014891
-0.061934
-0.0327215
-0.00363266
0.00629432
0.00223377
0.0212365
0.0113879
-0.000379327
-0.0225793
-0.00312683
0.0059592
0.00561022
0.018186
6.29249e-05
-0.000778387
0.00490856
-0.0607587
8.47681e-05
-0.00412663
-0.0424561
5.93788e-05
0.0404167
4.90987e-05
0.0526585
-0.011879
-5.97401e-05
-0.000449503
0.00146943
-0.00562647
0.000993322
0.0013836
0.00256938
-0.0160522
0.01105
1.89448e-05
-0.00369869
0.0202762
2.54546e-05
-0.000388721
0.000299194
-0.0611056
0.000110797
0.0158473
8.88163e-06
-0.00558641
0.00649489
0.00936807
0.00637669
-0.0113724
-0.00450593
-0.0036096
1.36448e-05
-0.00270072
-0.00364894
-0.00101978
-0.000972723
0.00946473
-0.0173492
-0.00116432
0.011415
0.00814367
0.0064699
-0.00270598
0.010869
-0.0170591
-0.00316052
0.000277227
-0.00396283
-0.00547352
0.000593142
-0.0168224
-0.000299185
-3.51912e-06
0.0086004
-0.0133728
0.0159081
1.48249e-05
-0.00103457
-0.0165302
-0.00177875
0.00159327
-0.000556028
-0.0039362
0.00598365
-0.00522042
-9.75239e-06
-0.0139265
-0.0329432
-0.00031529
0.00932994
0.0626607
0.0128199
0.0149446
1.79467e-05
0.000139423
0.0209796
0.0659188
0.0100833
-0.0607515
-0.0004449
0.000362925
-0.000705341
0.0198819
-0.000451373
-0.0161294
0.0102128
0.00824832
-0.00659398
-0.00207024
-0.00934309
-4.08033e-05
-0.0226845
-0.00357477
-0.0047342
-0.0346387
-0.00118805
-0.000412537
0.00916265
0.00347848
-0.00060051
-0.000456635
-0.00211116
-0.0132248
0.00466537
-0.0248999
0.0011894
-1.12849e-05
-0.000465307
-0.0687104
0.0985909
1.86858e-05
-0.0114772
-0.00219685
1.98821e-05
-0.00138632
-0.02482
-0.0127047
-0.0111731
0.000100036
-0.00915884
-0.00208535
-0.000315481
-0.0483219
-0.00270928
-0.0136248
0.000327468
0.00155612
-0.00417035
-0.0337079
-0.000442443
-0.0349604
0.0211237
-0.00103221
0.0162873
0.0529717
-0.00169009
0.000131131
-0.00390294
0.0133819
5.61199e-05
-0.00209125
-0.0069952
-0.000291814
-0.0173498
-0.00191289
0.00289854
-0.041353
-0.0646732
-0.0637951
-0.0479487
-0.000285621
0.00427581
0.012546
0.00773492
0.00541228
-0.00565288
0.00520623
-0.000607515
6.39748e-05
0.0136703
-0.00264325
-5.08093e-05
0.00522998
-0.00165749
0.00470145
0.00539048
0.0104001
-0.00309394
-0.00104935
-0.0001131
0.00452457
0.00860818
0.00900854
0.00501474
-0.00913527
4.51965e-05
9.33989e-06
-0.00371056
-0.00187709
-3.88575e-05
-0.00358484
0.00246098
-0.000456432
0.000374754
-0.014185
-0.0232553
-0.0116897
0.00116159
-0.001626
-0.00103439
-0.00139388
0.0537282
0.0297601
-0.00306092
-0.0123033
-0.00707294
0.00216348
-0.000309709
0.00432587
-0.00043883
0.0034589
0.000212652
0.0112166
-0.0075389
-0.00951643
1.56807e-06
-0.00058268
0.000995721
0.00256451
-0.0248382
0.0626416
-0.0602575
0.000812902
6.36059e-06
2.27907e-05
-0.0113582
2.50855e-05
-0.0118641
0.0113336
0.000138618
0.0259746
0.0146755
0.0165763
-0.0502702
-0.00433168
-0.00434298
0.0371
0.000641227
-0.000533155
0.0170824
-0.0436531
-0.000533658
-0.00940107
0.107769
0.000102055
-0.0686194
-0.0254069
-0.00731814
0.00442576
-0.00404833
0.0226235
0.0230631
0.0103579
0.0160609
0.140097
-2.15728e-05
-2.04654e-05
-0.00547585
-0.00551334
-0.00211525
-0.000471907
0.00745694
0.0170977
0.000164806
-0.00383749
-2.00783e-05
-1.88889e-05
-0.0063151
0.0123512
0.0223755
0.00314797
0.0001593
0.00102426
-0.0260214
0.0369608
-0.00275834
0.00151334
-0.00949498
-0.00659104
0.00107604
0.0204196
0.00385264
-0.0179572
0.0163589
0.000102153
-0.0327629
-0.00840772
-0.00145965
-0.00379474
0.00300665
-0.00752178
-7.9999e-06
-0.00197533
-8.03215e-06
-1.38671e-05
-0.0107056
0.0063281
-0.0139238
-0.00214836
0.00643023
0.0302229
-0.00355125
0.000798031
0.00663187
0.00519673
-0.0106145
0.010058
2.09384e-05
-0.0117003
-0.00861314
-0.00195971
0.0102128
-0.00468224
-0.0133953
-0.0115508
0.0256482
-0.000138332
-0.01203
0.0979126
0.0252688
-0.0103936
0.000912281
0.00636089
-0.00791423
0.00369786
-7.76637e-07
0.0366348
0.0248949
0.000267735
-0.00921257
0.000848251
0.00589639
-0.00354357
0.00768159
-0.00698194
-0.0628039
5.52187e-06
1.63675e-05
0.0090793
-3.51585e-05
-0.00360554
-0.00350695
-5.18131e-05
0.0029303
-0.0111204
6.8935e-07
-0.000159142
0.01636
0.00521399
-0.000207323
0.00748872
-0.000704519
-0.00463356
-0.0128146
0.00745485
-0.0083801
-0.00180242
-4.076e-05
-0.00265128
0.000425457
-0.0504736
-0.0726156
0.000170254
-0.0156996
-0.000991518
-0.0326225
0.0130351
2.40814e-05
-0.00214405
-0.00176486
-1.60711e-05
-0.0401472
-0.00919468
-1.85528e-06
0.0098262
-0.00388748
0.00715306
2.20685e-05
-0.00162094
0.000102098
5.24734e-05
0.000103783
-0.003869
0.0103214
-4.77997e-07
0.00524329
-0.00141602
-0.0496795
-5.09825e-05
-0.000155114
-0.00837752
0.0228677
-0.00946529
0.0029534
0.0660978
-3.35367e-05
-2.20257e-05
-1.35053e-05
-0.00818503
-0.0120603
0.00786668
0.000602159
-0.000598483
-0.00371472
0.00319064
-0.00322127
-5.89522e-07
0.0666232
-0.00266989
-4.86674e-05
0.00594926
-0.00548933
-0.0606109
0.0525513
-0.000207469
0.0136496
-0.00969446
-0.0804405
-0.00415875
-2.05448e-05
-0.000137803
-2.60129e-05
-0.0781494
0.02604
-0.0140212
-0.00960715
-0.0143042
0.00331567
0.00636298
-0.000695213
0.0261086
0.0055681
0.00926732
-0.0252902
0.00716092
4.59506e-06
-0.0194377
-0.00139345
3.52779e-06
-0.0113591
-0.0457548
-0.0007296
0.000160784
0.000103476
0.10563
-0.00371961
-0.0053318
-0.0647973
-0.000995838
-0.0635331
-0.00847604
0.00764974
-0.000442041
-0.0461589
1.71638e-05
0.00425471
0.00594568
-0.0131217
0.00954791
-0.0306676
-0.00217869
-7.42775e-07
0.0127278
0.00482197
0.00871267
-4.13864e-06
0.00787213
0.00308026
0.00619484
1.87217e-05
0.0058869
0.000166809
-4.75563e-05
0.000151796
-0.00199278
0.00659628
0.0033147
-0.00242652
0.00550426
-0.00519618
-6.70446e-05
-0.0133223
0.00284089
0.00536625
-0.00265109
0.00317189
-0.00345061
0.00821504
0.0114096
-7.70752e-05
-0.00397287
0.0111672
0.000510875
-0.00605038
0.0509597
0.00559537
-4.69897e-06
-0.000526648
-0.0132343
0.00372222
-0.0281608
0.00903764
0.00503568
0.000571784
0.00528685
-0.0488592
-0.00307049
-0.0100039
-0.00396888
-0.00717037
-0.00128063
-0.0621901
-4.83197e-05
-0.0597218
0.00142722
-0.000209154
-0.000166005
0.00153385
0.000139033
0.00484198
-0.000431618
0.000126085
-0.00345986
-0.00530767
0.00175472
0.0239926
0.0752515
0.00807904
-0.0457504
-0.00610417
-0.0723359
-0.00414842
-1.87335e-06
0.0194772
-2.54587e-06
0.000165193
0.0101616
0.0146803
-0.00559801
-0.0137164
0.00985309
0.00817397
1.98624e-05
0.0180859
-4.35806e-06
-0.00281635
-0.0287377
-0.0456927
-7.96414e-05
0.00554778
-0.0122736
-0.024806
-0.0103069
0.0176205
-0.00246907
4.50465e-05
0.0052921
0.0192329
0.0787875
-0.000162021
-7.58811e-05
-0.00428944
-0.00125739
-0.0409429
-0.00377719
0.0128481
-0.00643613
-6.44103e-05
-0.0488124
-0.00935842
6.9592e-05
0.00737463
0.00422725
0.00747768
0.0238712
0.0182317
0.0224398
0.0129359
8.92339e-05
0.00260959
-0.00400498
7.63958e-05
0.00787399
5.64627e-05
-0.00282212
0.00412077
-0.00347487
-0.000682954
0.130203
7.01616e-05
0.00880883
-0.00259197
-0.00126209
-0.0072503
0.000163773
0.00205325
0.0128298
0.000121119
0.00443687
-0.001056
-0.00358176
-0.00362137
-0.000743256
-0.0152308
-4.0992e-05
0.00989357
0.0126086
0.0152979
0.000126056
0.000703166
-0.00205305
0.0149515
-0.061069
-0.00354781
0.00640626
-0.000436626
0.0494392
-0.00678313
-0.00160119
0.00157878
-0.012998
3.60476e-07
-0.0108771
0.00729389
-0.0674452
0.000718783
-0.0129485
0.011039
0.00374873
0.00521515
-7.92352e-05
-0.000856953
-5.17453e-05
-0.012542
-0.00115521
0.010884
0.00635229
-8.03376e-05
0.016557
3.58707e-05
-5.38956e-05
-0.00295648
-0.0133236
-0.0302391
0.0390609
0.0650482
0.00626229
-0.0027343
-9.61538e-05
6.65338e-06
-0.000846402
-0.00668765
0.00013279
-0.000311024
-0.000310584
0.0053421
-0.0620654
-0.00214395
-2.58693e-05
0.014487
-0.0124952
0.0175604
5.03996e-06
-0.00245719
-0.0746473
1.55085e-05
-6.78308e-05
-0.000419848
-0.00355989
-0.0122147
-0.00214357
-0.00410235
-0.000438662
-0.0366179
-0.00446168
0.000840599
-0.0420947
-0.00377874
0.00459135
-6.84125e-05
-0.00365885
0.0146848
-0.00350337
-0.0099408
-0.101717
-9.72979e-05
-0.0136022
-0.00707279
0.000782755
-0.000200111
-0.0263432
-0.00203208
-0.0102262
0.0130619
-0.00418018
-0.0167939
-1.0919e-05
0.00824162
-0.000259261
-0.00441305
-0.0029647
0.00649819
8.70555e-05
0.00832805
-0.00166135
-0.0115944
0.015677
-0.00843374
-0.0149653
-2.12781e-05
-0.000257192
0.0154134
0.0178936
-0.0017445
0.129153
0.00499567
9.88321e-05
0.0053821
0.0108821
-0.00839061
-0.00176141
0.138898
0.0141857
-0.00362026
-0.000451363
-0.000294364
-0.0394851
-0.00343893
0.00829955
-0.000224548
-0.00410292
0.00082154
0.0389326
-0.000223457
-0.0166934
4.22663e-05
0.0181299
2.26757e-05
0.00771593
4.41456e-05
0.0788885
-3.1644e-05
-0.0029999
-0.0359809
-0.0081885
0.000106777
0.00537227
0.00844581
-0.04037
-0.00238774
0.00104267
0.00700279
0.0145227
-0.0704464
-0.0265281
0.00531014
0.00766408
0.000482844
-0.0156242
0.00447739
-0.00105253
-0.000417451
-3.77569e-05
-0.00166189
-2.84794e-06
-0.00305802
0.000114889
0.0130909
-6.84795e-05
0.00347604
0.000714213
0.00519792
-0.00364839
-0.0136172
-0.0411882
1.80461e-05
-0.00652562
0.0859608
0.00065839
-0.0621539
-0.00766266
0.0037007
-0.0111634
-7.80495e-05
-0.0142582
-0.0404234
5.08306e-05
0.00418384
-0.00785186
0.00399963
0.0176485
-0.00471578
0.00201707
0.0034174
-0.0620803
0.0124437
-0.00105805
-0.00451546
3.04611e-05
-0.000886387
-0.000739974
-3.68519e-05
-0.00123514
-0.00522259
0.00115363
0.00464216
-1.39545e-06
0.0085483
4.27383e-05
-0.000232982
1.41313e-06
0.000845636
-0.00308349
-2.37867e-05
-0.0072624
4.61916e-05
-0.00812146
-0.000881297
0.00853583
-0.000206807
0.0136999
0.00996882
-0.000172186
0.00232113
-0.0337043
-0.000181129
-0.000484906
0.000621047
-0.0137806
0.0190048
-0.0516437
0.00599124
-0.00030318
0.0017828
-0.00623728
0.0213716
-0.00107426
-0.00354833
0.000455679
-0.032431
-0.000237407
-0.00303762
-0.00401339
-0.00206456
-0.00536495
-0.00536298
-0.0382918
-0.000185353
-0.0801424
-0.000232932
0.0072655
-0.00698828
0.00519251
-0.0135311
-0.00896355
-0.00418678
-0.0381331
0.0349873
-0.00320894
0.0177924
0.00309859
-7.07367e-05
-0.000668683
-0.0227122
0.00878497
0.00424142
-0.000296051
-0.0156539
0.00243292
-0.000535662
0.00026046
0.0171942
-0.000659738
-0.00840435
0.00906965
0.00569259
-0.00252727
0.0111295
-0.00262048
0.00870841
-0.00381986
-0.00465392
-0.00968699
-0.00499731
-0.0062726
0.0404509
-0.00746854
0.0026133
0.00240894
-0.00248809
-0.0602152
0.00086087
-7.71361e-06
-0.00119447
-0.0298942
0.00485163
0.00681072
0.00842858
-0.00139374
0.00568773
0.00316062
-0.0452339
0.000541615
0.000152311
-0.00515525
0.000833985
-0.000589047
0.00419471
-0.000156983
1.5293e-05
0.0223683
-0.0051321
-0.00674937
-0.00368804
-0.00017222
0.0645971
0.0057339
0.00164823
-0.00314943
0.00264067
0.00584453
0.0154985
-0.000183322
-0.0449923
0.00728005
-0.00382525
2.24737e-05
0.00529864
8.9906e-05
-0.0459224
2.28899e-05
-0.0211013
-6.48673e-05
-0.000189055
0.00561876
-0.0186938
-6.25227e-05
8.44129e-05
8.38289e-05
-0.00195814
0.0043438
0.0226219
-0.003832
0.0767793
-0.030292
-0.00652072
-0.0107646
-0.0395532
-0.000229604
0.0156249
0.00867127
0.0103174
-0.0189413
-1.74835e-05
-0.0732653
-0.00187782
-0.00626721
-0.0568791
-0.00289179
0.00909041
-0.00220252
2.1305e-05
-2.32503e-05
0.00421796
-0.00783686
-0.00380878
-0.00251806
-2.56246e-05
-0.0037301
-0.000208598
-0.0159177
-0.00792026
-0.00279807
2.2529e-05
8.71019e-06
-0.000230878
7.49003e-05
0.0497137
-1.46101e-05
0.00881319
-0.0314347
-0.00130541
0.00518698
-1.46619e-05
-0.00131512
0.00170969
-0.0120239
-0.00231088
-0.00022683
-0.000226552
-0.0188469
-0.0105434
-4.12674e-05
-0.000241356
3.63843e-07
0.000753195
0.0202017
0.0039661
-0.000325603
-0.000946028
0.00514658
-0.00284685
0.0724737
-0.00407165
-0.00342885
0.111808
0.00426229
-0.0550686
0.0101804
0.00089328
0.00591987
-0.00429349
-0.0010488
0.0136252
0.0278159
-0.0210367
-0.000294429
0.0798908
0.000204843
-0.0393788
-0.0398148
-0.00742939
-0.00370831
-0.015714
0.000168552
0.000204356
-0.00245762
-0.0005237
2.2206e-05
0.015523
-9.83615e-06
0.00909041
0.000136253
-0.00532394
-0.0215247
-0.00571028
0.00088597
-9.84272e-05
0.0148848
-0.0097875
-0.00381386
0.0157369
0.0068611
-0.00126366
-0.000227194
-9.39726e-05
-0.0200056
-0.00978747
0.00791883
0.00603495
0.0242628
-0.000139985
0.00324571
-0.00399391
-0.00350994
-0.0181972
1.76454e-06
0.0299911
0.00446813
-0.00341075
0.0351075
-0.000443028
-0.077424
0.0179439
-7.34809e-05
0.00486326
0.000530457
0.110116
-0.00160756
-0.0630445
-0.000129404
9.29958e-05
-0.00072978
-0.000274493
-0.00549671
3.97904e-05
-0.0116077
-0.0407748
-0.0178643
-0.00849319
-0.000118211
-0.0321356
-0.0449104
-0.0646016
-0.000535078
0.0904572
-0.0665076
-0.00365646
0.00498059
0.00166233
1.05064e-05
4.1389e-05
-0.00227765
-0.000401939
-0.000904371
-0.000300015
0.00911706
-0.0397493
-0.00504539
-0.000736067
-0.0465672
-0.0398716
0.00788079
0.000496172
-0.00167628
-0.00428988
0.0056674
-0.00373431
0.00521636
0.0116719
-0.0137533
0.0568775
0.000725673
0.0301014
-0.0289569
-0.00186986
0.00653268
-0.000159541
-9.3059e-05
0.0134227
-0.0145875
-0.00344404
0.0148493
-0.00180589
-8.61922e-05
-0.00599339
-0.00547117
-0.0640221
-0.0118881
0.00926773
-0.000537372
-0.00915667
0.00106364
0.0738626
-0.0448013
0.00857098
-0.00189551
0.00113701
0.0421982
-0.00151225
-0.00489039
-8.52416e-05
0.00369334
-0.00481057
-0.00310725
0.0065087
-0.0180574
-0.00150278
-0.00338506
-2.03737e-05
-4.50017e-05
0.00749117
-0.00266019
0.000388112
0.00662578
0.00317459
-0.0154395
-0.0074123
0.00552952
0.0647278
0.0158622
-0.000538813
-0.00396727
0.00287944
0.0092683
-0.00319589
0.000954811
0.0123115
-0.000715124
0.0561234
-0.0563116
-1.70116e-05
-0.00636282
0.00720197
-0.00692719
-0.033572
-0.00823216
-0.00167776
-0.00222348
-0.0552986
0.0085496
-0.00308141
0.09062
-0.000462379
-0.00322078
0.0073286
0.00486446
0.00562102
-0.000634622
-0.00334197
0.00990364
-0.00110288
-0.0407892
-0.0572595
-0.019697
-0.00246207
-0.00717915
-0.00328773
-0.00154193
-0.00195079
-0.005188
-0.0030285
-0.00398094
0.00928604
0.0155566
-0.00888616
-0.0134873
-0.00293507
0.000160599
0.00342538
-0.000354985
0.000373645
7.05725e-05
-0.00765287
-0.0388799
0.00690491
-0.0556902
0.00098946
6.79031e-05
0.0109247
-9.383e-05
-0.0241192
-0.00109695
0.00848614
-0.000444782
0.00185516
-0.00706959
1.91863e-06
0.0568027
0.000137743
-0.0116238
-0.000181922
0.000160823
-0.00616926
-0.0084115
0.00664397
0.00313796
0.0468451
0.00189016
0.00963848
-0.00382745
-0.0138857
-0.00698563
-0.00383594
-5.3772e-05
0.000125075
-0.0159844
-5.23373e-06
-0.00215066
0.00917361
-0.019211
-0.0643651
2.1758e-05
3.58101e-05
0.00227248
0.00727571
0.00245807
0.0240035
-0.0031868
-7.64681e-06
-0.00795985
0.0049024
0.00300265
0.00732437
-0.0233951
-0.0218717
-0.00367338
-0.0620084
-0.00330966
0.0107703
0.000104805
-1.65657e-05
-1.86713e-05
0.00717293
0.0239417
2.23513e-05
-0.0402163
0.0596352
0.000377486
-0.0198457
0.00013095
0.00872382
-0.0448699
-0.0292782
-0.00742479
-0.00923924
-0.0134348
0.00627255
0.00437485
-0.0622378
-0.00629426
0.0252639
0.0105785
-6.15111e-05
0.0130518
-0.0158081
-0.00280422
0.0048074
-0.0149858
0.00180169
-0.00330409
-0.000409815
-0.00310656
-0.0312323
-0.000849009
-0.0618093
-0.0562719
-0.000194639
7.24747e-05
-0.0236198
0.0114572
-0.00243347
-0.0029723
-0.0357957
0.013725
7.0555e-05
0.00297263
0.0843007
0.00437096
-0.0193573
-0.014987
0.00892677
-0.00125358
-0.0647736
-0.00218872
0.00215658
-0.0811954
0.109794
0.00195155
0.00722175
-0.0217549
-0.0029595
0.00929185
0.000234704
-0.00414906
-0.00350416
2.24473e-05
0.0156958
0.0983253
0.00733064
-0.00290376
-0.00115843
-0.00176964
-0.00269772
-0.00221258
0.046126
-2.11246e-06
0.0491474
-0.000401855
-0.00385977
-0.0403501
-0.00491473
-0.00942778
0.000334705
-0.00378738
-0.000305139
0.00900457
-0.000295699
-5.95141e-05
0.00144762
-0.00015217
0.0451549
0.00376924
0.0156601
-0.0466305
-5.87855e-05
0.00693261
-0.0705107
0.00199375
0.00818924
-2.31026e-05
0.0221129
0.0346229
-0.049208
-0.00877808
-0.0033768
-0.00381155
-0.0114084
-0.000750991
-0.00663492
0.0102052
-0.00566324
-0.00813772
0.0361513
-0.00610133
-0.00368226
0.013943
-0.101962
0.00386185
-0.00149694
0.00776247
-0.000411292
0.0068939
-0.00145137
-0.000303896
0.00682091
-0.00127616
-0.00416964
0.0109678
0.000309998
-0.0033085
-0.00278194
0.000523836
0.00464357
0.00605576
6.82946e-05
-0.0120015
-0.00482314
-0.018635
-0.00134075
0.00195107
-1.0135e-07
-0.00040481
0.124724
0.000183376
0.00531494
-0.00709895
-0.0622157
0.00520573
-0.000184211
0.000523177
0.00860727
5.5726e-05
0.0167644
-0.0610161
0.00108649
0.00960304
0.0482866
-3.5564e-06
0.0104301
-0.000597115
0.0054029
-0.000503311
-0.0154055
-0.0018658
-6.51869e-05
-0.016993
0.00743735
0.00603614
0.0125122
-0.000180501
-0.00222385
-0.00103978
-4.79307e-05
0.00836984
-0.000845968
-0.000232798
-0.0134604
-0.000320825
0.00017861
-0.00029901
-0.049472
-0.000199295
0.00547775
0.00757471
-0.0126143
0.00854258
0.00452028
0.00520804
-0.0100848
7.17589e-05
-7.41969e-06
0.006232
-0.00202027
-0.00703334
-0.00065749
-0.0642279
0.00239984
0.00858325
0.0176551
-0.00940231
-0.00683528
-0.00736181
-0.00252805
0.00261435
0.00729553
0.00828904
-7.94071e-05
0.0320722
0.0067344
0.000300812
-0.00108266
0.0227387
-0.00166935
0.00786185
-0.000266716
3.61266e-05
-0.0197646
-0.0468387
-0.00370527
0.00545951
0.0276394
0.0652188
0.0104763
0.00365825
-0.0257227
-0.00377115
-1.22126e-05
-0.00432518
0.000142604
-8.57573e-05
-0.000117071
0.0081518
-0.000226041
0.00150126
0.000866419
-0.00109284
-1.9746e-05
-0.0638882
-0.0595415
0.000120542
-9.06239e-05
-0.0278169
-0.000725826
0.0170796
-0.00526173
0.0134735
0.00586715
-0.00112661
-0.0108269
0.0015758
-0.000244373
-0.000697966
-0.00289074
3.10865e-06
-0.00374342
0.00736465
0.0130181
-0.0624717
-0.00743255
0.000171563
-0.000901648
-0.000245279
-0.000226002
-4.46113e-05
-0.000929643
-0.044695
-0.0259926
2.49748e-06
1.3592e-05
-0.0261866
7.55962e-05
0.00426781
-0.0050984
-0.00417256
0.00179093
0.0104491
0.00705485
-0.00951259
0.0066457
-0.00141289
-0.00305528
-0.000516436
-0.000438056
0.0205414
-0.0620987
-0.0647906
0.0354554
0.00244697
0.00556529
-0.000188309
0.0222628
-0.00757174
0.00803014
-0.0496878
0.00634967
-0.0767222
-0.00244197
-0.0253998
0.00063662
0.000688189
-0.0104678
0.0464079
-0.0608195
-3.2875e-05
-0.00585051
-0.00251445
-0.0234372
-0.00279509
0.00795972
-0.00023134
0.00477964
0.00771229
-0.00160232
-0.00120861
-0.0379082
-0.0151531
0.00635942
-0.00245036
-0.00056467
-0.069776
0.00481958
-0.00119659
-3.01342e-06
-1.44019e-06
-0.00384023
0.00803895
5.32502e-06
0.0171194
0.00757379
-4.34885e-05
-0.000313318
-0.0149076
-0.066156
0.00458399
0.00896534
-3.51571e-05
6.33604e-05
0.00603135
-0.00149883
-0.00868434
0.0416641
-0.000192256
-1.38745e-06
0.00986785
0.0015512
-0.0281507
-0.0632122
0.00728819
-0.0443728
-0.000409688
-0.0233696
-0.00524997
-0.00304261
-0.00151486
0.0101131
4.84864e-07
-0.0112748
-0.00983548
-0.00370854
-0.0638365
0.0085594
0.00521437
-0.0244073
0.00422529
0.000383243
-0.0110165
0.00583094
-0.00382703
-2.60321e-05
0.0113077
0.00313598
-0.000410906
-0.00314568
0.00910196
-0.0036917
-0.00939242
0.000483356
-0.00114334
-0.0152806
0.00481454
1.46259e-06
0.00112308
-0.00268454
0.00541503
-5.73972e-05
0.0106728
-0.000514659
0.0106204
-0.00270737
0.000375289
0.00525351
0.00970798
-0.00367219
-0.0112052
-0.00292446
-0.00351988
0.0102611
-0.0401996
-8.34129e-05
-0.0474786
-0.00265641
-0.00648107
-0.00400409
-0.0117632
-0.00631461
0.00178464
0.00018026
0.00527168
-0.0208227
-0.000236066
-0.000228755
-0.023498
0.00111015
-0.00388611
-0.00592934
0.00552996
-0.00951766
-0.0179609
0.00909301
-0.00402287
0.00849348
-0.00418398
0.0261432
-0.00470921
0.000886698
6.5156e-05
-0.000345145
0.000202589
-0.00325401
1.0802e-05
-0.000756177
0.00645773
0.00519935
0.00746099
0.0109625
-0.00253239
0.0147705
0.0038849
-0.0600375
5.30924e-05
-1.07601e-05
-0.0516933
0.0057237
-0.0479621
0.00379729
-0.00793996
9.78161e-06
0.00685835
-0.0158088
-0.00198835
-0.0110804
-0.00140178
-0.000463444
4.6239e-05
0.00381272
-0.00658326
-2.15701e-06
-0.00124542
0.00582358
-0.00341371
0.00839649
-1.1638e-06
0.00740139
-0.0551878
0.0557439
0.00801904
-0.0263554
-0.00163304
0.00410106
0.000966377
-0.00063885
-5.02656e-05
-0.000354849
-0.0141816
0.0283015
-0.00100382
-4.39241e-07
-0.00710814
0.000102448
0.00115024
-5.37908e-05
-0.00139277
-5.19149e-05
0.00792461
-5.10262e-05
2.11297e-05
-0.00138396
-0.00433001
0.0106976
0.0108058
-1.02532e-05
0.0387196
-0.00138813
-8.51429e-05
0.00596792
-2.15513e-05
-5.70007e-06
0.00880042
-0.000340359
-8.42833e-06
-0.00834231
-0.00658913
0.000489907
0.00249452
0.00838598
-0.00294261
0.0272689
0.00644694
-0.00013774
0.000925374
-0.0639547
-0.00832247
0.00342624
-0.000313455
-8.52704e-07
-0.0174507
-0.0020795
-0.00376998
0.0188223
-0.000128456
-0.0162159
-0.000389675
0.00883269
-0.00660994
-0.0156766
0.00189358
-0.00213484
0.00855191
-0.003808
0.00204884
4.52703e-05
0.00753395
0.00193808
-0.000296208
-2.63048e-06
-0.0331328
-0.0503344
-0.0507596
-0.00013142
0.00653794
0.0387591
-0.0116636
-0.000399428
0.0101156
-7.40916e-06
0.000375943
-0.0243572
-0.0103381
-0.00231296
-0.0285368
-0.00111007
0.000138662
0.000137857
0.0106134
-0.0517174
-0.00390267
-0.00390868
0.000751033
0.000458661
-0.00123788
-0.00253653
-0.000365691
-0.0177558
-4.21522e-05
-0.0414076
0.000463169
0.00925626
0.0113103
0.0034645
0.00229756
-0.00409877
0.000269895
0.00373051
-0.000845985
0.019422
0.0093506
-0.00142
-0.000142836
0.000182333
0.0875737
0.0180232
-0.00345479
0.026886
0.00530476
-5.36076e-06
0.00781633
-4.16299e-05
0.00276055
-0.0127017
0.000433375
0.0043322
-0.00224006
0.0238899
-0.00251918
-7.2271e-05
0.0153846
-0.00125641
-0.00892224
0.00445331
0.016852
-0.00046453
0.0168586
0.00283063
-0.0192583
-0.000151852
0.036137
-0.0507555
0.00591506
-0.000129615
-0.00340246
-0.0037318
0.00182544
0.0053082
0.00604077
-0.0307087
0.00500002
-0.0272942
-0.00132176
-0.0397638
0.00167572
-0.00357319
-0.0188199
-0.00119477
0.0217949
-0.00257882
0.058215
-0.0103755
-2.08352e-05
8.90608e-05
-0.000237695
0.00672251
0.00461539
0.00406102
-0.0033287
-0.00519064
-0.0515169
-0.0155893
-0.0184334
-3.41645e-05
-0.000200677
-0.000122467
0.00365926
-0.00391858
0.00862387
-0.00653598
0.00384947
0.0061712
1.9665e-06
0.0319652
0.00668889
0.0302777
0.000579468
-0.00109204
-0.00916256
0.00792908
-0.0590906
0.0020846
-0.000987108
0.00217065
-0.00502265
0.00779458
8.11225e-05
0.0111224
-0.000606046
-0.00208141
-9.43132e-05
-1.60643e-06
-0.0102032
0.0204006
-0.0158751
-0.00905486
-0.0313994
-0.00255863
-0.000923243
0.0225476
0.0175612
-0.00112951
-3.63762e-05
0.0073805
0.00272491
-0.00100563
-0.00314199
-0.0162889
-0.0619801
-0.00139967
0.00828874
-0.00289929
-0.00598619
0.0001837
0.0307581
0.0132594
-0.00368079
-0.00412333
0.00233796
-0.00262271
-0.0574262
0.00033249
-0.0656534
0.0042329
0.0125403
-0.00117309
0.000739451
-0.063139
0.0773303
-0.000182219
-0.0039098
-0.00366606
-3.79356e-05
0.000329782
-0.000173788
0.00753137
0.0216879
-0.00401758
0.00710739
-0.0512533
0.00564979
-0.0087311
-0.0331779
0.00148038
0.0313846
-0.000290827
-0.0690536
0.00575037
-1.267e-05
-8.51711e-05
-0.0331685
-0.000474766
-0.0169863
0.00833467
-0.0239863
0.00677772
0.0130103
0.00282579
0.00785167
-0.00258206
0.00844422
-0.0456123
0.0113928
0.00574424
-0.000177085
0.0155978
0.00446243
-0.000691661
0.00646105
0.00378554
0.00430062
-0.0732262
0.000219603
-0.0488976
-0.00268143
0.029186
-4.57648e-06
-0.000882055
0.0138615
-0.0453962
0.00187202
-0.000252622
-0.000203309
0.0335024
0.00512211
0.0164472
-0.000167055
-0.00279582
-0.0732055
0.00493823
0.00314825
-3.85959e-05
0.00661064
-0.00115629
-0.00373584
-0.000694497
-0.00662987
-0.00018642
-0.000128229
2.73273e-05
0.00826005
-0.00951097
0.00265885
-0.0255549
-0.000173655
-0.0323105
2.05291e-05
-0.00890412
-0.00756392
-0.00309085
0.00239282
-0.00875187
0.0107569
-0.012035
0.0229532
-0.00264359
-0.00592184
0.00554927
-0.000165936
-0.00158986
0.000916913
0.0211658
0.00667745
0.0794361
-0.00169032
0.00232403
0.00655968
0.0157184
0.0198543
0.0005194
-0.000232065
-1.52583e-06
-0.00148276
-0.00317708
-0.00470188
0.069085
0.0950828
-0.00803956
-0.0107523
0.00850663
0.0141758
-0.00695239
2.90243e-05
-0.0841103
0.00872677
2.96897e-05
0.00596309
-0.00195744
-0.000178181
-0.0110819
-0.0140245
-0.000705402
0.0207294
-0.000232319
-0.066602
-0.00265199
0.00596058
-0.0198925
-0.000269186
-0.0226352
0.00142656
-0.0115921
-0.00157916
-2.55522e-05
2.06355e-05
-0.0567827
-0.0235812
0.00780388
-1.32749e-05
0.0175367
0.00468807
-0.0460562
-0.0382072
0.0124472
-0.00155104
0.00811686
0.00616631
-0.00234952
0.00720542
-0.0110367
0.00854673
-0.00429122
1.37732e-06
0.000920286
-0.000731304
-0.00353299
-0.0692388
0.000201926
-0.00111998
-0.00510798
-0.000166227
0.00205414
-0.051415
-0.0640264
0.00488175
0.0281457
-0.0678544
-0.00357508
-0.073918
0.0016074
-0.000822654
0.00854057
0.00989081
0.00628068
-0.0182284
0.000512804
-0.0649755
-0.0558297
0.00157737
-0.00653111
0.0085383
-0.0401647
-0.00450948
-0.00127872
-0.0711871
-0.064006
-0.0557391
0.00348265
-0.001048
0.00685388
-6.61604e-06
5.07169e-06
-0.00336319
4.03333e-05
0.00852273
-0.0111879
-0.00146961
-0.00261766
0.00441423
0.00720481
0.0095952
-0.0607934
-0.00378574
-0.000402213
-7.5803e-06
0.00492149
-0.0104344
0.0168654
-0.00797025
0.00655483
0.00317643
-7.86947e-05
0.00493726
-0.000323278
0.00784856
0.00612247
-0.00449749
-0.0381072
-0.0145725
0.0286391
-0.00277068
0.00602684
-0.00342723
-0.00631625
-0.0633485
-0.00231373
-0.00894274
-0.029064
-0.0295313
-0.00327396
-0.0687466
-0.0294185
0.00259772
0.00393804
-0.00178201
0.000297281
0.00589119
0.0157058
8.68689e-05
-0.00774268
-0.00143786
-4.28876e-05
0.000251867
-0.00968271
-3.41067e-05
0.00871117
-0.00129519
-0.0127114
-0.0036875
0.0290321
0.000548511
0.00455081
0.00288515
-1.73494e-05
-0.0149678
-2.21804e-05
-0.000420959
-0.000261278
0.00316152
-0.0642247
0.000839519
0.0217063
-0.0134655
-0.0357196
-0.00380699
-0.00337739
-0.0024423
-0.0462491
-0.0214218
-0.000175917
-0.000123508
-0.069788
0.00910871
8.72588e-05
0.00687521
0.0404064
0.000896569
0.00536401
-6.65069e-05
0.0467692
0.0012919
0.00491517
0.00610269
-0.000285485
-0.000285848
-1.81299e-05
-0.0121525
-0.0327583
-0.0532365
-0.0133324
0.00901483
-6.32837e-06
0.0060671
-5.00163e-05
-0.000691322
-0.000208873
-0.000398915
-0.00233843
-5.08319e-05
-0.00464799
-0.0691379
-0.000200289
-0.0524792
0.0104555
-0.000209007
-0.000732551
-0.0072749
0.000777384
-0.000443141
1.31917e-05
-0.0121421
0.0069215
-2.98566e-05
-9.01226e-05
-0.000668629
0.00356383
-0.00331997
-0.0594151
0.000463776
4.01973e-05
-0.00171209
0.00481754
0.0147792
-0.00333274
-0.000179896
-0.0555589
-0.000210632
0.00911636
0.00549688
0.00491121
0.000656681
0.00778279
0.00493081
0.0312047
0.00845965
8.62788e-06
0.000245904
0.000372139
-2.09572e-05
0.00248154
-0.0263933
0.000508967
0.00537119
-8.26079e-06
-0.014472
0.00633082
-0.000430832
-0.00874804
-2.05245e-05
-0.00533755
-0.0305579
-0.00157518
0.0443743
-3.26783e-05
-0.00150666
5.72936e-06
0.00554143
-0.062543
-0.000710301
0.0320694
0.00018738
-0.00977266
-0.000248795
-4.43428e-05
-0.00406374
0.00757896
-3.52212e-05
2.81098e-06
0.00812358
0.0284557
0.00376675
0.00649071
0.000434555
-0.0278366
0.00771681
-0.0096397
-2.10963e-05
-0.0254054
-0.0135964
0.00041611
0.00305893
0.00309292
0.00855436
0.00519152
0.00355294
-0.000140108
-0.000267838
0.0413645
0.00692952
-0.00017818
0.00606815
-0.0139609
0.00416171
0.00476034
-0.00795283
-0.00122212
-1.45367e-05
-0.000211967
0.00723842
8.83654e-06
-0.00777993
0.0110111
-0.0058805
-0.000523912
0.000137317
0.0102935
-0.0086696
-0.0180228
-4.05933e-05
-0.0318307
-0.000998708
-0.00650873
-0.00173856
-4.94574e-05
8.06301e-06
-0.000137072
-0.0141731
2.40802e-05
-8.18046e-05
0.00537986
-0.0159136
-0.0520796
-0.000222188
-6.60603e-05
0.00395269
2.30874e-05
-0.016198
0.00571957
0.00158415
-0.00401433
-0.00106766
-0.0043198
0.0155673
-0.00139295
0.00396742
-0.000132528
-0.00523271
0.0150907
-0.0288601
0.00736462
-0.0267787
2.22662e-05
-0.00508932
-0.000537803
-0.0367196
3.47254e-06
0.00523835
0.000103767
0.00590983
-0.000320093
-0.000133777
-0.00283641
-0.0544251
0.0148138
-0.0516717
0.00405277
0.00403098
-0.00343335
7.9311e-05
-0.0159301
-1.67904e-05
-6.79549e-06
-0.00251641
-0.00206875
2.302e-05
0.00531631
7.96402e-05
0.00608215