/*--------------------------------*- C++ -*----------------------------------*\
  =========                 |
  \\      /  F ield         | OpenFOAM: The Open Source CFD Toolbox
   \\    /   O peration     | Website:  https://openfoam.org
    \\  /    A nd           | Version:  9
     \\/     M anipulation  |
\*---------------------------------------------------------------------------*/
FoamFile
{
    format      ascii;
    class       surfaceScalarField;
    location    "40";
    object      phi;
}
// * * * * * * * * * * * * * * * * * * * * * * * * * * * * * * * * * * * * * //

dimensions      [0 3 -1 0 0 0 0];

internalField   nonuniform List<scalar> 
167688
(
-0.0422747
0.0254645
0.0168102
0.00807477
-0.0735582
0.0654834
0.0351108
0.0488242
-0.083935
0.0382263
-0.0849676
0.0467412
0.0977174
-0.0893642
-0.00835314
-0.0730601
0.0131209
0.0599392
0.0419995
-0.0247274
-0.0172721
-0.0392184
0.0774447
-0.12344
0.0417565
0.0816834
-0.026154
-0.00372914
0.0298831
-0.0516445
0.0597193
-0.0617402
0.0350093
0.026731
0.115428
-0.0880036
-0.027424
-0.0465182
-0.015222
-0.0373924
0.0170147
0.0203777
0.0420078
0.0318011
-0.0738089
0.0192451
-0.00258852
-0.0166566
0.0212611
-0.0260125
0.00475139
0.0301345
0.038849
-0.0689834
0.108113
-0.0662708
-0.0418421
-0.0822955
-0.0227773
0.105073
0.0469594
0.0527124
-0.0996717
0.0626041
-0.0324696
-0.0889037
0.0646974
0.0242063
0.0952987
-0.0145947
-0.080704
-0.0760224
0.0273335
0.048689
0.0124431
0.0104121
-0.0228552
0.0718299
-0.0802052
0.00837532
-0.0911698
0.0181098
0.000545409
-0.0828409
0.0117402
0.0691954
-0.0809355
0.0614536
-0.0578869
-0.00356672
0.133488
-0.119115
-0.0143736
-0.00730288
0.00663004
0.00067284
-0.0701494
-0.0532905
-0.114758
0.0761681
0.0385903
0.052345
0.0557679
0.00447008
-0.0141614
0.0096913
0.0266392
0.0385329
-0.0651721
-0.0580264
-0.0347553
0.0927817
0.0337457
-0.0889153
0.0551696
-0.0639895
0.0145357
0.0494538
-0.0743915
-0.0109025
0.085294
0.0648731
-0.0297623
0.0412183
-0.0199571
0.0402018
-0.0670851
0.0268832
-0.00427726
-0.00302562
-0.118554
0.00404233
0.114512
-0.0984479
0.0366514
0.0617966
-0.00240511
-0.0615844
0.0696845
-0.0281786
-0.0415059
-0.0266279
0.0235457
0.00308224
0.0900033
-0.0882604
-0.00174293
-0.0554907
0.0821299
0.00617087
-0.0698314
0.0636605
0.0228344
0.0191651
-0.0882309
0.0598452
0.0283856
0.0914662
-0.0350051
-0.056461
-0.034594
0.00440183
0.0301921
0.0724633
-0.0322615
0.00856265
0.0326369
-0.0411995
-0.0485883
-0.0699657
0.114544
-0.0328008
-0.0817436
-0.00163227
0.116177
-0.00719096
-0.0295654
0.0367563
0.125025
-0.0724559
-0.0525692
0.0143709
-0.00990081
0.109112
-0.0877627
-0.0213489
-0.061341
0.00551594
0.0558251
-0.0855191
-0.0142031
0.0997222
0.0650557
0.0264104
-0.00426849
0.00230504
0.00196346
-0.0618659
-0.0270378
-0.0269568
0.0213033
0.00565348
-0.0128111
0.0415854
-0.0287743
-0.00949207
0.012506
-0.00301397
0.0903392
-0.00565681
-0.0846824
-0.0194404
0.0464211
-0.0236264
-0.0227947
-0.0589935
0.00350281
0.0156705
0.0663633
-0.0820338
-0.00219108
-0.00730099
0.0478525
0.021832
-0.0643892
-0.0116333
0.111356
-0.0693479
0.0157567
-0.0699664
0.0542097
0.0719045
-0.0509244
-0.02098
0.0666976
-0.0605267
-0.00078587
0.00062216
0.00016371
-0.0663581
0.0841756
-0.0178175
0.135084
-0.0589019
-0.0761825
-0.0484104
-0.0663479
0.0355202
0.0363843
0.0270155
0.0707018
0.0338287
-0.0466398
0.118455
-0.0281162
0.0739384
-0.0498524
-0.0240859
-0.0282271
-0.00916531
0.0787696
-0.0670295
-0.0738546
-0.0143762
0.0585853
0.0568424
0.107841
-0.103474
-0.00436747
-0.0911184
0.0646982
0.0264202
0.0632268
-0.102645
0.0394178
-0.00811246
0.037601
-0.0294885
-0.0161602
0.00347492
0.0126853
-0.0484614
0.0412704
-0.0581115
0.0925582
-0.0344467
0.0736933
-0.110539
0.0368459
-0.0639762
0.0797329
-0.000812671
-0.00345582
-0.047005
0.0465881
0.00041685
0.0446933
0.0318251
-0.0765184
-0.0724739
0.0469752
0.0254987
-0.075486
0.014145
-0.0577255
0.0202316
0.0374939
0.0424218
-0.00483509
-0.0375867
0.00507295
-0.0706353
0.0655623
-0.0012494
0.000463529
-0.125987
0.0889479
0.0370393
0.0510491
-0.0822793
0.0312302
-0.00810162
0.0799315
-0.0399518
0.0137978
0.0593247
-0.0835135
0.0241888
-0.052277
0.0860227
-0.0200142
0.083241
-0.00204121
-0.0178862
0.0199274
0.00270166
0.0642478
-0.0669495
-0.0853056
0.0228403
0.0624652
0.0323929
-0.0405054
-0.0287295
0.0880542
0.0304186
-0.0179755
0.020289
0.0734953
-0.0937843
0.0209558
-0.00437999
-0.0165759
-0.0163724
0.0549053
-0.102118
0.0440919
0.126144
-0.0901727
-0.0359708
0.102946
-0.0744813
-0.0284648
-0.044761
-0.0269949
0.0717559
0.058616
-0.010037
-0.048579
0.0398581
0.063088
-0.0612202
0.0600444
0.00117581
-0.0669602
-0.00433922
0.0712994
-0.00842396
0.0133121
-0.00488815
0.0187709
-0.0768824
-0.0696366
0.0389707
0.0306659
0.023979
0.00552867
-0.0295077
-0.11514
0.0363534
0.0787863
0.0733658
-0.0682928
-0.0857719
0.0880623
-0.00229043
-0.0167928
0.000632579
-0.035352
0.0823114
-0.0366047
0.0514437
-0.0148391
0.00573884
0.0842645
-0.0870166
0.0422556
0.0706842
-0.0350785
-0.0356057
-0.086416
0.0749687
0.0114473
-0.0255227
-0.0469512
-0.0367098
0.00211582
0.0374646
-0.00222532
-0.0352393
0.0971724
-0.0524791
-0.124532
0.0835397
0.0409922
0.00550327
0.0463702
-0.0518735
-0.073152
0.0365167
0.0366353
-0.0819954
0.0894074
-0.00741206
0.0843153
-0.00542027
-0.078895
0.052227
0.00503884
-0.0572659
0.0229101
0.0385435
-0.088518
0.00934895
0.0791691
-0.056413
0.0604281
-0.00401503
0.0178275
0.0426508
-0.0604783
0.0651726
0.00551157
0.0875157
-0.0820124
-0.0188036
0.0103796
-0.0167337
-0.0469082
0.0636419
-0.0452272
-0.08076
-0.0903273
-0.00812069
0.120401
-0.0294552
-0.090946
0.0651745
-0.0502655
-0.0149089
0.000276471
-0.0758644
0.0755879
-0.0524415
0.0357078
0.081198
0.0214772
-0.102675
-0.114585
0.0124433
0.102141
0.0722011
-0.102157
0.0299556
-0.0721333
0.0443416
0.0277917
-0.0455727
0.0330753
0.0124974
-0.0682922
-0.0562397
-0.00334209
-0.0786533
-0.0739529
0.00699274
-0.0693183
0.019276
0.0500423
0.0104126
0.0495401
-0.0599527
0.0843161
0.0491721
-0.106732
0.0403737
-0.0199655
0.0710146
0.10045
-0.0479111
-0.0525393
-0.13681
0.0958275
0.0409826
0.0576306
-0.0671731
0.00954247
-0.00625344
-0.0407515
0.100421
-0.0427081
-0.0577125
-0.0293459
-0.0570701
0.0013843
-0.0133733
0.011989
-0.0179598
0.0423019
-0.0243421
-0.0284192
0.0369818
0.0290389
-0.0801353
0.0510965
-0.0901828
-0.0214166
0.111599
-0.0347671
-0.0229584
-0.0195122
0.00434704
0.0151652
0.0200026
-0.044474
0.0244714
0.029772
-0.0105269
0.0729814
0.016564
-0.0895453
-0.0984804
0.0746613
0.0238191
0.107196
0.00257112
-0.109767
-0.015372
0.039351
-0.018137
0.0804135
-0.00647509
-0.0202421
0.0402447
0.0554505
-0.037623
-0.056818
-0.00527799
0.062096
-0.130894
0.042721
0.0881732
0.0832522
-0.0300334
-0.0532188
-0.102587
0.0199759
0.0826115
0.0192146
-0.0436535
0.0244389
0.0946482
0.0303769
-0.0081387
0.0456033
0.0635897
-0.0135612
-0.0500285
-0.110801
0.0222832
0.0166677
0.0911733
-0.0184201
0.0471749
-0.0287548
-0.0420037
0.0701771
-0.0281734
0.073552
-0.102842
0.02929
-0.109849
0.0383812
0.0714678
-0.0703854
-0.0605088
-0.0422317
-0.0299016
-0.114865
0.0489543
0.0659109
0.0295586
-0.000190739
-0.0293679
-0.105603
0.0394249
0.0661782
-0.082499
-0.054311
-0.0336809
-6.88119e-05
0.000411998
-0.000343186
-0.00182897
-0.00455267
0.00638164
-0.0612541
-0.0211878
0.0824419
-0.038147
0.0490078
-0.0108608
0.11095
-0.0803559
-0.0305945
-0.117739
0.056485
-0.0169444
-0.0640101
0.0809545
0.0396839
-0.0101253
0.0657923
0.0104514
-0.0762437
0.0304503
-0.0638655
0.0334153
0.120912
-0.0593042
-0.0616074
0.0206104
0.0626419
0.0243453
0.0355657
-0.0599111
0.101074
-0.0198756
0.0124176
-0.0112968
-0.00112085
0.09082
-0.0357374
-0.0550826
0.00146986
0.0561607
7.84695e-05
-0.0858504
0.0583141
-0.0479015
-0.0900904
0.0047848
0.0137358
-0.00367244
-0.0100634
-0.0190096
0.0837078
0.0562348
0.00735487
0.0297755
-0.0288611
-0.000914402
0.0222992
0.0620161
-0.0160129
-0.0295598
-0.0029917
-0.0132826
0.0162743
-0.0770165
0.0076982
0.000854599
-0.0910374
0.0441026
0.0762986
-0.00967556
-0.0326408
0.0423163
0.0417019
0.0674097
0.0633336
-0.0389883
-0.0293936
-0.0170531
0.0464468
0.0681842
0.0322364
-0.0332757
0.00664774
0.0341735
0.0405567
-0.0747302
0.0183582
0.0140998
-0.0324579
0.0280443
0.020177
-0.0482214
-0.000272003
0.00024122
3.07828e-05
-0.000251751
-2.02513e-05
0.00301535
0.00940225
-0.00259588
0.0762892
-0.0813175
0.0661405
0.015177
-0.0227022
-0.0150864
0.0377886
0.055
-0.0625248
0.00752481
0.101396
-0.0836741
-0.0177216
0.032431
0.0327434
0.100963
-0.0264006
-0.074562
0.118833
-0.0300854
-0.0887475
0.0847744
-0.0820727
-0.0349402
0.0252646
-0.0948971
0.0496296
0.0452675
0.00892275
0.0598695
-0.0687923
-0.0459366
-0.0301227
0.0760592
0.107577
-0.0551044
-0.0524728
-0.0681019
-0.0467633
0.0574245
0.0439712
-0.0533435
0.0687486
-0.0154051
0.0830487
-0.0830452
-3.56553e-06
0.0972795
-0.0579121
-0.0393675
0.102682
0.0324028
0.106432
-0.0412936
-0.0651388
0.0814679
-0.00926682
0.0242963
-0.0427163
-0.110006
0.102389
0.00761738
-0.0792766
0.0628064
0.0164702
-0.0538532
0.0741422
0.00282875
-0.117413
0.0532392
-0.0745379
0.0212987
0.0852155
-0.051042
-0.000770993
-0.0711513
0.0719223
-0.020807
-0.0959909
0.0506071
0.0453837
-0.12401
0.036908
0.0871022
-0.117769
0.0237753
0.0939942
0.000567961
0.043487
-0.0440549
0.0475834
-0.0283687
-0.0238486
-0.0351593
0.0590079
-0.0995867
-0.00601645
-0.101397
0.0713715
0.0300253
0.0933684
0.00391116
-0.0816907
0.0647463
0.0217771
-0.000821298
0.0104026
-0.0311031
0.0207005
0.103962
-0.0209135
0.0684721
-0.00267975
0.0530839
-0.0863512
0.0332673
-0.0189282
-0.042292
-0.0825154
0.00812391
-0.0587072
-0.0226103
0.0779405
0.0482031
-0.0667072
0.0247035
-0.0653737
-0.0140278
0.0794015
0.0544883
-0.0120665
0.0666855
-0.00109036
-0.0655951
0.0997054
-0.0430738
-0.0566316
-0.0197172
-0.0519559
0.0716731
-0.0200963
0.0936482
0.0493481
0.0453919
-0.09474
-0.0126247
-0.0833662
-0.0380687
0.0119503
0.0261184
-0.00984648
0.0112308
-0.0224881
0.0204469
0.114787
-0.0194879
-0.108142
0.0840394
0.0241023
-0.113046
0.0432354
0.069811
-0.0295439
0.0599942
-0.122882
0.00774242
0.0651842
-0.0542693
-0.0109148
-0.00787027
-0.0485428
-0.0620773
0.0777478
0.00615606
0.0182181
-0.0243742
0.0105933
0.0261625
-0.0367558
-0.000245218
-0.0240263
0.0242715
0.013858
0.00485675
-0.0187147
-0.0642697
-0.00183521
0.0661049
-0.0727769
0.00850721
-0.0186521
-0.00776222
0.0264143
-0.0827723
0.0830488
0.121812
-0.12254
0.000728536
0.0165361
0.0229219
-0.039458
-0.0336358
0.0110597
0.0225761
0.0519448
0.0698668
0.081757
0.0179483
-0.00770908
0.00661969
0.00108939
0.030833
0.0900786
0.000387895
-0.000456707
-0.0216199
-0.0164488
-0.0126657
-0.0363196
0.0489853
0.0798618
0.0265706
0.0494796
-0.0806803
0.0312008
-0.0277988
-0.00817849
0.0359773
0.00647691
-0.0342757
-0.0306872
-0.0131445
0.0438317
0.0180348
0.00615025
-0.024185
-0.00047512
0.000349843
0.000125277
0.123893
-0.0410862
-0.0828068
0.0670734
0.0568196
0.0776778
-0.0803596
0.00268181
-0.0317872
-0.00869094
0.0404781
0.105577
-0.0517844
-0.0537931
-0.0560624
-0.0679477
0.087644
-0.0969379
0.0092939
0.0370907
-0.0205546
-0.0132512
0.0686835
-0.0554323
0.00545878
0.0477804
0.101848
-0.00579093
-0.0960574
0.0210072
0.0808411
0.00167517
-0.0584932
-0.0391672
0.016465
-0.0294596
0.0310578
-0.0015982
-0.0354223
7.7374e-05
0.0353449
0.00590065
-0.0752836
0.069383
-0.0279664
0.0886755
-0.060709
0.0286456
0.0246857
-0.0533314
-0.0275996
0.000642729
-0.0825564
-0.0123408
-0.0991609
0.0654919
0.033669
-0.045633
-0.0216152
0.0672482
-0.0165165
0.0134686
0.00304783
-0.0821863
0.0542199
0.0045758
0.0251997
-0.00753219
-0.0278901
-0.00420108
0.00457275
-0.000371672
0.0520448
-0.0213641
-0.0306807
0.0207855
-0.0762705
0.055485
-0.0244213
0.0233765
0.0010448
0.070563
-0.0360027
-0.0345603
0.00285256
-0.0883717
0.105658
-0.024377
-0.0812813
0.111305
-0.0932792
-0.0180259
0.0687155
-0.00203005
0.0642351
-0.0887432
0.024508
-0.0388515
-0.045581
0.0844325
0.0912944
-0.0270593
-0.072585
0.0528678
0.0477522
-0.0677529
0.0200007
0.0310627
0.0432487
-0.0743114
0.052261
-0.0516931
-0.0973501
0.0884856
0.00886441
0.0559327
-0.0668302
0.0108975
-0.015716
0.0261186
0.0790067
-0.109561
0.0305539
0.0628082
0.00228462
-0.0650928
0.083202
-0.0805283
-0.00267375
0.0896231
0.0113395
0.0632578
0.0125816
-0.0758394
0.00958635
-0.0428375
0.0332511
0.099198
-0.0208594
-0.0783386
0.0318452
-0.0556938
0.027327
0.043236
0.0539355
-0.092787
-0.0582877
0.0276005
-0.0711831
0.00829723
0.0628859
0.0149869
0.00370663
-0.0186935
0.00765267
-0.0327126
0.02506
0.0241393
-0.0179833
0.0627137
0.0247427
-0.0874565
-0.00382771
0.0690119
-0.00829797
0.006469
-0.023985
-0.00226284
0.0262478
0.0614748
0.00178303
-0.0229448
0.0722929
0.0738932
-0.0428305
0.0054631
0.0125527
-0.0180158
-0.0939154
0.0098481
0.0840673
-0.128041
0.115781
0.0122597
-0.0249731
0.00632097
0.00829783
-0.0322828
-0.0944549
0.0290812
0.0199435
-0.0655765
0.0551694
0.00344665
-0.0379653
0.0890498
-0.0510845
0.0156528
0.0633539
-0.0138108
0.0688107
-0.0116362
0.06472
0.00354288
-0.00132044
-0.00222244
0.0670638
-0.0835466
0.0164828
-0.0499774
0.0790163
0.0299567
0.0192939
-0.0492506
-0.0741122
0.0733412
0.0346745
0.0709838
-0.05862
-0.0110167
0.0643236
-0.0554009
0.0714252
-0.0842364
0.0128112
-0.00613722
-0.0320098
0.0595397
0.0270451
-0.0865848
0.0704481
0.00806032
-0.0785084
0.050329
0.0017158
0.0430932
-0.0890297
0.0963429
-0.0370426
-0.0593003
0.0144848
0.0731593
0.0503096
0.0568859
-0.0832046
0.0120215
-0.071454
0.00652554
0.0649285
-0.0116155
0.0443061
-0.0326906
-0.0270335
-0.0362725
0.063306
0.1301
-0.0776879
-0.0524118
-0.0349972
-0.0675902
-0.0863106
0.0906345
-0.00432394
-0.0316865
-0.086083
0.0244473
-0.0105893
0.00058704
-0.000457728
-0.000129312
-0.0715047
0.0582535
0.051144
-0.00472293
-0.0169086
-0.047929
0.0648376
0.0109446
0.00279122
-0.0205637
-0.0252914
0.0458551
-0.10152
-0.0115264
0.0522184
0.058732
0.0476992
0.0824005
0.0903244
-0.0322735
-0.0580509
0.0503732
-0.0578283
0.00745514
-0.0302982
-0.0489784
-0.0324496
0.0919892
0.0439315
-0.0343451
-0.087811
-0.00412629
0.0919372
-0.121405
0.0945221
0.0268833
-0.0880425
0.0141556
0.0738868
0.109382
-0.00180498
0.117097
-0.0619082
-0.0551883
-0.0344764
-0.0346611
0.0691375
0.0976342
0.0194623
0.00582464
-0.0936356
-0.00311098
-0.0502325
0.125965
-0.0654302
-0.0605346
-0.0892292
-0.0128043
0.102034
0.137512
-0.0474236
-0.0900887
0.0254107
0.0128952
-0.0383059
0.113419
-0.107619
-0.00580007
0.10315
-0.0327022
0.020819
-0.00928679
0.0227318
-0.013445
0.0168397
0.0381595
-0.0549992
0.044122
0.0671832
-0.000786292
0.0103248
-0.00953851
-0.0707659
0.0815596
-0.0107937
0.0461892
-0.116955
0.104905
-0.014581
0.0189929
-0.0135298
-0.0161765
-0.0366086
0.052785
0.0904769
-0.0266774
-0.0637995
-0.0193811
-0.0409728
0.0603539
0.0617358
0.0570971
-0.0898571
0.0850266
0.00483051
-0.0266348
-0.0218509
0.0484857
-0.000349138
0.0263226
-0.0259735
-0.0940602
-0.0172018
0.111262
-0.0190558
-0.000456436
-0.0956611
0.00935052
0.111628
-0.0796877
-0.03194
-0.094419
0.0564537
0.0190895
0.0585883
-0.00222358
0.0167702
-0.0145466
-0.0192753
0.0162836
-0.118524
0.0571703
0.0613541
0.0608772
-0.0276027
-0.0332745
-0.0283025
0.0772536
-0.0489511
0.00661382
-0.012161
0.00554722
-0.0978668
0.0856713
0.0121955
0.124949
-0.0133589
-0.111591
0.108729
-0.0460151
0.0861779
0.0387716
-0.00520085
0.0118147
0.0382686
-0.0272983
-0.0109703
-0.0715527
0.0200508
0.0515019
-0.058336
-0.0657734
-0.00577925
0.0379478
-0.0519488
0.014001
0.0635154
-0.00758272
-0.0155821
-0.0625351
0.0781172
0.0291012
0.00916743
-0.083774
0.00329033
0.0804836
0.038493
0.0346344
-0.0731275
0.02093
-0.0480447
0.0271148
-0.0586824
-0.062723
-0.0373076
-0.070834
0.0261621
0.0123238
-0.0384859
0.0558215
0.094109
0.0361386
-0.0284859
0.00416869
-0.00111499
-0.0030537
-0.0923771
0.10142
-0.00904289
0.0715649
-0.0956825
0.0241175
-0.0625887
0.0281123
-0.00723383
-0.000475248
0.0207639
-0.110621
-0.0800878
0.0768553
0.00323252
1.92805e-05
0.000221939
-0.0805891
0.0636805
-7.5634e-05
-0.000176117
0.0653787
-0.0183092
-0.0470695
0.0310399
-0.0426554
-0.067514
-0.0011567
0.0686707
-0.00461619
-0.0265814
0.0311976
0.110435
-0.0288172
-0.0816175
-0.0583377
0.0996695
-0.0413318
0.0729475
-0.00955055
-0.0633969
-0.0636879
-0.00776616
0.096861
-0.044634
-0.0298149
0.00539359
-0.0130304
-0.0843197
-0.046222
-0.0818187
-0.0657934
0.0290488
0.0367446
-0.0197479
0.0826306
-0.0628827
-0.0137262
0.0618509
-0.0481247
-0.01465
-0.0794101
-0.0430501
0.0484945
-0.00544434
0.0005066
0.0374412
-0.082507
-0.00710295
0.08961
-0.00132747
0.0561326
-0.0548051
0.0850089
-0.0120615
0.0257296
-0.0591419
0.0334123
-0.0140364
0.125664
0.0687496
-0.0430199
0.0880802
0.0174972
0.0118825
0.0713195
0.0754178
-0.0914913
0.0160735
0.0187721
-0.072285
0.0535129
-0.0482531
0.0883053
-0.0400522
0.0597389
0.0407114
-0.0347161
-0.0467628
0.0814789
-0.0166624
-0.0395266
0.056189
-0.000308565
0.0717337
-0.00246331
-0.0479629
0.0504262
0.0910032
-0.000183143
-0.0502847
0.0236499
0.0626066
0.0171789
-0.0797855
0.0924815
-0.0223317
-0.0701498
0.0385262
-0.0341443
-0.0043819
-0.140436
0.0486243
0.0918117
0.00758034
-0.0588965
0.0513162
-0.0527092
-0.00530662
0.0580158
0.0121572
-0.0758675
0.0637103
-0.0889738
0.0376801
0.0512938
0.0137268
0.00697543
-0.0207022
-0.112634
0.0288598
0.0935153
0.0861444
-0.0379042
-0.0482401
0.0433399
-0.0600023
0.0245401
-0.0461373
-0.0091016
0.0552389
-0.0928591
0.0712741
0.021585
-0.0408579
-0.0691481
-0.0621645
0.0743217
-0.0162546
-0.0729746
-0.0135267
0.0389374
0.106415
-0.0582145
-0.0482001
-0.0813687
0.0465404
0.0348283
-0.0207591
0.0702387
-0.0555234
0.0428577
-0.00663432
-0.00988216
7.71286e-06
0.000137209
-0.000144922
0.0915605
-0.0629397
-0.0286209
-0.00259222
-0.00126333
0.00385555
0.0770701
-0.018485
-0.0585851
-0.0954791
-0.0230453
0.116667
-0.0625831
-0.0540834
0.105992
-0.0289218
0.100765
-0.097768
-0.00299733
0.0583957
-0.0781435
-0.112556
0.0645744
0.0479816
0.0336456
0.0671198
-0.0976812
0.0815951
0.016086
-0.0278413
-0.0522465
-0.0282382
0.0301006
-0.00186237
-0.0264403
0.0332623
-0.00682206
-0.015546
0.0145994
0.000946597
-0.00129886
-0.0406811
0.0419799
0.003787
0.000381694
-0.043933
-0.0450409
9.21742e-06
0.000577823
-0.0550885
0.0910022
-0.0359137
0.0391041
-0.0768769
0.0377729
-0.0448303
0.0402749
0.00455535
-0.0382146
0.0773186
-0.0202377
0.0918026
-0.0733183
0.0324326
0.0408857
-0.0427497
0.0573915
-0.0146418
-0.0702032
0.038416
0.067546
-0.0140828
-0.0534632
0.0395378
0.0179003
-0.0574381
-0.0413467
0.0400478
0.116839
-0.0176408
0.0431512
-0.0138174
-0.0293337
0.0689909
0.00738843
-0.0763793
-0.0607586
-0.0284913
0.0892499
-0.0599025
0.0137652
0.0301651
-0.0347813
-0.0696065
-0.0708294
0.0230894
-0.0713426
-0.0712317
0.0563082
0.0149234
-0.0223728
0.0433027
0.0946494
-0.0567375
-0.0379119
-7.09414e-05
0.0210066
-0.0209356
0.0962675
-0.0473291
-0.0489384
0.112503
-0.0412415
-0.0712611
0.0393704
0.0285614
-0.0679318
-0.0220325
-0.0227977
0.00998612
0.00072184
-0.010708
0.0938892
0.0215448
0.0690354
-0.0905802
0.00378584
-0.0588744
-0.0203864
0.0747715
-0.0543851
-0.0140631
0.0421074
0.103299
-0.0230083
-0.0802907
-0.0583038
0.040344
-0.0687149
-0.00247109
0.071186
0.0604203
-0.0951364
-0.0395501
0.037716
0.00183412
-0.0378068
0.0546466
-0.0266807
-0.0604066
0.0870873
-0.0905776
0.0722886
0.0182891
0.0449859
0.0295974
-0.0745833
0.0463295
0.00725831
-0.0535878
-0.0343946
0.00795431
0.034144
0.00900711
0.0107854
-0.0200722
-0.0586968
0.0311868
0.0275099
0.0804767
-0.00605661
-0.0744201
0.0469868
-0.0286286
-0.0648841
0.0724644
-0.079605
0.125139
-0.0455343
0.00152495
-0.0445751
0.00926666
-0.0888717
-0.0980276
0.0372689
0.0450011
-0.00414692
-0.0408542
-0.0976812
-0.0854126
0.0698305
-0.000497457
-0.00119449
0.00169194
0.0550385
-0.0817191
0.049298
-0.0193413
-0.0100632
-0.0479093
0.0579725
0.0528813
-0.0732677
-0.0661322
0.0584809
0.00765126
-0.0614856
0.0673862
-0.0351682
0.0762883
-0.0411201
-0.0453163
-0.0133804
0.0868731
-0.0660876
-0.0542064
-0.0211395
0.0753459
0.0439757
0.0590554
-0.103031
-0.0876037
0.0516781
0.0359256
0.0291867
0.0455498
-0.0747365
-0.0361936
-0.0561835
0.0534836
0.00352294
-0.0570065
0.0337733
0.0796461
0.0816059
-0.0420681
-0.0342874
-0.031506
0.00557735
0.0134295
-0.0190069
0.00653559
-0.0876182
0.0810826
-0.0473139
-4.64701e-05
0.0473604
0.0861661
-0.0899696
0.00380351
0.00391436
0.0290216
-0.032936
0.0144616
-0.0166852
0.0358646
-0.0880681
0.0522035
0.0518248
0.0256047
-0.0774295
-0.0269112
-0.0856449
-0.00341584
0.0171426
0.066064
-0.0836786
0.0176147
-0.0901329
0.00112136
0.0890116
0.0424631
0.0411646
-0.0836278
-0.0512519
0.0498189
0.00143304
-0.0145821
-0.0734604
0.0148725
-0.0160612
0.00118863
0.0563522
-0.0100227
0.024613
-0.0184849
-0.00612812
0.0826831
-0.019875
0.0197695
-0.0653557
0.0455862
-0.0682192
0.01551
0.0983865
-0.0348561
-0.0635304
-0.0254026
0.064773
-0.0573942
0.10276
-0.0453659
0.0996416
0.00808937
-0.107731
-0.0659735
-0.0070156
0.0729891
0.00990708
-0.0811388
0.0996653
-0.0682152
-0.0314501
-0.0387131
0.0564908
-0.0177778
0.0985641
-0.0467393
-0.0573653
0.0789101
0.036253
-0.0364982
0.0149426
-0.083824
0.0688814
-0.0895547
0.0235812
0.0189488
-0.0192979
0.0727835
-0.00523754
0.06532
-0.0346629
-0.0306571
-0.0274279
0.0158324
0.0115956
0.00922765
-0.0100139
-0.0282117
-0.0542953
0.0939719
-0.0684222
-0.0255497
0.0119681
-0.0718284
0.0598603
-0.112932
0.0311072
0.0818246
0.0176623
0.0819793
0.0806753
-0.0146114
0.0177631
0.0532456
-0.0710088
-0.126552
0.0578832
0.0686689
-0.0944893
-0.0320628
-0.0422917
0.0700536
-0.0277619
0.00654431
-0.00661547
7.11575e-05
-0.074194
-0.0171543
0.0913483
-0.00448397
-0.0661594
0.0706433
0.0375919
-0.0269986
0.00491027
-0.0391266
0.0342163
0.0391652
-0.0392361
-0.119215
0.00628324
0.0911922
-0.07242
0.0119369
-0.0206733
0.00873641
0.0848423
-0.00562465
-0.0792177
0.0370128
-0.0873328
0.05032
-0.0339281
0.0800919
-0.0461638
-0.125162
0.0529271
0.0722351
0.0371175
-0.0322072
0.0408987
-0.115093
0.0352703
-0.0659978
0.0307274
-0.101506
0.0647169
0.0367888
0.0557197
-0.0424881
-0.0132316
0.103829
-0.05147
-0.0523586
0.00050076
-0.0689312
0.0684304
-0.0270202
-0.0066156
0.0903719
0.0129272
0.0305254
-0.0628392
0.0323138
0.0827624
-0.0457495
-0.0303438
-0.055953
0.0862968
-0.0382399
0.00554961
0.0326903
-0.0706649
-0.0544972
0.076067
0.0185824
0.00558449
0.00115466
-0.00673915
-0.0741615
0.0861295
-0.0662909
0.0246344
0.0416565
-0.0755763
0.0461827
0.00654984
0.0573108
-0.0638607
-0.0404555
-0.0445056
0.0849612
-0.0365745
0.0393982
-0.00282363
0.00520355
0.0809626
-0.0526691
-0.0286996
-0.0598585
0.0392948
-0.0423885
-0.0554784
-0.0654068
0.00489147
0.0605153
0.0145897
0.0769708
0.0357024
0.0567791
0.0268822
-0.0808322
0.05395
0.0609321
0.0428965
-0.0142361
-0.0460265
0.0602626
-0.0800967
0.0312415
0.0488552
-0.098007
0.0186384
0.0793686
-0.0940217
0.0190479
0.0749738
-0.0412723
-0.0500302
0.0913025
-0.00647238
0.0022713
-0.00693528
-0.0296694
-0.0781018
0.0544683
0.0236335
-0.00291206
0.0563956
0.111167
-0.102254
-0.00891355
-0.0465679
0.0734501
0.0344246
-0.0163899
-0.00505881
0.0318492
-0.0267904
-0.0312716
0.0961739
-0.0649023
0.00187737
-0.00237483
0.0610691
-0.0696156
0.00854655
-0.107765
0.0728848
0.03488
-0.0732494
-0.0234769
0.0967263
0.0101335
-0.0488465
-0.0688235
-0.00927824
0.043248
-0.0745196
-0.000113629
-0.000361491
-0.00707696
0.040406
-0.033329
0.0965466
-0.06736
-0.0590627
-0.0424429
0.069077
-0.0926368
0.0235597
0.00373599
-0.00508411
0.00134811
-0.0496875
-0.0379162
-0.0182561
-0.0265777
0.0448338
0.0478668
-0.0933482
0.0454814
-0.0305196
0.06579
-0.0724786
0.0790284
-0.0236811
-0.00374688
-0.0395542
0.0874209
-0.0771298
0.011723
0.0911991
-0.081537
-0.00966212
-0.0467813
0.0313169
0.0154643
-0.0822255
0.0971681
-0.00792776
0.0637234
-0.0557957
0.0947167
0.0177859
0.015349
-0.00536286
-0.0439643
0.0791095
-0.0351452
0.0988634
-0.0340983
-0.0647651
0.0470344
0.0086853
0.0118516
0.0535272
-0.0434845
-0.0642803
0.0200906
-0.09334
-0.050585
0.0323289
0.0363101
0.105293
-0.0090257
-0.00862344
0.0699516
-0.0613281
0.0704644
-0.0440537
-0.0264107
0.000847202
-0.0435969
0.00496699
0.00997048
-0.0149375
0.000576507
-0.00140163
0.000825127
-0.0666483
0.064185
0.0517247
-0.0596524
-0.0479064
-0.050574
0.00844988
0.0197762
-0.0282261
0.056749
-0.0262237
-0.0853177
0.0696801
0.0156376
-0.101079
0.0671506
-0.0188392
-0.0561151
0.0749543
-0.0569192
-0.0444776
-0.0914557
0.00510113
0.0863546
0.0906799
0.00818355
-0.0517019
0.0582375
-0.0363188
0.00530947
0.0310093
-0.114826
0.0659772
0.0488492
0.113469
-0.0380667
-0.0754026
-0.0665323
0.0192183
0.0760522
-0.0760522
0.0630154
-0.0933592
0.0323041
-0.0173172
-0.0460909
0.0345877
0.0115032
-0.0793725
0.0780451
0.00558525
-0.0743002
-0.00768283
0.0133804
-0.00569753
-0.0875381
0.068157
0.00299596
0.000546923
0.0780972
-0.0132037
-0.0648935
0.0884067
0.00997983
0.0687098
-0.0151516
-0.0535582
-0.0936807
0.0362865
-0.0838601
0.0341813
0.0496788
-0.0173539
-0.028737
0.0706889
-0.112809
0.0421203
-0.0085448
-0.0564454
0.0649902
0.0862854
-0.0759844
-0.010301
0.0994321
-0.0943277
-0.0051044
-0.0262024
-0.00246618
0.0286686
0.0633273
-0.072856
0.00952871
0.0150678
-0.0572209
0.0421532
0.0483212
0.0651482
-2.51731e-05
0.00656948
-0.0254435
0.00276054
0.022683
0.082237
-0.0382613
-0.0875706
0.0887095
-0.0011389
0.0649141
-0.110929
0.046015
0.0728572
0.0333176
-0.106175
0.00754521
0.0760471
-0.0835923
-0.103234
0.0843949
0.0918522
-0.0334645
-0.0583877
0.0913706
-0.0230848
-0.0682858
-0.0609391
-0.0281445
0.0890836
0.0326001
0.0591954
-0.0917955
-0.00690417
-0.0687385
0.0756427
0.0863215
0.00207444
-0.0883959
0.129549
-0.0497783
-0.0797704
-0.0588908
0.0997383
-0.0408475
-0.13081
0.0747185
0.0560912
-0.102775
0.0265335
0.0762416
0.0797257
-0.0782965
-0.00142928
-0.0668058
0.0623218
0.0224563
-0.0769327
0.0544764
-0.00630673
0.0769956
2.10224e-05
-0.0251517
0.0251306
-0.0347567
0.107614
0.0390129
0.0355814
-0.0745943
-0.0837766
-0.0147124
0.098489
0.041902
0.0189751
0.0833809
-0.0646891
-0.0186918
0.128988
-0.0253792
-0.103609
-0.0674781
0.0340252
0.0334529
0.0466026
-0.0469726
0.000369965
0.104141
-0.0327963
-0.071345
-0.0287207
0.0995693
-0.0708487
-0.0336617
-0.0500187
0.0836804
0.0775031
-0.0331615
0.0171345
0.0100453
-0.0271799
0.00691237
0.00350682
-0.0104192
0.0468059
0.00016927
-0.0841304
0.0174285
0.066702
0.0679374
-0.0943706
0.0264332
0.0449222
-0.000314573
-0.0446076
-0.026106
0.0432127
-0.0171067
0.0908661
0.00879918
0.0799204
-0.0440558
0.102605
-0.0523355
-0.05027
-0.0156273
-0.0239268
0.0395542
0.114144
-0.0585937
-0.0555507
0.0139696
0.0674683
-0.0814379
0.0356039
0.0292884
-0.0648923
-0.122116
0.04972
0.0723957
0.0611457
0.0291268
-0.0902725
-0.0917191
0.0350408
0.0566783
-0.00369278
0.00369278
-0.0113263
0.115467
0.00061311
-0.000500237
-0.000112873
0.0295297
0.0547744
-0.0843042
0.05999
-0.0322795
-0.0277105
-0.0893924
0.035639
0.0537534
-0.0531171
-0.0464719
0.0995889
-0.0521059
0.0543005
-0.00219456
-0.00682482
-0.0614146
0.0682394
0.0150269
0.0652571
-0.080284
-0.0509181
0.0592947
-0.00837663
0.00466753
0.0227778
-0.0274454
-0.0516527
0.0900027
-0.03835
0.0091754
-0.0339028
-0.111768
0.0488866
0.0628816
-0.00331751
0.0770865
-0.073769
0.0984637
0.00163773
-0.100101
-0.000257164
0.000221009
3.61552e-05
0.018279
0.045964
-0.064243
0.048975
-0.0575198
-0.0214967
0.0905738
0.0296177
-0.0530927
0.0234749
-0.0508854
-0.0165927
-0.0277977
-0.0508038
0.0786015
0.100198
-0.0820227
-0.0181752
0.0265339
-0.0440591
0.0175252
0.0591979
0.0392659
0.0388403
0.0483958
-0.0872361
-0.103925
0.0288921
0.0750327
-0.0498985
-0.0528891
0.102788
-0.0206367
0.0632709
-0.0426343
-0.000542307
0.0529076
-0.0523653
0.0953382
-0.0494744
-0.0458638
0.0234455
-0.0734811
0.0500356
0.111901
-0.053096
-0.0588049
0.0792287
-0.0159014
0.0816063
-0.0307422
-0.0508641
-0.109501
0.0439674
0.0655332
0.0516615
-0.101407
0.0497454
-0.0189913
0.00285912
0.0161321
0.0820376
-0.0039404
-0.0142069
-0.0261092
0.040316
0.0767548
-0.0995142
0.0227595
0.0573845
0.0254359
-0.0828205
-0.0104065
0.0282753
-0.0178688
0.0107398
-0.0521554
0.0414156
-0.133442
0.0761984
0.0572434
0.0699322
-0.0909333
0.0210011
0.0685233
-0.0252952
-0.0432281
0.0482452
-0.01931
-0.0289352
-0.0566984
0.00379011
0.0529082
-0.0909859
0.0772823
0.0137036
-0.103939
0.0399286
-0.0831392
0.0511706
0.0319687
-0.0679872
0.0697417
-0.00175444
0.0190969
0.0077029
-0.0267998
8.20603e-06
0.0462226
-0.0462308
0.127739
-0.0747906
-0.0529488
0.0678313
-0.0532844
-0.014547
-0.0135265
-0.014812
0.0283385
-0.00694684
0.0934318
-0.0864849
-0.0691028
0.0312302
0.0378726
-0.0244997
-0.0434685
0.0679681
-0.0780047
-0.0177217
0.0957264
-0.0344384
0.00497877
0.0770616
-0.0995553
0.0224937
0.092233
-0.0643768
-0.0278563
-0.0816116
0.0873159
-0.00570423
-0.1242
0.0646998
0.0594998
0.0129104
-0.0130205
0.000110168
0.0304533
-0.0247884
-0.0056649
0.0565233
-0.0723023
0.015779
0.0963041
-0.0784229
-0.0178812
-0.00888304
-0.0551961
0.0640791
0.0686157
0.0313843
0.0309826
0.0037131
-0.0346957
0.0219578
0.0602718
-0.0822297
0.0375119
-0.0314226
-0.00608926
0.0395931
0.00233319
-0.0419263
0.0854884
0.0264124
0.107309
-0.114855
0.00754557
-0.0711417
-0.000526494
0.0716682
0.110651
-0.0111541
-0.0994966
-0.0468184
0.0130902
0.0337282
0.0125871
0.0947222
0.0572579
0.00353239
-0.0607902
0.100852
0.00779175
-0.108643
0.0802082
0.0142817
-0.0944899
0.047827
0.0245231
-0.0723501
0.0405176
0.027701
-0.0682185
0.00327773
0.0975739
0.0887365
-0.00239894
-0.0863376
0.100895
0.00975575
-0.0736645
0.0291719
0.0444926
0.0420105
-0.0456515
0.00364102
-0.0375355
0.0341857
0.00334974
0.0647045
-0.0358031
-0.0289013
-0.0086202
-0.0015325
0.0101527
0.0432115
0.0221085
-0.0599447
0.0403605
0.0195843
-0.0347228
0.0690768
-0.034354
0.0266726
0.0164488
-0.0431214
-0.103751
0.103088
0.000663413
-0.0522075
0.0192007
0.0330068
-0.0156721
-0.0626672
0.0783392
0.0380887
-0.0634596
0.0253709
0.0392526
-0.0344613
-0.0047913
0.0992485
-0.105553
0.00630399
0.0217914
-0.0228475
0.00105603
-0.0154342
-0.0626455
0.0780797
0.0395449
-0.0829869
0.043442
0.0410775
-0.0180638
-0.0230137
0.0317546
-0.0459907
0.0568388
-0.0885988
0.03176
0.117216
-0.0191528
-0.0980636
-0.111106
0.0127234
0.0365005
0.0746667