/*--------------------------------*- C++ -*----------------------------------*\
  =========                 |
  \\      /  F ield         | OpenFOAM: The Open Source CFD Toolbox
   \\    /   O peration     | Website:  https://openfoam.org
    \\  /    A nd           | Version:  9
     \\/     M anipulation  |
\*---------------------------------------------------------------------------*/
FoamFile
{
    format      ascii;
    class       volScalarField;
    location    "0.2";
    object      alpha.water;
}
// * * * * * * * * * * * * * * * * * * * * * * * * * * * * * * * * * * * * * //

dimensions      [0 0 0 0 0 0 0];

internalField   nonuniform List<scalar> 
1935
(
1
1
1
1
1
1
1
1
1
1
1
1
1
1
1
1
1
1
1
1
1
1
1
1
1
1
1
1
1
1
1
1
1
1
1
1
1
1
1
1
1
1
0.999999
1
1
1
1
1
1
1
1
1
1
1
1
1
1
1
1
1
1
1
1
1
1
1
1
1
1
1
1
1
1
1
1
1
1
1
1
1
1
1
1
1
1
1
1
1
1
1
1
1
1
1
1
1
1
1
1
1
1
1
1
1
1
1
1
1
1
1
1
1
1
1
1
1
1
1
1
1
1
1
1
1
1
1
1
1
1
1
1
1
1
1
1
1
1
1
1
1
1
1
1
1
1
1
1
1
1
1
1
1
1
1
1
1
1
1
1
1
1
1
1
1
1
1
1
1
1
1
1
1
1
0.999998
0.99995
0.999996
1
1
1
1
1
1
1
1
1
1
1
1
1
1
1
1
1
1
1
1
1
1
1
1
1
1
1
1
1
1
1
1
1
1
1
1
1
1
1
1
0.999981
0.999922
0.999916
0.999924
1
1
1
1
1
1
1
1
1
1
1
1
1
1
1
1
1
1
1
1
1
1
1
1
1
1
1
1
1
1
1
1
1
1
1
1
1
1
1
1
0.999949
0.999916
0.999917
0.999917
1
1
1
1
1
1
1
1
1
1
1
1
1
1
1
1
1
1
1
1
1
1
1
1
1
1
1
1
1
1
1
1
1
1
1
1
1
1
1
1
0.999994
0.999969
0.999945
0.999974
1
1
1
1
1
1
1
1
1
1
1
1
1
1
1
1
1
1
1
1
1
1
1
1
1
1
1
1
1
1
1
1
1
1
1
1
1
1
1
1
1
0.999999
0.999997
0.999992
1
1
1
1
1
1
1
1
1
1
1
1
1
1
1
1
1
1
1
1
1
1
1
1
1
1
1
1
1
1
1
1
1
1
1
1
1
1
1
1
1
1
0.999999
0.999992
1
1
1
1
1
1
1
1
1
1
1
1
1
1
1
1
1
1
1
1
1
1
1
1
1
1
1
1
1
1
1
1
1
1
1
1
1
0.999778
0.998259
0.977052
0.90357
0.820744
0.897035
0.994664
1
1
1
1
1
1
1
1
1
1
1
1
1
1
1
1
1
1
1
1
1
1
1
1
1
1
1
1
1
1
1
1
1
1
1
0.999999
0.999964
0.987601
0.864092
0.546997
0.269774
0.172531
0.310514
0.772897
1
1
1
1
1
1
1
1
1
1
1
1
1
1
1
1
1
1
1
1
1
1
1
1
1
1
1
1
1
1
1
1
1
1
1
0.999997
0.97878
0.744848
0.274547
0.0374273
0.0142768
0.0145135
0.0231481
0.215373
1
1
1
1
1
1
1
1
1
1
1
1
1
1
1
1
1
1
1
1
1
1
1
1
1
1
1
1
1
1
1
1
1
1
0.999993
0.988078
0.704179
0.183879
0.0134971
0.00565615
0.00402091
0.00443783
0.00841122
0.0233027
1
1
1
1
1
1
1
1
1
1
1
1
1
1
1
1
1
1
1
1
1
1
1
1
1
1
1
1
1
1
1
1
1
0.999998
0.999855
0.745753
0.188623
0.011848
0.00352213
0.00157905
0.00114571
0.00149161
0.00308331
0.00796611
1
1
1
1
1
1
1
1
1
1
1
1
1
1
1
1
1
1
1
1
1
1
1
1
1
1
1
1
1
1
1
1
1
0.999962
0.845875
0.260333
0.0118714
0.00335276
0.00104421
0.0004424
0.000333696
0.000500219
0.00107543
0.00269216
1
1
1
1
1
1
1
1
1
1
1
1
1
1
1
1
1
1
1
1
1
1
1
1
1
1
1
1
1
1
1
1
0.999988
0.955374
0.408303
0.0181706
0.0034047
0.000983137
0.000300513
0.000126318
9.84438e-05
0.000165427
0.000388032
0.00115856
1
1
1
1
1
1
1
1
1
1
1
1
1
1
1
1
1
1
1
1
1
1
1
1
1
1
1
1
1
1
1
0.999998
0.999857
0.630673
0.0634426
0.00396668
0.00100051
0.000292371
8.71993e-05
3.62983e-05
2.95032e-05
5.41384e-05
0.000150232
0.000421535
1
1
1
1
1
1
1
1
1
1
1
1
1
1
1
1
1
1
1
1
1
1
1
1
1
1
1
1
1
1
1
0.999989
0.856206
0.19757
0.00555147
0.001274
0.000297801
8.51713e-05
2.5088e-05
1.0451e-05
8.74857e-06
1.7571e-05
5.19429e-05
0.000147864
1
1
1
1
1
1
1
1
1
1
1
1
1
1
1
1
1
1
1
1
1
1
1
1
1
1
1
1
1
1
0.999997
0.999747
0.454461
0.0151159
0.00185652
0.000386028
8.74225e-05
2.45862e-05
7.14252e-06
2.98313e-06
2.54479e-06
5.44356e-06
1.70709e-05
4.93318e-05
1
1
1
1
1
1
1
1
1
1
1
1
1
1
1
1
1
1
1
1
1
1
1
1
1
1
1
1
1
1
1.00006
0.766836
0.107401
0.0032484
0.000586026
0.000114761
2.51931e-05
6.91919e-06
1.99567e-06
8.404e-07
7.24726e-07
1.63425e-06
5.32076e-06
1.63633e-05
1
1
1
1
1
1
1
1
1
1
1
1
1
1
1
1
1
1
1
1
1
1
1
1
1
1
1
1
1
0.999997
0.997
0.357753
0.00589291
0.00105148
0.000182492
3.27786e-05
7.06239e-06
1.88081e-06
5.44389e-07
2.327e-07
2.01824e-07
4.7489e-07
1.59719e-06
5.21484e-06
1.72364e-05
1
1
1
1
1
1
1
1
1
1
1
1
1
1
1
1
1
1
1
1
1
1
1
1
1
1
1
1
1
1
0.714393
0.0713565
0.00208934
0.000311376
5.17264e-05
8.93773e-06
1.90667e-06
4.93421e-07
1.44722e-07
6.33301e-08
5.51757e-08
1.33806e-07
4.64741e-07
1.59916e-06
5.67152e-06
1
1
1
1
1
1
1
1
1
1
1
1
1
1
1
1
1
1
1
1
1
1
1
1
1
1
1
1
0.999997
0.999705
0.319282
0.00393365
0.000663856
9.39843e-05
1.39824e-05
2.33501e-06
4.97891e-07
1.24616e-07
3.7692e-08
1.72934e-08
1.52836e-08
3.69599e-08
1.31479e-07
4.74262e-07
1.82126e-06
1
1
1
1
1
1
1
1
1
1
1
1
1
1
1
1
1
1
1
1
1
1
1
1
1
1
1
1
1.00001
0.707899
0.0602519
0.0014704
0.000178843
2.50833e-05
3.48786e-06
5.78711e-07
1.25564e-07
3.06219e-08
9.97655e-09
4.92044e-09
4.60322e-09
1.03214e-08
3.65418e-08
1.36272e-07
5.55667e-07
1
1
1
1
1
1
1
1
1
1
1
1
1
1
1
1
1
1
1
1
1
1
1
1
1
1
1
0.999997
0.99972
0.321276
0.00298806
0.000449316
5.10075e-05
6.3102e-06
8.59976e-07
1.38466e-07
3.05779e-08
7.6067e-09
3.02823e-09
1.95137e-09
1.8286e-09
3.13563e-09
1.01909e-08
3.81046e-08
1.59738e-07
1
1
1
1
1
1
1
1
1
1
1
1
1
1
1
1
1
1
1
1
1
1
1
1
1
1
1
1.00005
0.74623
0.0634584
0.00109695
0.000109677
1.25016e-05
1.60133e-06
2.8531e-07
3.79039e-08
7.43103e-09
2.3388e-09
1.41742e-09
1.152e-09
1.08484e-09
1.2926e-09
2.91566e-09
1.04405e-08
4.3501e-08
1
1
1
1
1
1
1
1
1
1
1
1
1
1
1
1
1
1
1
1
1
1
1
1
1
1
0.999998
0.99986
0.34962
0.00232575
0.000314762
2.76994e-05
2.88242e-06
4.65466e-07
7.68801e-08
1.27794e-08
2.23831e-09
1.13635e-09
9.78572e-10
9.36181e-10
8.61913e-10
7.7812e-10
9.96284e-10
2.79033e-09
1.12319e-08
1
1
1
1
1
1
1
1
1
1
1
1
1
1
1
1
1
1
1
1
1
1
1
1
1
1
1.00004
0.815868
0.0814221
0.000836533
7.18914e-05
6.29046e-06
8.49682e-07
1.65717e-07
2.49326e-08
4.67359e-09
1.10433e-09
8.53108e-10
8.52167e-10
8.10713e-10
7.13997e-10
5.928e-10
4.83925e-10
7.28822e-10
2.79617e-09
0.999998
0.999998
0.999999
0.999999
1
1
1
1
1
1
1
1
1
1
1
1
1
1
1
1
1
1
1
1
1
0.999998
0.999949
0.39852
0.00270248
0.000219204
1.44704e-05
1.25431e-06
2.91247e-07
5.20397e-08
1.0138e-08
2.02275e-09
8.69103e-10
7.60683e-10
7.3142e-10
6.634e-10
5.46967e-10
4.18946e-10
3.04922e-10
2.62165e-10
6.90396e-10
0.999987
0.999987
0.999993
0.999997
0.999999
0.999999
1
1
1
1
1
1
1
1
1
1
1
1
1
1
1
1
1
1
1
1.00001
0.913637
0.117817
0.000725585
4.91128e-05
3.11753e-06
4.22872e-07
1.07236e-07
1.9663e-08
4.50045e-09
1.13098e-09
7.72043e-10
6.69275e-10
5.95345e-10
5.0134e-10
3.7784e-10
2.56424e-10
1.73425e-10
1.13929e-10
1.98494e-10
0.999928
0.999932
0.999963
0.999984
0.999992
0.999996
0.999998
0.999999
0.999999
0.999999
1
1
1
1
1
1
0.999999
0.999999
0.999999
0.999999
0.999999
0.999999
0.999999
1
0.999995
0.999953
0.481868
0.00592931
0.000158674
7.80262e-06
5.51194e-07
2.1225e-07
4.6064e-08
1.0034e-08
2.42439e-09
8.2466e-10
6.66983e-10
5.60326e-10
4.56684e-10
3.45042e-10
2.32663e-10
1.40301e-10
8.06321e-11
5.30404e-11
5.17399e-11
0.99961
0.999633
0.999796
0.999908
0.999955
0.999978
0.999988
0.999992
0.999995
0.999996
0.999997
0.999998
0.999998
0.999998
0.999998
0.999997
0.999997
0.999996
0.999995
0.999994
0.999992
0.999992
0.999995
0.999998
0.999985
0.998643
0.165691
0.000623316
3.15705e-05
1.39251e-06
1.4216e-07
9.44125e-08
2.20732e-08
5.53346e-09
1.44487e-09
6.6536e-10
5.46543e-10
4.37399e-10
3.20746e-10
2.12536e-10
1.26086e-10
6.74493e-11
3.37769e-11
1.91292e-11
1.73373e-11
0.997847
0.997987
0.998861
0.999482
0.999742
0.999871
0.999928
0.999955
0.99997
0.999979
0.999983
0.999986
0.999987
0.999987
0.999986
0.999985
0.999982
0.999978
0.999973
0.999966
0.999956
0.999954
0.999977
0.999971
0.999881
0.569905
0.0143352
0.000113902
3.96373e-06
2.63146e-07
1.76888e-07
5.21913e-08
1.1768e-08
2.97136e-09
8.9474e-10
5.43424e-10
4.2093e-10
3.10007e-10
2.01895e-10
1.16238e-10
6.00623e-11
2.83237e-11
1.25968e-11
5.75808e-12
5.17083e-12
0.965054
0.980738
0.993611
0.997075
0.998529
0.999258
0.999586
0.999737
0.999823
0.999873
0.999901
0.999916
0.999923
0.999923
0.99992
0.999911
0.999897
0.999875
0.999846
0.999809
0.999754
0.999743
0.999891
0.999828
0.99902
0.22
0.000343051
1.93257e-05
5.0861e-07
1.08451e-07
1.05282e-07
2.76862e-08
5.92272e-09
1.54987e-09
6.0753e-10
4.26526e-10
2.99652e-10
1.96393e-10
1.12378e-10
5.60931e-11
2.51288e-11
1.043e-11
4.13902e-12
1.65888e-12
1.15849e-12
0.394573
0.494399
0.739779
0.935631
0.991709
0.99576
0.997624
0.998477
0.998968
0.999255
0.999418
0.999506
0.999546
0.999549
0.999531
0.999484
0.999403
0.999284
0.999124
0.998927
0.998628
0.998603
0.999343
0.999144
0.774545
0.0526861
9.30759e-05
2.37048e-06
1.77811e-07
1.65359e-07
6.47706e-08
1.16525e-08
2.64448e-09
8.37698e-10
4.37969e-10
3.09081e-10
1.9408e-10
1.10426e-10
5.48101e-11
2.37089e-11
9.23945e-12
3.39039e-12
1.21036e-12
4.39176e-13
2.36715e-13
3.23028e-19
0.00336967
0.0956155
0.331424
0.643093
0.861287
0.963843
0.991256
0.994036
0.995674
0.99661
0.997118
0.997352
0.997373
0.997277
0.997021
0.996572
0.995918
0.995052
0.994005
0.992407
0.992267
0.996212
0.994464
0.24984
0.000209678
8.45469e-06
1.64402e-07
1.23908e-07
1.20658e-07
3.24499e-08
4.0508e-09
1.14974e-09
5.03111e-10
3.10923e-10
2.00965e-10
1.12246e-10
5.473e-11
2.32973e-11
8.74875e-12
2.99972e-12
9.8064e-13
3.17766e-13
1.05497e-13
4.67633e-14
0
-1.53655e-18
0
4.9619e-10
0.0476219
0.197366
0.412256
0.61572
0.757989
0.848873
0.902767
0.931824
0.945022
0.946372
0.941843
0.928692
0.90481
0.870199
0.825435
0.773496
0.692556
0.696465
0.864449
0.693503
0.0542138
3.04039e-05
4.41362e-07
9.63268e-08
1.79936e-07
5.65869e-08
8.68547e-09
1.38939e-09
6.02689e-10
3.22123e-10
2.04196e-10
1.15327e-10
5.67507e-11
2.36694e-11
8.62188e-12
2.83014e-12
8.6592e-13
2.55562e-13
7.5241e-14
2.30059e-14
8.83644e-15
1.31004e-18
-7.92927e-18
-6.10726e-18
-1.05734e-28
-6.98503e-13
-6.69169e-14
-5.13019e-15
0.0318315
0.0967747
0.170941
0.241686
0.296493
0.329235
0.332667
0.320535
0.28833
0.243491
0.193416
0.145136
0.104209
0.0578735
0.0631011
0.189086
0.0600512
0.000347078
9.74056e-09
1.99458e-08
9.51525e-08
1.80012e-07
1.05689e-08
2.39007e-10
7.10296e-10
3.62187e-10
2.02027e-10
1.18426e-10
5.77058e-11
2.46219e-11
8.83897e-12
2.78593e-12
8.09675e-13
2.23994e-13
6.03963e-14
1.62586e-14
4.56924e-15
1.5745e-15
6.36674e-18
-1.69929e-17
-2.40938e-17
-1.87493e-15
-8.49846e-14
-3.60994e-13
-8.6716e-13
-6.03927e-12
-5.86641e-12
-4.48639e-12
-4.27915e-08
-1.38769e-06
-1.70722e-06
-3.58596e-07
-3.20952e-08
-8.52197e-10
-6.89541e-11
-2.91074e-11
-1.06908e-11
-2.25341e-12
0
-7.18475e-27
-3.04749e-09
-1.52698e-25
4.28509e-09
8.80823e-09
1.53068e-08
9.38437e-08
9.57798e-08
1.63903e-10
1.61526e-10
4.27046e-10
2.10247e-10
1.15977e-10
5.88709e-11
2.48031e-11
9.0655e-12
2.83358e-12
7.8927e-13
2.06529e-13
5.22303e-14
1.29713e-14
3.22353e-15
8.3243e-16
2.63061e-16
1.03938e-17
-2.47377e-17
-4.53003e-17
-4.30564e-15
-1.88871e-13
-2.40016e-13
-1.87497e-12
-1.31992e-11
-1.53659e-11
-1.56011e-11
-1.40454e-09
-4.07235e-08
-3.61845e-08
-1.16397e-08
-2.21249e-09
-4.60808e-10
-3.11909e-10
-1.70269e-10
-6.15551e-11
-1.21496e-11
0
4.50706e-12
-8.89298e-09
-9.19828e-34
1.03749e-08
9.33184e-09
2.77835e-08
7.86794e-08
2.77051e-08
1.58985e-10
1.56444e-10
2.65703e-10
1.11742e-10
5.78565e-11
2.46952e-11
9.00985e-12
2.82527e-12
7.80883e-13
1.96757e-13
4.71445e-14
1.10026e-14
2.53394e-15
5.85349e-16
1.39929e-16
4.14954e-17
1.11773e-17
-2.65244e-17
-6.17471e-17
-6.24948e-15
-2.76043e-13
-3.57765e-13
-2.78855e-12
-1.94627e-11
-2.3028e-11
-2.42594e-11
-1.76775e-09
-5.00396e-08
-4.03913e-08
-1.22344e-08
-2.56444e-09
-6.10103e-10
-5.10563e-10
-2.69447e-10
-8.95481e-11
-1.36189e-11
5.11009e-12
1.82106e-10
8.52757e-09
1.3349e-07
2.06306e-07
8.0978e-09
2.38573e-08
1.97606e-08
2.47759e-11
1.58979e-10
1.53517e-10
1.50741e-10
5.25778e-11
2.41436e-11
8.66875e-12
2.73515e-12
7.48043e-13
1.86185e-13
4.32519e-14
9.62454e-15
2.09179e-15
4.49883e-16
9.72381e-17
2.16996e-17
6.24762e-18
1.05545e-17
-2.28602e-17
-7.11184e-17
-7.19632e-15
-3.08761e-13
-4.20569e-13
-3.42261e-12
-2.33883e-11
-2.74783e-11
-2.82847e-11
-1.2514e-09
-2.74431e-08
-2.12738e-08
-6.39048e-09
-1.55534e-09
-5.07503e-10
-5.94886e-10
-2.89219e-10
-8.21589e-11
-5.08092e-12
2.374e-11
2.58188e-10
3.92442e-08
3.45633e-07
3.45633e-07
5.41041e-09
6.60669e-09
5.58846e-09
1.70558e-11
1.74248e-10
1.21669e-10
6.22527e-11
2.13181e-11
8.21885e-12
2.52709e-12
6.92439e-13
1.69284e-13
3.86541e-14
8.38795e-15
1.75239e-15
3.5797e-16
7.24759e-17
1.47654e-17
3.10232e-18
8.86924e-19
5.20685e-18
-1.67213e-17
-7.7406e-17
-6.92685e-15
-2.83445e-13
-4.27449e-13
-3.79405e-12
-2.49699e-11
-2.81725e-11
-2.7566e-11
-5.27984e-10
-2.88433e-09
-2.79738e-09
-1.26944e-09
-6.15487e-10
-3.70662e-10
-5.73756e-10
-2.40926e-10
-5.28855e-11
4.44095e-12
3.18537e-11
5.9575e-11
3.94142e-08
3.44482e-07
3.20613e-07
2.32745e-09
2.9299e-09
3.23294e-09
1.18602e-11
1.22965e-10
5.83241e-11
2.07773e-11
7.16015e-12
2.25032e-12
6.06289e-13
1.46836e-13
3.28953e-14
7.00588e-15
1.43371e-15
2.83778e-16
5.49994e-17
1.05763e-17
2.04758e-18
4.08777e-19
1.17491e-19
1.00022e-18
-1.13054e-17
-8.93869e-17
-5.68943e-15
-2.1384e-13
-3.98313e-13
-3.87791e-12
-2.39897e-11
-2.51631e-11
-2.31569e-11
-3.08855e-10
-1.16285e-09
-1.08641e-09
-5.40068e-10
-3.31858e-10
-2.88602e-10
-4.56896e-10
-1.61741e-10
-2.41787e-11
1.97464e-11
)
;

boundaryField
{
    leftWall
    {
        type            zeroGradient;
    }
    rightWall
    {
        type            zeroGradient;
    }
    lowerWall
    {
        type            zeroGradient;
    }
    atmosphere
    {
        type            inletOutlet;
        inletValue      nonuniform List<scalar> 0();
        value           nonuniform List<scalar> 0();
    }
    defaultFaces
    {
        type            empty;
    }
    procBoundary0to1
    {
        type            processor;
        value           nonuniform List<scalar> 
44
(
0.979935
1
1
0.999993
0.999987
0.99997
0.999976
0.999983
0.999885
0.998968
0.990383
0.93485
0.608424
0.0595332
0.0107247
0.00337934
0.00127134
0.000610583
0.000150398
5.26686e-05
5.26686e-05
6.17875e-05
2.56892e-05
9.36051e-06
3.02139e-06
8.8427e-07
2.37917e-07
6.01091e-08
1.44235e-08
3.34464e-09
7.69366e-10
1.88984e-10
4.5787e-11
2.07247e-11
6.96326e-12
1.25196e-12
1.96318e-13
3.11485e-14
4.74743e-15
6.91217e-16
9.59071e-17
1.25924e-17
1.58247e-18
1.89442e-19
)
;
    }
    procBoundary0to2
    {
        type            processor;
        value           nonuniform List<scalar> 
46
(
4.57814e-11
6.22388e-11
7.00735e-10
3.65039e-08
8.47693e-08
2.17221e-09
2.11347e-09
1.14574e-09
1.01244e-11
5.38108e-11
2.03437e-11
5.78189e-12
1.89835e-12
4.92441e-13
1.1879e-13
2.6193e-14
5.49259e-15
1.1065e-15
2.15524e-16
4.0786e-17
7.57303e-18
1.39624e-18
2.59102e-19
4.94596e-20
1.40658e-20
-1.52298e-21
-8.64943e-18
-1.1772e-16
-4.26162e-15
-1.31337e-13
-3.66308e-13
-3.66098e-12
-2.048e-11
-1.94667e-11
-1.70503e-11
-1.57262e-10
-5.39225e-10
-4.78536e-10
-2.35922e-10
-1.6541e-10
-2.13678e-10
-2.91875e-10
-8.98854e-11
-1.65486e-12
4.57814e-11
2.73698e-11
)
;
    }
}


// ************************************************************************* //
