/*--------------------------------*- C++ -*----------------------------------*\
  =========                 |
  \\      /  F ield         | OpenFOAM: The Open Source CFD Toolbox
   \\    /   O peration     | Website:  https://openfoam.org
    \\  /    A nd           | Version:  9
     \\/     M anipulation  |
\*---------------------------------------------------------------------------*/
FoamFile
{
    format      ascii;
    class       surfaceScalarField;
    location    "0.2";
    object      alphaPhi0.water;
}
// * * * * * * * * * * * * * * * * * * * * * * * * * * * * * * * * * * * * * //

dimensions      [0 3 -1 0 0 0 0];

internalField   nonuniform List<scalar> 
3781
(
-1.08292e-06
1.08292e-06
7.15768e-07
-1.79869e-06
3.87295e-06
-3.15718e-06
7.43227e-06
-3.55932e-06
1.09917e-05
-3.55947e-06
1.44225e-05
-3.43072e-06
1.7702e-05
-3.27958e-06
2.08449e-05
-3.14283e-06
2.38764e-05
-3.03149e-06
2.68234e-05
-2.94701e-06
2.97108e-05
-2.88744e-06
3.25608e-05
-2.84997e-06
3.53928e-05
-2.83203e-06
3.82244e-05
-2.83155e-06
4.10713e-05
-2.84693e-06
4.39482e-05
-2.87691e-06
4.68686e-05
-2.92043e-06
4.98451e-05
-2.97644e-06
5.28889e-05
-3.04379e-06
5.60099e-05
-3.121e-06
5.9216e-05
-3.20614e-06
6.25126e-05
-3.29664e-06
6.59017e-05
-3.38905e-06
6.93806e-05
-3.47888e-06
7.29409e-05
-3.56032e-06
7.65668e-05
-3.62593e-06
8.02333e-05
-3.66647e-06
8.39038e-05
-3.67053e-06
8.75281e-05
-3.62424e-06
9.1039e-05
-3.51091e-06
9.43494e-05
-3.31046e-06
9.73475e-05
-2.99809e-06
9.98905e-05
-2.543e-06
0.000101782
-1.89142e-06
0.000102745
-9.6349e-07
0.000102325
4.2028e-07
9.97212e-05
2.60396e-06
9.4399e-05
5.32217e-06
8.58101e-05
8.58891e-06
7.36014e-05
1.22087e-05
5.7929e-05
1.56724e-05
3.983e-05
1.8099e-05
2.12033e-05
1.86266e-05
1.69086e-05
1.21663e-06
-1.33713e-07
3.76284e-06
-4.3449e-06
6.86771e-06
-6.26205e-06
1.01144e-05
-6.80604e-06
1.33361e-05
-6.78111e-06
1.64691e-05
-6.56375e-06
1.94987e-05
-6.30915e-06
2.24333e-05
-6.07742e-06
2.52904e-05
-5.88862e-06
2.809e-05
-5.74662e-06
3.08518e-05
-5.64926e-06
3.35944e-05
-5.59255e-06
3.63348e-05
-5.57249e-06
3.90889e-05
-5.58558e-06
4.18708e-05
-5.6289e-06
4.46939e-05
-5.69996e-06
4.75699e-05
-5.79646e-06
5.05095e-05
-5.91604e-06
5.35217e-05
-6.05599e-06
5.66137e-05
-6.21297e-06
5.97903e-05
-6.38271e-06
6.30533e-05
-6.55969e-06
6.64011e-05
-6.73677e-06
6.9827e-05
-6.90481e-06
7.33189e-05
-7.0522e-06
7.68573e-05
-7.16438e-06
8.04142e-05
-7.22338e-06
8.3951e-05
-7.20729e-06
8.74164e-05
-7.08962e-06
9.07442e-05
-6.83875e-06
9.38508e-05
-6.41704e-06
9.66323e-05
-5.7796e-06
9.89623e-05
-4.87301e-06
0.000100703
-3.63169e-06
0.000101726
-1.9871e-06
0.00010196
1.86035e-07
0.00010155
3.01473e-06
0.000100112
6.7603e-06
9.71182e-05
1.15823e-05
9.17544e-05
1.75724e-05
8.29696e-05
2.44572e-05
6.97943e-05
3.12744e-05
5.21402e-05
3.62806e-05
3.73034e-05
2.45172e-06
-2.58543e-06
5.5444e-06
-7.43758e-06
8.69368e-06
-9.41132e-06
1.17874e-05
-9.8998e-06
1.47946e-05
-9.78827e-06
1.77098e-05
-9.47898e-06
2.05405e-05
-9.13979e-06
2.33e-05
-8.83696e-06
2.60046e-05
-8.59322e-06
2.86712e-05
-8.41325e-06
3.13166e-05
-8.29462e-06
3.39567e-05
-8.23262e-06
3.66064e-05
-8.22225e-06
3.92797e-05
-8.25887e-06
4.19892e-05
-8.33841e-06
4.47464e-05
-8.45712e-06
4.75613e-05
-8.61139e-06
5.04426e-05
-8.79734e-06
5.33971e-05
-9.01054e-06
5.64297e-05
-9.24557e-06
5.95427e-05
-9.49567e-06
6.27353e-05
-9.75226e-06
6.6003e-05
-1.00045e-05
6.93368e-05
-1.02386e-05
7.2722e-05
-1.04374e-05
7.61373e-05
-1.05797e-05
7.95534e-05
-1.06394e-05
8.2931e-05
-1.0585e-05
8.622e-05
-1.03786e-05
8.93567e-05
-9.97547e-06
9.22626e-05
-9.32296e-06
9.48426e-05
-8.35957e-06
9.69837e-05
-7.01414e-06
9.85573e-05
-5.20524e-06
9.9409e-05
-2.83886e-06
9.9417e-05
1.78023e-07
9.84404e-05
3.99141e-06
9.64208e-05
8.77981e-06
9.32597e-05
1.47434e-05
8.87831e-05
2.2049e-05
8.25517e-05
3.06887e-05
7.36566e-05
4.01695e-05
6.09069e-05
4.90303e-05
5.44446e-05
2.9575e-06
-5.54293e-06
6.49594e-06
-1.0976e-05
9.80513e-06
-1.27205e-05
1.28764e-05
-1.2971e-05
1.57766e-05
-1.26885e-05
1.85559e-05
-1.22583e-05
2.1248e-05
-1.18318e-05
2.38769e-05
-1.1466e-05
2.64626e-05
-1.11788e-05
2.9022e-05
-1.09727e-05
3.15712e-05
-1.08438e-05
3.41248e-05
-1.07862e-05
3.66962e-05
-1.07937e-05
3.92981e-05
-1.08607e-05
4.19416e-05
-1.09819e-05
4.46368e-05
-1.11523e-05
4.73923e-05
-1.13668e-05
5.02149e-05
-1.162e-05
5.31099e-05
-1.19055e-05
5.60802e-05
-1.22159e-05
5.91262e-05
-1.25417e-05
6.22452e-05
-1.28713e-05
6.54309e-05
-1.31902e-05
6.86726e-05
-1.34802e-05
7.19541e-05
-1.3719e-05
7.52534e-05
-1.38789e-05
7.85405e-05
-1.39266e-05
8.17773e-05
-1.38217e-05
8.49152e-05
-1.35165e-05
8.78944e-05
-1.29547e-05
9.06422e-05
-1.20707e-05
9.3072e-05
-1.07894e-05
9.5083e-05
-9.02507e-06
9.65594e-05
-6.68171e-06
9.73733e-05
-3.65268e-06
9.73803e-05
1.70998e-07
9.64421e-05
4.92961e-06
9.44381e-05
1.07838e-05
9.12604e-05
1.79211e-05
8.67937e-05
2.65157e-05
8.08357e-05
3.66467e-05
7.29128e-05
4.80898e-05
6.20724e-05
5.98652e-05
6.9473e-05
3.18279e-06
-8.72572e-06
6.97665e-06
-1.47699e-05
1.04158e-05
-1.61596e-05
1.35092e-05
-1.60644e-05
1.63674e-05
-1.55468e-05
1.90727e-05
-1.49636e-05
2.1678e-05
-1.4437e-05
2.42176e-05
-1.40056e-05
2.67164e-05
-1.36776e-05
2.91937e-05
-1.34501e-05
3.16661e-05
-1.33161e-05
3.4148e-05
-1.3268e-05
3.66524e-05
-1.32981e-05
3.9191e-05
-1.33994e-05
4.17742e-05
-1.35651e-05
4.44109e-05
-1.3789e-05
4.71084e-05
-1.40643e-05
4.98724e-05
-1.4384e-05
5.27067e-05
-1.47399e-05
5.56129e-05
-1.5122e-05
5.85899e-05
-1.55186e-05
6.16336e-05
-1.5915e-05
6.47365e-05
-1.62931e-05
6.78868e-05
-1.66305e-05
7.10678e-05
-1.69e-05
7.42571e-05
-1.70682e-05
7.74255e-05
-1.7095e-05
8.05361e-05
-1.69323e-05
8.35434e-05
-1.65237e-05
8.63917e-05
-1.5803e-05
8.90152e-05
-1.46942e-05
9.13367e-05
-1.31109e-05
9.32677e-05
-1.09561e-05
9.47093e-05
-8.12334e-06
9.55534e-05
-4.49679e-06
9.56785e-05
4.59114e-08
9.49623e-05
5.64586e-06
9.32747e-05
1.24714e-05
9.04729e-05
2.07229e-05
8.63752e-05
3.06134e-05
8.07104e-05
4.23044e-05
7.3044e-05
5.57538e-05
6.25854e-05
7.03227e-05
8.39801e-05
3.29702e-06
-1.20227e-05
7.19796e-06
-1.86708e-05
1.06952e-05
-1.96569e-05
1.38026e-05
-1.91718e-05
1.66429e-05
-1.83871e-05
1.93096e-05
-1.76303e-05
2.18638e-05
-1.69913e-05
2.43461e-05
-1.64879e-05
2.67849e-05
-1.61164e-05
2.9202e-05
-1.58672e-05
3.16151e-05
-1.57293e-05
3.40392e-05
-1.56921e-05
3.64873e-05
-1.57462e-05
3.89706e-05
-1.58827e-05
4.14991e-05
-1.60936e-05
4.40808e-05
-1.63707e-05
4.67223e-05
-1.67058e-05
4.94283e-05
-1.709e-05
5.22016e-05
-1.75131e-05
5.50426e-05
-1.7963e-05
5.79492e-05
-1.84253e-05
6.09166e-05
-1.88824e-05
6.39362e-05
-1.93128e-05
6.69959e-05
-1.96902e-05
7.00789e-05
-1.9983e-05
7.31631e-05
-2.01524e-05
7.62205e-05
-2.01524e-05
7.92164e-05
-1.99283e-05
8.21086e-05
-1.94159e-05
8.48467e-05
-1.85411e-05
8.73717e-05
-1.72193e-05
8.96165e-05
-1.53556e-05
9.15059e-05
-1.28455e-05
9.29582e-05
-9.57567e-06
9.38861e-05
-5.42468e-06
9.41946e-05
-2.62583e-07
9.37814e-05
6.05904e-06
9.25253e-05
1.37275e-05
9.02641e-05
2.29841e-05
8.67552e-05
3.41222e-05
8.16193e-05
4.74356e-05
7.42895e-05
6.30826e-05
6.3914e-05
8.06971e-05
9.8626e-05
3.35468e-06
-1.53774e-05
7.26608e-06
-2.25822e-05
1.0757e-05
-2.31478e-05
1.38534e-05
-2.22681e-05
1.66773e-05
-2.12111e-05
1.93206e-05
-2.02736e-05
2.18444e-05
-1.95151e-05
2.42905e-05
-1.89339e-05
2.6689e-05
-1.85149e-05
2.90631e-05
-1.82413e-05
3.14314e-05
-1.80976e-05
3.38096e-05
-1.80703e-05
3.62107e-05
-1.81474e-05
3.86462e-05
-1.83182e-05
4.11253e-05
-1.85727e-05
4.36559e-05
-1.89012e-05
4.62438e-05
-1.92937e-05
4.8893e-05
-1.97393e-05
5.16056e-05
-2.02257e-05
5.43812e-05
-2.07386e-05
5.7217e-05
-2.12612e-05
6.01075e-05
-2.17729e-05
6.3044e-05
-2.22492e-05
6.60141e-05
-2.26603e-05
6.90013e-05
-2.29702e-05
7.19845e-05
-2.31356e-05
7.49373e-05
-2.31052e-05
7.78275e-05
-2.28185e-05
8.06166e-05
-2.2205e-05
8.32595e-05
-2.1184e-05
8.57048e-05
-1.96646e-05
8.78951e-05
-1.75459e-05
8.97687e-05
-1.47191e-05
9.12608e-05
-1.10677e-05
9.23045e-05
-6.46841e-06
9.28287e-05
-7.86775e-07
9.27512e-05
6.13651e-06
9.19598e-05
1.45189e-05
9.02756e-05
2.46684e-05
8.74002e-05
3.69976e-05
8.28552e-05
5.19805e-05
7.59186e-05
7.00207e-05
6.56478e-05
9.09737e-05
0.000113449
3.37546e-06
-1.87529e-05
7.23493e-06
-2.64417e-05
1.06728e-05
-2.65856e-05
1.37335e-05
-2.53289e-05
1.65336e-05
-2.40111e-05
1.91567e-05
-2.28968e-05
2.16594e-05
-2.20177e-05
2.40812e-05
-2.13558e-05
2.6452e-05
-2.08857e-05
2.8795e-05
-2.05844e-05
3.11295e-05
-2.0432e-05
3.34711e-05
-2.04119e-05
3.58332e-05
-2.05095e-05
3.82271e-05
-2.0712e-05
4.06619e-05
-2.10076e-05
4.3145e-05
-2.13844e-05
4.56819e-05
-2.18306e-05
4.82761e-05
-2.23334e-05
5.09289e-05
-2.28785e-05
5.36395e-05
-2.34493e-05
5.64048e-05
-2.40264e-05
5.92188e-05
-2.4587e-05
6.20728e-05
-2.51032e-05
6.49547e-05
-2.55422e-05
6.78486e-05
-2.5864e-05
7.07345e-05
-2.60215e-05
7.3588e-05
-2.59587e-05
7.63795e-05
-2.561e-05
7.90743e-05
-2.48998e-05
8.16325e-05
-2.37423e-05
8.40098e-05
-2.20419e-05
8.61584e-05
-1.96945e-05
8.80287e-05
-1.65894e-05
8.95714e-05
-1.26104e-05
9.07375e-05
-7.63456e-06
9.14747e-05
-1.52394e-06
9.17142e-05
5.89704e-06
9.13413e-05
1.48917e-05
9.01443e-05
2.58654e-05
8.77453e-05
3.93966e-05
8.35429e-05
5.61829e-05
7.66967e-05
7.68668e-05
6.63923e-05
0.000101278
0.000128196
3.36848e-06
-2.21214e-05
7.13531e-06
-3.02085e-05
1.04888e-05
-2.99392e-05
1.34945e-05
-2.83346e-05
1.62608e-05
-2.67774e-05
1.8861e-05
-2.54971e-05
2.13447e-05
-2.45013e-05
2.37475e-05
-2.37586e-05
2.60974e-05
-2.32356e-05
2.84168e-05
-2.29038e-05
3.07246e-05
-2.27398e-05
3.30364e-05
-2.27237e-05
3.53655e-05
-2.28386e-05
3.77229e-05
-2.30695e-05
4.01176e-05
-2.34023e-05
4.25567e-05
-2.38234e-05
4.50451e-05
-2.43191e-05
4.75861e-05
-2.48743e-05
5.01805e-05
-2.54729e-05
5.28272e-05
-2.6096e-05
5.55228e-05
-2.6722e-05
5.82613e-05
-2.73255e-05
6.10342e-05
-2.78761e-05
6.38297e-05
-2.83377e-05
6.66329e-05
-2.86673e-05
6.94252e-05
-2.88138e-05
7.21838e-05
-2.87173e-05
7.48819e-05
-2.83081e-05
7.74883e-05
-2.75062e-05
7.99679e-05
-2.62219e-05
8.22825e-05
-2.43565e-05
8.43925e-05
-2.18045e-05
8.62586e-05
-1.84555e-05
8.78435e-05
-1.41953e-05
8.91108e-05
-8.90189e-06
9.00181e-05
-2.43119e-06
9.0495e-05
5.42017e-06
9.03973e-05
1.49894e-05
8.9422e-05
2.68407e-05
8.69993e-05
4.18193e-05
8.22845e-05
6.08985e-05
7.43968e-05
8.47538e-05
6.3489e-05
0.000112184
0.000142256
3.33934e-06
-2.54607e-05
6.98686e-06
-3.3856e-05
1.02363e-05
-3.31886e-05
1.31728e-05
-3.12711e-05
1.58958e-05
-2.95003e-05
1.84677e-05
-2.8069e-05
2.09304e-05
-2.6964e-05
2.3315e-05
-2.61432e-05
2.56466e-05
-2.55671e-05
2.79461e-05
-2.52034e-05
3.02315e-05
-2.50251e-05
3.25179e-05
-2.501e-05
3.48181e-05
-2.51388e-05
3.71428e-05
-2.53942e-05
3.95008e-05
-2.57602e-05
4.18985e-05
-2.62212e-05
4.43409e-05
-2.67614e-05
4.68305e-05
-2.7364e-05
4.93681e-05
-2.80105e-05
5.19524e-05
-2.86802e-05
5.45797e-05
-2.93494e-05
5.72443e-05
-2.99901e-05
5.99379e-05
-3.05697e-05
6.26495e-05
-3.10492e-05
6.53649e-05
-3.13827e-05
6.80669e-05
-3.15158e-05
7.07345e-05
-3.13849e-05
7.33431e-05
-3.09167e-05
7.58645e-05
-3.00276e-05
7.82674e-05
-2.86247e-05
8.05185e-05
-2.66076e-05
8.25841e-05
-2.38701e-05
8.4432e-05
-2.03033e-05
8.60314e-05
-1.57947e-05
8.73506e-05
-1.02211e-05
8.83428e-05
-3.42341e-06
8.89088e-05
4.85426e-06
8.87859e-05
1.50353e-05
8.70188e-05
2.65145e-05
7.92254e-05
3.46957e-05
6.35785e-05
3.67505e-05
5.35404e-05
3.67356e-05
5.00136e-05
6.89989e-05
0.00013873
3.34926e-06
-2.881e-05
6.92369e-06
-3.74305e-05
1.01122e-05
-3.63772e-05
1.30201e-05
-3.4179e-05
1.57388e-05
-3.2219e-05
1.83213e-05
-3.06515e-05
2.08024e-05
-2.94451e-05
2.32089e-05
-2.85497e-05
2.55631e-05
-2.79214e-05
2.78845e-05
-2.75247e-05
3.01897e-05
-2.73304e-05
3.24933e-05
-2.73136e-05
3.48077e-05
-2.74531e-05
3.71431e-05
-2.77296e-05
3.9508e-05
-2.81251e-05
4.19086e-05
-2.86219e-05
4.43494e-05
-2.92022e-05
4.68328e-05
-2.98474e-05
4.93593e-05
-3.0537e-05
5.19274e-05
-3.12483e-05
5.45336e-05
-3.19556e-05
5.71722e-05
-3.26287e-05
5.98351e-05
-3.32326e-05
6.25118e-05
-3.37259e-05
6.5189e-05
-3.40599e-05
6.78502e-05
-3.41769e-05
7.04755e-05
-3.40103e-05
7.30417e-05
-3.34829e-05
7.55222e-05
-3.25081e-05
7.78878e-05
-3.09903e-05
8.01076e-05
-2.88274e-05
8.21505e-05
-2.5913e-05
8.39861e-05
-2.21389e-05
8.55834e-05
-1.73921e-05
8.69026e-05
-1.15404e-05
8.78701e-05
-4.3911e-06
8.82996e-05
4.37751e-06
8.25605e-05
1.33407e-05
5.50407e-05
1.50177e-05
2.30549e-05
4.94997e-06
1.27848e-05
1.8184e-06
1.29836e-05
2.77498e-06
2.07328e-05
7.15808e-06
6.39449e-05
3.31433e-06
-3.21243e-05
6.76865e-06
-4.08848e-05
9.85778e-06
-3.94663e-05
1.27022e-05
-3.70235e-05
1.53843e-05
-3.4901e-05
1.79474e-05
-3.32146e-05
2.04196e-05
-3.19174e-05
2.28232e-05
-3.09533e-05
2.51775e-05
-3.02756e-05
2.74994e-05
-2.98467e-05
2.98043e-05
-2.96353e-05
3.21056e-05
-2.96149e-05
3.44149e-05
-2.97624e-05
3.67417e-05
-3.00565e-05
3.90939e-05
-3.04773e-05
4.14773e-05
-3.10053e-05
4.3896e-05
-3.16209e-05
4.63521e-05
-3.23035e-05
4.88459e-05
-3.30308e-05
5.13759e-05
-3.37783e-05
5.39386e-05
-3.45183e-05
5.65287e-05
-3.52187e-05
5.91385e-05
-3.58424e-05
6.1758e-05
-3.63455e-05
6.43747e-05
-3.66765e-05
6.69728e-05
-3.6775e-05
6.95332e-05
-3.65708e-05
7.20337e-05
-3.59834e-05
7.44484e-05
-3.49228e-05
7.67487e-05
-3.32907e-05
7.89042e-05
-3.09828e-05
8.08829e-05
-2.78918e-05
8.26517e-05
-2.39076e-05
8.41704e-05
-1.89108e-05
8.53736e-05
-1.27436e-05
8.59875e-05
-5.00652e-06
7.5558e-05
3.4688e-06
3.51563e-05
5.35358e-06
5.90366e-06
4.70616e-07
3.06368e-06
4.97652e-07
2.70006e-06
6.45613e-07
2.81993e-06
1.12061e-06
4.80878e-06
2.85118e-06
1.0279e-05
3.26523e-06
-3.53895e-05
6.58928e-06
-4.42088e-05
9.57195e-06
-4.2449e-05
1.23455e-05
-3.9797e-05
1.49829e-05
-3.75384e-05
1.7519e-05
-3.57506e-05
1.99756e-05
-3.43741e-05
2.23709e-05
-3.33486e-05
2.47209e-05
-3.26256e-05
2.70405e-05
-3.21662e-05
2.93431e-05
-3.19379e-05
3.16409e-05
-3.19127e-05
3.39443e-05
-3.20658e-05
3.62621e-05
-3.23743e-05
3.86015e-05
-3.28166e-05
4.09677e-05
-3.33715e-05
4.33643e-05
-3.40175e-05
4.57932e-05
-3.47324e-05
4.82546e-05
-3.54922e-05
5.0747e-05
-3.62706e-05
5.3267e-05
-3.70383e-05
5.58096e-05
-3.77613e-05
5.83676e-05
-3.84004e-05
6.09315e-05
-3.89094e-05
6.34892e-05
-3.92342e-05
6.60254e-05
-3.93112e-05
6.85212e-05
-3.90666e-05
7.09542e-05
-3.84164e-05
7.32981e-05
-3.72667e-05
7.5523e-05
-3.55156e-05
7.75963e-05
-3.30561e-05
7.94816e-05
-2.97772e-05
8.11371e-05
-2.55631e-05
8.2503e-05
-2.02766e-05
8.34063e-05
-1.36485e-05
7.31984e-05
-5.62841e-06
2.81828e-05
1.24216e-06
2.38331e-06
1.99978e-07
1.08594e-06
2.07985e-07
7.98579e-07
1.7459e-07
7.58298e-07
2.23307e-07
9.58452e-07
4.55155e-07
1.81228e-06
1.156e-06
4.51299e-06
3.204e-06
-3.85935e-05
6.39068e-06
-4.73955e-05
9.26205e-06
-4.53203e-05
1.19586e-05
-4.24936e-05
1.4544e-05
-4.01239e-05
1.70455e-05
-3.82521e-05
1.94796e-05
-3.68082e-05
2.18605e-05
-3.57294e-05
2.42012e-05
-3.49663e-05
2.65143e-05
-3.44794e-05
2.88115e-05
-3.42351e-05
3.11033e-05
-3.42046e-05
3.33991e-05
-3.43616e-05
3.57066e-05
-3.46818e-05
3.80322e-05
-3.51422e-05
4.03805e-05
-3.57198e-05
4.27547e-05
-3.63917e-05
4.51563e-05
-3.7134e-05
4.75854e-05
-3.79213e-05
5.00406e-05
-3.87259e-05
5.25189e-05
-3.95165e-05
5.50153e-05
-4.02577e-05
5.75231e-05
-4.09083e-05
6.00333e-05
-4.14196e-05
6.25337e-05
-4.17346e-05
6.50089e-05
-4.17864e-05
6.74398e-05
-4.14974e-05
6.98025e-05
-4.07791e-05
7.2069e-05
-3.95331e-05
7.42063e-05
-3.76529e-05
7.61767e-05
-3.50265e-05
7.79363e-05
-3.15368e-05
7.9427e-05
-2.70537e-05
8.04878e-05
-2.1339e-05
7.60957e-05
-1.26867e-05
3.10561e-05
-3.59098e-06
1.61229e-06
5.83824e-08
4.97153e-07
1.00718e-07
2.65752e-07
7.14072e-08
2.02261e-07
5.96569e-08
2.12909e-07
7.72508e-08
3.24254e-07
1.82015e-07
6.40278e-07
5.13659e-07
2.2104e-06
3.13242e-06
-4.1726e-05
6.17665e-06
-5.04397e-05
8.93323e-06
-4.80769e-05
1.15475e-05
-4.51078e-05
1.40744e-05
-4.26507e-05
1.65341e-05
-4.07118e-05
1.89386e-05
-3.92127e-05
2.12986e-05
-3.80893e-05
2.36244e-05
-3.72921e-05
2.59263e-05
-3.67813e-05
2.8214e-05
-3.65229e-05
3.04967e-05
-3.64872e-05
3.27822e-05
-3.66471e-05
3.50772e-05
-3.69769e-05
3.73873e-05
-3.74523e-05
3.97164e-05
-3.80489e-05
4.20672e-05
-3.87425e-05
4.44411e-05
-3.95079e-05
4.6838e-05
-4.03182e-05
4.92566e-05
-4.11444e-05
5.1694e-05
-4.19539e-05
5.41457e-05
-4.27095e-05
5.66052e-05
-4.33678e-05
5.90634e-05
-4.38778e-05
6.15081e-05
-4.41793e-05
6.39233e-05
-4.42016e-05
6.62881e-05
-4.38623e-05
6.85768e-05
-4.30678e-05
7.07578e-05
-4.17141e-05
7.27934e-05
-3.96886e-05
7.46393e-05
-3.68723e-05
7.62396e-05
-3.31372e-05
7.75018e-05
-2.83169e-05
7.66319e-05
-2.04892e-05
4.05506e-05
-1.11697e-05
1.58774e-06
-1.07081e-06
3.88843e-07
3.17666e-08
1.24884e-07
3.61484e-08
6.29156e-08
2.50348e-08
5.21391e-08
1.97789e-08
6.28174e-08
2.58093e-08
1.1916e-07
6.86106e-08
3.06929e-07
2.10555e-07
9.47061e-07
3.0519e-06
-4.47779e-05
5.94987e-06
-5.33377e-05
8.58892e-06
-5.0716e-05
1.11163e-05
-4.76352e-05
1.35784e-05
-4.51128e-05
1.59895e-05
-4.31228e-05
1.83576e-05
-4.15808e-05
2.06902e-05
-4.0422e-05
2.29952e-05
-3.95971e-05
2.52806e-05
-3.90667e-05
2.75544e-05
-3.87966e-05
2.98239e-05
-3.87567e-05
3.20957e-05
-3.89189e-05
3.43755e-05
-3.92567e-05
3.66677e-05
-3.97445e-05
3.89758e-05
-4.0357e-05
4.1302e-05
-4.10687e-05
4.36473e-05
-4.18532e-05
4.60117e-05
-4.26827e-05
4.83941e-05
-4.35267e-05
5.07916e-05
-4.43515e-05
5.32001e-05
-4.5118e-05
5.56131e-05
-4.57807e-05
5.80212e-05
-4.62859e-05
6.04115e-05
-4.65696e-05
6.27666e-05
-4.65566e-05
6.50636e-05
-4.61592e-05
6.72732e-05
-4.52775e-05
6.93595e-05
-4.38003e-05
7.12786e-05
-4.16077e-05
7.29778e-05
-3.85714e-05
7.43833e-05
-3.45425e-05
7.50559e-05
-2.89937e-05
5.40372e-05
-2.09097e-05
4.31042e-06
-4.12153e-06
4.2562e-07
-2.1153e-07
1.04393e-07
1.6707e-08
2.9546e-08
1.36811e-08
1.48766e-08
8.44786e-09
1.37096e-08
6.34178e-09
1.89753e-08
8.36864e-09
4.36562e-08
2.4176e-08
1.35616e-07
7.94649e-08
3.39093e-07
2.96353e-06
-4.77414e-05
5.71207e-06
-5.60862e-05
8.23117e-06
-5.32351e-05
1.06674e-05
-5.00715e-05
1.30589e-05
-4.75043e-05
1.54149e-05
-4.54789e-05
1.774e-05
-4.39059e-05
2.00389e-05
-4.27208e-05
2.23171e-05
-4.18753e-05
2.45805e-05
-4.13301e-05
2.68353e-05
-4.10514e-05
2.90872e-05
-4.10086e-05
3.13415e-05
-4.11732e-05
3.36026e-05
-4.15178e-05
3.58741e-05
-4.20161e-05
3.81589e-05
-4.26417e-05
4.04586e-05
-4.33684e-05
4.27743e-05
-4.41689e-05
4.51058e-05
-4.50142e-05
4.74521e-05
-4.5873e-05
4.98107e-05
-4.67101e-05
5.21774e-05
-4.74846e-05
5.45454e-05
-4.81487e-05
5.69048e-05
-4.86453e-05
5.92414e-05
-4.89063e-05
6.15357e-05
-4.8851e-05
6.37617e-05
-4.83852e-05
6.5886e-05
-4.74017e-05
6.7867e-05
-4.57813e-05
6.96541e-05
-4.33949e-05
7.11827e-05
-4.01e-05
7.22878e-05
-3.56481e-05
6.8543e-05
-2.54558e-05
1.60993e-05
-1.15339e-05
6.68927e-07
-1.03447e-06
1.18395e-07
-1.97013e-08
2.77976e-08
9.34134e-09
6.88017e-09
4.95639e-09
3.5312e-09
2.65018e-09
3.6824e-09
1.95806e-09
5.6699e-09
2.61758e-09
1.50326e-08
8.12969e-09
4.93989e-08
2.77712e-08
1.11318e-07
2.86805e-06
-5.06094e-05
5.46416e-06
-5.86824e-05
7.86089e-06
-5.56318e-05
1.02019e-05
-5.24124e-05
1.25174e-05
-4.98199e-05
1.48123e-05
-4.77737e-05
1.7088e-05
-4.61817e-05
1.9347e-05
-4.49798e-05
2.15924e-05
-4.41207e-05
2.38283e-05
-4.3566e-05
2.60589e-05
-4.32821e-05
2.82885e-05
-4.32382e-05
3.05209e-05
-4.34055e-05
3.27595e-05
-4.37564e-05
3.5007e-05
-4.42636e-05
3.72656e-05
-4.49004e-05
3.95368e-05
-4.56396e-05
4.18213e-05
-4.64534e-05
4.41192e-05
-4.73121e-05
4.64295e-05
-4.81833e-05
4.87498e-05
-4.90303e-05
5.10756e-05
-4.98104e-05
5.33997e-05
-5.04729e-05
5.57112e-05
-5.09568e-05
5.79939e-05
-5.1189e-05
6.02255e-05
-5.10825e-05
6.2376e-05
-5.05357e-05
6.44071e-05
-4.94329e-05
6.62712e-05
-4.76454e-05
6.79096e-05
-4.50333e-05
6.92332e-05
-4.14245e-05
6.89864e-05
-3.54063e-05
3.53555e-05
-2.38222e-05
1.38763e-06
-3.1563e-06
1.72868e-07
-2.65289e-07
3.15048e-08
4.62543e-09
7.11256e-09
4.4133e-09
1.64515e-09
1.75745e-09
8.54721e-10
8.12944e-10
9.96211e-10
5.83297e-10
1.66457e-09
7.93887e-10
4.83056e-09
2.65691e-09
1.62377e-08
1.00034e-08
4.52039e-08
2.76588e-06
-5.33753e-05
5.20634e-06
-6.11228e-05
7.47799e-06
-5.79035e-05
9.71956e-06
-5.4654e-05
1.1954e-05
-5.20543e-05
1.4182e-05
-5.00018e-05
1.64026e-05
-4.84022e-05
1.86157e-05
-4.71929e-05
2.08226e-05
-4.63277e-05
2.30255e-05
-4.57689e-05
2.52267e-05
-4.54833e-05
2.7429e-05
-4.54405e-05
2.96349e-05
-4.56114e-05
3.18467e-05
-4.59682e-05
3.40665e-05
-4.64834e-05
3.62958e-05
-4.71297e-05
3.85359e-05
-4.78797e-05
4.07876e-05
-4.87051e-05
4.30508e-05
-4.95754e-05
4.53247e-05
-5.04572e-05
4.76068e-05
-5.13124e-05
4.98922e-05
-5.20959e-05
5.2173e-05
-5.27536e-05
5.44363e-05
-5.32201e-05
5.66637e-05
-5.34164e-05
5.88291e-05
-5.32479e-05
6.08981e-05
-5.26047e-05
6.28267e-05
-5.13615e-05
6.45608e-05
-4.93796e-05
6.60316e-05
-4.65043e-05
6.70178e-05
-4.24115e-05
5.63897e-05
-3.30969e-05
5.5445e-06
-1.03566e-05
3.9474e-07
-8.31864e-07
3.99129e-08
-5.67285e-08
7.2146e-09
3.54136e-09
1.65323e-09
1.55712e-09
3.90685e-10
5.37899e-10
2.12739e-10
2.39602e-10
2.70275e-10
1.68934e-10
4.83594e-10
2.33107e-10
1.55572e-09
8.33718e-10
5.91951e-09
3.39692e-09
1.6718e-08
2.65716e-06
-5.60325e-05
4.93813e-06
-6.34038e-05
7.08151e-06
-6.00468e-05
9.2194e-06
-5.67919e-05
1.13677e-05
-5.42025e-05
1.35235e-05
-5.21576e-05
1.56834e-05
-5.05622e-05
1.78453e-05
-4.93548e-05
2.00084e-05
-4.84907e-05
2.21728e-05
-4.79333e-05
2.43394e-05
-4.76499e-05
2.65094e-05
-4.76104e-05
2.8684e-05
-4.77861e-05
3.08647e-05
-4.81489e-05
3.30527e-05
-4.86714e-05
3.52493e-05
-4.93263e-05
3.74555e-05
-5.0086e-05
3.96721e-05
-5.09216e-05
4.18992e-05
-5.18025e-05
4.41359e-05
-5.26939e-05
4.63794e-05
-5.35559e-05
4.86244e-05
-5.43408e-05
5.08612e-05
-5.49905e-05
5.30751e-05
-5.54341e-05
5.52442e-05
-5.55855e-05
5.73384e-05
-5.53421e-05
5.93179e-05
-5.45843e-05
6.1133e-05
-5.31766e-05
6.27222e-05
-5.09687e-05
6.39878e-05
-4.77704e-05
6.29598e-05
-4.14107e-05
2.38496e-05
-2.55385e-05
9.60032e-07
-2.60517e-06
1.13558e-07
-2.44408e-07
1.01991e-08
-1.56596e-09
1.77404e-09
1.84983e-09
3.91431e-10
5.39776e-10
9.2316e-11
1.58201e-10
5.33336e-11
6.84827e-11
7.26916e-11
4.73902e-11
1.37486e-10
6.61738e-11
4.85021e-10
2.49862e-10
2.05665e-09
1.08299e-09
5.70183e-09
2.5417e-06
-5.85742e-05
4.65841e-06
-6.55205e-05
6.66955e-06
-6.2058e-05
8.69921e-06
-5.88216e-05
1.07565e-05
-5.62598e-05
1.28352e-05
-5.42364e-05
1.49296e-05
-5.26565e-05
1.70352e-05
-5.14605e-05
1.91494e-05
-5.06049e-05
2.12705e-05
-5.00543e-05
2.33974e-05
-4.97769e-05
2.55301e-05
-4.97431e-05
2.76686e-05
-4.99246e-05
2.98135e-05
-5.02937e-05
3.19655e-05
-5.08234e-05
3.41256e-05
-5.14863e-05
3.62947e-05
-5.22551e-05
3.84737e-05
-5.31006e-05
4.06627e-05
-5.39915e-05
4.28608e-05
-5.4892e-05
4.50648e-05
-5.57599e-05
4.72681e-05
-5.65442e-05
4.94596e-05
-5.71819e-05
5.16214e-05
-5.75959e-05
5.37279e-05
-5.7692e-05
5.57441e-05
-5.73583e-05
5.76248e-05
-5.64649e-05
5.93137e-05
-5.48655e-05
6.07408e-05
-5.23957e-05
6.17165e-05
-4.87441e-05
4.84835e-05
-4.05282e-05
2.58325e-06
-9.61697e-06
2.84888e-07
-7.36862e-07
1.92932e-08
-5.93851e-08
1.95801e-09
1.29778e-09
3.69155e-10
6.07706e-10
8.72178e-11
1.53324e-10
2.14116e-11
4.33959e-11
1.34126e-11
1.89672e-11
1.91798e-11
1.29117e-11
3.79405e-11
1.81382e-11
1.44666e-10
7.13904e-11
6.70171e-10
3.24226e-10
3.85803e-09
1.79035e-09
1.80508e-08
2.4191e-06
-6.09933e-05
4.36528e-06
-6.74667e-05
6.23917e-06
-6.39319e-05
8.15563e-06
-6.0738e-05
1.01172e-05
-5.82213e-05
1.21144e-05
-5.62336e-05
1.41389e-05
-5.4681e-05
1.61841e-05
-5.35057e-05
1.8245e-05
-5.26659e-05
2.03181e-05
-5.21274e-05
2.24007e-05
-5.18595e-05
2.44912e-05
-5.18337e-05
2.65888e-05
-5.20222e-05
2.86932e-05
-5.23981e-05
3.08047e-05
-5.29349e-05
3.29242e-05
-5.36058e-05
3.50526e-05
-5.43835e-05
3.71909e-05
-5.5239e-05
3.93395e-05
-5.614e-05
4.14969e-05
-5.70495e-05
4.36595e-05
-5.79225e-05
4.58192e-05
-5.87039e-05
4.79625e-05
-5.93252e-05
5.00683e-05
-5.97016e-05
5.21064e-05
-5.97301e-05
5.40365e-05
-5.92884e-05
5.58072e-05
-5.82357e-05
5.73554e-05
-5.64136e-05
5.85842e-05
-5.36246e-05
5.73582e-05
-4.75263e-05
1.78462e-05
-2.79847e-05
7.33101e-07
-2.33159e-06
7.75126e-08
-2.24741e-07
3.91086e-09
-8.46017e-09
4.13949e-10
7.34607e-10
8.56648e-11
1.84292e-10
1.94227e-11
4.19434e-11
4.84725e-12
1.15536e-11
3.3547e-12
5.09452e-12
4.92485e-12
3.43042e-12
1.00847e-11
4.83016e-12
4.10228e-11
1.9496e-11
2.02884e-10
9.15956e-11
1.23914e-09
5.21553e-10
5.35934e-09
2.28888e-06
-6.32821e-05
4.05594e-06
-6.92337e-05
5.78606e-06
-6.5662e-05
7.58387e-06
-6.25358e-05
9.44527e-06
-6.00827e-05
1.13572e-05
-5.81455e-05
1.33084e-05
-5.66322e-05
1.52897e-05
-5.54869e-05
1.72937e-05
-5.46699e-05
1.93149e-05
-5.41485e-05
2.13489e-05
-5.38935e-05
2.33927e-05
-5.38775e-05
2.54446e-05
-5.40741e-05
2.75037e-05
-5.44572e-05
2.95701e-05
-5.50013e-05
3.16446e-05
-5.56803e-05
3.37284e-05
-5.64672e-05
3.58225e-05
-5.73331e-05
3.79274e-05
-5.82449e-05
4.00414e-05
-5.91635e-05
4.21598e-05
-6.00409e-05
4.42728e-05
-6.08169e-05
4.63641e-05
-6.14165e-05
4.84085e-05
-6.17461e-05
5.03711e-05
-6.16926e-05
5.22054e-05
-6.11227e-05
5.38538e-05
-5.9884e-05
5.52449e-05
-5.78047e-05
5.62033e-05
-5.45805e-05
4.40911e-05
-4.54866e-05
2.01553e-06
-9.87051e-06
2.32016e-07
-6.81427e-07
1.58077e-08
-5.60116e-08
6.52036e-10
2.25686e-10
7.46374e-11
2.50411e-10
1.91965e-11
4.73351e-11
4.03964e-12
1.07646e-11
1.07113e-12
2.98374e-12
8.39814e-13
1.35775e-12
1.23486e-12
9.21074e-13
2.57323e-12
1.28695e-12
1.10415e-11
5.11311e-12
5.73601e-11
2.45596e-11
3.65025e-10
1.41883e-10
1.45848e-09
2.15077e-06
-6.54329e-05
3.72618e-06
-7.08092e-05
5.30388e-06
-6.72397e-05
6.97714e-06
-6.42091e-05
8.73453e-06
-6.18401e-05
1.05585e-05
-5.99696e-05
1.24342e-05
-5.85079e-05
1.43493e-05
-5.7402e-05
1.62939e-05
-5.66144e-05
1.82599e-05
-5.61146e-05
2.02416e-05
-5.58752e-05
2.22345e-05
-5.58705e-05
2.42362e-05
-5.60757e-05
2.62453e-05
-5.64663e-05
2.82617e-05
-5.70177e-05
3.02865e-05
-5.77051e-05
3.23211e-05
-5.85019e-05
3.43669e-05
-5.93789e-05
3.64242e-05
-6.03022e-05
3.84911e-05
-6.12303e-05
4.05614e-05
-6.21112e-05
4.26236e-05
-6.28791e-05
4.46578e-05
-6.34507e-05
4.66346e-05
-6.37229e-05
4.85134e-05
-6.35714e-05
5.02415e-05
-6.28509e-05
5.17534e-05
-6.13958e-05
5.29501e-05
-5.90014e-05
5.21821e-05
-5.38194e-05
1.55123e-05
-3.19075e-05
6.17408e-07
-2.28868e-06
5.84822e-08
-2.08641e-07
1.79803e-09
-1.04693e-08
7.24425e-11
2.44336e-10
1.28343e-11
5.76584e-11
4.15161e-12
9.58931e-12
8.04158e-13
2.51036e-12
2.48197e-13
7.87088e-13
2.20179e-13
3.68401e-13
3.09392e-13
2.9089e-13
6.29685e-13
3.7338e-13
2.82011e-12
1.30338e-12
1.52049e-11
6.29507e-12
9.92152e-11
3.63507e-11
3.67077e-10
2.00477e-06
-6.74377e-05
3.36908e-06
-7.21735e-05
4.78301e-06
-6.86536e-05
6.32587e-06
-6.5752e-05
7.97665e-06
-6.34909e-05
9.71177e-06
-6.17047e-05
1.15115e-05
-6.03076e-05
1.33598e-05
-5.92503e-05
1.52435e-05
-5.84981e-05
1.71523e-05
-5.80234e-05
1.90787e-05
-5.78015e-05
2.10171e-05
-5.78089e-05
2.29642e-05
-5.80228e-05
2.49185e-05
-5.84206e-05
2.68801e-05
-5.89793e-05
2.88501e-05
-5.96751e-05
3.08306e-05
-6.04823e-05
3.2823e-05
-6.13714e-05
3.48279e-05
-6.23071e-05
3.68428e-05
-6.32451e-05
3.88602e-05
-6.41287e-05
4.08662e-05
-6.4885e-05
4.28373e-05
-6.54218e-05
4.47393e-05
-6.56249e-05
4.65255e-05
-6.53576e-05
4.81361e-05
-6.44615e-05
4.94967e-05
-6.27567e-05
5.03551e-05
-5.98579e-05
4.19241e-05
-4.62373e-05
1.8779e-06
-1.13054e-05
1.95799e-07
-6.61995e-07
1.26005e-08
-5.20342e-08
2.39004e-10
-9.63068e-10
3.28144e-12
9.75397e-11
2.51921e-12
1.64628e-11
8.77853e-13
1.50158e-12
1.64542e-13
5.586e-13
7.33096e-14
2.38824e-13
6.44103e-14
1.53926e-13
7.90471e-14
1.43573e-13
1.49161e-13
1.59193e-13
6.81272e-13
3.4056e-13
3.79487e-12
1.54263e-12
2.5089e-11
8.85111e-12
8.62791e-11
1.84907e-06
-6.92868e-05
2.97202e-06
-7.32964e-05
4.20862e-06
-6.98902e-05
5.61667e-06
-6.716e-05
7.16084e-06
-6.50351e-05
8.80889e-06
-6.33527e-05
1.05348e-05
-6.20336e-05
1.23177e-05
-6.10331e-05
1.41409e-05
-6.03214e-05
1.59918e-05
-5.98743e-05
1.78608e-05
-5.96705e-05
1.97416e-05
-5.96897e-05
2.16302e-05
-5.99115e-05
2.35251e-05
-6.03155e-05
2.54266e-05
-6.08808e-05
2.73364e-05
-6.15849e-05
2.92569e-05
-6.24028e-05
3.11902e-05
-6.33047e-05
3.31368e-05
-6.42537e-05
3.50936e-05
-6.52019e-05
3.7052e-05
-6.60871e-05
3.89954e-05
-6.68284e-05
4.08964e-05
-6.73229e-05
4.27158e-05
-6.74443e-05
4.44001e-05
-6.7042e-05
4.58811e-05
-6.59425e-05
4.7059e-05
-6.39354e-05
4.65197e-05
-5.9336e-05
1.54965e-05
-3.7075e-05
5.69039e-07
-2.42407e-06
4.91741e-08
-1.94849e-07
1.68508e-09
-1.04466e-08
0
4.68402e-11
0
2.27326e-11
0
3.63792e-12
1.5751e-13
4.87124e-13
3.8367e-14
1.73913e-13
2.6517e-14
1.11919e-13
2.27783e-14
9.40402e-14
2.58137e-14
1.00204e-13
3.95553e-14
1.01011e-13
1.58434e-13
1.19307e-13
8.886e-13
3.5933e-13
5.94051e-12
2.04691e-12
1.90663e-11
1.6731e-06
-7.09599e-05
2.51181e-06
-7.41351e-05
3.55855e-06
-7.09369e-05
4.83166e-06
-6.84331e-05
6.27383e-06
-6.64772e-05
7.84075e-06
-6.49196e-05
9.49834e-06
-6.36911e-05
1.12201e-05
-6.27549e-05
1.29854e-05
-6.20867e-05
1.4779e-05
-6.16679e-05
1.65898e-05
-6.14814e-05
1.84106e-05
-6.15104e-05
2.02372e-05
-6.17381e-05
2.20681e-05
-6.21465e-05
2.39042e-05
-6.27169e-05
2.57478e-05
-6.34285e-05
2.76019e-05
-6.42569e-05
2.94691e-05
-6.5172e-05
3.13501e-05
-6.61347e-05
3.32416e-05
-6.70933e-05
3.51334e-05
-6.7979e-05
3.70065e-05
-6.87015e-05
3.88298e-05
-6.91462e-05
4.05583e-05
-6.91727e-05
4.21319e-05
-6.86155e-05
4.34737e-05
-6.72843e-05
4.4364e-05
-6.48257e-05
3.79872e-05
-5.29883e-05
1.93894e-06
-1.44e-05
1.69093e-07
-6.96929e-07
1.00599e-08
-4.9092e-08
1.07831e-10
-1.54498e-09
0
2.93564e-11
0
6.03902e-12
0
7.53761e-13
2.60224e-14
1.97663e-13
1.05763e-14
9.52467e-14
1.09452e-14
7.54255e-14
1.12799e-14
8.19282e-14
1.29146e-14
8.42552e-14
1.65441e-14
8.04788e-14
3.81757e-14
7.52433e-14
1.94426e-13
9.89802e-14
1.31935e-12
4.39413e-13
3.97353e-12
1.44315e-06
-7.2403e-05
1.94928e-06
-7.46412e-05
2.80232e-06
-7.17899e-05
3.94882e-06
-6.95796e-05
5.30073e-06
-6.78291e-05
6.79818e-06
-6.64171e-05
8.3974e-06
-6.52904e-05
1.00655e-05
-6.44229e-05
1.17778e-05
-6.37991e-05
1.35167e-05
-6.34068e-05
1.52698e-05
-6.32344e-05
1.70291e-05
-6.32698e-05
1.87906e-05