/*--------------------------------*- C++ -*----------------------------------*\
  =========                 |
  \\      /  F ield         | OpenFOAM: The Open Source CFD Toolbox
   \\    /   O peration     | Website:  https://openfoam.org
    \\  /    A nd           | Version:  9
     \\/     M anipulation  |
\*---------------------------------------------------------------------------*/
FoamFile
{
    format      ascii;
    class       volScalarField;
    location    "0.2";
    object      k;
}
// * * * * * * * * * * * * * * * * * * * * * * * * * * * * * * * * * * * * * //

dimensions      [0 2 -2 0 0 0 0];

internalField   nonuniform List<scalar> 
1935
(
0.00460112
0.00916125
0.0137151
0.0169705
0.0195431
0.0216833
0.0235368
0.0251962
0.026725
0.0281696
0.029566
0.0309435
0.0323277
0.0337411
0.035204
0.0367344
0.0383479
0.0400572
0.0418708
0.0437925
0.0458201
0.0479442
0.0501469
0.0524014
0.0546713
0.0569106
0.0590642
0.0610696
0.0628591
0.0643625
0.0655115
0.0662426
0.066501
0.0662379
0.0654032
0.064014
0.0622746
0.0600732
0.0573278
0.0539851
0.0500462
0.0456623
0.0413592
0.0382794
0.00765145
0.0192468
0.0274098
0.0336145
0.038481
0.0424414
0.0457902
0.0487276
0.051392
0.0538825
0.0562745
0.0586285
0.0609949
0.0634168
0.0659308
0.0685673
0.0713502
0.0742951
0.0774087
0.080686
0.0841096
0.0876472
0.0912507
0.0948556
0.0983806
0.101729
0.104793
0.107453
0.109591
0.111093
0.11186
0.111822
0.110948
0.109255
0.106807
0.103645
0.0997961
0.0954548
0.0909746
0.0869977
0.0845796
0.0852497
0.0907005
0.101106
0.0101651
0.0242234
0.0338162
0.041164
0.0470443
0.0519112
0.0560686
0.0597342
0.0630678
0.0661896
0.0691936
0.0721556
0.0751388
0.0781956
0.0813693
0.0846939
0.0881939
0.0918824
0.09576
0.0998129
0.104011
0.108307
0.112634
0.116906
0.12102
0.124855
0.128279
0.131153
0.133342
0.134723
0.1352
0.134722
0.133297
0.131006
0.12801
0.124528
0.120787
0.116997
0.113336
0.110061
0.107876
0.108578
0.115399
0.13091
0.011857
0.02777
0.0382062
0.0461483
0.0525718
0.0579624
0.0626196
0.0667586
0.070543
0.0741008
0.0775345
0.0809284
0.084352
0.0878624
0.0915054
0.0953152
0.0993139
0.10351
0.107897
0.112453
0.117137
0.121888
0.126627
0.131255
0.135653
0.139688
0.143219
0.1461
0.148193
0.149383
0.149591
0.148794
0.147042
0.144474
0.141329
0.13794
0.134721
0.132089
0.130378
0.129813
0.130701
0.134081
0.142705
0.159948
0.0131491
0.0303996
0.0414825
0.0498502
0.0566342
0.0623704
0.0673673
0.0718402
0.0759536
0.0798382
0.0836004
0.0873285
0.0910948
0.0949581
0.0989643
0.103146
0.10752
0.112092
0.116847
0.121755
0.126766
0.131811
0.1368
0.141624
0.146159
0.150267
0.153803
0.156625
0.158604
0.159641
0.159682
0.158735
0.156894
0.154349
0.151395
0.148442
0.146029
0.144752
0.145199
0.147852
0.153039
0.161196
0.173715
0.192609
0.0141852
0.0323348
0.0439521
0.0526968
0.0597759
0.0657722
0.0710159
0.0757319
0.0800889
0.0842207
0.088236
0.0922247
0.0962601
0.100401
0.10469
0.109159
0.113819
0.11867
0.123692
0.128847
0.134079
0.13931
0.144445
0.149373
0.153966
0.158087
0.161597
0.164362
0.166272
0.167247
0.167262
0.166362
0.164678
0.162441
0.159989
0.15778
0.156427
0.15666
0.159289
0.165108
0.174727
0.188448
0.206542
0.228589
0.0150461
0.0337619
0.0458117
0.0549015
0.0622463
0.0684599
0.0738968
0.0787967
0.0833368
0.0876556
0.0918646
0.0960546
0.100299
0.104654
0.109162
0.113848
0.118722
0.123776
0.128987
0.134309
0.139682
0.145026
0.150242
0.155218
0.15983
0.163945
0.167437
0.170186
0.172101
0.17313
0.173278
0.172624
0.171332
0.169666
0.167993
0.166801
0.166739
0.168645
0.173503
0.182377
0.196165
0.215227
0.23918
0.265409
0.0157844
0.0348281
0.0472179
0.0566098
0.064191
0.0705915
0.0761865
0.0812308
0.0859114
0.0903728
0.0947295
0.0990732
0.103477
0.107995
0.112667
0.117514
0.122542
0.12774
0.133077
0.138507
0.143966
0.149372
0.154627
0.159623
0.164242
0.168362
0.171868
0.174663
0.176677
0.177887
0.178329
0.178112
0.177433
0.176577
0.17593
0.176
0.177471
0.181287
0.188595
0.200677
0.218598
0.242488
0.271169
0.300531
0.0164359
0.0356418
0.0482926
0.0579339
0.0657134
0.0722702
0.0779945
0.0831538
0.087944
0.0925151
0.0969846
0.101445
0.105969
0.110609
0.115401
0.120364
0.1255
0.130793
0.136212
0.141707
0.147213
0.15265
0.157925
0.162934
0.167568
0.171721
0.175294
0.178211
0.180427
0.181949
0.182842
0.183246
0.183382
0.183558
0.184176
0.185769
0.189086
0.19523
0.205604
0.221822
0.245166
0.274829
0.306365
0.333989
0.0170243
0.0362793
0.0491261
0.05896
0.0668936
0.0735729
0.079399
0.0846486
0.0895243
0.0941801
0.0987362
0.103286
0.1079
0.11263
0.117509
0.122553
0.127762
0.133117
0.138585
0.144116
0.149648
0.155103
0.160393
0.165425
0.170102
0.174332
0.178036
0.18116
0.183687
0.185652
0.187151
0.188352
0.189502
0.190932
0.193072
0.196512
0.202134
0.211352
0.226169
0.249218
0.282316
0.321357
0.352181
0.368476
0.0175662
0.0367943
0.0497853
0.059757
0.0677995
0.0745666
0.0804681
0.0857862
0.0907278
0.0954497
0.100073
0.104691
0.109374
0.114172
0.119114
0.124216
0.129474
0.134869
0.140368
0.145922
0.151471
0.156945
0.162264
0.167344
0.172103
0.176466
0.180375
0.183803
0.186758
0.189306
0.191572
0.193757
0.196137
0.19908
0.203072
0.208813
0.217442
0.230989
0.252785
0.287305
0.335801
0.387375
0.409425
0.403849
0.0180789
0.0372274
0.050319
0.0603759
0.0684816
0.0753011
0.0812506
0.0866159
0.0916057
0.0963779
0.101054
0.105726
0.110462
0.115311
0.120302
0.125446
0.130739
0.136163
0.141685
0.14726
0.152833
0.158341
0.163713
0.16888
0.173774
0.17834
0.182544
0.186382
0.189895
0.193177
0.19639
0.19977
0.203638
0.20842
0.214702
0.223373
0.236001
0.255566
0.287281
0.338396
0.40191
0.453233
0.461319
0.435981
0.0185658
0.0376004
0.0507556
0.0608488
0.0689746
0.0758121
0.0817829
0.0871746
0.0921961
0.0970049
0.101721
0.106436
0.111215
0.116106
0.121136
0.126314
0.131638
0.137089
0.142638
0.148243
0.153858
0.159425
0.164889
0.170193
0.175287
0.180137
0.184733
0.1891
0.193308
0.19749
0.201845
0.206658
0.212313
0.219331
0.228451
0.240845
0.258596
0.285607
0.328528
0.385837
0.442698
0.478748
0.48439
0.460022
0.0190319
0.0379311
0.0511179
0.0612039
0.0693111
0.0761351
0.0821024
0.0875011
0.0925392
0.0973726
0.102119
0.106869
0.111686
0.116614
0.121679
0.126892
0.132249
0.137735
0.143323
0.148978
0.154661
0.160327
0.165931
0.171433
0.176802
0.182027
0.187124
0.192148
0.197207
0.20247
0.20819
0.214713
0.222515
0.23225
0.244877
0.261884
0.285752
0.320341
0.365271
0.410235
0.449706
0.47548
0.482337
0.474378
0.0194805
0.0382322
0.0514229
0.0614638
0.0695189
0.0763018
0.0822433
0.0876316
0.0926729
0.0975208
0.102291
0.10707
0.111921
0.116886
0.121989
0.127242
0.132642
0.138177
0.143826
0.14956
0.155349
0.16116
0.166962
0.172732
0.178462
0.184163
0.189882
0.195707
0.201786
0.208337
0.215674
0.224226
0.234588
0.2476
0.264475
0.286974
0.317677
0.355908
0.393894
0.424622
0.448442
0.465837
0.472951
0.478027
0.0199139
0.0385133
0.0516834
0.0616473
0.0696224
0.0763408
0.0822377
0.0876005
0.0926335
0.0974875
0.102276
0.107082
0.111967
0.116971
0.122119
0.127423
0.132881
0.138487
0.144224
0.150073
0.156013
0.162023
0.16809
0.174208
0.180393
0.186683
0.193155
0.199939
0.207226
0.215294
0.22453
0.235466
0.24885
0.265738
0.287581
0.316359
0.352613
0.390136
0.416974
0.430379
0.440523
0.452206
0.460858
0.471958
0.0203341
0.0387816
0.0519097
0.0617701
0.0696428
0.0762782
0.0821151
0.0874403
0.0924557
0.0973094
0.102112
0.106944
0.111865
0.116915
0.122118
0.127486
0.133024
0.138726
0.144586
0.150592
0.156733
0.163006
0.169411
0.175965
0.182707
0.189706
0.197077
0.20499
0.213691
0.223525
0.234965
0.248667
0.265556
0.286893
0.314314
0.349156
0.388378
0.418103
0.427763
0.426318
0.427727
0.436316
0.447779
0.462464
0.0207422
0.0390428
0.0521099
0.0618461
0.0695994
0.0761378
0.0819033
0.0871818
0.0921727
0.0970216
0.101836
0.106696
0.111658
0.116761
0.122031
0.127482
0.133122
0.138953
0.144973
0.151182
0.157583
0.164185
0.171007
0.178091
0.185501
0.19334
0.201763
0.210989
0.221324
0.233188
0.247154
0.26402
0.284884
0.311173
0.344636
0.384522
0.419033
0.432068
0.425914
0.415163
0.411873
0.419445
0.434195
0.453077
0.0211397
0.039302
0.0522916
0.0618873
0.0695095
0.0759417
0.0816285
0.0868541
0.0918163
0.096658
0.101485
0.106374
0.111382
0.116548
0.1219
0.127454
0.133223
0.139215
0.145439
0.151903
0.158623
0.165626
0.172952
0.180664
0.188858
0.197675
0.207312
0.218044
0.230244
0.244412
0.261234
0.281653
0.306916
0.338619
0.37762
0.41727
0.43715
0.432467
0.415433
0.399404
0.393494
0.400835
0.418864
0.443692
0.0215276
0.0395639
0.0524613
0.0619054
0.0693897
0.075711
0.0813153
0.0864855
0.091417
0.0962509
0.101091
0.106013
0.111075
0.116315
0.121764
0.127443
0.13337
0.13956
0.14603
0.152803
0.159907
0.167387
0.175304
0.183748
0.192849
0.202787
0.213808
0.226246
0.240545
0.257295
0.277301
0.301628
0.33162
0.368809
0.410708
0.43999
0.441303
0.423359
0.399679
0.380547
0.372715
0.37941
0.399547
0.430309
0.0219076
0.0398335
0.0526261
0.0619118
0.0692558
0.0754659
0.0809879
0.0861029
0.0910043
0.0958314
0.100687
0.105647
0.110769
0.116095
0.121658
0.127485
0.133599
0.140024
0.146789
0.153926
0.161481
0.169516
0.178116
0.1874
0.197533
0.208738
0.221316
0.235663
0.252298
0.271907
0.295404
0.323942
0.358996
0.4009
0.438387
0.44961
0.435174
0.408603
0.381021
0.359878
0.35016
0.35504
0.374962
0.408692
0.433644
0.0222817
0.0401165
0.0527936
0.0619181
0.0691244
0.0752271
0.0806704
0.0857333
0.0906069
0.0954296
0.100304
0.105306
0.110497
0.11592
0.121614
0.127612
0.133944
0.140643
0.147749
0.155308
0.163382
0.172052
0.181429
0.191663
0.202955
0.215578
0.229888
0.246347
0.265551
0.288287
0.315543
0.348526
0.38858
0.431063
0.454664
0.448172
0.422777
0.390976
0.361148
0.338607
0.326941
0.328905
0.34599
0.378325
0.411944
0.0226528
0.0404201
0.0529729
0.0619379
0.069013
0.0750159
0.0803875
0.0854034
0.0902531
0.0950745
0.0999706
0.105021
0.110287
0.115819
0.121661
0.127852
0.134432
0.141445
0.14894
0.15698
0.165642
0.175029
0.185279
0.196572
0.209154
0.223344
0.23956
0.258329
0.280333
0.306432
0.337659
0.375308
0.419067
0.454066
0.459468
0.439362
0.406995
0.372225
0.341213
0.317731
0.304247
0.302823
0.315197
0.342429
0.378335
0.0230256
0.0407543
0.0531757
0.0619871
0.0689417
0.0748559
0.0801649
0.0851406
0.089971
0.094794
0.099715
0.104816
0.110165
0.115817
0.121823
0.12823
0.135089
0.142453
0.150386
0.158965
0.168286
0.178473
0.18969
0.202155
0.216154
0.232061
0.250353
0.271627
0.296644
0.326305
0.361664
0.403896
0.446491
0.466266
0.455585
0.426258
0.389711
0.353432
0.321968
0.297976
0.283039
0.278441
0.28554
0.305587
0.336896
0.0234073
0.0411335
0.053418
0.0620858
0.0689343
0.0747734
0.0800304
0.084973
0.0897881
0.0946153
0.099563
0.104719
0.110155
0.115936
0.12212
0.128765
0.135931
0.143685
0.152105
0.161281
0.17133
0.182399
0.19468
0.208427
0.223972
0.241742
0.262274
0.28624
0.314452
0.347822
0.387454
0.432498
0.465995
0.468581
0.446059
0.410878
0.372034
0.335229
0.303867
0.279794
0.263922
0.256837
0.259251
0.272037
0.295078
0.0238087
0.0415801
0.0537224
0.0622597
0.0690189
0.0747976
0.0800131
0.0849289
0.0897317
0.0945638
0.0995386
0.10475
0.110278
0.116195
0.122571
0.129473
0.136974
0.145155
0.154107
0.16394
0.174787
0.186819
0.200259
0.215396
0.23261
0.252383
0.275315
0.302143
0.333695
0.370878
0.4147
0.457426
0.475531
0.463719
0.433202
0.394492
0.354608
0.317967
0.287147
0.263409
0.247163
0.238462
0.237401
0.244274
0.259111
0.0242461
0.042128
0.0541202
0.0625412
0.0692281
0.0749601
0.0801431
0.0850363
0.0898274
0.094663
0.099663
0.104929
0.110551
0.11661
0.123188
0.130365
0.138226
0.146868
0.156399
0.166943
0.178657
0.191733
0.206423
0.223056
0.242059
0.263969
0.28945
0.319278
0.354272
0.395358
0.441347
0.474444
0.476657
0.454222
0.418501
0.377843
0.337784
0.301814
0.271902
0.24887
0.23277
0.223279
0.220042
0.222852
0.231475
0.024743
0.0428256
0.0546519
0.062968
0.0695969
0.075293
0.0804489
0.0853203
0.0900976
0.0949332
0.0999548
0.105273
0.110988
0.117194
0.123982
0.131448
0.139693
0.148827
0.158978
0.170288
0.182932
0.197129
0.213158
0.231387
0.252291
0.276464
0.304625
0.337552
0.37604
0.420971
0.464081
0.482356
0.471578
0.441857
0.402878
0.361353
0.321739
0.286831
0.258125
0.236109
0.220573
0.210948
0.206598
0.206986
0.211622
0.0253325
0.0437324
0.0553627
0.0635774
0.0701577
0.0758237
0.0809538
0.0858012
0.0905602
0.0953906
0.100429
0.105797
0.111604
0.117957
0.124962
0.132728
0.141374
0.151028
0.161836
0.17396
0.187596
0.202984
0.220433
0.24035
0.263259
0.289809
0.320751
0.356833
0.398828
0.445703
0.479572
0.483111
0.462434
0.427739
0.386858
0.345246
0.306549
0.273015
0.245754
0.224986
0.210307
0.200991
0.196241
0.195341
0.197642
0.0260654
0.0449041
0.0562892
0.064396
0.0709316
0.0765692
0.0816715
0.0864906
0.0912262
0.0960466
0.101098
0.106512
0.112409
0.11891
0.126135
0.134209
0.143269
0.153464
0.164959
0.177939
0.192619
0.209262
0.228206
0.249893
0.274897
0.303923
0.337713
0.376949
0.42231
0.466291
0.486465
0.478108
0.450462
0.412505
0.370719
0.329627
0.29224
0.260338
0.234699
0.215325
0.20167
0.192906
0.188154
0.186609
0.187549
0.0270299
0.0463614
0.0574406
0.0654236
0.0719176
0.077527
0.0825998
0.0873882
0.0920984
0.0969073
0.101971
0.10743
0.113418
0.120067
0.127512
0.135897
0.145378
0.156127
0.16833
0.182197
0.197964
0.215916
0.236414
0.259941
0.287119
0.318694
0.355375
0.397771
0.445332
0.4809
0.486809
0.468979
0.436421
0.396487
0.354583
0.314541
0.278833
0.248787
0.224872
0.206944
0.194365
0.18624
0.181652
0.179767
0.179838
0.0281817
0.0481124
0.0588628
0.0666661
0.0730817
0.0786691
0.0837176
0.0884805
0.0931708
0.0979743
0.103055
0.108565
0.114647
0.121446
0.129112
0.137808
0.14771
0.159014
0.171934
0.186704
0.203587
0.222886
0.244986
0.270403
0.299813
0.333979
0.373557
0.41905
0.464266
0.48703
0.481558
0.456749
0.420814
0.379873
0.338626
0.300119
0.266329
0.238269
0.21617
0.199677
0.188128
0.180623
0.176228
0.17411
0.173542
0.0293413
0.0502674
0.0605392
0.0680924
0.0743975
0.0799379
0.0849845
0.0897427
0.0944321
0.0992476
0.104362
0.109936
0.116121
0.123076
0.130964
0.139967
0.150284
0.162136
0.175766
0.191441
0.209449
0.230115
0.253841
0.281173
0.312837
0.349598
0.392064
0.440203
0.477889
0.486549
0.471816
0.44198
0.40397
0.363081
0.323031
0.286373
0.254684
0.228686
0.2084
0.19334
0.182739
0.175773
0.171529
0.1692
0.168101
0.0303354
0.0529598
0.062425
0.0696
0.0757775
0.081286
0.0863472
0.0911441
0.0958692
0.100729
0.105905
0.111566
0.117874
0.124997
0.133115
0.142424
0.153146
0.165529
0.17985
0.196409
0.215528
0.237557
0.262905
0.292141
0.326015
0.365291
0.410531
0.456814
0.482589
0.480146
0.458425
0.425222
0.38641
0.346254
0.307851
0.273308
0.243855
0.21995
0.201435
0.187725
0.178018
0.171488
0.16733
0.164782
0.163213
0.0310034
0.0565743
0.064507
0.0710861
0.0771267
0.0826509
0.0877684
0.0926556
0.0974683
0.102419
0.107699
0.113483
0.119945
0.127261
0.135623
0.145245
0.156366
0.169263
0.184243
0.201648
0.221842
0.245203
0.27214
0.303214
0.339165
0.380765
0.428424
0.467582
0.479423
0.468353
0.441911
0.40696
0.368305
0.329506
0.293146
0.260939
0.233806
0.211982
0.19516
0.182695
0.173786
0.167623
0.163489
0.160712
0.158724
0.0322821
0.0617884
0.0668988
0.0725041
0.0784186
0.0840285
0.0892643
0.0942766
0.0992277
0.104318
0.109748
0.115704
0.122363
0.129912
0.138552
0.148508
0.160039
0.173443
0.189059
0.207271
0.228489
0.253128
0.281581
0.314355
0.35211
0.395743
0.441919
0.468954
0.469609
0.452025
0.422838
0.387464
0.349849
0.312975
0.278995
0.249285
0.224507
0.204707
0.189475
0.178136
0.169918
0.16407
0.159919
0.156912
0.154551
0.0338758
0.063466
0.0695813
0.0738272
0.0796613
0.0854881
0.0909173
0.0960896
0.10121
0.106475
0.112095
0.118266
0.125175
0.133011
0.14198
0.152317
0.164293
0.178223
0.194473
0.213462
0.23565
0.261493
0.291355
0.325615
0.364696
0.409072
0.446807
0.460274
0.453248
0.43185
0.401736
0.367133
0.331328
0.29685
0.265501
0.23838
0.215933
0.198062
0.184295
0.17396
0.166334
0.160735
0.156567
0.15334
0.150654
0.0345394
0.0597631
0.0694862
0.0744853
0.080798
0.0870744
0.0928021
0.0981602
0.103494
0.108972
0.114817
0.121246
0.128458
0.136641
0.146002
0.156781
0.169255
0.183748
0.200641
0.220387
0.243489
0.270458
0.301625
0.337226
0.377494
0.418953
0.441764
0.444428
0.432286
0.409247
0.379562
0.346601
0.313149
0.281373
0.252789
0.228261
0.20806
0.191989
0.179548
0.170095
0.162972
0.157574
0.153383
0.149969
0.147005
0.0342489
0.0593065
0.0662997
0.0735501
0.0811954
0.0882608
0.0945885
0.100333
0.106003
0.111796
0.11793
0.124671
0.132248
0.140845
0.15066
0.161939
0.174965
0.190054
0.207602
0.228091
0.252081
0.280151
0.312538
0.349412
0.387951
0.416497
0.428532
0.424881
0.409709
0.386143
0.357527
0.326611
0.295753
0.266792
0.240974
0.218955
0.200863
0.186437
0.175177
0.16649
0.159791
0.154554
0.150336
0.146775
0.143584
0.0332765
0.055391
0.0642245
0.0724957
0.0808052
0.0884787
0.0952795
0.101535
0.107644
0.113874
0.120455
0.127661
0.135726
0.144845
0.155225
0.167117
0.180811
0.196636
0.21498
0.236289
0.261083
0.289819
0.322308
0.356882
0.386832
0.406084
0.411524
0.404183
0.38728
0.36376
0.33646
0.307705
0.279476
0.25329
0.230134
0.210468
0.194309
0.181356
0.171131
0.163103
0.15676
0.151653
0.14741
0.143728
0.140374
0.0330102
0.052126
0.0631753
0.0722143
0.0806916
0.0885635
0.0958175
0.102627
0.109242
0.115926
0.122985
0.130707
0.139322
0.149036
0.160066
0.172652
0.187067
0.203608
0.22259
0.244327
0.269088
0.296879
0.326846
0.355552
0.378637
0.391667
0.392733
0.383062
0.365355
0.342415
0.316663
0.290133
0.264491
0.240962
0.220294
0.202782
0.188355
0.176697
0.167369
0.159901
0.153858
0.14886
0.144596
0.14082
0.137342
0.0333846
0.0507619
0.0632198
0.0728541
0.0814584
0.0894342
0.0969406
0.104142
0.111244
0.118487
0.126135
0.134441
0.143631
0.153913
0.165499
0.178609
0.19347
0.210321
0.229386
0.250824
0.274663
0.30029
0.326213
0.349441
0.366567
0.374668
0.372677
0.361722
0.344035
0.322165
0.298217
0.273978
0.250855
0.229825
0.211437
0.195856
0.182953
0.172418
0.163856
0.156863
0.151071
0.146165
0.141889
0.138042
0.134473
0.0342344
0.0510891
0.0642451
0.0741937
0.0828966
0.091
0.0987586
0.106339
0.113915
0.121688
0.12988
0.138713
0.148396
0.159124
0.17109
0.184483
0.199475
0.216244
0.234887
0.255336
0.277292
0.299901
0.321516
0.33969
0.351885
0.356201
0.352116
0.340609
0.323543
0.303122
0.28118
0.259267
0.238564
0.219848
0.203514
0.189634
0.178053
0.168477
0.160563
0.153969
0.148388
0.143563
0.139283
0.135388
0.131758
0.0353356
0.0525987
0.0659627
0.0759471
0.0846702
0.092889
0.100895
0.108843
0.116872
0.125138
0.13382
0.143106
0.153181
0.164213
0.176372
0.189809
0.204617
0.220873
0.23855
0.257435
)
;

boundaryField
{
    leftWall
    {
        type            kqRWallFunction;
        value           nonuniform List<scalar> 
44
(
0.00460112
0.00765145
0.0101651
0.011857
0.0131491
0.0141852
0.0150461
0.0157844
0.0164359
0.0170243
0.0175662
0.0180789
0.0185658
0.0190319
0.0194805
0.0199139
0.0203341
0.0207422
0.0211397
0.0215276
0.0219076
0.0222817
0.0226528
0.0230256
0.0234073
0.0238087
0.0242461
0.024743
0.0253325
0.0260654
0.0270299
0.0281817
0.0293413
0.0303354
0.0310034
0.0322821
0.0338758
0.0345394
0.0342489
0.0332765
0.0330102
0.0333846
0.0342344
0.0353356
)
;
    }
    rightWall
    {
        type            kqRWallFunction;
        value           nonuniform List<scalar> 0();
    }
    lowerWall
    {
        type            kqRWallFunction;
        value           nonuniform List<scalar> 
44
(
0.00460112
0.00916125
0.0137151
0.0169705
0.0195431
0.0216833
0.0235368
0.0251962
0.026725
0.0281696
0.029566
0.0309435
0.0323277
0.0337411
0.035204
0.0367344
0.0383479
0.0400572
0.0418708
0.0437925
0.0458201
0.0479442
0.0501469
0.0524014
0.0546713
0.0569106
0.0590642
0.0610696
0.0628591
0.0643625
0.0655115
0.0662426
0.066501
0.0662379
0.0654032
0.064014
0.0622746
0.0600732
0.0573278
0.0539851
0.0500462
0.0456623
0.0413592
0.0382794
)
;
    }
    atmosphere
    {
        type            inletOutlet;
        inletValue      nonuniform List<scalar> 0();
        value           nonuniform List<scalar> 0();
    }
    defaultFaces
    {
        type            empty;
    }
    procBoundary0to1
    {
        type            processor;
        value           nonuniform List<scalar> 
44
(
0.0348232
0.102986
0.14194
0.1746
0.206276
0.239627
0.274286
0.30731
0.335243
0.356829
0.373813
0.390525
0.409228
0.430931
0.45061
0.459342
0.459263
0.456266
0.451885
0.445405
0.445405
0.430144
0.425824
0.40662
0.369845
0.323606
0.279555
0.244547
0.219516
0.202295
0.190189
0.181131
0.173841
0.167613
0.16208
0.157054
0.152436
0.148172
0.144225
0.140567
0.137173
0.134021
0.131074
0.128312
)
;
    }
    procBoundary0to2
    {
        type            processor;
        value           nonuniform List<scalar> 
46
(
0.277017
0.296323
0.313827
0.327605
0.335831
0.337297
0.331816
0.320263
0.304196
0.285462
0.265625
0.246004
0.227581
0.210971
0.196457
0.184055
0.173602
0.164838
0.157468
0.151208
0.145806
0.141052
0.136778
0.132857
0.129192
0.0364802
0.0546911
0.0680128
0.0778924
0.086574
0.0948636
0.103065
0.11132
0.119733
0.128419
0.137509
0.147157
0.157517
0.168706
0.180856
0.194066
0.208386
0.223797
0.240164
0.277017
0.257157
)
;
    }
}


// ************************************************************************* //
