/*--------------------------------*- C++ -*----------------------------------*\
  =========                 |
  \\      /  F ield         | OpenFOAM: The Open Source CFD Toolbox
   \\    /   O peration     | Website:  https://openfoam.org
    \\  /    A nd           | Version:  9
     \\/     M anipulation  |
\*---------------------------------------------------------------------------*/
FoamFile
{
    format      ascii;
    class       volScalarField;
    location    "0.2";
    object      p_rgh;
}
// * * * * * * * * * * * * * * * * * * * * * * * * * * * * * * * * * * * * * //

dimensions      [1 -1 -2 0 0 0 0];

internalField   nonuniform List<scalar> 
1935
(
2252
2255.94
2261.71
2266
2267.43
2265.78
2261.43
2254.87
2246.43
2236.34
2224.71
2211.63
2197.1
2181.07
2163.49
2144.26
2123.26
2100.37
2075.44
2048.34
2018.93
1987.11
1952.79
1915.96
1876.69
1835.17
1791.78
1747.1
1702.06
1657.98
1616.68
1580.65
1553.15
1538.56
1542.75
1573.09
1634.79
1733.04
1871.1
2046.95
2249.28
2456.73
2642.38
2785.79
2250.02
2253.4
2256.89
2259.06
2259.01
2256.46
2251.59
2244.7
2236.03
2225.74
2213.91
2200.59
2185.78
2169.43
2151.46
2131.77
2110.24
2086.75
2061.15
2033.3
2003.08
1970.4
1935.19
1897.45
1857.29
1814.94
1770.8
1725.51
1680.05
1635.77
1594.54
1558.81
1531.75
1517.24
1519.56
1543.5
1597.48
1687.94
1820.23
1995.49
2206.48
2433.86
2647.4
2815.13
2247.85
2251.79
2253.58
2253.5
2251.59
2247.62
2241.7
2234
2224.66
2213.77
2201.38
2187.48
2172.05
2155.02
2136.29
2115.77
2093.32
2068.81
2042.1
2013.07
1981.59
1947.6
1911.05
1871.99
1830.55
1787.01
1741.82
1695.69
1649.62
1605
1563.69
1528.11
1501.27
1486.82
1488.98
1512.62
1563.55
1647.74
1769.24
1929.93
2127.48
2352.38
2583.82
2791.2
2244.12
2249.13
2250.32
2248.87
2245.54
2240.32
2233.33
2224.71
2214.57
2202.94
2189.83
2175.22
2159.04
2141.21
2121.62
2100.16
2076.68
2051.07
2023.17
1992.87
1960.07
1924.7
1886.74
1846.26
1803.43
1758.55
1712.1
1664.83
1617.72
1572.18
1530.01
1493.51
1465.54
1449.55
1449.49
1469.76
1515.38
1591.54
1702.11
1849.23
2032.27
2246.43
2479.78
2712.87
2239.12
2244.87
2245.83
2243.65
2239.46
2233.39
2225.6
2216.27
2205.45
2193.18
2179.43
2164.16
2147.29
2128.72
2108.34
2086
2061.59
2034.95
2005.96
1974.5
1940.46
1903.79
1864.5
1822.64
1778.41
1732.11
1684.23
1635.5
1586.89
1539.74
1495.75
1457.1
1426.43
1406.9
1402.15
1416.19
1453.39
1518.42
1615.28
1746.88
1914.39
2116.04
2345.19
2589.96
2232.79
2238.94
2239.77
2237.19
2232.51
2225.92
2217.63
2207.8
2196.5
2183.75
2169.5
2153.69
2136.25
2117.04
2095.96
2072.86
2047.61
2020.05
1990.07
1957.54
1922.36
1884.48
1843.9
1800.69
1755.03
1707.23
1657.76
1607.3
1556.78
1507.43
1460.84
1418.98
1384.25
1359.48
1347.9
1353.02
1378.76
1429.18
1508.19
1619.24
1765.04
1946.88
2163.25
2408.96
2225.14
2231.43
2232.16
2229.4
2224.47
2217.61
2209.04
2198.93
2187.33
2174.25
2159.64
2143.43
2125.53
2105.81
2084.13
2060.37
2034.37
2005.99
1975.1
1941.59
1905.34
1866.31
1824.49
1779.94
1732.84
1683.47
1632.27
1579.87
1527.11
1475.11
1425.29
1379.4
1339.54
1308.14
1287.94
1281.89
1293.2
1325.3
1381.68
1465.75
1581.19
1731.79
1921.91
2155.08
2216.26
2222.5
2223.14
2220.35
2215.35
2208.4
2199.74
2189.52
2177.78
2164.52
2149.68
2133.2
2114.95
2094.82
2072.66
2048.33
2021.68
1992.58
1960.87
1926.45
1889.21
1849.08
1806.06
1760.2
1711.64
1660.66
1607.64
1553.13
1497.91
1442.93
1389.44
1338.92
1293.12
1254.02
1223.78
1204.69
1199.11
1209.68
1239.07
1289.9
1365.73
1472.53
1621.6
1825.83
2206.23
2212.3
2212.88
2210.16
2205.23
2198.34
2189.73
2179.53
2167.78
2154.47
2139.53
2122.88
2104.41
2083.98
2061.44
2036.64
2009.45
1979.7
1947.26
1912.02
1873.85
1832.69
1788.52
1741.39
1691.4
1638.79
1583.9
1527.21
1469.38
1411.22
1353.77
1298.22
1245.95
1198.45
1157.24
1123.87
1099.88
1086.88
1085.75
1095.65
1118.78
1165.63
1264.12
1431.7
2195.2
2201
2201.54
2198.98
2194.21
2187.49
2179.04
2168.98
2157.34
2144.08
2129.15
2112.45
2093.85
2073.22
2050.4
2025.24
1997.59
1967.3
1934.22
1898.23
1859.22
1817.11
1771.87
1723.51
1672.14
1617.93
1561.17
1502.28
1441.79
1380.38
1318.84
1258.09
1199.13
1142.93
1090.43
1042.47
999.696
961.312
921.402
862.531
781.26
730.026
822.963
1003.96
2183.18
2188.67
2189.19
2186.84
2182.32
2175.85
2167.65
2157.83
2146.38
2133.28
2118.45
2101.79
2083.17
2062.43
2039.43
2014
1985.99
1955.24
1921.62
1884.97
1845.2
1802.21
1755.97
1706.47
1653.78
1598.02
1539.45
1478.38
1415.25
1350.58
1284.95
1219.01
1153.38
1088.61
1025.13
963.059
900.672
824.252
675.508
430.072
245.782
186.824
274.155
562.572
2170.23
2175.37
2175.91
2173.81
2169.59
2163.45
2155.58
2146.06
2134.89
2122.04
2107.4
2090.87
2072.31
2051.56
2028.47
2002.87
1974.59
1943.49
1909.4
1872.19
1831.74
1787.98
1740.83
1690.27
1636.35
1579.14
1518.83
1455.68
1390
1322.17
1252.59
1181.66
1109.74
1037.06
963.586
887.364
789.677
562.987
223.813
53.8759
33.3491
33.8259
39.5437
144.529
2156.53
2161.31
2161.89
2160.07
2156.19
2150.42
2142.94
2133.79
2122.98
2110.43
2096.06
2079.75
2061.34
2040.67
2017.59
1991.9
1963.46
1932.08
1897.63
1859.96
1818.95
1774.51
1726.56
1675.06
1620.02
1561.49
1499.59
1434.49
1366.44
1295.67
1222.45
1147.02
1069.59
990.195
907.253
807.274
537.806
153.61
22.9924
13.6325
11.4468
11.9276
14.7766
22.3114
2142.19
2146.61
2147.26
2145.73
2142.22
2136.86
2129.81
2121.09
2110.68
2098.52
2084.49
2068.46
2050.28
2029.79
2006.79
1981.12
1952.6
1921.06
1886.35
1848.33
1806.87
1761.87
1713.24
1660.94
1604.92
1545.21
1481.88
1415.04
1344.85
1271.46
1195.04
1115.82
1034
948.559
853.794
588.091
156.374
17.371
8.41767
6.60063
6.41697
6.90561
8.3096
11.7343
2127.34
2131.41
2132.14
2130.92
2127.78
2122.86
2116.27
2108.03
2098.08
2086.35
2072.73
2057.06
2039.19
2018.94
1996.12
1970.55
1942.05
1910.46
1875.6
1837.34
1795.56
1750.14
1700.97
1648
1591.16
1530.45
1465.88
1397.53
1325.48
1249.85
1170.84
1088.76
1003.33
910.305
700.063
215.446
16.428
6.99245
4.95367
4.69951
4.82941
5.09703
5.53917
6.6647
2112.08
2115.81
2116.65
2115.71
2112.97
2108.5
2102.41
2094.67
2085.23
2073.99
2060.83
2045.58
2028.09
2008.16
1985.61
1960.24
1931.86
1900.31
1865.43
1827.07
1785.1
1739.39
1689.85
1636.37
1578.88
1517.34
1451.74
1382.12
1308.54
1231.14
1150.26
1066.18
976.507
841.71
346.323
22.2546
6.64251
4.20071
3.80624
3.89029
4.02941
4.14471
4.19859
4.58463
2096.51
2099.92
2100.87
2100.23
2097.87
2093.87
2088.29
2081.09
2072.2
2061.49
2048.84
2034.08
2017.04
1997.51
1975.31
1950.22
1922.07
1890.68
1855.9
1817.57
1775.55
1729.72
1679.95
1626.13
1568.16
1505.99
1439.59
1368.97
1294.22
1215.6
1133.61
1047.39
950.678
560.031
61.6615
6.95401
3.72035
3.2095
3.24761
3.40252
3.52919
3.59674
3.59329
3.73655
2080.74
2083.83
2084.89
2084.53
2082.57
2079.05
2074
2067.37
2059.04
2048.92
2036.83
2022.61
2006.08
1987.03
1965.25
1940.55
1912.74
1881.63
1847.07
1808.91
1766.99
1721.19
1671.35
1617.35
1559.1
1496.5
1429.52
1358.19
1282.69
1203.48
1120.73
1030.42
808.684
185.746
8.63266
3.54461
2.71483
2.7343
2.88748
3.05417
3.1754
3.23824
3.25184
3.29503
2064.84
2067.63
2068.8
2068.72
2067.14
2064.11
2059.61
2053.56
2045.84
2036.33
2024.85
2011.23
1995.27
1976.76
1955.5
1931.29
1903.92
1873.22
1839.02
1801.16
1759.49
1713.86
1664.12
1610.12
1551.76
1488.93
1421.63
1349.93
1274.18
1194.94
1110.71
1014.22
440.639
19.1505
4.04975
2.40377
2.29931
2.44175
2.61289
2.77309
2.88749
2.9512
2.97812
2.97021
2048.9
2051.38
2052.67
2052.85
2051.67
2049.13
2045.19
2039.74
2032.66
2023.8
2012.97
2000
1984.67
1966.78
1946.12
1922.48
1895.67
1865.5
1831.8
1794.4
1753.13
1707.83
1658.35
1604.53
1546.24
1483.41
1416.05
1344.35
1268.88
1189.67
1101.84
786.189
111.793
5.53679
2.31144
1.946
2.05054
2.21197
2.37872
2.52816
2.63706
2.69948
2.73329
2.71708
2032.98
2035.16
2036.56
2036.99
2036.2
2034.16
2030.8
2025.99
2019.57
2011.39
2001.26
1988.98
1974.35
1957.14
1937.16
1914.2
1888.06
1858.55
1825.49
1788.69
1747.99
1703.19
1654.14
1600.67
1542.66
1480.06
1412.94
1341.68
1266.88
1186.66
1091.35
379.394
9.48097
2.66956
1.67657
1.70468
1.85294
2.01141
2.16895
2.30866
2.41413
2.47874
2.5152
2.51054
2.51776
2017.15
2019.01
2020.52
2021.2
2020.81
2019.29
2016.52
2012.36
2006.64
1999.18
1989.79
1978.26
1964.37
1947.93
1928.71
1906.52
1881.16
1852.44
1820.16
1784.13
1744.15
1700.04
1651.61
1598.69
1541.18
1479.05
1412.5
1342.11
1267.89
1184.68
796.768
81.5653
3.89278
1.5847
1.41113
1.53158
1.67771
1.82946
1.9777
2.10938
2.21267
2.28114
2.32204
2.32791
2.3276
2001.46
2002.99
2004.6
2005.52
2005.54
2004.56
2002.41
1998.94
1993.94
1987.24
1978.62
1967.89
1954.82
1939.21
1920.85
1899.53
1875.07
1847.26
1815.91
1780.8
1741.73
1698.48
1650.86
1598.71
1541.92
1480.53
1414.92
1345.68
1270.91
1184.66
368.881
6.8967
1.84128
1.16688
1.24257
1.37634
1.51675
1.66169
1.80165
1.92679
2.0281
2.0994
2.14323
2.15647
2.15181
1985.94
1987.12
1988.83
1989.99
1990.44
1990.02
1988.53
1985.77
1981.54
1975.64
1967.84
1957.95
1945.76
1931.06
1913.64
1893.31
1869.87
1843.12
1812.84
1778.81
1740.82
1698.63
1652.03
1600.85
1545.03
1484.7
1420.41
1352.16
1275.34
857.272
74.5468
2.83934
1.05106
0.983772
1.10333
1.23206
1.36785
1.5061
1.6386
1.7581
1.85702
1.92933
1.97437
1.99029
1.97992
1970.64
1971.41
1973.22
1974.62
1975.53
1975.71
1974.92
1972.92
1969.5
1964.44
1957.51
1948.52
1937.27
1923.55
1907.17
1887.93
1865.63
1840.07
1811.03
1778.27
1741.55
1700.62
1655.25
1605.29
1550.7
1491.78
1429.01
1360.68
1282.41
402.589
5.51544
1.24983
0.756258
0.853266
0.974164
1.0985
1.22973
1.3613
1.48704
1.60117
1.69711
1.76885
1.81403
1.83086
1.81848
1955.57
1955.84
1957.76
1959.4
1960.83
1961.68
1961.64
1960.46
1957.89
1953.72
1947.71
1939.67
1929.41
1916.74
1901.48
1883.43
1862.41
1838.19
1810.56
1779.26
1744.01
1704.55
1660.66
1612.17
1559.15
1502
1440.69
1371.29
978.016
84.0968
2.08527
0.637694
0.624698
0.738664
0.853366
0.974887
1.10108
1.22612
1.34554
1.45442
1.54684
1.61707
1.66176
1.67888
1.66636
1940.75
1940.3
1942.41
1944.32
1946.34
1947.93
1948.73
1948.43
1946.78
1943.54
1938.51
1931.48
1922.27
1910.72
1896.65
1879.9
1860.26
1837.54
1811.49
1781.84
1748.29
1710.55
1668.4
1621.7
1570.6
1515.48
1454.89
1385.35
473.538
4.5083
0.794823
0.417076
0.521251
0.630657
0.741626
0.860003
0.980814
1.09965
1.21305
1.31672
1.40525
1.47321
1.5168
1.53364
1.52134
1926.17
1924.66
1927.04
1929.32
1932.04
1934.5
1936.23
1936.9
1936.23
1933.99
1929.97
1924
1915.9
1905.54
1892.75
1877.38
1859.26
1838.17
1813.87
1786.08
1754.46
1718.73
1678.63
1634.06
1585.3
1532.28
1471.66
1154.01
115.213
1.51538
0.317125
0.324164
0.427774
0.529555
0.638373
0.752894
0.86836
0.981404
1.08904
1.18746
1.27176
1.33684
1.37877
1.39505
1.38333
1911.6
1908.7
1911.47
1914.3
1917.92
1921.4
1924.2
1925.94
1926.33
1925.13
1922.18
1917.3
1910.36
1901.24
1889.8
1875.92
1859.42
1840.12
1817.75
1792.04
1762.64
1729.22
1691.52
1649.5
1603.39
1552.12
1492.23
581.797
4.92441
0.42087
0.140735
0.241084
0.337777
0.436214
0.542677
0.653061
0.763523
0.871219
0.973339
1.06643
1.14616
1.20788
1.24774
1.26327
1.25248
1895.93
1892.22
1895.49
1899.15
1903.9
1908.64
1912.68
1915.62
1917.15
1917.07
1915.22
1911.47
1905.72
1897.88
1887.84
1875.51
1860.75
1843.37
1823.13
1799.75
1772.86
1742.12
1707.25
1668.25
1625.03
1574.82
1390.87
178.407
1.25174
0.0570951
0.0707051
0.163442
0.253207
0.350278
0.453978
0.560312
0.666174
0.768888
0.865707
0.953463
1.02838
1.08639
1.12394
1.13866
1.129
1878.19
1875.3
1878.71
1883.78
1890.01
1896.24
1901.72
1906
1908.77
1909.86
1909.15
1906.56
1902.02
1895.47
1886.87
1876.14
1863.19
1847.87
1829.96
1809.18
1785.16
1757.53
1725.99
1690.5
1650.27
1601.59
756.093
9.89626
0.113193
-0.0900827
0.00227515
0.0873925
0.175047
0.271035
0.371896
0.474418
0.575962
0.67393
0.765633
0.848121
0.918147
0.972278
1.00743
1.02141
1.01294
1860.11
1856.62
1860.94
1868.18
1876.4
1884.42
1891.51
1897.22
1901.28
1903.58
1904.03
1902.59
1899.25
1894
1886.84
1877.75
1866.68
1853.53
1838.14
1820.24
1799.49
1775.5
1747.9
1716.34
1678.6
1632.04
269.012
1.09317
-0.17966
-0.152646
-0.0637701
0.0168628
0.1041
0.198498
0.296403
0.395209
0.492515
0.585828
0.672552
0.749962
0.815208
0.865467
0.898228
0.911563
0.904309
1837.78
1833.7
1840.62
1851.74
1862.99
1873.41
1882.38
1889.6
1894.94
1898.39
1899.95
1899.63
1897.44
1893.45
1887.7
1880.23
1871.07
1860.18
1847.47
1832.72
1815.66
1795.95
1773.16
1746.27
1711.33
959.426
24.4286
-0.141902
-0.287285
-0.201392
-0.125464
-0.0470386
0.0399914
0.132589
0.227576
0.322701
0.415775
0.504464
0.586349
0.658916
0.719645
0.766192
0.796635
0.809433
0.803455
1748.86
1778.89
1811.57
1832.44
1848.88
1862.64
1874.02
1883.01
1889.72
1894.33
1896.96
1897.67
1896.55
1893.71
1889.27
1883.34
1876
1867.35
1857.37
1845.99
1833.03
1818.44
1801.54
1779.74
1749.16
383.104
0.814593
-0.355892
-0.338163
-0.253256
-0.181745
-0.1037
-0.0173596
0.0733413
0.165528
0.257101
0.346027
0.430182
0.507369
0.57533
0.63184
0.674931
0.703197
0.715547
0.710939
714.615
901.189
1350.03
1714.55
1829.48
1850.05
1864.91
1875.96
1884.2
1890.1
1893.86
1895.6
1895.45
1893.6
1890.29
1885.67
1879.95
1873.36
1866.12
1858.34
1850.12
1842.24
1833.54
1817.23
1394.1
95.0387
-0.346713
-0.446249
-0.371302
-0.304219
-0.233705
-0.154209
-0.0682638
0.0207286
0.110334
0.198567
0.283531
0.363314
0.43597
0.499529
0.55209
0.592018
0.618294
0.630273
0.6271
-0.348364
7.32649
179.276
619.276
1200.4
1610.05
1806.93
1864.79
1875.96
1883.68
1888.68
1891.38
1892.04
1890.93
1888.55
1885.03
1880.64
1875.83
1870.98
1866.37
1862.02
1862.66
1868.66
1854.3
464.618
0.440219
-0.558184
-0.506175
-0.41948
-0.351409
-0.278648
-0.197891
-0.112416
-0.0250404
0.062097
0.147119
0.22827
0.303839
0.372132
0.431481
0.480331
0.517376
0.541886
0.553554
0.551803
-0.0574286
0.193896
0.0504157
0.0714721
91.5293
378.739
789.853
1178.51
1450.2
1623.77
1726.84
1782.39
1807.25
1809.08
1799.56
1773.62
1727.56
1661.79
1577.6
1480.26
1328.35
1340.75
1665.61
1332.31
103.671
-0.602255
-0.5836
-0.524241
-0.460224
-0.391402
-0.315388
-0.233764
-0.149099
-0.0635497
0.0209669
0.102699
0.180038
0.251466
0.315522
0.370836
0.416188
0.450599
0.473551
0.484948
0.484512
0.00326967
0.0527863
0.00418744
0.0303866
-0.0324489
-0.228712
-0.316498
62.4083
190.187
336.077
475.171
582.819
646.987
653.499
629.509
566.153
478.052
379.776
285.13
204.928
114.05
125.345
376.11
118.859
-0.0860606
-0.791465
-0.653089
-0.567464
-0.495735
-0.421501
-0.342704
-0.260879
-0.177573
-0.0943654
-0.0129045
0.0652311
0.13859
0.205835
0.265724
0.31715
0.359193
0.39116
0.412704
0.423839
0.42453
0.00940884
0.0449239
0.0159728
0.00528328
-0.0309703
-0.071345
-0.0899261
-0.160562
-0.342041
-0.464741
-0.523795
-0.567093
-0.602831
-0.633287
-0.665119
-0.69756
-0.730807
-0.761364
-0.783061
-0.79309
-0.768282
-0.78731
-0.928491
-0.754977
-0.770846
-0.749515
-0.661328
-0.584226
-0.511298
-0.436311
-0.358109
-0.278006
-0.197265
-0.117277
-0.0395282
0.0345481
0.103644
0.166583
0.222322
0.26998
0.308874
0.338535
0.358751
0.369593
0.371196
-0.000813375
0.0200531
0.00621821
-0.00944776
-0.0391682
-0.073424
-0.100395
-0.125156
-0.17213
-0.21745
-0.253347
-0.285656
-0.318407
-0.353447
-0.391693
-0.433684
-0.479653
-0.528907
-0.580806
-0.634558
-0.687794
-0.748895
-0.814909
-0.8201
-0.761188
-0.707855
-0.641688
-0.575741
-0.507775
-0.436284
-0.361659
-0.285233
-0.208399
-0.132602
-0.0592737
0.0102508
0.0747795
0.133277
0.184868
0.228858
0.264743
0.292205
0.311129
0.321629
0.323944
-0.0167064
-0.00209149
-0.00941627
-0.0223788
-0.0452035
-0.0757691
-0.108435
-0.14288
-0.1845
-0.226627
-0.265048
-0.300721
-0.335442
-0.37073
-0.407363
-0.445459
-0.484932
-0.525636
-0.567122
-0.608193
-0.647769
-0.685802
-0.717161
-0.724825
-0.694717
-0.655496
-0.60635
-0.551173
-0.490393
-0.424686
-0.355324
-0.283901
-0.212015
-0.141198
-0.0728708
-0.00830017
0.051425
0.105394
0.152873
0.193302
0.226301
0.251653
0.269307
0.279406
0.282264
-0.0306566
-0.0244524
-0.0282288
-0.0379331
-0.0549668
-0.0792589
-0.108612
-0.142578
-0.181041
-0.220316
-0.257788
-0.293553
-0.328296
-0.362647
-0.396976
-0.431451
-0.466125
-0.500876
-0.535252
-0.56823
-0.598347
-0.624696
-0.643631
-0.645764
-0.630258
-0.603401
-0.56485
-0.518089
-0.464332
-0.404938
-0.341505
-0.275791
-0.209482
-0.144148
-0.0811924
-0.021817
0.0329873
0.0824235
0.125867
0.162855
0.193082
0.216397
0.232791
0.242434
0.245675
-0.0431859
-0.0448654
-0.047182
-0.0547523
-0.0679977
-0.0873765
-0.112093
-0.141311
-0.174019
-0.208055
-0.241928
-0.275196
-0.307824
-0.339882
-0.371544
-0.403008
-0.434337
-0.465353
-0.495534
-0.523852
-0.548927
-0.569606
-0.583207
-0.58443
-0.573877
-0.552876
-0.521025
-0.480641
-0.433069
-0.379757
-0.322344
-0.262569
-0.202098
-0.142469
-0.0850359
-0.0309271
0.0189603
0.0639283
0.103441
0.137103
0.164657
0.185992
0.201134
0.210269
0.213705
-0.0540636
-0.0611498
-0.0633852
-0.0700128
-0.0810571
-0.0971627
-0.118065
-0.142967
-0.170767
-0.200188
-0.23025
-0.260321
-0.290004
-0.319166
-0.347922
-0.376426
-0.404708
-0.432525
-0.459168
-0.48352
)
;

boundaryField
{
    leftWall
    {
        type            fixedFluxPressure;
        gradient        uniform 0;
        value           nonuniform List<scalar> 
44
(
2252
2250.02
2247.85
2244.12
2239.12
2232.79
2225.14
2216.26
2206.23
2195.2
2183.18
2170.23
2156.53
2142.19
2127.34
2112.08
2096.51
2080.74
2064.84
2048.9
2032.98
2017.15
2001.46
1985.94
1970.64
1955.57
1940.75
1926.17
1911.6
1895.93
1878.19
1860.11
1837.78
1748.86
714.615
-0.348364
-0.0574286
0.00326967
0.00940884
-0.000813375
-0.0167064
-0.0306566
-0.0431859
-0.0540636
)
;
    }
    rightWall
    {
        type            fixedFluxPressure;
        gradient        nonuniform List<scalar> 0();
        value           nonuniform List<scalar> 0();
    }
    lowerWall
    {
        type            fixedFluxPressure;
        gradient        uniform 0;
        value           nonuniform List<scalar> 
44
(
2252
2255.94
2261.71
2266
2267.43
2265.78
2261.43
2254.87
2246.43
2236.34
2224.71
2211.63
2197.1
2181.07
2163.49
2144.26
2123.26
2100.37
2075.44
2048.34
2018.93
1987.11
1952.79
1915.96
1876.69
1835.17
1791.78
1747.1
1702.06
1657.98
1616.68
1580.65
1553.15
1538.56
1542.75
1573.09
1634.79
1733.04
1871.1
2046.95
2249.28
2456.73
2642.38
2785.79
)
;
    }
    atmosphere
    {
        type            totalPressure;
        rho             rho;
        psi             none;
        gamma           1;
        p0              nonuniform List<scalar> 0();
        value           nonuniform List<scalar> 0();
    }
    defaultFaces
    {
        type            empty;
    }
    procBoundary0to1
    {
        type            processor;
        value           nonuniform List<scalar> 
44
(
2875.69
2909.97
2943.38
2924.8
2840.3
2680.51
2433.58
2091.87
1661.79
1178.38
743.744
551.807
361.291
36.8359
7.20278
4.22917
4.42804
3.81027
3.1156
2.75511
2.75511
2.24015
2.22466
2.10312
1.93521
1.77046
1.61835
1.47532
1.34019
1.21285
1.09316
0.980885
0.875927
0.77861
0.689511
0.608995
0.536882
0.472522
0.415116
0.363966
0.318525
0.27833
0.242899
0.211758
)
;
    }
    procBoundary0to2
    {
        type            processor;
        value           nonuniform List<scalar> 
46
(
-0.504507
-0.520971
-0.530943
-0.531847
-0.522806
-0.504451
-0.476887
-0.44136
-0.399039
-0.35127
-0.299598
-0.245648
-0.190988
-0.13706
-0.0851205
-0.0362023
0.008881
0.049502
0.0851878
0.115604
0.14055
0.159957
0.173869
0.182417
0.185845
-0.0626093
-0.0724409
-0.0751993
-0.0817564
-0.0917094
-0.105782
-0.123863
-0.145321
-0.169295
-0.194877
-0.221307
-0.247982
-0.274473
-0.300619
-0.326467
-0.352076
-0.377368
-0.401999
-0.425243
-0.504507
-0.446112
)
;
    }
}


// ************************************************************************* //
