/*--------------------------------*- C++ -*----------------------------------*\
  =========                 |
  \\      /  F ield         | OpenFOAM: The Open Source CFD Toolbox
   \\    /   O peration     | Website:  https://openfoam.org
    \\  /    A nd           | Version:  9
     \\/     M anipulation  |
\*---------------------------------------------------------------------------*/
FoamFile
{
    format      ascii;
    class       surfaceScalarField;
    location    "0.2";
    object      phi;
}
// * * * * * * * * * * * * * * * * * * * * * * * * * * * * * * * * * * * * * //

dimensions      [0 3 -1 0 0 0 0];

internalField   nonuniform List<scalar> 
3781
(
-1.1145e-06
1.1145e-06
6.72191e-07
-1.78669e-06
3.82565e-06
-3.15346e-06
7.38623e-06
-3.56057e-06
1.09475e-05
-3.56123e-06
1.43783e-05
-3.43087e-06
1.76559e-05
-3.27754e-06
2.07946e-05
-3.13874e-06
2.38203e-05
-3.0257e-06
2.67602e-05
-2.93991e-06
2.96396e-05
-2.87936e-06
3.24807e-05
-2.84115e-06
3.53033e-05
-2.82261e-06
3.81249e-05
-2.82157e-06
4.09613e-05
-2.83635e-06
4.38269e-05
-2.8656e-06
4.6735e-05
-2.90819e-06
4.96981e-05
-2.96301e-06
5.27269e-05
-3.02882e-06
5.5831e-05
-3.10411e-06
5.90179e-05
-3.1869e-06
6.22925e-05
-3.27458e-06
6.56562e-05
-3.36373e-06
6.91061e-05
-3.44987e-06
7.26333e-05
-3.52725e-06
7.62219e-05
-3.58855e-06
7.98465e-05
-3.62463e-06
8.34707e-05
-3.62425e-06
8.70444e-05
-3.57372e-06
9.0501e-05
-3.45652e-06
9.37537e-05
-3.25271e-06
9.66911e-05
-2.93745e-06
9.91706e-05
-2.47946e-06
0.000100994
-1.82385e-06
0.00010188
-8.85874e-07
0.00010136
5.20091e-07
9.86525e-05
2.70775e-06
9.32145e-05
5.43801e-06
8.45033e-05
8.71121e-06
7.2174e-05
1.23293e-05
5.64063e-05
1.57677e-05
3.82913e-05
1.8115e-05
1.97956e-05
1.84957e-05
1.65933e-05
1.19516e-06
-8.06657e-08
3.73098e-06
-4.32251e-06
6.83492e-06
-6.2574e-06
1.00833e-05
-6.80898e-06
1.33068e-05
-6.7847e-06
1.64405e-05
-6.5646e-06
1.94693e-05
-6.30627e-06
2.24015e-05
-6.07096e-06
2.52549e-05
-5.87915e-06
2.80498e-05
-5.73477e-06
3.0806e-05
-5.63557e-06
3.35423e-05
-5.57742e-06
3.62758e-05
-5.55612e-06
3.90222e-05
-5.56803e-06
4.17959e-05
-5.61005e-06
4.46099e-05
-5.67956e-06
4.74758e-05
-5.77412e-06
5.04041e-05
-5.89123e-06
5.34033e-05
-6.02808e-06
5.64804e-05
-6.18123e-06
5.96399e-05
-6.34636e-06
6.28832e-05
-6.51791e-06
6.62083e-05
-6.68876e-06
6.96083e-05
-6.84985e-06
7.30707e-05
-6.98969e-06
7.65761e-05
-7.09392e-06
8.00963e-05
-7.14483e-06
8.35928e-05
-7.12077e-06
8.70147e-05
-6.99562e-06
9.02962e-05
-6.73805e-06
9.33541e-05
-6.31063e-06
9.60851e-05
-5.66846e-06
9.83634e-05
-4.75774e-06
0.000100052
-3.512e-06
0.000101027
-1.86093e-06
0.00010123
3.16287e-07
0.000100767
3.17123e-06
9.92633e-05
6.94163e-06
9.61827e-05
1.17919e-05
9.07065e-05
1.78055e-05
8.17855e-05
2.46887e-05
6.84708e-05
3.14297e-05
5.07607e-05
3.62058e-05
3.67956e-05
2.43779e-06
-2.51846e-06
5.5211e-06
-7.40582e-06
8.66993e-06
-9.40624e-06
1.1766e-05
-9.90502e-06
1.47754e-05
-9.79409e-06
1.76918e-05
-9.48108e-06
2.05225e-05
-9.13691e-06
2.32808e-05
-8.82931e-06
2.59832e-05
-8.58154e-06
2.86468e-05
-8.39833e-06
3.12884e-05
-8.27713e-06
3.3924e-05
-8.21304e-06
3.65687e-05
-8.20082e-06
3.92363e-05
-8.23562e-06
4.19394e-05
-8.31314e-06
4.46892e-05
-8.42945e-06
4.74958e-05
-8.58073e-06
5.03676e-05
-8.76295e-06
5.3311e-05
-8.97151e-06
5.63307e-05
-9.20092e-06
5.94286e-05
-9.44432e-06
6.26038e-05
-9.69311e-06
6.58516e-05
-9.93649e-06
6.91626e-05
-1.01608e-05
7.25221e-05
-1.03492e-05
7.59087e-05
-1.04806e-05
7.92931e-05
-1.05292e-05
8.26365e-05
-1.04641e-05
8.58887e-05
-1.02479e-05
8.89868e-05
-9.83608e-06
9.18525e-05
-9.17637e-06
9.43913e-05
-8.20725e-06
9.64907e-05
-6.85716e-06
9.80224e-05
-5.04366e-06
9.88335e-05
-2.67205e-06
9.87936e-05
3.56189e-07
9.77771e-05
4.18778e-06
9.57146e-05
9.00409e-06
9.25071e-05
1.49994e-05
8.79818e-05
2.23307e-05
8.17009e-05
3.09696e-05
7.27542e-05
4.03764e-05
5.99648e-05
4.89952e-05
5.3889e-05
2.94366e-06
-5.46211e-06
6.47667e-06
-1.09388e-05
9.78741e-06
-1.2717e-05
1.2862e-05
-1.29796e-05
1.57652e-05
-1.26973e-05
1.85464e-05
-1.22623e-05
2.12392e-05
-1.18297e-05
2.3868e-05
-1.14582e-05
2.64527e-05
-1.11662e-05
2.90105e-05
-1.09562e-05
3.15575e-05
-1.08241e-05
3.41082e-05
-1.07638e-05
3.66763e-05
-1.07689e-05
3.92741e-05
-1.08335e-05
4.19129e-05
-1.0952e-05
4.46026e-05
-1.11191e-05
4.73514e-05
-1.13296e-05
5.01662e-05
-1.15778e-05
5.3052e-05
-1.18572e-05
5.60113e-05
-1.21603e-05
5.90445e-05
-1.24775e-05
6.21486e-05
-1.27972e-05
6.53171e-05
-1.3105e-05
6.85391e-05
-1.33829e-05
7.17986e-05
-1.36087e-05
7.50734e-05
-1.37554e-05
7.83339e-05
-1.37897e-05
8.1542e-05
-1.36722e-05
8.46496e-05
-1.33554e-05
8.75971e-05
-1.27836e-05
9.03124e-05
-1.18917e-05
9.27093e-05
-1.06042e-05
9.46869e-05
-8.83476e-06
9.61294e-05
-6.48612e-06
9.6907e-05
-3.44961e-06
9.68744e-05
3.88713e-07
9.58916e-05
5.17065e-06
9.38362e-05
1.10594e-05
9.05992e-05
1.82364e-05
8.60695e-05
2.68604e-05
8.00565e-05
3.69826e-05
7.21008e-05
4.83321e-05
6.1256e-05
5.984e-05
6.88733e-05
3.16902e-06
-8.63113e-06
6.96009e-06
-1.47299e-05
1.04024e-05
-1.61593e-05
1.35001e-05
-1.60773e-05
1.63619e-05
-1.55591e-05
1.90697e-05
-1.49701e-05
2.16765e-05
-1.44365e-05
2.4217e-05
-1.39987e-05
2.67161e-05
-1.36652e-05
2.91931e-05
-1.34332e-05
3.16647e-05
-1.32956e-05
3.41453e-05
-1.32444e-05
3.66479e-05
-1.32715e-05
3.91842e-05
-1.33697e-05
4.17643e-05
-1.35321e-05
4.43971e-05
-1.37518e-05
4.70897e-05
-1.40222e-05
4.98478e-05
-1.43358e-05
5.26747e-05
-1.46842e-05
5.5572e-05
-1.50576e-05
5.85385e-05
-1.54439e-05
6.15698e-05
-1.58286e-05
6.46584e-05
-1.61936e-05
6.77925e-05
-1.65169e-05
7.09552e-05
-1.67715e-05
7.41244e-05
-1.69245e-05
7.7271e-05
-1.69364e-05
8.03585e-05
-1.67597e-05
8.33415e-05
-1.63384e-05
8.6165e-05
-1.56072e-05
8.87633e-05
-1.449e-05
9.10594e-05
-1.29003e-05
9.29648e-05
-1.07401e-05
9.43794e-05
-7.90071e-06
9.51926e-05
-4.26284e-06
9.5281e-05
3.0033e-07
9.4516e-05
5.93561e-06
9.27638e-05
1.28117e-05
8.98776e-05
2.11226e-05
8.56779e-05
3.10601e-05
7.99126e-05
4.27479e-05
7.2164e-05
5.60807e-05
6.16789e-05
7.03251e-05
8.33121e-05
3.28407e-06
-1.19152e-05
7.18407e-06
-1.86299e-05
1.06855e-05
-1.96607e-05
1.37974e-05
-1.91892e-05
1.66416e-05
-1.84032e-05
1.93113e-05
-1.76398e-05
2.18678e-05
-1.69931e-05
2.43519e-05
-1.64827e-05
2.67921e-05
-1.61054e-05
2.92102e-05
-1.58513e-05
3.1624e-05
-1.57094e-05
3.40483e-05
-1.56687e-05
3.64961e-05
-1.57194e-05
3.89787e-05
-1.58524e-05
4.15058e-05
-1.60591e-05
4.40853e-05
-1.63314e-05
4.67237e-05
-1.66606e-05
4.94256e-05
-1.70377e-05
5.21935e-05
-1.74522e-05
5.50278e-05
-1.78919e-05
5.79264e-05
-1.83424e-05
6.0884e-05
-1.87862e-05
6.38924e-05
-1.9202e-05
6.69392e-05
-1.95637e-05
7.00078e-05
-1.98401e-05
7.30762e-05
-1.9993e-05
7.61168e-05
-1.99769e-05
7.9095e-05
-1.97379e-05
8.19691e-05
-1.92125e-05
8.46889e-05
-1.8327e-05
8.71958e-05
-1.69969e-05
8.94225e-05
-1.5127e-05
9.12935e-05
-1.26111e-05
9.27254e-05
-9.33259e-06
9.36277e-05
-5.16516e-06
9.39003e-05
2.7747e-08
9.34343e-05
6.40158e-06
9.21001e-05
1.41459e-05
8.97288e-05
2.34938e-05
8.60781e-05
3.47109e-05
8.07877e-05
4.80382e-05
7.33174e-05
6.3551e-05
6.28722e-05
8.07703e-05
9.7881e-05
3.34314e-06
-1.52583e-05
7.25498e-06
-2.25417e-05
1.07503e-05
-2.3156e-05
1.38511e-05
-2.229e-05
1.66789e-05
-2.1231e-05
1.93254e-05
-2.02864e-05
2.18522e-05
-1.95198e-05
2.43009e-05
-1.89315e-05
2.67018e-05
-1.85064e-05
2.90781e-05
-1.82277e-05
3.14485e-05
-1.80797e-05
3.38283e-05
-1.80485e-05
3.62307e-05
-1.81218e-05
3.8667e-05
-1.82886e-05
4.11464e-05
-1.85385e-05
4.36765e-05
-1.88615e-05
4.62631e-05
-1.92473e-05
4.89101e-05
-1.96847e-05
5.16194e-05
-2.01614e-05
5.43905e-05
-2.0663e-05
5.72207e-05
-2.11726e-05
6.01043e-05
-2.16698e-05
6.30326e-05
-2.21302e-05
6.59933e-05
-2.25244e-05
6.897e-05
-2.28168e-05
7.19419e-05
-2.29648e-05
7.48827e-05
-2.29178e-05
7.77607e-05
-2.26159e-05
8.05376e-05
-2.19894e-05
8.31688e-05
-2.09581e-05
8.56028e-05
-1.9431e-05
8.77824e-05
-1.73066e-05
8.96448e-05
-1.44734e-05
9.11232e-05
-1.0811e-05
9.21468e-05
-6.18876e-06
9.26379e-05
-4.63358e-07
9.25057e-05
6.53375e-06
9.16277e-05
1.50239e-05
8.98173e-05
2.53043e-05
8.67762e-05
3.7752e-05
8.20464e-05
5.2768e-05
7.49497e-05
7.06477e-05
6.45892e-05
9.11308e-05
0.000112645
3.36565e-06
-1.8624e-05
7.22658e-06
-2.64027e-05
1.06686e-05
-2.65981e-05
1.37333e-05
-2.53547e-05
1.65368e-05
-2.40345e-05
1.91634e-05
-2.29129e-05
2.16694e-05
-2.20258e-05
2.40946e-05
-2.13567e-05
2.64687e-05
-2.08805e-05
2.88152e-05
-2.05741e-05
3.11528e-05
-2.04173e-05
3.34974e-05
-2.03931e-05
3.58623e-05
-2.04867e-05
3.82585e-05
-2.06848e-05
4.06952e-05
-2.09752e-05
4.31795e-05
-2.13459e-05
4.57169e-05
-2.17847e-05
4.83108e-05
-2.22785e-05
5.09623e-05
-2.2813e-05
5.36708e-05
-2.33715e-05
5.64329e-05
-2.39347e-05
5.92428e-05
-2.44797e-05
6.20917e-05
-2.49792e-05
6.49677e-05
-2.54004e-05
6.7855e-05
-2.57042e-05
7.0734e-05
-2.58438e-05
7.35804e-05
-2.57642e-05
7.63651e-05
-2.54005e-05
7.90536e-05
-2.46779e-05
8.16065e-05
-2.3511e-05
8.39796e-05
-2.18041e-05
8.61248e-05
-1.94518e-05
8.79916e-05
-1.63403e-05
8.95284e-05
-1.23478e-05
9.06818e-05
-7.34216e-06
9.13922e-05
-1.1738e-06
9.15816e-05
6.34443e-06
9.11255e-05
1.548e-05
8.98072e-05
2.66226e-05
8.72596e-05
4.02995e-05
8.29228e-05
5.71049e-05
7.60296e-05
7.75409e-05
6.57403e-05
0.00010142
0.000127332
3.3605e-06
-2.19845e-05
7.12944e-06
-3.01716e-05
1.04866e-05
-2.99553e-05
1.34955e-05
-2.83636e-05
1.62648e-05
-2.68038e-05
1.88683e-05
-2.55164e-05
2.13556e-05
-2.45131e-05
2.37624e-05
-2.37635e-05
2.61165e-05
-2.32346e-05
2.84403e-05
-2.28979e-05
3.07524e-05
-2.27294e-05
3.30685e-05
-2.27092e-05
3.54017e-05
-2.28199e-05
3.77629e-05
-2.3046e-05
4.01609e-05
-2.33733e-05
4.26029e-05
-2.37878e-05
4.50936e-05
-2.42754e-05
4.76361e-05
-2.4821e-05
5.02313e-05
-2.54082e-05
5.28781e-05
-2.60183e-05
5.5573e-05
-2.66296e-05
5.83102e-05
-2.72169e-05
6.10811e-05
-2.77501e-05
6.38742e-05
-2.81935e-05
6.66748e-05
-2.85047e-05
6.94644e-05
-2.86334e-05
7.22207e-05
-2.85205e-05
7.49173e-05
-2.8097e-05
7.75232e-05
-2.72839e-05
8.00039e-05
-2.59917e-05
8.23213e-05
-2.41215e-05
8.44357e-05
-2.15662e-05
8.63069e-05
-1.82115e-05
8.78954e-05
-1.39362e-05
8.91605e-05
-8.60732e-06
9.00531e-05
-2.06634e-06
9.04945e-05
5.90304e-06
9.03357e-05
1.56388e-05
8.92869e-05
2.76713e-05
8.68285e-05
4.27579e-05
8.22223e-05
6.1711e-05
7.47067e-05
8.50565e-05
6.41514e-05
0.000111975
0.000141297
3.33313e-06
-2.53176e-05
6.98305e-06
-3.38215e-05
1.02354e-05
-3.32077e-05
1.31743e-05
-3.13025e-05
1.58997e-05
-2.95292e-05
1.84748e-05
-2.80915e-05
2.09412e-05
-2.69796e-05
2.33302e-05
-2.61524e-05
2.56666e-05
-2.5571e-05
2.79714e-05
-2.52026e-05
3.02621e-05
-2.50202e-05
3.25539e-05
-2.5001e-05
3.48594e-05
-2.51254e-05
3.71893e-05
-2.53759e-05
3.9552e-05
-2.5736e-05
4.19542e-05
-2.619e-05
4.44005e-05
-2.67217e-05
4.68936e-05
-2.7314e-05
4.9434e-05
-2.79487e-05
5.20205e-05
-2.86048e-05
5.46497e-05
-2.92588e-05
5.73157e-05
-2.98829e-05
6.00104e-05
-3.04448e-05
6.27229e-05
-3.0906e-05
6.54395e-05
-3.12213e-05
6.8143e-05
-3.1337e-05
7.0813e-05
-3.11905e-05
7.34252e-05
-3.07092e-05
7.59518e-05
-2.98105e-05
7.83622e-05
-2.8402e-05
8.06233e-05
-2.63826e-05
8.27016e-05
-2.36445e-05
8.45641e-05
-2.0074e-05
8.61787e-05
-1.55508e-05
8.75104e-05
-9.93902e-06
8.85076e-05
-3.06354e-06
8.90677e-05
5.34299e-06
8.89662e-05
1.57402e-05
8.77437e-05
2.88939e-05
8.45655e-05
4.59361e-05
7.83951e-05
6.78814e-05
6.86958e-05
9.47559e-05
5.72458e-05
0.000123425
0.000153429
3.34458e-06
-2.86622e-05
6.92142e-06
-3.73984e-05
1.0112e-05
-3.63982e-05
1.30214e-05
-3.42119e-05
1.5742e-05
-3.22498e-05
1.83273e-05
-3.06768e-05
2.08123e-05
-2.94645e-05
2.32235e-05
-2.85637e-05
2.55833e-05
-2.79308e-05
2.79107e-05
-2.753e-05
3.02222e-05
-2.73317e-05
3.25323e-05
-2.73111e-05
3.48533e-05
-2.74463e-05
3.71952e-05
-2.77178e-05
3.95663e-05
-2.81072e-05
4.1973e-05
-2.85966e-05
4.44194e-05
-2.91681e-05
4.69081e-05
-2.98027e-05
4.94395e-05
-3.04801e-05
5.20121e-05
-3.11775e-05
5.46226e-05
-3.18692e-05
5.72652e-05
-3.25256e-05
5.99323e-05
-3.31118e-05
6.26134e-05
-3.35871e-05
6.52955e-05
-3.39033e-05
6.79624e-05
-3.40039e-05
7.05947e-05
-3.38228e-05
7.31697e-05
-3.32842e-05
7.56613e-05
-3.23022e-05
7.8041e-05
-3.07817e-05
8.02784e-05
-2.86201e-05
8.2343e-05
-2.57091e-05
8.42045e-05
-2.19355e-05
8.58315e-05
-1.71778e-05
8.71835e-05
-1.1291e-05
8.81862e-05
-4.06628e-06
8.8681e-05
4.84823e-06
8.83424e-05
1.60788e-05
8.64626e-05
3.07736e-05
8.15187e-05
5.088e-05
7.21972e-05
7.7203e-05
5.89669e-05
0.000107986
4.64184e-05
0.000135974
0.000162466
3.31105e-06
-3.19732e-05
6.76745e-06
-4.08548e-05
9.85756e-06
-3.94884e-05
1.27026e-05
-3.70569e-05
1.5386e-05
-3.49332e-05
1.79516e-05
-3.32425e-05
2.04277e-05
-3.19406e-05
2.28363e-05
-3.09723e-05
2.51965e-05
-3.02909e-05
2.75251e-05
-2.98586e-05
2.98371e-05
-2.96438e-05
3.2146e-05
-2.96199e-05
3.44629e-05
-2.97632e-05
3.67974e-05
-3.00523e-05
3.91572e-05
-3.0467e-05
4.15481e-05
-3.09875e-05
4.39741e-05
-3.1594e-05
4.64372e-05
-3.22659e-05
4.89379e-05
-3.29807e-05
5.14746e-05
-3.37142e-05
5.4044e-05
-3.44386e-05
5.66409e-05
-3.51225e-05
5.92578e-05
-3.57288e-05
6.18851e-05
-3.62144e-05
6.45104e-05
-3.65286e-05
6.71183e-05
-3.66118e-05
6.96903e-05
-3.63948e-05
7.22045e-05
-3.57985e-05
7.4636e-05
-3.47337e-05
7.69569e-05
-3.31026e-05
7.91378e-05
-3.08009e-05
8.11478e-05
-2.77191e-05
8.29546e-05
-2.37424e-05
8.452e-05
-1.87432e-05
8.57847e-05
-1.25557e-05
8.66404e-05
-4.92197e-06
8.6905e-05
4.58365e-06
8.61602e-05
1.68236e-05
8.30801e-05
3.38538e-05
7.43616e-05
5.95985e-05
6.19283e-05
8.96362e-05
4.70034e-05
0.000122911
3.49584e-05
0.000148019
0.000168401
3.26311e-06
-3.52364e-05
6.58861e-06
-4.41803e-05
9.57112e-06
-4.24709e-05
1.23443e-05
-3.98301e-05
1.49824e-05
-3.75713e-05
1.75207e-05
-3.57807e-05
1.99811e-05
-3.44011e-05
2.23815e-05
-3.33727e-05
2.47378e-05
-3.26472e-05
2.70645e-05
-3.21853e-05
2.9375e-05
-3.19543e-05
3.16811e-05
-3.1926e-05
3.39932e-05
-3.20753e-05
3.63198e-05
-3.2379e-05
3.86681e-05
-3.28152e-05
4.10431e-05
-3.33626e-05
4.34486e-05
-3.39995e-05
4.58863e-05
-3.47035e-05
4.83564e-05
-3.54509e-05
5.08576e-05
-3.62154e-05
5.33867e-05
-3.69677e-05
5.59387e-05
-3.76745e-05
5.85068e-05
-3.82969e-05
6.10817e-05
-3.87893e-05
6.36515e-05
-3.90984e-05
6.62014e-05
-3.91617e-05
6.87131e-05
-3.89065e-05
7.11648e-05
-3.82501e-05
7.35309e-05
-3.70998e-05
7.57829e-05
-3.53546e-05
7.78892e-05
-3.29072e-05
7.98153e-05
-2.96452e-05
8.15215e-05
-2.54486e-05
8.29529e-05
-2.01746e-05
8.4029e-05
-1.36318e-05
8.46496e-05
-5.54257e-06
8.46431e-05
4.59014e-06
8.31915e-05
1.82752e-05
7.80162e-05
3.90291e-05
6.96002e-05
6.80145e-05
5.7105e-05
0.000102131
4.32308e-05
0.000136785
3.0046e-05
0.000161204
0.000175445
3.20278e-06
-3.84391e-05
6.39002e-06
-4.73675e-05
9.26e-06
-4.53408e-05
1.19552e-05
-4.25253e-05
1.45407e-05
-4.01569e-05
1.7044e-05
-3.8284e-05
1.94818e-05
-3.68388e-05
2.18678e-05
-3.57587e-05
2.4215e-05
-3.49944e-05
2.65357e-05
-3.4506e-05
2.88414e-05
-3.426e-05
3.11423e-05
-3.4227e-05
3.34476e-05
-3.43806e-05
3.57649e-05
-3.46964e-05
3.81005e-05
-3.51508e-05
4.0459e-05
-3.5721e-05
4.28434e-05
-3.63839e-05
4.52554e-05
-3.71155e-05
4.76951e-05
-3.78906e-05
5.01612e-05
-3.86815e-05
5.26507e-05
-3.94573e-05
5.51591e-05
-4.01829e-05
5.76799e-05
-4.08176e-05
6.0204e-05
-4.13134e-05
6.27199e-05
-4.16143e-05
6.52126e-05
-4.16544e-05
6.76634e-05
-4.13573e-05
7.00493e-05
-4.06361e-05
7.23432e-05
-3.93937e-05
7.45134e-05
-3.75248e-05
7.65239e-05
-3.49177e-05
7.83332e-05
-3.14545e-05
7.98882e-05
-2.70035e-05
8.11183e-05
-2.14048e-05
8.19598e-05
-1.44733e-05
8.23795e-05
-5.96225e-06
8.20292e-05
4.94046e-06
7.91433e-05
2.11611e-05
7.25357e-05
4.56367e-05
6.26159e-05
7.79343e-05
5.12671e-05
0.00011348
4.02271e-05
0.000147825
2.91531e-05
0.000172278
0.000181679
3.13183e-06
-4.1571e-05
6.17548e-06
-5.04112e-05
8.92935e-06
-4.80947e-05
1.15413e-05
-4.51372e-05
1.40676e-05
-4.26831e-05
1.65287e-05
-4.07452e-05
1.89367e-05
-3.92468e-05
2.13018e-05
-3.81239e-05
2.36343e-05
-3.73269e-05
2.59441e-05
-3.68158e-05
2.82408e-05
-3.65566e-05
3.05331e-05
-3.65193e-05
3.28289e-05
-3.66764e-05
3.51347e-05
-3.70021e-05
3.74558e-05
-3.74719e-05
3.97962e-05
-3.80614e-05
4.21586e-05
-3.87463e-05
4.45443e-05
-3.95013e-05
4.69535e-05
-4.02998e-05
4.93849e-05
-4.11128e-05
5.18357e-05
-4.19082e-05
5.43018e-05
-4.2649e-05
5.67768e-05
-4.32926e-05
5.92519e-05
-4.37885e-05
6.17153e-05
-4.40777e-05
6.41512e-05
-4.40903e-05
6.65397e-05
-4.37458e-05
6.88557e-05
-4.2952e-05
7.10687e-05
-4.16066e-05
7.31424e-05
-3.95986e-05
7.50343e-05
-3.68096e-05
7.66927e-05
-3.31128e-05
7.80516e-05
-2.83624e-05
7.90573e-05
-2.24105e-05
7.97218e-05
-1.51378e-05
8.00139e-05
-6.25437e-06
7.83485e-05
6.60584e-06
7.30097e-05
2.64999e-05
6.41011e-05
5.45454e-05
5.43252e-05
8.77102e-05
4.58463e-05
0.000121959
3.93552e-05
0.000154316
3.3436e-05
0.000178197
0.000185752
3.05167e-06
-4.46226e-05
5.94767e-06
-5.33072e-05
8.58263e-06
-5.07297e-05
1.11067e-05
-4.76613e-05
1.35675e-05
-4.51439e-05
1.59796e-05
-4.31572e-05
1.83509e-05
-4.1618e-05
2.06886e-05
-4.04616e-05
2.30003e-05
-3.96386e-05
2.52939e-05
-3.91094e-05
2.7577e-05
-3.88397e-05
2.98567e-05
-3.8799e-05
3.21394e-05
-3.89591e-05
3.44307e-05
-3.92934e-05
3.67348e-05
-3.97761e-05
3.90553e-05
-4.03819e-05
4.13942e-05
-4.10852e-05
4.37527e-05
-4.18598e-05
4.6131e-05
-4.2678e-05
4.85279e-05
-4.35097e-05
5.0941e-05
-4.43212e-05
5.33661e-05
-4.50741e-05
5.5797e-05
-4.57234e-05
5.82246e-05
-4.62162e-05
6.06364e-05
-4.64895e-05
6.30154e-05
-4.64693e-05
6.53393e-05
-4.60697e-05
6.75797e-05
-4.51925e-05
6.97018e-05
-4.37287e-05
7.16631e-05
-4.15599e-05
7.34131e-05
-3.85596e-05
7.48873e-05
-3.4587e-05
7.60284e-05
-2.95035e-05
7.68552e-05
-2.32373e-05
7.74963e-05
-1.57789e-05
7.73588e-05
-6.11679e-06
7.2993e-05
1.09716e-05
6.44864e-05
3.50065e-05
5.46093e-05
6.44225e-05
4.66396e-05
9.56798e-05
4.18492e-05
0.00012675
4.0022e-05
0.000156144
3.94416e-05
0.000178777
0.000188351
2.96338e-06
-4.7586e-05
5.70834e-06
-5.60521e-05
8.22188e-06
-5.32432e-05
1.06538e-05
-5.00932e-05
1.30433e-05
-4.75334e-05
1.53998e-05
-4.55138e-05
1.77277e-05
-4.3946e-05
2.00316e-05
-4.27654e-05
2.23165e-05
-4.19236e-05
2.45883e-05
-4.13812e-05
2.68527e-05
-4.11041e-05
2.91152e-05
-4.10615e-05
3.13809e-05
-4.12248e-05
3.36541e-05
-4.15666e-05
3.59383e-05
-4.20603e-05
3.82363e-05
-4.26798e-05
4.05498e-05
-4.33988e-05
4.288e-05
-4.419e-05
4.52268e-05
-4.50248e-05
4.75893e-05
-4.58722e-05
4.99652e-05
-4.66972e-05
5.23505e-05
-4.74594e-05
5.47386e-05
-4.81116e-05
5.712e-05
-4.85975e-05
5.94806e-05
-4.88501e-05
6.18015e-05
-4.87902e-05
6.40572e-05
-4.83254e-05
6.62151e-05
-4.73504e-05
6.82349e-05
-4.57484e-05
7.00672e-05
-4.33923e-05
7.16515e-05
-4.01439e-05
7.29197e-05
-3.58553e-05
7.38616e-05
-3.04453e-05
7.46372e-05
-2.40129e-05
7.535e-05
-1.64916e-05
7.23644e-05
-3.13118e-06
6.48401e-05
1.84958e-05
5.47263e-05
4.51203e-05
4.58132e-05
7.33357e-05
4.02262e-05
0.000101267
3.83401e-05
0.000128636
3.95356e-05
0.000154948
4.15374e-05
0.000176775
0.000191516
2.86771e-06
-5.04537e-05
5.45838e-06
-5.86428e-05
7.84796e-06
-5.56328e-05
1.01835e-05
-5.24288e-05
1.24962e-05
-4.98462e-05
1.47911e-05
-4.78086e-05
1.70694e-05
-4.62243e-05
1.93331e-05
-4.50291e-05
2.15853e-05
-4.41758e-05
2.38296e-05
-4.36255e-05
2.607e-05
-4.33445e-05
2.83105e-05
-4.3302e-05
3.05547e-05
-4.3469e-05
3.28058e-05
-4.38177e-05
3.50666e-05
-4.43212e-05
3.73393e-05
-4.49524e-05
3.96252e-05
-4.56847e-05
4.19253e-05
-4.64901e-05
4.42398e-05
-4.73393e-05
4.65677e-05
-4.82002e-05
4.8907e-05
-4.90364e-05
5.12532e-05
-4.98057e-05
5.35995e-05
-5.04579e-05
5.5935e-05
-5.0933e-05
5.8244e-05
-5.11591e-05
6.05044e-05
-5.10506e-05
6.26868e-05
-5.05078e-05
6.47537e-05
-4.94173e-05
6.66584e-05
-4.76531e-05
6.83443e-05
-4.50782e-05
6.97421e-05
-4.15417e-05
7.08139e-05
-3.69271e-05
7.1637e-05
-3.12684e-05
7.24007e-05
-2.47767e-05
7.10404e-05
-1.51313e-05
6.48553e-05
3.05394e-06
5.52338e-05
2.81173e-05
4.56306e-05
5.47235e-05
3.86125e-05
8.03537e-05
3.50256e-05
0.000104854
3.49071e-05
0.000128754
3.76017e-05
0.000152253
4.06648e-05
0.000173712
0.000192454
2.76509e-06
-5.32188e-05
5.19796e-06
-6.10757e-05
7.46076e-06
-5.78956e-05
9.69567e-06
-5.46637e-05
1.19264e-05
-5.20769e-05
1.41538e-05
-5.0036e-05
1.63766e-05
-4.8447e-05
1.85943e-05
-4.72469e-05
2.08079e-05
-4.63894e-05
2.30192e-05
-4.58368e-05
2.52303e-05
-4.55556e-05
2.74437e-05
-4.55154e-05
2.96617e-05
-4.5687e-05
3.18865e-05
-4.60426e-05
3.41201e-05
-4.65547e-05
3.6364e-05
-4.71964e-05
3.86196e-05
-4.79403e-05
4.08878e-05
-4.87583e-05
4.31687e-05
-4.96202e-05
4.54616e-05
-5.04931e-05
4.77642e-05
-5.13389e-05
5.00717e-05
-5.21132e-05
5.23764e-05
-5.27625e-05
5.46656e-05
-5.32223e-05
5.69211e-05
-5.34145e-05
5.9117e-05
-5.32465e-05
6.12194e-05
-5.26103e-05
6.31851e-05
-5.1383e-05
6.49608e-05
-4.94288e-05
6.64813e-05
-4.65988e-05
6.76836e-05
-4.27439e-05
6.85891e-05
-3.78327e-05
6.94179e-05
-3.20972e-05
6.98456e-05
-2.52044e-05
6.52319e-05
-1.05176e-05
5.61749e-05
1.21109e-05
4.62544e-05
3.80378e-05
3.82203e-05
6.27576e-05
3.30484e-05
8.55255e-05
3.09593e-05
0.000106943
3.19336e-05
0.00012778
3.55354e-05
0.000148652
4.01571e-05
0.00016909
0.000188927
2.65561e-06
-5.58744e-05
4.92656e-06
-6.33466e-05
7.05918e-06
-6.00282e-05
9.1891e-06
-5.67936e-05
1.13328e-05
-5.42206e-05
1.34874e-05
-5.21906e-05
1.56491e-05
-5.06086e-05
1.78153e-05
-4.94131e-05
1.9985e-05
-4.8559e-05
2.21578e-05
-4.80096e-05
2.43344e-05
-4.77322e-05
2.65156e-05
-4.76966e-05
2.87025e-05
-4.78739e-05
3.08964e-05
-4.82365e-05
3.30986e-05
-4.87569e-05
3.53103e-05
-4.94081e-05
3.75326e-05
-5.01626e-05
3.97665e-05
-5.09921e-05
4.20122e-05
-5.1866e-05
4.4269e-05
-5.27499e-05
4.65344e-05
-5.36043e-05
4.88028e-05
-5.43817e-05
5.10651e-05
-5.50248e-05
5.33065e-05
-5.54636e-05
5.55052e-05
-5.56132e-05
5.76311e-05
-5.53725e-05
5.96451e-05
-5.46242e-05
6.14975e-05
-5.32354e-05
6.31282e-05
-5.10595e-05
6.44657e-05
-4.79363e-05
6.54868e-05
-4.3765e-05
6.63069e-05
-3.86528e-05
6.71113e-05
-3.29016e-05
6.47681e-05
-2.28612e-05
5.73084e-05
-3.05785e-06
4.73779e-05
2.20414e-05
3.86587e-05
4.6757e-05
3.23759e-05
6.90404e-05
2.87292e-05
8.91722e-05
2.77502e-05
0.000107922
2.94763e-05
0.000126054
3.38369e-05
0.000144291
4.003e-05
0.000162897
0.000181564
2.5391e-06
-5.84135e-05
4.64294e-06
-6.54504e-05
6.64119e-06
-6.20265e-05
8.66141e-06
-5.88138e-05
1.07131e-05
-5.62723e-05
1.279e-05
-5.42675e-05
1.48857e-05
-5.27043e-05
1.69955e-05
-5.15229e-05
1.91162e-05
-5.06797e-05
2.12456e-05
-5.01391e-05
2.33826e-05
-4.98692e-05
2.55265e-05
-4.98405e-05
2.76774e-05
-5.00248e-05
2.98357e-05
-5.03947e-05
3.2002e-05
-5.09232e-05
3.41775e-05
-5.15835e-05
3.63632e-05
-5.23483e-05
3.85601e-05
-5.3189e-05
4.07685e-05
-5.40744e-05
4.29877e-05
-5.49691e-05
4.52146e-05
-5.58311e-05
4.74427e-05
-5.66099e-05
4.96609e-05
-5.7243e-05
5.18514e-05
-5.76541e-05
5.39886e-05
-5.77503e-05
5.60374e-05
-5.74213e-05
5.79526e-05
-5.65394e-05
5.96783e-05
-5.49612e-05
6.1147e-05
-5.25281e-05
6.22969e-05
-4.90862e-05
6.31599e-05
-4.46279e-05
6.39423e-05
-3.94351e-05
6.38776e-05
-3.28369e-05
5.80861e-05
-1.70697e-05
4.87476e-05
6.28069e-06
3.95487e-05
3.12402e-05
3.24287e-05
5.3877e-05
2.76721e-05
7.37971e-05
2.5217e-05
9.16273e-05
2.50676e-05
0.000108071
2.73213e-05
0.0001238
3.21309e-05
0.000139481
3.94347e-05
0.000155594
4.91355e-05
0.000171863
0.000189977
2.41514e-06
-6.08287e-05
4.34508e-06
-6.73804e-05
6.20362e-06
-6.3885e-05
8.10898e-06
-6.07192e-05
1.00639e-05
-5.82273e-05
1.20586e-05
-5.62622e-05
1.40841e-05
-5.47298e-05
1.61333e-05
-5.35721e-05
1.82007e-05
-5.27471e-05
2.02821e-05
-5.22205e-05
2.23747e-05
-5.19618e-05
2.44765e-05
-5.19423e-05
2.65865e-05
-5.21348e-05
2.87043e-05
-5.25125e-05
3.08302e-05
-5.30492e-05
3.29652e-05
-5.37186e-05
3.51105e-05
-5.44936e-05
3.72672e-05
-5.53457e-05
3.94357e-05
-5.6243e-05
4.16151e-05
-5.71484e-05
4.38014e-05
-5.80175e-05
4.59869e-05
-5.87954e-05
4.8158e-05
-5.94141e-05
5.02934e-05
-5.97895e-05
5.23628e-05
-5.98197e-05
5.43256e-05
-5.93841e-05
5.61304e-05
-5.83441e-05
5.77139e-05
-5.65447e-05
5.90031e-05
-5.38173e-05
5.99808e-05
-5.0064e-05
6.07689e-05
-4.5416e-05
6.15044e-05
-4.01706e-05
5.84616e-05
-2.97941e-05
5.03225e-05
-8.93066e-06
4.07838e-05
1.58194e-05
3.29169e-05
3.9107e-05
2.72716e-05
5.95224e-05
2.3733e-05
7.73356e-05
2.21925e-05
9.31678e-05
2.26604e-05
0.000107603
2.52653e-05
0.000121195
3.02599e-05
0.000134487
3.79243e-05
0.000147929
4.84789e-05
0.000161308
0.000175996
2.28327e-06
-6.31119e-05
4.02995e-06
-6.91271e-05
5.74176e-06
-6.55968e-05
7.52662e-06
-6.2504e-05
9.38033e-06
-6.0081e-05
1.12892e-05
-5.81711e-05
1.32412e-05
-5.66818e-05
1.52264e-05
-5.55573e-05
1.72369e-05
-5.47576e-05
1.92664e-05
-5.42501e-05
2.13104e-05
-5.40057e-05
2.33655e-05
-5.39974e-05
2.54297e-05
-5.4199e-05
2.75021e-05
-5.45849e-05
2.95829e-05
-5.513e-05
3.1673e-05
-5.58086e-05
3.37737e-05
-5.65943e-05
3.58865e-05
-5.74584e-05
3.80117e-05
-5.83682e-05
4.01481e-05
-5.92848e-05
4.22909e-05
-6.01603e-05
4.44305e-05
-6.0935e-05
4.65503e-05
-6.15338e-05
4.8625e-05
-6.18642e-05
5.06191e-05
-6.18138e-05
5.24859e-05
-6.1251e-05
5.41671e-05
-6.00253e-05
5.55928e-05
-5.79705e-05
5.66989e-05
-5.49234e-05
5.75151e-05
-5.08801e-05
5.82171e-05
-4.6118e-05
5.78619e-05
-3.98154e-05
5.14e-05
-2.33322e-05
4.22115e-05
2.57774e-07
3.37447e-05
2.42862e-05
2.72902e-05
4.55616e-05
2.28693e-05
6.39433e-05
2.02879e-05
7.9917e-05
1.94516e-05
9.40041e-05
2.03803e-05
0.000106675
2.32072e-05
0.000118368
2.82034e-05
0.000129491
3.57655e-05
0.000140367
4.62323e-05
0.000150841
0.00016154
2.14336e-06
-6.52553e-05
3.69288e-06
-7.06766e-05
5.24867e-06
-6.71526e-05
6.90694e-06
-6.41623e-05
8.65562e-06
-6.18297e-05
1.04762e-05
-5.99916e-05
1.23527e-05
-5.85583e-05
1.42719e-05
-5.74765e-05
1.6223e-05
-5.67087e-05
1.81977e-05
-5.62247e-05
2.01893e-05
-5.59974e-05
2.21935e-05
-5.60016e-05
2.42073e-05
-5.62128e-05
2.62296e-05
-5.66072e-05
2.82602e-05
-5.71606e-05
3.03005e-05
-5.78488e-05
3.2352e-05
-5.86458e-05
3.44164e-05
-5.95228e-05
3.64942e-05
-6.0446e-05
3.85836e-05
-6.13742e-05
4.06788e-05
-6.22555e-05
4.2768e-05
-6.30241e-05
4.48311e-05
-6.3597e-05
4.68384e-05
-6.38715e-05
4.87487e-05
-6.37241e-05
5.05085e-05
-6.30107e-05
5.20515e-05
-6.15683e-05
5.33012e-05
-5.92202e-05
5.42389e-05
-5.58612e-05
5.49704e-05
-5.16116e-05
5.55918e-05
-4.67394e-05
5.21213e-05
-3.6345e-05
4.37922e-05
-1.5003e-05
3.48301e-05
9.21982e-06
2.76414e-05
3.1475e-05
2.24272e-05
5.07758e-05
1.89917e-05
6.73788e-05
1.71656e-05
8.17431e-05
1.68795e-05
9.42901e-05
1.81577e-05
0.000105396
2.11228e-05
0.000115403
2.60149e-05
0.000124598
3.32092e-05
0.000133173
4.30722e-05
0.000140979
0.000147989
1.99532e-06
-6.72506e-05
3.32605e-06
-7.20073e-05
4.7137e-06
-6.85403e-05
6.23952e-06
-6.56881e-05
7.88089e-06
-6.34711e-05
9.61259e-06
-6.17233e-05
1.14135e-05
-6.03592e-05
1.32664e-05
-5.93293e-05
1.51571e-05
-5.85995e-05
1.70749e-05
-5.81424e-05
1.90114e-05
-5.79339e-05
2.0961e-05
-5.79512e-05
2.29202e-05
-5.8172e-05
2.48874e-05
-5.85744e-05
2.68629e-05
-5.91361e-05
2.8848e-05
-5.9834e-05
3.0845e-05
-6.06428e-05
3.28558e-05
-6.15336e-05
3.48811e-05
-6.24713e-05
3.69184e-05
-6.34116e-05
3.89608e-05
-6.42979e-05
4.09938e-05
-6.50571e-05
4.2994e-05
-6.55971e-05
4.49263e-05
-6.58039e-05
4.67434e-05
-6.55412e-05
4.83847e-05
-6.46519e-05
4.97767e-05
-6.29603e-05
5.08478e-05
-6.02912e-05
5.16187e-05
-5.66321e-05
5.22332e-05
-5.22262e-05
5.17957e-05
-4.63019e-05
4.49604e-05
-2.95097e-05
3.61175e-05
-6.16013e-06
2.82889e-05
1.70485e-05
2.2322e-05
3.74418e-05
1.8125e-05
5.49728e-05
1.54832e-05
7.00206e-05
1.42638e-05
8.29625e-05
1.44171e-05
9.41368e-05
1.5967e-05
0.000103846
1.90167e-05
0.000112353
2.37587e-05
0.000119857
3.04866e-05
0.000126445
3.95024e-05
0.000131963
0.000136095
1.83638e-06
-6.9087e-05
2.915e-06
-7.30859e-05
4.1205e-06
-6.97458e-05
5.50992e-06
-6.70775e-05
7.04464e-06
-6.50058e-05
8.68998e-06
-6.33687e-05
1.0418e-05
-6.20873e-05
1.22065e-05
-6.11178e-05
1.40376e-05
-6.04307e-05
1.5898e-05
-6.00028e-05
1.77775e-05
-5.98135e-05
1.96695e-05
-5.98432e-05
2.157e-05
-6.00725e-05
2.34775e-05
-6.04819e-05
2.53925e-05
-6.10511e-05
2.73168e-05
-6.17584e-05
2.92533e-05
-6.25793e-05
3.12044e-05
-6.34847e-05
3.31708e-05
-6.44377e-05
3.51497e-05
-6.53905e-05
3.71326e-05
-6.62808e-05
3.91027e-05
-6.70272e-05
4.10324e-05
-6.75268e-05
4.28815e-05
-6.7653e-05
4.45957e-05
-6.72555e-05
4.61058e-05
-6.6162e-05
4.73301e-05
-6.41847e-05
4.82366e-05
-6.11977e-05
4.89023e-05
-5.72977e-05
4.94156e-05
-5.27394e-05
4.57673e-05
-4.26536e-05
3.75647e-05
-2.13071e-05
2.91676e-05
2.23706e-06
2.25048e-05
2.37113e-05
1.75986e-05
4.23481e-05
1.4236e-05
5.83354e-05
1.22442e-05
7.20122e-05
1.15241e-05
8.36827e-05
1.20388e-05
9.36221e-05
1.38072e-05
0.000102078
1.69061e-05
0.000109255
2.14736e-05
0.000115289
2.77089e-05
0.00012021
3.58117e-05
0.00012386
0.00012588
1.65263e-06
-7.07396e-05
2.43343e-06
-7.38667e-05
3.44496e-06
-7.07573e-05
4.69909e-06
-6.83317e-05
6.13299e-06
-6.64397e-05
7.69897e-06
-6.49346e-05
9.36056e-06
-6.37489e-05
1.10895e-05
-6.28467e-05
1.2864e-05
-6.22052e-05
1.46679e-05
-6.18067e-05
1.64898e-05
-6.16353e-05
1.8322e-05
-6.16754e-05
2.01604e-05
-6.19109e-05
2.20036e-05
-6.2325e-05
2.38525e-05
-6.29e-05
2.57098e-05
-6.36157e-05
2.7579e-05
-6.44485e-05
2.9463e-05
-6.53687e-05
3.13628e-05
-6.63375e-05
3.32753e-05
-6.73031e-05
3.51908e-05
-6.81962e-05
3.70899e-05
-6.89263e-05
3.89409e-05
-6.93778e-05
4.06979e-05
-6.941e-05
4.22994e-05
-6.88569e-05
4.3668e-05
-6.75306e-05
4.47202e-05
-6.52369e-05
4.54593e-05
-6.19368e-05
4.59985e-05
-5.78369e-05
4.56558e-05
-5.23968e-05
3.86532e-05
-3.5651e-05
3.02537e-05
-1.29076e-05
2.29654e-05
9.52527e-06
1.73665e-05
2.93103e-05
1.33321e-05
4.63825e-05
1.0659e-05
6.10085e-05
9.21193e-06
7.34593e-05
8.91422e-06
8.39804e-05
9.73575e-06
9.28006e-05
1.16861e-05
0.000100128
1.4813e-05
0.000106128
1.92019e-05
0.0001109
2.49654e-05
0.000114446
3.21995e-05
0.000116626
0.000117139
1.40278e-06
-7.21424e-05
1.83809e-06
-7.4302e-05
2.6548e-06
-7.1574e-05
3.78426e-06
-6.94611e-05
5.13089e-06
-6.77863e-05
6.63055e-06
-6.64343e-05
8.23665e-06
-6.5355e-05
9.91432e-06
-6.45244e-05
1.16377e-05
-6.39286e-05
1.33883e-05
-6.35572e-05
1.51531e-05
-6.34002e-05
1.69242e-05
-6.34465e-05