/*--------------------------------*- C++ -*----------------------------------*\
  =========                 |
  \\      /  F ield         | OpenFOAM: The Open Source CFD Toolbox
   \\    /   O peration     | Website:  https://openfoam.org
    \\  /    A nd           | Version:  9
     \\/     M anipulation  |
\*---------------------------------------------------------------------------*/
FoamFile
{
    format      ascii;
    class       volVectorField;
    location    "0.2";
    object      U;
}
// * * * * * * * * * * * * * * * * * * * * * * * * * * * * * * * * * * * * * //

dimensions      [0 1 -1 0 0 0 0];

internalField   nonuniform List<vector> 
1935
(
(-0.0196807 0.010387 0)
(-0.00960927 -0.0126273 0)
(0.0313612 -0.0238326 0)
(0.080181 -0.0269523 0)
(0.13094 -0.0266792 0)
(0.180903 -0.0253607 0)
(0.228864 -0.0239066 0)
(0.274655 -0.0226076 0)
(0.318593 -0.0215347 0)
(0.3611 -0.0206868 0)
(0.402563 -0.0200401 0)
(0.443324 -0.0195665 0)
(0.483682 -0.0192415 0)
(0.523902 -0.0190457 0)
(0.564223 -0.018965 0)
(0.604861 -0.0189891 0)
(0.646013 -0.0191102 0)
(0.687862 -0.0193221 0)
(0.730575 -0.0196183 0)
(0.774298 -0.0199914 0)
(0.819153 -0.0204313 0)
(0.865232 -0.0209241 0)
(0.912581 -0.0214506 0)
(0.961194 -0.0219849 0)
(1.01099 -0.0224924 0)
(1.0618 -0.0229287 0)
(1.11332 -0.0232374 0)
(1.16514 -0.0233484 0)
(1.21663 -0.0231762 0)
(1.26698 -0.022617 0)
(1.3151 -0.0215472 0)
(1.35959 -0.0198113 0)
(1.39862 -0.0172252 0)
(1.42997 -0.0134369 0)
(1.45007 -0.00790079 0)
(1.45603 0.001528 0)
(1.435 0.0155295 0)
(1.37923 0.0343501 0)
(1.28099 0.0577273 0)
(1.13317 0.0839149 0)
(0.932834 0.108335 0)
(0.687384 0.123375 0)
(0.418239 0.120969 0)
(0.162788 0.100806 0)
(0.00458638 0.0115329 0)
(0.0326557 -0.0296567 0)
(0.0749118 -0.0502558 0)
(0.120836 -0.0568206 0)
(0.167111 -0.0572494 0)
(0.212518 -0.0555205 0)
(0.256506 -0.0532967 0)
(0.299009 -0.051218 0)
(0.340236 -0.0495017 0)
(0.380477 -0.0481944 0)
(0.420025 -0.0472778 0)
(0.459158 -0.046715 0)
(0.498132 -0.0464684 0)
(0.537181 -0.0465063 0)
(0.576521 -0.0468026 0)
(0.616346 -0.047336 0)
(0.656833 -0.0480871 0)
(0.698139 -0.0490366 0)
(0.740402 -0.0501624 0)
(0.783732 -0.0514374 0)
(0.828214 -0.0528262 0)
(0.87389 -0.0542833 0)
(0.920761 -0.0557495 0)
(0.968764 -0.0571485 0)
(1.01777 -0.0583835 0)
(1.06754 -0.059333 0)
(1.11776 -0.0598464 0)
(1.16794 -0.0597397 0)
(1.21747 -0.0587906 0)
(1.26551 -0.0567321 0)
(1.31101 -0.0532451 0)
(1.35264 -0.0479415 0)
(1.3888 -0.0403451 0)
(1.41756 -0.0297672 0)
(1.43695 -0.0152554 0)
(1.44434 0.00504713 0)
(1.44341 0.0328694 0)
(1.43106 0.0690687 0)
(1.40131 0.114278 0)
(1.34482 0.167875 0)
(1.24767 0.225637 0)
(1.09321 0.277296 0)
(0.869601 0.30642 0)
(0.589919 0.297355 0)
(0.018981 -0.0124726 0)
(0.0558524 -0.0611804 0)
(0.101159 -0.0833236 0)
(0.146166 -0.0897079 0)
(0.189695 -0.0893984 0)
(0.231928 -0.0867489 0)
(0.272906 -0.0836161 0)
(0.31274 -0.0807457 0)
(0.351648 -0.0784024 0)
(0.389879 -0.0766484 0)
(0.427677 -0.0754656 0)
(0.465277 -0.0748097 0)
(0.502903 -0.0746322 0)
(0.540761 -0.0748886 0)
(0.579038 -0.0755402 0)
(0.617907 -0.0765523 0)
(0.657519 -0.0778916 0)
(0.698006 -0.0795235 0)
(0.739475 -0.0814082 0)
(0.782006 -0.0834977 0)
(0.825649 -0.0857314 0)
(0.870412 -0.0880328 0)
(0.916257 -0.0903046 0)
(0.963087 -0.0924236 0)
(1.01073 -0.0942352 0)
(1.05894 -0.0955471 0)
(1.10735 -0.0961229 0)
(1.15549 -0.0956751 0)
(1.20272 -0.0938578 0)
(1.24825 -0.090258 0)
(1.29107 -0.0843856 0)
(1.32995 -0.0756596 0)
(1.36343 -0.0633939 0)
(1.38977 -0.0467817 0)
(1.40701 -0.0248954 0)
(1.41282 0.00315529 0)
(1.40567 0.0392105 0)
(1.3841 0.0854261 0)
(1.34705 0.144072 0)
(1.29315 0.216664 0)
(1.21904 0.301644 0)
(1.11596 0.390537 0)
(0.96605 0.464176 0)
(0.752679 0.493263 0)
(0.023293 -0.0422083 0)
(0.0672189 -0.0979436 0)
(0.11657 -0.118693 0)
(0.162312 -0.123136 0)
(0.204735 -0.121232 0)
(0.245135 -0.117319 0)
(0.284108 -0.113192 0)
(0.322012 -0.109558 0)
(0.35915 -0.106658 0)
(0.395786 -0.104539 0)
(0.432157 -0.103171 0)
(0.46848 -0.102496 0)
(0.504957 -0.102453 0)
(0.541774 -0.102985 0)
(0.5791 -0.10404 0)
(0.617085 -0.105568 0)
(0.65586 -0.107521 0)
(0.695535 -0.109847 0)
(0.736192 -0.112486 0)
(0.777889 -0.115369 0)
(0.820646 -0.118406 0)
(0.864447 -0.12149 0)
(0.909227 -0.124484 0)
(0.954864 -0.127217 0)
(1.00117 -0.129478 0)
(1.04787 -0.131006 0)
(1.09461 -0.131484 0)
(1.1409 -0.130526 0)
(1.18613 -0.127674 0)
(1.22954 -0.122385 0)
(1.2702 -0.114018 0)
(1.30698 -0.101829 0)
(1.33854 -0.0849586 0)
(1.36335 -0.0624276 0)
(1.37965 -0.0331365 0)
(1.38543 0.00411096 0)
(1.37868 0.0507371 0)
(1.35747 0.108633 0)
(1.32017 0.179802 0)
(1.26536 0.266008 0)
(1.19138 0.367575 0)
(1.09473 0.480436 0)
(0.965621 0.590371 0)
(0.786043 0.665956 0)
(0.0247941 -0.0756946 0)
(0.0726358 -0.138087 0)
(0.124807 -0.155529 0)
(0.171518 -0.156648 0)
(0.213692 -0.152435 0)
(0.253196 -0.146977 0)
(0.290987 -0.141803 0)
(0.327621 -0.137455 0)
(0.363506 -0.134089 0)
(0.39895 -0.131705 0)
(0.434205 -0.130247 0)
(0.469491 -0.129641 0)
(0.505003 -0.129811 0)
(0.540917 -0.130685 0)
(0.577388 -0.132198 0)
(0.614553 -0.134284 0)
(0.652525 -0.13688 0)
(0.691398 -0.139915 0)
(0.731236 -0.143308 0)
(0.772076 -0.146966 0)
(0.81392 -0.150774 0)
(0.856731 -0.154589 0)
(0.900427 -0.158237 0)
(0.94487 -0.1615 0)
(0.98986 -0.164113 0)
(1.03512 -0.165752 0)
(1.08029 -0.166022 0)
(1.1249 -0.164452 0)
(1.16838 -0.160481 0)
(1.21 -0.153453 0)
(1.24892 -0.1426 0)
(1.28412 -0.127043 0)
(1.31441 -0.105778 0)
(1.33844 -0.0776853 0)
(1.35473 -0.0415259 0)
(1.36159 0.00402955 0)
(1.35723 0.0604837 0)
(1.33978 0.129648 0)
(1.30728 0.213463 0)
(1.25753 0.313732 0)
(1.18766 0.431348 0)
(1.09348 0.564381 0)
(0.967166 0.703411 0)
(0.794239 0.822422 0)
(0.0255736 -0.110734 0)
(0.0751966 -0.179914 0)
(0.128612 -0.19323 0)
(0.17578 -0.190269 0)
(0.217893 -0.183259 0)
(0.256973 -0.175989 0)
(0.294107 -0.169642 0)
(0.329963 -0.164542 0)
(0.365015 -0.160717 0)
(0.399613 -0.1581 0)
(0.434032 -0.156594 0)
(0.468503 -0.156099 0)
(0.503223 -0.15652 0)
(0.538364 -0.157768 0)
(0.574076 -0.159761 0)
(0.610484 -0.162419 0)
(0.647694 -0.165659 0)
(0.685782 -0.169392 0)
(0.724802 -0.173517 0)
(0.764775 -0.177915 0)
(0.805689 -0.182443 0)
(0.847493 -0.186928 0)
(0.890093 -0.191157 0)
(0.933343 -0.194871 0)
(0.977039 -0.197753 0)
(1.02091 -0.19942 0)
(1.0646 -0.199411 0)
(1.10767 -0.197176 0)
(1.14958 -0.192068 0)
(1.18967 -0.183334 0)
(1.22717 -0.170102 0)
(1.26118 -0.151384 0)
(1.29068 -0.126072 0)
(1.31454 -0.0929406 0)
(1.33151 -0.0506554 0)
(1.34025 0.00221954 0)
(1.33928 0.0672878 0)
(1.32694 0.146476 0)
(1.3012 0.242015 0)
(1.25928 0.356276 0)
(1.19707 0.491106 0)
(1.10845 0.646262 0)
(0.984152 0.815287 0)
(0.810193 0.977044 0)
(0.0260506 -0.146616 0)
(0.0762121 -0.222267 0)
(0.129644 -0.231137 0)
(0.176637 -0.223875 0)
(0.218561 -0.213891 0)
(0.257368 -0.204669 0)
(0.294121 -0.197048 0)
(0.329505 -0.191128 0)
(0.364018 -0.186808 0)
(0.398033 -0.183941 0)
(0.431842 -0.182383 0)
(0.465684 -0.182 0)
(0.499762 -0.182674 0)
(0.53425 -0.184297 0)
(0.569292 -0.186766 0)
(0.60501 -0.189985 0)
(0.641499 -0.19385 0)
(0.67883 -0.198254 0)
(0.717042 -0.203074 0)
(0.756149 -0.208165 0)
(0.796126 -0.213359 0)
(0.836916 -0.218452 0)
(0.878418 -0.223195 0)
(0.920482 -0.227289 0)
(0.962907 -0.230372 0)
(1.00543 -0.232008 0)
(1.04771 -0.231676 0)
(1.08935 -0.228759 0)
(1.12983 -0.222537 0)
(1.16858 -0.212176 0)
(1.2049 -0.196723 0)
(1.23802 -0.175112 0)
(1.26708 -0.146161 0)
(1.29115 -0.108582 0)
(1.30925 -0.0609843 0)
(1.32034 -0.00185343 0)
(1.32325 0.0705438 0)
(1.31655 0.158392 0)
(1.29817 0.264486 0)
(1.26482 0.392228 0)
(1.21129 0.545031 0)
(1.12961 0.724723 0)
(1.00868 0.927223 0)
(0.833903 1.13466 0)
(0.0263192 -0.182892 0)
(0.0762414 -0.264331 0)
(0.128855 -0.268668 0)
(0.175157 -0.257202 0)
(0.216679 -0.244305 0)
(0.255197 -0.233127 0)
(0.29167 -0.224194 0)
(0.326741 -0.217409 0)
(0.360895 -0.212551 0)
(0.394505 -0.209401 0)
(0.427865 -0.207764 0)
(0.461222 -0.207473 0)
(0.494781 -0.208381 0)
(0.528715 -0.210357 0)
(0.563167 -0.213281 0)
(0.598256 -0.217032 0)
(0.634069 -0.221491 0)
(0.670671 -0.226528 0)
(0.708095 -0.231996 0)
(0.746344 -0.237729 0)
(0.78539 -0.243532 0)
(0.82517 -0.24917 0)
(0.865579 -0.254364 0)
(0.906472 -0.258778 0)
(0.947652 -0.262007 0)
(0.988868 -0.263568 0)
(1.02981 -0.262889 0)
(1.07009 -0.259296 0)
(1.10927 -0.252007 0)
(1.14681 -0.240124 0)
(1.18211 -0.222636 0)
(1.21452 -0.198422 0)
(1.24332 -0.166261 0)
(1.26778 -0.124839 0)
(1.28717 -0.0727388 0)
(1.30069 -0.00838542 0)
(1.30743 0.0701174 0)
(1.30608 0.165365 0)
(1.2944 0.281055 0)
(1.26836 0.422115 0)
(1.22142 0.593786 0)
(1.14385 0.800169 0)
(1.02447 1.0386 0)
(0.850627 1.29367 0)
(0.0264132 -0.219239 0)
(0.0755698 -0.305574 0)
(0.126822 -0.305413 0)
(0.172069 -0.290013 0)
(0.212985 -0.274399 0)
(0.251129 -0.261358 0)
(0.287322 -0.251138 0)
(0.322137 -0.243475 0)
(0.35602 -0.238053 0)
(0.389327 -0.234586 0)
(0.422344 -0.232838 0)
(0.455316 -0.232606 0)
(0.488445 -0.233716 0)
(0.521904 -0.236014 0)
(0.555832 -0.239357 0)
(0.590344 -0.243604 0)
(0.625523 -0.248614 0)
(0.661427 -0.254236 0)
(0.698083 -0.260301 0)
(0.735492 -0.26662 0)
(0.77362 -0.272972 0)
(0.812401 -0.279096 0)
(0.851734 -0.284682 0)
(0.891477 -0.28936 0)
(0.931443 -0.292688 0)
(0.971397 -0.294144 0)
(1.01105 -0.293108 0)
(1.05005 -0.288858 0)
(1.088 -0.28056 0)
(1.12442 -0.26727 0)
(1.15879 -0.247935 0)
(1.19055 -0.221404 0)
(1.21912 -0.186444 0)
(1.24395 -0.141741 0)
(1.26445 -0.0858729 0)
(1.28005 -0.0171926 0)
(1.28993 0.0664512 0)
(1.2927 0.168344 0)
(1.28551 0.293453 0)
(1.26253 0.448167 0)
(1.21451 0.638434 0)
(1.12908 0.86937 0)
(1.00117 1.14283 0)
(0.829996 1.44601 0)
(0.0263544 -0.255398 0)
(0.0743745 -0.345651 0)
(0.123919 -0.341108 0)
(0.167876 -0.322131 0)
(0.208018 -0.304066 0)
(0.245681 -0.289313 0)
(0.281541 -0.277873 0)
(0.316092 -0.269352 0)
(0.34973 -0.263357 0)
(0.382779 -0.259553 0)
(0.41551 -0.257665 0)
(0.448157 -0.257459 0)
(0.480917 -0.258735 0)
(0.513956 -0.261316 0)
(0.54741 -0.265036 0)
(0.581387 -0.269733 0)
(0.615967 -0.275245 0)
(0.651202 -0.281399 0)
(0.687116 -0.288005 0)
(0.723704 -0.294852 0)
(0.760933 -0.301693 0)
(0.798736 -0.308243 0)
(0.837016 -0.314165 0)
(0.875638 -0.319058 0)
(0.914426 -0.322447 0)
(0.953162 -0.323772 0)
(0.991578 -0.322375 0)
(1.02936 -0.317491 0)
(1.06612 -0.308246 0)
(1.10146 -0.293658 0)
(1.13491 -0.272646 0)
(1.16599 -0.244049 0)
(1.19422 -0.206638 0)
(1.21915 -0.159114 0)
(1.2403 -0.100041 0)
(1.25717 -0.0276323 0)
(1.26886 0.0607384 0)
(1.27344 0.169257 0)
(1.26605 0.303585 0)
(1.23694 0.469728 0)
(1.17334 0.676005 0)
(1.05893 0.934366 0)
(0.901131 1.24154 0)
(0.736681 1.58088 0)
(0.0261567 -0.291464 0)
(0.0727662 -0.384681 0)
(0.120374 -0.375899 0)
(0.162882 -0.35371 0)
(0.202112 -0.333473 0)
(0.239179 -0.317175 0)
(0.274628 -0.304602 0)
(0.308868 -0.295261 0)
(0.342241 -0.2887 0)
(0.375034 -0.284548 0)
(0.407496 -0.282495 0)
(0.439845 -0.282286 0)
(0.472266 -0.283694 0)
(0.504916 -0.286519 0)
(0.537926 -0.290574 0)
(0.571395 -0.295677 0)
(0.6054 -0.301642 0)
(0.639986 -0.308276 0)
(0.675173 -0.315369 0)
(0.710957 -0.322687 0)
(0.747301 -0.329962 0)
(0.784144 -0.336884 0)
(0.821391 -0.343091 0)
(0.858917 -0.348155 0)
(0.896558 -0.351571 0)
(0.934111 -0.352744 0)
(0.971326 -0.350979 0)
(1.00791 -0.345476 0)
(1.04352 -0.335325 0)
(1.07776 -0.319513 0)
(1.11023 -0.296942 0)
(1.14049 -0.266448 0)
(1.16812 -0.226813 0)
(1.19269 -0.176741 0)
(1.21376 -0.114725 0)
(1.23071 -0.0386826 0)
(1.24217 0.0545914 0)
(1.24449 0.169672 0)
(1.23054 0.312819 0)
(1.18753 0.497183 0)
(1.09447 0.738444 0)
(0.928142 1.03686 0)
(0.726158 1.36038 0)
(0.58414 1.6965 0)
(0.0258291 -0.327402 0)
(0.0708257 -0.42265 0)
(0.116347 -0.4098 0)
(0.157294 -0.384774 0)
(0.195493 -0.362648 0)
(0.231853 -0.344985 0)
(0.266795 -0.331385 0)
(0.300653 -0.321278 0)
(0.333711 -0.314175 0)
(0.36622 -0.309674 0)
(0.3984 -0.307445 0)
(0.430449 -0.307207 0)
(0.462537 -0.308716 0)
(0.49481 -0.311749 0)
(0.527388 -0.316098 0)
(0.560363 -0.321559 0)
(0.593804 -0.327928 0)
(0.627753 -0.33499 0)
(0.662227 -0.342516 0)
(0.697218 -0.350251 0)
(0.732693 -0.357905 0)
(0.768593 -0.365149 0)
(0.80483 -0.371595 0)
(0.841287 -0.37679 0)
(0.87781 -0.380199 0)
(0.91421 -0.381197 0)
(0.950252 -0.379054 0)
(0.985655 -0.372934 0)
(1.02009 -0.361894 0)
(1.0532 -0.344893 0)
(1.08457 -0.320818 0)
(1.11378 -0.288499 0)
(1.14041 -0.246714 0)
(1.164 -0.194127 0)
(1.184 -0.129045 0)
(1.19934 -0.0490212 0)
(1.20738 0.0493668 0)
(1.2038 0.171255 0)
(1.18135 0.329091 0)
(1.11407 0.543417 0)
(0.959108 0.842656 0)
(0.771182 1.21453 0)
(0.53819 1.5166 0)
(0.43045 1.78995 0)
(0.0253936 -0.362893 0)
(0.0686337 -0.459252 0)
(0.111986 -0.442571 0)
(0.151305 -0.415098 0)
(0.188381 -0.391376 0)
(0.223931 -0.372539 0)
(0.258271 -0.358036 0)
(0.291665 -0.347239 0)
(0.324346 -0.339633 0)
(0.356522 -0.334799 0)
(0.388388 -0.332391 0)
(0.420117 -0.332111 0)
(0.451861 -0.333694 0)
(0.483753 -0.336899 0)
(0.515899 -0.3415 0)
(0.548383 -0.347273 0)
(0.581268 -0.353994 0)
(0.614589 -0.36143 0)
(0.64836 -0.369333 0)
(0.682575 -0.377429 0)
(0.717201 -0.38541 0)
(0.752183 -0.392924 0)
(0.787441 -0.399564 0)
(0.822864 -0.404851 0)
(0.858308 -0.408222 0)
(0.893591 -0.40902 0)
(0.928487 -0.40648 0)
(0.96272 -0.39973 0)
(0.995964 -0.387791 0)
(1.02785 -0.369593 0)
(1.05795 -0.343997 0)
(1.08582 -0.309815 0)
(1.11097 -0.265787 0)
(1.13287 -0.210438 0)
(1.15056 -0.141826 0)
(1.16189 -0.0574739 0)
(1.16464 0.0459161 0)
(1.15509 0.177225 0)
(1.11865 0.36184 0)
(1.03704 0.701696 0)
(0.885861 1.09052 0)
(0.696639 1.46845 0)
(0.50425 1.71666 0)
(0.328056 1.87783 0)
(0.0248675 -0.397796 0)
(0.0662476 -0.494396 0)
(0.107389 -0.474149 0)
(0.145041 -0.44461 0)
(0.180917 -0.419573 0)
(0.215563 -0.399757 0)
(0.249209 -0.38448 0)
(0.282054 -0.373078 0)
(0.314282 -0.365022 0)
(0.346067 -0.359884 0)
(0.377571 -0.357305 0)
(0.408944 -0.356974 0)
(0.440318 -0.358611 0)
(0.47181 -0.361959 0)
(0.503513 -0.366773 0)
(0.535501 -0.372813 0)
(0.567827 -0.379837 0)
(0.600524 -0.387595 0)
(0.633602 -0.395822 0)
(0.667055 -0.404226 0)
(0.700852 -0.412482 0)
(0.734945 -0.420221 0)
(0.769256 -0.427013 0)
(0.803684 -0.432354 0)
(0.838088 -0.435654 0)
(0.872291 -0.436221 0)
(0.906063 -0.433254 0)
(0.939123 -0.425837 0)
(0.971128 -0.41295 0)
(1.00168 -0.393485 0)
(1.03031 -0.366264 0)
(1.05651 -0.330052 0)
(1.07972 -0.283478 0)
(1.09911 -0.224866 0)
(1.11276 -0.152392 0)
(1.11917 -0.064083 0)
(1.11774 0.0448128 0)
(1.10243 0.195155 0)
(1.05822 0.47593 0)
(0.936877 0.822725 0)
(0.777484 1.20217 0)
(0.623279 1.57424 0)
(0.474929 1.82405 0)
(0.36305 1.932 0)
(0.0242664 -0.431987 0)
(0.0637122 -0.528015 0)
(0.102625 -0.504492 0)
(0.138585 -0.473251 0)
(0.173197 -0.447166 0)
(0.206857 -0.426557 0)
(0.239719 -0.41064 0)
(0.27193 -0.398727 0)
(0.303629 -0.390285 0)
(0.334955 -0.38488 0)
(0.366041 -0.382147 0)
(0.397012 -0.381765 0)
(0.427979 -0.383442 0)
(0.459042 -0.386908 0)
(0.49028 -0.391901 0)
(0.521756 -0.398167 0)
(0.553515 -0.405449 0)
(0.585585 -0.413481 0)
(0.617976 -0.421981 0)
(0.650679 -0.430646 0)
(0.683669 -0.439133 0)
(0.7169 -0.447054 0)
(0.750301 -0.453959 0)
(0.783772 -0.459319 0)
(0.817175 -0.462512 0)
(0.850328 -0.462809 0)
(0.882992 -0.459364 0)
(0.914863 -0.451214 0)
(0.945567 -0.437287 0)
(0.974652 -0.41642 0)
(1.00159 -0.387376 0)
(1.02581 -0.34883 0)
(1.04659 -0.299247 0)
(1.06233 -0.237014 0)
(1.07127 -0.160809 0)
(1.07443 -0.0692578 0)
(1.07108 0.0489862 0)
(1.04529 0.264349 0)
(0.943197 0.552414 0)
(0.800614 0.907994 0)
(0.670157 1.28739 0)
(0.571618 1.64707 0)
(0.487899 1.90298 0)
(0.467097 1.97625 0)
(0.0236033 -0.465361 0)
(0.0610607 -0.560061 0)
(0.0977431 -0.533566 0)
(0.131996 -0.500968 0)
(0.16529 -0.474084 0)
(0.197888 -0.452864 0)
(0.229884 -0.43644 0)
(0.261377 -0.424116 0)
(0.292471 -0.415356 0)
(0.323268 -0.409729 0)
(0.353874 -0.406867 0)
(0.384388 -0.406442 0)
(0.414904 -0.408153 0)
(0.445499 -0.411717 0)
(0.476242 -0.416862 0)
(0.507183 -0.423318 0)
(0.53836 -0.430817 0)
(0.569797 -0.439079 0)
(0.601501 -0.44781 0)
(0.633465 -0.456693 0)
(0.665667 -0.465371 0)
(0.698064 -0.473437 0)
(0.730589 -0.480421 0)
(0.76314 -0.485764 0)
(0.795577 -0.48881 0)
(0.827705 -0.488785 0)
(0.859263 -0.484793 0)
(0.889916 -0.47581 0)
(0.919238 -0.460701 0)
(0.946716 -0.43823 0)
(0.971753 -0.407077 0)
(0.993707 -0.365773 0)
(1.01133 -0.312733 0)
(1.02249 -0.246864 0)
(1.02843 -0.168192 0)
(1.03115 -0.0729526 0)
(1.03144 0.0934819 0)
(0.939447 0.33262 0)
(0.799039 0.646381 0)
(0.668799 0.99843 0)
(0.581792 1.35327 0)
(0.543012 1.68863 0)
(0.521969 1.94268 0)
(0.564469 2.02595 0)
(0.0228889 -0.497824 0)
(0.0583166 -0.590495 0)
(0.092772 -0.561343 0)
(0.125308 -0.527713 0)
(0.157234 -0.500263 0)
(0.188703 -0.478606 0)
(0.219758 -0.461809 0)
(0.250458 -0.449173 0)
(0.28087 -0.440171 0)
(0.311068 -0.434374 0)
(0.341129 -0.431414 0)
(0.37113 -0.43096 0)
(0.401142 -0.432703 0)
(0.431227 -0.436353 0)
(0.461437 -0.441625 0)
(0.491814 -0.448242 0)
(0.522388 -0.455922 0)
(0.553179 -0.464378 0)
(0.584194 -0.473304 0)
(0.615427 -0.482369 0)
(0.646858 -0.491205 0)
(0.678447 -0.499386 0)
(0.710126 -0.506415 0)
(0.741791 -0.511704 0)
(0.773289 -0.514555 0)
(0.804405 -0.514144 0)
(0.834847 -0.509509 0)
(0.864233 -0.499558 0)
(0.892077 -0.483076 0)
(0.917796 -0.458739 0)
(0.940755 -0.425104 0)
(0.96006 -0.380562 0)
(0.973487 -0.324016 0)
(0.981093 -0.25568 0)
(0.98648 -0.176279 0)
(0.997981 -0.0624641 0)
(0.935183 0.155436 0)
(0.797906 0.4334 0)
(0.658906 0.749174 0)
(0.559134 1.0702 0)
(0.509241 1.38644 0)
(0.510235 1.68776 0)
(0.531244 1.92794 0)
(0.563973 2.05492 0)
(0.0221309 -0.529293 0)
(0.0554947 -0.619283 0)
(0.0877275 -0.587797 0)
(0.118537 -0.553441 0)
(0.149053 -0.525644 0)
(0.179332 -0.503713 0)
(0.209377 -0.486674 0)
(0.239213 -0.47383 0)
(0.268873 -0.464664 0)
(0.298403 -0.458753 0)
(0.327856 -0.455732 0)
(0.357283 -0.455267 0)
(0.386736 -0.457046 0)
(0.416262 -0.460772 0)
(0.445898 -0.466155 0)
(0.475676 -0.472908 0)
(0.505622 -0.480742 0)
(0.535751 -0.489362 0)
(0.56607 -0.498453 0)
(0.596576 -0.507674 0)
(0.62725 -0.516641 0)
(0.658052 -0.52491 0)
(0.688911 -0.531955 0)
(0.719714 -0.537151 0)
(0.750289 -0.53975 0)
(0.780392 -0.538867 0)
(0.809689 -0.533467 0)
(0.837741 -0.522375 0)
(0.863995 -0.504282 0)
(0.887819 -0.477757 0)
(0.90851 -0.441214 0)
(0.924391 -0.393215 0)
(0.933839 -0.333367 0)
(0.940176 -0.264307 0)
(0.947748 -0.182288 0)
(0.921654 -0.00318047 0)
(0.800541 0.251826 0)
(0.657022 0.543772 0)
(0.543554 0.835434 0)
(0.473016 1.11769 0)
(0.448362 1.39316 0)
(0.469366 1.6614 0)
(0.516635 1.89531 0)
(0.53981 2.0817 0)
(0.0213346 -0.559693 0)
(0.052602 -0.646388 0)
(0.0826128 -0.6129 0)
(0.111684 -0.578106 0)
(0.140748 -0.550167 0)
(0.169785 -0.528124 0)
(0.19876 -0.510971 0)
(0.227666 -0.498022 0)
(0.256509 -0.488771 0)
(0.285308 -0.482805 0)
(0.314089 -0.479761 0)
(0.342883 -0.479308 0)
(0.371722 -0.481132 0)
(0.400637 -0.484932 0)
(0.429653 -0.490413 0)
(0.458795 -0.497283 0)
(0.488082 -0.505251 0)
(0.517528 -0.514013 0)
(0.547142 -0.523248 0)
(0.576921 -0.532605 0)
(0.606846 -0.541684 0)
(0.636876 -0.550017 0)
(0.666933 -0.557047 0)
(0.696886 -0.562104 0)
(0.72654 -0.564381 0)
(0.755612 -0.562921 0)
(0.783714 -0.556604 0)
(0.810344 -0.544159 0)
(0.834888 -0.524174 0)
(0.856694 -0.495085 0)
(0.874715 -0.455223 0)
(0.886378 -0.403799 0)
(0.89371 -0.342284 0)
(0.901025 -0.272475 0)
(0.906704 -0.144464 0)
(0.810201 0.0799807 0)
(0.665005 0.360658 0)
(0.541009 0.639255 0)
(0.454801 0.899976 0)
(0.407251 1.14643 0)
(0.399474 1.38666 0)
(0.431595 1.62556 0)
(0.495068 1.85327 0)
(0.540535 2.06799 0)
(0.0205032 -0.588949 0)
(0.0496388 -0.67177 0)
(0.0774199 -0.636618 0)
(0.104736 -0.601662 0)
(0.132311 -0.573778 0)
(0.160057 -0.551776 0)
(0.187908 -0.534636 0)
(0.215829 -0.521686 0)
(0.243797 -0.512432 0)
(0.271806 -0.50647 0)
(0.299856 -0.503446 0)
(0.32796 -0.50303 0)
(0.356129 -0.50491 0)
(0.38438 -0.508783 0)
(0.412729 -0.514354 0)
(0.441193 -0.521331 0)
(0.469788 -0.529418 0)
(0.498527 -0.538307 0)
(0.52742 -0.547674 0)
(0.556465 -0.557153 0)
(0.585644 -0.566329 0)
(0.614909 -0.574706 0)
(0.64417 -0.581688 0)
(0.673274 -0.586552 0)
(0.701992 -0.588421 0)
(0.729994 -0.586254 0)
(0.756831 -0.578836 0)
(0.781935 -0.564791 0)
(0.804656 -0.542585 0)
(0.82425 -0.510526 0)
(0.838745 -0.467272 0)
(0.847153 -0.412882 0)
(0.854145 -0.351408 0)
(0.864501 -0.274188 0)
(0.813941 -0.0799646 0)
(0.679309 0.185833 0)
(0.547383 0.462047 0)
(0.449798 0.715826 0)
(0.386192 0.946338 0)
(0.35621 1.16195 0)
(0.360371 1.37129 0)
(0.399281 1.58218 0)
(0.475876 1.79453 0)
(0.550597 2.00812 0)
(0.0196379 -0.616986 0)
(0.0465988 -0.695381 0)
(0.07213 -0.658911 0)
(0.0976695 -0.624061 0)
(0.123716 -0.596422 0)
(0.150128 -0.574615 0)
(0.176812 -0.557615 0)
(0.2037 -0.544766 0)
(0.230744 -0.535589 0)
(0.257909 -0.529693 0)
(0.285177 -0.52673 0)
(0.312534 -0.526377 0)
(0.339979 -0.528325 0)
(0.367514 -0.532275 0)
(0.395147 -0.537934 0)
(0.42289 -0.54501 0)
(0.450756 -0.553208 0)
(0.47876 -0.562219 0)
(0.506912 -0.57171 0)
(0.535212 -0.581306 0)
(0.563639 -0.590568 0)
(0.592136 -0.598969 0)
(0.620594 -0.605866 0)
(0.648835 -0.61047 0)
(0.676585 -0.611826 0)
(0.703458 -0.608797 0)
(0.72894 -0.600062 0)
(0.752406 -0.584129 0)
(0.773188 -0.559333 0)
(0.790137 -0.523938 0)
(0.800564 -0.477274 0)
(0.807675 -0.421644 0)
(0.815015 -0.359374 0)
(0.808235 -0.218411 0)
(0.697075 0.0184856 0)
(0.559263 0.291577 0)
(0.451827 0.547389 0)
(0.376903 0.774469 0)
(0.331178 0.978354 0)
(0.314356 1.16732 0)
(0.327067 1.34924 0)
(0.370821 1.53198 0)
(0.451838 1.72039 0)
(0.552828 1.91055 0)
(0.72465 2.12267 0)
(0.0187398 -0.643728 0)
(0.0434693 -0.717157 0)
(0.0667117 -0.67973 0)
(0.0904428 -0.64525 0)
(0.114923 -0.618047 0)
(0.139966 -0.596589 0)
(0.165447 -0.579857 0)
(0.191267 -0.567212 0)
(0.217346 -0.558193 0)
(0.243626 -0.552421 0)
(0.270062 -0.54956 0)
(0.296624 -0.549294 0)
(0.323293 -0.551324 0)
(0.350061 -0.555356 0)
(0.376929 -0.561103 0)
(0.403904 -0.568276 0)
(0.431002 -0.576583 0)
(0.458238 -0.585715 0)
(0.485624 -0.595331 0)
(0.51316 -0.605042 0)
(0.540819 -0.614384 0)
(0.568533 -0.622788 0)
(0.596171 -0.629554 0)
(0.623516 -0.63382 0)
(0.650248 -0.634538 0)
(0.675917 -0.630463 0)
(0.699942 -0.620162 0)
(0.721662 -0.602015 0)
(0.740303 -0.574236 0)
(0.753748 -0.535468 0)
(0.761473 -0.485878 0)
(0.768535 -0.429963 0)
(0.778202 -0.35282 0)
(0.711189 -0.146133 0)
(0.576801 0.121867 0)
(0.459034 0.383523 0)
(0.374093 0.615556 0)
(0.316838 0.818381 0)
(0.28488 0.99922 0)
(0.277902 1.16508 0)
(0.296615 1.32257 0)
(0.343107 1.47835 0)
(0.424191 1.63779 0)
(0.534406 1.79835 0)
(0.701459 1.97782 0)
(0.0178151 -0.669091 0)
(0.0402314 -0.737015 0)
(0.0611172 -0.699007 0)
(0.0829978 -0.66517 0)
(0.105875 -0.638602 0)
(0.129522 -0.617655 0)
(0.153777 -0.601321 0)
(0.178505 -0.588983 0)
(0.203593 -0.580199 0)
(0.228954 -0.574608 0)
(0.254521 -0.571886 0)
(0.280244 -0.571731 0)
(0.30609 -0.573855 0)
(0.332042 -0.577974 0)
(0.358095 -0.583809 0)
(0.384256 -0.591081 0)
(0.410542 -0.599501 0)
(0.436972 -0.608758 0)
(0.463559 -0.618505 0)
(0.490303 -0.628334 0)
(0.51717 -0.637748 0)
(0.544074 -0.646131 0)
(0.570858 -0.652715 0)
(0.597264 -0.656549 0)
(0.622913 -0.656481 0)
(0.647287 -0.651152 0)
(0.66975 -0.639001 0)
(0.689609 -0.618277 0)
(0.705679 -0.587168 0)
(0.715278 -0.544942 0)
(0.721995 -0.494182 0)
(0.72864 -0.437238 0)
(0.713729 -0.289143 0)
(0.597406 -0.0446034 0)
(0.470417 0.220088 0)
(0.375688 0.460484 0)
(0.308818 0.669166 0)
(0.265464 0.850747 0)
(0.244144 1.01152 0)
(0.244542 1.15716 0)
(0.267434 1.29295 0)
(0.315042 1.42397 0)
(0.393249 1.55448 0)
(0.503647 1.68257 0)
(0.659017 1.81956 0)
(0.0168838 -0.692989 0)
(0.0368566 -0.754834 0)
(0.0552719 -0.716658 0)
(0.0752494 -0.683757 0)
(0.0964913 -0.658042 0)
(0.11873 -0.637777 0)
(0.141754 -0.621976 0)
(0.165383 -0.610049 0)
(0.189469 -0.601576 0)
(0.213893 -0.596216 0)
(0.238563 -0.593666 0)
(0.26341 -0.593641 0)
(0.288391 -0.595867 0)
(0.31348 -0.600076 0)
(0.338669 -0.606003 0)
(0.363968 -0.613376 0)
(0.389395 -0.621914 0)
(0.414975 -0.631305 0)
(0.440723 -0.641192 0)
(0.466636 -0.651143 0)
(0.492673 -0.660624 0)
(0.518728 -0.668958 0)
(0.544612 -0.675297 0)
(0.57002 -0.67859 0)
(0.594509 -0.677569 0)
(0.617495 -0.670746 0)
(0.638293 -0.656426 0)
(0.656098 -0.632742 0)
(0.668786 -0.598223 0)
(0.676 -0.552947 0)
(0.682517 -0.501331 0)
(0.689977 -0.426042 0)
(0.614684 -0.210949 0)
(0.486572 0.05411 0)
(0.381205 0.304334 0)
(0.305257 0.522859 0)
(0.252468 0.710962 0)
(0.220108 0.874043 0)
(0.207075 1.01721 0)
(0.213089 1.14498 0)
(0.238894 1.26149 0)
(0.286585 1.37039 0)
(0.360662 1.47443 0)
(0.465124 1.57196 0)
(0.606947 1.6654 0)
(0.0159827 -0.71533 0)
(0.0332925 -0.770432 0)
(0.0490546 -0.732567 0)
(0.0670736 -0.700945 0)
(0.0866624 -0.67633 0)
(0.107503 -0.656937 0)
(0.129315 -0.641811 0)
(0.151864 -0.630395 0)
(0.174956 -0.622302 0)
(0.198439 -0.617217 0)
(0.222196 -0.614863 0)
(0.246142 -0.614979 0)
(0.270222 -0.617311 0)
(0.294404 -0.621611 0)
(0.318682 -0.627629 0)
(0.343068 -0.635107 0)
(0.367585 -0.643769 0)
(0.392263 -0.653304 0)
(0.417121 -0.663341 0)
(0.442154 -0.673421 0)
(0.467311 -0.68296 0)
(0.492465 -0.691212 0)
(0.51739 -0.697235 0)
(0.541729 -0.699865 0)
(0.564975 -0.697702 0)
(0.586483 -0.689122 0)
(0.605525 -0.672286 0)
(0.620885 -0.645286 0)
(0.630023 -0.60724 0)
(0.636167 -0.560503 0)
(0.641799 -0.507434 0)
(0.623014 -0.356689 0)
(0.506861 -0.111188 0)
(0.390476 0.145116 0)
(0.305354 0.374979 0)
(0.244154 0.573113 0)
(0.20263 0.743288 0)
(0.179094 0.89012 0)
(0.172607 1.01767 0)
(0.182976 1.12953 0)
(0.210862 1.2289 0)
(0.257987 1.31833 0)
(0.3277 1.39922 0)
(0.423666 1.46993 0)
(0.550394 1.52779 0)
(0.0151314 -0.73603 0)
(0.0294211 -0.78352 0)
(0.0422653 -0.746586 0)
(0.0582922 -0.716673 0)
(0.0762438 -0.693454 0)
(0.0957344 -0.675141 0)
(0.116391 -0.660836 0)
(0.137907 -0.65003 0)
(0.160038 -0.642376 0)
(0.182597 -0.637598 0)
(0.205442 -0.635453 0)
(0.228471 -0.63571 0)
(0.25162 -0.638143 0)
(0.274857 -0.642526 0)
(0.298177 -0.648631 0)
(0.321597 -0.656213 0)
(0.345147 -0.665006 0)
(0.368863 -0.674695 0)
(0.392769 -0.684893 0)
(0.416859 -0.695106 0)
(0.44107 -0.704694 0)
(0.465255 -0.712827 0)
(0.48915 -0.718456 0)
(0.512344 -0.720287 0)
(0.534263 -0.716778 0)
(0.554211 -0.706148 0)
(0.571328 -0.686427 0)
(0.583567 -0.65595 0)
(0.590449 -0.61462 0)
(0.596084 -0.566588 0)
(0.60156 -0.496189 0)
(0.523557 -0.277511 0)
(0.404184 -0.0182906 0)
(0.308899 0.222985 0)
(0.239579 0.433157 0)
(0.190023 0.61344 0)
(0.157717 0.767931 0)
(0.141368 0.900318 0)
(0.140189 1.01386 0)
(0.154036 1.11149 0)
(0.183428 1.19564 0)
(0.229625 1.26806 0)
(0.29489 1.32929 0)
(0.381838 1.37757 0)
(0.493035 1.40887 0)
(0.0142128 -0.754949 0)
(0.0249806 -0.793674 0)
(0.0345938 -0.758557 0)
(0.0486623 -0.730916 0)
(0.0650573 -0.709442 0)
(0.0833048 -0.692438 0)
(0.102909 -0.679098 0)
(0.123479 -0.668987 0)
(0.144714 -0.661816 0)
(0.166388 -0.65736 0)
(0.188336 -0.65542 0)
(0.210444 -0.655805 0)
(0.232643 -0.658321 0)
(0.254901 -0.662771 0)
(0.277217 -0.66895 0)
(0.299615 -0.676631 0)
(0.322134 -0.685555 0)
(0.344818 -0.695404 0)
(0.367696 -0.705772 0)
(0.390763 -0.716123 0)
(0.413948 -0.725748 0)
(0.437083 -0.733723 0)
(0.459866 -0.738876 0)
(0.48183 -0.739765 0)
(0.502345 -0.734691 0)
(0.520659 -0.721702 0)
(0.535535 -0.698739 0)
(0.54451 -0.66466 0)
(0.55016 -0.621293 0)
(0.554807 -0.571452 0)
(0.535783 -0.421983 0)
(0.422686 -0.180976 0)
(0.315941 0.0665778 0)
(0.238269 0.288827 0)
(0.181324 0.480964 0)
(0.141318 0.645639 0)
(0.116671 0.786214 0)
(0.106289 0.905615 0)
(0.109535 1.00651 0)
(0.126258 1.09132 0)
(0.156769 1.16199 0)
(0.201859 1.21974 0)
(0.262877 1.26463 0)
(0.341272 1.29505 0)
(0.438025 1.30728 0)
(0.0127142 -0.771636 0)
(0.0194409 -0.800338 0)
(0.0256208 -0.768384 0)
(0.0378848 -0.743723 0)
(0.0529047 -0.724391 0)
(0.0700953 -0.708931 0)
(0.0888112 -0.69669 0)
(0.108566 -0.687337 0)
(0.129002 -0.680668 0)
(0.149855 -0.676525 0)
(0.170942 -0.674766 0)
(0.19214 -0.675246 0)
(0.213378 -0.677811 0)
(0.234627 -0.682297 0)
(0.255894 -0.688526 0)
(0.277211 -0.696289 0)
(0.298629 -0.705337 0)
(0.320198 -0.715346 0)
(0.341957 -0.725887 0)
(0.363903 -0.736375 0)
(0.385962 -0.746026 0)
(0.407949 -0.753805 0)
(0.429527 -0.758398 0)
(0.450174 -0.7582 0)
(0.469208 -0.751325 0)
(0.485752 -0.735653 0)
(0.497854 -0.709212 0)
(0.504555 -0.671539 0)
(0.509431 -0.626662 0)
(0.513525 -0.563488 0)
(0.437554 -0.345345 0)
(0.327605 -0.0941646 0)
(0.240392 0.139216 0)
(0.17603 0.343857 0)
(0.128952 0.520198 0)
(0.0969495 0.671074 0)
(0.0787567 0.799116 0)
(0.0734437 0.90671 0)
(0.0804751 0.996105 0)
(0.099645 1.06937 0)
(0.131028 1.12813 0)
(0.174961 1.17333 0)
(0.232032 1.2049 0)
(0.302727 1.22147 0)
(0.386833 1.22028 0)
(0.00941742 -0.784948 0)
(0.0118659 -0.803037 0)
(0.0148784 -0.776166 0)
(0.0256522 -0.755279 0)
(0.0396079 -0.738495 0)
(0.0560219 -0.724796 0)
(0.0740823 -0.713756 0)
(0.0932019 -0.705189 0)
(0.112967 -0.699005 0)
(0.133087 -0.695134 0)
(0.153365 -0.693503 0)
(0.173675 -0.694023 0)
(0.19395 -0.696584 0)
(0.214168 -0.701059 0)
(0.234344 -0.707297 0)
(0.25452 -0.715112 0)
(0.274757 -0.724263 0)
(0.295118 -0.73442 0)
(0.31565 -0.745128 0)
(0.336358 -0.75575 0)
(0.35717 -0.765415 0)
(0.377894 -0.772963 0)
(0.398161 -0.776918 0)
(0.417407 -0.775484 0)
(0.434888 -0.766564 0)
(0.449405 -0.747879 0)
(0.458443 -0.717859 0)
(0.463893 -0.67751 0)
(0.467851 -0.630296 0)
(0.45272 -0.489106 0)
(0.344188 -0.253128 0)
(0.246204 -0.0144556 0)
(0.174087 0.201491 0)
(0.120178 0.389966 0)
(0.0813119 0.552315 0)
(0.0560986 0.690759 0)
(0.0434332 0.807356 0)
(0.0425232 0.904108 0)
(0.0528654 0.982989 0)
(0.074154 1.04584 0)
(0.106224 1.09415 0)
(0.14901 1.12873 0)
(0.202494 1.14959 0)
(0.266443 1.15573 0)
(0.33988 1.14533 0)
(0.00254524 -0.792829 0)
(0.00107416 -0.802016 0)
(0.00200235 -0.782286 0)
(0.0117403 -0.765937 0)
(0.0250848 -0.752076 0)
(0.0410946 -0.7403 0)
(0.0587896 -0.730499 0)
(0.0774915 -0.72269 0)
(0.0967411 -0.716926 0)
(0.116232 -0.713246 0)
(0.135765 -0.711659 0)
(0.155221 -0.712135 0)
(0.174542 -0.714615 0)
(0.193714 -0.71901 0)
(0.212762 -0.725199 0)
(0.231738 -0.733017 0)