/*--------------------------------*- C++ -*----------------------------------*\
  =========                 |
  \\      /  F ield         | OpenFOAM: The Open Source CFD Toolbox
   \\    /   O peration     | Website:  https://openfoam.org
    \\  /    A nd           | Version:  9
     \\/     M anipulation  |
\*---------------------------------------------------------------------------*/
FoamFile
{
    format      ascii;
    class       volScalarField;
    location    "0.3";
    object      alpha.water;
}
// * * * * * * * * * * * * * * * * * * * * * * * * * * * * * * * * * * * * * //

dimensions      [0 0 0 0 0 0 0];

internalField   nonuniform List<scalar> 
2268
(
1
1
1
1
1
1
1
1
1
1
1
1
1
1
1
1
1
1
1
1
0.999543
0.922387
0.920093
1
1
1
1
1
1
1
1
1
1
1
1
1
1
1
1
1
1
1
1
1
0.985771
0.939168
1
1
1
1
1
1
1
1
1
1
1
1
1
1
1
1
1
1
1
1
1
0.999999
0.984572
1
1
1
1
1
1
1
1
1
1
1
1
1
1
1
1
1
1
1
1
1
0.999933
0.983269
1
1
1
1
1
1
1
1
1
1
1
1
1
1
1
1
1
1
1
1
1
1
0.983234
1
1
1
1
1
1
1
1
1
1
1
1
1
1
1
1
1
1
1
1
1
1
0.983446
1
1
1
1
1
1
1
1
1
1
1
1
1
1
1
1
1
1
1
1
1
1
0.987132
1
1
1
1
1
1
1
1
1
1
1
1
1
1
1
1
1
1
1
1
1
1
0.993128
2.70198e-18
1.30831e-18
1.23537e-19
3.31914e-21
4.53892e-21
7.56288e-21
7.18985e-21
5.26512e-22
1.20172e-23
9.68769e-26
1.64632e-27
5.15295e-30
4.00657e-32
3.73271e-34
3.26214e-36
8.00275e-38
4.5968e-40
1.14779e-42
5.94071e-43
1.98232e-17
1.30931e-17
4.75155e-18
6.08524e-19
4.36353e-19
2.14366e-19
3.36872e-20
7.40988e-21
6.05935e-22
3.54536e-23
5.26849e-25
7.07037e-28
5.15284e-30
4.00592e-32
3.70054e-34
4.70648e-36
2.01361e-38
2.97723e-41
5.94071e-43
5.04062e-16
6.60796e-16
6.38098e-16
1.40819e-16
4.76663e-17
2.87742e-17
7.28264e-18
1.24495e-18
1.3569e-19
5.41429e-21
7.81307e-23
9.31164e-26
5.21348e-28
3.94203e-30
3.14319e-32
2.43424e-34
1.07818e-36
2.55113e-39
2.78757e-41
1.12537e-14
2.30478e-14
2.49192e-14
5.60338e-15
2.84253e-15
2.16675e-15
6.42373e-16
1.25676e-16
1.17419e-17
4.39708e-19
7.0738e-21
2.73919e-23
4.37233e-26
3.14301e-28
2.51085e-30
1.8934e-32
9.02245e-35
2.26503e-37
2.5142e-39
9.34516e-14
3.20718e-13
4.03745e-13
8.40957e-14
7.36775e-14
6.40203e-14
2.5856e-14
6.63927e-15
6.32642e-16
2.45733e-17
4.59365e-19
2.45934e-21
3.28574e-24
2.35011e-26
1.93845e-28
1.52959e-30
7.58133e-33
2.0047e-35
2.22884e-37
7.60582e-13
2.15433e-12
1.05993e-12
2.8087e-12
1.11736e-12
1.0331e-12
4.13815e-13
1.53364e-13
2.78532e-14
1.32638e-15
2.97879e-17
1.54919e-19
2.2131e-22
1.66148e-24
1.45686e-26
1.23208e-28
6.44291e-31
1.79847e-33
1.97009e-35
1.83596e-12
2.90089e-12
9.39873e-12
1.40552e-10
3.89112e-11
3.03683e-11
1.04225e-11
2.23693e-12
6.52386e-13
3.847e-14
1.09957e-15
8.74511e-18
1.3365e-20
1.11107e-22
1.06447e-24
9.86718e-27
5.53563e-29
1.64639e-31
1.76442e-33
1.58587e-12
2.18843e-12
6.65379e-12
3.81793e-09
1.46587e-09
7.86064e-10
2.18883e-10
4.1311e-11
4.27921e-12
2.09857e-13
5.88515e-15
7.65063e-17
7.32166e-19
7.04312e-21
7.54692e-23
7.82957e-25
4.79927e-27
1.54626e-29
1.61202e-31
1
1
1
1
1
1
1
1
1
1
1
1
1
1
1
0.999999
0.999999
1
1
1
1
1
0.995326
1
0.999999
0.999998
0.999998
0.999998
0.999998
0.999998
0.999998
0.999998
0.999998
0.999998
0.999997
0.999997
0.999997
0.999994
0.99999
0.99999
0.999992
1
1
1
1
0.999412
0.999999
0.999984
0.999971
0.99997
0.999972
0.999973
0.999973
0.999971
0.999968
0.999964
0.999958
0.999952
0.999944
0.999942
0.999916
0.999865
0.999829
0.999835
0.999907
1
1
1
1
0.999963
0.999722
0.999573
0.999579
0.999602
0.999613
0.999606
0.999577
0.999521
0.999443
0.999341
0.999199
0.999009
0.998873
0.998961
0.998531
0.998097
0.997585
0.999138
1
0.999999
1
0.999996
0.999104
0.988557
0.966804
0.968096
0.970487
0.970202
0.966465
0.95692
0.939925
0.915559
0.882145
0.830789
0.748935
0.652837
0.649281
0.675494
0.717989
0.767961
0.830456
0.93349
0.999978
0.999996
0.999988
0.737107
0.476716
0.351075
0.356446
0.364834
0.362879
0.346756
0.313851
0.267688
0.217688
0.165903
0.107768
0.0484904
0.0101871
0.0143648
0.0267968
0.042256
0.067685
0.100711
0.144141
0.226815
0.380531
0.616134
0.0326459
-1.65602e-11
-1.64269e-15
-2.30558e-19
-1.59995e-22
-7.05615e-26
-1.56245e-25
-1.27402e-10
-2.25692e-10
-1.3707e-10
-5.77042e-11
-1.55085e-11
-3.32954e-12
-5.87836e-13
-1.85175e-24
1.38433e-10
6.56726e-10
5.58078e-09
1.8313e-08
3.15512e-08
3.88785e-08
4.49858e-05
0.0157491
-4.26003e-09
-5.6381e-09
-9.20039e-09
-1.02812e-08
-8.40373e-09
-5.78776e-09
-3.68106e-09
-2.284e-09
-1.3489e-09
-7.17189e-10
-2.84436e-10
-6.40404e-11
-1.04948e-11
-1.28787e-12
-8.34069e-18
5.18258e-10
1.24789e-07
5.2662e-07
5.82645e-07
3.46909e-07
1.48707e-07
1.05413e-07
1.06709e-05
-4.78783e-09
-9.40176e-09
-1.69678e-08
-1.65072e-08
-1.27984e-08
-8.70262e-09
-5.49622e-09
-3.30829e-09
-1.87531e-09
-9.30576e-10
-2.78021e-10
9.02047e-12
3.29396e-11
-1.22067e-27
4.24486e-08
9.18091e-08
1.88093e-06
2.0774e-06
2.0774e-06
1.77855e-06
1.98405e-07
3.7857e-08
1.67507e-08
-3.38664e-09
-7.59265e-09
-1.41589e-08
-1.32377e-08
-1.01021e-08
-6.84995e-09
-4.31766e-09
-2.57581e-09
-1.38608e-09
-5.46225e-10
9.49252e-12
6.75629e-10
3.10238e-10
5.45333e-12
2.36691e-07
2.00497e-06
2.02304e-06
2.05385e-06
2.07749e-06
1.59155e-06
1.32915e-07
1.16011e-09
-8.5622e-10
-1.30799e-09
-3.32004e-09
-6.15862e-09
-6.0384e-09
-4.75595e-09
-3.30744e-09
-2.11946e-09
-1.25101e-09
-5.50169e-10
0
9.04426e-10
1.09238e-09
5.06273e-10
3.14826e-11
1.6105e-07
1.41335e-06
1.95868e-06
1.36937e-06
1.30604e-07
2.85166e-11
8.15584e-11
1.45932e-10
7.45555e-10
-2.94694e-10
-7.09953e-10
-1.33835e-09
-1.59195e-09
-1.44063e-09
-1.09673e-09
-7.34401e-10
-4.06944e-10
-2.39112e-12
7.72539e-10
1.09862e-09
1.09862e-09
6.45283e-10
1.10445e-10
5.12474e-09
5.07192e-11
5.58794e-11
6.57584e-11
7.86157e-11
8.58458e-11
1.45272e-10
1.72815e-10
8.20119e-10
-5.21775e-11
-6.86052e-11
-1.33175e-10
-3.35362e-10
-4.07613e-10
-3.46354e-10
-2.30247e-10
-8.71855e-11
1.78904e-10
9.37483e-10
1.06946e-09
9.28486e-10
5.04767e-10
9.54964e-11
4.03809e-11
4.58957e-11
5.23302e-11
6.21636e-11
7.6987e-11
1.45807e-10
2.04702e-10
1.85939e-10
3.94466e-09
-2.47917e-11
-3.38015e-11
-5.97552e-11
-1.39836e-10
-1.65559e-10
-1.29421e-10
-7.1067e-11
3.20809e-12
2.86045e-10
5.23115e-10
4.61071e-10
2.50528e-10
7.94238e-11
3.28501e-11
3.92929e-11
8.39581e-11
1.28195e-10
1.63262e-10
1.96632e-10
2.40755e-10
2.69345e-10
2.15786e-10
2.35321e-09
-1.01226e-11
-1.44862e-11
-2.48568e-11
-5.15718e-11
-5.85008e-11
-4.02733e-11
-1.47079e-11
4.23648e-11
1.13595e-10
1.51994e-10
1.17993e-10
4.16024e-11
8.21482e-12
1.82471e-11
4.75533e-11
1.12111e-10
1.29473e-10
1.31549e-10
1.16845e-10
1.15882e-10
1.8831e-10
6.291e-10
9.32414e-10
-3.45463e-12
-5.16008e-12
-8.79346e-12
-1.62529e-11
-1.71152e-11
-9.78162e-12
-7.473e-13
1.6644e-11
3.22752e-11
4.21771e-11
4.07913e-11
1.04651e-11
2.66007e-12
8.47846e-12
2.09473e-11
2.81684e-11
3.02156e-11
3.6723e-11
3.93781e-11
5.59135e-11
1.1339e-10
5.10267e-10
2.51948e-09
-9.33829e-13
-1.44052e-12
-2.4442e-12
-4.02912e-12
-3.75066e-12
-1.6547e-12
5.37623e-13
2.84001e-12
8.23838e-12
1.21778e-11
1.14892e-11
2.5517e-12
1.20022e-12
2.9966e-12
4.64992e-12
5.45714e-12
6.89612e-12
8.56732e-12
1.68662e-11
4.10277e-11
1.04618e-10
4.38686e-10
3.24932e-09
-1.77674e-13
-2.78406e-13
-4.55625e-13
-6.43154e-13
-5.21745e-13
-1.67199e-13
3.68352e-14
6.16103e-13
1.70815e-12
2.26302e-12
1.93468e-12
5.04213e-13
2.59191e-13
8.10102e-13
1.17699e-12
1.14572e-12
1.25399e-12
2.62006e-12
1.05076e-11
3.49011e-11
1.00298e-10
5.06235e-10
2.77651e-09
-1.7719e-14
-2.73814e-14
-4.15694e-14
-5.09836e-14
-3.61571e-14
-6.30928e-15
6.49471e-15
9.05264e-14
2.32906e-13
3.03582e-13
2.50642e-13
7.36817e-14
3.56694e-14
5.79664e-14
1.01957e-13
1.32302e-13
2.03817e-13
1.10003e-12
7.19926e-12
2.8552e-11
8.5142e-11
3.6426e-10
2.03982e-09
-6.18022e-21
-4.29333e-20
-1.12076e-19
-5.61479e-20
-5.21833e-25
-3.50206e-23
6.04517e-16
7.71793e-15
2.17526e-14
2.99026e-14
2.97243e-14
1.08679e-14
4.60496e-15
5.94298e-15
8.81869e-15
1.14249e-14
4.08508e-14
5.22905e-13
4.26093e-12
1.95184e-11
6.39568e-11
2.39966e-10
1.92448e-09
-2.43331e-21
-1.9005e-20
-6.17842e-20
-7.80996e-20
-8.74933e-27
3.79701e-21
2.6733e-17
3.52932e-16
1.13719e-15
1.77399e-15
1.84977e-15
8.01812e-16
2.79482e-16
2.79838e-16
3.98391e-16
9.24873e-16
1.21733e-14
2.03492e-13
2.04259e-12
1.18037e-11
4.43005e-11
1.3393e-10
1.0574e-09
-4.98975e-22
-4.36053e-21
-1.6743e-20
-2.8007e-20
-9.17686e-24
-9.10157e-21
5.19871e-18
2.46767e-17
3.94772e-17
3.99488e-17
1.99609e-17
1.07246e-17
9.31478e-18
8.94598e-18
1.42946e-17
1.79174e-16
3.546e-15
6.34924e-14
8.38096e-13
6.44918e-12
2.77094e-11
7.71629e-11
5.38395e-10
-2.38531e-27
-1.20007e-38
-9.6266e-36
-3.66934e-29
-4.70969e-23
6.23847e-21
8.01002e-19
4.65615e-18
7.62724e-18
7.46359e-18
2.50723e-18
5.1874e-19
2.02338e-19
2.13277e-19
2.93343e-18
5.71434e-17
9.58435e-16
1.74355e-14
2.84103e-13
3.023e-12
1.57256e-11
4.5671e-11
3.03611e-10
-2.35883e-44
2.60941e-35
2.44872e-33
3.6004e-31
-1.31201e-29
3.36439e-26
2.2865e-23
5.75966e-22
1.98172e-21
2.72198e-21
2.21326e-21
1.3238e-21
2.71786e-21
4.00147e-20
8.93888e-19
1.58671e-17
2.76276e-16
4.89561e-15
8.84281e-14
1.23182e-12
7.90683e-12
2.68401e-11
1.95662e-10
3.77967e-39
-3.6262e-35
-6.28905e-33
-7.08444e-31
-6.5827e-31
1.44274e-27
7.38724e-25
1.20152e-23
3.98745e-23
6.35694e-23
7.20229e-23
9.4732e-23
5.28906e-22
1.15035e-20
2.35811e-19
4.54131e-18
8.2278e-17
1.4459e-15
2.6159e-14
4.29087e-13
3.57192e-12
1.62649e-11
1.46021e-10
-1.05882e-39
3.79665e-39
9.07078e-37
9.27944e-35
-1.54441e-31
1.06961e-30
3.34489e-27
2.14828e-25
1.06067e-24
1.81073e-24
1.48126e-24
6.81299e-24
1.27713e-22
2.85124e-21
6.16225e-20
1.23198e-18
2.3185e-17
4.12206e-16
7.21359e-15
1.23819e-13
1.40315e-12
1.17861e-11
1.28159e-10
7.12621e-44
1.70449e-41
1.37456e-39
8.71225e-38
-2.91951e-35
3.7612e-33
6.19286e-30
1.19664e-27
7.35187e-27
1.14983e-26
7.32568e-26
1.59665e-24
3.83009e-23
8.51186e-22
1.75495e-20
3.37305e-19
6.03953e-18
1.00341e-16
1.52382e-15
2.22195e-14
4.09972e-13
1.16018e-11
1.17277e-10
7.48944e-45
-2.67669e-42
-4.50694e-40
-4.76674e-38
2.55383e-37
9.90548e-35
6.03979e-33
2.80756e-31
1.14809e-29
3.88413e-28
1.21154e-26
3.40931e-25
8.71075e-24
2.04296e-22
4.41941e-21
8.83633e-20
1.63299e-18
2.78449e-17
4.36797e-16
5.94479e-15
8.40903e-14
3.66696e-12
3.80937e-11
1.12994e-46
7.48918e-45
2.75734e-42
4.95669e-40
-1.5463e-37
9.67636e-36
6.22772e-34
3.12383e-32
1.33357e-30
4.9626e-29
1.63768e-27
4.85481e-26
1.30502e-24
3.20177e-23
7.19832e-22
1.48595e-20
2.81685e-19
4.89658e-18
7.78881e-17
1.11659e-15
1.37366e-14
5.86489e-13
9.40389e-12
1.39578e-47
4.48772e-46
1.33055e-43
2.60393e-41
2.8961e-39
6.30343e-37
4.27689e-35
2.31506e-33
1.0623e-31
4.23137e-30
1.48825e-28
4.67961e-27
1.32758e-25
3.41967e-24
8.02886e-23
1.72117e-21
3.37104e-20
6.02574e-19
9.80886e-18
1.4515e-16
1.76716e-15
5.04803e-14
1.51415e-12
3.40435e-49
-5.2324e-46
-9.20008e-44
-9.62444e-42
1.86871e-40
2.59867e-38
1.89451e-36
1.10467e-34
5.44387e-33
2.31944e-31
8.69652e-30
2.90405e-28
8.70659e-27
2.35855e-25
5.79879e-24
1.29502e-22
2.62732e-21
4.84414e-20
8.05464e-19
1.19838e-17
1.43044e-16
4.12418e-15
1.49585e-13
3.6167e-51
3.40435e-49
1.71685e-46
3.91568e-44
-3.65821e-42
7.4531e-40
5.80921e-38
3.65236e-36
1.93762e-34
8.84318e-33
3.54788e-31
1.26424e-29
4.01332e-28
1.1456e-26
2.96133e-25
6.88168e-24
1.41591e-22
2.63879e-21
4.45699e-20
6.82757e-19
8.67062e-18
2.84702e-16
1.19956e-14
4.79875e-53
5.15562e-51
2.50163e-48
6.43534e-46
1.05079e-43
1.43133e-41
1.18337e-39
7.932e-38
4.43148e-36
2.11641e-34
8.92251e-33
3.34663e-31
1.12313e-29
3.38608e-28
9.19613e-27
2.25415e-25
4.99404e-24
1.00095e-22
1.81703e-21
2.99148e-20
4.09749e-19
1.61543e-17
7.90831e-16
2.87246e-55
-1.16744e-51
-2.09377e-49
-1.98569e-47
1.36039e-45
1.47879e-43
1.24286e-41
8.78313e-40
5.34014e-38
2.83184e-36
1.32285e-34
5.48413e-33
2.02885e-31
6.72518e-30
2.00338e-28
5.37513e-27
1.30118e-25
2.84634e-24
5.63603e-23
1.01219e-21
1.52042e-20
7.29558e-19
4.16084e-17
-4.78805e-58
2.87246e-55
2.01002e-52
4.63935e-50
3.45803e-48
7.91903e-46
7.48612e-44
5.98461e-42
4.11843e-40
2.46948e-38
1.3022e-36
6.08026e-35
2.52698e-33
9.38617e-32
3.12568e-30
9.35517e-29
2.52186e-27
6.13512e-26
1.3499e-24
2.6933e-23
4.52275e-22
2.65081e-20
1.77474e-18
1.70087e-60
9.61242e-58
4.79087e-55
1.02114e-52
1.71002e-50
2.30748e-48
2.52158e-46
2.3413e-44
1.87085e-42
1.2992e-40
7.90275e-39
4.26029e-37
2.04044e-35
8.7109e-34
3.32549e-32
1.13831e-30
3.50189e-29
9.70465e-28
2.42884e-26
5.50673e-25
1.05742e-23
7.86583e-22
6.2507e-20
1.85286e-63
-1.79318e-59
-3.66627e-57
-4.41579e-55
1.98251e-53
3.04313e-51
3.97011e-49
4.42165e-47
4.24767e-45
3.54499e-43
2.58663e-41
1.65922e-39
9.40073e-38
4.76338e-36
2.15895e-34
8.748e-33
3.17687e-31
1.03647e-29
3.0461e-28
8.0907e-27
1.82963e-25
1.8709e-23
1.78658e-21
-4.60242e-66
4.22249e-64
1.24404e-61
3.08532e-59
-3.11807e-58
1.26023e-54
2.05559e-52
2.89411e-50
3.52644e-48
3.73392e-46
3.45224e-44
2.79842e-42
1.99682e-40
1.25921e-38
7.12098e-37
3.59788e-35
1.62315e-33
6.55327e-32
2.37349e-30
7.73483e-29
2.1527e-27
3.42411e-25
3.95605e-23
7.95869e-71
1.83362e-68
5.14966e-68
3.6355e-65
1.78803e-61
8.51444e-59
1.77518e-56
3.29749e-54
5.62049e-52
8.61828e-50
1.16717e-47
1.30929e-45
1.28965e-43
1.11946e-41
8.56172e-40
5.86688e-38
3.58628e-36
1.95129e-34
9.4657e-33
4.10167e-31
1.51736e-29
4.61684e-27
6.39297e-25
-4.21654e-76
-5.63617e-71
-9.18459e-69
-1.49206e-66
-5.2107e-66
-2.21779e-63
-5.13045e-61
-1.21056e-58
-2.27219e-56
-3.22989e-54
-2.97344e-52
-1.35986e-51
6.13017e-48
1.10904e-45
1.40307e-43
1.55222e-41
1.53774e-39
1.34634e-37
1.04219e-35
7.1303e-34
4.14644e-32
4.26783e-29
7.00271e-27
-1.11746e-79
-9.20481e-80
-1.89163e-77
-7.22189e-75
-6.55891e-71
-1.74018e-69
-8.15509e-67
-3.39074e-64
-1.18672e-61
-3.42641e-59
-7.98978e-57
-1.44076e-54
-1.80929e-52
-7.14055e-51
-4.71726e-50
7.12649e-48
2.51671e-45
6.6719e-43
1.51773e-40
2.98155e-38
4.91411e-36
2.36476e-31
3.9725e-29
-4.15776e-94
-1.87675e-92
-6.95938e-89
-3.84611e-86
-2.86271e-83
-1.56887e-80
-2.26637e-77
-2.71634e-74
-2.64351e-71
-2.04609e-68
-1.2038e-65
-6.84701e-63
-3.44659e-60
-1.21525e-57
-1.43158e-55
-1.01411e-55
-1.50829e-53
-5.47169e-51
-1.73184e-48
-4.77313e-46
-1.14141e-43
2.39674e-34
2.26399e-32
0.993672
0.995998
0.999002
0.65498
0.993672
0.996177
0.999778
0.991939
0.999464
0.999812
0.999918
0.999869
0.999988
0.999959
0.999933
0.99993
0.999959
0.999955
0.999933
0.99993
0.893748
1.00067
0.999971
0.99993
0.0619941
0.123353
0.203954
0.284536
3.80002e-05
9.5434e-05
0.000208378
0.000241531
-2.87103e-06
1.42046e-06
2.30818e-06
-7.89474e-05
-1.69946e-08
-1.2898e-08
-2.20668e-07
-4.36821e-07
1.00555e-09
-2.00581e-09
-3.00727e-09
-8.50835e-09
1.7829e-09
2.2742e-09
2.19099e-09
2.34211e-09
8.31324e-09
8.31324e-09
8.31349e-09
6.4866e-09
7.58399e-09
8.3146e-09
3.97107e-09
3.22837e-09
1.25601e-09
1.37942e-09
1.77471e-09
2.36864e-09
1.94356e-09
1.77457e-09
2.39585e-09
3.24014e-09
1.95524e-09
3.69936e-08
5.2267e-09
8.97691e-09
2.50076e-09
6.71461e-08
9.73855e-08
5.09601e-08
9.87801e-09
6.62529e-08
2.39282e-07
1.22038e-06
1.33273e-08
9.8985e-08
3.71874e-07
6.55719e-07
7.96806e-09
5.50569e-08
1.81606e-07
7.73728e-07
4.0573e-09
2.87749e-08
1.21004e-07
4.37548e-07
2.09604e-09
1.76113e-08
7.14615e-08
2.08363e-07
1.15548e-09
1.0249e-08
4.08809e-08
1.40325e-07
7.50087e-10
6.26529e-09
2.61371e-08
9.42898e-08
4.69563e-10
3.67419e-09
1.51669e-08
5.56861e-08
2.76763e-10
1.38427e-09
5.77316e-09
2.17182e-08
9.16053e-11
3.89956e-10
1.40552e-09
4.79467e-09
2.50194e-11
7.51325e-11
2.50616e-10
6.6197e-10
7.68494e-12
2.64031e-11
4.89072e-11
7.08275e-11
8.55889e-13
5.12374e-12
7.88959e-12
6.91869e-12
7.16424e-14
5.10185e-13
8.15664e-13
6.57595e-13
4.86343e-15
4.07798e-14
7.02895e-14
5.42013e-14
2.61933e-16
2.60299e-15
4.97029e-15
3.63697e-15
1.14859e-17
1.3558e-16
2.94555e-16
2.14553e-16
4.1469e-19
5.95023e-18
1.50409e-17
1.13759e-17
1.19897e-20
2.1706e-19
6.52966e-19
5.22457e-19
2.62362e-22
6.22044e-21
2.31581e-20
1.99855e-20
3.98705e-24
1.22514e-22
6.42045e-22
6.75933e-22
3.8253e-26
1.65943e-24
1.31862e-23
1.79457e-23
1.51469e-28
1.28163e-26
1.75805e-25
3.1137e-25
1.10837e-34
1.35467e-29
4.063e-28
6.87669e-31
-3.57142e-06
-6.46761e-08
-2.43546e-07
2.18698e-09
2.63216e-08
1.74675e-08
4.14201e-09
7.61286e-10
8.13652e-11
5.12604e-12
1.89101e-13
4.78448e-15
3.79592e-17
4.97048e-19
6.47563e-21
8.26246e-23
6.00683e-25
2.26093e-27
1.53785e-29
0.816439
0.0886135
-8.8158e-06
-4.67275e-07
7.64467e-07
4.22449e-07
7.0495e-08
1.25283e-08
1.42601e-09
1.02765e-10
5.29131e-12
1.36155e-13
2.92067e-15
3.79636e-17
8.90912e-19
2.10572e-20
8.63874e-23
5.88643e-25
2.22863e-27
0.998919
0.902001
0.381543
0.00108265
6.503e-05
7.08111e-06
2.03439e-06
3.34682e-07
4.03642e-08
3.36379e-09
1.98589e-10
8.47947e-12
1.75679e-13
6.53804e-15
2.80876e-16
2.83104e-18
1.70024e-20
1.46147e-22
7.13801e-25
0.999855
0.999252
0.983288
0.605342
0.0317283
0.000550374
3.61564e-05
6.97143e-06
9.65102e-07
8.53617e-08
5.72646e-09
2.82819e-10
1.01193e-11
2.82281e-13
1.48884e-14
1.968e-16
2.23167e-18
1.72517e-20
1.42693e-22
0.999934
0.999847
0.999211
0.9966
0.619713
0.0454351
0.0013964
0.000132198
1.75051e-05
1.71714e-06
1.26302e-07
6.849e-09
2.98864e-10
1.03799e-11
3.52032e-13
8.99192e-15
1.53241e-16
1.2728e-18
1.64848e-20
0.999833
0.999431
0.999136
0.998803
0.996436
0.484261
0.0212012
0.00180774
0.000217541
2.30888e-05
1.79142e-06
1.1397e-07
6.0507e-09
2.7068e-10
1.0483e-11
3.25398e-13
6.20983e-15
6.01057e-17
1.19356e-18
0.599371
0.999159
0.998825
0.996415
0.993478
0.914253
0.246344
0.00653855
0.00101968
0.000130614
1.33352e-05
1.06314e-06
6.88645e-08
3.67405e-09
1.60248e-10
5.48531e-12
1.2914e-13
1.25436e-15
5.56709e-17
0.0136631
0.101048
0.473667
0.980139
0.989761
0.97675
0.613382
0.0541047
0.00299512
0.000430996
5.25981e-05
5.06592e-06
3.89187e-07
2.41161e-08
1.18723e-09
4.43903e-11
1.18445e-12
1.08242e-14
1.24608e-15
3.66752e-05
-2.32717e-06
0.000990569
0.326847
0.937343
0.960285
0.838797
0.191681
0.00619588
0.000992454
0.000134839
1.48186e-05
1.29957e-06
9.09049e-08
4.98767e-09
2.05055e-10
5.63891e-12
6.04564e-14
1.38854e-14
-1.11921e-05
-1.40108e-05
6.07592e-05
0.00114487
0.569005
0.940188
0.885587
0.336638
0.0108647
0.00165927
0.000241421
2.89261e-05
2.79462e-06
2.14919e-07
1.28844e-08
5.73852e-10
1.687e-11
2.08219e-13
8.5201e-14
-5.0366e-07
-2.16261e-07
4.89666e-06
5.98895e-05
0.215265
0.846116
0.839498
0.484812
0.0289175
0.00232412
0.000352969
4.47397e-05
4.61355e-06
3.79606e-07
2.43032e-08
1.15161e-09
3.58096e-11
4.9064e-13
3.13183e-13
-9.53493e-09
2.2019e-08
1.00439e-07
-6.09054e-06
0.0323041
0.692439
0.819275
0.567959
0.0535929
0.00292811
0.000457751
5.98365e-05
6.40633e-06
5.4981e-07
3.67728e-08
1.81987e-09
5.90534e-11
1.09801e-12
7.97454e-13
6.13173e-09
-6.78015e-10
-9.76324e-08
-3.31195e-07
5.26951e-06
0.527585
0.788682
0.565628
0.0684526
0.0031881
0.000506128
6.72416e-05
7.35154e-06
6.47887e-07
4.46832e-08
2.28485e-09
7.71387e-11
2.23848e-12
1.54925e-12
4.6154e-09
2.86534e-08
8.53338e-08
1.28762e-07
3.41867e-06
0.399702
0.743648
0.544828
0.0693454
0.0031125
0.000492053
6.51369e-05
7.11896e-06
6.3081e-07
4.39792e-08
2.28188e-09
7.91684e-11
2.86043e-12
2.25879e-12
1.44337e-05
1.401e-05
2.09251e-06
1.91802e-06
1.85355e-06
0.380892
0.704391
0.51885
0.0643532
0.00276298
0.000426061
5.54157e-05
5.98148e-06
5.27396e-07
3.67779e-08
2.1907e-09
9.73625e-11
2.94877e-12
1.5675e-12
5.05436e-05
6.78509e-05
1.56216e-05
3.27286e-06
4.59935e-06
0.390146
0.665649
0.431243
0.0429382
0.00218456
0.000325226
4.35095e-05
4.89477e-06
4.60851e-07
3.62976e-08
2.36557e-09
1.19524e-10
3.57443e-12
9.9349e-13
6.02246e-05
6.78509e-05
2.26445e-05
4.62695e-06
0.0111818
0.412868
0.486293
0.199104
0.0190825
0.00232669
0.000336036
4.16814e-05
4.40484e-06
4.10935e-07
3.37246e-08
2.23978e-09
1.1478e-10
3.99942e-12
5.85722e-13
3.34797e-05
5.04476e-05
1.59736e-05
7.78583e-06
0.0665795
0.409298
0.169929
0.0160821
0.00681228
0.00201556
0.000313193
3.63158e-05
3.52817e-06
3.16728e-07
2.56062e-08
1.72946e-09
9.29248e-11
3.65862e-12
3.25198e-13
1.41167e-06
4.28599e-05
2.33579e-05
1.73351e-05
0.167667
0.379886
0.088753
0.00479099
0.00122382
0.000450296
0.000127162
1.88411e-05
2.01287e-06
1.91048e-07
1.61048e-08
1.13366e-09
6.47846e-11
2.81682e-12
1.71798e-13
9.34003e-06
9.33556e-05
2.5519e-05
2.78507e-05
0.195446
0.344718
0.288559
0.0346098
0.000805249
0.000135427
2.13762e-05
4.00443e-06
5.48508e-07
6.94086e-08
7.4243e-09
6.28563e-10
4.11311e-11
1.9894e-12
8.86145e-14
4.91807e-06
5.90976e-05
3.19478e-05
3.22129e-05
0.0875806
0.325494
0.309257
0.086147
0.00104223
0.000186175
1.95703e-05
2.26223e-06
2.25277e-07
2.00303e-08
1.77292e-09
2.10784e-10
2.00483e-11
1.1591e-12
4.70369e-14
9.84634e-07
1.04366e-05
0.000240073
4.65697e-05
6.67417e-05
0.297021
0.30454
0.30421
0.0307734
0.000408265
4.09791e-05
3.84994e-06
3.24169e-07
2.2495e-08
1.2125e-09
5.94611e-11
5.14805e-12
4.70046e-13
2.65829e-14
6.50241e-07
5.36229e-06
0.000118631
0.000116615
0.000155453
0.139697
0.303701
0.297318
0.127471
0.00234834
0.000110579
8.87704e-06
6.03635e-07
3.24492e-08
1.4033e-09
4.93523e-11
1.39835e-12
1.9168e-13
1.51693e-14
5.12249e-07
1.66059e-06
2.78859e-05
0.000530293
0.000367253
0.000816616
0.221878
0.290659
0.232011
0.0086775
0.000150622
1.09778e-05
7.44382e-07
4.09632e-08
1.94884e-09
9.92726e-11
4.47725e-12
2.0754e-13
7.44861e-15
3.18095e-07
1.05984e-06
5.96985e-06
0.000145305
0.00108433
0.00108433
0.0244338
0.149871
0.140654
0.0167394
0.000263866
2.75922e-05
2.3204e-06
1.50092e-07
7.69106e-09
3.12323e-10
9.67208e-12
2.28074e-13
3.63075e-15
1.96329e-07
6.87466e-07
4.09749e-06
2.10888e-05
0.000524647
0.00154547
0.00229423
0.00835326
0.0100156
0.0171312
0.000915051
6.19826e-05
3.94507e-06
2.12783e-07
9.50932e-09
3.3294e-10
9.16472e-12
1.90163e-13
1.78867e-15
8.03233e-08
3.07778e-07
1.94178e-06
1.13639e-05
0.000124896
0.000862767
0.0013854
0.00167647
0.00185717
0.00280064
0.000594205
3.4227e-05
2.34461e-06
1.26591e-07
5.36028e-09
1.86533e-10
4.93572e-12
8.60851e-14
6.70123e-16
1.82257e-08
9.16786e-08
5.68602e-07
3.39842e-06
3.3399e-05
0.00029953
0.000430037
0.000394843
0.000417604
0.000104358
6.42983e-06
2.55498e-07
6.57238e-08
7.48989e-09
7.50497e-10
4.31422e-11
1.30604e-12
2.23831e-14
1.78249e-16
2.575e-09
1.77244e-08
1.07943e-07
5.85e-07
8.67528e-06
6.42196e-05
9.5152e-05
9.91026e-05
9.20176e-05
2.98193e-05
1.84234e-06
7.58866e-08
1.97185e-09
6.51415e-11
9.62593e-12
8.81759e-12
2.9318e-13
5.2946e-15
4.53471e-17
2.79116e-10
1.9684e-09
1.31664e-08
7.72715e-08
1.64646e-06
9.89996e-06
1.85658e-05
2.10319e-05
1.86111e-05
7.58182e-06
4.79426e-07
2.17729e-08
5.4167e-10
2.61789e-11
5.86561e-12
2.41176e-12
7.36209e-14
1.38024e-15
1.19077e-17
2.71559e-11
2.13502e-10
1.50173e-09
9.4147e-09
2.33641e-07
1.26728e-06
2.95782e-06
3.7384e-06
3.46771e-06
1.72272e-06
1.13384e-07
5.84001e-09
1.90213e-10
1.27434e-11
6.15543e-12
6.16011e-13
1.82616e-14
3.55822e-16
3.02902e-18
5.28487e-12
3.22782e-11
1.67131e-10
1.27703e-09
2.00118e-08
1.37306e-07
4.09645e-07
5.88252e-07
5.90416e-07
3.54651e-07
2.45972e-08
1.41486e-09
6.04221e-11
4.89321e-12
3.34765e-12
1.44579e-13
4.37359e-15
8.87512e-17
7.38833e-19
1.03268e-12
8.47846e-12
3.94098e-11
1.85293e-10
1.25033e-09
1.23945e-08
5.03935e-08
8.63562e-08
9.13781e-08
5.97771e-08
4.99166e-09
3.02531e-10
1.81029e-11
3.81176e-12
6.59516e-13
3.22458e-14
1.00912e-15
2.13416e-17
1.72774e-19
7.96779e-14
1.00588e-12
9.50114e-12
4.2141e-11
1.05697e-10
8.95944e-10
5.61098e-09
1.17676e-08
1.32633e-08
9.45043e-09
9.52243e-10
6.0881e-11
6.10916e-12
1.93184e-12
1.33804e-13
6.95355e-15
2.25129e-16
4.95387e-18
3.88246e-20
5.37978e-15
7.38875e-14
8.33184e-13
5.52188e-12
2.12001e-11
8.85806e-11
5.67549e-10
1.4892e-09
1.82225e-09
1.43323e-09
1.92596e-10
1.60173e-11
3.04049e-12
4.25471e-13
2.7085e-14
1.45499e-15
4.8643e-17
1.11063e-18
8.40195e-21
3.25475e-16
4.92462e-15
5.43279e-14
4.04114e-13
3.74082e-12
2.31636e-11
7.88319e-11
1.83626e-10
2.56185e-10
2.25122e-10
3.84064e-11
5.73241e-12
9.84651e-13
7.00804e-14
5.35746e-15
2.95905e-16
1.0194e-17
2.40733e-19
1.75554e-21
1.73965e-17
2.98478e-16
2.91007e-15
2.44864e-14
2.94043e-13
3.80443e-12
2.08828e-11
4.37168e-11
4.11089e-11
3.70833e-11
8.59154e-12
1.63112e-12
1.59558e-13
1.30311e-14
1.0334e-15
5.86162e-17
2.07621e-18
5.05368e-20
3.5525e-22
7.8846e-19
1.5821e-17
1.37587e-16
1.69449e-15
2.20704e-14
3.50015e-13
2.99746e-12
8.90837e-12
1.00858e-11
7.9627e-12
2.00445e-12
2.81131e-13
2.70218e-14
2.38588e-15
1.94919e-16
1.13404e-17
4.12033e-19
1.03009e-20
6.98645e-23
2.95347e-20
6.63174e-19
6.74238e-18
1.07239e-16
1.72981e-15
2.92516e-14
2.96552e-13
1.13308e-12
1.71308e-12
1.44902e-12
3.47619e-13
4.44428e-14
4.66595e-15
4.28015e-16
3.60663e-17
2.14956e-18
7.99231e-20
2.04486e-21
1.34213e-23
9.06672e-22
1.72711e-20
2.55615e-19
6.0425e-18
1.27954e-16
2.38527e-15
2.86958e-14
1.2326e-13
2.0923e-13
2.01471e-13
5.1534e-14
7.21656e-15
7.94715e-16
7.56214e-17
6.5678e-18
4.00499e-19
1.52035e-20
3.96676e-22
2.21765e-24
2.16095e-23
3.65126e-22
8.48863e-21
2.89671e-19
9.08035e-18
1.92418e-16
2.76358e-15
1.30416e-14
2.2412e-14
2.42988e-14
7.69459e-15
1.17246e-15
1.35423e-16
1.33887e-17
1.19865e-18
7.47063e-20
2.88905e-21
7.65798e-23
3.75323e-25
3.92595e-25
7.69963e-24
3.68888e-22
1.33427e-20
3.36837e-19
7.61288e-18
1.37103e-16
9.90533e-16
3.87292e-15
3.72213e-15
6.37414e-16
8.79612e-17
1.09166e-17
1.14571e-18
1.07462e-19
6.93738e-21
2.77041e-22
7.55347e-24
3.75323e-25
)
;

boundaryField
{
    leftWall
    {
        type            zeroGradient;
    }
    rightWall
    {
        type            zeroGradient;
    }
    lowerWall
    {
        type            zeroGradient;
    }
    atmosphere
    {
        type            inletOutlet;
        inletValue      uniform 0;
        value           nonuniform List<scalar> 
46
(
0
0
0
0
0
0
0
0
0
0
0
0
0
0
0
0
0
0
0
0
0
0
0
0
0
0
0
0
7.69963e-24
3.68888e-22
1.33427e-20
3.36837e-19
7.61288e-18
1.37103e-16
9.90533e-16
3.87292e-15
3.72213e-15
6.37414e-16
8.79612e-17
1.09166e-17
1.14571e-18
1.07462e-19
6.93738e-21
2.77041e-22
7.55347e-24
3.75323e-25
)
;
    }
    defaultFaces
    {
        type            empty;
    }
}


// ************************************************************************* //
