/*--------------------------------*- C++ -*----------------------------------*\
  =========                 |
  \\      /  F ield         | OpenFOAM: The Open Source CFD Toolbox
   \\    /   O peration     | Website:  https://openfoam.org
    \\  /    A nd           | Version:  9
     \\/     M anipulation  |
\*---------------------------------------------------------------------------*/
FoamFile
{
    format      ascii;
    class       volScalarField;
    location    "0.3";
    object      alpha.water;
}
// * * * * * * * * * * * * * * * * * * * * * * * * * * * * * * * * * * * * * //

dimensions      [0 0 0 0 0 0 0];

internalField   nonuniform List<scalar> 
2268
(
0.057947
-2.02238e-09
-1.40418e-09
-4.79437e-10
-6.46842e-11
-1.27577e-12
5.86647e-15
4.42948e-15
2.83794e-16
2.6327e-19
8.53538e-21
5.37127e-24
1.43743e-24
1.30136e-24
1.16609e-24
1.08187e-24
1.06591e-24
8.39757e-25
6.18437e-25
4.53761e-25
3.34594e-25
1.86744e-25
5.12895e-26
0.0589548
-1.10998e-09
-5.10832e-10
-1.05397e-10
-1.87589e-11
-2.22293e-13
2.30823e-14
2.0436e-16
2.36745e-18
5.02723e-19
3.51306e-20
1.17855e-23
6.53942e-24
8.24568e-24
7.57629e-24
4.46981e-24
2.41759e-24
9.98417e-25
4.01772e-25
1.95813e-25
2.05245e-25
1.63167e-25
5.0446e-26
0.061475
-8.88574e-10
-4.15192e-10
-5.88607e-11
-7.13714e-12
7.18873e-14
9.01898e-15
1.48498e-16
3.42581e-17
3.6973e-18
2.30989e-19
1.46912e-22
1.05449e-22
4.9374e-23
2.71874e-23
8.97773e-24
2.56161e-24
5.20186e-25
8.61134e-26
2.07123e-26
3.63986e-26
8.86492e-26
4.03424e-26
0.0727434
-7.8017e-10
-4.03576e-10
-4.52125e-11
-2.74135e-12
3.19919e-13
5.31964e-15
5.74994e-16
9.33589e-17
6.91175e-18
3.07671e-19
1.36642e-21
5.9558e-22
1.44598e-22
5.15236e-23
1.13328e-23
2.08219e-24
2.49541e-25
2.17282e-26
3.36034e-27
4.11414e-27
3.74725e-26
2.58488e-26
0.191488
-2.56567e-07
-4.04566e-10
-3.92652e-11
-3.28063e-13
5.76514e-13
6.71075e-15
1.09396e-15
1.39427e-16
9.72355e-18
-5.47861e-19
5.17119e-21
1.50681e-21
2.34668e-22
6.34629e-23
1.1189e-23
1.48002e-24
1.21992e-25
6.70584e-27
9.25233e-28
2.0644e-27
1.38684e-26
1.39574e-26
0.310442
-5.12706e-07
-4.08018e-10
-3.60976e-11
6.99988e-13
9.58073e-13
1.65422e-14
3.22864e-15
4.64381e-16
2.82508e-17
-6.38807e-18
7.43512e-21
2.67586e-21
2.9376e-22
6.51221e-23
9.39834e-24
1.06295e-24
6.91157e-26
2.81312e-27
3.94861e-28
7.08972e-28
4.09597e-27
6.52819e-27
0.321117
-6.38511e-07
-4.09562e-10
-3.30716e-11
2.39895e-12
8.13439e-13
5.57412e-14
1.55106e-14
1.71387e-15
4.05333e-17
-2.47553e-17
6.0209e-21
1.80567e-21
6.0075e-22
8.04772e-23
6.46612e-24
7.26206e-25
4.3063e-26
1.67819e-27
1.88427e-28
1.908e-28
1.03041e-27
2.34026e-27
0.326592
-6.37212e-07
-4.07876e-10
-2.85678e-11
5.26492e-12
1.14772e-12
2.06697e-13
3.89831e-14
2.69676e-15
1.00928e-35
-5.628e-17
5.7147e-22
3.28648e-21
2.1426e-21
2.57659e-22
4.88189e-24
4.02074e-25
1.8987e-26
6.87581e-28
1.05728e-28
7.99999e-29
1.52458e-28
4.03299e-28
1.92188e-67
1.92188e-67
1.81467e-65
3.41005e-64
1.27662e-63
1.81249e-63
1.56018e-63
2.36828e-64
1.81576e-65
6.32416e-67
1.33548e-68
2.19182e-70
3.02526e-72
3.13765e-74
2.31785e-76
8.83452e-79
6.74036e-81
1.36835e-83
4.67491e-86
8.31106e-67
2.20027e-64
1.2157e-62
9.14166e-62
2.06379e-61
2.55788e-61
2.03043e-61
7.04523e-64
2.39569e-64
1.8835e-65
6.6676e-67
1.42148e-68
2.31393e-70
3.14096e-72
2.68727e-74
1.18932e-76
3.02892e-78
4.07242e-81
4.67491e-86
3.74788e-64
9.82919e-62
3.85926e-60
2.09132e-59
3.52163e-59
3.63391e-59
1.52894e-59
1.65645e-61
4.97059e-62
3.19337e-63
9.67363e-65
1.71526e-66
2.15651e-68
2.09004e-70
1.57073e-72
2.62835e-74
3.80087e-76
5.76445e-79
3.4264e-85
1.24816e-62
1.61685e-59
6.87865e-58
3.7501e-57
6.21474e-57
5.37236e-57
6.31566e-58
2.91577e-59
5.47675e-60
2.77045e-61
5.51548e-63
7.33812e-65
8.66047e-67
8.34524e-69
8.49517e-71
3.32724e-72
2.65726e-74
5.04367e-77
1.36528e-82
2.05299e-60
1.78361e-57
8.65079e-56
5.00724e-55
8.74765e-55
8.06673e-55
4.07468e-57
3.54324e-57
4.04546e-58
1.34369e-59
1.92513e-61
2.3874e-63
2.80824e-65
9.5409e-67
2.82257e-68
2.96558e-70
1.88638e-72
4.32169e-75
2.26739e-80
2.66047e-58
1.59762e-55
8.34377e-54
5.01065e-53
9.49606e-53
9.62338e-53
3.69816e-55
2.96675e-55
2.16546e-56
4.15965e-58
5.47136e-60
6.6688e-62
3.95503e-63
1.6905e-64
2.17184e-66
1.84889e-68
1.14646e-70
3.17129e-73
2.70754e-78
1.16448e-54
1.53309e-52
1.33687e-51
3.74627e-51
5.76681e-51
5.92654e-51
6.2254e-53
1.87205e-53
7.20056e-55
1.11426e-56
1.3519e-58
1.82039e-60
9.77655e-62
1.37516e-63
1.39917e-65
1.17456e-67
7.53131e-70
2.34316e-72
8.09461e-77
2.33695e-51
1.46223e-49
7.42716e-49
1.22677e-48
1.15441e-48
1.56489e-49
6.92905e-51
8.22015e-52
1.61485e-53
2.19041e-55
2.42098e-57
2.35403e-59
2.03133e-61
1.5625e-63
1.11399e-65
6.75978e-68
2.23558e-70
8.51675e-75
3.14677e-76
0.331761
-4.386e-07
-3.79438e-10
-1.06543e-11
1.44395e-11
2.20343e-12
3.35587e-13
3.93013e-14
1.79351e-15
-2.62486e-17
-8.05703e-17
1.4712e-36
4.45206e-21
4.11161e-21
6.41198e-22
3.31729e-23
4.27291e-24
2.65296e-25
1.02139e-26
2.71176e-28
7.9637e-30
5.33215e-30
4.17689e-30
0.334836
-2.65675e-07
-3.35495e-10
1.95901e-28
3.06641e-11
5.01872e-12
7.42216e-13
1.03943e-13
9.77826e-15
4.6973e-16
-1.01506e-16
1.317e-52
2.45895e-21
3.94089e-21
1.18766e-21
1.80228e-22
3.44054e-23
2.49808e-24
1.05129e-25
3.65865e-27
6.09547e-29
2.49084e-31
2.31971e-33
0.33584
-1.50395e-07
-2.80147e-10
3.96923e-12
5.07746e-11
1.34861e-11
3.24156e-12
7.92641e-13
8.73318e-14
3.04279e-15
8.32829e-19
4.11768e-18
4.7685e-20
4.58389e-20
7.39752e-21
1.51862e-21
3.09585e-22
2.69737e-23
1.24821e-24
5.32842e-26
1.21652e-27
1.16072e-29
1.83038e-31
0.326309
-8.1574e-08
-2.42148e-10
2.69963e-11
7.61901e-11
2.90944e-11
6.51483e-12
1.10967e-12
7.56833e-14
1.28894e-15
1.26293e-16
2.66284e-17
3.67917e-19
1.93624e-19
4.88044e-20
1.46022e-20
2.98631e-21
3.07528e-22
1.54695e-23
7.78753e-25
2.233e-26
2.92368e-28
7.39461e-30
0.295364
-4.29401e-08
-1.93978e-10
5.74121e-11
1.0049e-10
5.39667e-11
1.06097e-11
1.55598e-12
9.15278e-14
4.23301e-15
1.70475e-15
1.31874e-16
4.12401e-18
1.23085e-18
4.64232e-19
1.42858e-19
3.00568e-20
3.56622e-21
1.91383e-22
1.09988e-23
3.7163e-25
5.9243e-27
2.04269e-28
0.337803
-2.20764e-08
-1.31465e-10
8.42191e-11
1.44837e-10
9.00675e-11
1.98336e-11
3.29077e-12
2.08729e-13
3.2094e-14
2.02896e-14
1.96998e-15
8.98327e-17
1.2339e-17
4.67901e-18
1.42896e-18
3.10525e-19
4.11824e-20
2.31237e-21
1.47537e-22
5.61782e-24
1.00709e-25
4.3417e-27
0.471143
-1.09463e-08
-6.16381e-11
1.2974e-10
2.96496e-10
1.44844e-10
4.61362e-11
7.69106e-12
5.35909e-13
1.93242e-13
1.6794e-13
3.23302e-14
3.02254e-15
1.64889e-16
4.89003e-17
1.46195e-17
3.23918e-18
4.64319e-19
2.68565e-20
1.86077e-21
7.73958e-23
1.48029e-24
7.53831e-26
0.614595
-5.12463e-09
-3.89599e-12
2.66328e-10
6.30876e-10
2.91002e-10
9.19957e-11
1.37643e-11
1.30077e-12
8.92624e-13
9.89352e-13
3.45548e-13
4.8043e-14
3.16673e-15
4.90226e-16
1.41258e-16
3.36609e-17
5.04869e-18
2.96972e-19
2.19609e-20
9.7628e-22
1.91927e-23
1.09945e-24
0.700691
-1.5968e-09
-4.1107e-17
3.85678e-10
1.56645e-09
6.40239e-10
1.80596e-10
2.25107e-11
3.14508e-12
3.17212e-12
4.12264e-12
2.39982e-12
5.28624e-13
6.80427e-14
9.25506e-15
1.69261e-15
3.13308e-16
5.25814e-17
3.10877e-18
2.42119e-19
1.13313e-20
2.22775e-22
1.37959e-23
0.761618
0.00056283
9.44563e-11
1.34657e-09
6.68978e-09
1.45558e-09
2.59508e-10
3.0832e-11
6.3543e-12
1.01161e-11
1.40087e-11
1.3863e-11
6.44978e-12
2.02681e-12
4.49038e-13
5.43392e-14
4.27282e-15
4.72507e-16
2.93993e-17
2.49393e-18
1.21604e-19
2.34539e-21
1.5287e-22
0.815252
0.0112031
1.61799e-10
2.4811e-08
3.45231e-08
6.05632e-09
5.93933e-10
4.66011e-11
1.02512e-11
2.74636e-11
4.68281e-11
5.52837e-11
5.0057e-11
1.93537e-11
4.84155e-12
9.03791e-13
1.25921e-13
7.79277e-15
2.64344e-16
2.39852e-17
1.21234e-18
2.26257e-20
1.51575e-21
0.868251
0.0458381
1.2421e-09
1.28106e-07
1.95425e-07
3.22756e-08
3.47373e-09
2.08667e-10
1.45816e-11
6.28775e-11
1.28839e-10
1.62663e-10
1.56554e-10
6.37703e-11
1.78812e-11
5.61118e-12
1.57555e-12
1.9279e-13
8.29371e-15
1.92997e-16
1.11079e-17
2.01754e-19
1.3602e-20
0.918575
0.153771
2.18146e-08
3.95719e-06
1.05745e-06
1.88074e-07
2.34293e-08
1.59942e-09
2.20791e-11
1.24067e-10
2.79346e-10
3.46502e-10
3.00308e-10
1.14417e-10
4.32015e-11
2.10006e-11
7.4492e-12
1.61999e-12
1.68048e-13
2.02905e-15
8.37602e-17
1.39827e-18
1.12551e-19
0.956977
0.412344
7.53652e-06
3.10416e-05
5.45828e-06
1.01818e-06
1.36994e-07
9.92162e-09
3.55151e-11
2.10852e-10
4.81747e-10
5.78097e-10
4.41334e-10
1.74512e-10
8.89764e-11
5.42829e-11
1.97601e-11
6.80346e-12
1.08124e-12
4.58587e-14
2.11968e-15
2.87831e-17
8.80309e-19
0.976793
0.679541
0.00768686
0.000261916
3.15949e-05
5.24923e-06
7.39634e-07
5.80639e-08
5.92138e-11
3.28161e-10
7.10953e-10
8.33313e-10
6.79422e-10
3.64012e-10
1.86687e-10
9.77429e-11
4.4979e-11
2.12679e-11
4.26798e-12
5.51754e-13
4.59929e-14
1.5566e-15
5.43981e-18
0.98574
0.806472
0.0336344
0.00122269
0.000143749
2.55951e-05
3.76239e-06
3.27421e-07
8.69342e-11
4.2878e-10
1.24014e-09
1.87803e-09
2.28767e-09
2.37347e-09
1.04686e-09
1.73224e-10
1.43996e-10
6.40341e-11
1.10649e-11
3.03489e-12
2.83487e-13
1.63839e-14
4.59285e-17
0.990871
0.878676
0.138732
0.00404657
0.000649118
0.00012605
2.26621e-05
2.62546e-06
1.11699e-10
4.09706e-10
8.62075e-10
8.31263e-10
9.25705e-10
3.31594e-09
3.46113e-09
4.56077e-10
5.2495e-10
1.86387e-10
2.20834e-11
1.10906e-11
1.05167e-12
8.04843e-14
1.09599e-15
0.994326
0.933033
0.440431
0.0150716
0.00268676
0.000534131
9.20226e-05
1.07531e-05
1.09934e-10
1.44623e-10
2.79212e-10
8.34455e-09
5.97253e-08
6.15654e-08
5.00995e-10
5.13167e-10
9.80008e-10
3.60322e-10
3.80743e-11
2.66778e-11
2.79903e-12
2.99913e-13
9.137e-15
0.996554
0.963389
0.748454
0.0550996
0.0104844
0.00226953
0.000446295
6.19464e-05
9.50855e-11
1.14721e-10
7.28628e-10
7.25026e-08
2.68945e-07
1.04836e-07
4.95327e-10
5.46967e-10
1.05834e-09
4.37792e-10
6.31667e-11
4.40769e-11
6.38507e-12
9.03399e-13
3.8587e-14
0.997864
0.978439
0.881018
0.238261
0.0380334
0.0100114
0.00174798
0.000231385
1.73057e-10
3.13425e-10
2.29753e-08
2.65396e-07
2.68945e-07
1.97176e-07
5.00989e-10
5.83471e-10
1.25535e-09
3.68985e-10
1.08385e-10
6.0719e-11
1.44532e-11
2.30088e-12
1.25797e-13
0.99863
0.987648
0.943872
0.698216
0.17463
0.0426911
0.0086291
0.00111906
3.02371e-10
2.11483e-09
4.74677e-08
2.66157e-07
2.68945e-07
8.20377e-08
5.48173e-10
4.63015e-09
4.61563e-09
3.91852e-10
3.58838e-10
7.02801e-11
3.21624e-11
5.14681e-12
3.49257e-13
0.999144
0.994138
0.980923
0.953036
0.618875
0.219085
0.0349049
0.00389785
6.26356e-05
2.25485e-08
3.65256e-08
1.64402e-07
9.28436e-08
1.49055e-08
1.48715e-08
1.49318e-08
6.41647e-09
1.66311e-09
1.5461e-09
7.12543e-11
6.16683e-11
1.03841e-11
8.67436e-13
0.999531
0.997846
0.995115
0.988057
0.954024
0.683326
0.150308
0.0104281
0.000248833
2.29001e-06
3.55717e-08
3.55737e-08
3.73359e-07
1.97776e-06
2.41984e-07
4.42417e-09
4.06414e-09
4.54765e-09
2.89314e-09
7.89679e-11
9.24943e-11
1.87313e-11
1.93289e-12
0.999785
0.999187
0.997984
0.994624
0.983868
0.947598
0.525828
0.0268466
0.00140974
1.26404e-05
3.55737e-08
4.73286e-08
2.46802e-06
4.00793e-06
1.72313e-06
3.98366e-09
3.71455e-09
4.55374e-09
3.21475e-09
1.5331e-10
1.25074e-10
3.01601e-11
3.80527e-12
0.999903
0.999621
0.99899
0.997196
0.99147
0.975648
0.838402
0.107914
0.00622909
8.32406e-05
3.8593e-08
5.54469e-07
4.08626e-06
4.0471e-06
2.24301e-06
3.49095e-09
2.84761e-09
3.32243e-09
1.86069e-09
8.25846e-10
1.44392e-10
4.44868e-11
6.58219e-12
0.999954
0.999828
0.999566
0.99877
0.99624
0.984108
0.922645
0.439744
0.0194101
0.000595498
5.24404e-08
7.70887e-07
4.08626e-06
3.84155e-06
4.74291e-07
1.6067e-07
1.77338e-09
1.60873e-09
1.57278e-09
1.41351e-09
1.84802e-10
6.2028e-11
1.02493e-11
0.99998
0.999933
0.999841
0.999474
0.998285
0.990803
0.959241
0.81137
0.0625524
0.00302994
6.67796e-08
3.74195e-07
2.25971e-06
7.33373e-07
6.08224e-07
6.91878e-07
1.29317e-08
1.55932e-09
1.37138e-09
1.40732e-09
2.79747e-10
8.41007e-11
1.53074e-11
0.999992
0.999976
0.999937
0.999778
0.999193
0.995849
0.983426
0.923192
0.287902
0.0102269
6.29143e-05
4.67386e-07
7.32372e-07
8.58071e-07
2.8925e-06
5.86579e-07
2.803e-07
1.75023e-09
9.86855e-10
8.67385e-10
4.06692e-10
1.18968e-10
2.47284e-11
0.999997
0.999991
0.999971
0.999903
0.99961
0.998486
0.993306
0.959163
0.72497
0.0344745
0.000360571
6.25691e-07
2.08981e-06
5.00068e-05
6.63353e-05
5.69913e-07
6.34293e-07
2.1068e-08
2.53955e-09
7.79299e-10
5.23785e-10
1.86287e-10
5.0644e-11
0.999999
0.999996
0.999987
0.999956
0.999845
0.999427
0.996972
0.983367
0.921845
0.105916
0.0019042
2.91415e-06
3.11213e-06
0.000129029
0.000130618
5.82994e-07
1.35403e-06
2.23456e-07
9.40885e-09
2.76639e-09
7.15404e-10
3.28865e-10
1.22262e-10
0.999999
0.999998
0.999994
0.999982
0.999944
0.999749
0.998737
0.994662
0.963906
0.385432
0.0110664
3.03837e-05
5.5031e-06
9.16307e-05
0.000136914
6.23808e-07
2.4814e-06
4.99683e-07
6.77021e-08
6.27975e-09
1.57551e-09
7.31414e-10
2.96883e-10
1
0.999999
0.999998
0.999993
0.999975
0.999893
0.999541
0.997978
0.983012
0.80194
0.0489484
0.000182304
3.24867e-05
7.2759e-05
0.00014877
1.83725e-06
6.4735e-06
1.04463e-06
1.44801e-07
1.39555e-08
4.3349e-09
2.07123e-09
8.03244e-10
1
1
0.999999
0.999997
0.99999
0.999962
0.999847
0.999137
0.995848
0.989503
0.128024
0.000649569
8.7462e-05
8.03833e-05
0.000170818
1.39357e-05
1.10842e-05
1.58409e-06
1.79071e-07
3.05009e-08
1.39536e-08
6.35245e-09
2.42193e-09
1
1
1
0.999999
0.999997
0.999988
0.999946
0.99981
0.999286
0.996023
0.298365
0.00311336
0.000202582
0.00010684
0.000169133
3.47784e-05
1.17383e-05
1.37768e-06
2.74859e-07
9.06825e-08
4.91989e-08
2.30596e-08
7.78993e-09
1
1
1
1
0.999999
0.999997
0.999984
0.999946
0.999724
0.998918
0.641114
0.0370875
0.000784781
0.00019933
0.000130133
5.62296e-05
9.46286e-06
1.86898e-06
6.08559e-07
3.04149e-07
1.77602e-07
8.06998e-08
2.63704e-08
1
1
1
1
0.999999
0.999998
0.999995
0.999979
0.999942
0.999904
0.997442
0.133107
0.00259693
0.000512509
0.000127612
4.77536e-05
1.37965e-05
4.40232e-06
1.8168e-06
1.11461e-06
6.48599e-07
2.82447e-07
9.00948e-08
1
1
1
1
1
0.999999
0.999998
0.999994
0.999992
0.999834
0.999071
0.289103
0.00714167
0.00184499
0.000498386
0.000129589
3.84105e-05
1.31486e-05
6.78479e-06
4.23905e-06
2.36463e-06
9.73438e-07
3.07112e-07
1
1
1
1
1
0.999999
0.999998
0.999997
0.999986
0.999949
1.0002
0.540512
0.0242016
0.00495354
0.00163863
0.000499592
0.000137577
5.20086e-05
2.66849e-05
1.6247e-05
8.75862e-06
3.65161e-06
1.02777e-06
1
1
1
0.999999
0.999997
0.999995
0.999995
0.999985
0.999983
0.999988
0.999956
0.962031
0.242174
0.0137931
0.00473815
0.00161187
0.00050904
0.0002113
0.000143412
0.000112581
5.57479e-05
1.06266e-05
3.23931e-06
1
1
0.999999
0.999999
0.999999
0.999998
0.999996
0.999995
0.999991
0.999982
0.99995
0.9994
0.665034
0.130702
0.0141942
0.0061754
0.00190195
0.00166636
0.00142945
0.000633822
9.95989e-05
2.43909e-05
8.5279e-06
0.999992
1
0.999999
0.999999
0.999999
0.999998
0.999997
0.999995
0.999991
0.999985
0.999971
0.999826
0.993161
0.799307
0.300232
0.0157872
0.00684918
0.00349769
0.00159297
0.000690744
0.000215701
5.06407e-05
1.49081e-05
0.992477
0.996246
0.99826
0.996287
0.990777
0.983262
0.973155
0.953234
0.946461
0.94651
0.947394
0.921957
0.899286
0.860497
0.566926
0.0533704
0.00980708
0.00237833
0.000425548
0.000614882
0.000477833
0.000130733
1.72344e-05
6.70842e-39
-5.70878e-44
-1.32129e-44
2.08756e-46
3.02952e-36
8.85634e-39
-2.19425e-40
2.15519e-41
2.25641e-33
2.15784e-34
0
-3.95125e-36
1.76839e-31
4.27019e-32
8.15318e-33
9.58706e-34
7.20687e-30
2.57863e-30
7.07623e-31
1.95353e-31
2.24059e-28
9.20212e-29
2.94285e-29
7.73934e-30
4.99249e-27
2.19814e-27
7.58949e-28
1.98058e-28
8.78495e-26
4.05964e-26
1.4716e-26
3.83656e-27
1.28976e-24
6.18736e-25
2.32672e-25
6.16265e-26
1.63214e-23
8.08075e-24
3.13686e-24
8.49399e-25
1.81932e-22
9.26659e-23
3.70588e-23
1.03113e-23
1.76993e-21
9.42742e-22
3.9059e-22
1.10091e-22
1.53579e-20
7.98156e-21
3.41451e-21
9.71338e-22
1.90924e-19
9.45015e-20
3.61224e-20
1.75736e-20
2.82406e-18
1.53653e-18
6.28558e-19
3.4606e-19
1.86631e-17
1.33671e-17
5.69952e-18
2.90805e-18
8.06621e-17
6.64339e-17
3.12924e-17
1.59981e-17
3.02781e-16
2.22947e-16
1.16153e-16
6.03937e-17
1.14353e-15
6.20338e-16
3.24313e-16
1.70464e-16
4.24036e-15
1.66696e-15
7.5539e-16
3.93951e-16
1.45914e-14
4.43363e-15
1.60384e-15
8.02913e-16
4.70664e-14
1.2074e-14
3.28626e-15
1.51146e-15
1.37915e-13
3.32798e-14
6.69284e-15
2.67157e-15
3.47825e-13
8.73956e-14
1.35558e-14
4.42336e-15
7.32297e-13
2.0536e-13
2.69113e-14
6.86184e-15
1.30904e-12
4.21103e-13
5.2213e-14
1.03544e-14
2.16282e-12
7.82242e-13
1.04472e-13
1.74913e-14
4.01384e-12
1.50707e-12
2.50813e-13
4.35641e-14
1.08527e-11
3.79562e-12
8.32264e-13
1.69476e-13
3.98601e-11
1.34753e-11
3.5246e-12
8.0052e-13
1.28114e-10
5.38094e-11
1.58854e-11
3.79279e-12
3.46828e-10
1.65835e-10
5.90161e-11
1.52975e-11
9.93945e-10
4.087e-10
1.45766e-10
4.79133e-11
3.1241e-09
1.19136e-09
3.31617e-10
9.41538e-11
1.09645e-08
3.93093e-09
9.87911e-10
1.78484e-10
3.71288e-08
1.32098e-08
3.00846e-09
4.00994e-10
1.2201e-07
4.16076e-08
9.17425e-09
1.07429e-09
3.91389e-07
1.22072e-07
2.76153e-08
4.17122e-09
1.12041e-06
3.10004e-07
7.16321e-08
1.0979e-08
2.51102e-06
5.95456e-07
1.14016e-07
8.18119e-09
3.58801e-06
6.43309e-07
1.04593e-07
6.34306e-09
2.61816e-06
-7.79669e-10
-6.80955e-11
-3.21346e-11
3.98161e-46
6.78606e-46
7.84335e-46
5.26227e-46
2.67854e-46
2.73745e-49
6.57822e-49
2.48994e-50
3.8033e-52
4.67734e-54
4.82999e-56
4.47941e-58
3.8223e-60
2.95423e-62
2.09397e-64
6.69111e-66
1.01088e-67
5.62297e-70
4.47474e-74
1.56425e-41
8.74303e-42
2.04813e-42
5.03991e-43
3.81891e-46
4.87113e-46
3.79692e-47
1.02228e-48
1.36264e-50
1.52468e-52
1.47117e-54
1.29826e-56
1.06908e-58
7.74031e-61
1.29822e-62
3.82619e-64
3.92823e-66
2.01306e-68
1.95001e-72
-3.80546e-38
4.43169e-39
1.40542e-42
5.95986e-43
-3.48706e-42
8.11352e-44
2.30697e-45
3.31281e-47
3.96166e-49
4.09471e-51
3.72328e-53
3.13965e-55
2.44849e-57
1.97676e-59
9.8827e-61
1.28763e-62
1.09679e-64
5.22434e-67
5.98056e-71
2.91945e-35
-1.90619e-37
8.61865e-38
4.7366e-39
1.96812e-40
4.47684e-42
6.81661e-44
8.73337e-46
9.58386e-48
9.27941e-50
8.01561e-52
6.48671e-54
4.78076e-56
1.78007e-57
3.2032e-59
3.15278e-61
2.33701e-63
1.03424e-65
1.38389e-69
3.52875e-32
7.04408e-34
1.75152e-35
4.07621e-37
7.45763e-39
1.18858e-40
1.62797e-42
1.91776e-44
1.96934e-46
1.80777e-48
1.49418e-50
1.09962e-52
1.51998e-54
6.59386e-56
7.35216e-58
6.05006e-60
3.98158e-62
1.63631e-64
2.54509e-68
1.01254e-30
2.42839e-32
5.3122e-34
1.03189e-35
1.72723e-37
2.53485e-39
3.23183e-41
3.58384e-43
3.49791e-45
3.07537e-47
2.35998e-49
2.03796e-51
1.09285e-52
1.49489e-54
1.32556e-56
9.49472e-59
5.60634e-61
2.13942e-63
3.85485e-67
2.0757e-29
5.08363e-31
1.0889e-32
2.02896e-34
3.22806e-36
4.50013e-38
5.46842e-40
5.80719e-42
5.45278e-44
4.63367e-46
3.41345e-48
1.37158e-49
2.62982e-51
2.60953e-53
1.97009e-55
1.25395e-57
6.68787e-60
2.36987e-62
4.93221e-66
3.43564e-28
8.43055e-30
1.79556e-31
3.27793e-33
5.06712e-35
6.84269e-37
8.05326e-39
8.29255e-41
7.56422e-43
5.75845e-45
1.09671e-46
4.1339e-48
4.56538e-50
3.73763e-52
2.48458e-54
1.42305e-56
6.88919e-59
2.26682e-61
5.43173e-65
4.69028e-27
1.17077e-28
2.49764e-30
4.52003e-32
6.87896e-34
9.11324e-36
1.05032e-37
1.0588e-39
8.63896e-42
1.06388e-43
5.91119e-45
7.30381e-47
6.38326e-49
4.54475e-51
2.71194e-53
1.40996e-55
6.22026e-58
1.9002e-60
5.22238e-64
5.54978e-26
1.41034e-27
3.02504e-29
5.46467e-31
8.25574e-33
1.0821e-34
1.23162e-36
1.10879e-38
1.43429e-40
7.43392e-42
1.08294e-43
1.00568e-45
7.52515e-48
4.79155e-50
2.59931e-52
1.23487e-54
4.98132e-57
1.41238e-59
4.4323e-63
5.84371e-25
1.50963e-26
3.26192e-28
5.90762e-30
8.91107e-32
1.09307e-33
1.17717e-35
1.80854e-37
8.88552e-39
1.44157e-40
1.46973e-42
1.15151e-44
7.67137e-47
4.44441e-49
2.2119e-51
9.65361e-54
3.57145e-56
9.39524e-59
3.34979e-62
4.84857e-24
1.4605e-25
3.1852e-27
5.32571e-29
7.78363e-31
1.05843e-32
2.07099e-34
1.03978e-35
1.73672e-37
1.89999e-39
1.6256e-41
1.13193e-43
6.86807e-46
3.66396e-48
1.68485e-50
6.78618e-53
2.30901e-55
5.63331e-58
2.27022e-61
5.52608e-23
1.13304e-24
2.47504e-26
4.94073e-28
1.07125e-29
3.01187e-31
1.12973e-32
1.8342e-34
2.15326e-36
1.99421e-38
1.52411e-40
9.70719e-43
5.44803e-45
2.70132e-47
1.15484e-49
4.31068e-52
1.35269e-54
3.05964e-57
1.38719e-60
3.7364e-21
1.40671e-23
5.07875e-25
1.7911e-26
5.64764e-28
1.15675e-29
1.74136e-31
2.12813e-33
2.12921e-35
1.76594e-37
1.23991e-39
7.34281e-42
3.8527e-44
1.78864e-46
7.14747e-49
2.48249e-51
7.20553e-54
1.51124e-56
7.67126e-60
9.56173e-20
6.18817e-22
2.3785e-23
5.69077e-25
1.05106e-26
1.57802e-28
1.9771e-30
2.08154e-32
1.85115e-34
1.39607e-36
9.06351e-39
5.00921e-41
2.46693e-43
1.07614e-45
4.02959e-48
1.30591e-50
3.51532e-53
6.84067e-56
3.84976e-59
8.86592e-19
8.85149e-21
2.56676e-22
5.723e-24
1.02374e-25
1.48848e-27
1.78279e-29
1.76968e-31
1.47013e-33
1.03027e-35
6.21778e-38
3.20288e-40
1.47863e-42
6.05193e-45
2.11643e-47
6.39405e-50
1.59693e-52
2.88022e-55
1.76171e-58
4.9884e-18
5.5366e-20
1.43416e-21
3.21222e-23
5.91262e-25
8.97154e-27
1.11838e-28
1.14282e-30
9.58846e-33
6.64444e-35
3.88072e-37
1.90678e-39
8.3353e-42
3.21083e-44
1.04712e-46
2.94019e-49
6.79295e-52
1.12725e-54
7.43337e-58
1.88862e-17
2.16123e-19
5.00468e-21
1.12595e-22
2.13445e-24
3.39299e-26
4.46675e-28
4.84592e-30
4.29383e-32
3.11386e-34
1.86436e-36
9.19291e-39
3.92859e-41
1.45441e-43
4.51088e-46
1.18446e-48
2.52859e-51
3.81412e-54
2.90654e-57
5.31866e-17
6.09177e-19
1.26903e-20
2.83406e-22
5.42433e-24
8.77873e-26
1.18697e-27
1.33783e-29
1.23819e-31
9.44372e-34
5.91288e-36
3.0124e-38
1.29054e-40
4.70366e-43
1.43414e-45
3.58814e-48
7.13413e-51
9.75877e-54
1.00379e-56
1.22113e-16
1.39296e-18
2.64826e-20
5.79997e-22
1.09743e-23
1.75168e-25
2.34657e-27
2.64258e-29
2.46265e-31
1.91724e-33
1.23091e-35
6.42583e-38
2.76234e-40
1.00005e-42
3.05647e-45
7.41468e-48
1.38967e-50
1.74381e-53
2.7138e-56
2.44935e-16
2.78166e-18
4.88546e-20
1.04167e-21
1.92242e-23
2.96713e-25
3.83994e-27
4.18036e-29
3.78526e-31
2.89984e-33
1.84845e-35
9.64549e-38
4.10212e-40
1.46785e-42
4.49589e-45
1.06846e-47
1.9202e-50
2.2699e-53
5.1884e-56
4.46396e-16
4.98619e-18
8.1228e-20
1.68839e-21
3.03274e-23
4.51175e-25
5.59202e-27
5.77573e-29
4.9646e-31
3.64044e-33
2.24384e-35
1.14663e-37
4.79778e-40
1.69423e-42
5.17625e-45
1.21239e-47
2.11981e-50
2.43555e-53
7.08015e-56
7.45359e-16
8.04437e-18
1.2206e-19
2.51211e-21
4.4442e-23
6.43144e-25
7.64237e-27
7.41571e-29
5.96784e-31
4.11959e-33
2.4288e-35
1.20187e-37
4.96548e-40
1.74029e-42
5.29806e-45
1.22923e-47
2.10116e-50
2.30256e-53
7.72812e-56
1.13366e-15
1.18367e-17
1.74404e-19
3.72878e-21
6.74919e-23
9.68485e-25
1.09601e-26
9.74431e-29
7.12463e-31
4.49672e-33
2.47069e-35
1.14575e-37
4.43928e-40
1.47444e-42
4.32464e-45
9.64293e-48
1.54206e-50
1.56256e-53
7.43973e-56
1.58043e-15
1.69924e-17
2.86973e-19
7.16628e-21
1.4373e-22
2.12171e-24
2.27614e-26
1.74609e-28
1.04507e-30
5.30049e-33
2.30557e-35
9.22981e-38
3.25363e-40
9.84917e-43
2.67548e-45
5.71837e-48
8.84279e-51
8.878e-54
5.1987e-56
2.11476e-15
2.89627e-17
7.50192e-19
2.30688e-20
5.17438e-22
7.93839e-24
8.35568e-26
5.73059e-28
2.72695e-30
9.20226e-33
2.68448e-35
8.05492e-38
2.42943e-40
6.95321e-43
1.68659e-45
3.50796e-48
5.55102e-51
6.0427e-54
3.73315e-56
3.11912e-15
7.76639e-17
3.04517e-18
1.03648e-19
2.44236e-21
3.832e-23
4.04564e-25
2.70873e-27
1.20619e-29
3.50598e-32
7.62642e-35
1.42037e-37
2.81678e-40
6.11486e-43
1.34876e-45
2.83135e-48
5.62302e-51
1.14735e-53
3.73315e-56
6.6222e-15
3.06966e-16
1.43464e-17
5.04937e-19
1.21505e-20
1.93718e-22
2.07231e-24
1.39876e-26
6.22987e-29
1.7805e-31
3.65509e-34
5.9468e-37
9.04089e-40
1.5062e-42
2.94748e-45
6.9654e-48
1.9039e-50
5.08745e-53
6.33774e-56
2.22265e-14
1.38502e-15
6.83877e-17
2.44458e-18
5.97226e-20
9.66395e-22
1.04839e-23
7.16212e-26
3.22081e-28
9.255e-31
1.89862e-33
3.04869e-36
4.47885e-39
7.14877e-42
1.36414e-44
3.24705e-47
9.0977e-50
2.46432e-52
3.24706e-55
9.36184e-14
6.38113e-15
3.19533e-16
1.15946e-17
2.8746e-19
4.71831e-21
5.19259e-23
3.59516e-25
1.63575e-27
4.7418e-30
9.78472e-33
1.57384e-35
2.30529e-38
3.65327e-41
6.89869e-44
1.62515e-46
4.49508e-49
1.19574e-51
1.72851e-54
4.14815e-13
2.95314e-14
1.54459e-15
5.69259e-17
1.40884e-18
2.27517e-20
2.53081e-22
1.77198e-24
8.1556e-27
2.38793e-29
4.96326e-32
8.01241e-35
1.17367e-37
1.85345e-40
3.47451e-43
8.10274e-46
2.21176e-48
5.77502e-51
8.67351e-54
1.7642e-12
1.17268e-13
6.46879e-15
2.48251e-16
6.57481e-18
1.20365e-19
1.32763e-21
8.82704e-24
4.01304e-26
1.1824e-28
2.47565e-31
4.01645e-34
5.8912e-37
9.28085e-40
1.73307e-42
4.05905e-45
1.15011e-47
2.91038e-50
4.27918e-53
6.77386e-12
3.50738e-13
1.80093e-14
7.04161e-16
2.07315e-17
4.7778e-19
6.03471e-21
4.85286e-23
2.23686e-25
5.95491e-28
1.212e-30
1.97596e-33
2.90985e-36
4.59746e-39
8.75702e-42
2.28824e-44
6.85364e-47
1.66053e-49
2.09813e-52
2.27429e-11
1.00424e-12
4.65079e-14
1.70751e-15
4.62396e-17
9.02913e-19
1.25838e-20
1.59027e-22
1.00346e-24
3.44531e-27
7.43189e-30
1.09194e-32
1.56423e-35
2.59992e-38
5.03945e-41
9.57249e-44
1.80379e-46
4.29455e-49
1.15578e-51
5.40914e-11
2.64611e-12
1.33479e-13
4.79593e-15
1.21116e-16
2.19122e-18
2.88014e-20
2.76237e-22
1.87345e-24
1.05716e-26
3.36319e-29
5.56459e-32
7.79045e-35
1.10799e-37
1.43846e-40
1.5281e-43
2.21802e-46
5.5989e-49
4.66354e-51
9.0722e-11
5.79163e-12
3.7721e-13
1.32107e-14
3.15901e-16
5.286e-18
6.28658e-20
5.52468e-22
3.6169e-24
1.69849e-26
5.36049e-29
1.141e-31
1.87011e-34
2.06951e-37
2.18741e-40
2.19363e-43
2.40169e-46
7.50067e-49
1.25691e-50
1.58847e-10
1.08018e-11
9.91237e-13
3.43837e-14
7.50416e-16
1.11853e-17
1.25949e-19
1.02105e-21
5.35221e-24
2.46627e-26
9.01496e-29
2.32535e-31
4.2605e-34
6.19564e-37
8.28726e-40
1.1899e-42
2.30927e-45
7.71866e-48
6.15634e-50
4.24678e-10
2.74174e-11
2.11636e-12
5.74654e-14
5.61812e-16
9.45574e-19
-4.75667e-22
-4.4005e-23
4.69682e-26
1.35321e-27
2.78849e-30
4.68198e-33
7.35557e-36
1.2158e-38
2.28753e-41
-4.00018e-44
-2.70036e-46
-4.36717e-49
1.91264e-49
7.51919e-10
1.58328e-11
5.0828e-13
9.24171e-15
7.32374e-17
-1.5606e-18
-3.78041e-20
-4.10401e-22
-2.70713e-24
-9.01237e-27
-1.31088e-29
-9.97449e-34
5.3928e-36
-1.11193e-38
-1.28286e-40
-4.29638e-43
-1.16193e-45
-2.21709e-48
6.23175e-50
4.2233e-10
1.33991e-11
3.7246e-13
1.0619e-15
-2.71602e-16
-6.87791e-18
-7.88284e-20
-5.90914e-22
-2.99115e-24
-1.02989e-26
-2.47516e-29
-4.4499e-32
-6.6866e-35
-9.54097e-38
-1.43329e-40
-2.47343e-43
-5.32099e-46
-1.45542e-48
2.89225e-52
2.35437e-10
-3.80893e-12
-2.22143e-13
-6.84938e-15
-1.27564e-16
-1.26862e-18
-7.73652e-21
-3.27948e-23
-1.00428e-25
-2.18272e-28
-3.52246e-31
-4.40229e-34
-4.58684e-37
-4.4132e-40
-4.48907e-43
-5.73996e-46
-1.09857e-48
-3.76318e-51
-1.59918e-53
-1.39026e-11
-3.80785e-13
-4.02624e-15
-2.84751e-17
-1.23303e-19
-3.34557e-22
-6.55834e-25
-8.58064e-28
-7.47613e-31
-4.48837e-34
-1.86685e-37
-5.81694e-41
-1.66105e-44
-5.43679e-48
-2.30553e-51
-1.44465e-54
-1.69942e-57
-4.7293e-60
-1.34078e-61
)
;

boundaryField
{
    leftWall
    {
        type            zeroGradient;
    }
    rightWall
    {
        type            zeroGradient;
    }
    lowerWall
    {
        type            zeroGradient;
    }
    atmosphere
    {
        type            inletOutlet;
        inletValue      uniform 0;
        value           nonuniform List<scalar> 
46
(
0.992477
0.996246
0.99826
0.996287
0.990777
0.983262
0.973155
0.953234
0.946461
0.94651
0.947394
0.921957
0
0.860497
0.566926
0.0533704
0
0
0
0
0.000477833
0.000130733
1.72344e-05
2.61816e-06
0
0
0
0
0
0
0
0
0
0
0
0
0
0
0
0
0
0
0
0
0
0
)
;
    }
    defaultFaces
    {
        type            empty;
    }
}


// ************************************************************************* //
