/*--------------------------------*- C++ -*----------------------------------*\
  =========                 |
  \\      /  F ield         | OpenFOAM: The Open Source CFD Toolbox
   \\    /   O peration     | Website:  https://openfoam.org
    \\  /    A nd           | Version:  9
     \\/     M anipulation  |
\*---------------------------------------------------------------------------*/
FoamFile
{
    format      ascii;
    class       surfaceScalarField;
    location    "0.3";
    object      alphaPhi0.water;
}
// * * * * * * * * * * * * * * * * * * * * * * * * * * * * * * * * * * * * * //

dimensions      [0 3 -1 0 0 0 0];

internalField   nonuniform List<scalar> 
4432
(
8.82628e-14
3.168e-06
7.86947e-14
-2.50777e-14
2.17198e-14
5.48651e-15
3.17141e-15
-1.78662e-15
7.16151e-17
-4.58954e-16
-4.33581e-19
-8.02486e-18
-3.69326e-19
2.48569e-20
-4.00363e-20
6.49809e-21
-3.73757e-23
-2.97597e-24
-1.17467e-24
-9.30529e-25
-5.91097e-28
-6.07306e-26
-8.67893e-29
-3.96927e-29
-6.76113e-29
-4.30915e-29
-4.72885e-29
-4.25916e-29
-2.66963e-29
-4.13477e-29
-8.26253e-30
-3.93928e-29
1.11892e-29
-4.193e-29
2.21113e-29
-1.94958e-29
2.5029e-29
-9.19181e-30
2.1678e-29
-2.53108e-30
1.2807e-29
3.00532e-30
3.34259e-30
4.78774e-30
1.18219e-30
2.23807e-14
6.51869e-06
2.55599e-14
-4.69216e-14
6.05665e-15
1.37476e-15
1.21256e-15
-1.1489e-15
1.58564e-17
-2.58564e-16
-1.74927e-18
-2.34445e-18
-1.58179e-20
1.42322e-19
-3.58834e-22
2.34107e-22
-7.30813e-23
-3.83528e-23
-5.48994e-24
-1.38851e-23
-1.52978e-27
-1.78879e-24
-5.94415e-28
-4.20208e-28
-5.16084e-28
-4.30407e-28
-3.92733e-28
-4.23159e-28
-1.94515e-28
-3.99031e-28
-6.41255e-29
-2.20867e-28
-4.3907e-30
-9.04307e-29
8.17675e-30
-2.62566e-29
7.72285e-30
-4.67449e-30
8.11953e-30
-7.22643e-31
8.35009e-30
1.08816e-30
3.4305e-30
5.6675e-30
2.39743e-30
1.61308e-14
1.0498e-05
1.8191e-14
-6.03633e-14
3.41421e-15
-4.51732e-15
4.77524e-16
-1.16477e-15
-6.21327e-18
-1.46979e-16
-1.39841e-18
3.18958e-18
-2.23982e-20
5.74904e-20
-5.06045e-21
3.38269e-22
-5.89138e-22
-2.67805e-22
-3.75328e-23
-5.15274e-23
-1.71689e-26
-4.44888e-24
-9.99113e-27
-8.88061e-27
-4.19089e-27
-6.78736e-27
-2.00667e-27
-2.81657e-27
-5.95828e-28
-1.5135e-27
-1.27082e-28
-4.86378e-28
-1.47621e-29
-1.1797e-28
-1.83183e-31
-1.84163e-29
3.9468e-31
-1.67877e-30
5.04573e-31
-1.58421e-31
1.26391e-30
5.38059e-32
1.60224e-30
2.70901e-30
2.26891e-30
1.38689e-14
2.15617e-05
1.59826e-14
-7.00268e-14
2.52637e-15
-1.09592e-14
1.81679e-16
-1.3643e-15
-2.38449e-17
-7.7447e-17
-8.50834e-19
9.19056e-18
-8.88714e-20
6.85261e-20
-1.49425e-20
2.96901e-21
-1.17459e-21
-4.53177e-22
-5.20654e-23
-8.73619e-23
-1.71148e-25
9.40744e-24
-6.76139e-26
-8.36682e-26
-1.54412e-26
-3.01773e-26
-4.90411e-27
-7.26045e-27
-1.00444e-27
-2.7247e-27
-1.56406e-28
-6.04292e-28
-1.43983e-29
-1.06419e-28
-7.29649e-31
-1.06291e-29
-1.85269e-32
-6.02833e-31
1.56126e-32
-5.38348e-32
5.03576e-32
1.16014e-33
3.28174e-31
1.07716e-30
1.44573e-30
4.04281e-12
4.18422e-05
1.37478e-14
-2.77048e-11
2.07333e-15
-1.86006e-14
2.12779e-17
-1.64816e-15
-4.19451e-17
-1.21452e-17
-1.0395e-18
1.52453e-17
-1.6923e-19
1.34228e-19
-2.33361e-20
8.64582e-21
-1.79755e-21
-9.32991e-22
4.59538e-23
-2.90397e-22
-4.11192e-25
1.28362e-22
-1.92807e-25
-2.00557e-25
-2.95049e-26
-9.03217e-26
-7.2383e-27
-1.08407e-26
-1.20949e-27
-3.32651e-27
-1.47157e-28
-6.35796e-28
-1.07616e-29
-8.72003e-29
-4.59908e-31
-6.82642e-30
-2.39506e-32
-2.88071e-31
-1.50848e-32
-2.46105e-32
-9.62156e-32
-8.39661e-33
-9.69221e-33
3.20372e-31
7.25661e-31
7.72377e-12
4.55679e-05
1.24568e-14
-6.32926e-11
1.79274e-15
-2.65605e-14
-5.31722e-17
-1.9766e-15
-6.88774e-17
6.50411e-17
-1.29806e-18
3.23423e-17
-4.86297e-19
4.99343e-19
-7.75539e-20
4.24234e-20
-5.69983e-21
-4.3869e-21
5.47235e-22
-6.06744e-22
-6.20418e-25
5.52413e-22
-2.12208e-25
-1.77838e-25
-4.25782e-26
-7.17033e-26
-8.69431e-27
-1.79909e-26
-1.20757e-27
-4.0906e-27
-1.36326e-28
-5.6895e-28
-9.05754e-30
-7.95495e-29
-3.45769e-31
-6.04858e-30
-1.86345e-32
-2.54765e-31
-1.53798e-32
-2.07379e-32
-6.86252e-32
-6.16323e-33
-7.78662e-32
6.10657e-32
2.60681e-31
9.00404e-12
4.88255e-05
1.14783e-14
-8.77138e-11
1.54374e-15
-3.42801e-14
-1.56148e-16
-2.25151e-15
-9.61341e-17
1.9769e-16
-7.65604e-18
3.49801e-17
-2.25097e-18
2.36165e-18
-2.94386e-19
2.73626e-19
-9.72955e-21
-6.52139e-21
2.14612e-21
-1.74948e-22
-5.12303e-25
1.34251e-21
-2.34959e-25
-4.3113e-26
-8.49891e-26
-1.09515e-25
-1.39554e-26
-6.91851e-26
-1.11242e-27
-1.00297e-26
-1.42827e-28
-5.78076e-28
-1.1652e-29
-9.84675e-29
-5.65413e-31
-1.0185e-29
-2.35479e-32
-5.63901e-31
-1.25035e-32
-3.73218e-32
-2.28856e-32
-4.15239e-33
-5.04984e-32
4.67114e-33
5.10344e-32
8.25065e-12
5.25559e-05
1.05247e-14
-9.57271e-11
1.24724e-15
-4.14058e-14
-3.13963e-16
-2.33138e-15
-1.35564e-16
4.8816e-16
-2.77374e-17
7.117e-17
-5.92043e-18
8.5913e-18
-4.73784e-19
6.08925e-19
-2.95372e-21
-8.29594e-22
4.89976e-21
3.54273e-22
-1.55519e-25
1.99332e-21
-2.73768e-25
-4.42049e-54
-2.31735e-25
-1.59838e-25
-4.27493e-26
-1.75198e-25
-1.78165e-27
-2.20225e-26
-2.94262e-28
-1.30133e-27
-3.25078e-29
-2.94431e-28
-1.97174e-30
-3.75354e-29
-7.78451e-32
-2.35329e-30
-7.54016e-33
-1.07785e-31
-8.82998e-33
-5.04985e-33
-1.67638e-32
-1.42069e-34
2.53478e-33
4.86261e-73
-1.66889e-71
-1.76165e-71
1.90013e-72
-1.21288e-69
1.7524e-70
-1.62188e-68
2.08705e-69
-3.85404e-68
4.89843e-69
-4.09124e-68
3.28126e-69
-1.5357e-68
3.13296e-70
-4.38803e-69
-6.97116e-70
-3.798e-70
-3.63021e-69
-1.27398e-71
-3.6335e-70
-2.45375e-73
-1.25856e-71
-3.51882e-75
-2.46133e-73
-4.01999e-77
-3.57421e-75
-3.19721e-79
-4.12346e-77
-1.59432e-81
-3.30413e-79
-3.17403e-84
-1.64167e-81
-2.47173e-88
-3.94102e-84
2.0568e-90
-1.06975e-87
1.04807e-90
-4.45902e-71
-2.27285e-72
-2.27972e-68
1.13721e-68
-7.91031e-67
4.05464e-67
-3.787e-66
1.97727e-66
-6.19985e-66
2.58094e-66
-6.08526e-66
1.32351e-66
-2.27518e-66
-1.83319e-68
-9.15449e-67
-1.31945e-66
-6.73611e-68
-8.42304e-67
-1.98148e-69
-6.53435e-68
-3.48312e-71
-1.95466e-69
-4.71215e-73
-3.47098e-71
-5.26917e-75
-4.7415e-73
-4.25315e-77
-5.37311e-75
-2.32438e-79
-4.41282e-77
-6.482e-82
-2.40812e-79
-2.25126e-85
-8.82852e-82
-9.90361e-93
-4.65062e-85
2.94416e-92
-7.55622e-68
4.00604e-68
-1.30369e-65
7.25547e-66
-2.6612e-64
1.71773e-64
-8.23048e-64
6.02129e-64
-9.17716e-64
5.7274e-64
-5.68013e-64
2.27752e-64
-3.43423e-64
-2.85075e-65
-1.14145e-64
-2.20554e-64
-6.17422e-66
-1.07111e-64
-1.55349e-67
-6.02865e-66
-2.471e-69
-1.54705e-67
-3.12907e-71
-2.51918e-69
-3.38058e-73
-3.22517e-71
-2.73242e-75
-3.50913e-73
-1.60046e-77
-2.8536e-75
-5.39006e-80
-1.82982e-77
-3.59686e-83
-8.19169e-80
-1.09891e-90
-7.17346e-83
-2.28102e-90
-2.82534e-65
2.72444e-65
-2.93732e-63
1.81807e-63
-5.43306e-62
3.77137e-62
-1.57649e-61
1.28909e-61
-1.62318e-61
1.17471e-61
-3.90114e-62
3.71291e-62
-4.2146e-62
-1.7412e-63
-9.12705e-63
-3.16838e-62
-3.75887e-64
-8.69929e-63
-8.10428e-66
-3.70704e-64
-1.16895e-67
-8.23565e-66
-1.39382e-69
-1.20153e-67
-1.4623e-71
-1.44655e-69
-1.18378e-73
-1.53007e-71
-7.38985e-76
-1.27093e-73
-2.79809e-78
-9.94845e-76
-2.85639e-81
-4.83667e-78
-9.90096e-88
-6.30647e-81
-3.65643e-87
-8.94853e-63
8.83006e-63
-4.36793e-61
2.9808e-61
-7.74177e-60
5.50049e-60
-2.38576e-59
1.91948e-59
-2.44131e-59
1.7946e-59
-4.01619e-60
5.52174e-60
-3.78811e-60
-5.77276e-61
-5.34695e-61
-3.10248e-60
-1.71171e-62
-5.16519e-61
-3.19655e-64
-1.72876e-62
-4.2163e-66
-3.27543e-64
-4.74539e-68
-4.36488e-66
-4.91031e-70
-4.97275e-68
-4.16982e-72
-5.79371e-70
-2.61564e-74
-6.34318e-72
-1.07841e-76
-4.96768e-74
-1.49073e-79
-2.62734e-76
-1.72829e-85
-4.84754e-79
-1.00815e-84
-1.86937e-60
1.86302e-60
-5.04992e-59
3.71762e-59
-8.15457e-58
5.86668e-58
-2.70122e-57
2.03369e-57
-2.89068e-57
1.97429e-57
-1.04897e-57
5.71307e-58
-3.96973e-58
-6.23948e-58
-2.45641e-59
-3.64859e-58
-6.23307e-61
-2.41361e-59
-1.0214e-62
-6.35476e-61
-1.2359e-64
-1.05449e-62
-1.34801e-66
-1.28981e-64
-1.47494e-68
-1.5837e-66
-1.1913e-70
-2.38354e-68
-7.40406e-73
-2.58863e-70
-3.2559e-75
-2.06349e-72
-5.6369e-78
-1.20856e-74
-1.44346e-83
-2.95609e-77
-1.50211e-82
-1.10449e-57
1.09679e-57
-1.80124e-56
1.8136e-56
-8.48041e-56
9.27838e-56
-1.70381e-55
1.54022e-55
-1.88615e-55
1.14502e-55
-1.05044e-55
2.47855e-56
-2.38161e-56
-7.79544e-56
-9.25295e-58
-2.26652e-56
-1.92015e-59
-9.33167e-58
-2.7809e-61
-1.97313e-59
-3.10463e-63
-2.89066e-61
-3.16179e-65
-3.27711e-63
-2.69379e-67
-3.70338e-65
-1.91874e-69
-3.59998e-67
-1.16275e-71
-2.98319e-69
-5.28602e-74
-2.14298e-71
-1.03655e-76
-1.19435e-73
-5.88909e-82
-3.02654e-76
-4.66906e-81
-1.57032e-54
1.5045e-54
-1.74063e-53
1.65396e-53
-4.33845e-53
4.91876e-53
-4.17922e-53
4.82065e-53
-8.76321e-54
2.02444e-53
-9.81707e-54
1.94925e-55
-1.04503e-54
-8.51191e-54
-2.79078e-56
-1.02313e-54
-4.76997e-58
-2.85e-56
-6.0938e-60
-4.94878e-58
-6.22106e-62
-6.39228e-60
-5.47545e-64
-6.58669e-62
-4.26484e-66
-5.90278e-64
-2.88266e-68
-4.68759e-66
-1.71227e-70
-3.23845e-68
-7.96453e-73
-1.96879e-70
-1.74513e-75
-9.31017e-73
-1.52004e-80
-2.04822e-75
-3.40278e-80
1.04697e-11
6.04167e-05
1.84993e-14
-7.6804e-11
8.74772e-16
-5.11733e-14
-1.67169e-15
-1.18783e-15
-5.46435e-16
1.9748e-15
-9.63735e-17
2.25744e-16
-1.29538e-17
2.19025e-17
-6.69925e-19
1.03094e-18
4.79e-21
1.02386e-20
1.49153e-20
-6.6891e-21
-2.01391e-24
2.49296e-21
-1.00805e-24
-1.00585e-24
-8.57704e-25
-2.27386e-25
-2.47735e-25
-2.268e-25
-2.14348e-26
-5.66732e-26
-3.8676e-27
-8.08955e-27
-4.32681e-28
-2.28139e-27
-2.67959e-29
-3.50808e-28
-1.16216e-30
-2.46301e-29
-3.23961e-32
-1.13678e-30
-1.33513e-33
-3.58486e-32
-1.35544e-33
-9.25783e-34
-2.50228e-36
-3.87972e-40
5.43322e-12
6.73645e-05
1.4025e-14
-5.21219e-11
-1.55957e-15
-5.5829e-14
-3.09083e-15
3.43431e-16
-1.14222e-15
4.55659e-15
-1.9961e-16
6.58403e-16
-3.18479e-17
7.02858e-17
-3.36594e-18
6.21638e-18
-1.98488e-19
2.44669e-19
1.88121e-20
-1.92014e-20
-4.27435e-23
-1.09272e-22
-2.83851e-24
-4.09109e-23
-1.51822e-24
-1.46334e-24
-6.6239e-25
-8.84546e-25
-1.6056e-25
-2.41985e-25
-3.66522e-26
-7.34887e-26
-4.57553e-27
-2.3108e-26
-3.01113e-28
-3.78431e-27
-1.46816e-29
-2.78601e-28
-5.30737e-31
-1.41217e-29
-9.18255e-33
-5.37449e-31
-6.90861e-35
-9.99218e-33
-7.05052e-35
-6.09995e-37
2.60654e-12
7.36437e-05
1.03051e-14
-3.22822e-11
-5.53478e-15
-5.5618e-14
-4.61694e-15
1.87396e-15
-2.60533e-15
8.62986e-15
-7.52257e-16
2.15656e-15
-2.18266e-16
3.81434e-16
-2.91514e-17
5.27497e-17
-1.14555e-18
2.19697e-18
-5.08318e-22
3.62101e-21
-8.87879e-22
-2.45508e-22
-2.55963e-23
-2.97371e-22
-1.59123e-23
-7.23441e-24
-5.40005e-24
-5.49132e-24
-1.54892e-24
-1.84601e-24
-3.68968e-25
-7.68486e-25
-5.05208e-26
-2.42976e-25
-3.54892e-27
-4.2058e-26
-1.91337e-28
-3.27617e-27
-8.41996e-30
-1.81498e-28
-2.0239e-31
-8.4014e-30
-2.48644e-33
-2.07207e-31
-2.48534e-33
-4.70855e-35
1.21441e-12
7.43271e-05
7.79172e-15
-1.88848e-11
-3.98408e-15
-5.37226e-14
-6.32162e-15
8.52276e-15
-4.96333e-15
1.44462e-14
-1.48537e-15
5.23931e-15
-3.11723e-16
8.44726e-16
-2.55398e-17
8.89686e-17
-4.59577e-19
2.88269e-18
-4.62434e-20
1.36069e-20
-1.07232e-20
-3.39465e-21
-3.14776e-22
-1.21246e-21
-1.14949e-22
-8.80392e-23
-4.65855e-23
-3.76933e-23
-1.58609e-23
-1.74035e-23
-3.86178e-24
-8.30149e-24
-5.71236e-25
-2.61895e-24
-4.28116e-26
-4.75732e-25
-2.50933e-27
-3.94087e-26
-1.28802e-28
-2.3518e-27
-3.85408e-30
-1.27435e-28
-6.33386e-32
-3.93863e-30
-6.32364e-32
-1.8361e-33
5.9621e-13
9.25483e-05
5.75203e-15
-1.06174e-11
-3.18194e-15
-4.70321e-14
-7.73777e-15
1.57991e-14
-7.93987e-15
2.18019e-14
-2.36175e-15
1.07994e-14
-4.29711e-16
1.64659e-15
-2.97974e-17
1.65547e-16
-1.21083e-18
5.51876e-18
-5.28933e-19
1.44915e-19
-6.37805e-20
-1.87714e-20
-4.54737e-21
-8.32578e-21
-1.20072e-21
-1.76423e-21
-4.94502e-22
-3.76121e-22
-1.68426e-22
-2.07691e-22
-4.13164e-23
-9.40943e-23
-6.49496e-24
-2.86804e-23
-5.16253e-25
-5.40541e-24
-3.22435e-26
-4.75208e-25
-1.86328e-27
-2.99686e-26
-6.49828e-29
-1.83482e-27
-1.26867e-30
-6.65738e-29
-1.26557e-30
-4.77251e-32
3.07785e-13
0.00013084
3.81136e-15
-5.79084e-12
-4.35982e-15
-3.46859e-14
-1.057e-14
2.49082e-14
-1.17936e-14
3.86388e-14
-4.14038e-15
2.00449e-14
-8.66015e-16
3.84582e-15
-6.233e-17
4.7793e-16
-7.50059e-18
1.99283e-17
-5.15807e-18
1.81302e-18
-8.73825e-19
1.49747e-19
-7.63496e-20
-1.09856e-19
-1.4771e-20
-2.27179e-20
-5.62773e-21
-5.8008e-21
-1.83083e-21
-2.7475e-21
-4.46571e-22
-1.09056e-21
-7.32028e-23
-3.16712e-22
-6.11765e-24
-6.09251e-23
-3.98795e-25
-5.64932e-24
-2.52254e-26
-3.68875e-25
-9.80574e-28
-2.47977e-26
-2.1111e-29
-1.00922e-27
-2.1108e-29
-9.47081e-31
1.53927e-13
0.000177162
1.80386e-15
-3.03775e-12
-6.77432e-15
-1.74692e-14
-2.03832e-14
4.45776e-14
-1.89201e-14
9.81749e-14
-8.71949e-15
3.76757e-14
-1.93555e-15
1.03784e-14
-1.38523e-16
1.27556e-15
-3.66666e-17
6.39328e-17
-3.43561e-17
1.46409e-17
-1.19457e-17
4.03931e-18
-1.59444e-18
-1.00998e-18
-2.02031e-19
-3.28403e-19
-6.70442e-20
-8.14955e-20
-2.02423e-20
-3.7475e-20
-4.82499e-21
-1.28204e-20
-8.08262e-22
-3.50134e-21
-7.03639e-23
-6.74779e-22
-4.69406e-24
-6.54003e-23
-3.17979e-25
-4.3348e-24
-1.33612e-26
-3.12829e-25
-3.01898e-28
-1.38386e-26
-3.03665e-28
-1.53021e-29
7.10371e-14
0.000208099
1.17979e-16
-1.5063e-12
-1.37672e-14
-1.17091e-15
-4.31443e-14
9.80427e-14
-3.60488e-14
3.13435e-13
-1.66382e-14
9.06157e-14
-3.32686e-15
2.25462e-14
-2.62695e-16
2.49985e-15
-1.45712e-16
1.83887e-16
-1.72859e-16
8.42333e-17
-1.07741e-16
3.98671e-17
-2.15085e-17
-3.15349e-18
-2.90017e-18
-3.22768e-18
-8.27398e-19
-7.88983e-19
-2.25805e-19
-5.27786e-19
-5.16478e-20
-1.54216e-19
-8.66996e-21
-3.84767e-20
-7.79032e-22
-7.29063e-21
-5.22321e-23
-7.30972e-22
-3.72602e-24
-4.82893e-23
-1.65699e-25
-3.67576e-24
-3.79383e-27
-1.72932e-25
-3.84631e-27
-2.09552e-28
2.10581e-14
0.000231481
-1.06115e-15
-4.97659e-13
-1.19786e-14
1.07925e-14
-1.22367e-13
4.44046e-13
-8.811e-14
1.61521e-12
-3.18663e-14
2.83039e-13
-5.23388e-15
4.21902e-14
-4.59737e-16
4.32732e-15
-5.02206e-16
5.02642e-16
-6.9987e-16
3.62227e-16
-6.13872e-16
2.34404e-16
-2.04836e-16
1.82016e-17
-4.43441e-17
-3.24752e-17
-1.10068e-17
-1.71359e-17
-2.59113e-18
-7.31998e-18
-5.43548e-19
-1.83765e-18
-8.98147e-20
-4.24303e-19
-8.2575e-21
-7.63754e-20
-5.47484e-22
-7.84166e-21
-4.0602e-23
-5.07913e-22
-1.88348e-24
-4.02262e-23
-4.25728e-26
-1.98253e-24
-4.35354e-26
-2.49717e-27
-2.26719e-06
0.000255131
-9.04986e-14
9.54471e-07
-1.95234e-13
9.56523e-14
-4.57935e-13
5.05289e-12
-2.64617e-13
8.08121e-12
-5.46079e-14
1.22123e-12
-6.71965e-15
7.29102e-14
-8.86454e-16
6.14851e-15
-1.25212e-15
1.11036e-15
-2.35174e-15
1.34968e-15
-2.52386e-15
1.07266e-15
-1.83008e-15
3.13004e-16
-7.3292e-16
-3.00804e-16
-2.02249e-16
-2.93304e-16
-3.52724e-17
-1.0434e-16
-5.82902e-18
-1.94277e-17
-8.95729e-19
-4.38603e-18
-8.34483e-20
-7.79888e-19
-5.39732e-21
-8.11759e-20
-4.1206e-22
-5.03423e-21
-1.97447e-23
-4.10472e-22
-4.32656e-25
-2.09746e-23
-4.46941e-25
-2.63739e-26
-2.94114e-06
0.000279413
-1.53796e-12
8.38209e-06
-2.07214e-12
7.8081e-13
-2.02561e-12
4.52423e-11
-1.13254e-12
4.26922e-11
-2.56273e-13
6.47562e-12
-1.88897e-14
4.50821e-13
-1.46081e-15
1.60991e-14
-2.71624e-15
2.00308e-15
-6.61783e-15
4.14287e-15
-9.58671e-15
4.41811e-15
-1.00173e-14
2.07061e-15
-5.8776e-15
-7.75714e-16
-1.71499e-15
-1.4553e-15
-3.79627e-16
-5.54047e-16
-7.1325e-17
-1.66016e-16
-9.04089e-18
-4.47648e-17
-8.13147e-19
-7.17446e-18
-5.00142e-20
-7.90822e-19
-3.90256e-21
-4.69984e-20
-1.91931e-22
-3.91203e-21
-4.02393e-24
-2.05851e-22
-4.20534e-24
-2.50131e-25
-3.53868e-06
0.000303734
-4.01247e-11
3.93936e-05
-4.97274e-11
1.71664e-11
-1.55307e-11
1.33929e-09
-6.9033e-12
2.38938e-10
-1.29949e-12
3.4379e-11
-1.22719e-13
3.0971e-12
-3.34697e-15
1.22075e-13
-5.43294e-15
3.31131e-15
-1.63811e-14
1.03448e-14
-2.73514e-14
1.40066e-14
-2.91075e-14
8.2076e-15
-1.84174e-14
-1.12825e-16
-5.66613e-15
-2.68737e-15
-1.85644e-15
-1.48276e-15
-5.94953e-16
-7.85787e-16
-1.00479e-16
-3.2072e-16
-8.10943e-18
-6.06127e-17
-4.3524e-19
-6.08262e-18
-3.45486e-20
-4.1752e-19
-1.73786e-21
-3.4975e-20
-3.45485e-23
-1.88237e-21
-3.65793e-23
-2.14973e-24
-5.38731e-06
0.000326246
-2.57933e-10
0.000127999
-3.36325e-10
5.94014e-11
-8.27385e-11
6.54322e-09
-3.62937e-11
1.29657e-09
-7.95631e-12
2.05218e-10
-9.63787e-13
2.23218e-11
-7.84799e-15
1.08636e-12
-1.18134e-14
5.9106e-15
-3.38589e-14
2.188e-14
-5.56203e-14
3.33509e-14
-5.87363e-14
2.11751e-14
-3.18576e-14
3.07052e-15
-1.19124e-14
-3.22867e-15
-5.8897e-15
-2.96165e-15
-2.39883e-15
-2.55301e-15
-6.32405e-16
-1.05761e-15
-8.13467e-17
-3.33124e-16
-3.6684e-18
-4.96913e-17
-2.87911e-19
-3.39894e-18
-1.47195e-20
-2.94444e-19
-2.75912e-22
-1.61453e-20
-2.96327e-22
-1.69382e-23
-7.63988e-06
0.000343415
-1.6818e-06
0.000239161
-2.54309e-08
5.68099e-07
-1.3396e-09
5.91217e-08
-2.12892e-10
6.99139e-09
-4.33857e-11
1.10792e-09
-5.80314e-12
1.40295e-10
-1.26328e-14
7.68358e-12
-1.93407e-14
1.05754e-14
-5.64326e-14
4.01219e-14
-8.83665e-14
6.28941e-14
-9.01535e-14
4.22821e-14
-4.50182e-14
9.79688e-15
-2.21256e-14
-3.33336e-15
-1.38738e-14
-4.80485e-15
-5.93273e-15
-5.11179e-15
-2.27761e-15
-2.40367e-15
-4.25362e-16
-1.17421e-15
-3.20325e-17
-2.58755e-16
-2.4018e-18
-2.48956e-17
-1.1986e-19
-2.22489e-18
-2.05989e-21
-1.29084e-19
-2.24258e-21
-1.26653e-22
-7.81728e-06
0.000355541
-3.47225e-06
0.000293994
-1.19496e-07
5.6326e-06
-5.39952e-09
2.22419e-07
-9.27614e-10
3.44159e-08
-1.99123e-10
5.86132e-09
-2.89252e-11
8.13353e-10
-1.92959e-14
5.38618e-11
-2.90699e-14
1.8225e-14
-8.02008e-14
6.49958e-14
-1.2141e-13
1.05859e-13
-1.26917e-13
7.65696e-14
-8.55058e-14
2.51835e-14
-4.90616e-14
-1.67732e-14
-2.51357e-14
-1.66007e-14
-1.23823e-14
-8.02569e-15
-6.35512e-15
-6.17624e-15
-1.44578e-15
-3.65492e-15
-2.30274e-16
-8.38198e-16
-2.14126e-17
-1.70239e-16
-1.06747e-18
-1.67725e-17
-1.4285e-20
-9.35169e-19
-1.57879e-20
-9.26306e-22
-7.02893e-06
0.000365017
-4.2302e-06
0.000323639
-3.72802e-07
3.55254e-05
-1.76494e-08
6.38822e-07
-3.41864e-09
1.58411e-07
-7.82386e-10
2.93326e-08
-1.28794e-10
4.39202e-09
-1.67909e-14
3.53775e-10
-3.59383e-14
2.76884e-14
-1.00838e-13
8.07224e-14
-2.16504e-13
1.64566e-13
-3.27808e-13
1.82219e-13
-3.87105e-13
1.26642e-13
-2.96009e-13
-2.23449e-15
-4.35446e-14
-1.33582e-13
-3.08563e-14
-2.56561e-14
-1.83482e-14
-2.66726e-14
-3.37929e-15
-1.27317e-14
-9.81785e-16
-1.92411e-15
-1.05657e-16
-7.8698e-16
-7.11686e-18
-7.93524e-17
-9.69186e-20
-5.60667e-18
-1.06247e-19
-4.63066e-21
-6.48265e-06
0.000373162
-6.9817e-06
0.000349804
-1.42914e-06
0.000146716
-6.47241e-08
2.69952e-06
-1.32764e-08
7.21254e-07
-3.79313e-09
1.44041e-07
-9.28386e-10
2.62525e-08
-1.26963e-14
2.94019e-09
-3.53417e-14
3.37727e-14
-8.54837e-14
8.42826e-14
-1.10577e-13
1.34204e-13
-1.82419e-13
2.1e-13
-5.32051e-13
4.42357e-13
-5.71128e-13
1.26594e-13
-7.92325e-14
-1.66303e-14
-9.34258e-14
-3.23871e-14
-5.37501e-14
-7.70925e-14
-6.06123e-15
-3.44018e-14
-2.83533e-15
-3.56548e-15
-3.52558e-16
-2.45809e-15
-2.98088e-17
-2.51946e-16
-7.29549e-19
-2.40985e-17
-6.60719e-19
-1.87289e-20
-6.11327e-06
0.000380378
-1.06275e-05
0.000369638
-3.02602e-06
0.000282777
-2.40074e-07
1.21833e-05
-4.62246e-08
3.01667e-06
-1.22043e-08
6.38782e-07
-3.04175e-09
1.14677e-07
-5.6519e-15
1.3903e-08
-2.25523e-14
3.70362e-14
-4.22143e-14
8.32012e-14
-3.69845e-13
4.43824e-13
-6.84515e-12
5.30532e-12
-9.30702e-12
7.98501e-12
-1.15444e-13
1.75303e-12
-1.34979e-13
-1.40572e-14
-1.5692e-13
-3.4167e-14
-1.00111e-13
-8.68321e-14
-9.58183e-15
-5.06944e-14
-5.66362e-15
-6.22846e-15
-8.70271e-16
-4.91828e-15
-9.79042e-17
-6.29076e-16
-4.10825e-18
-8.27907e-17
-3.358e-18
-7.29335e-20
-5.8368e-06
0.000386887
-1.11544e-05
0.000382531
-4.93963e-06
0.00034051
-8.39463e-07
6.7392e-05
-1.56487e-07
1.17457e-05
-4.5767e-08
2.69871e-06
-1.42681e-08
5.46148e-07
-3.23282e-14
8.30753e-08
-5.43196e-14
6.57472e-14
-3.31479e-13
3.78732e-13
-2.02103e-12
2.09211e-12
-2.64898e-11
2.75064e-11
-2.41242e-11
1.7176e-11
-1.31063e-13
3.77114e-12
-1.50431e-13
-1.26291e-14
-1.64029e-13
-3.19676e-14
-1.12727e-13
-8.66347e-14
-1.57842e-14
-4.50687e-14
-9.11254e-15
-1.03632e-14
-1.82058e-15
-7.66068e-15
-2.6533e-16
-1.47295e-15
-1.49219e-17
-2.36813e-16
-1.24103e-17
-2.89279e-19
-5.54555e-06
0.000392831
-1.05399e-05
0.000391968
-1.03041e-05
0.000369819
-2.90385e-06
0.0002469
-7.02471e-07
4.7901e-05
-1.64987e-07
1.37106e-05
-3.89265e-08
2.23545e-06
-1.68931e-13
3.18731e-07
-2.52124e-13
1.31177e-13
-8.53687e-13
9.42313e-13
-1.20433e-11
7.88278e-12
-3.10679e-11
3.1217e-11
-2.45877e-11
2.22523e-11
-2.02305e-13
4.66568e-12
-2.10113e-13
-2.18e-14
-1.90539e-13
-5.79814e-14
-9.53288e-14
-2.44284e-13
-2.87888e-14
-4.51445e-14
-1.28683e-14
-2.32029e-14
-3.62539e-15
-1.03258e-14
-6.17343e-16
-3.48598e-15
-4.33809e-17
-5.84416e-16
-3.79445e-17
-1.06562e-18
-5.09618e-06
0.000398189
-9.60946e-06
0.000399536
-1.31123e-05
0.000390621
-8.64194e-06
0.000373852
-2.66915e-06
0.000202455
-7.79117e-07
6.1752e-05
-1.55149e-07
1.1298e-05
-2.44294e-09
1.17497e-06
-1.55089e-12
6.11768e-10
-2.51373e-12
1.71346e-12
-2.35906e-11
1.03725e-11
-2.52792e-11
4.00299e-11
-2.27137e-11
3.12433e-11
-1.04813e-12
4.76761e-12
-9.35167e-13
-9.44282e-14
-6.61608e-13
-6.48058e-13
-1.26733e-13
-5.24765e-13
-7.58697e-14
-1.13323e-13
-1.55451e-14
-1.1513e-13
-6.63878e-15
-1.12824e-14
-1.26831e-15
-7.49645e-15
-1.07965e-16
-1.28989e-15
-1.02166e-16
-3.47343e-18
-4.4143e-06
0.000402792
-8.22429e-06
0.000405134
-1.13403e-05
0.000400947
-1.30501e-05
0.000394105
-9.55589e-06
0.000373628
-2.58219e-06
0.00023357
-5.08612e-07
4.2711e-05
-3.57619e-08
2.74431e-06
-1.47239e-11
3.42553e-08
-1.40039e-12
8.65884e-12
-9.25044e-12
8.7983e-12
-1.58828e-11
1.55999e-11
-2.16644e-12
3.46926e-11
-1.92395e-12
4.69581e-12
-1.91812e-12
0
-1.36894e-12
-2.16379e-13
-4.08965e-13
-4.13888e-13
-2.4653e-13
-5.21525e-13
-1.95629e-14
-3.29474e-13
-9.43269e-15
-1.31659e-14
-2.32099e-15
-1.27704e-14
-2.38186e-16
-2.54832e-15
-2.47074e-16
-1.01402e-17
-3.52357e-06
0.000406439
-6.43527e-06
0.000408717
-8.74077e-06
0.000404696
-1.04514e-05
0.000399019
-1.14939e-05
0.000389909
-6.93311e-06
0.000368256
-1.33333e-06
0.000176711
-7.37782e-08
5.98356e-06
-1.21757e-09
2.20452e-07
-1.74273e-12
7.60354e-10
-7.12227e-12
8.94691e-12
-1.16428e-11
1.52744e-11
-1.57398e-10
2.08857e-10
-9.73432e-11
1.68091e-10
-1.04939e-12
7.99554e-12
-8.44183e-13
-2.01982e-13
-5.79207e-13
-3.65342e-13
-3.57848e-13
-5.20361e-13
-3.35512e-14
-4.48795e-13
-1.30944e-14
-2.5901e-14
-3.73687e-15
-1.90809e-14
-4.65943e-16
-4.44914e-15
-5.31474e-16
-2.60373e-17
-2.49343e-06
0.000408992
-4.39172e-06
0.000410825
-5.76115e-06
0.00040653
-6.7112e-06
0.000401124
-7.35689e-06
0.000394019
-7.32242e-06
0.000383114
-1.85316e-06
0.000317569
-1.30895e-07
2.63944e-05
-6.67232e-09
1.01074e-06
-4.1126e-12
6.31335e-09
-1.14449e-11
1.14333e-11
-5.05658e-11
4.61162e-11
-2.9463e-10
3.74886e-10
-2.36538e-10
2.75792e-10
-1.52347e-12
3.56021e-11
-8.39119e-13
-4.4011e-13
-5.20629e-13
-2.8918e-13
-3.75638e-13
-4.0441e-13
-5.80745e-14
-3.25782e-13
-1.79928e-14
-8.16936e-14
-5.32503e-15
-2.41208e-14
-7.99284e-16
-7.00236e-15
-1.00106e-15
-5.67804e-17
-1.36755e-06
0.000410384
-2.22162e-06
0.000411776
-2.61369e-06
0.000407188
-2.69986e-06
0.000401945
-2.60838e-06
0.000396178
-2.43789e-06
0.000386839
-1.07992e-06
0.000356184
-1.90069e-07
0.00013563
-1.18866e-08
3.92712e-06
-1.48859e-11
5.60314e-08
-2.64951e-11
1.86377e-11
-2.08346e-10
1.64855e-10
-2.89207e-10
5.73024e-10
-1.95277e-10
3.23397e-10
-6.79134e-12
4.10377e-11
-6.16346e-13
-6.20358e-12
-3.92196e-13
-3.22214e-13
-2.74382e-13
-2.22581e-13
-1.34361e-13
-2.54246e-13
-2.59855e-14
-2.29497e-13
-6.95257e-15
-3.0295e-14
-1.20237e-15
-1.02709e-14
-1.66773e-15
-1.0342e-16
-1.59685e-07
0.000410556
-1.10022e-08
0.000411676
5.73222e-07
0.000406724
1.35598e-06
0.000401484
2.18887e-06
0.000396291
2.78804e-06
0.000388993
2.42403e-06
0.0003708
4.59288e-07
0.000296773
0
1.54052e-05
-1.12181e-11
4.43368e-07
-2.18454e-11
2.30173e-11
-1.95874e-10
1.7233e-10
-2.08833e-10
6.51904e-10
-1.89965e-10
1.7977e-10
-5.32999e-11
2.63696e-11
-3.32288e-12
-1.24243e-11
-3.09175e-13
-3.23367e-12
-1.76238e-13
-2.96764e-13
-1.44084e-13
-2.36021e-13
-3.09696e-14
-2.43334e-13
-8.58865e-15
-4.36101e-14
-1.63544e-15
-1.44366e-14
-2.60822e-15
-1.63781e-16
1.16595e-06
0.000409396
2.20504e-06
0.000410656
3.75595e-06
0.000405214
5.4123e-06
0.000399967
7.00495e-06
0.00039511
8.19123e-06
0.000389623
7.95565e-06
0.000380022
4.51734e-06
0.000348824
0
7.92465e-05
1.22904e-08
2.23623e-06
-6.46959e-12
1.23109e-08
-7.73842e-11
1.65496e-10
-5.66412e-11
1.78709e-10
-6.05233e-11
1.87857e-10
-5.75023e-11
7.87608e-11
-2.13222e-11
-9.60839e-12
-9.07315e-13
-5.09561e-12
-2.11453e-13
-8.32629e-13
-1.22426e-13
-2.14653e-13
-3.75779e-14
-1.8222e-13
-1.03706e-14
-6.75382e-14
-2.1568e-15
-2.07817e-14
-4.30854e-15
-2.54837e-16
2.58339e-06
0.000406815
4.43675e-06
0.000408808
6.93463e-06
0.000402732
9.47796e-06
0.000397481
1.18764e-05
0.00039286
1.38478e-05
0.000388578
1.44279e-05
0.000382843
1.05499e-05
0.000363468
3.06491e-07
0.000246216
8.60931e-08
8.61487e-06
5.66367e-10
1.37215e-07
-2.46456e-11
6.75201e-10
-3.8818e-11
1.96535e-10
-2.60343e-10
4.19577e-10
-5.39807e-11
2.08604e-09
-5.50999e-11
-6.91025e-12
-4.90053e-12
-1.70139e-12
-4.90101e-13
-4.99231e-12
-1.07907e-13
-4.86814e-13
-4.07685e-14
-1.64658e-13
-1.27176e-14
-9.52005e-14
-3.08846e-15
-3.42615e-14
-8.71784e-15
-4.7211e-16
3.98963e-06
0.000402826
6.70305e-06
0.000406097
1.0135e-05
0.000399307
1.35693e-05
0.000394068
1.68064e-05
0.000389684
1.96375e-05
0.00038604
2.13316e-05
0.000382122
1.91546e-05
0.000372434
8.67462e-06
0.000337461
3.2887e-07
3.20792e-05
1.3543e-08
6.799e-07
-9.71366e-11
1.42439e-08
-5.70133e-10
8.82989e-10
-2.2117e-09
1.12565e-08
-7.33263e-11
9.92065e-09
-6.71946e-11
-4.11985e-12
-1.6384e-11
0
-1.5678e-12
-9.89824e-12
-1.6078e-13
-7.1518e-13
-4.76832e-14
-3.20784e-13
-1.75335e-14
-1.39915e-13
-5.24173e-15
-6.59445e-14
-2.27954e-14
-1.09301e-15
5.39747e-06
0.000397429
9.01942e-06
0.000402476
1.33852e-05
0.000394944
1.77199e-05
0.000389741
2.18131e-05
0.000385617
2.55039e-05
0.000382425
2.83278e-05
0.000379704
2.83529e-05
0.000375369
1.89474e-05
0.000354607
1.08189e-06
0.000114599
8.33143e-08
2.86337e-06
4.13361e-10
9.89452e-08
-1.08043e-09
3.54536e-09
-2.37115e-09
1.67563e-08
-9.43531e-11
1.21514e-08
-8.30557e-11
-3.87733e-13
-3.31504e-11
0
-5.5656e-12
-2.5723e-11
-5.18801e-13
-4.06847e-12
-8.44299e-14
-6.99256e-13
-2.83555e-14
-2.73602e-13
-9.64899e-15
-1.38823e-13
-6.13861e-14
-2.56057e-15
6.83596e-06
0.000390593
1.14062e-05
0.000397906
1.67132e-05
0.000389638
2.19629e-05
0.000384495
2.69312e-05
0.000380659
3.14951e-05
0.000377887
3.53659e-05
0.000375987
3.72108e-05
0.000373835
2.93558e-05
0.00036268
3.39625e-06
0.000268603
3.94604e-07
1.17338e-05
1.56907e-08
4.78847e-07
2.14738e-10
1.98447e-08
-2.24171e-10
1.24278e-08
-1.14276e-10
1.39316e-08
-7.37397e-11
4.14447e-12
-3.01264e-11
0
-8.15125e-12
-6.33835e-11
-1.00172e-12
-1.53723e-11
-1.49924e-13
-1.31259e-12
-4.38457e-14
-5.88872e-13
-1.43553e-14
-3.34791e-13
-1.50055e-13
-4.07909e-15
8.34931e-06
0.000382243
1.38933e-05
0.000392362
2.01525e-05
0.000383379
2.63362e-05
0.000378313
3.22087e-05
0.00037479
3.76862e-05
0.00037242
4.26079e-05
0.000371093
4.61902e-05
0.000370177
4.34284e-05
0.000366025
2.12128e-05
0.00033672
1.1607e-06
4.09113e-05
9.01931e-08
1.54448e-06
8.10522e-09
1.01268e-07
4.4272e-10
1.42553e-08
5.44263e-10
1.81374e-08
0
5.65237e-11
-4.9634e-12
-1.91983e-10
-1.79278e-12
-1.53106e-10
-1.8766e-13
-2.2026e-11
-8.16736e-15
-1.84179e-12
7.80646e-15
-1.36586e-12
7.05171e-15
-8.62882e-13
-3.78005e-13
2.45443e-15
9.99902e-06
0.000372245
1.65244e-05
0.000385837
2.3742e-05
0.000376162
3.08738e-05
0.000371182
3.76717e-05
0.000367994
4.40899e-05
0.000366002
5.00695e-05
0.000365103
5.52692e-05
0.000364932
5.70338e-05
0.000363194
4.30859e-05
0.000340963
2.69339e-06
9.80219e-05
2.94502e-07
3.90684e-06
2.93835e-08
3.55595e-07
0
3.49446e-08
2.3033e-09
2.35649e-08
0
4.93135e-10
3.97738e-11
-5.1013e-10
0
-1.60988e-10
3.81749e-13
-2.28795e-11
4.64255e-13
-4.77296e-12
4.21965e-13
-4.38315e-12
1.63506e-13
-2.32089e-12
-1.04218e-12
3.94079e-14
1.18717e-05
0.000360373
1.93692e-05
0.00037834
2.75397e-05
0.000367992
3.56221e-05
0.000363099
4.33465e-05
0.00036027
5.07e-05
0.00035865
5.77069e-05
0.000358091
6.41852e-05
0.000358337
6.88374e-05
0.000358042
6.15477e-05
0.000347879
5.5809e-06
0.000199849
8.65571e-07
1.00921e-05
8.46106e-08
1.09832e-06
3.07433e-11
1.03901e-07
1.84502e-09
2.90554e-08
0
1.4448e-09
0
-4.49098e-10
1.21465e-11
-1.29648e-10
3.77568e-12
-4.19909e-11
4.81508e-12
-2.09024e-11
2.96254e-12
-1.407e-11
9.84364e-13
-7.16155e-12
-2.99212e-12
2.1634e-13
1.40902e-05
0.000346283
2.25462e-05
0.000369884
3.16409e-05
0.000358897
4.0659e-05
0.000354081
4.92914e-05
0.000351638
5.75588e-05
0.000350383
6.55691e-05
0.000350081
7.33662e-05
0.000350518
8.05523e-05
0.000350858
8.1006e-05
0.000347301
2.14712e-05
0.000296394
2.41267e-06
3.03127e-05
2.84814e-07
3.1101e-06
0
3.76144e-07
0
5.17207e-08
7.33725e-11
3.85552e-09
1.88508e-10
-1.61779e-10
4.10398e-11
-2.23288e-10
4.0922e-11
-1.2138e-10
3.14479e-11
-6.56774e-11
1.55826e-11
-4.1598e-11
4.56162e-12
-2.08617e-11
-8.9131e-12
9.79686e-13
1.68035e-05
0.000329479
2.62342e-05
0.000360453
3.61912e-05
0.00034894
4.61001e-05
0.000344173
5.55883e-05
0.00034215
6.47127e-05
0.000341259
7.36867e-05
0.000341108
8.2764e-05
0.000341442
9.20927e-05
0.000341528
0.000100796
0.000338514
7.17972e-05
0.000298705
5.42156e-06
8.436e-05
9.60256e-07
7.05789e-06
1.19992e-07
1.10852e-06
1.04623e-08
1.51878e-07
2.65788e-09
1.37184e-08
6.62831e-10
-6.27288e-10
3.58708e-10
-6.18949e-10
2.55666e-10
-3.17136e-10
1.62117e-10
-1.77782e-10
7.05367e-11
-1.06448e-10
1.83767e-11
-5.65599e-11
-2.72499e-11
3.7816e-12
2.01792e-05
0.0003093
3.07168e-05
0.000349915
4.14207e-05
0.000338236
5.2115e-05
0.000333478
6.23392e-05
0.000331925
7.21749e-05
0.000331423
8.19508e-05
0.000331332
9.21193e-05
0.000331274
0.00010317
0.000330479
0.000115183
0.000326533
0.000109929
0.000303945
9.91191e-06
0.000143166
2.54328e-06
1.2885e-05
5.73258e-07
2.59652e-06
1.04403e-07
4.82114e-07
1.17424e-08
7.64421e-08
3.4627e-09
-5.06504e-10
1.87507e-09
-1.63631e-09
1.2514e-09
-8.82994e-10
7.31601e-10