/*--------------------------------*- C++ -*----------------------------------*\
  =========                 |
  \\      /  F ield         | OpenFOAM: The Open Source CFD Toolbox
   \\    /   O peration     | Website:  https://openfoam.org
    \\  /    A nd           | Version:  9
     \\/     M anipulation  |
\*---------------------------------------------------------------------------*/
FoamFile
{
    format      ascii;
    class       volScalarField;
    location    "0.3";
    object      epsilon;
}
// * * * * * * * * * * * * * * * * * * * * * * * * * * * * * * * * * * * * * //

dimensions      [0 2 -3 0 0 0 0];

internalField   nonuniform List<scalar> 
2268
(
0.0477443
0.155426
0.303425
0.454441
0.599584
0.748836
0.907658
1.07817
1.2591
1.44617
1.63247
1.80886
1.96423
2.08573
2.15896
2.16467
2.109
2.0019
1.83587
1.62225
1.37303
0.982084
0.642982
0.0583219
0.104354
0.167223
0.224718
0.278352
0.332002
0.388019
0.447547
0.510526
0.575834
0.641483
0.704807
0.76271
0.812064
0.850398
0.877141
0.907846
0.954998
1.02695
1.13524
1.259
1.13399
0.863283
0.0756868
0.108765
0.153018
0.193106
0.229848
0.265693
0.302434
0.341005
0.381515
0.423377
0.465456
0.50623
0.544021
0.577397
0.605892
0.631488
0.663521
0.715562
0.803733
0.949824
1.15354
1.2325
1.54937
0.0948285
0.119201
0.154491
0.186505
0.215896
0.244473
0.273632
0.304095
0.335958
0.368797
0.401789
0.433858
0.46389
0.491135
0.515906
0.540916
0.573957
0.627912
0.719389
0.869913
1.08889
1.31633
2.31339
0.111472
0.130822
0.159805
0.186208
0.210916
0.235326
0.260448
0.286765
0.314295
0.342667
0.371219
0.399122
0.425596
0.450282
0.47392
0.499533
0.534369
0.590806
0.685341
0.838987
1.06825
1.41765
3.00211
0.124922
0.141181
0.165322
0.187379
0.208678
0.230336
0.253013
0.276963
0.302104
0.328079
0.354325
0.380186
0.405114
0.429026
0.452925
0.479981
0.517152
0.57651
0.674794
0.834433
1.0826
1.55302
3.73869
0.135474
0.149229
0.169521
0.188233
0.207033
0.226821
0.24797
0.270538
0.294357
0.319073
0.344196
0.369202
0.393734
0.417915
0.442924
0.471975
0.511794
0.574216
0.676525
0.844108
1.12029
1.72483
4.58969
0.143327
0.154948
0.171982
0.188165
0.2052
0.223759
0.243987
0.265795
0.28895
0.313105
0.33783
0.362718
0.387569
0.412684
0.439355
0.470764
0.513375
0.578716
0.684565
0.859458
1.16523
1.9044
5.73096
0.151978
0.270292
0.392221
0.474184
0.527607
0.553041
0.542394
0.5089
0.462014
0.409871
0.359751
0.317977
0.28254
0.250615
0.220319
0.187848
0.0353199
0.0348381
0.0334704
0.148454
0.214217
0.242588
0.247883
0.247864
0.244672
0.233167
0.216288
0.197076
0.178053
0.160948
0.146857
0.13552
0.125642
0.116088
0.105013
0.0879494
0.0674056
0.0516457
0.266203
0.22996
0.231699
0.226085
0.218303
0.207781
0.192649
0.174998
0.157254
0.141217
0.127833
0.117404
0.109609
0.10341
0.0977574
0.0914037
0.0828815
0.0712428
0.0692384
0.39455
0.26862
0.254715
0.244129
0.231433
0.214469
0.193459
0.171196
0.150376
0.132646
0.118598
0.108192
0.100909
0.0956976
0.0915317
0.0873788
0.0822936
0.076241
0.0857351
0.540122
0.328578
0.301579
0.286128
0.2678
0.242235
0.212226
0.182204
0.155568
0.133897
0.117372
0.10561
0.0977273
0.0925377
0.0889764
0.0860947
0.0832053
0.0809645
0.100271
0.712363
0.416667
0.379459
0.356893
0.329183
0.290097
0.246036
0.204066
0.16855
0.140837
0.12043
0.106389
0.097211
0.0914712
0.088002
0.0858586
0.0845038
0.0851249
0.11311
0.930988
0.556415
0.515003
0.476236
0.4285
0.365263
0.298113
0.237588
0.18887
0.15247
0.126696
0.109478
0.0983932
0.0916479
0.0878878
0.0861021
0.0858302
0.0887095
0.124593
1.31272
0.851942
0.781503
0.69124
0.594249
0.483787
0.376655
0.286419
0.217786
0.16896
0.136024
0.114541
0.100903
0.0927231
0.0883464
0.0866135
0.0870817
0.0917842
0.134991
0.150986
0.159717
0.173157
0.18689
0.202274
0.21973
0.239198
0.260459
0.283233
0.307192
0.331985
0.357354
0.383315
0.410408
0.440073
0.475397
0.522397
0.591719
0.701105
0.881374
1.20516
1.91326
3.75607
0.159593
0.163636
0.172281
0.183454
0.19754
0.214454
0.233834
0.255316
0.278584
0.303344
0.329329
0.356425
0.384882
0.415488
0.44972
0.490166
0.541566
0.612123
0.716162
0.877945
1.14714
1.64616
2.66297
0.169499
0.169533
0.173533
0.182036
0.194896
0.211462
0.231006
0.253005
0.277118
0.303086
0.3307
0.35993
0.391171
0.425398
0.464064
0.509073
0.563611
0.633182
0.7273
0.862322
1.06643
1.39756
1.94874
0.184503
0.182026
0.180153
0.185204
0.196633
0.212758
0.232373
0.254835
0.279822
0.30715
0.336681
0.368436
0.402865
0.441035
0.484435
0.53449
0.593164
0.663675
0.751316
0.866629
1.02444
1.24905
1.5615
0.214399
0.205541
0.193787
0.194516
0.204452
0.219949
0.239412
0.262234
0.288176
0.317152
0.34915
0.384286
0.422985
0.466226
0.515679
0.573028
0.639965
0.718383
0.810538
0.920621
1.05573
1.22185
1.41819
0.28758
0.247246
0.219144
0.213795
0.221495
0.235772
0.254825
0.278109
0.305381
0.336577
0.371902
0.411759
0.456673
0.507357
0.565385
0.634339
0.717005
0.815243
0.930099
1.05947
1.1993
1.33854
1.46482
0.443861
0.319161
0.266714
0.249421
0.25223
0.263946
0.2821
0.305771
0.334435
0.367928
0.406811
0.452118
0.504691
0.56457
0.634647
0.720478
0.826233
0.955566
1.11142
1.29275
1.48021
1.62886
1.68389
0.644855
0.402569
0.326536
0.299059
0.286656
0.292384
0.30808
0.330702
0.359297
0.393477
0.433256
0.479504
0.534168
0.597928
0.674252
0.76553
0.873737
1.00223
1.15301
1.32514
1.51349
1.70506
1.85447
0.807118
0.471571
0.388691
0.333138
0.307403
0.30635
0.318664
0.338866
0.364846
0.395754
0.431244
0.471706
0.518877
0.575288
0.642634
0.721426
0.812485
0.918373
1.04294
1.19067
1.36436
1.55744
1.76117
0.816296
0.439559
0.378313
0.330812
0.310384
0.310804
0.323852
0.34439
0.369874
0.399158
0.431875
0.468416
0.510139
0.559113
0.617128
0.685244
0.764721
0.85804
0.969375
1.10511
1.27378
1.47925
1.69866
0.742316
0.379149
0.327234
0.304052
0.298194
0.30555
0.322026
0.344382
0.370575
0.399537
0.430967
0.465294
0.503702
0.547985
0.60013
0.662105
0.736295
0.826105
0.936439
1.07414
1.2478
1.46165
1.69545
0.733523
0.348819
0.290581
0.277489
0.280894
0.294165
0.314105
0.338448
0.365618
0.394707
0.425457
0.458287
0.494301
0.53524
0.583362
0.641451
0.713135
0.803305
0.918434
1.06654
1.25602
1.48918
1.7448
0.752731
0.335769
0.269195
0.258115
0.265114
0.281211
0.302859
0.327971
0.355155
0.383581
0.412994
0.443766
0.476936
0.514246
0.558189
0.612175
0.680856
0.770508
0.88922
1.04645
1.25104
1.50445
1.78489
0.780709
0.329471
0.25662
0.244749
0.252182
0.268657
0.290175
0.31456
0.340424
0.366939
0.393822
0.421383
0.450602
0.483219
0.521878
0.570356
0.633912
0.719631
0.836533
0.994868
1.20374
1.4649
1.75936
0.806177
0.324686
0.248429
0.235212
0.241718
0.257159
0.277274
0.299772
0.323223
0.34677
0.370091
0.393445
0.417765
0.444777
0.477172
0.518845
0.575205
0.653482
0.762784
0.913306
1.11394
1.36739
1.66154
0.823299
0.319565
0.242146
0.227785
0.232944
0.246723
0.264765
0.284726
0.305145
0.325143
0.344373
0.363064
0.382119
0.403234
0.429057
0.463389
0.511438
0.580097
0.678025
0.815
0.99994
1.23769
1.52649
0.82971
0.313596
0.236342
0.221228
0.225058
0.237017
0.252772
0.269991
0.287218
0.303578
0.31872
0.332867
0.346901
0.362467
0.382096
0.409353
0.449045
0.507503
0.592805
0.714534
0.882592
1.10546
1.39246
0.82426
0.306388
0.23008
0.214643
0.217339
0.227572
0.241115
0.255703
0.269924
0.282926
0.294383
0.304523
0.314204
0.324996
0.339256
0.360241
0.392283
0.441122
0.51435
0.621707
0.774846
0.986436
1.27401
0.803928
0.296007
0.222359
0.207251
0.209176
0.217947
0.229535
0.241787
0.253374
0.26351
0.271904
0.27879
0.284986
0.291959
0.30186
0.31761
0.343073
0.383458
0.445961
0.540581
0.680734
0.882699
1.16845
0.770987
0.282664
0.21303
0.198732
0.200186
0.207775
0.217726
0.228038
0.237486
0.245353
0.251385
0.255818
0.259421
0.263528
0.270072
0.281636
0.301658
0.334907
0.388157
0.471454
0.599386
0.790723
1.06944
0.728414
0.267005
0.202288
0.189094
0.190288
0.19693
0.205546
0.214309
0.222104
0.228284
0.232624
0.235345
0.237147
0.239232
0.243324
0.25172
0.26747
0.294816
0.340079
0.413062
0.528634
0.706863
0.971734
0.679491
0.249869
0.19053
0.178557
0.179601
0.185465
0.192995
0.200543
0.207109
0.212108
0.215335
0.216978
0.217655
0.218423
0.220801
0.226818
0.239171
0.261653
0.300009
0.363386
0.466078
0.628073
0.871994
0.627525
0.232165
0.178261
0.167472
0.168386
0.173569
0.180192
0.186785
0.192456
0.196677
0.19925
0.200324
0.200422
0.200454
0.201736
0.206033
0.215699
0.234041
0.266102
0.319997
0.408697
0.55105
0.768705
0.575562
0.21477
0.166021
0.156256
0.156988
0.161527
0.167355
0.173173
0.178188
0.181921
0.184178
0.185061
0.184996
0.184749
0.185438
0.188572
0.196161
0.211014
0.237381
0.282125
0.35639
0.477038
0.664618
0.526142
0.198438
0.154316
0.145337
0.145788
0.149675
0.154766
0.159918
0.164428
0.167862
0.170023
0.170968
0.17103
0.170837
0.17132
0.173746
0.179791
0.19177
0.213131
0.249396
0.309626
0.408042
0.563368
0.481152
0.183743
0.143574
0.135104
0.135154
0.138356
0.142731
0.147273
0.15136
0.154595
0.15678
0.157929
0.158292
0.158367
0.158918
0.160985
0.165937
0.175627
0.192743
0.221514
0.268883
0.346067
0.468977
0.441794
0.171065
0.134115
0.125877
0.125407
0.127882
0.131541
0.135495
0.13919
0.142263
0.144513
0.145919
0.146655
0.147109
0.147892
0.149845
0.154064
0.161994
0.175655
0.198123
0.234392
0.292661
0.385292
0.408659
0.16061
0.126148
0.117886
0.116792
0.118504
0.121443
0.124815
0.128121
0.131025
0.133327
0.134975
0.136081
0.136936
0.138022
0.140007
0.143757
0.150377
0.161337
0.178762
0.205997
0.248549
0.315084
0.381917
0.152464
0.11979
0.111273
0.109471
0.110399
0.11262
0.115411
0.118318
0.121026
0.123336
0.125169
0.126588
0.127805
0.12919
0.131269
0.134721
0.140383
0.149299
0.162866
0.183154
0.2135
0.259324
0.361549
0.146664
0.115094
0.106104
0.103525
0.103661
0.105176
0.107396
0.109896
0.112376
0.114635
0.116579
0.118227
0.119726
0.121357
0.123529
0.126772
0.131722
0.139117
0.149836
0.165038
0.186477
0.217074
0.347617
0.143277
0.112086
0.102389
0.0989643
0.0983099
0.0991431
0.100813
0.102906
0.105131
0.107287
0.109264
0.111048
0.112735
0.114531
0.116754
0.119817
0.124208
0.130458
0.139109
0.150723
0.165996
0.186113
0.340524
0.142466
0.110789
0.100098
0.0957467
0.0943058
0.0944906
0.0956413
0.0973412
0.0992982
0.101309
0.10325
0.105085
0.106867
0.108745
0.110958
0.113831
0.117746
0.123097
0.130227
0.139349
0.150512
0.163794
0.341256
0.144536
0.111246
0.099176
0.0937888
0.0915638
0.0911406
0.0918142
0.0931458
0.094835
0.096673
0.0985287
0.100346
0.102145
0.104027
0.106172
0.10883
0.112306
0.116907
0.122869
0.130229
0.138697
0.147695
0.351621
0.149942
0.113498
0.0995386
0.0929747
0.0899672
0.0889837
0.0892311
0.0902299
0.0916639
0.0933186
0.0950561
0.0968066
0.0985658
0.100396
0.102425
0.104846
0.1079
0.111838
0.116843
0.122889
0.129549
0.135909
0.374533
0.159259
0.11754
0.101045
0.0931497
0.0893736
0.0878905
0.0877724
0.0884823
0.0896835
0.0911563
0.0927599
0.0944157
0.0961006
0.0978456
0.0997365
0.101914
0.104565
0.107896
0.112068
0.117052
0.122408
0.127106
0.414498
0.173059
0.123207
0.103447
0.094105
0.089615
0.0877183
0.0873085
0.0877806
0.0887776
0.0900784
0.091544
0.093093
0.09469
0.0963417
0.0980975
0.100051
0.102338
0.105124
0.108547
0.112604
0.116909
0.120452
0.4785
0.19164
0.130011
0.10633
0.0955583
0.0904955
0.0883143
0.0877048
0.0879963
0.0888202
0.0899614
0.0912901
0.0927287
0.0942369
0.0958051
0.0974536
0.099234
0.101233
0.103564
0.106338
0.109562
0.112927
0.115518
0.577034
0.214477
0.136917
0.109057
0.0971538
0.0917983
0.0895202
0.0888224
0.0889942
0.0896735
0.0906638
0.0918527
0.0931745
0.0945923
0.0960901
0.0976694
0.09935
0.101172
0.103196
0.105481
0.108015
0.110528
0.112209
0.724392
0.239169
0.142105
0.110787
0.0985074
0.0933171
0.091188
0.0905256
0.0906345
0.0911886
0.0920251
0.0930579
0.09424
0.0955463
0.096965
0.0984934
0.100136
0.101902
0.103807
0.105852
0.107968
0.109855
0.110716
0.939454
0.259342
0.142802
0.110615
0.0993179
0.0949156
0.0932083
0.0926962
0.0927843
0.093218
0.0938818
0.0947216
0.0957131
0.096848
0.0981277
0.099559
0.101151
0.102912
0.104844
0.10692
0.109025
0.110787
0.111285
1.25371
0.260102
0.135452
0.107901
0.0995207
0.0965748
0.0955163
0.0952274
0.0953104
0.0956113
0.0960683
0.096658
0.0973762
0.09823
0.0992344
0.100411
0.101786
0.103391
0.105257
0.107399
0.10975
0.111987
0.113125
1.74288
0.207986
0.117282
0.103028
0.0995019
0.0984222
0.0980723
0.0979962
0.0980515
0.0981889
0.0983917
0.0986572
0.0989901
0.0994005
0.0999038
0.100521
0.101281
0.102224
0.103402
0.104891
0.106767
0.109033
0.111276
8.09046
6.54607
4.84777
3.42946
3.62667
3.86026
3.83349
3.71353
2.34857
2.59496
2.72117
2.76483
1.78119
1.95351
2.09156
2.18376
1.55338
1.66311
1.76695
1.85814
1.54461
1.60958
1.67707
1.74587
1.71315
1.74412
1.785
1.83383
1.91347
1.95769
2.01344
2.07578
1.86966
1.94933
2.03929
2.15303
1.82014
1.91129
2.00614
2.11265
1.83354
1.93796
2.0389
2.14204
1.90032
2.02027
2.13342
2.24165
1.96286
2.10583
2.24592
2.38297
1.9593
2.1308
2.31398
2.51199
1.88245
2.08745
2.3295
2.62146
1.77312
2.01718
2.32925
2.73702
1.66867
1.947
2.31746
2.82345
1.57259
1.86247
2.24993
2.7895
1.47589
1.75174
2.11307
2.61754
1.37478
1.6237
1.93767
2.36553
1.26652
1.48889
1.75551
2.0978
1.14807
1.35028
1.58132
1.86066
1.0206
1.2024
1.40235
1.62932
0.88787
1.04915
1.22309
1.40965
0.754056
0.894164
1.04641
1.20635
0.624225
0.741473
0.872841
1.01391
0.504509
0.5972
0.705326
0.826844
0.400951
0.469217
0.551855
0.649151
0.317464
0.364225
0.422392
0.493341
0.25439
0.284452
0.32256
0.370194
0.209042
0.2274
0.251067
0.281294
0.177397
0.188125
0.202264
0.220843
0.155536
0.161527
0.169691
0.180915
0.140319
0.143467
0.147988
0.154677
0.129511
0.130987
0.133314
0.137219
0.121652
0.122138
0.123136
0.12531
0.115889
0.115735
0.115879
0.116925
0.111843
0.111165
0.110653
0.11086
0.109563
0.108322
0.107137
0.106538
0.109468
0.107629
0.105659
0.104103
0.111567
0.109623
0.107194
0.104765
0.111656
0.111044
0.109753
0.108039
2.17762
1.87511
1.63011
1.28778
1.00371
0.751136
0.5436
0.386093
0.275187
0.201528
0.154766
0.125087
0.106566
0.0955572
0.0897698
0.0877112
0.0889032
0.0959365
0.149917
3.21419
2.84681
3.0737
3.08794
2.4066
1.61323
1.04368
0.662531
0.423796
0.282363
0.199133
0.149588
0.120002
0.102761
0.0935896
0.0899776
0.0911095
0.100079
0.166682
2.72649
2.73304
2.8845
3.3128
3.69939
3.28387
2.17449
1.28665
0.740805
0.44032
0.279034
0.191096
0.142069
0.114704
0.100034
0.0935759
0.0936982
0.103761
0.182284
2.26252
2.32945
2.49078
2.82647
3.34622
3.82296
3.60248
2.46465
1.39378
0.756582
0.427925
0.262671
0.177903
0.133544
0.110109
0.0990913
0.0971411
0.107472
0.197408
1.98499
2.07014
2.18907
2.43181
2.8423
3.37739
3.78824
3.53687
2.41699
1.33273
0.701268
0.387318
0.236561
0.162724
0.125192
0.107183
0.101881
0.111649
0.212881
1.86365
1.95826
2.04989
2.20984
2.50311
2.93887
3.43262
3.69055
3.23974
2.12481
1.14664
0.597044
0.332977
0.207521
0.147093
0.118533
0.108277
0.116607
0.229279
1.92573
2.00738
2.07089
2.16204
2.3471
2.66603
3.08791
3.47037
3.47104
2.77287
1.7203
0.918709
0.481907
0.273824
0.177714
0.133709
0.116535
0.122494
0.246783
2.16616
2.23474
2.26341
2.27872
2.35674
2.55449
2.8738
3.23306
3.41174
3.06964
2.2038
1.29064
0.679612
0.363813
0.217981
0.152864
0.126614
0.129287
0.265319
2.36067
2.52456
2.59118
2.52068
2.49028
2.56966
2.7799
3.06996
3.28947
3.15272
2.50409
1.61816
0.893211
0.470122
0.266158
0.175309
0.13813
0.136776
0.284568
2.32233
2.57493
2.80746
2.7869
2.68065
2.65928
2.76962
2.98288
3.18673
3.14437
2.65876
1.86054
1.08877
0.579509
0.317924
0.199427
0.150336
0.144571
0.303988
2.33336
2.58397
2.93364
3.01966
2.87234
2.77718
2.80453
2.94561
3.11151
3.10552
2.73002
2.02462
1.24855
0.67937
0.367787
0.222997
0.162237
0.152165
0.322896
2.43183
2.66441
3.03388
3.20191
3.04574
2.89728
2.85774
2.93539
3.05791
3.0598
2.75733
2.12995
1.36732
0.760446
0.410479
0.243692
0.172796
0.159028
0.340616
2.6199
2.86316
3.17442
3.36207
3.20815
3.0124
2.91541
2.93922
3.02199
3.01989
2.76497
2.19316
1.44479
0.8169
0.442001
0.259643
0.181174
0.164722
0.356537
2.8876
3.20197
3.43469
3.55204
3.3733
3.1185
2.96979
2.94928
3.00099
2.9948
2.7684
2.22363
1.48189
0.846482
0.460522
0.269931
0.186936
0.168987
0.370206
3.23248
3.71511
3.84083
3.78782
3.52838
3.2129
3.01886
2.96244
2.99441
2.99204
2.77351
2.22347
1.48176
0.851464
0.46699
0.274862
0.190148
0.171774
0.381348
3.6531
4.45244
4.4299
4.09201
3.68983
3.31284
3.07598
2.98533
3.00054
3.00547
2.76993
2.19282
1.4532
0.839118
0.464966
0.27582
0.191288
0.173201
0.389827
4.00629
5.33648
5.24557
4.52812
3.90948
3.45316
3.17266
3.03868
3.01252
2.99311
2.72726
2.13337
1.40922
0.819365
0.459278
0.274682
0.191014
0.173453
0.395556
4.08244
6.18436
6.32662
5.17442
4.25544
3.65704
3.32796
3.15709
3.03867
2.93075
2.63003
2.05279
1.36401
0.802095
0.454518
0.273144
0.18988
0.172676
0.398399
3.84979
6.66994
7.73745
6.12371
4.77613
3.92977
3.49464
3.32395
3.10178
2.87349
2.53134
1.98598
1.33785
0.796957
0.454189
0.272213
0.188126
0.17089
0.398108
3.40908
6.41825
8.96128
7.26665
5.43777
4.2731
3.62976
3.35443
3.16366
2.88287
2.50292
1.97826
1.35178
0.810571
0.459412
0.271731
0.185524
0.167973
0.394343
2.88395
5.47555
9.46293
8.57279
6.21774
4.6941
3.8044
3.36374
3.16528
2.91821
2.54361
2.04166
1.40852
0.839794
0.467044
0.270004
0.181387
0.163706
0.386795
2.42409
4.2865
7.97907
9.70409
7.15405
5.1953
4.04506
3.43104
3.13967
2.93582
2.6212
2.14706
1.48408
0.86903
0.469541
0.264175
0.174832
0.157929
0.375388
2.03852
3.32302
5.89107
9.36825
8.01316
5.71608
4.32295
3.54599
3.15308
2.95976
2.70651
2.24076
1.53306
0.874126
0.457593
0.251509
0.16531
0.150731
0.360476
1.70787
2.54606
4.23331
6.88324
8.13414
6.26577
4.61462
3.68152
3.19222
2.98564
2.77881
2.28632
1.52091
0.83722
0.425733
0.231179
0.153113
0.14259
0.342886
1.4391
1.97749
2.98844
4.72527
6.77157
6.49689
4.87373
3.80283
3.22295
2.97401
2.79114
2.26296
1.43598
0.755985
0.375784
0.205055
0.139456
0.134303
0.32376
1.21393
1.59836
2.17539
3.15647
4.58533
5.54918
4.97987
3.89256
3.22998
2.91807
2.7157
2.1379
1.27625
0.640151
0.315448
0.176922
0.1261
0.12681
0.304268
1.00485
1.32769
1.7104
2.21935
2.97688
3.89684
4.22709
3.72102
3.13121
2.80214
2.55219
1.91404
1.06525
0.513276
0.256106
0.15117
0.114804
0.121362
0.286815
0.799441
1.08347
1.40867
1.7535
2.14759
2.64114
3.0682
3.08791
2.83046
2.58694
2.28455
1.59821
0.837252
0.400319
0.207982
0.131522
0.106936
0.118393
0.272726
0.608143
0.836434
1.11612
1.42102
1.72529
2.02156
2.31071
2.46419
2.42766
2.25206
1.87676
1.20879
0.618624
0.306124
0.170883
0.117563
0.102177
0.117176
0.261363
0.449861
0.611861
0.818854
1.06097
1.31924
1.56638
1.78325
1.91605
1.91345
1.73978
1.35472
0.832225
0.437141
0.233452
0.143825
0.10837
0.0998696
0.117041
0.252153
0.333125
0.438143
0.571715
0.730636
0.907091
1.09118
1.25096
1.34261
1.325
1.16773
0.873841
0.540383
0.305179
0.181628
0.125149
0.102735
0.0991798
0.117405
0.24461
0.253533
0.318778
0.398878
0.491864
0.595025
0.705817
0.799852
0.848968
0.82533
0.714278
0.533969
0.348255
0.218417
0.146981
0.112791
0.0994186
0.0992937
0.117804
0.238349
0.201374
0.241655
0.288617
0.340351
0.396672
0.453599
0.498845
0.51764
0.49591
0.428827
0.330756
0.234169
0.164988
0.124751
0.104721
0.0973694
0.0995658
0.117924
0.23309
0.167539
0.192794
0.220588
0.249046
0.278564
0.305236
0.323538
0.326832
0.309477
0.270933
0.219466
0.169839
0.133091
0.11065
0.0992819
0.0958378
0.0995854
0.117604
0.228637
0.145366
0.161605
0.178483
0.194556
0.209393
0.220877
0.226514
0.223652
0.21053
0.187915
0.160194
0.133945
0.114023
0.101498
0.095325
0.0943865
0.0991671
0.116819
0.224864
0.130479
0.141201
0.151713
0.160948
0.168172
0.172412
0.172631
0.167942
0.15809
0.144028
0.128132
0.113456
0.102253
0.0952315
0.0921606
0.0928278
0.0982962
0.115634
0.221693
0.120127
0.127348
0.134072
0.139347
0.142624
0.143493
0.141589
0.13675
0.129221
0.119835
0.109969
0.101169
0.0945688
0.0906375
0.0894336
0.0911352
0.097061
0.114163
0.219072
0.11261
0.117419
0.121719
0.12462
0.125827
0.125184
0.122607
0.11819
0.1123
0.105603
0.0989735
0.0932932
0.0892094
0.0870549
0.0869924
0.0893651
0.0955923
0.112532
0.216962
0.106937
0.109755
0.112268
0.113653
0.113777
0.112557
0.109976
0.106181
0.101518
0.0965089
0.0917648
0.0878612
0.0852293
0.084137
0.0847897
0.0876013
0.0940239
0.110861
0.215322
0.102848
0.103312
0.104115
0.104385
0.103974
0.102699
0.10048
0.0974216
0.0938006
0.090023
0.0865452
0.0837911
0.082093
0.0816926
0.0828203
0.0859252
0.0924658
0.109235
0.214093
0.101484
0.0975441
0.0961923
0.0955564
0.0949466
0.0938972
0.0922254
0.0899711
0.0873361
0.0846268
0.0821916
0.0803616
0.0794142
0.0795784
0.0811
0.0844481
0.0910828
0.107823
0.213235
0.104997
0.092659
0.0891953
0.0879799
0.0872837
0.0863896
0.0850934
0.0834205
0.0815272
0.0796476
0.0780489
0.0769916
0.0767072
0.0774058
0.0793314
0.0829505
0.0897001
0.106484
0.212467
)
;

boundaryField
{
    leftWall
    {
        type            epsilonWallFunction;
        value           nonuniform List<scalar> 
50
(
0.0477443
0.0583219
0.0756868
0.0948285
0.111472
0.124922
0.135474
0.143327
0.150986
0.159593
0.169499
0.184503
0.214399
0.28758
0.443861
0.644855
0.807118
0.816296
0.742316
0.733523
0.752731
0.780709
0.806177
0.823299
0.82971
0.82426
0.803928
0.770987
0.728414
0.679491
0.627525
0.575562
0.526142
0.481152
0.441794
0.408659
0.381917
0.361549
0.347617
0.340524
0.341256
0.351621
0.374533
0.414498
0.4785
0.577034
0.724392
0.939454
1.25371
1.74288
)
;
    }
    rightWall
    {
        type            epsilonWallFunction;
        value           nonuniform List<scalar> 
50
(
0.0334704
0.0516457
0.0692384
0.0857351
0.100271
0.11311
0.124593
0.134991
0.149917
0.166682
0.182284
0.197408
0.212881
0.229279
0.246783
0.265319
0.284568
0.303988
0.322896
0.340616
0.356537
0.370206
0.381348
0.389827
0.395556
0.398399
0.398108
0.394343
0.386795
0.375388
0.360476
0.342886
0.32376
0.304268
0.286815
0.272726
0.261363
0.252153
0.24461
0.238349
0.23309
0.228637
0.224864
0.221693
0.219072
0.216962
0.215322
0.214093
0.213235
0.212467
)
;
    }
    lowerWall
    {
        type            epsilonWallFunction;
        value           nonuniform List<scalar> 
62
(
0.0477443
0.155426
0.303425
0.454441
0.599584
0.748836
0.907658
1.07817
1.2591
1.44617
1.63247
1.80886
1.96423
2.08573
2.15896
2.16467
2.109
2.0019
1.83587
1.62225
1.37303
0.982084
0.642982
0.642982
0.863283
1.54937
2.31339
3.00211
3.73869
4.58969
5.73096
8.09046
6.54607
4.84777
3.42946
0.151978
0.148454
0.266203
0.39455
0.540122
0.712363
0.930988
1.31272
0.151978
0.270292
0.392221
0.474184
0.527607
0.553041
0.542394
0.5089
0.462014
0.409871
0.359751
0.317977
0.28254
0.250615
0.220319
0.187848
0.0353199
0.0348381
0.0334704
)
;
    }
    atmosphere
    {
        type            inletOutlet;
        inletValue      uniform 0.1;
        value           nonuniform List<scalar> 
46
(
0.1
0.1
0.1
0.1
0.1
0.1
0.1
0.1
0.1
0.1
0.1
0.1
0.1
0.1
0.1
0.1
0.1
0.1
0.1
0.1
0.1
0.1
0.1
0.1
0.1
0.1
0.1
0.1
0.092659
0.0891953
0.0879799
0.0872837
0.0863896
0.0850934
0.0834205
0.0815272
0.0796476
0.0780489
0.0769916
0.0767072
0.0774058
0.0793314
0.0829505
0.0897001
0.106484
0.212467
)
;
    }
    defaultFaces
    {
        type            empty;
    }
}


// ************************************************************************* //
