/*--------------------------------*- C++ -*----------------------------------*\
  =========                 |
  \\      /  F ield         | OpenFOAM: The Open Source CFD Toolbox
   \\    /   O peration     | Website:  https://openfoam.org
    \\  /    A nd           | Version:  9
     \\/     M anipulation  |
\*---------------------------------------------------------------------------*/
FoamFile
{
    format      ascii;
    class       volScalarField;
    location    "0.3";
    object      k;
}
// * * * * * * * * * * * * * * * * * * * * * * * * * * * * * * * * * * * * * //

dimensions      [0 2 -2 0 0 0 0];

internalField   nonuniform List<scalar> 
2268
(
0.00614295
0.0110034
0.017208
0.0225352
0.0271259
0.0314619
0.0357595
0.0400917
0.0444346
0.0487017
0.0527648
0.0564671
0.0596288
0.0620462
0.0634855
0.0636026
0.0625301
0.0604098
0.0570314
0.0525222
0.0469734
0.0376281
0.028333
0.00943382
0.023408
0.035933
0.0462262
0.0552716
0.0637397
0.0719909
0.080161
0.0882137
0.0960015
0.103311
0.109891
0.115481
0.119832
0.12275
0.124114
0.1236
0.121774
0.119574
0.118312
0.11733
0.105358
0.0567346
0.0111955
0.0297353
0.0442695
0.0567945
0.0680407
0.0786106
0.0888629
0.0989294
0.108767
0.118216
0.127049
0.135006
0.141824
0.147284
0.151274
0.153861
0.155162
0.155709
0.156076
0.156924
0.157315
0.145676
0.0836772
0.0130058
0.033918
0.0497222
0.0635554
0.0762021
0.0881811
0.0997927
0.111135
0.122151
0.13268
0.142502
0.15137
0.159051
0.165376
0.170323
0.174115
0.177182
0.180253
0.183696
0.187189
0.188397
0.178187
0.109416
0.014495
0.0371887
0.0537966
0.0684588
0.0820903
0.0951288
0.107791
0.120125
0.132053
0.143416
0.15401
0.163614
0.172036
0.179166
0.185068
0.190085
0.194839
0.200229
0.20661
0.213083
0.215992
0.208058
0.130155
0.0156472
0.039772
0.0569462
0.0721888
0.0865617
0.100439
0.113955
0.127102
0.139783
0.151843
0.163094
0.173351
0.182468
0.190396
0.197275
0.203531
0.209906
0.21741
0.226501
0.236131
0.241999
0.237898
0.150608
0.0165264
0.0417242
0.0593518
0.0750693
0.090051
0.104624
0.118851
0.132682
0.146002
0.158662
0.170497
0.181356
0.191143
0.199873
0.207743
0.215236
0.223157
0.232576
0.244121
0.256909
0.266978
0.269115
0.172613
0.0171672
0.0431293
0.0611373
0.0772973
0.0928216
0.107995
0.12283
0.137243
0.151112
0.164298
0.176658
0.188079
0.198518
0.208047
0.216911
0.225616
0.234987
0.246118
0.259807
0.275491
0.290485
0.301488
0.200142
0.0106887
0.015973
0.0204817
0.0232745
0.0250428
0.0258629
0.0255491
0.0244973
0.0229656
0.0211857
0.0194056
0.0178554
0.0164712
0.0151734
0.0139061
0.0124873
0.0109705
0.01064
0.00793082
0.0189186
0.0374375
0.0445629
0.0493057
0.0521859
0.053145
0.0525361
0.0507171
0.0480361
0.0448602
0.0415208
0.0383243
0.0354374
0.0327786
0.0301137
0.027128
0.0233224
0.017908
0.00929918
0.0279317
0.0521685
0.0604533
0.0654462
0.0680295
0.0685531
0.0673708
0.0648309
0.0613253
0.0572699
0.0530392
0.0489615
0.0452634
0.0418697
0.0385159
0.0347969
0.0300766
0.0232801
0.0113073
0.0362784
0.0652237
0.074161
0.0790793
0.0811671
0.0810003
0.0790397
0.075682
0.0713605
0.0665112
0.0615179
0.0567224
0.0523652
0.0483775
0.0444896
0.0402487
0.0349386
0.0272961
0.013048
0.0446722
0.0783162
0.0877796
0.0925314
0.0940091
0.0928878
0.0898706
0.0854838
0.0802186
0.074515
0.0687405
0.0632509
0.0582613
0.0537048
0.0493165
0.044617
0.0388292
0.0305193
0.0144954
0.0536353
0.0923135
0.102762
0.107287
0.107851
0.105351
0.100848
0.0950989
0.0886672
0.0819727
0.0753418
0.0691344
0.0634965
0.0583585
0.0534642
0.0483187
0.0420942
0.0332026
0.0157195
0.0639513
0.108551
0.121471
0.1254
0.124239
0.119485
0.112737
0.105082
0.0971358
0.089236
0.0816438
0.074662
0.0683372
0.0625881
0.0571667
0.0515667
0.0449165
0.0354918
0.0167785
0.0801339
0.133541
0.14929
0.150797
0.145697
0.136856
0.126451
0.115959
0.105943
0.0965223
0.0878424
0.0799974
0.0729333
0.0665352
0.0605631
0.0544934
0.0474152
0.0374875
0.0177134
0.0177831
0.0443459
0.0628111
0.0796183
0.0959066
0.111895
0.127539
0.142726
0.157331
0.171235
0.184333
0.196573
0.207994
0.218762
0.229201
0.239847
0.251496
0.265056
0.281509
0.300782
0.321901
0.340913
0.279755
0.0184633
0.0451631
0.064129
0.0817721
0.0989811
0.115874
0.132362
0.148329
0.163673
0.178316
0.192205
0.205355
0.217902
0.23012
0.242381
0.255137
0.268947
0.2843
0.301779
0.321173
0.341091
0.356853
0.342817
0.0192375
0.0457406
0.0651853
0.0836654
0.101761
0.119462
0.136643
0.153208
0.169105
0.18431
0.19882
0.212701
0.226157
0.23954
0.253246
0.267595
0.282876
0.299265
0.316696
0.334873
0.352303
0.366139
0.36821
0.020412
0.0463015
0.0662903
0.0858452
0.104996
0.123514
0.141284
0.158298
0.174598
0.190241
0.205285
0.219835
0.234122
0.248531
0.263476
0.279186
0.295766
0.313153
0.330917
0.348667
0.365086
0.378201
0.384469
0.02276
0.0467251
0.0675952
0.0889822
0.109567
0.128928
0.147171
0.164509
0.18113
0.197191
0.212825
0.228184
0.243488
0.259066
0.275348
0.292636
0.311043
0.330404
0.350103
0.369169
0.386446
0.39987
0.407097
0.02814
0.0481204
0.070893
0.0950022
0.117102
0.137102
0.155647
0.173243
0.190206
0.206764
0.223152
0.239619
0.256393
0.273652
0.291695
0.311294
0.332791
0.356018
0.380286
0.403898
0.424436
0.438392
0.443111
0.0378824
0.0549565
0.0811387
0.107014
0.129637
0.149672
0.168219
0.185917
0.203112
0.220063
0.237157
0.254836
0.273361
0.292612
0.313168
0.33614
0.361999
0.390796
0.42209
0.454431
0.483134
0.499851
0.496082
0.0481012
0.0756529
0.102302
0.125581
0.144236
0.162591
0.180265
0.197374
0.214219
0.231033
0.248034
0.265614
0.28436
0.304294
0.326139
0.350085
0.376085
0.404292
0.434336
0.465112
0.494766
0.520241
0.5339
0.0554605
0.103273
0.128307
0.14214
0.155813
0.171378
0.187391
0.203192
0.218731
0.234115
0.249471
0.265066
0.281497
0.299446
0.319167
0.340423
0.362991
0.387001
0.412713
0.440308
0.469452
0.498028
0.523903
0.0547699
0.105821
0.134215
0.148915
0.162831
0.177846
0.193287
0.208507
0.223271
0.237586
0.25159
0.265575
0.280056
0.295654
0.312732
0.331258
0.35111
0.372351
0.395303
0.420612
0.44918
0.480863
0.511143
0.0515769
0.0991523
0.128833
0.148402
0.165081
0.181078
0.196713
0.211796
0.226176
0.239853
0.25298
0.265868
0.278988
0.292892
0.30802
0.324588
0.342687
0.362448
0.384166
0.40843
0.436129
0.467417
0.498796
0.0513386
0.0953614
0.124691
0.146307
0.164677
0.181568
0.197539
0.212643
0.226829
0.240118
0.25266
0.264758
0.276854
0.289473
0.303111
0.318157
0.334913
0.353663
0.374758
0.398676
0.425966
0.456421
0.487029
0.0522768
0.0947584
0.122985
0.144676
0.163378
0.180454
0.196386
0.211271
0.225093
0.237881
0.249773
0.261049
0.27212
0.283491
0.295693
0.309227
0.324546
0.342076
0.362224
0.385355
0.411658
0.440531
0.469271
0.0535379
0.0956152
0.122653
0.143577
0.161783
0.178421
0.193856
0.208153
0.221291
0.23329
0.244272
0.254489
0.264325
0.27427
0.284873
0.296694
0.310272
0.326099
0.344575
0.365908
0.389947
0.415827
0.441328
0.0546349
0.0968416
0.122793
0.142708
0.160055
0.175883
0.190484
0.203883
0.216043
0.22697
0.23677
0.245677
0.254055
0.262386
0.271227
0.281167
0.292772
0.306535
0.322794
0.341594
0.362518
0.384591
0.406362
0.0553301
0.0977673
0.122812
0.141767
0.158173
0.173044
0.186637
0.198957
0.209958
0.219637
0.22809
0.235542
0.242351
0.248997
0.256046
0.264093
0.273704
0.285346
0.299301
0.31553
0.333543
0.352504
0.371994
0.0555353
0.0980186
0.122355
0.1405
0.156025
0.169935
0.182483
0.193677
0.203469
0.211858
0.218939
0.224937
0.230212
0.235251
0.240626
0.246933
0.254732
0.264475
0.276446
0.29067
0.306844
0.324524
0.34429
0.0552266
0.097437
0.121216
0.138699
0.153451
0.166477
0.178039
0.188162
0.196808
0.203982
0.209788
0.214457
0.218357
0.221981
0.225908
0.230735
0.237021
0.245235
0.255733
0.268736
0.284318
0.302517
0.324445
0.0542627
0.0959797
0.119284
0.13623
0.150329
0.162582
0.173269
0.182432
0.190057
0.196168
0.200877
0.204425
0.207183
0.20965
0.212405
0.216048
0.22115
0.228224
0.237741
0.250177
0.266028
0.285766
0.310519
0.0527316
0.0936753
0.116503
0.132984
0.146531
0.158131
0.168078
0.176439
0.183221
0.188467
0.192303
0.194972
0.19685
0.198432
0.200293
0.203038
0.207257
0.213522
0.222422
0.234666
0.251121
0.272613
0.300086
0.0507472
0.0906164
0.112917
0.12896
0.142026
0.153073
0.162411
0.170127
0.176253
0.180845
0.184038
0.186077
0.187333
0.188291
0.189524
0.191639
0.195242
0.200945
0.209437
0.221611
0.238603
0.261532
0.291157
0.0484368
0.0869474
0.108641
0.124239
0.136858
0.147427
0.156264
0.163477
0.169115
0.173248
0.176015
0.177654
0.178524
0.179095
0.179928
0.181628
0.184816
0.190137
0.19834
0.210413
0.227651
0.251393
0.282287
0.0459344
0.08285
0.103846
0.118962
0.131142
0.141277
0.149691
0.15651
0.161801
0.16564
0.168164
0.169602
0.170291
0.17068
0.171307
0.172767
0.175685
0.180716
0.188625
0.200423
0.217457
0.241228
0.272515
0.043372
0.0785261
0.0987329
0.113316
0.125039
0.134757
0.142798
0.149301
0.154346
0.158017
0.160444
0.161839
0.162515
0.162888
0.163469
0.164829
0.16758
0.172368
0.179934
0.191248
0.20762
0.230634
0.261354
0.0408701
0.074181
0.0935215
0.107515
0.11875
0.128046
0.135733
0.141965
0.146832
0.150419
0.152849
0.154316
0.155102
0.155587
0.156242
0.157608
0.160267
0.164834
0.172001
0.182645
0.197962
0.219506
0.248626
0.0385298
0.070006
0.0884273
0.101778
0.112486
0.121341
0.128675
0.134653
0.139373
0.142923
0.145417
0.147026
0.148
0.14868
0.149493
0.150937
0.153551
0.157909
0.16463
0.17447
0.188449
0.207965
0.2345
0.0364279
0.066166
0.0836473
0.0963149
0.10646
0.114846
0.121812
0.127533
0.132113
0.13564
0.138218
0.139998
0.141198
0.142116
0.143131
0.144691
0.147288
0.151438
0.157684
0.166647
0.179134
0.196283
0.219485
0.0346162
0.0627906
0.0793482
0.0913118
0.100865
0.108757
0.115333
0.120777
0.125202
0.128695
0.13135
0.133298
0.134724
0.135886
0.137112
0.138799
0.141383
0.145322
0.151078
0.159144
0.170107
0.184789
0.204294
0.0331264
0.059973
0.0756604
0.0869205
0.0958651
0.103241
0.109404
0.114548
0.118792
0.122222
0.124925
0.12701
0.128635
0.130017
0.131437
0.133236
0.135797
0.139516
0.144781
0.151969
0.16147
0.173788
0.189638
0.0319806
0.0577763
0.0726782
0.0832558
0.0915889
0.0984356
0.104166
0.108984
0.113015
0.116345
0.119052
0.12123
0.123009
0.124568
0.126143
0.128024
0.130538
0.134025
0.138808
0.145164
0.153324
0.163513
0.176055
0.0312036
0.0562453
0.0704664
0.0803969
0.088126
0.0944374
0.0997195
0.104189
0.107977
0.111167
0.113831
0.116049
0.117925
0.119608
0.12129
0.123213
0.125652
0.128896
0.13321
0.138799
0.145769
0.154127
0.163864
0.0308371
0.0554227
0.0690706
0.0783932
0.0855307
0.0913061
0.0961304
0.100233
0.103747
0.10676
0.109335
0.111539
0.113457
0.115207
0.116945
0.118867
0.121204
0.124196
0.128062
0.132954
0.138894
0.145736
0.153208
0.0309516
0.0553628
0.068529
0.0772724
0.083827
0.0890659
0.093425
0.0971442
0.100362
0.103163
0.105607
0.107749
0.109656
0.111422
0.113168
0.115052
0.117262
0.119998
0.123442
0.127708
0.132772
0.138391
0.14411
0.0316561
0.0561417
0.0688801
0.0770478
0.0830146
0.0877111
0.0915962
0.0949185
0.0978187
0.10038
0.102656
0.104695
0.106548
0.108285
0.11
0.111817
0.113884
0.116366
0.119415
0.123124
0.127445
0.132095
0.136501
0.0331047
0.0578586
0.070163
0.0777186
0.0830714
0.0872088
0.0906073
0.0935188
0.0960831
0.0983801
0.10046
0.102361
0.104124
0.105799
0.107456
0.109188
0.111108
0.113348
0.116033
0.119243
0.12293
0.126805
0.130246
0.0355072
0.0606271
0.0724046
0.0792619
0.0839496
0.0874999
0.0903946
0.0928809
0.0950928
0.0971055
0.0989644
0.100701
0.102346
0.103935
0.105517
0.107157
0.108938
0.11096
0.113322
0.116091
0.119227
0.122463
0.12518
0.0391468
0.0645555
0.0755941
0.0816142
0.0855658
0.0884949
0.0908681
0.0929163
0.0947623
0.0964741
0.0980915
0.0996411
0.101145
0.102629
0.104125
0.105676
0.107339
0.109181
0.111276
0.113671
0.116331
0.119021
0.121155
0.0443813
0.0697165
0.0796497
0.0846506
0.0877894
0.0900687
0.0919101
0.0935146
0.094987
0.0963851
0.097743
0.0990829
0.100423
0.10178
0.103177
0.104641
0.106208
0.10792
0.10982
0.111934
0.114215
0.116445
0.118077
0.0515915
0.0761056
0.0843848
0.0881709
0.0904393
0.0920624
0.0933802
0.094549
0.0956493
0.0967264
0.097808
0.098913
0.100057
0.101255
0.102525
0.103886
0.105362
0.10698
0.108762
0.110708
0.112753
0.114666
0.115903
0.0611736
0.0835703
0.0894726
0.0918966
0.0932933
0.0942961
0.0951284
0.0958903
0.0966341
0.097391
0.0981818
0.0990225
0.0999278
0.100913
0.101996
0.103196
0.104536
0.106041
0.107728
0.109594
0.111565
0.113398
0.114505
0.0738228
0.091574
0.0944027
0.0954728
0.0960999
0.0965792
0.0970019
0.097411
0.0978314
0.0982804
0.0987714
0.0993167
0.0999296
0.100625
0.101421
0.10234
0.103409
0.104659
0.106123
0.107824
0.109732
0.111665
0.113065
0.0914483
0.0984714
0.0984866
0.0985269
0.0986219
0.0987341
0.0988539
0.0989834
0.0991274
0.0992911
0.0994799
0.0996999
0.0999585
0.100265
0.100631
0.101073
0.101609
0.102269
0.103087
0.104112
0.105391
0.10693
0.108522
0.25294
0.219896
0.18057
0.143782
0.316837
0.292449
0.274769
0.262796
0.35821
0.3435
0.326134
0.309633
0.382066
0.376168
0.366217
0.352706
0.406695
0.403735
0.397851
0.388631
0.441052
0.437634
0.432417
0.425002
0.489043
0.483426
0.477515
0.470585
0.533056
0.530738
0.528444
0.525003
0.533623
0.538586
0.543275
0.548941
0.524878
0.533147
0.540307
0.546951
0.515395
0.526177
0.535085
0.542466
0.504169
0.515879
0.525795
0.533998
0.486126
0.498289
0.509372
0.519466
0.457347
0.469937
0.483039
0.497167
0.42188
0.435607
0.452196
0.472926
0.388734
0.40519
0.427217
0.456927
0.364091
0.384172
0.411945
0.450287
0.347577
0.370032
0.400763
0.443346
0.336077
0.358726
0.388681
0.430053
0.327267
0.348769
0.375638
0.411874
0.319573
0.339851
0.363197
0.392625
0.311639
0.33145
0.352368
0.376382
0.302568
0.322243
0.34161
0.361506
0.291645
0.311405
0.330207
0.347748
0.278311
0.298057
0.317052
0.334273
0.262396
0.281557
0.300777
0.318879
0.244359
0.262018
0.280673
0.299423
0.22525
0.240511
0.257409
0.275475
0.206372
0.218738
0.232939
0.248876
0.188812
0.19828
0.209461
0.22249
0.173211
0.180118
0.188476
0.19855
0.159812
0.164628
0.170604
0.178085
0.148613
0.151807
0.155889
0.161248
0.139466
0.141457
0.144093
0.147784
0.13213
0.133266
0.134842
0.137265
0.126319
0.126866
0.127689
0.129181
0.121759
0.121895
0.122186
0.122999
0.118248
0.118064
0.117949
0.118243
0.115687
0.115214
0.114734
0.114571
0.114041
0.113326
0.112502
0.111886
0.11284
0.112191
0.11129
0.110409
0.109123
0.109127
0.108876
0.108543
0.147704
0.194048
0.218753
0.20855
0.190062
0.169671
0.150401
0.133752
0.119671
0.107576
0.0971352
0.0879338
0.0797412
0.0723616
0.0655359
0.0587104
0.0509522
0.0402722
0.0190271
0.242805
0.249381
0.294698
0.325114
0.302253
0.251275
0.204547
0.168869
0.143383
0.12498
0.110741
0.0989869
0.0888744
0.0799242
0.0717461
0.0637272
0.0549303
0.043244
0.0204576
0.284881
0.280026
0.297922
0.342774
0.385525
0.37391
0.302836
0.231656
0.180799
0.148485
0.127066
0.111296
0.0986039
0.0877794
0.0780207
0.0686406
0.0586682
0.0459161
0.0217625
0.32433
0.304963
0.304804
0.328128
0.371678
0.41507
0.40983
0.332294
0.245008
0.185051
0.149038
0.126094
0.109551
0.0963233
0.0847121
0.0737783
0.0624577
0.0485023
0.0230068
0.365973
0.340245
0.324872
0.32856
0.35404
0.395377
0.430974
0.418571
0.335394
0.242751
0.181383
0.145319
0.122504
0.105892
0.0920354
0.0793451
0.066504
0.0511699
0.0242598
0.407496
0.382428
0.359117
0.347095
0.353837
0.379952
0.416737
0.438938
0.407202
0.316815
0.228114
0.171721
0.138682
0.116851
0.100099
0.085416
0.0709066
0.0540209
0.0255656
0.4555
0.431892
0.4049
0.381774
0.371807
0.380623
0.405546
0.433206
0.433928
0.377729
0.285303
0.207704
0.159156
0.129507
0.1089
0.0919356
0.0756494
0.0570815
0.0269354
0.512908
0.490505
0.46115
0.428958
0.404456
0.396233
0.40628
0.427145
0.438679
0.409734
0.333903
0.247568
0.183492
0.143854
0.118299
0.0987282
0.080606
0.0603006
0.028359
0.555053
0.546352
0.523393
0.482253
0.445009
0.421601
0.416886
0.427187
0.438481
0.424124
0.366144
0.282878
0.208742
0.159108
0.127929
0.105509
0.0855626
0.0635605
0.029808
0.557102
0.564025
0.563618
0.530042
0.484671
0.449562
0.432429
0.432408
0.439235
0.4305
0.385291
0.309878
0.231727
0.17398
0.137229
0.111922
0.090256
0.0667001
0.0312391
0.552896
0.563762
0.581085
0.562899
0.515601
0.473823
0.447908
0.4395
0.440942
0.433529
0.396672
0.329242
0.250793
0.187265
0.14559
0.117599
0.09442
0.0695465
0.0326024
0.545699
0.558247
0.582254
0.578437
0.535206
0.491217
0.460162
0.445854
0.442677
0.434945
0.403633
0.342809
0.265475
0.198078
0.152461
0.122218
0.0978309
0.0719469
0.0338517
0.535935
0.553433
0.576624
0.581784
0.545548
0.501761
0.468172
0.450333
0.444039
0.435782
0.408272
0.352117
0.275747
0.20584
0.157441
0.125563
0.100347
0.0737972
0.0349489
0.524301
0.552852
0.574893
0.580848
0.549999
0.506477
0.472127
0.452759
0.445051
0.436961
0.412013
0.358026
0.281674
0.210325
0.160381
0.127581
0.101937
0.0750596
0.0358702
0.517464
0.56313
0.582094
0.580078
0.549642
0.506914
0.473096
0.453657
0.446142
0.439399
0.415481
0.360724
0.283556
0.21181
0.16148
0.128414
0.102688
0.0757617
0.0366058
0.523933
0.593119
0.604345
0.58438
0.548394
0.50643
0.473563
0.454468
0.447665
0.442794
0.417814
0.360254
0.282336
0.211176
0.161295
0.128389
0.102778
0.0759777
0.037157
0.537852
0.639789
0.647208
0.601278
0.552695
0.509471
0.477342
0.457754
0.449411
0.443558
0.416288
0.356862
0.279459
0.209666
0.16058
0.127914
0.102416
0.075795
0.0375287
0.541439
0.690391
0.712882
0.637521
0.569252
0.518867
0.486836
0.467244
0.452564
0.439684
0.409526
0.351356
0.276514
0.208562
0.160074
0.127356
0.101772
0.0752766
0.0377215
0.52685
0.722917
0.800946
0.697852
0.601489
0.535266
0.498153
0.481647
0.459674
0.436759
0.402911
0.347445
0.275877
0.209192
0.160371
0.126936
0.100914
0.0744343
0.0377261
0.497517
0.71395
0.875278
0.773218
0.646772
0.559225
0.507636
0.484442
0.467401
0.440901
0.403806
0.350154
0.280208
0.212557
0.161684
0.126616
0.0997662
0.0732171
0.0375223
0.459843
0.657989
0.907254
0.861413
0.703983
0.592146
0.522348
0.486438
0.470288
0.448207
0.412228
0.361019
0.290043
0.218326
0.163505
0.12601
0.098102
0.0715254
0.0370844
0.425452
0.579472
0.834617
0.939858
0.776259
0.634926
0.545418
0.495469
0.471734
0.454631
0.425059
0.376983
0.30259
0.224388
0.164558
0.124459
0.0956213
0.0692587
0.0363937
0.397222
0.508854
0.708536
0.929097
0.846374
0.683416
0.57511
0.511292
0.478532
0.462796
0.439477
0.392302
0.312422
0.227368
0.1632
0.121284
0.0920927
0.0663853
0.0354531
0.374289
0.448729
0.59256
0.788199
0.868239
0.738314
0.609681
0.531801
0.489685
0.472338
0.453391
0.403129
0.315355
0.224589
0.158293
0.116148
0.0875069
0.063001
0.0342968
0.356906
0.404584
0.495653
0.641494
0.789755
0.769868
0.644411
0.553617
0.501803
0.4791
0.461846
0.407229
0.309774
0.215287
0.149778
0.109263
0.0821361
0.0593344
0.032987
0.341983
0.377626
0.428891
0.517265
0.637984
0.711822
0.667409
0.574467
0.51285
0.48196
0.461618
0.400639
0.294747
0.200082
0.138545
0.101313
0.0764753
0.0556959
0.0315987
0.324615
0.360103
0.394311
0.43795
0.505857
0.585797
0.614969
0.570308
0.513189
0.47862
0.452075
0.381972
0.271152
0.181313
0.126283
0.0932886
0.0711028
0.0523439
0.0302958
0.301484
0.340464
0.375052
0.403814
0.434912
0.477519
0.516076
0.517634
0.490909
0.463963
0.430216
0.349162
0.241054
0.162056
0.114896
0.0862658
0.0666038
0.0495832
0.029205
0.273195
0.312323
0.349979
0.381293
0.405507
0.426783
0.449505
0.46188
0.455989
0.434585
0.388845
0.300969
0.20755
0.143572
0.104851
0.0804937
0.063106
0.0474537
0.0282994
0.243278
0.278058
0.313281
0.345047
0.370807
0.38963
0.403738
0.41085
0.405021
0.379558
0.325814
0.247184
0.17568
0.127205
0.0964484
0.076001
0.0605691
0.0459098
0.0275501
0.215237
0.243603
0.272404
0.298732
0.320468
0.336826
0.346726
0.347905
0.336544
0.307667
0.258765
0.199562
0.149208
0.113798
0.0897498
0.0726408
0.0588272
0.0448446
0.0269283
0.190947
0.213016
0.234937
0.254356
0.269747
0.280837
0.285562
0.282094
0.268125
0.241721
0.204255
0.163584
0.129158
0.103415
0.08458
0.0701736
0.0576621
0.0441293
0.0264083
0.170872
0.187626
0.203815
0.217451
0.227658
0.233686
0.234132
0.227941
0.214232
0.192925
0.16614
0.138587
0.114672
0.0956034
0.0806412
0.0683482
0.0568677
0.0436468
0.0259694
0.154791
0.167298
0.179099
0.188492
0.19505
0.197734
0.195787
0.188777
0.176672
0.160133
0.140909
0.121591
0.10431
0.0897657
0.0776291
0.0669539
0.0562857
0.0433087
0.0255963
0.142222
0.151412
0.159919
0.16641
0.170385
0.171108
0.168153
0.161428
0.151236
0.138363
0.12408
0.109863
0.0968294
0.0853819
0.0752933
0.0658404
0.0558148
0.0430584
0.025279
0.132577
0.139225
0.145238
0.149632
0.151848
0.151441
0.14819
0.142148
0.133691
0.123507
0.112499
0.101573
0.0913604
0.0820623
0.0734509
0.0649146
0.0554031
0.0428655
0.0250107
0.125226
0.129957
0.134128
0.136936
0.137935
0.136869
0.133631
0.128323
0.121287
0.113069
0.104314
0.0956085
0.0873235
0.0795273
0.0719768
0.0641273
0.0550324
0.0427179
0.0247873
0.119559
0.122817
0.1256
0.127219
0.127389
0.125962
0.122884
0.118255
0.112351
0.105589
0.09843
0.0912675
0.0843197
0.0775763
0.0707884
0.0634564
0.0547035
0.0426127
0.0246057
0.115079
0.117081
0.118729
0.119445
0.119081
0.117521
0.11471
0.110715
0.105741
0.100095
0.0941106
0.0880546
0.0820555
0.0760623
0.0698302
0.062894
0.0544242
0.0425502
0.024463
0.111556
0.112171
0.112702
0.112671
0.111989
0.110485
0.108047
0.104688
0.100541
0.0958247
0.090774
0.0855725
0.0802939
0.0748678
0.0690606
0.0624355
0.0541993
0.0425256
0.0243548
0.109321
0.107729
0.106927
0.106255
0.105421
0.104094
0.102088
0.0993648
0.0959959
0.0921227
0.0879021
0.0834516
0.0788037
0.0738751
0.0684415
0.0620886
0.0540529
0.0425474
0.0242785
0.108129
0.10383
0.101961
0.100891
0.0999767
0.0987562
0.0970302
0.0947491
0.0919532
0.0887318
0.0851815
0.0813657
0.0772789
0.0728193
0.0677601
0.0616944
0.0538719
0.0425498
0.0242116
)
;

boundaryField
{
    leftWall
    {
        type            kqRWallFunction;
        value           nonuniform List<scalar> 
50
(
0.00614295
0.00943382
0.0111955
0.0130058
0.014495
0.0156472
0.0165264
0.0171672
0.0177831
0.0184633
0.0192375
0.020412
0.02276
0.02814
0.0378824
0.0481012
0.0554605
0.0547699
0.0515769
0.0513386
0.0522768
0.0535379
0.0546349
0.0553301
0.0555353
0.0552266
0.0542627
0.0527316
0.0507472
0.0484368
0.0459344
0.043372
0.0408701
0.0385298
0.0364279
0.0346162
0.0331264
0.0319806
0.0312036
0.0308371
0.0309516
0.0316561
0.0331047
0.0355072
0.0391468
0.0443813
0.0515915
0.0611736
0.0738228
0.0914483
)
;
    }
    rightWall
    {
        type            kqRWallFunction;
        value           nonuniform List<scalar> 
50
(
0.00793082
0.00929918
0.0113073
0.013048
0.0144954
0.0157195
0.0167785
0.0177134
0.0190271
0.0204576
0.0217625
0.0230068
0.0242598
0.0255656
0.0269354
0.028359
0.029808
0.0312391
0.0326024
0.0338517
0.0349489
0.0358702
0.0366058
0.037157
0.0375287
0.0377215
0.0377261
0.0375223
0.0370844
0.0363937
0.0354531
0.0342968
0.032987
0.0315987
0.0302958
0.029205
0.0282994
0.0275501
0.0269283
0.0264083
0.0259694
0.0255963
0.025279
0.0250107
0.0247873
0.0246057
0.024463
0.0243548
0.0242785
0.0242116
)
;
    }
    lowerWall
    {
        type            kqRWallFunction;
        value           nonuniform List<scalar> 
62
(
0.00614295
0.0110034
0.017208
0.0225352
0.0271259
0.0314619
0.0357595
0.0400917
0.0444346
0.0487017
0.0527648
0.0564671
0.0596288
0.0620462
0.0634855
0.0636026
0.0625301
0.0604098
0.0570314
0.0525222
0.0469734
0.0376281
0.028333
0.028333
0.0567346
0.0836772
0.109416
0.130155
0.150608
0.172613
0.200142
0.25294
0.219896
0.18057
0.143782
0.0106887
0.0189186
0.0279317
0.0362784
0.0446722
0.0536353
0.0639513
0.0801339
0.0106887
0.015973
0.0204817
0.0232745
0.0250428
0.0258629
0.0255491
0.0244973
0.0229656
0.0211857
0.0194056
0.0178554
0.0164712
0.0151734
0.0139061
0.0124873
0.0109705
0.01064
0.00793082
)
;
    }
    atmosphere
    {
        type            inletOutlet;
        inletValue      uniform 0.1;
        value           nonuniform List<scalar> 
46
(
0.1
0.1
0.1
0.1
0.1
0.1
0.1
0.1
0.1
0.1
0.1
0.1
0.1
0.1
0.1
0.1
0.1
0.1
0.1
0.1
0.1
0.1
0.1
0.1
0.1
0.1
0.1
0.1
0.10383
0.101961
0.100891
0.0999767
0.0987562
0.0970302
0.0947491
0.0919532
0.0887318
0.0851815
0.0813657
0.0772789
0.0728193
0.0677601
0.0616944
0.0538719
0.0425498
0.0242116
)
;
    }
    defaultFaces
    {
        type            empty;
    }
}


// ************************************************************************* //
