/*--------------------------------*- C++ -*----------------------------------*\
  =========                 |
  \\      /  F ield         | OpenFOAM: The Open Source CFD Toolbox
   \\    /   O peration     | Website:  https://openfoam.org
    \\  /    A nd           | Version:  9
     \\/     M anipulation  |
\*---------------------------------------------------------------------------*/
FoamFile
{
    format      ascii;
    class       volScalarField;
    location    "0.3";
    object      k;
}
// * * * * * * * * * * * * * * * * * * * * * * * * * * * * * * * * * * * * * //

dimensions      [0 2 -2 0 0 0 0];

internalField   nonuniform List<scalar> 
2268
(
0.0453638
0.0646529
0.070399
0.057933
0.0588066
0.0609935
0.0636426
0.0661319
0.0686072
0.0709132
0.072989
0.0751118
0.077504
0.0803563
0.083717
0.0874835
0.0918405
0.0963979
0.0934964
0.0818847
0.0658995
0.0486579
0.0274816
0.0607121
0.130177
0.132012
0.117592
0.113106
0.112767
0.114836
0.118083
0.121921
0.12597
0.130535
0.135854
0.142227
0.149997
0.15931
0.169627
0.178937
0.182394
0.170609
0.144281
0.10843
0.0744669
0.0428223
0.0744498
0.168833
0.179599
0.15662
0.14834
0.144421
0.143986
0.145335
0.147857
0.151314
0.155661
0.160935
0.167343
0.175121
0.184304
0.194134
0.202128
0.203344
0.189298
0.159309
0.120789
0.0827528
0.0463912
0.0869781
0.19777
0.217737
0.190324
0.178127
0.169789
0.165664
0.164047
0.16436
0.166219
0.169212
0.173146
0.178039
0.183956
0.190769
0.19762
0.202099
0.19991
0.185878
0.157408
0.118411
0.0804349
0.0446789
0.0965415
0.218077
0.250991
0.220908
0.205182
0.192373
0.184211
0.179183
0.176729
0.176308
0.177221
0.179036
0.181562
0.184668
0.188068
0.190902
0.191154
0.185698
0.171686
0.148082
0.11416
0.0764298
0.0406175
0.104747
0.233558
0.278549
0.249078
0.230674
0.213778
0.201575
0.192922
0.187332
0.184205
0.182624
0.181966
0.181862
0.182027
0.182065
0.181188
0.177867
0.170114
0.156825
0.138369
0.112167
0.0756827
0.0375257
0.111831
0.246544
0.301069
0.275182
0.255155
0.234861
0.218822
0.206481
0.197543
0.191477
0.187226
0.184041
0.181445
0.179075
0.176512
0.1731
0.167757
0.159274
0.147399
0.133485
0.116191
0.085123
0.0366094
0.117812
0.257766
0.320044
0.299591
0.279031
0.256195
0.236642
0.220638
0.208223
0.1991
0.192122
0.186487
0.181688
0.177353
0.173117
0.168496
0.162777
0.15518
0.145466
0.13467
0.123098
0.101824
0.0459415
0.0105435
0.0133801
0.0167853
0.0187618
0.0200724
0.0209955
0.0215939
0.0220164
0.0221109
0.0219361
0.0215169
0.0208539
0.0199298
0.0187088
0.0171375
0.0151246
0.0125115
0.0107298
0.00776051
0.0158938
0.0337515
0.0384622
0.0400169
0.0408008
0.041548
0.0421734
0.0425232
0.0425606
0.0422969
0.0416871
0.0406769
0.0391956
0.0371466
0.0343938
0.0307285
0.0258052
0.0189521
0.00918319
0.024981
0.0483527
0.0534876
0.054361
0.0540961
0.0538916
0.0538081
0.0536601
0.0533645
0.0528213
0.051931
0.0505995
0.0487241
0.0461782
0.0427896
0.0383054
0.0323173
0.0240261
0.0112059
0.0338858
0.0618824
0.0666064
0.0664271
0.064808
0.0634195
0.0624626
0.0617111
0.0609858
0.0601072
0.0589234
0.057303
0.0551153
0.0522106
0.0483936
0.043385
0.0367345
0.0275259
0.012839
0.0433339
0.0760977
0.0793566
0.0776021
0.0744221
0.0717445
0.0698306
0.0683876
0.0671567
0.0658901
0.0643856
0.0624751
0.060001
0.0567933
0.0526383
0.047236
0.0400982
0.0301884
0.0140861
0.0540391
0.0920295
0.0923969
0.0883787
0.0834413
0.079398
0.0764662
0.0742666
0.0724714
0.0707726
0.06892
0.06671
0.0639591
0.0604776
0.0560352
0.0503128
0.0427828
0.0322955
0.0150742
0.0668403
0.110005
0.105883
0.0988645
0.0920163
0.0865678
0.0825858
0.0795907
0.0771925
0.0750296
0.0728083
0.0702907
0.0672682
0.0635318
0.058835
0.0528384
0.0449746
0.0339959
0.0158848
0.0859434
0.129587
0.119363
0.108935
0.100141
0.093307
0.0882784
0.0844764
0.0814563
0.0788113
0.0762089
0.0733795
0.0700903
0.0661128
0.0611842
0.0549433
0.0467851
0.0353863
0.0165715
0.127132
0.274058
0.346303
0.335903
0.316241
0.290705
0.26618
0.244488
0.226394
0.212004
0.200642
0.191395
0.18372
0.177251
0.1717
0.166764
0.162032
0.156947
0.150941
0.143922
0.136404
0.127621
0.115701
0.133483
0.285083
0.367114
0.372201
0.359791
0.335925
0.308556
0.281238
0.256111
0.234345
0.216589
0.202211
0.190779
0.181945
0.175434
0.171026
0.168511
0.167626
0.168017
0.16927
0.171035
0.173272
0.176174
0.137385
0.29172
0.382083
0.403064
0.401125
0.381991
0.354094
0.322354
0.290444
0.261017
0.236145
0.215953
0.200199
0.188492
0.180401
0.175524
0.173501
0.173984
0.176588
0.180814
0.18593
0.190956
0.19493
0.139589
0.295724
0.392635
0.428526
0.438873
0.426987
0.400953
0.366522
0.32872
0.291841
0.259045
0.232233
0.211365
0.196019
0.18553
0.17919
0.176355
0.176459
0.178954
0.183225
0.188473
0.193685
0.197767
0.140875
0.298123
0.399256
0.448221
0.471858
0.469282
0.4475
0.412456
0.370104
0.32617
0.285381
0.251274
0.224476
0.204693
0.191057
0.182515
0.178083
0.176923
0.178301
0.181492
0.185672
0.189873
0.193046
0.141566
0.299207
0.402311
0.462207
0.4994
0.507717
0.492443
0.45906
0.413968
0.364046
0.315578
0.27359
0.240092
0.21508
0.197587
0.186239
0.179683
0.176774
0.17657
0.178238
0.18095
0.183818
0.185916
0.141375
0.298757
0.4024
0.471223
0.521423
0.541687
0.534862
0.505363
0.459564
0.40514
0.349761
0.299669
0.258879
0.227889
0.205827
0.191086
0.181953
0.176951
0.1749
0.174844
0.175937
0.177365
0.178325
0.139975
0.29623
0.399781
0.476271
0.538304
0.571044
0.574158
0.550525
0.506068
0.448848
0.387565
0.329854
0.281464
0.243848
0.216499
0.197742
0.185561
0.178138
0.174027
0.172116
0.17152
0.171467
0.171254
0.13716
0.290846
0.394518
0.478388
0.550703
0.595914
0.609927
0.593814
0.552678
0.494568
0.42888
0.364448
0.308335
0.263602
0.230288
0.206853
0.191095
0.180881
0.174477
0.170582
0.168229
0.166658
0.165236
0.133053
0.281697
0.386979
0.47848
0.55924
0.616379
0.641756
0.634517
0.598562
0.541525
0.473154
0.403231
0.339693
0.287625
0.247782
0.219004
0.199083
0.185645
0.176663
0.170614
0.16641
0.163262
0.160574
0.128201
0.270105
0.377946
0.476534
0.563864
0.632063
0.669054
0.671919
0.642927
0.588914
0.519649
0.445529
0.375491
0.316195
0.269428
0.234684
0.209978
0.192813
0.180904
0.172478
0.166284
0.161465
0.157427
0.123153
0.258812
0.367911
0.471182
0.563719
0.642157
0.691149
0.705401
0.685128
0.636062
0.567777
0.491058
0.415622
0.349414
0.295508
0.254264
0.224141
0.202694
0.18744
0.176351
0.167978
0.161351
0.155844
0.1181
0.248129
0.356866
0.461477
0.558412
0.646215
0.707691
0.734619
0.72473
0.682424
0.616957
0.539367
0.459997
0.387208
0.326136
0.277982
0.241845
0.215521
0.19644
0.182339
0.171542
0.162928
0.155803
0.113055
0.237426
0.344089
0.447725
0.548582
0.644568
0.718809
0.759499
0.761473
0.727549
0.666571
0.589681
0.507593
0.429216
0.361257
0.305958
0.263275
0.231466
0.208024
0.190501
0.176981
0.166157
0.157231
0.108047
0.226365
0.329177
0.431111
0.535007
0.63781
0.724679
0.779966
0.795126
0.771056
0.716114
0.641468
0.557998
0.475116
0.400726
0.33821
0.288542
0.250656
0.222277
0.200866
0.184275
0.17098
0.160044
0.103185
0.215156
0.313333
0.412902
0.51795
0.626043
0.724931
0.795614
0.825356
0.812583
0.765152
0.694271
0.610833
0.524567
0.444314
0.374663
0.317693
0.273178
0.239269
0.213459
0.193402
0.17734
0.164157
0.0985993
0.204196
0.297698
0.39417
0.498164
0.609257
0.718769
0.805627
0.851651
0.851764
0.81328
0.747633
0.665645
0.577241
0.491712
0.415153
0.350704
0.299083
0.259056
0.228299
0.204343
0.185185
0.169501
0.0943523
0.193721
0.282753
0.375659
0.477113
0.588414
0.705431
0.808672
0.873117
0.888051
0.86001
0.801021
0.721823
0.63256
0.542472
0.459425
0.387482
0.328381
0.281675
0.245408
0.217085
0.194476
0.176019
0.0904239
0.183768
0.268529
0.357728
0.455986
0.565293
0.685208
0.80295
0.888361
0.920749
0.904818
0.85389
0.778701
0.689557
0.596077
0.507162
0.427872
0.361029
0.307135
0.264792
0.231612
0.205177
0.183665
0.0867472
0.174255
0.254881
0.340356
0.435202
0.541466
0.660479
0.787631
0.895383
0.948637
0.947014
0.905693
0.835771
0.747899
0.652089
0.558013
0.471654
0.396929
0.335406
0.286436
0.247898
0.21725
0.192395
0.0832389
0.165042
0.241562
0.323285
0.414641
0.517615
0.634025
0.764264
0.892145
0.970499
0.986041
0.955958
0.892539
0.807107
0.710047
0.611588
0.518552
0.435919
0.366407
0.310293
0.265898
0.230645
0.202159
0.0798352
0.156025
0.228411
0.306284
0.394082
0.493745
0.607282
0.736853
0.877677
0.984079
1.02122
1.00424
0.948547
0.866699
0.769503
0.667472
0.568238
0.477775
0.399999
0.336273
0.28554
0.245297
0.2129
0.0765143
0.147194
0.215412
0.289334
0.373459
0.469798
0.580432
0.708059
0.854263
0.987238
1.05128
1.04988
1.0033
0.926198
0.830077
0.725235
0.620336
0.522207
0.435977
0.364233
0.306716
0.261117
0.224545
0.0732909
0.138627
0.202686
0.272586
0.352917
0.445823
0.553468
0.678768
0.825252
0.979075
1.07475
1.09229
1.05639
0.985133
0.891127
0.784372
0.67442
0.568855
0.474063
0.393973
0.329285
0.278
0.237013
0.0701954
0.130437
0.190421
0.256284
0.332736
0.422089
0.526619
0.649297
0.793817
0.959295
1.08928
1.13111
1.10763
1.04321
0.952094
0.844404
0.730003
0.617269
0.513892
0.425232
0.353073
0.29583
0.250221
0.0672662
0.122756
0.17886
0.240774
0.313344
0.399073
0.500351
0.620116
0.762032
0.929915
1.09172
1.16555
1.15684
1.10025
1.01272
0.904787
0.786474
0.666875
0.555005
0.457697
0.377892
0.314499
0.264097
0.0646135
0.11571
0.16816
0.226243
0.294953
0.377008
0.474906
0.591633
0.730759
0.896645
1.07959
1.19316
1.2036
1.15593
1.07238
0.96472
0.843035
0.716969
0.596864
0.491029
0.403582
0.333953
0.278617
0.0622094
0.109309
0.158367
0.212792
0.277712
0.356084
0.450529
0.564091
0.700288
0.863355
1.05407
1.20821
1.24623
1.20881
1.12968
1.02308
0.898707
0.766737
0.638889
0.524926
0.430078
0.354255
0.293862
0.0600266
0.103541
0.149494
0.200474
0.261723
0.336447
0.427407
0.537655
0.670757
0.830776
1.02183
1.20709
1.28147
1.25597
1.18277
1.07875
0.952525
0.815331
0.680518
0.559213
0.457532
0.375706
0.310103
0.058039
0.0983802
0.141526
0.189307
0.247047
0.318193
0.405656
0.512462
0.642227
0.798736
0.986556
1.19105
1.30407
1.2954
1.23083
1.13054
1.00317
0.861695
0.721241
0.594
0.486499
0.399009
0.327933
0.0562214
0.0937857
0.134425
0.17928
0.233707
0.301376
0.385355
0.488643
0.614752
0.767222
0.949846
1.15942
1.30816
1.32557
1.27221
1.17595
1.04831
0.904395
0.760761
0.629971
0.51822
0.425505
0.348463
0.0545494
0.0897095
0.128139
0.170354
0.221693
0.286018
0.366552
0.466276
0.588411
0.736391
0.91301
1.11703
1.29019
1.34168
1.30153
1.21041
1.08477
0.942172
0.799629
0.668919
0.55504
0.457479
0.373635
0.0529988
0.0860975
0.1226
0.162469
0.210961
0.272092
0.349229
0.445341
0.563246
0.706292
0.876321
1.07176
1.25577
1.3383
1.31173
1.22831
1.10994
0.975382
0.84028
0.714362
0.600725
0.498274
0.40586
0.0515447
0.0828926
0.117725
0.155542
0.201435
0.259527
0.333315
0.425757
0.539283
0.676858
0.839792
1.02633
1.20956
1.30982
1.29869
1.22891
1.12623
1.0082
0.887608
0.771258
0.659916
0.551886
0.44806
0.0501604
0.0800394
0.113418
0.149473
0.193013
0.248225
0.318718
0.407482
0.516688
0.648548
0.804638
0.982376
1.15765
1.26121
1.26809
1.22039
1.14298
1.04967
0.949755
0.84687
0.73914
0.623932
0.504488
0.0488166
0.0774961
0.109569
0.144149
0.185583
0.238072
0.305349
0.390521
0.495806
0.622842
0.77474
0.950365
1.12721
1.22677
1.24596
1.22398
1.17674
1.11246
1.03661
0.949569
0.845981
0.721203
0.580502
0.047485
0.0752733
0.106084
0.139462
0.179044
0.228976
0.293143
0.374923
0.477045
0.601612
0.754537
0.940937
1.14788
1.25674
1.26924
1.26361
1.24278
1.20619
1.15527
1.08579
0.987094
0.850479
0.681931
0.0461357
0.0734468
0.1029
0.135362
0.173388
0.220971
0.282207
0.360952
0.461023
0.58634
0.74481
0.947377
1.19201
1.34669
1.35589
1.34855
1.34251
1.32919
1.30323
1.25462
1.16427
1.01591
0.813507
0.0447715
0.0724036
0.10025
0.132022
0.16886
0.214407
0.273056
0.34948
0.449292
0.579329
0.746788
0.95734
1.2008
1.42052
1.49632
1.49226
1.48828
1.4806
1.4695
1.44165
1.36739
1.2141
0.975808
0.0433428
0.0723505
0.0984049
0.12995
0.166148
0.210051
0.266584
0.34187
0.44467
0.58643
0.774336
0.999084
1.23441
1.47008
1.62755
1.7074
1.7213
1.69899
1.67029
1.64007
1.57654
1.42772
1.15997
0.0422226
0.0764031
0.100396
0.131447
0.166767
0.20885
0.263496
0.338953
0.449202
0.613227
0.841427
1.10394
1.32567
1.59837
1.82079
2.0152
2.06998
2.00926
1.93923
1.84532
1.75663
1.61335
1.33458
0.0410027
0.0834667
0.104352
0.132761
0.16599
0.206037
0.258984
0.334683
0.451226
0.632906
0.892251
1.16612
1.44136
1.95398
2.16571
2.24979
2.35988
2.33897
2.1692
1.92247
1.77965
1.64158
1.35908
0.113306
0.118845
0.126409
0.134914
0.179131
0.180854
0.183329
0.185522
0.197131
0.1979
0.197922
0.196758
0.199497
0.199639
0.198652
0.196399
0.194064
0.19389
0.19277
0.190633
0.186332
0.185954
0.184825
0.182894
0.178145
0.177564
0.176418
0.174654
0.17045
0.169629
0.168408
0.166727
0.163755
0.162642
0.161275
0.159586
0.158347
0.156887
0.1553
0.153513
0.15437
0.152497
0.150616
0.148645
0.151856
0.149502
0.14725
0.14501
0.150765
0.147852
0.145149
0.142557
0.151011
0.147455
0.144217
0.141189
0.152493
0.148204
0.144344
0.140795
0.155117
0.15
0.145428
0.141271
0.158807
0.152761
0.147382
0.14253
0.163503
0.156425
0.150143
0.144506
0.169159
0.160946
0.153662
0.147148
0.175736
0.166287
0.157903
0.150419
0.183197
0.172413
0.162834
0.154291
0.191496
0.179288
0.168426
0.158737
0.200585
0.186875
0.174648
0.163732
0.210404
0.195126
0.181462
0.169247
0.220894
0.203994
0.188833
0.175252
0.232001
0.213435
0.196723
0.181718
0.243707
0.223431
0.205113
0.188625
0.256065
0.234017
0.21402
0.195977
0.26927
0.24533
0.223533
0.203821
0.283746
0.257679
0.233854
0.212281
0.300299
0.27164
0.245354
0.221571
0.320422
0.288205
0.258647
0.231939
0.345733
0.308584
0.274551
0.243941
0.378325
0.334315
0.294106
0.258225
0.421271
0.367579
0.318703
0.275567
0.478484
0.411124
0.350024
0.296823
0.554253
0.467849
0.389653
0.322583
0.652047
0.539817
0.438201
0.352427
0.772142
0.626152
0.493468
0.383451
0.907433
0.71904
0.546382
0.40679
1.03114
0.791106
0.567746
0.397174
1.01694
0.72456
0.445321
0.285152
0.144127
0.15588
0.138558
0.12357
0.111981
0.103138
0.0964411
0.0913463
0.0873278
0.0839096
0.0806996
0.0773793
0.0736774
0.0693346
0.0640589
0.0574552
0.0488662
0.0368983
0.0172709
0.184919
0.171357
0.1536
0.137625
0.124413
0.113814
0.105477
0.098983
0.0938094
0.0894581
0.0854994
0.0815737
0.0773705
0.0725937
0.0669153
0.0599
0.0508418
0.0383057
0.0180517
0.192933
0.178673
0.162039
0.146504
0.132884
0.121473
0.11223
0.104832
0.0988316
0.0937637
0.0892021
0.0847736
0.080146
0.0749975
0.0689728
0.0616078
0.0521719
0.0392339
0.0186725
0.191634
0.179395
0.164982
0.15068
0.137581
0.126228
0.116737
0.108926
0.102453
0.0969173
0.0919265
0.0871177
0.0821544
0.076703
0.0703931
0.062747
0.0530287
0.0398377
0.0191962
0.18633
0.176084
0.163862
0.151227
0.13923
0.128493
0.119244
0.111422
0.104789
0.0990201
0.0937722
0.0887089
0.0835044
0.0778265
0.0713023
0.0634529
0.0535493
0.0402317
0.0196665
0.179132
0.17058
0.160273
0.149328
0.138642
0.12881
0.120109
0.11256
0.106006
0.100198
0.0948444
0.089644
0.0842923
0.0784687
0.0718073
0.0638364
0.0538393
0.0404966
0.0201107
0.171338
0.1641
0.155367
0.145946
0.136561
0.12773
0.119729
0.11262
0.106308
0.100603
0.0952635
0.090027
0.084615
0.0787246
0.0720025
0.0639882
0.0539775
0.0406863
0.0205452
0.163709
0.157439
0.149946
0.141815
0.133607
0.125748
0.118483
0.111888
0.105908
0.100398
0.0951597
0.0899675
0.0845696
0.0786833
0.0719698
0.0639803
0.0540209
0.0408356
0.0209789
0.156718
0.151118
0.144561
0.137467
0.130259
0.123269
0.116699
0.110624
0.105009
0.099742
0.0946619
0.0895724
0.0842477
0.078424
0.071777
0.0638677
0.0540091
0.0409661
0.0214161
0.150651
0.14546
0.139565
0.133261
0.126855
0.120594
0.114636
0.109041
0.103785
0.0987777
0.0938858
0.0889379
0.0837294
0.0780134
0.0714776
0.0636906
0.053969
0.0410906
0.0218578
0.145656
0.140638
0.135159
0.129414
0.123613
0.11793
0.112479
0.1073
0.102372
0.0976197
0.0929274
0.0881434
0.0830801
0.0775039
0.0711118
0.0634777
0.053918
0.0412167
0.0223036
0.141763
0.136707
0.131424
0.126028
0.12065
0.115399
0.110346
0.105512
0.100871
0.096355
0.0918613
0.0872516
0.0823506
0.0769352
0.0707091
0.0632485
0.0538673
0.0413483
0.0227515
0.138927
0.133637
0.128356
0.123127
0.118011
0.113061
0.108306
0.103746
0.0993483
0.0950458
0.0907424
0.086309
0.0815794
0.0763373
0.0702908
0.0630167
0.0538242
0.0414876
0.0231993
0.137052
0.131353
0.125903
0.120684
0.115695
0.110933
0.106391
0.102044
0.0978479
0.0937346
0.0896099
0.0853502
0.0807948
0.0757322
0.0698728
0.0627922
0.0537935
0.0416361
0.0236441
0.136029
0.129758
0.123989
0.11865
0.113674
0.10901
0.10461
0.100424
0.0963956
0.0924494
0.0884913
0.0843999
0.080018
0.0751366
0.0694669
0.0625825
0.0537788
0.0417948
0.0240834
0.135753
0.128756
0.122537
0.116965
0.111912
0.107273
0.10296
0.0988961
0.0950065
0.091209
0.0874062
0.083477
0.0792654
0.0745638
0.0690831
0.0623937
0.0537833
0.0419651
0.0245148
0.136132
0.128262
0.121476
0.115577
0.110374
0.105704
0.101435
0.0974622
0.0936906
0.0900274
0.0863703
0.0825968
0.0785512
0.0740259
0.0687306
0.0622327
0.0538107
0.0421492
0.0249367
0.137096
0.128208
0.120746
0.11444
0.109027
0.104283
0.100029
0.0961249
0.0924561
0.0889166
0.0853976
0.081774
0.0778893
0.0735352
0.0684199
0.0621072
0.0538668
0.0423511
0.0253488
0.138588
0.12854
0.1203
0.113517
0.107847
0.102997
0.0987356
0.0948868
0.0913111
0.0878882
0.0845017
0.081023
0.0772939
0.0731051
0.0681629
0.0620277
0.0539598
0.0425772
0.0257525
0.140566
0.129216
0.120103
0.112782
0.106816
0.101837
0.0975542
0.093752
0.0902639
0.0869537
0.0836963
0.0803587
0.0767806
0.0727509
0.0679744
0.0620079
0.0541019
0.0428378
0.0261519
0.142998
0.130203
0.120126
0.11221
0.105919
0.100795
0.0964845
0.0927257
0.0893239
0.0861257
0.0829961
0.0797973
0.0763663
0.0724904
0.0678726
0.0620656
0.0543099
0.0431478
0.0265551
0.145855
0.131471
0.120341
0.111784
0.105145
0.0998678
0.0955278
0.0918142
0.0885012
0.085417
0.0824164
0.0793561
0.0760701
0.0723439
0.0678788
0.0622232
0.0546061
0.0435278
0.0269753
0.149109
0.132993
0.120727
0.111487
0.104483
0.0990509
0.0946856
0.0910234
0.0878055
0.0848406
0.0819728
0.0790531
0.0759123
0.0723342
0.0680181
0.0625077
0.0550188
0.0440051
0.0274321
0.152731
0.134742
0.12126
0.111302
0.103925
0.0983415
0.0939598
0.0903589
0.0872454
0.0844081
0.08168
0.078906
0.0759137
0.0724855
0.0683182
0.0629502
0.055582
0.0446134
0.0279531
0.156691
0.136689
0.121918
0.111214
0.103461
0.0977369
0.0933519
0.0898252
0.0868282
0.0841294
0.0815508
0.0789308
0.0760943
0.0728217
0.068808
0.0635847
0.0563338
0.0453922
0.0285738
0.160956
0.138801
0.122673
0.111204
0.103083
0.0972333
0.0928624
0.089426
0.0865597
0.0840124
0.0815951
0.0791405
0.0764707
0.0733647
0.0695147
0.064445
0.0573148
0.0463853
0.0293382
0.165496
0.141045
0.123496
0.111252
0.102779
0.0968261
0.0924906
0.089163
0.0864432
0.0840616
0.0818193
0.079544
0.0770552
0.0741311
0.0704615
0.0655621
0.0585644
0.0476384
0.0302962
0.170285
0.143385
0.124358
0.11134
0.102537
0.0965105
0.0922352
0.0890362
0.0864794
0.0842782
0.0822252
0.0801439
0.0778529
0.0751302
0.0716638
0.0669599
0.0601173
0.0491959
0.0315003
0.175315
0.145793
0.125232
0.111449
0.102351
0.0962827
0.0920949
0.0890449
0.0866669
0.0846596
0.0828088
0.080936
0.0788601
0.0763605
0.0731248
0.0686502
0.0619978
0.0510975
0.0329997
0.180604
0.148253
0.126099
0.111568
0.102213
0.0961412
0.0920693
0.0891882
0.0870028
0.0852
0.0835615
0.0819087
0.0800632
0.0778082
0.0748333
0.0706285
0.0642153
0.0533737
0.0348332
0.186208
0.150787
0.126966
0.111698
0.102125
0.0960867
0.0921587
0.0894646
0.0874826
0.0858909
0.0844699
0.0830438
0.0814396
0.0794473
0.076762
0.0728707
0.0667582
0.05604
0.0370225
0.192243
0.153504
0.127897
0.111875
0.102104
0.0961255
0.0923645
0.0898722
0.0881002
0.086721
0.0855168
0.0843174
0.0829586
0.0812406
0.0788687
0.0753334
0.0695912
0.0590909
0.0395687
0.198765
0.156265
0.128801
0.112058
0.10214
0.0962631
0.0926914
0.0904093
0.0888478
0.0876767
0.0866818
0.0857019
0.0845843
0.0831434
0.0810999
0.0779559
0.0726557
0.0624968
0.0424553
0.205901
0.158951
0.129538
0.112161
0.102191
0.0964788
0.093127
0.0910666
0.0897152
0.0887422
0.0879427
0.0871673
0.0862781
0.0851072
0.0833959
0.0806691
0.0758749
0.0662065
0.0456595
0.213747
0.161428
0.129991
0.112118
0.102224
0.0967532
0.093659
0.0918328
0.0906864
0.0898978
0.0892747
0.088683
0.0880022
0.0870853
0.0857
0.0834049
0.0791748
0.0701387
0.0491724
0.222306
0.163507
0.130033
0.111873
0.102219
0.0970772
0.0942784
0.092694
0.0917444
0.0911228
0.0906535
0.0902201
0.0897217
0.089035
0.0879603
0.0861013
0.0824871
0.074208
0.0530068
0.231289
0.164868
0.129522
0.111386
0.10217
0.0974504
0.0949797
0.0936388
0.0928725
0.0923967
0.0920561
0.0917531
0.0914074
0.0909215
0.0901327
0.088704
0.085755
0.0784161
0.0571927
0.239733
0.164975
0.1283
0.110648
0.102097
0.0978888
0.0957665
0.0946604
0.0940574
0.0937031
0.0934646
0.0932632
0.0930387
0.0927195
0.0921839
0.0911679
0.0889268
0.0827927
0.0618369
0.245368
0.162941
0.126182
0.109669
0.102039
0.0984158
0.0966465
0.0957559
0.0952903
0.0950313
0.0948685
0.0947411
0.0946064
0.0944174
0.094094
0.0934568
0.091949
0.0873681
0.0671256
0.242986
0.157044
0.122714
0.108315
0.101936
0.0989918
0.0975882
0.0968999
0.0965522
0.096368
0.0962606
0.0961848
0.0961126
0.0960177
0.0958586
0.095545
0.0947542
0.0921355
0.073409
0.221326
0.144215
0.116932
0.106172
0.101566
0.0994847
0.0985099
0.0980419
0.0978129
0.0976977
0.0976361
0.0975983
0.0975683
0.0975352
0.0974883
0.0974166
0.0972452
0.0968285
0.0814748
0.164805
0.122194
0.108376
0.103128
0.100913
0.0999144
0.0994457
0.0992208
0.0991114
0.0990576
0.0990305
0.0990162
0.099008
0.0990035
0.099006
0.0990408
0.0992302
0.100007
0.0931925
)
;

boundaryField
{
    leftWall
    {
        type            kqRWallFunction;
        value           nonuniform List<scalar> 
50
(
0.0453638
0.0607121
0.0744498
0.0869781
0.0965415
0.104747
0.111831
0.117812
0.127132
0.133483
0.137385
0.139589
0.140875
0.141566
0.141375
0.139975
0.13716
0.133053
0.128201
0.123153
0.1181
0.113055
0.108047
0.103185
0.0985993
0.0943523
0.0904239
0.0867472
0.0832389
0.0798352
0.0765143
0.0732909
0.0701954
0.0672662
0.0646135
0.0622094
0.0600266
0.058039
0.0562214
0.0545494
0.0529988
0.0515447
0.0501604
0.0488166
0.047485
0.0461357
0.0447715
0.0433428
0.0422226
0.0410027
)
;
    }
    rightWall
    {
        type            kqRWallFunction;
        value           nonuniform List<scalar> 
50
(
0.00776051
0.00918319
0.0112059
0.012839
0.0140861
0.0150742
0.0158848
0.0165715
0.0172709
0.0180517
0.0186725
0.0191962
0.0196665
0.0201107
0.0205452
0.0209789
0.0214161
0.0218578
0.0223036
0.0227515
0.0231993
0.0236441
0.0240834
0.0245148
0.0249367
0.0253488
0.0257525
0.0261519
0.0265551
0.0269753
0.0274321
0.0279531
0.0285738
0.0293382
0.0302962
0.0315003
0.0329997
0.0348332
0.0370225
0.0395687
0.0424553
0.0456595
0.0491724
0.0530068
0.0571927
0.0618369
0.0671256
0.073409
0.0814748
0.0931925
)
;
    }
    lowerWall
    {
        type            kqRWallFunction;
        value           nonuniform List<scalar> 
62
(
0.0453638
0.0646529
0.070399
0.057933
0.0588066
0.0609935
0.0636426
0.0661319
0.0686072
0.0709132
0.072989
0.0751118
0.077504
0.0803563
0.083717
0.0874835
0.0918405
0.0963979
0.0934964
0.0818847
0.0658995
0.0486579
0.0274816
0.0274816
0.0428223
0.0463912
0.0446789
0.0406175
0.0375257
0.0366094
0.0459415
0.113306
0.118845
0.126409
0.134914
0.0105435
0.0158938
0.024981
0.0338858
0.0433339
0.0540391
0.0668403
0.0859434
0.0105435
0.0133801
0.0167853
0.0187618
0.0200724
0.0209955
0.0215939
0.0220164
0.0221109
0.0219361
0.0215169
0.0208539
0.0199298
0.0187088
0.0171375
0.0151246
0.0125115
0.0107298
0.00776051
)
;
    }
    atmosphere
    {
        type            inletOutlet;
        inletValue      uniform 0.1;
        value           nonuniform List<scalar> 
46
(
0.0410027
0.0834667
0.104352
0.132761
0.16599
0.206037
0.258984
0.334683
0.451226
0.632906
0.892251
1.16612
1.44136
0.1
0.1
0.1
2.35988
2.33897
2.1692
1.92247
1.77965
1.64158
1.35908
1.01694
0.72456
0.1
0.1
0.1
0.1
0.1
0.1
0.1
0.1
0.1
0.1
0.1
0.1
0.1
0.1
0.1
0.1
0.1
0.1
0.1
0.1
0.1
)
;
    }
    defaultFaces
    {
        type            empty;
    }
}


// ************************************************************************* //
