/*--------------------------------*- C++ -*----------------------------------*\
  =========                 |
  \\      /  F ield         | OpenFOAM: The Open Source CFD Toolbox
   \\    /   O peration     | Website:  https://openfoam.org
    \\  /    A nd           | Version:  9
     \\/     M anipulation  |
\*---------------------------------------------------------------------------*/
FoamFile
{
    format      ascii;
    class       volScalarField;
    location    "0.3";
    object      nut;
}
// * * * * * * * * * * * * * * * * * * * * * * * * * * * * * * * * * * * * * //

dimensions      [0 2 -1 0 0 0 0];

internalField   nonuniform List<scalar> 
2268
(
0.000195059
0.000169409
0.00017243
0.000157514
0.000159481
0.000162404
0.000165999
0.00016937
0.00017282
0.000175917
0.000178752
0.000181646
0.000184844
0.000188518
0.000192644
0.000197069
0.000202649
0.000207424
0.000203574
0.000190427
0.000171405
0.000147579
0.000111074
0.000355245
0.000892597
0.00115215
0.00107597
0.00102279
0.00104357
0.00109621
0.00115863
0.00120855
0.00124046
0.00127051
0.00130053
0.00133248
0.00136829
0.00140762
0.0014449
0.00146306
0.00142057
0.00129736
0.00109845
0.000775738
0.000475918
0.000294926
0.000391098
0.00147444
0.00208873
0.00208901
0.00210355
0.00217688
0.00226571
0.00233898
0.0023793
0.0023959
0.00240047
0.00239597
0.00238594
0.00237345
0.00235817
0.00233233
0.0022746
0.00214856
0.00191481
0.00160074
0.00118872
0.000713683
0.000307821
0.000427684
0.0019378
0.00279766
0.00299606
0.00315253
0.00329525
0.0034028
0.00345726
0.00345878
0.00342786
0.00337315
0.00329872
0.00320903
0.00310805
0.00299604
0.00286565
0.00269717
0.00246265
0.00214453
0.00175864
0.00133598
0.000817609
0.000302736
0.00045145
0.00230347
0.00338081
0.0037786
0.00409359
0.00432124
0.00445709
0.00449758
0.00445907
0.00437286
0.004249
0.00409295
0.00390983
0.00370407
0.00347669
0.00322212
0.00292548
0.00257042
0.00216046
0.00173147
0.00131696
0.00084831
0.000288631
0.000469937
0.00260673
0.00387683
0.00445777
0.00492037
0.00523828
0.00541635
0.00545978
0.0053953
0.00526301
0.00507643
0.00484278
0.00456787
0.00425678
0.00391161
0.00352942
0.00310158
0.00262432
0.00212117
0.00164646
0.00122691
0.00081659
0.000276835
0.00048582
0.00286911
0.00430968
0.00505771
0.00564706
0.00604926
0.00627612
0.0063382
0.00626696
0.00610752
0.00587577
0.00558018
0.00522742
0.00482377
0.00437348
0.00387732
0.0033332
0.00274724
0.00215493
0.00162337
0.00118768
0.000789992
0.000270752
0.000498386
0.00310073
0.00469975
0.00559842
0.00629214
0.00676523
0.00703766
0.007126
0.00706357
0.00689845
0.00664477
0.00631054
0.00590281
0.00542961
0.00489882
0.00431675
0.00368815
0.00302405
0.00235761
0.00175094
0.00125436
0.00082505
0.000296134
0.000290483
7.77477e-05
8.70756e-05
9.20043e-05
9.51037e-05
9.72138e-05
9.85304e-05
9.94277e-05
9.9589e-05
9.91357e-05
9.8115e-05
9.65145e-05
9.42652e-05
9.12387e-05
8.72232e-05
8.18322e-05
7.43156e-05
0.000296952
0.00016618
0.000198415
0.000581284
0.000670436
0.000739675
0.00079605
0.000844418
0.000879261
0.00089067
0.000893128
0.000890576
0.00088216
0.000866572
0.000842061
0.000806161
0.000755265
0.000683454
0.000580297
0.000433728
0.000148673
0.00025023
0.00109933
0.00140857
0.00161978
0.00176243
0.0018538
0.00190249
0.00190804
0.00189586
0.00187035
0.00182994
0.00177162
0.00169139
0.00158406
0.00144256
0.00125636
0.00100838
0.000667111
0.00016412
0.000291862
0.00156815
0.00214756
0.00250849
0.0027262
0.00284145
0.00288453
0.00287097
0.00282952
0.00276651
0.00268012
0.0025659
0.00241799
0.00222927
0.00199074
0.00169011
0.00130893
0.000815258
0.000175974
0.000329634
0.00198642
0.00283829
0.00334158
0.00362462
0.00375558
0.00378548
0.0037444
0.0036652
0.00355698
0.00341823
0.00324346
0.00302549
0.00275602
0.00242537
0.00202142
0.00152735
0.000916178
0.000184516
0.000367287
0.00236685
0.00346866
0.00410448
0.00444627
0.00458898
0.00460236
0.00452931
0.00440805
0.00425101
0.0040575
0.00382151
0.00353502
0.00318923
0.0027746
0.00228032
0.00169245
0.000989673
0.000191035
0.000407406
0.00273488
0.00405127
0.00480342
0.00519588
0.00534609
0.00534045
0.0052331
0.00506791
0.00486086
0.00461249
0.00431669
0.00396505
0.00354874
0.00305899
0.00248677
0.00182121
0.00104573
0.000196238
0.000460624
0.00313904
0.00461708
0.00545555
0.0058843
0.0060349
0.00600698
0.00586379
0.00565417
0.00539741
0.00509545
0.00474241
0.00432987
0.00384933
0.00329308
0.00265399
0.00192396
0.00109
0.000200547
0.000517774
0.00343918
0.00527212
0.0063761
0.0072006
0.00775887
0.00808771
0.00821737
0.00818125
0.00801113
0.00773808
0.00736568
0.00689855
0.00634618
0.00572375
0.00504937
0.00434004
0.00361113
0.00288228
0.00218832
0.00157709
0.00107639
0.000689141
0.000531189
0.00369896
0.00579047
0.00713099
0.00811072
0.00876023
0.00914016
0.00930905
0.00931787
0.00919555
0.0089735
0.0086547
0.00823698
0.00772611
0.00714268
0.00651896
0.00588878
0.00527785
0.0047005
0.00416411
0.00367789
0.00326021
0.00293221
0.000540087
0.00388994
0.00621262
0.00775984
0.00887328
0.0095909
0.00999137
0.0101588
0.0101716
0.0100835
0.00992752
0.00971229
0.00942576
0.00905634
0.00861073
0.00811793
0.00761808
0.00714711
0.006728
0.00637124
0.00607989
0.00585659
0.00571278
0.000545509
0.004038
0.00656052
0.00828404
0.00951698
0.0102978
0.0107133
0.0108621
0.0108442
0.0107437
0.010613
0.0104789
0.0103309
0.0101389
0.00988178
0.00956584
0.00922296
0.00889323
0.00860925
0.00839022
0.00824384
0.00817238
0.00818092
0.000549482
0.00415958
0.00684511
0.00871369
0.0100572
0.0109064
0.0113471
0.0114809
0.0114177
0.0112638
0.0111042
0.0109892
0.0109285
0.0108892
0.0108237
0.0107038
0.0105365
0.010353
0.0101896
0.0100727
0.0100155
0.0100206
0.0100855
0.000553972
0.00426224
0.0070732
0.00905698
0.0105042
0.0114309
0.0119147
0.0120503
0.0119477
0.0117246
0.011492
0.0113311
0.0112812
0.0113265
0.0114096
0.0114704
0.0114795
0.011445
0.0113953
0.0113589
0.0113539
0.0113855
0.0114488
0.000558327
0.00434674
0.00725105
0.00932415
0.0108679
0.0118816
0.0124275
0.0125876
0.0124646
0.0121782
0.0118537
0.0116016
0.011491
0.0115374
0.0116951
0.0118868
0.0120483
0.0121541
0.0122128
0.0122469
0.0122762
0.0123098
0.0123458
0.000561468
0.00440904
0.00738081
0.00952579
0.0111588
0.0122669
0.0128919
0.013099
0.01298
0.0126498
0.0122388
0.0118758
0.0116571
0.0116324
0.0117829
0.0120346
0.0123008
0.012522
0.0126787
0.0127783
0.0128374
0.0128679
0.0128733
0.000562059
0.00443923
0.00746138
0.00967205
0.0113873
0.0125943
0.0133111
0.0135849
0.0134944
0.0131462
0.0126685
0.0121978
0.0118528
0.0117105
0.0117851
0.0120232
0.0123333
0.0126304
0.0128653
0.0130243
0.0131142
0.0131466
0.0131297
0.00055855
0.00442167
0.00749362
0.00977293
0.0115628
0.012869
0.0136854
0.0140417
0.0140025
0.0136637
0.013147
0.0125887
0.0121206
0.0118411
0.0117952
0.0119588
0.0122518
0.0125777
0.0128626
0.0130694
0.0131904
0.0132322
0.013205
0.000551109
0.00436255
0.00748634
0.00983315
0.0116879
0.0130899
0.0140108
0.0144629
0.0144956
0.0141925
0.013666
0.0130483
0.0124754
0.0120607
0.0118747
0.0119235
0.0121492
0.0124576
0.0127595
0.0129966
0.0131445
0.0132008
0.013174
0.000542022
0.0042997
0.00745286
0.00984616
0.0117557
0.0132503
0.0142808
0.0148415
0.0149649
0.0147212
0.0142129
0.0135655
0.012914
0.0123806
0.0120543
0.0119684
0.0120918
0.0123436
0.0126297
0.0128759
0.0130413
0.0131124
0.0130927
0.000532526
0.00423891
0.00739736
0.00980483
0.011761
0.0133448
0.0144907
0.0151721
0.0154029
0.0152397
0.0147751
0.0141267
0.013425
0.0127963
0.0123419
0.0121173
0.0121184
0.0122843
0.0125255
0.0127586
0.0129283
0.0130095
0.0129986
0.000522608
0.00416855
0.00731095
0.00970943
0.0117076
0.0133745
0.01464
0.0154524
0.0158046
0.0157396
0.0153404
0.014717
0.0139939
0.0132954
0.0127316
0.0123747
0.0122453
0.0123061
0.0124788
0.0126775
0.0128363
0.0129189
0.0129139
0.000511868
0.00408211
0.0071863
0.00956934
0.0116027
0.0133442
0.01473
0.0156807
0.016166
0.016214
0.0158988
0.0153227
0.0146034
0.0138615
0.01321
0.0127338
0.0124746
0.012419
0.0125054
0.0126511
0.0127832
0.0128561
0.0128506
0.000500251
0.00398337
0.0070388
0.0094001
0.0114512
0.0132555
0.0147586
0.015854
0.0164829
0.016657
0.0164419
0.0159325
0.0152397
0.0144786
0.0137619
0.0131828
0.0128001
0.0126234
0.0126108
0.0126877
0.0127784
0.0128293
0.0128142
0.000488265
0.0038802
0.0068853
0.0092169
0.0112636
0.0131102
0.0147207
0.0159664
0.0167504
0.0170631
0.0169624
0.0165372
0.015891
0.0151328
0.0143723
0.0137079
0.0132116
0.0129141
0.0127943
0.0127899
0.0128259
0.0128426
0.0128075
0.00047653
0.00377751
0.00673462
0.00903094
0.011057
0.0129191
0.0146122
0.0160094
0.0169618
0.017427
0.0174544
0.0171287
0.0165472
0.0158122
0.0150271
0.0142951
0.0136977
0.0132832
0.0130519
0.0129567
0.0129267
0.0128979
0.0128321
0.000465357
0.00367641
0.00658834
0.00884771
0.0108455
0.0127003
0.014437
0.0159717
0.017108
0.0177426
0.017912
0.0176998
0.017198
0.0165027
0.0157127
0.0149311
0.0142463
0.0137217
0.0133778
0.0131852
0.01308
0.0129957
0.0128891
0.000454813
0.00357567
0.00644445
0.00866662
0.0106335
0.0124696
0.0142162
0.015849
0.017178
0.0180023
0.0183292
0.0182443
0.0178358
0.0171954
0.0164177
0.0156038
0.0148462
0.0142203
0.0137655
0.0134712
0.0132836
0.0131357
0.012979
0.000444718
0.00347238
0.00629839
0.00848346
0.0104189
0.0122334
0.0139744
0.0156552
0.017161
0.0181986
0.0187012
0.0187573
0.0184547
0.0178828
0.0171329
0.0163027
0.0154868
0.0147695
0.0142075
0.0138095
0.0135342
0.0133161
0.0131019
0.000434755
0.00336413
0.00614688
0.00829461
0.0101983
0.0119914
0.0137244
0.0154236
0.0170543
0.0183203
0.0190223
0.0192342
0.0190493
0.0185585
0.0178505
0.0170188
0.0161583
0.0153602
0.0146963
0.0141945
0.013828
0.0135347
0.0132567
0.000424669
0.00325043
0.00598954
0.00810016
0.00997139
0.0117431
0.013468
0.0151759
0.0168764
0.0183576
0.0192852
0.0196694
0.0196147
0.0192172
0.0185641
0.0177441
0.0168518
0.0159835
0.015224
0.0146199
0.0141601
0.0137878
0.0134414
0.000414388
0.00313282
0.00582899
0.00790336
0.00974115
0.01149
0.0132057
0.0149195
0.0166528
0.0183086
0.0194826
0.0200578
0.0201467
0.0198539
0.0192679
0.0184711
0.0175588
0.0166306
0.0157829
0.0150794
0.0145254
0.0140713
0.0136529
0.000403992
0.00301397
0.00566954
0.00770952
0.00951302
0.0112369
0.0129412
0.0146577
0.0164075
0.0181746
0.0196039
0.0203958
0.0206428
0.0204652
0.0199554
0.0191931
0.0182713
0.0172932
0.0163649
0.0155661
0.0149181
0.01438
0.0138866
0.000393736
0.00289689
0.00551674
0.0075254
0.0092938
0.0109895
0.0126786
0.0143933
0.0161543
0.0179722
0.0196352
0.0206776
0.0211002
0.0210484
0.0206231
0.0199036
0.018981
0.0179622
0.0169621
0.0160734
0.0153323
0.014708
0.0141366
0.000384228
0.00277909
0.00537139
0.00735369
0.00908689
0.0107516
0.0124215
0.0141311
0.0158999
0.01774
0.01957
0.0208912
0.0215131
0.0215988
0.0212648
0.020594
0.0196782
0.0186283
0.0175663
0.0165949
0.0157623
0.0150485
0.0143951
0.000375294
0.00266293
0.00523494
0.00719707
0.00889606
0.0105276
0.0121746
0.0138754
0.0156485
0.0175039
0.0194214
0.0210128
0.0218674
0.0221047
0.0218683
0.021252
0.020351
0.0192816
0.0181704
0.017125
0.0162021
0.0153936
0.0146519
0.000366936
0.00255024
0.00510783
0.00705707
0.00872417
0.010321
0.011942
0.0136295
0.0154029
0.0172695
0.0192266
0.0210314
0.0221439
0.0225449
0.0224142
0.0218614
0.0209867
0.0199132
0.0187686
0.0176595
0.0166463
0.015734
0.0148939
0.000359138
0.00244213
0.00498966
0.00693414
0.00857308
0.0101348
0.0117269
0.0133967
0.0151653
0.0170365
0.0190083
0.0209606
0.0223166
0.0228959
0.0228824
0.0224049
0.0215731
0.0205159
0.0193574
0.0181954
0.0170886
0.0160584
0.0151044
0.000351862
0.0023389
0.0048793
0.0068277
0.00844364
0.00997075
0.0115318
0.0131802
0.0149378
0.016806
0.0187758
0.0207917
0.0223666
0.0231348
0.0232519
0.0228634
0.0220967
0.0210831
0.0199343
0.0187297
0.0175221
0.0163545
0.0152655
0.000345057
0.00224017
0.00477489
0.00673619
0.00833571
0.00983015
0.0113586
0.0129822
0.0147224
0.01658
0.0185378
0.0205479
0.0222768
0.0232484
0.0234985
0.0232144
0.0225435
0.021609
0.0204968
0.0192581
0.0179399
0.0166141
0.0153661
0.000338658
0.00214486
0.00467375
0.006657
0.00824805
0.00971307
0.0112083
0.012804
0.0145212
0.016361
0.0182985
0.020281
0.0220815
0.0232285
0.0236142
0.0234575
0.022921
0.0221062
0.0210579
0.0197933
0.0183587
0.0168585
0.015424
0.000332593
0.00205113
0.00457205
0.00658632
0.00817827
0.00961867
0.0110812
0.0126469
0.0143378
0.0161538
0.0180678
0.0200249
0.0218377
0.0230927
0.0236213
0.0236323
0.0232813
0.0226259
0.0216593
0.0203719
0.0188186
0.0171319
0.0154791
0.000326774
0.00195643
0.00446434
0.00651884
0.00812286
0.00954542
0.0109775
0.0125134
0.0141796
0.0159732
0.0178753
0.0198268
0.0216417
0.022954
0.0236313
0.0238473
0.0237134
0.0232257
0.0223337
0.0210215
0.0193593
0.0174876
0.0155868
0.000321094
0.00185783
0.00434302
0.00644741
0.00807722
0.00949158
0.0108984
0.0124086
0.0140593
0.0158497
0.0177808
0.0198062
0.0217245
0.0230799
0.0238532
0.0242486
0.0242927
0.0239237
0.0230749
0.021747
0.0200126
0.0179818
0.0158147
0.000315436
0.00175307
0.00419822
0.00636253
0.00803579
0.00945598
0.0108469
0.0123407
0.0139941
0.0158196
0.0178413
0.0200445
0.0222402
0.0237003
0.0244123
0.0248435
0.024945
0.0246069
0.0237839
0.0224929
0.0207704
0.0186458
0.0162195
0.000309661
0.00164196
0.00401871
0.0062522
0.00799232
0.00943922
0.0108302
0.0123241
0.014007
0.0159138
0.0180638
0.0204373
0.0228664
0.0245488
0.0251241
0.025348
0.02532
0.0249467
0.0241982
0.0230802
0.0215313
0.0194424
0.0168121
0.000303732
0.00152997
0.00379512
0.0061002
0.00793709
0.00944199
0.0108587
0.0123789
0.0141271
0.0161588
0.0184334
0.0208186
0.0230856
0.0248655
0.0254866
0.0253046
0.0249708
0.024501
0.0239109
0.023163
0.0220456
0.020224
0.0175239
0.00029749
0.00142176
0.00351779
0.00587676
0.00784244
0.00944945
0.0109302
0.0125117
0.0143654
0.0165541
0.0189348
0.0211523
0.0228802
0.0241276
0.024489
0.0241376
0.0237124
0.0231907
0.0227604
0.0224778
0.0220067
0.0207306
0.0181886
0.000291865
0.00135535
0.00320274
0.0055358
0.00764268
0.00940488
0.0109994
0.012676
0.0146531
0.0169863
0.0194167
0.0212747
0.0218594
0.0220693
0.0219154
0.0217615
0.0217618
0.0212512
0.020968
0.0209178
0.0211412
0.0206301
0.0185163
0.000286053
0.00128607
0.00279505
0.00498586
0.00723476
0.00920467
0.0109558
0.0127335
0.0147796
0.0171328
0.019438
0.0204966
0.0195773
0.0187875
0.0182855
0.0174135
0.0187671
0.0189201
0.01847
0.0180315
0.0191684
0.0195328
0.0177968
0.000471932
0.000484533
0.00050019
0.000517232
0.00271194
0.00264632
0.00269465
0.0029488
0.00568315
0.00572991
0.00584246
0.00605226
0.00827215
0.00836687
0.00849641
0.0086619
0.0101915
0.0102738
0.0103661
0.010464
0.0115211
0.0115688
0.011613
0.0116492
0.0123707
0.0123809
0.0123814
0.0123686
0.0128551
0.0128334
0.0127993
0.0127503
0.0130802
0.0130354
0.0129765
0.0129025
0.0131376
0.0130784
0.0130038
0.0129137
0.0131005
0.0130344
0.012951
0.0128516
0.0130213
0.0129539
0.012867
0.0127629
0.012934
0.0128689
0.012782
0.0126761
0.012857
0.0127961
0.0127111
0.0126054
0.0127991
0.0127424
0.01266
0.0125554
0.0127632
0.0127093
0.0126292
0.0125257
0.0127503
0.0126965
0.0126171
0.012514
0.0127606
0.0127032
0.0126219
0.0125177
0.0127946
0.0127292
0.0126426
0.0125351
0.0128533
0.0127747
0.0126789
0.0125649
0.012937
0.0128405
0.0127309
0.0126069
0.0130461
0.0129268
0.0127989
0.012661
0.0131797
0.0130335
0.0128829
0.012727
0.013336
0.0131593
0.0129821
0.0128042
0.0135116
0.0133016
0.0130944
0.0128909
0.0137014
0.0134557
0.013216
0.0129838
0.0138978
0.0136149
0.0133407
0.0130776
0.0140903
0.0137689
0.0134591
0.013164
0.0142649
0.0139038
0.0135581
0.0132308
0.0144029
0.0140007
0.0136196
0.0132615
0.0144828
0.0140373
0.0136213
0.0132351
0.0144884
0.0139937
0.0135403
0.0131272
0.0144283
0.0138704
0.0133707
0.0129275
0.014331
0.0136858
0.0131211
0.0126358
0.0142432
0.0134758
0.0128152
0.0122646
0.0142283
0.0132949
0.012495
0.0118431
0.0143479
0.0132012
0.0122106
0.0114111
0.0146301
0.0132287
0.0119953
0.0110008
0.015037
0.0133532
0.0118341
0.0106083
0.0154421
0.0134614
0.0116198
0.0101488
0.0155705
0.0132558
0.0110162
0.00933498
0.0145809
0.0117274
0.00875515
0.00744011
0.00164904
0.00407859
0.00554669
0.00643711
0.0068879
0.00702383
0.00694387
0.00673443
0.00645011
0.00611385
0.00572924
0.00529082
0.00479049
0.0042206
0.00357527
0.00285023
0.00204087
0.0011388
0.000204886
0.00391673
0.00566287
0.00693287
0.00771299
0.00808004
0.00812896
0.00795904
0.00765923
0.00728228
0.00685158
0.00637157
0.00583749
0.00524195
0.00457854
0.00384323
0.00303395
0.00214831
0.00118103
0.00020962
0.00651128
0.00758901
0.00844451
0.00895491
0.00912752
0.00903445
0.00876108
0.00837459
0.00791721
0.00740816
0.00685087
0.00624073
0.00557105
0.0048364
0.00403387
0.00316251
0.00222099
0.00120703
0.000213314
0.00891163
0.00943085
0.00983628
0.0100204
0.00997546
0.00974106
0.00937041
0.00890934
0.00838756
0.00781819
0.0072024
0.0065352
0.00581026
0.00502278
0.00417046
0.00325289
0.00226961
0.00122187
0.000216377
0.0105817
0.0107719
0.0108695
0.0108142
0.0106007
0.0102533
0.00980637
0.0092897
0.00872219
0.008111
0.0074547
0.00674762
0.00598358
0.00515813
0.00426931
0.00331711
0.00230199
0.00122934
0.000219086
0.0116684
0.0116563
0.0115566
0.011342
0.0110138
0.01059
0.0100933
0.00954247
0.00894806
0.0083123
0.00763146
0.00689917
0.00610927
0.00525758
0.00434238
0.00336402
0.00232406
0.00123235
0.000221609
0.0123159
0.0121768
0.0119555
0.0116439
0.0112478
0.0107815
0.0102602
0.00969499
0.00909032
0.00844463
0.00775241
0.00700671
0.00620141
0.00533252
0.00439855
0.00340023
0.00234023
0.001233
0.000224049
0.0126471
0.0124295
0.0121379
0.0117738
0.0113451
0.0108631
0.0103374
0.00977354
0.00917156
0.00852721
0.00783363
0.0070835
0.00627071
0.00539143
0.00444437
0.00343053
0.00235366
0.00123279
0.000226458
0.0127653
0.0125014
0.0121731
0.0117862
0.0113489
0.0108695
0.0103532
0.00980132
0.00921092
0.00857568
0.00788781
0.00713966
0.00632514
0.00544049
0.00448447
0.00345828
0.00236652
0.00123271
0.000228864
0.0127547
0.0124649
0.0121203
0.0117284
0.0112966
0.0108301
0.0103309
0.00979714
0.00922345
0.00860207
0.00792444
0.00718262
0.0063704
0.00548395
0.00452199
0.00348566
0.0023802
0.00123337
0.000231274
0.0126787
0.0123753
0.0120252
0.0116371
0.0112168
0.0107675
0.0102883
0.00977495
0.00922017
0.00861502
0.00795025
0.0072175
0.00641031
0.00552463
0.00455889
0.00351401
0.00239553
0.00123516
0.000233685
0.0125812
0.0122701
0.011919
0.011537
0.0111293
0.010697
0.0102374
0.00974419
0.0092085
0.00862035
0.0079697
0.00724766
0.00644732
0.00556422
0.0045963
0.00354403
0.00241296
0.00123828
0.000236086
0.0124885
0.0121718
0.01182
0.0114429
0.0110456
0.0106279
0.0101855
0.00971063
0.00919306
0.00862169
0.0079856
0.00727518
0.0064829
0.00560368
0.00463482
0.00357607
0.00243269
0.00124285
0.000238466
0.0124131
0.0120911
0.0117371
0.011362
0.0109714
0.0105646
0.0101363
0.00967745
0.00917648
0.00862117
0.00799961
0.00730129
0.00651789
0.00564352
0.00467469
0.00361024
0.0024548
0.00124894
0.000240811
0.0123592
0.0120312
0.0116727
0.0112963
0.0109084
0.0105088
0.0100914
0.00964606
0.00916008
0.00861997
0.0080127
0.00732672
0.00655275
0.005684
0.00471601
0.00364653
0.00247927
0.00125657
0.000243109
0.0123259
0.0119909
0.0116257
0.0112449
0.0108562
0.0104603
0.010051
0.00961695
0.00914448
0.00861875
0.00802547
0.00735196
0.00658785
0.00572532
0.00475882
0.00368492
0.00250609
0.00126579
0.000245351
0.0123101
0.011967
0.0115936
0.0112057
0.0108134
0.0104184
0.0100146
0.00959012
0.00912996
0.00861793
0.00803842
0.00737749
0.00662357
0.00576773
0.00480327
0.00372545
0.00253526
0.00127664
0.000247532
0.0123087
0.0119564
0.0115731
0.0111763
0.010778
0.0103817
0.00998167
0.00956544
0.00911674
0.00861797
0.00805211
0.00740387
0.00666043
0.00581165
0.00484964
0.00376826
0.00256684
0.00128917
0.000249655
0.0123193
0.0119559
0.0115616
0.0111543
0.0107484
0.0103492
0.00995165
0.00954279
0.00910504
0.00861935
0.00806719
0.00743185
0.00669918
0.00585776
0.00489843
0.00381367
0.002601
0.00130349
0.000251736
0.0123398
0.0119632
0.0115566
0.0111376
0.0107228
0.0103197
0.00992391
0.009522
0.0090951
0.0086226
0.0080844
0.00746232
0.00674076
0.00590694
0.0049504
0.00386221
0.00263802
0.00131975
0.000253806
0.0123694
0.0119767
0.0115561
0.0111244
0.0106998
0.0102921
0.0098978
0.00950288
0.00908711
0.00862824
0.00810457
0.0074963
0.00678631
0.00596034
0.00500657
0.0039146
0.00267829
0.00133814
0.000255916
0.0124072
0.0119948
0.0115584
0.0111128
0.0106778
0.0102652
0.00987255
0.00948512
0.00908116
0.00863675
0.00812849
0.00753489
0.00683715
0.00601935
0.00506817
0.00397175
0.00272229
0.00135887
0.000258146
0.0124527
0.0120165
0.011562
0.0111012
0.0106551
0.0102376
0.00984724
0.00946819
0.00907715
0.00864843
0.00815686
0.00757916
0.00689465
0.00608552
0.00513667
0.00403476
0.00277054
0.00138211
0.000260604
0.012505
0.0120407
0.0115655
0.0110879
0.01063
0.0102081
0.00982077
0.00945137
0.00907473
0.00866332
0.00819016
0.00763006
0.00696017
0.00616047
0.0052137
0.00410484
0.00282358
0.00140797
0.000263432
0.0125627
0.0120659
0.0115671
0.0110712
0.010601
0.010175
0.00979194
0.00943374
0.0090733
0.00868119
0.0082286
0.00768829
0.00703495
0.00624583
0.00530097
0.0041833
0.00288192
0.00143639
0.000266799
0.0126232
0.0120901
0.0115652
0.0110492
0.0105663
0.0101368
0.00975949
0.0094143
0.00907206
0.00870151
0.00827205
0.00775422
0.00711995
0.00634308
0.00540019
0.00427155
0.00294608
0.00146715
0.000270888
0.0126823
0.0121104
0.0115574
0.0110202
0.0105243
0.0100922
0.00972228
0.00939203
0.00907012
0.00872356
0.00832003
0.00782785
0.00721577
0.00645348
0.00551301
0.00437113
0.00301677
0.00150002
0.000275878
0.0127335
0.0121227
0.0115413
0.0109821
0.0104735
0.0100403
0.00967947
0.00936613
0.00906664
0.00874648
0.00837182
0.00790877
0.00732256
0.00657791
0.00564096
0.00448369
0.00309503
0.00153494
0.000281917
0.0127675
0.012121
0.0115133
0.0109334
0.0104131
0.00998035
0.00963072
0.00933618
0.00906098
0.0087694
0.00842645
0.00799615
0.00743997
0.00671676
0.0057853
0.00461104
0.00318244
0.00157244
0.000289088
0.0127712
0.012097
0.0114692
0.010872
0.0103426
0.00991272
0.00957636
0.0093023
0.00905289
0.00879165
0.00848287
0.00808882
0.00756708
0.00686986
0.00594688
0.00475497
0.00328114
0.00161386
0.000297391
0.0127264
0.0120385
0.011403
0.0107962
0.0102622
0.00983832
0.0095174
0.00926522
0.0090426
0.00881281
0.00854005
0.00818531
0.00770245
0.00703641
0.00612606
0.00491707
0.0033935
0.00166127
0.000306732
0.0126087
0.0119278
0.0113064
0.0107044
0.0101731
0.00975896
0.00945555
0.00922625
0.00903075
0.00883276
0.00859703
0.00828395
0.00784417
0.00721496
0.00632257
0.00509846
0.00352164
0.00171708
0.000316944
0.0124054
0.0117549
0.0111732
0.0105942
0.0100758
0.00967675
0.00939314
0.00918718
0.00901842
0.00885167
0.00865295
0.00838295
0.00798987
0.00740342
0.00653554
0.00529954
0.00366684
0.00178343
0.000327842
0.0121085
0.0115143
0.0110027
0.0104663
0.00997132
0.009593
0.0093317
0.00914951
0.00900677
0.0088699
0.00870707
0.00848039
0.0081368
0.00759909
0.00676343
0.0055208
0.00382926
0.00186159
0.000339284
0.0117155
0.0112014
0.0107947
0.0103224
0.0098614
0.00950941
0.00927292
0.00911483
0.00899678
0.00888765
0.00875857
0.00857425
0.00828208
0.00779948
0.00700616
0.00576505
0.00401217
0.00194925
0.000351268
0.011235
0.0108183
0.010553
0.010166
0.00974852
0.00942801
0.00921856
0.00908443
0.00898934
0.00890524
0.00880685
0.00866267
0.00842267
0.00800165
0.00726404
0.00603808
0.00422271
0.00204251
0.000363724
0.010689
0.010379
0.0102889
0.0100031
0.00963582
0.00935097
0.0091702
0.00905942
0.00898512
0.00892277
0.00885122
0.00874378
0.00855538
0.00820224
0.00753691
0.00634779
0.00447463
0.00215189
0.000376798
0.0101077
0.00991474
0.0100245
0.00984297
0.00952716
0.00928059
0.00912925
0.00904062
0.00898452
0.00894029
0.00889111
0.00881588
0.00867673
0.00839657
0.00782328
0.00670414
0.00478958
0.00229336
0.000390905
0.00951848
0.00947691
0.0097925
0.00969501
0.00942572
0.00921866
0.00909661
0.0090283
0.00898752
0.00895763
0.00892609
0.00887757
0.00878323
0.00857845
0.00811848
0.00711794
0.00520173
0.00249176
0.000406627
0.00892014
0.00912799
0.00961868
0.00955705
0.00932843
0.00916335
0.00907074
0.0090211
0.00899307
0.00897415
0.00895571
0.00892792
0.00887167
0.00874006
0.00841233
0.00759796
0.00576992
0.00279872
0.000425031
0.00826259
0.00893496
0.00948146
0.00940066
0.00922237
0.00910785
0.0090471
0.0090158
0.008999
0.00898859
0.00897951
0.00896655
0.00893976
0.00887258
0.00868593
0.00814058
0.00659966
0.00335037
0.000448454
0.00779634
0.00899516
0.00927862
0.00919005
0.00910037
0.00905011
0.00902461
0.00901178
0.00900511
0.00900128
0.00899838
0.00899475
0.00898747
0.00896838
0.0089095
0.00870062
0.00786212
0.00470545
0.000482249
)
;

boundaryField
{
    leftWall
    {
        type            nutkWallFunction;
        Cmu             0.09;
        kappa           0.41;
        E               9.8;
        value           nonuniform List<scalar> 
50
(
3.37167e-05
3.852e-05
4.22567e-05
4.52547e-05
4.70282e-05
4.86954e-05
5.01624e-05
5.13639e-05
5.31728e-05
5.43643e-05
5.50816e-05
5.54878e-05
5.57414e-05
5.58372e-05
5.57465e-05
5.5461e-05
5.49371e-05
5.41744e-05
5.32603e-05
5.22902e-05
5.12983e-05
5.02858e-05
4.92576e-05
4.82348e-05
4.72459e-05
4.63075e-05
4.54187e-05
4.45675e-05
4.37368e-05
4.29123e-05
4.2089e-05
4.1271e-05
4.04667e-05
3.96875e-05
3.89656e-05
3.82973e-05
3.7678e-05
3.71033e-05
3.65682e-05
3.60676e-05
3.55957e-05
3.51463e-05
3.47119e-05
3.42838e-05
3.38533e-05
3.34102e-05
3.29549e-05
3.24698e-05
3.20833e-05
3.16562e-05
)
;
    }
    rightWall
    {
        type            nutkWallFunction;
        Cmu             0.09;
        kappa           0.41;
        E               9.8;
        value           nonuniform List<scalar> 
50
(
1.09535e-05
1.27863e-05
1.51318e-05
1.68544e-05
1.80872e-05
1.90205e-05
1.97605e-05
2.03708e-05
2.09777e-05
2.16391e-05
2.21534e-05
2.25797e-05
2.2957e-05
2.33087e-05
2.36485e-05
2.39836e-05
2.43173e-05
2.46507e-05
2.49833e-05
2.53138e-05
2.56404e-05
2.59614e-05
2.6275e-05
2.65799e-05
2.68751e-05
2.71607e-05
2.7438e-05
2.77099e-05
2.79821e-05
2.82632e-05
2.8566e-05
2.89079e-05
2.93105e-05
2.97997e-05
3.04026e-05
3.11453e-05
3.2048e-05
3.31209e-05
3.4361e-05
3.57522e-05
3.72696e-05
3.88871e-05
4.05884e-05
4.23689e-05
4.42316e-05
4.62104e-05
4.83644e-05
5.08028e-05
5.37665e-05
5.77918e-05
)
;
    }
    lowerWall
    {
        type            nutkWallFunction;
        Cmu             0.09;
        kappa           0.41;
        E               9.8;
        value           nonuniform List<scalar> 
62
(
1.68489e-05
1.5665e-05
1.67511e-05
1.43225e-05
1.45019e-05
1.49444e-05
1.54684e-05
1.59497e-05
1.6418e-05
1.68458e-05
1.72241e-05
1.76048e-05
1.80264e-05
1.85196e-05
1.90881e-05
1.971e-05
2.04108e-05
2.11238e-05
2.06721e-05
1.87798e-05
1.59052e-05
1.23145e-05
6.69771e-06
6.69771e-06
3.30389e-05
3.46713e-05
3.38973e-05
3.19916e-05
3.04673e-05
3.0002e-05
3.44696e-05
5.76456e-05
5.91304e-05
6.10964e-05
6.32296e-05
0
1.97686e-05
2.69059e-05
3.25706e-05
3.77197e-05
4.28358e-05
4.82507e-05
5.53378e-05
0
1.31679e-06
2.83796e-06
3.6401e-06
4.14549e-06
4.49016e-06
4.70894e-06
4.86132e-06
4.89517e-06
4.83251e-06
4.68096e-06
4.43786e-06
4.09142e-06
3.61926e-06
2.98472e-06
2.12081e-06
8.93802e-07
0
0
)
;
    }
    atmosphere
    {
        type            calculated;
        value           nonuniform List<scalar> 
46
(
0.000286053
0.00128607
0.00279505
0.00498586
0.00723476
0.00920467
0.0109558
0.0127335
0.0147796
0.0171328
0.019438
0.0204966
0.0195773
0.009
0.009
0.009
0.0187671
0.0189201
0.01847
0.0180315
0.0191684
0.0195328
0.0177968
0.0145809
0.0117274
0.009
0.009
0.009
0.009
0.009
0.009
0.009
0.009
0.009
0.009
0.009
0.009
0.009
0.009
0.009
0.009
0.009
0.009
0.009
0.009
0.009
)
;
    }
    defaultFaces
    {
        type            empty;
    }
}


// ************************************************************************* //
