/*--------------------------------*- C++ -*----------------------------------*\
  =========                 |
  \\      /  F ield         | OpenFOAM: The Open Source CFD Toolbox
   \\    /   O peration     | Website:  https://openfoam.org
    \\  /    A nd           | Version:  9
     \\/     M anipulation  |
\*---------------------------------------------------------------------------*/
FoamFile
{
    format      ascii;
    class       volScalarField;
    location    "0.3";
    object      p;
}
// * * * * * * * * * * * * * * * * * * * * * * * * * * * * * * * * * * * * * //

dimensions      [1 -1 -2 0 0 0 0];

internalField   nonuniform List<scalar> 
2268
(
1230.03
1234.87
1247.06
1262.56
1276.65
1288.41
1297.65
1304.65
1309.78
1313.43
1316.13
1318.66
1322.17
1328.43
1340.17
1361.88
1398.86
1455.77
1532.9
1619.63
1695.65
1720.28
1774.24
1170.07
1173.03
1183.56
1196.97
1209.53
1220.15
1228.53
1234.79
1239.26
1242.37
1244.73
1247.19
1251.03
1258.13
1271.26
1294.3
1333.21
1393.28
1476.43
1572.08
1655.15
1668.53
1719.09
1109.27
1112.51
1120.96
1131.83
1142.15
1150.9
1157.71
1162.6
1165.88
1168
1169.66
1171.82
1175.88
1183.86
1198.6
1223.91
1265.05
1327.08
1412.17
1510.62
1600.02
1622.6
1679.05
1047.87
1052.03
1059.3
1068.08
1076.28
1083.06
1088.1
1091.4
1093.25
1094.16
1094.87
1096.44
1100.35
1108.68
1124.27
1150.72
1192.5
1254.02
1337.03
1433.26
1525.2
1569.82
1652.83
985.846
991.119
997.758
1004.96
1011.39
1016.42
1019.78
1021.53
1021.95
1021.59
1021.22
1021.96
1025.34
1033.42
1048.94
1075.2
1115.96
1174.81
1253.08
1344.42
1434.91
1502.58
1611.82
923.214
929.49
935.715
941.622
946.55
950.008
951.842
952.127
951.174
949.537
948.033
947.787
950.325
957.677
972.418
997.475
1035.95
1090.6
1162.29
1246.18
1329.96
1415.87
1537.29
860.003
867.1
872.929
877.657
881.226
883.262
883.68
882.589
880.316
877.425
874.74
873.384
874.857
881.117
894.55
917.685
952.939
1002.24
1065.69
1138.84
1208.53
1300.99
1395.92
796.257
803.948
809.323
812.903
815.199
815.949
815.083
812.736
809.241
805.163
801.313
798.788
799.039
803.933
815.64
836.236
867.437
910.284
963.719
1021.92
1068.59
1133.27
1143
10.2973
10.3008
10.3133
10.3245
10.3365
10.3483
10.3561
10.3573
10.3504
10.3362
10.3156
10.2915
10.2658
10.2406
10.2176
10.1983
10.1838
10.1745
10.1705
10.2383
10.2444
10.257
10.2655
10.2754
10.2859
10.2931
10.2943
10.2878
10.2741
10.2544
10.2309
10.2058
10.181
10.1583
10.1391
10.1245
10.1152
10.111
10.1747
10.1826
10.1984
10.206
10.2142
10.2236
10.2301
10.2312
10.225
10.2119
10.1929
10.1701
10.1454
10.1209
10.0983
10.0791
10.0643
10.0548
10.0505
10.1043
10.1147
10.1374
10.1457
10.1535
10.1627
10.169
10.1701
10.164
10.1509
10.1322
10.1096
10.085
10.0604
10.0375
10.018
10.003
9.99334
9.989
10.0226
10.0406
10.0759
10.0857
10.0938
10.1037
10.1104
10.1115
10.1053
10.0918
10.0726
10.0496
10.0245
9.99933
9.97596
9.956
9.94064
9.93078
9.9265
9.92394
9.9582
10.0162
10.0269
10.0353
10.0463
10.054
10.0554
10.0489
10.0344
10.0141
9.98991
9.96378
9.93771
9.91356
9.89298
9.87718
9.86713
9.86292
9.80023
9.86416
9.96256
9.97083
9.97767
9.99032
9.99953
10.0016
9.99457
9.97887
9.95674
9.93071
9.90296
9.87554
9.85034
9.82896
9.81262
9.80235
9.7982
9.65969
9.77575
9.93047
9.91577
9.91661
9.93302
9.94571
9.94903
9.94163
9.92448
9.90023
9.87187
9.84201
9.81286
9.78632
9.76394
9.74693
9.7364
9.73227
695.778
703.837
708.377
710.235
710.678
709.641
707.025
702.968
697.8
692.064
686.519
682.171
680.356
682.783
691.273
707.133
731.006
762.455
798.232
828.669
829.974
760.317
408.866
557.134
565.02
567.577
566.986
565.124
561.908
557.188
551.067
543.836
535.97
528.098
521.023
515.906
514.409
518.191
527.53
541.797
559.421
576.404
582.889
556.55
464.119
310.546
417.526
424.109
423.603
420.138
415.765
410.199
403.236
394.909
385.439
375.233
364.716
354.343
345.075
339.056
338.662
342.744
349.361
356.975
363.335
363.617
347.76
305.46
257.763
277.457
280.843
276.034
268.828
261.087
252.62
243.164
232.574
221.026
208.951
196.475
183.289
169.8
159.369
157.115
158.871
160.453
160.537
159.358
156.759
149.945
132.658
106.228
142.789
138.139
125.912
115.863
106.66
97.9169
89.0465
79.6561
70.0604
60.945
52.2811
43.2304
33.7642
26.7117
26.3056
27.3721
26.1488
21.3358
12.4621
2.95272
-5.84528
-14.0739
-23.0414
45.376
32.4833
21.1726
18.562
16.1707
13.8741
11.4946
8.92508
6.3876
4.1999
2.24355
0.135961
-1.88146
-2.8174
-2.67598
-2.39103
-2.60766
-3.65681
-6.16837
-11.0138
-17.2077
-24.2791
-35.8184
-1.41068
-1.73577
-2.0449
-2.5568
-2.64885
-2.6563
-2.67793
-2.70604
-2.73221
-2.75318
-2.7807
-2.85477
-2.95862
-2.92887
-2.91809
-2.99308
-3.20579
-3.54884
-3.98342
-4.44501
-4.89336
-5.36495
-7.69667
-2.93153
-2.60595
-2.55828
-2.59771
-2.59001
-2.57831
-2.58503
-2.60718
-2.64119
-2.68673
-2.74634
-2.82556
-2.92354
-3.01821
-3.08816
-3.17998
-3.30627
-3.4528
-3.60469
-3.74658
-3.8652
-3.96597
-4.36845
-2.93633
-2.85903
-2.77978
-2.7757
-2.78562
-2.79599
-2.8157
-2.84681
-2.88854
-2.94116
-3.00602
-3.08421
-3.17383
-3.26792
-3.36034
-3.46935
-3.60474
-3.76444
-3.94267
-4.13126
-4.31474
-4.4486
-4.49912
-3.05833
-2.9992
-2.95985
-2.95348
-2.9667
-2.9863
-3.01387
-3.05123
-3.09859
-3.15633
-3.22526
-3.3057
-3.39592
-3.49247
-3.59569
-3.71337
-3.8516
-4.01046
-4.18576
-4.37066
-4.55656
-4.73231
-4.91119
-3.18591
-3.15245
-3.13374
-3.13238
-3.14602
-3.16903
-3.2009
-3.24249
-3.29416
-3.35622
-3.429
-3.5124
-3.60535
-3.70631
-3.81595
-3.93787
-4.07535
-4.229
-4.39678
-4.5751
-4.76066
-4.95123
-5.15312
-3.33784
-3.31888
-3.30859
-3.31136
-3.32673
-3.35221
-3.38715
-3.4319
-3.48681
-3.55209
-3.62777
-3.71353
-3.80864
-3.91242
-4.02531
-4.14918
-4.28601
-4.43672
-4.60097
-4.77754
-4.96547
-5.16344
-5.3739
-3.48995
-3.48395
-3.48
-3.48659
-3.50422
-3.53184
-3.56908
-3.6162
-3.67347
-3.741
-3.81861
-3.90589
-4.00226
-4.10735
-4.22155
-4.34606
-4.48244
-4.63188
-4.79499
-4.97203
-5.16362
-5.36932
-5.59039
-3.64113
-3.64344
-3.64481
-3.65502
-3.67497
-3.70445
-3.74349
-3.79233
-3.85123
-3.92019
-3.99892
-4.08693
-4.18375
-4.28922
-4.40376
-4.52844
-4.66472
-4.81405
-4.97781
-5.15744
-5.355
-5.57161
-5.80887
-3.78832
-3.79573
-3.80147
-3.8149
-3.837
-3.86813
-3.90857
-3.95867
-4.01863
-4.08839
-4.16758
-4.25573
-4.35245
-4.45778
-4.5723
-4.69719
-4.83404
-4.98467
-5.15116
-5.33601
-5.54268
-5.77415
-6.03342
-3.92962
-3.93968
-3.94908
-3.96534
-3.98938
-4.02192
-4.06346
-4.11443
-4.17501
-4.24509
-4.32429
-4.41216
-4.50848
-4.61349
-4.728
-4.85341
-4.9916
-5.14484
-5.31587
-5.5082
-5.72655
-5.97574
-6.26072
-4.06378
-4.07522
-4.08749
-4.10618
-4.13189
-4.16557
-4.2079
-4.25939
-4.32022
-4.39026
-4.46913
-4.55648
-4.65226
-4.75692
-4.87154
-4.99779
-5.13783
-5.2944
-5.47087
-5.67157
-5.90226
-6.16925
-6.47951
-4.19075
-4.20188
-4.21719
-4.23783
-4.2648
-4.29928
-4.34209
-4.39377
-4.45451
-4.52418
-4.60245
-4.68907
-4.78418
-4.88847
-5.00322
-5.13033
-5.27222
-5.43198
-5.61347
-5.82163
-6.06286
-6.34438
-6.67465
-4.30978
-4.32149
-4.33866
-4.36073
-4.38858
-4.42352
-4.46647
-4.51799
-4.57831
-4.6473
-4.72467
-4.81031
-4.90454
-5.00823
-5.12287
-5.25046
-5.39357
-5.55549
-5.74022
-5.95328
-6.20113
-6.49118
-6.83263
-4.42183
-4.43408
-4.45243
-4.47543
-4.50378
-4.53885
-4.58159
-4.63261
-4.69214
-4.76007
-4.8362
-4.9205
-5.01344
-5.11608
-5.23
-5.35724
-5.5004
-5.66288
-5.84778
-6.06218
-6.31137
-6.60236
-6.94437
-4.52756
-4.54008
-4.55905
-4.58252
-4.61101
-4.64587
-4.68807
-4.73823
-4.79659
-4.86307
-4.93751
-5.01997
-5.11105
-5.2119
-5.32413
-5.44974
-5.59116
-5.75149
-5.93459
-6.14576
-6.39059
-6.67478
-7.00683
-4.62753
-4.63999
-4.6591
-4.68263
-4.71091
-4.74524
-4.78656
-4.83548
-4.89226
-4.95685
-5.02911
-5.10918
-5.19768
-5.29581
-5.40516
-5.52759
-5.66529
-5.82111
-5.99876
-6.2028
-6.43811
-6.70888
-7.02266
-4.72219
-4.73431
-4.75314
-4.77636
-4.80412
-4.83761
-4.8777
-4.92501
-4.97979
-5.04201
-5.11158
-5.18861
-5.27376
-5.36817
-5.47334
-5.59095
-5.72292
-5.87175
-6.04075
-6.23393
-6.45524
-6.70747
-6.99757
-4.81189
-4.82347
-4.84169
-4.86428
-4.89124
-4.92359
-4.96214
-5.00745
-5.0598
-5.11918
-5.1855
-5.25886
-5.33986
-5.42955
-5.5293
-5.64053
-5.76487
-5.90442
-6.06203
-6.24109
-6.44467
-6.67441
-6.93675
-4.89698
-4.90787
-4.92522
-4.94694
-4.97285
-5.0038
-5.04049
-5.08345
-5.13296
-5.18903
-5.25157
-5.32064
-5.39675
-5.4808
-5.57398
-5.67746
-5.79254
-5.92091
-6.06487
-6.22718
-6.41006
-6.61417
-6.84515
-4.97776
-4.98788
-5.00419
-5.02483
-5.04949
-5.07881
-5.11339
-5.15368
-5.19997
-5.2523
-5.31057
-5.3748
-5.44537
-5.523
-5.60865
-5.70326
-5.80778
-5.92348
-6.05214
-6.19583
-6.35595
-6.53227
-6.72912
-5.05454
-5.06387
-5.07903
-5.09844
-5.12168
-5.1492
-5.18145
-5.21883
-5.2616
-5.30981
-5.3634
-5.42233
-5.48682
-5.55743
-5.63486
-5.71975
-5.81278
-5.91481
-6.0271
-6.15107
-6.28738
-6.43502
-6.59653
-5.12765
-5.1362
-5.15016
-5.16824
-5.18994
-5.21552
-5.24529
-5.27957
-5.31859
-5.36242
-5.411
-5.46426
-5.52231
-5.58549
-5.65425
-5.72898
-5.81001
-5.89786
-5.99331
-6.09722
-6.20966
-6.329
-6.45599
-5.19741
-5.20521
-5.21797
-5.23465
-5.25471
-5.27826
-5.30547
-5.33655
-5.37169
-5.41097
-5.45434
-5.50169
-5.55305
-5.60859
-5.66851
-5.73295
-5.80194
-5.87564
-5.95441
-6.03863
-6.12795
-6.22048
-6.31547
-5.26416
-5.27125
-5.28282
-5.29807
-5.31644
-5.33789
-5.36248
-5.39032
-5.42156
-5.45624
-5.49431
-5.53566
-5.58023
-5.62807
-5.67919
-5.73351
-5.79079
-5.85087
-5.91372
-5.9793
-6.04701
-6.11497
-6.18153
-5.32822
-5.33464
-5.34505
-5.35887
-5.37549
-5.3948
-5.41676
-5.4414
-5.46878
-5.49892
-5.53175
-5.56715
-5.605
-5.64524
-5.68777
-5.73233
-5.7785
-5.82583
-5.87398
-5.92256
-5.9708
-6.01699
-6.05914
-5.38989
-5.39571
-5.40501
-5.41739
-5.43225
-5.44939
-5.46873
-5.49022
-5.51384
-5.53959
-5.56736
-5.59701
-5.62837
-5.6613
-5.69562
-5.73096
-5.76679
-5.80248
-5.83744
-5.87103
-5.90236
-5.92995
-5.95181
-5.44945
-5.45481
-5.46302
-5.474
-5.48706
-5.50203
-5.51877
-5.53717
-5.55719
-5.57875
-5.60173
-5.62594
-5.65119
-5.67727
-5.70392
-5.73075
-5.75716
-5.78245
-5.80588
-5.82666
-5.84382
-5.85615
-5.86177
-5.50726
-5.5123
-5.51945
-5.52906
-5.54031
-5.55309
-5.56725
-5.58266
-5.59922
-5.61682
-5.63531
-5.65448
-5.67408
-5.69388
-5.71356
-5.73271
-5.75074
-5.76695
-5.78056
-5.79071
-5.79645
-5.79676
-5.79001
-5.56374
-5.56861
-5.57466
-5.58292
-5.59236
-5.60294
-5.61456
-5.62706
-5.64033
-5.6542
-5.66851
-5.68303
-5.6975
-5.71164
-5.72512
-5.73751
-5.74827
-5.75674
-5.76219
-5.7638
-5.76068
-5.75202
-5.73643
-5.61887
-5.62411
-5.62896
-5.63595
-5.64358
-5.65198
-5.6611
-5.67079
-5.68091
-5.69128
-5.7017
-5.71195
-5.72178
-5.73088
-5.73893
-5.74552
-5.75013
-5.75219
-5.75106
-5.74603
-5.73634
-5.72138
-5.70004
-5.67176
-5.67908
-5.68262
-5.68844
-5.69426
-5.70049
-5.70716
-5.71415
-5.72129
-5.72836
-5.73519
-5.74153
-5.74717
-5.75183
-5.7552
-5.75688
-5.75643
-5.75334
-5.74709
-5.73711
-5.72282
-5.70383
-5.6793
-5.72247
-5.73406
-5.73574
-5.74043
-5.74445
-5.74853
-5.75284
-5.75725
-5.76156
-5.76557
-5.76906
-5.77185
-5.77374
-5.7745
-5.77387
-5.77151
-5.76701
-5.75994
-5.74989
-5.73645
-5.71923
-5.69806
-5.67238
-5.77398
-5.79117
-5.78906
-5.79256
-5.79477
-5.7967
-5.79869
-5.80062
-5.80226
-5.80339
-5.80384
-5.80341
-5.80197
-5.79934
-5.79532
-5.78964
-5.78196
-5.77194
-5.75923
-5.74355
-5.72474
-5.70282
-5.6775
-5.82566
-5.85697
-5.8463
-5.84743
-5.84761
-5.84731
-5.84697
-5.84649
-5.8456
-5.8441
-5.84179
-5.83852
-5.83417
-5.82864
-5.82177
-5.81339
-5.80321
-5.79098
-5.77643
-5.75941
-5.7399
-5.71812
-5.69396
-5.85998
-5.93903
-5.91018
-5.90457
-5.9018
-5.89912
-5.89648
-5.89369
-5.89048
-5.88661
-5.8819
-5.87623
-5.86949
-5.86161
-5.8525
-5.84201
-5.82999
-5.81624
-5.80063
-5.78307
-5.76366
-5.74268
-5.72066
-5.85832
-6.01619
-5.96071
-5.94581
-5.93924
-5.93401
-5.92907
-5.92398
-5.91843
-5.91223
-5.90523
-5.89733
-5.88846
-5.87857
-5.86762
-5.85556
-5.84236
-5.82798
-5.81243
-5.79574
-5.77801
-5.75941
-5.74004
-294.123
-209.274
-61.3381
-21.3085
157.824
117.796
61.348
-10.7932
199.008
143.178
90.2911
51.4433
73.5768
53.9668
41.026
30.7664
-31.0731
-29.3427
-24.7512
-22.316
-49.1147
-52.0875
-54.1325
-54.5396
-10.2335
-11.6229
-13.3957
-15.8743
-5.0038
-5.5554
-6.15348
-6.6553
-4.62464
-4.72866
-4.83183
-4.93257
-5.11643
-5.24937
-5.36376
-5.43136
-5.32204
-5.43854
-5.56285
-5.67835
-5.54501
-5.6649
-5.79522
-5.92008
-5.77147
-5.90045
-6.04203
-6.17842
-6.0072
-6.15033
-6.30777
-6.46124
-6.25552
-6.41689
-6.59383
-6.76809
-6.5092
-6.68966
-6.88626
-7.08161
-6.75287
-6.95097
-7.16559
-7.38134
-6.96731
-7.17972
-7.41022
-7.6456
-7.13579
-7.35676
-7.59834
-7.84851
-7.24773
-7.46937
-7.71263
-7.96603
-7.30078
-7.51562
-7.75117
-7.99836
-7.30016
-7.50316
-7.72654
-7.96445
-7.25442
-7.44263
-7.65081
-7.87542
-7.16946
-7.34026
-7.52984
-7.73479
-7.04972
-7.19978
-7.36605
-7.54404
-6.90193
-7.02798
-7.16655
-7.31234
-6.73556
-6.83558
-6.94397
-7.05572
-6.56166
-6.6358
-6.71437
-6.79359
-6.39051
-6.44098
-6.49262
-6.54337
-6.2301
-6.26038
-6.28933
-6.31668
-6.08586
-6.09989
-6.11089
-6.12
-5.96118
-5.96277
-5.96046
-5.95622
-5.85788
-5.8504
-5.83878
-5.82542
-5.7765
-5.76277
-5.74508
-5.726
-5.71655
-5.69895
-5.67776
-5.65556
-5.67658
-5.65709
-5.63444
-5.61107
-5.65449
-5.63467
-5.61211
-5.58901
-5.6479
-5.6289
-5.60756
-5.58581
-5.65444
-5.63707
-5.61781
-5.59817
-5.67274
-5.65745
-5.64087
-5.62368
-5.70379
-5.69168
-5.67769
-5.66056
-5.72441
-5.71345
-5.70094
-5.68572
9.13676
9.84094
9.94783
9.82535
9.81082
9.83928
9.86152
9.86867
9.86087
9.84115
9.81308
9.78044
9.7466
9.71412
9.68497
9.66064
9.64237
9.63134
9.6272
-31.983
4.54145
9.89283
9.78902
9.71088
9.73788
9.76095
9.76948
9.75935
9.73426
9.69866
9.65773
9.61606
9.57698
9.54267
9.51458
9.49396
9.48196
9.47784
-5.3828
-27.7288
-8.53561
9.31424
9.78328
9.74925
9.70284
9.68643
9.66619
9.63387
9.58848
9.53622
9.48362
9.43532
9.39398
9.36104
9.33756
9.32452
9.32057
3.02103
-24.1086
-31.4913
-18.2869
7.91455
9.71173
9.73892
9.64698
9.58355
9.5372
9.481
9.41493
9.3482
9.28772
9.23719
9.19818
9.17136
9.15729
9.1537
-24.5068
-33.6788
-36.4988
-35.333
-17.5396
6.90581
9.50074
9.61705
9.51571
9.4408
9.37158
9.29092
9.20766
9.13221
9.07024
9.02381
8.99317
8.97815
8.97516
-51.078
-56.3931
-55.0793
-46.5856
-36.4029
-11.8064
7.54064
9.35615
9.4303
9.34204
9.2544
9.15841
9.05808
8.9658
8.89043
8.83528
8.80037
8.78454
8.78248
-21.336
-40.6004
-62.2431
-64.6117
-51.7003
-33.2772
-1.99147
8.27323
9.26971
9.2314
9.12234
9.00902
8.89258
8.78376
8.69425
8.62951
8.59001
8.5736
8.57283
-7.67691
-11.7512
-25.271
-60.8122
-68.5121
-49.9193
-18.6135
5.28469
8.79913
9.09035
8.96688
8.83083
8.7015
8.57951
8.47718
8.40304
8.35898
8.34231
8.34321
-5.30571
-6.40621
-8.55334
-25.2271
-69.5373
-64.7574
-35.4488
-0.694605
7.85416
8.86012
8.76565
8.61137
8.47463
8.34531
8.23392
8.15213
8.10421
8.0877
8.09062
-5.51358
-5.81536
-6.27208
-9.27805
-41.1338
-72.2307
-48.8351
-7.35762
6.7921
8.50234
8.49197
8.33979
8.20389
8.07432
7.95933
7.87316
7.82287
7.80716
7.81239
-5.85158
-6.09983
-6.20235
-6.66104
-17.5769
-66.8149
-57.3576
-14.9468
5.40214
7.98429
8.14708
8.0151
7.88659
7.76276
7.64977
7.56327
7.51276
7.49868
7.50645
-6.11241
-6.34218
-6.35891
-6.41252
-8.91033
-50.194
-58.8406
-20.1346
3.90785
7.40506
7.73915
7.63648
7.52279
7.4097
7.30362
7.22092
7.17265
7.16115
7.17162
-6.38525
-6.62515
-6.68473
-6.54823
-6.8227
-33.4968
-55.9279
-20.8932
2.99979
6.87071
7.27322
7.20503
7.11443
7.01608
6.92118
6.84607
6.80251
6.79454
6.80782
-6.69435
-6.96273
-7.05749
-6.90782
-7.40713
-26.5728
-50.1755
-18.2924
2.7326
6.34878
6.752
6.72908
6.66558
6.58472
6.50462
6.44028
6.40355
6.39996
6.41605
-7.0358
-7.3461
-7.48585
-7.37452
-8.06027
-25.3932
-41.62
-12.3115
2.86283
5.74885
6.18653
6.21801
6.18098
6.12013
6.05776
6.00651
5.97819
5.97956
5.99833
-7.38938
-7.75461
-7.93629
-7.88652
-8.50955
-24.2618
-27.8626
-3.27242
3.04689
5.09194
5.59455
5.67872
5.66789
5.62931
5.58614
5.54898
5.52981
5.5363
5.55745
-7.73098
-8.15818
-8.36744
-8.42194
-9.14892
-24.8979
-17.2305
1.5474
3.62342
4.61086
5.01139
5.12891
5.1398
5.12171
5.09645
5.07271
5.0624
5.07364
5.09667
-8.03305
-8.52476
-8.80884
-9.04804
-10.422
-26.9699
-17.8479
-1.07546
3.51941
4.17074
4.44653
4.57552
4.60532
4.6051
4.59492
4.58261
4.57995
4.59512
4.6194
-8.26102
-8.80586
-9.17937
-9.71678
-9.99067
-25.0049
-12.9095
0.0232075
3.20405
3.74178
3.92352
4.03137
4.07311
4.08628
4.08671
4.08275
4.08593
4.10389
4.12878
-8.38816
-8.96506
-9.38959
-9.86845
-8.24702
-17.8355
-18.1304
-0.883862
2.91072
3.47455
3.48972
3.52341
3.55574
3.57098
3.57534
3.57595
3.58293
3.60256
3.62745
-8.41932
-8.99255
-9.41488
-9.00442
-7.03244
-11.592
-15.2573
-2.57692
2.52386
3.20698
3.0971
3.04209
3.04865
3.05689
3.06042
3.06305
3.07255
3.09313
3.11758
-8.37385
-8.89158
-9.3099
-9.23292
-9.95673
-6.22907
-11.164
-10.9701
0.412513
2.61299
2.64164
2.54719
2.53052
2.5333
2.53768
2.54321
2.55577
2.57743
2.60126
-8.26524
-8.76792
-9.21367
-9.50764
-9.25701
-4.41796
-5.37727
-10.5803
-3.50071
1.26776
1.90786
1.9745
1.97419
1.98759
2.00229
2.01572
2.03391
2.05766
2.08103
-8.0949
-8.59248
-9.04999
-9.46938
-9.43896
-9.03691
-2.52546
-3.39042
-4.70356
-0.587326
0.896858
1.31145
1.3721
1.41744
1.45451
1.48248
1.50969
1.53696
1.56039
-7.85836
-8.32819
-8.79971
-9.24071
-9.65266
-9.61097
-9.20535
-4.27426
-2.71572
-1.96489
-0.0703949
0.615869
0.747938
0.836754
0.902449
0.94914
0.987712
1.01946
1.04382
-7.56826
-7.96932
-8.40697
-8.82578
-9.26837
-9.70336
-10.2968
-10.1708
-6.8946
-2.73375
-0.778774
-0.0541144
0.129183
0.262776
0.356771
0.423181
0.473545
0.509325
0.536822
-7.24877
-7.54946
-7.88799
-8.23433
-8.56326
-8.88914
-9.03377
-8.69522
-6.94538
-3.73599
-1.41909
-0.727054
-0.47709
-0.29593
-0.173831
-0.088331
-0.0271392
0.0111694
0.0437442
-6.92741
-7.12301
-7.32921
-7.53095
-7.6854
-7.73356
-7.56315
-7.009
-5.81311
-3.76744
-2.06712
-1.38351
-1.04803
-0.827474
-0.681047
-0.579619
-0.51011
-0.469231
-0.434577
-6.62673
-6.73369
-6.82361
-6.88091
-6.86703
-6.72136
-6.37996
-5.76966
-4.81248
-3.56639
-2.50036
-1.91621
-1.55592
-1.31835
-1.15762
-1.0466
-0.972199
-0.929601
-0.897008
-6.36018
-6.40122
-6.40977
-6.36963
-6.2526
-6.02653
-5.64803
-5.08491
-4.33791
-3.50736
-2.79485
-2.32104
-1.99192
-1.76219
-1.60048
-1.48772
-1.41248
-1.3695
-1.34152
-6.13365
-6.12939
-6.08749
-5.99421
-5.83283
-5.57761
-5.21658
-4.74124
-4.16968
-3.57225
-3.05211
-2.66516
-2.37758
-2.16623
-2.01281
-1.90429
-1.8315
-1.78965
-1.76707
-5.94847
-5.91497
-5.84496
-5.72752
-5.55084
-5.30268
-4.97913
-4.58535
-4.1428
-3.6948
-3.29668
-2.97837
-2.72973
-2.5405
-2.40002
-2.29911
-2.23087
-2.19146
-2.17419
-5.80322
-5.75215
-5.66877
-5.54526
-5.37331
-5.14732
-4.86789
-4.54372
-4.19358
-3.84614
-3.5324
-3.2698
-3.05769
-2.89205
-2.76658
-2.67505
-2.61268
-2.57668
-2.56423
-5.69488
-5.63454
-5.54699
-5.42696
-5.26925
-5.07134
-4.83569
-4.57058
-4.29058
-4.01512
-3.76339
-3.54702
-3.36834
-3.2259
-3.11603
-3.03478
-2.9791
-2.94714
-2.93881
-5.6197
-5.55603
-5.47023
-5.35888
-5.21907
-5.05005
-4.85452
-4.63925
-4.41502
-4.19518
-3.9925
-3.8153
-3.66651
-3.54586
-3.45136
-3.38075
-3.33222
-3.30459
-3.29964
-5.57357
-5.51087
-5.43079
-5.33113
-5.21055
-5.06915
-4.90932
-4.73626
-4.55775
-4.38308
-4.22097
-4.07747
-3.95529
-3.85481
-3.77518
-3.71522
-3.67397
-3.65073
-3.64847
-5.55214
-5.49356
-5.42204
-5.33612
-5.23522
-5.1197
-4.99155
-4.85461
-4.71444
-4.57745
-4.44966
-4.33542
-4.23704
-4.15521
-4.08976
-4.04021
-4.00614
-3.98716
-3.98699
-5.55125
-5.49909
-5.43837
-5.36761
-5.28646
-5.19525
-5.09546
-4.98992
-4.8825
-4.77759
-4.67931
-4.59077
-4.51379
-4.44919
-4.39714
-4.35758
-4.33041
-4.31544
-4.31682
-5.56712
-5.52307
-5.47489
-5.42041
-5.35897
-5.29069
-5.21667
-5.1389
-5.06004
-4.98301
-4.91058
-4.84488
-4.78732
-4.73864
-4.69917
-4.66903
-4.64837
-4.63704
-4.63945
-5.59537
-5.55915
-5.52672
-5.49009
-5.44842
-5.40206
-5.35184
-5.29918
-5.24579
-5.19354
-5.14418
-5.0991
-5.05929
-5.02535
-4.99759
-4.97626
-4.9616
-4.95352
-4.95639
-5.62765
-5.59756
-5.58835
-5.57244
-5.55106
-5.52608
-5.49845
-5.46913
-5.43915
-5.40955
-5.38126
-5.35509
-5.33161
-5.31124
-5.29425
-5.28088
-5.27144
-5.26585
-5.26829
-5.65629
-5.65003
-5.66544
-5.66803
-5.66495
-5.65953
-5.65272
-5.64503
-5.63681
-5.62836
-5.61996
-5.61183
-5.60418
-5.59718
-5.59098
-5.58573
-5.58166
-5.57868
-5.57901
)
;

boundaryField
{
    leftWall
    {
        type            calculated;
        value           nonuniform List<scalar> 
50
(
1230.03
1170.07
1109.27
1047.87
985.846
923.214
860.003
796.257
695.778
557.134
417.526
277.457
142.789
45.376
-1.41068
-2.93153
-2.93633
-3.05833
-3.18591
-3.33784
-3.48995
-3.64113
-3.78832
-3.92962
-4.06378
-4.19075
-4.30978
-4.42183
-4.52756
-4.62753
-4.72219
-4.81189
-4.89698
-4.97776
-5.05454
-5.12765
-5.19741
-5.26416
-5.32822
-5.38989
-5.44945
-5.50726
-5.56374
-5.61887
-5.67176
-5.72247
-5.77398
-5.82566
-5.85998
-5.85832
)
;
    }
    rightWall
    {
        type            calculated;
        value           nonuniform List<scalar> 
50
(
10.1705
10.111
10.0505
9.989
9.9265
9.86292
9.7982
9.73227
9.6272
9.47784
9.32057
9.1537
8.97516
8.78248
8.57283
8.34321
8.09062
7.81239
7.50645
7.17162
6.80782
6.41605
5.99833
5.55745
5.09667
4.6194
4.12878
3.62745
3.11758
2.60126
2.08103
1.56039
1.04382
0.536822
0.0437442
-0.434577
-0.897008
-1.34152
-1.76707
-2.17419
-2.56423
-2.93881
-3.29964
-3.64847
-3.98699
-4.31682
-4.63945
-4.95639
-5.26829
-5.57901
)
;
    }
    lowerWall
    {
        type            calculated;
        value           nonuniform List<scalar> 
62
(
1259.46
1264.3
1276.49
1291.99
1306.08
1317.84
1327.08
1334.08
1339.21
1342.86
1345.56
1348.09
1351.6
1357.86
1369.6
1391.31
1428.29
1485.2
1562.33
1649.06
1725.06
1747.43
1801.32
1774.24
1719.09
1679.05
1652.83
1611.82
1537.29
1395.92
1143
-231.922
-146.927
1.19676
19.713
10.2973
10.2383
10.1747
10.1043
10.0226
9.92394
9.80023
9.65969
10.3268
10.3302
10.3428
10.354
10.3659
10.3777
10.3856
10.3867
10.3799
10.3656
10.3451
10.3209
10.2952
10.27
10.247
10.2277
10.2132
10.2039
10.1999
)
;
    }
    atmosphere
    {
        type            calculated;
        value           nonuniform List<scalar> 
46
(
-5.88528
-5.97354
-5.95653
-5.94883
-5.94256
-5.93676
-5.93091
-5.92472
-5.91798
-5.91056
-5.90236
-5.89333
-5.88342
-5.8726
-5.86087
-5.84826
-5.83484
-5.82073
-5.80608
-5.79111
-5.7761
-5.76146
-5.74789
-5.73929
-5.7353
-5.73256
-5.73082
-5.72935
-5.72904
-5.72904
-5.72904
-5.72904
-5.72904
-5.72904
-5.72904
-5.72904
-5.72904
-5.72904
-5.72904
-5.72904
-5.72904
-5.72904
-5.72904
-5.72904
-5.72904
-5.72904
)
;
    }
    defaultFaces
    {
        type            empty;
    }
}


// ************************************************************************* //
