/*--------------------------------*- C++ -*----------------------------------*\
  =========                 |
  \\      /  F ield         | OpenFOAM: The Open Source CFD Toolbox
   \\    /   O peration     | Website:  https://openfoam.org
    \\  /    A nd           | Version:  9
     \\/     M anipulation  |
\*---------------------------------------------------------------------------*/
FoamFile
{
    format      ascii;
    class       volScalarField;
    location    "0.3";
    object      p;
}
// * * * * * * * * * * * * * * * * * * * * * * * * * * * * * * * * * * * * * //

dimensions      [1 -1 -2 0 0 0 0];

internalField   nonuniform List<scalar> 
2268
(
4.25943
5.08319
5.19804
5.09389
5.02039
4.91972
4.82138
4.7253
4.6372
4.55827
4.48691
4.42084
4.35802
4.29518
4.22707
4.14378
4.02959
3.86729
3.66035
3.45723
3.35053
3.3776
3.46927
5.18735
5.23384
5.2828
5.16999
5.09222
4.98247
4.87885
4.77903
4.68839
4.60685
4.53229
4.46245
4.39534
4.3276
4.25352
4.16414
4.04492
3.87981
3.67301
3.46967
3.36653
3.41163
3.52882
5.19088
5.32728
5.38634
5.24617
5.16441
5.046
4.93674
4.83257
4.7381
4.65283
4.57479
4.50118
4.42976
4.35734
4.27795
4.18343
4.06178
3.89829
3.69477
3.49624
3.3919
3.43204
3.56087
5.03293
5.34933
5.48909
5.32152
5.2336
5.10775
4.99286
4.88437
4.7862
4.69741
4.61638
4.53999
4.46542
4.38985
4.30762
4.21098
4.09004
3.93062
3.7312
3.53376
3.42736
3.45689
3.5828
5.00408
5.37022
5.59708
5.39599
5.29978
5.16735
5.04704
4.93432
4.83274
4.74082
4.65714
4.57859
4.50175
4.42394
4.3402
4.24332
4.12495
3.97206
3.77899
3.58416
3.47833
3.49995
3.62177
5.64775
5.45051
5.69605
5.46754
5.3625
5.22431
5.09896
4.98231
4.87758
4.78292
4.69679
4.61633
4.53777
4.45831
4.37372
4.27754
4.1628
4.0185
3.83651
3.64945
3.54831
3.5723
3.67975
5.96178
5.56612
5.77173
5.535
5.42116
5.27832
5.1485
5.02836
4.92078
4.82372
4.73539
4.65315
4.57324
4.49266
4.4077
4.31282
4.2023
4.06776
3.90088
3.72735
3.63432
3.66632
3.75017
5.89483
5.67157
5.82699
5.59973
5.47441
5.32875
5.19526
5.0724
4.96245
4.86342
4.77326
4.68947
4.60854
4.52742
4.44256
4.34949
4.24358
4.11894
3.96906
3.81367
3.72825
3.75946
3.81645
3.81872
3.79536
3.76468
3.72708
3.68941
3.65554
3.62626
3.60113
3.5791
3.55896
3.5401
3.52248
3.50616
3.49126
3.47746
3.46461
3.4529
3.44347
3.43732
3.8809
3.8599
3.82922
3.78931
3.74939
3.71404
3.68378
3.65799
3.63538
3.61477
3.59553
3.57767
3.56125
3.54639
3.53277
3.5203
3.50921
3.50072
3.49525
3.94759
3.92428
3.89178
3.85029
3.80865
3.77194
3.74065
3.71398
3.69068
3.6696
3.64997
3.63194
3.61548
3.60078
3.58747
3.57557
3.56535
3.55776
3.55247
4.01541
3.98683
3.95034
3.90839
3.86589
3.82847
3.79648
3.76925
3.74548
3.72412
3.70428
3.68619
3.66977
3.65524
3.64226
3.63093
3.6215
3.61447
3.60899
4.08164
4.04699
4.00466
3.96339
3.92096
3.88353
3.85132
3.82388
3.79992
3.77847
3.75859
3.74051
3.72417
3.70976
3.69708
3.68626
3.67744
3.67066
3.66481
4.14086
4.10379
4.05467
4.01547
3.97401
3.9372
3.90521
3.87784
3.85389
3.83243
3.81262
3.79458
3.77836
3.76406
3.7517
3.74132
3.73294
3.72622
3.71994
4.18355
4.15382
4.09998
4.06458
4.0252
3.98957
3.95817
3.93104
3.9072
3.88576
3.86609
3.84815
3.83212
3.81801
3.80598
3.79595
3.78784
3.78106
3.77435
4.19267
4.18408
4.14001
4.11034
4.0745
4.04069
4.01024
3.98351
3.95985
3.93847
3.91904
3.90131
3.88555
3.87168
3.85994
3.85013
3.84211
3.83514
3.82807
6.43099
5.79898
5.88682
5.69275
5.54713
5.39995
5.26285
5.1376
5.02539
4.92448
4.8326
4.74727
4.66552
4.58438
4.50073
4.41133
4.31314
4.20318
4.07958
3.95799
3.88963
3.91581
3.95907
6.7895
5.89837
5.94981
5.77367
5.62526
5.47936
5.3424
5.21719
5.10464
5.0033
4.91088
4.82498
4.74316
4.66293
4.58196
4.49807
4.40981
4.31665
4.22101
4.13604
4.08789
4.09318
4.1242
7.07837
5.97526
5.99478
5.83048
5.68589
5.54391
5.40975
5.28656
5.17536
5.0751
4.98361
4.89864
4.81814
4.74023
4.66322
4.58586
4.50767
4.42932
4.35393
4.29021
4.25089
4.24228
4.25129
7.13557
6.02727
6.02348
5.86889
5.73023
5.59412
5.46467
5.34503
5.23645
5.13839
5.04907
4.96643
4.88867
4.81435
4.74232
4.6719
4.60319
4.5374
4.47742
4.42864
4.39744
4.3876
4.39362
6.72173
6.02336
6.03387
5.88647
5.75674
5.62941
5.50682
5.39235
5.28762
5.19273
5.10655
5.02735
4.95352
4.88386
4.8176
4.75434
4.69442
4.63905
4.59044
4.55176
4.52625
4.5169
4.52085
6.42867
5.95256
6.02803
5.88314
5.76609
5.6508
5.53704
5.42915
5.32943
5.23857
5.15625
5.08128
5.01228
4.94818
4.88829
4.83236
4.78073
4.73437
4.69481
4.66387
4.64332
4.63556
4.63861
6.3326
5.85055
6.01058
5.86322
5.76209
5.661
5.55723
5.45678
5.36295
5.2769
5.19904
5.12884
5.06531
5.00737
4.9543
4.90581
4.86209
4.8238
4.79188
4.76735
4.75119
4.74536
4.74808
6.24337
5.74957
5.97862
5.83174
5.74951
5.6635
5.56995
5.47716
5.38962
5.30896
5.23608
5.17108
5.11331
5.06184
5.01583
4.97482
4.93878
4.90801
4.88296
4.86411
4.85194
4.84815
4.85098
6.06192
5.60523
5.92206
5.79703
5.73437
5.66228
5.57813
5.49247
5.41111
5.33609
5.26854
5.20896
5.15703
5.11204
5.07312
5.03958
5.01109
4.98757
4.96903
4.95553
4.94718
4.94546
4.94868
6.10354
5.50427
5.84201
5.77815
5.72623
5.66189
5.5846
5.5047
5.42884
5.35937
5.29728
5.24322
5.1971
5.15844
5.12648
5.10033
5.07929
5.06289
5.05074
5.04247
5.03788
5.03821
5.04192
5.70495
5.40658
5.79843
5.80563
5.73053
5.66375
5.59045
5.51491
5.44368
5.37943
5.32281
5.27433
5.23403
5.20156
5.17632
5.15741
5.14372
5.13435
5.12849
5.12536
5.12442
5.12678
5.13115
5.10677
4.88727
5.75068
5.83484
5.72943
5.66196
5.59412
5.52308
5.45612
5.39675
5.34556
5.30272
5.26829
5.24194
5.22327
5.21137
5.20487
5.20236
5.2026
5.20446
5.2071
5.21161
5.21699
5.12075
3.07922
5.64481
5.82919
5.71088
5.65284
5.59459
5.52972
5.4672
5.41235
5.36635
5.32917
5.30067
5.28051
5.26831
5.26313
5.26346
5.26751
5.27361
5.2803
5.28658
5.29346
5.30018
6.5425
-0.77288
5.45221
5.78306
5.68518
5.64175
5.59451
5.53708
5.47928
5.42839
5.38703
5.35536
5.33283
5.31884
5.31288
5.314
5.32065
5.33081
5.34247
5.35387
5.36378
5.37313
5.38124
9.71091
-4.62338
5.01246
5.71405
5.68848
5.64004
5.59809
5.54799
5.4955
5.44834
5.41081
5.38401
5.36718
5.35913
5.35896
5.36575
5.37803
5.39373
5.41054
5.42636
5.43972
5.45136
5.46069
14.5942
-6.33813
4.25993
5.63691
5.70584
5.64526
5.60478
5.56275
5.51796
5.47588
5.44186
5.41886
5.40678
5.40394
5.40881
5.42043
5.4375
5.45801
5.47938
5.49914
5.51556
5.52921
5.53962
22.589
-2.49264
2.70082
5.52879
5.7392
5.65868
5.61304
5.57883
5.54645
5.51331
5.48388
5.46382
5.45494
5.45599
5.46481
5.48027
5.50117
5.5256
5.55075
5.57382
5.59284
5.60832
5.6198
35.7936
9.00045
0.474006
5.3806
5.83447
5.69677
5.62483
5.59188
5.57874
5.56118
5.53909
5.522
5.51478
5.51799
5.52946
5.54762
5.57129
5.59858
5.62659
5.65226
5.67344
5.69053
5.70294
55.2128
27.7377
5.38811
6.00307
6.15855
5.80658
5.65918
5.6047
5.61581
5.6218
5.6097
5.5961
5.58933
5.59284
5.6054
5.62495
5.65012
5.67905
5.70882
5.73629
5.75909
5.77732
5.79012
82.3148
55.6913
27.5923
10.7646
7.4629
6.1746
5.76322
5.63611
5.6612
5.70088
5.6994
5.68922
5.68186
5.6837
5.69534
5.71461
5.73977
5.7689
5.79922
5.82755
5.85113
5.86965
5.88201
118.611
93.1951
62.716
29.8387
13.3517
7.36006
6.03541
5.74058
5.73816
5.81056
5.81445
5.80501
5.79561
5.79354
5.80184
5.81876
5.84212
5.86991
5.89947
5.92748
5.9507
5.96843
5.9795
165.334
140.692
109.506
70.1706
33.951
12.4295
6.54085
5.96332
5.88161
5.95374
5.95641
5.94567
5.93274
5.92467
5.9271
5.93942
5.95918
5.98407
6.0114
6.03761
6.05906
6.07488
6.08381
223.675
199.441
168.085
126.064
77.0774
31.5462
7.88464
6.30131
6.11391
6.10088
6.11743
6.11034
6.0939
6.07888
6.07351
6.07916
6.09346
6.11371
6.13702
6.15961
6.17766
6.19025
6.19582
295.229
271.021
239.074
194.45
139.512
75.0298
16.2869
6.93304
6.41369
6.24352
6.2995
6.30092
6.28092
6.25881
6.24439
6.24131
6.24794
6.26135
6.27835
6.29514
6.30789
6.31546
6.3159
382.258
357.271
324.163
276.075
214.76
139.425
50.4381
8.84957
6.81107
6.46605
6.51255
6.52282
6.49892
6.46842
6.44323
6.42915
6.42547
6.42922
6.43718
6.44571
6.45089
6.45124
6.44453
487.53
459.235
425.574
372.984
304.466
219.688
114.434
19.8091
7.66755
6.86165
6.74003
6.7812
6.75508
6.71251
6.67274
6.64488
6.62825
6.61934
6.61536
6.61291
6.60781
6.59842
6.58252
610.896
580.986
545.175
487.649
410.922
315.681
197.112
58.445
9.89014
7.40938
7.0173
7.09291
7.0579
6.99528
6.9334
6.88905
6.85816
6.83404
6.81516
6.79854
6.77994
6.75794
6.73043
755.005
723.04
685.342
622.513
537.006
430.428
300.578
140.444
19.8218
8.23413
7.45223
7.44769
7.41021
7.32174
7.22525
7.16219
7.11831
7.07691
7.0395
7.00462
6.96853
6.93042
6.88831
921.731
888.083
847.964
779.52
685.069
566.236
423.183
246.861
54.5397
10.1957
8.13153
7.80495
7.80471
7.699
7.56469
7.4798
7.41855
7.35403
7.29203
7.23319
7.17468
7.11618
7.05618
1113.21
1078.25
1035.14
960.784
857.266
725.687
567.172
374.019
132.501
15.9471
9.03634
8.18333
8.22502
8.13423
7.98144
7.86501
7.77031
7.67153
7.57625
7.48622
7.39937
7.31549
7.23361
1331.52
1295.23
1248.82
1168.5
1055.98
911.906
737.492
529.15
266.405
40.2905
10.6148
8.79196
8.72608
8.64237
8.47719
8.3173
8.17598
8.03249
7.89451
7.76486
7.64251
7.52763
7.41884
1578.53
1540.6
1490.77
1404.69
1283.45
1127.35
936.866
711.085
431.216
108.07
15.6708
10.0449
9.38069
9.24364
9.05423
8.83737
8.63882
8.44037
8.24861
8.06888
7.90241
7.74985
7.6093
1855.89
1815.8
1762.53
1671.17
1541.8
1374.48
1168.52
923.484
623.753
229.876
29.123
12.1495
10.2282
9.94358
9.73249
9.44763
9.17321
8.90264
8.64109
8.39758
8.17561
7.9773
7.80066
2164.95
2121.92
2065.26
1969.43
1833.1
1656.11
1436.67
1173.58
855.572
423.956
68.0258
15.8848
11.3862
10.7344
10.5117
10.173
9.80177
9.43068
9.07503
8.74827
8.45703
8.20377
7.9851
2506.54
2459.62
2399.6
2300.44
2159.03
1974.86
1745.23
1467.51
1135.12
695.695
184.033
29.3462
13.8052
11.8385
11.4327
11.0521
10.5602
10.0423
9.55168
9.11436
8.73603
8.41785
8.15249
2880.49
2828.85
2765.42
2664.42
2520.48
2332.51
2097.05
1809.74
1466.39
1032.07
426.636
74.7115
21.093
14.0129
12.7171
12.1856
11.5113
10.761
10.0667
9.47765
8.99442
8.60338
8.28811
3285.52
3229.04
3161.86
3060.75
2917.53
2730.02
2494.01
2203.51
1854.35
1426.23
792.871
192.978
41.9188
18.7738
14.8207
13.7866
12.733
11.602
10.5926
9.80163
9.20036
8.73673
8.3748
3716.73
3657.06
3586.2
3487.43
3349.17
3167.54
2937.44
2651.23
2302.71
1882.37
1278.98
469.206
91.0802
29.0318
18.4142
16.1116
14.3176
12.5294
11.0806
10.0384
9.32094
8.78862
8.38753
4169.33
4111.19
4036.54
3942.49
3814.02
3644.77
3428.6
3156.19
2817.83
2405.41
1857.41
1006.28
256.477
53.1622
25.6937
20.2066
16.4804
13.4841
11.448
10.1399
9.3038
8.71807
8.28854
4623.35
4574.9
4502.18
4419.12
4308.13
4160.1
3968.21
3722.07
3409.6
3012.85
2490.04
1668.07
596.217
110.993
44.1622
32.7083
20.9278
14.3153
11.3681
9.73429
8.92657
8.45333
8.04731
5080.7
5058.37
4991.79
4921.84
4833.57
4715.36
4559.52
4355.19
4091.16
3742
3258.37
2502.15
1009.11
296.927
118.137
63.5503
27.7574
15.244
10.3473
8.45411
8.05216
7.97644
7.73139
5457.23
5458.74
5435.79
5405.31
5355.93
5281.17
5174
5019.48
4841.45
4610.12
4259.87
3469.19
993.353
2040.19
1068.67
168.563
32.3661
14.7209
8.45474
6.81228
7.63707
7.54759
7.29078
3.89016
3.81479
3.71135
3.70396
4.14532
4.15418
4.1604
4.17982
4.25531
4.25973
4.27345
4.30382
4.40061
4.4028
4.4056
4.41573
4.52451
4.52412
4.52291
4.52628
4.64026
4.63771
4.63337
4.63288
4.74816
4.74411
4.73781
4.73508
4.85012
4.84521
4.83774
4.8336
4.94727
4.94181
4.93356
4.92846
5.04016
5.03427
5.02548
5.01977
5.12924
5.12312
5.11408
5.10806
5.21528
5.20923
5.20015
5.19398
5.29897
5.29311
5.28402
5.27772
5.38049
5.37472
5.36562
5.35931
5.46014
5.45438
5.44537
5.4393
5.53918
5.53347
5.52463
5.51886
5.61952
5.61381
5.60493
5.59911
5.70261
5.69656
5.68705
5.68059
5.7891
5.7821
5.77136
5.76375
5.87952
5.87102
5.85855
5.84932
5.97493
5.96445
5.94963
5.93812
6.07642
6.06323
6.04509
6.03032
6.18434
6.16732
6.14469
6.12576
6.29875
6.27677
6.24868
6.22481
6.4203
6.39248
6.35798
6.32818
6.54982
6.51503
6.47271
6.43559
6.68716
6.64361
6.59166
6.54587
6.83172
6.77743
6.71416
6.65852
6.98387
6.91718
6.84107
6.77397
7.14351
7.06272
6.9718
6.89132
7.30778
7.21058
7.1025
7.00699
7.47357
7.35758
7.23029
7.1182
7.63816
7.50146
7.35266
7.22192
7.79306
7.63424
7.46263
7.31237
7.92918
7.74683
7.55225
7.38298
8.03457
7.8302
7.61378
7.42631
8.09373
7.86945
7.63435
7.43206
8.08904
7.85075
7.60213
7.38911
7.9897
7.74988
7.49875
7.28303
7.76127
7.53732
7.30515
7.10468
7.49706
7.29335
7.07062
6.87449
7.29574
7.11577
6.72564
6.42305
4.06089
4.19114
4.19643
4.17766
4.14894
4.11883
4.09038
4.06459
4.04138
4.02033
4.00128
3.98398
3.9686
3.95508
3.9436
3.93393
3.92579
3.91837
3.91095
4.24012
4.26949
4.28038
4.26955
4.24746
4.22189
4.19637
4.17234
4.1502
4.12994
4.11143
4.09458
4.07945
4.06613
4.05469
4.0449
4.03641
4.02848
4.02063
4.35243
4.36708
4.37099
4.36177
4.34388
4.32211
4.2994
4.27729
4.25644
4.23703
4.21905
4.20249
4.18748
4.1742
4.16267
4.15263
4.14373
4.13539
4.12723
4.4412
4.45775
4.46152
4.45394
4.43907
4.42029
4.39996
4.37958
4.35992
4.34124
4.32366
4.30728
4.29236
4.27909
4.26741
4.25706
4.24777
4.23911
4.23075
4.53969
4.55178
4.55387
4.54685
4.53373
4.51691
4.49829
4.4792
4.46038
4.44221
4.4249
4.40869
4.39389
4.38062
4.36877
4.35813
4.34851
4.33962
4.33111
4.64005
4.64767
4.64743
4.64004
4.62762
4.61186
4.59424
4.5759
4.55758
4.53972
4.52262
4.5066
4.49192
4.47862
4.46659
4.45569
4.44585
4.43681
4.42821
4.73864
4.74298
4.74066
4.73248
4.72012
4.70476
4.6876
4.66963
4.65155
4.63388
4.61697
4.60113
4.58649
4.57305
4.56079
4.54969
4.5397
4.53059
4.52198
4.83467
4.83653
4.83248
4.82341
4.81077
4.79547
4.77845
4.7606
4.74264
4.7251
4.70834
4.69255
4.67779
4.66408
4.65154
4.64024
4.63011
4.62096
4.61239
4.92778
4.92779
4.92238
4.91252
4.89952
4.88409
4.86701
4.84913
4.83119
4.81371
4.79699
4.7811
4.76604
4.75195
4.73908
4.72751
4.71717
4.70797
4.69951
5.01798
5.01673
5.01033
4.99983
4.98642
4.97068
4.95336
4.9353
4.91726
4.89974
4.8829
4.86671
4.85124
4.83674
4.82351
4.81159
4.80095
4.79168
4.78332
5.10565
5.10357
5.09643
5.0853
5.07133
5.05508
5.03731
5.01891
5.00064
4.98288
4.96571
4.94907
4.93313
4.91826
4.90469
4.89238
4.88141
4.87205
4.86378
5.19114
5.18846
5.18064
5.16879
5.15408
5.1371
5.11871
5.09982
5.08114
5.06293
5.04517
5.02792
5.0115
4.9963
4.9824
4.9697
4.95845
4.949
4.94078
5.27457
5.27145
5.26296
5.25029
5.23469
5.21687
5.19775
5.17825
5.15895
5.14
5.12139
5.10334
5.08635
5.07076
5.05647
5.04343
5.03198
5.02242
5.01429
5.35616
5.35277
5.34363
5.33009
5.31353
5.29479
5.27485
5.25459
5.23443
5.21444
5.1947
5.17564
5.15788
5.14169
5.12689
5.11353
5.10191
5.09225
5.08426
5.43649
5.43295
5.42311
5.40858
5.39092
5.37112
5.35021
5.32894
5.30764
5.28635
5.26527
5.24502
5.22625
5.20918
5.19372
5.18
5.16819
5.15844
5.15066
5.51638
5.51249
5.5017
5.48588
5.46686
5.44573
5.42356
5.40099
5.37827
5.35548
5.33297
5.31143
5.29146
5.27329
5.25702
5.24289
5.23085
5.22099
5.21345
5.59642
5.5917
5.57948
5.56193
5.54114
5.51835
5.49456
5.47036
5.44594
5.42152
5.39755
5.37469
5.35342
5.33404
5.31693
5.30231
5.28995
5.27998
5.27267
5.67699
5.67083
5.65661
5.63685
5.61389
5.58902
5.56322
5.53698
5.51056
5.48434
5.45886
5.43465
5.41205
5.39147
5.37352
5.35835
5.34561
5.33548
5.3284
5.75861
5.75041
5.73362
5.71113
5.6855
5.65809
5.62978
5.60104
5.57225
5.544
5.51689
5.49123
5.46727
5.44554
5.42676
5.41098
5.39782
5.38747
5.38062
5.842
5.831
5.81095
5.78509
5.75621
5.72569
5.69435
5.66264
5.63112
5.60058
5.57161
5.54438
5.51903
5.49618
5.47656
5.46012
5.44648
5.43588
5.42923
5.92759
5.91281
5.88861
5.85858
5.82575
5.79152
5.75666
5.72162
5.6871
5.65403
5.62301
5.59407
5.56729
5.54334
5.52283
5.50565
5.49148
5.48056
5.47409
6.01535
5.9957
5.96636
5.9313
5.89377
5.85522
5.81639
5.77772
5.73999
5.70422
5.67097
5.64018
5.61194
5.58686
5.5654
5.54742
5.53268
5.52142
5.51508
6.10531
6.07974
6.04428
6.0033
5.96028
5.91671
5.87339
5.83077
5.78963
5.75098
5.71531
5.68254
5.65276
5.62648
5.60403
5.58523
5.56991
5.55829
5.5521
6.19788
6.16523
6.12264
6.07482
6.02544
5.97611
5.9277
5.88071
5.83591
5.79418
5.75592
5.72102
5.68958
5.662
5.63849
5.61886
5.60299
5.59105
5.58505
6.29326
6.25215
6.20131
6.14568
6.0891
6.0333
5.97923
5.92745
5.87866
5.83363
5.79262
5.75549
5.72228
5.69331
5.66868
5.64822
5.63184
5.61966
5.61386
6.39089
6.33984
6.27953
6.21517
6.15067
6.0878
6.0276
5.97065
5.91758
5.86905
5.82516
5.78571
5.75068
5.72028
5.69455
5.6733
5.65649
5.64413
5.63856
6.48991
6.42752
6.35649
6.28241
6.20933
6.13893
6.07225
6.00986
5.95231
5.90011
5.85325
5.81145
5.77461
5.74282
5.71606
5.69412
5.67699
5.66453
5.6592
6.58986
6.51454
6.43145
6.34656
6.26415
6.18582
6.11244
6.04446
5.98237
5.92648
5.87667
5.83255
5.79395
5.76087
5.73321
5.71071
5.6934
5.68095
5.67588
6.69023
6.59984
6.50323
6.40654
6.31411
6.22744
6.1472
6.07366
6.0071
5.94768
5.89509
5.84882
5.80863
5.77444
5.74605
5.72315
5.70582
5.69344
5.68869
6.78968
6.68198
6.57024
6.46082
6.35796
6.26275
6.17561
6.0966
6.02582
5.96316
5.9081
5.86
5.81852
5.78348
5.7546
5.73148
5.71431
5.70203
5.69773
6.88567
6.75902
6.63078
6.50772
6.39408
6.29041
6.19662
6.11249
6.03788
5.97241
5.91531
5.86581
5.82344
5.78793
5.75884
5.7357
5.71888
5.7067
5.7031
6.97523
6.82786
6.68238
6.54533
6.4209
6.30902
6.20905
6.12039
6.04259
5.97493
5.91638
5.86601
5.82325
5.78767
5.75872
5.73578
5.71952
5.70742
5.70487
7.05494
6.88543
6.72214
6.5712
6.43648
6.31707
6.2117
6.11938
6.03925
5.9702
5.91092
5.86034
5.81776
5.7826
5.75417
5.73169
5.71637
5.70407
5.70291
7.12032
6.92787
6.74687
6.58271
6.4387
6.3129
6.20334
6.10854
6.02716
5.95769
5.89856
5.84854
5.8068
5.77261
5.74511
5.72334
5.70961
5.69647
5.69718
7.16587
6.95048
6.75284
6.57692
6.42529
6.29481
6.18272
6.08699
6.00573
5.93702
5.87904
5.83045
5.79026
5.7576
5.73151
5.71102
5.69836
5.68522
5.68805
7.18525
6.94826
6.73601
6.55082
6.39402
6.26119
6.14873
6.05395
5.97444
5.90785
5.85218
5.80595
5.76807
5.73754
5.71332
5.69447
5.68366
5.67009
5.67643
7.17068
6.91494
6.69162
6.50088
6.34241
6.21033
6.1002
6.00866
5.93277
5.86984
5.81774
5.77488
5.74009
5.71229
5.6904
5.67355
5.66518
5.65014
5.66314
7.11254
6.84317
6.61416
6.42322
6.26779
6.1405
6.03604
5.95044
5.8803
5.82273
5.77553
5.73707
5.70615
5.68167
5.6626
5.64817
5.64288
5.625
5.64735
7.00185
6.72731
6.50009
6.316
6.16951
6.05179
5.95682
5.88011
5.81799
5.76754
5.72657
5.69351
5.66716
5.64652
5.63069
5.61935
5.61806
5.59531
5.63047
6.83918
6.56828
6.3517
6.18291
6.052
5.94898
5.86735
5.80238
5.75039
5.70861
5.67501
5.64811
5.62684
5.61034
5.59794
5.59001
5.59192
5.56047
5.62227
6.60956
6.34648
6.15581
6.01529
5.90909
5.82726
5.76357
5.71361
5.67414
5.64276
5.61775
5.59788
5.58221
5.57003
5.56089
5.5551
5.55363
5.50585
5.6283
6.12091
5.92657
5.80948
5.72667
5.66507
5.61852
5.58306
5.55587
5.53487
5.51852
5.5057
5.49556
5.48746
5.4809
5.47548
5.47058
5.4616
5.398
5.60826
)
;

boundaryField
{
    leftWall
    {
        type            calculated;
        value           nonuniform List<scalar> 
50
(
4.25943
5.18735
5.19088
5.03293
5.00408
5.64775
5.96178
5.89483
6.43099
6.7895
7.07837
7.13557
6.72173
6.42867
6.3326
6.24337
6.06192
6.10354
5.70495
5.10677
5.12075
6.5425
9.71091
14.5942
22.589
35.7936
55.2128
82.3148
118.611
165.334
223.675
295.229
382.258
487.53
610.896
755.005
921.731
1113.21
1331.52
1578.53
1855.89
2164.95
2506.54
2880.49
3285.52
3716.73
4169.33
4623.35
5080.7
5457.23
)
;
    }
    rightWall
    {
        type            calculated;
        value           nonuniform List<scalar> 
50
(
3.43732
3.49525
3.55247
3.60899
3.66481
3.71994
3.77435
3.82807
3.91095
4.02063
4.12723
4.23075
4.33111
4.42821
4.52198
4.61239
4.69951
4.78332
4.86378
4.94078
5.01429
5.08426
5.15066
5.21345
5.27267
5.3284
5.38062
5.42923
5.47409
5.51508
5.5521
5.58505
5.61386
5.63856
5.6592
5.67588
5.68869
5.69773
5.7031
5.70487
5.70291
5.69718
5.68805
5.67643
5.66314
5.64735
5.63047
5.62227
5.6283
5.60826
)
;
    }
    lowerWall
    {
        type            calculated;
        value           nonuniform List<scalar> 
62
(
2.52636
5.05377
5.16861
5.06446
4.99096
4.89029
4.79195
4.69588
4.60777
4.52884
4.45748
4.39141
4.32859
4.26575
4.19764
4.11435
4.00016
3.83786
3.63092
3.4278
3.3211
3.34817
3.43984
3.46927
3.52882
3.56087
3.5828
3.62177
3.67975
3.75017
3.81645
3.82756
3.75219
3.64875
3.64137
3.81872
3.8809
3.94759
4.01541
4.08164
4.14086
4.18355
4.19267
3.78929
3.76593
3.73525
3.69765
3.65998
3.62611
3.59683
3.57171
3.54967
3.52953
3.51067
3.49305
3.47673
3.46183
3.44803
3.43518
3.42347
3.41404
3.40789
)
;
    }
    atmosphere
    {
        type            calculated;
        value           nonuniform List<scalar> 
46
(
5685.98
5707.55
5719.08
5707.79
5676.26
5633.24
5575.4
5461.38
5422.62
5422.9
5427.96
5282.38
5.72904
4929.35
3183.57
308.822
5.72904
5.72904
5.72904
5.72904
8.46382
6.47727
5.82768
5.74402
5.72904
5.71973
5.69493
5.65473
5.59922
5.55127
5.51283
5.48349
5.46167
5.44562
5.43391
5.42538
5.41912
5.41441
5.4107
5.40754
5.40457
5.40146
5.3978
5.39339
5.37051
5.51276
)
;
    }
    defaultFaces
    {
        type            empty;
    }
}


// ************************************************************************* //
