/*--------------------------------*- C++ -*----------------------------------*\
  =========                 |
  \\      /  F ield         | OpenFOAM: The Open Source CFD Toolbox
   \\    /   O peration     | Website:  https://openfoam.org
    \\  /    A nd           | Version:  9
     \\/     M anipulation  |
\*---------------------------------------------------------------------------*/
FoamFile
{
    format      ascii;
    class       volScalarField;
    location    "0.3";
    object      p_rgh;
}
// * * * * * * * * * * * * * * * * * * * * * * * * * * * * * * * * * * * * * //

dimensions      [1 -1 -2 0 0 0 0];

internalField   nonuniform List<scalar> 
2268
(
2.52636
5.05377
5.16861
5.06446
4.99096
4.89029
4.79195
4.69588
4.60777
4.52884
4.45748
4.39141
4.32859
4.26575
4.19764
4.11435
4.00016
3.83786
3.63092
3.4278
3.3211
3.34817
3.43984
-0.100741
5.14555
5.19451
5.0817
5.00393
4.89419
4.79056
4.69075
4.6001
4.51857
4.444
4.37416
4.30705
4.23931
4.16523
4.07585
3.95663
3.79152
3.58472
3.38138
3.27824
3.32335
3.44053
-3.99307
5.18013
5.2392
5.09903
5.01726
4.89885
4.78959
4.68543
4.59095
4.50568
4.42764
4.35404
4.28261
4.2102
4.13081
4.03628
3.91463
3.75115
3.54762
3.3491
3.24475
3.28489
3.41372
-10.1436
5.14332
5.28308
5.11551
5.0276
4.90175
4.78686
4.67836
4.5802
4.4914
4.41037
4.33398
4.25941
4.18384
4.10162
4.00498
3.88404
3.72462
3.52519
3.32775
3.22135
3.25089
3.3768
-45.9283
5.10543
5.33222
5.13113
5.03492
4.90249
4.78217
4.66946
4.56788
4.47596
4.39227
4.31372
4.23689
4.15907
4.07534
3.97845
3.86009
3.7072
3.51413
3.3193
3.21347
3.23509
3.35691
-95.0728
5.12696
5.37233
5.14382
5.03878
4.90059
4.77524
4.65859
4.55386
4.45919
4.37307
4.29261
4.21405
4.13458
4.05
3.95382
3.83908
3.69478
3.51279
3.32573
3.22459
3.24857
3.35602
-117.151
5.18378
5.38915
5.15242
5.03858
4.89574
4.76592
4.64578
4.5382
4.44114
4.35281
4.27057
4.19065
4.11008
4.02512
3.93023
3.81972
3.68518
3.51829
3.34477
3.25174
3.28374
3.36759
-138.573
5.23041
5.38555
5.15829
5.03297
4.8873
4.75381
4.63096
4.52101
4.42198
4.33182
4.24803
4.1671
4.08598
4.00112
3.90805
3.80214
3.6775
3.52762
3.37223
3.28681
3.31802
3.37501
3.78929
3.76593
3.73525
3.69765
3.65998
3.62611
3.59683
3.57171
3.54967
3.52953
3.51067
3.49305
3.47673
3.46183
3.44803
3.43518
3.42347
3.41404
3.40789
3.79262
3.77162
3.74093
3.70102
3.6611
3.62575
3.59549
3.5697
3.54709
3.52648
3.50724
3.48939
3.47296
3.45811
3.44448
3.43201
3.42092
3.41243
3.40696
3.80045
3.77714
3.74463
3.70315
3.6615
3.6248
3.5935
3.56683
3.54354
3.52245
3.50283
3.48479
3.46833
3.45363
3.44032
3.42842
3.41821
3.41061
3.40532
3.80941
3.78083
3.74434
3.70238
3.65988
3.62246
3.59047
3.56324
3.53947
3.51811
3.49827
3.48019
3.46377
3.44923
3.43625
3.42492
3.4155
3.40847
3.40298
3.81678
3.78213
3.7398
3.69853
3.65609
3.61866
3.58646
3.55902
3.53505
3.51361
3.49373
3.47565
3.45931
3.44489
3.43222
3.42139
3.41258
3.4058
3.39995
3.81713
3.78007
3.73095
3.69174
3.65029
3.61348
3.58149
3.55412
3.53016
3.50871
3.4889
3.47086
3.45463
3.44034
3.42798
3.41759
3.40921
3.40249
3.39621
3.80096
3.77124
3.7174
3.68199
3.64262
3.60699
3.57559
3.54846
3.52461
3.50317
3.48351
3.46557
3.44954
3.43543
3.4234
3.41337
3.40526
3.39848
3.39177
3.75123
3.74264
3.69856
3.6689
3.63306
3.59925
3.5688
3.54207
3.51841
3.49703
3.4776
3.45987
3.44411
3.43024
3.4185
3.40869
3.40067
3.3937
3.38663
-170.909
5.26575
5.35336
5.15929
5.01367
4.86648
4.72939
4.60413
4.49192
4.39101
4.29914
4.2138
4.13205
4.05092
3.96726
3.87786
3.77967
3.66971
3.54612
3.42452
3.35616
3.38234
3.42561
-214.192
5.23989
5.29115
5.11501
4.9666
4.8207
4.68374
4.55852
4.44598
4.34463
4.25222
4.16632
4.08449
4.00427
3.9233
3.83941
3.75115
3.65798
3.56235
3.47738
3.42923
3.43452
3.46554
-256.693
5.19152
5.21092
5.04663
4.90203
4.76005
4.62589
4.50271
4.39151
4.29125
4.19975
4.11478
4.03428
3.95637
3.87936
3.802
3.72381
3.64546
3.57008
3.50635
3.46704
3.45842
3.46743
-290.109
5.1183
5.11443
4.95984
4.82118
4.68507
4.55562
4.43598
4.3274
4.22934
4.14002
4.05738
3.97962
3.90529
3.83327
3.76285
3.69414
3.62835
3.56837
3.51959
3.48839
3.47855
3.48457
-299.486
4.98916
4.99963
4.85222
4.72249
4.59517
4.47257
4.3581
4.25338
4.15848
4.0723
3.9931
3.91927
3.84962
3.78335
3.72009
3.66017
3.60481
3.5562
3.51751
3.49201
3.48265
3.48661
-386.001
4.79315
4.86859
4.7237
4.60665
4.49136
4.3776
4.26971
4.16999
4.07913
3.99681
3.92184
3.85284
3.78874
3.72885
3.67292
3.62129
3.57494
3.53537
3.50443
3.48388
3.47612
3.47917
-599.593
4.56593
4.72595
4.57858
4.47746
4.37636
4.2726
4.17215
4.07831
3.99226
3.91441
3.84421
3.78067
3.72274
3.66967
3.62118
3.57746
3.53917
3.50725
3.48272
3.46655
3.46073
3.46344
-860.774
4.33975
4.56879
4.42191
4.33968
4.25367
4.16012
4.06733
3.97979
3.89913
3.82625
3.76125
3.70348
3.65201
3.606
3.56499
3.52895
3.49818
3.47313
3.45428
3.44211
3.43832
3.44115
-1069.97
4.07021
4.38704
4.26201
4.19935
4.12725
4.04311
3.95744
3.87608
3.80107
3.73351
3.67394
3.622
3.57702
3.5381
3.50456
3.47607
3.45255
3.43401
3.4205
3.41216
3.41044
3.41366
-1258.74
2.91057
4.18179
4.11793
4.066
4.00167
3.92438
3.84449
3.76862
3.69915
3.63706
3.583
3.53688
3.49822
3.46626
3.44012
3.41908
3.40267
3.39052
3.38225
3.37766
3.37799
3.38171
-1450.19
-16.3611
4.01301
4.02017
3.94505
3.87832
3.80504
3.7295
3.65827
3.59401
3.5374
3.48892
3.44862
3.41614
3.39091
3.372
3.35831
3.34894
3.34307
3.33995
3.33901
3.34136
3.34574
-1654.03
-84.5144
3.84007
3.92399
3.81845
3.75129
3.68351
3.61247
3.54551
3.48614
3.43495
3.39211
3.35768
3.33134
3.31267
3.30077
3.29426
3.29175
3.29199
3.29385
3.2965
3.301
3.30638
-1865.08
-311.691
3.60897
3.78534
3.67293
3.61665
3.55874
3.49391
3.4314
3.37654
3.33055
3.29337
3.26487
3.2447
3.2325
3.22733
3.22766
3.23171
3.23781
3.2445
3.25077
3.25766
3.26437
-2061.57
-893.117
3.27494
3.55505
3.5124
3.47855
3.43322
3.37607
3.31828
3.26739
3.22603
3.19436
3.17183
3.15784
3.15189
3.15301
3.15965
3.16982
3.18148
3.19287
3.20278
3.21213
3.22025
-2223.48
-1558.92
-14.8298
2.82967
3.33013
3.34186
3.31021
3.26167
3.20931
3.16215
3.12462
3.09782
3.08099
3.07293
3.07277
3.07956
3.09184
3.10754
3.12435
3.14017
3.15353
3.16517
3.1745
-2362.44
-1951.52
-79.1759
0.280091
2.94816
3.17222
3.18433
3.15058
3.10658
3.06449
3.03047
3.00747
2.99539
2.99255
2.99742
3.00905
3.02612
3.04662
3.06799
3.08776
3.10418
3.11783
3.12824
-2490.86
-2231.63
-351.389
-7.26196
1.55773
2.80269
3.01904
3.0356
3.00987
2.97673
2.9473
2.92724
2.91836
2.9194
2.92822
2.94369
2.96459
2.98902
3.01417
3.03724
3.05626
3.07174
3.08322
-2610.89
-2474.7
-1173.34
-37.3582
-3.9717
1.61468
2.71835
2.90151
2.91696
2.8994
2.87731
2.8602
2.85285
2.85605
2.86768
2.88585
2.90951
2.93681
2.96481
2.99048
3.01166
3.02875
3.04117
-2722.16
-2657.3
-2081.23
-150.191
-25.8189
-3.29917
1.62964
2.64526
2.82884
2.83483
2.82273
2.80893
2.80162
2.80558
2.81843
2.83798
2.86315
2.89208
2.92185
2.94932
2.97212
2.99035
3.00316
-2823.63
-2793.75
-2538.42
-685.308
-106.098
-25.8631
-2.23426
2.05079
2.74904
2.78872
2.78717
2.77628
2.76892
2.77096
2.78318
2.80245
2.8276
2.85674
2.88706
2.91539
2.93897
2.95749
2.96985
-2914.59
-2906.68
-2804.33
-2091.81
-519.569
-125.216
-23.1854
-0.692352
2.70081
2.7732
2.77694
2.76685
2.75744
2.75593
2.76448
2.78139
2.80475
2.83256
2.86211
2.89012
2.91334
2.93108
2.94215
-2994.51
-3003.34
-2992.77
-2944
-1924.48
-682.907
-106.9
-9.51407
2.52116
2.79112
2.79374
2.7826
2.76989
2.76207
2.7645
2.77683
2.79661
2.82151
2.84884
2.87506
2.89651
2.91233
2.92126
-3062.53
-3081.23
-3103.62
-3122.46
-3059.66
-2216.1
-489.083
-31.2372
2.00888
2.80561
2.82957
2.82248
2.80493
2.78463
2.78497
2.7914
2.8057
2.82595
2.84927
2.87186
2.88992
2.9025
2.90808
-3116.98
-3139.15
-3166.99
-3200.16
-3218.43
-3159.25
-1779.95
-88.0143
-1.80579
2.78748
2.88644
2.88782
2.85957
2.8322
2.82558
2.82835
2.83499
2.84839
2.86539
2.88219
2.89495
2.90252
2.90296
-3155.53
-3179.52
-3210.4
-3252.15
-3293.22
-3312.64
-2916.51
-376.122
-18.7444
2.6337
2.97428
2.98273
2.94634
2.91598
2.89716
2.891
2.88732
2.89108
2.89904
2.90757
2.91275
2.9131
2.90639
-3175.63
-3203.46
-3236.17
-3285.84
-3345.1
-3385.48
-3265.8
-1593.17
-67.0303
1.019
3.07651
3.11504
3.07679
3.03512
3.00767
2.98097
2.96492
2.95601
2.95203
2.94957
2.94448
2.93509
2.91918
-3177.55
-3207.29
-3242.75
-3298.88
-3371.11
-3438.04
-3437.15
-3016.16
-230.643
-7.84668
3.22852
3.30297
3.26082
3.20398
3.14258
3.09791
3.06958
3.04551
3.02663
3.01001
2.99141
2.96942
2.9419
-3158.69
-3190.59
-3228.13
-3290.34
-3373.56
-3467.06
-3548.34
-3472.97
-1109.73
-35.6646
3.29253
3.53214
3.49362
3.40467
3.30022
3.24618
3.20349
3.16318
3.12578
3.09089
3.05481
3.0167
2.97459
-3117.17
-3150.8
-3190.83
-3259
-3352.27
-3466.57
-3588.72
-3627.28
-2874.66
-132.944
2.63775
3.76352
3.75737
3.45832
3.25813
3.43858
3.37708
3.31503
3.25311
3.19427
3.13577
3.07727
3.01727
-3050.9
-3085.85
-3128.92
-3203.14
-3306.2
-3436.04
-3584.34
-3720.9
-3706.49
-428.822
-3.04915
4.0071
4.04796
3.43337
3.27397
3.69847
3.60057
3.5065
3.4121
3.3221
3.23526
3.15138
3.06951
-2957.78
-2994.07
-3040.46
-3120.73
-3233.08
-3376.32
-3546.4
-3737.28
-3868.23
-1615.58
-41.0943
4.37246
4.41319
3.96043
3.60121
4.02533
3.87605
3.74105
3.60491
3.47553
3.3532
3.23832
3.12954
-2835.96
-2873.89
-2923.71
-3009.77
-3130.94
-3286.67
-3475.61
-3694.49
-3908.36
-3432.97
-204.61
4.82645
4.82292
4.50826
3.98364
4.41477
4.19578
4.02126
3.83348
3.65432
3.48789
3.33534
3.1948
-2683.8
-2723.89
-2777.16
-2868.51
-2997.85
-3165.04
-3370.47
-3612.3
-3897.11
-4262.21
-556.024
4.6639
5.29181
5.03933
4.41811
4.84473
4.58325
4.35576
4.10059
3.85775
3.63585
3.43758
3.26096
-2499.94
-2542.97
-2599.63
-2695.45
-2831.77
-3008.73
-3227.96
-3490.42
-3805.99
-4222.4
-1327.08
-3.28904
5.77727
5.57157
5.05865
5.34599
5.08218
4.75938
4.40886
4.08296
3.79191
3.53878
3.32018
-2283.54
-2330.46
-2390.48
-2489.64
-2631.05
-2815.21
-3044.78
-3322.31
-3653.64
-4089.21
-2888.67
-152.918
5.25975
6.09456
6.01989
5.99299
5.72487
5.24325
4.75869
4.32282
3.9451
3.62739
3.36228
-2034.78
-2086.43
-2149.86
-2250.85
-2394.79
-2582.76
-2818.2
-3105.43
-3448.6
-3882.74
-4476.08
-583.808
3.42588
6.58106
7.17515
7.03586
6.52828
5.82415
5.14247
4.5569
4.07596
3.68672
3.37239
-1754.95
-1811.43
-1878.61
-1979.72
-2122.94
-2310.44
-2546.45
-2836.93
-3186.08
-3613.41
-4242.92
-1267.82
0.917007
4.44306
7.27067
8.09364
7.49916
6.49534
5.51799
4.73982
4.14798
3.69135
3.33278
-1448.93
-1508.6
-1579.46
-1678.23
-1816.49
-1998.12
-2228.22
-2514.42
-2862.88
-3283.04
-3887.7
-2325.27
-38.9779
-1.69659
4.79233
8.3678
8.44194
7.09532
5.77726
4.78889
4.11008
3.60412
3.21657
-1121.53
-1179.67
-1254.31
-1348.37
-1476.82
-1646.07
-1862.23
-2134.59
-2472.94
-2885.39
-3433.21
-4083.89
-1028.84
-25.0331
-4.64103
6.39605
8.49893
7.07638
5.39908
4.25402
3.71828
3.37104
2.98056
-792.706
-841.156
-913.871
-996.93
-1107.92
-1255.94
-1447.82
-1693.96
-2006.4
-2403.11
-2925.74
-3744.74
-3007.46
-601.604
-38.0537
-6.12059
5.22101
-0.116778
-1.78216
0.88886
2.97163
2.90531
2.58512
-460.507
-482.876
-549.458
-619.403
-707.667
-825.88
-981.709
-1186.03
-1450.04
-1799.16
-2282.72
-3038.14
-4494.28
-4133.34
-1549.4
-29.3844
-15.6989
-9.65939
-4.01212
-0.910893
1.31686
2.15486
2.10761
-166.63
-186.447
-220.806
-240.112
-258.305
-290.518
-340.479
-382.226
-521.92
-753.528
-1108.78
-1755.47
-4102.97
-2836.56
-2146.24
-139.222
-28.8161
-4.40868
0.379366
-2.33487
-0.734278
1.14109
1.52678
3.35669
3.28133
3.17788
3.1705
3.48665
3.49552
3.50174
3.52116
3.47145
3.47588
3.48959
3.51996
3.49156
3.49375
3.49655
3.50668
3.49027
3.48988
3.48867
3.49204
3.48082
3.47827
3.47393
3.47344
3.46352
3.45948
3.45318
3.45045
3.44029
3.43538
3.42791
3.42378
3.41225
3.40678
3.39853
3.39344
3.37994
3.37405
3.36526
3.35955
3.34382
3.33771
3.32867
3.32265
3.30468
3.29863
3.28955
3.28337
3.26317
3.25731
3.24822
3.24192
3.21949
3.21373
3.20463
3.19831
3.17395
3.16819
3.15918
3.15311
3.1278
3.12208
3.11325
3.10747
3.08294
3.07723
3.06835
3.06253
3.04083
3.03478
3.02528
3.01882
3.00213
2.99513
2.98439
2.97678
2.96736
2.95885
2.94638
2.93716
2.93757
2.92709
2.91227
2.90076
2.91387
2.90068
2.88253
2.86777
2.8966
2.87957
2.85694
2.83802
2.88581
2.86383
2.83574
2.81187
2.88216
2.85434
2.81985
2.79004
2.88649
2.8517
2.80938
2.77226
2.89864
2.85509
2.80314
2.75735
2.918
2.86371
2.80045
2.7448
2.94495
2.87827
2.80215
2.73505
2.9794
2.89861
2.8077
2.72721
3.01848
2.92128
2.8132
2.71769
3.05907
2.94308
2.81579
2.7037
3.09846
2.96176
2.81297
2.68223
3.12816
2.96935
2.79775
2.64748
3.13904
2.95673
2.76216
2.5929
3.11911
2.91486
2.69849
2.51103
3.05265
2.82877
2.59383
2.39158
2.92135
2.68445
2.43633
2.22342
2.69292
2.45738
2.20751
1.99212
2.33163
2.11805
1.88848
1.68858
1.93595
1.74854
1.52879
1.33321
1.61447
1.44934
1.0592
0.75661
3.52742
3.65768
3.66297
3.6442
3.61547
3.58536
3.55692
3.53112
3.50792
3.48686
3.46782
3.45052
3.43513
3.42161
3.41013
3.40046
3.39233
3.38491
3.37749
3.58146
3.61083
3.62172
3.61089
3.5888
3.56323
3.5377
3.51367
3.49154
3.47128
3.45277
3.43592
3.42079
3.40747
3.39602
3.38624
3.37775
3.36982
3.36197
3.56857
3.58323
3.58713
3.57791
3.56002
3.53826
3.51555
3.49343
3.47259
3.45317
3.4352
3.41863
3.40363
3.39035
3.37881
3.36877
3.35987
3.35153
3.34338
3.53215
3.5487
3.55247
3.54489
3.53002
3.51124
3.49091
3.47053
3.45087
3.43219
3.41461
3.39823
3.38331
3.37004
3.35836
3.34801
3.33872
3.33006
3.3217
3.50545
3.51753
3.51962
3.51261
3.49949
3.48267
3.46405
3.44495
3.42614
3.40797
3.39065
3.37445
3.35964
3.34637
3.33453
3.32388
3.31426
3.30537
3.29687
3.48061
3.48823
3.48799
3.4806
3.46818
3.45242
3.4348
3.41646
3.39814
3.38028
3.36318
3.34716
3.33248
3.31918
3.30715
3.29625
3.28641
3.27737
3.26877
3.454
3.45835
3.45603
3.44785
3.43548
3.42013
3.40297
3.38499
3.36692
3.34924
3.33234
3.31649
3.30185
3.28842
3.27616
3.26505
3.25507
3.24596
3.23734
3.42484
3.4267
3.42265
3.41359
3.40094
3.38564
3.36862
3.35077
3.33281
3.31527
3.29851
3.28272
3.26796
3.25426
3.24171
3.23041
3.22028
3.21113
3.20257
3.39276
3.39277
3.38736
3.3775
3.3645
3.34906
3.33199
3.31411
3.29617
3.27869
3.26197
3.24608
3.23102
3.21693
3.20405
3.19249
3.18215
3.17295
3.16448
3.35776
3.35651
3.35011
3.33961
3.3262
3.31046
3.29314
3.27509
3.25705
3.23952
3.22268
3.2065
3.19102
3.17652
3.16329
3.15137
3.14073
3.13146
3.1231
3.32024
3.31816
3.31101
3.29989
3.28592
3.26967
3.2519
3.2335
3.21522
3.19747
3.1803
3.16366
3.14772
3.13285
3.11928
3.10696
3.096
3.08664
3.07836
3.28053
3.27786
3.27003
3.25819
3.24347
3.22649
3.2081
3.18922
3.17053
3.15232
3.13457
3.11731
3.10089
3.08569
3.07179
3.05909
3.04785
3.03839
3.03018
3.23877
3.23565
3.22716
3.21449
3.19889
3.18107
3.16195
3.14245
3.12315
3.1042
3.08559
3.06754
3.05055
3.03495
3.02067
3.00763
2.99618
2.98662
2.97849
3.19516
3.19178
3.18264
3.1691
3.15254
3.13379
3.11386
3.09359
3.07343
3.05344
3.0337
3.01464
2.99689
2.98069
2.9659
2.95253
2.94091
2.93125
2.92327
3.1503
3.14676
3.13692
3.12239
3.10473
3.08493
3.06402
3.04275
3.02145
3.00016
2.97908
2.95883
2.94006
2.92299
2.90753
2.89381
2.882
2.87225
2.86447
3.105
3.10111
3.09032
3.0745
3.05547
3.03435
3.01217
2.98961
2.96689
2.9441
2.92158
2.90004
2.88008
2.8619
2.84564
2.83151
2.81946
2.8096
2.80206
3.05984
3.05512
3.0429
3.02535
3.00456
2.98177
2.95798
2.93378
2.90937
2.88494
2.86097
2.83811
2.81684
2.79746
2.78035
2.76573
2.75337
2.7434
2.73609
3.01521
3.00906
2.99484
2.97508
2.95211
2.92725
2.90145
2.8752
2.84879
2.82257
2.79709
2.77288
2.75027
2.7297
2.71174
2.69658
2.68384
2.6737
2.66663
2.97164
2.96344
2.94665
2.92416
2.89854
2.87113
2.84281
2.81407
2.78529
2.75703
2.72992
2.70427
2.6803
2.65857
2.63979
2.62402
2.61085
2.6005
2.59366
2.92984
2.91884
2.89879
2.87292
2.84405
2.81353
2.78218
2.75048
2.71896
2.68841
2.65945
2.63222
2.60686
2.58402
2.5644
2.54796
2.53432
2.52371
2.51707
2.89023
2.87545
2.85125
2.82122
2.78839
2.75416
2.7193
2.68427
2.64974
2.61667
2.58565
2.55671
2.52993
2.50598
2.48547
2.46829
2.45413
2.44321
2.43673
2.8528
2.83315
2.80381
2.76875
2.73122
2.69267
2.65383
2.61517
2.57744
2.54167
2.50842
2.47763
2.44939
2.4243
2.40285
2.38487
2.37013
2.35887
2.35253
2.81756
2.79199
2.75653
2.71556
2.67253
2.62897
2.58564
2.54302
2.50189
2.46323
2.42757
2.3948
2.36501
2.33874
2.31628
2.29748
2.28216
2.27054
2.26436
2.78494
2.75229
2.7097
2.66188
2.61249
2.56317
2.51476
2.46777
2.42297
2.38124
2.34298
2.30808
2.27664
2.24906
2.22555
2.20592
2.19004
2.17811
2.17211
2.75513
2.71402
2.66317
2.60754
2.55097
2.49517
2.4411
2.38931
2.34052
2.2955
2.25449
2.21735
2.18414
2.15517
2.13054
2.11008
2.09371
2.08152
2.07573
2.72756
2.67651
2.6162
2.55184
2.48734
2.42447
2.36427
2.30732
2.25425
2.20572
2.16183
2.12238
2.08735
2.05695
2.03122
2.00997
1.99316
1.9808
1.97523
2.70138
2.63899
2.56797
2.49389
2.4208
2.35041
2.28373
2.22133
2.16379
2.11158
2.06473
2.02293
1.98608
1.95429
1.92753
1.90559
1.88846
1.876
1.87068
2.67614
2.60082
2.51773
2.43284
2.35043
2.2721
2.19872
2.13074
2.06865
2.01276
1.96295
1.91883
1.88023
1.84715
1.81949
1.79699
1.77968
1.76723
1.76216
2.65131
2.56092
2.46432
2.36762
2.27519
2.18852
2.10828
2.03474
1.96819
1.90877
1.85617
1.80991
1.76972
1.73553
1.70714
1.68424
1.66691
1.65453
1.64978
2.62557
2.51787
2.40613
2.29672
2.19385
2.09864
2.0115
1.93249
1.86171
1.79905
1.74399
1.69589
1.65441
1.61938
1.59049
1.56737
1.5502
1.53792
1.53362
2.59637
2.46971
2.34148
2.21842
2.10478
2.00111
1.90731
1.82318
1.74858
1.68311
1.62601
1.57651
1.53414
1.49862
1.46953
1.4464
1.42958
1.41739
1.4138
2.56073
2.41336
2.26788
2.13084
2.0064
1.89452
1.79455
1.70589
1.6281
1.56044
1.50189
1.45151
1.40875
1.37317
1.34422
1.32129
1.30502
1.29293
1.29037
2.51525
2.34574
2.18245
2.03151
1.89679
1.77737
1.67201
1.57969
1.49956
1.4305
1.37123
1.32064
1.27806
1.24291
1.21448
1.192
1.17668
1.16437
1.16322
2.45544
2.26298
2.08199
1.91782
1.77381
1.64801
1.53845
1.44365
1.36228
1.29281
1.23368
1.18365
1.14192
1.10772
1.08022
1.05845
1.04472
1.03158
1.0323
2.37579
2.1604
1.96276
1.78684
1.63521
1.50473
1.39264
1.2969
1.21565
1.14694
1.08896
1.04037
1.00018
0.967522
0.941425
0.920937
0.908275
0.895143
0.89797
2.26997
2.03298
1.82074
1.63554
1.47875
1.34591
1.23345
1.13867
1.05916
0.992575
0.936904
0.890676
0.852799
0.822268
0.798041
0.779195
0.768381
0.75481
0.761158
2.13021
1.87447
1.65115
1.46041
1.30194
1.16986
1.05973
0.968194
0.892297
0.829373
0.777265
0.734409
0.699616
0.671817
0.649934
0.633081
0.62471
0.609671
0.622671
1.94687
1.67751
1.44849
1.25755
1.10213
0.974834
0.870377
0.784776
0.714631
0.657067
0.609863
0.57141
0.540482
0.51601
0.496936
0.482509
0.477211
0.459337
0.481681
1.71099
1.43645
1.20923
1.02514
0.878651
0.760934
0.665963
0.589253
0.527136
0.476684
0.435714
0.402648
0.376296
0.355666
0.339833
0.328494
0.327198
0.304449
0.339607
1.42312
1.15223
0.935647
0.766856
0.635951
0.532929
0.451297
0.386324
0.33434
0.292559
0.258952
0.232057
0.210791
0.194289
0.181888
0.173959
0.175863
0.144414
0.206219
1.06831
0.805234
0.61456
0.47404
0.367842
0.286009
0.22232
0.172366
0.132892
0.101512
0.0765047
0.0566271
0.0409581
0.0287822
0.0196435
0.0138554
0.0123864
-0.0353958
0.0870502
0.45447
0.260126
0.143033
0.0602319
-0.0013771
-0.0479274
-0.0833839
-0.110575
-0.131577
-0.147922
-0.160742
-0.170882
-0.178979
-0.185542
-0.190966
-0.195864
-0.204843
-0.268439
-0.0581796
)
;

boundaryField
{
    leftWall
    {
        type            fixedFluxPressure;
        gradient        uniform 0;
        value           nonuniform List<scalar> 
50
(
2.52636
-0.100741
-3.99307
-10.1436
-45.9283
-95.0728
-117.151
-138.573
-170.909
-214.192
-256.693
-290.109
-299.486
-386.001
-599.593
-860.774
-1069.97
-1258.74
-1450.19
-1654.03
-1865.08
-2061.57
-2223.48
-2362.44
-2490.86
-2610.89
-2722.16
-2823.63
-2914.59
-2994.51
-3062.53
-3116.98
-3155.53
-3175.63
-3177.55
-3158.69
-3117.17
-3050.9
-2957.78
-2835.96
-2683.8
-2499.94
-2283.54
-2034.78
-1754.95
-1448.93
-1121.53
-792.706
-460.507
-166.63
)
;
    }
    rightWall
    {
        type            fixedFluxPressure;
        gradient        uniform 0;
        value           nonuniform List<scalar> 
50
(
3.40789
3.40696
3.40532
3.40298
3.39995
3.39621
3.39177
3.38663
3.37749
3.36197
3.34338
3.3217
3.29687
3.26877
3.23734
3.20257
3.16448
3.1231
3.07836
3.03018
2.97849
2.92327
2.86447
2.80206
2.73609
2.66663
2.59366
2.51707
2.43673
2.35253
2.26436
2.17211
2.07573
1.97523
1.87068
1.76216
1.64978
1.53362
1.4138
1.29037
1.16322
1.0323
0.89797
0.761158
0.622671
0.481681
0.339607
0.206219
0.0870502
-0.0581796
)
;
    }
    lowerWall
    {
        type            fixedFluxPressure;
        gradient        uniform 0;
        value           nonuniform List<scalar> 
62
(
2.52636
5.05377
5.16861
5.06446
4.99096
4.89029
4.79195
4.69588
4.60777
4.52884
4.45748
4.39141
4.32859
4.26575
4.19764
4.11435
4.00016
3.83786
3.63092
3.4278
3.3211
3.34817
3.43984
3.43984
3.44053
3.41372
3.3768
3.35691
3.35602
3.36759
3.37501
3.35669
3.28133
3.17788
3.1705
3.78929
3.79262
3.80045
3.80941
3.81678
3.81713
3.80096
3.75123
3.78929
3.76593
3.73525
3.69765
3.65998
3.62611
3.59683
3.57171
3.54967
3.52953
3.51067
3.49305
3.47673
3.46183
3.44803
3.43518
3.42347
3.41404
3.40789
)
;
    }
    atmosphere
    {
        type            totalPressure;
        rho             rho;
        psi             none;
        gamma           1;
        p0              uniform 0;
        value           nonuniform List<scalar> 
46
(
0
0
0
0
0
0
0
0
0
0
0
0
0
-1.27353
-66.8494
-2.36228
0
0
0
0
0
0
0
0
0
-0.00931342
-0.034112
-0.0743085
-0.129823
-0.17777
-0.216208
-0.245545
-0.267375
-0.283417
-0.295128
-0.303663
-0.309924
-0.314629
-0.31834
-0.321499
-0.324471
-0.327585
-0.331238
-0.335653
-0.358526
-0.216276
)
;
    }
    defaultFaces
    {
        type            empty;
    }
}


// ************************************************************************* //
