/*--------------------------------*- C++ -*----------------------------------*\
  =========                 |
  \\      /  F ield         | OpenFOAM: The Open Source CFD Toolbox
   \\    /   O peration     | Website:  https://openfoam.org
    \\  /    A nd           | Version:  9
     \\/     M anipulation  |
\*---------------------------------------------------------------------------*/
FoamFile
{
    format      ascii;
    class       volScalarField;
    location    "0.3";
    object      p_rgh;
}
// * * * * * * * * * * * * * * * * * * * * * * * * * * * * * * * * * * * * * //

dimensions      [1 -1 -2 0 0 0 0];

internalField   nonuniform List<scalar> 
2268
(
1259.46
1264.3
1276.49
1291.99
1306.08
1317.84
1327.08
1334.08
1339.21
1342.86
1345.56
1348.09
1351.6
1357.86
1369.6
1391.31
1428.29
1485.2
1562.33
1649.06
1725.06
1747.43
1801.32
1258.36
1261.31
1271.84
1285.25
1297.82
1308.44
1316.81
1323.07
1327.54
1330.66
1333.02
1335.48
1339.32
1346.41
1359.54
1382.59
1421.5
1481.57
1564.72
1660.37
1743.44
1755.56
1802.02
1256.42
1259.66
1268.11
1278.97
1289.3
1298.05
1304.85
1309.75
1313.02
1315.15
1316.81
1318.97
1323.03
1331
1345.75
1371.06
1412.2
1474.23
1559.32
1657.77
1747.16
1769.75
1823.93
1253.87
1258.03
1265.3
1274.08
1282.28
1289.07
1294.11
1297.41
1299.26
1300.17
1300.87
1302.44
1306.35
1314.68
1330.28
1356.73
1398.51
1460.02
1543.03
1639.27
1731.2
1775.81
1855.4
1250.71
1255.98
1262.62
1269.82
1276.26
1281.28
1284.65
1286.39
1286.82
1286.45
1286.08
1286.83
1290.2
1298.28
1313.81
1340.06
1380.82
1439.67
1517.95
1609.28
1699.78
1767.44
1872.25
1246.94
1253.21
1259.44
1265.35
1270.27
1273.73
1275.57
1275.85
1274.9
1273.26
1271.76
1271.51
1274.05
1281.4
1296.14
1321.2
1359.67
1414.33
1486.01
1569.9
1653.68
1739.6
1855.66
1242.58
1249.68
1255.51
1260.24
1263.81
1265.84
1266.26
1265.17
1262.9
1260.01
1257.32
1255.97
1257.44
1263.7
1277.13
1300.27
1335.52
1384.82
1448.28
1521.42
1591.11
1683.58
1773.58
1237.7
1245.39
1250.76
1254.34
1256.64
1257.39
1256.52
1254.18
1250.68
1246.6
1242.75
1240.23
1240.48
1245.37
1257.08
1277.68
1308.88
1351.72
1405.16
1463.36
1510.04
1574.71
1581.41
10.3268
10.3302
10.3428
10.354
10.3659
10.3777
10.3856
10.3867
10.3799
10.3656
10.3451
10.3209
10.2952
10.27
10.247
10.2277
10.2132
10.2039
10.1999
10.3266
10.3327
10.3453
10.3538
10.3637
10.3742
10.3814
10.3826
10.3761
10.3624
10.3427
10.3192
10.294
10.2692
10.2466
10.2274
10.2128
10.2035
10.1992
10.3218
10.3298
10.3456
10.3531
10.3614
10.3707
10.3772
10.3783
10.3722
10.359
10.3401
10.3172
10.2926
10.2681
10.2455
10.2262
10.2115
10.202
10.1976
10.3103
10.3207
10.3434
10.3518
10.3595
10.3687
10.375
10.3761
10.37
10.3569
10.3383
10.3156
10.291
10.2664
10.2436
10.224
10.209
10.1993
10.195
10.2874
10.3054
10.3407
10.3506
10.3587
10.3685
10.3752
10.3764
10.3702
10.3567
10.3375
10.3144
10.2893
10.2642
10.2408
10.2209
10.2055
10.1956
10.1914
10.2477
10.2819
10.3399
10.3507
10.359
10.3701
10.3777
10.3792
10.3726
10.3582
10.3378
10.3136
10.2875
10.2614
10.2373
10.2167
10.2009
10.1909
10.1866
10.1828
10.2467
10.3451
10.3534
10.3603
10.3729
10.3821
10.3841
10.3772
10.3615
10.3393
10.3133
10.2855
10.2581
10.2329
10.2115
10.1952
10.1849
10.1808
10.1011
10.2172
10.3719
10.3572
10.3581
10.3745
10.3872
10.3905
10.3831
10.3659
10.3417
10.3133
10.2834
10.2543
10.2278
10.2054
10.1884
10.1778
10.1737
1229.24
1237.3
1241.84
1243.7
1244.15
1243.11
1240.49
1236.44
1231.27
1225.53
1219.99
1215.64
1213.82
1216.25
1224.74
1240.6
1264.47
1295.92
1331.7
1362.14
1363.44
1293.78
939.842
1215.8
1223.68
1226.24
1225.65
1223.78
1220.57
1215.85
1209.73
1202.5
1194.63
1186.76
1179.68
1174.57
1173.07
1176.85
1186.19
1200.45
1218.08
1235.07
1241.55
1215.21
1122.78
968.82
1201.38
1207.95
1207.44
1203.97
1199.6
1194.03
1187.07
1178.74
1169.27
1159.06
1148.54
1138.16
1128.89
1122.87
1122.45
1126.49
1133.08
1140.7
1147.12
1147.47
1131.62
1089.32
1041.62
1186.47
1189.64
1184.7
1177.5
1169.78
1161.32
1151.86
1141.24
1129.64
1117.5
1104.93
1091.61
1077.95
1067.4
1065.22
1066.59
1067.77
1067.39
1067.63
1065.81
1058.99
1041.71
1015.28
1176.11
1160.56
1125.86
1117.15
1110.41
1101.37
1088.64
1069.39
1042.24
1007.94
964.757
902.645
808.606
702.265
698.184
726.334
769.017
815.836
871.532
968.479
1028.38
1020.17
1011.19
900.312
585.813
428.975
432.586
439.91
435.349
414.295
373.612
317.605
257.503
195.565
126.121
55.4435
10.1415
15.1219
29.8067
47.496
75.9008
111.643
157.102
246.667
417.642
678.997
41.77
-0.451139
-0.760263
-1.27216
-1.36422
-1.37167
-1.3933
-1.42141
-1.44757
-1.46855
-1.49606
-1.57014
-1.67398
-1.64423
-1.63346
-1.70845
-1.92116
-2.2642
-2.69876
-3.16033
-3.60868
-4.02258
13.7996
-1.52171
-1.19613
-1.14846
-1.1879
-1.1802
-1.16849
-1.17521
-1.19735
-1.23137
-1.2769
-1.33651
-1.41573
-1.51372
-1.60839
-1.67833
-1.77015
-1.89627
-2.04223
-2.19405
-2.33626
-2.45516
-2.55599
-2.94359
-1.40132
-1.32402
-1.24478
-1.2407
-1.25061
-1.26098
-1.28069
-1.3118
-1.35352
-1.40614
-1.47099
-1.54918
-1.63881
-1.7329
-1.82525
-1.93419
-2.06683
-2.22623
-2.40446
-2.59351
-2.77941
-2.91351
-2.96407
-1.39811
-1.33899
-1.29966
-1.29328
-1.3065
-1.3261
-1.35366
-1.39102
-1.43837
-1.49611
-1.56504
-1.64548
-1.7357
-1.83225
-1.93508
-2.04983
-2.18802
-2.34684
-2.52209
-2.7078
-2.89612
-3.07209
-3.25097
-1.4005
-1.36705
-1.34834
-1.34697
-1.36062
-1.38362
-1.41549
-1.45708
-1.50875
-1.57081
-1.64358
-1.72698
-1.81994
-1.9209
-2.03025
-2.14993
-2.28644
-2.44114
-2.61113
-2.78969
-2.97525
-3.16582
-3.3677
-1.42723
-1.40828
-1.39799
-1.40076
-1.41613
-1.44161
-1.47654
-1.52129
-1.5762
-1.64149
-1.71716
-1.80292
-1.89803
-2.00182
-2.11469
-2.23857
-2.3754
-2.52612
-2.69037
-2.86694
-3.05487
-3.25283
-3.4633
-1.45415
-1.44815
-1.4442
-1.45079
-1.46842
-1.49603
-1.53328
-1.5804
-1.63767
-1.70519
-1.78281
-1.87009
-1.96645
-2.07155
-2.18575
-2.31026
-2.44664
-2.59608
-2.75919
-2.93623
-3.12781
-3.33352
-3.55458
-1.48013
-1.48244
-1.48381
-1.49403
-1.51397
-1.54346
-1.58249
-1.63134
-1.69023
-1.75919
-1.83792
-1.92593
-2.02276
-2.12822
-2.24276
-2.36744
-2.50372
-2.65306
-2.81682
-2.99644
-3.194
-3.41061
-3.64787
-1.50213
-1.50954
-1.51528
-1.52871
-1.55081
-1.58194
-1.62238
-1.67248
-1.73244
-1.80219
-1.88139
-1.96954
-2.06626
-2.17159
-2.28611
-2.411
-2.54785
-2.69848
-2.86497
-3.04981
-3.25649
-3.48796
-3.74722
-1.51823
-1.52829
-1.53769
-1.55395
-1.578
-1.61053
-1.65208
-1.70304
-1.76362
-1.8337
-1.9129
-2.00077
-2.0971
-2.2021
-2.31661
-2.44203
-2.58022
-2.73346
-2.90449
-3.09681
-3.31516
-3.56435
-3.84933
-1.5272
-1.53864
-1.55091
-1.5696
-1.59531
-1.62899
-1.67133
-1.72281
-1.78364
-1.85368
-1.93255
-2.0199
-2.11568
-2.22034
-2.33496
-2.46121
-2.60125
-2.75782
-2.93429
-3.13499
-3.36568
-3.63267
-3.94292
-1.52897
-1.54011
-1.55542
-1.57605
-1.60303
-1.63751
-1.68032
-1.73199
-1.79274
-1.86241
-1.94068
-2.0273
-2.12241
-2.22669
-2.34145
-2.46855
-2.61044
-2.77021
-2.95169
-3.15986
-3.40109
-3.68261
-4.01287
-1.52281
-1.53452
-1.55169
-1.57376
-1.60161
-1.63655
-1.6795
-1.73103
-1.79134
-1.86033
-1.9377
-2.02335
-2.11757
-2.22126
-2.3359
-2.46349
-2.6066
-2.76852
-2.95325
-3.16632
-3.41416
-3.70421
-4.04566
-1.50967
-1.52192
-1.54027
-1.56326
-1.59162
-1.62668
-1.66943
-1.72045
-1.77998
-1.84791
-1.92403
-2.00833
-2.10128
-2.20392
-2.31784
-2.44508
-2.58824
-2.75072
-2.93562
-3.15001
-3.39921
-3.6902
-4.0322
-1.49021
-1.50272
-1.52169
-1.54516
-1.57365
-1.60851
-1.65071
-1.70087
-1.75923
-1.82571
-1.90015
-1.98262
-2.07369
-2.17454
-2.28678
-2.41239
-2.5538
-2.71414
-2.89723
-3.10841
-3.35324
-3.63742
-3.96947
-1.46498
-1.47744
-1.49655
-1.52008
-1.54836
-1.58269
-1.62401
-1.67293
-1.72971
-1.7943
-1.86656
-1.94663
-2.03513
-2.13326
-2.24261
-2.36503
-2.50274
-2.65856
-2.83621
-3.04025
-3.27556
-3.54632
-3.86011
-1.43444
-1.44657
-1.46539
-1.48861
-1.51638
-1.54986
-1.58996
-1.63726
-1.69204
-1.75427
-1.82383
-1.90087
-1.98601
-2.08042
-2.1856
-2.3032
-2.43517
-2.584
-2.75301
-2.94618
-3.16749
-3.41972
-3.70982
-1.39895
-1.41053
-1.42875
-1.45134
-1.4783
-1.51065
-1.5492
-1.59451
-1.64686
-1.70624
-1.77256
-1.84592
-1.92692
-2.01661
-2.11635
-2.22759
-2.35193
-2.49148
-2.64909
-2.82814
-3.03173
-3.26147
-3.52381
-1.35884
-1.36974
-1.38708
-1.4088
-1.43471
-1.46566
-1.50236
-1.54532
-1.59482
-1.65089
-1.71343
-1.78251
-1.85861
-1.94267
-2.03584
-2.13933
-2.25441
-2.38277
-2.52674
-2.68905
-2.87193
-3.07604
-3.30701
-1.31443
-1.32455
-1.34086
-1.3615
-1.38616
-1.41548
-1.45006
-1.49035
-1.53664
-1.58897
-1.64724
-1.71147
-1.78204
-1.85967
-1.94532
-2.03993
-2.14445
-2.26015
-2.38881
-2.5325
-2.69262
-2.86894
-3.06579
-1.26601
-1.27535
-1.29051
-1.30992
-1.33316
-1.36068
-1.39293
-1.43031
-1.47307
-1.52129
-1.57487
-1.6338
-1.6983
-1.76891
-1.84633
-1.93123
-2.02426
-2.12628
-2.23858
-2.36255
-2.49886
-2.64649
-2.80801
-1.21393
-1.22248
-1.23644
-1.25452
-1.27622
-1.3018
-1.33157
-1.36585
-1.40487
-1.4487
-1.49728
-1.55054
-1.60859
-1.67178
-1.74054
-1.81526
-1.89629
-1.98414
-2.07959
-2.1835
-2.29594
-2.41528
-2.54227
-1.1585
-1.1663
-1.17906
-1.19574
-1.2158
-1.23935
-1.26655
-1.29763
-1.33278
-1.37206
-1.41542
-1.46278
-1.51414
-1.56967
-1.6296
-1.69403
-1.76303
-1.83673
-1.9155
-1.99971
-2.08904
-2.18157
-2.27655
-1.10005
-1.10714
-1.11871
-1.13396
-1.15233
-1.17378
-1.19837
-1.22622
-1.25745
-1.29213
-1.3302
-1.37155
-1.41613
-1.46396
-1.51508
-1.5694
-1.62668
-1.68676
-1.74961
-1.81519
-1.8829
-1.95086
-2.01742
-1.03892
-1.04533
-1.05575
-1.06957
-1.08619
-1.1055
-1.12746
-1.1521
-1.17948
-1.20961
-1.24244
-1.27784
-1.3157
-1.35594
-1.39847
-1.44303
-1.4892
-1.53653
-1.58468
-1.63326
-1.68149
-1.72769
-1.76984
-0.975392
-0.981217
-0.990508
-1.0029
-1.01775
-1.0349
-1.05424
-1.07572
-1.09935
-1.12509
-1.15286
-1.18251
-1.21387
-1.24681
-1.28112
-1.31647
-1.35229
-1.38798
-1.42295
-1.45654
-1.48786
-1.51545
-1.53731
-0.909758
-0.915118
-0.923329
-0.934313
-0.947371
-0.962338
-0.979075
-0.997481
-1.0175
-1.03906
-1.06204
-1.08625
-1.1115
-1.13757
-1.16423
-1.19105
-1.21746
-1.24275
-1.26619
-1.28697
-1.30413
-1.31645
-1.32208
-0.842371
-0.847416
-0.854567
-0.864172
-0.875423
-0.888199
-0.90236
-0.917771
-0.934333
-0.951937
-0.970428
-0.989594
-1.0092
-1.02899
-1.04867
-1.06782
-1.08586
-1.10206
-1.11567
-1.12583
-1.13156
-1.13188
-1.12513
-0.773657
-0.778533
-0.784574
-0.792839
-0.802277
-0.81286
-0.824476
-0.836981
-0.850244
-0.864121
-0.878431
-0.89295
-0.907417
-0.921555
-0.935035
-0.947431
-0.958192
-0.966662
-0.972113
-0.973721
-0.970602
-0.961939
-0.946346
-0.70359
-0.708834
-0.713682
-0.720678
-0.728308
-0.736706
-0.74582
-0.755514
-0.765631
-0.776
-0.786425
-0.796679
-0.806502
-0.815607
-0.823659
-0.830243
-0.834854
-0.836912
-0.835782
-0.83075
-0.821066
-0.806108
-0.784763
-0.631291
-0.638607
-0.64215
-0.647965
-0.653789
-0.660018
-0.666693
-0.673684
-0.680815
-0.687893
-0.694716
-0.701064
-0.7067
-0.71136
-0.714727
-0.716415
-0.715964
-0.712872
-0.706619
-0.696636
-0.682354
-0.663362
-0.63883
-0.556805
-0.568397
-0.570078
-0.574769
-0.578784
-0.582864
-0.587176
-0.591585
-0.595896
-0.599901
-0.603397
-0.606188
-0.608075
-0.608839
-0.608208
-0.605844
-0.601342
-0.594275
-0.584227
-0.570783
-0.553569
-0.532395
-0.506719
-0.483121
-0.500314
-0.498205
-0.501703
-0.503912
-0.505838
-0.507831
-0.509756
-0.511396
-0.512535
-0.512979
-0.512556
-0.51111
-0.50848
-0.504461
-0.498779
-0.491104
-0.481077
-0.468367
-0.452696
-0.433884
-0.411961
-0.38664
-0.409603
-0.440917
-0.43025
-0.431375
-0.431558
-0.431252
-0.43092
-0.430434
-0.429551
-0.428046
-0.425735
-0.422464
-0.418117
-0.412582
-0.40572
-0.397331
-0.38716
-0.374924
-0.360376
-0.343355
-0.32385
-0.302067
-0.277907
-0.318728
-0.397782
-0.368931
-0.363322
-0.360553
-0.357873
-0.355233
-0.352446
-0.349231
-0.345358
-0.340651
-0.334979
-0.328244
-0.320365
-0.311247
-0.300761
-0.288739
-0.274996
-0.25938
-0.241822
-0.222408
-0.201433
-0.179409
-0.191881
-0.349748
-0.29427
-0.279363
-0.2728
-0.267571
-0.262625
-0.257533
-0.251987
-0.245784
-0.238785
-0.230888
-0.222021
-0.212131
-0.201177
-0.189118
-0.175914
-0.161538
-0.145986
-0.129296
-0.111563
-0.0929636
-0.0735957
235.972
322.06
471.597
328.286
812.321
773.942
719.864
642.564
982.444
926.887
874.083
835.197
982.617
962.98
950.016
939.754
1003.13
1004.86
1009.42
1011.86
987.255
1108.13
1105.27
1104.82
70.6113
147.966
249.633
350.57
-3.54045
-4.01116
-4.45017
-4.9053
-3.09402
-3.19146
-3.29327
-3.51861
-3.45624
-3.58918
-3.70391
-3.77187
-3.53662
-3.65314
-3.77745
-3.89295
-3.63439
-3.75429
-3.88461
-4.00947
-3.73565
-3.86463
-4.00621
-4.1426
-3.84619
-3.98931
-4.14677
-4.30023
-3.96932
-4.13069
-4.30764
-4.48189
-4.09781
-4.27827
-4.47487
-4.67022
-4.21628
-4.41429
-4.629
-4.84474
-4.30553
-4.51777
-4.74819
-4.98369
-4.3488
-4.56961
-4.81071
-5.05814
-4.33553
-4.55692
-4.79938
-5.05196
-4.2634
-4.4781
-4.71326
-4.95865
-4.1376
-4.34052
-4.5636
-4.80052
-3.96667
-4.15482
-4.36283
-4.58698
-3.75651
-3.92729
-4.11676
-4.32137
-3.51158
-3.66162
-3.82782
-4.00557
-3.2386
-3.36464
-3.50316
-3.6488
-2.94704
-3.04705
-3.15543
-3.26711
-2.64794
-2.72208
-2.80064
-2.87985
-2.3516
-2.40207
-2.45371
-2.50445
-2.06599
-2.09627
-2.12523
-2.15257
-1.79656
-1.81058
-1.82158
-1.83069
-1.54668
-1.54827
-1.54596
-1.54172
-1.31819
-1.31071
-1.29908
-1.28572
-1.11162
-1.09789
-1.08019
-1.06111
-0.926468
-0.908867
-0.887676
-0.865476
-0.761305
-0.741819
-0.719164
-0.69579
-0.614017
-0.594201
-0.571639
-0.548545
-0.48223
-0.463234
-0.4419
-0.420142
-0.363582
-0.346215
-0.326948
-0.307311
-0.25669
-0.241399
-0.224813
-0.20763
-0.162546
-0.150427
-0.136445
-0.119314
-0.0579631
-0.0470064
-0.0345004
-0.0192807
9.66832
10.3744
10.4812
10.3588
10.3443
10.3728
10.395
10.4021
10.3943
10.3746
10.3465
10.3139
10.2801
10.2476
10.2184
10.1941
10.1758
10.1648
10.1607
505.895
63.508
10.5457
10.4474
10.37
10.3968
10.4197
10.4281
10.418
10.3929
10.3573
10.3164
10.2747
10.2356
10.2013
10.1732
10.1526
10.1406
10.1365
777.627
679.387
291.024
10.9459
10.6181
10.5387
10.4883
10.4706
10.4501
10.4177
10.3723
10.3201
10.2675
10.2192
10.1778
10.1449
10.1214
10.1084
10.1044
911.94
884.263
862.382
532.359
37.6374
11.1206
10.6808
10.5624
10.4935
10.4463
10.3901
10.324
10.2572
10.1968
10.1462
10.1072
10.0804
10.0663
10.0627
1009.67
1000.41
996.932
995.4
623.789
54.8841
11.9778
10.7879
10.568
10.4768
10.406
10.3252
10.2419
10.1665
10.1045
10.0581
10.0274
10.0124
10.0094
1108.17
1102.39
1103.36
1111.47
1118.91
550.263
33.257
12.6095
10.8417
10.5282
10.4159
10.318
10.2175
10.1252
10.0499
9.99472
9.95981
9.94398
9.94192
749.151
1242.95
1220.88
1215.42
1224.56
1141.31
315.438
17.9491
11.863
10.6837
10.4241
10.295
10.1773
10.0684
9.97889
9.91414
9.87464
9.85823
9.85746
12.9763
131.977
643.26
1321.04
1326.9
1327.16
846.696
82.8966
14.4273
11.1072
10.4508
10.2478
10.1119
9.98937
9.88701
9.81287
9.76881
9.75214
9.75303
-3.71444
-4.87475
-5.49929
477.524
1369.4
1409.36
1252.37
294.781
18.8905
11.9171
10.5074
10.1691
10.0116
9.88047
9.76896
9.68716
9.63923
9.62273
9.62564
-3.87192
-4.17838
-4.51109
-5.719
904.254
1488.79
1421.62
552.636
26.4721
12.9146
10.5526
10.048
9.86874
9.73489
9.61956
9.53338
9.48308
9.46738
9.47261
-4.06706
-4.31481
-4.40821
-4.7688
368.161
1444.13
1441.78
851.562
58.7657
13.9151
10.5621
9.88031
9.68023
9.54885
9.43522
9.34869
9.29817
9.2841
9.29186
-4.20182
-4.43153
-4.44811
-4.51354
54.659
1273.37
1506.82
1065.84
108.111
14.9045
10.5235
9.66129
9.44562
9.32136
9.2143
9.13153
9.08326
9.07176
9.08223
-4.34943
-4.58935
-4.64913
-4.5131
-4.77618
1041.52
1550.1
1131.5
144.252
15.3904
10.3384
9.37759
9.16518
9.05319
8.95707
8.88188
8.83831
8.83034
8.84362
-4.53334
-4.80167
-4.89631
-4.74655
-5.23875
838.479
1557.4
1160.06
154.599
15.2291
9.97526
9.0307
8.84195
8.74708
8.66571
8.60128
8.56455
8.56096
8.57705
-4.71665
-5.02791
-5.19488
-5.08395
-5.76985
846.815
1569.43
1174.98
152.126
14.3454
9.4458
8.63076
8.48083
8.40753
8.34404
8.2927
8.26438
8.26575
8.28452
-4.85624
-5.17977
-5.48728
-5.46725
-6.08709
918.002
1578.08
1037.99
108.895
12.7659
8.78939
8.19492
8.09106
8.0418
7.99761
7.96037
7.94119
7.94769
7.96883
-5.04179
-5.44966
-5.77348
-5.87363
21.7229
1023.87
1217.59
508.623
54.5158
13.0434
8.39949
7.77111
7.68754
7.65933
7.63312
7.6093
7.59898
7.61022
7.63325
-5.28225
-5.72884
-6.10459
-6.36556
169.282
1064.06
436.675
44.3504
24.2958
12.1921
7.94112
7.33386
7.27647
7.26771
7.25676
7.24438
7.24173
7.25689
7.28118
-5.47012
-5.89956
-6.32737
-6.88155
459.61
1035.45
236.982
16.1492
9.39834
7.78246
7.06453
6.8708
6.86568
6.87378
6.87372
6.86972
6.8729
6.89086
6.91575
-5.44883
-5.7813
-6.40318
-6.87526
563.266
987.947
824.272
102.717
8.16556
6.7807
6.46407
6.44722
6.4695
6.48335
6.48752
6.48812
6.49509
6.51472
6.53961
-5.36703
-5.77587
-6.28059
-5.86932
261.753
979.098
926.166
261.858
8.72368
6.80925
6.19384
6.08631
6.08669
6.09431
6.09778
6.1004
6.10991
6.13049
6.15494
-5.20818
-5.69606
-5.38887
-5.92323
-6.58332
935.339
954.16
953.312
100.8
7.06541
5.93366
5.7219
5.6941
5.69592
5.70024
5.70576
5.71832
5.73998
5.76382
-4.97535
-5.46257
-5.53629
-5.83688
-5.45868
457.7
995.404
969.236
418.459
12.2685
5.5588
5.2914
5.26392
5.27545
5.29004
5.30347
5.32165
5.3454
5.36878
-4.68021
-5.17388
-5.54197
-4.24839
-4.77385
-2.8397
757.387
991.034
789.757
32.4118
4.82335
4.76182
4.78758
4.83052
4.86746
4.89542
4.92263
4.9499
4.97333
-4.3191
-4.78631
-5.24047
-5.18898
-2.28186
-2.24017
80.6963
528.997
497.979
60.7402
4.4004
4.25153
4.29428
4.37542
4.44061
4.48728
4.52585
4.55759
4.58196
-3.90422
-4.30348
-4.72864
-5.08527
-3.685
-0.384107
1.76266
24.0627
33.4226
63.624
6.23334
3.83605
3.80695
3.92688
4.02014
4.08651
4.13688
4.17266
4.20015
-3.45994
-3.75977
-4.09212
-4.4028
-4.30203
-1.83527
-0.00186192
1.43828
3.87206
10.6522
4.61835
3.19101
3.32031
3.49307
3.61471
3.70019
3.76139
3.79969
3.83227
-3.01362
-3.20893
-3.41327
-3.60394
-3.64109
-2.64874
-1.96807
-1.55152
-0.266634
0.554298
1.87174
2.53121
2.86595
3.08627
3.23268
3.3341
3.40361
3.44449
3.47914
-2.5878
-2.69471
-2.78426
-2.83963
-2.79311
-2.42332
-1.95712
-1.33087
-0.402286
0.592836
1.54599
2.12301
2.483
2.72056
2.8813
2.99232
3.06671
3.10931
3.14191
-2.19607
-2.2371
-2.24561
-2.2052
-2.08165
-1.82123
-1.40669
-0.833306
-0.096379
0.688289
1.37125
1.84316
2.17219
2.40192
2.56363
2.67639
2.75163
2.79461
2.82259
-1.84435
-1.84008
-1.79818
-1.70487
-1.54253
-1.28288
-0.914606
-0.435917
0.134479
0.724434
1.23768
1.62417
1.91173
2.12307
2.27649
2.38501
2.4578
2.49965
2.52224
-1.53397
-1.50047
-1.43046
-1.31302
-1.13625
-0.887572
-0.562828
-0.168256
0.274306
0.721263
1.11793
1.43614
1.68477
1.874
2.01448
2.11539
2.18363
2.22303
2.24031
-1.26352
-1.21246
-1.12908
-1.00556
-0.83361
-0.607576
-0.327966
-0.00364054
0.346531
0.693824
1.00732
1.2699
1.482
1.64765
1.77312
1.86464
1.92702
1.96301
1.97546
-1.02999
-0.969654
-0.882101
-0.76207
-0.604361
-0.406452
-0.17078
0.0943626
0.374369
0.649814
0.901497
1.11787
1.29655
1.43898
1.54886
1.63011
1.68579
1.71775
1.72608
-0.829623
-0.765948
-0.68015
-0.5688
-0.42899
-0.259964
-0.0644349
0.150838
0.375074
0.594908
0.797586
0.974782
1.12358
1.24422
1.33872
1.40933
1.45786
1.48549
1.49044
-0.65829
-0.59559
-0.515513
-0.415858
-0.295279
-0.153871
0.00595758
0.17902
0.357525
0.532199
0.694309
0.837808
0.959988
1.06046
1.1401
1.20005
1.24131
1.26454
1.26681
-0.51167
-0.453093
-0.381574
-0.295651
-0.194746
-0.0792347
0.048922
0.185859
0.326031
0.463019
0.590811
0.705046
0.803433
0.885258
0.950712
1.00026
1.03433
1.05331
1.05348
-0.385581
-0.333427
-0.272702
-0.201944
-0.120797
-0.0295818
0.0702039
0.175748
0.283168
0.388073
0.486351
0.574898
0.651874
0.716472
0.768523
0.808087
0.835251
0.850225
0.848848
-0.276259
-0.232211
-0.18403
-0.129554
-0.0681093
0.000166624
0.0741863
0.151955
0.23082
0.307845
0.380282
0.44598
0.50354
0.552215
0.591693
0.621826
0.642492
0.653818
0.651414
-0.179316
-0.143094
-0.110669
-0.0740352
-0.0323694
0.0139971
0.0642097
0.116879
0.170266
0.22251
0.271872
0.316949
0.35676
0.390708
0.418462
0.439791
0.454449
0.462532
0.459665
-0.0864018
-0.0563145
-0.0471014
-0.0311936
-0.00981521
0.0151666
0.0428006
0.07212
0.102095
0.131698
0.159984
0.186162
0.209641
0.230011
0.246999
0.260366
0.269809
0.275401
0.272957
0.0101504
0.0164115
0.000999948
-0.00158782
0.00149618
0.00691073
0.0137181
0.021416
0.029635
0.0380787
0.0464837
0.0546133
0.0622623
0.0692589
0.0754598
0.0807121
0.0847874
0.0877613
0.0874366
)
;

boundaryField
{
    leftWall
    {
        type            fixedFluxPressure;
        gradient        uniform 0;
        value           nonuniform List<scalar> 
50
(
1259.46
1258.36
1256.42
1253.87
1250.71
1246.94
1242.58
1237.7
1229.24
1215.8
1201.38
1186.47
1176.11
900.312
41.77
-1.52171
-1.40132
-1.39811
-1.4005
-1.42723
-1.45415
-1.48013
-1.50213
-1.51823
-1.5272
-1.52897
-1.52281
-1.50967
-1.49021
-1.46498
-1.43444
-1.39895
-1.35884
-1.31443
-1.26601
-1.21393
-1.1585
-1.10005
-1.03892
-0.975392
-0.909758
-0.842371
-0.773657
-0.70359
-0.631291
-0.556805
-0.483121
-0.409603
-0.318728
-0.191881
)
;
    }
    rightWall
    {
        type            fixedFluxPressure;
        gradient        uniform 0;
        value           nonuniform List<scalar> 
50
(
10.1999
10.1992
10.1976
10.195
10.1914
10.1866
10.1808
10.1737
10.1607
10.1365
10.1044
10.0627
10.0094
9.94192
9.85746
9.75303
9.62564
9.47261
9.29186
9.08223
8.84362
8.57705
8.28452
7.96883
7.63325
7.28118
6.91575
6.53961
6.15494
5.76382
5.36878
4.97333
4.58196
4.20015
3.83227
3.47914
3.14191
2.82259
2.52224
2.24031
1.97546
1.72608
1.49044
1.26681
1.05348
0.848848
0.651414
0.459665
0.272957
0.0874366
)
;
    }
    lowerWall
    {
        type            fixedFluxPressure;
        gradient        uniform 0;
        value           nonuniform List<scalar> 
62
(
1259.46
1264.3
1276.49
1291.99
1306.08
1317.84
1327.08
1334.08
1339.21
1342.86
1345.56
1348.09
1351.6
1357.86
1369.6
1391.31
1428.29
1485.2
1562.33
1649.06
1725.06
1747.43
1801.32
1801.32
1802.02
1823.93
1855.4
1872.25
1855.66
1773.58
1581.41
235.972
322.06
471.597
328.286
10.3268
10.3266
10.3218
10.3103
10.2874
10.2477
10.1828
10.1011
10.3268
10.3302
10.3428
10.354
10.3659
10.3777
10.3856
10.3867
10.3799
10.3656
10.3451
10.3209
10.2952
10.27
10.247
10.2277
10.2132
10.2039
10.1999
)
;
    }
    atmosphere
    {
        type            totalPressure;
        rho             rho;
        psi             none;
        gamma           1;
        p0              uniform 0;
        value           nonuniform List<scalar> 
46
(
-0.156239
-0.244504
-0.227495
-0.219787
-0.213525
-0.207717
-0.201871
-0.195679
-0.188938
-0.181515
-0.173322
-0.164292
-0.15438
-0.14356
-0.13183
-0.119222
-0.105805
-0.0916914
-0.0770427
-0.0620699
-0.0470572
-0.0324243
-0.0188545
-0.0102462
-0.00626005
-0.00352112
-0.00177763
-0.000307664
0
0
0
0
0
0
0
0
0
0
0
0
0
0
0
0
0
0
)
;
    }
    defaultFaces
    {
        type            empty;
    }
}


// ************************************************************************* //
