/*--------------------------------*- C++ -*----------------------------------*\
  =========                 |
  \\      /  F ield         | OpenFOAM: The Open Source CFD Toolbox
   \\    /   O peration     | Website:  https://openfoam.org
    \\  /    A nd           | Version:  9
     \\/     M anipulation  |
\*---------------------------------------------------------------------------*/
FoamFile
{
    format      ascii;
    class       volVectorField;
    location    "0.3";
    object      U;
}
// * * * * * * * * * * * * * * * * * * * * * * * * * * * * * * * * * * * * * //

dimensions      [0 1 -1 0 0 0 0];

internalField   nonuniform List<vector> 
2268
(
(-0.0402563 0.14619 0)
(-0.724649 0.0265249 0)
(-0.679782 -0.0596558 0)
(-0.451346 0.0155295 0)
(-0.604263 0.0268669 0)
(-0.664347 0.0230487 0)
(-0.726026 0.0146025 0)
(-0.755261 0.00400123 0)
(-0.752385 -0.00527125 0)
(-0.724867 -0.0123149 0)
(-0.68028 -0.0181469 0)
(-0.61788 -0.0243747 0)
(-0.53757 -0.0314466 0)
(-0.436313 -0.0401286 0)
(-0.308623 -0.0510011 0)
(-0.150068 -0.0647343 0)
(0.0390424 -0.0791186 0)
(0.2495 -0.0867524 0)
(0.456978 -0.0783883 0)
(0.611854 -0.0448494 0)
(0.652708 0.017787 0)
(0.456386 0.075411 0)
(0.121885 0.0713903 0)
(-0.0686092 0.294392 0)
(-0.372666 0.139228 0)
(-0.714077 -0.0430055 0)
(-0.643386 0.0384713 0)
(-0.777735 0.0563362 0)
(-0.823229 0.0442676 0)
(-0.857724 0.026425 0)
(-0.865055 0.00633309 0)
(-0.855101 -0.0115373 0)
(-0.828102 -0.0262693 0)
(-0.783082 -0.0392112 0)
(-0.721475 -0.0520014 0)
(-0.642863 -0.0658954 0)
(-0.545747 -0.0824728 0)
(-0.426658 -0.102474 0)
(-0.281566 -0.126055 0)
(-0.110316 -0.1491 0)
(0.0798049 -0.159468 0)
(0.269357 -0.137988 0)
(0.414264 -0.0670492 0)
(0.501678 0.055333 0)
(0.474046 0.182193 0)
(0.200803 0.193174 0)
(-0.0819425 0.395105 0)
(-0.283214 0.276781 0)
(-0.688124 0.0215681 0)
(-0.67691 0.0807308 0)
(-0.801366 0.0879148 0)
(-0.852804 0.0648509 0)
(-0.892628 0.0361603 0)
(-0.907862 0.00682534 0)
(-0.904133 -0.019291 0)
(-0.881295 -0.0420989 0)
(-0.840803 -0.0628006 0)
(-0.784659 -0.0827122 0)
(-0.713023 -0.10389 0)
(-0.625494 -0.128382 0)
(-0.520452 -0.15724 0)
(-0.394719 -0.190645 0)
(-0.247678 -0.223213 0)
(-0.0839251 -0.239186 0)
(0.0825201 -0.21257 0)
(0.219014 -0.119495 0)
(0.296804 0.0418951 0)
(0.314081 0.240034 0)
(0.176064 0.307846 0)
(-0.0871465 0.485841 0)
(-0.272218 0.409503 0)
(-0.657408 0.0982099 0)
(-0.671478 0.129661 0)
(-0.798912 0.124717 0)
(-0.861332 0.0905676 0)
(-0.909533 0.0509341 0)
(-0.932624 0.0114753 0)
(-0.935381 -0.0240923 0)
(-0.918646 -0.0555095 0)
(-0.884657 -0.0839547 0)
(-0.835965 -0.110948 0)
(-0.77366 -0.138854 0)
(-0.698449 -0.170436 0)
(-0.610474 -0.207174 0)
(-0.508055 -0.24926 0)
(-0.390323 -0.290803 0)
(-0.258517 -0.313098 0)
(-0.119589 -0.283473 0)
(0.00855592 -0.170146 0)
(0.101362 0.0243987 0)
(0.139482 0.264942 0)
(0.113807 0.389981 0)
(-0.103276 0.573007 0)
(-0.197789 0.533425 0)
(-0.616629 0.187118 0)
(-0.651013 0.185804 0)
(-0.786369 0.166498 0)
(-0.859504 0.120459 0)
(-0.915482 0.0694241 0)
(-0.945905 0.0194076 0)
(-0.955384 -0.0258337 0)
(-0.945535 -0.0658397 0)
(-0.918915 -0.101702 0)
(-0.87857 -0.135143 0)
(-0.826535 -0.168665 0)
(-0.76462 -0.205427 0)
(-0.694666 -0.247364 0)
(-0.616987 -0.294948 0)
(-0.531497 -0.342756 0)
(-0.437212 -0.371664 0)
(-0.332777 -0.344919 0)
(-0.2179 -0.222482 0)
(-0.101074 -0.00435144 0)
(-0.0262161 0.254125 0)
(0.0403719 0.425042 0)
(-0.122404 0.657477 0)
(-0.153632 0.62679 0)
(-0.568 0.285696 0)
(-0.624467 0.248649 0)
(-0.767169 0.213093 0)
(-0.849717 0.154176 0)
(-0.912622 0.0913499 0)
(-0.949877 0.0305844 0)
(-0.965991 -0.0243116 0)
(-0.963169 -0.072716 0)
(-0.944133 -0.115606 0)
(-0.91229 -0.154797 0)
(-0.870467 -0.192804 0)
(-0.821402 -0.232893 0)
(-0.768372 -0.277276 0)
(-0.713775 -0.326703 0)
(-0.65933 -0.376896 0)
(-0.60421 -0.410948 0)
(-0.541301 -0.393064 0)
(-0.450905 -0.276813 0)
(-0.31351 -0.0505301 0)
(-0.171761 0.22099 0)
(-0.0319295 0.392258 0)
(-0.138748 0.739256 0)
(-0.135935 0.702356 0)
(-0.518668 0.386419 0)
(-0.595751 0.31608 0)
(-0.742686 0.263952 0)
(-0.83315 0.191396 0)
(-0.902128 0.116492 0)
(-0.945722 0.0448956 0)
(-0.968214 -0.0195616 0)
(-0.972239 -0.0761533 0)
(-0.960627 -0.125723 0)
(-0.937004 -0.170087 0)
(-0.904755 -0.211691 0)
(-0.867255 -0.253701 0)
(-0.828716 -0.298383 0)
(-0.793125 -0.346537 0)
(-0.764079 -0.394974 0)
(-0.742803 -0.43045 0)
(-0.721968 -0.423398 0)
(-0.670589 -0.329114 0)
(-0.533897 -0.121608 0)
(-0.312817 0.150668 0)
(-0.0840791 0.316015 0)
(-0.148778 0.814479 0)
(-0.116489 0.774 0)
(-0.473535 0.483348 0)
(-0.566005 0.386132 0)
(-0.71365 0.317726 0)
(-0.810707 0.231429 0)
(-0.884999 0.144424 0)
(-0.93454 0.0621018 0)
(-0.963177 -0.0117357 0)
(-0.973786 -0.0762944 0)
(-0.969316 -0.13225 0)
(-0.953471 -0.181324 0)
(-0.929921 -0.22589 0)
(-0.90243 -0.26891 0)
(-0.875578 -0.312507 0)
(-0.85408 -0.357365 0)
(-0.842561 -0.400923 0)
(-0.844131 -0.433317 0)
(-0.854988 -0.433169 0)
(-0.846994 -0.366367 0)
(-0.750887 -0.209827 0)
(-0.509736 -0.00195271 0)
(-0.177052 0.128254 0)
(0.0403432 -0.0116423 0)
(0.0153298 0.0175994 0)
(-0.0875366 0.025913 0)
(-0.166519 0.0204693 0)
(-0.220383 0.0131768 0)
(-0.250861 0.00606942 0)
(-0.260977 0.000765048 0)
(-0.255643 -0.00284972 0)
(-0.242053 -0.00493485 0)
(-0.222383 -0.00642365 0)
(-0.198424 -0.00754114 0)
(-0.171308 -0.00841461 0)
(-0.141858 -0.00909577 0)
(-0.110736 -0.00959286 0)
(-0.0786689 -0.00990238 0)
(-0.0468213 -0.00982133 0)
(-0.0166321 -0.00863887 0)
(0.00797202 -0.00487157 0)
(0.0112899 0.00299551 0)
(0.00248617 -0.0153765 0)
(-0.059347 0.0482159 0)
(-0.158016 0.0580734 0)
(-0.224278 0.0427676 0)
(-0.260823 0.0260392 0)
(-0.27702 0.011503 0)
(-0.278843 0.000813134 0)
(-0.271824 -0.00642949 0)
(-0.257246 -0.0111873 0)
(-0.237167 -0.0145595 0)
(-0.213064 -0.0169828 0)
(-0.186002 -0.0187849 0)
(-0.156809 -0.0200825 0)
(-0.126158 -0.0209334 0)
(-0.094749 -0.0212579 0)
(-0.0636174 -0.0206966 0)
(-0.0341438 -0.0179136 0)
(-0.00781793 -0.00972738 0)
(0.00369955 0.00562126 0)
(-0.0423572 0.00982664 0)
(-0.11607 0.0819416 0)
(-0.195381 0.0871386 0)
(-0.247398 0.0610232 0)
(-0.275104 0.0352317 0)
(-0.287412 0.0143785 0)
(-0.28776 -0.000687142 0)
(-0.279595 -0.0111015 0)
(-0.264513 -0.0183712 0)
(-0.244434 -0.0235611 0)
(-0.220637 -0.0273157 0)
(-0.194105 -0.0300665 0)
(-0.165632 -0.0320177 0)
(-0.135878 -0.0332492 0)
(-0.105512 -0.0336486 0)
(-0.07542 -0.0327525 0)
(-0.0467022 -0.0290447 0)
(-0.0202652 -0.0188397 0)
(-0.00448061 0.00242957 0)
(-0.0803239 0.052923 0)
(-0.164182 0.115546 0)
(-0.227568 0.111742 0)
(-0.269365 0.0759978 0)
(-0.290088 0.0427336 0)
(-0.298406 0.0164721 0)
(-0.296432 -0.00265313 0)
(-0.286809 -0.0161875 0)
(-0.271042 -0.0258079 0)
(-0.250792 -0.0327536 0)
(-0.227167 -0.0377725 0)
(-0.201054 -0.0414646 0)
(-0.173189 -0.0440474 0)
(-0.144187 -0.0456811 0)
(-0.11465 -0.0461716 0)
(-0.0852771 -0.0450432 0)
(-0.0567994 -0.0406349 0)
(-0.0295082 -0.0290123 0)
(-0.00977893 -0.00409951 0)
(-0.116906 0.112285 0)
(-0.212668 0.14859 0)
(-0.261267 0.131923 0)
(-0.293722 0.0874853 0)
(-0.307185 0.0479336 0)
(-0.310817 0.0171044 0)
(-0.305902 -0.00554977 0)
(-0.294473 -0.0218473 0)
(-0.277757 -0.0335777 0)
(-0.25711 -0.0421197 0)
(-0.233471 -0.048306 0)
(-0.207609 -0.0528607 0)
(-0.180181 -0.0560279 0)
(-0.151722 -0.0580249 0)
(-0.122733 -0.0586225 0)
(-0.0937007 -0.0573662 0)
(-0.0649725 -0.0525998 0)
(-0.0362977 -0.0403803 0)
(-0.0129336 -0.0129973 0)
(-0.15834 0.191761 0)
(-0.267785 0.181461 0)
(-0.29871 0.147324 0)
(-0.320798 0.0950997 0)
(-0.326213 0.0504286 0)
(-0.324492 0.0159699 0)
(-0.316154 -0.00956027 0)
(-0.302597 -0.0281722 0)
(-0.284678 -0.0417052 0)
(-0.263429 -0.0516355 0)
(-0.2396 -0.0588525 0)
(-0.213826 -0.0641708 0)
(-0.18666 -0.0678621 0)
(-0.158539 -0.0701947 0)
(-0.129837 -0.0709445 0)
(-0.100831 -0.0697203 0)
(-0.0715159 -0.0649724 0)
(-0.0412538 -0.0528203 0)
(-0.0148813 -0.0235749 0)
(-0.208583 0.294038 0)
(-0.333732 0.213363 0)
(-0.340835 0.156677 0)
(-0.350154 0.0982648 0)
(-0.346602 0.049896 0)
(-0.338957 0.0128512 0)
(-0.326827 -0.0148345 0)
(-0.310883 -0.0352718 0)
(-0.291561 -0.0502763 0)
(-0.269547 -0.0613682 0)
(-0.245384 -0.0694639 0)
(-0.219558 -0.0754406 0)
(-0.192505 -0.0796007 0)
(-0.164547 -0.0822598 0)
(-0.135929 -0.0832341 0)
(-0.106727 -0.0822209 0)
(-0.0766459 -0.0778223 0)
(-0.0448412 -0.0661739 0)
(-0.0162181 -0.0353461 0)
(-0.289041 0.445803 0)
(-0.407276 0.233409 0)
(-0.387822 0.157398 0)
(-0.380805 0.0959846 0)
(-0.367585 0.045964 0)
(-0.353648 0.00757053 0)
(-0.33749 -0.0214609 0)
(-0.318975 -0.0431757 0)
(-0.298097 -0.0592964 0)
(-0.275185 -0.0712974 0)
(-0.250573 -0.0801188 0)
(-0.224589 -0.0866453 0)
(-0.197539 -0.0912345 0)
(-0.169624 -0.0942218 0)
(-0.140954 -0.0955029 0)
(-0.111433 -0.0948626 0)
(-0.0805233 -0.0910817 0)
(-0.0473649 -0.0802413 0)
(-0.0172201 -0.0478472 0)
(-0.153091 0.917268 0)
(-0.0914132 0.878545 0)
(-0.411964 0.621883 0)
(-0.519237 0.498633 0)
(-0.66396 0.404062 0)
(-0.769825 0.297328 0)
(-0.8518 0.191876 0)
(-0.910419 0.0932717 0)
(-0.948634 0.0052502 0)
(-0.969297 -0.0711495 0)
(-0.975531 -0.136469 0)
(-0.97096 -0.192164 0)
(-0.959342 -0.240546 0)
(-0.94469 -0.284184 0)
(-0.931416 -0.324827 0)
(-0.924078 -0.36307 0)
(-0.927166 -0.396809 0)
(-0.944345 -0.419875 0)
(-0.975541 -0.42012 0)
(-1.00566 -0.378055 0)
(-0.991122 -0.279148 0)
(-0.886239 -0.141864 0)
(-0.734219 -0.0106575 0)
(-0.148612 1.03826 0)
(-0.0743065 1.00355 0)
(-0.347189 0.789596 0)
(-0.462431 0.65337 0)
(-0.605075 0.528963 0)
(-0.71943 0.397438 0)
(-0.811635 0.268514 0)
(-0.882265 0.14853 0)
(-0.933026 0.0415046 0)
(-0.966213 -0.0509405 0)
(-0.984827 -0.128866 0)
(-0.992315 -0.193501 0)
(-0.992422 -0.246912 0)
(-0.98897 -0.291453 0)
(-0.985787 -0.328911 0)
(-0.986475 -0.359802 0)
(-0.994187 -0.382747 0)
(-1.01118 -0.393891 0)
(-1.03735 -0.386602 0)
(-1.06584 -0.351747 0)
(-1.0796 -0.283423 0)
(-1.06005 -0.192195 0)
(-1.01049 -0.106293 0)
(-0.138605 1.14157 0)
(-0.0610287 1.11013 0)
(-0.296529 0.943277 0)
(-0.414867 0.803322 0)
(-0.556202 0.658243 0)
(-0.676172 0.505809 0)
(-0.776854 0.355837 0)
(-0.85787 0.21551 0)
(-0.919672 0.0896182 0)
(-0.963684 -0.0192443 0)
(-0.992466 -0.110422 0)
(-1.00917 -0.184732 0)
(-1.01743 -0.244114 0)
(-1.02084 -0.291014 0)
(-1.02275 -0.32752 0)
(-1.02598 -0.35472 0)
(-1.0326 -0.372199 0)
(-1.04358 -0.377769 0)
(-1.05784 -0.367484 0)
(-1.07029 -0.336534 0)
(-1.07115 -0.2829 0)
(-1.05054 -0.212578 0)
(-1.00847 -0.138226 0)
(-0.12475 1.23039 0)
(-0.0491422 1.20312 0)
(-0.260398 1.08547 0)
(-0.376731 0.947733 0)
(-0.515635 0.788963 0)
(-0.638492 0.619669 0)
(-0.745256 0.451436 0)
(-0.834588 0.292279 0)
(-0.905776 0.147913 0)
(-0.959185 0.0221413 0)
(-0.996587 -0.0832788 0)
(-1.02073 -0.168523 0)
(-1.03497 -0.235299 0)
(-1.04277 -0.286232 0)
(-1.04722 -0.323925 0)
(-1.05074 -0.350199 0)
(-1.05487 -0.36568 0)
(-1.06004 -0.369694 0)
(-1.06507 -0.360505 0)
(-1.06639 -0.336194 0)
(-1.05823 -0.296825 0)
(-1.03471 -0.246595 0)
(-0.994938 -0.192318 0)
(-0.103934 1.30638 0)
(-0.0446873 1.2885 0)
(-0.24264 1.21744 0)
(-0.347916 1.08613 0)
(-0.482136 0.918759 0)
(-0.60509 0.736556 0)
(-0.715398 0.553063 0)
(-0.81091 0.37698 0)
(-0.889855 0.214935 0)
(-0.951469 0.0720147 0)
(-0.996514 -0.0486505 0)
(-1.02712 -0.146271 0)
(-1.0462 -0.222093 0)
(-1.05707 -0.278845 0)
(-1.06273 -0.319687 0)
(-1.0655 -0.347268 0)
(-1.06674 -0.363212 0)
(-1.06678 -0.368064 0)
(-1.0647 -0.361585 0)
(-1.05816 -0.343455 0)
(-1.04371 -0.314503 0)
(-1.01763 -0.277654 0)
(-0.979066 -0.237007 0)
(-0.0783074 1.37537 0)
(-0.0503803 1.36993 0)
(-0.242601 1.33933 0)
(-0.32675 1.21632 0)
(-0.454096 1.04474 0)
(-0.574668 0.853846 0)
(-0.686279 0.658454 0)
(-0.786047 0.467772 0)
(-0.871236 0.289302 0)
(-0.939992 0.129414 0)
(-0.991998 -0.00726625 0)
(-1.02854 -0.118677 0)
(-1.05197 -0.205307 0)
(-1.06531 -0.269733 0)
(-1.07158 -0.31558 0)
(-1.07317 -0.346321 0)
(-1.07154 -0.364557 0)
(-1.06717 -0.371874 0)
(-1.05956 -0.369109 0)
(-1.04727 -0.356914 0)
(-1.02827 -0.336459 0)
(-1.00011 -0.309937 0)
(-0.962248 -0.28011 0)
(-0.0591699 1.44673 0)
(-0.0545307 1.44933 0)
(-0.252297 1.45175 0)
(-0.310218 1.3358 0)
(-0.429216 1.16438 0)
(-0.5457 0.969401 0)
(-0.657028 0.76575 0)
(-0.759559 0.563067 0)
(-0.849673 0.369773 0)
(-0.924579 0.193506 0)
(-0.982956 0.0403866 0)
(-1.02513 -0.0860383 0)
(-1.05278 -0.185213 0)
(-1.0685 -0.259217 0)
(-1.07524 -0.311882 0)
(-1.0756 -0.347406 0)
(-1.07129 -0.36932 0)
(-1.06314 -0.380143 0)
(-1.05109 -0.381557 0)
(-1.03438 -0.374853 0)
(-1.01188 -0.361414 0)
(-0.981951 -0.343034 0)
(-0.944336 -0.321714 0)
(-0.050534 1.52197 0)
(-0.055309 1.53002 0)
(-0.262902 1.55492 0)
(-0.29571 1.44247 0)
(-0.404922 1.27615 0)
(-0.516668 1.082 0)
(-0.626934 0.873734 0)
(-0.731243 0.661651 0)
(-0.825207 0.455268 0)
(-0.905317 0.263493 0)
(-0.969436 0.0938885 0)
(-1.017 -0.0484688 0)
(-1.04893 -0.161753 0)
(-1.06724 -0.247211 0)
(-1.0747 -0.308512 0)
(-1.07405 -0.35035 0)
(-1.06741 -0.377102 0)
(-1.05602 -0.392169 0)
(-1.04029 -0.397976 0)
(-1.02002 -0.396328 0)
(-0.99469 -0.388795 0)
(-0.963212 -0.37698 0)
(-0.925588 -0.362442 0)
(-0.0482856 1.59714 0)
(-0.0570869 1.61324 0)
(-0.263307 1.64638 0)
(-0.280431 1.53494 0)
(-0.378596 1.38014 0)
(-0.486272 1.19159 0)
(-0.595581 0.981891 0)
(-0.701138 0.762693 0)
(-0.79809 0.544858 0)
(-0.882497 0.33858 0)
(-0.951655 0.152761 0)
(-1.00429 -0.00606875 0)
(-1.04056 -0.134713 0)
(-1.06184 -0.233355 0)
(-1.0705 -0.305093 0)
(-1.06934 -0.354774 0)
(-1.06084 -0.387461 0)
(-1.04672 -0.407387 0)
(-1.02789 -0.417705 0)
(-1.00466 -0.420717 0)
(-0.976956 -0.418214 0)
(-0.944103 -0.411755 0)
(-0.90632 -0.402643 0)
(-0.0479592 1.66819 0)
(-0.0704205 1.71954 0)
(-0.228083 1.72253 0)
(-0.260823 1.61628 0)
(-0.348183 1.47922 0)
(-0.454034 1.29936 0)
(-0.563048 1.09027 0)
(-0.669548 0.865619 0)
(-0.768722 0.637701 0)
(-0.856516 0.41793 0)
(-0.929917 0.216419 0)
(-0.987158 0.040973 0)
(-1.02773 -0.103875 0)
(-1.05235 -0.217139 0)
(-1.06284 -0.301024 0)
(-1.06185 -0.360111 0)
(-1.0521 -0.399869 0)
(-1.0358 -0.425281 0)
(-1.01439 -0.440234 0)
(-0.988649 -0.447578 0)
(-0.958908 -0.449404 0)
(-0.924829 -0.447339 0)
(-0.886789 -0.442556 0)
(-0.0473215 1.73302 0)
(-0.0699248 1.79209 0)
(-0.15648 1.78667 0)
(-0.23837 1.69725 0)
(-0.315399 1.57813 0)
(-0.421282 1.40668 0)
(-0.5301 1.19882 0)
(-0.636975 0.969815 0)
(-0.737529 0.732926 0)
(-0.827758 0.500637 0)
(-0.904522 0.28414 0)
(-0.965753 0.0923095 0)
(-1.01043 -0.0691404 0)
(-1.03866 -0.198062 0)
(-1.05162 -0.295582 0)
(-1.05158 -0.365622 0)
(-1.04134 -0.413678 0)
(-1.0235 -0.445301 0)
(-1.00002 -0.465112 0)
(-0.972158 -0.476568 0)
(-0.940652 -0.482161 0)
(-0.905462 -0.483697 0)
(-0.867104 -0.482337 0)
(-0.0457587 1.79193 0)
(-0.0672237 1.84136 0)
(-0.106942 1.84262 0)
(-0.225836 1.78398 0)
(-0.287157 1.67751 0)
(-0.390365 1.51263 0)
(-0.497453 1.3066 0)
(-0.603667 1.07437 0)
(-0.70472 0.829596 0)
(-0.796461 0.585765 0)
(-0.875703 0.355121 0)
(-0.940229 0.147447 0)
(-0.988683 -0.0305655 0)
(-1.02061 -0.175737 0)
(-1.03656 -0.288052 0)
(-1.03827 -0.370484 0)
(-1.02837 -0.428137 0)
(-1.00971 -0.466845 0)
(-0.984706 -0.491882 0)
(-0.955122 -0.507369 0)
(-0.922099 -0.516296 0)
(-0.885897 -0.520779 0)
(-0.8472 -0.522092 0)
(-0.0434461 1.84628 0)
(-0.064554 1.88582 0)
(-0.086082 1.88965 0)
(-0.225685 1.87138 0)
(-0.26492 1.77115 0)
(-0.360786 1.61398 0)
(-0.464191 1.41207 0)
(-0.569039 1.17837 0)
(-0.670043 0.926899 0)
(-0.762604 0.672485 0)
(-0.843557 0.4286 0)
(-0.910708 0.205847 0)
(-0.962516 0.0116399 0)
(-0.998054 -0.149935 0)
(-1.01735 -0.277829 0)
(-1.02149 -0.373881 0)
(-1.01276 -0.442433 0)
(-0.994049 -0.489238 0)
(-0.968137 -0.520043 0)
(-0.937253 -0.539643 0)
(-0.902968 -0.551623 0)
(-0.865871 -0.55853 0)
(-0.826848 -0.561888 0)
(-0.0401573 1.8968 0)
(-0.0625286 1.93201 0)
(-0.08119 1.94077 0)
(-0.218456 1.94917 0)
(-0.243254 1.85335 0)
(-0.328211 1.70887 0)
(-0.427859 1.51469 0)
(-0.531782 1.2816 0)
(-0.632874 1.02449 0)
(-0.725959 0.760247 0)
(-0.808061 0.503952 0)
(-0.877254 0.266979 0)
(-0.931957 0.0572065 0)
(-0.970926 -0.120599 0)
(-0.993713 -0.264476 0)
(-1.00081 -0.375095 0)
(-0.993999 -0.455758 0)
(-0.976001 -0.511758 0)
(-0.949821 -0.549048 0)
(-0.918101 -0.573029 0)
(-0.882845 -0.587944 0)
(-0.845005 -0.596887 0)
(-0.805689 -0.601761 0)
(-0.0354568 1.94311 0)
(-0.0603674 1.97797 0)
(-0.0816577 1.99195 0)
(-0.176226 2.00637 0)
(-0.21615 1.92679 0)
(-0.288386 1.79898 0)
(-0.386212 1.61561 0)
(-0.490649 1.38475 0)
(-0.592588 1.12252 0)
(-0.686249 0.848797 0)
(-0.769157 0.580739 0)
(-0.839934 0.33037 0)
(-0.897109 0.105787 0)
(-0.939257 -0.0878255 0)
(-0.965528 -0.247753 0)
(-0.9759 -0.373571 0)
(-0.971591 -0.46739 0)
(-0.955008 -0.533694 0)
(-0.929204 -0.578325 0)
(-0.897139 -0.60713 0)
(-0.86124 -0.625027 0)
(-0.822841 -0.635749 0)
(-0.783281 -0.6417 0)
(-0.029919 1.98456 0)
(-0.0572878 2.0195 0)
(-0.0819997 2.03423 0)
(-0.131064 2.04493 0)
(-0.183345 1.99357 0)
(-0.242486 1.88655 0)
(-0.338558 1.71655 0)
(-0.444811 1.48901 0)
(-0.54859 1.22138 0)
(-0.643163 0.938013 0)
(-0.72675 0.658653 0)
(-0.79883 0.395667 0)
(-0.858122 0.15705 0)
(-0.903183 -0.0517989 0)
(-0.9328 -0.2276 0)
(-0.946576 -0.368956 0)
(-0.945168 -0.47675 0)
(-0.93058 -0.554399 0)
(-0.905746 -0.607301 0)
(-0.873833 -0.64152 0)
(-0.837639 -0.662596 0)
(-0.798888 -0.674962 0)
(-0.75917 -0.681641 0)
(-0.0250673 2.02138 0)
(-0.0533196 2.05527 0)
(-0.0796876 2.06489 0)
(-0.100798 2.07074 0)
(-0.151033 2.04662 0)
(-0.193151 1.96828 0)
(-0.284196 1.81766 0)
(-0.393042 1.59561 0)
(-0.500102 1.32182 0)
(-0.596272 1.02799 0)
(-0.680655 0.737562 0)
(-0.75401 0.46264 0)
(-0.815214 0.210737 0)
(-0.862923 -0.0127615 0)
(-0.895667 -0.204102 0)
(-0.912808 -0.361085 0)
(-0.914508 -0.483428 0)
(-0.902337 -0.573332 0)
(-0.878986 -0.635441 0)
(-0.847691 -0.675766 0)
(-0.811557 -0.700344 0)
(-0.772676 -0.714334 0)
(-0.732942 -0.721486 0)
(-0.0217141 2.05469 0)
(-0.0491169 2.08682 0)
(-0.0758408 2.09193 0)
(-0.0870364 2.09208 0)
(-0.12477 2.07997 0)
(-0.149322 2.03509 0)
(-0.225789 1.91756 0)
(-0.33521 1.70576 0)
(-0.446838 1.42446 0)
(-0.545609 1.11887 0)
(-0.630888 0.817497 0)
(-0.70565 0.531203 0)
(-0.768689 0.266656 0)
(-0.818758 0.029049 0)
(-0.854374 -0.177439 0)
(-0.874697 -0.34996 0)
(-0.879541 -0.487192 0)
(-0.870044 -0.590087 0)
(-0.848567 -0.662288 0)
(-0.818301 -0.709462 0)
(-0.782569 -0.737966 0)
(-0.743806 -0.753667 0)
(-0.704245 -0.761106 0)
(-0.0197302 2.08557 0)
(-0.0451523 2.11534 0)
(-0.0709809 2.11636 0)
(-0.0838216 2.10951 0)
(-0.106399 2.09969 0)
(-0.122861 2.0797 0)
(-0.171351 2.00606 0)
(-0.270616 1.81949 0)
(-0.387216 1.53134 0)
(-0.491041 1.21151 0)
(-0.577531 0.898854 0)
(-0.654016 0.601477 0)
(-0.71891 0.324684 0)
(-0.771073 0.0734051 0)
(-0.809237 -0.147867 0)
(-0.832456 -0.335719 0)
(-0.840334 -0.487989 0)
(-0.8336 -0.604421 0)
(-0.814255 -0.687493 0)
(-0.785346 -0.742255 0)
(-0.750335 -0.775175 0)
(-0.711954 -0.792752 0)
(-0.672762 -0.800347 0)
(-0.0185509 2.11458 0)
(-0.041641 2.14151 0)
(-0.0654885 2.13786 0)
(-0.0827681 2.12478 0)
(-0.0966287 2.11427 0)
(-0.112299 2.10303 0)
(-0.133699 2.06804 0)
(-0.205358 1.92914 0)
(-0.320689 1.64201 0)
(-0.43298 1.30645 0)
(-0.521047 0.982185 0)
(-0.59954 0.673647 0)
(-0.666327 0.384705 0)
(-0.720312 0.120018 0)
(-0.760626 -0.115713 0)
(-0.786379 -0.318631 0)
(-0.797052 -0.485928 0)
(-0.793016 -0.616249 0)
(-0.775923 -0.710827 0)
(-0.748607 -0.773862 0)
(-0.714592 -0.811705 0)
(-0.676849 -0.831371 0)
(-0.638203 -0.839029 0)
(-0.0174073 2.14174 0)
(-0.0377736 2.16563 0)
(-0.0593412 2.15749 0)
(-0.0765289 2.14183 0)
(-0.090244 2.12622 0)
(-0.103178 2.1163 0)
(-0.113382 2.09657 0)
(-0.145812 2.01588 0)
(-0.244123 1.76084 0)
(-0.369354 1.40592 0)
(-0.461415 1.06852 0)
(-0.542557 0.747953 0)
(-0.611316 0.446536 0)
(-0.666855 0.168526 0)
(-0.708895 -0.0813892 0)
(-0.736768 -0.299063 0)
(-0.749902 -0.481243 0)
(-0.748374 -0.625618 0)
(-0.733524 -0.732164 0)
(-0.707943 -0.80406 0)
(-0.675144 -0.847309 0)
(-0.638258 -0.869286 0)
(-0.600333 -0.876945 0)
(-0.0157763 2.1663 0)
(-0.0326422 2.18707 0)
(-0.0510493 2.17514 0)
(-0.0656206 2.15768 0)
(-0.0780007 2.13869 0)
(-0.0891021 2.12377 0)
(-0.0942705 2.10855 0)
(-0.104142 2.06162 0)
(-0.164846 1.87741 0)
(-0.298076 1.51327 0)
(-0.398948 1.15968 0)
(-0.4836 0.824819 0)
(-0.554206 0.509968 0)
(-0.610996 0.218534 0)
(-0.654324 -0.0453339 0)
(-0.683859 -0.277432 0)
(-0.699078 -0.474236 0)
(-0.699785 -0.632668 0)
(-0.68707 -0.751479 0)
(-0.663273 -0.832704 0)
(-0.631843 -0.881777 0)
(-0.595995 -0.906273 0)
(-0.558989 -0.913887 0)
(-0.013477 2.18695 0)
(-0.025764 2.20461 0)
(-0.0399066 2.18949 0)
(-0.0503463 2.16994 0)
(-0.0593122 2.14979 0)
(-0.0675912 2.13137 0)
(-0.0729254 2.11279 0)
(-0.0711683 2.08101 0)
(-0.09899 1.97105 0)
(-0.21952 1.62741 0)
(-0.3356 1.25584 0)
(-0.423515 0.904101 0)
(-0.495332 0.574555 0)
(-0.552809 0.26954 0)
(-0.596981 -0.00795504 0)
(-0.627804 -0.254105 0)
(-0.644729 -0.465228 0)
(-0.647366 -0.637615 0)
(-0.636599 -0.768844 0)
(-0.614554 -0.859726 0)
(-0.584581 -0.914949 0)
(-0.549942 -0.942135 0)
(-0.514066 -0.949656 0)
(-0.0105291 2.20251 0)
(-0.0173925 2.21716 0)
(-0.0263701 2.19908 0)
(-0.0318379 2.17755 0)
(-0.0360297 2.15636 0)
(-0.0400717 2.13667 0)
(-0.0451785 2.11562 0)
(-0.0389995 2.08734 0)
(-0.0476537 2.02732 0)
(-0.133122 1.75113 0)
(-0.269609 1.35784 0)
(-0.361681 0.985582 0)
(-0.434193 0.639889 0)
(-0.491957 0.321035 0)
(-0.536737 0.0304038 0)
(-0.56865 -0.229349 0)
(-0.586973 -0.454527 0)
(-0.591224 -0.640731 0)
(-0.582149 -0.78442 0)
(-0.561743 -0.885136 0)
(-0.533271 -0.946714 0)
(-0.500014 -0.976697 0)
(-0.465463 -0.984034 0)
(-0.00697925 2.21202 0)
(-0.00801157 2.22403 0)
(-0.0113981 2.2032 0)
(-0.0114854 2.17992 0)
(-0.0104898 2.15781 0)
(-0.00932084 2.13738 0)
(-0.0117556 2.11598 0)
(-0.00820549 2.08967 0)
(-0.00533441 2.05083 0)
(-0.0469967 1.87863 0)
(-0.192678 1.46816 0)
(-0.2962 1.06997 0)
(-0.369877 0.705981 0)
(-0.428003 0.372931 0)
(-0.473446 0.0696115 0)
(-0.506473 -0.203347 0)
(-0.525947 -0.442436 0)
(-0.531423 -0.642362 0)
(-0.523697 -0.798445 0)
(-0.504757 -0.908999 0)
(-0.477805 -0.976989 0)
(-0.446096 -1.00978 0)
(-0.413061 -1.01678 0)
(-0.00272776 2.21515 0)
(0.00216878 2.22467 0)
(0.00416037 2.20162 0)
(0.00966055 2.17693 0)
(0.0157651 2.15422 0)
(0.0220979 2.13364 0)
(0.0249446 2.11292 0)
(0.0237866 2.0896 0)
(0.0341825 2.05665 0)
(0.0233564 1.96808 0)
(-0.0970475 1.59053 0)
(-0.225741 1.15921 0)
(-0.301508 0.773463 0)
(-0.360488 0.425596 0)
(-0.407134 0.109946 0)
(-0.441393 -0.176193 0)
(-0.461727 -0.429343 0)
(-0.467888 -0.642942 0)
(-0.461083 -0.811209 0)
(-0.443408 -0.931404 0)
(-0.418011 -1.00568 0)
(-0.388028 -1.04116 0)
(-0.356757 -1.04762 0)
(0.00188242 2.21033 0)
(0.012811 2.22029 0)
(0.0200521 2.19425 0)
(0.0310283 2.16862 0)
(0.0421833 2.14568 0)
(0.0533681 2.1257 0)
(0.0619718 2.10655 0)
(0.061078 2.08598 0)
(0.0715903 2.05801 0)
(0.0749897 2.00761 0)
(0.0087599 1.73131 0)
(-0.14652 1.25721 0)
(-0.228151 0.844292 0)
(-0.289492 0.479724 0)
(-0.337991 0.151676 0)
(-0.373252 -0.148184 0)
(-0.394032 -0.415899 0)
(-0.40019 -0.643022 0)
(-0.393878 -0.823026 0)
(-0.377336 -0.95242 0)
(-0.353599 -1.03265 0)
(-0.325605 -1.07057 0)
(-0.296452 -1.07625 0)
(0.00681014 2.19712 0)
(0.0236696 2.21123 0)
(0.0360181 2.1812 0)
(0.0524977 2.15494 0)
(0.0686704 2.13229 0)
(0.0843298 2.11343 0)
(0.0980037 2.09654 0)
(0.1027 2.07876 0)
(0.104536 2.0576 0)
(0.117354 2.01821 0)
(0.0991818 1.85439 0)
(-0.0524694 1.36498 0)
(-0.151551 0.920978 0)
(-0.217421 0.536776 0)
(-0.267118 0.1948 0)
(-0.301223 -0.120572 0)
(-0.321761 -0.403097 0)
(-0.327316 -0.643129 0)
(-0.321279 -0.834107 0)
(-0.305927 -0.972009 0)
(-0.28412 -1.05766 0)
(-0.258543 -1.09764 0)
(-0.23198 -1.10225 0)
(0.0118597 2.1756 0)
(0.0346261 2.19719 0)
(0.0520844 2.1626 0)
(0.0740887 2.13595 0)
(0.0953722 2.11401 0)
(0.115604 2.09667 0)
(0.134262 2.08259 0)
(0.146594 2.06854 0)
(0.144674 2.05218 0)
(0.163538 2.01578 0)
(0.171525 1.93122 0)
(0.0573965 1.48518 0)
(-0.0741441 1.00378 0)
(-0.14385 0.595684 0)
(-0.190837 0.239111 0)
(-0.222029 -0.0929829 0)
(-0.242313 -0.391004 0)
(-0.247553 -0.643207 0)
(-0.242118 -0.844287 0)
(-0.228309 -0.989867 0)
(-0.208933 -1.08023 0)
(-0.18641 -1.12178 0)
(-0.163077 -1.12499 0)
(0.0169338 2.14592 0)
(0.0456975 2.17779 0)
(0.0683846 2.13848 0)
(0.0959125 2.11161 0)
(0.122437 2.09068 0)
(0.147522 2.07509 0)
(0.171103 2.06384 0)
(0.19065 2.05355 0)
(0.192967 2.03994 0)
(0.210594 2.01125 0)
(0.227712 1.95989 0)
(0.1737 1.62104 0)
(0.0107358 1.09161 0)
(-0.0595474 0.653172 0)
(-0.103875 0.281084 0)
(-0.133282 -0.0664661 0)
(-0.153711 -0.378972 0)
(-0.159433 -0.642652 0)
(-0.155122 -0.853071 0)
(-0.143386 -1.0054 0)
(-0.127177 -1.09968 0)
(-0.108641 -1.14216 0)
(-0.0894845 -1.14372 0)
(0.0220461 2.10802 0)
(0.0569932 2.15283 0)
(0.0850436 2.10884 0)
(0.118081 2.08186 0)
(0.149974 2.06216 0)
(0.180119 2.04847 0)
(0.208508 2.03996 0)
(0.234078 2.0335 0)
(0.246027 2.02305 0)
(0.25055 2.00485 0)
(0.2739 1.95783 0)
(0.274923 1.76321 0)
(0.121586 1.18729 0)
(0.0396554 0.710443 0)
(-0.00864923 0.319184 0)
(-0.0359715 -0.0417007 0)
(-0.0557348 -0.366822 0)
(-0.0616042 -0.641314 0)
(-0.0585551 -0.860078 0)
(-0.0496012 -1.01793 0)
(-0.0376827 -1.11507 0)
(-0.0245584 -1.15771 0)
(-0.0109673 -1.15732 0)
(0.0272958 2.06171 0)
(0.0686875 2.12212 0)
(0.102193 2.07364 0)
(0.140724 2.04662 0)
(0.178102 2.02831 0)
(0.213585 2.0166 0)
(0.247144 2.01081 0)
(0.278779 2.00842 0)
(0.30183 2.00351 0)
(0.301331 1.99162 0)
(0.331685 1.94475 0)
(0.357818 1.8388 0)
(0.271263 1.28908 0)
(0.155412 0.77692 0)
(0.0960737 0.359667 0)
(0.0720387 -0.0176483 0)
(0.0549623 -0.355507 0)
(0.0495944 -0.639585 0)
(0.0507706 -0.864859 0)
(0.0553843 -1.02636 0)
(0.0610487 -1.12476 0)
(0.0666746 -1.16681 0)
(0.0726188 -1.16414 0)
(0.0328686 2.00656 0)
(0.0810398 2.08558 0)
(0.119995 2.03288 0)
(0.163982 2.00582 0)
(0.206913 1.98898 0)
(0.247972 1.97915 0)
(0.28719 1.97572 0)
(0.325308 1.97677 0)
(0.359614 1.97672 0)
(0.365601 1.96725 0)
(0.402681 1.92324 0)
(0.442577 1.84819 0)
(0.443747 1.39193 0)
(0.29269 0.853559 0)
(0.219482 0.40213 0)
(0.199785 0.00385606 0)
(0.187388 -0.345987 0)
(0.181295 -0.637003 0)
(0.177995 -0.865616 0)
(0.17512 -1.02826 0)
(0.171113 -1.12616 0)
(0.166077 -1.16682 0)
(0.161477 -1.16198 0)
(0.039045 1.94179 0)
(0.0944284 2.04325 0)
(0.138678 1.98663 0)
(0.188006 1.95947 0)
(0.236439 1.94407 0)
(0.28311 1.93591 0)
(0.328171 1.93424 0)
(0.372747 1.93746 0)
(0.417132 1.94001 0)
(0.438598 1.92998 0)
(0.470243 1.88991 0)
(0.522469 1.81072 0)
(0.599211 1.48665 0)
(0.460256 0.934007 0)
(0.379903 0.439503 0)
(0.363463 0.0194593 0)
(0.35512 -0.337705 0)
(0.344328 -0.630474 0)
(0.330767 -0.858242 0)
(0.3146 -1.01922 0)
(0.295727 -1.11538 0)
(0.275347 -1.15406 0)
(0.256184 -1.14777 0)
(0.0462594 1.86622 0)
(0.109444 1.9953 0)
(0.158656 1.93509 0)
(0.213077 1.90767 0)
(0.266809 1.89368 0)
(0.318912 1.88696 0)
(0.369722 1.88642 0)
(0.420537 1.89063 0)
(0.473486 1.8943 0)
(0.514715 1.88367 0)
(0.536316 1.84588 0)
(0.598362 1.75129 0)
(0.691593 1.56079 0)
(0.678491 1.00122 0)
(0.609062 0.463558 0)
(0.588341 0.0295412 0)
(0.575052 -0.325657 0)
(0.550494 -0.61243 0)
(0.517417 -0.835118 0)
(0.479177 -0.992472 0)
(0.438087 -1.08635 0)
(0.396275 -1.12354 0)
(0.357343 -1.11728 0)
(0.0551082 1.77776 0)
(0.126875 1.94176 0)
(0.180608 1.87861 0)
(0.239676 1.85072 0)
(0.298314 1.83805 0)
(0.355434 1.83253 0)
(0.411683 1.83242 0)
(0.468585 1.83636 0)
(0.529412 1.83954 0)
(0.590591 1.82887 0)
(0.616447 1.7888 0)
(0.689645 1.6788 0)
(0.796788 1.51061 0)
(0.964718 1.01374 0)
(0.945714 0.472338 0)
(0.900786 0.0406879 0)
(0.863412 -0.296307 0)
(0.810465 -0.570448 0)
(0.74496 -0.784845 0)
(0.67365 -0.938827 0)
(0.600905 -1.03157 0)
(0.529984 -1.06888 0)
(0.464664 -1.0651 0)
(0.0662896 1.67463 0)
(0.14785 1.88315 0)
(0.205724 1.81803 0)
(0.268627 1.78919 0)
(0.331444 1.77774 0)
(0.3928 1.77316 0)
(0.453705 1.7727 0)
(0.516109 1.77464 0)
(0.584169 1.77444 0)
(0.662408 1.75905 0)
(0.712207 1.70686 0)
(0.798784 1.56388 0)
(0.943188 1.37902 0)
(1.28005 0.947137 0)
(1.35242 0.473799 0)
(1.29314 0.078791 0)
(1.21797 -0.234543 0)
(1.1256 -0.486951 0)
(1.0171 -0.695218 0)
(0.90046 -0.847497 0)
(0.786178 -0.94266 0)
(0.677315 -0.982407 0)
(0.577436 -0.984223 0)
(0.0802824 1.55071 0)
(0.173095 1.81668 0)
(0.23514 1.75354 0)
(0.300899 1.72373 0)
(0.366852 1.71357 0)
(0.431225 1.70985 0)
(0.495378 1.70834 0)
(0.561869 1.70654 0)
(0.63531 1.69947 0)
(0.725027 1.67332 0)
(0.808876 1.59703 0)
(0.895694 1.40792 0)
(1.03728 1.1139 0)
(1.46216 0.744115 0)
(1.64391 0.39624 0)
(1.63564 0.101016 0)
(1.5777 -0.140052 0)
(1.46804 -0.364269 0)
(1.32154 -0.552875 0)
(1.16074 -0.707116 0)
(0.99548 -0.808402 0)
(0.838994 -0.854564 0)
(0.693581 -0.865913 0)
(0.0966428 1.41216 0)
(0.203619 1.74741 0)
(0.271463 1.68889 0)
(0.338559 1.65652 0)
(0.405828 1.64724 0)
(0.471414 1.64434 0)
(0.536969 1.64127 0)
(0.605789 1.63431 0)
(0.683092 1.61734 0)
(0.779371 1.57598 0)
(0.894792 1.47463 0)
(0.990343 1.26936 0)
(1.10509 0.945769 0)
(1.30433 0.586396 0)
(1.67004 0.264177 0)
(1.78872 0.0397453 0)
(1.81979 -0.111107 0)
(1.76262 -0.217536 0)
(1.62024 -0.368168 0)
(1.43612 -0.50438 0)
(1.22723 -0.617425 0)
(1.01177 -0.673773 0)
(0.808777 -0.699872 0)
(0.115107 1.22635 0)
(0.239985 1.64832 0)
(0.314883 1.61481 0)
(0.38185 1.58572 0)
(0.449003 1.5793 0)
(0.514488 1.57789 0)
(0.580144 1.57288 0)
(0.650412 1.55915 0)
(0.732668 1.5283 0)
(0.839389 1.46495 0)
(0.985785 1.3389 0)
(1.14363 1.10835 0)
(1.2913 0.778919 0)
(1.44454 0.323265 0)
(1.72344 -0.0135234 0)
(1.85217 -0.0735336 0)
(2.00831 -0.0819968 0)
(1.96323 -0.157312 0)
(1.85126 -0.23381 0)
(1.67766 -0.323778 0)
(1.4453 -0.392075 0)
(1.17384 -0.43302 0)
(0.909025 -0.473548 0)
(0.128154 1.08523 0)
(0.271948 1.5839 0)
(0.359783 1.56513 0)
(0.430683 1.52708 0)
(0.499221 1.5178 0)
(0.56447 1.51595 0)
(0.629562 1.50762 0)
(0.7008 1.4848 0)
(0.789369 1.43176 0)
(0.914609 1.33061 0)
(1.1014 1.15407 0)
(1.35998 0.898537 0)
(1.58039 0.635432 0)
(1.74879 0.165753 0)
(2.0027 -0.25174 0)
(2.15768 -0.40098 0)
(2.42254 -0.192515 0)
(2.3515 -0.0496203 0)
(2.07602 -0.119533 0)
(1.85418 -0.129358 0)
(1.57264 -0.155645 0)
(1.29396 -0.142756 0)