/*--------------------------------*- C++ -*----------------------------------*\
  =========                 |
  \\      /  F ield         | OpenFOAM: The Open Source CFD Toolbox
   \\    /   O peration     | Website:  https://openfoam.org
    \\  /    A nd           | Version:  9
     \\/     M anipulation  |
\*---------------------------------------------------------------------------*/
FoamFile
{
    format      ascii;
    class       volVectorField;
    location    "0.3";
    object      U;
}
// * * * * * * * * * * * * * * * * * * * * * * * * * * * * * * * * * * * * * //

dimensions      [0 1 -1 0 0 0 0];

internalField   nonuniform List<vector> 
2268
(
(-0.0482961 0.0157599 0)
(-0.0633744 -0.00257476 0)
(-0.0296437 -0.0159915 0)
(0.0199997 -0.0188922 0)
(0.0775221 -0.0198735 0)
(0.135868 -0.019538 0)
(0.193782 -0.0189909 0)
(0.250941 -0.0185666 0)
(0.307446 -0.018255 0)
(0.363317 -0.0179546 0)
(0.418234 -0.0175321 0)
(0.471438 -0.0168276 0)
(0.521614 -0.0156336 0)
(0.566685 -0.0136223 0)
(0.603093 -0.0102792 0)
(0.626416 -0.00392906 0)
(0.62424 0.00717926 0)
(0.579997 0.0241842 0)
(0.481909 0.0455973 0)
(0.319126 0.0645283 0)
(0.117968 0.0727815 0)
(-0.164953 0.0207144 0)
(-0.107984 -0.0849673 0)
(-0.0333614 0.0353012 0)
(-0.0210853 -0.00637672 0)
(0.0151122 -0.0306923 0)
(0.0649916 -0.0394674 0)
(0.121205 -0.0424654 0)
(0.178997 -0.0428018 0)
(0.236824 -0.0424133 0)
(0.294197 -0.0419718 0)
(0.350956 -0.0415384 0)
(0.406903 -0.0409477 0)
(0.461595 -0.0399367 0)
(0.514239 -0.0381641 0)
(0.563568 -0.035163 0)
(0.607647 -0.0302121 0)
(0.643609 -0.0221699 0)
(0.667043 -0.00875774 0)
(0.675223 0.0129394 0)
(0.661613 0.0451989 0)
(0.612517 0.0873959 0)
(0.504634 0.13136 0)
(0.334395 0.160508 0)
(0.0541919 0.11609 0)
(0.0276995 -0.0873631 0)
(-0.0103135 0.0412955 0)
(0.0075944 -0.0191325 0)
(0.0463421 -0.05052 0)
(0.0960734 -0.0633883 0)
(0.150934 -0.0677494 0)
(0.20737 -0.0684802 0)
(0.264032 -0.068068 0)
(0.320388 -0.0674302 0)
(0.376155 -0.0666837 0)
(0.431024 -0.0656085 0)
(0.484498 -0.0638264 0)
(0.535783 -0.0608289 0)
(0.583676 -0.0559129 0)
(0.626408 -0.0480342 0)
(0.661458 -0.0356038 0)
(0.68517 -0.0162629 0)
(0.693806 0.0133981 0)
(0.683003 0.0569694 0)
(0.646756 0.115996 0)
(0.572831 0.183783 0)
(0.453078 0.238007 0)
(0.233583 0.200594 0)
(0.127121 -0.0282929 0)
(0.00434958 0.0367939 0)
(0.0284034 -0.0334627 0)
(0.0706139 -0.0719078 0)
(0.120975 -0.0880596 0)
(0.174957 -0.0935853 0)
(0.230129 -0.094629 0)
(0.285502 -0.0941619 0)
(0.340615 -0.0932912 0)
(0.395151 -0.0921713 0)
(0.44875 -0.0905316 0)
(0.500894 -0.0878891 0)
(0.550807 -0.0835822 0)
(0.597368 -0.0766975 0)
(0.638983 -0.0659077 0)
(0.673453 -0.0492585 0)
(0.697741 -0.0240233 0)
(0.708376 0.0134263 0)
(0.701701 0.0669601 0)
(0.673861 0.138964 0)
(0.618034 0.224674 0)
(0.526614 0.302736 0)
(0.353701 0.287906 0)
(0.200551 0.075511 0)
(0.0111722 0.0264742 0)
(0.0427782 -0.0511916 0)
(0.0893884 -0.0946106 0)
(0.141107 -0.113015 0)
(0.194716 -0.119326 0)
(0.248878 -0.120571 0)
(0.303046 -0.120043 0)
(0.356911 -0.11895 0)
(0.41018 -0.117453 0)
(0.462486 -0.11523 0)
(0.513314 -0.111705 0)
(0.561929 -0.106084 0)
(0.607304 -0.097277 0)
(0.648044 -0.0837264 0)
(0.682286 -0.063187 0)
(0.707539 -0.0326274 0)
(0.720857 0.0117371 0)
(0.719257 0.0738727 0)
(0.699762 0.156472 0)
(0.65771 0.25631 0)
(0.583947 0.355783 0)
(0.44383 0.375575 0)
(0.260492 0.219225 0)
(0.014234 0.012748 0)
(0.0526245 -0.0720379 0)
(0.10371 -0.118671 0)
(0.157091 -0.138202 0)
(0.210633 -0.144771 0)
(0.263992 -0.146014 0)
(0.317073 -0.145366 0)
(0.369743 -0.14404 0)
(0.421768 -0.142162 0)
(0.472802 -0.139355 0)
(0.522354 -0.134959 0)
(0.56974 -0.128069 0)
(0.614046 -0.117455 0)
(0.65409 -0.101388 0)
(0.688365 -0.0774026 0)
(0.714904 -0.042228 0)
(0.731336 0.00803706 0)
(0.735349 0.0773781 0)
(0.724603 0.168715 0)
(0.695723 0.280438 0)
(0.637553 0.399722 0)
(0.526638 0.461942 0)
(0.31864 0.395889 0)
(0.0161268 -0.00318577 0)
(0.059758 -0.0954671 0)
(0.114672 -0.144043 0)
(0.16957 -0.163698 0)
(0.223098 -0.169992 0)
(0.275746 -0.170997 0)
(0.327815 -0.170137 0)
(0.379335 -0.168539 0)
(0.43014 -0.166266 0)
(0.479919 -0.162873 0)
(0.528216 -0.157625 0)
(0.574409 -0.149525 0)
(0.617699 -0.137244 0)
(0.657134 -0.118937 0)
(0.691584 -0.0919909 0)
(0.719605 -0.0529513 0)
(0.739415 0.0021646 0)
(0.749388 0.0773224 0)
(0.747948 0.175629 0)
(0.733107 0.29712 0)
(0.693128 0.434127 0)
(0.619015 0.545698 0)
(0.38754 0.60287 0)
(0.0179539 -0.0206834 0)
(0.0654499 -0.120916 0)
(0.123228 -0.170458 0)
(0.179218 -0.189418 0)
(0.2326 -0.194983 0)
(0.284523 -0.19553 0)
(0.335597 -0.194349 0)
(0.385981 -0.192426 0)
(0.43557 -0.189726 0)
(0.484095 -0.185736 0)
(0.531142 -0.179646 0)
(0.576145 -0.170389 0)
(0.618421 -0.156575 0)
(0.657248 -0.136315 0)
(0.691895 -0.106922 0)
(0.721445 -0.0648135 0)
(0.744707 -0.00597331 0)
(0.760757 0.073476 0)
(0.769026 0.176627 0)
(0.769398 0.304678 0)
(0.7531 0.454319 0)
(0.724923 0.612304 0)
(0.480689 0.880118 0)
(0.00783746 0.00244042 0)
(-0.0586297 0.0241168 0)
(-0.15261 0.0201997 0)
(-0.189099 0.00687455 0)
(-0.18815 -0.00284154 0)
(-0.163572 -0.00856161 0)
(-0.128173 -0.0107599 0)
(-0.0883664 -0.0112347 0)
(-0.049179 -0.0104447 0)
(-0.014094 -0.00877621 0)
(0.0144027 -0.00665634 0)
(0.0347793 -0.00442671 0)
(0.0468352 -0.002236 0)
(0.0512119 -0.00025602 0)
(0.0488078 0.00134307 0)
(0.0410204 0.00247231 0)
(0.0294922 0.00313441 0)
(0.0172127 0.00306644 0)
(0.00514476 0.00204959 0)
(-0.0331339 0.0211026 0)
(-0.120403 0.0548846 0)
(-0.192913 0.0392455 0)
(-0.211894 0.0102267 0)
(-0.201138 -0.00889244 0)
(-0.175142 -0.0202487 0)
(-0.139062 -0.0253703 0)
(-0.0991091 -0.0266441 0)
(-0.0597411 -0.0249807 0)
(-0.0240843 -0.0213114 0)
(0.00538603 -0.0164256 0)
(0.0272318 -0.0110011 0)
(0.0409866 -0.00564784 0)
(0.0470028 -0.00080919 0)
(0.0462997 0.00318324 0)
(0.0401814 0.00614063 0)
(0.0301044 0.00781592 0)
(0.0182157 0.00794583 0)
(0.0056366 0.00737318 0)
(-0.0727719 0.0659229 0)
(-0.160435 0.0856879 0)
(-0.210183 0.0529268 0)
(-0.220395 0.0102131 0)
(-0.205811 -0.0169183 0)
(-0.178322 -0.0330745 0)
(-0.141866 -0.0407624 0)
(-0.10213 -0.0426547 0)
(-0.063191 -0.0401262 0)
(-0.0278713 -0.0345433 0)
(0.00148354 -0.026961 0)
(0.0235893 -0.0184432 0)
(0.0379417 -0.00994617 0)
(0.0447421 -0.00219555 0)
(0.0448853 0.00431299 0)
(0.0396431 0.00918832 0)
(0.030396 0.0121835 0)
(0.0189334 0.0130961 0)
(0.00628948 0.0122699 0)
(-0.103834 0.122929 0)
(-0.194005 0.114506 0)
(-0.226299 0.0618172 0)
(-0.227753 0.00798852 0)
(-0.208751 -0.0261748 0)
(-0.179365 -0.0467962 0)
(-0.142017 -0.0567843 0)
(-0.101985 -0.0591484 0)
(-0.0631299 -0.055634 0)
(-0.0280876 -0.0480397 0)
(0.000983265 -0.0377497 0)
(0.022937 -0.0261279 0)
(0.0373523 -0.014468 0)
(0.0444072 -0.00376119 0)
(0.0449163 0.00528415 0)
(0.0400672 0.0121444 0)
(0.0311403 0.0165165 0)
(0.0197709 0.0182323 0)
(0.00696129 0.017845 0)
(-0.132762 0.19269 0)
(-0.22724 0.141359 0)
(-0.242165 0.0648548 0)
(-0.233529 0.00283015 0)
(-0.210174 -0.0369077 0)
(-0.178837 -0.0614213 0)
(-0.140215 -0.0734596 0)
(-0.0993857 -0.0760811 0)
(-0.0601951 -0.0714131 0)
(-0.0252303 -0.0616512 0)
(0.00353038 -0.0485697 0)
(0.0250858 -0.0338325 0)
(0.0391617 -0.0190213 0)
(0.046007 -0.00537846 0)
(0.0464093 0.00619654 0)
(0.0414814 0.0150646 0)
(0.0324123 0.020869 0)
(0.0207639 0.0234981 0)
(0.00754052 0.0237053 0)
(-0.164099 0.276549 0)
(-0.260174 0.164393 0)
(-0.254548 0.0601317 0)
(-0.234363 -0.00506726 0)
(-0.208335 -0.0485233 0)
(-0.175985 -0.0765666 0)
(-0.136213 -0.090559 0)
(-0.0943063 -0.0932766 0)
(-0.0544479 -0.087276 0)
(-0.0193608 -0.0751884 0)
(0.00909756 -0.0592104 0)
(0.0300723 -0.0413294 0)
(0.0434666 -0.0233846 0)
(0.0496645 -0.00684378 0)
(0.049487 0.00723311 0)
(0.0440035 0.0181075 0)
(0.0343346 0.0253747 0)
(0.0220128 0.0289813 0)
(0.00805433 0.0298793 0)
(-0.197419 0.367477 0)
(-0.28028 0.173616 0)
(-0.253385 0.0444535 0)
(-0.222849 -0.0142727 0)
(-0.199617 -0.059569 0)
(-0.169082 -0.0916032 0)
(-0.129176 -0.107939 0)
(-0.0863254 -0.110773 0)
(-0.045658 -0.103225 0)
(-0.0103301 -0.0885809 0)
(0.0178059 -0.0695445 0)
(0.0380289 -0.0484543 0)
(0.0504254 -0.0273726 0)
(0.0555495 -0.00795418 0)
(0.0543146 0.00860154 0)
(0.0477893 0.0214764 0)
(0.0370584 0.0302217 0)
(0.0236568 0.0348357 0)
(0.00860449 0.0364072 0)
(-0.249249 0.567 0)
(-0.220808 0.153299 0)
(-0.212126 0.0206516 0)
(-0.185351 -0.0221962 0)
(-0.177826 -0.0704129 0)
(-0.155244 -0.106998 0)
(-0.117802 -0.125945 0)
(-0.0748077 -0.129039 0)
(-0.0333266 -0.119848 0)
(0.00232565 -0.102329 0)
(0.0300286 -0.0798566 0)
(0.0492239 -0.0552581 0)
(0.0602408 -0.0308708 0)
(0.063843 -0.00849567 0)
(0.0610592 0.0105687 0)
(0.0529938 0.0254599 0)
(0.0407468 0.0357017 0)
(0.0258774 0.0413382 0)
(0.00935907 0.0434635 0)
(0.0212155 -0.0510967 0)
(0.0730699 -0.164125 0)
(0.133661 -0.213326 0)
(0.190517 -0.229934 0)
(0.243371 -0.233732 0)
(0.294102 -0.233221 0)
(0.343662 -0.231346 0)
(0.392342 -0.228792 0)
(0.440116 -0.225346 0)
(0.486775 -0.220378 0)
(0.531966 -0.212973 0)
(0.575202 -0.201975 0)
(0.615951 -0.185972 0)
(0.653843 -0.163123 0)
(0.688781 -0.130752 0)
(0.720668 -0.0851406 0)
(0.749205 -0.0222666 0)
(0.774462 0.0613069 0)
(0.797677 0.167977 0)
(0.822359 0.298867 0)
(0.852855 0.453343 0)
(0.916556 0.635966 0)
(0.997434 0.987066 0)
(0.0263726 -0.0979008 0)
(0.0828206 -0.22719 0)
(0.145239 -0.273078 0)
(0.201387 -0.284641 0)
(0.252356 -0.285152 0)
(0.300873 -0.28277 0)
(0.348158 -0.279718 0)
(0.394566 -0.27619 0)
(0.440098 -0.271698 0)
(0.484582 -0.265448 0)
(0.527708 -0.256386 0)
(0.569005 -0.243272 0)
(0.608003 -0.224821 0)
(0.644673 -0.199597 0)
(0.679761 -0.165291 0)
(0.714195 -0.118026 0)
(0.748492 -0.0537926 0)
(0.783407 0.0299693 0)
(0.821178 0.133676 0)
(0.86676 0.255367 0)
(0.927879 0.390541 0)
(1.01339 0.535187 0)
(1.15282 0.709276 0)
(0.0312395 -0.151966 0)
(0.0930499 -0.293033 0)
(0.15725 -0.331874 0)
(0.211244 -0.336731 0)
(0.258971 -0.333544 0)
(0.304342 -0.329406 0)
(0.348765 -0.32543 0)
(0.392546 -0.321174 0)
(0.435615 -0.315872 0)
(0.477785 -0.308599 0)
(0.518754 -0.298143 0)
(0.557978 -0.283136 0)
(0.594823 -0.262517 0)
(0.629353 -0.23568 0)
(0.663112 -0.201212 0)
(0.69801 -0.154818 0)
(0.735011 -0.0921406 0)
(0.774842 -0.011291 0)
(0.819253 0.0863083 0)
(0.871703 0.195871 0)
(0.936846 0.309553 0)
(1.01665 0.417518 0)
(1.12883 0.514916 0)
(0.0316497 -0.215368 0)
(0.108139 -0.365059 0)
(0.173213 -0.390249 0)
(0.221698 -0.3862 0)
(0.264118 -0.37949 0)
(0.305255 -0.374282 0)
(0.346173 -0.369947 0)
(0.386839 -0.365309 0)
(0.426961 -0.359383 0)
(0.466285 -0.351204 0)
(0.504523 -0.339401 0)
(0.541062 -0.322371 0)
(0.57504 -0.299234 0)
(0.606355 -0.270585 0)
(0.636961 -0.236835 0)
(0.669427 -0.192813 0)
(0.705243 -0.133575 0)
(0.745407 -0.0574811 0)
(0.791333 0.0331877 0)
(0.845096 0.132061 0)
(0.908749 0.231834 0)
(0.983779 0.324243 0)
(1.07706 0.405304 0)
(0.0390622 -0.292857 0)
(0.143183 -0.447315 0)
(0.194621 -0.446514 0)
(0.229112 -0.431303 0)
(0.26452 -0.421834 0)
(0.301491 -0.415995 0)
(0.339113 -0.411165 0)
(0.376687 -0.405674 0)
(0.413676 -0.398491 0)
(0.449692 -0.388779 0)
(0.48435 -0.375059 0)
(0.517111 -0.355469 0)
(0.547504 -0.329234 0)
(0.575895 -0.298242 0)
(0.603166 -0.265276 0)
(0.630598 -0.223845 0)
(0.661228 -0.168387 0)
(0.697892 -0.0976486 0)
(0.742837 -0.0138599 0)
(0.796846 0.0768633 0)
(0.859973 0.166379 0)
(0.933239 0.246052 0)
(1.01794 0.312107 0)
(0.107263 -0.384201 0)
(0.215552 -0.531968 0)
(0.214522 -0.482418 0)
(0.226978 -0.459174 0)
(0.257874 -0.449786 0)
(0.293086 -0.44392 0)
(0.328861 -0.438309 0)
(0.364217 -0.431542 0)
(0.398707 -0.422685 0)
(0.431743 -0.411006 0)
(0.46257 -0.394829 0)
(0.49082 -0.371775 0)
(0.516951 -0.340478 0)
(0.542582 -0.303205 0)
(0.565519 -0.27039 0)
(0.582823 -0.230859 0)
(0.602421 -0.179047 0)
(0.631136 -0.114862 0)
(0.673661 -0.039516 0)
(0.732506 0.0427011 0)
(0.807626 0.122621 0)
(0.894911 0.190466 0)
(0.986741 0.245033 0)
(0.303101 -0.599578 0)
(0.334642 -0.598664 0)
(0.202776 -0.44972 0)
(0.216433 -0.453065 0)
(0.250758 -0.451232 0)
(0.287641 -0.448281 0)
(0.323343 -0.444487 0)
(0.357477 -0.43932 0)
(0.389984 -0.432057 0)
(0.419998 -0.422045 0)
(0.446474 -0.408047 0)
(0.470372 -0.389331 0)
(0.49646 -0.368398 0)
(0.536937 -0.348811 0)
(0.559164 -0.30702 0)
(0.565273 -0.258784 0)
(0.569809 -0.208565 0)
(0.580571 -0.149578 0)
(0.608327 -0.0804427 0)
(0.660372 -0.00636322 0)
(0.738935 0.075169 0)
(0.847879 0.151892 0)
(0.956497 0.199989 0)
(0.240897 -0.935674 0)
(0.0679951 -0.421315 0)
(0.14353 -0.37193 0)
(0.214585 -0.513447 0)
(0.258903 -0.562813 0)
(0.307052 -0.566579 0)
(0.358147 -0.56137 0)
(0.40864 -0.553232 0)
(0.458175 -0.54086 0)
(0.50716 -0.522884 0)
(0.555933 -0.50033 0)
(0.603811 -0.476285 0)
(0.648946 -0.447477 0)
(0.691354 -0.400874 0)
(0.732084 -0.344432 0)
(0.773657 -0.29148 0)
(0.814686 -0.252024 0)
(0.85452 -0.226879 0)
(0.895391 -0.211905 0)
(0.939745 -0.199698 0)
(0.990227 -0.180634 0)
(1.05718 -0.138215 0)
(1.01612 0.0348277 0)
(-0.158911 -0.993989 0)
(-0.0313407 -0.555594 0)
(0.0970162 -0.514463 0)
(0.201651 -0.565336 0)
(0.270977 -0.588418 0)
(0.329692 -0.587125 0)
(0.386588 -0.578271 0)
(0.441685 -0.56735 0)
(0.495111 -0.554432 0)
(0.547759 -0.538436 0)
(0.600376 -0.518782 0)
(0.652725 -0.495353 0)
(0.703886 -0.46637 0)
(0.754413 -0.42775 0)
(0.807454 -0.379804 0)
(0.865227 -0.329669 0)
(0.926005 -0.282388 0)
(0.98741 -0.238401 0)
(1.04784 -0.195287 0)
(1.10511 -0.148214 0)
(1.15481 -0.0902136 0)
(1.1953 -0.015484 0)
(1.22539 0.0588043 0)
(-0.0610428 -0.758211 0)
(-0.00384504 -0.70629 0)
(0.108337 -0.655059 0)
(0.199236 -0.649173 0)
(0.268608 -0.648111 0)
(0.327731 -0.641207 0)
(0.383921 -0.631156 0)
(0.438547 -0.619745 0)
(0.491758 -0.606696 0)
(0.544004 -0.591011 0)
(0.595796 -0.571761 0)
(0.647327 -0.548118 0)
(0.698799 -0.518915 0)
(0.751502 -0.482775 0)
(0.807961 -0.440297 0)
(0.869718 -0.395191 0)
(0.936081 -0.350454 0)
(1.00534 -0.306756 0)
(1.07579 -0.262569 0)
(1.14603 -0.214069 0)
(1.21517 -0.154393 0)
(1.28726 -0.0740929 0)
(1.37148 0.027014 0)
(0.00771425 -0.789297 0)
(0.0417973 -0.783525 0)
(0.115923 -0.741844 0)
(0.185099 -0.722372 0)
(0.245768 -0.710953 0)
(0.300772 -0.69962 0)
(0.353377 -0.687458 0)
(0.404679 -0.674525 0)
(0.454854 -0.660237 0)
(0.504085 -0.643659 0)
(0.552676 -0.623878 0)
(0.601015 -0.600093 0)
(0.64978 -0.571581 0)
(0.700368 -0.538 0)
(0.754691 -0.500228 0)
(0.814059 -0.460453 0)
(0.87865 -0.420512 0)
(0.948008 -0.380805 0)
(1.02175 -0.340036 0)
(1.10008 -0.295062 0)
(1.1842 -0.240733 0)
(1.27836 -0.170964 0)
(1.38632 -0.0852351 0)
(0.0170068 -0.813947 0)
(0.0535982 -0.838069 0)
(0.105845 -0.802739 0)
(0.158843 -0.780512 0)
(0.209452 -0.764854 0)
(0.257688 -0.751026 0)
(0.304558 -0.737461 0)
(0.350511 -0.723447 0)
(0.395593 -0.708191 0)
(0.439857 -0.690826 0)
(0.483518 -0.670592 0)
(0.527017 -0.646934 0)
(0.571151 -0.619575 0)
(0.617188 -0.588697 0)
(0.666667 -0.555235 0)
(0.720875 -0.52068 0)
(0.780584 -0.486275 0)
(0.846338 -0.452321 0)
(0.918926 -0.417881 0)
(0.999856 -0.380625 0)
(1.0914 -0.336764 0)
(1.19774 -0.281454 0)
(1.32108 -0.210896 0)
(0.0180544 -0.845776 0)
(0.0492808 -0.878603 0)
(0.0857256 -0.848122 0)
(0.126182 -0.826568 0)
(0.166978 -0.809882 0)
(0.207243 -0.795098 0)
(0.246992 -0.780793 0)
(0.286222 -0.766058 0)
(0.324851 -0.750062 0)
(0.36287 -0.732059 0)
(0.400466 -0.711503 0)
(0.438085 -0.688133 0)
(0.476508 -0.66205 0)
(0.516856 -0.633784 0)
(0.560456 -0.604331 0)
(0.608586 -0.574933 0)
(0.662379 -0.546619 0)
(0.723002 -0.519812 0)
(0.791989 -0.494106 0)
(0.871611 -0.468027 0)
(0.964787 -0.438646 0)
(1.07591 -0.401057 0)
(1.20747 -0.348331 0)
(0.015258 -0.876823 0)
(0.0381557 -0.90633 0)
(0.0623595 -0.881364 0)
(0.0922281 -0.862093 0)
(0.123635 -0.845955 0)
(0.155516 -0.831183 0)
(0.187484 -0.816676 0)
(0.21931 -0.801569 0)
(0.250838 -0.78511 0)
(0.282045 -0.766717 0)
(0.313117 -0.746076 0)
(0.344498 -0.723216 0)
(0.376921 -0.69855 0)
(0.411393 -0.672876 0)
(0.449107 -0.647301 0)
(0.491316 -0.623051 0)
(0.539309 -0.601196 0)
(0.59455 -0.58244 0)
(0.658925 -0.566959 0)
(0.735048 -0.554106 0)
(0.826153 -0.541687 0)
(0.936829 -0.524568 0)
(1.07065 -0.492978 0)
(0.00950693 -0.89989 0)
(0.0244048 -0.922924 0)
(0.0393892 -0.904452 0)
(0.0600722 -0.888114 0)
(0.0826929 -0.873271 0)
(0.106322 -0.859093 0)
(0.13046 -0.844796 0)
(0.154801 -0.829654 0)
(0.179176 -0.813053 0)
(0.203584 -0.794599 0)
(0.228233 -0.774209 0)
(0.253564 -0.752176 0)
(0.280269 -0.729178 0)
(0.309263 -0.706234 0)
(0.341633 -0.684593 0)
(0.378569 -0.665566 0)
(0.421367 -0.650372 0)
(0.47153 -0.64004 0)
(0.530958 -0.635325 0)
(0.602199 -0.63638 0)
(0.688365 -0.641785 0)
(0.793884 -0.646428 0)
(0.923179 -0.638163 0)
(0.00343616 -0.913174 0)
(0.0109956 -0.931451 0)
(0.0188062 -0.919029 0)
(0.0313943 -0.905563 0)
(0.0459882 -0.89232 0)
(0.061876 -0.879086 0)
(0.0785743 -0.865332 0)
(0.0957882 -0.85049 0)
(0.113385 -0.83411 0)
(0.131407 -0.81599 0)
(0.150093 -0.796265 0)
(0.169889 -0.775458 0)
(0.191444 -0.754467 0)
(0.21559 -0.734498 0)
(0.243299 -0.716933 0)
(0.275648 -0.703196 0)
(0.31381 -0.694662 0)
(0.359116 -0.692641 0)
(0.413182 -0.698363 0)
(0.478095 -0.712652 0)
(0.556347 -0.73483 0)
(0.651659 -0.760071 0)
(0.768525 -0.774558 0)
(-0.00166616 -0.916585 0)
(-0.000566435 -0.934221 0)
(0.00135948 -0.926283 0)
(0.00689809 -0.915384 0)
(0.0143741 -0.90385 0)
(0.0232864 -0.891784 0)
(0.0332251 -0.878842 0)
(0.0439534 -0.864619 0)
(0.0554003 -0.848835 0)
(0.0676643 -0.83147 0)
(0.0810172 -0.81285 0)
(0.0959015 -0.793691 0)
(0.112917 -0.775066 0)
(0.132797 -0.758321 0)
(0.156376 -0.744945 0)
(0.184552 -0.736442 0)
(0.218264 -0.73428 0)
(0.258501 -0.739928 0)
(0.306361 -0.754894 0)
(0.363162 -0.780432 0)
(0.430403 -0.816477 0)
(0.51072 -0.858786 0)
(0.608107 -0.893141 0)
(-0.00545735 -0.91203 0)
(-0.00972372 -0.932228 0)
(-0.0127867 -0.92719 0)
(-0.0132647 -0.91859 0)
(-0.0119017 -0.908781 0)
(-0.00905725 -0.898012 0)
(-0.00504504 -0.886093 0)
(-2.11977e-05 -0.872774 0)
(0.00601556 -0.857935 0)
(0.0132177 -0.841719 0)
(0.0218809 -0.824613 0)
(0.0324296 -0.807478 0)
(0.0453959 -0.791512 0)
(0.0613927 -0.778151 0)
(0.0810799 -0.768933 0)
(0.10512 -0.76538 0)
(0.134133 -0.76895 0)
(0.168651 -0.781106 0)
(0.209136 -0.803396 0)
(0.256006 -0.837216 0)
(0.309626 -0.882983 0)
(0.371478 -0.937427 0)
(0.444825 -0.98762 0)
(-0.00777271 -0.902876 0)
(-0.0164504 -0.925074 0)
(-0.0238469 -0.922722 0)
(-0.0292129 -0.91624 0)
(-0.0329394 -0.9081 0)
(-0.0352157 -0.898679 0)
(-0.036252 -0.887929 0)
(-0.0361195 -0.875742 0)
(-0.034749 -0.862138 0)
(-0.0319441 -0.847394 0)
(-0.0274015 -0.832121 0)
(-0.0207351 -0.817278 0)
(-0.0115037 -0.804131 0)
(0.00076029 -0.794148 0)
(0.0165124 -0.788853 0)
(0.036143 -0.789703 0)
(0.0599109 -0.798037 0)
(0.087857 -0.815141 0)
(0.119828 -0.842406 0)
(0.155388 -0.881102 0)
(0.193849 -0.932038 0)
(0.235654 -0.993255 0)
(0.283218 -1.05457 0)
(-0.00916949 -0.89001 0)
(-0.0211518 -0.91411 0)
(-0.031996 -0.913988 0)
(-0.0412402 -0.909376 0)
(-0.04908 -0.902784 0)
(-0.0555545 -0.894702 0)
(-0.0607766 -0.885203 0)
(-0.0647427 -0.874301 0)
(-0.0673299 -0.862134 0)
(-0.0683187 -0.849083 0)
(-0.0674206 -0.835834 0)
(-0.0643105 -0.823399 0)
(-0.0586587 -0.813056 0)
(-0.0501622 -0.806242 0)
(-0.0385826 -0.804408 0)
(-0.0238001 -0.808878 0)
(-0.00589446 -0.820787 0)
(0.0147055 -0.841126 0)
(0.0373648 -0.870876 0)
(0.0609584 -0.911156 0)
(0.083925 -0.962951 0)
(0.105866 -1.02574 0)
(0.128099 -1.09288 0)
(-0.00987811 -0.874812 0)
(-0.0241493 -0.900283 0)
(-0.0375696 -0.901978 0)
(-0.0497746 -0.898961 0)
(-0.0608283 -0.893757 0)
(-0.0706432 -0.886951 0)
(-0.0792486 -0.878718 0)
(-0.0865821 -0.869174 0)
(-0.0924873 -0.858546 0)
(-0.0967426 -0.847281 0)
(-0.0990954 -0.836105 0)
(-0.0992993 -0.826029 0)
(-0.0971489 -0.818295 0)
(-0.0925107 -0.81426 0)
(-0.085359 -0.815248 0)
(-0.0758292 -0.822396 0)
(-0.0642962 -0.836577 0)
(-0.0514752 -0.85842 0)
(-0.0384506 -0.888429 0)
(-0.0267977 -0.92743 0)
(-0.0185846 -0.976414 0)
(-0.0149205 -1.03609 0)
(-0.015997 -1.10333 0)
(-0.0100743 -0.858296 0)
(-0.0257572 -0.884501 0)
(-0.0409596 -0.887584 0)
(-0.0553111 -0.885864 0)
(-0.0687746 -0.881857 0)
(-0.081159 -0.876219 0)
(-0.0924267 -0.869208 0)
(-0.102475 -0.861014 0)
(-0.111133 -0.851923 0)
(-0.118197 -0.842415 0)
(-0.123467 -0.833216 0)
(-0.126784 -0.8253 0)
(-0.12807 -0.819826 0)
(-0.127352 -0.818034 0)
(-0.124792 -0.821086 0)
(-0.120739 -0.829908 0)
(-0.115783 -0.845087 0)
(-0.110845 -0.866877 0)
(-0.107243 -0.895361 0)
(-0.10679 -0.93084 0)
(-0.11183 -0.974191 0)
(-0.123964 -1.02688 0)
(-0.144806 -1.08891 0)
(-0.00989942 -0.841271 0)
(-0.0262636 -0.867552 0)
(-0.0425677 -0.871581 0)
(-0.0583633 -0.87085 0)
(-0.0735363 -0.867824 0)
(-0.087815 -0.86321 0)
(-0.101111 -0.857319 0)
(-0.113299 -0.850392 0)
(-0.124213 -0.842743 0)
(-0.13368 -0.834855 0)
(-0.141561 -0.827423 0)
(-0.14779 -0.821345 0)
(-0.152404 -0.817675 0)
(-0.155574 -0.817504 0)
(-0.157617 -0.821816 0)
(-0.159037 -0.831326 0)
(-0.160571 -0.846353 0)
(-0.163247 -0.866805 0)
(-0.168457 -0.892336 0)
(-0.178067 -0.922739 0)
(-0.194467 -0.958553 0)
(-0.219549 -1.00152 0)
(-0.256081 -1.05401 0)
(-0.00947461 -0.824345 0)
(-0.0259343 -0.850086 0)
(-0.0427796 -0.854624 0)
(-0.0594305 -0.854568 0)
(-0.0757175 -0.852296 0)
(-0.0913107 -0.848532 0)
(-0.106087 -0.843617 0)
(-0.119912 -0.837813 0)
(-0.132637 -0.831436 0)
(-0.144132 -0.824948 0)
(-0.154321 -0.818982 0)
(-0.163223 -0.814345 0)
(-0.17098 -0.811957 0)
(-0.177878 -0.812754 0)
(-0.184352 -0.817539 0)
(-0.191014 -0.826829 0)
(-0.19868 -0.840713 0)
(-0.208407 -0.858805 0)
(-0.221552 -0.880373 0)
(-0.239897 -0.904722 0)
(-0.265706 -0.9319 0)
(-0.30098 -0.963494 0)
(-0.349281 -1.00321 0)
(-0.00890386 -0.807951 0)
(-0.0250118 -0.832615 0)
(-0.041951 -0.837245 0)
(-0.0589769 -0.837562 0)
(-0.0758824 -0.835813 0)
(-0.0922997 -0.832708 0)
(-0.108084 -0.828592 0)
(-0.123104 -0.823723 0)
(-0.137238 -0.818398 0)
(-0.150401 -0.813031 0)
(-0.162579 -0.808182 0)
(-0.173866 -0.804546 0)
(-0.184488 -0.802905 0)
(-0.194818 -0.804032 0)
(-0.205375 -0.808561 0)
(-0.216836 -0.816835 0)
(-0.230045 -0.828756 0)
(-0.246035 -0.843713 0)
(-0.266064 -0.860655 0)
(-0.291739 -0.878443 0)
(-0.325085 -0.896547 0)
(-0.368072 -0.916028 0)
(-0.424651 -0.940945 0)
(-0.00827236 -0.79237 0)
(-0.0237102 -0.815524 0)
(-0.0403981 -0.81987 0)
(-0.0574167 -0.820275 0)
(-0.0745357 -0.818823 0)
(-0.0913676 -0.816181 0)
(-0.107756 -0.812671 0)
(-0.123582 -0.808524 0)
(-0.138754 -0.804 0)
(-0.153232 -0.799451 0)
(-0.167059 -0.795349 0)
(-0.180388 -0.792273 0)
(-0.193511 -0.790863 0)
(-0.206857 -0.791737 0)
(-0.220997 -0.795371 0)
(-0.236638 -0.801962 0)
(-0.254621 -0.811272 0)
(-0.275921 -0.822529 0)
(-0.301662 -0.834453 0)
(-0.333226 -0.845525 0)
(-0.372333 -0.854626 0)
(-0.420787 -0.86205 0)
(-0.482493 -0.871393 0)
(-0.00764159 -0.777751 0)
(-0.0222075 -0.799085 0)
(-0.0383885 -0.802824 0)
(-0.0551034 -0.803061 0)
(-0.0721111 -0.801696 0)
(-0.0890179 -0.799325 0)
(-0.105665 -0.796225 0)
(-0.121951 -0.792581 0)
(-0.137815 -0.788599 0)
(-0.153261 -0.784561 0)
(-0.168378 -0.780846 0)
(-0.183365 -0.777915 0)
(-0.198554 -0.776274 0)
(-0.214409 -0.776392 0)
(-0.231521 -0.778607 0)
(-0.250599 -0.78299 0)
(-0.272457 -0.789205 0)
(-0.297995 -0.796384 0)
(-0.328195 -0.803102 0)
(-0.364196 -0.807557 0)
(-0.407379 -0.808099 0)
(-0.459255 -0.80417 0)
(-0.523313 -0.798385 0)
(-0.00704407 -0.764148 0)
(-0.0206365 -0.783468 0)
(-0.036135 -0.786346 0)
(-0.0523243 -0.786196 0)
(-0.0689638 -0.784731 0)
(-0.0856658 -0.782455 0)
(-0.102276 -0.779577 0)
(-0.118712 -0.776224 0)
(-0.134946 -0.772537 0)
(-0.151019 -0.76872 0)
(-0.167056 -0.76506 0)
(-0.183288 -0.761908 0)
(-0.200067 -0.759642 0)
(-0.217867 -0.7586 0)
(-0.237275 -0.758993 0)
(-0.258977 -0.760794 0)
(-0.28374 -0.763598 0)
(-0.312383 -0.766491 0)
(-0.345749 -0.767984 0)
(-0.384742 -0.766103 0)
(-0.430401 -0.758782 0)
(-0.483862 -0.744682 0)
(-0.547917 -0.725255 0)
(-0.00648169 -0.751554 0)
(-0.0190803 -0.768763 0)
(-0.0337929 -0.770597 0)
(-0.0492983 -0.76989 0)
(-0.0653702 -0.76817 0)
(-0.0816363 -0.765835 0)
(-0.0979541 -0.763012 0)
(-0.114263 -0.759756 0)
(-0.130567 -0.756138 0)
(-0.146937 -0.752284 0)
(-0.163524 -0.748392 0)
(-0.180579 -0.744712 0)
(-0.198455 -0.741506 0)
(-0.217617 -0.739 0)
(-0.238625 -0.737297 0)
(-0.262121 -0.736286 0)
(-0.288811 -0.735519 0)
(-0.319427 -0.734077 0)
(-0.35468 -0.730471 0)
(-0.395263 -0.722662 0)
(-0.441902 -0.708324 0)
(-0.495345 -0.685502 0)
(-0.557568 -0.654575 0)
(-0.00593248 -0.739944 0)
(-0.0175774 -0.75499 0)
(-0.0314651 -0.755675 0)
(-0.0461807 -0.754296 0)
(-0.0615312 -0.752207 0)
(-0.0771692 -0.74969 0)
(-0.092972 -0.746781 0)
(-0.108905 -0.743455 0)
(-0.124999 -0.73971 0)
(-0.141351 -0.735599 0)
(-0.158132 -0.731238 0)
(-0.175593 -0.726786 0)
(-0.194081 -0.72241 0)
(-0.214032 -0.718235 0)
(-0.235963 -0.714276 0)
(-0.260458 -0.710358 0)
(-0.288146 -0.706005 0)
(-0.319665 -0.700321 0)
(-0.355604 -0.691867 0)
(-0.396473 -0.678631 0)
(-0.442731 -0.658175 0)
(-0.494785 -0.628142 0)
(-0.553845 -0.588056 0)
(-0.00537052 -0.729302 0)
(-0.0161385 -0.742117 0)
(-0.0292161 -0.741623 0)
(-0.0430735 -0.739521 0)
(-0.0575814 -0.736998 0)
(-0.072427 -0.734214 0)
(-0.0875178 -0.731107 0)
(-0.102848 -0.727572 0)
(-0.118477 -0.723538 0)
(-0.13452 -0.718991 0)
(-0.151155 -0.713976 0)
(-0.168631 -0.708575 0)
(-0.187272 -0.702875 0)
(-0.207474 -0.696919 0)
(-0.229703 -0.690651 0)
(-0.25447 -0.683846 0)
(-0.282318 -0.676018 0)
(-0.313786 -0.666308 0)
(-0.349348 -0.653362 0)
(-0.389355 -0.635259 0)
(-0.434056 -0.60958 0)
(-0.48359 -0.573764 0)
(-0.538544 -0.526724 0)
(-0.0047983 -0.719604 0)
(-0.01477 -0.73007 0)
(-0.0270909 -0.728447 0)
(-0.0400393 -0.725645 0)
(-0.0536 -0.722678 0)
(-0.0675056 -0.719579 0)
(-0.081706 -0.716192 0)
(-0.0962301 -0.712339 0)
(-0.111161 -0.707886 0)
(-0.126628 -0.702764 0)
(-0.142811 -0.696958 0)
(-0.159943 -0.69049 0)
(-0.178318 -0.683381 0)
(-0.198289 -0.675611 0)
(-0.220257 -0.667068 0)
(-0.244659 -0.657494 0)
(-0.271948 -0.646402 0)
(-0.302562 -0.632982 0)
(-0.336864 -0.615982 0)
(-0.375073 -0.593617 0)
(-0.417268 -0.563571 0)
(-0.463403 -0.523241 0)
(-0.51361 -0.471132 0)
(-0.00427141 -0.7108 0)
(-0.013495 -0.718752 0)
(-0.0251326 -0.716141 0)
(-0.0371124 -0.712738 0)
(-0.0496207 -0.709368 0)
(-0.062445 -0.705944 0)
(-0.0755906 -0.702221 0)
(-0.0891241 -0.697964 0)
(-0.10315 -0.692991 0)
(-0.117805 -0.687189 0)
(-0.133262 -0.680499 0)
(-0.149732 -0.672896 0)
(-0.167475 -0.664351 0)
(-0.186792 -0.654797 0)
(-0.208023 -0.644081 0)
(-0.231528 -0.631924 0)
(-0.257671 -0.61785 0)
(-0.286791 -0.601104 0)
(-0.319148 -0.580544 0)
(-0.35485 -0.55454 0)
(-0.393847 -0.520934 0)
(-0.435965 -0.477182 0)
(-0.48103 -0.42154 0)
(-0.00386074 -0.702882 0)
(-0.0123398 -0.708074 0)
(-0.0233837 -0.704719 0)
(-0.034301 -0.700885 0)
(-0.0456381 -0.697197 0)
(-0.0572402 -0.693458 0)
(-0.0691786 -0.689363 0)
(-0.0815573 -0.684634 0)
(-0.0944968 -0.679062 0)
(-0.108134 -0.672505 0)
(-0.122627 -0.664875 0)
(-0.138162 -0.656111 0)
(-0.154956 -0.646149 0)
(-0.173264 -0.634885 0)
(-0.193363 -0.622144 0)
(-0.215541 -0.607633 0)
(-0.24008 -0.590897 0)
(-0.267228 -0.571241 0)
(-0.297153 -0.547634 0)
(-0.329867 -0.518607 0)
(-0.365224 -0.482185 0)
(-0.402963 -0.435946 0)
(-0.442726 -0.377996 0)
(-0.00354121 -0.695953 0)
(-0.0112452 -0.697955 0)
(-0.0218639 -0.694227 0)
(-0.0315791 -0.690198 0)
(-0.0416106 -0.686303 0)
(-0.0518517 -0.682271 0)
(-0.0624444 -0.67777 0)
(-0.0735261 -0.672512 0)
(-0.0852248 -0.666279 0)
(-0.0976683 -0.658919 0)
(-0.110994 -0.650323 0)
(-0.125357 -0.640407 0)
(-0.140937 -0.62908 0)
(-0.15794 -0.616215 0)
(-0.176588 -0.60162 0)
(-0.197105 -0.585004 0)
(-0.219699 -0.565937 0)
(-0.244543 -0.543786 0)
(-0.271723 -0.517632 0)
(-0.301174 -0.486165 0)
(-0.332675 -0.447595 0)
(-0.36591 -0.399654 0)
(-0.400415 -0.340366 0)
(-0.00329859 -0.689895 0)
(-0.0100182 -0.688159 0)
(-0.0205761 -0.684712 0)
(-0.0288958 -0.680824 0)
(-0.0374732 -0.676844 0)
(-0.046221 -0.672533 0)
(-0.0553484 -0.667587 0)
(-0.0650149 -0.661747 0)
(-0.0753436 -0.654808 0)
(-0.0864432 -0.646618 0)
(-0.0984248 -0.637059 0)
(-0.111413 -0.626028 0)
(-0.12555 -0.613414 0)
(-0.141001 -0.599074 0)
(-0.157938 -0.582807 0)
(-0.176534 -0.564333 0)
(-0.19694 -0.543251 0)
(-0.219266 -0.518993 0)
(-0.243535 -0.490749 0)
(-0.269624 -0.457362 0)
(-0.297254 -0.417228 0)
(-0.326061 -0.368234 0)
(-0.355529 -0.308366 0)
(-0.00400233 -0.683992 0)
(-0.00868655 -0.678178 0)
(-0.0196246 -0.676209 0)
(-0.0262165 -0.672907 0)
(-0.0331597 -0.668951 0)
(-0.0402916 -0.664349 0)
(-0.0478571 -0.658912 0)
(-0.056015 -0.652443 0)
(-0.0648664 -0.64477 0)
(-0.0744916 -0.63575 0)
(-0.0849718 -0.625257 0)
(-0.0964012 -0.613174 0)
(-0.108891 -0.599372 0)
(-0.12257 -0.583694 0)
(-0.137574 -0.565939 0)
(-0.154038 -0.545837 0)
(-0.172074 -0.523023 0)
(-0.19175 -0.496997 0)
(-0.213048 -0.467054 0)
(-0.235809 -0.432185 0)
(-0.259713 -0.390965 0)
(-0.284355 -0.341444 0)
(-0.309172 -0.281595 0)
(-0.00866102 -0.678014 0)
(-0.00801638 -0.667751 0)
(-0.0192937 -0.668861 0)
(-0.0235329 -0.666579 0)
(-0.0286117 -0.662663 0)
(-0.0340237 -0.657706 0)
(-0.0399606 -0.651718 0)
(-0.0465418 -0.644586 0)
(-0.053827 -0.636176 0)
(-0.0618598 -0.626353 0)
(-0.0706907 -0.614984 0)
(-0.0803865 -0.601936 0)
(-0.0910319 -0.587064 0)
(-0.102729 -0.570198 0)
(-0.115589 -0.551134 0)
(-0.129721 -0.529614 0)
(-0.145218 -0.50531 0)
(-0.162131 -0.477787 0)
(-0.180437 -0.446443 0)
(-0.199972 -0.41042 0)
(-0.220412 -0.368475 0)
(-0.241318 -0.318833 0)
(-0.262069 -0.25949 0)
(-0.0220976 -0.672996 0)
(-0.00854304 -0.658643 0)
(-0.0197702 -0.663586 0)
(-0.0208034 -0.662325 0)
(-0.0237657 -0.658219 0)
(-0.0273978 -0.652726 0)
(-0.0316819 -0.646088 0)
(-0.0366468 -0.638262 0)
(-0.0422942 -0.629131 0)
(-0.0486263 -0.618558 0)
(-0.0556648 -0.606394 0)
(-0.0634532 -0.592488 0)
(-0.0720555 -0.576676 0)
(-0.0815534 -0.558773 0)
(-0.0920404 -0.53857 0)
(-0.103613 -0.515817 0)
(-0.116361 -0.490212 0)
(-0.130346 -0.461377 0)
(-0.145574 -0.428806 0)
(-0.161937 -0.391788 0)
(-0.179167 -0.34928 0)
(-0.196864 -0.299726 0)
(-0.214368 -0.241212 0)
(-0.0494734 -0.664349 0)
(-0.00834288 -0.657348 0)
(-0.0206122 -0.66328 0)
(-0.0178684 -0.661712 0)