/*--------------------------------*- C++ -*----------------------------------*\
  =========                 |
  \\      /  F ield         | OpenFOAM: The Open Source CFD Toolbox
   \\    /   O peration     | Website:  https://openfoam.org
    \\  /    A nd           | Version:  9
     \\/     M anipulation  |
\*---------------------------------------------------------------------------*/
FoamFile
{
    format      ascii;
    class       volScalarField;
    location    "0.25";
    object      nut;
}
// * * * * * * * * * * * * * * * * * * * * * * * * * * * * * * * * * * * * * //

dimensions      [0 2 -1 0 0 0 0];

internalField   nonuniform List<scalar> 
7700
(
3.86568e-05
4.77246e-05
5.9608e-05
6.71651e-05
7.23424e-05
7.63212e-05
7.95928e-05
8.24393e-05
8.50334e-05
8.74838e-05
8.98611e-05
9.22114e-05
9.45659e-05
9.69453e-05
9.9363e-05
0.000101826
0.000104334
0.000106885
0.000109466
0.000112065
0.000114661
0.00011723
0.000119747
0.00012218
0.000124497
0.000126662
0.000128641
0.000130393
0.00013188
0.000133062
0.000133895
0.00013433
0.000134303
0.000133737
0.000132904
0.00013162
0.000129777
0.00012727
0.000123996
0.000119864
0.000114837
0.00010901
0.000102454
9.81997e-05
9.43617e-05
9.26661e-05
5.49718e-05
0.000260977
0.000392159
0.000489152
0.000563546
0.000622536
0.000671317
0.000713529
0.000751631
0.000787251
0.000821467
0.000854982
0.000888238
0.000921474
0.00095477
0.000988064
0.00102118
0.00105382
0.00108564
0.00111621
0.00114505
0.0011717
0.00119567
0.00121648
0.00123368
0.00124686
0.00125562
0.00125962
0.00125858
0.00125228
0.00124059
0.00122347
0.00120096
0.0011719
0.00112005
0.00105268
0.000972972
0.000885786
0.000797822
0.00071717
0.000651141
0.000603884
0.000572981
0.000555606
0.000516741
0.000158664
6.38607e-05
0.000347484
0.000575927
0.000766314
0.00092905
0.00107086
0.0011972
0.00131248
0.00142011
0.00152265
0.00162198
0.00171939
0.00181576
0.00191154
0.00200681
0.00210134
0.0021946
0.00228584
0.00237408
0.00245826
0.00253721
0.00260975
0.00267474
0.00273108
0.00277776
0.00281389
0.00283869
0.00285155
0.002852
0.00283982
0.00281501
0.00277784
0.00272854
0.00266568
0.00257633
0.00245904
0.00231143
0.00213132
0.00191934
0.00168394
0.00144554
0.00123485
0.00107843
0.000977855
0.000830907
0.000192983
7.04266e-05
0.000392394
0.000674195
0.000926329
0.00115629
0.00136809
0.00156536
0.00175154
0.00192967
0.00210222
0.00227114
0.00243781
0.0026031
0.00276737
0.0029305
0.00309194
0.00325073
0.00340559
0.00355501
0.00369731
0.00383075
0.00395357
0.00406411
0.00416079
0.00424222
0.00430719
0.00435471
0.00438406
0.00439484
0.00438697
0.00436083
0.00431713
0.00425661
0.0041783
0.00407367
0.0039385
0.00376537
0.0035435
0.00326155
0.002915
0.00251742
0.00211081
0.00175762
0.00148659
0.00114626
0.00022367
7.48058e-05
0.000423357
0.000739916
0.00103468
0.00131431
0.00158117
0.00183722
0.00208468
0.00232575
0.00256239
0.00279616
0.00302816
0.00325895
0.00348853
0.0037164
0.00394154
0.00416249
0.00437749
0.00458451
0.00478138
0.00496593
0.005136
0.00528958
0.00542484
0.00554018
0.00563429
0.00570617
0.00575521
0.00578121
0.00578447
0.00576585
0.00572663
0.00566807
0.00558973
0.0054852
0.00534904
0.00517012
0.00493171
0.00461468
0.00420487
0.00370412
0.00314333
0.00258637
0.00207774
0.0014595
0.000247526
7.80627e-05
0.000446287
0.000790995
0.00111983
0.00143885
0.00174996
0.00205443
0.00235367
0.00264918
0.00294231
0.0032341
0.00352515
0.00381551
0.00410466
0.00439155
0.0046746
0.00495185
0.00522101
0.0054796
0.00572506
0.00595488
0.00616665
0.00635818
0.00652752
0.00667307
0.00679356
0.00688815
0.0069565
0.00699877
0.00701574
0.00700881
0.00697984
0.00693049
0.00686057
0.00676423
0.00663453
0.00645713
0.00621117
0.00587326
0.00542455
0.00485879
0.00419083
0.00346163
0.00270155
0.00176384
0.000267168
8.06204e-05
0.000463653
0.000833763
0.00119319
0.00154634
0.00189501
0.00224048
0.00258393
0.00292651
0.0032691
0.00361221
0.00395586
0.0042995
0.00464198
0.00498162
0.00531626
0.00564335
0.00596011
0.00626365
0.00655108
0.00681964
0.00706677
0.0072902
0.00748802
0.00765871
0.00780121
0.00791497
0.00799999
0.0080569
0.008087
0.00809224
0.00807495
0.00803705
0.00797825
0.00789246
0.00777077
0.00759618
0.00734503
0.00699172
0.00651525
0.00590426
0.00515987
0.00429581
0.00331018
0.0020561
0.000286207
8.27161e-05
0.00047713
0.000871138
0.00125964
0.0016442
0.00202647
0.00240802
0.00279022
0.00317413
0.00356034
0.00394892
0.00433931
0.00473032
0.00512016
0.00550645
0.00588641
0.00625693
0.00661476
0.00695662
0.00727934
0.00757999
0.00785593
0.00810491
0.00832514
0.0085153
0.00867461
0.0088029
0.0089006
0.00896883
0.00900943
0.00902482
0.0090177
0.00899011
0.00894147
0.00886511
0.00875008
0.00857748
0.00832194
0.00795667
0.00745934
0.00681483
0.00601352
0.0050456
0.00387301
0.0023355
0.000306304
8.45053e-05
0.000487989
0.00090491
0.00132156
0.00173594
0.0021494
0.00256386
0.00298102
0.00340202
0.00382729
0.0042565
0.00468857
0.00512168
0.00555335
0.00598055
0.00639986
0.00680765
0.00720019
0.00757388
0.00792532
0.00825146
0.00854965
0.00881776
0.00905417
0.00925784
0.00942838
0.009566
0.00967164
0.00974691
0.00979416
0.00981623
0.00981609
0.00979577
0.00975442
0.00968494
0.00957443
0.00940312
0.00914478
0.00877183
0.00826042
0.00759175
0.00674742
0.00569895
0.00437529
0.00260362
0.000329001
8.60884e-05
0.000497189
0.000936362
0.00138041
0.00182349
0.00226653
0.00271181
0.00316135
0.00361639
0.00407722
0.00454316
0.00501262
0.00548316
0.00595163
0.00641438
0.00686739
0.0073065
0.0077276
0.00812679
0.00850051
0.00884563
0.00915961
0.00944044
0.0096868
0.00989799
0.010074
0.0102156
0.0103241
0.0104018
0.0104513
0.010476
0.0104789
0.0104621
0.0104246
0.0103593
0.0102514
0.0100817
0.00982359
0.00944871
0.00893106
0.00824754
0.00737202
0.00626172
0.00482079
0.00287723
0.000355588
0.000200482
0.000286391
6.8106e-05
6.84813e-05
0.000303919
7.17765e-05
7.34915e-05
7.47804e-05
7.54837e-05
7.56661e-05
7.54559e-05
7.49566e-05
7.42555e-05
7.34281e-05
7.25381e-05
7.16359e-05
7.07656e-05
7.00246e-05
6.97644e-05
7.09366e-05
6.94661e-05
6.93041e-05
6.91155e-05
6.99426e-05
6.97576e-05
6.9703e-05
6.9458e-05
6.93479e-05
6.90197e-05
0.00029907
0.000298634
0.000303044
6.83757e-05
0.000295201
0.000298121
0.000291489
0.000290189
0.000274392
0.000218384
0.000192407
8.28271e-05
0.000386196
0.000423201
0.000471409
0.000535259
0.000576523
0.000621865
0.000654129
0.000676824
0.00069262
0.000702282
0.000706519
0.000706167
0.000702171
0.000695507
0.00068712
0.000677898
0.00066862
0.000659317
0.000656377
0.000643664
0.000637142
0.000629741
0.000624936
0.00061771
0.000611703
0.000603708
0.000596928
0.000586857
0.000596161
0.000582754
0.0005769
0.000542698
0.000538033
0.000531843
0.000506662
0.000498144
0.00046246
0.000328519
6.87827e-05
9.36121e-05
0.000544768
0.000752375
0.000897622
0.00102375
0.00113555
0.00123058
0.00130651
0.00136605
0.00141081
0.00144108
0.00145753
0.00146152
0.00145503
0.00144045
0.00142034
0.00139716
0.00137325
0.00135038
0.00132938
0.00130768
0.00128831
0.00127002
0.00125287
0.00123575
0.00121904
0.00120057
0.00118107
0.00115885
0.00113573
0.00110564
0.00107061
0.00102876
0.000981445
0.000925729
0.000856976
0.000769277
0.000639405
0.000413495
6.95241e-05
0.000104807
0.000692981
0.00102235
0.00124144
0.00141982
0.00157536
0.00171223
0.00183086
0.00193192
0.00201429
0.00207591
0.00211584
0.00213482
0.00213516
0.00212032
0.00209434
0.00206134
0.00202507
0.00198846
0.00195264
0.0019185
0.00188647
0.00185635
0.00182758
0.00179936
0.00177092
0.00174079
0.00170806
0.00167144
0.0016297
0.00158058
0.00152234
0.00145384
0.0013728
0.00127543
0.00115652
0.00100499
0.000797908
0.000491576
7.51145e-05
0.000117365
0.000821998
0.00123299
0.00149685
0.00170525
0.00188887
0.00205856
0.00221615
0.00236109
0.00248842
0.00259205
0.00266776
0.00271427
0.00273318
0.00272832
0.00270493
0.00266871
0.002625
0.00257815
0.0025309
0.00248511
0.00244147
0.0024
0.00236007
0.00232071
0.00228068
0.00223842
0.00219234
0.00214068
0.00208149
0.00201256
0.0019313
0.00183534
0.0017215
0.00158501
0.00141884
0.00121028
0.000936406
0.00055747
7.99118e-05
0.000132986
0.000935865
0.00139641
0.00168228
0.00190203
0.00209851
0.00228915
0.00247856
0.00266613
0.00284249
0.00299637
0.00311877
0.00320483
0.00325413
0.00327
0.00325832
0.00322617
0.00318062
0.00312775
0.00307201
0.00301637
0.0029623
0.00291016
0.00285943
0.00280903
0.00275744
0.00270281
0.00264312
0.00257612
0.0024994
0.00241031
0.0023058
0.00218246
0.00203645
0.00186216
0.0016513
0.00139031
0.00105635
0.00061241
8.37476e-05
0.000153942
0.00104772
0.00153758
0.0018292
0.00204398
0.00223709
0.00243322
0.00264355
0.00286727
0.00309144
0.00329935
0.00347608
0.00361168
0.00370219
0.00374919
0.00375838
0.00373789
0.00369642
0.00364195
0.00358079
0.00351733
0.00345409
0.00339202
0.00333088
0.00326956
0.00320637
0.00313919
0.00306563
0.00298303
0.00288853
0.00277904
0.00265107
0.00250057
0.00232297
0.00211202
0.00185869
0.00154895
0.00116032
0.000658494
8.68027e-05
0.000182939
0.00117877
0.00168492
0.00196917
0.00216443
0.00233837
0.00252412
0.00274106
0.00298925
0.00325405
0.00351412
0.00374826
0.00394012
0.00408062
0.00416809
0.00420697
0.0042057
0.00417439
0.00412293
0.00405961
0.00399054
0.00391952
0.00384834
0.00377719
0.0037051
0.0036303
0.00355043
0.00346279
0.00336437
0.00325191
0.00312189
0.0029704
0.002793
0.00258447
0.00233809
0.0020444
0.00168922
0.0012507
0.000697433
8.927e-05
0.000222295
0.00134921
0.00185895
0.00212214
0.00228603
0.00242815
0.00259125
0.00280024
0.00305817
0.00335152
0.0036564
0.00394592
0.00419671
0.00439312
0.00452867
0.00460514
0.00463034
0.00461525
0.00457151
0.00450946
0.00443713
0.00435985
0.00428048
0.00419982
0.00411717
0.00403078
0.00393815
0.00383631
0.00372192
0.0035914
0.00344084
0.00326597
0.00306205
0.00282338
0.00254295
0.00221103
0.00181357
0.00132954
0.000730576
9.12912e-05
0.000274735
0.00157936
0.00206548
0.00229119
0.00241587
0.00252061
0.00265453
0.00284416
0.00309743
0.00340498
0.00374332
0.00408161
0.00438975
0.00464465
0.00483356
0.00495413
0.00501232
0.00501924
0.0049879
0.00493063
0.00485752
0.00477562
0.00468906
0.00459947
0.00450656
0.0044087
0.00430331
0.00418723
0.00405685
0.00390828
0.00373729
0.00353937
0.00330947
0.00304166
0.00272865
0.0023607
0.00192401
0.00139855
0.000758978
9.29677e-05
8.75319e-05
0.000505469
0.000966578
0.0014375
0.00190854
0.00238025
0.00285517
0.00333556
0.00382269
0.00431667
0.00481645
0.0053199
0.005824
0.00632495
0.00681847
0.00730001
0.00776494
0.00820881
0.00862748
0.00901729
0.00937515
0.00969863
0.00998599
0.0102362
0.0104491
0.010625
0.0107653
0.0108718
0.0109472
0.0109947
0.0110179
0.01102
0.0110032
0.0109663
0.0109026
0.0107967
0.0106298
0.0103759
0.0100058
0.00949068
0.00880256
0.00790871
0.00675883
0.00525866
0.00329498
0.000703985
8.8894e-05
0.000513434
0.000996629
0.00149417
0.00199276
0.00249265
0.00299657
0.00350689
0.00402479
0.00455011
0.00508137
0.0056159
0.00615003
0.00667937
0.00719908
0.00770409
0.00818939
0.00865023
0.00908235
0.00948205
0.00984637
0.0101731
0.0104608
0.0107089
0.0109177
0.0110881
0.0112219
0.0113217
0.0113905
0.011432
0.01145
0.011448
0.011428
0.011389
0.0113246
0.0112205
0.011058
0.0108121
0.0104533
0.00994978
0.00926826
0.00837067
0.00720481
0.00569115
0.0037432
0.00125507
9.01943e-05
0.000521491
0.0010271
0.00155107
0.0020769
0.00260462
0.00313707
0.00367658
0.0042241
0.0047791
0.00533956
0.00590222
0.00646282
0.0070164
0.00755757
0.00808084
0.0085809
0.00905281
0.00949225
0.00989562
0.0102602
0.010584
0.0108661
0.0111064
0.0113057
0.0114656
0.0115885
0.0116775
0.0117361
0.0117684
0.0117785
0.0117699
0.0117445
0.0117014
0.0116351
0.0115324
0.0113751
0.0111401
0.0107979
0.010314
0.00965059
0.00876519
0.00760685
0.00611246
0.00421935
0.00191199
9.14549e-05
0.000530038
0.0010587
0.0016092
0.00216222
0.00271766
0.00327837
0.00384649
0.00442261
0.00500565
0.00559304
0.00618089
0.00676434
0.00733789
0.00789571
0.00843196
0.00894112
0.00941818
0.00985888
0.0102598
0.0106186
0.0109336
0.0112046
0.011432
0.0116172
0.0117625
0.0118709
0.011946
0.0119919
0.012013
0.0120135
0.0119969
0.0119651
0.0119173
0.0118481
0.0117462
0.0115941
0.0113707
0.0110477
0.0105894
0.00995399
0.00909607
0.00796699
0.00651768
0.00471134
0.00258815
9.26955e-05
0.000539461
0.00109219
0.00166966
0.00225015
0.00283345
0.00342227
0.00401844
0.00462204
0.0052314
0.00584327
0.00645317
0.00705565
0.00764475
0.00821426
0.00875812
0.00927069
0.00974704
0.0101831
0.0105758
0.0109231
0.0112242
0.0114793
0.0116895
0.0118569
0.0119845
0.0120759
0.0121353
0.0121672
0.0121764
0.0121671
0.0121427
0.0121049
0.0120525
0.0119804
0.0118785
0.0117304
0.0115172
0.011213
0.0107823
0.0101817
0.0093637
0.00828141
0.00689576
0.00519038
0.00323109
9.39367e-05
0.000550169
0.00112845
0.00173377
0.00234234
0.00295378
0.0035706
0.00419414
0.0048239
0.00545752
0.00609113
0.00671962
0.00733706
0.00793706
0.00851315
0.00905918
0.00956953
0.0100395
0.0104653
0.0108444
0.0111753
0.011458
0.0116933
0.0118831
0.0120302
0.0121383
0.0122116
0.0122549
0.0122731
0.0122711
0.0122532
0.0122226
0.0121804
0.012125
0.0120509
0.0119485
0.0118026
0.0115967
0.0113077
0.0109027
0.010339
0.00956845
0.00854504
0.00723494
0.00563285
0.00381109
9.52032e-05
0.000562627
0.00116848
0.00180302
0.00244056
0.00308051
0.00372505
0.00437501
0.00502922
0.00568469
0.00633688
0.00698016
0.00760817
0.00821421
0.00879169
0.00933446
0.00983711
0.0102953
0.0107057
0.0110665
0.011377
0.0116378
0.0118505
0.012018
0.0121437
0.012232
0.0122876
0.0123158
0.0123219
0.0123109
0.012287
0.0122532
0.0122098
0.0121542
0.0120803
0.0119779
0.0118332
0.0116309
0.0113515
0.0109662
0.010436
0.00971427
0.00875579
0.00752755
0.00602612
0.00431792
9.65263e-05
0.000577388
0.00121346
0.00187903
0.00254658
0.00321529
0.00388699
0.00456197
0.00523848
0.00591287
0.00658008
0.00723401
0.00786796
0.00847508
0.00904875
0.009583
0.0100728
0.0105143
0.0109049
0.0112435
0.0115305
0.0117671
0.011956
0.0121006
0.0122053
0.0122748
0.0123145
0.0123301
0.012327
0.0123104
0.0122844
0.0122513
0.0122108
0.0121593
0.0120892
0.0119895
0.0118461
0.0116448
0.011369
0.010995
0.0104896
0.00981122
0.0089168
0.00777127
0.00636555
0.00475272
9.79473e-05
0.000595156
0.00126473
0.00196339
0.00266188
0.00335925
0.00405707
0.00475518
0.00545129
0.00614127
0.00681958
0.00747977
0.00811494
0.00871818
0.00928301
0.0098038
0.010276
0.0106966
0.0110638
0.0113775
0.0116389
0.0118504
0.0120155
0.0121382
0.0122235
0.0122768
0.0123038
0.0123102
0.012302
0.0122841
0.0122604
0.0122329
0.0122004
0.012158
0.0120966
0.0120035
0.0118637
0.011663
0.0113866
0.0110154
0.0105232
0.00987673
0.00903826
0.00797016
0.00665273
0.00512143
9.95179e-05
0.00061687
0.0013237
0.00205733
0.00278723
0.00351259
0.00423488
0.00495368
0.0056663
0.00636819
0.0070535
0.00771552
0.00834725
0.00894186
0.00949318
0.00999606
0.0104467
0.010843
0.0111842
0.0114713
0.0117065
0.0118933
0.0120358
0.0121389
0.0122079
0.0122485
0.0122667
0.0122685
0.0122598
0.0122454
0.0122291
0.0122122
0.0121926
0.0121643
0.0121166
0.012035
0.0119026
0.0117047
0.0114263
0.0110513
0.01056
0.00993098
0.00913606
0.0081353
0.00689565
0.00543341
0.000101298
0.000643801
0.00139151
0.00216116
0.00292204
0.00367399
0.00441859
0.00515526
0.00588105
0.00659112
0.00727938
0.00793897
0.00856291
0.00914458
0.00967825
0.0101595
0.0105854
0.0109549
0.0112686
0.0115285
0.0117381
0.0119017
0.0120242
0.012111
0.0121677
0.0122001
0.0122143
0.0122164
0.0122121
0.0122063
0.0122021
0.0122002
0.0121978
0.0121875
0.0121573
0.0120912
0.0119706
0.0117799
0.0114996
0.0111166
0.0106159
0.00999095
0.00922705
0.00827948
0.00710502
0.00569908
0.000103346
0.000677511
0.00146838
0.00227337
0.0030637
0.00384023
0.00460468
0.00535634
0.00609206
0.00680682
0.00749433
0.00814769
0.00876002
0.00932508
0.00983773
0.0102944
0.0106933
0.0110347
0.0113203
0.0115536
0.0117392
0.0118823
0.0119884
0.0120631
0.0121121
0.0121412
0.0121564
0.0121638
0.0121689
0.0121762
0.0121882
0.0122048
0.012222
0.0122316
0.0122207
0.0121728
0.0120676
0.0118906
0.0116063
0.0112071
0.0106898
0.0100574
0.00930867
0.00840522
0.00728162
0.00592139
0.000105708
0.000719359
0.00155221
0.00238953
0.0032069
0.00400587
0.00478792
0.00555209
0.00629504
0.00701157
0.00769529
0.00833932
0.00893702
0.00948263
0.0099718
0.010402
0.0107727
0.0110854
0.0113435
0.0115518
0.0117158
0.0118418
0.0119357
0.012003
0.0120493
0.0120801
0.0121013
0.0121188
0.0121379
0.0121623
0.0121935
0.0122301
0.0122672
0.0122961
0.0123033
0.0122743
0.0121801
0.0119989
0.0117038
0.0112908
0.010759
0.0101101
0.00934876
0.00847053
0.00740567
0.00608909
0.000108416
0.000768843
0.00163661
0.00250125
0.00334333
0.00416337
0.00496169
0.0057368
0.00648518
0.0072015
0.00787932
0.00851188
0.00909289
0.00961722
0.0100815
0.0104843
0.0108266
0.0111113
0.0113434
0.0115288
0.0116744
0.0117871
0.0118731
0.0119379
0.0119863
0.0120237
0.0120556
0.0120876
0.0121246
0.012169
0.012221
0.0122773
0.0123321
0.0123766
0.0123952
0.0123653
0.0122614
0.0120614
0.0117531
0.011327
0.010781
0.0101168
0.00934106
0.00846504
0.00745644
0.00619409
0.000111538
0.000819994
0.00170873
0.0025958
0.00346202
0.00430363
0.00511849
0.00590438
0.00665765
0.00737295
0.0080439
0.00866395
0.00922733
0.00972968
0.0101687
0.0105444
0.0108591
0.0111173
0.0113254
0.0114908
0.0116214
0.0117247
0.0118071
0.0118737
0.0119289
0.0119772
0.012024
0.0120746
0.0121326
0.012199
0.0122716
0.0123452
0.0124123
0.0124606
0.0124715
0.0124229
0.0122969
0.0120728
0.0117388
0.0112895
0.0107242
0.0100457
0.00926449
0.00839802
0.0074376
0.00624807
0.000114855
0.000853493
0.00175633
0.0026602
0.00355038
0.00441698
0.00525079
0.00604897
0.00680806
0.00752288
0.00818723
0.00879497
0.00934094
0.00982178
0.0102364
0.0105863
0.0108752
0.0111093
0.0112961
0.0114445
0.0115633
0.0116607
0.0117434
0.0118158
0.0118815
0.0119447
0.0120102
0.0120825
0.0121638
0.0122528
0.0123444
0.0124308
0.0125014
0.0125406
0.0125312
0.0124563
0.0122979
0.0120399
0.0116722
0.0111913
0.0105981
0.00989812
0.00910707
0.00825646
0.00734655
0.0062394
0.000117381
0.000863686
0.00176885
0.00268838
0.00360096
0.00449467
0.00535207
0.00616569
0.00693302
0.00764926
0.0083086
0.00890542
0.00943541
0.00989635
0.0102885
0.0106149
0.0108808
0.0110937
0.0112626
0.0113973
0.0115073
0.0116018
0.0116875
0.0117686
0.011848
0.0119292
0.0120165
0.012113
0.0122189
0.0123296
0.0124371
0.0125308
0.0125974
0.0126212
0.0125866
0.0124777
0.0122795
0.0119786
0.011567
0.0110427
0.0104092
0.00967701
0.00887013
0.00803778
0.00718269
0.00616114
0.000118622
0.000842078
0.00173502
0.00266946
0.00360964
0.00453191
0.00541798
0.00625134
0.00703062
0.00775146
0.00840852
0.00899696
0.00951349
0.00995719
0.0103299
0.010636
0.0108824
0.0110778
0.0112324
0.0113565
0.0114608
0.0115545
0.011645
0.0117367
0.0118319
0.0119337
0.0120451
0.0121674
0.0122971
0.012427
0.0125461
0.0126423
0.012701
0.0127054
0.0126402
0.0124914
0.0122461
0.0118929
0.0114255
0.0108441
0.0101571
0.00938228
0.0085563
0.00774835
0.0069615
0.00602992
0.000118725
0.000776089
0.00164804
0.00259776
0.00357133
0.00452908
0.00544712
0.00630499
0.00710079
0.00783031
0.00848876
0.00907222
0.00957868
0.0100086
0.0103655
0.0106553
0.0108863
0.0110684
0.0112124
0.0113297
0.0114309
0.0115258
0.0116224
0.0117254
0.0118378
0.0119617
0.0120984
0.0122454
0.0123964
0.0125408
0.0126672
0.0127621
0.012808
0.0127876
0.0126865
0.0124926
0.0121938
0.01178
0.0112461
0.0105956
0.00984364
0.00901884
0.00817363
0.00739721
0.00669284
0.00586261
0.000121467
0.000659316
0.00151453
0.00247882
0.00348896
0.00448887
0.00544193
0.00632939
0.00714668
0.0078893
0.00855309
0.00913536
0.00963555
0.0100557
0.010401
0.0106788
0.0108988
0.0110719
0.0112096
0.0113236
0.0114249
0.0115233
0.0116265
0.0117412
0.011871
0.0120169
0.0121769
0.0123455
0.0125123
0.0126666
0.0127958
0.0128826
0.0129084
0.0128573
0.0127162
0.0124734
0.0121167
0.0116363
0.0110285
0.010301
0.00947714
0.00859875
0.00773442
0.00698778
0.0063751
0.00567303
0.000130677
0.000566589
0.00137481
0.00233575
0.00337564
0.0044174
0.00541022
0.00633257
0.00717615
0.00793605
0.00860888
0.00919358
0.00969128
0.0101057
0.0104435
0.0107136
0.0109272
0.0110959
0.0112312
0.0113451
0.0114491
0.0115525
0.0116626
0.0117885
0.0119346
0.0120997
0.0122791
0.0124631
0.0126408
0.0127996
0.0129229
0.0129923
0.0129909
0.0129045
0.0127209
0.0124273
0.0120108
0.0114615
0.0107769
0.00996973
0.00907311
0.00814246
0.00725992
0.00653967
0.00604993
0.00548711
0.000135193
0.00061086
0.0013496
0.00223038
0.00325401
0.00432688
0.00536291
0.00632569
0.00720062
0.00798132
0.00866593
0.00925618
0.00975493
0.0101675
0.0105017
0.0107681
0.0109797
0.0111483
0.0112838
0.0113987
0.0115054
0.0116127
0.011729
0.0118659
0.0120263
0.0122065
0.0123995
0.0125942
0.0127763
0.0129293
0.013036
0.0130797
0.0130459
0.0129221
0.0126958
0.012352
0.0118762
0.011259
0.0104998
0.00961695
0.0086543
0.00768109
0.00679037
0.00610457
0.00572002
0.00532079
0.000139351
0.000722443
0.00138763
0.00215933
0.00314855
0.00423226
0.00530068
0.00630137
0.00721066
0.00801814
0.00872177
0.00932365
0.00982822
0.0102424
0.0105756
0.0108396
0.011048
0.0112135
0.0113483
0.0114648
0.0115751
0.0116896
0.0118175
0.0119663
0.0121391
0.012331
0.012533
0.0127302
0.0129051
0.0130411
0.0131226
0.0131356
0.0130678
0.0129071
0.0126398
0.0122498
0.0117221
0.0110449
0.0102192
0.00926942
0.00824972
0.00724294
0.00635493
0.00570793
0.00538396
0.00513447
0.000133796
0.000749396
0.00136886
0.00211765
0.00308963
0.00417528
0.00526333
0.00628984
0.0072235
0.00805109
0.00876969
0.00938081
0.00989005
0.0103061
0.0106404
0.0109052
0.0111134
0.0112794
0.0114179
0.0115412
0.0116608
0.0117864
0.0119259
0.0120853
0.0122667
0.0124646
0.0126661
0.0128541
0.0130112
0.0131223
0.0131742
0.0131554
0.0130551
0.0128619
0.0125603
0.0121337
0.0115652
0.0108417
0.00996559
0.00896638
0.00790706
0.00688003
0.0059955
0.0053641
0.00505075
0.00491468
0.000126536
0.00072374
0.00135371
0.00213249
0.00310931
0.00419565
0.00529157
0.00633083
0.00727762
0.0081156
0.00883999
0.00945325
0.00996273
0.0103789
0.0107141
0.0109814
0.0111945
0.0113671
0.0115128
0.0116441
0.0117722
0.0119063
0.0120535
0.0122184
0.0124009
0.0125941
0.0127836
0.0129523
0.0130843
0.0131665
0.0131882
0.0131398
0.013012
0.0127933
0.0124671
0.0120166
0.0114228
0.0106719
0.00976738
0.00874242
0.00766518
0.00663174
0.00574882
0.00511118
0.00476946
0.00465651
0.000123333
0.000690392
0.00137338
0.00221348
0.00321777
0.00431054
0.00540725
0.0064469
0.00739385
0.00823102
0.00895347
0.00956415
0.0100711
0.0104855
0.0108202
0.0110888
0.0113051
0.0114825
0.011634
0.0117715
0.0119055
0.0120441
0.0121933
0.0123561
0.0125305
0.0127085
0.0128764
0.0130186
0.0131214
0.013174
0.0131675
0.0130942
0.0129458
0.0127103
0.0123718
0.0119123
0.0113116
0.0105555
0.00964811
0.00862395
0.00755171
0.00652514
0.00564254
0.00498344
0.00458835
0.00442776
0.000123276
0.000668558
0.00143284
0.00235626
0.00340549
0.00451194
0.00560658
0.00663795
0.00757453
0.00840092
0.00911317
0.00971495
0.0102148
0.0106243
0.0109562
0.0112243
0.0114419
0.011622
0.0117768
0.0119174
0.012053
0.0121907
0.0123353
0.0124881
0.012646
0.0128011
0.0129412
0.0130531
0.0131258
0.0131501
0.0131192
0.013027
0.0128663
0.0126241
0.0122861
0.0118335
0.0112453
0.0105073
0.00962345
0.0086268
0.00758214
0.00657598
0.00569617
0.00501034
0.00455249
0.00431532
0.000125049
0.000673416
0.00153214
0.00254916
0.00365186
0.00477658
0.00586836
0.00688657
0.00780602
0.00861475
0.00931073
0.00989869
0.0103877
0.0107893
0.0111162
0.0113815
0.0115981
0.0117782
0.0119331
0.0120726
0.0122049
0.0123362
0.0124699
0.0126063
0.0127419
0.0128695
0.012979
0.0130603
0.0131039
0.013103
0.0130528
0.0129486
0.0127834
0.0125453
0.0122207
0.0117903
0.0112333
0.0105354
0.00969965
0.00875525
0.00775954
0.00678866
0.00591972
0.00521239
0.00469857
0.00438181
0.000127867
0.00070446
0.0016649
0.00277557
0.00393252
0.0050768
0.00616555
0.00716851
0.00806755
0.00885506
0.00953148
0.0101028
0.0105787
0.0109704
0.0112904
0.011551
0.0117643
0.0119416
0.012093
0.0122276
0.0123525
0.0124727
0.0125908
0.0127067
0.0128168
0.0129157
0.0129952
0.0130469
0.0130641
0.0130424
0.0129787
0.0128696
0.0127078
0.0124836
0.0121837
0.011789
0.0112793
0.0106402
0.00987322
0.00900214
0.00807474
0.00715512
0.00630957
0.00559201
0.00503525
0.00465008
0.000131082
0.000756333
0.00182036
0.00301778
0.00422499
0.00538791
0.00647359
0.00746099
0.00833887
0.00910416
0.00976002
0.0103138
0.0107755
0.0111564
0.0114682
0.0117227
0.0119308
0.0121029
0.0122484
0.0123751
0.0124893
0.0125954
0.0126952
0.0127889
0.0128738
0.0129448
0.0129956
0.0130206
0.0130157
0.0129784
0.0129071
0.0127995
0.0126482
0.0124461
0.0121799
0.0118314
0.011381
0.0108148
0.010132
0.00935039
0.00850766
0.00765536
0.00684877
0.00613589
0.00555035
0.00510933
0.000134264
0.000822404
0.00198625
0.00326013
0.00451164
0.0056913
0.00677404
0.00774666
0.0086042
0.00934798
0.00998378
0.0105203
0.0109679
0.0113377
0.0116408
0.0118881
0.0120899
0.0122555
0.0123932
0.0125104
0.0126121
0.0127028
0.0127845
0.0128568
0.0129172
0.012962
0.0129874
0.01299
0.0129678
0.0129201
0.0128466
0.0127454
0.0126108
0.0124367
0.0122104
0.0119146
0.0115312
0.0110463
0.010457
0.00977551
0.00902979
0.00825961
0.00750933
0.00682009
0.00622419
0.00574278
0.000137184
0.000896203
0.00215133
0.00349076
0.00478044
0.00597481
0.007055
0.0080143
0.00885327
0.00957718
0.0101943
0.0107146
0.0111487
0.0115076
0.011802
0.0120419
0.0122368
0.0123953
0.0125244
0.0126316
0.0127216
0.0127978
0.0128619
0.0129137
0.0129517
0.0129738
0.012978
0.0129628
0.0129283
0.0128753
0.0128042
0.0127133
0.0125993
0.0124563
0.0122727
0.0120324
0.0117184
0.0113176
0.0108252
0.0102485
0.00960731
0.00893102
0.00825402
0.00761012
0.00702837
0.00653085
0.000139755
0.00097142
0.00230668
0.0037019
0.00502441
0.00623176
0.00731
0.00825782
0.00908045
0.00978665
0.0103869
0.0108923
0.0113139
0.0116626
0.0119486
0.0121811
0.0123692
0.0125207
0.0126426
0.0127408
0.0128197
0.0128824
0.0129304
0.0129641
0.012983
0.0129864
0.0129739
0.0129459
0.0129037
0.0128492
0.012784
0.0127059
0.0126141
0.0125029
0.0123614
0.0121753
0.0119289
0.0116097
0.011212
0.0107391
0.0102043
0.00962884
0.00903861
0.00846058
0.00791967
0.00743626
0.000141974
0.00104231
0.00244613
0.00388945
0.00524053
0.00645945
0.00753645
0.00847472
0.0092834
0.00997421
0.0105596
0.0110517
0.0114621
0.0118013
0.0120795
0.0123056
0.0124879
0.0126337
0.0127491
0.0128394
0.0129086
0.0129595
0.0129939
0.0130126
0.0130162
0.0130052
0.0129806
0.012944
0.012898
0.0128451
0.0127872
0.0127233
0.0126531
0.0125716
0.0124691
0.0123324
0.0121478
0.0119035
0.0115933
0.0112178
0.0107856
0.0103116
0.00981512
0.00931732
0.00883904
0.00839764
0.00014389
0.00110377
0.00256603
0.00405204
0.00542837
0.00665765
0.00773405
0.00866461
0.00946169
0.0101394
0.0107119
0.0111923
0.0115927
0.011924
0.0121957
0.0124166
0.0125942
0.0127352
0.0128453
0.0129291
0.0129904
0.0130319
0.0130555
0.0130628
0.0130551
0.0130339
0.0130013
0.01296
0.0129131
0.0128636
0.0128135
0.012763
0.0127121
0.0126564
0.012587
0.0124926
0.0123609
0.0121815
0.0119479
0.0116591
0.0113203
0.0109419
0.0105382
0.0101255
0.00972085
0.0093399
0.000145526
0.00114952
0.00266709
0.00419202
0.00559005
0.00682784
0.00790364
0.00882784
0.00961544
0.0102825
0.0108444
0.0113152
0.0117075
0.012032
0.0122985
0.0125151
0.012689
0.0128264
0.0129325
0.0130115
0.0130669
0.0131014
0.0131174
0.0131168
0.0131015
0.013074
0.0130369
0.0129938
0.012948
0.0129027
0.0128599
0.0128208
0.0127855
0.01275
0.0127067
0.0126458
0.0125566
0.0124299
0.0122595
0.0120436
0.011785
0.0114908
0.0111717
0.0108402
0.01051
0.0101946
0.000146743
0.00118974
0.0027554
0.00431298
0.00572838
0.00697252
0.00804746
0.00896642
0.0097464
0.0104049
0.0109583
0.0114214
0.0118071
0.0121263
0.0123885
0.0126018
0.012773
0.0129078
0.0130112
0.013087
0.0131387
0.0131689
0.0131802
0.0131749
0.0131555
0.0131248
0.0130862
0.0130432
0.0129995
0.0129583
0.0129214
0.0128907
0.0128665
0.0128451
0.0128201
0.0127832
0.0127253
0.0126384
0.0125168
0.0123583
0.0121641
0.0119391
0.0116911
0.0114298
0.0111659
0.0109105
0.000147561
0.00122532
0.00283206
0.00441602
0.00584453
0.0070929
0.00816663
0.00908125
0.00985524
0.0105071
0.011054
0.0115111
0.0118915
0.0122066
0.0124656
0.0126765
0.0128458
0.0129792
0.0130811
0.0131554
0.0132053
0.0132335
0.0132428
0.0132356
0.0132149
0.0131836
0.0131454
0.0131038
0.0130625
0.0130245
0.0129915
0.012966
0.012948
0.0129345
0.0129202
0.012898
0.0128604
0.0128005
0.0127134
0.0125965
0.0124503
0.012278
0.0120851
0.0118789
0.0116677
0.0114603
0.000147991
0.00125597
0.00289676
0.00450103
0.00593863
0.0071892
0.00826134
0.00917234
0.00994175
0.0105887
0.0111307
0.0115834
0.0119601
0.012272
0.0125288
0.0127381
0.0129066
0.0130394
0.013141
0.0132152
0.0132649
0.0132932
0.0133025
0.0132957
0.0132757
0.0132457
0.0132091
0.0131696
0.0131303
0.0130942
0.0130631
0.0130393
0.013023
0.0130117
0.013001
0.0129852
0.0129579
0.0129135
0.0128476
0.0127578
0.0126439
0.0125079
0.0123538
0.0121867
0.0120131
0.0118394
0.00014804
0.00128132
0.00294884
0.00456743
0.00601025
0.00726108
0.00833114
0.00923909
0.0100051
0.0106486
0.0111874
0.0116371
0.0120112
0.0123212
0.0125766
0.0127852
0.0129534
0.0130865
0.0131888
0.0132639
0.0133148
0.0133445
0.0133555
0.0133506
0.0133328
0.0133051
0.0132708
0.0132333
0.0131955
0.01316
0.0131285
0.0131035
0.0130849
0.013071
0.013058
0.0130415
0.0130161
0.0129774
0.0129214
0.0128461
0.0127509
0.0126369
0.0125067
0.0123642
0.012214
0.0120606
0.000147713
0.00130099
0.00298761
0.00461449
0.00605873
0.00730787
0.00837527
0.00928054
0.0100441
0.0106855
0.0112223
0.0116704
0.0120431
0.0123521
0.0126069
0.0128154
0.0129841
0.0131181
0.0132217
0.0132985
0.0133515
0.0133836
0.0133972
0.0133952
0.0133803
0.0133554
0.0133235
0.0132876
0.0132505
0.0132143
0.0131807
0.0131519
0.013128
0.0131077
0.013088
0.0130652
0.0130353
0.0129945
0.0129397
0.0128688
0.0127813
0.0126776
0.0125595
0.0124297
0.0122914
0.0121479
0.000147023
0.00131473
0.00301253
0.00464162
0.00608344
0.00732887
0.00839287
0.00929561
0.0100575
0.0106977
0.0112338
0.0116813
0.0120538
0.0123627
0.0126176
0.0128267
0.0129962
0.0131315
0.0132369
0.0133158
0.0133714
0.0134062
0.013423
0.0134242
0.0134124
0.0133903