/*--------------------------------*- C++ -*----------------------------------*\
  =========                 |
  \\      /  F ield         | OpenFOAM: The Open Source CFD Toolbox
   \\    /   O peration     | Website:  https://openfoam.org
    \\  /    A nd           | Version:  9
     \\/     M anipulation  |
\*---------------------------------------------------------------------------*/
FoamFile
{
    format      ascii;
    class       volScalarField;
    location    "0.25";
    object      p;
}
// * * * * * * * * * * * * * * * * * * * * * * * * * * * * * * * * * * * * * //

dimensions      [1 -1 -2 0 0 0 0];

internalField   nonuniform List<scalar> 
7700
(
1986.57
1990.16
1997.65
2006.33
2013.64
2019.15
2023.09
2025.91
2028.03
2029.7
2031.07
2032.24
2033.21
2033.97
2034.46
2034.61
2034.34
2033.58
2032.25
2030.29
2027.69
2024.46
2020.64
2016.36
2011.84
2007.38
2003.4
2000.5
1999.44
2001.23
2007.16
2018.94
2038.78
2070.07
2114.45
2174.73
2252.84
2349.26
2461.01
2579.72
2691.67
2782.06
2841.81
2868.13
2892.53
2943.09
1937.25
1939.89
1945.89
1952.67
1958.66
1963.42
1967
1969.71
1971.79
1973.43
1974.75
1975.81
1976.61
1977.12
1977.31
1977.1
1976.42
1975.21
1973.4
1970.95
1967.86
1964.14
1959.88
1955.22
1950.4
1945.73
1941.7
1938.89
1938.11
1940.38
1946.97
1959.45
1979.62
2009.12
2052.12
2110.77
2187.8
2284.53
2399.33
2525.39
2649.2
2751.26
2814.37
2832.43
2823.37
2897.55
1887.19
1890.93
1895.47
1900.2
1904.5
1908.02
1910.78
1912.91
1914.55
1915.81
1916.75
1917.38
1917.7
1917.67
1917.24
1916.34
1914.92
1912.92
1910.28
1906.99
1903.06
1898.54
1893.54
1888.23
1882.87
1877.83
1873.59
1870.8
1870.27
1873.02
1880.3
1893.63
1914.73
1945.49
1988.74
2046.76
2121.71
2214.62
2324.55
2447.02
2572.33
2684.3
2764.7
2804.74
2822.38
2890.87
1835.73
1840.66
1844.74
1848.24
1851.27
1853.7
1855.57
1857
1858.05
1858.77
1859.18
1859.27
1858.99
1858.31
1857.16
1855.49
1853.23
1850.33
1846.77
1842.53
1837.65
1832.2
1826.31
1820.17
1814.09
1808.44
1803.74
1800.64
1799.95
1802.69
1810.08
1823.55
1844.78
1875.56
1918.05
1974.46
2046.6
2135.26
2239.59
2356.18
2478.23
2595.13
2693.91
2766.14
2823.7
2917.98
1782.72
1788.53
1792.49
1795.29
1797.53
1799.21
1800.44
1801.31
1801.87
1802.13
1802.07
1801.66
1800.84
1799.55
1797.74
1795.34
1792.3
1788.56
1784.12
1778.96
1773.15
1766.75
1759.93
1752.9
1745.95
1739.49
1734.04
1730.24
1728.91
1731.02
1737.74
1750.45
1770.7
1800.19
1840.78
1894.43
1962.7
2046.35
2144.83
2255.8
2374.78
2495.01
2607.56
2705.8
2803.56
2933.9
1728.16
1734.51
1738.38
1740.74
1742.46
1743.67
1744.49
1745
1745.23
1745.16
1744.75
1743.94
1742.67
1740.88
1738.49
1735.45
1731.7
1727.2
1721.93
1715.92
1709.2
1701.87
1694.1
1686.11
1678.19
1670.75
1664.31
1659.49
1657.08
1658.01
1663.4
1674.54
1692.88
1720
1757.56
1807.28
1870.57
1948.14
2039.77
2144.07
2258.41
2378.73
2499.13
2615.32
2746.53
2911.91
1672.01
1678.65
1682.39
1684.45
1685.85
1686.79
1687.39
1687.71
1687.75
1687.48
1686.83
1685.73
1684.11
1681.9
1679.02
1675.41
1671.03
1665.83
1659.8
1652.96
1645.37
1637.13
1628.4
1619.39
1610.42
1601.86
1594.22
1588.11
1584.26
1583.56
1587.06
1595.96
1611.61
1635.43
1668.9
1713.54
1770.6
1840.75
1923.97
2019.54
2125.98
2241.06
2361.33
2485.39
2638.63
2828.19
1614.31
1621.01
1624.59
1626.44
1627.68
1628.5
1629.02
1629.29
1629.27
1628.9
1628.11
1626.82
1624.94
1622.39
1619.1
1615
1610.05
1604.21
1597.48
1589.86
1581.43
1572.28
1562.57
1552.51
1542.41
1532.62
1523.61
1515.96
1510.37
1507.67
1508.81
1514.91
1527.18
1546.9
1575.34
1613.8
1663.37
1724.59
1797.56
1881.82
1976.39
2079.74
2189.7
2306.85
2464.64
2654.24
1555.1
1561.71
1565.08
1566.82
1568.01
1568.83
1569.38
1569.7
1569.72
1569.35
1568.51
1567.1
1565.03
1562.22
1558.59
1554.07
1548.62
1542.2
1534.81
1526.46
1517.21
1507.17
1496.48
1485.34
1474.04
1462.91
1452.39
1443.01
1435.42
1430.38
1428.77
1431.59
1439.92
1454.85
1477.45
1508.76
1549.65
1600.5
1661.3
1731.5
1809.94
1894.48
1982.07
2071.31
2205.72
2334.29
1494.46
1500.84
1503.99
1505.69
1506.92
1507.84
1508.53
1508.98
1509.11
1508.81
1507.99
1506.53
1504.33
1501.32
1497.4
1492.52
1486.63
1479.69
1471.7
1462.66
1452.65
1441.73
1430.06
1417.82
1405.26
1392.71
1380.55
1369.27
1359.47
1351.83
1347.14
1346.29
1350.21
1359.8
1375.89
1399.24
1430.47
1469.72
1516.66
1570.35
1628.72
1687.77
1740.79
1777.32
1841.41
1767.73
0.995109
0.985176
0.976405
0.967695
0.959503
0.951562
0.944675
0.938719
0.933316
0.92806
0.922647
0.916901
0.910739
0.904126
0.897085
0.889678
0.882027
0.874266
0.866654
0.8588
0.850879
0.843459
0.83638
0.829526
0.822886
0.816641
0.810812
0.805397
0.800391
0.795796
0.791563
0.78763
0.784036
0.78084
0.778044
0.775732
0.773913
0.772567
0.771727
0.771092
0.950688
0.942188
0.934117
0.924129
0.913574
0.904435
0.896887
0.890439
0.884618
0.879029
0.873384
0.867505
0.861303
0.854737
0.847796
0.840506
0.832956
0.825264
0.817531
0.809995
0.802584
0.795171
0.788109
0.781384
0.775013
0.768938
0.763228
0.757907
0.752985
0.748447
0.744265
0.740404
0.736867
0.733689
0.730919
0.728561
0.726674
0.725292
0.724279
0.723562
0.906256
0.896541
0.887419
0.877322
0.866702
0.857193
0.849141
0.842155
0.835856
0.829877
0.823926
0.817834
0.811517
0.804941
0.798066
0.790871
0.783417
0.775847
0.768319
0.760985
0.753694
0.746541
0.739679
0.733172
0.726974
0.721066
0.715463
0.710192
0.705287
0.700757
0.696595
0.692769
0.68928
0.686154
0.683394
0.681047
0.679109
0.67762
0.676607
0.676071
0.861844
0.850132
0.839325
0.828871
0.818464
0.809062
0.800911
0.793742
0.787208
0.780982
0.774785
0.768462
0.761965
0.7553
0.748421
0.741263
0.73385
0.726351
0.718967
0.711787
0.70472
0.697812
0.691165
0.684847
0.678832
0.673064
0.667517
0.662224
0.657254
0.652665
0.648484
0.644698
0.641283
0.638232
0.635536
0.633214
0.631279
0.62978
0.628732
0.628382
0.816228
0.802442
0.789506
0.778791
0.768766
0.759862
0.752072
0.745099
0.738618
0.73233
0.725993
0.71947
0.712758
0.705931
0.698985
0.691823
0.684423
0.676967
0.669692
0.662673
0.655829
0.649139
0.642676
0.636511
0.630619
0.624917
0.619351
0.613961
0.608859
0.604168
0.599956
0.596222
0.592913
0.589985
0.587397
0.585142
0.583244
0.581764
0.580761
0.580475
0.767768
0.752072
0.736821
0.726448
0.717338
0.709458
0.702507
0.6961
0.689922
0.683736
0.677361
0.670692
0.663767
0.656741
0.649694
0.642526
0.635155
0.627745
0.620566
0.613702
0.607051
0.600532
0.594184
0.588083
0.582216
0.576491
0.570845
0.565328
0.560093
0.55531
0.551083
0.547416
0.544248
0.541473
0.53902
0.536863
0.535029
0.533593
0.532659
0.532431
0.713422
0.69724
0.679642
0.670981
0.663778
0.657677
0.652121
0.646663
0.641034
0.635099
0.628777
0.622024
0.614922
0.6077
0.600538
0.593358
0.586025
0.578664
0.571557
0.564811
0.558301
0.55189
0.545579
0.539444
0.533499
0.527677
0.521926
0.516305
0.510983
0.506156
0.501952
0.498381
0.495357
0.492738
0.490431
0.488389
0.486637
0.485263
0.4844
0.484224
0.645794
0.634737
0.615202
0.611048
0.607539
0.604344
0.600887
0.596801
0.59197
0.586433
0.580254
0.573483
0.566238
0.558821
0.551524
0.544303
0.536981
0.529629
0.522536
0.515838
0.5094
0.503033
0.496694
0.490458
0.484378
0.478432
0.472592
0.466921
0.461586
0.456783
0.452642
0.449173
0.446275
0.443811
0.441645
0.43972
0.43806
0.43676
0.435967
0.435831
0.539872
0.556857
0.538915
0.544722
0.54799
0.549364
0.548879
0.546631
0.542852
0.537841
0.531873
0.525125
0.517758
0.510135
0.502649
0.495318
0.487936
0.48052
0.473347
0.466589
0.460124
0.453735
0.447345
0.441013
0.434816
0.428773
0.422893
0.417245
0.411975
0.407258
0.403211
0.399844
0.397061
0.394715
0.392668
0.390853
0.389288
0.38807
0.387346
0.38724
0.339515
0.44143
0.446165
0.47036
0.484763
0.492838
0.496325
0.496379
0.493846
0.48944
0.48371
0.476984
0.46948
0.461614
0.453869
0.446339
0.438805
0.431234
0.423874
0.416924
0.410312
0.403844
0.397413
0.391044
0.384805
0.378747
0.372909
0.367361
0.362222
0.357634
0.353696
0.350419
0.347718
0.345455
0.3435
0.341782
0.340313
0.33918
0.338524
0.338445
1431.92
1437.98
1440.92
1442.63
1443.99
1445.09
1445.97
1446.62
1446.92
1446.75
1445.99
1444.53
1442.26
1439.1
1434.95
1429.77
1423.48
1416.08
1407.53
1397.86
1387.11
1375.35
1362.7
1349.34
1335.49
1321.42
1307.5
1294.17
1281.96
1271.48
1263.42
1258.56
1257.66
1261.44
1270.46
1285.21
1306
1332.67
1364.48
1399.84
1435.46
1464.63
1474.91
1438.75
1348
774.781
1367.25
1372.92
1375.66
1377.45
1378.99
1380.32
1381.46
1382.35
1382.86
1382.86
1382.21
1380.8
1378.5
1375.23
1370.9
1365.45
1358.83
1351.01
1341.97
1331.71
1320.26
1307.68
1294.08
1279.58
1264.39
1248.75
1232.97
1217.45
1202.65
1189.11
1177.45
1168.3
1162.26
1159.86
1161.43
1167.16
1177.05
1190.61
1206.72
1223.22
1235.97
1236.74
1210.03
1122.05
961.904
536.166
1300.8
1306.03
1308.6
1310.51
1312.26
1313.87
1315.31
1316.48
1317.24
1317.43
1316.92
1315.58
1313.28
1309.95
1305.48
1299.82
1292.91
1284.73
1275.24
1264.44
1252.35
1238.99
1224.45
1208.83
1192.28
1175.01
1157.3
1139.49
1121.98
1105.25
1089.81
1076.18
1064.83
1056.08
1050.07
1046.72
1045.74
1046.35
1047.14
1045.76
1038.08
1016.62
968.768
871.595
724.46
509.365
1232.66
1237.42
1239.86
1241.9
1243.91
1245.81
1247.57
1249.04
1250.07
1250.48
1250.13
1248.88
1246.62
1243.25
1238.68
1232.85
1225.72
1217.22
1207.35
1196.07
1183.39
1169.3
1153.86
1137.12
1119.22
1100.3
1080.61
1060.42
1040.11
1020.08
1000.76
982.572
965.852
950.786
937.327
925.166
913.777
902.173
888.794
871.428
846.7
809.226
751.144
660.336
532.702
394.781
1162.95
1167.21
1169.54
1171.74
1174
1176.22
1178.3
1180.09
1181.39
1182.03
1181.85
1180.72
1178.51
1175.14
1170.52
1164.58
1157.26
1148.53
1138.33
1126.64
1113.43
1098.67
1082.37
1064.56
1045.31
1024.73
1003.02
980.411
957.233
933.842
910.611
887.877
865.884
844.71
824.184
803.83
782.929
760.365
734.56
703.64
665.289
616.488
553.335
470.016
360.503
247.871
1091.76
1095.5
1097.76
1100.11
1102.62
1105.16
1107.57
1109.66
1111.24
1112.11
1112.12
1111.13
1109
1105.67
1101.03
1095.02
1087.59
1078.68
1068.24
1056.21
1042.55
1027.19
1010.1
991.261
970.684
948.446
924.69
899.632
873.557
846.795
819.684
792.519
765.493
738.627
711.682
684.095
655.036
623.334
587.439
545.817
497.186
440.897
376.671
302.8
215.554
129.154
1019.21
1022.42
1024.6
1027.09
1029.84
1032.68
1035.41
1037.81
1039.66
1040.78
1040.99
1040.14
1038.13
1034.86
1030.25
1024.23
1016.75
1007.73
997.126
984.853
970.827
954.957
937.152
917.337
895.473
871.587
845.783
818.256
789.281
759.184
728.303
696.934
665.273
633.345
600.925
567.515
532.331
494.171
451.306
402.157
346.079
285.001
223.112
161.714
97.5202
37.7601
945.409
948.058
950.178
952.765
955.731
958.847
961.878
964.575
966.707
968.068
968.487
967.817
965.942
962.772
958.232
952.256
944.779
935.736
925.047
912.618
898.329
882.043
863.612
842.896
819.797
794.288
766.446
736.46
704.616
671.273
636.811
601.578
565.837
529.727
493.233
456.2
418.073
377.257
330.945
276.965
215.07
150.26
92.142
45.2933
3.16223
-34.8164
870.484
872.522
874.559
877.189
880.33
883.704
887.024
890.014
892.425
894.043
894.689
894.217
892.509
889.478
885.052
879.166
871.756
862.752
852.063
839.571
825.122
808.527
789.575
768.052
743.788
716.706
686.859
654.449
619.807
583.361
545.582
506.927
467.846
428.833
390.407
352.817
314.868
272.752
222.108
163.408
100.918
42.1303
-8.82401
-45.3764
-69.5898
-89
794.559
795.89
797.809
800.4
803.679
807.291
810.893
814.179
816.88
818.77
819.666
819.417
817.907
815.049
810.776
805.027
797.739
788.84
778.231
765.773
751.277
734.5
715.158
692.952
667.627
639.05
607.259
572.488
535.151
495.793
455.025
413.505
372.096
331.958
293.688
255.5
211.633
156.566
98.6828
53.7497
21.3174
-4.07571
-35.804
-77.7996
-110.171
-123.65
717.743
718.198
719.954
722.413
725.797
729.641
733.534
737.134
740.148
742.337
743.509
743.51
742.225
739.569
735.482
729.907
722.788
714.054
703.602
691.279
676.862
660.054
640.494
617.776
591.542
561.588
527.943
490.901
451.004
408.969
365.611
321.919
279.349
238.781
196.807
145.626
86.0359
38.664
13.1192
1.94339
-3.00597
-6.89278
-14.0012
-37.3309
-85.3513
-130.229
640.127
639.416
640.961
643.211
646.694
650.792
655.007
658.957
662.322
664.846
666.328
666.608
665.571
663.139
659.257
653.881
646.963
638.44
628.214
616.124
601.924
585.27
565.718
542.732
515.807
484.646
449.275
410.087
367.802
323.362
277.847
232.583
188.469
141.678
86.3081
35.9073
6.43268
-2.47741
-3.80427
-4.77324
-5.38754
-5.9269
-6.92273
-10.2027
-36.3011
-97.4947
561.714
559.465
560.734
562.762
566.383
570.787
575.383
579.741
583.508
586.413
588.24
588.828
588.059
585.863
582.195
577.026
570.322
562.037
552.087
540.319
526.482
510.206
490.967
468.055
440.754
408.636
371.729
330.56
286.049
239.406
192.069
144.897
95.2551
44.1253
9.12089
-3.18682
-4.31225
-4.89971
-5.23227
-5.49454
-5.68197
-5.85976
-6.04869
-6.27315
-11.4047
-43.66
482.188
478.206
479.138
481.038
484.875
489.672
494.736
499.576
503.813
507.15
509.362
510.281
509.793
507.833
504.373
499.399
492.899
484.851
475.201
463.829
450.506
434.877
416.369
394.03
366.817
334.113
295.928
252.878
206.086
157.428
109.127
61.5698
20.593
-2.01096
-4.31879
-4.79943
-5.07573
-5.20695
-5.33907
-5.50951
-5.70058
-5.90357
-6.1014
-6.14653
-6.01155
-15.8579
401.071
395.529
396.03
398.035
402.22
407.524
413.157
418.566
423.338
427.162
429.796
431.066
430.861
429.121
425.84
421.027
414.694
406.851
397.497
386.573
373.913
359.254
342.053
321.015
294.577
261.801
222.53
177.403
128.391
80.036
37.9277
8.85328
-3.73828
-4.44102
-4.82579
-4.95941
-5.08318
-5.19616
-5.34352
-5.52538
-5.7268
-5.94267
-6.16838
-6.33728
-6.12672
-8.96202
318.238
312.38
311.699
313.959
318.665
324.613
330.903
336.937
342.29
346.629
349.7
351.322
351.383
349.829
346.683
341.979
335.753
328.056
318.961
308.509
296.625
283.265
268.131
249.454
224.766
192.501
152.174
105.271
57.8362
21.1423
2.23333
-4.06341
-4.50571
-4.73308
-4.85808
-4.95782
-5.08358
-5.22148
-5.37801
-5.55312
-5.74306
-5.95009
-6.18709
-6.43115
-6.42403
-7.96816
235.935
228.071
226.701
229.324
234.579
241.243
248.266
254.988
260.964
265.846
269.353
271.302
271.586
270.153
267.069
262.395
256.172
248.481
239.49
229.366
218.126
206.246
194.305
179.706
158.207
127.335
87.0536
43.6053
11.3969
-1.35273
-4.15736
-4.45177
-4.63985
-4.75196
-4.85837
-4.97534
-5.10485
-5.24069
-5.38639
-5.54529
-5.71914
-5.91441
-6.14381
-6.38809
-6.44177
-7.73857
152.82
143.471
140.601
143.927
149.942
157.323
165.008
172.383
179
184.464
188.436
190.693
191.131
189.679
186.493
181.651
175.153
167.075
157.731
147.452
136.297
126.095
119.784
112.69
97.0149
70.0292
35.4638
7.87786
-2.54076
-4.1403
-4.36336
-4.53125
-4.64566
-4.74944
-4.86265
-4.98018
-5.10048
-5.22394
-5.35472
-5.49674
-5.65326
-5.83108
-6.04105
-6.25702
-6.30234
-7.48845
70.8349
62.399
55.0033
59.3099
66.9056
75.3297
83.2052
90.3809
96.8323
102.307
106.362
108.666
109.025
107.25
103.699
98.4864
91.5265
82.9556
73.4744
63.7266
53.4049
46.3148
49.2947
54.4544
48.4233
29.6785
8.21717
-2.51664
-4.06034
-4.25517
-4.40763
-4.52519
-4.63208
-4.73972
-4.84906
-4.95725
-5.06515
-5.17491
-5.28999
-5.41386
-5.54998
-5.70481
-5.88779
-6.07496
-6.12416
-7.10743
15.4239
9.10438
5.5031
7.26441
10.7033
15.366
19.5237
23.1438
26.7002
30.0792
32.6622
33.9564
33.6508
31.3771
27.8689
23.3637
17.7566
11.4147
5.65507
1.45631
-2.3022
-2.80222
4.28371
15.6373
18.4211
8.46496
-2.37243
-3.94837
-4.13232
-4.27393
-4.39232
-4.50217
-4.60933
-4.71315
-4.81338
-4.91026
-5.00528
-5.10044
-5.19848
-5.30232
-5.41505
-5.5415
-5.68893
-5.84298
-5.91079
-6.60123
-2.34556
-1.36791
-1.65935
-1.94097
-1.97607
-1.25726
-0.502354
-0.0167385
0.0565937
-0.244938
-0.935615
-1.93717
-3.2722
-4.95776
-6.38991
-7.27146
-7.69105
-7.67345
-7.09777
-6.31915
-5.76803
-4.51006
-3.04778
-0.109326
0.47301
-3.28607
-3.84577
-3.99689
-4.1301
-4.25033
-4.36329
-4.47159
-4.57397
-4.66979
-4.75972
-4.84478
-4.92637
-5.00616
-5.0862
-5.16877
-5.25611
-5.34985
-5.4523
-5.55902
-5.55923
-5.12439
-2.18239
-2.01319
-2.03248
-2.04836
-2.0373
-2.05957
-2.15894
-2.26806
-2.35866
-2.38249
-2.56303
-2.92483
-3.33658
-3.63083
-3.76315
-3.66295
-3.28404
-2.97794
-3.01678
-3.06901
-3.1997
-3.27463
-3.20274
-3.14717
-3.3975
-3.63965
-3.81782
-3.96926
-4.09842
-4.21737
-4.3288
-4.43204
-4.52671
-4.61318
-4.69242
-4.76531
-4.83314
-4.8973
-4.95933
-5.02095
-5.08395
-5.14824
-5.21093
-5.265
-5.26093
-4.99482
-2.18871
-2.12621
-2.10818
-2.11053
-2.11268
-2.11755
-2.13731
-2.16404
-2.18947
-2.21213
-2.27345
-2.3927
-2.52059
-2.62239
-2.69919
-2.75346
-2.76508
-2.75427
-2.78577
-2.8565
-2.96155
-3.07632
-3.17842
-3.295
-3.46413
-3.64019
-3.8
-3.9416
-4.06807
-4.18383
-4.28939
-4.38478
-4.47043
-4.5469
-4.61506
-4.67566
-4.72981
-4.77868
-4.8235
-4.86565
-4.90686
-4.94738
-4.98232
-5.00914
-5.02231
-4.91058
-2.22043
-2.18511
-2.17798
-2.17938
-2.18732
-2.20187
-2.22514
-2.25397
-2.28286
-2.3076
-2.32385
-2.36004
-2.41502
-2.47955
-2.5494
-2.62825
-2.72221
-2.821
-2.89269
-2.97214
-3.06593
-3.16697
-3.26761
-3.37863
-3.51161
-3.65416
-3.79502
-3.92411
-4.0422
-4.14964
-4.24624
-4.33222
-4.40799
-4.47409
-4.53103
-4.5795
-4.62047
-4.65491
-4.68376
-4.70816
-4.72971
-4.74921
-4.76248
-4.76418
-4.75994
-4.70927
-2.27761
-2.25559
-2.2519
-2.25336
-2.26158
-2.2776
-2.30176
-2.33173
-2.36423
-2.3968
-2.43021
-2.4738
-2.52864
-2.59143
-2.65932
-2.73266
-2.81306
-2.89599
-2.97249
-3.05265
-3.14084
-3.23376
-3.32846
-3.43114
-3.54745
-3.67168
-3.79459
-3.91052
-4.01744
-4.11434
-4.20071
-4.27649
-4.34198
-4.39758
-4.44355
-4.48046
-4.50906
-4.53011
-4.54432
-4.55257
-4.55615
-4.55602
-4.54932
-4.53083
-4.50621
-4.46284
-2.3508
-2.33256
-2.32967
-2.33135
-2.33913
-2.35408
-2.37614
-2.40398
-2.43589
-2.47122
-2.51095
-2.55807
-2.61275
-2.67329
-2.73818
-2.80688
-2.87923
-2.95397
-3.02944
-3.10879
-3.19352
-3.28249
-3.37457
-3.4722
-3.57762
-3.6871
-3.79517
-3.89774
-3.99259
-4.0783
-4.154
-4.2194
-4.27464
-4.31997
-4.35551
-4.38157
-4.39871
-4.40748
-4.40835
-4.40193
-4.38894
-4.37016
-4.34448
-4.30877
-4.26602
-4.20799
-2.426
-2.41228
-2.41023
-2.41239
-2.4201
-2.43433
-2.45484
-2.48096
-2.51188
-2.54719
-2.58735
-2.63336
-2.68532
-2.74254
-2.80426
-2.87004
-2.93941
-3.01149
-3.08565
-3.16281
-3.24384
-3.32848
-3.41624
-3.50766
-3.60288
-3.69967
-3.79446
-3.88435
-3.96733
-4.0419
-4.10706
-4.16234
-4.20775
-4.24329
-4.26899
-4.28501
-4.29169
-4.28936
-4.27827
-4.25861
-4.2304
-4.19343
-4.14692
-4.08811
-4.01264
-3.90984
-2.50136
-2.49295
-2.49195
-2.49488
-2.50284
-2.51669
-2.5363
-2.56126
-2.59116
-2.62572
-2.66499
-2.70927
-2.75863
-2.81282
-2.87146
-2.93414
-3.00039
-3.06952
-3.141
-3.21502
-3.29189
-3.37148
-3.45346
-3.53762
-3.62331
-3.70879
-3.79169
-3.86985
-3.94157
-4.00549
-4.06059
-4.10628
-4.14239
-4.16878
-4.18541
-4.19232
-4.18967
-4.17761
-4.1561
-4.12484
-4.08315
-4.02969
-3.9626
-3.87819
-3.76783
-3.61574
-2.57655
-2.57332
-2.57345
-2.57725
-2.58556
-2.59913
-2.61797
-2.64191
-2.67071
-2.70412
-2.742
-2.78439
-2.8313
-2.88265
-2.93818
-2.99755
-3.06026
-3.12575
-3.19357
-3.26359
-3.33573
-3.40984
-3.48552
-3.56222
-3.63903
-3.71445
-3.78671
-3.85415
-3.91543
-3.9694
-4.0151
-4.05186
-4.07935
-4.09738
-4.10585
-4.10476
-4.09409
-4.07377
-4.0435
-4.00259
-3.9498
-3.88311
-3.7997
-3.69499
-3.56006
-3.37965
-2.65127
-2.65244
-2.65365
-2.65832
-2.66695
-2.6802
-2.69827
-2.72114
-2.74867
-2.78061
-2.81675
-2.85701
-2.9014
-2.94988
-3.00224
-3.05815
-3.11712
-3.17865
-3.24231
-3.30781
-3.37493
-3.44337
-3.51267
-3.58211
-3.65068
-3.71703
-3.77971
-3.83746
-3.88922
-3.93406
-3.97111
-3.99972
-4.0194
-4.02998
-4.03135
-4.02342
-4.00607
-3.97899
-3.94168
-3.89321
-3.8321
-3.75613
-3.66224
-3.54581
-3.39938
-3.21205
-2.72516
-2.72955
-2.73175
-2.73724
-2.74617
-2.75915
-2.7765
-2.79828
-2.82439
-2.8546
-2.88873
-2.92669
-2.96848
-3.01401
-3.06312
-3.11544
-3.17053
-3.2279
-3.28715
-3.34792
-3.40989
-3.47266
-3.53567
-3.59813
-3.659
-3.71707
-3.77114
-3.82019
-3.8634
-3.90002
-3.92929
-3.95059
-3.9634
-3.9675
-3.96281
-3.9492
-3.92643
-3.89404
-3.85136
-3.79744
-3.7308
-3.64935
-3.55032
-3.42975
-3.28211
-3.10066
-2.79753
-2.80404
-2.80713
-2.81343
-2.8227
-2.83552
-2.85222
-2.87289
-2.89748
-2.92583
-2.95783
-2.99344
-3.03259
-3.07514
-3.1209
-3.16954
-3.22062
-3.27372
-3.32845
-3.38442
-3.44125
-3.49843
-3.55529
-3.61101
-3.66465
-3.71516
-3.76151
-3.80284
-3.83848
-3.86781
-3.8902
-3.9051
-3.912
-3.91065
-3.90092
-3.88266
-3.85558
-3.81919
-3.77276
-3.71537
-3.64575
-3.56208
-3.46214
-3.34297
-3.20083
-3.03219
-2.86764
-2.87519
-2.87926
-2.88639
-2.8961
-2.90886
-2.92499
-2.94459
-2.96766
-2.99415
-3.02404
-3.05729
-3.0938
-3.13337
-3.17575
-3.22065
-3.2677
-3.3165
-3.3667
-3.41789
-3.46962
-3.52127
-3.57213
-3.62142
-3.6683
-3.71188
-3.7513
-3.7858
-3.81477
-3.83768
-3.85408
-3.86347
-3.86542
-3.8596
-3.84579
-3.82381
-3.79344
-3.75427
-3.70562
-3.6466
-3.57616
-3.49294
-3.39525
-3.28108
-3.14832
-2.99547
-2.93483
-2.94253
-2.94775
-2.95577
-2.96603
-2.97885
-2.99451
-3.01315
-3.03481
-3.05955
-3.08739
-3.11831
-3.15218
-3.18874
-3.22776
-3.26897
-3.31203
-3.3566
-3.40232
-3.44877
-3.49545
-3.54167
-3.58675
-3.62994
-3.67054
-3.7078
-3.74097
-3.76939
-3.79247
-3.8098
-3.82102
-3.82572
-3.82353
-3.81411
-3.79715
-3.77244
-3.7398
-3.69895
-3.64937
-3.59032
-3.52093
-3.44016
-3.3468
-3.23972
-3.1181
-2.9815
-2.99869
-3.00595
-3.01257
-3.02156
-3.03243
-3.04538
-3.06067
-3.07847
-3.09891
-3.12204
-3.14793
-3.17655
-3.20777
-3.24135
-3.27707
-3.31466
-3.35384
-3.39428
-3.43563
-3.47746
-3.51919
-3.56017
-3.59974
-3.63724
-3.67205
-3.70354
-3.73108
-3.75408
-3.77202
-3.78451
-3.79127
-3.792
-3.78639
-3.7741
-3.75484
-3.72835
-3.69448
-3.65302
-3.60358
-3.54559
-3.47842
-3.4014
-3.31377
-3.21484
-3.10451
-2.98331
-3.059
-3.06571
-3.07395
-3.08401
-3.09548
-3.10856
-3.12354
-3.14062
-3.15996
-3.18162
-3.20565
-3.23202
-3.26062
-3.29129
-3.32379
-3.35791
-3.39336
-3.42983
-3.46695
-3.50429
-3.54127
-3.57728
-3.6117
-3.64394
-3.67347
-3.69974
-3.72224
-3.74045
-3.75393
-3.76229
-3.7653
-3.76273
-3.75433
-3.73986
-3.71901
-3.69154
-3.65728
-3.61607
-3.56764
-3.51156
-3.4474
-3.37477
-3.29335
-3.20288
-3.10353
-2.99617
-3.11577
-3.12289
-3.13239
-3.14341
-3.15541
-3.1686
-3.18329
-3.19972
-3.21804
-3.23832
-3.26057
-3.28479
-3.3109
-3.33876
-3.36821
-3.39901
-3.4309
-3.46357
-3.49665
-3.52969
-3.56217
-3.59351
-3.62317
-3.65062
-3.67539
-3.69701
-3.71505
-3.72908
-3.73871
-3.74361
-3.74353
-3.7383
-3.72774
-3.71166
-3.68982
-3.66197
-3.62794
-3.58761
-3.5408
-3.48726
-3.4267
-3.35889
-3.28378
-3.20146
-3.11235
-3.01724
-3.1699
-3.17767
-3.18825
-3.20012
-3.21257
-3.22585
-3.24029
-3.25611
-3.27344
-3.29238
-3.31294
-3.33513
-3.35889
-3.38414
-3.41069
-3.43835
-3.46685
-3.4959
-3.52513
-3.55411
-3.58236
-3.60938
-3.63468
-3.6578
-3.67832
-3.69585
-3.71001
-3.72044
-3.72681
-3.72884
-3.7263
-3.71902
-3.70686
-3.68968
-3.6673
-3.63952
-3.60618
-3.56717
-3.5224
-3.47176
-3.4151
-3.35232
-3.28346
-3.20882
-3.12895
-3.04459
-3.22205
-3.23048
-3.24198
-3.25458
-3.26743
-3.28079
-3.29498
-3.31019
-3.32656
-3.34419
-3.36314
-3.38343
-3.40501
-3.4278
-3.45164
-3.47633
-3.50162
-3.52723
-3.55281
-3.57799
-3.60232
-3.62538
-3.64674
-3.66599
-3.68277
-3.69673
-3.70755
-3.71493
-3.71858
-3.71828
-3.7138
-3.70499
-3.69173
-3.6739
-3.65138
-3.62402
-3.59169
-3.55431
-3.51186
-3.4643
-3.41161
-3.35379
-3.29097
-3.22348
-3.15191
-3.07687
-3.27283
-3.2818
-3.29408
-3.3073
-3.32048
-3.33388
-3.34777
-3.36233
-3.37774
-3.39411
-3.41153
-3.43004
-3.44959
-3.4701
-3.49139
-3.51329
-3.53556
-3.55794
-3.58013
-3.60179
-3.62256
-3.64203
-3.65986
-3.6757
-3.68922
-3.70011
-3.70809
-3.7129
-3.7143
-3.71211
-3.70613
-3.69622
-3.68225
-3.66415
-3.64182
-3.61517
-3.5841
-3.54857
-3.50859
-3.46418
-3.41541
-3.36236
-3.30521
-3.24429
-3.18011
-3.11319
-3.32276
-3.33216
-3.34506
-3.35878
-3.37217
-3.38547
-3.39895
-3.41282
-3.42725
-3.44241
-3.45841
-3.47527
-3.49296
-3.51134
-3.53027
-3.54957
-3.56904
-3.58845
-3.60754
-3.62603
-3.64358
-3.65987
-3.67458
-3.68742
-3.69811
-3.70638
-3.71196
-3.71463
-3.71419
-3.71047
-3.70333
-3.69264
-3.67828
-3.66019
-3.63831
-3.61259
-3.58297
-3.54942
-3.51199
-3.47073
-3.42575
-3.37719
-3.32527
-3.2703
-3.21269
-3.15287
-3.37236
-3.38206
-3.39542
-3.40944
-3.42286
-3.4359
-3.44886
-3.46196
-3.47543
-3.48946
-3.50415
-3.51952
-3.53548
-3.55192
-3.56868
-3.5856
-3.60251
-3.61922
-3.63554
-3.6512
-3.66591
-3.6794
-3.69138
-3.70161
-3.70985
-3.71586
-3.71943
-3.72034
-3.71841
-3.71349
-3.70546
-3.69424
-3.67972
-3.66186
-3.64062
-3.61597
-3.5879
-3.5564
-3.52151
-3.48333
-3.44197
-3.3976
-3.35044
-3.30078
-3.24899
-3.19542
-3.42212
-3.43199
-3.44559
-3.45969
-3.47294
-3.48557
-3.49791
-3.51024
-3.5228
-3.53579
-3.54928
-3.56327
-3.57765
-3.5923
-3.60707
-3.62182
-3.63642
-3.65072
-3.66456
-3.67773
-3.68996
-3.70101
-3.71063
-3.7186
-3.72473
-3.72882
-3.73069
-3.73015
-3.72703
-3.7212
-3.71256
-3.70103
-3.68655
-3.66908
-3.64861
-3.62513
-3.59865
-3.56918
-3.53678
-3.50153
-3.46357
-3.42305
-3.3802
-3.33528
-3.28862
-3.2405
-3.47244
-3.48232
-3.49593
-3.5099
-3.52282
-3.53494
-3.54664
-3.55823
-3.56995
-3.58197
-3.59434
-3.60703
-3.61994
-3.63293
-3.64587
-3.65864
-3.67116
-3.6833
-3.69496
-3.70594
-3.71603
-3.72499
-3.73259
-3.73864
-3.74297
-3.74542
-3.74586
-3.74413
-3.74008
-3.73359
-3.72457
-3.71295
-3.69869
-3.68176
-3.66215
-3.6399
-3.61501
-3.58753
-3.5575
-3.52501
-3.49019
-3.4532
-3.41422
-3.37351
-3.33136
-3.288
-3.52362
-3.53336
-3.54676
-3.5604
-3.57288
-3.58447
-3.59556
-3.60645
-3.61738
-3.62846
-3.63975
-3.6512
-3.6627
-3.67413
-3.68538
-3.69637
-3.70701
-3.71724
-3.72697
-3.73605
-3.7443
-3.75149
-3.75741
-3.76186
-3.7647
-3.7658
-3.76505
-3.76234
-3.75756
-3.7506
-3.74137
-3.72983
-3.71593
-3.69965
-3.681
-3.66
-3.63669
-3.61111
-3.58331
-3.55339
-3.52146
-3.48767
-3.45219
-3.41524
-3.37709
-3.33792
-3.57586
-3.58531
-3.59832
-3.61149
-3.62348
-3.63453
-3.64503
-3.65525
-3.66538
-3.67554
-3.68575
-3.69597
-3.70613
-3.71611
-3.72583
-3.73521
-3.74421
-3.75276
-3.76082
-3.76827
-3.77494
-3.78065
-3.78518
-3.78834
-3.78999
-3.79
-3.7883
-3.78481
-3.77945
-3.77214
-3.76283
-3.75146
-3.738
-3.72244
-3.70478
-3.68504
-3.66326
-3.6395
-3.6138
-3.58627
-3.55699
-3.52611
-3.4938
-3.46023
-3.42565
-3.39023
-3.62935
-3.6384
-3.65085
-3.66346
-3.6749
-3.6854
-3.6953
-3.70483
-3.71415
-3.72336
-3.7325
-3.74154
-3.75043
-3.75909
-3.76744
-3.77543
-3.783
-3.79013
-3.79675
-3.8028
-3.80814
-3.8126
-3.81599
-3.81811
-3.81882
-3.818
-3.81557
-3.81147
-3.80568
-3.79813
-3.7888
-3.77765
-3.76467
-3.74983
-3.73314
-3.71463
-3.69433
-3.67229
-3.64857
-3.62324
-3.59642
-3.56821
-3.53876
-3.50825
-3.4769
-3.44486
-3.68425
-3.69281
-3.70462
-3.71658
-3.72742
-3.73733
-3.74659
-3.7554
-3.76388
-3.77213
-3.78022
-3.78814
-3.79587
-3.80335
-3.81052
-3.81732
-3.8237
-3.82962
-3.83503
-3.83988
-3.84406
-3.84744
-3.84985
-3.85112
-3.85108
-3.84962
-3.84666
-3.84215
-3.83607
-3.8284
-3.81912
-3.80823
-3.79572
-3.78159
-3.76585
-3.74851
-3.72961
-3.70919
-3.68731
-3.66404
-3.63948
-3.61372
-3.58689
-3.55914
-3.5307
-3.50171
-3.7407
-3.74874
-3.75983
-3.77107
-3.78127
-3.79054
-3.79911
-3.80715
-3.81477
-3.82209
-3.82918
-3.83608
-3.84277
-3.84923
-3.85539
-3.8612
-3.86657
-3.87148
-3.87586
-3.87967
-3.88284
-3.88525
-3.88678
-3.88729
-3.88662
-3.88466
-3.88132
-3.87655
-3.87033
-3.86265
-3.85353
-3.84296
-3.83096
-3.81753
-3.8027
-3.78648
-3.7689
-3.75001
-3.72985
-3.7085
-3.68601
-3.66249
-3.63804
-3.61279
-3.58695
-3.56068
-3.79878
-3.80627
-3.8166
-3.82708
-3.83658
-3.84516
-3.85302
-3.86029
-3.86709
-3.87353
-3.87971
-3.88568
-3.89145
-3.89701
-3.90231
-3.90726
-3.91179
-3.91584
-3.91933
-3.92223
-3.92448
-3.92601
-3.92672
-3.92651
-3.92526
-3.92286
-3.91924
-3.91432
-3.90809
-3.90054
-3.89167
-3.88151
-3.87008
-3.85739
-3.84346
-3.82833
-3.81202
-3.79456
-3.77601
-3.75642
-3.73586
-3.71439
-3.6921
-3.66911
-3.6456
-3.62172
-3.85844
-3.86538
-3.87492
-3.88462
-3.89338
-3.90127
-3.90841
-3.91495
-3.92098
-3.92663
-3.932
-3.93714
-3.9421
-3.94686
-3.95138
-3.95557
-3.95935
-3.96264
-3.96536
-3.96746
-3.9689
-3.96962
-3.96957
-3.96869
-3.96689
-3.96408
-3.96021
-3.95521
-3.94904
-3.94171
-3.9332
-3.92353
-3.91273
-3.90082
-3.88782
-3.87376
-3.85867
-3.84258
-3.82554
-3.80759
-3.78879
-3.7692
-3.74889
-3.72797
-3.70657
-3.68481
-3.91958
-3.92595
-3.9347
-3.94359
-3.95163
-3.95882
-3.9653
-3.97116
-3.97652
-3.98147
-3.98612
-3.99053
-3.99475
-3.99877
-4.00256
-4.00604
-4.00913
-4.01173
-4.01376
-4.01517
-4.0159
-4.01592
-4.0152
-4.01372
-4.01141
-4.00824
-4.00415
-3.99909
-3.99303
-3.98596
-3.97786
-3.96875
-3.95863
-3.94752
-3.93545
-3.92245
-3.90854
-3.89375
-3.87812
-3.8617
-3.84453
-3.82668
-3.8082
-3.78917
-3.76969
-3.74983
-3.98206
-3.98788
-3.99584
-4.00392
-4.01123
-4.01777
-4.02364
-4.02891
-4.03367
-4.03802
-4.04204
-4.04579
-4.04933
-4.05265
-4.05574
-4.05853
-4.06095
-4.06291
-4.06432
-4.06512
-4.06526
-4.06472
-4.06347
-4.0615
-4.05879
-4.05532
-4.05106
-4.04597
-4.04004
-4.03324
-4.02556
-4.017
-4.00756
-3.99726
-3.9861
-3.97412
-3.96133
-3.94776
-3.93346
-3.91845
-3.90279
-3.88653
-3.86974
-3.85245
-3.83474
-3.81661
-4.0458
-4.05108
-4.05826
-4.06556
-4.07218
-4.07811
-4.08342
-4.08817
-4.09242
-4.09624
-4.0997
-4.10285
-4.10575
-4.10841
-4.11081
-4.11293
-4.1147
-4.11604
-4.11689
-4.11718
-4.11685
-4.11588
-4.11424
-4.11193
-4.10895
-4.10529
-4.10093
-4.09587
-4.09009
-4.08357
-4.07629
-4.06826
-4.05947
-4.04991
-4.03961
-4.02858
-4.01683
-4.0044
-3.99131
-3.9776
-3.96332
-3.94852
-3.93325
-3.91756
-3.90144
-3.88488
-4.11077
-4.11555
-4.122
-4.12855
-4.13452
-4.13989
-4.1447
-4.14899
-4.15278
-4.15613
-4.15908
-4.16168
-4.16398
-4.16601
-4.16776
-4.16923
-4.17037
-4.17113
-4.17146
-4.1713
-4.17059
-4.1693
-4.16741
-4.16491
-4.1618
-4.15807
-4.15372
-4.14875
-4.14315
-4.13691
-4.13002
-4.12248
-4.11427
-4.1054
-4.09588
-4.0857
-4.0749
-4.06348
-4.05148
-4.03894
-4.02589
-4.01239
-3.99849
-3.98422
-3.96954
-3.9544
-4.17699
-4.18132
-4.1871
-4.19298
-4.19836
-4.20321
-4.20756
-4.21142
-4.2148
-4.21771
-4.2202
-4.22231
-4.22406
-4.2255
-4.22664
-4.22749
-4.22803
-4.22825
-4.2281
-4.22753
-4.2265
-4.22498
-4.22293
-4.22034
-4.2172
-4.2135
-4.20925
-4.20444
-4.19906
-4.19313
-4.18661
-4.17952
-4.17185
-4.16359
-4.15475
-4.14533
-4.13536
-4.12484
-4.11381
-4.10229
-4.09033
-4.07797
-4.06527
-4.05223
-4.0388
-4.02493
-4.2445
-4.24843
-4.25364
-4.25893
-4.26377
-4.26815
-4.27208
-4.27554