/*--------------------------------*- C++ -*----------------------------------*\
  =========                 |
  \\      /  F ield         | OpenFOAM: The Open Source CFD Toolbox
   \\    /   O peration     | Website:  https://openfoam.org
    \\  /    A nd           | Version:  9
     \\/     M anipulation  |
\*---------------------------------------------------------------------------*/
FoamFile
{
    format      ascii;
    class       volScalarField;
    location    "0.25";
    object      p_rgh;
}
// * * * * * * * * * * * * * * * * * * * * * * * * * * * * * * * * * * * * * //

dimensions      [1 -1 -2 0 0 0 0];

internalField   nonuniform List<scalar> 
7700
(
2010.11
2013.7
2021.19
2029.88
2037.18
2042.7
2046.63
2049.45
2051.57
2053.24
2054.62
2055.78
2056.76
2057.52
2058
2058.15
2057.89
2057.12
2055.79
2053.84
2051.24
2048
2044.18
2039.91
2035.39
2030.92
2026.94
2024.04
2022.98
2024.77
2030.71
2042.49
2062.33
2093.61
2138
2198.28
2276.38
2372.81
2484.55
2603.26
2715.21
2805.61
2865.36
2890.57
2913.09
2963.65
2007.88
2010.52
2016.52
2023.3
2029.29
2034.05
2037.63
2040.34
2042.42
2044.06
2045.38
2046.44
2047.24
2047.76
2047.94
2047.73
2047.05
2045.84
2044.03
2041.58
2038.49
2034.77
2030.51
2025.85
2021.03
2016.36
2012.33
2009.52
2008.74
2011.01
2017.6
2030.08
2050.25
2079.75
2122.75
2181.4
2258.43
2355.16
2469.96
2596.02
2719.83
2821.89
2885.01
2902.69
2893.3
2962.42
2004.9
2008.65
2013.19
2017.92
2022.22
2025.74
2028.49
2030.62
2032.27
2033.53
2034.46
2035.1
2035.42
2035.39
2034.96
2034.06
2032.64
2030.63
2028
2024.71
2020.78
2016.26
2011.26
2005.94
2000.58
1995.54
1991.31
1988.52
1987.99
1990.74
1998.02
2011.35
2032.45
2063.21
2106.46
2164.48
2239.42
2332.34
2442.27
2564.74
2690.05
2802.02
2882.42
2922.45
2940.09
3008.2
2000.54
2005.47
2009.54
2013.04
2016.07
2018.5
2020.38
2021.8
2022.85
2023.58
2023.99
2024.07
2023.8
2023.11
2021.97
2020.29
2018.03
2015.13
2011.57
2007.33
2002.45
1997
1991.11
1984.98
1978.89
1973.25
1968.55
1965.44
1964.76
1967.5
1974.88
1988.36
2009.59
2040.37
2082.86
2139.27
2211.4
2300.07
2404.4
2520.98
2643.04
2759.94
2858.72
2930.94
2988.49
3080.66
1994.62
2000.43
2004.38
2007.19
2009.42
2011.1
2012.33
2013.2
2013.76
2014.02
2013.96
2013.55
2012.73
2011.45
2009.64
2007.23
2004.19
2000.45
1996.01
1990.86
1985.04
1978.65
1971.82
1964.79
1957.84
1951.38
1945.93
1942.13
1940.8
1942.91
1949.63
1962.34
1982.6
2012.08
2052.67
2106.32
2174.6
2258.24
2356.72
2467.69
2586.67
2706.9
2819.46
2917.7
3015.45
3144.2
1987.14
1993.49
1997.36
1999.72
2001.44
2002.65
2003.47
2003.98
2004.21
2004.14
2003.73
2002.92
2001.65
1999.86
1997.47
1994.43
1990.68
1986.18
1980.91
1974.89
1968.18
1960.85
1953.08
1945.09
1937.17
1929.73
1923.29
1918.47
1916.05
1916.99
1922.38
1933.52
1951.86
1978.97
2016.53
2066.26
2129.55
2207.12
2298.75
2403.05
2517.39
2637.71
2758.11
2874.3
3005.5
3170.87
1978.08
1984.71
1988.46
1990.51
1991.92
1992.86
1993.45
1993.77
1993.82
1993.55
1992.89
1991.79
1990.17
1987.96
1985.08
1981.48
1977.09
1971.89
1965.87
1959.03
1951.44
1943.2
1934.46
1925.46
1916.48
1907.93
1900.29
1894.17
1890.32
1889.63
1893.13
1902.03
1917.67
1941.49
1974.97
2019.61
2076.67
2146.81
2230.04
2325.6
2432.05
2547.12
2667.4
2791.46
2944.69
3134.25
1967.46
1974.17
1977.74
1979.6
1980.83
1981.65
1982.17
1982.44
1982.42
1982.06
1981.27
1979.97
1978.09
1975.54
1972.25
1968.15
1963.2
1957.36
1950.63
1943.01
1934.58
1925.43
1915.72
1905.67
1895.56
1885.77
1876.76
1869.12
1863.53
1860.82
1861.96
1868.06
1880.33
1900.05
1928.49
1966.96
2016.52
2077.75
2150.71
2234.97
2329.54
2432.89
2542.86
2660
2817.79
3007.38
1955.34
1961.95
1965.32
1967.06
1968.25
1969.07
1969.62
1969.94
1969.96
1969.59
1968.75
1967.34
1965.27
1962.46
1958.82
1954.31
1948.85
1942.44
1935.04
1926.7
1917.45
1907.41
1896.72
1885.58
1874.28
1863.15
1852.63
1843.25
1835.66
1830.62
1829.01
1831.83
1840.16
1855.09
1877.69
1909
1949.89
2000.74
2061.54
2131.74
2210.18
2294.72
2382.31
2471.55
2605.95
2734.52
1941.78
1948.17
1951.32
1953.02
1954.25
1955.17
1955.86
1956.31
1956.43
1956.14
1955.31
1953.85
1951.66
1948.64
1944.73
1939.85
1933.96
1927.02
1919.02
1909.99
1899.97
1889.06
1877.39
1865.15
1852.59
1840.03
1827.87
1816.6
1806.79
1799.15
1794.47
1793.62
1797.53
1807.13
1823.21
1846.57
1877.8
1917.04
1963.99
2017.67
2076.05
2135.09
2188.12
2224.65
2288.74
2215.06
1.01865
1.00872
0.999948
0.991238
0.983046
0.975105
0.968218
0.962263
0.956859
0.951603
0.94619
0.940444
0.934283
0.92767
0.920628
0.913222
0.905571
0.89781
0.890197
0.882343
0.874422
0.867003
0.859923
0.85307
0.846429
0.840184
0.834355
0.828941
0.823935
0.81934
0.815106
0.811173
0.807579
0.804383
0.801588
0.799276
0.797456
0.796111
0.79527
0.794636
1.02132
1.01282
1.00475
0.99476
0.984205
0.975066
0.967518
0.96107
0.955249
0.94966
0.944015
0.938135
0.931934
0.925368
0.918427
0.911137
0.903587
0.895894
0.888162
0.880626
0.873214
0.865802
0.858739
0.852015
0.845644
0.839568
0.833859
0.828538
0.823615
0.819078
0.814896
0.811034
0.807497
0.804319
0.801549
0.799191
0.797305
0.795922
0.79491
0.794192
1.02397
1.01426
1.00514
0.995039
0.984419
0.974911
0.966858
0.959872
0.953573
0.947595
0.941643
0.935551
0.929234
0.922658
0.915784
0.908589
0.901134
0.893565
0.886037
0.878702
0.871411
0.864258
0.857397
0.85089
0.844692
0.838783
0.83318
0.82791
0.823005
0.818475
0.814312
0.810486
0.806997
0.803872
0.801112
0.798764
0.796826
0.795337
0.794324
0.793789
1.02665
1.01494
1.00413
0.993675
0.983269
0.973866
0.965716
0.958546
0.952013
0.945786
0.939589
0.933266
0.926769
0.920104
0.913225
0.906067
0.898654
0.891155
0.883772
0.876591
0.869525
0.862617
0.855969
0.849652
0.843636
0.837868
0.832321
0.827028
0.822058
0.81747
0.813289
0.809502
0.806088
0.803037
0.800341
0.798018
0.796083
0.794584
0.793536
0.793186
1.02812
1.01433
1.0014
0.990682
0.980658
0.971753
0.963963
0.956991
0.950509
0.944222
0.937885
0.931361
0.924649
0.917822
0.910876
0.903714
0.896315
0.888859
0.881584
0.874565
0.867721
0.861031
0.854568
0.848402
0.84251
0.836808
0.831242
0.825852
0.820751
0.816059
0.811847
0.808113
0.804805
0.801876
0.799288
0.797033
0.795135
0.793655
0.792653
0.792366
1.02675
1.01105
0.995799
0.985427
0.976317
0.968436
0.961485
0.955078
0.9489
0.942714
0.93634
0.92967
0.922746
0.915719
0.908673
0.901505
0.894133
0.886724
0.879545
0.87268
0.86603
0.85951
0.853163
0.847061
0.841194
0.835469
0.829823
0.824307
0.819072
0.814289
0.810062
0.806394
0.803226
0.800451
0.797998
0.795841
0.794007
0.792571
0.791637
0.791409
1.01949
1.00331
0.985707
0.977046
0.969843
0.963742
0.958186
0.952729
0.947099
0.941165
0.934843
0.92809
0.920988
0.913765
0.906603
0.899423
0.892091
0.884729
0.877623
0.870876
0.864367
0.857956
0.851644
0.845509
0.839564
0.833742
0.827991
0.822371
0.817049
0.812222
0.808018
0.804446
0.801422
0.798803
0.796496
0.794454
0.792702
0.791328
0.790466
0.790289
0.998947
0.98789
0.968354
0.9642
0.960691
0.957496
0.954039
0.949954
0.945123
0.939585
0.933407
0.926636
0.91939
0.911973
0.904676
0.897456
0.890133
0.882781
0.875688
0.86899
0.862552
0.856185
0.849846
0.84361
0.837531
0.831584
0.825744
0.820074
0.814738
0.809935
0.805794
0.802325
0.799427
0.796964
0.794797
0.792873
0.791212
0.789912
0.78912
0.788983
0.940111
0.957096
0.939154
0.944961
0.948229
0.949603
0.949118
0.946871
0.943091
0.93808
0.932112
0.925364
0.917997
0.910374
0.902888
0.895558
0.888175
0.880759
0.873587
0.866829
0.860363
0.853975
0.847584
0.841252
0.835055
0.829012
0.823133
0.817484
0.812215
0.807497
0.80345
0.800083
0.7973
0.794955
0.792907
0.791092
0.789527
0.788309
0.787585
0.78748
0.786841
0.888756
0.893491
0.917687
0.932089
0.940165
0.943652
0.943705
0.941173
0.936766
0.931036
0.924311
0.916806
0.90894
0.901195
0.893665
0.886132
0.87856
0.871201
0.86425
0.857639
0.85117
0.844739
0.83837
0.832131
0.826074
0.820235
0.814687
0.809548
0.80496
0.801022
0.797745
0.795045
0.792782
0.790826
0.789109
0.78764
0.786507
0.78585
0.785771
1926.75
1932.81
1935.75
1937.47
1938.83
1939.92
1940.81
1941.45
1941.75
1941.58
1940.83
1939.37
1937.1
1933.93
1929.79
1924.6
1918.32
1910.91
1902.37
1892.7
1881.94
1870.18
1857.54
1844.18
1830.32
1816.26
1802.34
1789.01
1776.79
1766.31
1758.26
1753.4
1752.5
1756.27
1765.29
1780.04
1800.84
1827.5
1859.31
1894.68
1930.3
1959.47
1969.75
1933.58
1842.83
1269.62
1910.24
1915.91
1918.65
1920.44
1921.98
1923.31
1924.45
1925.34
1925.85
1925.85
1925.2
1923.79
1921.49
1918.22
1913.89
1908.44
1901.82
1894
1884.96
1874.7
1863.25
1850.67
1837.07
1822.57
1807.38
1791.73
1775.96
1760.44
1745.64
1732.1
1720.44
1711.29
1705.25
1702.85
1704.42
1710.14
1720.04
1733.6
1749.71
1766.21
1778.96
1779.73
1753.02
1665.04
1504.89
1079.15
1892.39
1897.62
1900.19
1902.1
1903.85
1905.46
1906.9
1908.07
1908.83
1909.02
1908.51
1907.17
1904.87
1901.53
1897.07
1891.41
1884.5
1876.32
1866.83
1856.03
1843.94
1830.58
1816.04
1800.42
1783.87
1766.6
1748.89
1731.08
1713.57
1696.84
1681.4
1667.77
1656.42
1647.67
1641.66
1638.31
1637.33
1637.94
1638.73
1637.35
1629.67
1608.21
1560.36
1463.18
1316.05
1100.95
1873.31
1878.06
1880.5
1882.54
1884.55
1886.46
1888.21
1889.68
1890.71
1891.12
1890.77
1889.52
1887.26
1883.89
1879.32
1873.5
1866.36
1857.86
1847.99
1836.71
1824.03
1809.94
1794.5
1777.77
1759.86
1740.94
1721.25
1701.06
1680.75
1660.72
1641.4
1623.21
1606.49
1591.43
1577.97
1565.81
1554.42
1542.81
1529.44
1512.07
1487.34
1449.87
1391.79
1300.98
1173.34
1035.42
1853.1
1857.36
1859.69
1861.89
1864.15
1866.37
1868.45
1870.24
1871.53
1872.17
1872
1870.87
1868.66
1865.29
1860.67
1854.73
1847.41
1838.68
1828.48
1816.79
1803.58
1788.82
1772.52
1754.71
1735.46
1714.88
1693.16
1670.56
1647.38
1623.99
1600.76
1578.03
1556.03
1534.86
1514.33
1493.98
1473.08
1450.51
1424.71
1393.79
1355.44
1306.64
1243.48
1160.16
1050.65
938.019
1831.88
1835.62
1837.87
1840.22
1842.74
1845.27
1847.68
1849.78
1851.35
1852.23
1852.24
1851.24
1849.12
1845.78
1841.14
1835.14
1827.71
1818.8
1808.36
1796.33
1782.67
1767.31
1750.22
1731.38
1710.8
1688.56
1664.81
1639.75
1613.67
1586.91
1559.8
1532.63
1505.61
1478.74
1451.8
1424.21
1395.15
1363.45
1327.55
1285.93
1237.3
1181.01
1116.79
1042.92
955.67
869.27
1809.75
1812.97
1815.15
1817.64
1820.39
1823.23
1825.95
1828.35
1830.21
1831.32
1831.53
1830.69
1828.68
1825.4
1820.79
1814.78
1807.29
1798.28
1787.67
1775.4
1761.37
1745.5
1727.7
1707.88
1686.02
1662.13
1636.33
1608.8
1579.83
1549.73
1518.85
1487.48
1455.82
1423.89
1391.47
1358.06
1322.88
1284.72
1241.85
1192.7
1136.63
1075.55
1013.66
952.262
888.067
828.307
1786.85
1789.5
1791.62
1794.21
1797.18
1800.29
1803.32
1806.02
1808.15
1809.51
1809.93
1809.26
1807.39
1804.22
1799.68
1793.7
1786.22
1777.18
1766.49
1754.06
1739.77
1723.49
1705.06
1684.34
1661.24
1635.73
1607.89
1577.91
1546.06
1512.72
1478.26
1443.02
1407.28
1371.17
1334.68
1297.65
1259.52
1218.7
1172.39
1118.41
1056.52
991.705
933.589
886.74
844.609
806.63
1763.3
1765.34
1767.38
1770.01
1773.15
1776.52
1779.84
1782.83
1785.24
1786.86
1787.51
1787.03
1785.33
1782.3
1777.87
1771.98
1764.57
1755.57
1744.88
1732.39
1717.94
1701.34
1682.39
1660.87
1636.61
1609.52
1579.68
1547.27
1512.62
1476.18
1438.4
1399.74
1360.66
1321.65
1283.22
1245.63
1207.68
1165.57
1114.92
1056.02
965.446
927.288
884.009
847.446
823.235
803.818
1739.23
1740.56
1742.48
1745.07
1748.34
1751.96
1755.56
1758.85
1761.55
1763.44
1764.33
1764.08
1762.57
1759.71
1755.44
1749.69
1742.41
1733.51
1722.9
1710.44
1695.94
1679.17
1659.82
1637.62
1612.29
1583.72
1551.92
1517.15
1479.82
1440.46
1399.69
1358.17
1316.76
1276.62
1238.34
1199.92
1151.13
1047.58
829.606
597.883
386.194
390.348
523.612
772.956
834.448
821.036
1714.74
1715.19
1716.95
1719.41
1722.79
1726.64
1730.53
1734.13
1737.14
1739.33
1740.51
1740.51
1739.22
1736.57
1732.48
1726.9
1719.78
1711.05
1700.6
1688.28
1673.86
1657.05
1637.49
1614.77
1588.54
1558.58
1524.94
1487.9
1448
1405.96
1362.61
1318.91
1276.33
1235.73
1193.67
1101.23
807.563
370.216
115.494
35.1773
10.2413
7.28797
24.8445
172.697
759.748
864.716
1689.94
1689.23
1690.77
1693.02
1696.51
1700.6
1704.82
1708.77
1712.13
1714.66
1716.14
1716.42
1715.38
1712.95
1709.07
1703.69
1696.77
1688.25
1678.03
1665.94
1651.74
1635.08
1615.53
1592.54
1565.62
1534.46
1499.09
1459.9
1417.61
1373.17
1327.65
1282.33
1238.06
1190.7
979.879
446.614
71.5814
2.68466
-0.0821039
-1.33105
-1.90983
-2.5586
-2.53013
0.0638955
156.827
817.218
1664.83
1662.58
1663.85
1665.88
1669.5
1673.9
1678.5
1682.86
1686.63
1689.53
1691.36
1691.95
1691.18
1688.98
1685.31
1680.14
1673.44
1665.16
1655.21
1643.44
1629.6
1613.32
1594.09
1571.17
1543.87
1511.75
1474.85
1433.68
1389.16
1342.49
1295
1247.32
1180.01
775.635
154.062
1.61781
-2.13853
-3.22679
-3.7512
-3.99607
-4.12581
-4.34985
-4.3009
-2.89219
-0.591299
676.42
1639.11
1635.12
1636.05
1637.96
1641.79
1646.59
1651.65
1656.5
1660.73
1664.07
1666.28
1667.2
1666.71
1664.75
1661.29
1656.32
1649.82
1641.77
1632.12
1620.75
1607.42
1591.8
1573.29
1550.95
1523.73
1491.03
1452.84
1409.78
1362.93
1314.02
1264.56
1143.66
553.224
12.5363
-2.44399
-3.22902
-3.82732
-4.00575
-4.13435
-4.29115
-4.46124
-4.67046
-4.77363
-4.57965
-3.20021
185.896
1612.29
1606.74
1607.23
1609.24
1613.43
1618.74
1624.37
1629.78
1634.56
1638.38
1641.01
1642.28
1642.08
1640.34
1637.06
1632.25
1625.91
1618.07
1608.71
1597.79
1585.13
1570.46
1553.26
1532.22
1505.79
1473.01
1433.73
1388.5
1339.07
1288.53
1110.28
384.613
0.418126
-2.82195
-3.55699
-3.73046
-3.86628
-3.98054
-4.12664
-4.30497
-4.50086
-4.71397
-4.92855
-5.07564
-4.68008
-5.10122
1584.23
1578.32
1577.61
1579.89
1584.62
1590.59
1596.89
1602.94
1608.3
1612.64
1615.71
1617.34
1617.4
1615.84
1612.7
1607.99
1601.76
1594.06
1584.96
1574.5
1562.61
1549.23
1534.07
1515.4
1490.73
1458.47
1418.01
1370.5
1319.5
1051.5
267.977
-1.04474
-3.02552
-3.44386
-3.58875
-3.69073
-3.81713
-3.95503
-4.11131
-4.28574
-4.47447
-4.68071
-4.91595
-5.15286
-5.08731
-5.94027
1557.07
1548.85
1547.31
1550.09
1555.49
1562.28
1569.39
1576.17
1582.18
1587.09
1590.61
1592.57
1592.86
1591.43
1588.34
1583.66
1577.42
1569.71
1560.69
1550.53
1539.22
1527.21
1515.17
1500.61
1479.23
1448.32
1407.27
1359.01
995.514
163.129
-1.7003
-3.0619
-3.30604
-3.42926
-3.53686
-3.65392
-3.78345
-3.9193
-4.06497
-4.22374
-4.39734
-4.59237
-4.8215
-5.06379
-5.10238
-6.21443
1528.59
1517
1513.13
1517.47
1524.47
1532.59
1540.83
1548.58
1555.44
1561.05
1565.11
1567.43
1567.9
1566.45
1563.25
1558.37
1551.8
1543.62
1534.12
1523.62
1512.09
1501.13
1494.36
1487.57
1472.59
1445.22
1404.99
985.545
117.472
-1.98456
-2.9667
-3.14816
-3.26925
-3.3722
-3.48546
-3.60299
-3.72329
-3.84677
-3.97754
-4.11954
-4.276
-4.45375
-4.66368
-4.87913
-4.92114
-6.05876
1488
1358.03
1299.64
1392.4
1467.88
1497.27
1508.63
1518.1
1526.01
1532.38
1536.98
1539.63
1540.21
1538.45
1534.81
1529.39
1522.07
1512.92
1502.58
1491.65
1479.27
1468.04
1468.95
1476.16
1473.26
1451.22
994.292
97.5553
-2.11007
-2.82198
-2.97177
-3.09259
-3.19853
-3.30619
-3.41554
-3.52373
-3.63163
-3.74139
-3.85647
-3.98034
-4.11645
-4.27125
-4.45421
-4.64127
-4.68975
-5.66042
802.349
383.204
286.606
446.727
708.809
973.727
1184.73
1332.48
1426.93
1478.39
1501.6
1509.72
1510.7
1508.53
1504.56
1498.96
1488.64
1467.36
1428.03
1369.54
1259.5
1036.42
991.072
1161.01
1237.22
884.101
84.3739
-2.29003
-2.65568
-2.78344
-2.90263
-3.01176
-3.11893
-3.22275
-3.32299
-3.41988
-3.51489
-3.61006
-3.7081
-3.81193
-3.92466
-4.0511
-4.19852
-4.35252
-4.42007
-5.10736
-0.797783
0.179867
-0.111575
-0.393193
-0.428293
62.472
178.008
327.655
503.781
685.061
834.466
935.957
1003.73
1007.75
988.181
940.274
856.666
727.061
562.436
414.801
257.011
89.6547
77.1088
188.244
205.528
10.2319
-2.30098
-2.45879
-2.58255
-2.70277
-2.81547
-2.92377
-3.02615
-3.12199
-3.21194
-3.297
-3.37859
-3.45838
-3.53842
-3.62099
-3.70833
-3.80207
-3.90449
-4.0109
-4.01104
-3.58402
-0.576681
-0.407478
-0.42677
-0.442651
-0.431588
-0.453865
-0.553232
-0.662353
-0.752951
-0.776777
13.8768
40.25
64.586
66.135
58.465
40.6938
13.6561
-1.37226
-1.41107
-1.4633
-1.59399
-1.66892
-1.59703
-1.54146
-1.7934
-2.0345
-2.21351
-2.36375
-2.49274
-2.61166
-2.72302
-2.82625
-2.92097
-3.00746
-3.08671
-3.1596
-3.22743
-3.29159
-3.35361
-3.41524
-3.47824
-3.54253
-3.60514
-3.65849
-3.65466
-3.38884
-0.52453
-0.462037
-0.444004
-0.446356
-0.448502
-0.453375
-0.473135
-0.499862
-0.525295
-0.54795
-0.609273
-0.728607
-0.8566
-0.958332
-1.03506
-1.0893
-1.1009
-1.0901
-1.1216
-1.19233
-1.29737
-1.41214
-1.51425
-1.63085
-1.80005
-1.9761
-2.13586
-2.27742
-2.40389
-2.51958
-2.62513
-2.72056
-2.80624
-2.88272
-2.95088
-3.01148
-3.06563
-3.11451
-3.15932
-3.20147
-3.24268
-3.2832
-3.31806
-3.34447
-3.35768
-3.24601
-0.497247
-0.461923
-0.454793
-0.456196
-0.464131
-0.478678
-0.501956
-0.530786
-0.559673
-0.584414
-0.60067
-0.637024
-0.692179
-0.756613
-0.826306
-0.905097
-0.999037
-1.09782
-1.1695
-1.24895
-1.34275
-1.44378
-1.54442
-1.65547
-1.78846
-1.93104
-2.07186
-2.20092
-2.31893
-2.42635
-2.52297
-2.60903
-2.6848
-2.75091
-2.80784
-2.85631
-2.89728
-2.93172
-2.96057
-2.98497
-3.00652
-3.02602
-3.03926
-3.04095
-3.03634
-2.97902
-0.494869
-0.472848
-0.46915
-0.470613
-0.478837
-0.494852
-0.51901
-0.548984
-0.581483
-0.614057
-0.647468
-0.691125
-0.746035
-0.808802
-0.876646
-0.949944
-1.03032
-1.11325
-1.18974
-1.2699
-1.3581
-1.45102
-1.54572
-1.64839
-1.7647
-1.88894
-2.01184
-2.12764
-2.23455
-2.3315
-2.41796
-2.49375
-2.55923
-2.61483
-2.66081
-2.69771
-2.72631
-2.74737
-2.76157
-2.76983
-2.7734
-2.77328
-2.76657
-2.74804
-2.72298
-2.65575
-0.507944
-0.489703
-0.486814
-0.488494
-0.496274
-0.511222
-0.533278
-0.561121
-0.59303
-0.62836
-0.668098
-0.715269
-0.770014
-0.830539
-0.895379
-0.964048
-1.03638
-1.11112
-1.18658
-1.26593
-1.35066
-1.43964
-1.53172
-1.62909
-1.73473
-1.84424
-1.95224
-2.05473
-2.14958
-2.23544
-2.31114
-2.37654
-2.43178
-2.47712
-2.51265
-2.53872
-2.55586
-2.56462
-2.5655
-2.55907
-2.54608
-2.5273
-2.50162
-2.46581
-2.42188
-2.28873
-0.522471
-0.508754
-0.506705
-0.508864
-0.516576
-0.530803
-0.551318
-0.577438
-0.60835
-0.643666
-0.683827
-0.729875
-0.781873
-0.839081
-0.900772
-0.966532
-1.03589
-1.10796
-1.18212
-1.25928
-1.34032
-1.42496
-1.51255
-1.60371
-1.69907
-1.79614
-1.8908
-1.98066
-2.06376
-2.13838
-2.20353
-2.25881
-2.30422
-2.33976
-2.36546
-2.38149
-2.38816
-2.38583
-2.37474
-2.35508
-2.32687
-2.2899
-2.24338
-2.1844
-2.10562
-1.93328
-0.536604
-0.528192
-0.527193
-0.530116
-0.538076
-0.551935
-0.571545
-0.596504
-0.6264
-0.660963
-0.700235
-0.74453
-0.793908
-0.848095
-0.906713
-0.969383
-1.03563
-1.10477
-1.17624
-1.25026
-1.32713
-1.40672
-1.4883
-1.57242
-1.65811
-1.74402
-1.8269
-1.90503
-1.97681
-2.04073
-2.09583
-2.14152
-2.17763
-2.20402
-2.22065
-2.22756
-2.22491
-2.21285
-2.19134
-2.16008
-2.11839
-2.06493
-1.99782
-1.91305
-1.79824
-1.6148
-0.549984
-0.546756
-0.546885
-0.550692
-0.559001
-0.572564
-0.591408
-0.615344
-0.644146
-0.677559
-0.715444
-0.757838
-0.804757
-0.856096
-0.911626
-0.97099
-1.0337
-1.09919
-1.16701
-1.23702
-1.30917
-1.38328
-1.45873
-1.53521
-1.61235
-1.68788
-1.76015
-1.82759
-1.88887
-1.94284
-1.98853
-2.0253
-2.05279
-2.07081
-2.07929
-2.0782
-2.06753
-2.04721
-2.01694
-1.97603
-1.92324
-1.85655
-1.77311
-1.66811
-1.53139
-1.3488
-0.562331
-0.5635
-0.564714
-0.569384
-0.578014
-0.591265
-0.609337
-0.632207
-0.659738
-0.691677
-0.727811
-0.768076
-0.812472
-0.860944
-0.913307
-0.969214
-1.02818
-1.08971
-1.15337
-1.21888
-1.286
-1.35444
-1.42373
-1.49298
-1.56174
-1.62809
-1.69078
-1.74852
-1.80028
-1.84512
-1.88217
-1.91078
-1.93047
-1.94104
-1.94241
-1.93449
-1.91713
-1.89006
-1.85274
-1.80428
-1.74316
-1.66719
-1.57329
-1.45681
-1.31027
-1.12217
-0.57327
-0.577663
-0.57986
-0.585354
-0.59428
-0.607263
-0.624611
-0.646391
-0.6725
-0.702713
-0.736837
-0.774802
-0.816586
-0.862124
-0.911227
-0.963551
-1.01864
-1.07601
-1.13526
-1.19603
-1.258
-1.32077
-1.38378
-1.44624
-1.5071
-1.56518
-1.61925
-1.6683
-1.71151
-1.74813
-1.7774
-1.7987
-1.81151
-1.81561
-1.81092
-1.79731
-1.77454
-1.74215
-1.69947
-1.64555
-1.57891
-1.49746
-1.39843
-1.27785
-1.13017
-0.948524
-0.582103
-0.588611
-0.591703
-0.598003
-0.607275
-0.620088
-0.636786
-0.657461
-0.682045
-0.710398
-0.742405
-0.778012
-0.817157
-0.859715
-0.905474
-0.954107
-1.00519
-1.0583
-1.11302
-1.16899
-1.22582
-1.283
-1.33986
-1.39558
-1.44922
-1.49973
-1.54608
-1.58741
-1.62305
-1.65238
-1.67477
-1.68967
-1.69657
-1.69522
-1.68549
-1.66723
-1.64015
-1.60376
-1.55733
-1.49994
-1.43032
-1.34665
-1.24671
-1.12754
-0.985388
-0.816707
-0.588084
-0.595628
-0.599699
-0.60683
-0.616539
-0.629299
-0.645429
-0.665034
-0.688101
-0.714589
-0.744479
-0.777736
-0.814243
-0.853809
-0.896191
-0.94109
-0.988138
-1.03694
-1.08714
-1.13833
-1.19006
-1.24171
-1.29258
-1.34186
-1.38874
-1.43232
-1.47174
-1.50624
-1.53521
-1.55813
-1.57452
-1.58391
-1.58587
-1.58004
-1.56623
-1.54425
-1.51388
-1.47472
-1.42606
-1.36704
-1.2966
-1.21339
-1.11569
-1.00153
-0.868762
-0.715898
-0.590549
-0.598247
-0.603463
-0.611486
-0.621745
-0.634565
-0.650225
-0.668864
-0.690529
-0.715262
-0.743104
-0.774031
-0.807895
-0.844462
-0.88348
-0.924682
-0.967745
-1.01231
-1.05803
-1.10449
-1.15116
-1.19739
-1.24246
-1.28566
-1.32626
-1.36352
-1.39669
-1.4251
-1.44819
-1.46552
-1.47673
-1.48143
-1.47925
-1.46982
-1.45286
-1.42815
-1.39551
-1.35466
-1.30509
-1.24604
-1.17665
-1.09588
-1.00252
-0.89544
-0.773819
-0.63722
-0.589077
-0.596346
-0.602966
-0.611949
-0.622823
-0.635774
-0.65106
-0.668867
-0.689299
-0.712435
-0.738325
-0.766946
-0.798159
-0.831744
-0.86746
-0.905052
-0.944228
-0.98467
-1.02602
-1.06785
-1.10958
-1.15057
-1.19014
-1.22763
-1.26244
-1.29393
-1.32147
-1.34447
-1.36241
-1.3749
-1.38166
-1.38239
-1.37678
-1.3645
-1.34523
-1.31874
-1.28487
-1.24341
-1.19397
-1.13599
-1.06882
-0.991787
-0.90416
-0.80523
-0.694898
-0.573701
-0.583455
-0.590174
-0.598414
-0.608465
-0.619936
-0.633021
-0.647997
-0.665084
-0.684418
-0.706082
-0.730112
-0.756481
-0.785084
-0.815746
-0.848254
-0.88237
-0.917818
-0.954287
-0.991415
-1.02875
-1.06573
-1.10174
-1.13616
-1.1684
-1.19793
-1.2242
-1.2467
-1.26491
-1.27839
-1.28675
-1.28976
-1.28719
-1.27879
-1.26432
-1.24347
-1.216
-1.18174
-1.14053
-1.0921
-1.03602
-0.971862
-0.899231
-0.817811
-0.727337
-0.627993
-0.52063
-0.573684
-0.580805
-0.590302
-0.60133
-0.613323
-0.626514
-0.641208
-0.65764
-0.675957
-0.696233
-0.71849
-0.742707
-0.768813
-0.79668
-0.826126
-0.856924
-0.888812
-0.921483
-0.954564
-0.987608
-1.02008
-1.05143
-1.08109
-1.10854
-1.1333
-1.15493
-1.17297
-1.187
-1.19663
-1.20152
-1.20145
-1.19622
-1.18566
-1.16958
-1.14774
-1.11989
-1.08586
-1.04552
-0.998715
-0.945176
-0.884615
-0.816811
-0.741694
-0.659377
-0.57027
-0.475155
-0.56065
-0.568427
-0.579
-0.590874
-0.603323
-0.616605
-0.631042
-0.646859
-0.664197
-0.683132
-0.703695
-0.725883
-0.749648
-0.77489
-0.801448
-0.829105
-0.857607
-0.886652
-0.91588
-0.944861
-0.973115
-1.00014
-1.02544
-1.04856
-1.06908
-1.0866
-1.10076
-1.11119
-1.11757
-1.1196
-1.11705
-1.10977
-1.09761
-1.08043
-1.05805
-1.03028
-0.996932
-0.95792
-0.913155
-0.862514
-0.80585
-0.74307
-0.674218
-0.599575
-0.519708
-0.43534
-0.545017
-0.553449
-0.564944
-0.577548
-0.590396
-0.603761
-0.617947
-0.633157
-0.649529
-0.667161
-0.686111
-0.706395
-0.727979
-0.750769
-0.774612
-0.799299
-0.824589
-0.850194
-0.87578
-0.900955
-0.925292
-0.948353
-0.969709
-0.988962
-1.00574
-1.0197
-1.03052
-1.03789
-1.04155
-1.04125
-1.03677
-1.02796
-1.0147
-0.996865
-0.974345
-0.946987
-0.914657
-0.877279
-0.834826
-0.787268
-0.734575
-0.676758
-0.613942
-0.546452
-0.474874
-0.399838
-0.527382
-0.536359
-0.548631
-0.561856
-0.575036
-0.588431
-0.60232
-0.616888
-0.632291
-0.64866
-0.666085
-0.684592
-0.704148
-0.724652
-0.745949
-0.767844
-0.79011
-0.812491
-0.834685
-0.856348
-0.877109
-0.896588
-0.914418
-0.930253
-0.94377
-0.954663
-0.962642
-0.96745
-0.968857
-0.966659
-0.960682
-0.950772
-0.936808
-0.918702
-0.896373
-0.869721
-0.838654
-0.803125
-0.763142
-0.718739
-0.669966
-0.616914
-0.559766
-0.498846
-0.434665
-0.367741
-0.508265
-0.517666
-0.530567
-0.544279
-0.557671
-0.570975
-0.584458
-0.598321
-0.61275
-0.627911
-0.643911
-0.660778
-0.67846
-0.696847
-0.715779
-0.735077
-0.754542
-0.773952
-0.793048
-0.811533
-0.829086
-0.845376
-0.860088
-0.872927
-0.883614
-0.89188
-0.897464
-0.900137
-0.899696
-0.895976
-0.888834
-0.878139
-0.863784
-0.845695
-0.823817
-0.798094
-0.76847
-0.734925
-0.69749
-0.656233
-0.611256
-0.562699
-0.510777
-0.455801
-0.398194
-0.338375
-0.488175
-0.497876
-0.511232
-0.525249
-0.538672
-0.551715
-0.564669
-0.577771
-0.591244
-0.605274
-0.619966
-0.635329
-0.651295
-0.667734
-0.684493
-0.70141
-0.718318
-0.735037
-0.751352
-0.767008
-0.781724
-0.795211
-0.807194
-0.817422
-0.82566
-0.831678
-0.835245
-0.836154
-0.83422
-0.829298
-0.821275
-0.810049
-0.795533
-0.777671
-0.75643
-0.731785
-0.703712
-0.67221
-0.637325
-0.59914
-0.557779
-0.513408
-0.46625
-0.416596
-0.364807
-0.311228
-0.467594
-0.477461
-0.49106
-0.505161
-0.518416
-0.531045
-0.543384
-0.555713
-0.568279
-0.581266
-0.594758
-0.608742
-0.623127
-0.637777
-0.652546
-0.667294
-0.681891
-0.696196
-0.710037
-0.7232
-0.735437
-0.746487
-0.756107
-0.764077
-0.770203
-0.774296
-0.776164
-0.775623
-0.772504
-0.766673
-0.758032
-0.746504
-0.732024
-0.714555
-0.694082
-0.670604
-0.644124
-0.614658
-0.582256
-0.547009
-0.509044
-0.468529
-0.425678
-0.380759
-0.334097
-0.285974
-0.446924
-0.456805
-0.470416
-0.48438
-0.497302
-0.509426
-0.521128
-0.532716
-0.544438
-0.556455
-0.568827
-0.581518
-0.594425
-0.607415
-0.620353
-0.633128
-0.64564
-0.657788
-0.66944
-0.68042
-0.690509
-0.699469
-0.707072
-0.71312
-0.717449
-0.719908
-0.720347
-0.718615
-0.714566
-0.708075
-0.699051
-0.687433
-0.67317
-0.656239
-0.636638
-0.614383
-0.589497
-0.562011
-0.531981
-0.499494
-0.464674
-0.427679
-0.388706
-0.347998
-0.305848
-0.262486
-0.426453
-0.43619
-0.449593
-0.463233
-0.475716
-0.487305
-0.498395
-0.509287
-0.520209
-0.531297
-0.542584
-0.554029
-0.565528
-0.576962
-0.588216
-0.599199
-0.609842
-0.620075
-0.629803
-0.638885
-0.647131
-0.654322
-0.660239
-0.664692
-0.667531
-0.668633
-0.667886
-0.665177
-0.660394
-0.65343
-0.644204
-0.632662
-0.618762
-0.602484
-0.583834
-0.562835
-0.539523
-0.51394
-0.486146
-0.456226
-0.424297
-0.390502
-0.355022
-0.318075
-0.27992
-0.240749
-0.406382
-0.415831
-0.428835
-0.44201
-0.453994
-0.465047
-0.475547
-0.485765
-0.495899
-0.506056
-0.516266
-0.526491
-0.536646
-0.54663
-0.556348
-0.56573
-0.574722
-0.58328
-0.591337
-0.598784
-0.605461
-0.61117
-0.6157
-0.618862
-0.620507
-0.620522
-0.618821
-0.615327
-0.609964
-0.602658
-0.593343
-0.581976
-0.56852
-0.552959
-0.535296
-0.515558
-0.493781
-0.470014
-0.444321
-0.416784
-0.387509
-0.356632
-0.324313
-0.290748
-0.256168
-0.220744
-0.38688
-0.395927
-0.408384
-0.420989
-0.432428
-0.442933
-0.452833
-0.462363
-0.471685
-0.480895
-0.49003
-0.499073
-0.507962
-0.516622
-0.524975
-0.53296
-0.540533
-0.547655
-0.554281
-0.560329
-0.565669
-0.57013
-0.573517
-0.575642
-0.57635
-0.575527
-0.573097
-0.569004
-0.563206
-0.55566
-0.546327
-0.535181
-0.522196
-0.507359
-0.490674
-0.472163
-0.451862
-0.429819
-0.406096
-0.380772
-0.353946
-0.325738
-0.296292
-0.265785
-0.234429
-0.20239
-0.368113
-0.37668
-0.388485
-0.400441
-0.411285
-0.421199
-0.43046
-0.439262
-0.447741
-0.455996
-0.464081
-0.472003
-0.479733
-0.487217
-0.494389
-0.501188
-0.507565
-0.513481
-0.518894
-0.523742
-0.527926
-0.531309
-0.53372
-0.534985
-0.534948
-0.53349
-0.530529
-0.52602
-0.519937
-0.512262
-0.502984
-0.492095
-0.479587
-0.465458
-0.449714
-0.432375
-0.413474
-0.393056
-0.371177
-0.34791
-0.323344
-0.297584
-0.270753
-0.24301
-0.214562
-0.185572
-0.350219
-0.358259
-0.369347
-0.38059
-0.390784
-0.400055
-0.408628
-0.416665
-0.424291
-0.431611
-0.438702
-0.445595
-0.452288
-0.458746
-0.464909
-0.470712
-0.476091
-0.480995
-0.485379
-0.489189
-0.492353
-0.494767
-0.496301
-0.496805
-0.496136
-0.494174
-0.490834
-0.486065
-0.479846
-0.472171
-0.463045
-0.452475
-0.440474
-0.427049
-0.412217
-0.395998
-0.378421
-0.359529
-0.339371
-0.318013
-0.295529
-0.27201
-0.247557
-0.222309
-0.196469
-0.170193
-0.333256
-0.340748
-0.351077
-0.361562
-0.371057
-0.379641
-0.387498
-0.394766
-0.401564
-0.408008
-0.414187
-0.420155
-0.425931
-0.431493
-0.436786
-0.441737
-0.446269
-0.450313
-0.453811
-0.456712
-0.458961
-0.460488
-0.461202
-0.460992
-0.459741
-0.457343
-0.453713
-0.448796
-0.442565
-0.435014
-0.42615
-0.415989
-0.404554
-0.391863
-0.377939
-0.362807
-0.346495
-0.329041
-0.310491
-0.2909
-0.270333
-0.248864
-0.226576
-0.203587
-0.180081
-0.156201
-0.317183
-0.324117
-0.333663
-0.343359
-0.352127
-0.360008
-0.367156
-0.373689
-0.379723
-0.385374
-0.390737
-0.395884
-0.400843
-0.405605
-0.41012
-0.414313
-0.418096
-0.421383
-0.424105
-0.426207
-0.427642
-0.428363
-0.428317
-0.427432
-0.425629
-0.422826
-0.41895
-0.413948
-0.407785
-0.400448
-0.39194
-0.382275
-0.371476
-0.359563
-0.346563
-0.332503
-0.317411
-0.301323
-0.28428
-0.26633
-0.24753
-0.227942
-0.207636
-0.186708
-0.165308
-0.143548
-0.301882
-0.308257
-0.317006
-0.325896
-0.333929
-0.341122
-0.347601
-0.353464
-0.358819
-0.363771
-0.368418
-0.372832
-0.377051
-0.381075
-0.384864
-0.388347
-0.391433
-0.394032
-0.396065
-0.397469
-0.398198
-0.398221
-0.397507
-0.396021
-0.393717
-0.390544
-0.386451
-0.381394
-0.375338
-0.368264
-0.360165
-0.351049
-0.340928
-0.329823
-0.317756
-0.304752
-0.290839
-0.27605
-0.260423
-0.244001
-0.226834
-0.208979
-0.190498
-0.171468
-0.15199
-0.132131
-0.287218
-0.293037
-0.30099
-0.309075
-0.316386
-0.322926
-0.328791
-0.334062
-0.338826
-0.343173
-0.34719
-0.350945
-0.35448
-0.357805
-0.360893
-0.363686
-0.366104
-0.36806
-0.369472
-0.370274
-0.370418
-0.369873
-0.368623
-0.366653
-0.363944
-0.360472
-0.35621
-0.351127
-0.345196
-0.338397
-0.330718
-0.322157
-0.312717
-0.302412
-0.291257
-0.279272
-0.266483
-0.252918
-0.238612
-0.223607
-0.207948
-0.191689
-0.174891
-0.157609
-0.139892
-0.12176
-0.273093
-0.278374
-0.285551
-0.29285
-0.29947
-0.3054
-0.310712
-0.315462
-0.319711
-0.323529
-0.326986
-0.330141
-0.333038
-0.335695
-0.338102
-0.34022
-0.341988
-0.343334
-0.344182
-0.344468
-0.344139
-0.343165
-0.341528
-0.339221
-0.33624
-0.332577
-0.328223
-0.323163
-0.31738
-0.310857
-0.303583
-0.295549
-0.286755