/*--------------------------------*- C++ -*----------------------------------*\
  =========                 |
  \\      /  F ield         | OpenFOAM: The Open Source CFD Toolbox
   \\    /   O peration     | Website:  https://openfoam.org
    \\  /    A nd           | Version:  9
     \\/     M anipulation  |
\*---------------------------------------------------------------------------*/
FoamFile
{
    format      ascii;
    class       volVectorField;
    location    "0.325";
    object      U;
}
// * * * * * * * * * * * * * * * * * * * * * * * * * * * * * * * * * * * * * //

dimensions      [0 1 -1 0 0 0 0];

internalField   nonuniform List<vector> 
900
(
(0.00036114 -0.000360218 0)
(0.000679996 -0.000170243 0)
(3.63465e-05 0.000249278 0)
(-0.00169408 0.000645308 0)
(-0.0043685 0.000954614 0)
(-0.00774797 0.00116687 0)
(-0.0115818 0.00128851 0)
(-0.0156353 0.00133107 0)
(-0.0196974 0.001306 0)
(-0.023582 0.00122306 0)
(-0.0271257 0.00109022 0)
(-0.0301859 0.000914196 0)
(-0.03264 0.000701108 0)
(-0.0343855 0.000457243 0)
(-0.0353419 0.000189745 0)
(-0.0354543 -9.2821e-05 0)
(-0.0346975 -0.000380113 0)
(-0.0330804 -0.000659908 0)
(-0.0306513 -0.000918285 0)
(-0.0275004 -0.00114011 0)
(-0.0237618 -0.0013098 0)
(-0.0196123 -0.00141224 0)
(-0.0152674 -0.00143391 0)
(-0.0109739 -0.00136394 0)
(-0.00699871 -0.00119536 0)
(-0.00361367 -0.000927048 0)
(-0.00107394 -0.000568333 0)
(0.000419952 -0.000149192 0)
(0.000818471 0.00024805 0)
(0.000375796 0.000372306 0)
(0.000188203 -0.000693983 0)
(-0.000516077 0.000539329 0)
(-0.00351342 0.00250544 0)
(-0.00884235 0.00439369 0)
(-0.0162092 0.00592769 0)
(-0.0251538 0.00701839 0)
(-0.0351417 0.00765787 0)
(-0.045632 0.00787477 0)
(-0.0561135 0.00771021 0)
(-0.0661184 0.007207 0)
(-0.0752273 0.00640625 0)
(-0.0830719 0.00534728 0)
(-0.0893358 0.00406946 0)
(-0.0937588 0.00261468 0)
(-0.0961418 0.00102988 0)
(-0.096355 -0.000630759 0)
(-0.0943472 -0.00230467 0)
(-0.0901555 -0.00392082 0)
(-0.083914 -0.00540112 0)
(-0.0758595 -0.00666324 0)
(-0.0663327 -0.00762488 0)
(-0.055773 -0.00820917 0)
(-0.0447059 -0.00835102 0)
(-0.0337217 -0.00800407 0)
(-0.0234438 -0.00714876 0)
(-0.0144865 -0.0058038 0)
(-0.00739426 -0.00404585 0)
(-0.00255634 -0.00204445 0)
(-9.64408e-05 -0.000148215 0)
(0.000271956 0.000826245 0)
(-0.000220166 -8.84988e-05 0)
(-0.00250066 0.0035289 0)
(-0.00834867 0.00825495 0)
(-0.0174191 0.0127519 0)
(-0.0292095 0.0164488 0)
(-0.0431041 0.019108 0)
(-0.0583791 0.0206682 0)
(-0.0742836 0.0211633 0)
(-0.0900925 0.0206709 0)
(-0.10513 0.0192859 0)
(-0.118785 0.0171092 0)
(-0.130515 0.0142438 0)
(-0.139856 0.0107979 0)
(-0.146427 0.00688794 0)
(-0.149942 0.00264449 0)
(-0.150217 -0.00178444 0)
(-0.147184 -0.00623109 0)
(-0.140908 -0.0105086 0)
(-0.131591 -0.0144151 0)
(-0.119581 -0.017741 0)
(-0.105373 -0.0202803 0)
(-0.0895987 -0.021844 0)
(-0.0730078 -0.0222775 0)
(-0.0564345 -0.0214784 0)
(-0.0407528 -0.0194184 0)
(-0.0268152 -0.0161706 0)
(-0.0153686 -0.0119494 0)
(-0.00695128 -0.00716816 0)
(-0.00185353 -0.00255338 0)
(-7.81093e-05 0.000505976 0)
(-0.000634755 0.00163719 0)
(-0.00458154 0.00900474 0)
(-0.013426 0.017433 0)
(-0.0262771 0.0252448 0)
(-0.0423444 0.0316271 0)
(-0.0608475 0.0361996 0)
(-0.0809022 0.0388421 0)
(-0.101595 0.0395886 0)
(-0.12204 0.0385548 0)
(-0.14141 0.0358964 0)
(-0.158946 0.0317882 0)
(-0.173979 0.0264169 0)
(-0.185932 0.0199826 0)
(-0.194333 0.0127037 0)
(-0.198827 0.00482405 0)
(-0.199189 -0.00338159 0)
(-0.19534 -0.011605 0)
(-0.187357 -0.0195063 0)
(-0.175492 -0.0267215 0)
(-0.160171 -0.0328762 0)
(-0.142002 -0.0376047 0)
(-0.121756 -0.0405753 0)
(-0.100348 -0.0415198 0)
(-0.0787983 -0.0402671 0)
(-0.0581762 -0.0367802 0)
(-0.0395316 -0.0311998 0)
(-0.0237978 -0.0239 0)
(-0.0116872 -0.0155553 0)
(-0.00374879 -0.00725129 0)
(-0.00044393 -0.000814086 0)
(-0.00100891 0.0044563 0)
(-0.0065651 0.0169633 0)
(-0.018376 0.0299806 0)
(-0.0349528 0.0416772 0)
(-0.0551678 0.0510944 0)
(-0.0780525 0.0577583 0)
(-0.102564 0.0615116 0)
(-0.127648 0.0623988 0)
(-0.152289 0.0605803 0)
(-0.17554 0.0562804 0)
(-0.196536 0.0497582 0)
(-0.21451 0.0412972 0)
(-0.2288 0.031205 0)
(-0.238864 0.0198201 0)
(-0.244294 0.00751975 0)
(-0.244826 -0.0052728 0)
(-0.240362 -0.0180852 0)
(-0.230985 -0.0303997 0)
(-0.21697 -0.0416639 0)
(-0.198795 -0.0513116 0)
(-0.177141 -0.058791 0)
(-0.152885 -0.0636025 0)
(-0.12707 -0.0653429 0)
(-0.100867 -0.0637549 0)
(-0.0755219 -0.0587812 0)
(-0.0522742 -0.0506223 0)
(-0.0322603 -0.0398016 0)
(-0.0164064 -0.0272303 0)
(-0.00558381 -0.0142959 0)
(-0.00077412 -0.00313166 0)
(-0.0013408 0.00828061 0)
(-0.0084095 0.0273143 0)
(-0.0230802 0.045829 0)
(-0.0432742 0.0619722 0)
(-0.0675064 0.0747348 0)
(-0.0946007 0.0836122 0)
(-0.123351 0.0884493 0)
(-0.152566 0.0893244 0)
(-0.181122 0.0864586 0)
(-0.207975 0.0801559 0)
(-0.232177 0.0707703 0)
(-0.252888 0.0586922 0)
(-0.26938 0.044348 0)
(-0.281057 0.0282074 0)
(-0.287461 0.010794 0)
(-0.288294 -0.00730648 0)
(-0.28343 -0.0254419 0)
(-0.272938 -0.0428987 0)
(-0.257098 -0.0589163 0)
(-0.236408 -0.0727136 0)
(-0.211599 -0.0835276 0)
(-0.183619 -0.0906637 0)
(-0.153616 -0.093556 0)
(-0.122902 -0.091834 0)
(-0.0928918 -0.0853941 0)
(-0.0650309 -0.0744719 0)
(-0.0406872 -0.0597125 0)
(-0.021043 -0.0422289 0)
(-0.00733234 -0.0236601 0)
(-0.00106765 -0.0063768 0)
(-0.0016393 0.0130259 0)
(-0.0101253 0.0399341 0)
(-0.0275289 0.064858 0)
(-0.0512114 0.0860118 0)
(-0.0793289 0.102419 0)
(-0.110488 0.113609 0)
(-0.143312 0.119478 0)
(-0.176479 0.12017 0)
(-0.208764 0.115991 0)
(-0.239044 0.107339 0)
(-0.266307 0.0946755 0)
(-0.289653 0.0785056 0)
(-0.308309 0.059381 0)
(-0.321629 0.037909 0)
(-0.329113 0.014765 0)
(-0.330422 -0.00929569 0)
(-0.325394 -0.0334331 0)
(-0.314065 -0.0567263 0)
(-0.296695 -0.0781908 0)
(-0.273778 -0.0968103 0)
(-0.246064 -0.111584 0)
(-0.214551 -0.121592 0)
(-0.180475 -0.126068 0)
(-0.145279 -0.124489 0)
(-0.110559 -0.116667 0)
(-0.0779863 -0.102831 0)
(-0.0491974 -0.0837125 0)
(-0.0256714 -0.0605891 0)
(-0.00903711 -0.0353204 0)
(-0.00133887 -0.0104967 0)
(-0.00191466 0.0186266 0)
(-0.0117395 0.0547045 0)
(-0.0317562 0.0869368 0)
(-0.058798 0.113663 0)
(-0.0906698 0.13401 0)
(-0.125757 0.147604 0)
(-0.162513 0.154444 0)
(-0.199487 0.15478 0)
(-0.235361 0.149029 0)
(-0.268946 0.137705 0)
(-0.299179 0.121387 0)
(-0.325119 0.100703 0)
(-0.345954 0.076333 0)
(-0.361 0.0490223 0)
(-0.369717 0.0195977 0)
(-0.371718 -0.0110168 0)
(-0.366791 -0.0417915 0)
(-0.354924 -0.0715929 0)
(-0.336329 -0.0992014 0)
(-0.311471 -0.123347 0)
(-0.281087 -0.142762 0)
(-0.246202 -0.156263 0)
(-0.208123 -0.16284 0)
(-0.168421 -0.161765 0)
(-0.128881 -0.152708 0)
(-0.0914287 -0.135843 0)
(-0.0580059 -0.111938 0)
(-0.0304323 -0.0824045 0)
(-0.0107684 -0.0493072 0)
(-0.00160622 -0.0154774 0)
(-0.0021752 0.0250354 0)
(-0.013279 0.0715273 0)
(-0.0358052 0.111945 0)
(-0.0660841 0.144799 0)
(-0.101579 0.169375 0)
(-0.140456 0.185461 0)
(-0.180999 0.193208 0)
(-0.221636 0.193019 0)
(-0.260963 0.185453 0)
(-0.29774 0.171162 0)
(-0.330865 0.150855 0)
(-0.359372 0.125289 0)
(-0.382422 0.0952719 0)
(-0.399302 0.0616831 0)
(-0.40943 0.0254936 0)
(-0.41237 -0.0122113 0)
(-0.407847 -0.0502178 0)
(-0.395779 -0.0871812 0)
(-0.376307 -0.12164 0)
(-0.349832 -0.152053 0)
(-0.317049 -0.176859 0)
(-0.278979 -0.194565 0)
(-0.23698 -0.203861 0)
(-0.192738 -0.203748 0)
(-0.148238 -0.193684 0)
(-0.105684 -0.173719 0)
(-0.0673658 -0.144605 0)
(-0.0354912 -0.107853 0)
(-0.0126039 -0.0657281 0)
(-0.00188791 -0.0213481 0)
(-0.00242674 0.0322195 0)
(-0.0147652 0.0903241 0)
(-0.0397137 0.139777 0)
(-0.0731148 0.179293 0)
(-0.112097 0.208376 0)
(-0.154611 0.227032 0)
(-0.198774 0.235621 0)
(-0.2429 0.234742 0)
(-0.285516 0.225133 0)
(-0.32534 0.207609 0)
(-0.361252 0.183024 0)
(-0.392275 0.152266 0)
(-0.417559 0.116271 0)
(-0.43637 0.07604 0)
(-0.448093 0.0326763 0)
(-0.452237 -0.0125889 0)
(-0.448455 -0.0583713 0)
(-0.436576 -0.103123 0)
(-0.41664 -0.145142 0)
(-0.38895 -0.182602 0)
(-0.354121 -0.213618 0)
(-0.31313 -0.236341 0)
(-0.267353 -0.249094 0)
(-0.218577 -0.250525 0)
(-0.168982 -0.239791 0)
(-0.121076 -0.216732 0)
(-0.0775353 -0.182013 0)
(-0.0410178 -0.137204 0)
(-0.0146212 -0.0847734 0)
(-0.00220098 -0.028181 0)
(-0.00267324 0.0401563 0)
(-0.016214 0.111033 0)
(-0.0435113 0.170336 0)
(-0.0799239 0.217022 0)
(-0.122247 0.250863 0)
(-0.168214 0.272143 0)
(-0.215788 0.281492 0)
(-0.263175 0.279756 0)
(-0.308848 0.26789 0)
(-0.351505 0.246897 0)
(-0.390029 0.217792 0)
(-0.423453 0.1816 0)
(-0.450933 0.139373 0)
(-0.471733 0.0922259 0)
(-0.485211 0.0413707 0)
(-0.490826 -0.0118375 0)
(-0.48815 -0.065867 0)
(-0.476904 -0.118986 0)
(-0.457001 -0.169258 0)
(-0.428605 -0.214568 0)
(-0.392205 -0.25268 0)
(-0.348685 -0.28134 0)
(-0.299391 -0.298427 0)
(-0.246176 -0.302139 0)
(-0.191402 -0.291221 0)
(-0.137893 -0.265189 0)
(-0.0887594 -0.22453 0)
(-0.0471769 -0.170817 0)
(-0.0168954 -0.106716 0)
(-0.00256164 -0.0360895 0)
(-0.00291769 0.048831 0)
(-0.0176389 0.133604 0)
(-0.0472232 0.203534 0)
(-0.0865368 0.257852 0)
(-0.132033 0.296657 0)
(-0.18123 0.320577 0)
(-0.231937 0.330573 0)
(-0.282272 0.327793 0)
(-0.330672 0.313458 0)
(-0.37584 0.288786 0)
(-0.416689 0.254969 0)
(-0.452289 0.213171 0)
(-0.481831 0.164555 0)
(-0.504596 0.110325 0)
(-0.519933 0.0517775 0)
(-0.527258 -0.00963984 0)
(-0.526063 -0.0722815 0)
(-0.515947 -0.134261 0)
(-0.496667 -0.193431 0)
(-0.468207 -0.247392 0)
(-0.430875 -0.293538 0)
(-0.385395 -0.329162 0)
(-0.333022 -0.351617 0)
(-0.275613 -0.358537 0)
(-0.215682 -0.348117 0)
(-0.156368 -0.319404 0)
(-0.101258 -0.272579 0)
(-0.0541249 -0.209133 0)
(-0.0195001 -0.131907 0)
(-0.00298595 -0.0452262 0)
(-0.00316314 0.0582352 0)
(-0.0190545 0.158 0)
(-0.0508775 0.239288 0)
(-0.0929803 0.30164 0)
(-0.141456 0.345545 0)
(-0.193599 0.372049 0)
(-0.247074 0.382522 0)
(-0.299925 0.378478 0)
(-0.350584 0.361448 0)
(-0.397789 0.332905 0)
(-0.440518 0.294234 0)
(-0.477914 0.246738 0)
(-0.509238 0.19168 0)
(-0.533817 0.13033 0)
(-0.551019 0.0640385 0)
(-0.560234 -0.00569945 0)
(-0.560878 -0.0771681 0)
(-0.552425 -0.148371 0)
(-0.534451 -0.216988 0)
(-0.506719 -0.280353 0)
(-0.46929 -0.33549 0)
(-0.422655 -0.379199 0)
(-0.367881 -0.408224 0)
(-0.306751 -0.419505 0)
(-0.241865 -0.410516 0)
(-0.176655 -0.379651 0)
(-0.115213 -0.326606 0)
(-0.0620078 -0.252658 0)
(-0.0225086 -0.160774 0)
(-0.00349071 -0.0557831 0)
(-0.00341414 0.068369 0)
(-0.0204824 0.184201 0)
(-0.0545166 0.277522 0)
(-0.0992986 0.348224 0)
(-0.150526 0.397263 0)
(-0.205256 0.426194 0)
(-0.261015 0.436883 0)
(-0.3158 0.431286 0)
(-0.368068 0.411306 0)
(-0.416637 0.378705 0)
(-0.460592 0.335081 0)
(-0.499198 0.281882 0)
(-0.531826 0.220452 0)
(-0.557893 0.152103 0)
(-0.576818 0.0781943 0)
(-0.587995 0.000223508 0)
(-0.590785 -0.0800829 0)
(-0.584538 -0.16068 0)
(-0.568634 -0.239128 0)
(-0.542577 -0.312544 0)
(-0.506116 -0.377599 0)
(-0.459411 -0.430576 0)
(-0.403234 -0.467536 0)
(-0.33917 -0.484584 0)
(-0.269801 -0.478275 0)
(-0.198794 -0.446104 0)
(-0.130762 -0.387039 0)
(-0.0709601 -0.301944 0)
(-0.0259953 -0.193808 0)
(-0.00409441 -0.0679913 0)
(-0.0036786 0.0792465 0)
(-0.0219595 0.212212 0)
(-0.0582136 0.318176 0)
(-0.105573 0.397427 0)
(-0.159284 0.451487 0)
(-0.216146 0.482536 0)
(-0.273557 0.493045 0)
(-0.329497 0.485506 0)
(-0.382495 0.462262 0)
(-0.431505 0.425408 0)
(-0.475775 0.376775 0)
(-0.514743 0.317955 0)
(-0.547947 0.25036 0)
(-0.574943 0.175312 0)
(-0.595249 0.0941342 0)
(-0.608303 0.00826628 0)
(-0.613444 -0.0806228 0)
(-0.609913 -0.170517 0)
(-0.596898 -0.25894 0)
(-0.57361 -0.342863 0)
(-0.539423 -0.418652 0)
(-0.494067 -0.482086 0)
(-0.437876 -0.528481 0)
(-0.37208 -0.552973 0)
(-0.299085 -0.550965 0)
(-0.222683 -0.518751 0)
(-0.147978 -0.454232 0)
(-0.0811033 -0.357563 0)
(-0.0300396 -0.231567 0)
(-0.00481853 -0.082124 0)
(-0.00397049 0.0909066 0)
(-0.0235488 0.242085 0)
(-0.0620924 0.361221 0)
(-0.111949 0.449058 0)
(-0.167827 0.507818 0)
(-0.226243 0.540461 0)
(-0.28448 0.550205 0)
(-0.340552 0.540192 0)
(-0.393121 0.513283 0)
(-0.441343 0.471954 0)
(-0.484699 0.418291 0)
(-0.52287 0.354028 0)
(-0.555619 0.280628 0)
(-0.582701 0.199386 0)
(-0.60379 0.11154 0)
(-0.618423 0.0184092 0)
(-0.625958 -0.0784766 0)
(-0.625571 -0.177224 0)
(-0.616269 -0.275425 0)
(-0.596963 -0.370012 0)
(-0.566599 -0.457137 0)
(-0.524372 -0.532126 0)
(-0.470024 -0.589538 0)
(-0.404222 -0.623413 0)
(-0.328978 -0.627757 0)
(-0.248019 -0.597287 0)
(-0.16685 -0.528387 0)
(-0.0925451 -0.420062 0)
(-0.0347293 -0.274661 0)
(-0.00568962 -0.0984997 0)
(-0.00431405 0.10343 0)
(-0.0253554 0.273949 0)
(-0.0663553 0.406681 0)
(-0.118665 0.502911 0)
(-0.176331 0.56576 0)
(-0.235557 0.599178 0)
(-0.29355 0.607317 0)
(-0.34842 0.594105 0)
(-0.399054 0.563011 0)
(-0.444896 0.516945 0)
(-0.485744 0.458264 0)
(-0.521596 0.388839 0)
(-0.552511 0.310159 0)
(-0.578509 0.223456 0)
(-0.599481 0.129833 0)
(-0.615123 0.0304171 0)
(-0.62488 -0.0734847 0)
(-0.627912 -0.18021 0)
(-0.623091 -0.287546 0)
(-0.609042 -0.392526 0)
(-0.584259 -0.491236 0)
(-0.547313 -0.57866 0)
(-0.497186 -0.648643 0)
(-0.433742 -0.694057 0)
(-0.358302 -0.707265 0)
(-0.274237 -0.680971 0)
(-0.187257 -0.609449 0)
(-0.105378 -0.489918 0)
(-0.0401691 -0.323746 0)
(-0.00674266 -0.117491 0)
(-0.00475045 0.116968 0)
(-0.0275486 0.308059 0)
(-0.0713181 0.454663 0)
(-0.126084 0.558768 0)
(-0.185062 0.624685 0)
(-0.244128 0.657661 0)
(-0.300474 0.663019 0)
(-0.35242 0.645642 0)
(-0.399193 0.609705 0)
(-0.440639 0.558592 0)
(-0.476973 0.494942 0)
(-0.50859 0.42075 0)
(-0.535918 0.3375 0)
(-0.559306 0.246319 0)
(-0.578926 0.148124 0)
(-0.594701 0.043784 0)
(-0.60623 -0.0657044 0)
(-0.612736 -0.179021 0)
(-0.613025 -0.294295 0)
(-0.60549 -0.408836 0)
(-0.588186 -0.518856 0)
(-0.559006 -0.619192 0)
(-0.516027 -0.703112 0)
(-0.458039 -0.762331 0)
(-0.385302 -0.787367 0)
(-0.300408 -0.768439 0)
(-0.208922 -0.696961 0)
(-0.119679 -0.567459 0)
(-0.0464935 -0.379517 0)
(-0.00802722 -0.139539 0)
(-0.00534921 0.131787 0)
(-0.0303974 0.344853 0)
(-0.0774549 0.50539 0)
(-0.134721 0.61637 0)
(-0.19437 0.683771 0)
(-0.251964 0.714559 0)
(-0.304812 0.715543 0)
(-0.35161 0.692753 0)
(-0.392092 0.651163 0)
(-0.426648 0.594662 0)
(-0.456018 0.526156 0)
(-0.481082 0.447731 0)
(-0.502701 0.360828 0)
(-0.521605 0.266422 0)
(-0.538306 0.165192 0)
(-0.553013 0.0576928 0)
(-0.565555 -0.0554694 0)
(-0.575304 -0.173425 0)
(-0.5811 -0.29479 0)
(-0.581204 -0.417353 0)
(-0.573302 -0.5377 0)
(-0.554621 -0.650798 0)
(-0.522229 -0.749598 0)
(-0.47359 -0.824802 0)
(-0.407467 -0.865002 0)
(-0.325104 -0.857469 0)
(-0.231342 -0.789857 0)
(-0.135507 -0.652755 0)
(-0.0538906 -0.442696 0)
(-0.00961902 -0.165179 0)
(-0.00622855 0.148339 0)
(-0.034323 0.385049 0)
(-0.085451 0.559221 0)
(-0.145252 0.675367 0)
(-0.204615 0.741878 0)
(-0.2589 0.768051 0)
(-0.30577 0.762577 0)
(-0.344555 0.732831 0)
(-0.37572 0.684659 0)
(-0.400369 0.622443 0)
(-0.419886 0.549311 0)
(-0.435707 0.467375 0)
(-0.449175 0.377974 0)
(-0.461436 0.281883 0)
(-0.473371 0.179497 0)
(-0.485519 0.0710061 0)
(-0.498003 -0.0434302 0)
(-0.510438 -0.163481 0)
(-0.52182 -0.288385 0)
(-0.530419 -0.416611 0)
(-0.533699 -0.545403 0)
(-0.528325 -0.67022 0)
(-0.510354 -0.784101 0)
(-0.475735 -0.877083 0)
(-0.421283 -0.935944 0)
(-0.346178 -0.944677 0)
(-0.253672 -0.886182 0)
(-0.152888 -0.74545 0)
(-0.0626424 -0.514017 0)
(-0.0116419 -0.195088 0)
(-0.00759269 0.167376 0)
(-0.0399825 0.429749 0)
(-0.0962575 0.616634 0)
(-0.158455 0.735162 0)
(-0.21598 0.797334 0)
(-0.264288 0.815628 0)
(-0.301815 0.801077 0)
(-0.328904 0.762586 0)
(-0.347043 0.706876 0)
(-0.358241 0.638743 0)
(-0.36463 0.561425 0)
(-0.368251 0.476964 0)
(-0.370936 0.386512 0)
(-0.37424 0.290583 0)
(-0.379407 0.189249 0)
(-0.387315 0.0823098 0)
(-0.398422 -0.0305538 0)
(-0.412662 -0.149599 0)
(-0.429318 -0.274783 0)
(-0.446854 -0.405429 0)
(-0.462735 -0.539729 0)
(-0.473293 -0.674059 0)
(-0.473726 -0.802094 0)
(-0.458428 -0.913806 0)
(-0.421898 -0.994604 0)
(-0.360438 -1.02516 0)
(-0.274504 -0.982679 0)
(-0.171774 -0.844486 0)
(-0.0731898 -0.594191 0)
(-0.0143098 -0.230179 0)
(-0.00980124 0.190141 0)
(-0.0483954 0.480565 0)
(-0.111113 0.678108 0)
(-0.175014 0.794607 0)
(-0.228034 0.847559 0)
(-0.266386 0.853744 0)
(-0.28997 0.827023 0)
(-0.300676 0.777909 0)
(-0.301359 0.713877 0)
(-0.29511 0.63994 0)
(-0.284874 0.559255 0)
(-0.273279 0.473634 0)
(-0.262591 0.383932 0)
(-0.254708 0.290337 0)
(-0.251172 0.192567 0)
(-0.253161 0.0900291 0)
(-0.261458 -0.0180628 0)
(-0.276366 -0.132548 0)
(-0.297572 -0.254137 0)
(-0.323937 -0.383112 0)
(-0.353224 -0.518853 0)
(-0.381791 -0.659087 0)
(-0.404347 -0.798794 0)
(-0.413956 -0.928748 0)
(-0.402654 -1.03389 0)
(-0.363105 -1.09206 0)
(-0.291444 -1.07421 0)
(-0.191889 -0.947642 0)
(-0.0862201 -0.683819 0)
(-0.0180023 -0.27176 0)
(-0.0134961 0.218702 0)
(-0.0611207 0.539703 0)
(-0.13143 0.743754 0)
(-0.19496 0.851379 0)
(-0.238796 0.888425 0)
(-0.261205 0.877328 0)
(-0.264612 0.835127 0)
(-0.253125 0.773785 0)
(-0.231301 0.701176 0)
(-0.203412 0.622168 0)
(-0.173163 0.53954 0)
(-0.143653 0.454655 0)
(-0.117428 0.367937 0)
(-0.0965777 0.279177 0)
(-0.0828068 0.18773 0)
(-0.0774862 0.0926381 0)
(-0.08166 -0.00729087 0)
(-0.0959955 -0.113407 0)
(-0.12066 -0.227111 0)
(-0.155099 -0.349644 0)
(-0.197706 -0.4817 0)
(-0.245359 -0.622708 0)
(-0.292886 -0.769643 0)
(-0.332621 -0.915185 0)
(-0.354446 -1.04523 0)
(-0.346954 -1.13615 0)
(-0.300309 -1.15294 0)
(-0.212334 -1.05072 0)
(-0.102743 -0.783142 0)
(-0.0233942 -0.321834 0)
(-0.0198164 0.256496 0)
(-0.0804324 0.609844 0)
(-0.158267 0.81241 0)
(-0.21631 0.900815 0)
(-0.242831 0.913275 0)
(-0.240436 0.879168 0)
(-0.215505 0.818602 0)
(-0.175043 0.744359 0)
(-0.125472 0.664016 0)
(-0.0721254 0.581723 0)
(-0.0192176 0.499466 0)
(0.0299764 0.417904 0)
(0.0729034 0.33689 0)
(0.107536 0.255769 0)
(0.132218 0.173546 0)
(0.145559 0.0889693 0)
(0.146383 0.000551486 0)
(0.133731 -0.0934221 0)
(0.106948 -0.194877 0)
(0.0658694 -0.305868 0)
(0.0111658 -0.42834 0)
(-0.0551136 -0.563575 0)
(-0.128756 -0.711092 0)
(-0.202427 -0.866651 0)
(-0.264864 -1.01904 0)
(-0.300937 -1.14559 0)
(-0.293597 -1.20725 0)
(-0.230554 -1.14613 0)
(-0.123984 -0.89133 0)
(-0.031627 -0.383528 0)
(-0.0306583 0.309128 0)
(-0.109157 0.693359 0)
(-0.190547 0.879686 0)
(-0.231891 0.933976 0)
(-0.227539 0.911644 0)
(-0.187907 0.849409 0)
(-0.124829 0.769289 0)
(-0.0484797 0.683481 0)
(0.0331746 0.598124 0)
(0.114289 0.515872 0)
(0.190709 0.437456 0)
(0.259491 0.362592 0)
(0.318498 0.290462 0)
(0.366103 0.219966 0)
(0.400972 0.149826 0)
(0.421919 0.078607 0)
(0.427813 0.00468806 0)
(0.417543 -0.0737998 0)
(0.390042 -0.159046 0)
(0.344405 -0.253613 0)
(0.280161 -0.360398 0)
(0.19779 -0.482361 0)
(0.0996092 -0.621743 0)
(-0.00886097 -0.778301 0)
(-0.117131 -0.945842 0)
(-0.208092 -1.10624 0)
(-0.257657 -1.22074 0)
(-0.239848 -1.22063 0)
(-0.150457 -1.00473 0)
(-0.0443362 -0.461492 0)
(-0.0484999 0.385574 0)
(-0.148756 0.789766 0)
(-0.219804 0.933959 0)
(-0.222299 0.934713 0)
(-0.166332 0.868064 0)
(-0.0740745 0.77579 0)
(0.0367561 0.678766 0)
(0.153753 0.586191 0)
(0.268698 0.501248 0)
(0.376436 0.424278 0)
(0.473835 0.354401 0)
(0.558994 0.290277 0)
(0.630711 0.23045 0)
(0.688131 0.17347 0)
(0.730521 0.117907 0)
(0.757122 0.0623066 0)
(0.76704 0.00510999 0)
(0.75919 -0.0554581 0)
(0.732251 -0.121526 0)
(0.684695 -0.195737 0)
(0.614908 -0.281408 0)
(0.521536 -0.382588 0)
(0.404219 -0.503803 0)
(0.265037 -0.648987 0)
(0.110949 -0.818608 0)
(-0.0426182 -1.00326 0)
(-0.167708 -1.17157 0)
(-0.22371 -1.25204 0)
(-0.178372 -1.11327 0)
(-0.0626543 -0.562408 0)
(-0.073778 0.500878 0)
(-0.191344 0.888791 0)
(-0.216112 0.947764 0)
(-0.141312 0.874855 0)
(-0.00734225 0.76125 0)
(0.151241 0.645244 0)
(0.313961 0.540917 0)
(0.469482 0.451383 0)
(0.611995 0.375499 0)
(0.738913 0.31089 0)
(0.849335 0.255092 0)
(0.943151 0.205921 0)
(1.02054 0.16153 0)
(1.08169 0.120356 0)
(1.12665 0.0810303 0)
(1.15522 0.0422793 0)
(1.16689 0.00281058 0)
(1.16077 -0.0388127 0)
(1.1355 -0.0843354 0)
(1.08918 -0.136017 0)
(1.01933 -0.196907 0)
(0.922915 -0.271182 0)
(0.796678 -0.364455 0)
(0.63809 -0.483737 0)
(0.447662 -0.636155 0)
(0.233691 -0.82413 0)
(0.0200818 -1.03273 0)
(-0.144528 -1.20425 0)
(-0.189761 -1.19325 0)
(-0.0825369 -0.696239 0)
(-0.0911728 0.671511 0)
(-0.193246 0.950096 0)
(-0.0946226 0.864391 0)
(0.110662 0.712121 0)
(0.342013 0.568681 0)
(0.565255 0.450573 0)
(0.76749 0.358206 0)
(0.944627 0.286786 0)
(1.09682 0.230962 0)
(1.22591 0.186372 0)
(1.33409 0.149774 0)
(1.42336 0.118806 0)
(1.49532 0.0917385 0)
(1.55116 0.0672679 0)
(1.59163 0.0443575 0)
(1.61706 0.0221138 0)
(1.62733 -0.000319192 0)
(1.62183 -0.0238656 0)
(1.5994 -0.0496514 0)
(1.55815 -0.0791784 0)
(1.49527 -0.114593 0)
(1.40681 -0.159104 0)
(1.28735 -0.217614 0)
(1.13 -0.297584 0)
(0.9274 -0.409811 0)
(0.675252 -0.567451 0)
(0.380182 -0.778635 0)
(0.0770707 -1.02352 0)
(-0.128781 -1.18747 0)
(-0.0775237 -0.861615 0)
(0.0101975 0.815317 0)
(0.0266311 0.852602 0)
(0.359465 0.615926 0)
(0.722707 0.430591 0)
(1.02418 0.304794 0)
(1.26709 0.219824 0)
(1.46295 0.162425 0)
(1.62073 0.122988 0)
(1.74807 0.0949431 0)
(1.85108 0.0741361 0)
(1.93429 0.0579989 0)
(2.00095 0.0449183 0)
(2.05335 0.0338482 0)
(2.09305 0.0240774 0)
(2.12107 0.0150892 0)
(2.13795 0.00647057 0)
(2.14381 -0.00215278 0)
(2.13834 -0.0111748 0)
(2.12073 -0.0210714 0)
(2.08956 -0.0324944 0)
(2.04249 -0.0464228 0)
(1.97594 -0.0644352 0)
(1.88437 -0.0892246 0)
(1.75929 -0.125588 0)
(1.58814 -0.182233 0)
(1.3537 -0.274527 0)
(1.03298 -0.426829 0)
(0.607398 -0.667132 0)
(0.174444 -0.96787 0)
(0.077073 -0.930328 0)
(0.886962 0.431535 0)
(1.15962 0.378517 0)
(1.62532 0.230007 0)
(1.97395 0.136114 0)
(2.18834 0.0829057 0)
(2.32886 0.0522618 0)
(2.42821 0.0343898 0)
(2.50116 0.0237086 0)
(2.55617 0.0170098 0)
(2.5985 0.0125339 0)
(2.6314 0.00933367 0)
(2.6569 0.00688938 0)
(2.67629 0.00490447 0)
(2.69042 0.00319998 0)
(2.6998 0.00165898 0)
(2.70473 0.000196057 0)
(2.7053 -0.00126115 0)
(2.70141 -0.00278763 0)
(2.69275 -0.00447236 0)
(2.67872 -0.00644168 0)
(2.65833 -0.00889593 0)
(2.62995 -0.0121844 0)
(2.59083 -0.0169694 0)
(2.53623 -0.0245981 0)
(2.45759 -0.0379429 0)
(2.339 -0.0632077 0)
(2.1451 -0.113457 0)
(1.79812 -0.213469 0)
(1.28212 -0.383519 0)
(0.943183 -0.45238 0)
)
;

boundaryField
{
    movingWall
    {
        type            fixedValue;
        value           uniform (3 0 0);
    }
    fixedWalls
    {
        type            noSlip;
    }
    frontAndBack
    {
        type            empty;
    }
}


// ************************************************************************* //
