/*--------------------------------*- C++ -*----------------------------------*\
  =========                 |
  \\      /  F ield         | OpenFOAM: The Open Source CFD Toolbox
   \\    /   O peration     | Website:  https://openfoam.org
    \\  /    A nd           | Version:  9
     \\/     M anipulation  |
\*---------------------------------------------------------------------------*/
FoamFile
{
    format      ascii;
    class       volScalarField;
    location    "75";
    object      p;
}
// * * * * * * * * * * * * * * * * * * * * * * * * * * * * * * * * * * * * * //

dimensions      [0 2 -2 0 0 0 0];

internalField   nonuniform List<scalar> 
112055
(
0.0190993
0.0039468
-0.00773075
-0.0109597
-0.00502584
0.00746897
0.0184754
-0.0107713
-0.004634
0.0185767
0.00398553
0.0175809
-0.00438748
0.0175728
0.0287157
-0.000952009
-0.0585841
0.0227746
0.00398384
-0.00423526
-0.00111396
-0.000899811
0.00400495
-0.00145927
6.72565e-05
-0.00578447
0.0412309
0.0055512
0.00742511
-0.00111356
0.00865121
-0.01711
-0.00163146
-0.0466457
-0.00466343
-0.00117905
-0.00431868
0.0639531
-0.0120088
-0.000164744
-0.00185853
-0.0111105
-0.000816456
-0.00763196
0.0233264
-0.00267263
-0.0463562
-0.00127664
-0.00219192
-0.010882
-0.0105111
-0.0170403
-0.00104041
-0.011813
-0.00520255
0.0186084
0.000211732
-0.00188157
-0.0112878
-0.00271176
0.0151257
-0.00145447
-4.69502e-05
-4.36301e-05
0.0115583
-0.0050732
0.0664283
-5.20277e-05
0.00214026
-0.00336885
-0.00178188
-0.0593552
-0.0013333
0.0378301
-0.0390292
-0.0369167
0.00369061
0.0189473
-0.0148732
-0.0115206
3.15223e-05
-0.0403703
-0.0103951
-0.00601308
-0.000931873
0.00119589
-0.00527411
-0.00516619
-0.0265505
-0.00508236
-0.000482829
-0.0012016
-0.00563396
-0.00486503
-0.0386021
0.00364941
-0.0191068
0.0283684
0.00864758
0.000265349
-0.00435652
-0.000978962
-0.00155893
0.00493182
-0.0435417
-0.0578401
0.0115438
1.38859e-05
-0.000683269
0.00117466
-0.0591692
-0.0315366
-0.00516828
0.00647167
0.0021487
0.0216306
0.0116564
-0.00121761
-0.0267417
-0.00476208
0.00592917
0.00556407
0.0185231
4.43049e-05
-0.0018453
0.00484102
-0.0581048
-0.000741272
-0.00607848
-0.0427657
5.09644e-05
0.0409423
-1.46307e-05
0.0531499
-0.0123067
-0.000164779
-0.00173348
0.00121866
-0.00741672
-0.000461594
0.00112638
-0.000450056
-0.0191728
0.012148
1.89621e-05
-0.0038074
0.0207485
-0.000141562
-0.00122905
-0.000756766
-0.0585596
-0.000907185
0.0161394
-0.00103235
-0.00736514
0.00656146
0.00947741
0.0065505
-0.0106009
-0.00421828
-0.00514626
5.72036e-05
-0.00477107
-0.00436727
-0.00229382
-0.00142557
0.00958158
-0.0174608
-0.00274829
0.0115942
0.00823641
0.00653797
-0.00475964
0.0119665
-0.0177662
-0.00479007
-0.00219841
-0.0057159
-0.00575109
-0.00185989
-0.0175494
-0.00183663
-0.00131104
0.00868101
-0.0136546
0.0164407
7.52994e-05
-0.00231975
-0.0197318
-0.00207514
0.00138621
-0.00160918
-0.00502077
0.00595492
-0.00670036
-5.21474e-05
-0.0160366
-0.0319024
-0.00258097
0.0094379
0.0630923
0.0130392
0.0152273
4.06158e-05
-0.000400137
0.0213695
0.0663361
0.0103019
-0.0579461
-0.0015971
5.27241e-05
-0.00164286
0.0203545
-0.00159574
-0.0187641
0.0104352
0.00834485
-0.00665264
-0.00376046
-0.0112088
-0.000152026
-0.0224935
-0.00506248
-0.00445679
-0.0332776
-0.00277988
-0.000969249
0.00937984
0.00341152
-0.00170097
-0.00115002
-0.0038042
-0.0134899
0.00456918
-0.0236063
-0.00010422
-5.65509e-05
-0.0011703
-0.0662255
0.0987078
6.64807e-05
-0.0114738
-0.00415286
7.4565e-05
-0.00288103
-0.0235388
-0.0150736
-0.0121835
-6.43019e-05
-0.0110618
-0.00231396
-0.00183271
-0.0426533
-0.00496938
-0.0157291
-0.000781025
0.00134348
-0.00610614
-0.0325815
-0.00155713
-0.0335689
0.0217748
-0.00149334
0.0168154
0.0534666
-0.00197618
-0.00040522
-0.00565796
0.0137484
-4.69044e-05
-0.00232891
-0.00886085
-0.00256131
-0.016071
-0.00391322
-0.0026742
-0.0390945
-0.0621046
-0.0612475
-0.0424585
-0.000675216
0.00422505
0.0129838
0.00779341
0.00535485
-0.00593777
0.00513428
-0.00149313
-0.00076908
0.0140399
-0.0056784
-0.000147456
0.00516103
-0.00326156
0.00460717
0.005332
0.0105483
-0.00483937
-0.00236217
-0.000473679
0.0044792
0.0086891
0.00922056
0.00493261
-0.0101346
-5.7086e-06
-0.00130253
-0.00412343
-0.00388679
-0.000163754
-0.00429371
0.00229662
-0.00203514
8.46257e-05
-0.015778
-0.0230553
-0.0141568
-0.000327588
-0.0032125
-0.00233737
-0.00289109
0.0542149
0.0302519
-0.00480135
-0.0146498
-0.00772314
-0.000487296
-0.00073908
0.00427526
-0.00170082
0.00338791
-3.81719e-05
0.0114844
-0.0093494
-0.0113848
-0.000996342
-0.00166951
-0.000843909
0.0024063
-0.0203811
0.0630716
-0.0576728
2.54455e-05
-1.87608e-05
0.000142598
-0.0123739
-0.000148754
-0.0125271
0.0115104
-3.39875e-06
0.0264486
0.0149891
0.0168823
-0.0521057
-0.00613533
-0.00613309
0.0376003
-0.00184619
-0.00158379
0.0174004
-0.0415798
-0.00157132
-0.0112956
0.107792
-6.52082e-05
-0.0661415
-0.020897
-0.00776932
0.00437692
-0.006523
0.0231244
0.0235637
0.0105809
0.0166271
0.139748
-6.40769e-05
-6.28745e-05
-0.0060877
-0.00603167
-0.00529548
-0.00207503
0.007492
0.0174163
-4.77019e-05
-0.00425146
-6.43056e-05
-6.20213e-05
-0.0063769
0.0127823
0.022793
0.00393544
-0.000255784
-0.000421214
-0.0269567
0.0374619
-0.00574242
0.00124991
-0.00974338
-0.00503603
-0.00027235
0.0210739
0.00462454
-0.0161401
0.016712
-0.00101599
-0.0309282
-0.00859826
-0.00342889
-0.00717945
0.00284084
-0.00936233
-2.76751e-05
-0.0040894
-2.54543e-05
-0.00101062
-0.0115745
0.00631464
-0.0154972
-0.00384318
0.00644137
0.0307148
-0.00519003
0.000589981
0.00663358
0.0051243
-0.0127039
0.0103127
0.000137126
-0.0141161
-0.00881269
-0.0040919
0.0104314
-0.00585158
-0.0121879
-0.0110971
0.026122
-0.000376681
-0.0127081
0.0980419
0.0257804
-0.0124761
-0.000968179
0.00634895
-0.0135968
0.00354681
-1.45804e-05
0.0371346
0.0254046
0.000143891
-0.00946704
-0.000472014
0.00586244
-0.00519049
0.00773843
-0.00764602
-0.0598786
-2.29808e-05
3.54274e-05
0.0093752
-0.000158915
-0.00700704
-0.00361358
-0.000143424
-0.00129615
-0.0111153
-3.13384e-05
-0.000420309
0.016716
0.0051441
-0.00248428
0.00752521
-0.00162668
-0.00579503
-0.0158487
0.00763679
-0.0104328
-0.00351226
-0.000158471
-0.00437221
0.000232283
-0.052227
-0.0701362
-1.07895e-05
-0.0152487
-0.00225257
-0.0313355
0.0132613
0.000141466
-0.00409143
-0.00346887
-5.32691e-05
-0.0381496
-0.0101699
-3.28942e-05
0.0100757
-0.00524039
0.00717667
-0.0013736
-0.00321509
-5.19392e-05
-0.000247831
-4.96281e-05
-0.00521185
0.010467
-4.34672e-05
0.0051763
-0.00294853
-0.0482027
-0.0001397
-0.000420788
-0.0103992
0.0235863
-0.0120253
0.00278581
0.0666004
-0.000147165
-0.000152161
-4.87166e-05
-0.0138796
-0.0142168
0.00792151
-0.00208067
-0.00146971
-0.00494426
0.00330681
-0.00206201
-4.6866e-05
0.0670391
-0.00439767
-0.000228867
0.00591787
-0.00611729
-0.0582478
0.0530512
-0.000483553
0.0139716
-0.0115568
-0.0774414
-0.00578153
-0.00064942
-0.000372404
-0.000642713
-0.075192
0.0265376
-0.016965
-0.0114516
-0.0172037
0.00355164
0.00637156
-0.00224393
0.0266095
0.00551495
0.0093732
-0.0247577
0.0071847
-2.21993e-05
-0.0196833
-0.00291207
-2.58583e-05
-0.0109239
-0.0473133
-0.00172808
5.45564e-05
-0.00019798
0.105676
-0.0049441
-0.00601464
-0.0622354
-0.00225758
-0.0609722
-0.01505
0.00783808
-0.00103396
-0.0419346
4.9997e-05
0.00413724
0.00592369
-0.0161434
0.00966768
-0.0288882
-0.00387714
-1.78862e-05
0.0129441
0.00473415
0.00879765
-4.63992e-05
0.00824441
0.00330865
0.00619793
5.17896e-05
0.0058624
-0.000112576
-0.000225237
-0.000123413
-0.00521222
0.0065966
0.00315653
-0.0031575
0.00545471
-0.00669106
-0.000512685
-0.0162641
-0.00127981
0.00532563
-0.00490198
0.00328141
-0.00524048
0.00828111
0.0118296
-0.000278416
-0.00511067
0.0113546
-0.000963877
-0.00762268
0.051558
0.00554358
-3.8626e-05
-0.00122805
-0.0161043
0.00357241
-0.0281836
0.00913502
0.00495466
-0.000864024
0.00522204
-0.0474433
-0.00383163
-0.0122214
-0.00646903
-0.00762811
0.000186401
-0.0594819
-0.00234426
-0.0569187
-0.00407786
-0.000495618
-0.00116181
-0.00394127
-3.29083e-05
0.00475526
-0.0010212
-4.29669e-05
-0.00499329
-0.00597383
0.00258421
0.0244154
0.0755944
0.00818509
-0.0471321
-0.0076554
-0.0698677
-0.00733921
1.26036e-05
0.0198358
1.15569e-05
0.000103739
0.0103224
0.014953
-0.00611093
-0.016252
0.00997977
0.00828331
0.000149334
0.0185418
-1.72478e-05
-0.00450267
-0.0287531
-0.0416676
-0.00028607
0.00550039
-0.0138918
-0.0243017
-0.0129738
0.0179468
-0.00467717
-0.000161532
0.00525963
0.0195874
0.0791083
-0.00113924
-0.00028684
-0.00744134
-0.00268471
-0.0389224
-0.00491659
0.013068
-0.0077505
-0.000523313
-0.045243
-0.0119378
0.000237313
0.00740812
0.00410247
0.00762457
0.0242921
0.0186938
0.023155
0.013212
-9.0999e-05
-0.00259627
-0.00514556
-0.000857398
0.00823801
-0.000899691
-0.00450834
0.00445669
-0.00500095
-0.00223756
0.12994
0.000227866
0.00910006
-0.0028528
-0.0026888
-0.00757661
-0.000248631
0.000258281
0.0131016
-0.000999617
0.00432772
-0.0023931
-0.00400262
-0.00484737
-0.00175272
-0.0164104
-0.00013733
0.0100216
0.0128214
0.0163185
-0.00024755
-0.00910021
-0.00432667
0.0152761
-0.0587066
-0.00515642
0.00639984
-0.00104174
0.0500517
-0.00830267
-0.00359868
-0.00235176
-0.0128966
-0.00140578
-0.0185869
0.00743706
-0.0650484
0.000503512
-0.013772
0.0112225
0.00359432
0.00517922
-0.00022666
-0.00200245
-0.000146359
-0.0141192
-0.00339958
0.0110471
0.00634356
-0.000295686
0.0168627
-0.000543882
-0.000147838
-0.00181339
-0.0158326
-0.0291211
0.0396042
0.0655566
0.00626762
-0.00460679
-0.000255729
9.53778e-05
-0.00198432
-0.00820681
-0.0028321
-0.000695336
-0.000707202
0.00533751
-0.0594795
-0.00379591
-8.6588e-05
0.0147987
-0.0119784
0.0178864
6.91695e-05
-0.00318856
-0.0716859
6.95866e-05
-0.00018708
-0.000969813
-0.00447988
-0.0117194
-0.00380574
-0.00588546
-0.00171985
-0.0365188
-0.00614489
-0.0017072
-0.040063
-0.00492924
0.00457758
-0.000182507
-0.0049146
0.0150105
-0.00440891
-0.0125269
-0.0983515
-0.000253069
-0.0180413
-0.00893453
-0.00060948
-0.00066612
-0.0260505
-0.00428706
-0.012385
0.0132885
-0.00579109
-0.0186264
-0.00231301
0.00830882
-0.000618443
-0.00610669
-0.00310817
0.00650083
-0.000407556
0.00840056
-0.00326206
-0.00985552
0.0159653
-0.0086912
-0.0161724
-8.73771e-05
-0.000613172
0.0159799
0.018272
-0.00335321
0.128906
0.00494107
1.71244e-05
0.00532258
0.0110449
-0.00862708
-0.00336971
0.138555
0.0144568
-0.00485126
-0.00174932
-0.000856139
-0.0402392
-0.00384933
0.00846403
-0.000597641
-0.00589404
-0.000541627
0.039474
-0.000599741
-0.0184741
0.00018524
0.0185336
-0.000560585
0.00776656
-0.0001619
0.0792129
-0.00138313
-0.00371118
-0.0358066
-0.0150193
3.58912e-05
0.00531227
0.00861443
-0.0383675
-0.00459643
-0.000409717
0.0070698
0.0147921
-0.0671934
-0.0292065
0.00526634
0.00771272
0.000180269
-0.0145389
0.00445787
-0.00236885
-0.000977221
-0.000122471
-0.0032538
-2.17709e-05
-0.00378318
-0.000262732
0.0135857
-0.000271828
0.00331085
-0.00949807
0.0051291
-0.00490086
-0.012419
-0.0394794
5.62236e-05
-0.0078291
0.086211
-0.00207029
-0.0591815
-0.0108179
0.00354327
-0.0122858
-0.000223141
-0.0157857
-0.0387442
-0.000145262
0.0040916
-0.0101083
0.00386897
0.0181102
-0.00705553
0.00187241
0.00324862
-0.0594798
0.0134145
-0.00239475
-0.00595977
0.000143204
-0.00208994
-0.00125633
-0.000128834
-0.00172969
-0.00735863
-0.000591707
0.00454459
8.76551e-06
0.00862988
-2.40591e-05
-0.00229294
-0.000162526
0.000473835
-0.00521558
-8.75523e-05
-0.00838943
-0.000140137
-0.00689517
-0.00208057
0.00861438
-0.00049395
0.0140262
0.0101105
-0.000433539
0.00220553
-0.0336349
-0.000938835
-0.00135257
0.000250401
-0.0140532
0.0196053
-0.0457096
0.00616153
-0.000690127
0.00153254
-0.00639059
0.0217814
-0.00331505
-0.00516874
0.000363505
-0.0312467
-0.000877292
-0.00372298
-0.00376576
-0.00375679
-0.0072637
-0.00685477
-0.0361801
-0.000933559
-0.0764583
-0.000563315
0.00738956
-0.0085984
0.00512266
-0.0143195
-0.00953288
-0.00662316
-0.0361757
0.0355606
-0.0035018
0.0181519
0.00293615
-0.000257873
-0.00162216
-0.024624
0.00887703
0.0041529
-0.000854779
-0.0152543
0.00232169
-0.00121365
0.000347447
0.0175136
-0.00160373
-0.0102841
0.00916816
0.00564861
-0.00276329
0.0113275
-0.00434523
0.00882181
-0.00506413
-0.00702145
-0.0121223
-0.00641753
-0.00747068
0.0412024
-0.010713
-0.00248459
0.00217992
-0.00426427
-0.0574451
0.000506271
-3.76626e-05
-0.00257986
-0.0346356
0.00529482
0.00695161
0.00852097
-0.0028983
0.00568248
-0.000242471
-0.0431978
0.000821372
-0.00155567
-0.00552097
-0.00637355
-0.00135838
0.00423244
-0.000396611
0.000118272
0.0227848
-0.0062976
-0.00854575
-0.00555425
-0.000432431
0.0651079
0.00679014
-0.00214358
-0.00481344
0.00248434
0.00580485
0.015784
-0.000449571
-0.0433987
0.00756422
-0.00508666
-0.000134471
0.00526369
8.65425e-05
-0.0429454
-0.000125883
-0.0213252
-0.000254425
-0.000896493
0.00561948
-0.0189468
-0.000244191
-0.000379542
1.01423e-05
-0.00258947
0.00466253
0.0230332
-0.00368947
0.0771425
-0.0291868
-0.00637849
-0.012607
-0.0396437
-0.000546574
0.0159132
0.00876404
0.0105155
-0.0176943
-7.04725e-05
-0.070722
-0.00352115
-0.00759247
-0.0533902
-0.0030416
0.0091898
-0.00412124
-1.62149e-05
-8.16632e-05
0.00410703
-0.0100264
-0.00620352
-0.00468302
-0.000288197
-0.00558335
-0.00249819
-0.0161692
-0.00934457
-0.00259032
0.000110356
3.41851e-05
-0.000534882
-0.000370537
0.0502897
-5.09088e-05
0.00890206
-0.0303998
-0.00505935
0.00511658
-4.57366e-05
-0.00181849
0.00145281
-0.0127002
-0.00399286
-0.000558344
-0.000530657
-0.0189331
-0.0115209
-0.000126322
-0.000992917
3.05357e-05
-0.000593521
0.0207467
0.0038338
-0.000814373
-0.00212463
0.00507401
-0.00456303
0.0728835
-0.00580363
-0.00387485
0.111809
0.00414504
-0.0504521
0.0103762
-0.000902466
0.00603337
-0.00577897
-0.00197595
0.0138644
0.0283464
-0.0194497
-0.000684783
0.0802451
-0.000386519
-0.038757
-0.0403889
-0.00873851
-0.00481957
-0.016945
-0.00150065
-0.000313102
-0.00324798
-0.00119818
0.000146676
0.0158441
-7.59995e-05
0.00918984
-0.000377112
-0.00643145
-0.0207816
-0.00710254
0.000531154
-0.00025111
0.0151543
-0.0102591
-0.00600078
0.0160355
0.00686941
-0.00161398
-0.000538069
-0.000246203
-0.0292854
-0.0126716
0.00797346
0.00606413
0.0246849
-0.000436507
0.00308292
-0.00562159
-0.0045936
-0.0207587
3.12729e-05
0.030603
0.00438228
-0.00547701
0.0356
-0.00113682
-0.0739737
0.0184058
-0.00026395
0.00480174
9.6968e-05
0.110087
-0.00222962
-0.0603152
-0.00053516
-0.000694026
-0.000579099
-0.000364997
-0.00692983
6.43628e-05
-0.0132352
-0.0391
-0.017597
-0.0103387
-0.000473467
-0.0314027
-0.0409474
-0.0613112
-0.00121538
0.0906639
-0.063214
-0.00504074
0.00520118
-0.00669625
7.90273e-06
-0.000113848
-0.00397546
-0.00129302
-0.00230487
-0.000737757
0.00921767
-0.0400416
-0.0062103
-0.00396605
-0.0445999
-0.0382212
0.00793249
-0.000866323
-0.00328231
-0.00565686
0.00562222
-0.00542843
0.00522329
0.0119681
-0.0142081
0.0573971
-0.000666111
0.0306415
-0.0361547
-0.00249022
0.00653644
-0.000972297
-0.0004375
0.0136576
-0.0160971
-0.00418593
0.015593
-0.00438469
-0.00024661
-0.00804757
-0.007211
-0.0610355
-0.0123962
0.00937367
-0.00186914
-0.0115278
0.000831084
0.0742173
-0.0424417
0.0086505
-0.00259886
0.00106529
0.0427916
-0.00316314
-0.00735061
-0.000250909
0.00354623
-0.00509796
-0.00477826
0.00650379
-0.0193552
-0.00201183
-0.00515139
-0.000209987
-0.000561081
0.0075279
-0.0046879
-0.00212686
0.00674322
0.00301576
-0.0156669
-0.00920924
0.00552664
0.0652444
0.016154
-0.00184982
-0.00629858
0.00305361
0.00937522
-0.0054898
-0.000950949
0.0125699
-0.00295546
0.0565976
-0.0514099
-6.78828e-05
-0.00741351
0.00723115
-0.00906606
-0.031982
-0.00992315
-0.00343876
-0.00215772
-0.0500575
0.00862838
-0.00509399
0.0908161
-0.00151088
-0.00423366
0.00754414
0.00480175
0.00557366
-0.00155273
-0.00343372
0.0100325
-0.0029639
-0.0398375
-0.0554906
-0.0228136
-0.00423143
-0.00944322
-0.00556354
-0.003191
-0.00436348
-0.00636608
-0.00515744
-0.00438223
0.00939348
0.0158766
-0.0110895
-0.0139467
-0.00462478
0.000194571
-0.00338339
-0.000837112
-0.000986278
-4.63823e-05
-0.00991023
-0.0388046
0.00691575
-0.0563025
-0.0017472
-3.76311e-05
0.0112096
-0.000240106
-0.0247205
-0.00165507
0.00896643
-0.00104745
0.000532029
-0.00738899
1.5059e-05
0.0573649
-0.000649589
-0.0124611
-0.000465014
0.000227194
-0.00736577
-0.00904439
0.00665406
0.00298993
0.0473772
0.0013358
0.00977633
-0.00531178
-0.0141878
-0.00722758
-0.00600053
-0.000149148
-0.000157671
-0.0189831
-3.91295e-05
-0.00407105
0.0092909
-0.0195756
-0.0613009
8.38488e-05
5.52493e-05
0.00209761
0.00730192
0.00225777
0.02462
-0.00419189
-3.77186e-05
-0.00830526
0.00493289
0.00291748
0.00735394
-0.0223281
-0.0218841
-0.0050717
-0.0597818
-0.00415362
0.0110584
2.57373e-05
-5.46795e-05
-6.07469e-05
0.00720446
0.0243608
8.67355e-05
-0.0407114
0.0600878
0.000110965
-0.020096
-0.000143037
0.00880918
-0.0409304
-0.0281296
-0.00937588
-0.0102598
-0.0142096
0.00666004
0.00482028
-0.0595181
-0.00735686
0.0257232
0.0116272
-0.000153043
0.0135405
-0.0160327
-0.00469992
0.00471536
-0.0160675
0.00158725
-0.00502737
-0.00109914
-0.00290864
-0.0299202
-0.0019838
-0.0590219
-0.0514191
-0.000527074
-3.58878e-05
-0.0234505
0.0116764
-0.00275478
-0.00465633
-0.0340799
0.0139667
-4.73982e-05
0.00280764
0.0846076
0.00426814
-0.0197284
-0.0165713
0.00903516
-0.00269445
-0.0624621
-0.00140498
0.001974
-0.0774881
0.109822
0.00180081
0.00725206
-0.0218766
-0.00473418
0.00957891
-0.00175238
-0.00562458
-0.00500238
2.43762e-05
0.0166183
0.098462
0.0073594
-0.0038127
-0.00293235
-0.00340604
-0.00440744
-0.00388633
0.046636
9.3067e-07
0.0497115
-0.000928838
-0.00638437
-0.0386876
-0.00630073
-0.0108615
-0.000375065
-0.00418039
-0.000690061
0.00910073
-0.000673403
-0.000158974
0.00201535
-0.0015445
0.0456591
0.00361812
0.016392
-0.0436207
-0.000156687
0.00694551
-0.0670949
0.00171979
0.00826654
-0.000302959
0.0225112
0.0354727
-0.0474125
-0.00980424
-0.00495512
-0.00486994
-0.0125305
-0.00228096
-0.00860219
0.0103437
-0.00796958
-0.0103679
0.0367471
-0.00749386
-0.00492319
0.0148986
-0.0985945
0.00380837
-0.00302299
0.00781117
-0.000911069
0.00691245
-0.00185731
-0.000871031
0.00695751
-0.00272688
-0.00663973
0.0111322
5.64326e-06
-0.00387839
-0.00447915
0.000524341
0.00454796
0.00602662
-0.000252651
-0.0141426
-0.00654997
-0.0187407
-0.00173622
-0.00321206
2.86429e-05
-0.00091614
0.124538
-0.000765098
0.00525213
-0.00926625
-0.0599684
0.00601436
-0.000764368
0.000541728
0.0087172
-0.000267693
0.0176155
-0.0588398
0.000295793
0.00972508
0.0488543
-2.83634e-05
0.0106048
-0.00238806
0.00534442
-0.00187071
-0.0141886
-0.0113693
-0.000172386
-0.0175427
0.00752018
0.00603763
0.0127562
-0.000748161
-0.00392272
-0.00376937
0.00020666
0.00844252
-0.00205543
-0.000564586
-0.0126295
-0.000825896
-0.00039443
-0.000747171
-0.0437174
-0.000676438
0.005423
0.00764377
-0.0123795
0.0086625
0.00441745
0.00535549
-0.00878562
-0.000348779
-2.61182e-05
0.00658185
-0.00370506
-0.00776838
-0.00174778
-0.0617064
0.0021744
0.00866362
0.0180139
-0.0117983
-0.00782707
-0.00870263
-0.00263865
0.00241094
0.00732396
0.00835995
-0.000689715
0.0330951
0.00674409
-0.000110061
-0.00241931
0.0232656
-0.00366712
0.00791674
-0.000699537
-0.000149564
-0.020002
-0.0470841
-0.00609474
0.00540409
0.0280927
0.0656425
0.0106242
0.00350956
-0.027318
-0.00487811
-6.64479e-05
-0.00569839
-0.00016019
-0.000249451
-0.000297687
0.00821633
-0.000542754
0.00120558
0.000218202
-0.00293767
-9.01387e-05
-0.0607896
-0.0563296
-0.000681552
-0.000228673
-0.0265219
-0.00213806
0.0179773
-0.00644405
0.0137104
0.00583201
-0.00288334
-0.0117051
-0.00527938
-0.000795845
-0.00209876
-0.00504971
-3.27159e-05
-0.00254464
0.00739608
0.0134606
-0.0596144
-0.00875804
-0.00038618
-0.00322526
-0.000775337
-0.000560547
-0.000127177
-0.0023286
-0.0431434
-0.0250251
-2.65387e-05
4.17624e-05
-0.0282997
-0.000400897
0.00415402
-0.00723676
-0.00403518
0.000416803
0.0106207
0.00707457
-0.0109196
0.00664582
-0.00289739
-0.00334987
-0.00138429
-0.00105458
0.0209162
-0.0593039
-0.0623738
0.0360586
0.00221433
0.00551617
-0.00150766
0.0227247
-0.00965057
0.00851333
-0.0474371
0.00634107
-0.0737913
-0.00459354
-0.0263962
0.000252508
-0.00241946
-0.0113528
0.0469447
-0.0589699
-0.000125934
-0.00649325
-0.00422829
-0.0273957
-0.00362425
0.008016
-0.00186922
0.00468602
0.00786154
-0.00317768
-0.0117954
-0.036373
-0.0153442
0.00636931
-0.00466036
-0.0012981
-0.0664141
0.0047276
-0.00272915
-1.59735e-05
9.32317e-06
-0.00618586
0.00809789
4.97529e-05
0.0174794
0.00763175
-0.000123849
-0.000713553
-0.0150635
-0.0633772
0.00448287
0.00906507
-8.53074e-05
6.06075e-05
0.00601722
-0.00214125
-0.00854293
0.0421861
-0.00181482
-0.000259853
0.00999537
-0.000311052
-0.0271858
-0.0605572
0.0073151
-0.0417141
-0.000984711
-0.0251812
-0.00749922
-0.00504226
-0.00202004
0.0102714
-2.76053e-05
-0.0112749
-0.00971569
-0.00475815
-0.0615212
0.00863852
0.00514638
-0.0244412
0.00411936
-0.00204933
-0.0128627
0.00579064
-0.0051205
-0.00103144
0.0114947
0.00305679
-0.00100072
-0.00280504
0.00920188
-0.00518912
-0.0101339
-0.00751029
-0.00342142
-0.0167967
0.00473296
1.91114e-05
-0.00017447
-0.00435465
0.00535715
-0.00018573
0.0108312
-0.0025902
0.0107768
-0.00443153
-0.000853522
0.00518405
0.0100836
-0.00443163
-0.012353
-0.00347249
-0.00519227
0.0104116
-0.0378847
-0.000243749
-0.0455209
-0.0043648
-0.00788702
-0.00476425
-0.0122467
-0.00648112
0.00150679
0.000144747
0.0052786
-0.0201176
-0.000557973
-0.000533677
-0.0223937
-6.05529e-05
-0.0055855
-0.0080158
0.00547919
-0.00971816
-0.0181251
0.00920728
-0.00492896
0.00857181
-0.0053998
0.0266018
-0.00598788
0.00106896
-0.000295267
-0.00168397
-0.000373385
-0.00339228
7.90124e-05
-0.00127576
0.00645341
0.0051306
0.00749636
0.0111565
-0.00438797
0.0150928
0.00377797
-0.0569814
0.000178541
-4.08287e-05
-0.0455043
0.00571843
-0.043391
0.00365221
-0.010167
8.10916e-05
0.00686647
-0.0141834
-0.00366838
-0.0140832
-0.00203018
-0.00107024
-1.65735e-05
0.00366402
-0.0059147
1.07719e-05
-0.00503028
0.00583336
-0.00519406
0.00847546
-3.04577e-05
0.00764775
-0.0506528
0.0563325
0.00807949
-0.0260577
-0.00226197
0.00398249
0.000653442
-0.0015489
-0.000621503
-0.00167384
-0.0138822
0.028831
-0.00228437
9.62492e-06
-0.00823837
-0.00196487
0.00115078
-0.000472674
-0.00156812
-0.000151582
0.00797811
-0.000156348
0.000145555
-0.00287957
-0.00507782
0.0110345
0.0109885
-0.00015908
0.0393768
-0.00293944
-0.000729637
0.00607833
-0.000146718
2.22829e-07
0.008889
-0.000775968
-0.000150495
-0.00943326
-0.00701568
-0.00100625
0.00330732
0.008476
-0.00507977
0.0278826
0.00644276
-0.00100059
0.000560786
-0.0608451
-0.00937493
0.00326131
-0.000705024
-7.17571e-05
-0.0181105
-0.0012878
-0.00526375
0.0191821
-0.000978218
-0.0158035
-0.000862839
0.0089377
-0.00871556
-0.0159486
0.00161173
-0.00406692
0.00863077
-0.00617703
0.00185004
0.000119085
0.00757234
0.00173315
-0.000737193
-1.91534e-05
-0.0318928
-0.0471651
-0.0487797
-0.000327815
0.00653544
0.0393031
-0.0140071
-0.000946375
0.0102693
-4.67698e-05
-0.000835122
-0.0225216
-0.0112921
-0.00241245
-0.0247834
-0.0015709
0.000194851
-0.000879512
0.0107704
-0.049706
-0.00527529
-0.00529459
-0.000959744
0.000834192
-0.00171183
-0.00429898
-0.00082913
-0.0180369
-0.000138931
-0.0413541
-0.000748323
0.00936178
0.0115261
0.00336116
0.0027725
-0.00500915
-0.00176249
0.00359043
-0.00273363
0.0197999
0.00945958
-0.0132699
-0.00040621
-0.000790081
0.0878126
0.0184529
-0.00372419
0.0273959
0.00529678
-0.000488198
0.00786671
-0.000134112
0.00293393
-0.0135418
-0.00211002
0.00422665
-0.00296412
0.0243559
-0.00316441
-0.000282583
0.0163039
-0.00281587
-0.00993296
0.00434507
0.0171732
-0.00105212
0.0172208
-0.00435682
-0.0224619
-0.00156948
0.0367075
-0.0479005
0.0058901
-0.00107315
-0.00545192
-0.00403861
0.00185579
0.0052415
0.00601322
-0.0293556
0.00491742
-0.0254992
-0.0134216
-0.037706
0.00163843
-0.0050651
-0.028116
-0.00344736
0.0227793
-0.00430445
0.0586726
-0.0105812
-6.35565e-05
-0.000131707
-0.000555836
0.00673127
0.00451596
0.00393634
-0.00418336
-0.00768504
-0.0500216
-0.0185367
-0.0169573
-0.000161185
-0.000891969
-0.000571727
0.00351498
-0.00555023
0.00870554
-0.00853929
0.00445282
0.00617207
2.61228e-06
0.0325152
0.00708505
0.0307764
-0.000906399
-0.00166155
-0.0162774
0.00800833
-0.0552134
-0.00290953
-0.000845625
6.39294e-05
-0.00677714
0.00784448
-0.000149137
0.0112916
-0.00142527
-0.00380709
-0.000243378
-6.55226e-05
-0.0178878
0.0207739
-0.0155057
-0.00891487
-0.0301927
-0.00431634
-0.00274116
0.0229572
0.0180081
-0.00339805
-8.9199e-05
0.0074207
0.00253469
-0.0027149
-0.00391575
-0.015832
-0.0591564
-0.00289549
0.00835842
-0.00380891
-0.00758864
-0.000382006
0.0313643
0.0135627
-0.00492604
-0.00548253
0.0022366
-0.00482267
-0.0530083
-0.00024497
-0.0631004
0.00411229
0.0127832
-0.00256256
-0.00112067
-0.0605939
0.0776527
-0.000433157
-0.00363073
-0.00504321
-0.000543335
-0.000215774
-0.000420312
0.00761643
0.0220961
-0.0065589
0.00712934
-0.0514823
0.0056056
-0.0109301
-0.0321211
-0.00241513
0.0318755
-0.000682433
-0.0656112
0.00572906
-5.01365e-05
-0.000237752
-0.0331077
-0.00107915
-0.0175565
0.00956254
-0.0223506
0.00689795
0.0133391
-0.00451156
0.00800264
-0.00336489
0.00852073
-0.0436885
0.0115725
0.00579026
-0.000444496
0.0161116
0.00437492
-0.00165728
0.00653305
0.00364885
0.0041882
-0.0700812
0.000298401
-0.0454268
-0.00455338
0.0296744
-1.90435e-05
-0.00227309
0.0141067
-0.0415667
-0.0021977
-0.000419702
-0.000852908
0.0344944
0.00528585
0.0167724
-0.000395606
-0.00345264
-0.0703303
0.00510152
0.00296362
-0.00010475
0.0066091
-0.0025325
-0.00523963
-0.00165328
-0.00794403
-0.00120677
-0.000359097
7.94525e-05
0.00832868
-0.00987015
0.00286197
-0.0251044
-0.000989427
-0.0351668
-0.000527584
-0.00975136
-0.00885589
-0.00323641
0.00218646
-0.00960781
0.0110236
-0.0124226
0.0235733
-0.00468652
-0.00847876
0.00549888
-0.000770029
-0.00331672
0.000830375
0.0215599
0.00668938
0.0797699
-0.00339318
0.00209398
0.00655415
0.0160178
0.0202269
-0.000837848
-0.000595519
2.22526e-05
-0.00206518
-0.00373677
-0.00584421
0.0695309
0.0952448
-0.00705004
-0.011883
0.00858357
0.0144323
-0.00854442
0.000161838
-0.0803381
0.00884021
-0.000290238
0.00594001
-0.00402289
-0.000789991
-0.011731
-0.0184414
-0.000926857
0.0214351
-0.000539931
-0.0642343
-0.00266101
0.00593225
-0.0233593
-0.000612277
-0.0270665
0.00110605
-0.0138991
-0.00351183
-0.000508409
-0.000303727
-0.0551104
-0.0242309
0.00785336
-0.00105001
0.0179913
0.00460532
-0.0445217
-0.0379854
0.0126784
-0.00288585
0.0081789
0.0061491
-0.0041013
0.00733111
-0.0139497
0.00911043
-0.00594696
3.09188e-06
0.00101666
-0.0017019
-0.00463106
-0.0658854
0.000178199
-0.00254172
-0.00686165
-0.00157301
0.00192185
-0.0455729
-0.0616621
0.00479747
0.0286188
-0.0645445
-0.00385715
-0.070786
0.00135104
-0.00203612
0.0086221
0.0102742
0.00626218
-0.0185413
0.00025222
-0.062437
-0.0504666
0.00128077
-0.00693739
0.00861665
-0.0407352
-0.00424896
-0.00274053
-0.0686977
-0.0614511
-0.055568
0.00331527
-0.00276113
0.00686336
-6.5852e-05
-8.50751e-06
-0.00515457
0.000166579
0.00860086
-0.0124406
-0.00189502
-0.00334295
0.00444737
0.00735077
0.00971591
-0.0579821
-0.00527989
-0.00100556
8.35599e-06
0.00486356
-0.00976578
0.0171825
-0.00915571
0.00655194
-0.0030977
-0.000208571
0.00485495
-0.000740343
0.00791618
0.0060999
-0.00579026
-0.039315
-0.0191759
0.0291914
-0.00481722
0.00602651
-0.00519173
-0.0084338
-0.0610987
-0.00419488
-0.0102802
-0.0261648
-0.0269541
-0.00417492
-0.0663283
-0.0283121
0.00239223
0.00386064
-0.00208586
-0.00219002
0.00585751
0.0159942
-5.23559e-05
-0.00653553
-0.00310761
-8.86405e-05
-0.000107021
-0.00908481
-8.95108e-05
0.00879625
-0.00275774
-0.0153118
-0.00516347
0.029529
0.000723113
0.00444351
-0.00125137
-6.88617e-05
-0.015354
-6.68712e-05
-0.000522483
-0.00092783
-0.00276936
-0.0610664
0.000603071
0.0221137
-0.0139502
-0.0358655
-0.00513998
-0.00514138
-0.00467977
-0.0433578
-0.0202431
7.82678e-05
-0.000304972
-0.0672993
0.00920857
-0.000133913
0.0068856
0.0410478
-0.00218909
0.00530366
-0.000201597
0.047322
0.00112588
0.00483258
0.00610064
-0.000661717
-0.00067396
-0.000129807
-0.0108626
-0.0322899
-0.0541225
-0.0125419
0.00911129
-0.000117135
0.00603845
-0.000461464
-0.00203532
-0.000504476
-0.000886403
-0.00403941
-0.000146638
-0.00640828
-0.0659255
-0.00203857
-0.0511718
0.0106027
-0.000872268
-0.0019165
-0.00943107
-0.000728942
-0.00114182
6.30714e-05
-0.0105755
0.00693297
-0.000508579
-0.000242834
-0.00199023
0.00340607
-0.00376871
-0.0550954
-0.000565772
-0.000475982
-0.00330134
0.0048193
0.01514
-0.00424517
-0.00321942
-0.0525584
-0.000503376
0.00923062
0.00544304
0.00482753
0.000409112
0.00783313
0.00484636
0.0317798
0.00854105
-4.52183e-05
0.000332138
8.36978e-05
-0.00486471
0.00225053
-0.0249038
-0.000667702
0.00531225
-0.000121328
-0.0153716
0.00634243
-0.000172428
-0.0107048
-0.000154667
-0.00725571
-0.0304796
-0.00312852
0.0448792
-0.000254291
-0.00346754
6.43764e-06
0.00551027
-0.0601935
-0.000938109
0.0326091
-0.00500082
-0.00966998
-0.000688033
-0.00043692
-0.0047969
0.00762029
-7.43936e-05
7.30177e-06
0.00818524
0.0291258
0.00370686
0.0064851
-0.00075516
-0.0265185
0.00776199
-0.00934027
-7.56275e-05
-0.0248815
-0.0143194
-0.00206367
0.00290549
0.00349799
0.0086411
0.00512238
0.00340728
-0.000591776
-0.000701701
0.0418835
0.00699564
-0.0004529
0.00604189
-0.0151936
0.00414801
0.00466608
-0.0082822
-0.00263558
-5.9332e-05
3.117e-05
0.00744847
7.86979e-06
-0.0100487
0.0114304
-0.00615501
-0.00120989
-3.04822e-05
0.0104428
-0.00993739
-0.0206659
-0.000111612
-0.0316836
-0.000911075
-0.00877674
-0.00333096
-0.000243963
1.25591e-05
-0.000601057
-0.0153885
0.000144309
-0.00020626
0.00532049
-0.0167764
-0.0460282
-0.000573446
-0.000330503
0.00383481
0.000159416
-0.0158364
0.00567374
0.00128755
-0.00582985
-0.00162387
-0.00404439
0.015855
-0.000689904
0.00384353
-0.000583136
-0.00632915
0.0154496
-0.0280556
0.00765535
-0.0264618
0.000124682
-0.00699838
-0.00136712
-0.0367945
8.38288e-06
0.00516818
0.000277398
0.00589179
-0.000724572
-0.00109247
-0.00350415
-0.0519978
0.015124
-0.052647
0.00392728
0.00391736
-0.00565703
-0.000508841
-0.0175421
-0.000122277
-2.14794e-05
-0.00278301
-0.00377974
0.000154596
0.00528065
-0.000497589
0.00605767
-0.0155483
-0.0133967