/*--------------------------------*- C++ -*----------------------------------*\
  =========                 |
  \\      /  F ield         | OpenFOAM: The Open Source CFD Toolbox
   \\    /   O peration     | Website:  https://openfoam.org
    \\  /    A nd           | Version:  9
     \\/     M anipulation  |
\*---------------------------------------------------------------------------*/
FoamFile
{
    format      ascii;
    class       surfaceScalarField;
    location    "75";
    object      phi;
}
// * * * * * * * * * * * * * * * * * * * * * * * * * * * * * * * * * * * * * //

dimensions      [0 3 -1 0 0 0 0];

internalField   nonuniform List<scalar> 
167688
(
-0.0422074
0.0254503
0.0167571
0.00800989
-0.0735509
0.065541
0.0358648
0.0487934
-0.0846582
0.0396565
-0.0860591
0.0464026
0.0986439
-0.0908053
-0.00783865
-0.0730226
0.0130818
0.0599408
0.041934
-0.0246602
-0.0172737
-0.0386783
0.0783348
-0.125262
0.0424393
0.082823
-0.026118
-0.00371811
0.0298361
-0.0517038
0.0597137
-0.0616686
0.0349256
0.026743
0.117302
-0.0896985
-0.0276031
-0.0464248
-0.0152439
-0.0372929
0.0169672
0.0203258
0.0417563
0.0320474
-0.0738037
0.0186327
-0.00252659
-0.0161061
0.0211278
-0.0259277
0.00479988
0.0300495
0.0389409
-0.0689904
0.108534
-0.0663859
-0.0421481
-0.0822323
-0.0226911
0.104923
0.0460627
0.0530034
-0.0990661
0.0625939
-0.0325443
-0.0890756
0.0646871
0.0243885
0.0909791
-0.0116739
-0.0793052
-0.0775468
0.0282812
0.0492656
0.0124254
0.0103527
-0.022778
0.0718159
-0.0802091
0.00839323
-0.0911635
0.0181409
0.000521616
-0.0827539
0.0117403
0.0691952
-0.0809355
0.061253
-0.058059
-0.00319405
0.135329
-0.121265
-0.0140641
-0.00529103
0.0048094
0.000481633
-0.071263
-0.0539993
-0.117371
0.0778708
0.0395005
0.0527542
0.0557797
0.00441461
-0.0140868
0.00967223
0.0271919
0.0381946
-0.0653865
-0.0558951
-0.0374988
0.0933938
0.0341433
-0.0917703
0.057627
-0.0638328
0.0141259
0.0497069
-0.074636
-0.01081
0.085446
0.0655013
-0.0296365
0.0410583
-0.0199305
0.0405459
-0.0672607
0.0267148
-0.00323415
-0.00205688
-0.116503
0.00719877
0.109304
-0.100617
0.0369488
0.0636681
-0.00199767
-0.0618351
0.070816
-0.0293336
-0.0414824
-0.0263812
0.0234493
0.00293186
0.0896146
-0.0881298
-0.00148479
-0.0551074
0.0822992
0.0064402
-0.0703678
0.0639276
0.0227677
0.0191663
-0.0682794
0.0468556
0.0214238
0.0715108
-0.0278391
-0.0436717
-0.0343496
0.00419471
0.0301549
0.072717
-0.0321711
0.0085249
0.0326089
-0.0411338
-0.0507169
-0.0657862
0.117891
-0.0358463
-0.082045
0.000528048
0.117363
-0.00718403
-0.0295525
0.0367365
0.126216
-0.0732355
-0.0529808
0.0142814
-0.00986676
0.109816
-0.0872375
-0.0225784
-0.0611869
0.00534824
0.0558387
-0.0857831
-0.0156876
0.101471
0.0509514
0.0205594
-0.00422793
0.00197265
0.00225528
-0.062128
-0.0269477
-0.0268755
0.0212287
0.00564685
-0.0109678
0.0400987
-0.0291309
-0.00938489
0.0123608
-0.00297586
0.090365
-0.00564889
-0.0847161
-0.0194397
0.0464027
-0.0238195
-0.0225833
-0.0590589
0.00395158
0.0152929
0.0654853
-0.0807782
-0.00216714
-0.00721775
0.0481474
0.0226686
-0.0653198
-0.0122269
0.111191
-0.0694344
0.0158059
-0.0700692
0.0542632
0.0718989
-0.0507126
-0.0211863
0.0672101
-0.0607699
-0.000145018
-0.0010065
0.00115152
-0.06658
0.0847651
-0.0181851
0.134824
-0.0581705
-0.076654
-0.049588
-0.0677833
0.0352928
0.0366062
0.0268911
0.0717529
0.0348635
-0.0458312
0.118505
-0.02814
0.0752324
-0.0502136
-0.0250188
-0.0281554
-0.00913756
0.0787697
-0.0670294
-0.0572016
-0.0110778
0.0591857
0.0581159
0.111643
-0.107385
-0.004258
-0.09211
0.0659847
0.0261253
0.0633127
-0.102673
0.0393607
-0.00765917
0.0371686
-0.0295094
-0.0155747
0.00336875
0.0122059
-0.0484351
0.0412511
-0.0565466
0.0921228
-0.0355762
0.0776096
-0.116186
0.0385766
-0.0640396
0.0798455
-0.00113428
-0.00309365
-0.0457498
0.0456246
0.000125163
0.0453457
0.0319183
-0.077264
-0.0723586
0.0470203
0.0253382
-0.0754643
0.0142775
-0.0576173
0.0202107
0.0374067
0.042439
-0.00490962
-0.0375294
0.00587683
-0.0716382
0.0657614
-5.862e-05
-8.63984e-05
-0.127632
0.0898203
0.0378117
0.0510207
-0.0822694
0.0312487
-0.00812075
0.0799366
-0.0398928
0.0137749
0.0601201
-0.083631
0.0235109
-0.0547198
0.0888632
-0.0199362
0.0832489
-0.00166031
-0.0176554
0.0193157
0.00249713
0.0639817
-0.0664788
-0.0859135
0.02233
0.0635834
0.0326038
-0.0402629
-0.0277478
0.0878679
0.0303215
-0.0178961
0.0214418
0.072839
-0.0942808
0.02086
-0.00434735
-0.0165126
-0.0168333
0.0550279
-0.102424
0.0465292
0.127345
-0.0904872
-0.0368579
0.103111
-0.074527
-0.0285844
-0.0445751
-0.0277978
0.0723729
0.0403836
-0.0079206
-0.032463
0.0400078
0.0631035
-0.0364951
0.0392815
-0.00278636
-0.0682718
-0.00359851
0.0718703
-0.00832936
0.0132224
-0.00489308
0.020305
-0.0768516
-0.0696065
0.0387934
0.0308131
0.0239766
0.0054573
-0.0294339
-0.115687
0.0373472
0.0783399
0.0746727
-0.0687958
-0.0842645
0.0886079
-0.00434339
-0.016191
0.000616361
-0.0358214
0.081884
-0.0365518
0.0513807
-0.0148289
0.0054276
0.084187
-0.0876777
0.0431026
0.0706247
-0.0349712
-0.0356535
-0.0864022
0.074959
0.0114432
-0.0253859
-0.0469727
-0.0366275
0.00227793
0.0375894
-0.00241712
-0.0351723
0.0981786
-0.0528329
-0.114012
0.0764102
0.0376014
0.00705284
0.0460864
-0.0531393
-0.0734049
0.036468
0.0369369
-0.0861699
0.0936226
-0.00745276
0.0845905
-0.00555636
-0.0790341
0.0521927
0.00506321
-0.0572559
0.0224466
0.0388065
-0.0885045
0.00804686
0.0804576
-0.0563682
0.0603955
-0.00402729
0.0177476
0.0426967
-0.0604443
0.0651865
0.00543816
0.089507
-0.0824542
-0.0186567
0.0103273
-0.0155746
-0.0479483
0.0635229
-0.0454426
-0.0821894
-0.0931725
-0.00744442
0.122092
-0.0302881
-0.0918039
0.0652084
-0.0505508
-0.0146576
0.000871
-0.0779923
0.0771213
-0.0519251
0.0363505
0.0822469
0.0211228
-0.10337
-0.115507
0.0128859
0.102622
0.0722008
-0.102156
0.0299555
-0.072179
0.0439443
0.0282347
-0.0454693
0.0329344
0.0125349
-0.0626503
-0.0513613
-0.00389052
-0.0822794
-0.0746904
0.00641861
-0.0695401
0.0195099
0.0500302
0.01064
0.049454
-0.0600941
0.0850653
0.0502641
-0.107388
0.0408079
-0.0199995
0.0710201
0.101278
-0.0479999
-0.053278
-0.138151
0.0951109
0.0430402
0.0588239
-0.0677735
0.00894964
-0.00570263
-0.0400471
0.102565
-0.0447243
-0.0578405
-0.0293384
-0.0570638
0.00137043
-0.0133065
0.011936
-0.0179628
0.0422739
-0.024311
-0.028406
0.0369309
0.0273557
-0.0795993
0.0522435
-0.0906902
-0.0213734
0.112064
-0.0347207
-0.0228967
-0.0194083
0.00431895
0.0150894
0.01988
-0.0443845
0.0245046
0.0287921
-0.0101594
0.0743384
0.0161749
-0.0905133
-0.0985419
0.0748284
0.0237135
0.113462
0.00251055
-0.115973
-0.0152872
0.0392638
-0.0177716
0.0811527
-0.00592031
-0.0203227
0.0402027
0.0553942
-0.0376466
-0.0564259
-0.00562338
0.0620493
-0.134197
0.0435298
0.0906676
0.084373
-0.0309831
-0.0533899
-0.10457
0.021898
0.082672
0.0187061
-0.0435293
0.0248232
0.0954453
0.030771
-0.00795747
0.0455469
0.0623835
-0.0124706
-0.0499129
-0.112233
0.0237289
0.0169734
0.09467
-0.0182724
0.0470823
-0.0288099
-0.0418611
0.0701758
-0.0283146
0.0741033
-0.104674
0.0305703
-0.112483
0.0393701
0.0731127
-0.0723913
-0.0618061
-0.0425798
-0.0295991
-0.114881
0.048971
0.0659104
0.0295651
-0.000391443
-0.0291737
-0.0905117
0.0380825
0.0524292
-0.0854447
-0.0527064
-0.034612
-6.94115e-05
0.000404606
-0.000335194
-0.00179993
-0.00453979
0.00633972
-0.060035
-0.0223712
0.0824062
-0.0378663
0.0489356
-0.0110694
0.112799
-0.0804166
-0.0323821
-0.117806
0.0577707
-0.0165648
-0.066652
0.0832168
0.0394875
-0.00992242
0.0668827
0.00964006
-0.0765227
0.0298329
-0.063894
0.0340611
0.120087
-0.0590314
-0.0610559
0.0218539
0.0625191
0.024704
0.0353785
-0.0600825
0.101804
-0.0195571
0.00933736
-0.00910206
-0.000235306
0.0927124
-0.0372362
-0.0554763
0.00240505
0.0564189
0.00232902
-0.0865935
0.0584954
-0.0478554
-0.0914017
0.00548827
0.0103614
-0.000682106
-0.00967927
-0.0186961
0.0846808
0.0560861
0.00629737
0.0297426
-0.0287627
-0.000979947
0.0224904
0.0621001
-0.0160352
-0.0294341
-0.00295845
-0.0132385
0.0161969
-0.0770566
0.00751644
0.00064244
-0.0913327
0.0451774
0.0769145
-0.009775
-0.0325016
0.0422766
0.0429866
0.0668294
0.0635368
-0.0388328
-0.0283538
-0.0169746
0.0453284
0.0685588
0.0340059
-0.0331168
0.00673561
0.03309
0.0422617
-0.0753516
0.0175094
0.00266872
-0.0201781
0.0294538
0.0184674
-0.0479212
-0.000260844
0.000230839
3.00057e-05
-0.000241745
-1.90996e-05
0.0015655
0.00777186
-0.00248624
0.0800958
-0.0812843
0.0661985
0.0150857
-0.0225434
-0.0151587
0.0377022
0.0550405
-0.0625252
0.00748463
0.101405
-0.0836725
-0.0177325
0.0322799
0.0329285
0.100963
-0.0263978
-0.0745654
0.123362
-0.030957
-0.0924052
0.0841434
-0.0816463
-0.0349328
0.0251578
-0.0977264
0.0525819
0.0451445
0.0118183
0.0587118
-0.0705302
-0.0459167
-0.0301442
0.0760609
0.1106
-0.0561711
-0.0544289
-0.0681214
-0.04676
0.0574208
0.0439842
-0.0533029
0.0687217
-0.0154187
0.0851085
-0.0841038
-0.00100469
0.101096
-0.0596127
-0.041483
0.103195
0.0316293
0.106505
-0.041392
-0.0651129
0.0814672
-0.00926646
0.024362
-0.0426343
-0.110012
0.102394
0.00761838
-0.0800135
0.0630328
0.0169806
-0.0529018
0.0743435
0.00258474
-0.118092
0.0531288
-0.0746884
0.0215596
0.0859104
-0.0528204
0.00113076
-0.0726296
0.0714988
-0.0206506
-0.0961121
0.0505673
0.0455448
-0.125615
0.0379415
0.0876734
-0.114528
0.0237364
0.0907913
0.00145575
0.0432334
-0.0446891
0.0472756
-0.0285694
-0.0223015
-0.0372967
0.0595982
-0.0820666
-0.00844507
-0.104418
0.0729678
0.0314502
0.096435
0.00466079
-0.0835758
0.0670111
0.0216903
-0.000830293
0.010346
-0.0309971
0.0206511
0.105638
-0.02053
0.0686255
-0.00174289
0.0536378
-0.0866299
0.0329921
-0.00823372
-0.0282614
-0.082655
0.00801908
-0.0587691
-0.0225152
0.0791307
0.0482145
-0.0666872
0.0248261
-0.0594404
-0.0152881
0.0747285
0.0544162
-0.0119772
0.0668128
-0.000271137
-0.0665417
0.100282
-0.0427691
-0.0575134
-0.0199327
-0.0515245
0.0714573
-0.0212169
0.0953202
0.0534456
0.0439578
-0.0974033
-0.0127356
-0.0833765
-0.0316157
0.0102464
0.0213693
-0.00980532
0.0111758
-0.0217988
0.0201384
0.111782
-0.0208028
-0.107827
0.0853744
0.0224529
-0.101761
0.0386026
0.0631581
-0.0302732
0.0601061
-0.12254
0.00685246
0.0648767
-0.0545774
-0.0102994
-0.00784591
-0.0485223
-0.0613402
0.0766331
0.00617181
0.0181418
-0.0243136
0.0106435
0.0260627
-0.0367063
-0.000248168
-0.0239938
0.024242
0.0132477
0.00487667
-0.0181244
-0.0645574
-0.00234826
0.0669057
-0.0736028
0.00904538
-0.0185811
-0.00774162
0.0263227
-0.0846013
0.0854723
0.123658
-0.123844
0.000186208
0.0165235
0.0228826
-0.0394061
-0.0333761
0.0108815
0.0224945
0.0531598
0.0704977
0.0828751
0.0174074
-0.00765998
0.00657359
0.00108639
0.0306592
0.0894281
0.000377731
-0.000447143
-0.0184702
-0.0131455
-0.0122624
-0.0366731
0.0489356
0.0798281
0.0266768
0.0494103
-0.0818285
0.0324182
-0.027768
-0.00810959
0.0358776
0.00641165
-0.0341796
-0.030568
-0.0132096
0.0437776
0.0180552
0.00605372
-0.0241089
-0.000468092
0.000343715
0.000124377
0.125028
-0.0424325
-0.0825952
0.0688934
0.0561344
0.078208
-0.0805662
0.00235813
-0.0321333
-0.00848243
0.0406157
0.107639
-0.0517414
-0.055898
-0.0574058
-0.0682091
0.0876321
-0.0969364
0.00930428
0.0370404
-0.0205168
-0.0115766
0.067142
-0.0555655
0.00514342
0.0479853
0.103353
-0.00748585
-0.0958672
0.0227601
0.080593
0.00211894
-0.0585449
-0.0390558
0.0165124
-0.0294121
0.0309803
-0.00156821
-0.0351982
-2.77254e-05
0.035226
0.00582061
-0.0753612
0.0695406
-0.0298911
0.0879737
-0.0580827
0.0299615
0.0238379
-0.0537994
-0.0275074
0.000631868
-0.0834757
-0.0142507
-0.0992595
0.0656275
0.033632
-0.0452383
-0.0219977
0.067236
-0.0163584
0.0133483
0.0030101
-0.0804104
0.0505194
0.00463692
0.0251057
-0.0073461
-0.0278521
-0.00415112
0.00451893
-0.000367808
0.0519842
-0.0213832
-0.030601
0.0213903
-0.0763739
0.0549835
-0.024178
0.0232607
0.000917306
0.0705718
-0.0357725
-0.0347993
0.00453886
-0.090322
0.107441
-0.0242811
-0.0831594
0.111333
-0.0933633
-0.0179698
0.069523
-0.00271014
0.0672892
-0.0896994
0.0224102
-0.0410238
-0.0448357
0.0858596
0.0926308
-0.0253416
-0.0724767
0.0525439
0.0475412
-0.0680744
0.0205332
0.0310489
0.0432604
-0.0743094
0.0532847
-0.0518289
-0.100011
0.0908422
0.00916921
0.0559951
-0.0668412
0.0108461
-0.0156845
0.0260306
0.0794924
-0.110647
0.0311545
0.0630583
0.0020971
-0.0651554
0.0832249
-0.0805263
-0.00269858
0.0896271
0.0113361
0.064344
0.0119674
-0.0763114
0.00970264
-0.0428454
0.0331427
0.0989495
-0.021981
-0.0769686
0.0338012
-0.0561027
0.0270884
0.0434834
0.0537415
-0.0947654
-0.0582037
0.0276356
-0.0714261
0.00806238
0.0633637
0.0149853
0.00359704
-0.0185824
0.00799346
-0.0327668
0.0247734
0.0240843
-0.0179124
0.0653229
0.0235475
-0.0888704
-0.00428899
0.0691657
-0.00823861
0.00643868
-0.0238681
-0.00230905
0.0261771
0.0619099
0.00243413
-0.0205455
0.0739911
0.0738883
-0.0428394
0.00920884
0.00271646
-0.0119253
-0.0939428
0.00983892
0.0841039
-0.12819
0.115115
0.0130745
-0.024887
0.00630592
0.00830725
-0.0321753
-0.0881775
0.0287371
0.0203448
-0.0655831
0.0358974
0.00448619
-0.0379949
0.0890554
-0.0510605
0.0153359
0.0641565
-0.0137562
0.0687968
-0.0112835
0.0649213
0.00299664
-0.000920593
-0.00207604
0.0655053
-0.0832809
0.0177756
-0.0518088
0.0791645
0.0300475
0.0191575
-0.049205
-0.0728629
0.0739937
0.0346257
0.0728148
-0.0587685
-0.0108379
0.0666831
-0.0548647
0.0504638
-0.066303
0.0158392
-0.00571716
-0.0321491
0.0575663
0.0290947
-0.086661
0.0700683
0.00958898
-0.0796573
0.050226
0.00175828
0.0431102
-0.089027
0.0991465
-0.0397026
-0.059444
0.0144717
0.0731604
0.0534546
0.0600079
-0.08375
0.0123239
-0.0714919
0.00594398
0.0655479
-0.0117475
0.044352
-0.0326044
-0.026513
-0.0376065
0.0641195
0.132447
-0.0798572
-0.0525901
-0.0373622
-0.0672078
-0.0882838
0.0921577
-0.00387396
-0.0310283
-0.0834995
0.0236083
-0.0103606
0.000566595
-0.00044732
-0.000119275
-0.0699167
0.0583401
0.0508637
-0.00446097
-0.0164248
-0.0501384
0.0665632
0.00971556
0.000645812
-0.0205672
-0.0252537
0.0458209
-0.0915668
-0.0101939
0.0542296
0.0585691
0.0493865
0.0830608
0.0918224
-0.0343773
-0.0574451
0.0484763
-0.0569069
0.0084306
-0.0310425
-0.048971
-0.0341321
0.0916984
0.0439233
-0.0342207
-0.0883533
-0.00431065
0.092664
-0.121409
0.0945122
0.0268964
-0.088375
0.0137881
0.0745869
0.113213
-0.00261333
0.116803
-0.0616555
-0.0551475
-0.0343332
-0.0348828
0.069216
0.0972668
0.0195362
0.00602946
-0.0943828
-0.00308143
-0.0502215
0.126547
-0.0674183
-0.0591284
-0.0892571
-0.0127855
0.102043
0.141498
-0.0483149
-0.093183
0.0256538
0.0124751
-0.0381289
0.11298
-0.109153
-0.00382635
0.104342
-0.0342733
0.0216344
-0.00917583
0.0225922
-0.0134163
0.0160498
0.0386698
-0.0547196
0.0440665
0.0672666
-0.00075941
0.0102498
-0.00949043
-0.0725809
0.0820409
-0.00946002
0.0448559
-0.117437
0.105101
-0.0132783
0.0143465
-0.00513765
-0.0142748
-0.0381842
0.0524591
0.0904789
-0.0266929
-0.0637861
-0.0214408
-0.0412758
0.0627166
0.0637576
0.0596046
-0.0905641
0.0856269
0.00493718
-0.0264077
-0.0220123
0.0484201
-0.000201449
0.0260874
-0.025886
-0.092845
-0.0190359
0.111881
-0.0189501
-0.000458256
-0.097209
0.00892524
0.110662
-0.080494
-0.0301676
-0.0944308
0.0564359
0.0195812
0.0586269
-0.00209732
0.016261
-0.0141637
-0.0191799
0.0162214
-0.122912
0.0586978
0.064214
0.0607844
-0.0275006
-0.0332839
-0.0275057
0.077636
-0.0501302
0.00655578
-0.0120244
0.0054686
-0.0987069
0.0867175
0.0119894
0.123235
-0.012665
-0.11057
0.110969
-0.0456464
0.0853178
0.0379169
-0.00512567
0.0116814
0.0381504
-0.0271831
-0.0109673
-0.0716844
0.0193693
0.0523151
-0.0584889
-0.0665032
-0.00518118
0.0380604
-0.0519202
0.0138598
0.0635129
-0.00751772
-0.0170533
-0.0625031
0.0795564
0.0290437
0.00910677
-0.0837809
0.00329673
0.0804842
0.0384914
0.0346267
-0.0731181
0.0212671
-0.0480537
0.0267866
-0.0586957
-0.0627129
-0.0355273
-0.0723
0.0255856
0.0127407
-0.0383264
0.057922
0.0946
0.036253
-0.0282595
0.00482504
-0.00175843
-0.00306661
-0.096979
0.106206
-0.00922697
0.0694063
-0.0931695
0.0237632
-0.062629
0.0282958
-0.00718451
-0.000475475
0.0208301
-0.111394
-0.0805391
0.0770046
0.00353451
1.63643e-05
0.000214474
-0.0828017
0.0663769
-7.47696e-05
-0.000166975
0.0678902
-0.0209608
-0.0469294
0.0309077
-0.0426553
-0.0701022
-0.000984901
0.0710871
-0.00268872
-0.026022
0.0287107
0.111238
-0.0299738
-0.0812643
-0.0583303
0.0996928
-0.0413625
0.0729909
-0.00960254
-0.0633884
-0.0642947
-0.00719723
0.0968363
-0.0446436
-0.0296421
0.00546411
-0.0135713
-0.0864402
-0.0468993
-0.0812907
-0.0657468
0.0290328
0.036714
-0.0197642
0.0826483
-0.0628841
-0.0137285
0.0618502
-0.0481217
-0.0123808
-0.0804642
-0.0428401
0.0484277
-0.00558759
0.000673822
0.0373866
-0.082551
-0.00704621
0.0895972
0.00033335
0.0556242
-0.0559576
0.0850186
-0.0120276
0.0255638
-0.0591497
0.0335859
-0.0155936
0.126255
0.0687546
-0.0431907
0.0908879
0.0167515
0.0119127
0.0713121
0.075521
-0.0915441
0.0160231
0.0186928
-0.0725043
0.0538115
-0.0482935
0.0883292
-0.0400357
0.0605286
0.0407493
-0.0349592
-0.0458476
0.0808068
-0.0161075
-0.0402135
0.056321
-0.00730413
0.057768
-0.00239363
-0.0480127
0.0504064
0.0919343
0.000778135
-0.0501942
0.0237865
0.0641858
0.0166759
-0.0808617
0.0924732
-0.0223242
-0.070149
0.0385187
-0.0340395
-0.0044792
-0.141043
0.0479708
0.0930721
0.00734511
-0.0591062
0.0517611
-0.0526298
-0.00536125
0.0579911
0.0112552
-0.0759248
0.0646697
-0.0897966
0.0376487
0.0521479
0.0136934
0.00691933
-0.0206128
-0.112635
0.0288539
0.0924146
0.0906013
-0.0398655
-0.0507358
0.044107
-0.0602144
0.0245622
-0.0464681
-0.00858468
0.0550528
-0.0928471
0.0712698
0.0215774
-0.0408612
-0.0691507
-0.0629604
0.0742156
-0.0162797
-0.0729774
-0.013185
0.0388389
0.106816
-0.0582812
-0.0485347
-0.0822724
0.0477749
0.0344975
-0.0219573
0.0713676
-0.0554577
0.0431953
-0.00656325
-0.00979518
-1.00923e-05
0.000149223
-0.000139131
0.092937
-0.064826
-0.0281111
-0.00196623
-0.00167641
0.00364264
0.0803325
-0.0203971
-0.0599354
-0.0983739
-0.0245379
0.116566
-0.0626347
-0.0539316
0.108317
-0.0279846
0.0993077
-0.0963967
-0.00291094
0.0583912
-0.0781554
-0.116005
0.0665405
0.0494642
0.0331386
0.0661691
-0.0986389
0.0824226
0.0162163
-0.0282407
-0.0522984
-0.0280313
0.0299795
-0.0019482
-0.0263979
0.0331903
-0.00679237
-0.0154645
0.0145208
0.000943741
-0.0013828
-0.0406179
0.0420007
0.00382707
0.000997974
-0.0438721
-0.0459246
1.97209e-06
0.000564622
-0.0553448
0.0925238
-0.0371791
0.0379221
-0.0772539
0.0393317
-0.0447537
0.040208
0.00454574
-0.0399203
0.0778425
-0.0196848
0.0890911
-0.0732818
0.0324475
0.0408342
-0.0426768
0.0573272
-0.0146504
-0.0704919
0.0383587
0.0685794
-0.0149658
-0.0536135
0.0395265
0.0178984
-0.0574249
-0.0413758
0.039993
0.115122
-0.0161721
0.0430238
-0.013711
-0.0293128
0.0720956
0.0048723
-0.0769679
-0.061305
-0.0293052
0.0906101
-0.0598034
0.0133353
0.0295819
-0.0322706
-0.0689535
-0.0720894
0.0230583
-0.0713518
-0.0727343
0.0565028
0.0162315
-0.0219898
0.0432569
0.0950601
-0.0574498
-0.0376103
-6.49665e-05
0.0209726
-0.0209076
0.0970292
-0.0466621
-0.0503671
0.111697
-0.0405879
-0.0711094
0.0394657
0.028488
-0.0679537
-0.0219913
-0.0227624
0.00995117
0.000699096
-0.0106503
0.0938752
0.0200028
0.0700383
-0.0900411
0.00464191
-0.0599867
-0.0221208
0.0780444
-0.0559237
-0.0120959
0.0415498
0.104079
-0.0233105
-0.0807685
-0.0582694
0.0403066
-0.0696715
-0.00207568
0.0717472
0.0595053
-0.0944645
-0.0385248
0.0370972
0.00142757
-0.0382779
0.0543277
-0.0249497
-0.0538715
0.0788212
-0.0905659
0.0722931
0.0182728
0.0450199
0.0295882
-0.0746081
0.0464232
0.00711529
-0.0535384
-0.0343213
0.00792338
0.034091
0.00893285
0.0107895
-0.0199653
-0.0586004
0.031185
0.0274153
0.0799132
-0.00604386
-0.0738694
0.0322159
-0.0147066
-0.065529
0.0728741
-0.0794058
0.124645
-0.0452393
0.00165686
-0.0444969
0.00917995
-0.0885858
-0.0994495
0.0381445
0.0448516
-0.0039911
-0.0408605
-0.0986389
-0.0869859
0.0699326
-0.000482648
-0.00119529
0.00167794
0.0498749
-0.0748246
0.0492475
-0.0192
-0.00971742
-0.0482019
0.0579193
0.0541095
-0.0762303
-0.0660779
0.0586979
0.00737999
-0.0616592
0.0674798
-0.0201462
0.0526438
-0.0324977
-0.0452988
-0.0133016
0.0871549
-0.0657646
-0.0542128
-0.021149
0.0753619
0.046447
0.0602691
-0.106716
-0.0877311
0.0519906
0.0357405
0.029425
0.0458332
-0.0752582
-0.0383314
-0.0586477
0.0543366
0.00280441
-0.057141
0.0319142
0.0810654
0.0815854
-0.042059
-0.0342681
-0.0314786
0.0056233
0.0133247
-0.018948
0.00670027
-0.0878184
0.0811181
-0.0436887
-0.00199736
0.0456861
0.0884315
-0.0911948
0.00276327
0.00398143
0.0289454
-0.0329268
0.0141466
-0.0162439
0.0357306
-0.0888445
0.053114
0.0518631
0.0255721
-0.0774351
-0.0277419
-0.0882629
-0.00336197
0.0170554
0.0672636
-0.0845657
0.017302
-0.0904467
-0.000464124
0.0909108
0.036643
0.0402272
-0.0768702
-0.051561
0.0497456
0.00181542
-0.0141028
-0.0742722
0.011204
-0.0154287
0.00422474
0.0563412
-0.00991805
0.0241527
-0.0181884
-0.00596428
0.0828291
-0.0197708
0.020533
-0.0658933
0.0453603
-0.068176
0.0155462
0.0984307
-0.0348784
-0.0635524
-0.0253246
0.0647903
-0.0559753
0.103446
-0.0474711
0.10371
0.00779407
-0.111504
-0.0653156
-0.00916199
0.0744776
0.00897161
-0.0817059
0.100496
-0.0699295
-0.0305667
-0.0387099
0.0564697
-0.0177598
0.0985744
-0.0467114
-0.0586961
0.0786989
0.0362035
-0.0364516
0.0144946
-0.0828419
0.0683473
-0.0909596
0.0256441
0.0189431
-0.0191446
0.0731129
-0.00453353
0.0651754
-0.035044
-0.0301314
-0.0273374
0.0158018
0.0115356
0.00919396
-0.00995337
-0.0282761
-0.0542748
0.0950016
-0.0699155
-0.0250862
0.0110326
-0.0730562
0.0620237
-0.113475
0.0320609
0.0814144
0.0189452
0.0847646
0.0814453
-0.0141817
0.018344
0.054116
-0.07246
-0.130015
0.0601108
0.0699041
-0.0964491
-0.0335658
-0.0421887
0.0700205
-0.0278318
0.00626188
-0.00624142
-2.04562e-05
-0.0755017
-0.0180986
0.0936003
-0.00559429
-0.0663198
0.0719141
0.0375742
-0.0269307
0.00539255
-0.0391918
0.0337993
0.0391133
-0.0391783
-0.118809
0.00533349
0.091446
-0.0727532
0.0118755
-0.0204805
0.00860506
0.0842687
-0.00424796
-0.0800207
0.0400929
-0.0886233
0.0485304
-0.0349863
0.082245
-0.0472587
-0.125801
0.0533239
0.0724772
0.037299
-0.0319064
0.0422813
-0.117783
0.0350303
-0.0665542
0.031524
-0.102282
0.0645564
0.0377261
0.0552408
-0.0419582
-0.0132826
0.104829
-0.052304
-0.0525246
0.00336742
-0.0726656
0.0692981
-0.0269185
-0.00645757
0.0909323
0.0131466
0.030676
-0.0628868
0.0322108
0.0849035
-0.0448106
-0.0305052
-0.0563972
0.0869024
-0.0381458
0.00548384
0.032662
-0.0711682
-0.0546329
0.0758064
0.0192537
0.00549073
0.00114026
-0.006631
-0.0768948
0.0879273
-0.0665976
0.0248061
0.0417915
-0.0740895
0.0457357
0.00878619
0.0559206
-0.0647068
-0.0413093
-0.044151
0.0854602
-0.0368379
0.0393038
-0.00246588
0.00644809
0.0819834
-0.0523293
-0.0299431
-0.059821
0.0392538
-0.042422
-0.056285
-0.065217
0.00411577
0.0611012
0.0140009
0.0789361
0.0356903
0.056783
0.0285023
-0.0832824
0.05478
0.0618276
0.043001
-0.0138791
-0.046284
0.0601631
-0.0801244
0.0312837
0.0488406
-0.097598
0.018368
0.07923
-0.0940058
0.0190291
0.0749767
-0.0416335
-0.0521917
0.0938252
-0.00639846
0.00224734
-0.00691254
-0.0296393
-0.0783719
0.0543208
0.024051
-0.00227744
0.056614
0.113822
-0.102694
-0.0111283
-0.0469574
0.0754597
0.0343423
-0.0162871
-0.00497997
0.0317578
-0.0267779
-0.0311588
0.0982198
-0.067061
0.00187228
-0.00235493
0.0611394
-0.0696277
0.00848826
-0.102095
0.0694632
0.0326316
-0.0732472
-0.0234789
0.0967261
0.0101161
-0.048826
-0.0687482
-0.00962363
0.0451634
-0.0763222
-0.000108562
-0.00035953
-0.00703499
0.0403367
-0.0333017
0.0972378
-0.0678129
-0.0601394
-0.0421431
0.0694245
-0.0935473
0.0241228
0.00525034
-0.00531699
6.66452e-05
-0.0499461
-0.037785
-0.0183589
-0.0264718
0.0448307
0.0472625
-0.0943895
0.047127
-0.031429
0.0664592
-0.0715882
0.0803744
-0.0235821
-0.00375534
-0.0409132
0.0881758
-0.0777442
0.0125273
0.0814389
-0.0727782
-0.00866078
-0.0466894
0.0312934
0.015396
-0.0815617
0.0960563
-0.00788909
0.0637011
-0.055812
0.0945455
0.0171517
0.0152758
-0.00532465
-0.0437113
0.0794967
-0.0357854
0.0993342
-0.034474
-0.0648602
0.0463886
0.00885219
0.0144072
0.053483
-0.0405782
-0.0615166
0.0200928
-0.09334
-0.0505908
0.0322319
0.0363803
0.107115
-0.0100862
-0.00254779
0.0500653
-0.0475175
0.0704816
-0.0440037
-0.0264778
0.000875761
-0.0435526
0.00499429
0.00969769
-0.014692
-0.00236775
-0.000262813
0.00263056
-0.0666182
0.0642246
0.051744
-0.0596331
-0.0477828
-0.0507592
0.00860557
0.0195222
-0.0281278
0.056792
-0.026116
-0.0879098
0.0723154
0.0155944
-0.103924
0.0689378
-0.0213741
-0.0549575
0.0763317
-0.0593115
-0.0451065
-0.0902793
0.00288285
0.0873964
0.090951
0.0083832
-0.0517093
0.0584095
-0.0361497
0.00519534
0.0309544
-0.115213
0.0674273
0.0477861
0.113525
-0.0380819
-0.0754432
-0.0634597
0.019771
0.0760523
-0.0760523
0.0635014
-0.0940066
0.0321508
-0.0171655
-0.0456659
0.0344504
0.0112155
-0.0783734
0.0787067
0.00511154
-0.074783
-0.00764994
0.0133095
-0.00565956
-0.0912367
0.0697958
0.00268009
0.000316549
0.0788456
-0.0121634
-0.0666822
0.088441
0.00998971
0.0688394
-0.0147431
-0.0540963
-0.0942235
0.0382482
-0.0847412
0.035109
0.0496322
-0.0170266
-0.0286393
0.0711498
-0.112413
0.0412637
-0.00865109
-0.0564151
0.0650662
0.0864559
-0.0770896
-0.00936624
0.0994437
-0.0943632
-0.0050805
-0.0262224
-0.0023744
0.0285968
0.0633735
-0.0739543
0.0105807
0.0152669
-0.0573151
0.0420481
0.04834
0.0651851
0.000126129
0.00613575
-0.02538
0.00280747
0.0225725
0.0851168
-0.0386698
-0.0885247
0.0893293
-0.000804644
0.064036
-0.107493
0.0434575
0.0762639
0.0336079
-0.109872
0.00761058
0.076207
-0.0838176
-0.105047
0.0836724
0.0921584
-0.0337433
-0.0584151
0.0932372
-0.0243061
-0.0689311
-0.0602131
-0.0283364
0.0885495
0.0326169
0.0591939
-0.0918108
-0.00476975
-0.0707355
0.0755052
0.08633
0.0020488
-0.0883788
0.130673
-0.0512401
-0.079433
-0.060615
0.101408
-0.0407935
-0.130387
0.0733649
0.0570218
-0.102933
0.0265672
0.0763658
0.0811877
-0.0788933
-0.00229438
-0.0679283
0.0623341
0.0231514
-0.077528
0.0543765
-0.00561178
0.0767616
0.00018173
-0.0251279
0.0249462
-0.0351933
0.111457
0.0390011
0.0355891
-0.0745902
-0.0861972
-0.0160992
0.102296
0.0418901
0.0188943
0.0833367
-0.0646904
-0.0186464
0.131828
-0.027363
-0.104465
-0.0675645
0.0341771
0.0333874
0.0469284
-0.0468021
-0.000126362
0.103821
-0.0325712
-0.0712493
-0.0294033
0.101248
-0.0718447
-0.0337776
-0.0500568
0.0838344
0.0777496
-0.0338054
0.0171467
0.0099123
-0.027059
0.00529864
0.00303834
-0.00833698
0.0466938
0.000326584
-0.0877229
0.0176918
0.070031
0.0680921
-0.0944669
0.0263748
0.0452286
-0.000645731
-0.0445829
-0.0260896
0.0431318
-0.0170422
0.0929216
0.00757463
0.0805581
-0.0448275
0.0961446
-0.0490431
-0.0471015
-0.0158838
-0.0235227
0.0394065
0.1145
-0.0589982
-0.0555021
0.0143478
0.067503
-0.0818508
0.0353148
0.0295208
-0.0648356
-0.125002
0.0520249
0.0729766
0.0612105
0.0300508
-0.0912613
-0.0910376
0.03624
0.0547975
-0.00364683
0.00364683
-0.0113871
0.115208
0.000579357
-0.000467512
-0.000111844
0.0285899
0.0569535
-0.0855434
0.059938
-0.0323509
-0.0275872
-0.0906017
0.0366231
0.0539786
-0.053096
-0.046498
0.099594
-0.0517577
0.0546608
-0.00290311
-0.00630911
-0.0619093
0.0682184
0.0144056
0.0665118
-0.0809174
-0.0508234
0.0582712
-0.00744788
0.00461461
0.0227079
-0.0273225
-0.0514514
0.090133
-0.0386816
0.00920396
-0.0338642
-0.111821
0.0488498
0.0629708
-0.00508535
0.078567
-0.0734817
0.102114
0.00115206
-0.103266
0.00149148
-0.000155794
-0.00133568
0.018251
0.0459746
-0.0642256
0.0489231
-0.0575742
-0.0222496
0.0916741
0.0292711
-0.0529367
0.0236656
-0.0508342
-0.0167303
-0.0289718
-0.0534092
0.082381
0.0863457
-0.0717518
-0.0145939
0.0265016
-0.0439955
0.0174939
0.0608563
0.0412575
0.0382393
0.0496698
-0.0879091
-0.103915
0.028887
0.0750277
-0.0498902
-0.052897
0.102787
-0.0203494
0.0632233
-0.042874
-0.000468368
0.0528232
-0.0523548
0.0967501
-0.0508237
-0.0459264
0.0235062
-0.0734893
0.0499832
0.112741
-0.0533786
-0.0593626
0.0802025
-0.016829
0.0824963
-0.0316987
-0.0507976
-0.110293
0.0439607
0.0663318
0.0525525
-0.102269
0.049716
-0.0188697
0.00280376
0.0160659
0.0840097
-0.00516411
-0.0158754
-0.0141454
0.0300208
0.076847
-0.0995955
0.0227485
0.0593093
0.0245596
-0.0838689
-0.00997524
0.0277261
-0.0177508
0.0106797
-0.0521953
0.0415156
-0.134031
0.0786033
0.0554272
0.0725634
-0.0947299
0.0221664
0.0676256
-0.0238839
-0.0437417
0.048168
-0.0193932
-0.0287749
-0.0565977
0.00365994
0.0529378
-0.0909433
0.0773016
0.0136417
-0.107043
0.0403908
-0.0831538
0.0512513
0.0319026
-0.0634738
0.0606463
0.00282744
0.0188393
0.00785762
-0.0266969
0.000251069
0.0460021
-0.0462532
0.128602
-0.0746873
-0.0539147
0.0680545
-0.05306
-0.0149945
-0.00733185
-0.0110527
0.0183846
-0.00735867
0.0991014
-0.0917427
-0.0690372
0.0310769
0.0379603
-0.0263856
-0.0439221
0.0703077
-0.0746208
-0.0182267
0.0928475
-0.0343613
0.00494921
0.0773361
-0.100227
0.0228911
0.0931241
-0.0643781
-0.028746
-0.0821185
0.0885245
-0.00640596
-0.126652
0.0650779
0.0615742
0.0128303
-0.0129581
0.000127841
0.0303409
-0.0246315
-0.00570941
0.0538932
-0.0718611
0.0179679
0.0976308
-0.0790793
-0.0185515
-0.0087447
-0.0553253
0.06407
0.068615
0.031385
0.0309603
0.00369212
-0.0346524
0.0221233
0.0629669
-0.0850902
0.0374976
-0.0311989
-0.00629875
0.039417
0.00244665
-0.0418636
0.0859954
0.0267458
0.107687
-0.114117
0.00643014
-0.0710951
-0.000621165
0.0717163
0.103564
-0.00963197
-0.0939323
-0.0464287
0.0136687
0.0327601
0.0141666
0.0935199
0.0563267
0.00461406
-0.0609408
0.102071
0.00605442
-0.108125
0.0801237
0.0140805
-0.0942042
0.0479104
0.0244492
-0.0723596
0.0399846
0.0284094
-0.068394
0.00494466
0.097126
0.0880905
-0.00205052
-0.0860399
0.0953249
0.00823937
-0.0738445
0.0291005
0.044744
0.042097
-0.045578
0.00348097
-0.0374675
0.0341072
0.00336022
0.0645851
-0.0355172
-0.0290679
-0.00859013
-0.00150591
0.010096
0.0427284
0.022447
-0.0600691
0.0400953
0.0199738
-0.0358674
0.0698145
-0.033947
0.0259176
0.0161383
-0.0420559
-0.105361
0.106124
-0.000762349
-0.0521436
0.0191666
0.032977
-0.0156273
-0.0626828
0.0783101
0.0381334
-0.0634209
0.0252875
0.0391557
-0.0342485
-0.00490725
0.0984208
-0.106959
0.00853782
0.0215869
-0.0225896
0.00100268
-0.0164941
-0.0639235
0.0804176
0.0404364
-0.0838263
0.0433899
0.0395701
-0.0174611
-0.0221091
0.0320029
-0.045882
0.0568374
-0.0885913
0.031754
0.118137
-0.0181307
-0.100006
-0.110507
0.0124243