/*--------------------------------*- C++ -*----------------------------------*\
  =========                 |
  \\      /  F ield         | OpenFOAM: The Open Source CFD Toolbox
   \\    /   O peration     | Website:  https://openfoam.org
    \\  /    A nd           | Version:  9
     \\/     M anipulation  |
\*---------------------------------------------------------------------------*/
FoamFile
{
    format      ascii;
    class       surfaceScalarField;
    location    "0.35";
    object      phi;
}
// * * * * * * * * * * * * * * * * * * * * * * * * * * * * * * * * * * * * * //

dimensions      [0 3 -1 0 0 0 0];

internalField   nonuniform List<scalar> 
1740
(
1.79087e-08
-1.798e-08
1.40972e-08
3.81172e-09
-2.58226e-08
3.99196e-08
-9.98913e-08
7.4069e-08
-2.01271e-07
1.0138e-07
-3.21832e-07
1.20561e-07
-4.53527e-07
1.31694e-07
-5.8896e-07
1.35432e-07
-7.21536e-07
1.32575e-07
-8.45446e-07
1.2391e-07
-9.55604e-07
1.10158e-07
-1.0476e-06
9.19917e-08
-1.11767e-06
7.00742e-08
-1.16278e-06
4.51057e-08
-1.18065e-06
1.78748e-08
-1.16995e-06
-1.07023e-08
-1.13039e-06
-3.95574e-08
-1.06292e-06
-6.74681e-08
-9.69841e-07
-9.30808e-08
-8.54882e-07
-1.14959e-07
-7.23223e-07
-1.31659e-07
-5.81404e-07
-1.41819e-07
-4.37131e-07
-1.44272e-07
-2.98969e-07
-1.38162e-07
-1.75898e-07
-1.23071e-07
-7.66852e-08
-9.92123e-08
-8.9124e-09
-6.77729e-08
2.26668e-08
-3.15792e-08
1.96155e-08
3.05139e-09
1.96155e-08
-3.01865e-09
-1.49615e-08
-6.56527e-08
6.64462e-08
-2.04601e-07
1.78868e-07
-4.16486e-07
2.85953e-07
-6.8872e-07
3.73614e-07
-1.00457e-06
4.36415e-07
-1.34612e-06
4.73236e-07
-1.69583e-06
4.85149e-07
-2.03742e-06
4.74166e-07
-2.35611e-06
4.426e-07
-2.63879e-06
3.92828e-07
-2.87403e-06
3.27236e-07
-3.05224e-06
2.48284e-07
-3.16575e-06
1.58621e-07
-3.20909e-06
6.12077e-08
-3.17921e-06
-4.05765e-08
-3.07589e-06
-1.42882e-07
-2.90196e-06
-2.41399e-07
-2.66359e-06
-3.31444e-07
-2.37042e-06
-4.08136e-07
-2.03543e-06
-4.66648e-07
-1.67472e-06
-5.02533e-07
-1.30688e-06
-5.12107e-07
-9.52166e-07
-4.92877e-07
-6.3121e-07
-4.44027e-07
-3.63348e-07
-3.67075e-07
-1.64248e-07
-2.66873e-07
-4.26712e-08
-1.53157e-07
4.23231e-09
-4.38532e-08
2.38479e-08
-3.90988e-08
2.41369e-08
-1.8025e-07
2.07597e-07
-4.28992e-07
4.2761e-07
-7.76454e-07
6.33416e-07
-1.20476e-06
8.01923e-07
-1.69116e-06
9.22813e-07
-2.211e-06
9.93073e-07
-2.7397e-06
1.01385e-06
-3.25394e-06
9.88406e-07
-3.73227e-06
9.20923e-07
-4.15545e-06
8.16011e-07
-4.50673e-06
6.78516e-07
-4.77202e-06
5.13581e-07
-4.9402e-06
3.26799e-07
-5.00341e-06
1.24419e-07
-4.95749e-06
-8.6503e-08
-4.80235e-06
-2.98018e-07
-4.54242e-06
-5.01331e-07
-4.18687e-06
-6.86993e-07
-3.74976e-06
-8.45249e-07
-3.24986e-06
-9.66546e-07
-2.71021e-06
-1.04219e-06
-2.1572e-06
-1.06511e-06
-1.61933e-06
-1.03074e-06
-1.12538e-06
-9.37978e-07
-7.02073e-07
-7.90383e-07
-3.71167e-07
-5.97779e-07
-1.45986e-07
-3.78338e-07
-2.75394e-08
-1.623e-07
-3.69165e-09
-7.62379e-08
1.00375e-07
-3.00265e-07
4.31624e-07
-6.61991e-07
7.89335e-07
-1.14329e-06
1.11471e-06
-1.71959e-06
1.37823e-06
-2.36242e-06
1.56564e-06
-3.04167e-06
1.67232e-06
-3.72741e-06
1.6996e-06
-4.39109e-06
1.65209e-06
-5.00628e-06
1.53611e-06
-5.5492e-06
1.35893e-06
-5.99905e-06
1.12837e-06
-6.33837e-06
8.52896e-07
-6.55336e-06
5.41798e-07
-6.63437e-06
2.05427e-07
-6.57629e-06
-1.44581e-07
-6.3791e-06
-4.95212e-07
-6.04826e-06
-8.32168e-07
-5.59508e-06
-1.14018e-06
-5.03678e-06
-1.40355e-06
-4.39634e-06
-1.60699e-06
-3.70189e-06
-1.73664e-06
-2.9857e-06
-1.78131e-06
-2.28259e-06
-1.73385e-06
-1.62787e-06
-1.59269e-06
-1.05473e-06
-1.36352e-06
-5.91213e-07
-1.0613e-06
-2.5709e-07
-7.12459e-07
-6.11606e-08
-3.5823e-07
-6.48529e-08
-1.11032e-07
2.11407e-07
-4.16397e-07
7.36988e-07
-8.89739e-07
1.26268e-06
-1.50185e-06
1.72682e-06
-2.22024e-06
2.09662e-06
-3.01035e-06
2.35574e-06
-3.83702e-06
2.49899e-06
-4.66582e-06
2.52841e-06
-5.4641e-06
2.45036e-06
-6.20164e-06
2.27365e-06
-6.85123e-06
2.00852e-06
-7.38904e-06
1.66618e-06
-7.79503e-06
1.25889e-06
-8.05334e-06
8.00105e-07
-8.15276e-06
3.04849e-07
-8.08729e-06
-2.10057e-07
-7.85663e-06
-7.2587e-07
-7.46673e-06
-1.22206e-06
-6.93016e-06
-1.67675e-06
-6.26623e-06
-2.06747e-06
-5.5009e-06
-2.37232e-06
-4.66617e-06
-2.57137e-06
-3.79899e-06
-2.64849e-06
-2.93963e-06
-2.59321e-06
-2.12947e-06
-2.40285e-06
-1.40832e-06
-2.08468e-06
-8.11426e-07
-1.65819e-06
-3.66764e-07
-1.15712e-06
-9.30495e-08
-6.31945e-07
-1.57903e-07
-1.43003e-07
3.54411e-07
-5.26002e-07
1.11999e-06
-1.1074e-06
1.84407e-06
-1.84638e-06
2.4658e-06
-2.70183e-06
2.95208e-06
-3.63272e-06
3.28663e-06
-4.59886e-06
3.46512e-06
-5.56174e-06
3.49129e-06
-6.48527e-06
3.37389e-06
-7.33626e-06
3.12465e-06
-8.08488e-06
2.75714e-06
-8.70501e-06
2.28631e-06
-9.17458e-06
1.72846e-06
-9.47601e-06
1.10154e-06
-9.5967e-06
4.25539e-07
-9.52958e-06
-2.77185e-07
-9.27369e-06
-9.8176e-07
-8.83481e-06
-1.66094e-06
-8.22592e-06
-2.28564e-06
-7.46751e-06
-2.82589e-06
-6.58753e-06
-3.2523e-06
-5.62095e-06
-3.53795e-06
-4.6088e-06
-3.66064e-06
-3.5965e-06
-3.60551e-06
-2.63168e-06
-3.36766e-06
-1.76148e-06
-2.95488e-06
-1.02957e-06
-2.3901e-06
-4.73493e-07
-1.71319e-06
-1.22938e-07
-9.825e-07
-2.80842e-07
-1.7253e-07
5.26942e-07
-6.29125e-07
1.57658e-06
-1.31431e-06
2.52926e-06
-2.17586e-06
3.32735e-06
-3.16378e-06
3.93999e-06
-4.23029e-06
4.35315e-06
-5.33016e-06
4.56499e-06
-6.42104e-06
4.58217e-06
-7.46382e-06
4.41667e-06
-8.42292e-06
4.08374e-06
-9.26647e-06
3.60069e-06
-9.96658e-06
2.98642e-06
-1.04996e-05
2.26147e-06
-1.08464e-05
1.44838e-06
-1.09931e-05
5.7219e-07
-1.09312e-05
-3.39103e-07
-1.06586e-05
-1.25433e-06
-1.01803e-05
-2.13925e-06
-9.5088e-06
-2.95712e-06
-8.66487e-06
-3.66982e-06
-7.6776e-06
-4.23958e-06
-6.58425e-06
-4.63129e-06
-5.42951e-06
-4.81538e-06
-4.264e-06
-4.77102e-06
-3.14212e-06
-4.48955e-06
-2.11929e-06
-3.97772e-06
-1.24888e-06
-3.26052e-06
-5.79261e-07
-2.38281e-06
-1.51754e-07
-1.41001e-06
-4.32596e-07
-2.00206e-07
7.27148e-07
-7.26816e-07
2.10319e-06
-1.51165e-06
3.31409e-06
-2.49145e-06
4.30716e-06
-3.60738e-06
5.05593e-06
-4.80489e-06
5.55066e-06
-6.03371e-06
5.79381e-06
-7.24782e-06
5.79629e-06
-8.40549e-06
5.57433e-06
-9.46915e-06
5.1474e-06
-1.04054e-05
4.53696e-06
-1.11851e-05
3.76608e-06
-1.17832e-05
2.85959e-06
-1.21794e-05
1.84454e-06
-1.23581e-05
7.50924e-07
-1.23094e-05
-3.87775e-07
-1.20296e-05
-1.53416e-06
-1.15219e-05
-2.64691e-06
-1.07977e-05
-3.68135e-06
-9.87693e-06
-4.59059e-06
-8.78897e-06
-5.32754e-06
-7.57271e-06
-5.84755e-06
-6.27615e-06
-6.11195e-06
-4.95518e-06
-6.09199e-06
-3.67158e-06
-5.77315e-06
-2.49016e-06
-5.15914e-06
-1.47532e-06
-4.27535e-06
-6.87624e-07
-3.1705e-06
-1.80849e-07
-1.91678e-06
-6.13446e-07
-2.26567e-07
9.53715e-07
-8.2026e-07
2.69689e-06
-1.70096e-06
4.19479e-06
-2.79481e-06
5.40101e-06
-4.03427e-06
6.29538e-06
-5.35807e-06
6.87445e-06
-6.71101e-06
7.14676e-06
-8.0437e-06
7.12898e-06
-9.3121e-06
6.84273e-06
-1.04772e-05
6.31245e-06
-1.15044e-05
5.56421e-06
-1.23638e-05
4.62544e-06
-1.30293e-05
3.52517e-06
-1.34796e-05
2.29479e-06
-1.36975e-05
9.68839e-07
-1.36712e-05
-4.14046e-07
-1.33948e-05
-1.81056e-06
-1.28692e-05
-3.1725e-06
-1.21035e-05
-4.44711e-06
-1.11158e-05
-5.57827e-06
-9.9348e-06
-6.50853e-06
-8.60011e-06
-7.18223e-06
-7.16252e-06
-7.54954e-06
-5.68319e-06
-7.57132e-06
-4.23184e-06
-7.2245e-06
-2.88374e-06
-6.50724e-06
-1.7159e-06
-5.4432e-06
-8.02663e-07
-4.08374e-06
-2.11651e-07
-2.50779e-06
-8.25097e-07
-2.52019e-07
1.20573e-06
-9.10457e-07
3.35532e-06
-1.88366e-06
5.16799e-06
-3.0874e-06
6.60475e-06
-4.44555e-06
7.65354e-06
-5.89028e-06
8.31918e-06
-7.3617e-06
8.61818e-06
-8.80733e-06
8.5746e-06
-1.01813e-05
8.21669e-06
-1.14436e-05
7.57471e-06
-1.25592e-05
6.67983e-06
-1.34977e-05
5.56395e-06
-1.42327e-05
4.26019e-06
-1.47417e-05
2.80381e-06
-1.50063e-05
1.23343e-06
-1.50125e-05
-4.07861e-07
-1.47516e-05
-2.07144e-06
-1.42215e-05
-3.70265e-06
-1.34278e-05
-5.24082e-06
-1.23858e-05
-6.62026e-06
-1.1122e-05
-7.77229e-06
-9.67571e-06
-8.62854e-06
-8.09958e-06
-9.12567e-06
-6.45973e-06
-9.21117e-06
-4.83416e-06
-8.85007e-06
-3.30975e-06
-8.03165e-06
-1.97778e-06
-6.77517e-06
-9.28518e-07
-5.133e-06
-2.4555e-07
-3.19076e-06
-1.07065e-06
-2.76853e-07
1.48259e-06
-9.98179e-07
4.07665e-06
-2.0608e-06
6.23061e-06
-3.37013e-06
7.91407e-06
-4.84149e-06
9.12491e-06
-6.4006e-06
9.87829e-06
-7.98318e-06
1.02008e-05
-9.53409e-06
1.01255e-05
-1.10062e-05
9.68882e-06
-1.23592e-05
8.92772e-06
-1.35584e-05
7.87898e-06
-1.45735e-05
6.57909e-06
-1.53783e-05
5.06497e-06
-1.59497e-05
3.37526e-06
-1.62681e-05
1.5518e-06
-1.63172e-05
-3.58708e-07
-1.60854e-05
-2.30329e-06
-1.55664e-05
-4.22164e-06
-1.47615e-05
-6.04569e-06
-1.36816e-05
-7.70015e-06
-1.23496e-05
-9.10435e-06
-1.08025e-05
-1.01756e-05
-9.09376e-06
-1.08344e-05
-7.29355e-06
-1.10114e-05
-5.48819e-06
-1.06554e-05
-3.7771e-06
-9.74274e-06
-2.26782e-06
-8.28445e-06
-1.06921e-06
-6.33161e-06
-2.83881e-07
-3.97609e-06
-1.35453e-06
-3.01299e-07
1.78389e-06
-1.08407e-06
4.85942e-06
-2.23325e-06
7.37979e-06
-3.64354e-06
9.32436e-06
-5.22159e-06
1.0703e-05
-6.88673e-06
1.15434e-05
-8.57062e-06
1.18846e-05
-1.02161e-05
1.1771e-05
-1.17755e-05
1.12482e-05
-1.3209e-05
1.03613e-05
-1.44832e-05
9.15312e-06
-1.5569e-05
7.66485e-06
-1.64408e-05
5.93686e-06
-1.7076e-05
4.01044e-06
-1.74539e-05
1.92969e-06
-1.75563e-05
-2.5633e-07
-1.7368e-05
-2.49159e-06
-1.68783e-05
-4.71138e-06
-1.60828e-05
-6.84118e-06
-1.49863e-05
-8.79658e-06
-1.36062e-05
-1.04845e-05
-1.19751e-05
-1.18066e-05
-1.01452e-05
-1.26644e-05
-8.18909e-06
-1.29674e-05
-6.20091e-06
-1.26436e-05
-4.29336e-06
-1.16503e-05
-2.59231e-06
-9.98549e-06
-1.22858e-06
-7.69534e-06
-3.27947e-07
-4.87672e-06
-1.68248e-06
-3.25605e-07
2.10949e-06
-1.16884e-06
5.70265e-06
-2.40192e-06
8.61287e-06
-3.90808e-06
1.08305e-05
-5.58485e-06
1.23797e-05
-7.3452e-06
1.33038e-05
-9.11712e-06
1.36566e-05
-1.08421e-05
1.3496e-05
-1.24731e-05
1.28792e-05
-1.39719e-05
1.18601e-05
-1.53073e-05
1.04885e-05
-1.64527e-05
8.81023e-06
-1.73845e-05
6.86868e-06
-1.8081e-05
4.70695e-06
-1.85215e-05
2.37017e-06
-1.86861e-05
-9.17596e-08
-1.85562e-05
-2.62146e-06
-1.8116e-05
-5.15156e-06
-1.73545e-05
-7.60269e-06
-1.62687e-05
-9.8824e-06
-1.48677e-05
-1.18855e-05
-1.31775e-05
-1.34968e-05
-1.12455e-05
-1.45963e-05
-9.1448e-06
-1.50682e-05
-6.97562e-06
-1.48128e-05
-4.86415e-06
-1.37618e-05
-2.95678e-06
-1.18929e-05
-1.41029e-06
-9.24182e-06
-3.79051e-07
-5.90797e-06
-2.06153e-06
-3.50137e-07
2.45963e-06
-1.25356e-06
6.60607e-06
-2.56826e-06
9.92758e-06
-4.16467e-06
1.24269e-05
-5.93038e-06
1.41454e-05
-7.77189e-06
1.51453e-05
-9.61406e-06
1.54987e-05
-1.1398e-05
1.52799e-05
-1.30785e-05
1.45596e-05
-1.46205e-05
1.34021e-05
-1.59965e-05
1.18645e-05
-1.71837e-05
9.99749e-06
-1.81621e-05
7.84702e-06
-1.89121e-05
5.45698e-06
-1.9414e-05
2.87209e-06
-1.96471e-05
1.41318e-07
-1.95898e-05
-2.67874e-06
-1.9221e-05
-5.52039e-06
-1.8522e-05
-8.30168e-06
-1.74803e-05
-1.09241e-05
-1.60944e-05
-1.32715e-05
-1.43797e-05
-1.52115e-05
-1.23755e-05
-1.66005e-05
-1.01512e-05
-1.72925e-05
-7.81055e-06
-1.71534e-05
-5.49248e-06
-1.60798e-05
-3.36577e-06
-1.40196e-05
-1.61786e-06
-1.09897e-05
-4.38534e-07
-7.08729e-06
-2.50006e-06
-3.75527e-07
2.83516e-06
-1.34008e-06
7.57063e-06
-2.73489e-06
1.13224e-05
-4.41537e-06
1.41074e-05
-6.25795e-06
1.5988e-05
-8.16248e-06
1.70498e-05
-1.00514e-05
1.73876e-05
-1.18667e-05
1.70953e-05
-1.35667e-05
1.62596e-05
-1.51212e-05
1.49566e-05
-1.65084e-05
1.32517e-05
-1.77113e-05
1.12004e-05
-1.87147e-05
8.85043e-06
-1.95032e-05
6.2455e-06
-2.00595e-05
3.42834e-06
-2.0363e-05
4.44885e-07
-2.03903e-05
-2.65152e-06
-2.01149e-05
-5.7957e-06
-1.95104e-05
-8.90626e-06
-1.85529e-05
-1.18815e-05
-1.72275e-05
-1.45968e-05
-1.55352e-05
-1.69038e-05
-1.3502e-05
-1.86337e-05
-1.11884e-05
-1.96061e-05
-8.69727e-06
-1.96446e-05
-6.1779e-06
-1.85992e-05
-3.8226e-06
-1.63749e-05
-1.85463e-06
-1.29577e-05
-5.07842e-07
-8.43408e-06
-3.0079e-06
-4.02871e-07
3.23803e-06
-1.43152e-06
8.59928e-06
-2.90633e-06
1.27972e-05
-4.66425e-06
1.58653e-05
-6.56878e-06
1.78925e-05
-8.51294e-06
1.8994e-05
-1.04177e-05
1.92924e-05
-1.2228e-05
1.89056e-05
-1.39076e-05
1.79391e-05
-1.54337e-05
1.64827e-05
-1.67924e-05
1.46104e-05
-1.79744e-05
1.23823e-05
-1.89716e-05
9.84767e-06
-1.97746e-05
7.04851e-06
-2.03702e-05
4.02394e-06
-2.074e-05
8.14698e-07
-2.08596e-05
-2.53193e-06
-2.06987e-05
-5.95665e-06
-2.02225e-05
-9.38246e-06
-1.93953e-05
-1.27088e-05
-1.81859e-05
-1.58061e-05
-1.65767e-05
-1.8513e-05
-1.45743e-05
-2.06361e-05
-1.22232e-05
-2.19573e-05
-9.61852e-06
-2.22492e-05
-6.9153e-06
-2.13024e-05
-4.32899e-06
-1.89612e-05
-2.12392e-06
-1.51628e-05
-5.88616e-07
-9.96938e-06
-3.59652e-06
-4.34015e-07
3.67204e-06
-1.53305e-06
9.69831e-06
-3.08998e-06
1.43541e-05
-4.91824e-06
1.76936e-05
-6.86601e-06
1.98403e-05
-8.81952e-06
2.09475e-05
-1.07001e-05
2.1173e-05
-1.2458e-05
2.06636e-05
-1.40656e-05
1.95467e-05
-1.55102e-05
1.79273e-05
-1.67884e-05
1.58886e-05
-1.79011e-05
1.3495e-05
-1.88496e-05
1.07962e-05
-1.96326e-05
7.83147e-06
-2.02431e-05
4.63443e-06
-2.06668e-05
1.23838e-06
-2.08804e-05
-2.31828e-06
-2.08512e-05
-5.98585e-06
-2.05375e-05
-9.69622e-06
-1.98911e-05
-1.33552e-05
-1.8863e-05
-1.68342e-05
-1.74124e-05
-1.99636e-05
-1.552e-05
-2.25286e-05
-1.3205e-05
-2.42722e-05
-1.05453e-05
-2.4909e-05
-7.69333e-06
-2.41544e-05
-4.88458e-06
-2.17699e-05
-2.42909e-06
-1.76183e-05
-6.82852e-07
-1.17156e-05
-4.27937e-06
-4.71991e-07
4.14403e-06
-1.65283e-06
1.08791e-05
-3.2973e-06
1.59986e-05
-5.18794e-06
1.95842e-05
-7.15478e-06
2.18072e-05
-9.07805e-06
2.28708e-05
-1.08823e-05
2.29772e-05
-1.2527e-05
2.23083e-05
-1.39969e-05
2.10166e-05
-1.52929e-05
1.92233e-05
-1.64252e-05
1.70209e-05
-1.74075e-05
1.44774e-05
-1.82527e-05
1.16415e-05
-1.89696e-05
8.54838e-06
-1.95598e-05
5.22457e-06
-2.00152e-05
1.69382e-06
-2.03163e-05
-2.01717e-06
-2.04302e-05
-5.87191e-06
-2.03103e-05
-9.81612e-06
-1.98974e-05
-1.37681e-05
-1.91237e-05
-1.76078e-05
-1.79221e-05
-2.11653e-05
-1.624e-05
-2.42106e-05
-1.40614e-05
-2.64508e-05
-1.1433e-05
-2.75374e-05
-8.49205e-06
-2.70953e-05
-5.48628e-06
-2.47757e-05
-2.7738e-06
-2.03307e-05
-7.9319e-07
-1.36962e-05
-5.07256e-06
-5.21699e-07
4.66573e-06
-1.8034e-06
1.21608e-05
-3.54498e-06
1.77402e-05
-5.48785e-06
2.15271e-05
-7.4411e-06
2.37604e-05
-9.28134e-06
2.4711e-05
-1.09413e-05
2.46371e-05
-1.23952e-05
2.37622e-05
-1.36452e-05
2.22666e-05
-1.47102e-05
2.02883e-05
-1.56172e-05
1.79278e-05
-1.6395e-05
1.52552e-05
-1.70704e-05
1.23168e-05
-1.76639e-05
9.14187e-06
-1.81875e-05
5.74823e-06
-1.8642e-05
2.14831e-06
-1.90141e-05
-1.64513e-06
-1.92739e-05
-5.61208e-06
-1.93732e-05
-9.71681e-06
-1.92445e-05
-1.38969e-05
-1.88028e-05
-1.80495e-05
-1.7953e-05
-2.2015e-05
-1.66038e-05
-2.55599e-05
-1.46918e-05
-2.83628e-05
-1.2216e-05
-3.00132e-05
-9.27948e-06
-3.00319e-05
-6.12702e-06
-2.79282e-05
-3.16245e-06
-2.32953e-05
-9.23456e-07
-1.59352e-05
-5.99602e-06
-5.91021e-07
5.25675e-06
-2.00352e-06
1.35733e-05
-3.85606e-06
1.95927e-05
-5.83539e-06
2.35064e-05
-7.72831e-06
2.56533e-05
-9.41346e-06
2.63961e-05
-1.08399e-05
2.60636e-05
-1.20047e-05
2.4927e-05
-1.29342e-05
2.31961e-05
-1.36698e-05
2.10239e-05
-1.42584e-05
1.85164e-05
-1.47463e-05
1.57432e-05
-1.51751e-05
1.27456e-05
-1.55784e-05
9.54517e-06
-1.59799e-05
6.14977e-06
-1.63908e-05
2.55917e-06
-1.68066e-05
-1.22929e-06
-1.72043e-05
-5.21438e-06
-1.75383e-05
-9.38276e-06
-1.77377e-05
-1.36976e-05
-1.77045e-05
-1.80828e-05
-1.73173e-05
-2.24022e-05
-1.64428e-05
-2.64344e-05
-1.49598e-05
-2.98458e-05
-1.28001e-05
-3.21728e-05
-1.0006e-05
-3.2826e-05
-6.79371e-06
-3.11405e-05
-3.60071e-06
-2.64883e-05
-1.07965e-06
-1.84563e-05
-7.07567e-06
-6.92716e-07
5.94947e-06
-2.28064e-06
1.51613e-05
-4.25997e-06
2.15721e-05
-6.24683e-06
2.54933e-05
-8.00875e-06
2.74152e-05
-9.43804e-06
2.78254e-05
-1.05134e-05
2.71389e-05
-1.12659e-05
2.56796e-05
-1.17539e-05
2.36841e-05
-1.20464e-05
2.13163e-05
-1.22128e-05
1.86829e-05
-1.23177e-05
1.5848e-05
-1.24174e-05
1.28453e-05
-1.25586e-05
9.68636e-06
-1.27766e-05
6.36782e-06
-1.30938e-05
2.87637e-06
-1.35167e-05
-8.06382e-07
-1.40323e-05
-4.69874e-06
-1.46032e-05
-8.81186e-06
-1.51616e-05
-1.31392e-05
-1.56042e-05
-1.76402e-05
-1.57898e-05
-2.22166e-05
-1.55449e-05
-2.66793e-05
-1.46837e-05
-3.0707e-05
-1.30512e-05
-3.38052e-05
-1.05952e-05
-3.52819e-05
-7.46276e-06
-3.4273e-05
-4.09607e-06
-2.9855e-05
-1.2717e-06
-2.12806e-05
-8.34736e-06
-8.47654e-07
6.79712e-06
-2.67364e-06
1.69872e-05
-4.78965e-06
2.36881e-05
-6.72663e-06
2.74303e-05
-8.24618e-06
2.89348e-05
-9.27635e-06
2.88556e-05
-9.84566e-06
2.77082e-05
-1.00338e-05
2.58677e-05
-9.93996e-06
2.35903e-05
-9.66449e-06
2.10409e-05
-9.30019e-06
1.83186e-05
-8.92856e-06
1.54764e-05
-8.61893e-06
1.25357e-05
-8.42861e-06
9.49604e-06
-8.40292e-06
6.34212e-06
-8.57456e-06
3.04801e-06
-8.96168e-06
-4.19258e-07
-9.5642e-06
-4.09622e-06
-1.0358e-05
-8.01805e-06
-1.1287e-05
-1.22102e-05
-1.22533e-05
-1.66739e-05
-1.31081e-05
-2.13618e-05
-1.36479e-05
-2.61395e-05
-1.36237e-05
-3.07313e-05
-1.27785e-05
-3.46504e-05
-1.09278e-05
-3.71327e-05
-8.09075e-06
-3.711e-05
-4.65714e-06
-3.32886e-05
-1.51649e-06
-2.44213e-05
-9.86385e-06
-1.09027e-06
7.88739e-06
-3.23448e-06
1.91315e-05
-5.47053e-06
2.59241e-05
-7.24245e-06
2.92022e-05
-8.34095e-06
3.00333e-05
-8.76797e-06
2.92826e-05
-8.63036e-06
2.75706e-05
-8.07315e-06
2.53105e-05
-7.24338e-06
2.27605e-05
-6.27371e-06
2.00712e-05
-5.27731e-06
1.73222e-05
-4.34818e-06
1.45472e-05
-3.56352e-06
1.1751e-05
-2.9865e-06
8.91901e-06
-2.66837e-06
6.024e-06
-2.6494e-06
3.02905e-06
-2.95816e-06
-1.10501e-07
-3.60861e-06
-3.44577e-06
-4.59445e-06
-7.03221e-06
-5.87983e-06
-1.09248e-05
-7.38615e-06
-1.51676e-05
-8.9755e-06
-1.97724e-05
-1.04343e-05
-2.46807e-05
-1.14659e-05
-2.96997e-05
-1.17095e-05
-3.44067e-05
-1.08136e-05
-3.80286e-05
-8.5941e-06
-3.93295e-05
-5.2886e-06
-3.65941e-05
-1.84232e-06
-2.78676e-05
-1.17062e-05
-1.47696e-06
9.36435e-06
-4.02304e-06
2.16775e-05
-6.28854e-06
2.81896e-05
-7.67037e-06
3.0584e-05
-8.06344e-06
3.04264e-05
-7.60332e-06
2.88225e-05
-6.50973e-06
2.6477e-05
-5.0069e-06
2.38077e-05
-3.2904e-06
2.1044e-05
-1.5189e-06
1.82997e-05
1.83049e-07
1.56202e-05
1.71848e-06
1.30118e-05
3.01113e-06
1.04583e-05
3.99967e-06
7.93048e-06
4.63333e-06
5.39033e-06
4.86934e-06
2.79304e-06
4.67207e-06
8.67671e-08
4.01457e-06
-2.78826e-06
2.88305e-06
-5.90069e-06
1.28577e-06
-9.32753e-06
-7.32272e-07
-1.31495e-05
-3.06718e-06
-1.74375e-05
-5.52723e-06
-2.22207e-05
-7.80271e-06
-2.74242e-05
-9.45219e-06
-3.27572e-05
-9.94283e-06
-3.7538e-05
-8.80598e-06
-4.04663e-05
-5.97269e-06
-3.94274e-05
-2.29355e-06
-3.15467e-05
-1.39997e-05
-2.09422e-06
1.14586e-05
-5.07591e-06
2.46592e-05
-7.10633e-06
3.022e-05
-7.67918e-06
3.11569e-05
-6.93284e-06
2.968e-05
-5.21495e-06
2.71046e-05
-2.88696e-06
2.4149e-05
-2.5139e-07
2.11721e-05
2.46227e-06
1.83304e-05
5.08807e-06
1.56739e-05
7.50805e-06
1.32002e-05
9.63771e-06
1.08822e-05
1.14144e-05
8.68163e-06
1.27889e-05
6.55603e-06
1.37191e-05
4.46013e-06
1.41664e-05
2.3457e-06
1.40935e-05
1.59672e-07
1.3464e-05
-2.15876e-06
1.22449e-05
-4.68163e-06
1.04132e-05
-7.49582e-06
7.96868e-06
-1.0705e-05
4.95731e-06
-1.44261e-05
1.50869e-06
-1.87721e-05
-2.11133e-06
-2.38042e-05
-5.44234e-06
-2.94262e-05
-7.80326e-06
-3.5177e-05
-8.38598e-06
-3.98836e-05
-6.61193e-06
-4.12015e-05
-2.92524e-06
-3.52334e-05
-1.6925e-05
-3.04166e-06
1.45002e-05
-6.28531e-06
2.79029e-05
-7.45422e-06
3.1389e-05
-6.49812e-06
3.02008e-05
-4.01119e-06
2.71931e-05
-6.19967e-07
2.37134e-05
3.18089e-06
2.03482e-05
7.04783e-06
1.73052e-05
1.07592e-05
1.4619e-05
1.41776e-05
1.22554e-05
1.72197e-05
1.01582e-05
1.98338e-05
8.26807e-06
2.19857e-05
6.52974e-06
2.36489e-05
4.89276e-06
2.47987e-05
3.31037e-06
2.54074e-05
1.73698e-06
2.54421e-05
1.25015e-07
2.48626e-05
-1.57928e-06
2.36214e-05
-3.44046e-06
2.16661e-05
-5.54051e-06
1.89469e-05
-7.98581e-06
1.54347e-05
-1.09139e-05
1.1157e-05
-1.44943e-05
6.26274e-06
-1.89099e-05
1.12338e-06
-2.42869e-05
-3.54723e-06
-3.05064e-05
-6.63925e-06
-3.67916e-05
-6.87033e-06
-4.09704e-05
-3.74856e-06
-3.83552e-05
-2.06735e-05
-4.30562e-06
1.88058e-05
-7.01561e-06
3.06129e-05
-6.04353e-06
3.04169e-05
-2.4856e-06
2.66428e-05
2.40583e-06
2.23017e-05
7.76548e-06
1.83537e-05
1.30705e-05
1.50432e-05
1.80365e-05
1.23392e-05
2.25251e-05
1.01303e-05
2.64791e-05
8.30145e-06
2.98818e-05
6.75554e-06
3.27342e-05
5.41564e-06
3.50425e-05
4.22141e-06
3.68107e-05
3.12464e-06
3.80361e-05
2.08498e-06
3.8707e-05
1.0661e-06
3.87998e-05
3.21772e-08
3.82772e-05
-1.05669e-06
3.7085e-05
-2.24825e-06
3.51502e-05
-3.60573e-06
3.23809e-05
-5.21646e-06
2.86718e-05
-7.20482e-06
2.39256e-05
-9.74821e-06
1.8107e-05
-1.30913e-05
1.13574e-05
-1.75373e-05
4.19992e-06
-2.3349e-05
-2.18712e-06
-3.04046e-05
-5.80524e-06
-3.73523e-05
-4.53573e-06
-3.96247e-05
-2.52092e-05
-5.28686e-06
2.40927e-05
-5.04074e-06
3.03668e-05
2.67398e-07
2.51087e-05
7.57417e-06
1.93361e-05
1.51522e-05
1.47237e-05
2.22426e-05
1.12634e-05
2.85595e-05
8.7262e-06
3.4042e-05
6.85672e-06
3.87254e-05
5.44693e-06
4.26768e-05
4.3501e-06
4.59654e-05
3.46695e-06
4.8651e-05
2.72996e-06
5.07802e-05
2.09224e-06
5.2385e-05
1.51985e-06
5.34832e-05
9.86721e-07
5.40784e-05
4.70986e-07
5.41584e-05
-4.7899e-08
5.36939e-05
-5.92125e-07
5.2634e-05
-1.18835e-06
5.0901e-05
-1.87273e-06
4.83824e-05
-2.69786e-06
4.49222e-05
-3.74462e-06
4.03161e-05
-5.14215e-06
3.43254e-05
-7.10059e-06
2.67454e-05
-9.95727e-06
1.76045e-05
-1.4208e-05
7.60776e-06
-2.04079e-05
-1.08549e-06
-2.8659e-05
-4.31634e-06
-3.63938e-05
-2.95256e-05
-2.32205e-06
2.64148e-05
6.59987e-06
2.14448e-05
1.84443e-05
1.32643e-05
2.92537e-05
8.52664e-06
3.82566e-05
5.7208e-06
4.55539e-05
3.9661e-06
5.14305e-05
2.84961e-06
5.6169e-05
2.11816e-06
6.00005e-05
1.61543e-06
6.30999e-05
1.25069e-06
6.55952e-05
9.71669e-07
6.75779e-05
7.47285e-07
6.91119e-05
5.58188e-07
7.02402e-05
3.91629e-07
7.09883e-05
2.38551e-07
7.13675e-05
9.18297e-08
7.13746e-05
-5.49955e-08
7.0991e-05
-2.08565e-07
7.01797e-05
-3.77055e-07
6.88786e-05
-5.71635e-07
6.69901e-05
-8.09286e-07
6.43634e-05
-1.11793e-06
6.07681e-05
-1.54686e-06
5.5856e-05
-2.18856e-06
4.91228e-05
-3.22403e-06
3.99261e-05
-5.01125e-06
2.77571e-05
-8.23893e-06
1.32152e-05
-1.41172e-05
6.43161e-07
-2.38218e-05
-2.88824e-05
2.64148e-05
4.78596e-05
6.11239e-05
6.96505e-05
7.53713e-05
7.93374e-05
8.2187e-05
8.43052e-05
8.59206e-05
8.71713e-05
8.8143e-05
8.88903e-05
8.94484e-05
8.98401e-05
9.00786e-05
9.01704e-05
9.01155e-05
8.99069e-05
8.95298e-05
8.89582e-05
8.81489e-05
8.7031e-05
8.54841e-05
8.32956e-05
8.00715e-05
7.50603e-05
6.68213e-05
5.27042e-05
2.88824e-05
)
;

boundaryField
{
    movingWall
    {
        type            calculated;
        value           uniform 0;
    }
    fixedWalls
    {
        type            calculated;
        value           uniform 0;
    }
    frontAndBack
    {
        type            empty;
        value           nonuniform List<scalar> 0();
    }
}


// ************************************************************************* //
