/*--------------------------------*- C++ -*----------------------------------*\
  =========                 |
  \\      /  F ield         | OpenFOAM: The Open Source CFD Toolbox
   \\    /   O peration     | Website:  https://openfoam.org
    \\  /    A nd           | Version:  9
     \\/     M anipulation  |
\*---------------------------------------------------------------------------*/
FoamFile
{
    format      ascii;
    class       volScalarField;
    location    "2000";
    object      k;
}
// * * * * * * * * * * * * * * * * * * * * * * * * * * * * * * * * * * * * * //

dimensions      [0 2 -2 0 0 0 0];

internalField   nonuniform List<scalar> 
4000
(
3.44997e-05
3.06528e-05
2.46107e-05
1.47543e-05
5.08966e-06
4.0833e-06
3.63893e-06
2.6574e-06
2.49109e-06
2.51284e-06
2.52821e-06
2.5433e-06
2.76141e-06
3.70698e-06
4.19758e-06
4.86651e-06
1.08445e-05
2.25987e-05
2.92352e-05
3.35734e-05
3.93011e-05
3.59205e-05
3.07141e-05
2.46024e-05
2.07431e-05
1.69761e-05
1.12242e-05
4.23037e-06
4.11574e-06
4.32989e-06
4.32893e-06
4.1639e-06
4.3363e-06
1.02395e-05
1.67863e-05
2.07292e-05
2.47539e-05
3.01209e-05
3.55584e-05
3.8898e-05
4.20136e-05
3.92974e-05
3.40572e-05
2.87061e-05
2.35189e-05
1.86219e-05
1.35537e-05
8.62588e-06
4.90688e-06
5.61628e-06
5.49426e-06
4.78239e-06
8.48432e-06
1.34569e-05
1.85711e-05
2.3545e-05
2.88712e-05
3.40997e-05
3.91358e-05
4.18016e-05
4.35439e-05
4.18149e-05
3.72804e-05
3.15445e-05
2.52966e-05
1.96788e-05
1.55117e-05
1.16282e-05
8.66035e-06
7.91159e-06
7.72638e-06
8.41708e-06
1.10659e-05
1.49263e-05
1.916e-05
2.49859e-05
3.14953e-05
3.72463e-05
4.1739e-05
4.34269e-05
4.45942e-05
4.40865e-05
4.12611e-05
3.75665e-05
3.38212e-05
3.05385e-05
2.78399e-05
2.55587e-05
2.375e-05
2.24265e-05
2.21122e-05
2.32572e-05
2.4978e-05
2.72499e-05
3.00235e-05
3.34554e-05
3.73736e-05
4.11805e-05
4.40509e-05
4.45311e-05
4.54974e-05
4.64473e-05
4.57473e-05
4.43771e-05
4.28003e-05
4.11142e-05
3.94027e-05
3.7649e-05
3.58984e-05
3.42815e-05
3.40071e-05
3.55263e-05
3.7228e-05
3.89883e-05
4.07517e-05
4.25346e-05
4.42243e-05
4.5682e-05
4.64244e-05
4.54692e-05
4.64662e-05
4.89343e-05
5.02086e-05
5.07785e-05
5.09237e-05
5.0597e-05
4.97561e-05
4.8437e-05
4.6649e-05
4.45708e-05
4.43288e-05
4.63698e-05
4.81333e-05
4.94668e-05
5.03557e-05
5.07491e-05
5.06792e-05
5.01739e-05
4.89356e-05
4.64664e-05
4.76456e-05
5.1692e-05
5.4793e-05
5.69972e-05
5.85621e-05
5.94282e-05
5.94917e-05
5.86353e-05
5.67527e-05
5.40524e-05
5.38149e-05
5.65409e-05
5.84288e-05
5.93017e-05
5.92759e-05
5.84619e-05
5.69513e-05
5.4794e-05
5.17229e-05
4.76717e-05
4.93242e-05
5.5318e-05
6.02404e-05
6.40099e-05
6.69194e-05
6.89331e-05
6.99377e-05
6.96331e-05
6.77002e-05
6.42304e-05
6.39707e-05
6.75485e-05
6.94846e-05
6.98034e-05
6.88398e-05
6.68812e-05
6.40232e-05
6.02896e-05
5.53813e-05
4.93741e-05
5.19251e-05
6.00286e-05
6.70193e-05
7.24505e-05
7.68487e-05
8.02767e-05
8.25645e-05
8.33863e-05
8.23509e-05
7.91158e-05
7.88682e-05
8.22875e-05
8.33206e-05
8.24949e-05
8.02324e-05
7.68442e-05
7.24857e-05
6.70861e-05
6.01086e-05
5.19944e-05
3.06528e-05
2.87356e-05
2.32202e-05
1.49328e-05
7.64761e-06
6.9138e-06
6.33524e-06
4.84247e-06
3.55202e-06
3.38478e-06
3.38681e-06
3.58651e-06
4.88316e-06
6.51391e-06
6.98722e-06
7.37188e-06
1.14805e-05
2.03788e-05
2.56571e-05
2.90912e-05
3.59205e-05
4.75596e-05
4.17399e-05
3.27412e-05
2.80236e-05
2.50625e-05
1.8979e-05
1.21242e-05
7.58552e-06
6.79001e-06
6.7111e-06
7.36092e-06
1.17783e-05
1.90333e-05
2.58316e-05
2.91456e-05
3.38369e-05
4.21394e-05
4.89316e-05
3.54134e-05
3.92974e-05
4.73871e-05
4.50139e-05
3.68906e-05
2.90731e-05
2.37246e-05
1.85695e-05
1.37554e-05
1.03285e-05
8.87437e-06
8.67898e-06
1.03747e-05
1.38878e-05
1.86911e-05
2.38046e-05
2.89111e-05
3.62172e-05
4.41699e-05
4.70618e-05
3.90308e-05
4.18149e-05
4.70384e-05
4.48549e-05
3.75816e-05
2.87205e-05
2.24422e-05
1.76775e-05
1.32982e-05
1.01964e-05
1.05148e-05
1.01342e-05
1.00299e-05
1.33008e-05
1.76027e-05
2.2236e-05
2.8421e-05
3.72532e-05
4.43286e-05
4.67211e-05
4.16776e-05
4.40865e-05
4.95004e-05
4.88701e-05
4.35409e-05
3.50814e-05
2.74881e-05
2.25914e-05
1.85578e-05
1.62737e-05
1.613e-05
1.57813e-05
1.59532e-05
1.81662e-05
2.21629e-05
2.69997e-05
3.46318e-05
4.33113e-05
4.86237e-05
4.93269e-05
4.40341e-05
4.64473e-05
5.23316e-05
5.27834e-05
5.00567e-05
4.45917e-05
3.67919e-05
3.0985e-05
2.67666e-05
2.42765e-05
2.33248e-05
2.30078e-05
2.38633e-05
2.62565e-05
3.03873e-05
3.60109e-05
4.41489e-05
4.99518e-05
5.27679e-05
5.23149e-05
4.6453e-05
4.89343e-05
5.49405e-05
5.56731e-05
5.51987e-05
5.40886e-05
5.07118e-05
4.39561e-05
3.74886e-05
3.32069e-05
3.12137e-05
3.09549e-05
3.27273e-05
3.63846e-05
4.29679e-05
5.01584e-05
5.38251e-05
5.51838e-05
5.58082e-05
5.5037e-05
4.8996e-05
5.1692e-05
5.8201e-05
5.93804e-05
6.06958e-05
6.30031e-05
6.40332e-05
6.30556e-05
6.05784e-05
5.64228e-05
5.13503e-05
5.0907e-05
5.58154e-05
6.02727e-05
6.2858e-05
6.39388e-05
6.30168e-05
6.08404e-05
5.9608e-05
5.83762e-05
5.18002e-05
5.5318e-05
6.39728e-05
6.84978e-05
7.19529e-05
7.52067e-05
7.76133e-05
7.87817e-05
7.74801e-05
7.24665e-05
6.42134e-05
6.37446e-05
7.21281e-05
7.71682e-05
7.85699e-05
7.75634e-05
7.53253e-05
7.22013e-05
6.87817e-05
6.42064e-05
5.54641e-05
6.00286e-05
6.91954e-05
7.73865e-05
8.4187e-05
9.01878e-05
9.53737e-05
9.93139e-05
0.000101269
0.000100485
9.65593e-05
9.62896e-05
0.00010044
0.000101229
9.92894e-05
9.5404e-05
9.02829e-05
8.43369e-05
7.75751e-05
6.93919e-05
6.01935e-05
2.46107e-05
2.32202e-05
1.86203e-05
1.21039e-05
8.77271e-06
9.49527e-06
8.30934e-06
6.36843e-06
4.78712e-06
4.17854e-06
4.12426e-06
4.72868e-06
6.42384e-06
8.46853e-06
9.30916e-06
8.83282e-06
1.02368e-05
1.56921e-05
2.04354e-05
2.25139e-05
3.07141e-05
4.17399e-05
3.81211e-05
3.27644e-05
3.06908e-05
2.85173e-05
2.23132e-05
1.47868e-05
1.02881e-05
8.72233e-06
8.5513e-06
1.00849e-05
1.45421e-05
2.24718e-05
2.96192e-05
3.23342e-05
3.44402e-05
3.88936e-05
4.19164e-05
2.9788e-05
3.40572e-05
4.50139e-05
4.3726e-05
3.68706e-05
3.06716e-05
2.62089e-05
2.14232e-05
1.6854e-05
1.33884e-05
1.11745e-05
1.0927e-05
1.33237e-05
1.7053e-05
2.15753e-05
2.63383e-05
3.05661e-05
3.6144e-05
4.23769e-05
4.41535e-05
3.39791e-05
3.72804e-05
4.48549e-05
4.31097e-05
3.7058e-05
2.9759e-05
2.432e-05
1.99354e-05
1.59501e-05
1.3052e-05
1.17662e-05
1.14887e-05
1.28803e-05
1.60768e-05
1.99991e-05
2.42152e-05
2.94845e-05
3.66038e-05
4.23775e-05
4.4149e-05
3.71656e-05
4.12611e-05
4.88701e-05
4.71807e-05
4.15376e-05
3.30984e-05
2.57638e-05
2.08266e-05
1.6743e-05
1.37947e-05
1.27689e-05
1.25527e-05
1.36003e-05
1.66688e-05
2.06572e-05
2.5451e-05
3.27498e-05
4.12694e-05
4.68361e-05
4.85135e-05
4.11858e-05
4.57473e-05
5.27834e-05
5.1042e-05
4.58791e-05
3.80137e-05
2.95852e-05
2.37058e-05
1.92862e-05
1.63215e-05
1.53469e-05
1.5155e-05
1.60483e-05
1.9054e-05
2.33687e-05
2.91244e-05
3.77099e-05
4.58188e-05
5.10293e-05
5.2755e-05
4.5764e-05
5.02086e-05
5.56731e-05
5.39227e-05
4.83882e-05
4.19385e-05
3.50511e-05
2.90573e-05
2.42411e-05
2.09842e-05
1.95441e-05
1.935e-05
2.06572e-05
2.37706e-05
2.85716e-05
3.46577e-05
4.1775e-05
4.85043e-05
5.41536e-05
5.58681e-05
5.03125e-05
5.4793e-05
5.93804e-05
5.9297e-05
5.3708e-05
4.72303e-05
4.36803e-05
3.99774e-05
3.62656e-05
3.23695e-05
2.87259e-05
2.85858e-05
3.21162e-05
3.60108e-05
3.97986e-05
4.36296e-05
4.74115e-05
5.40755e-05
5.97313e-05
5.97359e-05
5.49663e-05
6.02404e-05
6.84978e-05
7.77278e-05
8.62089e-05
9.17057e-05
9.4607e-05
9.7121e-05
9.59261e-05
8.69986e-05
7.15189e-05
7.07048e-05
8.5941e-05
9.48892e-05
9.64337e-05
9.43942e-05
9.19295e-05
8.68019e-05
7.83239e-05
6.89265e-05
6.04705e-05
6.70193e-05
7.73865e-05
8.65665e-05
9.44544e-05
0.000101782
0.000108565
0.000114199
0.000117441
0.00011705
0.000112253
0.000111977
0.000117029
0.000117436
0.000114235
0.000108683
0.000101977
9.47073e-05
8.68559e-05
7.76731e-05
6.7255e-05
1.47543e-05
1.49328e-05
1.21039e-05
9.8143e-06
1.02668e-05
1.0643e-05
9.45655e-06
7.41207e-06
5.76875e-06
5.09493e-06
5.00472e-06
5.71621e-06
7.47769e-06
9.68446e-06
1.07009e-05
1.02311e-05
9.51298e-06
1.03426e-05
1.13801e-05
1.02071e-05
2.46024e-05
3.27412e-05
3.27644e-05
3.20214e-05
3.17727e-05
2.92768e-05
2.24762e-05
1.52957e-05
1.15086e-05
1.05281e-05
1.0354e-05
1.14011e-05
1.51577e-05
2.24932e-05
3.00982e-05
3.34027e-05
3.39218e-05
3.43999e-05
3.3742e-05
2.46077e-05
2.87061e-05
3.68906e-05
3.68706e-05
3.33782e-05
2.99346e-05
2.65922e-05
2.22968e-05
1.8074e-05
1.47269e-05
1.30441e-05
1.27326e-05
1.46562e-05
1.83598e-05
2.25012e-05
2.67313e-05
3.00236e-05
3.312e-05
3.6158e-05
3.62114e-05
2.88689e-05
3.15445e-05
3.75816e-05
3.7058e-05
3.33204e-05
2.87131e-05
2.47073e-05
2.10658e-05
1.76815e-05
1.51276e-05
1.36783e-05
1.33196e-05
1.48941e-05
1.78111e-05
2.11689e-05
2.4638e-05
2.84849e-05
3.29135e-05
3.64577e-05
3.69875e-05
3.14754e-05
3.75665e-05
4.35409e-05
4.15376e-05
3.69819e-05
3.07181e-05
2.51153e-05
2.09707e-05
1.74473e-05
1.45832e-05
1.2791e-05
1.2588e-05
1.44542e-05
1.74708e-05
2.09057e-05
2.48918e-05
3.03898e-05
3.66172e-05
4.11167e-05
4.31062e-05
3.74298e-05
4.43771e-05
5.00567e-05
4.58791e-05
4.05378e-05
3.36441e-05
2.68999e-05
2.18885e-05
1.78223e-05
1.45144e-05
1.24357e-05
1.23269e-05
1.44309e-05
1.77798e-05
2.17328e-05
2.66417e-05
3.34155e-05
4.0397e-05
4.57597e-05
4.99513e-05
4.4382e-05
5.07785e-05
5.51987e-05
4.83882e-05
4.21482e-05
3.57924e-05
2.9629e-05
2.47136e-05
2.06913e-05
1.74087e-05
1.53501e-05
1.52687e-05
1.73366e-05
2.05895e-05
2.45568e-05
2.94879e-05
3.57789e-05
4.22833e-05
4.85792e-05
5.54371e-05
5.09104e-05
5.69972e-05
6.06958e-05
5.3708e-05
4.72558e-05
4.36055e-05
4.07141e-05
3.85357e-05
3.62551e-05
3.24631e-05
2.75707e-05
2.74503e-05
3.23531e-05
3.62328e-05
3.8627e-05
4.09498e-05
4.40585e-05
4.78833e-05
5.42569e-05
6.12348e-05
5.72256e-05
6.40099e-05
7.19529e-05
8.62089e-05
9.86393e-05
0.000105991
0.000114904
0.000124328
0.00012836
0.000119802
9.97912e-05
9.951e-05
0.000118917
0.000127428
0.000123987
0.000115126
0.000106676
9.94586e-05
8.71312e-05
7.25754e-05
6.43149e-05
7.24505e-05
8.4187e-05
9.44544e-05
0.000103521
0.000112485
0.000121297
0.000129018
0.000134061
0.000134732
0.00013018
0.000130092
0.0001349
0.000134252
0.000129233
0.000121565
0.00011282
0.000103886
9.48419e-05
8.45546e-05
7.27472e-05
5.08966e-06
7.64761e-06
8.77271e-06
1.02668e-05
1.11589e-05
1.1122e-05
9.86129e-06
7.95308e-06
6.43775e-06
5.86844e-06
5.77007e-06
6.40836e-06
8.07534e-06
1.01517e-05
1.13958e-05
1.1266e-05
1.03706e-05
8.99702e-06
7.4358e-06
4.81867e-06
2.07431e-05
2.80236e-05
3.06908e-05
3.17727e-05
3.11731e-05
2.71467e-05
2.03029e-05
1.46545e-05
1.18523e-05
1.18772e-05
1.17048e-05
1.18293e-05
1.46816e-05
2.02724e-05
2.74531e-05
3.22135e-05
3.33828e-05
3.23896e-05
2.93047e-05
2.08343e-05
2.35189e-05
2.90731e-05
3.06716e-05
2.99346e-05
2.8226e-05
2.53916e-05
2.17109e-05
1.79107e-05
1.49565e-05
1.42748e-05
1.38282e-05
1.48918e-05
1.83003e-05
2.20907e-05
2.55797e-05
2.84077e-05
3.00577e-05
3.0631e-05
2.90086e-05
2.36855e-05
2.52966e-05
2.87205e-05
2.9759e-05
2.87131e-05
2.64485e-05
2.37889e-05
2.09961e-05
1.82731e-05
1.61263e-05
1.54165e-05
1.48999e-05
1.58502e-05
1.84222e-05
2.1195e-05
2.38337e-05
2.63589e-05
2.85102e-05
2.94503e-05
2.83616e-05
2.50709e-05
3.38212e-05
3.50814e-05
3.30984e-05
3.07181e-05
2.72628e-05
2.37654e-05
2.07642e-05
1.80571e-05
1.59324e-05
1.51999e-05
1.48139e-05
1.57311e-05
1.80921e-05
2.07812e-05
2.36608e-05
2.70397e-05
3.04032e-05
3.26958e-05
3.46095e-05
3.35847e-05
4.28003e-05
4.45917e-05
3.80137e-05
3.36441e-05
2.91571e-05
2.4743e-05
2.10521e-05
1.78547e-05
1.53252e-05
1.43398e-05
1.41051e-05
1.52629e-05
1.78964e-05
2.10206e-05
2.46275e-05
2.8994e-05
3.34267e-05
3.77161e-05
4.42941e-05
4.27729e-05
5.09237e-05
5.40886e-05
4.19385e-05
3.57924e-05
3.11597e-05
2.69056e-05
2.33164e-05
2.0299e-05
1.79461e-05
1.71672e-05
1.71127e-05
1.80301e-05
2.04064e-05
2.33699e-05
2.69469e-05
3.12313e-05
3.58593e-05
4.19686e-05
5.42413e-05
5.10696e-05
5.85621e-05
6.30031e-05
4.72303e-05
4.36055e-05
4.22105e-05
4.11303e-05
4.05547e-05
3.95991e-05
3.63922e-05
3.15312e-05
3.16602e-05
3.66391e-05
3.99056e-05
4.09489e-05
4.16441e-05
4.28494e-05
4.42956e-05
4.79095e-05
6.36242e-05
5.88355e-05
6.69194e-05
7.52067e-05
9.17057e-05
0.000105991
0.000123651
0.000141001
0.000156509
0.000163543
0.000151022
0.000121199
0.000122059
0.000151159
0.000163074
0.000156428
0.000141642
0.000124728
0.000107152
9.27695e-05
7.59667e-05
6.72877e-05
7.68487e-05
9.01878e-05
0.000101782
0.000112485
0.000123987
0.000135279
0.000145232
0.000152203
0.000154227
0.000150329
0.000150427
0.000154648
0.00015264
0.000145672
0.000135756
0.000124506
0.000113004
0.000102281
9.06383e-05
7.72037e-05
4.0833e-06
6.9138e-06
9.49527e-06
1.0643e-05
1.1122e-05
1.07857e-05
9.64119e-06
8.17636e-06
6.98163e-06
6.64594e-06
6.54108e-06
6.97646e-06
8.34396e-06
9.96889e-06
1.11999e-05
1.14723e-05
1.08973e-05
9.67311e-06
7.14149e-06
4.18191e-06
1.69761e-05
2.50625e-05
2.85173e-05
2.92768e-05
2.71467e-05
2.24899e-05
1.74162e-05
1.37755e-05
1.20514e-05
1.30688e-05
1.29143e-05
1.21016e-05
1.39471e-05
1.75391e-05
2.25591e-05
2.74391e-05
3.00366e-05
2.96369e-05
2.61189e-05
1.70807e-05
1.86219e-05
2.37246e-05
2.62089e-05
2.65922e-05
2.53916e-05
2.30347e-05
2.00276e-05
1.68238e-05
1.46354e-05
1.48875e-05
1.43979e-05
1.45719e-05
1.72465e-05
2.06046e-05
2.34531e-05
2.5646e-05
2.68198e-05
2.64524e-05
2.39834e-05
1.87954e-05
1.96788e-05
2.24422e-05
2.432e-05
2.47073e-05
2.37889e-05
2.21121e-05
2.00787e-05
1.78745e-05
1.61371e-05
1.60284e-05
1.54297e-05
1.58815e-05
1.80939e-05
2.04203e-05
2.23758e-05
2.39194e-05
2.47538e-05
2.432e-05
2.23592e-05
1.93289e-05
3.05385e-05
2.74881e-05
2.57638e-05
2.51153e-05
2.37654e-05
2.19037e-05
1.99212e-05
1.79766e-05
1.66085e-05
1.65943e-05
1.61456e-05
1.63886e-05
1.8044e-05
2.0049e-05
2.19817e-05
2.37571e-05
2.50291e-05
2.56002e-05
2.72148e-05
3.02217e-05
4.11142e-05
3.67919e-05
2.95852e-05
2.68999e-05
2.4743e-05
2.23186e-05
1.98942e-05
1.76715e-05
1.62393e-05
1.65979e-05
1.62899e-05
1.61658e-05
1.77773e-05
1.99886e-05
2.23658e-05
2.47348e-05
2.6805e-05
2.93571e-05
3.63911e-05
4.10596e-05
5.0597e-05
5.07118e-05
3.50511e-05
2.9629e-05
2.69056e-05
2.44837e-05
2.22059e-05
2.03167e-05
1.93421e-05
2.06242e-05
2.0567e-05
1.95038e-05
2.05613e-05
2.24267e-05
2.4687e-05
2.70906e-05
2.97423e-05
3.50545e-05
5.07193e-05
5.07502e-05
5.94282e-05
6.40332e-05
4.36803e-05
4.07141e-05
4.11303e-05
4.21831e-05
4.33434e-05
4.33765e-05
3.99779e-05
3.4765e-05
3.51919e-05
4.06189e-05
4.39871e-05
4.39976e-05
4.2922e-05
4.19188e-05
4.14588e-05
4.43691e-05
6.46855e-05
5.97382e-05
6.89331e-05
7.76133e-05
9.4607e-05
0.000114904
0.000141001
0.000167106
0.000188053
0.00019534
0.000173026
0.000127665
0.000129919
0.00017508
0.000195861
0.000188489
0.000168041
0.00014235
0.000116256
9.58364e-05
7.84787e-05
6.93563e-05
8.02767e-05
9.53737e-05
0.000108565
0.000121297
0.000135279
0.000149076
0.000161442
0.000170683
0.000174774
0.000172818
0.000172955
0.000175426
0.000171399
0.000162149
0.000149791
0.000135996
0.000121976
0.00010918
9.59092e-05
8.06902e-05
3.63893e-06
6.33524e-06
8.30934e-06
9.45654e-06
9.86129e-06
9.64119e-06
9.0154e-06
8.18636e-06
7.50666e-06
7.6587e-06
7.55068e-06
7.51376e-06
8.35788e-06
9.31988e-06
1.00248e-05
1.02653e-05
9.87745e-06
8.74301e-06
6.65826e-06
3.79723e-06
1.12242e-05
1.8979e-05
2.23132e-05
2.24762e-05
2.03029e-05
1.74162e-05
1.48776e-05
1.29615e-05
1.24799e-05
1.53717e-05
1.52595e-05
1.25835e-05
1.32044e-05
1.51334e-05
1.7594e-05
2.03528e-05
2.25642e-05
2.25673e-05
1.92909e-05
1.08929e-05
1.35537e-05
1.85695e-05
2.14232e-05
2.22968e-05
2.17109e-05
2.00276e-05
1.77071e-05
1.54183e-05
1.43366e-05
1.62094e-05
1.56588e-05
1.42633e-05
1.57902e-05
1.82984e-05
2.06647e-05
2.2241e-05
2.26982e-05
2.17848e-05
1.89474e-05
1.37952e-05
1.55117e-05
1.76775e-05
1.99354e-05
2.10657e-05
2.09961e-05
2.00787e-05
1.85994e-05
1.67807e-05
1.57594e-05
1.71376e-05
1.64433e-05
1.55087e-05
1.70402e-05
1.90465e-05
2.05486e-05
2.13981e-05
2.13892e-05
2.02068e-05
1.78343e-05
1.52176e-05
2.78399e-05
2.25914e-05
2.08266e-05
2.09707e-05
2.07642e-05
1.99212e-05
1.86652e-05
1.73106e-05
1.67085e-05
1.82728e-05
1.76971e-05
1.64985e-05
1.74467e-05
1.8906e-05
2.01833e-05
2.09962e-05
2.11543e-05
2.09301e-05
2.24917e-05
2.75083e-05
3.94027e-05
3.0985e-05
2.37058e-05
2.18885e-05
2.10521e-05
1.98942e-05
1.84388e-05
1.70676e-05
1.67872e-05
1.93569e-05
1.88795e-05
1.67053e-05
1.72573e-05
1.86714e-05
2.01241e-05
2.12558e-05
2.20326e-05
2.37386e-05
3.0837e-05
3.93514e-05
4.97561e-05
4.39561e-05
2.90573e-05
2.47136e-05
2.33164e-05
2.22059e-05
2.10464e-05
2.02226e-05
2.07226e-05
2.49714e-05
2.47703e-05
2.0915e-05
2.05977e-05
2.14386e-05
2.25986e-05
2.36879e-05
2.50039e-05
2.91686e-05
4.3767e-05
4.99205e-05
5.94917e-05
6.30556e-05
3.99774e-05
3.85357e-05
4.05547e-05
4.33434e-05
4.58007e-05
4.57568e-05
4.09943e-05
3.69125e-05
3.73961e-05
4.20305e-05
4.67658e-05
4.67691e-05
4.43621e-05
4.15727e-05
3.94631e-05
4.07759e-05
6.36848e-05
5.98325e-05
6.99377e-05
7.87817e-05
9.7121e-05
0.000124328
0.000156509
0.000188053
0.000213173
0.000215146
0.000173548
0.000124705
0.000126554
0.00017846
0.000217846
0.000214649
0.000189738
0.00015822
0.000125954
9.85258e-05
7.97384e-05
7.04132e-05
8.25645e-05
9.93139e-05
0.000114199
0.000129018
0.000145232
0.000161442
0.000176511
0.000188754
0.000196815
0.00020106
0.000200888
0.00019757
0.000189769
0.000177543
0.00016246
0.000146204
0.000129902
0.000114953
9.99506e-05
8.30449e-05
2.6574e-06
4.84247e-06
6.36843e-06
7.41207e-06
7.95308e-06
8.17636e-06
8.18636e-06
8.07818e-06
8.08006e-06
8.80948e-06
8.69364e-06
8.06902e-06
8.19601e-06
8.39748e-06
8.43977e-06
8.22539e-06
7.66682e-06
6.56674e-06
4.90794e-06
2.6387e-06
4.23037e-06
1.21242e-05
1.47868e-05
1.52957e-05
1.46545e-05
1.37755e-05
1.29615e-05
1.2542e-05
1.34581e-05
1.67887e-05
1.66683e-05
1.3565e-05
1.27402e-05
1.32021e-05
1.4017e-05
1.48283e-05
1.53537e-05
1.47608e-05
1.20345e-05
4.35529e-06
8.62588e-06
1.37554e-05
1.6854e-05
1.8074e-05
1.79107e-05
1.68238e-05
1.54183e-05
1.43067e-05
1.45096e-05
1.93009e-05
1.87213e-05
1.44391e-05
1.45527e-05
1.58126e-05
1.73212e-05
1.84362e-05
1.85422e-05
1.72444e-05
1.41001e-05
8.88097e-06
1.16282e-05
1.32982e-05
1.59501e-05
1.76815e-05
1.82731e-05
1.78745e-05
1.67807e-05
1.56134e-05
1.59249e-05
2.4077e-05
2.32767e-05
1.57116e-05
1.58057e-05
1.71587e-05
1.83502e-05
1.87657e-05
1.81378e-05
1.63402e-05
1.35579e-05
1.15871e-05
2.55587e-05
1.85578e-05
1.6743e-05
1.74473e-05
1.80571e-05
1.79766e-05
1.73106e-05
1.65461e-05
1.75801e-05
3.20288e-05
3.11358e-05
1.74313e-05
1.6763e-05
1.76279e-05
1.8342e-05
1.8436e-05
1.78023e-05
1.69935e-05
1.85482e-05
2.52579e-05
3.7649e-05
2.67666e-05
1.92862e-05
1.78223e-05
1.78547e-05
1.76715e-05
1.70676e-05
1.65803e-05
1.87503e-05
4.13341e-05
4.01029e-05
1.87131e-05
1.68831e-05
1.74283e-05
1.80499e-05
1.82273e-05
1.81384e-05
1.94577e-05
2.67057e-05
3.76208e-05
4.8437e-05
3.74886e-05
2.42411e-05
2.06913e-05
2.0299e-05
2.03167e-05
2.02226e-05
2.05792e-05
2.44684e-05
5.32037e-05
5.19518e-05
2.47275e-05
2.11359e-05
2.08133e-05
2.09133e-05
2.08727e-05
2.11574e-05
2.44511e-05
3.73118e-05
4.86205e-05
5.86353e-05
6.05784e-05
3.62656e-05
3.62551e-05
3.95991e-05
4.33765e-05
4.57568e-05
4.40269e-05
4.02161e-05
6.03409e-05
5.96559e-05
4.13684e-05
4.55513e-05
4.72158e-05
4.47766e-05
4.09307e-05
3.74036e-05
3.71362e-05
6.11257e-05
5.89993e-05
6.96331e-05
7.74801e-05
9.59261e-05
0.00012836
0.000163543
0.00019534
0.000215146
0.000197303
0.000152065
0.000166366
0.000166526
0.000155628
0.000203227
0.000219291
0.00019825
0.000166045
0.000130422
9.74771e-05
7.84908e-05
7.01537e-05
8.33863e-05
0.000101269
0.000117441
0.000134061
0.000152203
0.000170683
0.000188754
0.000205629
0.000222771
0.000242967
0.00024218
0.000223329
0.000206881
0.000190169
0.000172066
0.000153496
0.000135201
0.000118368
0.000102028
8.39449e-05
2.49109e-06
3.55202e-06
4.78712e-06
5.76875e-06
6.43775e-06
6.98163e-06
7.50666e-06
8.08006e-06
8.67638e-06
9.62557e-06
9.50753e-06
8.58124e-06
8.05633e-06
7.53862e-06
7.05183e-06
6.52549e-06
5.85559e-06
4.83853e-06
3.55052e-06
2.4504e-06
4.11574e-06
7.58551e-06
1.02881e-05
1.15086e-05
1.18523e-05
1.20514e-05
1.24799e-05
1.34581e-05
1.48606e-05
4.44692e-05
4.44784e-05
1.47694e-05
1.34062e-05
1.24901e-05
1.21147e-05
1.19426e-05
1.15788e-05
1.03063e-05
7.59624e-06
4.10515e-06
4.90688e-06
1.03285e-05
1.33884e-05
1.47269e-05
1.49565e-05
1.46354e-05
1.43366e-05
1.45096e-05
1.96777e-05
9.93105e-05
9.93621e-05
1.95563e-05
1.44478e-05
1.43407e-05
1.4714e-05
1.50969e-05
1.48788e-05
1.3493e-05
1.0424e-05
4.84128e-06
8.66035e-06
1.01964e-05
1.3052e-05
1.51276e-05
1.61263e-05
1.61371e-05
1.57594e-05
1.59249e-05
2.76381e-05
0.000157714
0.000158518
2.76595e-05
1.58968e-05
1.57802e-05
1.62309e-05
1.63072e-05
1.5374e-05
1.32736e-05
1.02473e-05
8.57894e-06
2.375e-05
1.62737e-05
1.37947e-05
1.45832e-05
1.59324e-05
1.66085e-05
1.67085e-05
1.75801e-05
3.94994e-05
0.000229231
0.000231091
4.0056e-05
1.77706e-05
1.69087e-05
1.68375e-05
1.61952e-05
1.4843e-05
1.39131e-05
1.61393e-05
2.34831e-05
3.58984e-05
2.42765e-05
1.63215e-05
1.45144e-05
1.53252e-05
1.62393e-05
1.67872e-05
1.87503e-05
5.27659e-05
0.000300148
0.000302287
5.36612e-05
1.91715e-05
1.71485e-05
1.65671e-05
1.56333e-05
1.47706e-05
1.64104e-05
2.42201e-05
3.59049e-05
4.6649e-05
3.32069e-05
2.09842e-05
1.74087e-05
1.79461e-05
1.93421e-05
2.07226e-05
2.44684e-05
6.83959e-05
0.000346498
0.000348251
6.96708e-05
2.53577e-05
2.15106e-05
2.00641e-05
1.85928e-05
1.78953e-05
2.11582e-05
3.31907e-05
4.68582e-05
5.67527e-05
5.64228e-05
3.23695e-05
3.24631e-05
3.63922e-05
3.99779e-05
4.09943e-05
4.02161e-05
7.54622e-05
0.000339361
0.000338784
7.69276e-05
4.18938e-05
4.27906e-05
4.1727e-05
3.79649e-05
3.36934e-05
3.31983e-05
5.68367e-05
5.71335e-05
6.77002e-05
7.24665e-05
8.69986e-05
0.000119802
0.000151022
0.000173026
0.000173548
0.000152065
0.000178069
0.000315018
0.000314878
0.00018017
0.000155957
0.00017872
0.000177537
0.000154621
0.000122273
8.85827e-05
7.34647e-05
6.82497e-05
8.23509e-05
0.000100485
0.00011705
0.000134732
0.000154227
0.000174774
0.000196815
0.000222771
0.000257786
0.000301291
0.000299746
0.000258355
0.000224099
0.000198493
0.000176523
0.000155875
0.000136145
0.000118172
0.000101379
8.29914e-05
2.51284e-06
3.38478e-06
4.17854e-06
5.09493e-06
5.86844e-06
6.64594e-06
7.6587e-06
8.80948e-06
9.62557e-06
1.03983e-05
1.0194e-05
9.36505e-06
8.50012e-06
7.39743e-06
6.4516e-06
5.72784e-06
4.99606e-06
4.12304e-06
3.35277e-06
2.47898e-06
4.32989e-06
6.79001e-06
8.72233e-06
1.05281e-05
1.18772e-05
1.30688e-05
1.53717e-05
1.67887e-05
4.44692e-05
4.44608e-05
4.34985e-05
4.32249e-05
1.62201e-05
1.48766e-05
1.27083e-05
1.16231e-05
1.03337e-05
8.59052e-06
6.73816e-06
4.30486e-06
5.61628e-06
8.87437e-06
1.11745e-05
1.30441e-05
1.42748e-05
1.48875e-05
1.62094e-05
1.93009e-05
9.93105e-05
8.15847e-05
7.97512e-05
9.92123e-05
1.86762e-05
1.55503e-05
1.43797e-05
1.39147e-05
1.28113e-05
1.1031e-05
8.74914e-06
5.50644e-06
7.91159e-06
1.05148e-05
1.17662e-05
1.36783e-05
1.54165e-05
1.60284e-05
1.71376e-05
2.4077e-05
0.000157714
0.000125139
0.000122414
0.000161091
2.38016e-05
1.65236e-05
1.552e-05
1.5074e-05
1.35381e-05
1.17298e-05
1.04888e-05
7.57905e-06
2.24265e-05
1.61301e-05
1.27689e-05
1.2791e-05
1.51999e-05
1.65943e-05
1.82728e-05
3.20288e-05
0.000229231
0.00017699
0.000173344
0.000237616
3.27025e-05
1.7968e-05
1.63393e-05
1.50607e-05
1.2765e-05
1.25795e-05
1.5871e-05
2.21343e-05
3.42815e-05
2.33248e-05
1.53469e-05
1.24357e-05
1.43398e-05
1.65979e-05
1.93569e-05
4.13341e-05
0.000300148
0.0002353
0.000230728
0.000313075
4.29342e-05
1.93966e-05
1.65665e-05
1.43108e-05
1.24898e-05
1.5264e-05
2.32415e-05
3.43152e-05
4.45708e-05
3.12137e-05
1.95441e-05
1.53501e-05
1.71672e-05
2.06242e-05
2.49714e-05
5.32037e-05
0.000346498
0.000292349
0.000286983
0.000362288
5.57688e-05
2.58004e-05
2.12435e-05
1.76704e-05
1.5736e-05
1.96373e-05
3.12535e-05
4.48135e-05
5.40524e-05
5.13503e-05
2.87259e-05
2.75707e-05
3.15312e-05
3.4765e-05
3.69125e-05
6.03409e-05
0.000339361
0.00033236
0.000326226
0.000354011
6.30505e-05
3.85526e-05
3.64641e-05
3.30465e-05
2.86802e-05
2.9533e-05
5.17867e-05
5.44592e-05
6.42304e-05
6.42134e-05
7.15189e-05
9.97912e-05
0.000121199
0.000127665
0.000124705
0.000166366
0.000315018
0.000347304
0.000341297
0.000324209
0.000170351
0.000128341
0.000132512
0.000125524
0.000102429
7.31406e-05
6.5227e-05
6.47958e-05
7.91158e-05
9.65593e-05
0.000112253
0.00013018
0.000150329
0.000172818
0.00020106
0.000242967
0.000301291
0.000329117
0.000324858
0.000303267
0.00024511
0.000203156
0.000174968
0.000152353
0.000131857
0.000113543
9.75611e-05
7.98108e-05
2.52821e-06
3.38681e-06
4.12426e-06
5.00472e-06
5.77007e-06
6.54108e-06
7.55068e-06
8.69364e-06
9.50753e-06
1.0194e-05
1.00031e-05
9.25607e-06
8.39947e-06
7.26759e-06
6.28472e-06
5.53909e-06
4.80106e-06
3.97442e-06
3.33217e-06
2.49032e-06
4.32893e-06
6.7111e-06
8.5513e-06
1.0354e-05
1.17048e-05
1.29143e-05
1.52595e-05
1.66683e-05
4.44784e-05
4.34985e-05
4.30162e-05
4.39341e-05
1.63538e-05
1.49529e-05
1.26147e-05
1.14234e-05
1.00308e-05
8.23815e-06
6.56055e-06
4.25695e-06
5.49426e-06
8.67899e-06
1.0927e-05
1.27326e-05
1.38282e-05
1.43979e-05
1.56588e-05
1.87213e-05
9.93621e-05
7.97512e-05
7.89037e-05
0.00010034
1.84585e-05
1.52779e-05
1.40623e-05
1.35663e-05
1.24491e-05
1.06495e-05
8.43992e-06
5.38147e-06
7.72639e-06
1.01342e-05
1.14887e-05
1.33196e-05
1.48999e-05
1.54297e-05
1.64433e-05
2.32767e-05
0.000158518
0.000122414
0.000120997
0.000162614
2.33071e-05
1.60896e-05
1.51555e-05
1.47903e-05
1.33306e-05
1.15359e-05
1.03761e-05
7.11287e-06
2.21122e-05
1.57813e-05
1.25527e-05
1.2588e-05
1.48139e-05
1.61456e-05
1.76971e-05
3.11358e-05
0.000231091
0.000173344
0.000171051
0.000239233
3.17844e-05
1.75293e-05
1.60712e-05
1.49035e-05
1.27034e-05
1.23329e-05
1.55123e-05
2.16035e-05
3.40071e-05
2.30078e-05
1.5155e-05
1.23269e-05
1.41051e-05
1.62899e-05
1.88795e-05
4.0103e-05
0.000302287
0.000230728
0.000227316
0.000314489
4.13931e-05
1.89395e-05
1.63769e-05
1.42562e-05
1.24506e-05
1.49936e-05
2.28825e-05
3.40039e-05
4.43288e-05
3.09549e-05
1.935e-05
1.52687e-05
1.71127e-05
2.0567e-05
2.47703e-05
5.19518e-05
0.000348251
0.000286983
0.000282362
0.000362894
5.35704e-05
2.5126e-05
2.08982e-05
1.74815e-05
1.55955e-05
1.93607e-05
3.09752e-05
4.4611e-05
5.38149e-05
5.0907e-05
2.85858e-05
2.74503e-05
3.16602e-05
3.51919e-05
3.73961e-05
5.96559e-05
0.000338784
0.000326226
0.000320455
0.000352296
6.135e-05
3.84791e-05
3.64632e-05
3.28749e-05
2.84774e-05
2.93843e-05
5.1359e-05
5.42839e-05
6.39707e-05
6.37446e-05
7.07048e-05
9.951e-05
0.000122059
0.000129919
0.000126554
0.000166526
0.000314878
0.000341297
0.000335331
0.000323271
0.000169585
0.000130001
0.000134911
0.000126259
0.000102144
7.23297e-05
6.48536e-05
6.45778e-05
7.88682e-05
9.62896e-05
0.000111977
0.000130092
0.000150427
0.000172955
0.000200888
0.00024218
0.000299746
0.000324858
0.000320349
0.000301209
0.000243689
0.000202474
0.000174742
0.000152164
0.000131554
0.000113113
9.71937e-05
7.95346e-05
2.5433e-06
3.58651e-06
4.72868e-06
5.71621e-06
6.40836e-06
6.97646e-06
7.51376e-06
8.06902e-06
8.58124e-06
9.36505e-06
9.25607e-06
8.45212e-06
7.93978e-06
7.37636e-06
6.81861e-06
6.21614e-06
5.48455e-06
4.43703e-06
3.45183e-06
2.49254e-06
4.1639e-06
7.36092e-06
1.00849e-05
1.14011e-05
1.18293e-05
1.21016e-05
1.25835e-05
1.3565e-05
1.47694e-05
4.32249e-05
4.39341e-05
1.47379e-05
1.34726e-05
1.23784e-05
1.18185e-05
1.14589e-05
1.09348e-05
9.47982e-06
6.90087e-06
4.07793e-06
4.78239e-06
1.03747e-05
1.33237e-05
1.46562e-05
1.48918e-05
1.45719e-05
1.42633e-05
1.44391e-05
1.95563e-05
9.92123e-05
0.00010034
1.95125e-05
1.42615e-05
1.40251e-05
1.43041e-05
1.46212e-05
1.43981e-05
1.30047e-05
9.88087e-06
4.7918e-06
8.41708e-06
1.00299e-05
1.28803e-05
1.48941e-05
1.58502e-05
1.58815e-05
1.55087e-05
1.57116e-05
2.76595e-05
0.000161091
0.000162614
2.77625e-05
1.5629e-05
1.54216e-05
1.58637e-05
1.59501e-05
1.50801e-05
1.29926e-05
9.80759e-06
7.52905e-06
2.32572e-05
1.59532e-05
1.36003e-05
1.44542e-05
1.57311e-05
1.63886e-05
1.64985e-05
1.74313e-05
4.0056e-05
0.000237616
0.000239233
4.03953e-05
1.75325e-05
1.66044e-05
1.65575e-05
1.59717e-05
1.46717e-05
1.36028e-05
1.55e-05
2.2611e-05
3.55263e-05
2.38633e-05
1.60483e-05
1.44309e-05
1.52629e-05
1.61658e-05
1.67053e-05
1.87131e-05
5.36612e-05
0.000313075
0.000314489
5.41506e-05
1.89439e-05
1.69513e-05
1.64371e-05
1.5554e-05
1.46679e-05
1.60713e-05
2.3627e-05
3.5463e-05
4.63698e-05
3.27273e-05
2.06572e-05
1.73366e-05
1.80301e-05
1.95038e-05
2.0915e-05
2.47275e-05
6.96708e-05
0.000362288
0.000362894
6.99864e-05
2.50243e-05
2.12538e-05
1.98498e-05
1.83949e-05
1.76715e-05
2.07854e-05
3.27203e-05
4.66276e-05
5.65409e-05
5.58154e-05
3.21162e-05
3.23531e-05
3.66391e-05
4.06189e-05
4.20305e-05
4.13684e-05
7.69276e-05
0.000354011
0.000352296
7.74538e-05
4.24112e-05
4.32118e-05
4.16256e-05
3.75063e-05
3.31313e-05
3.29234e-05
5.6407e-05
5.69896e-05
6.75485e-05
7.21282e-05
8.5941e-05
0.000118917
0.000151159
0.00017508
0.00017846
0.000155628
0.00018017
0.000324209
0.000323271
0.000180908
0.000159536
0.000184264
0.000178938
0.000153623
0.000120397
8.7055e-05
7.31508e-05
6.81003e-05
8.22875e-05
0.00010044
0.000117029
0.0001349
0.000154648
0.000175426
0.00019757
0.000223329
0.000258355
0.000303267
0.000301209
0.000258203
0.000224103
0.00019886
0.000176779
0.000155878
0.000135917
0.000117834
0.000101116
8.28151e-05
2.76141e-06
4.88317e-06
6.42384e-06
7.47769e-06
8.07534e-06
8.34396e-06
8.35788e-06
8.19601e-06
8.05633e-06
8.50012e-06
8.39947e-06
7.93978e-06
8.10728e-06
8.28898e-06
8.27155e-06
7.9636e-06
7.29646e-06
6.10422e-06
4.57599e-06
2.69959e-06
4.3363e-06
1.17783e-05
1.45421e-05
1.51577e-05
1.46816e-05
1.39471e-05
1.32044e-05
1.27402e-05
1.34062e-05
1.62201e-05
1.63538e-05
1.34726e-05
1.26524e-05
1.30314e-05
1.36641e-05
1.41917e-05
1.43883e-05
1.35258e-05
1.05458e-05
4.27808e-06
8.48432e-06
1.38878e-05
1.7053e-05
1.83598e-05
1.83003e-05
1.72465e-05
1.57902e-05
1.45527e-05
1.44478e-05
1.86762e-05
1.84585e-05
1.42615e-05
1.4385e-05
1.56256e-05
1.71312e-05
1.82637e-05
1.83836e-05
1.70545e-05
1.37798e-05
7.62873e-06
1.10659e-05
1.33008e-05
1.60768e-05
1.78111e-05
1.84222e-05
1.80939e-05