/*--------------------------------*- C++ -*----------------------------------*\
  =========                 |
  \\      /  F ield         | OpenFOAM: The Open Source CFD Toolbox
   \\    /   O peration     | Website:  https://openfoam.org
    \\  /    A nd           | Version:  9
     \\/     M anipulation  |
\*---------------------------------------------------------------------------*/
FoamFile
{
    format      ascii;
    class       volScalarField;
    location    "2000";
    object      nut;
}
// * * * * * * * * * * * * * * * * * * * * * * * * * * * * * * * * * * * * * //

dimensions      [0 2 -1 0 0 0 0];

internalField   nonuniform List<scalar> 
4000
(
0.000329596
0.000310766
0.000278848
0.000215115
0.000126654
0.000113538
0.000107388
9.15673e-05
8.86798e-05
8.90693e-05
8.93404e-05
8.95774e-05
9.32512e-05
0.000108006
0.000114961
0.000123845
0.000185346
0.000267547
0.000303713
0.000325285
0.000351635
0.000336108
0.000310525
0.00027756
0.000255108
0.000231018
0.000187956
0.000115635
0.00011406
0.00011692
0.000116863
0.000114621
0.000116903
0.000179428
0.000229594
0.000255026
0.000278531
0.000307639
0.000334489
0.000349921
0.000363554
0.000351568
0.000327196
0.000300491
0.000272189
0.00024233
0.000206782
0.000164949
0.000124424
0.000133129
0.000131662
0.000122847
0.000163145
0.000205724
0.000241788
0.000272233
0.000301348
0.000327448
0.000350905
0.000362711
0.000370118
0.000362662
0.000342361
0.000314917
0.000282148
0.000248864
0.00022085
0.000191103
0.000164689
0.00015719
0.000155263
0.000162143
0.000186135
0.000216477
0.000245442
0.000280326
0.00031469
0.00034225
0.000362385
0.000369684
0.000374558
0.000372397
0.000360227
0.000343685
0.000326075
0.000309814
0.000295783
0.000283392
0.000273178
0.000265464
0.000263586
0.000270306
0.000280131
0.000292624
0.000307199
0.000324325
0.000342835
0.000359915
0.000372292
0.000374351
0.000378334
0.000382247
0.000379339
0.000373606
0.000366906
0.000359602
0.000352037
0.000344118
0.000336035
0.0003284
0.000327074
0.000334282
0.000342185
0.000350185
0.000358023
0.000365782
0.000372987
0.000379099
0.000382192
0.00037827
0.000382344
0.000392363
0.000397444
0.000399706
0.000400293
0.000399018
0.000395697
0.000390423
0.000383157
0.000374542
0.00037351
0.000382006
0.000389193
0.000394539
0.000398061
0.000399605
0.00039932
0.000397321
0.000392398
0.000382393
0.00038717
0.000403285
0.000415227
0.000423522
0.000429322
0.000432506
0.000432751
0.00042963
0.000422676
0.00041251
0.000411586
0.000421884
0.000428861
0.000432037
0.000431924
0.000428929
0.000423334
0.000415227
0.000403424
0.00038732
0.000393938
0.000417209
0.000435408
0.000448859
0.00045898
0.000465862
0.000469263
0.000468247
0.000461699
0.00044972
0.000448784
0.000461169
0.000467714
0.000468762
0.000465491
0.000458796
0.000448865
0.000435565
0.000417454
0.000394176
0.0004042
0.000434628
0.000459274
0.000477554
0.000491865
0.000502741
0.000509875
0.000512421
0.000509237
0.000499154
0.000498341
0.000509024
0.000512185
0.000509613
0.000502549
0.000491799
0.000477627
0.000459477
0.000434918
0.000404504
0.000310766
0.000301013
0.000271097
0.000216991
0.000154832
0.000148246
0.000141745
0.000123744
0.000105916
0.000103327
0.000103353
0.000106342
0.000124037
0.000143105
0.000148021
0.000152173
0.000190637
0.00025441
0.000284897
0.000302998
0.000336108
0.000472789
0.000445531
0.000385495
0.000360679
0.000350755
0.000309158
0.000254815
0.000238121
0.000293487
0.000291795
0.000247301
0.000257
0.000310359
0.000355934
0.000367544
0.000390932
0.00044212
0.000476126
0.000333862
0.000351568
0.000489277
0.000500878
0.000449821
0.000391901
0.000353308
0.000314811
0.000277283
0.000268953
0.000325029
0.000317645
0.000269533
0.00027887
0.000316008
0.000353488
0.000389809
0.000443269
0.000492318
0.00048525
0.000350481
0.000362662
0.000494895
0.000510692
0.000463084
0.000391429
0.000340689
0.00030179
0.000263581
0.000247657
0.000321737
0.00030808
0.000245122
0.000264888
0.00030191
0.000339263
0.000388976
0.000459974
0.000506083
0.000492168
0.000362155
0.000372397
0.000514035
0.000542901
0.000510323
0.000433944
0.000363217
0.00031741
0.000276417
0.000254658
0.000265344
0.000259525
0.000251778
0.000273954
0.000314734
0.000359503
0.00043029
0.000508697
0.00054139
0.000513063
0.00037225
0.000382247
0.000531872
0.000570904
0.000563251
0.000512563
0.000432922
0.000376066
0.000334476
0.000311413
0.000307853
0.000303766
0.000307269
0.000329762
0.00037069
0.000425616
0.000508514
0.000562896
0.000571664
0.000532379
0.000382336
0.000392363
0.000543397
0.000586081
0.000605759
0.000605071
0.000574596
0.000509837
0.000445934
0.000402907
0.000386147
0.000382638
0.000397216
0.000433995
0.00049945
0.000569172
0.000603245
0.000606813
0.000588383
0.000544842
0.000392667
0.000403285
0.000548117
0.000588763
0.000628154
0.000663504
0.000676389
0.000669338
0.0006505
0.000621474
0.000592546
0.000589927
0.000617726
0.000649974
0.000669964
0.000677918
0.000665823
0.000631456
0.000592134
0.0005501
0.000403755
0.000417209
0.000533002
0.000581098
0.00061753
0.000645215
0.000660073
0.000664549
0.000652803
0.000618607
0.000569155
0.000566741
0.000617085
0.000652054
0.000665032
0.00066205
0.000648364
0.00062127
0.000584401
0.000535087
0.000417796
0.000434628
0.000466687
0.000493586
0.000514861
0.000532932
0.000548073
0.000559307
0.000564808
0.000562633
0.000551561
0.000550748
0.000562464
0.000564628
0.000559152
0.000548065
0.00053312
0.000515238
0.000494132
0.000467332
0.000435256
0.000278848
0.000271097
0.000243044
0.000194999
0.000166311
0.000173971
0.000162197
0.000141792
0.000122893
0.00011476
0.000113994
0.000122016
0.000142156
0.000163141
0.000171596
0.000166531
0.000179477
0.000223338
0.00025465
0.000266956
0.000310525
0.000445531
0.000436608
0.000410314
0.00041308
0.000414179
0.000374024
0.000312161
0.000294243
0.000341267
0.000340399
0.000298883
0.00031506
0.000376754
0.000422903
0.000424854
0.000421897
0.000438543
0.000440183
0.000306101
0.000327196
0.000500878
0.000530793
0.000491395
0.000447361
0.000416761
0.000382372
0.000350352
0.0003443
0.00038698
0.000376389
0.000341432
0.000353105
0.000383884
0.000416949
0.000445385
0.000484371
0.000517789
0.000492086
0.000326953
0.000342361
0.000510692
0.000547959
0.000515896
0.000454816
0.000407297
0.000370352
0.000338916
0.00033652
0.000395622
0.000384455
0.000330613
0.000340876
0.000371249
0.00040581
0.000451553
0.000510986
0.000540919
0.000504554
0.000341952
0.000360227
0.000542901
0.000590537
0.000564969
0.000486133
0.000411398
0.00036025
0.000316624
0.000291919
0.000318382
0.000307642
0.00028813
0.000317484
0.000359601
0.000408438
0.000482557
0.000562429
0.000587799
0.000540262
0.000359993
0.000379339
0.000570904
0.000626974
0.000613286
0.000536959
0.000441173
0.000372963
0.000320338
0.000287408
0.000289984
0.000284034
0.000283324
0.00031845
0.000369898
0.000436389
0.000533804
0.000613213
0.000627849
0.000571262
0.000379486
0.000397444
0.000586081
0.000647944
0.000648687
0.00059515
0.000513161
0.000440658
0.00038161
0.000342065
0.000331426
0.000326842
0.000336886
0.000375807
0.000434928
0.000508696
0.000593949
0.000651347
0.000651882
0.000588644
0.000397915
0.000415227
0.000588763
0.000662436
0.000692026
0.00067887
0.000634492
0.000587216
0.000540124
0.000494018
0.000458611
0.000455333
0.000489451
0.000536377
0.000585076
0.000634727
0.000682608
0.000699202
0.000669167
0.000592875
0.000415927
0.000435408
0.000581098
0.000701289
0.000811455
0.000879551
0.000912117
0.000919681
0.000898288
0.000833599
0.000733866
0.000728672
0.000827216
0.000893174
0.000919009
0.000917552
0.000887748
0.00082067
0.000708749
0.000585212
0.000436267
0.000459274
0.000493586
0.000522103
0.000545425
0.000566231
0.00058483
0.000599844
0.00060833
0.000607338
0.0005948
0.000594021
0.000607218
0.000608216
0.000599818
0.000585014
0.000566642
0.000546039
0.000522894
0.000494466
0.000460104
0.000215115
0.000216991
0.000194999
0.000175392
0.000180972
0.000183897
0.000172923
0.000152981
0.000134917
0.000126742
0.000125585
0.000134162
0.00015337
0.000174468
0.000183767
0.000180126
0.000172831
0.000180384
0.000189615
0.00017967
0.00027756
0.000385495
0.000410314
0.0004272
0.000448232
0.00044904
0.000401957
0.000343038
0.00033575
0.000389605
0.000386386
0.000339829
0.000348036
0.000404759
0.00045665
0.000461074
0.000441438
0.000421613
0.000390252
0.000277943
0.000300491
0.000449821
0.000491395
0.000482957
0.000466663
0.000449056
0.000421288
0.000394718
0.000392089
0.000443571
0.000429614
0.000388092
0.00039924
0.000424058
0.000449545
0.000466203
0.000479915
0.000484716
0.0004432
0.000301411
0.000314917
0.000463084
0.000515896
0.000508723
0.000476075
0.000444166
0.000416352
0.000394761
0.000401148
0.000456394
0.000440208
0.000392798
0.00039652
0.000417736
0.000442735
0.000472754
0.000503935
0.000509733
0.000457505
0.000314688
0.000343685
0.000510323
0.000564969
0.000557603
0.000505791
0.000450483
0.000409192
0.000376271
0.000365912
0.00041799
0.000404618
0.00036007
0.000377592
0.000409201
0.000447893
0.000501891
0.000553618
0.000560804
0.000506374
0.000343171
0.000373606
0.000563251
0.000613286
0.000607037
0.000547036
0.000471061
0.000411491
0.000363401
0.000332843
0.000348677
0.000338284
0.00032931
0.000363813
0.000410415
0.000468211
0.000544416
0.000605613
0.000612132
0.000562032
0.000373712
0.000399706
0.000605759
0.000648687
0.000645916
0.000594722
0.000519461
0.000454794
0.000401744
0.000362178
0.000353554
0.000348224
0.000359788
0.000400984
0.000453433
0.000518144
0.000595173
0.000648371
0.000651588
0.000608144
0.000400285
0.000423522
0.000628154
0.000692026
0.000718426
0.000692568
0.00063887
0.000589492
0.000545647
0.000498902
0.000456634
0.000454731
0.000498228
0.00054674
0.00059165
0.000642527
0.000698928
0.000727422
0.000701201
0.000634186
0.000424409
0.000448859
0.00061753
0.000811455
0.000983512
0.00100408
0.00101983
0.00104531
0.00105125
0.000994584
0.00087799
0.000876541
0.000990637
0.00104849
0.00104657
0.00102526
0.00101271
0.000993273
0.000822785
0.00062359
0.000449946
0.000477554
0.000514861
0.000545425
0.000571068
0.000595332
0.000618254
0.000637659
0.000650029
0.000651678
0.000640599
0.000640341
0.000652005
0.00065037
0.000638041
0.000618773
0.000596056
0.00057193
0.000546444
0.00051594
0.000478548
0.000126654
0.000154832
0.000166311
0.000180972
0.000188358
0.00018766
0.000176489
0.000158458
0.000142526
0.000136024
0.000134879
0.000142088
0.00015943
0.000178686
0.000189389
0.000188681
0.000181315
0.000168623
0.000152881
0.000123254
0.000255108
0.000360679
0.00041308
0.000448232
0.000468352
0.000453901
0.000401553
0.000358872
0.000363139
0.000432588
0.000427609
0.000366654
0.000366505
0.000406145
0.000458647
0.000477784
0.000461259
0.000426015
0.000369788
0.000255871
0.000272189
0.000391901
0.000447361
0.000466663
0.000470103
0.000460345
0.000440599
0.00041889
0.00042284
0.000494369
0.000476059
0.000417876
0.000425537
0.000446766
0.000462616
0.000471094
0.000467058
0.000446727
0.00039112
0.000273095
0.000282148
0.000391429
0.000454816
0.000476075
0.000471294
0.000457426
0.000442003
0.000431051
0.000445283
0.000514011
0.000493396
0.000435165
0.00043318
0.000445338
0.000458023
0.000469852
0.000473682
0.00045198
0.000388629
0.000280904
0.000326075
0.000433944
0.000486133
0.000505791
0.00049067
0.000463841
0.000439815
0.00042174
0.000429241
0.000496844
0.000478729
0.00042078
0.00042285
0.000441101
0.000463028
0.000488277
0.000502618
0.000482281
0.000429728
0.00032505
0.000366906
0.000512563
0.000536959
0.000547036
0.000523419
0.000481986
0.000443046
0.000410812
0.000401156
0.0004518
0.000437894
0.000396442
0.000412299
0.000443825
0.000481207
0.000521839
0.000544685
0.000533324
0.000508884
0.000366877
0.000400293
0.000605071
0.00059515
0.000594722
0.00057066
0.000525654
0.000480157
0.000440839
0.000417666
0.000438619
0.000432841
0.000417414
0.00044339
0.000482122
0.000527144
0.00057231
0.000595858
0.000595092
0.000605913
0.000400923
0.000429322
0.000663504
0.00067887
0.000692568
0.000671772
0.000629156
0.000589317
0.00055486
0.000516373
0.000482937
0.000484201
0.000520623
0.000560699
0.000595794
0.000636391
0.000680128
0.000701302
0.000686969
0.00067057
0.000430356
0.00045898
0.000645215
0.000879551
0.00100408
0.00106633
0.00112028
0.00117659
0.00119595
0.0011208
0.000956316
0.000962163
0.00112373
0.00119712
0.00118042
0.00112856
0.00107777
0.00101633
0.000893222
0.00065253
0.00046025
0.000491865
0.000532932
0.000566231
0.000595332
0.000625087
0.000652974
0.000676602
0.00069268
0.000697295
0.000688443
0.000688625
0.000698165
0.000693548
0.000677469
0.000653957
0.000626226
0.000596556
0.000567513
0.000534215
0.000493013
0.000113538
0.000148246
0.000173971
0.000183897
0.00018766
0.000184587
0.000174468
0.00016066
0.000148424
0.000144763
0.000143651
0.000148294
0.000162112
0.000177125
0.000187682
0.000190063
0.000185474
0.000174915
0.000150204
0.000114874
0.000231018
0.000350755
0.000414179
0.00044904
0.000453901
0.000427631
0.000390815
0.000369275
0.000385592
0.000463914
0.000458722
0.000388607
0.000378373
0.000399079
0.000432539
0.000458548
0.00045647
0.000423901
0.000359464
0.000231764
0.00024233
0.000353308
0.000416761
0.000449056
0.000460345
0.000457197
0.000444147
0.000428608
0.000442369
0.000520796
0.000502423
0.000436782
0.000436193
0.000454364
0.000464067
0.00046382
0.000451417
0.000419189
0.000355891
0.000243303
0.000248864
0.000340689
0.000407297
0.000444166
0.000457426
0.000458225
0.000454139
0.000450673
0.000470182
0.000537364
0.000516093
0.000459765
0.000454096
0.000460417
0.000462908
0.000459778
0.000445359
0.000408272
0.000341134
0.000246613
0.000309814
0.000363217
0.000411398
0.000450483
0.000463841
0.000461371
0.000453998
0.000449434
0.000469764
0.000531037
0.000513582
0.00046051
0.000451009
0.000457526
0.000463962
0.000465118
0.000450902
0.000411082
0.000361771
0.000308329
0.000359602
0.000432922
0.000441173
0.000471061
0.000481986
0.000472664
0.000455723
0.000441445
0.000452195
0.000507854
0.000495187
0.000447028
0.000444018
0.00045893
0.000474993
0.000483353
0.000471048
0.000439043
0.000428684
0.000359455
0.000399018
0.000574596
0.000513161
0.000519461
0.000525654
0.000511813
0.000487584
0.000464641
0.000462178
0.000505759
0.00050063
0.000463194
0.000469529
0.000492491
0.000516244
0.00052946
0.000521546
0.000512732
0.000573436
0.000399679
0.000432506
0.000676389
0.000634492
0.00063887
0.000629156
0.000605599
0.000582707
0.000559395
0.000526289
0.00050063
0.000504467
0.000534241
0.00056849
0.000592257
0.000615691
0.00063948
0.00064824
0.00064246
0.000683705
0.000433663
0.000465862
0.000660073
0.000912117
0.00101983
0.00112028
0.00121637
0.00129392
0.00130309
0.00117253
0.000914936
0.000929168
0.0011855
0.00130972
0.00130023
0.00122601
0.00113321
0.00103342
0.000927142
0.000668195
0.000467295
0.000502741
0.000548073
0.00058483
0.000618254
0.000652974
0.00068551
0.00071341
0.000733574
0.000742336
0.00073818
0.000738414
0.000743642
0.000734997
0.000714826
0.000686991
0.000654543
0.000619839
0.000586385
0.000549564
0.000504046
0.000107388
0.000141745
0.000162197
0.000172923
0.000176489
0.000174468
0.000168706
0.000160756
0.0001539
0.000155418
0.000154385
0.000153947
0.000162308
0.000171335
0.000177646
0.000179762
0.000176346
0.000165983
0.000144949
0.000109467
0.000187956
0.000309158
0.000374024
0.000401957
0.000401553
0.000390815
0.000380716
0.000378081
0.000407879
0.000489279
0.000485606
0.000410457
0.00038685
0.000390817
0.0003992
0.000406406
0.00040511
0.000377568
0.000312746
0.000185318
0.000206782
0.000314811
0.000382372
0.000421288
0.000440599
0.000444147
0.000437245
0.000431345
0.000454644
0.000507584
0.000493258
0.000449101
0.000438296
0.000448523
0.00045541
0.000449247
0.000427284
0.000387165
0.000319213
0.000208422
0.00022085
0.00030179
0.000370352
0.000416352
0.000442003
0.000454139
0.000457499
0.000457816
0.000477727
0.000489638
0.000474652
0.00046818
0.000461963
0.000466096
0.000462883
0.000449282
0.000422158
0.00037528
0.000305209
0.000218716
0.000295783
0.00031741
0.00036025
0.000409192
0.000439815
0.000453998
0.000458981
0.000463812
0.000483462
0.000462816
0.000452657
0.000475599
0.000466431
0.000464821
0.000460279
0.000445588
0.000414272
0.000364175
0.000318456
0.000294153
0.000352037
0.000376066
0.000372963
0.000411491
0.000443046
0.000455723
0.000456429
0.000457096
0.000473045
0.000442822
0.000436915
0.000469093
0.00046107
0.000462293
0.000461624
0.000448396
0.000415552
0.000374627
0.000374692
0.000351907
0.000395697
0.000509837
0.000440658
0.000454794
0.000480157
0.000487584
0.000480433
0.000472774
0.000483868
0.000479022
0.000477788
0.000485824
0.000479598
0.000488152
0.000495245
0.000487186
0.000459861
0.000442031
0.000506606
0.000396409
0.000432751
0.000669338
0.000587216
0.000589492
0.000589317
0.000582707
0.000572181
0.000551847
0.000516843
0.000488655
0.000493328
0.000527172
0.000563801
0.000584613
0.000595687
0.000602441
0.000601327
0.000596641
0.000676372
0.000434021
0.000469263
0.000664549
0.000919681
0.00104531
0.00117659
0.00129392
0.00136905
0.00133036
0.0010963
0.00077056
0.000781115
0.00112207
0.00134654
0.00138051
0.00130669
0.00119126
0.00106047
0.000934799
0.00067318
0.000470862
0.000509875
0.000559307
0.000599844
0.000637659
0.000676602
0.00071341
0.000745998
0.000771469
0.000787794
0.000796262
0.000795812
0.000789222
0.000773443
0.000748052
0.000715514
0.000678717
0.000639712
0.000601732
0.000561056
0.000511371
9.15673e-05
0.000123744
0.000141792
0.000152981
0.000158458
0.00016066
0.000160756
0.000159678
0.000159669
0.000166684
0.000165675
0.000159577
0.000160784
0.000162705
0.000163077
0.000160978
0.000155423
0.000143881
0.0001246
9.12716e-05
0.000115635
0.000254815
0.000312161
0.000343038
0.000358872
0.000369275
0.000378081
0.00039255
0.000419391
0.000395619
0.000393255
0.000421292
0.000398282
0.000385861
0.000377625
0.000366228
0.000348043
0.000314945
0.000255967
0.000117294
0.000164949
0.000277283
0.000350352
0.000394718
0.00041889
0.000428608
0.000431345
0.000435938
0.00042546
0.00029772
0.000288016
0.000421525
0.000440099
0.00043916
0.000437934
0.000428069
0.000402316
0.000356038
0.000281445
0.000167206
0.000191103
0.000263581
0.000338916
0.000394761
0.000431051
0.000450673
0.000457816
0.000458618
0.000415388
0.000266246
0.000255519
0.000408875
0.000461286
0.000465016
0.000459632
0.000440128
0.000403065
0.000345902
0.000268238
0.000190783
0.000283392
0.000276417
0.000316624
0.000376271
0.00042174
0.000449434
0.000463812
0.000467421
0.000398255
0.000280521
0.000270367
0.00039411
0.000470723
0.000470383
0.000457262
0.000430008
0.000384289
0.000322901
0.000278474
0.000281887
0.000344118
0.000334476
0.000320338
0.000363401
0.000410812
0.000441445
0.000457096
0.000460582
0.000378244
0.000314357
0.00030297
0.000377553
0.000465793
0.000464486
0.000449381
0.000418574
0.00036984
0.000323676
0.000333903
0.000344101
0.000390423
0.000445934
0.00038161
0.000401744
0.000440839
0.000464641
0.000472774
0.000475006
0.00041848
0.000382974
0.000373002
0.00042268
0.000483492
0.000482654
0.000474737
0.000450364
0.000409053
0.000384184
0.000442702
0.000391228
0.00042963
0.0006505
0.000540124
0.000545647
0.00055486
0.000559395
0.000551847
0.000525684
0.000482551
0.000456075
0.000451955
0.000493775
0.000540772
0.00056778
0.000575875
0.000571187
0.000560053
0.000550531
0.000656628
0.000431001
0.000468247
0.000652803
0.000898288
0.00105125
0.00119595
0.00130309
0.00133036
0.00118095
0.000890153
0.000811093
0.000805812
0.000909513
0.00121066
0.00135394
0.00132277
0.00121473
0.00106857
0.000912845
0.000661482
0.00047001
0.000512421
0.000564808
0.00060833
0.000650029
0.00069268
0.000733574
0.000771469
0.000805249
0.000838183
0.000875401
0.000873802
0.000839104
0.000807602
0.000774251
0.00073642
0.000695491
0.000652676
0.000610645
0.000566891
0.000514158
8.86798e-05
0.000105916
0.000122893
0.000134917
0.000142526
0.000148424
0.0001539
0.000159669
0.000165442
0.000174246
0.000173258
0.00016458
0.000159435
0.000154197
0.000149114
0.000143435
0.000135888
0.000123561
0.000105945
8.79716e-05
0.00011406
0.000238121
0.000294243
0.00033575
0.000363139
0.000385592
0.000407879
0.000419391
0.000334358
0.000395065
0.000392325
0.000334049
0.000418157
0.00040758
0.000386562
0.000365031
0.000337657
0.000295419
0.000238721
0.000113843
0.000124424
0.000268953
0.0003443
0.000392089
0.00042284
0.000442369
0.000454644
0.00042546
0.000261332
0.000493597
0.000489069
0.00025679
0.00042172
0.0004524
0.000441476
0.000423037
0.000392477
0.000343794
0.000268091
0.000123491
0.000164689
0.000247657
0.00033652
0.000401148
0.000445283
0.000470182
0.000477727
0.000415388
0.000263301
0.000659202
0.000653953
0.000258685
0.000410902
0.000475828
0.000469682
0.000446399
0.000403555
0.000339135
0.000249575
0.00016441
0.000273178
0.000254658
0.000291919
0.000365912
0.000429241
0.000469764
0.000483462
0.000398255
0.000300897
0.000859699
0.000854112
0.000299195
0.000396699
0.000484442
0.000471317
0.000431589
0.000369149
0.000294614
0.00025459
0.000271873
0.000336035
0.000311413
0.000287408
0.000332843
0.000401156
0.000452195
0.000473045
0.000378244
0.000350665
0.00105423
0.0010461
0.000350418
0.000380117
0.000476599
0.000455124
0.000403603
0.000334998
0.000287913
0.000310344
0.000336196
0.000383157
0.000402907
0.000342065
0.000362178
0.000417666
0.000462178
0.000483868
0.00041848
0.000429558
0.00119253
0.00118094
0.000431141
0.000426538
0.000493078
0.000470671
0.000425038
0.000367447
0.000342883
0.000400863
0.000384091
0.000422676
0.000621474
0.000494018
0.000498902
0.000516373
0.000526289
0.000516843
0.000482551
0.000508301
0.00122827
0.00121037
0.000512875
0.00049822
0.000535305
0.000545368
0.000534531
0.000513739
0.000503444
0.00062599
0.000424141
0.000461699
0.000618607
0.000833599
0.000994584
0.0011208
0.00117253
0.0010963
0.000890153
0.000873116
0.00122409
0.00121116
0.00087657
0.000909226
0.00112483
0.00120033
0.00114544
0.00101404
0.000848159
0.000626842
0.000463603
0.000509237
0.000562633
0.000607338
0.000651678
0.000697295
0.000742336
0.000787794
0.000838183
0.000901727
0.000974935
0.000972213
0.000902531
0.000840536
0.000791029
0.000745929
0.000700901
0.000654994
0.000610183
0.000565122
0.000511258
8.90693e-05
0.000103327
0.00011476
0.000126742
0.000136024
0.000144763
0.000155418
0.000166684
0.000174246
0.00018112
0.000179377
0.000171906
0.000163763
0.000152753
0.000142633
0.000134387
0.000125522
0.000114032
0.000102879
8.84733e-05
0.00011692
0.000293487
0.000341267
0.000389605
0.000432588
0.000463914
0.000489279
0.000395619
0.000395065
0.00025979
0.000253285
0.000382054
0.000386317
0.000478384
0.000453478
0.000423155
0.000380543
0.000333513
0.000288053
0.000116521
0.000133129
0.000325029
0.00038698
0.000443571
0.000494369
0.000520796
0.000507584
0.00029772
0.000493597
0.000381491
0.000371594
0.00048687
0.000284237
0.000490787
0.000504664
0.000479788
0.000430397
0.000375455
0.000315304
0.000131739
0.00015719
0.000321737
0.000395622
0.000456394
0.000514011
0.000537364
0.000489638
0.000266246
0.000659202
0.0005133
0.000500266
0.000662303
0.000256213
0.000472733
0.000522013
0.000500611
0.000445677
0.000388008
0.000325785
0.000154612
0.000265464
0.000265344
0.000318382
0.00041799
0.000496844
0.000531037
0.000462816
0.000280521
0.000859699
0.000661731
0.000645698
0.000874833
0.000277571
0.000449532
0.000518998
0.000485246
0.000408596
0.000313724
0.000263803
0.000264027
0.0003284
0.000307853
0.000289984
0.000348677
0.0004518
0.000507854
0.000442822
0.000314357
0.00105423
0.000824366
0.000805469
0.00107888
0.000317202
0.000434403
0.000498129
0.000439636
0.000338935
0.000285292
0.000305727
0.000328704
0.000374542
0.000386147
0.000331426
0.000353554
0.000438619
0.000505759
0.000479022
0.000382974
0.00119253
0.00098555
0.000964212
0.00122224
0.00039128
0.000481853
0.000505733
0.000436583
0.00035219
0.00032897
0.000383755
0.00037563
0.00041251
0.000592546
0.000458611
0.000456634
0.000482937
0.00050063
0.000488655
0.000456075
0.00122827
0.00111215
0.00108852
0.00125554
0.000467089
0.000503658
0.000517871
0.000499282
0.000469216
0.000466314
0.000596442
0.000414103
0.00044972
0.000569155
0.000733866
0.00087799
0.000956316
0.000914936
0.00077056
0.000811093
0.00122409
0.00119059
0.00116675
0.00124027
0.000821371
0.000789785
0.000946463
0.000986145
0.000898867
0.00074895
0.000577227
0.000451736
0.000499154
0.000551561
0.0005948
0.000640599
0.000688443
0.00073818
0.000796262
0.000875401
0.000974935
0.00101903
0.00101224
0.000977899
0.000879075
0.000800266
0.000742649
0.000692967
0.000644636
0.000598158
0.00055442
0.000501403
8.93404e-05
0.000103353
0.000113994
0.000125585
0.000134879
0.000143651
0.000154385
0.000165675
0.000173258
0.000179377
0.000177715
0.000170969
0.000162902
0.00015151
0.000140868
0.000132236
0.000123099
0.000111975
0.000102541
8.86485e-05
0.000116863
0.000291795
0.000340399
0.000386386
0.000427609
0.000458722
0.000485606
0.000393255
0.000392325
0.000253285
0.000248561
0.000382949
0.000386074
0.000480003
0.000455071
0.000426024
0.000385617
0.00034166
0.000292715
0.000115841
0.000131662
0.000317645
0.000376389
0.000429614
0.000476059
0.000502423
0.000493258
0.000288016
0.000489069
0.000371594
0.000365346
0.000488136
0.000277043
0.000485925
0.000500908
0.000478647
0.000433087
0.000381744
0.000325601
0.000130245
0.000155263
0.00030808
0.000384455
0.000440208
0.000493396
0.000516093
0.000474653
0.000255519
0.000653953
0.000500266
0.000492087
0.000662291
0.000248423
0.000465524
0.000514346
0.000496292
0.000445734
0.000391584
0.000332643
0.000149957
0.000263586
0.000259525
0.000307642
0.000404618
0.000478729
0.000513582
0.000452657
0.000270367
0.000854112
0.000645698
0.000634847
0.000871767
0.000268253
0.000444999
0.000511372
0.000480042
0.000408726
0.000312696
0.000261591
0.000260938
0.000327074
0.000303766
0.000284034
0.000338284
0.000437894
0.000495187
0.000436915
0.00030297
0.0010461
0.000805469
0.000791374
0.00107148
0.000304578
0.000432877
0.00049256
0.000435207
0.000337189
0.000281834
0.000302137
0.000327237
0.00037351
0.000382638
0.000326842
0.000348224
0.000432841
0.00050063
0.000477788
0.000373002
0.00118094
0.000964212
0.000946653
0.00120911
0.000375667
0.000478771
0.000500254
0.000432062
0.000348607
0.000324436
0.000380047
0.00037476
0.000411586
0.000589927
0.000455333
0.000454731
0.000484201
0.000504467
0.000493328
0.000451955
0.00121037
0.00108852
0.00106773
0.00123485
0.000456688
0.000502999
0.000516502
0.000496483
0.000465431
0.000462365
0.000593507
0.000413385
0.000448784
0.000566741
0.000728672
0.000876541
0.000962163
0.000929167
0.000781115
0.000805812
0.00121116
0.00116675
0.0011448
0.00122506
0.000811757
0.000800039
0.000961122
0.000990086
0.000896073
0.000742874
0.000575185
0.000450898
0.000498341
0.000550748
0.000594021
0.000640341
0.000688625
0.000738414
0.000795812
0.000873802
0.000972213
0.00101224
0.00100551
0.000974654
0.000876562
0.000798942
0.000742171
0.000692509
0.000643844
0.000596956
0.000553292
0.000500445
8.95774e-05
0.000106342
0.000122016
0.000134162
0.000142088
0.000148294
0.000153947
0.000159577
0.00016458
0.000171906
0.000170969
0.000163407
0.000158331
0.000152574
0.00014667
0.000140031
0.000131541
0.000118319
0.000104353
8.86609e-05
0.000114621
0.000247301
0.000298883
0.000339829
0.000366654
0.000388607
0.000410457
0.000421292
0.000334049
0.000382054
0.000382949
0.000332609
0.000420296
0.000409221
0.000387673
0.000366257
0.000339993
0.000299191
0.000251395
0.000113355
0.000122847
0.000269533
0.000341432
0.000388092
0.000417876
0.000436782
0.000449101
0.000421525
0.00025679
0.00048687
0.000488136
0.000251353
0.000418499
0.000449164
0.000438006
0.000420092
0.00039088
0.000343384
0.000269265
0.000122877
0.000162143
0.000245122
0.000330613
0.000392798
0.000435165
0.000459765
0.00046818
0.000408875
0.000258685
0.000662303
0.000662291
0.000254713
0.000405799
0.000469954
0.000464103
0.000442054
0.000401392
0.0003387
0.000249465
0.000154235
0.000270306
0.000251778
0.00028813
0.00036007
0.00042078
0.00046051
0.000475599
0.00039411
0.000299195
0.000874833
0.000871767
0.000296708
0.000392902
0.000478971
0.000466039
0.000428242
0.000368217
0.00029356
0.000249909
0.000266926
0.000334282
0.000307269
0.000283324
0.00032931
0.000396442
0.000447028
0.000469093
0.000377553
0.000350418
0.00107888
0.00107148
0.000348148
0.000378947
0.000473618
0.000452097
0.000401776
0.000333806
0.000284062
0.000304198
0.000334161
0.000382006
0.000397216
0.000336886
0.000359788
0.000417414
0.000463194
0.000485824
0.00042268
0.000431141
0.00122224
0.00120911
0.000426935
0.000425444
0.000490336
0.000467604
0.000421576
0.000362893
0.00033631
0.000394037
0.000383115
0.000421884
0.000617726
0.000489451
0.000498228
0.000520623
0.000534241
0.000527172
0.000493775
0.000512875
0.00125554
0.00123485
0.000511131
0.000502629
0.000538
0.000544912
0.000530688
0.000507049
0.000496214
0.000622906
0.000423536
0.000461169
0.000617085
0.000827216
0.000990637
0.00112373
0.0011855
0.00112207
0.000909513
0.00087657
0.00124027
0.00122506
0.000874551
0.000930432
0.00115336
0.00120892
0.00114042
0.00100235
0.000837425
0.000624908
0.000462997
0.000509024
0.000562464
0.000607218
0.000652005
0.000698165
0.000743642
0.000789222
0.000839104
0.000902531
0.000977899
0.000974654
0.000902325
0.000840578
0.000791773
0.00074645
0.000700852
0.000654369
0.000609223
0.000564296
0.000510625
9.32512e-05
0.000124037
0.000142156
0.00015337
0.00015943
0.000162112
0.000162308
0.000160784
0.000159435
0.000163763
0.000162902
0.000158331
0.000159923
0.000161654
0.000161444
0.000158383
0.000151596
0.000138713
0.00012015
9.22269e-05
0.000116903
0.000257
0.00031506
0.000348036
0.000366505
0.000378373
0.00038685
0.000398282
0.000418157
0.000386317
0.000386074
0.000420296
0.000400381
0.000388955
0.000380375
0.000367468
0.000346748
0.000311042
0.000251188
0.000116063
0.000163145
0.00027887
0.000353105
0.00039924
0.000425537
0.000436193
0.000438296
0.000440099
0.00042172
0.000284237
0.000277043
0.000418499
0.000440915
0.000440179
0.000439129
0.000429469
0.000403325
0.000355856
0.000279373
0.000154815
0.000186135
0.000264888
0.000340876
0.00039652
0.00043318
0.000454096
0.000461963
0.000461286
0.000410902
0.000256213
0.000248423
0.000405799
0.000461902
0.00046521
0.00045952
0.000439767
0.000402556