/*--------------------------------*- C++ -*----------------------------------*\
  =========                 |
  \\      /  F ield         | OpenFOAM: The Open Source CFD Toolbox
   \\    /   O peration     | Website:  https://openfoam.org
    \\  /    A nd           | Version:  9
     \\/     M anipulation  |
\*---------------------------------------------------------------------------*/
FoamFile
{
    format      ascii;
    class       volVectorField;
    location    "2000";
    object      U;
}
// * * * * * * * * * * * * * * * * * * * * * * * * * * * * * * * * * * * * * //

dimensions      [0 1 -1 0 0 0 0];

internalField   nonuniform List<vector> 
4000
(
(0.0064412 -0.0171476 0.0064412)
(0.0117229 -0.0069714 0.00575937)
(0.0106416 0.00459304 0.00444594)
(0.000631983 0.00743853 0.00213782)
(-0.00579255 0.000274023 0.000102113)
(-0.00459277 -0.00177191 -0.000292931)
(-0.0043637 -0.00189238 -0.000143248)
(-0.00344118 -0.00108066 -0.000385031)
(-0.00208756 -0.00117472 -0.000410906)
(-0.000668096 -0.00127351 -0.000496429)
(0.00112922 -0.00128579 -0.000486494)
(0.00248656 -0.00115278 -0.000382696)
(0.00378168 -0.00100147 -0.000360382)
(0.00455042 -0.00180278 -0.000104435)
(0.00496151 -0.00182657 -0.000190807)
(0.00443158 0.000599193 -1.13026e-05)
(0.00183878 0.00609205 0.00160504)
(-0.00851664 0.00696852 0.00397037)
(-0.010899 -0.00439163 0.00546739)
(-0.00606947 -0.0154042 0.0061077)
(0.00359428 -0.0280635 0.00359428)
(0.00893271 -0.0157912 0.00390361)
(0.0142479 -0.00220405 0.00395224)
(0.0155885 0.00381747 0.00387181)
(0.014341 0.00342291 0.00349079)
(0.00853511 0.00259485 0.00301256)
(0.00128783 0.000592395 0.00215249)
(-0.00233579 -0.00103084 -0.000717809)
(-0.00142684 -0.000845424 -0.00157749)
(-0.000568275 -0.000720384 -0.0020117)
(0.00107903 -0.000676858 -0.00197345)
(0.00199808 -0.00072974 -0.00150467)
(0.00274894 -0.000948657 -0.000757661)
(-8.70478e-05 0.000690962 0.00183005)
(-0.00787612 0.00306857 0.00307847)
(-0.0141222 0.00321292 0.00367751)
(-0.0164855 0.0021732 0.00420857)
(-0.0148725 -0.00195672 0.00432706)
(-0.00935229 -0.0147047 0.00409039)
(-0.003638 -0.027037 0.00362739)
(0.00197071 -0.0384715 0.00197071)
(0.00524891 -0.0264865 0.00290613)
(0.00807796 -0.0135293 0.00339718)
(0.0110777 -0.00519612 0.00383254)
(0.011705 -3.62574e-05 0.00377269)
(0.00884533 0.0023159 0.00324718)
(0.00467319 0.00194983 0.00253986)
(0.00150636 0.000887115 0.00154005)
(-0.00138131 0.000273227 -0.000987043)
(-0.000164595 -3.56292e-05 -0.00231232)
(0.000820703 -0.000106559 -0.00219904)
(0.00209913 0.000139338 -0.000958349)
(-0.00097324 0.00082381 0.00159501)
(-0.00431448 0.00217799 0.0025483)
(-0.00843805 0.00279111 0.00322111)
(-0.0115174 0.000220239 0.00373979)
(-0.0112776 -0.00573966 0.00390358)
(-0.00871168 -0.0137743 0.00357807)
(-0.00564408 -0.0259713 0.00303321)
(-0.00206549 -0.0378335 0.0020313)
(0.00099214 -0.0435738 0.00099214)
(0.00228931 -0.0320494 0.00233172)
(0.00144767 -0.0197661 0.00291192)
(0.00215426 -0.0105287 0.00369816)
(0.00156059 -0.00377586 0.00433452)
(0.00187108 0.000175185 0.00420532)
(0.00102076 0.000954422 0.00367019)
(-5.09605e-05 0.00147668 0.00293433)
(-0.00106978 0.00223141 0.00172714)
(-0.000154639 0.00234699 0.000943906)
(0.00128589 0.00231038 0.00104045)
(0.00167044 0.00216356 0.00181689)
(0.00040254 0.00162452 0.00295472)
(-0.00110093 0.00145919 0.00373856)
(-0.00208138 0.000890145 0.00420822)
(-0.00147581 -0.00340769 0.00429966)
(-0.00225618 -0.0107152 0.00367956)
(-0.00178363 -0.0198726 0.00295377)
(-0.00252987 -0.0319043 0.00236899)
(-0.00106544 -0.0432459 0.00101015)
(0.000262265 -0.04555 0.000262266)
(0.000103743 -0.0347537 0.00182358)
(-0.00299407 -0.0239643 0.00223725)
(-0.00370183 -0.016151 0.00276662)
(-0.00440934 -0.0108584 0.00318085)
(-0.00415127 -0.00758626 0.00339274)
(-0.00356502 -0.00551673 0.00337513)
(-0.00287091 -0.00414718 0.00343139)
(-0.0019345 -0.00334545 0.00352864)
(-0.000748586 -0.00281119 0.00350682)
(0.00102912 -0.00259681 0.00358216)
(0.0019269 -0.00299826 0.00359215)
(0.00272196 -0.00371948 0.00351104)
(0.00336496 -0.0050703 0.00348371)
(0.00402039 -0.00720739 0.00349793)
(0.00437182 -0.0106086 0.00321469)
(0.00362748 -0.0160943 0.00276272)
(0.00283062 -0.0239778 0.00224088)
(-0.000260853 -0.0347541 0.00181784)
(-0.000317287 -0.0454027 0.000245182)
(-0.000434588 -0.0451282 -0.000434587)
(-0.00153601 -0.03581 0.00117092)
(-0.00577678 -0.0270531 0.00114802)
(-0.0070922 -0.0209517 0.00113658)
(-0.00776566 -0.0168428 0.00100521)
(-0.00730803 -0.0141519 0.000902048)
(-0.00619663 -0.0123624 0.000885122)
(-0.00467224 -0.0110899 0.000963347)
(-0.00284419 -0.0102368 0.00113114)
(-0.00123862 -0.00972345 0.00130631)
(0.00102785 -0.00952293 0.00137887)
(0.00257053 -0.00993347 0.00119728)
(0.00439836 -0.0107401 0.00103762)
(0.00594201 -0.0120178 0.000956493)
(0.00710283 -0.013855 0.00095296)
(0.00761631 -0.016643 0.00102618)
(0.00696595 -0.0208714 0.00113928)
(0.00565462 -0.0270388 0.00114528)
(0.00142151 -0.0357998 0.00115232)
(0.000384381 -0.0450673 -0.000468106)
(-0.0013062 -0.0426076 -0.0013062)
(-0.00299397 -0.0351456 0.000177391)
(-0.00803382 -0.0285574 -0.000369441)
(-0.00979238 -0.0243341 -0.000898326)
(-0.0104111 -0.0216097 -0.0014745)
(-0.00967425 -0.0198739 -0.00193988)
(-0.00806993 -0.018703 -0.00228595)
(-0.00592111 -0.0178272 -0.00245882)
(-0.00342103 -0.0171566 -0.00240134)
(-0.00145545 -0.0166281 -0.00216604)
(0.00111413 -0.0164543 -0.0021187)
(0.00306546 -0.0168928 -0.00237704)
(0.00559609 -0.0175517 -0.00244256)
(0.00776931 -0.0184521 -0.00227451)
(0.00941572 -0.0196658 -0.00193184)
(0.0102007 -0.0214582 -0.00147565)
(0.00962387 -0.024252 -0.000902577)
(0.00790261 -0.0285283 -0.000375257)
(0.00289103 -0.0351375 0.000157514)
(0.00126352 -0.0425741 -0.00134695)
(-0.00271711 -0.0370114 -0.00271711)
(-0.00503589 -0.031591 -0.00153897)
(-0.0106377 -0.0273589 -0.00247079)
(-0.0127336 -0.0250246 -0.00340409)
(-0.0132337 -0.0236336 -0.00427284)
(-0.0121821 -0.0228289 -0.00499039)
(-0.0100715 -0.0223153 -0.00556066)
(-0.00724809 -0.0219115 -0.00594552)
(-0.00399718 -0.021553 -0.00607077)
(-0.00164355 -0.0211834 -0.00587646)
(0.00125491 -0.0210682 -0.00585354)
(0.00357255 -0.0213775 -0.00608871)
(0.00686389 -0.0217243 -0.00597672)
(0.00972755 -0.0221463 -0.00558555)
(0.0118863 -0.0226858 -0.00500756)
(0.0129859 -0.0235209 -0.00428801)
(0.0125374 -0.0249527 -0.0034162)
(0.0104956 -0.0273228 -0.00248132)
(0.00493369 -0.0315741 -0.00155927)
(0.00267697 -0.0369948 -0.00275889)
(-0.00517138 -0.0275151 -0.00517138)
(-0.00856739 -0.0237904 -0.0047643)
(-0.0143843 -0.0216663 -0.00590933)
(-0.0165218 -0.0209052 -0.00714386)
(-0.0168213 -0.0207543 -0.00825976)
(-0.0154352 -0.0209506 -0.00916286)
(-0.0127972 -0.0211997 -0.00987211)
(-0.00925364 -0.0213421 -0.0103277)
(-0.00512739 -0.0212687 -0.0103993)
(-0.00214496 -0.0209246 -0.0098567)
(0.00166313 -0.0208351 -0.00980268)
(0.00462475 -0.021138 -0.0104027)
(0.00881518 -0.0212085 -0.0103401)
(0.012411 -0.0210783 -0.00988538)
(0.0151082 -0.0208493 -0.00917645)
(0.0165547 -0.0206743 -0.00827627)
(0.0163152 -0.0208451 -0.00716389)
(0.0142366 -0.0216287 -0.00593164)
(0.00847214 -0.0237746 -0.00479283)
(0.00513139 -0.0275067 -0.00521204)
(-0.0091604 -0.0169519 -0.0091604)
(-0.014904 -0.0134838 -0.0104796)
(-0.020687 -0.0117996 -0.0126787)
(-0.0226416 -0.0111359 -0.0147576)
(-0.0225752 -0.0107906 -0.0167263)
(-0.0207344 -0.0105343 -0.0185013)
(-0.0174668 -0.0101894 -0.0199676)
(-0.0130191 -0.00969795 -0.0210233)
(-0.00766317 -0.00903683 -0.0214386)
(-0.00340704 -0.00833334 -0.0205871)
(0.00279045 -0.00825178 -0.0205058)
(0.00708815 -0.00895011 -0.021434)
(0.0125244 -0.00962484 -0.0210209)
(0.0170335 -0.010123 -0.0199657)
(0.0203715 -0.0104709 -0.0185092)
(0.0222883 -0.010732 -0.0167444)
(0.0224289 -0.0110843 -0.0147805)
(0.0205436 -0.0117588 -0.0127062)
(0.0148198 -0.0134572 -0.0105123)
(0.00912242 -0.0169346 -0.00920049)
(0.00575937 -0.0069714 0.0117229)
(0.00952938 0.000998411 0.00952938)
(0.00799431 0.00782321 0.00567119)
(0.000742994 0.0069296 0.00225049)
(-0.00260699 -0.00110114 0.000607951)
(-0.00196 -0.00288329 -0.000383154)
(-0.00190803 -0.00223406 0.000140404)
(-0.00134549 -0.00120771 0.000108558)
(-0.000955566 -0.000802605 -0.000270201)
(-0.000185196 -0.000745615 -0.000589634)
(0.000677201 -0.000754315 -0.000584295)
(0.00144881 -0.00073355 -0.000297342)
(0.00189997 -0.0010988 4.79639e-05)
(0.00225692 -0.0021652 0.000253881)
(0.0024707 -0.00275567 -0.000254914)
(0.00162432 -0.00110238 2.89322e-05)
(0.000775782 0.00461503 0.00207622)
(-0.00586783 0.00960042 0.00456598)
(-0.00829484 0.0045616 0.00840786)
(-0.00538809 -0.00410124 0.0109448)
(0.00390361 -0.0157912 0.00893271)
(0.0094104 -0.00742423 0.0094104)
(0.0143883 0.00205627 0.00891743)
(0.015999 0.00445001 0.0079208)
(0.0150871 0.00305962 0.00653288)
(0.0098792 0.00229072 0.00507279)
(0.00413624 0.000805291 0.00361588)
(0.00153876 -0.000970848 0.00134969)
(0.00035229 -0.00104291 -0.0012265)
(0.000202313 -0.000903649 -0.00248829)
(0.000356009 -0.000872658 -0.00244953)
(0.000272303 -0.000973377 -0.001269)
(-0.000867826 -0.000977639 0.00113076)
(-0.00342636 0.00111939 0.00353353)
(-0.00925305 0.002918 0.00517347)
(-0.0148292 0.00304598 0.00676163)
(-0.0168646 0.00290698 0.0084863)
(-0.014822 0.00161726 0.00956064)
(-0.0100349 -0.00642362 0.010136)
(-0.00407545 -0.0143489 0.00946644)
(0.00290613 -0.0264865 0.0052489)
(0.00748227 -0.0191618 0.00748227)
(0.0113474 -0.00994958 0.00840138)
(0.0142731 -0.00325038 0.00810454)
(0.0142114 0.00101034 0.00691724)
(0.0108832 0.00302662 0.00550894)
(0.00700218 0.00235343 0.0041189)
(0.00422968 0.000569449 0.00251817)
(0.00180485 -0.000569185 -7.02006e-05)
(0.000494323 -0.000845042 -0.00274614)
(1.35292e-05 -0.000887352 -0.00263351)
(-0.00129179 -0.000632346 0.000224428)
(-0.003829 0.000618447 0.00271894)
(-0.00668987 0.00256987 0.00420147)
(-0.0104387 0.00351779 0.00549427)
(-0.0138439 0.00134226 0.00686823)
(-0.0142728 -0.0036644 0.00820727)
(-0.0117925 -0.0101612 0.00876768)
(-0.00786309 -0.0184841 0.00793043)
(-0.0030353 -0.0257012 0.00569738)
(0.00233172 -0.0320494 0.00228931)
(0.00594886 -0.0253652 0.00594886)
(0.00679513 -0.0155772 0.00758011)
(0.00769623 -0.006359 0.0080148)
(0.00753835 0.000763767 0.00759735)
(0.00645922 0.00399031 0.0064957)
(0.00452035 0.00359968 0.00521886)
(0.00263594 0.00249782 0.00378196)
(0.000808988 0.00187451 0.00172157)
(0.000354068 0.00125813 -0.000939985)
(0.00054752 0.0012775 -0.000744631)
(-0.000121176 0.00178602 0.00193618)
(-0.00226562 0.00256559 0.00395157)
(-0.00436689 0.00386986 0.00534083)
(-0.00635905 0.00441587 0.00648068)
(-0.00744301 0.00104455 0.00750514)
(-0.00769298 -0.00651146 0.007988)
(-0.0069997 -0.0156363 0.00766882)
(-0.00610471 -0.0250826 0.00610092)
(-0.00239101 -0.0316993 0.00249667)
(0.00182358 -0.0347537 0.000103743)
(0.00505496 -0.02821 0.00505496)
(0.00368553 -0.0183266 0.00726632)
(0.0031092 -0.008443 0.00811058)
(0.00172165 -0.00110071 0.00835997)
(0.0016473 0.00261134 0.00774031)
(0.000791114 0.00309277 0.00677555)
(-0.000112228 0.00295823 0.0058427)
(-0.000706508 0.0028533 0.00493196)
(-0.000273013 0.00287591 0.0038373)
(0.000913006 0.0029891 0.00396806)
(0.00104414 0.00299784 0.00498865)
(0.000261646 0.0031746 0.00586278)
(-0.000780597 0.00339134 0.00683419)
(-0.00163911 0.00293439 0.0077695)
(-0.00165659 -0.00087572 0.00833372)
(-0.00311357 -0.00845878 0.00805608)
(-0.00379335 -0.018332 0.00724316)
(-0.00512681 -0.0280727 0.0050551)
(-0.00185313 -0.0346024 0.000157581)
(0.00117092 -0.03581 -0.00153601)
(0.00441316 -0.0287564 0.00441316)
(0.00145869 -0.0190687 0.00688541)
(0.000303802 -0.00938742 0.00781714)
(-0.00124957 -0.00260856 0.00807882)
(-0.00133445 0.00113786 0.00798401)
(-0.00154979 0.00245389 0.00749946)
(-0.00174102 0.00304044 0.00706921)
(-0.00153496 0.00340612 0.00671737)
(-0.000711608 0.00362074 0.00623588)
(0.000919656 0.00374859 0.00630122)
(0.00157245 0.00360832 0.00673474)
(0.00170013 0.00331345 0.00707283)
(0.00143947 0.00276609 0.00752212)
(0.00122142 0.00149305 0.00801308)
(0.00121062 -0.00235488 0.00806762)
(-0.000362663 -0.00932881 0.00776332)
(-0.00155044 -0.0190365 0.00682341)
(-0.00446117 -0.028662 0.00434713)
(-0.00118912 -0.0357131 -0.00156587)
(0.000177391 -0.0351456 -0.00299396)
(0.00341392 -0.0275109 0.00341392)
(-0.000870964 -0.018446 0.00585741)
(-0.00203028 -0.0103063 0.00667548)
(-0.00327984 -0.00484537 0.00677714)
(-0.00344191 -0.00168009 0.00675539)
(-0.00296842 8.01893e-05 0.00687722)
(-0.0023427 0.0009282 0.00706594)
(-0.00156363 0.00128016 0.00718561)
(-0.000715656 0.00143278 0.00702495)
(0.000667751 0.00157011 0.0070479)
(0.00141988 0.0015278 0.00718731)
(0.00212755 0.00122196 0.00713794)
(0.0027105 0.000399252 0.00694569)
(0.00323272 -0.00140932 0.00678494)
(0.00313144 -0.00463939 0.00676099)
(0.00192516 -0.0101806 0.0066219)
(0.000772458 -0.0183955 0.00578108)
(-0.00346022 -0.0274377 0.00332601)
(-0.000190818 -0.0350846 -0.00305668)
(-0.00153897 -0.031591 -0.00503589)
(0.00103191 -0.0239465 0.00103191)
(-0.00411668 -0.0168911 0.00306507)
(-0.00528843 -0.0110714 0.00344921)
(-0.00622912 -0.00685883 0.00296176)
(-0.00616633 -0.00431855 0.00245667)
(-0.00536893 -0.00270896 0.00214757)
(-0.00402405 -0.00148406 0.00222349)
(-0.00234528 -0.00026399 0.00285042)
(-0.0009657 0.00114584 0.00386059)
(0.000642657 0.00142376 0.00403619)
(0.00193455 0.000125969 0.00306364)
(0.00365511 -0.0011468 0.00235976)
(0.00507088 -0.00240972 0.00223889)
(0.00592078 -0.00407054 0.00249759)
(0.00603808 -0.00666826 0.00295083)
(0.0051517 -0.0109384 0.00339619)
(0.00402117 -0.0168089 0.00298791)
(-0.00108281 -0.0238907 0.000932457)
(0.00152624 -0.031552 -0.00510943)
(-0.0047643 -0.0237904 -0.00856739)
(-0.00483093 -0.0181383 -0.00483093)
(-0.0098139 -0.0139914 -0.00383753)
(-0.01118 -0.0117369 -0.00420203)
(-0.0112841 -0.0104747 -0.00500205)
(-0.0101976 -0.0100428 -0.00567184)
(-0.00841716 -0.0100142 -0.00613502)
(-0.00614194 -0.0101016 -0.00619073)
(-0.00357788 -0.0100985 -0.00568356)
(-0.00164408 -0.00958432 -0.00442499)
(0.00111356 -0.00949591 -0.00428843)
(0.00306987 -0.00993739 -0.00561536)
(0.00571289 -0.0099142 -0.00615687)
(0.00806077 -0.00983882 -0.00613081)
(0.00990954 -0.00989631 -0.00568994)
(0.0110559 -0.0103531 -0.00504128)
(0.0110138 -0.0116408 -0.00426214)
(0.00970993 -0.0139253 -0.00391168)
(0.0047788 -0.0180962 -0.00491074)
(0.00474799 -0.0237657 -0.00864241)
(-0.0104796 -0.0134838 -0.014904)
(-0.0157109 -0.00828506 -0.0157109)
(-0.0214944 -0.00543945 -0.0182019)
(-0.0232508 -0.00390158 -0.0209185)
(-0.0231524 -0.00289363 -0.0236276)
(-0.0214706 -0.00208972 -0.0261726)
(-0.0185433 -0.00119227 -0.0282885)
(-0.0144906 -0.000162876 -0.0298059)
(-0.00933711 0.00100375 -0.0304025)
(-0.00461794 0.00230888 -0.0293479)
(0.00386229 0.0024058 -0.0292211)
(0.00868305 0.00107063 -0.0303526)
(0.0139266 -0.000121337 -0.0297613)
(0.0180651 -0.00115236 -0.0282574)
(0.0210875 -0.00203996 -0.0261704)
(0.0228609 -0.0028379 -0.0236488)
(0.0230416 -0.0038425 -0.0209504)
(0.021362 -0.00538433 -0.0182482)
(0.0156422 -0.00824174 -0.015771)
(0.0104548 -0.0134541 -0.0149744)
(0.00444594 0.00459305 0.0106416)
(0.00567119 0.00782321 0.00799431)
(0.00348926 0.00875432 0.00348926)
(-0.000431892 0.00307657 0.0010501)
(-0.000816015 -0.00247316 0.000630075)
(1.11742e-05 -0.00334327 0.000457453)
(-0.000118728 -0.00232813 0.00074306)
(0.000297642 -0.00129824 0.000773155)
(0.00037179 -0.000733021 0.00040594)
(0.000299632 -0.000672987 -0.000234701)
(0.000233781 -0.000674321 -0.000292868)
(0.000209926 -0.000666435 0.00029627)
(0.000281016 -0.00117997 0.000728361)
(0.000532748 -0.00224189 0.000777364)
(0.000520466 -0.00331871 0.000344463)
(0.000122832 -0.00254598 0.000300345)
(0.000347129 0.00118908 0.00137672)
(-0.00197385 0.0078482 0.00220274)
(-0.00440783 0.0097552 0.00591057)
(-0.00382994 0.0072516 0.00831634)
(0.00395224 -0.00220405 0.0142479)
(0.00891743 0.00205627 0.0143883)
(0.0131687 0.00489193 0.0131687)
(0.0150566 0.00367946 0.0114375)
(0.0137542 0.00236858 0.00894023)
(0.00910983 0.0018247 0.00654761)
(0.00456161 0.000600665 0.00455948)
(0.00246293 -0.00103012 0.00217014)
(0.00163444 -0.00129128 -0.000199593)
(0.000808775 -0.00112516 -0.00190778)
(-0.000189283 -0.00110536 -0.00191466)
(-0.00105032 -0.00129342 -0.000244598)
(-0.00192753 -0.00101798 0.00206768)
(-0.00398056 0.000951422 0.00452543)
(-0.00854512 0.0025627 0.00665817)
(-0.0133764 0.00268666 0.00911407)
(-0.0155328 0.00273471 0.0119206)
(-0.013674 0.00330217 0.0138949)
(-0.00938408 0.00194043 0.0150038)
(-0.00425538 -0.00131363 0.0151174)
(0.00339718 -0.0135293 0.00807796)
(0.00840138 -0.00994958 0.0113474)
(0.0125458 -0.00539289 0.0125458)
(0.0150315 -0.00121012 0.0116824)
(0.0143677 0.00204366 0.00964473)
(0.0111806 0.00351339 0.00755519)
(0.00770754 0.00248771 0.00567791)
(0.00509126 0.000394567 0.00358819)
(0.00278469 -0.000909823 0.000665324)
(0.00107939 -0.000984485 -0.00216583)
(-0.000652938 -0.000941432 -0.00200289)
(-0.00230097 -0.000871952 0.000951562)
(-0.00474229 0.000470373 0.00383069)
(-0.0074218 0.00268665 0.0058336)
(-0.0107383 0.003996 0.00759864)
(-0.0138809 0.00249573 0.00958493)
(-0.0147592 -0.00137109 0.0116986)
(-0.0126488 -0.00594803 0.0128664)
(-0.00867344 -0.010121 0.0120039)
(-0.00357078 -0.0136064 0.0089583)
(0.00291192 -0.0197661 0.00144767)
(0.00758011 -0.0155772 0.00679513)
(0.00957429 -0.00977248 0.00957429)
(0.0107977 -0.00312692 0.0101547)
(0.0107144 0.00260618 0.00943982)
(0.00910775 0.00508247 0.00806334)
(0.00676588 0.00414837 0.00645896)
(0.0044446 0.00213514 0.00448751)
(0.00224291 0.000635603 0.00153056)
(0.00088332 -4.8332e-05 -0.00193964)
(-0.000264738 -2.69624e-05 -0.00171512)
(-0.00172909 0.000719574 0.0019292)
(-0.00409201 0.00228566 0.00476982)
(-0.00653287 0.00438152 0.0066672)
(-0.00888935 0.0054464 0.00814733)
(-0.0104848 0.00295672 0.00942292)
(-0.0106197 -0.00307889 0.0101466)
(-0.00957018 -0.0098736 0.00969305)
(-0.00763825 -0.0155319 0.00707631)
(-0.00298141 -0.0196943 0.00185544)
(0.00223725 -0.0239643 -0.00299407)
(0.00726632 -0.0183266 0.00368553)
(0.00756219 -0.0119278 0.00756219)
(0.00758449 -0.00444055 0.00912633)
(0.00677539 0.00217211 0.0094262)
(0.00593282 0.00542804 0.00856311)
(0.00433816 0.00503689 0.00719331)
(0.00249728 0.00351289 0.00547078)
(0.000734436 0.00231694 0.00315021)
(0.000209538 0.00154732 0.000177612)
(0.00057152 0.00173259 0.000460834)
(-0.000258911 0.00247468 0.00340286)
(-0.00223035 0.00371746 0.0056407)
(-0.00418176 0.00529697 0.00735117)
(-0.00581333 0.00571717 0.00865124)
(-0.00665089 0.0024064 0.00943377)
(-0.00750037 -0.00438178 0.00908388)
(-0.00756299 -0.0119038 0.00754383)
(-0.00727537 -0.0182408 0.00372499)
(-0.00227685 -0.0238807 -0.00289782)
(0.00114802 -0.0270531 -0.00577678)
(0.00688541 -0.0190687 0.0014587)
(0.00591306 -0.0120223 0.00591306)
(0.00531887 -0.00417203 0.00795207)
(0.00397381 0.0024191 0.00862718)
(0.00323448 0.00577001 0.00820127)
(0.00216446 0.00591844 0.00707618)
(0.000904866 0.00507797 0.00571351)
(-0.000167308 0.00444102 0.00411012)
(-0.000169785 0.00396381 0.00223332)
(0.000637565 0.0041684 0.00250208)
(0.000414948 0.00464175 0.0042579)
(-0.00079326 0.00530623 0.00581815)
(-0.00213097 0.00618664 0.00717811)
(-0.00321699 0.00605114 0.00826917)
(-0.00394218 0.0026319 0.00861532)
(-0.00531113 -0.00407276 0.00787459)
(-0.00593918 -0.0119324 0.00582498)
(-0.00688959 -0.0189536 0.00139977)
(-0.00117537 -0.026981 -0.00579572)
(-0.000369441 -0.0285574 -0.00803381)
(0.00585741 -0.018446 -0.000870962)
(0.00385462 -0.0109954 0.00385462)
(0.00334317 -0.00362224 0.00621001)
(0.00181601 0.00172927 0.00685933)
(0.00110089 0.00473384 0.00648569)
(0.000602172 0.00498916 0.00571502)
(6.16482e-05 0.00429579 0.00493761)
(-0.000350219 0.00370094 0.00411752)
(-0.00024764 0.00335837 0.00300047)
(0.000382557 0.00358091 0.00315598)
(0.000355492 0.00398351 0.00419778)
(-0.00012187 0.00459819 0.00499247)
(-0.000690894 0.00529677 0.00577255)
(-0.00117501 0.00500804 0.00650571)
(-0.00186482 0.00193351 0.00680414)
(-0.0033761 -0.00349623 0.00609521)
(-0.00388942 -0.0108803 0.00373639)
(-0.00585652 -0.0183236 -0.000954184)
(0.000354241 -0.0284997 -0.00808492)
(-0.00247079 -0.0273589 -0.0106377)
(0.00306507 -0.0168911 -0.00411668)
(0.000147947 -0.00902083 0.000147948)
(8.34182e-05 -0.00115868 0.00226494)
(-0.000616098 0.00412265 0.00293528)
(-0.000583854 0.00650091 0.00257373)
(-0.000561875 0.00713365 0.00195824)
(-0.000488219 0.00728884 0.00155596)
(-0.000278749 0.00736257 0.0014357)
(-0.000123913 0.00728302 0.0013646)
(2.32838e-05 0.00741811 0.00152381)
(0.000127469 0.00752776 0.00158262)
(0.000332563 0.00746501 0.00167166)
(0.000414212 0.00730623 0.00202953)
(0.000469434 0.00666358 0.00258425)
(0.000524904 0.00426646 0.00287327)
(-0.000154854 -0.00102337 0.00215132)
(-0.000178253 -0.00888376 2.90436e-05)
(-0.00305547 -0.0168005 -0.00419556)
(0.00246296 -0.0273131 -0.0107027)
(-0.00590933 -0.0216663 -0.0143843)
(-0.00383753 -0.0139914 -0.0098139)
(-0.00699572 -0.00840465 -0.00699572)
(-0.00666003 -0.00505579 -0.00588681)
(-0.00571237 -0.00285357 -0.00541388)
(-0.00378494 -0.00208098 -0.00473119)
(-0.00233594 -0.00250307 -0.00484835)
(-0.00128493 -0.00310938 -0.00501452)
(-0.000559984 -0.00325063 -0.0047842)
(-0.000373027 -0.00196124 -0.00418839)
(-7.72672e-05 -0.00175203 -0.00405137)
(0.000156483 -0.00292986 -0.00466439)
(0.000971247 -0.00279263 -0.00494793)
(0.0020752 -0.00221495 -0.00479315)
(0.00355806 -0.0018389 -0.00465798)
(0.00553803 -0.0026629 -0.0053849)
(0.00656624 -0.00491161 -0.00594957)
(0.00694637 -0.00829975 -0.00707795)
(0.0038254 -0.0139292 -0.00989392)
(0.00590251 -0.0216298 -0.014459)
(-0.0126787 -0.0117996 -0.020687)
(-0.0182019 -0.00543945 -0.0214944)
(-0.0239662 -0.00212423 -0.0239662)
(-0.025302 -0.00028083 -0.0268223)
(-0.0247963 0.000995905 -0.02971)
(-0.0228988 0.002076 -0.0326381)
(-0.0199585 0.00331876 -0.0353455)
(-0.0159458 0.00472746 -0.0373998)
(-0.0106438 0.00629517 -0.0383039)
(-0.00539013 0.00800709 -0.0370744)
(0.00454535 0.00810342 -0.0368822)
(0.0099263 0.00632994 -0.0381749)
(0.0153274 0.00472317 -0.0372675)
(0.0194466 0.00332222 -0.0352463)
(0.0225016 0.00210814 -0.032594)
(0.0244958 0.00104328 -0.0296943)
(0.0250829 -0.000222979 -0.0268269)
(0.0238327 -0.00206288 -0.0240027)
(0.0181371 -0.00538707 -0.0215547)
(0.0126567 -0.011762 -0.0207636)
(0.00213782 0.00743853 0.000631981)
(0.00225049 0.0069296 0.000742992)
(0.00105011 0.00307657 -0.000431894)
(0.000105403 -0.00139103 0.000105402)
(0.000684414 -0.00320631 0.00084441)
(0.00108766 -0.00317565 0.00116888)
(0.0012267 -0.0023194 0.00162428)
(0.00148898 -0.00130524 0.00180564)
(0.00131451 -0.000763904 0.00168409)
(0.000781571 -0.000725821 0.0012197)
(-0.00018037 -0.000725604 0.00115275)
(-0.000737713 -0.000705081 0.00157389)
(-0.000964307 -0.00117485 0.00171877)
(-0.000781521 -0.00223826 0.00153593)
(-0.000791977 -0.00319782 0.00108243)
(-0.000911953 -0.00328974 0.00068928)
(-0.000729567 -0.00175414 0.000723762)
(-0.00133359 0.00122869 -0.000264126)
(-0.00209164 0.00437449 -0.00111712)
(-0.00147399 0.00536801 -0.00269994)
(0.00387181 0.00381747 0.0155885)
(0.0079208 0.00445001 0.015999)
(0.0114375 0.00367946 0.0150566)
(0.0126703 0.00240727 0.0126703)
(0.0108541 0.00184024 0.00929129)
(0.00723232 0.00133304 0.00659932)
(0.00402617 -5.97259e-05 0.00469409)
(0.00276795 -0.00132892 0.00287525)
(0.00219315 -0.00142879 0.00114229)
(0.00119982 -0.00126876 -0.000421274)
(-0.000624306 -0.00124733 -0.000431686)
(-0.00169689 -0.00141536 0.0010928)
(-0.00232011 -0.00129666 0.00280242)
(-0.00351482 0.000180194 0.00467545)
(-0.00670537 0.00200699 0.0066411)
(-0.0104199 0.00250497 0.00934938)
(-0.0125328 0.00244311 0.0128417)
(-0.0116155 0.00273971 0.0158162)
(-0.00822644 0.00299716 0.0171539)
(-0.0040698 0.00225798 0.016876)
(0.00383254 -0.00519612 0.0110777)
(0.00810454 -0.00325038 0.0142731)
(0.0116824 -0.00121012 0.0150315)
(0.0134424 0.0012669 0.0134424)
(0.0126207 0.00332028 0.0107956)
(0.0100606 0.00372496 0.0083945)
(0.00735079 0.00207685 0.00643373)
(0.00505402 -0.00017021 0.00435269)
(0.00304221 -0.00123703 0.00179238)
(0.00134825 -0.00118072 -0.000761745)
(-0.00105626 -0.00109988 -0.000569077)
(-0.0026443 -0.00113326 0.00203323)
(-0.00473762 -5.16007e-05 0.00457939)
(-0.00711624 0.00221846 0.00664177)
(-0.00970557 0.00408983 0.00850694)
(-0.0121539 0.00383446 0.0107651)
(-0.0130139 0.00151055 0.0133558)
(-0.0114524 -0.00153313 0.0150842)
(-0.00808155 -0.00389458 0.0145984)
(-0.0038731 -0.00595602 0.0116235)
(0.00369816 -0.0105287 0.00215426)
(0.0080148 -0.006359 0.00769623)
(0.0101547 -0.00312692 0.0107977)
(0.0114434 0.0010025 0.0114434)
(0.0113575 0.00448202 0.0104804)
(0.0098741 0.00550681 0.00894648)
(0.00769343 0.00394333 0.00725343)
(0.00536333 0.00159603 0.00518755)
(0.00310799 -2.42412e-05 0.00223907)
(0.00127742 -0.000337704 -0.00104668)
(-0.000949405 -0.000285197 -0.000768093)
(-0.00276403 0.000152821 0.00263095)
(-0.00506086 0.00182494 0.00548571)
(-0.00745097 0.00416493 0.007498)
(-0.00963335 0.00580765 0.00911276)
(-0.0110787 0.00487825 0.0105538)
(-0.0111563 0.00127498 0.0114744)
(-0.00995699 -0.00308746 0.0108608)
(-0.00792616 -0.0064842 0.00787091)
(-0.00371323 -0.0106944 0.00238902)
(0.00276662 -0.016151 -0.00370182)
(0.00811058 -0.008443 0.0031092)
(0.00912633 -0.00444055 0.00758449)
(0.00959379 9.22712e-05 0.00959379)
(0.00934213 0.0044832 0.00994928)
(0.00839928 0.00634282 0.00913982)
(0.00668057 0.00527208 0.00775612)
(0.00457416 0.00306955 0.00583329)
(0.00242461 0.00120288 0.00302037)
(0.000977625 0.000210522 -0.00046077)
(-0.000445577 0.000312268 -0.000163692)
(-0.00203177 0.00143322 0.00340143)
(-0.00430429 0.0033164 0.00607564)
(-0.00646925 0.00552185 0.00795794)
(-0.00822318 0.00659496 0.00928518)
(-0.00917054 0.00473857 0.0100187)
(-0.00944163 0.000254118 0.00959399)
(-0.00903793 -0.00436964 0.00754745)
(-0.00806636 -0.00842101 0.00307735)
(-0.00280642 -0.0160968 -0.00370605)
(0.00113658 -0.0209517 -0.0070922)
(0.00781714 -0.00938742 0.000303803)
(0.00795207 -0.00417203 0.00531887)
(0.00788561 0.000739023 0.00788561)
(0.00730751 0.00514623 0.00894774)
(0.00656173 0.00724296 0.00872533)
(0.00528397 0.00660878 0.00769957)
(0.00359501 0.00488742 0.00613437)
(0.00178793 0.0033778 0.00388795)
(0.000646349 0.0023313 0.00101092)
(-0.000196971 0.00253508 0.00128418)
(-0.00151574 0.00364662 0.00418241)
(-0.00343648 0.00514356 0.00631347)
(-0.00516883 0.00686909 0.00784332)
(-0.00646742 0.0074871 0.00882499)
(-0.00722298 0.00535721 0.00896715)
(-0.00783408 0.000898604 0.00782269)
(-0.00794488 -0.00402779 0.00521832)
(-0.00781408 -0.00926687 0.000214767)
(-0.00117125 -0.0208827 -0.00713914)
(-0.000898327 -0.0243342 -0.00979237)
(0.00667548 -0.0103063 -0.00203028)
(0.00621001 -0.00362224 0.00334317)
(0.0060028 0.00123705 0.0060028)
(0.00525557 0.00511217 0.00723764)
(0.00477611 0.00697636 0.00737086)
(0.00412158 0.00634734 0.00682428)
(0.00310729 0.00466319 0.00595327)
(0.00179705 0.00310467 0.00473244)
(0.000645175 0.00204084 0.00300016)
(-0.000486459 0.00228264 0.00318509)
(-0.00171924 0.00343623 0.0049167)
(-0.00308066 0.00497528 0.00607369)
(-0.0041093 0.00663863 0.00691798)
(-0.0047621 0.00722522 0.00741908)
(-0.00524126 0.00531158 0.00720589)
(-0.0059918 0.00140457 0.00589075)
(-0.00622156 -0.00347541 0.00321997)
(-0.00667671 -0.0101996 -0.00210371)
(0.000883942 -0.024274 -0.00984295)
(-0.00340409 -0.0250246 -0.0127336)
(0.00344921 -0.0110714 -0.00528843)
(0.00226494 -0.00115868 8.34195e-05)
(0.0029856 0.00456224 0.0029856)
(0.0026617 0.00726767 0.00429441)
(0.002842 0.00843101 0.00453759)
(0.00289807 0.00820232 0.00428095)
(0.00261925 0.00766209 0.00391376)
(0.00200572 0.00731286 0.00354709)
(0.000900911 0.0070148 0.00297697)
(-0.000983753 0.00718355 0.00310607)
(-0.00209671 0.00752868 0.00367841)
(-0.00271494 0.00786727 0.00399225)
(-0.00297517 0.00838948 0.00432719)
(-0.00288594 0.00857959 0.0045381)
(-0.00268105 0.0073786 0.00422767)
(-0.00298263 0.0046633 0.00287008)
(-0.00227325 -0.000992958 -1.97677e-05)
(-0.00344158 -0.0109681 -0.00535563)
(0.00340339 -0.0249751 -0.0127904)
(-0.00714386 -0.0209052 -0.0165218)
(-0.00420203 -0.0117369 -0.01118)
(-0.00588681 -0.00505579 -0.00666003)
(-0.00343325 -0.000822668 -0.00343325)
(-0.00281976 0.00123908 -0.00294703)
(-0.0011289 0.00124111 -0.00287228)
(0.000224983 8.93494e-05 -0.00323254)
(0.000874709 -0.00103897 -0.00362245)
(0.000939585 -0.00152968 -0.00362525)
(0.000282808 -0.000312328 -0.00317475)
(-0.00074601 -0.000159449 -0.00299697)
(-0.00135305 -0.00125764 -0.00342585)
(-0.00118098 -0.000774254 -0.00349251)
(-0.000440275 0.000330043 -0.00317188)
(0.00101673 0.00145231 -0.00287746)
(0.0027829 0.0014055 -0.00302763)
(0.00346143 -0.000660297 -0.00357452)
(0.00587507 -0.00493535 -0.00673943)
(0.00421514 -0.0116635 -0.0112522)
(0.00714565 -0.0208614 -0.0165907)
(-0.0147576 -0.0111359 -0.0226416)
(-0.0209185 -0.00390158 -0.0232508)
(-0.0268223 -0.00028083 -0.025302)
(-0.0276499 0.00171184 -0.0276499)
(-0.0266086 0.00309934 -0.0301866)
(-0.0246759 0.00433742 -0.0333442)
(-0.0219416 0.00582156 -0.0367721)
(-0.0180677 0.00760523 -0.0398245)
(-0.0125491 0.00964697 -0.0417046)
(-0.00650776 0.0119017 -0.0411852)
(0.00560806 0.0120239 -0.0410086)
(0.011811 0.00967576 -0.0415677)
(0.0174544 0.00759236 -0.0397037)
(0.0214348 0.00580279 -0.0366702)
(0.0242648 0.00433911 -0.0332612)
(0.0262857 0.0031236 -0.0301276)
(0.0273927 0.00175525 -0.0276084)
(0.02668 -0.000224053 -0.0253228)
(0.0208565 -0.00384824 -0.0233051)
(0.0147396 -0.0110944 -0.0227163)
(0.000102113 0.000274023 -0.00579255)
(0.000607951 -0.00110114 -0.00260699)
(0.000630076 -0.00247316 -0.000816016)
(0.00084441 -0.00320631 0.000684413)
(0.0013997 -0.00327397 0.0013997)
(0.00186854 -0.00284033 0.00197663)
(0.00224678 -0.00208426 0.00261334)
(0.00248662 -0.00118926 0.00308227)
(0.00207352 -0.000801576 0.00331664)
(0.00115659 -0.000818286 0.00319369)
(-0.000531589 -0.000809826 0.00314211)
(-0.00152456 -0.000737303 0.00321044)
(-0.00202851 -0.00106582 0.00297788)
(-0.00186594 -0.00201582 0.00250261)
(-0.00160856 -0.00283138 0.00183007)
(-0.00134164 -0.0033501 0.00127211)
(-0.000832158 -0.0032993 0.000977412)