/*--------------------------------*- C++ -*----------------------------------*\
  =========                 |
  \\      /  F ield         | OpenFOAM: The Open Source CFD Toolbox
   \\    /   O peration     | Website:  https://openfoam.org
    \\  /    A nd           | Version:  9
     \\/     M anipulation  |
\*---------------------------------------------------------------------------*/
FoamFile
{
    format      ascii;
    class       volScalarField;
    location    "460";
    object      nuTilda;
}
// * * * * * * * * * * * * * * * * * * * * * * * * * * * * * * * * * * * * * //

dimensions      [0 2 -1 0 0 0 0];

internalField   nonuniform List<scalar> 
10720
(
0.0567935
0.0584676
0.0600778
0.0610204
0.0613411
0.0605407
0.0583015
0.0541346
0.0472653
0.0373995
0.0254784
0.0145956
0.0111392
0.0129556
0.0126854
0.0125852
0.0122623
0.0112585
0.0102709
0.00921133
0.00812328
0.00716179
0.007181
0.00768498
0.00822013
0.00880819
0.00965231
0.010584
0.0115473
0.0124599
0.0134419
0.0142269
0.0145796
0.0150879
0.0143299
0.0193529
0.0219876
0.0514161
0.0721178
0.0549189
0.0528329
0.0505917
0.0478455
0.0447439
0.04119
0.0370394
0.0321922
0.0265773
0.0205936
0.0168144
0.0151166
0.0140211
0.0157111
0.0184363
0.0207305
0.0225685
0.024175
0.0257255
0.0273085
0.0289591
0.030686
0.0324923
0.0343629
0.0362306
0.0380171
0.0396988
0.0412787
0.0427686
0.0441782
0.0455304
0.0468476
0.0481739
0.0495518
0.0511454
0.0529704
0.0556861
0.0585038
0.0673394
0.064097
0.0629728
0.0614581
0.0600753
0.0590002
0.0595948
0.0623367
0.0656847
0.0684996
0.0694219
0.0673952
0.0627231
0.06089
0.0650123
0.0605553
0.0487867
0.0435103
0.0360572
0.0319437
0.0293266
0.0284436
0.0299197
0.0327413
0.0359412
0.0393303
0.0428639
0.046647
0.0507414
0.0549666
0.0591161
0.0632357
0.0673937
0.070671
0.0741682
0.0701588
0.0858554
0.0843081
0.113505
0.167859
0.0651307
0.0657394
0.0665069
0.0667139
0.0665992
0.0661121
0.0651065
0.0635436
0.0615206
0.059196
0.0564732
0.0533048
0.0501022
0.0469698
0.0440139
0.0413115
0.0388602
0.036625
0.0346097
0.0328055
0.0312133
0.0298145
0.0285937
0.0274923
0.0265019
0.0256741
0.025008
0.0244982
0.0241365
0.0239144
0.0238214
0.0238539
0.0240101
0.024307
0.0250664
0.0262968
0.0281936
0.0290635
0.0299454
0.0924508
0.0913046
0.0896086
0.0872357
0.0852354
0.0829225
0.0802605
0.077738
0.0740712
0.0743867
0.0771033
0.0802507
0.0843955
0.0928822
0.100411
0.10437
0.0993916
0.0811824
0.0697298
0.0619955
0.0574324
0.0583798
0.0634708
0.069943
0.0768865
0.0844533
0.0927927
0.101846
0.110883
0.119209
0.126537
0.133005
0.139233
0.144177
0.141565
0.172325
0.163997
0.234111
0.344795
0.0934641
0.0940571
0.0947231
0.0949268
0.0948107
0.0943325
0.0933796
0.0919061
0.0899391
0.087577
0.0848169
0.081764
0.0785125
0.0751464
0.0718449
0.0686599
0.0656021
0.062669
0.0598872
0.0572609
0.0548028
0.052496
0.0503174
0.0481708
0.0460032
0.0438592
0.0417598
0.0397253
0.0377704
0.0359074
0.0341408
0.0325364
0.03112
0.029906
0.0289153
0.0282736
0.027864
0.0297458
0.022618
0.108081
0.107171
0.105827
0.103999
0.101823
0.0989606
0.0965275
0.0939613
0.0900402
0.0855678
0.0822717
0.0833625
0.088944
0.1007
0.117976
0.135459
0.144791
0.140281
0.120304
0.104485
0.0927516
0.0893055
0.0941782
0.103134
0.113311
0.124702
0.137343
0.150967
0.164134
0.175319
0.184172
0.191615
0.199758
0.208703
0.217249
0.257337
0.253081
0.37499
0.5496
0.108867
0.109371
0.10987
0.110075
0.110035
0.109726
0.109063
0.108
0.106562
0.104792
0.102689
0.100321
0.0977074
0.0948877
0.0919809
0.0890435
0.0861107
0.0832038
0.0803572
0.0775877
0.0749199
0.0723502
0.0698613
0.067364
0.0647987
0.062213
0.0596339
0.0570879
0.0545969
0.0521788
0.0498524
0.0476428
0.045576
0.0436938
0.0420144
0.040739
0.0394332
0.0411204
0.0345994
0.117411
0.116774
0.115847
0.114598
0.113056
0.110998
0.108301
0.105645
0.102964
0.0992138
0.094271
0.0883094
0.0882034
0.0968469
0.116815
0.145604
0.171951
0.184561
0.179791
0.159072
0.137091
0.126335
0.126564
0.134981
0.14733
0.161876
0.178206
0.195658
0.212046
0.225324
0.235421
0.244209
0.255194
0.269963
0.290256
0.337064
0.354961
0.530356
0.767195
0.117958
0.118324
0.118673
0.118835
0.118828
0.118631
0.118189
0.11747
0.116477
0.115217
0.113688
0.111974
0.110057
0.107945
0.105697
0.10334
0.100908
0.09842
0.0959102
0.0933965
0.0909058
0.0884419
0.0859963
0.0834923
0.0808758
0.0781886
0.0754599
0.0727192
0.069993
0.0673058
0.0646844
0.0621612
0.0597694
0.0575641
0.0555749
0.0540354
0.0525413
0.0539812
0.0491601
0.123251
0.122878
0.122307
0.121483
0.120418
0.118975
0.117204
0.114941
0.112438
0.109633
0.105962
0.100128
0.093615
0.0933651
0.106755
0.13778
0.178992
0.212126
0.22518
0.217125
0.192255
0.171282
0.165975
0.169875
0.180795
0.196946
0.216241
0.236745
0.255916
0.271098
0.28263
0.293358
0.308047
0.329236
0.359591
0.414203
0.466465
0.694936
0.982321
0.123614
0.123854
0.124105
0.124228
0.124238
0.124111
0.123806
0.123303
0.122603
0.121712
0.120624
0.119381
0.118006
0.116481
0.114828
0.113058
0.111185
0.109222
0.107192
0.105107
0.102988
0.100841
0.0986578
0.0963785
0.0939535
0.0914155
0.0887903
0.0861057
0.0833881
0.0806646
0.0779661
0.0753311
0.0727996
0.0704378
0.0682858
0.0665959
0.0650217
0.0662203
0.0628006
0.127632
0.127646
0.127478
0.127125
0.12661
0.125827
0.124709
0.123156
0.120963
0.1182
0.115054
0.110938
0.104563
0.0972243
0.0989654
0.121163
0.166929
0.219922
0.255731
0.264848
0.251744
0.225609
0.212833
0.212797
0.22009
0.232783
0.252949
0.275887
0.297458
0.314655
0.327924
0.341247
0.360213
0.387661
0.426452
0.491172
0.583905
0.863772
1.18701
0.127736
0.127748
0.127883
0.127932
0.127936
0.127841
0.127607
0.12722
0.126686
0.126014
0.125211
0.12431
0.123311
0.122203
0.120992
0.119683
0.118278
0.116782
0.115207
0.11356
0.111854
0.110089
0.108258
0.106313
0.10421
0.10197
0.099612
0.0971579
0.0946298
0.0920532
0.0894586
0.086886
0.0843789
0.0820097
0.0798262
0.0780894
0.0765119
0.0774875
0.0751989
0.131267
0.131401
0.131399
0.131232
0.130918
0.130399
0.129689
0.128725
0.127317
0.12525
0.122464
0.119117
0.11464
0.107234
0.0994743
0.106964
0.143753
0.206773
0.267637
0.300157
0.302974
0.28834
0.268227
0.262764
0.267393
0.277186
0.29163
0.314509
0.33829
0.357612
0.373042
0.389597
0.413118
0.446307
0.492577
0.570192
0.704407
1.03111
1.37702
0.131236
0.131056
0.131007
0.130899
0.130843
0.130729
0.130501
0.130148
0.12968
0.129114
0.128475
0.127788
0.127039
0.126215
0.125315
0.124335
0.123275
0.122138
0.120928
0.119649
0.118306
0.116899
0.115417
0.113821
0.112075
0.110188
0.108172
0.10604
0.103808
0.101498
0.099134
0.0967544
0.0944016
0.0921487
0.0900471
0.0883573
0.0868418
0.0876359
0.0861708
0.133986
0.134073
0.1341
0.134017
0.13384
0.133526
0.133074
0.132438
0.13153
0.130211
0.128235
0.125473
0.122077
0.117007
0.108196
0.102771
0.121385
0.178529
0.257462
0.318906
0.343714
0.342906
0.332115
0.320281
0.321375
0.329097
0.340089
0.35544
0.37969
0.401334
0.419374
0.439705
0.467878
0.506318
0.560343
0.654755
0.825568
1.19169
1.54968
0.134037
0.133955
0.13385
0.133584
0.133409
0.133213
0.132933
0.132549
0.13207
0.131543
0.130994
0.13043
0.129831
0.129183
0.128483
0.127727
0.126911
0.126036
0.125103
0.124109
0.123058
0.121945
0.120763
0.119478
0.118061
0.116515
0.114845
0.113057
0.111161
0.10917
0.107106
0.104998
0.102886
0.100838
0.0989038
0.0973312
0.0959318
0.0965476
0.0956226
0.135849
0.135868
0.135874
0.135811
0.135691
0.135486
0.13519
0.134792
0.134225
0.133411
0.132193
0.130282
0.127593
0.124118
0.117984
0.108268
0.109027
0.146829
0.227759
0.316038
0.370669
0.388355
0.389364
0.38544
0.381877
0.387389
0.396128
0.406952
0.423501
0.44695
0.468213
0.492607
0.525606
0.569351
0.634083
0.74843
0.945187
1.34233
1.70344
0.135983
0.136032
0.136045
0.135876
0.135657
0.135377
0.13502
0.134578
0.13405
0.133546
0.133061
0.132578
0.132075
0.131539
0.130966
0.130352
0.129695
0.128995
0.12825
0.127459
0.126621
0.125731
0.124782
0.123747
0.122603
0.121348
0.119983
0.118511
0.116935
0.115264
0.113511
0.111702
0.109868
0.108069
0.106353
0.10494
0.103691
0.104151
0.103566
0.137072
0.137054
0.137046
0.136998
0.136914
0.13678
0.136583
0.136324
0.135963
0.135452
0.134714
0.133558
0.131689
0.129079
0.12529
0.117573
0.108363
0.122841
0.188066
0.29031
0.378243
0.422819
0.438722
0.445685
0.449038
0.451328
0.458524
0.466735
0.477503
0.495817
0.520177
0.549323
0.587574
0.638649
0.72061
0.847977
1.06114
1.48111
1.83782
0.137229
0.137333
0.137421
0.137389
0.137297
0.137079
0.136712
0.136233
0.135669
0.135211
0.134799
0.134394
0.133971
0.133518
0.133032
0.132513
0.131959
0.131372
0.13075
0.130094
0.129401
0.128667
0.127886
0.127036
0.126098
0.125071
0.123953
0.122744
0.121444
0.120058
0.118594
0.117071
0.115513
0.113972
0.112488
0.111252
0.110166
0.110496
0.110109
0.137866
0.137837
0.137826
0.137791
0.137734
0.137647
0.137515
0.137348
0.137115
0.13679
0.136328
0.13564
0.134506
0.132654
0.13008
0.125496
0.115623
0.112215
0.150875
0.247519
0.362248
0.441724
0.479104
0.498577
0.512768
0.520965
0.525962
0.53325
0.541634
0.555025
0.577138
0.611405
0.657109
0.723332
0.817318
0.949923
1.17165
1.60599
1.95312
0.138009
0.138109
0.138204
0.138225
0.138222
0.13814
0.137915
0.137487
0.136947
0.136569
0.136248
0.135932
0.135592
0.135217
0.134806
0.13436
0.133881
0.133372
0.132834
0.132267
0.131671
0.131044
0.130377
0.129657
0.128868
0.128009
0.127078
0.126074
0.124995
0.123843
0.122624
0.121351
0.120042
0.118739
0.117477
0.116416
0.115486
0.115709
0.11544
0.138395
0.138366
0.138358
0.138335
0.138299
0.138243
0.138157
0.138048
0.137899
0.137691
0.137398
0.136972
0.136311
0.135155
0.133312
0.130647
0.124179
0.113632
0.125859
0.199114
0.323758
0.439318
0.50781
0.543613
0.569196
0.588727
0.598091
0.604793
0.613499
0.626616
0.649799
0.688525
0.745307
0.822919
0.921714
1.05267
1.27522
1.71503
2.0501
0.138512
0.138593
0.138673
0.1387
0.13872
0.138704
0.138606
0.138337
0.13792
0.137651
0.137436
0.137214
0.136958
0.136661
0.136322
0.135943
0.13553
0.135086
0.134613
0.134114
0.133589
0.133036
0.132451
0.131823
0.13114
0.130402
0.129608
0.128757
0.127846
0.126877
0.125853
0.124784
0.123684
0.122586
0.121519
0.120616
0.119822
0.119963
0.119785
0.138759
0.138736
0.138731
0.138718
0.138696
0.138663
0.138609
0.138538
0.138443
0.138311
0.138126
0.137858
0.137458
0.136793
0.135577
0.133794
0.130421
0.121119
0.115782
0.157262
0.270441
0.41244
0.51961
0.579624
0.618262
0.649106
0.670912
0.68045
0.691093
0.707295
0.735046
0.781562
0.849116
0.935034
1.03358
1.15568
1.37081
1.80706
2.12974
0.138855
0.138921
0.138987
0.139012
0.139036
0.13904
0.138998
0.138851
0.13862
0.138474
0.138355
0.138221
0.13805
0.137837
0.137576
0.137272
0.136925
0.136543
0.13613
0.135691
0.135227
0.134736
0.134218
0.133661
0.13306
0.132413
0.131722
0.130984
0.1302
0.12937
0.128497
0.127587
0.126654
0.125722
0.124816
0.124049
0.123362
0.123466
0.1234
0.139021
0.139001
0.139
0.138994
0.138983
0.138965
0.138934
0.13889
0.138832
0.13875
0.138634
0.138466
0.138217
0.137832
0.137116
0.135865
0.134061
0.128675
0.117651
0.130185
0.214311
0.363455
0.508954
0.603458
0.65965
0.70219
0.736187
0.759135
0.773039
0.794641
0.830511
0.887571
0.966868
1.05994
1.15412
1.25921
1.45791
1.88178
2.1934
0.139101
0.139157
0.139214
0.139239
0.139264
0.139274
0.139257
0.139179
0.139061
0.138992
0.138938
0.138877
0.138793
0.13868
0.138522
0.138312
0.138046
0.137741
0.137399
0.137024
0.13662
0.136191
0.135734
0.135244
0.134715
0.134146
0.133539
0.132893
0.132208
0.131486
0.130729
0.129944
0.12914
0.128341
0.127564
0.126914
0.126306
0.126468
0.126548
0.139213
0.139197
0.139199
0.139198
0.139195
0.139188
0.139173
0.139148
0.139117
0.13907
0.138999
0.138896
0.138741
0.138507
0.138109
0.137309
0.13612
0.133684
0.124779
0.119116
0.167011
0.300676
0.473094
0.609497
0.692055
0.748254
0.793892
0.830665
0.858794
0.887127
0.933883
1.00444
1.09745
1.19774
1.28437
1.36433
1.53665
1.93972
2.24268
0.139281
0.13933
0.139382
0.139408
0.139434
0.139449
0.13944
0.139394
0.139328
0.139283
0.13925
0.139217
0.139176
0.139124
0.139054
0.138959
0.138826
0.138643
0.1384
0.138108
0.13778
0.137424
0.137037
0.136616
0.136159
0.135666
0.135138
0.134576
0.133979
0.133349
0.132689
0.132006
0.131309
0.130619
0.129952
0.129412
0.12888
0.129246
0.129434
0.139358
0.139345
0.13935
0.139355
0.139358
0.13936
0.139356
0.139344
0.13933
0.139306
0.139268
0.139208
0.139114
0.13897
0.138743
0.138291
0.137441
0.136316
0.131594
0.12032
0.136068
0.23609
0.414561
0.591985
0.711898
0.786847
0.844632
0.894161
0.938457
0.983917
1.04434
1.13088
1.24036
1.34917
1.42572
1.47226
1.60793
1.98232
2.279
0.139417
0.13946
0.139508
0.139534
0.139564
0.139582
0.139576
0.139544
0.139509
0.139483
0.139464
0.139444
0.139419
0.139388
0.139348
0.139298
0.139233
0.139149
0.139035
0.13888
0.138675
0.138422
0.138124
0.137789
0.137419
0.137014
0.136574
0.1361
0.135592
0.135054
0.134488
0.133902
0.133307
0.132724
0.132169
0.131754
0.131342
0.131936
0.13211
0.139471
0.139463
0.139471
0.13948
0.139489
0.139497
0.139501
0.139499
0.139495
0.139485
0.139468
0.139437
0.139385
0.139301
0.139166
0.138928
0.138382
0.137645
0.135866
0.126903
0.122347
0.181312
0.341553
0.547713
0.712987
0.816392
0.888553
0.950269
1.0095
1.07386
1.15516
1.26321
1.39271
1.51421
1.58045
1.58453
1.67335
2.01164
2.3036
0.139522
0.13956
0.139604
0.139631
0.139665
0.139688
0.139683
0.13966
0.139644
0.139634
0.139626
0.139617
0.139604
0.139586
0.139562
0.13953
0.139489
0.139438
0.139376
0.139299
0.1392
0.139073
0.138908
0.138701
0.138453
0.138163
0.137833
0.137468
0.137069
0.13664
0.136185
0.135713
0.135236
0.134775
0.134353
0.134082
0.133828
0.134435
0.134472
0.139565
0.139561
0.139572
0.139585
0.139598
0.139611
0.139621
0.139627
0.13963
0.139629
0.139624
0.139611
0.139586
0.139541
0.139463
0.139337
0.139042
0.138466
0.137883
0.133333
0.121929
0.144156
0.266255
0.478671
0.688743
0.832789
0.925003
0.999443
1.07236
1.15434
1.25652
1.38656
1.53643
1.67198
1.73724
1.70313
1.73518
2.03012
2.31771
0.139609
0.139642
0.139681
0.139708
0.139743
0.139772
0.139771
0.139755
0.139749
0.139749
0.13975
0.139749
0.139746
0.139738
0.139726
0.139708
0.139682
0.13965
0.139609
0.139559
0.1395
0.13943
0.139344
0.139238
0.139108
0.138949
0.138758
0.138534
0.138277
0.13799
0.137676
0.137343
0.137004
0.136678
0.136386
0.136213
0.136071
0.136519
0.136386
0.139645
0.139644
0.13966
0.139676
0.139692
0.139709
0.139724
0.139735
0.139744
0.13975
0.139753
0.13975
0.13974
0.13972
0.13968
0.139612
0.139476
0.139084
0.138725
0.137312
0.12781
0.125986
0.201113
0.392978
0.63492
0.828942
0.952092
1.04161
1.12757
1.22572
1.34778
1.49944
1.66974
1.82001
1.88744
1.83083
1.79621
2.04043
2.32235
0.139682
0.139711
0.139745
0.139769
0.139804
0.139838
0.139846
0.139835
0.139834
0.139839
0.139846
0.139852
0.139856
0.139856
0.139853
0.139845
0.139831
0.139812
0.139786
0.139754
0.139714
0.139668
0.139613
0.13955
0.139476
0.139388
0.139285
0.139165
0.139024
0.138863
0.138681
0.138483
0.138275
0.13807
0.137883
0.137769
0.137675
0.13797
0.137821
0.139715
0.139718
0.139736
0.139756
0.139775
0.139796
0.139814
0.139829
0.139842
0.139854
0.139864
0.139869
0.139868
0.139861
0.139843
0.139808
0.139751
0.139548
0.139188
0.139034
0.134129
0.122977
0.155141
0.303673
0.552826
0.797015
0.965049
1.07592
1.17531
1.28844
1.4293
1.60219
1.79315
1.95914
2.03165
1.96284
1.85969
2.04529
2.31827
0.139746
0.13977
0.139799
0.139818
0.139851
0.13989
0.139908
0.139902
0.139904
0.139912
0.139924
0.139935
0.139944
0.13995
0.139953
0.139952
0.139946
0.139936
0.139922
0.139902
0.139877
0.139846
0.13981
0.139768
0.139719
0.139664
0.139601
0.13953
0.139449
0.139359
0.139258
0.139147
0.13903
0.138913
0.138805
0.138738
0.138679
0.138862
0.138808
0.139776
0.139782
0.139804
0.139827
0.139849
0.139873
0.139894
0.139913
0.139928
0.139945
0.139959
0.13997
0.139977
0.139979
0.139974
0.139959
0.139934
0.13986
0.139574
0.139566
0.138172
0.1279
0.130743
0.225039
0.451
0.731517
0.955612
1.10021
1.2153
1.34264
1.50128
1.69502
1.90704
2.09031
2.1707
2.09072
1.92889
2.04754
2.30596
0.139802
0.139821
0.139843
0.139856
0.139886
0.139929
0.139957
0.139958
0.139963
0.139974
0.139988
0.140002
0.140014
0.140025
0.140032
0.140036
0.140036
0.140033
0.140025
0.140014
0.139999
0.13998
0.139957
0.13993
0.139898
0.139861
0.13982
0.139774
0.139723
0.139667
0.139607
0.139542
0.139475
0.13941
0.13935
0.139316
0.139286
0.139401
0.139405
0.139831
0.139841
0.139865
0.139891
0.139917
0.139943
0.139967
0.139989
0.140007
0.140025
0.140042
0.140057
0.140069
0.140079
0.140083
0.140081
0.14007
0.140057
0.139904
0.139757
0.139869
0.134219
0.124219
0.168059
0.34438
0.633382
0.914482
1.10894
1.24656
1.38819
1.56359
1.77777
2.01145
2.21397
2.30589
2.21871
2.00717
2.05006
2.28578
0.139852
0.139864
0.139878
0.139884
0.13991
0.139955
0.139992
0.140001
0.14001
0.140024
0.14004
0.140057
0.140071
0.140084
0.140094
0.140102
0.140106
0.140107
0.140105
0.1401
0.140091
0.14008
0.140066
0.140049
0.140028
0.140005
0.139978
0.139948
0.139916
0.13988
0.139842
0.139802
0.139762
0.139725
0.139692
0.139677
0.139667
0.139747
0.139766
0.139882
0.139895
0.139923
0.139952
0.139981
0.14001
0.140036
0.14006
0.140082
0.140101
0.140119
0.140135
0.14015
0.140163
0.140174
0.140181
0.140182
0.140186
0.140143
0.139953
0.14025
0.138537
0.127829
0.136309
0.249911
0.512374
0.835061
1.0926
1.26671
1.42457
1.61589
1.85003
2.10605
2.33015
2.4381
2.35025
2.09788
2.05594
2.25808
0.139896
0.139899
0.139904
0.139904
0.139926
0.13997
0.14001
0.140029
0.140045
0.140063
0.140081
0.140099
0.140116
0.140131
0.140143
0.140152
0.140159
0.140164
0.140165
0.140164
0.14016
0.140154
0.140146
0.140135
0.140123
0.140108
0.140091
0.140073
0.140052
0.14003
0.140007
0.139983
0.139959
0.139938
0.139921
0.139917
0.139918
0.139982
0.140004
0.139929
0.139947
0.139979
0.140011
0.140043
0.140075
0.140104
0.14013
0.140153
0.140174
0.140193
0.14021
0.140225
0.140239
0.140253
0.140266
0.140275
0.140284
0.140295
0.140175
0.140244
0.1404
0.134052
0.125895
0.180825
0.386066
0.718426
1.04051
1.26948
1.45079
1.65766
1.91115
2.1902
2.43842
2.5674
2.48676
2.20517
2.06858
2.22359
0.139933
0.139927
0.139925
0.139921
0.139938
0.139975
0.140014
0.14004
0.140064
0.140087
0.140109
0.14013
0.140148
0.140165
0.140179
0.14019
0.140199
0.140206
0.14021
0.140211
0.140211
0.140208
0.140203
0.140197
0.14019
0.140181
0.140171
0.14016
0.140148
0.140135
0.140122
0.140108
0.140096
0.140085
0.140078
0.140081
0.140088
0.140143
0.140168
0.139972
0.139996
0.140032
0.140069
0.140103
0.140137
0.140169
0.140197
0.140222
0.140244
0.140265
0.140284
0.140299
0.140313
0.140326
0.14034
0.140354
0.140366
0.140391
0.140362
0.140279
0.140766
0.13864
0.128092
0.141585
0.274506
0.576205
0.945293
1.2444
1.46431
1.68814
1.96033
2.26297
2.53788
2.69307
2.62797
2.33154
2.0918
2.18372
0.139965
0.139952
0.139945
0.139939
0.13995
0.139977
0.14001
0.14004
0.14007
0.140099
0.140125
0.140148
0.140169
0.140187
0.140203
0.140217
0.140227
0.140236
0.140242
0.140245
0.140247
0.140246
0.140244
0.140241
0.140237
0.140232
0.140226
0.14022
0.140213
0.140206
0.1402
0.140194
0.140189
0.140186
0.140186
0.140194
0.140205
0.140253
0.14028
0.140008
0.140039
0.140081
0.140121
0.140158
0.140195
0.140229
0.140259
0.140287
0.14031
0.140334
0.140354
0.140371
0.140386
0.140398
0.140411
0.140425
0.14044
0.140462
0.140486
0.140405
0.140648
0.140701
0.134116
0.127566
0.192992
0.428909
0.808595
1.17967
1.45836
1.70634
1.99661
2.32318
2.62721
2.81372
2.77191
2.46544
2.12966
2.14108
0.139993
0.139977
0.13997
0.139961
0.139964
0.139978
0.140005
0.140037
0.14007
0.140102
0.140131
0.140157
0.14018
0.1402
0.140218
0.140233
0.140245
0.140255
0.140263
0.140268
0.140271
0.140273
0.140272
0.140271
0.140269
0.140267
0.140263
0.14026
0.140257
0.140254
0.140252
0.140251
0.140251
0.140253
0.140257
0.140269
0.140283
0.140327
0.140356
0.140039
0.140076
0.140122
0.140166
0.140205
0.140244
0.14028
0.140312
0.140342
0.140368
0.140394
0.140418
0.140438
0.140455
0.140469
0.140481
0.140494
0.140508
0.140526
0.140562
0.140543
0.140566
0.141105
0.138829
0.128587
0.146382
0.299509
0.643952
1.06742
1.42211
1.70957
2.01898
2.36944
2.70466
2.92735
2.91693
2.60854
2.18782
2.10001
0.140021
0.140006
0.139999
0.139985
0.139978
0.139983
0.140006
0.140036
0.140068
0.140101
0.140132
0.14016
0.140184
0.140206
0.140225
0.140241
0.140255
0.140266
0.140275
0.140282
0.140286
0.140289
0.14029
0.140291
0.14029
0.140289
0.140288
0.140287
0.140286
0.140286
0.140286
0.140288
0.140291
0.140296
0.140304
0.140318
0.140335
0.140376
0.140407
0.140069
0.140108
0.140156
0.140202
0.140243
0.140283
0.14032
0.140353
0.140385
0.140414
0.140443
0.14047
0.140494
0.140516
0.140534
0.140549
0.140561
0.140575
0.140589
0.140618
0.140645
0.140611
0.140936
0.140961
0.134453
0.128991
0.20508
0.474631
0.909716
1.34305
1.69128
2.02616
2.40028
2.76821
3.03144
3.06091
2.76435
2.27062
2.06727
0.140052
0.140039
0.140029
0.140007
0.139992
0.13999
0.140012
0.140039
0.14007
0.140102
0.140133
0.140161
0.140185
0.140207
0.140227
0.140244
0.140258
0.140271
0.140281
0.140288
0.140294
0.140298
0.1403
0.140302
0.140303
0.140303
0.140303
0.140303
0.140304
0.140305
0.140308
0.140311
0.140317
0.140324
0.140334
0.14035
0.140369
0.140409
0.140442
0.140099
0.140137
0.140185
0.140231
0.140272
0.140311
0.140348
0.140383
0.140416
0.140447
0.140477
0.140508
0.140536
0.140563
0.140587
0.140607
0.140623
0.140638
0.140652
0.140672
0.140709
0.140707
0.140789
0.14134
0.139194
0.129013
0.150777
0.326169
0.721532
1.21261
1.64063
2.01551
2.41391
2.81563
3.1231
3.20092
2.93244
2.38525
2.05247
0.140085
0.140071
0.140054
0.140025
0.140003
0.139997
0.140018
0.140045
0.140075
0.140106
0.140136
0.140162
0.140186
0.140208
0.140227
0.140244
0.140259
0.140271
0.140282
0.14029
0.140296
0.140301
0.140304
0.140306
0.140308
0.140309
0.14031
0.140312
0.140313
0.140316
0.14032
0.140325
0.140332
0.140341
0.140353
0.140371
0.140392
0.140432
0.140467
0.14013
0.140165
0.14021
0.140254
0.140294
0.140332
0.140368
0.140402
0.140435
0.140467
0.140499
0.140532
0.140565
0.140597
0.140627
0.140654
0.140676
0.140695
0.140711
0.140729
0.140758
0.140788
0.140788
0.141118
0.14127
0.134822
0.1299
0.217502
0.528178
1.03251
1.54453
1.98085
2.40876
2.84449
3.19919
3.3334
3.11074
2.55072
2.06922
0.140116
0.140097
0.140072
0.140037
0.140012
0.140002
0.140023
0.14005
0.14008
0.140111
0.14014
0.140165
0.140188
0.140209
0.140227
0.140243
0.140257
0.14027
0.14028
0.140288
0.140295
0.1403
0.140304
0.140306
0.140309
0.14031
0.140312
0.140314
0.140317
0.14032
0.140325
0.140332
0.14034
0.140351
0.140365
0.140384
0.140407
0.140448
0.140487
0.140158
0.140191
0.140232
0.140273
0.14031
0.140347
0.140381
0.140414
0.140446
0.140478
0.140511
0.140545
0.14058
0.140617
0.140653
0.140687
0.140717
0.140742
0.140763
0.140783
0.140806
0.140842
0.140857
0.140938
0.141539
0.139621
0.129043
0.154476
0.35778
0.818088
1.39322
1.91141
2.38196
2.852
3.25635
3.45395
3.29268
2.74624
2.13445
0.140139
0.140114
0.140084
0.140048
0.14002
0.140006
0.140025
0.140054
0.140085
0.140115
0.140143
0.140168
0.14019
0.14021
0.140227
0.140242
0.140255
0.140267
0.140277
0.140285
0.140291
0.140296
0.1403
0.140303
0.140305
0.140308
0.14031
0.140312
0.140316
0.14032
0.140326
0.140333
0.140343
0.140355
0.140371
0.140393
0.140419
0.140462
0.140503
0.140177
0.140209
0.140248
0.140287
0.140321
0.140355
0.140388
0.14042
0.140451
0.140483
0.140515
0.140549
0.140585
0.140624
0.140665
0.140706
0.140745
0.140779
0.140807
0.14083
0.140853
0.140883
0.140922
0.140925
0.141237
0.14162
0.135028
0.129738
0.231807
0.596263
1.1869
1.79346
2.32732
2.83587
3.29095
3.55766
3.47219
2.96628
2.26138
0.140153
0.140124
0.140093
0.140057
0.140028
0.14001
0.140026
0.140055
0.140087
0.140118
0.140146
0.14017
0.140191
0.14021
0.140226
0.14024
0.140253
0.140263
0.140272
0.140279
0.140285
0.14029
0.140293
0.140296
0.140299
0.140301
0.140304
0.140307
0.140311
0.140316
0.140323
0.140332
0.140343
0.140357
0.140375
0.1404
0.140429
0.140474
0.140519
0.140187
0.14022
0.140258
0.140294
0.140326
0.140359
0.14039
0.140421
0.140451
0.140482
0.140513
0.140547
0.140583
0.140622
0.140665
0.140711
0.140757
0.140801
0.140838
0.14087
0.140896
0.140922
0.140963
0.140987
0.141031
0.14174
0.140068
0.128229
0.157829
0.398309
0.940293
1.61519
2.23383
2.7925
3.29874
3.63925
3.6432
3.20485
2.46174
0.14016
0.140132
0.140103
0.140068
0.140036
0.140012
0.140027
0.140056
0.140088
0.140119
0.140147
0.140171
0.140191
0.140209
0.140224
0.140237
0.140249
0.140258
0.140266
0.140273
0.140278
0.140282
0.140285
0.140288
0.14029
0.140293
0.140295
0.140299
0.140303
0.140309
0.140317
0.140328
0.140341
0.140357
0.140378
0.140405
0.140438
0.140487
0.140535
0.140192
0.140225
0.140261
0.140296
0.140327
0.140358
0.140388
0.140418
0.140448
0.140478
0.140508
0.140542
0.140577
0.140615
0.140657
0.140704
0.140754
0.140807
0.140856
0.140897
0.140932
0.14096
0.140993
0.14104
0.141024
0.141327
0.142054
0.134845
0.128353
0.249822
0.681991
1.37435
2.0863
2.71495
3.27605
3.69309
3.79703
3.45477
2.74619
0.140166
0.140141
0.140113
0.140078
0.140043
0.140015
0.140028
0.140056
0.140089
0.14012
0.140148
0.140171
0.14019
0.140207
0.140221
0.140233
0.140243
0.140252
0.140259
0.140265
0.140269
0.140273
0.140275
0.140278
0.14028
0.140282
0.140285
0.140289
0.140294
0.140301
0.14031
0.140322
0.140338
0.140357
0.140381
0.140412
0.140448
0.140501
0.140553
0.140195
0.140227
0.140261
0.140294
0.140324
0.140354
0.140383
0.140412
0.140441
0.140471
0.140501
0.140533
0.140567
0.140604
0.140645
0.14069
0.140741
0.140797
0.140855
0.14091
0.140956
0.140993
0.141023
0.141068
0.141092
0.141086
0.142
0.140466
0.126361
0.161553
0.448128
1.08465
1.87009
2.59082
3.21748
3.71265
3.92457
3.70234
3.07027
0.140172
0.140149
0.140122
0.140086
0.140048
0.140016
0.140028
0.140057
0.14009
0.140121
0.140148
0.14017
0.140189
0.140204
0.140217
0.140228
0.140237
0.140245
0.140251
0.140256
0.14026
0.140262
0.140264
0.140266
0.140268
0.14027
0.140273
0.140278
0.140284
0.140292
0.140304
0.140318
0.140336
0.140359
0.140386
0.140421
0.140462
0.140518
0.140574
0.140199
0.140228
0.14026
0.140292
0.14032
0.140349
0.140377
0.140405
0.140434
0.140463
0.140492
0.140523
0.140556
0.140592
0.140631
0.140673
0.140722
0.140777
0.140839
0.140903
0.140963
0.141013
0.141051
0.141086
0.141141
0.141088
0.14143
0.142564
0.134106
0.126204
0.270841
0.777905
1.57986
2.40197
3.11392
3.69131
4.01635
3.93091
3.41346
0.140178
0.140157
0.14013
0.140092
0.140053
0.140018
0.140029
0.140058
0.140091
0.140122
0.140148
0.140169
0.140187
0.140201
0.140213
0.140222
0.14023
0.140237
0.140242
0.140246
0.140249
0.140251
0.140252
0.140254
0.140256
0.140258
0.140262
0.140267
0.140275
0.140286
0.140299
0.140316
0.140338
0.140364
0.140396
0.140435
0.140479
0.140539
0.140597
0.140203
0.140229
0.140259
0.140289
0.140316
0.140344
0.140372
0.140399
0.140426
0.140454
0.140483
0.140513
0.140545
0.140579
0.140616
0.140657
0.140701
0.140753
0.140813
0.14088
0.14095
0.141014
0.141067
0.141104
0.141157
0.141172
0.141123
0.142335
0.140656
0.123852
0.165483
0.498471
1.22979
2.12956
2.94935
3.61993
4.06213
4.12408
3.74617
0.140183
0.140162
0.140134
0.140097
0.140057
0.140018
0.140029
0.140058
0.140091
0.140122
0.140148
0.140168
0.140184
0.140197
0.140208
0.140216
0.140223
0.140229
0.140233
0.140237
0.140239
0.14024
0.140241
0.140243
0.140245
0.140248
0.140253
0.14026
0.14027
0.140283
0.1403
0.140321
0.140346
0.140376
0.140412
0.140454
0.140503
0.140565
0.140625
0.140205
0.140229
0.140258
0.140286
0.140312
0.140339
0.140366
0.140393
0.14042
0.140447
0.140475
0.140504
0.140535
0.140567
0.140603
0.140641
0.140683
0.14073
0.140785
0.14085
0.140922
0.140996
0.141064
0.141114
0.141159
0.141223
0.141126
0.141574
0.143009
0.133026
0.124157
0.288294
0.859603
1.76608
2.6999
3.48418
4.05007
4.26723
4.04395
0.140186
0.140165
0.140138
0.140101
0.14006
0.140018
0.140028
0.140058
0.140092
0.140122
0.140147
0.140166
0.140181
0.140193
0.140203
0.140211
0.140217
0.140222
0.140225
0.140228
0.14023
0.140231
0.140232
0.140234
0.140238
0.140242
0.140249
0.140259
0.140272
0.140288
0.140308
0.140333
0.140362
0.140396
0.140436
0.140482
0.140532
0.140595
0.140655
0.140206
0.140229
0.140257
0.140284
0.140309
0.140335
0.140362
0.140387
0.140414
0.14044
0.140468
0.140496
0.140525
0.140557
0.14059
0.140627
0.140666
0.14071
0.14076
0.140818
0.140887
0.140963
0.14104
0.141106
0.141155
0.141226
0.141225
0.141174
0.142657
0.140591
0.12192
0.167183
0.52818
1.33205
2.34144
3.26044
3.96298
4.34519
4.28917
0.140187
0.140167
0.140141
0.140105
0.140063
0.140018
0.140027
0.140057
0.140091
0.140122
0.140146
0.140164
0.140178
0.140189
0.140198
0.140205
0.140211
0.140215
0.140218
0.140221
0.140223
0.140225
0.140227
0.14023
0.140235
0.140243
0.140253
0.140265
0.140282
0.140302
0.140326
0.140355
0.140388
0.140426
0.140468
0.140515
0.140567
0.140629
0.140686
0.140206
0.140228
0.140255
0.140281
0.140306
0.140332
0.140358
0.140384
0.14041
0.140435
0.140462
0.140489
0.140517
0.140548
0.14058
0.140614
0.140651
0.140692
0.140738
0.14079
0.140852
0.140924
0.141002
0.141078
0.14114
0.141205
0.141276
0.141157
0.141736
0.14321
0.132395
0.122915
0.289729
0.886132
1.87023
2.91553
3.77585
4.33624
4.46519
0.140188
0.140168
0.140143
0.140107
0.140064
0.140017
0.140026
0.140057
0.140091
0.140121
0.140144
0.140162
0.140175
0.140185
0.140194
0.1402
0.140206
0.14021
0.140214
0.140217
0.140219
0.140222
0.140226
0.140232
0.14024
0.140251
0.140264
0.140281
0.140302
0.140326
0.140354
0.140387
0.140423
0.140463
0.140506
0.140554
0.140604
0.140663
0.140717
0.140205
0.140228
0.140254
0.14028
0.140305
0.140331
0.140356
0.140382
0.140407
0.140432
0.140458
0.140484
0.140511
0.14054
0.14057
0.140603
0.140638
0.140676
0.140718
0.140766
0.14082
0.140885
0.140958
0.141035
0.141108
0.141173
0.141263
0.141252
0.141252
0.142811
0.140494
0.122033
0.162945
0.510266
1.33003
2.4248
3.45148
4.20595
4.54801
0.140188
0.140169
0.140145
0.140109
0.140066
0.140017
0.140026
0.140057
0.140091
0.14012
0.140143
0.140159
0.140172
0.140182
0.14019
0.140197
0.140202
0.140207
0.140212
0.140216
0.14022
0.140225
0.140231
0.14024
0.140252
0.140267
0.140285
0.140306
0.140331
0.140359
0.140391
0.140426
0.140464
0.140504
0.140547
0.140593
0.140641
0.140697
0.140747
0.140205
0.140227
0.140254
0.14028
0.140305
0.140331
0.140356
0.140381
0.140406
0.140431
0.140456
0.140481
0.140507
0.140535
0.140563
0.140593
0.140625
0.140661