/*--------------------------------*- C++ -*----------------------------------*\
  =========                 |
  \\      /  F ield         | OpenFOAM: The Open Source CFD Toolbox
   \\    /   O peration     | Website:  https://openfoam.org
    \\  /    A nd           | Version:  9
     \\/     M anipulation  |
\*---------------------------------------------------------------------------*/
FoamFile
{
    format      ascii;
    class       volScalarField;
    location    "460";
    object      p;
}
// * * * * * * * * * * * * * * * * * * * * * * * * * * * * * * * * * * * * * //

dimensions      [0 2 -2 0 0 0 0];

internalField   nonuniform List<scalar> 
10720
(
-25.4563
-29.6434
-33.8165
-35.4129
-33.8198
-30.8254
-25.7431
-19.5295
-14.3057
-11.2624
-10.3962
-10.2668
-9.97495
-9.60013
-9.36298
-9.18883
-9.0878
-9.06421
-9.07604
-9.08082
-9.08872
-9.14344
-9.2871
-9.55108
-9.95935
-10.5397
-11.3456
-12.4591
-13.9624
-15.9007
-18.2193
-20.8137
-23.4595
-26.4247
-30.2081
-33.6766
-50.1795
-58.2616
-116.51
-18.5044
-11.8339
-1.62448
9.97643
22.1466
34.2013
45.3025
54.3757
60.8615
64.9109
66.8526
67.2194
66.49
64.7377
62.1655
59.2595
56.2537
53.0926
49.7117
46.1081
42.3191
38.313
34.0653
29.5868
25.0936
20.7614
16.5034
12.2769
8.072
3.87989
-0.353827
-4.69682
-9.25902
-14.2342
-19.859
-26.7784
-35.462
-49.3652
-73.5368
5.82355
1.11749
-3.42118
-6.68579
-8.22892
-8.42477
-7.66906
-6.93192
-7.29975
-8.6301
-9.68527
-9.47136
-9.23045
-9.22933
-9.16483
-9.04783
-8.97361
-8.98721
-9.03563
-9.06789
-9.09265
-9.15541
-9.30142
-9.56504
-9.97269
-10.5542
-11.3622
-12.4775
-13.9806
-15.9152
-18.2259
-20.8101
-23.4449
-26.4052
-30.216
-33.7329
-50.2435
-58.3697
-118.974
10.4633
15.3635
21.0352
27.7588
35.0703
42.6189
49.8682
56.1473
60.9897
64.2515
65.9998
66.4575
65.8286
64.2222
61.8882
59.1892
56.304
53.2164
49.8941
46.3466
42.6045
38.6493
34.4641
30.067
25.6293
21.3003
17.0273
12.7763
8.54131
4.31419
0.0431014
-4.3378
-8.93577
-13.9424
-19.5914
-26.5218
-35.1941
-49.0738
-72.0514
9.07937
5.13653
1.53284
-1.71765
-4.09364
-5.51377
-6.04263
-5.88248
-5.56441
-5.74341
-6.60046
-7.57287
-8.44267
-8.76783
-8.88727
-8.85157
-8.82912
-8.89063
-8.98283
-9.04714
-9.08947
-9.16053
-9.30998
-9.57534
-9.98495
-10.5698
-11.3818
-12.5002
-14.0033
-15.9329
-18.2327
-20.8036
-23.4249
-26.3841
-30.2476
-33.8002
-50.3931
-58.6909
-121.327
13.2198
18.1876
24.1028
30.6945
37.5172
44.3234
50.673
56.09
60.2934
63.1951
64.8392
65.3623
64.8849
63.4995
61.4146
58.9013
56.1198
53.1025
49.8462
46.3619
42.6716
38.7677
34.6389
30.3052
25.9034
21.5723
17.292
13.033
8.78858
4.54886
0.264032
-4.13154
-8.74309
-13.7608
-19.4152
-26.3405
-34.9871
-48.769
-70.6539
18.6973
15.2436
11.6955
8.2997
5.35016
2.96288
1.1433
-0.220439
-1.2751
-2.24778
-3.38111
-4.89863
-6.64238
-7.87384
-8.43359
-8.52689
-8.60694
-8.74889
-8.90648
-9.01181
-9.07243
-9.14879
-9.30033
-9.56829
-9.982
-10.5726
-11.3904
-12.5124
-14.0151
-15.9387
-18.2276
-20.7881
-23.4051
-26.3783
-30.297
-33.8652
-50.6039
-59.1302
-123.419
22.0787
25.8205
30.2023
35.2765
40.6218
46.0755
51.2761
55.8028
59.4019
61.9764
63.5195
64.09
63.7504
62.5719
60.7213
58.4055
55.7677
52.8643
49.7088
46.3131
42.6961
38.8595
34.7984
30.5347
26.1821
21.8675
17.5926
13.3326
9.08092
4.82785
0.526716
-3.88733
-8.51666
-13.5497
-19.213
-26.1362
-34.7521
-48.4227
-69.2948
22.0098
18.8204
15.505
12.1797
9.25093
6.76291
4.73375
3.11135
1.72727
0.393766
-0.973133
-2.43138
-4.11865
-5.95944
-7.42136
-8.06658
-8.30196
-8.54186
-8.79746
-8.9599
-9.04048
-9.11758
-9.26843
-9.5398
-9.96002
-10.5588
-11.3838
-12.5092
-14.0099
-15.9256
-18.2034
-20.7584
-23.3821
-26.3878
-30.3604
-33.935
-50.88
-59.6544
-125.359
25.1691
28.6515
32.6985
37.2483
41.9354
46.675
51.1878
55.1304
58.3016
60.6265
62.0829
62.6872
62.4661
61.4767
59.8529
57.7466
55.2784
52.5128
49.4758
46.1831
42.6536
38.895
34.9091
30.7195
26.4227
22.1334
17.8689
13.6118
9.35646
5.09378
0.780108
-3.64892
-8.29272
-13.3375
-19.0061
-25.922
-34.4976
-48.0367
-67.9212
25.4908
22.6395
19.5665
16.4368
13.5477
10.8675
8.46724
6.37878
4.53432
2.84107
1.23312
-0.310206
-1.89565
-3.72013
-5.70501
-7.2058
-7.92298
-8.2843
-8.63646
-8.88436
-8.99324
-9.06713
-9.21303
-9.48799
-9.91748
-10.5273
-11.3611
-12.4892
-13.9857
-15.8909
-18.1589
-20.7137
-23.3573
-26.4148
-30.437
-34.0269
-51.2261
-60.248
-127.171
28.2588
31.2425
34.7169
38.6581
42.7127
46.8322
50.7788
54.2508
57.0754
59.1922
60.5675
61.1881
61.0633
60.2437
58.8315
56.9345
54.6494
52.0398
49.1386
45.9656
42.5398
38.8731
34.9724
30.8637
26.6305
22.3764
18.1302
13.8825
9.62882
5.36086
1.03769
-3.40372
-8.05992
-13.1146
-18.7859
-25.6905
-34.217
-47.6006
-66.5253
27.4474
24.8149
21.937
18.9447
16.1398
13.4731
11.0068
8.80663
6.81925
4.98109
3.23281
1.54453
-0.105919
-1.80645
-3.75423
-5.78024
-7.26678
-7.99322
-8.43206
-8.76689
-8.92398
-8.9967
-9.1336
-9.41143
-9.85209
-10.4755
-11.3198
-12.4504
-13.9398
-15.8311
-18.09
-20.6521
-23.3284
-26.4543
-30.5276
-34.1512
-51.6345
-60.8873
-128.803
29.988
32.6881
35.8211
39.3482
42.9473
46.6021
50.1141
53.2163
55.7625
57.7047
59.0014
59.622
59.5729
58.9016
57.6811
55.9852
53.8885
51.4478
48.6971
45.6582
42.3504
38.7886
34.9835
30.9627
26.8006
22.5918
18.3725
14.1409
9.89432
5.62536
1.29636
-3.15445
-7.82057
-12.8824
-18.5535
-25.4415
-33.9098
-47.113
-65.1075
28.9138
26.5039
23.8228
21.0096
18.338
15.7261
13.233
10.9395
8.82812
6.86682
5.00939
3.21066
1.45943
-0.236592
-2.01584
-4.07017
-6.13923
-7.52128
-8.20671
-8.59912
-8.81908
-8.90288
-9.03017
-9.31038
-9.7637
-10.4025
-11.2583
-12.391
-13.8708
-15.7455
-17.9979
-20.5748
-23.2999
-26.5116
-30.6337
-34.323
-52.0954
-61.5409
-130.25
31.2236
33.6493
36.467
39.6367
42.8575
46.1313
49.2867
52.085
54.3996
56.1893
57.4054
58.0125
58.0217
57.4758
56.4243
54.9162
53.0065
50.7411
48.1513
45.2584
42.0817
38.637
34.938
31.0129
26.9305
22.7769
18.5933
14.3848
10.1513
5.88642
1.55546
-2.90132
-7.57433
-12.6404
-18.3077
-25.1734
-33.574
-46.5708
-63.6666
29.835
27.6065
25.0979
22.4398
19.895
17.3667
14.9096
12.6082
10.4615
8.4515
6.54503
4.70014
2.89196
1.13194
-0.589952
-2.46632
-4.66484
-6.67438
-7.87075
-8.39893
-8.66014
-8.77662
-8.90065
-9.18429
-9.65192
-10.3075
-11.175
-12.3085
-13.7768
-15.6335
-17.8813
-20.4812
-23.2687
-26.5805
-30.7577
-34.5467
-52.5914
-62.1824
-131.496
31.9596
34.1694
36.7344
39.6135
42.5245
45.4853
48.3456
50.8909
53.0092
54.662
55.7952
56.3784
56.4315
55.9887
55.0832
53.7463
52.0163
49.927
47.504
44.7661
41.7311
38.4148
34.8317
31.0109
27.0165
22.9278
18.7892
14.6117
10.3978
6.14235
1.81415
-2.64469
-7.32125
-12.3881
-18.0478
-24.8847
-33.2078
-45.9722
-62.2012
30.4155
28.3513
26.0036
23.4983
21.0861
18.6591
16.2648
13.9842
11.8308
9.80296
7.87442
6.01026
4.18489
2.38011
0.619209
-1.13719
-3.16477
-5.4496
-7.26179
-8.12967
-8.45919
-8.59928
-8.74153
-9.03323
-9.51755
-10.1915
-11.0703
-12.2028
-13.6575
-15.4969
-17.744
-20.3743
-23.2406
-26.6686
-30.9029
-34.8325
-53.1068
-62.7968
-132.566
32.3751
34.395
36.7423
39.3725
42.0219
44.7183
47.3285
49.6582
51.606
53.1322
54.1824
54.7353
54.8187
54.4586
53.6772
52.4935
50.932
49.0149
46.7603
44.183
41.2979
38.1192
34.6616
30.9535
27.0553
23.0415
18.9572
14.8188
10.6314
6.39145
2.07083
-2.38563
-7.06193
-12.1257
-17.7734
-24.5742
-32.8098
-45.3152
-60.7103
30.7196
28.8002
26.5965
24.2314
21.9454
19.6225
17.3065
15.0749
12.9455
10.9307
9.00741
7.14311
5.321
3.51474
1.71659
-0.0352231
-1.86607
-4.05892
-6.29071
-7.68195
-8.21103
-8.36944
-8.54458
-8.85613
-9.36037
-10.0547
-10.945
-12.0743
-13.5131
-15.3354
-17.585
-20.2538
-23.2113
-26.7686
-31.0705
-35.1746
-53.6199
-63.389
-133.45
32.5353
34.3935
36.5528
38.9701
41.3954
43.8645
46.2598
48.4035
50.2001
51.6066
52.5745
53.0944
53.1966
52.9012
52.2237
51.1748
49.768
48.0152
45.9269
43.5125
40.7829
37.7495
34.4255
30.8376
27.044
23.1144
19.094
15.0031
10.8495
6.6316
2.32426
-2.12492
-6.79653
-11.8527
-17.4835
-24.2407
-32.3785
-44.5989
-59.1934
30.8165
29.0262
26.955
24.7207
22.5562
20.3372
18.11
15.9428
13.8503
11.8636
9.96291
8.11492
6.30738
4.52087
2.72839
0.945548
-0.805617
-2.7585
-5.05655
-6.9539
-7.85422
-8.1108
-8.29899
-8.65162
-9.1827
-9.89896
-10.8009
-11.9255
-13.3463
-15.1512
-17.4069
-20.1215
-23.1863
-26.8886
-31.261
-35.5761
-54.1173
-63.9829
-134.138
32.5049
34.2204
36.2167
38.447
40.6782
42.9502
45.1569
47.1374
48.7968
50.0902
50.9787
51.464
51.575
51.3287
50.7374
49.8052
48.538
46.9393
45.012
42.7596
40.1883
37.3058
34.122
30.6617
26.9804
23.1439
19.1966
15.1618
11.0499
6.86082
2.57266
-1.86392
-6.52598
-11.5697
-17.1782
-23.8833
-31.9127
-43.8231
-57.6503
30.75
29.076
27.1253
25.0119
22.9612
20.8446
18.7087
16.6133
14.569
12.6219
10.7572
8.93965
7.1578
5.39752
3.63621
1.85608
0.0989236
-1.67551
-3.77277
-5.94282
-7.31939
-7.80404
-8.02415
-8.41133
-8.98675
-9.72747
-10.6406
-11.7593
-13.1605
-14.9469
-17.2095
-19.9763
-23.1593
-27.0174
-31.4699
-36.0258
-54.5823
-64.609
-134.564
32.3238
33.9148
35.766
37.8331
39.8935
41.992
44.033
45.8673
47.4003
48.5874
49.4003
49.8493
49.9611
49.7515
49.2303
48.3983
47.2554
45.7987
44.0246
41.9307
39.5179
36.7892
33.7507
30.4243
26.8623
23.1272
19.2621
15.292
11.2297
7.07674
2.81433
-1.60367
-6.25069
-11.2765
-16.8567
-23.5009
-31.4115
-42.9876
-56.0809
30.5545
28.9851
27.1457
25.1445
23.2011
21.1822
19.1365
17.1172
15.1296
13.2287
11.4073
9.62915
7.88261
6.15456
4.42993
2.68659
0.925736
-0.792101
-2.63378
-4.77423
-6.56494
-7.40387
-7.73945
-8.13753
-8.77412
-9.546
-10.4695
-11.5802
-12.96
-14.727
-16.9976
-19.8213
-23.1357
-27.162
-31.6969
-36.5265
-55.0065
-65.288
-134.658
32.0257
33.5049
35.2284
37.1487
39.0583
41.0034
42.8966
44.5989
46.0135
47.101
47.8429
48.2547
48.361
48.1774
47.7126
46.9654
45.9319
44.6045
42.9743
41.0329
38.7762
36.2021
33.3125
30.125
26.6886
23.0625
19.2882
15.3913
11.3867
7.27734
3.04747
-1.3457
-5.97187
-10.9737
-16.5191
-23.0929
-30.8739
-42.0936
-54.4846
30.256
28.7822
27.0445
25.1473
23.3034
21.3787
19.4194
17.4787
15.5547
13.7033
11.9288
10.1955
8.49091
6.80168
5.11532
3.41901
1.69123
-0.0256796
-1.71136
-3.63124
-5.62215
-6.87826
-7.4288
-7.86671
-8.53823
-9.35933
-10.2937
-11.3944
-12.7505
-14.4961
-16.7732
-19.6565
-23.1081
-27.3075
-31.9361
-37.0634
-55.3765
-66.0097
-134.345
31.6341
33.0138
34.6213
36.4115
38.1858
39.9925
41.7539
43.3352
44.6389
45.6327
46.3084
46.6823
46.7786
46.6126
46.1927
45.5168
44.5787
43.3675
41.8702
40.0737
37.9688
35.5484
32.8092
29.764
26.4582
22.948
19.2724
15.457
11.5182
7.46024
3.2702
-1.0913
-5.6901
-10.6614
-16.165
-22.6587
-30.2993
-41.1421
-52.8619
29.8744
28.4875
26.844
25.0433
23.2927
21.4564
19.5808
17.7196
15.8615
14.0605
12.3345
10.6495
8.99126
7.34617
5.70177
4.05129
2.37726
0.677894
-0.964457
-2.65335
-4.59669
-6.21228
-7.07192
-7.61531
-8.28964
-9.17073
-10.1204
-11.2085
-12.538
-14.2597
-16.5415
-19.485
-23.0798
-27.4597
-32.186
-37.6367
-55.6841
-66.7576
-133.605
31.1685
32.4575
33.9617
35.6328
37.2855
38.968
40.6091
42.0783
43.2785
44.1853
44.7986
45.1347
45.2172
45.0618
44.6772
44.0605
43.205
42.0973
40.7217
39.0612
37.102
34.8321
32.2432
29.3426
26.1716
22.783
19.2132
15.4873
11.6221
7.62348
3.48073
-0.84206
-5.40665
-10.3404
-15.7945
-22.198
-29.6871
-40.1357
-51.2129
29.4258
28.1188
26.5617
24.8508
23.1865
21.4348
19.6388
17.8551
16.0625
14.3126
12.636
11.0015
9.39225
7.79441
6.19578
4.59043
2.97083
1.31941
-0.318251
-1.88172
-3.62889
-5.43071
-6.65119
-7.36896
-8.06953
-8.97512
-9.95536
-11.0298
-12.3299
-14.0245
-16.307
-19.308
-23.0434
-27.6002
-32.4365
-38.2247
-55.9142
-67.5
-132.444
30.6428
31.8506
33.2594
34.8236
36.3658
37.9344
39.4658
40.8309
41.9344
42.7599
43.3143
43.6126
43.6788
43.5288
43.1712
42.6037
41.819
40.803
39.5377
38.0035
36.1826
34.0586
31.6179
28.8625
25.8291
22.5668
19.1092
15.48
11.6964
7.76488
3.67712
-0.59941
-5.12235
-10.011
-15.4075
-21.7104
-29.0375
-39.0765
-49.5379
28.9226
27.6884
26.2119
24.5842
23.0011
21.3279
19.608
17.8984
16.1699
14.4728
12.8459
11.2618
9.70241
8.15301
6.60229
5.04369
3.47356
1.88109
0.266888
-1.27079
-2.82439
-4.60514
-6.14859
-7.117
-7.88986
-8.78597
-9.80105
-10.8649
-12.1327
-13.7974
-16.0776
-19.1322
-23.0059
-27.735
-32.684
-38.8184
-56.0582
-68.2133
-130.881
30.0692
31.2022
32.5254
33.9904
35.4323
36.8978
38.327
39.5942
40.6076
41.3575
41.8559
42.1173
42.1654
42.0163
41.6791
41.152
40.4278
39.4922
38.3263
36.9083
35.2175
33.2334
30.9376
28.3266
25.4321
22.2998
18.9598
15.4341
11.7393
7.88277
3.85774
-0.364833
-4.83852
-9.674
-15.0044
-21.1962
-28.3502
-37.968
-47.8386
28.3749
27.2081
25.8059
24.2558
22.7476
21.149
19.5008
17.8604
16.1962
14.5539
12.9752
11.4398
9.92952
8.42865
6.92633
5.41584
3.89261
2.35472
0.788776
-0.752861
-2.209
-3.83851
-5.56686
-6.83738
-7.73533
-8.63844
-9.6536
-10.7193
-11.9532
-13.5855
-15.8597
-18.9631
-22.9648
-27.8518
-32.9188
-39.387
-56.0996
-68.8561
-128.908
29.4566
30.5218
31.7651
33.1409
34.4901
35.8605
37.1956
38.3703
39.299
39.9785
40.424
40.6492
40.6778
40.5264
40.2041
39.71
39.0373
38.1721
37.095
35.7832
34.2135
32.3622
30.2066
27.7379
24.9829
21.9828
18.7648
15.3484
11.7495
7.97529
4.0209
-0.1398
-4.55604
-9.33002
-14.5853
-20.6554
-27.6259
-36.8135
-46.1161
27.7907
26.6859
25.353
23.8751
22.4373
20.9076
19.3276
17.7528
16.1521
14.565
13.0318
11.5427
10.0806
8.6279
7.17335
5.71093
4.23431
2.74397
1.23295
-0.293319
-1.73879
-3.21166
-4.94409
-6.49648
-7.59018
-8.53825
-9.52659
-10.5925
-11.7968
-13.3941
-15.6591
-18.8058
-22.926
-27.9587
-33.1422
-39.9127
-56.0281
-69.4001
-126.523
28.8129
29.8154
30.9868
32.2785
33.5429
34.8266
36.0729
37.16
38.0095
38.6237
39.0191
39.209
39.2174
39.061
38.7493
38.2818
37.6528
36.8487
35.8506
34.6351
33.1774
31.4513
29.4301
27.1005
24.4839
21.6173
18.5245
15.2226
11.7258
8.04136
4.16528
0.074456
-4.2761
-8.97984
-14.1506
-20.0886
-26.8649
-35.6167
-44.3724
27.1772
26.1299
24.861
23.4506
22.0777
20.6136
19.0973
17.5844
16.0458
14.512
13.022
11.5769
10.1616
8.75618
7.34834
5.93274
4.50244
3.05592
1.59434
0.106711
-1.35326
-2.74705
-4.35697
-6.07608
-7.42186
-8.46893
-9.44658
-10.4815
-11.6674
-13.2288
-15.4802
-18.6626
-22.8856
-28.0448
-33.3495
-40.3651
-55.8279
-69.7953
-123.713
28.1441
29.0895
30.193
31.4089
32.5944
33.7968
34.9609
35.9655
36.7407
37.2937
37.6413
37.7972
37.785
37.6216
37.3167
36.8707
36.2785
35.5276
34.5994
33.4707
32.1159
30.5067
28.6136
26.4186
23.9381
21.2051
18.2399
15.0566
11.6677
8.07968
4.28946
0.276644
-3.99969
-8.62421
-13.7008
-19.4963
-26.0687
-34.3824
-42.6105
26.5397
25.5453
24.3365
22.9887
21.6771
20.2732
18.8175
17.3634
15.8835
14.4005
12.9521
11.549
10.1787
8.81888
7.4562
6.08566
4.70045
3.29668
1.8773
0.435553
-1.02055
-2.40899
-3.87847
-5.6004
-7.18534
-8.40577
-9.41371
-10.4012
-11.5619
-13.0939
-15.3276
-18.5364
-22.8459
-28.1137
-33.5389
-40.7285
-55.4864
-70.0069
-120.483
27.4558
28.3478
29.39
30.534
31.6468
32.7748
33.8606
34.7875
35.4932
35.9888
36.2911
36.414
36.3811
36.2093
35.9084
35.4795
34.9184
34.2135
33.3471
32.2963
31.0353
29.5347
27.7624
25.6966
23.3493
20.749
17.9125
14.851
11.5748
8.08953
4.3925
0.465611
-3.72792
-8.26414
-13.2368
-18.8797
-25.2384
-33.115
-40.8339
25.8832
24.9382
23.7848
22.4957
21.2403
19.894
18.4945
17.0954
15.6709
14.2367
12.8291
11.4661
10.1383
8.82163
7.50203
6.17445
4.83218
3.47001
2.08866
0.688652
-0.7405
-2.14599
-3.53493
-5.14204
-6.8601
-8.30891
-9.41038
-10.3715
-11.4802
-12.9914
-15.2054
-18.4296
-22.8045
-28.1569
-33.702
-40.9829
-54.9897
-69.9832
-116.843
26.752
27.5953
28.5794
29.6583
30.703
31.7605
32.7738
33.6275
34.2677
34.7094
34.9686
35.0598
35.0065
34.8253
34.526
34.1106
33.5756
32.9104
32.0984
31.1174
29.9418
28.5414
26.8824
24.94
22.7216
20.2519
17.5443
14.6067
11.4473
8.07041
4.47342
0.640161
-3.46192
-7.90065
-12.7595
-18.2404
-24.3766
-31.8199
-39.0467
25.2117
24.3121
23.2107
21.9762
20.774
19.4802
18.1339
16.7867
15.413
14.0264
12.6598
11.3341
10.0453
8.76932
7.49044
6.20345
4.90163
3.57924
2.23433
0.869794
-0.52304
-1.92974
-3.30113
-4.77321
-6.47332
-8.13377
-9.40855
-10.3891
-11.4426
-12.9176
-15.1178
-18.3458
-22.7631
-28.1741
-33.8282
-41.1163
-54.3252
-69.693
-112.826
26.0368
26.8346
27.7661
28.7828
29.7648
30.7571
31.7011
32.486
33.0649
33.4558
33.6742
33.735
33.6615
33.47
33.1708
32.766
32.2529
31.6222
30.858
29.9394
28.841
27.5327
25.9794
24.1538
22.0596
19.7175
17.1377
14.3254
11.2861
8.02235
4.53177
0.799831
-3.20266
-7.53487
-12.27
-17.5797
-23.4853
-30.5018
-37.2534
24.5289
23.6717
22.6184
21.4349
20.2813
19.0379
17.7407
16.4416
15.1158
13.7757
12.4495
11.1576
9.90433
8.66628
7.42574
6.17689
4.91293
3.62805
2.31848
0.985677
-0.37238
-1.75949
-3.13595
-4.52513
-6.10138
-7.8646
-9.36779
-10.4392
-11.4655
-12.878
-15.0662
-18.2887
-22.7227
-28.162
-33.9051
-41.1236
-53.493
-69.101
-108.478
25.3133
26.0695
26.9507
27.9112
28.8341
29.7642
30.644
31.3644
31.8855
32.2285
32.4081
32.4398
32.3467
32.1446
31.8439
31.4474
30.9529
30.3518
29.6297
28.7666
27.7381
26.514
25.0588
23.3434
21.3679
19.1498
16.6961
14.0093
11.0922
7.94597
4.56735
0.94365
-2.95091
-7.16765
-11.7699
-16.8999
-22.568
-29.1664
-35.4596
23.8376
23.0195
22.0114
20.8753
19.7678
18.5699
17.3191
16.0658
14.7841
13.4889
12.201
10.9401
9.71928
8.51651
7.31195
6.09877
4.8701
3.62016
2.34435
1.0417
-0.286227
-1.6441
-3.0162
-4.37842
-5.82087
-7.53987
-9.24959
-10.4969
-11.5455
-12.9005
-15.0477
-18.2633
-22.6877
-28.1218
-33.9213
-41.007
-52.4995
-68.1945
-103.864
24.5845
25.3016
26.1373
27.0437
27.9122
28.7849
29.6029
30.2627
30.7298
31.0277
31.1706
31.1746
31.0624
30.8495
30.5464
30.1562
29.6772
29.102
28.417
27.6035
26.6378
25.4905
24.1261
22.5138
20.6514
18.553
16.2229
13.6609
10.8674
7.84192
4.58056
1.0716
-2.70732
-6.80006
-11.2602
-16.2028
-21.6273
-27.8186
-33.6703
23.1408
22.3593
21.3927
20.301
19.2355
18.0815
16.8734
15.6621
14.4225
13.1696
11.9176
10.6854
9.49438
8.32431
7.15317
5.97304
4.77714
3.55964
2.31535
1.04188
-0.259236
-1.58784
-2.94097
-4.29729
-5.66085
-7.23916
-9.04516
-10.5286
-11.6723
-13.001
-15.0749
-18.2718
-22.6655
-28.0591
-33.8757
-40.7836
-51.3766
-66.9642
-99.0584
23.8527
24.534
25.3262
26.1837
27.0008
27.8187
28.5793
29.1821
29.5985
29.8539
29.962
29.9396
29.8089
29.5853
29.2791
28.8938
28.4282
27.8754
27.2232
26.4537
25.5447
24.4673
23.1865
21.6708
19.9154
17.9318
15.722
13.2834
10.6141
7.71181
4.57181
1.18357
-2.47249
-6.43328
-10.7426
-15.4913
-20.6674
-26.4639
-31.8919
22.4406
21.6927
20.7653
19.7147
18.6891
17.5744
16.4068
15.2354
14.0343
12.8208
11.6025
10.3974
9.23391
8.09378
6.95337
5.80355
4.63781
3.45011
2.23505
0.989281
-0.286709
-1.58928
-2.91701
-4.26093
-5.6008
-7.03982
-8.79676
-10.5027
-11.8259
-13.1798
-15.1751
-18.315
-22.6653
-27.9832
-33.771
-40.4728
-50.1581
-65.4208
-94.1427
23.1202
23.768
24.5208
25.3312
26.1011
26.8684
27.5733
28.1226
28.4917
28.7072
28.7825
28.7351
28.5869
28.3526
28.0431
27.6614
27.2071
26.6742
26.0508
25.3208
24.4627
23.4491
22.2451
20.8191
19.1646
17.2907
15.1975
12.8801
10.3347
7.55727
4.54239
1.27989
-2.24677
-6.06786
-10.2187
-14.7673
-19.6913
-25.1076
-30.13
21.7394
21.023
20.1315
19.1195
18.1299
17.0533
15.9227
14.7875
13.623
12.4459
11.2594
10.0802
8.9418
7.82878
6.71624
5.59421
4.45596
3.29551
2.10724
0.887289
-0.36485
-1.64439
-2.94745
-4.26902
-5.60409
-6.96803
-8.58602
-10.412
-11.9786
-13.4291
-15.3674
-18.4087
-22.6958
-27.9111
-33.6225
-40.1007
-48.9067
-63.5819
-89.1864
22.3889
23.006
23.7211
24.489
25.2143
25.933
26.5863
27.0853
27.4102
27.5881
27.6326
27.5615
27.3965
27.1522
26.8387
26.46
26.0155
25.4998
24.9024
24.2076
23.3957
22.4399
21.3065
19.9639
18.4042
16.6346
14.6537
12.4549
10.0325
7.38065
4.49329
1.36123
-2.03023
-5.70507
-9.69022
-14.0341
-18.7044
-23.7546
-28.3907
21.039
20.3513
19.4938
18.5173
17.5622
16.5194
15.4236
14.3229
13.1915
12.0475
10.8919
9.73822
8.62212
7.53289
6.44554
5.34856
4.23515
3.0994
1.93534
0.739031
-0.490797
-1.74918
-3.03054
-4.32739
-5.65055
-6.99931
-8.48615
-10.2932
-12.1012
-13.7289
-15.6623
-18.5746
-22.759
-27.8627
-33.4467
-39.6787
-47.6741
-61.4914
-84.2578
21.6607
22.249
22.93
23.6568
24.3412
25.0151
25.6186
26.0704
26.354
26.4967
26.5122
26.419
26.2382
25.9841
25.6669
25.2904
24.8545
24.3543
23.7799
23.1171
22.3467
21.4437
20.375
19.1097
17.6388
15.9683
14.0952
12.0117
9.71045
7.18439
4.42665
1.42832
-1.82276
-5.3455
-9.1589
-13.2942
-17.7099
-22.4097
-26.6795
20.3412
19.6805
18.8539
17.9109
16.9867
15.9768
14.9128
13.843
12.7431
11.6293
10.5037
9.37468
8.27794
7.20935
6.14452
5.07024
3.97907
2.86534
1.72304
0.54801
-0.661407
-1.90037
-3.16248
-4.43755
-5.73954
-7.09365
-8.51913
-10.2172
-12.1782
-14.0495
-16.0535
-18.8361
-22.8713
-27.8544
-33.2779
-39.2297
-46.5248
-59.2242
-79.4175
20.9371
21.499
22.1473
22.8372
23.4827
24.1136
24.6713
25.079
25.3241
25.4338
25.4221
25.308
25.1123
24.849
24.5281
24.1536
23.7254
23.239
22.6855
22.0514
21.319
20.464
19.4548
18.261
16.8734
15.2965
13.5265
11.5547
9.37242
6.97145
4.34422
1.48241
-1.62426
-4.98989
-8.62668
-12.5508
-16.713
-21.0782
-25.002
19.6474
19.0114
18.2141
17.3018
16.4072
15.4262
14.3923
13.3519
12.2803
11.1945
10.0972
8.99145
7.91179
6.86117
5.81638
4.76246
3.69112
2.59693
1.47401
0.317877
-0.873341
-2.09471
-3.33981
-4.59708
-5.87664
-7.22867
-8.65586
-10.2501
-12.2284
-14.3525
-16.514
-19.215
-23.0541
-27.8905
-33.1535
-38.793
-45.4974
-56.9022
-74.7578
20.2196
20.7569
21.3758
22.0298
22.6397
23.231
23.7447
24.1111
24.3203
24.3992
24.3622
24.2288
24.0193
23.7473
23.4231
23.0503
22.629
22.1554
21.6208
21.013
20.315
19.5041
18.5497
17.4222
16.1122
14.6237
12.9523
11.0882
9.02206
6.74481
4.24847
1.52499
-1.43417
-4.6388
-8.09499
-11.8066
-15.7176
-19.7642
-23.363
18.9595
18.3464
17.5758
16.6924
15.8241
14.8714
13.8649
12.8507
11.8061
10.7462
9.6753
8.59094
7.52668
6.49174
5.46461
4.42874
3.37492
2.29791
1.19184
0.0521838
-1.1232
-2.32925
-3.55923
-4.80152
-6.06316
-7.40267
-8.85171
-10.409
-12.3086
-14.6064
-17.0018
-19.7113
-23.3387
-27.99
-33.1077
-38.4372
-44.6232
-54.6784
-70.4084
19.5096
20.0243
20.615
21.2368
21.8127
22.3663
22.8398
23.1676
23.3435
23.3937
23.3331
23.1816
22.9594
22.6796
22.3523
21.9811
21.5664
21.1044
20.5875
20.0036
19.3375
18.5669
17.6629
16.5969
15.3597
13.9545
12.3767
10.6163
8.6633
6.50792
4.14183
1.55753
-1.25195
-4.29284
-7.56592
-11.0649
-14.7283
-18.4723
-21.7672
18.2783
17.6862
16.9408
16.0839
15.2409
14.313
13.3322
12.3432
11.3228
10.2869
9.24041
8.17578
7.12554
6.10439
5.09264
4.07256
3.03397
1.97172
0.880133
-0.245491
-1.40725
-2.60029
-3.8175
-5.04687
-6.2951
-7.61992
-9.08095
-10.661
-12.4772
-14.8123
-17.4616
-20.2916
-23.7567
-28.1812
-33.1523
-38.2255
-43.9239
-52.7058
-66.5438
18.8082
19.302
19.8673
20.4579
21.0027
21.5217
21.9566
22.2486
22.3936
22.4172
22.3348
22.1668
21.9329
21.6461
21.3162
20.9469
20.5383
20.0874
19.5866
19.0252
18.3881
17.6549
16.7975
15.7887
14.6195
13.2929
11.8042
10.1433
8.29997
6.26402
4.027
1.58194
-1.07679
-3.95235
-7.04092
-10.3282
-13.749
-17.2064
-20.2182
17.6056
17.0331
16.3105
15.4784
14.6579
13.7543
12.7968
11.8302
10.8328
9.81904
8.79503
7.74875
6.71128
5.70217
4.70372
3.6973
2.67179
1.62202
0.542652
-0.571113
-1.72166
-2.9039
-4.11043
-5.32876
-6.56644
-7.8802
-9.33973
-10.958
-12.751
-15.0163
-17.8436
-20.8959
-24.3126
-28.5008
-33.3134
-38.2066
-43.4705
-51.0912
-63.3229
18.1166
18.5912
19.1322
19.695
20.2102
20.6962
21.0962
21.355
21.4712
21.4702
21.3678
21.1846
20.9403
20.6473
20.3154
19.948
19.5456
19.1051
18.6196
18.079
17.469
16.7704
15.9563
15.0008
13.8954
12.643
11.2388
9.67328
7.93591
6.01652
3.90677
1.60004
-0.907872
-3.61765
-6.52178
-9.59981
-12.7841
-15.9706
-18.7197
16.9421
16.3874
15.6864
14.8772
14.0783
13.1957
12.2603
11.3152
10.3383
9.34481
8.34123
7.31259
6.28735
5.28829
4.30105
3.30635
2.29195
1.25264
0.183351
-0.920794
-2.06223
-3.23586
-4.4339
-5.64312
-6.87153
-8.1776
-9.63085
-11.2719
-13.0965
-15.2766
-18.1366
-21.4433
-24.9652
-28.9819
-33.6231
-38.3898
-43.3461
-49.9099
-60.8259
17.436
17.8927
18.4118
18.9475
19.4359
19.8917
20.2585
20.4865
20.5763
20.5528
20.4322
20.2354
19.9816
19.6833
19.3501
18.985
18.5888
18.1583
17.6875
17.1662
16.5818
15.9154
15.1418
14.2362
13.1906
12.0081
10.6844
9.20995
7.5748
5.76878
3.78378
1.61381
-0.744219
-3.28886
-6.00977
-8.88198
-11.837
-14.7678
-17.274
16.2893
15.7512
15.0698
14.2819
13.5022
12.6403
11.7249
10.7988
9.84139
8.86667
7.88131
6.87006
5.85714
4.86628
3.88793
2.90308
1.89812
0.867403
-0.193822
-1.29032
-2.42461
-3.59154
-4.7829
-5.98473
-7.20469
-8.50436
-9.95247
-11.5981
-13.4644
-15.6133
-18.3867
-21.8639
-25.6258
-29.62
-34.1102
-38.7872
-43.6015
-49.2438
-59.048
16.7671
17.2075
17.7057
18.2174
18.6802
19.1074
19.4443
19.6439
19.7095
19.6654
19.5282
19.3192
19.0574
18.7547
18.4206
18.0584
17.6683
17.2479
16.7909
16.2883
15.7277
15.0917
14.356
13.4972
12.508
11.3916
10.1442
8.75695
7.22009
5.52395
3.66077
1.62522
-0.584832
-2.96624
-5.50639
-8.17753
-10.9114
-13.6018
-15.8837
15.6477
15.1248
14.4619
13.6937
12.9325
12.0886
11.1921
10.2843
9.34419
8.38683
7.41813
6.42361
5.4228
4.43888
3.46754
2.49089
1.49389
0.470235
-0.58468
-1.6753
-2.80412
-3.966
-5.1522
-6.34799
-7.56034
-8.8531
-10.2971
-11.9387
-13.8262
-15.9937
-18.6589
-22.1431
-26.1771
-30.3442
-34.7864
-39.4075
-44.2151
-49.1588
-57.9974
16.111
16.5362
17.0157
17.5042
17.9438
18.3452
18.6535
18.8271
18.8706
18.8079
18.6559
18.4364
18.1675
17.8615
17.5274
17.1685
16.7848
16.3742
15.9308
15.446
14.9082
14.3007
13.6008
12.7861
11.8501
10.7963
9.62152
8.31743
6.875
5.285
3.54029
1.63608
-0.428739
-2.64973
-5.01277
-7.48844
-10.01
-12.4744
-14.5499
15.0187
14.5099
13.8638
13.114
12.3693
11.5433
10.6639
9.77245
8.84902
7.90773
6.95441
5.97576
4.98649
4.0087
3.04309
2.07317
1.08287
0.0649472
-0.985017
-2.07114
-3.196
-4.35406
-5.5363
-6.7269
-7.93213
-9.21696
-10.6556
-12.2909
-14.1774
-16.3689
-18.9744
-22.3373
-26.5275
-31.0124
-35.5976
-40.2382
-45.1435
-49.6431
-57.6986
15.4683
15.8798
16.3414
16.8094
17.2271
17.6039
17.8868
18.0367
18.0601
17.9807
17.8157
17.5868
17.3124
17.0039
16.6706
16.3155
15.9386
15.5379
15.1078
14.6401
14.124
13.5438
12.8777
12.1047
11.2191
10.2247
9.11897
7.89431
6.54239
5.05468
3.42464
1.64818
-0.274985
-2.33942
-4.53012
-6.81695
-9.1358
-11.3887
-13.2744
14.4027
13.9067
13.2766
12.544
11.8151
11.0047
10.1418
9.26614
8.35769
7.43139
6.49259
5.5289
4.55053
3.57854
2.61783
1.65358
0.668803
-0.344444
-1.39052
-2.47329
-3.59505
-4.75022
-5.92914
-7.11508
-8.31317
-9.58904
-11.0192
-12.6462
-14.5198
-16.712
-19.2994
-22.5173
-26.6717
-31.4594
-36.3938
-41.2195
-46.3184
-50.6125
-58.1498
14.8401
15.2388
15.6845
16.1326
16.5305
16.8853
17.1441
17.2724
17.2779
17.1836
17.0072
16.7707
16.4918
16.1821
15.8504
15.4996
15.1298
14.7392
14.3222
13.8713
13.3761
12.8219
12.188
11.4546
10.6169
9.679
8.63894
7.49006
6.22479
4.83537
3.3159
1.66309
-0.122708
-2.03532
-4.05926
-6.16469
-8.29079
-10.3459
-12.0572
13.801
13.3169
12.7013
11.9847
11.2701
10.4753
9.6274
8.76608
7.87229
6.96012
6.03502
5.08548
4.11753
3.15106
2.19486
1.2356
0.255576
-0.753734
-1.79666
-2.87675
-3.99602
-5.14873
-6.32465
-7.50592
-8.69631
-9.96167
-11.3798
-12.9943
-14.8491
-17.0188
-19.5876
-22.6997
-26.6842
-31.5888
-36.95
-42.1801
-47.6117
-51.9383
-59.2552
14.2269
14.614
15.0445
15.4752
15.8544
16.1882
16.4259
16.5347
16.5241
16.4169
16.2308
15.9879
15.706
15.396
15.0667
14.7209
14.3587
13.9783
13.5744
13.1399
12.665
12.1357
11.5325
10.837
10.0448
9.16073
8.18331
7.10673
5.92432
4.62909
3.21592
1.68215
0.0288437
-1.7374
-3.6011
-5.53329
-7.47708
-9.34784
-10.8992
13.2139
12.7408
12.1389
11.4373
10.7364
9.95548
9.12212
8.27484
7.39442
6.4957
5.5837
4.64775
3.69025
2.72922
1.77707
0.822411
-0.153093
-1.15879
-2.19892
-3.27659
-4.39356
-5.54375
-6.71648
-7.89236
-9.07396
-10.3269
-11.7294
-13.3257
-15.1563
-17.2892
-19.816
-22.8486
-26.6357
-31.4294
-37.0739
-42.8412
-48.7991
-53.4344
-60.812
13.6295
14.0059
14.4229
14.8365
15.1989
15.5141
15.7318
15.8231
15.7984
15.6801
15.4859
15.2384
14.9545
14.6454
14.3194
13.9793
13.6252
13.2552
12.8645
12.4461
11.9909
11.4857
10.9121
10.2527
9.5041
8.6713
7.7536
6.74601
5.64269
4.43751
3.1261
1.7065
0.180268
-1.44571
-3.15629
-4.9239
-6.69595
-8.39513
-9.7997
12.6426
12.1796
11.5903
10.9027
10.2145
9.44727
8.62745
7.7931
6.92596
6.04013
5.14079
4.21783
3.27138
2.31641
1.36796
0.417403
-0.553595
-1.55554
-2.59274
-3.66787
-4.78206
-5.92926
-7.09796
-8.26751
-9.43873
-10.6765
-12.0595
-13.6316
-15.4312
-17.5183
-19.9807
-22.9259
-26.5351
-31.0805
-36.721
-42.9232
-49.5309
-54.7813
-62.481
13.0485
13.4151
13.8191
14.2178
14.5643
14.8619
15.0623
15.1381
15.1011
14.9733
14.7728
14.5219
14.2375
13.9302
13.6084
13.2747
12.9291
12.5699
12.1923
11.79
11.3541
10.8722
10.327
9.70229
8.9954
8.21166
7.35095
6.40912
5.3812
4.26191
3.04761
1.73699
0.332018
-1.1603
-2.72546
-4.33758
-5.94862
-7.48881
-8.75896
12.0873
11.6336
11.0563
10.3821
9.70594
8.9512
8.14464
7.32308
6.46841
5.59507
4.70808
3.79751
2.86297
1.91546
0.970842
0.0241548
-0.942345
-1.94003
-2.97369
-4.04549
-5.15628
-6.29931
-7.46282
-8.62409
-9.78265
-11.0024
-12.3618
-13.9039
-15.6644
-17.6971
-20.0802
-22.9161
-26.3536
-30.6127
-35.9941
-42.3074
-49.4472
-55.5183
-63.7243
12.4844
12.8418
13.2343
13.6183
13.9507
14.2327
14.4169
14.4791
14.4316
14.2962
14.0908
13.8381
13.5543
13.2499
12.9333
12.6066
12.2701
11.922
11.5578
11.1713
10.7543
10.2952
9.7775
9.18612
8.51918
7.78235
6.97605
6.09691
5.1408
4.10319
2.98123
1.77417
0.484357
-0.881313
-2.30909
-3.77506
-5.23576
-6.62869
-7.77552
11.5488
11.104
10.5378
9.87614
9.21136
8.4691
7.67503
6.8656
6.02344
5.16231
4.28756
3.38915
2.46712
1.52846
0.588445
-0.354137
-1.31574
-2.30845
-3.33747
-4.40482
-5.51068
-6.64816
-7.80423
-8.95525
-10.0983
-11.297
-12.6283
-14.1346
-15.8479
-17.8167
-20.1091
-22.8171
-26.0704
-30.0407
-35.0292
-41.0928
-48.379
-55.1752
-63.8991
11.9374
12.2864
12.6676
13.0391
13.3581
13.6256
13.796
13.8464
13.7901
13.6486
13.44
13.1866
12.9047
12.6043
12.2936
11.9747
11.6477
11.311
10.9603
10.5897
10.1914
9.75444
9.2633
8.7041
8.07557
7.38366
6.62928
5.80988
4.92197
3.96189
2.92744
1.81842
0.637391
-0.60889
-1.90759
-3.23693
-4.55789
-5.81516
-6.84932
11.0272
10.5907
10.0353
9.38586
8.73211
8.00151
7.21987
6.42255
5.59245
4.74355
3.88106
2.99502
2.08599
1.15732
0.223138
-0.714528
-1.67043
-2.6571
-3.68007
-4.74126
-5.84039
-6.97011
-8.11647
-9.25386