/*--------------------------------*- C++ -*----------------------------------*\
  =========                 |
  \\      /  F ield         | OpenFOAM: The Open Source CFD Toolbox
   \\    /   O peration     | Website:  https://openfoam.org
    \\  /    A nd           | Version:  9
     \\/     M anipulation  |
\*---------------------------------------------------------------------------*/
FoamFile
{
    format      ascii;
    class       surfaceScalarField;
    location    "460";
    object      phi;
}
// * * * * * * * * * * * * * * * * * * * * * * * * * * * * * * * * * * * * * //

dimensions      [0 3 -1 0 0 0 0];

internalField   nonuniform List<scalar> 
21254
(
-0.119245
0.121803
-0.00255926
0.124229
-0.00242439
0.12323
0.000997723
0.119206
0.0040249
0.111882
0.00732385
0.0997228
0.0121583
0.0829347
0.0167872
0.062318
0.0206147
0.0394143
0.0229027
0.0177735
0.0216401
0.0013224
0.0164506
-0.00853072
0.00985139
-0.0127748
0.00424139
-0.0143662
0.0015883
-0.0149298
0.000561156
-0.014455
-0.000475508
-0.0132605
-0.00119451
-0.0117676
-0.0014921
-0.0101465
-0.00162224
-0.00840278
-0.00174548
-0.00651493
-0.00189323
-0.00450811
-0.0020151
-0.00241956
-0.00210513
-0.00029128
-0.00214441
0.00186392
-0.00216457
0.00407948
-0.00221432
0.00647277
-0.00239627
0.00911194
-0.00266724
0.0118593
-0.00281001
0.0143263
-0.00254366
0.0160583
-0.00163644
0.0158474
8.66454e-05
0.0140675
0.0017935
0.0125059
0.00193621
0.0128365
-0.000768168
0.0284722
-0.0157636
0.0378244
-0.0093708
0.0719146
-0.0342834
0.103062
-0.0338678
-0.114299
-0.00494559
-0.109036
-0.00526504
-0.101089
-0.00794703
-0.091311
-0.00977841
-0.0801724
-0.0111383
-0.0676537
-0.0125189
-0.0541526
-0.0135015
-0.0404968
-0.0136564
-0.0273515
-0.0131462
-0.0149674
-0.0123849
-0.00372914
-0.0112393
0.00604341
-0.0097738
0.0144955
-0.00845342
0.0219197
-0.00742552
0.0286187
-0.00670047
0.0347435
-0.00612625
0.0403723
-0.00563041
0.0455554
-0.00518487
0.0504174
-0.00486386
0.0550557
-0.00464028
0.0595669
-0.00451294
0.0639804
-0.00441505
0.0683002
-0.00431815
0.0723302
-0.0040273
0.0759983
-0.00366586
0.0794031
-0.0034033
0.0825484
-0.00314539
0.0854825
-0.00293527
0.0882309
-0.00275296
0.0908547
-0.00262395
0.0933968
-0.00254328
0.0959389
-0.00254412
0.0985857
-0.00265073
0.101499
-0.00291744
0.104931
-0.00343596
0.109274
-0.00432824
0.115319
-0.00604271
0.126622
-0.0110656
0.151676
-0.0252856
-0.11184
0.117068
-0.00778754
0.122136
-0.00749171
0.127191
-0.00405793
0.131714
-0.000497489
0.135536
0.00350152
0.137334
0.0103597
0.135595
0.0185243
0.128304
0.0279047
0.113324
0.0378829
0.0902331
0.0447305
0.0609269
0.0457565
0.0312118
0.039566
0.0081067
0.027345
-0.0050984
0.014791
-0.010998
0.00645851
-0.0137192
0.00224453
-0.0146036
-0.000310374
-0.0144029
-0.00169266
-0.0135035
-0.00252267
-0.0121558
-0.00309545
-0.0105381
-0.00351612
-0.00881259
-0.00374778
-0.00705851
-0.00386997
-0.00531323
-0.00390097
-0.00355962
-0.00392828
-0.00167905
-0.00410333
0.000443171
-0.00452573
0.00279156
-0.00502985
0.00517928
-0.00522618
0.00721071
-0.00461379
0.00834722
-0.00275229
0.00782362
0.000532476
0.00567277
0.00390854
0.00321352
0.00449834
0.0053948
-0.0031108
0.0162787
-0.0267215
0.0333127
-0.0264651
0.0656339
-0.0667148
0.102154
-0.0719011
-0.106087
-0.0106992
-0.0996945
-0.0116584
-0.0917964
-0.0158455
-0.0828552
-0.0187198
-0.0727075
-0.0212862
-0.0614476
-0.0237788
-0.0495632
-0.0253864
-0.0375443
-0.0256759
-0.0258357
-0.0248556
-0.0146574
-0.0235639
-0.00425798
-0.0216395
0.00536298
-0.0193957
0.0141069
-0.0171984
0.0219072
-0.015227
0.0289308
-0.0137254
0.0353522
-0.0125492
0.0413058
-0.0115855
0.0468886
-0.0107694
0.0521916
-0.0101688
0.0572804
-0.00973137
0.0622331
-0.00946757
0.0670975
-0.00928112
0.0718742
-0.00909321
0.0764254
-0.00857531
0.0806507
-0.00788774
0.0846198
-0.00737107
0.08834
-0.00686639
0.0918397
-0.00643864
0.0951501
-0.00606977
0.0983126
-0.00578859
0.101377
-0.00561198
0.104432
-0.00560384
0.107574
-0.00579772
0.110978
-0.00632696
0.114887
-0.00735086
0.119819
-0.00925912
0.126373
-0.0125884
0.139166
-0.0235897
0.161562
-0.047953
-0.10882
0.113508
-0.0124752
0.117587
-0.0115715
0.121231
-0.0077011
0.123948
-0.00321535
0.126298
0.0011505
0.129064
0.0075928
0.13238
0.0152076
0.135603
0.0246807
0.135989
0.0374962
0.129609
0.0511105
0.1125
0.0628658
0.0845644
0.0675012
0.0509463
0.060963
0.0211728
0.0445641
0.00192987
0.0257008
-0.00784086
0.0120149
-0.012698
0.00454719
-0.0149323
0.00054213
-0.0154896
-0.00196511
-0.0149121
-0.00367312
-0.0137076
-0.00472109
-0.0122794
-0.00517753
-0.0108429
-0.00530886
-0.00944666
-0.00529883
-0.00804965
-0.00532355
-0.00653239
-0.00561618
-0.00478228
-0.00627262
-0.00280715
-0.00701334
-0.000806164
-0.00725092
0.000772105
-0.00621899
0.00129385
-0.00322431
7.90456e-05
0.00171061
-0.0026429
0.00665946
-0.00491765
0.00691689
-0.00196509
-0.0062011
0.00746863
-0.0361928
0.0282925
-0.0472719
0.0597294
-0.0982152
0.0991395
-0.112057
-0.103617
-0.0159032
-0.0972398
-0.0180357
-0.0890146
-0.0240713
-0.0798344
-0.0279001
-0.0696357
-0.0314847
-0.0583946
-0.0350204
-0.0466139
-0.0371675
-0.0350423
-0.0372483
-0.023805
-0.0360936
-0.0130595
-0.0343102
-0.00306472
-0.031635
0.00623942
-0.0287004
0.0148418
-0.0258014
0.022711
-0.0230969
0.0299108
-0.0209262
0.0365409
-0.0191803
0.0427184
-0.0177644
0.0485443
-0.0165967
0.0540963
-0.0157225
0.0594401
-0.0150768
0.0646557
-0.0146849
0.0697746
-0.0144009
0.0747948
-0.0141132
0.0796253
-0.0134046
0.0841657
-0.012427
0.0884452
-0.0116491
0.0924957
-0.0109157
0.0963423
-0.0102844
0.10003
-0.00975858
0.103589
-0.0093472
0.107088
-0.00910926
0.110595
-0.00911059
0.114234
-0.00943823
0.118168
-0.0102634
0.122647
-0.0118293
0.128202
-0.0147956
0.135373
-0.0197669
0.148581
-0.0366798
0.170216
-0.0697241
-0.10616
0.111643
-0.0179601
0.116632
-0.0165596
0.121469
-0.012539
0.125336
-0.00708273
0.128315
-0.00183019
0.130384
0.00552228
0.132089
0.0135017
0.134149
0.0226204
0.137273
0.034372
0.140019
0.0483641
0.137796
0.0650891
0.124636
0.0806619
0.0977377
0.0878609
0.0618893
0.080412
0.0281704
0.0594192
0.00539142
0.0347931
-0.00672744
0.0166655
-0.0128432
0.00665728
-0.015766
0.000957016
-0.0165971
-0.00284378
-0.0161645
-0.00515666
-0.0152064
-0.00614047
-0.0141462
-0.00637533
-0.0131216
-0.00633047
-0.0120936
-0.00635817
-0.0109524
-0.00676333
-0.00959878
-0.00763107
-0.00805665
-0.00856277
-0.00654258
-0.00877897
-0.00553029
-0.00725196
-0.00567877
-0.00307369
-0.00753307
0.00352336
-0.010568
0.00966564
-0.0124383
0.00881362
-0.00915833
-0.00954958
0.000109143
-0.0455049
0.0235004
-0.0707068
0.0541841
-0.128949
0.0952923
-0.153848
-0.100445
-0.0216177
-0.0938786
-0.0246031
-0.0854555
-0.0324945
-0.0762287
-0.037127
-0.0660287
-0.041685
-0.054802
-0.0462472
-0.0431841
-0.0487861
-0.0318613
-0.0485719
-0.0209499
-0.0470059
-0.0105455
-0.0447156
-0.000870721
-0.0413105
0.00811656
-0.0376884
0.016513
-0.0341986
0.0243216
-0.0309063
0.0315673
-0.028173
0.0383207
-0.0259349
0.0446621
-0.0241073
0.0506796
-0.0226159
0.0564518
-0.0214966
0.0620368
-0.0206638
0.0674829
-0.0201331
0.0728347
-0.019754
0.0780973
-0.0193754
0.0831776
-0.0184826
0.0879811
-0.0172277
0.0925249
-0.0161907
0.0968324
-0.0152227
0.100936
-0.0143899
0.104868
-0.0136944
0.108684
-0.0131651
0.112442
-0.0128711
0.116226
-0.0128988
0.12015
-0.0133665
0.124403
-0.0145201
0.129225
-0.0166576
0.135186
-0.0207558
0.142832
-0.0274096
0.156337
-0.0500079
0.177629
-0.0912125
-0.105528
0.111276
-0.0237086
0.116553
-0.0218374
0.12188
-0.0178665
0.12601
-0.0112139
0.129437
-0.00525888
0.132028
0.00292977
0.133881
0.0116483
0.135212
0.0212891
0.137008
0.0325764
0.140067
0.0453056
0.143761
0.0613952
0.143494
0.0809294
0.131937
0.0994173
0.104455
0.107894
0.066196
0.0976784
0.0300129
0.0709763
0.00567358
0.0410052
-0.00731046
0.019642
-0.0139134
0.00756051
-0.0169359
0.000179178
-0.0177731
-0.00431921
-0.0175378
-0.00637592
-0.0169829
-0.00693058
-0.0163934
-0.00691955
-0.0157806
-0.00696855
-0.0150589
-0.00748045
-0.014157
-0.00852912
-0.0131229
-0.00960212
-0.0121907
-0.00972772
-0.0118411
-0.00761996
-0.0126946
-0.00218029
-0.015107
0.00591765
-0.0182512
0.0128367
-0.0196717
0.010352
-0.0161336
-0.013186
-0.00642844
-0.0552317
0.0187367
-0.0958513
0.0488496
-0.159106
0.0909085
-0.196294
-0.0993791
-0.0277668
-0.0924497
-0.0315327
-0.0834391
-0.0415053
-0.0738005
-0.0467656
-0.0632353
-0.0522503
-0.051712
-0.0577711
-0.0398813
-0.0606174
-0.0285024
-0.0599516
-0.0176923
-0.057817
-0.00747311
-0.0549358
0.00199065
-0.0507751
0.010723
-0.0464213
0.0189125
-0.0423887
0.0266054
-0.0385999
0.0338257
-0.0353942
0.040633
-0.0327432
0.0470897
-0.0305651
0.0532667
-0.0287942
0.0592268
-0.0274582
0.0650198
-0.0264584
0.0706912
-0.0258059
0.0762691
-0.0253329
0.0817645
-0.024871
0.0870943
-0.0238122
0.0921601
-0.0222926
0.0969638
-0.0209933
0.101526
-0.0197828
0.10588
-0.0187432
0.110061
-0.0178734
0.114113
-0.0172171
0.118103
-0.0168584
0.122128
-0.0169219
0.126302
-0.0175406
0.130809
-0.0190284
0.135925
-0.0217706
0.142234
-0.0270432
0.150297
-0.0354869
0.164071
-0.063733
0.185217
-0.112424
-0.105291
0.111501
-0.0299191
0.117432
-0.0277681
0.123376
-0.0238122
0.128152
-0.0159912
0.132185
-0.00929328
0.135532
-0.000419228
0.137912
0.00926756
0.139571
0.0196311
0.140612
0.031536
0.141898
0.0440196
0.144653
0.0586407
0.148561
0.077022
0.148816
0.0991621
0.136466
0.120245
0.106388
0.127756
0.0653357
0.112029
0.0278769
0.0784635
0.00362749
0.0438907
-0.0091566
0.0203433
-0.0155329
0.00655383
-0.0182724
-0.00158258
-0.0191117
-0.00554049
-0.0192373
-0.00681035
-0.0191916
-0.00697119
-0.0190686
-0.00709762
-0.0188264
-0.00772798
-0.0184388
-0.00892116
-0.017987
-0.0100598
-0.0177222
-0.0100042
-0.0181068
-0.00725283
-0.0196689
-0.000619867
-0.0225449
0.00875995
-0.0256838
0.0159471
-0.0266797
0.0113556
-0.0228289
-0.0170894
-0.0124291
-0.065671
0.0139075
-0.122227
0.0436466
-0.188873
0.0861111
-0.239175
-0.0987147
-0.0343437
-0.0914247
-0.0388227
-0.0818875
-0.0510423
-0.0717398
-0.0569135
-0.0607149
-0.0632756
-0.0487675
-0.0697186
-0.0365969
-0.0727886
-0.0250378
-0.0715116
-0.0141792
-0.0686767
-0.00400613
-0.0651099
0.00531725
-0.0600994
0.0138814
-0.0549862
0.021919
-0.050427
0.0294848
-0.0461665
0.0366445
-0.0425548
0.0434619
-0.0395618
0.0499891
-0.0370937
0.0562836
-0.0350904
0.0623998
-0.0335762
0.0683761
-0.0324368
0.0742499
-0.0316815
0.0800472
-0.0311315
0.0857698
-0.0305938
0.0913584
-0.0293995
0.0966904
-0.0276223
0.10175
-0.0260508
0.106577
-0.0246081
0.111186
-0.0233524
0.115617
-0.0223072
0.119919
-0.0215203
0.124156
-0.0210991
0.128421
-0.0211898
0.132835
-0.0219585
0.137616
-0.0238143
0.143006
-0.0271656
0.149656
-0.0336935
0.158119
-0.0439489
0.172138
-0.0776465
0.193131
-0.133543
-0.106022
0.11278
-0.0366769
0.119104
-0.0340938
0.125651
-0.0303596
0.130955
-0.0212967
0.135495
-0.0138353
0.139247
-0.0041723
0.142153
0.00636175
0.144262
0.0175223
0.145738
0.0300612
0.146641
0.0431165
0.147666
0.0576167
0.150338
0.0743497
0.154408
0.0950929
0.153922
0.120731
0.138667
0.143011
0.104211
0.146485
0.0601966
0.122479
0.022882
0.0812057
2.57836e-05
0.0432003
-0.0117251
0.0183052
-0.0173572
0.00405021
-0.0197464
-0.00315092
-0.020781
-0.00577516
-0.0214003
-0.00635074
-0.0218625
-0.00663279
-0.0221797
-0.00740644
-0.0223732
-0.008724
-0.0225703
-0.00986597
-0.023044
-0.00954669
-0.0242187
-0.00609274
-0.0264747
0.00167348
-0.0297423
0.0120146
-0.0328426
0.0190791
-0.0334684
0.0120924
-0.0292579
-0.0213861
-0.0180866
-0.0768596
0.00897404
-0.149264
0.03858
-0.218519
0.0807819
-0.281634
-0.0989329
-0.0414326
-0.091142
-0.0466135
-0.0809905
-0.0611942
-0.0702535
-0.0676504
-0.0586758
-0.0748532
-0.0461367
-0.0822583
-0.0334893
-0.0854365
-0.0215815
-0.0834204
-0.0105169
-0.0797424
-0.000225084
-0.0754029
0.00905799
-0.0693835
0.0175289
-0.0634579
0.025455
-0.0583538
0.0329084
-0.0536206
0.0399869
-0.0496342
0.0467889
-0.0463648
0.053346
-0.0436521
0.0597217
-0.0414673
0.0659621
-0.0398181
0.0721012
-0.0385772
0.0781619
-0.0377437
0.0841661
-0.0371365
0.0901203
-0.0365489
0.0959506
-0.0352296
0.10155
-0.0332221
0.106888
-0.0313876
0.111978
-0.0296966
0.116855
-0.0282267
0.121543
-0.0269935
0.126104
-0.0260801
0.130592
-0.0255837
0.135112
-0.0257079
0.139795
-0.0266398
0.144837
-0.0288564
0.150535
-0.0328564
0.157515
-0.0406521
0.16638
-0.0528326
0.1806
-0.0918502
0.201411
-0.154381
-0.10727
0.114569
-0.0439771
0.121486
-0.0410114
0.128678
-0.0375538
0.134453
-0.0270739
0.139509
-0.0188923
0.143763
-0.00842693
0.147057
0.00306779
0.149637
0.0149432
0.151411
0.0282874
0.152629
0.0418996
0.153336
0.0569097
0.154237
0.07345
0.157004
0.0923255
0.160992
0.116744
0.158437
0.145566
0.138027
0.166894
0.0979803
0.162526
0.0518402
0.127345
0.0161322
0.0789073
-0.00438146
0.038817
-0.0145301
0.0141962
-0.0192367
0.00155193
-0.0215031
-0.00351334
-0.0229371
-0.00492228
-0.0240751
-0.0055002
-0.0250322
-0.00645434
-0.0258809
-0.0078791
-0.0267894
-0.00896264
-0.0280518
-0.00829478
-0.0300514
-0.00410952
-0.0329917
0.00461096
-0.0366235
0.0156159
-0.0397091
0.0221356
-0.0400521
0.0124337
-0.0354814
-0.0260069
-0.0235452
-0.088835
0.00389671
-0.176742
0.0335222
-0.248161
0.0748355
-0.323232
-0.099679
-0.0490231
-0.0913975
-0.0548956
-0.0805157
-0.0720757
-0.0690984
-0.0790681
-0.0568638
-0.087088
-0.0436837
-0.0954384
-0.0304358
-0.0986852
-0.01806
-0.0957973
-0.00669233
-0.0911113
0.00377612
-0.0858726
0.0131482
-0.0787566
0.0216054
-0.0719159
0.0294666
-0.0662157
0.0368303
-0.060985
0.0438426
-0.0566474
0.0506045
-0.0531278
0.0571678
-0.0502166
0.063595
-0.047896
0.0699294
-0.0461541
0.0762014
-0.044851
0.0824272
-0.0439712
0.0886286
-0.0433393
0.0948066
-0.0427274
0.100886
-0.0413089
0.106752
-0.0390862
0.112363
-0.0369963
0.117731
-0.0350627
0.122884
-0.0333791
0.127845
-0.0319554
0.132669
-0.030905
0.137429
-0.0303467
0.142215
-0.0304972
0.14717
-0.0315982
0.152502
-0.0341931
0.158497
-0.0388562
0.165814
-0.0479697
0.175084
-0.0621031
0.189443
-0.106149
0.210017
-0.175035
-0.109154
0.116986
-0.0518099
0.124469
-0.0484956
0.132284
-0.0453709
0.138586
-0.0333776
0.144198
-0.0245061
0.148931
-0.0131593
0.152647
-0.000648791
0.15548
0.0121114
0.157634
0.0261337
0.159153
0.0403821
0.160059
0.0560037
0.160471
0.0730389
0.161402
0.0913946
0.164547
0.113599
0.167985
0.142128
0.161513
0.173366
0.133863
0.190176
0.087922
0.173287
0.0411618
0.125668
0.0085451
0.0714344
-0.00892411
0.0316661
-0.0172395
0.00986805
-0.0212828
0.000530692
-0.0237393
-0.00246437
-0.0256534
-0.00358382
-0.0273182
-0.0047858
-0.0288829
-0.00631111
-0.0305596
-0.00728875
-0.0326568
-0.00621268
-0.0354983
-0.00128124
-0.0391273
0.00827356
-0.0431475
0.0196301
-0.0462959
0.0253169
-0.046453
0.0127063
-0.0415673
-0.030974
-0.0289229
-0.101493
-0.001337
-0.204306
0.0284131
-0.277947
0.0680991
-0.363114
-0.100941
-0.0572375
-0.0920782
-0.0637582
-0.0804471
-0.0837077
-0.0683535
-0.0911615
-0.0553543
-0.100087
-0.0414234
-0.10937
-0.0274354
-0.112674
-0.0145226
-0.108711
-0.00274113
-0.102894
0.00801986
-0.0966349
0.0175464
-0.0882842
0.0260788
-0.0804492
0.033937
-0.0740747
0.0412502
-0.068299
0.0481927
-0.0635906
0.0549104
-0.0598465
0.0614535
-0.0567606
0.0679113
-0.0543551
0.0743131
-0.052557
0.0806961
-0.0512355
0.087075
-0.0503511
0.0934569
-0.0497224
0.0998428
-0.0491138
0.106171
-0.0476375
0.112311
-0.0452257
0.118193
-0.0428778
0.123844
-0.0407128
0.129272
-0.0388053
0.13452
-0.037201
0.139628
-0.0360108
0.144665
-0.0353791
0.149736
-0.0355648
0.154972
-0.0368316
0.160602
-0.0398224
0.166926
-0.0451703
0.174589
-0.0556103
0.184244
-0.0717814
0.198704
-0.120602
0.219021
-0.195366
-0.111432
0.119913
-0.0602931
0.127997
-0.0565819
0.136515
-0.0538915
0.143339
-0.0402032
0.149388
-0.0305558
0.154629
-0.0184019
0.158734
-0.00475259
0.161922
0.00892396
0.164337
0.0237198
0.166067
0.0386526
0.167238
0.0548329
0.167898
0.07238
0.168083
0.091209
0.169161
0.112521
0.172866
0.138423
0.174686
0.171546
0.161781
0.203082
0.125247
0.20982
0.0744037
0.176511
0.029229
0.116608
0.00096372
0.0599291
-0.0131155
0.023944
-0.0199013
0.00731245
-0.0237395
0.00136908
-0.0265656
-0.000762385
-0.0290005
-0.00235529
-0.0313263
-0.00398841
-0.0338157
-0.00480367
-0.0367826
-0.00325464
-0.0404831
0.00240384
-0.0448209
0.012609
-0.0492956
0.0240762
-0.0526139
0.0286064
-0.0527098
0.0127943
-0.0475712
-0.0361632
-0.034323
-0.114781
-0.00679913
-0.231865
0.023086
-0.307844
0.0604762
-0.400719
-0.102681
-0.0659883
-0.0931987
-0.0732415
-0.0807323
-0.0961737
-0.0678055
-0.104089
-0.0540496
-0.113843
-0.0392375
-0.124182
-0.0244987
-0.127414
-0.0109307
-0.12228
0.00135164
-0.115178
0.0125102
-0.107795
0.0222733
-0.0980484
0.0309195
-0.0890963
0.0388262
-0.0819821
0.0461345
-0.0756081
0.0530318
-0.0704887
0.0596981
-0.0665137
0.066231
-0.0632946
0.0726862
-0.0608115
0.0791404
-0.0590126
0.0856121
-0.0577086
0.0921134
-0.056854
0.0986641
-0.0562743
0.105259
-0.0557101
0.111827
-0.0542052
0.118225
-0.0516223
0.124391
-0.0490419
0.13032
-0.0466408
0.136044
-0.0445271
0.141579
-0.0427368
0.146977
-0.0414097
0.152313
-0.0407163
0.157672
-0.0409262
0.163213
-0.0423769
0.169157
-0.045771
0.175811
-0.0518284
0.183813
-0.0636121
0.193871
-0.081843
0.208403
-0.135102
0.22833
-0.215342
-0.114212
0.1233
-0.0693828
0.131979
-0.0652622
0.141195
-0.0631105
0.148648
-0.0476569
0.155263
-0.037173
0.160989
-0.0241276
0.165419
-0.00918255
0.168978
0.00536541
0.171667
0.0210322
0.173609
0.0367109
0.174914
0.0535283
0.175717
0.0715767
0.176016
0.0909103
0.176106
0.112432
0.177732
0.136797
0.181687
0.167591
0.179885
0.204884
0.157836
0.231869
0.111964
0.222383
0.0584364
0.170136
0.0171673
0.101199
-0.00587399
0.0469858
-0.0169341
0.0183735
-0.0227921
0.00722805
-0.0267667
0.00321428
-0.0300685
0.00094898
-0.0331893
-0.000864712
-0.0365056
-0.00149035
-0.0403641
0.000592194
-0.0449358
0.00696132
-0.0500273
0.0177372
-0.0550622
0.0291113
-0.0586893
0.0322717
-0.0588477
0.0130709
-0.0535274
-0.0415543
-0.0398008
-0.128518
-0.0125277
-0.259119
0.0174423
-0.337849
0.051826
-0.435282
-0.10477
-0.0754318
-0.0946628
-0.0833483
-0.0813131
-0.109525
-0.0675335
-0.117868
-0.0528666
-0.12851
-0.0371774
-0.139872
-0.0215637
-0.143028
-0.00727538
-0.13657
0.00560607
-0.12806
0.0171919
-0.119382
0.0272871
-0.108145
0.0361326
-0.0979426
0.0441469
-0.0899972
0.0514655
-0.0829274
0.0583422
-0.0773662
0.0649871
-0.0731596
0.0714871
-0.0697955
0.0779518
-0.0672772
0.084426
-0.0654879
0.0909637
-0.0642475
0.0975788
-0.0634703
0.104279
-0.0629758
0.11107
-0.062501
0.117871
-0.0610073
0.124532
-0.0582829
0.130972
-0.0554814
0.137195
-0.0528637
0.14321
-0.0505404
0.14905
-0.0485736
0.154749
-0.0471065
0.160381
-0.0463433
0.166056
-0.0465964
0.171908
-0.0482243
0.178177
-0.0520384
0.185172
-0.0588102
0.193529
-0.0719462
0.203969
-0.0923101
0.218506
-0.149635
0.238008
-0.234852
-0.117327
0.127135
-0.0791932
0.136489
-0.0746181
0.146445
-0.0730691
0.154444
-0.0556579
0.161608
-0.0443373
0.167847
-0.0303678
0.172771
-0.0141056
0.17663
0.00150676
0.179579
0.0180844
0.181705
0.0345851
0.183179
0.0520545
0.184144
0.0706122
0.184582
0.0904723
0.184496
0.112517
0.18463
0.136663
0.187149
0.165073
0.190354
0.201679
0.181853
0.24037
0.148203
0.256033
0.0942071
0.224131
0.0413092
0.154095
0.00616976
0.0821229
-0.0116873
0.0362272
-0.0206209
0.0161579
-0.0261618
0.0087513
-0.0304826
0.00526647
-0.0344473
0.00309744
-0.0385979
0.00265721
-0.0433305
0.00531784
-0.0487917
0.0124101
-0.0547131
0.0236564
-0.060429
0.0348018
-0.0645168
0.0363313
-0.0648745
0.0134161
-0.0594736
-0.0470059
-0.0454072
-0.142625
-0.0185923
-0.285971
0.0112652
-0.367719
0.0420613
-0.466246
-0.107231
-0.0855272
-0.0963886
-0.094192
-0.0821404
-0.123772
-0.0674277
-0.132582
-0.0518268
-0.144112
-0.035169
-0.15653
-0.0185891
-0.159609
-0.0035187
-0.151641
0.0100046
-0.141585
0.0221352
-0.131514
0.0326285
-0.118639
0.0417256
-0.107041
0.0498604
-0.0981328
0.057261
-0.0903288
0.0641509
-0.0842568
0.0707734
-0.0797829
0.0772545
-0.0762775
0.0837029
-0.0737267
0.0902021
-0.0719882
0.0967868
-0.0708336
0.103488
-0.0701731
0.110324
-0.069813
0.117303
-0.0694807
0.124334
-0.0680386
0.131249
-0.0651983
0.137965
-0.0621964
0.144475
-0.0593715
0.150793
-0.0568574
0.156929
-0.0547094
0.162943
-0.0531202
0.168892
-0.0522924
0.17488
-0.0525872
0.181065
-0.0544122
0.187662
-0.0586387
0.195014
-0.0661664
0.203716
-0.0806473
0.214519
-0.103119
0.229078
-0.164177
0.248092
-0.253898
-0.120889
0.131345
-0.0896509
0.141412
-0.0846864
0.152153
-0.0838128
0.160821
-0.0643271
0.168577
-0.0520954
0.175328
-0.0371191
0.180679
-0.0194554
0.184916
-0.00273046
0.1881
0.0149017
0.19044
0.0322455
0.192027
0.0504674
0.193034
0.0696059
0.193622
0.0898837
0.193715
0.112424
0.193319
0.13706
0.193837
0.164555
0.197187
0.198329
0.197419
0.240139
0.17851
0.274941
0.132319
0.270322
0.0732475
0.213168
0.0248427
0.130528
-0.0030679
0.0641383
-0.0167671
0.029858
-0.0245696
0.0165549
-0.0301785
0.0108776
-0.0350695
0.00798994
-0.0400506
0.0076371
-0.0456394
0.0108969
-0.0520021
0.0187642
-0.058829
0.0305167
-0.0653607
0.0413429
-0.0700667
0.0410832
-0.0707808
0.0142492
-0.0654423
-0.0524024
-0.0511966
-0.156882
-0.0250772
-0.312076
0.00440961
-0.39723
0.0311097
-0.49309
-0.109992
-0.096425
-0.0984767
-0.105707
-0.0832099
-0.139041
-0.0675364
-0.148255
-0.0508882
-0.16076
-0.0331455
-0.174274
-0.0156032
-0.177152
0.000365163
-0.167611
0.0146097
-0.155831
0.0273364
-0.144242
0.038262
-0.129566
0.0476583
-0.116438
0.0560154
-0.106491
0.0635124
-0.0978264
0.0704539
-0.0911991
0.0770874
-0.0864172
0.0835512
-0.0827421
0.0899799
-0.0801564
0.0964789
-0.0784883
0.103107
-0.077463
0.109886
-0.0769525
0.116848
-0.0767768
0.123989
-0.0766223
0.131241
-0.0752908
0.138409
-0.0723664
0.145396
-0.0691839
0.152193
-0.0661685
0.158805
-0.0634675
0.165257
-0.0611591
0.171588
-0.0594483
0.177862
-0.0585618
0.184187
-0.0589055
0.190705
-0.0609237
0.197651
-0.0655809
0.205359
-0.0738588
0.214418
-0.0896845
0.225581
-0.114311
0.240061
-0.17865
0.258547
-0.27239
-0.124756
0.135978
-0.100875
0.1468
-0.0955104
0.158379
-0.0953948
0.167714
-0.0736643
0.176061
-0.0604422
0.183365
-0.0444243
0.189186
-0.0252766
0.193759
-0.00730171
0.197251
0.0114101
0.199783
0.0297136
0.201555
0.0486955
0.202632
0.0685288
0.203231
0.0892854
0.2034
0.112255
0.202983
0.137476
0.20246
0.165079
0.203891
0.196898
0.207159
0.236871
0.200656
0.281443
0.167967
0.303011
0.11063
0.270504
0.0513762
0.189781
0.0106021
0.10491
-0.0105404
0.0509975
-0.0216858
0.0276976
-0.029037
0.0182261
-0.0350097
0.013961
-0.0408412
0.0134663
-0.0472666
0.0173176
-0.0545352
0.0260236
-0.0623291
0.0383083
-0.0698039
0.0487954
-0.0753046
0.0465587
-0.076571
0.0155006
-0.0714727
-0.0575478
-0.057244
-0.171151
-0.032074
-0.337287
-0.00331041
-0.42601
0.0189619
-0.515486
-0.113161
-0.10802
-0.100758
-0.118112
-0.0844874
-0.15531
-0.0677466
-0.164997
-0.0500482
-0.178459
-0.0311946
-0.193127
-0.0125219
-0.195826
0.00436895
-0.184503
0.0194383
-0.170902
0.0328179
-0.157622
0.044255
-0.141004
0.0540033
-0.126187
0.062595
-0.115083
0.0702426
-0.105475
0.0772421
-0.0981993
0.0839024
-0.0930782
0.090372
-0.0892125
0.0967946
-0.0865798
0.103298
-0.0849925
0.109951
-0.0841175
0.116796
-0.0837983
0.123858
-0.0838407
0.131166
-0.0839314
0.138627
-0.0827524
0.146035
-0.0797748
0.153288
-0.0764369
0.160372
-0.0732513
0.16729
-0.0703845
0.174056
-0.0679249
0.180711
-0.0661019
0.187315
-0.0651663
0.193974
-0.0655649
0.200843
-0.0677945
0.208143
-0.0728836
0.216218
-0.0819353
0.22562
-0.0990856
0.237115
-0.125813
0.251554
-0.193081
0.269407
-0.290264
-0.128978
0.141045
-0.112944
0.152631
-0.107098
0.165097
-0.107863
0.17511
-0.0836786
0.184098
-0.0694318
0.192043
-0.0523692
0.198293
-0.0315269
0.203273
-0.0122812
0.207119
0.0075652
0.209881
0.0269525
0.211771
0.0468053
0.212953
0.0673473
0.21349
0.0887482
0.21365
0.112095
0.213394
0.137732
0.21258
0.165892
0.212287
0.197191
0.214818
0.23434
0.215437
0.280825
0.197377
0.32107
0.149431
0.318451
0.085213
0.253999
0.0310276
0.159096
-0.000786531
0.0828118
-0.0170421
0.0439537
-0.0268613
0.0280463
-0.0341929
0.0212943
-0.0409406
0.0202131
-0.0481922
0.0245642
-0.0563622
0.0341891
-0.0651732
0.0471503
-0.0737077
0.0573493
-0.0801937
0.053092
-0.0822245
0.0176587
-0.0775901
-0.0622257
-0.0636279
-0.185123
-0.0396737
-0.361232
-0.0120661
-0.453627
0.0056622
-0.533321
-0.116571
-0.120428
-0.103406
-0.131277
-0.0859784
-0.17274
-0.0681379
-0.182837
-0.0492826
-0.197315
-0.0291962
-0.213215
-0.0093913
-0.215632
0.00854424
-0.202439
0.0244457
-0.186804
0.0385741
-0.171752
0.0505517
-0.152982
0.0607209
-0.136357
0.0696117
-0.123974
0.077437
-0.113301
0.0845597
-0.105323
0.0912606
-0.0997799
0.0977445
-0.0956972
0.104178
-0.0930145
0.110683
-0.0914977
0.117354
-0.0907902
0.124246
-0.0906905
0.131409
-0.0910048
0.138863
-0.0913864
0.146527
-0.0904182
0.154175
-0.0874228
0.161688
-0.0839506
0.169054
-0.080617
0.176268
-0.077598
0.183352
-0.0750065
0.190329
-0.0730768
0.197275
-0.0721072
0.204287
-0.0725705
0.211504
-0.0750038
0.219172
-0.0805434
0.22762
-0.090367
0.237361
-0.108805
0.249166
-0.137651
0.263487
-0.20739
0.280669
-0.307452
-0.133603
0.146526
-0.125868
0.158921
-0.119496
0.172298
-0.121243
0.183033
-0.0944154
0.192751
-0.0791503
0.201304
-0.0609239
0.208066
-0.0382873
0.213468
-0.0176821
0.217612
0.00342128
0.220589
0.0239767
0.222637
0.0447568
0.223914
0.0660701
0.224567
0.0880953
0.224633
0.112029
0.224332
0.138032
0.223547
0.166677
0.222405
0.198333
0.222924
0.23382
0.225753
0.277996
0.21935
0.327473
0.185461
0.352339
0.12409
0.315369
0.0593082
0.223877
0.0141993
0.127919
-0.0099339
0.0680847
-0.0233341
0.0414448
-0.0324923
0.0304511
-0.040306
0.0280252
-0.0483933
0.0326477
-0.0574535
0.0432433
-0.0673134
0.0570073
-0.0770166
0.0670344
-0.084663
0.060717
-0.0877055
0.0206878
-0.0838129
-0.0661577
-0.0704321
-0.19854
-0.0480291
-0.383681
-0.0220151
-0.479662
-0.00866533
-0.546757
-0.120303
-0.133729
-0.10623
-0.145352
-0.0876496
-0.191319
-0.0686319
-0.201856
-0.0485568
-0.217391
-0.0271787
-0.234593
-0.00612161
-0.23669
0.0128954
-0.221458
0.0297414
-0.203651
0.0446515
-0.186663
0.0572516
-0.165583
0.0678709
-0.146977
0.0770719
-0.133176
0.0851436
-0.121373
0.0923834
-0.112563
0.0991845
-0.106582
0.10569
-0.102204
0.112138
-0.0994633
0.118648
-0.0980082
0.12534
-0.0974833
0.132281
-0.097633
0.139524
-0.098249
0.14712
-0.0989832
0.154973
-0.0982725
0.162853
-0.0953035
0.170618
-0.0917159
0.178261
-0.08826
0.185774
-0.0851104
0.193174
-0.0824058
0.200487
-0.0803892
0.207776
-0.0793952
0.215133
-0.0799273
0.222723
-0.082594
0.230753
-0.0885746
0.239575
-0.0991875
0.249649
-0.118877
0.261733
-0.149743
0.275931
-0.221583
0.292418
-0.323954
-0.138543
0.152334
-0.13966
0.16563
-0.132793
0.180005
-0.135621
0.191525
-0.105936
0.201977
-0.0896053
0.211154
-0.0701002
0.218478
-0.0456115
0.224329
-0.0235322
0.228779
-0.0010274
0.232017
0.0207396
0.234303
0.0424708
0.235658
0.0647144
0.23633
0.087423
0.236387
0.111972
0.235961
0.138458
0.235183
0.167455
0.233816
0.1997
0.232761
0.234875
0.234485
0.276271
0.234784
0.327175
0.215624
0.371499
0.164333
0.366659
0.0949911
0.293219
0.0361983
0.186712
0.000907202
0.103376
-0.0179491
0.0603014
-0.0296915
0.0421948
-0.0388407
0.0371747
-0.0478247
0.0416303
-0.0577743
0.0531926
-0.0687
0.0679613
-0.0796554
0.0780111
-0.0886411
0.0697561
-0.0929567
0.0251165
-0.0901404
-0.0689956
-0.0777307
-0.210965
-0.0572538
-0.404151
-0.0332611
-0.503641
-0.0239263
-0.556152
-0.124338
-0.147935
-0.10934
-0.16035
-0.0895213
-0.211139
-0.0692286
-0.222148
-0.0478758
-0.238744
-0.0251496
-0.257322
-0.00272227
-0.259118
0.0174332
-0.241614
0.0352971
-0.221516
0.0510416
-0.202408
0.0642993
-0.178841
0.0754136
-0.158091
0.0850178
-0.142781
0.0933325
-0.129688
0.100762
-0.119993
0.107659
-0.11348
0.114237
-0.108783
0.120704
-0.105931
0.127232
-0.104537
0.133938
-0.10419
0.140915
-0.104611
0.148239
-0.105575
0.155966
-0.106711
0.164013
-0.106321
0.172103
-0.103394
0.18012
-0.0997335
0.188034
-0.0961743
0.195847
-0.0929232
0.203558
-0.0901154
0.211205
-0.0880338
0.218839
-0.0870254
0.226562
-0.0876445
0.234513
-0.090536
0.24291
-0.096963
0.252108
-0.108365
0.262502
-0.129254
0.274843
-0.162116
0.288884
-0.235609
0.304568
-0.339646
-0.143886
0.158633
-0.154409
0.172879
-0.147043
0.188212
-0.150956
0.20064
-0.118367
0.211781
-0.100747
0.221709
-0.0800288
0.229565
-0.0534668
0.235886
-0.0298523
0.240726
-0.00586653
0.244257
0.0172091
0.246642
0.0400863
0.248162
0.0631934
0.248838
0.0867466
0.24888
0.111931
0.248411
0.138926
0.24747
0.168396
0.246125
0.201045
0.244308
0.236693
0.24408
0.276499
0.246237
0.325018
0.238819
0.378917
0.202181
0.403297
0.136009
0.359391
0.06644
0.25628
0.0172806
0.152534
-0.0099428
0.0875232
-0.0254526
0.0577034
-0.0363947
0.0481151
-0.0464038
0.0516361
-0.0572581
0.0640425
-0.0692654
0.0799645
-0.0815409
0.0902723
-0.0920256
0.0802244
-0.0978927
0.0309732
-0.0965297
-0.0703858
-0.0855894
-0.221931
-0.0674802
-0.42231
-0.0459237
-0.52522
-0.040252
-0.561876
-0.128724
-0.163097
-0.112717
-0.176358
-0.0915566
-0.232298
-0.0699645
-0.243742
-0.0472148
-0.261495
-0.0230433
-0.281493
0.000755957
-0.282919
0.0222048
-0.263064
0.0411158
-0.240428
0.0577864
-0.21908
0.0717652
-0.192821
0.0834411
-0.169768
0.0934534
-0.152794
0.102077
-0.138313
0.109706
-0.127622
0.116735
-0.120509
0.123399
-0.115448
0.129903
-0.112436
0.136449
-0.111083
0.143183
-0.110925
0.150202
-0.111632
0.157595
-0.112969
0.165447
-0.114565
0.173669
-0.114544
0.181979
-0.111705
0.190234
-0.107989
0.198411
-0.104353
0.206509
-0.101021
0.214539
-0.0981442
0.222513
-0.0960073
0.2305
-0.0950121
0.238577
-0.0957202
0.246905
-0.0988642
0.255684
-0.105741
0.265235
-0.117912
0.275958
-0.139973
0.288503
-0.174669
0.302406
-0.249508
0.317305
-0.354558
-0.149581
0.165339
-0.170169
0.180521
-0.162227
0.197022
-0.167461
0.210229
-0.131575
0.222262
-0.112783
0.232891
-0.0906567
0.241414
-0.0619895
0.248181
-0.0366185
0.253419
-0.0111034
0.257213
0.013416
0.259869
0.0374303
0.261454
0.0616078
0.262252
0.0859478
0.262277
0.111906
0.261712
0.139491
0.260641
0.169467
0.259187
0.202498
0.257132
0.238747
0.255315
0.278316
0.256418
0.323916
0.255877
0.379457
0.234482
0.424692
0.178878
0.414994
0.104685
0.330472
0.0412089
0.21601