/*--------------------------------*- C++ -*----------------------------------*\
  =========                 |
  \\      /  F ield         | OpenFOAM: The Open Source CFD Toolbox
   \\    /   O peration     | Website:  https://openfoam.org
    \\  /    A nd           | Version:  9
     \\/     M anipulation  |
\*---------------------------------------------------------------------------*/
FoamFile
{
    format      ascii;
    class       volVectorField;
    location    "460";
    object      U;
}
// * * * * * * * * * * * * * * * * * * * * * * * * * * * * * * * * * * * * * //

dimensions      [0 1 -1 0 0 0 0];

internalField   nonuniform List<vector> 
10720
(
(-1.10274 13.6969 7.70128e-18)
(-0.352938 14.0631 -7.58928e-18)
(0.433627 14.2484 0)
(1.19251 14.003 -9.77286e-17)
(1.86516 13.3603 1.05889e-16)
(2.39197 12.2211 5.0018e-17)
(2.6703 10.5083 7.18444e-17)
(2.62167 8.26703 0)
(2.20301 5.63613 0)
(1.45516 2.94577 0)
(0.523348 0.685588 9.78958e-18)
(-0.472924 -0.503332 0)
(-1.06373 -0.717398 7.05193e-16)
(-1.33944 -0.798496 0)
(-1.4432 -0.801164 0)
(-1.46893 -0.746318 0)
(-1.42055 -0.639098 -1.00692e-15)
(-1.33842 -0.518698 -1.55684e-15)
(-1.21711 -0.405319 1.53699e-15)
(-1.05504 -0.306461 0)
(-0.854443 -0.224286 1.72925e-15)
(-0.629163 -0.160951 -3.9843e-15)
(-0.392515 -0.114541 2.40313e-15)
(-0.153363 -0.0814038 -8.47634e-17)
(0.0848237 -0.059228 0)
(0.321415 -0.0462558 1.23797e-15)
(0.574391 -0.0445279 1.49308e-17)
(0.859844 -0.0566009 -4.16676e-16)
(1.17299 -0.0826389 -1.48517e-15)
(1.48433 -0.119051 -5.56962e-15)
(1.74493 -0.158567 2.76704e-15)
(1.86448 -0.186836 5.93053e-15)
(1.77987 -0.197773 6.09957e-15)
(1.55476 -0.191474 2.66867e-14)
(1.14833 -0.159946 -1.50168e-14)
(2.49644 -0.544395 -7.49758e-17)
(2.89028 -0.573127 1.08119e-16)
(6.75658 -1.44969 3.30535e-14)
(8.24981 -2.67471 -4.44544e-14)
(-1.80465 13.1753 2.64808e-18)
(-2.48718 12.4589 3.53882e-18)
(-3.12083 11.5487 -1.02093e-18)
(-3.62827 10.3179 -2.07013e-17)
(-3.93497 8.93942 -4.72736e-17)
(-3.98392 7.43423 1.16036e-16)
(-3.74174 5.88525 5.67508e-16)
(-3.21376 4.40818 2.98293e-16)
(-2.4642 3.10832 0)
(-1.57867 2.02965 0)
(-0.637294 1.17716 1.98438e-15)
(0.263578 0.533432 1.50749e-15)
(1.10325 0.0107102 -2.41423e-15)
(1.94106 -0.421716 1.61298e-15)
(2.75115 -0.741779 2.37298e-15)
(3.48476 -0.95042 1.4102e-15)
(4.13975 -1.08069 1.74436e-15)
(4.74169 -1.16323 1.13466e-15)
(5.31183 -1.21435 0)
(5.85878 -1.23861 0)
(6.38787 -1.23904 -1.58356e-15)
(6.90513 -1.21477 -7.87884e-17)
(7.41535 -1.1621 1.17783e-15)
(7.91212 -1.07016 -9.0122e-16)
(8.37408 -0.935439 7.50466e-18)
(8.79319 -0.76997 0)
(9.17664 -0.583171 2.15693e-16)
(9.53027 -0.381282 0)
(9.85757 -0.168593 0)
(10.1617 0.0508823 4.71426e-17)
(10.4491 0.273835 0)
(10.7267 0.4976 2.0435e-16)
(11.0066 0.721215 7.381e-16)
(11.2995 0.94444 5.51755e-15)
(11.6406 1.17299 -2.92699e-15)
(12.0324 1.41076 1.2622e-17)
(12.6352 1.69058 0)
(13.3721 2.05274 -1.14401e-14)
(15.4465 2.46257 -1.43934e-14)
(2.06765 12.2876 -1.76488e-18)
(2.84003 12.6605 8.21021e-19)
(3.67856 12.944 0)
(4.51198 13.197 0)
(5.21761 13.4028 -2.13018e-17)
(5.74813 13.5638 -3.75719e-17)
(6.05678 13.5664 0)
(6.10318 13.2164 0)
(5.83489 12.221 2.37245e-17)
(5.18305 10.3323 0)
(4.10884 7.57321 1.35408e-16)
(2.62756 4.40653 0)
(1.02727 1.65356 1.21779e-16)
(-0.229795 0.116059 -1.97826e-16)
(-0.85773 -0.40755 4.08624e-16)
(-1.2006 -0.631247 -7.7132e-16)
(-1.38472 -0.682619 7.57016e-16)
(-1.4583 -0.636808 7.54275e-16)
(-1.43935 -0.544666 7.8006e-16)
(-1.34293 -0.444336 5.10396e-17)
(-1.19329 -0.349569 -9.01816e-16)
(-1.01835 -0.268678 9.18343e-16)
(-0.836273 -0.202937 -5.34223e-17)
(-0.653092 -0.15141 0)
(-0.471209 -0.113836 0)
(-0.284082 -0.0882617 0)
(-0.0753044 -0.0756098 4.98169e-17)
(0.163798 -0.0761013 -1.26014e-17)
(0.423275 -0.0862143 7.22647e-16)
(0.673762 -0.0992167 -1.37856e-18)
(0.863996 -0.106281 5.04959e-19)
(0.910547 -0.095176 -2.37784e-17)
(0.793912 -0.070565 2.70125e-15)
(0.489874 -0.0325873 -5.53152e-15)
(0.142264 -0.0370024 -5.0057e-17)
(1.34177 -0.416064 -8.48389e-15)
(1.62661 -0.434919 0)
(6.04412 -1.57313 -7.36709e-15)
(7.25245 -1.95108 -2.02262e-14)
(1.33493 11.8359 2.32405e-18)
(0.631604 11.2835 -9.93857e-18)
(-0.104855 10.5788 -1.14793e-16)
(-0.782376 9.69478 1.10554e-16)
(-1.33534 8.63463 0)
(-1.70873 7.43126 -2.78682e-16)
(-1.85433 6.13923 -1.88424e-16)
(-1.74268 4.85036 -1.32593e-15)
(-1.39135 3.65241 5.48154e-16)
(-0.853368 2.59973 -7.62582e-16)
(-0.194186 1.71875 1.52753e-15)
(0.524388 1.00451 -6.56163e-16)
(1.26541 0.421498 0)
(2.02022 -0.0360253 -4.94778e-16)
(2.76183 -0.356226 6.84332e-18)
(3.45469 -0.565637 -1.04634e-15)
(4.09325 -0.707984 0)
(4.69314 -0.810004 0)
(5.26843 -0.880732 -1.0793e-16)
(5.82573 -0.920327 9.99504e-17)
(6.36848 -0.930994 -1.2373e-15)
(6.90179 -0.911011 -1.39395e-16)
(7.42924 -0.855714 6.19143e-17)
(7.94608 -0.752751 7.70047e-16)
(8.43495 -0.604184 -6.32185e-16)
(8.88618 -0.431031 -4.77552e-16)
(9.30413 -0.243579 0)
(9.69353 -0.0463011 0)
(10.057 0.158351 0)
(10.3979 0.367166 3.27015e-18)
(10.7217 0.577833 0)
(11.0352 0.788492 0)
(11.3499 0.999193 -1.22295e-15)
(11.6762 1.21129 -1.82885e-15)
(12.0491 1.43184 2.41923e-15)
(12.4669 1.6681 -3.02765e-15)
(13.1033 1.96257 7.34343e-15)
(13.8096 2.32108 9.03549e-15)
(16.0018 3.15854 1.05718e-14)
(1.49514 11.3184 -4.90656e-19)
(2.00841 11.6448 -4.3779e-18)
(2.58892 11.8962 3.60219e-18)
(3.18407 12.0746 3.26343e-18)
(3.77972 12.179 -9.90789e-18)
(4.39987 12.279 3.19105e-17)
(5.00756 12.4636 -2.11188e-17)
(5.55864 12.7681 -1.07552e-17)
(6.01688 13.0636 -2.58365e-18)
(6.27534 12.9481 -1.73149e-17)
(6.13369 11.8919 2.42544e-18)
(5.3524 9.60025 -5.4206e-17)
(3.87428 6.37435 -3.37615e-17)
(2.01137 3.15949 0)
(0.420118 0.987573 -2.24248e-16)
(-0.512841 0.0247071 5.88352e-16)
(-1.04903 -0.401644 0)
(-1.35831 -0.552879 -1.07564e-15)
(-1.50195 -0.570841 -5.38797e-16)
(-1.50523 -0.522799 6.78565e-17)
(-1.41739 -0.444392 -6.8733e-17)
(-1.2886 -0.35937 -3.44346e-17)
(-1.15151 -0.28118 -4.92429e-16)
(-1.01628 -0.215636 2.49496e-16)
(-0.88239 -0.165482 0)
(-0.742437 -0.130152 2.23511e-16)
(-0.582018 -0.108721 -2.64493e-17)
(-0.393273 -0.0981987 0)
(-0.185461 -0.0918836 4.00222e-16)
(0.0100423 -0.0805986 8.24391e-16)
(0.138016 -0.0541477 -1.68646e-15)
(0.113671 -0.00330578 -1.6559e-15)
(-0.0765322 0.061385 -2.46503e-17)
(-0.408367 0.113983 -3.06741e-15)
(-0.611872 0.0543257 -3.26094e-15)
(0.411934 -0.327213 5.04302e-15)
(0.7444 -0.392387 0)
(5.32153 -1.6267 -4.47198e-15)
(6.11575 -1.91817 2.41456e-14)
(1.03576 10.9266 -4.69072e-18)
(0.594048 10.442 -1.39852e-17)
(0.163517 9.8108 4.4023e-17)
(-0.249242 9.04813 0)
(-0.58308 8.16402 9.73388e-17)
(-0.807139 7.1709 0)
(-0.890172 6.10247 5.90491e-16)
(-0.809274 5.01987 3.54671e-16)
(-0.562574 3.98133 4.4297e-16)
(-0.169522 3.02796 0)
(0.333216 2.18798 -1.44656e-15)
(0.908372 1.47515 -4.29234e-16)
(1.53057 0.87977 2.05293e-15)
(2.18674 0.400468 0)
(2.84777 0.0409356 -9.56965e-16)
(3.48365 -0.221395 -2.82599e-16)
(4.08533 -0.417454 1.20599e-15)
(4.65996 -0.566103 6.3315e-16)
(5.21651 -0.674426 1.81139e-16)
(5.75985 -0.745062 -9.11966e-17)
(6.29247 -0.781817 1.05513e-15)
(6.81784 -0.78516 0)
(7.33844 -0.751939 0)
(7.85033 -0.674273 5.24925e-18)
(8.33945 -0.554643 0)
(8.79679 -0.408206 9.02463e-16)
(9.22511 -0.242395 -1.21173e-17)
(9.62872 -0.0607566 -6.30703e-17)
(10.0103 0.133834 0)
(10.373 0.337508 -3.95512e-17)
(10.7223 0.547658 6.76302e-18)
(11.0647 0.761997 0)
(11.4111 0.980226 5.67271e-16)
(11.7712 1.20343 0)
(12.1791 1.43861 0)
(12.6297 1.69417 2.11619e-17)
(13.3009 2.00937 -7.78337e-17)
(13.9952 2.42558 -8.52951e-15)
(16.1326 3.31419 -2.06982e-14)
(2.49123 10.4951 -5.22056e-18)
(2.9517 10.806 -8.48597e-18)
(3.4546 11.0665 1.34924e-17)
(3.97792 11.2743 1.7401e-17)
(4.48752 11.4118 0)
(4.94335 11.4892 0)
(5.3307 11.5457 1.21854e-17)
(5.66504 11.6632 9.1382e-18)
(5.99032 11.9627 0)
(6.34583 12.4433 -5.66798e-18)
(6.66933 12.7685 -2.74944e-17)
(6.69889 12.2809 -2.00017e-17)
(6.06264 10.4071 4.47105e-17)
(4.55977 7.26103 5.13751e-17)
(2.52665 3.86753 0)
(0.725029 1.43408 2.09677e-16)
(-0.391808 0.247827 9.65925e-17)
(-1.02407 -0.26149 8.00619e-16)
(-1.38463 -0.471222 5.1078e-17)
(-1.53763 -0.529613 -4.97479e-17)
(-1.54273 -0.499417 4.53764e-16)
(-1.4742 -0.426366 -7.52099e-17)
(-1.38501 -0.343363 4.09329e-16)
(-1.29552 -0.268465 1.80874e-16)
(-1.20643 -0.209382 -1.09279e-17)
(-1.11074 -0.166594 -1.49085e-16)
(-0.996388 -0.137981 1.21731e-18)
(-0.8579 -0.117998 -1.05461e-18)
(-0.705159 -0.0966561 -2.77384e-16)
(-0.569531 -0.0619117 -9.39068e-18)
(-0.506641 -0.00213916 6.1115e-16)
(-0.59506 0.0873593 -1.20308e-15)
(-0.83118 0.184886 -1.07695e-15)
(-1.14713 0.23681 -1.6177e-17)
(-1.24897 0.124827 2.19802e-15)
(-0.370237 -0.261818 0)
(0.0873761 -0.429431 4.68991e-15)
(4.61808 -1.6873 3.15196e-15)
(5.11109 -1.9525 -8.48728e-15)
(2.06232 10.146 -8.84778e-18)
(1.63731 9.73226 2.54362e-17)
(1.20974 9.20809 9.59795e-17)
(0.797854 8.57009 0)
(0.453044 7.82297 -9.0164e-17)
(0.200174 6.97673 0)
(0.066188 6.05702 -5.36403e-16)
(0.0705265 5.11508 -1.49041e-17)
(0.21646 4.19665 3.82382e-16)
(0.492366 3.33327 4.84578e-16)
(0.872881 2.55028 1.74739e-17)
(1.32956 1.86486 1.30109e-15)
(1.84388 1.2736 -9.40664e-16)
(2.40511 0.779839 2.84946e-16)
(2.98711 0.389837 1.0097e-15)
(3.56509 0.089869 1.12962e-15)
(4.12736 -0.140924 -1.0261e-15)
(4.67422 -0.318418 -4.02343e-18)
(5.20986 -0.451037 0)
(5.73706 -0.543283 1.12592e-15)
(6.25709 -0.598816 5.86664e-17)
(6.77187 -0.618723 -8.99402e-16)
(7.28281 -0.600952 0)
(7.78622 -0.53996 4.07792e-18)
(8.27017 -0.437064 0)
(8.72579 -0.304323 -3.93584e-16)
(9.15433 -0.14973 0)
(9.55945 0.0222398 5.6342e-17)
(9.94371 0.208142 -1.61952e-18)
(10.3103 0.404027 8.69702e-19)
(10.6647 0.607435 -6.7315e-18)
(11.0133 0.816236 7.26162e-19)
(11.3671 1.03033 0)
(11.7355 1.25121 -7.1844e-16)
(12.1523 1.48617 -1.31633e-17)
(12.6114 1.74515 2.53212e-15)
(13.2885 2.06706 -1.24748e-14)
(13.9745 2.51507 -2.45531e-17)
(15.9992 3.40307 0)
(2.73276 9.89643 -8.67646e-18)
(3.08214 10.1951 -8.43501e-18)
(3.47425 10.4644 2.99778e-17)
(3.88752 10.7028 -9.4769e-17)
(4.29563 10.8863 2.1125e-17)
(4.70768 11.02 3.32802e-17)
(5.10924 11.1112 -1.02812e-17)
(5.48089 11.1745 0)
(5.82177 11.2707 -2.2776e-17)
(6.1582 11.5256 8.82306e-18)
(6.53904 12.0241 0)
(6.9328 12.5212 1.82631e-17)
(7.06944 12.2865 -1.19968e-17)
(6.46699 10.5681 2.7357e-17)
(4.86073 7.42235 0)
(2.66032 3.98084 -1.49392e-16)
(0.74545 1.52929 2.21771e-16)
(-0.425968 0.326224 -8.1159e-18)
(-1.08313 -0.208383 0)
(-1.43191 -0.440417 3.61296e-16)
(-1.56697 -0.500349 -3.57359e-16)
(-1.57892 -0.461715 -1.99362e-17)
(-1.54622 -0.384484 -3.06836e-16)
(-1.50478 -0.305724 -2.74138e-16)
(-1.46037 -0.241331 0)
(-1.40836 -0.193617 0)
(-1.34008 -0.159667 -2.9699e-17)
(-1.25297 -0.131591 -3.73152e-18)
(-1.15816 -0.0962792 2.24344e-16)
(-1.08592 -0.038853 -7.50254e-18)
(-1.08861 0.0531413 6.83363e-18)
(-1.2329 0.177583 9.28637e-16)
(-1.49181 0.298486 0)
(-1.77233 0.339889 3.5059e-15)
(-1.80578 0.181547 -1.25036e-17)
(-1.02418 -0.221087 0)
(-0.438197 -0.508837 2.14551e-17)
(3.93174 -1.75047 0)
(4.24096 -2.01252 6.76939e-15)
(2.41166 9.56888 1.32198e-17)
(2.09606 9.19039 -6.19321e-17)
(1.77451 8.71595 6.85589e-17)
(1.45341 8.14999 9.17593e-17)
(1.17724 7.49862 -3.5256e-16)
(0.963927 6.76406 -4.296e-16)
(0.83659 5.9636 4.81217e-16)
(0.814604 5.13893 -5.89971e-16)
(0.90495 4.32572 -3.56581e-16)
(1.10318 3.54739 -4.16413e-16)
(1.39335 2.82615 9.96174e-16)
(1.75597 2.17848 -1.08722e-15)
(2.1804 1.60533 -4.97517e-16)
(2.6583 1.11309 4.69267e-16)
(3.16739 0.709485 -1.0722e-15)
(3.68809 0.386101 1.88674e-16)
(4.20798 0.129172 0)
(4.7232 -0.0735414 -7.90424e-16)
(5.23423 -0.22962 2.82667e-16)
(5.74191 -0.343656 -1.1297e-15)
(6.24641 -0.41879 0)
(6.74832 -0.456313 7.5369e-16)
(7.24794 -0.455021 6.0501e-16)
(7.74165 -0.411401 -5.02147e-16)
(8.219 -0.326406 0)
(8.67137 -0.209667 -3.62016e-16)
(9.09867 -0.0691994 0)
(9.50375 0.0905151 0)
(9.88887 0.265997 0)
(10.257 0.453434 3.69764e-17)
(10.6134 0.650277 0)
(10.9643 0.854425 0)
(11.3204 1.0657 4.15068e-16)
(11.691 1.28581 6.52914e-16)
(12.1094 1.52205 0)
(12.569 1.78628 2.22742e-15)
(13.2421 2.11582 4.25109e-17)
(13.9151 2.59357 0)
(15.8329 3.49333 7.37258e-15)
(3.20052 9.37458 1.40782e-17)
(3.50531 9.65796 -1.10665e-17)
(3.84616 9.92125 0)
(4.20664 10.1627 -1.50639e-18)
(4.56728 10.3622 8.34407e-17)
(4.92485 10.5279 -3.28722e-17)
(5.25718 10.6719 7.85799e-18)
(5.55965 10.7959 7.40725e-17)
(5.83978 10.9032 -1.5711e-17)
(6.10898 11.0233 -2.82107e-17)
(6.39832 11.2686 5.48345e-18)
(6.76685 11.7715 -2.84411e-18)
(7.19378 12.3274 -1.59459e-18)
(7.35208 12.1371 -1.20102e-17)
(6.65678 10.3508 0)
(4.8456 7.10874 -2.17403e-17)
(2.49119 3.70851 -6.79272e-17)
(0.568058 1.4053 -3.91003e-16)
(-0.561717 0.288532 1.55605e-16)
(-1.17745 -0.225512 -2.00688e-16)
(-1.48166 -0.430141 -3.2725e-17)
(-1.59845 -0.456895 0)
(-1.63308 -0.40006 2.39066e-16)
(-1.64477 -0.324528 1.5056e-17)
(-1.64775 -0.259237 -7.4526e-18)
(-1.64029 -0.209621 -9.81219e-17)
(-1.61863 -0.172207 2.2363e-17)
(-1.58374 -0.137184 4.82052e-17)
(-1.54821 -0.0888051 -1.89497e-16)
(-1.5405 -0.00973923 -1.28591e-17)
(-1.60655 0.112139 4.26298e-16)
(-1.7958 0.265878 7.73841e-16)
(-2.06162 0.400779 0)
(-2.30375 0.425295 1.43325e-17)
(-2.2906 0.225 -1.45979e-15)
(-1.56381 -0.205371 0)
(-0.884057 -0.612747 -5.66603e-15)
(3.27019 -1.81501 0)
(3.49054 -2.09774 -5.61336e-15)
(2.91844 9.07195 -1.26495e-17)
(2.6409 8.7297 3.09428e-17)
(2.35685 8.30505 0)
(2.07316 7.80084 0)
(1.82742 7.22332 1.63076e-16)
(1.63211 6.57323 7.71848e-16)
(1.5062 5.86355 0)
(1.46613 5.13057 -5.27675e-16)
(1.51863 4.40356 -6.23019e-16)
(1.66177 3.6997 7.55426e-16)
(1.88355 3.03871 -2.18262e-17)
(2.1726 2.43232 4.30198e-16)
(2.52508 1.88458 3.17328e-18)
(2.93163 1.40442 1.18063e-15)
(3.37514 0.99827 1.09437e-15)
(3.84081 0.661613 -1.03267e-15)
(4.31718 0.386201 1.52164e-16)
(4.79832 0.163567 -2.82217e-16)
(5.28219 -0.0122584 1.30574e-16)
(5.76798 -0.145222 7.88832e-16)
(6.25478 -0.238051 1.02981e-16)
(6.74206 -0.292096 -8.16126e-17)
(7.22911 -0.306624 -5.0813e-16)
(7.71218 -0.279387 0)
(8.18192 -0.211293 2.37191e-17)
(8.62999 -0.110001 6.42103e-16)
(9.05514 0.0169505 -3.60931e-18)
(9.45937 0.165039 3.48528e-18)
(9.84459 0.330677 0)
(10.2135 0.510005 -3.37605e-17)
(10.5711 0.700364 0)
(10.9233 0.899717 0)
(11.2806 1.10785 -3.69897e-16)
(11.652 1.3268 -5.80065e-16)
(12.0703 1.56378 0)
(12.5286 1.83288 -2.00888e-15)
(13.1948 2.16923 9.82373e-15)
(13.8537 2.67552 -3.78796e-17)
(15.6654 3.58581 -6.46363e-15)
(3.52919 8.96009 2.12751e-18)
(3.78201 9.23297 -1.14357e-17)
(4.06778 9.49461 3.51312e-17)
(4.37132 9.7437 -3.58284e-17)
(4.67612 9.95896 -5.2559e-17)
(4.98571 10.1463 0)
(5.29166 10.312 8.42303e-17)
(5.5836 10.461 7.95547e-18)
(5.85943 10.6012 1.02686e-17)
(6.11893 10.7304 2.17012e-17)
(6.36838 10.8646 0)
(6.64143 11.1185 1.41834e-17)
(7.01491 11.6436 -6.58712e-18)
(7.4635 12.2052 -2.92328e-17)
(7.5645 11.8871 0)
(6.64451 9.84708 -4.26673e-17)
(4.55446 6.46166 -7.26137e-17)
(2.10164 3.20374 1.23181e-16)
(0.275563 1.15269 -1.83212e-16)
(-0.741314 0.170447 2.20074e-16)
(-1.27661 -0.266721 2.83467e-17)
(-1.52915 -0.401474 -2.4719e-16)
(-1.64528 -0.385837 0)
(-1.71501 -0.322501 -2.21301e-16)
(-1.76827 -0.261177 1.22192e-17)
(-1.80783 -0.21302 9.52411e-17)
(-1.83364 -0.174446 0)
(-1.85083 -0.133858 -3.00377e-18)
(-1.87425 -0.0733738 8.0931e-18)
(-1.92991 0.0258943 3.37288e-16)
(-2.05563 0.174189 -3.55444e-16)
(-2.27912 0.350656 -6.79781e-16)
(-2.54408 0.491774 6.55388e-16)
(-2.75307 0.495356 2.39713e-18)
(-2.70801 0.255227 1.27097e-15)
(-2.01183 -0.21178 2.14731e-15)
(-1.27436 -0.733057 2.40406e-15)
(2.63872 -1.88246 -3.33231e-17)
(2.84057 -2.20545 1.42474e-17)
(3.29579 8.67359 6.4989e-18)
(3.06594 8.35575 6.39939e-17)
(2.82816 7.96502 7.32901e-17)
(2.58667 7.50577 -1.381e-16)
(2.37473 6.98477 -4.9199e-16)
(2.20175 6.40059 1.70957e-16)
(2.0841 5.76295 4.10321e-16)
(2.03663 5.10415 1.21883e-15)
(2.06549 4.44884 5.90205e-16)
(2.17021 3.80935 -6.7243e-16)
(2.34174 3.2026 -2.607e-17)
(2.57471 2.63824 -3.83204e-16)
(2.86894 2.12087 0)
(3.21511 1.65931 -1.60612e-17)
(3.60075 1.25876 -6.52989e-16)
(4.01515 0.917156 2.96024e-16)
(4.44853 0.63028 -2.83859e-16)
(4.89439 0.393068 0)
(5.34933 0.201329 4.56663e-16)
(5.81134 0.0519849 -8.23178e-16)
(6.27855 -0.056895 0)
(6.74953 -0.126436 6.29209e-16)
(7.22276 -0.156214 0)
(7.69426 -0.144829 -2.68174e-17)
(8.15546 -0.0930881 2.58355e-17)
(8.5982 -0.00712827 -3.00463e-16)
(9.02035 0.106294 -5.14767e-18)
(9.42311 0.2426 -3.27801e-18)
(9.80797 0.39816 7.60741e-19)
(10.1774 0.569137 -3.51455e-17)
(10.5358 0.752818 -1.64112e-17)
(10.889 0.947252 -6.3567e-17)
(11.2472 1.1522 -3.57768e-18)
(11.6192 1.37001 9.61396e-18)
(12.0369 1.60781 0)
(12.4932 1.88197 -3.28289e-17)
(13.1507 2.2253 -4.37077e-15)
(13.7951 2.75874 1.31535e-17)
(15.4993 3.67804 -5.69803e-15)
(3.86177 8.60775 2.98273e-18)
(4.08143 8.86966 2.24271e-17)
(4.33076 9.12557 0)
(4.59686 9.37357 -6.60687e-18)
(4.86528 9.59305 -6.63631e-17)
(5.14164 9.79139 0)
(5.41454 9.9721 5.44931e-17)
(5.67525 10.1394 -1.62135e-16)
(5.92507 10.3014 1.59639e-16)
(6.16565 10.4611 -5.1926e-17)
(6.39871 10.61 -3.0337e-17)
(6.62806 10.7629 -4.84384e-17)
(6.89237 11.0459 -1.88474e-17)
(7.28731 11.6124 8.34096e-18)
(7.74094 12.1144 5.52182e-18)
(7.68378 11.5021 3.05569e-17)
(6.41032 9.07662 5.47098e-17)
(4.02614 5.58471 7.41749e-17)
(1.5786 2.58303 -8.69163e-17)
(-0.0577701 0.837973 -3.79342e-16)
(-0.92756 0.0290937 0)
(-1.36558 -0.280762 2.3753e-18)
(-1.58423 -0.336278 1.85268e-16)
(-1.71886 -0.297583 1.93997e-16)
(-1.82413 -0.245835 -1.06655e-17)
(-1.91188 -0.202435 -8.35173e-17)
(-1.98618 -0.164979 6.59732e-19)
(-2.05502 -0.120571 -4.47951e-17)
(-2.13541 -0.049372 4.53193e-18)
(-2.25145 0.0681171 -6.15053e-16)
(-2.43183 0.238499 1.32542e-18)
(-2.68223 0.431074 -9.02667e-18)
(-2.94515 0.572154 -5.99556e-16)
(-3.12997 0.552091 2.83701e-18)
(-3.06446 0.272946 -1.15176e-15)
(-2.38969 -0.236815 -3.85091e-15)
(-1.62219 -0.864578 2.10432e-15)
(2.03934 -1.95295 1.55075e-15)
(2.26826 -2.32679 -4.62794e-15)
(3.65913 8.33663 -2.78608e-17)
(3.46003 8.04009 -9.13043e-17)
(3.25332 7.67806 -6.42302e-17)
(3.04235 7.25539 -1.42116e-16)
(2.8561 6.77934 2.96709e-16)
(2.70158 6.24754 -4.01433e-18)
(2.59268 5.66771 -1.14576e-15)
(2.54247 5.06926 -4.69539e-16)
(2.55611 4.47346 -4.72277e-18)
(2.63312 3.88998 0)
(2.76781 3.33126 -6.53462e-16)
(2.95896 2.8068 6.27389e-16)
(3.20618 2.32182 -6.1151e-16)
(3.5018 1.88252 -3.09761e-16)
(3.83711 1.49315 2.76332e-16)
(4.20472 1.1531 2.67841e-16)
(4.59679 0.860964 9.96053e-16)
(5.00729 0.614217 -2.35601e-16)
(5.43231 0.410388 -4.21078e-16)
(5.86913 0.247456 0)
(6.31522 0.124344 -6.6425e-16)
(6.76846 0.040392 -5.15036e-16)
(7.22666 -0.0039126 -6.84939e-18)
(7.68567 -0.00776643 -5.70281e-17)
(8.13737 0.0281858 -2.07486e-17)
(8.57381 0.0992019 3.13655e-16)
(8.99214 0.199201 -6.43435e-18)
(9.39276 0.323691 4.96871e-17)
(9.77677 0.469057 8.1742e-18)
(10.1462 0.631555 3.14666e-17)
(10.5053 0.808442 -2.7917e-18)
(10.8594 0.997844 1.23729e-16)
(11.2184 1.19954 2.86472e-16)
(11.5906 1.41617 4.79098e-16)
(12.0074 1.65482 2.05613e-17)
(12.4614 1.93407 -1.11381e-17)
(13.1088 2.28447 4.0226e-15)
(13.7381 2.84298 4.63118e-15)
(15.3345 3.76953 5.2021e-15)
(4.15671 8.31101 -1.15314e-17)
(4.34689 8.56366 -9.93933e-18)
(4.56416 8.8145 -7.26902e-17)
(4.79675 9.06173 2.81604e-16)
(5.03194 9.28429 -1.32642e-16)
(5.27623 9.49101 1.18058e-16)
(5.52161 9.68089 -1.98196e-16)
(5.76129 9.8577 0)
(5.99447 10.0287 -5.47066e-17)
(6.22093 10.1995 5.88136e-19)
(6.44324 10.3711 3.71664e-17)
(6.66243 10.5332 5.39094e-17)
(6.88026 10.7041 2.08038e-18)
(7.15232 11.0376 0)
(7.58759 11.6494 0)
(8.00356 11.9906 0)
(7.65431 10.9158 0)
(5.93285 8.06112 -5.59264e-17)
(3.31618 4.57701 8.30835e-17)
(1.00376 1.93181 1.23462e-16)
(-0.386225 0.525449 -1.37748e-16)
(-1.09171 -0.0684812 1.28069e-16)
(-1.44982 -0.242448 -1.34558e-16)
(-1.66095 -0.246784 -9.82482e-18)
(-1.82095 -0.212036 -4.99055e-18)
(-1.95648 -0.177084 7.94899e-17)
(-2.07841 -0.142852 1.8043e-17)
(-2.19792 -0.0961552 0)
(-2.33265 -0.0160871 0)
(-2.50491 0.116904 2.29431e-18)
(-2.73398 0.30457 0)
(-3.00838 0.5073 5.59438e-16)
(-3.27252 0.64336 -5.65058e-16)
(-3.4435 0.597678 -1.08368e-15)
(-3.36792 0.279492 2.09151e-15)
(-2.714 -0.277102 1.76156e-15)
(-1.93746 -1.00311 -1.8692e-15)
(1.47275 -2.02688 -2.89209e-15)
(1.74917 -2.45281 4.3386e-15)
(3.98152 8.05233 0)
(3.80949 7.7729 2.80123e-17)
(3.63002 7.43383 1.19538e-16)
(3.44553 7.04059 -5.10878e-16)
(3.28184 6.6009 4.13839e-16)
(3.14414 6.11172 -3.08689e-16)
(3.04467 5.5792 -5.60492e-18)
(2.99491 5.03054 3.94054e-16)
(2.99915 4.48457 4.82443e-16)
(3.05635 3.94941 0)
(3.16418 3.43369 2.77965e-16)
(3.3239 2.94661 -8.33907e-16)
(3.5333 2.49371 1.35398e-15)
(3.78694 2.07838 2.56019e-16)
(4.07898 1.70386 -5.14384e-16)
(4.40456 1.37036 -4.87399e-16)
(4.75783 1.07805 -4.56449e-16)
(5.13377 0.826217 0)
(5.52861 0.613882 0)
(5.93935 0.4402 0)
(6.36313 0.304905 6.19232e-16)
(6.79738 0.207981 0)
(7.23946 0.150041 -4.12427e-16)
(7.68503 0.131724 -5.33409e-17)
(8.12631 0.152597 -3.37545e-16)
(8.55546 0.209035 -2.75869e-16)
(8.96908 0.295717 0)
(9.36687 0.408365 -4.09181e-17)
(9.74947 0.543426 -8.43279e-18)
(10.1186 0.697278 1.37754e-18)
(10.478 0.867181 3.67641e-17)
(10.8327 1.0514 -5.03109e-18)
(11.1923 1.24972 -2.72575e-16)
(11.5648 1.4651 4.29716e-16)
(11.9802 1.70456 0)
(12.4315 1.98886 2.78625e-17)
(13.0676 2.34632 -6.82087e-17)
(13.6813 2.92756 -4.35185e-15)
(15.1698 3.86008 3.15468e-17)
(4.43347 8.05532 1.19001e-17)
(4.60077 8.29919 0)
(4.79283 8.54428 1.4688e-16)
(4.99911 8.78858 -1.41441e-16)
(5.20824 9.01087 6.15201e-17)
(5.42723 9.22116 -1.11453e-16)
(5.64924 9.41658 1.00731e-16)
(5.86758 9.5999 8.76439e-17)
(6.08164 9.77784 0)
(6.29118 9.95409 4.57529e-17)
(6.49868 10.1333 3.83786e-17)
(6.70799 10.3159 -3.58386e-17)
(6.91658 10.4868 -6.11021e-17)
(7.12876 10.6831 -5.93532e-18)
(7.4303 11.0922 1.36164e-17)
(7.91372 11.7182 -3.90922e-18)
(8.19971 11.7424 9.02506e-18)
(7.40719 10.07 1.71169e-17)
(5.20907 6.84491 -1.23001e-17)
(2.4971 3.531 2.17428e-17)
(0.438698 1.32725 7.96184e-17)
(-0.672418 0.285426 1.83512e-17)
(-1.23324 -0.0874261 -1.83662e-17)
(-1.5445 -0.164977 -1.2195e-16)
(-1.76486 -0.157913 0)
(-1.94815 -0.136221 -6.66366e-17)
(-2.11535 -0.107626 -3.27602e-17)
(-2.28253 -0.0599806 -3.24066e-17)
(-2.46849 0.0273529 -1.30971e-16)
(-2.69281 0.172546 5.41335e-16)
(-2.9645 0.37251 2.43984e-16)
(-3.26307 0.580248 4.61559e-18)
(-3.5344 0.707236 6.22115e-19)
(-3.70236 0.634247 0)
(-3.62602 0.276399 -9.71494e-16)
(-2.99581 -0.329684 0)
(-2.23006 -1.14493 0)
(0.939864 -2.10422 1.37842e-15)
(1.26091 -2.57508 -2.36474e-17)
(4.27967 7.80767 -3.70522e-17)
(4.12894 7.54296 1.07285e-16)
(3.9713 7.22332 2.54982e-19)
(3.80864 6.85468 1.15831e-16)
(3.664 6.44508 -3.91789e-16)
(3.54115 5.9912 2.88547e-16)
(3.45084 5.498 1.66259e-17)
(3.40333 4.99109 -3.60141e-16)
(3.40179 4.48754 -4.17335e-16)
(3.44556 3.9931 -4.66524e-16)
(3.53424 3.51568 -9.45497e-16)
(3.66953 3.06391 0)
(3.84849 2.64168 -4.84311e-16)
(4.06742 2.25065 -1.32718e-17)
(4.32248 1.89332 0)
(4.61079 1.56997 -4.28135e-16)
(4.92826 1.28161 -2.03753e-16)
(5.2711 1.02861 -1.94523e-16)
(5.6361 0.811155 6.9552e-16)
(6.02039 0.629469 6.32447e-16)
(6.42105 0.484163 -6.87293e-17)
(6.83532 0.375782 5.07157e-16)
(7.26028 0.305293 1.12214e-16)
(7.69153 0.273414 -4.99771e-17)
(8.12147 0.279933 2.99397e-16)
(8.54236 0.322216 1.78896e-17)
(8.95034 0.395768 0)
(9.34453 0.496596 0)
(9.7251 0.621269 -1.38875e-18)
(10.0934 0.76634 2.69108e-18)
(10.4527 0.929107 -4.10411e-17)
(10.8079 1.10796 -4.80095e-18)
(11.1678 1.30276 -2.50223e-16)
(11.5402 1.51678 -4.06395e-16)
(11.9541 1.757 -2.07242e-17)
(12.4023 2.04622 -6.81034e-18)
(13.0257 2.41066 -6.90628e-15)
(13.623 3.01215 3.97142e-15)
(15.0046 3.94856 -2.90616e-17)
(4.69029 7.83332 5.49672e-18)
(4.83823 8.06928 0)
(5.00893 8.30882 -7.11102e-17)
(5.1928 8.54975 0)
(5.37955 8.77076 1.17937e-16)
(5.57626 8.9826 -1.21505e-16)
(5.7773 9.18224 -1.08313e-16)
(5.97724 9.36878 -8.59437e-17)
(6.17517 9.55019 0)
(6.37002 9.72933 6.42993e-17)
(6.56356 9.90967 -3.2066e-17)
(6.75982 10.0973 5.71521e-17)
(6.96137 10.2876 2.04527e-17)
(7.16233 10.465 1.68495e-17)
(7.37966 10.7041 -8.07365e-18)
(7.73866 11.2056 3.86148e-18)
(8.2434 11.7517 -1.48556e-17)
(8.24766 11.2672 -1.96159e-17)
(6.8789 8.94051 0)
(4.27736 5.51145 1.56848e-17)
(1.64778 2.54655 -4.41195e-17)
(-0.0558124 0.849194 1.4408e-17)
(-0.912248 0.159842 -4.51127e-19)
(-1.36565 -0.0423178 2.70884e-16)
(-1.66003 -0.0804198 -1.51938e-17)
(-1.89349 -0.0785972 8.08341e-18)
(-2.10365 -0.0588784 2.9655e-17)
(-2.31405 -0.0119543 3.3841e-17)
(-2.5465 0.0812478 1.09676e-16)
(-2.81761 0.235707 -2.44376e-16)
(-3.12784 0.443253 -2.17173e-16)
(-3.4527 0.651537 -9.56664e-16)
(-3.73851 0.76604 9.49431e-16)
(-3.9138 0.66403 -1.38849e-17)
(-3.84418 0.265341 9.19094e-16)
(-3.24274 -0.392026 -4.03881e-17)
(-2.50367 -1.28785 2.06371e-17)
(0.435579 -2.18522 -3.09268e-17)
(0.785227 -2.68719 4.14262e-15)
(4.55454 7.59538 2.22195e-17)
(4.42177 7.34323 -5.19617e-17)
(4.28258 7.0401 1.00777e-16)
(4.13848 6.69227 0)
(4.01027 6.30806 2.39632e-16)
(3.90067 5.88391 0)
(3.81917 5.42398 0)
(3.775 4.95237 0)
(3.7698 4.48593 7.87758e-16)
(3.80439 4.02678 -4.15616e-16)
(3.88002 3.58275 4.40853e-16)
(3.99628 3.1634 0)
(4.15079 2.77001 0)
(4.34112 2.40288 -4.23368e-16)
(4.56477 2.06395 0)
(4.82034 1.75326 3.95767e-16)
(5.10524 1.4719 8.91215e-18)
(5.41693 1.22098 0)
(5.75295 1.00154 -4.92331e-16)
(6.11088 0.814542 -7.42667e-16)
(6.48799 0.661334 -5.24778e-16)
(6.88152 0.543122 -4.71328e-16)
(7.28856 0.461331 8.19016e-16)
(7.70468 0.416848 0)
(8.12238 0.409844 2.82314e-16)
(8.53402 0.438568 2.65926e-16)
(8.93545 0.499302 9.99461e-17)
(9.32521 0.58841 0)
(9.70307 0.702668 -6.70458e-18)
(10.07 0.83881 -3.19408e-17)
(10.4288 0.994274 4.23874e-17)
(10.784 1.16759 -4.58058e-18)
(11.144 1.3587 2.23159e-16)
(11.516 1.57122 -3.49688e-16)
(11.9279 1.8121 5.77063e-18)
(12.3726 2.10596 -1.78518e-17)
(12.9821 2.47731 6.43518e-15)
(13.5623 3.09605 -3.69579e-15)
(14.8387 4.03438 -7.81618e-15)
(4.93113 7.63852 4.61521e-18)
(5.06291 7.86714 -1.97267e-17)
(5.21573 8.10114 0)
(5.38085 8.33807 -1.30914e-16)
(5.54887 8.5568 0)
(5.72675 8.76832 0)
(5.9098 8.96994 3.78104e-18)
(6.0931 9.1578 -8.9947e-17)
(6.27593 9.34118 -1.50607e-16)
(6.45666 9.52219 -2.31564e-16)
(6.6369 9.70318 -9.4164e-17)
(6.81992 9.88936 -7.21369e-17)
(7.00934 10.0849 0)
(7.20645 10.2794 -4.9919e-17)
(7.40231 10.4665 1.25259e-17)
(7.64503 10.776 0)
(8.08413 11.3543 2.11218e-18)
(8.51749 11.6497 1.83448e-17)
(8.04368 10.4767 0)
(6.04609 7.56622 4.06454e-17)
(3.21029 4.17505 -6.25436e-17)
(0.857633 1.72509 0)
(-0.453161 0.547452 -1.41625e-17)
(-1.11117 0.13912 3.5945e-18)
(-1.50565 0.0258786 6.54422e-18)
(-1.79673 -0.00252215 1.06409e-16)
(-2.04921 0.00402826 -1.87463e-19)
(-2.29842 0.0480168 -3.55286e-18)
(-2.57082 0.145329 -4.02412e-18)
(-2.8822 0.306595 6.40855e-18)
(-3.22883 0.518303 2.16724e-16)
(-3.58306 0.723419 8.51395e-16)
(-3.8908 0.822179 1.20753e-17)
(-4.08253 0.68902 -8.89517e-16)
(-4.02664 0.247915 -8.06857e-16)
(-3.46113 -0.462005 -1.44492e-15)
(-2.76095 -1.42998 -1.56081e-15)
(-0.0474022 -2.27009 4.80476e-17)
(0.308766 -2.78202 -4.03741e-15)
(4.81041 7.40925 -4.45168e-17)
(4.69266 7.16815 -1.4443e-16)
(4.56907 6.87931 2.7525e-16)
(4.44088 6.54937 0)
(4.32687 6.18688 4.32218e-16)
(4.22908 5.78819 0)
(4.15599 5.35675 -2.66962e-16)
(4.11577 4.91529 1.21817e-15)
(4.1091 4.48045 -1.02431e-15)
(4.13772 4.05262 0)
(4.20375 3.63884 7.4864e-16)
(4.30508 3.24879 7.38226e-16)
(4.43995 2.88208 0)
(4.60673 2.53808 -7.34013e-16)
(4.80377 2.21804 1.80871e-16)
(5.03079 1.92149 -1.77944e-16)
(5.28641 1.64945 1.75306e-16)
(5.56918 1.40327 3.16627e-16)
(5.87752 1.18448 -6.80773e-18)
(6.20958 0.994653 3.96697e-16)
(6.56303 0.835732 1.25787e-16)
(6.93538 0.709484 -1.13422e-16)
(7.32386 0.617708 -3.84379e-16)
(7.72411 0.561711 3.30126e-16)
(8.12874 0.542106 -2.50341e-16)
(8.53022 0.5579 -2.67751e-16)
(8.92416 0.606175 -9.47645e-17)
(9.30866 0.683716 -9.90683e-19)
(9.68306 0.787556 7.33414e-18)
(10.0479 0.914696 3.03953e-17)
(10.4058 1.06271 2.13296e-18)
(10.7605 1.2303 -4.36077e-18)
(11.1202 1.41757 -2.04568e-16)
(11.4915 1.62841 3.55705e-16)
(11.9009 1.86982 -1.81539e-17)
(12.3414 2.168 1.26043e-15)
(12.936 2.54592 -3.04794e-15)
(13.4983 3.17903 0)
(14.6718 4.11744 7.51567e-15)
(5.1575 7.46617 9.7475e-18)
(5.27557 7.68799 0)
(5.41311 7.91662 0)
(5.56219 8.14937 2.42002e-16)
(5.71411 8.36524 -4.66619e-18)
(5.87565 8.5754 0)
(6.04282 8.77763 0)
(6.21113 8.96568 3.74233e-16)
(6.3804 9.14935 -6.65295e-18)
(6.54842 9.33073 -6.54441e-18)
(6.71638 9.51173 2.33189e-16)
(6.88741 9.69623 2.95039e-17)
(7.06398 9.88846 -5.77081e-17)
(7.25086 10.0908 -5.86725e-18)
(7.445 10.2862 0)
(7.64152 10.4967 0)
(7.94237 10.9063 3.58026e-18)
(8.4481 11.4771 -6.96833e-18)
(8.63074 11.2898 6.67101e-18)
(7.49883 9.339 -3.424e-17)
(4.94124 6.05024 9.41291e-17)
(2.12265 2.97514 6.63963e-17)
(0.204492 1.14489 -8.9561e-17)
(-0.760615 0.409292 -1.15061e-16)
(-1.29489 0.171134 1.82101e-17)
(-1.65907 0.0947123 -1.0189e-16)
(-1.95638 0.0815262 -1.20734e-17)
(-2.2405 0.119798 3.19404e-18)
(-2.54623 0.219239 -2.88367e-18)
(-2.8917 0.385199 1.32011e-17)
(-3.2724 0.59868 -5.51663e-19)
(-3.65855 0.797741 -4.08208e-16)
(-3.99495 0.877785 -1.38317e-17)
(-4.2115 0.711123 7.74173e-18)
(-4.17755 0.225835 0)
(-3.65656 -0.537482 1.33896e-15)
(-3.00494 -1.56939 1.46182e-15)
(-0.516998 -2.35946 0)
(-0.177095 -2.85188 0)
(5.04962 7.2448 0)
(4.94462 7.01348 1.34932e-16)
(4.83445 6.73721 -4.26662e-16)
(4.72005 6.42287 -1.85039e-16)
(4.61849 6.07923 -4.03531e-16)
(4.53123 5.70261 0)
(4.4661 5.29586 0)
(4.43008 4.88085 -5.67475e-16)
(4.42347 4.47308 6.29748e-16)
(4.44863 4.0728 0)
(4.50749 3.68646 -3.26738e-16)
(4.59709 3.32297 -3.45263e-16)
(4.71615 2.98088 3.3373e-16)
(4.86348 2.65885 3.43844e-16)
(5.03806 2.35751 -6.46946e-16)
(5.24032 2.07597 0)
(5.46983 1.81485 -1.50429e-16)
(5.72605 1.57554 5.06896e-18)
(6.00826 1.3597 6.71486e-16)
(6.3153 1.16929 -1.31213e-16)
(6.64536 1.0067 1.24742e-16)