/*--------------------------------*- C++ -*----------------------------------*\
  =========                 |
  \\      /  F ield         | OpenFOAM: The Open Source CFD Toolbox
   \\    /   O peration     | Website:  https://openfoam.org
    \\  /    A nd           | Version:  9
     \\/     M anipulation  |
\*---------------------------------------------------------------------------*/
FoamFile
{
    format      ascii;
    class       volScalarField;
    location    "0.03";
    object      nut;
}
// * * * * * * * * * * * * * * * * * * * * * * * * * * * * * * * * * * * * * //

dimensions      [0 2 -1 0 0 0 0];

internalField   nonuniform List<scalar> 
12225
(
4.04811e-05
3.83293e-05
3.62679e-05
3.44431e-05
3.29828e-05
3.19411e-05
3.13201e-05
3.1089e-05
3.11981e-05
3.15906e-05
3.22098e-05
3.30039e-05
3.39288e-05
3.4949e-05
3.60392e-05
3.71826e-05
3.83988e-05
4.02138e-05
0.000280949
0.000209194
0.000176165
0.000157299
0.000146095
0.00013949
0.000135585
0.000133222
0.000131715
0.000130673
0.000129883
0.000129229
0.000128656
0.000128138
0.000127676
0.000127247
0.000127003
0.000126353
0.000555754
0.000419419
0.000349187
0.000303958
0.000271476
0.000246783
0.000227304
0.000211555
0.000198627
0.000187918
0.000178992
0.000171509
0.000165199
0.000159836
0.000155235
0.00015121
0.000147641
0.000144009
0.000740156
0.000625405
0.000543418
0.000483996
0.000438409
0.000401868
0.000371567
0.000345765
0.000323376
0.000303703
0.000286273
0.000270738
0.000256822
0.000244285
0.000232904
0.000222435
0.000212643
0.000203056
0.000817009
0.000758897
0.000700012
0.000647676
0.00060255
0.000563708
0.000529978
0.000500294
0.000473819
0.000449932
0.000428172
0.000408189
0.000389702
0.000372469
0.000356262
0.00034083
0.000325907
0.000311214
0.000842081
0.00081957
0.000789606
0.000756985
0.000724528
0.00069363
0.000664815
0.000638129
0.000613417
0.000590459
0.000569031
0.000548921
0.00052993
0.00051187
0.000494546
0.000477745
0.000461239
0.000444971
0.000849256
0.000841759
0.00082958
0.000813833
0.000795838
0.000776726
0.000757312
0.000738096
0.000719354
0.000701218
0.000683726
0.000666862
0.000650573
0.00063478
0.000619378
0.00060424
0.000589223
0.000574432
0.000851121
0.00084873
0.000844407
0.000838057
0.000829895
0.000820293
0.000809655
0.000798335
0.000786611
0.000774687
0.000762702
0.000750743
0.000738854
0.000727046
0.0007153
0.000703571
0.000691806
0.000680175
0.000851563
0.000850661
0.000849139
0.000846802
0.000843566
0.000839444
0.000834519
0.000828909
0.000822738
0.000816124
0.000809167
0.000801947
0.000794523
0.000786934
0.000779201
0.000771324
0.000763301
0.000755297
0.000851656
0.000851135
0.000850457
0.000849526
0.000848263
0.000846617
0.000844566
0.000842115
0.000839285
0.000836109
0.000832624
0.000828866
0.000824868
0.000820656
0.000816251
0.000811663
0.000806905
0.000802097
0.000851672
0.000851235
0.000850776
0.000850261
0.000849657
0.000848929
0.000848054
0.000847011
0.000845793
0.000844397
0.000842826
0.000841087
0.000839188
0.00083714
0.000834951
0.000832626
0.000830175
0.00082767
0.000851674
0.000851251
0.000850837
0.000850422
0.000849992
0.000849533
0.000849031
0.000848473
0.00084785
0.000847154
0.000846383
0.000845533
0.000844607
0.000843605
0.000842529
0.000841382
0.000840168
0.000838928
0.000851673
0.000851251
0.000850848
0.000850459
0.000850079
0.000849703
0.000849327
0.000848945
0.000848551
0.000848142
0.000847716
0.00084727
0.000846804
0.000846318
0.000845812
0.000845288
0.000844748
0.000844213
0.000851671
0.000851249
0.000850847
0.000850463
0.000850096
0.000849743
0.000849404
0.000849077
0.00084876
0.000848453
0.000848155
0.000847868
0.000847591
0.000847325
0.000847072
0.000846833
0.000846611
0.000846416
0.00085167
0.000851247
0.000850844
0.000850461
0.000850097
0.00084975
0.00084942
0.000849107
0.00084881
0.000848531
0.000848271
0.00084803
0.00084781
0.000847614
0.000847442
0.000847296
0.00084718
0.000847103
0.000851669
0.000851244
0.000850841
0.000850459
0.000850096
0.000849751
0.000849425
0.000849117
0.000848828
0.000848557
0.000848307
0.000848079
0.000847874
0.000847693
0.000847539
0.000847414
0.000847319
0.000847264
0.000851668
0.000851242
0.000850839
0.000850457
0.000850095
0.000849753
0.00084943
0.000849126
0.000848841
0.000848577
0.000848333
0.000848111
0.000847911
0.000847735
0.000847585
0.000847461
0.000847365
0.000847307
0.000851666
0.00085124
0.000850836
0.000850454
0.000850094
0.000849754
0.000849435
0.000849136
0.000848857
0.000848598
0.00084836
0.000848144
0.000847949
0.000847777
0.000847629
0.000847504
0.000847405
0.00084734
0.000851665
0.000851237
0.000850833
0.000850452
0.000850094
0.000849758
0.000849442
0.000849148
0.000848875
0.000848623
0.000848392
0.000848181
0.000847992
0.000847825
0.000847678
0.000847554
0.000847453
0.000847383
0.000851664
0.000851236
0.000850832
0.000850453
0.000850097
0.000849764
0.000849454
0.000849165
0.000848897
0.00084865
0.000848424
0.000848219
0.000848034
0.00084787
0.000847725
0.0008476
0.000847497
0.000847423
0.000851664
0.000851236
0.000850834
0.000850456
0.000850103
0.000849773
0.000849465
0.000849179
0.000848912
0.000848666
0.000848438
0.000848228
0.000848037
0.000847862
0.000847705
0.000847565
0.000847442
0.000847346
0.000851664
0.000851237
0.000850835
0.000850457
0.000850099
0.000849758
0.000849432
0.000849116
0.00084881
0.000848511
0.000848217
0.000847928
0.000847643
0.000847362
0.000847085
0.000846814
0.00084655
0.000846304
0.000851663
0.000851227
0.000850801
0.000850368
0.000849912
0.00084942
0.000848881
0.00084829
0.000847643
0.000846943
0.000846192
0.000845393
0.000844555
0.000843683
0.000842786
0.00084187
0.000840944
0.000840029
0.000851633
0.000851075
0.000850358
0.000849405
0.000848165
0.00084662
0.000844777
0.000842664
0.000840317
0.000837779
0.000835099
0.000832318
0.000829475
0.000826598
0.000823706
0.000820825
0.000817978
0.000815206
0.000851286
0.000849604
0.000846763
0.000842687
0.000837478
0.000831348
0.000824544
0.0008173
0.000809813
0.000802241
0.000794704
0.000787292
0.000780067
0.00077308
0.000766365
0.000759936
0.000753802
0.000747988
0.000848319
0.000839456
0.000826275
0.00081028
0.000792834
0.00077498
0.000757414
0.000740536
0.000724542
0.00070951
0.000695451
0.000682333
0.000670107
0.000658717
0.000648103
0.000638207
0.000628977
0.000620418
0.000828551
0.000788922
0.000746261
0.000706147
0.000670187
0.000638565
0.000610903
0.000586638
0.000565231
0.000546223
0.000529243
0.000513987
0.000500211
0.000487715
0.000476337
0.000465941
0.000456415
0.000447703
0.000730721
0.000627502
0.000554875
0.000501655
0.00046115
0.000429443
0.000404016
0.000383163
0.000365737
0.000350959
0.000338279
0.000327297
0.000317708
0.000309281
0.000301833
0.000295215
0.000289307
0.000284022
0.000439307
0.000338687
0.000288245
0.000257239
0.000236773
0.000222944
0.000213436
0.000206751
0.000201932
0.000198365
0.000195651
0.000193526
0.000191814
0.000190396
0.00018919
0.00018814
0.000187206
0.000186343
7.16464e-05
6.9068e-05
6.65665e-05
6.41819e-05
6.20058e-05
6.00922e-05
5.84619e-05
5.71126e-05
5.60275e-05
5.51822e-05
5.45489e-05
5.40997e-05
5.38076e-05
5.36477e-05
5.35979e-05
5.36383e-05
5.37522e-05
5.39242e-05
8.85217e-05
7.37064e-05
7.91006e-05
8.22356e-05
8.38876e-05
8.45555e-05
8.45271e-05
8.39786e-05
8.30237e-05
8.17339e-05
8.01472e-05
7.8283e-05
7.64917e-05
7.46887e-05
7.28311e-05
7.09187e-05
6.90199e-05
6.73297e-05
6.62496e-05
6.63999e-05
6.83671e-05
7.21914e-05
7.71538e-05
8.22248e-05
8.654e-05
8.95004e-05
9.1013e-05
9.1282e-05
9.15403e-05
9.45553e-05
9.87815e-05
0.000103379
0.000107915
0.000112173
0.000116061
0.000119548
0.00012264
0.00012536
0.000127735
0.000129797
0.000131575
0.000133099
0.000134395
0.000135489
0.000136403
0.00013716
0.000137778
0.000138276
0.00013867
0.000138974
0.000139202
0.000139366
0.000139476
0.000139542
0.000139574
0.000139578
0.000139563
0.000139533
0.000139496
0.000139456
0.000139417
0.000139384
0.000139362
0.000139352
0.00013936
0.000139402
0.000139454
0.000139518
0.000139596
0.000139689
0.000139795
0.000139917
0.000140052
0.0001402
0.00014036
0.000140531
0.000140711
0.000140897
0.000141088
0.000141279
0.000141466
0.000141643
0.000141805
0.000141942
0.000142045
0.000142101
0.000142095
0.000142006
0.000141814
0.000141491
0.000141007
0.000140328
0.000139418
0.000138241
0.000136762
0.000134955
0.0001328
0.000130292
0.000127438
0.000124253
0.000120741
0.000116869
0.000112783
0.00011037
0.000108359
0.000106423
0.000104538
0.000102713
0.000100959
9.92843e-05
9.76939e-05
9.61894e-05
9.47701e-05
9.34335e-05
9.21757e-05
9.09922e-05
8.98777e-05
8.8827e-05
8.78347e-05
8.68955e-05
8.60042e-05
8.5156e-05
8.43463e-05
8.35709e-05
8.28257e-05
8.21071e-05
8.14117e-05
8.07365e-05
8.00785e-05
7.94353e-05
7.88045e-05
7.8184e-05
7.7572e-05
7.69668e-05
7.63668e-05
7.57707e-05
7.51776e-05
7.45871e-05
7.39954e-05
7.34e-05
7.27946e-05
7.21764e-05
7.1544e-05
7.08981e-05
7.02404e-05
6.95735e-05
6.89005e-05
6.82248e-05
6.755e-05
6.68796e-05
6.62172e-05
6.55661e-05
6.49295e-05
6.43104e-05
6.37111e-05
6.3134e-05
6.25807e-05
6.20525e-05
6.15502e-05
6.10741e-05
6.06243e-05
6.02001e-05
5.98006e-05
5.94247e-05
5.90707e-05
5.87368e-05
5.84209e-05
5.81204e-05
5.78326e-05
5.75544e-05
5.7282e-05
5.70112e-05
5.67364e-05
5.64507e-05
5.61447e-05
5.58047e-05
5.54128e-05
5.49304e-05
5.43378e-05
5.33995e-05
0.000149917
0.000226307
0.000279918
0.000319847
0.000348607
0.000367847
0.000378931
0.0003832
0.00038199
0.000376529
0.000367763
0.000355882
0.000337184
0.000316019
0.000296048
0.000280629
0.000273042
0.000276477
0.000293176
0.000322434
0.000359383
0.000396167
0.000424237
0.000437499
0.000436412
0.000429566
0.000421151
0.0004134
0.000407257
0.000403664
0.000403273
0.000406338
0.000412973
0.000423234
0.000437062
0.000454215
0.000474256
0.000496568
0.000520408
0.000544976
0.000569483
0.00059322
0.000615598
0.000636174
0.000654648
0.000670855
0.000684738
0.000696327
0.000705715
0.000713036
0.000718449
0.000722128
0.000724251
0.000724999
0.000724548
0.000723068
0.000720724
0.000717672
0.000714058
0.00071002
0.000705685
0.000701167
0.00069657
0.000691994
0.000687535
0.000683471
0.000680032
0.000677297
0.000675337
0.000674219
0.000674
0.000674731
0.000676458
0.000679223
0.000683061
0.000688003
0.000694077
0.000701306
0.000709705
0.000719283
0.000730037
0.000741951
0.000754988
0.000769084
0.000784142
0.000800021
0.000816525
0.000833397
0.000850307
0.000866854
0.000882564
0.000896907
0.000909317
0.000919235
0.000926144
0.000929618
0.000929351
0.000925177
0.000917039
0.000904917
0.000888647
0.000867633
0.000841964
0.000815635
0.000789109
0.000762722
0.000736787
0.000711548
0.000687173
0.000663766
0.000641383
0.00062004
0.000599724
0.000580405
0.000562039
0.000544576
0.000527962
0.000512142
0.00049706
0.000482665
0.000468907
0.000455738
0.000443114
0.000430993
0.000419337
0.000408109
0.000397274
0.0003868
0.000376655
0.000366808
0.000357232
0.000347899
0.00033878
0.00032985
0.000321081
0.000312449
0.000303926
0.000295465
0.00028675
0.000277625
0.000268306
0.000259051
0.000249926
0.000240984
0.000232252
0.000223741
0.000215453
0.000207387
0.00019954
0.000191912
0.000184502
0.000177317
0.000170361
0.000163647
0.000157187
0.000150995
0.000145089
0.000139484
0.000134196
0.000129237
0.000124618
0.000120342
0.000116411
0.000112821
0.000109562
0.000106623
0.000103985
0.000101629
9.9532e-05
9.76695e-05
9.60155e-05
9.45429e-05
9.32236e-05
9.20279e-05
9.09236e-05
8.98788e-05
8.88435e-05
8.78442e-05
8.65967e-05
8.64674e-05
0.000171614
0.000255788
0.000334432
0.000402206
0.000456279
0.000496598
0.000524366
0.000541474
0.000550081
0.00055228
0.000549799
0.000543623
0.000531293
0.000514136
0.000495049
0.000478401
0.000469429
0.000473078
0.000491981
0.000523316
0.000559185
0.00059029
0.000608969
0.000613911
0.000608696
0.000599313
0.00059119
0.000588492
0.000594055
0.000609701
0.000636402
0.000674361
0.000723082
0.00078137
0.000847356
0.000918654
0.000992623
0.00106667
0.0011385
0.00120629
0.00126875
0.00132508
0.00137491
0.00141819
0.00145511
0.00148598
0.0015112
0.0015312
0.00154641
0.00155724
0.00156407
0.00156727
0.00156717
0.00156409
0.00155833
0.00155015
0.00153984
0.00152764
0.00151382
0.00149863
0.00148231
0.00146511
0.00144727
0.00142906
0.00141069
0.00139258
0.00137496
0.00135794
0.00134168
0.00132637
0.00131215
0.00129919
0.00128761
0.00127753
0.00126907
0.00126231
0.00125733
0.00125418
0.00125292
0.00125356
0.00125613
0.0012606
0.00126694
0.00127507
0.00128488
0.0012962
0.00130879
0.00132234
0.00133645
0.00135064
0.00136431
0.00137681
0.00138746
0.00139555
0.00140043
0.00140157
0.00139858
0.00139123
0.00137945
0.00136329
0.00134284
0.00131808
0.00129031
0.00126146
0.00123206
0.00120256
0.00117333
0.00114467
0.00111678
0.00108979
0.00106377
0.00103876
0.00101474
0.000991693
0.000969562
0.000948297
0.00092784
0.000908132
0.000889114
0.000870731
0.000852928
0.000835658
0.000818872
0.000802529
0.000786588
0.000771011
0.000755764
0.000740813
0.000726126
0.000711672
0.00069742
0.00068334
0.000669401
0.000655572
0.000641819
0.000628109
0.000614402
0.000600645
0.000586708
0.000572456
0.000557775
0.000542454
0.000526628
0.00051049
0.000494092
0.000477488
0.000460725
0.000443846
0.000426896
0.000409919
0.000392964
0.000376085
0.000359344
0.000342806
0.000326542
0.00031063
0.000295148
0.000280175
0.000265786
0.000252052
0.000239036
0.000226789
0.000215351
0.000204745
0.000194981
0.000186053
0.00017794
0.000170608
0.000164012
0.000158093
0.000152785
0.000148009
0.000143679
0.000139695
0.000135937
0.000132264
0.000128463
0.000124337
0.000119214
0.00011332
0.000180651
0.000256188
0.00036972
0.000468714
0.00054461
0.000598558
0.00063409
0.0006552
0.000665671
0.000668664
0.000666199
0.000658432
0.000644595
0.000626867
0.000609155
0.000596637
0.000594686
0.000606921
0.000634087
0.000667909
0.000699018
0.000720442
0.000729624
0.000729144
0.000725229
0.000725294
0.000735714
0.000760903
0.000803188
0.000863037
0.000939299
0.00102946
0.00113001
0.00123698
0.00134643
0.00145486
0.00155946
0.00165813
0.00174948
0.00183268
0.00190738
0.00197353
0.00203137
0.00208124
0.00212361
0.00215895
0.00218777
0.00221053
0.0022277
0.00223969
0.00224689
0.00224966
0.00224833
0.0022432
0.00223457
0.00222271
0.00220788
0.00219033
0.00217032
0.00214809
0.00212388
0.00209792
0.00207047
0.00204175
0.00201202
0.00198153
0.00195064
0.00191949
0.00188829
0.00185726
0.00182664
0.00179665
0.00176751
0.00173942
0.0017126
0.00168722
0.00166347
0.00164152
0.0016215
0.00160355
0.00158778
0.00157429
0.00156314
0.00155436
0.00154796
0.00154387
0.00154197
0.00154207
0.00154387
0.00154698
0.0015509
0.00155506
0.0015588
0.00156145
0.00156236
0.00156098
0.00155687
0.00154972
0.00153937
0.00152575
0.00150885
0.0014887
0.00146669
0.00144377
0.00142038
0.00139688
0.00137359
0.00135072
0.00132843
0.00130683
0.00128595
0.00126579
0.00124634
0.00122756
0.0012094
0.00119181
0.00117473
0.0011581
0.00114188
0.001126
0.00111043
0.00109512
0.00108004
0.00106514
0.0010504
0.00103578
0.00102125
0.00100679
0.000992363
0.000977955
0.000963534
0.000949076
0.000934554
0.000919939
0.000905203
0.000890312
0.000875231
0.000859916
0.000844304
0.000828314
0.000811867
0.00079487
0.00077726
0.000758902
0.00073991
0.000720365
0.000700303
0.000679763
0.000658792
0.000637442
0.000615769
0.000593842
0.000571734
0.000549529
0.000527321
0.000505211
0.000483308
0.000461725
0.000440578
0.000419984
0.000400056
0.000380899
0.000362609
0.000345265
0.000328933
0.000313657
0.000299461
0.000286346
0.000274294
0.000263263
0.000253189
0.000243988
0.000235549
0.000227737
0.000220377
0.000213248
0.000206019
0.000198281
0.000189059
0.000177767
0.000185697
0.00024791
0.000412224
0.000543621
0.000636406
0.000697303
0.000733741
0.000752167
0.000757879
0.00075488
0.000745349
0.000729969
0.000711761
0.000694089
0.000683034
0.000682831
0.000694852
0.000717589
0.000746234
0.000773968
0.00079532
0.000808297
0.000815183
0.000821917
0.000836221
0.000865256
0.000913868
0.000983915
0.00107441
0.00118218
0.00130271
0.00143109
0.00156267
0.00169353
0.00182062
0.00194176
0.00205547
0.00216082
0.00225736
0.00234491
0.00242354
0.00249349
0.00255507
0.00260869
0.00265476
0.00269373
0.00272601
0.00275201
0.0027721
0.00278665
0.00279597
0.00280037
0.00280013
0.00279551
0.00278677
0.00277414
0.00275783
0.00273808
0.00271508
0.00268905
0.00266019
0.00262869
0.00259478
0.00255864
0.0025205
0.00248056
0.00243902
0.00239612
0.00235208
0.00230713
0.0022615
0.00221545
0.00216921
0.00212304
0.0020772
0.00203196
0.00198759
0.00194434
0.00190251
0.00186234
0.00182413
0.00178811
0.00175454
0.00172364
0.00169562
0.00167062
0.00164872
0.00162995
0.00161421
0.00160129
0.00159087
0.00158251
0.00157568
0.0015698
0.00156427
0.00155858
0.00155227
0.00154497
0.00153641
0.00152636
0.00151453
0.00150109
0.00148696
0.00147252
0.00145801
0.00144365
0.00142958
0.0014159
0.00140267
0.00138991
0.00137758
0.00136566
0.0013541
0.00134283
0.00133181
0.00132097
0.00131027
0.00129966
0.00128908
0.00127851
0.0012679
0.00125723
0.00124646
0.00123556
0.00122452
0.00121332
0.00120192
0.00119032
0.00117849
0.00116641
0.00115406
0.00114142
0.00112847
0.00111519
0.00110155
0.00108752
0.00107307
0.00105817
0.00104277
0.00102682
0.00101028
0.000993071
0.000975159
0.000956483
0.00093698
0.000916644
0.000895551
0.00087373
0.000851221
0.000828074
0.000804348
0.000780115
0.000755456
0.000730467
0.00070525
0.000679923
0.000654611
0.000629447
0.000604568
0.000580117
0.00055623
0.000533042
0.000510676
0.000489244
0.00046884
0.000449538
0.000431391
0.000414428
0.000398651
0.00038404
0.000370544
0.000358088
0.000346564
0.000335828
0.000325694
0.000315911
0.000306114
0.000295811
0.00028402
0.000269927
0.000196999
0.000284786
0.00048133
0.000630075
0.00073022
0.000791829
0.000824594
0.000836427
0.00083349
0.000820847
0.000802504
0.000783003
0.000766718
0.00075725
0.00075703
0.000766473
0.000783954
0.000806207
0.000829154
0.000849374
0.000865863
0.000880995
0.000900242
0.000930705
0.000979004
0.00104933
0.00114245
0.00125591
0.0013851
0.00152457
0.00166912
0.0018144
0.00195707
0.00209474
0.00222582
0.0023493
0.00246456
0.00257131
0.00266946
0.00275905
0.00284025
0.00291328
0.00297842
0.00303599
0.00308629
0.00312966
0.0031664
0.00319682
0.0032212
0.00323981
0.0032529
0.0032607
0.00326344
0.00326132
0.00325453
0.00324327
0.00322772
0.00320804
0.00318441
0.003157
0.00312596
0.00309148
0.0030537
0.00301281
0.00296896
0.00292231
0.00287292
0.00282106
0.00276695
0.00271081
0.00265285
0.00259328
0.00253234
0.00247029
0.00240739
0.00234393
0.00228022
0.00221659
0.0021534
0.00209104
0.00202991
0.00197042
0.00191303
0.00185816
0.00180626
0.00175774
0.00171295
0.00167218
0.00163559
0.00160322
0.00157497
0.0015506
0.00152976
0.00151198
0.00149678
0.00148372
0.00147237
0.00146239
0.00145338
0.00144499
0.00143676
0.00142898
0.00142184
0.0014154
0.00140966
0.00140462
0.00140023
0.00139641
0.00139307
0.00139009
0.00138737
0.00138479
0.00138225
0.00137967
0.00137697
0.00137407
0.00137094
0.00136751
0.00136376
0.00135965
0.00135516
0.00135026
0.00134495
0.0013392
0.001333
0.00132634
0.00131921
0.0013116
0.00130348
0.00129485
0.0012857
0.001276
0.00126574
0.0012549
0.00124345
0.00123138
0.00121866
0.00120525
0.00119113
0.00117625
0.00116058
0.00114407
0.00112669
0.00110841
0.00108918
0.00106899
0.00104782
0.00102573
0.00100273
0.000978888
0.000954256
0.000928909
0.000902937
0.000876442
0.000849541
0.000822365
0.000795056
0.000767768
0.00074066
0.000713896
0.000687638
0.000662043
0.00063726
0.000613423
0.000590646
0.000569024
0.000548625
0.000529492
0.00051164
0.000495054
0.000479692
0.00046548
0.000452316
0.00044006
0.000428528
0.000417481
0.000406583
0.000395377
0.000383064
0.00036897
4.65928e-05
0.000301627
0.000544393
0.000710842
0.00081647
0.000877258
0.000905517
0.00091079
0.000900871
0.000882636
0.000861585
0.000842801
0.000830108
0.000825584
0.000829483
0.00084051
0.000856404
0.000874698
0.00089366
0.000913312
0.000936154
0.000967047
0.00101206
0.00107665
0.00116382
0.00127324
0.00140152
0.00154349
0.00169359
0.0018469
0.00199956
0.00214883
0.00229283
0.00243038
0.00256076
0.00268355
0.00279856
0.00290569
0.00300497
0.00309647
0.00318032
0.00325668
0.00332573
0.00338767
0.00344272
0.00349108
0.00353296
0.00356856
0.00359806
0.00362166
0.00363953
0.00365183
0.00365873
0.00366038
0.00365691
0.00364848
0.00363522
0.00361727
0.00359475
0.00356779
0.00353653
0.0035011
0.00346162
0.00341824
0.00337111
0.0033201
0.00326542
0.00320731
0.00314597
0.00308155
0.00301425
0.00294422
0.00287169
0.00279686
0.00271999
0.00264134
0.00256123
0.00248002
0.00239808
0.00231586
0.00223386
0.0021526
0.00207267
0.00199471
0.00191935
0.00184727
0.0017791
0.00171542
0.00165666
0.00160314
0.00155499
0.00151222
0.00147474
0.00144224
0.00141433
0.00139082
0.0013713
0.00135553
0.00134301
0.00133338
0.00132621
0.00132138
0.00131872
0.00131807
0.00131921
0.00132189
0.00132585
0.0013308
0.00133648
0.00134262
0.00134899
0.00135539
0.00136164
0.0013676
0.00137316
0.00137822
0.00138272
0.00138661
0.00138985
0.00139242
0.0013943
0.00139547
0.00139593
0.00139567
0.00139469
0.00139298
0.00139054
0.00138736
0.00138343
0.00137876
0.00137331
0.00136709
0.00136008
0.00135226
0.0013436
0.0013341
0.00132371
0.00131243
0.00130021
0.00128702
0.00127284
0.00125763
0.00124136
0.001224
0.00120555
0.00118597
0.00116526
0.00114344
0.00112053
0.00109659
0.00107166
0.00104584
0.00101921
0.000991877
0.000963977
0.000935653
0.000907062
0.000878377
0.000849778
0.000821454
0.00079359
0.000766371
0.000739967
0.000714537
0.000690218
0.000667121
0.000645331
0.000624904
0.00060586
0.000588192
0.000571858
0.000556787
0.000542874
0.000529983
0.000517942
0.000506531
0.00049546
0.000484352
0.000472623
0.000459835
4.87107e-05
0.000336139
0.000605164
0.000784674
0.000895247
0.000956238
0.000982025
0.000983678
0.000970425
0.000949781
0.000927496
0.000908678
0.000896558
0.000892323
0.000895506
0.000904723
0.000918499
0.000936075
0.0009581
0.000987038
0.00102702
0.00108294
0.00115895
0.00125697
0.0013759
0.00151204
0.00166023
0.00181522
0.0019725
0.00212865
0.00228132
0.00242899
0.00257071
0.00270596
0.00283442
0.00295594
0.00307045
0.00317793
0.00327839
0.00337189
0.00345848
0.00353825
0.00361128
0.00367768
0.00373755
0.003791
0.00383815
0.00387912
0.003914
0.00394292
0.00396597
0.00398327
0.00399492
0.00400102
0.00400166
0.00399695
0.00398697
0.00397183
0.00395162
0.00392644
0.00389638
0.00386153
0.00382201
0.00377789
0.00372926
0.00367591
0.00361813
0.00355612
0.00349002
0.00341996
0.00334608
0.00326853
0.00318744
0.00310301
0.00301543
0.00292495
0.00283186
0.00273649
0.00263923
0.00254055
0.00244096
0.00234106
0.00224151
0.00214305
0.00204649
0.0019527
0.00186255
0.00177692
0.00169651
0.00162186
0.00155333
0.0014912
0.00143573
0.0013869
0.00134434
0.00130829
0.00127837
0.0012546
0.00123649
0.00122325
0.0012145
0.00120988
0.00120906
0.00121165
0.00121722
0.00122531
0.00123545
0.00124717
0.00126002
0.0012736
0.00128753
0.00130153
0.00131532
0.00132871
0.00134154
0.00135369
0.00136505
0.00137559
0.00138524
0.00139398
0.0014018
0.00140869
0.00141464
0.00141965
0.00142373
0.00142686
0.00142906
0.00143032
0.00143063
0.00142998
0.00142838
0.0014258
0.00142224
0.00141766
0.00141206
0.00140542
0.0013977
0.00138888
0.00137893
0.00136782
0.00135552
0.00134201
0.00132725
0.00131123
0.00129392
0.00127533
0.00125546
0.0012343
0.00121187
0.00118824
0.00116345
0.00113758
0.00111073
0.00108302
0.00105458
0.00102556
0.000996138
0.000966506
0.000936863
0.000907417
0.000878379
0.000849957
0.000822349
0.000795738
0.000770283
0.000746118
0.000723345
0.000702032
0.000682211
0.000663879
0.000646997
0.000631494
0.000617263
0.000604172
0.000592052
0.000580702
0.000569874
0.000559262
0.000548448
0.000537183
5.02178e-05
0.000367185
0.000659163
0.000850591
0.000966707
0.00102976
0.00105581
0.00105698
0.00104317
0.00102099
0.000997246
0.000977031
0.000963388
0.00095744
0.000959015
0.000967507
0.000982718
0.00100548
0.00103796
0.00108347
0.00114574
0.0012278
0.00133073
0.00145314
0.00159145
0.00174087
0.00189657
0.00205441
0.00221128
0.00236504
0.00251436
0.00265842
0.00279676
0.00292916
0.00305548
0.00317565
0.00328965
0.00339744
0.00349901
0.00359436
0.00368348
0.00376639
0.00384309
0.0039136
0.00397795
0.00403618
0.00408831
0.00413439
0.00417446
0.00420857
0.00423677
0.00425911
0.00427564
0.00428641
0.00429149
0.00429093
0.00428478
0.0042731
0.00425595
0.00423339
0.00420549
0.0041723
0.00413391
0.00409039
0.00404147
0.00398733
0.00392815
0.00386408
0.00379522
0.00372168
0.00364353
0.00356089
0.00347386
0.00338258
0.00328722
0.00318796
0.00308506
0.00297882
0.00286961
0.00275789
0.0026442
0.00252912
0.00241335
0.00229768
0.00218299
0.00207024
0.00196051
0.00185495
0.00175457
0.00166008
0.001572
0.00149072
0.00141713
0.00135174
0.00129387
0.00124456
0.0012042
0.00117176
0.00114672
0.00112857
0.00111679
0.00111087
0.00111024
0.00111433
0.00112249
0.00113408
0.00114844
0.00116493
0.00118296
0.001202
0.00122158
0.00124131
0.00126086
0.00127999
0.0012985
0.00131623
0.00133308
0.00134898
0.00136387
0.00137773
0.00139053
0.00140227
0.00141293
0.00142253
0.00143107
0.00143853
0.00144493
0.00145025
0.00145449
0.00145765
0.00145971
0.00146065
0.00146046
0.00145912
0.0014566
0.00145288
0.00144793
0.00144172
0.00143421
0.00142538
0.0014152
0.00140364
0.00139067
0.00137626
0.00136041
0.00134312
0.00132437
0.00130418
0.00128256
0.00125956
0.00123525
0.00120968
0.00118297
0.00115523
0.0011266
0.00109724
0.00106734
0.0010371
0.00100674
0.000976484
0.000946565
0.000917216
0.000888661
0.000861107
0.000834738
0.000809712
0.00078615
0.000764136
0.000743717
0.000724897
0.000707643
0.000691882
0.00067751
0.000664393
0.000652366
0.00064124
0.000630794
0.000620777
0.000610878
0.000600964
5.11618e-05
0.000392879
0.00070386
0.000906059
0.00102861
0.00109596
0.00112524
0.0011291
0.00111577
0.00109355
0.0010692
0.00104788
0.00103288
0.00102591
0.00102763
0.00103849
0.00105939
0.00109204
0.00113893
0.00120277
0.00128563
0.00138813
0.00150888
0.0016447
0.00179133
0.00194441
0.00210009
0.00225542
0.00240836
0.00255759
0.00270233
0.00284215
0.00297682
0.00310623
0.00323031
0.00334903
0.00346233
0.00357017
0.0036725
0.00376927
0.00386041
0.00394589
0.00402565
0.00409964
0.00416784
0.00423021
0.00428672
0.00433736
0.00438212
0.00442099
0.00445398
0.00448108
0.0045023
0.00451766
0.00452717
0.00453085
0.00452872
0.00452079
0.00450709
0.00448763
0.00446246
0.0044316
0.00439509
0.00435284
0.00430474
0.00425096
0.00419166
0.00412693
0.00405683
0.00398144
0.00390082
0.00381502
0.00372412
0.00362821
0.00352742
0.00342189
0.00331183
0.00319748
0.00307919
0.00295742
0.00283271
0.00270563
0.00257687
0.00244721
0.00231754
0.00218883
0.00206218
0.0019391
0.001821
0.00170866
0.00160272
0.00150343
0.00141223
0.00133124
0.00125983
0.0011984
0.00114711
0.00110575
0.00107389
0.00105094
0.00103619
0.00102889
0.00102822
0.00103337
0.00104348
0.0010577
0.00107519
0.00109518
0.00111696
0.00113988
0.00116342
0.00118713
0.00121066
0.00123373
0.00125613
0.00127771
0.00129836
0.00131801
0.00133662
0.00135415
0.00137059
0.00138594
0.00140018
0.00141333
0.00142538
0.00143632
0.00144616
0.00145488
0.00146248
0.00146893
0.00147422
0.00147832
0.00148122
0.00148287
0.00148326
0.00148234
0.00148009
0.00147646
0.00147142
0.00146494
0.00145697
0.00144748
0.00143645
0.00142385
0.00140966
0.00139389
0.0013765
0.00135752
0.00133698
0.00131489
0.00129133
0.00126637
0.0012401
0.00121264
0.00118413
0.00115474
0.00112466
0.0010941
0.00106329
0.00103247
0.00100191
0.000971841
0.000942525
0.00091419
0.000887047
0.000861276
0.000837022
0.000814389
0.000793439
0.000774187
0.000756608
0.000740635
0.000726164
0.000713061
0.000701163
0.000690288
0.000680233
0.000670779
0.000661687
0.000652879
5.14576e-05
0.000411696
0.000736845
0.00094835
0.00107807
0.00115174
0.00118691
0.00119486
0.00118509
0.00116561
0.00114302
0.00112262
0.00110824
0.00110241
0.00110679
0.00112273
0.00115175
0.00119567
0.00125638
0.00133528
0.00143268
0.00154739
0.00167676
0.00181716
0.00196468
0.00211576
0.00226752
0.00241786
0.0025654
0.00270929
0.00284905
0.00298441
0.00311527
0.00324154
0.00336318
0.00348014
0.00359236
0.00369976
0.00380228
0.0038998
0.00399226
0.00407953
0.00416155
0.00423821
0.00430943
0.00437513
0.00443524
0.00448971
0.00453846
0.00458146
0.00461867
0.00465004
0.00467555
0.00469516
0.00470887
0.00471664
0.00471846
0.0047143
0.00470417
0.00468803
0.00466588
0.00463771
0.00460352
0.00456306
0.00451648
0.00446388
0.00440536
0.00434097
0.00427075
0.00419474
0.00411296
0.00402544
0.00393224
0.0038334
0.003729
0.00361915
0.00350399
0.00338372
0.0032586
0.00312913
0.00299591
0.00285947
0.00272046
0.00257965
0.00243793
0.00229621
0.00215528
0.00201699
0.00188366
0.0017558
0.00163432
0.00152018
0.00141467
0.001319
0.00123409
0.00116077
0.00109955
0.00105043
0.00101298
0.000986421
0.000969812
0.000962105
0.000962213
0.000969036
0.000981477
0.000998466
0.00101899
0.00104211
0.001067
0.00109296
0.0011194
0.00114586
0.00117198
0.00119749
0.00122222
0.00124603
0.00126885
0.00129063
0.00131135
0.00133101
0.0013496
0.00136714
0.00138363
0.00139907
0.00141347
0.00142683
0.00143912
0.00145035
0.00146049
0.00146952
0.00147741
0.00148411
0.00148961
0.00149386
0.00149681
0.00149842
0.00149864
0.00149744
0.00149475
0.00149054
0.00148476
0.00147737
0.00146833
0.00145763
0.00144523
0.0014311
0.00141525
0.00139768
0.00137841
0.00135747
0.00133491
0.0013108
0.00128524
0.00125833
0.00123021
0.00120106
0.00117106
0.00114044
0.00110943
0.00107828
0.00104727
0.00101668
0.000986757
0.000957773
0.00092996
0.000903523
0.000878632
0.000855412
0.000833945
0.000814262
0.000796347
0.000780141
0.000765544
0.000752423
0.000740619
0.000729952
0.000720231
0.000711257
0.00070283
0.000694896
5.10733e-05
0.000422513
0.000756314
0.000975208
0.00111235
0.00119381
0.00123613
0.0012513
0.00124851
0.00123519
0.00121765
0.00120123
0.00119023
0.00118797
0.00119691
0.00121902
0.001256
0.00130934
0.00138004
0.0014683
0.00157319
0.00169262
0.00182361
0.00196278
0.00210683
0.00225293
0.00239889
0.00254315
0.0026847
0.00282292
0.00295749
0.00308824
0.00321507
0.00333792
0.00345674
0.00357148
0.00368206
0.00378838
0.00389035
0.00398785
0.00408077
0.00416896
0.00425232
0.00433072
0.00440405