/*--------------------------------*- C++ -*----------------------------------*\
  =========                 |
  \\      /  F ield         | OpenFOAM: The Open Source CFD Toolbox
   \\    /   O peration     | Website:  https://openfoam.org
    \\  /    A nd           | Version:  9
     \\/     M anipulation  |
\*---------------------------------------------------------------------------*/
FoamFile
{
    format      ascii;
    class       volScalarField;
    location    "260";
    object      nut;
}
// * * * * * * * * * * * * * * * * * * * * * * * * * * * * * * * * * * * * * //

dimensions      [0 2 -1 0 0 0 0];

internalField   nonuniform List<scalar> 
10720
(
0.055078
0.0570642
0.0592568
0.0614596
0.0637933
0.0661732
0.0682087
0.0698277
0.0708711
0.0713047
0.0710398
0.069948
0.0679215
0.0648657
0.0606356
0.0551052
0.0481204
0.0396975
0.0300523
0.0190627
0.0140711
0.0149068
0.014646
0.0150925
0.0159283
0.0186716
0.0237154
0.0251549
0.0233069
0.0218972
0.0128459
0.0119411
0.00983746
0.0100292
0.00607413
0.0242507
0.0341534
0.0420645
0.0389476
0.0533351
0.0513189
0.0491472
0.0463826
0.0432429
0.0396209
0.0353453
0.030324
0.0245372
0.0185751
0.0165941
0.0152436
0.0142938
0.0167294
0.0193984
0.0214606
0.0231534
0.0246877
0.0261786
0.0276812
0.0292241
0.0308176
0.0324638
0.0341412
0.035774
0.0372824
0.0386487
0.0398774
0.040977
0.0419498
0.0428323
0.0436515
0.0444076
0.0450929
0.0457008
0.046247
0.0467242
0.0470412
0.0473968
0.0686688
0.0680765
0.0670877
0.0657194
0.0642413
0.0624978
0.0610463
0.0606821
0.0614072
0.0628643
0.0648108
0.0671284
0.0696887
0.0723985
0.0751274
0.0776945
0.0796867
0.0804514
0.0792756
0.0766731
0.0764551
0.0783034
0.0735769
0.0638703
0.05837
0.0601286
0.0651113
0.0672316
0.0659402
0.0623609
0.054849
0.0550156
0.0459566
0.0304907
0.0220236
0.0560475
0.0770031
0.104418
0.0898717
0.0692869
0.0694887
0.0698681
0.0696581
0.0691327
0.0682262
0.0667846
0.0647858
0.0623747
0.0597264
0.0567744
0.0537858
0.0507119
0.0474312
0.0443213
0.041468
0.0388925
0.0365784
0.0345249
0.0327083
0.0311201
0.0297382
0.0285458
0.0274838
0.026525
0.0256911
0.0249841
0.0244053
0.0239488
0.0236362
0.0237315
0.0243145
0.0252255
0.0262848
0.0273441
0.0283573
0.029269
0.0300735
0.0310866
0.0973745
0.0967933
0.0958003
0.0943806
0.0927346
0.0906955
0.0882523
0.0855789
0.0825491
0.0793442
0.076159
0.0731647
0.0705305
0.0684505
0.0669204
0.0688744
0.0732637
0.0796944
0.0872636
0.0946663
0.102429
0.110918
0.115057
0.113246
0.114259
0.123079
0.134469
0.141232
0.141646
0.132214
0.111945
0.109182
0.0957906
0.0535063
0.0488308
0.125357
0.151671
0.181417
0.167486
0.0979074
0.0980949
0.098362
0.0981905
0.0977102
0.0968726
0.0955507
0.0936969
0.0913934
0.0887784
0.0859264
0.0828434
0.0795841
0.0761826
0.0727658
0.069401
0.066151
0.0630488
0.0601264
0.0573778
0.0548096
0.0524032
0.0501361
0.0479087
0.0456641
0.0434451
0.0412746
0.0391774
0.0371697
0.0352632
0.0334835
0.0318628
0.0311854
0.0312259
0.0314844
0.031846
0.0323257
0.0332864
0.0324893
0.112761
0.112377
0.111721
0.110784
0.109659
0.108235
0.106517
0.104626
0.102375
0.0995401
0.0962216
0.0924352
0.0881642
0.083591
0.0786534
0.0748283
0.0715913
0.0726903
0.0789294
0.0899935
0.104527
0.12122
0.136069
0.144865
0.15284
0.169593
0.193651
0.214617
0.22321
0.211406
0.174936
0.170274
0.1546
0.0921756
0.0866239
0.200777
0.21773
0.250332
0.245395
0.113077
0.113205
0.113339
0.113223
0.112892
0.112315
0.111401
0.110105
0.108455
0.106499
0.104297
0.101847
0.0991618
0.0962749
0.0932644
0.0901819
0.0870835
0.0840144
0.0810173
0.0781061
0.0753025
0.0726025
0.069989
0.0673687
0.0646755
0.0619531
0.059227
0.056526
0.0538704
0.0512765
0.0487626
0.0463372
0.0440662
0.0420173
0.0401354
0.0389286
0.0385142
0.039098
0.0360792
0.121436
0.121189
0.120751
0.120121
0.119347
0.118351
0.117124
0.115684
0.113967
0.111984
0.109735
0.107236
0.104206
0.100234
0.095402
0.08973
0.0839014
0.0788843
0.0764374
0.0812123
0.0947067
0.115645
0.139652
0.160238
0.177859
0.203104
0.240309
0.278771
0.30236
0.295029
0.244408
0.236633
0.221687
0.144625
0.133503
0.278267
0.285341
0.313534
0.319603
0.12161
0.121681
0.121744
0.121662
0.121436
0.121045
0.120428
0.119553
0.118431
0.117075
0.115502
0.113733
0.111755
0.109577
0.107241
0.104772
0.102211
0.0995907
0.0969489
0.0943045
0.0916835
0.0890896
0.0865143
0.0838768
0.0811163
0.0782696
0.0753628
0.0724255
0.0694805
0.066549
0.0636516
0.0608066
0.0580338
0.0553639
0.0527973
0.0504154
0.0481374
0.047013
0.0418652
0.126693
0.126551
0.126283
0.12589
0.125407
0.1248
0.124076
0.123255
0.122306
0.12119
0.119846
0.118235
0.116302
0.113861
0.110692
0.106418
0.0999805
0.0923876
0.0853508
0.0808209
0.085532
0.102792
0.130362
0.160698
0.18931
0.224052
0.27368
0.330065
0.373032
0.378177
0.322308
0.307263
0.296363
0.210328
0.185277
0.359004
0.356022
0.372884
0.390885
0.126773
0.126798
0.126815
0.126747
0.126582
0.126306
0.125875
0.125268
0.124495
0.123561
0.122467
0.121219
0.119808
0.118234
0.116516
0.114663
0.112697
0.110635
0.108505
0.106319
0.104096
0.101841
0.0995472
0.0971485
0.0945891
0.0918957
0.0890907
0.0861996
0.0832442
0.0802464
0.0772288
0.0742138
0.0712212
0.0682766
0.0653896
0.0626061
0.059752
0.0580109
0.0517773
0.130106
0.130074
0.129999
0.129843
0.129641
0.12937
0.129
0.12853
0.127934
0.127205
0.126347
0.125314
0.124057
0.122492
0.120497
0.117863
0.113908
0.107832
0.0991171
0.0902373
0.0849891
0.0919565
0.115089
0.149446
0.187432
0.231977
0.293276
0.367333
0.432148
0.456831
0.408431
0.381399
0.376839
0.289268
0.241955
0.443811
0.430789
0.430895
0.464298
0.130105
0.130099
0.130089
0.130028
0.129898
0.129691
0.129376
0.128941
0.128392
0.127736
0.126971
0.126094
0.125093
0.123963
0.122714
0.121348
0.119879
0.118316
0.116672
0.114956
0.113178
0.111338
0.109428
0.107393
0.105182
0.102812
0.100295
0.0976502
0.0948928
0.092042
0.0891182
0.0861439
0.08314
0.0801323
0.0771337
0.0741904
0.0711049
0.0690682
0.0626431
0.132551
0.132703
0.13287
0.132954
0.132978
0.132935
0.1328
0.132574
0.132245
0.131798
0.131222
0.130487
0.129569
0.128426
0.126994
0.125181
0.12278
0.119132
0.112921
0.103455
0.0931729
0.0889846
0.101284
0.131941
0.174294
0.226919
0.29856
0.38931
0.477655
0.527768
0.498754
0.458165
0.461359
0.379805
0.305498
0.533882
0.510924
0.49517
0.541915
0.132403
0.132361
0.132326
0.132266
0.132154
0.131993
0.131759
0.131437
0.131034
0.130561
0.130013
0.129382
0.128663
0.127849
0.126945
0.125947
0.124857
0.123681
0.122429
0.121107
0.119721
0.118268
0.116738
0.115085
0.113265
0.111283
0.109143
0.106853
0.104421
0.101861
0.0991849
0.0964131
0.0935638
0.0906608
0.0877176
0.0847808
0.0816557
0.0794621
0.0731924
0.134426
0.134711
0.13498
0.135168
0.135284
0.135334
0.135306
0.135206
0.135026
0.134759
0.134406
0.133937
0.133327
0.132538
0.131518
0.1302
0.128501
0.126255
0.122668
0.116083
0.105648
0.0942303
0.0942789
0.114627
0.154185
0.210386
0.289591
0.394969
0.507452
0.587816
0.587
0.536526
0.548009
0.473833
0.381013
0.630816
0.598167
0.569357
0.621026
0.134157
0.134043
0.133961
0.133887
0.133785
0.133675
0.133509
0.13326
0.132947
0.132583
0.13217
0.1317
0.131168
0.130569
0.129906
0.129171
0.128365
0.127486
0.126539
0.125525
0.12445
0.123311
0.122102
0.120787
0.119327
0.11772
0.115964
0.114059
0.112004
0.109803
0.107464
0.104999
0.102419
0.0997456
0.0969883
0.0941907
0.0911704
0.0889383
0.0830044
0.135869
0.136166
0.13645
0.136666
0.13682
0.136918
0.136953
0.136931
0.136849
0.136704
0.136496
0.136207
0.13582
0.135304
0.134618
0.133706
0.132479
0.130876
0.128735
0.125037
0.117361
0.10528
0.0961073
0.103049
0.132853
0.185924
0.267688
0.383927
0.51964
0.633664
0.668069
0.615908
0.634833
0.571032
0.478334
0.737185
0.693785
0.646665
0.699483
0.135629
0.135469
0.135333
0.135238
0.135138
0.135095
0.134986
0.134765
0.134482
0.134164
0.133816
0.133435
0.133017
0.132557
0.132054
0.1315
0.130894
0.130231
0.129514
0.128738
0.127907
0.127018
0.126065
0.125021
0.123858
0.122572
0.121158
0.119609
0.11792
0.116088
0.114113
0.111999
0.109752
0.107385
0.104902
0.10234
0.0995335
0.0973668
0.0919079
0.136966
0.137219
0.137478
0.13769
0.137852
0.137972
0.138041
0.138065
0.138043
0.137976
0.137862
0.137695
0.137461
0.13714
0.136701
0.136103
0.135274
0.134109
0.132599
0.130558
0.126201
0.11657
0.103841
0.099509
0.115709
0.158746
0.236036
0.357041
0.5128
0.661962
0.738283
0.699149
0.720701
0.672391
0.598035
0.855565
0.797428
0.724304
0.774136
0.136809
0.136713
0.136636
0.136555
0.136474
0.136495
0.136412
0.136169
0.135872
0.135555
0.13522
0.134869
0.1345
0.13411
0.133698
0.133257
0.132783
0.13227
0.131715
0.131115
0.130468
0.129772
0.12902
0.128193
0.127268
0.126242
0.125109
0.123862
0.122493
0.120996
0.119366
0.117601
0.115699
0.113667
0.111503
0.109236
0.106714
0.104693
0.0998004
0.137787
0.137987
0.138212
0.13841
0.138569
0.138696
0.138783
0.138832
0.138846
0.138827
0.138774
0.138685
0.138552
0.138363
0.138095
0.137718
0.137189
0.136411
0.135286
0.13393
0.131791
0.126078
0.114532
0.103609
0.106284
0.13445
0.199678
0.317042
0.486677
0.669935
0.794352
0.790684
0.806133
0.778857
0.738527
0.988353
0.90882
0.801544
0.841103
0.137712
0.137706
0.137733
0.137752
0.137778
0.137848
0.137768
0.137503
0.137193
0.136879
0.136544
0.136191
0.135825
0.135448
0.135067
0.134676
0.134272
0.133848
0.1334
0.13292
0.132406
0.131853
0.131254
0.130593
0.129854
0.129034
0.128128
0.127128
0.126026
0.124815
0.123486
0.122034
0.120454
0.118747
0.116908
0.114954
0.112751
0.110927
0.106648
0.138396
0.138552
0.138747
0.138929
0.139081
0.139207
0.139301
0.139364
0.139399
0.139409
0.139393
0.139355
0.139288
0.139183
0.139029
0.138803
0.138477
0.138
0.137233
0.136188
0.13502
0.132319
0.124453
0.111931
0.105025
0.11736
0.164615
0.268778
0.442879
0.656143
0.832719
0.880667
0.893162
0.891364
0.898126
1.13744
1.02887
0.879184
0.897347
0.138375
0.138427
0.138525
0.138628
0.138747
0.138855
0.138807
0.138609
0.138346
0.138086
0.137793
0.137464
0.137101
0.136713
0.136318
0.135925
0.135536
0.135147
0.134753
0.134345
0.133918
0.133463
0.132975
0.132439
0.131841
0.13118
0.130451
0.129647
0.128761
0.127784
0.126708
0.125526
0.124231
0.122819
0.121281
0.119628
0.117742
0.116136
0.112472
0.138845
0.138971
0.139143
0.13931
0.139453
0.139576
0.139671
0.13974
0.139787
0.139814
0.139822
0.139816
0.13979
0.13974
0.139659
0.139534
0.139343
0.139064
0.138605
0.137837
0.136981
0.135853
0.131695
0.121435
0.110141
0.109355
0.136264
0.218689
0.385324
0.620992
0.850011
0.96166
0.984312
1.01037
1.0752
1.30326
1.15968
0.959218
0.930973
0.13885
0.138926
0.13905
0.139177
0.139304
0.139398
0.139371
0.139279
0.139146
0.138988
0.138796
0.138557
0.138259
0.137902
0.137512
0.137104
0.136694
0.136295
0.135909
0.135527
0.135144
0.13475
0.134336
0.133887
0.133394
0.132853
0.132259
0.131608
0.130891
0.130101
0.129231
0.128272
0.127217
0.126061
0.124791
0.123415
0.121828
0.120429
0.117339
0.139175
0.139283
0.139438
0.139593
0.139727
0.139845
0.139939
0.14001
0.140063
0.1401
0.140124
0.140136
0.140137
0.140122
0.140089
0.14003
0.139928
0.139772
0.139528
0.139046
0.138345
0.137767
0.136135
0.129782
0.118357
0.109607
0.118016
0.173492
0.320133
0.566405
0.844153
1.02995
1.0816
1.13832
1.26827
1.48373
1.30486
1.04652
0.947783
0.139187
0.139265
0.139389
0.139506
0.139608
0.139675
0.139653
0.139602
0.139538
0.139455
0.139354
0.139229
0.139068
0.13885
0.13856
0.13819
0.13778
0.137363
0.136955
0.136564
0.136189
0.13582
0.135446
0.135054
0.134634
0.13418
0.133688
0.133152
0.132566
0.131923
0.131215
0.130436
0.129577
0.128633
0.127592
0.126456
0.125138
0.123932
0.121349
0.139416
0.139514
0.139658
0.139803
0.13993
0.140042
0.140133
0.140204
0.14026
0.140303
0.140336
0.140362
0.14038
0.140389
0.140388
0.140371
0.14033
0.14025
0.140131
0.139886
0.139378
0.138903
0.138446
0.135474
0.126942
0.115494
0.110468
0.138525
0.254693
0.496689
0.815484
1.08245
1.18652
1.28844
1.47538
1.67454
1.46841
1.14821
0.972678
0.139425
0.139497
0.139609
0.13971
0.13979
0.139842
0.139827
0.139789
0.139747
0.139696
0.139637
0.139568
0.139485
0.13938
0.139237
0.139027
0.138727
0.13834
0.137926
0.137514
0.137122
0.136748
0.136386
0.136023
0.135647
0.135254
0.134836
0.134387
0.133901
0.133371
0.132791
0.132153
0.131451
0.130678
0.129824
0.128889
0.127802
0.126778
0.124625
0.139595
0.139687
0.139822
0.139959
0.140079
0.140185
0.140273
0.140343
0.1404
0.140447
0.140486
0.14052
0.14055
0.140576
0.140596
0.140608
0.140608
0.140582
0.140531
0.140438
0.140148
0.139715
0.139566
0.13868
0.133819
0.123732
0.111738
0.116507
0.19614
0.418114
0.767002
1.11702
1.30064
1.45696
1.69534
1.87065
1.64909
1.27175
1.02501
0.139599
0.139662
0.139759
0.139844
0.13991
0.139958
0.139949
0.139921
0.13989
0.139854
0.139815
0.13977
0.13972
0.139661
0.139589
0.139491
0.139344
0.139116
0.138787
0.138387
0.13798
0.137587
0.137214
0.136855
0.1365
0.136143
0.135776
0.13539
0.134979
0.134536
0.134055
0.133528
0.13295
0.132313
0.131611
0.130839
0.129942
0.12908
0.127289
0.139731
0.139818
0.139945
0.140074
0.140187
0.140288
0.140372
0.140441
0.140499
0.140548
0.140591
0.140631
0.140669
0.140706
0.140741
0.140773
0.140799
0.140812
0.140805
0.14079
0.140681
0.140364
0.140184
0.140163
0.138247
0.131599
0.118487
0.107199
0.149824
0.337896
0.701778
1.13341
1.42616
1.64028
1.92502
2.06781
1.83619
1.42306
1.11032
0.139731
0.139785
0.139866
0.139936
0.139995
0.140041
0.140037
0.140016
0.139993
0.139968
0.139941
0.139912
0.139879
0.139842
0.139798
0.139744
0.139672
0.139565
0.139392
0.139122
0.138761
0.13836
0.137969
0.137597
0.137242
0.1369
0.136562
0.13622
0.135864
0.135486
0.13508
0.13464
0.134159
0.133632
0.13305
0.13241
0.131667
0.130942
0.12945
0.139838
0.139919
0.140038
0.140159
0.140266
0.140362
0.140443
0.140509
0.140567
0.140617
0.140662
0.140706
0.14075
0.140794
0.140839
0.140884
0.140928
0.140969
0.140996
0.141019
0.141023
0.140865
0.140647
0.140749
0.140488
0.137482
0.127242
0.108042
0.118362
0.262897
0.624353
1.13235
1.54774
1.8339
2.1475
2.26315
2.02414
1.58477
1.20884
0.139834
0.139876
0.139942
0.140001
0.140055
0.140101
0.140099
0.140084
0.140067
0.140048
0.140031
0.140013
0.139993
0.139969
0.139941
0.139907
0.139865
0.139809
0.139726
0.139589
0.139367
0.139049
0.138669
0.138284
0.137916
0.13757
0.137243
0.136924
0.136603
0.136273
0.135924
0.135551
0.135146
0.134705
0.134218
0.133685
0.133066
0.132454
0.131214
0.139921
0.139998
0.140109
0.140222
0.140322
0.140413
0.14049
0.140555
0.140612
0.140662
0.140709
0.140755
0.140802
0.140851
0.140902
0.140955
0.14101
0.141069
0.141123
0.141171
0.141229
0.141214
0.141052
0.141023
0.141296
0.140944
0.135314
0.115312
0.101584
0.198444
0.53995
1.11316
1.65443
2.03546
2.35756
2.45512
2.21242
1.75408
1.32321
0.139912
0.139942
0.139993
0.140046
0.140097
0.140142
0.140141
0.14013
0.140117
0.140105
0.140094
0.140084
0.140073
0.14006
0.140044
0.140022
0.139995
0.13996
0.139913
0.139844
0.139731
0.139544
0.139267
0.138923
0.138554
0.138198
0.137864
0.137548
0.137244
0.136941
0.136632
0.136308
0.135962
0.135587
0.135177
0.134728
0.134208
0.13369
0.132683
0.139984
0.140058
0.140162
0.140268
0.140362
0.140448
0.140521
0.140584
0.140639
0.140689
0.140736
0.140784
0.140833
0.140884
0.140939
0.140998
0.14106
0.141129
0.141201
0.141269
0.141349
0.141424
0.141386
0.141263
0.141429
0.142361
0.141174
0.125252
0.0971644
0.147708
0.453676
1.07584
1.7391
2.21754
2.55334
2.64292
2.40212
1.93405
1.45753
0.139968
0.139986
0.140028
0.140075
0.140124
0.140165
0.140164
0.140158
0.14015
0.140143
0.140137
0.140133
0.140129
0.140123
0.140115
0.140104
0.140087
0.140065
0.140035
0.139994
0.139933
0.139834
0.139672
0.139436
0.139137
0.138804
0.138464
0.13814
0.137833
0.137538
0.137248
0.136954
0.136649
0.136324
0.135973
0.135591
0.135151
0.134709
0.133926
0.140029
0.140101
0.140199
0.140299
0.140387
0.140468
0.140538
0.140598
0.140651
0.140701
0.140749
0.140797
0.140847
0.140901
0.140959
0.141021
0.141088
0.141162
0.141244
0.141329
0.141417
0.141531
0.141616
0.141528
0.141405
0.142487
0.144429
0.134922
0.101622
0.1117
0.369962
1.021
1.79673
2.37232
2.7334
2.82573
2.59423
2.12697
1.61516
0.140006
0.140016
0.140052
0.140093
0.140136
0.140173
0.140174
0.140172
0.140169
0.140166
0.140165
0.140165
0.140166
0.140166
0.140165
0.14016
0.140152
0.140138
0.140119
0.140092
0.140055
0.14
0.13991
0.139768
0.139568
0.139317
0.139031
0.138724
0.138414
0.138113
0.137823
0.137539
0.137254
0.13696
0.13665
0.136317
0.135939
0.135557
0.134963
0.14006
0.14013
0.140223
0.140317
0.1404
0.140477
0.140543
0.140601
0.140653
0.140701
0.140749
0.140798
0.140849
0.140904
0.140964
0.141029
0.1411
0.141177
0.141264
0.141359
0.141456
0.141573
0.141737
0.141776
0.141467
0.142052
0.14547
0.142544
0.111286
0.0897062
0.292219
0.949692
1.82381
2.49721
2.89598
3.00233
2.78887
2.33341
1.79769
0.140032
0.140037
0.140065
0.1401
0.140137
0.140174
0.140176
0.140176
0.140177
0.140178
0.140182
0.140186
0.14019
0.140195
0.140198
0.140198
0.140196
0.140189
0.140178
0.14016
0.140136
0.140102
0.14005
0.139967
0.139842
0.139676
0.139471
0.139232
0.138968
0.138689
0.138403
0.138117
0.137834
0.137551
0.13726
0.136958
0.13662
0.136278
0.13583
0.140079
0.140147
0.140235
0.140324
0.140403
0.140476
0.140539
0.140594
0.140645
0.140693
0.14074
0.14079
0.140841
0.140897
0.140958
0.141025
0.141098
0.141178
0.141267
0.141369
0.141473
0.141584
0.14177
0.141953
0.141652
0.141572
0.145033
0.147413
0.122964
0.0799007
0.222906
0.863527
1.81773
2.58957
3.03863
3.1708
2.98494
2.55249
2.0047
0.140048
0.140048
0.140069
0.140097
0.140133
0.140173
0.140176
0.140177
0.14018
0.140184
0.140191
0.140198
0.140206
0.140213
0.140219
0.140224
0.140225
0.140224
0.140218
0.140208
0.140193
0.140171
0.140138
0.140087
0.14001
0.139904
0.139767
0.139601
0.139408
0.13919
0.138951
0.138698
0.138432
0.138158
0.137873
0.137581
0.137262
0.136936
0.136579
0.140088
0.140153
0.140237
0.140321
0.140397
0.140466
0.140527
0.14058
0.14063
0.140677
0.140725
0.140774
0.140826
0.140882
0.140944
0.141011
0.141086
0.141168
0.141258
0.141362
0.141475
0.14158
0.141749
0.142032
0.141893
0.141307
0.143876
0.149612
0.134259
0.0799089
0.163759
0.764452
1.77664
2.64619
3.15807
3.3283
3.18006
2.78162
2.23435
0.140054
0.14005
0.140065
0.140091
0.14013
0.140172
0.140177
0.140178
0.140181
0.140187
0.140195
0.140205
0.140215
0.140225
0.140233
0.14024
0.140245
0.140247
0.140246
0.140241
0.140232
0.140218
0.140196
0.140164
0.140116
0.140047
0.139958
0.139847
0.139714
0.13956
0.139386
0.139191
0.138979
0.13875
0.138502
0.138238
0.137939
0.137605
0.137279
0.140086
0.140149
0.14023
0.14031
0.140383
0.14045
0.140508
0.14056
0.140609
0.140656
0.140703
0.140752
0.140804
0.140861
0.140922
0.14099
0.141065
0.141148
0.141239
0.141343
0.141462
0.141569
0.141706
0.142021
0.142106
0.14131
0.142598
0.14968
0.143642
0.0871819
0.116012
0.655222
1.69946
2.66321
3.25007
3.47099
3.37048
3.01653
2.48311
0.140051
0.140044
0.140058
0.140087
0.140129
0.140169
0.140176
0.140178
0.14018
0.140186
0.140196
0.140207
0.140219
0.140231
0.140241
0.14025
0.140257
0.140262
0.140264
0.140263
0.140259
0.14025
0.140236
0.140215
0.140184
0.140139
0.14008
0.140007
0.139918
0.139814
0.139694
0.139558
0.139405
0.139235
0.139045
0.138844
0.138601
0.138323
0.137991
0.140077
0.140138
0.140215
0.140293
0.140363
0.140427
0.140485
0.140536
0.140583
0.14063
0.140677
0.140726
0.140777
0.140833
0.140895
0.140962
0.141036
0.141119
0.141211
0.141313
0.141435
0.141551
0.14166
0.141948
0.142233
0.141515
0.141569
0.148325
0.150346
0.0992575
0.0806206
0.539258
1.58609
2.6366
3.30935
3.59388
3.55115
3.25146
2.74543
0.140041
0.140035
0.140053
0.140085
0.140126
0.140161
0.140167
0.140172
0.140175
0.140182
0.140192
0.140205
0.140218
0.140232
0.140244
0.140255
0.140264
0.140271
0.140275
0.140277
0.140277
0.140272
0.140263
0.14025
0.140229
0.1402
0.140161
0.140112
0.140053
0.139984
0.139905
0.139814
0.139709
0.139592
0.139458
0.13932
0.139138
0.138968
0.138674
0.140063
0.140122
0.140196
0.140271
0.140339
0.140401
0.140457
0.140507
0.140554
0.1406
0.140646
0.140695
0.140746
0.140801
0.140862
0.140928
0.141002
0.141084
0.141175
0.141276
0.141397
0.141522
0.141618
0.141847
0.142255
0.141809
0.140956
0.146235
0.154164
0.11386
0.0583069
0.421222
1.43778
2.56223
3.32975
3.69078
3.71577
3.47922
3.01402
0.14003
0.140028
0.14005
0.140081
0.140114
0.140143
0.140149
0.140156
0.140163
0.140171
0.140183
0.140197
0.140212
0.140227
0.140242
0.140254
0.140265
0.140274
0.140281
0.140285
0.140287
0.140286
0.140281
0.140273
0.140259
0.14024
0.140215
0.140182
0.140144
0.140099
0.140047
0.139988
0.139919
0.139843
0.139754
0.139664
0.139537
0.139441
0.139219
0.140049
0.140106
0.140177
0.140248
0.140312
0.140372
0.140426
0.140475
0.140521
0.140566
0.140612
0.14066
0.140711
0.140765
0.140825
0.14089
0.140963
0.141043
0.141133
0.141233
0.14135
0.141482
0.14158
0.141742
0.142183
0.142087
0.140774
0.14399
0.155264
0.128887
0.0493812
0.306903
1.25781
2.43647
3.30422
3.75429
3.85685
3.69154
3.27984
0.140022
0.140025
0.140047
0.140071
0.140094
0.140117
0.140123
0.140131
0.140142
0.140153
0.140168
0.140184
0.140201
0.140218
0.140234
0.140248
0.140261
0.140272
0.140281
0.140287
0.140291
0.140293
0.140291
0.140287
0.140279
0.140267
0.14025
0.14023
0.140205
0.140176
0.140144
0.140107
0.140064
0.140017
0.13996
0.139904
0.13982
0.139775
0.139618
0.14004
0.140092
0.140158
0.140226
0.140286
0.140343
0.140395
0.140441
0.140486
0.14053
0.140575
0.140623
0.140673
0.140727
0.140785
0.14085
0.140921
0.141
0.141088
0.141185
0.141297
0.141431
0.14154
0.141649
0.142046
0.142275
0.140943
0.142025
0.154084
0.142439
0.0533908
0.203309
1.05193
2.25707
3.22517
3.7758
3.96573
3.87907
3.53242
0.140018
0.140022
0.14004
0.140056
0.140074
0.140093
0.140096
0.140105
0.140117
0.140132
0.140149
0.140166
0.140185
0.140204
0.140222
0.140238
0.140253
0.140265
0.140276
0.140284
0.14029
0.140294
0.140295
0.140293
0.14029
0.140283
0.140273
0.140261
0.140246
0.140229
0.14021
0.140188
0.140163
0.140136
0.140103
0.140071
0.140017
0.140004
0.139902
0.140034
0.140081
0.140143
0.140206
0.140262
0.140316
0.140364
0.140409
0.140452
0.140495
0.140538
0.140585
0.140634
0.140686
0.140744
0.140807
0.140877
0.140955
0.141041
0.141136
0.141241
0.141372
0.141494
0.141575
0.141879
0.142332
0.141328
0.14063
0.151247
0.152884
0.0686396
0.118211
0.829282
2.02391
3.08509
3.74565
4.03267
4.0316
3.7601
0.140016
0.140018
0.140031
0.140045
0.140065
0.140083
0.140084
0.14009
0.140102
0.140117
0.140134
0.140153
0.140172
0.140191
0.140209
0.140226
0.140242
0.140256
0.140268
0.140278
0.140285
0.140291
0.140294
0.140295
0.140294
0.140291
0.140287
0.140281
0.140274
0.140265
0.140255
0.140245
0.140232
0.140219
0.140202
0.140188
0.140155
0.14016
0.140099
0.14003
0.140073
0.140131
0.140188
0.140241
0.140291
0.140337
0.140379
0.14042
0.140461
0.140503
0.140547
0.140595
0.140646
0.140702
0.140764
0.140832
0.140907
0.140992
0.141084
0.141185
0.141307
0.14144
0.141516
0.141714
0.142258
0.141775
0.139947
0.14753
0.159039
0.0918332
0.0590432
0.602939
1.74063
2.87741
3.65335
4.04685
4.13806
3.9501
0.140012
0.140012
0.140025
0.140046
0.140078
0.140105
0.140103
0.140104
0.140111
0.140123
0.140137
0.140153
0.14017
0.140186
0.140203
0.140219
0.140234
0.140248
0.14026
0.140271
0.140279
0.140285
0.140289
0.140292
0.140294
0.140294
0.140294
0.140292
0.14029
0.140288
0.140286
0.140283
0.14028
0.140276
0.140271
0.140269
0.140252
0.140268
0.140235
0.140024
0.140065
0.140119
0.140173
0.140222
0.14027
0.140312
0.140352
0.14039
0.140429
0.140469
0.140512
0.140557
0.140607
0.140661
0.14072
0.140786
0.14086
0.140941
0.141032
0.141129
0.141242
0.141378
0.141466
0.141575
0.14208
0.142141
0.139962
0.143783
0.160433
0.118105
0.0309974
0.390018
1.41628
2.59795
3.4883
3.99654
4.18665
4.08872
0.140006
0.140007
0.140028
0.140062
0.140115
0.140168
0.140165
0.140159
0.140157
0.140161
0.140168
0.140178
0.140188
0.1402
0.140212
0.140224
0.140236
0.140247
0.140258
0.140267
0.140275
0.140281
0.140285
0.140289
0.140292
0.140294
0.140296
0.140298
0.1403
0.140303
0.140305
0.140309
0.140312
0.140316
0.140319
0.140326
0.14032
0.140345
0.14033
0.140015
0.140054
0.140106
0.140157
0.140205
0.140249
0.14029
0.140327
0.140363
0.1404
0.140438
0.140478
0.140522
0.140569
0.140621
0.140678
0.140742
0.140812
0.140891
0.140979
0.141074
0.141178
0.141309
0.141417
0.141475
0.141849
0.142321
0.140503
0.140812
0.157548
0.141746
0.0345356
0.210693
1.06739
2.24722
3.24077
3.86943
4.16502
4.16266
0.139999
0.140006
0.140039
0.140093
0.140178
0.140266
0.140266
0.140251
0.140237
0.14023
0.140227
0.140227
0.140229
0.140233
0.140238
0.140244
0.140251
0.140258
0.140264
0.140271
0.140276
0.140281
0.140284
0.140288
0.140291
0.140294
0.140297
0.140301
0.140306
0.140312
0.140318
0.140325
0.140334
0.140343
0.140352
0.140365
0.140369
0.140399
0.140396
0.140005
0.140041
0.140091
0.14014
0.140185
0.140228
0.140267
0.140302
0.140337
0.140372
0.140408
0.140447
0.140488
0.140533
0.140583
0.140638
0.140698
0.140766
0.140841
0.140926
0.141018
0.141117
0.141237
0.141361
0.14141
0.141624
0.142278
0.141275
0.139173
0.151868
0.157721
0.0631603
0.0847462
0.719719
1.83349
2.90411
3.65331
4.06047
4.15869
0.139994
0.140009
0.140058
0.140141
0.140262
0.140375
0.14038
0.140356
0.14033
0.140309
0.140296
0.140287
0.140281
0.140277
0.140275
0.140275
0.140276
0.140278
0.14028
0.140282
0.140285
0.140287
0.140288
0.14029
0.140292
0.140295
0.140299
0.140304
0.14031
0.140318
0.140327
0.140337
0.140348
0.140361
0.140375
0.140393
0.140405
0.140439
0.140443
0.139994
0.140027
0.140073
0.14012
0.140163
0.140204
0.140241
0.140276
0.140309
0.140343
0.140378
0.140416
0.140456
0.140499
0.140547
0.140599
0.140657
0.140721
0.140793
0.140873
0.140963
0.141057
0.141165
0.141294
0.141364
0.141451
0.142053
0.141947
0.138979
0.14555
0.16349
0.10358
0.0249869
0.408219
1.37683
2.47788
3.3377
3.8605
4.0637
0.139989
0.140017
0.140091
0.140209
0.140356
0.140465
0.140473
0.140442
0.140405
0.140373
0.140351
0.140335
0.140323
0.140315
0.14031
0.140305
0.140302
0.1403
0.140299
0.140298
0.140297
0.140296
0.140296
0.140296
0.140297
0.140299
0.140302
0.140307
0.140314
0.140323
0.140333
0.140345
0.140359
0.140375
0.140392
0.140414
0.140431
0.140468
0.140477
0.139983
0.14001
0.140052
0.140095
0.140137
0.140176
0.140213
0.140247
0.14028
0.140314
0.140348
0.140385
0.140424
0.140466
0.140511
0.140562
0.140617
0.140678
0.140747
0.140823
0.140908
0.140999
0.141097
0.14122
0.141318
0.141345
0.141747
0.142281
0.139847
0.140683
0.160136
0.139884
0.0286665
0.172341
0.91355
1.97304
2.9168
3.55393
3.8657
0.139988
0.140037
0.140147
0.140294
0.140437
0.140513
0.140519
0.140486
0.140442
0.140403
0.140374
0.140355
0.140342
0.140333
0.140327
0.140322
0.140318
0.140315
0.140313
0.14031
0.140308
0.140305
0.140303
0.140301
0.140301
0.140302
0.140305
0.14031
0.140317
0.140326
0.140338
0.140352
0.140367
0.140385
0.140405
0.140429
0.14045
0.14049
0.140502
0.139974
0.139993
0.14003
0.14007
0.140109
0.140147
0.140183
0.140217
0.14025
0.140283
0.140317
0.140353
0.140391
0.140432
0.140476
0.140524
0.140578
0.140636
0.140702
0.140774
0.140855
0.140943
0.141034
0.141143
0.141261
0.141291
0.141471
0.142222
0.141067
0.138444
0.151826
0.160546
0.0731633
0.0428181
0.497451
1.41902
2.39465
3.13342
3.55476
0.140001
0.140085
0.140231
0.140378
0.140481
0.140521
0.140522
0.140491
0.140446
0.140403
0.140371
0.14035
0.140336
0.140328
0.140324
0.140321
0.140318
0.140317
0.140315
0.140312
0.14031
0.140307
0.140304
0.140302
0.140302
0.140302
0.140305
0.14031
0.140317
0.140327
0.14034
0.140355
0.140372
0.140391
0.140413
0.140439
0.140462
0.140505
0.14052
0.139979
0.139986
0.140015
0.140051
0.140086
0.140122
0.140157
0.140189
0.140221
0.140253
0.140286
0.140321
0.140358
0.140398
0.140441
0.140488
0.140539
0.140595
0.140658
0.140727
0.140803
0.140887
0.140974
0.14107
0.141189
0.141256
0.141292
0.141899
0.141969
0.138665
0.143622
0.163526
0.124493
0.0209829
0.191468
0.871206
1.7937
2.60045
3.12521
0.140045
0.140169
0.140327
0.140434
0.140484
0.140507
0.140505
0.140478
0.140438
0.140396
0.140363
0.14034
0.140325
0.140317
0.140312
0.14031
0.140309
0.140308
0.140308
0.140306
0.140305
0.140302
0.1403
0.140298
0.140298
0.140299
0.140302
0.140307
0.140315
0.140325
0.140339
0.140355
0.140373
0.140394
0.140417
0.140444
0.14047
0.140515
0.140533
0.140017
0.140003
0.14002
0.140047
0.140077
0.140108
0.140139
0.140168
0.140198
0.140228
0.140259
0.140292
0.140328
0.140366
0.140407
0.140452
0.140502
0.140556
0.140615
0.140681
0.140754
0.140833
0.140917
0.141003
0.14111
0.141212
0.141212
0.141523
0.14224
0.140151
0.138913
0.155342
0.15651
0.0678592
0.0397599
0.410769
1.16603
1.97421
2.58052
0.14013
0.140274
0.140404
0.140451
0.140465
0.140493
0.140493
0.140474
0.140441
0.140404
0.140372
0.140348
0.140332
0.140321
0.140314
0.14031
0.140307
0.140306
0.140304
0.140303
0.140301
0.140299
0.140297
0.140295
0.140295
0.140296
0.140299
0.140305
0.140313
0.140324
0.140338
0.140355
0.140374
0.140396
0.14042
0.140449
0.140477
0.140524
0.140545
0.140098
0.140056
0.140054
0.140067
0.140086
0.14011
0.140134
0.140159
0.140184
0.140211
0.140239
0.140269
0.140302
0.140338
0.140377
0.140419
0.140466
0.140518
0.140575
0.140637
0.140706
0.140781
0.140862
0.140943
0.141033
0.141148
0.141184
0.141255
0.14199
0.141559
0.138173
0.145176
0.163292
0.125921
0.0290753
0.119994
0.601208
1.30563
1.94277
0.140241
0.140366
0.140436
0.140437
0.140451
0.140494
0.140497
0.140485
0.140461
0.140433
0.140406
0.140383
0.140366
0.140353
0.140343
0.140335
0.140329
0.140324
0.14032
0.140316
0.140312
0.140309
0.140306
0.140304
0.140304
0.140305
0.140308
0.140313
0.140321
0.140332
0.140346
0.140363
0.140383
0.140405
0.14043
0.14046
0.140489
0.140537
0.14056
0.140206
0.14014
0.140117
0.140111
0.140116
0.140128
0.140144
0.140162
0.140181
0.140203
0.140227
0.140253
0.140283
0.140315
0.140351
0.14039
0.140434
0.140483
0.140536
0.140596
0.140661
0.140731
0.140808
0.140886
0.140964
0.141069
0.141156
0.141135
0.141552
0.142159
0.139688
0.139114
0.154778
0.158115
0.0877339
0.0248723
0.207003
0.689706
1.26809
0.140342
0.140412
0.140427
0.14042
0.140459
0.14051
0.140513
0.140503
0.140486
0.140467
0.140449
0.140432
0.140418
0.140406
0.140396
0.140387
0.140378
0.14037
0.140362
0.140356
0.140349
0.140344
0.14034
0.140337
0.140336
0.140336
0.140339
0.140343
0.14035
0.14036
0.140373
0.140389
0.140408
0.140431
0.140455
0.140485
0.140514
0.140562
0.140586