/*--------------------------------*- C++ -*----------------------------------*\
  =========                 |
  \\      /  F ield         | OpenFOAM: The Open Source CFD Toolbox
   \\    /   O peration     | Website:  https://openfoam.org
    \\  /    A nd           | Version:  9
     \\/     M anipulation  |
\*---------------------------------------------------------------------------*/
FoamFile
{
    format      ascii;
    class       volScalarField;
    location    "0.2";
    object      epsilon;
}
// * * * * * * * * * * * * * * * * * * * * * * * * * * * * * * * * * * * * * //

dimensions      [0 2 -3 0 0 0 0];

internalField   nonuniform List<scalar> 
12225
(
278.515
263.66
249.434
236.839
226.738
219.483
215.069
213.263
213.706
215.991
219.713
224.504
230.043
236.066
242.373
248.793
255.363
264.876
61.116
86.6953
97.9914
107.208
118.465
132.557
149.411
168.612
189.578
211.684
234.338
257.03
279.354
301.015
321.919
341.902
362.483
381.036
25.2776
36.183
43.3817
48.6213
53.3864
58.3363
63.7706
69.8256
76.5263
83.8242
91.6294
99.8325
108.322
116.998
125.793
134.688
143.831
153.215
17.5217
21.2986
24.7145
27.61
30.162
32.5401
34.8667
37.228
39.6772
42.2407
44.9261
47.7289
50.6381
53.6412
56.7297
59.9112
63.2041
66.6351
15.4878
16.7519
18.1858
19.5889
20.9095
22.149
23.3264
24.4652
25.5864
26.7052
27.8313
28.9705
30.1255
31.298
32.4894
33.7048
34.9491
36.2189
14.9084
15.2396
15.7463
16.3341
16.9476
17.5589
18.1558
18.7356
19.3002
19.8526
20.3962
20.9336
21.4668
21.9978
22.5282
23.0604
23.596
24.1294
14.7451
14.7391
14.8342
15.0036
15.2215
15.4679
15.7286
15.9948
16.262
16.5275
16.7902
17.0499
17.3066
17.5605
17.8122
18.0624
18.3116
18.5555
14.7012
14.5825
14.5116
14.4858
14.4981
14.5403
14.6043
14.6837
14.7737
14.8708
14.9725
15.0772
15.1837
15.2914
15.3997
15.5085
15.6175
15.7241
14.6901
14.5373
14.407
14.3009
14.2182
14.1571
14.1145
14.0875
14.0733
14.0693
14.0735
14.0844
14.1007
14.1212
14.1453
14.1723
14.2017
14.232
14.6874
14.5252
14.3761
14.2411
14.1204
14.0137
13.9203
13.8391
13.7688
13.7083
13.6564
13.6119
13.574
13.5419
13.5147
13.492
13.4731
13.4574
14.6868
14.5221
14.3677
14.2236
14.0896
13.9656
13.8512
13.746
13.6495
13.5611
13.4801
13.4061
13.3383
13.2763
13.2197
13.1678
13.1204
13.0772
14.6866
14.5213
14.3656
14.219
14.0812
13.9518
13.8305
13.7169
13.6105
13.5111
13.4182
13.3314
13.2503
13.1747
13.104
13.038
12.9764
12.9194
14.6865
14.521
14.3648
14.2175
14.0785
13.9473
13.8234
13.7065
13.5963
13.4922
13.3941
13.3015
13.2142
13.1319
13.0543
12.981
12.912
12.8475
14.6864
14.5208
14.3645
14.2169
14.0774
13.9456
13.8209
13.7029
13.5913
13.4855
13.3853
13.2904
13.2005
13.1152
13.0344
12.9578
12.8853
12.8171
14.6864
14.5207
14.3643
14.2165
14.0769
13.9449
13.8199
13.7016
13.5895
13.4832
13.3824
13.2868
13.196
13.1098
13.0279
12.9501
12.8762
12.8068
14.6863
14.5206
14.3641
14.2163
14.0766
13.9444
13.8194
13.7009
13.5886
13.4822
13.3812
13.2854
13.1943
13.1079
13.0257
12.9475
12.8732
12.8033
14.6863
14.5205
14.364
14.2161
14.0763
13.9441
13.8189
13.7004
13.5881
13.4815
13.3805
13.2845
13.1934
13.1068
13.0245
12.9462
12.8718
12.8018
14.6863
14.5204
14.3639
14.216
14.0761
13.9439
13.8187
13.7001
13.5877
13.4811
13.3799
13.2839
13.1927
13.1061
13.0237
12.9454
12.8709
12.8008
14.6863
14.5204
14.3639
14.2159
14.0761
13.9438
13.8186
13.6999
13.5875
13.4809
13.3797
13.2837
13.1925
13.1058
13.0233
12.9449
12.8704
12.8003
14.6863
14.5205
14.3639
14.216
14.0762
13.9439
13.8187
13.7001
13.5877
13.4811
13.38
13.284
13.1928
13.1061
13.0237
12.9454
12.8709
12.8008
14.6863
14.5205
14.364
14.2162
14.0764
13.9443
13.8192
13.7007
13.5885
13.4821
13.3812
13.2854
13.1945
13.1082
13.0262
12.9483
12.8742
12.8046
14.6863
14.5206
14.3643
14.2167
14.0773
13.9457
13.8214
13.7039
13.5928
13.4879
13.3886
13.2947
13.2059
13.1218
13.0423
12.9669
12.8956
12.8288
14.6865
14.5212
14.3659
14.2202
14.0837
13.956
13.8368
13.7256
13.6218
13.525
13.4348
13.3506
13.272
13.1986
13.13
13.0659
13.006
12.9505
14.6876
14.5264
14.3793
14.2467
14.1282
14.0231
13.9302
13.8484
13.7762
13.7126
13.6565
13.6068
13.5628
13.5237
13.489
13.4581
13.4306
13.4066
14.6976
14.5664
14.4707
14.4075
14.3714
14.3568
14.3584
14.372
14.3941
14.4224
14.455
14.4908
14.5286
14.568
14.6085
14.6496
14.6912
14.7332
14.7737
14.8187
14.9603
15.1591
15.3863
15.6233
15.8597
16.0904
16.3134
16.5284
16.7358
16.9364
17.1312
17.3209
17.5064
17.6882
17.8667
18.0415
15.2587
16.1151
17.0712
17.9727
18.7879
19.5238
20.1944
20.8148
21.3987
21.9572
22.4986
23.0289
23.5525
24.0723
24.59
25.1064
25.6218
26.1337
18.0414
22.0079
24.9885
27.1532
28.8883
30.4049
31.8125
33.1784
34.5437
35.9309
37.3511
38.8081
40.301
41.8258
43.3769
44.948
46.5326
48.1176
34.024
45.6878
51.3768
54.9424
58.0809
61.2981
64.751
68.4834
72.4795
76.6962
81.0833
85.5911
90.1731
94.7875
99.3986
103.978
108.509
112.965
163.308
157.417
151.704
146.261
141.3
136.947
133.25
130.206
127.78
125.918
124.558
123.637
123.093
122.87
122.917
123.187
123.641
124.242
0.265576
0.30941
0.506636
0.687161
0.884182
1.10897
1.36454
1.6564
1.98384
2.32303
2.6753
3.03884
3.41116
3.78979
4.17246
4.55705
4.94156
5.32408
5.70269
6.07542
6.44023
6.79484
7.13675
7.46317
7.77115
8.0579
8.32119
8.55945
8.77113
8.95277
9.09639
9.18879
9.21833
9.1953
9.17048
9.2344
9.32735
39.9073
39.9273
9.39265
39.9914
40.478
40.6952
41.0673
43.8212
46.836
50.0406
53.4198
56.9708
60.6915
64.5822
68.6438
72.8783
77.2876
81.874
86.6397
91.5868
96.7173
102.033
107.536
113.227
119.106
125.176
131.436
137.885
144.524
151.351
158.366
165.565
172.947
180.508
188.246
196.157
204.237
212.48
220.882
229.436
238.138
246.979
255.954
265.055
274.275
283.604
293.035
302.559
312.166
321.847
331.592
341.391
351.232
361.105
370.997
380.898
390.794
400.675
410.529
420.35
430.136
439.898
449.668
459.403
469.007
478.479
487.81
496.988
505.996
514.821
523.445
531.854
540.031
547.961
555.63
563.023
570.126
576.925
583.407
589.561
595.373
600.834
605.932
610.659
615.005
618.963
622.526
625.688
628.444
630.789
632.72
634.235
635.333
636.013
636.277
636.126
635.562
634.591
633.216
631.443
629.279
626.732
623.81
620.522
616.879
612.891
608.571
603.929
598.98
593.737
588.214
582.424
576.384
570.109
563.613
556.912
550.024
542.963
535.744
528.387
520.904
513.314
505.633
497.867
490.059
482.179
474.321
466.566
460.187
457.173
454.5
451.832
449.152
446.462
443.759
441.037
438.274
435.425
432.388
428.929
424.442
417.443
401.522
0.963537
0.593944
0.611566
0.705332
0.840982
1.00897
1.20762
1.43483
1.68677
1.95799
2.24497
2.54511
2.85633
3.17699
3.50572
3.8414
4.18309
4.53003
4.88161
5.23745
5.59739
5.96152
6.33027
6.70451
7.08577
7.47669
7.88169
8.30783
8.76582
9.27148
9.84798
10.5273
11.3406
12.2843
13.2817
14.2133
15.3247
17.2231
18.4715
19.4134
21.3516
22.8455
24.4858
26.2665
27.8571
29.4591
31.1056
32.81
34.5745
36.4006
38.2899
40.2439
42.2637
44.3504
46.5049
48.7279
51.0202
53.3822
55.8143
58.3168
60.8898
63.5334
66.2475
69.0317
71.8857
74.8089
77.8007
80.8602
83.9865
87.1784
90.4347
93.754
97.1347
100.575
104.073
107.627
111.235
114.895
118.603
122.358
126.157
129.997
133.875
137.787
141.732
145.705
149.703
153.722
157.759
161.809
165.868
169.933
173.998
178.061
182.117
186.165
190.204
194.236
198.27
202.329
206.411
210.454
214.449
218.391
222.274
226.092
229.839
233.51
237.098
240.597
244.001
247.304
250.502
253.587
256.556
259.402
262.121
264.708
267.159
269.469
271.634
273.651
275.517
277.228
278.781
280.175
281.407
282.475
283.379
284.116
284.687
285.091
285.329
285.401
285.308
285.051
284.632
284.052
283.315
282.424
281.38
280.188
278.851
277.373
275.759
274.013
272.14
270.145
268.033
265.81
263.481
261.052
258.529
255.918
253.225
250.455
247.618
244.715
241.756
238.746
235.686
232.601
229.45
226.324
223.254
220.491
218.361
216.386
214.442
212.508
210.581
208.659
206.744
204.835
202.928
201.016
199.076
197.096
194.953
193.718
1.89044
0.983796
0.906841
0.961747
1.07008
1.21641
1.39513
1.60242
1.83445
2.08723
2.35732
2.64198
2.93919
3.24754
3.5661
3.89433
4.23201
4.57918
4.93615
5.30353
5.68225
6.07357
6.47915
6.90111
7.34214
7.80568
8.29619
8.81928
9.3819
9.99228
10.6598
11.3937
12.1973
13.0596
13.9578
14.8794
15.8484
16.9074
18.0099
19.1512
20.3741
21.6262
22.9236
24.2467
25.5679
26.9184
28.3126
29.7562
31.2504
32.7961
34.3937
36.0436
37.7462
39.5021
41.3116
43.1749
45.0924
47.0642
49.0905
51.1713
53.3067
55.4966
57.7407
60.0388
62.3906
64.7957
67.2535
69.7633
72.3245
74.9363
77.5976
80.3075
83.0648
85.8684
88.7167
91.6084
94.5419
97.5156
100.528
103.576
106.659
109.774
112.92
116.093
119.293
122.515
125.757
129.018
132.294
135.582
138.881
142.187
145.498
148.813
152.129
155.447
158.766
162.087
165.414
168.744
172.059
175.343
178.591
181.795
184.952
188.057
191.105
194.09
197.007
199.853
202.622
205.309
207.91
210.42
212.835
215.15
217.363
219.468
221.462
223.342
225.104
226.746
228.265
229.658
230.923
232.059
233.062
233.933
234.67
235.272
235.739
236.07
236.267
236.328
236.255
236.049
235.711
235.243
234.647
233.925
233.08
232.114
231.03
229.831
228.522
227.105
225.585
223.965
222.251
220.445
218.553
216.58
214.528
212.406
210.216
207.962
205.653
203.289
200.879
198.426
195.924
193.415
190.878
188.345
185.845
183.471
181.32
179.265
177.246
175.245
173.259
171.287
169.333
167.399
165.492
163.623
161.81
160.116
158.629
158.15
2.93411
1.42127
1.22971
1.24071
1.32707
1.45914
1.62644
1.8235
2.04621
2.29096
2.55458
2.83448
3.12871
3.43597
3.75549
4.08698
4.43053
4.78654
5.15573
5.53908
5.93785
6.35356
6.78803
7.24334
7.72187
8.22634
8.75978
9.32553
9.92703
10.5677
11.2507
11.9786
12.7521
13.569
14.4258
15.3214
16.2584
17.2414
18.2701
19.3438
20.4627
21.6215
22.8186
24.0508
25.3156
26.6181
27.9632
29.3539
30.7918
32.2781
33.8133
35.398
37.0328
38.7181
40.4542
42.2416
44.0807
45.9717
47.9149
49.9105
51.9587
54.0596
56.2131
58.4194
60.6781
62.9892
65.3523
67.767
70.2329
72.7493
75.3156
77.931
80.5945
83.3051
86.0617
88.863
91.7076
94.594
97.5206
100.486
103.487
106.524
109.592
112.692
115.819
118.973
122.149
125.347
128.564
131.796
135.043
138.3
141.567
144.841
148.121
151.404
154.691
157.979
161.265
164.538
167.789
171.009
174.192
177.333
180.427
183.468
186.452
189.373
192.227
195.008
197.712
200.334
202.869
205.313
207.662
209.91
212.055
214.092
216.018
217.83
219.523
221.096
222.545
223.869
225.064
226.13
227.065
227.867
228.535
229.07
229.469
229.735
229.866
229.863
229.728
229.461
229.065
228.54
227.889
227.114
226.218
225.203
224.074
222.833
221.483
220.029
218.475
216.824
215.081
213.25
211.337
209.345
207.278
205.144
202.945
200.683
198.373
196.006
193.598
191.161
188.689
186.2
183.693
181.185
178.697
176.274
173.955
171.7
169.48
167.283
165.108
162.954
160.827
158.733
156.682
154.694
152.8
151.08
149.646
148.967
3.9394
1.84651
1.5397
1.51011
1.57693
1.69714
1.85561
2.04516
2.26123
2.50031
2.75945
3.03629
3.32903
3.63643
3.95779
4.2929
4.64192
5.00535
5.38399
5.77885
6.19118
6.62242
7.07419
7.54824
8.04653
8.57109
9.12412
9.70781
10.3243
10.9755
11.6631
12.3887
13.1533
13.9574
14.801
15.6846
16.6088
17.5747
18.5827
19.6333
20.7263
21.8609
23.0367
24.2534
25.5113
26.8117
28.1568
29.5482
30.9874
32.4755
34.0133
35.6017
37.2415
38.9333
40.6779
42.4758
44.3277
46.2342
48.1957
50.2129
52.286
54.4156
56.6019
58.8452
61.1455
63.5031
65.9178
68.3894
70.9178
73.5026
76.1432
78.839
81.5893
84.393
87.2492
90.1567
93.114
96.1197
99.1721
102.269
105.41
108.591
111.811
115.067
118.358
121.68
125.031
128.408
131.809
135.231
138.671
142.126
145.594
149.073
152.559
156.05
159.543
163.035
166.517
169.978
173.413
176.813
180.174
183.489
186.752
189.959
193.103
196.18
199.183
202.107
204.947
207.697
210.353
212.91
215.363
217.707
219.938
222.052
224.046
225.914
227.655
229.265
230.742
232.082
233.284
234.347
235.268
236.046
236.681
237.172
237.518
237.721
237.78
237.697
237.472
237.108
236.605
235.967
235.196
234.293
233.263
232.109
230.834
229.443
227.938
226.324
224.606
222.789
220.876
218.872
216.785
214.617
212.37
210.058
207.681
205.235
202.749
200.215
197.642
195.036
192.402
189.747
187.078
184.405
181.745
179.122
176.557
174.039
171.554
169.097
166.666
164.265
161.9
159.578
157.314
155.132
153.068
151.199
149.619
148.588
4.84459
2.22861
1.82102
1.75551
1.8049
1.91449
2.06504
2.24775
2.45755
2.69088
2.94501
3.21775
3.50746
3.81299
4.13371
4.46939
4.8202
5.18661
5.56937
5.96943
6.38796
6.82625
7.28572
7.76793
8.27454
8.80727
9.36791
9.95827
10.5801
11.2349
11.9243
12.6497
13.4123
14.2131
15.0532
15.9332
16.8541
17.8165
18.8211
19.8686
20.9594
22.0939
23.2727
24.4963
25.7654
27.0809
28.4443
29.8568
31.3199
32.8346
34.4023
36.024
37.7007
39.4336
41.2237
43.072
44.9794
46.9469
48.9754
51.0658
53.2188
55.4352
57.7156
60.0607
62.4708
64.9465
67.4878
70.095
72.768
75.5066
78.3105
81.1792
84.1121
87.1082
90.1665
93.2858
96.4647
99.7015
102.994
106.342
109.741
113.19
116.686
120.227
123.809
127.431
131.089
134.779
138.5
142.246
146.016
149.806
153.612
157.43
161.258
165.092
168.927
172.757
176.568
180.355
184.109
187.824
191.494
195.113
198.674
202.171
205.597
208.946
212.213
215.39
218.472
221.453
224.327
227.089
229.734
232.257
234.653
236.917
239.045
241.033
242.878
244.576
246.125
247.522
248.765
249.851
250.781
251.552
252.164
252.616
252.909
253.043
253.018
252.837
252.501
252.012
251.371
250.583
249.649
248.573
247.358
246.008
244.529
242.924
241.197
239.353
237.399
235.339
233.176
230.916
228.571
226.142
223.623
221.044
218.401
215.697
212.943
210.144
207.306
204.434
201.535
198.617
195.684
192.748
189.82
186.916
184.05
181.221
178.424
175.659
172.927
170.233
167.582
164.987
162.463
160.035
157.742
155.65
153.825
152.414
5.61041
2.5619
2.06708
1.96956
2.00297
2.10249
2.24525
2.42096
2.624
2.85072
3.09849
3.36532
3.6497
3.95061
4.26745
4.60002
4.94847
5.31324
5.69502
6.09471
6.51339
6.95227
7.41268
7.89606
8.40392
8.93787
9.49956
10.0906
10.7127
11.3674
12.0562
12.7806
13.5418
14.3413
15.1801
16.0594
16.9802
17.9435
18.9503
20.0015
21.098
22.2407
23.4308
24.6691
25.9567
27.2948
28.6847
30.1278
31.6256
33.1797
34.7913
36.4622
38.1936
39.9872
41.8443
43.7664
45.7549
47.8111
49.9366
52.1324
54.4
56.7403
59.1545
61.6436
64.2084
66.8496
69.5678
72.3633
75.2364
78.1872
81.2154
84.3207
87.5025
90.7599
94.0919
97.4971
100.974
104.521
108.136
111.816
115.559
119.363
123.225
127.14
131.107
135.122
139.181
143.28
147.416
151.585
155.782
160.003
164.245
168.502
172.769
177.043
181.319
185.579
189.815
194.021
198.189
202.312
206.382
210.393
214.336
218.206
221.994
225.693
229.297
232.798
236.189
239.465
242.618
245.643
248.534
251.284
253.89
256.345
258.646
260.787
262.765
264.577
266.219
267.689
268.986
270.106
271.049
271.814
272.4
272.807
273.036
273.087
272.962
272.662
272.189
271.547
270.738
269.765
268.632
267.343
265.9
264.311
262.581
260.714
258.713
256.584
254.338
251.979
249.509
246.932
244.269
241.519
238.683
235.778
232.807
229.774
226.689
223.558
220.387
217.183
213.952
210.703
207.441
204.175
200.916
197.675
194.462
191.283
188.137
185.027
181.956
178.93
175.958
173.052
170.23
167.516
164.947
162.579
160.453
158.654
6.25051
2.84571
2.27508
2.14862
2.16692
2.25644
2.3911
2.55925
2.75472
2.97374
3.21373
3.47282
3.74969
4.0434
4.35345
4.67966
5.0222
5.38151
5.75824
6.15327
6.56762
7.00248
7.45912
7.93894
8.4434
8.97404
9.53246
10.1203
10.7391
11.3905
12.0761
12.7973
13.5557
14.3527
15.1897
16.0681
16.989
17.9539
18.964
20.0206
21.125
22.2786
23.4828
24.7389
26.0484
27.4129
28.8339
30.3131
31.8524
33.4537
35.1187
36.8495
38.648
40.5161
42.4558
44.4691
46.5578
48.724
50.9694
53.2959
55.7052
58.1989
60.7785
63.4455
66.2012
69.0465
71.9824
75.0097
78.1287
81.3398
84.6428
88.0376
91.5236
95.0999
98.7653
102.518
106.357
110.28
114.285
118.368
122.527
126.758
131.059
135.425
139.853
144.338
148.876
153.463
158.094
162.764
167.469
172.202
176.959
181.734
186.521
191.315
196.105
200.871
205.607
210.305
214.958
219.558
224.095
228.563
232.951
237.253
241.459
245.562
249.554
253.426
257.172
260.783
264.253
267.575
270.743
273.75
276.59
279.258
281.749
284.058
286.18
288.113
289.854
291.399
292.747
293.897
294.845
295.593
296.14
296.486
296.631
296.578
296.328
295.883
295.246
294.419
293.408
292.217
290.848
289.307
287.596
285.726
283.702
281.529
279.21
276.747
274.164
271.459
268.639
265.708
262.681
259.562
256.356
253.075
249.724
246.311
242.843
239.328
235.774
232.187
228.574
224.943
221.301
217.657
214.019
210.398
206.802
203.239
199.711
196.225
192.784
189.396
186.072
182.824
179.671
176.637
173.755
171.071
168.607
166.417
6.76367
3.07865
2.44379
2.29134
2.2952
2.37454
2.50057
2.66044
2.84747
3.05772
3.28865
3.53851
3.80607
4.09055
4.39152
4.70888
5.04283
5.39381
5.76249
6.14972
6.55653
6.98407
7.43359
7.90648
8.40417
8.92818
9.48009
10.0615
10.6741
11.3194
11.9991
12.7149
13.4684
14.2611
15.0948
15.9709
16.8911
17.8571
18.8704
19.9327
21.0457
22.2112
23.431
24.707
26.041
27.435
28.8911
30.4115
31.9984
33.6541
35.3811
37.1819
39.0589
41.0147
43.0517
45.1727
47.38
49.6763
52.0639
54.5451
57.1224
59.7979
62.5735
65.4512
68.4327
71.5195
74.7128
78.0136
81.4227
84.9404
88.5669
92.302
96.145
100.095
104.151
108.31
112.572
116.933
121.39
125.941
130.582
135.308
140.116
145.002
149.96
154.985
160.073
165.218
170.414
175.657
180.938
186.254
191.596
196.959
202.335
207.718
213.08
218.411
223.705
228.953
234.145
239.273
244.327
249.298
254.175
258.95
263.612
268.153
272.564
276.836
280.961
284.93
288.735
292.37
295.827
299.1
302.182
305.066
307.748
310.223
312.485
314.532
316.361
317.968
319.353
320.513
321.448
322.158
322.641
322.899
322.934
322.747
322.341
321.718
320.882
319.836
318.587
317.139
315.496
313.664
311.644
309.451
307.092
304.572
301.896
299.071
296.111
293.02
289.807
286.479
283.045
279.515
275.895
272.195
268.423
264.587
260.695
256.755
252.775
248.764
244.728
240.677
236.616
232.555
228.502
224.466
220.457
216.481
212.545
208.656
204.819
201.045
197.343
193.727
190.217
186.835
183.611
180.579
177.752
175.166
7.15269
3.26115
2.57372
2.39829
2.38834
2.4573
2.57413
2.72499
2.90276
3.10335
3.32421
3.56367
3.82064
4.09443
4.38472
4.69148
5.01496
5.35562
5.71415
6.09141
6.4884
6.90628
7.3463
7.80981
8.29826
8.81315
9.35609
9.92869
10.5326
11.1697
11.8415
12.5499
13.2967
14.0838
14.9129
15.786
16.7051
17.672
18.6888
19.7576
20.8806
22.0599
23.2979
24.597
25.9595
27.388
28.8851
30.4536
32.0963
33.8162
35.6162
37.4995
39.4692
41.5286
43.6809
45.9292
48.2769
50.727
53.2826
55.9468
58.7224
61.6121
64.6185
67.7441
70.9908
74.3607
77.8552
81.4757
85.2231
89.0979
93.1003
97.2299
101.486
105.868
110.373
115
119.746
124.609
129.583
134.667
139.855
145.143
150.524
155.995
161.549
167.181
172.884
178.652
184.478
190.356
196.279
202.238
208.227
214.238
220.262
226.279
232.263
238.206
244.101
249.939
255.709
261.4
267.003
272.505
277.895
283.164
288.3
293.293
298.135
302.814
307.323
311.651
315.792
319.735
323.475
327.003
330.314
333.401
336.258
338.878
341.258
343.395
345.286
346.928
348.32
349.46
350.349
350.986
351.371
351.506
351.392
351.034
350.433
349.593
348.517
347.21
345.682
343.937
341.98
339.818
337.456
334.905
332.173
329.268
326.197
322.968
319.592
316.078
312.434
308.669
304.793
300.815
296.744
292.589
288.36
284.066
279.715
275.316
270.879
266.411
261.921
257.416
252.906
248.399
243.903
239.426
234.979
230.569
226.203
221.89
217.638
213.456
209.356
205.353
201.464
197.712
194.121
190.721
187.512
184.527
7.42441
3.39548
2.6669
2.47157
2.44856
2.50701
2.61415
2.75539
2.92323
3.11346
3.32353
3.55184
3.79738
4.05959
4.33822
4.63331
4.94516
5.27427
5.62134
5.98723
6.37296
6.77968
7.20864
7.66119
8.1388
8.64301
9.17544
9.73778
10.3318
10.9594
11.6223
12.3227
13.0625
13.8438
14.6687
15.5396
16.4587
17.4285
18.4513
19.5299
20.6667
21.8647
23.1267
24.4556
25.8545
27.3265
28.8751
30.5036
32.2155
34.0145
35.9045
37.8892
39.9725
42.1585
44.4511
46.8543
49.3721
52.0083
54.7667
57.651
60.6646
63.8107
67.0925
70.5128
74.0741
77.7787
81.6283
85.6244
89.768
94.0596
98.4992
103.086
107.82
112.699
117.72
122.881
128.18
133.611
139.172
144.856
150.659
156.575
162.597
168.718
174.933
181.233
187.612
194.063
200.578
207.148
213.767
220.424
227.112
233.82
240.536
247.215
253.851
260.435
266.956
273.405
279.769
286.037
292.197
298.237
304.143
309.904
315.508
320.945
326.204
331.276
336.149
340.816
345.266
349.491
353.484
357.236
360.743
363.997
366.991
369.718
372.175
374.359
376.269
377.901
379.255
380.33
381.127
381.645
381.884
381.847
381.538
380.961
380.119
379.016
377.658
376.05
374.201
372.116
369.804
367.271
364.525
361.576
358.433
355.105
351.601
347.93
344.103
340.13
336.021
331.785
327.434
322.977
318.424
313.785
309.071
304.29
299.454
294.57
289.649
284.7
279.731
274.752
269.77
264.795
259.834
254.898
249.996
245.135
240.325
235.574
230.892
226.288
221.776
217.37
213.088
208.949
204.976
201.192
197.59
194.206
7.58923
3.48545
2.72654
2.51444
2.47924
2.52721
2.62437
2.75555
2.91302
3.09247
3.29137
3.50817
3.74194
3.9922
4.25878
4.54178
4.84154
5.1586
5.49368
5.84766
6.22157
6.61655
7.0339
7.475
7.94136
8.43457
8.95635
9.5085
10.0929
10.7117
11.3668
12.0606
12.7954
13.5735
14.3976
15.2703
16.1943
17.1726
18.2082
19.3042
20.4641
21.691
22.9887
24.3608
25.8111
27.3436
28.9623
30.6716
32.4757
34.3793
36.3868
38.5032
40.733
43.0813
45.5527
48.1521
50.8844
53.754
56.7655
59.9231
63.2307
66.692
70.3105
74.0893
78.0314
82.1389
86.4139
90.8577
95.4711
100.254
105.207
110.328
115.616
121.069
126.683
132.456
138.382
144.458
150.677
157.035
163.523
170.136
176.864
183.699
190.634
197.661
204.772
211.957
219.21
226.52
233.878
241.275
248.7
256.144
263.548
270.903
278.2
285.427
292.574
299.627
306.575
313.405
320.105
326.661
333.055
339.276
345.313
351.155
356.79
362.209
367.4
372.354
377.062
381.514
385.704
389.623
393.266
396.629
399.699
402.47
404.942
407.111
408.977
410.536
411.79
412.738
413.38
413.718
413.754
413.49
412.931
412.08
410.944
409.528
407.836
405.878
403.66
401.191
398.479
395.532
392.359
388.972
385.379
381.591
377.618
373.47
369.16
364.697
360.093
355.359
350.505
345.544
340.485
335.339
330.117
324.83
319.489
314.102
308.68
303.233
297.77
292.301
286.833
281.377
275.941
270.535
265.167
259.847
254.584
249.387
244.267
239.235
234.303
229.486
224.801
220.267
215.902
211.726
207.727
203.944
7.66052
3.53597
2.75667
2.53089
2.48458
2.52234
2.60947
2.73046
2.87745
3.04609
3.23386
3.43927
3.66146
3.90001
4.15483
4.42606
4.7141
5.01951
5.34305
5.68563
6.04832
6.43232
6.83897
7.26973
7.72621
8.21014
8.72338
9.26792
9.8459
10.4596
11.1114
11.804
12.5399
13.3221
14.1537
15.0378
15.9778
16.9772
18.0398
19.1694
20.3702
21.6464
23.0023
24.4426
25.9719
27.5952
29.3173
31.1437
33.0796
35.1306
37.3022
39.6001
42.03
44.5977
47.3089
50.1693
53.1845
56.3597
59.7002
63.2105
66.8946
70.7563
74.7992
79.0266
83.4414
88.0456
92.8408
97.828
103.007
108.379
113.94
119.691
125.627
131.746
138.043
144.514
151.152
157.953
164.909
172.013
179.259
186.635
194.131
201.737
209.445
217.245
225.129
233.088
241.111
249.19
257.314
265.472
273.655
281.794
289.874
297.886
305.818
313.658
321.392
329.007
336.49
343.829
351.013
358.026
364.842
371.454
377.851
384.022
389.955
395.639
401.065
406.223
411.102
415.695
419.993
423.99
427.68
431.057
434.113
436.843
439.245
441.317
443.057
444.465
445.541
446.285
446.699
446.785
446.546
445.987
445.111
443.924
442.432
440.642
438.561
436.197
433.559
430.656
427.497
424.091
420.45
416.584
412.504
408.221
403.747
399.092
394.27
389.292
384.169
378.914
373.538
368.053
362.471
356.804
351.061
345.256
339.398
333.499
327.568
321.616
315.653
309.688
303.73
297.79
291.875
285.996
280.162
274.382
268.666
263.024
257.466
252.005
246.652
241.423
236.334
231.402
226.644
222.074
217.682
213.506
7.6541
3.55277
2.76181
2.52539
2.46925
2.49742
2.57489
2.68603
2.82292
2.98125
3.15854
3.35336
3.56492
3.79286
4.03715
4.298
4.57585
4.87134
5.18528
5.51866
5.87264
6.24852
6.64777
7.07203
7.52308
8.00287
8.51354
9.05738
9.63688
10.2547
10.9137
11.6171
12.3679
13.1699
14.0265
14.9419
15.9201
16.9655
18.0827
19.2768
20.5527
21.9159
23.3718
24.9261
26.5846
28.3531
30.2378
32.2451
34.3814
36.6534
39.0677
41.631
44.3499
47.231
50.2807
53.5055
56.9116
60.505
64.2913
68.2757
72.46
76.8479
81.4427
86.2474
91.2641
96.4942
101.938
107.597
113.468
119.55
125.84
132.335
139.031
145.923
153.004
160.268
167.707
175.315
183.082
191.001
199.064
207.265
215.575
223.99
232.501
241.098
249.773
258.516
267.316
276.165
285.05
293.955
302.803
311.58
320.275
328.875
337.366
345.735
353.968
362.05
369.969
377.71
385.26
392.604
399.725
406.61
413.248
419.627
425.737
431.566
437.104
442.341
447.27
451.881
456.168
460.123
463.742
467.018
469.946
472.523
474.746
476.613
478.124
479.279
480.079
480.524
480.619
480.366
479.769
478.832
477.563
475.966
474.05
471.821
469.288
466.46
463.347
459.958
456.305
452.397
448.246
443.864
439.263
434.455
429.451
424.265
418.909
413.396
407.738
401.948
396.038
390.021
383.909
377.713
371.447
365.12
358.746
352.335
345.897
339.443
332.984
326.528
320.087
313.668
307.282
300.938
294.646
288.415
282.255
276.176
270.19
264.308
258.543
252.909
247.422
242.099
236.952
231.997
227.219
222.661
7.58778
3.54197
2.74672
2.5027
2.4384
2.45813
2.52694
2.62928
2.75729
2.90673
3.0752
3.26136
3.46449
3.68432
3.9209
4.17453
4.44576
4.73534
5.04423
5.37357
5.72471
6.09919
6.49873
6.92527
7.38095
7.86812
8.38936
8.94749
9.54555
10.1869
10.875
11.6139
12.4077
13.2608
14.1778
15.1636
16.2236
17.3634
18.5889
19.9064
21.3224
22.8439
24.4779
26.2318
28.112
30.1254
32.2795
34.582
37.0406
39.6629
42.4566
45.429
48.5873
51.9386
55.4896
59.2468
63.2164
67.4044
71.8172
76.4636
81.3342
86.4327
91.7626
97.3258
103.123
109.153
115.416
121.908
128.627
135.569
142.728
150.1
157.676
165.451
173.415
181.56
189.877
198.356
206.986
215.758
224.661
233.684
242.809
252.028
261.329
270.702
280.137
289.626
299.156
308.727
318.286
327.77
337.164
346.457
355.634
364.681
373.585
382.331
390.905
399.293
407.481
415.456
423.203
430.709
437.96
444.943
451.647
458.059
464.17
469.97
475.448
480.597
485.408
489.874
493.987
497.743
501.137
504.163
506.818
509.1
511.006
512.537
513.691
514.47
514.876
514.912
514.581
513.887
512.835
511.431
509.682
507.596
505.179
502.441
499.392
496.04
492.397
488.473
484.28
479.829
475.133
470.203
465.053
459.695
454.142
448.408
442.506
436.448
430.248
423.919
417.474
410.926
404.287
397.57
390.787
383.95
377.071
370.16
363.229
356.289
349.35
342.421
335.513
328.635
321.796
315.007
308.275
301.612
295.028
288.532
282.136
275.851
269.69
263.668
257.8
252.099
246.58
241.254
236.106
231.184
7.47613
3.50858
2.71538
2.46695
2.39668
2.40986
2.47197
2.56767
2.68929
2.83275
2.99577
3.17713
3.37626
3.59303
3.82765
4.08063
4.35275
4.645
4.95866
5.29524
5.65647
6.04438
6.46122
6.90954
7.39215
7.91217
8.47306
9.07857
9.73275
10.44
11.2053
12.0338
12.9314
13.9041
14.9578
16.099
17.3346
18.6723
20.12
21.6859
23.3785
25.207
27.1811
29.312
31.6042
34.0639
36.7011
39.5248
42.5436
45.7656
49.1983
52.849
56.7243
60.8303
65.1725
69.7557
74.5842
79.6616
84.9908
90.5736
96.4076
102.492
108.825
115.405
122.23
129.296
136.597
144.13
151.886
159.86
168.042
176.426
185
193.756
202.684
211.771
221.008
230.382
239.882
249.496
259.213
269.021
278.906
288.858
298.867
308.923
319.015
329.144
339.28
349.342
359.303
369.149
378.867
388.442
397.861
407.11
416.175
425.043
433.7
442.134
450.33
458.276
465.96
473.369
480.49
487.313
493.826
500.02
505.884
511.41
516.589
521.413
525.877
529.972
533.695
537.04
540.003
542.581
544.772
546.574
547.986
549.008
549.643
549.891
549.755
549.24
548.349
547.088
545.463
543.481
541.148
538.475
535.468
532.138
528.496
524.55
520.313
515.797
511.013
505.973
500.691
495.179
489.451
483.519
477.397
471.1
464.639
458.03
451.284
444.417
437.44
430.367
423.211
415.984
408.698
401.366
394
386.609
379.207
371.802
364.406
357.028
349.679
342.367
335.101
327.892
320.748
313.68
306.696
299.809
293.027
286.364
279.832
273.444
267.214
261.158
255.285
249.609
244.114
238.849
7.35964
3.46556
2.67819
2.42932
2.35709
2.36809
2.42835
2.5229
2.64438
2.78891
2.95448
3.14009
3.34547
3.5708
3.81669
4.08409
4.3743
4.68894
5.02997
5.39969
5.80077
6.23624
6.70951
7.22443
7.78521
8.39656
9.06379
9.79273
10.5891
11.4594
12.4108
13.4515
14.5906
15.8386
17.2019
18.6877
20.3071
22.0706
23.9887
26.0722
28.3317
30.7779
33.4213
36.272
39.3382
42.6275
46.1481
49.9075
53.9123
58.1684
62.6807
67.4531
72.4884
77.7888
83.3551
89.1875
95.2851
101.646
108.268
115.147
122.277
129.654
137.27
145.118
153.193
161.484
169.985
178.685
187.576
196.647
205.889
215.289
224.838
234.523
244.334
254.26
264.287
274.406
284.605
294.872
305.198
315.571
325.98
336.423
346.882
357.364
367.839
378.228
388.489
398.619
408.602
418.427
428.08
437.549
446.822
455.885
464.726
473.335
481.697
489.803
497.64
505.198
512.465
519.43
526.083
532.415
538.416
544.076
549.389
554.347
558.942
563.168
567.02
570.492
573.58
576.281
578.592
580.511
582.037
583.168
583.906
584.252
584.208
583.776
582.961
581.767
580.198
578.262
575.965
573.314
570.318
566.985
563.325
559.349
555.065
550.487
545.625
540.491
535.098
529.458
523.585
517.491
511.19
504.696
498.022
491.181
484.188
477.055
469.797
462.426
454.956
447.4
439.77
432.079
424.339
416.561
408.758
400.939
393.117
385.301
377.502
369.728
361.991
354.297
346.658
339.081
331.577
324.153
316.821
309.59
302.471
295.475
288.614
281.902
275.353
268.979
262.791
256.802
250.995
245.424
7.26277
3.4221
2.64425
2.40063
2.333
2.34926
2.4162
2.51934
2.65175
2.80999
2.99249
3.19884
3.42937
3.68505
3.96739
4.27837
4.6205
4.99682
5.41088
5.86683
6.3694
6.9239
7.53638
8.21376
8.96298
9.79194
10.7103
11.7298
12.858
14.1036
15.4795
16.9984
18.6732
20.5172
22.5425
24.761
27.1855
29.8285
32.7019
35.8169
39.1837
42.8115
46.7082
50.8802
55.3321
60.0669
65.0865
70.3915
75.9812
81.8535
88.0052
94.4318
101.128
108.088
115.303
122.767
130.471
138.406
146.563
154.933
163.505
172.269
181.215
190.332
199.61
209.039
218.608
228.307
238.126
248.054
258.081
268.197
278.392
288.657
298.982
309.355
319.77
330.218
340.69
351.177
361.676
372.176
382.663
393.171
403.632
413.973
424.163
434.203
444.08
453.783
463.302
472.627
481.747
490.651
499.328
507.768
515.961
523.896
531.565
538.956
546.06
552.867
559.369
565.557
571.421
576.954
582.148
586.995
591.489
595.624
599.394
602.793
605.817
608.463
610.727