/*--------------------------------*- C++ -*----------------------------------*\
  =========                 |
  \\      /  F ield         | OpenFOAM: The Open Source CFD Toolbox
   \\    /   O peration     | Website:  https://openfoam.org
    \\  /    A nd           | Version:  9
     \\/     M anipulation  |
\*---------------------------------------------------------------------------*/
FoamFile
{
    format      ascii;
    class       volScalarField;
    location    "0.2";
    object      nut;
}
// * * * * * * * * * * * * * * * * * * * * * * * * * * * * * * * * * * * * * //

dimensions      [0 2 -1 0 0 0 0];

internalField   nonuniform List<scalar> 
12225
(
4.04768e-05
3.83178e-05
3.62504e-05
3.44199e-05
3.2952e-05
3.18976e-05
3.12562e-05
3.09937e-05
3.1058e-05
3.139e-05
3.1931e-05
3.26272e-05
3.34323e-05
3.43076e-05
3.52241e-05
3.61572e-05
3.7112e-05
3.84946e-05
0.000281048
0.000209266
0.000176267
0.00015744
0.000146272
0.000139688
0.000135793
0.000133431
0.000131916
0.000130859
0.000130044
0.000129358
0.00012874
0.000128162
0.000127623
0.00012708
0.000126684
0.000125735
0.000556048
0.000419908
0.000349816
0.000304737
0.00027245
0.000247986
0.00022877
0.000213307
0.000200679
0.000190279
0.000181665
0.000174499
0.000168511
0.000163479
0.000159231
0.00015558
0.000152441
0.00014938
0.000740308
0.000625822
0.000544117
0.000485001
0.000439774
0.000403655
0.000373847
0.000348612
0.000326864
0.000307904
0.000291258
0.000276581
0.000263601
0.00025209
0.000241851
0.000232669
0.000224387
0.000216723
0.000817069
0.000759142
0.000700546
0.000648579
0.0006039
0.000565588
0.000532479
0.000503521
0.000477889
0.000454974
0.000434329
0.000415622
0.000398593
0.000383031
0.000368757
0.000355588
0.000343379
0.000332034
0.0008421
0.000819688
0.000789925
0.000757607
0.000725556
0.000695167
0.000666971
0.000641024
0.000617185
0.000595251
0.00057502
0.000556305
0.000538941
0.000522782
0.000507698
0.000493559
0.000480264
0.00046786
0.000849261
0.000841808
0.000829742
0.000814189
0.000796482
0.000777763
0.000758853
0.000740261
0.000722276
0.000705044
0.000688625
0.000673028
0.000658231
0.000644197
0.000630878
0.00061822
0.000606184
0.000594895
0.00085112
0.000848748
0.000844481
0.000838237
0.000830247
0.000820897
0.000810601
0.000799725
0.000788559
0.00077732
0.000766162
0.000755194
0.000744485
0.000734077
0.000723993
0.000714242
0.000704839
0.000695935
0.00085156
0.000850665
0.00084917
0.000846887
0.000843741
0.000839759
0.000835035
0.000829696
0.000823878
0.000817709
0.000811304
0.000804756
0.000798143
0.000791524
0.000784947
0.000778448
0.000772065
0.000765932
0.000851652
0.000851133
0.000850468
0.000849564
0.000848347
0.000846772
0.000844826
0.00084252
0.000839885
0.00083696
0.000833792
0.000830427
0.000826908
0.000823276
0.000819565
0.000815807
0.000812037
0.00080835
0.000851668
0.00085123
0.000850778
0.000850278
0.000849698
0.000849007
0.000848183
0.000847211
0.000846088
0.000844815
0.0008434
0.000841855
0.000840194
0.000838435
0.000836592
0.000834683
0.000832727
0.00083078
0.000851669
0.000851245
0.000850835
0.000850429
0.000850014
0.000849575
0.000849101
0.000848579
0.000848003
0.000847365
0.000846665
0.000845901
0.000845078
0.000844198
0.000843267
0.000842292
0.000841281
0.000840269
0.000851668
0.000851244
0.000850843
0.000850459
0.000850088
0.000849726
0.000849365
0.000849001
0.000848629
0.000848243
0.000847841
0.00084742
0.000846979
0.000846518
0.000846037
0.000845537
0.000845022
0.000844511
0.000851667
0.000851242
0.000850839
0.000850458
0.000850096
0.000849751
0.000849421
0.000849102
0.000848793
0.000848491
0.000848194
0.000847901
0.000847611
0.000847321
0.000847031
0.000846741
0.000846453
0.00084618
0.000851666
0.000851239
0.000850835
0.000850452
0.00085009
0.000849746
0.000849419
0.000849108
0.000848812
0.000848528
0.000848257
0.000847996
0.000847746
0.000847504
0.000847272
0.000847047
0.000846832
0.000846637
0.000851665
0.000851236
0.000850831
0.000850447
0.000850083
0.000849737
0.000849409
0.000849098
0.000848801
0.000848519
0.00084825
0.000847994
0.00084775
0.000847517
0.000847294
0.000847082
0.000846881
0.000846703
0.000851664
0.000851235
0.000850828
0.000850442
0.000850077
0.00084973
0.000849401
0.000849088
0.00084879
0.000848507
0.000848237
0.00084798
0.000847735
0.000847502
0.000847279
0.000847066
0.000846866
0.000846689
0.000851663
0.000851234
0.000850826
0.00085044
0.000850073
0.000849725
0.000849395
0.000849081
0.000848782
0.000848498
0.000848227
0.000847969
0.000847723
0.000847488
0.000847264
0.00084705
0.000846848
0.00084667
0.000851663
0.000851233
0.000850825
0.000850439
0.000850072
0.000849724
0.000849393
0.000849078
0.000848779
0.000848494
0.000848222
0.000847964
0.000847717
0.000847481
0.000847256
0.000847041
0.000846838
0.000846658
0.000851664
0.000851234
0.000850826
0.00085044
0.000850074
0.000849726
0.000849396
0.000849081
0.000848782
0.000848497
0.000848225
0.000847965
0.000847717
0.00084748
0.000847254
0.000847037
0.000846832
0.000846649
0.000851664
0.000851235
0.000850829
0.000850443
0.000850078
0.00084973
0.000849399
0.000849082
0.00084878
0.000848489
0.00084821
0.00084794
0.000847679
0.000847427
0.000847182
0.000846945
0.000846716
0.000846506
0.000851665
0.000851237
0.00085083
0.000850442
0.000850068
0.000849706
0.000849351
0.000848999
0.000848647
0.000848293
0.000847934
0.00084757
0.000847198
0.000846819
0.000846432
0.000846039
0.000845641
0.000845251
0.000851664
0.000851228
0.000850794
0.000850348
0.00084987
0.000849345
0.000848761
0.000848111
0.000847388
0.000846593
0.000845727
0.000844796
0.000843805
0.00084276
0.00084167
0.000840542
0.000839386
0.000838224
0.000851634
0.000851073
0.000850343
0.000849363
0.000848079
0.000846467
0.000844531
0.000842291
0.000839785
0.000837051
0.000834134
0.000831073
0.000827907
0.00082467
0.000821391
0.000818094
0.000814805
0.00081157
0.000851287
0.000849596
0.000846721
0.000842577
0.000837262
0.000830978
0.00082397
0.000816469
0.000808672
0.000800735
0.00079278
0.000784897
0.000777152
0.000769589
0.000762238
0.00075512
0.000748247
0.000741675
0.000848318
0.000839426
0.00082616
0.000810016
0.000792356
0.000774223
0.000756315
0.000739036
0.000722584
0.000707038
0.000692411
0.000678674
0.000665782
0.00065368
0.000642311
0.000631622
0.000621564
0.000612147
0.000828548
0.000788842
0.000746032
0.000705699
0.000669458
0.000637493
0.000609434
0.000584724
0.000562826
0.000543284
0.000525729
0.000509861
0.00049544
0.000482272
0.000470196
0.000459083
0.000448827
0.000439379
0.000730726
0.000627344
0.000554504
0.000501054
0.000460311
0.000428338
0.000402622
0.000381455
0.000363694
0.000348562
0.000335515
0.000324154
0.000314182
0.000305369
0.000297535
0.000290536
0.000284253
0.000278602
0.000439249
0.00033847
0.000287934
0.000256867
0.000236359
0.000222508
0.000212991
0.000206309
0.000201504
0.000197957
0.000195269
0.000193176
0.000191498
0.000190116
0.000188946
0.000187932
0.000187036
0.000186209
7.16431e-05
6.90587e-05
6.65522e-05
6.41646e-05
6.19883e-05
6.00784e-05
5.84564e-05
5.71213e-05
5.60571e-05
5.52403e-05
5.46436e-05
5.42394e-05
5.40008e-05
5.39031e-05
5.39234e-05
5.40419e-05
5.42411e-05
5.45047e-05
2.898e-07
7.02444e-06
1.1484e-05
1.55482e-05
1.99683e-05
2.50002e-05
3.07076e-05
3.72109e-05
4.44969e-05
5.2021e-05
5.98119e-05
6.78276e-05
7.60105e-05
8.43043e-05
9.26567e-05
0.00010102
0.000109349
0.000117601
0.000125734
0.000133703
0.000141463
0.000148964
0.000156151
0.000162966
0.000169351
0.000175254
0.000180635
0.000185458
0.000189669
0.000193161
0.000195751
0.000197257
0.000197717
0.000197666
0.000198095
0.000199253
0.000199396
4.55464e-05
4.5838e-05
0.000199166
4.64753e-05
4.68031e-05
4.72607e-05
4.75612e-05
4.85714e-05
4.96193e-05
5.06844e-05
5.17579e-05
5.28363e-05
5.39173e-05
5.49992e-05
5.6081e-05
5.71621e-05
5.82418e-05
5.93198e-05
6.03956e-05
6.1469e-05
6.25397e-05
6.36072e-05
6.46712e-05
6.57316e-05
6.67878e-05
6.78395e-05
6.88864e-05
6.9928e-05
7.09639e-05
7.19938e-05
7.30172e-05
7.40335e-05
7.50425e-05
7.60436e-05
7.70363e-05
7.80202e-05
7.89949e-05
7.99597e-05
8.09144e-05
8.18584e-05
8.27912e-05
8.37125e-05
8.46217e-05
8.55185e-05
8.64024e-05
8.72729e-05
8.81298e-05
8.89725e-05
8.98008e-05
9.06141e-05
9.14122e-05
9.21946e-05
9.2961e-05
9.37109e-05
9.4444e-05
9.516e-05
9.58584e-05
9.6539e-05
9.72016e-05
9.78462e-05
9.84735e-05
9.90846e-05
9.96827e-05
0.000100265
0.000100825
0.000101363
0.00010188
0.000102376
0.000102849
0.0001033
0.000103729
0.000104134
0.000104516
0.000104875
0.000105209
0.000105519
0.000105805
0.000106066
0.000106302
0.000106513
0.000106699
0.000106859
0.000106994
0.000107103
0.000107187
0.000107244
0.000107277
0.000107283
0.000107264
0.00010722
0.00010715
0.000107055
0.000106934
0.000106789
0.000106619
0.000106424
0.000106205
0.000105962
0.000105695
0.000105405
0.000105092
0.000104756
0.000104399
0.000104019
0.000103618
0.000103197
0.000102755
0.000102293
0.000101812
0.000101312
0.000100795
0.00010026
9.97081e-05
9.91402e-05
9.85568e-05
9.79586e-05
9.73463e-05
9.67206e-05
9.60821e-05
9.54319e-05
9.47703e-05
9.40983e-05
9.34167e-05
9.27257e-05
9.20277e-05
9.13208e-05
9.06105e-05
8.99022e-05
8.92775e-05
8.88686e-05
8.84805e-05
8.80915e-05
8.77003e-05
8.7307e-05
8.69115e-05
8.65134e-05
8.61113e-05
8.57021e-05
8.52791e-05
8.48268e-05
8.43049e-05
8.36136e-05
8.23127e-05
1.05234e-06
2.66005e-05
5.73936e-05
7.96756e-05
9.52693e-05
0.00010679
0.00011662
0.000125992
0.000135466
0.000145226
0.000155261
0.000165501
0.000175864
0.000186275
0.000196666
0.000206977
0.000217152
0.000227135
0.000236871
0.000246295
0.000255336
0.000263912
0.000271928
0.000279278
0.000285856
0.000291552
0.000296252
0.000299799
0.00030193
0.000302208
0.00030006
0.00029509
0.000287689
0.000279552
0.000273343
0.000270873
0.000266923
0.00025237
0.000251457
0.000257988
0.000251912
0.000254979
0.000259267
0.000265465
0.000271986
0.000278132
0.000284737
0.000291677
0.000298877
0.000306279
0.000313848
0.000321559
0.0003294
0.000337358
0.000345429
0.000353606
0.000361887
0.000370269
0.000378749
0.000387325
0.000395996
0.00040476
0.000413614
0.000422557
0.000431585
0.000440697
0.000449888
0.000459156
0.000468497
0.000477906
0.000487381
0.000496915
0.000506504
0.000516144
0.000525828
0.000535551
0.000545308
0.000555093
0.000564899
0.000574721
0.000584553
0.00059439
0.000604225
0.000614052
0.000623867
0.000633665
0.000643439
0.000653185
0.0006629
0.000672577
0.000682214
0.000691805
0.000701344
0.000710827
0.000720243
0.000729579
0.000738813
0.000747906
0.000756802
0.000765286
0.000773222
0.000780993
0.000788643
0.00079617
0.000803571
0.00081084
0.000817972
0.000824961
0.000831802
0.000838488
0.000845016
0.000851379
0.000857573
0.000863592
0.000869433
0.00087509
0.00088056
0.000885838
0.00089092
0.000895802
0.000900482
0.000904956
0.000909221
0.000913275
0.000917115
0.000920738
0.000924143
0.000927329
0.000930292
0.000933034
0.000935551
0.000937844
0.000939913
0.000941757
0.000943377
0.000944773
0.000945946
0.000946896
0.000947627
0.000948138
0.000948432
0.000948512
0.00094838
0.000948039
0.000947492
0.000946742
0.000945794
0.000944652
0.000943319
0.0009418
0.000940101
0.000938227
0.000936182
0.000933974
0.000931607
0.000929087
0.000926424
0.00092362
0.000920687
0.000917633
0.000914454
0.00091118
0.000907808
0.000904293
0.000900516
0.000895747
0.000889045
0.000881769
0.000874302
0.000866737
0.000859109
0.000851434
0.00084372
0.000835969
0.000828172
0.000820309
0.000812302
0.000804042
0.000794533
0.000776011
2.06535e-06
4.22732e-05
8.99733e-05
0.000125451
0.00015101
0.000170074
0.000185281
0.000198436
0.000210648
0.000222519
0.000234321
0.00024614
0.000257971
0.000269771
0.000281484
0.000293048
0.000304407
0.000315501
0.000326269
0.000336649
0.000346571
0.000355959
0.000364738
0.000372834
0.000380189
0.00038677
0.000392563
0.000397566
0.000401755
0.000405078
0.000407503
0.000409176
0.000410608
0.00041266
0.000416159
0.000421336
0.0004275
0.000433565
0.000441052
0.00045019
0.000459686
0.000470838
0.000483042
0.000496371
0.000510531
0.000524986
0.00053979
0.000554936
0.000570395
0.000586142
0.000602151
0.000618405
0.000634889
0.000651592
0.000668506
0.000685623
0.000702939
0.000720449
0.000738148
0.000756031
0.000774094
0.000792333
0.000810741
0.000829314
0.000848045
0.000866926
0.000885952
0.000905113
0.000924401
0.000943806
0.000963319
0.000982929
0.00100263
0.0010224
0.00104223
0.00106211
0.00108204
0.00110199
0.00112195
0.00114191
0.00116186
0.00118178
0.00120167
0.0012215
0.00124128
0.00126098
0.00128059
0.00130011
0.00131951
0.0013388
0.00135795
0.00137695
0.00139578
0.00141443
0.00143287
0.00145108
0.00146901
0.00148661
0.00150384
0.00152041
0.00153654
0.00155239
0.00156797
0.0015833
0.00159836
0.00161313
0.00162762
0.00164181
0.00165568
0.00166922
0.00168243
0.0016953
0.0017078
0.00171995
0.00173171
0.00174309
0.00175408
0.00176466
0.00177483
0.00178459
0.00179392
0.00180282
0.00181128
0.00181931
0.00182688
0.001834
0.00184067
0.00184688
0.00185262
0.0018579
0.00186272
0.00186707
0.00187095
0.00187436
0.00187731
0.00187978
0.0018818
0.00188335
0.00188445
0.00188508
0.00188527
0.00188501
0.00188431
0.00188318
0.00188162
0.00187963
0.00187724
0.00187443
0.00187124
0.00186765
0.0018637
0.00185937
0.00185469
0.00184968
0.00184433
0.00183866
0.0018327
0.00182645
0.00181993
0.00181316
0.00180615
0.00179892
0.00179149
0.00178375
0.00177551
0.00176618
0.0017551
0.00174312
0.00173071
0.00171805
0.00170521
0.00169225
0.00167917
0.00166598
0.00165267
0.00163915
0.00162523
0.0016104
0.00159272
0.00156354
3.20675e-06
5.35436e-05
0.000113362
0.000159248
0.000193276
0.000218967
0.00023921
0.00025612
0.000271128
0.000285126
0.00029862
0.000311865
0.000324963
0.000337936
0.000350765
0.000363412
0.000375835
0.000387991
0.000399836
0.00041133
0.000422431
0.000433105
0.000443324
0.000453077
0.000462377
0.000471267
0.000479823
0.000488141
0.000496328
0.00050449
0.000512752
0.000521304
0.000530432
0.000540466
0.000551646
0.000564036
0.000577545
0.00059201
0.000607487
0.000624027
0.000641551
0.000660109
0.000679574
0.000699828
0.000720687
0.000741958
0.000763589
0.000785567
0.000807879
0.000830515
0.000853462
0.000876711
0.000900252
0.000924077
0.000948178
0.000972548
0.000997182
0.00102207
0.00104722
0.0010726
0.00109823
0.00112408
0.00115016
0.00117645
0.00120294
0.00122963
0.0012565
0.00128353
0.00131072
0.00133806
0.00136552
0.00139309
0.00142075
0.00144849
0.0014763
0.00150414
0.00153202
0.00155989
0.00158776
0.00161559
0.00164338
0.0016711
0.00169873
0.00172627
0.00175368
0.00178095
0.00180806
0.00183501
0.00186176
0.0018883
0.00191462
0.00194069
0.00196649
0.00199199
0.00201718
0.00204201
0.00206647
0.00209052
0.002114
0.00213689
0.00215934
0.00218142
0.00220313
0.00222447
0.00224544
0.00226601
0.00228618
0.00230593
0.00232524
0.0023441
0.0023625
0.00238041
0.00239784
0.00241475
0.00243115
0.00244702
0.00246234
0.00247711
0.00249132
0.00250494
0.00251799
0.00253044
0.00254228
0.00255352
0.00256414
0.00257414
0.00258352
0.00259226
0.00260036
0.00260783
0.00261465
0.00262082
0.00262635
0.00263124
0.00263547
0.00263907
0.00264202
0.00264433
0.00264601
0.00264705
0.00264747
0.00264726
0.00264645
0.00264503
0.00264301
0.0026404
0.00263722
0.00263347
0.00262916
0.00262432
0.00261894
0.00261305
0.00260666
0.00259979
0.00259246
0.00258467
0.00257647
0.00256785
0.00255885
0.00254949
0.00253979
0.00252974
0.00251936
0.00250858
0.00249723
0.00248493
0.00247134
0.00245685
0.00244181
0.0024264
0.00241072
0.00239483
0.00237877
0.00236255
0.00234615
0.00232946
0.00231222
0.00229374
0.00227184
0.00223992
4.3066e-06
6.25291e-05
0.000131875
0.000186434
0.000227638
0.00025906
0.000283774
0.000304109
0.000321718
0.000337708
0.000352773
0.000367317
0.000381554
0.000395582
0.000409437
0.000423118
0.000436613
0.000449904
0.000462976
0.000475819
0.000488427
0.000500806
0.000512975
0.000524969
0.000536849
0.000548697
0.000560624
0.000572754
0.00058522
0.000598153
0.000611682
0.000625943
0.00064108
0.000657225
0.00067446
0.000692805
0.000712232
0.000732689
0.000754133
0.000776529
0.00079983
0.000823981
0.000848894
0.000874463
0.000900574
0.000927131
0.000954087
0.000981418
0.00100911
0.00103716
0.00106556
0.00109429
0.00112336
0.00115275
0.00118246
0.00121249
0.00124281
0.00127343
0.00130434
0.00133553
0.00136699
0.00139871
0.00143068
0.00146288
0.00149531
0.00152795
0.00156079
0.0015938
0.00162697
0.00166029
0.00169374
0.00172729
0.00176092
0.00179462
0.00182837
0.00186213
0.00189589
0.00192963
0.00196332
0.00199695
0.00203048
0.0020639
0.00209719
0.00213031
0.00216326
0.00219601
0.00222854
0.00226083
0.00229286
0.00232461
0.00235606
0.00238718
0.00241796
0.00244836
0.00247838
0.00250797
0.00253712
0.00256581
0.00259385
0.00262135
0.00264838
0.00267498
0.00270114
0.00272687
0.00275215
0.00277696
0.00280129
0.00282513
0.00284845
0.00287124
0.00289348
0.00291516
0.00293626
0.00295676
0.00297666
0.00299593
0.00301456
0.00303254
0.00304985
0.00306649
0.00308244
0.0030977
0.00311224
0.00312607
0.00313917
0.00315155
0.00316318
0.00317407
0.00318421
0.00319359
0.00320221
0.00321007
0.00321716
0.00322349
0.00322906
0.00323386
0.0032379
0.00324118
0.0032437
0.00324548
0.0032465
0.00324679
0.00324634
0.00324516
0.00324327
0.00324068
0.00323739
0.00323342
0.00322878
0.00322349
0.00321755
0.00321099
0.00320382
0.00319607
0.00318774
0.00317888
0.00316948
0.00315958
0.0031492
0.00313837
0.00312709
0.00311539
0.00310326
0.00309065
0.00307748
0.0030635
0.00304856
0.00303281
0.00301647
0.0029997
0.0029826
0.00296524
0.00294766
0.0029299
0.00291194
0.00289368
0.00287487
0.00285482
0.00283162
0.00280085
5.2974e-06
6.98278e-05
0.000147032
0.000208858
0.00025622
0.000292676
0.000321407
0.000344887
0.000364931
0.00038281
0.00039937
0.000415149
0.000430466
0.000445503
0.000460354
0.000475067
0.000489665
0.000504161
0.000518568
0.000532904
0.000547194
0.000561474
0.000575791
0.000590207
0.000604802
0.00061967
0.000634922
0.000650675
0.000667046
0.000684145
0.00070207
0.000720909
0.000740732
0.000761592
0.000783513
0.000806487
0.000830487
0.000855467
0.000881377
0.000908162
0.000935765
0.000964122
0.000993159
0.0010228
0.00105296
0.0010836
0.00111466
0.00114612
0.00117797
0.0012102
0.0012428
0.00127577
0.00130909
0.00134275
0.00137676
0.0014111
0.00144577
0.00148074
0.00151603
0.00155161
0.00158747
0.0016236
0.00165998
0.00169661
0.00173347
0.00177054
0.0018078
0.00184523
0.00188282
0.00192054
0.00195837
0.0019963
0.00203429
0.00207232
0.00211038
0.00214843
0.00218645
0.00222441
0.0022623
0.00230008
0.00233773
0.00237522
0.00241253
0.00244965
0.00248653
0.00252317
0.00255953
0.0025956
0.00263136
0.00266678
0.00270185
0.00273654
0.00277084
0.00280472
0.00283816
0.00287114
0.00290364
0.00293561
0.00296695
0.00299776
0.00302808
0.00305794
0.00308733
0.00311624
0.00314466
0.00317258
0.00319997
0.00322682
0.00325312
0.00327883
0.00330395
0.00332846
0.00335234
0.00337557
0.00339814
0.00342003
0.00344123
0.00346171
0.00348148
0.00350051
0.00351878
0.0035363
0.00355304
0.00356901
0.00358418
0.00359855
0.00361211
0.00362486
0.00363679
0.00364788
0.00365814
0.00366757
0.00367615
0.0036839
0.00369081
0.00369687
0.00370209
0.00370647
0.00371002
0.00371273
0.00371462
0.00371569
0.00371594
0.00371538
0.00371403
0.00371189
0.00370897
0.00370529
0.00370086
0.0036957
0.00368981
0.00368322
0.00367595
0.003668
0.00365941
0.00365019
0.00364037
0.00362997
0.00361902
0.00360753
0.00359553
0.00358303
0.00357004
0.00355654
0.00354246
0.00352769
0.00351214
0.00349588
0.00347905
0.00346175
0.00344409
0.00342614
0.00340795
0.00338957
0.00337101
0.00335221
0.00333294
0.00331264
0.0032898
0.00326158
6.13576e-06
7.58256e-05
0.000159423
0.000227341
0.000280018
0.000320934
0.000353313
0.000379718
0.000402076
0.000421782
0.000439807
0.000456801
0.000473185
0.000489219
0.00050506
0.000520805
0.000536515
0.000552234
0.000568
0.000583854
0.000599841
0.000616014
0.000632437
0.000649179
0.000666323
0.000683959
0.000702183
0.000721089
0.000740771
0.000761309
0.00078277
0.000805204
0.000828646
0.000853111
0.000878596
0.000905079
0.000932526
0.00096089
0.000990122
0.00102017
0.00105097
0.00108246
0.00111459
0.00114729
0.00118052
0.00121423
0.00124838
0.00128295
0.00131792
0.00135329
0.00138904
0.00142517
0.00146166
0.0014985
0.0015357
0.00157323
0.00161109
0.00164928
0.00168776
0.00172655
0.00176561
0.00180495
0.00184453
0.00188435
0.0019244
0.00196464
0.00200507
0.00204566
0.00208639
0.00212724
0.00216819
0.00220921
0.00225028
0.00229138
0.00233248
0.00237355
0.00241456
0.0024555
0.00249633
0.00253703
0.00257757
0.00261792
0.00265807
0.00269797
0.00273762
0.00277698
0.00281604
0.00285477
0.00289315
0.00293116
0.00296878
0.00300599
0.00304278
0.00307913
0.00311502
0.00315042
0.00318534
0.00321964
0.00325338
0.00328661
0.00331935
0.00335161
0.00338339
0.00341468
0.00344546
0.00347571
0.00350543
0.00353458
0.00356315
0.00359112
0.00361848
0.0036452
0.00367126
0.00369665
0.00372135
0.00374535
0.00376862
0.00379115
0.00381293
0.00383393
0.00385415
0.00387357
0.00389218
0.00390997
0.00392692
0.00394304
0.00395831
0.00397272
0.00398627
0.00399894
0.00401072
0.00402163
0.00403164
0.00404077
0.00404902
0.00405636
0.00406282
0.00406838
0.00407305
0.00407684
0.00407975
0.00408178
0.00408294
0.00408323
0.00408268
0.00408129
0.00407906
0.004076
0.00407214
0.0040675
0.00406206
0.00405586
0.00404891
0.00404124
0.00403286
0.0040238
0.00401408
0.00400372
0.00399275
0.00398118
0.00396905
0.00395637
0.00394314
0.00392936
0.00391501
0.00390002
0.00388437
0.00386808
0.00385124
0.00383393
0.00381624
0.00379824
0.00378
0.00376159
0.00374303
0.0037243
0.00370525
0.00368544
0.00366376
0.00363835
6.83665e-06
8.05973e-05
0.000169329
0.000242337
0.000299604
0.000344481
0.000380182
0.000409317
0.000433886
0.000455375
0.000474852
0.000493063
0.000510514
0.00052754
0.000544361
0.000561118
0.00057791
0.000594811
0.000611879
0.000629173
0.00064675
0.000664671
0.000683003
0.000701816
0.000721186
0.000741189
0.000761904
0.000783403
0.000805752
0.000829009
0.000853214
0.000878394
0.000904562
0.000931714
0.000959835
0.000988896
0.00101886
0.00104968
0.00108131
0.0011137
0.0011468
0.00118055
0.0012149
0.00124981
0.00128524
0.00132114
0.0013575
0.00139428
0.00143147
0.00146906
0.00150703
0.00154538
0.00158409
0.00162316
0.00166257
0.00170232
0.00174239
0.00178277
0.00182346
0.00186443
0.00190568
0.00194719
0.00198894
0.00203092
0.00207311
0.00211549
0.00215804
0.00220075
0.00224359
0.00228654
0.00232958
0.00237269
0.00241583
0.00245899
0.00250214
0.00254526
0.00258831
0.00263127
0.00267411
0.00271681
0.00275933
0.00280166
0.00284376
0.00288561
0.00292718
0.00296845
0.00300939
0.00304999
0.00309022
0.00313007
0.00316951
0.00320853
0.00324711
0.00328524
0.00332289
0.00336006
0.00339672
0.00343279
0.00346835
0.00350342
0.00353801
0.00357213
0.00360577
0.00363891
0.00367156
0.00370367
0.00373524
0.00376625
0.00379667
0.00382649
0.00385568
0.00388423
0.00391211
0.00393931
0.00396581
0.00399159
0.00401663
0.00404092
0.00406443
0.00408716
0.00410908
0.00413018
0.00415045
0.00416987
0.00418844
0.00420615
0.00422299
0.00423894
0.004254
0.00426815
0.00428139
0.00429371
0.00430512
0.00431562
0.00432519
0.00433384
0.00434156
0.00434834
0.0043542
0.00435915
0.00436319
0.00436631
0.00436851
0.00436981
0.00437023
0.00436978
0.00436843
0.00436621
0.00436315
0.00435925
0.00435453
0.004349
0.00434269
0.00433561
0.00432778
0.00431922
0.00430995
0.00430001
0.0042894
0.00427816
0.0042663
0.00425384
0.0042408
0.00422718
0.00421298
0.00419818
0.00418276
0.00416675
0.00415021
0.00413321
0.00411582
0.00409812
0.00408018
0.00406209
0.00404389
0.00402562
0.00400717
0.00398823
0.00396798
0.00394519
7.3987e-06
8.4253e-05
0.000176991
0.000254189
0.000315384
0.000363757
0.000402473
0.000434147
0.00046082
0.000484041
0.00050495
0.000524372
0.000542884
0.000560887
0.000578655
0.000596376
0.000614181
0.00063217
0.000650419
0.000668999
0.000687974
0.000707407
0.000727363
0.000747907
0.000769102
0.000791012
0.000813696
0.000837209
0.000861596
0.000886892
0.000913122
0.000940296
0.000968415
0.000997466
0.00102743
0.00105826
0.00108995
0.00112243
0.00115566
0.00118961
0.00122421
0.00125944
0.00129524
0.00133157
0.00136841
0.00140572
0.00144347
0.00148164
0.00152021
0.00155918
0.00159852
0.00163823
0.0016783
0.00171871
0.00175946
0.00180054
0.00184192
0.00188362
0.0019256
0.00196786
0.00201039
0.00205318
0.0020962
0.00213944
0.00218289
0.00222653
0.00227034
0.00231431
0.00235841
0.00240262
0.00244693
0.0024913
0.00253573
0.00258017
0.00262461
0.00266902
0.00271338
0.00275765
0.00280181
0.00284584
0.0028897
0.00293336
0.0029768
0.00301999
0.0030629
0.00310551
0.0031478
0.00318974
0.0032313
0.00327248
0.00331325
0.0033536
0.00339351
0.00343297
0.00347197
0.00351048
0.00354847
0.00358596
0.00362297
0.00365953
0.00369564
0.0037313
0.00376649
0.00380121
0.00383542
0.00386912
0.00390229
0.00393489
0.00396692
0.00399834
0.00402914
0.0040593
0.00408879
0.0041176
0.00414571
0.0041731
0.00419974
0.00422562
0.00425073
0.00427503
0.00429851
0.00432117
0.00434298
0.00436394
0.00438403
0.00440324
0.00442156
0.00443899
0.0044555
0.00447109
0.00448575
0.00449947
0.00451225
0.0045241
0.00453502
0.00454499
0.00455399
0.00456204
0.00456914
0.00457531
0.00458056
0.00458484
0.00458818
0.00459059
0.00459208
0.00459267
0.00459234
0.00459112
0.00458903
0.00458607
0.00458225
0.0045776
0.00457214
0.00456587
0.00455882
0.00455101
0.00454246
0.00453319
0.00452322
0.00451257
0.00450127
0.00448934
0.00447679
0.00446364
0.00444989
0.00443554
0.0044206
0.0044051
0.00438907
0.00437259
0.00435572
0.00433853
0.00432112
0.00430357
0.00428596
0.00426834
0.00425069
0.00423278
0.00421399
0.00419345
7.82492e-06
8.69044e-05
0.000182632
0.000263192
0.000327696
0.00037912
0.000420542
0.00045455
0.000483201
0.00050808
0.000530379
0.000550981
0.000570523
0.000589462
0.000608119
0.000626721
0.00064543
0.000664367
0.000683625
0.000703281
0.000723404
0.000744056
0.000765297
0.000787183
0.000809768
0.0008331
0.000857224
0.000882179
0.000907993
0.000934689
0.000962277
0.000990758
0.00102012
0.00105036
0.00108144
0.00111333
0.001146
0.00117941
0.00121351
0.00124827
0.00128366
0.00131961
0.00135611
0.00139312
0.00143061
0.00146854
0.0015069
0.00154567
0.00158483
0.00162437
0.00166426
0.00170452
0.00174511
0.00178604
0.00182729
0.00186886
0.00191074
0.00195291
0.00199537
0.00203811
0.00208112
0.00212438
0.00216788
0.00221161
0.00225556
0.00229971
0.00234405
0.00238856
0.00243322
0.00247802
0.00252293
0.00256794
0.00261302
0.00265815
0.00270331
0.00274846
0.0027936
0.00283867
0.00288367
0.00292855
0.00297329
0.00301786
0.00306223
0.00310637
0.00315025
0.00319384
0.00323712
0.00328006
0.00332263
0.00336483
0.00340663
0.00344801
0.00348897
0.00352948
0.00356954
0.00360914
0.00364829
0.00368701
0.00372531
0.00376319
0.00380065
0.00383768
0.00387428
0.00391041
0.00394606
0.00398121
0.00401584
0.00404992
0.00408343
0.00411635
0.00414865
0.00418031
0.00421132
0.00424164
0.00427126
0.00430017
0.00432833
0.00435573
0.00438235
0.00440816
0.00443315
0.0044573
0.0044806
0.00450304
0.0045246
0.00454527
0.00456505
0.00458393
0.00460188
0.00461889
0.00463495
0.00465007
0.00466423
0.00467745
0.00468972
0.00470104
0.00471137
0.00472072
0.0047291
0.00473653
0.00474301
0.00474852
0.00475307
0.00475668
0.00475935
0.00476108
0.0047619
0.0047618
0.00476081
0.00475893
0.00475617
0.00475256
0.0047481
0.00474282
0.00473673
0.00472985
0.0047222
0.00471381
0.00470468
0.00469485
0.00468433
0.00467314
0.00466131
0.00464884
0.00463576
0.00462208
0.00460781
0.00459298
0.00457764
0.00456183
0.00454563
0.00452912
0.00451238
0.00449552
0.00447863
0.0044618
0.00444502
0.00442817
0.00441075
0.00439211
8.12278e-06
8.8665e-05
0.000186472
0.000269628
0.000336851
0.000390886
0.000434692
0.000470809
0.00050128
0.000527708
0.000551317
0.000573033
0.000593539
0.000613337
0.000632786
0.000652148
0.000671609
0.000691311
0.000711357
0.000731833
0.000752807
0.000774341
0.000796487
0.000819294
0.000842805
0.000867057
0.000892082
0.000917906
0.000944547
0.000972016
0.00100031
0.00102944
0.00105937
0.0010901
0.0011216
0.00115383
0.00118677
0.00122038
0.00125463
0.00128948
0.00132489
0.00136083
0.00139726
0.00143417
0.00147153
0.0015093
0.00154748
0.00158604
0.00162497
0.00166426
0.0017039
0.00174388
0.00178419
0.00182482
0.00186578
0.00190705
0.00194863
0.00199051
0.00203269
0.00207516
0.00211791
0.00216094
0.00220423
0.00224779
0.00229159
0.00233563
0.0023799
0.00242438
0.00246906
0.00251392
0.00255895
0.00260412
0.00264941
0.00269481
0.00274029
0.00278582
0.00283137
0.00287692
0.00292244
0.00296789
0.00301325
0.00305847
0.00310353
0.0031484
0.00319303
0.0032374
0.00328148
0.00332524
0.00336865
0.0034117
0.00345436
0.00349663
0.00353847
0.0035799
0.00362089
0.00366152
0.00370179
0.00374168
0.0037812
0.00382035
0.00385911
0.00389748
0.00393543
0.00397294
0.00400999
0.00404655
0.0040826
0.00411812
0.00415307
0.00418744
0.00422121
0.00425435
0.00428683
0.00431863
0.00434974
0.00438013
0.00440978
0.00443868
0.00446679
0.00449409
0.00452056
0.00454619
0.00457096
0.00459487
0.00461789
0.00464002
0.00466125
0.00468159
0.00470098
0.00471942
0.0047369
0.00475342
0.00476898
0.00478358
0.00479721
0.00480988
0.00482156
0.00483226
0.00484198
0.00485073
0.00485852
0.00486533
0.00487118
0.00487606
0.00488
0.004883
0.00488506
0.00488619
0.00488641
0.00488573
0.00488416
0.00488172
0.00487841
0.00487426
0.00486928
0.00486349
0.00485691
0.00484955
0.00484144
0.00483259
0.00482303
0.00481277
0.00480184
0.00479025
0.00477802
0.00476518
0.00475174
0.00473773
0.00472321
0.00470821
0.00469282
0.0046771
0.00466115
0.00464509
0.00462901
0.00461303
0.00459717
0.00458134
0.00456517
0.00454811
8.30364e-06
8.96506e-05
0.000188725
0.00027377
0.000343144
0.000399347
0.000445198
0.000483163
0.000515255
0.000543074
0.000567864
0.000590577
0.00061193
0.000632458
0.000652553
0.000672501
0.000692513
0.000712742
0.000733305
0.000754289
0.000775765
0.000797791
0.000820414
0.000843675
0.000867607
0.000892239
0.000917593
0.000943684
0.000970522
0.000998111
0.00102645
0.00105552
0.00108531
0.00111581
0.00114699
0.00117881
0.00121126
0.0012443
0.00127791
0.00131204
0.00134667
0.00138178
0.00141733
0.00145331
0.0014897
0.00152647
0.00156361
0.00160112
0.00163898
0.00167719
0.00171573
0.00175461