/*--------------------------------*- C++ -*----------------------------------*\
  =========                 |
  \\      /  F ield         | OpenFOAM: The Open Source CFD Toolbox
   \\    /   O peration     | Website:  https://openfoam.org
    \\  /    A nd           | Version:  9
     \\/     M anipulation  |
\*---------------------------------------------------------------------------*/
FoamFile
{
    format      ascii;
    class       volScalarField;
    location    "0.2";
    object      p;
}
// * * * * * * * * * * * * * * * * * * * * * * * * * * * * * * * * * * * * * //

dimensions      [0 2 -2 0 0 0 0];

internalField   nonuniform List<scalar> 
12225
(
-1.19815
-3.48116
-4.64365
-4.95188
-5.1202
-5.28
-5.40468
-5.4932
-5.56293
-5.62408
-5.67846
-5.72587
-5.76664
-5.80007
-5.82504
-5.83121
-5.82826
-5.72013
-4.66566
-5.36777
-5.45803
-5.32302
-5.28302
-5.35039
-5.43124
-5.49721
-5.55436
-5.60791
-5.65766
-5.70244
-5.74196
-5.77535
-5.80217
-5.81538
-5.82784
-5.81236
-4.8704
-4.76746
-4.92426
-5.04644
-5.15388
-5.27628
-5.38469
-5.46748
-5.53484
-5.59486
-5.64922
-5.69769
-5.74041
-5.77712
-5.80825
-5.83069
-5.85873
-5.8912
-4.73311
-4.65499
-4.93109
-5.10987
-5.2044
-5.30163
-5.39686
-5.47456
-5.53931
-5.59772
-5.65123
-5.6995
-5.74266
-5.78085
-5.81511
-5.8455
-5.88372
-5.93606
-4.74008
-4.75734
-4.99746
-5.14741
-5.22353
-5.30834
-5.39807
-5.47429
-5.53844
-5.59637
-5.64977
-5.69844
-5.74264
-5.78293
-5.82079
-5.85793
-5.90297
-5.9627
-4.80176
-4.84423
-5.02205
-5.15284
-5.23091
-5.31355
-5.39999
-5.475
-5.5388
-5.59651
-5.64994
-5.69912
-5.74443
-5.78675
-5.82776
-5.86976
-5.91888
-5.98054
-4.8615
-4.90103
-5.03746
-5.15973
-5.2422
-5.32203
-5.40384
-5.47686
-5.54012
-5.59754
-5.65094
-5.70058
-5.74694
-5.79104
-5.83457
-5.87982
-5.93102
-5.99169
-4.91465
-4.94955
-5.05988
-5.17257
-5.25521
-5.33121
-5.4083
-5.47914
-5.54174
-5.59882
-5.65216
-5.7022
-5.74948
-5.79504
-5.84045
-5.88764
-5.93941
-5.99765
-4.96443
-4.99618
-5.08699
-5.18785
-5.268
-5.34058
-5.41346
-5.48198
-5.54369
-5.60033
-5.65352
-5.70383
-5.75183
-5.79847
-5.84507
-5.89315
-5.94443
-5.99969
-5.01179
-5.04042
-5.11562
-5.20458
-5.28104
-5.35053
-5.41958
-5.48555
-5.5461
-5.60214
-5.65505
-5.70546
-5.75389
-5.80117
-5.84834
-5.89648
-5.9466
-5.99881
-5.05656
-5.08185
-5.14467
-5.22278
-5.29474
-5.36111
-5.42658
-5.48988
-5.54901
-5.6043
-5.65677
-5.70705
-5.75561
-5.80311
-5.85031
-5.89793
-5.94651
-5.99581
-5.09506
-5.1174
-5.17126
-5.24057
-5.3079
-5.37127
-5.43365
-5.49448
-5.55214
-5.60657
-5.65848
-5.70844
-5.75684
-5.80419
-5.85103
-5.89782
-5.94482
-5.99167
-5.13076
-5.15056
-5.19711
-5.25867
-5.3213
-5.3816
-5.44108
-5.4995
-5.55559
-5.60903
-5.66026
-5.70973
-5.75776
-5.8047
-5.85092
-5.89668
-5.94208
-5.98671
-5.16828
-5.18558
-5.22539
-5.27941
-5.33681
-5.39356
-5.44991
-5.50567
-5.55987
-5.61204
-5.66233
-5.71104
-5.75839
-5.80459
-5.84986
-5.89428
-5.93785
-5.98021
-5.20639
-5.22129
-5.25515
-5.30219
-5.35413
-5.40695
-5.46
-5.51292
-5.56495
-5.61552
-5.66456
-5.71219
-5.75852
-5.80364
-5.8476
-5.89042
-5.93203
-5.97215
-5.24314
-5.25589
-5.28477
-5.3257
-5.37239
-5.42115
-5.47083
-5.52085
-5.5705
-5.61921
-5.6667
-5.71294
-5.75791
-5.80161
-5.844
-5.88503
-5.92463
-5.9626
-5.27566
-5.28667
-5.31165
-5.34768
-5.3898
-5.4348
-5.4813
-5.52854
-5.57581
-5.6225
-5.66825
-5.71286
-5.75623
-5.79828
-5.83893
-5.8781
-5.91574
-5.95171
-5.29959
-5.30939
-5.33178
-5.36446
-5.40331
-5.44544
-5.48943
-5.53439
-5.5796
-5.62443
-5.66845
-5.71141
-5.75313
-5.7935
-5.83243
-5.86982
-5.90565
-5.93983
-5.30796
-5.31732
-5.33878
-5.37031
-5.408
-5.44899
-5.4918
-5.53557
-5.57958
-5.6232
-5.66598
-5.70762
-5.74798
-5.78692
-5.82437
-5.86027
-5.89459
-5.92733
-5.29297
-5.30302
-5.326
-5.35963
-5.39942
-5.44201
-5.48586
-5.53031
-5.57472
-5.61846
-5.66108
-5.70237
-5.74219
-5.78048
-5.81717
-5.85224
-5.8857
-5.91757
-5.26675
-5.27794
-5.30372
-5.34143
-5.38518
-5.43073
-5.47676
-5.52295
-5.56867
-5.61323
-5.65629
-5.69774
-5.73754
-5.77565
-5.81205
-5.84675
-5.87979
-5.91123
-5.23179
-5.24416
-5.27419
-5.31865
-5.36814
-5.41725
-5.46597
-5.51465
-5.56234
-5.60817
-5.65195
-5.69383
-5.73383
-5.77197
-5.80827
-5.84278
-5.87558
-5.90674
-5.19116
-5.20376
-5.23912
-5.29369
-5.3508
-5.40378
-5.45534
-5.50671
-5.55646
-5.60361
-5.64827
-5.69073
-5.73108
-5.76936
-5.80565
-5.84009
-5.87275
-5.90377
-5.14731
-5.15887
-5.20125
-5.26785
-5.33252
-5.39014
-5.44602
-5.50068
-5.55216
-5.6002
-5.64552
-5.68847
-5.7291
-5.76748
-5.80375
-5.83811
-5.87066
-5.90155
-5.10045
-5.1082
-5.16923
-5.249
-5.31411
-5.37375
-5.43562
-5.49516
-5.54889
-5.59791
-5.6439
-5.68734
-5.72819
-5.7666
-5.80281
-5.83706
-5.86951
-5.90032
-5.05249
-5.02883
-5.13962
-5.24853
-5.30908
-5.36314
-5.42653
-5.48884
-5.54408
-5.59404
-5.64085
-5.68488
-5.72606
-5.76462
-5.80088
-5.83512
-5.86754
-5.89829
-5.04318
-4.89884
-5.05786
-5.22403
-5.30849
-5.36946
-5.43421
-5.49531
-5.54899
-5.59806
-5.6444
-5.68799
-5.72871
-5.76682
-5.80267
-5.83652
-5.86863
-5.89918
-5.18858
-4.90477
-4.93949
-5.06991
-5.18944
-5.2964
-5.39039
-5.46609
-5.52825
-5.5834
-5.63405
-5.68054
-5.72322
-5.7627
-5.79951
-5.83403
-5.86677
-5.89837
-5.12538
-5.62506
-5.63515
-5.47586
-5.39483
-5.41898
-5.47305
-5.52238
-5.5674
-5.61186
-5.6554
-5.69672
-5.73546
-5.77182
-5.80601
-5.83811
-5.8684
-5.89872
-1.78669
-3.65725
-4.7285
-5.02151
-5.15629
-5.29298
-5.40482
-5.48474
-5.5476
-5.60352
-5.65471
-5.70126
-5.74374
-5.78288
-5.81911
-5.85244
-5.88252
-5.90758
-6.80092
-6.80092
-6.80129
-6.802
-6.80294
-6.8041
-6.80548
-6.80709
-6.80896
-6.81109
-6.81352
-6.81626
-6.81937
-6.82287
-6.8268
-6.8312
-6.8361
-6.84155
-6.84756
-6.85419
-6.86148
-6.86945
-6.87815
-6.88762
-6.8979
-6.90903
-6.92107
-6.93407
-6.9481
-6.9633
-6.97976
-6.99724
-7.01529
-7.0336
-7.05268
-7.07366
-7.09799
-7.12617
-7.15384
-7.1673
-7.19003
-7.232
-7.26843
-7.28885
-7.30367
-7.32792
-7.35483
-7.38345
-7.41311
-7.4435
-7.4744
-7.50566
-7.53713
-7.56871
-7.60028
-7.63173
-7.66295
-7.69383
-7.72424
-7.75406
-7.78318
-7.81146
-7.83876
-7.86493
-7.88985
-7.91334
-7.93525
-7.95541
-7.97367
-7.98984
-8.00375
-8.01523
-8.02407
-8.03011
-8.03315
-8.033
-8.02948
-8.02239
-8.01154
-7.99675
-7.97782
-7.95458
-7.92683
-7.89441
-7.85714
-7.81484
-7.76734
-7.7145
-7.65615
-7.59214
-7.52233
-7.44658
-7.36477
-7.27678
-7.18251
-7.08185
-6.97479
-6.86135
-6.74146
-6.61494
-6.48151
-6.34099
-6.19355
-6.03924
-5.87808
-5.7101
-5.53533
-5.35381
-5.16559
-4.97077
-4.76942
-4.56165
-4.34759
-4.12736
-3.90114
-3.66908
-3.43137
-3.1882
-2.93978
-2.68635
-2.42813
-2.16538
-1.89834
-1.62731
-1.35254
-1.07433
-0.792981
-0.508784
-0.22205
0.0669086
0.357776
0.650235
0.943964
1.23865
1.53396
1.82959
2.12521
2.42053
2.71523
3.00902
3.30159
3.59267
3.88198
4.16925
4.45422
4.73665
5.0163
5.29294
5.56637
5.83639
6.10281
6.36545
6.62415
6.87877
7.12917
7.37523
7.61682
7.85387
8.08626
8.31393
8.53681
8.75484
8.96798
9.17621
9.37951
9.57783
9.771
9.95887
10.1415
10.3188
10.4909
10.6578
10.8194
10.9759
11.1273
11.2739
11.4166
11.5568
11.7036
11.8576
-6.79953
-6.79984
-6.80031
-6.8009
-6.80147
-6.80204
-6.80274
-6.80367
-6.8049
-6.80646
-6.80837
-6.81065
-6.81331
-6.81638
-6.81989
-6.82386
-6.82832
-6.8333
-6.83883
-6.84495
-6.85169
-6.85909
-6.86716
-6.87594
-6.88546
-6.89575
-6.90683
-6.91873
-6.93147
-6.94496
-6.95901
-6.97355
-6.98896
-7.00603
-7.02503
-7.04523
-7.06523
-7.08329
-7.09854
-7.12865
-7.15996
-7.17708
-7.19431
-7.22607
-7.26673
-7.29962
-7.33051
-7.36102
-7.3916
-7.4224
-7.45346
-7.48474
-7.51615
-7.54763
-7.57908
-7.61041
-7.64151
-7.67228
-7.70261
-7.73237
-7.76145
-7.78972
-7.81703
-7.84326
-7.86826
-7.89186
-7.91393
-7.93429
-7.95278
-7.96922
-7.98345
-7.99528
-8.00452
-8.011
-8.01452
-8.0149
-8.01195
-8.00547
-7.99528
-7.9812
-7.96302
-7.94058
-7.91368
-7.88215
-7.84581
-7.8045
-7.75805
-7.70629
-7.64908
-7.58627
-7.51771
-7.44328
-7.36284
-7.27628
-7.18348
-7.08434
-6.97875
-6.86658
-6.7477
-6.62189
-6.48925
-6.35006
-6.20414
-6.05142
-5.89189
-5.72556
-5.55245
-5.3726
-5.18606
-4.9929
-4.79322
-4.58711
-4.3747
-4.15611
-3.93151
-3.70104
-3.4649
-3.22328
-2.97638
-2.72442
-2.46765
-2.20629
-1.94062
-1.6709
-1.39739
-1.1204
-0.840207
-0.557115
-0.271429
0.0165407
0.30648
0.598072
0.890999
1.18494
1.47958
1.7746
2.06968
2.36452
2.65881
2.95224
3.24453
3.53539
3.82454
4.11171
4.39664
4.67908
4.9588
5.23558
5.50919
5.77943
6.04612
6.30907
6.56814
6.82315
7.07398
7.32049
7.56258
7.80014
8.03307
8.2613
8.48476
8.7034
8.91716
9.12603
9.32997
9.5289
9.7227
9.91124
10.0945
10.2726
10.4454
10.613
10.7754
10.9327
11.0851
11.233
11.3775
11.5198
11.6701
11.8181
-6.79588
-6.79699
-6.79816
-6.79919
-6.79991
-6.80047
-6.80107
-6.80183
-6.80286
-6.80421
-6.8059
-6.80797
-6.81044
-6.81333
-6.81667
-6.82048
-6.82479
-6.82962
-6.83502
-6.84101
-6.84763
-6.85489
-6.86284
-6.8715
-6.8809
-6.89107
-6.90204
-6.91386
-6.92656
-6.94015
-6.9546
-6.96986
-6.98605
-7.00342
-7.02216
-7.04214
-7.06293
-7.08404
-7.10557
-7.13027
-7.1564
-7.17926
-7.2016
-7.22745
-7.25702
-7.28666
-7.31648
-7.3465
-7.37671
-7.40715
-7.4378
-7.46862
-7.49956
-7.53055
-7.56151
-7.59235
-7.62298
-7.6533
-7.6832
-7.71256
-7.74128
-7.76921
-7.79623
-7.82221
-7.84699
-7.87043
-7.89237
-7.91266
-7.93112
-7.94759
-7.96189
-7.97385
-7.98328
-7.99
-7.99382
-7.99456
-7.99202
-7.98602
-7.97637
-7.96289
-7.94537
-7.92365
-7.89754
-7.86685
-7.83142
-7.79108
-7.74565
-7.69499
-7.63893
-7.57732
-7.51003
-7.43691
-7.35784
-7.2727
-7.18136
-7.08373
-6.97968
-6.86907
-6.75181
-6.62788
-6.49719
-6.35982
-6.21572
-6.06486
-5.90721
-5.74278
-5.57159
-5.39368
-5.20908
-5.01788
-4.82015
-4.61599
-4.40552
-4.18887
-3.96618
-3.73762
-3.50336
-3.26358
-3.01851
-2.76834
-2.51331
-2.25366
-1.98965
-1.72154
-1.44959
-1.17411
-0.895362
-0.613657
-0.329294
-0.0425816
0.246169
0.536642
0.82852
1.12149
1.41523
1.70942
2.00375
2.29792
2.59161
2.88453
3.17638
3.46687
3.75573
4.04268
4.32746
4.60983
4.88955
5.16638
5.44011
5.71054
5.97747
6.24073
6.50014
6.75555
7.00683
7.25383
7.49644
7.73456
7.96809
8.19694
8.42104
8.64032
8.85474
9.06424
9.26879
9.46833
9.66279
9.85212
10.0362
10.2151
10.3888
10.5573
10.7207
10.8791
11.0327
11.182
11.3285
11.4725
11.6254
11.7631
-6.79043
-6.79232
-6.79457
-6.79645
-6.79776
-6.79872
-6.79958
-6.80051
-6.80162
-6.80299
-6.80467
-6.80672
-6.80915
-6.812
-6.81529
-6.81906
-6.82332
-6.82811
-6.83346
-6.8394
-6.84595
-6.85315
-6.86102
-6.8696
-6.87891
-6.88898
-6.89985
-6.91153
-6.92407
-6.93749
-6.95179
-6.96698
-6.98312
-7.00031
-7.01861
-7.038
-7.05836
-7.0796
-7.10189
-7.12542
-7.14988
-7.17446
-7.19946
-7.22557
-7.25297
-7.28123
-7.31007
-7.33936
-7.369
-7.39894
-7.42912
-7.4595
-7.49002
-7.52059
-7.55115
-7.58161
-7.61188
-7.64186
-7.67145
-7.70054
-7.729
-7.75672
-7.78356
-7.80939
-7.83406
-7.85743
-7.87934
-7.89963
-7.91814
-7.9347
-7.94913
-7.96126
-7.9709
-7.97787
-7.98199
-7.98308
-7.98093
-7.97536
-7.96619
-7.95322
-7.93628
-7.91516
-7.88971
-7.85972
-7.82504
-7.78548
-7.74089
-7.6911
-7.63596
-7.57531
-7.50901
-7.43693
-7.35892
-7.27487
-7.18465
-7.08815
-6.98526
-6.87586
-6.75986
-6.63725
-6.50798
-6.37204
-6.22937
-6.07996
-5.92378
-5.76083
-5.59113
-5.41472
-5.23163
-5.04194
-4.84572
-4.64308
-4.43411
-4.21896
-3.99776
-3.77067
-3.53786
-3.29953
-3.05586
-2.80708
-2.55341
-2.29509
-2.03237
-1.76552
-1.4948
-1.22049
-0.942874
-0.662257
-0.378933
-0.0932103
0.194602
0.484191
0.775239
1.06743
1.36045
1.65399
1.94772
2.24135
2.53456
2.82705
3.11854
3.40872
3.69733
3.9841
4.26875
4.55104
4.83074
5.1076
5.38141
5.65197
5.91908
6.18255
6.44223
6.69794
6.94956
7.19693
7.43996
7.67851
7.91249
8.14181
8.36641
8.58622
8.80118
9.01123
9.21629
9.4163
9.61124
9.80108
9.98577
10.1653
10.3396
10.5087
10.6728
10.8319
10.9864
11.1366
11.284
11.4281
11.5799
11.7054
-6.78452
-6.78726
-6.79067
-6.79355
-6.7956
-6.79713
-6.79843
-6.7997
-6.80107
-6.80265
-6.8045
-6.80668
-6.80922
-6.81218
-6.81557
-6.81942
-6.82377
-6.82865
-6.83408
-6.84009
-6.84672
-6.85399
-6.86194
-6.8706
-6.87999
-6.89015
-6.9011
-6.91288
-6.92552
-6.93904
-6.95345
-6.96877
-6.98505
-7.00234
-7.02066
-7.03998
-7.06024
-7.08142
-7.10353
-7.12661
-7.15053
-7.17512
-7.20046
-7.22665
-7.25368
-7.28139
-7.30967
-7.33843
-7.3676
-7.39711
-7.4269
-7.45691
-7.48708
-7.51734
-7.54759
-7.57777
-7.60779
-7.63753
-7.66691
-7.69581
-7.72411
-7.7517
-7.77843
-7.80419
-7.82881
-7.85216
-7.87408
-7.89441
-7.91298
-7.92964
-7.9442
-7.95648
-7.96631
-7.9735
-7.97787
-7.97922
-7.97738
-7.97215
-7.96334
-7.95077
-7.93424
-7.91358
-7.8886
-7.85913
-7.82499
-7.786
-7.742
-7.69284
-7.63835
-7.57838
-7.51279
-7.44143
-7.36418
-7.28091
-7.1915
-7.09582
-6.99378
-6.88528
-6.77024
-6.6486
-6.52032
-6.38537
-6.24371
-6.09529
-5.94012
-5.77819
-5.60952
-5.43413
-5.25207
-5.0634
-4.86821
-4.66659
-4.45865
-4.24451
-4.02432
-3.79823
-3.56641
-3.32904
-3.08633
-2.83849
-2.58575
-2.32833
-2.06649
-1.80049
-1.5306
-1.25709
-0.98025
-0.700375
-0.417762
-0.132716
0.154453
0.443433
0.73391
1.02557
1.31809
1.61117
1.90449
2.19773
2.4906
2.7828
3.07402
3.36399
3.65242
3.93904
4.2236
4.50583
4.78549
5.06236
5.33622
5.60686
5.87408
6.1377
6.39755
6.65347
6.90531
7.15294
7.39623
7.63508
7.86939
8.09906
8.32402
8.5442
8.75953
8.96993
9.17534
9.37566
9.57089
9.76104
9.94605
10.1259
10.3006
10.4701
10.6346
10.7942
10.949
11.0995
11.2469
11.3898
11.5388
11.6526
-6.77934
-6.78283
-6.78727
-6.7911
-6.79392
-6.79608
-6.79791
-6.79963
-6.80138
-6.80328
-6.80541
-6.80784
-6.81063
-6.8138
-6.8174
-6.82146
-6.82601
-6.83109
-6.83671
-6.84292
-6.84975
-6.85723
-6.86539
-6.87425
-6.88386
-6.89424
-6.90543
-6.91744
-6.93031
-6.94407
-6.95872
-6.97428
-6.99078
-7.00823
-7.02665
-7.046
-7.06628
-7.08744
-7.10948
-7.13237
-7.15604
-7.18046
-7.20561
-7.23153
-7.25817
-7.28546
-7.31332
-7.34168
-7.37048
-7.39965
-7.42913
-7.45886
-7.48877
-7.51878
-7.54882
-7.57881
-7.60865
-7.63825
-7.6675
-7.6963
-7.72452
-7.75204
-7.77874
-7.80448
-7.82911
-7.85249
-7.87446
-7.89487
-7.91354
-7.9303
-7.94499
-7.95743
-7.96743
-7.97481
-7.97939
-7.98098
-7.97938
-7.97441
-7.96588
-7.95361
-7.9374
-7.91707
-7.89245
-7.86334
-7.82958
-7.791
-7.74742
-7.6987
-7.64466
-7.58517
-7.52007
-7.44922
-7.3725
-7.28978
-7.20093
-7.10584
-7.0044
-6.89654
-6.78217
-6.66121
-6.53361
-6.39934
-6.25835
-6.11061
-5.95611
-5.79486
-5.62686
-5.45214
-5.27076
-5.08278
-4.88826
-4.68732
-4.48005
-4.26658
-4.04705
-3.82162
-3.59045
-3.35373
-3.11166
-2.86444
-2.61231
-2.35549
-2.09425
-1.82882
-1.55949
-1.28652
-1.01021
-0.730838
-0.448712
-0.164133
0.122592
0.411149
0.701226
0.992508
1.28468
1.57743
1.87045
2.16342
2.45604
2.74801
3.03903
3.32883
3.61712
3.90362
4.18808
4.47025
4.74988
5.02673
5.3006
5.57127
5.83855
6.10225
6.3622
6.61824
6.87022
7.11801
7.36149
7.60054
7.83506
8.06496
8.29015
8.51057
8.72613
8.93676
9.14238
9.34291
9.53834
9.72869
9.91391
10.094
10.2689
10.4387
10.6034
10.7631
10.9181
11.0685
11.2153
11.3565
11.5024
11.6058
-6.77574
-6.77979
-6.78506
-6.78968
-6.79321
-6.79597
-6.79833
-6.80051
-6.80268
-6.80496
-6.80744
-6.81019
-6.81328
-6.81674
-6.82062
-6.82496
-6.82978
-6.83513
-6.84102
-6.84751
-6.85461
-6.86236
-6.87079
-6.87993
-6.88981
-6.90047
-6.91193
-6.92421
-6.93733
-6.95132
-6.9662
-6.98197
-6.99864
-7.01622
-7.03471
-7.05409
-7.07436
-7.09548
-7.11743
-7.1402
-7.16373
-7.18801
-7.21301
-7.23871
-7.26509
-7.29209
-7.31967
-7.34775
-7.37629
-7.40523
-7.4345
-7.46404
-7.49378
-7.52365
-7.55357
-7.58345
-7.61321
-7.64275
-7.67196
-7.70073
-7.72895
-7.75649
-7.78322
-7.80901
-7.8337
-7.85716
-7.87923
-7.89973
-7.91852
-7.93542
-7.95025
-7.96284
-7.973
-7.98056
-7.98531
-7.98708
-7.98568
-7.98092
-7.9726
-7.96054
-7.94456
-7.92447
-7.90008
-7.87122
-7.83772
-7.7994
-7.7561
-7.70766
-7.65392
-7.59474
-7.52996
-7.45945
-7.38307
-7.3007
-7.21222
-7.11752
-7.01649
-6.90904
-6.79509
-6.67457
-6.5474
-6.41355
-6.27298
-6.12566
-5.97158
-5.81074
-5.64316
-5.46886
-5.2879
-5.10033
-4.90624
-4.70571
-4.49885
-4.2858
-4.06669
-3.84167
-3.61092
-3.37461
-3.13294
-2.88613
-2.6344
-2.37798
-2.11711
-1.85207
-1.58311
-1.31051
-1.03455
-0.755533
-0.473744
-0.18949
0.0969206
0.385176
0.674964
0.96597
1.25788
1.55038
1.84317
2.13592
2.42834
2.72013
3.01099
3.30064
3.58879
3.87518
4.15955
4.44163
4.7212
4.99801
5.27185
5.54251
5.80979
6.07351
6.3335
6.58959
6.84165
7.08953
7.33311
7.57227
7.80692
8.03695
8.26228
8.48283
8.69853
8.9093
9.11506
9.31574
9.51132
9.7018
9.88716
10.0674
10.2424
10.4124
10.5772
10.737
10.8918
11.0419
11.1878
11.3271
11.4701
11.5644
-6.77414
-6.7786
-6.78445
-6.78969
-6.79378
-6.79707
-6.79991
-6.80254
-6.80511
-6.80776
-6.8106
-6.81369
-6.8171
-6.82088
-6.82506
-6.8297
-6.83482
-6.84047
-6.84666
-6.85344
-6.86083
-6.86887
-6.87759
-6.88702
-6.89718
-6.90811
-6.91983
-6.93236
-6.94571
-6.95992
-6.97498
-6.99091
-7.00771
-7.02539
-7.04393
-7.06334
-7.08359
-7.10467
-7.12656
-7.14924
-7.17267
-7.19684
-7.22172
-7.24729
-7.27351
-7.30035
-7.32775
-7.35568
-7.38407
-7.41288
-7.44204
-7.47149
-7.50116
-7.53098
-7.56087
-7.59074
-7.62051
-7.65006
-7.67931
-7.70814
-7.73642
-7.76404
-7.79086
-7.81675
-7.84155
-7.86513
-7.88732
-7.90796
-7.92688
-7.94392
-7.95889
-7.97163
-7.98193
-7.98963
-7.99453
-7.99645
-7.99519
-7.99057
-7.98239
-7.97048
-7.95463
-7.93468
-7.91044
-7.88172
-7.84836
-7.81019
-7.76704
-7.71876
-7.66518
-7.60616
-7.54155
-7.47122
-7.39503
-7.31286
-7.22459
-7.1301
-7.0293
-6.92208
-6.80837
-6.68807
-6.56113
-6.42751
-6.28715
-6.14005
-5.98618
-5.82555
-5.65818
-5.48409
-5.30334
-5.11599
-4.92211
-4.72181
-4.51518
-4.30235
-4.08347
-3.85869
-3.62817
-3.39209
-3.15067
-2.9041
-2.6526
-2.39642
-2.1358
-1.871
-1.60228
-1.32992
-1.0542
-0.775418
-0.493861
-0.209836
0.0763499
0.364385
0.653958
0.944755
1.23646
1.52877
1.82137
2.11394
2.40619
2.69782
2.98853
3.27803
3.56606
3.85232
4.13658
4.41856
4.69803
4.97477
5.24854
5.51915
5.78639
6.05009
6.31007
6.56616
6.81823
7.06613
7.30975
7.54896
7.78365
8.01375
8.23915
8.45978
8.67556
8.8864
9.09224
9.29301
9.48869
9.67926
9.86472
10.045
10.2202
10.3901
10.5549
10.7146
10.8693
11.0188
11.1636
11.3009
11.4413
11.5276
-6.77478
-6.77945
-6.78566
-6.79131
-6.79582
-6.79952
-6.80275
-6.80576
-6.80869
-6.81169
-6.81485
-6.81825
-6.82197
-6.82604
-6.83052
-6.83544
-6.84085
-6.84677
-6.85324
-6.86029
-6.86796
-6.87626
-6.88524
-6.89493
-6.90534
-6.9165
-6.92843
-6.94117
-6.95471
-6.96908
-6.98429
-7.00034
-7.01724
-7.03498
-7.05357
-7.07299
-7.09324
-7.1143
-7.13615
-7.15877
-7.18215
-7.20626
-7.23108
-7.25657
-7.28272
-7.30948
-7.33682
-7.36469
-7.39304
-7.42181
-7.45096
-7.48041
-7.5101
-7.53995
-7.56989
-7.59983
-7.62968
-7.65933
-7.68868
-7.71762
-7.74603
-7.77378
-7.80074
-7.82676
-7.85171
-7.87543
-7.89776
-7.91854
-7.9376
-7.95477
-7.96988
-7.98273
-7.99315
-8.00096
-8.00596
-8.00797
-8.0068
-8.00225
-7.99415
-7.9823
-7.96651
-7.94661
-7.92242
-7.89375
-7.86043
-7.8223
-7.77918
-7.73094
-7.6774
-7.61842
-7.55386
-7.48358
-7.40745
-7.32535
-7.23715
-7.14274
-7.04201
-6.93487
-6.82123
-6.70099
-6.57412
-6.44055
-6.30025
-6.1532
-5.99938
-5.8388
-5.67148
-5.49745
-5.31676
-5.12947
-4.93567
-4.73543
-4.52889
-4.31615
-4.09736
-3.87267
-3.64226
-3.4063
-3.16499
-2.91855
-2.66718
-2.41114
-2.15066
-1.88601
-1.61744
-1.34524
-1.06968
-0.791056
-0.509664
-0.225805
0.0602112
0.348077
0.637479
0.928105
1.21964
1.51178
1.80421
2.09662
2.38871
2.68018
2.97074
3.26009
3.54797
3.8341
4.11822
4.40008
4.67944
4.95607
5.22974
5.50026
5.76743
6.03105
6.29097
6.54701
6.79904
7.04691
7.29051
7.5297
7.7644
7.99451
8.21992
8.44057
8.65637
8.86725
9.07313
9.27395
9.46968
9.66031
9.84581
10.0262
10.2013
10.3713
10.536
10.6955
10.8498
10.9986
11.1423
11.2775
11.4155
11.495
-6.77762
-6.78235
-6.78869
-6.79455
-6.79932
-6.80331
-6.80684
-6.81014
-6.81337
-6.81664
-6.82006
-6.82373
-6.82769
-6.83201
-6.83672
-6.84188
-6.84752
-6.85367
-6.86037
-6.86764
-6.87552
-6.88404
-6.89322
-6.9031
-6.91369
-6.92503
-6.93713
-6.95001
-6.96369
-6.97817
-6.99348
-7.00961
-7.02658
-7.04437
-7.06299
-7.08243
-7.10269
-7.12374
-7.14558
-7.1682
-7.19156
-7.21567
-7.24048
-7.26597
-7.29212
-7.31889
-7.34625
-7.37414
-7.40253
-7.43136
-7.46058
-7.49011
-7.5199
-7.54986
-7.57993
-7.61
-7.63998
-7.66978
-7.69929
-7.72839
-7.75696
-7.78487
-7.81198
-7.83817
-7.86327
-7.88713
-7.9096
-7.93051
-7.94969
-7.96697
-7.98217
-7.9951
-8.0056
-8.01346
-8.0185
-8.02054
-8.01939
-8.01485
-8.00673
-7.99486
-7.97905
-7.95911
-7.93487
-7.90615
-7.87277
-7.83458
-7.79141
-7.74309
-7.68949
-7.63045
-7.56583
-7.4955
-7.41932
-7.33717
-7.24893
-7.15448
-7.05371
-6.94651
-6.8328
-6.7125
-6.58555
-6.45191
-6.31154
-6.16441
-6.01052
-5.84988
-5.68249
-5.50841
-5.32766
-5.14033
-4.94649
-4.74623
-4.53966
-4.32691
-4.10813
-3.88345
-3.65306
-3.41714
-3.17587
-2.92948
-2.67818
-2.42221
-2.16181
-1.89725
-1.62878
-1.35669
-1.08125
-0.802755
-0.521496
-0.237777
0.048094
0.335809
0.625057
0.915524
1.2069
1.49887
1.79113
2.08337
2.37528
2.66658
2.95696
3.24615
3.53386
3.81983
4.10379
4.38549
4.6647
4.94119
5.21472
5.48511
5.75215
6.01566
6.27547
6.53142
6.78336
7.03115
7.27468
7.51382
7.74847
7.97853
8.20392
8.42454
8.64033
8.85119
9.05707
9.25791
9.45367
9.64432
9.82983
10.0102
10.1853
10.3552
10.5198
10.679
10.8328
10.9809
11.1233
11.2565
11.3924
11.4661
-6.78249
-6.78714
-6.79342
-6.79931
-6.80419
-6.80834
-6.81206
-6.81555
-6.81897
-6.82243
-6.82604
-6.82988
-6.83402
-6.8385
-6.84338
-6.8487
-6.85449
-6.86079
-6.86764
-6.87505
-6.88308
-6.89173
-6.90104
-6.91104
-6.92176
-6.9332
-6.9454
-6.95837
-6.97213
-6.98669
-7.00206
-7.01824
-7.03525
-7.05307
-7.07172
-7.09119
-7.11146
-7.13254
-7.15441
-7.17705
-7.20045
-7.22459
-7.24946
-7.27501
-7.30123
-7.32808
-7.35552
-7.38352
-7.41202
-7.44097
-7.47032
-7.5
-7.52994
-7.56007
-7.5903
-7.62054
-7.65071
-7.68069
-7.71037
-7.73964
-7.76838
-7.79646
-7.82373
-7.85005
-7.87529
-7.89927
-7.92185
-7.94284
-7.9621
-7.97943
-7.99467
-8.00762
-8.01812
-8.02596
-8.03097
-8.03296
-8.03174
-8.02712
-8.01891
-8.00693
-7.991
-7.97094
-7.94656
-7.91769
-7.88417
-7.84582
-7.8025
-7.75403
-7.70028
-7.64109
-7.57633
-7.50585
-7.42954
-7.34725
-7.25888
-7.16429
-7.06336
-6.95599
-6.84211
-6.72164
-6.59453
-6.46072
-6.32018
-6.17289
-6.01884
-5.85804
-5.69052
-5.51629
-5.33543
-5.14798
-4.95404
-4.75369
-4.54704
-4.33423
-4.1154
-3.89069
-3.66028
-3.42435
-3.18309
-2.93671
-2.68545
-2.42953
-2.16919
-1.9047
-1.63632
-1.36433
-1.089
-0.810624
-0.529501
-0.24593
0.0397863
0.327338
0.616416
0.906708
1.1979
1.48968
1.78175
2.07379
2.3655
2.6566
2.94678
3.23576
3.52327
3.80903
4.09279
4.3743
4.65331
4.92961
5.20296
5.47317
5.74004
6.00339
6.26304
6.51885
6.77065
7.01832
7.26173
7.50077
7.73532
7.96531
8.19062
8.41118
8.62691
8.83774
9.04359
9.24441
9.44016
9.6308
9.8163
9.99661
10.1717
10.3414
10.5058
10.6648
10.818
10.9652
11.1064
11.2377
11.3716
11.4404
-6.78913
-6.79359
-6.79965
-6.8054
-6.81026
-6.81444
-6.81823
-6.8218
-6.8253
-6.82885
-6.83254
-6.83646
-6.84067
-6.84523
-6.85017
-6.85555
-6.86141
-6.86777
-6.87467
-6.88215
-6.89022
-6.89893
-6.9083
-6.91835
-6.92911
-6.9406
-6.95284
-6.96584
-6.97964
-6.99422
-7.00962
-7.02583
-7.04286
-7.06072
-7.07939
-7.09889
-7.11921
-7.14033
-7.16225
-7.18496
-7.20844
-7.23267
-7.25762
-7.28329
-7.30963
-7.33661
-7.36419
-7.39234
-7.421
-7.45012
-7.47964
-7.5095
-7.53962
-7.56994
-7.60035
-7.63078
-7.66112
-7.69127
-7.72112
-7.75054
-7.77942
-7.80762
-7.83501
-7.86143
-7.88673
-7.91077
-7.93338
-7.9544
-7.97364
-7.99095
-8.00614
-8.01902
-8.02942
-8.03716
-8.04204
-8.04388
-8.04249
-8.0377
-8.0293
-8.01712
-8.00098
-7.9807
-7.95609
-7.927
-7.89325
-7.85468
-7.81112
-7.76243
-7.70846
-7.64905
-7.58408
-7.5134
-7.43689
-7.35441
-7.26581
-7.17098
-7.06981
-6.9622
-6.84808
-6.72737
-6.60001
-6.46597
-6.32521
-6.1777
-6.02344
-5.86245
-5.69474
-5.52034
-5.33932
-5.15173
-4.95765
-4.75719
-4.55046
-4.33757
-4.11867
-3.89392
-3.66348
-3.42754
-3.18629
-2.93995
-2.68873
-2.43287
-2.17261
-1.90822
-1.63995
-1.36807
-1.09288
-0.814653
-0.533694
-0.250299
0.0352296
0.322584
0.611455
0.901531
1.1925
1.48405
1.77587
2.06767
2.35914
2.64998
2.93991
3.22863
3.51588
3.80139
4.0849
4.36615
4.64492
4.92097
5.19408
5.46406
5.73071
5.99384
6.25329
6.5089
6.76052
7.00802
7.25127
7.49016
7.72459
7.95444
8.17965
8.40011
8.61576
8.82652
9.03232
9.2331
9.42882
9.61942
9.80488
9.98513
10.1601
10.3297
10.4939
10.6524
10.8051
10.9514
11.0913
11.2208
11.3528
11.4175
-6.79721
-6.8014
-6.80712
-6.81262
-6.81732
-6.82141
-6.82513
-6.82865
-6.83212
-6.83563
-6.83929
-6.84317
-6.84735
-6.85186
-6.85677
-6.86211
-6.86792
-6.87424
-6.88111
-6.88855
-6.8966
-6.90528
-6.91462
-6.92465
-6.93539
-6.94687
-6.95909
-6.97209
-6.98588
-7.00047
-7.01587
-7.03209
-7.04913
-7.06701
-7.08572
-7.10526
-7.12563
-7.14682
-7.16882
-7.19162
-7.2152
-7.23954
-7.26463
-7.29043
-7.31692
-7.34405
-7.3718
-7.40012
-7.42895
-7.45824
-7.48794
-7.51797
-7.54826
-7.57873
-7.6093
-7.63987
-7.67034
-7.7006
-7.73055
-7.76006
-7.789
-7.81724
-7.84464
-7.87106
-7.89634
-7.92033
-7.94286
-7.96378
-7.98291
-8.00007
-8.01509
-8.02779
-8.03798
-8.04549
-8.05013
-8.05172
-8.05007
-8.04499
-8.03631
-8.02384
-8.0074
-7.98682
-7.96192
-7.93253
-7.89849
-7.85963
-7.8158
-7.76683
-7.71259
-7.65293
-7.58771
-7.51679
-7.44004
-7.35729
-7.2684
-7.17328
-7.07181
-6.96391
-6.8495
-6.72851
-6.60088
-6.46658
-6.32557
-6.17783
-6.02336
-5.86217
-5.69427
-5.51971
-5.33854
-5.15082
-4.95663
-4.75608
-4.54927
-4.33633
-4.1174
-3.89263
-3.6622
-3.42628
-3.18508
-2.93881
-2.68768
-2.43193
-2.17179
-1.90754
-1.63943
-1.36773
-1.09272
-0.814705
-0.533968
-0.250808
0.034472
0.321566
0.610165
0.89996
1.19064
1.48189
1.77341
2.0649
2.35605
2.64657
2.93617
3.22458
3.5115
3.79669
4.07987
4.36081
4.63927
4.91501
5.18783
5.45752
5.72388
5.98675
6.24594
6.5013
6.75269
6.99997
7.24302
7.48171
7.71596
7.94566
8.17072
8.39106
8.6066
8.81726
9.02298
9.2237
9.41936
9.60992
9.79532
9.97549
10.1503
10.3198
10.4837
10.6418
10.7938
10.9393
11.0779
11.2057
11.3359
11.3973
-6.80644
-6.81032
-6.81563
-6.82077
-6.82519
-6.82905
-6.83257
-6.83591
-6.83919
-6.84253
-6.84602
-6.84973
-6.85374
-6.85809
-6.86284
-6.86803
-6.8737
-6.87989
-6.88663
-6.89396
-6.90189
-6.91047
-6.91972
-6.92967
-6.94033
-6.95174
-6.96391
-6.97686
-6.99061
-7.00517
-7.02055
-7.03676
-7.05381
-7.07171
-7.09045
-7.11004
-7.13046
-7.15172
-7.17381
-7.1967
-7.22039
-7.24485
-7.27006
-7.29599
-7.32262
-7.34989
-7.37777
-7.40622
-7.43518
-7.4646
-7.49441
-7.52454
-7.55492
-7.58546
-7.61608
-7.64668
-7.67717
-7.70743
-7.73735
-7.7668
-7.79566
-7.8238
-7.85107
-7.87734
-7.90245
-7.92624
-7.94855
-7.96922
-7.98808
-8.00496
-8.01968
-8.03206
-8.04192
-8.04909
-8.05337
-8.0546
-8.05258
-8.04713
-8.03808
-8.02525
-8.00845
-7.98752
-7.96228
-7.93255
-7.89819
-7.85902
-7.81489
-7.76564
-7.71113
-7.65122
-7.58576
-7.51459
-7.43753
-7.35446
-7.26526
-7.16982
-7.06804
-6.95985
-6.84516
-6.72389
-6.59601
-6.46147
-6.32023
-6.17229
-6.01763
-5.85627
-5.68823
-5.51354
-5.33226
-5.14446
-4.95021
-4.74962
-4.5428
-4.32986
-4.11096
-3.88625
-3.65589
-3.42007
-3.179
-2.93287
-2.6819
-2.42633
-2.16641
-1.90237
-1.6345
-1.36306
-1.08834
-0.810613
-0.530184
-0.247347
0.0375973
0.324343
0.612583
0.902007
1.19231
1.48317
1.7743
2.06539
2.35614
2.64626
2.93546
3.22346
3.50998
3.79477
4.07756
4.3581
4.63618
4.91155
5.184
5.45333
5.71935
5.98189
6.24076
6.49582
6.74693
6.99394
7.23673
7.4752
7.70924
7.93874
8.16363
8.38381
8.59921
8.80976
9.01538
9.21602
9.41162
9.60211
9.78743
9.9675
10.1422
10.3115
10.4751
10.6327
10.7842
10.9286
11.0661
11.1923
11.3206
11.3795
-6.8166
-6.82015
-6.82501
-6.82971
-6.83373
-6.83722
-6.84038
-6.84336
-6.8463
-6.8493
-6.85246
-6.85586
-6.85956
-6.86362
-6.8681
-6.87303
-6.87845
-6.88441
-6.89094
-6.89807
-6.90582
-6.91424
-6.92333
-6.93314
-6.94368
-6.95497
-6.96704
-6.97991
-6.99358
-7.00808
-7.02342
-7.0396
-7.05663
-7.07452
-7.09327
-7.11288
-7.13334
-7.15464
-7.17678
-7.19973
-7.22348
-7.24801
-7.27328
-7.29927
-7.32595
-7.35326
-7.38118
-7.40964
-7.4386
-7.468
-7.49777
-7.52784
-7.55814
-7.58858
-7.61907
-7.64952
-7.67983
-7.70989
-7.73958
-7.76879
-7.79738
-7.82523
-7.85219
-7.87813
-7.90288
-7.9263
-7.94823
-7.96851
-7.98696
-8.00341
-8.0177
-8.02964
-8.03907
-8.04579
-8.04964
-8.05043
-8.04797
-8.04211
-8.03264
-8.01941
-8.00223
-7.98092
-7.95533
-7.92528
-7.8906
-7.85115
-7.80675
-7.75725
-7.70252
-7.64238
-7.57666
-7.50519
-7.42782
-7.34443
-7.25493
-7.1592
-7.05715
-6.9487
-6.83376
-6.71228
-6.5842
-6.44947
-6.30808
-6.16
-6.00523
-5.84378
-5.67567
-5.50094
-5.31965
-5.13186
-4.93764
-4.73711
-4.53037
-4.31754
-4.09877
-3.87422
-3.64404
-3.40844
-3.16759
-2.92171
-2.67102
-2.41575
-2.15614
-1.89245
-1.62493
-1.35386
-1.07953
-0.802212
-0.522205
-0.239803
0.0446935
0.33098
0.61875
0.907695
1.19751
1.48788
1.77852
2.06911
2.35936
2.64897
2.93767
3.22517
3.5112
3.79549
4.0778
4.35788
4.63548
4.9104
5.18241
5.45132
5.71693
5.97907
6.23757
6.49227
6.74304
6.98973
7.23224
7.47043
7.70421
7.93349
8.15817
8.37818
8.59342
8.80384
9.00935
9.2099
9.40542
9.59584
9.78108
9.96105
10.1356
10.3047
10.4679
10.6252
10.7759
10.9195
11.0558
11.1805
11.3071
11.3641
-6.82799
-6.83124
-6.83562
-6.83979
-6.84326
-6.84618
-6.84876
-6.85116
-6.85353
-6.85597
-6.8586
-6.8615
-6.86473
-6.86836
-6.87242
-6.87697
-6.88205
-6.88768
-6.89391
-6.90075
-6.90825
-6.91642
-6.9253
-6.9349
-6.94524
-6.95636
-6.96827
-6.98098
-6.99452
-7.00889
-7.02411
-7.04019
-7.05713
-7.07494
-7.09361
-7.11314
-7.13352
-7.15475
-7.17681
-7.19968
-7.22334
-7.24777
-7.27293
-7.29879
-7.32532
-7.35247
-7.38019
-7.40844
-7.43717
-7.4663
-7.49578
-7.52554
-7.5555
-7.58558
-7.61569
-7.64574
-7.67563
-7.70524
-7.73447
-7.7632
-7.79131
-7.81865
-7.8451
-7.8705
-7.89473
-7.91761
-7.939
-7.95873
-7.97663
-7.99255
-8.0063
-8.01771
-8.02662
-8.03283
-8.03619
-8.0365
-8.03359
-8.02728
-8.0174
-8.00377
-7.98623
-7.96459
-7.93869
-7.90836
-7.87345
-7.83378
-7.7892
-7.73955
-7.68464
-7.62428
-7.55828
-7.48652
-7.40888
-7.32525
-7.23551
-7.13957
-7.03734
-6.92872
-6.81364
-6.69204
-6.56386
-6.42907
-6.28763
-6.13953
-5.98477
-5.82336
-5.65531
-5.48068
-5.2995
-5.11185
-4.91782
-4.71748
-4.51097
-4.2984
-4.07991
-3.85566
-3.62582
-3.39057
-3.15011
-2.90464
-2.65437
-2.39955
-2.14042
-1.87721
-1.61021
-1.33967
-1.06588
-0.789119
-0.509683
-0.227865
0.0560366
0.341718