/*--------------------------------*- C++ -*----------------------------------*\
  =========                 |
  \\      /  F ield         | OpenFOAM: The Open Source CFD Toolbox
   \\    /   O peration     | Website:  https://openfoam.org
    \\  /    A nd           | Version:  9
     \\/     M anipulation  |
\*---------------------------------------------------------------------------*/
FoamFile
{
    format      ascii;
    class       volScalarField;
    location    "0.5";
    object      alpha.water;
}
// * * * * * * * * * * * * * * * * * * * * * * * * * * * * * * * * * * * * * //

dimensions      [0 0 0 0 0 0 0];

internalField   nonuniform List<scalar> 
2268
(
1
1
1
1
1
1
1
1
1
1
1
1
1
1
1
1
1
1
1
1
0.967315
0.942952
0.960423
1
1
1
1
1
1
1
1
1
1
1
1
1
1
1
1
1
1
1
1
0.992768
0.942953
0.995205
1
1
1
1
1
1
1
1
1
1
1
1
1
1
1
1
1
1
1
1
1
0.956387
0.995276
1
1
1
1
1
1
1
1
1
1
1
1
1
1
1
1
1
1
1
1
1
0.997742
0.998686
1
1
1
1
1
1
1
1
1
1
1
1
1
1
1
1
1
1
1
1
1
1
0.998859
1
1
1
1
1
1
1
1
1
1
1
1
1
1
1
1
1
1
1
1
1
1
0.998954
1
1
0.999996
0.999995
0.999995
0.999996
0.999997
0.999998
0.999999
0.999999
0.999999
0.999999
0.999999
1
1
1
1
1
1
1
1
1
0.998966
1
0.999953
0.999884
0.999875
0.999889
0.999909
0.99993
0.999949
0.999962
0.999967
0.999969
0.999973
0.99998
0.999989
0.999996
0.999999
1
1
1
1
1
1
0.998986
6.1231e-16
5.99637e-16
2.1752e-13
6.51883e-12
5.44009e-11
2.19545e-10
5.92997e-10
1.4322e-09
3.91901e-09
1.13884e-08
3.07517e-08
7.37519e-08
1.51491e-07
2.7704e-07
5.04361e-07
9.94288e-07
1.95168e-06
4.31087e-06
8.98747e-06
2.32431e-15
8.55011e-14
2.1865e-12
2.49601e-11
1.26175e-10
3.81837e-10
9.56309e-10
2.55577e-09
1.14029e-08
4.5211e-08
1.35807e-07
3.59838e-07
8.37507e-07
1.71233e-06
3.24488e-06
6.08014e-06
7.55768e-06
8.98235e-06
1.48608e-05
1.85809e-14
4.48094e-13
8.04317e-12
6.5153e-11
2.26976e-10
5.45315e-10
1.65827e-09
4.84527e-09
2.9054e-08
1.19761e-07
3.67442e-07
9.64552e-07
2.26504e-06
4.78786e-06
1.05437e-05
2.3323e-05
3.92081e-05
5.5317e-05
6.88522e-05
7.97047e-14
2.02716e-12
2.32615e-11
1.19016e-10
3.03944e-10
6.31522e-10
2.14488e-09
8.36324e-09
4.38809e-08
4.45431e-07
1.04173e-06
2.69227e-06
6.02272e-06
1.1232e-05
2.18367e-05
5.08135e-05
0.000121456
0.000238955
0.000316802
2.17436e-13
2.26165e-12
2.56243e-11
1.18786e-10
2.89524e-10
5.72939e-10
2.00839e-09
8.1417e-09
5.05959e-08
6.46967e-07
3.43562e-06
8.11076e-06
1.81069e-05
3.14961e-05
5.41868e-05
0.000117306
0.000293408
0.000704713
0.00103738
3.04796e-13
2.61517e-12
2.34181e-11
1.06443e-10
2.38587e-10
3.63009e-10
1.03955e-09
5.80969e-09
5.38743e-08
3.01011e-07
6.72012e-06
2.31131e-05
5.34958e-05
9.28126e-05
0.000146905
0.000280864
0.000647516
0.0015816
0.00260128
5.51238e-13
6.54965e-12
1.79791e-11
4.14884e-11
6.32312e-11
5.80066e-10
1.7163e-09
1.53382e-07
4.33059e-07
7.90877e-06
2.53462e-05
6.10326e-05
0.000123779
0.000205823
0.000383571
0.000807765
0.00143238
0.0032697
0.00529048
5.91029e-13
1.70999e-13
5.69125e-13
3.49337e-12
-5.9309e-12
8.41205e-09
2.26491e-07
5.53565e-07
6.5576e-07
3.5326e-06
2.71931e-05
7.98523e-05
0.000163255
0.000586256
0.00164268
0.00308244
0.00386384
0.00618206
0.0100602
0.979602
0.956869
0.943714
0.949861
0.9624
0.975406
0.986109
0.993996
0.998466
0.999282
0.999272
0.999313
0.999437
0.999638
0.999847
0.999969
0.999995
1
1
1
1
1
0.999662
0.325435
0.277322
0.255271
0.274362
0.31186
0.358885
0.413264
0.477964
0.555861
0.64079
0.71876
0.797698
0.874189
0.941108
0.985581
0.999979
0.999999
1
1
0.999999
0.999999
1
1
-8.30179e-10
-6.60395e-10
-6.38405e-10
-6.90101e-10
-1.98329e-09
-7.5842e-09
-1.25992e-08
-1.24101e-08
-5.25714e-09
0.00650065
0.0348943
0.0778201
0.140142
0.240052
0.417889
0.670923
0.929383
0.999998
1
0.999999
1
1
1
-1.35289e-09
-1.70888e-09
-2.29012e-09
-2.60874e-09
-8.09674e-09
-3.43083e-08
-7.03433e-08
-9.73509e-08
-1.04616e-07
-9.33648e-08
-7.15496e-08
-4.77219e-08
-2.76252e-08
-1.33857e-08
-3.84753e-09
0.0136257
0.0861273
0.260172
0.598316
0.992028
0.999999
1
0.999999
-1.17221e-09
-1.70984e-09
-2.83078e-09
-3.34181e-09
-1.0241e-08
-4.0705e-08
-7.97362e-08
-1.08593e-07
-1.17841e-07
-1.08836e-07
-8.87889e-08
-6.54115e-08
-4.41104e-08
-2.7446e-08
-1.57874e-08
-2.73561e-24
5.81616e-07
6.0054e-06
0.0165776
0.149396
0.430067
0.735311
0.966328
-7.15008e-10
-1.07809e-09
-1.98165e-09
-2.48218e-09
-5.37219e-09
-1.71434e-08
-3.17684e-08
-4.26761e-08
-4.6786e-08
-4.45117e-08
-3.81102e-08
-3.0062e-08
-2.22008e-08
-1.55147e-08
-1.03157e-08
0
4.07464e-10
1.49494e-08
1.51461e-06
1.66227e-05
0.000805111
0.0416171
0.154745
-3.25821e-10
-4.71695e-10
-9.31674e-10
-1.23493e-09
-1.4577e-09
-1.61315e-09
-1.70419e-09
-1.73597e-09
-1.71557e-09
-1.65046e-09
-1.54757e-09
-1.41307e-09
-1.25292e-09
-1.07398e-09
-8.863e-10
-6.9961e-10
-7.64986e-26
2.48692e-25
3.35772e-09
4.48357e-08
2.40584e-07
8.05343e-06
3.60838e-05
-1.20512e-10
-1.62049e-10
-3.17465e-10
-4.48877e-10
-5.56464e-10
-6.37471e-10
-6.91924e-10
-7.21538e-10
-7.28416e-10
-7.14193e-10
-6.79909e-10
-6.2637e-10
-5.5451e-10
-4.64962e-10
-3.64507e-10
-2.57978e-10
-1.48274e-10
-5.71454e-11
1.65341e-12
2.21323e-10
3.02566e-10
2.74943e-08
1.14975e-07
-3.62224e-11
-4.3802e-11
-8.38821e-11
-1.26497e-10
-1.64158e-10
-1.93452e-10
-2.13613e-10
-2.24895e-10
-2.2747e-10
-2.21e-10
-2.04783e-10
-1.7861e-10
-1.41538e-10
-9.25241e-11
-3.12033e-11
1.70848e-11
1.1384e-10
2.61575e-10
2.62814e-10
2.32232e-10
2.3404e-10
1.90263e-10
2.16052e-10
-9.06595e-12
-9.64272e-12
-1.81276e-11
-2.94284e-11
-4.01153e-11
-4.83171e-11
-5.3525e-11
-5.56517e-11
-5.44718e-11
-4.94768e-11
-4.00937e-11
-2.75891e-11
-8.93287e-12
8.87798e-12
4.94715e-11
1.14285e-10
1.85904e-10
2.26973e-10
2.31188e-10
2.28497e-10
2.31582e-10
1.5899e-10
1.87996e-10
-2.09816e-12
-1.96954e-12
-3.54825e-12
-6.36901e-12
-9.15777e-12
-1.10971e-11
-1.2001e-11
-1.18086e-11
-1.0397e-11
-7.46374e-12
-2.98665e-12
4.46633e-13
7.96022e-12
2.30114e-11
2.57498e-11
2.70135e-11
3.07022e-11
3.56425e-11
3.68812e-11
3.828e-11
4.597e-11
8.43477e-11
2.05969e-10
-5.33703e-13
-4.63857e-13
-7.93072e-13
-1.53376e-12
-2.24278e-12
-2.62713e-12
-2.64492e-12
-2.29334e-12
-1.57381e-12
-2.82223e-13
1.14888e-12
2.6384e-12
2.21636e-12
1.87386e-12
1.83618e-12
1.86604e-12
1.82575e-12
1.82462e-12
1.94745e-12
2.28983e-12
2.71229e-12
2.89113e-12
2.90479e-12
-1.51249e-13
-1.31281e-13
-2.19171e-13
-4.17487e-13
-5.82714e-13
-6.2965e-13
-5.63095e-13
-3.95486e-13
-1.6744e-13
2.36616e-13
1.77108e-13
4.07896e-13
2.35733e-13
1.77021e-13
1.55649e-13
1.31067e-13
1.22722e-13
1.33358e-13
1.64776e-13
2.33479e-13
3.83312e-13
7.221e-13
1.44705e-12
-4.0886e-14
-3.63018e-14
-6.00438e-14
-1.0766e-13
-1.39395e-13
-1.35409e-13
-1.03335e-13
-5.46874e-14
-1.27977e-14
3.44823e-14
1.85972e-14
1.66258e-14
1.69197e-14
1.65335e-14
1.37752e-14
1.17062e-14
1.26817e-14
1.5859e-14
2.30764e-14
3.67176e-14
6.05533e-14
1.02061e-13
1.95966e-13
-9.50874e-15
-8.54273e-15
-1.39208e-14
-2.3389e-14
-2.7899e-14
-2.39569e-14
-1.49726e-14
-5.88567e-15
-1.19111e-15
2.72521e-16
9.38781e-16
1.38115e-15
1.52356e-15
1.40839e-15
1.04588e-15
1.03337e-15
1.18589e-15
1.60539e-15
2.38872e-15
3.96207e-15
8.78569e-15
2.56568e-14
9.37151e-14
-1.8233e-15
-1.635e-15
-2.60623e-15
-4.0863e-15
-4.46401e-15
-3.33339e-15
-1.65701e-15
-5.43788e-16
-5.98421e-17
5.63957e-17
1.06658e-16
1.19334e-16
1.17055e-16
8.72897e-17
6.1858e-17
6.70549e-17
8.50945e-17
1.22902e-16
2.35709e-16
8.59343e-16
4.75001e-15
2.20709e-14
1.22716e-13
-2.6924e-16
-2.37729e-16
-3.67731e-16
-5.34913e-16
-5.32633e-16
-3.40452e-16
-1.35908e-16
-2.98124e-17
3.87095e-18
5.10635e-18
7.19494e-18
7.76022e-18
6.96692e-18
4.35892e-18
3.31831e-18
3.76118e-18
5.2322e-18
1.22107e-17
6.99566e-17
5.82794e-16
4.6612e-15
2.96097e-14
2.74165e-13
-2.70838e-17
-2.32598e-17
-3.45991e-17
-4.63774e-17
-4.19997e-17
-2.25914e-17
-7.75857e-18
-1.514e-18
5.69454e-20
3.0091e-19
4.20582e-19
4.35162e-19
3.55918e-19
1.97509e-19
1.51559e-19
1.8838e-19
5.40821e-19
4.5242e-18
4.93116e-17
5.06214e-16
5.03456e-15
5.18029e-14
5.81355e-13
-1.38442e-18
-1.14392e-18
-1.62276e-18
-2.00671e-18
-1.65614e-18
-7.25634e-19
-1.77875e-19
-1.84624e-21
9.4791e-21
1.50589e-20
1.97908e-20
1.97505e-20
1.48397e-20
7.60484e-21
6.57377e-21
2.02637e-20
2.324e-19
3.10118e-18
3.71553e-17
4.09457e-16
5.35696e-15
7.80409e-14
9.38564e-13
-4.34543e-24
-1.82912e-23
-5.27697e-23
-6.8121e-23
-1.57349e-23
3.93607e-23
6.88659e-22
5.9674e-22
3.52802e-22
6.24622e-22
7.2903e-22
6.61475e-22
4.31354e-22
2.27785e-22
5.81957e-22
8.17723e-21
1.35011e-19
1.88463e-18
2.3697e-17
2.76661e-16
5.33745e-15
9.68627e-14
1.19915e-12
-6.03655e-25
-2.55083e-24
-7.77554e-24
-1.0838e-23
-2.62587e-24
2.04942e-25
8.29819e-24
9.04099e-24
2.02014e-23
2.53003e-23
2.24863e-23
1.47226e-23
6.90728e-24
1.20084e-23
1.86111e-22
3.78882e-21
6.2151e-20
9.3023e-19
1.2368e-17
1.50745e-16
3.84948e-15
1.03673e-13
1.30002e-12
-4.20139e-26
-1.78481e-25
-5.72666e-25
-8.45884e-25
-2.02133e-25
1.11324e-27
1.00635e-25
5.29581e-25
1.02675e-24
1.03512e-24
7.52332e-25
2.77352e-25
1.86461e-25
2.85013e-24
7.15129e-23
1.37801e-21
2.42337e-20
3.85992e-19
5.29082e-18
6.6113e-17
2.33853e-15
9.27756e-14
1.24043e-12
-1.5241e-31
-7.48296e-33
0
4.08203e-48
1.76219e-29
1.2164e-27
2.2629e-27
1.29325e-26
2.79145e-26
2.94131e-26
2.11048e-26
6.93034e-27
3.38505e-26
9.46108e-25
2.13986e-23
4.45234e-22
8.2528e-21
1.36429e-19
1.8749e-18
2.35402e-17
1.20041e-15
5.74867e-14
8.72442e-13
-3.22767e-44
-1.12158e-41
-1.38183e-39
-8.23639e-38
-2.83304e-47
7.18698e-35
8.54679e-32
1.32159e-30
4.74495e-30
8.18423e-30
1.40333e-29
2.51523e-28
8.8794e-27
2.42754e-25
5.9563e-24
1.29264e-22
2.47401e-21
4.14062e-20
5.53557e-19
6.86281e-18
4.93482e-16
3.28303e-14
6.05261e-13
-2.30282e-45
-6.27078e-43
-1.72492e-41
-9.39809e-40
-1.50784e-48
1.57868e-36
1.68488e-33
2.66597e-32
1.00248e-31
1.97546e-31
1.79475e-30
7.17625e-29
2.13727e-27
5.92797e-26
1.49333e-24
3.34645e-23
6.51392e-22
1.07568e-20
1.37618e-19
1.65699e-18
1.68563e-16
1.72732e-14
3.91988e-13
5.32757e-47
6.44135e-48
-4.52838e-51
-3.6325e-52
-1.61615e-44
1.22121e-39
8.92503e-36
3.2308e-34
1.56433e-33
9.39492e-33
3.88742e-31
1.36832e-29
4.42149e-28
1.28175e-26
3.30328e-25
7.61678e-24
1.47852e-22
2.36774e-21
2.92532e-20
3.43103e-19
4.93586e-17
8.2602e-15
2.30789e-13
8.82088e-48
5.91853e-50
3.2806e-50
1.18854e-48
1.83988e-46
6.60862e-41
1.81625e-38
1.56139e-36
2.93189e-35
1.49946e-33
6.89658e-32
2.48228e-30
8.16755e-29
2.3733e-27
6.2455e-26
1.46952e-24
2.80307e-23
4.35742e-22
5.41109e-21
6.3347e-20
1.25552e-17
3.68652e-15
1.25193e-13
7.89581e-51
-3.68e-51
-1.23328e-50
-6.24079e-48
3.45369e-46
1.19277e-41
9.34783e-40
6.4716e-38
4.49605e-36
2.41525e-34
9.68093e-33
3.74541e-31
1.23585e-29
3.62961e-28
9.63242e-27
2.30179e-25
4.29613e-24
6.67183e-23
8.63222e-22
8.8201e-21
2.77599e-18
1.51386e-15
6.1005e-14
2.34877e-52
-7.21966e-51
-5.37056e-49
-1.04204e-51
1.96787e-47
9.51276e-43
1.25123e-40
9.319e-39
5.43154e-37
2.59212e-35
1.17647e-33
4.56846e-32
1.50558e-30
4.38886e-29
1.15982e-27
2.80826e-26
5.24313e-25
8.38527e-24
1.01015e-22
1.41326e-21
4.91717e-19
5.59714e-16
2.63221e-14
9.24652e-54
-5.34859e-51
-5.0878e-49
-6.66028e-48
-2.28982e-54
7.60677e-44
8.87151e-42
6.8473e-40
4.39507e-38
2.47807e-36
1.12888e-34
4.32349e-33
1.41217e-31
4.07679e-30
1.05465e-28
2.61473e-27
5.02094e-26
7.05928e-25
8.81498e-24
6.36177e-22
9.78308e-20
1.85835e-16
9.92304e-15
-6.84164e-55
-2.81327e-51
-2.95143e-49
-7.1763e-48
-2.1058e-55
4.22507e-45
6.00741e-43
4.93159e-41
3.27005e-39
1.78286e-37
8.061e-36
3.10907e-34
1.00106e-32
2.91391e-31
7.41451e-30
1.8272e-28
2.68242e-27
4.26699e-26
3.18883e-24
2.5798e-22
3.23069e-20
5.51636e-17
3.22056e-15
-3.67558e-55
-1.15614e-51
-1.23907e-49
-3.24123e-48
-1.16679e-51
1.89858e-46
2.83329e-44
2.42098e-42
1.6478e-40
9.33026e-39
4.31487e-37
1.68105e-35
5.48245e-34
1.74784e-32
4.30491e-31
6.02425e-30
1.39854e-28
1.14746e-26
1.01962e-24
8.18207e-23
9.32423e-21
1.45067e-17
8.91112e-16
-1.09095e-55
-3.38772e-52
-3.54704e-50
-9.54994e-49
-5.50097e-54
6.44952e-48
1.0112e-45
8.96524e-44
6.28936e-42
3.60954e-40
1.74218e-38
7.31835e-37
2.59965e-35
8.76061e-34
1.28143e-32
2.98942e-31
2.63269e-29
2.64752e-27
2.42888e-25
1.97384e-23
2.19128e-21
3.30946e-18
2.07961e-16
-2.06862e-56
-5.21485e-53
-5.27776e-51
-1.46289e-49
-2.59395e-51
1.37515e-49
2.62082e-47
2.36688e-45
1.73638e-43
1.03774e-41
5.53089e-40
2.68151e-38
9.57722e-37
1.81702e-35
3.56741e-34
3.31552e-32
3.9165e-30
4.22513e-28
4.07529e-26
3.45747e-24
3.95999e-22
6.21934e-19
3.96253e-17
-5.48338e-58
-6.76772e-55
-6.65414e-53
-2.10214e-51
-9.01682e-54
2.01842e-51
4.37638e-49
4.23284e-47
3.22731e-45
2.35253e-43
1.43699e-41
6.59395e-40
1.86154e-38
2.78785e-37
1.9781e-35
2.71001e-33
3.55985e-31
4.17441e-29
4.35813e-27
3.991e-25
4.84419e-23
8.46667e-20
5.77886e-18
-4.77826e-59
-1.19688e-56
-5.38688e-55
-1.02501e-53
-4.64629e-54
2.48464e-53
4.0593e-51
4.53273e-49
4.51291e-47
3.32378e-45
2.23736e-43
9.92384e-42
2.21995e-40
6.02126e-39
7.00919e-37
1.13165e-34
1.66852e-32
2.18876e-30
2.55518e-28
2.61911e-26
3.29021e-24
6.85806e-21
5.91028e-19
-1.99572e-59
-2.28216e-57
-8.51481e-56
-1.59968e-54
-1.88177e-54
4.59371e-56
1.61456e-53
2.25136e-51
2.19451e-49
2.17877e-47
1.53038e-45
8.90156e-44
2.72626e-42
7.56955e-41
1.09641e-38
2.05726e-36
3.50373e-34
5.3186e-32
7.20297e-30
8.60558e-28
1.13507e-25
2.96177e-22
3.77134e-20
-5.97451e-61
-2.35103e-59
-7.08717e-58
-1.88867e-56
-3.1342e-55
-6.11429e-57
1.06428e-56
1.99573e-54
2.60564e-52
3.51186e-50
3.54562e-48
3.4799e-46
9.12647e-45
4.28449e-43
8.32116e-41
1.88504e-38
3.86086e-36
7.07983e-34
1.16438e-31
1.70928e-29
5.7349e-27
1.26439e-23
1.37114e-21
-1.5124e-66
-1.62863e-65
-1.95572e-64
-1.77079e-63
5.03704e-65
1.34577e-61
9.96007e-61
2.37612e-58
3.04558e-56
2.76827e-54
1.9362e-52
1.24607e-50
3.0934e-48
1.2868e-45
5.11868e-43
1.84202e-40
6.01116e-38
1.78871e-35
4.85064e-33
7.76669e-30
2.38907e-26
5.8062e-25
1.75888e-23
-3.96743e-67
-3.04309e-66
-3.22007e-65
-2.73976e-64
0
2.97132e-74
7.62632e-68
3.79838e-65
6.68714e-63
1.06549e-60
2.01892e-58
1.02439e-55
7.7313e-53
5.57483e-50
3.6582e-47
2.17582e-44
1.18037e-41
5.88741e-39
2.71251e-36
1.65632e-32
2.32085e-28
1.47559e-26
5.31021e-26
-1.73428e-73
-8.18463e-73
-7.73686e-72
-6.57694e-71
-5.50401e-72
-1.74958e-79
-1.09784e-79
-5.03107e-77
-2.50857e-75
-3.39125e-72
-4.54485e-69
-5.61202e-66
-6.20438e-63
-6.08906e-60
-5.29366e-57
-4.06583e-54
-2.73162e-51
-1.55136e-48
-6.48598e-46
2.77473e-36
3.0889e-31
7.71509e-29
4.54044e-28
0
0
8.04107e-95
1.62032e-93
0
-6.69664e-96
-6.43294e-93
-1.95738e-93
1.61959e-90
5.19629e-87
4.11964e-83
1.0795e-79
4.796e-76
1.28778e-72
3.38192e-69
6.98748e-66
7.89744e-63
-6.54458e-60
-1.13489e-56
-1.7969e-53
4.61289e-41
1.36452e-36
3.52612e-35
0.999544
0.999558
0.999985
0.663545
0.999921
0.999841
0.999996
0.999985
0.999999
0.999998
0.999997
0.999997
0.999998
0.999997
0.999997
0.999997
0.999997
0.999997
0.999997
0.999992
0.276273
0.375344
0.495005
0.629407
7.48982e-05
0.00010983
0.00343155
0.0139434
9.14576e-08
9.40915e-08
6.03676e-07
3.76006e-06
8.59497e-09
1.73076e-09
5.63919e-10
1.00907e-08
2.14909e-10
2.66182e-10
3.18255e-10
5.1842e-10
3.51403e-10
4.93729e-10
6.46035e-10
6.91116e-10
2.89781e-12
2.90987e-12
2.92951e-12
2.9736e-12
2.25282e-12
2.91782e-12
3.66391e-12
4.47047e-12
3.10958e-13
4.2391e-13
5.92375e-13
8.13552e-13
1.9019e-13
2.94132e-13
4.65684e-13
6.80495e-13
2.86385e-13
4.88094e-13
8.42138e-13
1.2958e-12
7.07382e-13
1.28805e-12
2.2262e-12
3.71849e-12
1.53891e-12
2.84863e-12
4.80178e-12
9.2425e-12
2.4937e-12
4.62553e-12
7.69445e-12
1.65448e-11
3.17721e-12
5.88097e-12
9.83947e-12
1.99592e-11
3.43727e-12
6.35192e-12
1.07152e-11
1.97105e-11
3.29799e-12
6.09981e-12
1.06487e-11
2.08111e-11
2.41662e-12
4.6613e-12
9.71833e-12
2.94306e-11
1.79652e-12
3.80225e-12
1.00692e-11
3.03609e-11
1.28311e-12
3.11486e-12
1.07371e-11
2.17795e-11
8.57528e-13
2.44751e-12
8.04582e-12
1.66989e-11
5.32777e-13
1.71151e-12
4.65613e-12
7.96462e-12
2.9544e-13
9.72946e-13
2.27129e-12
3.5006e-12
1.42112e-13
4.35658e-13
8.38832e-13
1.2552e-12
5.68995e-14
1.52394e-13
2.5866e-13
4.35027e-13
1.8604e-14
4.31994e-14
6.77447e-14
1.23931e-13
4.99449e-15
1.01561e-14
1.47412e-14
2.45639e-14
1.10757e-15
2.02516e-15
2.75181e-15
3.48044e-15
2.0005e-16
3.58249e-16
5.42987e-16
7.55053e-16
2.90518e-17
5.91679e-17
1.50505e-16
3.71621e-16
3.23312e-18
8.16485e-18
4.26358e-17
1.93826e-16
2.41317e-19
6.3624e-19
5.03291e-18
5.05657e-17
9.92974e-21
1.49865e-20
2.04884e-19
6.00261e-18
1.4799e-22
5.69957e-23
1.32728e-21
8.04913e-20
6.03347e-29
7.83303e-27
9.57176e-25
1.03791e-22
5.39956e-33
2.69481e-33
1.12674e-30
4.30988e-28
2.4015e-39
2.65405e-49
-1.35887e-46
-3.84448e-37
0.000186644
-3.85018e-07
-1.37245e-09
-2.09096e-08
-2.95576e-09
7.79531e-09
9.4995e-08
9.89564e-08
1.0141e-07
1.11422e-07
2.17354e-07
0.000200932
0.00810726
0.0353255
0.0657237
0.0618319
0.022323
0.0131444
0.0194961
0.30393
0.000148996
6.0089e-06
-1.37597e-08
8.96577e-09
1.24779e-08
5.01347e-08
8.34176e-08
8.35695e-08
0.0334355
0.185752
0.404493
0.583031
0.705361
0.756076
0.724489
0.50159
0.162445
0.0620751
0.939583
0.562688
0.24256
0.0187437
2.4354e-06
2.98011e-07
1.04228e-07
8.47102e-08
0.168294
0.642663
0.924553
0.985717
0.999701
0.999818
0.999837
0.99984
0.993769
0.804295
0.374507
0.999992
0.998029
0.946764
0.791439
0.503524
0.355857
0.382408
0.55279
0.842746
0.985259
0.99829
0.999348
0.999821
0.999838
0.99984
0.999842
0.999842
0.999842
0.563785
0.999974
0.999879
0.99923
0.996685
0.989598
0.968216
0.971837
0.988202
0.997173
0.999429
0.999756
0.999801
0.999802
0.999821
0.999842
0.99984
0.999842
0.999842
0.564413
0.829674
0.985098
0.996691
0.994169
0.993551
0.992273
0.989543
0.990425
0.99331
0.98386
0.948495
0.932749
0.951985
0.986255
0.998489
0.999291
0.99983
0.999836
0.506303
0.0764964
0.223206
0.366511
0.457847
0.516712
0.549002
0.546595
0.52456
0.465595
0.373511
0.297183
0.274574
0.290941
0.419583
0.759141
0.989143
0.999701
0.999795
0.470387
3.42677e-05
0.000115167
0.000227202
0.00127475
0.00438849
0.00825244
0.00871367
0.00741097
0.00430266
0.00198403
0.00114569
0.00130254
0.00305145
0.0263525
0.293612
0.910235
0.998608
0.966087
0.355762
3.04981e-07
1.50413e-06
3.58794e-06
6.04479e-06
9.47155e-06
1.46545e-05
2.00576e-05
2.86258e-05
4.65474e-05
6.82999e-05
0.000108612
0.000367758
0.00131755
0.00355274
0.296387
0.896134
0.995973
0.739111
0.194833
1.34078e-09
1.25525e-08
4.3443e-08
9.38093e-08
1.89097e-07
3.94104e-07
7.49559e-07
1.37143e-06
2.58553e-06
6.08916e-06
2.1954e-05
9.7038e-05
0.000358239
0.00168565
0.287167
0.912874
0.973692
0.37744
0.0410928
5.07352e-11
8.6051e-11
5.14835e-10
1.66126e-09
4.78476e-09
1.4096e-08
3.81018e-08
9.90955e-08
2.76006e-07
9.53915e-07
5.26762e-06
2.06073e-05
0.000164956
0.000918301
0.243954
0.880522
0.834098
0.140299
0.0358273
3.07009e-12
4.92953e-12
1.51544e-11
5.10066e-11
1.91542e-10
6.99348e-10
2.52102e-09
8.93201e-09
3.35007e-08
1.56534e-07
8.71483e-07
8.33607e-06
0.000138629
0.000456487
0.175385
0.790062
0.753828
0.0578098
0.0357446
6.13219e-12
8.21244e-12
8.54785e-12
1.55934e-11
4.6218e-11
8.41431e-11
2.52476e-10
9.952e-10
4.56048e-09
2.32268e-08
1.38156e-07
3.79653e-06
7.87258e-05
0.000150565
0.0885908
0.675772
0.755742
0.0928578
0.0357414
1.44758e-12
3.21447e-12
6.76647e-12
1.77556e-11
4.04087e-11
4.83227e-11
8.62989e-11
2.45085e-10
8.95249e-10
3.40375e-09
2.42241e-08
5.38755e-07
6.47014e-06
2.136e-05
0.0319405
0.568713
0.761922
0.223216
0.0357414
1.47941e-12
6.0166e-12
1.38581e-11
2.96284e-11
6.23607e-11
7.26697e-11
1.00966e-10
1.91697e-09
1.46212e-09
1.75437e-09
4.02917e-09
2.73501e-08
2.42088e-07
1.18867e-05
0.00416118
0.427399
0.763093
0.346891
0.0357414
3.34408e-12
1.62182e-11
4.73602e-11
6.40782e-11
9.02405e-11
8.99055e-11
9.4245e-11
2.19918e-09
1.44583e-09
1.50326e-09
1.90449e-09
5.45241e-09
5.15889e-08
6.46161e-07
9.86676e-09
0.251197
0.762777
0.383539
0.0357506
1.18797e-11
2.72372e-11
6.00421e-11
1.2077e-10
8.98039e-11
8.97585e-11
9.08464e-11
7.64623e-10
7.5822e-10
1.03396e-08
3.84098e-09
5.77654e-09
8.45295e-09
1.0608e-08
3.61048e-09
0.0941566
0.716226
0.343013
0.0375495
2.95691e-11
3.57458e-11
3.56177e-11
4.94509e-10
2.46266e-09
7.48723e-10
9.16476e-11
1.0997e-10
4.69452e-08
2.29155e-07
1.49757e-07
2.60708e-08
3.21864e-09
2.49581e-09
2.93176e-09
0.00753395
0.587176
0.3185
0.0429515
3.83289e-11
3.56815e-11
3.57004e-11
4.86864e-09
2.05343e-08
1.9905e-08
3.6801e-09
1.72773e-10
1.02605e-07
2.45929e-07
2.42686e-07
2.77464e-08
1.72682e-09
1.59813e-09
2.53532e-09
2.93481e-09
0.503264
0.467343
0.0783057
4.81162e-11
3.63578e-11
3.5784e-11
1.50476e-08
2.33593e-08
2.34299e-08
1.47856e-08
2.62064e-10
6.22778e-08
2.45115e-07
4.95076e-08
4.90539e-09
1.58502e-09
1.59813e-09
1.59813e-09
6.00584e-09
0.368244
0.496314
0.166482
8.87282e-11
4.0204e-11
3.58347e-11
1.6366e-08
2.34299e-08
2.33939e-08
1.11123e-08
4.19368e-10
7.5664e-09
1.16236e-07
1.48568e-08
4.30217e-09
1.63775e-09
8.14415e-05
3.78208e-08
1.36887e-07
0.129153
0.496314
0.20043
1.62969e-10
4.0279e-11
8.69358e-10
1.68511e-08
2.33593e-08
7.62205e-09
7.42031e-09
4.31779e-07
1.08436e-08
2.52515e-07
2.78889e-06
4.4958e-07
0.000124147
0.000236212
1.86296e-05
3.05773e-06
4.35993e-05
0.428807
0.215781
1.963e-10
4.09273e-11
3.57268e-09
9.5234e-09
1.3725e-08
2.58537e-08
7.79839e-09
8.56967e-07
1.31174e-08
2.86552e-07
9.97963e-06
8.60165e-06
7.25227e-05
6.96636e-05
0.000179507
5.03873e-05
9.36482e-05
0.284391
0.298482
1.96285e-10
1.51238e-10
8.60123e-10
2.26665e-09
7.81777e-09
8.17565e-08
7.67356e-09
8.34055e-07
1.56123e-08
1.74821e-08
3.73873e-06
4.74376e-06
7.63645e-06
2.39768e-05
0.000389787
0.000517484
0.000670041
0.0641466
0.298482
1.23764e-10
1.85439e-10
5.34589e-11
1.13228e-08
7.90051e-09
8.19509e-08
1.28161e-07
3.99522e-07
7.38514e-06
2.26701e-05
4.45679e-06
1.47406e-05
9.07996e-06
1.44702e-05
0.000905488
0.00986492
0.00569266
0.0450224
0.260138
4.35634e-11
1.19605e-10
5.35174e-11
2.16271e-08
9.57645e-09
2.13763e-08
2.25798e-08
9.81188e-08
5.13738e-05
5.49523e-05
2.99887e-05
5.61575e-05
1.19636e-05
1.22958e-05
0.020513
0.116982
0.0583168
0.0153357
0.0185331
2.28168e-11
7.69845e-11
7.62859e-11
2.16124e-08
1.87234e-08
2.30935e-08
6.3919e-06
7.98155e-08
4.82516e-05
5.55508e-05
5.62523e-05
5.60808e-05
1.87652e-05
1.33035e-05
0.0553454
0.165092
0.162501
0.0191266
0.00851975
1.05084e-11
5.03411e-11
6.34895e-11
7.24209e-09
1.71781e-08
2.60522e-08
2.4017e-05
5.01316e-06
1.21868e-05
3.54892e-05
5.51916e-05
5.49563e-05
1.42985e-05
1.35943e-05
0.0342094
0.172112
0.175794
0.0709351
0.00851975
4.4431e-12
1.94155e-11
6.04367e-11
1.56958e-10
1.46492e-08
6.09894e-09
2.4017e-05
8.40566e-06
8.8678e-06
1.04656e-05
1.98265e-05
1.78845e-05
1.4604e-05
1.38673e-05
0.000158885
0.154358
0.176335
0.09673
0.0100238
1.68175e-12
4.9588e-12
2.23754e-11
5.44931e-11
1.33184e-08
3.05524e-09
7.64888e-06
1.26483e-05
1.04656e-05
1.37062e-05
1.65374e-05
1.6641e-05
1.57474e-05
1.45222e-05
2.41761e-05
0.159716
0.17953
0.0798212
0.0137344
5.31993e-13
2.00074e-12
1.38615e-11
1.88293e-11
5.62061e-09
3.06434e-09
3.06434e-09
0.000251106
0.000603079
0.000567504
0.000142152
1.71055e-05
1.6641e-05
1.62574e-05
0.0479423
0.200295
0.181817
0.0274977
0.0158838
1.90677e-13
1.08166e-12
5.47798e-12
5.6164e-12
3.45899e-10
1.38763e-08
9.01127e-09
0.000202911
0.000697979
0.000703508
0.000701833
0.000102829
1.56877e-05
0.000535611
0.168757
0.20284
0.2006
0.0264149
0.0158838
1.23714e-13
7.40665e-13
2.54701e-12
9.87723e-12
5.48667e-11
1.02785e-08
6.43635e-09
1.29612e-07
0.000704461
0.000705688
0.000703508
0.000113324
1.22866e-05
0.0944161
0.20284
0.203472
0.203579
0.0533762
0.0158838
1.16714e-13
1.00236e-12
4.46744e-12
1.4014e-11
1.40607e-11
3.06495e-10
7.7883e-10
3.1699e-09
0.000183411
0.000703508
0.000533288
3.21857e-05
9.48078e-06
0.115774
0.203387
0.203679
0.203538
0.0806779
0.0162831
1.1621e-13
1.08458e-12
4.86724e-12
3.82318e-11
4.34395e-10
3.70045e-10
2.78986e-07
8.0338e-08
2.24058e-07
0.000235662
0.000158668
3.68874e-05
7.48029e-06
0.017382
0.180326
0.203385
0.196494
0.0585286
0.0169007
7.82204e-14
1.01148e-12
5.27037e-12
4.43584e-11
8.26846e-10
2.59137e-08
1.38052e-07
1.39529e-07
1.46137e-07
9.94065e-07
8.97558e-06
2.2033e-05
7.04457e-06
1.05541e-06
0.014721
0.0503031
0.0387166
0.0314561
0.0201659
2.20678e-14
5.29676e-13
5.38909e-12
1.16128e-10
1.90746e-09
1.02757e-08
5.3284e-09
1.79362e-07
1.78864e-07
7.5726e-08
5.65526e-08
3.11988e-06
7.75284e-06
8.84546e-07
4.2164e-08
7.43578e-07
0.00214214
0.00251333
0.0209305
1.58025e-15
1.28451e-13
7.25705e-12
1.6456e-10
5.16287e-10
3.74245e-10
3.73832e-10
3.26648e-08
2.71853e-08
3.18291e-09
3.60119e-09
1.06279e-08
8.99039e-07
5.3956e-07
7.16635e-09
3.37609e-08
0.000313875
0.000627099
0.0209305
4.05369e-17
1.5578e-14
3.34872e-13
4.81502e-12
8.36725e-11
4.65282e-10
8.66544e-10
2.04142e-10
5.57817e-10
5.72306e-10
1.10884e-09
9.27937e-10
3.63362e-09
2.19621e-08
4.34971e-09
6.98564e-09
4.491e-08
0.000532268
0.0176116
5.09142e-20
2.34984e-16
1.30726e-14
1.95669e-12
8.93058e-11
4.46121e-10
6.6689e-10
1.78206e-10
2.04735e-10
5.2055e-10
7.7753e-10
7.05522e-10
3.14502e-09
7.05816e-09
4.42634e-09
4.70225e-09
7.17765e-09
0.000696558
0.0129526
1.68039e-25
2.30411e-21
2.20784e-16
7.93233e-14
6.41131e-13
1.44079e-13
2.30652e-11
1.0927e-11
8.77446e-11
5.62196e-11
3.50992e-10
6.73297e-10
4.10146e-10
7.76309e-09
3.96076e-09
4.24329e-09
4.70225e-09
0.000513166
0.0128727
-6.84437e-35
1.76698e-25
9.47271e-20
4.21326e-17
7.82525e-17
0
0
0
-8.59555e-32
-1.34354e-30
-6.3924e-33
-6.80725e-35
-1.56583e-36
1.18376e-09
1.24453e-09
1.97844e-07
1.56349e-07
2.30489e-07
0.00869622
)
;

boundaryField
{
    leftWall
    {
        type            zeroGradient;
    }
    rightWall
    {
        type            zeroGradient;
    }
    lowerWall
    {
        type            zeroGradient;
    }
    atmosphere
    {
        type            inletOutlet;
        inletValue      uniform 0;
        value           nonuniform List<scalar> 
46
(
0
0
0
0
0
0
0
0
0
0
0
0
0
0
0
0
0
0
0
0
0
0
0
0
0
0
0
0
0
0
0
0
0
0
0
0
0
0
0
0
0
1.24453e-09
1.97844e-07
1.56349e-07
2.30489e-07
0.00869622
)
;
    }
    defaultFaces
    {
        type            empty;
    }
}


// ************************************************************************* //
