/*--------------------------------*- C++ -*----------------------------------*\
  =========                 |
  \\      /  F ield         | OpenFOAM: The Open Source CFD Toolbox
   \\    /   O peration     | Website:  https://openfoam.org
    \\  /    A nd           | Version:  9
     \\/     M anipulation  |
\*---------------------------------------------------------------------------*/
FoamFile
{
    format      ascii;
    class       volScalarField;
    location    "0.5";
    object      epsilon;
}
// * * * * * * * * * * * * * * * * * * * * * * * * * * * * * * * * * * * * * //

dimensions      [0 2 -3 0 0 0 0];

internalField   nonuniform List<scalar> 
2268
(
0.0341525
0.108218
0.207079
0.306262
0.392966
0.475795
0.55135
0.622603
0.689761
0.752115
0.808346
0.856638
0.894607
0.91895
0.924182
0.911659
0.87957
0.819314
0.729754
0.614063
0.472854
0.348808
0.260696
0.0434024
0.0704165
0.111859
0.155026
0.192288
0.224929
0.25454
0.28225
0.308442
0.333078
0.355873
0.376403
0.394159
0.40856
0.419031
0.428224
0.436962
0.443203
0.445278
0.438335
0.409312
0.323554
0.307788
0.0538734
0.0662037
0.0983017
0.129644
0.156327
0.17934
0.199967
0.219113
0.237199
0.254328
0.27043
0.285364
0.298991
0.311248
0.322338
0.333825
0.347076
0.362322
0.379401
0.394919
0.397542
0.365102
0.474267
0.0583381
0.0691912
0.0959627
0.121584
0.14355
0.162506
0.179492
0.195252
0.210159
0.224348
0.237834
0.250598
0.26266
0.274156
0.28552
0.297974
0.312859
0.330977
0.352531
0.375275
0.392632
0.405337
0.664098
0.0650145
0.0748129
0.0977736
0.119494
0.13834
0.154883
0.1699
0.183926
0.197242
0.209976
0.222188
0.233933
0.245321
0.256589
0.268248
0.281357
0.297151
0.316551
0.339915
0.36618
0.394035
0.445935
0.866956
0.0715397
0.0824251
0.102254
0.120599
0.136942
0.151782
0.16556
0.178566
0.190973
0.202896
0.214429
0.22568
0.236816
0.248125
0.260136
0.273798
0.290234
0.310366
0.334736
0.363557
0.400479
0.486806
1.07645
0.0769508
0.0921663
0.108979
0.124029
0.138206
0.151728
0.16461
0.176901
0.188693
0.200095
0.211232
0.222253
0.233359
0.244864
0.257282
0.271476
0.288471
0.309165
0.334324
0.365385
0.410293
0.527002
1.30372
0.0837624
0.105176
0.117926
0.129596
0.141869
0.154265
0.166344
0.177984
0.189234
0.200216
0.21108
0.222
0.233201
0.244998
0.257877
0.272632
0.290211
0.311476
0.337415
0.370439
0.421424
0.561263
1.66967
0.327634
1.02778
2.25037
3.94573
6.08051
8.42162
10.6377
12.4502
13.688
14.269
14.2012
13.635
12.8597
11.9855
10.9407
9.73881
8.32964
6.22041
1.26574
0.658743
1.68644
2.9592
4.0325
4.8829
5.64309
6.32186
6.82687
7.08318
7.06637
6.78688
6.29115
5.7177
5.24922
4.89928
4.73326
4.77704
4.70177
2.44434
1.28994
2.01171
3.06042
3.94852
4.77476
5.61659
6.38863
6.9704
7.3219
7.46433
7.40204
7.09597
6.58393
6.01369
5.44632
5.00596
4.93389
5.31863
4.18517
1.72135
2.19141
3.16249
4.11601
5.11479
6.15838
7.14057
7.94753
8.5596
9.02018
9.32805
9.35898
9.03658
8.38902
7.42546
6.28076
5.37896
5.57071
5.69005
1.9139
2.27754
3.26922
4.35195
5.53843
6.80692
8.05664
9.16618
10.1117
10.9439
11.6746
12.1348
12.1655
11.5229
10.0761
8.04177
6.00494
5.50748
6.85085
1.89705
2.26777
3.31183
4.52443
5.87536
7.34834
8.86248
10.2851
11.5716
12.7447
13.7986
14.5885
15.0117
14.2837
12.1495
9.15581
6.40662
5.40651
7.7354
1.71806
2.17231
3.23795
4.53874
5.98832
7.5867
9.28426
10.9457
12.5124
13.9455
15.0518
15.7704
16.2595
15.0184
12.0474
8.60594
6.09877
5.37067
8.43828
1.52506
1.97902
3.01572
4.31488
5.7427
7.33404
9.04551
10.7443
12.4002
13.9673
14.774
14.7659
13.9755
12.0214
9.42988
6.93639
5.42474
5.32656
9.01886
0.10935
0.126958
0.132394
0.140245
0.150487
0.161446
0.172306
0.182894
0.193292
0.203664
0.214192
0.225073
0.236548
0.248925
0.262648
0.278403
0.297042
0.319376
0.34666
0.382167
0.43679
0.55554
0.962348
0.206601
0.172398
0.163281
0.166648
0.173675
0.181368
0.189195
0.197272
0.205802
0.214982
0.22495
0.235848
0.247876
0.261294
0.276456
0.293885
0.314304
0.338427
0.36754
0.404624
0.456769
0.544849
0.725593
0.361009
0.24195
0.21192
0.207456
0.20759
0.209151
0.2121
0.216525
0.222495
0.230144
0.239435
0.250372
0.263085
0.277759
0.294676
0.314246
0.337136
0.363927
0.395586
0.434229
0.483751
0.552683
0.653622
0.499948
0.287039
0.25265
0.245416
0.239072
0.234986
0.233829
0.235385
0.239471
0.245925
0.254742
0.265968
0.279633
0.295844
0.314844
0.337157
0.363538
0.394213
0.428928
0.469136
0.517208
0.575855
0.646506
0.563833
0.289463
0.263602
0.25378
0.247684
0.244647
0.24443
0.246793
0.251616
0.258726
0.268203
0.280353
0.295318
0.313242
0.334405
0.359503
0.389761
0.426007
0.46417
0.506563
0.554872
0.607742
0.665014
0.509319
0.272945
0.249959
0.244558
0.242848
0.243304
0.245806
0.250384
0.257111
0.266058
0.277409
0.291391
0.308192
0.327997
0.350983
0.37759
0.409098
0.446565
0.489501
0.538853
0.592215
0.641456
0.69378
0.460626
0.252389
0.231843
0.229787
0.231681
0.235465
0.240893
0.248046
0.257087
0.268211
0.281646
0.297627
0.316355
0.337967
0.362504
0.390028
0.421164
0.457281
0.499704
0.549025
0.602287
0.657834
0.718158
0.42793
0.235271
0.214758
0.213785
0.217685
0.223799
0.231567
0.240949
0.252083
0.265181
0.280483
0.298217
0.318555
0.341571
0.367213
0.395422
0.426514
0.461287
0.50033
0.543761
0.592132
0.646771
0.705829
0.406283
0.222053
0.199835
0.198297
0.202757
0.210043
0.219257
0.230176
0.242842
0.257417
0.27411
0.293117
0.314568
0.338484
0.364767
0.393297
0.424168
0.457747
0.494256
0.533519
0.575857
0.621385
0.668207
0.392629
0.211336
0.186782
0.183902
0.187957
0.195441
0.205207
0.216867
0.230357
0.245766
0.263247
0.282953
0.304973
0.329296
0.3558
0.384318
0.41477
0.447204
0.4816
0.517773
0.555778
0.595373
0.635078
0.382236
0.201802
0.175128
0.170703
0.17383
0.180833
0.19042
0.202093
0.215703
0.231275
0.248909
0.268716
0.290759
0.315012
0.341345
0.369566
0.399489
0.430973
0.463851
0.497901
0.532979
0.568748
0.604399
0.37217
0.192742
0.164481
0.158645
0.160634
0.166751
0.175646
0.186759
0.199889
0.215018
0.232209
0.251548
0.273084
0.296797
0.322571
0.35022
0.379519
0.410245
0.44216
0.475017
0.508589
0.542569
0.576502
0.360859
0.183841
0.154613
0.147629
0.148497
0.153543
0.161419
0.171583
0.183787
0.197993
0.214245
0.232618
0.25317
0.2759
0.300732
0.327514
0.356044
0.386093
0.417416
0.449762
0.482886
0.516509
0.550309
0.347776
0.175018
0.145419
0.137579
0.137444
0.141409
0.148149
0.157116
0.168097
0.18106
0.196015
0.213046
0.232231
0.253606
0.277149
0.302775
0.330344
0.359675
0.390566
0.422797
0.456134
0.490314
0.525056
0.333153
0.166344
0.136874
0.128453
0.127474
0.130432
0.13604
0.143761
0.15339
0.164895
0.178347
0.193811
0.211381
0.231144
0.253144
0.277378
0.303797
0.332308
0.362789
0.395081
0.428989
0.464279
0.500684
0.317637
0.157978
0.12901
0.120235
0.118572
0.120639
0.125192
0.131712
0.140003
0.150036
0.161884
0.175672
0.191535
0.209571
0.2299
0.252612
0.277762
0.305372
0.335421
0.367844
0.402515
0.439246
0.477798
0.30203
0.150121
0.121884
0.112922
0.110719
0.112021
0.115631
0.121051
0.128095
0.136738
0.14706
0.159199
0.173334
0.18967
0.208337
0.229523
0.253396
0.280102
0.309743
0.342369
0.377945
0.416353
0.457399
0.28712
0.142985
0.115577
0.106527
0.103891
0.104543
0.107333
0.111781
0.117708
0.125099
0.134036
0.144675
0.15722
0.171916
0.189036
0.208811
0.231512
0.257413
0.286756
0.319718
0.356375
0.396692
0.440531
0.273599
0.136776
0.110171
0.101069
0.098068
0.0981633
0.100245
0.10385
0.108806
0.115102
0.122829
0.132154
0.143306
0.15657
0.172279
0.190812
0.212531
0.237816
0.267054
0.300562
0.338539
0.381037
0.427973
0.262032
0.131678
0.105747
0.0965706
0.0932306
0.0928313
0.0942963
0.0971749
0.101299
0.10666
0.113353
0.121558
0.131528
0.143584
0.158119
0.175592
0.196522
0.221432
0.250813
0.285135
0.324725
0.369721
0.420082
0.252844
0.127844
0.102377
0.0930483
0.0893576
0.088496
0.0894116
0.0916598
0.0950729
0.0996411
0.105464
0.112731
0.121716
0.132777
0.146363
0.163014
0.183356
0.208079
0.237872
0.273294
0.314811
0.362644
0.416778
0.246347
0.125395
0.10011
0.0905095
0.0864221
0.0851023
0.0855107
0.0872014
0.0900019
0.0938982
0.0989902
0.105475
0.113646
0.123896
0.136728
0.152762
0.172731
0.197464
0.227825
0.264621
0.308366
0.359362
0.417616
0.242743
0.124414
0.0989756
0.0889447
0.0843869
0.0825896
0.0825111
0.0836954
0.085959
0.0892793
0.0937531
0.0995826
0.107077
0.116662
0.128892
0.144467
0.164231
0.18915
0.220256
0.258526
0.304732
0.359183
0.421879
0.24213
0.124943
0.098971
0.0883235
0.0832009
0.0808893
0.0803272
0.0810382
0.0828205
0.0856379
0.0895797
0.0948497
0.10177
0.110796
0.122533
0.137756
0.15742
0.182637
0.214607
0.254486
0.303188
0.361222
0.42865
0.244531
0.126982
0.100063
0.0885918
0.0827966
0.0799233
0.0788702
0.0791278
0.0804685
0.0828367
0.0863098
0.0910889
0.097506
0.106041
0.117346
0.132272
0.151879
0.177427
0.210294
0.251823
0.30309
0.364702
0.436822
0.249908
0.130492
0.102185
0.0896708
0.0830904
0.0796044
0.0780478
0.0778646
0.0787924
0.0807503
0.0837991
0.0881329
0.0940886
0.102166
0.11306
0.127688
0.147216
0.173048
0.206747
0.249854
0.303625
0.368782
0.445535
0.258193
0.135394
0.105237
0.0914587
0.0839838
0.0798377
0.0777664
0.0771525
0.0776902
0.0792669
0.0819218
0.0858374
0.0913501
0.0989746
0.109438
0.123718
0.14308
0.169065
0.203423
0.247906
0.303971
0.372482
0.453716
0.269297
0.141572
0.109093
0.0938346
0.0853667
0.0805232
0.0779324
0.0769007
0.0770693
0.0782886
0.080571
0.0840822
0.0891524
0.0963027
0.106284
0.120124
0.139169
0.165092
0.199823
0.24534
0.303327
0.374827
0.460232
0.283115
0.148878
0.113604
0.0966647
0.0871232
0.0815594
0.078455
0.0770245
0.0768478
0.0777319
0.0796582
0.0827707
0.0873865
0.0940242
0.103447
0.116714
0.135237
0.160802
0.195511
0.241571
0.300928
0.374859
0.46393
0.299522
0.157146
0.118608
0.0998101
0.0891365
0.0828478
0.079249
0.0774476
0.076954
0.0775272
0.0791133
0.0818293
0.0859723
0.0920483
0.100817
0.113352
0.131103
0.155943
0.190124
0.236087
0.296071
0.371658
0.463666
0.318385
0.166204
0.123945
0.103134
0.0912945
0.0842963
0.0802371
0.0781029
0.0773279
0.0776186
0.0788826
0.0812054
0.084857
0.0903196
0.0983334
0.109961
0.126661
0.150353
0.183408
0.228485
0.288149
0.364367
0.458317
0.339597
0.175891
0.12946
0.106509
0.0934943
0.0858227
0.0813522
0.0789341
0.0779202
0.0779623
0.0789271
0.080865
0.0840122
0.0888156
0.0959779
0.106524
0.121885
0.143978
0.175241
0.218515
0.276702
0.35224
0.446801
0.363156
0.186074
0.135014
0.109816
0.0956444
0.0873564
0.0825389
0.0798959
0.078693
0.0785262
0.0792207
0.0807901
0.0834308
0.0875436
0.0937762
0.103089
0.116841
0.136892
0.165673
0.206139
0.261502
0.334729
0.428145
0.389265
0.196655
0.140475
0.112948
0.0976643
0.0888397
0.0837549
0.080956
0.07962
0.0792891
0.0797488
0.0809755
0.0831227
0.0865358
0.0917911
0.0997575
0.111683
0.129305
0.154955
0.191596
0.24266
0.311641
0.401642
0.418488
0.207604
0.145722
0.115797
0.0994815
0.0902274
0.0849725
0.082096
0.0806882
0.0802417
0.0805074
0.0814271
0.0831104
0.0858417
0.0901133
0.0966805
0.106643
0.121554
0.143549
0.175453
0.220753
0.28335
0.367157
0.451954
0.218977
0.150614
0.118244
0.101025
0.0914865
0.0861806
0.0833151
0.0819005
0.0813889
0.0815047
0.0821612
0.0834266
0.0855226
0.0888499
0.0940358
0.102005
0.114077
0.132103
0.15861
0.196907
0.251038
0.325551
0.491563
0.230848
0.154927
0.120122
0.102216
0.0925963
0.0873891
0.0846356
0.0832818
0.082755
0.0827655
0.0832075
0.0841137
0.085646
0.088113
0.0920082
0.098068
0.107353
0.121366
0.142207
0.172754
0.216802
0.279099
0.540725
0.243144
0.158217
0.121162
0.102954
0.0935534
0.0886385
0.0861124
0.084888
0.0843928
0.0843404
0.0846174
0.08523
0.0862878
0.0880134
0.090771
0.0951115
0.101834
0.112075
0.127436
0.150178
0.183453
0.231573
0.606706
0.255435
0.159581
0.12092
0.103113
0.0943855
0.0900156
0.0878476
0.0868201
0.0863974
0.0863185
0.0864765
0.0868617
0.0875415
0.0886642
0.0904784
0.0933653
0.0978825
0.104822
0.1153
0.130896
0.15388
0.187562
0.709007
0.265803
0.157109
0.118686
0.10257
0.0951883
0.091681
0.0900108
0.0892405
0.0889221
0.0888454
0.0889237
0.0891418
0.0895365
0.0901967
0.0912746
0.093008
0.0957469
0.0999893
0.10643
0.11604
0.13021
0.151019
0.919169
0.265842
0.146881
0.113543
0.101335
0.096207
0.0939123
0.0928652
0.0923948
0.0921998
0.0921449
0.0921746
0.0922764
0.0924673
0.0927915
0.093327
0.0941971
0.0955852
0.0977532
0.101063
0.106009
0.113278
0.123884
1.63723
0.219029
0.122521
0.105087
0.0999165
0.0979748
0.0971579
0.0967978
0.0966389
0.0965728
0.0965523
0.0965583
0.0965862
0.0966402
0.0967333
0.0968884
0.0971423
0.09755
0.0981909
0.0991734
0.100643
0.102791
0.105887
2.21473
1.65071
1.23694
1.06795
0.953173
0.989754
0.972775
0.953351
0.738513
0.787754
0.822456
0.849635
0.699064
0.7356
0.768706
0.799301
0.705891
0.734721
0.762191
0.78853
0.730811
0.756013
0.778927
0.799542
0.762131
0.790365
0.811511
0.825245
0.748006
0.775303
0.799142
0.818148
0.702356
0.726298
0.750365
0.774744
0.663673
0.683601
0.703876
0.724644
0.630304
0.648284
0.666503
0.685018
0.601315
0.61842
0.635676
0.653113
0.575194
0.592271
0.6095
0.626918
0.550902
0.568609
0.586536
0.604731
0.528155
0.54698
0.566141
0.585681
0.507378
0.527676
0.548461
0.569761
0.489443
0.51147
0.534166
0.557528
0.475317
0.499265
0.52408
0.549728
0.465747
0.491774
0.518873
0.54698
0.461086
0.489338
0.518869
0.549589
0.461266
0.491891
0.524005
0.557498
0.465857
0.499013
0.533881
0.570336
0.474156
0.510014
0.547829
0.587472
0.485243
0.523983
0.56496
0.608044
0.497988
0.539819
0.584181
0.630967
0.511267
0.556296
0.604225
0.654964
0.524031
0.572355
0.623993
0.67891
0.535013
0.586598
0.64194
0.701053
0.542887
0.597559
0.656437
0.719565
0.546316
0.60377
0.665867
0.732675
0.543964
0.603766
0.668648
0.738691
0.534483
0.596044
0.663145
0.735874
0.516514
0.57901
0.64755
0.72223
0.488809
0.551054
0.619886
0.69542
0.450555
0.510863
0.578292
0.652997
0.401952
0.458072
0.521715
0.593116
0.344951
0.394207
0.451035
0.515806
0.28381
0.32361
0.370395
0.424696
0.224733
0.253472
0.287808
0.328344
0.174016
0.191902
0.213439
0.239084
0.135446
0.144396
0.15512
0.167793
0.109184
0.111704
0.114667
0.11806
1.16948
1.68616
2.43476
3.4231
4.56994
5.88927
7.27361
8.50959
9.58663
10.393
10.5266
9.94191
8.70829
7.31894
5.98309
4.89779
4.48085
5.20345
9.51635
0.952609
1.33372
1.84633
2.51876
3.26358
3.95275
4.59161
5.0821
5.36804
5.39824
5.18834
4.81966
4.32666
3.80249
3.34745
3.08045
3.24988
4.44023
9.63215
0.891347
1.03916
1.29207
1.70044
2.21786
2.62749
2.92701
3.05572
2.98315
2.82212
2.60377
2.38623
2.20787
2.07523
2.0184
2.10708
2.51123
3.69356
8.99324
0.850598
0.933312
1.05778
1.25191
1.49937
1.70721
1.83274
1.84912
1.76807
1.6476
1.52798
1.44265
1.42457
1.46133
1.56548
1.79611
2.2905
3.40849
8.40481
0.832792
0.890203
0.960435
1.05226
1.15785
1.24456
1.28899
1.28145
1.23596
1.1874
1.1708
1.21369
1.32342
1.46909
1.65419
1.95015
2.48515
3.53324
8.1309
0.832175
0.871832
0.916329
0.96692
1.01752
1.05545
1.07212
1.06867
1.06183
1.08543
1.18783
1.42006
1.75862
1.99835
2.19482
2.491
3.02014
3.97816
8.17134
0.84419
0.872588
0.907442
0.946814
0.984371
1.01295
1.03175
1.05082
1.09864
1.23408
1.56934
2.26396
3.18785
3.36951
3.27037
3.42022
3.88596
4.72076
8.63315
0.84512
0.880843
0.923408
0.973485
1.02238
1.06397
1.10634
1.17284
1.32389
1.69413
2.59343
4.58022
6.98554
5.77556
4.7771
4.63129
5.03332
5.7087
9.0375
0.814631
0.85901
0.906627
0.962569
1.02526
1.09529
1.1873
1.3421
1.66291
2.38716
4.02355
6.94408
8.63563
8.20261
6.00006
5.77443
6.27355
6.80551
9.05626
0.760008
0.804222
0.851359
0.907214
0.976484
1.06619
1.19327
1.39961
1.77765
2.53654
4.00022
5.80827
7.12963
7.74188
6.27657
6.69986
7.41402
7.83233
8.78847
0.71654
0.756976
0.799806
0.850562
0.916542
1.00776
1.14094
1.35102
1.71719
2.37783
3.41731
4.62484
5.89697
6.68882
6.571
7.59104
8.42952
8.71066
8.94663
0.682672
0.721377
0.762952
0.812964
0.879204
0.971903
1.10622
1.30961
1.63812
2.1515
2.87241
3.77697
5.12906
6.34647
7.03475
8.40952
9.33753
9.54942
9.43278
0.656506
0.696143
0.739437
0.791782
0.860698
0.955377
1.08737
1.27426
1.54666
1.93047
2.44765
3.19803
4.6907
6.36629
7.48774
9.09393
10.1387
10.3442
10.2406
0.635778
0.67813
0.724642
0.780176
0.851357
0.945597
1.07028
1.23364
1.44965
1.73502
2.12832
2.8023
4.3209
6.36522
7.81655
9.61119
10.8373
11.1447
11.5277
0.619154
0.665302
0.715664
0.774288
0.846504
0.937677
1.05166
1.19079
1.36044
1.57911
1.90643
2.53682
3.94989
6.04809
7.99586
9.94224
11.415
11.97
13.0338
0.606354
0.657066
0.711719
0.773399
0.845998
0.93293
1.03553
1.15336
1.29021
1.47004
1.76978
2.38936
3.71221
5.70211
7.93503
10.0572
11.8247
12.7325
14.5728
0.597754
0.65368
0.713169
0.778345
0.851713
0.934998
1.02797
1.12973
1.24663
1.41155
1.71905
2.37869
3.70768
5.63017
7.74657
9.96161
12.0273
13.3966
16.3309
0.593974
0.655706
0.720723
0.790319
0.865778
0.947431
1.03418
1.12618
1.23501
1.40633
1.75979
2.5363
4.02344
6.03582
7.87051
10.0062
12.1401
13.9781
18.9615
0.595551
0.663679
0.735032
0.810326
0.889834
0.972733
1.05748
1.14623
1.2581
1.45757
1.90625
2.91503
4.78569
7.17363
9.00707
10.8008
12.61
14.6164
22.1346
0.602764
0.677935
0.756545
0.839049
0.924887
1.01223
1.0993
1.19099
1.31696
1.57131
2.19086
3.60103
6.18596
9.33926
11.8717
13.2202
14.1033
15.5942
24.7398
0.615577
0.698503
0.785487
0.876862
0.971372
1.06625
1.15954
1.25969
1.41183
1.76079
2.65535
4.73515
8.42431
12.7967
16.8259
18.0448
17.2408
17.3293
26.7459
0.633682
0.725241
0.821878
0.923852
1.02924
1.13429
1.23684
1.3496
1.53809
2.00229
3.24656
6.17797
11.2349
17.0239
22.0485
25.1045
22.5542
20.0164
28.1177
0.656524
0.757766
0.865478
0.979781
1.09799
1.21518
1.32883
1.45561
1.6761
2.23187
3.73091
7.19337
12.9057
19.1176
24.0082
28.3291
30.1971
23.935
28.8294
0.683303
0.795396
0.915673
1.04395
1.17654
1.30706
1.43234
1.57065
1.80459
2.37279
3.82658
6.94219
11.642
16.7224
21.776
26.3179
30.4555
29.9996
27.8896
0.712928
0.837036
0.971295
1.11496
1.26303
1.40737
1.54411
1.68995
1.91943
2.42972
3.62446
5.96246
9.13444
12.3454
17.4839
25.0104
29.9927
34.1821
28.1239
0.743969
0.881071
1.03047
1.19059
1.35475
1.51273
1.66006
1.81333
2.03675
2.48479
3.44777
5.21552
7.4109
9.1318
11.7943
17.4376
27.0794
30.8465
27.6052
0.775063
0.925344
1.09057
1.26775
1.44793
1.61848
1.77542
1.93959
2.17111
2.58849
3.40145
4.79375
6.46154
7.58043
9.07796
12.7444
19.4996
29.1461
30.7904
0.804309
0.967619
1.14855
1.34269
1.53852
1.72034
1.88443
2.06071
2.31161
2.72892
3.46148
4.61452
5.89577
6.76968
8.05799
10.909
15.8981
23.7337
37.319
0.829553
1.00524
1.20127
1.41192
1.62301
1.81475
1.98173
2.1625
2.42852
2.85915
3.57015
4.63418
5.73261
6.59659
7.99027
10.6658
15.0524
21.9376
40.8647
0.848767
1.0358
1.24598
1.47258
1.69893
1.90008
2.06485
2.23459
2.49281
2.92981
3.67462
4.82181
5.98139
6.86858
8.43141
11.2343
15.7072
22.9189
43.4178
0.860112
1.05736
1.2808
1.5232
1.76636
1.97859
2.1407
2.28826
2.52196
2.95719
3.77019
5.14078
6.55157
7.46656
9.18611
12.2545
17.164
25.6223
46.3136
0.861749
1.0681
1.30432
1.56365
1.82773
2.05815
2.22873
2.36379
2.5754
3.01141
3.89493
5.52475
7.18767
8.1687
10.2311
13.6365
18.9715
28.7311
49.7834
0.851462
1.06562
1.31414
1.59273
1.88512
2.14836
2.35051
2.50057
2.70164
3.1342
4.05064
5.81771
7.60638
9.03521
11.6141
15.3993
21.0431
31.4626
53.0735
0.826391
1.04621
1.30542
1.60445
1.93238
2.24734
2.5091
2.71191
2.93123
3.35389
4.25051
5.98553
8.14406
10.2259
13.3639
17.581
23.5508
34.2765
55.5373
0.783188
1.00492
1.27065
1.58651
1.95144
2.33396
2.68341
2.97989
3.26555
3.69569
4.54997
6.27533
8.85783
11.6051
15.3683
20.1715
26.6667
37.9357
57.0576
0.718728
0.936397
1.20109
1.5233
1.91481
2.36735
2.82379
3.25058
3.65378
4.13554
4.92917
6.48296
9.42874
12.9741
17.418
23.1302
30.7101
42.3998
57.3945
0.631508
0.836478
1.08932
1.4018
1.79426
2.29171
2.85127
3.42811
3.9945
4.58714
5.35968
6.67894
9.23802
13.6917
19.2609
26.3527
35.9052
49.6303
57.5579
0.523825
0.704659
0.93193
1.2155
1.57679
2.05563
2.67018
3.37356
4.12252
4.89456
5.74927
6.91734
8.92711
12.5626
18.3376
26.1519
37.2182
53.5866
60.9547
0.40426
0.547786
0.733296
0.967557
1.2661
1.66313
2.21594
2.93243
3.79858
4.76736
5.81274
7.02845
8.75618
11.6563
16.5198
24.1771
36.4611
53.3185
62.924
0.288132
0.383752
0.511659
0.676841
0.887864
1.16544
1.55763
2.11179
2.86538
3.83889
5.03058
6.46159
8.31245
11.0867
15.6888
23.2648
36.2154
53.4477
62.9393
0.192122
0.239379
0.303239
0.386936
0.494571
0.635004
0.830454
1.12234
1.56163
2.22101
3.1889
4.59979
6.72285
10.0512
15.33
23.0552
36.2947
58.3872
65.7515
0.124366
0.135686
0.14983
0.166981
0.187374
0.212028
0.244041
0.289908
0.360036
0.47373
0.672027
1.07589
2.13453
5.31952
15.0666
23.3948
36.4082
64.6901
84.0107
)
;

boundaryField
{
    leftWall
    {
        type            epsilonWallFunction;
        value           nonuniform List<scalar> 
50
(
0.0341525
0.0434024
0.0538734
0.0583381
0.0650145
0.0715397
0.0769508
0.0837624
0.10935
0.206601
0.361009
0.499948
0.563833
0.509319
0.460626
0.42793
0.406283
0.392629
0.382236
0.37217
0.360859
0.347776
0.333153
0.317637
0.30203
0.28712
0.273599
0.262032
0.252844
0.246347
0.242743
0.24213
0.244531
0.249908
0.258193
0.269297
0.283115
0.299522
0.318385
0.339597
0.363156
0.389265
0.418488
0.451954
0.491563
0.540725
0.606706
0.709007
0.919169
1.63723
)
;
    }
    rightWall
    {
        type            epsilonWallFunction;
        value           nonuniform List<scalar> 
50
(
1.26574
2.44434
4.18517
5.69005
6.85085
7.7354
8.43828
9.01886
9.51635
9.63215
8.99324
8.40481
8.1309
8.17134
8.63315
9.0375
9.05626
8.78847
8.94663
9.43278
10.2406
11.5277
13.0338
14.5728
16.3309
18.9615
22.1346
24.7398
26.7459
28.1177
28.8294
27.8896
28.1239
27.6052
30.7904
37.319
40.8647
43.4178
46.3136
49.7834
53.0735
55.5373
57.0576
57.3945
57.5579
60.9547
62.924
62.9393
65.7515
84.0107
)
;
    }
    lowerWall
    {
        type            epsilonWallFunction;
        value           nonuniform List<scalar> 
62
(
0.0341525
0.108218
0.207079
0.306262
0.392966
0.475795
0.55135
0.622603
0.689761
0.752115
0.808346
0.856638
0.894607
0.91895
0.924182
0.911659
0.87957
0.819314
0.729754
0.614063
0.472854
0.348808
0.260696
0.260696
0.307788
0.474267
0.664098
0.866956
1.07645
1.30372
1.66967
2.21473
1.65071
1.23694
1.06795
0.327634
0.658743
1.28994
1.72135
1.9139
1.89705
1.71806
1.52506
0.327634
1.02778
2.25037
3.94573
6.08051
8.42162
10.6377
12.4502
13.688
14.269
14.2012
13.635
12.8597
11.9855
10.9407
9.73881
8.32964
6.22041
1.26574
)
;
    }
    atmosphere
    {
        type            inletOutlet;
        inletValue      uniform 0.1;
        value           nonuniform List<scalar> 
46
(
0.1
0.1
0.1
0.1
0.1
0.1
0.1
0.1
0.1
0.1
0.1
0.1
0.1
0.1
0.1
0.1
0.1
0.1
0.1
0.1
0.1
0.1
0.1
0.1
0.1
0.1
0.1
0.1
0.1
0.1
0.1
0.1
0.1
0.1
0.1
0.1
0.1
0.1
0.1
0.1
0.1
15.0666
23.3948
36.4082
64.6901
84.0107
)
;
    }
    defaultFaces
    {
        type            empty;
    }
}


// ************************************************************************* //
