/*--------------------------------*- C++ -*----------------------------------*\
  =========                 |
  \\      /  F ield         | OpenFOAM: The Open Source CFD Toolbox
   \\    /   O peration     | Website:  https://openfoam.org
    \\  /    A nd           | Version:  9
     \\/     M anipulation  |
\*---------------------------------------------------------------------------*/
FoamFile
{
    format      ascii;
    class       volScalarField;
    location    "0.5";
    object      nut;
}
// * * * * * * * * * * * * * * * * * * * * * * * * * * * * * * * * * * * * * //

dimensions      [0 2 -1 0 0 0 0];

internalField   nonuniform List<scalar> 
2268
(
0.000113715
9.86487e-05
0.000110335
0.000117583
0.000122898
0.000126898
0.000130031
0.000133098
0.000135698
0.00013798
0.000140075
0.000142031
0.000143893
0.000146519
0.000149739
0.000152019
0.00015248
0.000150156
0.000144152
0.000133717
0.00012062
0.000103132
7.68334e-05
0.000238822
0.000645155
0.000795649
0.000906665
0.000995999
0.00106685
0.00111847
0.00114448
0.00116549
0.00118434
0.00120164
0.00121703
0.00122872
0.0012305
0.00121412
0.0011806
0.00112457
0.00103817
0.000918705
0.000752369
0.00051638
0.000344941
0.000216986
0.000280053
0.0011216
0.00151396
0.00177991
0.00197368
0.00210803
0.00219075
0.00222839
0.00224905
0.00225892
0.00226039
0.00225331
0.00223497
0.00219888
0.00213581
0.0020389
0.00190225
0.00171603
0.00148446
0.00120911
0.000850228
0.0005358
0.000233643
0.000309696
0.00150257
0.00214901
0.00256568
0.00285066
0.00303382
0.00313516
0.00317323
0.00317964
0.00316426
0.00313179
0.003083
0.00301526
0.00292241
0.00279564
0.00262643
0.00240534
0.00212203
0.00179508
0.00143859
0.0010256
0.000640194
0.000236414
0.000332869
0.00181088
0.00269817
0.00325681
0.00362458
0.00385095
0.00396753
0.00400167
0.00398824
0.00394089
0.00386672
0.00376787
0.00364226
0.00348403
0.00328455
0.00303445
0.0027249
0.00235255
0.00193721
0.00151192
0.00107387
0.000668892
0.000230865
0.000352658
0.00206392
0.00317011
0.00386257
0.00430915
0.00457791
0.00471071
0.00474145
0.004708
0.00462791
0.00451057
0.00435966
0.00417392
0.00394779
0.00367255
0.0033384
0.00293763
0.00247247
0.00197003
0.00148051
0.00103816
0.000646995
0.000223527
0.000370504
0.00227473
0.00357549
0.0043939
0.0049174
0.00522993
0.00538206
0.00541302
0.00536254
0.00525298
0.00509541
0.00489514
0.00465197
0.00436079
0.0040128
0.00359789
0.00310927
0.00255356
0.00196633
0.00141391
0.000960289
0.000599527
0.000217471
0.000387463
0.00245269
0.00392464
0.00486114
0.00546022
0.00581855
0.00599396
0.00603037
0.00596751
0.00583451
0.00564289
0.0053997
0.00510615
0.00475803
0.00434688
0.00386269
0.00329954
0.00266719
0.00200776
0.00139835
0.000915818
0.000573569
0.00022691
0.000294286
7.3459e-05
8.20218e-05
8.72671e-05
9.00866e-05
9.15232e-05
9.20011e-05
9.19019e-05
9.1338e-05
9.01483e-05
8.84407e-05
8.62109e-05
8.34056e-05
7.99035e-05
7.54984e-05
6.99449e-05
0.000297857
0.000285226
0.000132166
0.00018622
0.000548592
0.000637964
0.000705364
0.000757788
0.000798186
0.000824301
0.000833773
0.000826252
0.000813643
0.000796512
0.000774014
0.000744717
0.0007064
0.000655864
0.000588949
0.000517319
0.000465322
0.000121667
0.000227931
0.00100458
0.00128881
0.00147994
0.00161661
0.00170472
0.00174755
0.00175082
0.00172304
0.00168002
0.00162445
0.00155545
0.00147056
0.00136578
0.00123555
0.00107266
0.0008716
0.000614236
0.000128035
0.000266094
0.00139516
0.00191917
0.00223954
0.00244766
0.0025659
0.00260919
0.00259376
0.00253513
0.00245094
0.00234627
0.00222098
0.00207233
0.00189556
0.00168399
0.0014287
0.00111729
0.000717901
0.000136465
0.000296572
0.00173858
0.00250936
0.00295051
0.00321316
0.00334679
0.00338024
0.003339
0.00324366
0.00311374
0.00295654
0.00277303
0.00256071
0.00231472
0.00202812
0.00169145
0.00129014
0.000790756
0.000144219
0.000324897
0.00205467
0.00305814
0.00360712
0.00390982
0.00404765
0.00406429
0.00399302
0.00385829
0.00368146
0.00347182
0.00323157
0.00295884
0.00264908
0.00229568
0.00188956
0.00141626
0.000844406
0.000150998
0.000354128
0.0023676
0.00357637
0.00421419
0.0045434
0.00467627
0.00467091
0.00456713
0.00439224
0.00416916
0.00390894
0.00361504
0.00328641
0.00291915
0.00250736
0.00204287
0.00151225
0.000886444
0.000156542
0.000392214
0.00272223
0.00408534
0.00478181
0.00512231
0.00524174
0.00521011
0.00507251
0.00485781
0.00459017
0.00428214
0.0039384
0.00355882
0.00314036
0.00267808
0.00216484
0.00158836
0.000921132
0.0001613
0.000415764
0.00269046
0.00439785
0.0055071
0.0062233
0.00665834
0.0068789
0.00693239
0.00685583
0.00669013
0.00645091
0.00614831
0.00578654
0.00536399
0.00487439
0.00430998
0.00366827
0.00296457
0.00224664
0.00159206
0.00106797
0.000695922
0.000467004
0.000444585
0.0029299
0.00485656
0.00615143
0.00701283
0.00755924
0.00786219
0.00797083
0.00792243
0.00775098
0.00749145
0.00715913
0.00676503
0.00631596
0.00581588
0.00526922
0.00468615
0.00408796
0.00350764
0.00298179
0.00253811
0.00218912
0.0019553
0.000473209
0.0031434
0.00522525
0.00666536
0.00765068
0.00830135
0.00869145
0.00887189
0.00888121
0.00875063
0.00851458
0.00820218
0.00783062
0.00741497
0.0069686
0.00650474
0.00603831
0.00558667
0.00516802
0.00479862
0.00449106
0.00425444
0.0041191
0.000501772
0.00334497
0.00553099
0.00708274
0.00817097
0.00891466
0.00938923
0.00964777
0.00973068
0.00967033
0.00949436
0.00923497
0.00891985
0.00856848
0.0081993
0.00782929
0.0074739
0.00714691
0.00686022
0.00662401
0.00644749
0.00634002
0.00631493
0.000529241
0.00354286
0.00579487
0.00743167
0.00860349
0.00942597
0.00997548
0.010308
0.0104666
0.0104849
0.0103898
0.0102057
0.00996158
0.00968449
0.00939401
0.00910804
0.00884161
0.00860652
0.00841172
0.00826415
0.00816975
0.00813402
0.00816191
0.000551811
0.0037316
0.0060349
0.00773703
0.00897489
0.00985986
0.0104697
0.0108642
0.01109
0.0111823
0.011167
0.0110661
0.0109007
0.0106959
0.0104766
0.0102599
0.0100599
0.00988702
0.00974826
0.00964784
0.00958803
0.00956952
0.00959117
0.000562968
0.00389278
0.00626614
0.00801897
0.00930671
0.0102371
0.01089
0.0113299
0.0116077
0.0117607
0.0118143
0.0117872
0.0116966
0.0115611
0.0114019
0.0112399
0.0110877
0.0109545
0.0108459
0.0107637
0.0107076
0.0106746
0.0106592
0.00057006
0.00402113
0.00648959
0.00828635
0.00961135
0.010572
0.0112517
0.0117196
0.0120316
0.0122276
0.0123329
0.0123637
0.0123334
0.0122561
0.0121482
0.0120274
0.0119086
0.0117997
0.011705
0.0116253
0.0115581
0.0114989
0.0114408
0.000578602
0.00412844
0.00669854
0.00853859
0.00989303
0.0108732
0.0115665
0.0120474
0.0123765
0.0125968
0.0127344
0.0128039
0.0128155
0.0127799
0.0127099
0.0126194
0.0125223
0.0124271
0.0123375
0.0122532
0.0121712
0.0120862
0.0119914
0.000588177
0.00421863
0.00689088
0.00877334
0.0101528
0.0111455
0.0118436
0.0123265
0.012659
0.012887
0.013038
0.0131262
0.0131599
0.0131474
0.0130989
0.0130262
0.0129403
0.0128504
0.0127601
0.012669
0.0125737
0.0124688
0.0123475
0.00059885
0.00429435
0.00706671
0.00898979
0.0103912
0.0113926
0.0120907
0.0125691
0.0128957
0.0131187
0.013267
0.0133554
0.0133919
0.0133836
0.0133392
0.0132692
0.0131834
0.01309
0.0129935
0.0128938
0.0127874
0.0126691
0.0125324
0.000611818
0.00436028
0.00722631
0.00918772
0.0106086
0.0116171
0.0123143
0.0127861
0.0131023
0.0133121
0.0134457
0.0135191
0.0135412
0.0135192
0.0134618
0.0133787
0.0132797
0.0131722
0.0130618
0.0129493
0.0128317
0.012704
0.0125599
0.000628281
0.00442437
0.0073691
0.00936609
0.0108045
0.011821
0.0125199
0.0129874
0.0132928
0.0134857
0.0135968
0.0136441
0.013638
0.0135872
0.013501
0.0133895
0.0132627
0.0131286
0.0129937
0.0128602
0.0127266
0.0125886
0.0124404
0.000649068
0.00449581
0.0074919
0.00952211
0.0109776
0.0120062
0.0127128
0.0131813
0.0134791
0.0136545
0.0137395
0.0137538
0.0137103
0.0136193
0.0134915
0.013338
0.0131697
0.0129953
0.0128226
0.0126563
0.0124968
0.0123414
0.0121857
0.00067569
0.00457853
0.00759575
0.00965355
0.0111278
0.0121759
0.0128987
0.0133754
0.0136699
0.0138297
0.013888
0.0138667
0.013781
0.0136432
0.0134655
0.0132601
0.0130387
0.0128115
0.0125873
0.0123739
0.0121742
0.0119885
0.0118147
0.000700669
0.00466048
0.00768295
0.00976021
0.0112579
0.0123353
0.0130836
0.0135752
0.0138706
0.0140177
0.0140512
0.0139954
0.0138676
0.0136818
0.0134513
0.013189
0.0129076
0.0126182
0.0123309
0.0120563
0.0118006
0.0115677
0.0113588
0.000721148
0.00472242
0.00774994
0.00984364
0.0113746
0.012492
0.0132732
0.0137837
0.0140829
0.0142202
0.0142328
0.0141471
0.0139821
0.0137528
0.0134726
0.013155
0.0128127
0.0124576
0.0121004
0.0117541
0.011428
0.0111298
0.0108651
0.000738045
0.00474047
0.00778852
0.00991148
0.011489
0.0126542
0.0134705
0.014
0.0143039
0.0144346
0.0144322
0.0143249
0.0141323
0.0138693
0.0135492
0.0131848
0.0127882
0.0123713
0.0119449
0.0115228
0.0111171
0.0107386
0.0103975
0.000748658
0.00470119
0.00780062
0.00998124
0.0116151
0.012827
0.0136736
0.0142184
0.0145267
0.0146552
0.0146462
0.0145288
0.0143223
0.014041
0.0136969
0.0133014
0.0128653
0.0123989
0.0119126
0.0114195
0.0109332
0.0104666
0.0100332
0.00074238
0.00459203
0.00781926
0.0100769
0.0117619
0.013008
0.013874
0.0144287
0.0147424
0.0148751
0.0148706
0.0147577
0.0145548
0.0142746
0.0139276
0.013523
0.0130692
0.0125743
0.0120466
0.0114972
0.0109395
0.0103869
0.00985467
0.000725418
0.00438726
0.00790061
0.0102148
0.0119251
0.0131852
0.0140591
0.0146205
0.0149436
0.01509
0.0151035
0.0150117
0.0148317
0.0145745
0.0142486
0.0138609
0.0134167
0.0129208
0.0123781
0.011796
0.0111866
0.0105621
0.00993715
0.000699074
0.00439837
0.00807261
0.0103768
0.0120845
0.0133426
0.0142186
0.014789
0.0151293
0.015301
0.0153468
0.015293
0.0151549
0.0149423
0.0146618
0.0143175
0.0139118
0.0134453
0.0129187
0.0123341
0.0117012
0.01103
0.0103328
0.000682952
0.00461999
0.00825962
0.0105219
0.0122187
0.0134724
0.0143537
0.0149404
0.0153078
0.0155164
0.0156074
0.0156058
0.015526
0.0153765
0.0151621
0.0148846
0.0145431
0.0141343
0.0136545
0.0131008
0.0124771
0.0117921
0.0110552
0.000684335
0.00478577
0.00839481
0.0106357
0.0123278
0.0135852
0.014481
0.0150931
0.0154962
0.0157497
0.015894
0.0159538
0.015943
0.0158693
0.0157358
0.0155419
0.0152837
0.0149545
0.0145471
0.0140547
0.013473
0.0128094
0.0120713
0.000688863
0.004903
0.00849002
0.0107335
0.0124337
0.0137078
0.0146276
0.0152708
0.0157118
0.0160108
0.0162091
0.0163323
0.0163944
0.0164023
0.0163571
0.0162556
0.0160914
0.0158553
0.0155373
0.015128
0.0146198
0.0140094
0.0133072
0.000693252
0.00499088
0.00858232
0.010845
0.0125706
0.0138735
0.0148203
0.0154899
0.0159591
0.0162926
0.0165358
0.0167166
0.0168487
0.0169377
0.016982
0.0169756
0.0169089
0.0167718
0.0165527
0.0162401
0.0158246
0.0152999
0.0146649
0.000696769
0.00507135
0.00870547
0.0110083
0.0127765
0.0141096
0.0150688
0.0157427
0.0162125
0.0165567
0.0168267
0.0170523
0.017247
0.0174126
0.0175437
0.0176307
0.0176623
0.0176263
0.0175106
0.0173033
0.0169938
0.0165732
0.0160352
0.000699901
0.00516997
0.00889891
0.0112686
0.0130828
0.0144224
0.0153497
0.0159744
0.0164085
0.0167364
0.0170128
0.0172683
0.0175146
0.0177501
0.0179646
0.0181437
0.0182727
0.0183374
0.018325
0.0182241
0.0180247
0.0177192
0.0173046
0.000703554
0.00531645
0.00921144
0.0116668
0.013495
0.0147743
0.0155984
0.0161292
0.016493
0.0167759
0.0170324
0.0172936
0.0175714
0.017863
0.0181544
0.0184257
0.0186562
0.0188272
0.0189236
0.0189335
0.0188481
0.0186616
0.0183734
0.000709416
0.00554955
0.00969144
0.0122171
0.0139811
0.0151093
0.0157809
0.0161879
0.0164547
0.0166611
0.0168608
0.0170888
0.0173625
0.0176824
0.0180342
0.0183931
0.0187302
0.019018
0.019235
0.0193661
0.0194021
0.0193392
0.0191792
0.000720721
0.00591714
0.010364
0.012893
0.0144922
0.015412
0.0159087
0.0161743
0.0163157
0.0164058
0.0165025
0.0166494
0.016873
0.0171815
0.0175646
0.0179956
0.0184373
0.0188505
0.0192018
0.0194682
0.0196372
0.0197051
0.0196761
0.000742061
0.00645787
0.0111983
0.0136274
0.0149825
0.0156662
0.0159728
0.0160709
0.0160501
0.0159844
0.0159409
0.0159722
0.0161125
0.016377
0.016761
0.0172403
0.0177731
0.0183094
0.0188013
0.0192132
0.0195253
0.019731
0.0198354
0.000781567
0.00715669
0.0120111
0.0142519
0.0153168
0.0157404
0.0158241
0.0157194
0.0155125
0.0152841
0.0151058
0.0150319
0.0150968
0.0153171
0.0156921
0.0162014
0.0168045
0.0174456
0.0180659
0.0186174
0.0190699
0.0194115
0.0196454
0.000850841
0.00780284
0.0124297
0.0144215
0.0151865
0.015322
0.0151221
0.0147955
0.0144478
0.0141449
0.0139237
0.0138208
0.0138704
0.0140878
0.0144743
0.015012
0.0156635
0.016375
0.0170854
0.0177411
0.0183049
0.018758
0.0190991
0.000891243
0.00774986
0.0120482
0.013781
0.0142131
0.0139668
0.0135916
0.0132222
0.01289
0.0126354
0.0124819
0.0124526
0.0125647
0.0128322
0.0132593
0.0138265
0.0144981
0.0152268
0.0159603
0.0166515
0.0172649
0.0177787
0.0181846
0.000909471
0.00687899
0.0106984
0.0121515
0.0120617
0.0116985
0.0114396
0.0112232
0.0110417
0.010946
0.0109555
0.0110804
0.0113139
0.0116668
0.0121457
0.0127296
0.0133828
0.0140672
0.0147442
0.0153817
0.0159575
0.0164574
0.0168716
0.000929262
0.00593248
0.00843083
0.00891992
0.00921232
0.0094412
0.00953906
0.00947501
0.00933281
0.00936223
0.00957815
0.00986663
0.0102061
0.0106081
0.0110837
0.0116178
0.0121828
0.0127507
0.0132985
0.0138111
0.0142806
0.0147023
0.0150706
0.000912542
0.00469468
0.00637831
0.00734869
0.00777545
0.00791188
0.00796053
0.00795083
0.00799336
0.00816278
0.00843742
0.00876919
0.00913539
0.00952777
0.00993906
0.010356
0.0107632
0.0111491
0.0115088
0.0118437
0.012158
0.0124539
0.0127278
0.00081777
0.00345899
0.00472788
0.00550083
0.00596386
0.00626049
0.00648681
0.00667978
0.0068845
0.00712592
0.00739849
0.00768728
0.00797343
0.00824311
0.00849237
0.00871635
0.00891114
0.00907885
0.00922893
0.00937425
0.00952395
0.00968063
0.00983895
0.000639826
0.00262678
0.00372671
0.00446036
0.00494246
0.00527222
0.00552465
0.00573794
0.00592027
0.00608381
0.00622444
0.00633642
0.00642126
0.00648785
0.00653804
0.00656337
0.00655685
0.00652842
0.00649953
0.00649537
0.00652228
0.00656737
0.00662149
0.000469102
0.00229933
0.00323257
0.00390584
0.00429854
0.00451609
0.00463309
0.00470737
0.00471135
0.00469187
0.00463435
0.00454032
0.00443463
0.00433386
0.00424219
0.00414564
0.00403522
0.00391559
0.00380881
0.00373706
0.00370829
0.00369123
0.00367414
0.000434125
0.00185813
0.00236095
0.00284344
0.00309362
0.00301113
0.00303418
0.0030643
0.00289932
0.00276615
0.00260386
0.00240484
0.00221267
0.00204709
0.0019017
0.00179105
0.00171963
0.0016775
0.00165628
0.00165223
0.00174922
0.00185639
0.00191339
0.000361836
0.000378639
0.000397688
0.000417478
0.0018557
0.00188348
0.00199908
0.00228495
0.00415793
0.00426779
0.00447179
0.00479616
0.00642225
0.00654132
0.0067113
0.00692997
0.00825558
0.00833783
0.0084406
0.00855959
0.00964397
0.00968309
0.00972575
0.00976993
0.010658
0.0106559
0.0106508
0.0106414
0.0113903
0.0113531
0.0113101
0.0112604
0.0119027
0.0118393
0.0117687
0.0116906
0.0122338
0.0121532
0.0120649
0.0119687
0.0124059
0.0123167
0.0122194
0.0121142
0.0124307
0.0123399
0.0122412
0.0121349
0.0123144
0.0122268
0.0121321
0.0120306
0.0120633
0.0119803
0.0118921
0.0117986
0.0116897
0.0116086
0.0115253
0.0114393
0.011218
0.0111314
0.0110467
0.0109634
0.0106896
0.0105859
0.0104891
0.0103985
0.0101654
0.01003
0.00990677
0.00979484
0.00972354
0.0095417
0.00937618
0.00922637
0.00945305
0.00921282
0.0089906
0.00878639
0.00944082
0.00913685
0.00884875
0.00857734
0.00975456
0.00939138
0.00903758
0.0086945
0.0104233
0.0100168
0.00960987
0.00920375
0.0114239
0.0109986
0.0105627
0.0101165
0.0126828
0.0122659
0.0118306
0.011376
0.014095
0.0137097
0.0133017
0.0128699
0.0155457
0.0152088
0.0148476
0.0144622
0.0169127
0.0166304
0.0163248
0.0159959
0.0180825
0.0178564
0.017607
0.0173335
0.0189896
0.0188231
0.0186324
0.0184164
0.0195873
0.019484
0.0193548
0.0191986
0.0198454
0.0198081
0.0197429
0.0196486
0.0197486
0.0197772
0.0197762
0.0197443
0.0192809
0.0193715
0.0194324
0.019461
0.0184151
0.0185514
0.0186615
0.0187425
0.0171144
0.0172744
0.017416
0.0175371
0.0152982
0.0154596
0.0156104
0.0157502
0.012904
0.0130387
0.0131716
0.0133039
0.00994604
0.0100349
0.010128
0.0102283
0.00665955
0.00669324
0.00673325
0.00678469
0.00365941
0.00364338
0.00362844
0.00363173
0.00198991
0.00199021
0.00202676
0.00205073
0.00137325
0.00359234
0.00491954
0.00563165
0.00596109
0.00604569
0.00596601
0.00576556
0.00548324
0.00514447
0.00476346
0.0043465
0.00389488
0.00340696
0.00287922
0.00230596
0.00167589
0.000962209
0.000166544
0.00327462
0.00495174
0.00605344
0.00665761
0.00691269
0.00692784
0.0067742
0.00649499
0.00613227
0.00571223
0.00525022
0.00475399
0.00422634
0.00366705
0.00307382
0.00244177
0.00175986
0.00100136
0.000172211
0.00539778
0.00645947
0.00720687
0.00761275
0.00774234
0.00766408
0.00742455
0.00707077
0.00663816
0.00615062
0.00562313
0.00506396
0.00447673
0.00386198
0.00321797
0.00254011
0.00181774
0.00102609
0.000176595
0.00726744
0.00784637
0.00826362
0.00845938
0.00845009
0.00826674
0.00794667
0.00752701
0.007036
0.00649407
0.00591478
0.00530611
0.00467179
0.00401259
0.00332698
0.00261077
0.00185469
0.00103855
0.000180099
0.00872771
0.00899061
0.00915466
0.00917027
0.00902976
0.00875139
0.00836238
0.00788833
0.00735086
0.00676667
0.00614738
0.00550001
0.00482796
0.00413189
0.00341051
0.0026605
0.00187517
0.00104127
0.000183068
0.00982103
0.00987956
0.00986167
0.00973232
0.0094864
0.00913365
0.00869043
0.00817451
0.00760217
0.00698657
0.00633714
0.00565966
0.00495687
0.00422929
0.00347599
0.00269511
0.00188361
0.00103698
0.000185775
0.0106111
0.0105338
0.0103897
0.0101595
0.00983821
0.00943097
0.00894825
0.00840254
0.00780586
0.00716822
0.00649681
0.00579601
0.00506778
0.00431251
0.00352992
0.00272004
0.00188431
0.00102826
0.000188434
0.0111711
0.0110036
0.0107762
0.0104778
0.0101048
0.00966043
0.00915158
0.00858699
0.00797525
0.00732353
0.00663687
0.00591817
0.0051686
0.00438845
0.00357825
0.00274035
0.00188126
0.00101742
0.00019121
0.0115599
0.0113328
0.0110513
0.0107089
0.0103033
0.00983661
0.00931344
0.00873966
0.00812102
0.0074621
0.00676592
0.00603384
0.00526621
0.00446322
0.00362639
0.00276064
0.00187801
0.00100646
0.000194244
0.0118115
0.011548
0.0112349
0.010868
0.0104459
0.00996994
0.00944307
0.00886891
0.00825077
0.00759094
0.0068904
0.00614901
0.00536614
0.00454188
0.00367879
0.00278469
0.00187749
0.000997071
0.000197669
0.0119434
0.0116632
0.0113374
0.0109628
0.0105386
0.0100654
0.00954487
0.00897873
0.00836825
0.0077136
0.00701378
0.00626699
0.0054715
0.00462722
0.00373792
0.00281467
0.00188163
0.000990612
0.000201633
0.0119615
0.0116816
0.0113599
0.0109932
0.0105805
0.0101217
0.00961733
0.00906766
0.00847208
0.00782879
0.00713475
0.00638628
0.00558035
0.00471671
0.00380088
0.00284815
0.00188956
0.000987727
0.000206314
0.0118636
0.0115985
0.0112957
0.0109512
0.0105631
0.0101303
0.00965212
0.0091275
0.0085541
0.00792805
0.00724401
0.00649602
0.00567951
0.00479463
0.00385056
0.00286983
0.00189208
0.000986728
0.000211933
0.0116436
0.0114037
0.011132
0.0108224
0.0104711
0.0100755
0.00963342
0.00914213
0.00859726
0.00799234
0.00731886
0.00656764
0.00573246
0.0048161
0.00383728
0.00283417
0.00185963
0.000979329
0.000218767
0.011297
0.0110871
0.0108541
0.0105887
0.0102842
0.00993564
0.00953832
0.00908685
0.00857369
0.00798799
0.00731576
0.00654284
0.00566252
0.00468772
0.00366162
0.00265401
0.00173475
0.000945175
0.000227205
0.0108284
0.0106449
0.010451
0.0102333
0.00998142
0.00968628
0.00933914
0.00892988
0.0084447
0.00786435
0.00716522
0.00632742
0.00535238
0.00428491
0.00321872
0.00226231
0.00147942
0.000861
0.000237997
0.0102588
0.0100879
0.00992333
0.00974829
0.00954754
0.00930638
0.00900936
0.0086377
0.00816577
0.00755935
0.00678235
0.00581928
0.00471089
0.00357333
0.00255781
0.00176135
0.00117842
0.000743596
0.00025301
0.00963219
0.00944888
0.00929224
0.00914347
0.00898264
0.00878781
0.00853335
0.00818604
0.0077004
0.00702176
0.00611128
0.00499683
0.00381144
0.00274956
0.00194518
0.00139471
0.000999853
0.000668293
0.000276586
0.00901795
0.00878732
0.00860528
0.0084543
0.00831106
0.00814553
0.00791832
0.00757481
0.00704229
0.00625045
0.00519527
0.00400868
0.0029247
0.00212519
0.00162858
0.00132123
0.0010487
0.00071185
0.000316891
0.00850778
0.00818821
0.00793787
0.00774524
0.00758658
0.00742439
0.0072029
0.00684044
0.00623567
0.00532723
0.00420373
0.00312003
0.00232053
0.00187473
0.00169048
0.00159009
0.00137318
0.000927585
0.000385967
0.00820617
0.00775475
0.00738799
0.0071063
0.0068903
0.0066978
0.00645654
0.00605624
0.00537604
0.00440352
0.00335276
0.00253386
0.00210127
0.00201844
0.00213499
0.00221183
0.00199179
0.00135494
0.000497514
0.00821582
0.00759642
0.00706638
0.0066443
0.00632199
0.00605822
0.0057681
0.00531731
0.00458337
0.00363473
0.00278332
0.00230107
0.00224016
0.00250935
0.0029044
0.00310496
0.00283019
0.00197844
0.000662442
0.00861758
0.00781349
0.00708526
0.00647401
0.00599134
0.00560667
0.00523174
0.00471929
0.00396327
0.00311452
0.00251819
0.00236451
0.00263838
0.00321079
0.00380595
0.00405264
0.00370943
0.00268329
0.000874339
0.0094447
0.00847381
0.00754219
0.00671029
0.00601572
0.00545195
0.00494384
0.00434826
0.00358365
0.00285849
0.00250123
0.00261214
0.00312495
0.00390863
0.00462419
0.00490641
0.00451983
0.00334271
0.00108366
0.0106605
0.00958123
0.00848874
0.00744824
0.00651726
0.00572177
0.00502165
0.0043049
0.00351769
0.00287088
0.0026406
0.00288278
0.00353551
0.0044647
0.00533456
0.00575446
0.00538221
0.00399465
0.0012296
0.0121603
0.0110563
0.00989048
0.00871546
0.00758919
0.00655929
0.00562999
0.00473924
0.00385438
0.00314705
0.00286522
0.0030797
0.00378285
0.00485442
0.00600728
0.00671999
0.00646699
0.00484853
0.00130764
0.0138021
0.0127562
0.0116175
0.0104209
0.0092088
0.00802722
0.00690356
0.00582442
0.00476748
0.00384093
0.00329221
0.00327383
0.00384755
0.00508157
0.00668268
0.00783363
0.00782174
0.00595587
0.00135609
0.0154144
0.0144844
0.0134457
0.0123251
0.0111463
0.00994452
0.00875201
0.00757803
0.00640647
0.00526228
0.0043171
0.00384671
0.00414597
0.00553135
0.00751139
0.00902652
0.009299
0.00704345
0.0013902
0.0168438
0.0160734
0.015191
0.0142088
0.0131429
0.0120183
0.0108656
0.00971068
0.00855405
0.00738313
0.00624895
0.00543976
0.00557728
0.00687761
0.00879472
0.0102231
0.0104725
0.00777947
0.00138529
0.018023
0.0174157
0.0166996
0.0158798
0.0149664
0.0139783
0.0129402
0.0118743
0.0107938
0.00971029
0.0086839
0.00797808
0.00803367
0.00899038
0.0104607
0.0114627
0.0112912
0.0082428
0.00137426
0.0189037
0.0184543
0.0179031
0.0172494
0.0164987
0.0156645
0.0147658
0.0138225
0.0128546
0.0118909
0.0110106
0.010433
0.0103836
0.0110258
0.0120213
0.0125402
0.0118758
0.00847831
0.0013806
0.0194534
0.0191521
0.0187554
0.0182597
0.0176678
0.0169892
0.0162378
0.0154301
0.0145862
0.0137391
0.0129639
0.0124007
0.0122516
0.0126367
0.0132417
0.0133219
0.0123169
0.00864652
0.00138971
0.0196479
0.0194808
0.0192226
0.0188704
0.0184263
0.0178972
0.017292
0.0166218
0.0159035
0.0151659
0.0144656
0.0139055
0.0136632
0.0138372
0.0141345
0.0138516
0.0126443
0.00881419
0.00139673
0.019459
0.0194082
0.0192705
0.0190459
0.0187369
0.018348
0.0178826
0.0173468
0.0167526
0.0161224
0.0154972
0.0149558
0.0146486
0.0146672
0.0147522
0.0142343
0.0128773
0.00892903
0.00140103
0.0188263
0.0188795
0.0188532
0.0187467
0.0185618
0.0183013
0.0179664
0.0175591
0.0170868
0.016567
0.0160312
0.0155355
0.0152068
0.0151399
0.0151196
0.0145594
0.013061
0.00888911
0.00140269
0.0176963
0.0178414
0.0179135
0.017915
0.0178438
0.0177005
0.0174862
0.0172009
0.0168489
0.0164444
0.0160148
0.0156065
0.0153179
0.0152356
0.0152134
0.0148343
0.0130568
0.00876429
0.0014116
0.015962
0.0161857
0.0163465
0.0164429
0.0164748
0.0164423
0.0163467
0.0161881
0.0159668
0.0156914
0.0153827
0.0150795
0.0148401
0.014733
0.0146715
0.0142332
0.0125559
0.0086413
0.00141554
0.0135245
0.0137758
0.0139998
0.0141851
0.0143243
0.0144124
0.0144457
0.0144224
0.0143419
0.0142068
0.0140265
0.0138211
0.0136223
0.0134694
0.0133166
0.0128926
0.0116458
0.00834673
0.00140219
0.0104145
0.0106419
0.0108755
0.0111045
0.011318
0.0115039
0.0116523
0.0117569
0.0118148
0.0118229
0.01178
0.0116937
0.0115854
0.0114902
0.0114353
0.0112702
0.0104863
0.00783181
0.00136628
0.00689729
0.00704692
0.00721575
0.00740147
0.00759854
0.00779542
0.00798104
0.00814583
0.00828584
0.00839023
0.00845479
0.00848632
0.00852108
0.00858393
0.00875633
0.00901893
0.00891967
0.00708522
0.00131272
0.0036529
0.00369099
0.00374882
0.00383165
0.00392488
0.00402012
0.00413462
0.00424982
0.00438568
0.00450985
0.0046468
0.00479318
0.00500189
0.00529031
0.00576009
0.00656007
0.00719664
0.00607825
0.00123687
0.00207263
0.00215477
0.00219693
0.00222627
0.00225552
0.00231429
0.00235911
0.00249587
0.00261534
0.00282829
0.00301138
0.00324107
0.0033669
0.00349119
0.00389102
0.00484595
0.0058665
0.00473428
0.00105265
)
;

boundaryField
{
    leftWall
    {
        type            nutkWallFunction;
        Cmu             0.09;
        kappa           0.41;
        E               9.8;
        value           nonuniform List<scalar> 
50
(
1.69749e-05
2.6052e-05
3.1777e-05
3.5792e-05
3.89449e-05
4.16294e-05
4.40446e-05
4.63366e-05
5.01693e-05
5.40231e-05
5.77766e-05
6.13594e-05
6.44868e-05
6.67038e-05
6.6931e-05
6.44414e-05
6.54472e-05
6.66705e-05
6.81211e-05
6.98973e-05
7.20441e-05
7.54012e-05
8.40465e-05
8.68281e-05
8.85366e-05
8.92892e-05
8.88415e-05
8.71094e-05
8.50646e-05
7.43954e-05
7.0152e-05
7.02868e-05
7.06074e-05
7.08613e-05
7.10544e-05
7.12684e-05
7.16369e-05
7.23793e-05
7.38336e-05
7.65849e-05
8.22089e-05
9.41583e-05
8.96822e-05
9.0366e-05
9.2014e-05
8.83982e-05
7.8004e-05
6.18651e-05
4.8629e-05
4.6183e-05
)
;
    }
    rightWall
    {
        type            nutkWallFunction;
        Cmu             0.09;
        kappa           0.41;
        E               9.8;
        value           nonuniform List<scalar> 
50
(
7.66188e-06
8.34106e-06
9.3324e-06
1.06259e-05
1.17939e-05
1.28053e-05
1.36267e-05
1.43244e-05
1.50933e-05
1.59164e-05
1.65498e-05
1.70535e-05
1.74778e-05
1.78621e-05
1.82359e-05
1.86218e-05
1.90379e-05
1.95008e-05
2.00276e-05
2.06388e-05
2.13589e-05
2.22185e-05
2.32572e-05
2.45397e-05
2.62076e-05
2.85873e-05
3.23219e-05
3.84141e-05
4.80799e-05
6.2442e-05
8.18657e-05
0.000104385
0.000124639
0.000133007
0.000140392
0.000159014
0.000136899
0.000135182
0.000135865
0.000136604
0.000137285
0.000137869
0.000138169
0.000138199
0.000138031
0.00013634
0.000132406
0.000126787
0.000120564
0.000106398
)
;
    }
    lowerWall
    {
        type            nutkWallFunction;
        Cmu             0.09;
        kappa           0.41;
        E               9.8;
        value           nonuniform List<scalar> 
62
(
2.52119e-06
4.94707e-06
6.73168e-06
7.81507e-06
8.60873e-06
9.20921e-06
9.68387e-06
1.01545e-05
1.055e-05
1.08981e-05
1.12188e-05
1.15196e-05
1.18047e-05
1.21922e-05
1.2689e-05
1.305e-05
1.31361e-05
1.28012e-05
1.19069e-05
1.03267e-05
8.31657e-06
5.5772e-06
1.31284e-06
1.31284e-06
2.26157e-05
2.49707e-05
2.53527e-05
2.45614e-05
2.35058e-05
2.26273e-05
2.39216e-05
4.22333e-05
4.4429e-05
4.69189e-05
4.95108e-05
0
1.79263e-05
2.38757e-05
2.91665e-05
3.33736e-05
3.7211e-05
4.11303e-05
4.62036e-05
0
6.17126e-07
2.01018e-06
2.86446e-06
3.31758e-06
3.5476e-06
3.62386e-06
3.60872e-06
3.51729e-06
3.32609e-06
3.05178e-06
2.69286e-06
2.23988e-06
1.67137e-06
9.5095e-07
2.86047e-08
7.59461e-09
0
0
)
;
    }
    atmosphere
    {
        type            calculated;
        value           nonuniform List<scalar> 
46
(
0.000434125
0.009
0.00236095
0.009
0.00309362
0.009
0.00303418
0.009
0.009
0.009
0.009
0.009
0.009
0.009
0.009
0.009
0.009
0.009
0.009
0.009
0.00174922
0.009
0.00191339
0.009
0.009
0.00202676
0.00205073
0.00207263
0.009
0.009
0.00222627
0.00225552
0.009
0.00235911
0.009
0.00261534
0.009
0.00301138
0.009
0.0033669
0.00349119
0.00389102
0.00484595
0.0058665
0.00473428
0.00105265
)
;
    }
    defaultFaces
    {
        type            empty;
    }
}


// ************************************************************************* //
