/*--------------------------------*- C++ -*----------------------------------*\
  =========                 |
  \\      /  F ield         | OpenFOAM: The Open Source CFD Toolbox
   \\    /   O peration     | Website:  https://openfoam.org
    \\  /    A nd           | Version:  9
     \\/     M anipulation  |
\*---------------------------------------------------------------------------*/
FoamFile
{
    format      ascii;
    class       volScalarField;
    location    "0.5";
    object      nut;
}
// * * * * * * * * * * * * * * * * * * * * * * * * * * * * * * * * * * * * * //

dimensions      [0 2 -1 0 0 0 0];

internalField   nonuniform List<scalar> 
2268
(
6.39129e-05
6.22966e-05
7.71483e-05
8.77724e-05
9.52342e-05
0.000101426
0.000106482
0.000110852
0.000114683
0.000118028
0.000120896
0.000123262
0.000125068
0.000126208
0.000126459
0.000125888
0.000124358
0.000121379
0.000116669
0.000109974
0.000100631
9.07098e-05
8.24168e-05
0.000125041
0.000392465
0.000592417
0.000721979
0.000819835
0.000895827
0.000959527
0.00101376
0.00106006
0.00109913
0.00113129
0.00115655
0.00117467
0.0011849
0.00118503
0.00116097
0.00110761
0.00102902
0.000931513
0.000824905
0.000725564
0.000599128
0.000236323
0.000134319
0.000653084
0.00100257
0.00126262
0.00147915
0.00166544
0.00182837
0.00197073
0.00209382
0.00219832
0.00228457
0.00235256
0.00240153
0.0024293
0.00243034
0.00238715
0.00228594
0.00212398
0.00190515
0.00164687
0.00137949
0.00106546
0.000272538
0.000137694
0.000799579
0.0012475
0.00162082
0.00195472
0.00225668
0.00252831
0.00276945
0.00297986
0.00315966
0.00330915
0.00342825
0.00351572
0.00356806
0.0035772
0.0035249
0.00339293
0.00317138
0.00285837
0.00246877
0.00202725
0.00145774
0.000304912
0.000142458
0.000839427
0.00136619
0.00183824
0.00228443
0.00270195
0.00308411
0.0034262
0.00372608
0.00398344
0.00419871
0.00437192
0.00450156
0.00458318
0.00460708
0.00455473
0.00440586
0.0041453
0.00376493
0.00326982
0.00266044
0.00180728
0.000333086
0.000146774
0.000824804
0.00139613
0.00195308
0.00250711
0.00303852
0.00352957
0.00397049
0.00435765
0.00469077
0.00497072
0.00519788
0.00537068
0.00548411
0.00552763
0.00548281
0.00532855
0.00504573
0.0046197
0.00404104
0.0032746
0.00213137
0.000358447
0.000150192
0.000780076
0.00136834
0.00200002
0.00265821
0.00329989
0.00389489
0.00442912
0.00489831
0.0053027
0.0056439
0.00592274
0.00613782
0.00628391
0.00635015
0.00631884
0.00616873
0.00587743
0.00542366
0.00478176
0.00387756
0.00245642
0.000382372
0.000154954
0.000716824
0.0013106
0.00201312
0.00277143
0.00351614
0.00420616
0.00482488
0.00536832
0.00583759
0.006235
0.00656188
0.00681704
0.00699529
0.00708583
0.00707253
0.00693443
0.00664612
0.00618048
0.00549754
0.00449177
0.00284093
0.000415952
9.92295e-05
0.000136334
0.000175085
0.000213956
0.000249107
0.000279317
0.000303297
0.000320801
0.000331979
0.000337013
0.000336224
0.000330451
0.000321388
0.000312829
0.000302022
0.000289787
0.000277478
0.000262562
0.000300485
0.000366778
0.000889057
0.00102857
0.00114914
0.00131738
0.00155291
0.00182348
0.00208784
0.00232467
0.00251797
0.00263835
0.00265348
0.00254925
0.0023618
0.00211649
0.00184338
0.00158585
0.00129808
0.000663852
0.000457491
0.00139605
0.00170249
0.00203135
0.00248836
0.00304616
0.00361051
0.00411669
0.00454435
0.00487884
0.00508484
0.00510918
0.00491431
0.00448465
0.00383755
0.00302469
0.0022233
0.0015767
0.000737801
0.000508299
0.00178874
0.0022728
0.002797
0.00345279
0.00417494
0.00486539
0.0054699
0.00597412
0.00637055
0.00663543
0.00671575
0.0065602
0.00611383
0.00533453
0.00419189
0.00284885
0.00177061
0.000776171
0.000526393
0.00207401
0.00271464
0.00337338
0.00412814
0.00491224
0.00564739
0.00629192
0.00683552
0.00727722
0.00760509
0.00777332
0.00772909
0.0073835
0.00665084
0.00542145
0.00370466
0.00206282
0.000799384
0.000522782
0.0022518
0.00301439
0.00375257
0.00454207
0.00533334
0.00607269
0.00672989
0.0072972
0.00777578
0.00815347
0.00839505
0.00845917
0.00821534
0.00756508
0.00638539
0.0046143
0.00250218
0.000816775
0.000501019
0.00232535
0.00317365
0.00394849
0.00473129
0.00549724
0.00621348
0.00685939
0.00743
0.00792798
0.0083199
0.00858165
0.00868534
0.00846849
0.00787122
0.00684222
0.00530935
0.0030892
0.000831189
0.000479592
0.0022777
0.00319685
0.00397274
0.00471841
0.00543897
0.00610918
0.00671479
0.00725591
0.00774181
0.00810349
0.00832035
0.00834352
0.00810354
0.00762098
0.00686859
0.00571071
0.00374017
0.000842871
0.000171659
0.000636132
0.00124058
0.00203815
0.00292807
0.00380674
0.00462123
0.00535287
0.00599802
0.0065585
0.00703715
0.00743566
0.00775328
0.00798535
0.00812162
0.00814558
0.00803681
0.00776895
0.00730842
0.00660138
0.00553461
0.00388383
0.00152175
0.000213971
0.000598079
0.00128539
0.00224299
0.00327051
0.00425732
0.00516631
0.0059869
0.00671725
0.00735899
0.00791362
0.00838181
0.00876286
0.00905281
0.00924248
0.0093155
0.00925276
0.00902979
0.00861322
0.00795126
0.00695396
0.00549155
0.00352808
0.000255222
0.000811453
0.00172465
0.00279861
0.00385078
0.00484391
0.00576787
0.00661482
0.00737998
0.00806288
0.00866109
0.00917226
0.0095955
0.00992738
0.0101605
0.0102814
0.0102746
0.0101194
0.00978824
0.00924142
0.00842033
0.00726539
0.00580884
0.000283075
0.00146661
0.00257608
0.00361728
0.00460128
0.00553998
0.00642929
0.0072594
0.00802198
0.00871076
0.00932226
0.0098531
0.0102999
0.0106591
0.010925
0.0110893
0.0111397
0.0110619
0.0108348
0.0104326
0.00982286
0.00898602
0.00796722
0.000289889
0.00181214
0.00315935
0.00426743
0.00525599
0.00618457
0.00705982
0.00787709
0.0086303
0.00931338
0.00992212
0.010455
0.0109097
0.0112835
0.0115727
0.0117726
0.0118761
0.0118754
0.0117494
0.0114871
0.0110775
0.010516
0.00983796
0.00028023
0.00196384
0.00348202
0.00470504
0.00575903
0.00671839
0.00760427
0.00842154
0.00916984
0.00984701
0.0104514
0.0109824
0.0114394
0.0118214
0.0121267
0.0123528
0.0124975
0.0125566
0.0125191
0.0123813
0.0121399
0.0117892
0.0113663
0.000272094
0.00202179
0.0036713
0.00500077
0.00613302
0.00713901
0.00804853
0.00887489
0.00962418
0.010299
0.0109008
0.0114305
0.0118893
0.012278
0.0125967
0.0128447
0.0130207
0.0131231
0.0131486
0.0131025
0.0129825
0.0127917
0.0125546
0.000266004
0.00203802
0.00378258
0.00520695
0.00641445
0.00746887
0.00840519
0.00924362
0.00999618
0.0106701
0.0112698
0.0117985
0.0122587
0.0126525
0.0129816
0.0132468
0.0134488
0.0135879
0.0136637
0.0136796
0.0136375
0.0135426
0.0134192
0.00026171
0.00203375
0.00384342
0.00535152
0.00662622
0.0077249
0.00868624
0.00953606
0.0102916
0.0109641
0.0115611
0.0120876
0.0125476
0.0129442
0.01328
0.0135572
0.0137779
0.013944
0.0140573
0.0141192
0.0141317
0.0140984
0.0140318
0.000258814
0.00201934
0.00387479
0.00544982
0.00678001
0.00791605
0.00889859
0.00975771
0.0105148
0.0111848
0.0117776
0.0123003
0.0127579
0.0131542
0.0134928
0.0137764
0.0140079
0.0141901
0.014325
0.0144144
0.0144599
0.0144644
0.014431
0.000256476
0.00200288
0.00388504
0.00550694
0.00688051
0.00804643
0.00904613
0.00991238
0.0106698
0.0113361
0.0119234
0.0124405
0.0128933
0.0132864
0.0136236
0.0139082
0.0141432
0.0143316
0.0144754
0.0145764
0.0146358
0.0146552
0.0146361
0.000254107
0.00198388
0.00387869
0.00552855
0.00692974
0.00811838
0.00913196
0.0100038
0.0107608
0.0114229
0.0120041
0.0125142
0.0129602
0.0133473
0.0136795
0.0139602
0.0141925
0.0143791
0.0145221
0.0146229
0.0146828
0.0147028
0.0146846
0.00025137
0.00195964
0.00385412
0.00551802
0.00693597
0.00813778
0.00915992
0.0100365
0.0107931
0.0114513
0.0120263
0.0125291
0.0129673
0.0133464
0.0136706
0.0139435
0.014168
0.0143467
0.0144815
0.0145739
0.0146252
0.0146364
0.0146093
0.000248146
0.00192893
0.00381175
0.00547796
0.00690334
0.00811243
0.00913938
0.0100171
0.010773
0.0114284
0.0119982
0.012494
0.0129241
0.0132941
0.0136085
0.0138707
0.0140836
0.0142497
0.014371
0.0144492
0.0144856
0.0144817
0.0144394
0.000244474
0.00189208
0.00375378
0.00541271
0.00683763
0.00804863
0.00907732
0.0099553
0.0107097
0.0113619
0.0119277
0.0124179
0.0128405
0.0132014
0.0135049
0.0137546
0.0139532
0.0141033
0.0142072
0.014267
0.0142843
0.014261
0.0141994
0.000240492
0.00185034
0.0036836
0.00532765
0.00674562
0.0079538
0.00898136
0.00985843
0.0106113
0.0112611
0.0118233
0.0123089
0.0127254
0.0130779
0.0133705
0.0136067
0.0137892
0.0139209
0.0140046
0.0140429
0.0140383
0.0139933
0.0139106
0.000236382
0.00180538
0.00360495
0.00522851
0.00663442
0.00783575
0.00885947
0.00973422
0.0104854
0.0111332
0.0116929
0.0121749
0.0125862
0.0129315
0.0132138
0.0134362
0.0136016
0.0137133
0.0137748
0.0137898
0.013762
0.0136949
0.0135918
0.000232343
0.00175889
0.00352148
0.00512073
0.00651087
0.00770211
0.00871947
0.00959024
0.0103388
0.0109848
0.0115427
0.0120221
0.0124294
0.0127682
0.0130409
0.0132498
0.0133978
0.0134887
0.0135271
0.0135184
0.0134679
0.0133804
0.0132605
0.000228572
0.00171248
0.00343643
0.00500914
0.00638109
0.00755986
0.00856868
0.00943364
0.0101784
0.0108218
0.0113777
0.0118552
0.0122592
0.0125925
0.0128565
0.0130524
0.0131832
0.0132534
0.0132692
0.0132379
0.0131671
0.0130636
0.0129331
0.000225254
0.00166757
0.0033526
0.00489783
0.00625038
0.00741513
0.0084136
0.00927086
0.01001
0.0106495
0.0112027
0.0116779
0.0120791
0.0124076
0.0126636
0.0128477
0.0129623
0.0130129
0.0130078
0.0129569
0.0128704
0.0127573
0.0126246
0.000222547
0.00162541
0.00327233
0.00479029
0.00612319
0.00727315
0.00825987
0.00910756
0.00983898
0.0104727
0.0110217
0.0114938
0.011892
0.0122162
0.0124652
0.0126386
0.012739
0.0127725
0.0127494
0.0126833
0.0125872
0.0124724
0.0123469
0.00022058
0.00158709
0.00319768
0.00468948
0.00600336
0.00713834
0.00811227
0.00894857
0.00967002
0.0102955
0.0108384
0.011306
0.0117006
0.0120208
0.0122638
0.0124283
0.0125167
0.0125365
0.0125003
0.0124242
0.0123253
0.0122168
0.0121071
0.000219445
0.00155354
0.00313051
0.00459814
0.00589425
0.00701455
0.00797487
0.00879799
0.00950702
0.0101216
0.0106558
0.0111172
0.0115075
0.0118239
0.0120621
0.0122198
0.012299
0.0123087
0.0122642
0.0121847
0.0120892
0.0119937
0.011907
0.000219187
0.00152552
0.00307258
0.00451882
0.00579898
0.00690518
0.00785117
0.00865926
0.00935325
0.00995401
0.0104768
0.0109299
0.0113147
0.0116275
0.0118624
0.0120154
0.0120886
0.0120921
0.0120436
0.0119655
0.0118795
0.0118022
0.0117426
0.000219808
0.00150359
0.00302547
0.00445391
0.00572038
0.00681322
0.00774415
0.00853528
0.00921144
0.00979522
0.0103036
0.010746
0.0111242
0.0114333
0.011666
0.0118168
0.011887
0.0118876
0.0118386
0.0117653
0.0116918
0.0116357
0.0116058
0.000221273
0.00148817
0.00299057
0.00440555
0.00566096
0.00674125
0.00765632
0.00842837
0.00908376
0.00964723
0.010138
0.0105671
0.0109369
0.0112422
0.0114739
0.0116245
0.0116943
0.0116946
0.0116473
0.0115804
0.0115201
0.0114851
0.0114845
0.00022352
0.0014795
0.00296898
0.00437545
0.0056227
0.0066913
0.00758958
0.00834033
0.00897186
0.00951154
0.00998122
0.0103942
0.0107538
0.0110546
0.0112858
0.0114379
0.0115092
0.0115109
0.0114662
0.0114053
0.0113565
0.01134
0.0113656
0.000226473
0.00147774
0.00296143
0.00436479
0.00560697
0.00666473
0.00754521
0.00827234
0.00887689
0.00938928
0.00983437
0.010228
0.0105751
0.0108702
0.0111011
0.0112557
0.0113299
0.0113336
0.0112908
0.0112336
0.0111928
0.01119
0.0112362
0.000230044
0.00148294
0.00296821
0.00437407
0.0056144
0.00666214
0.00752377
0.00822495
0.00879947
0.00928115
0.00969814
0.0100691
0.0104009
0.0106886
0.0109188
0.0110764
0.0111541
0.0111596
0.0111169
0.0110596
0.0110211
0.0110251
0.011084
0.000234141
0.00149503
0.0029892
0.00440325
0.00564495
0.00668346
0.00752516
0.00819812
0.00873975
0.00918756
0.00957313
0.00991806
0.0102315
0.0105095
0.0107377
0.0108982
0.0109797
0.0109864
0.010941
0.0108786
0.010835
0.0108369
0.0108988
0.000238674
0.00151374
0.00302393
0.00445184
0.0056981
0.00672807
0.00754866
0.00819126
0.00869743
0.00910864
0.00945984
0.00977554
0.0100673
0.0103327
0.0105572
0.0107199
0.0108051
0.0108123
0.0107614
0.0106879
0.0106307
0.01062
0.0106731
0.000243565
0.00153873
0.00307185
0.00451929
0.00577317
0.00679501
0.00759315
0.0082033
0.00867183
0.00904429
0.00935877
0.00964243
0.00990927
0.0101588
0.0103769
0.0105409
0.0106298
0.0106372
0.0105783
0.010488
0.0104078
0.0103726
0.0104036
0.000248769
0.00156968
0.00313269
0.00460537
0.00586965
0.0068833
0.00765728
0.00823287
0.00866196
0.0089942
0.00927042
0.00951988
0.00975879
0.00998894
0.0101976
0.0103611
0.0104539
0.0104622
0.0103946
0.0102827
0.0101704
0.0100979
0.0100919
0.000254295
0.0016066
0.00320692
0.00471076
0.00598779
0.00699234
0.00773972
0.0082784
0.00866656
0.00895784
0.0091952
0.00940924
0.0096178
0.00982506
0.0100206
0.0101813
0.010278
0.0102894
0.0102147
0.0100796
0.00992795
0.0098055
0.00974647
0.000260223
0.00164984
0.00329628
0.00483785
0.0061292
0.00712228
0.0078394
0.00833831
0.00868424
0.00893454
0.00913343
0.0093119
0.00948864
0.00966992
0.00984841
0.010003
0.0101034
0.010121
0.0100445
0.00988902
0.00969483
0.00951198
0.00938365
0.000266723
0.0017004
0.00340489
0.00499204
0.0062979
0.00727461
0.00795573
0.00841103
0.00871343
0.00892336
0.00908519
0.00922913
0.00937374
0.00952681
0.00968426
0.00982875
0.00993118
0.00995862
0.00988831
0.00972179
0.00948955
0.00924162
0.00902995
0.000274083
0.00176184
0.003542
0.00518423
0.00650168
0.00745262
0.00808871
0.00849506
0.00875245
0.00892312
0.00905017
0.00916178
0.00927529
0.00939912
0.00953218
0.00966181
0.00976295
0.00980199
0.00974757
0.0095856
0.0093305
0.00902427
0.00872295
0.000282818
0.00184351
0.00372719
0.00543505
0.00675401
0.00766168
0.00823867
0.00858869
0.00879927
0.00893224
0.00902752
0.00910997
0.00919468
0.00928973
0.00939621
0.00950624
0.00960075
0.00964981
0.00961868
0.00948017
0.00922876
0.00888848
0.00850859
0.00029399
0.00196502
0.00400029
0.00578162
0.00707555
0.00790846
0.00840523
0.00868939
0.00885126
0.00894851
0.0090156
0.00907275
0.00913199
0.00920019
0.00927955
0.00936617
0.00944754
0.00950077
0.00949422
0.00939466
0.00917936
0.00884822
0.00842937
0.000310285
0.00217097
0.00444636
0.00628854
0.00749339
0.00819752
0.00858513
0.00879276
0.00890469
0.00896889
0.00901172
0.00904776
0.00908548
0.00912991
0.00918334
0.00924451
0.00930661
0.00935502
0.00936635
0.00931057
0.00915771
0.00888777
0.00850021
0.00034047
0.00259169
0.00526731
0.00706041
0.00803057
0.00852291
0.00876863
0.00889151
0.00895452
0.00898936
0.0090121
0.00903119
0.0090514
0.00907568
0.00910568
0.00914138
0.00917995
0.00921415
0.00923076
0.00921017
0.00912801
0.00895947
0.00868502
0.000421144
0.0038672
0.00701264
0.00821975
0.00866806
0.00885341
0.00893645
0.00897559
0.008995
0.00900554
0.0090124
0.00901822
0.00902447
0.0090321
0.00904169
0.00905341
0.00906663
0.00907937
0.00908761
0.00908471
0.00906118
0.00900514
0.00890298
0.00046095
0.000418303
0.000380968
0.00036451
0.00230107
0.00195488
0.00180164
0.00171499
0.00482109
0.0042857
0.0039064
0.0036309
0.00722699
0.00674072
0.00631811
0.0059591
0.00931443
0.00894511
0.00859223
0.00826257
0.0110242
0.0107718
0.0105152
0.0102589
0.0123535
0.0121961
0.0120231
0.0118371
0.0133034
0.0132056
0.0130955
0.0129724
0.0139566
0.0138887
0.0138102
0.0137239
0.0143767
0.0143252
0.0142647
0.0141962
0.0145929
0.0145504
0.0144999
0.0144422
0.0146423
0.0146015
0.0145532
0.0144984
0.0145605
0.0145162
0.0144647
0.0144073
0.0143789
0.0143276
0.0142698
0.0142066
0.0141242
0.0140643
0.0139984
0.0139279
0.0138197
0.0137509
0.0136769
0.0135991
0.0134863
0.0134101
0.0133295
0.0132462
0.0131441
0.0130634
0.0129795
0.012894
0.0128117
0.0127308
0.0126481
0.012565
0.0125055
0.0124297
0.0123534
0.0122777
0.0122379
0.0121721
0.0121073
0.0120442
0.0120152
0.0119639
0.0119149
0.0118685
0.0118372
0.0118037
0.0117736
0.0117469
0.0116981
0.0116841
0.0116748
0.0116697
0.0115875
0.0115936
0.0116057
0.0116229
0.011492
0.0115176
0.0115506
0.0115899
0.0113965
0.0114396
0.011492
0.011552
0.0112859
0.011344
0.0114131
0.0114918
0.0111465
0.0112157
0.0112981
0.0113921
0.0109663
0.0110418
0.0111327
0.0112376
0.0107363
0.0108122
0.0109056
0.0110154
0.0104516
0.0105211
0.01061
0.0107175
0.0101127
0.0101679
0.0102444
0.0103414
0.00972653
0.00975897
0.00981417
0.00989166
0.00930845
0.00930846
0.00933248
0.00938037
0.0088846
0.00884147
0.00882303
0.00882979
0.00849498
0.00839779
0.00832442
0.00827672
0.00819537
0.00803637
0.00789679
0.00778068
0.00805143
0.00783465
0.00762661
0.00743386
0.00811502
0.0078697
0.00761595
0.00736105
0.00838404
0.00817276
0.00793801
0.00768362
0.00878053
0.00868677
0.00857548
0.0084461
0.000762445
0.00211849
0.00305449
0.00377417
0.00443284
0.00505914
0.00563186
0.00613199
0.00657381
0.00696317
0.00724913
0.00739778
0.00737952
0.00727153
0.00707886
0.00671092
0.00590298
0.00413142
0.000852311
0.00164271
0.00227934
0.0029547
0.0035153
0.00399756
0.00439608
0.00473937
0.0050327
0.00528727
0.00551828
0.00574524
0.0059661
0.00617085
0.00637139
0.0065201
0.00643945
0.00576572
0.00407365
0.000833946
0.0032853
0.00322953
0.003401
0.00363085
0.00389582
0.00412096
0.0043056
0.00446138
0.00461964
0.00482899
0.00511508
0.00548739
0.00592383
0.00635276
0.00661933
0.00647596
0.00564492
0.00389148
0.000807832
0.0054599
0.00508926
0.00486754
0.00470705
0.0046099
0.00460485
0.00466614
0.00480047
0.0050238
0.00535514
0.00581495
0.00638136
0.00691997
0.00728197
0.00726718
0.00671645
0.00557798
0.00375034
0.000788517
0.0077607
0.00729943
0.00693235
0.0066054
0.0063289
0.00616631
0.00614202
0.00626951
0.00655028
0.0069761
0.00751676
0.00805778
0.00838728
0.0083744
0.00788325
0.00688327
0.00550158
0.00366619
0.00077831
0.00984231
0.00941187
0.00904927
0.00873226
0.00846765
0.00829696
0.00825736
0.00837087
0.00863505
0.00900705
0.00937198
0.00955923
0.00948249
0.00912854
0.00825936
0.00691951
0.00539754
0.0036211
0.00077771
0.0115221
0.0111791
0.0108885
0.0106486
0.0104634
0.0103512
0.0103369
0.0104351
0.0106235
0.0107961
0.0107916
0.0106005
0.010319
0.00971796
0.00846516
0.00681709
0.00524505
0.0035848
0.000789478
0.0127569
0.0125129
0.0123073
0.0121522
0.0120466
0.0119958
0.0120161
0.0121023
0.0121939
0.0121466
0.0119437
0.0119216
0.0117772
0.0102917
0.00841748
0.00650689
0.00503259
0.00354052
0.000796016
0.0135754
0.0133991
0.0132506
0.0131501
0.0131032
0.0131105
0.0131705
0.0132503
0.013249
0.0130319
0.0127156
0.0124221
0.0117816
0.0101979
0.00792553
0.00604939
0.00482711
0.00347842
0.000788482
0.0140759
0.0139315
0.0138094
0.0137292
0.0136996
0.0137195
0.0137716
0.0137948
0.0136428
0.0131438
0.0123719
0.0115711
0.0106747
0.00915307
0.00707111
0.00566431
0.00468758
0.00330971
0.000772614
0.0143394
0.0142071
0.014088
0.0140006
0.0139567
0.0139541
0.0139627
0.0138955
0.0135709
0.0128212
0.0117744
0.0106623
0.0096445
0.00802516
0.0064081
0.00546655
0.00459894
0.00313789
0.000769494
0.0144011
0.0142714
0.0141508
0.0140577
0.014004
0.0139859
0.0139669
0.0138468
0.0134306
0.0125854
0.0113628
0.0100399
0.00889501
0.00734228
0.00615658
0.00549175
0.00465483
0.00314805
0.000777143
0.0143071
0.014174
0.0140512
0.0139572
0.0139038
0.013885
0.0138595
0.013724
0.0132948
0.0124343
0.0111508
0.00970587
0.00846828
0.00707796
0.00618146
0.00566352
0.00483961
0.00326934
0.000795228
0.0140986
0.0139586
0.0138333
0.0137412
0.0136932
0.0136802
0.0136568
0.0135234
0.0131148
0.0122844
0.0110172
0.00951989
0.00825653
0.0070352
0.0063257
0.00590649
0.00511003
0.00346008
0.000829939
0.0138102
0.0136618
0.0135334
0.0134429
0.0133997
0.0133915
0.0133703
0.0132397
0.0128543
0.0120675
0.0108365
0.00934677
0.00807011
0.00708686
0.00650585
0.00616956
0.00542481
0.00373551
0.000866514
0.0134723
0.0133157
0.0131834
0.0130922
0.0130496
0.0130419
0.0130202
0.0128919
0.0125244
0.0117789
0.0105994
0.00915755
0.0079181
0.00710548
0.00669915
0.00643314
0.00575638
0.00406816
0.000902239
0.0131134
0.012951
0.0128151
0.0127206
0.0126738
0.0126609
0.0126354
0.0125094
0.0121577
0.0114455
0.0103148
0.00895236
0.00782407
0.00717571
0.00691745
0.00671297
0.00610014
0.00443018
0.000941049
0.0127606
0.0125974
0.0124604
0.0123614
0.0123062
0.0122832
0.0122504
0.0121257
0.0117866
0.0110954
0.0100026
0.00874831
0.00780836
0.00736742
0.00720723
0.00701319
0.00640617
0.00476002
0.00099284
0.0124384
0.0122815
0.012148
0.0120456
0.0119802
0.0119436
0.0119003
0.0117739
0.0114399
0.01075
0.00967739
0.00856357
0.00787957
0.007671
0.00759184
0.00738572
0.00674419
0.00501913
0.00104782
0.0121662
0.0120244
0.0119005
0.0117978
0.0117226
0.0116711
0.0116145
0.0114806
0.0111351
0.0104073
0.00931688
0.00838765
0.0080176
0.00802408
0.00799392
0.00776856
0.00709741
0.00527148
0.00108772
0.0119555
0.0118385
0.0117304
0.0116322
0.0115502
0.0114842
0.0114115
0.0112601
0.0108714
0.0100289
0.00888827
0.00815696
0.00812391
0.00833792
0.00836735
0.00810179
0.00739437
0.00550247
0.00111903
0.0118091
0.0117251
0.0116402
0.0115526
0.0114681
0.0113894
0.0112979
0.011117
0.0106499
0.00966982
0.00847083
0.00791021
0.00810402
0.00845964
0.0086194
0.00838842
0.00758235
0.00567108
0.0011395
0.0117216
0.0116777
0.0116233
0.0115532
0.0114718
0.0113832
0.0112713
0.0110543
0.0105154
0.00943423
0.00819888
0.00770932
0.00796165
0.008329
0.00847057
0.00827122
0.00760107
0.00570489
0.00114353
0.0116817
0.0116836
0.0116667
0.0116217
0.01155
0.0114555
0.0113248
0.0110788
0.0105147
0.00943141
0.00820242
0.00765611
0.00778759
0.00804604
0.00811284
0.00778011
0.00708487
0.00544489
0.0011203
0.011674
0.0117262
0.0117538
0.011742
0.011688
0.0115936
0.0114486
0.0111903
0.0106533
0.00966628
0.00850139
0.00785771
0.00783473
0.00799325
0.00799465
0.00764731
0.00669265
0.00499964
0.00110982
0.0116804
0.0117864
0.0118653
0.0118959
0.011869
0.0117829
0.0116317
0.0113741
0.0108933
0.0100536
0.00902767
0.0083856
0.00830321
0.00835747
0.00823266
0.00784519
0.00696265
0.00500635
0.00109851
0.0116812
0.0118432
0.0119794
0.012062
0.0120743
0.0120083
0.0118604
0.0116109
0.0111917
0.0105188
0.00970341
0.00916154
0.00908173
0.00901921
0.00866781
0.00814773
0.00738189
0.00567766
0.00115566
0.0116566
0.0118747
0.012073
0.0122174
0.0122825
0.0122513
0.0121185
0.0118824
0.0115248
0.01101
0.010415
0.0100069
0.00987596
0.00961857
0.00904489
0.00840672
0.00757963
0.00585381
0.00122427
0.0115878
0.0118587
0.0121209
0.0123348
0.0124662
0.0124872
0.0123853
0.0121699
0.0118596
0.0114591
0.0110324
0.0107368
0.0105165
0.0100315
0.00930841
0.0085999
0.00771264
0.00584671
0.00125091
0.0114568
0.0117727
0.0120958
0.0123829
0.0125915
0.0126826
0.0126324
0.0124477
0.0121629
0.0118109
0.0114641
0.0112279
0.0109344
0.0102907
0.00952555
0.00880869
0.00787876
0.00593553
0.00127284
0.0112486
0.0115966
0.0119711
0.0123282
0.012619
0.0127952
0.012818
0.0126795
0.012411
0.0120535
0.0116999
0.0114786
0.0111629
0.0104819
0.00975541
0.00906778
0.00810756
0.00613006
0.00129958
0.0109527
0.0113151
0.0117239
0.0121403
0.0125094
0.0127768
0.0128901
0.0128219
0.012585
0.0122097
0.0118016
0.0115678
0.0112635
0.0106011
0.00997088
0.00935183
0.00837676
0.00636581
0.00133615
0.0105653
0.0109209
0.0113413
0.0117974
0.0122311
0.0125855
0.0127985
0.0128251
0.0126507
0.0122901
0.0118455
0.0115843
0.0112482
0.0106692
0.0101798
0.00964808
0.00865901
0.00657559
0.00136816
0.0100896
0.0104152
0.0108212
0.0112886
0.0117648
0.0121911
0.0125003
0.012636
0.012561
0.012274
0.0118523
0.0115368
0.0112122
0.0107563
0.0104103
0.00994526
0.00892919
0.00675721
0.00139218
0.00953642
0.0098071
0.0101701
0.0106134
0.0111037
0.0115772
0.011968
0.0122136
0.0122664
0.0121076
0.0117782
0.0114633
0.0112255
0.0109006
0.0106566
0.0102226
0.00916734
0.00692722
0.00141078
0.00892561
0.00911493
0.00940593
0.00978964
0.0102528
0.0107389
0.0111863
0.0115303
0.011719
0.0117245
0.0115552
0.0113183
0.011212
0.0110795
0.0108928
0.0104692
0.00938294
0.00707846
0.00142285
0.00829033
0.00836805
0.00855665
0.00884646
0.00922864
0.0096829
0.0101475
0.0105632
0.010876
0.0110533
0.0110887
0.0110303
0.0110195
0.0111107
0.0110873
0.0107093
0.00962683
0.00736466
0.00142865
0.00768582
0.00761469
0.00766595
0.00782599
0.00808489
0.00843461
0.0088567
0.00929532
0.00969859
0.0100307
0.0102794
0.0104639
0.010648
0.0108803
0.0110588
0.0108845
0.0100052
0.00779612
0.00146013
0.0072056
0.00694089
0.00681001
0.00679862
0.00689257
0.00708347
0.00736118
0.00772927
0.00815277
0.0085924
0.0090234
0.00945096
0.00989748
0.0103538
0.0107155
0.0107385
0.0100956
0.00796897
0.00150321
0.00699975
0.00650978
0.00614405
0.00590566
0.00578139
0.00575959
0.00583328
0.00601263
0.00630501
0.00670256
0.00720524
0.00782309
0.00856684
0.00938303
0.0101319
0.010457
0.0100435
0.00804161
0.00154521
0.00726898
0.00662284
0.00602503
0.00551668
0.00510996
0.00480097
0.0045825
0.00446209
0.00447478
0.00464305
0.00498991
0.0055584
0.00642729
0.00770681
0.00927884
0.0101036
0.00993654
0.00823989
0.00163317
0.00820701
0.00777881
0.0072964
0.00679183
0.00628912
0.00579556
0.00529787
0.00477697
0.00424247
0.00372122
0.00325508
0.00290162
0.00286866
0.00394402
0.00826949
0.00979683
0.00985556
0.00850179
0.00190559
)
;

boundaryField
{
    leftWall
    {
        type            nutkWallFunction;
        Cmu             0.09;
        kappa           0.41;
        E               9.8;
        value           nonuniform List<scalar> 
50
(
1.1859e-05
1.4688e-05
1.57079e-05
1.60946e-05
1.66365e-05
1.71288e-05
1.75145e-05
1.79922e-05
1.95968e-05
2.39281e-05
2.75527e-05
3.15241e-05
3.2942e-05
3.16062e-05
3.03621e-05
2.9463e-05
2.88373e-05
2.84266e-05
2.81041e-05
2.77835e-05
2.74149e-05
2.69787e-05
2.64782e-05
2.59308e-05
2.53617e-05
2.47989e-05
2.42707e-05
2.38042e-05
2.34231e-05
2.31471e-05
2.29907e-05
2.29617e-05
2.30613e-05
2.32851e-05
2.36244e-05
2.40677e-05
2.46019e-05
2.52127e-05
2.58865e-05
2.6611e-05
2.73793e-05
2.81908e-05
2.90556e-05
2.99961e-05
3.10498e-05
3.22815e-05
3.38236e-05
3.60108e-05
3.99181e-05
4.98468e-05
)
;
    }
    rightWall
    {
        type            nutkWallFunction;
        Cmu             0.09;
        kappa           0.41;
        E               9.8;
        value           nonuniform List<scalar> 
50
(
4.75564e-05
7.00422e-05
8.25581e-05
8.99751e-05
9.31884e-05
9.33525e-05
9.25009e-05
9.13954e-05
9.03357e-05
8.7575e-05
8.43392e-05
8.25048e-05
8.16429e-05
8.17411e-05
8.30682e-05
8.41653e-05
8.42554e-05
8.49524e-05
8.54891e-05
8.67242e-05
8.88243e-05
9.214e-05
9.56838e-05
9.90494e-05
0.000102507
0.000107027
0.00011108
0.000114052
0.000116709
0.000118483
0.000119074
0.000117629
0.00011767
0.000122162
0.000130908
0.000138571
0.000141079
0.00014165
0.000143594
0.000146898
0.000149856
0.000151867
0.00015305
0.000152584
0.000152632
0.000155404
0.000158528
0.000161474
0.000165197
0.00018413
)
;
    }
    lowerWall
    {
        type            nutkWallFunction;
        Cmu             0.09;
        kappa           0.41;
        E               9.8;
        value           nonuniform List<scalar> 
62
(
5.72501e-06
7.57146e-06
9.33008e-06
1.05654e-05
1.14285e-05
1.21362e-05
1.271e-05
1.32026e-05
1.36321e-05
1.40054e-05
1.43241e-05
1.45857e-05
1.47844e-05
1.4909e-05
1.49357e-05
1.48725e-05
1.47064e-05
1.43827e-05
1.38691e-05
1.31353e-05
1.20963e-05
1.09831e-05
1.00162e-05
1.00162e-05
2.6767e-05
3.05355e-05
3.38364e-05
3.66936e-05
3.92024e-05
4.15609e-05
4.48235e-05
4.91672e-05
4.49774e-05
4.12264e-05
3.94926e-05
3.73583e-06
4.18226e-05
5.35881e-05
5.95531e-05
6.18172e-05
6.15612e-05
5.92952e-05
5.67748e-05
3.73583e-06
1.00928e-05
1.5956e-05
2.11937e-05
2.5838e-05
2.97444e-05
3.27876e-05
3.49648e-05
3.63308e-05
3.69425e-05
3.68655e-05
3.62401e-05
3.53239e-05
3.43113e-05
3.30294e-05
3.14796e-05
2.95947e-05
2.65122e-05
1.58113e-05
)
;
    }
    atmosphere
    {
        type            calculated;
        value           nonuniform List<scalar> 
46
(
0.009
0.009
0.009
0.009
0.009
0.009
0.009
0.009
0.009
0.009
0.009
0.009
0.009
0.009
0.009
0.009
0.009
0.009
0.009
0.009
0.009
0.009
0.009
0.009
0.009
0.009
0.009
0.009
0.009
0.009
0.009
0.009
0.009
0.009
0.009
0.009
0.009
0.009
0.009
0.009
0.009
0.00826949
0.00979683
0.00985556
0.00850179
0.00190559
)
;
    }
    defaultFaces
    {
        type            empty;
    }
}


// ************************************************************************* //
