/*--------------------------------*- C++ -*----------------------------------*\
  =========                 |
  \\      /  F ield         | OpenFOAM: The Open Source CFD Toolbox
   \\    /   O peration     | Website:  https://openfoam.org
    \\  /    A nd           | Version:  9
     \\/     M anipulation  |
\*---------------------------------------------------------------------------*/
FoamFile
{
    format      ascii;
    class       volScalarField;
    location    "0.5";
    object      p;
}
// * * * * * * * * * * * * * * * * * * * * * * * * * * * * * * * * * * * * * //

dimensions      [1 -1 -2 0 0 0 0];

internalField   nonuniform List<scalar> 
2268
(
604.998
603.861
610.041
620.342
632.052
643.852
655.622
667.554
679.899
692.857
706.593
721.255
737.01
754.101
772.975
794.149
818.121
844.868
873.315
900.044
919.006
921.765
944.781
545.9
543.661
548.572
557.81
568.715
580.109
591.759
603.757
616.277
629.493
643.569
658.677
675.016
692.861
712.618
734.954
760.371
789.089
819.902
848.52
868.537
862.595
883.834
485.939
483.753
488.155
495.962
505.691
516.341
527.609
539.477
552.045
565.452
579.862
595.465
612.49
631.24
652.131
675.741
702.562
732.582
764.44
793.529
813.58
808.702
827.665
426.005
424.255
428.432
435.129
443.762
453.595
464.331
475.91
488.385
501.868
516.518
532.535
550.156
569.687
591.505
616.052
643.687
674.146
705.971
734.747
755.25
755.911
776.809
366.424
365.67
369.236
374.992
382.659
391.689
401.833
413.034
425.327
438.797
453.6
469.937
488.038
508.189
530.711
555.9
583.93
614.345
645.708
674.08
695.168
702.379
729.14
307.182
307.454
310.258
315.134
321.918
330.156
339.676
350.456
362.523
375.932
390.837
407.437
425.941
446.609
469.705
495.381
523.63
553.831
584.64
612.615
634.02
647.985
680.638
248.142
249.133
251.133
255.152
261.099
268.549
277.436
287.792
299.641
312.993
327.996
344.851
363.733
384.873
408.485
434.588
463.009
492.963
523.229
550.727
571.835
591.017
626.601
189.159
190.091
191.068
194.235
199.467
206.259
214.605
224.619
236.336
249.704
264.873
282.046
301.351
322.972
347.073
373.552
402.105
431.829
461.589
488.448
508.43
527.091
561.296
382.536
382.44
382.313
382.107
381.793
381.398
380.986
380.617
380.34
380.195
380.194
380.343
380.685
381.27
382.099
383.165
384.494
385.869
386.581
382.489
382.4
382.29
382.086
381.758
381.348
380.93
380.558
380.273
380.12
380.113
380.248
380.564
381.122
381.926
382.954
384.225
385.652
386.507
382.461
382.372
382.255
382.03
381.682
381.269
380.859
380.492
380.202
380.04
380.026
380.14
380.42
380.941
381.72
382.71
383.868
385.3
386.442
382.447
382.342
382.2
381.945
381.581
381.171
380.771
380.405
380.106
379.933
379.912
380.003
380.24
380.724
381.474
382.431
383.422
384.681
386.355
382.434
382.307
382.136
381.854
381.478
381.069
380.67
380.301
379.988
379.802
379.777
379.845
380.038
380.481
381.19
382.116
382.917
383.642
386.29
382.422
382.269
382.072
381.769
381.382
380.97
380.568
380.191
379.862
379.664
379.638
379.679
379.821
380.224
380.892
381.804
382.447
381.996
386.333
382.416
382.233
382.013
381.694
381.297
380.88
380.471
380.085
379.737
379.534
379.51
379.513
379.593
380.005
380.715
381.677
382.222
379.642
386.156
382.425
382.212
381.969
381.638
381.229
380.804
380.385
379.988
379.616
379.401
379.409
379.404
379.479
380.059
381.071
382.318
382.667
377.505
384.753
98.1427
98.1869
97.7864
99.7392
103.821
109.462
116.71
125.888
137.185
150.479
165.834
183.454
203.401
225.816
250.746
277.78
306.421
335.735
364.876
390.967
409.068
416.66
410.51
19.5474
17.3883
16.4992
17.5773
19.5295
22.0548
25.1615
29.082
34.1041
40.6595
49.8447
61.6596
76.4847
95.4673
119.625
147.584
177.037
205.339
234.916
263.955
286.357
300.948
316.158
-0.156875
0.0891882
0.154935
0.129116
0.113059
0.108725
0.105675
0.103167
0.120727
0.554893
2.23753
4.97747
9.04525
15.4107
25.8981
41.1242
59.7801
79.9561
108.566
142.118
169.098
192.167
216.889
-0.0675343
-0.0682533
-0.0493346
-0.0370402
-0.0271761
-0.0192235
-0.0139391
-0.0103661
-0.00572281
0.00321143
0.0043275
0.0124456
0.0180495
0.0138339
0.0142567
0.763347
3.83731
10.3733
23.0619
42.1042
62.0547
83.6461
106.841
-0.236474
-0.222315
-0.204207
-0.189328
-0.180194
-0.173772
-0.168391
-0.163101
-0.156901
-0.148652
-0.143667
-0.141747
-0.140212
-0.13495
-0.120112
-0.117349
-0.220782
-0.440201
-0.330374
2.59111
10.0438
17.7266
24.9631
-0.355534
-0.352251
-0.343994
-0.334921
-0.328129
-0.322659
-0.317595
-0.312355
-0.306361
-0.299843
-0.294755
-0.290884
-0.287415
-0.283366
-0.278653
-0.278107
-0.279708
-0.290561
-0.37626
-0.598502
-0.812511
-0.856265
0.585287
-0.491881
-0.489159
-0.48423
-0.478224
-0.472818
-0.467904
-0.46313
-0.458207
-0.452915
-0.4475
-0.442555
-0.438087
-0.434248
-0.431351
-0.430386
-0.434718
-0.445335
-0.448052
-0.422736
-0.417734
-0.452639
-0.607978
-0.81166
-0.629786
-0.62816
-0.624992
-0.620742
-0.616392
-0.612055
-0.607624
-0.602989
-0.598101
-0.593118
-0.588312
-0.583866
-0.580047
-0.577255
-0.576289
-0.579094
-0.586744
-0.594748
-0.599393
-0.608459
-0.595637
-0.5371
-0.527802
-0.7692
-0.76809
-0.766125
-0.763158
-0.759694
-0.755903
-0.751808
-0.747409
-0.742734
-0.737909
-0.733134
-0.72861
-0.724588
-0.721406
-0.719588
-0.720021
-0.723177
-0.727977
-0.733632
-0.741786
-0.745807
-0.74324
-0.757496
-0.909633
-0.909002
-0.907896
-0.9058
-0.902986
-0.899627
-0.895809
-0.891589
-0.88703
-0.882245
-0.877386
-0.872635
-0.868212
-0.864392
-0.861521
-0.86
-0.859949
-0.860892
-0.86241
-0.864976
-0.86691
-0.867493
-0.87027
-1.05062
-1.05049
-1.05005
-1.04859
-1.04624
-1.04321
-1.03961
-1.03552
-1.03101
-1.02618
-1.02116
-1.0161
-1.01119
-1.00662
-1.00264
-0.999436
-0.997029
-0.995122
-0.993392
-0.99178
-0.989448
-0.986013
-0.981959
-1.19202
-1.19233
-1.1924
-1.19139
-1.1894
-1.18662
-1.18318
-1.17917
-1.17466
-1.16974
-1.16452
-1.15912
-1.15368
-1.14836
-1.1433
-1.13862
-1.13429
-1.13013
-1.1259
-1.12133
-1.11582
-1.10908
-1.10103
-1.33377
-1.33441
-1.33484
-1.33416
-1.33243
-1.32984
-1.32652
-1.32256
-1.31802
-1.31299
-1.30755
-1.3018
-1.29584
-1.2898
-1.28377
-1.27781
-1.27189
-1.26587
-1.25955
-1.25264
-1.24466
-1.23537
-1.22438
-1.47586
-1.47671
-1.47736
-1.4769
-1.47537
-1.47292
-1.46969
-1.46575
-1.46117
-1.45602
-1.45036
-1.44427
-1.43783
-1.43114
-1.42427
-1.41724
-1.41001
-1.40248
-1.39445
-1.38565
-1.37568
-1.36433
-1.35116
-1.61835
-1.61928
-1.62002
-1.61969
-1.61829
-1.61596
-1.61279
-1.60885
-1.60422
-1.59894
-1.59308
-1.58668
-1.57982
-1.57258
-1.56499
-1.55709
-1.54883
-1.54009
-1.53073
-1.52047
-1.50895
-1.49603
-1.48129
-1.76127
-1.76217
-1.7629
-1.76263
-1.76132
-1.75905
-1.75592
-1.75198
-1.74729
-1.7419
-1.73585
-1.72919
-1.72199
-1.71429
-1.70614
-1.69755
-1.68848
-1.67883
-1.66846
-1.65711
-1.64446
-1.63041
-1.61463
-1.90467
-1.90546
-1.90609
-1.90581
-1.90454
-1.90232
-1.8992
-1.89525
-1.89051
-1.88502
-1.87882
-1.87196
-1.86448
-1.85643
-1.84785
-1.83875
-1.82909
-1.81878
-1.80768
-1.79556
-1.78213
-1.76732
-1.75091
-2.04857
-2.04921
-2.0497
-2.04936
-2.04809
-2.04588
-2.04276
-2.0388
-2.03401
-2.02845
-2.02214
-2.01512
-2.00744
-1.99914
-1.99027
-1.98081
-1.97074
-1.95998
-1.9484
-1.93578
-1.92186
-1.9066
-1.88988
-2.193
-2.19348
-2.1938
-2.19337
-2.19206
-2.18984
-2.18672
-2.18273
-2.17792
-2.1723
-2.16592
-2.1588
-2.151
-2.14255
-2.13348
-2.12381
-2.1135
-2.10248
-2.09062
-2.07771
-2.06353
-2.04807
-2.03126
-2.33798
-2.3383
-2.33845
-2.33792
-2.33656
-2.33431
-2.33117
-2.32717
-2.32233
-2.31669
-2.31027
-2.30311
-2.29525
-2.28673
-2.27759
-2.26783
-2.25742
-2.24629
-2.23432
-2.2213
-2.20702
-2.19151
-2.17478
-2.48352
-2.48369
-2.48369
-2.48306
-2.48164
-2.47936
-2.4762
-2.47219
-2.46735
-2.4617
-2.45528
-2.44812
-2.44027
-2.43176
-2.42263
-2.41289
-2.40249
-2.39138
-2.37941
-2.3664
-2.35215
-2.33671
-2.32014
-2.62962
-2.62968
-2.62954
-2.62883
-2.62735
-2.62503
-2.62186
-2.61785
-2.61301
-2.60739
-2.601
-2.59389
-2.5861
-2.57767
-2.56863
-2.55898
-2.5487
-2.53768
-2.52581
-2.51289
-2.49873
-2.4834
-2.46701
-2.77629
-2.77627
-2.77603
-2.77524
-2.77371
-2.77136
-2.76818
-2.76418
-2.75937
-2.7538
-2.74747
-2.74045
-2.73277
-2.72447
-2.71558
-2.70609
-2.69597
-2.68512
-2.67339
-2.66059
-2.64654
-2.63132
-2.61507
-2.92353
-2.92347
-2.92315
-2.92231
-2.92073
-2.91836
-2.91518
-2.9112
-2.90645
-2.90094
-2.89471
-2.88782
-2.88028
-2.87216
-2.86346
-2.85419
-2.84428
-2.83363
-2.82206
-2.80939
-2.79542
-2.78026
-2.76406
-3.07135
-3.07127
-3.07089
-3.07002
-3.06842
-3.06604
-3.06287
-3.05893
-3.05424
-3.04883
-3.04273
-3.03599
-3.02864
-3.02072
-3.01226
-3.00324
-2.99357
-2.98313
-2.97174
-2.95918
-2.94527
-2.9301
-2.91383
-3.21975
-3.21965
-3.21926
-3.21836
-3.21675
-3.21438
-3.21124
-3.20736
-3.20275
-3.19746
-3.19151
-3.18495
-3.17782
-3.17015
-3.16196
-3.1532
-3.1438
-3.13359
-3.12238
-3.10992
-3.09603
-3.0808
-3.06436
-3.36872
-3.36862
-3.36823
-3.36734
-3.36574
-3.36338
-3.36029
-3.35647
-3.35197
-3.34682
-3.34104
-3.33469
-3.3278
-3.32041
-3.31251
-3.30405
-3.29493
-3.28497
-3.27394
-3.2616
-3.24772
-3.23239
-3.21572
-3.51825
-3.51816
-3.51779
-3.51693
-3.51535
-3.51303
-3.51
-3.50627
-3.5019
-3.4969
-3.49132
-3.48519
-3.47857
-3.47147
-3.46389
-3.45575
-3.44693
-3.43723
-3.42642
-3.4142
-3.40036
-3.38495
-3.36805
-3.66833
-3.66825
-3.66793
-3.66712
-3.66558
-3.66331
-3.66035
-3.65674
-3.6525
-3.64768
-3.64231
-3.63644
-3.63011
-3.62333
-3.61607
-3.60827
-3.59978
-3.59038
-3.5798
-3.56775
-3.55399
-3.53856
-3.52151
-3.81895
-3.8189
-3.81862
-3.81788
-3.81639
-3.81419
-3.81133
-3.80785
-3.80377
-3.79915
-3.79402
-3.78842
-3.78239
-3.77594
-3.76904
-3.7616
-3.75346
-3.74439
-3.7341
-3.72227
-3.70868
-3.69332
-3.67623
-3.97008
-3.97006
-3.96985
-3.96918
-3.96776
-3.96566
-3.96291
-3.95958
-3.95569
-3.95128
-3.9464
-3.9411
-3.93539
-3.9293
-3.92278
-3.91573
-3.90798
-3.89927
-3.88931
-3.87779
-3.86446
-3.84931
-3.83234
-4.12169
-4.12172
-4.12158
-4.12099
-4.11967
-4.11767
-4.11507
-4.1119
-4.10822
-4.10406
-4.09946
-4.09446
-4.0891
-4.08338
-4.07726
-4.07063
-4.0633
-4.05501
-4.04545
-4.03432
-4.02136
-4.00657
-3.98991
-4.27376
-4.27384
-4.27378
-4.27329
-4.27208
-4.27021
-4.26777
-4.2648
-4.26134
-4.25745
-4.25315
-4.24849
-4.2435
-4.23818
-4.23248
-4.2263
-4.21943
-4.21161
-4.20253
-4.19188
-4.17942
-4.16514
-4.14898
-4.42622
-4.42643
-4.42642
-4.42606
-4.42497
-4.42325
-4.42098
-4.41823
-4.41503
-4.41142
-4.40745
-4.40315
-4.39854
-4.39364
-4.38839
-4.38268
-4.37632
-4.36904
-4.36051
-4.35045
-4.33862
-4.32501
-4.30956
-4.57901
-4.57949
-4.57951
-4.57926
-4.57831
-4.57675
-4.57469
-4.57217
-4.56924
-4.56595
-4.56232
-4.5584
-4.5542
-4.54973
-4.54495
-4.53975
-4.53394
-4.52725
-4.51937
-4.51
-4.49894
-4.48617
-4.47162
-4.73198
-4.73307
-4.73303
-4.7329
-4.73209
-4.7307
-4.72884
-4.72658
-4.72394
-4.72098
-4.71772
-4.71418
-4.71041
-4.70639
-4.7021
-4.69744
-4.69222
-4.68619
-4.67904
-4.67049
-4.66035
-4.64859
-4.63516
-4.88512
-4.88732
-4.88707
-4.88701
-4.88631
-4.88508
-4.88343
-4.88143
-4.8791
-4.87649
-4.8736
-4.87048
-4.86714
-4.86359
-4.85981
-4.8557
-4.8511
-4.84578
-4.83945
-4.83185
-4.82278
-4.81223
-4.80014
-5.03842
-5.04234
-5.04178
-5.04167
-5.04102
-5.03991
-5.03848
-5.03675
-5.03474
-5.03248
-5.02999
-5.02728
-5.0244
-5.02133
-5.01806
-5.01451
-5.01056
-5.00599
-5.00056
-4.99402
-4.98619
-4.97704
-4.96652
-5.19182
-5.198
-5.19712
-5.19675
-5.19609
-5.19511
-5.19388
-5.19243
-5.19076
-5.18886
-5.18677
-5.18449
-5.18206
-5.17948
-5.17673
-5.17375
-5.17045
-5.16666
-5.16219
-5.15681
-5.15037
-5.14284
-5.13418
-5.34559
-5.3544
-5.35293
-5.35165
-5.35084
-5.35002
-5.34903
-5.34787
-5.34652
-5.345
-5.3433
-5.34146
-5.33948
-5.33737
-5.33512
-5.33271
-5.33005
-5.32704
-5.32355
-5.3194
-5.31448
-5.30875
-5.30226
-5.49884
-5.51424
-5.5105
-5.50668
-5.50542
-5.50475
-5.50401
-5.50314
-5.50213
-5.50097
-5.49967
-5.49825
-5.49671
-5.49506
-5.4933
-5.49142
-5.48938
-5.48713
-5.4846
-5.48172
-5.4784
-5.47461
-5.47024
-5.6459
-5.68287
-5.67369
-5.66753
-5.66607
-5.66548
-5.66496
-5.66439
-5.66375
-5.66301
-5.66218
-5.66126
-5.66025
-5.65916
-5.65798
-5.65674
-5.65541
-5.65402
-5.65257
-5.65107
-5.64953
-5.64795
-5.64626
359.28
370.267
379.814
378.651
321.686
326.456
327.773
333.08
232.02
239.73
246.382
255.686
122.542
135.023
148.664
162.383
28.6033
35.0874
46.1229
60.2088
2.79691
4.50691
6.75936
10.2784
-1.00164
-1.24033
-1.47988
-1.48663
-0.534118
-0.558222
-0.611763
-0.691977
-0.776158
-0.771253
-0.736192
-0.685988
-0.870089
-0.868633
-0.863835
-0.853553
-0.97676
-0.972276
-0.966191
-0.959294
-1.09303
-1.08631
-1.07782
-1.06883
-1.2141
-1.20583
-1.19588
-1.1855
-1.3393
-1.33005
-1.3192
-1.30805
-1.46846
-1.45868
-1.4474
-1.43589
-1.60125
-1.59129
-1.57995
-1.56844
-1.73732
-1.7274
-1.71623
-1.70493
-1.87628
-1.8665
-1.85559
-1.8446
-2.01776
-2.00813
-1.99748
-1.9868
-2.16143
-2.15193
-2.14149
-2.13105
-2.30695
-2.29756
-2.28724
-2.27697
-2.45397
-2.44464
-2.43439
-2.42419
-2.60211
-2.59278
-2.58253
-2.57233
-2.75106
-2.74167
-2.73135
-2.72107
-2.90066
-2.89112
-2.88066
-2.87025
-3.05088
-3.0411
-3.03043
-3.01981
-3.20186
-3.1918
-3.18086
-3.17002
-3.3538
-3.34345
-3.33225
-3.3212
-3.50692
-3.49633
-3.48494
-3.47375
-3.66144
-3.65073
-3.63929
-3.62809
-3.81753
-3.80687
-3.79554
-3.78451
-3.9753
-3.96485
-3.95382
-3.94311
-4.13477
-4.1247
-4.11413
-4.10391
-4.29595
-4.28638
-4.27641
-4.26681
-4.45882
-4.44985
-4.44059
-4.4317
-4.62334
-4.61508
-4.60662
-4.59852
-4.78948
-4.78204
-4.77446
-4.76723
-4.95722
-4.95072
-4.94412
-4.93785
-5.12653
-5.12115
-5.11568
-5.11044
-5.29678
-5.2928
-5.2886
-5.28435
-5.46618
-5.4634
-5.46056
-5.45773
-5.64447
-5.64323
-5.64186
-5.64035
382.388
382.134
381.943
381.592
381.158
380.719
380.286
379.872
379.452
379.118
379.332
379.813
379.906
379.856
380.485
383.169
385.122
377.169
383.28
361.326
381.056
381.585
381.276
381.059
380.719
380.306
379.882
379.527
377.33
369.418
361.515
359.089
362.047
367.982
375.793
383.315
385.901
413.962
282.609
334.426
361.827
378.751
380.582
380.266
379.806
379.147
368.201
344.797
336.418
342.306
352.23
365.624
380.896
397.208
413.112
432.371
507.129
184.951
228.056
267.498
306.772
333.008
345.756
344.388
330.278
301.399
284.169
287.673
303.707
323.536
347.55
373.001
402.637
443.251
529.474
677.487
84.7118
115.683
143.004
169.253
193.559
210.643
214.137
208.523
199.336
202.203
220.371
251.475
285.613
326.626
360.445
392.895
438.397
546.439
706.587
17.7269
28.9346
40.5991
50.8201
60.757
70.094
77.1074
83.1627
91.2098
105.214
130.123
172.103
228.769
294.365
350.605
376.607
398.407
481.697
615.624
-0.910174
2.2073
5.33078
6.17286
6.03447
7.10517
10.1743
15.3588
21.1082
26.3304
33.5172
48.8864
81.0317
174.188
289.865
336.521
329.779
363.943
453.683
-0.857928
-0.925111
-0.988961
-1.16461
-1.45676
-1.61907
-1.30818
-0.630876
0.141456
0.82581
1.71317
3.9434
14.7806
71.1621
164.593
245.417
243.674
235.443
281.042
-0.631982
-0.617283
-0.61948
-0.652907
-0.702896
-0.668557
-0.455881
-0.0835452
0.370036
0.840174
1.41303
2.19214
4.9069
18.2301
59.4941
155.32
172.716
145.122
164.188
-0.82612
-0.805785
-0.782788
-0.740709
-0.655851
-0.521869
-0.345921
-0.114337
0.182151
0.565153
1.03825
1.44728
1.92902
4.6925
26.2181
102.552
136.09
113.599
120.428
-0.946658
-0.923823
-0.89035
-0.838144
-0.755079
-0.635481
-0.478984
-0.278747
-0.0307611
0.265574
0.584018
0.794015
0.778563
0.933005
9.08499
63.7358
115.903
106.737
105.66
-1.05284
-1.02395
-0.983161
-0.926105
-0.846783
-0.739798
-0.60257
-0.43467
-0.241434
-0.0413862
0.124486
0.189567
0.120958
-0.234891
0.836044
34.4933
101.352
103.7
100.533
-1.16711
-1.13447
-1.09008
-1.03092
-0.954032
-0.857006
-0.740203
-0.607692
-0.46654
-0.343209
-0.277855
-0.304309
-0.356663
-0.837483
-1.93265
12.7855
83.6387
98.1674
95.6596
-1.28869
-1.25492
-1.21009
-1.15236
-1.0807
-0.995022
-0.897881
-0.795293
-0.697554
-0.625136
-0.612464
-0.686855
-0.73736
-1.31135
-2.21289
-0.213477
60.82
88.492
87.3883
-1.41621
-1.38266
-1.33923
-1.28496
-1.22011
-1.14594
-1.06616
-0.987437
-0.919795
-0.878786
-0.888235
-0.967177
-1.06393
-1.39212
-1.67834
-5.92358
39.7194
77.2091
77.4775
-1.54886
-1.51632
-1.47527
-1.42533
-1.36744
-1.30358
-1.23776
-1.17619
-1.12701
-1.10078
-1.1121
-1.17473
-1.26403
-1.39624
-1.67763
-7.4769
20.2923
66.1259
69.6645
-1.68578
-1.6547
-1.61646
-1.57098
-1.51947
-1.46407
-1.40847
-1.35776
-1.31761
-1.29418
-1.29562
-1.33217
-1.39429
-1.44339
-1.89347
-5.69087
2.18067
55.4373
65.4488
-1.82604
-1.79662
-1.7612
-1.71982
-1.67368
-1.62469
-1.57586
-1.5308
-1.49284
-1.46463
-1.44964
-1.45666
-1.4968
-1.55495
-1.80673
-2.61035
-3.68716
42.3323
64.1563
-1.96889
-1.94108
-1.90819
-1.87026
-1.82828
-1.78373
-1.73877
-1.6956
-1.6555
-1.61846
-1.58391
-1.55702
-1.56088
-1.61462
-1.72138
-1.76838
-4.68473
28.4778
65.3071
-2.11372
-2.0873
-2.05648
-2.02118
-1.98211
-1.94025
-1.897
-1.85346
-1.80951
-1.76355
-1.71204
-1.6556
-1.62166
-1.6755
-1.80199
-1.83562
-2.69629
15.5836
65.9829
-2.26008
-2.23471
-2.20534
-2.17178
-2.13439
-2.09376
-2.05079
-2.00602
-1.95885
-1.90746
-1.84729
-1.77347
-1.71811
-1.76939
-1.95906
-2.20937
-3.21237
5.09956
56.7184
-2.40754
-2.38279
-2.35422
-2.32144
-2.28459
-2.24397
-2.20039
-2.15458
-2.10653
-2.0561
-2.0036
-1.94745
-1.89468
-1.88789
-2.08115
-2.57583
-3.61795
-2.64645
32.5289
-2.55573
-2.53116
-2.50267
-2.46976
-2.43234
-2.39063
-2.34571
-2.29931
-2.25301
-2.21092
-2.18427
-2.18427
-2.18456
-2.17599
-2.39151
-2.78244
-1.43918
1.42001
8.66931
-2.70437
-2.67951
-2.65044
-2.61649
-2.57742
-2.53352
-2.48629
-2.43897
-2.39494
-2.36367
-2.36959
-2.43596
-2.53521
-2.68043
-2.97416
-2.41367
2.42785
4.23872
17.5369
-2.85328
-2.82774
-2.7975
-2.76172
-2.72002
-2.67276
-2.62165
-2.57147
-2.52583
-2.49898
-2.52191
-2.62367
-2.7801
-2.98359
-3.27911
-0.493069
15.6989
44.1791
85.5548
-3.00252
-2.97603
-2.9442
-2.90601
-2.86095
-2.80934
-2.75213
-2.69506
-2.64227
-2.60744
-2.61591
-2.69044
-2.79734
-2.78925
-2.69415
4.09621
37.5839
76.6209
99.4267
-3.15233
-3.12478
-3.09126
-3.0505
-3.00184
-2.94549
-2.88087
-2.81239
-2.74759
-2.69549
-2.6691
-2.68936
-2.742
-2.17454
0.338935
11.4647
46.4284
90.0479
103.477
-3.30317
-3.27468
-3.23972
-3.19676
-3.14498
-3.08447
-3.01387
-2.93343
-2.851
-2.77761
-2.71977
-2.68554
-2.70067
-2.4036
-0.688082
12.0528
47.2869
89.48
103.304
-3.45555
-3.4265
-3.39075
-3.34663
-3.29318
-3.2306
-3.15861
-3.06729
-2.96059
-2.86285
-2.78128
-2.69382
-2.60444
-2.44967
-1.8989
5.3113
47.1621
88.2569
102.139
-3.60997
-3.58092
-3.54537
-3.50177
-3.44944
-3.38959
-3.32372
-3.22695
-3.09271
-2.9696
-2.87212
-2.75187
-2.57031
-2.33732
-1.63077
5.28397
48.4214
83.3356
95.8991
-3.76675
-3.73834
-3.70405
-3.66277
-3.61456
-3.56219
-3.50844
-3.4299
-3.28987
-3.13992
-3.01971
-2.89099
-2.62304
-2.342
-1.10552
13.1895
48.2404
73.5153
85.4783
-3.926
-3.89874
-3.8665
-3.82866
-3.78575
-3.74038
-3.69525
-3.65069
-3.55478
-3.41627
-3.27689
-3.10683
-2.55944
-2.35128
-0.50446
11.0562
34.8186
61.4449
74.3913
-4.08765
-4.06195
-4.03221
-3.99828
-3.96096
-3.92243
-3.88616
-3.85951
-3.82833
-3.7476
-3.6801
-3.57216
-2.76079
-2.61886
-1.75132
1.10861
14.6335
43.1728
58.1651
-4.25159
-4.22771
-4.2007
-4.17077
-4.13907
-4.10779
-4.0803
-4.06104
-4.07535
-4.08022
-4.08016
-4.08369
-4.31026
-2.98203
-3.17972
-5.83534
-1.76706
15.7609
30.5748
-4.41765
-4.39581
-4.3716
-4.34546
-4.31877
-4.29373
-4.27382
-4.26453
-4.2846
-4.3464
-4.40398
-4.47325
-4.97296
-4.42748
-0.598414
-1.44607
-5.30737
-9.29683
-2.42584
-4.58574
-4.56611
-4.54467
-4.522
-4.49952
-4.47937
-4.46515
-4.46295
-4.48474
-4.55153
-4.6445
-4.7662
-5.05053
-5.04882
-4.38763
-2.17239
-5.40887
-15.0279
-20.6616
-4.75583
-4.73854
-4.71986
-4.70037
-4.68135
-4.66475
-4.65402
-4.65526
-4.67849
-4.7357
-4.82897
-4.94833
-5.11121
-5.17134
-5.18465
-5.56894
-6.49851
-11.8234
-17.6841
-4.92796
-4.91316
-4.89725
-4.88074
-4.8647
-4.85073
-4.84173
-4.84317
-4.86377
-4.9132
-4.99648
-5.11127
-5.26281
-5.42208
-5.65352
-5.85038
-6.36508
-8.1275
-7.84525
-5.10205
-5.08976
-5.07668
-5.06312
-5.04987
-5.0381
-5.03002
-5.03
-5.04497
-5.08333
-5.15147
-5.25291
-5.39073
-5.55052
-5.73356
-5.89767
-6.19509
-6.79805
-5.41596
-5.27722
-5.26733
-5.25705
-5.24644
-5.23594
-5.22629
-5.21905
-5.21746
-5.22662
-5.25297
-5.30291
-5.38283
-5.50085
-5.65469
-5.81225
-5.93871
-6.12044
-6.63922
-6.23887
-5.45305
-5.44585
-5.43839
-5.43076
-5.42306
-5.41561
-5.40946
-5.40679
-5.41125
-5.42725
-5.4599
-5.51586
-5.6082
-5.76009
-5.92274
-5.99757
-6.07918
-6.79558
-9.52068
-5.63771
-5.63355
-5.62961
-5.62585
-5.62214
-5.61841
-5.61491
-5.61239
-5.6123
-5.61731
-5.63294
-5.67051
-5.75465
-5.95483
-6.01377
-6.02003
-6.16764
-7.25419
-19.0087
)
;

boundaryField
{
    leftWall
    {
        type            calculated;
        value           nonuniform List<scalar> 
50
(
604.998
545.9
485.939
426.005
366.424
307.182
248.142
189.159
98.1427
19.5474
-0.156875
-0.0675343
-0.236474
-0.355534
-0.491881
-0.629786
-0.7692
-0.909633
-1.05062
-1.19202
-1.33377
-1.47586
-1.61835
-1.76127
-1.90467
-2.04857
-2.193
-2.33798
-2.48352
-2.62962
-2.77629
-2.92353
-3.07135
-3.21975
-3.36872
-3.51825
-3.66833
-3.81895
-3.97008
-4.12169
-4.27376
-4.42622
-4.57901
-4.73198
-4.88512
-5.03842
-5.19182
-5.34559
-5.49884
-5.6459
)
;
    }
    rightWall
    {
        type            calculated;
        value           nonuniform List<scalar> 
50
(
386.581
386.507
386.442
386.355
386.29
386.333
386.156
384.753
383.28
413.962
507.129
677.487
706.587
615.624
453.683
281.042
164.188
120.428
105.66
100.533
95.6596
87.3883
77.4775
69.6645
65.4488
64.1563
65.3071
65.9829
56.7184
32.5289
8.66931
17.5369
85.5548
99.4267
103.477
103.304
102.139
95.8991
85.4783
74.3913
58.1651
30.5748
-2.42584
-20.6616
-17.6841
-7.84525
-5.41596
-6.23887
-9.52068
-19.0087
)
;
    }
    lowerWall
    {
        type            calculated;
        value           nonuniform List<scalar> 
62
(
634.427
633.29
639.47
649.771
661.481
673.281
685.051
696.984
709.328
722.287
736.022
750.684
766.439
783.531
802.405
823.578
847.55
874.298
902.744
929.474
947.475
949.517
973.047
944.781
883.834
827.665
776.809
729.14
680.638
626.601
561.296
421.849
432.837
442.41
420.209
382.536
382.489
382.461
382.447
382.434
382.422
382.416
382.425
382.565
382.469
382.343
382.136
381.822
381.427
381.015
380.646
380.369
380.224
380.224
380.372
380.715
381.299
382.129
383.194
384.524
385.898
386.611
)
;
    }
    atmosphere
    {
        type            calculated;
        value           nonuniform List<scalar> 
46
(
-5.73271
-5.75238
-5.75282
-5.75216
-5.75163
-5.7512
-5.7508
-5.75038
-5.74994
-5.74944
-5.7489
-5.74829
-5.74762
-5.74689
-5.7461
-5.74525
-5.74436
-5.74346
-5.7426
-5.74184
-5.74128
-5.74104
-5.74121
-5.74155
-5.74145
-5.74086
-5.73981
-5.73776
-5.73583
-5.73482
-5.73447
-5.7347
-5.73557
-5.73725
-5.73998
-5.74396
-5.74957
-5.75731
-5.76607
-5.76555
-5.73819
-5.72905
-5.73017
-5.72993
-5.73036
-55.5002
)
;
    }
    defaultFaces
    {
        type            empty;
    }
}


// ************************************************************************* //
