/*--------------------------------*- C++ -*----------------------------------*\
  =========                 |
  \\      /  F ield         | OpenFOAM: The Open Source CFD Toolbox
   \\    /   O peration     | Website:  https://openfoam.org
    \\  /    A nd           | Version:  9
     \\/     M anipulation  |
\*---------------------------------------------------------------------------*/
FoamFile
{
    format      ascii;
    class       volScalarField;
    location    "0.5";
    object      p_rgh;
}
// * * * * * * * * * * * * * * * * * * * * * * * * * * * * * * * * * * * * * //

dimensions      [1 -1 -2 0 0 0 0];

internalField   nonuniform List<scalar> 
2268
(
-219.719
-219.741
-219.765
-219.797
-219.831
-219.864
-219.896
-219.925
-219.953
-219.98
-220.006
-220.032
-220.06
-220.09
-220.124
-220.163
-220.208
-220.258
-220.305
-220.333
-220.33
-220.298
-220.269
-219.715
-219.736
-219.758
-219.792
-219.828
-219.863
-219.897
-219.928
-219.957
-219.985
-220.012
-220.04
-220.069
-220.101
-220.136
-220.176
-220.221
-220.27
-220.316
-220.346
-220.339
-220.3
-220.263
-219.708
-219.731
-219.754
-219.788
-219.826
-219.862
-219.897
-219.93
-219.961
-219.99
-220.019
-220.048
-220.079
-220.111
-220.147
-220.187
-220.232
-220.279
-220.323
-220.351
-220.348
-220.308
-220.267
-219.697
-219.726
-219.751
-219.786
-219.824
-219.862
-219.898
-219.931
-219.964
-219.994
-220.024
-220.055
-220.086
-220.118
-220.154
-220.194
-220.238
-220.284
-220.327
-220.355
-220.355
-220.318
-220.274
-219.686
-219.72
-219.749
-219.785
-219.823
-219.862
-219.898
-219.933
-219.966
-219.998
-220.029
-220.059
-220.091
-220.124
-220.159
-220.198
-220.24
-220.285
-220.326
-220.355
-220.356
-220.322
-220.278
-219.675
-219.715
-219.748
-219.785
-219.823
-219.862
-219.899
-219.934
-219.968
-220.001
-220.032
-220.063
-220.095
-220.127
-220.162
-220.199
-220.24
-220.282
-220.322
-220.349
-220.35
-220.316
-220.274
-219.664
-219.71
-219.747
-219.785
-219.824
-219.863
-219.9
-219.936
-219.97
-220.003
-220.035
-220.066
-220.098
-220.13
-220.164
-220.199
-220.237
-220.276
-220.313
-220.339
-220.337
-220.301
-220.266
-219.655
-219.705
-219.747
-219.786
-219.825
-219.864
-219.901
-219.937
-219.972
-220.005
-220.038
-220.069
-220.101
-220.132
-220.165
-220.198
-220.233
-220.268
-220.302
-220.325
-220.32
-220.283
-220.257
-219.826
-219.832
-219.828
-219.827
-219.822
-219.812
-219.798
-219.78
-219.759
-219.737
-219.716
-219.695
-219.677
-219.662
-219.65
-219.642
-219.638
-219.637
-219.636
-219.827
-219.831
-219.825
-219.824
-219.821
-219.812
-219.798
-219.781
-219.761
-219.739
-219.718
-219.698
-219.68
-219.664
-219.652
-219.644
-219.639
-219.637
-219.636
-219.827
-219.83
-219.824
-219.823
-219.82
-219.812
-219.799
-219.782
-219.763
-219.742
-219.721
-219.701
-219.682
-219.667
-219.654
-219.645
-219.64
-219.637
-219.636
-219.825
-219.832
-219.827
-219.826
-219.822
-219.814
-219.801
-219.784
-219.765
-219.744
-219.723
-219.703
-219.684
-219.668
-219.655
-219.646
-219.639
-219.636
-219.635
-219.826
-219.837
-219.835
-219.831
-219.826
-219.817
-219.804
-219.787
-219.767
-219.746
-219.725
-219.704
-219.686
-219.669
-219.655
-219.645
-219.638
-219.634
-219.634
-219.834
-219.845
-219.846
-219.84
-219.832
-219.822
-219.807
-219.789
-219.769
-219.748
-219.726
-219.706
-219.686
-219.669
-219.655
-219.644
-219.636
-219.632
-219.632
-219.854
-219.859
-219.86
-219.85
-219.84
-219.827
-219.811
-219.793
-219.772
-219.75
-219.728
-219.706
-219.686
-219.669
-219.654
-219.642
-219.634
-219.63
-219.63
-219.896
-219.886
-219.88
-219.863
-219.849
-219.834
-219.816
-219.796
-219.774
-219.752
-219.729
-219.707
-219.686
-219.668
-219.652
-219.64
-219.632
-219.628
-219.628
-219.643
-219.7
-219.748
-219.789
-219.828
-219.867
-219.904
-219.94
-219.975
-220.009
-220.041
-220.073
-220.104
-220.134
-220.165
-220.195
-220.225
-220.255
-220.283
-220.302
-220.295
-220.257
-220.221
-219.637
-219.703
-219.757
-219.799
-219.838
-219.875
-219.912
-219.947
-219.982
-220.016
-220.048
-220.079
-220.11
-220.139
-220.167
-220.195
-220.22
-220.244
-220.263
-220.274
-220.268
-220.245
-220.211
-219.643
-219.716
-219.773
-219.815
-219.852
-219.888
-219.923
-219.957
-219.991
-220.025
-220.057
-220.088
-220.118
-220.147
-220.173
-220.198
-220.221
-220.24
-220.254
-220.26
-220.254
-220.236
-220.209
-219.671
-219.744
-219.8
-219.837
-219.87
-219.904
-219.937
-219.97
-220.003
-220.036
-220.068
-220.099
-220.129
-220.157
-220.183
-220.206
-220.227
-220.243
-220.254
-220.257
-220.25
-220.235
-220.211
-219.734
-219.787
-219.835
-219.864
-219.892
-219.922
-219.954
-219.986
-220.018
-220.051
-220.083
-220.114
-220.144
-220.171
-220.197
-220.219
-220.238
-220.252
-220.26
-220.262
-220.256
-220.242
-220.221
-219.842
-219.829
-219.867
-219.89
-219.915
-219.942
-219.973
-220.004
-220.037
-220.069
-220.101
-220.132
-220.162
-220.189
-220.214
-220.236
-220.253
-220.266
-220.274
-220.275
-220.269
-220.256
-220.237
-222.285
-219.846
-219.883
-219.908
-219.934
-219.963
-219.994
-220.026
-220.059
-220.091
-220.123
-220.154
-220.183
-220.211
-220.235
-220.256
-220.273
-220.286
-220.293
-220.293
-220.288
-220.276
-220.259
-229.612
-219.845
-219.882
-219.918
-219.95
-219.984
-220.018
-220.051
-220.085
-220.118
-220.15
-220.18
-220.209
-220.236
-220.26
-220.281
-220.298
-220.31
-220.317
-220.318
-220.313
-220.302
-220.285
-230.694
-219.837
-219.88
-219.927
-219.968
-220.007
-220.045
-220.081
-220.116
-220.149
-220.181
-220.211
-220.24
-220.266
-220.29
-220.311
-220.327
-220.339
-220.346
-220.347
-220.342
-220.332
-220.317
-231.59
-219.839
-219.885
-219.942
-219.991
-220.036
-220.078
-220.116
-220.152
-220.186
-220.218
-220.248
-220.275
-220.301
-220.324
-220.344
-220.36
-220.372
-220.379
-220.38
-220.377
-220.368
-220.353
-232.457
-219.853
-219.899
-219.964
-220.021
-220.071
-220.116
-220.157
-220.194
-220.228
-220.26
-220.289
-220.316
-220.34
-220.362
-220.382
-220.398
-220.409
-220.416
-220.419
-220.415
-220.407
-220.394
-233.316
-219.881
-219.923
-219.996
-220.06
-220.114
-220.161
-220.203
-220.241
-220.275
-220.306
-220.334
-220.36
-220.384
-220.405
-220.423
-220.439
-220.451
-220.458
-220.461
-220.459
-220.451
-220.44
-234.162
-219.927
-219.962
-220.042
-220.11
-220.166
-220.214
-220.255
-220.293
-220.326
-220.356
-220.384
-220.408
-220.431
-220.451
-220.469
-220.484
-220.496
-220.503
-220.507
-220.505
-220.5
-220.489
-231.663
-219.984
-220.024
-220.108
-220.174
-220.228
-220.273
-220.313
-220.348
-220.38
-220.41
-220.436
-220.46
-220.481
-220.5
-220.517
-220.532
-220.544
-220.552
-220.556
-220.556
-220.552
-220.543
-220.776
-220.073
-220.119
-220.196
-220.254
-220.3
-220.339
-220.374
-220.407
-220.437
-220.464
-220.49
-220.513
-220.533
-220.552
-220.569
-220.583
-220.595
-220.604
-220.609
-220.61
-220.607
-220.6
-219.991
-220.19
-220.243
-220.303
-220.345
-220.379
-220.409
-220.438
-220.466
-220.493
-220.519
-220.544
-220.566
-220.587
-220.605
-220.622
-220.636
-220.649
-220.658
-220.664
-220.666
-220.665
-220.66
-220.171
-220.334
-220.39
-220.421
-220.44
-220.458
-220.477
-220.498
-220.522
-220.547
-220.573
-220.597
-220.619
-220.64
-220.659
-220.676
-220.691
-220.704
-220.714
-220.721
-220.725
-220.726
-220.723
-220.489
-220.842
-220.543
-220.529
-220.524
-220.527
-220.536
-220.552
-220.573
-220.597
-220.622
-220.647
-220.67
-220.692
-220.712
-220.73
-220.746
-220.761
-220.772
-220.78
-220.786
-220.789
-220.789
-220.786
-222.872
-220.635
-220.595
-220.58
-220.575
-220.58
-220.594
-220.615
-220.64
-220.667
-220.693
-220.718
-220.742
-220.764
-220.784
-220.802
-220.818
-220.831
-220.841
-220.849
-220.853
-220.856
-221.031
-222.993
-220.665
-220.608
-220.596
-220.596
-220.605
-220.623
-220.647
-220.675
-220.705
-220.734
-220.763
-220.789
-220.814
-220.837
-220.858
-220.876
-220.891
-220.903
-220.913
-220.92
-220.924
-221.386
-222.911
-220.628
-220.566
-220.574
-220.591
-220.612
-220.638
-220.669
-220.702
-220.736
-220.77
-220.802
-220.832
-220.861
-220.888
-220.912
-220.933
-220.951
-220.966
-220.978
-220.987
-220.995
-260.053
-221.724
-220.454
-220.489
-220.535
-220.573
-220.608
-220.643
-220.681
-220.721
-220.76
-220.799
-220.836
-220.871
-220.904
-220.936
-220.964
-220.989
-221.011
-221.029
-221.044
-221.055
-221.066
-572.086
-220.155
-220.381
-220.454
-220.509
-220.555
-220.598
-220.641
-220.685
-220.731
-220.776
-220.82
-220.863
-220.904
-220.943
-220.979
-221.013
-221.043
-221.069
-221.09
-221.109
-221.124
-221.137
-672.003
-220.393
-220.392
-220.449
-220.494
-220.536
-220.581
-220.629
-220.68
-220.731
-220.783
-220.833
-220.882
-220.929
-220.974
-221.017
-221.056
-221.092
-221.123
-221.149
-221.172
-221.191
-221.209
-694.99
-220.475
-220.379
-220.437
-220.47
-220.509
-220.555
-220.606
-220.662
-220.719
-220.777
-220.835
-220.89
-220.944
-220.996
-221.046
-221.091
-221.133
-221.17
-221.202
-221.231
-221.255
-221.278
-714.544
-220.467
-220.352
-220.403
-220.43
-220.466
-220.512
-220.567
-220.628
-220.692
-220.757
-220.822
-220.886
-220.948
-221.007
-221.064
-221.117
-221.165
-221.209
-221.248
-221.283
-221.314
-221.343
-735.758
-220.417
-220.304
-220.346
-220.369
-220.403
-220.45
-220.508
-220.574
-220.645
-220.719
-220.793
-220.866
-220.937
-221.005
-221.069
-221.131
-221.187
-221.239
-221.286
-221.329
-221.368
-221.404
-755.587
-220.335
-220.233
-220.267
-220.287
-220.318
-220.365
-220.426
-220.498
-220.577
-220.661
-220.746
-220.829
-220.911
-220.989
-221.063
-221.134
-221.2
-221.261
-221.316
-221.368
-221.415
-221.46
-774.373
-220.226
-220.139
-220.166
-220.181
-220.209
-220.255
-220.318
-220.397
-220.487
-220.584
-220.681
-220.779
-220.873
-220.963
-221.049
-221.129
-221.206
-221.276
-221.342
-221.402
-221.457
-221.511
-791.831
-220.092
-220.022
-220.043
-220.055
-220.078
-220.12
-220.185
-220.274
-220.378
-220.491
-220.605
-220.717
-220.826
-220.93
-221.028
-221.122
-221.209
-221.29
-221.365
-221.433
-221.497
-221.559
-808.122
-219.931
-219.883
-219.902
-219.911
-219.927
-219.964
-220.033
-220.134
-220.257
-220.391
-220.526
-220.655
-220.779
-220.897
-221.01
-221.119
-221.218
-221.306
-221.39
-221.466
-221.537
-221.607
-824.154
-219.726
-219.735
-219.756
-219.761
-219.765
-219.794
-219.867
-219.991
-220.139
-220.298
-220.455
-220.603
-220.741
-220.873
-221
-221.135
-221.247
-221.345
-221.422
-221.501
-221.577
-221.659
-561.868
-219.801
-219.665
-219.652
-219.638
-219.612
-219.636
-219.754
-219.907
-220.1
-220.269
-220.409
-220.571
-220.721
-220.864
-221.006
-221.149
-221.27
-221.381
-221.479
-221.552
-221.622
-221.698
-252.112
-220.316
-219.84
-219.651
-219.532
-219.461
-219.496
-219.587
-219.779
-220.03
-220.251
-220.4
-220.564
-220.709
-220.853
-220.993
-221.132
-221.272
-221.388
-221.49
-221.577
-221.646
-221.722
-579.786
-226.425
-219.754
-219.485
-219.319
-219.246
-219.275
-219.451
-219.704
-220.012
-220.236
-220.41
-220.559
-220.664
-220.782
-220.909
-221.026
-221.139
-221.249
-221.358
-221.438
-221.5
-221.564
-592.918
-246.704
-217.301
-218.465
-218.777
-218.935
-219.153
-219.271
-219.564
-219.931
-220.145
-220.309
-220.468
-220.721
-221.083
-221.403
-221.637
-221.854
-222.042
-222.166
-222.241
-222.304
-222.345
-425.505
-212.147
-210.774
-216.622
-219.263
-219.123
-218.366
-218.596
-219.361
-220.361
-220.857
-221.035
-221.283
-285.491
-491.774
-812.908
-1029.18
-1048.22
-1035.25
-1013.7
-968.212
-868.93
-711.861
-617.084
-130.433
-196.374
-213.391
-218.575
-220.207
-220.151
-239.843
-337.485
-578.852
-1243.04
-2601.33
-3855.97
-4357.67
-4567.21
-4735.26
-4859.62
-4909.16
-4910.63
-4901.15
-4872.98
-4811.97
-4704.15
-4032.36
-3112.23
-2401.21
-2017.7
-1735.33
-1860.56
-2223.68
-3007.14
-4108.28
-4913.62
-5250.81
-5389
-5438.38
-5443.25
-5444.7
-5445.05
-5445.71
-5446.29
-5443.9
-5435.15
-5421.57
-5407.34
-5410.2
-4924.97
-4982.85
-5114.23
-5107.78
-5138.9
-5211.4
-5278.45
-5334.2
-5368.68
-5440.51
-5483.86
-5495.51
-5498.1
-5499.47
-5497.95
-5495.48
-5495.64
-5497.13
-5492.43
-5472.75
-5437.81
-5387.74
-5391
-4591.8
-4891.06
-5071.64
-4892.22
-5136.91
-5173.28
-5138.62
-5004.93
-5149.69
-5206.9
-5125.51
-5053.64
-5061.55
-5076.01
-5104.53
-5120.75
-5101.59
-5040.61
-4968.27
-4933.78
-4883.54
-4743.12
-4729.23
-547.539
-370.795
-1208.28
-1033.63
-1525.44
-1806.72
-1818.34
-1010.98
-1292.43
-858.387
-648.834
-634.036
-648.337
-664.529
-718.342
-735.441
-681.284
-573.785
-523.057
-530.033
-486.969
-243.851
-348.855
-220.227
-220.245
-220.28
-220.276
-220.186
-220.169
-220.151
-220.123
-220.187
-220.172
-220.15
-220.123
-220.191
-220.176
-220.16
-220.14
-220.202
-220.189
-220.174
-220.158
-220.22
-220.207
-220.194
-220.179
-220.242
-220.231
-220.218
-220.205
-220.27
-220.259
-220.248
-220.235
-220.303
-220.293
-220.282
-220.27
-220.34
-220.331
-220.32
-220.31
-220.382
-220.374
-220.364
-220.354
-220.429
-220.421
-220.412
-220.403
-220.48
-220.473
-220.465
-220.457
-220.535
-220.53
-220.523
-220.516
-220.594
-220.59
-220.585
-220.579
-220.657
-220.654
-220.651
-220.647
-220.722
-220.722
-220.721
-220.719
-220.79
-220.792
-220.794
-220.795
-220.86
-220.865
-220.869
-220.873
-220.932
-220.939
-220.946
-220.953
-221.005
-221.014
-221.025
-221.035
-221.079
-221.091
-221.105
-221.119
-221.154
-221.169
-221.186
-221.204
-221.229
-221.248
-221.269
-221.29
-221.303
-221.326
-221.352
-221.377
-221.375
-221.403
-221.433
-221.463
-221.442
-221.474
-221.511
-221.545
-221.504
-221.542
-221.583
-221.623
-221.562
-221.605
-221.652
-221.697
-221.617
-221.664
-221.716
-221.765
-221.67
-221.72
-221.773
-221.825
-221.84
-221.905
-221.967
-221.955
-221.765
-221.929
-222.013
-222.073
-221.822
-221.882
-221.93
-221.975
-221.601
-221.656
-221.73
-221.808
-222.256
-222.18
-222.117
-222.052
-571.89
-486.667
-422.731
-370.254
-4598.82
-4521.37
-4441.42
-4322.66
-5418.79
-5420.58
-5419.14
-5418.47
-5404.49
-5409.03
-5416.23
-5427.18
-4719.49
-4684.72
-4676.23
-4698.2
-203.082
-187.973
-269.019
-296.041
-220.061
-219.957
-219.914
-219.887
-219.866
-219.845
-219.825
-219.802
-219.779
-219.755
-219.73
-219.707
-219.685
-219.666
-219.649
-219.636
-219.627
-219.623
-219.624
-220.058
-220.001
-219.953
-219.918
-219.889
-219.863
-219.838
-219.812
-219.786
-219.759
-219.732
-219.707
-219.683
-219.662
-219.644
-219.63
-219.62
-219.616
-219.617
-220.075
-220.028
-219.984
-219.946
-219.914
-219.883
-219.853
-219.824
-219.794
-219.764
-219.735
-219.707
-219.68
-219.657
-219.637
-219.622
-219.611
-219.607
-219.608
-220.103
-220.058
-220.014
-219.975
-219.939
-219.904
-219.87
-219.837
-219.803
-219.77
-219.738
-219.706
-219.678
-219.652
-219.63
-219.613
-219.601
-219.596
-219.598
-220.128
-220.086
-220.043
-220.003
-219.964
-219.926
-219.889
-219.852
-219.814
-219.777
-219.741
-219.707
-219.674
-219.646
-219.621
-219.602
-219.589
-219.584
-219.585
-220.153
-220.114
-220.073
-220.032
-219.991
-219.951
-219.91
-219.869
-219.827
-219.786
-219.746
-219.707
-219.671
-219.639
-219.611
-219.59
-219.576
-219.569
-219.57
-220.182
-220.144
-220.104
-220.063
-220.02
-219.977
-219.933
-219.888
-219.842
-219.796
-219.751
-219.708
-219.668
-219.631
-219.6
-219.576
-219.56
-219.552
-219.553
-220.214
-220.178
-220.138
-220.096
-220.052
-220.007
-219.959
-219.91
-219.86
-219.809
-219.759
-219.71
-219.664
-219.623
-219.587
-219.56
-219.541
-219.532
-219.533
-220.25
-220.215
-220.176
-220.134
-220.088
-220.04
-219.989
-219.936
-219.881
-219.824
-219.768
-219.713
-219.661
-219.614
-219.573
-219.541
-219.519
-219.509
-219.51
-220.29
-220.256
-220.218
-220.175
-220.128
-220.077
-220.023
-219.966
-219.905
-219.843
-219.779
-219.717
-219.658
-219.603
-219.557
-219.52
-219.495
-219.482
-219.483
-220.335
-220.303
-220.264
-220.221
-220.173
-220.12
-220.063
-220.001
-219.934
-219.865
-219.794
-219.723
-219.655
-219.592
-219.538
-219.495
-219.466
-219.451
-219.452
-220.386
-220.354
-220.316
-220.273
-220.224
-220.169
-220.109
-220.042
-219.97
-219.893
-219.813
-219.732
-219.653
-219.58
-219.517
-219.467
-219.433
-219.416
-219.417
-220.441
-220.411
-220.374
-220.331
-220.282
-220.225
-220.162
-220.091
-220.012
-219.927
-219.837
-219.744
-219.653
-219.567
-219.493
-219.434
-219.395
-219.375
-219.377
-220.501
-220.473
-220.438
-220.396
-220.347
-220.29
-220.224
-220.148
-220.063
-219.969
-219.867
-219.761
-219.655
-219.554
-219.466
-219.396
-219.351
-219.329
-219.333
-220.567
-220.541
-220.508
-220.468
-220.42
-220.363
-220.296
-220.217
-220.126
-220.022
-219.907
-219.785
-219.659
-219.539
-219.434
-219.352
-219.3
-219.278
-219.284
-220.638
-220.615
-220.585
-220.549
-220.503
-220.448
-220.38
-220.299
-220.202
-220.088
-219.959
-219.817
-219.668
-219.523
-219.395
-219.299
-219.242
-219.222
-219.232
-220.713
-220.694
-220.669
-220.637
-220.596
-220.543
-220.478
-220.396
-220.295
-220.172
-220.027
-219.861
-219.682
-219.505
-219.349
-219.238
-219.179
-219.166
-219.179
-220.792
-220.779
-220.759
-220.733
-220.698
-220.652
-220.591
-220.511
-220.408
-220.278
-220.116
-219.924
-219.708
-219.488
-219.298
-219.171
-219.116
-219.115
-219.132
-220.874
-220.868
-220.856
-220.838
-220.812
-220.774
-220.721
-220.647
-220.547
-220.412
-220.235
-220.015
-219.756
-219.485
-219.251
-219.105
-219.062
-219.078
-219.1
-220.96
-220.961
-220.958
-220.95
-220.935
-220.91
-220.869
-220.807
-220.716
-220.583
-220.399
-220.155
-219.851
-219.519
-219.227
-219.06
-219.035
-219.067
-219.097
-221.048
-221.057
-221.064
-221.068
-221.067
-221.058
-221.036
-220.993
-220.92
-220.803
-220.628
-220.378
-220.04
-219.637
-219.261
-219.064
-219.07
-219.11
-219.145
-221.137
-221.154
-221.172
-221.19
-221.206
-221.217
-221.219
-221.204
-221.164
-221.084
-220.949
-220.737
-220.409
-219.946
-219.488
-219.28
-219.27
-219.252
-219.243
-221.228
-221.253
-221.283
-221.315
-221.349
-221.383
-221.414
-221.439
-221.448
-221.434
-221.395
-221.316
-221.186
-221.012
-221.459
-221.576
-219.884
-219.487
-219.3
-221.319
-221.352
-221.393
-221.439
-221.492
-221.551
-221.617
-221.688
-221.763
-221.849
-221.979
-222.193
-222.451
-225.649
-230.702
-231.148
-224.275
-219.963
-219.229
-221.41
-221.451
-221.501
-221.561
-221.632
-221.716
-221.816
-221.936
-222.09
-222.298
-222.646
-223.269
-224.344
-231.151
-236.379
-236.721
-236.977
-226.829
-219.629
-221.501
-221.549
-221.609
-221.68
-221.767
-221.873
-222.004
-222.173
-222.392
-222.709
-223.245
-224.209
-225.65
-228.963
-233.233
-234.409
-239.604
-251.358
-225.587
-221.59
-221.646
-221.714
-221.796
-221.897
-222.019
-222.173
-222.373
-222.639
-223.02
-223.638
-224.707
-226.185
-227.535
-228.183
-227.696
-228.241
-246.852
-227.585
-221.675
-221.739
-221.815
-221.908
-222.019
-222.155
-222.324
-222.54
-222.825
-223.219
-223.814
-224.754
-226.002
-227.284
-227.948
-227.837
-227.142
-230.235
-211.686
-221.756
-221.827
-221.911
-222.012
-222.132
-222.276
-222.452
-222.674
-222.957
-223.331
-223.843
-224.57
-225.478
-226.432
-226.963
-226.935
-226.505
-229.383
-388.218
-221.83
-221.908
-221.999
-222.106
-222.232
-222.38
-222.556
-222.771
-223.037
-223.368
-223.784
-224.306
-224.912
-225.495
-225.821
-225.886
-226.365
-227.184
-2070.99
-221.896
-221.98
-222.077
-222.189
-222.317
-222.462
-222.631
-222.829
-223.063
-223.338
-223.653
-224
-224.349
-224.628
-224.731
-224.725
-225.031
-223.756
-3262.23
-221.959
-222.045
-222.144
-222.258
-222.384
-222.523
-222.677
-222.849
-223.039
-223.245
-223.454
-223.642
-223.775
-223.802
-223.685
-223.516
-223.47
-224.358
-3500.06
-222.156
-222.252
-222.298
-222.325
-222.439
-222.565
-222.699
-222.838
-222.978
-223.108
-223.205
-223.243
-223.178
-222.971
-222.626
-222.288
-222.026
-222.675
-3581.9
-222.166
-222.301
-222.418
-222.531
-222.615
-222.612
-222.706
-222.81
-222.898
-222.953
-222.945
-222.837
-222.585
-222.158
-221.6
-221.132
-221.464
-227.127
-3700.58
-221.946
-222.122
-222.33
-222.535
-222.645
-222.67
-222.68
-222.751
-222.801
-222.804
-222.716
-222.497
-222.11
-221.527
-220.85
-220.661
-224.16
-254.455
-4338.61
-221.999
-222.009
-222.115
-222.249
-222.373
-222.471
-222.548
-222.613
-222.647
-222.624
-222.505
-222.257
-221.776
-220.863
-219.697
-219.858
-232.371
-1288.23
-4540.96
-258.031
-222.971
-222.91
-222.993
-223.06
-223.066
-223.081
-223.1
-223.024
-222.789
-222.384
-221.784
-220.487
-218.85
-214.579
-209.547
-486.409
-3642.38
-3879.15
-4170.71
-3946.77
-3682.84
-3435.82
-3253.15
-3020.7
-2537.73
-1859.59
-1544.37
-1585.97
-1715.72
-1860.74
-1886.47
-1752.49
-1772.52
-2150.07
-3182.46
-3856.8
-2578.91
-5418.6
-5417.6
-5421.87
-5434.65
-5439.46
-5428.7
-5400.79
-5335.13
-5259.31
-5212.97
-5182.21
-5128.67
-5053.1
-4943.96
-4740.48
-4288.48
-3650.5
-2744.84
-1480.12
-5430.96
-5395.57
-5390.64
-5434.63
-5449.33
-5423.61
-5417.2
-5400.34
-5390.53
-5350.56
-5304.37
-5211.6
-5089.21
-4820.21
-4408.25
-3840.01
-3089.25
-2148
-985.184
-4695.49
-4606.62
-4577.27
-4655.85
-4683.93
-4635.12
-4678.24
-4697.33
-4781.98
-4824.47
-4925.81
-4894.2
-4834.91
-4532.98
-4189.42
-3833.43
-3094.85
-2099.08
-1012.36
-289.581
-96.2276
-79.2132
-264.134
-281.179
-125.03
-272.004
-128.912
-297.115
-132.54
-369.44
-167.241
-425.267
-38.2072
185.4
401.059
352.947
-103.749
-621.458
)
;

boundaryField
{
    leftWall
    {
        type            fixedFluxPressure;
        gradient        uniform 0;
        value           nonuniform List<scalar> 
50
(
-219.719
-219.715
-219.708
-219.697
-219.686
-219.675
-219.664
-219.655
-219.643
-219.637
-219.643
-219.671
-219.734
-219.842
-222.285
-229.612
-230.694
-231.59
-232.457
-233.316
-234.162
-231.663
-220.776
-219.991
-220.171
-220.489
-220.786
-221.031
-221.386
-260.053
-572.086
-672.003
-694.99
-714.544
-735.758
-755.587
-774.373
-791.831
-808.122
-824.154
-561.868
-252.112
-579.786
-592.918
-425.505
-617.084
-4032.36
-4924.97
-4591.8
-547.539
)
;
    }
    rightWall
    {
        type            fixedFluxPressure;
        gradient        uniform 0;
        value           nonuniform List<scalar> 
50
(
-219.636
-219.636
-219.636
-219.635
-219.634
-219.632
-219.63
-219.628
-219.624
-219.617
-219.608
-219.598
-219.585
-219.57
-219.553
-219.533
-219.51
-219.483
-219.452
-219.417
-219.377
-219.333
-219.284
-219.232
-219.179
-219.132
-219.1
-219.097
-219.145
-219.243
-219.3
-219.229
-219.629
-225.587
-227.585
-211.686
-388.218
-2070.99
-3262.23
-3500.06
-3581.9
-3700.58
-4338.61
-4540.96
-3879.15
-2578.91
-1480.12
-985.184
-1012.36
-621.458
)
;
    }
    lowerWall
    {
        type            fixedFluxPressure;
        gradient        uniform 0;
        value           nonuniform List<scalar> 
62
(
-219.719
-219.741
-219.765
-219.797
-219.831
-219.864
-219.896
-219.925
-219.953
-219.98
-220.006
-220.032
-220.06
-220.09
-220.124
-220.163
-220.208
-220.258
-220.305
-220.333
-220.33
-220.298
-220.269
-220.269
-220.263
-220.267
-220.274
-220.278
-220.274
-220.266
-220.257
-220.227
-220.245
-220.28
-220.276
-219.826
-219.827
-219.827
-219.825
-219.826
-219.834
-219.854
-219.896
-219.826
-219.832
-219.828
-219.827
-219.822
-219.812
-219.798
-219.78
-219.759
-219.737
-219.716
-219.695
-219.677
-219.662
-219.65
-219.642
-219.638
-219.637
-219.636
)
;
    }
    atmosphere
    {
        type            totalPressure;
        rho             rho;
        psi             none;
        gamma           1;
        p0              uniform 0;
        value           nonuniform List<scalar> 
46
(
0
-12.4159
0
-30.0426
0
-0.0625725
0
-37.2362
-0.0419993
-0.0078909
-0.00358318
-0.00384492
-0.00436863
-0.00397399
-0.00159325
-0.000389706
-0.000323969
-0.00132155
-0.00396426
-0.00781393
0
-4.84779
0
-1.98382
-3.52725
0
0
0
-0.959011
-0.832712
0
0
-0.924312
0
-0.745945
0
-0.311207
0
-0.00420758
0
0
0
0
0
0
0
)
;
    }
    defaultFaces
    {
        type            empty;
    }
}


// ************************************************************************* //
