/*--------------------------------*- C++ -*----------------------------------*\
  =========                 |
  \\      /  F ield         | OpenFOAM: The Open Source CFD Toolbox
   \\    /   O peration     | Website:  https://openfoam.org
    \\  /    A nd           | Version:  9
     \\/     M anipulation  |
\*---------------------------------------------------------------------------*/
FoamFile
{
    format      ascii;
    class       volScalarField;
    location    "0.5";
    object      p_rgh;
}
// * * * * * * * * * * * * * * * * * * * * * * * * * * * * * * * * * * * * * //

dimensions      [1 -1 -2 0 0 0 0];

internalField   nonuniform List<scalar> 
2268
(
634.427
633.29
639.47
649.771
661.481
673.281
685.051
696.984
709.328
722.287
736.022
750.684
766.439
783.531
802.405
823.578
847.55
874.298
902.744
929.474
947.475
949.517
973.047
634.188
631.949
636.86
646.098
657.003
668.397
680.047
692.045
704.565
717.781
731.857
746.965
763.304
781.149
800.906
823.242
848.659
877.377
908.19
936.808
956.187
945.852
971.699
633.085
630.9
635.302
643.109
652.838
663.488
674.756
686.624
699.192
712.599
727.009
742.612
759.636
778.386
799.277
822.887
849.709
879.729
911.587
940.676
960.727
949.438
974.118
632.01
630.261
634.437
641.135
649.768
659.601
670.336
681.915
694.391
707.873
722.523
738.541
756.161
775.692
797.511
822.058
849.692
880.152
911.977
940.752
961.256
961.452
982.544
631.288
630.535
634.1
639.856
647.523
656.553
666.697
677.898
690.191
703.661
718.464
734.802
752.902
773.053
795.575
820.764
848.794
879.209
910.572
938.944
960.032
967.243
993.702
630.905
631.177
633.981
638.857
645.641
653.879
663.399
674.179
686.246
699.655
714.56
731.16
749.664
770.332
793.428
819.104
847.353
877.554
908.363
936.338
957.743
971.708
1004.02
630.723
631.715
633.713
637.732
643.679
651.129
660.016
670.373
682.222
695.574
710.578
727.432
746.314
767.454
791.066
817.169
845.59
875.545
905.811
933.308
954.416
973.599
1008.79
630.599
631.511
632.457
635.621
640.859
647.659
656.014
666.036
677.759
691.13
706.3
723.474
742.783
764.408
788.512
814.992
843.545
873.269
903.029
929.889
949.87
968.532
1002.29
382.565
382.469
382.343
382.136
381.822
381.427
381.015
380.646
380.369
380.224
380.224
380.372
380.715
381.299
382.129
383.194
384.524
385.898
386.611
382.577
382.488
382.379
382.174
381.846
381.436
381.018
380.646
380.362
380.208
380.201
380.336
380.653
381.21
382.014
383.043
384.314
385.741
386.597
382.609
382.519
382.403
382.178
381.829
381.416
381.006
380.639
380.35
380.187
380.173
380.287
380.567
381.089
381.869
382.861
384.021
385.455
386.599
382.653
382.548
382.406
382.151
381.787
381.377
380.977
380.611
380.312
380.139
380.118
380.21
380.448
380.932
381.684
382.647
383.653
384.936
386.626
382.699
382.572
382.401
382.119
381.743
381.334
380.935
380.566
380.253
380.067
380.043
380.112
380.308
380.755
381.469
382.412
383.26
384.093
386.83
382.746
382.592
382.396
382.093
381.706
381.294
380.892
380.515
380.185
379.988
379.964
380.011
380.162
380.578
381.263
382.218
382.98
382.831
387.498
382.799
382.615
382.395
382.077
381.68
381.263
380.853
380.467
380.12
379.92
379.902
379.919
380.023
380.466
381.244
382.368
383.152
381.275
388.561
382.866
382.653
382.41
382.079
381.67
381.245
380.827
380.43
380.058
379.844
379.862
379.88
379.992
380.759
382.237
384.119
384.813
380.673
389.631
620.739
608.668
601.257
606.486
617.249
629.823
642.774
656.155
669.834
683.563
698.913
716.555
736.568
759.09
784.132
811.23
839.885
869.202
898.343
924.434
942.535
950.127
943.797
234.343
200.526
185.127
198.767
225.393
258.861
297.749
344.243
400.521
462.96
523.449
587.206
652.362
715.378
768.798
806.232
835.697
864
893.578
922.616
945.017
959.609
974.82
0.62698
0.873044
0.938791
0.912972
0.896914
0.892575
0.889521
0.887014
0.904579
6.42923
30.3462
66.7001
119.57
204.172
353.919
567.289
788.338
863.811
892.423
925.974
952.954
976.023
1000.74
0.841515
0.840796
0.859714
0.872008
0.881867
0.889796
0.895048
0.898596
0.903233
0.912177
0.913313
0.921453
0.927075
0.922872
0.923304
14.0464
82.9622
247.555
567.326
943.915
971.105
992.696
1015.89
0.79777
0.811928
0.830035
0.844913
0.85404
0.860431
0.865772
0.871032
0.877223
0.88548
0.890487
0.892431
0.893987
0.899267
0.914117
0.916896
0.814064
0.600249
17.8321
157.983
455.428
778.492
1024.42
0.803905
0.807187
0.815443
0.824516
0.831305
0.836761
0.841808
0.847035
0.853025
0.859545
0.86464
0.868521
0.871999
0.876055
0.880775
0.881332
0.879733
0.868896
0.784934
0.580192
1.27947
48.5074
180.982
0.792753
0.795475
0.800403
0.806409
0.811814
0.816728
0.821502
0.826425
0.831717
0.837132
0.842077
0.846546
0.850384
0.853282
0.854247
0.849915
0.839299
0.836582
0.861902
0.866958
0.832304
0.686992
0.519283
0.780043
0.781669
0.784837
0.789086
0.793436
0.797773
0.802204
0.806838
0.811726
0.81671
0.821516
0.825962
0.829781
0.832573
0.83354
0.830735
0.823085
0.815081
0.810435
0.80137
0.814192
0.872767
0.882189
0.765824
0.766933
0.768898
0.771866
0.775329
0.77912
0.783215
0.787614
0.792289
0.797114
0.801889
0.806413
0.810435
0.813617
0.815435
0.815003
0.811847
0.807046
0.801392
0.793237
0.789217
0.791784
0.777528
0.750584
0.751216
0.752322
0.754418
0.757232
0.760591
0.764408
0.768629
0.773187
0.777973
0.782831
0.787583
0.792006
0.795826
0.798697
0.800218
0.800269
0.799326
0.797809
0.795242
0.793309
0.792725
0.789948
0.734791
0.734917
0.73536
0.736827
0.739169
0.742198
0.745801
0.749896
0.754406
0.759232
0.76425
0.769309
0.774227
0.778791
0.782775
0.785976
0.788384
0.79029
0.792021
0.793633
0.795964
0.7994
0.803454
0.718583
0.718275
0.718207
0.719217
0.721209
0.723988
0.727428
0.731441
0.735947
0.740862
0.746082
0.751485
0.756927
0.76225
0.767305
0.771989
0.776318
0.780474
0.784706
0.789273
0.794784
0.801524
0.809581
0.702034
0.701392
0.700964
0.701646
0.703375
0.705962
0.709283
0.713246
0.717778
0.722806
0.728247
0.734002
0.73996
0.746001
0.752028
0.757987
0.763912
0.769932
0.776253
0.783164
0.791142
0.800434
0.811419
0.685132
0.684283
0.683637
0.684097
0.68563
0.688072
0.691305
0.695246
0.699823
0.704975
0.710634
0.716727
0.723164
0.729855
0.736727
0.743757
0.750984
0.758519
0.766545
0.775345
0.785316
0.796665
0.80984
0.667839
0.666912
0.666174
0.666501
0.667896
0.67023
0.673402
0.677337
0.681971
0.687248
0.693113
0.699509
0.706367
0.713614
0.721196
0.729099
0.737365
0.746096
0.755461
0.765725
0.777239
0.790162
0.804896
0.650113
0.649213
0.648489
0.64876
0.65007
0.652331
0.655465
0.659405
0.664096
0.669488
0.675536
0.682191
0.689397
0.697098
0.705247
0.713837
0.722908
0.732551
0.742926
0.754279
0.766925
0.780978
0.796758
0.631912
0.631118
0.630486
0.630765
0.632039
0.634261
0.637375
0.641328
0.64607
0.65156
0.657757
0.664621
0.672102
0.680149
0.688727
0.69783
0.707493
0.717801
0.728901
0.741024
0.754451
0.769256
0.785669
0.613204
0.612562
0.612074
0.612409
0.613687
0.615898
0.619009
0.622978
0.627763
0.633328
0.639638
0.646655
0.654334
0.66263
0.671508
0.680965
0.691034
0.701791
0.713374
0.725998
0.739918
0.755171
0.771898
0.593966
0.593491
0.593172
0.593594
0.594905
0.597129
0.600248
0.604234
0.609051
0.614668
0.621052
0.628168
0.635972
0.644421
0.653484
0.663156
0.673464
0.684484
0.696347
0.709255
0.723439
0.738903
0.755712
0.574182
0.573867
0.573718
0.574241
0.575604
0.577855
0.580991
0.584991
0.589828
0.595473
0.601894
0.609056
0.616916
0.625431
0.634573
0.644334
0.654742
0.66587
0.677847
0.690868
0.705144
0.72065
0.737387
0.553842
0.553665
0.553672
0.554295
0.555717
0.558002
0.561157
0.565167
0.570011
0.575658
0.58208
0.58924
0.597093
0.605597
0.614725
0.624471
0.634863
0.645977
0.657944
0.670954
0.685204
0.700644
0.71722
0.532937
0.53287
0.533009
0.533721
0.535202
0.537521
0.540692
0.544704
0.549538
0.555163
0.561552
0.568664
0.576456
0.584886
0.593925
0.60357
0.613857
0.624869
0.636741
0.649663
0.663823
0.679149
0.695543
0.511461
0.511472
0.511717
0.512503
0.514035
0.516384
0.519564
0.523567
0.528372
0.533952
0.540274
0.547298
0.554981
0.563281
0.572172
0.581653
0.591772
0.602623
0.614352
0.627153
0.641206
0.656423
0.672677
0.48941
0.489471
0.489793
0.490635
0.492208
0.494578
0.497756
0.501737
0.506495
0.512002
0.518226
0.525126
0.532659
0.540785
0.549479
0.558751
0.568659
0.579314
0.590878
0.603554
0.617519
0.632677
0.648882
0.466782
0.46687
0.467242
0.46812
0.46972
0.472099
0.475265
0.479206
0.483896
0.489308
0.495406
0.50215
0.509498
0.517412
0.525871
0.534898
0.544566
0.555004
0.566394
0.578955
0.592868
0.608036
0.624309
0.443579
0.443678
0.444073
0.444966
0.446576
0.448951
0.452089
0.455974
0.460579
0.465874
0.471821
0.478382
0.485514
0.493181
0.501374
0.510127
0.519533
0.52974
0.540952
0.553406
0.567297
0.582532
0.598974
0.419805
0.419906
0.420298
0.421184
0.422788
0.425143
0.428239
0.432051
0.436551
0.441708
0.447482
0.453834
0.460723
0.468117
0.476017
0.484474
0.493597
0.503559
0.514582
0.526929
0.540806
0.556136
0.572803
0.39547
0.395563
0.395931
0.396787
0.398368
0.400688
0.403724
0.407446
0.411824
0.416822
0.422403
0.428525
0.435146
0.442244
0.449831
0.45797
0.466791
0.476485
0.487301
0.49952
0.513364
0.528773
0.545665
0.370582
0.37066
0.370986
0.371795
0.373337
0.375604
0.378562
0.382175
0.386412
0.391234
0.396601
0.402471
0.408806
0.415589
0.422841
0.430641
0.439135
0.448536
0.459112
0.471162
0.484923
0.500353
0.517408
0.345158
0.345213
0.345484
0.346232
0.347718
0.349915
0.352775
0.356261
0.360335
0.36496
0.370093
0.375692
0.381722
0.38817
0.395067
0.402504
0.410644
0.419718
0.430011
0.441834
0.455432
0.470786
0.487881
0.319221
0.319243
0.319453
0.320126
0.32154
0.323647
0.32639
0.329726
0.333616
0.338022
0.342899
0.348206
0.353911
0.360005
0.366526
0.373573
0.381326
0.390033
0.399991
0.411512
0.424847
0.439994
0.456965
0.292805
0.29278
0.292921
0.293507
0.29483
0.296827
0.299431
0.302595
0.306279
0.310441
0.315039
0.320033
0.325393
0.331113
0.337233
0.343863
0.351193
0.359485
0.369043
0.380176
0.393133
0.407926
0.424584
0.265937
0.265847
0.265917
0.2664
0.267615
0.269483
0.271926
0.274895
0.278349
0.282245
0.286541
0.2912
0.296193
0.301516
0.307213
0.313396
0.320262
0.328083
0.337166
0.347816
0.360272
0.374555
0.390709
0.238662
0.238456
0.238462
0.238829
0.23992
0.241641
0.243903
0.246657
0.249858
0.253464
0.257435
0.261737
0.266343
0.27125
0.276499
0.282203
0.288562
0.295849
0.304376
0.31444
0.326266
0.339878
0.35533
0.211075
0.210595
0.210575
0.210817
0.211771
0.21333
0.215395
0.217913
0.220839
0.224134
0.22776
0.231685
0.235885
0.240355
0.245135
0.250332
0.256139
0.262829
0.270711
0.280078
0.291137
0.30391
0.318457
0.183292
0.182204
0.182248
0.182373
0.183188
0.184578
0.186434
0.188699
0.191333
0.194297
0.19756
0.201092
0.204869
0.208885
0.213176
0.217839
0.223056
0.229086
0.236234
0.244784
0.254927
0.266681
0.280111
0.155346
0.153153
0.153402
0.15346
0.154161
0.155395
0.157039
0.15904
0.161366
0.163984
0.166869
0.169992
0.173331
0.176879
0.180665
0.184775
0.189371
0.19469
0.201016
0.208623
0.21769
0.228238
0.24033
0.127246
0.123328
0.123889
0.123998
0.124647
0.12575
0.127187
0.128918
0.130923
0.133184
0.135678
0.13838
0.141269
0.144337
0.147608
0.151154
0.155109
0.159674
0.165102
0.171645
0.179477
0.188621
0.199141
0.0990354
0.0928545
0.0937345
0.0941061
0.0947689
0.0957504
0.0969761
0.0984273
0.100104
0.101997
0.104091
0.106365
0.108797
0.111381
0.114134
0.11711
0.120411
0.124195
0.128669
0.134048
0.140489
0.14802
0.156682
0.07046
0.0616547
0.0631258
0.0644063
0.0652109
0.0660383
0.0670267
0.0681881
0.0695312
0.0710558
0.0727499
0.074595
0.0765752
0.0786839
0.0809307
0.0833486
0.0860051
0.0890099
0.0925073
0.0966537
0.101575
0.1073
0.113794
0.0424107
0.0270053
0.0307489
0.0345634
0.0358242
0.0365017
0.0372402
0.0381095
0.0391208
0.040278
0.0415736
0.0429958
0.0445347
0.0461843
0.0479448
0.0498295
0.0518704
0.0541204
0.0566477
0.0595321
0.0628485
0.0666367
0.0710089
0.0205427
-0.0164237
-0.00724337
-0.00108683
0.000374735
0.000965474
0.00148523
0.00204927
0.00269359
0.00343103
0.00426238
0.00518455
0.00619378
0.00728603
0.00845777
0.0097069
0.0110306
0.012423
0.0138743
0.0153741
0.0169145
0.0184889
0.0201824
892.504
903.499
913.273
732.81
980.295
985.013
986.432
991.732
1015.88
1023.58
1030.24
1039.54
1031.59
1044.07
1057.71
1071.43
1062.85
1069.33
1080.36
1094.45
323.958
440.42
581.274
740.467
0.379117
0.185253
4.20863
17.6923
0.87584
0.85174
0.798916
0.723147
0.758879
0.763773
0.798832
0.849051
0.790129
0.791585
0.796383
0.806666
0.808653
0.813138
0.819222
0.82612
0.817573
0.824293
0.832786
0.841772
0.8217
0.829967
0.839917
0.850302
0.821697
0.83095
0.841796
0.852947
0.817733
0.827512
0.838794
0.850297
0.810133
0.820092
0.831432
0.842945
0.799256
0.809177
0.820345
0.831647
0.785493
0.795277
0.806181
0.817177
0.76921
0.778839
0.789487
0.800174
0.750735
0.76023
0.770678
0.781113
0.730403
0.739796
0.750113
0.760383
0.708582
0.717914
0.728167
0.738363
0.685641
0.694968
0.705221
0.715421
0.66188
0.671273
0.681593
0.691868
0.637477
0.64702
0.657478
0.667891
0.612453
0.622231
0.632904
0.643517
0.58666
0.596727
0.607665
0.618506
0.559915
0.570272
0.581469
0.592523
0.531995
0.542585
0.553972
0.565162
0.502672
0.513375
0.524821
0.536017
0.471772
0.482431
0.493763
0.504798
0.439198
0.449646
0.46068
0.471383
0.404918
0.414996
0.425564
0.435779
0.368932
0.378508
0.388474
0.398076
0.331264
0.34023
0.349489
0.358377
0.291938
0.300195
0.308659
0.316755
0.250987
0.258427
0.266011
0.273243
0.208441
0.214942
0.22154
0.227817
0.164326
0.169711
0.175182
0.180423
0.119269
0.12325
0.127457
0.131703
0.0750652
0.0778457
0.0806882
0.0835137
0.0219748
0.0232147
0.0245843
0.0260964
383.021
382.667
382.476
382.125
381.691
381.252
380.819
380.406
379.985
379.652
379.866
380.454
384.76
399.215
416.045
416.655
397.552
384.708
394.203
561.972
381.813
382.248
381.935
381.718
381.378
380.965
380.541
380.186
399.99
492.301
628.331
743.384
826.835
866.141
853.167
714.022
493.449
455.466
1019.15
775.836
552.553
394.212
381.368
381.05
380.59
379.931
500.772
848.832
1061.19
1114.98
1135.85
1149.34
1164.62
1180.94
1192.09
1062.98
801.179
1093.99
1135.32
1128.2
1026.42
791.189
669.834
692.577
833.198
1067.64
1179.83
1195.17
1212.17
1232.42
1256.45
1281.91
1311.54
1352.16
1438.38
1190.39
1118.93
1149.8
1176.45
1200.07
1217.06
1212.05
1219.28
1230.58
1230.66
1235.86
1254.36
1285.51
1319.65
1360.69
1394.53
1426.97
1472.48
1580.52
1290.78
979.881
1171.11
1196.21
1203.51
1212.73
1220.58
1224.44
1231.51
1242.9
1245.96
1229.91
1253.65
1332.59
1437.88
1508.29
1535.23
1557.65
1640.95
1203.22
98.5461
289.943
476.977
595.035
670.441
712.951
712.932
689.838
619.915
506.96
416.192
402.545
455.695
713.944
1265.39
1607.22
1614.03
1648.31
1058.64
0.600164
0.646922
0.740863
2.0406
6.1339
11.4137
12.3742
11.2167
7.61124
5.02999
4.7366
7.18775
20.4881
109.687
579.532
1528.82
1651.54
1597.51
783.514
0.903509
0.920047
0.921045
0.891385
0.846652
0.888939
1.1099
1.49538
1.97644
2.47993
3.11461
4.29111
8.46238
25.2132
515.536
1531.07
1701.56
1280.08
464.497
0.8341
0.854454
0.877502
0.919665
1.00468
1.139
1.31554
1.54815
1.84666
2.23547
2.73488
3.26844
4.1834
9.14848
504.161
1618.27
1752.67
741.266
190.243
0.838755
0.861589
0.895063
0.947272
1.03034
1.14996
1.3065
1.50684
1.75514
2.05269
2.37883
2.61618
2.8582
4.35632
445.993
1636.04
1605.41
358.764
171.348
0.857767
0.886658
0.927446
0.984502
1.06382
1.17081
1.30804
1.47595
1.66924
1.86952
2.03676
2.11609
2.29617
2.54701
337.503
1544.39
1542.09
215.952
170.669
0.868691
0.901329
0.945718
1.00488
1.08177
1.1788
1.2956
1.42811
1.56927
1.69264
1.75823
1.73921
1.83925
1.50453
180.276
1389.18
1622.68
289.054
170.385
0.872305
0.906075
0.950902
1.00864
1.0803
1.16597
1.26311
1.3657
1.46344
1.53587
1.54858
1.4753
1.4376
0.895757
68.9024
1229.7
1707.85
572.539
166.709
0.869983
0.903531
0.946963
1.00123
1.06608
1.14025
1.22003
1.29876
1.3664
1.40741
1.39796
1.31908
1.22281
0.92122
10.1116
972.501
1784.84
871.762
161.394
0.862523
0.895066
0.936118
0.986059
1.04394
1.10781
1.17363
1.2352
1.28438
1.31061
1.29929
1.23667
1.14748
1.0167
0.733779
600.062
1860.21
992.474
158.198
0.850802
0.881876
0.920119
0.965604
1.01711
1.07251
1.12811
1.17882
1.21897
1.24243
1.24097
1.20442
1.14231
1.09322
0.643116
235.443
1819.66
927.184
163.137
0.835731
0.865152
0.900574
0.941956
0.988098
1.03709
1.08592
1.13097
1.16906
1.19776
1.21254
1.20518
1.16498
1.10683
0.855055
20.085
1560.34
891.922
181.031
0.818079
0.845893
0.878776
0.916718
0.958741
1.00329
1.04821
1.09137
1.13175
1.16919
1.20374
1.23003
1.2261
1.17235
1.06559
1.01859
1399.28
1332.43
286.111
0.798439
0.824862
0.855685
0.891024
0.930121
0.971983
1.01521
1.05871
1.10283
1.14932
1.20027
1.25657
1.29051
1.23667
1.11018
1.07656
1071.53
1462.4
553.233
0.777279
0.802652
0.832016
0.865632
0.903039
0.943668
0.9866
1.03134
1.07853
1.13025
1.19012
1.2639
1.31926
1.51509
1.07841
0.828401
391.716
1514.11
667.925
0.755014
0.779758
0.808338
0.841161
0.878034
0.918601
0.962186
1.00933
1.05606
1.10725
1.16776
1.21653
1.6601
2.02095
1.14026
0.596378
-0.31765
1355.28
717.426
0.732015
0.756591
0.785088
0.818019
0.855456
0.897201
0.94206
0.991252
1.03478
1.07777
1.13625
1.13173
1.34138
1.34056
1.48582
0.670804
2.15615
938.78
992.309
0.708576
0.733435
0.762507
0.796463
0.835544
0.879702
0.926682
0.976818
1.01805
1.04933
1.05609
0.993157
0.903765
0.814263
1.76778
2.76364
8.12532
226.361
1038.63
0.684853
0.710391
0.740632
0.77646
0.818141
0.86567
0.916935
0.968079
1.03841
1.11929
1.03198
0.966572
0.790127
0.605693
3.45956
37.9136
39.3583
206.853
1008.58
0.660812
0.687303
0.719126
0.757399
0.802412
0.854071
0.911285
0.968628
1.20907
1.257
1.15717
1.17841
0.90977
0.919077
76.0401
435.875
254.667
136.408
170.915
0.636193
0.663746
0.697262
0.73811
0.786752
0.843119
0.931843
0.976432
1.22355
1.30328
1.33232
1.31142
1.11755
1.66433
213.595
640.084
665.242
166.226
139.511
0.610549
0.639038
0.673999
0.716986
0.768806
0.829349
0.993751
0.99989
1.11036
1.27487
1.40973
1.44305
1.26896
1.56327
136.978
688.893
738.521
370.736
140.528
0.583362
0.612413
0.648167
0.692286
0.74579
0.808336
0.977209
1.00554
1.11411
1.21829
1.33763
1.41726
1.49339
1.6452
2.7811
632.165
762.689
482.589
146.623
0.554139
0.583185
0.618739
0.662343
0.714727
0.774531
0.872204
0.989773
1.11493
1.25152
1.36079
1.48147
1.6593
1.8872
2.6339
673.856
799.419
419.551
157.198
0.522552
0.550967
0.585254
0.626533
0.674767
0.727125
0.78088
1.9354
3.58363
3.58114
1.87872
1.47161
1.73757
2.01697
208.617
875.748
831.62
195.633
157.83
0.4885
0.515756
0.547996
0.585835
0.628751
0.674179
0.719289
1.65866
3.93787
4.10076
4.23275
1.76115
1.92424
4.4253
748.142
910.012
923.894
182.351
148.855
0.452038
0.477745
0.507482
0.541409
0.578728
0.617307
0.653559
0.680774
3.90619
3.9925
4.05011
1.48148
1.83462
430.112
922.699
928.423
942.433
289.782
134.74
0.413301
0.437178
0.464187
0.494113
0.525821
0.5571
0.584588
0.603865
1.44427
3.86317
3.06997
0.731186
0.398808
541.214
949.311
948.017
951.43
396.403
111.123
0.372431
0.394268
0.418486
0.444621
0.471313
0.496356
0.517592
0.525934
0.506558
1.5714
1.14538
0.49335
-0.147084
83.5404
867.106
976.598
939.765
275.57
83.239
0.329534
0.349169
0.37061
0.393273
0.415758
0.436031
0.450801
0.453014
0.431252
0.36863
0.31485
0.257264
-0.100666
-0.128362
72.813
249.749
189.619
144.348
83.2753
0.284641
0.301927
0.320615
0.340105
0.359126
0.375769
0.386479
0.38611
0.362883
0.305148
0.211786
0.107854
-0.0317019
-0.126416
-0.143967
-0.524726
9.32854
5.87277
92.7506
0.237704
0.252504
0.268415
0.28493
0.300968
0.314936
0.32394
0.322659
0.302039
0.252477
0.169203
0.0544467
-0.092509
-0.253635
-0.487817
-0.68454
0.42034
0.274307
105.332
0.188805
0.201095
0.21418
0.227744
0.240994
0.252762
0.260846
0.260864
0.245897
0.207536
0.139396
0.0379533
-0.0998545
-0.259545
-0.442675
-0.606769
-0.90399
1.30615
92.9625
0.138832
0.148724
0.159004
0.169611
0.180116
0.189769
0.197007
0.198594
0.189433
0.163082
0.113146
0.0332229
-0.0847773
-0.238601
-0.396176
-0.522632
-0.704352
2.54566
69.2589
0.0881983
0.0953987
0.102861
0.110489
0.118192
0.125637
0.131792
0.134455
0.13
0.113994
0.0813473
0.025393
-0.0669459
-0.218799
-0.381465
-0.456297
-0.537908
1.58641
67.2798
0.0287377
0.032893
0.0368371
0.040588
0.044306
0.0480367
0.0515349
0.0540515
0.0541459
0.0491306
0.0335024
-0.00407188
-0.0882106
-0.288384
-0.347321
-0.352467
-0.500309
-1.58644
35.8851
)
;

boundaryField
{
    leftWall
    {
        type            fixedFluxPressure;
        gradient        uniform 0;
        value           nonuniform List<scalar> 
50
(
634.427
634.188
633.085
632.01
631.288
630.905
630.723
630.599
620.739
234.343
0.62698
0.841515
0.79777
0.803905
0.792753
0.780043
0.765824
0.750584
0.734791
0.718583
0.702034
0.685132
0.667839
0.650113
0.631912
0.613204
0.593966
0.574182
0.553842
0.532937
0.511461
0.48941
0.466782
0.443579
0.419805
0.39547
0.370582
0.345158
0.319221
0.292805
0.265937
0.238662
0.211075
0.183292
0.155346
0.127246
0.0990354
0.07046
0.0424107
0.0205427
)
;
    }
    rightWall
    {
        type            fixedFluxPressure;
        gradient        uniform 0;
        value           nonuniform List<scalar> 
50
(
386.611
386.597
386.599
386.626
386.83
387.498
388.561
389.631
394.203
455.466
801.179
1190.39
1290.78
1203.22
1058.64
783.514
464.497
190.243
171.348
170.669
170.385
166.709
161.394
158.198
163.137
181.031
286.111
553.233
667.925
717.426
992.309
1038.63
1008.58
170.915
139.511
140.528
146.623
157.198
157.83
148.855
134.74
111.123
83.239
83.2753
92.7506
105.332
92.9625
69.2589
67.2798
35.8851
)
;
    }
    lowerWall
    {
        type            fixedFluxPressure;
        gradient        uniform 0;
        value           nonuniform List<scalar> 
62
(
634.427
633.29
639.47
649.771
661.481
673.281
685.051
696.984
709.328
722.287
736.022
750.684
766.439
783.531
802.405
823.578
847.55
874.298
902.744
929.474
947.475
949.517
973.047
973.047
971.699
974.118
982.544
993.702
1004.02
1008.79
1002.29
892.504
903.499
913.273
732.81
382.565
382.577
382.609
382.653
382.699
382.746
382.799
382.866
382.565
382.469
382.343
382.136
381.822
381.427
381.015
380.646
380.369
380.224
380.224
380.372
380.715
381.299
382.129
383.194
384.524
385.898
386.611
)
;
    }
    atmosphere
    {
        type            totalPressure;
        rho             rho;
        psi             none;
        gamma           1;
        p0              uniform 0;
        value           nonuniform List<scalar> 
46
(
-0.00366918
-0.0233444
-0.0237826
-0.0231193
-0.0225911
-0.022158
-0.0217568
-0.0213443
-0.0208969
-0.0204028
-0.0198554
-0.0192502
-0.0185835
-0.0178534
-0.017061
-0.016213
-0.0153245
-0.0144239
-0.0135576
-0.0127964
-0.0122383
-0.0119988
-0.012172
-0.0125067
-0.012407
-0.0118155
-0.0107687
-0.00871671
-0.00679204
-0.00577659
-0.00543256
-0.00566044
-0.00652547
-0.00821393
-0.0109386
-0.0149207
-0.0205327
-0.0282749
-0.0370303
-0.0365139
-0.00915351
0
0
0
0
0
)
;
    }
    defaultFaces
    {
        type            empty;
    }
}


// ************************************************************************* //
