/*--------------------------------*- C++ -*----------------------------------*\
  =========                 |
  \\      /  F ield         | OpenFOAM: The Open Source CFD Toolbox
   \\    /   O peration     | Website:  https://openfoam.org
    \\  /    A nd           | Version:  9
     \\/     M anipulation  |
\*---------------------------------------------------------------------------*/
FoamFile
{
    format      ascii;
    class       surfaceScalarField;
    location    "0.5";
    object      phi;
}
// * * * * * * * * * * * * * * * * * * * * * * * * * * * * * * * * * * * * * //

dimensions      [0 3 -1 0 0 0 0];

internalField   nonuniform List<scalar> 
4432
(
-5.15993e-06
5.15993e-06
-6.95026e-06
1.79033e-06
-5.31264e-06
-1.63762e-06
-2.31108e-06
-3.00156e-06
1.02466e-06
-3.33574e-06
4.31215e-06
-3.28749e-06
7.40465e-06
-3.09248e-06
1.02654e-05
-2.86075e-06
1.28916e-05
-2.62624e-06
1.52825e-05
-2.39092e-06
1.74263e-05
-2.14378e-06
1.92911e-05
-1.86473e-06
2.08128e-05
-1.52178e-06
2.1876e-05
-1.06316e-06
2.22468e-05
-3.70789e-07
2.1525e-05
7.21823e-07
1.93014e-05
2.22357e-06
1.51773e-05
4.12405e-06
8.97979e-06
6.19753e-06
1.00641e-06
7.97338e-06
-7.26968e-06
8.27608e-06
-1.09951e-05
3.72541e-06
-1.09951e-05
-3.74433e-06
8.90426e-06
-3.41437e-06
1.46036e-06
-1.38461e-06
-3.66739e-06
1.39146e-06
-5.77763e-06
4.4177e-06
-6.36196e-06
7.39972e-06
-6.26953e-06
1.02169e-05
-5.90964e-06
1.28271e-05
-5.47094e-06
1.52181e-05
-5.01727e-06
1.73819e-05
-4.55475e-06
1.93018e-05
-4.06363e-06
2.09436e-05
-3.50654e-06
2.22485e-05
-2.82668e-06
2.31251e-05
-1.9398e-06
2.34611e-05
-7.0671e-07
2.31149e-05
1.06795e-06
2.17901e-05
3.5484e-06
1.90923e-05
6.82192e-06
1.45907e-05
1.06991e-05
8.15809e-06
1.44059e-05
6.85772e-07
1.57484e-05
-3.6474e-06
8.05859e-06
-1.46425e-05
-1.76963e-06
1.06739e-05
-6.01858e-07
2.92587e-07
1.50533e-06
-5.77458e-06
4.11818e-06
-8.39048e-06
6.86983e-06
-9.1136e-06
9.55641e-06
-8.95611e-06
1.20905e-05
-8.44377e-06
1.44398e-05
-7.82017e-06
1.6591e-05
-7.16846e-06
1.85317e-05
-6.49554e-06
2.02417e-05
-5.77357e-06
2.16862e-05
-4.95107e-06
2.28119e-05
-3.95234e-06
2.35422e-05
-2.6701e-06
2.37826e-05
-9.47169e-07
2.34246e-05
1.42598e-06
2.23178e-05
4.65524e-06
2.02828e-05
8.85686e-06
1.71277e-05
1.38542e-05
1.27987e-05
1.87349e-05
7.63338e-06
2.09137e-05
2.55817e-06
1.31338e-05
-1.20843e-05
9.16428e-08
1.05823e-05
1.80107e-06
-1.41684e-06
4.05289e-06
-8.02639e-06
6.53319e-06
-1.08708e-05
9.02621e-06
-1.16066e-05
1.14175e-05
-1.13475e-05
1.36644e-05
-1.06907e-05
1.57503e-05
-9.90606e-06
1.76633e-05
-9.08145e-06
1.93872e-05
-8.21945e-06
2.08985e-05
-7.28485e-06
2.21627e-05
-6.21531e-06
2.31322e-05
-4.92179e-06
2.37452e-05
-3.28305e-06
2.39283e-05
-1.13036e-06
2.3602e-05
1.75236e-06
2.26843e-05
5.57294e-06
2.1105e-05
1.04361e-05
1.88187e-05
1.61405e-05
1.57978e-05
2.17558e-05
1.18984e-05
2.48131e-05
6.71979e-06
1.83125e-05
-5.36454e-06
1.92638e-06
8.65587e-06
4.03378e-06
-3.52424e-06
6.41909e-06
-1.04117e-05
8.77414e-06
-1.32258e-05
1.10031e-05
-1.38356e-05
1.30919e-05
-1.34363e-05
1.50476e-05
-1.26463e-05
1.68697e-05
-1.17282e-05
1.85469e-05
-1.07586e-05
2.00587e-05
-9.7313e-06
2.13788e-05
-8.60493e-06
2.24736e-05
-7.31008e-06
2.33017e-05
-5.74993e-06
2.3816e-05
-3.79738e-06
2.39648e-05
-1.2791e-06
2.36951e-05
2.02201e-06
2.29656e-05
6.30243e-06
2.17615e-05
1.16403e-05
2.0103e-05
1.7799e-05
1.79524e-05
2.39064e-05
1.49285e-05
2.7837e-05
9.67883e-06
2.35622e-05
4.31429e-06
3.26928e-06
5.38659e-06
6.08639e-06
-6.34135e-06
8.64798e-06
-1.29733e-05
1.08581e-05
-1.54359e-05
1.27994e-05
-1.57769e-05
1.45759e-05
-1.52128e-05
1.62412e-05
-1.43116e-05
1.7805e-05
-1.3292e-05
1.92532e-05
-1.22068e-05
2.056e-05
-1.10381e-05
2.16963e-05
-9.74125e-06
2.26302e-05
-8.24401e-06
2.33274e-05
-6.44716e-06
2.37555e-05
-4.22541e-06
2.38838e-05
-1.40741e-06
2.36831e-05
2.22264e-06
2.31383e-05
6.84729e-06
2.22629e-05
1.25156e-05
2.11093e-05
1.89526e-05
1.96315e-05
2.53841e-05
1.73129e-05
3.01557e-05
1.21362e-05
2.87389e-05
1.64505e-05
4.29275e-06
1.09384e-06
7.99782e-06
-1.00464e-05
1.07474e-05
-1.57229e-05
1.27525e-05
-1.7441e-05
1.4371e-05
-1.73953e-05
1.58325e-05
-1.66744e-05
1.72192e-05
-1.56983e-05
1.85388e-05
-1.46117e-05
1.97704e-05
-1.34384e-05
2.08821e-05
-1.21498e-05
2.1843e-05
-1.07022e-05
2.26237e-05
-9.02467e-06
2.31974e-05
-7.02086e-06
2.35468e-05
-4.57477e-06
2.36625e-05
-1.52312e-06
2.3536e-05
2.34909e-06
2.31696e-05
7.21368e-06
2.25917e-05
1.30935e-05
2.18777e-05
1.96666e-05
2.09985e-05
2.62634e-05
1.94217e-05
3.17325e-05
1.45997e-05
3.35609e-05
3.10501e-05
5.2577e-06
-4.16386e-06
9.88296e-06
-1.46717e-05
1.26824e-05
-1.85224e-05
1.43741e-05
-1.91326e-05
1.56482e-05
-1.86694e-05
1.68169e-05
-1.78431e-05
1.79552e-05
-1.68366e-05
1.90565e-05
-1.57129e-05
2.00908e-05
-1.44727e-05
2.10212e-05
-1.30801e-05
2.18167e-05
-1.14977e-05
2.24516e-05
-9.65954e-06
2.29071e-05
-7.47635e-06
2.31817e-05
-4.84943e-06
2.3288e-05
-1.62939e-06
2.32358e-05
2.40128e-06
2.30382e-05
7.41134e-06
2.27295e-05
1.34022e-05
2.24113e-05
1.99849e-05
2.21084e-05
2.65662e-05
2.14077e-05
3.24332e-05
1.78188e-05
3.71498e-05
4.88689e-05
1.32255e-05
-1.32255e-05
4.88658e-06
8.33907e-06
-1.69383e-05
2.1825e-05
-4.90657e-05
3.21274e-05
-8.55671e-05
3.65014e-05
-0.00012
3.44333e-05
-0.000149465
2.94649e-05
-0.000173767
2.43015e-05
-0.000193164
1.93971e-05
-0.00020759
1.44269e-05
-0.000217152
9.56195e-06
-0.000221804
4.6519e-06
-0.000220276
-1.5289e-06
-0.000210705
-9.57057e-06
-0.000192025
-1.86798e-05
-0.000164033
-2.7992e-05
-0.000122723
-4.13095e-05
-5.81516e-05
-6.4572e-05
-5.81515e-05
-4.20698e-06
-9.01835e-06
-2.30384e-05
2.71705e-05
-5.24435e-05
5.12301e-05
-8.63532e-05
6.60371e-05
-0.000117309
6.74572e-05
-0.000141891
5.9016e-05
-0.000160949
4.85221e-05
-0.000176038
3.93912e-05
-0.000187907
3.12655e-05
-0.000196902
2.34224e-05
-0.000203639
1.62985e-05
-0.000208672
9.68489e-06
-0.000210413
2.12352e-07
-0.000205925
-1.40589e-05
-0.0001932
-3.1405e-05
-0.000170625
-5.05663e-05
-0.000134587
-7.73479e-05
-7.38829e-05
-0.000125276
-0.000132035
-1.52232e-05
6.20496e-06
-3.73641e-05
4.93114e-05
-6.32723e-05
7.71384e-05
-8.8147e-05
9.09118e-05
-0.000108951
8.82612e-05
-0.000125916
7.59811e-05
-0.00014048
6.30865e-05
-0.000153288
5.21993e-05
-0.000164233
4.221e-05
-0.000172998
3.21876e-05
-0.000179834
2.31339e-05
-0.000185438
1.52898e-05
-0.000188682
3.45616e-06
-0.000187165
-1.55756e-05
-0.000179278
-3.92926e-05
-0.000162731
-6.71131e-05
-0.000133829
-0.000106251
-7.87313e-05
-0.000180373
-0.000210766
-1.93126e-05
2.55176e-05
-3.96564e-05
6.96552e-05
-5.94737e-05
9.69558e-05
-7.68193e-05
0.000108257
-9.17969e-05
0.000103239
-0.000105354
8.9538e-05
-0.000118042
7.5775e-05
-0.000129694
6.38507e-05
-0.000139724
5.22398e-05
-0.0001473
3.97642e-05
-0.000152415
2.82483e-05
-0.000156313
1.91884e-05
-0.000158521
5.6638e-06
-0.000156833
-1.72638e-05
-0.000150473
-4.56524e-05
-0.000138135
-7.94514e-05
-0.000117077
-0.000127309
-7.31797e-05
-0.00022427
-0.000283945
-1.77533e-05
4.32709e-05
-3.41447e-05
8.60466e-05
-4.81559e-05
0.000110967
-6.01654e-05
0.000120267
-7.16234e-05
0.000114697
-8.29524e-05
0.000100867
-9.39445e-05
8.6767e-05
-0.000104092
7.39977e-05
-0.000112648
6.07963e-05
-0.000118266
4.53818e-05
-0.000120466
3.04485e-05
-0.000120985
1.9707e-05
-0.000120069
4.74846e-06
-0.000115731
-2.16025e-05
-0.000107807
-5.35758e-05
-9.7128e-05
-9.01305e-05
-8.4512e-05
-0.000139925
-6.13035e-05
-0.000247479
-0.000345249
-1.22252e-05
5.54961e-05
-2.39028e-05
9.77244e-05
-3.28325e-05
0.000119897
-4.06821e-05
0.000128117
-4.94023e-05
0.000123417
-5.86153e-05
0.00011008
-6.76009e-05
9.57526e-05
-7.57461e-05
8.21429e-05
-8.23843e-05
6.74345e-05
-8.56375e-05
4.8635e-05
-8.42901e-05
2.91011e-05
-8.00509e-05
1.54678e-05
-7.42572e-05
-1.04536e-06
-6.60538e-05
-2.98058e-05
-5.61129e-05
-6.35167e-05
-4.69594e-05
-9.92839e-05
-4.27606e-05
-0.000144123
-4.57902e-05
-0.000244449
-0.000391039
-4.42231e-06
5.99184e-05
-1.09912e-05
0.000104293
-1.53649e-05
0.00012427
-1.94784e-05
0.00013223
-2.56131e-05
0.000129552
-3.25394e-05
0.000117006
-3.91289e-05
0.000102342
-4.47096e-05
8.77236e-05
-4.89483e-05
7.16732e-05
-4.96579e-05
4.93444e-05
-4.48828e-05
2.4326e-05
-3.49104e-05
5.4954e-06
-2.26563e-05
-1.32995e-05
-1.06608e-05
-4.18013e-05
-2.34054e-06
-7.1837e-05
7.19913e-07
-0.000102344
-5.54572e-06
-0.000137858
-2.53112e-05
-0.000224683
-0.00041635
4.92536e-06
5.49929e-05
3.26326e-06
0.000105956
2.932e-06
0.000124602
2.57908e-06
0.000132583
-8.98083e-07
0.000133029
-5.33504e-06
0.000121443
-9.18733e-06
0.000106194
-1.14647e-05
9.00009e-05
-1.21968e-05
7.24052e-05
-1.03231e-05
4.74705e-05
-3.06711e-06
1.70698e-05
1.33613e-05
-1.0933e-05
3.23396e-05
-3.22778e-05
4.14706e-05
-5.09322e-05
3.99835e-05
-7.03499e-05
3.25566e-05
-9.49175e-05
2.09394e-05
-0.000126241
-4.51472e-08
-0.000203699
-0.000416395
1.57403e-05
-1.99041e-05
2.72499e-05
-2.61813e-05
3.21485e-05
-2.3421e-05
3.44604e-05
-2.14446e-05
3.62265e-05
-2.04355e-05
3.7995e-05
-1.96116e-05
3.97932e-05
-1.86348e-05
4.15539e-05
-1.74737e-05
4.31985e-05
-1.61174e-05
4.46451e-05
-1.45267e-05
4.58391e-05
-1.26917e-05
4.67414e-05
-1.05619e-05
4.73355e-05
-8.07044e-06
4.76775e-05
-5.19137e-06
4.78759e-05
-1.82786e-06
4.8002e-05
2.27519e-06
4.81008e-05
7.31255e-06
4.8223e-05
1.32801e-05
4.86872e-05
1.95206e-05
4.98104e-05
2.5443e-05
5.1374e-05
3.08697e-05
5.30777e-05
3.5446e-05
4.0698e-05
6.12486e-05
2.64847e-05
-4.63888e-05
3.39991e-05
-3.36957e-05
3.49819e-05
-2.44038e-05
3.57718e-05
-2.22344e-05
3.7089e-05
-2.17527e-05
3.86698e-05
-2.11924e-05
4.02429e-05
-2.02079e-05
4.16697e-05
-1.89005e-05
4.28279e-05
-1.72755e-05
4.37218e-05
-1.54206e-05
4.44109e-05
-1.33809e-05
4.48348e-05
-1.09857e-05
4.49754e-05
-8.21111e-06
4.4964e-05
-5.17997e-06
4.50907e-05
-1.95458e-06
4.55082e-05
1.85775e-06
4.625e-05
6.57072e-06
4.70842e-05
1.24459e-05
4.84723e-05
1.81325e-05
5.08454e-05
2.307e-05
5.39127e-05
2.78024e-05
5.72951e-05
3.20636e-05
3.65213e-05
6.14718e-05
2.78386e-05
-7.42274e-05
2.99075e-05
-3.57647e-05
3.13492e-05
-2.58456e-05
3.37203e-05
-2.46056e-05
3.58963e-05
-2.39287e-05
3.76281e-05
-2.29242e-05
3.90902e-05
-2.16699e-05
4.02846e-05
-2.00949e-05
4.07136e-05
-1.77045e-05
4.06974e-05
-1.54044e-05
4.11187e-05
-1.38022e-05
4.13425e-05
-1.12095e-05
4.13725e-05
-8.24112e-06
4.14076e-05
-5.21503e-06
4.18218e-05
-2.36884e-06
4.26552e-05
1.02437e-06
4.38797e-05
5.34625e-06
4.52129e-05
1.11127e-05
4.73837e-05
1.59616e-05
5.06894e-05
1.97643e-05
5.42636e-05
2.42282e-05
5.7865e-05
2.84622e-05
3.27343e-05
6.1652e-05
-4.61457e-06
-6.96129e-05
4.31192e-06
-4.46913e-05
1.30517e-05
-3.45855e-05
1.95887e-05
-3.11426e-05
2.49257e-05
-2.92658e-05
2.92921e-05
-2.72907e-05
3.27542e-05
-2.5132e-05
3.53706e-05
-2.27114e-05
3.75601e-05
-1.9894e-05
3.88862e-05
-1.67305e-05
3.9028e-05
-1.39441e-05
3.88635e-05
-1.10449e-05
3.85922e-05
-7.96982e-06
3.82693e-05
-4.8922e-06
3.76109e-05
-1.71045e-06
3.77677e-05
8.67633e-07
3.98339e-05
3.28007e-06
4.31102e-05
7.83634e-06
4.69971e-05
1.20747e-05
5.09876e-05
1.57739e-05
5.51497e-05
2.00661e-05
5.97224e-05
2.38894e-05
2.80234e-05
6.44333e-05
-1.16994e-05
-5.79137e-05
-5.0041e-06
-5.13867e-05
3.67641e-06
-4.32661e-05
1.09365e-05
-3.84028e-05
1.66696e-05
-3.4999e-05
2.13307e-05
-3.19518e-05
2.51558e-05
-2.89571e-05
2.83129e-05
-2.58685e-05
3.09747e-05
-2.25559e-05
3.33461e-05
-1.9102e-05
3.51066e-05
-1.57046e-05
3.62839e-05
-1.22223e-05
3.69284e-05
-8.61437e-06
3.68944e-05
-4.85821e-06
3.63102e-05
-1.1262e-06
3.58707e-05
1.30707e-06
3.63738e-05
2.77699e-06
4.03479e-05
3.86223e-06
4.54122e-05
7.01048e-06
5.08641e-05
1.0322e-05
5.67858e-05
1.41445e-05
6.2516e-05
1.81593e-05
2.23606e-05
6.81789e-05
-4.25564e-06
-5.36581e-05
-2.80542e-06
-5.2837e-05
1.9125e-06
-4.7984e-05
7.01845e-06
-4.35087e-05
1.16428e-05
-3.96235e-05
1.57149e-05
-3.60239e-05
1.92874e-05
-3.25296e-05
2.2444e-05
-2.90251e-05
2.53142e-05
-2.54262e-05
2.79684e-05
-2.17562e-05
3.03085e-05
-1.80447e-05
3.23381e-05
-1.4252e-05
3.41078e-05
-1.03842e-05
3.5759e-05
-6.50944e-06
3.75166e-05
-2.88377e-06
3.91032e-05
-2.79471e-07
4.11659e-05
7.14336e-07
4.39176e-05
1.11049e-06
4.54315e-05
5.49658e-06
4.89072e-05
6.84629e-06
5.54831e-05
7.56854e-06
6.22419e-05
1.14005e-05
1.5086e-05
6.95164e-05
-2.05906e-06
-5.15991e-05
-1.00255e-06
-5.38935e-05
1.79229e-06
-5.07789e-05
5.21487e-06
-4.69313e-05
8.6846e-06
-4.30932e-05
1.20117e-05
-3.9351e-05
1.51483e-05
-3.56663e-05
1.8107e-05
-3.19838e-05
2.09388e-05
-2.82581e-05
2.36666e-05
-2.44841e-05
2.62866e-05
-2.06649e-05
2.88361e-05
-1.68015e-05
3.1384e-05
-1.29321e-05
3.4038e-05
-9.16345e-06
3.689e-05
-5.7357e-06
3.97363e-05
-3.12581e-06
4.20354e-05
-1.58468e-06
4.34408e-05
-2.94962e-07
4.72775e-05
1.65987e-06
5.24319e-05
1.69194e-06
5.81231e-05
1.87728e-06
6.04995e-05
9.02425e-06
9.55844e-06
6.6027e-05
-9.94404e-07
-5.06046e-05
-1.52489e-07
-5.47353e-05
1.67565e-06
-5.2607e-05
4.02869e-06
-4.92843e-05
6.62245e-06
-4.56869e-05
9.30869e-06
-4.20372e-05
1.20185e-05
-3.83762e-05
1.47299e-05
-3.46952e-05
1.74497e-05
-3.0978e-05
2.01878e-05
-2.72222e-05
2.29594e-05
-2.34365e-05
2.58e-05
-1.96422e-05
2.87626e-05
-1.58947e-05
3.19043e-05
-1.23051e-05
3.5235e-05
-9.06644e-06
3.85615e-05
-6.45229e-06
4.15342e-05
-4.55742e-06
4.42922e-05
-3.05298e-06
4.76628e-05
-1.71074e-06
5.0481e-05
-1.12615e-06
5.25361e-05
-1.77789e-07
5.92541e-05
2.3063e-06
1.89169e-06
6.69209e-05
-3.57954e-07
-5.02466e-05
1.12859e-07
-5.52061e-05
1.24155e-06
-5.37357e-05
2.85474e-06
-5.08976e-05
4.80075e-06
-4.76329e-05
6.97471e-06
-4.42112e-05
9.31234e-06
-4.07138e-05
1.17798e-05
-3.71627e-05
1.43658e-05
-3.3564e-05
1.70703e-05
-2.99268e-05
1.99029e-05
-2.62691e-05
2.28848e-05
-2.26242e-05
2.60428e-05
-1.90527e-05
2.93927e-05
-1.56549e-05
3.29021e-05
-1.25759e-05
3.64309e-05
-9.98113e-06
3.98062e-05
-7.93273e-06
4.30658e-05
-6.31254e-06
4.63848e-05
-5.02974e-06
4.94689e-05
-4.21022e-06
5.2692e-05
-3.40079e-06
5.73911e-05
-2.39284e-06
-2.42573e-06
6.17086e-05
-3.17303e-07
-4.99293e-05
-1.91509e-07
-5.5332e-05
4.44591e-07
-5.43718e-05
1.52575e-06
-5.19787e-05
2.97702e-06
-4.90842e-05
4.73032e-06
-4.59645e-05
6.73474e-06
-4.27182e-05
8.95727e-06
-3.93853e-05
1.13803e-05
-3.59871e-05
1.39969e-05
-3.25434e-05
1.68079e-05
-2.90802e-05
1.98197e-05
-2.5636e-05
2.30365e-05
-2.22695e-05
2.64464e-05
-1.90648e-05
2.99996e-05
-1.61292e-05
3.35903e-05
-1.3572e-05
3.71039e-05
-1.14463e-05
4.05099e-05
-9.71861e-06
4.38292e-05
-8.349e-06
4.69648e-05
-7.34585e-06
5.00591e-05
-6.49507e-06
5.33444e-05
-5.67813e-06
-5.11636e-06
5.60351e-05
-5.28472e-07
-4.94009e-05
-7.51157e-07
-5.51093e-05
-5.29433e-07
-5.45935e-05
1.2245e-07
-5.26306e-05
1.16111e-06
-5.01228e-05
2.54069e-06
-4.73441e-05
4.22323e-06
-4.44007e-05
6.18125e-06
-4.13433e-05
8.39703e-06
-3.82028e-05
1.08602e-05
-3.50066e-05
1.35653e-05
-3.17852e-05
1.65075e-05
-2.85782e-05
1.96759e-05
-2.5438e-05
2.30437e-05
-2.24326e-05
2.65556e-05
-1.96412e-05
3.01237e-05
-1.71401e-05
3.36522e-05
-1.49748e-05
3.70787e-05
-1.31451e-05
4.03632e-05
-1.16334e-05
4.3432e-05
-1.04146e-05
4.62962e-05
-9.35932e-06
4.89579e-05
-8.3398e-06
-7.28271e-06
5.11243e-05
-8.21209e-07
-4.85797e-05
-1.36763e-06
-5.4563e-05
-1.49878e-06
-5.44624e-05
-1.21432e-06
-5.2915e-05
-5.42774e-07
-5.07943e-05
4.85021e-07
-4.83718e-05
1.84237e-06
-4.57581e-05
3.50857e-06
-4.30095e-05
5.46863e-06
-4.01629e-05
7.71189e-06
-3.72498e-05
1.02293e-05
-3.43026e-05
1.30098e-05
-3.13587e-05
1.60347e-05
-2.8463e-05
1.92706e-05
-2.56685e-05
2.2663e-05
-2.30335e-05
2.61351e-05
-2.06122e-05
2.96012e-05
-1.8441e-05
3.29864e-05
-1.65303e-05
3.62242e-05
-1.48712e-05
3.92424e-05
-1.34327e-05
4.20058e-05
-1.21227e-05
4.44798e-05
-1.08137e-05
-9.34181e-06
4.65389e-05
-1.09248e-06
-4.74873e-05
-1.90358e-06
-5.37519e-05
-2.32797e-06
-5.4038e-05
-2.3633e-06
-5.28796e-05
-2.02535e-06
-5.11322e-05
-1.33294e-06
-4.90641e-05
-3.03209e-07
-4.67878e-05
1.0498e-06
-4.43624e-05
2.71505e-06
-4.18281e-05
4.68333e-06
-3.9218e-05
6.94488e-06
-3.65642e-05
9.4863e-06
-3.39002e-05
1.22862e-05
-3.12629e-05
1.53103e-05
-2.86927e-05
1.8508e-05
-2.62312e-05
2.18119e-05
-2.39162e-05
2.51457e-05
-2.17748e-05
2.84338e-05
-1.98183e-05
3.16047e-05
-1.8042e-05
3.45902e-05
-1.64183e-05
3.73439e-05
-1.48764e-05
3.98282e-05
-1.3298e-05
-1.1495e-05
4.19814e-05
-1.28848e-06
-4.61988e-05
-2.28931e-06
-5.2751e-05
-2.9456e-06
-5.33817e-05
-3.25161e-06
-5.25736e-05
-3.21118e-06
-5.11726e-05
-2.83184e-06
-4.94435e-05
-2.12178e-06
-4.74978e-05
-1.0886e-06
-4.53955e-05
2.60849e-07
-4.31775e-05
1.91975e-06
-4.08769e-05
3.87939e-06
-3.85238e-05
6.12667e-06
-3.61475e-05
8.64085e-06
-3.37772e-05
1.13902e-05
-3.1442e-05
1.43295e-05
-2.91705e-05
1.74011e-05
-2.69876e-05
2.05382e-05
-2.49119e-05
2.36725e-05
-2.29525e-05
2.67375e-05
-2.11071e-05
2.96739e-05
-1.93547e-05
3.24382e-05
-1.76407e-05
3.49999e-05
-1.58597e-05
-1.38213e-05
3.73261e-05
-1.39159e-06
-4.48072e-05
-2.50562e-06
-5.16369e-05
-3.33077e-06
-5.25564e-05
-3.85472e-06
-5.20496e-05
-4.06907e-06
-5.09582e-05
-3.97042e-06
-4.95421e-05
-3.55847e-06
-4.79097e-05
-2.83465e-06
-4.61194e-05
-1.80144e-06
-4.42107e-05
-4.62927e-07
-4.22154e-05
1.17413e-06
-4.0161e-05
3.0984e-06
-3.80719e-05
5.29154e-06
-3.59703e-05
7.72592e-06
-3.38764e-05
1.03631e-05
-3.18076e-05
1.31544e-05
-2.9779e-05
1.60441e-05
-2.78016e-05
1.89736e-05
-2.58821e-05
2.1887e-05
-2.40205e-05
2.47361e-05
-2.22038e-05
2.74867e-05
-2.03913e-05
3.01182e-05
-1.84912e-05
-1.6317e-05
3.26139e-05
-1.40694e-06
-4.34003e-05
-2.56521e-06
-5.04786e-05
-3.49869e-06
-5.16229e-05
-4.1863e-06
-5.1362e-05
-4.60745e-06
-5.0537e-05
-4.74841e-06
-4.94011e-05
-4.60101e-06
-4.80571e-05
-4.16088e-06
-4.65595e-05
-3.42628e-06
-4.49453e-05
-2.39829e-06
-4.32435e-05
-1.08129e-06
-4.1478e-05
5.1568e-07
-3.96689e-05
2.37747e-06
-3.78322e-05
4.48113e-06
-3.598e-05
6.79502e-06
-3.41215e-05
9.27954e-06
-3.22635e-05
1.18894e-05
-3.04115e-05
1.45775e-05
-2.85702e-05
1.72997e-05
-2.67427e-05
2.00201e-05
-2.49242e-05
2.27159e-05
-2.3087e-05
2.53771e-05
-2.11524e-05
-1.89382e-05
2.79984e-05
-1.35154e-06
-4.20487e-05
-2.49804e-06
-4.93321e-05
-3.48639e-06
-5.06346e-05
-4.28568e-06
-5.05627e-05
-4.86411e-06
-4.99586e-05
-5.1988e-06
-4.90664e-05
-5.27462e-06
-4.79813e-05
-5.08195e-06
-4.67522e-05
-4.61524e-06
-4.54121e-05
-3.87251e-06
-4.39862e-05
-2.85563e-06
-4.2495e-05
-1.57098e-06
-4.09536e-05
-3.04629e-08
-3.93727e-05
1.74756e-06
-3.7758e-05
3.73792e-06
-3.61119e-05
5.90939e-06
-3.4435e-05
8.22669e-06
-3.27288e-05
1.06538e-05
-3.09973e-05
1.31586e-05
-2.92475e-05
1.57175e-05
-2.74831e-05
1.83192e-05
-2.56886e-05
2.0964e-05
-2.37972e-05
-2.1629e-05
2.36549e-05
-1.24662e-06
-4.0802e-05
-2.34106e-06
-4.82376e-05
-3.34106e-06
-4.96346e-05
-4.20597e-06
-4.96978e-05
-4.89461e-06
-4.927e-05
-5.37672e-06
-4.85843e-05
-5.63149e-06
-4.77265e-05
-5.64492e-06
-4.67388e-05
-5.40813e-06
-4.56489e-05
-4.91633e-06
-4.44781e-05
-4.16888e-06
-4.32425e-05
-3.16947e-06
-4.19531e-05
-1.92675e-06
-4.06154e-05
-4.54851e-07
-3.92298e-05
1.22682e-06
-3.77936e-05
3.09461e-06
-3.63029e-05
5.12224e-06
-3.47564e-05
7.28407e-06
-3.31591e-05
9.55914e-06
-3.15225e-05
1.19355e-05
-2.98593e-05
1.44127e-05
-2.81657e-05
1.69997e-05
-2.63841e-05
-2.43338e-05
1.97046e-05
-1.11265e-06
-3.96894e-05
-2.13111e-06
-4.72192e-05
-3.11146e-06
-4.86543e-05
-4.00422e-06
-4.88051e-05
-4.76153e-06
-4.85127e-05
-5.34799e-06
-4.79978e-05
-5.73876e-06
-4.73357e-05
-5.91657e-06
-4.6561e-05
-5.86982e-06
-4.56957e-05
-5.59132e-06
-4.47566e-05
-5.07816e-06
-4.37557e-05
-4.33144e-06
-4.26999e-05
-3.35673e-06
-4.15901e-05
-2.16419e-06
-4.04223e-05
-7.68145e-07
-3.91896e-05
8.14184e-07
-3.78851e-05
2.56448e-06
-3.65066e-05
4.46628e-06
-3.50608e-05
6.50874e-06
-3.35648e-05
8.69025e-06
-3.20407e-05
1.10199e-05
-3.04952e-05
1.35134e-05
-2.88776e-05
-2.70005e-05
1.61803e-05
-9.68049e-07
-3.87213e-05
-1.90119e-06
-4.62861e-05
-2.84184e-06
-4.77137e-05
-3.73393e-06
-4.7913e-05
-4.52572e-06
-4.77208e-05
-5.17919e-06
-4.73443e-05
-5.66731e-06
-4.68476e-05
-5.97087e-06
-4.62575e-05
-6.07635e-06
-4.55903e-05
-5.97475e-06
-4.48583e-05
-5.6611e-06
-4.40694e-05
-5.13422e-06
-4.32267e-05
-4.39687e-06
-4.23273e-05
-3.45567e-06
-4.13635e-05
-2.32039e-06
-4.03249e-05
-1.00275e-06
-3.92027e-05
4.85547e-07
-3.79949e-05
2.13595e-06
-3.67112e-05
3.94633e-06
-3.53752e-05
5.92394e-06
-3.40183e-05
8.08566e-06
-3.26569e-05
1.04519e-05
-3.12438e-05
-2.95785e-05
1.303e-05
-8.266e-07
-3.78948e-05
-1.6765e-06
-4.54363e-05
-2.56794e-06
-4.68223e-05
-3.43988e-06
-4.7041e-05
-4.23995e-06
-4.69207e-05
-4.93007e-06
-4.66541e-05
-5.48293e-06
-4.62947e-05
-5.87879e-06
-4.58617e-05
-6.10316e-06
-4.5366e-05
-6.14592e-06
-4.48156e-05
-6.00048e-06
-4.42149e-05
-5.6637e-06
-4.35634e-05
-5.13589e-06
-4.2855e-05
-4.42056e-06
-4.20788e-05
-3.52361e-06
-4.12218e-05
-2.4521e-06
-4.02742e-05
-1.21212e-06
-3.92348e-05
1.94051e-07
-3.81173e-05
1.77145e-06
-3.69526e-05
3.5346e-06
-3.57814e-05
5.50638e-06
-3.46286e-05
7.70974e-06
-3.3447e-05
-3.20162e-05
1.01476e-05
-6.98215e-07
-3.71966e-05
-1.47513e-06
-4.46594e-05
-2.31539e-06
-4.5982e-05
-3.15555e-06
-4.62008e-05
-3.94533e-06
-4.61309e-05
-4.64887e-06
-4.59506e-05
-5.24043e-06
-4.57032e-05
-5.70112e-06
-4.54011e-05
-6.01659e-06
-4.50505e-05
-6.1763e-06
-4.46559e-05
-6.17261e-06
-4.42186e-05
-6.00084e-06
-4.37352e-05
-5.65928e-06
-4.31965e-05
-5.14877e-06
-4.25892e-05
-4.47205e-06
-4.18985e-05
-3.63237e-06
-4.11138e-05
-2.63144e-06
-4.02357e-05
-1.46632e-06
-3.92825e-05
-1.26532e-07
-3.82924e-05
1.40797e-06
-3.73159e-05
3.16447e-06
-3.6385e-05
5.16691e-06
-3.54493e-05
-3.4262e-05
7.41282e-06
-5.89458e-07
-3.66071e-05
-1.3069e-06
-4.39419e-05
-2.09942e-06
-4.51894e-05
-2.90252e-06
-4.53976e-05
-3.67007e-06
-4.53633e-05
-4.37031e-06
-4.52504e-05
-4.98079e-06
-4.50928e-05
-5.48469e-06
-4.48973e-05
-5.86898e-06
-4.46663e-05
-6.12341e-06
-4.44015e-05
-6.23996e-06
-4.4102e-05
-6.21294e-06
-4.37621e-05
-6.03903e-06
-4.33704e-05
-5.71699e-06
-4.29112e-05
-5.24705e-06
-4.23683e-05
-4.62952e-06
-4.17312e-05
-3.86264e-06
-4.10026e-05
-2.93961e-06
-4.02055e-05
-1.84576e-06
-3.93862e-05
-5.57046e-07
-3.86045e-05
9.56842e-07
-3.78988e-05
2.72021e-06
-3.72126e-05
-3.62676e-05
4.72595e-06
-5.00741e-07
-3.61064e-05
-1.17429e-06
-4.32684e-05
-1.92611e-06
-4.44376e-05
-2.69157e-06
-4.46322e-05
-3.43019e-06
-4.46248e-05
-4.11587e-06
-4.45648e-05
-4.73079e-06
-4.4478e-05
-5.26142e-06
-4.43666e-05
-5.69701e-06
-4.42306e-05
-6.02844e-06
-4.40701e-05
-6.24796e-06
-4.38825e-05
-6.34947e-06
-4.36606e-05
-6.32852e-06
-4.33913e-05
-6.18237e-06
-4.30573e-05
-5.90936e-06
-4.26412e-05
-5.50761e-06
-4.21329e-05
-4.97284e-06
-4.15373e-05
-4.2955e-06
-4.08828e-05
-3.45793e-06
-4.02237e-05
-2.433e-06
-3.96294e-05
-1.18799e-06
-3.91437e-05
3.02064e-07
-3.87025e-05
-3.79933e-05
2.02781e-06
-4.28774e-07
-3.56777e-05
-1.07425e-06
-4.26229e-05
-1.79449e-06
-4.37173e-05
-2.5249e-06
-4.39018e-05
-3.23164e-06
-4.39181e-05
-3.89556e-06
-4.39009e-05
-4.50455e-06
-4.3869e-05
-5.04944e-06
-4.38217e-05
-5.52256e-06
-4.37575e-05
-5.91667e-06
-4.36759e-05
-6.22502e-06
-4.35741e-05
-6.4416e-06
-4.3444e-05
-6.56145e-06
-4.32714e-05
-6.58084e-06
-4.30378e-05
-6.49684e-06
-4.27252e-05
-6.30602e-06
-4.23237e-05
-6.0024e-06
-4.18409e-05
-5.57458e-06
-4.13106e-05
-5.00286e-06
-4.07954e-05
-4.25779e-06
-4.03744e-05
-3.30399e-06
-4.00975e-05
-2.11413e-06
-3.98924e-05
-3.94114e-05
-6.95952e-07
-3.67394e-07
-3.53102e-05
-1.00063e-06
-4.19896e-05
-1.69938e-06
-4.30186e-05
-2.39881e-06
-4.32025e-05
-3.07287e-06
-4.32441e-05
-3.71049e-06
-4.32633e-05
-4.30606e-06
-4.32735e-05
-4.85557e-06
-4.32721e-05
-5.35505e-06
-4.3258e-05
-5.79978e-06
-4.32312e-05
-6.18459e-06
-4.31893e-05
-6.50419e-06
-4.31244e-05
-6.75366e-06
-4.30219e-05
-6.92881e-06
-4.28626e-05
-7.02592e-06
-4.2628e-05
-7.04061e-06
-4.2309e-05
-6.96586e-06
-4.19157e-05
-6.78925e-06
-4.14871e-05
-6.48978e-06
-4.10948e-05
-6.03604e-06
-4.08282e-05
-5.38945e-06
-4.07441e-05
-4.51745e-06
-4.07643e-05
-4.05085e-05
-3.42022e-06
-3.11496e-07
-3.49987e-05
-9.47565e-07
-4.13536e-05
-1.63392e-06
-4.23323e-05
-2.30619e-06
-4.25303e-05
-2.94747e-06
-4.26028e-05
-3.5556e-06
-4.26552e-05
-4.13207e-06
-4.2697e-05
-4.67839e-06
-4.27258e-05
-5.19462e-06
-4.27418e-05
-5.67907e-06
-4.27467e-05
-6.12865e-06
-4.27397e-05
-6.53932e-06
-4.27136e-05
-6.90673e-06
-4.26543e-05
-7.22674e-06
-4.25425e-05
-7.49529e-06
-4.23594e-05
-7.70751e-06
-4.20968e-05
-7.85603e-06
-4.17671e-05
-7.92807e-06
-4.1415e-05
-7.90209e-06
-4.11208e-05
-7.74502e-06
-4.09853e-05
-7.4142e-06
-4.1075e-05
-6.86868e-06
-4.13098e-05
-4.12831e-05
-6.094e-06
-2.59788e-07
-3.47389e-05
-9.1097e-07
-4.07024e-05
-1.59115e-06
-4.16522e-05
-2.23822e-06
-4.18832e-05
-2.84616e-06
-4.19949e-05
-3.42214e-06
-4.20792e-05
-3.97486e-06
-4.21442e-05
-4.51125e-06
-4.21893e-05
-5.03549e-06
-4.22175e-05
-5.54914e-06
-4.2233e-05
-6.05153e-06
-4.22372e-05
-6.54034e-06
-4.22247e-05
-7.01228e-06
-4.21823e-05
-7.4637e-06
-4.2091e-05
-7.89061e-06
-4.19326e-05
-8.28819e-06
-4.16992e-05
-8.64928e-06
-4.1406e-05
-8.96156e-06
-4.11027e-05
-9.20374e-06
-4.08787e-05
-9.34175e-06
-4.08474e-05
-9.32843e-06
-4.10883e-05
-9.11147e-06
-4.15268e-05
-4.17396e-05
-8.65495e-06
-2.15258e-07
-3.45237e-05
-8.87902e-07
-4.00298e-05
-1.56359e-06
-4.09765e-05
-2.18509e-06
-4.12618e-05
-2.75829e-06
-4.14217e-05
-3.29968e-06
-4.15378e-05
-3.82467e-06
-4.16191e-05
-4.34511e-06
-4.16689e-05
-4.86907e-06
-4.16935e-05
-5.40127e-06
-4.17008e-05
-5.94364e-06
-4.16948e-05
-6.49594e-06
-4.16723e-05
-7.05635e-06
-4.16218e-05
-7.62208e-06
-4.15253e-05
-8.1897e-06
-4.1365e-05
-8.75489e-06
-4.11339e-05
-9.31136e-06
-4.08494e-05
-9.84817e-06
-4.05659e-05
-1.03455e-05
-4.03814e-05
-1.07696e-05
-4.04233e-05
-1.10695e-05
-4.07885e-05
-1.118e-05
-4.14163e-05
-4.18812e-05
-1.10384e-05
-1.80791e-07
-3.43429e-05
-8.7643e-07
-3.93341e-05
-1.54366e-06
-4.03093e-05
-2.13658e-06
-4.06689e-05
-2.673e-06
-4.08852e-05
-3.17765e-06
-4.10331e-05
-3.67157e-06
-4.11252e-05
-4.1707e-06
-4.11697e-05
-4.68642e-06
-4.11778e-05
-5.22626e-06
-4.11609e-05
-5.79473e-06
-4.11262e-05
-6.39383e-06
-4.10732e-05
-7.02351e-06
-4.09921e-05
-7.68224e-06
-4.08665e-05
-8.36753e-06
-4.06796e-05
-9.07609e-06
-4.04253e-05
-9.80317e-06
-4.01223e-05
-1.05402e-05
-3.98288e-05
-1.12706e-05
-3.96511e-05
-1.19633e-05
-3.97307e-05
-1.25659e-05
-4.0186e-05
-1.30014e-05
-4.09808e-05
-4.17043e-05
-1.31783e-05
-1.5877e-07
-3.41842e-05
-8.69823e-07
-3.8623e-05
-1.52252e-06
-3.96567e-05
-2.08297e-06
-4.01084e-05
-2.58052e-06
-4.03876e-05
-3.04676e-06
-4.05669e-05
-3.50698e-06
-4.0665e-05
-3.98016e-06
-4.06966e-05
-4.48006e-06
-4.06779e-05
-5.01653e-06
-4.06243e-05
-5.59634e-06
-4.05463e-05
-6.22366e-06
-4.04458e-05
-6.90039e-06
-4.03153e-05
-7.62658e-06
-4.01403e-05
-8.40102e-06
-3.99052e-05
-9.22186e-06
-3.96044e-05
-1.00865e-05
-3.92576e-05
-1.09899e-05
-3.89255e-05
-1.19207e-05
-3.87203e-05
-1.2854e-05
-3.87975e-05
-1.37403e-05
-3.92998e-05
-1.44955e-05
-4.02256e-05
-4.11981e-05
-1.50017e-05
-1.45145e-07
-3.4039e-05
-8.63405e-07
-3.79046e-05
-1.49322e-06
-3.90268e-05
-2.01668e-06
-3.95849e-05
-2.47341e-06
-3.99308e-05
-2.90005e-06
-4.01402e-05
-3.32465e-06
-4.02405e-05
-3.76792e-06
-4.02534e-05
-4.24505e-06
-4.02008e-05
-4.76736e-06
-4.0102e-05
-5.34336e-06
-3.99702e-05
-5.97911e-06
-3.981e-05
-6.67839e-06
-3.9616e-05
-7.44297e-06
-3.93758e-05
-8.27316e-06
-3.9075e-05
-9.16876e-06
-3.87088e-05
-1.01297e-05
-3.82966e-05
-1.11556e-05
-3.78996e-05
-1.22423e-05
-3.76336e-05
-1.33746e-05
-3.76651e-05
-1.45125e-05
-3.81619e-05
-1.55731e-05
-3.91651e-05
-4.03509e-05
-1.64203e-05
-1.39472e-07
-3.38994e-05
-8.54587e-07
-3.71894e-05
-1.45282e-06
-3.84285e-05
-1.93434e-06
-3.91033e-05
-2.3479e-06
-3.95173e-05
-2.73366e-06
-3.97545e-05
-3.12101e-06
-3.98531e-05
-3.53103e-06
-3.98434e-05
-3.97915e-06
-3.97527e-05
-4.47722e-06
-3.96039e-05
-5.03465e-06
-3.94127e-05
-5.65887e-06
-3.91857e-05
-6.35524e-06
-3.89197e-05
-7.12712e-06
-3.86039e-05
-7.97634e-06
-3.82258e-05
-8.90437e-06
-3.77807e-05
-9.91377e-06
-3.72872e-05
-1.10089e-05
-3.68045e-05
-1.21944e-05
-3.64481e-05
-1.34684e-05
-3.63911e-05
-1.4807e-05
-3.68234e-05
-1.61393e-05
-3.78328e-05
-3.91652e-05
-1.73251e-05
-1.48912e-07
-3.37504e-05
-8.50444e-07
-3.64879e-05
-1.40621e-06
-3.78727e-05
-1.83831e-06
-3.86712e-05
-2.20445e-06
-3.91511e-05
-2.54696e-06
-3.94119e-05
-2.89504e-06
-3.95051e-05
-3.26871e-06
-3.94698e-05
-3.68238e-06
-3.93389e-05
-4.14726e-06
-3.91389e-05
-4.67267e-06
-3.88873e-05
-5.26659e-06
-3.85918e-05
-5.93538e-06
-3.82509e-05
-6.68363e-06
-3.78557e-05
-7.51439e-06
-3.7395e-05
-8.43048e-06
-3.68646e-05
-9.43663e-06
-3.62811e-05
-1.05416e-05
-3.56996e-05
-1.17585e-05
-3.52312e-05
-1.31005e-05
-3.50491e-05
-1.45654e-05
-3.53585e-05
-1.61062e-05
-3.62921e-05
-3.76757e-05
-1.75956e-05
-2.03051e-07
-3.35473e-05
-8.73213e-07
-3.58178e-05
-1.36798e-06
-3.73779e-05
-1.73738e-06
-3.83017e-05
-2.04762e-06
-3.88408e-05
-2.34194e-06
-3.91176e-05
-2.6475e-06
-3.91996e-05
-2.98158e-06
-3.91356e-05
-3.35607e-06
-3.89644e-05
-3.78024e-06
-3.87147e-05
-4.26225e-06
-3.84053e-05
-4.80963e-06
-3.80445e-05
-5.42896e-06
-3.76317e-05
-6.12539e-06
-3.71594e-05
-6.90267e-06
-3.66178e-05
-7.76436e-06
-3.60029e-05
-8.71638e-06
-3.5329e-05
-9.77033e-06
-3.46456e-05
-1.09462e-05
-3.40554e-05
-1.22708e-05
-3.37246e-05
-1.37655e-05
-3.38638e-05
-1.54159e-05
-3.46417e-05
-3.59659e-05
-1.71258e-05
-3.55514e-07
-3.31919e-05
-9.59574e-07
-3.52139e-05
-1.36189e-06
-3.69756e-05
-1.64505e-06
-3.80186e-05
-1.88419e-06
-3.86017e-05
-2.12155e-06
-3.88803e-05
-2.37956e-06
-3.89416e-05
-2.6704e-06
-3.88447e-05
-3.0016e-06
-3.86331e-05
-3.37913e-06
-3.83372e-05
-3.8089e-06
-3.79756e-05
-4.29707e-06
-3.75564e-05
-4.84953e-06
-3.70793e-05
-5.47122e-06
-3.65377e-05
-6.16588e-06
-3.59231e-05
-6.93696e-06
-3.52318e-05
-7.79033e-06
-3.44757e-05
-8.73832e-06
-3.36977e-05
-9.80426e-06
-3.29895e-05
-1.10243e-05
-3.25044e-05
-1.24401e-05
-3.24479e-05
-1.40714e-05
-3.30104e-05
-3.41715e-05
-1.58659e-05
-6.71259e-07
-3.25207e-05
-1.15262e-06
-3.47326e-05
-1.41315e-06
-3.67151e-05
-1.57323e-06
-3.78585e-05
-1.71867e-06
-3.84562e-05
-1.88695e-06
-3.8712e-05
-2.09112e-06
-3.87374e-05
-2.33487e-06
-3.86009e-05
-2.61928e-06
-3.83487e-05
-2.94576e-06
-3.80107e-05
-3.31712e-06