/*--------------------------------*- C++ -*----------------------------------*\
  =========                 |
  \\      /  F ield         | OpenFOAM: The Open Source CFD Toolbox
   \\    /   O peration     | Website:  https://openfoam.org
    \\  /    A nd           | Version:  9
     \\/     M anipulation  |
\*---------------------------------------------------------------------------*/
FoamFile
{
    format      ascii;
    class       volScalarField;
    location    "0.35";
    object      alpha.water;
}
// * * * * * * * * * * * * * * * * * * * * * * * * * * * * * * * * * * * * * //

dimensions      [0 0 0 0 0 0 0];

internalField   nonuniform List<scalar> 
2268
(
1
1
1
1
1
1
1
1
1
1
1
1
1
1
1
1
1
1
1
1
0.99449
0.923284
0.923131
1
1
1
1
1
1
1
1
1
1
1
1
1
1
1
1
1
1
1
1
1
0.952665
0.960117
1
1
1
1
1
1
1
1
1
1
1
1
1
1
1
1
1
1
1
1
1
0.999473
0.999361
1
1
1
1
1
1
1
1
1
1
1
1
1
1
1
1
1
1
1
1
1
0.999929
0.993522
1
1
1
1
1
1
1
1
1
1
1
1
1
1
1
1
1
1
1
1
1
1
0.993504
1
1
1
1
1
1
1
1
1
1
1
1
1
1
1
1
1
1
1
1
1
1
0.993704
1
1
1
1
1
1
1
1
1
1
1
1
1
1
1
1
1
1
1
1
1
1
0.993893
1
1
1
1
1
1
1
1
1
1
1
1
1
1
1
1
1
1
1
1
1
1
0.994121
2.6066e-18
8.91641e-19
4.72775e-19
1.07898e-18
1.37194e-17
4.49758e-17
1.35108e-16
4.34888e-17
5.82963e-18
5.05939e-19
3.93232e-20
5.50393e-22
1.75524e-23
6.30141e-25
6.10122e-26
1.81962e-27
3.02676e-29
2.50954e-31
1.32153e-31
1.23033e-17
4.36144e-18
6.83092e-18
2.48101e-16
1.63771e-15
3.01288e-15
2.54903e-15
1.20977e-15
3.45166e-16
5.64428e-17
4.78599e-18
4.8974e-20
5.50335e-22
1.75516e-23
3.55071e-24
1.03572e-25
1.15909e-27
5.6814e-30
1.32153e-31
1.85282e-16
1.44603e-16
6.2286e-16
1.53541e-14
7.75155e-14
9.42527e-14
1.01373e-13
6.04441e-14
2.23237e-14
3.40176e-15
2.82815e-16
3.90857e-18
4.56726e-20
1.35771e-21
1.32054e-22
2.78933e-24
2.82746e-26
2.29055e-28
4.84071e-30
2.41079e-15
3.82832e-15
3.14502e-14
5.42797e-13
1.9032e-12
4.41771e-13
6.76187e-13
6.76495e-13
4.5313e-13
1.15956e-13
1.18932e-14
1.85525e-16
2.08392e-18
6.15286e-20
3.86245e-21
6.37715e-23
9.71751e-25
8.5037e-27
2.19502e-28
1.42352e-14
6.93403e-14
1.30661e-12
1.35546e-11
3.39592e-11
1.11614e-11
1.21951e-11
9.39911e-12
3.07691e-12
1.37122e-12
2.92004e-13
8.11663e-15
6.01015e-17
2.02808e-18
9.91929e-20
1.8939e-21
3.09786e-23
2.80841e-25
8.04015e-27
3.00625e-14
-6.84652e-14
2.48582e-11
3.23473e-10
6.28924e-10
2.71747e-10
2.43763e-10
1.70331e-10
5.25505e-11
1.08081e-11
2.51689e-12
2.1659e-13
1.52336e-15
5.41684e-17
2.40427e-18
5.41555e-20
9.40038e-22
8.82541e-24
2.6427e-25
4.60927e-14
-5.47448e-14
1.51257e-10
5.52377e-09
8.94978e-09
5.41091e-09
4.06846e-09
2.70034e-09
8.6346e-10
1.7734e-10
2.31074e-11
2.19613e-12
3.54371e-14
1.35058e-15
5.93772e-17
1.51764e-18
2.80198e-20
2.74841e-22
8.25609e-24
1.08849e-13
6.57439e-14
8.14309e-13
3.95565e-09
9.64445e-08
9.26153e-08
5.80083e-08
3.62576e-08
1.20427e-08
2.68536e-09
3.57801e-10
2.04689e-11
7.83123e-13
3.27131e-14
1.55244e-15
4.30731e-17
8.50772e-19
8.85074e-21
2.55611e-22
1
0.999999
0.999996
0.999995
0.999995
0.999995
0.999996
0.999996
0.999997
0.999997
0.999997
0.999997
0.999997
0.999997
0.999997
0.999997
0.999997
0.999999
1
1
1
1
0.997044
0.999999
0.999976
0.999947
0.999942
0.999946
0.999952
0.999957
0.999961
0.999965
0.999968
0.999971
0.999968
0.999963
0.999963
0.999953
0.999928
0.999923
0.999971
1
1
1
1
1
0.999932
0.999396
0.998944
0.998942
0.99903
0.999132
0.99921
0.999266
0.999312
0.999351
0.999394
0.999456
0.999519
0.999563
0.999339
0.998739
0.998272
0.998527
0.999694
1
1
1
0.999999
0.951088
0.828838
0.720676
0.724793
0.742504
0.762987
0.77627
0.782574
0.783528
0.779767
0.772786
0.771025
0.773201
0.764414
0.759953
0.78319
0.841771
0.916872
0.986338
0.999973
1
1
0.999989
0.261515
0.122106
0.0460389
0.0497155
0.0587746
0.0694346
0.0767232
0.080191
0.0802309
0.0768654
0.0717784
0.0704563
0.0709392
0.0639279
0.0573238
0.0705086
0.108508
0.188167
0.342498
0.598779
0.92279
0.999977
0.999982
-2.36058e-09
-1.83766e-09
-2.12309e-09
-2.6112e-09
-3.66199e-07
-1.90827e-06
-1.02299e-06
-3.41096e-07
-9.11587e-08
-2.1818e-08
-5.07444e-09
-1.24846e-09
-3.45855e-10
-1.0622e-10
-3.38825e-11
-1.08255e-11
-3.11207e-12
-5.43484e-13
-2.4003e-27
0.00662334
0.054464
0.162799
0.326791
-3.0082e-09
-4.48386e-09
-7.10406e-09
-7.97263e-09
-7.59112e-09
-6.42764e-09
-5.07499e-09
-3.82378e-09
-2.76789e-09
-1.91264e-09
-1.2357e-09
-7.21025e-10
-3.66238e-10
-1.57475e-10
-5.96834e-11
-2.16764e-11
-7.37189e-12
-9.98504e-13
-7.68098e-26
3.67069e-10
4.79921e-09
4.33202e-07
1.41904e-05
-2.67429e-09
-4.72285e-09
-8.58547e-09
-9.11343e-09
-8.41033e-09
-7.06938e-09
-5.5617e-09
-4.16773e-09
-2.99277e-09
-2.04288e-09
-1.28127e-09
-6.91334e-10
-2.82131e-10
-4.5078e-11
1.13838e-11
1.50989e-11
2.4313e-12
-3.00038e-28
1.28995e-08
5.44382e-07
6.49396e-07
5.33042e-07
5.02355e-07
-1.4613e-09
-2.91324e-09
-5.46053e-09
-5.94735e-09
-5.52533e-09
-4.66783e-09
-3.69178e-09
-2.77658e-09
-1.98259e-09
-1.30675e-09
-7.15179e-10
-2.39711e-10
5.67777e-11
3.31244e-10
3.20229e-10
1.49975e-10
4.91446e-12
8.4942e-13
5.68558e-07
1.82723e-06
1.84772e-06
1.85043e-06
1.84772e-06
-5.49515e-10
-1.16124e-09
-2.18596e-09
-2.52498e-09
-2.42138e-09
-2.08283e-09
-1.66279e-09
-1.24887e-09
-8.60118e-10
-4.82858e-10
-8.69048e-11
1.92399e-10
6.06794e-10
6.30679e-10
5.44015e-10
2.23679e-10
1.49697e-11
1.96914e-11
4.72248e-07
1.69791e-06
1.82727e-06
1.8437e-06
1.83621e-06
-1.49445e-10
-3.00607e-10
-5.71743e-10
-7.28898e-10
-7.49019e-10
-6.70552e-10
-5.43981e-10
-4.01067e-10
-2.37895e-10
-3.37421e-11
1.96223e-10
6.16219e-10
6.24946e-10
6.1593e-10
5.00867e-10
2.25327e-10
3.58509e-11
9.31498e-09
5.63849e-08
7.00332e-08
2.6379e-08
4.716e-11
5.20855e-11
-3.24058e-11
-5.29473e-11
-1.00213e-10
-1.62304e-10
-1.92428e-10
-1.8322e-10
-1.49045e-10
-9.96159e-11
-2.68334e-11
7.73612e-11
3.13433e-10
4.14143e-10
4.36095e-10
2.72392e-10
1.72902e-10
1.65321e-10
9.7353e-11
3.87134e-11
4.04528e-11
4.27237e-11
4.42534e-11
4.6396e-11
5.01263e-11
-8.90203e-12
-1.10749e-11
-1.96527e-11
-4.32193e-11
-5.70458e-11
-5.41219e-11
-4.04868e-11
-1.87638e-11
1.11058e-11
1.0627e-10
1.0879e-10
9.76394e-11
6.92892e-11
3.73172e-11
1.71358e-11
2.05251e-11
3.34459e-11
3.85034e-11
3.94971e-11
4.34162e-11
5.41621e-11
7.74752e-11
1.07725e-10
-3.377e-12
-4.39568e-12
-7.59671e-12
-1.55946e-11
-1.94161e-11
-1.65628e-11
-1.0114e-11
-3.10072e-13
1.93976e-11
2.19712e-11
2.19005e-11
1.7836e-11
8.32781e-12
3.53346e-12
4.70186e-12
1.02976e-11
2.33087e-11
3.98219e-11
5.06715e-11
5.71951e-11
6.31709e-11
6.90328e-11
9.36259e-11
-1.10829e-12
-1.51038e-12
-2.58839e-12
-4.89174e-12
-5.6531e-12
-4.17882e-12
-1.77049e-12
1.74442e-12
2.82023e-12
4.69231e-12
5.3521e-12
4.07647e-12
1.35432e-12
1.07122e-12
1.82453e-12
4.0522e-12
6.66236e-12
7.52683e-12
8.30155e-12
1.05917e-11
1.66394e-11
2.96683e-11
7.46906e-11
-3.04491e-13
-4.30284e-13
-7.32394e-13
-1.26959e-12
-1.33432e-12
-8.15285e-13
-1.52609e-13
1.49491e-13
5.90822e-13
1.06295e-12
1.16554e-12
7.6275e-13
2.26192e-13
2.57777e-13
4.78919e-13
6.78337e-13
7.88327e-13
9.81181e-13
1.76125e-12
4.708e-12
1.26336e-11
2.86862e-11
1.05477e-10
-6.58892e-14
-9.51817e-14
-1.59455e-13
-2.50676e-13
-2.34078e-13
-1.11176e-13
1.40672e-16
3.71806e-14
1.08607e-13
1.82053e-13
1.80777e-13
9.8269e-14
3.14722e-14
4.75462e-14
8.83351e-14
1.09103e-13
1.25967e-13
2.15465e-13
8.34159e-13
3.62544e-12
1.20373e-11
3.04062e-11
1.3318e-10
-9.96519e-15
-1.4474e-14
-2.33121e-14
-3.23512e-14
-2.65309e-14
-9.00911e-15
-2.25111e-16
5.14873e-15
1.51034e-14
2.2112e-14
2.10498e-14
1.00431e-14
3.55988e-15
5.68422e-15
1.05921e-14
1.26956e-14
1.69398e-14
6.89588e-14
5.2024e-13
2.81875e-12
1.07068e-11
2.75822e-11
1.35513e-10
-7.84715e-16
-1.12184e-15
-1.69196e-15
-2.07385e-15
-1.48933e-15
-2.86619e-16
6.85153e-17
5.26562e-16
1.45223e-15
2.10915e-15
2.0467e-15
9.4761e-16
3.5357e-16
4.09475e-16
6.30931e-16
9.05213e-16
2.69289e-15
3.02531e-14
2.97526e-13
1.91225e-12
8.1358e-12
2.35547e-11
1.05513e-10
-7.83709e-22
-5.27768e-21
-1.51307e-20
-1.55154e-20
-9.60791e-23
3.01618e-22
3.45603e-18
3.5816e-17
1.01231e-16
1.47211e-16
1.54324e-16
7.36894e-17
2.78727e-17
3.05056e-17
4.1599e-17
8.36956e-17
7.95009e-16
1.2526e-14
1.49684e-13
1.23173e-12
6.19501e-12
2.27095e-11
1.1354e-10
-2.06654e-22
-1.48057e-21
-4.70851e-21
-6.12162e-21
-1.69091e-23
2.97729e-22
3.5516e-19
2.1356e-18
4.95097e-18
6.7785e-18
6.2267e-18
2.92427e-18
1.1721e-18
1.12312e-18
2.01498e-18
1.71179e-17
2.95025e-16
4.90198e-15
7.42647e-14
7.91793e-13
5.0715e-12
2.58166e-11
1.67923e-10
-2.79169e-23
-2.13094e-22
-7.40015e-22
-1.08925e-21
-1.32026e-24
3.16442e-22
5.52893e-20
2.09967e-19
2.95973e-19
2.73995e-19
1.01901e-19
3.92866e-20
3.16198e-20
4.0584e-20
3.6847e-19
7.25941e-18
1.23558e-16
2.18733e-15
3.90111e-14
5.23405e-13
4.61324e-12
3.56826e-11
2.25186e-10
-1.11629e-28
-4.21668e-32
-1.46866e-35
-2.88607e-38
-2.85046e-33
2.10458e-22
3.7511e-21
1.81003e-20
2.71673e-20
2.47077e-20
7.02574e-21
1.32567e-21
7.87226e-22
6.95734e-21
1.77169e-19
3.54103e-18
6.48093e-17
1.18351e-15
2.22125e-14
3.55442e-13
4.3977e-12
4.55017e-11
2.62633e-10
-2.81785e-43
-2.74121e-40
-1.68265e-40
-6.38561e-38
-1.64125e-32
7.97978e-29
1.37665e-25
2.29928e-24
6.46589e-24
8.32665e-24
6.98112e-24
7.73233e-24
1.10751e-22
3.49357e-21
8.55289e-20
1.87974e-18
3.75661e-17
7.00439e-16
1.30078e-14
2.32225e-13
3.9107e-12
5.06598e-11
2.73837e-10
-5.98128e-43
-8.05439e-40
-9.80173e-40
-3.94338e-37
-2.74714e-34
2.96078e-30
3.60771e-27
5.02326e-26
1.49055e-25
2.22696e-25
2.7192e-25
1.47995e-24
5.1675e-23
1.4922e-21
4.01293e-20
9.63195e-19
2.05142e-17
3.97012e-16
7.32783e-15
1.37958e-13
2.90848e-12
5.11528e-11
2.48641e-10
1.62314e-45
8.87791e-47
4.34737e-47
-8.12661e-48
-1.37747e-43
2.93587e-33
2.24996e-29
9.31853e-28
3.57013e-27
5.83273e-27
1.34671e-26
4.67983e-25
1.75427e-23
5.54398e-22
1.62204e-20
4.16769e-19
9.58259e-18
1.99179e-16
3.82308e-15
7.40897e-14
1.89251e-12
3.8466e-11
1.97854e-10
3.51697e-45
5.19147e-46
2.56795e-46
1.23959e-46
2.15077e-42
4.4185e-36
4.34947e-32
4.55459e-30
2.23006e-29
7.82181e-29
2.87371e-27
1.47385e-25
5.1621e-24
1.71624e-22
5.2732e-21
1.44344e-19
3.56404e-18
8.10314e-17
1.6656e-15
3.34723e-14
1.11528e-12
2.80083e-11
1.53913e-10
1.64276e-45
4.83069e-46
1.89488e-46
-3.82096e-44
-1.87582e-40
1.17548e-36
9.00238e-35
5.72122e-33
3.09411e-31
1.85577e-29
9.6926e-28
3.55575e-26
1.34394e-24
4.60966e-23
1.44454e-21
4.06798e-20
1.04504e-18
2.48213e-17
5.09871e-16
1.03246e-14
5.41243e-13
1.72972e-11
1.094e-10
6.88979e-47
4.70624e-47
2.58081e-47
4.33991e-47
1.62732e-42
2.24376e-37
2.3953e-35
1.69673e-33
1.01266e-31
4.81567e-30
2.12039e-28
8.83786e-27
3.39358e-25
1.18816e-23
3.75845e-22
1.07769e-20
2.79041e-19
6.26027e-18
1.04273e-16
1.71348e-15
1.78528e-13
8.46965e-12
6.62113e-11
4.65074e-48
2.59353e-48
0
8.92122e-48
2.6097e-43
3.56133e-38
3.47763e-36
2.55535e-34
1.60704e-32
8.93849e-31
4.41779e-29
1.95923e-27
7.81839e-26
2.83324e-24
9.28049e-23
2.70034e-21
6.79264e-20
1.38811e-18
2.16369e-17
3.62834e-16
3.52577e-14
3.03587e-12
3.23435e-11
2.20714e-49
-1.75181e-49
-6.7486e-48
-9.10633e-46
1.15225e-44
3.76025e-39
4.35579e-37
3.49933e-35
2.38275e-33
1.40529e-31
7.26128e-30
3.33904e-28
1.36607e-26
5.02043e-25
1.64898e-23
4.6212e-22
1.00513e-20
2.04508e-19
5.71583e-18
1.49429e-16
6.13281e-15
8.61018e-13
1.25315e-11
5.95961e-51
-1.18126e-51
0
3.04089e-49
5.65373e-46
2.57926e-40
3.58771e-38
3.11545e-36
2.25321e-34
1.38023e-32
7.10658e-31
3.17266e-29
1.19364e-27
4.08426e-26
1.43613e-24
5.41272e-23
1.89498e-21
6.22816e-20
1.84708e-18
4.74302e-17
1.4657e-15
1.82592e-13
3.81421e-12
1.04089e-52
-7.69765e-51
-1.15012e-48
-2.17722e-50
1.07553e-47
1.34909e-41
1.88551e-39
1.75303e-37
1.30548e-35
8.40056e-34
4.54889e-32
2.28008e-30
1.16555e-28
5.71111e-27
2.56843e-25
1.05573e-23
3.97121e-22
1.35713e-20
4.17181e-19
1.0985e-17
2.73558e-16
2.67647e-14
9.45931e-13
7.60935e-55
-1.63756e-50
-4.29354e-48
-2.49479e-46
-1.07573e-48
4.41146e-43
6.84133e-41
6.56975e-39
5.44824e-37
3.98491e-35
2.90257e-33
1.92648e-31
1.15386e-29
6.27896e-28
3.11916e-26
1.41146e-24
5.77398e-23
2.11281e-21
6.84453e-20
1.94585e-18
4.48256e-17
2.86301e-15
1.82712e-13
1.74647e-56
-1.10809e-52
-3.74602e-50
-3.96227e-48
-1.33797e-48
8.61309e-45
1.59647e-42
1.78373e-40
1.84039e-38
1.73372e-36
1.44235e-34
1.07242e-32
7.19784e-31
4.38744e-29
2.42606e-27
1.2085e-25
5.36515e-24
2.09959e-22
7.18065e-21
2.13481e-19
5.09729e-18
3.12765e-16
2.14009e-14
-2.66336e-59
-9.38849e-56
-3.9561e-54
-4.40866e-67
1.10616e-51
1.37972e-46
2.41723e-44
3.42946e-42
4.19401e-40
4.49363e-38
4.26155e-36
3.61639e-34
2.77113e-32
1.91744e-30
1.19054e-28
6.57451e-27
3.19486e-25
1.35166e-23
4.94642e-22
1.56148e-20
3.94291e-19
2.49897e-17
1.84298e-15
-3.41968e-58
-3.34185e-55
-5.2076e-53
-2.80401e-51
-1.85769e-53
7.15344e-49
1.56156e-46
2.57784e-44
3.75939e-42
4.86219e-40
5.62489e-38
5.83649e-36
5.42709e-34
4.48278e-32
3.26653e-30
2.07963e-28
1.14555e-26
5.41445e-25
2.19026e-23
7.58682e-22
2.09645e-20
1.49821e-18
1.19272e-16
-1.63538e-60
-6.33009e-58
-1.14395e-55
-1.31944e-53
-6.48225e-52
4.20893e-52
1.91822e-49
3.99904e-47
7.57294e-45
1.30495e-42
2.02496e-40
2.79882e-38
3.42135e-36
3.65554e-34
3.3688e-32
2.64724e-30
1.75982e-28
9.85689e-27
4.6495e-25
1.85199e-23
5.87673e-22
6.70902e-20
5.56144e-18
0
0
-9.16189e-67
-1.39729e-64
-3.85937e-62
6.61349e-56
3.43377e-53
9.83609e-51
2.59477e-48
6.27755e-46
1.36309e-43
2.63994e-41
4.50625e-39
6.6854e-37
8.49706e-35
9.13048e-33
8.22061e-31
6.17165e-29
3.85859e-27
2.00844e-25
8.36255e-24
3.02285e-21
1.57279e-19
-3.59762e-66
-2.37236e-64
-1.5322e-62
-5.90309e-61
-3.82191e-63
-1.58964e-60
1.03924e-58
6.26781e-56
2.72025e-53
1.07361e-50
3.73655e-48
6.24799e-46
2.12477e-43
5.94077e-41
1.35901e-38
2.53705e-36
3.86089e-34
4.96179e-32
5.08051e-30
3.99461e-28
4.23878e-26
1.49947e-22
2.36337e-21
-7.2175e-73
-3.92133e-71
-3.01939e-69
-1.70679e-67
-2.02498e-66
-4.91759e-68
-4.33209e-68
-1.07914e-65
-1.34152e-63
-8.43497e-61
-4.01584e-58
4.08447e-57
2.91732e-52
4.03343e-49
3.6937e-46
2.3563e-43
1.14313e-40
4.36661e-38
1.32254e-35
3.08675e-33
2.07053e-29
6.37098e-25
1.61145e-23
0
-1.06135e-101
-8.15202e-89
-8.72397e-87
-1.69912e-80
-1.55346e-79
-1.13475e-76
-7.5554e-77
-4.83132e-75
1.64347e-70
-2.15884e-68
-4.43449e-65
-8.17511e-62
-1.28388e-58
-1.67336e-55
-1.78334e-52
-1.54102e-49
-1.07437e-46
-6.02302e-44
-2.70748e-41
-9.73034e-39
1.60501e-29
1.07011e-27
0.996239
0.996239
0.997179
0.999392
0.999912
0.997026
0.998085
0.999448
0.99999
0.999824
0.999853
0.999844
0.999982
0.999982
0.999975
0.999961
0.999982
0.999975
0.999964
0.999954
0.413938
0.471031
0.681953
0.975794
0.000557811
0.00235757
0.0145159
0.0547421
4.61722e-07
4.50025e-07
9.48278e-07
3.76042e-06
1.84772e-06
9.423e-07
5.84091e-09
-2.30426e-07
1.13844e-06
1.36858e-07
1.40638e-10
1.13137e-08
3.01049e-11
4.34807e-11
7.20303e-11
8.26699e-11
5.55249e-11
6.26032e-11
6.87668e-11
8.08289e-11
1.3515e-10
1.54839e-10
1.85882e-10
2.24367e-10
1.30227e-10
1.64342e-10
3.36233e-10
3.40148e-10
1.41484e-10
2.11108e-10
5.42713e-10
5.64e-10
2.08373e-10
2.7429e-10
5.64881e-10
9.02132e-10
2.5705e-10
2.77972e-10
4.77072e-10
1.09733e-09
2.32546e-10
2.21669e-10
3.77167e-10
1.52031e-09
2.07419e-10
2.02613e-10
2.0905e-10
4.00692e-09
2.27948e-10
2.0905e-10
2.31832e-10
9.42952e-09
2.6731e-10
2.3008e-10
2.76209e-10
1.00778e-08
2.97793e-10
7.62514e-10
4.62388e-10
1.30237e-08
3.06324e-10
1.19631e-09
3.26714e-09
3.51682e-08
3.27341e-10
1.77088e-09
7.78437e-09
3.19751e-08
3.32486e-10
2.03715e-09
9.61808e-09
3.51032e-08
2.95091e-10
1.48486e-09
6.88563e-09
2.47436e-08
2.55348e-10
1.01131e-09
4.4612e-09
1.65023e-08
2.16915e-10
7.88122e-10
2.94072e-09
9.78314e-09
1.61761e-10
6.05349e-10
1.7951e-09
4.86618e-09
9.74567e-11
3.73777e-10
9.6802e-10
2.18925e-09
4.37853e-11
1.6514e-10
4.57087e-10
1.11322e-09
1.57029e-11
6.36955e-11
1.91903e-10
4.90909e-10
4.70442e-12
2.20606e-11
6.59515e-11
1.44952e-10
1.22237e-12
6.07466e-12
1.45524e-11
2.43133e-11
1.58964e-13
9.16924e-13
2.06596e-12
2.80797e-12
1.4653e-14
9.94279e-14
2.26061e-13
2.78881e-13
9.73064e-16
8.26524e-15
2.17628e-14
2.75775e-14
4.34348e-17
5.52546e-16
1.71925e-15
2.26584e-15
8.73444e-19
2.31398e-17
9.16371e-17
1.34352e-16
5.2532e-21
4.35283e-19
2.78321e-18
5.25783e-18
2.25808e-24
1.43448e-21
2.26707e-20
4.58779e-20
0
0
-1.60243e-37
-1.20724e-25
0.234712
-9.74805e-08
-2.33222e-06
-3.26743e-07
2.6723e-07
1.4034e-06
1.32912e-06
4.48826e-07
1.46931e-07
3.64294e-08
6.86472e-09
4.63634e-10
1.76125e-11
7.74666e-13
4.63702e-14
1.48343e-15
3.97813e-17
4.88402e-19
8.70976e-21
0.982166
0.85822
0.334021
0.00268472
5.25687e-06
1.22997e-05
5.46384e-05
2.17755e-05
6.12616e-06
1.20437e-06
1.97904e-07
1.46013e-08
4.63829e-10
1.53523e-11
3.96232e-13
1.88697e-14
9.89494e-16
3.81726e-17
3.34277e-19
0.99988
0.999802
0.982237
0.901146
0.48116
0.0395997
0.000149035
6.46622e-05
0.000149465
4.98566e-05
4.23984e-06
2.69877e-07
1.28231e-08
5.46667e-10
1.95536e-11
5.19206e-13
4.24887e-14
1.98209e-15
2.08818e-17
0.999955
0.999942
0.999914
0.999811
0.996823
0.897283
0.398446
0.0187187
0.000389449
0.000135801
3.59389e-05
3.54948e-06
2.49243e-07
1.50209e-08
8.66097e-10
4.16325e-11
1.98887e-12
5.32119e-14
-7.06719e-16
0.999945
0.99994
0.999936
0.999915
0.999806
0.999663
0.987452
0.660764
0.0942366
0.00133144
0.000267404
4.0761e-05
3.61525e-06
3.57585e-07
2.99197e-08
2.02704e-09
1.07052e-10
6.43679e-13
-2.12466e-13
0.999948
0.999939
0.999916
0.999853
0.999748
0.999664
0.999608
0.999062
0.70009
0.108735
0.00358975
0.000599433
7.86239e-05
9.11168e-06
9.95564e-07
9.00066e-08
6.08558e-09
6.52187e-11
1.76688e-12
0.11623
0.257136
0.637426
0.965691
0.999692
0.999611
0.998876
0.998334
0.994225
0.595094
0.0536994
0.00356269
0.000593292
8.09508e-05
9.97425e-06
9.2582e-07
5.6115e-08
8.34877e-10
1.75832e-10
2.31532e-06
0.00117799
0.0188361
0.0489532
0.182765
0.663975
0.98863
0.997777
0.992689
0.928041
0.352364
0.0104209
0.00197276
0.000302735
3.87717e-05
4.01305e-06
2.67628e-07
5.30809e-09
2.09428e-09
1.3716e-07
2.34222e-09
1.4914e-09
0
-8.05407e-20
0.00268162
0.215812
0.844241
0.987914
0.970077
0.671653
0.0834703
0.00431956
0.000721053
9.74572e-05
1.04729e-05
7.63098e-07
2.1914e-08
1.21947e-08
8.07026e-09
7.30136e-11
0
-2.63631e-08
-1.28157e-08
-1.63753e-10
3.36097e-06
0.253446
0.88865
0.954659
0.826668
0.221193
0.0076646
0.00134911
0.000194737
2.16405e-05
1.61453e-06
6.39967e-08
4.31067e-08
1.11597e-10
1.38353e-10
1.92736e-10
-7.22091e-11
9.28232e-11
-4.28827e-10
-5.75188e-08
0.0103465
0.577719
0.935162
0.854308
0.331972
0.0105425
0.00193425
0.000295484
3.48118e-05
2.6817e-06
1.48528e-07
1.08164e-07
1.66715e-10
2.10365e-10
2.3995e-10
3.38173e-10
3.35842e-10
-2.48262e-09
-3.13164e-09
1.28252e-06
0.281114
0.849815
0.823697
0.418089
0.0210799
0.00231625
0.000364761
4.46838e-05
3.64358e-06
2.15733e-07
2.03292e-07
3.49208e-10
1.32884e-09
1.79342e-09
1.59134e-09
6.75667e-10
-2.89805e-11
4.80218e-10
5.71995e-08
0.120284
0.742146
0.792266
0.479011
0.0325929
0.0025906
0.000405863
4.93517e-05
4.10455e-06
3.68948e-07
3.02965e-07
2.76792e-10
7.80016e-09
2.43361e-09
1.44398e-09
8.1101e-10
6.16246e-10
2.29379e-09
7.19861e-09
0.0540245
0.633838
0.768324
0.467251
0.0342432
0.00255236
0.000400487
4.75785e-05
4.00815e-06
3.83968e-07
3.13814e-07
2.27285e-10
2.42322e-10
2.46217e-06
3.86949e-06
3.78401e-07
-6.00866e-09
7.21512e-09
4.91628e-08
0.0216101
0.547356
0.726777
0.415655
0.0258697
0.002269
0.000357471
4.7504e-05
4.39276e-06
4.73761e-07
2.33806e-07
3.09714e-10
2.26745e-10
4.22622e-06
2.37904e-05
2.66392e-05
5.27755e-06
4.91802e-08
3.13877e-07
0.0298493
0.508462
0.686707
0.320163
0.0122252
0.0018079
0.000305737
5.30545e-05
6.4793e-06
5.19546e-07
1.65734e-07
5.21723e-10
2.42321e-10
2.82119e-06
2.63879e-05
2.68178e-05
1.87661e-05
1.08946e-06
7.01083e-07
0.0626342
0.513875
0.641677
0.286542
0.00957933
0.00140979
0.00023348
5.2715e-05
6.7387e-06
5.4681e-07
1.12763e-07
9.30142e-10
2.81159e-10
3.97515e-10
2.09068e-05
2.68912e-05
2.62019e-05
2.77457e-06
1.24162e-06
0.174753
0.542151
0.591945
0.298949
0.0107294
0.00110424
0.000185451
4.63035e-05
6.67145e-06
5.52343e-07
7.81362e-08
1.54303e-09
3.97515e-10
8.08613e-10
2.15757e-05
2.70235e-05
1.99853e-05
3.28191e-06
2.00607e-06
0.296088
0.530252
0.55654
0.237178
0.00619814
0.00106666
0.000214714
4.60255e-05
6.19242e-06
5.08636e-07
5.15773e-08
1.9801e-09
7.77416e-10
9.63821e-06
3.71166e-05
2.68969e-05
5.84417e-06
4.73021e-06
3.28213e-06
0.215194
0.494838
0.362236
0.0970003
0.00557259
0.00129309
0.000283321
4.63279e-05
5.48419e-06
4.3459e-07
3.37795e-08
8.52041e-09
2.2973e-09
2.15082e-05
4.18303e-05
2.26076e-05
6.18287e-06
5.81501e-06
4.73043e-06
0.122314
0.124074
0.0442907
0.0189295
0.00896158
0.00127353
0.000276036
4.07232e-05
4.39682e-06
3.38631e-07
2.28615e-08
1.0987e-07
7.72697e-09
5.93244e-06
4.36273e-05
1.74912e-05
7.57504e-06
6.18287e-06
0.0950883
0.0671171
0.0112536
0.00597858
0.00274733
0.00416684
0.00142873
0.000201643
3.01411e-05
3.20364e-06
2.43345e-07
1.53734e-08
1.49659e-07
2.93068e-08
7.34992e-08
9.45778e-05
2.78999e-05
9.28458e-06
0.0368797
0.206476
0.218139
0.0486834
0.00240822
0.00130774
0.000678465
0.00092493
0.000163502
1.92745e-05
2.12555e-06
1.62874e-07
9.90989e-09
1.43443e-07
2.18797e-07
3.41633e-06
9.56103e-05
4.36566e-05
1.10738e-05
0.0628328
0.218198
0.219894
0.174451
0.0103627
0.000620313
0.000271266
9.98291e-05
0.000117199
1.25074e-05
1.26429e-06
1.02272e-07
6.14786e-09
1.02487e-07
5.41253e-07
5.47421e-07
5.75795e-05
9.10367e-05
1.68897e-05
0.000260147
0.214465
0.22276
0.225995
0.0518494
0.000678431
0.000140674
4.36819e-05
2.25433e-05
9.03333e-06
7.30947e-07
6.14335e-08
3.73415e-09
9.82958e-08
4.04833e-07
2.20591e-06
9.24394e-06
0.000273022
2.25818e-05
3.36143e-05
0.171188
0.225693
0.227152
0.108679
0.000967758
0.000149456
9.63773e-06
4.75276e-06
4.45109e-06
4.89764e-07
3.73288e-08
2.27857e-09
6.14646e-08
2.27304e-07
1.83667e-06
1.42898e-05
0.000165367
8.25364e-05
7.47965e-05
0.0721429
0.226647
0.228024
0.228456
0.0252523
0.000167427
1.72704e-05
2.77617e-06
9.9694e-07
3.2289e-07
2.42641e-08
1.4466e-09
3.84479e-08
1.53548e-07
1.25448e-06
8.85148e-06
6.2417e-05
0.000790617
0.000337149
0.000464279
0.219252
0.226647
0.227475
0.0781215
0.000241594
1.6974e-05
3.62799e-06
8.7446e-07
2.05027e-07
1.69996e-08
9.01738e-10
2.23309e-08
9.0086e-08
6.46122e-07
5.03547e-06
3.51213e-05
0.000428581
0.00189704
0.00129311
0.119703
0.226097
0.226192
0.0747403
0.000784556
0.000141187
8.01309e-06
9.194e-07
1.19302e-07
1.02397e-08
4.82135e-10
1.00966e-08
4.17662e-08
3.07156e-07
2.42663e-06
1.89276e-05
0.000117376
0.00297591
0.00513297
0.0101269
0.157036
0.137966
0.0390859
0.00149686
8.49027e-05
7.06901e-06
5.50362e-07
5.31453e-08
4.27024e-09
2.32218e-10
4.45646e-09
1.96257e-08
1.48804e-07
1.09212e-06
7.18004e-06
5.03708e-05
0.00172564
0.00401555
0.00471117
0.0115181
0.00837409
0.00409854
0.000765388
7.08207e-07
8.28594e-08
1.51059e-08
7.2198e-09
1.60313e-09
1.22295e-10
2.07655e-09
9.70664e-09
7.87964e-08
5.82487e-07
3.7745e-06
2.63797e-05
0.00049045
0.00150369
0.0018597
0.0012116
0.00107814
0.000143967
9.80285e-06
-1.02146e-07
1.2904e-08
5.06464e-09
9.44152e-10
6.03371e-10
6.82938e-11
6.22609e-10
3.14403e-09
2.70688e-08
2.05703e-07
1.3497e-06
9.14905e-06
0.000173712
0.000454795
0.000462401
0.000340081
0.000254781
5.13686e-05
3.67676e-06
8.40954e-08
4.06666e-09
2.03769e-09
5.28508e-10
3.32568e-10
3.74893e-11
1.48398e-10
7.25779e-10
6.25931e-09
4.96324e-08
3.37823e-07
3.66675e-06
4.86887e-05
0.000106076
0.000111545
9.52063e-05
6.46538e-05
1.71695e-05
1.42477e-06
3.42625e-08
3.98489e-09
9.45161e-10
2.75068e-10
2.09697e-10
1.89271e-11
2.10461e-11
1.41818e-10
1.21088e-09
1.00544e-08
6.75049e-08
1.18135e-06
1.11071e-05
2.18185e-05
2.49079e-05
2.35223e-05
1.62816e-05
5.35225e-06
4.93929e-07
2.14023e-08
1.99781e-09
4.68144e-10
1.67258e-10
1.22121e-10
8.70241e-12
2.40378e-12
2.32631e-11
1.76473e-10
1.35614e-09
9.38363e-09
2.29899e-07
2.16185e-06
4.10097e-06
5.19787e-06
5.31768e-06
4.15606e-06
1.56565e-06
1.59322e-07
9.63278e-09
1.02061e-09
2.90217e-10
1.45618e-10
6.05453e-11
3.69808e-12
2.76947e-13
2.86438e-12
2.93374e-11
1.64733e-10
1.27074e-09
2.99281e-08
2.98016e-07
7.0734e-07
1.03023e-06
1.13719e-06
1.0193e-06
4.35045e-07
4.87437e-08
3.74815e-09
4.73817e-10
1.47493e-10
1.18258e-10
2.75021e-11
1.47579e-12
2.81038e-14
7.60609e-13
8.66122e-12
4.00993e-11
2.2887e-10
3.65424e-09
3.48097e-08
1.09145e-07
1.93094e-07
2.40697e-07
2.38535e-07
1.16316e-07
1.43508e-08
1.33234e-09
2.05242e-10
8.22139e-11
5.33985e-11
1.18326e-11
5.58705e-13
1.70645e-15
5.39396e-14
1.49644e-12
1.73337e-11
9.93012e-11
4.83471e-10
3.63353e-09
1.51744e-08
3.41243e-08
4.92819e-08
5.26546e-08
2.97318e-08
4.03868e-09
4.27041e-10
9.84445e-11
5.20015e-11
2.08533e-11
4.86094e-12
2.03609e-13
8.36523e-17
2.61722e-15
1.10697e-13
2.15024e-12
2.33834e-11
1.21473e-10
4.21215e-10
1.98426e-09
5.35187e-09
9.22245e-09
1.17953e-08
7.4097e-09
1.20704e-09
1.63438e-10
5.34707e-11
2.75882e-11
7.92394e-12
1.90521e-12
6.27783e-14
1.58107e-18
9.92294e-17
6.71439e-15
1.83825e-13
3.32347e-12
3.64449e-11
1.73811e-10
3.9489e-10
8.49714e-10
2.08901e-09
3.41667e-09
1.79697e-09
4.14737e-10
9.02499e-11
3.23764e-11
1.01338e-11
3.05229e-12
7.45057e-13
1.62285e-14
-1.89981e-24
9.59555e-20
1.93312e-16
1.46225e-14
2.91183e-13
4.56544e-12
3.46727e-11
1.04118e-10
2.75238e-10
9.35424e-10
1.73564e-09
5.12917e-10
1.15944e-10
3.30538e-11
9.70012e-12
2.14059e-12
6.67837e-13
1.65748e-13
1.62285e-14
)
;

boundaryField
{
    leftWall
    {
        type            zeroGradient;
    }
    rightWall
    {
        type            zeroGradient;
    }
    lowerWall
    {
        type            zeroGradient;
    }
    atmosphere
    {
        type            inletOutlet;
        inletValue      uniform 0;
        value           nonuniform List<scalar> 
46
(
0
0
0
0
0
0
0
0
0
0
0
0
0
0
0
0
0
0
0
0
0
0
0
0
0
0
0
0
0
0
1.46225e-14
2.91183e-13
4.56544e-12
3.46727e-11
1.04118e-10
2.75238e-10
9.35424e-10
1.73564e-09
5.12917e-10
1.15944e-10
3.30538e-11
9.70012e-12
2.14059e-12
6.67837e-13
1.65748e-13
1.62285e-14
)
;
    }
    defaultFaces
    {
        type            empty;
    }
}


// ************************************************************************* //
