/*--------------------------------*- C++ -*----------------------------------*\
  =========                 |
  \\      /  F ield         | OpenFOAM: The Open Source CFD Toolbox
   \\    /   O peration     | Website:  https://openfoam.org
    \\  /    A nd           | Version:  9
     \\/     M anipulation  |
\*---------------------------------------------------------------------------*/
FoamFile
{
    format      ascii;
    class       volScalarField;
    location    "0.35";
    object      epsilon;
}
// * * * * * * * * * * * * * * * * * * * * * * * * * * * * * * * * * * * * * //

dimensions      [0 2 -3 0 0 0 0];

internalField   nonuniform List<scalar> 
2268
(
0.0426147
0.138361
0.275999
0.416
0.557518
0.695484
0.835295
0.97755
1.12082
1.26209
1.39709
1.52061
1.6266
1.70806
1.75634
1.75672
1.72264
1.64299
1.51185
1.33744
1.12095
0.821063
0.52951
0.0525891
0.0913755
0.149573
0.206723
0.259477
0.310354
0.361187
0.412722
0.464877
0.516917
0.567646
0.615586
0.659143
0.696803
0.727414
0.750697
0.780971
0.820243
0.873488
0.944975
1.01063
0.883557
0.684428
0.0657927
0.0925577
0.135643
0.176003
0.21274
0.247342
0.281183
0.315041
0.349104
0.383086
0.416379
0.448214
0.477839
0.50478
0.529244
0.55305
0.584048
0.629695
0.700302
0.807534
0.94041
0.963796
1.19529
0.0791588
0.100786
0.135836
0.168672
0.198504
0.226367
0.253355
0.280148
0.30697
0.333674
0.359874
0.38509
0.408928
0.43136
0.453154
0.476712
0.508206
0.555745
0.630151
0.743605
0.894324
1.0366
1.80545
0.0936629
0.110973
0.140361
0.167942
0.193263
0.217115
0.240312
0.263362
0.286423
0.309381
0.331953
0.353817
0.374792
0.395113
0.415855
0.439649
0.472044
0.521107
0.597556
0.713696
0.875728
1.11713
2.341
0.106381
0.121216
0.146179
0.169498
0.191322
0.212332
0.233089
0.253894
0.274796
0.295659
0.316252
0.336355
0.355929
0.375384
0.395983
0.420453
0.45401
0.504597
0.583012
0.702886
0.880374
1.21667
2.90023
0.116735
0.130414
0.151902
0.171697
0.19069
0.20956
0.228647
0.248046
0.267681
0.287379
0.306934
0.3262
0.345236
0.364575
0.385595
0.41105
0.445924
0.498038
0.578493
0.703276
0.901613
1.33831
3.54165
0.125187
0.138394
0.157018
0.173875
0.190585
0.207847
0.225796
0.244332
0.263263
0.282377
0.301488
0.320508
0.339571
0.359288
0.381105
0.40776
0.444026
0.497606
0.579893
0.709394
0.929287
1.46409
4.43188
0.0350227
0.26256
0.3911
0.492987
0.580097
0.628765
0.633488
0.605743
0.552096
0.494293
0.433106
0.370041
0.310204
0.258222
0.215918
0.175938
0.151147
0.0352127
0.0291269
0.141585
0.212058
0.240711
0.253843
0.269236
0.278154
0.274059
0.258719
0.234613
0.206501
0.180335
0.156897
0.137111
0.12157
0.109383
0.0969998
0.0813752
0.0560515
0.0442272
0.246557
0.222029
0.229097
0.236133
0.24683
0.249897
0.241409
0.223109
0.198021
0.17042
0.146186
0.126031
0.110345
0.0989422
0.0907418
0.083167
0.0735005
0.0603042
0.059549
0.352816
0.252236
0.255501
0.267057
0.280195
0.279879
0.264721
0.238421
0.205613
0.172333
0.144287
0.121873
0.105112
0.0934672
0.0857353
0.0796082
0.0727958
0.0646408
0.0751457
0.460244
0.302171
0.313626
0.337238
0.356149
0.350338
0.323402
0.282798
0.235876
0.191925
0.15614
0.128406
0.108162
0.0943983
0.0856562
0.0796116
0.074166
0.0691041
0.0899428
0.569835
0.386006
0.423707
0.467957
0.49206
0.473483
0.424882
0.359776
0.289534
0.228126
0.17955
0.143019
0.116953
0.0994878
0.0886
0.0816689
0.0766165
0.0735928
0.10397
0.688924
0.546213
0.650433
0.710752
0.72503
0.677166
0.588778
0.482599
0.375435
0.285891
0.216783
0.166392
0.13138
0.108354
0.0941644
0.0854571
0.0799881
0.0782132
0.11759
0.827796
0.869447
1.12136
1.14533
1.09963
0.998771
0.842363
0.671546
0.509009
0.374586
0.272875
0.200833
0.152278
0.121206
0.102414
0.0910266
0.0843908
0.0832093
0.131363
0.133829
0.147451
0.162863
0.176537
0.19086
0.20653
0.223433
0.241252
0.259676
0.278463
0.297471
0.316687
0.33633
0.357094
0.380487
0.409196
0.447678
0.503313
0.587525
0.721004
0.955014
1.46593
2.87827
0.143574
0.160759
0.171081
0.180721
0.192884
0.207596
0.224132
0.241892
0.260494
0.279738
0.299578
0.320109
0.341614
0.364783
0.391055
0.422875
0.46406
0.520596
0.602277
0.725628
0.925434
1.28932
2.03605
0.161259
0.182039
0.183552
0.188605
0.199283
0.213587
0.230009
0.24784
0.26679
0.286784
0.307907
0.330367
0.35449
0.380882
0.410778
0.446242
0.490323
0.547422
0.624875
0.733494
0.892267
1.13723
1.51978
0.214629
0.21864
0.204864
0.205013
0.214254
0.227595
0.243189
0.260557
0.279607
0.300394
0.323109
0.348079
0.375724
0.40656
0.441503
0.48213
0.530756
0.59042
0.665304
0.761644
0.888174
1.05634
1.2688
0.352636
0.278967
0.244822
0.238182
0.243307
0.253182
0.266267
0.282227
0.300986
0.322612
0.347341
0.375639
0.408183
0.445511
0.4881
0.53693
0.593742
0.660554
0.738033
0.826239
0.930725
1.05698
1.19765
0.568773
0.373125
0.308309
0.292756
0.287135
0.289718
0.298492
0.312241
0.330492
0.353222
0.380701
0.4136
0.453097
0.499887
0.553673
0.614713
0.684677
0.766285
0.859593
0.946828
1.03706
1.14497
1.25735
0.754586
0.442895
0.38506
0.351845
0.327857
0.320686
0.324553
0.335777
0.353119
0.376373
0.40581
0.441917
0.485463
0.536997
0.596129
0.662741
0.737767
0.824614
0.928711
1.04541
1.16518
1.29649
1.42091
0.842251
0.462984
0.418059
0.369163
0.340683
0.331068
0.333388
0.343304
0.359024
0.380105
0.406754
0.439439
0.478754
0.525437
0.580224
0.64402
0.718378
0.805637
0.905868
1.02138
1.14622
1.27735
1.40875
0.742473
0.408023
0.373747
0.347628
0.332759
0.329366
0.334591
0.345826
0.361682
0.381754
0.406245
0.4357
0.470886
0.512836
0.562812
0.622219
0.692655
0.775802
0.871529
0.975696
1.08004
1.18975
1.31103
0.699671
0.371507
0.328136
0.313496
0.309693
0.313588
0.323301
0.337312
0.354717
0.375249
0.399153
0.427062
0.459926
0.499
0.545781
0.601851
0.668685
0.747335
0.83729
0.934547
1.03312
1.13436
1.24376
0.697173
0.351891
0.296278
0.283449
0.284514
0.292741
0.305632
0.321845
0.340662
0.361885
0.385778
0.413016
0.44465
0.482071
0.526923
0.580922
0.645593
0.721874
0.809378
0.905383
1.00574
1.10938
1.21739
0.709322
0.340225
0.274345
0.259846
0.26185
0.271503
0.285596
0.302632
0.321882
0.343143
0.366661
0.393112
0.423575
0.459501
0.502627
0.554814
0.617798
0.692842
0.780222
0.87867
0.98575
1.09953
1.21738
0.723859
0.330562
0.257954
0.241221
0.242389
0.251645
0.265364
0.281887
0.300424
0.320734
0.343035
0.367971
0.396603
0.430376
0.471059
0.520614
0.581018
0.654001
0.740704
0.841317
0.955045
1.08018
1.21209
0.733798
0.320538
0.24447
0.225948
0.225733
0.233721
0.246128
0.26121
0.278132
0.296621
0.31686
0.339451
0.365404
0.396118
0.433328
0.479032
0.535373
0.604482
0.688272
0.788172
0.904842
1.03742
1.18082
0.735651
0.309374
0.232454
0.212857
0.211304
0.217766
0.228459
0.241628
0.256424
0.272556
0.290175
0.309839
0.332497
0.359471
0.392427
0.433331
0.484398
0.548024
0.626684
0.722746
0.838081
0.972939
1.12287
0.728202
0.296995
0.221121
0.201144
0.198542
0.203554
0.212492
0.223637
0.236156
0.249752
0.264555
0.281081
0.300214
0.323194
0.351595
0.387316
0.432573
0.489911
0.562195
0.652505
0.763742
0.897367
1.05008
0.711696
0.283528
0.210018
0.190251
0.186952
0.190742
0.198083
0.207328
0.217675
0.228837
0.240928
0.254426
0.270156
0.289275
0.313265
0.343941
0.383487
0.434539
0.500261
0.58434
0.690645
0.8219
0.976147
0.68722
0.269121
0.19889
0.179797
0.176133
0.178973
0.184966
0.192556
0.200986
0.209985
0.219659
0.230453
0.243133
0.258781
0.278791
0.304895
0.339242
0.384538
0.444222
0.522567
0.624421
0.753822
0.910177
0.656306
0.253949
0.187641
0.169567
0.165811
0.167957
0.172866
0.179087
0.185917
0.193106
0.200751
0.209265
0.219362
0.232053
0.248651
0.270815
0.300665
0.340977
0.395458
0.468968
0.567347
0.695984
0.85564
0.620721
0.238273
0.176321
0.159494
0.155842
0.157504
0.161569
0.1667
0.172252
0.177995
0.18402
0.190707
0.19872
0.209
0.222788
0.241681
0.267772
0.303908
0.354048
0.423607
0.519402
0.648182
0.812103
0.582396
0.222483
0.165112
0.149637
0.146203
0.147531
0.150948
0.155233
0.1598
0.164438
0.16923
0.174521
0.180925
0.189318
0.200872
0.217126
0.240148
0.27284
0.31937
0.385643
0.479377
0.608685
0.777246
0.543344
0.207099
0.154282
0.140142
0.136961
0.138047
0.140961
0.144597
0.148425
0.152252
0.156149
0.160428
0.165648
0.172624
0.182459
0.196633
0.217182
0.247031
0.290497
0.35387
0.445656
0.575293
0.748216
0.505444
0.192637
0.144126
0.131201
0.128241
0.129121
0.131627
0.134761
0.138045
0.1413
0.144582
0.148168
0.152564
0.158521
0.167074
0.179637
0.198197
0.225667
0.266434
0.327047
0.416643
0.545908
0.722286
0.470297
0.179571
0.134925
0.123012
0.120189
0.120856
0.123006
0.12574
0.128622
0.131484
0.134368
0.137513
0.141373
0.146631
0.154253
0.165581
0.18253
0.207957
0.246242
0.304056
0.390974
0.518775
0.697102
0.439148
0.168275
0.126915
0.115756
0.112949
0.113365
0.115177
0.11757
0.120145
0.122741
0.125382
0.128271
0.131808
0.136612
0.143572
0.153949
0.169568
0.193188
0.229102
0.283967
0.367584
0.492578
0.670771
0.412905
0.159033
0.120279
0.10958
0.106647
0.106749
0.108216
0.110297
0.112621
0.115029
0.117527
0.120283
0.123643
0.128163
0.134656
0.144288
0.158779
0.180752
0.214341
0.266058
0.34572
0.466459
0.641898
0.392206
0.152053
0.115151
0.104591
0.101373
0.10109
0.102186
0.103961
0.106059
0.10832
0.110729
0.113421
0.116694
0.121038
0.127189
0.136218
0.149719
0.17015
0.20142
0.249788
0.32493
0.44005
0.609668
0.377548
0.147499
0.111624
0.100857
0.0971852
0.096435
0.097127
0.0985865
0.100464
0.10259
0.10493
0.107588
0.110814
0.11504
0.120923
0.129435
0.142035
0.160985
0.189907
0.234647
0.30434
0.412005
0.57271
0.369423
0.14553
0.109759
0.0984048
0.0941007
0.0928011
0.0930522
0.0941807
0.0958296
0.0978152
0.100084
0.102706
0.105892
0.110014
0.115654
0.123683
0.13541
0.152869
0.179326
0.220085
0.283564
0.382196
0.53141
0.368469
0.146331
0.109594
0.0972246
0.092101
0.09017
0.0899467
0.0907289
0.0921373
0.0939685
0.0961469
0.0987151
0.101843
0.105851
0.111247
0.118801
0.129668
0.145638
0.169577
0.206152
0.26287
0.351191
0.486372
0.375593
0.150123
0.11114
0.0972688
0.0911273
0.0884904
0.087768
0.0881947
0.0893529
0.0910138
0.0930793
0.0955659
0.0986083
0.102478
0.107617
0.114694
0.124717
0.139229
0.160676
0.193035
0.242747
0.319914
0.438855
0.392083
0.157152
0.114363
0.0984387
0.0910812
0.0876789
0.086448
0.0865212
0.0874267
0.0889047
0.0908349
0.0932107
0.0961367
0.0998412
0.104704
0.111306
0.120511
0.133627
0.152691
0.180974
0.22377
0.289534
0.390859
0.419702
0.167636
0.119151
0.100572
0.0918199
0.0876214
0.0858958
0.0856337
0.0862941
0.0875826
0.0893587
0.0915968
0.0943766
0.0978896
0.102462
0.108593
0.11702
0.128834
0.145695
0.170199
0.206502
0.261275
0.34483
0.460731
0.18167
0.125257
0.103423
0.0931542
0.088176
0.0860017
0.0854423
0.0858772
0.0869773
0.0885849
0.0906613
0.0932673
0.0965649
0.100835
0.106506
0.114205
0.124838
0.13973
0.160878
0.191381
0.236175
0.303078
0.517925
0.199066
0.132249
0.106656
0.0948502
0.0891794
0.0866437
0.0858478
0.0860889
0.0870079
0.0884365
0.090329
0.0927343
0.0957927
0.0997478
0.104971
0.111999
0.121583
0.134774
0.153064
0.178641
0.214885
0.267227
0.594404
0.219184
0.139451
0.10983
0.0966405
0.090459
0.0876967
0.0867476
0.0868371
0.0875872
0.0888282
0.0905144
0.0926898
0.0954797
0.0991006
0.103879
0.110281
0.118941
0.130699
0.146654
0.168258
0.197587
0.237975
0.693684
0.240901
0.145907
0.11243
0.0982489
0.0918513
0.089045
0.0880439
0.0880303
0.0886261
0.0896711
0.091127
0.0930377
0.0955197
0.0987695
0.103081
0.108869
0.116686
0.127233
0.141332
0.159897
0.183972
0.215145
0.819461
0.262037
0.150347
0.113901
0.0994296
0.0932268
0.090595
0.089651
0.0895832
0.090039
0.0908799
0.09208
0.0936857
0.095807
0.0986245
0.102406
0.107531
0.114502
0.123942
0.136527
0.152839
0.173196
0.197784
0.976571
0.278902
0.15121
0.113736
0.100025
0.0945195
0.0922904
0.0915036
0.0914235
0.0917525
0.0923839
0.093306
0.0945665
0.0962666
0.0985683
0.101713
0.106046
0.112039
0.120282
0.131417
0.145923
0.163751
0.184087
1.17341
0.285256
0.146729
0.111614
0.100035
0.0957511
0.0941181
0.0935602
0.0934974
0.0937136
0.0941397
0.0947756
0.0956654
0.0968943
0.0985969
0.100976
0.10433
0.10908
0.115792
0.125128
0.137655
0.153373
0.171067
1.42863
0.269223
0.135236
0.107617
0.099682
0.0970364
0.0960988
0.0957928
0.0957609
0.0958816
0.096121
0.0964857
0.0970088
0.0977498
0.0988028
0.100312
0.102495
0.105677
0.110324
0.117056
0.126546
0.139142
0.154028
1.78817
0.206051
0.11618
0.10265
0.0994905
0.098572
0.0982716
0.0981783
0.0981711
0.0982129
0.0982954
0.0984241
0.0986139
0.0988907
0.0992952
0.0998909
0.100776
0.102106
0.104116
0.107162
0.11172
0.11827
0.12681
6.4141
5.31833
4.19262
3.17706
2.73594
2.8998
2.85694
2.73249
1.78392
1.94141
2.0204
2.03275
1.40855
1.51165
1.59437
1.6485
1.28732
1.35336
1.41188
1.45976
1.32462
1.36955
1.40508
1.43356
1.48798
1.52166
1.5317
1.53376
1.50266
1.58038
1.63343
1.64464
1.39784
1.46321
1.5197
1.56661
1.32304
1.38666
1.44631
1.4999
1.29268
1.35408
1.41501
1.47415
1.2979
1.36373
1.43007
1.49595
1.30312
1.37819
1.45512
1.53313
1.28248
1.36766
1.45709
1.55082
1.23279
1.32665
1.42809
1.5387
1.16611
1.26693
1.37898
1.506
1.09751
1.20417
1.32536
1.46696
1.03718
1.14896
1.27746
1.43025
0.988905
1.10496
1.23834
1.39743
0.952075
1.07124
1.2066
1.36632
0.924049
1.045
1.17951
1.33455
0.901729
1.0233
1.1549
1.30146
0.882222
1.0037
1.13154
1.26813
0.862949
0.984087
1.10861
1.23608
0.841585
0.962494
1.08513
1.20618
0.815976
0.936962
1.05966
1.17819
0.783893
0.905404
1.02991
1.15061
0.744173
0.865638
0.992359
1.11738
0.696775
0.816413
0.944477
1.07456
0.641529
0.756526
0.883495
1.01741
0.579364
0.686069
0.807798
0.941565
0.51288
0.607545
0.718888
0.846125
0.446154
0.52602
0.622378
0.736213
0.383655
0.44775
0.526572
0.622127
0.328906
0.378088
0.439384
0.515141
0.283743
0.320098
0.365834
0.423238
0.248359
0.274451
0.307502
0.349594
0.221706
0.240073
0.263421
0.293621
0.201697
0.21465
0.231043
0.252586
0.184858
0.194388
0.206254
0.222099
0.165304
0.172737
0.181859
0.194335
0.133659
0.138129
0.143685
0.151744
1.6065
1.72207
1.88036
1.94502
1.79738
1.62464
1.32646
1.03895
0.772704
0.553022
0.387348
0.2717
0.19561
0.148331
0.119976
0.102808
0.0931426
0.0920347
0.155812
2.36415
2.02913
1.85137
1.98313
2.19926
2.3503
2.22488
1.85754
1.40825
1.0045
0.684355
0.455391
0.305059
0.214435
0.160734
0.128399
0.109847
0.105143
0.187364
1.94992
1.83344
1.75328
1.74267
1.81674
2.00278
2.22818
2.3236
2.10381
1.65176
1.17647
0.786694
0.509941
0.338392
0.235277
0.173546
0.1377
0.124347
0.226872
1.68063
1.64444
1.59952
1.58282
1.61754
1.71442
1.86402
2.04534
2.16784
2.06606
1.70883
1.25714
0.85413
0.561481
0.369766
0.252492
0.184104
0.153637
0.278184
1.51845
1.53225
1.51986
1.50709
1.5172
1.56751
1.66447
1.79858
1.93716
2.01697
1.93574
1.65804
1.28
0.897571
0.591674
0.384732
0.259731
0.19856
0.346378
1.47453
1.49756
1.50081
1.49614
1.4979
1.5204
1.57516
1.66508
1.77673
1.87446
1.89749
1.79119
1.55802
1.2358
0.881398
0.579974
0.374772
0.265121
0.436538
1.54315
1.55306
1.55405
1.55111
1.5481
1.55237
1.57493
1.62399
1.69817
1.7792
1.82942
1.79811
1.6657
1.45602
1.15925
0.816533
0.529619
0.356608
0.55195
1.65489
1.66744
1.66569
1.66713
1.66596
1.6575
1.64987
1.65946
1.69263
1.74208
1.78414
1.78287
1.71103
1.5784
1.36811
1.04939
0.708293
0.469399
0.691647
1.64144
1.72698
1.78359
1.81512
1.84227
1.83603
1.79059
1.75582
1.74484
1.75587
1.77361
1.77354
1.73699
1.661
1.5149
1.24378
0.883951
0.591387
0.848266
1.58851
1.69184
1.78864
1.86646
1.94418
1.99954
1.9606
1.88607
1.83269
1.80473
1.79236
1.7784
1.75765
1.73357
1.63602
1.39433
1.0327
0.705574
1.0083
1.57378
1.67247
1.75976
1.85241
1.96589
2.08081
2.09957
2.01679
1.93193
1.87032
1.82881
1.79661
1.78258
1.80996
1.75599
1.51257
1.14287
0.797148
1.15593
1.608
1.70654
1.78114
1.86011
1.97487
2.11458
2.19596
2.13284
2.02656
1.9387
1.8719
1.82206
1.81266
1.89777
1.88801
1.61144
1.21446
0.858433
1.27818
1.66815
1.78212
1.85748
1.92542
2.031
2.16819
2.27592
2.22611
2.10931
2.00233
1.91419
1.84904
1.84694
1.99941
2.0338
1.69423
1.25031
0.888089
1.36757
1.7194
1.87007
1.9702
2.04276
2.13792
2.25611
2.35994
2.31465
2.1859
2.06068
1.9534
1.87693
1.8923
2.12854
2.19416
1.75776
1.25384
0.8893
1.42239
1.74768
1.95594
2.11031
2.21177
2.30125
2.38449
2.45853
2.4119
2.26437
2.11565
1.98985
1.90823
1.95965
2.30072
2.3609
1.79928
1.23248
0.868821
1.44562
1.75754
2.04072
2.28103
2.44081
2.53247
2.56605
2.59015
2.5188
2.33825
2.16493
2.0236
1.94581
2.05647
2.51297
2.5225
1.822
1.19463
0.833814
1.44263
1.75773
2.12752
2.48774
2.7423
2.84497
2.80967
2.7545
2.62946
2.40565
2.20881
2.05633
1.99277
2.18351
2.75307
2.65974
1.81532
1.14132
0.788706
1.4188
1.75082
2.21047
2.72442
3.11896
3.24287
3.11245
2.94426
2.7424
2.47598
2.25706
2.09669
2.05815
2.35619
2.99749
2.72538
1.75552
1.06865
0.735719
1.37887
1.73347
2.27478
2.96842
3.5575
3.71802
3.46221
3.15972
2.87924
2.56915
2.32586
2.15739
2.15016
2.5999
3.223
2.67427
1.63622
0.977707
0.677412
1.3276
1.7014
2.30315
3.18353
4.02946
4.26024
3.85555
3.40784
3.05639
2.70246
2.43812
2.2573
2.25736
2.78602
3.30711
2.52209
1.47773
0.877039
0.61766
1.27015
1.65322
2.2821
3.32454
4.48578
4.86077
4.30855
3.70481
3.25643
2.88748
2.62956
2.45021
2.40703
2.81373
3.16995
2.2959
1.30358
0.776612
0.560502
1.21157
1.59252
2.20838
3.34668
4.83929
5.50034
4.84134
4.06633
3.47966
3.0868
2.89394
2.74754
2.65412
2.91328
2.99282
2.04288
1.13671
0.684592
0.508984
1.15599
1.52672
2.09151
3.22395
4.94572
6.09743
5.44502
4.48604
3.73949
3.23101
2.99958
2.98109
3.06041
3.305
2.98079
1.84632
1.00052
0.607262
0.464901
1.10622
1.46361
1.95162
2.97907
4.73842
6.50093
6.05488
4.91799
4.01115
3.36303
3.00197
2.98711
3.35343
3.77956
3.15338
1.76095
0.908948
0.548039
0.428757
1.06341
1.40898
1.81353
2.66961
4.27443
6.35315
6.60898
5.33712
4.26584
3.48931
3.01296
2.89924
3.35724
4.02037
3.3681
1.77289
0.862857
0.506623
0.399755
1.02643
1.36559
1.69898
2.36148
3.67125
5.60771
6.79219
5.65806
4.45963
3.58265
3.02049
2.82288
3.24809
4.01309
3.40498
1.80262
0.847192
0.478628
0.375944
0.991789
1.33248
1.6198
2.10546
3.06907
4.63909
6.26617
5.76456
4.52863
3.6021
2.99641
2.7439
3.04829
3.90556
3.32558
1.78327
0.834677
0.456228
0.354898
0.954467
1.30142
1.56944
1.93471
2.58676
3.68602
5.00968
5.49413
4.47493
3.5262
2.91808
2.65404
2.89413
3.76077
3.08018
1.65124
0.798082
0.431482
0.33655
0.912166
1.26649
1.53949
1.83577
2.25748
2.96872
3.87374
4.61277
4.13577
3.33214
2.78453
2.55365
2.81414
3.68532
2.69677
1.44175
0.741342
0.404389
0.323426
0.865386
1.21957
1.51823
1.80112
2.08067
2.46818
2.98881
3.48322
3.65866
3.15152
2.65376
2.47089
2.73617
3.34816
2.22325
1.28362
0.693305
0.380043
0.315087
0.813257
1.15071
1.484
1.80188
2.04701
2.23794
2.46812
2.7707
3.06819
2.98933
2.59669
2.4882
2.6422
2.71224
1.83355
1.19553
0.654778
0.359946
0.310124
0.756035
1.0529
1.41117
1.78472
2.0862
2.25073
2.31053
2.37202
2.47921
2.50896
2.39507
2.33799
2.33955
2.15111
1.67048
1.13912
0.621128
0.344872
0.306793
0.695066
0.928021
1.28518
1.69636
2.08405
2.34917
2.43275
2.37852
2.29448
2.24576
2.18558
2.14088
2.10208
1.98112
1.62896
1.07137
0.586372
0.334111
0.303279
0.63259
0.788183
1.11394
1.51839
1.95303
2.33523
2.57658
2.63956
2.57088
2.45778
2.35107
2.26091
2.16948
1.97638
1.5389
0.975588
0.546467
0.325632
0.297961
0.571375
0.650205
0.923888
1.27931
1.69294
2.11287
2.46561
2.68603
2.74792
2.68732
2.55921
2.39475
2.18307
1.85046
1.36014
0.856826
0.500986
0.316788
0.289685
0.514163
0.527895
0.743737
1.02962
1.37543
1.75175
2.10768
2.38241
2.53915
2.5607
2.45871
2.25767
1.96985
1.5859
1.13558
0.729663
0.451913
0.305156
0.277869
0.463093
0.428024
0.5913
0.808356
1.07425
1.37135
1.66663
1.91735
2.09279
2.15092
2.08124
1.89545
1.61662
1.27225
0.911743
0.60751
0.40146
0.289185
0.26253
0.419337
0.351213
0.471718
0.631215
0.826725
1.0457
1.26474
1.46553
1.61154
1.66836
1.62012
1.47206
1.24705
0.979768
0.714999
0.49827
0.351344
0.268535
0.244252
0.383085
0.294714
0.382702
0.497687
0.638085
0.794624
0.951099
1.0962
1.20202
1.24397
1.20848
1.09841
0.932541
0.740213
0.554921
0.405193
0.303261
0.244264
0.224233
0.35381
0.25402
0.319699
0.402088
0.499145
0.606731
0.715047
0.81428
0.886773
0.915104
0.888954
0.810086
0.692586
0.558399
0.430958
0.328498
0.2586
0.217787
0.203463
0.330542
0.22075
0.274992
0.337947
0.398587
0.467216
0.537391
0.602835
0.651745
0.671502
0.654179
0.600321
0.519501
0.427157
0.339545
0.268991
0.220936
0.19338
0.18476
0.312472
0.171012
0.216424
0.278348
0.328569
0.373836
0.419799
0.463111
0.494773
0.506058
0.491834
0.45275
0.39548
0.330614
0.269211
0.219671
0.186043
0.167731
0.165873
0.297993
)
;

boundaryField
{
    leftWall
    {
        type            epsilonWallFunction;
        value           nonuniform List<scalar> 
50
(
0.0426147
0.0525891
0.0657927
0.0791588
0.0936629
0.106381
0.116735
0.125187
0.133829
0.143574
0.161259
0.214629
0.352636
0.568773
0.754586
0.842251
0.742473
0.699671
0.697173
0.709322
0.723859
0.733798
0.735651
0.728202
0.711696
0.68722
0.656306
0.620721
0.582396
0.543344
0.505444
0.470297
0.439148
0.412905
0.392206
0.377548
0.369423
0.368469
0.375593
0.392083
0.419702
0.460731
0.517925
0.594404
0.693684
0.819461
0.976571
1.17341
1.42863
1.78817
)
;
    }
    rightWall
    {
        type            epsilonWallFunction;
        value           nonuniform List<scalar> 
50
(
0.0291269
0.0442272
0.059549
0.0751457
0.0899428
0.10397
0.11759
0.131363
0.155812
0.187364
0.226872
0.278184
0.346378
0.436538
0.55195
0.691647
0.848266
1.0083
1.15593
1.27818
1.36757
1.42239
1.44562
1.44263
1.4188
1.37887
1.3276
1.27015
1.21157
1.15599
1.10622
1.06341
1.02643
0.991789
0.954467
0.912166
0.865386
0.813257
0.756035
0.695066
0.63259
0.571375
0.514163
0.463093
0.419337
0.383085
0.35381
0.330542
0.312472
0.297993
)
;
    }
    lowerWall
    {
        type            epsilonWallFunction;
        value           nonuniform List<scalar> 
62
(
0.0426147
0.138361
0.275999
0.416
0.557518
0.695484
0.835295
0.97755
1.12082
1.26209
1.39709
1.52061
1.6266
1.70806
1.75634
1.75672
1.72264
1.64299
1.51185
1.33744
1.12095
0.821063
0.52951
0.52951
0.684428
1.19529
1.80545
2.341
2.90023
3.54165
4.43188
6.4141
5.31833
4.19262
3.17706
0.0350227
0.141585
0.246557
0.352816
0.460244
0.569835
0.688924
0.827796
0.0350227
0.26256
0.3911
0.492987
0.580097
0.628765
0.633488
0.605743
0.552096
0.494293
0.433106
0.370041
0.310204
0.258222
0.215918
0.175938
0.151147
0.0352127
0.0291269
)
;
    }
    atmosphere
    {
        type            inletOutlet;
        inletValue      uniform 0.1;
        value           nonuniform List<scalar> 
46
(
0.1
0.1
0.1
0.1
0.1
0.1
0.1
0.1
0.1
0.1
0.1
0.1
0.1
0.1
0.1
0.1
0.1
0.1
0.1
0.1
0.1
0.1
0.1
0.1
0.1
0.1
0.1
0.1
0.1
0.1
0.1
0.373836
0.419799
0.463111
0.494773
0.506058
0.491834
0.45275
0.39548
0.330614
0.269211
0.219671
0.186043
0.167731
0.165873
0.297993
)
;
    }
    defaultFaces
    {
        type            empty;
    }
}


// ************************************************************************* //
