/*--------------------------------*- C++ -*----------------------------------*\
  =========                 |
  \\      /  F ield         | OpenFOAM: The Open Source CFD Toolbox
   \\    /   O peration     | Website:  https://openfoam.org
    \\  /    A nd           | Version:  9
     \\/     M anipulation  |
\*---------------------------------------------------------------------------*/
FoamFile
{
    format      ascii;
    class       volScalarField;
    location    "0.35";
    object      epsilon;
}
// * * * * * * * * * * * * * * * * * * * * * * * * * * * * * * * * * * * * * //

dimensions      [0 2 -3 0 0 0 0];

internalField   nonuniform List<scalar> 
2268
(
0.879644
1.84935
1.72844
1.42522
1.48333
1.57411
1.68325
1.80014
1.92224
2.03409
2.1468
2.26794
2.40398
2.55869
2.73105
2.94795
3.25613
3.35676
3.1143
2.53916
1.88239
1.21028
0.519158
1.00669
1.23992
0.938987
0.833755
0.826053
0.829254
0.842298
0.869699
0.913192
0.964445
1.02495
1.09712
1.18376
1.28731
1.40793
1.54313
1.68875
1.73351
1.61862
1.39025
1.16332
0.929172
0.511258
1.32116
1.2547
0.924073
0.749583
0.695664
0.672809
0.670086
0.68459
0.713737
0.754373
0.806456
0.871292
0.950838
1.04679
1.15868
1.28026
1.39278
1.43527
1.34524
1.14805
0.955215
0.79291
0.599241
1.60868
1.38244
0.997944
0.7524
0.662193
0.618993
0.602741
0.606155
0.625133
0.656909
0.700657
0.756847
0.826608
0.910766
1.00803
1.1112
1.20064
1.23582
1.16939
0.996243
0.803953
0.671266
0.585559
1.90305
1.53873
1.08271
0.782228
0.663055
0.601227
0.57098
0.562479
0.57064
0.592125
0.62537
0.670017
0.72631
0.794166
0.871678
0.952161
1.01962
1.04658
1.00427
0.877449
0.695857
0.568567
0.517039
2.25114
1.68972
1.1572
0.823491
0.68211
0.602921
0.55822
0.536972
0.533449
0.543569
0.565064
0.596835
0.638341
0.688777
0.745986
0.804589
0.853575
0.876507
0.857525
0.781333
0.637321
0.509374
0.45426
2.7144
1.82054
1.21837
0.873898
0.71475
0.618694
0.559042
0.52443
0.508712
0.507105
0.516717
0.535865
0.563446
0.598251
0.638274
0.679816
0.716682
0.741343
0.748189
0.728476
0.652532
0.526666
0.409174
3.198
1.90233
1.29048
0.939401
0.760843
0.646776
0.57135
0.522827
0.494612
0.481339
0.479566
0.4872
0.502799
0.525034
0.552334
0.582676
0.613794
0.644635
0.677378
0.713849
0.732227
0.658934
0.473665
0.0350155
0.202782
0.282354
0.333005
0.365701
0.387503
0.399932
0.407323
0.406394
0.39793
0.382957
0.361798
0.334514
0.300875
0.260634
0.213044
0.156725
0.0351168
0.0279431
0.10903
0.166087
0.192783
0.191204
0.184448
0.179073
0.175596
0.174247
0.172544
0.169373
0.164516
0.157797
0.14904
0.138014
0.124423
0.107806
0.0873657
0.0593586
0.0401357
0.212191
0.179798
0.177967
0.162752
0.148423
0.139024
0.133652
0.131045
0.129216
0.127156
0.12442
0.12073
0.115862
0.109592
0.101639
0.0916249
0.0790203
0.062857
0.0525402
0.343759
0.205326
0.179594
0.156476
0.13809
0.126286
0.119487
0.115924
0.113761
0.111974
0.110013
0.10754
0.104308
0.100098
0.094659
0.0876899
0.0788578
0.0680889
0.0650292
0.48689
0.240748
0.189995
0.158877
0.136642
0.122523
0.114251
0.109695
0.107033
0.105185
0.103522
0.101658
0.0993275
0.0963127
0.0923931
0.0873321
0.0809335
0.0735107
0.0758541
0.658271
0.286984
0.206585
0.165845
0.139387
0.122853
0.113042
0.107434
0.10416
0.102068
0.100463
0.098915
0.0971377
0.0949143
0.0920462
0.0883438
0.0836909
0.0785806
0.0848346
0.878474
0.342989
0.227192
0.175252
0.144304
0.125321
0.113949
0.107264
0.103311
0.100868
0.0991798
0.0977767
0.0963526
0.0946863
0.092592
0.089906
0.0865481
0.0831074
0.0924685
1.24539
0.401434
0.248217
0.185361
0.150175
0.128889
0.116022
0.108282
0.103626
0.10077
0.0989115
0.0975452
0.096344
0.0950789
0.0935665
0.0916503
0.0892562
0.0870512
0.099144
3.31681
2.07167
1.48826
1.07774
0.855441
0.708907
0.606907
0.535627
0.487628
0.45739
0.440461
0.434212
0.436909
0.447288
0.464453
0.48807
0.518929
0.560021
0.618122
0.705145
0.833242
0.995351
1.21731
3.21574
2.09557
1.80553
1.28396
1.01233
0.827405
0.691377
0.588666
0.511829
0.456897
0.419154
0.395289
0.382952
0.380426
0.386574
0.400942
0.423906
0.456685
0.501101
0.558882
0.629912
0.710522
0.79503
3.57333
2.11485
1.92764
1.45318
1.17854
0.970393
0.804307
0.669695
0.562415
0.480142
0.420386
0.378934
0.352511
0.338473
0.334799
0.340112
0.353619
0.374881
0.403351
0.437559
0.47396
0.506267
0.526704
3.87714
2.11944
1.97486
1.5927
1.34283
1.12771
0.938265
0.773053
0.634057
0.522737
0.439233
0.379399
0.338902
0.313882
0.301166
0.298328
0.30358
0.315514
0.332696
0.353113
0.373575
0.389622
0.396478
4.06244
2.13212
2.01864
1.72343
1.50724
1.29515
1.08862
0.895373
0.724722
0.583407
0.473753
0.394113
0.338868
0.302777
0.281374
0.271145
0.269443
0.274211
0.283618
0.295644
0.307744
0.316847
0.319915
4.18471
2.15765
2.07657
1.85328
1.67263
1.46979
1.25189
1.03412
0.832863
0.660654
0.523551
0.42236
0.351124
0.303309
0.27308
0.255781
0.247916
0.246863
0.250503
0.256858
0.263829
0.269168
0.270752
4.27323
2.18176
2.13466
1.97873
1.83602
1.64799
1.42466
1.18697
0.957611
0.755004
0.589826
0.464576
0.375586
0.314854
0.275137
0.250571
0.23676
0.230489
0.22933
0.23127
0.234448
0.237069
0.237491
4.3455
2.1984
2.185
2.0957
1.99348
1.82553
1.6031
1.35118
1.09756
0.866035
0.672102
0.521539
0.412896
0.337615
0.287245
0.254711
0.234652
0.223192
0.217525
0.215506
0.215359
0.215516
0.214603
4.41503
2.20835
2.22955
2.20105
2.14047
1.99753
1.78281
1.52353
1.25099
0.993545
0.771564
0.594893
0.46424
0.372382
0.30974
0.268069
0.241001
0.223924
0.213568
0.207564
0.204101
0.201702
0.199131
4.47569
2.22873
2.271
2.2881
2.27073
2.15826
1.95899
1.70043
1.41572
1.13677
0.888573
0.685481
0.530887
0.420294
0.343417
0.291028
0.255779
0.232265
0.216672
0.206317
0.199256
0.194008
0.18939
4.58694
2.27832
2.30433
2.34712
2.37706
2.30201
2.12706
1.87836
1.58934
1.29446
1.02291
0.793697
0.614101
0.482693
0.389386
0.324352
0.279378
0.248255
0.226558
0.211208
0.200045
0.191502
0.184385
4.69858
2.32374
2.2955
2.37503
2.45762
2.42634
2.28436
2.05471
1.76969
1.46532
1.1744
0.920538
0.71545
0.561069
0.448969
0.369079
0.312508
0.272281
0.24332
0.222077
0.206104
0.193677
0.18353
4.82152
2.34644
2.28791
2.38746
2.51878
2.53336
2.43065
2.22799
1.95498
1.64797
1.34252
1.06653
0.836408
0.656881
0.52359
0.426448
0.356132
0.305007
0.267339
0.239063
0.217372
0.20032
0.186514
4.9268
2.34825
2.26846
2.39302
2.56594
2.62606
2.56653
2.39723
2.14354
1.84078
1.52614
1.2311
0.976469
0.77116
0.614674
0.497852
0.41143
0.347339
0.299254
0.262561
0.234037
0.211457
0.193245
4.95939
2.3253
2.24106
2.39405
2.60158
2.70598
2.69198
2.56119
2.33355
2.04196
1.724
1.41383
1.1364
0.905066
0.723703
0.584821
0.479781
0.400416
0.339941
0.293205
0.256525
0.227335
0.203827
4.9219
2.28615
2.20961
2.38812
2.62513
2.77245
2.80572
2.71798
2.52284
2.24948
1.93458
1.61409
1.31653
1.05966
0.85215
0.688975
0.562739
0.465594
0.390514
0.331869
0.285491
0.248421
0.218568
4.83067
2.23383
2.17057
2.37083
2.63351
2.82297
2.9053
2.86506
2.70887
2.46099
2.1561
1.83088
1.51687
1.23598
1.00139
0.811933
0.661964
0.544411
0.452302
0.37966
0.321831
0.275418
0.237993
4.69523
2.16774
2.11852
2.33861
2.62359
2.85478
2.98794
2.99955
2.88877
2.67388
2.38634
2.06271
1.73692
1.43489
1.17247
0.955161
0.77913
0.63853
0.526834
0.437918
0.366694
0.309286
0.262877
4.51931
2.08437
2.04974
2.2909
2.59438
2.86627
3.05117
3.11847
3.05944
2.88515
2.62258
2.30723
1.97469
1.65418
1.36553
1.11975
0.915791
0.749665
0.615793
0.508215
0.421508
0.351292
0.294305
4.30972
1.98072
1.96566
2.22877
2.54704
2.85667
3.09246
3.21849
3.2174
3.0914
2.86162
2.56163
2.22807
1.89309
1.58043
1.30643
1.07328
0.879496
0.720992
0.592366
0.48803
0.403088
0.333761
4.07885
1.86557
1.86981
2.15107
2.48198
2.82402
3.10829
3.29557
3.3586
3.28869
3.09969
2.82248
2.49433
2.1499
1.81641
1.51538
1.2526
1.02958
0.844328
0.692459
0.56843
0.466833
0.383288
3.83398
1.74918
1.76365
2.05445
2.39712
2.76454
3.09412
3.34503
3.4785
3.47252
3.33228
3.08549
2.76982
2.42194
2.07197
1.74616
1.45428
1.20125
0.987765
0.810904
0.665419
0.545388
0.44571
3.57486
1.63329
1.64922
1.93716
2.29039
2.67506
3.04627
3.36274
3.57241
3.63768
3.5538
3.34518
3.04971
2.70557
2.34506
1.99763
1.67825
1.39556
1.15332
0.950521
0.782423
0.642566
0.524953
3.30013
1.51789
1.53067
1.80436
2.16085
2.55679
2.96531
3.34676
3.63569
3.77758
3.7568
3.59424
3.32758
2.99584
2.63308
2.26767
1.92374
1.61317
1.34307
1.11465
0.923801
0.763446
0.626446
3.02728
1.40975
1.4162
1.67107
2.01539
2.41501
2.85467
3.29553
3.66145
3.88216
3.93029
3.82242
3.59454
3.28497
2.92782
2.55228
2.18898
1.85432
1.55923
1.30729
1.09508
0.914709
0.757566
2.77283
1.3154
1.31161
1.5523
1.87539
2.26367
2.71879
3.20106
3.63428
3.93465
4.05797
4.01564
3.83901
3.56354
3.22261
2.84638
2.47121
2.11883
1.80422
1.53331
1.30317
1.10493
0.928055
2.5329
1.23023
1.21524
1.44616
1.74715
2.11258
2.56642
3.06698
3.54406
3.912
4.11832
4.15586
4.04597
3.81919
3.50785
3.14324
2.76667
2.40627
2.08097
1.79864
1.55659
1.34474
1.15027
2.30613
1.15171
1.12523
1.32794
1.61778
1.96901
2.40508
2.89852
3.39136
3.81044
4.09581
4.22269
4.19636
4.03526
3.77014
3.43454
3.07047
2.71618
2.39318
2.11049
1.86549
1.64683
1.43916
2.09213
1.07794
1.04158
1.21291
1.47881
1.82398
2.2448
2.72154
3.2034
3.64469
3.99209
4.20402
4.26652
4.18712
3.98996
3.70733
3.3761
3.04825
2.74548
2.47729
2.24143
2.02556
1.81187
1.89081
1.00768
0.965238
1.11179
1.35316
1.67672
2.07674
2.54089
3.01308
3.44725
3.82465
4.10147
4.24676
4.25377
4.13836
3.93351
3.67347
3.4017
3.14272
2.90753
2.6965
2.49624
2.28712
1.70227
0.941097
0.896187
1.02663
1.24691
1.54399
1.90971
2.33816
2.80677
3.24584
3.62551
3.93454
4.14277
4.23208
4.20885
4.10166
3.94226
3.76069
3.57906
3.40599
3.2409
3.07369
2.88451
1.52681
0.879613
0.834444
0.95494
1.15894
1.43023
1.7594
2.14052
2.57139
3.02155
3.4222
3.7422
3.98425
4.13747
4.20412
4.20624
4.17152
4.11185
4.0411
3.96211
3.87351
3.76727
3.62399
1.36482
0.82448
0.780021
0.893341
1.08513
1.3353
1.63135
1.96758
2.34715
2.7669
3.18967
3.55055
3.81639
4.00666
4.14184
4.24664
4.34294
4.43061
4.50417
4.5593
4.5896
4.58493
4.52438
1.21661
0.776118
0.732402
0.838862
1.02042
1.25469
1.5266
1.82695
2.15942
2.52899
2.92681
3.32341
3.65949
3.88617
4.06443
4.24478
4.45603
4.6948
4.9358
5.16923
5.3757
5.53337
5.61221
1.08233
0.73432
0.690768
0.789532
0.961262
1.18347
1.44055
1.71976
2.01817
2.34222
2.69711
3.07355
3.44464
3.7689
4.01292
4.25815
4.55769
4.92053
5.33439
5.77981
6.22642
6.62535
6.92283
0.961661
0.698646
0.654287
0.744347
0.906186
1.11912
1.36896
1.64159
1.92654
2.22234
2.53778
2.87965
3.24152
3.61552
4.00101
4.38115
4.749
5.18166
5.72852
6.39049
7.12363
7.8475
8.473
0.85382
0.668648
0.622237
0.702782
0.854895
1.06115
1.31056
1.59024
1.88433
2.18001
2.47742
2.79156
3.1395
3.5348
4.00413
4.56615
5.17026
5.74967
6.31772
6.9736
7.7901
8.82114
9.95353
0.757395
0.643624
0.593887
0.664323
0.807372
1.01018
1.26714
1.56951
1.89863
2.22972
2.54839
2.86969
3.22842
3.6554
4.17626
4.81403
5.57843
6.38955
7.15324
7.88232
8.61197
9.51369
10.6745
0.670994
0.62386
0.569545
0.628883
0.763836
0.967739
1.24378
1.59178
1.99099
2.40627
2.80381
3.20219
3.65424
4.19914
4.86804
5.67909
6.62921
7.67077
8.69873
9.59652
10.3239
11.0015
11.7616
0.592259
0.606403
0.54842
0.596355
0.725502
0.937924
1.2521
1.68524
2.2084
2.79325
3.37118
3.994
4.76491
5.69214
6.80127
8.10676
9.60114
11.1414
12.544
13.6131
14.3028
14.8072
15.2973
0.526703
0.622898
0.552579
0.58081
0.703301
0.931399
1.31107
1.92214
2.65904
3.65403
4.66253
5.90779
7.77474
9.90458
12.3831
15.3484
18.1815
20.5643
22.249
22.917
23.0528
23.3185
23.6038
0.491098
0.612307
0.536412
0.539046
0.648276
0.875739
1.31202
2.37817
3.34843
5.85552
7.65173
10.7083
17.8162
22.2283
28.4738
40.0672
46.2638
50.4694
50.5252
45.6648
43.6075
45.5454
45.2735
1.79948
1.96937
2.19574
2.4671
0.867209
0.884158
0.874794
0.813283
0.528602
0.522174
0.507055
0.479857
0.391285
0.383898
0.372471
0.357108
0.315486
0.310313
0.302879
0.293344
0.26757
0.264025
0.258994
0.252578
0.234927
0.23228
0.228608
0.223957
0.212022
0.209721
0.206722
0.20303
0.196003
0.193637
0.190836
0.18757
0.18526
0.182504
0.179544
0.176318
0.178827
0.175398
0.171983
0.168494
0.176109
0.171738
0.167602
0.163584
0.176762
0.171167
0.166047
0.161249
0.180629
0.173505
0.16712
0.161284
0.187735
0.178733
0.170768
0.16361
0.198284
0.186994
0.177086
0.168278
0.212675
0.198615
0.186332
0.175486
0.231542
0.214138
0.19896
0.185607
0.255814
0.234384
0.215678
0.199239
0.28681
0.260544
0.237539
0.21729
0.326402
0.294343
0.266092
0.241113
0.377252
0.338275
0.303609
0.272722
0.443159
0.395958
0.35344
0.315128
0.529519
0.472625
0.420509
0.372822
0.643878
0.575731
0.511975
0.452459
0.79649
0.715625
0.637999
0.563711
1.00074
0.906114
0.812497
0.720204
1.27322
1.16471
1.05361
0.940286
1.63339
1.51235
1.38362
1.2473
2.10291
1.97275
1.82838
1.66918
2.70513
2.57177
2.41654
2.2375
3.46555
3.33763
3.17951
2.98631
4.4108
4.30342
4.15649
3.96123
5.57712
5.51235
5.39578
5.21527
7.01217
7.02001
6.95633
6.80854
8.75171
8.87436
8.88654
8.7846
10.5764
10.9139
11.0353
10.9974
11.4585
12.0011
12.3944
12.7097
12.3516
12.9111
13.5431
14.2593
15.6852
16.1241
16.6998
17.392
23.8244
24.171
24.8414
25.374
45.7236
45.6786
46.1869
45.7393
0.885684
0.433667
0.27273
0.199673
0.159427
0.135141
0.120148
0.11086
0.105135
0.101611
0.0994175
0.0979964
0.0969842
0.0961272
0.0952226
0.0940869
0.0926018
0.0914849
0.106474
0.609995
0.386885
0.271837
0.207376
0.167817
0.142442
0.125913
0.115199
0.108326
0.103976
0.10127
0.0996207
0.0986308
0.0980113
0.0975218
0.0969355
0.0961111
0.0960026
0.114705
0.428585
0.329918
0.256253
0.205771
0.170942
0.146803
0.130182
0.11889
0.111346
0.106414
0.103282
0.101379
0.100295
0.0997197
0.0993829
0.0990345
0.098565
0.0992697
0.121377
0.332344
0.28234
0.235843
0.198407
0.169611
0.148104
0.13244
0.1213
0.113564
0.108333
0.104916
0.102794
0.101571
0.100934
0.100606
0.100348
0.100136
0.101678
0.12702
0.278001
0.24769
0.216546
0.188671
0.165419
0.146936
0.132784
0.122288
0.114727
0.109445
0.105887
0.103607
0.102247
0.101509
0.10114
0.100941
0.101019
0.10353
0.132064
0.242143
0.221692
0.199532
0.178365
0.15966
0.144042
0.131566
0.121962
0.11481
0.109656
0.106077
0.103708
0.102241
0.101417
0.10102
0.100922
0.101382
0.105028
0.136816
0.216339
0.201475
0.184893
0.168404
0.153232
0.140076
0.129197
0.120552
0.113918
0.109001
0.105489
0.103097
0.101573
0.100706
0.100333
0.100408
0.101356
0.106295
0.141477
0.197027
0.185491
0.172474
0.159228
0.14671
0.13555
0.126064
0.118323
0.112229
0.107599
0.104212
0.101853
0.100327
0.0994726
0.0991859
0.0995099
0.101041
0.107399
0.146172
0.182402
0.172823
0.162072
0.151039
0.140453
0.130836
0.122493
0.115539
0.109949
0.105613
0.102382
0.100099
0.0986194
0.0978316
0.09769
0.098326
0.10051
0.108371
0.150968
0.171427
0.16288
0.153494
0.143912
0.134676
0.1262
0.118744
0.112433
0.107277
0.103216
0.100151
0.0979712
0.0965759
0.0958977
0.0959458
0.0969373
0.0998133
0.109225
0.15589
0.163448
0.155249
0.146564
0.13785
0.129498
0.121816
0.115011
0.109194
0.10439
0.100568
0.0976621
0.0955987
0.094312
0.0937724
0.0940389
0.095409
0.0989923
0.109964
0.160942
0.158017
0.149623
0.141118
0.132813
0.124966
0.117788
0.111426
0.105963
0.101427
0.0977985
0.0950366
0.0930917
0.0919259
0.0915411
0.0920396
0.0937939
0.0980777
0.110591
0.166108
0.15482
0.145761
0.137006
0.128734
0.121083
0.114167
0.10807
0.102839
0.0984908
0.0950113
0.0923715
0.0905393
0.0894973
0.0892728
0.0900055
0.0921362
0.0970969
0.111107
0.171367
0.15365
0.143488
0.134098
0.125539
0.117826
0.110972
0.104989
0.0998855
0.0956555
0.092282
0.089741
0.088011
0.0870894
0.0870232
0.0879838
0.0904738
0.0960757
0.111517
0.176699
0.154399
0.142687
0.132299
0.123163
0.115163
0.1082
0.102208
0.0971425
0.0929715
0.0896662
0.0872015
0.0855612
0.0847525
0.0848378
0.0860147
0.0888413
0.0950412
0.111836
0.182086
0.157064
0.143317
0.131554
0.121559
0.113065
0.105844
0.0997363
0.094636
0.0904745
0.0872051
0.0847963
0.0832328
0.0825279
0.0827555
0.084135
0.0872732
0.0940255
0.112089
0.187526
0.161761
0.145416
0.131861
0.12071
0.111516
0.103899
0.0975822
0.0923845
0.0881913
0.084931
0.0825605
0.081062
0.0804514
0.0808116
0.0823803
0.0858072
0.0930687
0.112318
0.193037
0.168744
0.149121
0.13328
0.120636
0.110522
0.102368
0.0957542
0.0904039
0.0861441
0.0828706
0.0805241
0.0790803
0.078556
0.0790408
0.0807883
0.0844862
0.092222
0.112586
0.198675
0.178452
0.154689
0.135946
0.1214
0.11011
0.101265
0.094265
0.0887099
0.084353
0.081048
0.0787137
0.0773168
0.0768729
0.0774773
0.0793983
0.0833588
0.0915484
0.112976
0.204541
0.191567
0.162541
0.140093
0.123121
0.110337
0.100619
0.0931322
0.0873189
0.0828362
0.079484
0.0771533
0.075798
0.0754315
0.0761548
0.0782513
0.0824786
0.091123
0.113598
0.210794
0.209127
0.17333
0.146095
0.125994
0.111297
0.100474
0.0923794
0.0862475
0.0816098
0.0781967
0.0758632
0.0745472
0.074259
0.0751058
0.077389
0.0819031
0.091031
0.114583
0.217654
0.232709
0.18806
0.154527
0.130321
0.113136
0.100897
0.0920382
0.0855134
0.0806878
0.0772004
0.0748599
0.073584
0.0733786
0.0743597
0.0768505
0.0816896
0.0913635
0.116085
0.225408
0.264702
0.208269
0.166273
0.136565
0.11608
0.101991
0.0921527
0.0851372
0.0800824
0.0765055
0.0741549
0.0729221
0.0728079
0.0739397
0.076669
0.0818901
0.09221
0.11827
0.234402
0.308746
0.236323
0.182697
0.14544
0.120473
0.103909
0.0927881
0.085145
0.0798048
0.0761187
0.0737542
0.0725687
0.0725566
0.0738599
0.0768675
0.0825452
0.0936495
0.121303
0.245027
0.370359
0.275885
0.20592
0.15805
0.126846
0.106891
0.0940439
0.0855751
0.0798681
0.0760433
0.0736578
0.0725232
0.0726249
0.0741231
0.0774547
0.0836781
0.0957409
0.125338
0.257697
0.457827
0.332627
0.239269
0.176125
0.136026
0.111307
0.0960752
0.0864867
0.0802913
0.076282
0.0738615
0.0727778
0.0730028
0.0747189
0.0784226
0.0852897
0.0985126
0.13049
0.272819
0.583316
0.415306
0.288024
0.202409
0.14931
0.117733
0.0991252
0.0879754
0.0811068
0.0768405
0.0743588
0.0733191
0.0736719
0.0756244
0.0797457
0.0873566
0.101955
0.136809
0.29076
0.764069
0.537259
0.360605
0.241341
0.168775
0.12708
0.103576
0.090195
0.0823705
0.0777333
0.0751453
0.0741318
0.0746083
0.0768084
0.081386
0.089836
0.106022
0.144257
0.311816
1.02338
0.718296
0.470421
0.300181
0.197826
0.140814
0.110031
0.0933915
0.0841769
0.0789915
0.0762239
0.075203
0.0757859
0.0782291
0.0832861
0.0926627
0.110669
0.152699
0.336211
1.39097
0.986678
0.638497
0.390874
0.242194
0.16142
0.119523
0.0979403
0.0866482
0.0806427
0.077585
0.0765039
0.0771601
0.0798255
0.0853633
0.0957271
0.115775
0.16227
0.36419
1.90274
1.38051
0.897446
0.534654
0.311397
0.192287
0.133079
0.10415
0.089866
0.0826964
0.0792142
0.078008
0.0786922
0.0815407
0.0875345
0.0989114
0.121191
0.172959
0.395721
2.60292
1.9551
1.29422
0.75992
0.418959
0.238481
0.152345
0.112509
0.0939633
0.0851798
0.0811053
0.0796948
0.0803485
0.0833219
0.0897175
0.102093
0.126746
0.184463
0.430232
3.54602
2.77171
1.88939
1.11076
0.587104
0.30823
0.179796
0.123678
0.0991015
0.0881228
0.0832536
0.0815469
0.0820997
0.085121
0.0918332
0.105144
0.132259
0.196548
0.467352
4.7941
3.90961
2.76583
1.65111
0.850016
0.414253
0.219006
0.138491
0.105444
0.0915442
0.0856488
0.0835462
0.0839196
0.0868947
0.0938055
0.107935
0.137529
0.209008
0.507116
6.41605
5.46137
4.02691
2.46669
1.25667
0.575055
0.274816
0.157878
0.113101
0.0954279
0.0882664
0.0856711
0.0857838
0.0886045
0.0955606
0.110323
0.142321
0.221625
0.550317
8.46601
7.51368
5.78225
3.65834
1.86951
0.814689
0.352898
0.182587
0.122024
0.0996888
0.0910566
0.0878926
0.0876698
0.0902184
0.0970291
0.112154
0.146337
0.234138
0.598817
10.8776
10.0822
8.10253
5.31534
2.75243
1.15801
0.457796
0.212487
0.131804
0.104124
0.0939342
0.0901741
0.0895607
0.0917177
0.0981527
0.113256
0.149185
0.246169
0.655833
13.2743
13.0067
10.9417
7.46657
3.94423
1.6182
0.588229
0.245272
0.141404
0.108364
0.0967711
0.092473
0.0914508
0.0931066
0.0988958
0.113442
0.150313
0.257003
0.726499
15.5666
15.9911
14.1236
10.0624
5.43728
2.18021
0.729972
0.274767
0.148891
0.111839
0.0993845
0.0947348
0.0933448
0.0944174
0.0992559
0.112499
0.148871
0.265022
0.819768
18.6747
19.2949
17.6967
13.1317
7.22857
2.79988
0.850498
0.289833
0.151333
0.113709
0.101482
0.0968561
0.0952383
0.0957091
0.0992887
0.110235
0.143565
0.266402
0.953436
25.5469
24.7617
22.7409
17.3655
9.60587
3.44913
0.895873
0.274633
0.14505
0.112843
0.102611
0.0986596
0.0971116
0.0970843
0.0991814
0.106639
0.132674
0.251491
1.16756
42.8511
34.1251
26.1634
18.4079
9.71161
3.20931
0.714818
0.205368
0.125789
0.107871
0.102201
0.0999363
0.0989609
0.0987151
0.0993381
0.102233
0.114689
0.194698
1.57075
)
;

boundaryField
{
    leftWall
    {
        type            epsilonWallFunction;
        value           nonuniform List<scalar> 
50
(
0.879644
1.00669
1.32116
1.60868
1.90305
2.25114
2.7144
3.198
3.31681
3.21574
3.57333
3.87714
4.06244
4.18471
4.27323
4.3455
4.41503
4.47569
4.58694
4.69858
4.82152
4.9268
4.95939
4.9219
4.83067
4.69523
4.51931
4.30972
4.07885
3.83398
3.57486
3.30013
3.02728
2.77283
2.5329
2.30613
2.09213
1.89081
1.70227
1.52681
1.36482
1.21661
1.08233
0.961661
0.85382
0.757395
0.670994
0.592259
0.526703
0.491098
)
;
    }
    rightWall
    {
        type            epsilonWallFunction;
        value           nonuniform List<scalar> 
50
(
0.0279431
0.0401357
0.0525402
0.0650292
0.0758541
0.0848346
0.0924685
0.099144
0.106474
0.114705
0.121377
0.12702
0.132064
0.136816
0.141477
0.146172
0.150968
0.15589
0.160942
0.166108
0.171367
0.176699
0.182086
0.187526
0.193037
0.198675
0.204541
0.210794
0.217654
0.225408
0.234402
0.245027
0.257697
0.272819
0.29076
0.311816
0.336211
0.36419
0.395721
0.430232
0.467352
0.507116
0.550317
0.598817
0.655833
0.726499
0.819768
0.953436
1.16756
1.57075
)
;
    }
    lowerWall
    {
        type            epsilonWallFunction;
        value           nonuniform List<scalar> 
62
(
0.879644
1.84935
1.72844
1.42522
1.48333
1.57411
1.68325
1.80014
1.92224
2.03409
2.1468
2.26794
2.40398
2.55869
2.73105
2.94795
3.25613
3.35676
3.1143
2.53916
1.88239
1.21028
0.519158
0.519158
0.511258
0.599241
0.585559
0.517039
0.45426
0.409174
0.473665
1.79948
1.96937
2.19574
2.4671
0.0350155
0.10903
0.212191
0.343759
0.48689
0.658271
0.878474
1.24539
0.0350155
0.202782
0.282354
0.333005
0.365701
0.387503
0.399932
0.407323
0.406394
0.39793
0.382957
0.361798
0.334514
0.300875
0.260634
0.213044
0.156725
0.0351168
0.0279431
)
;
    }
    atmosphere
    {
        type            inletOutlet;
        inletValue      uniform 0.1;
        value           nonuniform List<scalar> 
46
(
0.491098
0.612307
0.536412
0.539046
0.648276
0.875739
1.31202
0.1
3.34843
0.1
7.65173
10.7083
0.1
22.2283
28.4738
0.1
0.1
0.1
0.1
45.6648
43.6075
0.1
0.1
0.1
45.6786
46.1869
45.7393
0.1
0.1
26.1634
18.4079
9.71161
3.20931
0.714818
0.1
0.1
0.1
0.1
0.1
0.1
0.1
0.1
0.1
0.1
0.1
0.1
)
;
    }
    defaultFaces
    {
        type            empty;
    }
}


// ************************************************************************* //
