/*--------------------------------*- C++ -*----------------------------------*\
  =========                 |
  \\      /  F ield         | OpenFOAM: The Open Source CFD Toolbox
   \\    /   O peration     | Website:  https://openfoam.org
    \\  /    A nd           | Version:  9
     \\/     M anipulation  |
\*---------------------------------------------------------------------------*/
FoamFile
{
    format      ascii;
    class       volScalarField;
    location    "0.35";
    object      nut;
}
// * * * * * * * * * * * * * * * * * * * * * * * * * * * * * * * * * * * * * //

dimensions      [0 2 -1 0 0 0 0];

internalField   nonuniform List<scalar> 
2268
(
0.000188306
0.000159352
0.000155493
0.000146954
0.000148921
0.000151921
0.000155348
0.000158942
0.000162399
0.000165477
0.000168492
0.00017162
0.000174993
0.00017865
0.000182515
0.000187432
0.000193568
0.000195135
0.00019013
0.0001776
0.000160849
0.000138856
0.000104739
0.000357229
0.000996251
0.00111661
0.00105056
0.00104973
0.0010825
0.00113214
0.00117869
0.00120824
0.00123682
0.00126628
0.00129747
0.00133097
0.00136608
0.0013988
0.00141793
0.00139586
0.00132174
0.0011884
0.000999788
0.000687362
0.000442642
0.000283931
0.000391768
0.00164159
0.00205211
0.00206303
0.0021126
0.0021851
0.00225523
0.00230272
0.00232742
0.00234311
0.00235352
0.00236048
0.00236469
0.00236438
0.00235296
0.00231606
0.00222744
0.0020569
0.00181029
0.00149862
0.0010838
0.000669331
0.000299903
0.000418624
0.00212386
0.0027728
0.00296323
0.00311045
0.0032263
0.00330143
0.00332978
0.00332525
0.00330098
0.00326298
0.00321438
0.00315616
0.00308595
0.00299602
0.00287138
0.00268916
0.00242712
0.00208092
0.0016907
0.00125433
0.000776168
0.000298115
0.000441459
0.00250663
0.00336333
0.00374345
0.00400891
0.00417948
0.00426496
0.00427443
0.00423399
0.00416022
0.0040621
0.0039445
0.00380899
0.00365293
0.00346806
0.00323979
0.00294885
0.00258176
0.00215075
0.00170362
0.00127209
0.000795625
0.000286387
0.000464532
0.002824
0.00386922
0.00442546
0.00481006
0.00504409
0.00515132
0.00515208
0.00508129
0.00496089
0.00480303
0.00461473
0.00439869
0.00415257
0.00386809
0.00353148
0.00312723
0.002651
0.00213054
0.00162666
0.00118648
0.000757854
0.00027437
0.000490674
0.00309546
0.0043153
0.00503011
0.00552362
0.00582328
0.005962
0.00596719
0.00587829
0.00572258
0.0055143
0.00526279
0.00497256
0.00464246
0.00426515
0.00382834
0.00332018
0.00274377
0.00213805
0.00157376
0.00110075
0.000710471
0.000264642
0.000523165
0.00332383
0.00471691
0.00557069
0.00615997
0.00652183
0.00669675
0.00671737
0.00662435
0.00644914
0.00620574
0.0059054
0.00555494
0.00515561
0.00470258
0.0041866
0.00359984
0.00294982
0.00227743
0.0016537
0.00113181
0.000709923
0.000276268
0.000291817
7.73687e-05
8.6313e-05
9.12234e-05
9.40916e-05
9.58778e-05
9.68361e-05
9.73703e-05
9.72483e-05
9.65205e-05
9.52484e-05
9.34168e-05
9.0964e-05
8.77648e-05
8.36204e-05
7.81377e-05
7.04756e-05
0.000293158
0.000154771
0.000196979
0.000596972
0.000694481
0.000767568
0.000821806
0.00086344
0.000889509
0.00089531
0.000889483
0.000879272
0.000864234
0.000843112
0.000814235
0.000775286
0.000722834
0.000651309
0.000551811
0.000426064
0.000139772
0.000244798
0.00109845
0.00142481
0.00164336
0.0017887
0.00187482
0.001911
0.00190488
0.00187577
0.00183414
0.00178007
0.00171111
0.00162372
0.00151314
0.00137282
0.00119292
0.000958164
0.000642187
0.000152584
0.00028761
0.00152952
0.00213131
0.00250403
0.00273222
0.00284908
0.00288199
0.00285231
0.00278815
0.00270267
0.00259712
0.00246855
0.0023121
0.00212142
0.00188824
0.001601
0.00124236
0.000780627
0.000163839
0.000322732
0.00190549
0.00278284
0.00330143
0.00360028
0.003739
0.00376288
0.00370383
0.00359873
0.00346373
0.00330187
0.00311024
0.0028833
0.00261388
0.00229314
0.00190949
0.00144638
0.000874645
0.000172549
0.000356419
0.0022475
0.00337797
0.00402895
0.00438726
0.00454098
0.00455157
0.00446119
0.00431279
0.00412643
0.00390729
0.00365304
0.00335801
0.00301483
0.00261488
0.00214758
0.00159852
0.000942751
0.00017921
0.000391965
0.00258526
0.00393387
0.00469616
0.0051011
0.00526253
0.00525632
0.00513332
0.00494113
0.00470367
0.00442842
0.004114
0.003755
0.00334438
0.00287421
0.00233544
0.00171608
0.000994796
0.000184494
0.000439951
0.00297155
0.00448119
0.00532005
0.00575399
0.00591393
0.00588687
0.00573016
0.00549461
0.00520747
0.00487846
0.00450733
0.00408928
0.00361784
0.00308611
0.00248666
0.00180961
0.00103622
0.000188884
0.000555193
0.00365892
0.00529819
0.00633172
0.00705151
0.00750047
0.00773342
0.00778818
0.00769624
0.00750098
0.00721673
0.00685623
0.00642951
0.00594309
0.00539932
0.00479753
0.00413868
0.00343432
0.00271595
0.00203432
0.00143721
0.000942656
0.000587492
0.000530421
0.00377206
0.00599069
0.00715958
0.00799412
0.0085227
0.00881811
0.00892857
0.00888438
0.00872123
0.00845833
0.00810718
0.00767979
0.00719063
0.00665562
0.00609055
0.00551076
0.00493208
0.00437144
0.00384644
0.00337423
0.00297005
0.00263949
0.000541577
0.00400661
0.00649251
0.00784976
0.00878467
0.00936359
0.00968826
0.00982833
0.00983143
0.00972396
0.00953305
0.00926283
0.0089183
0.00851173
0.00806347
0.00759805
0.00713923
0.00670676
0.00631523
0.00597465
0.00569194
0.00547429
0.00533643
0.00056161
0.00420875
0.00689483
0.00843037
0.00945571
0.0100735
0.0104065
0.0105468
0.0105644
0.0105031
0.0103889
0.0102251
0.0100057
0.00973036
0.00941136
0.00907211
0.00873954
0.00843739
0.00818274
0.00798572
0.0078512
0.00778274
0.00778977
0.000573743
0.00437296
0.00724689
0.00893723
0.0100416
0.0106916
0.011022
0.0111416
0.0111422
0.0110914
0.0110239
0.0109503
0.0108569
0.0107271
0.0105563
0.0103566
0.0101511
0.00996449
0.00981611
0.00971747
0.00967242
0.00968
0.00973922
0.00058098
0.00451365
0.00757031
0.00939295
0.0105667
0.0112453
0.0115694
0.0116579
0.0116181
0.0115385
0.0114765
0.0114511
0.0114515
0.0114499
0.0114227
0.0113635
0.0112838
0.0112032
0.0111405
0.011108
0.0111095
0.0111417
0.0111974
0.000585812
0.00463196
0.00786139
0.00980471
0.0110436
0.0117512
0.0120714
0.0121282
0.0120378
0.0119039
0.0118049
0.0117787
0.0118226
0.0119075
0.0119959
0.0120622
0.0121002
0.0121183
0.0121301
0.0121465
0.0121718
0.012203
0.0122315
0.00058943
0.00472881
0.00811837
0.0101761
0.0114788
0.0122185
0.0125415
0.0125734
0.012434
0.0122358
0.0120723
0.0120021
0.0120362
0.0121536
0.0123127
0.0124728
0.0126096
0.0127161
0.0127959
0.0128552
0.0128977
0.0129216
0.0129202
0.000593105
0.00480848
0.00834708
0.0105113
0.0118759
0.0126511
0.0129857
0.0130046
0.012827
0.0125678
0.0123293
0.0121859
0.0121678
0.0122658
0.0124436
0.0126545
0.0128603
0.0130378
0.0131779
0.0132789
0.0133409
0.0133627
0.0133401
0.000598055
0.0048845
0.00855355
0.0108098
0.0122336
0.0130483
0.0134048
0.0134258
0.0132267
0.0129199
0.0126105
0.012383
0.0122861
0.012324
0.0124725
0.0126881
0.0129254
0.0131491
0.0133368
0.0134766
0.0135628
0.0135921
0.0135615
0.000598017
0.00497718
0.00874661
0.0110666
0.0125463
0.0134059
0.0137966
0.0138369
0.0136357
0.0133006
0.0129349
0.012628
0.0124414
0.012394
0.0124772
0.0126563
0.0128868
0.0131265
0.0133429
0.0135139
0.0136259
0.0136712
0.0136456
0.000605549
0.00507479
0.0088871
0.0112733
0.0128107
0.013722
0.0141596
0.0142361
0.0140531
0.0137108
0.0133083
0.0129357
0.012662
0.0125203
0.0125164
0.0126285
0.0128185
0.0130436
0.0132656
0.0134544
0.0135883
0.0136537
0.0136427
0.000607082
0.00513767
0.0090135
0.0114444
0.013034
0.0140003
0.0144947
0.0146223
0.0144756
0.0141468
0.0137284
0.0133084
0.012959
0.0127262
0.0126268
0.012653
0.012777
0.0129605
0.0131641
0.013353
0.0134994
0.0135831
0.0135912
0.00061473
0.00518676
0.00911217
0.0115867
0.0132227
0.0142453
0.0148036
0.0149939
0.0148992
0.0146023
0.0141885
0.0137414
0.0133341
0.0130195
0.0128256
0.0127574
0.0127989
0.0129195
0.0130827
0.0132525
0.0133974
0.0134922
0.0135184
0.000619941
0.00521475
0.00918518
0.0117023
0.0133797
0.0144592
0.0150864
0.0153486
0.0153185
0.0150696
0.014679
0.0142247
0.0137782
0.0133965
0.0131157
0.0129528
0.0129033
0.0129462
0.0130507
0.0131829
0.0133102
0.0134044
0.0134427
0.000621597
0.00522545
0.00923637
0.0117884
0.0135037
0.0146405
0.0153405
0.0156818
0.0157271
0.0155401
0.0151894
0.0147464
0.0142797
0.0138475
0.0134918
0.0132393
0.0130969
0.0130535
0.0130858
0.013164
0.0132571
0.0133362
0.0133761
0.000620518
0.00522406
0.00926326
0.0118399
0.0135899
0.0147849
0.0155612
0.015988
0.0161178
0.0160048
0.0157088
0.0152943
0.0148255
0.0143602
0.0139437
0.0136111
0.0133787
0.0132457
0.0131967
0.0132078
0.0132512
0.0132993
0.013327
0.000617464
0.00520963
0.00925855
0.0118502
0.0136322
0.0148866
0.0157428
0.0162605
0.0164828
0.0164544
0.0162264
0.0158559
0.0154021
0.0149209
0.0144594
0.0140587
0.0137432
0.0135215
0.0133866
0.0133209
0.013301
0.0133024
0.0133018
0.000612568
0.00517239
0.00921174
0.0118153
0.0136269
0.0149417
0.01588
0.0164928
0.0168143
0.0168798
0.0167315
0.016419
0.015996
0.0155158
0.0150259
0.0145708
0.0141821
0.0138762
0.0136546
0.013506
0.0134117
0.0133513
0.0133054
0.000605411
0.00509373
0.0091152
0.0117336
0.0135734
0.0149475
0.0159675
0.0166778
0.017104
0.0172716
0.0172136
0.0169718
0.0165944
0.0161312
0.0156294
0.015135
0.014685
0.0143029
0.0139971
0.0137625
0.0135853
0.0134494
0.0133406
0.000596028
0.00497313
0.00896912
0.0116036
0.0134709
0.0149002
0.0159991
0.0168079
0.0173434
0.0176204
0.0176619
0.0175022
0.0171837
0.0167529
0.0162557
0.015738
0.0152407
0.0147928
0.0144083
0.0140875
0.013821
0.0135972
0.0134081
0.000585073
0.00483416
0.00877941
0.0114213
0.0133151
0.0147934
0.0159672
0.0168749
0.0175238
0.0179165
0.0180657
0.0179978
0.0177503
0.0173664
0.01689
0.0163656
0.0158369
0.0153359
0.014881
0.014476
0.0141155
0.0137925
0.0135058
0.000572905
0.00468522
0.00855187
0.0111826
0.0131007
0.0146207
0.0158655
0.0168722
0.0176374
0.0181504
0.0184132
0.0184452
0.0182796
0.0179563
0.017517
0.0170033
0.0164604
0.0159217
0.0154069
0.014922
0.0144643
0.0140317
0.0136304
0.000559084
0.00451883
0.0082894
0.0108893
0.0128238
0.0143811
0.0156937
0.0167974
0.017678
0.0183123
0.0186918
0.0188297
0.0187552
0.0185055
0.0181197
0.0176356
0.0170978
0.0165389
0.0159773
0.0154186
0.0148621
0.0143108
0.0137794
0.000543226
0.00431033
0.00799727
0.0105582
0.0124915
0.0140807
0.0154577
0.0166508
0.0176394
0.0183909
0.0188864
0.0191338
0.0191588
0.0189953
0.0186795
0.0182462
0.0177354
0.0171763
0.0165836
0.0159598
0.0153051
0.0146285
0.0139543
0.000527359
0.00405999
0.00767262
0.010216
0.012137
0.0137382
0.0151625
0.0164285
0.017511
0.0183713
0.0189789
0.0193384
0.019471
0.0194072
0.0191796
0.0188197
0.0183597
0.0178232
0.0172177
0.0165403
0.0157917
0.0149878
0.0141636
0.000511263
0.00379719
0.00732682
0.00986932
0.0117769
0.0133757
0.014829
0.0161445
0.017295
0.0182398
0.0189508
0.0194247
0.0196727
0.0197227
0.0196028
0.0193404
0.0189575
0.0184691
0.0178721
0.0171565
0.0163232
0.0153963
0.0144229
0.000494899
0.00354159
0.00696753
0.00947979
0.0114035
0.0130136
0.0144736
0.0158096
0.0169993
0.018007
0.0188043
0.0193818
0.0197483
0.0199254
0.0199326
0.0197925
0.0195153
0.0191031
0.0185396
0.0178056
0.0169031
0.0158655
0.0147525
0.000478313
0.00330591
0.00661155
0.00908181
0.0110001
0.0126366
0.0141082
0.0154504
0.016651
0.0176929
0.0185549
0.0192243
0.0197041
0.0200081
0.0201538
0.0201576
0.020018
0.0197129
0.0192116
0.0184842
0.0175344
0.0164057
0.0151707
0.000461562
0.00309231
0.00627313
0.00870519
0.0106084
0.0122385
0.0137124
0.0150682
0.0162796
0.0173321
0.0182321
0.0189734
0.0195552
0.019985
0.020275
0.0204338
0.0204494
0.0202816
0.0198753
0.0191843
0.0182154
0.0170211
0.0156866
0.000444695
0.00289693
0.0059555
0.00835919
0.0102463
0.0118546
0.0133011
0.0146375
0.0158701
0.016949
0.0178734
0.0186641
0.0193295
0.0198752
0.020308
0.0206284
0.0208119
0.0207959
0.0205058
0.0198858
0.0189332
0.0177035
0.0162952
0.00042777
0.00271569
0.0056544
0.00803924
0.00991777
0.0115025
0.0129122
0.0142047
0.0154147
0.0165301
0.017503
0.0183374
0.0190671
0.0197086
0.0202697
0.0207437
0.0210921
0.0212347
0.0210759
0.0205472
0.0196395
0.0184132
0.0169762
0.000410863
0.0025467
0.00536506
0.00773715
0.00961895
0.011191
0.0125682
0.0138153
0.014979
0.0160827
0.0171054
0.0180124
0.0188059
0.0195202
0.0201792
0.0207779
0.0212679
0.0215575
0.0215338
0.021115
0.0202822
0.0190957
0.0176721
0.000394078
0.00238986
0.00508471
0.00744612
0.00934243
0.0109189
0.012283
0.0134988
0.014619
0.0156824
0.0167028
0.0176707
0.0185558
0.0193359
0.0200578
0.0207324
0.0213138
0.0217089
0.0218057
0.0215074
0.0207822
0.0196823
0.0183255
0.000377544
0.00224552
0.00481269
0.00716264
0.0090831
0.0106822
0.0120592
0.013274
0.014373
0.0154008
0.0163902
0.0173515
0.0182762
0.0191396
0.0199104
0.0206089
0.021207
0.0216328
0.0218007
0.0216198
0.0210368
0.0200848
0.0188659
0.0003614
0.00211344
0.00454895
0.0068856
0.00883975
0.0104807
0.0118991
0.0131499
0.0142672
0.0152843
0.0162382
0.0171563
0.0180452
0.0188971
0.0196887
0.0203705
0.0208826
0.0212228
0.0213707
0.0212777
0.02087
0.0201464
0.0191683
0.000345764
0.00199232
0.00429228
0.00661375
0.00861279
0.010318
0.0118096
0.013136
0.0143137
0.0153521
0.0162737
0.0171127
0.0178911
0.0186071
0.0192481
0.0197825
0.0201536
0.0203363
0.0203296
0.0201756
0.0198787
0.0194397
0.0188596
0.000330679
0.00187968
0.00403938
0.00634359
0.00840142
0.0101981
0.0117988
0.0132378
0.0145025
0.0155687
0.0164339
0.0171307
0.0176917
0.0181215
0.0184127
0.0185663
0.0185916
0.0184748
0.0182493
0.0180086
0.0177866
0.0175839
0.0173601
0.000316168
0.00177397
0.0037867
0.0060697
0.00820263
0.0101215
0.0118657
0.0134367
0.0147672
0.0158011
0.0165088
0.0169328
0.0171225
0.017102
0.0168984
0.0165489
0.0160879
0.0155583
0.0150683
0.0147217
0.0145633
0.0145536
0.0145899
0.000302071
0.00167328
0.00353208
0.00578749
0.00801274
0.0100815
0.0119874
0.0136673
0.0149492
0.0157944
0.0161426
0.01609
0.0157313
0.0151458
0.0144113
0.0135942
0.0127391
0.0119661
0.0113472
0.0109474
0.0108093
0.0108794
0.0110753
0.000290043
0.00161061
0.00330499
0.00551175
0.00783174
0.0100527
0.0121031
0.0138276
0.0148184
0.0152341
0.0149962
0.0143085
0.0133676
0.012393
0.0113368
0.0102105
0.00922813
0.00845434
0.00785652
0.00744099
0.00725068
0.00724058
0.00744278
0.000281708
0.0015221
0.00305361
0.0051799
0.00756452
0.00988095
0.0119572
0.013237
0.0138178
0.0134979
0.0130731
0.0120274
0.0108469
0.0101425
0.00903783
0.00776278
0.00683368
0.00604953
0.00533091
0.00466603
0.00421832
0.00391596
0.00406074
0.000432576
0.000446194
0.000463108
0.000481953
0.00241864
0.00240219
0.00249711
0.0027803
0.00531995
0.00537399
0.00550946
0.00576669
0.00788419
0.00798156
0.00811807
0.00829398
0.00983886
0.00991646
0.0100059
0.0101039
0.0112594
0.0112995
0.0113376
0.0113707
0.012246
0.0122486
0.0122422
0.0122249
0.012893
0.0128645
0.0128236
0.0127689
0.0132835
0.0132331
0.0131678
0.0130871
0.0134898
0.0134267
0.0133467
0.01325
0.0135722
0.013505
0.0134187
0.0133141
0.0135782
0.0135142
0.0134285
0.0133226
0.0135429
0.0134873
0.0134075
0.0133053
0.0134894
0.0134456
0.0133753
0.0132806
0.013432
0.0134011
0.0133425
0.0132578
0.013379
0.01336
0.0133135
0.0132401
0.0133352
0.013325
0.013289
0.0132268
0.013304
0.0132972
0.0132683
0.0132157
0.0132879
0.0132769
0.0132495
0.013203
0.0132879
0.0132635
0.01323
0.0131839
0.0133034
0.0132548
0.0132053
0.0131519
0.013332
0.0132467
0.0131696
0.0130987
0.0133702
0.0132352
0.013117
0.0130159
0.0134165
0.0132184
0.0130448
0.0128986
0.013475
0.0132021
0.0129589
0.0127516
0.0135593
0.0132031
0.0128786
0.012595
0.0136927
0.0132498
0.0128372
0.0124658
0.0139038
0.0133773
0.0128764
0.0124123
0.0142183
0.0136173
0.0130347
0.012481
0.0146504
0.0139877
0.0133353
0.0127023
0.0151973
0.0144866
0.0137787
0.0130812
0.0158418
0.0150936
0.0143429
0.0135955
0.0165359
0.0157671
0.0149916
0.0142132
0.0172272
0.0164591
0.0156791
0.0148897
0.0178556
0.0171151
0.0163528
0.0155709
0.0183167
0.0176413
0.0169231
0.016167
0.0182977
0.0177651
0.0171371
0.016441
0.0170993
0.0167708
0.0163401
0.015848
0.0145561
0.0144571
0.0143074
0.014139
0.0112205
0.0113191
0.0114001
0.0115133
0.00767291
0.00792973
0.00819695
0.00851674
0.0043441
0.00492565
0.0053724
0.00575235
0.00157713
0.00392129
0.00538912
0.00626008
0.00670325
0.00684364
0.00677012
0.00655152
0.00624413
0.00587892
0.00546827
0.0050136
0.00451121
0.00395583
0.00334226
0.00266535
0.00191776
0.0010835
0.000193515
0.00378223
0.00550206
0.00672535
0.00746949
0.00782503
0.00788567
0.00772511
0.00742015
0.00702384
0.00656721
0.00606407
0.00551736
0.00492478
0.00428248
0.00358684
0.00283431
0.00201877
0.00112579
0.000198452
0.00628707
0.00733927
0.00815285
0.00864402
0.00882628
0.00875154
0.00848943
0.00809887
0.00762351
0.00709037
0.00651232
0.0058927
0.00523006
0.00452147
0.00376411
0.00295502
0.00208858
0.00115259
0.000202278
0.0085608
0.00908117
0.0094904
0.00968668
0.00966349
0.00944971
0.00908796
0.00861979
0.00807812
0.00748415
0.00684826
0.00617317
0.00545758
0.00469893
0.00389468
0.00304204
0.00213602
0.00116802
0.000205397
0.0102303
0.0104297
0.0105419
0.0105079
0.0103169
0.00998463
0.00953853
0.00900736
0.00841465
0.00777574
0.00709792
0.00638264
0.00562829
0.00483229
0.00399213
0.00310521
0.00216759
0.00117545
0.000208099
0.0113925
0.0113896
0.011304
0.0111062
0.010791
0.0103693
0.00986029
0.00928384
0.00865612
0.00798729
0.00728159
0.00653904
0.00575743
0.00493402
0.00406629
0.00315195
0.00218848
0.00117764
0.000210574
0.0121697
0.0120333
0.0118166
0.0115079
0.0111077
0.0106255
0.0100754
0.00947115
0.00882323
0.00813755
0.00741573
0.00665635
0.0058566
0.00501353
0.00412465
0.00318808
0.00220286
0.00117683
0.000212944
0.0126584
0.0124331
0.0121314
0.0117516
0.0112981
0.0107799
0.0102076
0.00959044
0.00893456
0.00824254
0.00751379
0.00674567
0.00593482
0.00507808
0.004173
0.00321807
0.00221397
0.00117467
0.000215276
0.0129385
0.0126557
0.012301
0.0118787
0.0113956
0.0108601
0.0102799
0.009661
0.00900625
0.00831559
0.00758663
0.00681575
0.00599907
0.00513321
0.00421568
0.00324529
0.00222415
0.00117233
0.000217608
0.0130767
0.0127586
0.012373
0.0119279
0.0114313
0.0108909
0.0103125
0.00969928
0.0090516
0.00836735
0.00764274
0.00687328
0.00605457
0.00518297
0.00425583
0.00327208
0.00223501
0.00117058
0.000219952
0.0131269
0.012789
0.0123871
0.0119315
0.0114312
0.0108933
0.0103219
0.00971827
0.00908088
0.00840595
0.00768849
0.00692319
0.00610514
0.00523027
0.00429564
0.00330003
0.00224763
0.00116992
0.00022231
0.0131297
0.0127827
0.0123734
0.0119142
0.011415
0.0108826
0.0103202
0.00972754
0.00910159
0.00843724
0.00772842
0.006969
0.00615342
0.0052771
0.00433656
0.00333022
0.00226274
0.00117069
0.000224673
0.0131128
0.0127639
0.0123526
0.0118929
0.0113962
0.0108695
0.0103157
0.00973354
0.0091188
0.00846521
0.00776565
0.00701311
0.00620127
0.00532483
0.0043796
0.00336337
0.0022809
0.00117321
0.000227034
0.0130933
0.0127475
0.012337
0.0118778
0.0113829
0.0108605
0.0103135
0.00974028
0.00913572
0.00849246
0.0078023
0.00705722
0.00625
0.00537446
0.00442553
0.00340008
0.00230255
0.00117776
0.000229384
0.0130793
0.0127403
0.0123325
0.0118738
0.0113793
0.0108587
0.0103162
0.00974999
0.00915426
0.00852065
0.00783981
0.00710258
0.00630067
0.00542685
0.00447498
0.00344081
0.00232808
0.00118458
0.000231717
0.0130728
0.0127438
0.0123407
0.0118824
0.0113865
0.0108655
0.010325
0.00976373
0.00917547
0.00855085
0.00787925
0.00715022
0.00635422
0.0054828
0.00452861
0.00348608
0.00235785
0.00119394
0.000234035
0.0130725
0.0127563
0.01236
0.0119026
0.0114043
0.0108807
0.0103399
0.00978181
0.00919987
0.00858376
0.00792148
0.00720108
0.00641158
0.00554318
0.00458714
0.00353642
0.00239226
0.00120607
0.000236352
0.0130744
0.0127736
0.0123872
0.0119323
0.0114312
0.0109035
0.0103606
0.00980408
0.00922763
0.00861984
0.00796718
0.00725602
0.00647372
0.00560892
0.00465137
0.00359242
0.0024317
0.00122126
0.000238692
0.0130733
0.0127899
0.0124174
0.0119681
0.0114652
0.0109326
0.0103861
0.00983011
0.00925862
0.00865931
0.00801692
0.00731587
0.00654161
0.00568101
0.00472216
0.00365471
0.00247656
0.00123978
0.0002411
0.0130619
0.0127972
0.0124438
0.0120053
0.0115034
0.0109663
0.0104156
0.00985921
0.00929251
0.00870218
0.00807105
0.0073813
0.00661615
0.00576044
0.00480037
0.0037239
0.00252715
0.00126185
0.000243638
0.0130307
0.0127844
0.0124569
0.0120374
0.0115422
0.0110027
0.0104476
0.00989054
0.00932871
0.00874818
0.00812966
0.00745275
0.00669808
0.00584808
0.00488683
0.00380048
0.00258366
0.00128758
0.000246383
0.0129676
0.0127369
0.012443
0.0120546
0.0115757
0.0110387
0.0104808
0.00992308
0.00936649
0.00879682
0.00819257
0.00753041
0.00678792
0.00594466
0.00498223
0.00388491
0.00264611
0.00131695
0.000249431
0.0128593
0.0126365
0.0123837
0.0120424
0.0115952
0.0110702
0.010513
0.00995569
0.00940494
0.00884738
0.00825932
0.00761415
0.00688589
0.00605068
0.00508716
0.00397752
0.00271444
0.00134974
0.000252879
0.0126955
0.0124648
0.0122562
0.0119808
0.0115877
0.0110905
0.0105416
0.00998707
0.00944316
0.00889902
0.0083292
0.0077035
0.00699188
0.00616635
0.00520197
0.00407855
0.00278852
0.00138567
0.000256823
0.0124753
0.0122089
0.0120373
0.0118444
0.0115342
0.0110894
0.0105623
0.0100157
0.00948027
0.00895091
0.00840134
0.00779772
0.00710538
0.00629151
0.00532678
0.00418818
0.0028683
0.00142442
0.000261346
0.0122154
0.011871
0.0117108
0.0116065
0.01141
0.0110518
0.0105686
0.0100393
0.00951546
0.0090023
0.0084748
0.00789579
0.00722552
0.00642557
0.00546134
0.00430643
0.00295387
0.00146592
0.0002665
0.0119541
0.0114772
0.0112787
0.0112461
0.0111868
0.0109568
0.0105503
0.0100547
0.0095479
0.00905263
0.00854869
0.00799648
0.00735098
0.00656734
0.00560481
0.00443295
0.00304548
0.00151067
0.000272305
0.0117468
0.0110793
0.0107701
0.0107593
0.0108383
0.0107777
0.0104925
0.0100565
0.00957641
0.00910152
0.00862221
0.00809843
0.00747995
0.00671488
0.00575546
0.0045666
0.00314333
0.00156
0.000278748
0.0116525
0.0107474
0.0102454
0.0101711
0.0103506
0.0104853
0.0103737
0.0100357
0.00959884
0.00914866
0.00869474
0.00820039
0.00761093
0.00686689
0.00591209
0.00470575
0.0032449
0.00161592
0.000285794
0.0117159
0.0105517
0.00978648
0.009541
0.00973448
0.0100545
0.0101676
0.0099801
0.00961229
0.00919418
0.00876673
0.0083024
0.00774358
0.00702283
0.00607439
0.00485034
0.0033493
0.00167257
0.000293443
0.0119541
0.0105433
0.00948063
0.00896115
0.00904733
0.00949417
0.00985867
0.00987603
0.00961126
0.00923661
0.00883757
0.0084037
0.00787696
0.00718192
0.00624203
0.00500043
0.00345638
0.00172653
0.000301474
0.0123605
0.0107565
0.0094014
0.00853863
0.008382
0.00883973
0.00943821
0.00970907
0.00958919
0.00927428
0.00890683
0.00850374
0.00801034
0.0073437
0.00641513
0.00515663
0.00356673
0.00177953
0.000309668
0.0129088
0.0111771
0.0095718
0.00833958
0.00782603
0.00814803
0.00891278
0.00946785
0.00953946
0.00930538
0.00897404
0.00860203
0.00814313
0.00750797
0.00659449
0.0053206
0.00368193
0.00183257
0.000317924
0.0135527
0.0117673
0.00998071
0.0083959
0.0074516
0.0074913
0.00830925
0.00914863
0.00945694
0.00932826
0.00903858
0.00869792
0.0082747
0.00767482
0.00678177
0.00549554
0.00380521
0.00188717
0.000326262
0.0142336
0.0124721
0.0105907
0.00870476
0.00730079
0.00693952
0.00767364
0.00876018
0.00934071
0.00934215
0.00909971
0.00879044
0.00840422
0.00784449
0.00697952
0.00568667
0.0039422
0.00194628
0.000334861
0.0148606
0.0132064
0.0113306
0.00922462
0.00737607
0.00654033
0.00706185
0.00832732
0.00919753
0.00934826
0.00915652
0.00887812
0.00853044
0.00801714
0.0071913
0.00590182
0.00410186
0.0020147
0.000344072
0.0152432
0.013818
0.0120747
0.00986498
0.00763402
0.00630374
0.00652416
0.00789121
0.0090455
0.00935075
0.00920786
0.00895879
0.00865148
0.00819261
0.00742158
0.00615238
0.00429831
0.00209998
0.000354413
0.0150127
0.0140511
0.0126259
0.010481
0.00798382
0.00619619
0.00608989
0.00750536
0.0089161
0.00935666
0.00925176
0.00902928
0.00876459
0.00836993
0.00767532
0.00645455
0.00455437
0.00221465
0.000366617
0.0138822
0.0136065
0.012754
0.0109025
0.00830403
0.00614736
0.00576096
0.00722883
0.00885052
0.00937193
0.00928358
0.00908481
0.00886562
0.00854614
0.00795634
0.00683039
0.0049091
0.00238203
0.000381833
0.0118549
0.0123864
0.0123345
0.0110064
0.00848384
0.00607141
0.00551932
0.0071192
0.00888255
0.00938916
0.0092917
0.00911761
0.00894815
0.00871443
0.00826337
0.00730666
0.00543352
0.00265262
0.000402072
0.00930914
0.010594
0.0113968
0.010721
0.00843102
0.00588585
0.00534257
0.00723467
0.00900223
0.00936796
0.00925315
0.00911623
0.00900321
0.00886232
0.00858241
0.00790501
0.00626504
0.00316441
0.000431238
0.0063753
0.00788253
0.00980227
0.00989155
0.00796099
0.00558434
0.00541344
0.00775833
0.00910062
0.00922124
0.00913633
0.00906841
0.00902162
0.0089721
0.00887567
0.00860269
0.00766754
0.00452211
0.000478299
)
;

boundaryField
{
    leftWall
    {
        type            nutkWallFunction;
        Cmu             0.09;
        kappa           0.41;
        E               9.8;
        value           nonuniform List<scalar> 
50
(
3.4918e-05
4.17975e-05
4.35496e-05
4.62275e-05
4.86245e-05
5.11212e-05
5.42003e-05
6.36748e-05
6.52315e-05
5.57972e-05
5.68321e-05
5.83713e-05
5.92813e-05
5.98487e-05
6.02453e-05
6.05598e-05
6.0865e-05
6.12401e-05
6.54447e-05
6.40579e-05
6.23288e-05
6.27305e-05
6.29444e-05
6.28737e-05
6.25798e-05
6.20964e-05
6.14353e-05
6.0604e-05
5.96317e-05
5.85456e-05
5.73425e-05
5.59945e-05
5.45461e-05
5.31068e-05
5.16577e-05
5.01931e-05
4.87126e-05
4.72178e-05
4.57121e-05
4.42004e-05
4.26907e-05
4.11929e-05
3.97186e-05
3.82783e-05
3.6879e-05
3.55201e-05
3.41984e-05
3.28921e-05
3.17254e-05
3.1014e-05
)
;
    }
    rightWall
    {
        type            nutkWallFunction;
        Cmu             0.09;
        kappa           0.41;
        E               9.8;
        value           nonuniform List<scalar> 
50
(
9.79637e-06
1.11346e-05
1.3097e-05
1.47716e-05
1.60486e-05
1.70143e-05
1.77787e-05
1.84112e-05
1.90728e-05
1.97775e-05
2.03226e-05
2.07668e-05
2.11519e-05
2.15048e-05
2.18426e-05
2.21748e-05
2.25064e-05
2.28391e-05
2.31729e-05
2.35067e-05
2.38393e-05
2.41693e-05
2.44958e-05
2.48189e-05
2.514e-05
2.54623e-05
2.57916e-05
2.61359e-05
2.65061e-05
2.69151e-05
2.73771e-05
2.79063e-05
2.85153e-05
2.92129e-05
3.00035e-05
3.08858e-05
3.18544e-05
3.29047e-05
3.40173e-05
3.5161e-05
3.63179e-05
3.74858e-05
3.86839e-05
3.99546e-05
4.13625e-05
4.2998e-05
4.50009e-05
4.76177e-05
5.13249e-05
5.71837e-05
)
;
    }
    lowerWall
    {
        type            nutkWallFunction;
        Cmu             0.09;
        kappa           0.41;
        E               9.8;
        value           nonuniform List<scalar> 
62
(
1.3841e-05
1.41756e-05
1.36335e-05
1.22191e-05
1.25149e-05
1.29618e-05
1.34743e-05
1.40005e-05
1.45199e-05
1.49767e-05
1.54202e-05
1.58789e-05
1.63733e-05
1.69108e-05
1.74815e-05
1.81745e-05
1.90827e-05
1.93533e-05
1.86486e-05
1.68223e-05
1.43368e-05
1.10318e-05
5.7519e-06
5.7519e-06
3.17708e-05
3.39005e-05
3.36046e-05
3.19647e-05
3.03094e-05
2.90037e-05
3.07712e-05
5.1822e-05
5.35559e-05
5.57066e-05
5.80881e-05
0
1.93642e-05
2.62328e-05
3.21338e-05
3.69223e-05
4.14733e-05
4.62175e-05
5.25201e-05
0
1.23192e-06
2.69895e-06
3.48592e-06
3.9476e-06
4.23795e-06
4.39707e-06
4.48899e-06
4.47531e-06
4.36522e-06
4.16793e-06
3.88042e-06
3.49204e-06
2.98121e-06
2.31369e-06
1.42142e-06
1.57023e-07
0
0
)
;
    }
    atmosphere
    {
        type            calculated;
        value           nonuniform List<scalar> 
46
(
0.000281708
0.0015221
0.00305361
0.0051799
0.00756452
0.00988095
0.0119572
0.009
0.0138178
0.009
0.0130731
0.0120274
0.009
0.0101425
0.00903783
0.009
0.009
0.009
0.009
0.00466603
0.00421832
0.009
0.009
0.009
0.00492565
0.0053724
0.00575235
0.009
0.009
0.00980227
0.00989155
0.00796099
0.00558434
0.00541344
0.009
0.009
0.009
0.009
0.009
0.009
0.009
0.009
0.009
0.009
0.009
0.009
)
;
    }
    defaultFaces
    {
        type            empty;
    }
}


// ************************************************************************* //
