/*--------------------------------*- C++ -*----------------------------------*\
  =========                 |
  \\      /  F ield         | OpenFOAM: The Open Source CFD Toolbox
   \\    /   O peration     | Website:  https://openfoam.org
    \\  /    A nd           | Version:  9
     \\/     M anipulation  |
\*---------------------------------------------------------------------------*/
FoamFile
{
    format      ascii;
    class       volScalarField;
    location    "0.35";
    object      nut;
}
// * * * * * * * * * * * * * * * * * * * * * * * * * * * * * * * * * * * * * //

dimensions      [0 2 -1 0 0 0 0];

internalField   nonuniform List<scalar> 
2268
(
6.87408e-05
6.76918e-05
8.52371e-05
9.77669e-05
0.000107878
0.000116081
0.000123268
0.000129728
0.000135571
0.00014082
0.00014545
0.000149403
0.000152604
0.000154944
0.000156259
0.000156177
0.000155177
0.000152757
0.000148585
0.000142613
0.000134344
0.00012122
0.000104766
0.00013336
0.000460056
0.000678444
0.000841748
0.000968946
0.00107396
0.00116182
0.00123577
0.00129767
0.00134854
0.00138892
0.0014191
0.00143923
0.00144935
0.00144919
0.00143595
0.00137388
0.00127483
0.00115205
0.00102697
0.000916522
0.000818869
0.00030925
0.000143532
0.00072894
0.00114668
0.00148957
0.00178404
0.00204007
0.00226263
0.00245461
0.00261769
0.00275297
0.00286135
0.0029436
0.00300035
0.00303184
0.00303685
0.00300802
0.00290513
0.0027173
0.00244391
0.00211086
0.00177049
0.00142794
0.000371948
0.000152009
0.0008801
0.00144733
0.00194366
0.00239038
0.00279269
0.003152
0.00346841
0.00374173
0.00397207
0.00416001
0.00430651
0.0044125
0.00447828
0.00450166
0.00447186
0.0043506
0.00411171
0.00373525
0.00323073
0.00264973
0.00197493
0.000426333
0.000160728
0.00096635
0.00164529
0.0022656
0.0028432
0.00337668
0.003862
0.00429539
0.00467423
0.00499732
0.00526481
0.0054777
0.00563717
0.00574357
0.00579384
0.005775
0.00564991
0.00538392
0.00494237
0.00431405
0.00351822
0.00247618
0.00046511
0.000167835
0.00102305
0.00178169
0.00250108
0.00319017
0.00383921
0.00443745
0.00497665
0.00545159
0.00585992
0.00620148
0.00647744
0.0066893
0.00683751
0.00691843
0.00691774
0.00679889
0.00652244
0.00604236
0.00532589
0.0043448
0.00293927
0.000499441
0.000173252
0.00106201
0.00187844
0.00267835
0.00346346
0.00421459
0.00491339
0.0055468
0.00610722
0.00659139
0.00699918
0.00733219
0.0075924
0.00778047
0.00789251
0.00791351
0.00780765
0.00753316
0.00703393
0.00625542
0.00511924
0.00338307
0.00053376
0.000177456
0.00108519
0.00194471
0.00281312
0.00368359
0.00452645
0.00531519
0.0060321
0.00666752
0.00721783
0.0076833
0.00806626
0.00836934
0.00859362
0.00873528
0.00877902
0.00869037
0.00842803
0.00792567
0.00710891
0.0058584
0.0038609
0.00057552
0.000292742
8.42431e-05
9.6533e-05
0.000104718
0.000111068
0.000114578
0.000115279
0.000113877
0.00011061
0.000106956
0.000102356
9.68977e-05
9.09318e-05
8.50332e-05
7.96678e-05
7.40568e-05
6.91449e-05
0.000296159
0.000158429
0.000214544
0.000544259
0.000703058
0.00087182
0.000998903
0.00107227
0.00112135
0.00114863
0.00115108
0.00111967
0.00105792
0.000975606
0.00088159
0.000779774
0.000679112
0.000586576
0.000496854
0.000435342
0.000145044
0.000256016
0.00099137
0.00134961
0.00165031
0.00186239
0.00200752
0.00211944
0.00220161
0.00224538
0.00223242
0.00215048
0.0020078
0.00181849
0.00160018
0.00137611
0.00115989
0.000942721
0.000679564
0.000160288
0.00028737
0.00132753
0.00181941
0.0021625
0.00239399
0.00257243
0.00273097
0.00287295
0.00298674
0.00303932
0.00299998
0.00286444
0.00263849
0.0023433
0.0020145
0.00167718
0.00132385
0.00088731
0.000173508
0.000312366
0.00154834
0.00209539
0.00243639
0.00265945
0.00284523
0.00302778
0.00321561
0.00340172
0.0035397
0.00358645
0.0035177
0.00331855
0.00299831
0.0025952
0.00214831
0.00166159
0.00106497
0.000184652
0.00033313
0.00166064
0.00220699
0.00254884
0.0027695
0.00294991
0.00313142
0.00333625
0.00357019
0.0037846
0.0039346
0.00397283
0.00385505
0.00356374
0.00312526
0.00258802
0.00197402
0.00122375
0.000194326
0.000352059
0.00166632
0.00221864
0.00259714
0.00283579
0.00300559
0.00316108
0.0033465
0.00358226
0.00383993
0.00408239
0.00424365
0.00424664
0.00403422
0.00360526
0.0030056
0.00227458
0.00137331
0.000203126
0.000375464
0.00154874
0.00221444
0.00265286
0.00293032
0.00309656
0.00320894
0.0033429
0.00352911
0.0037813
0.00407891
0.00435241
0.00449562
0.0044023
0.00402935
0.0034039
0.00257282
0.00152197
0.00021162
0.000181634
0.00109419
0.0019966
0.00295014
0.00393412
0.00490178
0.00581341
0.00664402
0.00738124
0.00802136
0.00856592
0.00901894
0.00938475
0.00966588
0.00985978
0.00995224
0.00990816
0.00968035
0.00919786
0.00836525
0.00704342
0.00500057
0.00178224
0.000186213
0.00104473
0.00197636
0.00304174
0.00417707
0.00529919
0.00635004
0.00729951
0.00813632
0.00886004
0.00947591
0.00999139
0.0104136
0.0107475
0.010993
0.0111389
0.0111549
0.0109821
0.0105578
0.00978234
0.00852449
0.00662514
0.00399391
0.00019563
0.000935153
0.00187487
0.00307085
0.00437365
0.00564573
0.00681556
0.00785625
0.00876302
0.00954144
0.0102017
0.0107553
0.0112124
0.0115804
0.0118622
0.0120511
0.012124
0.0120324
0.011718
0.0110963
0.0100648
0.0085328
0.00655176
0.000221426
0.000810666
0.00176891
0.00313275
0.00460805
0.00600691
0.00726403
0.00836508
0.00931434
0.0101238
0.0108081
0.0113823
0.0118593
0.0122487
0.0125559
0.0127784
0.0129018
0.0128944
0.0127053
0.0122747
0.0115344
0.010442
0.00907001
0.000266278
0.000775665
0.00183797
0.00339119
0.00498548
0.00644927
0.00774506
0.00887048
0.00983557
0.0106562
0.0113501
0.0119341
0.0124232
0.0128282
0.0131548
0.0134028
0.0135646
0.0136224
0.0135429
0.0132794
0.0127982
0.0120935
0.0112123
0.000307768
0.00101823
0.00234981
0.00398013
0.00555412
0.0069981
0.00828098
0.00939651
0.0103543
0.0111714
0.0118665
0.0124574
0.0129595
0.0133828
0.0137301
0.0140001
0.0141893
0.0142898
0.014285
0.014124
0.0138051
0.0133668
0.0128253
0.000334335
0.00179535
0.00333799
0.00479565
0.00622627
0.00758667
0.00881487
0.00989056
0.0108198
0.0116187
0.0123053
0.0128956
0.0134021
0.0138324
0.0141875
0.0144663
0.0146668
0.0147868
0.014822
0.0147508
0.0145601
0.0142959
0.0139683
0.000333838
0.00218107
0.00395507
0.005405
0.00680521
0.00812571
0.00930942
0.0103382
0.0112211
0.011977
0.0126261
0.0131852
0.0136658
0.0140753
0.0144168
0.0146917
0.0149011
0.0150455
0.0151172
0.0151105
0.0150197
0.0148576
0.0146408
0.000318177
0.00225343
0.00419472
0.00583251
0.00731229
0.00863799
0.00979213
0.0107764
0.0116088
0.0123134
0.0129135
0.0134276
0.0138687
0.014245
0.0145611
0.0148198
0.0150238
0.015175
0.0152692
0.0152939
0.0152329
0.0151046
0.0149428
0.000314768
0.00219347
0.00432343
0.00615642
0.00773089
0.00907462
0.0102064
0.0111505
0.0119359
0.0125919
0.0131444
0.0136139
0.0140145
0.014355
0.0146404
0.0148734
0.0150558
0.0151882
0.0152669
0.01528
0.0152145
0.0150837
0.0149266
0.000314983
0.00216478
0.00443981
0.00642298
0.00807092
0.00942612
0.010535
0.011441
0.0121831
0.0127952
0.0133052
0.0137342
0.0140967
0.0144013
0.014652
0.0148499
0.0149944
0.0150839
0.0151138
0.015076
0.0149642
0.0147927
0.0146016
0.000316666
0.00217195
0.00455624
0.00664064
0.00833323
0.00968781
0.0107709
0.0116403
0.012343
0.0129164
0.0133894
0.0137831
0.0141112
0.0143809
0.0145942
0.0147497
0.0148437
0.0148724
0.0148315
0.0147167
0.0145297
0.0142895
0.0140373
0.000318308
0.00220813
0.00466972
0.00681045
0.0085204
0.00986265
0.0109172
0.0117517
0.012419
0.0129588
0.0134003
0.0137639
0.0140619
0.0142991
0.0144749
0.0145844
0.0146215
0.0145803
0.0144574
0.0142534
0.0139775
0.0136543
0.0133277
0.00031911
0.00225742
0.00476996
0.00693293
0.00863938
0.00996063
0.0109853
0.0117874
0.0124233
0.0129343
0.0133495
0.0136883
0.013961
0.0141698
0.0143109
0.014376
0.0143562
0.0142445
0.0140389
0.0137447
0.0133778
0.0129687
0.0125644
0.000318705
0.00230554
0.00484726
0.00700996
0.0086996
0.00999493
0.01099
0.0117627
0.0123715
0.0128584
0.0132524
0.0135717
0.0138247
0.0140111
0.0141235
0.0141506
0.0140805
0.0139055
0.0136248
0.0132482
0.0127975
0.0123085
0.0118312
0.000316992
0.0023424
0.00489591
0.00704493
0.00871068
0.00997844
0.0109458
0.0116926
0.0122784
0.0127457
0.0131233
0.0134285
0.0136681
0.0138394
0.013932
0.0139313
0.0138226
0.0135971
0.0132553
0.0128105
0.0122899
0.0117343
0.0111965
0.00031402
0.00236261
0.00491428
0.00704205
0.00868101
0.00992186
0.0108643
0.011589
0.0121559
0.0126077
0.0129732
0.0132693
0.0135018
0.013666
0.013749
0.0137328
0.0136001
0.0133403
0.0129544
0.0124589
0.011886
0.0112818
0.0107019
0.000309917
0.00236494
0.00490378
0.00700566
0.00861716
0.00983312
0.010754
0.0114604
0.0120121
0.012452
0.012809
0.0131002
0.013331
0.0134957
0.0135791
0.0135601
0.0134184
0.0131409
0.0127285
0.0122001
0.0115931
0.0109598
0.0103588
0.00030486
0.00235092
0.0048674
0.00693977
0.00852409
0.00971779
0.0106208
0.0113128
0.0118527
0.0122836
0.0126349
0.0129243
0.0131576
0.0133288
0.013421
0.0134108
0.0132739
0.0129943
0.0125716
0.0120269
0.0114032
0.0107594
0.0101571
0.000299062
0.00232335
0.00480848
0.00684789
0.00840559
0.00957988
0.0104688
0.0111499
0.0116813
0.0121057
0.0124534
0.012743
0.0129814
0.0131632
0.0132709
0.0132786
0.0131585
0.0128907
0.0124726
0.0119269
0.0113024
0.0106645
0.0100773
0.000292771
0.00228502
0.00472998
0.00673306
0.00826487
0.00942258
0.0103009
0.0109746
0.0115004
0.0119207
0.0122663
0.0125573
0.0128023
0.0129972
0.0131247
0.0131573
0.0130638
0.01282
0.0124203
0.0118882
0.0112773
0.0106593
0.0100998
0.000286258
0.00223785
0.00463441
0.00659822
0.00810505
0.00924889
0.0101199
0.0107894
0.0113122
0.0117304
0.0120752
0.0123684
0.0126205
0.0128293
0.0129791
0.0130416
0.0129829
0.0127742
0.012406
0.0119012
0.011317
0.0107301
0.0102069
0.000279807
0.00218396
0.00452448
0.00644663
0.00792953
0.009062
0.0099285
0.0105965
0.0111188
0.0115365
0.0118818
0.0121775
0.0124365
0.0126594
0.0128325
0.0129282
0.0129107
0.0127469
0.0124226
0.0119582
0.0114122
0.010865
0.0103837
0.000273702
0.00212545
0.00440355
0.00628232
0.00774236
0.00886551
0.00972978
0.0103984
0.0109219
0.0113407
0.0116871
0.0119855
0.0122511
0.0124874
0.0126837
0.0128144
0.0128431
0.0127329
0.0124641
0.0120519
0.011554
0.0110528
0.010617
0.000268217
0.00206486
0.00427596
0.00611033
0.00754841
0.00866368
0.00952715
0.0101977
0.0107234
0.011144
0.0114921
0.0117931
0.0120645
0.0123131
0.0125317
0.0126981
0.0127763
0.0127269
0.0125237
0.0121748
0.0117333
0.0112827
0.0108944
0.000263608
0.00200489
0.00414673
0.00593669
0.00735353
0.00846152
0.0093245
0.00999701
0.010525
0.0109475
0.0112971
0.0116003
0.0118767
0.012136
0.0123755
0.0125767
0.0127063
0.0127229
0.012594
0.0123181
0.0119404
0.0115436
0.0112042
0.000260109
0.00194823
0.00402136
0.00576814
0.00716431
0.00826479
0.00912639
0.00979975
0.010329
0.0107523
0.0111025
0.011407
0.0116869
0.0119551
0.0122132
0.0124474
0.0126282
0.012714
0.0126663
0.0124721
0.0121647
0.0118239
0.0115341
0.000257939
0.00189735
0.00390551
0.00561192
0.00698825
0.0080801
0.00893798
0.00960949
0.0101374
0.0105594
0.0109085
0.0112126
0.0114943
0.0117693
0.012043
0.0123072
0.012537
0.012693
0.0127318
0.0126287
0.0124028
0.0121242
0.0118825
0.000257307
0.00185419
0.00380457
0.00547549
0.00683322
0.00791426
0.0087648
0.00943032
0.00995296
0.0103704
0.0107156
0.011017
0.0112983
0.0115771
0.0118629
0.0121529
0.0124283
0.0126536
0.0127836
0.0127823
0.0126501
0.0124414
0.0122446
0.000258416
0.00182014
0.00372332
0.00536626
0.00670682
0.00777465
0.00861291
0.00926675
0.00977875
0.010187
0.0105247
0.0108204
0.0110983
0.0113777
0.0116712
0.0119814
0.0122963
0.0125866
0.0128083
0.0129166
0.0128918
0.0127652
0.0126158
0.000261454
0.00179617
0.00366605
0.00529058
0.00661678
0.00766836
0.00848819
0.0091233
0.00961808
0.0100116
0.0103372
0.0106235
0.0108946
0.0111707
0.0114671
0.0117906
0.0121365
0.0124832
0.0127916
0.0130126
0.0131082
0.0130815
0.0129902
0.000266588
0.0017831
0.0036366
0.00525471
0.00656992
0.00760166
0.00839588
0.00900414
0.00947415
0.00984656
0.0101551
0.0104276
0.0106881
0.0109568
0.0112504
0.0115797
0.0119461
0.0123368
0.0127209
0.0130507
0.0132755
0.0133691
0.0133574
0.000273937
0.00178213
0.00363865
0.00526441
0.00657204
0.00757951
0.00833993
0.00891245
0.00934967
0.00969434
0.00998029
0.0102347
0.0104805
0.0107373
0.0110225
0.0113494
0.0117248
0.0121443
0.0125872
0.0130131
0.0133668
0.0135985
0.0136956
0.000283538
0.00179507
0.003677
0.00532521
0.00662775
0.00760503
0.00832242
0.00884992
0.0092464
0.0095569
0.00981512
0.010047
0.0102738
0.0105143
0.0107854
0.0111018
0.0114745
0.0119061
0.0123865
0.0128868
0.0133565
0.013733
0.0139678
0.000295324
0.00182508
0.00375746
0.0054429
0.00674046
0.00767915
0.00834306
0.00881632
0.00916482
0.00943556
0.00966153
0.00986687
0.0100709
0.0102906
0.010542
0.0108404
0.0111989
0.0116258
0.0121204
0.0126664
0.0132256
0.0137358
0.0141248
0.000309132
0.00187667
0.00388808
0.0056243
0.0069123
0.00780021
0.0083989
0.00880927
0.00910396
0.00933085
0.00952125
0.0096969
0.0098747
0.0100696
0.0102963
0.0105695
0.0109035
0.01131
0.0117955
0.0123555
0.0129669
0.0135797
0.0141161
0.000324787
0.00195444
0.00408091
0.00587809
0.00714386
0.00796349
0.00848407
0.00882429
0.00906151
0.0092425
0.00939565
0.00953964
0.00968865
0.00985538
0.0100527
0.0102943
0.0105944
0.0109666
0.0114219
0.0119646
0.0125862
0.0132547
0.0139041
0.00034212
0.00206923
0.00435597
0.00621571
0.00743324
0.00816051
0.00858983
0.00885511
0.00903413
0.00916966
0.00928579
0.00939758
0.0095163
0.00965222
0.00981622
0.0100205
0.0102784
0.0106041
0.0110107
0.0115082
0.0120988
0.0127687
0.013474
0.0003611
0.00224279
0.00474818
0.00665162
0.00777386
0.00837809
0.00870483
0.00889432
0.00901797
0.00911122
0.00919259
0.00927322
0.00936139
0.00946498
0.0095927
0.00975481
0.00996331
0.0102315
0.0105732
0.0110009
0.0115236
0.0121411
0.0128325
0.000382032
0.00252228
0.00532199
0.00720039
0.0081501
0.00859758
0.00881606
0.0089345
0.00900948
0.00906623
0.00911706
0.00916917
0.00922808
0.00929928
0.00938918
0.00950575
0.00965883
0.00985996
0.0101219
0.0104574
0.0108783
0.0113925
0.0119973
0.000405909
0.0030372
0.0062018
0.0078637
0.00853007
0.00879511
0.00891068
0.00896944
0.00900591
0.00903396
0.00906
0.0090878
0.00912036
0.00916094
0.00921352
0.00928335
0.0093772
0.00950355
0.00967225
0.00989393
0.0101793
0.0105385
0.0109791
0.000435163
0.00434137
0.00761557
0.00858947
0.00885907
0.00894563
0.00897926
0.00899552
0.00900559
0.00901359
0.00902136
0.00903001
0.00904054
0.00905407
0.00907212
0.00909671
0.00913062
0.00917755
0.00924205
0.00932928
0.00944436
0.00959211
0.00977802
0.00065726
0.000618474
0.000573634
0.000525832
0.0026097
0.00212999
0.00189432
0.0017832
0.00538371
0.00466487
0.00414515
0.00377221
0.00816447
0.00749693
0.00690514
0.00638773
0.0105526
0.0100244
0.0094948
0.00896993
0.0123766
0.0119924
0.0115701
0.0111137
0.0136745
0.0133964
0.0130569
0.0126715
0.0144527
0.0142673
0.014022
0.0136995
0.0148062
0.0146507
0.0144518
0.014207
0.0148127
0.0146841
0.0145224
0.0143191
0.0144756
0.014345
0.0141917
0.014007
0.0138772
0.0137243
0.0135549
0.0133614
0.0131213
0.0129338
0.0127325
0.0125106
0.0123066
0.0120794
0.0118388
0.0115778
0.0115226
0.0112565
0.0109765
0.0106757
0.0108446
0.0105467
0.0102357
0.00990482
0.0103196
0.0100029
0.0096761
0.00933337
0.00996142
0.00964096
0.00931583
0.00898053
0.00975857
0.00944813
0.00913925
0.00882555
0.00968859
0.00939854
0.00911557
0.00883092
0.00972797
0.00946504
0.00921307
0.00896002
0.00985616
0.00962415
0.00940494
0.0091833
0.010056
0.0098565
0.00966951
0.00947751
0.0103129
0.0101459
0.00998898
0.00982387
0.010614
0.0104781
0.0103483
0.0102069
0.0109476
0.0108403
0.0107342
0.0106129
0.0113037
0.0112204
0.0111353
0.01103
0.0116753
0.0116123
0.0115473
0.0114603
0.012055
0.0120078
0.0119599
0.0118918
0.0124391
0.0124013
0.0123649
0.0123129
0.0128269
0.0127932
0.0127615
0.0127202
0.0132181
0.0131872
0.013156
0.01312
0.0136039
0.013583
0.0135552
0.0135239
0.0139581
0.0139639
0.0139524
0.0139343
0.0142322
0.0142878
0.0143144
0.014328
0.014363
0.0144899
0.0145792
0.0146484
0.0142879
0.0144973
0.0146677
0.0148139
0.0139624
0.0142472
0.0145017
0.0147356
0.0133668
0.0136987
0.0140183
0.0143307
0.0125014
0.0128323
0.0131718
0.013525
0.011367
0.0116338
0.0119232
0.0122437
0.00994736
0.010068
0.0102054
0.0103674
0.000681326
0.00146834
0.00206474
0.00267153
0.00313034
0.00336331
0.00341869
0.00346674
0.00354878
0.00372195
0.00400915
0.00437226
0.00469748
0.00481414
0.00458935
0.00399132
0.00304527
0.00176474
0.000226063
0.00173555
0.00184485
0.0021206
0.00257282
0.0029931
0.00337441
0.00364572
0.00374744
0.00372555
0.00371907
0.0038331
0.00412666
0.00455888
0.00493352
0.00500357
0.00459635
0.0036245
0.00208375
0.000243254
0.00332797
0.00309431
0.00301545
0.00306336
0.00321235
0.00344946
0.0037187
0.00393101
0.0040143
0.00396791
0.00391243
0.0039994
0.00431694
0.00476359
0.00508732
0.00498156
0.00415721
0.00244309
0.000263421
0.00561654
0.00501713
0.00457937
0.00426497
0.00406756
0.00398918
0.00401314
0.00411253
0.00422291
0.00425042
0.00418046
0.00412179
0.00422929
0.00455005
0.00495568
0.00512266
0.0045743
0.00282834
0.000287549
0.00809638
0.00726772
0.00655969
0.00594407
0.00541894
0.00500394
0.00472107
0.00457056
0.00451541
0.00450527
0.00446159
0.00437564
0.00435051
0.00449214
0.00481406
0.00510676
0.00484249
0.00320752
0.000316338
0.0102991
0.00940447
0.00856483
0.00776973
0.00701898
0.00633509
0.00575747
0.00532221
0.00503514
0.00486072
0.00474394
0.00463638
0.00456329
0.00461038
0.00481718
0.00509238
0.00500524
0.00354996
0.00034972
0.011967
0.0111244
0.0102762
0.00942689
0.00857641
0.00774043
0.00695631
0.00627645
0.00574478
0.00536716
0.00510758
0.00491912
0.00478933
0.00478587
0.00493785
0.00516465
0.00514142
0.00384483
0.00038656
0.0130942
0.0123511
0.0115567
0.0107335
0.00988216
0.00900468
0.00811934
0.00728047
0.0065518
0.00597587
0.00555203
0.00524787
0.00504312
0.00497678
0.00509015
0.00529375
0.00528703
0.0040938
0.000424557
0.0137303
0.0131221
0.0124282
0.0116614
0.0108671
0.0100243
0.00910566
0.00818824
0.00733467
0.00660527
0.00603096
0.00560584
0.0053189
0.00519138
0.00525109
0.00542993
0.00542841
0.0042943
0.000460642
0.0139089
0.0133974
0.0128259
0.0121821
0.0114894
0.0107425
0.00986324
0.00891122
0.00799394
0.0071696
0.0064844
0.00595639
0.00559506
0.00542405
0.00543171
0.00555651
0.00554103
0.0044373
0.000491902
0.0136387
0.0132001
0.0127257
0.0122092
0.0116575
0.0110454
0.0102883
0.00938532
0.00846461
0.00760477
0.00685905
0.00626314
0.00585088
0.00566179
0.00563325
0.00567539
0.00561282
0.00451648
0.000516527
0.0129913
0.0125905
0.0122001
0.0118084
0.0114046
0.0109482
0.0103687
0.0095839
0.0087187
0.00787901
0.00712294
0.00650015
0.0060681
0.00589285
0.00584985
0.00578866
0.00564417
0.0045339
0.00053411
0.0121012
0.0117009
0.0113687
0.0110986
0.0108544
0.0105718
0.0101726
0.00953286
0.00876914
0.00799376
0.00726902
0.00665746
0.00623897
0.00610885
0.00606993
0.00588955
0.00563702
0.00449699
0.000545121
0.0111089
0.0106866
0.0103914
0.0102265
0.0101325
0.0100201
0.00979018
0.00930541
0.00866206
0.00797522
0.00731066
0.00674193
0.00637098
0.00631647
0.00628553
0.00596736
0.00559361
0.00441605
0.000550476
0.0101475
0.00970044
0.00943204
0.00934792
0.00937715
0.00940323
0.00931492
0.00897702
0.00845325
0.00786101
0.00727313
0.00677156
0.00648013
0.00652634
0.00648519
0.00601546
0.00552229
0.00430444
0.000551406
0.0093393
0.00888298
0.00864046
0.00861238
0.00871891
0.0088273
0.00883582
0.00860884
0.00818573
0.00768781
0.0071856
0.00676859
0.00658187
0.00673786
0.00665824
0.00603526
0.00543219
0.00417421
0.000549118
0.00876644
0.00832328
0.00810959
0.00811617
0.00824871
0.008371
0.00841229
0.00824847
0.00790185
0.00749111
0.00707663
0.00675398
0.00668523
0.00694336
0.00678757
0.00601246
0.00532204
0.00403108
0.000544393
0.00844459
0.00802697
0.00784157
0.00787192
0.00799086
0.00806416
0.00807318
0.00792922
0.00763981
0.00730464
0.00697372
0.0067476
0.00680293
0.00712559
0.00683346
0.00592084
0.00518513
0.00387603
0.000537559
0.00833762
0.00794018
0.00777427
0.00782422
0.00791258
0.00789517
0.0078299
0.00768156
0.00743076
0.00715689
0.00690092
0.00676485
0.00695107
0.00727017
0.00675999
0.00575749
0.00502373
0.00371109
0.000528817
0.00839353
0.0079991
0.00783745
0.00790396
0.00796609
0.00784116
0.00768647
0.00752283
0.00729653
0.00707438
0.00688089
0.00680787
0.00706438
0.0073067
0.00659113
0.00555097
0.00485175
0.00354232
0.00051854
0.00856851
0.00815837
0.00798324
0.0080624
0.00811962
0.00789308
0.00764386
0.0074434
0.00724934
0.00708515
0.00695274
0.00690001
0.00709068
0.00719152
0.00636101
0.00533359
0.00468579
0.00337809
0.000507316
0.00883205
0.00839345
0.00818476
0.00826929
0.00835006
0.00804931
0.00769938
0.00743586
0.00726507
0.00718325
0.00712314
0.00708347
0.00718588
0.007072
0.00612373
0.00514066
0.00454102
0.0032267
0.000495831
0.00916256
0.00869156
0.00842767
0.00849961
0.00861741
0.00829672
0.00784639
0.0075006
0.00728726
0.00723019
0.00728815
0.00737711
0.00748234
0.00711548
0.00597522
0.0050087
0.00443029
0.00309555
0.000484779
0.0095429
0.00904439
0.00871126
0.00873445
0.00888962
0.0086144
0.00807217
0.00763216
0.00734007
0.00722877
0.00732393
0.00760249
0.00782743
0.00730716
0.0059575
0.00494968
0.00435936
0.0029897
0.000474801
0.00995887
0.00944542
0.00904645
0.0089828
0.00913235
0.00898309
0.00836836
0.00782429
0.00744123
0.00725618
0.00730817
0.00765806
0.00802159
0.00750567
0.00601437
0.00494402
0.00432269
0.00290889
0.000466343
0.0103983
0.00988411
0.00943577
0.00926772
0.00934555
0.00927625
0.00869206
0.0080544
0.00758264
0.0073215
0.00731622
0.00764535
0.00806125
0.0075548
0.00606032
0.00496039
0.00430514
0.0028452
0.00045945
0.0108503
0.0103462
0.00986078
0.00958945
0.00952324
0.00945372
0.00900485
0.00829919
0.00774868
0.00741782
0.00734731
0.00758221
0.00803884
0.00751213
0.00604702
0.00497451
0.00429014
0.0027843
0.000453652
0.0113224
0.0108422
0.0103164
0.00994072
0.0097489
0.00956814
0.00922174
0.00854621
0.00792108
0.00753203
0.00740319
0.00755257
0.00798685
0.00732533
0.00592195
0.0049729
0.00426575
0.00268943
0.000448242
0.0118024
0.01137
0.0108274
0.0103263
0.00998843
0.00968157
0.00925118
0.00870245
0.00808225
0.00765633
0.00747736
0.00756338
0.00795324
0.00701007
0.00574898
0.00496799
0.004215
0.00254055
0.000442583
0.0122744
0.0119131
0.0113934
0.0107899
0.0102445
0.00976788
0.00928538
0.00879738
0.00826146
0.00779496
0.00756013
0.00754406
0.00770874
0.0066105
0.00567539
0.00497992
0.00413554
0.00235531
0.000436076
0.0127288
0.0124548
0.012004
0.0113649
0.0106224
0.00991984
0.00932839
0.00885197
0.0084324
0.00795724
0.00766705
0.00748755
0.00723005
0.00634137
0.00574104
0.00501241
0.00403347
0.00216039
0.000428175
0.0131668
0.0129822
0.0126346
0.0120514
0.011239
0.0103337
0.00951879
0.0088783
0.00838843
0.00796795
0.00762876
0.0073191
0.00688376
0.00642053
0.0058798
0.00505209
0.00391949
0.0019807
0.000418469
0.0136002
0.0134947
0.0132542
0.0127821
0.0120346
0.0110754
0.0100754
0.00920904
0.00854322
0.00804033
0.00765624
0.0073412
0.00705311
0.00668924
0.00600345
0.00508018
0.0038039
0.00183034
0.000406759
0.0140402
0.0140058
0.0138548
0.0134918
0.0128644
0.0119955
0.0110006
0.0100492
0.00924164
0.00861897
0.00815372
0.00779491
0.00743564
0.00688581
0.00606491
0.00508205
0.00369287
0.00171232
0.000393156
0.0144767
0.0145225
0.0144498
0.0141687
0.0136358
0.0128667
0.0119444
0.0109946
0.0101081
0.00936416
0.00875605
0.00822538
0.00765134
0.0069247
0.00606014
0.00505276
0.0035869
0.00162238
0.000378128
0.0148639
0.0150188
0.0150365
0.0148254
0.0143456
0.0136135
0.0127027
0.0117019
0.0107399
0.00987719
0.00910843
0.00838919
0.00765026
0.00685634
0.00601095
0.00499453
0.00348238
0.00155329
0.000362446
0.0151232
0.0154265
0.0155688
0.0154488
0.0150149
0.0142752
0.0132987
0.0121965
0.0111168
0.0101187
0.0092076
0.00835998
0.00754784
0.006758
0.00594241
0.00491042
0.00337471
0.00149788
0.000347005
0.0151591
0.0156485
0.0159586
0.0159742
0.0156199
0.0148881
0.0138347
0.0126323
0.011419
0.0102762
0.00923778
0.00830421
0.00746252
0.0066842
0.00587011
0.00480323
0.00326142
0.00145093
0.000332603
0.0148705
0.0155742
0.016101
0.0163063
0.0160774
0.0153881
0.0143326
0.0130843
0.0117767
0.0105134
0.00936164
0.00834851
0.00746602
0.0066613
0.00580166
0.00467929
0.00314483
0.00141011
0.000319788
0.0141461
0.0150639
0.0158706
0.0163509
0.0163095
0.0157056
0.0147183
0.0135028
0.0121797
0.0108575
0.00962462
0.00853096
0.00757546
0.00669242
0.00574132
0.00454834
0.00302937
0.00137406
0.000308785
0.0128437
0.0138761
0.0149983
0.0159261
0.0162711
0.0158154
0.0149315
0.0137993
0.0125275
0.0112153
0.00995291
0.00879935
0.0077598
0.00677043
0.00570604
0.00443911
0.0029357
0.00134834
0.000299685
0.0107054
0.0114386
0.0126362
0.014144
0.0159897
0.0158072
0.0150335
0.0139775
0.0127571
0.0114668
0.0101941
0.0089984
0.00788689
0.0068029
0.00564404
0.00432422
0.00284338
0.00132143
0.000292095
)
;

boundaryField
{
    leftWall
    {
        type            nutkWallFunction;
        Cmu             0.09;
        kappa           0.41;
        E               9.8;
        value           nonuniform List<scalar> 
50
(
1.27108e-05
1.55938e-05
1.67118e-05
1.7679e-05
1.86211e-05
1.93709e-05
1.99371e-05
2.03741e-05
2.08019e-05
2.12637e-05
2.20905e-05
2.42762e-05
2.84708e-05
3.36328e-05
3.74936e-05
3.86993e-05
3.67766e-05
3.60225e-05
3.59916e-05
3.62332e-05
3.65067e-05
3.66811e-05
3.66946e-05
3.65266e-05
3.61791e-05
3.56665e-05
3.50092e-05
3.42324e-05
3.33668e-05
3.24485e-05
3.15175e-05
3.06146e-05
2.97799e-05
2.90509e-05
2.84619e-05
2.80446e-05
2.78289e-05
2.78441e-05
2.81192e-05
2.86818e-05
2.95553e-05
3.07549e-05
3.22833e-05
3.41277e-05
3.62657e-05
3.86664e-05
4.13113e-05
4.42235e-05
4.75218e-05
5.15238e-05
)
;
    }
    rightWall
    {
        type            nutkWallFunction;
        Cmu             0.09;
        kappa           0.41;
        E               9.8;
        value           nonuniform List<scalar> 
50
(
1.0123e-05
1.18541e-05
1.41121e-05
1.60243e-05
1.75989e-05
1.89359e-05
2.01233e-05
2.12373e-05
2.30497e-05
2.51313e-05
2.74492e-05
3.00996e-05
3.3155e-05
3.66098e-05
4.03588e-05
4.42e-05
4.78705e-05
5.11148e-05
5.37581e-05
5.57357e-05
5.70666e-05
5.78197e-05
5.8096e-05
5.79993e-05
5.76089e-05
5.69781e-05
5.61553e-05
5.51999e-05
5.41811e-05
5.31665e-05
5.22145e-05
5.13642e-05
5.06206e-05
4.99423e-05
4.92464e-05
4.84743e-05
4.76058e-05
4.65991e-05
4.54269e-05
4.40817e-05
4.25789e-05
4.09603e-05
3.929e-05
3.76439e-05
3.60943e-05
3.46956e-05
3.34783e-05
3.24476e-05
3.16035e-05
3.08995e-05
)
;
    }
    lowerWall
    {
        type            nutkWallFunction;
        Cmu             0.09;
        kappa           0.41;
        E               9.8;
        value           nonuniform List<scalar> 
62
(
6.16331e-06
8.20231e-06
1.02351e-05
1.16557e-05
1.27824e-05
1.36974e-05
1.45001e-05
1.52231e-05
1.58785e-05
1.64682e-05
1.69891e-05
1.74348e-05
1.77967e-05
1.80631e-05
1.82158e-05
1.82145e-05
1.81051e-05
1.78423e-05
1.73892e-05
1.67409e-05
1.58454e-05
1.43865e-05
1.25424e-05
1.25424e-05
3.41822e-05
4.04901e-05
4.58865e-05
4.96582e-05
5.29922e-05
5.63029e-05
6.02746e-05
6.78945e-05
6.41679e-05
5.97561e-05
5.50009e-05
0
2.19053e-05
2.79337e-05
3.23818e-05
3.59654e-05
3.90187e-05
4.18684e-05
4.49117e-05
0
2.36413e-06
4.29931e-06
5.53821e-06
6.46682e-06
6.95172e-06
7.0115e-06
6.76176e-06
6.23812e-06
5.63583e-06
4.92481e-06
4.1029e-06
3.21702e-06
2.33912e-06
1.52732e-06
6.53074e-07
0
0
0
)
;
    }
    atmosphere
    {
        type            calculated;
        value           nonuniform List<scalar> 
46
(
0.009
0.009
0.009
0.009
0.009
0.009
0.009
0.009
0.009
0.009
0.009
0.009
0.009
0.009
0.009
0.009
0.009
0.009
0.009
0.009
0.009
0.009
0.009
0.009
0.009
0.009
0.009
0.009
0.009
0.009
0.009
0.0159897
0.0158072
0.0150335
0.0139775
0.0127571
0.0114668
0.0101941
0.0089984
0.00788689
0.0068029
0.00564404
0.00432422
0.00284338
0.00132143
0.000292095
)
;
    }
    defaultFaces
    {
        type            empty;
    }
}


// ************************************************************************* //
