/*--------------------------------*- C++ -*----------------------------------*\
  =========                 |
  \\      /  F ield         | OpenFOAM: The Open Source CFD Toolbox
   \\    /   O peration     | Website:  https://openfoam.org
    \\  /    A nd           | Version:  9
     \\/     M anipulation  |
\*---------------------------------------------------------------------------*/
FoamFile
{
    format      ascii;
    class       volScalarField;
    location    "0.35";
    object      p;
}
// * * * * * * * * * * * * * * * * * * * * * * * * * * * * * * * * * * * * * //

dimensions      [1 -1 -2 0 0 0 0];

internalField   nonuniform List<scalar> 
2268
(
2.42577
2.57627
2.51602
2.49226
2.45448
2.41302
2.37234
2.33374
2.29873
2.26673
2.23602
2.20495
2.17201
2.13409
2.08556
2.02088
1.92988
1.80937
1.67116
1.5579
1.5235
1.57824
1.65757
2.51229
2.6308
2.58967
2.5616
2.5195
2.47342
2.4297
2.38874
2.35138
2.31675
2.2834
2.2492
2.21265
2.17076
2.11798
2.04877
1.95498
1.83344
1.69701
1.58137
1.55246
1.62368
1.72338
2.69138
2.7093
2.68028
2.63194
2.58485
2.53436
2.48746
2.44385
2.40373
2.36622
2.3302
2.29305
2.25306
2.20779
2.15169
2.07983
1.98566
1.86537
1.73239
1.62101
1.58753
1.65436
1.76519
2.8762
2.80326
2.77089
2.7006
2.649
2.5949
2.54526
2.49928
2.45677
2.41667
2.37833
2.33902
2.29648
2.24908
2.19143
2.11888
2.02594
1.90864
1.77776
1.66755
1.6295
1.6867
1.79774
3.03962
2.89191
2.85265
2.76581
2.71157
2.65527
2.6035
2.55535
2.5107
2.46831
2.4278
2.38674
2.34236
2.29343
2.23528
2.16332
2.07301
1.96004
1.83247
1.72367
1.68413
1.73435
1.84374
3.27152
2.96057
2.91892
2.82556
2.77231
2.71561
2.66235
2.61216
2.56543
2.5209
2.47824
2.43547
2.38962
2.33946
2.28127
2.21071
2.12418
2.01765
1.89638
1.79176
1.7559
1.8064
1.90686
3.50849
3.00075
2.95934
2.87875
2.83161
2.77628
2.72201
2.66987
2.62098
2.57433
2.52952
2.48489
2.43776
2.38655
2.32852
2.25986
2.17789
2.07955
1.96802
1.87134
1.84366
1.89951
1.98158
3.21975
2.957
2.96843
2.92891
2.89104
2.83784
2.78256
2.72846
2.67726
2.62844
2.58147
2.53487
2.48651
2.43444
2.37668
2.31016
2.23303
2.14345
2.04372
1.9577
1.93695
1.99491
2.05538
1.96564
1.94867
1.93249
1.90954
1.88656
1.866
1.84839
1.83343
1.82039
1.80867
1.798
1.78829
1.77945
1.77125
1.76338
1.75567
1.74828
1.7424
1.73883
2.02549
2.01074
1.99671
1.97236
1.94734
1.92518
1.90653
1.8908
1.87717
1.86498
1.85398
1.84408
1.83518
1.82703
1.81935
1.81201
1.80525
1.80013
1.79726
2.08787
2.07277
2.05841
2.03331
2.00711
1.98381
1.96417
1.94761
1.93332
1.92064
1.90936
1.89935
1.89052
1.88259
1.87529
1.86852
1.86253
1.85821
1.85523
2.15283
2.13334
2.11641
2.09137
2.06488
2.04117
2.021
2.0039
1.98914
1.97614
1.96471
1.95473
1.94607
1.93846
1.93162
1.92544
1.92009
1.91618
1.91286
2.21704
2.19211
2.17086
2.14665
2.12066
2.09723
2.07704
2.05976
2.0448
2.03168
2.02025
2.0104
2.00198
1.9947
1.9883
1.98262
1.97772
1.97391
1.9701
2.27703
2.24847
2.22189
2.19945
2.1747
2.15212
2.13234
2.11522
2.10029
2.08724
2.07592
2.06627
2.0581
2.05114
2.0451
2.0398
2.03514
2.03125
2.02693
2.3264
2.29975
2.26915
2.24982
2.22714
2.20593
2.18692
2.17025
2.15561
2.1428
2.13171
2.12229
2.11435
2.10763
2.10185
2.09676
2.09219
2.08813
2.08333
2.35441
2.33592
2.31212
2.29759
2.27806
2.25871
2.24081
2.22487
2.21072
2.19833
2.18757
2.17841
2.17064
2.16407
2.1584
2.15337
2.14878
2.1445
2.1393
2.30101
2.82152
3.00178
3.0198
2.98824
2.93558
2.87768
2.82025
2.76548
2.71342
2.66333
2.61399
2.56388
2.51104
2.45407
2.39114
2.32139
2.24454
2.16335
2.0957
2.08101
2.13594
2.1921
4.78433
3.32061
3.33125
3.23688
3.15209
3.07751
3.00848
2.94412
2.88414
2.8277
2.77375
2.72121
2.66876
2.61509
2.55917
2.5002
2.43834
2.37487
2.31413
2.2685
2.25693
2.28293
2.31693
3.92082
3.71209
3.62163
3.4198
3.30205
3.21293
3.13519
3.06489
3.00035
2.94006
2.88276
2.82746
2.77319
2.71906
2.66448
2.60932
2.55422
2.50085
2.45317
2.41925
2.40798
2.4185
2.43597
3.85394
3.59447
3.67815
3.52212
3.41876
3.33171
3.25221
3.17908
3.11151
3.0483
2.98839
2.93099
2.87546
2.82129
2.76825
2.71656
2.66707
2.62145
2.58275
2.55571
2.54444
2.54819
2.56038
4.05612
3.62506
3.73107
3.60677
3.51863
3.43744
3.35938
3.28549
3.21611
3.15082
3.08902
3.03018
2.97399
2.92022
2.86886
2.82028
2.77534
2.73548
2.70283
2.68006
2.66904
2.66958
2.67858
4.42856
3.71621
3.80285
3.69326
3.61219
3.53474
3.45817
3.38413
3.31357
3.24674
3.18354
3.12381
3.06748
3.0145
2.96498
2.91929
2.87819
2.84281
2.8146
2.795
2.78485
2.78434
2.7918
4.72152
3.80606
3.87375
3.77763
3.70088
3.6253
3.54942
3.47509
3.40355
3.33548
3.27125
3.21102
3.15493
3.10306
3.05554
3.01265
2.97497
2.94335
2.91871
2.90179
2.89291
2.89239
2.89912
5.04406
3.89605
3.94324
3.85983
3.78527
3.70968
3.63337
3.55829
3.48574
3.41662
3.35163
3.29121
3.23564
3.18512
3.13974
3.09965
3.06522
3.03701
3.01557
3.00121
2.99392
2.99402
3.00063
5.56314
4.00274
4.01598
3.94148
3.86526
3.78737
3.70951
3.63325
3.55969
3.48974
3.42427
3.36394
3.30916
3.26018
3.21708
3.17988
3.1487
3.12383
3.10554
3.09385
3.08856
3.08986
3.09698
5.45249
4.12158
4.09733
4.02061
3.93763
3.85597
3.77627
3.69897
3.62473
3.55436
3.48881
3.4289
3.37518
3.32797
3.28734
3.25319
3.22541
3.204
3.189
3.18024
3.17739
3.18054
3.18888
5.92924
4.22068
4.19678
4.08945
3.9951
3.91139
3.83136
3.75412
3.6801
3.61005
3.54501
3.48597
3.43365
3.38846
3.35051
3.31961
3.29545
3.27775
3.26629
3.26075
3.26074
3.26628
3.27655
3.76802
4.10457
4.22016
4.10979
4.0266
3.95016
3.87338
3.79808
3.72553
3.65673
3.59289
3.53523
3.48468
3.44177
3.40669
3.37922
3.35891
3.34518
3.33753
3.3355
3.33861
3.34689
3.35955
3.89137
4.09944
4.28525
4.12442
4.04631
3.97676
3.90422
3.83188
3.76169
3.6949
3.63288
3.57707
3.52861
3.48819
3.45609
3.43212
3.41574
3.40617
3.40259
3.40434
3.4108
3.42199
3.43725
3.04746
3.95682
4.32228
4.13062
4.05885
3.99504
3.9265
3.8574
3.79002
3.72567
3.66584
3.61213
3.56593
3.52807
3.49896
3.47844
3.46593
3.46052
3.46119
3.46698
3.47707
3.4914
3.50939
3.20979
3.98597
4.32427
4.13241
4.06801
4.00823
3.94297
3.87696
3.81238
3.75051
3.69289
3.64126
3.5972
3.5618
3.53555
3.51836
3.50959
3.50825
3.51319
3.52325
3.53736
3.55523
3.57628
3.48166
4.04372
4.321
4.13769
4.07659
4.01906
3.95646
3.89307
3.83087
3.7711
3.71535
3.66545
3.62317
3.58988
3.56624
3.55221
3.54705
3.54969
3.55891
3.57338
3.59187
3.61383
3.6385
3.7629
4.06524
4.31007
4.13998
4.08323
4.02924
3.96954
3.90835
3.84784
3.78938
3.73475
3.68594
3.64488
3.61318
3.59172
3.58056
3.57889
3.58551
3.59905
3.61806
3.6412
3.66768
3.69653
3.98609
4.04015
4.28687
4.1348
4.08812
4.04105
3.98518
3.92583
3.86606
3.80775
3.7531
3.70442
3.66387
3.63314
3.61329
3.6045
3.60602
3.61654
3.6345
3.65827
3.68629
3.71757
3.75092
4.21968
3.92246
4.23768
4.12703
4.09684
4.05926
4.00784
3.94951
3.88904
3.8293
3.77309
3.72322
3.68213
3.65161
3.63264
3.62554
3.62968
3.64377
3.66612
3.69488
3.72813
3.7645
3.80263
4.4265
3.81605
4.15212
4.13927
4.12329
4.09278
4.04422
3.98474
3.92115
3.85774
3.79799
3.74519
3.70207
3.67054
3.65154
3.64529
3.65132
3.66845
3.69493
3.72871
3.76754
3.8095
3.85288
3.84853
3.70983
4.12368
4.21499
4.18319
4.15147
4.10203
4.03775
3.96749
3.89729
3.83142
3.77347
3.72634
3.69207
3.67167
3.66529
3.67241
3.69193
3.72213
3.76081
3.80538
3.8534
3.90268
4.27387
3.38954
4.18887
4.33355
4.27458
4.24035
4.18795
4.11524
4.03396
3.95279
3.87729
3.81128
3.75765
3.71853
3.69496
3.68707
3.69434
3.71556
3.749
3.7923
3.84259
3.89694
3.95259
11.0072
2.57609
4.39897
4.45973
4.38565
4.36158
4.30854
4.22515
4.12796
4.03038
3.94028
3.86217
3.79882
3.75227
3.72349
3.71241
3.71849
3.74049
3.77653
3.82408
3.87992
3.94065
4.00291
28.6785
2.55752
4.82426
4.61745
4.52986
4.53009
4.47769
4.37874
4.25881
4.13759
4.02633
3.93054
3.85313
3.79595
3.75951
3.74323
3.74644
3.76788
3.80557
3.85676
3.91783
3.98487
4.05394
63.2126
7.51757
5.83614
4.97333
4.86632
4.8191
4.72266
4.5876
4.43339
4.28052
4.14111
4.02124
3.92454
3.85269
3.80548
3.78156
3.77992
3.79917
3.83723
3.89112
3.95685
4.03002
4.10614
112.587
37.8184
9.09557
5.88355
5.39418
5.20942
5.03653
4.84715
4.64663
4.45718
4.28632
4.13785
4.01695
3.926
3.86414
3.82971
3.82103
3.8363
3.87319
3.92847
3.99787
4.07662
4.15976
191.755
117.049
29.6546
7.57541
5.94074
5.60397
5.38263
5.13709
4.8853
4.6588
4.4583
4.28132
4.13354
4.01949
3.9388
3.89067
3.87267
3.88197
3.91576
3.97059
4.04203
4.12515
4.21466
307.284
239.809
120.259
20.0571
6.88513
5.92742
5.70406
5.44024
5.14857
4.88649
4.65767
4.45237
4.27726
4.1373
4.03346
3.9684
3.93883
3.93992
3.96809
4.01976
4.09061
4.17598
4.27061
469.11
409.196
298.203
109.609
17.4481
6.52878
6.0266
5.73731
5.42875
5.14272
4.8902
4.65646
4.45224
4.28472
4.15408
4.06839
4.02516
4.01541
4.03444
4.07903
4.14546
4.22989
4.32772
682.801
628.32
530.77
338.638
133.398
26.8914
6.76566
6.14988
5.70278
5.40602
5.15464
4.90137
4.6662
4.46735
4.30835
4.19871
4.13936
4.11566
4.12073
4.1527
4.20933
4.28842
4.38651
946.633
898.348
806.826
644.171
427.636
206.539
47.0168
7.63124
6.23795
5.68522
5.42959
5.18374
4.92285
4.69115
4.50354
4.36867
4.2898
4.24885
4.23378
4.2454
4.28491
4.35273
4.4471
1254.55
1212.79
1125.55
979.84
782.748
546.749
276.777
59.3804
8.47414
6.37024
5.7679
5.4829
5.20971
4.95713
4.74533
4.5875
4.4867
4.42322
4.38094
4.3615
4.37291
4.42101
4.50691
1599.4
1563.68
1480.39
1344.46
1157.32
926.676
646.647
318.102
68.6129
9.1006
6.67916
5.85386
5.48589
5.2354
5.02739
4.85687
4.73638
4.64649
4.56887
4.50432
4.47175
4.48829
4.55975
1974.38
1944.69
1864.55
1735.99
1555.76
1327.66
1052.28
722.137
353.334
79.8043
10.6602
6.61188
5.80039
5.47957
5.31008
5.15904
5.03955
4.9289
4.80706
4.67586
4.57526
4.54489
4.59724
2373.1
2349.7
2272.28
2149.46
1975.6
1750.44
1475.83
1152.9
782.792
388.64
97.258
14.4714
6.68222
5.89835
5.63995
5.52203
5.45865
5.32945
5.14105
4.89407
4.67902
4.56995
4.59651
2789.61
2772.83
2698.36
2580.07
2411.61
2189.73
1914.94
1590.23
1223.11
823.886
422.066
122.943
20.9514
6.55543
5.96364
6.00544
6.15982
6.03225
5.73822
5.26133
4.84609
4.58552
4.53514
3218.19
3209.02
3138.72
3024.44
2860.31
2640.59
2363.88
2031.63
1653.11
1247.79
833.296
443.326
154.218
25.7033
5.00592
4.93435
5.69408
6.239
6.2154
5.75782
5.12979
4.76487
4.62935
3652.76
3654.17
3590.73
3480.58
3320.32
3101.38
2818.86
2470.41
2065.92
1639.91
1211.23
813.739
476.269
206.771
45.8841
-2.27055
-1.0516
4.16451
5.08648
4.47746
4.14056
4.68297
5.34518
4087.31
4107.75
4054.25
3948.13
3792.68
3575.14
3283
2904.15
2443.47
1991.95
1529.39
1132.6
841.557
577.119
372.111
234.269
95.9296
29.2137
6.55944
-0.95013
0.48019
5.01779
8.59263
4512.31
4574.93
4527.76
4424.69
4279.45
4069.58
3769.91
3342.02
2753.69
2294.68
1764.65
1344.12
1194.13
973.539
833.62
913.19
955.191
793.75
480.352
190.166
52.6611
22.0487
10.4098
4937.86
5096.38
5008.66
4905.72
4781.51
4591.28
4294.97
3802.15
2848.66
2599.42
1833.96
1306.54
1609.22
1280.2
1138.03
1717.27
2128.84
2022.86
1519.39
719.14
215.379
73.0409
13.8525
5485.42
5501.59
5376.54
5340.68
5282.18
5158.78
4927.39
4290.85
1850.86
3384.1
1049.25
760.417
2844.44
802.939
740.645
3319.33
3805.19
3511.72
2516.79
713.256
228.46
39.7851
2.63483
2.15747
2.11835
2.05904
2.05025
2.33669
2.34923
2.36218
2.3842
2.44784
2.45849
2.4757
2.50111
2.57458
2.58547
2.59792
2.61335
2.69134
2.70144
2.71228
2.72427
2.80346
2.81252
2.82185
2.83187
2.90978
2.918
2.92638
2.93542
3.01071
3.01854
3.02659
3.03534
3.10709
3.11501
3.12321
3.13208
3.19971
3.20808
3.21668
3.22586
3.28869
3.29778
3.30689
3.31641
3.3734
3.38342
3.39319
3.40317
3.45297
3.46412
3.47483
3.48556
3.52698
3.53939
3.55138
3.56328
3.59587
3.60961
3.62307
3.63644
3.66042
3.67563
3.69063
3.70556
3.72116
3.73807
3.75472
3.7713
3.77854
3.79735
3.81588
3.83431
3.83342
3.85432
3.87499
3.89552
3.88718
3.91036
3.93333
3.95607
3.94098
3.96668
3.99202
4.01695
3.99537
4.02382
4.05164
4.0788
4.05045
4.08186
4.11239
4.14199
4.10645
4.14102
4.17455
4.20687
4.16399
4.20193
4.23861
4.27379
4.22324
4.26471
4.30462
4.34272
4.28355
4.32843
4.37164
4.41303
4.34444
4.39249
4.43909
4.48425
4.40614
4.45729
4.50725
4.5562
4.46841
4.5222
4.57518
4.62783
4.53073
4.58583
4.641
4.69746
4.5909
4.64631
4.70284
4.7631
4.64188
4.69672
4.75453
4.81929
4.67479
4.72548
4.78251
4.85323
4.6761
4.71768
4.76383
4.83997
4.59554
4.61897
4.64478
4.7402
4.57722
4.55873
4.58398
4.71388
5.6619
5.67306
5.40206
5.14903
8.89698
7.03661
5.22224
4.95455
1.83572
0.531107
1.12889
2.83051
-42.1985
-50.5811
-29.0759
-9.44633
-25.1502
-13.8751
-3.28124
0.98503
2.27828
2.36202
2.37491
2.36962
2.35595
2.33999
2.3242
2.3096
2.29642
2.28477
2.27457
2.26579
2.25826
2.25181
2.24619
2.24112
2.23641
2.23176
2.22614
2.43495
2.45572
2.46982
2.46973
2.46107
2.44893
2.43588
2.42318
2.41136
2.40066
2.39115
2.3828
2.37551
2.36915
2.3635
2.35832
2.3534
2.34843
2.34243
2.5419
2.55817
2.56876
2.57023
2.56495
2.55603
2.54558
2.53482
2.52444
2.51477
2.50597
2.49805
2.49097
2.48463
2.47888
2.47351
2.46835
2.46313
2.4569
2.63967
2.65727
2.66778
2.67065
2.66784
2.66148
2.65325
2.64429
2.63532
2.62672
2.61868
2.61124
2.60439
2.59809
2.59223
2.58669
2.58134
2.57595
2.56959
2.7432
2.7583
2.7678
2.77123
2.76991
2.76534
2.75884
2.75143
2.74379
2.73629
2.72908
2.7222
2.71566
2.70946
2.70356
2.69791
2.69243
2.68692
2.68049
2.84732
2.85997
2.86812
2.8715
2.87094
2.86753
2.86233
2.85624
2.84985
2.84345
2.83713
2.8309
2.82476
2.81873
2.81289
2.80721
2.80166
2.79606
2.78958
2.94933
2.96051
2.96768
2.97086
2.97071
2.96808
2.96389
2.95892
2.95367
2.94834
2.94292
2.93738
2.93169
2.92593
2.92022
2.91459
2.90899
2.90334
2.89685
3.04873
3.05923
3.0659
3.06899
3.06915
3.06713
3.06378
3.05979
3.05555
3.05118
3.04659
3.04169
3.03648
3.03105
3.02555
3.02
3.01439
3.00872
3.00225
3.14551
3.15589
3.16249
3.16572
3.16626
3.16485
3.16227
3.15913
3.15576
3.15218
3.14826
3.14391
3.13915
3.13408
3.12882
3.12338
3.11778
3.11214
3.10576
3.23957
3.25026
3.25721
3.2609
3.26203
3.26132
3.25951
3.25714
3.25447
3.25147
3.24803
3.2441
3.23972
3.23499
3.22997
3.22465
3.21911
3.21357
3.20733
3.33054
3.34198
3.34972
3.35427
3.3563
3.35649
3.35551
3.35385
3.3517
3.34909
3.34596
3.34233
3.33825
3.3338
3.32899
3.3238
3.31838
3.313
3.30698
3.41798
3.43062
3.43963
3.44549
3.44879
3.45013
3.4501
3.44911
3.44739
3.44502
3.44208
3.43865
3.43481
3.43058
3.42593
3.42088
3.41564
3.41048
3.40473
3.50148
3.51583
3.52658
3.53418
3.53912
3.54188
3.54292
3.54266
3.54134
3.53918
3.53639
3.53313
3.52949
3.52543
3.52093
3.51604
3.511
3.5061
3.50067
3.58089
3.59745
3.61037
3.62007
3.62695
3.63135
3.63365
3.63421
3.63338
3.63151
3.62894
3.6259
3.62245
3.61854
3.61417
3.60946
3.60462
3.59997
3.59491
3.65625
3.67549
3.69095
3.70306
3.71213
3.71837
3.72208
3.72362
3.72345
3.72205
3.71984
3.71711
3.71389
3.71015
3.70592
3.70136
3.6967
3.69226
3.68759
3.72786
3.75019
3.76852
3.78329
3.79473
3.80296
3.80822
3.81093
3.81163
3.81091
3.80926
3.80694
3.80402
3.80049
3.79642
3.79199
3.78744
3.78318
3.77888
3.79629
3.82205
3.84351
3.86113
3.87507
3.88537
3.8923
3.89632
3.89808
3.89823
3.89728
3.8955
3.89295
3.88968
3.88581
3.8815
3.87703
3.87289
3.86898
3.86231
3.89178
3.91657
3.93714
3.95361
3.96601
3.97464
3.98006
3.98301
3.98416
3.984
3.98279
3.98066
3.97772
3.97408
3.96991
3.96554
3.96152
3.95803
3.92681
3.96021
3.98843
4.01197
4.03095
4.04541
4.05574
4.0626
4.06678
4.06895
4.06957
4.06892
4.06718
4.06455
4.06115
4.05715
4.05293
4.04908
4.04604
3.99077
4.0282
4.0599
4.0864
4.10784
4.12432
4.13631
4.14457
4.14994
4.15306
4.15437
4.15416
4.15271
4.15026
4.14701
4.14317
4.13916
4.13553
4.13297
4.05505
4.09656
4.13176
4.16121
4.18508
4.20352
4.21709
4.22665
4.23306
4.23697
4.2388
4.23888
4.23754
4.2351
4.23184
4.22808
4.22427
4.22086
4.21876
4.12034
4.16603
4.20476
4.23712
4.26334
4.28364
4.29865
4.3093
4.31651
4.32096
4.32309
4.32328
4.32188
4.31926
4.31583
4.31204
4.30836
4.30513
4.30345
4.18724
4.23724
4.2795
4.31468
4.3431
4.36507
4.38128
4.39273
4.4004
4.40505
4.40722
4.40732
4.40571
4.40279
4.39908
4.39514
4.39153
4.38839
4.3871
4.25618
4.31069
4.35648
4.39434
4.42477
4.44816
4.46528
4.47716
4.48487
4.48931
4.49115
4.49089
4.48889
4.48556
4.4815
4.47737
4.47375
4.47065
4.46973
4.3274
4.38673
4.43616
4.47662
4.50886
4.53347
4.5512
4.56312
4.57039
4.5741
4.57513
4.5741
4.57142
4.56752
4.56303
4.55864
4.55498
4.55189
4.55129
4.40097
4.46575
4.51915
4.56224
4.59612
4.62164
4.63965
4.65119
4.65753
4.65996
4.6596
4.65728
4.65349
4.64874
4.64367
4.63893
4.63516
4.63206
4.63175
4.47676
4.54813
4.60626
4.65211
4.6873
4.71324
4.73099
4.74165
4.74654
4.74716
4.74487
4.74069
4.73532
4.72935
4.72345
4.71819
4.71425
4.71107
4.71102
4.5545
4.63395
4.69798
4.74704
4.78323
4.80883
4.82545
4.83455
4.83739
4.83564
4.83088
4.82434
4.81692
4.80935
4.80231
4.79635
4.79219
4.78874
4.78894
4.63351
4.72287
4.79458
4.84783
4.88495
4.90942
4.92358
4.93018
4.93017
4.92535
4.91751
4.90808
4.89815
4.8886
4.88012
4.87322
4.86854
4.86513
4.86527
4.71275
4.81449
4.89644
4.95558
4.99388
5.01609
5.02682
5.02927
5.02519
5.01637
5.0047
4.99176
4.97882
4.96688
4.95665
4.94859
4.9433
4.93989
4.93963
4.79111
4.90855
5.00414
5.07158
5.11173
5.13075
5.13593
5.13236
5.12264
5.10863
5.09221
5.07507
5.05861
5.0439
5.03162
5.02217
5.01613
5.01246
5.01217
4.86702
5.00488
5.11833
5.19687
5.23986
5.25468
5.25192
5.2398
5.22242
5.2018
5.17962
5.15757
5.13708
5.11922
5.10461
5.09359
5.08669
5.08255
5.08254
4.93698
5.10309
5.23996
5.33271
5.37953
5.389
5.37557
5.35178
5.32423
5.29526
5.26622
5.23853
5.21357
5.19228
5.17516
5.16245
5.15464
5.14986
5.1503
4.99302
5.20282
5.37111
5.48103
5.53198
5.53439
5.50706
5.46794
5.42725
5.38801
5.35096
5.31703
5.28727
5.2624
5.24271
5.2283
5.21965
5.21407
5.21517
5.02258
5.30725
5.51672
5.64473
5.69813
5.69053
5.64542
5.58688
5.5298
5.47838
5.43237
5.39181
5.35718
5.3288
5.30665
5.29065
5.28136
5.27485
5.27701
5.03282
5.44075
5.69057
5.82834
5.87783
5.85518
5.78772
5.70557
5.62906
5.56386
5.50841
5.46129
5.42211
5.39059
5.36632
5.349
5.3393
5.33164
5.3357
5.12899
5.65349
5.91193
6.0344
6.06721
6.02262
5.92811
5.81873
5.72054
5.64092
5.57641
5.52352
5.48066
5.44679
5.421
5.40276
5.39293
5.38374
5.39104
5.38009
5.9273
6.16466
6.2488
6.25353
6.18133
6.05645
5.91792
5.79779
5.70493
5.63313
5.57625
5.5313
5.49639
5.47006
5.45155
5.44205
5.43089
5.44315
5.48008
6.10396
6.36424
6.43172
6.41121
6.31217
6.15745
5.99153
5.85281
5.75088
5.6755
5.61763
5.57295
5.53883
5.51334
5.49561
5.48718
5.47341
5.49262
4.84544
5.99656
6.44544
6.54359
6.50561
6.38522
6.21147
6.02708
5.87799
5.77516
5.70207
5.64732
5.60589
5.57473
5.55167
5.53577
5.52828
5.50914
5.54173
2.74417
5.49873
6.34341
6.54101
6.50668
6.37074
6.20128
6.01391
5.86451
5.77272
5.70993
5.66355
5.62896
5.60319
5.58415
5.57059
5.56116
5.52915
5.59724
3.60618
6.08402
6.5491
6.60742
6.48903
6.28848
6.07872
5.91251
5.78383
5.72157
5.68058
5.65027
5.6276
5.61057
5.5977
5.58742
5.57534
5.52792
5.65869
)
;

boundaryField
{
    leftWall
    {
        type            calculated;
        value           nonuniform List<scalar> 
50
(
2.42577
2.51229
2.69138
2.8762
3.03962
3.27152
3.50849
3.21975
2.30101
4.78433
3.92082
3.85394
4.05612
4.42856
4.72152
5.04406
5.56314
5.45249
5.92924
3.76802
3.89137
3.04746
3.20979
3.48166
3.7629
3.98609
4.21968
4.4265
3.84853
4.27387
11.0072
28.6785
63.2126
112.587
191.755
307.284
469.11
682.801
946.633
1254.55
1599.4
1974.38
2373.1
2789.61
3218.19
3652.76
4087.31
4512.31
4937.86
5485.42
)
;
    }
    rightWall
    {
        type            calculated;
        value           nonuniform List<scalar> 
50
(
1.73883
1.79726
1.85523
1.91286
1.9701
2.02693
2.08333
2.1393
2.22614
2.34243
2.4569
2.56959
2.68049
2.78958
2.89685
3.00225
3.10576
3.20733
3.30698
3.40473
3.50067
3.59491
3.68759
3.77888
3.86898
3.95803
4.04604
4.13297
4.21876
4.30345
4.3871
4.46973
4.55129
4.63175
4.71102
4.78894
4.86527
4.93963
5.01217
5.08254
5.1503
5.21517
5.27701
5.3357
5.39104
5.44315
5.49262
5.54173
5.59724
5.65869
)
;
    }
    lowerWall
    {
        type            calculated;
        value           nonuniform List<scalar> 
62
(
2.38212
2.54684
2.48659
2.46283
2.42505
2.38359
2.34291
2.30432
2.2693
2.2373
2.20659
2.17552
2.14258
2.10466
2.05613
1.99145
1.90045
1.77994
1.64173
1.52848
1.49407
1.54881
1.62814
1.65757
1.72338
1.76519
1.79774
1.84374
1.90686
1.98158
2.05538
2.09487
2.05576
1.99644
1.98765
1.96564
2.02549
2.08787
2.15283
2.21704
2.27703
2.3264
2.35441
1.93621
1.91924
1.90307
1.88011
1.85713
1.83657
1.81896
1.804
1.79096
1.77924
1.76857
1.75886
1.75002
1.74182
1.73395
1.72624
1.71885
1.71297
1.7094
)
;
    }
    atmosphere
    {
        type            calculated;
        value           nonuniform List<scalar> 
46
(
5723
5726.36
5728.99
5729.04
5728.98
5728.81
5729.02
5724.99
5.72904
5601.25
5.72904
5.72904
5467
5.72904
5.72904
5049.06
4928.37
4592.05
3474.83
5.72904
5.72904
5.70658
5.70672
5.72437
5.72904
5.72904
5.72904
5.72205
7.69861
6.01294
5.76101
5.73102
5.7291
5.72904
5.71571
5.69004
5.66511
5.64364
5.62613
5.61222
5.60137
5.59296
5.58628
5.58057
5.56791
5.64922
)
;
    }
    defaultFaces
    {
        type            empty;
    }
}


// ************************************************************************* //
