/*--------------------------------*- C++ -*----------------------------------*\
  =========                 |
  \\      /  F ield         | OpenFOAM: The Open Source CFD Toolbox
   \\    /   O peration     | Website:  https://openfoam.org
    \\  /    A nd           | Version:  9
     \\/     M anipulation  |
\*---------------------------------------------------------------------------*/
FoamFile
{
    format      ascii;
    class       volScalarField;
    location    "0.35";
    object      p;
}
// * * * * * * * * * * * * * * * * * * * * * * * * * * * * * * * * * * * * * //

dimensions      [1 -1 -2 0 0 0 0];

internalField   nonuniform List<scalar> 
2268
(
980.378
982.704
993.289
1007.81
1021.72
1033.61
1043.13
1050.51
1056.15
1060.52
1064.17
1067.81
1072.41
1079.37
1090.74
1109.79
1139.51
1182.87
1239.29
1300.96
1353.12
1366.08
1411.83
920.734
921.451
930.252
942.824
955.21
966.073
974.958
981.954
987.395
991.723
995.508
999.504
1004.75
1012.69
1025.36
1045.4
1077.15
1123.29
1184.69
1253.01
1309.78
1312.63
1354.22
860.154
861.288
868.316
878.401
888.637
897.843
905.528
911.679
916.56
920.591
924.358
928.656
934.571
943.607
957.802
979.776
1013.23
1061.09
1124.21
1194.69
1255.49
1264.37
1306.89
799.189
801.312
807.272
815.342
823.578
831.053
837.352
842.439
846.536
850.053
853.579
857.931
864.214
873.929
889.073
912.093
946.073
993.692
1055.46
1124.5
1187.1
1211.57
1270.94
738.015
741.238
746.541
753.036
759.582
765.489
770.452
774.455
777.704
780.596
783.719
787.888
794.196
804.091
819.468
842.553
875.931
921.791
980.372
1046.2
1108.07
1149.89
1228.13
676.543
680.788
685.589
690.747
695.818
700.313
704.037
707.002
709.407
711.636
714.266
718.092
724.165
733.849
748.899
771.316
803.245
846.361
900.62
961.641
1019.42
1076.17
1164.36
614.813
619.887
624.19
628.094
631.816
635.028
637.606
639.594
641.184
642.744
644.832
648.212
653.866
663.045
677.348
698.558
728.408
768.067
817.026
871.171
919.958
983.878
1055.31
552.908
558.623
562.309
564.94
567.399
569.465
571.024
572.13
572.97
573.893
575.429
578.299
583.397
591.833
605.04
624.582
651.812
687.361
729.955
774.473
808.11
852.879
867.049
29.8689
29.8432
29.8368
29.8396
29.8589
29.8863
29.9108
29.9224
29.9168
29.8921
29.8503
29.7957
29.7343
29.6726
29.6156
29.5673
29.5304
29.5071
29.4981
29.814
29.7867
29.7782
29.777
29.7943
29.8204
29.8443
29.8557
29.8507
29.8273
29.7869
29.7338
29.6738
29.6129
29.5562
29.508
29.4712
29.4475
29.4373
29.7595
29.7223
29.7149
29.7115
29.7284
29.7541
29.7782
29.7897
29.7854
29.763
29.7239
29.6721
29.613
29.5524
29.4954
29.4464
29.4086
29.384
29.3735
29.7053
29.648
29.646
29.6427
29.6621
29.6898
29.7159
29.7282
29.7244
29.7025
29.6635
29.6117
29.5521
29.4906
29.4324
29.3818
29.3425
29.3171
29.3067
29.6523
29.5627
29.5732
29.5711
29.5958
29.6279
29.6581
29.6717
29.6686
29.6465
29.6065
29.553
29.4914
29.4276
29.3669
29.314
29.2729
29.2467
29.2364
29.6009
29.4652
29.4981
29.4966
29.5285
29.5681
29.6042
29.6194
29.6174
29.5949
29.553
29.4964
29.431
29.3634
29.299
29.243
29.1996
29.1726
29.1625
29.586
29.362
29.427
29.4192
29.4602
29.5084
29.5525
29.5699
29.5696
29.5471
29.5027
29.4419
29.3713
29.2981
29.2288
29.1686
29.1224
29.0943
29.0847
29.4194
29.2526
29.3827
29.3532
29.3993
29.4441
29.498
29.5191
29.5226
29.5011
29.4545
29.389
29.312
29.2319
29.1561
29.0908
29.0412
29.0118
29.0024
455.94
462.185
464.624
465.259
465.864
466.347
466.523
466.425
466.226
466.238
466.942
468.976
473.056
480.028
491.059
507.422
529.967
558.444
590.133
617.089
620.888
568.051
307.887
323.958
329.639
328.975
326.371
324.307
322.561
320.873
319.231
317.743
316.637
316.306
317.268
319.878
324.454
331.931
343.599
360.173
381.05
403.3
419.001
410.849
353.037
251.666
192.851
194.798
187.685
181.607
177.268
173.906
171.026
168.452
166.207
164.415
163.426
163.756
165.171
166.95
170.003
176.339
187.035
202.133
219.931
236.787
243.236
226.74
200.024
73.878
69.9748
56.2067
51.6258
49.1106
47.2218
45.5067
43.8828
42.4419
41.2284
40.4823
40.7035
41.2874
40.7342
39.657
40.0946
42.4453
46.6372
55.0757
68.8419
83.3107
83.3893
68.0971
12.7584
6.10658
1.73694
1.24352
1.12255
1.17503
1.1445
1.01485
0.831385
0.608977
0.431589
0.469686
0.539546
0.170157
-0.393298
-0.597994
-0.743489
-1.41899
-4.08
-7.70365
-10.6518
-17.2716
-29.3431
-2.43637
-1.82534
-1.71861
-1.83594
-1.88633
-1.90447
-1.92651
-1.95232
-1.97705
-2.00007
-2.01739
-2.03173
-2.06356
-2.13012
-2.22665
-2.36764
-2.57513
-2.85508
-3.21461
-4.19256
-7.60672
-11.8213
-15.7681
-2.11433
-2.07915
-2.00937
-1.9825
-1.96041
-1.94464
-1.94274
-1.95317
-1.97299
-2.0008
-2.03543
-2.07682
-2.12732
-2.18803
-2.25624
-2.33046
-2.40914
-2.47851
-2.52133
-2.69728
-3.29055
-4.02864
-4.37724
-2.29166
-2.23675
-2.18603
-2.16015
-2.15209
-2.15138
-2.15847
-2.1739
-2.19683
-2.22659
-2.263
-2.30667
-2.3592
-2.42196
-2.49531
-2.57937
-2.6739
-2.77463
-2.86786
-2.9547
-3.07494
-3.25118
-3.36468
-2.41531
-2.377
-2.35151
-2.33627
-2.33306
-2.33736
-2.34854
-2.36693
-2.39229
-2.42435
-2.4632
-2.50942
-2.56422
-2.62875
-2.70366
-2.78946
-2.88658
-2.99447
-3.11063
-3.24037
-3.4103
-3.61722
-3.81291
-2.56881
-2.54084
-2.52323
-2.5137
-2.51294
-2.51942
-2.53263
-2.55272
-2.5797
-2.61361
-2.65461
-2.70307
-2.75965
-2.82498
-2.89954
-2.98381
-3.07841
-3.18407
-3.30216
-3.43855
-3.60266
-3.78546
-3.96258
-2.7281
-2.71085
-2.69831
-2.6924
-2.6939
-2.70225
-2.71715
-2.73873
-2.76714
-2.80258
-2.8452
-2.89521
-2.95289
-3.01855
-3.09257
-3.17548
-3.26804
-3.37134
-3.48711
-3.6186
-3.76888
-3.9327
-4.09939
-2.89005
-2.88084
-2.87275
-2.87002
-2.87367
-2.88368
-2.90004
-2.92292
-2.95258
-2.98924
-3.03303
-3.08403
-3.14228
-3.20793
-3.28131
-3.36298
-3.45383
-3.55501
-3.66796
-3.79449
-3.93578
-4.08903
-4.24889
-3.05285
-3.04936
-3.04475
-3.04466
-3.05016
-3.06161
-3.0792
-3.10322
-3.13395
-3.17161
-3.21628
-3.26789
-3.32636
-3.39175
-3.46436
-3.54485
-3.63415
-3.73338
-3.84375
-3.9664
-4.10185
-4.24835
-4.40256
-3.21437
-3.21459
-3.21278
-3.21491
-3.22206
-3.23479
-3.25349
-3.27853
-3.31022
-3.34875
-3.39412
-3.44615
-3.50467
-3.5697
-3.64161
-3.72113
-3.80925
-3.90705
-4.01554
-4.13554
-4.26736
-4.40989
-4.56097
-3.37318
-3.37554
-3.37598
-3.38001
-3.38864
-3.40257
-3.42231
-3.4483
-3.48089
-3.52022
-3.56621
-3.61861
-3.67719
-3.74199
-3.81347
-3.89247
-3.98007
-4.0773
-4.18506
-4.30399
-4.43443
-4.57581
-4.7268
-3.52826
-3.53168
-3.53396
-3.53962
-3.5496
-3.56466
-3.58539
-3.6123
-3.64575
-3.68586
-3.73247
-3.78529
-3.84407
-3.90893
-3.98043
-4.05957
-4.1475
-4.24525
-4.35363
-4.47327
-4.60467
-4.74773
-4.90184
-3.67897
-3.68277
-3.68657
-3.69363
-3.70483
-3.72095
-3.74263
-3.77044
-3.80476
-3.84565
-3.89292
-3.94625
-4.00546
-4.07073
-4.1428
-4.2228
-4.31196
-4.41132
-4.52169
-4.64375
-4.77825
-4.92561
-5.08584
-3.82497
-3.8288
-3.83383
-3.84207
-3.85436
-3.87145
-3.89405
-3.92276
-3.95793
-3.99961
-4.04757
-4.10153
-4.16136
-4.2274
-4.30054
-4.38203
-4.47319
-4.57508
-4.68853
-4.81437
-4.95369
-5.10741
-5.27616
-3.96612
-3.96984
-3.97582
-3.98505
-3.99827
-4.01625
-4.03973
-4.0693
-4.1053
-4.14775
-4.19643
-4.25107
-4.31167
-4.37873
-4.45329
-4.53672
-4.63039
-4.73539
-4.85259
-4.98307
-5.12828
-5.28962
-5.46829
-4.10237
-4.10598
-4.11264
-4.12268
-4.13672
-4.15549
-4.17976
-4.21011
-4.24688
-4.29007
-4.33943
-4.39477
-4.4562
-4.52438
-4.60051
-4.68608
-4.78245
-4.89072
-5.01189
-5.14725
-5.29871
-5.46806
-5.65692
-4.23374
-4.23726
-4.24442
-4.2551
-4.26981
-4.28928
-4.31422
-4.34525
-4.38268
-4.42648
-4.47645
-4.53242
-4.59463
-4.66389
-4.74155
-4.82916
-4.92809
-5.03944
-5.1643
-5.30426
-5.4616
-5.63845
-5.83673
-4.36027
-4.36376
-4.37124
-4.38242
-4.39768
-4.4177
-4.44318
-4.47472
-4.51264
-4.5569
-4.6073
-4.66375
-4.72657
-4.79672
-4.87564
-4.96495
-5.066
-5.17988
-5.30778
-5.45155
-5.61381
-5.79691
-6.00294
-4.48207
-4.48553
-4.49323
-4.50476
-4.52043
-4.54085
-4.56669
-4.59855
-4.63673
-4.68121
-4.73181
-4.78847
-4.8516
-4.92227
-5.002
-5.09243
-5.1949
-5.31047
-5.44043
-5.58683
-5.75257
-5.94007
-6.15153
-4.5992
-4.60266
-4.61047
-4.62224
-4.63818
-4.65882
-4.68482
-4.71677
-4.75495
-4.79936
-4.84983
-4.90634
-4.96937
-5.04005
-5.11994
-5.2107
-5.31364
-5.42983
-5.5606
-5.70817
-5.87556
-6.0652
-6.27931
-4.71176
-4.71524
-4.72307
-4.73497
-4.75103
-4.77174
-4.79764
-4.82943
-4.86731
-4.9113
-4.96127
-5.01722
-5.07965
-5.1497
-5.22897
-5.31909
-5.42139
-5.53691
-5.66705
-5.81407
-5.98106
-6.17031
-6.3841
-4.81984
-4.82336
-4.83114
-4.84305
-4.85907
-4.87964
-4.9053
-4.93661
-4.97385
-5.01705
-5.06609
-5.12101
-5.18228
-5.25102
-5.3288
-5.41723
-5.51762
-5.63106
-5.75895
-5.90358
-6.06793
-6.25411
-6.46447
-4.92355
-4.92712
-4.93478
-4.94662
-4.96245
-4.9827
-5.00784
-5.03839
-5.07463
-5.11662
-5.16429
-5.21766
-5.2772
-5.34394
-5.41934
-5.50498
-5.60217
-5.71203
-5.83599
-5.97625
-6.13566
-6.31596
-6.51974
-5.02302
-5.02666
-5.03412
-5.04581
-5.06132
-5.08105
-5.10543
-5.13489
-5.16975
-5.2101
-5.25591
-5.30721
-5.36442
-5.42845
-5.50064
-5.58244
-5.67515
-5.77995
-5.89826
-6.0322
-6.18434
-6.35606
-6.55018
-5.11845
-5.12214
-5.12939
-5.14077
-5.15585
-5.1749
-5.19827
-5.22636
-5.25946
-5.29771
-5.34115
-5.38983
-5.4441
-5.50475
-5.57291
-5.64991
-5.73698
-5.83532
-5.94635
-6.07204
-6.21465
-6.37517
-6.5565
-5.21005
-5.21377
-5.22073
-5.23175
-5.24628
-5.26448
-5.28663
-5.31306
-5.34405
-5.3798
-5.42037
-5.46587
-5.51661
-5.57321
-5.63663
-5.70797
-5.78838
-5.87903
-5.98131
-6.09699
-6.22798
-6.37481
-6.54026
-5.29802
-5.30177
-5.30837
-5.31898
-5.33284
-5.35005
-5.37079
-5.39534
-5.42394
-5.45681
-5.49408
-5.5359
-5.58253
-5.63449
-5.69248
-5.75743
-5.83032
-5.91224
-6.00451
-6.10869
-6.22626
-6.3573
-6.50419
-5.38257
-5.38636
-5.39257
-5.40273
-5.4158
-5.43187
-5.45106
-5.47354
-5.49953
-5.52925
-5.56286
-5.60056
-5.6426
-5.68937
-5.74139
-5.79932
-5.86398
-5.93635
-6.01759
-6.10907
-6.21187
-6.3256
-6.452
-5.46388
-5.46782
-5.47357
-5.48325
-5.49542
-5.51024
-5.52773
-5.54801
-5.57124
-5.5976
-5.62731
-5.66057
-5.69763
-5.73878
-5.78436
-5.83481
-5.89072
-5.95292
-6.02241
-6.10034
-6.18746
-6.28305
-6.38805
-5.54227
-5.54655
-5.55164
-5.56085
-5.57199
-5.58541
-5.60109
-5.61907
-5.63944
-5.66236
-5.68801
-5.71664
-5.74847
-5.7837
-5.82252
-5.86515
-5.91197
-5.96361
-6.02091
-6.08481
-6.15585
-6.2331
-6.31683
-5.61794
-5.62314
-5.62709
-5.63586
-5.64585
-5.65773
-5.67148
-5.68708
-5.70456
-5.72401
-5.74558
-5.76949
-5.79595
-5.8251
-5.85698
-5.89164
-5.92922
-5.97015
-6.01512
-6.0649
-6.11988
-6.17916
-6.24253
-5.69021
-5.69836
-5.70036
-5.70869
-5.71739
-5.72757
-5.73928
-5.75245
-5.76703
-5.78305
-5.80059
-5.81982
-5.84091
-5.86394
-5.88886
-5.91554
-5.94396
-5.97432
-6.00714
-6.04304
-6.08239
-6.12445
-6.16886
-5.75835
-5.77241
-5.77171
-5.77966
-5.78688
-5.79521
-5.80477
-5.81546
-5.82717
-5.83984
-5.85346
-5.86812
-5.88395
-5.90096
-5.91905
-5.93796
-5.95752
-5.97774
-5.99896
-6.02165
-6.04617
-6.0721
-6.0992
-5.82318
-5.84572
-5.84113
-5.84885
-5.85445
-5.86077
-5.86809
-5.87626
-5.88512
-5.89451
-5.90435
-5.91464
-5.9254
-5.93663
-5.94817
-5.95971
-5.97096
-5.98176
-5.99226
-6.00279
-6.01367
-6.02483
-6.03642
-5.88748
-5.92088
-5.90926
-5.91703
-5.92103
-5.92517
-5.93011
-5.9357
-5.94172
-5.94794
-5.95418
-5.96033
-5.96635
-5.97219
-5.97766
-5.98244
-5.98614
-5.98847
-5.98938
-5.98902
-5.98764
-5.98544
-5.98299
-5.94705
-6.00594
-5.98057
-5.98704
-5.98916
-5.99085
-5.99323
-5.99619
-5.99941
-6.00263
-6.00555
-6.00799
-6.00983
-6.01095
-6.01115
-6.01007
-6.00727
-6.00232
-5.99497
-5.98515
-5.97296
-5.9587
-5.94322
-5.98002
-6.11113
-6.06092
-6.05893
-6.05754
-6.05637
-6.05603
-6.05631
-6.05682
-6.0572
-6.05713
-6.05636
-6.05468
-6.05192
-6.04779
-6.04191
-6.0338
-6.02295
-6.00892
-5.9914
-5.97026
-5.94577
-5.91939
-5.97506
-6.21203
-6.13314
-6.11711
-6.11058
-6.10628
-6.10312
-6.10051
-6.09801
-6.09524
-6.09193
-6.08779
-6.08254
-6.07591
-6.06755
-6.05709
-6.04408
-6.02802
-6.0084
-5.98475
-5.95673
-5.92438
-5.88884
-232.665
-178.299
-49.4378
-8.5926
140.723
111.49
84.8516
35.2185
158.139
119.171
84.4913
55.6393
45.0699
34.956
31.4496
27.6372
-43.7854
-44.0485
-35.7421
-25.9946
-20.0262
-23.7371
-25.0953
-20.686
-5.23583
-5.84016
-6.18121
-6.55498
-3.40543
-3.4691
-3.64933
-4.04205
-3.95437
-3.99965
-4.01477
-4.06161
-4.07842
-4.15549
-4.24195
-4.33635
-4.21853
-4.2978
-4.38294
-4.47028
-4.36797
-4.44616
-4.52851
-4.61097
-4.51932
-4.59657
-4.6777
-4.75896
-4.67727
-4.75514
-4.83696
-4.91929
-4.84495
-4.92505
-5.00945
-5.09489
-5.02437
-5.10841
-5.19738
-5.28799
-5.21522
-5.30485
-5.40019
-5.49786
-5.41433
-5.51084
-5.61393
-5.72003
-5.61633
-5.72048
-5.83214
-5.94749
-5.81496
-5.92686
-6.0473
-6.17216
-6.00398
-6.12315
-6.25199
-6.38597
-6.17789
-6.30332
-6.43955
-6.58159
-6.3321
-6.46233
-6.60444
-6.75287
-6.46317
-6.59651
-6.74264
-6.89534
-6.5688
-6.70348
-6.85165
-7.00646
-6.6475
-6.78167
-6.92969
-7.08429
-6.69836
-6.82999
-6.97587
-7.12806
-6.72152
-6.84835
-6.98932
-7.13626
-6.71744
-6.83689
-6.96975
-7.10801
-6.68753
-6.79689
-6.91841
-7.04431
-6.6348
-6.73157
-6.83873
-6.9489
-6.56373
-6.64605
-6.73667
-6.82885
-6.4798
-6.54681
-6.61996
-6.69347
-6.3888
-6.44067
-6.4967
-6.55223
-6.29593
-6.33371
-6.37393
-6.41313
-6.20547
-6.23073
-6.25707
-6.28215
-6.1211
-6.13567
-6.15027
-6.16362
-6.04585
-6.05161
-6.05663
-6.06038
-5.98165
-5.98022
-5.97765
-5.97392
-5.93163
-5.92396
-5.9156
-5.90674
-5.90083
-5.88866
-5.87591
-5.86239
-5.86234
-5.8455
-5.82866
-5.81172
13.4146
28.7599
29.4043
29.4081
29.3428
29.3543
29.4223
29.4397
29.45
29.4322
29.3822
29.3084
29.2202
29.1273
29.0392
28.964
28.9079
28.876
28.8664
-23.8813
-17.4519
8.69393
28.3487
29.108
29.4023
29.4508
29.3793
29.3827
29.3567
29.2943
29.2053
29.097
28.9805
28.8684
28.7729
28.7035
28.6662
28.6566
9.62924
-15.654
-25.1386
-18.5278
3.26412
26.1629
29.2028
29.3642
29.3861
29.3081
29.2126
29.1024
28.9699
28.823
28.6784
28.5543
28.4658
28.4211
28.4124
11.0744
-11.2918
-18.8597
-17.2887
-17.9958
-13.8573
8.96194
27.9711
29.335
29.2644
29.1415
28.9937
28.8293
28.6456
28.4599
28.2986
28.184
28.1294
28.1224
-19.1194
-29.1847
-30.7317
-25.7381
-21.8368
-18.09
-13.7532
0.00809937
24.4862
28.9554
29.0334
28.8795
28.666
28.4328
28.1969
27.9907
27.8438
27.7764
27.7722
-20.8039
-33.6433
-38.9782
-36.5019
-35.2959
-31.1068
-23.1352
-15.6365
0.565331
23.595
28.4731
28.6748
28.4423
28.1545
27.8613
27.6064
27.4248
27.3433
27.3433
-7.42445
-6.98311
-5.07737
-6.69719
-24.5619
-37.963
-36.6559
-28.5377
-16.4053
5.41605
25.3283
27.9663
28.0622
27.75
27.4048
27.1095
26.8995
26.8071
26.8141
-4.79213
-5.12443
-5.40052
-5.51285
-4.01082
-2.72036
-28.9627
-40.9657
-30.0511
-11.6739
14.7682
26.1642
27.3588
27.1355
26.7677
26.4554
26.2362
26.1425
26.1612
-4.21355
-4.36106
-4.63956
-5.14866
-5.5874
-5.97188
-10.6471
-34.1278
-40.9037
-24.3586
1.0025
22.0843
25.9616
26.1961
25.8961
25.6056
25.4061
25.3273
25.3641
-4.48691
-4.66643
-4.82162
-5.00005
-5.08539
-5.17878
-5.85277
-15.5956
-41.2886
-33.8624
-9.86765
16.3531
23.7996
24.8626
24.7448
24.5374
24.3947
24.349
24.4101
-4.61811
-4.80511
-4.97619
-5.14537
-5.25736
-5.24437
-5.26803
-6.29546
-29.0453
-40.4655
-18.1249
11.333
21.6384
23.3217
23.3592
23.2703
23.2102
23.2109
23.2998
-4.74876
-4.93381
-5.10026
-5.24383
-5.33353
-5.32543
-5.21721
-5.66006
-16.5375
-41.6814
-24.6182
6.10071
19.5521
21.7065
21.8373
21.8577
21.883
21.9329
22.0485
-4.89434
-5.07936
-5.2431
-5.37265
-5.44608
-5.43639
-5.29517
-5.60717
-10.9713
-37.6568
-26.8017
2.61273
17.4021
19.875
20.1768
20.3362
20.4481
20.5448
20.683
-5.05668
-5.24637
-5.41469
-5.5434
-5.61204
-5.6017
-5.46039
-5.68141
-8.41333
-31.8724
-25.9828
2.06442
15.6448
17.91
18.4294
18.7537
18.9448
19.0821
19.237
-5.23799
-5.43728
-5.61637
-5.75197
-5.82056
-5.80983
-5.67117
-5.79307
-7.28967
-27.4547
-23.6619
3.14447
14.3377
16.1527
16.7757
17.1836
17.4197
17.583
17.7459
-5.44023
-5.65381
-5.8483
-5.99494
-6.06461
-6.04194
-5.86552
-5.92468
-7.74064
-27.0601
-20.1503
4.40615
13.4708
14.8179
15.2822
15.6625
15.9061
16.0785
16.2402
-5.66228
-5.89476
-6.10909
-6.27008
-6.34266
-6.30551
-6.08139
-6.09511
-8.78266
-27.0342
-16.6859
4.68133
12.5331
13.523
13.8273
14.1716
14.4121
14.5862
14.7419
-5.89906
-6.15425
-6.3919
-6.57029
-6.65233
-6.61302
-6.36922
-6.38434
-10.986
-22.7601
-10.5835
4.49573
10.6811
11.7157
12.3009
12.6859
12.9365
13.1166
13.2665
-6.14269
-6.42311
-6.68757
-6.88885
-6.99185
-6.97353
-6.77449
-7.01714
-12.4941
-11.4408
1.44693
4.9144
8.08155
9.84763
10.7792
11.2185
11.4934
11.6842
11.8288
-6.3841
-6.69096
-6.98595
-7.21662
-7.3485
-7.36397
-7.24923
-8.04989
-11.8557
2.58824
13.6485
5.9884
6.34231
8.46537
9.37987
9.81908
10.1118
10.3076
10.4446
-6.61399
-6.94756
-7.27524
-7.53829
-7.69765
-7.73795
-7.60035
-8.47563
-14.3803
-3.46128
6.52819
6.34447
5.74674
7.2308
8.09424
8.52062
8.81166
9.00055
9.12628
-6.82397
-7.18409
-7.54358
-7.84277
-8.04207
-8.14608
-7.85844
-10.929
-14.2135
-3.69972
3.8999
5.61772
5.56205
6.13429
6.90834
7.33013
7.59752
7.76814
7.87853
-7.00674
-7.38916
-7.7743
-8.11541
-8.37588
-8.62348
-8.61623
-9.31777
-13.9
-3.72705
3.5481
5.55229
5.47184
5.46559
5.92333
6.25699
6.46747
6.60677
6.69809
-7.15664
-7.55328
-7.95785
-8.33117
-8.60526
-8.49778
-7.30701
-7.84468
-11.7795
-7.51814
3.58186
5.43178
5.35846
5.06077
5.12154
5.27809
5.40448
5.5031
5.57469
-7.27135
-7.67728
-8.10182
-8.48953
-8.76166
-8.7706
-9.13007
-7.87519
-11.7833
-11.9124
0.85478
4.60385
4.88665
4.44526
4.29015
4.3082
4.36678
4.43378
4.49337
-7.34934
-7.76089
-8.20532
-8.61026
-8.96034
-9.17839
-9.62907
-7.53913
-12.4081
-16.6989
-6.52104
2.76629
4.10905
3.4711
3.24479
3.2584
3.31097
3.3758
3.44134
-7.38934
-7.80119
-8.25755
-8.69273
-9.10583
-9.3991
-9.08998
-7.21936
-11.108
-20.1994
-18.3566
-0.896303
2.5551
1.99595
1.97137
2.11108
2.22555
2.32076
2.41995
-7.38866
-7.79359
-8.25967
-8.73496
-9.1571
-9.51259
-9.53226
-9.7847
-7.46907
-20.1365
-22.8436
-7.4897
-0.934283
0.0244416
0.543673
0.905412
1.1387
1.28579
1.44501
-7.34574
-7.73372
-8.19844
-8.711
-9.19484
-9.63786
-10.2174
-10.2544
-7.5903
-15.3064
-18.5033
-12.2931
-4.59583
-1.73134
-0.866679
-0.257745
0.108852
0.315189
0.53277
-7.26064
-7.61789
-8.05903
-8.58346
-9.13406
-9.61624
-10.3949
-11.5393
-12.9745
-11.5143
-9.54712
-10.9523
-6.19288
-3.01298
-1.97804
-1.24799
-0.798283
-0.54944
-0.300099
-7.13732
-7.44912
-7.83804
-8.31714
-8.85557
-9.37757
-10.1664
-11.5761
-13.3134
-14.7762
-11.9633
-9.57378
-6.57773
-3.9008
-2.8218
-2.02971
-1.55208
-1.28472
-1.04153
-6.98518
-7.24114
-7.55617
-7.94224
-8.39089
-8.87125
-9.45837
-10.2933
-11.3495
-11.7323
-10.6699
-8.69657
-6.41432
-4.42167
-3.36454
-2.60985
-2.15544
-1.89301
-1.68829
-6.81671
-7.01367
-7.24848
-7.52622
-7.84288
-8.18322
-8.53458
-8.9108
-9.27734
-9.33249
-8.81863
-7.5556
-5.91764
-4.53239
-3.65093
-3.02541
-2.63096
-2.39572
-2.24826
-6.64407
-6.78545
-6.94611
-7.12587
-7.3185
-7.51306
-7.69401
-7.84395
-7.90049
-7.72803
-7.23828
-6.41476
-5.38407
-4.47289
-3.81634
-3.33552
-3.01541
-2.82278
-2.73646
-6.47695
-6.57021
-6.6688
-6.76986
-6.86615
-6.94881
-7.00947
-7.03053
-6.95963
-6.72013
-6.289
-5.70409
-5.0425
-4.43535
-3.95893
-3.59646
-3.34792
-3.20248
-3.16934
-6.32227
-6.37637
-6.4268
-6.46981
-6.49897
-6.50732
-6.48949
-6.43151
-6.30677
-6.08227
-5.75003
-5.3353
-4.88551
-4.46483
-4.1156
-3.84379
-3.6573
-3.55539
-3.56137
-6.18442
-6.20806
-6.22326
-6.22709
-6.21469
-6.18063
-6.12047
-6.02689
-5.88867
-5.69516
-5.44652
-5.15448
-4.84399
-4.54878
-4.29447
-4.09456
-3.95991
-3.89398
-3.92444
-6.06574
-6.06646
-6.05703
-6.03714
-6.00362
-5.95194
-5.87789
-5.77854
-5.65065
-5.49245
-5.30659
-5.10021
-4.88562
-4.68002
-4.49932
-4.35717
-4.26453
-4.22573
-4.26841
-5.96765
-5.95182
-5.92498
-5.89253
-5.85325
-5.80182
-5.73324
-5.64644
-5.5416
-5.42026
-5.28553
-5.14191
-4.99579
-4.856
-4.73239
-4.63584
-4.57556
-4.55503
-4.60077
-5.89263
-5.86336
-5.81747
-5.77783
-5.75074
-5.71207
-5.66184
-5.59901
-5.52442
-5.44037
-5.34983
-5.25585
-5.16188
-5.07256
-4.99367
-4.93267
-4.89641
-4.88664
-4.92829
-5.83827
-5.7906
-5.70691
-5.65974
-5.66843
-5.6613
-5.64129
-5.61151
-5.57314
-5.52795
-5.4782
-5.42608
-5.37375
-5.32371
-5.27893
-5.24366
-5.22246
-5.21593
-5.24914
-5.78247
-5.71942
-5.60538
-5.5861
-5.63661
-5.6587
-5.66673
-5.66917
-5.66746
-5.66208
-5.65356
-5.6426
-5.63007
-5.61694
-5.60422
-5.59348
-5.58655
-5.58013
-5.58548
)
;

boundaryField
{
    leftWall
    {
        type            calculated;
        value           nonuniform List<scalar> 
50
(
980.378
920.734
860.154
799.189
738.015
676.543
614.813
552.908
455.94
323.958
192.851
73.878
12.7584
-2.43637
-2.11433
-2.29166
-2.41531
-2.56881
-2.7281
-2.89005
-3.05285
-3.21437
-3.37318
-3.52826
-3.67897
-3.82497
-3.96612
-4.10237
-4.23374
-4.36027
-4.48207
-4.5992
-4.71176
-4.81984
-4.92355
-5.02302
-5.11845
-5.21005
-5.29802
-5.38257
-5.46388
-5.54227
-5.61794
-5.69021
-5.75835
-5.82318
-5.88748
-5.94705
-5.98002
-5.97506
)
;
    }
    rightWall
    {
        type            calculated;
        value           nonuniform List<scalar> 
50
(
29.4981
29.4373
29.3735
29.3067
29.2364
29.1625
29.0847
29.0024
28.8664
28.6566
28.4124
28.1224
27.7722
27.3433
26.8141
26.1612
25.3641
24.4101
23.2998
22.0485
20.683
19.237
17.7459
16.2402
14.7419
13.2665
11.8288
10.4446
9.12628
7.87853
6.69809
5.57469
4.49337
3.44134
2.41995
1.44501
0.53277
-0.300099
-1.04153
-1.68829
-2.24826
-2.73646
-3.16934
-3.56137
-3.92444
-4.26841
-4.60077
-4.92829
-5.24914
-5.58548
)
;
    }
    lowerWall
    {
        type            calculated;
        value           nonuniform List<scalar> 
62
(
1009.81
1012.13
1022.72
1037.24
1051.15
1063.04
1072.56
1079.94
1085.58
1089.95
1093.6
1097.24
1101.84
1108.8
1120.17
1139.22
1168.94
1212.3
1268.72
1330.39
1382.39
1393.25
1439
1411.83
1354.22
1306.89
1270.94
1228.13
1164.36
1055.31
867.049
-170.303
-115.937
12.983
53.9666
29.8689
29.814
29.7595
29.7053
29.6523
29.6009
29.586
29.4194
29.8983
29.8726
29.8663
29.869
29.8883
29.9157
29.9402
29.9518
29.9462
29.9216
29.8797
29.8251
29.7638
29.702
29.645
29.5967
29.5598
29.5365
29.5275
)
;
    }
    atmosphere
    {
        type            calculated;
        value           nonuniform List<scalar> 
46
(
-6.01942
-6.16875
-6.13932
-6.13005
-6.12344
-6.1183
-6.11391
-6.10978
-6.10553
-6.1009
-6.09562
-6.08945
-6.08208
-6.0732
-6.06246
-6.04952
-6.034
-6.01554
-5.99372
-5.96814
-5.93842
-5.90442
-5.8665
-5.8367
-5.82023
-5.80665
-5.79553
-5.77932
-5.75518
-5.73934
-5.7295
-5.72904
-5.72904
-5.72904
-5.72904
-5.72904
-5.72905
-5.72905
-5.72904
-5.72904
-5.72904
-5.72904
-5.72904
-5.72904
-5.72904
-5.72904
)
;
    }
    defaultFaces
    {
        type            empty;
    }
}


// ************************************************************************* //
