/*--------------------------------*- C++ -*----------------------------------*\
  =========                 |
  \\      /  F ield         | OpenFOAM: The Open Source CFD Toolbox
   \\    /   O peration     | Website:  https://openfoam.org
    \\  /    A nd           | Version:  9
     \\/     M anipulation  |
\*---------------------------------------------------------------------------*/
FoamFile
{
    format      ascii;
    class       volScalarField;
    location    "0.35";
    object      p_rgh;
}
// * * * * * * * * * * * * * * * * * * * * * * * * * * * * * * * * * * * * * //

dimensions      [1 -1 -2 0 0 0 0];

internalField   nonuniform List<scalar> 
2268
(
1009.81
1012.13
1022.72
1037.24
1051.15
1063.04
1072.56
1079.94
1085.58
1089.95
1093.6
1097.24
1101.84
1108.8
1120.17
1139.22
1168.94
1212.3
1268.72
1330.39
1382.39
1393.25
1439
1009.02
1009.74
1018.54
1031.11
1043.5
1054.36
1063.25
1070.24
1075.68
1080.01
1083.8
1087.79
1093.04
1100.98
1113.65
1133.69
1165.43
1211.58
1272.98
1341.3
1398.07
1396.74
1438.99
1007.3
1008.43
1015.46
1025.55
1035.78
1044.99
1052.67
1058.83
1063.71
1067.74
1071.51
1075.8
1081.72
1090.75
1104.95
1126.92
1160.38
1208.23
1271.35
1341.83
1402.64
1411.44
1453.94
1005.19
1007.32
1013.28
1021.35
1029.58
1037.06
1043.36
1048.44
1052.54
1056.06
1059.58
1063.94
1070.22
1079.93
1095.08
1118.1
1152.08
1199.7
1261.46
1330.51
1393.1
1417.56
1475.61
1002.88
1006.1
1011.41
1017.9
1024.45
1030.35
1035.32
1039.32
1042.57
1045.46
1048.58
1052.75
1059.06
1068.95
1084.33
1107.42
1140.8
1186.65
1245.24
1311.06
1372.94
1414.75
1491.28
1000.27
1004.51
1009.31
1014.47
1019.54
1024.04
1027.76
1030.73
1033.13
1035.36
1037.99
1041.82
1047.89
1057.57
1072.62
1095.04
1126.97
1170.08
1224.34
1285.36
1343.14
1399.89
1486.05
997.395
1002.47
1006.77
1010.68
1014.4
1017.61
1020.19
1022.18
1023.77
1025.33
1027.41
1030.79
1036.45
1045.63
1059.93
1081.14
1110.99
1150.65
1199.61
1253.75
1302.54
1366.46
1435.56
994.348
1000.06
1003.75
1006.38
1008.84
1010.91
1012.46
1013.57
1014.41
1015.33
1016.87
1019.74
1024.84
1033.27
1046.48
1066.02
1093.25
1128.8
1171.4
1215.91
1249.55
1294.32
1305.9
29.8983
29.8726
29.8663
29.869
29.8883
29.9157
29.9402
29.9518
29.9462
29.9216
29.8797
29.8251
29.7638
29.702
29.645
29.5967
29.5598
29.5365
29.5275
29.9023
29.875
29.8665
29.8653
29.8826
29.9087
29.9326
29.944
29.939
29.9155
29.8752
29.8221
29.7621
29.7012
29.6445
29.5963
29.5595
29.5357
29.5256
29.9066
29.8695
29.862
29.8587
29.8755
29.9012
29.9253
29.9369
29.9325
29.9101
29.8711
29.8193
29.7601
29.6995
29.6425
29.5936
29.5558
29.5311
29.5207
29.9113
29.854
29.852
29.8487
29.8681
29.8958
29.922
29.9342
29.9304
29.9085
29.8696
29.8177
29.7581
29.6967
29.6384
29.5878
29.5485
29.5231
29.5127
29.9171
29.8276
29.838
29.8359
29.8606
29.8928
29.9229
29.9366
29.9335
29.9114
29.8714
29.8179
29.7563
29.6925
29.6318
29.5789
29.5377
29.5116
29.5013
29.9246
29.789
29.8219
29.8203
29.8523
29.8918
29.9279
29.9431
29.9411
29.9187
29.8767
29.8201
29.7548
29.6871
29.6227
29.5667
29.5233
29.4963
29.4863
29.9686
29.7446
29.8096
29.8018
29.8428
29.891
29.9351
29.9525
29.9522
29.9297
29.8853
29.8245
29.7539
29.6807
29.6113
29.5512
29.505
29.4769
29.4672
29.8608
29.694
29.8241
29.7946
29.8407
29.8856
29.9395
29.9605
29.964
29.9426
29.896
29.8304
29.7535
29.6734
29.5976
29.5323
29.4826
29.4533
29.4438
989.407
995.652
998.089
998.723
999.328
999.812
999.987
999.89
999.691
999.703
1000.41
1002.44
1006.52
1013.49
1024.52
1040.89
1063.43
1091.91
1123.6
1150.56
1154.36
1101.52
839.779
982.619
988.285
987.602
984.994
982.933
981.191
979.506
977.867
976.382
975.277
974.949
975.908
978.515
983.092
990.562
1002.21
1018.78
1039.69
1061.96
1077.66
1069.51
1011.7
910.327
976.654
978.181
970.715
964.635
960.365
957.083
954.264
951.734
949.524
947.762
946.808
947.186
948.651
950.464
953.341
959.208
969.538
984.836
1003.55
1020.64
1027.09
1010.6
983.879
938.509
823.586
711.592
710.749
724.318
741.031
751.379
755.48
754.906
750.276
743.191
741.812
744.372
735.839
730.711
752.251
807.802
880.196
951.719
977.868
992.364
992.44
977.138
283.993
133.302
50.3391
53.6444
62.8834
73.9499
81.45
84.9033
84.7611
81.0614
75.6281
74.3002
74.869
67.2554
59.8685
73.2865
112.402
194.031
350.827
611.995
943.819
1016.95
1004.88
-1.27693
-0.665898
-0.559175
-0.676501
-0.727315
-0.747238
-0.768256
-0.793275
-0.817717
-0.84066
-0.857953
-0.872292
-0.904119
-0.970677
-1.06722
-1.2082
-1.41569
-1.69564
-2.05517
4.63856
56.6373
177.905
363.906
-0.829695
-0.794521
-0.724749
-0.697873
-0.675787
-0.660017
-0.658115
-0.668542
-0.688364
-0.716165
-0.750795
-0.792191
-0.842685
-0.903399
-0.971609
-1.04583
-1.1245
-1.19388
-1.2367
-1.41264
-2.00591
-2.74345
-3.0744
-0.881838
-0.826927
-0.776214
-0.750336
-0.742273
-0.74156
-0.748649
-0.76408
-0.787003
-0.816765
-0.853175
-0.896845
-0.949367
-1.01213
-1.08548
-1.16954
-1.26408
-1.3648
-1.45802
-1.5441
-1.66419
-1.8406
-1.95414
-0.880285
-0.841983
-0.816493
-0.801259
-0.798044
-0.802344
-0.81352
-0.831916
-0.857268
-0.889333
-0.928177
-0.974397
-1.0292
-1.09373
-1.16863
-1.25444
-1.35156
-1.45944
-1.57474
-1.70254
-1.87244
-2.07935
-2.27505
-0.908588
-0.880622
-0.863011
-0.85349
-0.85273
-0.859206
-0.872417
-0.892502
-0.919486
-0.953395
-0.994389
-1.04285
-1.09943
-1.16476
-1.23932
-1.32359
-1.41819
-1.52385
-1.64116
-1.77551
-1.93941
-2.12218
-2.29932
-0.942687
-0.925435
-0.912898
-0.906989
-0.908487
-0.916837
-0.931742
-0.953315
-0.981733
-1.01716
-1.05978
-1.10979
-1.16747
-1.23314
-1.30716
-1.39007
-1.48263
-1.58591
-1.7016
-1.83307
-1.98342
-2.14729
-2.31398
-0.979446
-0.970236
-0.96214
-0.959413
-0.963061
-0.973077
-0.989432
-1.01231
-1.04197
-1.07863
-1.12243
-1.17342
-1.23167
-1.29733
-1.3707
-1.45238
-1.54323
-1.6444
-1.75736
-1.88388
-2.02517
-2.17842
-2.33829
-1.01705
-1.01356
-1.00895
-1.00886
-1.01436
-1.02581
-1.0434
-1.06742
-1.09815
-1.13581
-1.18048
-1.23209
-1.29056
-1.35595
-1.42856
-1.50905
-1.59835
-1.69757
-1.80795
-1.93059
-2.06604
-2.21255
-2.36676
-1.05337
-1.05359
-1.05178
-1.05391
-1.06106
-1.07379
-1.09249
-1.11753
-1.14922
-1.18775
-1.23312
-1.28515
-1.34367
-1.40871
-1.48062
-1.56014
-1.64825
-1.74605
-1.85455
-1.97455
-2.10637
-2.24889
-2.39997
-1.08698
-1.08935
-1.08979
-1.09382
-1.10245
-1.11638
-1.13612
-1.16211
-1.19469
-1.23403
-1.28002
-1.33242
-1.391
-1.4558
-1.52727
-1.60628
-1.69388
-1.79111
-1.89887
-2.0178
-2.14824
-2.28962
-2.4406
-1.11687
-1.12029
-1.12257
-1.12823
-1.13822
-1.15327
-1.174
-1.20091
-1.23436
-1.27447
-1.32109
-1.3739
-1.43269
-1.49754
-1.56905
-1.64819
-1.73611
-1.83386
-1.94225
-2.06189
-2.19329
-2.33635
-2.49045
-1.14239
-1.14619
-1.14999
-1.15705
-1.16825
-1.18437
-1.20605
-1.23387
-1.26818
-1.30907
-1.35634
-1.40967
-1.46888
-1.53415
-1.60622
-1.68622
-1.77538
-1.87474
-1.98511
-2.10717
-2.24167
-2.38903
-2.54926
-1.1632
-1.16702
-1.17206
-1.1803
-1.19258
-1.20967
-1.23228
-1.26099
-1.29616
-1.33783
-1.3858
-1.43975
-1.49958
-1.56562
-1.63876
-1.72026
-1.81141
-1.9133
-2.02675
-2.15259
-2.29192
-2.44563
-2.61438
-1.17915
-1.18287
-1.18885
-1.19808
-1.21131
-1.22929
-1.25276
-1.28233
-1.31833
-1.36078
-1.40946
-1.4641
-1.5247
-1.59176
-1.66632
-1.74975
-1.84343
-1.94842
-2.06563
-2.1961
-2.34131
-2.50266
-2.68132
-1.1902
-1.19382
-1.20048
-1.21052
-1.22455
-1.24333
-1.26759
-1.29795
-1.33472
-1.3779
-1.42727
-1.48261
-1.54404
-1.61222
-1.68835
-1.77391
-1.87028
-1.97856
-2.09973
-2.23509
-2.38654
-2.55589
-2.74475
-1.19638
-1.19991
-1.20706
-1.21774
-1.23246
-1.25192
-1.27686
-1.30789
-1.34532
-1.38913
-1.43909
-1.49507
-1.55727
-1.62654
-1.7042
-1.7918
-1.89073
-2.00208
-2.12694
-2.2669
-2.42424
-2.60109
-2.79937
-1.19772
-1.2012
-1.20869
-1.21986
-1.23513
-1.25515
-1.28063
-1.31217
-1.35008
-1.39435
-1.44475
-1.5012
-1.56402
-1.63416
-1.71309
-1.8024
-1.90345
-2.01733
-2.14523
-2.28899
-2.45125
-2.63436
-2.84039
-1.19432
-1.19778
-1.20548
-1.21701
-1.23269
-1.2531
-1.27894
-1.3108
-1.34898
-1.39346
-1.44406
-1.50072
-1.56386
-1.63452
-1.71426
-1.80468
-1.90715
-2.02272
-2.15268
-2.29908
-2.46482
-2.65232
-2.86378
-1.18626
-1.18972
-1.19753
-1.2093
-1.22524
-1.24588
-1.27188
-1.30383
-1.34201
-1.38642
-1.43688
-1.4934
-1.55643
-1.6271
-1.707
-1.79776
-1.9007
-2.01689
-2.14766
-2.29522
-2.46262
-2.65226
-2.86637
-1.17362
-1.17711
-1.18494
-1.19683
-1.2129
-1.2336
-1.2595
-1.29129
-1.32918
-1.37317
-1.42313
-1.47908
-1.54151
-1.61156
-1.69083
-1.78096
-1.88325
-1.99878
-2.12891
-2.27593
-2.44292
-2.63217
-2.84596
-1.15651
-1.16003
-1.16781
-1.17972
-1.19574
-1.21631
-1.24197
-1.27328
-1.31052
-1.35372
-1.40276
-1.45768
-1.51895
-1.58769
-1.66547
-1.7539
-1.85429
-1.96773
-2.09562
-2.24025
-2.4046
-2.59077
-2.80113
-1.13502
-1.1386
-1.14625
-1.15809
-1.17393
-1.19417
-1.21932
-1.24986
-1.2861
-1.3281
-1.37576
-1.42914
-1.48868
-1.55541
-1.63082
-1.71646
-1.81364
-1.9235
-2.04746
-2.18773
-2.34713
-2.52744
-2.73121
-1.10931
-1.11294
-1.12041
-1.13209
-1.1476
-1.16733
-1.19171
-1.22118
-1.25603
-1.29638
-1.34219
-1.3935
-1.4507
-1.51473
-1.58692
-1.66872
-1.76143
-1.86623
-1.98454
-2.11848
-2.27062
-2.44235
-2.63646
-1.07954
-1.08323
-1.09048
-1.10186
-1.11694
-1.13599
-1.15936
-1.18744
-1.22054
-1.2588
-1.30224
-1.35092
-1.40519
-1.46583
-1.534
-1.61099
-1.69807
-1.79641
-1.90744
-2.03313
-2.17574
-2.33626
-2.51759
-1.04594
-1.04966
-1.05663
-1.06764
-1.08217
-1.10037
-1.12252
-1.14895
-1.17995
-1.21569
-1.25626
-1.30177
-1.3525
-1.40911
-1.47252
-1.54386
-1.62427
-1.71493
-1.8172
-1.93289
-2.06387
-2.2107
-2.37615
-1.00872
-1.01247
-1.01907
-1.02968
-1.04353
-1.06074
-1.08149
-1.10603
-1.13464
-1.16751
-1.20478
-1.24659
-1.29323
-1.34518
-1.40318
-1.46813
-1.54102
-1.62294
-1.7152
-1.81938
-1.93696
-2.068
-2.21488
-0.968072
-0.971863
-0.978073
-0.988231
-1.0013
-1.01738
-1.03656
-1.05904
-1.08504
-1.11475
-1.14836
-1.18606
-1.2281
-1.27487
-1.32689
-1.38482
-1.44949
-1.52185
-1.6031
-1.69458
-1.79737
-1.91111
-2.0375
-0.924189
-0.928129
-0.933877
-0.94356
-0.955728
-0.970544
-0.988039
-1.00832
-1.03154
-1.05791
-1.08761
-1.12087
-1.15794
-1.19909
-1.24467
-1.29512
-1.35103
-1.41322
-1.48272
-1.56065
-1.64777
-1.74335
-1.84835
-0.877388
-0.881666
-0.886752
-0.89596
-0.907105
-0.920524
-0.936205
-0.95418
-0.974552
-0.99747
-1.02313
-1.05175
-1.08358
-1.11881
-1.15763
-1.20027
-1.24709
-1.29872
-1.35602
-1.41993
-1.49096
-1.56822
-1.65194
-0.827863
-0.833055
-0.837014
-0.845776
-0.855768
-0.867648
-0.8814
-0.896999
-0.914477
-0.933925
-0.9555
-0.979413
-1.00587
-1.03502
-1.0669
-1.10156
-1.13914
-1.18007
-1.22504
-1.27481
-1.3298
-1.38908
-1.45245
-0.774938
-0.783083
-0.785083
-0.793418
-0.80211
-0.812295
-0.824007
-0.837174
-0.851757
-0.867774
-0.885318
-0.904549
-0.925637
-0.948666
-0.973584
-1.00027
-1.02868
-1.05905
-1.09186
-1.12777
-1.16711
-1.20917
-1.25358
-0.717883
-0.731941
-0.731238
-0.739189
-0.746407
-0.754735
-0.764304
-0.774993
-0.786702
-0.799365
-0.812987
-0.827654
-0.843478
-0.860493
-0.878576
-0.897492
-0.917048
-0.937273
-0.958487
-0.981185
-1.0057
-1.03163
-1.05873
-0.657518
-0.680051
-0.67547
-0.683182
-0.688786
-0.695104
-0.702426
-0.710596
-0.719451
-0.728846
-0.738689
-0.748972
-0.759735
-0.770965
-0.782502
-0.794048
-0.805294
-0.816099
-0.826598
-0.83713
-0.848007
-0.859166
-0.870752
-0.596618
-0.63002
-0.618404
-0.62617
-0.630171
-0.634309
-0.639254
-0.644844
-0.650858
-0.657079
-0.663318
-0.669469
-0.675493
-0.681332
-0.686804
-0.691582
-0.695281
-0.697614
-0.698523
-0.698162
-0.696777
-0.694576
-0.692129
-0.531
-0.589882
-0.564512
-0.570983
-0.573106
-0.574793
-0.577178
-0.580132
-0.583361
-0.586572
-0.589494
-0.591934
-0.593773
-0.594898
-0.595097
-0.594019
-0.591215
-0.586269
-0.578919
-0.569097
-0.556905
-0.54265
-0.527162
-0.438776
-0.569886
-0.519671
-0.517686
-0.516294
-0.51512
-0.514784
-0.515066
-0.515573
-0.515947
-0.515877
-0.515107
-0.513436
-0.510669
-0.506538
-0.500659
-0.492552
-0.481705
-0.467676
-0.450153
-0.429014
-0.404526
-0.37814
-0.30862
-0.545589
-0.466699
-0.450664
-0.444135
-0.439834
-0.436674
-0.434071
-0.431564
-0.428802
-0.425487
-0.421344
-0.4161
-0.409466
-0.401112
-0.39065
-0.377634
-0.361573
-0.341958
-0.318312
-0.29029
-0.257938
-0.222395
298.798
353.164
482.526
524.55
799.327
768.195
742.253
693.517
941.988
902.889
868.232
839.374
954.104
943.99
940.478
936.652
990.441
990.171
998.466
1008.2
460.589
523.008
765.957
1110.72
-3.23532
-1.52994
13.7325
64.9829
-1.99495
-2.05864
-2.23817
-2.62693
-2.41651
-2.46318
-2.47973
-2.52694
-2.41631
-2.49505
-2.58174
-2.67611
-2.43312
-2.51239
-2.59753
-2.68487
-2.45736
-2.53556
-2.6179
-2.70037
-2.48352
-2.56077
-2.6419
-2.72315
-2.51627
-2.59414
-2.67597
-2.75829
-2.55876
-2.63886
-2.72326
-2.8087
-2.61298
-2.69703
-2.786
-2.87661
-2.67864
-2.76827
-2.86361
-2.96127
-2.75256
-2.84906
-2.95215
-3.05825
-2.82936
-2.93351
-3.04517
-3.16051
-2.90279
-3.01469
-3.13514
-3.25997
-2.96662
-3.0858
-3.21463
-3.34858
-3.01534
-3.14076
-3.277
-3.41899
-3.04435
-3.17458
-3.31668
-3.46501
-3.05022
-3.18356
-3.32967
-3.48229
-3.03066
-3.16534
-3.31348
-3.4682
-2.98417
-3.11833
-3.26634
-3.42087
-2.90984
-3.04146
-3.18732
-3.33947
-2.8078
-2.93462
-3.07559
-3.2225
-2.67853
-2.79797
-2.93083
-3.06907
-2.52342
-2.63278
-2.75429
-2.8802
-2.3455
-2.44227
-2.54943
-2.65959
-2.14923
-2.23156
-2.32217
-2.41435
-1.94011
-2.00712
-2.08027
-2.15378
-1.72391
-1.77579
-1.83181
-1.88735
-1.50585
-1.54363
-1.58385
-1.62305
-1.2902
-1.31546
-1.34179
-1.36688
-1.08063
-1.0952
-1.1098
-1.12315
-0.880188
-0.885946
-0.890967
-0.894718
-0.690793
-0.689362
-0.686789
-0.683057
-0.515575
-0.507903
-0.499549
-0.49069
-0.359577
-0.347412
-0.334665
-0.321139
-0.195895
-0.179058
-0.162219
-0.14528
139.034
29.2933
29.9365
29.9414
29.8764
29.8886
29.9565
29.9734
29.9836
29.9657
29.9157
29.8419
29.7537
29.6608
29.5727
29.4974
29.4413
29.4094
29.3999
623.045
547.918
229.139
30.7739
29.7701
30.069
30.1454
30.0523
30.0454
30.0162
29.9531
29.864
29.7556
29.6391
29.527
29.4316
29.3622
29.3248
29.3153
793.391
768.047
744.808
687.918
380.831
57.9562
30.1034
30.1987
30.287
30.131
29.9997
29.8864
29.7538
29.6069
29.4622
29.3382
29.2497
29.2049
29.1963
920.084
897.706
890.113
891.59
888.17
801.912
371.716
45.8794
30.5977
30.2967
30.0832
29.9059
29.7385
29.5547
29.369
29.2076
29.0931
29.0384
29.0315
1015.07
1005
1003.45
1008.42
1012.21
1015.81
1007.53
683.751
122.887
31.3653
30.3439
29.9559
29.704
29.4674
29.2312
29.0249
28.878
28.8106
28.8064
1138.58
1125.73
1120.36
1122.77
1123.85
1127.94
1135.85
1142.72
812.625
150.7
33.7905
30.5285
29.6928
29.3245
29.0219
28.766
28.5842
28.5027
28.5027
143.024
324.297
814.248
1233.91
1259.68
1246.17
1246.54
1253.96
1260.82
770.414
95.528
33.8231
30.1082
29.1386
28.7022
28.3953
28.1842
28.0917
28.0987
-3.37904
-2.05549
22.5384
64.8435
254.809
933.845
1364.85
1365.73
1369.48
1296.81
512.454
42.251
31.5471
28.9717
28.2321
27.8709
27.6464
27.5523
27.5711
-2.67832
-2.82603
-3.10453
-3.61364
-4.05238
-0.324616
321.834
1262.04
1475.59
1464.78
1032.51
151.62
34.1206
28.8369
27.5806
27.1567
26.9423
26.8623
26.8992
-2.82668
-3.00622
-3.1614
-3.33988
-3.42519
-3.51857
-4.18698
406.419
1434.25
1551.16
1362.87
384.875
38.172
28.7604
26.728
26.2335
26.0576
26.0093
26.0704
-2.83269
-3.0197
-3.19078
-3.35995
-3.47195
-3.45896
-3.48272
13.9442
1003.18
1629.3
1507.43
605.233
42.2276
28.5571
25.6717
25.1178
25.0004
24.9966
25.0854
-2.83815
-3.02321
-3.18966
-3.33322
-3.42293
-3.41483
-3.30661
-3.747
521.934
1582.27
1549.48
806.016
61.6978
28.0381
24.4441
23.8536
23.8005
23.8439
23.9595
-2.85854
-3.04355
-3.2073
-3.33684
-3.41028
-3.40059
-3.25937
-3.57125
235.694
1473.73
1586.52
978.844
85.7242
27.1794
23.038
22.4724
22.4922
22.5813
22.7195
-2.89569
-3.08536
-3.25369
-3.3824
-3.45105
-3.44071
-3.29939
-3.5204
110.378
1338.64
1634.86
1012.94
91.7313
25.5812
21.455
21.0174
21.1145
21.2439
21.3987
-2.9518
-3.15109
-3.32456
-3.45694
-3.5335
-3.52365
-3.38496
-3.50677
44.3518
1224.94
1638.51
954.746
75.7079
23.621
19.8783
19.5783
19.7159
19.8702
20.0326
-3.02884
-3.24242
-3.42673
-3.52625
-3.58906
-3.61784
-3.45402
-3.51254
66.5768
1200.22
1636.52
778.082
45.3323
21.5845
18.4301
18.2017
18.333
18.4912
18.652
-3.1257
-3.35818
-3.56537
-3.66663
-3.73812
-3.72138
-3.54205
-3.55675
152.472
1277.68
1611.89
733.328
39.3441
19.632
16.9555
16.8418
16.9658
17.1242
17.2788
-3.23728
-3.49247
-3.73012
-3.85292
-3.91905
-3.88157
-3.70007
-3.71927
456.364
1421.54
1566.13
802.097
41.8734
17.3138
15.4558
15.4708
15.6161
15.7799
15.9285
-3.35572
-3.63614
-3.9006
-4.04181
-4.12965
-4.13092
-3.97838
-4.22459
814.656
1467.66
1553.74
668.049
28.1253
15.6044
14.164
14.1336
14.2976
14.4726
14.6159
-3.47193
-3.7788
-4.04575
-4.19647
-4.35808
-4.4348
-4.32331
-5.12818
617.109
1445.11
1070.4
291.099
25.4665
15.1395
13.1163
12.866
13.0399
13.221
13.3569
-3.57661
-3.9102
-4.17262
-4.37401
-4.59169
-4.68183
-4.54535
-5.42392
359.797
376.057
143.958
66.8201
35.9764
14.1325
11.9692
11.6815
11.8624
12.0389
12.1637
-3.66107
-4.02151
-4.36229
-4.54238
-4.82426
-4.95959
-4.67636
292.654
200.998
35.0173
25.9511
17.4602
21.8893
13.8108
10.708
10.5879
10.7702
10.9315
11.0411
-3.7185
-4.10132
-4.48631
-4.51703
-4.9965
-5.30524
115.801
672.132
705.855
159.459
14.7456
13.1352
10.988
11.7912
9.7481
9.60804
9.76219
9.89505
9.98587
-3.74321
-4.1396
-4.53326
-4.59224
-5.04347
-5.04708
210.336
739.519
741.369
590.69
42.3269
10.9597
9.69629
8.81409
8.93407
8.73368
8.82173
8.91639
8.98765
-3.73285
-4.13723
-4.56175
-4.74787
-4.90175
-5.17276
-4.67242
753.709
779.123
790.427
187.66
10.54
8.92201
8.1378
7.90797
7.87826
7.9075
7.97214
8.03152
-3.68565
-4.09608
-4.53391
-4.9131
-4.29784
-5.43242
-5.84272
622.614
817.215
818.263
394.872
9.97129
8.31934
7.1697
6.92551
6.93802
6.97609
7.03927
7.10468
-3.60058
-4.01181
-4.46208
-4.85012
-4.69143
-5.2982
-5.01837
269.611
850.48
846.602
850.077
98.4653
6.97729
5.84984
5.7704
5.90338
6.0153
6.10938
6.20848
-3.47479
-3.87927
-4.34105
-4.78664
-4.99934
-2.50771
-4.30036
-4.05574
853.677
869.923
870.452
301.864
3.92402
4.00453
4.47158
4.82255
5.05322
5.19957
5.35873
-3.30674
-3.69445
-4.15691
-4.65176
-5.01422
-3.86968
1.47585
-0.997967
479.434
901.007
898.193
293.313
2.60867
2.87725
3.20457
3.78488
4.14825
4.35414
4.57169
-3.09649
-3.45361
-3.89364
-4.40926
-4.89122
-4.96385
6.1488
13.9777
33.3169
645.909
568.547
155.807
4.19809
1.50432
2.21547
2.9184
3.36605
3.61469
3.86401
-2.848
-3.15974
-3.5481
-4.02316
-4.5355
-4.87243
1.51732
9.91986
11.1634
38.8683
28.2091
12.2778
0.991276
0.391542
1.46786
2.25966
2.73726
3.00459
3.24777
-2.57068
-2.8266
-3.14132
-3.52517
-3.95975
-4.34042
-2.88095
0.752541
1.26643
-1.97454
-1.50076
-3.64716
-1.95659
-0.00762329
1.05002
1.80467
2.25906
2.52149
2.72621
-2.27701
-2.47397
-2.70866
-2.9856
-3.29707
-3.60204
-3.20708
-2.30854
-2.64059
-3.25048
-3.12347
-2.78294
-1.36127
0.00768475
0.888782
1.51429
1.90874
2.14398
2.29143
-1.97918
-2.12056
-2.28119
-2.46075
-2.65203
-2.83109
-2.80222
-2.68473
-2.71578
-2.61946
-2.27209
-1.66986
-0.712545
0.192153
0.848563
1.32937
1.64947
1.8421
1.92843
-1.68687
-1.78012
-1.87871
-1.97973
-2.07575
-2.15308
-2.16624
-2.13604
-2.05036
-1.81749
-1.42101
-0.888397
-0.250057
0.354831
0.831157
1.19362
1.44216
1.5876
1.62074
-1.40699
-1.4611
-1.51153
-1.55453
-1.58365
-1.59092
-1.5636
-1.49609
-1.36597
-1.14089
-0.814344
-0.41234
0.030552
0.450492
0.799679
1.07149
1.25797
1.35988
1.3539
-1.14395
-1.16759
-1.18279
-1.18662
-1.17421
-1.14001
-1.0785
-0.982862
-0.843009
-0.648964
-0.400915
-0.111818
0.196728
0.491714
0.746
0.945912
1.08056
1.14649
1.11603
-0.900072
-0.900792
-0.89137
-0.871474
-0.83795
-0.786261
-0.712042
-0.612313
-0.483986
-0.325548
-0.139699
0.0660542
0.280114
0.485656
0.666348
0.808492
0.901135
0.93993
0.897256
-0.676793
-0.660961
-0.634123
-0.601667
-0.56239
-0.510958
-0.442359
-0.355501
-0.250565
-0.12914
0.00560847
0.149104
0.295095
0.434866
0.558468
0.655024
0.715295
0.735828
0.690093
-0.476574
-0.447305
-0.401418
-0.36178
-0.334686
-0.296015
-0.245779
-0.182948
-0.108337
-0.0242615
0.0662839
0.160245
0.254184
0.343499
0.422381
0.48338
0.519644
0.529414
0.487762
-0.297026
-0.249356
-0.165665
-0.118497
-0.127184
-0.120056
-0.10004
-0.0702558
-0.0318832
0.0133094
0.0630645
0.115179
0.167502
0.217538
0.26232
0.297588
0.318793
0.325322
0.292103
-0.116029
-0.0529802
0.0610603
0.0803384
0.0298316
0.00774296
-0.000290621
-0.00272415
-0.00101907
0.00436815
0.0128879
0.0238414
0.0363716
0.0495
0.0622252
0.0729649
0.0798967
0.0863157
0.0809609
)
;

boundaryField
{
    leftWall
    {
        type            fixedFluxPressure;
        gradient        uniform 0;
        value           nonuniform List<scalar> 
50
(
1009.81
1009.02
1007.3
1005.19
1002.88
1000.27
997.395
994.348
989.407
982.619
976.654
938.509
283.993
-1.27693
-0.829695
-0.881838
-0.880285
-0.908588
-0.942687
-0.979446
-1.01705
-1.05337
-1.08698
-1.11687
-1.14239
-1.1632
-1.17915
-1.1902
-1.19638
-1.19772
-1.19432
-1.18626
-1.17362
-1.15651
-1.13502
-1.10931
-1.07954
-1.04594
-1.00872
-0.968072
-0.924189
-0.877388
-0.827863
-0.774938
-0.717883
-0.657518
-0.596618
-0.531
-0.438776
-0.30862
)
;
    }
    rightWall
    {
        type            fixedFluxPressure;
        gradient        uniform 0;
        value           nonuniform List<scalar> 
50
(
29.5275
29.5256
29.5207
29.5127
29.5013
29.4863
29.4672
29.4438
29.3999
29.3153
29.1963
29.0315
28.8064
28.5027
28.0987
27.5711
26.8992
26.0704
25.0854
23.9595
22.7195
21.3987
20.0326
18.652
17.2788
15.9285
14.6159
13.3569
12.1637
11.0411
9.98587
8.98765
8.03152
7.10468
6.20848
5.35873
4.57169
3.86401
3.24777
2.72621
2.29143
1.92843
1.62074
1.3539
1.11603
0.897256
0.690093
0.487762
0.292103
0.0809609
)
;
    }
    lowerWall
    {
        type            fixedFluxPressure;
        gradient        uniform 0;
        value           nonuniform List<scalar> 
62
(
1009.81
1012.13
1022.72
1037.24
1051.15
1063.04
1072.56
1079.94
1085.58
1089.95
1093.6
1097.24
1101.84
1108.8
1120.17
1139.22
1168.94
1212.3
1268.72
1330.39
1382.39
1393.25
1439
1439
1438.99
1453.94
1475.61
1491.28
1486.05
1435.56
1305.9
298.798
353.164
482.526
524.55
29.8983
29.9023
29.9066
29.9113
29.9171
29.9246
29.9686
29.8608
29.8983
29.8726
29.8663
29.869
29.8883
29.9157
29.9402
29.9518
29.9462
29.9216
29.8797
29.8251
29.7638
29.702
29.645
29.5967
29.5598
29.5365
29.5275
)
;
    }
    atmosphere
    {
        type            totalPressure;
        rho             rho;
        psi             none;
        gamma           1;
        p0              uniform 0;
        value           nonuniform List<scalar> 
46
(
-0.290377
-0.43971
-0.410281
-0.401011
-0.394398
-0.389259
-0.38487
-0.380736
-0.376492
-0.371858
-0.366584
-0.36041
-0.353043
-0.344161
-0.333422
-0.320476
-0.304963
-0.286501
-0.264684
-0.239095
-0.209379
-0.175383
-0.137457
-0.107663
-0.0911904
-0.077612
-0.066492
-0.0502814
-0.0261403
-0.0102987
-0.000460661
0
0
0
0
0
0
0
0
0
0
0
0
0
0
0
)
;
    }
    defaultFaces
    {
        type            empty;
    }
}


// ************************************************************************* //
