/*--------------------------------*- C++ -*----------------------------------*\
  =========                 |
  \\      /  F ield         | OpenFOAM: The Open Source CFD Toolbox
   \\    /   O peration     | Website:  https://openfoam.org
    \\  /    A nd           | Version:  9
     \\/     M anipulation  |
\*---------------------------------------------------------------------------*/
FoamFile
{
    format      ascii;
    class       volScalarField;
    location    "0.35";
    object      p_rgh;
}
// * * * * * * * * * * * * * * * * * * * * * * * * * * * * * * * * * * * * * //

dimensions      [1 -1 -2 0 0 0 0];

internalField   nonuniform List<scalar> 
2268
(
2.38212
2.54684
2.48659
2.46283
2.42505
2.38359
2.34291
2.30432
2.2693
2.2373
2.20659
2.17552
2.14258
2.10466
2.05613
1.99145
1.90045
1.77994
1.64173
1.52848
1.49407
1.54881
1.62814
1.81797
2.54251
2.50138
2.47332
2.43121
2.38513
2.34141
2.30045
2.26309
2.22846
2.19511
2.16091
2.12436
2.08247
2.0297
1.96048
1.8667
1.74515
1.60872
1.49308
1.46417
1.5354
1.63509
-0.855822
2.56216
2.53313
2.48479
2.43771
2.38721
2.34031
2.2967
2.25659
2.21907
2.18306
2.1459
2.10591
2.06064
2.00455
1.93268
1.83851
1.71823
1.58524
1.47386
1.44038
1.50721
1.61804
-2.19107
2.59726
2.56488
2.4946
2.44299
2.3889
2.33925
2.29328
2.25077
2.21066
2.17232
2.13301
2.09048
2.04307
1.98543
1.91287
1.81993
1.70263
1.57175
1.46154
1.4235
1.4807
1.59173
-3.48689
2.62705
2.58779
2.50095
2.4467
2.3904
2.33864
2.29048
2.24584
2.20344
2.16294
2.12188
2.07749
2.02856
1.97042
1.89845
1.80815
1.69518
1.5676
1.45881
1.41927
1.46948
1.57887
-4.70235
2.63685
2.59519
2.50183
2.44859
2.39188
2.33863
2.28844
2.24171
2.19718
2.15452
2.11175
2.0659
2.01573
1.95755
1.88699
1.80046
1.69393
1.57266
1.46804
1.43218
1.48268
1.58314
-5.01978
2.61818
2.57675
2.49617
2.44903
2.3937
2.33943
2.28729
2.2384
2.19175
2.14693
2.10231
2.05518
2.00396
1.94594
1.87727
1.7953
1.69696
1.58544
1.48876
1.46108
1.51692
1.59899
2.45873
2.51557
2.52699
2.48747
2.4496
2.3964
2.34112
2.28702
2.23582
2.187
2.14003
2.09343
2.04507
1.993
1.93524
1.86872
1.79159
1.70201
1.60228
1.51626
1.49551
1.55347
1.61394
1.93621
1.91924
1.90307
1.88011
1.85713
1.83657
1.81896
1.804
1.79096
1.77924
1.76857
1.75886
1.75002
1.74182
1.73395
1.72624
1.71885
1.71297
1.7094
1.9372
1.92245
1.90842
1.88408
1.85905
1.83689
1.81824
1.80251
1.78889
1.77669
1.76569
1.75579
1.74689
1.73874
1.73107
1.72372
1.71696
1.71184
1.70897
1.94073
1.92562
1.91126
1.88616
1.85996
1.83666
1.81702
1.80046
1.78617
1.7735
1.76221
1.75221
1.74337
1.73544
1.72815
1.72138
1.71538
1.71106
1.70808
1.94682
1.92734
1.91041
1.88536
1.85887
1.83516
1.81499
1.79789
1.78314
1.77014
1.75871
1.74873
1.74007
1.73246
1.72562
1.71944
1.71409
1.71018
1.70686
1.95218
1.92724
1.90599
1.88179
1.8558
1.83236
1.81217
1.7949
1.77993
1.76681
1.75538
1.74553
1.73711
1.72984
1.72344
1.71776
1.71286
1.70904
1.70524
1.95331
1.92475
1.89816
1.87573
1.85098
1.8284
1.80862
1.79149
1.77657
1.76351
1.7522
1.74255
1.73437
1.72741
1.72138
1.71607
1.71142
1.70753
1.7032
1.94382
1.91717
1.88657
1.86723
1.84456
1.82335
1.80434
1.78767
1.77302
1.76022
1.74913
1.73971
1.73177
1.72505
1.71926
1.71417
1.70961
1.70555
1.70075
1.91297
1.89448
1.87068
1.85615
1.83662
1.81727
1.79937
1.78343
1.76928
1.75689
1.74613
1.73697
1.7292
1.72263
1.71696
1.71193
1.70734
1.70306
1.69786
1.64576
2.08088
2.46831
2.48633
2.45477
2.40211
2.34422
2.28679
2.23202
2.17995
2.12987
2.08053
2.03041
1.97757
1.9206
1.85767
1.78792
1.71107
1.62988
1.56224
1.54754
1.60247
1.65863
-43.4637
2.16516
2.67259
2.57822
2.49343
2.41885
2.34982
2.28546
2.22548
2.16904
2.11508
2.06254
2.0101
1.95643
1.9005
1.84154
1.77967
1.71621
1.65547
1.60984
1.59827
1.62427
1.65827
-177.264
2.92824
2.83778
2.63594
2.51819
2.42908
2.35134
2.28103
2.2165
2.1562
2.09891
2.04361
1.98934
1.9352
1.88062
1.82547
1.77036
1.71699
1.66932
1.6354
1.62412
1.63464
1.65212
-211.121
2.68542
2.7691
2.61307
2.50971
2.42266
2.34316
2.27003
2.20245
2.13925
2.07934
2.02194
1.96641
1.91224
1.8592
1.80751
1.75802
1.7124
1.6737
1.64666
1.63539
1.63914
1.65132
-241.447
2.59081
2.69682
2.57252
2.48438
2.4032
2.32514
2.25125
2.18187
2.11658
2.05477
1.99594
1.93975
1.88597
1.83461
1.78603
1.7411
1.70123
1.66859
1.64582
1.63479
1.63534
1.64434
-274.935
2.55677
2.64341
2.53382
2.45275
2.3753
2.29873
2.22469
2.15413
2.0873
2.0241
1.96437
1.90804
1.85506
1.80554
1.75985
1.71875
1.68337
1.65516
1.63556
1.62541
1.6249
1.63236
-307.628
2.52143
2.58912
2.493
2.41625
2.34067
2.26478
2.19046
2.11891
2.05085
1.98662
1.92639
1.87029
1.81843
1.77091
1.72801
1.69033
1.65871
1.63408
1.61716
1.60827
1.60776
1.61449
-338.497
2.48625
2.53341
2.45
2.37544
2.29985
2.22354
2.14846
2.07591
2.00679
1.9418
1.88138
1.82581
1.77529
1.72991
1.68982
1.65539
1.62718
1.60574
1.59138
1.5841
1.58419
1.5908
-368.402
2.46778
2.48095
2.40645
2.33023
2.25235
2.17449
2.09823
2.02466
1.95471
1.88925
1.82892
1.77413
1.72516
1.68206
1.64486
1.61367
1.58881
1.57052
1.55883
1.55354
1.55484
1.56195
-321.635
2.46143
2.43711
2.36039
2.27741
2.19575
2.11606
2.03875
1.96451
1.89414
1.82859
1.76869
1.71497
1.66776
1.62713
1.59297
1.56519
1.54378
1.52878
1.52002
1.51718
1.52032
1.52866
-16.0131
2.43533
2.41137
2.30404
2.20968
2.12597
2.04595
1.96871
1.89469
1.82464
1.7596
1.70056
1.64824
1.60305
1.56509
1.5342
1.51004
1.49234
1.48088
1.47534
1.47533
1.48087
1.49114
-47.8946
2.19401
2.30956
2.19919
2.11599
2.03956
1.96277
1.88747
1.81492
1.74612
1.68228
1.62462
1.57408
1.53117
1.49608
1.46861
1.4483
1.43457
1.42693
1.4249
1.42801
1.43628
1.44895
-724.709
2.06368
2.24945
2.08862
2.01051
1.94096
1.86842
1.79608
1.72589
1.65909
1.59708
1.54126
1.49281
1.45239
1.42029
1.39632
1.37994
1.37036
1.36679
1.36854
1.37499
1.38619
1.40145
-1268.74
1.79585
2.16128
1.96962
1.89785
1.83404
1.7655
1.69641
1.62902
1.56467
1.50484
1.45113
1.40493
1.36708
1.33796
1.31744
1.30493
1.29953
1.30019
1.30598
1.31607
1.3304
1.34839
-1352.78
1.6998
2.03808
1.84621
1.78181
1.72203
1.65678
1.59077
1.52618
1.46431
1.4067
1.35507
1.31101
1.27561
1.24936
1.23217
1.2234
1.22206
1.227
1.23706
1.25117
1.26904
1.29009
-1430.34
1.63234
1.90961
1.72631
1.6652
1.60767
1.54507
1.48169
1.41948
1.35971
1.30397
1.25407
1.21178
1.17849
1.15486
1.14082
1.13566
1.13831
1.14753
1.16199
1.18049
1.20244
1.22712
-1529.9
1.52867
1.77349
1.6034
1.54665
1.49266
1.43296
1.37177
1.31126
1.2528
1.19817
1.14935
1.1083
1.0766
1.05514
1.04398
1.04231
1.04893
1.06247
1.08149
1.10462
1.1311
1.15995
-1744.41
1.37838
1.6251
1.47303
1.42634
1.37927
1.3234
1.26405
1.20428
1.14597
1.09132
1.04265
1.00208
0.971363
0.951512
0.942725
0.944243
0.954762
0.972726
0.996499
1.02452
1.0558
1.08914
-2049.17
1.13549
1.45071
1.34005
1.30985
1.27229
1.22087
1.16254
1.10207
1.04233
0.986116
0.936238
0.895157
0.864637
0.845671
0.838568
0.842708
0.856803
0.879155
0.907911
0.94116
0.977536
1.01566
-2344.17
-3.54631
1.23996
1.22692
1.21109
1.18003
1.13205
1.07258
1.00898
0.945573
0.885564
0.832672
0.7899
0.758374
0.73937
0.733127
0.739155
0.756284
0.782765
0.816551
0.855374
0.897333
0.940717
-2603.53
-38.9116
1.08632
1.17745
1.14567
1.11295
1.06467
1.00039
0.930132
0.859835
0.793601
0.735656
0.688928
0.654714
0.634306
0.627924
0.635053
0.654573
0.684776
0.723452
0.768018
0.816046
0.865319
-2855.27
-201.497
1.02631
1.17087
1.10629
1.07747
1.02539
0.952683
0.871396
0.789903
0.714253
0.648379
0.595092
0.555966
0.532389
0.524505
0.531778
0.553007
0.586446
0.62975
0.680033
0.734391
0.790042
-3091.52
-904.135
1.11122
1.17198
1.09786
1.0733
1.02076
0.936606
0.840186
0.742212
0.652031
0.574413
0.511069
0.464522
0.435741
0.424656
0.430739
0.452738
0.488781
0.536334
0.592172
0.6529
0.715162
-3277.24
-2185.72
0.380921
-0.228856
0.935141
1.11596
1.04832
0.96473
0.845844
0.724442
0.612922
0.517151
0.439532
0.382504
0.346569
0.330281
0.333493
0.354932
0.392625
0.443816
0.504893
0.57193
0.640995
-3412.27
-2968.59
-16.6002
-13.3802
-1.82385
0.873918
1.17439
1.04891
0.895224
0.742359
0.602776
0.480928
0.375687
0.311196
0.26734
0.243424
0.241777
0.261028
0.299092
0.352981
0.418717
0.491884
0.567999
-3515.73
-3256.64
-215.253
-7.20247
-0.54571
0.779502
1.30393
1.18379
0.983273
0.793812
0.622753
0.469837
0.342206
0.255467
0.200805
0.166342
0.1577
0.172963
0.209853
0.265136
0.334538
0.413291
0.496429
-3578.94
-3410.52
-1491.27
0.0542975
1.90111
1.63257
1.48858
1.34849
1.09674
0.86968
0.669434
0.481013
0.333167
0.22535
0.150025
0.101556
0.0841408
0.0934393
0.127237
0.182064
0.253498
0.336623
0.42613
-3592.38
-3529.57
-3295.01
-299.335
2.54385
1.84406
1.66034
1.23677
0.853266
0.95106
0.743556
0.528122
0.351307
0.222324
0.119039
0.0533262
0.0250984
0.0261922
0.054365
0.106034
0.176887
0.262259
0.356885
-3557.86
-3611.81
-3712.87
-2196.11
-304.646
2.04882
1.81657
1.34261
0.99343
1.08565
0.850596
0.614563
0.401387
0.244923
0.114432
0.0283993
-0.0147029
-0.0240135
-0.00476243
0.0401151
0.106542
0.190968
0.288799
-3479.33
-3533.47
-3623.36
-3754.7
-2588.34
-847.134
2.08996
1.96269
1.49239
1.24239
0.989144
0.735261
0.499748
0.302235
-0.124193
-0.0172838
-0.0323881
-0.0540493
-0.0439902
-0.0114251
0.045216
0.124304
0.222393
-3342.52
-3390.37
-3480.36
-3636.42
-3814.09
-3464.32
-1629.92
0.991901
1.99898
1.38647
1.13847
0.892308
0.630822
0.324715
-0.109721
-0.175021
-0.0381232
-0.0478623
-0.0561306
-0.0439503
-0.00441936
0.0634049
0.157777
-3159.92
-3201.57
-3288.47
-3432.58
-3620.8
-3843.56
-3939.21
-1793.95
-0.739544
1.66866
1.34725
1.0652
0.792496
0.503775
-0.0136148
-0.171443
-0.0809417
0.00380546
-0.0340022
-0.0530709
-0.0417041
0.0063861
0.0923043
-2940.28
-2975.98
-3059.2
-3194.75
-3380.15
-3607.93
-3880.79
-4084.89
-1926.72
-2.2694
1.60002
1.30603
0.939051
0.660925
0.186478
-0.0370382
0.000552146
0.103543
0.0282221
-0.0357348
-0.0684387
-0.0519452
0.0195915
-2690.51
-2720.19
-2800.32
-2928.78
-3108.68
-3336.25
-3610.36
-3934.18
-4213.93
-2208.71
-6.34891
0.911238
1.14
0.751795
0.53821
0.368784
0.319658
0.25603
0.13783
0.00739869
-0.0923006
-0.122331
-0.0695953
-2416.98
-2440.38
-2517.79
-2640.6
-2814.4
-3039.46
-3313.87
-3635.82
-4001.68
-4357.16
-2826.12
-194.837
-0.10073
0.791375
0.744271
0.680123
0.636641
0.51696
0.317941
0.0746452
-0.127768
-0.230831
-0.201836
-2125.67
-2142.45
-2216.92
-2335.2
-2503.65
-2725.51
-3000.28
-3324.89
-3691.36
-4088.32
-4477.75
-3467.42
-584.945
-3.23583
0.251752
0.923883
1.19028
1.08752
0.733853
0.209083
-0.181623
-0.397009
-0.422505
-1822.28
-1831.45
-1901.75
-2016.03
-2180.16
-2399.88
-2676.58
-3008.82
-3387.29
-3792.28
-4205.54
-4589.74
-4264.48
-2090.35
-47.0169
-2.12631
0.252666
1.10149
1.06964
0.154089
-0.595783
-0.850981
-0.822276
-1512.91
-1511.49
-1574.94
-1685.09
-1845.35
-2064.28
-2346.81
-2695.25
-3099.73
-3525.71
-3954.27
-4351.23
-4687.05
-4862.61
-4179.33
-1876.54
-223.143
-44.1295
-33.981
-23.6902
-17.1264
-12.2619
-6.64243
-1203.55
-1183.11
-1236.61
-1342.73
-1498.18
-1715.72
-2007.86
-2386.71
-2847.39
-3298.9
-3761.46
-4158.2
-4449.1
-4713.2
-4915.42
-4966.27
-4744.32
-3502.58
-1664.75
-874.982
-567.402
-301.943
-159.706
-903.742
-841.126
-888.297
-991.363
-1136.61
-1346.47
-1646.14
-2074.03
-2662.36
-3121.37
-3651.4
-4071.94
-4221.91
-4442.49
-4582.08
-4500.69
-4449.38
-4600.99
-4897.51
-5096.48
-4832.23
-3607.25
-1690.75
-603.386
-444.863
-532.589
-635.527
-759.739
-949.964
-1246.28
-1739.09
-2692.58
-2941.83
-3707.29
-4234.7
-3932.02
-4261.03
-4403.2
-3823.51
-3410.42
-3509.9
-3992.31
-4772.76
-5243.64
-5342.13
-5080.09
-175.05
-162.209
-289.855
-325.759
-384.2
-507.435
-739.036
-1375.3
-3739.26
-2156.84
-4548.8
-4760.61
-2563.11
-4472.81
-4237.17
-1688.83
-1093.41
-1050.12
-942.505
-1494
-2051.16
-2274
-2005.94
1.624
1.58489
1.52557
1.51678
1.67803
1.69057
1.70352
1.72554
1.66398
1.67463
1.69185
1.71725
1.66553
1.67642
1.68887
1.7043
1.6571
1.66719
1.67803
1.69003
1.64402
1.65308
1.66241
1.67243
1.62514
1.63336
1.64175
1.65078
1.60088
1.60871
1.61677
1.62551
1.57207
1.57998
1.58818
1.59706
1.53949
1.54786
1.55646
1.56564
1.50328
1.51236
1.52148
1.531
1.46279
1.47282
1.48259
1.49256
1.41717
1.42831
1.43903
1.44976
1.36599
1.3784
1.39038
1.40228
1.30968
1.32342
1.33688
1.35025
1.24903
1.26425
1.27924
1.29418
1.18458
1.20149
1.21814
1.23472
1.11676
1.13557
1.1541
1.17254
1.04646
1.06736
1.08802
1.10855
0.975015
0.998201
1.02117
1.0439
0.903623
0.929318
0.954664
0.979596
0.832821
0.861266
0.889088
0.916247
0.762699
0.794114
0.824647
0.854244
0.693506
0.728081
0.761607
0.793933
0.625849
0.663789
0.700469
0.735654
0.559913
0.601381
0.641285
0.679388
0.49502
0.539903
0.583119
0.624506
0.430717
0.478764
0.525373
0.570526
0.367221
0.418378
0.468337
0.517286
0.304302
0.358086
0.411068
0.463719
0.241415
0.296522
0.351687
0.408148
0.176321
0.231755
0.288316
0.348586
0.101828
0.156762
0.214657
0.279481
0.00835801
0.0593992
0.116764
0.187598
-0.119967
-0.0766181
-0.0301482
0.0449615
-0.345264
-0.31356
-0.292138
-0.214179
-0.703455
-0.608604
-0.620014
-1.04931
-4.46983
-4.46972
-7.52769
-10.4506
-121.463
-95.3457
-58.5789
-20.9674
-442.578
-281.194
-184.425
-57.7456
-4014.97
-1268.62
-236.078
-77.015
-1401.93
-624.192
-91.3326
-17.4378
1.74482
1.82855
1.84145
1.83616
1.82249
1.80653
1.79073
1.77613
1.76296
1.7513
1.7411
1.73232
1.72479
1.71834
1.71272
1.70766
1.70294
1.6983
1.69268
1.77629
1.79706
1.81115
1.81107
1.80241
1.79027
1.77722
1.76452
1.7527
1.742
1.73249
1.72413
1.71685
1.71049
1.70484
1.69966
1.69474
1.68977
1.68377
1.75804
1.77431
1.7849
1.78637
1.78109
1.77218
1.76172
1.75096
1.74058
1.73092
1.72211
1.71419
1.70711
1.70077
1.69502
1.68965
1.6845
1.67928
1.67305
1.73061
1.74822
1.75873
1.7616
1.75879
1.75243
1.7442
1.73524
1.72627
1.71767
1.70963
1.70219
1.69534
1.68904
1.68318
1.67764
1.67229
1.6669
1.66054
1.70896
1.72406
1.73355
1.73699
1.73567
1.73109
1.72459
1.71719
1.70955
1.70204
1.69483
1.68796
1.68142
1.67521
1.66932
1.66367
1.65819
1.65268
1.64624
1.68788
1.70053
1.70868
1.71206
1.7115
1.70809
1.70289
1.6968
1.69041
1.68401
1.67769
1.67146
1.66532
1.65929
1.65345
1.64777
1.64222
1.63662
1.63014
1.66469
1.67588
1.68305
1.68623
1.68608
1.68344
1.67925
1.67429
1.66904
1.6637
1.65829
1.65274
1.64705
1.6413
1.63559
1.62995
1.62436
1.61871
1.61221
1.6389
1.6494
1.65607
1.65916
1.65932
1.6573
1.65395
1.64996
1.64573
1.64135
1.63676
1.63186
1.62665
1.62122
1.61572
1.61018
1.60456
1.59889
1.59242
1.61049
1.62087
1.62747
1.6307
1.63124
1.62982
1.62724
1.62411
1.62074
1.61716
1.61324
1.60889
1.60412
1.59905
1.5938
1.58836
1.58276
1.57711
1.57073
1.57935
1.59005
1.59699
1.60068
1.60181
1.6011
1.59929
1.59693
1.59425
1.59125
1.58782
1.58389
1.5795
1.57477
1.56975
1.56444
1.5589
1.55335
1.54712
1.54513
1.55657
1.56431
1.56886
1.57089
1.57108
1.5701
1.56844
1.56629
1.56368
1.56055
1.55692
1.55284
1.54839
1.54358
1.53839
1.53297
1.52759
1.52157
1.50737
1.52001
1.52902
1.53488
1.53819
1.53953
1.53949
1.5385
1.53678
1.53442
1.53147
1.52804
1.5242
1.51997
1.51532
1.51028
1.50503
1.49988
1.49412
1.46568
1.48003
1.49078
1.49837
1.50332
1.50607
1.50712
1.50685
1.50554
1.50338
1.50059
1.49733
1.49369
1.48963
1.48512
1.48024
1.4752
1.4703
1.46487
1.4199
1.43646
1.44937
1.45907
1.46596
1.47036
1.47266
1.47321
1.47238
1.47051
1.46794
1.4649
1.46145
1.45755
1.45318
1.44846
1.44363
1.43897
1.43392
1.37006
1.3893
1.40476
1.41687
1.42594
1.43218
1.43589
1.43743
1.43726
1.43585
1.43365
1.43092
1.4277
1.42396
1.41973
1.41517
1.41051
1.40607
1.4014
1.31647
1.3388
1.35714
1.37191
1.38335
1.39158
1.39684
1.39955
1.40025
1.39952
1.39787
1.39556
1.39264
1.3891
1.38504
1.38061
1.37606
1.37179
1.3675
1.25971
1.28547
1.30693
1.32455
1.33849
1.3488
1.35572
1.35974
1.3615
1.36165
1.3607
1.35892
1.35637
1.3531
1.34923
1.34492
1.34045
1.33631
1.3324
1.20053
1.23001
1.25479
1.27536
1.29183
1.30424
1.31286
1.31829
1.32123
1.32238
1.32222
1.32102
1.31889
1.31594
1.31231
1.30814
1.30376
1.29975
1.29625
1.13984
1.17324
1.20146
1.225
1.24398
1.25845
1.26877
1.27563
1.27981
1.28198
1.2826
1.28195
1.28022
1.27758
1.27418
1.27018
1.26596
1.26211
1.25907
1.07861
1.11604
1.14774
1.17423
1.19568
1.21216
1.22415
1.23241
1.23777
1.24089
1.2422
1.24199
1.24054
1.2381
1.23485
1.23101
1.227
1.22337
1.2208
1.01769
1.0592
1.09441
1.12386
1.14772
1.16616
1.17973
1.18929
1.1957
1.19961
1.20144
1.20152
1.20018
1.19774
1.19448
1.19072
1.18691
1.18351
1.1814
0.957789
1.00348
1.0422
1.07457
1.10079
1.12109
1.1361
1.14675
1.15396
1.15841
1.16054
1.16073
1.15933
1.15671
1.15328
1.14948
1.14581
1.14258
1.1409
0.899489
0.949493
0.991752
1.02693
1.05536
1.07732
1.09353
1.10498
1.11265
1.11731
1.11947
1.11958
1.11796
1.11504
1.11133
1.10739
1.10378
1.10065
1.09936
0.843235
0.897748
0.943539
0.981401
1.01182
1.03522
1.05234
1.06422
1.07193
1.07637
1.07821
1.07795
1.07595
1.07262
1.06856
1.06442
1.06081
1.05771
1.05679
0.789268
0.848595
0.89802
0.938482
0.970728
0.99533
1.01307
1.02499
1.03226
1.03596
1.03699
1.03597
1.03328
1.02938
1.0249
1.02051
1.01684
1.01375
1.01316
0.737637
0.802416
0.855824
0.898909
0.932785
0.958308
0.976316
0.987864
0.994202
0.996626
0.996273
0.993951
0.990162
0.985412
0.980341
0.9756
0.971828
0.968727
0.968419
0.688237
0.759606
0.817731
0.863583
0.898778
0.924713
0.942461
0.953127
0.958019
0.95863
0.956341
0.952167
0.946793
0.94083
0.934924
0.929666
0.925725
0.922544
0.922493
0.640777
0.720234
0.784264
0.833319
0.869506
0.895111
0.911734
0.920828
0.923675
0.921918
0.917158
0.910622
0.903198
0.895627
0.888594
0.882626
0.878475
0.875023
0.875225
0.594591
0.683957
0.755668
0.80892
0.846032
0.870509
0.884668
0.891261
0.891252
0.886436
0.8786
0.869169
0.859234
0.849684
0.841209
0.834305
0.829627
0.826217
0.826356
0.548637
0.650382
0.732329
0.791468
0.829767
0.851981
0.862713
0.86516
0.861077
0.852263
0.840589
0.827649
0.814708
0.802774
0.792546
0.784484
0.779195
0.775781
0.775525
0.501802
0.619248
0.714833
0.78228
0.822429
0.841452
0.846632
0.843054
0.833333
0.81933
0.802909
0.785771
0.76931
0.754596
0.742313
0.732867
0.726828
0.72316
0.72287
0.452507
0.590379
0.703834
0.782373
0.82536
0.840183
0.837422
0.825298
0.807927
0.787301
0.765126
0.74307
0.722579
0.70472
0.690115
0.679096
0.672194
0.668055
0.668042
0.3972
0.563372
0.700264
0.793015
0.839834
0.849306
0.835874
0.812084
0.784537
0.755569
0.726524
0.698843
0.673876
0.652584
0.635469
0.622759
0.614953
0.610169
0.61061
0.327544
0.537756
0.706204
0.81614
0.867094
0.869501
0.842171
0.803052
0.762359
0.723125
0.686074
0.652143
0.622387
0.597514
0.577825
0.56341
0.554767
0.549187
0.550279
0.227951
0.51471
0.726473
0.854637
0.908044
0.900444
0.855336
0.796795
0.739724
0.688296
0.64229
0.601726
0.567103
0.538719
0.516569
0.500573
0.491278
0.484766
0.486925
0.0405
0.503016
0.774672
0.913016
0.962551
0.939906
0.872447
0.790297
0.713783
0.648581
0.593133
0.546013
0.506839
0.475318
0.451041
0.433721
0.424026
0.416364
0.420421
-0.666085
0.542215
0.868404
0.993651
1.02671
0.982145
0.887644
0.778256
0.680066
0.600453
0.535943
0.483051
0.440194
0.406323
0.380531
0.362287
0.352464
0.343271
0.350574
-2.45579
0.657405
0.984757
1.08163
1.08775
1.01566
0.890784
0.752256
0.632124
0.539268
0.467468
0.41059
0.365636
0.330722
0.304393
0.285884
0.276386
0.265228
0.277482
-3.10132
0.436974
1.01788
1.1346
1.11981
1.02127
0.86659
0.700668
0.561947
0.460021
0.384643
0.326771
0.282088
0.247967
0.222481
0.204748
0.196317
0.182549
0.201763
-7.92795
-0.688424
0.848071
1.10793
1.08798
0.969077
0.795416
0.611028
0.461933
0.359101
0.286015
0.231261
0.189834
0.158677
0.135613
0.119721
0.112227
0.0930858
0.125675
-17.3973
-2.97838
0.34319
0.948199
0.961671
0.829322
0.660024
0.472665
0.323266
0.231467
0.168685
0.122301
0.0877082
0.0619441
0.0429021
0.0293439
0.0199155
-0.0120965
0.055989
-7.69927
-1.53494
0.601858
0.909356
0.820628
0.621985
0.412274
0.246066
0.117383
0.0551281
0.0141416
-0.016169
-0.0388474
-0.0558746
-0.0687474
-0.07902
-0.0911069
-0.138525
-0.00774856
)
;

boundaryField
{
    leftWall
    {
        type            fixedFluxPressure;
        gradient        uniform 0;
        value           nonuniform List<scalar> 
50
(
2.38212
1.81797
-0.855822
-2.19107
-3.48689
-4.70235
-5.01978
2.45873
1.64576
-43.4637
-177.264
-211.121
-241.447
-274.935
-307.628
-338.497
-368.402
-321.635
-16.0131
-47.8946
-724.709
-1268.74
-1352.78
-1430.34
-1529.9
-1744.41
-2049.17
-2344.17
-2603.53
-2855.27
-3091.52
-3277.24
-3412.27
-3515.73
-3578.94
-3592.38
-3557.86
-3479.33
-3342.52
-3159.92
-2940.28
-2690.51
-2416.98
-2125.67
-1822.28
-1512.91
-1203.55
-903.742
-603.386
-175.05
)
;
    }
    rightWall
    {
        type            fixedFluxPressure;
        gradient        uniform 0;
        value           nonuniform List<scalar> 
50
(
1.7094
1.70897
1.70808
1.70686
1.70524
1.7032
1.70075
1.69786
1.69268
1.68377
1.67305
1.66054
1.64624
1.63014
1.61221
1.59242
1.57073
1.54712
1.52157
1.49412
1.46487
1.43392
1.4014
1.3675
1.3324
1.29625
1.25907
1.2208
1.1814
1.1409
1.09936
1.05679
1.01316
0.968419
0.922493
0.875225
0.826356
0.775525
0.72287
0.668042
0.61061
0.550279
0.486925
0.420421
0.350574
0.277482
0.201763
0.125675
0.055989
-0.00774856
)
;
    }
    lowerWall
    {
        type            fixedFluxPressure;
        gradient        uniform 0;
        value           nonuniform List<scalar> 
62
(
2.38212
2.54684
2.48659
2.46283
2.42505
2.38359
2.34291
2.30432
2.2693
2.2373
2.20659
2.17552
2.14258
2.10466
2.05613
1.99145
1.90045
1.77994
1.64173
1.52848
1.49407
1.54881
1.62814
1.62814
1.63509
1.61804
1.59173
1.57887
1.58314
1.59899
1.61394
1.624
1.58489
1.52557
1.51678
1.93621
1.9372
1.94073
1.94682
1.95218
1.95331
1.94382
1.91297
1.93621
1.91924
1.90307
1.88011
1.85713
1.83657
1.81896
1.804
1.79096
1.77924
1.76857
1.75886
1.75002
1.74182
1.73395
1.72624
1.71885
1.71297
1.7094
)
;
    }
    atmosphere
    {
        type            totalPressure;
        rho             rho;
        psi             none;
        gamma           1;
        p0              uniform 0;
        value           nonuniform List<scalar> 
46
(
0
0
0
0
0
0
0
-3.75263
0
-0.898847
0
0
-0.276634
0
0
-14.438
-24.349
-20.1835
-22.6817
0
0
-0.0224595
-0.022324
-0.00466513
0
0
0
-0.00698901
-0.0045198
0
0
0
0
0
-0.0133289
-0.0389978
-0.0639315
-0.0853953
-0.102914
-0.116815
-0.127669
-0.136083
-0.14276
-0.14847
-0.16113
-0.0798169
)
;
    }
    defaultFaces
    {
        type            empty;
    }
}


// ************************************************************************* //
