/*--------------------------------*- C++ -*----------------------------------*\
  =========                 |
  \\      /  F ield         | OpenFOAM: The Open Source CFD Toolbox
   \\    /   O peration     | Website:  https://openfoam.org
    \\  /    A nd           | Version:  9
     \\/     M anipulation  |
\*---------------------------------------------------------------------------*/
FoamFile
{
    format      ascii;
    class       surfaceScalarField;
    location    "0.35";
    object      phi;
}
// * * * * * * * * * * * * * * * * * * * * * * * * * * * * * * * * * * * * * //

dimensions      [0 3 -1 0 0 0 0];

internalField   nonuniform List<scalar> 
4432
(
-3.94074e-05
3.94074e-05
-4.25843e-05
3.1769e-06
-3.60578e-05
-6.52653e-06
-3.99132e-05
3.85538e-06
-4.37364e-05
3.82312e-06
-4.66355e-05
2.89921e-06
-4.77518e-05
1.11615e-06
-4.69292e-05
-8.22593e-07
-4.4604e-05
-2.32522e-06
-4.10525e-05
-3.55146e-06
-3.63183e-05
-4.73433e-06
-3.03518e-05
-5.96641e-06
-2.2991e-05
-7.36086e-06
-1.39798e-05
-9.01127e-06
-3.04393e-06
-1.09359e-05
9.87882e-06
-1.29228e-05
2.4427e-05
-1.45482e-05
3.89829e-05
-1.45559e-05
5.04643e-05
-1.14813e-05
5.33777e-05
-2.9135e-06
4.12287e-05
1.2149e-05
1.78488e-05
2.33799e-05
1.78488e-05
-2.74637e-05
6.68711e-05
-4.07321e-05
1.64453e-05
-4.57579e-05
-1.5008e-06
-4.98249e-05
7.9224e-06
-5.31356e-05
7.13367e-06
-5.47728e-05
4.53655e-06
-5.49261e-05
1.26933e-06
-5.38563e-05
-1.8924e-06
-5.15833e-05
-4.59838e-06
-4.8124e-05
-7.01062e-06
-4.35281e-05
-9.33034e-06
-3.7773e-05
-1.17216e-05
-3.07519e-05
-1.4382e-05
-2.23012e-05
-1.7462e-05
-1.22891e-05
-2.0948e-05
-6.47138e-07
-2.45648e-05
1.22168e-05
-2.7412e-05
2.51123e-05
-2.74515e-05
3.56924e-05
-2.20613e-05
4.16441e-05
-8.86531e-06
3.97044e-05
1.40888e-05
2.36842e-05
3.93998e-05
4.15331e-05
-2.03185e-05
8.71896e-05
-3.64538e-05
3.25806e-05
-4.66726e-05
8.71799e-06
-5.18501e-05
1.30999e-05
-5.54196e-05
1.07031e-05
-5.73552e-05
6.47217e-06
-5.78976e-05
1.81171e-06
-5.71844e-05
-2.60559e-06
-5.52645e-05
-6.51834e-06
-5.22079e-05
-1.00672e-05
-4.80834e-05
-1.34549e-05
-4.29068e-05
-1.68982e-05
-3.66336e-05
-2.06552e-05
-2.91724e-05
-2.49232e-05
-2.0444e-05
-2.96764e-05
-1.04433e-05
-3.45656e-05
5.19623e-07
-3.83749e-05
1.16759e-05
-3.86079e-05
2.10641e-05
-3.14495e-05
2.63856e-05
-1.41869e-05
2.66908e-05
1.37838e-05
1.81704e-05
4.79201e-05
5.97036e-05
-1.65588e-05
0.000103748
-3.40572e-05
5.0079e-05
-4.61186e-05
2.07793e-05
-5.23084e-05
1.92898e-05
-5.63224e-05
1.4717e-05
-5.86934e-05
8.84324e-06
-5.96853e-05
2.80355e-06
-5.94177e-05
-2.87311e-06
-5.79739e-05
-7.96229e-06
-5.54556e-05
-1.25853e-05
-5.1956e-05
-1.69545e-05
-4.75338e-05
-2.13204e-05
-4.22137e-05
-2.59753e-05
-3.59766e-05
-3.11603e-05
-2.88018e-05
-3.68512e-05
-2.06898e-05
-4.26777e-05
-1.17773e-05
-4.72873e-05
-2.62074e-06
-4.77645e-05
5.56325e-06
-3.96334e-05
1.09185e-05
-1.95423e-05
1.26517e-05
1.20507e-05
9.78445e-06
5.07872e-05
6.9488e-05
-1.36874e-05
0.000117436
-3.25286e-05
6.89202e-05
-4.54137e-05
3.36643e-05
-5.21989e-05
2.60751e-05
-5.65825e-05
1.91006e-05
-5.93573e-05
1.1618e-05
-6.07958e-05
4.24203e-06
-6.10117e-05
-2.65718e-06
-6.01017e-05
-8.87236e-06
-5.81871e-05
-1.44999e-05
-5.53883e-05
-1.97533e-05
-5.1807e-05
-2.49018e-05
-4.75351e-05
-3.02472e-05
-4.26345e-05
-3.6061e-05
-3.71569e-05
-4.23287e-05
-3.11363e-05
-4.86983e-05
-2.45912e-05
-5.38323e-05
-1.76314e-05
-5.47244e-05
-1.07552e-05
-4.65095e-05
-5.16994e-06
-2.51276e-05
-1.54147e-06
8.42232e-06
1.1125e-06
4.81331e-05
7.06005e-05
-1.29879e-05
0.000130424
-3.21914e-05
8.81237e-05
-4.49807e-05
4.64536e-05
-5.17975e-05
3.28919e-05
-5.63944e-05
2.36975e-05
-5.95235e-05
1.47472e-05
-6.13952e-05
6.11372e-06
-6.21024e-05
-1.9498e-06
-6.17435e-05
-9.23134e-06
-6.04508e-05
-1.57925e-05
-5.83696e-05
-2.18344e-05
-5.5641e-05
-2.76303e-05
-5.24142e-05
-3.34739e-05
-4.88316e-05
-3.96437e-05
-4.50292e-05
-4.61311e-05
-4.11141e-05
-5.26135e-05
-3.70702e-05
-5.78762e-05
-3.26559e-05
-5.91387e-05
-2.74883e-05
-5.16771e-05
-2.1689e-05
-3.09269e-05
-1.59468e-05
2.68014e-06
-8.95319e-06
4.11395e-05
6.16474e-05
-1.52231e-05
0.000145647
-3.39626e-05
0.000106863
-4.49058e-05
5.73968e-05
-5.11252e-05
3.91113e-05
-5.58099e-05
2.83822e-05
-5.92709e-05
1.82082e-05
-6.15712e-05
8.41394e-06
-6.27667e-05
-7.54202e-07
-6.29532e-05
-9.04486e-06
-6.22701e-05
-1.64755e-05
-6.08814e-05
-2.32231e-05
-5.89619e-05
-2.95499e-05
-5.67005e-05
-3.57353e-05
-5.43052e-05
-4.2039e-05
-5.19871e-05
-4.84493e-05
-4.99393e-05
-5.46613e-05
-4.8199e-05
-5.96165e-05
-4.63666e-05
-6.09712e-05
-4.33327e-05
-5.47109e-05
-3.78284e-05
-3.64312e-05
-2.9359e-05
-5.78926e-06
-1.68886e-05
2.86691e-05
4.47587e-05
-2.27203e-05
0.000168367
-3.76848e-05
0.000121828
-4.45399e-05
6.42519e-05
-4.99894e-05
4.45608e-05
-5.48161e-05
3.32089e-05
-5.86548e-05
2.20469e-05
-6.14014e-05
1.11606e-05
-6.30854e-05
9.29932e-07
-6.38032e-05
-8.32709e-06
-6.37017e-05
-1.6577e-05
-6.29577e-05
-2.39671e-05
-6.17686e-05
-3.0739e-05
-6.03468e-05
-3.71571e-05
-5.89384e-05
-4.34474e-05
-5.77965e-05
-4.95911e-05
-5.71688e-05
-5.52891e-05
-5.71595e-05
-5.96257e-05
-5.74e-05
-6.07307e-05
-5.65278e-05
-5.55831e-05
-5.21796e-05
-4.07794e-05
-4.21432e-05
-1.58256e-05
-2.45658e-05
1.10916e-05
2.0193e-05
5.02812e-06
-5.02812e-06
3.03973e-07
4.72414e-06
-6.71914e-06
7.02309e-06
-1.22324e-05
5.51323e-06
-1.58664e-05
3.63398e-06
-1.76886e-05
1.82225e-06
-1.80832e-05
3.94618e-07
-1.74937e-05
-5.89535e-07
-1.62914e-05
-1.20228e-06
-1.46769e-05
-1.61459e-06
-1.27651e-05
-1.9118e-06
-1.06309e-05
-2.13422e-06
-8.32667e-06
-2.30425e-06
-5.90427e-06
-2.42242e-06
-3.42505e-06
-2.47927e-06
-1.03591e-06
-2.38914e-06
8.72022e-07
-1.90793e-06
1.6022e-06
-7.30172e-07
1.60224e-06
-1.48237e-07
-4.87992e-06
-5.78547e-06
1.03614e-05
-1.18833e-05
1.31209e-05
-1.6215e-05
9.84492e-06
-1.86435e-05
6.06254e-06
-1.96194e-05
2.79819e-06
-1.96e-05
3.75185e-07
-1.88887e-05
-1.30086e-06
-1.765e-05
-2.44108e-06
-1.60229e-05
-3.24172e-06
-1.41111e-05
-3.82362e-06
-1.19895e-05
-4.25595e-06
-9.71562e-06
-4.57813e-06
-7.34456e-06
-4.79352e-06
-4.94776e-06
-4.87612e-06
-2.63716e-06
-4.69971e-06
-6.03822e-07
-3.94123e-06
5.95489e-07
-1.92945e-06
2.19773e-06
-4.53973e-06
-3.40206e-07
-1.00767e-05
1.58983e-05
-1.4844e-05
1.78882e-05
-1.80486e-05
1.30496e-05
-1.98202e-05
7.83415e-06
-2.0499e-05
3.47694e-06
-2.03572e-05
2.33371e-07
-1.95911e-05
-2.06698e-06
-1.83425e-05
-3.68977e-06
-1.67345e-05
-4.84976e-06
-1.48608e-05
-5.69735e-06
-1.27931e-05
-6.32373e-06
-1.05891e-05
-6.78214e-06
-8.30345e-06
-7.07918e-06
-6.00301e-06
-7.17654e-06
-3.78115e-06
-6.92154e-06
-1.78792e-06
-5.93444e-06
-3.50611e-07
-3.36676e-06
1.84712e-06
-8.08521e-06
7.74499e-06
-1.35698e-05
2.13828e-05
-1.73313e-05
2.16498e-05
-1.96982e-05
1.54164e-05
-2.09477e-05
9.08363e-06
-2.13365e-05
3.86574e-06
-2.10406e-05
-6.24939e-08
-2.01985e-05
-2.90917e-06
-1.89266e-05
-4.96167e-06
-1.73287e-05
-6.44764e-06
-1.54873e-05
-7.5388e-06
-1.34686e-05
-8.34244e-06
-1.13273e-05
-8.92349e-06
-9.11417e-06
-9.29227e-06
-6.88668e-06
-9.40404e-06
-4.71601e-06
-9.0922e-06
-2.70178e-06
-7.94865e-06
-1.01754e-06
-5.05099e-06
8.2959e-07
-1.14313e-05
1.91763e-05
-1.68635e-05
2.6815e-05
-1.97818e-05
2.4568e-05
-2.14134e-05
1.70481e-05
-2.21581e-05
9.82831e-06
-2.22316e-05
3.93924e-06
-2.175e-05
-5.44108e-07
-2.08079e-05
-3.85132e-06
-1.94938e-05
-6.2758e-06
-1.78909e-05
-8.05051e-06
-1.60692e-05
-9.36047e-06
-1.40873e-05
-1.03243e-05
-1.19942e-05
-1.10166e-05
-9.83389e-06
-1.14525e-05
-7.65119e-06
-1.15867e-05
-5.49251e-06
-1.12509e-05
-3.40865e-06
-1.00325e-05
-1.47792e-06
-6.98171e-06
-6.48302e-07
-1.50681e-05
3.42444e-05
-2.0323e-05
3.20699e-05
-2.23546e-05
2.65996e-05
-2.32454e-05
1.79389e-05
-2.34672e-05
1.00501e-05
-2.31979e-05
3.6699e-06
-2.25035e-05
-1.2385e-06
-2.14386e-05
-4.91623e-06
-2.0063e-05
-7.65132e-06
-1.84389e-05
-9.67462e-06
-1.66226e-05
-1.11768e-05
-1.4663e-05
-1.22839e-05
-1.26015e-05
-1.30781e-05
-1.04732e-05
-1.35808e-05
-8.30875e-06
-1.37512e-05
-6.13018e-06
-1.34294e-05
-3.94867e-06
-1.2214e-05
-1.79181e-06
-9.13854e-06
-2.44008e-06
-1.93802e-05
5.36246e-05
-2.42093e-05
3.6899e-05
-2.51159e-05
2.75062e-05
-2.51963e-05
1.80193e-05
-2.48638e-05
9.71754e-06
-2.42273e-05
3.03341e-06
-2.32984e-05
-2.16741e-06
-2.20911e-05
-6.12349e-06
-2.06368e-05
-9.1056e-06
-1.89759e-05
-1.13355e-05
-1.71504e-05
-1.30022e-05
-1.51982e-05
-1.42361e-05
-1.31518e-05
-1.51245e-05
-1.1036e-05
-1.56966e-05
-8.86715e-06
-1.59201e-05
-6.64585e-06
-1.56507e-05
-4.35493e-06
-1.45049e-05
-2.00744e-06
-1.1486e-05
-4.44752e-06
-2.5285e-05
7.89096e-05
-2.8581e-05
4.0195e-05
-2.80634e-05
2.69886e-05
-2.72376e-05
1.71935e-05
-2.6326e-05
8.80588e-06
-2.53067e-05
2.01413e-06
-2.41276e-05
-3.34647e-06
-2.2762e-05
-7.48906e-06
-2.12137e-05
-1.06539e-05
-1.95018e-05
-1.30474e-05
-1.76537e-05
-1.48504e-05
-1.56952e-05
-1.61946e-05
-1.36487e-05
-1.71709e-05
-1.15284e-05
-1.78169e-05
-9.33706e-06
-1.81114e-05
-7.05809e-06
-1.79297e-05
-4.65762e-06
-1.69053e-05
-2.15048e-06
-1.39931e-05
-6.59799e-06
-3.93805e-05
0.000207748
-7.37284e-05
0.000156175
-8.69533e-05
7.74768e-05
-0.000100228
5.78353e-05
-0.000112062
4.50437e-05
-0.000121833
3.18174e-05
-0.000129281
1.86084e-05
-0.000134504
6.15322e-06
-0.000137738
-5.09279e-06
-0.000139325
-1.49898e-05
-0.000139669
-2.36237e-05
-0.000139215
-3.1193e-05
-0.00013844
-3.79316e-05
-0.00013788
-4.40078e-05
-0.000138066
-4.94049e-05
-0.000139504
-5.38508e-05
-0.000142431
-5.66986e-05
-0.000146291
-5.68708e-05
-0.000148995
-5.28791e-05
-0.000146607
-4.31671e-05
-0.000134841
-2.75924e-05
-0.000113906
-9.84316e-06
1.97916e-06
-9.5692e-05
8.01037e-06
0.000199737
-3.57103e-05
0.000199896
-6.58011e-05
0.000107568
-8.78824e-05
7.99165e-05
-0.000104342
6.15032e-05
-0.000117066
4.45419e-05
-0.000126889
2.84308e-05
-0.000134266
1.35306e-05
-0.000139573
2.13642e-07
-0.000143197
-1.13656e-05
-0.000145559
-2.12611e-05
-0.000147094
-2.9658e-05
-0.000148245
-3.67805e-05
-0.000149453
-4.27997e-05
-0.000151121
-4.77369e-05
-0.000153565
-5.14073e-05
-0.000156883
-5.33807e-05
-0.000160758
-5.29953e-05
-0.000164226
-4.94114e-05
-0.000165533
-4.18605e-05
-0.000162557
-3.05675e-05
-0.000154472
-1.79286e-05
-7.29629e-06
-0.000145197
-1.17546e-05
0.000211492
-2.49746e-05
0.000213116
-5.60113e-05
0.000138604
-7.98968e-05
0.000103802
-9.8315e-05
7.99215e-05
-0.000112996
5.92229e-05
-0.000124718
4.01526e-05
-0.000133917
2.27295e-05
-0.00014095
7.24712e-06
-0.000146192
-6.12438e-06
-0.000150042
-1.74107e-05
-0.00015291
-2.67903e-05
-0.000155188
-3.4502e-05
-0.000157234
-4.07535e-05
-0.000159336
-4.56356e-05
-0.000161667
-4.90757e-05
-0.000164219
-5.08287e-05
-0.000166702
-5.0512e-05
-0.000168432
-4.76822e-05
-0.000168245
-4.20472e-05
-0.000164843
-3.39691e-05
-0.000157913
-2.48587e-05
-1.63997e-05
-0.00014881
-1.96487e-05
0.000231141
-3.34278e-05
0.000226895
-5.52233e-05
0.0001604
-7.60221e-05
0.000124601
-9.42294e-05
9.81287e-05
-0.000109804
7.47978e-05
-0.000122845
5.31935e-05
-0.000133485
3.3369e-05
-0.000141924
1.56861e-05
-0.000148448
3.99911e-07
-0.000153409
-1.24498e-05
-0.000157182
-2.30174e-05
-0.000160124
-3.15598e-05
-0.000162542
-3.83349e-05
-0.000164663
-4.35149e-05
-0.000166597
-4.71414e-05
-0.000168302
-4.91241e-05
-0.000169532
-4.92814e-05
-0.000169796
-4.74187e-05
-0.000168359
-4.34837e-05
-0.00016451
-3.78187e-05
-0.000158108
-3.12608e-05
-2.47097e-05
-0.000149798
-1.88346e-05
0.000249975
-3.43563e-05
0.000242417
-5.3562e-05
0.000179606
-7.28096e-05
0.000143848
-9.08253e-05
0.000116144
-0.000107013
9.0985e-05
-0.000121071
6.72515e-05
-0.000132883
4.51817e-05
-0.000142489
2.52917e-05
-0.000150066
7.97654e-06
-0.000155896
-6.61884e-06
-0.00016032
-1.85941e-05
-0.000163669
-2.8211e-05
-0.000166228
-3.57753e-05
-0.000168201
-4.15418e-05
-0.000169684
-4.5659e-05
-0.000170642
-4.81655e-05
-0.000170897
-4.90263e-05
-0.000170115
-4.82004e-05
-0.000167853
-4.57459e-05
-0.000163729
-4.19425e-05
-0.000157684
-3.73068e-05
-3.23748e-05
-0.000150018
-1.64221e-05
0.000266397
-3.20019e-05
0.000257997
-5.03823e-05
0.000197986
-6.92861e-05
0.000162752
-8.75036e-05
0.000134362
-0.000104306
0.000107788
-0.000119239
8.21843e-05
-0.000132048
5.799e-05
-0.00014265
3.58945e-05
-0.000151125
1.64509e-05
-0.00015768
-6.39289e-08
-0.000162608
-1.36652e-05
-0.000166226
-2.45939e-05
-0.000168811
-3.31901e-05
-0.00017057
-3.97824e-05
-0.000171612
-4.46166e-05
-0.000171938
-4.784e-05
-0.000171437
-4.95275e-05
-0.000169901
-4.97361e-05
-0.000167072
-4.85753e-05
-0.000162744
-4.62698e-05
-0.000156892
-4.31592e-05
-3.95906e-05
-0.000149676
-1.41188e-05
0.000280516
-2.89738e-05
0.000272852
-4.67956e-05
0.000215808
-6.56539e-05
0.000181611
-8.42142e-05
0.000152922
-0.000101616
0.00012519
-0.000117313
9.78808e-05
-0.000130974
7.16515e-05
-0.000142439
4.73593e-05
-0.000151699
2.57107e-05
-0.000158887
7.12386e-06
-0.000164243
-8.30913e-06
-0.00016806
-2.07769e-05
-0.000170619
-3.06309e-05
-0.000172144
-3.8257e-05
-0.000172774
-4.39864e-05
-0.000172554
-4.806e-05
-0.000171441
-5.0641e-05
-0.000169321
-5.18557e-05
-0.000166054
-5.18429e-05
-0.000161533
-5.07908e-05
-0.000155751
-4.89406e-05
-4.65322e-05
-0.00014881
-1.23686e-05
0.000292885
-2.58224e-05
0.000286306
-4.30801e-05
0.000233066
-6.20415e-05
0.000200572
-8.10208e-05
0.000171901
-9.89817e-05
0.000143151
-0.000115327
0.000114227
-0.000129704
8.60277e-05
-0.000141904
5.95592e-05
-0.000151852
3.56594e-05
-0.000159609
1.48808e-05
-0.000165354
-2.56452e-06
-0.000169347
-1.67837e-05
-0.000171869
-2.81087e-05
-0.000173167
-3.69593e-05
-0.000173417
-4.37361e-05
-0.000172715
-4.8762e-05
-0.00017108
-5.22766e-05
-0.000168472
-5.44634e-05
-0.000164829
-5.54861e-05
-0.000160105
-5.55144e-05
-0.000154312
-5.47339e-05
-5.33197e-05
-0.000147524
-1.20777e-05
0.000304962
-2.26449e-05
0.000296873
-3.93086e-05
0.000249729
-5.86127e-05
0.000219876
-7.80789e-05
0.000191368
-9.65139e-05
0.000161586
-0.000113361
0.000131074
-0.000128294
0.000100961
-0.000141093
7.23582e-05
-0.000151634
4.62e-05
-0.000159906
2.31529e-05
-0.000166022
3.5518e-06
-0.000170198
-1.2608e-05
-0.000172702
-2.56047e-05
-0.000173799
-3.58619e-05
-0.000173707
-4.38281e-05
-0.000172573
-4.98963e-05
-0.000170474
-5.43759e-05
-0.000167432
-5.75048e-05
-0.000163444
-5.94745e-05
-0.000158506
-6.04523e-05
-0.000152646
-6.05943e-05
-6.00357e-05
-0.00014593
-1.33685e-05
0.000318331
-1.92609e-05
0.000302765
-3.59584e-05
0.000266427
-5.58575e-05
0.000239775
-7.56992e-05
0.000211209
-9.43811e-05
0.000180268
-0.000111501
0.000148194
-0.000126794
0.000116253
-0.000140037
8.56007e-05
-0.000151062
5.72259e-05
-0.000159796
3.18859e-05
-0.000166276
1.0032e-05
-0.000170659
-8.22421e-06
-0.000173188
-2.30762e-05
-0.000174134
-3.49164e-05
-0.000173748
-4.4214e-05
-0.000172228
-5.14156e-05
-0.00016971
-5.68949e-05
-0.00016627
-6.09447e-05
-0.000161952
-6.37917e-05
-0.00015679
-6.56149e-05
-0.000150825
-6.65594e-05
-6.67381e-05
-0.000144122
-4.24395e-06
0.000322575
-1.63257e-05
0.000314847
-3.44952e-05
0.000284596
-5.46404e-05
0.00025992
-7.42462e-05
0.000230815
-9.27187e-05
0.00019874
-0.000109789
0.000165264
-0.000125205
0.00013167
-0.00013872
9.91151e-05
-0.000150116
6.86227e-05
-0.000159252
4.10214e-05
-0.00016609
1.68703e-05
-0.000170719
-3.59572e-06
-0.000173333
-2.04615e-05
-0.000174196
-3.40536e-05
-0.000173582
-4.48285e-05
-0.000171733
-5.32648e-05
-0.000168837
-5.97905e-05
-0.000165027
-6.47544e-05
-0.000160393
-6.84264e-05
-0.000154997
-7.10103e-05
-0.0001489
-7.26565e-05
-7.34693e-05
-0.000142169
-1.05245e-05
0.000333099
-2.12755e-05
0.000325598
-3.6911e-05
0.000300232
-5.52222e-05
0.000278231
-7.36371e-05
0.00024923
-9.14044e-05
0.000216508
-0.000108115
0.000181975
-0.000123439
0.000146994
-0.000137068
0.000112744
-0.000148727
8.02815e-05
-0.000158206
5.05004e-05
-0.000165396
2.40598e-05
-0.000170309
1.31774e-06
-0.000173083
-1.76872e-05
-0.000173951
-3.31863e-05
-0.000173191
-4.55878e-05
-0.000171083
-5.53737e-05
-0.000167862
-6.30109e-05
-0.000163715
-6.89013e-05
-0.000158777
-7.33651e-05
-0.000153144
-7.66429e-05
-0.000146895
-7.8906e-05
-8.02625e-05
-0.000140101
-5.93985e-06
0.000339039
-2.08878e-05
0.000340546
-3.84376e-05
0.000317782
-5.57844e-05
0.000295578
-7.30677e-05
0.000266513
-9.00126e-05
0.000233453
-0.000106229
0.000198191
-0.000121332
0.000162097
-0.000134961
0.000126373
-0.000146792
9.21125e-05
-0.00015656
6.02687e-05
-0.000164091
3.1591e-05
-0.000169327
6.55327e-06
-0.000172336
-1.46778e-05
-0.000173306
-3.22166e-05
-0.000172502
-4.63912e-05
-0.000170222
-5.76544e-05
-0.000166743
-6.64893e-05
-0.000162302
-7.33422e-05
-0.000157081
-7.85867e-05
-0.000151212
-8.25112e-05
-0.000144797
-8.53219e-05
-8.71451e-05
-0.000137914
-1.12428e-05
0.000350282
-2.29863e-05
0.000352289
-3.95909e-05
0.000334386
-5.57565e-05
0.000311744
-7.20254e-05
0.000282782
-8.81981e-05
0.000249625
-0.000103892
0.000213885
-0.000118708
0.000176913
-0.000132259
0.000139925
-0.000144191
0.000104044
-0.000154199
7.0277e-05
-0.000162058
3.94494e-05
-0.000167644
1.21394e-05
-0.00017096
-1.13621e-05
-0.000172133
-3.10436e-05
-0.000171397
-4.71269e-05
-0.000169049
-6.00024e-05
-0.000165396
-7.01418e-05
-0.00016072
-7.80191e-05
-0.000155248
-8.40587e-05
-0.000149155
-8.86041e-05
-0.000142566
-9.19103e-05
-9.41369e-05
-0.000135575
-1.25446e-05
0.000362827
-2.41839e-05
0.000363928
-3.95174e-05
0.00034972
-5.48039e-05
0.00032703
-7.02775e-05
0.000298256
-8.57649e-05
0.000265113
-0.000100938
0.000229058
-0.000115424
0.000191399
-0.000128838
0.000153338
-0.000140809
0.000116015
-0.00015101
8.04778e-05
-0.000159175
4.7615e-05
-0.00016513
1.80944e-05
-0.000168812
-7.68011e-06
-0.000170284
-2.95713e-05
-0.000169732
-4.76787e-05
-0.000167433
-6.23015e-05
-0.000163707
-7.38682e-05
-0.000158868
-8.28575e-05
-0.000153193
-8.9734e-05
-0.000146898
-9.48991e-05
-0.000140141
-9.86671e-05
-0.000101246
-0.000133032
-1.20316e-05
0.000374858
-2.34382e-05
0.000375335
-3.82884e-05
0.00036457
-5.30564e-05
0.000341798
-6.7844e-05
0.000313044
-8.26509e-05
0.000279919
-9.72681e-05
0.000243676
-0.00011137
0.0002055
-0.000124583
0.000166551
-0.000136535
0.000127968
-0.000146882
9.08246e-05
-0.00015533
5.60631e-05
-0.000161661
2.44253e-05
-0.000165755
-3.58562e-06
-0.000167611
-2.77149e-05
-0.000167356
-4.79341e-05
-0.000165228
-6.44293e-05
-0.000161541
-7.7555e-05
-0.000156632
-8.77667e-05
-0.000150816
-9.55502e-05
-0.000144355
-0.00010136
-0.000137445
-0.000105577
-0.000108471
-0.00013022
-1.11359e-05
0.000385994
-2.24914e-05
0.000386691
-3.7084e-05
0.000379162
-5.10376e-05
0.000355752
-6.48863e-05
0.000326892
-7.88563e-05
0.000293889
-9.28103e-05
0.00025763
-0.000106443
0.000219133
-0.000119387
0.000179495
-0.000131263
0.000139844
-0.000141712
0.000101273
-0.000150416
6.47674e-05
-0.000157122
3.11316e-05
-0.000161663
9.54678e-07
-0.000163974
-2.54034e-05
-0.000164119
-4.7789e-05
-0.000162286
-6.6263e-05
-0.000158761
-8.10796e-05
-0.000153887
-9.26409e-05
-0.000148008
-0.000101428
-0.000141432
-0.000107937
-0.000134395
-0.000112613
-0.0001158
-0.000127066
-1.03835e-05
0.000396378
-2.22265e-05
0.000398534
-3.65423e-05
0.000393478
-4.89333e-05
0.000368143
-6.14036e-05
0.000339363
-7.4304e-05
0.00030679
-8.74529e-05
0.000270778
-0.000100523
0.000232203
-0.000113131
0.000192103
-0.000124881
0.000151594
-0.000135394
0.000111786
-0.000144331
7.3705e-05
-0.00015141
3.82099e-05
-0.00015642
5.965e-06
-0.000159246
-2.25778e-05
-0.000159885
-4.71501e-05
-0.000158463
-6.76839e-05
-0.000155228
-8.43148e-05
-0.000150507
-9.73617e-05
-0.000144662
-0.000107274
-0.000138036
-0.000114563
-0.000130912
-0.000119737
-0.000123216
-0.000123497
-9.76496e-06
0.000406143
-2.29133e-05
0.000411682
-3.61018e-05
0.000406667
-4.62338e-05
0.000378275
-5.70815e-05
0.00035021
-6.87734e-05
0.000318482
-8.10131e-05
0.000283018
-9.34453e-05
0.000244635
-0.000105668
0.000204326
-0.000117259
0.000163184
-0.000127813
0.000122341
-0.000136969
8.2861e-05
-0.000144419
4.56594e-05
-0.000149919
1.14657e-05
-0.00015331
-1.91878e-05
-0.000154526
-4.59337e-05
-0.000153631
-6.85791e-05
-0.000150814
-8.71316e-05
-0.000146374
-0.000101802
-0.000140671
-0.000112976
-0.000134077
-0.000121158
-0.000126918
-0.000126895
-0.000130688
-0.000119446
-9.05202e-06
0.000415195
-2.25499e-05
0.00042518
-3.34891e-05
0.000417606
-4.18766e-05
0.000386663
-5.14447e-05
0.000359778
-6.19873e-05
0.000329024
-7.32744e-05
0.000294305
-8.50212e-05
0.000256382
-9.68306e-05
0.000216135
-0.00010825
0.000174604
-0.00011884
0.000132931
-0.000128212
9.22328e-05
-0.000136038
5.34857e-05
-0.000142052
1.74792e-05
-0.000146053
-1.51865e-05
-0.000147925
-4.40617e-05
-0.000147664
-6.88402e-05
-0.000145396
-8.93998e-05
-0.000141372
-0.000105826
-0.000135935
-0.000118413
-0.00012947
-0.000127622
-0.000122344
-0.000134022
-0.000138178
-0.000114854
-8.03472e-06
0.000423229
-1.72845e-05
0.00043443
-2.70861e-05
0.000427407
-3.54999e-05
0.000395076
-4.43739e-05
0.000368652
-5.3809e-05
0.000338459
-6.40537e-05
0.00030455
-7.50486e-05
0.000267377
-8.64261e-05
0.000227513
-9.76826e-05
0.00018586
-0.000108321
0.00014357
-0.000117922
0.000101833
-0.000126141
6.17048e-05
-0.000132695
2.40329e-05
-0.000137355
-1.0526e-05
-0.00013996
-4.14574e-05
-0.000140441
-6.83593e-05
-0.000138854
-9.09864e-05
-0.000135391
-0.000109289
-0.000130358
-0.000123445
-0.000124139
-0.000133842
-0.000117127
-0.000141033
-0.000145633
-0.000109673
-6.78597e-06
0.000430015
-1.22171e-05
0.000439861
-1.94376e-05
0.000434628
-2.81348e-05
0.000403774
-3.62543e-05
0.000376772
-4.42435e-05
0.000346449
-5.3167e-05
0.000313473
-6.32853e-05
0.000277495
-7.42201e-05
0.000238447
-8.53484e-05
0.000196988
-9.6074e-05
0.000154296
-0.000105933
0.000111692
-0.000114572
7.03439e-05
-0.000121701
3.11623e-05
-0.000127075
-5.15209e-06
-0.000130492
-3.804e-05
-0.000131827
-6.70249e-05
-0.000131062
-9.17514e-05
-0.000128316
-0.000112035
-0.000123844
-0.000127917
-0.000118005
-0.000139681
-0.000111212
-0.000147826
-0.000152987
-0.000103857
-5.28826e-06
0.000435304
-8.83947e-06
0.000443412
-1.26309e-05
0.000438419
-2.07541e-05
0.000411897
-2.73178e-05
0.000383336
-3.3097e-05
0.000352228
-4.02513e-05
0.000320628
-4.93647e-05
0.000286609
-5.99096e-05
0.000248992
-7.09982e-05
0.000208077
-8.18781e-05
0.000165176
-9.20383e-05
0.000121852
-0.000101133
7.9439e-05
-0.000108881
3.89101e-05
-0.000115031
9.97409e-07
-0.000119352
-3.37191e-05
-0.000121661
-6.47155e-05
-0.000121868
-9.15439e-05
-0.000120013
-0.00011389
-0.00011628
-0.00013165
-0.000110986
-0.000144975
-0.000104539
-0.000154274
-0.000160159
-9.73669e-05
-2.87033e-06
0.000438174
-5.5162e-06
0.000446058
-5.95675e-06
0.00043886
-1.1719e-05
0.000417659
-1.59508e-05
0.000387567
-1.91145e-05
0.000355391
-2.44308e-05
0.000325944
-3.27377e-05
0.000294915
-4.3141e-05
0.000259396
-5.43673e-05
0.000219303
-6.54939e-05
0.000176302
-7.60001e-05
0.000132358
-8.55812e-05
8.902e-05
-9.39902e-05
4.73191e-05
-0.000100986
7.99328e-06
-0.000106314
-2.83913e-05
-0.000109734
-6.12954e-05
-0.000111081
-9.01968e-05
-0.000110311
-0.000114661
-0.000107523
-0.000134438
-0.000102971
-0.000149526
-9.70335e-05
-0.000160211
-0.000167037
-9.0156e-05
1.19945e-06
0.000436974
6.43756e-07
0.000446613
2.58893e-06
0.000436915
1.944e-06
0.000418304
1.45438e-06
0.000388057
-1.15997e-07
0.000356962
-4.70553e-06
0.000330534
-1.29649e-05
0.000303175
-2.37032e-05
0.000270134
-3.52758e-05
0.000230876
-4.66973e-05
0.000187724
-5.75482e-05
0.000143209
-6.76115e-05
9.90833e-05
-7.67118e-05
5.64194e-05
-8.46305e-05
1.59119e-05
-9.10814e-05
-2.19404e-05
-9.57619e-05
-5.66149e-05
-9.8434e-05
-8.75246e-05
-9.89672e-05
-0.000114128
-9.73679e-05
-0.000136037
-9.38011e-05
-0.000153093
-8.85865e-05
-0.000165426
-0.000173461
-8.21622e-05
6.54205e-06
0.000430432
8.74219e-06
0.000444413
1.40654e-05
0.000431592
1.78602e-05
0.000414509
2.25175e-05
0.0003834
2.26494e-05
0.00035683
1.80245e-05
0.000335158
9.3005e-06
0.000311899
-1.94704e-06
0.000281381
-1.3781e-05
0.00024271
-2.53284e-05
0.000199271
-3.63952e-05
0.000154276
-4.68811e-05
0.000109569
-5.66727e-05
6.62111e-05
-6.5579e-05
2.48182e-05
-7.32664e-05
-1.4253e-05
-7.93616e-05
-5.05198e-05
-8.35581e-05
-8.33281e-05
-8.56419e-05
-0.000112044
-8.55156e-05
-0.000136163
-8.32331e-05
-0.000155376
-7.9022e-05
-0.000169637
-0.000179207
-7.32755e-05
1.15699e-05
0.000418863
1.68317e-05
0.000439152
2.52266e-05
0.000423197
3.68386e-05
0.000402897
4.42624e-05
0.000375976
4.46324e-05
0.00035646
4.0236e-05
0.000339555
3.17731e-05
0.000320362
2.09414e-05
0.000292213
9.7593e-06
0.000253892
-1.32014e-06
0.000210351
-1.22682e-05
0.000165224
-2.30145e-05
0.000120315
-3.34409e-05
7.66375e-05
-4.33686e-05
3.47459e-05
-5.23806e-05
-5.24108e-06
-6.00303e-05
-4.28701e-05
-6.59558e-05
-7.74025e-05
-6.98645e-05
-0.000108135
-7.15453e-05
-0.000134482
-7.09148e-05
-0.000156006
-6.80683e-05
-0.000172484
-0.000183971
-6.33049e-05
1.60971e-05
0.000402765
2.47309e-05
0.000430518
3.44362e-05
0.000413491
4.60872e-05
0.000391246
5.26127e-05
0.00036945
5.69906e-05
0.000352082
5.61577e-05
0.000340388
5.11848e-05
0.000325335
4.38815e-05
0.000299516
3.51314e-05
0.000262642
2.54005e-05
0.000220082
1.50425e-05
0.000175582
4.30859e-06
0.000131049
-6.58847e-06
8.75345e-05
-1.7486e-05
4.56433e-05
-2.78408e-05
5.11371e-06
-3.71392e-05
-3.35717e-05
-4.49892e-05
-6.95524e-05
-5.1025e-05
-0.000102099
-5.49028e-05
-0.000130605
-5.6368e-05
-0.000154541
-5.53367e-05
-0.000173515
-0.000187351
-5.19561e-05
1.96136e-05
0.000383152
3.15369e-05
0.000418594
4.29645e-05
0.000402064
5.14615e-05
0.000382749
5.62672e-05
0.000364645
5.83436e-05
0.000350006
6.37526e-05
0.000334979
6.73521e-05
0.000321735
6.63906e-05
0.000300478
6.18006e-05
0.000267232
5.45647e-05
0.000227317
4.54882e-05
0.000184659
3.5215e-05
0.000141322
2.41569e-05
9.85926e-05
1.25522e-05
5.7248e-05
9.96795e-07
1.66691e-05
-9.96064e-06
-2.26143e-05
-1.99084e-05
-5.96046e-05
-2.83996e-05
-9.36083e-05
-3.49232e-05
-0.000124081
-3.90062e-05
-0.000150458
-4.03309e-05
-0.00017219
-0.000188856
-3.88261e-05
2.216e-05
0.000360992
3.68841e-05
0.00040387
5.01736e-05
0.000388774
5.95485e-05
0.000373374
6.46018e-05
0.000359591
6.69854e-05
0.000347622
6.89403e-05
0.000333024
7.98526e-05
0.000310823
8.7485e-05
0.000292846
8.85915e-05
0.000266125
8.53027e-05
0.000230606
7.86671e-05
0.000191294
6.95843e-05
0.000150405
5.8884e-05
0.000109293
4.72152e-05
6.89168e-05
3.48342e-05
2.90501e-05
2.22649e-05
-1.0045e-05
1.00543e-05
-4.73941e-05
-1.24167e-06
-8.23123e-05
-1.09028e-05
-0.00011442
-1.8186e-05
-0.000143175
-2.2483e-05
-0.000167893
-0.000187913
-2.34262e-05
2.41074e-05
0.000336884
4.08839e-05
0.000387094
5.60173e-05
0.000373641
6.82514e-05
0.00036114
7.69637e-05
0.000350879
8.32304e-05
0.000341355
8.75335e-05
0.000328721
9.09991e-05
0.000307357
0.00010358
0.000280265
0.000112968
0.000256738
0.000116028
0.000227545
0.000113695
0.000193627
0.000107174
0.000156926
9.78207e-05
0.000118647
8.6661e-05
8.00764e-05
7.39747e-05
4.17365e-05
6.00422e-05
3.88747e-06
4.54927e-05
-3.28444e-05
3.10896e-05
-6.79094e-05
1.78246e-05
-0.000101155
6.75678e-06
-0.000132107
-1.15884e-06
-0.000159978
-0.000183888
-5.18311e-06
2.58203e-05
0.000311064
4.43274e-05
0.000368587
6.12086e-05
0.00035676
7.65767e-05
0.000345772
8.97857e-05
0.00033767
0.000100934
0.000330207
0.000109949
0.000319705
0.000115495
0.000301812
0.000120336
0.000275424
0.000132788
0.000244285
0.000144091
0.000216243
0.000148602
0.000189116
0.000146512
0.000159016
0.000140004
0.000125155
0.000130331
8.97496e-05
0.000118045
5.40224e-05
0.000103291
1.86416e-05
8.66088e-05
-1.61621e-05
6.90432e-05
-5.03438e-05
5.18962e-05
-8.40076e-05
3.65844e-05
-0.000116795
2.44655e-05
-0.000147859
-0.000176127
1.67044e-05
2.74481e-05
0.000283616
4.77395e-05
0.000348295
6.63091e-05
0.00033819
8.44259e-05
0.000327655
0.00010167
0.000320427
0.000117642
0.000314234
0.00013145
0.000305897
0.000141493
0.000291769
0.000147186
0.000269731
0.000151937
0.000239533
0.000165963
0.000202217
0.000177874
0.000177204
0.000183251
0.000153639
0.000182118
0.000126288
0.000175959
9.59087e-05
0.000165388
6.45933e-05
0.000150859
3.31705e-05
0.000132946
1.75068e-06
0.000112883
-3.02808e-05
9.21348e-05
-6.32593e-05
7.2485e-05
-9.71456e-05
5.57844e-05
-0.000131158
-0.000164014
4.36708e-05
2.89465e-05
0.00025467
5.11589e-05
0.000326083
7.13278e-05
0.000318021
9.16421e-05
0.000307341
0.000111986
0.000300083
0.000131884
0.000294336
0.00015023
0.000287551
0.000165203
0.000276797
0.000175382
0.000259552
0.000180687
0.000234229
0.000181298
0.000201606
0.000193133
0.00016537
0.000208708
0.000138064
0.000217636
0.00011736
0.000218715
9.48299e-05
0.000212538
7.07708e-05
0.000200514
4.51939e-05
0.00018363
1.86349e-05
0.000163118
-9.76831e-06
0.000140164
-4.03052e-05
0.000116801
-7.37829e-05
9.54935e-05
-0.000109851
-0.000146951
7.84305e-05
3.02158e-05
0.000224454
5.43954e-05
0.000301903
7.60227e-05
0.000296394
9.80088e-05
0.000285355
0.000120587
0.000277504
0.00014336
0.000271563
0.000165421
0.000265491
0.000185147
0.00025707
0.000200687
0.000244012
0.000210666
0.000224249
0.000215225
0.000197047
0.000216716
0.000163879
0.000225679
0.000129101
0.000240692
0.000102347
0.000251752
8.37702e-05
0.000253845
6.86778e-05
0.000249314
4.97246e-05
0.000238128
2.98214e-05
0.000221598
6.76107e-06
0.000199697
-1.84035e-05
0.000174609
-4.86953e-05
0.000149078
-8.43197e-05
-0.000123886
0.000126014
3.11682e-05
0.000193285
5.72259e-05
0.000275846
8.01369e-05
0.000273483
0.000103361
0.000262131
0.000127514
0.000253351
0.000152364
0.000246712
0.000177251
0.000240604
0.000200961
0.000233361
0.000221765
0.000223208
0.000237778
0.000208237
0.000247985
0.00018684
0.000253287
0.000158576
0.00025626
0.000126128
0.000262422
9.61848e-05
0.000272338
7.38547e-05
0.000284038
5.69773e-05
0.000294862
3.89011e-05
0.00029652
2.81632e-05
0.000291856
1.14247e-05
0.000276805
-3.35224e-06
0.00025459
-2.64802e-05
0.000226394
-5.61238e-05
-9.33965e-05
0.000195904
3.17094e-05
0.000161576
5.945e-05
0.000248105
8.34574e-05
0.000249476
0.000107574
0.000238014
0.000132827
0.000228099
0.000159215
0.000220325
0.000186319
0.0002135
0.00021325
0.00020643
0.000238553
0.000197905
0.000260398
0.000186392
0.00027693
0.000170308
0.000287336
0.00014817
0.000292957
0.000120507
0.000298718
9.04238e-05
0.000310541
6.20313e-05
0.000327474