/*--------------------------------*- C++ -*----------------------------------*\
  =========                 |
  \\      /  F ield         | OpenFOAM: The Open Source CFD Toolbox
   \\    /   O peration     | Website:  https://openfoam.org
    \\  /    A nd           | Version:  9
     \\/     M anipulation  |
\*---------------------------------------------------------------------------*/
FoamFile
{
    format      ascii;
    class       surfaceScalarField;
    location    "0.35";
    object      phi;
}
// * * * * * * * * * * * * * * * * * * * * * * * * * * * * * * * * * * * * * //

dimensions      [0 3 -1 0 0 0 0];

internalField   nonuniform List<scalar> 
4432
(
-5.31613e-06
5.31613e-06
-5.64859e-06
3.32457e-07
-2.52882e-06
-3.11977e-06
1.85354e-06
-4.38236e-06
6.68322e-06
-4.82968e-06
1.15536e-05
-4.87035e-06
1.63153e-05
-4.7617e-06
2.09247e-05
-4.60941e-06
2.53645e-05
-4.43984e-06
2.96122e-05
-4.24768e-06
3.36249e-05
-4.01269e-06
3.73286e-05
-3.70374e-06
4.06059e-05
-3.27728e-06
4.32689e-05
-2.663e-06
4.50172e-05
-1.7483e-06
4.52408e-05
-2.23597e-07
4.28754e-05
2.36539e-06
3.70075e-05
5.86797e-06
2.69554e-05
1.0052e-05
1.3043e-05
1.39125e-05
-2.9228e-06
1.59658e-05
-1.30989e-05
1.01761e-05
-1.30989e-05
-3.07742e-06
8.39355e-06
-1.75677e-06
-9.88202e-07
1.50024e-06
-6.37678e-06
5.78742e-06
-8.66952e-06
1.04571e-05
-9.49933e-06
1.52009e-05
-9.6142e-06
1.98758e-05
-9.43655e-06
2.44189e-05
-9.15253e-06
2.87974e-05
-8.8183e-06
3.29784e-05
-8.42876e-06
3.69135e-05
-7.94772e-06
4.05266e-05
-7.31689e-06
4.37029e-05
-6.45355e-06
4.62755e-05
-5.23559e-06
4.80098e-05
-3.48263e-06
4.86622e-05
-8.75949e-07
4.79258e-05
3.10169e-06
4.49434e-05
8.85037e-06
3.85168e-05
1.64786e-05
2.76001e-05
2.48292e-05
1.3025e-05
3.05409e-05
8.59735e-07
2.23414e-05
-1.22392e-05
-9.34064e-07
9.32761e-06
9.75606e-07
-2.89787e-06
4.35066e-06
-9.75183e-06
8.53617e-06
-1.2855e-05
1.30374e-05
-1.40006e-05
1.76071e-05
-1.41839e-05
2.21208e-05
-1.39502e-05
2.65168e-05
-1.35485e-05
3.07571e-05
-1.30586e-05
3.48041e-05
-1.24757e-05
3.86062e-05
-1.17498e-05
4.20879e-05
-1.07987e-05
4.514e-05
-9.50564e-06
4.76113e-05
-7.70685e-06
4.92985e-05
-5.16989e-06
4.99686e-05
-1.54606e-06
4.93788e-05
3.69157e-06
4.71274e-05
1.11017e-05
4.26102e-05
2.09959e-05
3.49981e-05
3.24413e-05
2.38027e-05
4.17363e-05
1.0678e-05
3.54661e-05
-1.56119e-06
7.47836e-07
8.57978e-06
3.10999e-06
-5.26002e-06
6.66004e-06
-1.33019e-05
1.08047e-05
-1.69997e-05
1.51721e-05
-1.8368e-05
1.95765e-05
-1.85883e-05
2.39235e-05
-1.82972e-05
2.81612e-05
-1.77862e-05
3.22524e-05
-1.71498e-05
3.61576e-05
-1.6381e-05
3.98246e-05
-1.54168e-05
4.31797e-05
-1.41538e-05
4.61203e-05
-1.24462e-05
4.851e-05
-1.00965e-05
5.01778e-05
-6.83772e-06
5.09302e-05
-2.29843e-06
5.05697e-05
4.05203e-06
4.88615e-05
1.28099e-05
4.54849e-05
2.43725e-05
3.987e-05
3.80561e-05
3.10645e-05
5.05418e-05
1.79482e-05
4.85824e-05
1.6387e-05
1.83247e-06
6.74731e-06
4.78001e-06
-8.20756e-06
8.57261e-06
-1.70945e-05
1.27359e-05
-2.1163e-05
1.70047e-05
-2.26367e-05
2.12611e-05
-2.28447e-05
2.54475e-05
-2.24836e-05
2.95276e-05
-2.18663e-05
3.34689e-05
-2.10912e-05
3.7233e-05
-2.0145e-05
4.07685e-05
-1.89523e-05
4.40051e-05
-1.73904e-05
4.68479e-05
-1.52891e-05
4.91761e-05
-1.24247e-05
5.08489e-05
-8.51053e-06
5.17165e-05
-3.16597e-06
5.16367e-05
4.13179e-06
5.04656e-05
1.3981e-05
4.8008e-05
2.68301e-05
4.38021e-05
4.2262e-05
3.6693e-05
5.76509e-05
2.38361e-05
6.14392e-05
4.02232e-05
2.51251e-06
4.2348e-06
6.08181e-06
-1.17769e-05
1.01651e-05
-2.11778e-05
1.43832e-05
-2.53812e-05
1.85761e-05
-2.68297e-05
2.26977e-05
-2.69663e-05
2.67302e-05
-2.65161e-05
3.06558e-05
-2.57919e-05
3.44491e-05
-2.48845e-05
3.80742e-05
-2.37701e-05
4.14823e-05
-2.23604e-05
4.46078e-05
-2.0516e-05
4.73643e-05
-1.80456e-05
4.96464e-05
-1.47068e-05
5.13417e-05
-1.02058e-05
5.23442e-05
-4.1684e-06
5.25682e-05
3.90776e-06
5.19414e-05
1.46078e-05
5.03514e-05
2.84201e-05
4.7402e-05
4.52114e-05
4.18465e-05
6.32063e-05
2.954e-05
7.37458e-05
6.97632e-05
2.99761e-06
1.23719e-06
7.13833e-06
-1.59176e-05
1.15131e-05
-2.55525e-05
1.57933e-05
-2.96613e-05
1.9916e-05
-3.09523e-05
2.39065e-05
-3.09568e-05
2.77875e-05
-3.0397e-05
3.15598e-05
-2.95642e-05
3.52057e-05
-2.85304e-05
3.86929e-05
-2.72573e-05
4.19762e-05
-2.56437e-05
4.49957e-05
-2.35355e-05
4.76739e-05
-2.07237e-05
4.992e-05
-1.69529e-05
5.16483e-05
-1.19341e-05
5.2795e-05
-5.31513e-06
5.33314e-05
3.37141e-06
5.32566e-05
1.46825e-05
5.25495e-05
2.91273e-05
5.09295e-05
4.68315e-05
4.72819e-05
6.68539e-05
3.62443e-05
8.47834e-05
0.000106007
3.41422e-06
-2.17704e-06
8.05958e-06
-2.05629e-05
1.26932e-05
-3.01861e-05
1.70157e-05
-3.39838e-05
2.10559e-05
-3.49925e-05
2.49095e-05
-3.48105e-05
2.86365e-05
-3.41241e-05
3.22545e-05
-3.31822e-05
3.57525e-05
-3.20284e-05
3.91018e-05
-3.06066e-05
4.22614e-05
-2.88032e-05
4.51779e-05
-2.64519e-05
4.77826e-05
-2.33285e-05
4.99982e-05
-1.91685e-05
5.17629e-05
-1.36988e-05
5.30532e-05
-6.60541e-06
5.38959e-05
2.52869e-06
5.43674e-05
1.4211e-05
5.45647e-05
2.893e-05
5.44349e-05
4.69612e-05
5.32739e-05
6.80149e-05
4.47674e-05
9.32898e-05
0.000150775
-2.02544e-06
2.02544e-06
-1.20287e-05
1.00034e-05
-1.90992e-05
7.07059e-06
-2.10821e-05
1.98288e-06
-1.90056e-05
-2.07635e-06
-1.45402e-05
-4.46541e-06
-8.86635e-06
-5.67397e-06
-2.70838e-06
-6.15786e-06
3.25966e-06
-5.96809e-06
8.54365e-06
-5.28423e-06
1.26767e-05
-4.13293e-06
1.53429e-05
-2.66637e-06
1.63876e-05
-1.04485e-06
1.5809e-05
5.78656e-07
1.3821e-05
1.98794e-06
1.07405e-05
3.08043e-06
6.97584e-06
3.76457e-06
3.17637e-06
3.79946e-06
3.17641e-06
-6.3445e-06
8.37004e-06
-1.64188e-05
2.00777e-05
-2.14868e-05
1.21388e-05
-2.19313e-05
2.42724e-06
-1.93947e-05
-4.61281e-06
-1.49526e-05
-8.90744e-06
-9.39665e-06
-1.12301e-05
-3.41938e-06
-1.21353e-05
2.40521e-06
-1.17926e-05
7.58054e-06
-1.04599e-05
1.17109e-05
-8.26339e-06
1.45031e-05
-5.45851e-06
1.57972e-05
-2.33913e-06
1.55952e-05
7.80541e-07
1.39877e-05
3.59535e-06
1.1192e-05
5.87618e-06
7.58485e-06
7.37155e-06
3.69238e-06
7.69177e-06
6.86883e-06
-9.08335e-06
1.74535e-05
-1.8329e-05
2.93235e-05
-2.1963e-05
1.57731e-05
-2.18911e-05
2.35529e-06
-1.91904e-05
-7.31345e-06
-1.47785e-05
-1.33192e-05
-9.32267e-06
-1.6686e-05
-3.48979e-06
-1.79683e-05
2.18306e-06
-1.74653e-05
7.22736e-06
-1.55044e-05
1.1283e-05
-1.23192e-05
1.40818e-05
-8.25741e-06
1.54518e-05
-3.70913e-06
1.53488e-05
8.83558e-07
1.38596e-05
5.08445e-06
1.12232e-05
8.51263e-06
7.79287e-06
1.08018e-05
3.94274e-06
1.15419e-05
1.08116e-05
-1.03778e-05
2.78314e-05
-1.96316e-05
3.85773e-05
-2.21705e-05
1.83122e-05
-2.162e-05
1.80477e-06
-1.87362e-05
-1.01972e-05
-1.43302e-05
-1.77251e-05
-8.92223e-06
-2.2094e-05
-3.16577e-06
-2.3725e-05
2.42089e-06
-2.30519e-05
7.38409e-06
-2.04677e-05
1.13794e-05
-1.63145e-05
1.4156e-05
-1.1034e-05
1.55452e-05
-5.09851e-06
1.54861e-05
9.42643e-07
1.40504e-05
6.5202e-06
1.14649e-05
1.10979e-05
8.06261e-06
1.42041e-05
4.16364e-06
1.54409e-05
1.49752e-05
-1.04368e-05
3.82683e-05
-2.03092e-05
4.84499e-05
-2.17324e-05
1.97356e-05
-2.07684e-05
8.40817e-07
-1.77835e-05
-1.31821e-05
-1.34685e-05
-2.204e-05
-8.13339e-06
-2.7429e-05
-2.44329e-06
-2.94151e-05
3.09492e-06
-2.85902e-05
8.01796e-06
-2.53908e-05
1.19748e-05
-2.02716e-05
1.47182e-05
-1.37773e-05
1.60835e-05
-6.46383e-06
1.60037e-05
1.0222e-06
1.45391e-05
7.98488e-06
1.19019e-05
1.37353e-05
8.41273e-06
1.76933e-05
4.37822e-06
1.94753e-05
1.93534e-05
-9.15716e-06
4.74256e-05
-1.97123e-05
5.90052e-05
-1.95609e-05
1.95842e-05
-1.84768e-05
-2.43192e-07
-1.57081e-05
-1.59508e-05
-1.17966e-05
-2.59514e-05
-6.72233e-06
-3.25033e-05
-1.20406e-06
-3.49335e-05
4.25723e-06
-3.40515e-05
9.1518e-06
-3.02853e-05
1.30843e-05
-2.42041e-05
1.57871e-05
-1.64802e-05
1.70922e-05
-7.76883e-06
1.69285e-05
1.18618e-06
1.53493e-05
9.56391e-06
1.25577e-05
1.6527e-05
8.87336e-06
2.13777e-05
4.61399e-06
2.37344e-05
2.39675e-05
-5.29676e-06
5.27224e-05
-1.53321e-05
6.90408e-05
-1.31911e-05
1.74432e-05
-1.30826e-05
-3.5154e-07
-1.13046e-05
-1.77288e-05
-8.56682e-06
-2.86891e-05
-4.24097e-06
-3.68291e-05
8.09822e-07
-3.99843e-05
6.04867e-06
-3.92903e-05
1.08666e-05
-3.51033e-05
1.47622e-05
-2.80996e-05
1.74098e-05
-1.91277e-05
1.86186e-05
-8.97777e-06
1.83076e-05
1.49714e-06
1.65278e-05
1.13436e-05
1.34783e-05
1.95765e-05
9.48821e-06
2.53677e-05
4.90486e-06
2.83177e-05
2.88723e-05
1.15754e-05
4.11469e-05
-1.6582e-06
8.22746e-05
1.68282e-06
1.41022e-05
-1.87319e-06
3.20461e-06
-2.66819e-06
-1.69339e-05
-2.58068e-06
-2.87766e-05
9.51852e-08
-3.9505e-05
4.04368e-06
-4.39328e-05
8.69964e-06
-4.39462e-05
1.32946e-05
-3.96983e-05
1.71045e-05
-3.19096e-05
1.96723e-05
-2.16957e-05
2.07439e-05
-1.00493e-05
2.0217e-05
2.02401e-06
1.81443e-05
1.34162e-05
1.47291e-05
2.29918e-05
1.03163e-05
2.97805e-05
5.28897e-06
3.3345e-05
3.41614e-05
8.59683e-06
-1.07739e-05
2.00828e-05
-3.20489e-05
3.06088e-05
-4.07122e-05
3.9757e-05
-4.3132e-05
4.79772e-05
-4.32128e-05
5.56828e-05
-4.2516e-05
6.3095e-05
-4.15363e-05
7.02875e-05
-4.03747e-05
7.72506e-05
-3.89914e-05
8.39311e-05
-3.72872e-05
9.02561e-05
-3.51282e-05
9.61365e-05
-3.23324e-05
0.000101456
-2.86478e-05
0.000106084
-2.37968e-05
0.00010996
-1.75746e-05
0.000113155
-9.80027e-06
0.000115895
-2.11983e-07
0.000118592
1.15142e-05
0.000121892
2.56303e-05
0.000126687
4.2166e-05
0.00013396
6.07417e-05
0.000146807
8.04428e-05
0.000105954
0.000191628
1.09963e-05
-2.17702e-05
2.46267e-05
-4.56793e-05
3.54825e-05
-5.1568e-05
4.39584e-05
-5.16079e-05
5.12837e-05
-5.0538e-05
5.81572e-05
-4.93896e-05
6.484e-05
-4.8219e-05
7.1384e-05
-4.69187e-05
7.77588e-05
-4.53663e-05
8.39037e-05
-4.34321e-05
8.97579e-05
-4.09824e-05
9.52686e-05
-3.78431e-05
0.000100355
-3.37345e-05
0.000104911
-2.8352e-05
0.000108932
-2.15958e-05
0.00011261
-1.34782e-05
0.000116319
-3.92088e-06
0.000120629
7.20347e-06
0.000126371
1.98885e-05
0.000134799
3.37384e-05
0.000147727
4.78131e-05
0.000167238
6.09317e-05
7.50611e-05
0.000198131
1.47923e-05
-3.65625e-05
3.10891e-05
-6.19761e-05
4.06222e-05
-6.1101e-05
4.72918e-05
-5.82776e-05
5.33054e-05
-5.65516e-05
5.92937e-05
-5.53778e-05
6.53066e-05
-5.4232e-05
7.1276e-05
-5.28881e-05
7.71208e-05
-5.1211e-05
8.2759e-05
-4.90703e-05
8.81339e-05
-4.63573e-05
9.32359e-05
-4.29451e-05
9.80361e-05
-3.85347e-05
0.000102438
-3.27538e-05
0.000106489
-2.56468e-05
0.000110472
-1.74616e-05
0.000114794
-8.24238e-06
0.000120008
1.98941e-06
0.000126685
1.3211e-05
0.000135742
2.46823e-05
0.000148052
3.55029e-05
0.000163739
4.52442e-05
5.35485e-05
0.000185252
2.33392e-05
-5.99017e-05
4.01672e-05
-7.88041e-05
4.4558e-05
-6.54918e-05
4.8557e-05
-6.22765e-05
5.35088e-05
-6.15035e-05
5.89741e-05
-6.08431e-05
6.4563e-05
-5.98208e-05
7.00952e-05
-5.84203e-05
7.54705e-05
-5.65863e-05
8.06044e-05
-5.42042e-05
8.54346e-05
-5.11874e-05
8.99692e-05
-4.74797e-05
9.42559e-05
-4.28215e-05
9.83017e-05
-3.67996e-05
0.000102268
-2.96127e-05
0.00010652
-2.17139e-05
0.000111437
-1.31597e-05
0.000117302
-3.8753e-06
0.000124596
5.91661e-06
0.000133822
1.54562e-05
0.000145472
2.38535e-05
0.000159306
3.14097e-05
3.73743e-05
0.00017548
4.28254e-05
-0.000102727
4.87924e-05
-8.47712e-05
4.4535e-05
-6.12344e-05
4.70528e-05
-6.47944e-05
5.21227e-05
-6.65733e-05
5.76802e-05
-6.64006e-05
6.3115e-05
-6.52556e-05
6.83123e-05
-6.36176e-05
7.32211e-05
-6.14951e-05
7.77807e-05
-5.87638e-05
8.19012e-05
-5.53079e-05
8.55536e-05
-5.11322e-05
8.88639e-05
-4.61317e-05
9.20557e-05
-3.99914e-05
9.55592e-05
-3.31162e-05
0.00010001
-2.61646e-05
0.000105876
-1.90258e-05
0.000113565
-1.15644e-05
0.000122758
-3.27629e-06
0.00013291
5.30396e-06
0.000143839
1.29249e-05
0.000155979
1.92695e-05
2.38183e-05
0.000169535
4.2432e-05
-0.000145159
3.74555e-05
-7.97946e-05
4.01868e-05
-6.39657e-05
4.55024e-05
-7.011e-05
5.14282e-05
-7.24991e-05
5.69832e-05
-7.19557e-05
6.21853e-05
-7.04577e-05
6.70402e-05
-6.84726e-05
7.15177e-05
-6.59725e-05
7.55859e-05
-6.28321e-05
7.91503e-05
-5.88722e-05
8.20609e-05
-5.40428e-05
8.45222e-05
-4.8593e-05
8.72045e-05
-4.26737e-05
9.0427e-05
-3.63387e-05
9.41586e-05
-2.98962e-05
9.89815e-05
-2.38487e-05
0.000106025
-1.86074e-05
0.000116807
-1.40585e-05
0.000130022
-7.9112e-06
0.000142482
4.64966e-07
0.000155193
6.55864e-06
1.02148e-05
0.000168796
-1.03418e-05
-0.000134817
6.41262e-06
-9.6549e-05
2.54893e-05
-8.30425e-05
3.86506e-05
-8.32713e-05
5.01057e-05
-8.39542e-05
6.05287e-05
-8.23787e-05
6.99401e-05
-7.98691e-05
7.84973e-05
-7.70299e-05
8.63836e-05
-7.38588e-05
9.37382e-05
-7.01867e-05
0.000100698
-6.58317e-05
0.000107394
-6.07391e-05
0.000113857
-5.50554e-05
0.000120107
-4.89242e-05
0.000126188
-4.24192e-05
0.00013199
-3.56983e-05
0.000137147
-2.90055e-05
0.000140913
-2.23742e-05
0.000142349
-1.54939e-05
0.000141043
-6.60548e-06
0.00014232
-8.12094e-07
0.000152597
-3.71819e-06
-4.57183e-06
0.000167384
-1.38885e-05
-0.000120929
4.02622e-06
-0.000114464
2.37676e-05
-0.000102784
3.9108e-05
-9.86117e-05
5.14611e-05
-9.63073e-05
6.25854e-05
-9.3503e-05
7.30007e-05
-9.02844e-05
8.28396e-05
-8.68689e-05
9.22096e-05
-8.32288e-05
0.000101246
-7.92226e-05
0.00011011
-7.46964e-05
0.000118946
-6.95744e-05
0.000127796
-6.39058e-05
0.000136633
-5.7761e-05
0.000145391
-5.11777e-05
0.000153924
-4.42305e-05
0.00016194
-3.70216e-05
0.000169103
-2.95377e-05
0.000175136
-2.15266e-05
0.000181994
-1.34634e-05
0.00019085
-9.66816e-06
0.000197704
-1.05717e-05
-1.02046e-05
0.000203337
7.48332e-07
-0.000121677
1.12102e-05
-0.000124926
2.56298e-05
-0.000117203
3.8926e-05
-0.000111908
5.06897e-05
-0.000108071
6.16408e-05
-0.000104454
7.21409e-05
-0.000100785
8.23145e-05
-9.70425e-05
9.22427e-05
-9.3157e-05
0.000102027
-8.90066e-05
0.000111797
-8.44669e-05
0.000121682
-7.94589e-05
0.000131749
-7.39729e-05
0.000142013
-6.80251e-05
0.000152468
-6.16323e-05
0.000163077
-5.48398e-05
0.000173781
-4.77257e-05
0.000184603
-4.03596e-05
0.000195942
-3.28649e-05
0.000208613
-2.61345e-05
0.000221134
-2.21897e-05
0.00023104
-2.04776e-05
-1.73862e-05
0.000238222
4.7859e-06
-0.000126463
1.45962e-05
-0.000134736
2.5702e-05
-0.000128309
3.67907e-05
-0.000122997
4.7422e-05
-0.000118702
5.77348e-05
-0.000114767
6.78688e-05
-0.000110919
7.78869e-05
-0.000107061
8.78369e-05
-0.000103107
9.77866e-05
-9.89562e-05
0.000107831
-9.45112e-05
0.000118076
-8.97034e-05
0.000128607
-8.45043e-05
0.000139493
-7.89111e-05
0.000150799
-7.29381e-05
0.00016259
-6.66306e-05
0.000174939
-6.00751e-05
0.000187982
-5.34029e-05
0.000201976
-4.68581e-05
0.000216888
-4.10471e-05
0.000231462
-3.67635e-05
0.000244396
-3.34112e-05
-2.87899e-05
0.000255799
6.13887e-06
-0.000132602
1.45518e-05
-0.000143149
2.36273e-05
-0.000137384
3.29965e-05
-0.000132366
4.24135e-05
-0.000128119
5.18421e-05
-0.000124195
6.13011e-05
-0.000120378
7.08045e-05
-0.000116564
8.03727e-05
-0.000112675
9.00489e-05
-0.000108632
9.99027e-05
-0.000104365
0.000110023
-9.98236e-05
0.000120505
-9.4986e-05
0.000131447
-8.98532e-05
0.000142956
-8.44479e-05
0.000155148
-7.88221e-05
0.000168139
-7.30656e-05
0.000182051
-6.7315e-05
0.000196971
-6.17787e-05
0.000212707
-5.67833e-05
0.000228528
-5.25836e-05
0.000243793
-4.86769e-05
-4.36641e-05
0.000258667
6.5373e-06
-0.000139139
1.31109e-05
-0.000149722
2.04318e-05
-0.000144705
2.83146e-05
-0.000140249
3.65127e-05
-0.000136317
4.49204e-05
-0.000132603
5.35002e-05
-0.000128957
6.22374e-05
-0.000125301
7.11359e-05
-0.000121573
8.02233e-05
-0.00011772
8.95541e-05
-0.000113696
9.92058e-05
-0.000109475
0.000109274
-0.000105054
0.000119867
-0.000100446
0.000131107
-9.56878e-05
0.00014312
-9.08353e-05
0.000156028
-8.59736e-05
0.000169929
-8.12165e-05
0.000184859
-7.67081e-05
0.000200679
-7.26034e-05
0.000217027
-6.89314e-05
0.000233624
-6.52738e-05
-6.0629e-05
0.000250588
5.99811e-06
-0.000145137
1.09654e-05
-0.00015469
1.68425e-05
-0.000150583
2.34112e-05
-0.000146817
3.04205e-05
-0.000143327
3.77476e-05
-0.00013993
4.53358e-05
-0.000136545
5.31585e-05
-0.000133124
6.12122e-05
-0.000129627
6.9517e-05
-0.000126024
7.81184e-05
-0.000122297
8.70863e-05
-0.000118443
9.65112e-05
-0.000114479
0.0001065
-0.000110436
0.000117173
-0.00010636
0.000128652
-0.000102314
0.000141052
-9.83738e-05
0.000154464
-9.46281e-05
0.000168926
-9.11704e-05
0.000184388
-8.80652e-05
0.000200709
-8.52527e-05
0.000217809
-8.23733e-05
-7.86233e-05
0.000235803
5.00098e-06
-0.000150138
8.68228e-06
-0.000158371
1.33647e-05
-0.000155265
1.87581e-05
-0.000152211
2.46344e-05
-0.000149203
3.08817e-05
-0.000146178
3.74439e-05
-0.000143108
4.42941e-05
-0.000139974
5.14276e-05
-0.000136761
5.88626e-05
-0.000133459
6.66407e-05
-0.000130075
7.4826e-05
-0.000126629
8.35029e-05
-0.000123156
9.27716e-05
-0.000119704
0.000102743
-0.000116332
0.000113531
-0.000113102
0.000125241
-0.000110084
0.000137964
-0.000107351
0.000151759
-0.000104965
0.000166645
-0.000102951
0.000182617
-0.000101224
0.000199714
-9.94704e-05
-9.69989e-05
0.000218089
3.86122e-06
-0.000153999
6.58509e-06
-0.000161095
1.02754e-05
-0.000158955
1.46242e-05
-0.000156559
1.94515e-05
-0.00015403
2.46704e-05
-0.000151396
3.02355e-05
-0.000148673
3.61262e-05
-0.000145865
4.2342e-05
-0.000142977
4.89029e-05
-0.00014002
5.58496e-05
-0.000137022
6.32429e-05
-0.000134022
7.11613e-05
-0.000131074
7.9697e-05
-0.00012824
8.89511e-05
-0.000125586
9.90265e-05
-0.000123177
0.000110022
-0.00012108
0.000122027
-0.000119356
0.000135117
-0.000118056
0.00014936
-0.000117194
0.000164827
-0.000116691
0.000181632
-0.000116276
-0.000115334
0.000199968
2.80218e-06
-0.000156802
4.82338e-06
-0.000163116
7.68804e-06
-0.00016182
1.1125e-05
-0.000159997
1.5012e-05
-0.000157917
1.92911e-05
-0.000155675
2.39327e-05
-0.000153314
2.89265e-05
-0.000150858
3.42791e-05
-0.000148329
4.0015e-05
-0.000145756
4.61763e-05
-0.000143183
5.28218e-05
-0.000140668
6.00249e-05
-0.000138277
6.78703e-05
-0.000136086
7.64488e-05
-0.000134165
8.58528e-05
-0.000132581
9.61718e-05
-0.000131399
0.000107491
-0.000130675
0.000119893
-0.000130458
0.000133468
-0.000130769
0.000148329
-0.000131553
0.000164636
-0.000132583
-0.000133306
0.000182608
1.94097e-06
-0.000158743
3.44137e-06
-0.000164616
5.61974e-06
-0.000163998
8.27836e-06
-0.000162655
1.13477e-05
-0.000160987
1.47975e-05
-0.000159125
1.86148e-05
-0.000157132
2.28013e-05
-0.000155045
2.73725e-05
-0.0001529
3.23582e-05
-0.000150742
3.7803e-05
-0.000148628
4.37642e-05
-0.000146629
5.03106e-05
-0.000144824
5.75184e-05
-0.000143294
6.54682e-05
-0.000142114
7.42398e-05
-0.000141353
8.39104e-05
-0.00014107
9.45547e-05
-0.000141319
0.000106251
-0.000142154
0.000119093
-0.000143611
0.000133208
-0.000145668
0.000148777
-0.000148152
-0.000150567
0.000166037
1.30876e-06
-0.000160051
2.41738e-06
-0.000165725
4.0333e-06
-0.000165614
6.04389e-06
-0.000164666
8.4217e-06
-0.000163365
1.11595e-05
-0.000161863
1.42604e-05
-0.000160233
1.7738e-05
-0.000158522
2.16163e-05
-0.000156779
2.59309e-05
-0.000155057
3.07279e-05
-0.000153425
3.60629e-05
-0.000151964
4.19986e-05
-0.00015076
4.86024e-05
-0.000149897
5.59422e-05
-0.000149454
6.4083e-05
-0.000149494
7.30857e-05
-0.000150072
8.30078e-05
-0.000151241
9.39117e-05
-0.000153058
0.000105879
-0.000155578
0.000119033
-0.000158822
0.000133555
-0.000162674
-0.000166703
0.000149692
8.87754e-07
-0.000160939
1.69936e-06
-0.000166537
2.86593e-06
-0.000166781
4.35049e-06
-0.00016615
6.15646e-06
-0.000165171
8.29525e-06
-0.000164002
1.0784e-05
-0.000162722
1.36467e-05
-0.000161385
1.69149e-05
-0.000160047
2.06282e-05
-0.00015877
2.48328e-05
-0.00015763
2.95809e-05
-0.000156712
3.49281e-05
-0.000156107
4.09305e-05
-0.0001559
4.76417e-05
-0.000156165
5.51095e-05
-0.000156962
6.33745e-05
-0.000158337
7.24719e-05
-0.000160339
8.24407e-05
-0.000163027
9.33392e-05
-0.000166477
0.000105269
-0.000170752
0.0001184
-0.000175804
-0.00018128
0.000132976
6.41323e-07
-0.00016158
1.22724e-06
-0.000167123
2.0453e-06
-0.000167599
3.11247e-06
-0.000167217
4.45358e-06
-0.000166512
6.09481e-06
-0.000165643
8.06464e-06
-0.000164691
1.03953e-05
-0.000163716
1.31236e-05
-0.000162775
1.62907e-05
-0.000161937
1.99411e-05
-0.00016128
2.41214e-05
-0.000160892
2.88782e-05
-0.000160864
3.42551e-05
-0.000161277
4.02899e-05
-0.0001622
4.70115e-05
-0.000163684
5.44386e-05
-0.000165764
6.25817e-05
-0.000168482
7.14514e-05
-0.000171896
8.10755e-05
-0.000176101
9.15241e-05
-0.0001812
0.00010294
-0.000187221
-0.000193903
0.000115564
5.13774e-07
-0.000162094
9.40347e-07
-0.000167549
1.49745e-06
-0.000168156
2.23928e-06
-0.000167959
3.20684e-06
-0.000167479
4.43733e-06
-0.000166874
5.96767e-06
-0.000166222
7.83561e-06
-0.000165584
1.00803e-05
-0.00016502
1.27421e-05
-0.000164599
1.58615e-05
-0.0001644
1.94777e-05
-0.000164509
2.36267e-05
-0.000165013
2.83388e-05
-0.000165989
3.36355e-05
-0.000167497
3.95273e-05
-0.000169575
4.60113e-05
-0.000172248
5.30729e-05
-0.000175543
6.06936e-05
-0.000179517
6.88662e-05
-0.000184274
7.76222e-05
-0.000189956
8.70694e-05
-0.000196668
-0.000204268
9.74338e-05
4.70297e-07
-0.000162565
7.85029e-07
-0.000167864
1.15106e-06
-0.000168522
1.64264e-06
-0.000168451
2.31156e-06
-0.000168148
3.20311e-06
-0.000167765
4.35947e-06
-0.000167378
5.82106e-06
-0.000167045
7.62667e-06
-0.000166826
9.81349e-06
-0.000166786
1.24158e-05
-0.000167002
1.54639e-05
-0.000167557
1.89824e-05
-0.000168531
2.2988e-05
-0.000169995
2.74872e-05
-0.000171996
3.24732e-05
-0.000174561
3.79238e-05
-0.000177699
4.38017e-05
-0.000181421
5.00597e-05
-0.000185775
5.66551e-05
-0.000190869
6.35767e-05
-0.000196878
7.08893e-05
-0.000203981
-0.000212174
7.8796e-05
4.65524e-07
-0.00016303
7.09645e-07
-0.000168108
9.41401e-07
-0.000168754
1.24169e-06
-0.000168751
1.67167e-06
-0.000168578
2.28194e-06
-0.000168376
3.11749e-06
-0.000168214
4.21849e-06
-0.000168146
5.62104e-06
-0.000168228
7.35696e-06
-0.000168522
9.45283e-06
-0.000169098
1.19289e-05
-0.000170033
1.47982e-05
-0.0001714
1.80645e-05
-0.000173261
2.17206e-05
-0.000175652
2.57449e-05
-0.000178586
3.00992e-05
-0.000182053
3.47266e-05
-0.000186048
3.95548e-05
-0.000190603
4.45065e-05
-0.000195821
4.95263e-05
-0.000201898
5.46309e-05
-0.000209085
-0.000217532
5.99885e-05
4.80271e-07
-0.00016351
6.85431e-07
-0.000168313
8.1535e-07
-0.000168884
9.66781e-07
-0.000168903
1.20355e-06
-0.000168815
1.57816e-06
-0.00016875
2.1362e-06
-0.000168772
2.91441e-06
-0.000168925
3.94461e-06
-0.000169259
5.25179e-06
-0.000169829
6.85359e-06
-0.0001707
8.75985e-06
-0.000171939
1.0972e-05
-0.000173612
1.34818e-05
-0.000175771
1.62702e-05
-0.000178441
1.93036e-05
-0.000181619
2.25311e-05
-0.000185281
2.58807e-05
-0.000189398
2.92587e-05
-0.000193981
3.25572e-05
-0.000199119
3.56779e-05
-0.000205018
3.85852e-05
-0.000211993
-0.000220346
4.13996e-05
4.93717e-07
-0.000164004
6.70442e-07
-0.00016849
7.2673e-07
-0.00016894
7.61146e-07
-0.000168937
8.40558e-07
-0.000168895
1.01697e-06
-0.000168927
1.33055e-06
-0.000169085
1.81802e-06
-0.000169412
2.50418e-06
-0.000169945
3.40582e-06
-0.000170731
4.53114e-06
-0.000171825
5.87942e-06
-0.000173287
7.44084e-06
-0.000175174
9.19639e-06
-0.000177526
1.11164e-05
-0.000180361
1.31581e-05
-0.000183661
1.52614e-05
-0.000187384
1.73432e-05
-0.00019148
1.92938e-05
-0.000195931
2.09795e-05
-0.000200805
2.22628e-05
-0.000206302
2.30547e-05
-0.000212785
-0.000220709
2.34175e-05
4.96394e-07
-0.000164501
6.47131e-07
-0.000168641
6.43358e-07
-0.000168936
5.81592e-07
-0.000168876
5.27888e-07
-0.000168841
5.32391e-07
-0.000168931
6.34701e-07
-0.000169188
8.61664e-07
-0.000169639
1.23201e-06
-0.000170315
1.75438e-06
-0.000171253
2.42754e-06
-0.000172498
3.2406e-06
-0.0001741
4.17342e-06
-0.000176107
5.19656e-06
-0.00017855
6.27159e-06
-0.000181436
7.34834e-06
-0.000184738
8.36031e-06
-0.000188396
9.21766e-06
-0.000192337
9.79976e-06
-0.000196514
9.95321e-06
-0.000200958
9.50665e-06
-0.000205855
8.31934e-06
-0.000211597
-0.000218772
6.38236e-06
4.85716e-07
-0.000164986
6.03132e-07
-0.000168758
5.43978e-07
-0.000168877
3.99701e-07
-0.000168731
2.33333e-07
-0.000168675
9.11396e-08
-0.000168789
6.45259e-09
-0.000169103
5.80027e-10
-0.000169633
8.42607e-08
-0.000170399
2.57571e-07
-0.000171426
5.10155e-07
-0.00017275
8.21592e-07
-0.000174412
1.16207e-06
-0.000176447
1.49339e-06
-0.000178881
1.76892e-06
-0.000181711
1.93238e-06
-0.000184901
1.91318e-06
-0.000188376
1.61808e-06
-0.000192042
9.20634e-07
-0.000195816
-3.45893e-07
-0.000199692
-2.38166e-06
-0.000203819
-5.38212e-06
-0.000208597
-0.000214726
-9.42852e-06
4.58423e-07
-0.000165445
5.31257e-07
-0.000168831
4.15487e-07
-0.000168762
1.98432e-07
-0.000168514
-6.49467e-08
-0.000168411
-3.33305e-07
-0.00016852
-5.79879e-07
-0.000168856
-7.90447e-07
-0.000169422
-9.62193e-07
-0.000170227
-1.10334e-06
-0.000171285
-1.23276e-06
-0.000172621
-1.37945e-06
-0.000174265
-1.58168e-06
-0.000176245
-1.88575e-06
-0.000178577
-2.34516e-06
-0.000181252
-3.02126e-06
-0.000184225
-3.9873e-06
-0.00018741
-5.33733e-06
-0.000190692
-7.19916e-06
-0.000193954
-9.74654e-06
-0.000197145
-1.32008e-05
-0.000200365
-1.78052e-05
-0.000203993
-0.000208803
-2.37283e-05
4.16141e-07
-0.000165861
4.31116e-07
-0.000168846
2.58401e-07
-0.000168589
-2.79709e-08
-0.000168228
-3.75273e-07
-0.000168064
-7.50236e-07
-0.000168145
-1.13397e-06
-0.000168472
-1.52007e-06
-0.000169036
-1.91364e-06
-0.000169833
-2.33066e-06
-0.000170868
-2.79759e-06
-0.000172154
-3.35075e-06
-0.000173712
-4.03552e-06
-0.00017556
-4.90498e-06
-0.000177707
-6.0186e-06
-0.000180138
-7.44202e-06
-0.000182802
-9.25029e-06
-0.000185602
-1.15365e-05
-0.000188406
-1.44263e-05
-0.000191065
-1.80951e-05
-0.000193476
-2.27788e-05
-0.000195682
-2.87628e-05
-0.000198009
-0.000201255
-3.63105e-05
3.63172e-07
-0.000166224
3.05239e-07
-0.000168788
6.96751e-08
-0.000168353
-2.78992e-07
-0.000167879
-6.96337e-07
-0.000167647
-1.15771e-06
-0.000167684
-1.65294e-06
-0.000167977
-2.18388e-06
-0.000168505
-2.76331e-06
-0.000169254
-3.41427e-06
-0.000170217
-4.16963e-06
-0.000171399
-5.07163e-06
-0.00017281
-6.17117e-06
-0.000174461
-7.52661e-06
-0.000176352
-9.20218e-06
-0.000178463
-1.12671e-05
-0.000180737
-1.37975e-05
-0.000183072
-1.68845e-05
-0.000185319
-2.06491e-05
-0.0001873
-2.5263e-05
-0.000188862
-3.09687e-05
-0.000189976
-3.80852e-05
-0.000190892
-0.000192373
-4.6967e-05
3.11628e-07
-0.000166535
1.62515e-07
-0.000168639
-1.41833e-07
-0.000168049
-5.4691e-07
-0.000167474
-1.0193e-06
-0.000167174
-1.54534e-06
-0.000167158
-2.12478e-06
-0.000167398
-2.76803e-06
-0.000167862
-3.49522e-06
-0.000168527
-4.33552e-06
-0.000169377
-5.32691e-06
-0.000170407
-6.516e-06
-0.000171621
-7.95753e-06
-0.000173019
-9.71343e-06
-0.000174596
-1.18511e-05
-0.000176325
-1.44423e-05
-0.000178146
-1.75637e-05
-0.00017995
-2.13035e-05
-0.000181579
-2.57754e-05
-0.000182828
-3.11423e-05
-0.000183495
-3.76433e-05
-0.000183475
-4.56154e-05
-0.00018292
-0.000182506
-5.54826e-05
2.75304e-07
-0.000166811
9.39358e-09
-0.000168373
-3.68042e-07
-0.000167671
-8.21005e-07
-0.000167021
-1.33083e-06
-0.000166664
-1.89747e-06
-0.000166591
-2.53185e-06
-0.000166763
-3.25307e-06
-0.000167141
-4.08804e-06
-0.000167692
-5.07098e-06
-0.000168394
-6.24364e-06
-0.000169235
-7.65539e-06
-0.000170209
-9.36312e-06
-0.000171312
-1.14305e-05
-0.000172529
-1.39265e-05
-0.000173829
-1.69238e-05
-0.000175148
-2.04984e-05
-0.000176376
-2.47343e-05
-0.000177343
-2.97361e-05
-0.000177826
-3.5652e-05
-0.000177579
-4.27064e-05
-0.000176421
-5.12335e-05
-0.000174393
-0.000172048
-6.16909e-05
2.68325e-07
-0.000167079
-1.50104e-07
-0.000167954
-6.03174e-07
-0.000167218
-1.09058e-06
-0.000166534
-1.61611e-06
-0.000166139
-2.19642e-06
-0.000166011
-2.85436e-06
-0.000166105
-3.61758e-06
-0.000166378
-4.51879e-06
-0.00016679
-5.59606e-06
-0.000167316
-6.89346e-06
-0.000167937
-8.46166e-06
-0.000168641
-1.03581e-05
-0.000169415
-1.26466e-05
-0.00017024
-1.53959e-05
-0.00017108
-1.86777e-05
-0.000171866
-2.2566e-05
-0.000172487
-2.71392e-05
-0.00017277
-3.24899e-05
-0.000172476
-3.87469e-05
-0.000171322
-4.61088e-05
-0.000169059
-5.48855e-05
-0.000165616
-0.000161405
-6.5529e-05
2.81707e-07
-0.000167361
-3.28258e-07
-0.000167344
-8.49009e-07
-0.000166697
-1.34806e-06
-0.000166035
-1.86178e-06
-0.000165625
-2.42549e-06
-0.000165447
-3.07377e-06
-0.000165457
-3.84175e-06
-0.00016561
-4.76655e-06
-0.000165866
-5.88859e-06
-0.000166194
-7.25287e-06
-0.000166573
-8.90996e-06
-0.000166984
-1.09166e-05
-0.000167409
-1.33353e-05
-0.000167822
-1.62332e-05
-0.000168182
-1.96797e-05
-0.00016842
-2.3745e-05
-0.000168422
-2.85e-05
-0.000168015
-3.40234e-05
-0.000166952
-4.04202e-05
-0.000164925
-4.7855e-05
-0.000161624
-5.6596e-05
-0.000156875
-0.000150944
-6.70566e-05
2.69681e-07
-0.00016763
-5.53615e-07
-0.000166521
-1.11507e-06
-0.000166136
-1.58997e-06
-0.00016556
-2.05747e-06
-0.000165157
-2.5712e-06
-0.000164934
-3.17544e-06
-0.000164853
-3.91051e-06
-0.000164874
-4.81585e-06
-0.00016496
-5.93247e-06
-0.000165078
-7.30477e-06
-0.000165201
-8.98203e-06
-0.000165307
-1.10192e-05
-0.000165371
-1.34768e-05
-0.000165364
-1.64193e-05
-0.00016524
-1.99133e-05
-0.000164926
-2.40239e-05
-0.000164312
-2.88134e-05
-0.000163225
-3.43452e-05
-0.00016142
-4.06977e-05
-0.000158573
-4.79956e-05
-0.000154326
-5.64551e-05
-0.000148416
-0.000140969
-6.64306e-05
1.05138e-07
-0.000167735
-8.71522e-07
-0.000165544
-1.41428e-06
-0.000165593
-1.81378e-06
-0.00016516
-2.19442e-06
-0.000164777
-2.62342e-06
-0.000164505
-3.15e-06
-0.000164326
-3.81582e-06
-0.000164208
-4.65978e-06
-0.000164116
-5.72127e-06
-0.000164016
-7.04251e-06
-0.00016388
-8.67033e-06
-0.000163679
-1.06571e-05
-0.000163385
-1.30609e-05
-0.00016296
-1.59437e-05
-0.000162357
-1.9369e-05
-0.000161501
-2.33973e-05
-0.000160283
-2.8083e-05
-0.00015854
-3.34738e-05
-0.00015603
-3.96214e-05
-0.000152425
-4.66078e-05
-0.000147339
-5.45919e-05
-0.000140432
-0.000131699
-6.38615e-05
-3.17425e-07
-0.000167418
-1.32306e-06
-0.000164538
-1.75063e-06
-0.000165165
-2.00951e-06
-0.000164901
-2.26094e-06
-0.000164525
-2.57361e-06
-0.000164192
-2.99346e-06
-0.000163906
-3.55815e-06
-0.000163644
-4.3025e-06
-0.000163372
-5.2618e-06
-0.000163057
-6.47435e-06
-0.000162667
-7.98335e-06
-0.00016217
-9.83796e-06
-0.00016153
-1.20934e-05
-0.000160705
-1.48094e-05
-0.000159641
-1.80474e-05
-0.000158263
-2.18653e-05
-0.000156465
-2.63121e-05
-0.000154093
-3.14237e-05
-0.000150918
-3.72272e-05
-0.000146622
-4.37633e-05
-0.000140803
-5.11325e-05
-0.000133062