/*--------------------------------*- C++ -*----------------------------------*\
  =========                 |
  \\      /  F ield         | OpenFOAM: The Open Source CFD Toolbox
   \\    /   O peration     | Website:  https://openfoam.org
    \\  /    A nd           | Version:  9
     \\/     M anipulation  |
\*---------------------------------------------------------------------------*/
FoamFile
{
    format      ascii;
    class       volVectorField;
    location    "0.35";
    object      U;
}
// * * * * * * * * * * * * * * * * * * * * * * * * * * * * * * * * * * * * * //

dimensions      [0 1 -1 0 0 0 0];

internalField   nonuniform List<vector> 
2268
(
(-0.109738 0.125118 0)
(-0.695453 -0.024939 0)
(-0.384987 -0.0355029 0)
(-0.428805 0.015924 0)
(-0.484733 0.0150211 0)
(-0.519807 0.0119884 0)
(-0.545897 0.00457234 0)
(-0.545837 -0.00283867 0)
(-0.525727 -0.00875912 0)
(-0.491852 -0.0132912 0)
(-0.444515 -0.0178174 0)
(-0.383529 -0.0227235 0)
(-0.307498 -0.0284663 0)
(-0.21368 -0.0354777 0)
(-0.0996327 -0.0440403 0)
(0.0363694 -0.0532059 0)
(0.19262 -0.0605538 0)
(0.358179 -0.0616331 0)
(0.509241 -0.0516334 0)
(0.613989 -0.0178312 0)
(0.595816 0.0349583 0)
(0.3787 0.0748779 0)
(0.0743747 0.0553541 0)
(-0.0906128 0.283602 0)
(-0.487222 0.0497436 0)
(-0.499875 -0.0299052 0)
(-0.543227 0.0313216 0)
(-0.595832 0.0302605 0)
(-0.620155 0.0204778 0)
(-0.630533 0.00637438 0)
(-0.624098 -0.00761729 0)
(-0.605253 -0.0193516 0)
(-0.572157 -0.0294682 0)
(-0.526113 -0.0392419 0)
(-0.467153 -0.0494548 0)
(-0.394378 -0.0609627 0)
(-0.306204 -0.074514 0)
(-0.200808 -0.0900577 0)
(-0.0769351 -0.106039 0)
(0.0634323 -0.11851 0)
(0.211775 -0.117845 0)
(0.350324 -0.0925506 0)
(0.442582 -0.0271792 0)
(0.500947 0.0768007 0)
(0.431926 0.175109 0)
(0.155064 0.161319 0)
(-0.0805095 0.414124 0)
(-0.349762 0.13618 0)
(-0.508863 0.0184687 0)
(-0.562762 0.0554806 0)
(-0.619433 0.0475683 0)
(-0.647606 0.0290456 0)
(-0.661841 0.00761929 0)
(-0.66026 -0.0127682 0)
(-0.645182 -0.0306471 0)
(-0.616399 -0.0468132 0)
(-0.575241 -0.0622886 0)
(-0.522215 -0.0781361 0)
(-0.45689 -0.0956432 0)
(-0.378604 -0.115669 0)
(-0.286297 -0.138137 0)
(-0.179014 -0.161279 0)
(-0.0584898 -0.179245 0)
(0.0690486 -0.1799 0)
(0.189814 -0.145512 0)
(0.276198 -0.0629784 0)
(0.317516 0.0749503 0)
(0.30979 0.237296 0)
(0.148455 0.270898 0)
(-0.0760703 0.518493 0)
(-0.286083 0.223157 0)
(-0.498416 0.0790096 0)
(-0.5641 0.0865299 0)
(-0.626751 0.0680075 0)
(-0.660364 0.0407178 0)
(-0.679575 0.0118249 0)
(-0.683214 -0.0154228 0)
(-0.67326 -0.0397355 0)
(-0.650253 -0.0618405 0)
(-0.615607 -0.0828562 0)
(-0.570331 -0.104049 0)
(-0.51459 -0.126952 0)
(-0.448554 -0.152746 0)
(-0.372051 -0.181259 0)
(-0.284542 -0.210515 0)
(-0.187096 -0.233406 0)
(-0.0834738 -0.235107 0)
(0.0177668 -0.193256 0)
(0.0986699 -0.0917129 0)
(0.142599 0.069768 0)
(0.158715 0.269904 0)
(0.100534 0.352889 0)
(-0.0731891 0.598562 0)
(-0.244581 0.321443 0)
(-0.487268 0.147291 0)
(-0.560321 0.122084 0)
(-0.62723 0.0908038 0)
(-0.665541 0.0546626 0)
(-0.689567 0.0184023 0)
(-0.698553 -0.0155852 0)
(-0.694333 -0.046143 0)
(-0.6778 -0.073877 0)
(-0.650481 -0.0999572 0)
(-0.613853 -0.125791 0)
(-0.568727 -0.153018 0)
(-0.516073 -0.183052 0)
(-0.456719 -0.215768 0)
(-0.390887 -0.249189 0)
(-0.319314 -0.275865 0)
(-0.243192 -0.279413 0)
(-0.165275 -0.234237 0)
(-0.0917205 -0.120417 0)
(-0.0334112 0.0569906 0)
(0.00471343 0.270746 0)
(0.035691 0.393534 0)
(-0.0829189 0.66178 0)
(-0.231765 0.427362 0)
(-0.482139 0.217719 0)
(-0.555112 0.159208 0)
(-0.623186 0.115132 0)
(-0.665215 0.0706129 0)
(-0.69376 0.0273394 0)
(-0.708062 -0.0130968 0)
(-0.709748 -0.0495784 0)
(-0.699891 -0.0825434 0)
(-0.680124 -0.113135 0)
(-0.652307 -0.142823 0)
(-0.617859 -0.173233 0)
(-0.578464 -0.205892 0)
(-0.535948 -0.240737 0)
(-0.491591 -0.275949 0)
(-0.446517 -0.304523 0)
(-0.40043 -0.310394 0)
(-0.350278 -0.266898 0)
(-0.288845 -0.150249 0)
(-0.213742 0.034508 0)
(-0.138212 0.251885 0)
(-0.0330239 0.373691 0)
(-0.118716 0.727438 0)
(-0.260913 0.527713 0)
(-0.484618 0.281295 0)
(-0.548884 0.194351 0)
(-0.615002 0.140178 0)
(-0.660189 0.0884098 0)
(-0.693149 0.0386241 0)
(-0.712726 -0.00792413 0)
(-0.720275 -0.0499997 0)
(-0.716993 -0.0878253 0)
(-0.704597 -0.122428 0)
(-0.685225 -0.155281 0)
(-0.660785 -0.187908 0)
(-0.6335 -0.221814 0)
(-0.605995 -0.256945 0)
(-0.58057 -0.291621 0)
(-0.559189 -0.31968 0)
(-0.541551 -0.327025 0)
(-0.521296 -0.28933 0)
(-0.479134 -0.181084 0)
(-0.390572 -0.00160422 0)
(-0.261344 0.205488 0)
(-0.0910602 0.303523 0)
(-0.187065 0.836293 0)
(-0.35082 0.609143 0)
(-0.487507 0.327813 0)
(-0.538114 0.225508 0)
(-0.601934 0.165665 0)
(-0.65088 0.108076 0)
(-0.688549 0.052274 0)
(-0.713486 -9.04724e-05 0)
(-0.726816 -0.0474963 0)
(-0.729854 -0.0898757 0)
(-0.72443 -0.128111 0)
(-0.712821 -0.163573 0)
(-0.697261 -0.197709 0)
(-0.680322 -0.231854 0)
(-0.665023 -0.26592 0)
(-0.654287 -0.298267 0)
(-0.650674 -0.323583 0)
(-0.654574 -0.330513 0)
(-0.659616 -0.299905 0)
(-0.641372 -0.209932 0)
(-0.555414 -0.0578011 0)
(-0.382079 0.108474 0)
(-0.151332 0.163105 0)
(0.052623 -0.0212049 0)
(0.05196 0.0119695 0)
(-0.043765 0.0234596 0)
(-0.115683 0.0189415 0)
(-0.166527 0.012777 0)
(-0.196042 0.00638685 0)
(-0.207238 0.00137583 0)
(-0.204625 -0.0018758 0)
(-0.193821 -0.00386051 0)
(-0.177454 -0.0051849 0)
(-0.157141 -0.00616032 0)
(-0.133907 -0.00691897 0)
(-0.108455 -0.00753382 0)
(-0.0813448 -0.00800477 0)
(-0.0532589 -0.00832244 0)
(-0.0254111 -0.00814506 0)
(0.00062269 -0.006389 0)
(0.0185822 -0.00278583 0)
(0.01619 0.00501167 0)
(0.0144482 -0.0298828 0)
(-0.0198278 0.0379609 0)
(-0.107946 0.0516696 0)
(-0.16775 0.0395769 0)
(-0.204087 0.0250921 0)
(-0.221754 0.0120377 0)
(-0.22588 0.00215229 0)
(-0.221178 -0.00457985 0)
(-0.209696 -0.00903935 0)
(-0.193031 -0.012108 0)
(-0.172611 -0.0143275 0)
(-0.149422 -0.0159786 0)
(-0.12419 -0.0172179 0)
(-0.0975322 -0.0180492 0)
(-0.0701207 -0.0183709 0)
(-0.0430451 -0.017623 0)
(-0.0178742 -0.0143188 0)
(0.00360023 -0.00550527 0)
(0.00931735 0.0102914 0)
(-0.0319184 -0.0174465 0)
(-0.0786201 0.0640365 0)
(-0.148274 0.0765692 0)
(-0.193237 0.0566473 0)
(-0.219864 0.0343873 0)
(-0.232792 0.0155647 0)
(-0.235074 0.00161804 0)
(-0.229469 -0.00815174 0)
(-0.217619 -0.0149466 0)
(-0.201031 -0.0197629 0)
(-0.18094 -0.0232662 0)
(-0.158273 -0.0258547 0)
(-0.133741 -0.0277544 0)
(-0.10797 -0.0289891 0)
(-0.0815997 -0.0293921 0)
(-0.0555713 -0.0282646 0)
(-0.0311742 -0.023863 0)
(-0.00946166 -0.0124692 0)
(0.000540872 0.0108221 0)
(-0.067369 0.014991 0)
(-0.126188 0.0906296 0)
(-0.181286 0.0969134 0)
(-0.215652 0.0699003 0)
(-0.234837 0.0415963 0)
(-0.243524 0.0181482 0)
(-0.243535 0.00060394 0)
(-0.236701 -0.0119836 0)
(-0.224331 -0.0209659 0)
(-0.207703 -0.0274247 0)
(-0.187868 -0.0321511 0)
(-0.165673 -0.0356318 0)
(-0.141784 -0.0381566 0)
(-0.116796 -0.0397644 0)
(-0.091285 -0.0402461 0)
(-0.0660121 -0.0388116 0)
(-0.0418936 -0.033523 0)
(-0.0194076 -0.0200632 0)
(-0.00547 0.00713158 0)
(-0.100045 0.0643963 0)
(-0.170754 0.117322 0)
(-0.213119 0.113193 0)
(-0.238643 0.0796404 0)
(-0.250863 0.0464864 0)
(-0.255107 0.0193231 0)
(-0.252431 -0.00123982 0)
(-0.244055 -0.0162784 0)
(-0.230933 -0.0272133 0)
(-0.214076 -0.0351711 0)
(-0.194348 -0.0410263 0)
(-0.172491 -0.0453316 0)
(-0.149102 -0.0484279 0)
(-0.124711 -0.0503754 0)
(-0.0997983 -0.050949 0)
(-0.0749202 -0.0493241 0)
(-0.0506015 -0.0434911 0)
(-0.0267773 -0.0288916 0)
(-0.00908559 0.00086529 0)
(-0.135048 0.129708 0)
(-0.218012 0.144333 0)
(-0.246424 0.125469 0)
(-0.263075 0.0858788 0)
(-0.268179 0.0488979 0)
(-0.267665 0.0188947 0)
(-0.261962 -0.00406088 0)
(-0.251762 -0.0211261 0)
(-0.237654 -0.0337265 0)
(-0.220369 -0.0429959 0)
(-0.20058 -0.0498543 0)
(-0.178902 -0.0549 0)
(-0.155842 -0.0585152 0)
(-0.131841 -0.0607875 0)
(-0.10726 -0.0615029 0)
(-0.0824473 -0.0598565 0)
(-0.0575648 -0.0538637 0)
(-0.0321184 -0.0388719 0)
(-0.0112537 -0.00721605 0)
(-0.176011 0.214015 0)
(-0.272254 0.171105 0)
(-0.282668 0.132998 0)
(-0.289095 0.0883702 0)
(-0.286664 0.0486885 0)
(-0.281078 0.0167329 0)
(-0.27208 -0.00797487 0)
(-0.25982 -0.0266197 0)
(-0.244516 -0.040577 0)
(-0.226618 -0.0509525 0)
(-0.2066 -0.0586784 0)
(-0.184938 -0.0643805 0)
(-0.162031 -0.0684733 0)
(-0.138217 -0.0710773 0)
(-0.113728 -0.0720116 0)
(-0.0887128 -0.0705328 0)
(-0.0630295 -0.0647309 0)
(-0.0359177 -0.0498443 0)
(-0.0126286 -0.0165355 0)
(-0.24757 0.343116 0)
(-0.332095 0.189063 0)
(-0.322666 0.133813 0)
(-0.3164 0.0864773 0)
(-0.306033 0.0456352 0)
(-0.295157 0.0127076 0)
(-0.282679 -0.0130761 0)
(-0.268172 -0.0328362 0)
(-0.251494 -0.0478286 0)
(-0.232814 -0.0590983 0)
(-0.212413 -0.0675514 0)
(-0.190615 -0.0738274 0)
(-0.1677 -0.0783615 0)
(-0.14389 -0.0813132 0)
(-0.11929 -0.0825501 0)
(-0.093869 -0.081415 0)
(-0.0672457 -0.0760858 0)
(-0.0385695 -0.0616351 0)
(-0.0135634 -0.0266392 0)
(0.0183208 1.15066 0)
(-0.363009 0.715182 0)
(-0.454305 0.376661 0)
(-0.504445 0.270295 0)
(-0.573238 0.206824 0)
(-0.631095 0.141855 0)
(-0.677158 0.0771646 0)
(-0.710748 0.0160649 0)
(-0.732982 -0.0392376 0)
(-0.74538 -0.0882417 0)
(-0.749954 -0.131555 0)
(-0.749021 -0.17031 0)
(-0.745029 -0.205901 0)
(-0.740702 -0.239238 0)
(-0.73899 -0.270235 0)
(-0.742799 -0.297276 0)
(-0.754509 -0.316234 0)
(-0.774831 -0.319702 0)
(-0.799555 -0.296634 0)
(-0.810392 -0.235448 0)
(-0.769669 -0.137859 0)
(-0.653586 -0.0353927 0)
(-0.524553 0.0329818 0)
(0.0162697 1.04343 0)
(0.0146556 1.06069 0)
(-0.305048 0.503258 0)
(-0.418822 0.367968 0)
(-0.520692 0.284171 0)
(-0.598208 0.203135 0)
(-0.658178 0.124242 0)
(-0.703783 0.0505856 0)
(-0.737305 -0.0155622 0)
(-0.760721 -0.0733886 0)
(-0.7762 -0.123252 0)
(-0.78606 -0.166175 0)
(-0.792667 -0.203331 0)
(-0.798426 -0.235584 0)
(-0.805679 -0.262874 0)
(-0.816457 -0.283915 0)
(-0.832098 -0.295889 0)
(-0.852637 -0.294476 0)
(-0.875344 -0.274073 0)
(-0.891541 -0.22888 0)
(-0.88641 -0.158751 0)
(-0.85143 -0.0794679 0)
(-0.801555 -0.01855 0)
(-0.0470886 1.0843 0)
(-0.0324089 1.08859 0)
(-0.269011 0.662582 0)
(-0.368057 0.495546 0)
(-0.482371 0.380374 0)
(-0.571098 0.278147 0)
(-0.641465 0.182976 0)
(-0.697109 0.0957412 0)
(-0.740195 0.0181472 0)
(-0.772622 -0.0489808 0)
(-0.796476 -0.105903 0)
(-0.813959 -0.153595 0)
(-0.827265 -0.193292 0)
(-0.838445 -0.225979 0)
(-0.849286 -0.251932 0)
(-0.861101 -0.270449 0)
(-0.874466 -0.279754 0)
(-0.888852 -0.277167 0)
(-0.901811 -0.259537 0)
(-0.907657 -0.224451 0)
(-0.898215 -0.173487 0)
(-0.868633 -0.115598 0)
(-0.824052 -0.0629237 0)
(-0.0968901 1.193 0)
(-0.0818611 1.18627 0)
(-0.280289 0.810003 0)
(-0.351646 0.61795 0)
(-0.459635 0.480189 0)
(-0.550967 0.360404 0)
(-0.627647 0.250228 0)
(-0.690933 0.149608 0)
(-0.741791 0.0601979 0)
(-0.781512 -0.0169236 0)
(-0.81184 -0.0817713 0)
(-0.834781 -0.135279 0)
(-0.852353 -0.178788 0)
(-0.866391 -0.213548 0)
(-0.878366 -0.240262 0)
(-0.889229 -0.258858 0)
(-0.899233 -0.268481 0)
(-0.907713 -0.267711 0)
(-0.912688 -0.25501 0)
(-0.910486 -0.229673 0)
(-0.89658 -0.193583 0)
(-0.868353 -0.15228 0)
(-0.827981 -0.112197 0)
(-0.118826 1.30117 0)
(-0.0795846 1.26759 0)
(-0.270523 0.920149 0)
(-0.33711 0.72523 0)
(-0.4408 0.577796 0)
(-0.533714 0.446273 0)
(-0.615113 0.323598 0)
(-0.684524 0.21044 0)
(-0.741824 0.109112 0)
(-0.787601 0.0213318 0)
(-0.823148 -0.0524412 0)
(-0.850207 -0.112944 0)
(-0.870644 -0.161597 0)
(-0.886178 -0.199933 0)
(-0.898157 -0.229113 0)
(-0.907409 -0.249664 0)
(-0.914133 -0.261483 0)
(-0.917784 -0.264052 0)
(-0.916939 -0.256837 0)
(-0.909307 -0.239938 0)
(-0.892383 -0.214976 0)
(-0.864708 -0.185339 0)
(-0.827357 -0.154675 0)
(-0.123103 1.39589 0)
(-0.0663797 1.35065 0)
(-0.247983 1.01937 0)
(-0.319069 0.827224 0)
(-0.421896 0.675297 0)
(-0.517108 0.53533 0)
(-0.60271 0.401987 0)
(-0.677322 0.277068 0)
(-0.74012 0.163818 0)
(-0.791092 0.0647888 0)
(-0.831063 -0.0188995 0)
(-0.861457 -0.0875951 0)
(-0.88398 -0.142697 0)
(-0.900298 -0.185973 0)
(-0.911756 -0.219015 0)
(-0.919219 -0.242905 0)
(-0.922982 -0.258168 0)
(-0.922746 -0.264952 0)
(-0.917605 -0.263351 0)
(-0.906196 -0.253846 0)
(-0.887133 -0.237749 0)
(-0.85957 -0.217237 0)
(-0.824124 -0.194586 0)
(-0.120428 1.47753 0)
(-0.0535791 1.43283 0)
(-0.222713 1.11673 0)
(-0.299877 0.928842 0)
(-0.40306 0.774448 0)
(-0.500792 0.627691 0)
(-0.590151 0.484789 0)
(-0.669219 0.348669 0)
(-0.73674 0.223522 0)
(-0.792247 0.112759 0)
(-0.836106 0.0182595 0)
(-0.869387 -0.0597908 0)
(-0.8936 -0.122602 0)
(-0.910363 -0.172074 0)
(-0.921086 -0.210163 0)
(-0.926761 -0.238447 0)
(-0.927873 -0.25799 0)
(-0.924408 -0.269456 0)
(-0.915904 -0.27336 0)
(-0.901613 -0.270378 0)
(-0.8808 -0.261589 0)
(-0.852964 -0.248488 0)
(-0.818541 -0.232603 0)
(-0.119275 1.54694 0)
(-0.0425179 1.51021 0)
(-0.196236 1.2115 0)
(-0.280418 1.0308 0)
(-0.384722 0.875733 0)
(-0.485014 0.723229 0)
(-0.577633 0.571431 0)
(-0.660418 0.424516 0)
(-0.731918 0.287538 0)
(-0.791352 0.164702 0)
(-0.838681 0.0586453 0)
(-0.874589 -0.029821 0)
(-0.900333 -0.101535 0)
(-0.917447 -0.158385 0)
(-0.92741 -0.202582 0)
(-0.93139 -0.236127 0)
(-0.930111 -0.260556 0)
(-0.923855 -0.276966 0)
(-0.912533 -0.286197 0)
(-0.895833 -0.289062 0)
(-0.873426 -0.2865 0)
(-0.845037 -0.279622 0)
(-0.811052 -0.269512 0)
(-0.132375 1.6057 0)
(-0.033193 1.58152 0)
(-0.168009 1.3034 0)
(-0.261457 1.13397 0)
(-0.367766 0.979555 0)
(-0.470451 0.821646 0)
(-0.565643 0.661237 0)
(-0.651271 0.503823 0)
(-0.725931 0.355169 0)
(-0.788656 0.220105 0)
(-0.839056 0.101948 0)
(-0.877418 0.00217868 0)
(-0.904683 -0.0795324 0)
(-0.922224 -0.14488 0)
(-0.931553 -0.196182 0)
(-0.934008 -0.235764 0)
(-0.930574 -0.265576 0)
(-0.921831 -0.287106 0)
(-0.908021 -0.301487 0)
(-0.889165 -0.309669 0)
(-0.86522 -0.312538 0)
(-0.836086 -0.31099 0)
(-0.802154 -0.305838 0)
(-0.164539 1.66916 0)
(-0.0167486 1.62212 0)
(-0.147239 1.39238 0)
(-0.245848 1.23986 0)
(-0.354175 1.08602 0)
(-0.458297 0.922194 0)
(-0.554807 0.753216 0)
(-0.642117 0.585634 0)
(-0.718976 0.425624 0)
(-0.784278 0.278418 0)
(-0.837322 0.147885 0)
(-0.87799 0.0361542 0)
(-0.906844 -0.056498 0)
(-0.925016 -0.131386 0)
(-0.933965 -0.190759 0)
(-0.93516 -0.237134 0)
(-0.929829 -0.272803 0)
(-0.918852 -0.299618 0)
(-0.902777 -0.319006 0)
(-0.881913 -0.332083 0)
(-0.856449 -0.339763 0)
(-0.826434 -0.342836 0)
(-0.792293 -0.341955 0)
(-0.21476 1.75575 0)
(0.0806021 1.65708 0)
(-0.143552 1.48584 0)
(-0.239057 1.34861 0)
(-0.346655 1.1932 0)
(-0.449726 1.02296 0)
(-0.545518 0.845816 0)
(-0.633031 0.668739 0)
(-0.711008 0.497996 0)
(-0.778121 0.339034 0)
(-0.833344 0.196148 0)
(-0.876157 0.0720743 0)
(-0.906702 -0.0322532 0)
(-0.925797 -0.117616 0)
(-0.934738 -0.185995 0)
(-0.935042 -0.239937 0)
(-0.92814 -0.281973 0)
(-0.915194 -0.314283 0)
(-0.897052 -0.338596 0)
(-0.874293 -0.35624 0)
(-0.84732 -0.368229 0)
(-0.816323 -0.375338 0)
(-0.781781 -0.378135 0)
(-0.0272749 1.77737 0)
(-0.0637784 1.7225 0)
(-0.178294 1.57805 0)
(-0.244021 1.45311 0)
(-0.34555 1.29628 0)
(-0.444181 1.12106 0)
(-0.537144 0.937189 0)
(-0.623497 0.751857 0)
(-0.701608 0.571369 0)
(-0.769815 0.401337 0)
(-0.826761 0.246417 0)
(-0.871541 0.109909 0)
(-0.903883 -0.00657967 0)
(-0.924229 -0.103192 0)
(-0.93362 -0.181463 0)
(-0.933509 -0.243775 0)
(-0.925456 -0.29276 0)
(-0.910872 -0.330859 0)
(-0.890889 -0.360106 0)
(-0.866359 -0.382083 0)
(-0.837901 -0.397975 0)
(-0.805849 -0.408623 0)
(-0.770757 -0.414584 0)
(0.0316839 1.79532 0)
(-0.0511178 1.7956 0)
(-0.209983 1.66781 0)
(-0.246465 1.54925 0)
(-0.344774 1.39253 0)
(-0.438497 1.21474 0)
(-0.52798 1.02609 0)
(-0.612456 0.834039 0)
(-0.690037 0.645004 0)
(-0.758775 0.46479 0)
(-0.817041 0.298392 0)
(-0.863611 0.149622 0)
(-0.897831 0.020741 0)
(-0.919748 -0.087699 0)
(-0.930082 -0.176652 0)
(-0.930116 -0.248143 0)
(-0.921433 -0.304738 0)
(-0.905629 -0.349035 0)
(-0.884099 -0.383341 0)
(-0.857967 -0.409527 0)
(-0.828083 -0.429009 0)
(-0.794939 -0.442783 0)
(-0.759178 -0.451458 0)
(0.0168714 1.85391 0)
(-0.0627083 1.8712 0)
(-0.235356 1.75987 0)
(-0.246905 1.63936 0)
(-0.341576 1.48282 0)
(-0.430548 1.30397 0)
(-0.516521 1.11217 0)
(-0.598846 0.914798 0)
(-0.675488 0.718402 0)
(-0.744336 0.528968 0)
(-0.803579 0.351795 0)
(-0.851751 0.191152 0)
(-0.887884 0.0498943 0)
(-0.911649 -0.0707305 0)
(-0.923412 -0.171011 0)
(-0.924191 -0.252456 0)
(-0.915481 -0.317382 0)
(-0.898971 -0.368406 0)
(-0.876276 -0.408034 0)
(-0.848781 -0.438434 0)
(-0.81758 -0.461302 0)
(-0.783357 -0.477867 0)
(-0.74685 -0.488876 0)
(-0.00653513 1.92391 0)
(-0.0631753 1.93386 0)
(-0.234492 1.8464 0)
(-0.243451 1.72408 0)
(-0.33441 1.56828 0)
(-0.419163 1.38931 0)
(-0.501801 1.19545 0)
(-0.581843 0.993896 0)
(-0.657243 0.791213 0)
(-0.725854 0.593519 0)
(-0.785762 0.406367 0)
(-0.835341 0.234401 0)
(-0.87337 0.0810024 0)
(-0.899194 -0.0519336 0)
(-0.91282 -0.164004 0)
(-0.91494 -0.25609 0)
(-0.906856 -0.330088 0)
(-0.890239 -0.388466 0)
(-0.866851 -0.433827 0)
(-0.838314 -0.46859 0)
(-0.805973 -0.494766 0)
(-0.770738 -0.513882 0)
(-0.733463 -0.526909 0)
(-0.0198565 1.99165 0)
(-0.0567547 1.99454 0)
(-0.22214 1.92751 0)
(-0.236331 1.8051 0)
(-0.32343 1.64998 0)
(-0.40413 1.47112 0)
(-0.483372 1.2759 0)
(-0.560866 1.0711 0)
(-0.634695 0.863118 0)
(-0.702734 0.658122 0)
(-0.763013 0.461846 0)
(-0.813793 0.279241 0)
(-0.853661 0.114128 0)
(-0.88168 -0.0310252 0)
(-0.897528 -0.155144 0)
(-0.90154 -0.258426 0)
(-0.894742 -0.342204 0)
(-0.878676 -0.40863 0)
(-0.855156 -0.460264 0)
(-0.825987 -0.499696 0)
(-0.792761 -0.529245 0)
(-0.75664 -0.550781 0)
(-0.718641 -0.565582 0)
(-0.0234286 2.05401 0)
(-0.0510577 2.05572 0)
(-0.212264 2.00682 0)
(-0.228934 1.88294 0)
(-0.31006 1.7276 0)
(-0.385793 1.54898 0)
(-0.460989 1.35312 0)
(-0.535425 1.14601 0)
(-0.607274 0.933755 0)
(-0.674401 0.722457 0)
(-0.734772 0.517983 0)
(-0.786551 0.325529 0)
(-0.828175 0.149286 0)
(-0.858471 -0.00778546 0)
(-0.876818 -0.144005 0)
(-0.883207 -0.25887 0)
(-0.878324 -0.353062 0)
(-0.863496 -0.428255 0)
(-0.840479 -0.486806 0)
(-0.811181 -0.53136 0)
(-0.777411 -0.564498 0)
(-0.740595 -0.588452 0)
(-0.701969 -0.604867 0)
(-0.0231776 2.1113 0)
(-0.0467896 2.11759 0)
(-0.210156 2.08487 0)
(-0.222979 1.95462 0)
(-0.294665 1.79894 0)
(-0.363885 1.62165 0)
(-0.43411 1.42635 0)
(-0.504874 1.21813 0)
(-0.574316 1.00274 0)
(-0.640223 0.786228 0)
(-0.700455 0.574554 0)
(-0.753065 0.373132 0)
(-0.796359 0.186464 0)
(-0.828983 0.0179415 0)
(-0.850047 -0.130228 0)
(-0.859225 -0.256883 0)
(-0.856844 -0.362005 0)
(-0.843937 -0.446667 0)
(-0.822103 -0.512854 0)
(-0.793265 -0.563116 0)
(-0.759387 -0.600208 0)
(-0.722149 -0.626711 0)
(-0.683038 -0.644679 0)
(-0.0243785 2.16528 0)
(-0.0456163 2.1832 0)
(-0.208024 2.15862 0)
(-0.216876 2.01544 0)
(-0.275291 1.86176 0)
(-0.337009 1.68798 0)
(-0.401679 1.49488 0)
(-0.468296 1.28697 0)
(-0.534998 1.06975 0)
(-0.599474 0.849209 0)
(-0.659417 0.631396 0)
(-0.712748 0.421945 0)
(-0.757657 0.225645 0)
(-0.792648 0.0462669 0)
(-0.816617 -0.113522 0)
(-0.828945 -0.251986 0)
(-0.829606 -0.368405 0)
(-0.81929 -0.463172 0)
(-0.79935 -0.537746 0)
(-0.771623 -0.594423 0)
(-0.738161 -0.635987 0)
(-0.70086 -0.665312 0)
(-0.66147 -0.684884 0)
(-0.0275056 2.21634 0)
(-0.0553283 2.26467 0)
(-0.17765 2.22359 0)
(-0.205067 2.06474 0)
(-0.248211 1.91637 0)
(-0.303318 1.74789 0)
(-0.362422 1.5584 0)
(-0.424609 1.35224 0)
(-0.488356 1.13459 0)
(-0.551301 0.911267 0)
(-0.610919 0.688423 0)
(-0.664945 0.471913 0)
(-0.711465 0.266836 0)
(-0.748883 0.0772929 0)
(-0.775934 -0.0936439 0)
(-0.791746 -0.243752 0)
(-0.795956 -0.371667 0)
(-0.788887 -0.477068 0)
(-0.771578 -0.560771 0)
(-0.745676 -0.62465 0)
(-0.713233 -0.671357 0)
(-0.676316 -0.70394 0)
(-0.636925 -0.725298 0)
(-0.0303507 2.26269 0)
(-0.0514506 2.32578 0)
(-0.119546 2.28173 0)
(-0.182222 2.10953 0)
(-0.2121 1.96598 0)
(-0.262164 1.80197 0)
(-0.315478 1.6167 0)
(-0.372731 1.41367 0)
(-0.433309 1.19712 0)
(-0.494724 0.972378 0)
(-0.554086 0.74564 0)
(-0.608881 0.523056 0)
(-0.657084 0.310087 0)
(-0.697032 0.111149 0)
(-0.727349 -0.0703483 0)
(-0.746974 -0.231779 0)
(-0.755236 -0.371212 0)
(-0.752073 -0.487641 0)
(-0.73816 -0.581165 0)
(-0.714868 -0.653084 0)
(-0.684139 -0.70574 0)
(-0.648139 -0.742196 0)
(-0.609105 -0.765681 0)
(-0.0307653 2.30286 0)
(-0.0433599 2.35934 0)
(-0.0685214 2.33058 0)
(-0.149508 2.15516 0)
(-0.170557 2.01215 0)
(-0.214612 1.84963 0)
(-0.26017 1.66882 0)
(-0.311421 1.47074 0)
(-0.368551 1.25723 0)
(-0.42856 1.03263 0)
(-0.48788 0.803162 0)
(-0.543624 0.575479 0)
(-0.593651 0.35551 0)
(-0.63628 0.148 0)
(-0.670092 -0.0433643 0)
(-0.693877 -0.215652 0)
(-0.706707 -0.366466 0)
(-0.708141 -0.494168 0)
(-0.69844 -0.598123 0)
(-0.678622 -0.678935 0)
(-0.650416 -0.738458 0)
(-0.61598 -0.779582 0)
(-0.577753 -0.805726 0)
(-0.0269629 2.33575 0)
(-0.0343136 2.38047 0)
(-0.0402078 2.36073 0)
(-0.108537 2.20262 0)
(-0.125918 2.05083 0)
(-0.160601 1.88674 0)
(-0.194796 1.71241 0)
(-0.238583 1.52262 0)
(-0.292299 1.31501 0)
(-0.351378 1.09237 0)
(-0.411079 0.8613 0)
(-0.468037 0.629385 0)
(-0.520089 0.40328 0)
(-0.565593 0.188063 0)
(-0.603166 -0.0123752 0)
(-0.631516 -0.194913 0)
(-0.64948 -0.356813 0)
(-0.656247 -0.495885 0)
(-0.651646 -0.610776 0)
(-0.636274 -0.701322 0)
(-0.611536 -0.768724 0)
(-0.579467 -0.815491 0)
(-0.542613 -0.845044 0)
(-0.0165072 2.36016 0)
(-0.0208245 2.39795 0)
(-0.0229817 2.37054 0)
(-0.0556804 2.24275 0)
(-0.0706115 2.0814 0)
(-0.0920368 1.91019 0)
(-0.113553 1.74553 0)
(-0.150529 1.56924 0)
(-0.202259 1.37129 0)
(-0.261628 1.15246 0)
(-0.322392 0.920609 0)
(-0.380865 0.685104 0)
(-0.43509 0.45363 0)
(-0.483625 0.231578 0)
(-0.525266 0.0229786 0)
(-0.558654 -0.169039 0)
(-0.582391 -0.341558 0)
(-0.595304 -0.491939 0)
(-0.596786 -0.618146 0)
(-0.58696 -0.719219 0)
(-0.56681 -0.795582 0)
(-0.53811 -0.849153 0)
(-0.503374 -0.883119 0)
(0.00121999 2.3669 0)
(0.00224615 2.40916 0)
(0.00488144 2.36895 0)
(0.016657 2.2542 0)
(0.0141338 2.10237 0)
(0.00693107 1.92737 0)
(-0.00801125 1.77223 0)
(-0.0437778 1.61345 0)
(-0.0968462 1.42808 0)
(-0.158348 1.21408 0)
(-0.220768 0.981654 0)
(-0.280798 0.742837 0)
(-0.337085 0.50665 0)
(-0.388695 0.278777 0)
(-0.434693 0.0630978 0)
(-0.473656 -0.137437 0)
(-0.503877 -0.319931 0)
(-0.523831 -0.481376 0)
(-0.532488 -0.619117 0)
(-0.529473 -0.731418 0)
(-0.51525 -0.81785 0)
(-0.49118 -0.879564 0)
(-0.459583 -0.919241 0)
(0.0208361 2.3461 0)
(0.0369347 2.40738 0)
(0.0443175 2.34425 0)
(0.0855361 2.2549 0)
(0.130395 2.08216 0)
(0.13111 1.92872 0)
(0.115374 1.79692 0)
(0.077204 1.65932 0)
(0.0211329 1.48764 0)
(-0.0423855 1.27762 0)
(-0.105769 1.0441 0)
(-0.166557 0.802319 0)
(-0.224345 0.562223 0)
(-0.278876 0.329741 0)
(-0.329408 0.108387 0)
(-0.374424 -0.0994706 0)
(-0.411859 -0.291094 0)
(-0.439797 -0.463147 0)
(-0.456828 -0.612428 0)
(-0.462074 -0.736499 0)
(-0.455388 -0.834077 0)
(-0.437551 -0.90541 0)
(-0.41049 -0.952408 0)
(0.0377873 2.29674 0)
(0.0796305 2.38791 0)
(0.0889134 2.30566 0)
(0.129074 2.21051 0)
(0.272724 2.03645 0)
(0.261537 1.92345 0)
(0.233128 1.82274 0)
(0.196491 1.70749 0)
(0.142483 1.54878 0)
(0.0827065 1.34087 0)
(0.0222812 1.10577 0)
(-0.0369837 0.862144 0)
(-0.0951169 0.619769 0)
(-0.151982 0.384361 0)
(-0.207021 0.159142 0)
(-0.258389 -0.0545461 0)
(-0.303641 -0.254224 0)
(-0.340487 -0.436149 0)
(-0.367179 -0.596675 0)
(-0.382345 -0.732805 0)
(-0.385128 -0.842484 0)
(-0.375536 -0.92499 0)
(-0.354856 -0.981228 0)
(0.0509813 2.22127 0)
(0.118401 2.35024 0)
(0.143196 2.25967 0)
(0.191765 2.13961 0)
(0.261432 2.00898 0)
(0.344268 1.90096 0)
(0.313105 1.83865 0)
(0.289393 1.74998 0)
(0.256722 1.60435 0)
(0.214793 1.39836 0)
(0.163017 1.16348 0)
(0.108883 0.920146 0)
(0.0521118 0.678084 0)
(-0.00604443 0.442157 0)
(-0.0650187 0.215346 0)
(-0.122563 -0.00235116 0)
(-0.175921 -0.208661 0)
(-0.222448 -0.399296 0)
(-0.260152 -0.570312 0)
(-0.287136 -0.718398 0)
(-0.301678 -0.840901 0)
(-0.302804 -0.936135 0)
(-0.290841 -1.00381 0)
(0.0612299 2.12404 0)
(0.145697 2.29445 0)
(0.19748 2.2027 0)
(0.246205 2.09099 0)
(0.284398 1.98498 0)
(0.310995 1.88785 0)
(0.34003 1.81217 0)
(0.358217 1.74709 0)
(0.363634 1.62669 0)
(0.349673 1.4369 0)
(0.314783 1.21136 0)
(0.26985 0.973899 0)
(0.217738 0.735398 0)
(0.160112 0.501996 0)
(0.0984202 0.277024 0)
(0.0362337 0.0570705 0)
(-0.0249166 -0.154023 0)
(-0.0816501 -0.351541 0)
(-0.131746 -0.531613 0)
(-0.172688 -0.691002 0)
(-0.201668 -0.826704 0)
(-0.216438 -0.936149 0)
(-0.216047 -1.01773 0)
(0.0695047 2.01063 0)
(0.16457 2.22208 0)
(0.236672 2.13572 0)
(0.295737 2.04419 0)
(0.332648 1.96443 0)
(0.350733 1.8949 0)
(0.358103 1.80049 0)
(0.396658 1.69592 0)
(0.465557 1.59334 0)
(0.483826 1.44404 0)
(0.471417 1.24263 0)
(0.442724 1.01892 0)
(0.400249 0.789254 0)
(0.346257 0.561538 0)
(0.284985 0.340372 0)
(0.221364 0.122538 0)
(0.15339 -0.0903341 0)
(0.0860167 -0.291932 0)
(0.0221173 -0.478667 0)
(-0.0350932 -0.647968 0)
(-0.0814597 -0.796802 0)
(-0.113155 -0.921808 0)
(-0.127654 -1.02004 0)
(0.0763243 1.88548 0)
(0.179524 2.13652 0)
(0.262439 2.05933 0)
(0.337064 1.98568 0)
(0.392331 1.92381 0)
(0.428894 1.86997 0)
(0.450707 1.79837 0)
(0.465606 1.66764 0)
(0.521128 1.53847 0)
(0.606636 1.39944 0)
(0.626933 1.24063 0)
(0.62133 1.04644 0)
(0.596423 0.834459 0)
(0.552731 0.617565 0)
(0.496346 0.40262 0)
(0.433334 0.190604 0)
(0.36151 -0.018354 0)
(0.283621 -0.219687 0)
(0.204732 -0.409644 0)
(0.129176 -0.586652 0)
(0.0625445 -0.747957 0)
(0.0105418 -0.889599 0)
(-0.0223721 -1.00741 0)
(0.0822567 1.75072 0)
(0.1932 2.04119 0)
(0.284396 1.97296 0)
(0.371708 1.91099 0)
(0.449192 1.86305 0)
(0.514739 1.81905 0)
(0.56276 1.75947 0)
(0.596443 1.65652 0)
(0.615663 1.49781 0)
(0.682753 1.34254 0)
(0.769325 1.18283 0)
(0.798805 1.03787 0)
(0.798085 0.861256 0)
(0.773087 0.664335 0)
(0.728222 0.461671 0)
(0.67007 0.259584 0)
(0.597769 0.0602819 0)
(0.511685 -0.134728 0)
(0.417916 -0.323066 0)
(0.323079 -0.50467 0)
(0.234192 -0.677212 0)
(0.159036 -0.836248 0)
(0.104339 -0.976474 0)
(0.087644 1.60698 0)
(0.206705 1.93678 0)
(0.306589 1.87722 0)
(0.404919 1.82017 0)
(0.500529 1.78009 0)
(0.591252 1.74426 0)
(0.671886 1.69495 0)
(0.730101 1.61253 0)
(0.765791 1.48506 0)
(0.785113 1.30547 0)
(0.855732 1.11033 0)
(0.946322 0.981113 0)
(0.984701 0.849662 0)
(0.988248 0.689057 0)
(0.965838 0.509065 0)
(0.921264 0.324098 0)
(0.854407 0.141047 0)
(0.765648 -0.0395541 0)
(0.661355 -0.219961 0)
(0.549744 -0.401345 0)
(0.439076 -0.582403 0)
(0.339447 -0.758615 0)
(0.260421 -0.923652 0)
(0.0922988 1.4547 0)
(0.219927 1.82235 0)
(0.329056 1.77259 0)
(0.436872 1.71578 0)
(0.546399 1.67763 0)
(0.655559 1.64632 0)
(0.76068 1.60647 0)
(0.851219 1.54157 0)
(0.912218 1.44058 0)
(0.947233 1.29396 0)
(0.965804 1.09883 0)
(0.990944 0.903686 0)
(1.09678 0.781074 0)
(1.16266 0.661748 0)
(1.18113 0.523783 0)
(1.165 0.371375 0)
(1.11604 0.213958 0)
(1.0368 0.0560622 0)
(0.93418 -0.108259 0)
(0.815272 -0.281427 0)
(0.688355 -0.465118 0)
(0.565873 -0.655296 0)
(0.461072 -0.844952 0)
(0.0958787 1.2949 0)
(0.23211 1.69722 0)
(0.350532 1.65963 0)
(0.466136 1.60099 0)
(0.585866 1.56076 0)
(0.708351 1.53003 0)
(0.830397 1.49635 0)
(0.945306 1.44599 0)
(1.04086 1.36696 0)
(1.10372 1.25098 0)
(1.13716 1.09385 0)
(1.15399 0.89787 0)
(1.1753 0.704372 0)
(1.25856 0.602896 0)
(1.34068 0.497022 0)
(1.36804 0.388603 0)
(1.35897 0.26552 0)
(1.31575 0.135856 0)
(1.24 -0.00534216 0)
(1.13518 -0.158787 0)
(1.00649 -0.334569 0)
(0.867931 -0.531157 0)
(0.735565 -0.739176 0)
(0.0982554 1.12907 0)
(0.242386 1.56154 0)
(0.369602 1.5392 0)
(0.491443 1.47846 0)
(0.618321 1.43388 0)
(0.750376 1.40058 0)
(0.88493 1.36874 0)
(1.01727 1.32789 0)
(1.1394 1.26691 0)
(1.2393 1.17605 0)
(1.30474 1.0498 0)
(1.34017 0.885973 0)
(1.36424 0.695086 0)
(1.38929 0.514566 0)
(1.43391 0.443784 0)
(1.49914 0.427879 0)
(1.56378 0.343929 0)
(1.5951 0.227994 0)
(1.58738 0.0969695 0)
(1.5355 -0.0397327 0)
(1.43453 -0.196079 0)
(1.29731 -0.390863 0)
(1.13704 -0.610415 0)
(0.0994032 0.959429 0)
(0.249958 1.41625 0)
(0.385025 1.41235 0)
(0.511784 1.35026 0)
(0.6435 1.29998 0)
(0.782356 1.26165 0)
(0.926622 1.22771 0)
(1.07289 1.19051 0)
(1.21516 1.14176 0)
(1.34439 1.07189 0)
(1.44854 0.972973 0)
(1.51766 0.840725 0)
(1.55651 0.679905 0)
(1.5816 0.503215 0)
(1.62482 0.327931 0)
(1.71688 0.191567 0)
(1.80147 0.141493 0)
(1.88042 0.147565 0)
(1.9728 0.0937319 0)
(2.01454 0.057798 0)
(1.98926 -0.0287737 0)
(1.88573 -0.198916 0)
(1.71305 -0.425019 0)
(0.0989598 0.788038 0)
(0.253496 1.26207 0)
(0.395378 1.27978 0)
(0.526151 1.21793 0)
(0.661014 1.16114 0)
(0.804666 1.11553 0)
(0.956811 1.07585 0)
(1.11527 1.03702 0)
(1.27475 0.994395 0)
(1.42724 0.93977 0)
(1.56181 0.865947 0)
(1.66692 0.763786 0)
(1.73872 0.632189 0)
(1.784 0.481589 0)
(1.81991 0.320953 0)
(1.8666 0.162664 0)
(1.94917 0.0125236 0)
(2.07305 -0.0787057 0)
(2.16946 -0.124442 0)
(2.2652 -0.122371 0)
(2.34444 -0.105763 0)
(2.35271 -0.11159 0)
(2.26567 -0.171552 0)
(0.0952408 0.622446 0)
(0.25031 1.10178 0)
(0.398985 1.14272 0)
(0.533583 1.08304 0)
(0.670216 1.01927 0)
(0.816974 0.964005 0)
(0.97582 0.914532 0)
(1.14638 0.86912 0)
(1.32194 0.828369 0)
(1.49462 0.783311 0)
(1.65318 0.731656 0)
(1.78451 0.658706 0)
(1.8879 0.55181 0)
(1.96705 0.42262 0)
(2.02638 0.282829 0)
(2.0775 0.14362 0)
(2.12656 0.0169909 0)
(2.17974 -0.0858174 0)
(2.24563 -0.163496 0)
(2.32904 -0.184654 0)
(2.40328 -0.163747 0)
(2.4453 -0.140185 0)
(2.43778 -0.121482 0)
(0.0828449 0.46264 0)
(0.23283 0.925433 0)
(0.392435 0.996399 0)
(0.532619 0.945073 0)
(0.670181 0.875767 0)
(0.81836 0.808897 0)
(0.983471 0.744788 0)
(1.16901 0.686142 0)
(1.36084 0.651135 0)
(1.55121 0.605081 0)
(1.72952 0.578791 0)
(1.87511 0.533967 0)
(2.00008 0.441194 0)
(2.11208 0.336444 0)
(2.20202 0.212506 0)
(2.27528 0.0779175 0)
(2.3389 -0.0398477 0)
(2.39204 -0.1271 0)
(2.43131 -0.183784 0)
(2.45781 -0.201159 0)
(2.47597 -0.188407 0)
(2.4922 -0.16375 0)
(2.50951 -0.138263 0)
(0.0439422 0.375616 0)
(0.187516 0.759463 0)
(0.378937 0.855454 0)
(0.52743 0.812236 0)
(0.663767 0.734668 0)
(0.810624 0.649932 0)
(0.982418 0.559408 0)
(1.19522 0.477295 0)
(1.39992 0.483455 0)
(1.60093 0.404751 0)
(1.79826 0.428617 0)
(1.93447 0.407358 0)
(2.07475 0.288973 0)
(2.22471 0.236632 0)
(2.33834 0.134122 0)
(2.44039 -0.0258574 0)
(2.54564 -0.13255 0)
(2.61887 -0.203137 0)