/*--------------------------------*- C++ -*----------------------------------*\
  =========                 |
  \\      /  F ield         | OpenFOAM: The Open Source CFD Toolbox
   \\    /   O peration     | Website:  https://openfoam.org
    \\  /    A nd           | Version:  9
     \\/     M anipulation  |
\*---------------------------------------------------------------------------*/
FoamFile
{
    format      ascii;
    class       surfaceScalarField;
    location    "1";
    object      alphaPhi0.water;
}
// * * * * * * * * * * * * * * * * * * * * * * * * * * * * * * * * * * * * * //

dimensions      [0 3 -1 0 0 0 0];

internalField   nonuniform List<scalar> 
4432
(
1.3546e-07
-1.3546e-07
-2.15888e-06
2.29435e-06
-5.12514e-06
2.96626e-06
-8.17965e-06
3.05451e-06
-1.11629e-05
2.98325e-06
-1.39424e-05
2.77953e-06
-1.63864e-05
2.44395e-06
-1.83619e-05
1.97552e-06
-1.97414e-05
1.3795e-06
-2.04117e-05
6.70302e-07
-2.02858e-05
-1.25845e-07
-1.94671e-05
-8.18609e-07
-1.80519e-05
-1.29886e-06
-1.61908e-05
-1.52249e-06
-1.45926e-05
-1.63535e-06
-1.28357e-05
-1.79406e-06
-1.06962e-05
-2.17662e-06
-7.83891e-06
-2.89457e-06
-4.08521e-06
-3.79513e-06
3.01727e-07
-4.50229e-06
4.28625e-06
-4.08068e-06
5.03929e-06
-6.73798e-07
5.06583e-06
-1.47815e-06
1.3427e-06
-4.37076e-06
5.18698e-06
-7.64396e-06
6.23947e-06
-1.08855e-05
6.29604e-06
-1.39126e-05
6.01036e-06
-1.65695e-05
5.43637e-06
-1.8723e-05
4.59744e-06
-2.02632e-05
3.51577e-06
-2.1118e-05
2.23432e-06
-2.12845e-05
8.36744e-07
-2.08737e-05
-5.36522e-07
-2.00004e-05
-1.69187e-06
-1.87764e-05
-2.52324e-06
-1.72812e-05
-3.01769e-06
-1.55824e-05
-3.27752e-06
-1.38162e-05
-3.54155e-06
-1.18523e-05
-4.17192e-06
-9.4563e-06
-5.3858e-06
-6.42922e-06
-6.92753e-06
-2.82839e-06
-8.10312e-06
6.92204e-07
-7.60129e-06
2.76103e-06
-2.75461e-06
7.83659e-06
-2.49874e-06
3.84144e-06
-5.39735e-06
8.0856e-06
-8.52395e-06
9.36606e-06
-1.16133e-05
9.38538e-06
-1.44786e-05
8.87565e-06
-1.69802e-05
7.93802e-06
-1.90004e-05
6.61765e-06
-2.04435e-05
4.9588e-06
-2.12491e-05
3.04e-06
-2.14175e-05
1.0051e-06
-2.10224e-05
-9.31604e-07
-2.01689e-05
-2.54535e-06
-1.89626e-05
-3.72952e-06
-1.74968e-05
-4.48353e-06
-1.59003e-05
-4.87409e-06
-1.4275e-05
-5.16679e-06
-1.2558e-05
-5.88891e-06
-1.05551e-05
-7.38871e-06
-8.11362e-06
-9.36903e-06
-5.17371e-06
-1.1043e-05
-1.98145e-06
-1.07936e-05
5.35978e-07
-5.27204e-06
8.37298e-06
-3.05797e-06
6.89942e-06
-5.99581e-06
1.10234e-05
-9.02143e-06
1.23917e-05
-1.19938e-05
1.23578e-05
-1.4749e-05
1.16309e-05
-1.7161e-05
1.035e-05
-1.91193e-05
8.57597e-06
-2.05308e-05
6.37032e-06
-2.13335e-05
3.84271e-06
-2.1519e-05
1.19056e-06
-2.11432e-05
-1.30739e-06
-2.03023e-05
-3.38628e-06
-1.90945e-05
-4.93725e-06
-1.76181e-05
-5.95997e-06
-1.60423e-05
-6.44992e-06
-1.45398e-05
-6.66921e-06
-1.31021e-05
-7.32666e-06
-1.15484e-05
-8.94239e-06
-9.6796e-06
-1.12379e-05
-7.26206e-06
-1.34606e-05
-4.255e-06
-1.38004e-05
-1.34909e-06
-8.17824e-06
7.02065e-06
-3.37112e-06
1.02705e-05
-6.37584e-06
1.40281e-05
-9.34755e-06
1.53634e-05
-1.22387e-05
1.52489e-05
-1.4919e-05
1.43112e-05
-1.72766e-05
1.27076e-05
-1.92067e-05
1.05061e-05
-2.06152e-05
7.77879e-06
-2.14333e-05
4.6608e-06
-2.16415e-05
1.39876e-06
-2.12838e-05
-1.66502e-06
-2.04495e-05
-4.22057e-06
-1.9227e-05
-6.15978e-06
-1.77147e-05
-7.47214e-06
-1.61369e-05
-8.02767e-06
-1.47564e-05
-8.04979e-06
-1.36151e-05
-8.46799e-06
-1.25242e-05
-1.00332e-05
-1.12183e-05
-1.25437e-05
-9.25516e-06
-1.54236e-05
-6.30184e-06
-1.67533e-05
-2.85878e-06
-1.16218e-05
4.16184e-06
-3.55373e-06
1.38243e-05
-6.61388e-06
1.70883e-05
-9.5488e-06
1.82983e-05
-1.23791e-05
1.80792e-05
-1.5008e-05
1.69401e-05
-1.73378e-05
1.50373e-05
-1.92681e-05
1.24364e-05
-2.07003e-05
9.21099e-06
-2.15543e-05
5.51484e-06
-2.17976e-05
1.64204e-06
-2.1465e-05
-1.99756e-06
-2.06413e-05
-5.0443e-06
-1.93987e-05
-7.40219e-06
-1.78266e-05
-9.04347e-06
-1.62177e-05
-9.63597e-06
-1.4947e-05
-9.32047e-06
-1.41106e-05
-9.3045e-06
-1.35005e-05
-1.0643e-05
-1.27703e-05
-1.32729e-05
-1.12245e-05
-1.69674e-05
-8.20013e-06
-1.97757e-05
-4.09656e-06
-1.5725e-05
6.62973e-08
-3.65656e-06
1.74808e-05
-6.73689e-06
2.01686e-05
-9.63119e-06
2.11926e-05
-1.24094e-05
2.08574e-05
-1.50033e-05
1.9534e-05
-1.73289e-05
1.73629e-05
-1.92886e-05
1.43961e-05
-2.07754e-05
1.06979e-05
-2.16936e-05
6.43297e-06
-2.19952e-05
1.94368e-06
-2.17076e-05
-2.28517e-06
-2.0912e-05
-5.83975e-06
-1.96562e-05
-8.65607e-06
-1.80037e-05
-1.06875e-05
-1.63277e-05
-1.1305e-05
-1.51431e-05
-1.05051e-05
-1.46122e-05
-9.83522e-06
-1.45052e-05
-1.07447e-05
-1.43661e-05
-1.33973e-05
-1.31794e-05
-1.8137e-05
-9.97429e-06
-2.29522e-05
-5.20505e-06
-2.02817e-05
-5.13875e-06
-3.68216e-06
2.1163e-05
-6.74541e-06
2.32318e-05
-9.58521e-06
2.40324e-05
-1.23113e-05
2.35835e-05
-1.48825e-05
2.21052e-05
-1.72277e-05
1.97081e-05
-1.92503e-05
1.64187e-05
-2.08312e-05
1.22787e-05
-2.1854e-05
7.45579e-06
-2.22524e-05
2.34206e-06
-2.20469e-05
-2.49066e-06
-2.13174e-05
-6.56844e-06
-2.0079e-05
-9.88518e-06
-1.82918e-05
-1.2395e-05
-1.64276e-05
-1.30732e-05
-1.52603e-05
-1.1655e-05
-1.49905e-05
-1.0028e-05
-1.53109e-05
-9.91111e-06
-1.55772e-05
-1.19285e-05
-1.42944e-05
-1.68906e-05
-1.12563e-05
-2.20555e-05
-6.1281e-06
-2.57302e-05
-1.12668e-05
5.55057e-06
-5.52481e-06
-1.32655e-05
1.87073e-05
-3.60233e-05
2.27655e-05
-5.13078e-05
1.52926e-05
-5.19077e-05
6.5331e-07
-4.23639e-05
-9.52489e-06
-2.95231e-05
-1.28036e-05
-1.8854e-05
-1.06373e-05
-1.28831e-05
-5.96599e-06
-1.2077e-05
-8.00246e-07
-1.28109e-05
1.70434e-06
-1.2896e-05
8.44421e-08
-1.08458e-05
-2.05084e-06
-7.86072e-06
-2.98566e-06
-5.1117e-06
-2.74897e-06
-2.15794e-06
-2.97231e-06
1.21506e-06
-3.38792e-06
3.51508e-06
-2.26271e-06
3.46061e-06
-8.85203e-06
3.27042e-06
-2.87397e-05
3.8579e-05
-4.62586e-05
4.02923e-05
-5.13323e-05
2.03583e-05
-4.91713e-05
-1.30607e-06
-4.20555e-05
-1.6277e-05
-3.17959e-05
-2.18188e-05
-2.24637e-05
-1.85619e-05
-1.61278e-05
-1.2652e-05
-1.40015e-05
-3.11127e-06
-1.40262e-05
1.63543e-06
-1.25067e-05
-7.91329e-07
-1.03801e-05
-4.18671e-06
-8.00987e-06
-5.35579e-06
-6.06084e-06
-4.69785e-06
-4.39277e-06
-4.63731e-06
-2.35214e-06
-5.43504e-06
3.66394e-07
-5.02788e-06
3.86729e-06
-1.67065e-05
1.98446e-05
-3.32155e-05
5.50787e-05
-4.32147e-05
5.03408e-05
-3.83569e-05
1.70709e-05
-3.39986e-05
-1.18882e-06
-2.76995e-05
-1.38888e-05
-1.88525e-05
-1.57044e-05
-1.54579e-05
-9.99738e-06
-1.46506e-05
-1.11396e-05
-1.2777e-05
-6.02803e-06
-1.25382e-05
9.60737e-07
-1.15842e-05
-1.72069e-06
-9.76711e-06
-5.97913e-06
-7.84857e-06
-7.31862e-06
-6.42832e-06
-6.72427e-06
-5.50657e-06
-5.80038e-06
-4.62404e-06
-6.41732e-06
-3.04234e-06
-6.69805e-06
7.39276e-07
-1.96636e-05
3.9486e-05
-3.26095e-05
6.80154e-05
-3.48957e-05
5.48866e-05
-2.38726e-05
1.11471e-05
-2.00659e-05
-3.22953e-07
-1.44964e-05
-1.12413e-05
-1.01911e-05
-1.28993e-05
-7.05723e-06
-1.29661e-05
-8.11062e-06
-7.86885e-06
-9.03823e-06
-5.13612e-06
-9.57348e-06
3.44666e-07
-9.70097e-06
-2.42384e-06
-8.45777e-06
-7.203e-06
-7.14468e-06
-8.61331e-06
-6.13664e-06
-7.71011e-06
-5.55316e-06
-6.47003e-06
-5.42084e-06
-6.6231e-06
-4.98382e-06
-7.23481e-06
-4.47837e-06
-2.00043e-05
5.94689e-05
-3.03453e-05
7.83729e-05
-2.98795e-05
5.88062e-05
-1.60207e-05
1.32051e-05
-1.67386e-05
8.84866e-08
-1.47998e-05
-1.60911e-05
-1.1295e-05
-2.60866e-05
-5.87498e-06
-2.41915e-05
-3.21589e-06
-1.21272e-05
-4.62296e-06
-2.93464e-06
-6.19018e-06
4.04776e-07
-7.04947e-06
-2.44222e-06
-6.63447e-06
-7.60214e-06
-5.7423e-06
-9.18262e-06
-4.21698e-06
-4.88221e-06
-3.3846e-06
-3.06837e-06
-3.31427e-06
-2.87034e-06
-3.91481e-06
-3.34326e-06
-4.62794e-06
-1.91254e-05
7.8608e-05
-2.70316e-05
8.62914e-05
-2.49011e-05
5.81629e-05
-2.36139e-05
1.38084e-05
-2.14757e-05
1.68446e-07
-2.04491e-05
-1.89873e-05
-1.68707e-05
-3.07359e-05
-8.04693e-06
-3.48279e-05
-1.79201e-06
-2.24843e-05
-9.0918e-07
-4.38083e-06
-2.77256e-06
6.43643e-07
-3.761e-06
-1.47506e-06
-3.48884e-06
-5.36321e-06
-1.58208e-06
-2.66588e-06
-5.0062e-07
-8.73979e-07
-1.47983e-07
-1.03282e-06
1.54465e-08
-5.95637e-07
-1.00185e-07
-5.64911e-07
-7.11239e-07
-1.81531e-05
9.67554e-05
-2.2874e-05
9.09995e-05
-1.18202e-05
4.67013e-05
-1.18939e-05
7.74179e-06
-1.3371e-05
2.77583e-07
-1.72379e-05
-1.42475e-05
-1.4053e-05
-3.52611e-05
-1.03921e-05
-3.8264e-05
-2.01082e-06
-3.15439e-05
4.68529e-07
-7.17605e-06
6.07697e-07
2.43484e-07
4.83587e-07
2.66555e-08
-6.21566e-08
-6.03826e-07
-3.26167e-08
-7.11175e-07
2.13881e-07
-9.30893e-07
5.91087e-07
-1.35543e-06
8.33142e-07
-7.92443e-07
6.44653e-07
-3.28374e-07
-6.32833e-09
-1.77402e-05
0.000114429
-1.9382e-05
9.2577e-05
-5.74454e-06
3.29971e-05
-4.48604e-06
6.28963e-06
-4.60406e-06
1.01475e-08
-7.76955e-06
-1.30748e-05
-1.04394e-05
-3.34448e-05
-9.12031e-06
-4.04135e-05
-2.56162e-06
-3.78126e-05
1.16905e-06
-1.47809e-05
9.41052e-07
-4.04709e-07
8.43302e-07
2.01151e-07
5.10355e-07
-2.61549e-07
5.84137e-07
-6.36601e-07
8.42571e-07
-1.0831e-06
1.27718e-06
-1.6921e-06
1.61127e-06
-1.08218e-06
1.23151e-06
1.1225e-07
1.31769e-06
-7.53289e-06
2.86959e-05
-1.39496e-05
2.96485e-05
-1.97944e-05
2.98773e-05
-2.54123e-05
2.92014e-05
-3.0855e-05
2.75479e-05
-3.60159e-05
2.48689e-05
-4.06875e-05
2.10903e-05
-4.45605e-05
1.61518e-05
-4.73025e-05
1.01976e-05
-4.86959e-05
3.73554e-06
-4.8754e-05
-2.42829e-06
-4.76293e-05
-7.64348e-06
-4.52191e-05
-1.21477e-05
-4.05208e-05
-1.56401e-05
-3.25636e-05
-1.21374e-05
-2.52244e-05
-7.16743e-06
-2.21555e-05
-3.62722e-06
-2.15587e-05
-2.08454e-06
-2.12274e-05
-1.54428e-06
-2.06402e-05
-6.40008e-06
-2.74624e-05
-2.68805e-05
-2.02239e-05
-3.82211e-05
-2.47814e-05
-6.71183e-06
-6.61279e-06
3.53087e-05
-1.23876e-05
3.54233e-05
-1.78126e-05
3.53023e-05
-2.32678e-05
3.46566e-05
-2.89056e-05
3.31857e-05
-3.47141e-05
3.06774e-05
-4.05076e-05
2.68838e-05
-4.58706e-05
2.15148e-05
-5.03098e-05
1.46369e-05
-5.34894e-05
6.91524e-06
-5.51528e-05
-7.21123e-07
-5.47693e-05
-6.54135e-06
-4.70166e-05
-5.77485e-06
-2.91443e-05
-5.31123e-06
-1.39704e-05
-6.37571e-06
-6.38186e-06
-3.5759e-06
-3.39354e-06
-5.02762e-07
-3.58959e-06
1.71387e-07
-5.94561e-06
1.14978e-07
-2.16913e-05
-7.13164e-06
-5.53603e-05
-3.91409e-05
-5.3247e-05
-4.03795e-05
-2.13326e-05
-5.67278e-05
-4.65586e-06
3.99645e-05
-9.38769e-06
4.01552e-05
-1.41835e-05
4.0098e-05
-1.94278e-05
3.99008e-05
-2.53766e-05
3.91346e-05
-3.21641e-05
3.74648e-05
-3.9665e-05
3.43847e-05
-4.73306e-05
2.91807e-05
-5.38986e-05
2.12069e-05
-6.09794e-05
1.07483e-05
-5.80936e-05
3.08852e-06
-2.74178e-05
-4.57606e-07
-1.22968e-05
-1.13142e-06
-1.06425e-05
-4.50645e-06
-8.27154e-06
-5.7836e-06
-3.65182e-06
-1.84043e-06
-3.48688e-06
-4.59091e-07
-3.83927e-06
5.72671e-07
-5.02236e-06
8.31209e-07
-4.75606e-05
-7.64524e-06
-7.68435e-05
-3.95811e-05
-8.16253e-05
-3.56508e-05
-1.56355e-05
-8.73664e-05
-1.51618e-06
4.14807e-05
-4.71887e-06
4.33578e-05
-8.65309e-06
4.40322e-05
-1.34031e-05
4.46509e-05
-1.89254e-05
3.86664e-05
-2.57885e-05
3.01674e-05
-3.27123e-05
2.27923e-05
-3.91014e-05
1.48046e-05
-3.65239e-05
5.91452e-06
-2.10339e-05
1.54043e-06
-1.24723e-05
3.35595e-07
-1.3839e-05
0
-1.60147e-05
1.22841e-07
-2.19542e-05
-3.80102e-06
-1.36503e-05
-6.41469e-06
-5.72799e-06
-3.88625e-06
-4.53704e-06
-1.38641e-06
-3.69742e-06
1.15812e-07
-3.85813e-06
6.82055e-07
-4.66e-05
-3.2746e-06
-8.26385e-05
-3.18073e-05
-8.76386e-05
-3.07391e-05
-1.38952e-05
-8.9421e-05
2.08711e-06
2.79032e-05
8.30815e-07
2.85218e-05
-1.67076e-06
2.21762e-05
-4.44061e-06
1.29293e-05
-6.44578e-06
3.77288e-06
-7.12849e-06
4.00172e-07
-6.54081e-06
3.49169e-07
-4.99882e-06
5.67109e-07
-6.94879e-06
9.71344e-07
-1.47562e-05
1.39849e-06
-2.85848e-05
5.0779e-06
-3.22959e-05
4.027e-06
-3.2211e-05
3.72608e-07
-3.12594e-05
-4.44895e-06
-2.89799e-05
-8.30353e-06
-1.24741e-05
-8.67243e-06
-5.93213e-06
-5.06108e-06
-4.49218e-06
-1.14277e-06
-3.55553e-06
-2.75135e-07
-1.0446e-05
-1.03899e-06
-7.29748e-05
-9.30876e-06
-8.16186e-05
-2.282e-05
-1.59403e-05
-7.94092e-05
1.25959e-06
4.81448e-08
1.14446e-06
2.14545e-07
2.91983e-07
1.59409e-07
-1.68113e-07
1.20448e-07
-3.97622e-07
8.90775e-08
-5.93349e-07
8.67026e-08
-9.54362e-07
1.42604e-07
-1.26022e-06
2.61194e-07
-1.84868e-06
2.03154e-07
-2.30379e-05
3.17316e-06
-3.30581e-05
5.93013e-06
-3.37986e-05
4.72861e-06
-3.39108e-05
8.48061e-07
-3.40871e-05
-3.97642e-06
-3.26723e-05
-9.49593e-06
-2.80974e-05
-1.27719e-05
-9.01079e-06
-9.23738e-06
-5.3586e-06
-4.81732e-06
-4.07809e-06
-1.55213e-06
-3.99032e-06
-1.09919e-06
-2.06311e-05
-1.79148e-06
-6.73862e-05
-7.66413e-06
-1.46788e-05
-6.81906e-05
-8.52207e-08
9.76583e-10
-1.0663e-08
0
-4.9355e-08
1.7918e-08
-9.95116e-08
2.86724e-08
-1.54886e-07
2.63171e-08
-2.33147e-07
3.52008e-08
-3.12514e-07
5.07497e-08
-3.31553e-07
4.01802e-08
-1.44126e-06
1.05552e-07
-6.01716e-06
0
-7.26694e-06
2.20999e-08
-6.43728e-06
0
-1.35954e-05
0
-2.57194e-05
-1.3684e-06
-3.05422e-05
-4.36898e-06
-3.27566e-05
-9.2412e-06
-2.45738e-05
-1.49126e-05
-9.49814e-06
-8.93175e-06
-5.00101e-06
-6.02169e-06
-4.02476e-06
-2.11214e-06
-4.27675e-06
-1.67229e-06
-1.11523e-05
-1.27722e-06
-1.87678e-06
-4.36825e-05
-1.04074e-08
0
-2.81458e-08
0
-3.77265e-08
2.71748e-09
-3.97789e-08
5.27822e-09
-4.69217e-08
7.07852e-09
-5.79731e-08
1.02922e-08
-7.51935e-08
1.51064e-08
-1.6543e-07
1.74045e-08
-4.32202e-07
3.36609e-08
-3.76848e-07
2.63605e-08
-3.54891e-07
1.01031e-08
-3.8297e-07
0
-3.72735e-07
0
-1.71637e-06
-3.28292e-08
-9.74019e-06
-3.72402e-07
-1.99924e-05
-3.29794e-06
-2.81248e-05
-8.67162e-06
-2.42828e-05
-1.2705e-05
-1.15162e-05
-9.02442e-06
-5.99836e-06
-7.25274e-06
-3.76262e-06
-3.97344e-06
-2.77212e-06
-2.26382e-06
-2.32241e-06
-2.32372e-06
-2.33725e-09
0
-5.73439e-09
0
-7.81127e-09
5.83928e-10
-8.73105e-09
1.10981e-09
-9.74971e-09
1.74082e-09
-1.21338e-08
2.79281e-09
-1.90644e-08
4.75596e-09
-3.83307e-08
8.31469e-09
-4.71661e-08
1.15379e-08
-4.02349e-08
5.49767e-09
-3.18687e-08
7.56811e-10
-3.52982e-08
0
-4.23274e-08
0
-6.74238e-08
0
-4.21379e-07
-1.799e-08
-3.49118e-06
-2.29568e-07
-1.32955e-05
-1.05489e-06
-1.90233e-05
-4.81587e-06
-1.9427e-05
-6.63438e-06
-1.47505e-05
-9.96602e-06
-1.03955e-05
-7.80791e-06
-5.62689e-06
-7.39278e-06
-4.9812e-06
-3.25267e-06
-3.41253e-10
1.06358e-11
-9.04719e-10
2.05664e-11
-1.26057e-09
1.388e-10
-1.48537e-09
2.53248e-10
-1.6835e-09
4.13198e-10
-2.19809e-09
7.32605e-10
-3.49851e-09
1.41112e-09
-5.42236e-09
2.74418e-09
-5.35004e-09
3.19882e-09
-4.28426e-09
1.07402e-09
-3.32509e-09
0
-3.87318e-09
0
-5.62634e-09
0
-5.21793e-09
0
-2.22315e-08
0
-2.45899e-07
-5.53433e-09
-1.24982e-06
-4.30338e-08
-5.8283e-06
-2.21503e-07
-1.15484e-05
-1.31242e-06
-1.54852e-05
-4.16958e-06
-1.49067e-05
-6.51811e-06
-1.25878e-05
-7.71636e-06
-7.24706e-06
-8.51517e-06
-4.30306e-11
8.323e-12
-1.15065e-10
1.27741e-11
-1.73048e-10
3.48777e-11
-2.10761e-10
5.83405e-11
-2.45833e-10
9.6089e-11
-3.18641e-10
1.82823e-10
-4.37593e-10
3.83276e-10
-3.48408e-10
7.50772e-10
-6.5286e-11
7.96702e-10
-1.29975e-10
2.07392e-10
-2.08468e-10
0
-2.76957e-10
0
-5.26111e-10
0
-8.6387e-10
0
-8.89878e-10
5.05738e-11
-6.10444e-09
-9.47369e-11
-4.90326e-08
-1.97842e-10
-2.67486e-07
-2.5221e-09
-1.53654e-06
-2.39251e-08
-5.46996e-06
-1.38127e-07
-9.5235e-06
-7.8004e-07
-1.14261e-05
-3.9838e-06
-6.67582e-06
-1.09588e-05
-4.50686e-12
2.80936e-12
-1.27248e-11
4.0895e-12
-1.99267e-11
8.48725e-12
-2.40875e-11
1.31597e-11
-2.65056e-11
2.16419e-11
-2.69938e-11
4.4004e-11
-2.56111e-12
9.63226e-11
1.22169e-10
1.77825e-10
2.18619e-10
1.83513e-10
1.25894e-10
4.35486e-11
3.71215e-11
0
2.27872e-11
0
5.8015e-12
0
-2.6569e-11
0
-7.81776e-11
0
-6.57865e-11
6.01761e-12
-2.29966e-10
-1.99468e-11
-2.68939e-09
-7.48268e-12
-2.71877e-08
-6.91605e-12
-1.65427e-07
-3.69103e-13
-9.50799e-07
-4.42572e-13
-4.136e-06
2.71415e-14
4.09032e-13
-2.14768e-06
-2.19892e-13
7.62554e-13
-9.00554e-13
1.10675e-12
-1.40536e-12
1.99237e-12
-1.3786e-12
2.90214e-12
-5.2452e-13
4.81663e-12
4.83497e-12
9.8242e-12
2.47878e-11
2.11758e-11
6.60959e-11
3.84101e-11
9.32463e-11
3.91129e-11
6.0859e-11
1.02014e-11
2.49168e-11
0
1.68568e-11
0
1.5094e-11
0
1.32324e-11
0
1.07715e-11
0
3.99691e-12
0
-1.89288e-12
6.89597e-13
-2.51896e-13
-4.15209e-12
-6.13564e-14
-7.16941e-12
-3.6868e-14
-5.69816e-13
2.40257e-14
-5.02289e-13
4.44445e-13
-3.24529e-13
3.03213e-13
1.08267e-12
6.72082e-14
1.97362e-13
8.41663e-14
2.94352e-13
1.77357e-13
4.5857e-13
4.08874e-13
6.15514e-13
1.11371e-12
9.95923e-13
3.34464e-12
2.00148e-12
9.34518e-12
4.22555e-12
2.03911e-11
7.56088e-12
2.7294e-11
7.66419e-12
1.98917e-11
2.42689e-12
9.85587e-12
0
6.20459e-12
0
5.13564e-12
0
4.73938e-12
0
4.66146e-12
0
4.94239e-12
0
4.96788e-12
0
1.66947e-12
-3.0731e-13
1.71976e-13
-1.6475e-12
-2.33352e-13
-8.75059e-13
-2.1675e-13
-1.15244e-12
1.38936e-13
-1.10493e-12
-5.02049e-13
3.34074e-13
2.58397e-14
6.62101e-14
5.64018e-14
9.50715e-14
1.09991e-13
1.14713e-13
1.90867e-13
1.32084e-13
3.95833e-13
1.89282e-13
9.74834e-13
3.58423e-13
2.40318e-12
7.61616e-13
4.92358e-12
1.36457e-12
6.49421e-12
1.38132e-12
5.23182e-12
5.44144e-13
2.93453e-12
0
1.86507e-12
0
1.43673e-12
0
1.24575e-12
0
1.1598e-12
0
1.17717e-12
0
1.28717e-12
0
1.60068e-12
0
8.15978e-13
-1.5171e-13
7.19518e-13
-1.11876e-13
3.9735e-13
-1.64174e-13
7.72033e-14
-1.18641e-13
-1.73157e-13
-1.62475e-14
6.38962e-15
3.03017e-14
1.68253e-14
4.00704e-14
3.14152e-14
3.72219e-14
5.06981e-14
3.37333e-14
9.43777e-14
4.23596e-14
2.12702e-13
7.34172e-14
4.9856e-13
1.30913e-13
1.00075e-12
2.18552e-13
1.32179e-12
2.28163e-13
1.16408e-12
1.12999e-13
7.11247e-13
0
4.66363e-13
1.02473e-14
3.41987e-13
1.36447e-14
2.69458e-13
2.04927e-14
2.35686e-13
1.66683e-14
2.18978e-13
1.11061e-14
2.2801e-13
4.40811e-15
2.35207e-13
0
2.03032e-13
-4.08123e-15
1.35509e-13
-1.88733e-14
1.10045e-13
-2.25912e-14
1.32633e-14
-1.49646e-14
-1.22429e-14
6.06927e-14
1.92335e-15
1.45177e-14
5.20216e-15
2.00217e-14
8.53152e-15
1.98354e-14
1.2536e-14
1.92002e-14
1.99173e-14
1.88403e-14
3.97542e-14
1.94125e-14
8.87835e-14
2.06561e-14
1.76559e-13
3.89289e-14
2.36126e-13
4.30151e-14
2.25778e-13
2.99348e-14
1.4654e-13
1.67228e-14
9.89319e-14
2.22322e-14
7.3242e-14
2.02039e-14
6.02562e-14
1.62484e-14
5.15284e-14
1.21969e-14
4.4413e-14
8.53754e-15
3.75473e-14
5.18934e-15
3.45172e-14
2.46079e-15
3.48238e-14
2.1406e-16
2.59418e-14
-2.90019e-15
1.38275e-14
-4.59544e-15
1.11236e-14
-5.62557e-15
-4.92123e-15
5.2752e-15
6.97234e-16
5.21584e-15
1.93792e-15
7.7379e-15
3.03564e-15
7.82812e-15
4.10616e-15
7.5393e-15
5.4342e-15
6.86161e-15
8.20794e-15
6.2678e-15
1.47678e-14
6.56727e-15
2.81391e-14
8.23713e-15
3.81764e-14
9.53018e-15
3.95367e-14
9.76249e-15
3.02683e-14
9.19776e-15
2.80319e-14
9.04479e-15
2.5957e-14
8.94671e-15
2.38136e-14
7.46677e-15
2.22264e-14
5.90649e-15
2.08781e-14
4.45183e-15
1.93984e-14
3.06438e-15
1.8253e-14
1.69265e-15
1.71541e-14
3.89842e-16
1.50759e-14
-6.8581e-16
1.20525e-14
-1.45147e-15
8.5975e-15
-1.82995e-15
-1.9033e-15
5.94582e-15
2.08186e-16
1.23069e-15
6.06377e-16
1.9448e-15
9.19969e-16
1.87242e-15
1.15857e-15
1.66939e-15
1.40278e-15
1.45898e-15
1.8617e-15
1.37476e-15
2.87686e-15
1.52325e-15
4.75059e-15
1.73192e-15
6.4919e-15
2.11583e-15
7.71423e-15
2.33226e-15
7.29364e-15
2.36318e-15
7.46471e-15
2.09063e-15
7.95805e-15
2.00365e-15
8.17448e-15
1.85348e-15
8.23081e-15
1.60194e-15
8.20031e-15
1.29268e-15
7.9198e-15
9.30533e-16
7.30542e-15
5.27264e-16
6.43029e-15
1.54174e-16
5.42482e-15
-1.04738e-16
4.28937e-15
-2.60017e-16
3.17411e-15
-3.46651e-16
-3.85736e-16
2.29128e-15
4.6304e-17
2.13049e-16
1.43308e-16
3.62293e-16
2.11521e-16
3.39587e-16
2.4907e-16
2.89475e-16
2.85713e-16
2.38133e-16
3.39314e-16
2.07296e-16
4.83713e-16
2.09286e-16
7.69839e-16
2.50761e-16
1.0781e-15
3.05207e-16
1.30298e-15
3.32336e-16
1.36741e-15
3.24348e-16
1.43246e-15
2.91557e-16
1.57127e-15
2.64761e-16
1.7106e-15
2.43267e-16
1.81774e-15
2.15293e-16
1.87608e-15
1.77366e-16
1.85502e-15
1.28545e-16
1.66825e-15
7.27617e-17
1.40854e-15
2.31662e-17
1.15065e-15
-8.97813e-18
9.22904e-16
-2.54461e-17
7.32036e-16
-3.55927e-17
-4.25439e-17
5.89966e-16
8.20318e-18
3.12939e-17
2.74606e-17
5.72946e-17
3.92181e-17
5.2919e-17
4.4345e-17
4.38622e-17
4.77696e-17
3.49394e-17
5.43167e-17
2.85364e-17
6.94304e-17
2.63863e-17
1.0202e-16
2.83188e-17
1.4102e-16
3.2238e-17
1.69136e-16
3.37282e-17
1.83728e-16
3.20373e-17
1.92767e-16
2.86345e-17
2.05461e-16
2.47452e-17
2.20388e-16
2.11028e-17
2.32798e-16
1.74473e-17
2.37921e-16
1.35389e-17
2.32306e-16
9.3018e-18
2.03054e-16
5.04906e-18
1.65063e-16
1.58243e-18
1.3043e-16
-5.04541e-19
1.05918e-16
-1.45688e-18
8.9783e-17
-2.04589e-18
-2.54601e-18
8.04241e-17
1.25144e-18
4.18012e-18
4.52262e-18
8.17399e-18
6.29435e-18
7.42391e-18
6.88167e-18
5.98597e-18
7.08107e-18
4.60414e-18
7.63951e-18
3.57954e-18
8.78656e-18
3.02754e-18
1.18326e-17
2.94072e-18
1.5517e-17
3.04091e-18
1.81058e-17
2.96574e-18
1.92976e-17
2.66176e-18
1.97026e-17
2.24642e-18
2.00348e-17
1.82324e-18
2.02567e-17
1.43357e-18
2.01592e-17
1.07772e-18
1.95557e-17
7.59557e-19
1.78226e-17
4.73509e-19
1.48913e-17
2.35906e-19
1.14479e-17
6.65057e-20
8.60491e-18
-2.51864e-20
6.86854e-18
-6.44845e-20
6.09272e-18
-8.69019e-20
-1.06688e-19
5.787e-18
1.69491e-19
5.08153e-19
6.58438e-19
1.05274e-18
8.92812e-19
9.37241e-19
9.43943e-19
7.32262e-19
9.30953e-19
5.41818e-19
9.29898e-19
3.99775e-19
1.0128e-18
3.06104e-19
1.21369e-18
2.6461e-19
1.4432e-18
2.40449e-19
1.61541e-18
2.26e-19
1.61094e-18
1.79746e-19
1.53881e-18
1.34448e-19
1.47552e-18
9.93808e-20
1.40154e-18
7.09376e-20
1.30321e-18
4.80027e-20
1.18314e-18
3.05683e-20
1.01655e-18
1.78455e-20
8.05815e-19
8.44372e-21
5.8973e-19
2.06532e-21
4.24081e-19
-1.20839e-21
3.27118e-19
-2.62803e-21
2.92985e-19
-3.28325e-21
-3.93992e-21
2.82168e-19
2.05775e-20
5.59662e-20
8.5444e-20
1.21966e-19
1.12595e-19
1.06137e-19
1.14907e-19
8.0107e-20
1.0835e-19
5.67504e-20
1.00306e-19
3.907e-20
9.70009e-20
2.62598e-20
1.01591e-19
2.59254e-20
1.15102e-19
8.69716e-20
1.11805e-19
1.58064e-19
1.01027e-19
1.26673e-19
8.8219e-20
9.39302e-20
7.48757e-20
6.6032e-20
6.23178e-20
4.40324e-20
5.09715e-20
2.73343e-20
4.18648e-20
6.42952e-21
3.74019e-20
3.22741e-22
3.18378e-20
1.60361e-22
2.39191e-20
3.24723e-23
1.77138e-20
-4.34425e-23
1.35855e-20
-8.49769e-23
1.23831e-20
-1.14897e-22
-2.46219e-22
1.2483e-20
2.2592e-21
5.59597e-21
9.94508e-21
1.27358e-20
1.26797e-20
1.0798e-20
1.24397e-20
7.83896e-21
1.10896e-20
5.24818e-21
9.196e-21
3.22117e-21
1.00094e-20
2.43566e-21
1.22749e-20
1.46506e-20
7.88076e-21
7.1526e-21
-1.16765e-20
-8.84334e-21
-3.02387e-20
-1.90689e-20
-3.68428e-20
-1.92011e-20
-3.02162e-20
-1.28355e-20
-1.72371e-20
-5.83474e-21
-5.58136e-21
-1.45209e-21
6.26161e-22
2.21995e-22
6.15132e-22
1.40453e-22
5.32226e-22
4.75809e-23
5.16096e-22
2.36941e-24
5.06546e-22
5.21996e-24
4.64627e-22
2.39091e-24
4.65073e-22
-5.51171e-24
-2.29741e-22
2.36199e-21
2.26088e-22
5.08746e-22
1.04427e-21
1.20137e-21
1.27935e-21
9.88273e-22
1.19427e-21
6.8379e-22
9.73219e-22
4.16723e-22
9.07413e-22
2.63399e-22
1.08323e-21
1.39269e-21
-1.16336e-21
-1.23057e-21
-7.8412e-21
-6.87397e-21
-1.79942e-20
-1.30961e-20
-2.69122e-20
-1.62036e-20
-3.01028e-20
-1.48559e-20
-2.65573e-20
-1.05676e-20
-1.90187e-20
-5.94216e-21
-1.13259e-20
-2.66203e-21
-5.56708e-21
-9.14832e-22
-2.45842e-21
-2.44472e-22
-9.70703e-22
-3.88414e-23
-3.38544e-22
2.14011e-24
-1.03266e-22
3.26615e-24
-2.45223e-23
1.53165e-24
1.04471e-22
-6.26174e-24
-2.94012e-22
2.92351e-21
2.06875e-23
4.19094e-23
9.92744e-23
1.02435e-22
1.1568e-22
8.12663e-23
1.00271e-22
5.22038e-23
8.52719e-23
3.23003e-23
1.07261e-22
1.66362e-22
-1.5349e-22
-1.92638e-22
-1.18886e-21
-1.22345e-21
-3.31965e-21
-2.81861e-21
-6.14863e-21
-4.30892e-21
-8.53925e-21
-4.91318e-21
-9.36423e-21
-4.37221e-21
-8.32761e-21
-3.09296e-21
-6.11798e-21
-1.75029e-21
-3.78571e-21
-7.9123e-22
-1.9923e-21
-2.76648e-22
-9.20551e-22
-6.89421e-23
-3.79905e-22
-6.40523e-24
-1.4186e-22
8.79171e-25
-4.89153e-23
6.58299e-25
-1.39985e-23
9.39933e-26
1.25019e-22
-1.03479e-23
-4.18037e-22
4.01129e-21
1.72e-24
3.07927e-24
8.54493e-24
7.87194e-24
9.30774e-24
5.93865e-24
8.3339e-24
3.31591e-24
1.07103e-23
2.0658e-23
-8.78549e-24
-1.33825e-23
-1.13208e-22
-1.39212e-22
-3.78648e-22
-3.80453e-22
-8.35954e-22
-6.89604e-22
-1.38654e-21
-9.37814e-22
-1.81761e-21
-1.00041e-21
-1.92913e-21
-8.51292e-22
-1.67988e-21
-5.79789e-22
-1.2128e-21
-3.14438e-22
-7.34828e-22
-1.33605e-22
-3.77452e-22
-4.21209e-23
-1.67414e-22
-8.02478e-24
-6.49834e-23
6.50643e-26
-2.28745e-23
1.35143e-25
-7.53362e-24
6.64649e-26
-7.43487e-25
-3.62198e-25
1.63719e-22
-1.58225e-23
-5.90675e-22
5.11632e-21
1.2668e-25
1.9084e-25
6.61523e-25
5.37907e-25
6.45258e-25
3.70844e-25
9.99815e-25
8.00452e-25
-1.54154e-25
-2.93611e-25
-8.42843e-24
-1.26659e-23
-3.32645e-23
-4.02632e-23
-8.32934e-23
-8.20707e-23
-1.57947e-22
-1.27088e-22
-2.38341e-22
-1.56061e-22
-2.92811e-22
-1.54405e-22
-2.95478e-22
-1.23114e-22
-2.45741e-22
-7.83952e-23
-1.68943e-22
-3.91588e-23
-9.64783e-23
-1.47818e-23
-4.6029e-23
-3.78297e-24
-1.85131e-23
-3.35997e-25
-6.32013e-24
1.68419e-26
-2.04725e-24
1.09873e-26
-5.88924e-25
1.31373e-27
5.06498e-24
-5.13704e-25
1.98435e-22
-2.08816e-23
-6.0132e-22
5.77525e-21
7.56836e-27
1.45771e-26
4.5046e-26
3.12202e-26
6.58317e-26
2.61094e-26
4.27504e-26
1.06193e-25
-5.28392e-25
-9.99467e-25
-2.49155e-24
-3.71558e-24
-6.90831e-24
-8.27892e-24
-1.43395e-23
-1.39338e-23
-2.39506e-23
-1.88925e-23
-3.2879e-23
-2.09268e-23
-3.74062e-23
-1.89425e-23
-3.52153e-23
-1.38442e-23
-2.72916e-23
-7.99604e-24
-1.73283e-23
-3.52556e-24
-8.98253e-24
-1.10371e-24
-3.79062e-24
-1.90327e-25
-1.29392e-24
9.59738e-28
-3.88425e-25
1.2306e-27
-1.1155e-25
4.98422e-28
-9.12958e-27
-4.88935e-27
5.7135e-24
-5.51258e-25
2.05347e-22
-2.06831e-23
-5.01052e-22
5.09785e-21
3.75839e-28
7.90735e-27
3.40006e-27
6.78271e-27
4.51857e-27
1.56433e-26
-2.4779e-26
-6.15236e-26
-1.64284e-25
-3.10951e-25
-5.07378e-25
-7.56627e-25
-1.13249e-24
-1.35394e-24
-2.02293e-24
-1.95272e-24
-3.00269e-24
-2.33758e-24
-3.73118e-24
-2.32128e-24
-3.87812e-24
-1.89264e-24
-3.33907e-24
-1.23828e-24
-2.3496e-24
-6.27311e-25
-1.33256e-24
-2.31906e-25
-6.0018e-25
-5.4247e-26
-2.10662e-25
-3.18275e-27
-5.7083e-26
1.03702e-28
-1.51097e-26
4.95779e-29
-3.64349e-27
4.8202e-30
5.477e-26
-4.38895e-27
4.88462e-24
-4.61454e-25
1.50972e-22
-1.42461e-23
-2.62964e-22
2.93952e-21
-3.29923e-28
-3.58546e-27
1.81791e-28
9.9108e-28
-8.85069e-28
-3.08259e-27
-8.92837e-27
-2.23757e-26
-3.34076e-26
-6.38975e-26
-8.10141e-26
-1.21997e-25
-1.53082e-25
-1.84349e-25
-2.39337e-25
-2.31654e-25
-3.164e-25
-2.45212e-25
-3.53299e-25
-2.16449e-25
-3.30645e-25
-1.56309e-25
-2.54931e-25
-8.92259e-26
-1.58298e-25
-3.81379e-26
-7.7144e-26
-1.10444e-26
-2.85619e-26
-1.57652e-27
-7.61323e-27
5.0101e-30
-1.75957e-27
3.86191e-30
-3.94572e-28
1.20588e-30
-2.64616e-29
-4.22591e-30
2.98186e-26
-2.03155e-27
2.63771e-24
-2.00825e-25
7.30039e-23
-5.75909e-24
-9.23494e-23
1.1582e-21
-1.32344e-28
-1.45257e-27
-9.73854e-29
-5.3788e-28
-4.10408e-28
-1.45621e-27
-1.86419e-27
-4.77441e-27
-5.25342e-27
-1.02791e-26
-1.06587e-26
-1.64069e-26
-1.74638e-26
-2.14407e-26
-2.40901e-26
-2.36556e-26
-2.83261e-26
-2.20981e-26
-2.81775e-26
-1.71671e-26
-2.3381e-26
-1.07839e-26
-1.57803e-26
-5.22059e-27
-8.37347e-27
-1.79726e-27
-3.34637e-27
-3.69343e-28
-9.45889e-28
-1.56461e-29
-1.84344e-28
2.6869e-31
-3.59492e-29
9.14269e-32
-6.7938e-30
1.82936e-32
4.10448e-29
-1.18277e-30
8.94936e-27
-3.33614e-28
7.8859e-25
-3.62533e-26
2.15342e-23
-1.32755e-24
-2.78744e-23
3.22374e-22
-2.92328e-29
-3.29705e-28
-3.27218e-29
-1.86053e-28
-8.97282e-29
-3.29405e-28
-2.92702e-28
-7.77793e-28
-6.7787e-28
-1.37733e-27
-1.18625e-27
-1.89448e-27
-1.70703e-27
-2.16835e-27
-2.08448e-27
-2.10696e-27
-2.17256e-27
-1.73003e-27
-1.9067e-27
-1.16992e-27
-1.37992e-27
-6.2707e-28
-7.95366e-28
-2.49447e-28
-3.47666e-28
-6.53125e-29
-1.07585e-28
-8.06207e-30
-2.09294e-29
1.04301e-32
-3.4507e-30
6.2349e-33
-5.57163e-31
1.42108e-33
-7.64965e-32
-5.93992e-35
4.44453e-30
-1.10788e-31
1.04338e-27
-2.49357e-29
1.04984e-25
-3.69302e-27
3.93206e-24
-2.78553e-25
-1.25501e-23
8.63825e-23
-4.76623e-30
-5.63788e-29
-6.30696e-30
-3.76333e-29
-1.41673e-29
-5.48179e-29
-3.73346e-29
-1.04807e-28
-7.39989e-29
-1.58933e-28
-1.13615e-28
-1.91611e-28
-1.44618e-28
-1.93451e-28
-1.56421e-28
-1.65641e-28
-1.43811e-28
-1.18928e-28
-1.10182e-28
-6.91968e-29
-6.83459e-29
-3.10075e-29
-3.27476e-29
-9.78469e-30
-1.13065e-29
-1.81123e-30
-2.52527e-30
-9.05289e-32
-3.36745e-31
4.21919e-34
-4.54846e-32
1.07178e-34
-6.1369e-33
1.72122e-35
4.22839e-33
-5.0051e-35
3.11382e-31
-8.53585e-33
6.07309e-29
-1.61203e-30
8.5493e-27
-3.57999e-28
6.87029e-25
-5.96249e-26
-5.09397e-24
3.32976e-23
-6.23892e-31
-7.93069e-30
-9.09253e-31
-5.82381e-30
-1.78928e-30
-7.45523e-30
-4.01566e-30
-1.21582e-29
-6.97101e-30
-1.61526e-29
-9.48919e-30
-1.72485e-29
-1.07259e-29
-1.54243e-29
-1.02651e-29
-1.16284e-29
-8.27675e-30
-7.25903e-30
-5.47382e-30
-3.5911e-30
-2.85683e-30
-1.31717e-30
-1.10504e-30
-3.17127e-31
-2.87363e-31
-3.76649e-32
-4.26498e-32
5.24642e-36
-4.7202e-33
7.78804e-36
-5.15512e-34
1.31452e-36
-5.4846e-35
1.54581e-37
2.16826e-34
-3.45638e-36
1.86268e-32
-4.99241e-34
3.1304e-30
-9.56223e-32
6.66613e-28
-2.89288e-29
1.16613e-25
-8.40887e-27
-1.00224e-24
1.01996e-23
-6.82704e-32
-9.59726e-31
-1.06312e-31
-7.49764e-31
-1.89369e-31
-8.69845e-31
-3.7305e-31
-1.24589e-30
-5.75646e-31
-1.47132e-30
-6.99442e-31
-1.40137e-30
-7.03429e-31
-1.11282e-30
-5.94372e-31
-7.37747e-31
-4.17584e-31
-3.98216e-31
-2.3558e-31
-1.65614e-31
-1.01454e-31
-4.86906e-32
-3.06982e-32
-8.57869e-33
-5.70746e-33
-5.69554e-34
-5.26441e-34
4.56356e-37
-4.87716e-35
1.09344e-37
-4.45269e-36
1.27491e-38
-3.70336e-37
1.22342e-39
7.11205e-36
-1.66982e-38
8.3575e-34
-1.10543e-35
1.45325e-31
-3.60679e-33
4.21555e-29
-1.71113e-30
1.24797e-26
-8.22955e-28
-1.27734e-25
1.45911e-24
-6.41886e-33
-1.02922e-31
-1.05219e-32
-8.38251e-32
-1.7313e-32
-8.96965e-32
-3.0532e-32
-1.1496e-31
-4.23031e-32
-1.219e-31
-4.60837e-32
-1.04092e-31
-4.12621e-32
-7.35444e-32
-3.06919e-32
-4.28322e-32
-1.86581e-32
-1.99028e-32
-8.86861e-33
-6.89269e-33
-3.0881e-33
-1.59419e-33
-7.07057e-34
-1.97267e-34
-8.91146e-35
-5.85936e-36
-6.26064e-36
9.53933e-39
-4.41745e-37
1.25404e-39
-3.1286e-38
1.05079e-40
-2.20754e-39
7.47982e-42