/*--------------------------------*- C++ -*----------------------------------*\
  =========                 |
  \\      /  F ield         | OpenFOAM: The Open Source CFD Toolbox
   \\    /   O peration     | Website:  https://openfoam.org
    \\  /    A nd           | Version:  9
     \\/     M anipulation  |
\*---------------------------------------------------------------------------*/
FoamFile
{
    format      ascii;
    class       volScalarField;
    location    "1";
    object      alpha.water;
}
// * * * * * * * * * * * * * * * * * * * * * * * * * * * * * * * * * * * * * //

dimensions      [0 0 0 0 0 0 0];

internalField   nonuniform List<scalar> 
2268
(
1.76373e-06
1.76373e-06
1.75996e-06
1.75351e-06
7.13246e-07
7.04301e-11
7.97227e-13
3.27451e-13
6.14804e-12
4.05288e-12
1.07112e-12
1.59067e-13
2.35424e-14
4.30228e-15
8.96772e-16
2.00194e-16
4.68354e-17
1.11002e-17
2.453e-18
4.44249e-19
5.20887e-20
2.21675e-21
3.26269e-22
3.26632e-07
2.24141e-07
1.3597e-07
6.58337e-10
3.69445e-28
4.72576e-16
1.19119e-13
2.9987e-13
1.82927e-13
4.52403e-14
5.10198e-15
5.39793e-16
7.93172e-17
1.39867e-17
2.66832e-18
5.60506e-19
7.33478e-20
1.77989e-19
2.03493e-19
1.3683e-19
4.4821e-20
4.79969e-21
2.95963e-22
-6.93431e-12
-3.77495e-12
-1.56997e-12
-5.76799e-13
-1.94235e-13
-3.93653e-14
1.15205e-13
1.32216e-13
7.14e-14
1.30682e-14
8.87369e-16
5.27322e-17
1.74924e-18
0
0
-1.60181e-20
-6.33572e-21
-1.45461e-39
1.94029e-22
3.36852e-21
7.16907e-21
3.14397e-21
2.7159e-22
-1.51222e-11
-7.89667e-12
-3.14228e-12
-1.11414e-12
-3.71871e-13
-1.19585e-13
-3.74408e-14
-1.14828e-14
-3.46751e-15
-1.0364e-15
-3.08241e-16
-9.16923e-17
-2.74076e-17
-8.26384e-18
-2.52039e-18
-7.78518e-19
-2.4342e-19
-7.55064e-20
-2.14155e-20
-4.41768e-21
0
7.32587e-22
1.72107e-22
-2.63621e-11
-1.30051e-11
-4.78387e-12
-1.57472e-12
-4.91494e-13
-1.48665e-13
-4.38941e-14
-1.26813e-14
-3.59318e-15
-1.00228e-15
-2.7668e-16
-7.60584e-17
-2.09589e-17
-5.82675e-18
-1.64313e-18
-4.71411e-19
-1.382e-19
-4.15863e-20
-1.25803e-20
-3.49992e-21
-5.74112e-22
-3.10479e-39
5.03406e-23
-3.88259e-11
-1.79016e-11
-5.83022e-12
-1.68363e-12
-4.59198e-13
-1.20903e-13
-3.09471e-14
-7.72337e-15
-1.88532e-15
-4.523e-16
-1.07306e-16
-2.53542e-17
-6.00868e-18
-1.43157e-18
-3.38522e-19
-7.18123e-20
-1.1136e-20
-3.17449e-22
0
-2.87118e-22
-1.35095e-22
1.31253e-42
9.92944e-24
-5.02934e-11
-2.16526e-11
-6.03089e-12
-1.46366e-12
-3.33048e-13
-7.29072e-14
-1.55074e-14
-3.22078e-15
-6.55991e-16
-1.31702e-16
-2.62266e-17
-5.21369e-18
-1.02922e-18
-1.72371e-19
-1.27551e-21
9.43021e-21
4.13691e-20
4.26961e-20
2.29116e-20
4.27229e-21
1.02464e-22
1.61977e-24
9.42826e-24
-5.94737e-11
-2.38221e-11
-5.51418e-12
-1.09891e-12
-2.0474e-13
-3.66716e-14
-6.3872e-15
-1.08845e-15
-1.82386e-16
-3.02145e-17
-4.97687e-18
-8.07326e-19
-7.06887e-20
-1.06727e-21
-2.79612e-35
2.95707e-20
2.31851e-19
2.83692e-19
1.28156e-19
1.92028e-20
5.01755e-22
8.62147e-24
1.03122e-23
1.07425e-16
6.96422e-17
1.18814e-15
8.87097e-13
1.79296e-11
1.11936e-10
5.18798e-10
1.71269e-09
1.76203e-09
8.88495e-09
9.80268e-08
3.85184e-07
6.85187e-07
9.75234e-07
1.54208e-06
1.80098e-06
7.4598e-07
9.2379e-08
9.2386e-08
4.53235e-15
1.67132e-15
5.34931e-13
1.44087e-11
8.38207e-11
1.69482e-10
1.69847e-10
1.80945e-10
5.1758e-09
1.02019e-07
6.0031e-06
6.79035e-06
1.0512e-05
8.57842e-06
1.16423e-05
2.49172e-07
1.0577e-07
9.27378e-08
9.2386e-08
5.9267e-14
1.87724e-13
7.67676e-12
7.09301e-11
1.83605e-10
2.48888e-10
1.80945e-10
6.0714e-10
6.90094e-08
7.56467e-05
0.000193196
0.000188921
0.000113175
0.000121191
0.000401724
0.000418478
3.34784e-05
1.04518e-07
9.27505e-08
4.00735e-13
4.3032e-12
3.67906e-11
8.11225e-11
9.22592e-11
2.8156e-10
1.82708e-10
1.08101e-08
0.000116652
0.000245867
0.000245867
0.000245867
0.000128485
0.000146659
0.000491102
0.000507076
0.000507076
7.87551e-05
2.6193e-07
1.2116e-12
1.22528e-11
3.43966e-11
4.92001e-11
8.14475e-11
8.46047e-11
1.09904e-09
2.53651e-05
0.000240207
0.000243497
0.000245867
6.17111e-05
2.77577e-06
2.39415e-06
2.3772e-06
0.000373366
0.000497093
7.73332e-05
3.3108e-06
1.46174e-12
1.07998e-11
2.3356e-11
3.03448e-11
6.45042e-10
6.80586e-10
1.32072e-08
0.000222201
0.000238051
0.000202995
3.4481e-05
3.40291e-06
2.56053e-06
2.37649e-06
2.39415e-06
1.01419e-05
0.000487109
0.000452811
3.15424e-05
1.50152e-12
4.78894e-12
6.75843e-12
3.13343e-10
1.69992e-08
1.00653e-08
6.51171e-05
0.000232872
0.000236434
4.37915e-06
7.20529e-06
7.62632e-06
3.89626e-06
2.56074e-06
2.37692e-06
2.5737e-06
0.000389254
0.000439662
6.41629e-05
1.50486e-12
1.89216e-12
1.00622e-11
4.76293e-10
9.86651e-08
4.73061e-06
0.00018224
0.000229692
4.23662e-05
2.62614e-06
4.30902e-06
9.74024e-06
1.36754e-05
1.96006e-05
5.74693e-06
3.66139e-06
4.34711e-05
0.000426802
0.000124986
-6.6356e-11
-2.43807e-11
-4.46339e-12
-7.00758e-13
-1.02685e-13
-1.4415e-14
-1.96083e-15
-2.60334e-16
-3.39511e-17
-4.3759e-18
-5.51315e-19
-6.61463e-21
2.54763e-35
2.24195e-19
2.49108e-18
1.27226e-17
1.48616e-17
1.01155e-17
2.84783e-18
2.25341e-19
2.29393e-21
3.42866e-23
1.11808e-23
-7.63347e-11
-2.37857e-11
-2.57662e-12
-2.35661e-13
-2.00182e-14
-1.62021e-15
-1.2639e-16
-9.57932e-18
-7.09763e-19
-3.81307e-20
0
2.00534e-19
3.84564e-18
3.50104e-17
1.74613e-16
4.22122e-16
3.68829e-16
1.69447e-16
2.54948e-17
1.84154e-18
1.50386e-19
1.45028e-20
1.19816e-17
-8.10603e-11
-2.10376e-11
-9.88445e-13
-3.86568e-14
-1.36522e-15
-4.49589e-17
-1.40465e-18
-4.14798e-20
1.99034e-37
3.32979e-20
9.08174e-19
1.32174e-17
1.39534e-16
9.29422e-16
3.34084e-15
5.73709e-15
4.83834e-15
2.16428e-15
6.02057e-16
1.21151e-16
1.16344e-18
4.0389e-17
2.86333e-14
-8.18436e-11
-1.76971e-11
-1.56966e-13
-1.19164e-15
1.05196e-17
1.06931e-19
6.20547e-24
1.84449e-21
7.95659e-20
1.43074e-18
2.08166e-17
2.37703e-16
1.93308e-15
9.79741e-15
2.74144e-14
4.03777e-14
3.71675e-14
2.12903e-14
9.20228e-15
4.37507e-15
5.80337e-15
1.0751e-13
1.56273e-12
-7.9831e-11
-1.5001e-11
-2.81174e-14
-9.77828e-17
1.27155e-17
2.85828e-21
2.06411e-21
7.67301e-20
1.32626e-18
1.90571e-17
2.23032e-16
2.01285e-15
1.27946e-14
5.18478e-14
1.26671e-13
1.88992e-13
1.98744e-13
1.5998e-13
1.22669e-13
1.44737e-13
4.95733e-13
2.96264e-12
1.37344e-11
-7.66987e-11
-1.2881e-11
-1.98005e-14
-2.70036e-17
8.10079e-18
4.30191e-21
4.22474e-20
7.95425e-19
1.14229e-17
1.35663e-16
1.29239e-15
9.42859e-15
4.92918e-14
1.73987e-13
4.09117e-13
6.72676e-13
8.55006e-13
9.652e-13
1.17508e-12
2.1597e-12
6.36091e-12
2.13636e-11
5.43989e-11
-7.33189e-11
-1.11611e-11
-1.4622e-14
-3.04155e-18
5.51295e-18
1.42201e-20
3.18261e-19
4.85846e-18
5.99202e-17
6.00917e-16
4.79123e-15
2.94549e-14
1.34277e-13
4.40444e-13
1.04529e-12
1.89484e-12
2.87777e-12
4.14225e-12
6.5811e-12
1.31466e-11
3.1814e-11
7.59097e-11
1.42174e-10
-7.00077e-11
-9.79254e-12
-1.12662e-14
3.10119e-18
3.4694e-18
6.08396e-20
1.50581e-18
2.00826e-17
2.1716e-16
1.88587e-15
1.29958e-14
7.00777e-14
2.90706e-13
9.17062e-13
2.2263e-12
4.35706e-12
7.46105e-12
1.23564e-11
2.18234e-11
4.30363e-11
8.97852e-11
1.74424e-10
2.77556e-10
-6.69273e-11
-8.71269e-12
-9.00746e-15
3.59386e-18
1.33828e-18
2.17271e-19
5.15843e-18
6.21001e-17
6.00172e-16
4.62499e-15
2.83579e-14
1.38341e-13
5.36395e-13
1.65198e-12
4.08519e-12
8.41869e-12
1.5397e-11
2.69789e-11
4.83211e-11
8.97514e-11
1.63775e-10
2.68728e-10
3.6968e-10
-6.41373e-11
-7.85973e-12
-7.44541e-15
3.60956e-18
6.0811e-19
6.26101e-19
1.39319e-17
1.54503e-16
1.3589e-15
9.49825e-15
5.30718e-14
2.39455e-13
8.80763e-13
2.65742e-12
6.64157e-12
1.40848e-11
2.64634e-11
4.64833e-11
7.97017e-11
1.34173e-10
2.13246e-10
3.03514e-10
3.77986e-10
-6.16495e-11
-7.18624e-12
-6.3364e-15
3.65403e-18
6.0811e-19
1.69357e-18
3.13703e-17
3.24809e-16
2.64549e-15
1.71074e-14
8.88622e-14
3.76894e-13
1.32602e-12
3.91278e-12
9.76483e-12
2.09077e-11
3.9433e-11
6.78261e-11
1.09623e-10
1.68141e-10
2.41547e-10
3.18814e-10
3.84224e-10
-5.94482e-11
-6.65077e-12
-5.54599e-15
3.92658e-18
7.00924e-19
3.92232e-18
6.13177e-17
5.98115e-16
4.58289e-15
2.78817e-14
1.36854e-13
5.52734e-13
1.87146e-12
5.38258e-12
1.32613e-11
2.8252e-11
5.28849e-11
8.89598e-11
1.37576e-10
1.98676e-10
2.69464e-10
3.43635e-10
4.13828e-10
-5.75111e-11
-6.22921e-12
-4.97878e-15
4.37892e-18
9.46453e-19
7.50912e-18
1.06456e-16
9.90576e-16
7.23158e-15
4.19503e-14
1.97099e-13
7.66059e-13
2.51012e-12
7.02751e-12
1.69574e-11
3.55679e-11
6.56613e-11
1.08532e-10
1.6374e-10
2.29543e-10
3.03433e-10
3.83051e-10
4.67816e-10
-5.58235e-11
-5.89847e-12
-4.58208e-15
5.07139e-18
1.37972e-18
1.25309e-17
1.67562e-16
1.50208e-15
1.05537e-14
5.89922e-14
2.67969e-13
1.01073e-12
3.22293e-12
8.79529e-12
2.07207e-11
4.25488e-11
7.71878e-11
1.25829e-10
1.87726e-10
2.60729e-10
3.41887e-10
4.27111e-10
5.0906e-10
-5.43784e-11
-5.64043e-12
-4.30782e-15
6.08559e-18
2.04691e-18
1.87659e-17
2.42295e-16
2.10988e-15
1.4394e-14
7.82593e-14
3.46764e-13
1.27887e-12
3.99029e-12
1.06476e-11
2.45063e-11
4.91742e-11
8.73126e-11
1.3961e-10
2.04549e-10
2.7857e-10
3.55826e-10
4.277e-10
4.83634e-10
-5.31201e-11
-5.43712e-12
-4.13498e-15
7.51191e-18
2.95767e-18
2.56867e-17
3.24953e-16
2.77057e-15
1.85207e-14
9.88747e-14
4.30914e-13
1.56327e-12
4.78957e-12
1.25147e-11
2.81358e-11
5.50788e-11
9.53857e-11
1.48742e-10
2.1228e-10
2.80942e-10
3.48418e-10
4.08268e-10
4.56205e-10
-5.20145e-11
-5.28188e-12
-4.05328e-15
9.46888e-18
4.11689e-18
3.24984e-17
4.07148e-16
3.42607e-15
2.26276e-14
1.19479e-13
5.15145e-13
1.84836e-12
5.59838e-12
1.44526e-11
3.20735e-11
6.18849e-11
1.05432e-10
1.61407e-10
2.255e-10
2.91646e-10
3.53783e-10
4.09095e-10
4.49683e-10
-5.10527e-11
-5.17074e-12
-4.05906e-15
1.21612e-17
5.44704e-18
3.86037e-17
4.80394e-16
4.00616e-15
2.6201e-14
1.37189e-13
5.89243e-13
2.12349e-12
6.51773e-12
1.71314e-11
3.85655e-11
7.44655e-11
1.24356e-10
1.83244e-10
2.4525e-10
3.04717e-10
3.52089e-10
3.71932e-10
3.63837e-10
-5.02311e-11
-5.10196e-12
-4.15445e-15
1.60063e-17
6.86169e-18
4.28275e-17
5.24054e-16
4.35768e-15
2.85096e-14
1.50202e-13
6.57459e-13
2.4531e-12
7.807e-12
2.06839e-11
4.4782e-11
8.0729e-11
1.26254e-10
1.76891e-10
2.23563e-10
2.53659e-10
2.63109e-10
2.63215e-10
2.57932e-10
-4.95502e-11
-5.07591e-12
-4.34712e-15
2.19046e-17
8.22983e-18
4.66583e-17
5.52091e-16
4.5912e-15
2.96687e-14
1.55462e-13
6.85937e-13
2.57762e-12
8.07903e-12
2.05336e-11
4.25523e-11
7.34453e-11
1.07676e-10
1.36928e-10
1.57073e-10
1.72051e-10
1.88121e-10
2.0462e-10
2.13389e-10
-4.90143e-11
-5.09505e-12
-4.65055e-15
3.19386e-17
9.8999e-18
5.00424e-17
5.29373e-16
4.32856e-15
2.75581e-14
1.44933e-13
6.59288e-13
2.55816e-12
7.98235e-12
1.94974e-11
3.77433e-11
5.98364e-11
8.1528e-11
1.0127e-10
1.20688e-10
1.41536e-10
1.62192e-10
1.76275e-10
1.77087e-10
-4.86314e-11
-5.16422e-12
-5.08441e-15
5.06977e-17
1.71941e-17
5.13548e-17
4.64282e-16
3.6765e-15
2.30626e-14
1.23096e-13
5.77895e-13
2.28224e-12
7.07207e-12
1.67592e-11
3.11511e-11
4.81916e-11
6.61246e-11
8.43427e-11
1.02242e-10
1.17507e-10
1.25901e-10
1.2967e-10
1.34051e-10
-4.84133e-11
-5.29116e-12
-5.67469e-15
8.71228e-17
3.53731e-17
5.74891e-17
3.66129e-16
2.76472e-15
1.70774e-14
9.22223e-14
4.41753e-13
1.75944e-12
5.41078e-12
1.25711e-11
2.28442e-11
3.43292e-11
4.49115e-11
5.31188e-11
6.01704e-11
6.93191e-11
8.5549e-11
1.03827e-10
1.22945e-10
-4.83767e-11
-5.48757e-12
-6.4527e-15
1.60853e-16
7.60038e-17
8.33227e-17
2.85408e-16
1.83545e-15
1.09975e-14
5.88038e-14
2.81255e-13
1.11186e-12
3.32808e-12
7.39152e-12
1.26771e-11
1.8122e-11
2.35376e-11
3.0742e-11
4.0528e-11
5.6919e-11
8.828e-11
1.38397e-10
2.01026e-10
-4.85453e-11
-5.77072e-12
-7.45157e-15
3.25874e-16
1.72187e-16
1.65439e-16
3.02399e-16
1.43203e-15
8.2557e-15
4.16203e-14
1.80393e-13
6.51356e-13
1.84593e-12
4.08499e-12
7.49162e-12
1.209e-11
1.85697e-11
3.1022e-11
6.68928e-11
1.35314e-10
2.19109e-10
3.03602e-10
3.92653e-10
-4.89487e-11
-6.16545e-12
-9.44169e-15
7.45432e-16
4.18251e-16
3.94599e-16
4.89619e-16
1.61389e-15
9.13646e-15
4.52591e-14
1.84182e-13
6.21476e-13
1.71498e-12
3.95893e-12
8.22823e-12
1.70543e-11
3.71342e-11
8.72285e-11
1.85988e-10
2.9036e-10
3.64253e-10
4.39619e-10
5.60627e-10
-4.9358e-11
-6.91591e-12
-1.0275e-13
-1.3435e-16
1.04124e-15
1.01808e-15
1.18888e-15
2.82443e-15
1.48757e-14
7.4487e-14
2.92683e-13
9.45954e-13
2.61779e-12
6.48179e-12
1.50399e-11
3.34269e-11
7.18051e-11
1.50015e-10
2.64251e-10
3.56173e-10
4.15977e-10
4.96918e-10
6.79243e-10
-4.95782e-11
-8.24955e-12
-3.9613e-13
-1.55506e-14
1.98177e-15
2.67766e-15
3.21146e-15
6.33084e-15
2.714e-14
1.31457e-13
5.16146e-13
1.65335e-12
4.52152e-12
1.09721e-11
2.4201e-11
4.8914e-11
9.25767e-11
1.67335e-10
2.70596e-10
3.57473e-10
4.21914e-10
5.12813e-10
7.31342e-10
-4.95643e-11
-1.01643e-11
-1.00547e-12
-8.90364e-14
-2.47812e-15
6.45769e-15
8.73111e-15
1.47411e-14
4.52608e-14
1.8505e-13
6.90677e-13
2.15134e-12
5.68148e-12
1.31549e-11
2.75378e-11
5.3137e-11
9.57375e-11
1.61727e-10
2.54525e-10
3.47375e-10
4.20712e-10
5.08437e-10
6.76292e-10
-4.92751e-11
-1.26146e-11
-2.0708e-12
-3.12693e-13
-3.72982e-14
9.30417e-15
2.27142e-14
3.5612e-14
7.73498e-14
2.31803e-13
7.38789e-13
2.1554e-12
5.55639e-12
1.27895e-11
2.70307e-11
5.37539e-11
1.01307e-10
1.75211e-10
2.68908e-10
3.57323e-10
4.09294e-10
4.32097e-10
5.44395e-10
-4.86548e-11
-1.54911e-11
-3.73646e-12
-8.42573e-13
-1.71599e-13
-1.04638e-14
4.75894e-14
8.76408e-14
1.53411e-13
3.28574e-13
8.12793e-13
2.07021e-12
5.08789e-12
1.1845e-11
2.64278e-11
5.5813e-11
1.06997e-10
1.81263e-10
2.70145e-10
3.18892e-10
3.31181e-10
3.61417e-10
8.91224e-10
-4.76139e-11
-1.86179e-11
-6.10894e-12
-1.8975e-12
-5.57029e-13
-1.19241e-13
4.02494e-14
1.90809e-13
3.36447e-13
5.8218e-13
1.11578e-12
2.35876e-12
5.30832e-12
1.23788e-11
2.7562e-11
5.59856e-11
9.96989e-11
1.54163e-10
2.1636e-10
2.5356e-10
2.68738e-10
3.89269e-10
4.09106e-09
0
-2.03397e-11
-9.12309e-12
-2.78156e-12
-3.59682e-15
-8.6845e-29
2.5599e-14
4.60241e-13
1.19196e-12
9.09949e-13
1.77791e-12
3.93762e-12
8.11887e-12
1.58965e-11
2.88769e-11
4.4177e-11
6.31482e-11
9.84934e-11
1.45159e-10
2.1439e-10
2.71579e-10
1.83921e-09
2.76526e-08
3.8994e-12
4.38327e-11
4.46683e-11
1.61651e-12
9.17753e-13
5.62565e-12
1.19789e-11
9.50896e-11
4.36245e-10
3.79116e-10
1.58835e-10
3.04332e-11
1.17594e-11
1.57167e-11
1.79818e-11
2.57317e-11
8.35661e-11
1.42283e-10
2.12e-10
2.91107e-10
9.54499e-10
2.40062e-08
2.10924e-07
3.38513e-09
2.77744e-09
3.08375e-09
7.357e-10
6.18918e-10
1.41412e-09
2.62792e-09
5.59899e-09
2.71934e-08
2.81245e-08
1.57888e-08
3.08904e-09
2.93339e-10
4.44451e-11
2.83617e-11
1.99073e-10
6.33999e-10
2.22597e-09
1.50354e-09
9.93787e-10
1.82247e-08
3.28771e-07
9.32918e-06
1.17269e-07
1.00183e-07
7.50107e-08
2.97756e-08
3.05762e-08
6.91474e-08
1.35093e-07
1.8094e-07
8.32654e-07
8.93436e-07
6.22679e-07
7.96614e-08
5.23147e-10
1.08257e-10
3.21898e-08
5.81256e-07
8.37608e-07
4.51592e-07
2.55813e-08
1.07363e-08
2.25297e-07
8.45275e-05
0.000172974
4.30744e-06
1.97173e-06
1.18419e-06
6.52422e-07
7.41726e-07
1.62658e-06
2.4069e-05
4.50446e-05
2.55046e-05
9.38856e-06
2.60009e-07
5.2507e-08
1.39364e-08
4.19847e-07
9.04825e-06
1.09304e-05
1.03232e-05
2.89635e-06
9.06019e-07
2.11761e-05
0.000358794
0.000779507
0.000224001
0.000278038
0.000273758
9.43886e-05
6.96854e-05
0.000115929
0.000466613
0.00089051
0.000750321
0.000201526
9.8342e-05
0.000215736
0.000313595
0.000285431
5.85245e-05
5.10992e-06
4.57767e-06
4.23966e-06
3.29537e-06
0.00159889
0.0053048
0.00503816
0.000958583
1.20175e-05
0.000442454
0.000934886
0.000964988
0.000976034
0.00117871
0.00118717
0.00118717
0.000816217
0.00042068
0.000797311
0.00124629
0.0012379
0.000540557
7.19319e-06
4.92898e-06
4.66469e-06
4.57429e-06
3.98297e-06
0.0167269
0.0240151
0.0108614
0.000281898
1.85473e-05
4.03625e-09
0.000618205
0.00109303
0.00111401
0.00115939
0.00103461
0.000157227
0.000243276
0.0178635
0.00820439
5.84794e-05
3.00052e-05
1.86338e-05
1.41571e-05
0.00174111
0.00683338
0.0111842
0.0112083
0.0156434
0.0595378
0.0501789
0.012314
0.000588539
1.09609e-19
7.65887e-18
0.000201572
0.0004888
0.000519705
1.34418e-07
2.60404e-06
0.00104357
0.0566812
0.0738962
0.0700787
0.0677172
0.0899621
0.0958672
0.0967528
0.0971731
0.0969718
0.0604234
0.00150662
0.0283459
0.266603
0.345262
0.345973
-2.56785e-35
-1.13332e-19
-1.5763e-20
-1.95933e-27
5.51454e-26
2.82783e-23
2.30964e-06
0.000124632
0.000504016
0.00340258
0.00268099
0.0029106
0.00339672
0.00425267
0.00381501
0.00477211
0.00380214
0.00150662
0.00150662
0.00257476
0.00972163
0.0173044
0.0156262
2.07297e-19
2.31274e-14
1.30399e-12
1.42858e-12
2.43156e-15
2.84903e-13
2.00148e-12
1.9341e-12
5.36159e-13
2.8877e-12
4.59164e-12
3.65558e-12
7.05339e-12
1.13124e-11
1.17265e-11
9.94365e-12
2.87594e-11
3.24704e-11
2.75462e-11
1.89311e-11
7.87816e-11
8.15221e-11
6.64123e-11
4.0521e-11
1.78107e-10
1.81193e-10
1.4632e-10
8.71353e-11
3.27503e-10
3.3169e-10
2.67725e-10
1.65155e-10
4.09073e-10
4.11894e-10
3.86191e-10
3.04895e-10
4.09992e-10
4.15769e-10
4.12447e-10
3.86629e-10
4.15782e-10
4.26142e-10
4.40781e-10
5.48897e-10
4.59243e-10
4.89883e-10
5.37361e-10
5.98661e-10
5.33975e-10
5.78078e-10
6.13905e-10
6.22238e-10
5.56997e-10
5.69398e-10
5.67193e-10
5.66742e-10
5.07412e-10
5.1383e-10
5.1903e-10
5.24436e-10
4.81372e-10
4.91972e-10
4.98375e-10
4.90141e-10
4.58162e-10
4.43025e-10
4.0755e-10
3.54526e-10
3.38702e-10
3.11984e-10
2.80063e-10
2.49788e-10
2.47733e-10
2.36042e-10
2.21835e-10
2.09206e-10
2.10393e-10
2.01114e-10
1.89038e-10
1.82513e-10
1.70682e-10
1.62926e-10
1.5955e-10
1.65987e-10
1.39367e-10
1.42819e-10
1.49143e-10
1.65231e-10
1.3992e-10
1.56187e-10
1.90664e-10
2.28195e-10
2.53649e-10
2.92312e-10
3.64836e-10
3.68006e-10
4.63817e-10
5.15539e-10
6.09319e-10
6.41612e-10
6.78239e-10
7.6955e-10
9.1858e-10
1.20285e-09
8.86781e-10
1.04307e-09
1.30365e-09
1.95285e-09
9.90627e-10
1.19933e-09
1.5686e-09
2.38335e-09
9.60174e-10
1.22054e-09
1.70467e-09
2.51279e-09
1.00523e-09
1.60149e-09
2.23939e-09
3.01585e-09
1.93945e-09
3.71807e-09
6.59555e-09
6.33815e-09
9.62475e-09
1.8395e-08
9.95768e-08
9.15087e-08
6.16025e-08
4.46569e-07
1.27061e-06
3.16188e-07
1.30592e-06
6.51841e-06
1.65605e-06
3.26292e-07
3.64824e-05
7.91524e-06
8.45452e-07
5.35352e-07
4.90234e-05
1.43375e-06
1.04491e-06
1.23411e-06
2.61995e-06
1.97184e-06
1.43371e-06
4.22698e-06
6.03521e-06
2.41563e-06
4.10302e-06
2.78129e-05
1.15887e-05
6.63334e-06
2.83582e-05
0.000152746
1.85543e-05
0.00258885
0.0125893
0.0313038
0.345066
0.346217
0.346217
0.346217
0.0162646
0.0204477
0.0195481
0.0181632
2.02119e-12
3.7363e-12
8.76079e-11
6.0086e-09
1.69226e-07
5.18908e-05
0.000181178
0.000114001
1.10189e-07
1.81384e-06
2.28297e-06
0.000338904
0.000516598
0.000181696
5.49491e-06
4.42715e-06
0.00014172
0.00018167
0.000125554
7.05849e-12
1.27453e-11
7.97502e-10
3.35382e-08
8.83122e-07
0.000105538
0.000103454
4.00765e-08
1.29679e-08
1.10118e-07
0.000184905
0.00123032
0.00123269
0.000609601
1.69393e-05
0.000205056
0.000584166
0.000565876
0.000132072
2.59953e-11
6.02779e-11
3.2242e-09
1.05566e-07
1.0571e-05
5.89499e-05
3.86581e-08
9.36115e-09
1.08592e-08
1.29009e-08
0.00107011
0.00123271
0.0012327
0.00111334
0.000126206
0.000144321
0.000607427
0.00061549
0.000171324
5.67838e-11
1.21694e-10
6.81729e-09
1.20339e-06
1.72297e-05
2.87955e-07
9.36919e-09
8.42597e-09
9.82136e-09
0.000117357
0.00122689
0.00123197
0.00123269
0.00123195
0.000381428
2.68811e-05
0.000613283
0.00061549
0.000289547
1.13171e-10
3.90216e-10
1.47094e-08
3.20814e-06
1.72297e-05
2.89176e-07
8.45923e-09
7.70126e-09
8.46237e-09
2.34358e-05
0.000660367
0.00122662
0.00123195
0.00123188
0.000302703
7.17119e-06
0.000273615
0.00061549
0.000302681
2.83624e-10
1.49704e-09
7.00679e-08
3.30192e-06
2.49446e-06
3.1866e-07
1.79185e-08
6.99117e-09
7.70535e-09
2.21503e-08
4.58796e-07
0.000919927
0.00122452
0.000443776
2.08875e-05
2.39661e-06
8.79428e-06
0.000504614
0.000192286
4.61302e-10
3.89417e-09
2.39345e-07
4.5048e-07
4.65839e-09
5.77676e-09
6.8328e-09
6.76514e-09
6.02828e-08
2.19477e-07
3.32907e-06
0.000121148
7.66461e-05
1.08298e-06
9.4603e-07
9.37969e-07
1.88363e-06
3.56912e-05
5.38397e-05
5.14359e-10
1.88125e-08
2.13556e-07
2.42436e-09
4.32714e-09
6.19737e-09
6.34327e-09
6.52966e-09
3.88132e-08
4.95052e-05
4.8956e-05
1.86149e-06
1.09495e-06
9.33856e-07
8.50702e-07
7.88631e-07
9.91172e-07
2.53063e-06
1.838e-05
6.19425e-10
1.87527e-08
1.6881e-08
2.13655e-09
6.24371e-09
9.46644e-09
6.28321e-09
6.37203e-09
7.33999e-07
8.65497e-05
8.62045e-05
4.38946e-05
3.93166e-06
8.45617e-07
7.89601e-07
7.02306e-07
7.87155e-07
1.62535e-05
5.45372e-05
1.51958e-09
5.13273e-09
5.85296e-10
1.35436e-09
3.53144e-09
6.97129e-09
6.28387e-09
6.28305e-09
1.04714e-08
6.69958e-05
8.66534e-05
8.58546e-05
3.01073e-05
8.13824e-07
6.86804e-07
6.67656e-07
0.00771119
0.00131663
0.000133419
9.19638e-10
6.32366e-10
5.7662e-10
1.40197e-09
1.44458e-09
3.89009e-09
6.02186e-09
8.52113e-09
3.7132e-08
1.88395e-06
7.71174e-05
8.5308e-05
3.28233e-05
4.9839e-07
6.20711e-07
6.10415e-07
0.0131556
0.0134419
0.000534694
6.47017e-10
5.98429e-10
5.63267e-10
5.73925e-10
2.68286e-08
1.72559e-08
6.34022e-09
4.14741e-07
4.50051e-07
2.06265e-07
5.58335e-06
3.30123e-05
9.0278e-06
1.12667e-07
5.17376e-07
4.20261e-07
0.013938
0.0151513
0.00100235
6.18353e-10
5.99762e-10
4.32111e-10
4.52573e-10
1.34429e-07
1.18525e-07
1.54579e-08
6.79934e-07
6.79934e-07
2.50571e-07
1.65205e-08
1.69764e-08
2.13387e-08
1.00184e-07
2.62168e-07
2.84464e-07
0.0066097
0.0151513
0.00195328
5.70204e-10
4.31891e-10
3.50697e-10
3.70238e-08
1.40861e-07
1.39865e-07
2.0152e-08
4.71371e-07
6.79934e-07
3.94325e-07
5.62501e-09
1.42229e-08
1.77806e-08
6.90148e-08
1.26733e-07
1.98722e-06
0.000491798
0.0151513
0.00337442
5.34886e-10
2.51981e-10
2.58926e-10
1.26352e-07
1.40406e-07
1.40406e-07
1.63829e-08
9.73493e-10
2.68883e-07
9.92402e-08
1.19396e-09
1.08976e-08
4.48496e-07
1.90731e-07
1.32358e-07
1.64825e-07
-2.04167e-05
0.00737117
0.00496386
4.14687e-10
2.45544e-10
3.22185e-09
1.26748e-07
1.39935e-07
4.84998e-08
8.16044e-10
7.95294e-10
8.86907e-10
9.48972e-10
1.05787e-09
1.1127e-09
3.51809e-06
3.11304e-06
1.82786e-07
1.72733e-07
-5.67429e-06
6.75127e-05
0.0383099
2.75567e-10
2.44855e-10
6.6176e-09
2.86344e-08
1.87574e-08
4.29476e-10
6.07506e-10
7.5658e-10
7.95297e-10
8.89679e-10
1.03506e-09
1.12014e-09
4.19729e-06
4.65379e-06
1.16622e-06
3.11582e-07
-4.79313e-07
1.8858e-05
0.299089
2.35103e-10
2.4525e-10
2.70853e-09
3.69172e-10
4.0617e-10
4.11622e-10
5.81404e-10
8.46902e-10
1.1721e-09
1.23506e-09
1.13916e-09
1.20787e-09
1.73186e-06
4.66085e-06
2.06475e-06
3.42034e-07
4.78615e-08
5.30568e-06
0.455624
2.22878e-10
3.11904e-10
3.12974e-10
3.321e-10
3.69172e-10
5.00229e-10
8.46933e-10
1.42334e-09
1.93758e-09
2.66036e-09
1.44458e-09
1.34198e-09
1.96593e-09
4.52163e-06
3.15876e-06
3.77172e-07
4.24208e-07
1.87625e-06
0.461315
1.97331e-10
3.06753e-10
3.19185e-10
5.1011e-10
6.65874e-10
9.0086e-10
1.49385e-09
2.19115e-09
2.81481e-09
1.27953e-08
4.62605e-09
2.25229e-09
4.30066e-09
3.28284e-06
3.39789e-06
8.05421e-07
6.77815e-07
1.11371e-06
0.466666
1.75697e-10
2.80378e-10
1.50495e-09
1.3824e-09
1.2171e-09
1.44743e-09
2.49922e-09
3.93684e-09
3.27192e-09
1.95625e-08
1.0518e-07
5.55962e-08
5.67152e-09
4.35794e-07
3.39789e-06
8.77684e-07
5.25106e-07
0.000276459
0.468881
1.68221e-10
1.01823e-09
8.19064e-09
4.95947e-09
2.33221e-09
2.44135e-09
4.91569e-09
1.41561e-08
5.29739e-09
1.21968e-08
8.81098e-07
9.24461e-07
7.0274e-08
3.54608e-07
1.17088e-06
6.25812e-07
4.33238e-07
0.00116173
0.467875
1.70568e-10
3.24679e-09
1.19094e-08
9.85505e-09
4.44814e-09
5.29609e-09
1.61408e-08
4.88488e-08
1.47688e-08
1.89242e-08
1.26771e-06
1.28525e-06
4.05432e-07
3.15411e-07
3.1535e-07
3.53014e-07
3.98432e-07
0.00301867
0.418737
1.76582e-10
3.79703e-09
1.16734e-08
1.10793e-08
7.96747e-09
1.39709e-08
5.05507e-08
1.57938e-07
9.81192e-08
7.60448e-08
1.31014e-06
1.09738e-06
3.76567e-07
4.20117e-07
3.48355e-07
3.82766e-07
3.83363e-07
0.00527259
0.160167
3.63422e-10
2.3565e-09
4.10938e-09
5.57542e-09
1.20625e-08
3.99135e-08
1.49921e-07
5.13332e-07
4.59319e-07
2.52705e-07
1.33688e-06
1.22357e-06
4.16926e-07
6.69935e-06
3.82534e-07
3.87531e-07
3.18935e-06
0.00601137
0.250444
1.10484e-09
1.30487e-09
1.45225e-09
3.61089e-09
2.43885e-08
1.23331e-07
4.22491e-07
1.50611e-06
2.13562e-06
9.46176e-07
1.25087e-06
1.06275e-05
4.55902e-07
2.00817e-05
5.79141e-05
2.70661e-06
3.09807e-06
0.00601039
0.62108
1.67789e-09
1.6553e-09
2.50111e-09
1.24583e-08
9.50134e-08
4.08352e-07
1.32047e-06
4.28712e-06
8.51147e-06
4.10131e-06
1.32267e-06
3.46296e-05
1.61192e-05
4.42486e-05
0.000104326
5.48471e-06
3.88783e-05
0.00840208
0.782339
1.86373e-09
2.06369e-09
6.11699e-09
4.92357e-08
3.69994e-07
1.33914e-06
4.4797e-06
1.3799e-05
2.77866e-05
1.62391e-05
1.56249e-06
9.55824e-05
9.30018e-05
4.76419e-05
0.000104113
6.1022e-06
0.000329943
0.016745
0.801452
2.1541e-09
3.22017e-09
2.13531e-08
2.12425e-07
1.43744e-06
4.39582e-06
1.60165e-05
5.0378e-05
7.40806e-05
5.0583e-05
5.67509e-05
0.000113153
0.000101734
4.73629e-05
6.21148e-05
6.14875e-06
0.000932617
0.0415369
0.837643
3.21438e-09
7.48603e-09
9.07272e-08
8.97746e-07
5.47314e-06
1.51511e-05
5.9399e-05
0.000177513
0.000183998
0.000206019
0.00023269
0.000102193
5.07119e-05
4.83038e-05
4.96244e-05
-7.31441e-07
0.00315045
0.0586605
0.895068
7.76569e-09
2.67909e-08
3.90069e-07
3.73988e-06
2.01671e-05
6.37563e-05
0.000249275
0.000559074
0.000542413
0.000559377
0.000342686
5.68494e-05
5.38765e-05
4.95571e-05
5.70977e-05
0.000118099
0.0103295
0.0813312
0.941479
2.7997e-08
1.11984e-07
1.62972e-06
1.92121e-05
8.17424e-05
0.000247051
0.00183576
0.00194619
0.0012948
0.000453974
9.19751e-05
6.16594e-05
5.69267e-05
5.32311e-05
8.63897e-05
0.000425277
0.0208214
0.340748
0.97308
1.71717e-07
2.12336e-06
3.63746e-05
0.000143165
0.0011497
0.00220605
0.00553828
0.0064718
0.000709212
8.51805e-05
7.4906e-05
6.7472e-05
6.50689e-05
7.72025e-05
0.000147651
0.00100297
0.100178
0.887581
0.991248
4.65297e-07
1.81109e-05
0.000136958
0.000418101
0.00237791
0.0172632
0.0196881
0.00824149
0.00012076
0.000104073
8.51688e-05
7.45858e-05
8.07372e-05
0.000179024
0.0179589
0.134989
0.565036
0.993096
0.994905
1.63164e-06
2.87496e-05
0.000158408
0.000610832
0.00234787
0.0357255
0.0752799
0.0471947
0.00273766
0.0361608
0.169027
0.280415
0.381471
0.474407
0.566588
0.747722
0.975876
0.994975
0.995578
5.93754e-06
4.35465e-05
0.000340912
0.00156835
0.00509149
0.0186194
0.299773
0.657565
0.751269
0.783141
0.877642
0.933273
0.959974
0.97249
0.98127
0.985616
0.99274
0.995987
0.995738
2.80903e-05
0.000168071
0.001111
0.00598209
0.0140227
0.0506378
0.520351
0.972948
0.993142
0.995595
0.996076
0.996144
0.995716
0.995233
0.995084
0.995653
0.996472
0.996795
0.99558
0.000151817
0.0007169
0.00320642
0.029237
0.155029
0.225263
0.360362
0.890025
0.995949
0.996888
0.996973
0.996949
0.997015
0.996966
0.996853
0.996819
0.996837
0.996965
0.995773
0.000765249
0.00354969
0.0145094
0.0900622
0.419951
0.697291
0.684446
0.67225
0.832483
0.996987
0.997041
0.997035
0.997024
0.997031
0.997009
0.996983
0.996976
0.996986
0.996082
0.0469243
0.120046
0.251034
0.326599
0.473247
0.77902
0.926853
0.929082
0.920976
0.99585
0.997049
0.997048
0.997046
0.997045
0.997041
0.997031
0.997019
0.997005
0.996978
0.274004
0.438798
0.438798
0.437929
0.332872
0.341707
0.822634
0.995726
0.996909
0.99706
0.99706
0.997048
0.997048
0.997049
0.997047
0.997042
0.997032
0.99702
0.997006
0.0158117
0.0366155
0.0510254
0.0527742
0.0554645
0.0871781
0.15309
0.231748
0.301507
0.373885
0.413268
0.48967
0.506432
0.57884
0.572478
0.628287
0.594524
0.619591
0.517693
)
;

boundaryField
{
    leftWall
    {
        type            zeroGradient;
    }
    rightWall
    {
        type            zeroGradient;
    }
    lowerWall
    {
        type            zeroGradient;
    }
    atmosphere
    {
        type            inletOutlet;
        inletValue      uniform 0;
        value           nonuniform List<scalar> 
46
(
0
0
0
0
0
0
0
0
0
0.00340258
0
0.0029106
0
0.00425267
0
0.00477211
0
0.00150662
0.00150662
0.00257476
0
0.0173044
0
0.0162646
0.0204477
0.0195481
0
0
0.0366155
0.0510254
0
0.0554645
0.0871781
0
0
0
0.373885
0
0.48967
0
0.57884
0
0.628287
0
0.619591
0
)
;
    }
    defaultFaces
    {
        type            empty;
    }
}


// ************************************************************************* //
