/*--------------------------------*- C++ -*----------------------------------*\
  =========                 |
  \\      /  F ield         | OpenFOAM: The Open Source CFD Toolbox
   \\    /   O peration     | Website:  https://openfoam.org
    \\  /    A nd           | Version:  9
     \\/     M anipulation  |
\*---------------------------------------------------------------------------*/
FoamFile
{
    format      ascii;
    class       volScalarField;
    location    "1";
    object      epsilon;
}
// * * * * * * * * * * * * * * * * * * * * * * * * * * * * * * * * * * * * * //

dimensions      [0 2 -3 0 0 0 0];

internalField   nonuniform List<scalar> 
2268
(
0.0118225
0.0446361
0.0819893
0.117134
0.149645
0.181242
0.214075
0.250184
0.291628
0.340598
0.399868
0.473263
0.553378
0.636334
0.71876
0.796509
0.861769
0.902649
0.897581
0.8153
0.612943
0.301906
0.0662186
0.0233197
0.0385835
0.0594437
0.0774893
0.0926052
0.105769
0.118252
0.131329
0.146334
0.16472
0.188239
0.218819
0.254501
0.293444
0.333449
0.371653
0.404159
0.425687
0.428288
0.400605
0.326617
0.199747
0.0926891
0.0395488
0.0422277
0.0581316
0.0718656
0.0829664
0.092456
0.101716
0.112197
0.125393
0.142807
0.165907
0.195401
0.229946
0.267385
0.30484
0.339174
0.367529
0.386777
0.392039
0.375702
0.326476
0.234409
0.140826
0.0560172
0.0469119
0.0597171
0.071398
0.0809638
0.0895324
0.0986951
0.11016
0.125655
0.146807
0.174981
0.210313
0.250922
0.293637
0.334338
0.369251
0.396348
0.414443
0.420949
0.410591
0.374046
0.299536
0.206758
0.0724556
0.0519032
0.0621895
0.0726256
0.0816649
0.0905404
0.101115
0.11543
0.135521
0.163204
0.199792
0.244797
0.295169
0.346122
0.391773
0.427572
0.452728
0.468627
0.475321
0.469828
0.444977
0.389584
0.308601
0.0888268
0.0570186
0.0650706
0.0747189
0.083891
0.0939826
0.107222
0.126098
0.153057
0.190117
0.238428
0.296542
0.359561
0.420477
0.471142
0.506296
0.527241
0.539004
0.544807
0.543827
0.531946
0.505367
0.469101
0.105063
0.0621752
0.0681943
0.0774162
0.0873049
0.0995106
0.116778
0.142221
0.178792
0.228589
0.292276
0.366891
0.444914
0.516574
0.571022
0.602607
0.616019
0.621361
0.625363
0.628356
0.629242
0.643752
0.789267
0.121111
0.0673526
0.0715012
0.0806463
0.0918688
0.107225
0.130215
0.164824
0.214533
0.281082
0.364117
0.45843
0.553106
0.635267
0.691007
0.714856
0.716696
0.713578
0.71547
0.721396
0.72885
0.776106
1.45245
0.410585
0.84575
1.62243
2.47956
3.40508
4.36776
4.83168
4.64087
3.81751
2.69267
1.90694
1.53481
1.39494
1.26412
1.08657
0.877216
0.633505
0.341763
0.0873339
0.622127
1.03449
1.35181
1.52858
1.70923
1.9512
2.10503
2.07354
1.80636
1.39054
1.03752
0.816309
0.708079
0.635913
0.561934
0.473178
0.364835
0.236204
0.0955531
1.02486
1.07638
1.22029
1.29448
1.39951
1.55139
1.68699
1.72328
1.58081
1.29453
0.996437
0.78439
0.664491
0.591255
0.531453
0.463507
0.373537
0.260687
0.14843
1.30274
1.08103
1.14895
1.20624
1.29008
1.41647
1.56131
1.65365
1.59779
1.38132
1.09242
0.86151
0.719439
0.636163
0.581663
0.52701
0.445344
0.33246
0.24747
1.50081
1.07432
1.10706
1.16588
1.23887
1.35219
1.49571
1.62026
1.65838
1.53001
1.24863
0.99001
0.818682
0.720066
0.670104
0.633691
0.565436
0.452124
0.391035
1.64223
1.0611
1.08051
1.14637
1.21142
1.31388
1.44603
1.58109
1.69442
1.68367
1.44408
1.15752
0.951771
0.831737
0.785524
0.77508
0.72866
0.620325
0.597065
1.74975
1.04527
1.06241
1.14164
1.19993
1.29173
1.4085
1.54276
1.69283
1.81301
1.66128
1.35768
1.11548
0.965066
0.912684
0.915259
0.875311
0.786438
0.96357
1.86921
1.03293
1.0516
1.14397
1.20037
1.27878
1.37657
1.50251
1.6665
1.88604
1.85049
1.56057
1.28572
1.08663
1.00741
0.987017
0.926424
0.857666
1.34227
0.147925
0.0755989
0.0769689
0.0865858
0.101017
0.123327
0.158773
0.213177
0.290531
0.390335
0.507861
0.633941
0.752897
0.847715
0.900137
0.90564
0.884172
0.866002
0.863009
0.865792
0.853149
0.825963
0.862064
0.169194
0.0831788
0.0833526
0.0957804
0.118153
0.157066
0.223196
0.32709
0.470844
0.642032
0.820152
0.990702
1.13672
1.23742
1.26619
1.22214
1.15083
1.10848
1.08421
1.0622
0.984056
0.892995
0.845712
0.180274
0.088635
0.0895708
0.10736
0.143256
0.211631
0.334596
0.52909
0.78206
1.04646
1.28038
1.47281
1.6279
1.69976
1.66366
1.55728
1.42329
1.32365
1.26179
1.20463
1.09869
1.00935
0.95857
0.179746
0.0922004
0.0957593
0.122109
0.180222
0.300579
0.528256
0.88373
1.29469
1.62872
1.84437
1.9607
2.00742
1.9945
1.91898
1.83591
1.73641
1.59002
1.46941
1.37825
1.26719
1.18764
1.1423
0.17757
0.0962209
0.103118
0.142974
0.238445
0.45007
0.862005
1.48171
2.0435
2.10705
2.01546
1.9861
1.98493
1.97825
1.95489
1.95712
2.01179
1.97965
1.7913
1.62147
1.48238
1.39482
1.34301
0.187585
0.103176
0.115813
0.178433
0.34073
0.707267
1.37155
2.09081
2.23465
2.01056
1.86762
1.83841
1.86114
1.89545
1.92487
1.97278
2.08105
2.21434
2.15835
1.91711
1.73061
1.61867
1.55023
0.226916
0.114865
0.139257
0.236576
0.465446
0.891392
1.45262
1.83778
1.85693
1.76837
1.73353
1.76242
1.81919
1.88274
1.93204
1.97627
2.05254
2.17112
2.2587
2.17829
2.00327
1.86669
1.78994
0.268315
0.131222
0.166201
0.270519
0.477883
0.81509
1.20918
1.47327
1.55449
1.59667
1.6852
1.7732
1.87101
1.98386
2.02551
2.03824
2.06434
2.11035
2.16633
2.20044
2.16633
2.09621
2.04472
0.304863
0.148104
0.176977
0.269811
0.444591
0.708857
1.00618
1.2197
1.32953
1.45389
1.62313
1.76933
1.91521
2.06875
2.16003
2.1786
2.16315
2.14949
2.14097
2.13718
2.13343
2.13908
2.14488
0.302682
0.146596
0.171484
0.25098
0.393382
0.599842
0.830898
1.01117
1.12793
1.26753
1.44995
1.63675
1.82881
2.02993
2.21887
2.34597
2.3451
2.28653
2.2171
2.15694
2.10667
2.07387
2.05672
0.273767
0.133408
0.153684
0.218224
0.330116
0.489955
0.672663
0.829013
0.942842
1.06752
1.2316
1.41895
1.62455
1.85114
2.09747
2.33614
2.47535
2.47241
2.37103
2.25825
2.14266
2.05648
1.99385
0.23721
0.11704
0.131364
0.180869
0.265736
0.387467
0.532224
0.670026
0.778059
0.88373
1.01302
1.16693
1.34552
1.55682
1.80423
2.07823
2.31907
2.4546
2.47593
2.38728
2.23576
2.09317
1.96871
0.205188
0.103125
0.111161
0.147166
0.209606
0.301272
0.41454
0.529881
0.630086
0.722538
0.822934
0.938412
1.07343
1.23554
1.43262
1.6672
1.92896
2.1483
2.28826
2.32154
2.25769
2.13183
1.96787
0.184832
0.0944789
0.0964085
0.121553
0.166598
0.233323
0.318525
0.41148
0.499879
0.581652
0.662611
0.74843
0.844334
0.957097
1.09425
1.26095
1.45562
1.66615
1.84469
1.96251
1.99943
1.95546
1.85531
0.173189
0.0901601
0.0872466
0.103884
0.135434
0.182786
0.244957
0.316669
0.390135
0.46062
0.527978
0.594282
0.662863
0.738516
0.826882
0.932755
1.05823
1.20326
1.35223
1.47606
1.55502
1.58152
1.56922
0.166359
0.0882333
0.0820349
0.0924301
0.114088
0.147159
0.191504
0.244776
0.302563
0.360613
0.416518
0.469714
0.521231
0.573564
0.630161
0.694436
0.768785
0.854527
0.953251
1.0491
1.12927
1.18602
1.22131
0.161961
0.0873499
0.0791564
0.0852257
0.0999372
0.122902
0.154155
0.192731
0.23632
0.28199
0.32718
0.370264
0.41078
0.449463
0.487965
0.52829
0.57225
0.621447
0.678722
0.741834
0.804793
0.863415
0.91661
0.158487
0.0866247
0.077334
0.0805393
0.0905299
0.106553
0.128581
0.15621
0.188276
0.222996
0.258415
0.292871
0.325336
0.355576
0.384079
0.411791
0.43981
0.469342
0.502272
0.541177
0.58431
0.630873
0.680607
0.155036
0.0855589
0.0757362
0.0771032
0.0839575
0.0953093
0.111013
0.130865
0.154268
0.180193
0.207346
0.234428
0.260406
0.28469
0.307174
0.328147
0.348146
0.367929
0.388723
0.412948
0.441155
0.474143
0.51288
0.151148
0.0839373
0.0739274
0.074134
0.0789274
0.0871687
0.0986064
0.113089
0.130288
0.149614
0.17026
0.19133
0.211998
0.231653
0.249968
0.266891
0.282598
0.297487
0.312309
0.3286
0.347506
0.370233
0.398293
0.146679
0.0817331
0.0717547
0.0712361
0.0746725
0.080842
0.0894141
0.10024
0.113115
0.127693
0.14348
0.159889
0.17633
0.192295
0.207427
0.221536
0.2346
0.246771
0.258457
0.270562
0.284107
0.300203
0.320372
0.141682
0.079036
0.0692363
0.0682703
0.0708008
0.0755735
0.0822081
0.0905449
0.100438
0.111671
0.123942
0.136874
0.150062
0.163126
0.175752
0.187722
0.198921
0.209359
0.219228
0.229043
0.239559
0.251663
0.266662
0.136314
0.0759987
0.0664759
0.0652409
0.0671532
0.070963
0.076265
0.0828904
0.0907204
0.0996129
0.109376
0.119767
0.130516
0.141349
0.152015
0.162312
0.172097
0.181311
0.19002
0.198515
0.207325
0.217121
0.228953
0.130766
0.0727974
0.0636091
0.0622185
0.0636971
0.0668238
0.0711863
0.0766119
0.0829969
0.0902404
0.0982167
0.106769
0.115716
0.124862
0.134019
0.143014
0.151709
0.160018
0.167946
0.175659
0.183523
0.192042
0.202039
0.125229
0.069603
0.0607719
0.0592958
0.060461
0.0630875
0.0667681
0.0713312
0.0766829
0.0827475
0.0894403
0.0966579
0.104278
0.112164
0.120174
0.128171
0.136034
0.143675
0.151068
0.158331
0.165706
0.173578
0.182588
0.119879
0.0665614
0.0580844
0.0565643
0.0574955
0.0597444
0.0629147
0.0668395
0.0714334
0.0766371
0.0823923
0.0886306
0.0952696
0.102214
0.109361
0.116604
0.123843
0.131001
0.138041
0.145069
0.152237
0.159849
0.168407
0.114877
0.0637838
0.0556422
0.0541013
0.0548521
0.0568071
0.0595841
0.0630225
0.0670445
0.071603
0.076658
0.0821649
0.0880694
0.0943069
0.100803
0.107479
0.114258
0.121075
0.127907
0.134836
0.141973
0.149559
0.157994
0.110366
0.0613462
0.0535132
0.0519643
0.0525714
0.0542912
0.056756
0.0598124
0.06339
0.0674512
0.0719692
0.0769167
0.0822601
0.0879573
0.0939579
0.100205
0.106643
0.113221
0.119947
0.126867
0.134076
0.141774
0.150279
0.106471
0.0592955
0.0517387
0.0501886
0.0506781
0.0522046
0.0544145
0.0571622
0.0603839
0.06405
0.0681439
0.0726511
0.0775536
0.0828271
0.0884401
0.0943556
0.100535
0.106948
0.113622
0.120583
0.127918
0.135794
0.144471
0.103295
0.0576574
0.0503392
0.0487903
0.049181
0.0505443
0.0525404
0.0550313
0.0579594
0.0613016
0.0650495
0.0691984
0.0737423
0.0786708
0.083968
0.0896131
0.0955829
0.10188
0.10852
0.115536
0.123007
0.131078
0.139964
0.100919
0.0564462
0.0493213
0.0477721
0.0480766
0.0492983
0.0511099
0.0533808
0.056059
0.0591271
0.0625828
0.0664292
0.0706694
0.075304
0.0803296
0.0857395
0.0915275
0.0977157
0.104317
0.111371
0.118955
0.127198
0.136277
0.0994077
0.0556734
0.048687
0.0471301
0.0473552
0.0484494
0.0500965
0.0521728
0.0546313
0.0574595
0.0606599
0.0642414
0.0682139
0.072586
0.0773642
0.0825519
0.0881678
0.0942304
0.100763
0.107812
0.115454
0.123808
0.133027
0.0988225
0.0553563
0.0484412
0.0468611
0.0470062
0.0479792
0.0494732
0.0513706
0.0536293
0.0562407
0.0592114
0.0625538
0.0662825
0.0704118
0.074955
0.079926
0.0853535
0.091258
0.0976719
0.104648
0.112267
0.12064
0.129905
0.0992322
0.0555251
0.0485976
0.0469666
0.0470204
0.0478692
0.0492125
0.0509383
0.053009
0.0554194
0.058179
0.0613028
0.0648074
0.0687094
0.073025
0.0777782
0.0829928
0.0886946
0.0949229
0.101737
0.109222
0.117491
0.12667
0.100716
0.0562229
0.0491778
0.0474513
0.047389
0.0480988
0.0492844
0.0508381
0.0527265
0.0549478
0.057514
0.0604415
0.0637464
0.0674435
0.0715473
0.0760787
0.0810549
0.0865027
0.092465
0.0990077
0.106223
0.114227
0.123149
0.103343
0.0574974
0.0502043
0.0483164
0.048096
0.0486395
0.0496509
0.0510259
0.0527344
0.0547791
0.0571753
0.0599408
0.0630881
0.0666228
0.0705475
0.0748648
0.0795813
0.0847194
0.0903238
0.0964668
0.103249
0.110797
0.119246
0.107124
0.0593773
0.0516821
0.0495446
0.0491077
0.049446
0.0502597
0.0514456
0.0529775
0.0548644
0.057129
0.0597931
0.0628625
0.0663197
0.0701288
0.074259
0.0786993
0.0834667
0.0886093
0.0942078
0.100374
0.107243
0.114964
0.111943
0.0618367
0.0535727
0.0510815
0.0503585
0.0504471
0.0510377
0.0520256
0.0533896
0.0551503
0.0573482
0.0600191
0.0631607
0.066703
0.0705097
0.0744967
0.0786391
0.0829599
0.0875209
0.0924165
0.0977695
0.103725
0.11044
0.117488
0.0647533
0.055765
0.0528156
0.05174
0.0515397
0.0518887
0.0526775
0.0538921
0.0555759
0.0578082
0.060668
0.0641571
0.0680969
0.0720786
0.075959
0.0797451
0.0835075
0.0873443
0.0913711
0.0957196
0.100536
0.105975
0.12321
0.0678741
0.0580488
0.0545644
0.0530948
0.0525892
0.0526968
0.0532998
0.0543953
0.056065
0.058465
0.061786
0.0661112
0.071093
0.0754749
0.079197
0.0824688
0.0854944
0.0884367
0.0914334
0.0946146
0.098112
0.102061
0.128331
0.0707845
0.0600913
0.0560661
0.0542196
0.0534369
0.0533355
0.0537872
0.0548018
0.0565132
0.0591998
0.0632921
0.0692386
0.0768186
0.0816889
0.0849095
0.0873174
0.0893421
0.0912041
0.093038
0.0949472
0.0970268
0.0993706
0.131811
0.0727746
0.0614006
0.0569819
0.0548794
0.0539184
0.0536881
0.0540503
0.0550246
0.0567886
0.0597466
0.0646745
0.073028
0.0878429
0.0920854
0.0937716
0.0947343
0.0954555
0.096086
0.0966906
0.0973105
0.0979813
0.0987375
1.22947
0.848133
1.19952
1.87263
0.884839
0.940456
1.04981
1.17412
0.969459
1.00378
1.053
1.09029
1.1279
1.13372
1.15322
1.1737
1.30503
1.28415
1.27558
1.28095
1.5033
1.47545
1.45183
1.43644
1.74278
1.71681
1.69448
1.676
2.00774
1.98686
1.96591
1.946
2.14056
2.13441
2.12507
2.11114
2.05799
2.06082
2.06299
2.06445
1.96407
1.94781
1.9339
1.92325
1.91193
1.87425
1.83559
1.80712
1.87678
1.83009
1.78019
1.73427
1.75536
1.69436
1.63348
1.57751
1.53819
1.50936
1.47127
1.43084
1.233
1.23498
1.23124
1.22416
0.950828
0.972239
0.990758
1.00692
0.718927
0.746709
0.774458
0.80201
0.546083
0.571995
0.599611
0.628691
0.424018
0.444957
0.468195
0.493632
0.339545
0.355489
0.37363
0.393991
0.281063
0.293107
0.306977
0.322751
0.24019
0.249529
0.260296
0.272577
0.211304
0.218893
0.227579
0.237436
0.190698
0.197215
0.204584
0.212859
0.175899
0.181801
0.188379
0.195675
0.165211
0.170792
0.176931
0.183654
0.157433
0.162879
0.168799
0.175211
0.151683
0.1571
0.162933
0.169195
0.14729
0.152729
0.158545
0.164744
0.143727
0.149203
0.155026
0.161199
0.140573
0.146071
0.151893
0.15804
0.137485
0.142966
0.148754
0.154848
0.134192
0.139593
0.145289
0.151277
0.130483
0.135718
0.141238
0.147039
0.126224
0.131179
0.136409
0.141913
0.121378
0.125913
0.13071
0.135771
0.116053
0.120006
0.124202
0.128644
0.11055
0.113759
0.117177
0.120812
0.105398
0.10773
0.110223
0.112884
0.10136
0.102744
0.104227
0.105815
0.0993828
0.0998305
0.100311
0.100826
1.30278
1.00841
1.04542
1.14602
1.21598
1.26336
1.33926
1.44901
1.60434
1.86956
2.07915
1.75213
1.44095
1.20205
1.09
1.04136
0.966394
0.904401
1.58412
1.1065
1.00916
1.068
1.18554
1.24412
1.26307
1.32069
1.40568
1.51497
1.7097
1.9119
1.77395
1.49964
1.32929
1.24852
1.22046
1.14045
0.984055
1.4636
1.08507
1.07067
1.15119
1.26743
1.29314
1.29704
1.33996
1.40516
1.47701
1.60487
1.75697
1.76172
1.59998
1.50958
1.49111
1.54156
1.51722
1.13676
1.15547
1.18885
1.21982
1.30444
1.35637
1.34784
1.3552
1.38489
1.43266
1.48435
1.57713
1.72943
1.80548
1.75906
1.75576
1.84212
2.04138
2.26607
1.49451
1.11741
1.30089
1.35268
1.40475
1.4168
1.42087
1.42869
1.44508
1.47579
1.51953
1.59148
1.75315
1.86422
1.91107
2.03592
2.29727
2.72475
3.16799
2.28278
1.87449
1.42678
1.44558
1.48622
1.52394
1.52887
1.51504
1.51456
1.53592
1.56416
1.6247
1.78558
1.90449
2.0484
2.35227
2.8537
3.61334
4.14209
3.10411
3.28856
1.65583
1.65531
1.68934
1.70548
1.6671
1.60689
1.58229
1.60047
1.59587
1.66286
1.8421
1.97825
2.24458
2.75933
3.53963
4.76157
4.86221
4.3962
4.93773
1.92169
1.91574
1.95115
1.91903
1.79244
1.69591
1.64909
1.62192
1.62454
1.70464
1.90324
2.11751
2.5343
3.31662
4.38517
5.48515
5.33551
5.86396
6.74679
2.08777
2.06385
2.0441
1.95225
1.82468
1.73955
1.67836
1.64338
1.66796
1.77097
1.98807
2.33134
2.91142
4.00952
5.1176
5.74186
6.10173
7.50225
8.34782
2.06452
2.03303
1.93736
1.82782
1.7434
1.68526
1.64845
1.65567
1.73815
1.87651
2.10632
2.58135
3.30277
4.41267
5.40888
6.07164
6.98651
8.4727
8.89134
1.91055
1.87487
1.78533
1.69565
1.63259
1.59795
1.59519
1.66214
1.7914
1.95123
2.24551
2.78586
3.56056
4.48675
5.39792
6.24931
7.32118
8.10055
8.30874
1.77801
1.73004
1.64825
1.57093
1.52685
1.52244
1.55446
1.65382
1.78444
2.00072
2.34813
2.88681
3.59761
4.36607
5.19765
6.06255
6.8515
6.8605
7.09499
1.68658
1.62564
1.54116
1.46803
1.4349
1.44594
1.5048
1.60187
1.7641
2.00955
2.36494
2.85629
3.46084
4.12915
4.83793
5.49848
5.85069
5.42739
5.73948
1.50515
1.43283
1.37377
1.3383
1.33765
1.37463
1.44319
1.55185
1.7208
1.96273
2.29119
2.71318
3.21277
3.75549
4.27837
4.64907
4.636
4.15375
4.535
1.37342
1.31958
1.28439
1.27258
1.28851
1.33108
1.40171
1.50883
1.66397
1.87523
2.14843
2.48333
2.86477
3.25332
3.56979
3.69169
3.4928
3.13537
3.5997
1.21088
1.19939
1.19913
1.21467
1.24912
1.30073
1.37039
1.46518
1.5925
1.75623
1.95822
2.19619
2.45393
2.68946
2.83188
2.79917
2.6205
2.40257
2.94049
1.03118
1.06232
1.09742
1.14059
1.19407
1.25526
1.32346
1.40337
1.49931
1.61277
1.74388
1.89017
2.03873
2.15308
2.1863
2.12829
2.00353
1.90979
2.51289
0.847541
0.906296
0.967398
1.03391
1.10494
1.17681
1.24637
1.31464
1.3838
1.45488
1.52827
1.60292
1.67067
1.71101
1.70819
1.65941
1.59033
1.58966
2.25847
0.679321
0.7481
0.821469
0.900284
0.983904
1.06498
1.13817
1.20044
1.25176
1.29353
1.32828
1.3579
1.37981
1.38694
1.37372
1.34368
1.32073
1.3824
2.1211
0.539608
0.605446
0.678938
0.75954
0.845299
0.931055
1.00699
1.06767
1.11041
1.13659
1.15085
1.15769
1.15914
1.15474
1.14447
1.13429
1.14563
1.2456
2.05228
0.431749
0.48823
0.554011
0.628495
0.709385
0.791449
0.866851
0.927357
0.967982
0.989591
0.997166
0.996892
0.99355
0.989887
0.988364
0.995512
1.03073
1.15512
2.02719
0.352434
0.398181
0.453169
0.517284
0.588704
0.662967
0.733165
0.791728
0.833209
0.856791
0.866478
0.868779
0.869471
0.872569
0.881395
0.902303
0.953122
1.09263
2.01558
0.295799
0.332114
0.376549
0.429449
0.48971
0.554013
0.616844
0.6718
0.713841
0.741533
0.757593
0.76734
0.776183
0.788204
0.806739
0.837539
0.896967
1.04409
1.99838
0.256017
0.285085
0.320799
0.363752
0.413451
0.467685
0.522441
0.572785
0.614574
0.646256
0.669386
0.687728
0.705522
0.726177
0.752598
0.789858
0.852876
1.00201
1.97342
0.228326
0.252265
0.281461
0.31657
0.357503
0.402924
0.450124
0.495598
0.536222
0.570777
0.599905
0.625793
0.651357
0.679035
0.711085
0.751847
0.814763
0.96124
1.93525
0.20916
0.229676
0.254313
0.283697
0.317959
0.35637
0.397204
0.438118
0.477224
0.513233
0.546395
0.577737
0.608911
0.641362
0.676655
0.71847
0.778692
0.919554
1.87589
0.195939
0.214279
0.235884
0.261303
0.290777
0.323962
0.359834
0.397138
0.434364
0.470533
0.505556
0.540048
0.574412
0.609264
0.645596
0.686562
0.742804
0.877464
1.80008
0.18681
0.203831
0.223493
0.246265
0.272423
0.301849
0.334104
0.368311
0.403476
0.438871
0.474234
0.509695
0.545029
0.580212
0.615823
0.654719
0.707071
0.835618
1.72002
0.180424
0.196682
0.215135
0.236173
0.260071
0.286857
0.316314
0.34789
0.380934
0.414884
0.449368
0.484163
0.518753
0.552713
0.58637
0.622399
0.671125
0.794354
1.64046
0.175783
0.191615
0.209322
0.22922
0.251552
0.276409
0.303663
0.332969
0.363877
0.395916
0.428633
0.461568
0.494206
0.525866
0.556775
0.589383
0.634321
0.753717
1.55946
0.172132
0.187722
0.204954
0.224077
0.245284
0.268659
0.294116
0.321414
0.350199
0.380033
0.410408
0.440758
0.470549
0.499166
0.526894
0.555958
0.597584
0.713778
1.47355
0.168883
0.184309
0.201209
0.219765
0.240114
0.262298
0.286234
0.311718
0.338425
0.365912
0.393622
0.42094
0.447363
0.472509
0.496926
0.522817
0.562172
0.674122
1.38158
0.165566
0.18083
0.19745
0.215547
0.235198
0.256383
0.279
0.302834
0.327552
0.352681
0.377618
0.401723
0.424558
0.446063
0.467209
0.49054
0.528072
0.633602
1.28588
0.161792
0.176831
0.193155
0.21083
0.22987
0.250198
0.271656
0.294003
0.316871
0.33974
0.361957
0.382869
0.402111
0.419951
0.437834
0.459038
0.494655
0.591718
1.18213
0.157226
0.171912
0.187858
0.205084
0.22355
0.243125
0.263574
0.284613
0.305822
0.326608
0.346249
0.364071
0.379785
0.39393
0.408343
0.427104
0.460334
0.548156
1.07631
0.15159
0.165712
0.181111
0.197786
0.215655
0.234544
0.254132
0.27408
0.293881
0.312819
0.330051
0.34486
0.357032
0.367318
0.377882
0.393238
0.423
0.502758
0.981992
0.144694
0.15793
0.172498
0.188397
0.205542
0.223744
0.242617
0.261748
0.280499
0.297901
0.312888
0.324671
0.333125
0.339249
0.345591
0.356926
0.382742
0.455933
0.892451
0.136507
0.148411
0.161699
0.176415
0.19252
0.209863
0.228146
0.246831
0.265095
0.281433
0.29436
0.302992
0.307359
0.308871
0.310658
0.31789
0.340079
0.407723
0.804857
0.127275
0.137288
0.148669
0.161549
0.176003
0.192052
0.209648
0.228364
0.24717
0.263251
0.274394
0.279631
0.279291
0.275437
0.272234
0.27553
0.294831
0.359069
0.727384
0.117635
0.125166
0.133901
0.144049
0.155847
0.169617
0.185884
0.205137
0.226629
0.243925
0.253779
0.255353
0.249392
0.238827
0.229652
0.229337
0.247424
0.313852
0.66338
0.108658
0.113251
0.118672
0.125138
0.132961
0.142734
0.155813
0.175268
0.204614
0.225602
0.235045
0.233002
0.220579
0.201232
0.183035
0.179794
0.200901
0.276284
0.624914
0.101749
0.103252
0.105041
0.107209
0.109918
0.113572
0.119557
0.133901
0.185686
0.213016
0.223041
0.218415
0.200355
0.171153
0.13255
0.128628
0.164873
0.256741
0.628944
)
;

boundaryField
{
    leftWall
    {
        type            epsilonWallFunction;
        value           nonuniform List<scalar> 
50
(
0.0118225
0.0233197
0.0395488
0.0560172
0.0724556
0.0888268
0.105063
0.121111
0.147925
0.169194
0.180274
0.179746
0.17757
0.187585
0.226916
0.268315
0.304863
0.302682
0.273767
0.23721
0.205188
0.184832
0.173189
0.166359
0.161961
0.158487
0.155036
0.151148
0.146679
0.141682
0.136314
0.130766
0.125229
0.119879
0.114877
0.110366
0.106471
0.103295
0.100919
0.0994077
0.0988225
0.0992322
0.100716
0.103343
0.107124
0.111943
0.117488
0.12321
0.128331
0.131811
)
;
    }
    rightWall
    {
        type            epsilonWallFunction;
        value           nonuniform List<scalar> 
50
(
0.0873339
0.0955531
0.14843
0.24747
0.391035
0.597065
0.96357
1.34227
1.58412
1.4636
1.15547
1.11741
1.87449
3.28856
4.93773
6.74679
8.34782
8.89134
8.30874
7.09499
5.73948
4.535
3.5997
2.94049
2.51289
2.25847
2.1211
2.05228
2.02719
2.01558
1.99838
1.97342
1.93525
1.87589
1.80008
1.72002
1.64046
1.55946
1.47355
1.38158
1.28588
1.18213
1.07631
0.981992
0.892451
0.804857
0.727384
0.66338
0.624914
0.628944
)
;
    }
    lowerWall
    {
        type            epsilonWallFunction;
        value           nonuniform List<scalar> 
62
(
0.0118225
0.0446361
0.0819893
0.117134
0.149645
0.181242
0.214075
0.250184
0.291628
0.340598
0.399868
0.473263
0.553378
0.636334
0.71876
0.796509
0.861769
0.902649
0.897581
0.8153
0.612943
0.301906
0.0662186
0.0662186
0.0926891
0.140826
0.206758
0.308601
0.469101
0.789267
1.45245
1.22947
0.848133
1.19952
1.87263
0.410585
0.622127
1.02486
1.30274
1.50081
1.64223
1.74975
1.86921
0.410585
0.84575
1.62243
2.47956
3.40508
4.36776
4.83168
4.64087
3.81751
2.69267
1.90694
1.53481
1.39494
1.26412
1.08657
0.877216
0.633505
0.341763
0.0873339
)
;
    }
    atmosphere
    {
        type            inletOutlet;
        inletValue      uniform 0.1;
        value           nonuniform List<scalar> 
46
(
0.131811
0.0727746
0.0614006
0.0569819
0.0548794
0.0539184
0.0536881
0.0540503
0.0550246
0.0567886
0.0597466
0.0646745
0.073028
0.1
0.1
0.1
0.1
0.1
0.1
0.1
0.1
0.1
0.1
0.1
0.1
0.1
0.1
0.1
0.1
0.1
0.1
0.1
0.1
0.1
0.1
0.185686
0.213016
0.223041
0.218415
0.200355
0.171153
0.1
0.1
0.164873
0.256741
0.628944
)
;
    }
    defaultFaces
    {
        type            empty;
    }
}


// ************************************************************************* //
