/*--------------------------------*- C++ -*----------------------------------*\
  =========                 |
  \\      /  F ield         | OpenFOAM: The Open Source CFD Toolbox
   \\    /   O peration     | Website:  https://openfoam.org
    \\  /    A nd           | Version:  9
     \\/     M anipulation  |
\*---------------------------------------------------------------------------*/
FoamFile
{
    format      ascii;
    class       volScalarField;
    location    "1";
    object      k;
}
// * * * * * * * * * * * * * * * * * * * * * * * * * * * * * * * * * * * * * //

dimensions      [0 2 -2 0 0 0 0];

internalField   nonuniform List<scalar> 
2268
(
0.00599444
0.0105982
0.0113011
0.0134122
0.0152755
0.0168805
0.0183032
0.0195836
0.0207353
0.0217575
0.022637
0.0233477
0.0238485
0.0240835
0.0239841
0.0234709
0.0224492
0.0209231
0.0189178
0.0163144
0.0131213
0.0107948
0.00911106
0.00761517
0.0165399
0.0226255
0.027266
0.0309861
0.0340912
0.0367511
0.0390521
0.0410293
0.0426851
0.0439956
0.0449121
0.0453621
0.0452532
0.0444859
0.0429727
0.040657
0.0374193
0.0332755
0.0285088
0.0238225
0.0196133
0.0116628
0.0099439
0.0215538
0.0292094
0.0349432
0.0395251
0.0433346
0.0465747
0.0493501
0.0517051
0.0536427
0.0551325
0.0561139
0.0564974
0.0561741
0.0550349
0.0530021
0.050062
0.0462386
0.0415768
0.0361896
0.0305636
0.0254055
0.0148251
0.0120789
0.025782
0.0344069
0.0407886
0.0458716
0.0500865
0.0536551
0.0566896
0.0592363
0.0612954
0.0628295
0.0637674
0.0640077
0.0634311
0.0619271
0.059435
0.055987
0.0517035
0.0467265
0.0411706
0.0352087
0.0293195
0.0171365
0.0140111
0.0295809
0.0389755
0.0458142
0.0512286
0.0557014
0.0594701
0.0626506
0.0652877
0.0673767
0.0688726
0.0696945
0.0697313
0.0688573
0.0669649
0.0640142
0.0600845
0.0553751
0.0501189
0.0444844
0.0384362
0.0320178
0.0188178
0.0157996
0.0330808
0.0431387
0.0503345
0.0559855
0.0606289
0.0645177
0.0677709
0.07043
0.0724846
0.0738819
0.0745323
0.0743165
0.0731051
0.0707964
0.067374
0.0629649
0.05784
0.0523107
0.0466067
0.040587
0.0338644
0.0200677
0.0174929
0.0363557
0.0469935
0.0544827
0.0603113
0.065068
0.069022
0.0722946
0.0749244
0.0768949
0.0781457
0.0785793
0.0780699
0.0764861
0.0737339
0.0698215
0.0649247
0.0593824
0.0535723
0.0477774
0.0418215
0.035023
0.0210102
0.0191287
0.039455
0.0505952
0.0583297
0.0642949
0.0691245
0.0731028
0.0763537
0.0789131
0.0807588
0.0818236
0.0820026
0.0811651
0.0791786
0.0759576
0.0715354
0.0661359
0.0601657
0.0540549
0.0481249
0.0422032
0.0354986
0.0217083
0.0093752
0.0108361
0.0130513
0.0203001
0.0311749
0.0435189
0.0563267
0.0684068
0.07966
0.0893651
0.0974038
0.103359
0.106453
0.105274
0.0969972
0.0840982
0.0665313
0.0437802
0.0264365
0.0113216
0.0210442
0.0340557
0.0495147
0.0701412
0.094636
0.119093
0.14247
0.162433
0.179135
0.192159
0.200858
0.204153
0.200524
0.187248
0.163555
0.137306
0.106521
0.0554659
0.0153887
0.0324593
0.0490938
0.0690689
0.094116
0.122351
0.150898
0.177536
0.200712
0.220154
0.235188
0.245027
0.248806
0.24536
0.233149
0.210212
0.1812
0.146233
0.0794183
0.0205634
0.0427762
0.0622262
0.085492
0.113211
0.14322
0.173393
0.201149
0.225628
0.24632
0.262187
0.272443
0.276642
0.274196
0.264017
0.243598
0.213603
0.176011
0.0969677
0.0258384
0.0526784
0.0746472
0.10042
0.129951
0.160897
0.191372
0.219319
0.244306
0.26548
0.281494
0.291836
0.296691
0.296019
0.288607
0.271044
0.240458
0.199587
0.110421
0.0313914
0.0624059
0.0866307
0.114296
0.144965
0.176362
0.206483
0.234177
0.259204
0.280277
0.295934
0.306252
0.312313
0.314195
0.31013
0.295841
0.264637
0.218967
0.121496
0.0373467
0.072133
0.0982185
0.12728
0.158613
0.190031
0.219497
0.246764
0.271381
0.291786
0.30677
0.317419
0.32537
0.330411
0.330061
0.319312
0.287922
0.236598
0.130902
0.0460105
0.0820338
0.109374
0.139455
0.171098
0.20214
0.230876
0.257549
0.281317
0.300563
0.315012
0.326613
0.337068
0.345733
0.349311
0.342046
0.311233
0.254253
0.139455
0.0208974
0.0433971
0.0554101
0.0635806
0.0697775
0.074713
0.0787021
0.0818797
0.084282
0.0858824
0.0866076
0.086347
0.0849663
0.082336
0.078385
0.0731815
0.0670143
0.0603736
0.0537474
0.047503
0.0414522
0.0347008
0.0225021
0.0234825
0.0485625
0.0614179
0.0699649
0.0763146
0.0812498
0.0851137
0.0880514
0.0901008
0.0912321
0.0913675
0.0903929
0.0881736
0.0845855
0.0795728
0.0732399
0.0659519
0.0583364
0.0510684
0.0445858
0.0386568
0.0324147
0.0243004
0.0259031
0.0534209
0.0669424
0.0757299
0.0821081
0.086919
0.09053
0.0930976
0.0946649
0.0952049
0.0946427
0.0928692
0.0897585
0.0851986
0.0791512
0.0717476
0.0634086
0.0548943
0.0471807
0.0408279
0.0356473
0.031273
0.0303385
0.0281893
0.0579752
0.0720439
0.0809769
0.087284
0.0918628
0.0951071
0.0971894
0.0981644
0.0980161
0.0966827
0.0940726
0.0900828
0.0846278
0.0777087
0.0694948
0.0604691
0.0515524
0.0440273
0.0386023
0.0354722
0.0356299
0.0438727
0.030439
0.0621986
0.0767548
0.0857701
0.0919295
0.0961899
0.0989769
0.100486
0.100791
0.0998986
0.0977742
0.0943629
0.0896109
0.0834983
0.0760984
0.0676743
0.0588207
0.0506202
0.0443069
0.0407766
0.0408495
0.0462861
0.0605012
0.0325706
0.0660711
0.0810906
0.0901502
0.0961118
0.0999985
0.102275
0.103168
0.102783
0.101161
0.0983105
0.0942353
0.088958
0.0825582
0.0752306
0.0673701
0.0596814
0.0531469
0.0487848
0.0476209
0.050804
0.0599049
0.0764349
0.0344737
0.0696295
0.0850797
0.0941574
0.0998934
0.103381
0.105131
0.10541
0.104364
0.102081
0.0986295
0.0940862
0.0885698
0.0822776
0.0755329
0.0688323
0.0628707
0.0583488
0.0561248
0.057172
0.0626
0.0735131
0.0904013
0.0361523
0.0728771
0.0887303
0.0978131
0.103317
0.106407
0.107647
0.107351
0.105714
0.102879
0.0989794
0.0941733
0.0886734
0.08278
0.0769054
0.0715782
0.0673176
0.0647033
0.0643964
0.0671992
0.0740147
0.0855934
0.102094
0.0376159
0.075815
0.0920462
0.101132
0.106414
0.109134
0.109909
0.109105
0.106971
0.103708
0.0995153
0.0946213
0.0893141
0.0839595
0.0790028
0.0749056
0.0721129
0.0710742
0.0722879
0.0763723
0.084024
0.0958003
0.111832
0.0388791
0.078448
0.0950337
0.104128
0.109215
0.111608
0.111983
0.110758
0.108236
0.104672
0.100323
0.0954719
0.090455
0.0856656
0.0815273
0.078454
0.0768304
0.0770091
0.0793732
0.0844022
0.092649
0.104582
0.120395
0.0399637
0.080787
0.0977029
0.106818
0.111747
0.113872
0.113927
0.112379
0.109581
0.105839
0.101451
0.0967391
0.0920615
0.0878062
0.0843733
0.0821429
0.081446
0.0825776
0.085854
0.0916724
0.100503
0.112778
0.128761
0.0409041
0.0828477
0.100068
0.10922
0.114038
0.115966
0.115789
0.114023
0.111064
0.107257
0.102934
0.0984351
0.0941253
0.0903836
0.0875872
0.0860833
0.0861723
0.088124
0.0922271
0.0988395
0.108388
0.121284
0.137833
0.0417518
0.0846484
0.102146
0.111351
0.1161
0.117902
0.117589
0.115716
0.112713
0.108955
0.104795
0.100585
0.0966897
0.0934741
0.0912957
0.0904816
0.0913209
0.0940811
0.0990477
0.106562
0.11702
0.130802
0.148204
0.0425764
0.086199
0.103928
0.113204
0.117949
0.119715
0.119369
0.117501
0.11457
0.110972
0.107075
0.103239
0.0998209
0.0971775
0.0956518
0.0955621
0.0971988
0.100838
0.10677
0.115321
0.126845
0.141667
0.159964
0.0434054
0.0874886
0.105436
0.11482
0.119625
0.12144
0.121163
0.119411
0.116664
0.113337
0.109807
0.106436
0.103579
0.101583
0.100784
0.101498
0.104021
0.108636
0.115629
0.125296
0.137926
0.153618
0.172353
0.0441549
0.0885499
0.106703
0.116226
0.121151
0.123098
0.122989
0.121461
0.119011
0.116066
0.113008
0.110202
0.107997
0.106738
0.106753
0.108357
0.111847
0.117507
0.125592
0.136277
0.149659
0.165808
0.184767
0.0447932
0.0893925
0.10774
0.117433
0.122539
0.1247
0.124855
0.123656
0.121612
0.119155
0.116673
0.114529
0.113068
0.112627
0.113527
0.116076
0.12057
0.12722
0.136164
0.147518
0.161348
0.177698
0.196653
0.0453093
0.090019
0.108555
0.118449
0.123794
0.126248
0.12676
0.12599
0.124455
0.122588
0.120777
0.11938
0.118737
0.119169
0.120984
0.124476
0.129864
0.137281
0.146831
0.158578
0.172577
0.188892
0.207646
0.0456953
0.0904292
0.109149
0.119276
0.124919
0.127741
0.128698
0.128452
0.12752
0.126333
0.125273
0.12469
0.124908
0.12623
0.128935
0.133279
0.139383
0.147352
0.157254
0.169138
0.18308
0.199217
0.217543
0.0459425
0.0906211
0.109524
0.119919
0.125916
0.12918
0.130665
0.131028
0.130781
0.130348
0.130101
0.130372
0.131464
0.133651
0.137183
0.142222
0.148862
0.157169
0.167195
0.179006
0.192734
0.208547
0.226358
0.0460404
0.0905933
0.109684
0.120384
0.126793
0.13057
0.132658
0.133707
0.134214
0.134592
0.135194
0.136331
0.138277
0.14127
0.145515
0.151101
0.158094
0.166544
0.176508
0.188094
0.201514
0.216816
0.234176
0.045978
0.0903465
0.109639
0.120686
0.127567
0.131925
0.134686
0.136485
0.137801
0.139026
0.14049
0.142477
0.145228
0.148939
0.153768
0.159749
0.166931
0.175359
0.18512
0.196392
0.209297
0.224091
0.241122
0.0457428
0.089886
0.109407
0.120854
0.12827
0.133274
0.136773
0.139373
0.141534
0.14362
0.145935
0.148731
0.152213
0.156546
0.161816
0.168047
0.175272
0.18355
0.192998
0.203753
0.216105
0.230457
0.247339
0.0453208
0.0892227
0.109017
0.120927
0.128948
0.134666
0.138957
0.142401
0.145424
0.148364
0.151493
0.155033
0.159154
0.163987
0.169566
0.175916
0.183059
0.191037
0.199995
0.210178
0.221994
0.236011
0.252978
0.0446951
0.0883744
0.108511
0.120966
0.12967
0.136169
0.141303
0.145615
0.149501
0.153265
0.15715
0.161347
0.165997
0.1712
0.17695
0.183259
0.190151
0.197706
0.206112
0.215708
0.227039
0.240872
0.258218
0.043856
0.0873684
0.107949
0.121052
0.130526
0.137873
0.143893
0.149088
0.153818
0.158353
0.162904
0.167637
0.172671
0.17808
0.183842
0.189971
0.196504
0.203556
0.211375
0.220405
0.231346
0.245197
0.263282
0.0430254
0.086186
0.107364
0.121246
0.131595
0.139865
0.146809
0.152888
0.15842
0.163642
0.168741
0.173865
0.179124
0.184564
0.190185
0.196007
0.202092
0.208594
0.215833
0.224366
0.235069
0.249201
0.268467
0.042144
0.0848622
0.106812
0.121635
0.13298
0.142251
0.150153
0.1571
0.163369
0.169166
0.174662
0.179999
0.185296
0.190591
0.195919
0.201322
0.206893
0.212839
0.219557
0.227729
0.238416
0.253171
0.27414
0.0411548
0.0834548
0.106348
0.122288
0.134761
0.145116
0.154006
0.161794
0.168713
0.174942
0.180648
0.18599
0.19111
0.196076
0.200965
0.205856
0.210886
0.21632
0.222645
0.230672
0.241656
0.257453
0.280712
0.040023
0.0820154
0.106007
0.123227
0.136962
0.148487
0.158395
0.166987
0.174444
0.180928
0.186622
0.191729
0.196441
0.200891
0.205214
0.209536
0.214046
0.219078
0.225219
0.233412
0.245089
0.262397
0.288534
0.0387282
0.0805866
0.10578
0.124399
0.139499
0.15227
0.163223
0.172573
0.180438
0.186968
0.192394
0.197008
0.201081
0.204856
0.208533
0.212289
0.216365
0.221175
0.227418
0.236166
0.248983
0.268236
0.297687
0.0372585
0.0791822
0.105581
0.125608
0.142106
0.156162
0.168173
0.178225
0.186343
0.192682
0.197575
0.201453
0.204728
0.207761
0.210812
0.214096
0.217897
0.222711
0.229373
0.239082
0.25343
0.274854
0.307654
0.0356081
0.0777281
0.105171
0.126425
0.144208
0.159511
0.172565
0.183246
0.191437
0.197348
0.201502
0.204538
0.207046
0.209471
0.212091
0.215114
0.218834
0.223831
0.231135
0.242076
0.258103
0.281447
0.316913
0.0339008
0.0758287
0.1039
0.125935
0.144677
0.161054
0.175077
0.186299
0.194395
0.199746
0.203209
0.205685
0.207868
0.210169
0.212785
0.215847
0.219612
0.224721
0.232534
0.244592
0.261941
0.286184
0.322694
0.0321891
0.0728049
0.1007
0.12281
0.142041
0.1593
0.17427
0.185911
0.19368
0.198533
0.201869
0.20473
0.207659
0.210734
0.213925
0.217275
0.22096
0.22556
0.233056
0.245439
0.262988
0.286145
0.321517
0.0306793
0.0681188
0.0945933
0.116138
0.135781
0.154314
0.170697
0.182456
0.189186
0.193715
0.198072
0.202971
0.208128
0.212896
0.216987
0.22056
0.223709
0.226469
0.231845
0.242839
0.258572
0.27844
0.312164
0.031049
0.0627146
0.0862915
0.107159
0.128084
0.149231
0.167708
0.178735
0.183542
0.188663
0.1955
0.20347
0.211367
0.217879
0.222558
0.225871
0.228151
0.227657
0.228111
0.234157
0.246493
0.265654
0.299123
0.0360222
0.0606252
0.0804859
0.100507
0.122919
0.146772
0.166284
0.174706
0.179352
0.188361
0.197755
0.207563
0.217073
0.224162
0.228226
0.230835
0.233343
0.231428
0.227906
0.227195
0.233578
0.253205
0.286119
0.0461642
0.0673257
0.082984
0.0998361
0.120589
0.143944
0.162019
0.167751
0.176921
0.190303
0.201017
0.209838
0.218053
0.223444
0.225009
0.226465
0.230797
0.232968
0.231147
0.225676
0.224504
0.235369
0.26058
0.0590742
0.0807665
0.0906052
0.10136
0.116903
0.137097
0.153854
0.162958
0.172927
0.186388
0.19675
0.203796
0.208688
0.210292
0.209572
0.211443
0.217513
0.227318
0.236212
0.22688
0.219314
0.220144
0.231214
0.0734886
0.0920058
0.0967707
0.101415
0.110359
0.126246
0.147567
0.161548
0.172627
0.183408
0.181504
0.182254
0.183124
0.186229
0.188831
0.196647
0.207188
0.230006
0.252213
0.227969
0.215105
0.210504
0.21617
0.0912941
0.0985456
0.100233
0.100631
0.103171
0.111045
0.132096
0.156408
0.167827
0.16149
0.152731
0.141485
0.146551
0.145367
0.156055
0.162932
0.185775
0.238268
0.276915
0.193741
0.186764
0.168746
0.186172
0.0189224
0.0177824
0.0245944
0.0417961
0.0294354
0.0397702
0.0522363
0.0659044
0.0454593
0.0589173
0.0722802
0.0849273
0.0633578
0.0766431
0.0896404
0.102279
0.0800816
0.0928584
0.105541
0.118017
0.0951049
0.107272
0.119457
0.131507
0.107917
0.119403
0.130986
0.142499
0.118493
0.12934
0.140364
0.151391
0.127367
0.137741
0.148382
0.159116
0.135447
0.145593
0.156093
0.166782
0.143747
0.153923
0.164539
0.175412
0.153107
0.163531
0.174402
0.185435
0.163948
0.174596
0.185598
0.196713
0.175923
0.186668
0.197695
0.208819
0.188397
0.199109
0.21008
0.221135
0.200675
0.211285
0.222139
0.233074
0.21227
0.222725
0.233432
0.244241
0.222896
0.233181
0.243754
0.254475
0.232453
0.242602
0.253101
0.263817
0.240995
0.251084
0.261609
0.272447
0.248663
0.258807
0.269499
0.280627
0.255638
0.265989
0.277036
0.288668
0.262115
0.272872
0.28451
0.296913
0.268307
0.27972
0.29224
0.30574
0.274461
0.286834
0.300594
0.315585
0.280877
0.294581
0.310009
0.326951
0.287934
0.303407
0.321001
0.340412
0.296083
0.313822
0.334136
0.356567
0.305791
0.326323
0.349928
0.375902
0.317397
0.34121
0.368606
0.398517
0.330824
0.358236
0.389706
0.423661
0.345162
0.376134
0.411549
0.44919
0.358231
0.392199
0.430894
0.471369
0.366496
0.402417
0.443366
0.485707
0.366164
0.402923
0.445199
0.489028
0.356303
0.393012
0.436091
0.482217
0.339952
0.374864
0.418486
0.469129
0.319527
0.351253
0.396671
0.454347
0.289784
0.315513
0.353717
0.405742
0.251828
0.272897
0.300693
0.336992
0.231268
0.245427
0.266683
0.300129
0.209647
0.221234
0.239393
0.29933
0.0678116
0.0974603
0.12599
0.15698
0.188295
0.218088
0.245575
0.270889
0.292755
0.310219
0.324517
0.338428
0.353466
0.368454
0.379281
0.377233
0.347402
0.283905
0.15397
0.0868255
0.115905
0.145802
0.176893
0.207116
0.234927
0.260445
0.283073
0.302138
0.318452
0.334551
0.353668
0.376481
0.401282
0.422367
0.423844
0.389524
0.316258
0.168371
0.104676
0.133829
0.163852
0.193645
0.221853
0.247466
0.270515
0.290502
0.308072
0.325077
0.344889
0.370332
0.401833
0.437579
0.470361
0.476396
0.434354
0.347562
0.181591
0.121838
0.1505
0.179403
0.207216
0.232915
0.256099
0.276696
0.295028
0.312631
0.332063
0.356588
0.388523
0.429265
0.477395
0.523559
0.535544
0.483577
0.379174
0.192974
0.137234
0.16482
0.192018
0.217671
0.240905
0.261817
0.280652
0.298434
0.317262
0.340023
0.369376
0.407472
0.457699
0.520154
0.582003
0.59977
0.537672
0.411314
0.202262
0.150126
0.176435
0.201937
0.225557
0.246826
0.266084
0.284028
0.302104
0.322676
0.34873
0.382608
0.426404
0.485825
0.56381
0.642857
0.665738
0.59384
0.44358
0.210064
0.160484
0.185712
0.209864
0.231905
0.251864
0.270228
0.287998
0.306847
0.329163
0.357813
0.395412
0.444681
0.511528
0.600989
0.695952
0.725646
0.645427
0.474753
0.217702
0.168921
0.193516
0.216704
0.237819
0.257094
0.275161
0.293194
0.312968
0.336807
0.367422
0.407699
0.461015
0.532519
0.628541
0.73594
0.770106
0.68115
0.501491
0.227388
0.176593
0.200946
0.223555
0.244245
0.263276
0.281384
0.299853
0.320527
0.345709
0.37807
0.420653
0.47719
0.552641
0.652836
0.766241
0.796488
0.688456
0.516358
0.240097
0.184597
0.20881
0.231237
0.251798
0.270802
0.289071
0.307992
0.329502
0.356
0.390294
0.435713
0.496453
0.57721
0.681596
0.798855
0.81384
0.683222
0.515418
0.250147
0.193589
0.21778
0.240182
0.260708
0.279731
0.298163
0.317501
0.339813
0.367684
0.40421
0.453225
0.519541
0.607571
0.717472
0.834347
0.836431
0.689111
0.513736
0.252283
0.203838
0.228048
0.250404
0.270862
0.28987
0.308438
0.328177
0.351304
0.380618
0.419549
0.472468
0.544812
0.641051
0.758247
0.874048
0.867413
0.708271
0.520262
0.250105
0.215243
0.239377
0.261591
0.281913
0.300879
0.319594
0.339775
0.363774
0.394573
0.435851
0.492277
0.56956
0.672111
0.794984
0.907639
0.902934
0.743838
0.538494
0.249248
0.227337
0.25127
0.273265
0.29343
0.31239
0.331331
0.352058
0.37703
0.409334
0.452703
0.511668
0.591458
0.695807
0.819058
0.927562
0.934675
0.793914
0.570995
0.255642
0.239517
0.263181
0.28496
0.305036
0.324105
0.343416
0.364846
0.390924
0.424758
0.46992
0.530346
0.609992
0.710991
0.827586
0.930743
0.949991
0.842257
0.615304
0.268937
0.251264
0.274688
0.296356
0.316502
0.335863
0.355734
0.378044
0.405371
0.440781
0.487536
0.548696
0.626497
0.720825
0.825382
0.917791
0.94605
0.870239
0.654533
0.285139
0.262266
0.285579
0.307336
0.327781
0.347661
0.368294
0.391653
0.42035
0.45739
0.505674
0.567349
0.642989
0.730402
0.822605
0.902358
0.933671
0.878899
0.672747
0.29763
0.272439
0.295865
0.317984
0.339007
0.35965
0.381234
0.405769
0.435908
0.474594
0.52441
0.586735
0.660871
0.743192
0.826302
0.896227
0.926225
0.878706
0.675771
0.305625
0.281899
0.305737
0.32855
0.350458
0.372107
0.394797
0.420578
0.452149
0.492412
0.5437
0.606853
0.680353
0.759777
0.837585
0.901692
0.930401
0.881815
0.673336
0.309024
0.290892
0.315518
0.339404
0.362521
0.385399
0.409305
0.436334
0.469238
0.510875
0.56339
0.6273
0.700677
0.778709
0.853711
0.914315
0.941602
0.887454
0.668758
0.309146
0.299755
0.325614
0.350996
0.375652
0.399954
0.425133
0.453349
0.487396
0.530043
0.583258
0.647417
0.720555
0.797833
0.871033
0.928991
0.95346
0.890297
0.661527
0.306957
0.308874
0.33649
0.363827
0.39034
0.41621
0.442664
0.471965
0.506904
0.550041
0.603091
0.666433
0.738459
0.814649
0.886399
0.941957
0.962421
0.887349
0.651165
0.302595
0.318678
0.34865
0.378421
0.407066
0.434574
0.462258
0.492544
0.528118
0.571092
0.622761
0.683595
0.752767
0.826674
0.89708
0.951059
0.967219
0.878611
0.638421
0.295536
0.329644
0.362638
0.395304
0.426258
0.455363
0.484202
0.51545
0.551476
0.593562
0.642321
0.698342
0.761969
0.831263
0.899548
0.953215
0.966489
0.86524
0.624101
0.28768
0.342304
0.379024
0.414961
0.44822
0.47873
0.508672
0.541039
0.577486
0.617938
0.662074
0.710589
0.765216
0.826328
0.889813
0.942329
0.95465
0.846803
0.608827
0.280521
0.357249
0.398376
0.437772
0.473049
0.504595
0.53569
0.569613
0.606605
0.644637
0.682441
0.72089
0.763075
0.812093
0.866443
0.913819
0.923916
0.819206
0.592555
0.27323
0.375099
0.421195
0.463908
0.50052
0.532558
0.565058
0.60125
0.638866
0.673436
0.703354
0.729995
0.757405
0.791368
0.832832
0.87048
0.874135
0.777664
0.571265
0.264329
0.396421
0.447778
0.493184
0.529977
0.561856
0.596223
0.635365
0.67307
0.702474
0.723167
0.73765
0.750133
0.768096
0.794693
0.819849
0.813655
0.725506
0.538919
0.253044
0.421535
0.477996
0.524879
0.56032
0.59141
0.628042
0.669853
0.705533
0.727149
0.737566
0.741343
0.741715
0.745061
0.756363
0.769031
0.753986
0.672244
0.502828
0.240012
0.45017
0.510954
0.557607
0.590233
0.620183
0.658507
0.699609
0.728619
0.73968
0.740164
0.737303
0.731222
0.72333
0.720731
0.72345
0.704891
0.626693
0.470109
0.225927
0.480955
0.544614
0.589445
0.619083
0.647944
0.684023
0.713871
0.731078
0.732607
0.727794
0.723986
0.716223
0.702264
0.690242
0.688088
0.673408
0.588018
0.438789
0.210841
0.510934
0.575707
0.618795
0.648397
0.674648
0.697397
0.706956
0.710954
0.70856
0.702538
0.697514
0.687766
0.674015
0.662951
0.666133
0.658264
0.552207
0.401521
0.194452
0.535762
0.600759
0.645767
0.681004
0.696983
0.694531
0.688572
0.682888
0.676
0.664479
0.650311
0.636721
0.626228
0.622003
0.62533
0.600826
0.501314
0.36075
0.176786
0.551409
0.618764
0.671635
0.713177
0.709916
0.686616
0.668997
0.654118
0.638883
0.619162
0.59939
0.583083
0.569353
0.558015
0.547195
0.514543
0.44017
0.321418
0.158139
0.556924
0.633194
0.694752
0.730725
0.712317
0.678454
0.652501
0.629036
0.605323
0.580002
0.555813
0.533864
0.513806
0.494731
0.474469
0.442924
0.384175
0.285917
0.139051
0.555761
0.648723
0.70991
0.726952
0.704002
0.668715
0.638972
0.609738
0.579648
0.549312
0.520463
0.493805
0.469082
0.445424
0.421029
0.389993
0.339587
0.255466
0.120415
0.554786
0.668762
0.717719
0.711055
0.687082
0.657611
0.627755
0.595105
0.560501
0.526091
0.493628
0.463721
0.436126
0.410066
0.383825
0.352653
0.30592
0.230072
0.103507
0.554759
0.689223
0.723479
0.696095
0.671458
0.647267
0.61745
0.582046
0.544369
0.507555
0.473354
0.442122
0.41338
0.386221
0.358723
0.326481
0.280519
0.209118
0.0896394
0.503725
0.633621
0.681499
0.671196
0.656138
0.634386
0.602054
0.563848
0.525263
0.488751
0.455206
0.424821
0.396372
0.36908
0.340493
0.306819
0.26034
0.19152
0.0794109
0.40801
0.501332
0.580328
0.631843
0.648078
0.627344
0.584602
0.541037
0.503223
0.468323
0.435953
0.407835
0.379976
0.353631
0.323979
0.289889
0.242578
0.176041
0.0722164
0.35611
0.404418
0.497001
0.607474
0.664521
0.642343
0.585265
0.535192
0.499726
0.46255
0.421736
0.397014
0.363794
0.341016
0.306502
0.277237
0.227834
0.166331
0.0676079
0.32051
0.286027
0.37463
0.520803
0.627114
0.62293
0.584561
0.556495
0.533092
0.488478
0.41302
0.388465
0.339073
0.309763
0.268676
0.230776
0.19123
0.138535
0.0800035
)
;

boundaryField
{
    leftWall
    {
        type            kqRWallFunction;
        value           nonuniform List<scalar> 
50
(
0.00599444
0.00761517
0.0099439
0.0120789
0.0140111
0.0157996
0.0174929
0.0191287
0.0208974
0.0234825
0.0259031
0.0281893
0.030439
0.0325706
0.0344737
0.0361523
0.0376159
0.0388791
0.0399637
0.0409041
0.0417518
0.0425764
0.0434054
0.0441549
0.0447932
0.0453093
0.0456953
0.0459425
0.0460404
0.045978
0.0457428
0.0453208
0.0446951
0.043856
0.0430254
0.042144
0.0411548
0.040023
0.0387282
0.0372585
0.0356081
0.0339008
0.0321891
0.0306793
0.031049
0.0360222
0.0461642
0.0590742
0.0734886
0.0912941
)
;
    }
    rightWall
    {
        type            kqRWallFunction;
        value           nonuniform List<scalar> 
50
(
0.0264365
0.0554659
0.0794183
0.0969677
0.110421
0.121496
0.130902
0.139455
0.15397
0.168371
0.181591
0.192974
0.202262
0.210064
0.217702
0.227388
0.240097
0.250147
0.252283
0.250105
0.249248
0.255642
0.268937
0.285139
0.29763
0.305625
0.309024
0.309146
0.306957
0.302595
0.295536
0.28768
0.280521
0.27323
0.264329
0.253044
0.240012
0.225927
0.210841
0.194452
0.176786
0.158139
0.139051
0.120415
0.103507
0.0896394
0.0794109
0.0722164
0.0676079
0.0800035
)
;
    }
    lowerWall
    {
        type            kqRWallFunction;
        value           nonuniform List<scalar> 
62
(
0.00599444
0.0105982
0.0113011
0.0134122
0.0152755
0.0168805
0.0183032
0.0195836
0.0207353
0.0217575
0.022637
0.0233477
0.0238485
0.0240835
0.0239841
0.0234709
0.0224492
0.0209231
0.0189178
0.0163144
0.0131213
0.0107948
0.00911106
0.00911106
0.0116628
0.0148251
0.0171365
0.0188178
0.0200677
0.0210102
0.0217083
0.0189224
0.0177824
0.0245944
0.0417961
0.0093752
0.0113216
0.0153887
0.0205634
0.0258384
0.0313914
0.0373467
0.0460105
0.0093752
0.0108361
0.0130513
0.0203001
0.0311749
0.0435189
0.0563267
0.0684068
0.07966
0.0893651
0.0974038
0.103359
0.106453
0.105274
0.0969972
0.0840982
0.0665313
0.0437802
0.0264365
)
;
    }
    atmosphere
    {
        type            inletOutlet;
        inletValue      uniform 0.1;
        value           nonuniform List<scalar> 
46
(
0.1
0.1
0.1
0.1
0.1
0.1
0.1
0.1
0.167827
0.1
0.152731
0.1
0.146551
0.1
0.156055
0.1
0.185775
0.238268
0.276915
0.1
0.186764
0.1
0.186172
0.1
0.1
0.1
0.29933
0.32051
0.1
0.1
0.520803
0.627114
0.1
0.584561
0.556495
0.533092
0.1
0.41302
0.1
0.339073
0.1
0.268676
0.1
0.19123
0.1
0.0800035
)
;
    }
    defaultFaces
    {
        type            empty;
    }
}


// ************************************************************************* //
