/*--------------------------------*- C++ -*----------------------------------*\
  =========                 |
  \\      /  F ield         | OpenFOAM: The Open Source CFD Toolbox
   \\    /   O peration     | Website:  https://openfoam.org
    \\  /    A nd           | Version:  9
     \\/     M anipulation  |
\*---------------------------------------------------------------------------*/
FoamFile
{
    format      ascii;
    class       volScalarField;
    location    "1";
    object      nut;
}
// * * * * * * * * * * * * * * * * * * * * * * * * * * * * * * * * * * * * * //

dimensions      [0 2 -1 0 0 0 0];

internalField   nonuniform List<scalar> 
2268
(
0.000130609
0.000292095
7.12588e-05
7.76124e-05
8.28275e-05
8.70533e-05
9.06209e-05
9.37088e-05
9.63989e-05
9.87215e-05
0.000100671
0.000102209
0.000103266
0.000103736
0.000103483
0.000102334
0.000100048
9.65997e-05
9.18452e-05
8.52796e-05
7.64954e-05
0.000299466
0.000248343
0.000123116
0.000433468
0.000576424
0.000679212
0.000746225
0.000792499
0.000826051
0.000850843
0.000868693
0.000880233
0.000885374
0.000883555
0.000873877
0.000855234
0.000826473
0.000786583
0.000734466
0.000658912
0.000556563
0.000443685
0.000345039
0.000294366
0.00015305
0.000140728
0.000653173
0.0010294
0.00128334
0.00145457
0.00157309
0.00165718
0.00171703
0.00175785
0.00178187
0.00178952
0.0017801
0.00175225
0.00170429
0.00163469
0.00154243
0.00142669
0.00127972
0.0010925
0.00087397
0.000654216
0.000484033
0.000172801
0.000155128
0.000808498
0.00135798
0.00175077
0.00202599
0.00221992
0.0023574
0.00245356
0.00251679
0.00255121
0.00255822
0.00253763
0.00248837
0.00240911
0.0022989
0.00215778
0.00198645
0.00178141
0.00153451
0.00124815
0.00094033
0.000656297
0.000186031
0.000167098
0.000933467
0.00161615
0.00212358
0.00248951
0.0027516
0.00293789
0.00306663
0.00314867
0.00318982
0.00319262
0.00315774
0.00308487
0.00297363
0.00282431
0.00263867
0.00241966
0.00216742
0.00187634
0.00154557
0.00118011
0.000800842
0.000195207
0.000177463
0.00104228
0.00183408
0.00243533
0.00287722
0.00319748
0.00342551
0.00358139
0.00367765
0.00372148
0.00371657
0.00366456
0.0035662
0.00342231
0.00323486
0.00300771
0.00274654
0.00245496
0.00213014
0.00176965
0.0013678
0.000915302
0.000201889
0.000186748
0.00114144
0.00202699
0.00270626
0.00321119
0.00357985
0.00384226
0.00401951
0.00412529
0.00416788
0.00415198
0.00408026
0.0039546
0.00377722
0.0035519
0.0032849
0.00298496
0.0026593
0.00230796
0.00192767
0.00150419
0.000999994
0.000206934
0.000195295
0.00123484
0.00220306
0.00294836
0.00350578
0.0039143
0.00420432
0.00439754
0.00450843
0.00454614
0.0045163
0.00442254
0.00426787
0.00405597
0.00379248
0.00348623
0.00314921
0.00279264
0.00241974
0.00202658
0.00159242
0.00105754
0.00021078
0.000255927
6.93093e-05
7.85712e-05
9.83041e-05
0.00012079
0.000141814
0.000160223
0.000175529
0.000188319
0.000198489
0.000206261
0.000211659
0.000214225
0.000212715
0.000204137
0.000190152
0.000169326
0.000137072
0.000153653
0.000168328
0.000482556
0.000709969
0.00091868
0.00114791
0.00140498
0.00158136
0.00171574
0.00180722
0.00187073
0.00190488
0.00190986
0.00188189
0.00180879
0.00163986
0.00130053
0.000992812
0.000773677
0.000364617
0.000196856
0.000915148
0.00138484
0.0018398
0.0023117
0.00277283
0.00312217
0.00338235
0.00357352
0.0037074
0.00378074
0.00379232
0.00373723
0.00359162
0.00328506
0.00267957
0.00199222
0.0014246
0.000440791
0.000228093
0.00128507
0.00199668
0.00264695
0.00329478
0.00389475
0.00437707
0.00474683
0.00502671
0.00522479
0.00533496
0.00535649
0.00528555
0.00509357
0.00469985
0.00395486
0.0029827
0.00203782
0.000488504
0.000255858
0.00161473
0.00254731
0.00334168
0.00410871
0.00480403
0.0053815
0.00583833
0.00619131
0.00644173
0.00658132
0.00661153
0.00653207
0.00631347
0.00587113
0.00505741
0.00389583
0.00258439
0.000521944
0.000281802
0.00191321
0.00304231
0.00394268
0.00478659
0.00555022
0.00619397
0.00671623
0.0071253
0.0074148
0.00757487
0.00761042
0.00752616
0.00729336
0.0068279
0.00598642
0.00470372
0.00305542
0.000547874
0.000307461
0.00219861
0.00349205
0.00446891
0.00536303
0.00617259
0.00686111
0.00743053
0.00787941
0.00819473
0.00836632
0.00840371
0.00831518
0.00807485
0.00760292
0.00675792
0.00540232
0.0034602
0.000568887
0.000341768
0.0025094
0.00390987
0.0049363
0.00586231
0.0066996
0.00741772
0.00801899
0.00849336
0.00882244
0.00899816
0.00903314
0.00893863
0.00869432
0.00822674
0.00739436
0.00599875
0.00381087
0.000587116
0.000204113
0.00135933
0.00244042
0.00327475
0.00390201
0.00436255
0.00468719
0.0048982
0.00501102
0.00503601
0.00498023
0.00484899
0.00464728
0.0043812
0.00405949
0.00369506
0.00330521
0.00290664
0.00250536
0.00210006
0.00166418
0.00112815
0.000335693
0.000216369
0.00151483
0.00272599
0.00365535
0.00435171
0.0048593
0.00521057
0.00542878
0.00553041
0.00552711
0.00542747
0.00523865
0.0049679
0.00462408
0.0042195
0.00377188
0.00330542
0.00284661
0.00241194
0.00200539
0.00159562
0.00111137
0.000477338
0.00022722
0.00165831
0.00298083
0.00398804
0.00473764
0.00527792
0.00564326
0.00585812
0.00594003
0.00590175
0.00575325
0.00550332
0.00516125
0.00473842
0.00425026
0.00371847
0.0031732
0.00265132
0.00218793
0.00179385
0.00143503
0.00105539
0.000709366
0.000236968
0.00178826
0.00320694
0.00428028
0.00507299
0.00563709
0.00600907
0.00621472
0.00627263
0.00619669
0.0059982
0.0056876
0.00527633
0.00477837
0.0042131
0.00360633
0.00299414
0.00242475
0.00195424
0.0015994
0.00133675
0.00116559
0.00123172
0.000246074
0.00189802
0.00340354
0.00453586
0.00536546
0.00594833
0.00632327
0.00651752
0.00655082
0.0064383
0.00619284
0.00582704
0.00535529
0.00479577
0.00417278
0.00351956
0.00288179
0.00232087
0.00189379
0.00162117
0.00150348
0.00157585
0.00195821
0.000254538
0.00198941
0.0035743
0.00476009
0.00562269
0.00622218
0.00659972
0.00678409
0.00679628
0.00665286
0.00636857
0.00595876
0.00544178
0.00484157
0.00419051
0.00353223
0.0029231
0.0024228
0.00207487
0.00190255
0.00192297
0.00217347
0.0027114
0.00026185
0.00207082
0.00372591
0.00495949
0.00585222
0.00646779
0.00684957
0.00702782
0.00702491
0.00685902
0.00654714
0.0061079
0.00556455
0.00494803
0.00429971
0.00367203
0.00312387
0.00270008
0.00243544
0.00235195
0.00247007
0.00281389
0.00339598
0.000268119
0.00214355
0.00386073
0.00513739
0.00605845
0.00669076
0.00707968
0.00725695
0.00724635
0.00706781
0.00674075
0.00628735
0.0057359
0.0051239
0.00449963
0.00391956
0.00343194
0.00307749
0.00288199
0.00286313
0.00303683
0.00341416
0.00398763
0.000273452
0.00220794
0.00397988
0.00529575
0.00624411
0.00689449
0.00729404
0.00747589
0.00746524
0.00728375
0.00695321
0.00649905
0.00595383
0.00535977
0.00476856
0.00423219
0.00379709
0.00349687
0.00335113
0.00337285
0.00357238
0.00395321
0.00450305
0.000277951
0.00226407
0.00408408
0.00543594
0.00641103
0.00708105
0.00749469
0.00768638
0.00768266
0.00750674
0.00718244
0.00673781
0.00620837
0.00563896
0.00507998
0.00458229
0.0041891
0.00392853
0.00381619
0.00386171
0.00407184
0.00444744
0.00497832
0.000281719
0.00231191
0.00417392
0.0055591
0.0065606
0.00725174
0.00768253
0.00788859
0.00789759
0.00773409
0.00742352
0.00699582
0.00648809
0.00594514
0.00541749
0.00495441
0.00459502
0.00436428
0.00427582
0.00433768
0.00455531
0.00492995
0.00545543
0.000284879
0.00235129
0.00425002
0.00566632
0.00669401
0.00740754
0.00785799
0.00808195
0.00810814
0.00796221
0.00767076
0.00726478
0.00678236
0.00626883
0.00577358
0.00534314
0.00501394
0.00480944
0.0047428
0.00482197
0.0050526
0.00543717
0.00597257
0.000287579
0.00238207
0.00431313
0.00575858
0.0068117
0.007548
0.00801962
0.00826406
0.00831086
0.00818654
0.00791865
0.0075392
0.00708682
0.00660652
0.0061461
0.0057498
0.00545226
0.00527641
0.00523588
0.00533927
0.00559268
0.00599903
0.0065556
0.000290055
0.00240454
0.00436381
0.00583618
0.00691422
0.00767403
0.00816848
0.00843571
0.00850597
0.00840658
0.00816607
0.00781733
0.00739943
0.00695687
0.00653588
0.00617873
0.00591869
0.00577848
0.00577229
0.00590912
0.00619474
0.00663091
0.00720958
0.000292658
0.00241983
0.00440344
0.00590084
0.00700326
0.00778707
0.00830555
0.00859733
0.00869325
0.00862148
0.00841157
0.00809741
0.00771858
0.00731913
0.00694384
0.00663311
0.00641882
0.00632316
0.00636013
0.00653812
0.00686093
0.00732066
0.00790165
0.000295061
0.00242944
0.00443329
0.00595361
0.00707971
0.00788774
0.00843109
0.00874871
0.008872
0.00883002
0.0086535
0.0083775
0.00804222
0.00769133
0.00736817
0.00711116
0.00695044
0.00690703
0.00699319
0.00721193
0.00755918
0.00802759
0.00860328
0.000297088
0.0024339
0.00445389
0.00599494
0.00714384
0.00797607
0.00854483
0.00888921
0.00904113
0.00903065
0.0088898
0.00865493
0.00836687
0.00806885
0.00780254
0.00760406
0.00750143
0.00751091
0.00763922
0.00788743
0.00825084
0.00872032
0.00928175
0.000298689
0.00243339
0.00446534
0.0060248
0.00719548
0.00805165
0.00864604
0.0090177
0.00919909
0.00922128
0.00911769
0.0089259
0.00868722
0.00844404
0.00823593
0.00809623
0.00804744
0.00810191
0.00826454
0.00853418
0.00890517
0.0093677
0.00990665
0.000299842
0.00242791
0.00446748
0.00604285
0.00723405
0.00811365
0.00873354
0.00913263
0.00934383
0.00939925
0.00933361
0.00918549
0.00899623
0.00880684
0.00865413
0.00856736
0.00856418
0.00865478
0.00884213
0.00912404
0.00949455
0.00994363
0.0104527
0.000300518
0.00241736
0.00445999
0.00604853
0.00725871
0.00816088
0.00880579
0.009232
0.00947282
0.00956131
0.00953326
0.00942784
0.00928582
0.00914625
0.00904274
0.00899936
0.00903171
0.00914776
0.0093495
0.0096347
0.00999767
0.0104273
0.0109036
0.000300686
0.00240161
0.00444245
0.00604109
0.0072684
0.00819191
0.0088609
0.00931343
0.00958309
0.00970372
0.00971183
0.00964662
0.0095477
0.00945155
0.00938809
0.00937783
0.00943447
0.00956486
0.00977099
0.0100514
0.0104009
0.0108066
0.0112507
0.000300306
0.00238054
0.00441441
0.00601975
0.0072619
0.00820504
0.00889663
0.00937409
0.00967117
0.00982223
0.00986409
0.00983539
0.00977399
0.00971351
0.00968014
0.00969229
0.00976222
0.00989657
0.0100982
0.010367
0.0106974
0.0110787
0.0114931
0.000299332
0.00235406
0.00437545
0.00598363
0.00723781
0.00819824
0.0089103
0.00941062
0.00973299
0.00991203
0.0099844
0.00998766
0.00995753
0.00992456
0.00991163
0.00993619
0.0100096
0.0101391
0.0103288
0.01058
0.0108895
0.0112477
0.0116364
0.000297706
0.0023221
0.00432517
0.00593178
0.00719445
0.00816901
0.00889852
0.00941879
0.00976355
0.00996744
0.0100665
0.0100968
0.0100915
0.0100781
0.0100774
0.0101059
0.0101751
0.010293
0.0104655
0.0106961
0.0109843
0.0113224
0.0116917
0.000295353
0.00228461
0.00426301
0.00586291
0.00712953
0.00811384
0.0088566
0.00939285
0.00975628
0.00998129
0.0101029
0.0101553
0.0101689
0.0101683
0.0101735
0.0102005
0.0102605
0.0103627
0.010515
0.010724
0.0109926
0.0113152
0.0116729
0.00029226
0.00224093
0.00418778
0.00577477
0.00703921
0.00802718
0.00877739
0.00932444
0.009702
0.00994406
0.0100844
0.010155
0.0101835
0.0101916
0.0101991
0.0102209
0.010269
0.0103537
0.0104854
0.0106741
0.0109268
0.0112405
0.0115963
0.000289477
0.0021791
0.00408949
0.00565813
0.00691409
0.0078994
0.00865128
0.00920424
0.00959201
0.00984794
0.0100041
0.01009
0.0101302
0.0101447
0.0101524
0.010168
0.0102038
0.010272
0.0103853
0.0105577
0.0108004
0.0111138
0.011479
0.000286304
0.00210016
0.00396565
0.00550938
0.00674964
0.00772499
0.008472
0.0090255
0.00941928
0.00968579
0.00985518
0.0099541
0.0100041
0.0100242
0.0100323
0.0100427
0.0100688
0.010124
0.0102241
0.0103866
0.0106273
0.0109508
0.0113383
0.000282623
0.00200835
0.00381577
0.0053248
0.00654035
0.00749748
0.00823257
0.00878096
0.00917643
0.00945034
0.00963063
0.00974111
0.00980027
0.0098271
0.0098378
0.00984677
0.00986792
0.00991653
0.0100109
0.0101724
0.0104216
0.010767
0.0111907
0.000278325
0.00190741
0.00364012
0.00510098
0.00628073
0.00721047
0.00792625
0.00846381
0.00885673
0.00913502
0.0093244
0.00944583
0.00951551
0.00955182
0.00956948
0.00958263
0.00960594
0.00965642
0.00975496
0.00992654
0.0101961
0.0105763
0.0110498
0.000273331
0.00180065
0.00343937
0.00483504
0.00596596
0.00685843
0.00754744
0.00806862
0.00845498
0.00873512
0.00893246
0.00906497
0.00914887
0.00919941
0.00923012
0.00925478
0.00928883
0.0093511
0.00946518
0.0096592
0.00996167
0.0103886
0.0109229
0.000267594
0.00169054
0.00321433
0.00452464
0.00559175
0.00643635
0.00709117
0.00759094
0.00796774
0.00824852
0.00845444
0.00860126
0.00870449
0.0087758
0.00882695
0.00887115
0.00892465
0.00900852
0.00914932
0.00937769
0.00972393
0.0102058
0.0108062
0.000261094
0.0015774
0.00296365
0.00416471
0.00515001
0.0059346
0.00654792
0.00702321
0.00739104
0.00767564
0.00789507
0.00806435
0.00819477
0.00829508
0.00837451
0.00844527
0.00852471
0.00863693
0.00881252
0.00908381
0.00947979
0.010017
0.0106784
0.000254907
0.00145322
0.00267641
0.00374576
0.00463693
0.00535724
0.00592851
0.00637988
0.00674045
0.00703363
0.0072759
0.00747736
0.00764537
0.00778394
0.00789801
0.00799859
0.00810458
0.00824442
0.00845518
0.00877052
0.00921329
0.00979441
0.0104988
0.00024875
0.00132094
0.00237699
0.00331237
0.00411191
0.00477247
0.00530419
0.00572963
0.00607808
0.00637763
0.00664585
0.00688581
0.00710047
0.00728487
0.00743481
0.00756104
0.00768463
0.00783879
0.00807209
0.00842089
0.00889522
0.00949449
0.0102157
0.000244773
0.0011877
0.00209933
0.00292405
0.00365305
0.00427134
0.00477259
0.0051663
0.00548835
0.00578782
0.00608305
0.00637104
0.00663244
0.00685125
0.00702757
0.007166
0.00728875
0.00742933
0.00765543
0.00801209
0.00848987
0.00907553
0.00980167
0.000252681
0.00107773
0.00190728
0.00267674
0.00337538
0.00397858
0.0044605
0.00481117
0.00508579
0.005379
0.0056982
0.00601892
0.00630559
0.00653422
0.00670502
0.00683603
0.0069393
0.00703262
0.00720501
0.00752186
0.0079747
0.00855449
0.00929357
0.000280559
0.00106474
0.00193124
0.0027049
0.00338454
0.00397101
0.00442704
0.00471897
0.00494562
0.00523436
0.00554231
0.00584512
0.00611293
0.00631906
0.00646372
0.00656713
0.006647
0.00669294
0.00679447
0.00702754
0.00741378
0.00799009
0.00873328
0.000318688
0.00128832
0.00235565
0.00312601
0.00370898
0.00421843
0.00462163
0.00484566
0.00502513
0.00527499
0.00552256
0.00575465
0.00596243
0.00612242
0.00622907
0.0063047
0.0063649
0.00639257
0.00645231
0.00661224
0.00690553
0.00737727
0.00803317
0.000355493
0.00187423
0.00330162
0.00400943
0.00437499
0.00470825
0.00500332
0.00514526
0.00521031
0.00535815
0.00550662
0.00565266
0.0057863
0.00589378
0.00596064
0.00600707
0.00603181
0.00605263
0.0061423
0.00627785
0.00649244
0.00680693
0.00721085
0.000390921
0.00263596
0.00476531
0.00548983
0.005566
0.00555111
0.00559421
0.00556198
0.00549405
0.005526
0.00549463
0.00552973
0.00558062
0.00566416
0.00570057
0.00572209
0.00568429
0.0057241
0.00595496
0.00601744
0.00619755
0.00637699
0.00654097
0.000431207
0.00405802
0.00696091
0.00763772
0.00756807
0.00715831
0.00657836
0.00610653
0.0058985
0.00590254
0.00584155
0.00583331
0.00583829
0.00585342
0.00577286
0.00561159
0.00541471
0.00544787
0.00595712
0.00568788
0.00613229
0.00603815
0.00597712
0.000198351
0.00019039
0.000222079
0.000291636
0.000503005
0.000726906
0.00101435
0.00135858
0.00104292
0.00143816
0.00190849
0.00243349
0.00180902
0.00227864
0.00279806
0.00334399
0.00262376
0.00309994
0.00360055
0.00410645
0.00337241
0.00382078
0.00427958
0.00473728
0.00401303
0.00442448
0.00484278
0.0052611
0.00455449
0.00493321
0.00532061
0.005712
0.0050299
0.00538576
0.00575438
0.0061321
0.00548151
0.00582585
0.00618727
0.0065623
0.00595171
0.00629495
0.00665877
0.00703839
0.0064749
0.00682412
0.00719298
0.00757327
0.00706871
0.00742017
0.00778732
0.00816441
0.0077197
0.00806721
0.00842789
0.00879704
0.00840266
0.00874093
0.00909022
0.00944594
0.00908654
0.00941115
0.00974425
0.0100815
0.00974052
0.0100473
0.0103601
0.0106747
0.0103363
0.0106222
0.0109118
0.011201
0.0108512
0.0111147
0.0113795
0.0116417
0.0112703
0.0115112
0.0117509
0.0119859
0.011587
0.011806
0.0120217
0.0122305
0.011802
0.0120013
0.0121952
0.0123803
0.0119228
0.0121056
0.0122812
0.0124464
0.0119617
0.0121325
0.0122947
0.0124452
0.0119344
0.0120987
0.0122536
0.0123962
0.0118584
0.0120228
0.0121778
0.0123204
0.0117519
0.0119242
0.0120876
0.0122392
0.0116331
0.0118215
0.0120024
0.0121723
0.0115187
0.0117316
0.0119388
0.0121355
0.0114214
0.0116664
0.011907
0.0121366
0.0113458
0.0116275
0.0119055
0.0121697
0.0112823
0.0116008
0.0119142
0.0122085
0.0112019
0.0115511
0.0118918
0.012206
0.0110567
0.0114261
0.011783
0.0121056
0.0107954
0.0111759
0.0115397
0.011864
0.0104
0.010786
0.0111514
0.0114797
0.00990324
0.0102904
0.0106613
0.0110118
0.00932327
0.0097104
0.0101064
0.0105112
0.00858421
0.00893891
0.00931334
0.00971615
0.00760047
0.00789327
0.00821347
0.00856789
0.00666601
0.00677285
0.00696733
0.00729336
0.00567804
0.00557007
0.00560177
0.00610076
0.00134295
0.00321782
0.00453282
0.0055856
0.00652961
0.00737831
0.00811631
0.00873989
0.00922855
0.00956145
0.00973467
0.00976433
0.0096667
0.00943377
0.0090079
0.00821556
0.0067882
0.00429213
0.000616099
0.00248013
0.00404456
0.00525962
0.00629839
0.0072398
0.00808021
0.00881805
0.00943806
0.00991627
0.0102337
0.0103867
0.0103968
0.0102862
0.0100668
0.0096934
0.00894603
0.00747581
0.00470922
0.000645093
0.00343687
0.0047724
0.00589923
0.00689942
0.00781592
0.0086379
0.00936047
0.00996339
0.0104235
0.0107185
0.0108464
0.0108316
0.0107084
0.0105074
0.0101883
0.00949662
0.00800336
0.00503699
0.000672258
0.00423431
0.00540718
0.00645488
0.00741418
0.00829705
0.00909567
0.00979842
0.0103839
0.0108265
0.0111019
0.0112079
0.0111717
0.0110442
0.010872
0.0106116
0.00997147
0.00845098
0.00532114
0.000696431
0.00489982
0.0059561
0.00693969
0.0078608
0.00871156
0.00948767
0.0101735
0.0107453
0.0111744
0.0114362
0.0115271
0.0114764
0.0113533
0.0112225
0.0110285
0.0104281
0.00887075
0.00558269
0.00071691
0.00545615
0.00643401
0.00737161
0.00825863
0.00908505
0.00984378
0.0105171
0.0110788
0.0114977
0.01175
0.0118318
0.0117729
0.0116608
0.0115809
0.0114544
0.0108812
0.00927826
0.00582897
0.000733048
0.00592928
0.00686234
0.00777025
0.00863191
0.00944173
0.0101881
0.0108518
0.0114048
0.0118149
0.0120573
0.0121299
0.0120683
0.0119662
0.0119212
0.0118482
0.0112971
0.0096463
0.00605226
0.000744634
0.00635162
0.00726596
0.00815572
0.00900364
0.00980234
0.0105383
0.0111917
0.011735
0.0121354
0.0123661
0.0124246
0.0123518
0.0122419
0.0122005
0.0121599
0.0116145
0.00991419
0.00622894
0.000754969
0.00676574
0.00767442
0.00855391
0.0093936
0.0101819
0.0109051
0.0115445
0.0120746
0.0124634
0.0126824
0.0127254
0.0126319
0.0124969
0.0124306
0.0123802
0.0118002
0.00999589
0.00632582
0.000776952
0.00720407
0.00810878
0.00898376
0.00981458
0.0105883
0.0112924
0.0119116
0.012424
0.0128004
0.0130121
0.0130485
0.0129441
0.0127884
0.0126824
0.0125866
0.0118953
0.00996047
0.00629632
0.00080656
0.00768607
0.00858713
0.00945465
0.0102701
0.011021
0.0116976
0.0122892
0.0127793
0.0131441
0.0133567
0.0134046
0.0133145
0.0131605
0.0130164
0.0128316
0.0120061
0.00996859
0.00623901
0.000821698
0.00822105
0.00911344
0.00996447
0.0107542
0.0114717
0.0121115
0.0126684
0.0131328
0.0134875
0.0137109
0.0137899
0.0137412
0.0136165
0.0134508
0.0131604
0.0121876
0.0100464
0.00622888
0.000818611
0.00880564
0.00967838
0.0105004
0.0112522
0.0119257
0.0125203
0.013037
0.0134736
0.0138204
0.0140623
0.0141867
0.0141982
0.0141198
0.0139461
0.0135436
0.0124512
0.0102164
0.00629905
0.000810765
0.00942247
0.0102622
0.0110421
0.0117442
0.0123644
0.0129075
0.0133812
0.0137901
0.0141314
0.0143955
0.0145701
0.0146461
0.0146157
0.014437
0.0139424
0.0127638
0.0104786
0.0064738
0.000810759
0.0100459
0.0108396
0.0115652
0.0122077
0.0127678
0.0132562
0.0136873
0.0140714
0.0144104
0.0146974
0.0149179
0.0150493
0.0150555
0.0148677
0.0143102
0.0130601
0.0107849
0.00673034
0.000814712
0.0106473
0.0113839
0.0120454
0.0126211
0.0131172
0.0135513
0.0139435
0.0143087
0.0146505
0.0149604
0.0152183
0.0153888
0.0154125
0.0151963
0.0145733
0.0132899
0.0110442
0.00698267
0.000840146
0.0111998
0.0118707
0.0124613
0.012966
0.0133978
0.013781
0.0141413
0.0144963
0.0148484
0.0151835
0.0154726
0.015668
0.0156949
0.015445
0.0147647
0.0134511
0.0112051
0.00708811
0.000864154
0.0116808
0.0122805
0.0127966
0.0132297
0.0136001
0.0139391
0.014277
0.0146323
0.0150037
0.0153694
0.0156888
0.0159033
0.0159296
0.0156546
0.014935
0.0135854
0.0112921
0.00708727
0.000883947
0.012074
0.0126005
0.0130419
0.0134062
0.0137215
0.0140254
0.0143516
0.0147181
0.0151186
0.0155216
0.0158748
0.0161097
0.0161394
0.0158519
0.0151115
0.0137349
0.0113756
0.00705866
0.000894841
0.0123707
0.0128254
0.0131957
0.0134976
0.013767
0.0140466
0.0143719
0.0147593
0.0151967
0.0156428
0.0160338
0.0162927
0.0163309
0.0160407
0.0152897
0.0138937
0.0114673
0.00703169
0.00089879
0.0125702
0.0129582
0.0132648
0.0135143
0.0137492
0.0140157
0.0143497
0.0147647
0.015243
0.0157344
0.0161644
0.0164482
0.016497
0.0162079
0.0154507
0.014036
0.0115426
0.00700256
0.000899097
0.0126797
0.0130098
0.0132637
0.0134734
0.0136865
0.0139507
0.0143006
0.0147464
0.0152647
0.0157975
0.0162621
0.0165673
0.016624
0.0163355
0.0155724
0.014139
0.0115767
0.0069596
0.000898619
0.012713
0.0129976
0.0132128
0.0133971
0.013601
0.0138721
0.0142428
0.0147189
0.0152707
0.0158341
0.0163214
0.0166383
0.0166968
0.016407
0.0156404
0.0141903
0.0115573
0.00688849
0.000892157
0.012689
0.0129436
0.0131359
0.0133089
0.0135146
0.0137999
0.0141944
0.0146975
0.0152718
0.0158478
0.0163371
0.0166476
0.0166953
0.0164005
0.0156388
0.0141849
0.0114908
0.00678067
0.000876686
0.0126297
0.0128716
0.0130565
0.0132302
0.0134456
0.0137503
0.0141709
0.0146972
0.0152802
0.0158451
0.0163073
0.0165832
0.0165977
0.0162849
0.0155303
0.0140957
0.0113875
0.0066911
0.000864043
0.0125583
0.0128047
0.012995
0.0131763
0.0134054
0.0137337
0.0141835
0.0147295
0.0153065
0.0158344
0.0162363
0.0164419
0.0163921
0.0160348
0.015271
0.0138627
0.0112161
0.00662992
0.000854079
0.0124969
0.0127626
0.0129648
0.0131541
0.0133965
0.0137523
0.0142358
0.0147976
0.0153532
0.0158206
0.0161323
0.0162334
0.0160865
0.0156522
0.0148499
0.0134496
0.0109007
0.00650298
0.000844671
0.0124646
0.0127584
0.0129707
0.0131601
0.0134118
0.013799
0.01432
0.0148895
0.0154061
0.0157948
0.0159972
0.0159713
0.0157008
0.015162
0.0142931
0.0128741
0.0104175
0.00619512
0.000830223
0.0124737
0.0127958
0.0130065
0.0131813
0.0134359
0.013857
0.0144112
0.0149692
0.0154262
0.0157255
0.0158129
0.0156516
0.0152416
0.0145854
0.0136429
0.0121955
0.00981848
0.00578642
0.000810561
0.0125258
0.0128658
0.0130554
0.0131985
0.0134502
0.0138993
0.0144607
0.0149726
0.0153533
0.0155662
0.0155493
0.0152706
0.0147299
0.0139582
0.0129566
0.0115101
0.00918739
0.00537175
0.000788093
0.0126057
0.0129437
0.0130929
0.0131966
0.0134426
0.0138891
0.0143876
0.0148243
0.015138
0.0152822
0.0151924
0.0148234
0.0141754
0.013308
0.0122884
0.0109249
0.00860062
0.00496116
0.00076354
0.0126773
0.0129903
0.0130966
0.0131803
0.0134092
0.0137774
0.0141588
0.0145198
0.0147803
0.0148703
0.01472
0.0142801
0.0135674
0.012653
0.0116737
0.0104382
0.00806528
0.00452423
0.000734958
0.012687
0.0129622
0.0130602
0.0131734
0.0133374
0.013557
0.0138343
0.0141133
0.0143081
0.0143284
0.0141007
0.0136141
0.0129007
0.0120163
0.0110257
0.00967992
0.00738573
0.00405965
0.000701914
0.0125828
0.0128368
0.0129898
0.0131641
0.0132181
0.013283
0.0134472
0.0136344
0.0137466
0.0136878
0.0134119
0.0129056
0.012172
0.0112327
0.0101112
0.00865605
0.00656419
0.00360282
0.000664844
0.0123401
0.0126323
0.0128779
0.0130667
0.0130161
0.0129624
0.0130172
0.0131066
0.013137
0.0130218
0.0127084
0.0121612
0.0113769
0.0103723
0.00916699
0.00770242
0.00577238
0.00319745
0.000623975
0.0119887
0.0124054
0.0127039
0.0128125
0.0127073
0.0125822
0.0125462
0.0125446
0.0125025
0.0123415
0.0119982
0.0114275
0.0106183
0.00958695
0.00835823
0.00691348
0.00512614
0.00287993
0.000579883
0.0116086
0.0122041
0.0124617
0.0124372
0.0122993
0.0121488
0.0120434
0.0119598
0.0118528
0.0116547
0.011298
0.0107314
0.0099355
0.00892273
0.00771907
0.00632377
0.00466214
0.0026587
0.000534476
0.0112371
0.0120051
0.0121639
0.0120005
0.0118366
0.0116808
0.0115257
0.0113686
0.0112041
0.0109787
0.010626
0.0100916
0.00934702
0.00839475
0.00725217
0.00592315
0.00436327
0.00251958
0.000491604
0.0104849
0.0112781
0.0115244
0.0114284
0.0112899
0.0111351
0.0109586
0.0107582
0.0105567
0.0103195
0.0099838
0.00950181
0.00883312
0.00797151
0.00691368
0.00566227
0.00418283
0.002434
0.000455591
0.00922549
0.00990661
0.0103801
0.010609
0.0105959
0.0104185
0.0102199
0.0100146
0.00982941
0.00961729
0.00931537
0.00890658
0.00832551
0.00757995
0.00662021
0.00546757
0.00405682
0.00236376
0.000428246
0.00791268
0.00834446
0.00891771
0.00953644
0.00972473
0.0094226
0.00914796
0.00891323
0.00880602
0.00868732
0.00845357
0.00817891
0.00769157
0.00712024
0.00625119
0.00526284
0.00390808
0.0022761
0.000410516
0.00647865
0.00600811
0.00649588
0.00761259
0.00820387
0.00746537
0.00756701
0.00740646
0.00734816
0.00711133
0.00711695
0.0068354
0.00667911
0.00616622
0.00561928
0.00474686
0.00356931
0.00202001
0.000451077
)
;

boundaryField
{
    leftWall
    {
        type            nutkWallFunction;
        Cmu             0.09;
        kappa           0.41;
        E               9.8;
        value           nonuniform List<scalar> 
50
(
6.51109e-06
8.66173e-06
1.13487e-05
1.35128e-05
1.529e-05
1.68142e-05
1.8169e-05
1.94087e-05
2.06831e-05
2.24399e-05
2.39878e-05
2.5376e-05
2.66811e-05
2.78681e-05
2.88912e-05
2.97674e-05
3.05128e-05
3.1143e-05
3.16749e-05
3.21295e-05
3.25343e-05
3.29236e-05
3.33107e-05
3.36571e-05
3.39495e-05
3.41842e-05
3.43588e-05
3.44701e-05
3.45141e-05
3.4486e-05
3.43801e-05
3.41894e-05
3.39047e-05
3.35193e-05
3.31337e-05
3.272e-05
3.22497e-05
3.17037e-05
3.10683e-05
3.03323e-05
2.94859e-05
2.85867e-05
2.7659e-05
2.68181e-05
2.70568e-05
3.11031e-05
3.62602e-05
3.99596e-05
4.52401e-05
5.10104e-05
)
;
    }
    rightWall
    {
        type            nutkWallFunction;
        Cmu             0.09;
        kappa           0.41;
        E               9.8;
        value           nonuniform List<scalar> 
50
(
2.79029e-05
4.34733e-05
5.30276e-05
5.90284e-05
6.32339e-05
6.65449e-05
6.92214e-05
7.15733e-05
7.52509e-05
7.87131e-05
8.17359e-05
8.41401e-05
8.60866e-05
8.78296e-05
8.94978e-05
9.1471e-05
9.39536e-05
9.57776e-05
9.53554e-05
9.38766e-05
9.18028e-05
9.07629e-05
9.12145e-05
8.65467e-05
8.62108e-05
8.71354e-05
8.7572e-05
8.75851e-05
8.73014e-05
8.67353e-05
8.58351e-05
8.51773e-05
8.39852e-05
8.2746e-05
8.14753e-05
7.98711e-05
7.79678e-05
7.5845e-05
7.34926e-05
7.08335e-05
6.78284e-05
6.44741e-05
6.08089e-05
5.69545e-05
5.31638e-05
4.97934e-05
4.71199e-05
4.51245e-05
4.37885e-05
4.73332e-05
)
;
    }
    lowerWall
    {
        type            nutkWallFunction;
        Cmu             0.09;
        kappa           0.41;
        E               9.8;
        value           nonuniform List<scalar> 
62
(
0
0
2.94122e-07
1.35081e-06
2.19536e-06
2.87782e-06
3.4585e-06
3.95926e-06
4.39387e-06
4.76813e-06
5.08216e-06
5.33081e-06
5.50343e-06
5.58373e-06
5.54982e-06
5.37349e-06
5.01571e-06
4.46343e-06
3.70128e-06
2.63894e-06
1.19247e-06
4.95034e-09
0
0
1.31093e-05
1.59966e-05
1.78903e-05
1.91779e-05
2.00932e-05
2.07622e-05
2.12468e-05
1.94027e-05
1.85361e-05
2.33261e-05
3.27623e-05
0
1.52584e-05
1.93103e-05
2.36626e-05
2.74967e-05
3.10788e-05
3.45411e-05
3.90603e-05
0
2.72557e-08
1.15857e-06
4.23132e-06
7.82219e-06
1.11065e-05
1.39887e-05
1.63805e-05
1.84002e-05
2.00151e-05
2.12794e-05
2.21798e-05
2.26373e-05
2.24672e-05
2.12285e-05
1.91667e-05
1.60324e-05
1.11707e-05
6.36487e-06
)
;
    }
    atmosphere
    {
        type            calculated;
        value           nonuniform List<scalar> 
46
(
0.009
0.009
0.009
0.009
0.009
0.009
0.009
0.009
0.0058985
0.009
0.00584155
0.009
0.00583829
0.009
0.00577286
0.009
0.00541471
0.00544787
0.00595712
0.009
0.00613229
0.009
0.00597712
0.009
0.009
0.009
0.00610076
0.00647865
0.009
0.009
0.00761259
0.00820387
0.009
0.00756701
0.00740646
0.00734816
0.009
0.00711695
0.009
0.00667911
0.009
0.00561928
0.009
0.00356931
0.009
0.000451077
)
;
    }
    defaultFaces
    {
        type            empty;
    }
}


// ************************************************************************* //
