/*--------------------------------*- C++ -*----------------------------------*\
  =========                 |
  \\      /  F ield         | OpenFOAM: The Open Source CFD Toolbox
   \\    /   O peration     | Website:  https://openfoam.org
    \\  /    A nd           | Version:  9
     \\/     M anipulation  |
\*---------------------------------------------------------------------------*/
FoamFile
{
    format      ascii;
    class       volScalarField;
    location    "1";
    object      p;
}
// * * * * * * * * * * * * * * * * * * * * * * * * * * * * * * * * * * * * * //

dimensions      [1 -1 -2 0 0 0 0];

internalField   nonuniform List<scalar> 
2268
(
-1.42812
-1.42541
-1.42675
-1.43116
-1.438
-1.44692
-1.4577
-1.47012
-1.48401
-1.49929
-1.51586
-1.53359
-1.55223
-1.57138
-1.59034
-1.60797
-1.62249
-1.63161
-1.63287
-1.62503
-1.61042
-1.59719
-1.58662
-1.36984
-1.36834
-1.37017
-1.37452
-1.38117
-1.39001
-1.40078
-1.41327
-1.42731
-1.44278
-1.45955
-1.47747
-1.49626
-1.51546
-1.53434
-1.55179
-1.56625
-1.57543
-1.57667
-1.56822
-1.55135
-1.53481
-1.52415
-1.31149
-1.31052
-1.31287
-1.31756
-1.32432
-1.33319
-1.34403
-1.35662
-1.37083
-1.3865
-1.4035
-1.42161
-1.44053
-1.45977
-1.47856
-1.49578
-1.50991
-1.51893
-1.5206
-1.51317
-1.49678
-1.47865
-1.46555
-1.2532
-1.25237
-1.25486
-1.2598
-1.26676
-1.27577
-1.2867
-1.29942
-1.31379
-1.32964
-1.34683
-1.36513
-1.3842
-1.40353
-1.42236
-1.4396
-1.45375
-1.46303
-1.46551
-1.45973
-1.44551
-1.4273
-1.41062
-1.19483
-1.19408
-1.19644
-1.20146
-1.20856
-1.21768
-1.22872
-1.24155
-1.25605
-1.27206
-1.28942
-1.30788
-1.32713
-1.34664
-1.36566
-1.38315
-1.3977
-1.40766
-1.41135
-1.4075
-1.39591
-1.37875
-1.36027
-1.13627
-1.13562
-1.13777
-1.14276
-1.14992
-1.1591
-1.17022
-1.18314
-1.19775
-1.21389
-1.2314
-1.25004
-1.26948
-1.28922
-1.30856
-1.32649
-1.34168
-1.35262
-1.3578
-1.35611
-1.3474
-1.33249
-1.31509
-1.07746
-1.07693
-1.07887
-1.08377
-1.09093
-1.10014
-1.11131
-1.1243
-1.13899
-1.15524
-1.17289
-1.1917
-1.21135
-1.23137
-1.25109
-1.26958
-1.2856
-1.29772
-1.30459
-1.30522
-1.29968
-1.28816
-1.27534
-1.01837
-1.018
-1.01978
-1.02457
-1.0317
-1.04091
-1.05209
-1.06512
-1.07987
-1.09621
-1.11397
-1.13293
-1.15279
-1.17311
-1.19328
-1.21241
-1.22937
-1.2428
-1.25149
-1.25455
-1.25229
-1.24531
-1.24099
-1.81537
-1.82538
-1.83059
-1.83879
-1.84835
-1.85453
-1.85574
-1.85439
-1.85485
-1.85958
-1.86976
-1.88429
-1.90022
-1.91011
-1.8964
-1.8335
-1.72527
-1.63757
-1.58484
-1.75777
-1.76795
-1.76895
-1.77678
-1.78878
-1.79965
-1.80606
-1.80971
-1.81418
-1.82254
-1.83566
-1.85095
-1.86522
-1.8726
-1.8562
-1.78108
-1.65695
-1.5651
-1.51613
-1.69825
-1.7089
-1.70833
-1.71709
-1.73122
-1.74606
-1.75772
-1.76692
-1.77754
-1.79028
-1.8052
-1.82116
-1.83269
-1.83435
-1.80803
-1.72613
-1.59902
-1.49567
-1.43414
-1.63676
-1.64835
-1.64935
-1.65981
-1.67529
-1.69226
-1.70738
-1.72096
-1.73673
-1.75086
-1.76577
-1.78001
-1.79174
-1.78698
-1.74709
-1.6726
-1.54682
-1.4341
-1.35093
-1.57316
-1.5869
-1.59087
-1.60287
-1.61905
-1.63699
-1.65411
-1.67245
-1.68708
-1.70063
-1.7157
-1.73319
-1.74584
-1.73621
-1.69157
-1.6231
-1.50284
-1.38089
-1.27225
-1.50826
-1.52473
-1.53191
-1.54501
-1.56157
-1.58
-1.59888
-1.618
-1.63003
-1.64297
-1.66227
-1.68649
-1.70065
-1.68791
-1.64132
-1.57392
-1.46254
-1.32574
-1.19937
-1.44287
-1.46199
-1.472
-1.4859
-1.50266
-1.52126
-1.54213
-1.55602
-1.56721
-1.58514
-1.61339
-1.64241
-1.65707
-1.64098
-1.59295
-1.52924
-1.41907
-1.2728
-1.13378
-1.37695
-1.39889
-1.4113
-1.4259
-1.44268
-1.46141
-1.4804
-1.49073
-1.50471
-1.53284
-1.56614
-1.60169
-1.61706
-1.59421
-1.54564
-1.48657
-1.38351
-1.22764
-1.07894
-0.925407
-0.925446
-0.927207
-0.931862
-0.938951
-0.948149
-0.959322
-0.97236
-0.987144
-1.00354
-1.02141
-1.04054
-1.06067
-1.08144
-1.10232
-1.12253
-1.14105
-1.15663
-1.16814
-1.17489
-1.17754
-1.1797
-1.19671
-0.797006
-0.79777
-0.79988
-0.804663
-0.811802
-0.821007
-0.832153
-0.845142
-0.859873
-0.876234
-0.894097
-0.913312
-0.93368
-0.954933
-0.97667
-0.998278
-1.01883
-1.03705
-1.05163
-1.06141
-1.06613
-1.06661
-1.05701
-0.666397
-0.667979
-0.670643
-0.675717
-0.682982
-0.692225
-0.703348
-0.716269
-0.730901
-0.747151
-0.764915
-0.784074
-0.804491
-0.825982
-0.848271
-0.870892
-0.893005
-0.913255
-0.929851
-0.940696
-0.944183
-0.940756
-0.922445
-0.533414
-0.53592
-0.539298
-0.544795
-0.552274
-0.561609
-0.572733
-0.585585
-0.600092
-0.61617
-0.633728
-0.652666
-0.672874
-0.694228
-0.716542
-0.739474
-0.762292
-0.783599
-0.801243
-0.812638
-0.816183
-0.813092
-0.804463
-0.397993
-0.40154
-0.405783
-0.411805
-0.419577
-0.429058
-0.440219
-0.453016
-0.467386
-0.483251
-0.500521
-0.519093
-0.538861
-0.559706
-0.581479
-0.603921
-0.62642
-0.647646
-0.665485
-0.677592
-0.683142
-0.684177
-0.685808
-0.260313
-0.264829
-0.270102
-0.276742
-0.28487
-0.294549
-0.305788
-0.318559
-0.332809
-0.34846
-0.365413
-0.383552
-0.402748
-0.422861
-0.443733
-0.46512
-0.486485
-0.506759
-0.524152
-0.537084
-0.545562
-0.551898
-0.560454
-0.120528
-0.126088
-0.132389
-0.139689
-0.148219
-0.158144
-0.169508
-0.1823
-0.196476
-0.211956
-0.228633
-0.246372
-0.26502
-0.28441
-0.304358
-0.324602
-0.34466
-0.363691
-0.380539
-0.394488
-0.406099
-0.417352
-0.431023
0.0210587
0.0144766
0.00717687
-0.000793914
-0.00975745
-0.0199687
-0.0315065
-0.0443774
-0.0585449
-0.0739318
-0.0904241
-0.107876
-0.126117
-0.144959
-0.164187
-0.183519
-0.202558
-0.220726
-0.237444
-0.25263
-0.26704
-0.282073
-0.299259
0.164148
0.156623
0.148383
0.139756
0.130346
0.119819
0.108063
0.0950549
0.0808216
0.0654355
0.0490107
0.031697
0.0136728
-0.00485907
-0.0236649
-0.0424784
-0.0609836
-0.0788389
-0.0958599
-0.112287
-0.128839
-0.146402
-0.165782
0.308451
0.300098
0.291003
0.281757
0.271908
0.261049
0.249041
0.235845
0.221476
0.206001
0.189529
0.172206
0.154213
0.135758
0.117069
0.0983923
0.0799732
0.0619906
0.0444168
0.0268966
0.00882512
-0.010338
-0.031046
0.453707
0.44466
0.434818
0.425011
0.414744
0.403555
0.391276
0.377856
0.3633
0.347663
0.331047
0.313592
0.295473
0.276891
0.258066
0.239224
0.220561
0.202161
0.183909
0.16544
0.146263
0.126053
0.104523
0.59969
0.590099
0.57963
0.569338
0.558701
0.547203
0.534656
0.520996
0.506218
0.490368
0.473537
0.455856
0.437486
0.418621
0.39947
0.380245
0.361105
0.342095
0.323079
0.303724
0.283636
0.262634
0.240523
0.746223
0.736244
0.725291
0.714612
0.703673
0.69191
0.679116
0.665218
0.650203
0.634106
0.617011
0.599034
0.580324
0.561063
0.541449
0.521679
0.501894
0.482127
0.462251
0.441982
0.421002
0.399253
0.376616
0.893204
0.882991
0.871719
0.86077
0.849602
0.837624
0.824615
0.810495
0.795242
0.778886
0.761496
0.743178
0.724068
0.704332
0.684156
0.663723
0.643163
0.622509
0.601658
0.580377
0.558417
0.535858
0.512692
1.04063
1.03032
1.01888
1.00777
0.996448
0.984307
0.971122
0.956806
0.94133
0.924715
0.907022
0.888341
0.868795
0.848535
0.827732
0.806551
0.785116
0.763465
0.74152
0.719117
0.696072
0.672635
0.648956
1.18853
1.17822
1.16676
1.15559
1.14419
1.13194
1.11863
1.10415
1.08848
1.07162
1.05363
1.03458
1.01458
0.993778
0.972314
0.950341
0.927971
0.905254
0.882142
0.858524
0.834362
0.81004
0.785863
1.33689
1.3267
1.31535
1.30424
1.29283
1.28055
1.26715
1.25255
1.23671
1.21963
1.20136
1.18195
1.16152
1.14018
1.11806
1.0953
1.07199
1.04821
1.02394
0.999142
0.973862
0.948675
0.924001
1.48574
1.4758
1.4647
1.45375
1.44242
1.43016
1.41673
1.40205
1.38607
1.3688
1.35027
1.33054
1.30971
1.28786
1.26514
1.24166
1.2175
1.19273
1.16739
1.14151
1.11519
1.08918
1.06402
1.63514
1.62558
1.61487
1.60419
1.59302
1.58084
1.56744
1.55271
1.53662
1.51919
1.50044
1.48043
1.45924
1.43698
1.41377
1.38968
1.3648
1.33921
1.31299
1.28618
1.25898
1.23223
1.20661
1.78519
1.77613
1.76597
1.75566
1.74473
1.73269
1.71934
1.70459
1.68843
1.67087
1.65194
1.6317
1.61025
1.58769
1.56413
1.53962
1.51424
1.48808
1.46122
1.43375
1.40588
1.37855
1.35251
1.93602
1.92761
1.91813
1.9083
1.89767
1.8858
1.87253
1.85779
1.84156
1.82389
1.80483
1.78444
1.76285
1.74014
1.71642
1.69174
1.66615
1.63974
1.6126
1.58482
1.55659
1.52891
1.50252
2.0878
2.08018
2.07153
2.06226
2.05198
2.04031
2.02711
2.01236
1.99608
1.97832
1.95917
1.93873
1.91712
1.89448
1.87086
1.84631
1.82089
1.79466
1.7677
1.74006
1.7119
1.68416
1.65753
2.24076
2.23405
2.22634
2.21771
2.2078
2.19631
2.18317
2.16838
2.15202
2.13418
2.11499
2.0946
2.07315
2.05081
2.02761
2.0036
1.97881
1.95331
1.92712
1.90023
1.87267
1.84526
1.81853
2.39516
2.38944
2.38279
2.37483
2.36528
2.35393
2.34077
2.32587
2.30938
2.29145
2.27228
2.25206
2.23099
2.20923
2.18686
2.16389
2.14036
2.11627
2.09158
2.06618
2.03988
2.01328
1.98663
2.55132
2.54656
2.54109
2.53382
2.52455
2.51323
2.49994
2.48483
2.46813
2.45009
2.43099
2.41111
2.39069
2.36991
2.34886
2.32755
2.30601
2.28419
2.26192
2.2389
2.21467
2.18945
2.16309
2.70966
2.70557
2.70147
2.69484
2.68575
2.67432
2.66074
2.64529
2.62829
2.61012
2.59117
2.5718
2.55234
2.53299
2.51386
2.49497
2.47632
2.45776
2.43898
2.41942
2.39823
2.37512
2.34934
2.87
2.86752
2.86425
2.85811
2.84904
2.83731
2.82323
2.80725
2.78983
2.7715
2.75277
2.73413
2.71599
2.69859
2.68206
2.66647
2.65174
2.63762
2.62359
2.60876
2.5918
2.57173
2.547
3.03311
3.03198
3.02961
3.02377
3.01447
3.00215
2.98731
2.97055
2.95253
2.93397
2.91555
2.89787
2.88146
2.86661
2.85349
2.84217
2.83253
2.82419
2.81636
2.80776
2.79648
2.78071
2.75792
3.19898
3.19923
3.19762
3.19178
3.1819
3.16864
3.15268
3.13482
3.11597
3.09708
3.07904
3.06261
3.04839
3.03677
3.02793
3.02196
3.01867
3.01754
3.01752
3.0169
3.01313
3.00342
2.98411
3.36748
3.36928
3.36817
3.36193
3.35103
3.33637
3.31885
3.29949
3.27949
3.26012
3.24253
3.22765
3.21617
3.2085
3.20487
3.20532
3.20964
3.21718
3.22669
3.23604
3.24207
3.24094
3.22768
3.53819
3.54183
3.5409
3.53373
3.52127
3.50468
3.48502
3.46362
3.44204
3.42199
3.40493
3.39194
3.38379
3.38085
3.38333
3.39122
3.40429
3.42188
3.44261
3.46415
3.48282
3.49377
3.49059
3.71032
3.7161
3.71508
3.70635
3.69173
3.67257
3.65007
3.62586
3.60206
3.58101
3.5646
3.554
3.54983
3.55245
3.56188
3.57802
3.60069
3.62939
3.66284
3.69886
3.73364
3.76136
3.77413
3.88259
3.89074
3.88943
3.87853
3.86114
3.8387
3.81241
3.78426
3.75722
3.73472
3.71918
3.7116
3.71235
3.72146
3.73857
3.76341
3.79597
3.8362
3.88321
3.93576
3.99059
4.04106
4.07764
4.0534
4.0646
4.06228
4.04857
4.02784
4.0013
3.96987
3.936
3.90403
3.87957
3.86542
3.86196
3.86896
3.88572
3.91109
3.94445
3.98622
4.03715
4.09698
4.16688
4.24546
4.32573
4.3963
4.2207
4.23363
4.23023
4.21378
4.18953
4.15816
4.11996
4.07737
4.03725
4.01028
3.99892
4.00171
4.01682
4.0429
4.07714
4.11807
4.16711
4.22638
4.2956
4.38014
4.48449
4.60497
4.72674
4.38258
4.39536
4.39008
4.37114
4.3436
4.30662
4.25841
4.2015
4.14802
4.11989
4.11537
4.12633
4.15189
4.19007
4.23457
4.28193
4.33586
4.40102
4.47412
4.56701
4.70248
4.89038
5.10454
4.5351
4.54339
4.53751
4.51718
4.48568
4.43678
4.3662
4.28566
4.21841
4.19947
4.20999
4.2334
4.27182
4.32531
4.38183
4.43598
4.49293
4.5636
4.62849
4.73331
4.95789
5.2832
5.58012
4.70597
4.69127
4.67689
4.65482
4.61802
4.56565
4.48731
4.36623
4.26104
4.26044
4.29782
4.34315
4.40809
4.47222
4.53694
4.58669
4.63698
4.71271
4.77317
5.09941
5.54513
5.83982
6.06567
4.93016
4.88326
4.86503
4.84589
4.81588
4.779
4.72005
4.54086
4.34314
4.40047
4.47949
4.58115
4.66439
4.69711
4.72215
4.75957
4.76391
4.85348
5.48151
6.25437
6.47026
6.41022
6.42729
5.14106
5.09723
5.11823
5.1165
5.10587
5.09613
5.04187
4.88593
5.10964
5.10501
4.52059
4.51147
4.43773
4.60515
4.63418
5.14936
5.40626
5.92861
9.32274
10.8073
9.19363
7.43447
6.26779
5.32059
5.28006
5.33955
5.3647
5.37544
5.38318
5.34186
5.28123
5.48451
8.75033
7.57905
8.19991
7.93805
9.78783
8.74847
11.5426
9.53791
10.9396
13.5393
14.479
15.4001
27.5349
24.9187
5.51958
5.43326
5.52295
5.5633
5.58678
5.61374
5.68838
5.95182
7.32548
15.1642
10.0611
15.4643
11.4376
19.6406
12.5924
21.2411
11.6918
15.1267
15.3144
17.1863
17.0358
58.2905
35.5946
-1.25172
-1.24628
-1.24895
-1.25967
-1.06214
-1.07228
-1.08846
-1.10464
-0.925847
-0.939344
-0.956848
-0.973885
-0.814565
-0.826477
-0.840375
-0.854882
-0.69775
-0.708392
-0.720741
-0.73385
-0.573922
-0.584879
-0.597167
-0.609743
-0.446408
-0.458079
-0.470594
-0.482924
-0.316064
-0.328293
-0.341036
-0.353274
-0.183493
-0.196066
-0.208935
-0.221102
-0.0492857
-0.062005
-0.0748648
-0.0869231
0.0860197
0.0732997
0.0605533
0.0486654
0.221908
0.209272
0.196696
0.185055
0.357978
0.345467
0.333104
0.321796
0.49408
0.481716
0.469593
0.458677
0.630404
0.618184
0.606281
0.595777
0.767377
0.755273
0.743536
0.733426
0.905562
0.893527
0.881886
0.872124
1.0456
1.03359
1.02196
1.01247
1.18817
1.17613
1.16445
1.15512
1.334
1.3219
1.31007
1.30072
1.4839
1.47167
1.45955
1.44995
1.63872
1.62626
1.61364
1.60341
1.79942
1.78655
1.77309
1.76173
1.96703
1.95348
1.93873
1.92559
2.14275
2.12815
2.11154
2.09586
2.328
2.31192
2.29285
2.27388
2.52451
2.50664
2.48464
2.4618
2.7345
2.71482
2.68983
2.66292
2.96069
2.93983
2.91248
2.88197
3.20632
3.18581
3.15778
3.12512
3.47483
3.45748
3.43177
3.39973
3.76934
3.7593
3.74029
3.71313
4.09101
4.09345
4.08643
4.06915
4.43694
4.45845
4.46926
4.46682
4.81004
4.85914
4.89372
4.91345
5.24318
5.32117
5.38335
5.43667
5.74463
5.83569
5.9146
5.97993
6.20511
6.27867
6.32324
6.37784
6.62345
6.80283
7.07273
7.51574
7.4798
9.01339
11.0787
14.9099
37.6935
50.7085
61.6309
72.0961
71.4585
85.5033
84.3909
66.6824
-1.27528
-1.29983
-1.31664
-1.33283
-1.34947
-1.36669
-1.37993
-1.39408
-1.41834
-1.45368
-1.49187
-1.52866
-1.53913
-1.51698
-1.47374
-1.42871
-1.33428
-1.17267
-1.01452
-1.13225
-1.16504
-1.18773
-1.2068
-1.22386
-1.23802
-1.25003
-1.27073
-1.30373
-1.3426
-1.38723
-1.4076
-1.42864
-1.41941
-1.37425
-1.34429
-1.27076
-1.11701
-0.955561
-1.00149
-1.03446
-1.0595
-1.08019
-1.09778
-1.11056
-1.12593
-1.15145
-1.18623
-1.22182
-1.25599
-1.27338
-1.30844
-1.31319
-1.27333
-1.24618
-1.21065
-1.07868
-0.921393
-0.878356
-0.907682
-0.932537
-0.953809
-0.971962
-0.9868
-1.0056
-1.03136
-1.06278
-1.08869
-1.10687
-1.14264
-1.18011
-1.20303
-1.19105
-1.1689
-1.14831
-1.05602
-0.904082
-0.755069
-0.78167
-0.805913
-0.827464
-0.846239
-0.864288
-0.884711
-0.909151
-0.935814
-0.952421
-0.960459
-1.00676
-1.05285
-1.10733
-1.15009
-1.12738
-1.08783
-1.02295
-0.886224
-0.629721
-0.654866
-0.678708
-0.700571
-0.720494
-0.740726
-0.762593
-0.786758
-0.811501
-0.828708
-0.830925
-0.863091
-0.940407
-1.04959
-1.12408
-1.10105
-1.04228
-0.966469
-0.859034
-0.502119
-0.526587
-0.550282
-0.572644
-0.594016
-0.615952
-0.639542
-0.665422
-0.692797
-0.717808
-0.732921
-0.767415
-0.866559
-1.00018
-1.08521
-1.0962
-1.03143
-0.91742
-0.81891
-0.372107
-0.396402
-0.420182
-0.443189
-0.465812
-0.489281
-0.514767
-0.543301
-0.575147
-0.611081
-0.650131
-0.710101
-0.816492
-0.951467
-1.0752
-1.1791
-1.09911
-0.888227
-0.768918
-0.2398
-0.264186
-0.288198
-0.311807
-0.335397
-0.360054
-0.386978
-0.417391
-0.452021
-0.494229
-0.550886
-0.631954
-0.7492
-0.905339
-1.10503
-1.40243
-1.22522
-0.804601
-0.687307
-0.105555
-0.130085
-0.154384
-0.178462
-0.202668
-0.227936
-0.255305
-0.285825
-0.32021
-0.361816
-0.422658
-0.50957
-0.630685
-0.791007
-1.00615
-1.42321
-1.24634
-0.716751
-0.55522
0.0301827
0.00551348
-0.0190127
-0.0433618
-0.067772
-0.092946
-0.11957
-0.148261
-0.179485
-0.215185
-0.265668
-0.339588
-0.44277
-0.574641
-0.732097
-1.02848
-1.13887
-0.702629
-0.455692
0.16686
0.142166
0.117556
0.0931797
0.0689887
0.044597
0.0198112
-0.0053925
-0.0310029
-0.0578944
-0.0906168
-0.136925
-0.199692
-0.27294
-0.328205
-0.307672
-0.740396
-0.891042
-0.585116
0.304046
0.279511
0.254997
0.230824
0.207205
0.184123
0.161945
0.141329
0.122919
0.106873
0.0919802
0.0769043
0.0633144
0.0627078
0.122215
0.435417
-0.205813
-0.926966
-0.863175
0.441532
0.417354
0.393088
0.369258
0.346384
0.324829
0.305489
0.289635
0.278451
0.272859
0.273614
0.283003
0.307378
0.360141
0.48725
0.829375
0.526163
-0.26609
-1.29854
0.57936
0.555684
0.531722
0.508214
0.485991
0.465764
0.448842
0.436885
0.431329
0.433263
0.44397
0.466495
0.50758
0.577579
0.702316
0.943938
1.05731
0.913569
-2.27472
0.717789
0.694648
0.670897
0.647471
0.625491
0.605943
0.590402
0.580646
0.578006
0.583211
0.597021
0.62134
0.660292
0.719197
0.805967
0.945956
1.11902
0.811787
-2.0154
0.857229
0.83451
0.810679
0.786834
0.764359
0.744431
0.728742
0.718968
0.716069
0.720186
0.731277
0.749784
0.776313
0.812519
0.861547
0.933816
1.06461
0.399213
-3.32285
0.998181
0.975587
0.951164
0.926124
0.902093
0.880379
0.862683
0.850442
0.844139
0.843358
0.847512
0.856108
0.867536
0.882791
0.909555
0.966288
1.1187
0.531231
-2.85036
1.14118
1.11821
1.09243
1.06513
1.03818
1.01301
0.991287
0.974186
0.961729
0.953102
0.947561
0.944372
0.941145
0.938311
0.951434
1.00476
1.14714
0.821086
-0.902695
1.28675
1.26267
1.23449
1.20357
1.17205
1.14155
1.11377
1.08971
1.06902
1.05063
1.03393
1.01852
1.00215
0.983214
0.977717
1.01931
1.11788
0.97733
0.671725
1.43536
1.40918
1.37725
1.34101
1.303
1.26515
1.22939
1.19669
1.16651
1.1376
1.10948
1.08231
1.05466
1.02401
0.99952
1.00804
1.04358
1.07036
2.09457
1.58744
1.55783
1.52044
1.47684
1.43015
1.38284
1.33732
1.29476
1.25463
1.21558
1.17702
1.13939
1.10232
1.06429
1.02961
1.00671
0.952353
1.0678
4.08612
1.74339
1.70868
1.66366
1.61025
1.55236
1.4934
1.43654
1.3834
1.33353
1.28546
1.23831
1.19251
1.14873
1.10729
1.07164
1.0438
0.915363
0.84409
6.17753
1.90365
1.86179
1.80651
1.74026
1.66824
1.59525
1.52572
1.46189
1.40323
1.34781
1.29407
1.24252
1.19509
1.15401
1.12845
1.11962
1.0168
0.907468
4.98955
2.06897
2.01753
1.94876
1.86598
1.77619
1.68642
1.60306
1.5292
1.46388
1.4038
1.34569
1.29023
1.24043
1.19861
1.1815
1.19722
1.17974
1.30236
1.38803
2.24066
2.17691
2.09077
1.98681
1.87459
1.76459
1.6663
1.58407
1.51604
1.45603
1.39752
1.34076
1.28971
1.24326
1.21514
1.20673
1.15565
1.0448
-0.557388
2.42107
2.34203
2.23387
2.10276
1.96182
1.82691
1.71245
1.62476
1.56076
1.50865
1.45794
1.40709
1.35938
1.30942
1.25238
1.17334
0.973694
0.250177
-1.0553
2.61395
2.51656
2.38082
2.21467
2.03585
1.86879
1.7358
1.64805
1.59956
1.56747
1.53887
1.50995
1.47581
1.43273
1.35834
1.23162
1.04846
0.236875
1.10629
2.82479
2.70606
2.53605
2.3238
2.09227
1.88082
1.72604
1.65103
1.63787
1.64396
1.65394
1.66529
1.66501
1.65254
1.59468
1.49919
1.76765
2.09393
9.38819
3.06096
2.91844
2.70586
2.43087
2.12217
1.84992
1.68064
1.64285
1.6936
1.76127
1.82192
1.8789
1.93451
1.98714
1.98924
2.04367
3.39077
8.64779
26.2436
3.33193
3.16548
2.9023
2.54417
2.12701
1.78124
1.63104
1.65235
1.79023
1.93332
2.03406
2.13432
2.26385
2.41192
2.53978
2.96518
5.88596
25.6186
60.3759
3.64804
3.46402
3.15267
2.70533
2.15717
1.71279
1.59221
1.6826
1.92462
2.11648
2.23195
2.38785
2.61303
2.83846
3.2307
4.82351
11.6721
64.1713
129.401
4.01478
3.8262
3.48834
2.98297
2.30274
1.63345
1.51705
1.75773
2.0726
2.25518
2.3486
2.55296
2.82366
3.10383
4.10963
10.4305
43.0614
154.379
224.219
4.43257
4.24795
3.88657
3.34795
2.61956
1.70486
1.45568
2.01435
2.33921
2.34376
2.09414
2.26199
2.54118
3.22193
7.08571
40.8919
153.734
295.8
341.088
4.9187
4.74023
4.30186
3.64837
2.76712
1.24799
0.988885
3.20376
2.71815
4.35962
9.29394
14.518
21.8708
36.0058
68.2045
163.81
325.187
454.56
471.626
5.48927
5.30907
4.73928
3.84558
2.84
1.77208
2.89059
22.3045
36.7975
45.7007
66.3011
98.5701
142.827
201.832
280.285
394.736
529.461
620.843
609.227
6.02924
5.85937
5.25385
4.25147
4.1064
10.1714
23.6944
45.3137
92.704
147.036
210.157
281.021
356.678
439.861
530.241
632.977
732.562
784.207
747.067
6.53118
6.80162
7.16389
8.03371
16.2204
45.7216
90.2215
125.765
187.05
278.105
376.839
476.387
570.495
666.796
757.102
848.419
915.96
933.083
876.944
8.55731
11.4973
20.7302
42.669
83.749
130.585
164.445
206.065
286.431
419.065
540.48
671.59
769.314
883.827
960.41
1048.22
1076.55
1069.54
988.096
22.4261
48.0478
94.7416
152.152
233.655
257.782
194.851
219.513
365.006
571.898
700.737
878.3
951.028
1106.96
1136.43
1253.81
1213.04
1212.73
1055.86
81.3853
176.745
234.427
245.372
323.56
307.754
151.744
161.942
415.056
798.753
846.519
1170.78
1083.72
1409.99
1252.39
1535.77
1304.45
1428.74
1008.39
67.3176
192.586
263.434
167.507
335.161
382.788
139.605
97.415
277.308
1285.7
619.675
1739.51
808.302
2051.52
956.006
2173.72
1000.03
2035.1
622.452
)
;

boundaryField
{
    leftWall
    {
        type            calculated;
        value           nonuniform List<scalar> 
50
(
-1.42812
-1.36984
-1.31149
-1.2532
-1.19483
-1.13627
-1.07746
-1.01837
-0.925407
-0.797006
-0.666397
-0.533414
-0.397993
-0.260313
-0.120528
0.0210587
0.164148
0.308451
0.453707
0.59969
0.746223
0.893204
1.04063
1.18853
1.33689
1.48574
1.63514
1.78519
1.93602
2.0878
2.24076
2.39516
2.55132
2.70966
2.87
3.03311
3.19898
3.36748
3.53819
3.71032
3.88259
4.0534
4.2207
4.38258
4.5351
4.70597
4.93016
5.14106
5.32059
5.51958
)
;
    }
    rightWall
    {
        type            calculated;
        value           nonuniform List<scalar> 
50
(
-1.58484
-1.51613
-1.43414
-1.35093
-1.27225
-1.19937
-1.13378
-1.07894
-1.01452
-0.955561
-0.921393
-0.904082
-0.886224
-0.859034
-0.81891
-0.768918
-0.687307
-0.55522
-0.455692
-0.585116
-0.863175
-1.29854
-2.27472
-2.0154
-3.32285
-2.85036
-0.902695
0.671725
2.09457
4.08612
6.17753
4.98955
1.38803
-0.557388
-1.0553
1.10629
9.38819
26.2436
60.3759
129.401
224.219
341.088
471.626
609.227
747.067
876.944
988.096
1055.86
1008.39
622.452
)
;
    }
    lowerWall
    {
        type            calculated;
        value           nonuniform List<scalar> 
62
(
-1.4576
-1.45489
-1.45623
-1.46064
-1.46745
-1.47635
-1.48713
-1.49954
-1.51344
-1.52872
-1.54529
-1.56302
-1.58166
-1.60081
-1.61976
-1.6374
-1.65192
-1.66104
-1.6623
-1.65446
-1.63985
-1.62661
-1.61605
-1.58662
-1.52415
-1.46555
-1.41062
-1.36027
-1.31509
-1.27534
-1.24099
-1.31432
-1.30888
-1.31155
-1.32226
-1.81537
-1.75777
-1.69825
-1.63676
-1.57316
-1.50826
-1.44287
-1.37695
-1.8448
-1.8548
-1.86001
-1.86822
-1.87778
-1.88396
-1.88517
-1.88382
-1.88428
-1.88901
-1.89919
-1.91373
-1.92967
-1.93957
-1.92588
-1.86298
-1.75472
-1.66701
-1.61427
)
;
    }
    atmosphere
    {
        type            calculated;
        value           nonuniform List<scalar> 
46
(
5.59254
5.57386
5.62335
5.64958
5.66226
5.66935
5.68777
5.71691
5.72904
25.0671
5.72904
22.3406
5.72904
29.9885
5.72904
32.9306
5.72904
14.3519
14.3519
20.4358
5.72904
104.295
5.72904
98.7632
122.438
117.532
5.72904
5.72904
215.25
297.763
5.72904
323.17
504.129
5.72904
5.72904
5.72904
2140.61
5.72904
2806.77
5.72904
3318.61
5.72904
3599.83
5.72904
3549.68
5.72904
)
;
    }
    defaultFaces
    {
        type            empty;
    }
}


// ************************************************************************* //
