/*--------------------------------*- C++ -*----------------------------------*\
  =========                 |
  \\      /  F ield         | OpenFOAM: The Open Source CFD Toolbox
   \\    /   O peration     | Website:  https://openfoam.org
    \\  /    A nd           | Version:  9
     \\/     M anipulation  |
\*---------------------------------------------------------------------------*/
FoamFile
{
    format      ascii;
    class       volScalarField;
    location    "1";
    object      p_rgh;
}
// * * * * * * * * * * * * * * * * * * * * * * * * * * * * * * * * * * * * * //

dimensions      [1 -1 -2 0 0 0 0];

internalField   nonuniform List<scalar> 
2268
(
1076.05
1070
1061.6
1050.33
1036.7
1020.91
1003.19
983.769
962.849
940.592
917.199
893.124
868.891
844.937
823.403
805.708
793.263
786.346
783.413
781.316
776.443
770.848
770.015
1077.34
1071.69
1063.8
1052.76
1039.21
1023.32
1005.34
985.467
963.904
940.851
916.565
891.555
866.519
842.603
820.533
801.871
788.524
780.769
777.466
775.759
772.579
768.838
769.842
1079.38
1073.57
1066.05
1055.36
1042.01
1026.15
1008.01
987.754
965.539
941.567
916.167
889.908
863.625
838.437
815.428
796.227
782.316
773.983
770.349
769.923
769.654
768.454
769.611
1082.05
1075.59
1068.06
1057.65
1044.51
1028.75
1010.56
990.036
967.286
942.512
916.095
888.623
860.996
834.318
809.743
789.27
774.849
766.875
764.519
766.725
769.818
769.883
769.475
1085.06
1077.78
1069.91
1059.68
1046.73
1031.12
1012.98
992.334
969.227
943.818
916.471
887.763
858.661
830.24
803.647
781.523
766.668
759.579
759.174
764.825
771.886
772.799
769.604
1088.16
1080.08
1071.73
1061.59
1048.82
1033.42
1015.44
994.841
971.548
945.62
917.34
887.256
856.439
825.857
796.549
772.181
756.869
751.057
752.957
762.949
775.207
776.825
769.999
1091.2
1082.43
1073.57
1063.47
1050.88
1035.76
1018.08
997.694
974.37
947.995
918.721
887.023
854.064
820.646
787.63
760.152
744.19
739.9
744.487
760.861
779.92
780.489
771.966
1094.07
1084.78
1075.42
1065.28
1052.89
1038.09
1020.82
1000.8
977.596
950.844
920.426
886.657
850.925
813.839
775.498
743.411
725.836
720.743
725.363
745.575
758.617
775.386
767.756
836.837
806.8
749.348
657.429
607.194
601.89
608.931
602.612
587.228
565.134
539.536
514.114
487.234
459.008
432.856
414.4
401.884
392.004
391.753
841.585
814.87
755.13
645.574
579.802
573.124
578.904
577.442
571.635
560.012
541.539
514.58
483.575
453.857
427.302
408.391
396.866
387.585
392.375
856.691
818.929
745.834
616.797
533.495
520.144
521.339
519.051
543.666
551.162
537.582
514.846
484.278
451.897
423.013
406.454
397.177
391.067
391.621
870.038
815.033
720.824
545.411
468.644
465.424
472.152
478.702
465.261
524.993
523.602
512.786
483.143
448.88
419.171
400.203
393.506
391.374
389.995
876.514
807.376
699.787
499.171
453.833
458.422
477.586
474.472
463.75
419.664
516.958
510.62
484.098
444.145
383.064
338.795
330.145
341.447
350.689
873.604
799.332
680.699
493.194
458.095
517.26
534.063
544.421
451.161
398.91
467.906
507.863
459.494
312.731
193.847
161.012
156.185
162.244
162.315
860.96
792.134
628.928
376.341
426.644
484.622
531.071
531.46
535.705
387.587
304.602
369.396
245.464
142.866
141.331
141.168
138.399
132.556
131.482
839.707
786.969
570.788
300.258
313.827
339.996
522.793
536.003
522.733
378.248
250.869
185.98
145.644
140.483
140.174
139.726
137.303
131.796
131.15
1098.26
1088.43
1078.27
1067.89
1055.75
1041.5
1025.02
1005.87
983.187
955.941
923.199
885.078
844.888
802.341
725.087
613.08
530.03
496.307
490.274
518.66
667.347
783.556
755.034
1103.5
1093.17
1082.53
1071.94
1060.24
1047.19
1032.82
1016.28
995.227
967.189
930.044
882.858
789.132
585.817
374.561
257.058
203.204
187.689
202.964
268.637
718.474
838.96
813.319
1109.19
1099.13
1088.51
1077.51
1065.8
1053.33
1040.59
1026.05
1004.96
976.196
879.685
590.577
290.432
245.322
232.38
185.224
165.229
164.993
173.767
364.445
880.831
920.905
924.98
1117
1107.82
1096.64
1082.48
1066.2
1010.6
932.484
833.564
675.126
425.413
257.673
237.983
244.528
265.458
250.189
166.24
155.651
150.9
148.225
354.579
941.168
1012.68
1033.53
1106.24
1067.51
965.482
800.788
579.116
383.336
239.284
139.31
99.4455
143.303
287.478
301.561
309.594
314.453
316.758
275.611
145.069
136.417
127.161
132.527
633.887
1102.05
1116.75
422.069
358.036
217.626
89.6003
21.6591
8.15283
9.06399
13.4746
22.8853
111.845
265.682
275.135
285.499
298.538
306.882
309.917
215.775
124.156
113.99
102.323
136.002
822.793
1195.29
3.36041
2.86181
3.05422
2.46251
2.10662
2.05006
2.45856
3.44265
8.81238
50.3739
74.8111
72.9861
92.6406
225.617
286.069
292.261
294.484
168.103
103.222
94.4806
82.7252
73.1496
637.594
0.508779
0.435949
0.487261
0.471889
0.531189
0.655528
0.811689
1.22884
2.615
3.04015
1.20775
1.5465
1.64749
1.31533
27.2059
186.235
268.78
259.005
195.019
87.7298
75.7517
71.5041
65.9164
0.146954
0.115301
0.119752
0.142354
0.194535
0.255357
0.300323
0.299363
0.163416
-0.0255459
-0.172313
-0.195995
-0.0628337
-0.0055417
0.0151895
0.754586
56.3495
200.574
213.353
205.763
166.083
77.9209
66.7196
0.0783081
0.056617
0.0553929
0.0691258
0.088669
0.0976348
0.0788408
0.00752608
-0.128393
-0.269197
-0.358291
-0.3926
-0.385468
-0.393589
-0.488564
-0.422795
-0.312844
-0.21212
117.261
193.114
189.678
187.278
188.394
0.0591676
0.042356
0.0347324
0.0359378
0.0367596
0.0240268
-0.0143538
-0.089362
-0.19784
-0.303686
-0.372965
-0.423109
-0.46141
-0.484499
-0.513853
-0.55311
-0.560188
-0.474945
-0.834491
1.15855
127.238
191.765
184.133
0.0423049
0.0308899
0.0217541
0.015992
0.00766579
-0.0123912
-0.0525957
-0.118174
-0.204576
-0.290838
-0.359018
-0.418135
-0.46968
-0.51021
-0.540601
-0.564824
-0.579967
-0.565858
-0.536614
-0.512911
-0.818902
0.480538
58.6837
0.0258512
0.0179822
0.010267
0.00187474
-0.0104164
-0.0322495
-0.0688887
-0.123358
-0.192515
-0.265083
-0.330933
-0.391462
-0.446544
-0.493697
-0.531421
-0.558011
-0.575055
-0.582864
-0.575476
-0.549392
-0.516001
-0.504251
-0.696365
0.0115044
0.00578954
-3.3572e-05
-0.00883961
-0.0222173
-0.0433528
-0.0753175
-0.119837
-0.175219
-0.235555
-0.294981
-0.352143
-0.405997
-0.454482
-0.495429
-0.526815
-0.548069
-0.561088
-0.567569
-0.566159
-0.553169
-0.530415
-0.527034
-0.000912685
-0.00428561
-0.00837642
-0.0164062
-0.0292633
-0.0485609
-0.0759814
-0.112435
-0.157026
-0.206718
-0.258045
-0.309177
-0.358675
-0.404652
-0.445044
-0.477895
-0.502045
-0.517893
-0.527551
-0.53173
-0.530964
-0.525373
-0.519897
-0.0110822
-0.0120649
-0.0146036
-0.0212912
-0.0327548
-0.0497241
-0.0730359
-0.10312
-0.139439
-0.180315
-0.223638
-0.267773
-0.31129
-0.35256
-0.389811
-0.42133
-0.445827
-0.462848
-0.472988
-0.477112
-0.475875
-0.469338
-0.457205
-0.0187337
-0.017875
-0.0190927
-0.0242779
-0.033953
-0.0484448
-0.0681269
-0.0931311
-0.123039
-0.156794
-0.192997
-0.230325
-0.267523
-0.303246
-0.336057
-0.364536
-0.387481
-0.40413
-0.414251
-0.417944
-0.415429
-0.406921
-0.392421
-0.0241964
-0.0221232
-0.0222584
-0.0260118
-0.033846
-0.0459396
-0.0624445
-0.0833159
-0.108153
-0.13618
-0.166374
-0.197668
-0.228999
-0.259259
-0.287305
-0.312016
-0.332373
-0.347559
-0.357041
-0.360488
-0.357674
-0.348765
-0.333885
-0.0279748
-0.0251565
-0.0244141
-0.0268975
-0.0330417
-0.0429692
-0.0567267
-0.0741753
-0.094912
-0.118294
-0.14351
-0.169687
-0.195926
-0.221304
-0.244893
-0.265814
-0.283251
-0.296462
-0.304818
-0.307818
-0.305082
-0.296627
-0.28249
-0.0304846
-0.0272211
-0.0257707
-0.0271752
-0.0318663
-0.0399298
-0.0513479
-0.0659305
-0.0832809
-0.102833
-0.123911
-0.145795
-0.167736
-0.188953
-0.208672
-0.22618
-0.240826
-0.251985
-0.259048
-0.261476
-0.258849
-0.251134
-0.238304
-0.0320005
-0.0284634
-0.0264547
-0.0269855
-0.0304825
-0.0369887
-0.0464374
-0.0586113
-0.0731276
-0.0894778
-0.107087
-0.125359
-0.143677
-0.161393
-0.177853
-0.192451
-0.204652
-0.21394
-0.219785
-0.221685
-0.219232
-0.212388
-0.201083
-0.0326756
-0.0289743
-0.0265529
-0.0264165
-0.0289674
-0.034197
-0.0419983
-0.0521458
-0.0642807
-0.077945
-0.0926415
-0.107874
-0.123141
-0.137917
-0.151654
-0.163832
-0.173995
-0.181711
-0.186541
-0.188045
-0.185856
-0.179938
-0.170189
-0.0326239
-0.0288561
-0.0261674
-0.0255541
-0.0273775
-0.0315729
-0.0380003
-0.046441
-0.0565707
-0.0679844
-0.0802494
-0.0929444
-0.105661
-0.117978
-0.129448
-0.139634
-0.148138
-0.154593
-0.158631
-0.159879
-0.158015
-0.153009
-0.144745
-0.031995
-0.0282609
-0.0254419
-0.0245141
-0.02579
-0.0291519
-0.0344355
-0.0414358
-0.0498708
-0.0593928
-0.0696286
-0.0802155
-0.0908123
-0.101079
-0.110661
-0.119194
-0.126339
-0.131779
-0.135201
-0.136291
-0.13477
-0.130612
-0.123707
-0.0309823
-0.0273751
-0.0245437
-0.0234323
-0.024302
-0.0269931
-0.0313265
-0.0371125
-0.044111
-0.0520334
-0.0605644
-0.0693911
-0.0782219
-0.0867765
-0.0947696
-0.101908
-0.107906
-0.112495
-0.115413
-0.116392
-0.115197
-0.111804
-0.106114
-0.0297812
-0.026372
-0.0236204
-0.0224252
-0.0229954
-0.0251465
-0.0286942
-0.0334627
-0.0392481
-0.0458153
-0.0529043
-0.0602498
-0.0675999
-0.074717
-0.0813675
-0.087315
-0.0923271
-0.0961822
-0.0986631
-0.0995481
-0.0986417
-0.095924
-0.0913035
-0.0285405
-0.02537
-0.0227628
-0.0215541
-0.0219032
-0.0236172
-0.0265165
-0.0304379
-0.0352072
-0.040633
-0.0465042
-0.0526007
-0.0587072
-0.0646193
-0.0701408
-0.0750794
-0.0792481
-0.0824689
-0.0845674
-0.085366
-0.0847048
-0.0825678
-0.0788708
-0.027338
-0.0244191
-0.0219942
-0.0208163
-0.0209993
-0.022355
-0.0247158
-0.0279326
-0.0318554
-0.0363271
-0.0411768
-0.0462248
-0.0512902
-0.0561978
-0.0607802
-0.064878
-0.0683409
-0.0710275
-0.0728012
-0.0735224
-0.0730626
-0.0714103
-0.0684889
-0.0261844
-0.0235112
-0.021283
-0.0201598
-0.0202143
-0.0212701
-0.0231769
-0.0258022
-0.0290176
-0.0326922
-0.0366872
-0.040857
-0.0450521
-0.049124
-0.05293
-0.0563363
-0.0592203
-0.0614697
-0.0629774
-0.0636334
-0.0633355
-0.0620754
-0.0597856
-0.0250453
-0.0226027
-0.0205686
-0.0195095
-0.0194605
-0.0202598
-0.0217763
-0.023897
-0.026513
-0.029515
-0.0327896
-0.0362193
-0.0396822
-0.0430546
-0.0462159
-0.0490538
-0.0514664
-0.0533628
-0.0546573
-0.0552609
-0.0550913
-0.0541418
-0.0523531
-0.0238679
-0.0216389
-0.0197868
-0.0187924
-0.0186575
-0.0192341
-0.0204103
-0.0220931
-0.0241922
-0.0266168
-0.0292749
-0.0320722
-0.0349109
-0.03769
-0.0403093
-0.0426741
-0.0446995
-0.0463096
-0.0474322
-0.0479935
-0.0479254
-0.0472198
-0.0458241
-0.0226014
-0.0205706
-0.0188868
-0.0179541
-0.0177477
-0.018131
-0.0190098
-0.0203093
-0.0219564
-0.0238777
-0.0259998
-0.0282488
-0.030548
-0.0328168
-0.0349732
-0.0369382
-0.0386396
-0.0400121
-0.0409928
-0.0415187
-0.0415313
-0.0410185
-0.0399324
-0.0212083
-0.0193641
-0.0178369
-0.0169629
-0.016699
-0.0169174
-0.0175387
-0.0185036
-0.0197543
-0.0212336
-0.0228856
-0.0246549
-0.0264839
-0.0283106
-0.0300688
-0.031692
-0.0331178
-0.0342884
-0.0351488
-0.035644
-0.0357217
-0.0353648
-0.0345281
-0.0196673
-0.0180022
-0.016623
-0.0158073
-0.0155
-0.0155816
-0.0159843
-0.0166606
-0.0175662
-0.0186587
-0.0198987
-0.0212482
-0.0226678
-0.0241129
-0.0255303
-0.0268618
-0.0280519
-0.0290496
-0.029807
-0.0302754
-0.0304072
-0.0301803
-0.0295511
-0.0179721
-0.0164828
-0.0152464
-0.014491
-0.0141547
-0.0141269
-0.0143483
-0.0147803
-0.0153895
-0.016147
-0.0170285
-0.0180127
-0.0190786
-0.0201993
-0.0213316
-0.0224193
-0.023411
-0.0242624
-0.0249322
-0.0253781
-0.0255564
-0.0254412
-0.0249897
-0.0161272
-0.0148135
-0.0137186
-0.0130276
-0.0126772
-0.0125659
-0.0126414
-0.0128713
-0.0132305
-0.0137009
-0.014272
-0.014939
-0.0157013
-0.0165539
-0.0174592
-0.018353
-0.0191843
-0.0199154
-0.0205128
-0.0209403
-0.0211592
-0.0211412
-0.0208449
-0.0141421
-0.0130065
-0.0120547
-0.0114346
-0.0110856
-0.0109164
-0.0108797
-0.0109468
-0.0110983
-0.0113242
-0.0116253
-0.0120128
-0.012511
-0.0131506
-0.0138947
-0.0146499
-0.0153609
-0.0159983
-0.0165375
-0.0169504
-0.0172037
-0.0172693
-0.017108
-0.0120244
-0.0110712
-0.0102657
-0.00972498
-0.00939485
-0.00919392
-0.00907768
-0.00901925
-0.00900168
-0.00901981
-0.0090824
-0.00921405
-0.00946875
-0.00994886
-0.0106114
-0.0112905
-0.0119234
-0.0124934
-0.0129879
-0.0133882
-0.0136683
-0.0138023
-0.0137543
-0.00977352
-0.00900653
-0.00834988
-0.0079007
-0.00761125
-0.00740707
-0.00724486
-0.00709734
-0.00694709
-0.00678955
-0.00663519
-0.006511
-0.00650588
-0.00688733
-0.00758862
-0.00826549
-0.00885978
-0.00938474
-0.0098445
-0.0102312
-0.0105267
-0.0107097
-0.010748
-0.00737218
-0.00679838
-0.00630379
-0.0059773
-0.00576563
-0.00559498
-0.00542183
-0.00521655
-0.00495714
-0.00463218
-0.00423534
-0.00375816
-0.00335159
-0.00373289
-0.00479483
-0.00560445
-0.00619245
-0.00667978
-0.00710351
-0.00746678
-0.00775935
-0.00796384
-0.00805236
-0.00477804
-0.00444766
-0.00418761
-0.00406327
-0.0039911
-0.00389722
-0.00374003
-0.00348583
-0.0031013
-0.002554
-0.00177721
-0.000596929
0.000815253
0.000266572
-0.00208664
-0.00331659
-0.00393112
-0.00437258
-0.00474813
-0.00507267
-0.00534058
-0.00553651
-0.00563716
-0.00197032
-0.00193586
-0.00196116
-0.00203351
-0.00208059
-0.00205879
-0.00194264
-0.00170519
-0.00131258
-0.000721616
0.000183955
0.00184344
0.00481629
0.00486356
0.000648094
-0.000978136
-0.00165107
-0.00210005
-0.00247833
-0.00281189
-0.00309364
-0.00330338
-0.00341879
737.287
731.823
718.038
699.34
795.21
795.236
811.979
833.477
940.041
952.379
969.257
976.595
1062.8
1078.2
843.966
513.211
1137.62
1141.96
955.715
529.257
1187.53
1181.57
1179.47
1125.46
1034.45
986.34
912.394
913.696
57.8354
65.0884
91.9915
100.632
60.241
56.1905
51.3961
45.6387
107.349
76.1064
81.2585
67.656
169.5
165.938
166.257
166.705
14.6134
24.5406
101.429
127.185
-0.880927
-0.883554
-0.887946
-0.96827
-0.525233
-0.481566
-0.424293
-0.405499
-0.525987
-0.521547
-0.507567
-0.485406
-0.440598
-0.42685
-0.412342
-0.397791
-0.374417
-0.359076
-0.341764
-0.324455
-0.315556
-0.299492
-0.281326
-0.263536
-0.264871
-0.249332
-0.231809
-0.214893
-0.222205
-0.207983
-0.191911
-0.17648
-0.186849
-0.174274
-0.15999
-0.146298
-0.15787
-0.146986
-0.134544
-0.12263
-0.134283
-0.125013
-0.11434
-0.104122
-0.114974
-0.107211
-0.0982098
-0.0895744
-0.0989336
-0.092559
-0.0851183
-0.0779488
-0.0854845
-0.0803465
-0.0743083
-0.0684521
-0.0742192
-0.0701309
-0.0652814
-0.0605375
-0.0648092
-0.0615681
-0.0576716
-0.0538202
-0.0568882
-0.0543071
-0.0511516
-0.0479974
-0.0500678
-0.0479954
-0.0454196
-0.0428179
-0.0440102
-0.0423363
-0.0402308
-0.038087
-0.0384834
-0.0371315
-0.0354237
-0.0336773
-0.0333681
-0.0322844
-0.0309207
-0.0295271
-0.0286279
-0.0277713
-0.0267055
-0.0256229
-0.0242674
-0.0236034
-0.0227911
-0.021976
-0.0202963
-0.0197949
-0.0191931
-0.0186013
-0.0167104
-0.0163449
-0.0159141
-0.015503
-0.0134865
-0.0132328
-0.012938
-0.0126683
-0.010586
-0.0104216
-0.0102313
-0.0100665
-0.00796655
-0.0078664
-0.00774862
-0.00764932
-0.00559177
-0.00552604
-0.00544141
-0.00536288
-0.00340132
-0.00336507
-0.00331071
-0.00324742
791.681
760.376
363.745
284.58
304.292
493.73
567.267
548.564
515.602
455.249
217.506
167.773
145.552
140.749
139.173
161.154
184.634
150.459
128.054
865.584
692.201
261.365
264.325
379.399
685.735
674.866
523.035
271.77
455.038
296.83
153.338
138.292
136.605
206.663
205.064
196.156
189.423
116.013
828.912
325.578
253.498
253.163
316.255
733.673
708.402
269.838
124.083
476.598
444.41
147.659
124.949
187.043
214.235
205.477
195.647
170.007
139.994
333.033
255.91
252.521
245.459
583.805
775.489
744.829
126.325
100.988
503.293
349.827
117.19
109.375
202.985
213.316
200.706
126.976
101.06
79.83
301.175
247.563
240.43
377.199
819.935
808.32
364.955
55.2351
78.2635
472.375
168.475
55.8444
100.796
220.923
214.406
167.654
47.9505
24.143
17.807
1032.24
936.715
907.305
931.076
794.781
313.054
34.2781
43.5265
139.01
119.753
92.0978
40.9998
137.795
223.048
208.824
56.4305
9.72834
5.10558
4.32859
898.754
793.072
620.484
447.846
117.167
30.5726
33.3173
51.0262
167.396
60.5752
13.0408
35.8628
59.5767
122.103
73.8158
9.58153
3.18693
3.15163
2.56694
101.582
81.6721
63.811
30.0389
31.4869
31.3319
31.2435
137.48
171.475
77.5597
5.39099
20.4134
7.18582
1.25685
4.81572
3.81624
1.22095
2.56245
1.25404
40.6699
30.6701
32.169
33.1336
31.0888
30.16
71.5589
142.315
141.075
18.9967
3.14977
1.71151
8.17259
1.21749
4.53246
3.44761
0.76633
1.09738
1.02514
42.7362
28.8079
79.5806
114.918
119.281
120.42
116.813
69.7271
0.168771
0.77468
2.6039
0.788913
5.56477
0.583849
1.71598
2.12952
0.659155
0.740545
0.806343
165.867
108.63
126.79
126.829
126.311
120.186
81.1934
0.00404446
0.261162
0.783812
1.08562
0.497315
0.633878
0.431908
0.485649
0.49358
0.600969
0.64247
0.66231
67.6958
57.1554
67.6829
71.5573
40.8552
4.40893
-0.159507
0.160543
0.257268
0.139635
0.207304
0.253391
0.266214
0.368062
0.414033
0.478479
0.553046
0.573753
0.570509
-1.08374
-1.05723
-0.888368
-0.644086
-0.350424
-0.155276
0.027655
0.239281
0.17221
0.137871
0.19612
0.243043
0.276604
0.336739
0.392705
0.45953
0.509367
0.52172
0.507599
-0.417861
-0.370061
-0.291083
-0.211718
-0.139465
-0.0263749
0.0710869
0.0925527
0.114409
0.191886
0.280177
0.250129
0.279987
0.33158
0.382599
0.432197
0.467242
0.476526
0.459169
-0.429149
-0.363966
-0.291379
-0.216491
-0.142094
-0.015567
0.0690796
0.0712431
0.12437
0.265451
0.317454
0.360458
0.289828
0.317283
0.358634
0.396697
0.423718
0.432789
0.419416
-0.369055
-0.314434
-0.250155
-0.182434
-0.117325
-0.0589294
0.0316662
0.136543
0.137952
0.183073
0.319832
0.3543
0.284739
0.292012
0.324355
0.355207
0.383739
0.399252
0.399394
-0.296617
-0.248202
-0.19241
-0.134296
-0.0777915
-0.00265253
0.146066
0.192419
0.176726
0.147196
0.178121
0.21649
0.244925
0.260677
0.284106
0.306888
0.333613
0.383606
0.79643
-0.23654
-0.193817
-0.145489
-0.0955046
-0.0467376
-0.000688698
0.118942
0.202458
0.215504
0.138351
0.162983
0.184474
0.204692
0.223648
0.241838
0.258307
0.272302
0.345779
1.07298
-0.190102
-0.153061
-0.111278
-0.0681169
-0.0262274
0.0124426
0.045443
0.118988
0.152354
0.124962
0.145744
0.159647
0.173737
0.187586
0.200937
0.213419
0.222441
0.279915
1.05704
-0.15434
-0.122581
-0.0866697
-0.0494885
-0.0136456
0.0191698
0.0474429
0.0708362
0.091977
0.14182
0.145574
0.134282
0.144372
0.154187
0.164071
0.174088
0.182656
0.300708
1.05128
-0.126877
-0.0998531
-0.0692512
-0.0374425
-0.00685242
0.0209912
0.0449084
0.0645466
0.0805761
0.0984433
0.111498
0.113172
0.118099
0.125107
0.132391
0.140053
0.148422
0.859961
1.05547
-0.105856
-0.0830225
-0.0571714
-0.0301767
-0.00418456
0.0194433
0.0396851
0.0561056
0.0691153
0.080264
0.0858261
0.0913382
0.0963162
0.10124
0.106666
0.11213
0.117138
1.05245
1.06821
-0.0897925
-0.0706085
-0.0489125
-0.0261488
-0.00414704
0.0159088
0.0331167
0.0469984
0.0575926
0.0663013
0.0720334
0.0752729
0.0788564
0.0828699
0.0872547
0.0914817
0.0944483
1.04489
1.08667
-0.077457
-0.0614063
-0.0432667
-0.0241389
-0.00554461
0.011517
0.0262655
0.0382301
0.0474055
0.0540902
0.0588303
0.0624689
0.0658649
0.0696238
0.0739342
0.0783479
0.0817813
0.646001
1.08085
-0.0678231
-0.0544426
-0.0393062
-0.023256
-0.00753574
0.0070345
0.0198009
0.0303335
0.0385441
0.0446521
0.0491879
0.0528812
0.056468
0.0605728
0.0656353
0.0717164
0.0782101
0.584212
0.511518
-0.0600868
-0.0489679
-0.0363524
-0.0228897
-0.0095811
0.00291761
0.0140749
0.0235175
0.0311242
0.0370462
0.041699
0.0456909
0.0496911
0.0543742
0.0604667
0.0686089
0.1149
0.98862
0.531978
-0.0536689
-0.0444481
-0.033942
-0.0226495
-0.0113627
-0.000593069
0.00924052
0.0178234
0.0250199
0.0309113
0.0358004
0.0401626
0.0445829
0.0497076
0.0563065
0.0647901
0.529301
1.0196
0.55862
-0.0481733
-0.0405293
-0.0317826
-0.0223068
-0.0127151
-0.00339436
0.00533394
0.013205
0.0200738
0.0259629
0.0310726
0.03576
0.0404919
0.0458094
0.0522331
0.0592975
0.70517
1.04813
0.591855
-0.0433281
-0.0369874
-0.0297044
-0.0217462
-0.0135754
-0.00547561
0.00230954
0.00955561
0.0161158
0.0219639
0.0272187
0.0321344
0.0370909
0.0425395
0.0488791
0.0555232
0.389789
1.07546
0.413303
-0.0389411
-0.0336821
-0.0276178
-0.0209276
-0.0139515
-0.00689145
6.73639e-05
0.00673763
0.0129757
0.0187088
0.0239978
0.0290256
0.0341116
0.0397467
0.0464913
0.0540332
0.392715
1.0974
0.26912
-0.0348776
-0.030528
-0.0254846
-0.0198595
-0.0138968
-0.00773699
-0.00152146
0.00458928
0.0104599
0.0160095
0.021207
0.0261794
0.0312263
0.0369144
0.044061
0.0519318
0.874626
1.11764
0.185488
-0.0310526
-0.0274807
-0.0233019
-0.0185812
-0.0134907
-0.0081264
-0.00259504
0.00296485
0.0084184
0.0136833
0.0186933
0.0234285
0.0281551
0.0334273
0.0399988
0.319332
0.988635
0.705778
0.109495
-0.0274247
-0.0245274
-0.0210909
-0.01715
-0.0128249
-0.00817855
-0.00329101
0.00172059
0.00673267
0.0116597
0.0163154
0.0206369
0.0247546
0.0289756
0.033286
0.730535
1.00856
0.498512
0.0935923
-0.0239856
-0.0216779
-0.0188867
-0.0156294
-0.0119902
-0.00800932
-0.00374237
0.000731153
0.00537987
0.00988909
0.0141124
0.0179691
0.0213979
0.0243041
0.0259932
0.530576
1.02569
0.316139
0.0818921
-0.0207451
-0.0189525
-0.0167265
-0.0140773
-0.0110652
-0.00771305
-0.00405063
-3.03422e-05
0.00409164
0.00820612
0.0121472
0.0156896
0.0205201
0.0213075
0.0217556
0.114531
0.169447
0.0642236
0.0738566
-0.0177162
-0.0163697
-0.0146396
-0.0125363
-0.0101067
-0.00736372
-0.00432043
-0.000921909
0.00276016
0.00659265
0.0103645
0.030488
0.0322654
0.0328257
0.073467
0.023509
0.0294519
0.0474629
0.066208
-0.0149036
-0.0139364
-0.0126384
-0.0110257
-0.00914253
-0.00700347
-0.00460982
-0.00190781
0.00126969
0.00484956
0.0304047
0.0412766
0.0436804
0.0453834
0.0346157
0.0199292
0.0266965
0.041341
0.0578888
-0.0122953
-0.0116404
-0.0107118
-0.00953585
-0.00816468
-0.00662961
-0.00494094
-0.00299456
-0.000304517
0.00332127
0.0300658
0.0360527
0.0355034
0.035757
0.0227386
0.0159954
0.0215148
0.0336089
0.0484602
-0.00985772
-0.00944162
-0.00881418
-0.00801455
-0.00711046
-0.0061692
-0.00526781
-0.00431099
-0.00217519
0.00224645
0.0077358
0.00976193
0.010701
0.0116815
0.011741
0.0116213
0.0148757
0.0246058
0.0376351
-0.00752893
-0.00725812
-0.00684269
-0.00633447
-0.00582092
-0.00544578
-0.00555055
-0.0063691
-0.00520341
-0.00104949
0.00296225
0.0064818
0.00947787
0.0115061
0.0102421
0.00697785
0.00719299
0.0146347
0.0251204
-0.00525786
-0.00501836
-0.00469405
-0.00434857
-0.00409443
-0.00423467
-0.00588766
-0.0107773
-0.0114047
-0.00481088
0.000861861
0.00563639
0.0101482
0.0146884
0.0118242
0.00198849
-0.00204256
0.00357177
0.0263157
-0.00313754
-0.00287341
-0.00254814
-0.00224665
-0.0021293
-0.00263356
-0.00567369
-0.0166624
-0.0149849
-0.00676459
-0.000878768
0.00397739
0.00936406
0.0163627
0.0148375
-0.00407239
-0.00817959
-0.00561528
0.0209706
)
;

boundaryField
{
    leftWall
    {
        type            fixedFluxPressure;
        gradient        uniform 0;
        value           nonuniform List<scalar> 
50
(
1076.05
1077.34
1079.38
1082.05
1085.06
1088.16
1091.2
1094.07
1098.26
1103.5
1109.19
1117
1106.24
422.069
3.36041
0.508779
0.146954
0.0783081
0.0591676
0.0423049
0.0258512
0.0115044
-0.000912685
-0.0110822
-0.0187337
-0.0241964
-0.0279748
-0.0304846
-0.0320005
-0.0326756
-0.0326239
-0.031995
-0.0309823
-0.0297812
-0.0285405
-0.027338
-0.0261844
-0.0250453
-0.0238679
-0.0226014
-0.0212083
-0.0196673
-0.0179721
-0.0161272
-0.0141421
-0.0120244
-0.00977352
-0.00737218
-0.00477804
-0.00197032
)
;
    }
    rightWall
    {
        type            fixedFluxPressure;
        gradient        uniform 0;
        value           nonuniform List<scalar> 
50
(
391.753
392.375
391.621
389.995
350.689
162.315
131.482
131.15
128.054
116.013
139.994
79.83
17.807
4.32859
2.56694
1.25404
1.02514
0.806343
0.66231
0.570509
0.507599
0.459169
0.419416
0.399394
0.79643
1.07298
1.05704
1.05128
1.05547
1.06821
1.08667
1.08085
0.511518
0.531978
0.55862
0.591855
0.413303
0.26912
0.185488
0.109495
0.0935923
0.0818921
0.0738566
0.066208
0.0578888
0.0484602
0.0376351
0.0251204
0.0263157
0.0209706
)
;
    }
    lowerWall
    {
        type            fixedFluxPressure;
        gradient        uniform 0;
        value           nonuniform List<scalar> 
62
(
1076.05
1070
1061.6
1050.33
1036.7
1020.91
1003.19
983.769
962.849
940.592
917.199
893.124
868.891
844.937
823.403
805.708
793.263
786.346
783.413
781.316
776.443
770.848
770.015
770.015
769.842
769.611
769.475
769.604
769.999
771.966
767.756
737.287
731.823
718.038
699.34
836.837
841.585
856.691
870.038
876.514
873.604
860.96
839.707
836.837
806.8
749.348
657.429
607.194
601.89
608.931
602.612
587.228
565.134
539.536
514.114
487.234
459.008
432.856
414.4
401.884
392.004
391.753
)
;
    }
    atmosphere
    {
        type            totalPressure;
        rho             rho;
        psi             none;
        gamma           1;
        p0              uniform 0;
        value           nonuniform List<scalar> 
46
(
0
0
0
0
0
0
0
0
0
0
0
0
0
-2.87077e-05
-0.000127958
-0.000324386
-0.000607154
-0.000952844
-0.0013308
-0.00170448
-0.00203448
-0.00228387
-0.0024253
-0.00244408
-0.00243156
-0.00239795
-0.00234379
-0.00221617
-0.001917
-0.00151811
-0.0010754
-0.000659352
-0.000328463
-0.000107568
-2.02474e-06
0
0
0
0
0
0
-4.67597e-06
-1.74028e-07
0
0
0
)
;
    }
    defaultFaces
    {
        type            empty;
    }
}


// ************************************************************************* //
