/*--------------------------------*- C++ -*----------------------------------*\
  =========                 |
  \\      /  F ield         | OpenFOAM: The Open Source CFD Toolbox
   \\    /   O peration     | Website:  https://openfoam.org
    \\  /    A nd           | Version:  9
     \\/     M anipulation  |
\*---------------------------------------------------------------------------*/
FoamFile
{
    format      ascii;
    class       surfaceScalarField;
    location    "1";
    object      phi;
}
// * * * * * * * * * * * * * * * * * * * * * * * * * * * * * * * * * * * * * //

dimensions      [0 3 -1 0 0 0 0];

internalField   nonuniform List<scalar> 
4432
(
1.68994e-06
-1.68994e-06
4.64619e-06
-2.9563e-06
7.60573e-06
-2.95962e-06
1.00838e-05
-2.47814e-06
1.21374e-05
-2.05355e-06
1.39164e-05
-1.779e-06
1.5571e-05
-1.65463e-06
1.72084e-05
-1.6373e-06
1.88935e-05
-1.68512e-06
2.06622e-05
-1.76864e-06
2.25262e-05
-1.86399e-06
2.44727e-05
-1.94647e-06
2.64592e-05
-1.98647e-06
2.84034e-05
-1.9443e-06
3.01676e-05
-1.76422e-06
3.15279e-05
-1.36034e-06
3.20918e-05
-5.63937e-07
3.11042e-05
9.87654e-07
2.7604e-05
3.5002e-06
2.09629e-05
6.64113e-06
1.17516e-05
9.21132e-06
2.84567e-06
8.90589e-06
2.84584e-06
2.51956e-06
-4.20959e-06
5.24675e-06
-5.68358e-06
7.68029e-06
-5.39321e-06
9.81767e-06
-4.61556e-06
1.16956e-05
-3.93144e-06
1.34032e-05
-3.48655e-06
1.50224e-05
-3.27382e-06
1.66227e-05
-3.23748e-06
1.82567e-05
-3.31915e-06
1.99579e-05
-3.46973e-06
2.17385e-05
-3.64459e-06
2.35876e-05
-3.79564e-06
2.54653e-05
-3.8642e-06
2.72937e-05
-3.7728e-06
2.89456e-05
-3.41613e-06
3.02345e-05
-2.64924e-06
3.09436e-05
-1.27299e-06
3.08669e-05
1.06427e-06
2.95451e-05
4.82213e-06
2.58944e-05
1.02917e-05
1.84865e-05
1.66195e-05
8.19381e-06
1.91984e-05
1.10398e-05
2.89449e-06
-7.10415e-06
5.43748e-06
-8.22661e-06
7.53142e-06
-7.48716e-06
9.40069e-06
-6.48485e-06
1.11083e-05
-5.63905e-06
1.27032e-05
-5.08137e-06
1.4235e-05
-4.80564e-06
1.5753e-05
-4.75542e-06
1.72988e-05
-4.86498e-06
1.89008e-05
-5.07169e-06
2.05697e-05
-5.31352e-06
2.2295e-05
-5.52096e-06
2.40388e-05
-5.60804e-06
2.5728e-05
-5.46199e-06
2.72442e-05
-4.93241e-06
2.84151e-05
-3.82015e-06
2.90108e-05
-1.86864e-06
2.87948e-05
1.28022e-06
2.75094e-05
6.10763e-06
2.47194e-05
1.30816e-05
1.94221e-05
2.1917e-05
1.07022e-05
2.79182e-05
2.17421e-05
2.93499e-06
-1.00392e-05
5.33013e-06
-1.06217e-05
7.23323e-06
-9.39025e-06
8.92197e-06
-8.17359e-06
1.04874e-05
-7.20448e-06
1.19704e-05
-6.56436e-06
1.34068e-05
-6.24201e-06
1.48337e-05
-6.18235e-06
1.62848e-05
-6.31605e-06
1.77838e-05
-6.57077e-06
1.93402e-05
-6.86985e-06
2.09438e-05
-7.12458e-06
2.25596e-05
-7.22384e-06
2.41197e-05
-7.02212e-06
2.55145e-05
-6.32728e-06
2.65843e-05
-4.89002e-06
2.7115e-05
-2.39928e-06
2.68621e-05
1.53306e-06
2.55866e-05
7.38324e-06
2.30491e-05
1.56191e-05
1.87418e-05
2.62245e-05
1.13373e-05
3.53225e-05
3.30795e-05
2.82294e-06
-1.28621e-05
5.05717e-06
-1.2856e-05
6.82207e-06
-1.11551e-05
8.37792e-06
-9.72945e-06
9.82328e-06
-8.64984e-06
1.11997e-05
-7.94077e-06
1.25381e-05
-7.58044e-06
1.38691e-05
-7.51335e-06
1.52206e-05
-7.6676e-06
1.66132e-05
-7.96333e-06
1.8055e-05
-8.3116e-06
1.95371e-05
-8.60673e-06
2.10281e-05
-8.71484e-06
2.24663e-05
-8.46037e-06
2.37516e-05
-7.6126e-06
2.47371e-05
-5.87564e-06
2.52259e-05
-2.88804e-06
2.49859e-05
1.77306e-06
2.37897e-05
8.57953e-06
2.14412e-05
1.79675e-05
1.76507e-05
3.00152e-05
1.11973e-05
4.17759e-05
4.42768e-05
2.6455e-06
-1.55076e-05
4.70088e-06
-1.49113e-05
6.3396e-06
-1.27938e-05
7.78249e-06
-1.11724e-05
9.11999e-06
-9.98737e-06
1.03937e-05
-9.21448e-06
1.16328e-05
-8.81962e-06
1.28642e-05
-8.74478e-06
1.41121e-05
-8.91544e-06
1.53943e-05
-9.24554e-06
1.67185e-05
-9.63583e-06
1.80776e-05
-9.96588e-06
1.94443e-05
-1.00816e-05
2.07641e-05
-9.78016e-06
2.19468e-05
-8.79534e-06
2.28588e-05
-6.78771e-06
2.33195e-05
-3.34872e-06
2.3114e-05
1.97852e-06
2.20315e-05
9.66213e-06
1.98986e-05
2.01004e-05
1.65206e-05
3.33933e-05
1.0859e-05
4.74375e-05
5.51359e-05
2.44178e-06
-1.79493e-05
4.30663e-06
-1.67761e-05
5.81681e-06
-1.43039e-05
7.15174e-06
-1.25073e-05
8.38553e-06
-1.12212e-05
9.55738e-06
-1.03864e-05
1.06953e-05
-9.95759e-06
1.18236e-05
-9.8731e-06
1.29636e-05
-1.00554e-05
1.41314e-05
-1.04133e-05
1.53344e-05
-1.08389e-05
1.65676e-05
-1.11991e-05
1.78084e-05
-1.13224e-05
1.90099e-05
-1.09816e-05
2.00926e-05
-9.87806e-06
2.09362e-05
-7.63136e-06
2.1376e-05
-3.78855e-06
2.12158e-05
2.1387e-06
2.02668e-05
1.06112e-05
1.83899e-05
2.19774e-05
1.5472e-05
3.63113e-05
1.06328e-05
5.22767e-05
6.57687e-05
2.22292e-06
-2.01722e-05
3.89416e-06
-1.84472e-05
5.27286e-06
-1.56826e-05
6.49829e-06
-1.37327e-05
7.62787e-06
-1.23508e-05
8.69658e-06
-1.14551e-05
9.73069e-06
-1.09917e-05
1.07523e-05
-1.08947e-05
1.17803e-05
-1.10834e-05
1.28293e-05
-1.14623e-05
1.39068e-05
-1.19164e-05
1.501e-05
-1.23023e-05
1.61212e-05
-1.24336e-05
1.72016e-05
-1.20621e-05
1.81831e-05
-1.08595e-05
1.89586e-05
-8.40692e-06
1.93789e-05
-4.20884e-06
1.92669e-05
2.2507e-06
1.84614e-05
1.14168e-05
1.68783e-05
2.35604e-05
1.45152e-05
3.86745e-05
1.05869e-05
5.6205e-05
7.63557e-05
6.97236e-06
-6.97236e-06
5.95741e-06
1.01495e-06
1.45522e-06
4.50217e-06
-3.70115e-06
5.15642e-06
-6.43159e-06
2.73028e-06
-5.6936e-06
-7.37816e-07
-2.00584e-06
-3.68782e-06
3.69072e-06
-5.69658e-06
1.06758e-05
-6.98491e-06
1.85098e-05
-7.8341e-06
2.6765e-05
-8.25527e-06
3.5039e-05
-8.27392e-06
4.26665e-05
-7.62762e-06
4.81637e-05
-5.49721e-06
4.67701e-05
1.39367e-06
3.39127e-05
1.28574e-05
1.31471e-05
2.07655e-05
-5.42195e-06
1.85691e-05
-5.42193e-06
3.661e-06
-1.06334e-05
1.16766e-06
3.5083e-06
-2.79641e-06
8.46611e-06
-5.23114e-06
7.59136e-06
-5.27531e-06
2.77425e-06
-3.00087e-06
-3.01211e-06
1.17761e-06
-7.8662e-06
6.84616e-06
-1.13652e-05
1.35967e-05
-1.37354e-05
2.09891e-05
-1.52265e-05
2.86003e-05
-1.58666e-05
3.6127e-05
-1.58007e-05
4.30233e-05
-1.45239e-05
4.81292e-05
-1.06031e-05
4.92978e-05
2.25013e-07
4.3359e-05
1.87963e-05
2.73057e-05
3.68188e-05
8.01433e-06
3.78604e-05
2.59243e-06
-3.64916e-07
-1.02685e-05
-2.86438e-06
6.00779e-06
-5.11881e-06
1.07204e-05
-5.52213e-06
7.99483e-06
-4.12784e-06
1.37986e-06
-1.14026e-06
-5.99963e-06
3.25814e-06
-1.22645e-05
8.87603e-06
-1.69832e-05
1.53018e-05
-2.01611e-05
2.21891e-05
-2.21139e-05
2.92661e-05
-2.29436e-05
3.6151e-05
-2.26856e-05
4.23408e-05
-2.07137e-05
4.67905e-05
-1.50528e-05
4.81265e-05
-1.11107e-06
4.4526e-05
2.23968e-05
3.26921e-05
4.86527e-05
1.55411e-05
5.50112e-05
1.81336e-05
-2.87831e-06
-7.39017e-06
-5.30728e-06
8.43679e-06
-6.24162e-06
1.16547e-05
-5.38592e-06
7.13926e-06
-3.11758e-06
-8.88529e-07
3.48768e-07
-9.46595e-06
4.91178e-06
-1.68274e-05
1.0412e-05
-2.24835e-05
1.64523e-05
-2.62014e-05
2.29821e-05
-2.86436e-05
2.97089e-05
-2.96705e-05
3.61417e-05
-2.91184e-05
4.15696e-05
-2.61416e-05
4.51021e-05
-1.85852e-05
4.61155e-05
-2.12457e-06
4.3391e-05
2.51214e-05
3.46735e-05
5.73702e-05
1.93942e-05
7.02904e-05
3.75278e-05
-4.63383e-06
-2.75633e-06
-6.70915e-06
1.05121e-05
-6.68929e-06
1.16348e-05
-5.01443e-06
5.46449e-06
-2.16026e-06
-3.74272e-06
1.64716e-06
-1.32734e-05
6.31317e-06
-2.14934e-05
1.15326e-05
-2.77029e-05
1.73487e-05
-3.20175e-05
2.37253e-05
-3.50203e-05
3.026e-05
-3.62052e-05
3.62538e-05
-3.51122e-05
4.08578e-05
-3.07456e-05
4.34285e-05
-2.11558e-05
4.3715e-05
-2.41111e-06
4.11025e-05
2.77339e-05
3.41384e-05
6.43343e-05
2.04705e-05
8.39582e-05
5.79983e-05
-5.73745e-06
2.98115e-06
-7.41652e-06
1.21911e-05
-6.69755e-06
1.09158e-05
-4.46693e-06
3.23395e-06
-1.20655e-06
-7.0031e-06
2.8449e-06
-1.73248e-05
7.45432e-06
-2.61028e-05
1.24614e-05
-3.271e-05
1.82171e-05
-3.77732e-05
2.4646e-05
-4.14492e-05
3.10409e-05
-4.26001e-05
3.64041e-05
-4.04755e-05
4.01542e-05
-3.44957e-05
4.20838e-05
-2.30854e-05
4.1656e-05
-1.98339e-06
3.84389e-05
3.0951e-05
3.22706e-05
7.05026e-05
2.06036e-05
9.56252e-05
7.8602e-05
-6.42117e-06
9.40237e-06
-7.62256e-06
1.33925e-05
-6.38043e-06
9.6737e-06
-3.77152e-06
6.25101e-07
-2.37568e-07
-1.0537e-05
3.92512e-06
-2.14875e-05
8.40786e-06
-3.05855e-05
1.34119e-05
-3.77141e-05
1.9295e-05
-4.36563e-05
2.57838e-05
-4.7938e-05
3.17762e-05
-4.85926e-05
3.63658e-05
-4.50651e-05
3.93247e-05
-3.74546e-05
4.07144e-05
-2.44751e-05
3.99716e-05
-1.24061e-06
3.60541e-05
3.48685e-05
2.98923e-05
7.66643e-05
1.9791e-05
0.000105726
9.8393e-05
-6.85107e-06
1.62535e-05
-7.42856e-06
1.39699e-05
-5.81371e-06
8.05881e-06
-2.96692e-06
-2.22166e-06
7.31812e-07
-1.42358e-05
4.89499e-06
-2.56507e-05
9.29582e-06
-3.49863e-05
1.44708e-05
-4.2889e-05
2.05764e-05
-4.97619e-05
2.68263e-05
-5.41879e-05
3.22903e-05
-5.40566e-05
3.61302e-05
-4.8905e-05
3.83738e-05
-3.96983e-05
3.93336e-05
-2.54349e-05
3.84534e-05
-3.60434e-07
3.42546e-05
3.90672e-05
2.75675e-05
8.33514e-05
1.84394e-05
0.000114855
0.000116832
3.94146e-06
-2.41136e-05
6.8616e-06
-2.13673e-05
9.36528e-06
-1.81862e-05
1.15892e-05
-1.59567e-05
1.36295e-05
-1.43911e-05
1.55474e-05
-1.3373e-05
1.73883e-05
-1.28326e-05
1.91907e-05
-1.26971e-05
2.09876e-05
-1.28803e-05
2.28049e-05
-1.32796e-05
2.46589e-05
-1.37703e-05
2.65509e-05
-1.41943e-05
2.84605e-05
-1.43432e-05
3.03339e-05
-1.39355e-05
3.2066e-05
-1.25915e-05
3.34778e-05
-9.8187e-06
3.43013e-05
-5.03233e-06
3.42161e-05
2.33586e-06
3.2966e-05
1.2667e-05
3.06457e-05
2.58807e-05
2.79573e-05
4.13629e-05
2.66647e-05
5.74976e-05
7.00859e-05
3.29345e-05
2.90645e-06
-2.702e-05
4.91341e-06
-2.33742e-05
6.70148e-06
-1.99743e-05
8.30382e-06
-1.7559e-05
9.7596e-06
-1.58469e-05
1.11072e-05
-1.47205e-05
1.23774e-05
-1.41028e-05
1.35958e-05
-1.39155e-05
1.47844e-05
-1.40688e-05
1.59614e-05
-1.44566e-05
1.71405e-05
-1.49495e-05
1.83293e-05
-1.53831e-05
1.95249e-05
-1.55388e-05
2.07061e-05
-1.51167e-05
2.18168e-05
-1.37022e-05
2.27397e-05
-1.07416e-05
2.32699e-05
-5.56253e-06
2.31296e-05
2.47617e-06
2.21126e-05
1.3684e-05
2.04402e-05
2.75531e-05
1.90702e-05
4.2733e-05
1.90709e-05
5.74968e-05
6.66871e-05
2.24694e-05
1.82617e-06
-2.88461e-05
2.95157e-06
-2.44996e-05
3.99494e-06
-2.10177e-05
4.91892e-06
-1.8483e-05
5.73305e-06
-1.6661e-05
6.45575e-06
-1.54432e-05
7.10243e-06
-1.47494e-05
7.68495e-06
-1.4498e-05
8.21237e-06
-1.45962e-05
8.69156e-06
-1.49358e-05
9.12761e-06
-1.53855e-05
9.52392e-06
-1.57794e-05
9.88105e-06
-1.58959e-05
1.01922e-05
-1.54278e-05
1.04311e-05
-1.3941e-05
1.05262e-05
-1.08367e-05
1.03244e-05
-5.36065e-06
9.57672e-06
3.22379e-06
8.07951e-06
1.51811e-05
5.90653e-06
2.9726e-05
3.71916e-06
4.49204e-05
3.54949e-06
5.76666e-05
6.37641e-05
6.47281e-06
7.08275e-07
-2.95543e-05
1.0432e-06
-2.48345e-05
1.34045e-06
-2.13149e-05
1.56647e-06
-1.8709e-05
1.71663e-06
-1.68112e-05
1.79324e-06
-1.55197e-05
1.79703e-06
-1.47531e-05
1.72571e-06
-1.44266e-05
1.57399e-06
-1.44445e-05
1.33378e-06
-1.46956e-05
9.94619e-07
-1.50463e-05
5.4389e-07
-1.53286e-05
-3.31717e-08
-1.53188e-05
-7.54801e-07
-1.47061e-05
-1.64858e-06
-1.30472e-05
-2.76586e-06
-9.71947e-06
-4.20387e-06
-3.92268e-06
-6.09499e-06
5.11485e-06
-8.49261e-06
1.75787e-05
-1.11046e-05
3.2338e-05
-1.29923e-05
4.68079e-05
-1.27078e-05
5.73821e-05
5.99784e-05
-8.92232e-06
-3.37672e-07
-2.92166e-05
-7.55669e-07
-2.44166e-05
-1.18254e-06
-2.08881e-05
-1.64299e-06
-1.82486e-05
-2.14733e-06
-1.63068e-05
-2.7058e-06
-1.49612e-05
-3.33051e-06
-1.41283e-05
-4.03666e-06
-1.37204e-05
-4.84342e-06
-1.36377e-05
-5.77458e-06
-1.37644e-05
-6.85931e-06
-1.39616e-05
-8.13278e-06
-1.40551e-05
-9.63651e-06
-1.3815e-05
-1.14182e-05
-1.29244e-05
-1.3529e-05
-1.09364e-05
-1.60116e-05
-7.23693e-06
-1.88738e-05
-1.06055e-06
-2.19646e-05
8.20556e-06
-2.49036e-05
2.05177e-05
-2.69799e-05
3.44143e-05
-2.72123e-05
4.70403e-05
-2.48112e-05
5.4981e-05
5.55968e-05
-2.04296e-05
-1.21121e-06
-2.80055e-05
-2.38548e-06
-2.32424e-05
-3.51065e-06
-1.97629e-05
-4.62229e-06
-1.71369e-05
-5.74464e-06
-1.51844e-05
-6.89854e-06
-1.38072e-05
-8.10578e-06
-1.29211e-05
-9.39126e-06
-1.24349e-05
-1.07846e-05
-1.22443e-05
-1.23218e-05
-1.22272e-05
-1.40465e-05
-1.22368e-05
-1.6012e-05
-1.20896e-05
-1.82806e-05
-1.15464e-05
-2.09199e-05
-1.02851e-05
-2.39857e-05
-7.87063e-06
-2.74745e-05
-3.7482e-06
-3.12118e-05
2.67671e-06
-3.47595e-05
1.17532e-05
-3.73475e-05
2.31056e-05
-3.80869e-05
3.51537e-05
-3.6313e-05
4.52664e-05
-3.20352e-05
5.07032e-05
4.98176e-05
-2.62561e-05
-1.98182e-06
-2.60237e-05
-3.84069e-06
-2.13836e-05
-5.60227e-06
-1.80014e-05
-7.30858e-06
-1.54306e-05
-8.99187e-06
-1.35011e-05
-1.06796e-05
-1.21195e-05
-1.23991e-05
-1.12015e-05
-1.41803e-05
-1.06537e-05
-1.60575e-05
-1.03672e-05
-1.80711e-05
-1.02136e-05
-2.02694e-05
-1.00385e-05
-2.27082e-05
-9.65074e-06
-2.54485e-05
-8.80613e-06
-2.85437e-05
-7.18989e-06
-3.20061e-05
-4.40827e-06
-3.57364e-05
-1.80376e-08
-3.94121e-05
6.35234e-06
-4.24173e-05
1.47584e-05
-4.39013e-05
2.45896e-05
-4.30885e-05
3.43409e-05
-3.96774e-05
4.18552e-05
-3.40802e-05
4.5106e-05
4.30292e-05
-2.72919e-05
-2.64338e-06
-2.33804e-05
-5.10774e-06
-1.89193e-05
-7.43202e-06
-1.56772e-05
-9.6634e-06
-1.31992e-05
-1.18375e-05
-1.1327e-05
-1.39839e-05
-9.97304e-06
-1.61312e-05
-9.05426e-06
-1.8309e-05
-8.47592e-06
-2.05499e-05
-8.12633e-06
-2.28901e-05
-7.87326e-06
-2.53703e-05
-7.55839e-06
-2.80323e-05
-6.98872e-06
-3.09122e-05
-5.92623e-06
-3.40203e-05
-4.08184e-06
-3.73009e-05
-1.12778e-06
-4.05662e-05
3.24723e-06
-4.34247e-05
9.2108e-06
-4.52601e-05
1.65938e-05
-4.53556e-05
2.46852e-05
-4.31804e-05
3.21656e-05
-3.86899e-05
3.73648e-05
-3.24086e-05
3.88246e-05
3.58113e-05
-2.51907e-05
-3.19931e-06
-2.01811e-05
-6.18226e-06
-1.59365e-05
-8.98983e-06
-1.28696e-05
-1.16703e-05
-1.05188e-05
-1.42586e-05
-8.7387e-06
-1.67832e-05
-7.44851e-06
-1.92696e-05
-6.56791e-06
-2.17428e-05
-6.00269e-06
-2.42283e-05
-5.64083e-06
-2.67517e-05
-5.34988e-06
-2.9337e-05
-4.97306e-06
-3.20019e-05
-4.3238e-06
-3.47465e-05
-3.18165e-06
-3.75317e-05
-1.29664e-06
-4.02443e-05
1.58472e-06
-4.26503e-05
5.65324e-06
-4.43642e-05
1.09247e-05
-4.48739e-05
1.71035e-05
-4.36671e-05
2.34783e-05
-4.04428e-05
2.89413e-05
-3.5293e-05
3.2215e-05
-2.87042e-05
3.22357e-05
2.84555e-05
-2.13484e-05
-3.6544e-06
-1.65268e-05
-7.06808e-06
-1.25229e-05
-1.02782e-05
-9.65953e-06
-1.33303e-05
-7.46687e-06
-1.62558e-05
-5.81323e-06
-1.90788e-05
-4.62551e-06
-2.18195e-05
-3.8273e-06
-2.44953e-05
-3.32686e-06
-2.71216e-05
-3.01455e-06
-2.97098e-05
-2.76163e-06
-3.22647e-05
-2.41811e-06
-3.47779e-05
-1.8107e-06
-3.72155e-05
-7.43985e-07
-3.95005e-05
9.88307e-07
-4.1486e-05
3.57015e-06
-4.29321e-05
7.09935e-06
-4.35049e-05
1.14974e-05
-4.28199e-05
1.64185e-05
-4.05457e-05
2.12042e-05
-3.65421e-05
2.49377e-05
-3.09565e-05
2.66294e-05
-2.42002e-05
2.54793e-05
2.10606e-05
-1.68052e-05
-4.01414e-06
-1.25127e-05
-7.77424e-06
-8.76281e-06
-1.13084e-05
-6.12542e-06
-1.46565e-05
-4.11886e-06
-1.78449e-05
-2.62485e-06
-2.0892e-05
-1.57852e-06
-2.38109e-05
-9.08457e-07
-2.66107e-05
-5.27057e-07
-2.92957e-05
-3.29475e-07
-3.18636e-05
-1.9377e-07
-3.4301e-05
1.93978e-08
-3.65777e-05
4.66007e-07
-3.86355e-05
1.31374e-06
-4.03739e-05
2.72671e-06
-4.16355e-05
4.83178e-06
-4.21993e-05
7.66308e-06
-4.17942e-05
1.10923e-05
-4.0145e-05
1.47693e-05
-3.70496e-05
1.81087e-05
-3.24653e-05
2.03534e-05
-2.65594e-05
2.07234e-05
-1.9685e-05
1.86049e-05
1.36677e-05
-1.2292e-05
-4.28568e-06
-8.22705e-06
-8.31278e-06
-4.73575e-06
-1.20961e-05
-2.3421e-06
-1.56685e-05
-5.46533e-07
-1.90506e-05
7.57137e-07
-2.22543e-05
1.62516e-06
-2.5286e-05
2.12318e-06
-2.81465e-05
2.33345e-06
-3.08303e-05
2.35436e-06
-3.33231e-05
2.29905e-06
-3.55978e-05
2.29411e-06
-3.76084e-05
2.47667e-06
-3.92819e-05
2.98721e-06
-4.05083e-05
3.95311e-06
-4.11344e-05
5.45784e-06
-4.09662e-05
7.49481e-06
-3.97887e-05
9.91475e-06
-3.7407e-05
1.23876e-05
-3.37034e-05
1.44051e-05
-2.86936e-05
1.53436e-05
-2.25555e-05
1.45854e-05
-1.56111e-05
1.16605e-05
6.32378e-06
-8.26718e-06
-4.47577e-06
-3.7513e-06
-8.69642e-06
-5.15123e-07
-1.26582e-05
1.61963e-06
-1.63874e-05
3.18257e-06
-1.98988e-05
4.26846e-06
-2.31987e-05
4.92502e-06
-2.62872e-05
5.21168e-06
-2.91583e-05
5.20455e-06
-3.17985e-05
4.9946e-06
-3.41846e-05
4.68517e-06
-3.62798e-05
4.38937e-06
-3.80289e-05
4.22573e-06
-3.93517e-05
4.31e-06
-4.01377e-05
4.73908e-06
-4.02442e-05
5.56432e-06
-3.95039e-05
6.7544e-06
-3.77457e-05
8.15652e-06
-3.48308e-05
9.47267e-06
-3.06968e-05
1.02711e-05
-2.53976e-05
1.00444e-05
-1.91221e-05
8.30992e-06
-1.21781e-05
4.71648e-06
-9.10709e-07
-4.94358e-06
-4.59487e-06
8.43567e-07
-8.93738e-06
3.82737e-06
-1.30095e-05
5.69168e-06
-1.6831e-05
7.00399e-06
-2.04114e-05
7.84883e-06
-2.37523e-05
8.26591e-06
-2.68489e-05
8.30828e-06
-2.96898e-05
8.04548e-06
-3.22558e-05
7.56062e-06
-3.45176e-05
6.94696e-06
-3.64324e-05
6.30423e-06
-3.79403e-05
5.7336e-06
-3.89592e-05
5.32895e-06
-3.93825e-05
5.16234e-06
-3.90799e-05
5.26156e-06
-3.79069e-05
5.58141e-06
-3.57265e-05
5.97611e-06
-3.24401e-05
6.18628e-06
-2.80242e-05
5.8552e-06
-2.25606e-05
4.58085e-06
-1.62487e-05
1.99796e-06
-9.38319e-06
-2.14898e-06
-7.98681e-06
-2.3071e-06
-4.6491e-06
5.49266e-06
-9.04403e-06
8.22228e-06
-1.31604e-05
9.808e-06
-1.7012e-05
1.08555e-05
-2.06041e-05
1.14409e-05
-2.39345e-05
1.15964e-05
-2.69949e-05
1.13686e-05
-2.977e-05
1.08206e-05
-3.22367e-05
1.00274e-05
-3.4362e-05
9.07228e-06
-3.60999e-05
8.04221e-06
-3.73886e-05
7.02229e-06
-3.81471e-05
6.08738e-06
-3.82741e-05
5.28928e-06
-3.76514e-05
4.63883e-06
-3.61547e-05
4.08478e-06
-3.36743e-05
3.4957e-06
-3.01429e-05
2.65492e-06
-2.55673e-05
1.27955e-06
-2.00486e-05
-9.37778e-07
-1.37889e-05
-4.26178e-06
-7.05806e-06
-8.87982e-06
-1.48916e-05
-1.53314e-07
-4.6383e-06
1.0131e-05
-9.0202e-06
1.26041e-05
-1.31166e-05
1.39044e-05
-1.69374e-05
1.46763e-05
-2.04849e-05
1.49883e-05
-2.37544e-05
1.48659e-05
-2.67351e-05
1.43493e-05
-2.94095e-05
1.3495e-05
-3.17522e-05
1.23701e-05
-3.37278e-05
1.1048e-05
-3.5289e-05
9.60339e-06
-3.63734e-05
8.10678e-06
-3.69025e-05
6.61639e-06
-3.67809e-05
5.16773e-06
-3.59023e-05
3.76019e-06
-3.41604e-05
2.34292e-06
-3.14695e-05
8.04763e-07
-2.77886e-05
-1.02596e-06
-2.31465e-05
-3.36255e-06
-1.76548e-05
-6.42948e-06
-1.14992e-05
-1.04173e-05
-4.91915e-06
-1.54599e-05
-2.16417e-05
1.83099e-06
-4.5624e-06
1.46933e-05
-8.86626e-06
1.69079e-05
-1.28784e-05
1.79165e-05
-1.66068e-05
1.84047e-05
-2.00523e-05
1.84338e-05
-2.3209e-05
1.80226e-05
-2.60649e-05
1.72053e-05
-2.86014e-05
1.60315e-05
-3.07916e-05
1.45604e-05
-3.25993e-05
1.28556e-05
-3.39761e-05
1.09803e-05
-3.48606e-05
8.99129e-06
-3.51768e-05
6.93251e-06
-3.48359e-05
4.82683e-06
-3.3743e-05
2.66727e-06
-3.18093e-05
4.09273e-07
-2.89707e-05
-2.0338e-06
-2.52072e-05
-4.78949e-06
-2.05583e-05
-8.01149e-06
-1.51314e-05
-1.18563e-05
-9.09315e-06
-1.64555e-05
-2.65104e-06
-2.19019e-05
-2.82674e-05
3.9747e-06
-4.42025e-06
1.91136e-05
-8.57858e-06
2.10662e-05
-1.24399e-05
2.17778e-05
-1.60118e-05
2.19765e-05
-1.92951e-05
2.17171e-05
-2.22839e-05
2.10115e-05
-2.49663e-05
1.98877e-05
-2.7323e-05
1.83883e-05
-2.9327e-05
1.65644e-05
-3.09414e-05
1.447e-05
-3.2118e-05
1.21569e-05
-3.27963e-05
9.66956e-06
-3.29035e-05
7.03974e-06
-3.23579e-05
4.28125e-06
-3.10761e-05
1.38551e-06
-2.8986e-05
-1.68085e-06
-2.60406e-05
-4.97916e-06
-2.22318e-05
-8.59834e-06
-1.76014e-05
-1.26418e-05
-1.22465e-05
-1.72112e-05
-6.31313e-06
-2.23888e-05
1.81054e-08
-2.82331e-05
-3.48051e-05
6.55585e-06
-4.20802e-06
2.33215e-05
-8.14937e-06
2.50074e-05
-1.17893e-05
2.54177e-05
-1.51366e-05
2.53238e-05
-1.81933e-05
2.47739e-05
-2.09548e-05
2.37731e-05
-2.34098e-05
2.23428e-05
-2.55399e-05
2.05184e-05
-2.7318e-05
1.83426e-05
-2.87076e-05
1.58596e-05
-2.96609e-05
1.31102e-05
-3.0119e-05
1.01277e-05
-3.00132e-05
6.93393e-06
-2.92689e-05
3.53696e-06
-2.7814e-05
-6.93728e-08
-2.55903e-05
-3.90452e-06
-2.25616e-05
-8.0079e-06
-1.87248e-05
-1.24352e-05
-1.41185e-05
-1.7248e-05
-8.82685e-06
-2.25028e-05
-2.97577e-06
-2.82399e-05
3.27674e-06
-3.44856e-05
-4.12878e-05
9.75948e-06
-3.91973e-06
2.72412e-05
-7.5669e-06
2.86545e-05
-1.09095e-05
2.87603e-05
-1.39587e-05
2.8373e-05
-1.67192e-05
2.75344e-05
-1.91887e-05
2.62426e-05
-2.13578e-05
2.45119e-05
-2.32092e-05
2.237e-05
-2.47173e-05
1.98507e-05
-2.5846e-05
1.69883e-05
-2.6549e-05
1.38133e-05
-2.67697e-05
1.03485e-05
-2.64438e-05
6.60805e-06
-2.5504e-05
2.5971e-06
-2.38881e-05
-1.68517e-06
-2.15475e-05
-6.24514e-06
-1.84512e-05
-1.11042e-05
-1.45964e-05
-1.62899e-05
-1.00146e-05
-2.18298e-05
-4.7756e-06
-2.77417e-05
1.01229e-06
-3.40277e-05
7.20999e-06
-4.06834e-05
-4.77442e-05
1.36663e-05
-3.54734e-06
3.07885e-05
-6.81591e-06
3.19231e-05
-9.77845e-06
3.17228e-05
-1.245e-05
3.10445e-05
-1.4839e-05
2.99235e-05
-1.69466e-05
2.83503e-05
-1.87665e-05
2.63317e-05
-2.02838e-05
2.38873e-05
-2.14747e-05
2.10416e-05
-2.2305e-05
1.78187e-05
-2.27303e-05
1.42387e-05
-2.26973e-05
1.03155e-05
-2.21461e-05
6.05691e-06
-2.10161e-05
1.46713e-06
-1.92534e-05
-3.44791e-06
-1.68134e-05
-8.6851e-06
-1.36672e-05
-1.42504e-05
-9.80807e-06
-2.01489e-05
-5.25797e-06
-2.63798e-05
-7.20911e-08
-3.29276e-05
5.6594e-06
-3.97592e-05
1.1817e-05
-4.6841e-05
-5.4187e-05
1.82598e-05
-3.08073e-06
3.38692e-05
-5.87781e-06
3.47202e-05
-8.37003e-06
3.42151e-05
-1.05774e-05
3.32519e-05
-1.25138e-05
3.18599e-05
-1.41851e-05
3.00215e-05
-1.5589e-05
2.77357e-05
-1.67145e-05
2.50129e-05
-1.75407e-05
2.18679e-05
-1.80363e-05
1.83143e-05
-1.81598e-05
1.43621e-05
-1.78611e-05
1.00169e-05
-1.70852e-05
5.28107e-06
-1.5777e-05
1.58922e-07
-1.38875e-05
-5.33735e-06
-1.13736e-05
-1.1199e-05
-8.20478e-06
-1.74192e-05
-4.36808e-06
-2.39856e-05
1.26122e-07
-3.08739e-05
5.23911e-06
-3.80406e-05
1.09023e-05
-4.54224e-05
1.70141e-05
-5.29529e-05
-6.06126e-05
2.34397e-05
-2.50704e-06
3.63762e-05
-4.73074e-06
3.69439e-05
-6.65426e-06
3.61386e-05
-8.30417e-06
3.49019e-05
-9.70118e-06
3.32569e-05
-1.08575e-05
3.11779e-05
-1.17766e-05
2.86549e-05
-1.24524e-05
2.56888e-05
-1.28683e-05
2.22838e-05
-1.29968e-05
1.84428e-05
-1.27999e-05
1.41653e-05
-1.22313e-05
9.44839e-06
-1.124e-05
4.2898e-06
-9.77517e-06
-1.30592e-06
-7.78976e-06
-7.32277e-06
-5.23986e-06
-1.37489e-05
-2.09124e-06
-2.05678e-05
1.6771e-06
-2.77539e-05
6.06891e-06
-3.52657e-05
1.1067e-05
-4.30386e-05
1.66256e-05
-5.09811e-05
2.26599e-05
-5.89872e-05
-6.69915e-05
2.90388e-05
-1.80885e-06
3.81851e-05
-3.34948e-06
3.84846e-05
-4.59774e-06
3.73869e-05
-5.58996e-06
3.58941e-05
-6.35596e-06
3.40229e-05
-6.91587e-06
3.17379e-05
-7.28038e-06
2.90195e-05
-7.44993e-06
2.58584e-05
-7.41363e-06
2.22475e-05
-7.14874e-06
1.81779e-05
-6.62133e-06
1.36379e-05
-5.78855e-06
8.61564e-06
-4.60234e-06
3.10361e-06
-3.01447e-06
-2.8938e-06
-9.77215e-07
-9.36006e-06
1.55492e-06
-1.62811e-05
4.62163e-06
-2.36345e-05
8.25509e-06
-3.13873e-05
1.24771e-05
-3.94877e-05
1.72927e-05
-4.78542e-05
2.26786e-05
-5.63671e-05
2.8568e-05
-6.48766e-05
-7.32598e-05
3.48362e-05
-9.61092e-07
3.91462e-05
-1.70688e-06
3.92304e-05
-2.16386e-06
3.78439e-05
-2.39236e-06
3.61226e-05
-2.43205e-06
3.40627e-05
-2.31241e-06
3.16183e-05
-2.05307e-06
2.87602e-05
-1.66267e-06
2.54681e-05
-1.1375e-06
2.17224e-05
-4.60654e-07
1.75011e-05
3.97482e-07
1.27798e-05
1.47707e-06
7.53608e-06
2.82484e-06
1.75584e-06
4.48884e-06
-4.55782e-06
6.51955e-06
-1.13908e-05
8.9661e-06
-1.87276e-05
1.18754e-05
-2.65438e-05
1.52908e-05
-3.48027e-05
1.92499e-05
-4.3447e-05
2.37798e-05
-5.23842e-05
2.88829e-05
-6.14702e-05
3.45155e-05
-7.05091e-05
-7.93097e-05
4.05654e-05
1.11979e-08
3.91351e-05
2.32513e-07
3.90091e-05
6.87143e-07
3.73893e-05
1.33094e-06
3.54788e-05
2.11455e-06
3.32791e-05
2.99718e-06
3.07357e-05
3.94836e-06
2.78091e-05
4.94912e-06
2.44673e-05
5.99411e-06
2.06774e-05
7.09345e-06
1.64017e-05
8.27295e-06
1.16003e-05
9.57176e-06
6.23728e-06
1.10376e-05
2.8996e-07
1.27215e-05
-6.24172e-06
1.4678e-05
-1.33473e-05
1.69602e-05
-2.10097e-05
1.96195e-05
-2.92031e-05
2.27073e-05
-3.78906e-05
2.62758e-05
-4.70156e-05
3.03742e-05
-5.64825e-05
3.50347e-05
-6.61307e-05
4.02448e-05
-7.57192e-05
-8.49807e-05
4.59159e-05
1.3751e-06
3.776e-05
2.53777e-06
3.78464e-05
4.00061e-06
3.59264e-05
5.62316e-06
3.38563e-05
7.32754e-06
3.15747e-05
9.05797e-06
2.90053e-05
1.07702e-05
2.60969e-05
1.24317e-05
2.28058e-05
1.40252e-05
1.90839e-05
1.55526e-05
1.48744e-05
1.70363e-05
1.01166e-05
1.85168e-05
4.7568e-06
2.00459e-05
-1.23914e-06
2.1681e-05
-7.87684e-06
2.34814e-05
-1.51477e-05
2.5502e-05
-2.30303e-05
2.77953e-05
-3.14965e-05
3.04159e-05
-4.05113e-05
3.34261e-05
-5.00259e-05
3.68975e-05
-5.9954e-05
4.08983e-05
-7.01314e-05
4.54589e-05
-8.02797e-05
-9.00519e-05
5.05301e-05
2.89373e-06
3.48662e-05
5.22683e-06
3.55133e-05
7.81878e-06
3.33345e-05
1.05288e-05
3.11463e-05
1.32542e-05
2.88493e-05
1.59213e-05
2.63382e-05
1.8468e-05
2.35502e-05
2.08429e-05
2.04309e-05
2.30119e-05
1.69149e-05
2.49661e-05
1.29202e-05
2.67252e-05
8.35752e-06
2.83345e-05
3.14752e-06
2.98549e-05
-2.75957e-06
3.13546e-05
-9.37648e-06
3.28974e-05
-1.66905e-05
3.45377e-05
-2.46707e-05
3.63227e-05
-3.32815e-05
3.83022e-05
-4.24909e-05
4.05423e-05
-5.2266e-05
4.31362e-05
-6.25478e-05
4.61959e-05
-7.31911e-05
4.9812e-05
-8.38958e-05
-9.42367e-05
5.39968e-05
4.5993e-06
3.02669e-05
8.3298e-06
3.17828e-05
1.21863e-05
2.94779e-05
1.60954e-05
2.72372e-05
1.99447e-05
2.50001e-05
2.36425e-05
2.26404e-05
2.71031e-05
2.00895e-05
3.02476e-05
1.72864e-05
3.30164e-05
1.41461e-05
3.53852e-05
1.05514e-05
3.73724e-05
6.3703e-06
3.90338e-05
1.4861e-06
4.04479e-05
-4.17365e-06
4.1699e-05
-1.06276e-05
4.2858e-05
-1.78495e-05
4.39741e-05
-2.57868e-05
4.50799e-05
-3.43874e-05
4.62085e-05
-4.36195e-05
4.74193e-05
-5.34769e-05
4.88251e-05
-6.39536e-05
5.0594e-05
-7.496e-05
5.29006e-05
-8.62024e-05
-9.71835e-05
5.58475e-05
6.47011e-06
2.37968e-05
1.18627e-05
2.63903e-05
1.71391e-05
2.42015e-05
2.23634e-05
2.20128e-05
2.74431e-05
1.99204e-05
3.22732e-05
1.78103e-05
3.67363e-05
1.56264e-05
4.07112e-05
1.33115e-05
4.40982e-05
1.07592e-05
4.68506e-05
7.79899e-06
4.89883e-05
4.23258e-06
5.05874e-05
-1.13089e-07
5.1758e-05
-5.34424e-06
5.26113e-05
-1.14809e-05
5.32287e-05
-1.84669e-05
5.36487e-05
-2.62068e-05
5.3876e-05
-3.46147e-05
5.39096e-05
-4.36532e-05
5.37857e-05
-5.33529e-05
5.36333e-05
-6.38011e-05
5.36949e-05
-7.50216e-05
5.42644e-05
-8.67719e-05
-9.84863e-05
5.55672e-05
8.46061e-06
1.53362e-05
1.58097e-05
1.90412e-05
2.26849e-05
1.73264e-05
2.93477e-05
1.53499e-05
3.57706e-05
1.34974e-05
4.18461e-05
1.17349e-05
4.74139e-05
1.00587e-05
5.22864e-05
8.43899e-06
5.62986e-05
6.74691e-06
5.93709e-05
4.72666e-06
6.15314e-05
2.07208e-06
6.28939e-05
-1.47566e-06
6.3625e-05
-6.07536e-06
6.3881e-05
-1.17368e-05
6.37614e-05
-1.83472e-05
6.32863e-05
-2.57317e-05
6.24143e-05
-3.37428e-05
6.10858e-05
-4.23247e-05
5.92872e-05
-5.15544e-05
5.71579e-05
-6.16718e-05
5.50451e-05
-7.29089e-05
5.34129e-05
-8.51397e-05
-9.77169e-05
5.26435e-05
1.04846e-05
4.85164e-06
2.00942e-05
9.43171e-06
2.87709e-05
8.64971e-06
3.70041e-05
7.1167e-06
4.48926e-05
5.60893e-06
5.23445e-05
4.28297e-06
5.914e-05
3.26324e-06
6.49856e-05
2.59341e-06
6.96074e-05
2.12506e-06
7.28779e-05
1.45609e-06
7.48493e-05
1.0065e-07
7.57113e-05
-2.33772e-06
7.57195e-05
-6.08352e-06
7.51132e-05
-1.11305e-05
7.40224e-05
-1.72565e-05
7.24378e-05
-2.4147e-05
7.02466e-05
-3.15516e-05
6.72986e-05
-3.93766e-05
6.34868e-05
-4.77426e-05
5.89481e-05
-5.71331e-05
5.41844e-05
-6.81451e-05
4.99069e-05
-8.08622e-05
-9.44943e-05
4.66843e-05
1.24016e-05
-7.54995e-06
2.45337e-05
-2.70031e-06
3.52225e-05
-2.03901e-06
4.51629e-05
-2.82366e-06
5.46508e-05
-3.87905e-06
6.36345e-05
-4.70069e-06
7.18112e-05
-4.91342e-06
7.87138e-05
-4.30923e-06
8.38828e-05
-3.04402e-06
8.71283e-05
-1.78942e-06
8.85668e-05
-1.33787e-06
8.85214e-05
-2.29236e-06
8.74085e-05
-4.97059e-06
8.5605e-05
-9.3271e-06
8.32902e-05
-1.49418e-05
8.0404e-05
-2.12608e-05
7.67305e-05
-2.7878e-05
7.19939e-05
-3.464e-05
6.59129e-05
-4.16616e-05
5.85936e-05
-4.98138e-05
5.07714e-05
-6.03229e-05
4.35223e-05
-7.36131e-05
-8.86e-05
3.7628e-05
1.39993e-05
-2.15492e-05
2.88077e-05
-1.75086e-05
4.1657e-05
-1.48883e-05
5.34237e-05
-1.45903e-05
6.46355e-05
-1.50908e-05
7.53105e-05
-1.53757e-05
8.50468e-05
-1.46497e-05
9.30987e-05
-1.23611e-05
9.86464e-05
-8.5917e-06
0.000101467
-4.61053e-06
0.000101838
-1.70796e-06
0.000100295
-7.4967e-07
9.75366e-05
-2.21246e-06
9.41697e-05
-5.9602e-06
9.043e-05
-1.12021e-05
8.6159e-05
-1.69897e-05
8.10045e-05
-2.27235e-05
7.45596e-05
-2.81951e-05
6.62105e-05
-3.33126e-05
5.59383e-05
-3.95415e-05
4.48111e-05
-4.91958e-05
3.45095e-05
-6.33117e-05
-8.01539e-05
2.60634e-05
1.51699e-05
-3.67191e-05
3.23285e-05
-3.4667e-05
4.73388e-05
-2.98986e-05
6.08932e-05
-2.81446e-05
7.37823e-05
-2.79799e-05
8.61667e-05
-2.77601e-05
9.76289e-05
-2.61119e-05
0.000106938
-2.16702e-05
0.000112518
-1.41715e-05
0.000114253
-6.34581e-06
0.000112787
-2.42031e-07
0.00010906
2.97771e-06
0.000104121
2.72637e-06
9.89536e-05
-7.93052e-07
9.38124e-05
-6.06091e-06
8.83203e-05
-1.14976e-05
8.19953e-05
-1.63986e-05
7.44361e-05
-2.06359e-05
6.44523e-05
-2.33288e-05
5.14856e-05
-2.65749e-05
3.70466e-05
-3.47568e-05
2.41137e-05
-5.03787e-05
-6.9991e-05
1.39509e-05
1.59779e-05
-5.26969e-05
3.47954e-05
-5.34844e-05
5.11174e-05
-4.62205e-05
6.56575e-05
-4.26846e-05
7.94443e-05
-4.17667e-05
9.29628e-05
-4.12786e-05
0.000106093
-3.92422e-05
0.000116836
-3.24135e-05
0.000121828
-1.91636e-05
0.000121618
-6.1354e-06
0.000117706
3.6696e-06
0.000111347
9.33678e-06
0.000104155
9.91848e-06
9.75083e-05
5.85376e-06
9.15042e-05
-5.67726e-08
8.53326e-05
-5.32602e-06
7.85409e-05
-9.60689e-06
7.13035e-05
-1.33986e-05
6.16332e-05
-1.36586e-05
4.72231e-05
-1.21648e-05
3.04119e-05
-1.79457e-05
1.67133e-05
-3.66802e-05
-5.92951e-05
6.01732e-06
1.8082e-05
-7.07788e-05
3.61933e-05
-7.15957e-05
5.09294e-05
-6.09566e-05
6.37427e-05
-5.54978e-05
7.61502e-05
-5.41743e-05
8.90993e-05
-5.42277e-05
0.000103215
-5.33576e-05
0.000115489
-4.46876e-05
0.000118925
-2.25997e-05
0.000116088
-3.2988e-06
0.000110046
9.71151e-06
0.000102271
1.71118e-05
9.44254e-05
1.77644e-05
8.79253e-05
1.23539e-05
8.21849e-05
5.68362e-06
7.6211e-05
6.47871e-07
6.97499e-05
-3.1459e-06
6.58505e-05
-9.49922e-06
6.07616e-05
-8.56964e-06
4.95666e-05
-9.6987e-07
3.51563e-05
-3.53554e-06
2.19591e-05
-2.34829e-05
-4.45015e-05
7.16545e-06
2.23175e-05
-9.30962e-05
3.44167e-05
-8.36949e-05
4.30108e-05
-6.95506e-05
5.05763e-05
-6.30633e-05
5.83924e-05