/*--------------------------------*- C++ -*----------------------------------*\
  =========                 |
  \\      /  F ield         | OpenFOAM: The Open Source CFD Toolbox
   \\    /   O peration     | Website:  https://openfoam.org
    \\  /    A nd           | Version:  9
     \\/     M anipulation  |
\*---------------------------------------------------------------------------*/
FoamFile
{
    format      ascii;
    class       volVectorField;
    location    "1";
    object      U;
}
// * * * * * * * * * * * * * * * * * * * * * * * * * * * * * * * * * * * * * //

dimensions      [0 1 -1 0 0 0 0];

internalField   nonuniform List<vector> 
2268
(
(0.0101116 -0.00538564 0)
(0.0346611 -0.013599 0)
(0.0696598 -0.013218 0)
(0.102257 -0.00994836 0)
(0.127762 -0.00775403 0)
(0.149087 -0.00651587 0)
(0.168402 -0.00601112 0)
(0.187018 -0.00598839 0)
(0.205856 -0.00623322 0)
(0.225492 -0.0066115 0)
(0.246195 -0.00703193 0)
(0.267957 -0.00740818 0)
(0.290471 -0.00763932 0)
(0.313051 -0.00759074 0)
(0.334472 -0.00707334 0)
(0.352742 -0.00578449 0)
(0.364944 -0.00301373 0)
(0.365384 0.00238083 0)
(0.343272 0.0112556 0)
(0.289369 0.0229029 0)
(0.19813 0.0336518 0)
(0.074528 0.0328426 0)
(-0.00105109 0.00751112 0)
(0.0173008 -0.014558 0)
(0.0446428 -0.0226162 0)
(0.0744218 -0.0231013 0)
(0.100723 -0.0200905 0)
(0.123345 -0.0169817 0)
(0.143555 -0.0149053 0)
(0.162352 -0.0139287 0)
(0.180571 -0.0137698 0)
(0.198915 -0.0141365 0)
(0.217881 -0.0148004 0)
(0.237735 -0.0155643 0)
(0.258492 -0.0162204 0)
(0.279876 -0.0165181 0)
(0.301239 -0.016126 0)
(0.32144 -0.0145874 0)
(0.338736 -0.0112432 0)
(0.35047 -0.00496338 0)
(0.354566 0.00594938 0)
(0.349121 0.0233275 0)
(0.326066 0.0474643 0)
(0.270712 0.0726595 0)
(0.156284 0.0766257 0)
(0.0368183 0.0313257 0)
(0.0207708 -0.0306879 0)
(0.0487844 -0.0376199 0)
(0.0746234 -0.0348692 0)
(0.0972031 -0.0301594 0)
(0.117434 -0.0260402 0)
(0.136133 -0.0233179 0)
(0.153843 -0.0219863 0)
(0.171124 -0.02175 0)
(0.188511 -0.0222731 0)
(0.206417 -0.0232502 0)
(0.225074 -0.0243894 0)
(0.244494 -0.0253696 0)
(0.264418 -0.0257968 0)
(0.284234 -0.0251538 0)
(0.302875 -0.0227463 0)
(0.318718 -0.0176392 0)
(0.329406 -0.00859699 0)
(0.332144 0.00622586 0)
(0.324561 0.029464 0)
(0.303479 0.0632852 0)
(0.264125 0.104566 0)
(0.183113 0.127342 0)
(0.0686112 0.0872719 0)
(0.0209706 -0.0465994 0)
(0.0488493 -0.0510628 0)
(0.0723292 -0.0456293 0)
(0.0926369 -0.0396358 0)
(0.111061 -0.0347393 0)
(0.128354 -0.0315021 0)
(0.144914 -0.0298833 0)
(0.161155 -0.0295863 0)
(0.177497 -0.0302469 0)
(0.194283 -0.0314995 0)
(0.211713 -0.0329675 0)
(0.229796 -0.0342223 0)
(0.248291 -0.0347303 0)
(0.266633 -0.0337932 0)
(0.283833 -0.0304852 0)
(0.298381 -0.0235955 0)
(0.308136 -0.0115941 0)
(0.310388 0.00752929 0)
(0.30243 0.0363652 0)
(0.28162 0.0775026 0)
(0.246165 0.130341 0)
(0.184227 0.171632 0)
(0.0842113 0.148164 0)
(0.0199656 -0.0621438 0)
(0.0467653 -0.0636021 0)
(0.0684182 -0.0555818 0)
(0.087132 -0.0484209 0)
(0.104122 -0.0428831 0)
(0.120135 -0.0392358 0)
(0.135545 -0.0373894 0)
(0.150696 -0.0370473 0)
(0.165935 -0.0378286 0)
(0.181552 -0.039321 0)
(0.197721 -0.0410756 0)
(0.214453 -0.0425659 0)
(0.231534 -0.0431284 0)
(0.248452 -0.0418947 0)
(0.264309 -0.0377215 0)
(0.277718 -0.0291362 0)
(0.286719 -0.0143234 0)
(0.288802 0.0089069 0)
(0.281298 0.0431143 0)
(0.261738 0.0907663 0)
(0.228422 0.152163 0)
(0.176242 0.208922 0)
(0.0895654 0.20895 0)
(0.0185694 -0.0768321 0)
(0.0436599 -0.0751649 0)
(0.063577 -0.0647709 0)
(0.0809513 -0.0565204 0)
(0.0966922 -0.0504018 0)
(0.111508 -0.0463993 0)
(0.125774 -0.0443601 0)
(0.139802 -0.0439791 0)
(0.15389 -0.0448613 0)
(0.16829 -0.0465579 0)
(0.183158 -0.048559 0)
(0.198511 -0.0502521 0)
(0.214167 -0.0508573 0)
(0.229679 -0.0493509 0)
(0.244247 -0.0443889 0)
(0.256615 -0.0342549 0)
(0.264993 -0.0168693 0)
(0.267075 0.0101428 0)
(0.26035 0.0493212 0)
(0.24258 0.102932 0)
(0.211931 0.171505 0)
(0.166586 0.241471 0)
(0.0904053 0.26858 0)
(0.0170711 -0.0905842 0)
(0.0401184 -0.0857423 0)
(0.0582575 -0.0732617 0)
(0.0743405 -0.0640107 0)
(0.0888929 -0.0573359 0)
(0.102538 -0.0529961 0)
(0.115652 -0.050775 0)
(0.128522 -0.0503496 0)
(0.141413 -0.0513098 0)
(0.154548 -0.053176 0)
(0.16807 -0.0553873 0)
(0.182004 -0.0572571 0)
(0.196207 -0.057903 0)
(0.210302 -0.0561618 0)
(0.223593 -0.0505054 0)
(0.234962 -0.0389892 0)
(0.242785 -0.0192878 0)
(0.244955 0.0111508 0)
(0.23917 0.0548415 0)
(0.223516 0.113822 0)
(0.196397 0.188608 0)
(0.158376 0.270101 0)
(0.090698 0.325847 0)
(0.0155499 -0.103412 0)
(0.0363875 -0.0953864 0)
(0.052706 -0.0811114 0)
(0.0674692 -0.0709494 0)
(0.0808308 -0.0637343 0)
(0.0932989 -0.0590594 0)
(0.105237 -0.0566521 0)
(0.116913 -0.0561666 0)
(0.128562 -0.057176 0)
(0.140382 -0.0591746 0)
(0.152507 -0.0615591 0)
(0.164973 -0.0635812 0)
(0.177676 -0.0642707 0)
(0.190313 -0.0623414 0)
(0.202298 -0.0560977 0)
(0.212656 -0.0433814 0)
(0.219929 -0.0216355 0)
(0.2222 0.0118484 0)
(0.217425 0.059523 0)
(0.204097 0.123098 0)
(0.18142 0.202835 0)
(0.152402 0.293721 0)
(0.0912711 0.384136 0)
(0.0506442 -0.0292726 0)
(0.0936297 -0.0033657 0)
(0.0513869 0.0143044 0)
(-0.0188965 0.0221214 0)
(-0.0702425 0.0139675 0)
(-0.0792771 -0.000532104 0)
(-0.0488324 -0.0134697 0)
(0.00674343 -0.0221275 0)
(0.0801464 -0.0272413 0)
(0.165411 -0.0298403 0)
(0.257509 -0.030626 0)
(0.352041 -0.0305645 0)
(0.443671 -0.0290391 0)
(0.520402 -0.0227666 0)
(0.564925 0.00275338 0)
(0.502059 0.0411062 0)
(0.309377 0.069332 0)
(0.010728 0.0568103 0)
(-0.122037 -0.0378413 0)
(0.0273205 -0.0456035 0)
(0.0446952 0.0104286 0)
(-0.0120479 0.0347165 0)
(-0.0529812 0.0345849 0)
(-0.0686371 0.0157328 0)
(-0.0531096 -0.00856828 0)
(-0.0147811 -0.0291739 0)
(0.0426673 -0.0437106 0)
(0.114567 -0.0527832 0)
(0.196192 -0.0589198 0)
(0.282573 -0.0625079 0)
(0.369791 -0.0626778 0)
(0.453772 -0.0576776 0)
(0.524894 -0.0419071 0)
(0.566201 0.00484791 0)
(0.560777 0.0832017 0)
(0.449176 0.148497 0)
(0.182206 0.143503 0)
(0.00966123 -0.0131537 0)
(-0.00674396 -0.0563706 0)
(-0.00636704 0.023852 0)
(-0.0516081 0.0479828 0)
(-0.0664682 0.0389123 0)
(-0.0607243 0.0107279 0)
(-0.0343275 -0.0215924 0)
(0.00847588 -0.048924 0)
(0.0665452 -0.0690276 0)
(0.136282 -0.082841 0)
(0.213062 -0.0920911 0)
(0.293426 -0.095917 0)
(0.374177 -0.0957187 0)
(0.450649 -0.0875238 0)
(0.514199 -0.064182 0)
(0.551247 -0.00379569 0)
(0.548437 0.0994946 0)
(0.476686 0.211609 0)
(0.27558 0.228183 0)
(0.0921669 0.0488287 0)
(-0.0320641 -0.0442769 0)
(-0.0426574 0.0356219 0)
(-0.0725544 0.055299 0)
(-0.0709699 0.0375099 0)
(-0.052608 0.00177463 0)
(-0.0190704 -0.0371277 0)
(0.0270961 -0.0703675 0)
(0.0854938 -0.0954024 0)
(0.15189 -0.113154 0)
(0.223913 -0.123903 0)
(0.300721 -0.128444 0)
(0.377326 -0.125932 0)
(0.446992 -0.114196 0)
(0.500773 -0.0824299 0)
(0.528638 -0.0090693 0)
(0.523142 0.113794 0)
(0.472836 0.258361 0)
(0.322692 0.305005 0)
(0.140272 0.134817 0)
(-0.0496104 -0.0251327 0)
(-0.065985 0.0465067 0)
(-0.0827825 0.0573699 0)
(-0.0706843 0.0312891 0)
(-0.0441387 -0.0107082 0)
(-0.00549516 -0.0548473 0)
(0.043314 -0.0927612 0)
(0.100448 -0.122343 0)
(0.16307 -0.141605 0)
(0.233194 -0.154654 0)
(0.308547 -0.159554 0)
(0.381907 -0.155717 0)
(0.444541 -0.138485 0)
(0.487362 -0.0967714 0)
(0.504822 -0.0108064 0)
(0.491711 0.12812 0)
(0.449871 0.295044 0)
(0.332486 0.376827 0)
(0.159413 0.230557 0)
(-0.0615528 0.000290898 0)
(-0.0797877 0.0557049 0)
(-0.0862084 0.0554229 0)
(-0.0671409 0.02166 0)
(-0.0350312 -0.0256822 0)
(0.00732607 -0.0740499 0)
(0.0576416 -0.115512 0)
(0.112078 -0.147076 0)
(0.172876 -0.169568 0)
(0.243434 -0.185048 0)
(0.319195 -0.191043 0)
(0.388618 -0.184317 0)
(0.441467 -0.159447 0)
(0.474829 -0.108253 0)
(0.486648 -0.0112566 0)
(0.462722 0.141979 0)
(0.416701 0.328214 0)
(0.323008 0.438407 0)
(0.173496 0.333685 0)
(-0.0704765 0.0293466 0)
(-0.0865969 0.0626763 0)
(-0.0848123 0.0505587 0)
(-0.0610449 0.00981342 0)
(-0.0251792 -0.0422725 0)
(0.0197757 -0.0940599 0)
(0.0693362 -0.137974 0)
(0.122688 -0.170858 0)
(0.184126 -0.197219 0)
(0.2567 -0.216702 0)
(0.331443 -0.22224 0)
(0.393196 -0.208453 0)
(0.436156 -0.175323 0)
(0.461579 -0.116098 0)
(0.468787 -0.00815463 0)
(0.441615 0.160033 0)
(0.382753 0.356594 0)
(0.302693 0.489033 0)
(0.17459 0.431703 0)
(-0.0800651 0.0648157 0)
(-0.0872998 0.0670849 0)
(-0.0797668 0.0435091 0)
(-0.0530002 -0.00351327 0)
(-0.0147796 -0.0598479 0)
(0.0313408 -0.114271 0)
(0.0797784 -0.159112 0)
(0.133231 -0.195256 0)
(0.197904 -0.226148 0)
(0.271325 -0.248614 0)
(0.340983 -0.249879 0)
(0.394905 -0.228654 0)
(0.429006 -0.187501 0)
(0.447782 -0.121115 0)
(0.450998 -0.00394571 0)
(0.4244 0.179145 0)
(0.357041 0.388315 0)
(0.277595 0.536471 0)
(0.167524 0.524275 0)
(0.0129731 -0.120677 0)
(0.0304187 -0.108595 0)
(0.0438385 -0.0923025 0)
(0.0564187 -0.0809152 0)
(0.0678424 -0.0729165 0)
(0.0784113 -0.0677347 0)
(0.0884451 -0.065026 0)
(0.0981754 -0.0644126 0)
(0.107794 -0.0654433 0)
(0.117461 -0.0675794 0)
(0.127293 -0.0701668 0)
(0.137345 -0.0723817 0)
(0.147574 -0.0731444 0)
(0.157794 -0.0710093 0)
(0.167601 -0.0640512 0)
(0.176261 -0.0498017 0)
(0.182598 -0.0253496 0)
(0.185 0.0122436 0)
(0.181766 0.0651674 0)
(0.172254 0.134162 0)
(0.158442 0.217949 0)
(0.149704 0.312492 0)
(0.157275 0.421999 0)
(0.00920942 -0.139448 0)
(0.0220606 -0.12197 0)
(0.0313354 -0.103985 0)
(0.0403985 -0.0913445 0)
(0.048612 -0.0824401 0)
(0.0561051 -0.0766248 0)
(0.0630956 -0.0734939 0)
(0.0697437 -0.0726356 0)
(0.0761765 -0.0735732 0)
(0.0825021 -0.0757405 0)
(0.0888072 -0.0784472 0)
(0.0951505 -0.0808165 0)
(0.101548 -0.0816863 0)
(0.107945 -0.0794747 0)
(0.114148 -0.0720272 0)
(0.119718 -0.0565153 0)
(0.123814 -0.0295591 0)
(0.125148 0.012116 0)
(0.122237 0.070266 0)
(0.114736 0.143649 0)
(0.104993 0.227456 0)
(0.0954823 0.314442 0)
(0.124095 0.382451 0)
(0.00528801 -0.152148 0)
(0.0135579 -0.130308 0)
(0.0187241 -0.111606 0)
(0.0240155 -0.0981799 0)
(0.0286969 -0.0885962 0)
(0.0328096 -0.0822455 0)
(0.036469 -0.0787015 0)
(0.0397553 -0.0775316 0)
(0.0427244 -0.078243 0)
(0.0454183 -0.0802563 0)
(0.0478686 -0.082868 0)
(0.0500973 -0.085185 0)
(0.0521147 -0.0860166 0)
(0.0539059 -0.0837171 0)
(0.0553867 -0.0759893 0)
(0.0563006 -0.0597142 0)
(0.0560647 -0.0310409 0)
(0.0536566 0.0137709 0)
(0.0477166 0.0762948 0)
(0.0378258 0.153327 0)
(0.0261561 0.236262 0)
(0.0100046 0.311775 0)
(0.0380648 0.344537 0)
(0.00137968 -0.158929 0)
(0.0052457 -0.134082 0)
(0.00642826 -0.115182 0)
(0.00786612 -0.101268 0)
(0.00889691 -0.0911921 0)
(0.00950968 -0.0843982 0)
(0.00972816 -0.0804515 0)
(0.00955309 -0.0789032 0)
(0.00896457 -0.0792463 0)
(0.00792657 -0.0808903 0)
(0.00638854 -0.0831235 0)
(0.0042884 -0.0850476 0)
(0.0015505 -0.085465 0)
(-0.00191713 -0.0827064 0)
(-0.00624568 -0.0743962 0)
(-0.01168 -0.0572083 0)
(-0.018667 -0.0268822 0)
(-0.0278233 0.020821 0)
(-0.0394595 0.0873832 0)
(-0.0528751 0.167642 0)
(-0.0655757 0.24887 0)
(-0.0728379 0.31147 0)
(-0.0507477 0.330171 0)
(-0.00233451 -0.159616 0)
(-0.00253072 -0.1338 0)
(-0.00518508 -0.114789 0)
(-0.00754375 -0.10059 0)
(-0.0101112 -0.0901921 0)
(-0.0129462 -0.0830517 0)
(-0.0161029 -0.0787242 0)
(-0.0196513 -0.0767445 0)
(-0.0236823 -0.0765871 0)
(-0.02831 -0.0776418 0)
(-0.0336753 -0.0791774 0)
(-0.0399505 -0.0802744 0)
(-0.0473421 -0.0797133 0)
(-0.0560951 -0.0757971 0)
(-0.066499 -0.0661023 0)
(-0.0788964 -0.0472174 0)
(-0.0935825 -0.014778 0)
(-0.110257 0.0353701 0)
(-0.127021 0.103607 0)
(-0.140838 0.182572 0)
(-0.147629 0.256713 0)
(-0.141743 0.306077 0)
(-0.119505 0.31459 0)
(-0.00565722 -0.1552 0)
(-0.009593 -0.12947 0)
(-0.0158437 -0.110527 0)
(-0.0218111 -0.0962761 0)
(-0.0277881 -0.0857307 0)
(-0.0338712 -0.0783547 0)
(-0.0401776 -0.0736951 0)
(-0.0468316 -0.0712694 0)
(-0.0539774 -0.0705278 0)
(-0.0617886 -0.070829 0)
(-0.0704769 -0.0714032 0)
(-0.0803008 -0.0712858 0)
(-0.0915724 -0.0692078 0)
(-0.104654 -0.0634293 0)
(-0.11993 -0.0515287 0)
(-0.137687 -0.0302512 0)
(-0.157688 0.00420833 0)
(-0.178265 0.0546774 0)
(-0.195705 0.11975 0)
(-0.205222 0.190786 0)
(-0.202563 0.252424 0)
(-0.185377 0.287946 0)
(-0.156565 0.286767 0)
(-0.00850479 -0.146429 0)
(-0.0158328 -0.121179 0)
(-0.0254005 -0.102641 0)
(-0.0346593 -0.0885821 0)
(-0.0437436 -0.07807 0)
(-0.0527612 -0.070591 0)
(-0.0618692 -0.0656897 0)
(-0.0712227 -0.0628677 0)
(-0.0809916 -0.0615485 0)
(-0.0913745 -0.0610545 0)
(-0.102608 -0.0605697 0)
(-0.114971 -0.0590765 0)
(-0.128786 -0.0552581 0)
(-0.144389 -0.0473694 0)
(-0.162039 -0.033127 0)
(-0.181659 -0.00977802 0)
(-0.202277 0.0253212 0)
(-0.221293 0.0731641 0)
(-0.23436 0.130856 0)
(-0.236675 0.189822 0)
(-0.225098 0.237036 0)
(-0.199808 0.259861 0)
(-0.165178 0.251458 0)
(-0.0109442 -0.133814 0)
(-0.0212348 -0.1094 0)
(-0.0337469 -0.0915135 0)
(-0.0459167 -0.0778585 0)
(-0.0577364 -0.0675625 0)
(-0.0693038 -0.0601399 0)
(-0.0807913 -0.0551389 0)
(-0.0923589 -0.05205 0)
(-0.104172 -0.0502754 0)
(-0.116416 -0.049108 0)
(-0.129296 -0.0476974 0)
(-0.143039 -0.0449959 0)
(-0.157872 -0.0396862 0)
(-0.173961 -0.0301147 0)
(-0.191265 -0.01431 0)
(-0.209241 0.00976101 0)
(-0.226411 0.0434908 0)
(-0.239946 0.0864145 0)
(-0.245932 0.134799 0)
(-0.240659 0.180968 0)
(-0.222389 0.214729 0)
(-0.19244 0.226958 0)
(-0.155062 0.213034 0)
(-0.013004 -0.117935 0)
(-0.0258063 -0.0945917 0)
(-0.0408446 -0.0775633 0)
(-0.0555117 -0.0645053 0)
(-0.0696607 -0.0546118 0)
(-0.0833609 -0.0474311 0)
(-0.0967785 -0.042522 0)
(-0.110057 -0.0393726 0)
(-0.123332 -0.0373758 0)
(-0.13674 -0.0358125 0)
(-0.150421 -0.033825 0)
(-0.164494 -0.030379 0)
(-0.17903 -0.0242244 0)
(-0.193966 -0.0138955 0)
(-0.208951 0.00217411 0)
(-0.223119 0.025303 0)
(-0.234806 0.0558987 0)
(-0.241476 0.0925837 0)
(-0.240133 0.131432 0)
(-0.228363 0.165934 0)
(-0.205501 0.188308 0)
(-0.173129 0.191958 0)
(-0.1348 0.173508 0)
(-0.0147041 -0.0993471 0)
(-0.0295753 -0.0772296 0)
(-0.0467107 -0.0612272 0)
(-0.0634535 -0.0489415 0)
(-0.0795187 -0.0396379 0)
(-0.0949339 -0.0329037 0)
(-0.109844 -0.0283154 0)
(-0.12436 -0.0253693 0)
(-0.138572 -0.0234641 0)
(-0.152555 -0.0218907 0)
(-0.166358 -0.0198154 0)
(-0.179983 -0.0162604 0)
(-0.193339 -0.0100978 0)
(-0.20616 -9.67201e-05 0)
(-0.217883 0.0149075 0)
(-0.227488 0.0356496 0)
(-0.2334 0.0618879 0)
(-0.233581 0.091816 0)
(-0.225944 0.121708 0)
(-0.209095 0.14616 0)
(-0.183016 0.159189 0)
(-0.149183 0.155889 0)
(-0.110483 0.133652 0)
(-0.0160549 -0.078583 0)
(-0.032585 -0.05778 0)
(-0.0514007 -0.0429371 0)
(-0.0698068 -0.0315822 0)
(-0.0873867 -0.0230527 0)
(-0.104119 -0.0169775 0)
(-0.120119 -0.0129577 0)
(-0.135459 -0.0105077 0)
(-0.150178 -0.0090464 0)
(-0.164285 -0.00789447 0)
(-0.177745 -0.00626773 0)
(-0.190453 -0.00327474 0)
(-0.202189 0.00206437 0)
(-0.21255 0.0107427 0)
(-0.22086 0.0235784 0)
(-0.226096 0.0408906 0)
(-0.226893 0.0620735 0)
(-0.221696 0.0852102 0)
(-0.209116 0.106942 0)
(-0.188436 0.122802 0)
(-0.159979 0.128098 0)
(-0.12507 0.119081 0)
(-0.0861728 0.0937086 0)
(-0.0170733 -0.0561422 0)
(-0.034889 -0.0366839 0)
(-0.0549893 -0.0231082 0)
(-0.0746652 -0.0128273 0)
(-0.0933805 -0.00524437 0)
(-0.111064 -3.4812e-05 0)
(-0.127797 0.00317117 0)
(-0.143615 0.00483286 0)
(-0.158508 0.00550009 0)
(-0.172427 0.00580872 0)
(-0.185269 0.00647773 0)
(-0.196847 0.0082982 0)
(-0.206856 0.0120986 0)
(-0.214817 0.0186561 0)
(-0.220027 0.0285206 0)
(-0.221536 0.0417406 0)
(-0.218201 0.057539 0)
(-0.208852 0.0740623 0)
(-0.192581 0.0883651 0)
(-0.169084 0.0967542 0)
(-0.138883 0.095504 0)
(-0.103211 0.081724 0)
(-0.0643261 0.0538655 0)
(-0.0177652 -0.0324508 0)
(-0.0365336 -0.0143522 0)
(-0.0575547 -0.00213091 0)
(-0.0781307 0.00695158 0)
(-0.0976247 0.0134303 0)
(-0.115922 0.0175832 0)
(-0.133075 0.019748 0)
(-0.149083 0.0203522 0)
(-0.163899 0.0199074 0)
(-0.177428 0.0189986 0)
(-0.189514 0.0182724 0)
(-0.19992 0.0184171 0)
(-0.208293 0.0201197 0)
(-0.214125 0.0239771 0)
(-0.216734 0.0303395 0)
(-0.215264 0.0390876 0)
(-0.208767 0.0493901 0)
(-0.196355 0.0595437 0)
(-0.177438 0.0670168 0)
(-0.151978 0.0687759 0)
(-0.120637 0.0618782 0)
(-0.0846183 0.0441321 0)
(-0.0460837 0.0144201 0)
(-0.0181439 -0.00792349 0)
(-0.0375577 0.00882659 0)
(-0.0591682 0.0196244 0)
(-0.0802909 0.0274009 0)
(-0.100225 0.0326358 0)
(-0.118824 0.0355648 0)
(-0.136116 0.0364911 0)
(-0.152072 0.0358078 0)
(-0.166616 0.0339846 0)
(-0.179619 0.031552 0)
(-0.190895 0.0290833 0)
(-0.200175 0.0271693 0)
(-0.207084 0.0263714 0)
(-0.211117 0.0271385 0)
(-0.211629 0.0296741 0)
(-0.207862 0.0337599 0)
(-0.199022 0.0385799 0)
(-0.184429 0.0426247 0)
(-0.163715 0.0437694 0)
(-0.137032 0.0395728 0)
(-0.105157 0.0277659 0)
(-0.0692753 0.00674566 0)
(-0.0314303 -0.0242606 0)
(-0.0182369 0.0170492 0)
(-0.037999 0.0324729 0)
(-0.0598803 0.041793 0)
(-0.0812061 0.0481759 0)
(-0.101256 0.0520553 0)
(-0.119863 0.0536252 0)
(-0.137034 0.0531546 0)
(-0.152722 0.0510007 0)
(-0.166827 0.0475905 0)
(-0.179202 0.0433996 0)
(-0.189641 0.0389309 0)
(-0.197858 0.0346848 0)
(-0.203475 0.0311131 0)
(-0.206002 0.0285439 0)
(-0.204839 0.0270735 0)
(-0.199312 0.0264323 0)
(-0.18876 0.0258639 0)
(-0.172665 0.0240799 0)
(-0.150833 0.0193567 0)
(-0.123558 0.00979951 0)
(-0.0916961 -0.00627097 0)
(-0.0563597 -0.0300032 0)
(-0.0193727 -0.0619805 0)
(-0.0180882 0.0421458 0)
(-0.0378892 0.0562232 0)
(-0.0597178 0.0640255 0)
(-0.0809098 0.0689486 0)
(-0.100758 0.0713859 0)
(-0.119084 0.0714933 0)
(-0.135881 0.0695062 0)
(-0.151088 0.065746 0)
(-0.164592 0.0605967 0)
(-0.176235 0.0544804 0)
(-0.185799 0.0478328 0)
(-0.192993 0.0410715 0)
(-0.19744 0.0345523 0)
(-0.198672 0.0285056 0)
(-0.196135 0.0229517 0)
(-0.189235 0.0176065 0)
(-0.177427 0.0118084 0)
(-0.160334 0.00450858 0)
(-0.137903 -0.00562226 0)
(-0.110527 -0.0199932 0)
(-0.0790563 -0.0398098 0)
(-0.0444444 -0.0659095 0)
(-0.00829988 -0.0987861 0)
(-0.0177184 0.0670186 0)
(-0.0372397 0.0797297 0)
(-0.0586821 0.0859787 0)
(-0.0794012 0.0893913 0)
(-0.0987258 0.0903238 0)
(-0.116476 0.0888962 0)
(-0.132637 0.0853107 0)
(-0.14714 0.0798528 0)
(-0.159867 0.0728638 0)
(-0.170651 0.0647133 0)
(-0.179269 0.0557726 0)
(-0.185429 0.0463832 0)
(-0.188762 0.0368177 0)
(-0.188821 0.0272285 0)
(-0.185101 0.017588 0)
(-0.177085 0.00763156 0)
(-0.164337 -0.00317884 0)
(-0.146606 -0.0156443 0)
(-0.123933 -0.0307396 0)
(-0.0967326 -0.0494717 0)
(-0.0657892 -0.0726945 0)
(-0.0318987 -0.101006 0)
(0.00352921 -0.13482 0)
(-0.0171289 0.0913107 0)
(-0.0360396 0.102637 0)
(-0.0567479 0.107302 0)
(-0.0766427 0.109167 0)
(-0.0951078 0.108554 0)
(-0.111971 0.105548 0)
(-0.127216 0.100317 0)
(-0.140771 0.0931101 0)
(-0.152516 0.084226 0)
(-0.162281 0.0739817 0)
(-0.169842 0.0626866 0)
(-0.174908 0.0506125 0)
(-0.17712 0.0379603 0)
(-0.176057 0.0248241 0)
(-0.17126 0.0111558 0)
(-0.162294 -0.00326047 0)
(-0.148821 -0.0188211 0)
(-0.130674 -0.0361008 0)
(-0.107937 -0.055783 0)
(-0.0810023 -0.0785473 0)
(-0.0505708 -0.104958 0)
(-0.0172896 -0.135419 0)
(0.0175979 -0.17028 0)
(-0.0163107 0.114655 0)
(-0.0342586 0.124573 0)
(-0.0538626 0.127628 0)
(-0.0725606 0.127921 0)
(-0.089808 0.125743 0)
(-0.105451 0.12114 0)
(-0.119473 0.114249 0)
(-0.131809 0.105279 0)
(-0.142339 0.0944845 0)
(-0.150894 0.0821306 0)
(-0.157251 0.0684666 0)
(-0.161123 0.0537003 0)
(-0.162165 0.0379735 0)
(-0.159984 0.0213407 0)
(-0.15417 0.00375749 0)
(-0.144364 -0.01492 0)
(-0.130298 -0.0349571 0)
(-0.111854 -0.0567383 0)
(-0.0891195 -0.080697 0)
(-0.0624429 -0.107248 0)
(-0.0324352 -0.136715 0)
(0.000385541 -0.169324 0)
(0.0349078 -0.205363 0)
(-0.015247 0.13666 0)
(-0.0318491 0.145139 0)
(-0.0499486 0.146562 0)
(-0.0670483 0.145274 0)
(-0.0826919 0.141529 0)
(-0.0967513 0.13534 0)
(-0.10922 0.126803 0)
(-0.120038 0.116092 0)
(-0.129094 0.103411 0)
(-0.136223 0.0889747 0)
(-0.141206 0.0729732 0)
(-0.143765 0.055557 0)
(-0.143571 0.0368201 0)
(-0.140261 0.016795 0)
(-0.133475 -0.00454017 0)
(-0.122914 -0.0272507 0)
(-0.10835 -0.0514982 0)
(-0.0896824 -0.0774985 0)
(-0.0669814 -0.105484 0)
(-0.0405337 -0.135646 0)
(-0.0108669 -0.168095 0)
(0.0216242 -0.202884 0)
(0.0559148 -0.24024 0)
(-0.0139134 0.156896 0)
(-0.0287472 0.163901 0)
(-0.0449053 0.16368 0)
(-0.0599709 0.160813 0)
(-0.0735924 0.155523 0)
(-0.0856772 0.147783 0)
(-0.0962334 0.137651 0)
(-0.105215 0.125256 0)
(-0.11252 0.110757 0)
(-0.117994 0.0943116 0)
(-0.121428 0.076055 0)
(-0.122555 0.0560859 0)
(-0.121067 0.0344609 0)
(-0.116631 0.0112034 0)
(-0.108931 -0.0136735 0)
(-0.0977036 -0.0401726 0)
(-0.0827413 -0.0683654 0)
(-0.0639386 -0.0983325 0)
(-0.0413287 -0.130138 0)
(-0.0151298 -0.163784 0)
(0.0142154 -0.199175 0)
(0.0464262 -0.23621 0)
(0.080559 -0.275032 0)
(-0.0122774 0.174883 0)
(-0.0248732 0.180383 0)
(-0.0386118 0.178515 0)
(-0.0511688 0.174092 0)
(-0.0623157 0.167303 0)
(-0.0720061 0.158079 0)
(-0.0802691 0.14644 0)
(-0.087078 0.132466 0)
(-0.0923489 0.116264 0)
(-0.0959426 0.0979379 0)
(-0.0976629 0.077568 0)
(-0.0972614 0.0552059 0)
(-0.09445 0.0308783 0)
(-0.0889218 0.00460727 0)
(-0.0803996 -0.0235563 0)
(-0.0686337 -0.053577 0)
(-0.0534179 -0.0854477 0)
(-0.034627 -0.119143 0)
(-0.0122456 -0.154588 0)
(0.0135851 -0.191612 0)
(0.0425185 -0.229948 0)
(0.0744063 -0.269336 0)
(0.108352 -0.30977 0)
(-0.0102954 0.190082 0)
(-0.020129 0.194062 0)
(-0.030928 0.19056 0)
(-0.040461 0.184625 0)
(-0.0486471 0.176414 0)
(-0.0554973 0.165816 0)
(-0.0610694 0.152802 0)
(-0.0653635 0.137405 0)
(-0.0683206 0.119678 0)
(-0.0698228 0.099665 0)
(-0.069693 0.0773936 0)
(-0.0677019 0.0528699 0)
(-0.0635815 0.0260947 0)
(-0.0570474 -0.00290851 0)
(-0.0478478 -0.0340588 0)
(-0.03573 -0.0673002 0)
(-0.0204792 -0.102564 0)
(-0.0019395 -0.139742 0)
(0.0199618 -0.178641 0)
(0.0451789 -0.218963 0)
(0.0734954 -0.260293 0)
(0.104882 -0.30217 0)
(0.138465 -0.344375 0)
(-0.00790188 0.201872 0)
(-0.0143896 0.204369 0)
(-0.0216961 0.199262 0)
(-0.0276482 0.191891 0)
(-0.0323552 0.182376 0)
(-0.0358982 0.170558 0)
(-0.0383713 0.156361 0)
(-0.0398098 0.139763 0)
(-0.0401874 0.120758 0)
(-0.039414 0.0993309 0)
(-0.037336 0.0754502 0)
(-0.0337437 0.0490767 0)
(-0.0283855 0.0201849 0)
(-0.0209963 -0.0112002 0)
(-0.0113282 -0.0449852 0)
(0.000877448 -0.0810989 0)
(0.0158521 -0.119428 0)
(0.0337915 -0.159809 0)
(0.0548499 -0.201984 0)
(0.0790969 -0.245552 0)
(0.106433 -0.289938 0)
(0.136948 -0.334456 0)
(0.169805 -0.378606 0)
(-0.0049745 0.209526 0)
(-0.00748918 0.21069 0)
(-0.0107426 0.20402 0)
(-0.0125172 0.195329 0)
(-0.0132004 0.184679 0)
(-0.0129548 0.171858 0)
(-0.0119177 0.156736 0)
(-0.0101683 0.139236 0)
(-0.00772179 0.119286 0)
(-0.00452353 0.096806 0)
(-0.000446746 0.0717011 0)
(0.00469895 0.0438824 0)
(0.0111566 0.0132941 0)
(0.0191817 -0.0200416 0)
(0.0290339 -0.05604 0)
(0.0409862 -0.0946206 0)
(0.0552994 -0.135655 0)
(0.0722175 -0.178949 0)
(0.0919641 -0.2242 0)
(0.114713 -0.270927 0)
(0.140493 -0.318411 0)
(0.169534 -0.365721 0)
(0.201059 -0.412015 0)
(-0.00127025 0.212454 0)
(0.000793216 0.212171 0)
(0.00211619 0.204171 0)
(0.00515248 0.194354 0)
(0.00905033 0.182805 0)
(0.0135714 0.169271 0)
(0.0185279 0.153568 0)
(0.023786 0.135558 0)
(0.0292774 0.1151 0)
(0.0350128 0.0920375 0)
(0.0410897 0.0662015 0)
(0.0476871 0.0374388 0)
(0.0550498 0.00565333 0)
(0.0634398 -0.0291437 0)
(0.0731424 -0.0668861 0)
(0.0844518 -0.107487 0)
(0.0976488 -0.150809 0)
(0.113009 -0.196651 0)
(0.130811 -0.244695 0)
(0.151326 -0.294421 0)
(0.174725 -0.344994 0)
(0.201403 -0.39523 0)
(0.230702 -0.443893 0)
(0.0029737 0.209107 0)
(0.0105294 0.208639 0)
(0.0172171 0.199149 0)
(0.0256025 0.188394 0)
(0.0346283 0.176239 0)
(0.0439177 0.162352 0)
(0.0532115 0.146492 0)
(0.0623038 0.128459 0)
(0.0710556 0.108034 0)
(0.0794212 0.0849683 0)
(0.0874658 0.0589998 0)
(0.0953642 0.0298934 0)
(0.103379 -0.00249925 0)
(0.111799 -0.0381894 0)
(0.12095 -0.0771315 0)
(0.131141 -0.119225 0)
(0.142658 -0.164327 0)
(0.155781 -0.212243 0)
(0.170819 -0.262677 0)
(0.188126 -0.315122 0)
(0.208027 -0.368679 0)
(0.231129 -0.421932 0)
(0.256973 -0.473221 0)
(0.00810793 0.197915 0)
(0.0220161 0.199505 0)
(0.0347013 0.188397 0)
(0.0490564 0.176871 0)
(0.0637777 0.164441 0)
(0.0783473 0.150626 0)
(0.0924198 0.13512 0)
(0.105692 0.117657 0)
(0.117924 0.0979338 0)
(0.128991 0.0755848 0)
(0.13892 0.050219 0)
(0.147895 0.0214898 0)
(0.156219 -0.0108217 0)
(0.164242 -0.0467621 0)
(0.172338 -0.0862836 0)
(0.180826 -0.129255 0)
(0.189974 -0.175514 0)
(0.200026 -0.224881 0)
(0.211273 -0.277126 0)
(0.224128 -0.331831 0)
(0.239091 -0.388126 0)
(0.25704 -0.444425 0)
(0.277828 -0.498631 0)
(0.0140839 0.178023 0)
(0.0352831 0.183528 0)
(0.0548052 0.171226 0)
(0.0757641 0.159193 0)
(0.0967568 0.146866 0)
(0.11714 0.133606 0)
(0.136467 0.119045 0)
(0.154295 0.102867 0)
(0.170233 0.0846659 0)
(0.184037 0.0639209 0)
(0.195687 0.0400571 0)
(0.205398 0.012567 0)
(0.21355 -0.0188677 0)
(0.220608 -0.0543317 0)
(0.227007 -0.0937347 0)
(0.233077 -0.136872 0)
(0.239027 -0.183525 0)
(0.245004 -0.233529 0)
(0.251214 -0.286769 0)
(0.258083 -0.343033 0)
(0.266317 -0.401632 0)
(0.277153 -0.460918 0)
(0.290903 -0.518388 0)
(0.0207722 0.148497 0)
(0.0502691 0.159377 0)
(0.0776857 0.146859 0)
(0.105937 0.13475 0)
(0.133788 0.122956 0)
(0.160547 0.11077 0)
(0.185652 0.097824 0)
(0.208458 0.0837777 0)
(0.228332 0.0681146 0)
(0.244845 0.0500844 0)
(0.257919 0.0288348 0)
(0.267833 0.00361832 0)
(0.275123 -0.0260265 0)
(0.280433 -0.060208 0)
(0.284312 -0.0987295 0)
(0.287093 -0.141227 0)
(0.28887 -0.187359 0)
(0.289607 -0.236956 0)
(0.289324 -0.290075 0)
(0.28839 -0.346882 0)
(0.287748 -0.40711 0)
(0.289154 -0.469245 0)
(0.293553 -0.530408 0)
(0.0279118 0.108578 0)
(0.0667605 0.12555 0)
(0.103325 0.11441 0)
(0.139646 0.102906 0)
(0.174964 0.0921231 0)
(0.208706 0.0815482 0)
(0.24019 0.0709516 0)
(0.268461 0.0600527 0)
(0.292498 0.0482082 0)
(0.311579 0.034315 0)
(0.325547 0.0170788 0)
(0.334826 -0.00461592 0)
(0.340231 -0.0314303 0)
(0.342711 -0.0634722 0)
(0.343007 -0.100324 0)
(0.341454 -0.141316 0)
(0.337959 -0.185867 0)
(0.332182 -0.233755 0)
(0.323806 -0.28527 0)
(0.313025 -0.341213 0)
(0.301077 -0.402133 0)
(0.290482 -0.466929 0)
(0.283058 -0.53236 0)
(0.035124 0.0578124 0)
(0.0842774 0.0804026 0)
(0.131354 0.0728592 0)
(0.17664 0.0629753 0)
(0.220071 0.0537362 0)
(0.261469 0.0452904 0)
(0.300043 0.0378353 0)
(0.334368 0.0313167 0)
(0.362779 0.0249617 0)
(0.384069 0.0170789 0)
(0.398012 0.00565495 0)
(0.405326 -0.0109927 0)
(0.407325 -0.0338283 0)
(0.405464 -0.0628959 0)
(0.400832 -0.0973588 0)
(0.393762 -0.135997 0)
(0.383862 -0.177809 0)
(0.370339 -0.222435 0)
(0.352317 -0.270428 0)
(0.329611 -0.32363 0)
(0.303832 -0.38403 0)
(0.278677 -0.45136 0)
(0.257169 -0.521875 0)
(0.0418501 -0.00367715 0)
(0.10189 0.0222174 0)
(0.160768 0.021056 0)
(0.215996 0.014244 0)
(0.268228 0.00713232 0)
(0.318036 0.00125517 0)
(0.364566 -0.0022473 0)
(0.405679 -0.00286075 0)
(0.438608 -0.00144964 0)
(0.46135 -0.000786195 0)
(0.47369 -0.00406276 0)
(0.47694 -0.0137969 0)
(0.473275 -0.031432 0)
(0.465043 -0.0568687 0)
(0.4539 -0.0884912 0)
(0.440148 -0.124116 0)
(0.422922 -0.162062 0)
(0.400824 -0.201705 0)
(0.372105 -0.243777 0)
(0.335802 -0.291754 0)
(0.293959 -0.350163 0)
(0.252136 -0.420219 0)
(0.215117 -0.497126 0)
(0.047104 -0.0755319 0)
(0.117928 -0.0502296 0)
(0.189621 -0.0420928 0)
(0.255634 -0.0440367 0)
(0.317275 -0.0484814 0)
(0.376199 -0.0515361 0)
(0.431621 -0.0502976 0)
(0.480416 -0.0430025 0)
(0.517818 -0.030478 0)
(0.540479 -0.0176708 0)
(0.548572 -0.0097499 0)
(0.544593 -0.0104117 0)
(0.532132 -0.0217179 0)
(0.515049 -0.0433913 0)
(0.495881 -0.072367 0)
(0.474739 -0.104815 0)
(0.449974 -0.13809 0)
(0.419566 -0.171198 0)
(0.380559 -0.204532 0)
(0.330311 -0.244052 0)
(0.271017 -0.298884 0)
(0.211411 -0.372735 0)
(0.159161 -0.45834 0)
(0.0499501 -0.154966 0)
(0.130245 -0.136888 0)
(0.214472 -0.117356 0)
(0.291235 -0.112475 0)
(0.361991 -0.113736 0)
(0.429809 -0.113816 0)
(0.494531 -0.106966 0)
(0.552068 -0.0891226 0)
(0.593655 -0.0605762 0)
(0.613443 -0.0307474 0)
(0.613164 -0.00791296 0)
(0.597834 0.00292431 0)
(0.573126 -0.00143936 0)
(0.545057 -0.0204011 0)
(0.517347 -0.0481399 0)
(0.489408 -0.0781192 0)
(0.458261 -0.106644 0)
(0.42193 -0.13259 0)
(0.376247 -0.154209 0)
(0.314877 -0.181429 0)
(0.238261 -0.231289 0)
(0.161556 -0.311188 0)
(0.09793 -0.40894 0)
(0.050615 -0.23761 0)
(0.139001 -0.234283 0)
(0.231571 -0.20347 0)
(0.314632 -0.190047 0)
(0.390204 -0.187142 0)
(0.462807 -0.183654 0)
(0.534501 -0.17077 0)
(0.602012 -0.139931 0)
(0.647484 -0.0885834 0)
(0.660045 -0.0357636 0)
(0.646786 0.00575407 0)
(0.617023 0.0296996 0)
(0.578716 0.031365 0)
(0.540523 0.0122133 0)
(0.506671 -0.0168911 0)
(0.474883 -0.0458046 0)
(0.440203 -0.070197 0)
(0.403423 -0.0904015 0)
(0.360112 -0.0966117 0)
(0.297826 -0.105901 0)
(0.207993 -0.148389 0)
(0.123167 -0.238486 0)
(0.0608802 -0.350648 0)
(0.0581926 -0.334209 0)
(0.151376 -0.340239 0)
(0.235295 -0.294176 0)
(0.309369 -0.269762 0)
(0.376765 -0.262134 0)
(0.441456 -0.259086 0)
(0.512304 -0.250846 0)
(0.591589 -0.20855 0)
(0.640255 -0.118175 0)
(0.638795 -0.0308396 0)
(0.610593 0.0344175 0)
(0.570681 0.071173 0)
(0.527258 0.0737165 0)
(0.488786 0.0475023 0)
(0.455892 0.0144006 0)
(0.425295 -0.0128133 0)
(0.390428 -0.0327635 0)
(0.362054 -0.053126 0)
(0.337443 -0.0366163 0)
(0.307071 -0.01289 0)
(0.229978 -0.0427395 0)
(0.159198 -0.160144 0)
(0.0801498 -0.281777 0)
(0.075324 -0.447468 0)
(0.162519 -0.435055 0)
(0.210516 -0.366287 0)
(0.252032 -0.331745 0)
(0.291486 -0.325018 0)
(0.336277 -0.333282 0)
(0.409029 -0.339456 0)
(0.495625 -0.291723 0)
(0.536103 -0.136531 0)
(0.499756 -0.0123772 0)
(0.467854 0.0650039 0)
(0.444956 0.103681 0)
(0.424325 0.104542 0)
(0.39984 0.0748889 0)
(0.37147 0.0422993 0)
(0.34444 0.0168742 0)
(0.307673 -0.000113405 0)
(0.300184 -0.0466961 0)
(0.316826 -0.0455001 0)
(0.341708 0.00374042 0)
(0.320092 0.011356 0)
(0.261027 -0.0860241 0)
(0.142519 -0.186478 0)
(0.0570037 -0.553399 0)
(0.125114 -0.473944 0)
(0.143307 -0.389153 0)
(0.160712 -0.35359 0)
(0.181812 -0.350274 0)
(0.214199 -0.378157 0)
(0.283189 -0.413651 0)
(0.34566 -0.350447 0)
(0.334567 -0.0433884 0)
(0.248217 0.0438092 0)
(0.272254 0.0998449 0)
(0.285947 0.161415 0)
(0.293353 0.192761 0)
(0.291639 0.169552 0)
(0.26551 0.121431 0)
(0.237884 0.0742741 0)
(0.186804 0.0369029 0)