/*--------------------------------*- C++ -*----------------------------------*\
  =========                 |
  \\      /  F ield         | OpenFOAM: The Open Source CFD Toolbox
   \\    /   O peration     | Website:  https://openfoam.org
    \\  /    A nd           | Version:  9
     \\/     M anipulation  |
\*---------------------------------------------------------------------------*/
FoamFile
{
    format      ascii;
    class       volScalarField;
    location    "275";
    object      k;
}
// * * * * * * * * * * * * * * * * * * * * * * * * * * * * * * * * * * * * * //

dimensions      [0 2 -2 0 0 0 0];

internalField   nonuniform List<scalar> 
12225
(
0.362828
0.34399
0.327752
0.30981
0.295411
0.283468
0.275529
0.270279
0.270337
0.271887
0.276045
0.28072
0.289843
0.295632
0.306781
0.312681
0.325698
0.32369
0.44027
0.468738
0.461616
0.44837
0.450343
0.458314
0.474575
0.498485
0.524416
0.552062
0.580736
0.606108
0.633787
0.653797
0.679662
0.692918
0.718049
0.72418
0.390406
0.41786
0.420244
0.41683
0.411634
0.407802
0.40802
0.410036
0.414565
0.42138
0.430719
0.439704
0.45115
0.461138
0.472789
0.483494
0.493456
0.505766
0.377043
0.387169
0.391466
0.391343
0.39026
0.387882
0.385662
0.384078
0.382884
0.382896
0.383354
0.384377
0.386268
0.388459
0.390895
0.394224
0.396516
0.400927
0.374434
0.376094
0.378427
0.378665
0.378275
0.3772
0.375489
0.373737
0.37201
0.370455
0.369255
0.368109
0.367379
0.366802
0.36644
0.366327
0.366344
0.366688
0.373779
0.372704
0.372659
0.372365
0.371773
0.370818
0.369554
0.368083
0.366572
0.364977
0.363528
0.362063
0.360756
0.359529
0.358397
0.357426
0.356437
0.355779
0.373775
0.37174
0.370388
0.369284
0.368235
0.367114
0.365915
0.364587
0.363239
0.361808
0.360423
0.359024
0.357679
0.356383
0.355122
0.353967
0.352795
0.351803
0.373818
0.371559
0.369635
0.367976
0.366501
0.365108
0.363776
0.36243
0.361108
0.359767
0.358451
0.357145
0.355864
0.354624
0.353403
0.352252
0.3511
0.350054
0.373832
0.371553
0.369449
0.367525
0.365777
0.364154
0.362645
0.361199
0.359818
0.358474
0.35717
0.355904
0.354668
0.353477
0.352309
0.351198
0.350099
0.349075
0.373831
0.37156
0.369418
0.367405
0.365529
0.363773
0.362133
0.360585
0.359122
0.357728
0.356395
0.355119
0.353889
0.352711
0.351571
0.350483
0.349421
0.348422
0.373829
0.37156
0.369413
0.367378
0.365458
0.363645
0.361937
0.360324
0.358799
0.357353
0.355979
0.354673
0.353425
0.352236
0.351095
0.35001
0.34896
0.34797
0.373828
0.371558
0.369409
0.36737
0.365439
0.363609
0.361876
0.360234
0.358678
0.357202
0.3558
0.354469
0.353201
0.351995
0.350843
0.349748
0.348696
0.347701
0.373827
0.371556
0.369405
0.367365
0.36543
0.363593
0.361851
0.360197
0.358626
0.357134
0.355716
0.354368
0.353085
0.351865
0.350701
0.349595
0.348536
0.347532
0.373826
0.371555
0.369401
0.367359
0.365422
0.363583
0.361837
0.360178
0.3586
0.357101
0.355674
0.354317
0.353025
0.351795
0.350622
0.349506
0.34844
0.347427
0.373826
0.371553
0.369398
0.367355
0.365416
0.363575
0.361826
0.360164
0.358584
0.357081
0.355651
0.35429
0.352993
0.351758
0.35058
0.349458
0.348388
0.347368
0.373826
0.371552
0.369396
0.367351
0.36541
0.363567
0.361817
0.360153
0.358571
0.357067
0.355634
0.35427
0.352971
0.351734
0.350554
0.349429
0.348356
0.347333
0.373825
0.371551
0.369394
0.367348
0.365406
0.363562
0.36181
0.360145
0.358561
0.357055
0.355621
0.354256
0.352955
0.351716
0.350534
0.349408
0.348333
0.347308
0.373825
0.371551
0.369393
0.367346
0.365403
0.363558
0.361805
0.360139
0.358554
0.357047
0.355612
0.354245
0.352943
0.351703
0.35052
0.349392
0.348316
0.347289
0.373825
0.37155
0.369393
0.367345
0.365402
0.363557
0.361804
0.360137
0.358552
0.357043
0.355608
0.35424
0.352938
0.351696
0.350513
0.349384
0.348307
0.34728
0.373825
0.371551
0.369393
0.367347
0.365404
0.363559
0.361806
0.360139
0.358555
0.357046
0.355611
0.354244
0.352941
0.3517
0.350516
0.349388
0.348311
0.347284
0.373825
0.371551
0.369395
0.367349
0.365407
0.363563
0.361811
0.360145
0.358562
0.357055
0.355621
0.354255
0.352954
0.351715
0.350533
0.349407
0.348332
0.347307
0.373826
0.371552
0.369397
0.367352
0.365412
0.363571
0.361822
0.360161
0.358583
0.357083
0.355656
0.354298
0.353006
0.351774
0.350602
0.349483
0.348416
0.347397
0.373826
0.371554
0.369399
0.367359
0.365428
0.363602
0.361875
0.36024
0.35869
0.35722
0.355823
0.354493
0.353227
0.352018
0.350865
0.349762
0.34871
0.3477
0.373828
0.371551
0.369412
0.367417
0.365556
0.363819
0.362189
0.360651
0.359189
0.357793
0.356456
0.355171
0.353935
0.352745
0.3516
0.350495
0.349435
0.348409
0.373823
0.371554
0.369604
0.367893
0.366339
0.364892
0.363495
0.362122
0.360761
0.359413
0.35808
0.356769
0.355488
0.354237
0.353029
0.351855
0.350734
0.349645
0.373781
0.37199
0.371113
0.370265
0.36936
0.368311
0.367048
0.36563
0.36412
0.362575
0.36103
0.359522
0.358073
0.356682
0.355381
0.354141
0.353009
0.351923
0.374297
0.375564
0.377778
0.377858
0.377291
0.375885
0.373835
0.371641
0.369505
0.367482
0.365664
0.364084
0.36271
0.361535
0.36061
0.359818
0.359289
0.358801
0.378732
0.394393
0.398293
0.396565
0.392558
0.387608
0.383642
0.380455
0.378266
0.376852
0.376497
0.37675
0.3774
0.378699
0.380444
0.382425
0.384829
0.38714
0.408344
0.427539
0.422424
0.411051
0.402227
0.397924
0.398558
0.401119
0.405988
0.413042
0.421001
0.429834
0.438842
0.448199
0.457315
0.466564
0.475332
0.484193
0.366033
0.353412
0.341988
0.33021
0.318982
0.308382
0.299409
0.291674
0.285403
0.280333
0.276682
0.273868
0.272311
0.271185
0.271177
0.271523
0.272158
0.273389
0.000579947
0.00336073
0.00626369
0.00883101
0.0113028
0.0140811
0.017291
0.0210887
0.0255447
0.0306272
0.0362267
0.0422131
0.0484567
0.0548534
0.0613154
0.0677784
0.0741862
0.080496
0.086664
0.0926515
0.098412
0.103901
0.109066
0.11386
0.118237
0.122168
0.125639
0.128674
0.131118
0.132966
0.135813
0.13791
0.139914
0.141579
0.14382
0.142927
0.140056
0.134382
0.139499
0.145327
0.148678
0.149545
0.15163
0.161211
0.167573
0.175676
0.183304
0.191439
0.1996
0.207993
0.216525
0.225227
0.234087
0.243108
0.252286
0.261625
0.271119
0.280772
0.290577
0.300538
0.310648
0.320908
0.331312
0.341861
0.352545
0.363365
0.374312
0.385384
0.396572
0.407873
0.419276
0.430778
0.442367
0.45404
0.465782
0.47759
0.489448
0.501353
0.51329
0.525251
0.537223
0.549197
0.561158
0.573098
0.585
0.596855
0.608645
0.62036
0.631981
0.643494
0.654879
0.666114
0.677179
0.68805
0.698705
0.709127
0.719315
0.729305
0.739156
0.748738
0.758108
0.767233
0.776115
0.784737
0.793091
0.801165
0.80895
0.816436
0.823613
0.830473
0.837006
0.843206
0.849062
0.854569
0.859718
0.864504
0.868919
0.872959
0.876618
0.879893
0.882778
0.88527
0.887365
0.889063
0.890362
0.891262
0.891765
0.891872
0.891578
0.890892
0.889774
0.88815
0.88621
0.883989
0.881343
0.878301
0.874893
0.871121
0.866995
0.862521
0.85771
0.852569
0.847108
0.84134
0.835276
0.828929
0.822311
0.815435
0.808314
0.800962
0.793394
0.785623
0.777664
0.769532
0.761241
0.752809
0.744249
0.735578
0.726816
0.717986
0.709129
0.700384
0.692917
0.688314
0.684247
0.680202
0.676141
0.67207
0.667994
0.663924
0.659865
0.655821
0.651789
0.647756
0.643687
0.639506
0.635057
0.629898
0.62309
0.59787
0.00296419
0.0121877
0.0184575
0.0231208
0.0272275
0.0312405
0.0355146
0.0402472
0.0455123
0.0512881
0.0574944
0.0640301
0.0707941
0.0777003
0.0846782
0.0916745
0.0986466
0.105562
0.112392
0.11911
0.125689
0.132101
0.138315
0.144305
0.150045
0.155528
0.160768
0.165818
0.170767
0.175799
0.181179
0.187009
0.193554
0.20038
0.206353
0.211756
0.21797
0.225722
0.238424
0.246023
0.257147
0.270833
0.287819
0.301022
0.313083
0.325933
0.33915
0.352782
0.366749
0.38105
0.39567
0.410608
0.425863
0.441434
0.457321
0.473527
0.490052
0.506895
0.524058
0.541541
0.559341
0.57746
0.595893
0.614639
0.633693
0.653053
0.672712
0.692665
0.712904
0.733423
0.754212
0.775262
0.796562
0.818102
0.839868
0.861849
0.884029
0.906394
0.928928
0.951615
0.974437
0.997378
1.02042
1.04353
1.06671
1.08992
1.11314
1.13636
1.15954
1.18266
1.2057
1.22862
1.25138
1.27395
1.29629
1.31835
1.34007
1.36138
1.38224
1.40283
1.4231
1.44304
1.46263
1.48184
1.50066
1.51907
1.53703
1.55453
1.57156
1.58808
1.60408
1.61955
1.63445
1.64878
1.66252
1.67564
1.68814
1.7
1.71121
1.72174
1.73159
1.74075
1.7492
1.75694
1.76395
1.77024
1.77579
1.7806
1.78468
1.78802
1.79061
1.79219
1.79302
1.79336
1.79294
1.79171
1.78974
1.78703
1.7836
1.77945
1.7746
1.76907
1.76286
1.75599
1.74848
1.74035
1.73163
1.72232
1.71246
1.70206
1.69116
1.67976
1.66791
1.65563
1.64294
1.62988
1.61646
1.60273
1.58871
1.57443
1.55994
1.54531
1.53081
1.51675
1.50272
1.48863
1.4745
1.46036
1.44623
1.43215
1.41813
1.40418
1.39032
1.37655
1.36285
1.34919
1.33538
1.32141
1.30578
1.2703
0.00632933
0.0210169
0.0293751
0.0355726
0.0410504
0.0463671
0.0518289
0.0576101
0.0637858
0.0703566
0.0772739
0.0844674
0.0918627
0.099395
0.107012
0.114675
0.122356
0.13004
0.137714
0.145372
0.153011
0.160629
0.168226
0.175812
0.183408
0.191057
0.198834
0.206856
0.215255
0.224169
0.233712
0.2439
0.25458
0.265371
0.276313
0.287756
0.299801
0.312943
0.327147
0.341277
0.356972
0.37376
0.390837
0.407324
0.423851
0.440757
0.458067
0.475791
0.493918
0.512442
0.531356
0.550658
0.570346
0.590419
0.610878
0.631723
0.652953
0.674568
0.696567
0.71895
0.741714
0.764856
0.788373
0.812262
0.836516
0.861131
0.886098
0.911411
0.93706
0.963036
0.989327
1.01592
1.04281
1.06997
1.09739
1.12506
1.15296
1.18106
1.20936
1.23783
1.26645
1.29519
1.32404
1.35296
1.38194
1.41095
1.43996
1.46894
1.49787
1.52671
1.55544
1.58401
1.6124
1.64058
1.66851
1.69616
1.7235
1.75051
1.77717
1.80347
1.82938
1.85487
1.87992
1.90448
1.92854
1.95205
1.97501
1.99737
2.01911
2.04021
2.06064
2.08037
2.09938
2.11765
2.13516
2.15187
2.16779
2.18288
2.19712
2.2105
2.22301
2.23462
2.24533
2.25511
2.26397
2.27189
2.27886
2.28489
2.28996
2.29407
2.2972
2.29921
2.30019
2.30043
2.2997
2.29799
2.29531
2.2917
2.28715
2.2817
2.27535
2.26813
2.26004
2.25112
2.24138
2.23085
2.21956
2.20753
2.19479
2.18136
2.16729
2.1526
2.13733
2.1215
2.10516
2.08833
2.07106
2.05339
2.03535
2.01699
1.99835
1.97952
1.96066
1.94194
1.92322
1.90444
1.88561
1.86677
1.84796
1.82921
1.81054
1.792
1.7736
1.75538
1.73733
1.7195
1.70181
1.68436
1.66583
1.63527
0.0101978
0.0293858
0.0397056
0.0472233
0.0537634
0.0600017
0.0662796
0.0727858
0.0796107
0.0867754
0.0942546
0.102
0.109954
0.118067
0.126298
0.13462
0.143016
0.151483
0.160022
0.168642
0.177359
0.186191
0.19516
0.204299
0.213649
0.223269
0.233236
0.243637
0.254563
0.266093
0.27826
0.291039
0.304338
0.318064
0.332221
0.346901
0.362176
0.378163
0.39484
0.412078
0.430048
0.448602
0.467522
0.486674
0.506127
0.525952
0.546184
0.566843
0.587936
0.609466
0.631434
0.653841
0.676689
0.699976
0.723706
0.747877
0.772492
0.797549
0.823048
0.848989
0.875369
0.902186
0.929436
0.957116
0.985219
1.01374
1.04267
1.072
1.10173
1.13183
1.1623
1.19313
1.2243
1.25579
1.28759
1.31968
1.35204
1.38465
1.41748
1.45052
1.48373
1.5171
1.5506
1.58419
1.61785
1.65154
1.68525
1.71893
1.75255
1.78608
1.81949
1.85274
1.8858
1.91863
1.9512
1.98348
2.01544
2.04703
2.07824
2.10902
2.13934
2.16916
2.19845
2.22718
2.2553
2.28278
2.30959
2.3357
2.36107
2.38567
2.40948
2.43246
2.45459
2.47584
2.49617
2.51558
2.53403
2.5515
2.56797
2.58342
2.59784
2.61119
2.62348
2.63468
2.64479
2.65378
2.66167
2.66843
2.67407
2.67857
2.68192
2.684
2.68489
2.68487
2.68368
2.68136
2.67791
2.67337
2.66775
2.66107
2.65333
2.64458
2.63482
2.62409
2.61241
2.59981
2.58632
2.57198
2.5568
2.54084
2.52412
2.50669
2.48858
2.46982
2.45047
2.43057
2.41015
2.38926
2.36794
2.34626
2.32426
2.30202
2.27967
2.25732
2.23493
2.21246
2.18996
2.16744
2.14496
2.12256
2.10028
2.07817
2.05626
2.0346
2.01325
1.99228
1.97175
1.95179
1.93129
1.90338
0.0140929
0.0372337
0.0493579
0.0580909
0.065575
0.072588
0.0795187
0.0865827
0.093894
0.101499
0.109397
0.117563
0.125958
0.134545
0.143296
0.152192
0.161224
0.170396
0.179721
0.189216
0.198908
0.208825
0.219002
0.229477
0.240296
0.251512
0.263185
0.275377
0.288146
0.301536
0.315558
0.330196
0.345407
0.361157
0.377433
0.394253
0.411649
0.429652
0.448248
0.467414
0.487148
0.507406
0.528138
0.549305
0.570907
0.592953
0.615455
0.638426
0.661874
0.685806
0.710227
0.73514
0.760548
0.786454
0.812861
0.839769
0.867182
0.8951
0.923522
0.95245
0.981881
1.01181
1.04225
1.07317
1.10459
1.13649
1.16887
1.20171
1.23501
1.26876
1.30294
1.33753
1.37253
1.40791
1.44365
1.47974
1.51615
1.55286
1.58984
1.62707
1.66452
1.70215
1.73995
1.77786
1.81588
1.85395
1.89204
1.93012
1.96815
2.00609
2.04391
2.08156
2.11901
2.15622
2.19314
2.22975
2.26599
2.30183
2.33722
2.37212
2.4065
2.4403
2.4735
2.50604
2.53788
2.56899
2.59933
2.62885
2.65753
2.68533
2.7122
2.73813
2.76307
2.78699
2.80987
2.83168
2.85239
2.87198
2.89042
2.90769
2.92377
2.93864
2.95229
2.96469
2.97585
2.98573
2.99435
3.00169
3.00775
3.01251
3.01597
3.018
3.01876
3.01836
3.01667
3.01369
3.00946
3.00398
2.99729
2.98939
2.98032
2.97009
2.95874
2.94629
2.93277
2.91822
2.90268
2.88617
2.86873
2.85041
2.83124
2.81126
2.79053
2.76908
2.74697
2.72423
2.70092
2.67708
2.65277
2.62805
2.60297
2.57761
2.55207
2.52644
2.50073
2.47494
2.44911
2.42326
2.39746
2.37176
2.34621
2.32086
2.29578
2.27104
2.24673
2.22297
2.19988
2.17764
2.15529
2.12808
0.017814
0.0443694
0.058116
0.0679578
0.0762945
0.08399
0.0914775
0.0990001
0.106696
0.114637
0.122847
0.131324
0.140048
0.148999
0.158157
0.167513
0.177065
0.186823
0.196803
0.207031
0.217536
0.228352
0.239516
0.251068
0.263048
0.275501
0.28847
0.301996
0.316117
0.330858
0.346229
0.362223
0.378825
0.396019
0.41379
0.432138
0.451065
0.470571
0.490653
0.511302
0.532513
0.554274
0.576568
0.599384
0.622713
0.646557
0.67092
0.695807
0.721227
0.747186
0.77369
0.800746
0.828358
0.856531
0.885268
0.914575
0.944453
0.974904
1.00593
1.03754
1.06972
1.10247
1.1358
1.1697
1.20417
1.23919
1.27477
1.31089
1.34754
1.38472
1.4224
1.46056
1.49921
1.5383
1.57783
1.61776
1.65808
1.69875
1.73976
1.78106
1.82263
1.86443
1.90643
1.94859
1.99088
2.03325
2.07566
2.11807
2.16045
2.20274
2.24491
2.2869
2.32868
2.3702
2.4114
2.45225
2.49269
2.53267
2.57215
2.61108
2.64941
2.68709
2.72408
2.76033
2.79579
2.83042
2.86418
2.89701
2.92888
2.95975
2.98958
3.01833
3.04597
3.07246
3.09777
3.12186
3.14471
3.1663
3.18659
3.20556
3.2232
3.23947
3.25436
3.26787
3.27996
3.29064
3.29989
3.30771
3.3141
3.31904
3.32254
3.32445
3.325
3.32418
3.32193
3.31827
3.31321
3.30677
3.29898
3.28987
3.27945
3.26776
3.25483
3.24069
3.22537
3.20892
3.19136
3.17274
3.15311
3.1325
3.11096
3.08854
3.06528
3.04124
3.01646
2.99101
2.96492
2.93826
2.91108
2.88344
2.8554
2.82705
2.79846
2.76972
2.74086
2.7119
2.68289
2.65387
2.6249
2.59605
2.56737
2.53894
2.51084
2.48315
2.45601
2.42957
2.404
2.37949
2.35517
2.32739
0.0212255
0.05067
0.0658304
0.0766523
0.0857444
0.0940403
0.102009
0.109919
0.117927
0.126129
0.134571
0.143271
0.152231
0.161443
0.170901
0.180603
0.190555
0.20077
0.211267
0.222074
0.233222
0.244746
0.25668
0.269062
0.281926
0.295309
0.309241
0.323754
0.33887
0.354607
0.370976
0.387976
0.405604
0.423851
0.442708
0.462171
0.482234
0.502894
0.52415
0.545997
0.568435
0.591461
0.61507
0.63926
0.664028
0.689375
0.715304
0.74182
0.768932
0.796646
0.82497
0.853911
0.883476
0.913672
0.944505
0.975979
1.0081
1.04087
1.0743
1.10839
1.14313
1.17853
1.21459
1.25131
1.28867
1.32668
1.36533
1.40461
1.44451
1.48501
1.5261
1.56776
1.60998
1.65273
1.69598
1.73972
1.78391
1.82852
1.87352
1.91888
1.96457
2.01053
2.05674
2.10314
2.14971
2.19639
2.24313
2.28989
2.33663
2.38328
2.4298
2.47615
2.52226
2.56808
2.61355
2.65863
2.70326
2.74737
2.79092
2.83385
2.87611
2.91764
2.9584
2.99832
3.03736
3.07547
3.11259
3.14868
3.18369
3.21758
3.25031
3.28182
3.31209
3.34107
3.36873
3.39504
3.41996
3.44346
3.46552
3.48611
3.50522
3.52281
3.53887
3.55338
3.56634
3.57772
3.58753
3.59576
3.6024
3.60745
3.61091
3.61265
3.61292
3.61163
3.60878
3.60438
3.59845
3.59102
3.58211
3.57175
3.55998
3.54682
3.5323
3.51647
3.49936
3.48102
3.46148
3.44078
3.41899
3.39613
3.37227
3.34745
3.32173
3.29515
3.26779
3.23968
3.21089
3.18147
3.1515
3.12102
3.09011
3.05883
3.02728
2.99552
2.9636
2.93157
2.89947
2.86737
2.83532
2.8034
2.77168
2.74025
2.70919
2.67863
2.6487
2.61961
2.59154
2.56466
2.53819
2.50899
0.0242322
0.0560583
0.0724093
0.0840655
0.0938045
0.102615
0.110994
0.119227
0.127489
0.135893
0.144504
0.153359
0.162477
0.171867
0.181531
0.191479
0.201719
0.21227
0.223152
0.234393
0.246023
0.258074
0.27058
0.283573
0.297083
0.31114
0.325767
0.340988
0.356821
0.37328
0.390375
0.40811
0.426487
0.445503
0.465156
0.485442
0.506359
0.527906
0.550081
0.572886
0.596322
0.620391
0.645095
0.670435
0.696413
0.723034
0.750303
0.778227
0.806815
0.836075
0.866016
0.896647
0.927978
0.960017
0.992773
1.02625
1.06046
1.09541
1.1311
1.16753
1.20472
1.24266
1.28134
1.32078
1.36097
1.40189
1.44355
1.48593
1.52902
1.57281
1.61728
1.66241
1.70819
1.75458
1.80156
1.8491
1.89716
1.94573
1.99475
2.04419
2.094
2.14416
2.1946
2.24528
2.29615
2.34717
2.39827
2.44941
2.50052
2.55156
2.60246
2.65317
2.70361
2.75374
2.80349
2.8528
2.9016
2.94984
2.99744
3.04436
3.09052
3.13587
3.18036
3.22392
3.2665
3.30803
3.34847
3.38776
3.42586
3.4627
3.49825
3.53245
3.56528
3.59667
3.6266
3.65504
3.68194
3.70727
3.73101
3.75313
3.77361
3.79243
3.80956
3.825
3.83872
3.85073
3.861
3.86955
3.87636
3.88145
3.88478
3.88631
3.88621
3.8844
3.88088
3.8757
3.86886
3.86039
3.85033
3.83871
3.82555
3.81091
3.7948
3.77728
3.75839
3.73817
3.71666
3.69392
3.67
3.64494
3.6188
3.59163
3.56349
3.53445
3.50454
3.47385
3.44242
3.41033
3.37762
3.34438
3.31066
3.27654
3.24209
3.20739
3.17251
3.13749
3.10239
3.06728
3.03222
2.9973
2.9626
2.92822
2.89426
2.86086
2.82818
2.79642
2.7658
2.73647
2.70767
2.67668
0.0267766
0.0605074
0.0778197
0.0901552
0.100424
0.109658
0.118373
0.126867
0.135329
0.143884
0.152613
0.161569
0.170784
0.18028
0.190072
0.200176
0.210607
0.221384
0.232531
0.244073
0.256038
0.268457
0.281359
0.294773
0.308725
0.323241
0.338342
0.354046
0.37037
0.387326
0.404926
0.423176
0.442081
0.461646
0.48187
0.502757
0.524308
0.546525
0.569411
0.592969
0.617205
0.642124
0.667732
0.694035
0.721039
0.748752
0.777181
0.806338
0.836232
0.866874
0.898276
0.93045
0.963406
0.997155
1.03171
1.06708
1.10327
1.14029
1.17815
1.21686
1.25641
1.29682
1.33808
1.38019
1.42315
1.46695
1.51159
1.55706
1.60334
1.65041
1.69827
1.74688
1.79622
1.84627
1.89699
1.94836
2.00033
2.05287
2.10593
2.15948
2.21346
2.26782
2.32252
2.3775
2.4327
2.48807
2.54354
2.59906
2.65456
2.70997
2.76524
2.82029
2.87506
2.92947
2.98346
3.03696
3.0899
3.1422
3.19381
3.24464
3.29465
3.34375
3.39189
3.43901
3.48503
3.5299
3.57356
3.61596
3.65702
3.69671
3.73498
3.77176
3.80702
3.84071
3.8728
3.90323
3.93199
3.95903
3.98433
4.00786
4.0296
4.04952
4.0676
4.08384
4.09822
4.11073
4.12137
4.13013
4.13702
4.14204
4.14517
4.14641
4.14585
4.14344
4.13921
4.13318
4.12537
4.11583
4.10459
4.09167
4.07712
4.06098
4.04329
4.02409
4.00342
3.98135
3.95791
3.93316
3.90715
3.87993
3.85157
3.82212
3.79165
3.7602
3.72785
3.69465
3.66067
3.62598
3.59063
3.55471
3.51827
3.48139
3.44414
3.40661
3.36885
3.33093
3.29292
3.25489
3.21691
3.17907
3.14147
3.1042
3.0674
3.0312
2.99579
2.96137
2.92816
2.89629
2.86505
2.83221
0.0288284
0.0640264
0.0820791
0.0949377
0.105616
0.115178
0.124152
0.132845
0.141454
0.150113
0.158914
0.167922
0.177183
0.186727
0.19658
0.206763
0.217297
0.228203
0.239506
0.25123
0.263403
0.276049
0.289197
0.302872
0.317097
0.331896
0.347287
0.363288
0.379916
0.397183
0.415102
0.433684
0.452936
0.472867
0.493484
0.514793
0.5368
0.559512
0.582936
0.607081
0.631954
0.657565
0.683923
0.711038
0.738921
0.767583
0.797035
0.827292
0.858367
0.890273
0.923025
0.956637
0.991123
1.0265
1.06277
1.09996
1.13807
1.17711
1.2171
1.25804
1.29993
1.34279
1.3866
1.43138
1.47712
1.52381
1.57145
1.62001
1.66949
1.71988
1.77114
1.82325
1.87619
1.92993
1.98442
2.03964
2.09554
2.15208
2.2092
2.26687
2.32502
2.3836
2.44256
2.50182
2.56134
2.62103
2.68084
2.7407
2.80053
2.86027
2.91984
2.97916
3.03817
3.09677
3.15491
3.21249
3.26945
3.3257
3.38118
3.43581
3.48951
3.54222
3.59387
3.64438
3.69369
3.74174
3.78845
3.83377
3.87764
3.92
3.9608
3.99998
4.0375
4.07331
4.10737
4.13963
4.17007
4.19865
4.22533
4.2501
4.27292
4.29379
4.31267
4.32956
4.34445
4.35732
4.36818
4.37703
4.38387
4.38871
4.39154
4.39239
4.39129
4.38821
4.38318
4.37624
4.36742
4.35676
4.3443
4.33007
4.31412
4.29648
4.27721
4.25635
4.23394
4.21006
4.18473
4.15803
4.13
4.10071
4.07022
4.03857
4.00585
3.9721
3.9374
3.90181
3.8654
3.82822
3.79036
3.75187
3.71283
3.67331
3.63339
3.59315
3.55264
3.51196
3.47116
3.43032
3.38953
3.34888
3.30847
3.26841
3.22884
3.18991
3.1518
3.11474
3.07892
3.04447
3.01073
2.97579
0.0303854
0.0666574
0.0852426
0.0984758
0.109446
0.119241
0.128396
0.137223
0.145925
0.15464
0.16347
0.172487
0.181746
0.191287
0.201145
0.211345
0.221911
0.232868
0.244237
0.256042
0.268309
0.281062
0.294326
0.308123
0.322476
0.337407
0.352936
0.36908
0.385856
0.40328
0.421367
0.440129
0.459581
0.479733
0.500599
0.52219
0.544516
0.567589
0.591421
0.616024
0.64141
0.667592
0.694586
0.722406
0.751066
0.780581
0.810967
0.842241
0.874421
0.907525
0.941568
0.976569
1.01254
1.04951
1.08748
1.12647
1.16649
1.20756
1.24968
1.29287
1.33712
1.38246
1.42887
1.47635
1.52491
1.57453
1.6252
1.67692
1.72965
1.78339
1.8381
1.89376
1.95033
2.00779
2.06608
2.12517
2.18501
2.24554
2.30672
2.36849
2.43078
2.49354
2.5567
2.62018
2.68393
2.74787
2.81192
2.876
2.94004
3.00396
3.06768
3.13112
3.19418
3.2568
3.31888
3.38035
3.44112
3.50111
3.56023
3.61842
3.67558
3.73165
3.78655
3.84021
3.89255
3.94351
3.99302
4.041
4.08741
4.13218
4.17525
4.21657
4.25609
4.29376
4.32954
4.36338
4.39526
4.42513
4.45297
4.47875
4.50244
4.52403
4.54351
4.56085
4.57606
4.58912
4.60004
4.60882
4.61546
4.61999
4.6224
4.62273
4.62101
4.61715
4.61125
4.60334
4.59346
4.58165
4.56795
4.55239
4.53503
4.51592
4.49509
4.47261
4.44852
4.42288
4.39575
4.36718
4.33723
4.30597
4.27345
4.23974
4.2049
4.16899
4.13209
4.09425
4.05555
4.01605
3.97583
3.93494
3.89346
3.85147
3.80904
3.76624
3.72316
3.67987
3.63644
3.59295
3.5495
3.50617
3.46309
3.42036
3.37813
3.33657
3.29585
3.2562
3.21779
3.18078
3.14451
3.10737
0.031469
0.0684725
0.0873968
0.100867
0.112017
0.121953
0.131212
0.140108
0.148845
0.157569
0.166386
0.175376
0.184598
0.194099
0.203915
0.214076
0.22461
0.23554
0.24689
0.258685
0.270947
0.2837
0.296966
0.310769
0.325131
0.340073
0.355617
0.371782
0.388588
0.40605
0.424186
0.443016
0.462557
0.482825
0.503837
0.525612
0.548166
0.571515
0.595674
0.620659
0.646487
0.673175
0.700746
0.729217
0.758608
0.78894
0.820232
0.852505
0.885783
0.920084
0.955431
0.991842
1.02934
1.06793
1.10765
1.1485
1.1905
1.23366
1.27799
1.32351
1.37022
1.41812
1.46721
1.51749
1.56896
1.6216
1.6754
1.73034
1.7864
1.84356
1.90178
1.96103
2.02128
2.08247
2.14457
2.20752
2.27127
2.33577
2.40094
2.46674
2.53308
2.5999
2.66713
2.7347
2.80251
2.8705
2.93859
3.00668
3.07469
3.14254
3.21014
3.27741
3.34424
3.41057
3.47628
3.5413
3.60554
3.66892
3.73133
3.79271
3.85297
3.91204
3.96982
4.02624
4.08124
4.13473
4.18665
4.23693
4.2855
4.3323
4.37728
4.42038
4.46155
4.50073
4.53789
4.57299
4.60598
4.63684
4.66553
4.69203
4.71632
4.73838
4.75819
4.77575
4.79104
4.80408
4.81485
4.82337
4.82965
4.83371
4.83556
4.83525
4.8328
4.82807
4.82122
4.81228
4.80129
4.7883
4.77334
4.75647
4.73772
4.71716
4.69483
4.67079
4.6451
4.6178
4.58897
4.55865
4.52691
4.49382
4.45943
4.42381
4.38703
4.34914
4.31022
4.27033
4.22954
4.18792
4.14554
4.10246
4.05875
4.0145
3.96977
3.92464
3.87919
3.8335
3.78764
3.7417
3.69578
3.64997
3.60439
3.55916
3.51443
3.47036
3.42714
3.38499
3.34408
3.30456
3.26582
3.2265
0.0321246
0.0695546
0.088645
0.102227
0.113455
0.123444
0.13273
0.141631
0.150356
0.159049
0.16782
0.176748
0.185895
0.195311
0.205036
0.215104
0.225544
0.236382
0.247642
0.259347
0.271521
0.284187
0.297367
0.311084
0.325361
0.340223
0.355692
0.371792
0.388547
0.405971
0.424086
0.442914
0.462478
0.482802
0.503912
0.525836
0.548591
0.572196
0.596673
0.622039
0.648312
0.675512
0.70367
0.732814
0.762971
0.794165
0.826423
0.85977
0.894231
0.929831
0.966591
1.00453
1.04368
1.08405
1.12566
1.16852
1.21266
1.25808
1.3048
1.35282
1.40215
1.45278
1.50472
1.55796
1.61249
1.66828
1.72534
1.78362
1.8431
1.90376
1.96555
2.02843
2.09235
2.15728
2.22314
2.2899
2.35748
2.42582
2.49485
2.5645
2.6347
2.70537
2.77643
2.84779
2.91938
2.9911
3.06287
3.1346
3.2062
3.27758
3.34864
3.41929
3.48944
3.559
3.62786
3.69595
3.76316
3.82941
3.8946
3.95866
4.0215
4.08302
4.14316
4.20183
4.25896
4.31447
4.3683
4.42036
4.4706
4.51895
4.56536
4.60977
4.65213
4.69238
4.73049
4.76642
4.80013
4.83158
4.86076
4.88762
4.91216
4.93436
4.95421
4.97169
4.98681
4.99957
5.00997
5.01802
5.02375
5.02716
5.0283
5.02726
5.02392
5.01822
5.01035
5.00033
4.98821
4.97402
4.95781
4.93964
4.91956
4.89761
4.87386
4.84836
4.82117
4.79234
4.76195
4.73004
4.69669
4.66195
4.62589
4.58857
4.55006
4.51042
4.46972
4.42802
4.3854
4.34191
4.29763
4.25262
4.20695
4.1607
4.11394
4.06674
4.01918
3.97135
3.92332
3.87519
3.82704
3.77898
3.73113
3.68361
3.63657
3.59019
3.54464
3.50014
3.45685
3.41493
3.37382
3.33243
0.0323276
0.0699269
0.089059
0.102654
0.113876
0.123844
0.133098
0.141954
0.150616
0.159234
0.167917
0.176753
0.185812
0.195136
0.204764
0.21473
0.225064
0.235792
0.246939
0.258528
0.270584
0.283129
0.296186
0.309782
0.323939
0.338685
0.354043
0.370039
0.386696
0.404041
0.422104
0.440915
0.460501
0.480891
0.50211
0.524189
0.547156
0.571036
0.595855
0.621639
0.648417
0.676218
0.705083
0.73504
0.76612
0.798353
0.831769
0.866399
0.902272
0.939412
0.977843
1.01759
1.05866
1.10109
1.14488
1.19006
1.23664
1.28461
1.334
1.38481
1.43703
1.49067
1.5457
1.60212
1.65991
1.71905
1.77951
1.84126
1.90426
1.96847
2.03385
2.10035
2.16791
2.23648
2.30599
2.37638
2.44758
2.51952
2.59213
2.66532
2.73902
2.81314
2.8876
2.9623
3.03717
3.11211
3.18703
3.26183
3.33642
3.4107
3.48459
3.55798
3.63078
3.70289
3.77422
3.84467
3.91416
3.98258
4.04985
4.11588
4.18058
4.24387
4.30567
4.3659
4.42448
4.48134
4.53641
4.58961
4.64088
4.69016
4.7374
4.78253
4.82551
4.86629
4.90483
4.94108
4.97502
5.0066
5.03582
5.06263
5.08703
5.10899
5.12852
5.14561
5.16025
5.17245
5.18222
5.18958
5.19454
5.19714
5.19741
5.19553
5.19114
5.18442
5.17547
5.16434
5.15106
5.13569
5.11827
5.09886
5.07751
5.05428
5.02922
5.00239
4.97386
4.94368
4.91191
4.87862
4.84387
4.80772
4.77024
4.73149
4.69152
4.65042
4.60823
4.56503
4.52088
4.47583
4.42997
4.38335
4.33605
4.28812
4.23965
4.19071
4.14137
4.09172
4.04183
3.9918
3.94173
3.89171
3.84186
3.79232
3.74324
3.69477
3.64711
3.60046
3.55498
3.51083
3.46752
3.42421
0.0322589
0.0698388
0.0889067
0.102448
0.113615
0.123522
0.132705
0.141479
0.150053
0.158574
0.167151
0.175868
0.184784
0.193953
0.203415
0.213206
0.223358
0.2339
0.244857
0.256255
0.268119
0.280473
0.293345
0.306762
0.320752
0.335345
0.350571
0.366463
0.383055
0.400381
0.418476
0.437372
0.457102
0.477699
0.499196
0.521628
0.545034
0.569452
0.594904
0.621416
0.648999
0.677714
0.707606
0.738713
0.771073
0.804722
0.839696
0.876034
0.913767
0.952914
0.993496
1.03553
1.07903
1.12402
1.17049
1.21847
1.26796
1.31895
1.37146
1.42547
1.48098
1.53796
1.59641
1.65629
1.71758
1.78025
1.84425
1.90954
1.97609
2.04383
2.11272
2.18269
2.25369
2.32564
2.39849
2.47215
2.54656
2.62163
2.69729
2.77346
2.85004
2.92696
3.00412
3.08144
3.15882
3.23618
3.31341
3.39043
3.46715
3.54345
3.61926
3.69448
3.769
3.84274
3.91559
3.98747
4.05829
4.12795
4.19636
4.26344
4.32909
4.39325
4.45582
4.51674
4.57592
4.63329
4.68878
4.74232
4.79385
4.84332
4.89065
4.93581
4.97874
5.0194
5.05774
5.09372
5.12732
5.15851
5.18725
5.21354
5.23735
5.25867
5.27749
5.29382
5.30766
5.31901
5.32789
5.33431
5.33831
5.33991
5.33926
5.33632
5.33081
5.323
5.31295
5.3007
5.2863
5.26979
5.25124
5.23068
5.20819
5.18381
5.15761
5.12965
5.09998
5.06868
5.03579
5.00138
4.96551
4.92825
4.88965
4.84979
4.80871
4.76649
4.72317
4.67883
4.63352
4.5873
4.54024
4.4924
4.44385
4.39464
4.34485
4.29455
4.24381
4.19272
4.14135
4.0898
4.03815
3.98652
3.93502
3.88378
3.83295
3.7827
3.7332
3.68466
3.63722
3.59108
3.54578
3.5008
0.0320373
0.0694866
0.0883648
0.10175
0.112762
0.12251
0.131529
0.140134
0.148534
0.156875
0.165266
0.173789
0.182509
0.191479
0.200746
0.210345
0.220306
0.230658
0.241429
0.252648
0.264343
0.276546
0.289286
0.3026
0.316519
0.331082
0.346323
0.362281
0.378996
0.39651
0.414868
0.434122
0.454309
0.475462
0.497621
0.52082
0.545084
0.570409
0.596885
0.624578
0.653559
0.683867
0.715533
0.748594
0.783085
0.819038
0.856481
0.895433
0.935915
0.977956
1.02158
1.06682
1.11365
1.16206
1.21207
1.26367
1.31685
1.3716
1.4279
1.48573
1.54507
1.60588
1.66814
1.7318
1.79682
1.86315
1.93075
1.99957
2.06954
2.14061
2.21271
2.28579
2.35976
2.43457
2.51013
2.58638
2.66324
2.74063
2.81847
2.89667
2.97516
3.05384
3.13264
3.21147
3.29023
3.36883
3.4472
3.52523
3.60284
3.67993
3.75641
3.83219
3.90718
3.98129
4.05442
4.12649
4.19741
4.26709
4.33544
4.40239
4.46783
4.53171
4.59394
4.65445
4.71317
4.77001
4.82492
4.87783
4.92867
4.9774
5.02396
5.0683
5.11037
5.15013
5.18753
5.22255
5.25515
5.28531
5.313
5.3382
5.36091
5.3811
5.39878
5.41395
5.42662
5.43678
5.44447
5.44969
5.45249
5.45292
5.45124
5.44702
5.44034
5.43139
5.42021
5.40685
5.39136
5.37378
5.35418
5.3326
5.30911
5.28376
5.25661
5.22773
5.19717
5.165
5.13127
5.09604
5.05937
5.02133
4.98197
4.94136
4.89955
4.85659
4.81255
4.76747
4.72141
4.67444
4.62661
4.57797
4.52859
4.47852
4.42784
4.3766
4.32489
4.27277
4.22033
4.16765
4.11483
4.06197
4.00918
3.9566
3.90437
3.85265
3.80163
3.75148
3.70237
3.65449
3.60744
3.56106
0.0315953
0.0687559
0.0873405
0.100491
0.111281
0.120812
0.129619
0.138017
0.146215
0.154358
0.162556
0.170892
0.17943
0.188225
0.197322
0.20676
0.216576
0.226801
0.237469
0.248613
0.260272
0.272482
0.285283
0.298715
0.312825
0.327666
0.343292
0.359738
0.377052
0.39528
0.414461
0.434607
0.455765
0.478026
0.501457
0.52612
0.552077
0.57941
0.60815
0.63835
0.670065
0.703334
0.738189
0.774657
0.812762
0.852523
0.893948
0.937045
0.981816
1.02826
1.07638
1.12611
1.17746
1.23041
1.28495
1.34104
1.39866
1.45778
1.51836
1.58036
1.64373
1.70843
1.77441
1.84162
1.91001
1.97951
2.05009
2.12167
2.19419
2.2676
2.34183
2.41682
2.4925
2.5688
2.64566
2.72301
2.80077
2.87886