/*--------------------------------*- C++ -*----------------------------------*\
  =========                 |
  \\      /  F ield         | OpenFOAM: The Open Source CFD Toolbox
   \\    /   O peration     | Website:  https://openfoam.org
    \\  /    A nd           | Version:  9
     \\/     M anipulation  |
\*---------------------------------------------------------------------------*/
FoamFile
{
    format      ascii;
    class       surfaceScalarField;
    location    "275";
    object      phi;
}
// * * * * * * * * * * * * * * * * * * * * * * * * * * * * * * * * * * * * * //

dimensions      [0 3 -1 0 0 0 0];

internalField   nonuniform List<scalar> 
24170
(
3.12889e-06
5.95164e-08
3.04664e-06
8.22487e-08
2.97355e-06
7.30911e-08
2.90491e-06
6.86366e-08
2.84059e-06
6.4319e-08
2.78328e-06
5.73097e-08
2.73397e-06
4.93077e-08
2.69204e-06
4.1932e-08
2.6564e-06
3.56471e-08
2.62598e-06
3.04115e-08
2.59983e-06
2.61514e-08
2.57711e-06
2.27266e-08
2.55715e-06
1.99588e-08
2.5394e-06
1.77477e-08
2.52348e-06
1.59221e-08
2.50856e-06
1.49143e-08
2.49502e-06
1.35387e-08
1.76455e-08
2.47738e-06
3.45314e-06
2.36255e-08
3.45702e-06
7.83692e-08
3.45055e-06
7.95597e-08
3.4391e-06
8.0089e-08
3.42432e-06
7.90935e-08
3.40708e-06
7.45555e-08
3.38787e-06
6.85167e-08
3.36735e-06
6.24451e-08
3.34622e-06
5.6778e-08
3.32506e-06
5.15733e-08
3.30435e-06
4.68575e-08
3.28438e-06
4.27003e-08
3.26534e-06
3.90016e-08
3.24726e-06
3.58194e-08
3.23027e-06
3.2916e-08
3.21425e-06
3.09326e-08
3.19954e-06
2.82471e-08
2.93269e-08
3.18786e-06
3.66826e-06
1.78804e-08
3.67919e-06
6.74421e-08
3.68542e-06
7.3324e-08
3.68947e-06
7.60436e-08
3.69107e-06
7.74904e-08
3.69011e-06
7.55138e-08
3.68699e-06
7.16436e-08
3.68216e-06
6.72734e-08
3.67602e-06
6.29131e-08
3.66891e-06
5.86909e-08
3.66109e-06
5.46782e-08
3.65281e-06
5.09735e-08
3.64427e-06
4.75409e-08
3.63563e-06
4.44612e-08
3.62697e-06
4.1581e-08
3.6186e-06
3.92992e-08
3.61008e-06
3.67625e-08
3.57448e-08
3.60367e-06
3.92587e-06
1.73947e-08
3.93592e-06
5.73932e-08
3.94258e-06
6.66709e-08
3.94812e-06
7.04968e-08
3.95254e-06
7.30694e-08
3.9555e-06
7.2557e-08
3.95718e-06
6.99635e-08
3.95783e-06
6.66263e-08
3.95763e-06
6.311e-08
3.95674e-06
5.95832e-08
3.95528e-06
5.61314e-08
3.95339e-06
5.28634e-08
3.95116e-06
4.97752e-08
3.94868e-06
4.69359e-08
3.94601e-06
4.42582e-08
3.94336e-06
4.19449e-08
3.94051e-06
3.96129e-08
3.77555e-08
3.9385e-06
4.20819e-06
1.63271e-08
4.21599e-06
4.95992e-08
4.22169e-06
6.0968e-08
4.2268e-06
6.53881e-08
4.23155e-06
6.83145e-08
4.23553e-06
6.85769e-08
4.23871e-06
6.67847e-08
4.2412e-06
6.41361e-08
4.24311e-06
6.12022e-08
4.24453e-06
5.81688e-08
4.24553e-06
5.513e-08
4.2462e-06
5.21918e-08
4.2466e-06
4.93757e-08
4.2468e-06
4.67336e-08
4.24684e-06
4.42223e-08
4.24685e-06
4.19328e-08
4.24678e-06
3.96838e-08
3.75497e-08
4.24698e-06
4.51069e-06
1.47251e-08
4.51689e-06
4.34004e-08
4.52214e-06
5.57138e-08
4.52696e-06
6.0567e-08
4.53168e-06
6.35948e-08
4.53594e-06
6.43191e-08
4.53962e-06
6.30999e-08
4.5428e-06
6.09612e-08
4.54554e-06
5.84631e-08
4.5479e-06
5.58031e-08
4.54995e-06
5.30856e-08
4.55173e-06
5.04088e-08
4.55329e-06
4.78122e-08
4.55469e-06
4.53332e-08
4.55596e-06
4.29547e-08
4.55719e-06
4.07081e-08
4.55837e-06
3.85e-08
3.62904e-08
4.55963e-06
4.83431e-06
1.3137e-08
4.83963e-06
3.80762e-08
4.84476e-06
5.05841e-08
4.84947e-06
5.58584e-08
4.85411e-06
5.89546e-08
4.85844e-06
5.99925e-08
4.86232e-06
5.92164e-08
4.8658e-06
5.74825e-08
4.86893e-06
5.53316e-08
4.87176e-06
5.29725e-08
4.87433e-06
5.05176e-08
4.87668e-06
4.8059e-08
4.87884e-06
4.56461e-08
4.88087e-06
4.33083e-08
4.88278e-06
4.10419e-08
4.88464e-06
3.88507e-08
4.88646e-06
3.66818e-08
3.448e-08
4.88827e-06
5.18103e-06
1.16858e-08
5.18576e-06
3.33513e-08
5.19076e-06
4.55766e-08
5.19542e-06
5.12009e-08
5.20001e-06
5.43614e-08
5.20438e-06
5.56241e-08
5.20839e-06
5.52091e-08
5.21205e-06
5.38186e-08
5.21542e-06
5.19633e-08
5.21853e-06
4.98627e-08
5.22141e-06
4.76346e-08
5.2241e-06
4.53676e-08
5.22664e-06
4.31159e-08
5.22904e-06
4.09062e-08
5.23134e-06
3.87418e-08
5.23357e-06
3.66173e-08
5.23575e-06
3.45002e-08
3.23496e-08
5.23788e-06
5.55268e-06
1.0339e-08
5.55689e-06
2.91448e-08
5.5617e-06
4.07644e-08
5.56632e-06
4.65861e-08
5.57089e-06
4.97897e-08
5.5753e-06
5.12102e-08
5.57942e-06
5.10937e-08
5.58323e-06
5.00058e-08
5.58678e-06
4.84145e-08
5.5901e-06
4.6547e-08
5.59321e-06
4.45246e-08
5.59614e-06
4.24341e-08
5.59892e-06
4.03315e-08
5.60158e-06
3.82445e-08
5.60415e-06
3.61807e-08
5.60663e-06
3.4135e-08
5.60904e-06
3.20871e-08
3.00165e-08
5.61137e-06
5.95104e-06
9.07996e-09
5.95479e-06
2.53927e-08
5.95936e-06
3.61864e-08
5.96393e-06
4.20245e-08
5.96848e-06
4.52356e-08
5.97293e-06
4.67572e-08
5.97715e-06
4.68807e-08
5.98109e-06
4.60589e-08
5.9848e-06
4.47075e-08
5.98829e-06
4.30553e-08
5.99159e-06
4.12258e-08
5.99472e-06
3.93038e-08
5.9977e-06
3.7346e-08
6.00057e-06
3.53824e-08
6.00332e-06
3.34243e-08
6.00599e-06
3.14711e-08
6.00856e-06
2.95116e-08
2.75426e-08
6.01104e-06
6.37798e-06
7.91031e-09
6.38135e-06
2.20278e-08
6.38568e-06
3.18537e-08
6.39017e-06
3.75334e-08
6.3947e-06
4.0705e-08
6.39918e-06
4.22778e-08
6.40348e-06
4.25829e-08
6.40755e-06
4.19889e-08
6.4114e-06
4.0855e-08
6.41505e-06
3.94031e-08
6.41852e-06
3.77572e-08
6.42182e-06
3.59997e-08
6.42498e-06
3.41871e-08
6.42801e-06
3.23516e-08
6.43093e-06
3.05086e-08
6.43374e-06
2.86625e-08
6.43644e-06
2.68099e-08
2.49602e-08
6.43902e-06
5.74176e-06
6.9845e-09
5.74434e-06
1.94441e-08
5.74782e-06
2.83813e-08
5.75155e-06
3.38014e-08
5.75535e-06
3.68978e-08
5.75915e-06
3.84803e-08
5.76284e-06
3.88946e-08
5.76637e-06
3.84615e-08
5.76973e-06
3.74938e-08
5.77293e-06
3.62005e-08
5.77598e-06
3.47036e-08
5.7789e-06
3.30835e-08
5.78169e-06
3.13958e-08
5.78437e-06
2.96741e-08
5.78694e-06
2.7937e-08
5.78941e-06
2.61931e-08
5.79178e-06
2.4444e-08
2.27077e-08
5.79403e-06
6.99914e-06
6.00094e-09
7.00187e-06
1.67103e-08
7.00564e-06
2.46138e-08
7.00981e-06
2.96302e-08
7.01414e-06
3.25727e-08
7.0185e-06
3.41206e-08
7.02277e-06
3.46152e-08
7.0269e-06
3.43309e-08
7.03087e-06
3.35314e-08
7.03466e-06
3.24067e-08
7.03829e-06
3.10738e-08
7.04176e-06
2.96097e-08
7.04509e-06
2.80682e-08
7.04828e-06
2.64842e-08
7.05134e-06
2.48785e-08
7.05427e-06
2.32646e-08
7.05707e-06
2.16476e-08
2.00524e-08
7.05972e-06
8.53188e-06
4.9675e-09
8.53474e-06
1.38537e-08
8.53877e-06
2.05793e-08
8.54337e-06
2.50274e-08
8.54823e-06
2.77118e-08
8.55319e-06
2.91622e-08
8.55812e-06
2.96914e-08
8.56292e-06
2.95302e-08
8.56756e-06
2.88919e-08
8.57202e-06
2.79411e-08
8.57631e-06
2.67855e-08
8.58042e-06
2.54971e-08
8.58436e-06
2.41262e-08
8.58814e-06
2.27077e-08
8.59176e-06
2.12645e-08
8.59521e-06
1.98129e-08
8.59849e-06
1.83615e-08
1.69384e-08
8.60161e-06
1.04003e-05
3.89342e-09
1.04033e-05
1.08937e-08
1.04075e-05
1.62998e-08
1.04126e-05
2.00023e-08
1.0418e-05
2.22997e-08
1.04236e-05
2.3569e-08
1.04292e-05
2.40706e-08
1.04347e-05
2.39917e-08
1.04401e-05
2.34969e-08
1.04453e-05
2.2719e-08
1.04504e-05
2.17517e-08
1.04552e-05
2.06583e-08
1.04599e-05
1.94848e-08
1.04643e-05
1.82633e-08
1.04685e-05
1.70176e-08
1.04726e-05
1.57647e-08
1.04764e-05
1.45157e-08
1.32984e-08
1.04801e-05
1.26779e-05
2.78374e-09
1.2681e-05
7.82504e-09
1.26855e-05
1.17743e-08
1.26909e-05
1.45499e-08
1.26969e-05
1.631e-08
1.27032e-05
1.72936e-08
1.27096e-05
1.76907e-08
1.27159e-05
1.76403e-08
1.27222e-05
1.726e-08
1.27282e-05
1.66477e-08
1.27341e-05
1.58762e-08
1.27398e-05
1.49974e-08
1.27452e-05
1.40487e-08
1.27504e-05
1.30587e-08
1.27554e-05
1.20479e-08
1.27601e-05
1.10332e-08
1.27646e-05
1.00247e-08
9.04928e-09
1.27689e-05
1.54543e-05
1.62786e-09
1.54576e-05
4.60206e-09
1.54624e-05
6.94602e-09
1.54683e-05
8.61153e-09
1.5475e-05
9.67039e-09
1.5482e-05
1.02478e-08
1.54892e-05
1.04531e-08
1.54965e-05
1.03703e-08
1.55037e-05
1.00699e-08
1.55107e-05
9.61182e-09
1.55176e-05
9.04306e-09
1.55242e-05
8.3986e-09
1.55305e-05
7.70469e-09
1.55366e-05
6.98186e-09
1.55424e-05
6.24603e-09
1.55479e-05
5.51037e-09
1.55532e-05
4.7829e-09
4.08637e-09
1.55581e-05
1.88389e-05
3.85925e-10
1.88424e-05
1.10075e-09
1.88477e-05
1.64192e-09
1.88543e-05
1.99721e-09
1.88618e-05
2.18452e-09
1.88698e-05
2.23166e-09
1.88781e-05
2.1605e-09
1.88865e-05
1.99082e-09
1.88948e-05
1.74286e-09
1.8903e-05
1.43517e-09
1.89109e-05
1.08328e-09
1.89186e-05
7.00139e-10
1.8926e-05
2.96853e-10
1.89331e-05
-1.17016e-10
1.89399e-05
-5.3336e-10
1.89464e-05
-9.44815e-10
1.89525e-05
-1.34719e-09
-1.72337e-09
1.89583e-05
2.29648e-05
-1.04299e-09
2.29688e-05
-2.96747e-09
2.2975e-05
-4.55693e-09
2.29828e-05
-5.76851e-09
2.29916e-05
-6.62477e-09
2.3001e-05
-7.21168e-09
2.30108e-05
-7.61685e-09
2.30207e-05
-7.89459e-09
2.30305e-05
-8.08182e-09
2.30402e-05
-8.20931e-09
2.30496e-05
-8.301e-09
2.30586e-05
-8.37091e-09
2.30674e-05
-8.42718e-09
2.30757e-05
-8.47373e-09
2.30837e-05
-8.51284e-09
2.30913e-05
-8.54438e-09
2.30985e-05
-8.56929e-09
-8.57704e-09
2.31054e-05
1.68118e-05
-2.16445e-09
1.6815e-05
-6.13502e-09
1.68198e-05
-9.38176e-09
1.68258e-05
-1.17593e-08
1.68325e-05
-1.33279e-08
1.68396e-05
-1.4316e-08
1.68469e-05
-1.49105e-08
1.68542e-05
-1.52157e-08
1.68615e-05
-1.53101e-08
1.68685e-05
-1.52662e-08
1.68753e-05
-1.5136e-08
1.68819e-05
-1.4953e-08
1.68882e-05
-1.47372e-08
1.68943e-05
-1.45032e-08
1.69e-05
-1.42588e-08
1.69055e-05
-1.40095e-08
1.69107e-05
-1.37581e-08
-1.34989e-08
1.69156e-05
1.46356e-05
-3.24143e-09
1.46387e-05
-9.21832e-09
1.46434e-05
-1.40917e-08
1.46492e-05
-1.74968e-08
1.46555e-05
-1.96071e-08
1.4662e-05
-2.08722e-08
1.46687e-05
-2.15627e-08
1.46753e-05
-2.18141e-08
1.46817e-05
-2.17578e-08
1.4688e-05
-2.151e-08
1.4694e-05
-2.11465e-08
1.46997e-05
-2.07118e-08
1.47052e-05
-2.02362e-08
1.47105e-05
-1.97406e-08
1.47154e-05
-1.92386e-08
1.47202e-05
-1.87374e-08
1.47246e-05
-1.82424e-08
-1.77494e-08
1.47289e-05
1.27411e-05
-4.24978e-09
1.27443e-05
-1.23423e-08
1.27491e-05
-1.89184e-08
1.27547e-05
-2.31377e-08
1.27607e-05
-2.5581e-08
1.27669e-05
-2.70226e-08
1.2773e-05
-2.77254e-08
1.2779e-05
-2.78389e-08
1.27849e-05
-2.75701e-08
1.27904e-05
-2.70843e-08
1.27958e-05
-2.64711e-08
1.28008e-05
-2.57819e-08
1.28056e-05
-2.5054e-08
1.28102e-05
-2.43127e-08
1.28145e-05
-2.35739e-08
1.28187e-05
-2.28455e-08
1.28225e-05
-2.21329e-08
-2.14329e-08
1.28262e-05
1.10918e-05
-5.09096e-09
1.1095e-05
-1.5561e-08
1.11001e-05
-2.40418e-08
1.11057e-05
-2.87582e-08
1.11115e-05
-3.13104e-08
1.11173e-05
-3.28287e-08
1.1123e-05
-3.34447e-08
1.11285e-05
-3.33405e-08
1.11337e-05
-3.28185e-08
1.11387e-05
-3.2076e-08
1.11435e-05
-3.12046e-08
1.11479e-05
-3.02611e-08
1.11522e-05
-2.92885e-08
1.11562e-05
-2.83156e-08
1.116e-05
-2.73574e-08
1.11635e-05
-2.64223e-08
1.11669e-05
-2.5514e-08
-2.46309e-08
1.11701e-05
9.65581e-06
-5.68979e-09
9.65924e-06
-1.89874e-08
9.66458e-06
-2.93856e-08
9.67008e-06
-3.42517e-08
9.67563e-06
-3.68625e-08
9.68118e-06
-3.83803e-08
9.6865e-06
-3.87685e-08
9.69152e-06
-3.83585e-08
9.69626e-06
-3.75527e-08
9.70072e-06
-3.65451e-08
9.70493e-06
-3.54148e-08
9.70889e-06
-3.42211e-08
9.71262e-06
-3.30118e-08
9.71612e-06
-3.18161e-08
9.71941e-06
-3.06493e-08
9.7225e-06
-2.95185e-08
9.72542e-06
-2.84258e-08
-2.73678e-08
9.72815e-06
8.4053e-06
-5.6356e-09
8.40963e-06
-2.33232e-08
8.41487e-06
-3.46205e-08
8.41989e-06
-3.92751e-08
8.42525e-06
-4.22219e-08
8.43065e-06
-4.37805e-08
8.43573e-06
-4.38454e-08
8.44042e-06
-4.30552e-08
8.44478e-06
-4.1912e-08
8.44883e-06
-4.05917e-08
8.45258e-06
-3.91644e-08
8.45605e-06
-3.76922e-08
8.45926e-06
-3.62246e-08
8.46224e-06
-3.47896e-08
8.46499e-06
-3.34021e-08
8.46754e-06
-3.20685e-08
8.4699e-06
-3.07908e-08
-2.95653e-08
8.4721e-06
7.3145e-06
-2.85209e-09
7.32119e-06
-3.00114e-08
7.32674e-06
-4.01718e-08
7.33168e-06
-4.42195e-08
7.33708e-06
-4.76134e-08
7.34239e-06
-4.90944e-08
7.34726e-06
-4.87154e-08
7.35166e-06
-4.74598e-08
7.35563e-06
-4.58814e-08
7.35918e-06
-4.41382e-08
7.36233e-06
-4.23115e-08
7.36511e-06
-4.0474e-08
7.36756e-06
-3.86777e-08
7.36972e-06
-3.69472e-08
7.37161e-06
-3.52974e-08
7.37328e-06
-3.37315e-08
7.37473e-06
-3.22497e-08
-3.08426e-08
7.37601e-06
6.36243e-06
4.78074e-09
6.37189e-06
-3.94734e-08
6.37932e-06
-4.75948e-08
6.38595e-06
-5.08534e-08
6.39223e-06
-5.38903e-08
6.39754e-06
-5.44018e-08
6.40182e-06
-5.30033e-08
6.4053e-06
-5.09334e-08
6.40809e-06
-4.86742e-08
6.41027e-06
-4.63153e-08
6.41189e-06
-4.39363e-08
6.41303e-06
-4.16132e-08
6.41375e-06
-3.93968e-08
6.41411e-06
-3.73059e-08
6.41416e-06
-3.53527e-08
6.41397e-06
-3.35353e-08
6.41357e-06
-3.1854e-08
-3.0288e-08
6.41302e-06
5.54129e-06
8.95216e-09
5.55032e-06
-4.85022e-08
5.55833e-06
-5.56065e-08
5.56604e-06
-5.85572e-08
5.57249e-06
-6.03477e-08
5.57681e-06
-5.87229e-08
5.57905e-06
-5.52396e-08
5.5796e-06
-5.14873e-08
5.57885e-06
-4.79151e-08
5.57705e-06
-4.45237e-08
5.57445e-06
-4.13362e-08
5.57123e-06
-3.83932e-08
5.56754e-06
-3.57027e-08
5.56349e-06
-3.32587e-08
5.55919e-06
-3.10529e-08
5.55473e-06
-2.90744e-08
5.5502e-06
-2.73236e-08
-2.57469e-08
5.54566e-06
4.86019e-06
-2.36309e-08
4.86538e-06
-5.36931e-08
4.86523e-06
-5.54567e-08
4.86217e-06
-5.54926e-08
4.85699e-06
-5.51731e-08
4.84948e-06
-5.12172e-08
4.83979e-06
-4.55429e-08
4.82839e-06
-4.00898e-08
4.81581e-06
-3.53327e-08
4.80252e-06
-3.12399e-08
4.78892e-06
-2.77321e-08
4.77528e-06
-2.47495e-08
4.76178e-06
-2.2212e-08
4.74858e-06
-2.00542e-08
4.73575e-06
-1.82201e-08
4.72336e-06
-1.66861e-08
4.71152e-06
-1.54887e-08
-1.51389e-08
4.70092e-06
4.17905e-06
4.12535e-06
4.0699e-06
4.0144e-06
3.95923e-06
3.90801e-06
3.86247e-06
3.82238e-06
3.78705e-06
3.75581e-06
3.72807e-06
3.70333e-06
3.68111e-06
3.66106e-06
3.64284e-06
3.62615e-06
3.61066e-06
3.59553e-06
1.11274e-08
-1.11479e-08
2.44162e-08
-1.33234e-08
3.39829e-08
-9.59113e-09
3.83423e-08
-4.38825e-09
3.74221e-08
9.01256e-10
3.18372e-08
5.5568e-09
2.25708e-08
9.2526e-09
1.05281e-08
1.20151e-08
-3.52485e-09
1.40427e-08
-1.91534e-08
1.56036e-08
-3.60431e-08
1.68838e-08
-5.40503e-08
1.79863e-08
-7.30505e-08
1.8997e-08
-9.30235e-08
1.99562e-08
-1.13906e-07
2.08813e-08
-1.35693e-07
2.17742e-08
-1.58324e-07
2.2633e-08
-1.81786e-07
2.34517e-08
-2.06012e-07
2.42267e-08
-2.30978e-07
2.49551e-08
-2.56616e-07
2.56396e-08
-2.82917e-07
2.62868e-08
-3.0983e-07
2.69127e-08
-3.37385e-07
2.75353e-08
-3.6557e-07
2.81833e-08
-3.94497e-07
2.89056e-08
-4.24228e-07
2.97318e-08
-4.54861e-07
3.06134e-08
-4.86425e-07
3.15636e-08
-5.19133e-07
3.26929e-08
-5.5323e-07
3.40989e-08
-5.89004e-07
3.5766e-08
-6.24824e-07
3.58234e-08
-6.58598e-07
3.37701e-08
-6.92651e-07
3.40571e-08
-7.29575e-07
3.692e-08
-7.69196e-07
3.96244e-08
-8.15623e-07
4.64201e-08
-8.54016e-07
3.83944e-08
-8.9193e-07
3.79049e-08
-9.39817e-07
4.78884e-08
-9.91853e-07
5.20271e-08
-1.03724e-06
4.53893e-08
-1.07197e-06
3.47159e-08
-1.11114e-06
3.9179e-08
-1.15284e-06
4.16872e-08
-1.19579e-06
4.296e-08
-1.23931e-06
4.35123e-08
-1.28302e-06
4.3707e-08
-1.32674e-06
4.37134e-08
-1.37035e-06
4.36183e-08
-1.41382e-06
4.34577e-08
-1.45708e-06
4.32562e-08
-1.50011e-06
4.30239e-08
-1.54288e-06
4.27689e-08
-1.58538e-06
4.24927e-08
-1.62758e-06
4.21983e-08
-1.66947e-06
4.18839e-08
-1.71102e-06
4.15506e-08
-1.75222e-06
4.11951e-08
-1.79304e-06
4.08174e-08
-1.83346e-06
4.04143e-08
-1.87345e-06
3.99854e-08
-1.91298e-06
3.95268e-08
-1.95202e-06
3.90386e-08
-1.99054e-06
3.85169e-08
-2.0285e-06
3.79621e-08
-2.06588e-06
3.73705e-08
-2.10262e-06
3.67429e-08
-2.13871e-06
3.60759e-08
-2.17407e-06
3.53704e-08
-2.2087e-06
3.46236e-08
-2.24254e-06
3.38366e-08
-2.27555e-06
3.30067e-08
-2.30769e-06
3.21356e-08
-2.33892e-06
3.12209e-08
-2.36918e-06
3.02645e-08
-2.39846e-06
2.92647e-08
-2.42668e-06
2.82236e-08
-2.45383e-06
2.71392e-08
-2.47984e-06
2.60139e-08
-2.50469e-06
2.48461e-08
-2.52833e-06
2.36383e-08
-2.55072e-06
2.23883e-08
-2.57182e-06
2.10988e-08
-2.5916e-06
1.9768e-08
-2.60999e-06
1.83981e-08
-2.62698e-06
1.69865e-08
-2.6425e-06
1.55333e-08
-2.65653e-06
1.40351e-08
-2.66901e-06
1.24866e-08
-2.67988e-06
1.08831e-08
-2.6891e-06
9.21847e-09
-2.69658e-06
7.4841e-09
-2.70225e-06
5.66463e-09
-2.70599e-06
3.74349e-09
-2.70773e-06
1.73327e-09
-2.70746e-06
-2.6829e-10
-2.70538e-06
-2.08025e-09
-2.70166e-06
-3.71983e-09
-2.69634e-06
-5.32452e-09
-2.68943e-06
-6.92159e-09
-2.68091e-06
-8.52269e-09
-2.6708e-06
-1.01306e-08
-2.65907e-06
-1.1743e-08
-2.64572e-06
-1.33602e-08
-2.63075e-06
-1.49783e-08
-2.61417e-06
-1.65977e-08
-2.59596e-06
-1.82145e-08
-2.57614e-06
-1.98291e-08
-2.55471e-06
-2.14377e-08
-2.53167e-06
-2.30407e-08
-2.50704e-06
-2.4634e-08
-2.48082e-06
-2.62179e-08
-2.45303e-06
-2.77883e-08
-2.42369e-06
-2.93454e-08
-2.3928e-06
-3.08851e-08
-2.36039e-06
-3.24073e-08
-2.32647e-06
-3.3908e-08
-2.29108e-06
-3.53869e-08
-2.25423e-06
-3.68407e-08
-2.21596e-06
-3.82683e-08
-2.17629e-06
-3.9666e-08
-2.13525e-06
-4.10324e-08
-2.09288e-06
-4.23641e-08
-2.04921e-06
-4.36608e-08
-2.00428e-06
-4.49205e-08
-1.95813e-06
-4.61408e-08
-1.91079e-06
-4.73218e-08
-1.86231e-06
-4.84646e-08
-1.81273e-06
-4.95642e-08
-1.7621e-06
-5.06118e-08
-1.71048e-06
-5.16075e-08
-1.6579e-06
-5.25579e-08
-1.60443e-06
-5.34611e-08
-1.55011e-06
-5.43093e-08
-1.49499e-06
-5.51041e-08
-1.43915e-06
-5.58435e-08
-1.38262e-06
-5.65296e-08
-1.32547e-06
-5.71593e-08
-1.26776e-06
-5.77327e-08
-1.20953e-06
-5.82476e-08
-1.15085e-06
-5.87045e-08
-1.09177e-06
-5.91034e-08
-1.03235e-06
-5.94456e-08
-9.72643e-07
-5.97315e-08
-9.12708e-07
-5.99625e-08
-8.52597e-07
-6.01393e-08
-7.92362e-07
-6.02635e-08
-7.32056e-07
-6.03362e-08
-6.71726e-07
-6.03597e-08
-6.11423e-07
-6.03351e-08
-5.51189e-07
-6.02649e-08
-4.91072e-07
-6.01507e-08
-4.31109e-07
-5.99947e-08
-3.71343e-07
-5.97988e-08
-3.11812e-07
-5.95633e-08
-2.52555e-07
-5.92903e-08
-1.93608e-07
-5.89782e-08
-1.35007e-07
-5.86314e-08
-7.67805e-08
-5.82557e-08
-1.90167e-08
-5.77927e-08
3.82839e-08
-5.73261e-08
9.51213e-08
-5.68619e-08
1.51404e-07
-5.63029e-08
2.07106e-07
-5.57218e-08
2.62253e-07
-5.51624e-08
3.1686e-07
-5.46218e-08
3.7094e-07
-5.40903e-08
4.2449e-07
-5.35599e-08
4.77499e-07
-5.30143e-08
5.29927e-07
-5.24328e-08
5.81699e-07
-5.17731e-08
6.32664e-07
-5.09647e-08
6.82532e-07
-4.98634e-08
7.30712e-07
-4.81742e-08
7.75931e-07
-4.52083e-08
8.15062e-07
-3.91197e-08
8.40219e-07
-2.5145e-08
1.91487e-08
8.21076e-07
9.01792e-09
-2.0183e-08
1.20762e-08
-1.64047e-08
1.04425e-08
-7.97125e-09
5.60006e-09
4.39994e-10
-1.77738e-09
8.26881e-09
-1.14941e-08
1.52609e-08
-2.35051e-08
2.12555e-08
-3.77273e-08
2.62255e-08
-5.39708e-08
3.02798e-08
-7.19866e-08
3.36084e-08
-9.15223e-08
3.64142e-08
-1.12414e-07
3.88679e-08
-1.34517e-07
4.1096e-08
-1.57749e-07
4.31805e-08
-1.8204e-07
4.51699e-08
-2.07363e-07
4.70902e-08
-2.33686e-07
4.89554e-08
-2.61012e-07
5.07728e-08
-2.89335e-07
5.25488e-08
-3.18677e-07
5.42916e-08
-3.49052e-07
5.60133e-08
-3.80503e-07
5.77311e-08
-4.1306e-07
5.94677e-08
-4.46784e-07
6.12496e-08
-4.8171e-07
6.31062e-08
-5.17884e-07
6.50689e-08
-5.55325e-07
6.71693e-08
-5.94143e-07
6.94214e-08
-6.34385e-07
7.18032e-08
-6.75926e-07
7.42271e-08
-7.18338e-07
7.65094e-08
-7.60947e-07
7.83705e-08
-8.04385e-07
7.92617e-08
-8.50091e-07
7.9474e-08
-8.96605e-07
8.05721e-08
-9.42066e-07
8.23788e-08
-9.86507e-07
8.40661e-08
-1.02579e-06
8.57033e-08
-1.07244e-06
8.50401e-08
-1.12007e-06
8.55313e-08
-1.16137e-06
8.91823e-08
-1.19984e-06
9.04927e-08
-1.24238e-06
8.79327e-08
-1.29183e-06
8.41638e-08
-1.33618e-06
8.35269e-08
-1.37802e-06
8.35191e-08
-1.41857e-06
8.3511e-08
-1.45841e-06
8.33582e-08
-1.49777e-06
8.30602e-08
-1.53671e-06
8.26547e-08
-1.57527e-06
8.21746e-08
-1.61345e-06
8.16399e-08
-1.65126e-06
8.10638e-08
-1.68869e-06
8.04528e-08
-1.72574e-06
7.98105e-08
-1.76239e-06
7.91373e-08
-1.79862e-06
7.84323e-08
-1.83443e-06
7.76932e-08
-1.8698e-06
7.69174e-08
-1.90471e-06
7.61012e-08
-1.93914e-06
7.52416e-08
-1.97306e-06
7.43346e-08
-2.00646e-06
7.33769e-08
-2.0393e-06
7.23648e-08
-2.07156e-06
7.12953e-08
-2.10321e-06
7.01649e-08
-2.13422e-06
6.89713e-08
-2.16456e-06
6.77115e-08
-2.1942e-06
6.63837e-08
-2.22311e-06
6.49854e-08
-2.25126e-06
6.35156e-08
-2.27861e-06
6.19721e-08
-2.30513e-06
6.03545e-08
-2.33079e-06
5.86613e-08
-2.35555e-06
5.68924e-08
-2.37938e-06
5.5047e-08
-2.40224e-06
5.31257e-08
-2.42411e-06
5.11283e-08
-2.44494e-06
4.90554e-08
-2.46471e-06
4.69071e-08
-2.48338e-06
4.46846e-08
-2.50093e-06
4.23882e-08
-2.51731e-06
4.00192e-08
-2.5325e-06
3.75778e-08
-2.54647e-06
3.50658e-08
-2.55919e-06
3.24835e-08
-2.57062e-06
2.98328e-08
-2.58075e-06
2.71136e-08
-2.58954e-06
2.4327e-08
-2.59697e-06
2.14721e-08
-2.60302e-06
1.85489e-08
-2.6077e-06
1.55583e-08
-2.61098e-06
1.25023e-08
-2.61288e-06
9.38469e-09
-2.61343e-06
6.21297e-09
-2.6127e-06
3.01063e-09
-2.61079e-06
-1.78912e-10
-2.60774e-06
-3.31817e-09
-2.60339e-06
-6.43106e-09
-2.59755e-06
-9.55575e-09
-2.59019e-06
-1.26962e-08
-2.58126e-06
-1.58518e-08
-2.57077e-06
-1.9024e-08
-2.5587e-06
-2.22107e-08
-2.54504e-06
-2.54091e-08
-2.52979e-06
-2.86155e-08
-2.51296e-06
-3.1826e-08
-2.49452e-06
-3.50374e-08
-2.4745e-06
-3.82457e-08
-2.45288e-06
-4.1448e-08
-2.42968e-06
-4.46402e-08
-2.40491e-06
-4.78191e-08
-2.37856e-06
-5.09806e-08
-2.35066e-06
-5.41215e-08
-2.32121e-06
-5.72373e-08
-2.29023e-06
-6.03248e-08
-2.25773e-06
-6.33794e-08
-2.22374e-06
-6.63973e-08
-2.18827e-06
-6.93741e-08
-2.15135e-06
-7.23062e-08
-2.113e-06
-7.51892e-08
-2.07324e-06
-7.80189e-08
-2.03212e-06
-8.079e-08
-1.98965e-06
-8.34979e-08
-1.94587e-06
-8.61378e-08
-1.90082e-06
-8.87066e-08
-1.85454e-06
-9.12007e-08
-1.80705e-06
-9.3618e-08
-1.75841e-06
-9.59565e-08
-1.70865e-06
-9.82151e-08
-1.65781e-06
-1.00387e-07
-1.60596e-06
-1.02459e-07
-1.55313e-06
-1.04429e-07
-1.49937e-06
-1.06305e-07
-1.44474e-06
-1.08084e-07
-1.38928e-06
-1.09756e-07
-1.33306e-06
-1.11319e-07
-1.27614e-06
-1.12772e-07
-1.21855e-06
-1.14115e-07
-1.16037e-06
-1.15347e-07
-1.10165e-06
-1.16464e-07
-1.04245e-06
-1.17467e-07
-9.82811e-07
-1.18352e-07
-9.22804e-07
-1.19123e-07
-8.62484e-07
-1.1978e-07
-8.01906e-07
-1.20325e-07
-7.41124e-07
-1.20759e-07
-6.80194e-07
-1.21086e-07
-6.19167e-07
-1.21306e-07
-5.58096e-07
-1.21425e-07
-4.97028e-07
-1.21444e-07
-4.36014e-07
-1.21368e-07
-3.75096e-07
-1.21199e-07
-3.14322e-07
-1.20944e-07
-2.5373e-07
-1.20604e-07
-1.93362e-07
-1.20185e-07
-1.33256e-07
-1.19687e-07
-7.34475e-08
-1.19117e-07
-1.39681e-08
-1.18475e-07
4.51549e-08
-1.17771e-07
1.03892e-07
-1.17008e-07
1.6225e-07
-1.16166e-07
2.20168e-07
-1.15257e-07
2.77561e-07
-1.14267e-07
3.34451e-07
-1.13205e-07
3.90854e-07
-1.12135e-07
4.46773e-07
-1.1109e-07
5.02214e-07
-1.10069e-07
5.57179e-07
-1.09062e-07
6.11666e-07
-1.08051e-07
6.65659e-07
-1.0701e-07
7.19118e-07
-1.05893e-07
7.71966e-07
-1.04621e-07
8.24055e-07
-1.0305e-07
8.75104e-07
-1.00909e-07
9.24605e-07
-9.76681e-08
9.71528e-07
-9.21231e-08
1.01426e-06
-8.18398e-08
1.04952e-06
-6.03939e-08
-9.06483e-09
1.07774e-06
2.89184e-10
-2.04841e-08
-5.62346e-09
-1.05069e-08
-1.42066e-08
6.03667e-10
-2.44858e-08
1.07112e-08
-3.6122e-08
1.98994e-08
-4.90644e-08
2.81961e-08
-6.33871e-08
3.55737e-08
-7.91956e-08
4.2027e-08
-9.65362e-08
4.76162e-08
-1.15396e-07
5.24616e-08
-1.357e-07
5.67145e-08
-1.57363e-07
6.05245e-08
-1.80289e-07
6.40191e-08
-2.0441e-07
6.72958e-08
-2.29665e-07
7.04233e-08
-2.56027e-07
7.34478e-08
-2.83473e-07
7.63998e-08
-3.12004e-07
7.93004e-08
-3.41621e-07
8.21657e-08
-3.72343e-07
8.50105e-08
-4.0418e-07
8.78496e-08
-4.37152e-07
9.06988e-08
-4.7126e-07
9.35745e-08
-5.06508e-07
9.64916e-08
-5.42865e-07
9.94616e-08
-5.80289e-07
1.02487e-07
-6.18676e-07
1.05555e-07
-6.57883e-07
1.08622e-07
-6.9769e-07
1.11609e-07
-7.37862e-07
1.14394e-07
-7.7817e-07
1.16816e-07
-8.18498e-07
1.18695e-07
-8.59149e-07
1.19912e-07
-9.00339e-07
1.20663e-07
-9.41271e-07
1.21503e-07
-9.8135e-07
1.22456e-07
-1.02048e-06
1.23192e-07
-1.05856e-06
1.2378e-07
-1.09753e-06
1.24009e-07
-1.13632e-06
1.24326e-07
-1.17218e-06
1.25035e-07
-1.20667e-06
1.24986e-07
-1.24248e-06
1.23741e-07
-1.28029e-06
1.21972e-07
-1.3175e-06
1.20734e-07
-1.35384e-06
1.1986e-07
-1.38948e-06
1.19144e-07
-1.42458e-06
1.18462e-07
-1.45928e-06
1.1776e-07
-1.49365e-06
1.17021e-07
-1.52772e-06
1.16244e-07
-1.56151e-06
1.15428e-07
-1.59502e-06
1.14576e-07
-1.62826e-06
1.13686e-07
-1.6612e-06
1.12757e-07
-1.69386e-06
1.11786e-07
-1.72619e-06
1.10769e-07
-1.75821e-06
1.09702e-07
-1.78987e-06
1.0858e-07
-1.82117e-06
1.07398e-07
-1.85208e-06
1.06151e-07
-1.88258e-06
1.04833e-07
-1.91264e-06
1.03439e-07
-1.94225e-06
1.01965e-07
-1.97136e-06
1.00406e-07
-1.99995e-06
9.87585e-08
-2.028e-06
9.70178e-08
-2.05547e-06
9.51808e-08
-2.08234e-06
9.32443e-08
-2.10856e-06
9.12057e-08
-2.13411e-06
8.90627e-08
-2.15895e-06
8.68133e-08
-2.18305e-06
8.4456e-08
-2.20638e-06
8.19895e-08
-2.2289e-06
7.94132e-08
-2.25058e-06
7.67266e-08
-2.27139e-06
7.39298e-08
-2.29129e-06
7.10231e-08
-2.31024e-06
6.8007e-08
-2.32821e-06
6.48822e-08
-2.34518e-06
6.165e-08
-2.36111e-06
5.83116e-08
-2.37596e-06
5.48686e-08
-2.3897e-06
5.13225e-08
-2.40231e-06
4.76756e-08
-2.41376e-06
4.39299e-08
-2.42402e-06
4.0088e-08
-2.43306e-06
3.61524e-08
-2.44085e-06
3.21258e-08
-2.44739e-06
2.8011e-08
-2.45265e-06
2.38115e-08
-2.45662e-06
1.95324e-08
-2.4593e-06
1.51813e-08
-2.46068e-06
1.0767e-08
-2.46077e-06
6.30294e-09
-2.45957e-06
1.80831e-09
-2.45706e-06
-2.69578e-09
-2.45317e-06
-7.2063e-09
-2.44785e-06
-1.17468e-08
-2.44108e-06
-1.63335e-08
-2.43282e-06
-2.09604e-08
-2.42305e-06
-2.56216e-08
-2.41177e-06
-3.03124e-08
-2.39896e-06
-3.5027e-08
-2.38462e-06
-3.97603e-08
-2.36874e-06
-4.45059e-08
-2.35131e-06
-4.9259e-08
-2.33234e-06
-5.40133e-08
-2.31182e-06
-5.87643e-08
-2.28977e-06
-6.35059e-08
-2.26618e-06
-6.82335e-08
-2.24106e-06
-7.2941e-08
-2.21442e-06
-7.76235e-08
-2.18626e-06
-8.22747e-08
-2.15661e-06
-8.68897e-08
-2.12547e-06
-9.14621e-08
-2.09287e-06
-9.59863e-08
-2.0588e-06
-1.00456e-07
-2.02331e-06
-1.04865e-07
-1.98641e-06
-1.09208e-07
-1.94812e-06
-1.13478e-07
-1.90847e-06
-1.17668e-07
-1.86748e-06
-1.21772e-07
-1.8252e-06
-1.25782e-07
-1.78164e-06
-1.29692e-07
-1.73685e-06
-1.33495e-07
-1.69086e-06
-1.37187e-07
-1.64371e-06
-1.40765e-07
-1.59543e-06
-1.44224e-07
-1.54608e-06
-1.47563e-07
-1.49569e-06
-1.50772e-07
-1.4443e-06
-1.53837e-07
-1.39197e-06
-1.56751e-07
-1.33875e-06
-1.59522e-07
-1.28468e-06
-1.62146e-07
-1.22982e-06
-1.64611e-07
-1.17422e-06
-1.66913e-07
-1.11794e-06
-1.69052e-07
-1.06104e-06
-1.71025e-07
-1.00356e-06
-1.72831e-07
-9.45561e-07
-1.74467e-07
-8.87102e-07
-1.75931e-07
-8.28237e-07
-1.77223e-07
-7.69022e-07
-1.78343e-07
-7.09514e-07
-1.79294e-07
-6.49767e-07
-1.80077e-07
-5.89835e-07
-1.80696e-07
-5.29771e-07
-1.81155e-07
-4.69627e-07
-1.81456e-07
-4.09453e-07
-1.81604e-07
-3.49296e-07
-1.81605e-07
-2.89205e-07
-1.81464e-07
-2.29222e-07
-1.81187e-07
-1.69391e-07
-1.8078e-07
-1.09753e-07
-1.80248e-07
-5.03431e-08
-1.79599e-07
8.80411e-09
-1.78839e-07
6.7654e-08
-1.7797e-07
1.26174e-07
-1.76998e-07
1.84333e-07
-1.75934e-07
2.42106e-07
-1.74784e-07
2.9949e-07
-1.73552e-07
3.56468e-07
-1.72238e-07
4.13027e-07
-1.70828e-07
4.69163e-07
-1.69343e-07
5.24868e-07
-1.67842e-07
5.80133e-07
-1.66357e-07
6.34958e-07
-1.64895e-07
6.89341e-07
-1.63446e-07
7.43276e-07
-1.61987e-07
7.96747e-07
-1.60482e-07
8.49716e-07
-1.58863e-07
9.02111e-07
-1.57016e-07
9.53797e-07
-1.54737e-07
1.00454e-06
-1.51651e-07
1.05393e-06
-1.47061e-07
1.10134e-06
-1.39528e-07
1.14589e-06
-1.26394e-07
1.18718e-06
-1.01678e-07
-5.16796e-08
1.22979e-06
-7.72348e-09
-1.277e-08
-1.96161e-08
1.3754e-09
-3.28384e-08
1.38206e-08
-4.68689e-08
2.47359e-08
-6.16113e-08
3.46383e-08
-7.71161e-08
4.36958e-08
-9.34952e-08
5.19495e-08
-1.10887e-07
5.94138e-08
-1.29401e-07
6.61274e-08
-1.49111e-07
7.21659e-08
-1.70032e-07
7.76332e-08
-1.92156e-07
8.26432e-08
-2.15442e-07
8.73036e-08
-2.39857e-07
9.17063e-08
-2.65358e-07
9.5923e-08
-2.91921e-07
1.00007e-07
-3.19518e-07
1.03996e-07
-3.48135e-07
1.07915e-07
-3.77753e-07
1.11783e-07
-4.08356e-07
1.15611e-07
-4.39914e-07
1.19407e-07
-4.72392e-07
1.23175e-07
-5.0573e-07
1.26912e-07
-5.39853e-07
1.30612e-07
-5.7465e-07
1.34258e-07
-6.09989e-07
1.37823e-07
-6.45701e-07
1.41266e-07
-6.81607e-07
1.44524e-07
-7.17519e-07
1.4752e-07
-7.53289e-07
1.50161e-07
-7.88828e-07
1.52355e-07
-8.24165e-07
1.5403e-07
-8.59428e-07
1.55174e-07
-8.94675e-07
1.55909e-07
-9.29631e-07
1.56458e-07
-9.64076e-07
1.569e-07
-9.98068e-07
1.57183e-07
-1.03164e-06
1.57349e-07
-1.06501e-06
1.57378e-07
-1.09796e-06
1.57273e-07
-1.12995e-06
1.57024e-07
-1.16139e-06
1.56421e-07
-1.19305e-06
1.55401e-07
-1.22523e-06
1.54156e-07
-1.25746e-06
1.52965e-07
-1.28949e-06
1.51886e-07
-1.32124e-06
1.50893e-07
-1.35272e-06
1.4994e-07
-1.38395e-06
1.48995e-07
-1.41497e-06
1.48037e-07
-1.44578e-06
1.47055e-07
-1.4764e-06
1.46041e-07
-1.50681e-06
1.44989e-07
-1.53702e-06
1.43893e-07
-1.56701e-06
1.42748e-07
-1.59677e-06
1.41548e-07
-1.62629e-06
1.40286e-07
-1.65555e-06
1.38956e-07
-1.68452e-06
1.37552e-07
-1.71319e-06
1.36066e-07
-1.74153e-06
1.34492e-07
-1.76952e-06
1.32823e-07
-1.79714e-06
1.31053e-07
-1.82435e-06
1.29176e-07
-1.85113e-06
1.27186e-07
-1.87745e-06
1.25078e-07
-1.90329e-06
1.22847e-07
-1.9286e-06
1.20489e-07
-1.95335e-06
1.18e-07
-1.97752e-06
1.15377e-07
-2.00108e-06
1.12616e-07
-2.02398e-06
1.09716e-07
-2.0462e-06
1.06674e-07
-2.0677e-06
1.03489e-07
-2.08845e-06
1.0016e-07
-2.10841e-06
9.66868e-08
-2.12755e-06
9.30692e-08
-2.14583e-06
8.93078e-08
-2.16323e-06
8.54033e-08
-2.17971e-06
8.13568e-08
-2.19523e-06
7.71702e-08
-2.20976e-06
7.28452e-08
-2.22328e-06
6.83841e-08
-2.23575e-06
6.37896e-08
-2.24714e-06
5.90646e-08
-2.25742e-06
5.42127e-08
-2.26657e-06
4.92375e-08
-2.27456e-06
4.41434e-08
-2.28137e-06
3.89349e-08
-2.28697e-06
3.36168e-08
-2.29135e-06
2.81952e-08
-2.2945e-06
2.26772e-08
-2.29639e-06
1.70718e-08
-2.29701e-06
1.13889e-08
-2.29635e-06
5.64061e-09
-2.29438e-06
-1.60474e-10
-2.29108e-06
-6.00511e-09
-2.28639e-06
-1.18955e-08
-2.2803e-06
-1.78432e-08
-2.27278e-06
-2.38532e-08
-2.26382e-06
-2.99195e-08
-2.25342e-06
-3.60342e-08
-2.24155e-06
-4.21899e-08
-2.2282e-06
-4.83782e-08
-2.21338e-06
-5.4592e-08
-2.19707e-06
-6.08229e-08
-2.17926e-06
-6.70642e-08
-2.15997e-06
-7.33079e-08
-2.13919e-06
-7.95477e-08
-2.11693e-06
-8.57755e-08
-2.09318e-06
-9.19852e-08
-2.06795e-06
-9.81687e-08
-2.04126e-06
-1.0432e-07
-2.0131e-06
-1.10429e-07
-1.9835e-06
-1.16492e-07
-1.95246e-06
-1.22498e-07
-1.92001e-06