/*--------------------------------*- C++ -*----------------------------------*\
  =========                 |
  \\      /  F ield         | OpenFOAM: The Open Source CFD Toolbox
   \\    /   O peration     | Website:  https://openfoam.org
    \\  /    A nd           | Version:  9
     \\/     M anipulation  |
\*---------------------------------------------------------------------------*/
FoamFile
{
    format      ascii;
    class       volScalarField::Internal;
    location    "275";
    object      tmp<kEpsilon:G>;
}
// * * * * * * * * * * * * * * * * * * * * * * * * * * * * * * * * * * * * * //

dimensions      [0 2 -3 0 0 0 0];

value           nonuniform List<scalar> 
12225
(
0
0
0
0
0
0
0
0
0
0
0
0
0
0
0
0
0
0
947.464
499.324
262.326
277.582
379.75
495.275
604.991
715.1
802.51
888.366
950.059
1008.61
1048.52
1084.97
1112.63
1130.15
1167.55
1134.34
85.4722
123.102
55.5186
17.2367
5.18707
4.39861
8.80091
16.6826
26.6122
38.3716
50.8925
64.0629
77.511
90.3915
103.978
115.391
129.596
136.306
5.03694
1.745
0.640988
0.702206
0.465249
0.185309
0.0269753
0.189107
0.790499
1.87975
3.44273
5.41371
7.82273
10.3978
13.44
16.3047
19.7642
22.5726
0.224399
0.13156
0.147837
0.314016
0.426013
0.406347
0.289114
0.153189
0.0567811
0.0250346
0.0743955
0.212145
0.446939
0.76167
1.18121
1.64337
2.20693
2.75834
0.177097
0.188668
0.264814
0.320331
0.322777
0.317622
0.289832
0.23881
0.182128
0.127011
0.0800894
0.0455071
0.0278363
0.028999
0.0506793
0.0912747
0.148162
0.217953
0.126545
0.21159
0.231009
0.212977
0.212206
0.23064
0.23864
0.227553
0.20823
0.1846
0.159208
0.132739
0.108381
0.0872092
0.0708125
0.0603701
0.0555725
0.0551342
0.0973954
0.148855
0.159678
0.157109
0.167599
0.18816
0.200657
0.200558
0.19526
0.187573
0.178162
0.166779
0.155202
0.143972
0.134502
0.127399
0.124117
0.121658
0.0740423
0.104533
0.122056
0.130408
0.142017
0.157947
0.169301
0.172947
0.17319
0.172322
0.17051
0.167674
0.164544
0.161729
0.160074
0.159927
0.162504
0.164951
0.0560892
0.0774376
0.097208
0.108812
0.119508
0.13255
0.143155
0.148627
0.15134
0.153292
0.154823
0.155855
0.156928
0.158414
0.16095
0.164494
0.170022
0.174908
0.0423489
0.0583365
0.0770646
0.089791
0.100332
0.111848
0.121752
0.127957
0.131782
0.134866
0.137707
0.140323
0.143075
0.14624
0.150226
0.154868
0.160759
0.165861
0.0324255
0.0451086
0.0621394
0.0753089
0.0858387
0.0963178
0.105489
0.111841
0.116113
0.119589
0.122818
0.125887
0.12905
0.132516
0.136532
0.140907
0.146009
0.150242
0.0245433
0.0347331
0.0499717
0.0631948
0.0737392
0.0835084
0.0920836
0.0984263
0.102917
0.106526
0.109793
0.112861
0.115915
0.119104
0.122578
0.126161
0.130085
0.133177
0.0175706
0.0257129
0.0389778
0.0516756
0.0621022
0.0713204
0.0793506
0.0855831
0.0901768
0.0938057
0.0969492
0.0997975
0.102484
0.105117
0.107777
0.11033
0.112936
0.114791
0.0116541
0.018233
0.0296291
0.041431
0.0515129
0.060225
0.0677383
0.0737522
0.0783144
0.0818591
0.0847805
0.0872822
0.089476
0.0914405
0.0932288
0.0947543
0.0961583
0.0969231
0.00689252
0.012293
0.0220367
0.0327684
0.0423211
0.0505395
0.0575619
0.0632625
0.067655
0.0710106
0.0736368
0.0757271
0.0773934
0.0787023
0.0797099
0.0803781
0.0808396
0.0808054
0.00337034
0.00792186
0.0163352
0.026018
0.0349443
0.0426621
0.049207
0.0545259
0.0586296
0.0616989
0.0639715
0.0656281
0.0667855
0.06752
0.0678972
0.0679289
0.0677232
0.0671771
0.00119915
0.00520248
0.0126888
0.0215178
0.0298156
0.0370009
0.043038
0.0479002
0.0516032
0.0542873
0.0561519
0.0573694
0.0580631
0.0583234
0.0582258
0.0578201
0.0571798
0.0563393
0.000671627
0.00446466
0.0115883
0.0200127
0.0278809
0.0345961
0.0401381
0.044502
0.0477086
0.0498994
0.0512779
0.0520256
0.0522734
0.0521232
0.0516571
0.0509517
0.0500367
0.0490591
0.00204382
0.00608092
0.0136581
0.0223496
0.0300942
0.0364767
0.0416432
0.0455857
0.0482986
0.0499606
0.0508292
0.0511116
0.0509432
0.0504297
0.0496556
0.0487061
0.0475827
0.0464739
0.00472687
0.00942452
0.018125
0.0274493
0.0350653
0.0410544
0.0458654
0.0494237
0.0516652
0.0528351
0.0532624
0.0531579
0.0526486
0.05184
0.0508268
0.0496949
0.0484314
0.0472289
0.00871378
0.0148705
0.0252555
0.0351437
0.0426061
0.0483156
0.0527558
0.0556944
0.0571823
0.0577064
0.057666
0.0572091
0.0564044
0.0553529
0.0541465
0.0528717
0.0514888
0.0502064
0.0139791
0.0239421
0.0361889
0.0443474
0.0507275
0.0570052
0.0620894
0.0646823
0.0651957
0.06479
0.0640369
0.0630058
0.0617009
0.0602365
0.0586824
0.0571187
0.0554657
0.0539139
0.0214616
0.0423952
0.0593351
0.0604516
0.0596678
0.0636632
0.0695571
0.0733491
0.0745712
0.0745427
0.0737746
0.0722678
0.0701013
0.0675507
0.0647511
0.0618641
0.0588114
0.0559038
0.0433421
0.076074
0.0937259
0.104728
0.0971816
0.0901581
0.0876022
0.0863061
0.0848233
0.0830181
0.0801219
0.0756871
0.0698814
0.0633409
0.0564795
0.049781
0.0434041
0.0377888
0.0805342
0.213195
0.0680957
0.078682
0.167358
0.214753
0.214114
0.189318
0.158219
0.12764
0.0985479
0.0722304
0.0503501
0.0346196
0.0261087
0.0255984
0.03319
0.0487769
0.660006
0.124872
0.315984
0.505933
0.373396
0.295738
0.22957
0.141698
0.0605609
0.0116299
0.0105574
0.0681241
0.189071
0.374755
0.62024
0.923596
1.2709
1.66015
31.8776
71.0679
43.2475
18.2728
7.06874
2.67223
1.11402
1.00739
1.8165
3.28502
5.25759
7.63443
10.2756
13.1571
16.1292
19.2249
22.2421
25.2876
455.413
257.653
100.987
70.5614
91.6369
128.079
168.031
205.872
241.272
273.951
303.062
329.74
353.061
374.475
393.02
410.496
425.892
440.967
0
0
0
0
0
0
0
0
0
0
0
0
0
0
0
0
0
0
0
0
0
0
0
0
0
0
0
0
0
0
0
0
0
0
0
0
0
0
0
0
0
0
0
0
0
0
0
0
0
0
0
0
0
0
0
11.991
12.7713
14.2407
14.6346
15.0589
16.0263
17.5256
18.8244
20.3904
22.0071
23.7556
25.5825
27.5028
29.5094
31.6035
33.7854
36.0554
38.4142
40.8627
43.401
46.0302
48.75
51.5611
54.463
57.4557
60.5381
63.7099
66.9693
70.3152
73.745
77.2572
80.8483
84.5159
88.2558
92.0648
95.9379
99.8709
103.858
107.895
111.973
116.089
120.234
124.403
128.585
132.775
136.964
141.143
145.302
149.433
153.526
157.571
161.555
165.469
169.299
173.033
176.655
180.151
183.504
186.699
189.723
192.571
195.25
197.759
200.103
202.272
204.26
206.061
207.667
209.072
210.269
211.252
212.016
212.556
212.868
212.948
212.791
212.397
211.762
210.886
209.766
208.403
206.798
204.951
202.864
200.54
197.982
195.194
192.18
188.946
185.497
181.84
177.988
173.935
169.693
165.257
160.667
155.937
151.051
146.027
140.877
135.614
130.248
124.792
119.257
113.655
107.997
102.296
96.5628
90.8103
85.0491
79.2907
73.5454
67.824
62.1361
56.4915
50.8993
45.3681
39.9063
34.5221
29.2237
24.0204
18.9241
13.9546
9.16146
4.76639
2.79343
6.03789
10.3504
14.7748
19.1923
23.5743
27.9117
32.2009
36.4398
40.6258
44.7543
48.8152
52.7923
56.6332
60.3028
63.3903
66.2438
63.3501
0
0.00288876
0.00627913
0.0196819
0.0540839
0.111995
0.192997
0.29346
0.409043
0.535696
0.670937
0.814266
0.966356
1.12822
1.30093
1.48552
1.6829
1.89392
2.11938
2.35993
2.61589
2.88692
3.17161
3.46749
3.76944
4.06699
4.34945
4.60483
4.82455
4.98882
5.05037
5.0488
5.19146
5.94283
6.3862
6.00569
5.91496
5.34054
5.88813
6.50224
5.13128
4.03919
4.05435
5.11528
5.08838
4.9057
4.77212
4.64662
4.51825
4.3814
4.23758
4.08926
3.93819
3.78596
3.63372
3.48247
3.33301
3.18615
3.04263
2.90323
2.76872
2.63996
2.51782
2.40328
2.29732
2.20101
2.11545
2.04179
1.98122
1.93497
1.90429
1.89044
1.89466
1.91821
1.96231
2.02816
2.11685
2.22946
2.367
2.5304
2.72047
2.9379
3.18327
3.45703
3.75945
4.09059
4.45021
4.83771
5.25225
5.69231
6.15595
6.63994
7.13921
7.64673
8.15466
8.65592
9.14282
9.60329
10.0293
10.4609
10.8925
11.3341
11.7866
12.251
12.7269
13.2139
13.7111
14.2178
14.7331
15.2561
15.7859
16.3216
16.862
17.406
17.9526
18.5006
19.0489
19.5961
20.141
20.6822
21.2187
21.7495
22.2732
22.7886
23.2941
23.7885
24.2704
24.7392
25.1924
25.6318
26.0557
26.4566
26.8368
27.2025
27.5491
27.8741
28.1772
28.4583
28.7174
28.9546
29.1696
29.3623
29.5324
29.6802
29.8059
29.9102
29.9936
30.0566
30.1
30.1245
30.1309
30.1201
30.093
30.0507
29.9939
29.9238
29.8421
29.7504
29.6503
29.5416
29.4264
29.3215
29.2278
29.1136
28.9809
28.8524
28.74
28.6448
28.5657
28.5014
28.4515
28.4156
28.3936
28.3885
28.4013
28.4832
28.6283
29.5478
31.0221
39.6139
0
0.0316668
0.104433
0.164742
0.229982
0.310167
0.414649
0.546482
0.702527
0.876538
1.0625
1.2564
1.45646
1.66264
1.87582
2.0972
2.3279
2.56876
2.82012
3.08171
3.35229
3.62939
3.90876
4.18417
4.44679
4.685
4.88429
5.03893
5.14537
5.20135
5.21541
5.22771
5.31172
5.40118
5.3546
5.22492
5.1372
5.09673
5.13317
5.20089
5.02475
4.9348
5.01082
5.15738
5.23668
5.26723
5.33718
5.45457
5.61613
5.81261
6.03724
6.28554
6.55457
6.84243
7.1477
7.46941
7.80667
8.15882
8.5252
8.90533
9.29863
9.70464
10.1229
10.553
10.9946
11.4473
11.9108
12.3848
12.8688
13.3628
13.8664
14.3795
14.9017
15.433
15.9733
16.5225
17.0803
17.6468
18.2216
18.8048
19.3962
19.9956
20.6028
21.2175
21.8394
22.4679
23.1023
23.7418
24.3853
25.0317
25.681
26.3331
26.9886
27.6498
28.3223
29.0164
29.7479
30.5371
31.3996
32.2779
33.1719
34.0756
34.9869
35.9045
36.827
37.7527
38.6797
39.6059
40.5295
41.4483
42.3603
43.2632
44.1551
45.0335
45.8964
46.7414
47.5664
48.3689
49.1465
49.897
50.6186
51.3092
51.967
52.5896
53.1747
53.72
54.2236
54.6839
55.099
55.4697
55.7959
56.0647
56.2813
56.4541
56.5764
56.6469
56.6646
56.6301
56.5442
56.408
56.2225
55.9881
55.7058
55.3767
55.0029
54.5861
54.1286
53.6324
53.1001
52.534
51.9368
51.3112
50.6599
49.9859
49.2928
48.5833
47.86
47.1258
46.3868
45.6435
44.8969
44.1448
43.394
42.6617
41.9529
41.264
40.5973
39.9549
39.3368
38.7427
38.1722
37.626
37.1056
36.6191
36.181
35.8701
35.7699
36.6298
38.8393
45.3912
0
0.140696
0.304742
0.421823
0.513227
0.599729
0.70107
0.827336
0.980899
1.15901
1.35642
1.56783
1.78916
2.01797
2.25312
2.49423
2.7411
2.99328
3.24972
3.50845
3.76624
4.01843
4.25873
4.47941
4.6716
4.8265
4.93719
5.00196
5.0259
5.02085
5.00706
5.01702
5.08691
5.215
5.31458
5.3723
5.45017
5.53229
5.70994
5.88536
5.9321
6.00994
6.30556
6.7938
7.24905
7.6446
8.01739
8.39534
8.79249
9.21327
9.65803
10.1257
10.615
11.1245
11.6531
12.1999
12.7641
13.3451
13.9422
14.5549
15.183
15.8261
16.4838
17.156
17.8425
18.5434
19.2585
19.9878
20.7315
21.4897
22.2624
23.05
23.8525
24.6704
25.5038
26.3532
27.2187
28.1006
28.9991
29.9145
30.8469
31.7964
32.7631
33.747
34.7481
35.7661
36.8009
37.852
38.919
40.002
41.102
42.2204
43.3596
44.5239
45.72
46.9544
48.2269
49.5302
50.8549
52.193
53.5451
54.9067
56.2742
57.6445
59.0149
60.3823
61.7434
63.0952
64.4345
65.7581
67.0629
68.3456
69.603
70.8319
72.0289
73.191
74.3149
75.3973
76.4349
77.4246
78.3638
79.2501
80.0808
80.8528
81.563
82.2086
82.7864
83.2948
83.7324
84.1012
84.3955
84.6066
84.7389
84.8016
84.7871
84.6948
84.5241
84.2754
83.9507
83.5518
83.0807
82.5384
81.9269
81.2483
80.5058
79.7021
78.841
77.9259
76.9605
75.9487
74.8947
73.8029
72.6783
71.5244
70.3455
69.1456
67.9293
66.6999
65.4638
64.2285
63.0006
61.7797
60.5616
59.347
58.1461
56.964
55.8084
54.6866
53.6019
52.5563
51.5516
50.5916
49.6833
48.8458
48.1146
47.6095
47.4824
48.5326
51.1656
56.45
0
0.297581
0.556317
0.744532
0.869527
0.963762
1.05887
1.17052
1.30549
1.46506
1.64674
1.84619
2.05885
2.28088
2.50932
2.74197
2.97696
3.21239
3.44599
3.67484
3.89528
4.10291
4.29274
4.45974
4.59947
4.7091
4.78884
4.8436
4.88337
4.92326
4.9821
5.0822
5.23513
5.43689
5.65269
5.86611
6.08718
6.32423
6.58798
6.86214
7.12616
7.43039
7.83999
8.35382
8.90659
9.46479
10.0243
10.5922
11.1762
11.7812
12.4097
13.0627
13.7403
14.4421
15.1677
15.9168
16.689
17.484
18.3016
19.1415
20.0038
20.8883
21.7953
22.7248
23.6771
24.6526
25.6516
26.6745
27.7219
28.7941
29.8918
31.0155
32.1657
33.3431
34.5483
35.7816
37.0437
38.3349
39.6556
41.006
42.3864
43.7969
45.2374
46.7079
48.2082
49.7381
51.2973
52.8852
54.5016
56.1464
57.8202
59.5241
61.2592
63.0272
64.8305
66.6687
68.5359
70.4207
72.3158
74.2201
76.133
78.0507
79.9688
81.8829
83.7885
85.681
87.5558
89.4084
91.2342
93.0288
94.7877
96.5065
98.1807
99.806
101.378
102.893
104.346
105.734
107.051
108.295
109.463
110.55
111.555
112.473
113.302
114.037
114.674
115.213
115.653
115.996
116.231
116.356
116.376
116.297
116.113
115.824
115.43
114.932
114.333
113.636
112.843
111.957
110.98
109.916
108.769
107.543
106.244
104.875
103.442
101.951
100.407
98.8158
97.1821
95.5118
93.8098
92.0829
90.339
88.5852
86.8276
85.0722
83.3258
81.5931
79.8745
78.1673
76.4736
74.7989
73.1547
71.5523
69.9991
68.5008
67.0635
65.6963
64.4155
63.2546
62.2736
61.6282
61.5142
62.7119
65.4675
69.6579
0
0.463075
0.800505
1.06421
1.23049
1.33866
1.43069
1.52688
1.63766
1.76781
1.91779
2.08517
2.26618
2.45677
2.65323
2.85233
3.05121
3.24727
3.43795
3.6207
3.79296
3.95231
4.09671
4.22487
4.33667
4.43359
4.51915
4.59941
4.683
4.78084
4.90522
5.06814
5.27701
5.53057
5.81662
6.12508
6.45434
6.80398
7.17555
7.56962
7.98894
8.4518
8.97839
9.57143
10.2136
10.8885
11.5875
12.3093
13.0554
13.828
14.6289
15.4593
16.3199
17.2111
18.1333
19.0865
20.0708
21.0864
22.1336
23.2127
24.3241
25.4683
26.6459
27.8576
29.1043
30.3867
31.7057
33.0623
34.4575
35.8922
37.3675
38.8842
40.4434
42.0458
43.6924
45.3839
47.1209
48.9038
50.733
52.6088
54.5312
56.5001
58.5152
60.5761
62.6822
64.8329
67.0271
69.264
71.5423
73.8611
76.2197
78.6175
81.0534
83.5262
86.0336
88.5709
91.13
93.7009
96.2769
98.8562
101.436
104.013
106.58
109.132
111.664
114.168
116.638
119.068
121.453
123.786
126.06
128.272
130.414
132.481
134.468
136.369
138.18
139.896
141.51
143.02
144.422
145.712
146.886
147.942
148.875
149.68
150.356
150.899
151.313
151.591
151.731
151.728
151.595
151.329
150.928
150.392
149.724
148.924
147.997
146.947
145.777
144.491
143.092
141.586
139.977
138.272
136.477
134.598
132.641
130.612
128.519
126.368
124.165
121.92
119.641
117.336
115.014
112.683
110.35
108.022
105.706
103.408
101.132
98.8786
96.6472
94.4416
92.2739
90.1574
88.1032
86.121
84.2226
82.4239
80.7513
79.2531
78.0106
77.202
77.0358
78.2203
80.7762
83.9849
0
0.614854
1.00101
1.3286
1.5355
1.66103
1.75351
1.8364
1.92288
2.02056
2.1325
2.25839
2.39591
2.54183
2.69273
2.84545
2.99723
3.14575
3.28912
3.4259
3.55517
3.67659
3.79056
3.89826
4.0018
4.10424
4.20964
4.32324
4.45142
4.60152
4.78137
4.99817
5.25663
5.5577
5.89773
6.27199
6.67783
7.11405
7.58071
8.07988
8.61608
9.19711
9.83051
10.5181
11.2555
12.036
12.8546
13.7088
14.598
15.5228
16.4841
17.4829
18.52
19.5963
20.7125
21.8695
23.068
24.3087
25.5927
26.921
28.2946
29.7148
31.183
32.7004
34.2687
35.8893
37.5638
39.2939
41.0811
42.9269
44.8328
46.8003
48.8306
50.925
53.0845
55.31
57.6021
59.9612
62.3877
64.8814
67.442
70.069
72.7616
75.5186
78.3387
81.2202
84.1612
87.1596
90.2129
93.3184
96.4737
99.6756
102.921
106.205
109.523
112.867
116.229
119.597
122.965
126.328
129.681
133.019
136.335
139.62
142.868
146.069
149.217
152.302
155.317
158.254
161.106
163.866
166.526
169.08
171.521
173.843
176.039
178.104
180.032
181.819
183.46
184.953
186.292
187.475
188.497
189.354
190.044
190.565
190.92
191.097
191.102
190.93
190.598
190.097
189.428
188.593
187.595
186.437
185.125
183.662
182.055
180.307
178.425
176.415
174.282
172.034
169.679
167.222
164.674
162.04
159.33
156.555
153.723
150.845
147.929
144.986
142.026
139.057
136.088
133.128
130.182
127.259
124.364
121.502
118.673
115.881
113.138
110.458
107.855
105.343
102.94
100.669
98.5659
96.6917
95.1423
94.1039
93.7713
94.7624
96.8549
99.1305
0
0.737824
1.13562
1.50495
1.74292
1.88377
1.9777
2.04946
2.11392
2.18067
2.25486
2.33821
2.43014
2.52883
2.63195
2.7372
2.84262
2.94675
3.04874
3.14838
3.24605
3.34281
3.44035
3.54092
3.64743
3.76307
3.8915
4.03687
4.20377
4.39727
4.62257
4.88456
5.18689
5.53136
5.91768
6.34435
6.81
7.31395
7.85655
8.43952
9.06608
9.74021
10.4654
11.2432
12.0727
12.9518
13.8785
14.8514
15.87
16.9346
18.0458
19.2046
20.4123
21.6701
22.9794
24.3416
25.7582
27.231
28.7617
30.3522
32.0044
33.7206
35.5029
37.3537
39.2753
41.2702
43.3406
45.4889
47.7175
50.0284
52.4238
54.9054
57.4751
60.1341
62.8838
65.7249
68.6582
71.6837
74.8014
78.0108
81.3109
84.7004
88.1776
91.7404
95.3861
99.1118
102.914
106.789
110.733
114.741
118.807
122.927
127.094
131.302
135.541
139.803
144.077
148.351
152.618
156.868
161.096
165.293
169.45
173.557
177.605
181.583
185.481
189.29
192.999
196.599
200.081
203.436
206.656
209.732
212.657
215.424
218.024
220.451
222.7
224.765
226.643
228.329
229.82
231.111
232.199
233.08
233.752
234.217
234.468
234.502
234.325
233.936
233.35
232.559
231.564
230.37
228.98
227.401
225.638
223.698
221.587
219.31
216.875
214.289
211.56
208.697
205.708
202.603
199.392
196.087
192.698
189.235
185.71
182.134
178.518
174.873
171.211
167.541
163.874
160.218
156.581
152.972
149.397
145.865
142.379
138.944
135.57
132.274
129.072
125.982
123.027
120.237
117.657
115.356
113.439
112.087
111.465
112.101
113.546
114.925
0
0.828631
1.1983
1.58173
1.8354
1.98481
2.0781
2.1396
2.18481
2.22446
2.26526
2.3106
2.36159
2.41798
2.47888
2.54326
2.61026
2.67958
2.75114
2.82552
2.90385
2.98779
3.07948
3.18136
3.29621
3.4271
3.57721
3.74988
3.94865
4.17724
4.43946
4.73895
5.07878
5.46114
5.88715
6.35712
6.87111
7.42938
8.03272
8.68266
9.38134
10.1313
10.9349
11.7938
12.7088
13.6798
14.7067
15.7895
16.9286
18.1248
19.3791
20.6932
22.0687
23.5077
25.0125
26.5852
28.2286
29.9451
31.7376
33.6091
35.5627
37.6017
39.7293
41.949
44.2642
46.6781
49.1941
51.8154
54.545
57.3856
60.3399
63.41
66.598
69.9055
73.3335
76.8828
80.5538
84.3461
88.2589
92.291
96.4405
100.705
105.081
109.566
114.155
118.843
123.625
128.496
133.448
138.474
143.567
148.719
153.92
159.161
164.431
169.718
175.009
180.292
185.555
190.788
195.981
201.122
206.202
211.207
216.125
220.945
225.654
230.24
234.692
238.999
243.148
247.131
250.936
254.555
257.979
261.198
264.205
266.993
269.555
271.887
273.984
275.841
277.455
278.822
279.939
280.804
281.415
281.773
281.868
281.705
281.288
280.622
279.72
278.574
277.187
275.564
273.712
271.639
269.353
266.859
264.166
261.283
258.217
254.978
251.576
248.023
244.33
240.507
236.567
232.523
228.385
224.168
219.884
215.545
211.164
206.753
202.326
197.892
193.465
189.052
184.664
180.309
175.997
171.738
167.539
163.404
159.347
155.384
151.533
147.816
144.262
140.905
137.797
135.014
132.661
130.906
129.877
130.024
130.7
131.236
0
0.88942
1.19434
1.5649
1.81639
1.96498
2.05308
2.10366
2.13188
2.14892
2.1624
2.17701
2.19533
2.2187
2.24746
2.28164
2.32131
2.3667
2.41871
2.47847
2.54749
2.62761
2.72092
2.82974
2.95655
3.10392
3.27457
3.47127
3.69688
3.9544
4.24689
4.57737
4.94863
5.36302
5.82239
6.32809
6.88128
7.48313
8.13505
8.83884
9.59673
10.4109
11.2835
12.2165
13.2111
14.2692
15.3919
16.5807
17.8371
19.1628
20.56
22.0312
23.5792
25.2071
26.9182
28.7159
30.6039
32.5862
34.6668
36.8501
39.1404
41.5424
44.0605
46.6995
49.4637
52.3576
55.3853
58.5509
61.8581
65.3101
68.91
72.6601
76.5626
80.6188
84.8296
89.1953
93.7155
98.389
103.214
108.188
113.308
118.57
123.968
129.498
135.153
140.927
146.81
152.796
158.874
165.035
171.268
177.561
183.903
190.282
196.683
203.091
209.493
215.872
222.215
228.508
234.739
240.893
246.957
252.916
258.755
264.461
270.02
275.416
280.637
285.67
290.502
295.121
299.515
303.675
307.589
311.249
314.645
317.77
320.617
323.182
325.46
327.447
329.138
330.531
331.624
332.416
332.906
333.09
332.966
332.537
331.811
330.795
329.5
327.919
326.059
323.927
321.531
318.881
315.986
312.855
309.499
305.927
302.152
298.184
294.036
289.72
285.25
280.638
275.898
271.045
266.092
261.053
255.944
250.778
245.568
240.33
235.076
229.819
224.572
219.346
214.15
208.995
203.892
198.854
193.888
189.003
184.213
179.534
174.987
170.598
166.398
162.427
158.742
155.419
152.56
150.317
148.777
148.328
148.163
147.896
0
0.925833
1.13671
1.47102
1.70417
1.84167
1.91879
1.95638
1.9688
1.96724
1.95995
1.95222
1.94756
1.94791
1.95505
1.97003
1.99379
2.02735
2.07169
2.128
2.19773
2.28247
2.38402
2.50431
2.64545
2.80966
2.99928
3.21678
3.4647
3.74573
4.06264
4.41821
4.81519
5.25615
5.74344
6.27915
6.86528
7.5038
8.19677
8.9465
9.75545
10.6263
11.5618
12.5645
13.6379
14.7838
16.0048
17.3036
18.683
20.1463
21.6971
23.3395
25.0778
26.9163
28.8596
30.9128
33.0808
35.3692
37.7836
40.3298
43.0136
45.8412
48.8183
51.9508
55.2443
58.7041
62.3352
66.1423
70.1294
74.3002
78.6577
83.2042
87.9413
92.87
97.9904
103.302
108.802
114.49
120.361
126.411
132.635
139.027
145.58
152.285
159.134
166.117
173.224
180.442
187.76
195.165
202.642
210.176
217.754
225.359
232.975
240.583
248.167
255.709
263.191
270.597
277.912
285.118
292.199
299.138
305.919
312.525
318.939
325.147
331.132
336.881
342.378
347.61
352.566
357.233
361.6
365.657
369.394
372.805
375.882
378.621
381.016
383.065
384.763
386.109
387.102
387.742
388.025
387.953
387.525
386.745
385.62
384.164
382.388
380.28
377.854
375.12
372.089
368.773
365.183
361.33
357.226
352.885
348.32
343.545
338.573
333.418
328.097
322.624
317.014
311.283
305.448
299.523
293.526
287.471
281.373
275.249
269.112
262.977
256.857
250.765
244.71
238.706
232.766
226.9
221.122
215.442
209.874
204.437
199.153
194.049
189.161
184.533
180.221
176.304
172.875
170.068
167.93
166.809
165.762
164.739
0
0.945318
1.04185
1.32277
1.52444
1.64134
1.7015
1.7236
1.72094
1.70423
1.68141
1.65863
1.63996
1.62841
1.62584
1.63373
1.65326
1.68552
1.73155
1.79251
1.8696
1.96412
2.07755
2.2115
2.36779
2.54836
2.75536
2.99105
3.25791
3.5585
3.89557
4.27196
4.69059
5.15433
5.6661
6.22864
6.84474
7.51721
8.24904
9.0434
9.90347
10.8328
11.8351
12.9148
14.0755
15.3207
16.6548
18.0817
19.6058
21.2324
22.9673
24.8161
26.7851
28.8802
31.1078
33.4742
35.9865
38.6518
41.4773
44.4707
47.6393
50.9904
54.5313
58.2688
62.2093
66.3588
70.7227
75.3059
80.1124
85.1455
90.4077
95.9006
101.625
107.58
113.765
120.177
126.813
133.668
140.737
148.012
155.487
163.151
170.995
179.009
187.179
195.493
203.937
212.497
221.155
229.897
238.703
247.557
256.441
265.336
274.221
283.076
291.881
300.615
309.258
317.792
326.198
334.455
342.545
350.448
358.147
365.623
372.857
379.833
386.534
392.943
399.046
404.828
410.275
415.375
420.117
424.489
428.483
432.09
435.306
438.125
440.542
442.553
444.158
445.355
446.144
446.525
446.499
446.062
445.225
443.987
442.358
440.359
437.996
435.258
432.167
428.733
424.971
420.895
416.517
411.852
406.913
401.717
396.279
390.615
384.74
378.671
372.426
366.02
359.471
352.797
346.016
339.145
332.201
325.201
318.162
311.099
304.029
296.968
289.929
282.926
275.97
269.076
262.257
255.527
248.898
242.385
236.003
229.771
223.714
217.86
212.248
206.923
201.943
197.383
193.328
189.892
187.091
185.242
183.299
181.562
0
0.954913
0.926458
1.14377
1.30494
1.39416
1.43259
1.43638
1.41829
1.38875
1.35598
1.32561
1.30175
1.28732
1.28438
1.29445
1.31864
1.35784
1.41288
1.4846
1.5739
1.68182
1.80954
1.95847
2.13022
2.32664
2.54981
2.80206
3.08597
3.40422
3.75975
4.15566
4.59529
5.08207
5.61967
6.21164
6.86159
7.5735
8.35159
9.20035
10.1246
11.1293
12.2191
13.3986
14.6735
16.0499
17.534
19.1322
20.8511
22.6983
24.6814
26.8084
29.0874
31.5261
34.1326
36.9154
39.8832
43.045
46.4101
49.9873
53.7854
57.8127
62.0773
66.5864
71.3467
76.3642
81.6438
87.1897
93.0052
99.0922
105.452
112.084
118.987
126.159
133.595
141.292
149.241
157.437
165.87
174.53
183.407
192.487
201.757
211.203
220.809
230.558
240.434
250.417
260.488
270.626
280.813
291.026
301.244
311.446
321.608
331.707
341.72
351.623
361.395
371.014
380.459
389.708
398.739
407.532
416.067
424.324
432.284
439.928
447.238
454.198
460.792
467.004
472.821
478.23
483.218
487.776
491.894
495.567
498.788
501.551
503.854
505.693
507.07
507.983
508.432
508.423
507.95
507.028
505.655
503.832
501.579
498.923
495.853
492.371
488.504
484.264
479.667
474.73
469.466
463.894
458.03
451.89
445.495
438.861
432.006
424.949
417.709
410.304
402.753
395.076
387.292
379.42
371.478
363.485
355.457
347.413
339.369
331.342
323.347
315.398
307.509
299.693
291.966
284.341
276.834
269.46
262.236
255.182
248.325
241.695
235.33
229.278
223.595
218.352
213.625
209.51
205.998
203.39
200.555
198.144
0
0.960844
0.805325
0.955835
1.07215
1.12854
1.14121
1.12506
1.09196
1.05201
1.01299
0.980517
0.958464
0.949214
0.954306
0.974685
1.01098
1.06367
1.13323
1.22021
1.32526
1.44924
1.59322
1.75852
1.94677
2.1599
2.40017
2.67011
2.97257
3.31065
3.68782
4.10772
4.57453
5.09253
5.66634
6.30096
7.00212
7.77538
8.62608
9.56005
10.5833
11.7023
12.9245
14.2574
15.7094
17.2889
19.0047
20.8656
22.8814
25.0617
27.4165
29.9557
32.6893
35.6269
38.7784
42.1545
45.7657
49.6227
53.7359
58.1149
62.7691
67.7069
72.9359
78.4628
84.2931
90.4313
96.8807
103.644
110.72
118.111
125.813
133.824
142.139
150.751
159.655
168.84
178.296
188.013
197.978
208.176
218.593
229.213
240.018
250.99
262.11
273.358
284.711
296.149
307.648
319.186
330.739
342.284
353.797
365.252
376.624
387.887
399.016
409.987
420.775
431.358
441.711
451.812
461.638
471.167
480.378
489.251
497.766
505.903
513.645
520.974
527.876
534.334
540.334
545.864
550.912
555.469
559.527
563.08
566.124
568.651
570.662
572.153
573.129
573.587
573.535
572.966
571.9
570.337
568.276
565.727
562.714
559.269
555.356
551.007
546.244
541.084
535.542
529.638
523.389
516.814
509.933
502.764
495.33
487.649
479.742
471.629
463.33
454.866
446.257
437.525
428.691
419.774
410.794
401.77
392.721
383.663
374.616
365.596
356.621
347.704
338.86
330.103
321.449
312.913
304.512
296.261
288.179
280.288
272.615
265.191
258.055
251.254
244.843
238.889
233.458
228.631
224.378
220.996
217.285
214.245
0
0.969148
0.691312
0.777072
0.847541
0.869385
0.854594
0.817295
0.769636
0.721704
0.680837
0.65188
0.637728
0.63994
0.659153
0.69552
0.748989
0.819522
0.907227
1.01242
1.13567
1.27781
1.44
1.62379
1.83101
2.06406
2.32564
2.61886
2.94733
3.31524
3.72732
4.18918
4.70585
5.28308
5.92695
6.64421
7.44203
8.32844
9.31162
10.4002
11.6026
12.9289
14.3893
15.9951
17.7577
19.6887
21.7997
24.103
26.611
29.3354
32.2884
35.4813
38.9253
42.6317
46.6124
50.8795
55.4447
60.3189
65.512
71.0328
76.8891
83.0874
89.6327
96.5289
103.778
111.381
119.338
127.646
136.303
145.302
154.638
164.302
174.285
184.577
195.166
206.037
217.177
228.57
240.198
252.043
264.088
276.31
288.692
301.209
313.841
326.563
339.352
352.184
365.033
377.875
390.682
403.428
416.088
428.635
441.042
453.282
465.328
477.156
488.741
500.058
511.084
521.794
532.164
542.175
551.805
561.034
569.841
578.206
586.113
593.547
600.493
606.934
612.856
618.25
623.105
627.411
631.163
634.356
636.987
639.047
640.545
641.469
641.833
641.637
640.865
639.561
637.715
635.329
632.41
628.976
625.059
620.666
615.768
610.419
604.635
598.435
591.836
584.86
577.525
569.854
561.868
553.589
545.041
536.244
527.221
517.994
508.583
499.011
489.301
479.475
469.555
459.563
449.519
439.442
429.35
419.263
409.199
399.175
389.209
379.316
369.512
359.811
350.227
340.777
331.479
322.349
313.407
304.677
296.184
287.962
280.048
272.489
265.339
258.657
252.503
246.945
241.939
237.785
233.224
229.607
0
0.98263
0.588572
0.614798
0.640211
0.625773
0.582434
0.524771
0.465272
0.413635
0.376302
0.356893
0.356971
0.376793
0.415893
0.473505
0.548891
0.641562
0.751504
0.879083
1.02508
1.19072
1.37779
1.58868
1.82656
2.09489
2.39748
2.73874
3.12377
3.55865
4.05031
4.60634
5.23509
5.94514
6.74578
7.64708
8.66009
9.79588
11.068
12.4896
14.0745
15.8367
17.7907
19.9515
22.3342
24.9535
27.8238
30.96
34.376
38.0852
42.0999
46.4317
51.0897
56.0871
61.4357
67.1466
73.2291
79.6906
86.5369
93.7718
101.398
109.415
117.823
126.619
135.798
145.356
155.284
165.574
176.216
187.198
198.509
210.133
222.056
234.262
246.735
259.454
272.403
285.559
298.903
312.413
326.068
339.845
353.72
367.671
381.673
395.7
409.727
423.729
437.679
451.549
465.315
478.95
492.428
505.723
518.806
531.654
544.239
556.536
568.522
580.173
591.464
602.374
612.879
622.96
632.598
641.773
650.466
658.656
666.328
673.47
680.07
686.111
691.579
696.468
700.769
704.473
707.577
710.077
711.974
713.254
713.937
714.005
713.48
712.34
710.638
708.346
705.484
702.055
698.07
693.556
688.558
683.023
676.978
670.47
663.516
656.136
648.349
640.176
631.641
622.766
613.575
604.093
594.345
584.353
574.141
563.732
553.148
542.414
531.553
520.588
509.544
498.442
487.303
476.147
464.992
453.857
442.759
431.719
420.753
409.879
399.109
388.46
377.947
367.584
357.39
347.384
337.584
328.015
318.703
309.682
300.988
292.668
284.771
277.353
270.466
264.168
258.407
253.49
248.107
243.983
0
0.992757
0.503153
0.481715
0.468468
0.422838
0.356502
0.284921
0.220794
0.172981
0.146411
0.142958
0.162566
0.204202
0.26647
0.348027
0.447938
0.566102
0.702985
0.859762
1.03809
1.24028
1.46959
1.73043
2.02799
2.36839
2.75831
3.20496
3.71706
4.30493
4.98032
5.75577
6.64475
7.66144
8.82067
10.1391
11.6351
13.3284
15.238
17.3824
19.7796
22.4476
25.4049
28.67
32.2602
36.1907
40.4745
45.1252
50.1553
55.5753
61.3955
67.6184
74.2534
81.3095
88.7924
96.7045
105.045
113.813
123.002
132.606
142.619
153.03
163.829
175.004
186.541
198.426
210.644
223.18
236.016
249.134
262.518
276.147
290.002
304.064
318.313
332.727
347.285
361.966
376.748
391.609
406.526
421.476
436.438
451.387
466.299
481.151
495.915
510.567
525.082
539.437
553.608
567.572
581.302
594.775
607.964
620.849
633.404
645.607
657.435
668.865
679.874
690.442
700.551
710.181
719.317
727.941
736.035
743.582
750.569
756.992
762.833
768.078
772.712
776.732
780.128
782.898
785.034
786.534
787.411
787.634
787.252
786.187
784.535
782.248
779.353
775.86
771.78
767.122
761.909
756.184
749.942
743.137
735.839
728.078
719.872
711.242
702.207
692.791
683.018
672.912
662.5
651.806
640.858
629.678
618.291
606.722
594.993
583.128
571.153
559.092
546.969
534.807
522.626
510.445
498.283
486.156
474.084
462.085
450.179
438.38
426.703
415.16
403.765
392.537
381.493
370.654
360.039
349.671
339.579
329.794
320.353
311.3
302.682
294.551
286.952
279.937
273.448
267.805
261.636
257.118
0
0.994234
0.440067
0.390338
0.351275
0.285088
0.206171
0.131111
0.0720535
0.0361763
0.0263382
0.0425474
0.083528
0.147737
0.233729
0.340414
0.467625
0.616547
0.789804
0.990854
1.22375
1.49358
1.80734
2.17451
2.60627
3.11491
3.71265
4.41387
5.23538
6.19763
7.32348
8.63796
10.1654
11.9278
13.9481
16.2519
18.8659
21.8164
25.1279
28.8215
32.9156
37.4248
42.3634
47.7453
53.5812
59.8805
66.6491
73.8907
81.607
89.7894
98.4264
107.516
117.068
127.07
137.511
148.377
159.65
171.315
183.352
195.744
208.472
221.518
234.862
248.484
262.365
276.484
290.823
305.363
320.084
334.968
349.994
365.146
380.402
395.746
411.158
426.619
442.11