/*--------------------------------*- C++ -*----------------------------------*\
  =========                 |
  \\      /  F ield         | OpenFOAM: The Open Source CFD Toolbox
   \\    /   O peration     | Website:  https://openfoam.org
    \\  /    A nd           | Version:  9
     \\/     M anipulation  |
\*---------------------------------------------------------------------------*/
FoamFile
{
    format      ascii;
    class       volScalarField;
    location    "0.23";
    object      k;
}
// * * * * * * * * * * * * * * * * * * * * * * * * * * * * * * * * * * * * * //

dimensions      [0 2 -2 0 0 0 0];

internalField   nonuniform List<scalar> 
12225
(
0.353921
0.335043
0.316966
0.300961
0.288125
0.278906
0.273297
0.271002
0.271564
0.274466
0.279196
0.285283
0.292321
0.299973
0.307985
0.316141
0.324485
0.336567
0.436864
0.448979
0.438084
0.43306
0.438786
0.453584
0.474796
0.499974
0.527129
0.554776
0.581885
0.607793
0.632121
0.654692
0.67561
0.694772
0.714244
0.729537
0.395187
0.410874
0.410631
0.405747
0.40201
0.400924
0.402614
0.406806
0.413079
0.420975
0.430059
0.439953
0.450344
0.460989
0.471748
0.482508
0.493551
0.504247
0.379641
0.38484
0.386546
0.38573
0.383905
0.382026
0.380567
0.379738
0.379605
0.380146
0.381299
0.382982
0.385113
0.387617
0.390439
0.393544
0.396952
0.400557
0.374976
0.3759
0.376239
0.375721
0.37457
0.373084
0.371496
0.369967
0.368593
0.367426
0.366484
0.365768
0.365266
0.364966
0.364853
0.364918
0.365156
0.365536
0.373488
0.372555
0.371759
0.370807
0.369631
0.368275
0.366809
0.3653
0.363804
0.362358
0.36099
0.359714
0.358537
0.357461
0.356488
0.355616
0.354844
0.354166
0.373012
0.371296
0.369813
0.368416
0.367025
0.36561
0.364168
0.362712
0.361257
0.359824
0.358425
0.357073
0.355774
0.354533
0.353354
0.35224
0.351191
0.350215
0.372865
0.370838
0.369004
0.367311
0.365711
0.364174
0.362679
0.361216
0.359783
0.358381
0.357015
0.355688
0.354402
0.353161
0.351967
0.350822
0.349728
0.348696
0.37282
0.37068
0.368691
0.366836
0.365095
0.363449
0.36188
0.360376
0.358928
0.357531
0.356182
0.35488
0.353622
0.352409
0.351241
0.350118
0.349042
0.348023
0.372806
0.370628
0.368578
0.366648
0.364829
0.36311
0.361482
0.359934
0.358457
0.357046
0.355693
0.354397
0.353153
0.351958
0.350812
0.349712
0.348659
0.347664
0.372801
0.370609
0.368537
0.366576
0.36472
0.362964
0.361299
0.359719
0.358216
0.356785
0.35542
0.354118
0.352874
0.351685
0.350547
0.349459
0.34842
0.34744
0.372799
0.370602
0.368522
0.36655
0.36468
0.362907
0.361225
0.359627
0.358109
0.356664
0.355289
0.353978
0.352729
0.351537
0.3504
0.349314
0.348279
0.347304
0.372797
0.370599
0.368514
0.366537
0.364661
0.36288
0.361188
0.359581
0.358053
0.3566
0.355216
0.353899
0.352644
0.351448
0.350308
0.349221
0.348185
0.34721
0.372796
0.370596
0.368509
0.366528
0.364649
0.362864
0.361168
0.359555
0.358022
0.356563
0.355174
0.353851
0.352592
0.351391
0.350248
0.349157
0.348119
0.347141
0.372795
0.370593
0.368505
0.366523
0.364641
0.362853
0.361154
0.359539
0.358003
0.35654
0.355148
0.353823
0.35256
0.351356
0.350209
0.349116
0.348074
0.347094
0.372794
0.370592
0.368502
0.366518
0.364634
0.362845
0.361145
0.359527
0.357989
0.356525
0.355131
0.353803
0.352538
0.351333
0.350184
0.349088
0.348044
0.347061
0.372794
0.37059
0.368499
0.366515
0.36463
0.362839
0.361137
0.359519
0.357979
0.356514
0.355118
0.353789
0.352523
0.351316
0.350165
0.349067
0.348021
0.347037
0.372794
0.370589
0.368498
0.366512
0.364627
0.362835
0.361132
0.359513
0.357972
0.356506
0.355109
0.353779
0.352511
0.351303
0.350151
0.349052
0.348005
0.347019
0.372793
0.370589
0.368497
0.366512
0.364626
0.362834
0.361131
0.359511
0.357969
0.356502
0.355105
0.353774
0.352506
0.351297
0.350144
0.349045
0.347997
0.34701
0.372794
0.37059
0.368498
0.366513
0.364628
0.362836
0.361133
0.359514
0.357973
0.356506
0.355109
0.353779
0.352511
0.351302
0.350149
0.349049
0.348001
0.347015
0.372794
0.370591
0.3685
0.366516
0.364632
0.362841
0.36114
0.359522
0.357982
0.356517
0.355122
0.353793
0.352526
0.351319
0.350167
0.349069
0.348023
0.347037
0.372795
0.370593
0.368504
0.366522
0.364641
0.362855
0.361158
0.359546
0.358012
0.356552
0.355163
0.353839
0.352578
0.351375
0.350228
0.349134
0.348091
0.347108
0.372796
0.370598
0.368518
0.366547
0.364681
0.362912
0.361235
0.359642
0.358127
0.356685
0.355311
0.354001
0.35275
0.351556
0.350415
0.349324
0.348282
0.347298
0.372804
0.370631
0.368592
0.366676
0.364872
0.363166
0.361548
0.360006
0.358532
0.357121
0.355767
0.354467
0.353219
0.352019
0.350868
0.349762
0.348701
0.347697
0.372856
0.370818
0.368973
0.367264
0.365645
0.364085
0.362567
0.361083
0.359631
0.358213
0.356833
0.355493
0.354196
0.352946
0.351744
0.35059
0.349486
0.348445
0.373166
0.37177
0.370579
0.369371
0.368049
0.366605
0.365072
0.363492
0.361905
0.360342
0.358826
0.357372
0.355991
0.354688
0.353468
0.352329
0.351272
0.350303
0.374797
0.375829
0.376175
0.375401
0.373834
0.371876
0.369792
0.36774
0.365814
0.364067
0.362524
0.361195
0.360075
0.359157
0.358425
0.357864
0.357457
0.35719
0.382729
0.39167
0.392375
0.388805
0.384384
0.380403
0.377247
0.374998
0.373621
0.373038
0.373153
0.373867
0.375084
0.376716
0.378686
0.380922
0.383365
0.385945
0.407499
0.414514
0.405423
0.395992
0.390555
0.389292
0.391456
0.396216
0.402837
0.410727
0.419435
0.428621
0.43803
0.447475
0.456819
0.465968
0.474877
0.483459
0.360554
0.347547
0.334933
0.322917
0.311965
0.302353
0.29419
0.287471
0.282115
0.278004
0.275002
0.272968
0.271768
0.271276
0.271379
0.271975
0.272978
0.274305
0.000751657
0.004162
0.00686473
0.00927697
0.0118179
0.0147874
0.0182104
0.0221846
0.0268156
0.0318292
0.0370995
0.0426177
0.0483436
0.0542305
0.0602327
0.0663065
0.0724107
0.0785058
0.0845535
0.0905169
0.0963599
0.102047
0.107543
0.112812
0.117816
0.122515
0.126863
0.130807
0.134291
0.13726
0.139659
0.14142
0.142415
0.142451
0.141666
0.141633
0.142071
0.142805
0.141247
0.142901
0.146225
0.146104
0.147296
0.146903
0.151666
0.158515
0.165697
0.173119
0.180752
0.18858
0.196591
0.204777
0.213135
0.221659
0.230346
0.239195
0.248201
0.257363
0.266676
0.276139
0.285747
0.295497
0.305386
0.315407
0.325558
0.335833
0.346225
0.356731
0.367342
0.378054
0.388858
0.399748
0.410716
0.421754
0.432855
0.444011
0.455211
0.466449
0.477716
0.489001
0.500297
0.511594
0.522883
0.534154
0.545398
0.556606
0.567768
0.578874
0.589914
0.600879
0.611758
0.622541
0.633219
0.64378
0.654215
0.664517
0.67468
0.684707
0.694609
0.704422
0.71412
0.723595
0.732848
0.741878
0.750677
0.759233
0.767535
0.775574
0.783337
0.790815
0.797997
0.804874
0.811436
0.817675
0.823581
0.829148
0.834366
0.839231
0.843734
0.847871
0.851637
0.855026
0.858035
0.860661
0.862901
0.864753
0.866216
0.867289
0.867971
0.868264
0.868169
0.867688
0.866824
0.86558
0.86396
0.861968
0.859611
0.856894
0.853823
0.850406
0.846651
0.842565
0.838158
0.833439
0.828418
0.823105
0.817511
0.811647
0.805524
0.799155
0.792551
0.785725
0.77869
0.77146
0.764045
0.756459
0.74872
0.740835
0.732823
0.724696
0.716456
0.708149
0.699746
0.691321
0.682953
0.675642
0.67178
0.668353
0.664933
0.661496
0.658042
0.654572
0.651078
0.647539
0.64391
0.64009
0.635848
0.630583
0.622817
0.606063
0.00283488
0.0116966
0.0175836
0.0223003
0.0267163
0.0310477
0.0355615
0.0404
0.045604
0.0511369
0.0569456
0.0629826
0.069204
0.0755695
0.0820425
0.0885895
0.0951794
0.101783
0.108373
0.114924
0.121412
0.127815
0.134113
0.140287
0.146319
0.15219
0.15788
0.16337
0.168649
0.173715
0.178588
0.183304
0.187928
0.192643
0.19782
0.203602
0.209618
0.216744
0.225203
0.233208
0.240911
0.250802
0.261752
0.274172
0.286252
0.298066
0.310039
0.322416
0.335183
0.348314
0.361788
0.375596
0.389731
0.404189
0.418966
0.43406
0.449471
0.465195
0.48123
0.497575
0.514226
0.53118
0.548434
0.565983
0.583822
0.601946
0.620348
0.639021
0.657959
0.677152
0.696591
0.716268
0.736171
0.75629
0.776613
0.797128
0.817823
0.838685
0.859699
0.880852
0.90213
0.923517
0.945
0.966562
0.988188
1.00986
1.03157
1.05329
1.07502
1.09673
1.1184
1.14003
1.16158
1.18306
1.20443
1.22568
1.24679
1.26773
1.28849
1.30898
1.32902
1.34877
1.36823
1.38739
1.40622
1.42471
1.44284
1.46058
1.47791
1.4948
1.51125
1.52722
1.54271
1.55768
1.57211
1.586
1.59933
1.61207
1.62421
1.63573
1.64663
1.65689
1.6665
1.67544
1.68372
1.69131
1.69821
1.70441
1.70992
1.71472
1.71881
1.72219
1.72487
1.72683
1.72809
1.72865
1.72851
1.72768
1.72616
1.72396
1.7211
1.71758
1.71342
1.70862
1.70321
1.69719
1.69059
1.68342
1.67569
1.66744
1.65867
1.64941
1.63967
1.62949
1.61889
1.60787
1.59648
1.58473
1.57265
1.56028
1.54758
1.53469
1.52148
1.50817
1.49479
1.48155
1.46885
1.45621
1.44353
1.4308
1.41805
1.40527
1.39248
1.37969
1.36687
1.35397
1.34087
1.32742
1.31239
1.29293
0.00565309
0.0192972
0.0272417
0.0332906
0.0386363
0.0438154
0.0490896
0.0545941
0.0603818
0.0664518
0.0727759
0.0793167
0.0860363
0.0929
0.0998776
0.106943
0.114073
0.121248
0.128452
0.13567
0.142893
0.150111
0.157322
0.164523
0.171719
0.178914
0.186121
0.193357
0.200655
0.208062
0.215645
0.223487
0.231684
0.240347
0.249579
0.259384
0.269763
0.280777
0.292445
0.30473
0.317668
0.33137
0.345726
0.360614
0.375834
0.391334
0.407195
0.423484
0.440212
0.457371
0.474952
0.492946
0.511348
0.530153
0.549355
0.568952
0.588941
0.609317
0.630077
0.651217
0.672733
0.694621
0.716874
0.739488
0.762454
0.785766
0.809416
0.833395
0.857692
0.882297
0.907199
0.932385
0.957843
0.983558
1.00952
1.0357
1.0621
1.0887
1.11547
1.1424
1.16948
1.19668
1.22398
1.25138
1.27884
1.30635
1.33388
1.36142
1.38895
1.41645
1.44389
1.47126
1.49853
1.52569
1.55272
1.57959
1.60628
1.63278
1.65908
1.68499
1.71055
1.73577
1.76063
1.7851
1.80916
1.83278
1.85593
1.87858
1.90071
1.92228
1.94327
1.96366
1.98341
2.00251
2.02092
2.03862
2.0556
2.07183
2.08728
2.10195
2.11581
2.12884
2.14104
2.15239
2.16287
2.17247
2.18119
2.18901
2.19594
2.20196
2.20706
2.21126
2.21455
2.21693
2.2184
2.21897
2.21864
2.21742
2.21533
2.21237
2.20855
2.20389
2.1984
2.1921
2.18501
2.17715
2.16853
2.15919
2.14914
2.13841
2.12702
2.11499
2.10236
2.08916
2.07541
2.06113
2.04638
2.03116
2.01552
1.9995
1.98304
1.96639
1.94945
1.93231
1.91504
1.89777
1.8807
1.86364
1.84655
1.8294
1.81223
1.79506
1.77792
1.76083
1.7438
1.72687
1.71001
1.6933
1.67618
1.65828
0.00895453
0.0264178
0.0360485
0.0430727
0.0492017
0.0550393
0.0608777
0.0668715
0.0730944
0.0795683
0.0862841
0.0932175
0.100339
0.107621
0.115038
0.122569
0.130198
0.137914
0.145707
0.153574
0.161514
0.16953
0.17763
0.185827
0.194136
0.202581
0.211188
0.219993
0.22904
0.238383
0.248085
0.258215
0.268839
0.280021
0.291809
0.304228
0.317286
0.330989
0.345342
0.360342
0.375985
0.392263
0.40913
0.426516
0.444355
0.462616
0.48131
0.500458
0.520068
0.540145
0.560688
0.581693
0.603158
0.62508
0.647457
0.670285
0.693564
0.717288
0.741456
0.766064
0.791108
0.816583
0.842484
0.868804
0.895537
0.922675
0.950209
0.97813
1.00643
1.03509
1.0641
1.09345
1.12312
1.1531
1.18336
1.2139
1.2447
1.27573
1.30697
1.33841
1.37002
1.40179
1.43368
1.46567
1.49775
1.52989
1.56207
1.59425
1.62643
1.65857
1.69064
1.72264
1.75453
1.78629
1.81789
1.84932
1.88055
1.91156
1.94227
1.97259
2.00252
2.03206
2.06116
2.08982
2.11798
2.14561
2.17269
2.19918
2.22505
2.25025
2.27477
2.29856
2.3216
2.34386
2.36531
2.38592
2.40567
2.42453
2.44247
2.45947
2.47552
2.49059
2.50467
2.51774
2.52978
2.54079
2.55075
2.55965
2.56749
2.57426
2.57995
2.58457
2.58812
2.59059
2.592
2.59234
2.59163
2.58988
2.58709
2.58328
2.57846
2.57266
2.56588
2.55816
2.54951
2.53995
2.52952
2.51823
2.50611
2.49319
2.47951
2.46509
2.44996
2.43417
2.41773
2.40067
2.38307
2.36491
2.34626
2.32723
2.30777
2.288
2.26793
2.2476
2.22709
2.20651
2.18598
2.16542
2.14482
2.12418
2.10354
2.08292
2.06238
2.04196
2.02172
2.00174
1.98213
1.9631
1.94446
1.9264
0.0122044
0.0329048
0.0438884
0.0518314
0.0586613
0.0650606
0.0713596
0.0777382
0.0842926
0.0910659
0.0980678
0.105289
0.112711
0.120313
0.128078
0.135989
0.144036
0.152212
0.160517
0.168952
0.177524
0.186245
0.195131
0.204202
0.213483
0.223004
0.232802
0.242915
0.25339
0.264278
0.275631
0.287502
0.29994
0.312985
0.326667
0.341005
0.356003
0.371659
0.387967
0.404919
0.422501
0.440696
0.459477
0.478809
0.498661
0.519014
0.539865
0.561217
0.583076
0.605447
0.62833
0.651727
0.675638
0.700062
0.725
0.75045
0.776412
0.802884
0.829864
0.85735
0.885338
0.913825
0.942806
0.972276
1.00223
1.03265
1.06354
1.09489
1.12667
1.15889
1.19153
1.22457
1.25799
1.29178
1.32592
1.36039
1.39516
1.43022
1.46555
1.50111
1.53688
1.57284
1.60896
1.64522
1.68158
1.71803
1.75452
1.79104
1.82755
1.86403
1.90045
1.93679
1.973
2.00908
2.04498
2.08068
2.11616
2.15139
2.18621
2.22062
2.2546
2.28812
2.32115
2.35365
2.38559
2.41693
2.44762
2.47762
2.50691
2.53544
2.56317
2.59007
2.6161
2.64123
2.66543
2.68866
2.7109
2.73211
2.75227
2.77136
2.78934
2.8062
2.82193
2.83649
2.84988
2.86208
2.87308
2.88287
2.89144
2.89879
2.90492
2.90981
2.91348
2.91593
2.91716
2.91718
2.916
2.91363
2.91009
2.90538
2.89954
2.89257
2.88451
2.87537
2.86518
2.85396
2.84176
2.82858
2.81448
2.79946
2.78359
2.76689
2.74937
2.73113
2.71217
2.69245
2.6722
2.65136
2.62999
2.60816
2.58587
2.56321
2.5402
2.51691
2.4934
2.46975
2.44606
2.42231
2.39852
2.37469
2.35088
2.32714
2.30351
2.28009
2.25697
2.23428
2.2122
2.19102
2.17072
2.15149
0.0152073
0.038487
0.050733
0.0595209
0.0669855
0.0738816
0.0805754
0.0872714
0.0940864
0.101083
0.10829
0.115713
0.123345
0.131176
0.139195
0.147392
0.155762
0.164303
0.17302
0.181919
0.191014
0.20032
0.209859
0.219657
0.229744
0.240152
0.25092
0.262088
0.2737
0.285799
0.29843
0.311632
0.325442
0.339888
0.35499
0.37076
0.387201
0.40431
0.422079
0.440499
0.459557
0.47924
0.499531
0.520413
0.541868
0.563886
0.586461
0.609595
0.633291
0.657551
0.682381
0.707782
0.733757
0.760309
0.78744
0.815152
0.843444
0.872318
0.901774
0.93181
0.962425
0.993616
1.02538
1.05771
1.0906
1.12405
1.15804
1.19256
1.22761
1.26317
1.29922
1.33575
1.37274
1.41017
1.44802
1.48626
1.52487
1.56383
1.60311
1.64268
1.68251
1.72257
1.76283
1.80326
1.84383
1.8845
1.92525
1.96603
2.00682
2.04759
2.0883
2.12892
2.16941
2.20975
2.24989
2.28981
2.32947
2.36881
2.4077
2.44612
2.48406
2.52148
2.55833
2.59459
2.63021
2.66514
2.69934
2.73276
2.76536
2.7971
2.82794
2.85783
2.88675
2.91463
2.94146
2.9672
2.99181
3.01526
3.03753
3.05857
3.07837
3.09691
3.11416
3.1301
3.14472
3.158
3.16993
3.1805
3.1897
3.19753
3.20399
3.20906
3.21277
3.2151
3.21607
3.21569
3.21397
3.21093
3.20657
3.20092
3.194
3.18583
3.17644
3.16586
3.15411
3.14122
3.12723
3.11218
3.09608
3.07898
3.06095
3.042
3.02211
3.00146
2.98004
2.95786
2.93504
2.91158
2.88754
2.86298
2.83794
2.81246
2.78661
2.76044
2.73401
2.70741
2.68069
2.65389
2.62703
2.60017
2.57333
2.54659
2.52004
2.49375
2.46788
2.4426
2.41812
2.39476
2.37252
2.35151
0.017766
0.0432524
0.0565833
0.0661095
0.074131
0.0814603
0.0884926
0.0954521
0.102473
0.109636
0.116984
0.124538
0.132306
0.140285
0.148473
0.156868
0.165469
0.17428
0.183308
0.192566
0.20207
0.211839
0.221899
0.232277
0.243005
0.254118
0.265652
0.277645
0.290137
0.303164
0.316764
0.330968
0.345805
0.361294
0.377453
0.394289
0.411806
0.430002
0.448873
0.468411
0.48861
0.509459
0.530952
0.553077
0.575827
0.599197
0.623185
0.647792
0.673022
0.698878
0.725367
0.752494
0.780263
0.80868
0.837749
0.867474
0.897859
0.928905
0.960616
0.992991
1.02603
1.05974
1.0941
1.12912
1.1648
1.20112
1.23807
1.27565
1.31384
1.35264
1.39201
1.43195
1.47243
1.51344
1.55494
1.59691
1.63933
1.68216
1.72537
1.76894
1.81282
1.85698
1.90138
1.946
1.99078
2.0357
2.08072
2.12579
2.17089
2.21596
2.26098
2.3059
2.35069
2.39531
2.43971
2.48387
2.52774
2.57116
2.6141
2.65652
2.6984
2.7397
2.78036
2.82035
2.85961
2.8981
2.93577
2.97256
3.00843
3.04333
3.07721
3.11004
3.14176
3.17234
3.20173
3.2299
3.2568
3.28241
3.3067
3.32962
3.35115
3.37127
3.38996
3.40719
3.42295
3.43722
3.44999
3.46126
3.471
3.47923
3.48592
3.4911
3.49476
3.4969
3.49754
3.49669
3.49436
3.49057
3.48534
3.47868
3.47063
3.46121
3.45046
3.43839
3.42505
3.41044
3.39466
3.37771
3.35962
3.34041
3.32021
3.29903
3.27689
3.25388
3.23003
3.20539
3.18003
3.15398
3.12731
3.10006
3.07229
3.04405
3.0154
2.98639
2.9571
2.92759
2.89792
2.86815
2.83833
2.80849
2.77872
2.74907
2.71966
2.69059
2.66203
2.63418
2.60728
2.58163
2.55721
2.53406
0.0199315
0.0472252
0.0614493
0.0715915
0.0800806
0.0877733
0.0950862
0.102258
0.109437
0.116717
0.124154
0.131784
0.139624
0.147685
0.15597
0.164485
0.173235
0.182228
0.191475
0.200992
0.210797
0.220913
0.231366
0.242185
0.2534
0.265046
0.277157
0.289768
0.302913
0.316624
0.330934
0.345867
0.361448
0.377694
0.394619
0.412231
0.430536
0.449536
0.469229
0.489613
0.510686
0.532444
0.554884
0.578004
0.601802
0.626277
0.651432
0.67727
0.703797
0.73102
0.758946
0.787583
0.816939
0.847021
0.877837
0.909394
0.941697
0.974752
1.00856
1.04313
1.07846
1.11455
1.15141
1.18901
1.22738
1.26648
1.30633
1.3469
1.38818
1.43016
1.47282
1.51614
1.5601
1.60467
1.64983
1.69554
1.74177
1.78849
1.83566
1.88325
1.93121
1.97951
2.02809
2.07693
2.12598
2.17518
2.22451
2.27391
2.32334
2.37276
2.42213
2.47139
2.5205
2.56943
2.61811
2.66651
2.71457
2.7621
2.80909
2.85551
2.90132
2.94647
2.99092
3.03461
3.07749
3.11949
3.16058
3.20068
3.23976
3.27776
3.31462
3.35031
3.38477
3.41795
3.44982
3.48033
3.50945
3.53713
3.56334
3.58804
3.61121
3.63282
3.65284
3.67127
3.68807
3.70324
3.71676
3.72862
3.73881
3.74734
3.75419
3.75938
3.7629
3.76477
3.765
3.76361
3.7606
3.756
3.74983
3.74212
3.73289
3.72217
3.71
3.69643
3.68146
3.6651
3.64749
3.62864
3.60857
3.58733
3.565
3.54161
3.51721
3.49186
3.46562
3.43853
3.41065
3.38204
3.35276
3.32286
3.29241
3.26144
3.23004
3.19825
3.16614
3.13377
3.10123
3.06857
3.03584
3.00311
2.97046
2.93797
2.90577
2.87397
2.84276
2.81236
2.78299
2.75495
2.72816
2.70264
0.0216921
0.0504272
0.0653565
0.0759882
0.0848496
0.0928303
0.100362
0.107695
0.114985
0.122337
0.12982
0.137478
0.14534
0.153425
0.161747
0.170316
0.179142
0.188239
0.197621
0.207306
0.217313
0.227667
0.238394
0.249522
0.261081
0.273102
0.285617
0.298659
0.312257
0.326441
0.341238
0.356671
0.372762
0.389527
0.40698
0.425133
0.443992
0.463564
0.483852
0.50486
0.526589
0.549041
0.572221
0.596129
0.620771
0.64615
0.672274
0.69915
0.726786
0.755193
0.784381
0.814361
0.845144
0.87674
0.909161
0.942415
0.976513
1.01146
1.04726
1.08393
1.12146
1.15987
1.19914
1.23927
1.28027
1.32212
1.36482
1.40836
1.45272
1.49788
1.54383
1.59054
1.63798
1.68614
1.73497
1.78444
1.83452
1.88516
1.93633
1.98798
2.04006
2.09253
2.14534
2.19844
2.25178
2.3053
2.35897
2.41272
2.46651
2.5203
2.57401
2.62762
2.68107
2.7343
2.78727
2.83993
2.89209
2.94368
2.99468
3.04505
3.09474
3.1437
3.19187
3.23918
3.28559
3.33103
3.37544
3.41877
3.46095
3.50194
3.54167
3.5801
3.61717
3.65284
3.68706
3.71979
3.75099
3.78061
3.80862
3.83498
3.85966
3.88262
3.90386
3.92335
3.94107
3.95701
3.97116
3.98351
3.99404
4.00276
4.00967
4.01477
4.01807
4.01958
4.01932
4.01729
4.01353
4.00806
4.0009
3.99208
3.98161
3.96954
3.95594
3.94082
3.92422
3.90618
3.88676
3.86602
3.84399
3.82072
3.79628
3.77071
3.74408
3.71643
3.68782
3.65832
3.62798
3.59687
3.56503
3.53254
3.49945
3.46583
3.43173
3.39722
3.36236
3.32722
3.29188
3.2564
3.22086
3.18532
3.14987
3.11462
3.07968
3.04522
3.0114
2.97844
2.94659
2.91608
2.88681
2.85881
0.0230513
0.0528961
0.0683519
0.0793488
0.0884858
0.0966768
0.104364
0.111803
0.119158
0.12654
0.134026
0.141671
0.149511
0.157574
0.165881
0.174446
0.183287
0.19242
0.201861
0.211629
0.221748
0.232239
0.243128
0.254443
0.266213
0.278465
0.291231
0.304537
0.318414
0.332887
0.347982
0.363722
0.380126
0.397213
0.414999
0.433497
0.452718
0.472673
0.493371
0.514819
0.537025
0.559998
0.583745
0.608276
0.633598
0.659723
0.686662
0.714425
0.743027
0.772481
0.802801
0.834002
0.866098
0.899103
0.933033
0.967898
1.00371
1.04048
1.07822
1.11694
1.15663
1.19731
1.23897
1.28162
1.32525
1.36985
1.41541
1.46193
1.50938
1.55774
1.607
1.65713
1.70809
1.75986
1.8124
1.86567
1.91963
1.97423
2.02943
2.08517
2.1414
2.19807
2.25512
2.31249
2.37012
2.42797
2.48596
2.54405
2.60218
2.66029
2.71833
2.77624
2.83397
2.89145
2.94864
3.00542
3.0616
3.11716
3.17207
3.22627
3.27972
3.33235
3.3841
3.4349
3.48469
3.53341
3.58098
3.62736
3.67247
3.71627
3.75869
3.79967
3.83918
3.87715
3.91354
3.9483
3.9814
4.01278
4.04241
4.07024
4.09624
4.1204
4.14268
4.16307
4.18155
4.19811
4.21274
4.22543
4.23617
4.24495
4.25179
4.25668
4.25965
4.26071
4.25986
4.25713
4.25254
4.24613
4.23792
4.22794
4.21623
4.20282
4.18777
4.17112
4.1529
4.13317
4.11197
4.08937
4.06541
4.04015
4.01364
3.98595
3.95713
3.92724
3.89634
3.8645
3.83177
3.79823
3.76392
3.72893
3.6933
3.65711
3.62041
3.58327
3.54576
3.50795
3.46992
3.43174
3.39349
3.35524
3.31711
3.27918
3.24161
3.20454
3.16817
3.1327
3.09837
3.06537
3.03356
3.00303
0.0240275
0.0546858
0.0705027
0.0817467
0.0910655
0.099389
0.107166
0.114656
0.122028
0.129398
0.13685
0.144443
0.152223
0.160223
0.168469
0.176982
0.185783
0.194889
0.204321
0.214098
0.224243
0.234779
0.245729
0.257121
0.268981
0.281337
0.294215
0.307643
0.321648
0.336256
0.35149
0.367375
0.383931
0.401179
0.419138
0.437824
0.457253
0.47744
0.4984
0.520146
0.542691
0.56605
0.590237
0.615265
0.64115
0.667907
0.695553
0.724104
0.753578
0.783993
0.815368
0.847722
0.881072
0.915437
0.950834
0.987279
1.02479
1.06337
1.10304
1.14381
1.18568
1.22866
1.27274
1.31793
1.36423
1.41161
1.46008
1.50962
1.56022
1.61183
1.66445
1.71805
1.77258
1.82801
1.8843
1.9414
1.99926
2.05784
2.11708
2.17692
2.2373
2.29815
2.35941
2.42102
2.4829
2.545
2.60726
2.66961
2.73198
2.79432
2.85657
2.91866
2.98054
3.04215
3.1034
3.16405
3.22407
3.28341
3.34202
3.39984
3.45682
3.5129
3.56799
3.62205
3.67497
3.72671
3.77719
3.82635
3.87413
3.92046
3.9653
4.00858
4.05024
4.09025
4.12854
4.16507
4.19981
4.2327
4.26371
4.29277
4.31987
4.34498
4.36808
4.38916
4.4082
4.42518
4.44011
4.45297
4.46375
4.47244
4.47906
4.48362
4.48614
4.48663
4.4851
4.48159
4.47612
4.46873
4.45944
4.44828
4.4353
4.42055
4.40406
4.38589
4.36608
4.34468
4.32174
4.29734
4.27151
4.24431
4.21582
4.18608
4.15516
4.12313
4.09004
4.05597
4.02097
3.98511
3.94846
3.91108
3.87305
3.83441
3.79525
3.75563
3.71561
3.67527
3.63469
3.59395
3.55313
3.51232
3.47162
3.43116
3.39107
3.3515
3.31266
3.27475
3.23798
3.20251
3.16819
3.13515
0.0246518
0.0558636
0.0718924
0.0832748
0.0926868
0.101068
0.108871
0.116357
0.123699
0.131015
0.138394
0.1459
0.153584
0.161484
0.169629
0.178047
0.186758
0.195784
0.205145
0.214863
0.224958
0.235455
0.246377
0.257748
0.269594
0.281941
0.294816
0.308244
0.322253
0.336868
0.352115
0.368017
0.3846
0.401885
0.419896
0.438652
0.458177
0.478488
0.499608
0.521554
0.544348
0.56801
0.592559
0.618016
0.644402
0.671738
0.700046
0.729348
0.759667
0.791026
0.823448
0.856957
0.891574
0.927321
0.964219
1.00229
1.04154
1.082
1.12367
1.16657
1.2107
1.25606
1.30266
1.35049
1.39954
1.44981
1.50128
1.55394
1.60775
1.6627
1.71876
1.77588
1.83402
1.89316
1.95322
2.01417
2.07595
2.13849
2.20175
2.26564
2.33011
2.39507
2.46046
2.5262
2.59221
2.65843
2.72478
2.79121
2.85764
2.92401
2.99025
3.05631
3.12211
3.18759
3.25249
3.31674
3.38028
3.44308
3.50506
3.56616
3.62633
3.68549
3.74358
3.80053
3.85622
3.91061
3.96361
4.01518
4.06524
4.11374
4.16062
4.20582
4.24928
4.29095
4.33079
4.36874
4.40477
4.43887
4.47094
4.50092
4.52881
4.55458
4.57823
4.59973
4.61907
4.63624
4.65123
4.66405
4.67467
4.6831
4.68936
4.69346
4.6954
4.69523
4.69294
4.68858
4.68217
4.67374
4.66334
4.65099
4.63675
4.62065
4.60275
4.58309
4.56173
4.53872
4.51412
4.48799
4.46038
4.43135
4.40098
4.36932
4.33643
4.30239
4.26726
4.2311
4.19398
4.15597
4.11714
4.07756
4.03728
3.99639
3.95494
3.91301
3.87067
3.82798
3.78504
3.74193
3.69872
3.65553
3.61245
3.56961
3.52715
3.48524
3.44406
3.40381
3.36468
3.32682
3.29007
3.25459
0.0249668
0.0565074
0.0726159
0.0840389
0.0934626
0.101831
0.109597
0.117026
0.12429
0.131512
0.138781
0.146166
0.153721
0.161487
0.169496
0.177778
0.186357
0.195254
0.204491
0.214089
0.22407
0.234457
0.245272
0.25654
0.268286
0.280535
0.293314
0.306649
0.320567
0.335097
0.350264
0.366096
0.38262
0.399863
0.417852
0.436613
0.456172
0.476556
0.497792
0.519905
0.542922
0.566871
0.591779
0.617673
0.644579
0.672525
0.701537
0.731645
0.762877
0.795259
0.82882
0.863587
0.899586
0.936842
0.975378
1.01522
1.05637
1.09887
1.14272
1.18792
1.23449
1.28241
1.3317
1.38233
1.43431
1.48761
1.54222
1.59812
1.65528
1.71366
1.77323
1.83394
1.89575
1.95861
2.02245
2.08722
2.15286
2.2193
2.28647
2.3543
2.42271
2.49164
2.56096
2.63061
2.7005
2.77056
2.84073
2.91093
2.98109
3.05115
3.12103
3.19067
3.26002
3.3288
3.39691
3.4643
3.53091
3.59668
3.66154
3.72543
3.78827
3.85001
3.91059
3.96994
4.02788
4.08439
4.13941
4.19287
4.24471
4.29487
4.3433
4.38993
4.43471
4.47758
4.51851
4.55744
4.59433
4.62915
4.66184
4.69236
4.72069
4.7468
4.77068
4.79231
4.81167
4.82877
4.84359
4.85613
4.8664
4.87439
4.88012
4.8836
4.88485
4.8839
4.88076
4.87548
4.86807
4.85858
4.84704
4.8335
4.818
4.80059
4.78132
4.76024
4.7374
4.71287
4.68671
4.65896
4.6297
4.59899
4.56689
4.53347
4.49879
4.46292
4.42593
4.38788
4.34885
4.30891
4.26811
4.22654
4.18425
4.14133
4.09782
4.05382
4.00938
3.96459
3.91952
3.87427
3.82891
3.78356
3.73831
3.69331
3.64868
3.6046
3.56125
3.51882
3.47748
3.43737
3.39832
3.36052
0.0250239
0.056702
0.0727755
0.0841524
0.0935143
0.101804
0.109477
0.116797
0.123939
0.131026
0.13815
0.145382
0.152777
0.160378
0.16822
0.176333
0.184741
0.193468
0.202536
0.211966
0.22178
0.232
0.24265
0.253754
0.265337
0.277427
0.290049
0.303232
0.317006
0.3314
0.346444
0.36217
0.378609
0.395792
0.413752
0.43252
0.452131
0.472616
0.49401
0.516346
0.53966
0.563987
0.589361
0.615816
0.643386
0.672102
0.701997
0.733104
0.765457
0.799088
0.834028
0.870308
0.907956
0.946998
0.987459
1.02936
1.07272
1.11756
1.16389
1.21171
1.26102
1.31179
1.36403
1.41773
1.47286
1.52942
1.58736
1.64667
1.70731
1.76922
1.83238
1.89672
1.96219
2.02873
2.09628
2.16476
2.23411
2.30425
2.3751
2.4466
2.51868
2.59128
2.66418
2.73734
2.81069
2.88415
2.95766
3.03113
3.10451
3.17773
3.2507
3.32338
3.39546
3.46688
3.53756
3.60743
3.67644
3.7445
3.81156
3.87753
3.94236
4.00596
4.06828
4.12924
4.18873
4.24669
4.30305
4.35776
4.41074
4.46195
4.51131
4.55878
4.6043
4.64782
4.68929
4.72867
4.76593
4.80101
4.83388
4.8645
4.89285
4.9189
4.94263
4.96404
4.98311
4.99984
5.01421
5.02624
5.03592
5.04327
5.04829
5.051
5.05143
5.04959
5.04552
5.03924
5.03079
5.02021
5.00754
4.99283
4.97611
4.95744
4.93688
4.91448
4.89028
4.86436
4.83677
4.80758
4.77684
4.74463
4.711
4.67603
4.63978
4.60232
4.56371
4.52403
4.48335
4.44173
4.39924
4.35596
4.31194
4.26727
4.222
4.17621
4.12997
4.08336
4.03645
3.98934
3.94211
3.89487
3.84773
3.80082
3.75428
3.70827
3.66297
3.61856
3.57521
3.53304
3.49187
3.45194
0.0248822
0.056536
0.0724756
0.0837307
0.0929649
0.101118
0.108644
0.115808
0.122786
0.129702
0.136649
0.143699
0.150907
0.158318
0.165966
0.173882
0.182091
0.190617
0.199484
0.208712
0.218324
0.228345
0.238798
0.249708
0.261104
0.273013
0.285466
0.298493
0.312127
0.326401
0.341352
0.357015
0.373429
0.39063
0.40866
0.427555
0.447355
0.468102
0.489838
0.512607
0.536452
0.561417
0.587546
0.614885
0.643472
0.673333
0.704505
0.737029
0.770942
0.806279
0.843072
0.881352
0.921147
0.962479
1.00537
1.04984
1.0959
1.14357
1.19286
1.24379
1.2963
1.35034
1.40592
1.46301
1.52159
1.58164
1.64312
1.70599
1.77019
1.83569
1.90241
1.97031
2.03932
2.10936
2.18037
2.25227
2.32498
2.39842
2.47252
2.54717
2.62232
2.69786
2.77368
2.84968
2.9258
3.00195
3.07806
3.15406
3.22988
3.30548
3.3807
3.45531
3.52924
3.60241
3.67477
3.74622
3.81671
3.88616
3.9545
4.02166
4.08756
4.15215
4.21535
4.27708
4.33726
4.39583
4.45272
4.50787
4.56122
4.6127
4.66227
4.70986
4.75543
4.79893
4.84032
4.87954
4.91657
4.95136
4.98389
5.01411
5.04201
5.06755
5.09073
5.11154
5.12996
5.14599
5.15963
5.17088
5.17974
5.18623
5.19037
5.19216
5.19163
5.18881
5.18373
5.17642
5.16691
5.15525
5.14148
5.12564
5.10778
5.08796
5.06623
5.04263
5.01724
4.9901
4.96129
4.93086
4.89887
4.8654
4.8305
4.79425
4.75671
4.71795
4.67803
4.63703
4.59502
4.55205
4.50821
4.46355
4.41815
4.37207
4.32538
4.27816
4.23046
4.18238
4.13398
4.08535
4.0366
3.9878
3.93909
3.89058
3.84242
3.79477
3.7478
3.70168
3.65656
3.61257
3.56953
3.52769
0.0245932
0.056083
0.0717982
0.0828602
0.0919032
0.0998606
0.107186
0.114146
0.120918
0.127626
0.134363
0.141202
0.148196
0.155391
0.162821
0.170518
0.178507
0.186814
0.195462
0.204477
0.213881
0.223701
0.233966
0.244702
0.255943
0.267719
0.280067
0.293022
0.306625
0.320913
0.335931
0.351722
0.368335
0.385818
0.404222
0.423587
0.44396
0.465394
0.487942
0.511657
0.536593
0.562805
0.590349
0.619289
0.649688
0.681497
0.714779
0.74958
0.785938
0.823886
0.863451
0.904658
0.947523
0.992062
1.03828
1.08619
1.13579
1.18707
1.24002
1.29464
1.35087
1.40869
1.46805
1.52893
1.59128
1.65506
1.72022
1.78671
1.85446
1.92343
1.99353
2.06471
2.1369
2.21001
2.28398
2.35871
2.43414
2.51017
2.58672
2.66372
2.74106
2.81867
2.89645
2.9743
3.05216
3.12995
3.2076
3.28506
3.36223
3.43888
3.51492
3.59025
3.66481
3.73853
3.81134
3.88315
3.95391
4.02354
4.09198
4.15914
4.22498
4.28941
4.35237
4.41379
4.47361
4.53175
4.58815
4.64276
4.69551
4.74635
4.79522
4.84208
4.88688
4.92957
4.9701
5.00845
5.04456
5.07841
5.10997
5.13921
5.16611
5.19064
5.21279
5.23255
5.24991
5.26487
5.27744
5.28761
5.29539
5.30079
5.30384
5.30454
5.30292
5.29902
5.29286
5.28446
5.27388
5.26116
5.24632
5.22943
5.21053
5.18966
5.1669
5.14228
5.11587
5.08772
5.05791
5.02648
4.99351
4.95906
4.92318
4.88596
4.84745
4.80772
4.76683
4.72486
4.68187
4.63793
4.59309
4.54744
4.50103
4.45393
4.40621
4.35794
4.30918
4.26
4.21049
4.16073
4.11081
4.06083
4.0109
3.96114
3.9117
3.86272
3.81437
3.76683
3.72023
3.67469
3.63005
3.58659
0.0242853
0.0555013
0.0709244
0.0817373
0.0905392
0.0982573
0.105346
0.112073
0.118615
0.125098
0.131615
0.138236
0.145016
0.151999
0.159221
0.166714
0.174507
0.182628
0.191105
0.199965
0.209239
0.218958
0.229155
0.239868
0.251134
0.262996
0.275496
0.288684
0.302612
0.317324
0.332872
0.349316
0.36672
0.385157
0.404714
0.425388
0.447237
0.470334
0.494744
0.520531
0.547752
0.576464
0.606721
0.638573
0.672057
0.707187
0.743991
0.782493
0.822715
0.864669
0.908365
0.953802
1.00098
1.04988
1.1005
1.15282
1.2068
1.26243
1.31967
1.37848
1.43882
1.50063