/*--------------------------------*- C++ -*----------------------------------*\
  =========                 |
  \\      /  F ield         | OpenFOAM: The Open Source CFD Toolbox
   \\    /   O peration     | Website:  https://openfoam.org
    \\  /    A nd           | Version:  9
     \\/     M anipulation  |
\*---------------------------------------------------------------------------*/
FoamFile
{
    format      ascii;
    class       surfaceScalarField;
    location    "0.23";
    object      phi;
}
// * * * * * * * * * * * * * * * * * * * * * * * * * * * * * * * * * * * * * //

dimensions      [0 3 -1 0 0 0 0];

internalField   nonuniform List<scalar> 
24170
(
3.1336e-06
5.48064e-08
3.04827e-06
8.53268e-08
2.97315e-06
7.51242e-08
2.90431e-06
6.88368e-08
2.83948e-06
6.48301e-08
2.78226e-06
5.72228e-08
2.73336e-06
4.89012e-08
2.69183e-06
4.1526e-08
2.65639e-06
3.54413e-08
2.62587e-06
3.05244e-08
2.59929e-06
2.65757e-08
2.57586e-06
2.34314e-08
2.55489e-06
2.09725e-08
2.5357e-06
1.91854e-08
2.51766e-06
1.80386e-08
2.499e-06
1.86622e-08
2.47846e-06
2.05447e-08
3.76966e-08
2.44076e-06
3.45361e-06
1.84445e-08
3.45616e-06
8.27734e-08
3.44962e-06
8.16688e-08
3.438e-06
8.04582e-08
3.42351e-06
7.93186e-08
3.40597e-06
7.47638e-08
3.38634e-06
6.8531e-08
3.36543e-06
6.24303e-08
3.34403e-06
5.6849e-08
3.32272e-06
5.18294e-08
3.30192e-06
4.73794e-08
3.28184e-06
4.35086e-08
3.2626e-06
4.02099e-08
3.2442e-06
3.75932e-08
3.22666e-06
3.55713e-08
3.20985e-06
3.54784e-08
3.19465e-06
3.57465e-08
4.59086e-08
3.18643e-06
3.66535e-06
1.56077e-08
3.67825e-06
6.98742e-08
3.68531e-06
7.46078e-08
3.6896e-06
7.61762e-08
3.69127e-06
7.76451e-08
3.69014e-06
7.5896e-08
3.68669e-06
7.1983e-08
3.68149e-06
6.76263e-08
3.67498e-06
6.33627e-08
3.66749e-06
5.93111e-08
3.65933e-06
5.55479e-08
3.65068e-06
5.21516e-08
3.64171e-06
4.91771e-08
3.63253e-06
4.67734e-08
3.62314e-06
4.49649e-08
3.61397e-06
4.46538e-08
3.60467e-06
4.50384e-08
4.96368e-08
3.60095e-06
3.92465e-06
1.63471e-08
3.9358e-06
5.87223e-08
3.94254e-06
6.78638e-08
3.94802e-06
7.07e-08
3.95243e-06
7.32332e-08
3.95535e-06
7.29758e-08
3.95691e-06
7.04303e-08
3.95739e-06
6.71441e-08
3.95699e-06
6.37625e-08
3.95585e-06
6.04449e-08
3.95412e-06
5.7285e-08
3.95189e-06
5.43834e-08
3.94924e-06
5.18231e-08
3.94627e-06
4.97471e-08
3.943e-06
4.8233e-08
3.93987e-06
4.77822e-08
3.93688e-06
4.8023e-08
4.99039e-08
3.93662e-06
4.20777e-06
1.57067e-08
4.216e-06
5.04902e-08
4.22166e-06
6.21994e-08
4.2266e-06
6.57674e-08
4.2313e-06
6.85337e-08
4.23525e-06
6.90185e-08
4.23835e-06
6.73343e-08
4.24072e-06
6.47739e-08
4.24247e-06
6.2008e-08
4.2437e-06
5.92206e-08
4.24447e-06
5.65128e-08
4.24486e-06
5.39937e-08
4.24493e-06
5.17574e-08
4.24475e-06
4.99257e-08
4.2444e-06
4.85769e-08
4.24423e-06
4.79552e-08
4.24441e-06
4.78399e-08
4.82702e-08
4.24605e-06
4.51044e-06
1.43538e-08
4.51686e-06
4.40674e-08
4.52217e-06
5.68876e-08
4.52683e-06
6.11072e-08
4.53145e-06
6.39198e-08
4.53564e-06
6.48267e-08
4.53923e-06
6.37495e-08
4.54227e-06
6.17291e-08
4.54486e-06
5.94223e-08
4.54704e-06
5.70366e-08
4.54887e-06
5.46787e-08
4.55041e-06
5.24583e-08
4.5517e-06
5.0469e-08
4.55282e-06
4.88065e-08
4.55387e-06
4.75269e-08
4.5551e-06
4.67231e-08
4.55672e-06
4.62168e-08
4.57727e-08
4.55922e-06
4.83412e-06
1.29528e-08
4.83958e-06
3.86078e-08
4.84483e-06
5.16352e-08
4.84942e-06
5.65162e-08
4.85393e-06
5.94093e-08
4.85816e-06
6.05971e-08
4.86193e-06
5.99834e-08
4.86527e-06
5.83936e-08
4.86824e-06
5.64514e-08
4.87089e-06
5.43863e-08
4.87326e-06
5.23103e-08
4.87538e-06
5.03285e-08
4.87733e-06
4.85276e-08
4.87915e-06
4.69781e-08
4.88097e-06
4.571e-08
4.88296e-06
4.47322e-08
4.88529e-06
4.38849e-08
4.29039e-08
4.88816e-06
5.1809e-06
1.16328e-08
5.18571e-06
3.38026e-08
5.19084e-06
4.65003e-08
5.19542e-06
5.19365e-08
5.19989e-06
5.49449e-08
5.20415e-06
5.63362e-08
5.20803e-06
5.6099e-08
5.21155e-06
5.48778e-08
5.21475e-06
5.32468e-08
5.21768e-06
5.14528e-08
5.22038e-06
4.96136e-08
5.22288e-06
4.78278e-08
5.22524e-06
4.61724e-08
5.22752e-06
4.46976e-08
5.22982e-06
4.34119e-08
5.23226e-06
4.22838e-08
5.23497e-06
4.11745e-08
3.9871e-08
5.23801e-06
5.5526e-06
1.03694e-08
5.55685e-06
2.95524e-08
5.56177e-06
4.15822e-08
5.56634e-06
4.73687e-08
5.57079e-06
5.04874e-08
5.5751e-06
5.20275e-08
5.5791e-06
5.21016e-08
5.58277e-06
5.12076e-08
5.58616e-06
4.98556e-08
5.58931e-06
4.83019e-08
5.59226e-06
4.66697e-08
5.59503e-06
4.50507e-08
5.59769e-06
4.35124e-08
5.6003e-06
4.20903e-08
5.60293e-06
4.078e-08
5.60568e-06
3.95362e-08
5.60861e-06
3.82464e-08
3.67629e-08
5.61172e-06
5.95099e-06
9.15943e-09
5.95476e-06
2.578e-08
5.95941e-06
3.69261e-08
5.96395e-06
4.28336e-08
5.96841e-06
4.60294e-08
5.97276e-06
4.76726e-08
5.97687e-06
4.7996e-08
5.98069e-06
4.73895e-08
5.98425e-06
4.62907e-08
5.9876e-06
4.49547e-08
5.99076e-06
4.35085e-08
5.99377e-06
4.20374e-08
5.99668e-06
4.06e-08
5.99955e-06
3.9223e-08
6.00244e-06
3.78968e-08
6.00539e-06
3.65779e-08
6.00846e-06
3.51818e-08
3.36178e-08
6.0116e-06
6.37796e-06
8.01628e-09
6.38133e-06
2.2408e-08
6.38571e-06
3.25408e-08
6.39019e-06
3.83561e-08
6.39464e-06
4.15767e-08
6.39903e-06
4.32813e-08
6.40324e-06
4.37925e-08
6.4072e-06
4.34293e-08
6.41093e-06
4.25573e-08
6.41447e-06
4.1419e-08
6.41783e-06
4.01424e-08
6.42106e-06
3.88065e-08
6.4242e-06
3.7463e-08
6.42729e-06
3.6134e-08
6.43038e-06
3.48108e-08
6.43349e-06
3.34593e-08
6.43666e-06
3.2021e-08
3.04485e-08
6.43982e-06
5.74175e-06
7.10162e-09
5.74433e-06
1.98232e-08
5.74783e-06
2.90411e-08
5.75156e-06
3.46305e-08
5.75531e-06
3.78212e-08
5.75905e-06
3.95493e-08
5.76267e-06
4.01733e-08
5.76612e-06
3.99781e-08
5.7694e-06
3.9276e-08
5.77253e-06
3.82902e-08
5.77552e-06
3.71457e-08
5.77841e-06
3.59175e-08
5.78122e-06
3.46527e-08
5.78399e-06
3.33719e-08
5.78673e-06
3.20698e-08
5.78946e-06
3.07224e-08
5.79219e-06
2.92895e-08
2.77518e-08
5.79489e-06
6.99913e-06
6.12416e-09
7.00187e-06
1.70895e-08
7.00565e-06
2.52542e-08
7.00982e-06
3.04649e-08
7.0141e-06
3.35426e-08
7.01839e-06
3.5252e-08
7.02261e-06
3.59586e-08
7.02667e-06
3.59154e-08
7.03057e-06
3.53801e-08
7.03431e-06
3.4551e-08
7.03791e-06
3.35463e-08
7.04139e-06
3.24364e-08
7.04478e-06
3.12642e-08
7.0481e-06
3.00503e-08
7.05137e-06
2.87949e-08
7.05461e-06
2.74852e-08
7.0578e-06
2.60984e-08
2.46366e-08
7.06092e-06
8.53188e-06
5.09312e-09
8.53473e-06
1.42331e-08
8.53878e-06
2.12071e-08
8.54338e-06
2.58653e-08
8.54821e-06
2.87182e-08
8.55311e-06
3.03458e-08
8.55798e-06
3.10876e-08
8.56273e-06
3.11647e-08
8.56733e-06
3.07829e-08
8.57177e-06
3.01087e-08
8.57607e-06
2.92495e-08
8.58024e-06
2.82698e-08
8.58429e-06
2.72092e-08
8.58825e-06
2.60888e-08
8.59213e-06
2.49151e-08
8.59593e-06
2.3686e-08
8.59964e-06
2.23928e-08
2.10517e-08
8.60322e-06
1.04003e-05
4.01904e-09
1.04033e-05
1.12718e-08
1.04075e-05
1.69183e-08
1.04126e-05
2.0838e-08
1.0418e-05
2.3326e-08
1.04235e-05
2.47851e-08
1.04291e-05
2.54968e-08
1.04346e-05
2.56467e-08
1.044e-05
2.53924e-08
1.04453e-05
2.48649e-08
1.04504e-05
2.41552e-08
1.04553e-05
2.33202e-08
1.04601e-05
2.23957e-08
1.04648e-05
2.14033e-08
1.04694e-05
2.03547e-08
1.04738e-05
1.92558e-08
1.04781e-05
1.81076e-08
1.69341e-08
1.04822e-05
1.26779e-05
2.90752e-09
1.2681e-05
8.197e-09
1.26855e-05
1.23793e-08
1.2691e-05
1.53714e-08
1.2697e-05
1.73313e-08
1.27033e-05
1.85098e-08
1.27096e-05
1.91096e-08
1.2716e-05
1.92714e-08
1.27223e-05
1.91079e-08
1.27285e-05
1.8713e-08
1.27344e-05
1.81562e-08
1.27403e-05
1.74836e-08
1.2746e-05
1.67255e-08
1.27515e-05
1.59025e-08
1.27568e-05
1.50281e-08
1.27619e-05
1.41128e-08
1.27669e-05
1.31625e-08
1.22036e-08
1.27716e-05
1.54543e-05
1.74748e-09
1.54576e-05
4.95801e-09
1.54624e-05
7.52299e-09
1.54684e-05
9.39568e-09
1.54751e-05
1.06505e-08
1.54822e-05
1.14173e-08
1.54895e-05
1.18114e-08
1.54968e-05
1.19178e-08
1.55041e-05
1.1804e-08
1.55113e-05
1.15263e-08
1.55184e-05
1.11282e-08
1.55252e-05
1.06406e-08
1.55318e-05
1.00851e-08
1.55383e-05
9.4776e-09
1.55445e-05
8.83034e-09
1.55504e-05
8.1538e-09
1.55561e-05
7.45485e-09
6.75758e-09
1.55616e-05
1.88389e-05
4.9749e-10
1.88424e-05
1.42372e-09
1.88478e-05
2.1633e-09
1.88545e-05
2.70547e-09
1.8862e-05
3.07204e-09
1.88702e-05
3.29242e-09
1.88786e-05
3.38913e-09
1.88871e-05
3.38088e-09
1.88957e-05
3.28593e-09
1.89041e-05
3.12062e-09
1.89123e-05
2.89803e-09
1.89203e-05
2.62853e-09
1.89281e-05
2.32072e-09
1.89356e-05
1.98211e-09
1.89428e-05
1.61946e-09
1.89497e-05
1.23958e-09
1.89563e-05
8.47032e-10
4.60842e-10
1.89626e-05
2.29648e-05
-9.49388e-10
2.29689e-05
-2.70723e-09
2.29752e-05
-4.13669e-09
2.29831e-05
-5.19518e-09
2.29921e-05
-5.89942e-09
2.30017e-05
-6.3361e-09
2.30117e-05
-6.59851e-09
2.30218e-05
-6.74532e-09
2.30319e-05
-6.81329e-09
2.30419e-05
-6.83358e-09
2.30516e-05
-6.83135e-09
2.30611e-05
-6.82261e-09
2.30702e-05
-6.81607e-09
2.3079e-05
-6.81622e-09
2.30874e-05
-6.82501e-09
2.30955e-05
-6.84207e-09
2.31032e-05
-6.86723e-09
-6.88831e-09
2.31106e-05
1.68118e-05
-2.09427e-09
1.68151e-05
-5.9405e-09
1.682e-05
-9.06245e-09
1.68261e-05
-1.13161e-08
1.6833e-05
-1.27502e-08
1.68402e-05
-1.35989e-08
1.68477e-05
-1.40662e-08
1.68552e-05
-1.42602e-08
1.68627e-05
-1.42558e-08
1.687e-05
-1.41237e-08
1.6877e-05
-1.39186e-08
1.68839e-05
-1.36747e-08
1.68905e-05
-1.34125e-08
1.68968e-05
-1.31453e-08
1.69029e-05
-1.28811e-08
1.69087e-05
-1.2624e-08
1.69142e-05
-1.23762e-08
-1.21298e-08
1.69194e-05
1.46357e-05
-3.2026e-09
1.46388e-05
-9.0983e-09
1.46437e-05
-1.38841e-08
1.46495e-05
-1.71946e-08
1.4656e-05
-1.91761e-08
1.46627e-05
-2.03032e-08
1.46695e-05
-2.08781e-08
1.46763e-05
-2.1035e-08
1.46829e-05
-2.08939e-08
1.46893e-05
-2.05708e-08
1.46956e-05
-2.01451e-08
1.47016e-05
-1.96618e-08
1.47073e-05
-1.915e-08
1.47128e-05
-1.86295e-08
1.4718e-05
-1.81133e-08
1.4723e-05
-1.76079e-08
1.47277e-05
-1.71173e-08
-1.66362e-08
1.47322e-05
1.27412e-05
-4.25034e-09
1.27444e-05
-1.23073e-08
1.27493e-05
-1.88392e-08
1.27551e-05
-2.29852e-08
1.27612e-05
-2.52853e-08
1.27675e-05
-2.65843e-08
1.27738e-05
-2.71863e-08
1.278e-05
-2.72184e-08
1.2786e-05
-2.6872e-08
1.27917e-05
-2.63184e-08
1.27972e-05
-2.56526e-08
1.28025e-05
-2.49242e-08
1.28075e-05
-2.41673e-08
1.28123e-05
-2.34066e-08
1.28169e-05
-2.26572e-08
1.28212e-05
-2.19266e-08
1.28253e-05
-2.12186e-08
-2.05293e-08
1.28292e-05
1.10918e-05
-5.12704e-09
1.10951e-05
-1.56276e-08
1.11004e-05
-2.41318e-08
1.11062e-05
-2.87628e-08
1.1112e-05
-3.11211e-08
1.11179e-05
-3.24966e-08
1.11238e-05
-3.30372e-08
1.11294e-05
-3.28621e-08
1.11348e-05
-3.22629e-08
1.114e-05
-3.14561e-08
1.11449e-05
-3.05387e-08
1.11495e-05
-2.9562e-08
1.11539e-05
-2.85657e-08
1.11581e-05
-2.75772e-08
1.1162e-05
-2.66115e-08
1.11658e-05
-2.56754e-08
1.11693e-05
-2.47721e-08
-2.38981e-08
1.11727e-05
9.65583e-06
-5.74051e-09
9.65935e-06
-1.915e-08
9.66495e-06
-2.97299e-08
9.67063e-06
-3.44417e-08
9.67626e-06
-3.67545e-08
9.68189e-06
-3.81252e-08
9.68732e-06
-3.84632e-08
9.69244e-06
-3.79875e-08
9.69728e-06
-3.71059e-08
9.70187e-06
-3.60405e-08
9.7062e-06
-3.48714e-08
9.71029e-06
-3.36497e-08
9.71414e-06
-3.24205e-08
9.71778e-06
-3.12129e-08
9.72121e-06
-3.00412e-08
9.72444e-06
-2.89113e-08
9.7275e-06
-2.78244e-08
-2.67757e-08
9.73037e-06
8.40543e-06
-5.81993e-09
8.4098e-06
-2.35227e-08
8.4153e-06
-3.52297e-08
8.42049e-06
-3.96272e-08
8.42591e-06
-4.21785e-08
8.43138e-06
-4.35893e-08
8.43652e-06
-4.3605e-08
8.44127e-06
-4.27374e-08
8.44569e-06
-4.15225e-08
8.44981e-06
-4.01603e-08
8.45364e-06
-3.87082e-08
8.45721e-06
-3.7218e-08
8.46053e-06
-3.57378e-08
8.46361e-06
-3.42963e-08
8.46648e-06
-3.29074e-08
8.46914e-06
-3.15768e-08
8.47162e-06
-3.03053e-08
-2.90891e-08
8.47394e-06
7.31506e-06
-3.59214e-09
7.32194e-06
-3.04056e-08
7.32739e-06
-4.06762e-08
7.33215e-06
-4.43903e-08
7.33745e-06
-4.74842e-08
7.34282e-06
-4.89559e-08
7.34777e-06
-4.8558e-08
7.35225e-06
-4.72086e-08
7.35628e-06
-4.55548e-08
7.35989e-06
-4.3775e-08
7.36311e-06
-4.19284e-08
7.36597e-06
-4.00781e-08
7.36851e-06
-3.82736e-08
7.37075e-06
-3.65411e-08
7.37274e-06
-3.48922e-08
7.37449e-06
-3.33314e-08
7.37604e-06
-3.18559e-08
-3.04593e-08
7.37741e-06
6.36222e-06
4.25399e-09
6.37294e-06
-4.11282e-08
6.38007e-06
-4.77993e-08
6.38624e-06
-5.05655e-08
6.3922e-06
-5.34467e-08
6.39748e-06
-5.42354e-08
6.40183e-06
-5.29073e-08
6.4054e-06
-5.07745e-08
6.40829e-06
-4.84509e-08
6.41057e-06
-4.60488e-08
6.41228e-06
-4.36358e-08
6.41349e-06
-4.12896e-08
6.41427e-06
-3.90587e-08
6.41469e-06
-3.69627e-08
6.41481e-06
-3.50083e-08
6.41467e-06
-3.31966e-08
6.41434e-06
-3.15192e-08
-2.99558e-08
6.41383e-06
5.53608e-06
1.36392e-08
5.54775e-06
-5.28001e-08
5.55743e-06
-5.74825e-08
5.566e-06
-5.913e-08
5.57276e-06
-6.02077e-08
5.57717e-06
-5.8649e-08
5.57931e-06
-5.50453e-08
5.57974e-06
-5.1199e-08
5.57887e-06
-4.75846e-08
5.57699e-06
-4.41737e-08
5.57433e-06
-4.09738e-08
5.57107e-06
-3.80224e-08
5.56734e-06
-3.53333e-08
5.56327e-06
-3.28979e-08
5.55897e-06
-3.07019e-08
5.55451e-06
-2.87423e-08
5.55001e-06
-2.70101e-08
-2.54443e-08
5.54549e-06
4.85751e-06
-1.62612e-08
4.86091e-06
-5.62005e-08
4.8615e-06
-5.80732e-08
4.85883e-06
-5.64589e-08
4.85482e-06
-5.61968e-08
4.84812e-06
-5.19483e-08
4.83886e-06
-4.57855e-08
4.8276e-06
-3.99404e-08
4.81498e-06
-3.49668e-08
4.80159e-06
-3.07875e-08
4.78789e-06
-2.72666e-08
4.77416e-06
-2.43009e-08
4.76063e-06
-2.17996e-08
4.74742e-06
-1.96836e-08
4.73461e-06
-1.789e-08
4.72227e-06
-1.64088e-08
4.71053e-06
-1.52665e-08
-1.49562e-08
4.70004e-06
4.18641e-06
4.13021e-06
4.07214e-06
4.01568e-06
3.95949e-06
3.90754e-06
3.86175e-06
3.82181e-06
3.78684e-06
3.75606e-06
3.72879e-06
3.70449e-06
3.68269e-06
3.66301e-06
3.64512e-06
3.62871e-06
3.61344e-06
3.59848e-06
9.80968e-09
-9.80968e-09
2.06954e-08
-1.08857e-08
2.81418e-08
-7.44637e-09
3.10698e-08
-2.92803e-09
2.94179e-08
1.65195e-09
2.38468e-08
5.57105e-09
1.51636e-08
8.68324e-09
4.13853e-09
1.1025e-08
-8.6371e-09
1.27756e-08
-2.27722e-08
1.41351e-08
-3.80258e-08
1.52536e-08
-5.42552e-08
1.62293e-08
-7.13784e-08
1.71232e-08
-8.93476e-08
1.79692e-08
-1.08132e-07
1.87847e-08
-1.2771e-07
1.95779e-08
-1.48062e-07
2.03521e-08
-1.6917e-07
2.11078e-08
-1.91015e-07
2.18444e-08
-2.13575e-07
2.25605e-08
-2.36828e-07
2.32534e-08
-2.60748e-07
2.39194e-08
-2.85302e-07
2.45538e-08
-3.10453e-07
2.51512e-08
-3.3616e-07
2.57074e-08
-3.62382e-07
2.62214e-08
-3.89079e-07
2.66974e-08
-4.16223e-07
2.71435e-08
-4.43789e-07
2.75669e-08
-4.7176e-07
2.79702e-08
-5.00128e-07
2.83682e-08
-5.2904e-07
2.89119e-08
-5.59054e-07
3.00148e-08
-5.9051e-07
3.14559e-08
-6.2238e-07
3.18699e-08
-6.54782e-07
3.24012e-08
-6.87937e-07
3.31556e-08
-7.23415e-07
3.54781e-08
-7.6148e-07
3.80646e-08
-7.99363e-07
3.78835e-08
-8.40752e-07
4.13885e-08
-8.83161e-07
4.24093e-08
-9.26545e-07
4.3384e-08
-9.69382e-07
4.28369e-08
-1.00842e-06
3.90344e-08
-1.0488e-06
4.03821e-08
-1.09124e-06
4.24397e-08
-1.13472e-06
4.34858e-08
-1.17883e-06
4.41041e-08
-1.22327e-06
4.44467e-08
-1.26789e-06
4.46121e-08
-1.31255e-06
4.4658e-08
-1.35716e-06
4.46197e-08
-1.40168e-06
4.45188e-08
-1.44605e-06
4.43686e-08
-1.49023e-06
4.41775e-08
-1.53418e-06
4.39505e-08
-1.57787e-06
4.36904e-08
-1.62127e-06
4.33987e-08
-1.66435e-06
4.30759e-08
-1.70707e-06
4.27217e-08
-1.7494e-06
4.23358e-08
-1.79132e-06
4.19171e-08
-1.83278e-06
4.14647e-08
-1.87376e-06
4.09775e-08
-1.91422e-06
4.04546e-08
-1.95411e-06
3.98948e-08
-1.99341e-06
3.92974e-08
-2.03207e-06
3.86616e-08
-2.07006e-06
3.79867e-08
-2.10733e-06
3.72722e-08
-2.14385e-06
3.65178e-08
-2.17957e-06
3.57233e-08
-2.21446e-06
3.48887e-08
-2.24847e-06
3.40141e-08
-2.28157e-06
3.30998e-08
-2.31372e-06
3.21462e-08
-2.34487e-06
3.11539e-08
-2.375e-06
3.01233e-08
-2.40405e-06
2.90553e-08
-2.432e-06
2.79505e-08
-2.45881e-06
2.68098e-08
-2.48445e-06
2.5634e-08
-2.50887e-06
2.44238e-08
-2.53205e-06
2.31798e-08
-2.55395e-06
2.19026e-08
-2.57454e-06
2.05924e-08
-2.59379e-06
1.92493e-08
-2.61167e-06
1.78729e-08
-2.62813e-06
1.64622e-08
-2.64314e-06
1.50155e-08
-2.65667e-06
1.35303e-08
-2.66868e-06
1.20028e-08
-2.6791e-06
1.04264e-08
-2.6879e-06
8.79255e-09
-2.69499e-06
7.08932e-09
-2.70029e-06
5.29977e-09
-2.7037e-06
3.41286e-09
-2.70513e-06
1.43018e-09
-2.70457e-06
-5.62673e-10
-2.70234e-06
-2.22327e-09
-2.69853e-06
-3.81246e-09
-2.69316e-06
-5.37242e-09
-2.68623e-06
-6.92554e-09
-2.67775e-06
-8.48317e-09
-2.6677e-06
-1.00473e-08
-2.65608e-06
-1.16173e-08
-2.64289e-06
-1.31916e-08
-2.62812e-06
-1.47683e-08
-2.61178e-06
-1.63453e-08
-2.59386e-06
-1.79204e-08
-2.57437e-06
-1.94916e-08
-2.55331e-06
-2.10568e-08
-2.5307e-06
-2.26137e-08
-2.50654e-06
-2.41604e-08
-2.48084e-06
-2.56948e-08
-2.45363e-06
-2.72146e-08
-2.42491e-06
-2.8718e-08
-2.39471e-06
-3.02028e-08
-2.36304e-06
-3.16669e-08
-2.32993e-06
-3.31084e-08
-2.29541e-06
-3.45253e-08
-2.25949e-06
-3.59156e-08
-2.22221e-06
-3.72777e-08
-2.1836e-06
-3.86096e-08
-2.14369e-06
-3.99097e-08
-2.10252e-06
-4.11764e-08
-2.06011e-06
-4.24079e-08
-2.01651e-06
-4.36026e-08
-1.97175e-06
-4.47591e-08
-1.92587e-06
-4.58757e-08
-1.87892e-06
-4.69514e-08
-1.83093e-06
-4.79849e-08
-1.78196e-06
-4.89751e-08
-1.73204e-06
-4.99211e-08
-1.68122e-06
-5.08219e-08
-1.62954e-06
-5.16765e-08
-1.57706e-06
-5.24844e-08
-1.52381e-06
-5.3245e-08
-1.46985e-06
-5.39579e-08
-1.41523e-06
-5.46229e-08
-1.35999e-06
-5.52399e-08
-1.30418e-06
-5.58087e-08
-1.24785e-06
-5.63295e-08
-1.19105e-06
-5.68027e-08
-1.13382e-06
-5.72288e-08
-1.07621e-06
-5.76083e-08
-1.01827e-06
-5.7942e-08
-9.60039e-07
-5.82308e-08
-9.01563e-07
-5.84759e-08
-8.42885e-07
-5.86785e-08
-7.84045e-07
-5.88401e-08
-7.25083e-07
-5.89622e-08
-6.66036e-07
-5.90465e-08
-6.06941e-07
-5.9095e-08
-5.47832e-07
-5.91093e-08
-4.8874e-07
-5.90915e-08
-4.29697e-07
-5.90433e-08
-3.70731e-07
-5.8966e-08
-3.11871e-07
-5.88603e-08
-2.53144e-07
-5.8727e-08
-1.94582e-07
-5.85617e-08
-1.36217e-07
-5.83655e-08
-7.80792e-08
-5.81373e-08
-2.02129e-08
-5.78663e-08
3.73464e-08
-5.75593e-08
9.45602e-08
-5.72138e-08
1.5143e-07
-5.68694e-08
2.07977e-07
-5.65471e-08
2.64217e-07
-5.624e-08
3.20145e-07
-5.59283e-08
3.75731e-07
-5.55861e-08
4.30905e-07
-5.51741e-08
4.85531e-07
-5.46254e-08
5.3934e-07
-5.38095e-08
5.918e-07
-5.24602e-08
6.41697e-07
-4.98968e-08
6.86177e-07
-4.44797e-08
7.17669e-07
-3.14923e-08
8.54543e-09
7.09124e-07
6.69165e-09
-1.65013e-08
8.51027e-09
-1.27044e-08
6.43248e-09
-5.36857e-09
1.64191e-09
1.86254e-09
-5.27221e-09
8.56608e-09
-1.42097e-08
1.45086e-08
-2.51091e-08
1.95825e-08
-3.788e-08
2.3796e-08
-5.23633e-08
2.7259e-08
-6.83622e-08
3.0134e-08
-8.56907e-08
3.25821e-08
-1.04196e-07
3.47349e-08
-1.23763e-07
3.66902e-08
-1.44309e-07
3.85152e-08
-1.65778e-07
4.02535e-08
-1.88133e-07
4.19327e-08
-2.1135e-07
4.35696e-08
-2.35417e-07
4.51745e-08
-2.60326e-07
4.67535e-08
-2.86076e-07
4.83104e-08
-3.1267e-07
4.98475e-08
-3.40117e-07
5.1366e-08
-3.68431e-07
5.28677e-08
-3.97635e-07
5.43555e-08
-4.27764e-07
5.58365e-08
-4.58866e-07
5.73234e-08
-4.91004e-07
5.88358e-08
-5.24259e-07
6.03982e-08
-5.58727e-07
6.20351e-08
-5.94521e-07
6.37635e-08
-6.31753e-07
6.56005e-08
-6.70455e-07
6.76142e-08
-7.10361e-07
6.99202e-08
-7.51278e-07
7.2373e-08
-7.93928e-07
7.45195e-08
-8.37969e-07
7.64425e-08
-8.83158e-07
7.83447e-08
-9.27951e-07
8.02709e-08
-9.72017e-07
8.21304e-08
-1.01767e-06
8.35413e-08
-1.06141e-06
8.5127e-08
-1.10518e-06
8.61738e-08
-1.14842e-06
8.66249e-08
-1.19206e-06
8.64779e-08
-1.23844e-06
8.54182e-08
-1.28328e-06
8.52195e-08
-1.32629e-06
8.54516e-08
-1.36838e-06
8.55774e-08
-1.40984e-06
8.55638e-08
-1.45082e-06
8.54209e-08
-1.49137e-06
8.51677e-08
-1.53154e-06
8.48228e-08
-1.57132e-06
8.4401e-08
-1.61071e-06
8.39134e-08
-1.64971e-06
8.33676e-08
-1.6883e-06
8.27683e-08
-1.72647e-06
8.2118e-08
-1.7642e-06
8.14176e-08
-1.80147e-06
8.06669e-08
-1.83826e-06
7.98648e-08
-1.87454e-06
7.90097e-08
-1.91031e-06
7.80996e-08
-1.94552e-06
7.71324e-08
-1.98016e-06
7.61061e-08
-2.01421e-06
7.50186e-08
-2.04762e-06
7.38679e-08
-2.08038e-06
7.26523e-08
-2.11245e-06
7.13702e-08
-2.14381e-06
7.00202e-08
-2.17442e-06
6.86015e-08
-2.20426e-06
6.71132e-08
-2.2333e-06
6.55549e-08
-2.2615e-06
6.39262e-08
-2.28884e-06
6.22273e-08
-2.31529e-06
6.04584e-08
-2.34081e-06
5.862e-08
-2.36537e-06
5.67128e-08
-2.38896e-06
5.47378e-08
-2.41153e-06
5.2696e-08
-2.43306e-06
5.05885e-08
-2.45353e-06
4.84167e-08
-2.4729e-06
4.61818e-08
-2.49115e-06
4.38853e-08
-2.50826e-06
4.15283e-08
-2.52419e-06
3.91121e-08
-2.53892e-06
3.66377e-08
-2.55244e-06
3.41061e-08
-2.56471e-06
3.15176e-08
-2.57571e-06
2.88726e-08
-2.58541e-06
2.61711e-08
-2.59381e-06
2.34126e-08
-2.60088e-06
2.05965e-08
-2.6066e-06
1.7722e-08
-2.61096e-06
1.47886e-08
-2.61396e-06
1.17968e-08
-2.61562e-06
8.74969e-09
-2.61598e-06
5.65605e-09
-2.61511e-06
2.5384e-09
-2.61313e-06
-5.46077e-10
-2.61005e-06
-3.63965e-09
-2.60563e-06
-6.64594e-09
-2.59977e-06
-9.67444e-09
-2.59242e-06
-1.27247e-08
-2.58355e-06
-1.57939e-08
-2.57315e-06
-1.88815e-08
-2.56121e-06
-2.19851e-08
-2.54773e-06
-2.51014e-08
-2.53269e-06
-2.82264e-08
-2.5161e-06
-3.13561e-08
-2.49796e-06
-3.44863e-08
-2.47827e-06
-3.76127e-08
-2.45703e-06
-4.07311e-08
-2.43425e-06
-4.38372e-08
-2.40994e-06
-4.6927e-08
-2.3841e-06
-4.99961e-08
-2.35676e-06
-5.30406e-08
-2.32791e-06
-5.60562e-08
-2.29759e-06
-5.90389e-08
-2.26581e-06
-6.19844e-08
-2.23259e-06
-6.48889e-08
-2.19795e-06
-6.77481e-08
-2.16192e-06
-7.05583e-08
-2.12452e-06
-7.33157e-08
-2.08578e-06
-7.60166e-08
-2.04573e-06
-7.86575e-08
-2.00441e-06
-8.1235e-08
-1.96184e-06
-8.37457e-08
-1.91806e-06
-8.61865e-08
-1.87311e-06
-8.85541e-08
-1.82702e-06
-9.08453e-08
-1.77984e-06
-9.30574e-08
-1.7316e-06
-9.51877e-08
-1.68235e-06
-9.72339e-08
-1.63213e-06
-9.91939e-08
-1.58099e-06
-1.01066e-07
-1.52896e-06
-1.02848e-07
-1.4761e-06
-1.04538e-07
-1.42245e-06
-1.06134e-07
-1.36806e-06
-1.07637e-07
-1.31297e-06
-1.09044e-07
-1.25724e-06
-1.10356e-07
-1.20091e-06
-1.11573e-07
-1.14402e-06
-1.12693e-07
-1.08664e-06
-1.13718e-07
-1.02879e-06
-1.14647e-07
-9.70537e-07
-1.15483e-07
-9.11918e-07
-1.16227e-07
-8.52982e-07
-1.16879e-07
-7.93771e-07
-1.17441e-07
-7.3433e-07
-1.17917e-07
-6.74701e-07
-1.18308e-07
-6.14924e-07
-1.18617e-07
-5.55038e-07
-1.18848e-07
-4.9508e-07
-1.19004e-07
-4.35087e-07
-1.19088e-07
-3.75091e-07
-1.19105e-07
-3.15125e-07
-1.19058e-07
-2.55218e-07
-1.18951e-07
-1.95397e-07
-1.18786e-07
-1.35691e-07
-1.18567e-07
-7.6124e-08
-1.18294e-07
-1.67209e-08
-1.17965e-07
4.24912e-08
-1.17578e-07
1.01485e-07
-1.17132e-07
1.60245e-07
-1.16626e-07
2.18757e-07
-1.16072e-07
2.77026e-07
-1.15482e-07
3.35047e-07
-1.1489e-07
3.92812e-07
-1.14313e-07
4.50313e-07
-1.1374e-07
5.07528e-07
-1.13144e-07
5.64418e-07
-1.12476e-07
6.20903e-07
-1.11659e-07
6.76838e-07
-1.10561e-07
7.31955e-07
-1.08927e-07
7.8576e-07
-1.06265e-07
8.37283e-07
-1.0142e-07
8.84915e-07
-9.21117e-08
9.25359e-07
-7.19359e-08
-2.48302e-08
9.58735e-07
-6.50247e-10
-1.58511e-08
-6.2068e-09
-7.1478e-09
-1.40575e-08
2.48217e-09
-2.33541e-08
1.11591e-08
-3.38387e-08
1.90507e-08
-4.54837e-08
2.61536e-08
-5.83492e-08
3.2448e-08
-7.25009e-08
3.79477e-08
-8.79622e-08
4.27202e-08
-1.04703e-07
4.68749e-08
-1.22659e-07
5.05375e-08
-1.41752e-07
5.38281e-08
-1.6191e-07
5.68483e-08
-1.83072e-07
5.96776e-08
-2.05194e-07
6.23748e-08
-2.28243e-07
6.49819e-08
-2.52201e-07
6.75282e-08
-2.77061e-07
7.00341e-08
-3.02822e-07
7.25144e-08
-3.29491e-07
7.49799e-08
-3.57083e-07
7.74389e-08
-3.85615e-07
7.98987e-08
-4.15114e-07
8.23664e-08
-4.45609e-07
8.48503e-08
-4.77133e-07
8.73609e-08
-5.09722e-07
8.99119e-08
-5.43405e-07
9.25192e-08
-5.78205e-07
9.51978e-08
-6.14127e-07
9.79576e-08
-6.5116e-07
1.00797e-07
-6.89261e-07
1.03701e-07
-7.28301e-07
1.06655e-07
-7.67996e-07
1.09615e-07
-8.08081e-07
1.12458e-07
-8.48567e-07
1.15005e-07
-8.89316e-07
1.17191e-07
-9.3006e-07
1.19089e-07
-9.70493e-07
1.20704e-07
-1.01041e-06
1.22043e-07
-1.05001e-06
1.23144e-07
-1.08885e-06
1.23967e-07
-1.12709e-06
1.24411e-07
-1.16492e-06
1.24459e-07
-1.20259e-06
1.24148e-07
-1.24076e-06
1.23593e-07
-1.27864e-06
1.23095e-07
-1.31588e-06
1.22686e-07
-1.35257e-06
1.22273e-07
-1.38883e-06
1.21819e-07
-1.42471e-06
1.21306e-07
-1.46027e-06
1.20727e-07
-1.49553e-06
1.20081e-07
-1.5305e-06
1.19369e-07
-1.56518e-06
1.18594e-07
-1.59957e-06
1.17756e-07
-1.63365e-06
1.16855e-07
-1.66743e-06
1.1589e-07
-1.70087e-06
1.1486e-07
-1.73396e-06
1.1376e-07
-1.76669e-06
1.12589e-07
-1.79902e-06
1.11344e-07
-1.83094e-06
1.1002e-07
-1.86242e-06
1.08614e-07
-1.89344e-06
1.07124e-07
-1.92397e-06
1.05545e-07
-1.95397e-06
1.03876e-07
-1.98343e-06
1.02113e-07
-2.01232e-06
1.00254e-07
-2.0406e-06
9.82973e-08
-2.06824e-06
9.62414e-08
-2.09521e-06
9.40851e-08
-2.12148e-06
9.18277e-08
-2.14702e-06
8.94687e-08
-2.1718e-06
8.70083e-08
-2.19579e-06
8.44466e-08
-2.21896e-06
8.17843e-08
-2.24127e-06
7.90225e-08
-2.26269e-06
7.61623e-08
-2.2832e-06
7.32051e-08
-2.30276e-06
7.01527e-08
-2.32135e-06
6.70069e-08
-2.33894e-06
6.37695e-08
-2.3555e-06
6.04426e-08
-2.371e-06
5.70282e-08
-2.38541e-06
5.35283e-08
-2.39872e-06
4.99448e-08
-2.4109e-06
4.62796e-08
-2.42191e-06
4.25344e-08
-2.43175e-06
3.87106e-08
-2.44039e-06
3.481e-08
-2.44781e-06
3.08338e-08
-2.454e-06
2.67839e-08
-2.45894e-06
2.26629e-08
-2.46262e-06
1.84742e-08
-2.46505e-06
1.42234e-08
-2.46622e-06
9.91859e-09
-2.46614e-06
5.5722e-09
-2.4648e-06
1.20107e-09
-2.46217e-06
-3.17414e-09
-2.45824e-06
-7.56869e-09
-2.4529e-06
-1.19833e-08
-2.44614e-06
-1.64411e-08
-2.43792e-06
-2.09408e-08
-2.42824e-06
-2.54777e-08
-2.41707e-06
-3.00464e-08
-2.40442e-06
-3.46408e-08
-2.39026e-06
-3.9255e-08
-2.37461e-06
-4.38826e-08
-2.35745e-06
-4.85174e-08
-2.33878e-06
-5.31531e-08
-2.31861e-06
-5.77832e-08
-2.29694e-06
-6.24016e-08
-2.27377e-06
-6.70019e-08
-2.24912e-06
-7.1578e-08
-2.223e-06
-7.61236e-08
-2.1954e-06
-8.06327e-08
-2.16636e-06
-8.50991e-08
-2.13588e-06
-8.95167e-08
-2.10399e-06
-9.38795e-08
-2.0707e-06
-9.81813e-08
-2.03603e-06
-1.02416e-07
-2.00001e-06
-1.06578e-07
-1.96266e-06
-1.10662e-07
-1.92401e-06
-1.14662e-07
-1.8841e-06
-1.18573e-07
-1.84294e-06
-1.2239e-07
-1.80058e-06
-1.26108e-07
-1.75704e-06
-1.29722e-07
-1.71237e-06
-1.33228e-07
-1.6666e-06
-1.3662e-07
-1.61976e-06
-1.39895e-07
-1.5719e-06
-1.43048e-07
-1.52306e-06
-1.46077e-07
-1.47327e-06
-1.48977e-07
-1.42259e-06
-1.51747e-07
-1.37106e-06
-1.54382e-07
-1.31871e-06
-1.56882e-07
-1.2656e-06
-1.59243e-07
-1.21178e-06
-1.61464e-07
-1.15728e-06
-1.63544e-07
-1.10215e-06
-1.65482e-07
-1.04645e-06
-1.67278e-07
-9.90207e-07
-1.68931e-07
-9.33483e-07
-1.70442e-07
-8.76318e-07
-1.71812e-07
-8.18758e-07
-1.73043e-07
-7.60848e-07
-1.74137e-07
-7.02632e-07
-1.75094e-07
-6.44154e-07
-1.75919e-07
-5.85456e-07
-1.76615e-07
-5.26579e-07
-1.77185e-07
-4.67562e-07
-1.77634e-07
-4.08443e-07
-1.77967e-07
-3.49259e-07
-1.78188e-07
-2.90044e-07
-1.78303e-07
-2.3083e-07
-1.78319e-07
-1.71648e-07
-1.7824e-07
-1.12527e-07
-1.78072e-07
-5.34936e-08
-1.7782e-07
5.42902e-09
-1.77489e-07
6.42155e-08
-1.7708e-07
1.22844e-07
-1.76593e-07
1.81296e-07
-1.76029e-07
2.39555e-07
-1.7539e-07
2.97616e-07
-1.74687e-07
3.55487e-07
-1.73942e-07
4.13175e-07
-1.7317e-07
4.70666e-07
-1.72382e-07
5.27941e-07
-1.71588e-07
5.84979e-07
-1.70778e-07
6.41753e-07
-1.69917e-07
6.98216e-07
-1.68939e-07
7.54291e-07
-1.67733e-07
8.09838e-07
-1.66108e-07
8.64623e-07
-1.63712e-07
9.18242e-07
-1.59883e-07
9.70064e-07
-1.53243e-07
1.01919e-06
-1.41237e-07
1.06511e-06
-1.17857e-07
-7.1709e-08
1.11199e-06
-7.01309e-09
-8.838e-09
-1.76954e-08
3.53449e-09
-2.95126e-08
1.42994e-08
-4.205e-08
2.36964e-08
-5.52186e-08
3.22193e-08
-6.90636e-08
3.99986e-08
-8.36823e-08
4.70667e-08
-9.91796e-08
5.3445e-08
-1.15637e-07
5.9178e-08
-1.331e-07
6.43379e-08
-1.51579e-07
6.90158e-08
-1.71058e-07
7.33074e-08
-1.91512e-07
7.73022e-08
-2.12911e-07
8.10769e-08
-2.3523e-07
8.46937e-08
-2.58448e-07
8.82004e-08
-2.82553e-07
9.16331e-08
-3.07538e-07
9.50188e-08
-3.33401e-07
9.83772e-08
-3.60144e-07
1.01723e-07
-3.87772e-07
1.05068e-07
-4.16293e-07
1.08419e-07
-4.45709e-07
1.11783e-07
-4.76024e-07
1.15165e-07
-5.07231e-07
1.18568e-07
-5.39313e-07
1.21994e-07
-5.72236e-07
1.25442e-07
-6.05943e-07
1.28905e-07
-6.40351e-07
1.32366e-07
-6.75353e-07
1.35799e-07
-7.10815e-07
1.39163e-07
-7.46566e-07
1.42406e-07
-7.8241e-07
1.4546e-07
-8.18185e-07
1.48233e-07
-8.53819e-07
1.5064e-07
-8.89276e-07
1.52647e-07
-9.24463e-07
1.54277e-07
-9.59325e-07
1.55566e-07
-9.93835e-07
1.56553e-07
-1.02795e-06
1.57261e-07
-1.06167e-06
1.57681e-07
-1.09505e-06
1.57794e-07
-1.12822e-06
1.57625e-07
-1.16128e-06
1.57213e-07
-1.19433e-06
1.56645e-07
-1.22727e-06
1.56034e-07
-1.26e-06
1.55414e-07
-1.2925e-06
1.54773e-07
-1.32478e-06
1.54098e-07
-1.35685e-06
1.53376e-07
-1.38872e-06
1.52599e-07
-1.4204e-06
1.51762e-07
-1.45189e-06
1.5086e-07
-1.48319e-06
1.4989e-07
-1.51428e-06
1.48849e-07
-1.54516e-06
1.47732e-07
-1.5758e-06
1.46535e-07
-1.6062e-06
1.45255e-07
-1.63632e-06
1.43887e-07
-1.66616e-06
1.42425e-07
-1.69568e-06
1.40865e-07
-1.72486e-06
1.39202e-07
-1.75368e-06
1.37431e-07
-1.78211e-06
1.35548e-07
-1.81011e-06
1.33549e-07
-1.83766e-06
1.3143e-07
-1.86474e-06
1.29187e-07
-1.8913e-06
1.26818e-07
-1.91733e-06
1.2432e-07
-1.94278e-06
1.21692e-07
-1.96762e-06
1.18931e-07
-1.99183e-06
1.16038e-07
-2.01537e-06
1.1301e-07
-2.03821e-06
1.09849e-07
-2.06032e-06
1.06555e-07
-2.08167e-06
1.03129e-07
-2.10222e-06
9.95715e-08
-2.12194e-06
9.58847e-08
-2.1408e-06
9.20703e-08
-2.15878e-06
8.81306e-08
-2.17584e-06
8.4068e-08
-2.19196e-06
7.98851e-08
-2.2071e-06
7.55847e-08
-2.22124e-06
7.11698e-08
-2.23436e-06
6.6643e-08
-2.24642e-06
6.20076e-08
-2.25741e-06
5.72661e-08
-2.26729e-06
5.24217e-08
-2.27606e-06
4.7477e-08
-2.28369e-06
4.24351e-08
-2.29015e-06
3.7299e-08
-2.29544e-06
3.20721e-08
-2.29953e-06
2.67586e-08
-2.30242e-06
2.13637e-08
-2.30409e-06
1.58939e-08
-2.30453e-06
1.03571e-08
-2.30372e-06
4.76269e-09
-2.30164e-06
-8.79667e-10
-2.29825e-06
-6.56351e-09
-2.29353e-06
-1.22942e-08
-2.28743e-06
-1.80798e-08
-2.27995e-06
-2.39269e-08
-2.27106e-06
-2.98316e-08
-2.26075e-06
-3.57871e-08
-2.24901e-06
-4.17857e-08
-2.23583e-06
-4.78191e-08
-2.2212e-06
-5.3879e-08
-2.20513e-06
-5.9957e-08
-2.1876e-06
-6.60446e-08
-2.16862e-06
-7.21335e-08
-2.14819e-06
-7.82153e-08
-2.12631e-06
-8.42818e-08
-2.10299e-06
-9.03247e-08
-2.07823e-06
-9.63358e-08
-2.05205e-06
-1.02307e-07
-2.02445e-06
-1.0823e-07
-1.99545e-06
-1.14098e-07
-1.96507e-06
-1.19901e-07
-1.93331e-06