/*--------------------------------*- C++ -*----------------------------------*\
  =========                 |
  \\      /  F ield         | OpenFOAM: The Open Source CFD Toolbox
   \\    /   O peration     | Website:  https://openfoam.org
    \\  /    A nd           | Version:  9
     \\/     M anipulation  |
\*---------------------------------------------------------------------------*/
FoamFile
{
    format      ascii;
    class       volScalarField;
    location    "1000";
    object      alphat;
}
// * * * * * * * * * * * * * * * * * * * * * * * * * * * * * * * * * * * * * //

dimensions      [1 -1 -1 0 0 0 0];

internalField   nonuniform List<scalar> 
4000
(
0.000307466
0.000259414
0.000223358
0.000203335
0.000191888
0.000182736
0.000174809
0.000169634
0.000167577
0.000165516
0.000162264
0.000159609
0.000160266
0.00016495
0.000175275
0.000182455
0.000190264
0.000201677
0.000233428
0.000277571
0.000357877
0.000324113
0.000299061
0.000281058
0.000245084
0.0002111
0.000204667
0.000199103
0.000201413
0.000204098
0.000201756
0.000197079
0.000196359
0.000198179
0.000203907
0.000267618
0.000300788
0.000325946
0.000354575
0.000368014
0.000431521
0.000404746
0.000378503
0.000351671
0.000322331
0.00029164
0.000251166
0.00021141
0.00021543
0.000220898
0.000219076
0.000215094
0.00022124
0.00026651
0.000300747
0.000332667
0.000371481
0.000411195
0.000434505
0.00044678
0.000454694
0.000442591
0.000420821
0.000391027
0.000356511
0.000323651
0.000291421
0.000258599
0.000228993
0.000234033
0.000240917
0.000249471
0.000267505
0.000295498
0.000327742
0.000363908
0.000402496
0.000434678
0.000457313
0.000465838
0.00046679
0.000461588
0.000444646
0.000420274
0.000393016
0.000368858
0.00035235
0.000337877
0.000326555
0.000323846
0.000327669
0.000333854
0.000345025
0.000363923
0.000389305
0.000412934
0.000438122
0.000460969
0.000474993
0.00047636
0.000474743
0.000478105
0.000473198
0.000465173
0.000457501
0.000451295
0.000445752
0.000439078
0.000431782
0.000426363
0.000428519
0.000437867
0.000447591
0.000457438
0.000466748
0.000474999
0.000482363
0.000488615
0.000490564
0.000483659
0.000481642
0.000494215
0.000502466
0.000508468
0.000513417
0.000516532
0.000516992
0.000514189
0.000507967
0.0005001
0.000500244
0.000510958
0.000519091
0.000524366
0.000526687
0.000525674
0.000521848
0.000515812
0.000505997
0.000490394
0.00048929
0.000511073
0.000530157
0.000545777
0.000558567
0.000567799
0.00057294
0.000573171
0.000567699
0.000558043
0.000557414
0.000569997
0.000576862
0.000578364
0.000575228
0.000567834
0.000556514
0.000541627
0.000522009
0.000497902
0.000499219
0.000531253
0.000559521
0.000582783
0.000602027
0.000616768
0.000626601
0.000630144
0.000625731
0.000614396
0.000613325
0.000627557
0.000632745
0.000630613
0.000622835
0.000609916
0.000592121
0.000569806
0.00054153
0.000507672
0.000513487
0.000555724
0.000592372
0.000621466
0.000645474
0.000664896
0.00067939
0.000687904
0.000688856
0.00068121
0.000679839
0.000689117
0.000688217
0.000680266
0.000667054
0.000649346
0.000627179
0.000599795
0.000564301
0.000521607
0.000259414
0.000245461
0.000232487
0.000227032
0.000228383
0.000222108
0.0002103
0.000201845
0.000197066
0.000193539
0.000187837
0.000183711
0.000185418
0.000193755
0.000215422
0.000216535
0.000217741
0.000218379
0.000226432
0.000236467
0.000324113
0.000357331
0.000386304
0.000445234
0.000493084
0.000489738
0.00047751
0.000488899
0.000528991
0.000549455
0.000512968
0.00045273
0.000416559
0.000424547
0.000476055
0.00047883
0.000451769
0.000428197
0.000418601
0.000348486
0.000404746
0.000524441
0.000513611
0.000497679
0.000495184
0.000489468
0.000473842
0.000486895
0.000513481
0.000540397
0.000497432
0.000440914
0.00043963
0.000470535
0.0004849
0.00049778
0.000530341
0.00057769
0.000579252
0.000432366
0.000442591
0.000612959
0.000624704
0.000572594
0.0005207
0.000481097
0.000447867
0.000434942
0.000458853
0.000484653
0.000449512
0.000409331
0.000412956
0.000440604
0.000479639
0.000528969
0.000594299
0.000638551
0.000611556
0.000454497
0.000461588
0.000627754
0.000653267
0.00061609
0.000548604
0.000494163
0.000450815
0.000415275
0.000392754
0.000385432
0.000379922
0.000388436
0.000414686
0.000452049
0.000503693
0.000572047
0.000648624
0.000684474
0.000646404
0.000471657
0.000478105
0.000657055
0.00069984
0.000683758
0.000632436
0.000563442
0.000512416
0.000470503
0.000441958
0.000432249
0.000434894
0.000450087
0.000480968
0.000525321
0.000588435
0.00067021
0.000722581
0.000734193
0.00067981
0.000486965
0.000494215
0.0006819
0.000740284
0.000762176
0.000764775
0.00073612
0.000680227
0.000626096
0.000582036
0.000560042
0.000564485
0.00059962
0.000651491
0.000714668
0.000777006
0.000805547
0.00080332
0.000776482
0.000706846
0.000502573
0.000511073
0.000698823
0.000766966
0.000823375
0.000883124
0.000922034
0.000937004
0.000927609
0.000894752
0.000850346
0.000860847
0.000909533
0.000948565
0.000968161
0.000968501
0.000931647
0.000868454
0.000805039
0.000724539
0.000518993
0.000531253
0.00069261
0.000770928
0.000836832
0.000895602
0.000935297
0.000960526
0.000964868
0.000936095
0.000881681
0.000888595
0.000954704
0.000992002
0.000996762
0.000980619
0.000942249
0.000879771
0.000803944
0.000711815
0.000538865
0.000555724
0.000602077
0.000643513
0.000678151
0.000708384
0.000734349
0.000755072
0.000768593
0.000772398
0.000765129
0.000762651
0.000770415
0.000766502
0.000753649
0.000734511
0.000710552
0.000682321
0.000649484
0.000609256
0.000562639
0.000223358
0.000232487
0.000233348
0.000237297
0.000240738
0.000234385
0.000224519
0.000217648
0.000213751
0.000210679
0.000204612
0.000199501
0.000201166
0.000209424
0.000228929
0.000232954
0.000228421
0.000222797
0.000215864
0.000202931
0.000299061
0.000386304
0.0004611
0.000545438
0.000589975
0.000582191
0.000575858
0.000597475
0.000651761
0.00068901
0.000651528
0.000574827
0.000527564
0.000524999
0.000581359
0.000576972
0.00053523
0.000480617
0.000423888
0.00031838
0.000378503
0.000513611
0.000546487
0.000568185
0.000587205
0.00059304
0.000591282
0.000605052
0.000642147
0.000686197
0.000644078
0.000566182
0.00055664
0.000585972
0.000591399
0.00058174
0.000586985
0.000596544
0.000574233
0.00040838
0.000420821
0.000624704
0.000662515
0.000636214
0.000605496
0.000578669
0.000557336
0.000560368
0.000588606
0.000610279
0.000578324
0.000539074
0.000528481
0.000543824
0.000572313
0.000608615
0.000655946
0.000689045
0.000630461
0.000429827
0.000444646
0.000653267
0.000714933
0.000691944
0.000635867
0.000585183
0.000543516
0.000512674
0.000507273
0.000525609
0.000507933
0.000482699
0.000497153
0.000531399
0.000582729
0.000649492
0.000722846
0.000744293
0.000672828
0.000454044
0.000473198
0.00069984
0.000775993
0.000764988
0.000698276
0.000624406
0.000563583
0.000513607
0.000478439
0.000466201
0.000465641
0.000477866
0.000513395
0.000565281
0.000637927
0.000726653
0.000799403
0.000807052
0.000720781
0.000481435
0.000502466
0.000740284
0.000834193
0.0008495
0.000804827
0.000740143
0.000677467
0.000625982
0.000588375
0.000574726
0.000581306
0.000601326
0.000641
0.000698948
0.000772483
0.000845859
0.000890384
0.000868378
0.00076226
0.000509587
0.000530157
0.000766966
0.000886892
0.000960601
0.000988647
0.00097381
0.00095252
0.000929373
0.000893626
0.000847588
0.000852208
0.000898505
0.000942876
0.000980668
0.00101985
0.00104454
0.00100974
0.00092638
0.00078897
0.000536314
0.000559521
0.000770928
0.000953119
0.00112866
0.00126968
0.00135026
0.00140035
0.00142403
0.00138429
0.00126976
0.00126127
0.00136263
0.0014311
0.00143167
0.00139538
0.0013228
0.0011849
0.000993503
0.000789617
0.000565133
0.000592372
0.000643513
0.000688646
0.000727339
0.000762308
0.000793562
0.00081968
0.000837827
0.000844507
0.000837485
0.000834186
0.000840493
0.000833286
0.000815715
0.000791341
0.000762147
0.000728978
0.000691931
0.000648087
0.000597201
0.000203335
0.000227032
0.000237297
0.000242975
0.000242207
0.000235963
0.000229483
0.000226753
0.000227044
0.00022564
0.00021858
0.000211505
0.000212078
0.000217968
0.000230238
0.000240695
0.000233362
0.000222768
0.000209355
0.000184473
0.000281058
0.000445234
0.000545438
0.00061274
0.000627536
0.000621561
0.000629323
0.000669562
0.000741407
0.000797133
0.000763288
0.000672894
0.000612275
0.00059166
0.000619886
0.000621717
0.000589468
0.00053073
0.000446545
0.000294354
0.000351671
0.000497679
0.000568185
0.000615963
0.00064313
0.000653504
0.000658655
0.00067924
0.000741955
0.000815918
0.000781747
0.000676522
0.000633946
0.000656262
0.000661196
0.000634101
0.000612176
0.000586178
0.000528412
0.000372169
0.000391027
0.000572594
0.000636214
0.000649768
0.000646468
0.000636601
0.000629566
0.000642231
0.000683073
0.00074451
0.000720797
0.000636655
0.000615322
0.000616838
0.000628547
0.000641806
0.000656834
0.000652633
0.000583171
0.000396863
0.000420274
0.00061609
0.000691944
0.000698804
0.000674315
0.000643377
0.000615503
0.000601195
0.000622255
0.000674484
0.000660085
0.000588692
0.000574406
0.000595658
0.000633018
0.000676909
0.000714624
0.000710802
0.000627367
0.000427278
0.000465173
0.000683758
0.000764988
0.000773002
0.000734082
0.000680895
0.000630854
0.000589723
0.00056802
0.000589166
0.000585675
0.000555726
0.000576566
0.000620901
0.000681896
0.00074772
0.000791739
0.000780627
0.000695952
0.000472141
0.000508468
0.000762176
0.0008495
0.0008692
0.000839284
0.000785967
0.000733272
0.000692317
0.000671191
0.000683938
0.000692516
0.000675673
0.000694921
0.000741854
0.000805722
0.000867463
0.000895838
0.000869564
0.000778457
0.000513561
0.000545777
0.000823375
0.000960601
0.00104161
0.00106345
0.0010461
0.00102312
0.00100233
0.00097391
0.000944292
0.000948561
0.000975215
0.00100774
0.00104195
0.00108037
0.00110745
0.00108478
0.000994241
0.000845533
0.000549394
0.000582783
0.000836832
0.00112866
0.00142818
0.00156606
0.00163043
0.00167929
0.00168674
0.00161078
0.00147112
0.00146165
0.00157332
0.00164557
0.00165783
0.00163416
0.00158653
0.00147122
0.00116796
0.000851772
0.000585579
0.000621466
0.000678151
0.000727339
0.000770256
0.000810575
0.000848134
0.000880501
0.000904153
0.00091502
0.000911234
0.000908038
0.000909987
0.000897615
0.000874199
0.000843407
0.000807725
0.00076865
0.000727168
0.000679434
0.0006236
0.000191888
0.000228383
0.000240738
0.000242207
0.000237697
0.000233151
0.000231014
0.000234198
0.000239138
0.000240203
0.00023171
0.000222231
0.000220965
0.00022345
0.000227123
0.000234425
0.00023407
0.000224734
0.000207907
0.000174536
0.000245084
0.000493084
0.000589975
0.000627536
0.000634177
0.000640992
0.000666545
0.000729321
0.000821296
0.000892083
0.000861802
0.000755404
0.000680719
0.000648467
0.000637407
0.000641824
0.000607858
0.000555664
0.000466446
0.000264195
0.000322331
0.000495184
0.000587205
0.00064313
0.00067238
0.000685495
0.000696017
0.00073237
0.000824112
0.000930315
0.00090495
0.000766784
0.000693782
0.00069418
0.000699447
0.000673613
0.000628871
0.000577327
0.000495881
0.000334383
0.000356511
0.0005207
0.000605496
0.000646468
0.000663822
0.00066931
0.000675111
0.000696176
0.000758765
0.000862657
0.000846105
0.000717037
0.000675631
0.000668741
0.000664354
0.000656842
0.000642097
0.000607224
0.000523137
0.000359133
0.000393016
0.000548604
0.000635867
0.000674315
0.000680779
0.00067226
0.000661322
0.000666194
0.000713447
0.00081041
0.000801444
0.000682004
0.000636109
0.000639792
0.000658472
0.00067532
0.000676416
0.000640509
0.000553048
0.000398414
0.000457501
0.000632436
0.000698276
0.000734082
0.000733104
0.000710115
0.000680781
0.000659512
0.000674336
0.000760977
0.000757201
0.000651183
0.000636982
0.000663629
0.00070244
0.000734242
0.000737663
0.00069919
0.000634992
0.000462992
0.000513417
0.000764776
0.000804827
0.000839284
0.000844201
0.000821135
0.000788368
0.00076456
0.000773168
0.000840808
0.00084793
0.000769757
0.000757265
0.000786867
0.00082817
0.000855924
0.000847459
0.000807092
0.000770231
0.000515949
0.000558567
0.000883124
0.000988647
0.00106345
0.00109507
0.00108751
0.00107111
0.00105386
0.0010315
0.00102312
0.00102621
0.00102796
0.00105134
0.00107928
0.00110602
0.00111713
0.00108521
0.00100682
0.000903085
0.000559113
0.000602027
0.000895602
0.00126968
0.00156606
0.00171246
0.00182106
0.00189873
0.00190638
0.00178967
0.00159239
0.0015828
0.00173676
0.00183715
0.0018465
0.00179403
0.00170025
0.00155746
0.00129633
0.000901813
0.000601423
0.000645474
0.000708384
0.000762308
0.000810575
0.000858329
0.000903018
0.000942029
0.000972001
0.000988794
0.000990797
0.000987574
0.000983144
0.000964142
0.000933652
0.000895488
0.000852172
0.000805336
0.000758305
0.000706112
0.000644649
0.000182736
0.000222108
0.000234385
0.000235963
0.000233151
0.000230606
0.000233771
0.000242114
0.000251341
0.000255108
0.000244956
0.000233132
0.000229439
0.00022821
0.000225836
0.000224325
0.000223126
0.000218244
0.000204239
0.000165961
0.0002111
0.000489738
0.000582191
0.000621561
0.000640992
0.000661883
0.000705454
0.000782451
0.000878439
0.000940958
0.00091507
0.000820956
0.000742347
0.000701407
0.000667456
0.000639865
0.000608568
0.000547073
0.000449575
0.000202285
0.00029164
0.000489468
0.00059304
0.000653504
0.000685495
0.000701782
0.00072238
0.000777874
0.00088257
0.000974889
0.000954432
0.000836885
0.000747603
0.000722649
0.00071397
0.000692127
0.000643442
0.000573457
0.000473588
0.000297984
0.000323651
0.000481097
0.000578669
0.000636601
0.00066931
0.000687725
0.000702534
0.000734062
0.000815941
0.000919125
0.000906665
0.000782
0.000716439
0.000704113
0.000689804
0.000665536
0.000629398
0.000572533
0.000477879
0.000325177
0.000368858
0.000494163
0.000585183
0.000643377
0.00067226
0.000682594
0.00068795
0.000710752
0.000782267
0.00089432
0.000887653
0.000756539
0.000686427
0.000670136
0.000670467
0.000665045
0.000640195
0.000584384
0.000496677
0.000374963
0.000451295
0.000563442
0.000624406
0.000680895
0.000710115
0.000714374
0.000707294
0.000709856
0.000764184
0.000887693
0.000881697
0.000739064
0.000686253
0.000690297
0.000705208
0.000706555
0.000677976
0.000619196
0.000560778
0.000454982
0.000516532
0.00073612
0.000740143
0.000785967
0.000821135
0.000827531
0.000816611
0.000813348
0.000856214
0.000981473
0.000980277
0.000848584
0.000803277
0.000812841
0.000829406
0.000824257
0.000784062
0.000731496
0.000729144
0.000516202
0.000567799
0.000922034
0.00097381
0.0010461
0.00108751
0.00109654
0.00109284
0.00107933
0.00105797
0.00107081
0.0010688
0.00104963
0.0010709
0.00109326
0.00110426
0.00109522
0.00105214
0.000978313
0.000936508
0.000564998
0.000616768
0.000935297
0.00135026
0.00163043
0.00182106
0.00197314
0.00206559
0.00203717
0.0018355
0.00157419
0.00156669
0.00178987
0.00195153
0.00198318
0.00191566
0.00178242
0.00159628
0.00135515
0.000926899
0.000612398
0.000664896
0.000734349
0.000793562
0.000848134
0.000903018
0.000954798
0.00100101
0.00103839
0.00106379
0.00107651
0.00107307
0.00105847
0.00103028
0.000991293
0.000944996
0.000893862
0.000839429
0.000785884
0.000728646
0.000661133
0.000174809
0.0002103
0.000224519
0.000229483
0.000231014
0.000233771
0.000241392
0.000253018
0.000265962
0.000273624
0.00026112
0.000246163
0.000239024
0.000233595
0.000227167
0.00021979
0.000212681
0.000204099
0.00018888
0.000156686
0.000204667
0.00047751
0.000575858
0.000629323
0.000666545
0.000705454
0.000761163
0.000838796
0.000912941
0.000921594
0.000896822
0.000862723
0.000802768
0.000754211
0.000709113
0.000659984
0.00060746
0.000542916
0.0004449
0.000193878
0.000251166
0.000473842
0.000591282
0.000658655
0.000696017
0.00072238
0.000759684
0.000826268
0.000900195
0.000879854
0.000855504
0.000859589
0.00080057
0.000757683
0.000728522
0.000695743
0.000647402
0.000570132
0.000454174
0.000257493
0.000291421
0.000447867
0.000557336
0.000629566
0.000675111
0.000702534
0.000725331
0.000767927
0.000833383
0.000815439
0.00079696
0.000804033
0.00075128
0.000726748
0.000708793
0.000675629
0.000623915
0.000549646
0.000443292
0.000295927
0.00035235
0.000450815
0.000543516
0.000615503
0.000661322
0.00068795
0.000708681
0.000745626
0.000809319
0.000806582
0.000794054
0.000788747
0.000728787
0.000698067
0.000680508
0.000656639
0.000613468
0.000544141
0.000455392
0.000357826
0.000445752
0.000512416
0.000563583
0.000630854
0.000680781
0.000707294
0.000721485
0.00074716
0.000809724
0.000840661
0.000826744
0.00078829
0.000729465
0.000711169
0.000703179
0.000680268
0.000630165
0.000560706
0.000510576
0.000447379
0.000516992
0.000680227
0.000677467
0.000733272
0.000788368
0.000816611
0.000825333
0.000844514
0.000909723
0.00099477
0.000983553
0.000898336
0.000838134
0.000827231
0.000821931
0.00079218
0.000729695
0.000662777
0.000660508
0.000513769
0.00057294
0.000937004
0.00095252
0.00102312
0.00107111
0.00109284
0.00109489
0.00107754
0.00105657
0.00108763
0.00107162
0.00104221
0.00106573
0.0010896
0.00109165
0.0010683
0.00101646
0.000942569
0.000938663
0.000566895
0.000626601
0.000960526
0.00140035
0.00167929
0.00189873
0.00206559
0.00213199
0.00202068
0.00174038
0.00149802
0.00147546
0.00170877
0.00194365
0.00203173
0.00198093
0.00183041
0.00161413
0.00137381
0.000932409
0.000618391
0.00067939
0.000755072
0.00081968
0.000880501
0.000942029
0.00100101
0.00105544
0.0011031
0.0011437
0.00117738
0.00117332
0.0011391
0.00109605
0.00104572
0.000990085
0.000930712
0.000868933
0.00080888
0.0007463
0.000672894
0.000169634
0.000201845
0.000217648
0.000226753
0.000234198
0.000242114
0.000253018
0.000268318
0.000284827
0.000296965
0.000281225
0.00026309
0.000251156
0.000240204
0.000230223
0.00022062
0.000210863
0.00020002
0.000183633
0.000152479
0.000199103
0.000488899
0.000597475
0.000669563
0.000729321
0.000782451
0.000838796
0.000892466
0.000877228
0.000730671
0.00069715
0.000830429
0.000849036
0.00080656
0.000755892
0.000703021
0.000643261
0.000569301
0.000461241
0.000187673
0.00021141
0.000486895
0.000605052
0.00067924
0.00073237
0.000777874
0.000826268
0.000863804
0.000783038
0.000637846
0.000614776
0.000737072
0.00082963
0.000804757
0.000762485
0.000716199
0.000658621
0.000578107
0.000455374
0.000213963
0.000258599
0.000434942
0.000560368
0.000642231
0.000696176
0.000734062
0.000767927
0.000792813
0.000699335
0.000657288
0.000652071
0.000666686
0.000769369
0.000755776
0.000728536
0.00069121
0.00063341
0.000547066
0.000424192
0.000267193
0.000337877
0.000415275
0.000512674
0.000601195
0.000666194
0.000710752
0.000745626
0.000768936
0.00067569
0.000729842
0.000730989
0.000654823
0.00075267
0.000734276
0.000701875
0.000659289
0.000597719
0.000513796
0.000419547
0.000341695
0.000439078
0.000470503
0.000513607
0.000589723
0.000659512
0.000709856
0.00074716
0.0007725
0.000692214
0.000839567
0.000828353
0.000671195
0.000760127
0.000741553
0.000709512
0.000662002
0.000591481
0.000511104
0.000465112
0.000438921
0.000514189
0.000626096
0.000625982
0.000692317
0.00076456
0.000813348
0.000844514
0.000875108
0.000854665
0.00100816
0.000966854
0.000831207
0.000872246
0.000850987
0.000821587
0.000767936
0.000684173
0.000601816
0.000595458
0.000508447
0.000573171
0.000927609
0.000929373
0.00100233
0.00105386
0.00107933
0.00107754
0.00105577
0.00104825
0.00116058
0.0011119
0.00101873
0.00103964
0.00106485
0.00106582
0.00103318
0.000971394
0.000891959
0.000911313
0.000564226
0.000630144
0.000964868
0.00142403
0.00168674
0.00190638
0.00203717
0.00202068
0.00183487
0.00161775
0.0016489
0.00161596
0.0015717
0.00176767
0.0019242
0.00193111
0.00180423
0.00158319
0.0013394
0.000912791
0.000618513
0.000687904
0.000768593
0.000837827
0.000904153
0.000972001
0.00103839
0.0011031
0.00116759
0.00123558
0.00130722
0.0013027
0.0012318
0.00116241
0.00109493
0.00102763
0.000959592
0.000890684
0.000824656
0.000757338
0.000679115
0.000167577
0.000197066
0.000213751
0.000227044
0.000239138
0.000251341
0.000265962
0.000284827
0.000304039
0.000312897
0.000296715
0.000281672
0.000265617
0.00024874
0.000234908
0.000223037
0.000211491
0.000198866
0.000181515
0.000151409
0.000201413
0.000528991
0.000651761
0.000741407
0.000821296
0.000878439
0.000912941
0.000877228
0.00070908
0.000858605
0.000814716
0.000655844
0.000824298
0.000848478
0.000806602
0.000752305
0.000686689
0.000611639
0.000501224
0.00018612
0.00021543
0.000513481
0.000642147
0.000741955
0.000824112
0.00088257
0.000900195
0.000783038
0.000638972
0.00113137
0.00112036
0.000591355
0.000731371
0.000843143
0.000820962
0.000767045
0.000697139
0.000609855
0.000487983
0.000204615
0.000228993
0.000458853
0.000588606
0.000683073
0.000758765
0.000815941
0.000833383
0.000699335
0.000691973
0.00147561
0.00149279
0.000667627
0.000656995
0.000788516
0.000771564
0.000723488
0.000659497
0.000572261
0.000437895
0.000235235
0.000326555
0.000392754
0.000507273
0.000622255
0.000713447
0.000782267
0.000809319
0.00067569
0.000801942
0.00182599
0.00185878
0.000807559
0.00064384
0.000774929
0.000747868
0.000686454
0.000604552
0.000499013
0.000391541
0.000326594
0.000431782
0.000441958
0.000478439
0.00056802
0.000674336
0.000764184
0.000809724
0.000692214
0.000927509
0.00211683
0.00214376
0.000927034
0.000666021
0.000786424
0.000742954
0.000661093
0.000562007
0.000469788
0.000432184
0.000429782
0.000507966
0.000582036
0.000588375
0.000671191
0.000773168
0.000856214
0.000909722
0.000854665
0.00108735
0.00229997
0.00230902
0.00107465
0.000829565
0.000904752
0.000851183
0.000759508
0.000644914
0.000550237
0.000547865
0.000500655
0.000567699
0.000894753
0.000893626
0.00097391
0.0010315
0.00105797
0.00105657
0.00104825
0.00125986
0.00236963
0.00235769
0.00123676
0.00100778
0.00102484
0.00102072
0.000980276
0.000906576
0.000827542
0.000871694
0.000557229
0.000625731
0.000936095
0.00138429
0.00161078
0.00178967
0.0018355
0.00174038
0.00161775
0.00176701
0.00233904
0.00231708
0.00174255
0.00155267
0.00164913
0.00172991
0.00167044
0.00148124
0.0012448
0.000870542
0.000612519
0.000688856
0.000772398
0.000844507
0.00091502
0.000988794
0.00106379
0.0011437
0.00123558
0.00134646
0.00146951
0.00146292
0.0013453
0.00123319
0.00113811
0.00105496
0.000977163
0.000901325
0.000829954
0.0007597
0.000678696
0.000165516
0.000193539
0.000210679
0.00022564
0.000240203
0.000255108
0.000273624
0.000296965
0.000312897
0.000321982
0.000304945
0.000294133
0.000281564
0.000257632
0.000238125
0.000223125
0.000209465
0.000196004
0.000179129
0.000150765
0.000204098
0.000549455
0.00068901
0.000797133
0.000892083
0.000940958
0.000921594
0.000730671
0.000858605
0.00057235
0.000530568
0.000791314
0.000666605
0.0008457
0.000839385
0.000786611
0.000713006
0.000633474
0.000518302
0.000184069
0.000220898
0.000540397
0.000686197
0.000815918
0.000930315
0.000974889
0.000879854
0.000637846
0.00113137
0.000850654
0.000798486
0.00107325
0.000565841
0.000797993
0.000876401
0.000831914
0.000746938
0.000654476
0.000534549
0.000202195
0.000234033
0.000484653
0.000610279
0.00074451
0.000862657
0.000919125
0.000815439
0.000657288
0.00147561
0.00114753
0.00108575
0.00144234
0.000591606
0.000733506
0.000833568
0.000786842
0.000701854
0.000609945
0.000503752
0.000212805
0.000323846
0.000385432
0.000525609
0.000674484
0.00081041
0.00089432
0.000806582
0.000729842
0.00182599
0.00147066
0.00139808
0.0018262
0.000682525
0.000726799
0.000820815
0.000751256
0.000644034
0.000509773
0.000382305
0.000315707
0.000426363
0.000432249
0.000466201
0.000589166
0.000760977
0.000887693
0.000840661
0.000839567
0.00211683
0.00180719
0.00172282
0.00213899
0.000802498
0.000756957
0.000821648
0.000706042
0.00055806
0.000448052
0.000416052
0.000421583
0.0005001
0.000560042
0.000574726
0.000683938
0.000840808
0.000981473
0.000994769
0.00100816
0.00229997
0.00212143
0.00202695
0.00233879
0.000953637
0.000904566
0.000914489
0.000781277
0.000623935
0.000522974
0.000526159
0.000492388
0.000558043
0.000850346
0.000847588
0.000944292
0.00102312
0.00107081
0.00108763
0.00116058
0.00236963
0.00235474
0.00225391
0.0024314
0.0010921
0.000975433
0.000972391
0.000924381
0.000848194
0.000778095
0.000841574
0.000548341
0.000614396
0.000881681
0.00126976
0.00147112
0.00159239
0.00157419
0.00149802
0.0016489
0.00233904
0.00248164
0.00238883
0.00236954
0.00160601
0.00140591
0.00149491
0.00150314
0.00135936
0.00114735
0.000830559
0.000602694
0.00068121
0.000765129
0.000837485
0.000911234
0.000990797
0.00107651
0.00117738
0.00130722
0.00146951
0.00157606
0.00155243
0.00147374
0.00130979
0.00117528
0.00107112
0.000982335
0.000899801
0.000824151
0.00075334
0.000671723
0.000162264
0.000187837
0.000204612
0.00021858
0.00023171
0.000244956
0.00026112
0.000281225
0.000296715
0.000304945
0.000298459
0.00028976
0.000277694
0.000253864
0.000233777
0.00021845
0.000205147
0.000192439
0.000176897
0.000151192
0.000201756
0.000512968
0.000651528
0.000763288
0.000861802
0.00091507
0.000896822
0.00069715
0.000814716
0.000530568
0.000510597
0.000782701
0.000629152
0.000824068
0.00082742
0.000774602
0.000699486
0.00061894
0.000504055
0.0001813
0.000219076
0.000497432
0.000644078
0.000781747
0.00090495
0.000954432
0.000855504
0.000614776
0.00112036
0.000798486
0.00077546
0.0011289
0.000562208
0.000776609
0.000891711
0.000857294
0.000769554
0.000671377
0.000546614
0.00020046
0.000240917
0.000449512
0.000578324
0.000720797
0.000846104
0.000906665
0.00079696
0.000652071
0.00149279
0.00108575
0.00105517
0.00155206
0.000628798
0.000722019
0.000874807
0.000843752
0.000747248
0.000643869
0.000540622
0.000214338
0.000327669
0.000379922
0.000507933
0.000660085
0.000801444
0.000887653
0.000794054
0.000730989
0.00185878
0.00139808
0.00135193
0.00196572
0.00075252
0.000729667
0.00087858
0.000821696
0.000700817
0.000528469
0.000384686
0.000310124
0.000428519
0.000434894
0.000465641
0.000585675
0.000757201
0.000881697
0.000826744
0.000828353
0.00214376
0.00172282
0.00165528
0.00228195
0.000836342
0.000752982
0.000851094
0.000732654
0.000565874
0.000449508
0.000415055
0.000418367
0.000500244
0.000564485
0.000581306
0.000692516
0.00084793
0.000980277
0.000983554
0.000966854
0.00230902
0.00202695
0.00193673
0.00245268
0.00090757
0.000839003
0.000871435
0.000754325
0.000613515
0.000521975
0.000527527
0.000489279
0.000557414
0.000860847
0.000852208
0.000948561
0.00102621
0.0010688
0.00107162
0.0011119
0.00235769
0.00225391
0.00214879
0.00248923
0.00101455
0.000914734
0.000924095
0.000892064
0.000833761
0.000777126
0.000850958
0.000545443
0.000613325
0.000888595
0.00126127
0.00146165
0.0015828
0.00156669
0.00147546
0.00161596
0.00231708
0.00238883
0.00228882
0.00238468
0.00157698
0.00139424
0.0015028
0.00149778
0.00135041
0.00114392
0.000842034
0.00059979
0.000679839
0.000762651
0.000834186
0.000908038
0.000987574
0.00107307
0.00117332
0.0013027
0.00146292
0.00155243
0.00151972
0.00147406
0.00131073
0.00117549
0.00107105
0.000981051
0.000897102
0.000820157
0.000749349
0.000668112
0.000159609
0.000183711
0.000199501
0.000211505
0.000222231
0.000233132
0.000246163
0.00026309
0.000281672
0.000294133
0.00028976
0.000274269
0.000254848
0.000236402
0.000222988
0.000211882
0.000201564
0.000190672
0.000176447
0.000152872
0.000197079
0.00045273
0.000574827
0.000672894
0.000755404
0.000820956
0.000862723
0.000830429
0.000655843
0.000791314
0.000782701
0.000593577
0.000763684
0.000796209
0.000762573
0.000710128
0.000645538
0.000573166
0.00046707
0.000178414
0.000215094
0.000440914
0.000566182
0.000676522
0.000766784
0.000836885
0.000859589
0.000737072
0.000591355
0.00107325
0.0011289
0.000571068
0.000685418
0.000832725
0.000842271
0.000791597
0.0007127
0.000622165
0.000502014
0.000196379
0.000249471
0.000409331
0.000539074
0.000636655
0.000717037
0.000782
0.000804033
0.000666686
0.000667627
0.00144234
0.00155206
0.000713184
0.000635469
0.000817364
0.000832228
0.00078301
0.000709551
0.000608351
0.000462698
0.000214175
0.000333854
0.000388436
0.000482699
0.000588692
0.000682004
0.000756539
0.000788747
0.000654823
0.000807559
0.0018262
0.00196572
0.000896841
0.000642676
0.000821352
0.00080919
0.000733109
0.000626851
0.000499286
0.000382005
0.000309485
0.000437867
0.000450087
0.000477866
0.000555726
0.000651183
0.000739064
0.00078829
0.000671195
0.000927034
0.00213899
0.00228195
0.00101885
0.000639134
0.000787084
0.000749186
0.000657947
0.00055087
0.000457382
0.00042369
0.000423766
0.000510958
0.00059962
0.000601326
0.000675673
0.000769757
0.000848584
0.000898336
0.000831207
0.00107465
0.00233879
0.00245268
0.00111313
0.000715926
0.000812003
0.000770771
0.000694982
0.000604267
0.000536274
0.000549463
0.000497002
0.000569997
0.000909533
0.000898505
0.000975215
0.00102796
0.00104963
0.00104221
0.00101873
0.00123676
0.0024314
0.00248923
0.00122637
0.00089445
0.000904833
0.000903037
0.000882033
0.000844685
0.000803385
0.000883113
0.000554892
0.000627557
0.000954704
0.00136263
0.00157332
0.00173676
0.00178987
0.00170877
0.0015717
0.00174255
0.00236954
0.00238468
0.00173702
0.00153802
0.0016847
0.00171249
0.0016029
0.00141799
0.00121261
0.000891678
0.000610394
0.000689117
0.000770415
0.000840493
0.000909987
0.000983144
0.00105847
0.0011391
0.0012318
0.0013453
0.00147374
0.00147406
0.00135011
0.00123501
0.00113977
0.0010541
0.000972693
0.000894531
0.000822429
0.000753418
0.000674258
0.000160266
0.000185418
0.000201166
0.000212078
0.000220965
0.000229439
0.000239024
0.000251156
0.000265617
0.000281564
0.000277694
0.000254848
0.000237526
0.000224872
0.000215812
0.000208626
0.000201197
0.000192062
0.00017863
0.00015579
0.000196359
0.000416559
0.000527564
0.000612275
0.000680719
0.000742347
0.000802767
0.000849036
0.000824298
0.000666605
0.000629152
0.000763684
0.00077919
0.000734817
0.00069186
0.000650595
0.00060105
0.000536676
0.000438314
0.00017862
0.00022124
0.00043963
0.00055664
0.000633946
0.000693782
0.000747603
0.00080057
0.00082963
0.000731371
0.000565841
0.000562208
0.000685418
0.000809268
0.000798578
0.000760802
0.000721664
0.000673118
0.000593785
0.000478933
0.000195323
0.000267505
0.000412956
0.000528481
0.000615322
0.000675631
0.000716439
0.00075128
0.000769369
0.000656995
0.000591606
0.000628798
0.000635469
0.000787279
0.000791242
0.000763904
0.0007216
0.000654591
0.000555008
0.00041946
0.00023999
0.000345025
0.000414686
0.000497153
0.000574406
0.000636109
0.000686427
0.000728787
0.00075267
0.00064384
0.000682525
0.000752519
0.000642676
0.000779401
0.000767104
0.00072238
0.000665432
0.000590633
0.000495794
0.000394291
0.000315208
0.000447591