/*--------------------------------*- C++ -*----------------------------------*\
  =========                 |
  \\      /  F ield         | OpenFOAM: The Open Source CFD Toolbox
   \\    /   O peration     | Website:  https://openfoam.org
    \\  /    A nd           | Version:  9
     \\/     M anipulation  |
\*---------------------------------------------------------------------------*/
FoamFile
{
    format      ascii;
    class       volScalarField;
    location    "1000";
    object      epsilon;
}
// * * * * * * * * * * * * * * * * * * * * * * * * * * * * * * * * * * * * * //

dimensions      [0 2 -3 0 0 0 0];

internalField   nonuniform List<scalar> 
4000
(
1.98459e-07
1.16477e-07
6.95427e-08
5.02134e-08
4.15681e-08
3.60507e-08
3.15093e-08
2.88821e-08
2.79107e-08
2.69552e-08
2.54304e-08
2.42661e-08
2.46223e-08
2.67337e-08
3.19548e-08
3.5854e-08
4.05717e-08
4.89332e-08
7.93524e-08
1.38297e-07
3.08975e-07
2.20092e-07
1.68056e-07
1.37092e-07
9.21251e-08
5.62062e-08
5.0142e-08
4.62833e-08
4.80252e-08
5.00527e-08
4.85211e-08
4.53915e-08
4.50475e-08
4.62033e-08
5.01504e-08
1.15682e-07
1.65712e-07
2.11686e-07
2.72256e-07
3.11582e-07
4.86908e-07
4.02213e-07
3.25284e-07
2.60741e-07
2.00567e-07
1.47308e-07
9.4234e-08
5.5549e-08
5.90811e-08
6.3874e-08
6.25603e-08
5.96942e-08
6.50727e-08
1.12519e-07
1.624e-07
2.18652e-07
3.04412e-07
4.12634e-07
4.87063e-07
5.30093e-07
5.62871e-07
5.17105e-07
4.41312e-07
3.51277e-07
2.65787e-07
1.98684e-07
1.4409e-07
1.00671e-07
7.13004e-08
7.77048e-08
8.57233e-08
9.59356e-08
1.16537e-07
1.54035e-07
2.09145e-07
2.85568e-07
3.86434e-07
4.86963e-07
5.67262e-07
5.9979e-07
6.06883e-07
5.85157e-07
5.20409e-07
4.37324e-07
3.55751e-07
2.91813e-07
2.53851e-07
2.25531e-07
2.074e-07
2.06181e-07
2.174e-07
2.31302e-07
2.52693e-07
2.91022e-07
3.5123e-07
4.17351e-07
4.98001e-07
5.8015e-07
6.35192e-07
6.4109e-07
6.37444e-07
6.49062e-07
6.26698e-07
5.92897e-07
5.61912e-07
5.3792e-07
5.1801e-07
4.95756e-07
4.73114e-07
4.57737e-07
4.683e-07
5.00335e-07
5.33567e-07
5.67995e-07
6.02085e-07
6.33889e-07
6.63826e-07
6.90435e-07
6.99442e-07
6.70934e-07
6.64848e-07
7.1578e-07
7.49219e-07
7.73665e-07
7.94393e-07
8.07651e-07
8.09501e-07
7.96952e-07
7.69496e-07
7.35402e-07
7.39568e-07
7.88882e-07
8.27181e-07
8.52314e-07
8.63316e-07
8.5831e-07
8.40094e-07
8.1198e-07
7.6732e-07
6.99212e-07
6.96142e-07
7.9027e-07
8.78846e-07
9.56034e-07
1.02277e-06
1.07315e-06
1.10221e-06
1.10387e-06
1.07338e-06
1.01996e-06
1.0199e-06
1.09165e-06
1.13237e-06
1.14171e-06
1.12359e-06
1.08132e-06
1.01859e-06
9.39842e-07
8.42174e-07
7.31569e-07
7.38302e-07
8.85912e-07
1.03129e-06
1.16214e-06
1.27856e-06
1.37316e-06
1.43942e-06
1.46464e-06
1.4352e-06
1.3588e-06
1.3556e-06
1.45432e-06
1.49232e-06
1.47825e-06
1.425e-06
1.33878e-06
1.22595e-06
1.09354e-06
9.39634e-07
7.75082e-07
8.02029e-07
1.01178e-06
1.22104e-06
1.40632e-06
1.57299e-06
1.71764e-06
1.83187e-06
1.90194e-06
1.9106e-06
1.84756e-06
1.84091e-06
1.9198e-06
1.91425e-06
1.85043e-06
1.74637e-06
1.61253e-06
1.45447e-06
1.27362e-06
1.06206e-06
8.40043e-07
1.16477e-07
9.41372e-08
7.60016e-08
6.85943e-08
6.86016e-08
6.44728e-08
5.49596e-08
4.86307e-08
4.56045e-08
4.34932e-08
4.00454e-08
3.7571e-08
3.84544e-08
4.33808e-08
5.91781e-08
5.98871e-08
6.08984e-08
6.17739e-08
7.07335e-08
8.37163e-08
2.20092e-07
2.06115e-07
1.97707e-07
2.10085e-07
1.91073e-07
1.11764e-07
7.08567e-08
5.70595e-08
4.88967e-08
4.82068e-08
4.68311e-08
4.57052e-08
5.10832e-08
6.16642e-08
1.01843e-07
2.06052e-07
2.40959e-07
2.62036e-07
2.98944e-07
2.54334e-07
4.02213e-07
4.87977e-07
3.89801e-07
3.05406e-07
2.46229e-07
1.94118e-07
1.39488e-07
9.10672e-08
6.20953e-08
5.60697e-08
5.4212e-08
5.84263e-08
9.41528e-08
1.54326e-07
2.0033e-07
2.53216e-07
3.41682e-07
4.62061e-07
5.49339e-07
4.77891e-07
5.17105e-07
5.60093e-07
4.85351e-07
3.70461e-07
2.75375e-07
2.06492e-07
1.53323e-07
1.15558e-07
8.99953e-08
7.57381e-08
7.59285e-08
9.6763e-08
1.25033e-07
1.62006e-07
2.15131e-07
2.88525e-07
3.92154e-07
4.87096e-07
5.35452e-07
5.55335e-07
5.85157e-07
5.38934e-07
4.88932e-07
4.14451e-07
3.2009e-07
2.4991e-07
2.00525e-07
1.64331e-07
1.4183e-07
1.31389e-07
1.36656e-07
1.5426e-07
1.82866e-07
2.24743e-07
2.85302e-07
3.66704e-07
4.62268e-07
5.31487e-07
5.6418e-07
6.20824e-07
6.49062e-07
5.78406e-07
5.54638e-07
5.16707e-07
4.64436e-07
3.92936e-07
3.41029e-07
2.97532e-07
2.67326e-07
2.55387e-07
2.59529e-07
2.78765e-07
3.13948e-07
3.6535e-07
4.33266e-07
5.14576e-07
5.66667e-07
6.01516e-07
6.14298e-07
6.83272e-07
7.1578e-07
6.37387e-07
6.33814e-07
6.34155e-07
6.3726e-07
6.11326e-07
5.48308e-07
4.85398e-07
4.3445e-07
4.03858e-07
4.01638e-07
4.36982e-07
4.9354e-07
5.65761e-07
6.35162e-07
6.66688e-07
6.73634e-07
6.80033e-07
6.78562e-07
7.50863e-07
7.9027e-07
7.33489e-07
7.53098e-07
7.83374e-07
8.35126e-07
8.68283e-07
8.65773e-07
8.30778e-07
7.66764e-07
6.85823e-07
6.73441e-07
7.61002e-07
8.30389e-07
8.67474e-07
8.76296e-07
8.54203e-07
8.19119e-07
8.00545e-07
7.77349e-07
8.26406e-07
8.85912e-07
9.37602e-07
1.03882e-06
1.13919e-06
1.24659e-06
1.34129e-06
1.40979e-06
1.42174e-06
1.34529e-06
1.19411e-06
1.17313e-06
1.3289e-06
1.40786e-06
1.41427e-06
1.37025e-06
1.28947e-06
1.19078e-06
1.09357e-06
9.86107e-07
9.24249e-07
1.01178e-06
1.2812e-06
1.55939e-06
1.82079e-06
2.07208e-06
2.30644e-06
2.507e-06
2.64531e-06
2.68686e-06
2.61246e-06
2.59206e-06
2.67539e-06
2.63775e-06
2.50973e-06
2.32562e-06
2.10739e-06
1.8679e-06
1.61263e-06
1.33262e-06
1.05085e-06
6.95427e-08
7.60016e-08
7.4825e-08
7.62054e-08
7.98153e-08
7.52586e-08
6.66334e-08
6.09106e-08
5.82804e-08
5.63623e-08
5.19661e-08
4.82871e-08
4.92465e-08
5.48445e-08
7.09094e-08
7.39393e-08
7.02938e-08
6.54136e-08
6.00601e-08
5.10284e-08
1.68056e-07
1.97707e-07
2.19671e-07
2.37309e-07
2.03002e-07
1.20718e-07
8.19141e-08
6.73614e-08
5.87765e-08
5.78709e-08
5.63254e-08
5.47771e-08
6.03952e-08
7.40004e-08
1.01619e-07
2.04423e-07
2.53439e-07
2.61304e-07
2.53641e-07
1.9216e-07
3.25284e-07
3.89801e-07
3.44386e-07
2.96876e-07
2.51939e-07
2.03906e-07
1.5248e-07
1.04801e-07
7.53987e-08
6.52294e-08
6.27177e-08
6.91385e-08
1.0226e-07
1.66177e-07
2.13557e-07
2.51404e-07
3.16938e-07
3.94315e-07
4.54283e-07
4e-07
4.41312e-07
4.85351e-07
4.27436e-07
3.40731e-07
2.67067e-07
2.08579e-07
1.62267e-07
1.28541e-07
1.03196e-07
8.20309e-08
8.03992e-08
1.05036e-07
1.35809e-07
1.68584e-07
2.13731e-07
2.73203e-07
3.53303e-07
4.34893e-07
4.70902e-07
4.68072e-07
5.20409e-07
4.88932e-07
4.34805e-07
3.621e-07
2.85024e-07
2.25164e-07
1.80489e-07
1.47647e-07
1.24269e-07
1.07612e-07
1.09109e-07
1.31859e-07
1.57855e-07
1.93253e-07
2.43092e-07
3.10126e-07
3.93838e-07
4.6285e-07
5.12356e-07
5.52081e-07
6.26698e-07
5.54638e-07
4.88706e-07
4.22214e-07
3.52504e-07
2.89077e-07
2.41511e-07
2.03031e-07
1.75161e-07
1.61487e-07
1.61379e-07
1.77842e-07
2.09366e-07
2.53409e-07
3.11586e-07
3.82833e-07
4.53534e-07
5.20025e-07
5.83129e-07
6.58526e-07
7.49219e-07
6.33814e-07
5.63598e-07
4.94424e-07
4.36055e-07
3.86033e-07
3.37366e-07
2.95e-07
2.62163e-07
2.44155e-07
2.42874e-07
2.60456e-07
2.94656e-07
3.42909e-07
3.99102e-07
4.56371e-07
5.2246e-07
5.95767e-07
6.62584e-07
7.80878e-07
8.78846e-07
7.53098e-07
7.14539e-07
6.55252e-07
5.85236e-07
5.54047e-07
5.32974e-07
5.03377e-07
4.55731e-07
3.96186e-07
3.89695e-07
4.39213e-07
4.86882e-07
5.24663e-07
5.57501e-07
6.03214e-07
6.84349e-07
7.48349e-07
7.80872e-07
9.09916e-07
1.03129e-06
1.03882e-06
1.18994e-06
1.35569e-06
1.52996e-06
1.66063e-06
1.77042e-06
1.78509e-06
1.61736e-06
1.33371e-06
1.31168e-06
1.55259e-06
1.69928e-06
1.72678e-06
1.67637e-06
1.56311e-06
1.39567e-06
1.22703e-06
1.06994e-06
1.06369e-06
1.22104e-06
1.55939e-06
1.90609e-06
2.24148e-06
2.57701e-06
2.90482e-06
3.20113e-06
3.42057e-06
3.50667e-06
3.4217e-06
3.38608e-06
3.46733e-06
3.3826e-06
3.17615e-06
2.90274e-06
2.59553e-06
2.2733e-06
1.94568e-06
1.6002e-06
1.25365e-06
5.02134e-08
6.85943e-08
7.62054e-08
8.12464e-08
8.14999e-08
7.65002e-08
7.07117e-08
6.86052e-08
6.9582e-08
6.91755e-08
6.34273e-08
5.75461e-08
5.74573e-08
6.16976e-08
7.20614e-08
8.17675e-08
7.38563e-08
6.49828e-08
5.4024e-08
3.73818e-08
1.37092e-07
2.10085e-07
2.37309e-07
2.29398e-07
1.69301e-07
1.08017e-07
8.32096e-08
7.17982e-08
6.70841e-08
6.84119e-08
6.6055e-08
6.18865e-08
6.47819e-08
7.80025e-08
9.32669e-08
1.49053e-07
2.20737e-07
2.46559e-07
2.28334e-07
1.52165e-07
2.60741e-07
3.05406e-07
2.96876e-07
2.73219e-07
2.3594e-07
1.91915e-07
1.45049e-07
1.03826e-07
8.27287e-08
7.61772e-08
7.2797e-08
7.52793e-08
9.70986e-08
1.53357e-07
2.05851e-07
2.33236e-07
2.7355e-07
3.15235e-07
3.36621e-07
3.01661e-07
3.51277e-07
3.70461e-07
3.40731e-07
2.91861e-07
2.42522e-07
1.97605e-07
1.60078e-07
1.30064e-07
1.0641e-07
9.0242e-08
8.7468e-08
1.06085e-07
1.37634e-07
1.6723e-07
2.01509e-07
2.43738e-07
2.95513e-07
3.44617e-07
3.69098e-07
3.67326e-07
4.37324e-07
4.14451e-07
3.621e-07
3.06202e-07
2.51571e-07
2.05543e-07
1.68987e-07
1.41898e-07
1.23002e-07
1.0808e-07
1.07482e-07
1.26576e-07
1.47551e-07
1.75357e-07
2.14087e-07
2.63364e-07
3.21749e-07
3.78364e-07
4.30394e-07
4.5847e-07
5.92897e-07
5.16707e-07
4.22214e-07
3.49823e-07
2.88971e-07
2.38586e-07
1.9935e-07
1.67966e-07
1.43157e-07
1.28515e-07
1.27532e-07
1.44241e-07
1.70927e-07
2.05895e-07
2.50829e-07
3.04983e-07
3.65341e-07
4.36851e-07
5.34887e-07
6.19316e-07
7.73665e-07
6.34155e-07
4.94424e-07
4.02348e-07
3.41704e-07
2.96612e-07
2.60412e-07
2.31325e-07
2.10194e-07
2.01946e-07
2.01896e-07
2.07163e-07
2.29633e-07
2.63721e-07
3.0585e-07
3.54601e-07
4.14923e-07
5.04122e-07
6.47614e-07
7.97549e-07
9.56034e-07
7.83374e-07
6.55252e-07
5.44016e-07
5.1e-07
5.06951e-07
5.15107e-07
5.15388e-07
4.83715e-07
4.2503e-07
4.21965e-07
4.7076e-07
5.05061e-07
5.1755e-07
5.21223e-07
5.28942e-07
5.53944e-07
6.54726e-07
7.91014e-07
9.76374e-07
1.16214e-06
1.13919e-06
1.35569e-06
1.59409e-06
1.82007e-06
2.14183e-06
2.43771e-06
2.56722e-06
2.38964e-06
1.97835e-06
1.95093e-06
2.27205e-06
2.42665e-06
2.3567e-06
2.13982e-06
1.85488e-06
1.59821e-06
1.3527e-06
1.1411e-06
1.18121e-06
1.40632e-06
1.82079e-06
2.24148e-06
2.65783e-06
3.09353e-06
3.5411e-06
3.96202e-06
4.2925e-06
4.45298e-06
4.39984e-06
4.35708e-06
4.38971e-06
4.21814e-06
3.90088e-06
3.50667e-06
3.0834e-06
2.65979e-06
2.25371e-06
1.83994e-06
1.42455e-06
4.1568e-08
6.86016e-08
7.98153e-08
8.14999e-08
7.7497e-08
7.34874e-08
7.14382e-08
7.49282e-08
8.08725e-08
8.30005e-08
7.52414e-08
6.63789e-08
6.4604e-08
6.59898e-08
6.88119e-08
7.53673e-08
7.41642e-08
6.4868e-08
5.1473e-08
3.11335e-08
9.21251e-08
1.91073e-07
2.03002e-07
1.69301e-07
1.21727e-07
9.34005e-08
8.01972e-08
7.36037e-08
7.46069e-08
8.02785e-08
7.65994e-08
6.76725e-08
6.70995e-08
7.62788e-08
8.71345e-08
1.03014e-07
1.47923e-07
1.91163e-07
1.89353e-07
1.11013e-07
2.00567e-07
2.46229e-07
2.51939e-07
2.3594e-07
2.04403e-07
1.65379e-07
1.26642e-07
9.70275e-08
8.55213e-08
8.71059e-08
8.33824e-08
7.79833e-08
8.98237e-08
1.26725e-07
1.77141e-07
2.08887e-07
2.29259e-07
2.4829e-07
2.50078e-07
2.18981e-07
2.65787e-07
2.75375e-07
2.67067e-07
2.42522e-07
2.10885e-07
1.7852e-07
1.48596e-07
1.22744e-07
1.04846e-07
9.89192e-08
9.60866e-08
1.02403e-07
1.29011e-07
1.58105e-07
1.8348e-07
2.11495e-07
2.40669e-07
2.64475e-07
2.71558e-07
2.70799e-07
3.55751e-07
3.2009e-07
2.85024e-07
2.51571e-07
2.16819e-07
1.84083e-07
1.5623e-07
1.35149e-07
1.21757e-07
1.16885e-07
1.16587e-07
1.23598e-07
1.38943e-07
1.59594e-07
1.88191e-07
2.21692e-07
2.573e-07
2.91677e-07
3.31684e-07
3.70066e-07
5.61912e-07
4.64437e-07
3.52504e-07
2.88971e-07
2.42952e-07
2.05243e-07
1.74461e-07
1.50517e-07
1.34076e-07
1.36597e-07
1.35953e-07
1.33553e-07
1.51392e-07
1.77698e-07
2.11197e-07
2.50212e-07
2.95445e-07
3.58842e-07
4.75572e-07
5.82225e-07
7.94393e-07
6.3726e-07
4.36055e-07
3.41704e-07
2.89653e-07
2.54324e-07
2.27881e-07
2.09655e-07
2.02759e-07
2.14183e-07
2.16337e-07
1.99128e-07
2.07387e-07
2.29981e-07
2.59758e-07
2.95148e-07
3.42831e-07
4.30912e-07
6.32711e-07
8.07222e-07
1.02277e-06
8.35126e-07
5.85236e-07
5.1e-07
5.16731e-07
5.47787e-07
5.85469e-07
6.08324e-07
5.81755e-07
5.24436e-07
5.19724e-07
5.59594e-07
5.8719e-07
5.80621e-07
5.55392e-07
5.24867e-07
5.04708e-07
5.50813e-07
8.18626e-07
1.02767e-06
1.27856e-06
1.24659e-06
1.52996e-06
1.82007e-06
2.36497e-06
2.9483e-06
3.4124e-06
3.62022e-06
3.30343e-06
2.64278e-06
2.60928e-06
3.10692e-06
3.35522e-06
3.21352e-06
2.83306e-06
2.31451e-06
1.76726e-06
1.46101e-06
1.21276e-06
1.27777e-06
1.57299e-06
2.07208e-06
2.57701e-06
3.09353e-06
3.6689e-06
4.26955e-06
4.8475e-06
5.32836e-06
5.61356e-06
5.64883e-06
5.59635e-06
5.52487e-06
5.21568e-06
4.74118e-06
4.18746e-06
3.61271e-06
3.05237e-06
2.55048e-06
2.06128e-06
1.57101e-06
3.60507e-08
6.44728e-08
7.52586e-08
7.65002e-08
7.34874e-08
7.04944e-08
7.31397e-08
8.22656e-08
9.33633e-08
9.87612e-08
8.8204e-08
7.59597e-08
7.17276e-08
6.97657e-08
6.69063e-08
6.54379e-08
6.4253e-08
5.98897e-08
4.91799e-08
2.69373e-08
5.62062e-08
1.11764e-07
1.20718e-07
1.08017e-07
9.34004e-08
8.32069e-08
7.70556e-08
7.65863e-08
8.34171e-08
9.4569e-08
8.96012e-08
7.45632e-08
6.98556e-08
7.39099e-08
8.05842e-08
8.58359e-08
9.21009e-08
1.05784e-07
1.05046e-07
4.93044e-08
1.47308e-07
1.94118e-07
2.03906e-07
1.91915e-07
1.65379e-07
1.34314e-07
1.07041e-07
9.02498e-08
8.79871e-08
9.91969e-08
9.57269e-08
8.07913e-08
8.41084e-08
1.03791e-07
1.36619e-07
1.69771e-07
1.88971e-07
1.96234e-07
1.8731e-07
1.54169e-07
1.98684e-07
2.06492e-07
2.08579e-07
1.97605e-07
1.7852e-07
1.555e-07
1.31561e-07
1.11433e-07
1.02029e-07
1.10511e-07
1.08695e-07
9.8417e-08
1.14586e-07
1.4119e-07
1.63306e-07
1.81115e-07
1.96032e-07
2.0474e-07
2.02706e-07
2.0035e-07
2.91813e-07
2.4991e-07
2.25164e-07
2.05543e-07
1.84083e-07
1.61663e-07
1.41167e-07
1.25684e-07
1.19077e-07
1.3229e-07
1.32559e-07
1.20014e-07
1.29372e-07
1.44505e-07
1.64567e-07
1.86921e-07
2.08444e-07
2.29363e-07
2.5942e-07
3.05594e-07
5.3792e-07
3.92936e-07
2.89078e-07
2.38586e-07
2.05243e-07
1.77632e-07
1.54435e-07
1.37464e-07
1.33681e-07
1.63225e-07
1.62114e-07
1.31051e-07
1.38002e-07
1.56574e-07
1.8122e-07
2.09224e-07
2.41809e-07
2.91707e-07
3.98987e-07
5.51022e-07
8.07651e-07
6.11326e-07
3.86033e-07
2.96612e-07
2.54324e-07
2.28467e-07
2.10892e-07
2.02936e-07
2.11669e-07
2.63897e-07
2.64228e-07
2.07659e-07
1.99973e-07
2.12575e-07
2.32046e-07
2.56036e-07
2.92101e-07
3.71918e-07
5.88543e-07
8.0724e-07
1.07315e-06
8.68283e-07
5.54047e-07
5.06951e-07
5.47787e-07
6.14344e-07
6.80707e-07
7.12238e-07
6.69803e-07
6.19599e-07
6.07334e-07
6.37114e-07
6.73786e-07
6.57833e-07
6.06454e-07
5.43081e-07
4.92307e-07
5.18071e-07
8.23159e-07
1.05932e-06
1.37316e-06
1.34129e-06
1.66063e-06
2.14183e-06
2.9483e-06
3.76416e-06
4.39513e-06
4.57115e-06
3.9406e-06
3.09922e-06
3.07465e-06
3.75989e-06
4.19777e-06
4.0376e-06
3.50069e-06
2.78248e-06
2.00244e-06
1.49691e-06
1.26562e-06
1.34738e-06
1.71764e-06
2.30644e-06
2.90482e-06
3.5411e-06
4.26955e-06
5.0449e-06
5.81512e-06
6.49572e-06
6.989e-06
7.24333e-06
7.17682e-06
6.88753e-06
6.35511e-06
5.66486e-06
4.91185e-06
4.16108e-06
3.44965e-06
2.83355e-06
2.26104e-06
1.69208e-06
3.15093e-08
5.49596e-08
6.66334e-08
7.07117e-08
7.14382e-08
7.31397e-08
8.04855e-08
9.34411e-08
1.09891e-07
1.21043e-07
1.05959e-07
8.84102e-08
8.02496e-08
7.41742e-08
6.75857e-08
6.08857e-08
5.51245e-08
4.89153e-08
3.90107e-08
2.25471e-08
5.0142e-08
7.08567e-08
8.19141e-08
8.32096e-08
8.01972e-08
7.70556e-08
7.78762e-08
8.44949e-08
1.00551e-07
1.28491e-07
1.21926e-07
8.83709e-08
7.56505e-08
7.3572e-08
7.47026e-08
7.60859e-08
7.57193e-08
7.14938e-08
6.01352e-08
4.22059e-08
9.4234e-08
1.39488e-07
1.5248e-07
1.45049e-07
1.26642e-07
1.07041e-07
9.28342e-08
8.77476e-08
9.89453e-08
1.41978e-07
1.40004e-07
9.13093e-08
8.18761e-08
8.97609e-08
1.05365e-07
1.25194e-07
1.41307e-07
1.45655e-07
1.33433e-07
9.98235e-08
1.4409e-07
1.53323e-07
1.62267e-07
1.60078e-07
1.48596e-07
1.31561e-07
1.13649e-07
1.0152e-07
1.07852e-07
1.67688e-07
1.6974e-07
1.04119e-07
1.01855e-07
1.19941e-07
1.39546e-07
1.53483e-07
1.60901e-07
1.60587e-07
1.52499e-07
1.499e-07
2.53851e-07
2.00525e-07
1.80489e-07
1.68987e-07
1.5623e-07
1.41167e-07
1.26203e-07
1.16014e-07
1.2448e-07
2.08065e-07
2.11344e-07
1.24748e-07
1.19771e-07
1.30844e-07
1.4484e-07
1.59336e-07
1.72441e-07
1.85728e-07
2.09885e-07
2.64253e-07
5.1801e-07
3.41029e-07
2.41511e-07
1.9935e-07
1.74461e-07
1.54435e-07
1.37745e-07
1.27686e-07
1.44528e-07
2.67725e-07
2.64227e-07
1.40783e-07
1.295e-07
1.40949e-07
1.58532e-07
1.78707e-07
2.0286e-07
2.43715e-07
3.43801e-07
5.23107e-07
8.09501e-07
5.48308e-07
3.37366e-07
2.60412e-07
2.27881e-07
2.10892e-07
2.02014e-07
2.04835e-07
2.40282e-07
4.21787e-07
4.06927e-07
2.33516e-07
2.01782e-07
2.04584e-07
2.14829e-07
2.28678e-07
2.53084e-07
3.16801e-07
5.12315e-07
7.95191e-07
1.10221e-06
8.65773e-07
5.32974e-07
5.15107e-07
5.85469e-07
6.80707e-07
7.63314e-07
7.78061e-07
7.18559e-07
7.66018e-07
7.32584e-07
6.78783e-07
7.29054e-07
7.2007e-07
6.53077e-07
5.62508e-07
4.84037e-07
4.80858e-07
7.97429e-07
1.06899e-06
1.43942e-06
1.40979e-06
1.77042e-06
2.43771e-06
3.4124e-06
4.39513e-06
5.12905e-06
5.0611e-06
4.18202e-06
3.7193e-06
3.68664e-06
4.06837e-06
4.70534e-06
4.63671e-06
4.01005e-06
3.12055e-06
2.18654e-06
1.51593e-06
1.29087e-06
1.38607e-06
1.83187e-06
2.507e-06
3.20113e-06
3.96202e-06
4.8475e-06
5.81512e-06
6.81928e-06
7.79029e-06
8.68704e-06
9.48003e-06
9.38671e-06
8.58361e-06
7.64658e-06
6.64363e-06
5.64209e-06
4.69059e-06
3.82054e-06
3.08498e-06
2.42593e-06
1.78172e-06
2.88821e-08
4.86307e-08
6.09106e-08
6.86052e-08
7.49282e-08
8.22656e-08
9.34411e-08
1.11549e-07
1.34512e-07
1.54028e-07
1.31469e-07
1.0675e-07
9.22348e-08
8.01546e-08
7.02454e-08
6.16841e-08
5.38471e-08
4.60917e-08
3.58832e-08
2.08278e-08
4.62833e-08
5.70595e-08
6.73614e-08
7.17982e-08
7.36037e-08
7.65863e-08
8.44949e-08
1.03058e-07
1.41537e-07
2.28769e-07
2.14315e-07
1.22743e-07
8.89753e-08
7.60103e-08
7.11849e-08
6.86098e-08
6.589e-08
6.09781e-08
5.11759e-08
3.86091e-08
5.5549e-08
9.10672e-08
1.04801e-07
1.03826e-07
9.70275e-08
9.02498e-08
8.77476e-08
9.85474e-08
1.56857e-07
4.51028e-07
4.50975e-07
1.44809e-07
8.99959e-08
8.28834e-08
8.75934e-08
9.52621e-08
1.01714e-07
1.01706e-07
8.86593e-08
5.66566e-08
1.00671e-07
1.15558e-07
1.28541e-07
1.30064e-07
1.22744e-07
1.11433e-07
1.0152e-07
1.05378e-07
1.87999e-07
7.57602e-07
7.90555e-07
1.85161e-07
1.02736e-07
1.02957e-07
1.15485e-07
1.26752e-07
1.31745e-07
1.27713e-07
1.15539e-07
1.09883e-07
2.25531e-07
1.64331e-07
1.47647e-07
1.41898e-07
1.35149e-07
1.25684e-07
1.16014e-07
1.1938e-07
2.32775e-07
1.13492e-06
1.19453e-06
2.38395e-07
1.21583e-07
1.19996e-07
1.29067e-07
1.37716e-07
1.44456e-07
1.51477e-07
1.69658e-07
2.30165e-07
4.95756e-07
2.97532e-07
2.03031e-07
1.67966e-07
1.50517e-07
1.37464e-07
1.27686e-07
1.34971e-07
2.87754e-07
1.55946e-06
1.60373e-06
2.89799e-07
1.37229e-07
1.32389e-07
1.42481e-07
1.5477e-07
1.70426e-07
2.02122e-07
2.93613e-07
4.94021e-07
7.96952e-07
4.85398e-07
2.95e-07
2.31325e-07
2.09655e-07
2.02936e-07
2.04835e-07
2.29196e-07
4.41826e-07
1.93849e-06
1.89145e-06
4.28662e-07
2.27314e-07
2.06901e-07
2.05447e-07
2.07306e-07
2.18656e-07
2.67234e-07
4.41763e-07
7.70626e-07
1.10387e-06
8.30778e-07
5.03377e-07
5.15388e-07
6.08324e-07
7.12238e-07
7.78061e-07
7.71907e-07
8.497e-07
2.05645e-06
1.97951e-06
8.04826e-07
7.22173e-07
7.21775e-07
6.58731e-07
5.56873e-07
4.58472e-07
4.32749e-07
7.47572e-07
1.05364e-06
1.46464e-06
1.42174e-06
1.78509e-06
2.56722e-06
3.62022e-06
4.57115e-06
5.0611e-06
4.7695e-06
4.47181e-06
5.91791e-06
5.97971e-06
4.34706e-06
4.52755e-06
4.60709e-06
4.0643e-06
3.19112e-06
2.21423e-06
1.45531e-06
1.26633e-06
1.38608e-06
1.90194e-06
2.64531e-06
3.42057e-06
4.2925e-06
5.32836e-06
6.49572e-06
7.79029e-06
9.24268e-06
1.09574e-05
1.29786e-05
1.28535e-05
1.08596e-05
9.12202e-06
7.62433e-06
6.30535e-06
5.13692e-06
4.11092e-06
3.26565e-06
2.53243e-06
1.82967e-06
2.79107e-08
4.56045e-08
5.82805e-08
6.9582e-08
8.08725e-08
9.33633e-08
1.09891e-07
1.34512e-07
1.63532e-07
1.78544e-07
1.52951e-07
1.30037e-07
1.08674e-07
8.90893e-08
7.50633e-08
6.43477e-08
5.49764e-08
4.57652e-08
3.49262e-08
2.04459e-08
4.80252e-08
4.88967e-08
5.87765e-08
6.70841e-08
7.4607e-08
8.34171e-08
1.00551e-07
1.41537e-07
2.61783e-07
1.16133e-06
1.15176e-06
2.23594e-07
1.18941e-07
8.40071e-08
7.06339e-08
6.38456e-08
5.80924e-08
5.1466e-08
4.2227e-08
3.77733e-08
5.90811e-08
6.20953e-08
7.53987e-08
8.27287e-08
8.55213e-08
8.79871e-08
9.89453e-08
1.56857e-07
5.92682e-07
4.41197e-06
4.43111e-06
5.50245e-07
1.3766e-07
8.61534e-08
7.89574e-08
7.91583e-08
7.89978e-08
7.43816e-08
6.18759e-08
5.0437e-08
7.13004e-08
8.99953e-08
1.03196e-07
1.0641e-07
1.04846e-07
1.02029e-07
1.07852e-07
1.87999e-07
1.05986e-06
8.0764e-06
8.31492e-06
1.05738e-06
1.76592e-07
1.00581e-07
9.83061e-08
1.03527e-07
1.06516e-07
1.03244e-07
8.89358e-08
7.52547e-08
2.074e-07
1.4183e-07
1.24269e-07
1.23002e-07
1.21757e-07
1.19077e-07
1.2448e-07
2.32775e-07
1.67046e-06
1.21007e-05
1.26197e-05
1.7875e-06
2.3182e-07
1.21453e-07
1.1762e-07
1.20539e-07
1.21465e-07
1.23301e-07
1.3798e-07
2.01677e-07
4.73114e-07
2.67326e-07
1.75161e-07
1.43157e-07
1.34076e-07
1.33681e-07
1.44528e-07
2.87754e-07
2.28753e-06
1.53562e-05
1.603e-05
2.41637e-06
2.92096e-07
1.41457e-07
1.32273e-07
1.33951e-07
1.4109e-07
1.67339e-07
2.57532e-07
4.64494e-07
7.69496e-07
4.3445e-07
2.62163e-07
2.10194e-07
2.02759e-07
2.11669e-07
2.40282e-07
4.41826e-07
2.73835e-06
1.66048e-05
1.73484e-05
2.88029e-06
4.44487e-07
2.38406e-07
2.06095e-07
1.89187e-07
1.86309e-07
2.27112e-07
3.90622e-07
7.35982e-07
1.07338e-06
7.66764e-07
4.55731e-07
4.83715e-07
5.81755e-07
6.69803e-07
7.18559e-07
8.497e-07
2.79391e-06
1.51598e-05
1.5773e-05
2.94953e-06
8.09767e-07
6.53334e-07
5.94733e-07
5.00884e-07
3.99691e-07
3.76712e-07
6.81627e-07
1.01474e-06
1.4352e-06
1.34529e-06
1.61736e-06
2.38964e-06
3.30343e-06
3.9406e-06
4.18202e-06
4.47181e-06
6.50649e-06
1.31287e-05
1.34259e-05
6.68977e-06
4.39505e-06
3.89786e-06
3.51873e-06
2.85473e-06
2.00727e-06
1.28962e-06
1.18373e-06
1.34554e-06
1.9106e-06
2.68686e-06
3.50667e-06
4.45298e-06
5.61356e-06
6.989e-06
8.68704e-06
1.09574e-05
1.41839e-05
1.84428e-05
1.82097e-05
1.41535e-05
1.08953e-05
8.56341e-06
6.82114e-06
5.42242e-06
4.25783e-06
3.32696e-06
2.55423e-06
1.82475e-06
2.69552e-08
4.34932e-08
5.63623e-08
6.91755e-08
8.30005e-08
9.87612e-08
1.21043e-07
1.54028e-07
1.78544e-07
1.95209e-07
1.6582e-07
1.4757e-07
1.29854e-07
9.96674e-08
7.8923e-08
6.50991e-08
5.39814e-08
4.42334e-08
3.37983e-08
2.02259e-08
5.00527e-08
4.82068e-08
5.78709e-08
6.84119e-08
8.02785e-08
9.4569e-08
1.28491e-07
2.28769e-07
1.16133e-06
1.60012e-06
1.51271e-06
1.05936e-06
1.97316e-07
1.04069e-07
7.33963e-08
6.13672e-08
5.2589e-08
4.50663e-08
3.71729e-08
3.65414e-08
6.3874e-08
5.60697e-08
6.52294e-08
7.61772e-08
8.71059e-08
9.91969e-08
1.41978e-07
4.51028e-07
4.41197e-06
3.57375e-06
3.40479e-06
4.2675e-06
3.97551e-07
1.12165e-07
7.77764e-08
7.02697e-08
6.479e-08
5.81189e-08
4.89127e-08
4.8695e-08
7.77048e-08
7.57381e-08
8.20309e-08
9.0242e-08
9.89193e-08
1.10511e-07
1.67688e-07
7.57602e-07
8.0764e-06
6.16606e-06
5.8774e-06
8.1168e-06
7.07419e-07
1.38852e-07
9.22618e-08
8.70216e-08
8.42874e-08
8.04893e-08
7.20324e-08
5.70232e-08
2.06181e-07
1.31389e-07
1.07612e-07
1.0808e-07
1.16885e-07
1.3229e-07
2.08065e-07
1.13492e-06
1.21007e-05
9.36359e-06
8.90968e-06
1.25675e-05
1.13764e-06
1.80652e-07
1.14456e-07
1.06137e-07
1.01779e-07
1.02612e-07
1.21012e-07
1.84698e-07
4.57737e-07
2.55387e-07
1.61487e-07
1.28515e-07
1.36597e-07
1.63225e-07
2.67725e-07
1.55946e-06
1.53562e-05
1.28591e-05
1.22158e-05
1.62655e-05
1.62558e-06
2.35335e-07
1.37467e-07
1.19287e-07
1.17379e-07
1.44549e-07
2.36951e-07
4.40083e-07
7.35402e-07
4.03858e-07
2.44155e-07
2.01946e-07
2.14183e-07
2.63897e-07
4.21787e-07
1.93849e-06
1.66048e-05
1.59733e-05
1.5181e-05
1.79986e-05
2.02521e-06
3.75673e-07
2.22149e-07
1.76194e-07
1.60771e-07
2.04224e-07
3.63665e-07
7.00936e-07
1.01996e-06
6.85823e-07
3.96186e-07
4.2503e-07
5.24436e-07
6.19599e-07
7.66018e-07
2.05645e-06
1.51598e-05
1.76163e-05
1.67245e-05
1.69157e-05
2.16764e-06
6.45807e-07
5.00076e-07
4.16586e-07
3.35635e-07
3.3161e-07
6.20286e-07
9.67036e-07
1.3588e-06
1.19411e-06
1.33371e-06
1.97835e-06
2.64278e-06
3.09922e-06
3.7193e-06
5.91791e-06
1.31287e-05
1.78138e-05
1.70407e-05
1.41971e-05
6.14069e-06
3.57841e-06
2.87894e-06
2.377e-06
1.70818e-06
1.09341e-06
1.07062e-06
1.28136e-06
1.84756e-06
2.61246e-06
3.4217e-06
4.39984e-06
5.64883e-06
7.24333e-06
9.48003e-06
1.29786e-05
1.84428e-05
2.28229e-05
2.17961e-05
1.86175e-05
1.30555e-05
9.42909e-06
7.13747e-06
5.50639e-06
4.2339e-06
3.256e-06
2.48902e-06
1.76787e-06
2.54304e-08
4.00454e-08
5.19661e-08
6.34273e-08
7.52414e-08
8.8204e-08
1.05959e-07
1.31469e-07
1.52951e-07
1.6582e-07
1.53865e-07
1.40379e-07
1.24393e-07
9.55337e-08
7.49721e-08
6.14983e-08
5.11268e-08
4.2217e-08
3.27718e-08
2.04707e-08
4.85212e-08
4.68311e-08
5.63254e-08
6.6055e-08
7.65994e-08
8.96012e-08
1.21926e-07
2.14315e-07
1.15176e-06
1.51271e-06
1.52288e-06
1.19229e-06
2.1691e-07
1.0913e-07
7.14338e-08
5.74455e-08
4.81636e-08
4.10058e-08
3.41903e-08
3.49497e-08
6.25603e-08
5.4212e-08
6.27178e-08
7.2797e-08
8.33824e-08
9.57269e-08
1.40004e-07
4.50975e-07
4.43111e-06
3.40479e-06
3.42439e-06
4.77449e-06
4.68852e-07
1.22005e-07
7.56976e-08
6.42568e-08
5.64936e-08
4.9423e-08
4.26122e-08
4.73793e-08
8.57233e-08
7.59285e-08
8.03992e-08
8.7468e-08
9.60866e-08
1.08695e-07
1.6974e-07
7.90555e-07
8.31492e-06
5.8774e-06
5.79609e-06
9.1311e-06
8.67625e-07
1.57196e-07
9.08502e-08
8.01082e-08
7.28862e-08
6.70586e-08
6.29574e-08
5.8352e-08
2.174e-07
1.36656e-07
1.09109e-07
1.07482e-07
1.16587e-07
1.32559e-07
2.11344e-07
1.19452e-06
1.26197e-05
8.90968e-06
8.56356e-06
1.40481e-05
1.42408e-06
2.07373e-07
1.17027e-07
1.03966e-07
9.55667e-08
9.68425e-08
1.20374e-07
1.80127e-07
4.683e-07
2.59529e-07
1.61379e-07
1.27532e-07
1.35953e-07
1.62114e-07
2.64227e-07
1.60373e-06
1.603e-05
1.22158e-05
1.14841e-05
1.81413e-05
1.85622e-06
2.49857e-07
1.35761e-07
1.14639e-07
1.11417e-07
1.40217e-07
2.32904e-07
4.33467e-07
7.39568e-07
4.01638e-07
2.42874e-07
2.01896e-07
2.16337e-07
2.64228e-07
4.06927e-07
1.89145e-06
1.73484e-05
1.5181e-05
1.40567e-05
2.00703e-05
2.07729e-06
3.19731e-07
1.90254e-07
1.58027e-07
1.52604e-07
1.99444e-07
3.57949e-07
6.90363e-07
1.0199e-06
6.73441e-07
3.89696e-07
4.21965e-07
5.19724e-07
6.07334e-07
7.32584e-07
1.97951e-06
1.5773e-05
1.67245e-05
1.53661e-05
1.85764e-05
2.08484e-06
5.85674e-07
4.68492e-07
3.9811e-07
3.28863e-07
3.28178e-07
6.11065e-07
9.53774e-07
1.3556e-06
1.17313e-06
1.31168e-06
1.95093e-06
2.60928e-06
3.07465e-06
3.68664e-06
5.97971e-06
1.34259e-05
1.70407e-05
1.58055e-05
1.50534e-05
6.38004e-06
3.64639e-06
2.94043e-06
2.38983e-06
1.70368e-06
1.09033e-06
1.05349e-06
1.26441e-06
1.84091e-06
2.59206e-06
3.38608e-06
4.35707e-06
5.59635e-06
7.17682e-06
9.38671e-06
1.28535e-05
1.82097e-05
2.17961e-05
2.0394e-05
1.85782e-05
1.30486e-05
9.40999e-06
7.1176e-06
5.47148e-06
4.18795e-06
3.20519e-06
2.44839e-06
1.7401e-06
2.42661e-08
3.7571e-08
4.82871e-08
5.75461e-08
6.63789e-08
7.59597e-08
8.84102e-08
1.0675e-07
1.30037e-07
1.4757e-07
1.40379e-07
1.18769e-07
9.57891e-08
7.71528e-08
6.5311e-08
5.64275e-08
4.8797e-08
4.13646e-08
3.27539e-08
2.12592e-08
4.53915e-08
4.57052e-08
5.47771e-08
6.18866e-08
6.76725e-08
7.45632e-08
8.83709e-08
1.22743e-07
2.23594e-07
1.05936e-06
1.19229e-06
2.31931e-07
1.20072e-07
7.71466e-08
6.04982e-08
5.19527e-08
4.5674e-08
3.98972e-08
3.32635e-08
3.34087e-08
5.96942e-08
5.84263e-08
6.91385e-08
7.52793e-08
7.79833e-08
8.07913e-08
9.13093e-08
1.44809e-07
5.50245e-07
4.2675e-06
4.77449e-06
6.01335e-07
1.46003e-07
8.12557e-08
6.64504e-08
6.16573e-08
5.75034e-08
5.13365e-08
4.23746e-08
4.46516e-08
9.59356e-08
9.6763e-08
1.05036e-07
1.06085e-07
1.02403e-07
9.8417e-08
1.04119e-07
1.8516e-07
1.05738e-06
8.1168e-06
9.1311e-06
1.28544e-06
2.02408e-07
9.81794e-08
8.81169e-08
9.08679e-08
9.39488e-08
9.12757e-08
7.63671e-08
5.9123e-08
2.31302e-07
1.5426e-07
1.31859e-07
1.26576e-07
1.23598e-07
1.20014e-07
1.24748e-07
2.38394e-07
1.7875e-06
1.25675e-05
1.40481e-05
2.20692e-06
2.75596e-07
1.25799e-07
1.17888e-07
1.18224e-07
1.15838e-07
1.13917e-07
1.28056e-07
1.827e-07
5.00335e-07
2.78765e-07
1.77842e-07
1.44241e-07
1.33553e-07
1.31051e-07
1.40783e-07
2.89799e-07
2.41637e-06
1.62655e-05
1.81413e-05
2.95606e-06
3.24502e-07
1.31998e-07
1.18382e-07
1.17577e-07
1.23275e-07
1.51317e-07
2.45013e-07
4.53125e-07
7.88882e-07
4.36982e-07
2.60456e-07
2.07163e-07
1.99128e-07
2.07659e-07
2.33516e-07
4.28662e-07
2.88029e-06
1.79986e-05
2.00703e-05
3.42306e-06
3.99826e-07
1.76887e-07
1.54612e-07
1.49993e-07
1.60434e-07
2.12178e-07
3.80154e-07
7.25825e-07
1.09165e-06
7.61002e-07
4.39213e-07
4.7076e-07
5.59594e-07
6.37114e-07
6.78783e-07
8.04826e-07
2.94952e-06
1.69157e-05
1.85764e-05
3.37266e-06
7.1938e-07
5.54971e-07
4.91769e-07
4.15649e-07
3.53238e-07
3.56618e-07
6.7404e-07
1.00651e-06
1.45432e-06
1.3289e-06
1.55259e-06
2.27206e-06
3.10692e-06
3.75989e-06
4.06837e-06
4.34706e-06
6.68977e-06
1.41971e-05
1.50534e-05
7.07599e-06
4.3961e-06
4.08589e-06
3.52662e-06
2.70576e-06
1.88646e-06
1.23783e-06
1.16997e-06
1.33526e-06
1.9198e-06
2.67539e-06
3.46733e-06
4.38971e-06
5.52487e-06
6.88753e-06
8.58361e-06
1.08596e-05
1.41535e-05
1.86175e-05
1.85782e-05
1.42538e-05
1.09058e-05
8.56815e-06
6.77584e-06
5.3272e-06
4.14986e-06
3.23203e-06
2.49033e-06
1.79092e-06
2.46223e-08
3.84544e-08
4.92465e-08
5.74573e-08
6.4604e-08
7.17276e-08
8.02496e-08
9.22348e-08
1.08674e-07
1.29854e-07
1.24393e-07
9.57891e-08
7.79405e-08
6.66494e-08
5.93833e-08
5.40186e-08
4.87175e-08
4.25175e-08
3.4208e-08
2.25882e-08
4.50475e-08
5.10832e-08
6.03952e-08
6.47819e-08
6.70996e-08
6.98556e-08
7.56505e-08
8.89753e-08
1.18941e-07
1.97316e-07
2.1691e-07
1.20072e-07
7.88202e-08
6.19672e-08
5.53831e-08
5.1895e-08
4.89199e-08
4.45186e-08
3.65554e-08
3.3663e-08
6.50728e-08
9.41528e-08
1.0226e-07
9.70987e-08
8.98238e-08
8.41084e-08
8.18761e-08
8.99959e-08
1.3766e-07
3.97551e-07
4.68852e-07
1.46003e-07
8.19832e-08
6.90372e-08
6.89734e-08
7.14195e-08
7.38188e-08
7.43309e-08
5.99676e-08
4.40076e-08
1.16537e-07
1.25033e-07
1.35809e-07
1.37634e-07
1.29011e-07
1.14586e-07
1.01855e-07
1.02736e-07
1.76592e-07