/*--------------------------------*- C++ -*----------------------------------*\
  =========                 |
  \\      /  F ield         | OpenFOAM: The Open Source CFD Toolbox
   \\    /   O peration     | Website:  https://openfoam.org
    \\  /    A nd           | Version:  9
     \\/     M anipulation  |
\*---------------------------------------------------------------------------*/
FoamFile
{
    format      ascii;
    class       volScalarField;
    location    "1000";
    object      k;
}
// * * * * * * * * * * * * * * * * * * * * * * * * * * * * * * * * * * * * * //

dimensions      [0 2 -2 0 0 0 0];

internalField   nonuniform List<scalar> 
4000
(
2.41864e-05
1.70188e-05
1.22018e-05
9.89266e-06
8.7439e-06
7.94648e-06
7.26623e-06
6.85297e-06
6.69579e-06
6.53959e-06
6.28923e-06
6.09306e-06
6.15022e-06
6.50146e-06
7.32714e-06
7.91858e-06
8.60172e-06
9.72572e-06
1.33246e-05
1.91827e-05
3.25612e-05
2.61519e-05
2.19508e-05
1.92196e-05
1.47127e-05
1.06656e-05
9.91915e-06
9.39946e-06
9.63011e-06
9.89661e-06
9.68795e-06
9.26104e-06
9.20901e-06
9.36946e-06
9.90146e-06
1.72281e-05
2.18602e-05
2.572e-05
3.0423e-05
3.31576e-05
4.48865e-05
3.95101e-05
3.43597e-05
2.96517e-05
2.48974e-05
2.02959e-05
1.50645e-05
1.06114e-05
1.10472e-05
1.16314e-05
1.14636e-05
1.10957e-05
1.17491e-05
1.69568e-05
2.16405e-05
2.64094e-05
3.29294e-05
4.03366e-05
4.50487e-05
4.76557e-05
4.9541e-05
4.68483e-05
4.22013e-05
3.62937e-05
3.0144e-05
2.48321e-05
2.00664e-05
1.58e-05
1.25126e-05
1.32055e-05
1.40727e-05
1.51494e-05
1.72899e-05
2.08921e-05
2.56381e-05
3.15683e-05
3.8621e-05
4.50544e-05
4.98772e-05
5.17628e-05
5.21222e-05
5.0895e-05
4.71079e-05
4.1984e-05
3.66179e-05
3.21289e-05
2.9288e-05
2.70331e-05
2.54857e-05
2.53051e-05
2.61373e-05
2.72133e-05
2.89159e-05
3.18701e-05
3.62124e-05
4.06544e-05
4.57434e-05
5.06432e-05
5.37908e-05
5.41174e-05
5.38726e-05
5.45538e-05
5.33303e-05
5.14306e-05
4.96542e-05
4.8252e-05
4.7059e-05
4.56911e-05
4.42631e-05
4.32638e-05
4.38706e-05
4.58384e-05
4.78589e-05
4.99189e-05
5.19155e-05
5.37377e-05
5.54165e-05
5.68811e-05
5.73647e-05
5.57862e-05
5.54178e-05
5.82474e-05
6.00882e-05
6.14244e-05
6.25441e-05
6.32551e-05
6.33558e-05
6.26921e-05
6.12289e-05
5.93918e-05
5.95684e-05
6.21777e-05
6.41739e-05
6.54716e-05
6.60384e-05
6.57832e-05
6.48439e-05
6.33797e-05
6.10226e-05
5.7346e-05
5.71565e-05
6.22394e-05
6.68493e-05
7.07432e-05
7.40234e-05
7.64487e-05
7.78271e-05
7.79015e-05
7.64505e-05
7.38871e-05
7.38436e-05
7.72543e-05
7.91544e-05
7.95833e-05
7.8735e-05
7.67416e-05
7.3736e-05
6.98742e-05
6.49346e-05
5.91062e-05
5.9457e-05
6.71875e-05
7.43949e-05
8.05988e-05
8.59244e-05
9.01305e-05
9.3012e-05
9.40884e-05
9.28116e-05
8.94857e-05
8.93024e-05
9.3564e-05
9.51694e-05
9.45597e-05
9.22665e-05
8.84991e-05
8.34427e-05
7.73082e-05
6.98609e-05
6.14337e-05
6.285e-05
7.34378e-05
8.32935e-05
9.1559e-05
9.86858e-05
0.000104664
0.00010926
0.000112026
0.000112359
0.000109874
0.000109566
0.00011265
0.000112414
0.000109883
0.000105707
0.000100218
9.35408e-05
8.55994e-05
7.5819e-05
6.48289e-05
1.70188e-05
1.48824e-05
1.30139e-05
1.22175e-05
1.22546e-05
1.17159e-05
1.05257e-05
9.70003e-06
9.28153e-06
8.98264e-06
8.49134e-06
8.13395e-06
8.26714e-06
8.97595e-06
1.10543e-05
1.11489e-05
1.12737e-05
1.1371e-05
1.23901e-05
1.37749e-05
2.61519e-05
2.65727e-05
2.70593e-05
2.99456e-05
3.00541e-05
2.29076e-05
1.80107e-05
1.63541e-05
1.57477e-05
1.59358e-05
1.51763e-05
1.4085e-05
1.42833e-05
1.58427e-05
2.15596e-05
3.07555e-05
3.23054e-05
3.27983e-05
3.46377e-05
2.91509e-05
3.95101e-05
4.95374e-05
4.38146e-05
3.81759e-05
3.41921e-05
3.01833e-05
2.51742e-05
2.06192e-05
1.7485e-05
1.7045e-05
1.60802e-05
1.57166e-05
1.99221e-05
2.6387e-05
3.05191e-05
3.47648e-05
4.16842e-05
5.05926e-05
5.52391e-05
4.45126e-05
4.68483e-05
5.73785e-05
5.39224e-05
4.5102e-05
3.70811e-05
3.08647e-05
2.56607e-05
2.19536e-05
1.98993e-05
1.87614e-05
1.80912e-05
1.94888e-05
2.22514e-05
2.61628e-05
3.14561e-05
3.82566e-05
4.72754e-05
5.46148e-05
5.6038e-05
4.91978e-05
5.0895e-05
5.69608e-05
5.53458e-05
4.9485e-05
4.10374e-05
3.44143e-05
2.94438e-05
2.55821e-05
2.31129e-05
2.20375e-05
2.23137e-05
2.39716e-05
2.69673e-05
3.12139e-05
3.71235e-05
4.48528e-05
5.36241e-05
5.90663e-05
5.91391e-05
5.29919e-05
5.45538e-05
6.03725e-05
6.10138e-05
5.82102e-05
5.30759e-05
4.60798e-05
4.09384e-05
3.66414e-05
3.36617e-05
3.2538e-05
3.2901e-05
3.4689e-05
3.8055e-05
4.29035e-05
4.94485e-05
5.75118e-05
6.26662e-05
6.50808e-05
6.32857e-05
5.64893e-05
5.82474e-05
6.45643e-05
6.70831e-05
6.80863e-05
6.83692e-05
6.56972e-05
5.98102e-05
5.3989e-05
4.92471e-05
4.65758e-05
4.66315e-05
5.0131e-05
5.55331e-05
6.22738e-05
6.88004e-05
7.177e-05
7.2043e-05
7.11646e-05
6.78247e-05
6.01601e-05
6.22394e-05
7.01163e-05
7.44312e-05
7.8655e-05
8.41068e-05
8.76293e-05
8.82101e-05
8.59746e-05
8.112e-05
7.4791e-05
7.4569e-05
8.14795e-05
8.69202e-05
8.97528e-05
9.02239e-05
8.73678e-05
8.2602e-05
7.86218e-05
7.34984e-05
6.41378e-05
6.71875e-05
7.89222e-05
8.76444e-05
9.56242e-05
0.000103484
0.000109696
0.000113969
0.00011471
0.000109906
0.000100493
9.99956e-05
0.000110315
0.000115742
0.000116283
0.000113528
0.000107955
0.000100242
9.18303e-05
8.20525e-05
6.91159e-05
7.34378e-05
8.60168e-05
9.81086e-05
0.000108829
0.000118657
0.000127462
0.000134751
0.000139652
0.000141093
0.000138469
0.000137704
0.000140611
0.000139263
0.000134697
0.000128005
0.000119847
0.000110567
0.000100231
8.82475e-05
7.53068e-05
1.22018e-05
1.30139e-05
1.29366e-05
1.31654e-05
1.35711e-05
1.30031e-05
1.19751e-05
1.12728e-05
1.09276e-05
1.06688e-05
1.00956e-05
9.60938e-06
9.74478e-06
1.04926e-05
1.24741e-05
1.28491e-05
1.24058e-05
1.1819e-05
1.11474e-05
9.96254e-06
2.19508e-05
2.70593e-05
3.11619e-05
3.52267e-05
3.38853e-05
2.59576e-05
2.1266e-05
1.96434e-05
1.91646e-05
1.95523e-05
1.87575e-05
1.73749e-05
1.7478e-05
1.92995e-05
2.37988e-05
3.36269e-05
3.60621e-05
3.46991e-05
3.21057e-05
2.42187e-05
3.43597e-05
4.38146e-05
4.24805e-05
4.02167e-05
3.76629e-05
3.40509e-05
2.94018e-05
2.46577e-05
2.15464e-05
2.07168e-05
1.96808e-05
1.93738e-05
2.33622e-05
3.0556e-05
3.47992e-05
3.74476e-05
4.22356e-05
4.74927e-05
5.00146e-05
3.9578e-05
4.22013e-05
5.39224e-05
5.21118e-05
4.55939e-05
3.93787e-05
3.40207e-05
2.94486e-05
2.62814e-05
2.41343e-05
2.19102e-05
2.11157e-05
2.33016e-05
2.62344e-05
2.96504e-05
3.42488e-05
3.99311e-05
4.71422e-05
5.36068e-05
5.3358e-05
4.39246e-05
4.71079e-05
5.53458e-05
5.46004e-05
4.9019e-05
4.16904e-05
3.55472e-05
3.06718e-05
2.69427e-05
2.45872e-05
2.329e-05
2.30537e-05
2.47059e-05
2.74336e-05
3.13822e-05
3.68579e-05
4.39512e-05
5.22513e-05
5.74788e-05
5.74981e-05
4.90303e-05
5.33303e-05
6.10138e-05
6.03084e-05
5.56569e-05
4.85871e-05
4.16068e-05
3.61302e-05
3.16241e-05
2.835e-05
2.68706e-05
2.68455e-05
2.85491e-05
3.21071e-05
3.70653e-05
4.36616e-05
5.16529e-05
5.89676e-05
6.34437e-05
6.34905e-05
5.51416e-05
6.00882e-05
6.70831e-05
6.71509e-05
6.34697e-05
5.80173e-05
5.23486e-05
4.68197e-05
4.20848e-05
3.84633e-05
3.66858e-05
3.67983e-05
3.87576e-05
4.25619e-05
4.79455e-05
5.43779e-05
6.08477e-05
6.67961e-05
7.04413e-05
6.95994e-05
6.17778e-05
6.68493e-05
7.44312e-05
7.79635e-05
7.76998e-05
7.44956e-05
7.19375e-05
6.97806e-05
6.69863e-05
6.24994e-05
5.67526e-05
5.6439e-05
6.15237e-05
6.63565e-05
7.025e-05
7.38475e-05
7.77398e-05
8.1412e-05
8.15437e-05
7.68709e-05
6.84146e-05
7.43949e-05
8.76444e-05
0.000104301
0.000121148
0.000136503
0.000146656
0.00015421
0.000156152
0.000146546
0.000127453
0.000125972
0.000142454
0.00015273
0.000153992
0.000149792
0.000140831
0.000125947
0.000108134
9.00198e-05
7.59325e-05
8.32935e-05
9.81086e-05
0.000112208
0.000125052
0.000137272
0.0001487
0.000158649
0.000165802
0.000168545
0.000165797
0.000164607
0.000167198
0.000164433
0.000157646
0.000148439
0.00013775
0.000126079
0.000113637
9.9737e-05
8.4742e-05
9.89266e-06
1.22175e-05
1.31654e-05
1.37556e-05
1.37554e-05
1.3154e-05
1.24717e-05
1.22113e-05
1.23059e-05
1.22319e-05
1.1528e-05
1.08013e-05
1.08075e-05
1.13537e-05
1.26109e-05
1.37349e-05
1.28531e-05
1.17793e-05
1.04118e-05
8.12994e-06
1.92196e-05
2.99456e-05
3.52267e-05
3.67093e-05
3.19149e-05
2.53708e-05
2.24064e-05
2.14686e-05
2.18369e-05
2.28658e-05
2.19863e-05
1.99814e-05
1.95008e-05
2.10349e-05
2.35432e-05
2.98065e-05
3.53192e-05
3.54194e-05
3.12652e-05
2.07222e-05
2.96517e-05
3.81759e-05
4.02167e-05
4.01703e-05
3.81435e-05
3.46776e-05
3.02661e-05
2.60038e-05
2.42601e-05
2.44125e-05
2.33597e-05
2.20982e-05
2.42945e-05
3.10644e-05
3.61255e-05
3.76573e-05
4.0071e-05
4.2093e-05
4.1299e-05
3.28106e-05
3.62937e-05
4.5102e-05
4.55939e-05
4.26446e-05
3.87742e-05
3.47316e-05
3.10868e-05
2.83018e-05
2.64008e-05
2.53824e-05
2.45881e-05
2.54491e-05
2.84975e-05
3.14511e-05
3.48506e-05
3.8731e-05
4.31435e-05
4.64413e-05
4.5433e-05
3.73896e-05
4.1984e-05
4.9485e-05
4.9019e-05
4.52997e-05
4.03342e-05
3.56117e-05
3.15827e-05
2.86023e-05
2.70923e-05
2.64402e-05
2.6084e-05
2.67318e-05
2.85094e-05
3.16497e-05
3.60507e-05
4.13482e-05
4.69583e-05
5.07861e-05
5.08874e-05
4.33438e-05
5.14306e-05
5.82102e-05
5.56569e-05
5.0926e-05
4.51049e-05
3.94717e-05
3.47291e-05
3.08216e-05
2.7926e-05
2.69474e-05
2.67645e-05
2.77265e-05
3.07433e-05
3.50152e-05
4.05016e-05
4.67663e-05
5.26703e-05
5.71892e-05
5.97512e-05
5.29562e-05
6.14244e-05
6.80863e-05
6.34697e-05
5.79157e-05
5.24463e-05
4.72858e-05
4.27953e-05
3.91919e-05
3.67846e-05
3.63964e-05
3.66194e-05
3.66402e-05
3.91218e-05
4.33177e-05
4.86163e-05
5.43164e-05
5.97082e-05
6.48417e-05
6.95361e-05
6.26769e-05
7.07432e-05
7.8655e-05
7.76998e-05
7.3723e-05
7.21253e-05
7.13202e-05
7.10976e-05
7.03905e-05
6.72197e-05
6.20447e-05
6.19602e-05
6.63579e-05
6.98699e-05
7.19191e-05
7.34923e-05
7.49569e-05
7.59187e-05
7.9017e-05
8.00942e-05
7.17283e-05
8.05988e-05
9.56242e-05
0.000121148
0.000147775
0.00016535
0.00018302
0.000198157
0.000203804
0.000192151
0.000167083
0.000165386
0.000185172
0.000195713
0.000193588
0.000183144
0.000168011
0.00015018
0.000123103
9.6555e-05
8.14524e-05
9.1559e-05
0.000108829
0.000125052
0.000140133
0.000155091
0.000169733
0.000182932
0.00019295
0.000197702
0.000196112
0.000194815
0.000195753
0.000190579
0.000180865
0.000168435
0.000154564
0.000140039
0.000125379
0.000109504
9.2309e-05
8.7439e-06
1.22546e-05
1.35711e-05
1.37554e-05
1.32879e-05
1.28153e-05
1.25774e-05
1.29695e-05
1.36155e-05
1.38242e-05
1.29274e-05
1.18912e-05
1.16976e-05
1.18887e-05
1.22396e-05
1.30136e-05
1.28994e-05
1.18208e-05
1.01279e-05
7.21691e-06
1.47127e-05
3.00541e-05
3.38853e-05
3.19149e-05
2.72047e-05
2.39578e-05
2.26383e-05
2.26862e-05
2.42378e-05
2.62034e-05
2.51577e-05
2.21386e-05
2.09265e-05
2.17769e-05
2.30755e-05
2.51768e-05
2.93604e-05
3.19118e-05
2.90991e-05
1.67684e-05
2.48974e-05
3.41921e-05
3.76629e-05
3.81435e-05
3.63012e-05
3.29695e-05
2.90717e-05
2.61027e-05
2.5996e-05
2.78751e-05
2.68985e-05
2.3945e-05
2.44446e-05
2.90429e-05
3.44673e-05
3.67309e-05
3.71805e-05
3.70735e-05
3.44827e-05
2.64973e-05
3.0144e-05
3.70811e-05
3.93787e-05
3.87742e-05
3.66387e-05
3.38491e-05
3.10157e-05
2.86253e-05
2.76198e-05
2.86057e-05
2.79214e-05
2.65351e-05
2.89108e-05
3.18415e-05
3.4189e-05
3.64983e-05
3.8495e-05
3.92432e-05
3.69094e-05
3.05387e-05
3.66179e-05
4.10374e-05
4.16904e-05
4.03342e-05
3.76237e-05
3.44495e-05
3.14772e-05
2.93841e-05
2.88625e-05
3.01396e-05
2.99343e-05
2.84319e-05
2.91133e-05
3.12921e-05
3.44728e-05
3.78914e-05
4.08544e-05
4.2328e-05
4.19429e-05
3.7603e-05
4.96542e-05
5.30759e-05
4.85871e-05
4.51049e-05
4.13301e-05
3.7387e-05
3.37499e-05
3.08548e-05
2.94464e-05
3.15737e-05
3.14209e-05
2.888e-05
3.04114e-05
3.36299e-05
3.772e-05
4.19757e-05
4.57185e-05
4.9054e-05
5.38168e-05
5.08461e-05
6.25441e-05
6.83692e-05
5.80173e-05
5.24463e-05
4.84279e-05
4.47543e-05
4.15098e-05
3.92094e-05
3.87756e-05
4.15596e-05
4.19447e-05
3.83419e-05
3.88103e-05
4.1661e-05
4.54233e-05
4.92235e-05
5.2788e-05
5.77553e-05
6.83674e-05
6.32025e-05
7.40234e-05
8.41068e-05
7.44956e-05
7.21253e-05
7.3671e-05
7.55904e-05
7.75552e-05
7.84153e-05
7.58658e-05
7.17381e-05
7.15231e-05
7.42791e-05
7.69493e-05
7.75278e-05
7.67584e-05
7.49929e-05
7.24807e-05
7.29328e-05
8.42077e-05
7.42365e-05
8.59244e-05
0.000103484
0.000136503
0.00016535
0.000197096
0.000226937
0.000249297
0.000257294
0.000238137
0.000200914
0.000199036
0.000227506
0.000243159
0.000238574
0.0002208
0.000194286
0.000162486
0.000134784
0.000102423
8.58551e-05
9.86858e-05
0.000118657
0.000137272
0.000155091
0.000173804
0.000192312
0.000209297
0.000222897
0.000230754
0.000231712
0.000230258
0.000228269
0.000219635
0.000206067
0.000189659
0.000171849
0.000153557
0.000136205
0.000118158
9.8561e-05
7.94648e-06
1.17159e-05
1.30031e-05
1.3154e-05
1.28153e-05
1.24829e-05
1.2802e-05
1.38174e-05
1.49979e-05
1.55405e-05
1.43912e-05
1.30287e-05
1.25598e-05
1.23536e-05
1.20346e-05
1.18619e-05
1.17226e-05
1.1193e-05
9.81213e-06
6.54605e-06
1.06656e-05
2.29076e-05
2.59576e-05
2.53708e-05
2.39578e-05
2.29783e-05
2.2829e-05
2.39693e-05
2.65056e-05
2.92089e-05
2.80375e-05
2.42257e-05
2.22975e-05
2.2294e-05
2.27083e-05
2.2947e-05
2.31809e-05
2.35546e-05
2.12781e-05
9.77843e-06
2.02959e-05
3.01833e-05
3.40509e-05
3.46776e-05
3.29695e-05
3.00629e-05
2.72289e-05
2.59449e-05
2.72873e-05
3.04512e-05
2.95983e-05
2.5462e-05
2.45545e-05
2.68174e-05
3.0582e-05
3.35657e-05
3.41447e-05
3.2848e-05
2.91644e-05
2.09878e-05
2.48321e-05
3.08647e-05
3.40207e-05
3.47316e-05
3.38491e-05
3.2023e-05
2.97706e-05
2.80068e-05
2.82541e-05
3.12092e-05
3.07413e-05
2.71664e-05
2.80574e-05
3.08755e-05
3.28666e-05
3.39981e-05
3.43968e-05
3.3527e-05
3.0478e-05
2.49948e-05
3.21289e-05
3.44143e-05
3.55472e-05
3.56117e-05
3.44495e-05
3.25307e-05
3.05177e-05
2.92687e-05
2.9888e-05
3.36834e-05
3.35918e-05
2.95079e-05
2.91827e-05
3.0474e-05
3.25288e-05
3.45274e-05
3.57735e-05
3.58527e-05
3.51521e-05
3.31498e-05
4.8252e-05
4.60798e-05
4.16068e-05
3.94717e-05
3.7387e-05
3.48854e-05
3.23663e-05
3.05913e-05
3.13006e-05
3.72772e-05
3.70244e-05
3.04775e-05
3.01373e-05
3.21957e-05
3.50093e-05
3.76532e-05
3.96522e-05
4.1621e-05
4.63234e-05
4.90352e-05
6.32551e-05
6.56972e-05
5.23486e-05
4.72858e-05
4.47543e-05
4.2583e-05
4.06414e-05
3.97876e-05
4.16917e-05
4.9841e-05
4.98418e-05
4.11106e-05
3.92509e-05
4.0709e-05
4.29639e-05
4.499e-05
4.6868e-05
5.10817e-05
6.41552e-05
6.32188e-05
7.64487e-05
8.76293e-05
7.19375e-05
7.13202e-05
7.55904e-05
8.03822e-05
8.44697e-05
8.58679e-05
8.24425e-05
7.97721e-05
7.89044e-05
8.00883e-05
8.31913e-05
8.30542e-05
8.01452e-05
7.55314e-05
7.04855e-05
6.97235e-05
8.59891e-05
7.57671e-05
9.01305e-05
0.000109696
0.000146656
0.00018302
0.000226937
0.000266913
0.000295097
0.000298872
0.0002634
0.000216328
0.000214955
0.000254072
0.000280321
0.000277141
0.000253626
0.000218111
0.000175102
0.000139492
0.000106077
8.89635e-05
0.000104664
0.000127462
0.0001487
0.000169733
0.000192312
0.000214958
0.000236305
0.000254375
0.000267066
0.000273504
0.00027181
0.000264457
0.000250623
0.000232099
0.000211014
0.000188889
0.000166665
0.000146153
0.00012571
0.000103588
7.26623e-06
1.05257e-05
1.19751e-05
1.24717e-05
1.25774e-05
1.2802e-05
1.36467e-05
1.50541e-05
1.67379e-05
1.7818e-05
1.62854e-05
1.44434e-05
1.35596e-05
1.28873e-05
1.21311e-05
1.13256e-05
1.06008e-05
9.78235e-06
8.40399e-06
5.81915e-06
9.91915e-06
1.80107e-05
2.1266e-05
2.24064e-05
2.26383e-05
2.2829e-05
2.38392e-05
2.60673e-05
2.96667e-05
3.36948e-05
3.23785e-05
2.70361e-05
2.41298e-05
2.3065e-05
2.25359e-05
2.19415e-05
2.09995e-05
1.92907e-05
1.60156e-05
8.85724e-06
1.50645e-05
2.51742e-05
2.94018e-05
3.02661e-05
2.90717e-05
2.72289e-05
2.60042e-05
2.63665e-05
2.92241e-05
3.46094e-05
3.38891e-05
2.74334e-05
2.507e-05
2.55365e-05
2.71296e-05
2.88993e-05
2.96168e-05
2.82176e-05
2.41053e-05
1.56989e-05
2.00664e-05
2.56607e-05
2.94486e-05
3.10868e-05
3.10157e-05
2.97706e-05
2.81152e-05
2.73418e-05
2.93581e-05
3.6211e-05
3.60167e-05
2.83331e-05
2.70885e-05
2.89113e-05
3.0797e-05
3.15337e-05
3.10265e-05
2.9093e-05
2.54607e-05
2.06246e-05
2.9288e-05
2.94438e-05
3.06718e-05
3.15827e-05
3.14772e-05
3.05177e-05
2.92863e-05
2.88019e-05
3.10824e-05
4.01171e-05
4.01168e-05
3.07179e-05
2.89323e-05
2.9596e-05
3.07445e-05
3.16758e-05
3.18511e-05
3.11317e-05
3.02757e-05
3.01134e-05
4.7059e-05
4.09384e-05
3.61302e-05
3.47291e-05
3.37499e-05
3.23663e-05
3.08723e-05
3.0248e-05
3.35013e-05
4.64593e-05
4.57712e-05
3.2624e-05
3.00993e-05
3.10054e-05
3.26972e-05
3.41453e-05
3.50144e-05
3.62019e-05
4.10307e-05
4.73762e-05
6.33558e-05
5.98102e-05
4.68197e-05
4.27953e-05
4.15098e-05
4.06414e-05
3.99885e-05
4.07319e-05
4.57872e-05
6.34361e-05
6.19565e-05
4.48547e-05
4.02744e-05
4.02885e-05
4.11525e-05
4.16828e-05
4.20859e-05
4.48758e-05
5.69697e-05
6.25973e-05
7.78271e-05
8.82101e-05
6.97806e-05
7.10976e-05
7.75552e-05
8.44697e-05
8.95319e-05
8.96735e-05
8.53335e-05
8.93922e-05
8.67737e-05
8.23727e-05
8.63266e-05
8.67486e-05
8.26928e-05
7.59199e-05
6.86956e-05
6.59341e-05
8.47319e-05
7.62398e-05
9.3012e-05
0.000113969
0.00015421
0.000198157
0.000249297
0.000295097
0.000323869
0.000313207
0.000264226
0.00023118
0.000228423
0.000258234
0.000296187
0.000300606
0.000276038
0.000234071
0.000183994
0.000141338
0.000107449
9.06723e-05
0.00010926
0.000134751
0.000158649
0.000182932
0.000209297
0.000236305
0.000262765
0.000287124
0.000308733
0.000327233
0.000325057
0.000306272
0.000283554
0.000258163
0.000231491
0.000204642
0.000178453
0.000154715
0.000131782
0.000107238
6.85297e-06
9.70003e-06
1.12728e-05
1.22113e-05
1.29695e-05
1.38174e-05
1.50541e-05
1.69382e-05
1.91638e-05
2.09394e-05
1.88256e-05
1.64076e-05
1.49014e-05
1.3585e-05
1.24505e-05
1.14212e-05
1.04324e-05
9.40047e-06
7.94734e-06
5.51732e-06
9.39946e-06
1.63541e-05
1.96434e-05
2.14686e-05
2.26862e-05
2.39693e-05
2.60673e-05
2.96955e-05
3.45021e-05
4.00327e-05
3.78481e-05
3.12611e-05
2.69123e-05
2.42441e-05
2.2713e-05
2.15044e-05
2.01583e-05
1.82434e-05
1.50434e-05
8.33481e-06
1.06114e-05
2.06192e-05
2.46577e-05
2.60038e-05
2.61027e-05
2.59449e-05
2.63665e-05
2.85697e-05
3.43178e-05
5.25215e-05
5.15599e-05
3.19911e-05
2.67565e-05
2.52896e-05
2.53061e-05
2.5577e-05
2.53444e-05
2.37438e-05
1.96751e-05
1.07812e-05
1.58e-05
2.19536e-05
2.62814e-05
2.83018e-05
2.86253e-05
2.80068e-05
2.73418e-05
2.83042e-05
3.55069e-05
6.91022e-05
7.03085e-05
3.44055e-05
2.75309e-05
2.73159e-05
2.84041e-05
2.8985e-05
2.82879e-05
2.58838e-05
2.16789e-05
1.67791e-05
2.70331e-05
2.55821e-05
2.69427e-05
2.86023e-05
2.93841e-05
2.92687e-05
2.88019e-05
2.96698e-05
3.88371e-05
8.91259e-05
9.15083e-05
3.86916e-05
2.9624e-05
2.90683e-05
2.94743e-05
2.95077e-05
2.87756e-05
2.73198e-05
2.61269e-05
2.74632e-05
4.56911e-05
3.66414e-05
3.16241e-05
3.08216e-05
3.08548e-05
3.05913e-05
3.0248e-05
3.16218e-05
4.37067e-05
0.000112056
0.000112874
4.31908e-05
3.16289e-05
3.06843e-05
3.1137e-05
3.13468e-05
3.10927e-05
3.14763e-05
3.61902e-05
4.56029e-05
6.26921e-05
5.3989e-05
4.20848e-05
3.91919e-05
3.92094e-05
3.97876e-05
4.07319e-05
4.38595e-05
6.018e-05
0.000136907
0.000132436
5.84577e-05
4.36077e-05
4.10936e-05
4.02354e-05
3.90751e-05
3.78788e-05
3.92747e-05
5.02292e-05
6.13029e-05
7.79015e-05
8.59746e-05
6.69863e-05
7.03905e-05
7.84153e-05
8.58679e-05
8.96735e-05
8.84111e-05
9.24283e-05
0.0001513
0.000145296
8.8679e-05
8.48603e-05
8.58591e-05
8.20614e-05
7.42864e-05
6.53578e-05
6.08464e-05
8.08363e-05
7.55121e-05
9.40884e-05
0.00011471
0.000156152
0.000203804
0.000257294
0.000298872
0.000313207
0.000289735
0.000263428
0.00030595
0.000304457
0.000256005
0.000277073
0.000291608
0.000274382
0.000235005
0.000183373
0.000136739
0.000105297
9.06817e-05
0.000112026
0.000139652
0.000165802
0.00019295
0.000222897
0.000254375
0.000287124
0.000321764
0.000360403
0.000403455
0.000400811
0.000358245
0.000318948
0.000282997
0.000249318
0.000217455
0.000187414
0.000160727
0.000135636
0.000109173
6.69579e-06
9.28153e-06
1.09276e-05
1.23059e-05
1.36155e-05
1.49979e-05
1.67379e-05
1.91638e-05
2.18312e-05
2.31414e-05
2.08573e-05
1.87376e-05
1.6634e-05
1.45744e-05
1.30007e-05
1.17289e-05
1.05569e-05
9.34007e-06
7.79532e-06
5.4473e-06
9.63011e-06
1.57477e-05
1.91646e-05
2.18369e-05
2.42378e-05
2.65056e-05
2.96667e-05
3.45021e-05
4.21864e-05
9.77775e-05
9.48524e-05
3.74959e-05
3.06592e-05
2.61415e-05
2.33715e-05
2.14592e-05
1.95565e-05
1.73723e-05
1.4245e-05
8.20992e-06
1.10472e-05
1.7485e-05
2.15464e-05
2.42601e-05
2.5996e-05
2.72873e-05
2.92241e-05
3.43178e-05
6.02599e-05
0.000218779
0.000218183
5.58572e-05
3.10705e-05
2.63914e-05
2.49306e-05
2.41287e-05
2.29795e-05
2.08554e-05
1.70152e-05
9.94757e-06
1.25126e-05
1.98993e-05
2.41343e-05
2.64008e-05
2.76198e-05
2.82542e-05
2.93581e-05
3.55069e-05
8.38614e-05
0.000338063
0.00034501
8.22767e-05
3.33549e-05
2.75775e-05
2.69692e-05
2.68e-05
2.59541e-05
2.38024e-05
1.93247e-05
1.30289e-05
2.54857e-05
2.31129e-05
2.45872e-05
2.70923e-05
2.88625e-05
2.9888e-05
3.10824e-05
3.88371e-05
0.000113343
0.000460334
0.000474305
0.000117657
3.7833e-05
3.00429e-05
2.90442e-05
2.81693e-05
2.65369e-05
2.42911e-05
2.27618e-05
2.5133e-05
4.42631e-05
3.36617e-05
2.835e-05
2.7926e-05
2.94464e-05
3.13006e-05
3.35013e-05
4.37067e-05
0.000142647
0.000558363
0.0005741
0.000146572
4.31941e-05
3.26632e-05
3.06998e-05
2.91423e-05
2.75765e-05
2.74581e-05
3.26719e-05
4.37564e-05
6.12289e-05
4.92471e-05
3.84633e-05
3.67846e-05
3.87756e-05
4.16917e-05
4.57872e-05
6.018e-05
0.000168989
0.000605232
0.000619852
0.000172299
5.94681e-05
4.54835e-05
4.10182e-05
3.7123e-05
3.39469e-05
3.46202e-05
4.53055e-05
5.94482e-05
7.64505e-05
8.112e-05
6.24994e-05
6.72197e-05
7.58658e-05
8.24425e-05
8.53335e-05
9.24283e-05
0.000183743
0.000587011
0.000597257
0.000187053
8.84715e-05
8.01378e-05
7.63055e-05
6.86254e-05
5.89532e-05
5.4682e-05
7.54922e-05
7.36443e-05
9.28116e-05
0.000109906
0.000146546
0.000192151
0.000238137
0.0002634
0.000264226
0.000263428
0.000332098
0.000542777
0.000546306
0.000334405
0.000255851
0.000248314
0.000241638
0.000213873
0.000168878
0.000124091
9.94209e-05
8.89122e-05
0.000112359
0.000141093
0.000168545
0.000197702
0.000230754
0.000267066
0.000308733
0.000360402
0.000428061
0.000509947
0.000505579
0.00042742
0.000359033
0.000305779
0.000262743
0.000225454
0.00019187
0.000162749
0.000136431
0.000108993
6.53959e-06
8.98264e-06
1.06688e-05
1.22319e-05
1.38242e-05
1.55405e-05
1.7818e-05
2.09394e-05
2.31414e-05
2.45685e-05
2.20358e-05
2.03978e-05
1.87208e-05
1.56885e-05
1.34217e-05
1.17995e-05
1.04107e-05
9.11611e-06
7.61784e-06
5.40637e-06
9.89661e-06
1.59358e-05
1.95523e-05
2.28658e-05
2.62034e-05
2.92089e-05
3.36948e-05
4.00327e-05
9.77775e-05
9.37624e-05
8.77731e-05
8.96515e-05
3.55114e-05
2.90483e-05
2.43035e-05
2.15129e-05
1.89603e-05
1.6544e-05
1.35911e-05
8.03034e-06
1.16314e-05
1.7045e-05
2.07168e-05
2.44125e-05
2.78751e-05
3.04512e-05
3.46094e-05
5.25215e-05
0.000218779
0.000170813
0.000161531
0.000209567
4.6443e-05
2.92957e-05
2.55653e-05
2.36755e-05
2.15413e-05
1.90977e-05
1.58336e-05
9.71632e-06
1.32055e-05
1.87614e-05
2.19102e-05
2.53824e-05
2.86057e-05
3.12092e-05
3.6211e-05
6.91022e-05
0.000338063
0.000260584
0.000247468
0.000335065
6.33503e-05
3.12515e-05
2.71565e-05
2.56242e-05
2.38175e-05
2.16973e-05
1.86536e-05
1.07872e-05
2.53051e-05
2.20375e-05
2.329e-05
2.64402e-05
3.01396e-05
3.36834e-05
4.01171e-05
8.91259e-05
0.000460334
0.00036352
0.00034574
0.000469156
8.62917e-05
3.54842e-05
3.00157e-05
2.76525e-05
2.5072e-05
2.23972e-05
2.10634e-05
2.36476e-05
4.32638e-05
3.2538e-05
2.68706e-05
2.69474e-05
3.15737e-05
3.72772e-05
4.64593e-05
0.000112056
0.000558363
0.00047223
0.000449396
0.000577657
0.000111853
4.13331e-05
3.29125e-05
2.84204e-05
2.50643e-05
2.49226e-05
3.07488e-05
4.21828e-05
5.93918e-05
4.65758e-05
3.66858e-05
3.63964e-05
4.15596e-05
4.9841e-05
6.34361e-05
0.000136907
0.000605232
0.000570237
0.000543399
0.000635419
0.0001361
5.70894e-05
4.4141e-05
3.63354e-05
3.10175e-05
3.20057e-05
4.28396e-05
5.75346e-05
7.38871e-05
7.4791e-05
5.67526e-05
6.20447e-05
7.17381e-05
7.97721e-05
8.93922e-05
0.0001513
0.000587011
0.000630922
0.000601446
0.000628112
0.000150685
7.77305e-05
6.82936e-05
6.07743e-05
5.22545e-05
4.97479e-05
7.07601e-05
7.13167e-05
8.94857e-05
0.000100493
0.000127453
0.000167083
0.000200914
0.000216328
0.00023118
0.00030595
0.000542777
0.000651328
0.000625018
0.000568103
0.000307577
0.000219678
0.000203181
0.000185128
0.000149243
0.000109698
9.23548e-05
8.6067e-05
0.000109874
0.000138469
0.000165797
0.000196112
0.000231712
0.000273504
0.000327233
0.000403455
0.000509947
0.000587526
0.000569842
0.000513096
0.000405048
0.000326062
0.000270818
0.000227794
0.000191169
0.00016044
0.000134114
0.000106728
6.28923e-06
8.49134e-06
1.00956e-05
1.1528e-05
1.29274e-05
1.43912e-05
1.62854e-05
1.88256e-05
2.08573e-05
2.20358e-05
2.09992e-05
1.97461e-05
1.81965e-05
1.5247e-05
1.29615e-05
1.13478e-05
1.00267e-05
8.82453e-06
7.45438e-06
5.44668e-06
9.68795e-06
1.51763e-05
1.87575e-05
2.19863e-05
2.51577e-05
2.80375e-05
3.23785e-05
3.78481e-05
9.48524e-05
8.77731e-05
8.63932e-05
9.45912e-05
3.61717e-05
2.93634e-05
2.38049e-05
2.06547e-05
1.79721e-05
1.5599e-05
1.28541e-05
7.79419e-06
1.14636e-05
1.60802e-05
1.96808e-05
2.33597e-05
2.68985e-05
2.95983e-05
3.38891e-05
5.15599e-05
0.000218183
0.000161531
0.000159641
0.00022734
5.02739e-05
3.01415e-05
2.54407e-05
2.29826e-05
2.04171e-05
1.7837e-05
1.49445e-05
9.54294e-06
1.40727e-05
1.80912e-05
2.11157e-05
2.45881e-05
2.79214e-05
3.07413e-05
3.60167e-05
7.03085e-05
0.00034501
0.000247468
0.000242264
0.000368654
7.23295e-05
3.29905e-05
2.76066e-05
2.54589e-05
2.28532e-05
2.03478e-05
1.8066e-05
1.09514e-05
2.61373e-05
2.23137e-05
2.30537e-05
2.6084e-05
2.99343e-05
3.35918e-05
4.01168e-05
9.15083e-05
0.000474305
0.00034574
0.000333318
0.000514622
0.000101376
3.80931e-05
3.14008e-05
2.86226e-05
2.53433e-05
2.21539e-05
2.10731e-05
2.31457e-05
4.38706e-05
3.2901e-05
2.68455e-05
2.67645e-05
3.14209e-05
3.70244e-05
4.57712e-05
0.000112874
0.000574099
0.000449396
0.000427106
0.000630117
0.000122019
4.24773e-05
3.32886e-05
2.83815e-05
2.45898e-05
2.45862e-05
3.04485e-05
4.17046e-05
5.95684e-05
4.66315e-05
3.67983e-05
3.66194e-05
4.19447e-05
4.98418e-05
6.19565e-05
0.000132436
0.000619851
0.000543399
0.000511128
0.000687137
0.000134468
5.07229e-05
3.98763e-05
3.38125e-05
2.99659e-05
3.15987e-05
4.25568e-05
5.69185e-05
7.38436e-05
7.4569e-05
5.6439e-05
6.19602e-05
7.15231e-05
7.89044e-05
8.67738e-05
0.000145296
0.000597256
0.000601446
0.000562905
0.000666005
0.000142435
7.16832e-05
6.44394e-05
5.83636e-05
5.12827e-05
4.9459e-05
7.06226e-05
7.06386e-05
8.93024e-05
9.99956e-05
0.000125972
0.000165386
0.000199036
0.000214955
0.000228423
0.000304457
0.000546306
0.000625018
0.000589212
0.000586852
0.000310669
0.000220833
0.000205881
0.000185296
0.000148554
0.000109379
9.2244e-05
8.52895e-05
0.000109566
0.000137704
0.000164607
0.000194815
0.000230258
0.00027181
0.000325057
0.000400811
0.000505579
0.000569842
0.000545378
0.000512612
0.000405088
0.000325762
0.000270433
0.000226923
0.000189843
0.000158797
0.000132662
0.000105602
6.09306e-06
8.13395e-06
9.60938e-06
1.08013e-05
1.18912e-05
1.30287e-05
1.44434e-05
1.64076e-05
1.87376e-05
2.03978e-05
1.97461e-05
1.76704e-05
1.52969e-05
1.32223e-05
1.18151e-05
1.07052e-05
9.70967e-06
8.69477e-06
7.44285e-06
5.58135e-06
9.26105e-06
1.4085e-05
1.73749e-05
1.99814e-05
2.21386e-05
2.42257e-05
2.70361e-05
3.12611e-05
3.74959e-05
8.96515e-05
9.45912e-05
3.63303e-05
2.96502e-05
2.42674e-05
2.10311e-05
1.88071e-05
1.6813e-05
1.48068e-05
1.22046e-05
7.5595e-06
1.10957e-05
1.57166e-05
1.93738e-05
2.20982e-05
2.3945e-05
2.5462e-05
2.74334e-05
3.19911e-05
5.58572e-05
0.000209567
0.00022734
5.73823e-05
3.09766e-05
2.54714e-05
2.3166e-05
2.16331e-05
1.98233e-05
1.75001e-05
1.42819e-05
9.16939e-06
1.51494e-05
1.94888e-05
2.33016e-05
2.54491e-05
2.65351e-05
2.71664e-05
2.83331e-05
3.44055e-05
8.22767e-05
0.000335065
0.000368654
9.37605e-05
3.512e-05
2.77403e-05
2.65182e-05
2.61205e-05
2.52831e-05
2.30753e-05
1.84075e-05
1.10193e-05
2.72134e-05
2.39716e-05
2.47059e-05
2.67318e-05
2.84319e-05
2.95079e-05
3.07179e-05
3.86916e-05
0.000117657
0.000469156
0.000514622
0.000137772
4.12135e-05
3.14783e-05
3.02459e-05
2.883e-05
2.63885e-05
2.33548e-05
2.16593e-05
2.32864e-05
4.58384e-05
3.4689e-05
2.85491e-05
2.77265e-05
2.888e-05
3.04775e-05
3.2624e-05
4.31908e-05
0.000146571
0.000577657
0.000630117
0.000169954
4.45988e-05
3.15655e-05
2.91646e-05
2.72381e-05
2.55201e-05
2.57635e-05
3.15532e-05
4.2914e-05
6.21777e-05
5.0131e-05
3.87576e-05
3.66402e-05
3.83419e-05
4.11106e-05
4.48547e-05
5.84577e-05
0.000172299
0.000635419
0.000687137
0.000191167
5.23962e-05
3.71157e-05
3.38077e-05
3.16194e-05
3.04926e-05
3.30353e-05
4.47595e-05
5.88209e-05
7.72543e-05
8.14795e-05
6.15237e-05
6.63579e-05
7.42791e-05
8.00883e-05
8.23727e-05
8.8679e-05
0.000187053
0.000628112
0.000666005
0.000199178
7.85596e-05
6.94003e-05
6.52643e-05
5.92991e-05
5.34964e-05
5.24213e-05
7.5561e-05
7.31913e-05
9.3564e-05
0.000110315
0.000142454
0.000185172
0.000227506
0.000254072
0.000258234
0.000256005
0.000334405
0.000568103
0.000586852
0.000343377
0.000254672
0.000256961
0.000240687
0.000203965
0.000160184
0.000119991
0.000100034
8.84182e-05
0.00011265
0.000140611
0.000167198
0.000195753
0.000228269
0.000264457
0.000306272
0.000358245
0.00042742
0.000513096
0.000512612
0.000429699
0.000359474
0.000306088
0.000261763
0.000222955
0.000188707
0.000159682
0.000134156
0.000107624
6.15022e-06
8.26715e-06
9.74478e-06
1.08075e-05
1.16976e-05
1.25598e-05
1.35596e-05
1.49014e-05
1.6634e-05
1.87208e-05
1.81965e-05
1.52969e-05
1.33211e-05
1.19858e-05
1.10834e-05
1.03934e-05
9.69289e-06
8.84719e-06
7.65317e-06
5.80781e-06
9.20901e-06
1.42833e-05
1.7478e-05
1.95008e-05
2.09265e-05
2.22975e-05
2.41298e-05
2.69123e-05
3.06592e-05
3.55114e-05
3.61717e-05
2.96502e-05
2.42656e-05
2.08939e-05
1.91667e-05
1.79915e-05
1.67899e-05
1.51348e-05
1.23942e-05
7.59262e-06
1.17491e-05
1.99221e-05
2.33622e-05
2.42945e-05
2.44446e-05
2.45545e-05
2.507e-05
2.67565e-05
3.10705e-05
4.6443e-05
5.02739e-05
3.09766e-05
2.52222e-05
2.29919e-05
2.24311e-05
2.22305e-05
2.18274e-05
2.05718e-05
1.65947e-05
9.07851e-06
1.72899e-05
2.22514e-05
2.62344e-05
2.84975e-05
2.89108e-05
2.80574e-05
2.70885e-05