/*--------------------------------*- C++ -*----------------------------------*\
  =========                 |
  \\      /  F ield         | OpenFOAM: The Open Source CFD Toolbox
   \\    /   O peration     | Website:  https://openfoam.org
    \\  /    A nd           | Version:  9
     \\/     M anipulation  |
\*---------------------------------------------------------------------------*/
FoamFile
{
    format      ascii;
    class       volScalarField;
    location    "1000";
    object      nut;
}
// * * * * * * * * * * * * * * * * * * * * * * * * * * * * * * * * * * * * * //

dimensions      [0 2 -1 0 0 0 0];

internalField   nonuniform List<scalar> 
4000
(
0.000265287
0.000223801
0.000192682
0.000175408
0.000165536
0.000157644
0.000150807
0.000146343
0.000144569
0.000142791
0.000139986
0.000137694
0.00013826
0.0001423
0.000151208
0.000157398
0.000164131
0.000173973
0.000201367
0.000239469
0.00030883
0.000279671
0.000258042
0.000242505
0.000211469
0.000182148
0.0001766
0.0001718
0.000173795
0.000176111
0.000174091
0.000170054
0.000169433
0.000171001
0.000175941
0.000230912
0.000259535
0.00028125
0.000305964
0.000317568
0.000372415
0.000349303
0.000326647
0.000303483
0.000278158
0.000251671
0.000216744
0.000182438
0.000185908
0.000190627
0.000189055
0.000185619
0.000190922
0.000229987
0.000259533
0.000287082
0.000320589
0.000354875
0.000374993
0.000385584
0.000392431
0.000381989
0.000363202
0.000337485
0.000307689
0.000279324
0.000251505
0.000223178
0.000197627
0.000201978
0.000207921
0.000215304
0.000230868
0.000255027
0.000282858
0.000314077
0.000347388
0.000375163
0.000394696
0.000402049
0.000402887
0.000398402
0.000383783
0.000362749
0.000339222
0.000318368
0.000304119
0.000291626
0.000281854
0.000279517
0.000282817
0.000288155
0.000297798
0.00031411
0.000336019
0.000356415
0.000378155
0.000397872
0.000409972
0.000411146
0.000409767
0.000412674
0.000408443
0.00040152
0.000394899
0.000389544
0.000384759
0.000378999
0.000372701
0.000368024
0.000369885
0.000377955
0.000386348
0.000394847
0.000402883
0.000410004
0.000416358
0.000421751
0.000423429
0.000417462
0.000415737
0.000426595
0.000433722
0.000438906
0.00044318
0.000445871
0.00044627
0.00044385
0.00043848
0.000431689
0.000431814
0.000441063
0.000448083
0.000452636
0.000454638
0.000453762
0.000450457
0.000445243
0.000436765
0.000423292
0.000422353
0.000441161
0.00045764
0.000471127
0.00048217
0.000490142
0.000494582
0.000494783
0.000490059
0.000481724
0.000481181
0.000492044
0.00049797
0.000499265
0.000496557
0.000490171
0.000480397
0.000467542
0.000450602
0.000429787
0.000430938
0.000458595
0.000483001
0.000503086
0.000519702
0.000532431
0.000540922
0.000543982
0.000540174
0.000530388
0.000529464
0.000541751
0.00054623
0.000544387
0.00053767
0.000526515
0.000511149
0.000491882
0.000467468
0.000438236
0.000443265
0.000479729
0.00051137
0.000536491
0.00055722
0.000573991
0.000586506
0.000593859
0.000594683
0.000588082
0.000586899
0.00059491
0.000594132
0.000587265
0.000575856
0.000560565
0.000541425
0.00051778
0.000487135
0.000450276
0.000223801
0.000211752
0.000200555
0.000195849
0.000197018
0.000191609
0.000181425
0.000174132
0.00017001
0.000166966
0.000162047
0.000158487
0.000159959
0.00016715
0.000185842
0.000186798
0.000187834
0.000188381
0.000195328
0.000203989
0.000279671
0.000308322
0.000333315
0.000384161
0.000425453
0.000422571
0.000412025
0.000421857
0.000456455
0.000474114
0.000442631
0.000390652
0.000359438
0.000366326
0.000410763
0.000413156
0.000389808
0.000369474
0.000361202
0.000300705
0.000349303
0.000452594
0.000443238
0.000429481
0.000427321
0.000422386
0.000408901
0.000420168
0.000443115
0.000466346
0.000429269
0.000380495
0.000379384
0.000406052
0.000418449
0.000429568
0.000457681
0.000498559
0.000499914
0.000373146
0.000381989
0.000529031
0.000539168
0.000494188
0.000449391
0.000415205
0.000386522
0.000375366
0.000396002
0.000418271
0.000387945
0.000353268
0.000356397
0.000380258
0.000413951
0.000456533
0.000512927
0.000551122
0.000527821
0.000392265
0.000398402
0.000541824
0.000563849
0.000531762
0.00047351
0.000426517
0.0003891
0.000358424
0.000338986
0.000332667
0.000327912
0.000335261
0.000357918
0.000390168
0.000434746
0.000493748
0.000559845
0.000590786
0.000557922
0.000407092
0.000412674
0.000567138
0.000604073
0.000590195
0.000545897
0.000486343
0.000442297
0.000406119
0.00038148
0.0003731
0.000375383
0.000388498
0.000415153
0.000453439
0.000507918
0.000578504
0.000623708
0.000633726
0.00058678
0.000420321
0.000426595
0.000588605
0.000639009
0.000657911
0.000660157
0.000635423
0.000587176
0.00054045
0.000502417
0.000483432
0.000487267
0.000517597
0.000562372
0.000616907
0.000670718
0.000695353
0.000693428
0.000670256
0.000610139
0.00043381
0.000441161
0.000603235
0.000662065
0.000710765
0.000762346
0.000795938
0.000808862
0.000800753
0.00077239
0.000734056
0.000743122
0.000785151
0.000818846
0.000835761
0.000836054
0.000804237
0.000749681
0.000694933
0.000625435
0.000447999
0.000458595
0.000597891
0.000665507
0.000722406
0.000773146
0.000807418
0.000829202
0.000832954
0.000808117
0.000761143
0.000767113
0.000824184
0.000856381
0.000860488
0.000846547
0.000813418
0.000759477
0.000694011
0.000614472
0.000465167
0.000479729
0.000519748
0.000555522
0.000585431
0.000611536
0.000633957
0.000651852
0.000663529
0.000666816
0.000660541
0.000658404
0.000665107
0.000661727
0.000650627
0.000634099
0.000613411
0.000589033
0.00056068
0.000525947
0.000485701
0.000192682
0.000200555
0.000201296
0.000204705
0.000207676
0.000202199
0.000193691
0.000187765
0.000184403
0.000181754
0.000176519
0.000172108
0.000173544
0.000180667
0.000197495
0.000200963
0.000197048
0.000192193
0.00018621
0.000175053
0.000258042
0.000333315
0.000397849
0.000470621
0.000509054
0.000502341
0.000496885
0.000515544
0.000562391
0.000594535
0.000562193
0.000496007
0.000455222
0.000453003
0.000501624
0.000497836
0.000461818
0.000414698
0.000365753
0.000274715
0.000326647
0.000443238
0.000471602
0.000490321
0.000506729
0.000511762
0.000510245
0.000522133
0.00055415
0.000592169
0.000555823
0.000488598
0.000480358
0.000505668
0.00051035
0.000502018
0.000506554
0.000514818
0.000495575
0.000352444
0.000363202
0.000539168
0.000571799
0.000549092
0.000522571
0.000499411
0.000480996
0.000483611
0.000507983
0.000526692
0.000499116
0.00046524
0.000456097
0.00046934
0.00049393
0.000525268
0.000566127
0.000594701
0.00054414
0.000370976
0.000383783
0.000563849
0.000617076
0.000597232
0.000548826
0.000505074
0.000469107
0.000442485
0.000437823
0.00045365
0.000438395
0.000416617
0.000429092
0.000458653
0.00050296
0.00056059
0.000623907
0.000642418
0.000580734
0.000391895
0.000408443
0.000604073
0.000669808
0.000660311
0.000602726
0.000538961
0.000486458
0.000443319
0.000412964
0.000402401
0.000401918
0.000412471
0.000443139
0.000487926
0.000550635
0.000627223
0.000690018
0.000696619
0.00062215
0.000415554
0.000433722
0.000639009
0.000720074
0.000733291
0.00069473
0.000638893
0.000584789
0.000540346
0.000507884
0.000496103
0.000501783
0.000519065
0.000553312
0.000603334
0.000666811
0.000730151
0.000768584
0.000749585
0.000657979
0.000439869
0.00045764
0.000662065
0.000765596
0.000829228
0.00085344
0.000840632
0.000822253
0.00080227
0.000771412
0.000731669
0.000735657
0.000775624
0.000813928
0.000846553
0.000880376
0.000901692
0.00087165
0.000799686
0.000681062
0.000462955
0.000483001
0.000665507
0.000822795
0.000974342
0.00109608
0.00116565
0.0012089
0.00122935
0.00119505
0.00109617
0.00108884
0.00117635
0.00123545
0.00123594
0.00120461
0.00114195
0.0010229
0.000857661
0.000681643
0.000487848
0.00051137
0.000555522
0.000594491
0.000627901
0.000658097
0.000685085
0.00070764
0.000723313
0.000729084
0.000723023
0.000720177
0.000725621
0.000719396
0.000704221
0.000683172
0.000657961
0.00062932
0.00059733
0.000559474
0.000515541
0.000175408
0.000195849
0.000204705
0.000209604
0.000208944
0.000203561
0.000197973
0.000195619
0.000195871
0.00019466
0.000188569
0.000182464
0.000182958
0.000188038
0.000198623
0.000207642
0.000201311
0.00019217
0.000180597
0.000159132
0.000242505
0.000384161
0.000470621
0.000528693
0.000541463
0.000536313
0.000543018
0.000577746
0.000639745
0.000687834
0.00065863
0.000580629
0.000528318
0.000510523
0.000534869
0.000536442
0.000508615
0.000457934
0.000385297
0.000253979
0.000303483
0.000429481
0.000490321
0.000531546
0.000554987
0.000563937
0.000568384
0.000586154
0.000640282
0.000704115
0.000674628
0.00058382
0.000547072
0.000566324
0.000570579
0.000547199
0.000528283
0.000505858
0.000456016
0.000321182
0.000337485
0.000494188
0.000549092
0.000560782
0.000557927
0.000549406
0.000543331
0.00055426
0.000589512
0.000642538
0.000622076
0.000549456
0.000531043
0.000532352
0.000542458
0.000553907
0.000566885
0.000563267
0.000503321
0.000342525
0.000362749
0.000531762
0.000597232
0.000603149
0.000582007
0.000555298
0.000531235
0.000518884
0.00053706
0.000582141
0.000569715
0.000508097
0.000495767
0.000514112
0.000546361
0.00058425
0.000616807
0.000613511
0.000541497
0.000368795
0.00040152
0.000590195
0.000660311
0.000667228
0.00063363
0.000587717
0.000544519
0.000509015
0.000490282
0.000508533
0.000505522
0.000479672
0.000497662
0.000535932
0.000588584
0.000645404
0.000683402
0.000673811
0.000600722
0.000407535
0.000438906
0.000657911
0.000733291
0.000750297
0.000724472
0.000678446
0.000632956
0.000597602
0.000579366
0.00059037
0.000597775
0.000583236
0.000599852
0.000640367
0.000695501
0.000748798
0.000773293
0.000750612
0.000671966
0.000443303
0.000471127
0.000710765
0.000829228
0.000899159
0.000918011
0.00090303
0.000883193
0.00086524
0.000840709
0.00081514
0.000818826
0.000841837
0.000869918
0.000899454
0.000932617
0.000955999
0.000936429
0.00085827
0.000729895
0.00047425
0.000503086
0.000722406
0.000974342
0.00123292
0.00135195
0.00140752
0.0014497
0.00145614
0.00139057
0.00127
0.00126182
0.00135823
0.00142061
0.00143119
0.00141075
0.00136963
0.00127008
0.00100827
0.000735307
0.000505503
0.000536491
0.000585431
0.000627901
0.000664959
0.000699775
0.00073221
0.000760162
0.000780589
0.000789978
0.000786711
0.000783954
0.000785636
0.000774949
0.000754725
0.000728133
0.000697319
0.000663576
0.000627757
0.000586541
0.000538335
0.000165536
0.000197018
0.000207676
0.000208944
0.000205055
0.000201134
0.000199293
0.000202042
0.000206305
0.000207225
0.000199897
0.000191718
0.000190624
0.000192767
0.000195934
0.000202233
0.000201924
0.000193867
0.000179351
0.000150563
0.000211469
0.000425453
0.000509054
0.000541463
0.000547195
0.00055308
0.000575136
0.00062931
0.000708679
0.000769765
0.000743637
0.000651825
0.000587376
0.000559541
0.00054999
0.000553793
0.000524481
0.000479446
0.000402466
0.000227957
0.000278158
0.000427321
0.000506729
0.000554987
0.000580226
0.000591543
0.000600626
0.000632004
0.000711181
0.000802837
0.00078095
0.000661713
0.000598709
0.000599045
0.000603586
0.000581292
0.000542684
0.000498208
0.000427928
0.000288563
0.000307689
0.000449391
0.000522571
0.000557927
0.000572898
0.000577631
0.000582636
0.000600817
0.000654837
0.000744503
0.000730221
0.000618828
0.00058309
0.000577143
0.000573358
0.000566878
0.000554157
0.000524066
0.000451497
0.000309954
0.000339222
0.000473511
0.000548826
0.000582007
0.000587581
0.000580223
0.000570779
0.000574983
0.000615766
0.000699455
0.000691719
0.000588632
0.000549021
0.000552201
0.000568327
0.000582872
0.000583823
0.000552835
0.000477348
0.000343882
0.000394899
0.000545897
0.000602726
0.00063363
0.000632782
0.000612935
0.000587611
0.00056925
0.000582044
0.000656827
0.00065357
0.000562062
0.000549807
0.00057281
0.000606313
0.000633767
0.000636723
0.000603517
0.000548104
0.000399639
0.00044318
0.000660157
0.00069473
0.000724472
0.000728713
0.0007088
0.000680511
0.000659959
0.000667387
0.000725773
0.000731922
0.000664445
0.000653665
0.000679219
0.000714875
0.000738835
0.00073153
0.000696687
0.000664868
0.000445367
0.00048217
0.000762346
0.00085344
0.000918011
0.000945304
0.000938779
0.000924615
0.000909723
0.000890419
0.00088318
0.000885853
0.000887365
0.000907555
0.000931675
0.00095476
0.000964348
0.000936801
0.00086913
0.000779581
0.000482643
0.000519702
0.000773146
0.00109608
0.00135195
0.00147834
0.0015721
0.00163915
0.00164576
0.00154501
0.00137469
0.00136642
0.00149934
0.001586
0.00159407
0.00154877
0.0014678
0.00134453
0.0011191
0.000778512
0.000519184
0.00055722
0.000611536
0.000658097
0.000699775
0.000741012
0.000779605
0.000813297
0.000839185
0.000853692
0.000855425
0.000852646
0.000848818
0.000832404
0.000806069
0.000773109
0.000735702
0.000695256
0.000654644
0.000609578
0.00055651
0.000157644
0.000191609
0.000202199
0.000203561
0.000201134
0.00019894
0.000201671
0.000208871
0.000216833
0.000220083
0.000211325
0.000201122
0.000197935
0.000196872
0.000194823
0.000193519
0.000192484
0.000188271
0.00017619
0.000143169
0.000182148
0.000422571
0.000502341
0.000536313
0.00055308
0.00057111
0.000608711
0.000675155
0.000757987
0.000811939
0.000789601
0.000708388
0.000640553
0.000605223
0.000575922
0.000552108
0.000525098
0.000472035
0.00038791
0.00017454
0.000251671
0.000422386
0.000511762
0.000563937
0.000591543
0.000605599
0.000623379
0.000671274
0.000761629
0.000841302
0.000823651
0.000722208
0.000645156
0.000623615
0.00061612
0.000597268
0.000555255
0.000494864
0.000408684
0.000257147
0.000279324
0.000415205
0.000499411
0.000549406
0.000577631
0.000593521
0.000606302
0.000633514
0.000704182
0.000793238
0.000782487
0.000674894
0.000618309
0.000607669
0.00059532
0.000574377
0.000543191
0.000494118
0.000412429
0.000280642
0.000318368
0.000426517
0.000505074
0.000555298
0.000580223
0.000589139
0.00059376
0.000613438
0.000675162
0.000771876
0.000766124
0.000652961
0.000592448
0.000578389
0.000578677
0.000574
0.000552554
0.000504386
0.000428688
0.000323638
0.000389544
0.000486343
0.000538961
0.000587717
0.000612935
0.000616607
0.000610493
0.000612701
0.000659593
0.000766198
0.000761025
0.000637914
0.000592333
0.000595826
0.000608699
0.000609865
0.000585199
0.000534465
0.000484044
0.000392726
0.000445871
0.000635423
0.000638893
0.000678446
0.0007088
0.000714317
0.000704888
0.000702068
0.000739068
0.000847189
0.000846158
0.000732485
0.000693378
0.000701637
0.000715939
0.000711497
0.000676803
0.00063143
0.000629402
0.000445587
0.000490142
0.000795938
0.000840632
0.00090303
0.000938779
0.000946567
0.000943375
0.000931707
0.000913266
0.000924344
0.000922608
0.000906073
0.000924436
0.000943736
0.000953235
0.000945438
0.000908253
0.000844522
0.000808436
0.000487725
0.000532431
0.000807418
0.00116565
0.00140752
0.0015721
0.00170339
0.0017832
0.00175868
0.00158458
0.00135899
0.00135252
0.00154519
0.00168476
0.00171207
0.00165378
0.00153875
0.00137805
0.00116989
0.000800173
0.000528661
0.000573991
0.000633957
0.000685085
0.00073221
0.000779605
0.000824323
0.000864234
0.000896527
0.000918469
0.000929461
0.000926495
0.00091388
0.000889533
0.000855853
0.000815866
0.000771705
0.000724699
0.000678461
0.000629037
0.000570745
0.000150807
0.000181425
0.000193691
0.000197973
0.000199293
0.000201671
0.000208247
0.000218279
0.000229447
0.000236058
0.000225269
0.000212364
0.000206203
0.000201518
0.000195971
0.000189606
0.000183473
0.000176069
0.000162941
0.000135167
0.0001766
0.000412025
0.000496885
0.000543018
0.000575136
0.000608711
0.000656783
0.000723776
0.000787759
0.00079523
0.000773855
0.000744428
0.000692688
0.000650786
0.000611868
0.000569472
0.000524149
0.000468456
0.000383882
0.000167288
0.000216744
0.000408901
0.000510245
0.000568384
0.000600627
0.000623379
0.000655574
0.000713037
0.000776839
0.00075929
0.000738278
0.000741801
0.000690866
0.000653851
0.000628681
0.000600391
0.000558672
0.000491992
0.000391928
0.000222203
0.000251505
0.000386522
0.000480996
0.000543331
0.000582636
0.000606302
0.000625977
0.000662741
0.000719235
0.000703753
0.000687806
0.000693909
0.000648378
0.000627204
0.000611706
0.000583085
0.000538456
0.000474361
0.000382575
0.000255395
0.000304119
0.0003891
0.000469107
0.000531235
0.000570779
0.00059376
0.00061165
0.000643537
0.00069851
0.000696149
0.000685339
0.000680759
0.000629008
0.000602494
0.00058734
0.000566741
0.000529481
0.000469647
0.000393051
0.000308846
0.000384759
0.000442297
0.000486458
0.000544519
0.000587611
0.000610493
0.000622739
0.000644898
0.000698898
0.000725601
0.000713592
0.000680401
0.000629629
0.000613839
0.000606944
0.000587171
0.000543926
0.000483976
0.00044071
0.000386164
0.00044627
0.000587176
0.000584789
0.000632956
0.000680511
0.000704888
0.000712414
0.000728968
0.000785253
0.000858662
0.000848983
0.000775427
0.000723465
0.000714056
0.000709483
0.000683805
0.00062987
0.00057211
0.000570155
0.000443488
0.000494582
0.000808862
0.000822253
0.000883193
0.000924615
0.000943375
0.000945137
0.00093016
0.000912052
0.000938864
0.000925043
0.00089966
0.000919968
0.000940574
0.000942352
0.000922198
0.000877449
0.000813666
0.000810297
0.000489365
0.000540922
0.000829202
0.0012089
0.0014497
0.00163915
0.0017832
0.00184054
0.00174446
0.00150247
0.00129325
0.00127378
0.00147519
0.00167797
0.00175399
0.00171013
0.00158018
0.00139346
0.001186
0.000804933
0.000533836
0.000586506
0.000651852
0.00070764
0.000760162
0.000813297
0.000864234
0.000911252
0.000952421
0.000987498
0.00101659
0.00101309
0.000983528
0.000946341
0.000902868
0.00085481
0.000803532
0.00075018
0.000698321
0.000644283
0.000580901
0.000146343
0.000174132
0.000187765
0.000195619
0.000202042
0.000208871
0.000218279
0.00023148
0.000245724
0.000256196
0.000242615
0.000226967
0.00021667
0.00020722
0.000198608
0.000190323
0.000181906
0.000172552
0.000158415
0.000131539
0.0001718
0.000421857
0.000515544
0.000577746
0.00062931
0.000675155
0.000723776
0.000770089
0.000756944
0.000630486
0.00060156
0.00071656
0.000732613
0.000695957
0.000652234
0.000606611
0.000555046
0.000491227
0.000397986
0.000161936
0.000182438
0.000420168
0.000522133
0.000586154
0.000632004
0.000671274
0.000713037
0.000745432
0.000675737
0.000550444
0.000530536
0.000636072
0.000715944
0.000694476
0.000657995
0.000618049
0.000568359
0.000498877
0.000392965
0.00018464
0.000223178
0.000375366
0.000483611
0.00055426
0.000600817
0.000633514
0.000662741
0.00068422
0.000603548
0.000567264
0.000562763
0.000575374
0.000663991
0.000652257
0.000628747
0.000596532
0.000546649
0.000472132
0.000366089
0.000230595
0.000291626
0.000358424
0.000442485
0.000518884
0.000574983
0.000613438
0.000643537
0.000663655
0.000583177
0.000629919
0.000630911
0.00056517
0.000649621
0.000633745
0.00060578
0.000569025
0.000515886
0.000443455
0.000362111
0.000294922
0.000378999
0.000406119
0.000443319
0.000509015
0.00056925
0.000612701
0.000644898
0.000666768
0.000597471
0.00072466
0.000714983
0.000579332
0.000656093
0.000640063
0.000612408
0.000571402
0.000510534
0.00044116
0.000401467
0.000378863
0.00044385
0.00054045
0.000540347
0.000597602
0.000659959
0.000702068
0.000728968
0.000755374
0.000737726
0.000870226
0.000834571
0.000717481
0.000752908
0.000734559
0.000709184
0.000662875
0.000590574
0.000519487
0.000514004
0.000438895
0.000494783
0.000800753
0.00080227
0.00086524
0.000909723
0.000931707
0.00093016
0.000911363
0.000904872
0.00100185
0.000959824
0.000879391
0.000897449
0.000919207
0.000920051
0.000891877
0.000838542
0.000769975
0.000786688
0.000487062
0.000543982
0.000832954
0.00122935
0.00145614
0.00164576
0.00175868
0.00174446
0.00158406
0.00139664
0.00142356
0.00139513
0.00135689
0.00152605
0.00166117
0.00166712
0.00155758
0.00136675
0.0011563
0.000788001
0.000533943
0.000593859
0.000663529
0.000723313
0.000780589
0.000839185
0.000896527
0.000952421
0.00100814
0.00106687
0.00112877
0.00112487
0.00106362
0.00100367
0.000945374
0.000887238
0.000828477
0.000768966
0.000711947
0.000653817
0.000586275
0.000144569
0.00017001
0.000184403
0.000195871
0.000206305
0.000216833
0.000229447
0.000245724
0.000262299
0.000269945
0.000255982
0.000242998
0.000229146
0.000214585
0.000202651
0.000192409
0.000182448
0.000171557
0.000156588
0.000130616
0.000173795
0.000456455
0.000562391
0.000639745
0.000708679
0.000757987
0.000787759
0.000756944
0.000611854
0.00074091
0.000703032
0.000565914
0.000711266
0.000732128
0.000695991
0.000649139
0.00059252
0.000527762
0.000432489
0.000160596
0.000185908
0.000443115
0.00055415
0.000640282
0.000711181
0.000761629
0.000776839
0.000675737
0.000551414
0.000976382
0.000966882
0.000510323
0.00063115
0.000727604
0.000708461
0.000661931
0.000601603
0.000526279
0.000421107
0.000176574
0.000197627
0.000396002
0.000507983
0.000589512
0.000654837
0.000704182
0.000719235
0.000603548
0.000597198
0.00127356
0.00128839
0.000576189
0.00056701
0.000680515
0.000665884
0.000624392
0.000569165
0.000493876
0.000377914
0.000203014
0.000281854
0.000338986
0.000437823
0.00053706
0.000615766
0.000675162
0.00069851
0.000583177
0.000692148
0.00157608
0.00160439
0.000697001
0.000555691
0.000668833
0.000645476
0.000592471
0.000521782
0.000430694
0.00033794
0.000281888
0.000372701
0.00038148
0.000412964
0.000490282
0.000582044
0.000659593
0.000698898
0.000597471
0.000800568
0.00182722
0.00185048
0.000800162
0.000574866
0.000678791
0.000641272
0.000570616
0.000485093
0.000405497
0.000373044
0.000370975
0.00043848
0.000502417
0.000507884
0.000579366
0.000667387
0.000739068
0.000785253
0.000737726
0.000938578
0.00198542
0.00199324
0.000927624
0.000716064
0.000780967
0.000734729
0.000655599
0.000556685
0.000474964
0.000472921
0.000432169
0.000490059
0.00077239
0.000771412
0.000840709
0.000890419
0.000913266
0.000912052
0.000904872
0.00108755
0.0020457
0.0020354
0.00106762
0.000869941
0.000884672
0.000881115
0.000846205
0.000782588
0.000714367
0.000752487
0.000481023
0.000540174
0.000808117
0.00119505
0.00139057
0.00154501
0.00158458
0.00150247
0.00139664
0.00152555
0.00201959
0.00200065
0.00150445
0.00134046
0.00142371
0.00149343
0.00144209
0.00127874
0.00107463
0.000751529
0.00052877
0.000594683
0.000666816
0.000729084
0.000789978
0.000853692
0.000918469
0.000987498
0.00106687
0.00116268
0.00126901
0.00126334
0.00116168
0.00106482
0.000982681
0.00091085
0.000843656
0.000778159
0.000716525
0.000655858
0.000585915
0.000142791
0.000166966
0.000181754
0.00019466
0.000207225
0.000220083
0.000236058
0.000256196
0.000269945
0.000278292
0.000263549
0.000253752
0.000242905
0.000222257
0.000205427
0.000192485
0.0001807
0.000169087
0.000154529
0.000130061
0.000176111
0.000474114
0.000594535
0.000687834
0.000769765
0.000811939
0.00079523
0.000630486
0.00074091
0.00049448
0.000458363
0.000682835
0.000575197
0.00072973
0.00072428
0.000678741
0.000615229
0.000546603
0.000447225
0.000158827
0.000190627
0.000466345
0.000592169
0.000704115
0.000802837
0.000841302
0.00075929
0.000550444
0.000976382
0.000734786
0.000689708
0.000926219
0.000488303
0.000688642
0.000756305
0.000717913
0.000644581
0.000564788
0.000461294
0.000174486
0.000201978
0.000418271
0.000526692
0.000642538
0.000744503
0.000793238
0.000703753
0.000567264
0.00127356
0.000991129
0.000937767
0.00124485
0.000510578
0.000633042
0.000719399
0.000679072
0.000605723
0.000526401
0.000434752
0.000183656
0.000279517
0.000332667
0.00045365
0.000582141
0.000699455
0.000771876
0.000696149
0.000629919
0.00157608
0.00127016
0.00120748
0.00157627
0.000589083
0.000627294
0.000708437
0.000648402
0.000555859
0.000439981
0.000329968
0.000272491
0.000368024
0.0003731
0.000402401
0.000508533
0.000656827
0.000766198
0.000725601
0.00072466
0.00182722
0.00156077
0.00148792
0.00184636
0.000692668
0.000653358
0.000709196
0.000609413
0.000481685
0.000386736
0.000359119
0.000363898
0.000431689
0.000483432
0.000496103
0.00059037
0.000725773
0.000847189
0.000858662
0.000870226
0.00198542
0.00183215
0.00175057
0.00201894
0.000823165
0.000780805
0.000789373
0.000674389
0.000538576
0.000451431
0.000454184
0.000425032
0.000481724
0.000734056
0.000731669
0.00081514
0.00088318
0.000924344
0.000938864
0.00100185
0.0020457
0.00203367
0.00194663
0.00209906
0.000942741
0.000842019
0.000839395
0.000797953
0.00073219
0.000671682
0.000726486
0.00047335
0.000530388
0.000761143
0.00109617
0.00127
0.00137469
0.00135899
0.00129325
0.00142356
0.00201959
0.00214332
0.0020632
0.00204595
0.00138655
0.00121374
0.00129056
0.00129765
0.00117353
0.000990501
0.000717013
0.000520288
0.000588082
0.000660541
0.000723023
0.000786711
0.000855425
0.000929461
0.00101659
0.00112877
0.00126901
0.00136121
0.00134083
0.00127268
0.001131
0.00101478
0.00092481
0.000848126
0.000776846
0.000711517
0.000650369
0.000579895
0.000139986
0.000162047
0.000176519
0.000188569
0.000199897
0.000211325
0.000225269
0.000242615
0.000255982
0.000263549
0.000257933
0.000249979
0.000239565
0.000219005
0.000201676
0.000188452
0.000176975
0.000166011
0.000152604
0.000130429
0.000174091
0.000442631
0.000562193
0.00065863
0.000743637
0.000789601
0.000773855
0.00060156
0.000703032
0.000458363
0.000441097
0.000675399
0.000542878
0.000711063
0.000713955
0.000668378
0.000603563
0.000534062
0.000434931
0.000156438
0.000189055
0.000429269
0.000555823
0.000674628
0.00078095
0.000823651
0.000738278
0.000530536
0.000966882
0.000689708
0.000669809
0.000974238
0.000485167
0.000670188
0.000769517
0.000739816
0.000664098
0.000579374
0.000471708
0.000172989
0.000207921
0.000387945
0.000499116
0.000622076
0.000730221
0.000782486
0.000687806
0.000562763
0.00128839
0.000937767
0.000911348
0.00133955
0.000542677
0.000623129
0.000754991
0.000728188
0.000644901
0.000555681
0.000466573
0.00018498
0.000282817
0.000327912
0.000438395
0.000569715
0.000691719
0.000766124
0.000685339
0.000630911
0.00160439
0.00120748
0.00116763
0.00169669
0.000649496
0.00062977
0.000758296
0.000709199
0.000604869
0.000456119
0.000332023
0.000267673
0.000369885
0.000375383
0.000401918
0.000505522
0.00065357
0.000761025
0.000713592
0.000714983
0.00185048
0.00148792
0.00142961
0.00196977
0.000721881
0.000649927
0.000734612
0.000632383
0.00048843
0.000387992
0.000358259
0.000361122
0.000431814
0.000487267
0.000501783
0.000597775
0.000731922
0.000846158
0.000848983
0.000834571
0.00199324
0.00175057
0.0016727
0.00211726
0.000783402
0.000724213
0.000752209
0.000651124
0.000529582
0.000450569
0.000455365
0.000422349
0.000481181
0.000743122
0.000735657
0.000818826
0.000885853
0.000922609
0.000925043
0.000959824
0.0020354
0.00194663
0.00185588
0.002149
0.000875794
0.000789624
0.000797706
0.000770057
0.000719731
0.000670846
0.000734587
0.000470849
0.000529464
0.000767113
0.00108884
0.00126182
0.00136642
0.00135252
0.00127378
0.00139513
0.00200065
0.0020632
0.00197687
0.00205904
0.00136149
0.00120367
0.00129737
0.00129302
0.0011658
0.000987541
0.00072692
0.000517782
0.000586899
0.000658404
0.000720177
0.000783954
0.000852646
0.000926494
0.00101309
0.00112487
0.00126334
0.00134083
0.00131261
0.00127297
0.00113182
0.00101497
0.000924758
0.00084702
0.000774519
0.00070807
0.000646924
0.000576779
0.000137694
0.000158487
0.000172108
0.000182464
0.000191718
0.000201122
0.000212364
0.000226967
0.000242998
0.000253752
0.000249979
0.00023661
0.000219854
0.00020394
0.000192366
0.000182785
0.000173883
0.000164486
0.000152215
0.000131879
0.000170054
0.000390652
0.000496007
0.000580629
0.000651825
0.000708388
0.000744427
0.00071656
0.000565914
0.000682835
0.000675399
0.000512181
0.000658959
0.000687022
0.000657998
0.000612745
0.000557011
0.000494564
0.000403018
0.000153947
0.000185619
0.000380495
0.000488598
0.000583819
0.000661713
0.000722208
0.000741801
0.000636072
0.000510323
0.000926219
0.000974238
0.000492812
0.000591492
0.000718613
0.00072685
0.00068312
0.000615035
0.000536906
0.000433219
0.000169467
0.000215304
0.000353268
0.00046524
0.000549456
0.000618828
0.000674894
0.000693909
0.000575374
0.000576189
0.00124485
0.00133955
0.000615505
0.000548433
0.000705414
0.000718242
0.000675764
0.000612367
0.000525027
0.000399323
0.00018484
0.000288155
0.000335261
0.000416617
0.000508097
0.000588632
0.000652961
0.000680759
0.00056517
0.000697
0.00157627
0.00169669
0.000774061
0.000554688
0.000708901
0.000698404
0.000632739
0.00054103
0.000430931
0.000329709
0.000267121
0.000377955
0.000388498
0.000412471
0.000479672
0.000562063
0.000637914
0.000680402
0.000579332
0.000800162
0.00184636
0.00196977
0.000879412
0.00055166
0.000679362
0.000646651
0.000567901
0.00047548
0.000394789
0.000365712
0.000365783
0.000441063
0.000517597
0.000519065
0.000583236
0.000664445
0.000732485
0.000775427
0.000717481
0.000927624
0.00201894
0.00211726
0.000960844
0.000617975
0.000700909
0.000665319
0.0005999
0.000521599
0.000462911
0.000474301
0.000429016
0.000492044
0.000785151
0.000775624
0.000841837
0.000887366
0.000906073
0.00089966
0.000879391
0.00106762
0.00209906
0.002149
0.00105866
0.000772116
0.000781079
0.00077953
0.0007614
0.000729162
0.000693515
0.000762346
0.000479006
0.000541751
0.000824184
0.00117635
0.00135823
0.00149934
0.00154519
0.00147519
0.00135689
0.00150445
0.00204595
0.00205904
0.00149968
0.00132781
0.00145442
0.0014784
0.00138378
0.00122414
0.00104684
0.000769777
0.000526937
0.00059491
0.000665107
0.000725621
0.000785636
0.000848818
0.00091388
0.000983528
0.00106362
0.00116168
0.00127268
0.00127297
0.00116585
0.0010664
0.000984117
0.000910114
0.000839801
0.000772297
0.000710031
0.000650437
0.000582085
0.00013826
0.000159959
0.000173545
0.000182958
0.000190624
0.000197935
0.000206203
0.00021667
0.000229146
0.000242905
0.000239565
0.000219854
0.000204909
0.000193991
0.000186175
0.000179976
0.000173566
0.000165686
0.000154098
0.000134396
0.000169433
0.000359438
0.000455222
0.000528318
0.000587376
0.000640553
0.000692688
0.000732612
0.000711266
0.000575197
0.000542878
0.000658959
0.000672337
0.000634047
0.00059698
0.000561374
0.000518624
0.000463078
0.000378206
0.000154125
0.000190922
0.000379383
0.000480358
0.000547072
0.000598709
0.000645156
0.000690865
0.000715944
0.00063115
0.000488303
0.000485167
0.000591492
0.000698369
0.000689143
0.000656542
0.000622767
0.000580873
0.000512412
0.000413299
0.000168556
0.000230868
0.000356397
0.000456097
0.000531043
0.00058309
0.000618309
0.000648378
0.000663991
0.00056701
0.000510578
0.000542677
0.000548433
0.000679448
0.000682867
0.000659273
0.000622763
0.000564932
0.000478989
0.000362007
0.00020712
0.000297798
0.000357918
0.000429092
0.000495767
0.000549021
0.000592448
0.000629008