/*--------------------------------*- C++ -*----------------------------------*\
  =========                 |
  \\      /  F ield         | OpenFOAM: The Open Source CFD Toolbox
   \\    /   O peration     | Website:  https://openfoam.org
    \\  /    A nd           | Version:  9
     \\/     M anipulation  |
\*---------------------------------------------------------------------------*/
FoamFile
{
    format      ascii;
    class       surfaceScalarField;
    location    "1000";
    object      phi;
}
// * * * * * * * * * * * * * * * * * * * * * * * * * * * * * * * * * * * * * //

dimensions      [1 0 -1 0 0 0 0];

internalField   nonuniform List<scalar> 
11200
(
-0.00196857
0.00393649
-0.00196857
-0.00347265
0.00333159
-0.00182793
-0.00375141
0.00167274
-0.00139408
-0.00328681
0.000489133
-0.000953729
-0.00257164
-0.000110549
-0.000604597
-0.00188794
-0.000271521
-0.000412177
-0.00124143
-0.000337188
-0.000309311
-0.00066591
-0.000379099
-0.000196409
-0.000145628
-0.000423138
-9.71266e-05
0.000245436
-0.000373577
-1.74776e-05
0.000492662
-0.000271634
2.44052e-05
0.00061107
-0.000177772
5.93502e-05
0.000759618
-0.000161508
1.2946e-05
0.00112619
-0.000270628
-9.59475e-05
0.00176355
-0.00042059
-0.000216769
0.00194577
0.000276185
-0.000458401
0.00188187
0.000751875
-0.000687969
0.00170325
0.000994368
-0.000815744
0.00124667
0.00144319
-0.000986754
0.00267779
-0.00143153
0.0022181
-0.000500143
0.0022181
0.00236188
0.00148377
0.00170369
0.00148294
0.00146202
0.00108946
8.57963e-05
0.00124854
0.000637655
-0.00143263
0.000997313
0.000410564
-0.00195425
0.000251273
-1.16031e-06
-0.00169393
-0.000417653
-0.000179814
-0.000980937
-0.000825752
-0.000266315
-0.000295361
-0.000655182
-0.000453504
0.00033914
-0.000447435
-0.000560622
0.000843827
-0.000225779
-0.000550532
0.00118997
-0.000108012
-0.000415896
0.00143788
-0.000137452
-0.000271968
0.00124417
0.00014174
-0.000218644
0.00023896
0.000599818
-1.51737e-05
-0.00161295
0.00158633
0.000541712
-0.0031178
0.00131101
0.000945615
-0.0037541
-5.20859e-06
0.00163575
-0.00295065
-0.00174457
0.00238416
-0.00312596
0.00285281
0.00300777
-0.00651571
0.00300777
0.00480376
-0.00317486
0.00286254
0.00499542
-0.00105765
0.00232797
0.00406229
0.000430054
0.00175157
0.00272512
0.00107876
0.0012557
0.00123691
0.00084374
0.000895733
-3.48191e-05
0.000227053
0.000627026
-0.000456218
-0.000437656
3.33277e-05
-0.000114908
-0.000478934
-0.000517537
0.000392316
-0.000121566
-0.000833082
0.000723885
0.000270227
-0.00082757
0.000535326
0.000533859
-0.000453313
-0.000423608
0.000675045
0.000146433
-0.0018697
0.000974628
0.000613185
-0.00334255
0.00114178
0.000930857
-0.00414033
0.00108574
0.00129835
-0.00440513
-0.000171276
0.00174705
-0.00392894
-0.00268144
0.00220004
-0.00254758
-0.00572987
0.00260392
-0.00846464
0.00279108
0.00165833
-0.00983238
0.00165833
0.0031183
-0.00671691
0.00208206
0.00386757
-0.00393054
0.0021236
0.00402353
-0.00167489
0.00194898
0.00368202
-0.000278731
0.00169901
0.00298336
9.90001e-05
0.00144341
0.00208023
-1.96671e-05
0.00114987
0.000954303
-4.89469e-05
0.000737231
0.000230756
6.81049e-05
0.00017651
0.000142819
0.000282449
-0.000316084
0.000109855
0.000540614
-0.000237443
-0.000497095
0.000728705
0.000412068
-0.00157241
0.000695723
0.0010546
-0.00244521
0.000468802
0.00137859
-0.002923
3.25167e-05
0.00158704
-0.00281426
-0.000809334
0.00178631
-0.00243404
-0.00247316
0.00192165
-0.00193526
-0.00511323
0.001933
-0.00124974
-0.00823044
0.00181503
-0.0112015
0.00148711
0.000760102
-0.0113526
0.000760103
0.00108834
-0.00850914
0.00146395
0.00111496
-0.00580589
0.00184871
0.00109713
-0.00377594
0.00211886
0.00107099
-0.00245404
0.00220144
0.000918408
-0.00184505
0.00209664
0.000589237
-0.00159671
0.00190622
0.000200442
-0.00132014
0.00165999
-0.000104753
-0.00102513
0.00139842
-0.000110041
-0.000907441
0.00119516
5.2694e-05
-0.000854153
0.001232
0.000140813
-0.000854969
0.00149552
9.84272e-05
-0.00104872
0.00178679
2.4461e-05
-0.00149373
0.00203647
-3.46092e-05
-0.00213402
0.00222559
-8.49912e-05
-0.00302029
0.00226133
-0.000133904
-0.00446881
0.00204456
-0.000347732
-0.00663099
0.00173156
-0.000466449
-0.00943999
0.00132825
-0.0123101
0.000642098
0.0001338
-0.0116203
0.000133801
-0.000307007
-0.0091916
0.00112324
-0.000811233
-0.00695723
0.00165554
-0.001125
-0.00546563
0.00200342
-0.00123289
-0.00454763
0.00220145
-0.00120489
-0.00406313
0.00219005
-0.00110892
-0.00377508
0.00208238
-0.000896647
-0.00351803
0.0019856
-0.000558755
-0.00329233
0.00192929
-0.000182017
-0.00317174
0.00188754
0.000239616
-0.00311754
0.00184173
0.000728924
-0.00320149
0.00185719
0.00118775
-0.00344762
0.00194005
0.00149278
-0.00384421
0.00204543
0.00160868
-0.00435742
0.00210749
0.00155025
-0.00501846
0.00205657
0.00125482
-0.00602736
0.00185395
0.000683122
-0.00758316
0.00152385
5.98613e-05
-0.00984109
0.00102433
-0.0122761
2.5891e-05
-0.000325617
-0.0109691
-0.000325616
-0.00125311
-0.00908109
0.000816951
-0.00202042
-0.00749068
0.00130072
-0.00244911
-0.00657493
0.00153796
-0.00253512
-0.00608458
0.00162292
-0.00236116
-0.00585586
0.00161874
-0.00198767
-0.00572669
0.00157809
-0.00145836
-0.0055899
0.00154253
-0.000859886
-0.00543605
0.00154521
-0.000285717
-0.00529813
0.00155219
0.000320939
-0.00520817
0.00148395
0.00102544
-0.00529756
0.00139154
0.00171497
-0.00550285
0.00136567
0.00224744
-0.00576321
0.00138651
0.00254756
-0.00606325
0.00140568
0.00254571
-0.0064202
0.00140357
0.00216658
-0.0069836
0.00133535
0.00139934
-0.0079493
0.00113334
0.000420338
-0.00956423
0.000702113
-0.0114624
-0.000393446
-0.000823307
-0.00932248
-0.000823307
-0.00211551
-0.00797608
0.000187152
-0.0030834
-0.00705205
0.000529218
-0.00357189
-0.00663155
0.000545074
-0.00360483
-0.00646115
0.000409473
-0.00328164
-0.00641681
0.000237737
-0.00267951
-0.00639848
6.96203e-05
-0.00191466
-0.00634574
-9.04766e-06
-0.00111064
-0.00623171
-8.38507e-06
-0.000391542
-0.00608251
6.52495e-05
0.000350117
-0.00597963
2.97745e-05
0.00127838
-0.00608607
-0.000139775
0.00219407
-0.00624703
-0.000171536
0.00294082
-0.00638318
-0.000126809
0.00339585
-0.00649754
-2.0777e-05
0.00348253
-0.00661445
0.000107541
0.0030692
-0.00685253
0.000282219
0.00214448
-0.00732567
0.000301059
0.000879132
-0.00828442
-1.44952e-05
-0.00968499
-0.00089828
-0.00162886
-0.00606479
-0.00162886
-0.00326805
-0.00535353
-0.000983398
-0.0043323
-0.00503688
-0.000950954
-0.00480068
-0.00503555
-0.00112766
-0.00474184
-0.00514064
-0.00137938
-0.00426433
-0.00528769
-0.00160666
-0.00346151
-0.00541581
-0.00178552
-0.00244859
-0.00548427
-0.00187442
-0.00138842
-0.00546142
-0.00183048
-0.000467003
-0.00536779
-0.00163616
0.000476104
-0.00528303
-0.00163973
0.00168416
-0.00537312
-0.00192103
0.00285062
-0.00542651
-0.00198702
0.00379509
-0.00539558
-0.0019321
0.00440323
-0.00530344
-0.00180227
0.00458676
-0.00519515
-0.00160286
0.00422421
-0.00513316
-0.00135685
0.00324494
-0.00517441
-0.00117202
0.00166479
-0.00552654
-0.00117776
-0.0062867
-0.00173353
-0.00303242
-0.00303241
-0.00508771
-0.00329828
-0.00616926
-0.00395536
-0.00657232
-0.00463252
-0.00642128
-0.00529171
-0.00580857
-0.00590042
-0.00480007
-0.00642433
-0.00346451
-0.00681985
-0.00193422
-0.00699173
-0.000540929
-0.0067611
0.000934926
-0.0067589
0.00262137
-0.00705957
0.00412446
-0.00692962
0.00528926
-0.0065604
0.00604836
-0.00606257
0.00633738
-0.00548419
0.00606094
-0.00485675
0.00508813
-0.00420163
0.00309802
-0.00353646
-0.00318871
-0.00182793
0.00333159
-0.00347265
-0.00285297
0.00204987
-0.00285297
-0.00299607
0.000860923
-0.00211196
-0.00258862
7.76697e-05
-0.00143883
-0.00199778
-0.000273604
-0.000921795
-0.00140492
-0.000402749
-0.000602265
-0.000840253
-0.000453564
-0.000420397
-0.000332063
-0.000442033
-0.000262546
3.8953e-05
-0.000339501
-0.000128633
0.000242702
-0.000192522
-2.87154e-05
0.000277792
-4.55278e-05
3.48106e-05
0.000282395
-2.02549e-05
7.49635e-05
0.000399177
-0.000112696
8.83515e-06
0.000729434
-0.000266754
-0.000159455
0.00129646
-0.000415965
-0.000367829
0.00147841
0.000100122
-0.00074047
0.00140993
0.000451722
-0.00107121
0.00122086
0.000662034
-0.00128871
0.000885881
0.000891409
-0.00154324
0.00152599
-0.00207182
0.00170369
0.00148377
0.00236188
0.00196626
0.0015245
0.00196626
0.00138453
0.00123633
0.00129567
0.000388188
0.00101285
0.000698779
-0.000652223
0.000776608
0.000400751
-0.00117712
0.000113445
7.55887e-06
-0.00106031
-0.00055721
-0.00019295
-0.000596113
-0.000884142
-0.000288367
-0.000136467
-0.000737268
-0.00051536
0.000261737
-0.000468209
-0.000683127
0.000545439
-0.000226473
-0.000653291
0.000733023
-0.000181944
-0.000441794
0.000907336
-0.000308107
-0.000250866
0.000634112
2.21733e-06
-0.000214383
-0.000238044
0.000422813
1.82184e-05
-0.00159673
0.00137868
0.000621805
-0.00275253
0.00134257
0.0012105
-0.00319257
0.000578128
0.00215962
-0.0023842
-0.000656304
0.00312345
-0.00161167
0.00360618
0.00286254
-0.00317486
0.00480376
0.00441377
-0.00157804
0.00441377
0.00468513
-0.000321164
0.00361407
0.0039568
0.000798956
0.00269376
0.00287156
0.00118008
0.00193743
0.00163319
0.000869041
0.0013785
0.000631076
0.000190366
0.000881569
9.2645e-05
-0.000540975
0.000228613
7.63384e-05
-0.000787178
-0.000451302
0.000269025
-0.000601688
-0.000892276
0.000391485
-0.000307131
-0.000869367
5.70076e-05
0.000100442
-0.000401223
-0.000856424
0.000424535
0.000327221
-0.00205073
0.000892746
0.000916953
-0.00337269
0.00120883
0.00146678
-0.00410745
0.00132929
0.00208247
-0.00441993
0.000585312
0.00281677
-0.00386694
-0.00139174
0.0036169
-0.00242087
-0.00373033
0.00423186
-0.00562641
0.00438494
0.00208206
-0.00671692
0.0031183
0.00366712
-0.00474819
0.00366712
0.0044564
-0.0025875
0.00360064
0.00456193
-0.000543768
0.00318617
0.0040557
0.000716284
0.00266904
0.00327874
0.000893983
0.00219543
0.00238208
0.000533514
0.0017034
0.00137459
0.000178573
0.00102518
0.00054862
2.77182e-05
0.000187595
0.000109462
4.557e-05
-0.00052418
-0.00029502
0.000298394
-0.000438485
-0.00106687
0.00079564
0.000488711
-0.00209017
0.00110144
0.00140097
-0.00296216
0.00117343
0.00196988
-0.00362892
0.00108068
0.00238193
-0.00383071
0.000509525
0.00280786
-0.00347747
-0.00103417
0.00318788
-0.00274446
-0.00356649
0.00337473
-0.00164507
-0.00614363
0.00312892
-0.00818165
0.00239726
0.00146395
-0.00850914
0.00108834
0.00234307
-0.00650646
0.00234307
0.0026973
-0.00405981
0.00296676
0.00285019
-0.00174236
0.00316455
0.00279237
-8.80116e-05
0.00306356
0.00239508
0.000582338
0.00280558
0.00178673
0.000601605
0.00244649
0.00106475
0.000583386
0.00197717
0.000404062
0.000699724
0.00138711
7.03052e-05
0.0007531
0.000821389
-0.000162328
0.00091126
0.000851764
-0.000570291
0.00115434
0.00154476
-0.00108322
0.00124235
0.00215879
-0.00159581
0.00108715
0.00263533
-0.00194238
0.000657637
0.00299519
-0.00202535
-0.000353508
0.00320732
-0.00195906
-0.00219046
0.00313455
-0.00180925
-0.00475799
0.00277324
-0.00125114
-0.00736792
0.00199441
-0.00940482
0.0006141
0.00112324
-0.0091916
-0.000307006
0.00144364
-0.00714729
0.00144364
0.00129776
-0.00470304
0.00244463
0.00107702
-0.00246424
0.00294601
0.000945039
-0.000890769
0.00313618
0.000796226
-0.000113595
0.00303479
0.000475746
0.000234153
0.00277031
0.000152961
0.000439819
0.00245195
-9.36916e-06
0.000624804
0.00216653
6.36856e-07
0.00069673
0.0019339
6.82991e-05
0.00081652
0.0018688
4.04326e-05
0.000926322
0.00211306
-7.8052e-05
0.000848886
0.00245198
-0.000243602
0.000515917
0.0027822
-0.000392063
-0.000103098
0.00301667
-0.0006237
-0.00110065
0.00303533
-0.000937294
-0.0027988
0.00277587
-0.00120697
-0.00519176
0.00222728
-0.00104385
-0.00767811
0.00117138
-0.00979711
-0.000625691
0.000816951
-0.00908109
-0.00125311
0.000717584
-0.00694859
0.000717584
0.000260741
-0.00479843
0.00185292
-6.8895e-05
-0.00301727
0.00242061
-0.000248284
-0.00176291
0.00267444
-0.000319387
-0.00105224
0.00262847
-0.000359866
-0.0006354
0.00248811
-0.000346758
-0.000380282
0.00234951
-0.000248614
-0.00017235
0.0022442
-8.56647e-05
-3.40543e-05
0.00212001
8.30061e-05
0.000104163
0.00202763
0.000278182
5.3239e-05
0.00206944
0.000463568
-0.00015603
0.00218519
0.00054241
-0.000489963
0.00231353
0.000460549
-0.00101493
0.00239936
0.000234358
-0.00185842
0.00238751
-0.000125754
-0.00321463
0.00211127
-0.000647252
-0.00509893
0.00156199
-0.000805132
-0.00726327
0.000445118
-0.0095085
-0.00148721
0.000187152
-0.00797608
-0.00211551
-0.000229333
-0.00611566
-0.000229333
-0.00089583
-0.00441311
0.000810365
-0.00126786
-0.00330968
0.00120948
-0.00136344
-0.0025768
0.00131892
-0.00128391
-0.00213658
0.00124253
-0.00109521
-0.00185117
0.00109667
-0.000836291
-0.00163017
0.000981907
-0.000532284
-0.00143466
0.000949899
-0.000227707
-0.00124118
0.000967783
0.000100839
-0.00111257
0.000917944
0.000510074
-0.00127105
0.000775257
0.000898539
-0.00147189
0.000755843
0.00117707
-0.00172349
0.000828171
0.00128378
-0.0020589
0.000916469
0.00121786
-0.00259257
0.000907582
0.000883585
-0.00340618
0.000808026
0.000211447
-0.00457957
0.000453814
-0.000191798
-0.00630091
-0.000573633
-0.00826783
-0.00233077
-0.000983399
-0.00535353
-0.00326805
-0.00202682
-0.00402885
-0.00202682
-0.00280068
-0.00317227
-0.00141798
-0.0031757
-0.00274719
-0.00131516
-0.00312949
-0.00251445
-0.00148797
-0.00281223
-0.00240842
-0.00165212
-0.00228332
-0.00233379
-0.00183182
-0.00164116
-0.00223727
-0.0019095
-0.000995208
-0.0020769
-0.0018342
-0.000410671
-0.00180344
-0.00165845
0.000210875
-0.00168002
-0.00169385
0.000959133
-0.00192373
-0.00201662
0.00169948
-0.00210269
-0.00209659
0.00234694
-0.00222651
-0.00207656
0.00281767
-0.00232252
-0.00200941
0.00298704
-0.00246258
-0.00190223
0.00270953
-0.00273414
-0.00175141
0.00199831
-0.00320129
-0.00183911
0.00100035
-0.00410271
-0.00237803
-0.00550564
-0.0034954
-0.00329828
-0.00508771
-0.00531272
-0.00531272
-0.00635007
-0.0060903
-0.00672686
-0.00700294
-0.00659463
-0.0079384
-0.00605178
-0.00885171
-0.00514556
-0.00966435
-0.00390097
-0.0103017
-0.00235499
-0.0106146
-0.000548198
-0.0103713
0.00135702
-0.0103441
0.00305233
-0.0106786
0.00446061
-0.0104406
0.00552637
-0.00985267
0.00621851
-0.00907725
0.00648647
-0.00821474
0.00623056
-0.00733499
0.00528933
-0.00646171
0.00332812
-0.00567799
-0.00536626
-0.00139408
0.00167274
-0.00375141
-0.00211196
0.000860923
-0.00299607
-0.0022067
0.000189489
-0.0022067
-0.00192501
-0.000190356
-0.00153012
-0.00146505
-0.000384018
-0.000997698
-0.000946719
-0.000495818
-0.000624741
-0.000441586
-0.000535584
-0.000389916
-9.96522e-06
-0.000501974
-0.000192162
0.000243967
-0.00033977
-4.2786e-05
0.000267177
-0.000120319
6.83725e-05
0.000121951
4.42909e-05
0.000135703
1.66133e-05
2.92464e-05
0.00015101
7.51998e-05
-0.000115093
6.5315e-05
0.000345397
-0.000278088
-0.000151567
0.000843588
-0.000468805
-0.000397208
0.00106331
-0.000153489
-0.000806691
0.00104548
0.000164874
-0.00121826
0.00088374
0.000385382
-0.00151236
0.00059478
0.000550609
-0.0018049
0.000797257
-0.00227432
0.00108946
0.00146202
0.00148294
0.00129567
0.00123633
0.00138453
0.000904182
0.000972429
0.000904182
0.000204226
0.000810623
0.000397733
-0.000478338
0.000542988
0.000156299
-0.000820697
-5.71182e-05
-8.87682e-05
-0.000689938
-0.000705026
-0.000154229
-0.000336971
-0.000964375
-0.000178899
-3.05372e-05
-0.000814106
-0.000347434
0.000231573
-0.000560819
-0.000504728
0.000396847
-0.000317052
-0.000457228
0.00049077
-0.000263727
-0.00024275
0.000641552
-0.00043985
-7.6885e-05
0.000511492
-0.000247215
-0.000115184
-6.02473e-05
0.000143186
-2.2016e-05
-0.00100949
0.00100508
0.00041246
-0.00186578
0.00129639
0.000935248
-0.00217652
0.00103897
0.00181671
-0.0015789
0.000421016
0.00265538
-0.000130347
0.00295486
0.00232797
-0.00105765
0.00499542
0.00361407
-0.000321165
0.00468513
0.00386157
0.00047739
0.00386157
0.00335798
0.00109093
0.002917
0.00251597
0.00119799
0.00212443
0.00152647
0.000791172
0.00151971
0.000698409
5.04371e-05
0.00095417
0.000261731
-0.000705601
0.000406539
0.000149181
-0.000989534
-0.000163303
0.000219294
-0.000918144
-0.000605049
0.000262381
-0.000661313
-0.000568185
3.20641e-07
-0.000313979
-8.89066e-05
-0.00072974
0.000122161
0.000495269
-0.00174362
0.000665346
0.00101827
-0.00288729
0.001127
0.00162662
-0.00355888
0.00135734
0.00240178
-0.00384111
0.00117374
0.00322165
-0.00330522
-3.38675e-05
0.00415385
-0.00203492
-0.00140923
0.00479182
-0.00266397
0.00488365
0.0021236
-0.00393054
0.00386756
0.00360064
-0.0025875
0.0044564
0.00438043
-0.0010822
0.00438043
0.00444638
0.000367978
0.00384316
0.00394883
0.00117756
0.00318701
0.00319712
0.00115059
0.00258772
0.0023244
0.000626911
0.00199966
0.00136756
1.75319e-05
0.00125891
0.000596964
-0.000493932
0.000462602
0.00013784
-0.00073154
-0.000251646
-0.000323694
-0.000436659
-0.000201598
-0.00115208
0.000318527
0.00068459
-0.00215961
0.00091763
0.00161303
-0.00305372
0.00122445
0.00230487
-0.00373904
0.0013543
0.00283994
-0.00407705
0.00107022
0.00343298
-0.00375985
4.91547e-05
0.00399526
-0.00297309
-0.0017127
0.00426679
-0.00175085
-0.00349036
0.0039878
-0.00503668
0.00301911
0.00184871
-0.00580589
0.00111496
0.00296676
-0.00405981
0.0026973
0.00356968
-0.00228805
0.00356968
0.00378932
-0.000454784
0.00376767
0.0036142
0.000857398
0.00355884
0.00310428
0.00127671
0.0031894
0.00240148
0.00104618
0.00273004
0.00158196
0.000671612
0.00214263
0.000749442
0.000388501
0.00133722
0.000114128
0.000199797
0.00052538
-0.000425929
0.000398786
0.000556386
-0.00111553
0.000990273
0.00156261
-0.00184924
0.00139857
0.00241155
-0.00254051
0.00155402
0.00299702
-0.00304146
0.00139689
0.00345355
-0.00320328
0.000658823
0.00378053
-0.00302071
-0.000829289
0.00383041
-0.00256693
-0.00277422
0.00338096
-0.00167327
-0.00463585
0.00224622
-0.00653568
0.00043981
0.00165554
-0.00695723
-0.000811233
0.00244463
-0.00470304
0.00129776
0.00267342
-0.00274566
0.00267342
0.0026404
-0.000827664
0.00335189
0.00247445
0.000613356
0.00354616
0.00211314
0.0012664
0.00340641
0.00156354
0.00128059
0.0030855
0.000938078
0.0010981
0.00265093
0.000389356
0.000970124
0.00213364
5.24858e-05
0.000885799
0.00158477
-0.000216112
0.00100738
0.00152881
-0.000611433
0.00135701
0.00214164
-0.00109025
0.00160529
0.00272407
-0.00156494
0.00163278
0.00317813
-0.00195312
0.00132603
0.00347571
-0.00221513
0.000419481
0.00353667
-0.0023756
-0.00109344
0.00320048
-0.00225823
-0.00306012
0.00239579
-0.00157926
-0.00503654
0.000893084
-0.00746769
-0.00127296
0.00130071
-0.00749068
-0.00202042
0.00185291
-0.00479843
0.000260742
0.00187103
-0.00278192
0.00187104
0.00167172
-0.000946497
0.00273874
0.00144051
0.000419025
0.00309996
0.00119781
0.00103041
0.00310714
0.000881081
0.00114348
0.00294195
0.000521074
0.00108696
0.00272066
0.000201824
0.00103675
0.00249682
-3.09668e-05
0.00101497
0.00222363
-0.000218008
0.00111486
0.00210718
-0.000403555
0.00130627
0.00230572
-0.000613982
0.00143569
0.00256522
-0.000862851
0.00140439
0.00279078
-0.00114276
0.00109954
0.00290575
-0.00147501
0.000328898
0.00281034
-0.00174178
-0.00108897
0.00237355
-0.0017719
-0.00295078
0.00148274
-0.00125223
-0.00496255
-0.000148566
-0.0078419
-0.00236527
0.000529218
-0.00705205
-0.0030834
0.000810365
-0.00441311
-0.00089583
0.000645404
-0.00245203
0.000645405
0.000455839
-0.00102737
0.0014799
0.000423941
-0.000146991
0.00191682
0.000358386
0.000384458
0.00195403
0.000266966
0.000514267
0.0018173
0.000176332
0.00050307
0.00165643
8.81116e-05
0.000538314
0.00153656
-0.000118463
0.000773998
0.00141533
-0.000298942
0.000907133
0.00130615
-0.000350612
0.000831132
0.00130206
-0.000363453
0.000821747
0.00138262
-0.000382365
0.000762047
0.00148942
-0.000409992
0.000506361
0.00153727
-0.00043266
-0.000129747
0.00138888
-0.00062294
-0.00103127
0.000940587
-0.00075604
-0.00247468
0.000110796
-0.000473617
-0.00450231
-0.00131632
-0.00725957
-0.00338674
-0.000950954
-0.00503688
-0.0043323
-0.00141798
-0.00317227
-0.00280068
-0.0016561
-0.00197581
-0.0016561
-0.00169037
-0.00127205
-0.00103624
-0.00146239
-0.000801716
-0.00106124
-0.00106028
-0.000504065
-0.00116572
-0.000698765
-0.000330813
-0.00134827
-0.000475391
-0.000140416
-0.00148939
-0.000384287
8.50463e-05
-0.00147205
-0.00037123
0.00043269
-0.00133021
-0.00032478
0.000539187
-0.00137236
-0.00013566
0.000243052
-0.00161767
0.000228038
4.2051e-05
-0.0016806
0.000715934
-0.000126441
-0.00167598
0.00124402
-0.000374637
-0.00165651
0.00157247
-0.000705004
-0.00165544
0.00162297
-0.00119412
-0.00163907
0.0014411
-0.00192885
-0.00220309
0.000987665
-0.00317743
-0.0032495
-0.00512737
-0.00463997
-0.00395536
-0.00616926
-0.0060903
-0.00635007
-0.00707822
-0.00707822
-0.00735104
-0.00800218
-0.00712931
-0.00896186
-0.00653284
-0.00995225
-0.00561868
-0.0109093
-0.00434327
-0.0117176
-0.00267437
-0.0121985
-0.000567013
-0.012046
0.00164476
-0.0120167
0.00346908
-0.0122599
0.00491053
-0.01184
0.00600419
-0.0110728
0.00673531
-0.010183
0.00708068
-0.00926513
0.00693487
-0.00838332
0.00605333
-0.00750904
0.00397722
-0.00677933
-0.00651643
-0.000953728
0.000489133
-0.00328681
-0.00143883
7.76697e-05
-0.00258862
-0.00153012
-0.000190356
-0.00192501
-0.0013549
-0.000350408
-0.0013549
-0.000994842
-0.0004838
-0.000873906
-0.000533262
-0.000594017
-0.000492259
-6.8252e-05
-0.000633117
-0.000221763
0.000306149
-0.000592655
2.61373e-05
0.000451451
-0.000400301
0.00021223
0.000297212
-0.0001468
0.000369394
-2.49592e-05
1.934e-05
0.000438492
-0.000247643
-2.12255e-06
0.000375774
-0.000234126
-0.000158167
0.000209945
-5.26658e-06
-0.000327837
-5.25839e-05
0.000370095
-0.00047488
-0.000297674
0.000664613
-0.00041568
-0.000685515
0.000724874
-0.00014186
-0.00113665
0.000619275
6.99852e-05
-0.00147674
0.000392573
0.000190942
-0.00176913
0.000279664
-0.0021614
0.000637655
0.00124854
8.57962e-05
0.000698779
0.00101285
0.000388188
0.000397733
0.000810623
0.000204225
-7.90484e-05
0.000603141
-7.90488e-05
-0.000451733
0.000212538
-0.000167355
-0.000568071
-0.000408229
-0.000158187
-0.000398531
-0.000913912
-4.29311e-05
-0.000135013
-0.00108208
4.70496e-05
6.96715e-05
-0.000960672
8.28206e-06
0.000227237
-0.000728838
-8.02411e-05
0.000289961
-0.000480465
-2.01454e-05
0.000323006
-0.000400929
0.000123012
0.000435351
-0.000530541
0.000183154
0.000468273
-0.000551372
7.5446e-05
0.000181466
-0.00019218
-1.78865e-05
-0.000323865
0.000359753
0.000142361
-0.000925517
0.000972195
0.000422835
-0.00119636
0.00114825
0.00100928
-0.00089113
0.00100859
0.00153249
0.000829336
0.00151403
0.00175157
0.000430054
0.00406229
0.00269376
0.000798956
0.0039568
0.002917
0.00109093
0.00335798
0.00259715
0.00124282
0.00259715
0.00197138
0.00104899
0.00191375
0.00121394
0.000503424
0.00136551
0.000597717
-0.00026565
0.000922143
0.000294379
-0.000953584
0.000581405
0.000190874
-0.00125394
0.000233498
0.000205806
-0.0012556
-9.32015e-05
0.000206537
-0.000995632
-5.37355e-05
3.32488e-05
-0.000640155
0.000323616
-0.000426167
-0.000264524
0.000688673
-0.00121799
0.000240558
0.00101817
-0.00212753
0.000822175
0.0015218
-0.00277549
0.00117409
0.00223541
-0.00295115
0.00135837
0.00301113
-0.00256584
0.00112301
0.00379378
-0.00159677
0.00048428
0.00434708
-0.000278401
0.00439464
0.00194898
-0.00167489
0.00402353
0.00318617
-0.000543769
0.00456193
0.00384316
0.000367978
0.00444638
0.00391383
0.00110147
0.00391383
0.00352011
0.00136065
0.00326907
0.00286699
0.00107548
0.0026688
0.00207497
0.000439114
0.00208693
0.00125199
-0.000327941
0.00145627
0.000596798
-0.000952859
0.000816725
0.000156434
-0.0012891
0.000222237
-0.000287833
-0.00100583
0.000252883
-0.00101408
-0.00021961
0.000990295
-0.00192802
0.00050973
0.00175271
-0.00279408
0.000983896
0.00242759
-0.00339739
0.00126203
0.00300338
-0.003704
0.00129833
0.00361535
-0.00348981
0.000929984
0.00420946
-0.00277031
0.000107449
0.00456285
-0.00169561
-0.000924797
0.00432218
-0.00232759
0.00337269
0.00211886
-0.00377594
0.00109713
0.00316455
-0.00174236
0.00285019
0.00376767
-0.000454784
0.00378932
0.0039926
0.000651604
0.0039926
0.00381128
0.00133692
0.00376389
0.00331567
0.00139183
0.00336865
0.00262539
0.000956972
0.00290248
0.00178194
0.000356438
0.00230172
0.000883036
-0.000233395
0.00151667
0.000112719
-0.000734572
0.000741189
-0.000617852
-0.000476413
0.000757553
-0.00143303
0.000422486
0.0017357
-0.00222548
0.00107785
0.00263588
-0.00291696
0.00143897
0.00323341
-0.00342262
0.00152529
0.00369594
-0.00360286
0.0012068
0.0040523
-0.00340422
0.00041606
0.0041457
-0.00290036
-0.000700032
0.00368456
-0.0020147
-0.00200142
0.00243717
-0.00429976
0.000397274
0.00200342
-0.00546563
-0.001125
0.002946
-0.00246424
0.00107702
0.00335189
-0.000827665
0.0026404
0.00344675
0.00046189
0.00344675
0.00329434
0.00134939
0.00368609
0.00289659
0.00161617
0.00357983
0.00228565
0.00137459
0.00327883
0.00153411
0.000928342
0.00283058
0.000751511
0.000469382
0.00221348
6.92425e-05
2.30789e-05
0.00150941
-0.000567379
0.000221668
0.00146736
-0.00123561
0.000952621
0.00227974
-0.00187667
0.00147583
0.00296714
-0.0024414
0.00174855
0.00343328
-0.00286252
0.00171784
0.00370428
-0.0030894
0.0012499
0.00372045
-0.00310325
0.000313217
0.00331717
-0.00281193
-0.000915651
0.00232007
-0.00194992
-0.00255966
0.000589291
-0.00587078
-0.00165189
0.00153796
-0.00657493
-0.00244911
0.00242061
-0.00301727
-6.88944e-05
0.00273874
-0.000946497
0.00167172
0.00268483
0.000569695
0.00268483
0.00253806
0.00139824
0.00319788
0.00228102
0.00165442
0.00332594
0.00187965
0.00148591
0.00323201
0.00133149
0.00118199
0.00301518
0.000669051
0.000922843
0.00270581
-4.58649e-05
0.000760058
0.00220157
-0.000705242
0.000882157
0.00210608
-0.00122078
0.00123894
0.00253495
-0.00163391
0.00157081
0.00288336
-0.00197728
0.00177848
0.00310422
-0.00225686
0.00175944
0.00314373
-0.00247273
0.00136646
0.00290965
-0.00260905
0.000547136
0.00227594
-0.00234789
-0.000896545
0.00120246
-0.00147737
-0.00303225
-0.000546514
-0.00685682
-0.00285663
0.000545074
-0.00663155
-0.00357189
0.00120948
-0.00330968
-0.00126786
0.0014799
-0.00102737
0.000455839
0.00155163
0.000426229
0.00155163
0.00152203
0.0012639
0.00208075
0.0014578
0.00142
0.00225268
0.00129472
0.00125659
0.0022097
0.00100287
0.0010615
0.00206878
0.000565174
0.000996484
0.00190062
-0.00014208
0.00119203
0.00169062
-0.000831753
0.00131021
0.00156778
-0.00121938
0.00126788
0.00166075
-0.00140457
0.0013618
0.00177682
-0.0014716
0.00148049
0.00185443
-0.00148787
0.00151102
0.00180195
-0.00151205
0.00125883
0.00152068
-0.00142747
0.000477673
0.000925458
-0.00115819
-0.000935026
-0.000120017
-0.000458966
-0.00329454
-0.00175328
-0.00677485
-0.00392771
-0.00112766
-0.00503555
-0.00480068
-0.00131516
-0.00274719
-0.0031757
-0.00103624
-0.00127205
-0.00169037
-0.000685497
-0.00027527
-0.000685497
-0.000314579
0.000258806
-0.00042708
-1.34362e-05
0.000410953
-0.000457823
0.000125616
0.000465743
-0.000696478
8.30947e-05
0.000572871
-0.00095825
-8.56572e-05
0.000797554
-0.00110437
-0.000396295
0.00125151
-0.00107905
-0.000695493
0.00136169
-0.00112464
-0.000726612
0.000941553
-0.00126023
-0.000540127
0.000721872
-0.00122716
-0.0002075
0.000593665
-0.00112179
0.000212432
0.000495865
-0.0010613
0.000643592
0.000316736
-0.00114451
0.00105901
-0.000132426
-0.0014444
0.00137365
-0.00116153
-0.00229125
0.00118888
-0.00269336
-0.00366593
-0.00507888
-0.00514708
-0.00463252
-0.00657232
-0.00700294
-0.00672686
-0.00800218
-0.00735104
-0.00813982
-0.00813982
-0.00779245
-0.00905043
-0.00717558
-0.0101582
-0.00627472
-0.0113444
-0.00496665
-0.0124527
-0.00312518
-0.0132424
-0.000594424
-0.0133252
0.00206988
-0.0133193
0.00408273
-0.0133312
0.00556026
-0.0125957
0.00662745
-0.0115463
0.00737486
-0.0104346
0.007824
-0.00939753
0.00782939
-0.00852116
0.00695501
-0.0077962
0.0046538
-0.00717149
-0.00694154
-0.000604597
-0.000110549
-0.00257164
-0.000921795
-0.000273604
-0.00199778
-0.000997697
-0.000384018
-0.00146505
-0.000873906
-0.0004838
-0.000994842
-0.000578485
-0.000590792
-0.000578485
-0.000163252
-0.000690644
-0.000216793
0.000284291
-0.000774775
0.00010554
0.000632733
-0.000730034
0.000407795
0.000667597
-0.000520359
0.000697758
0.000325033
-0.000250801
0.000962756
-0.000198746
-6.82915e-05
0.00103053
-0.000529922
-8.14943e-05
0.000788414
-0.000561534
-0.00024255
0.0004841
-0.000365393
-0.000412109
0.000163406
-4.03955e-05
-0.000504248
-0.000118393
0.000262062
-0.000565109
-0.000422837
0.000394198
-0.00046043
-0.000808325
0.000372922
-0.000309611
-0.00114582
0.000242719
-0.000200094
-0.0014388
-0.000118822
-0.00179983
0.000410564
0.000997313
-0.00143263
0.000400751
0.000776608
-0.000652223
0.0001563
0.000542988
-0.000478338
-0.000167354
0.000212538
-0.000451734
-0.000336365
-0.000252749
-0.000336365
-0.00028594
-0.000788391
-0.000110822
-0.00011471
-0.00113548
0.00014659
7.08722e-05
-0.00123246
0.000363937
0.000201874
-0.00114367
0.000500631
0.000252292
-0.000934285
0.000552849
0.000222861
-0.000676691
0.000617696
0.00018216
-0.000562431
0.000644659
0.000225585
-0.000654023
0.000551219
0.000307984
-0.000778621
0.000359582
0.000247569
-0.000584873
0.000123183
4.08437e-05
-0.000241291
2.52944e-05
-0.000328315
0.0002959
3.5665e-05
-0.000601283
0.000748123
0.000224505
-0.000567498
0.000955268
0.000343329
0.0010567
-0.000229004
0.0012557
0.00107876
0.00272512
0.00193743
0.00118008
0.00287156
0.00212443
0.00119799
0.00251597
0.00191375
0.00104899
0.00197138
0.00146084
0.000653081
0.00146084
0.000928877
3.28379e-05
0.00107625
0.000533825
-0.000687648
0.000869392
0.000332718
-0.00123311
0.0007832
0.000238525
-0.00150264
0.000686694
0.000222316
-0.00154349
0.000532242
0.000189059
-0.001272
0.000574852
5.69219e-05
-0.000912259
0.000805596
-0.000211523
-0.000638178
0.000941285
-0.00076066
-0.000247368
0.00103606
-0.00141505
0.000294791
0.00129653
-0.0019691
0.000763796
0.00178438
-0.00215976
0.00109635
0.00240136
-0.00190472
0.00126299
0.00302388
-0.00120997
0.00120828
0.00339935
0.000964452
0.00327694
0.00169901
-0.000278731
0.00368202
0.00266904
0.000716284
0.0040557
0.00318701
0.00117756
0.00394883
0.00326907
0.00136065
0.00352011
0.00298567
0.00121989
0.00298567
0.00245258
0.000761424
0.00247332
0.00178448
6.92604e-05
0.00199813
0.00112705
-0.000699636
0.00158024
0.000579074
-0.00131487
0.00117696
0.000180816
-0.00168722
0.000764251
-0.000223429
-0.0014004
0.000785544
-0.000809568
-0.000661126