/*--------------------------------*- C++ -*----------------------------------*\
  =========                 |
  \\      /  F ield         | OpenFOAM: The Open Source CFD Toolbox
   \\    /   O peration     | Website:  https://openfoam.org
    \\  /    A nd           | Version:  9
     \\/     M anipulation  |
\*---------------------------------------------------------------------------*/
FoamFile
{
    format      ascii;
    class       volVectorField;
    location    "1000";
    object      U;
}
// * * * * * * * * * * * * * * * * * * * * * * * * * * * * * * * * * * * * * //

dimensions      [0 1 -1 0 0 0 0];

internalField   nonuniform List<vector> 
4000
(
(-0.00190895 0.0132273 -0.00190895)
(-0.0103693 0.0083055 -0.00321955)
(-0.0135275 0.00134845 -0.00278797)
(-0.012581 -0.00225099 -0.00190382)
(-0.0102246 -0.00261235 -0.00120701)
(-0.00771203 -0.00122222 -0.000858312)
(-0.00546354 -0.000735388 -0.000697333)
(-0.003301 -0.00098952 -0.00048164)
(-0.0013856 -0.00140407 -0.000291713)
(0.00021145 -0.00140956 -9.78006e-05)
(0.00144905 -0.00113615 -6.96138e-06)
(0.00199983 -0.00067996 9.63182e-05)
(0.00239195 -0.000265636 5.55179e-05)
(0.0031152 -0.000384389 -0.00016602)
(0.0050121 -0.00153035 -0.000379581)
(0.00671124 -0.00271258 -0.000808507)
(0.00692605 -0.0010774 -0.00130614)
(0.00644159 0.00186907 -0.00152448)
(0.00572961 0.00815296 -0.00167792)
(0.00214506 0.0157462 -0.00224691)
(0.00609991 0.0114671 0.00609991)
(0.00741628 0.0140402 0.00416077)
(0.00704678 0.00974806 0.00273428)
(0.00397015 0.00550365 0.00181276)
(-0.00299876 0.00198321 0.00112491)
(-0.00743396 -0.00118065 -0.000126128)
(-0.00643603 -0.00225943 -0.000611945)
(-0.00473415 -0.00215125 -0.000921493)
(-0.00222619 -0.00193731 -0.00143137)
(1.72789e-05 -0.00151818 -0.00173758)
(0.00222302 -0.000984712 -0.00170351)
(0.00364609 -0.000735663 -0.00126039)
(0.00473614 -0.00111195 -0.00077636)
(0.00467309 -0.00182395 -0.000564284)
(0.00470303 -0.00125368 -0.000137785)
(-0.00308174 0.00506759 0.00168718)
(-0.00924151 0.0068452 0.00282757)
(-0.0129755 0.0061172 0.00439082)
(-0.0117861 0.0029919 0.00575667)
(-0.00634943 0.00169161 0.00635418)
(0.0055509 -0.0159692 0.0055509)
(0.0137265 -0.00394162 0.00612119)
(0.0176015 0.00193195 0.00542027)
(0.0168181 0.00454454 0.00431776)
(0.0122219 0.00509644 0.00320048)
(0.00707656 0.00326579 0.00230444)
(0.00204829 -6.66472e-05 0.00162044)
(-0.00228978 -0.00340572 -0.000330262)
(-0.00104902 -0.00293737 -0.00155552)
(0.00031576 -0.0016698 -0.00243186)
(0.00219646 -0.000588536 -0.0024107)
(0.0026413 5.05854e-05 -0.0013424)
(0.00144575 0.000412019 0.00032059)
(-0.00439188 0.00301118 0.00174077)
(-0.00951112 0.00506764 0.00246204)
(-0.0131275 0.00566394 0.00332776)
(-0.0159485 0.0027584 0.00432636)
(-0.0148212 -0.00623913 0.00507686)
(-0.0112026 -0.0160934 0.00544692)
(-0.00485919 -0.0246332 0.00536162)
(0.00269522 -0.0300738 0.00269522)
(0.00834243 -0.0195359 0.00402258)
(0.0118226 -0.0104567 0.00451214)
(0.0142441 -0.00238789 0.00456398)
(0.0142327 0.00243863 0.00417227)
(0.0118396 0.00305412 0.00366486)
(0.00886411 0.00182513 0.00305881)
(0.00548267 0.000806222 0.00210202)
(0.00142951 0.0001662 0.000722421)
(0.000126573 0.00104324 -0.000584841)
(0.000774591 0.00258563 -0.000292218)
(-1.34501e-06 0.00378357 0.00122447)
(-0.0035724 0.00427824 0.00293916)
(-0.00732441 0.00410065 0.00374698)
(-0.0100601 0.00352441 0.00413261)
(-0.0105575 0.001359 0.0044375)
(-0.00905366 -0.00450271 0.00438638)
(-0.00709825 -0.0140834 0.00399324)
(-0.00580762 -0.0253042 0.00352763)
(-0.00211978 -0.0355335 0.00264293)
(0.00112013 -0.0376705 0.00112013)
(0.00369226 -0.0273269 0.00268422)
(0.00337101 -0.0174456 0.0035877)
(0.003899 -0.00967028 0.00452148)
(0.0038663 -0.00448397 0.00518084)
(0.00381707 -0.00223875 0.00519421)
(0.00268083 -0.00188851 0.00485671)
(0.0013716 -0.00100714 0.00434759)
(3.24711e-05 0.000420477 0.00384979)
(-0.00066804 0.00108461 0.00353715)
(-7.94697e-05 0.00137424 0.00347681)
(0.000444027 0.00156594 0.00379215)
(0.000440411 0.000922552 0.00433339)
(0.000101368 -0.000696637 0.00484624)
(2.32761e-05 -0.00334642 0.0051458)
(-0.000222258 -0.00675199 0.00487228)
(-0.00043578 -0.0121375 0.00398843)
(-0.000288863 -0.0207395 0.00310405)
(-0.00209781 -0.0313101 0.00240327)
(-0.000663282 -0.0415472 0.00111183)
(4.69252e-05 -0.0406002 4.69261e-05)
(0.000543379 -0.0313442 0.00175356)
(-0.00253879 -0.0225702 0.00247956)
(-0.0034111 -0.0165116 0.00311927)
(-0.00420864 -0.0127437 0.00348144)
(-0.00428273 -0.0108055 0.00345988)
(-0.00408214 -0.00956733 0.00326481)
(-0.00353747 -0.00843302 0.00317232)
(-0.00246136 -0.00753003 0.00321857)
(-0.00134409 -0.0071649 0.0032568)
(9.87007e-05 -0.00707891 0.00301785)
(0.00158372 -0.00738659 0.00275893)
(0.00335194 -0.00831659 0.002693)
(0.00470725 -0.00989736 0.00272676)
(0.00549011 -0.0119052 0.00274363)
(0.00565581 -0.0146152 0.00267711)
(0.00499719 -0.0187741 0.00240165)
(0.00401566 -0.0250665 0.00195328)
(0.000388336 -0.0339194 0.0015206)
(0.000287327 -0.0433027 7.29458e-05)
(-0.000967008 -0.0397214 -0.000967007)
(-0.00190724 -0.0323172 0.000669975)
(-0.00634012 -0.0258844 0.000750048)
(-0.00797624 -0.0219236 0.000665498)
(-0.00885948 -0.0196542 0.00035699)
(-0.00864072 -0.0185066 -8.12543e-06)
(-0.00765039 -0.0178509 -0.000366867)
(-0.00602695 -0.0172479 -0.000598595)
(-0.00389799 -0.0166392 -0.000607196)
(-0.00205139 -0.0161764 -0.000438961)
(7.24818e-05 -0.0159041 -0.000678289)
(0.00218883 -0.0162397 -0.00109318)
(0.00479947 -0.0170115 -0.00116495)
(0.00696904 -0.0180877 -0.0009949)
(0.00848438 -0.019401 -0.000719643)
(0.00908216 -0.0210374 -0.000369061)
(0.00843962 -0.0235842 -7.25892e-06)
(0.00687584 -0.0277462 0.000221874)
(0.00234054 -0.0342846 0.000395632)
(0.00127079 -0.0416735 -0.00101613)
(-0.00240787 -0.0351166 -0.00240786)
(-0.00442474 -0.0299334 -0.0010825)
(-0.0097149 -0.0260106 -0.00170057)
(-0.0118673 -0.0240995 -0.00242868)
(-0.0127061 -0.023297 -0.00324753)
(-0.0121202 -0.0231061 -0.00399731)
(-0.0104597 -0.0230787 -0.0046352)
(-0.00801168 -0.0229457 -0.00508577)
(-0.00508989 -0.022621 -0.00521001)
(-0.00271287 -0.0221761 -0.00496962)
(-5.27038e-05 -0.0218493 -0.00515465)
(0.0026485 -0.0220614 -0.00555366)
(0.00608254 -0.022537 -0.00545312)
(0.00901741 -0.0230419 -0.00507814)
(0.0111814 -0.0235682 -0.00455086)
(0.0122048 -0.0241074 -0.00382222)
(0.0117082 -0.0251631 -0.00299766)
(0.00976817 -0.0272616 -0.0021981)
(0.00458176 -0.0312898 -0.00144)
(0.00268901 -0.0365778 -0.00254252)
(-0.00482489 -0.0263269 -0.00482489)
(-0.00816624 -0.0229666 -0.00427897)
(-0.0138958 -0.0212229 -0.00535308)
(-0.0162036 -0.0208457 -0.00656397)
(-0.0168066 -0.021025 -0.00774856)
(-0.0157925 -0.0214689 -0.00878403)
(-0.0135211 -0.0219109 -0.00963301)
(-0.0103004 -0.0221867 -0.0101927)
(-0.00651803 -0.0221757 -0.010306)
(-0.00345637 -0.0218868 -0.00983675)
(0.000106259 -0.0215954 -0.00993622)
(0.003588 -0.0217884 -0.0106727)
(0.00794599 -0.0219276 -0.0105903)
(0.0116521 -0.0218211 -0.0100911)
(0.014392 -0.0215473 -0.00933599)
(0.0158551 -0.0212809 -0.00834808)
(0.0156511 -0.0213002 -0.00716802)
(0.0136877 -0.0218587 -0.00593711)
(0.00820034 -0.023751 -0.00481221)
(0.0050997 -0.0273148 -0.00509439)
(-0.00866482 -0.0163256 -0.00866482)
(-0.0143566 -0.0132592 -0.00992178)
(-0.0202058 -0.0118394 -0.0121627)
(-0.0224435 -0.0113905 -0.014346)
(-0.022765 -0.0112048 -0.0164473)
(-0.0213637 -0.0110594 -0.0183772)
(-0.0185085 -0.0107914 -0.0200356)
(-0.014389 -0.0103248 -0.0212915)
(-0.00933339 -0.00965893 -0.0218576)
(-0.00484292 -0.00901324 -0.0212041)
(0.00106471 -0.00865101 -0.0213186)
(0.00613685 -0.00932135 -0.0222788)
(0.0117838 -0.0100579 -0.0217871)
(0.01644 -0.0106053 -0.0205769)
(0.01982 -0.0109457 -0.0189685)
(0.0217152 -0.0111744 -0.0171052)
(0.0218504 -0.0114635 -0.0150732)
(0.0200342 -0.0120272 -0.012931)
(0.0145013 -0.013585 -0.0106468)
(0.009 -0.0168775 -0.00910859)
(-0.00321955 0.0083055 -0.0103693)
(-0.00880936 0.00303414 -0.00880936)
(-0.0106704 -0.00110474 -0.00652268)
(-0.00997967 -0.00302276 -0.00442578)
(-0.00799255 -0.00300766 -0.00278443)
(-0.00592015 -0.00177393 -0.00183312)
(-0.00392572 -0.00107875 -0.00133802)
(-0.0020247 -0.000986579 -0.000864537)
(-0.000418163 -0.000797843 -0.000446415)
(0.000650439 -0.000472159 -7.72956e-05)
(0.00102059 -3.11741e-05 0.00011572)
(0.000982294 0.000171869 0.000223275)
(0.00114944 0.000152933 7.42294e-07)
(0.0018424 -0.000260521 -0.000527975)
(0.00349583 -0.00163088 -0.00107819)
(0.00508689 -0.00306814 -0.00222991)
(0.00526257 -0.00228245 -0.00323906)
(0.00465185 -0.000578364 -0.00384769)
(0.00394182 0.00256018 -0.00469666)
(0.00188911 0.0076028 -0.00673998)
(0.00416077 0.0140402 0.00741628)
(0.00615792 0.0110564 0.00615792)
(0.00636094 0.00671911 0.00415511)
(0.00390376 0.00363989 0.0024499)
(-0.000638022 0.00132827 0.00159628)
(-0.00430179 -0.00155759 0.000112363)
(-0.00406075 -0.00277596 -0.000683623)
(-0.00290162 -0.00264266 -0.00103905)
(-0.0013173 -0.00197456 -0.00188744)
(0.000213771 -0.00113743 -0.00239967)
(0.00151441 -0.000414909 -0.00233336)
(0.00231857 -0.000408531 -0.00170658)
(0.0029704 -0.00121739 -0.00106789)
(0.00284551 -0.00202388 -0.000919711)
(0.00207409 -0.00140471 6.2311e-05)
(-0.00370135 0.00403565 0.00220994)
(-0.00821465 0.00589826 0.00400825)
(-0.0111498 0.00599142 0.0069226)
(-0.00999884 0.00476342 0.00982451)
(-0.00544097 0.00410953 0.0112561)
(0.00612119 -0.00394162 0.0137265)
(0.0128218 0.000970308 0.0128218)
(0.0163876 0.00356371 0.0105862)
(0.0158235 0.0045824 0.0079818)
(0.012172 0.0045518 0.00573221)
(0.00794227 0.00266966 0.00405674)
(0.00377212 -0.000438908 0.00267324)
(0.000647587 -0.00317861 0.000522531)
(3.56246e-05 -0.00336693 -0.00192825)
(0.000437397 -0.002321 -0.00326704)
(0.00131215 -0.00140174 -0.00319801)
(0.00122436 -0.00109067 -0.00172801)
(-0.000692677 -0.000557732 0.000784229)
(-0.00518167 0.002135 0.00270266)
(-0.0098786 0.00447142 0.00422325)
(-0.0130854 0.00558629 0.00598692)
(-0.0154985 0.00411705 0.00815488)
(-0.0148588 -0.00173998 0.010419)
(-0.0110486 -0.00963221 0.0119982)
(-0.00510773 -0.0158992 0.0123671)
(0.00402258 -0.0195359 0.00834243)
(0.0101649 -0.0132201 0.0101649)
(0.014053 -0.00645333 0.0101553)
(0.0163117 0.000239114 0.00910404)
(0.0155192 0.00362187 0.00769935)
(0.0128908 0.00363509 0.00638541)
(0.00989801 0.00187946 0.00498885)
(0.00664448 -0.000183063 0.0030383)
(0.00306915 -0.00170017 0.00035841)
(0.000751568 -0.00180164 -0.00179362)
(4.13722e-06 -0.000573177 -0.00145853)
(-0.00205293 0.00187533 0.00156029)
(-0.00554927 0.00361027 0.00427581)
(-0.00892515 0.00426381 0.00580037)
(-0.0118868 0.00446315 0.00690566)
(-0.0134788 0.00348038 0.00803242)
(-0.0129282 -0.000883545 0.00907031)
(-0.0105139 -0.00925424 0.00947951)
(-0.00795113 -0.0180215 0.0088263)
(-0.00322769 -0.0250631 0.00691182)
(0.00268422 -0.0273269 0.00369226)
(0.00719085 -0.02043 0.00719085)
(0.00852621 -0.0121995 0.00889261)
(0.00954252 -0.00439557 0.00953735)
(0.0102495 0.00117408 0.00932968)
(0.00931805 0.00286157 0.00863524)
(0.00736987 0.0023084 0.00767268)
(0.00497909 0.00175405 0.0064534)
(0.00243962 0.0020046 0.00511201)
(0.000545156 0.00222573 0.00398291)
(-6.75661e-05 0.0029629 0.00418343)
(-0.00110791 0.00410255 0.00560403)
(-0.00288152 0.00455769 0.00708121)
(-0.00480571 0.00425168 0.00831882)
(-0.00643362 0.00304524 0.00928935)
(-0.00706235 1.68336e-05 0.00982982)
(-0.00680809 -0.00617263 0.00948826)
(-0.00625845 -0.0150784 0.00849934)
(-0.0061047 -0.0241266 0.00648881)
(-0.00227955 -0.0311917 0.00280936)
(0.00175356 -0.0313442 0.000543381)
(0.0055011 -0.0243321 0.00550111)
(0.00443757 -0.0157299 0.0081684)
(0.00410261 -0.00763115 0.00955875)
(0.00337415 -0.00182982 0.0102518)
(0.00326687 0.0011233 0.0100818)
(0.00228194 0.00190219 0.00948306)
(0.00102833 0.0024068 0.00883056)
(0.000131658 0.00306533 0.00833572)
(-0.00017507 0.00333517 0.0080073)
(0.000179757 0.00371748 0.00790627)
(0.000254164 0.00410559 0.00824275)
(-1.85932e-05 0.00395687 0.00887442)
(-0.000603148 0.00305447 0.00960179)
(-0.00116824 0.0012137 0.0101053)
(-0.00155973 -0.00272368 0.00998703)
(-0.00272115 -0.00904876 0.00918807)
(-0.00336712 -0.0177347 0.007741)
(-0.00512294 -0.0266344 0.00500392)
(-0.00155926 -0.0337727 -8.41185e-05)
(0.000669975 -0.0323172 -0.00190724)
(0.00410743 -0.0252047 0.00410743)
(0.00120451 -0.0171122 0.00703628)
(0.000304664 -0.00997539 0.00841901)
(-0.000723491 -0.00492079 0.00908985)
(-0.0010303 -0.00221229 0.00923905)
(-0.00114883 -0.000823813 0.00920548)
(-0.00126572 -9.02847e-05 0.00914026)
(-0.00102374 0.000396273 0.00912339)
(-0.00062379 0.000546524 0.0089801)
(3.45311e-05 0.000956735 0.00878316)
(0.000562215 0.00134628 0.00864592)
(0.0012932 0.00106393 0.00861093)
(0.00176939 -0.000147031 0.00862383)
(0.00185067 -0.00222995 0.00854994)
(0.00134669 -0.00550047 0.00834125)
(0.000175116 -0.0108606 0.00770871)
(-0.000814658 -0.0184594 0.00640506)
(-0.0041013 -0.0266447 0.00354502)
(-0.000531839 -0.034091 -0.00241014)
(-0.0010825 -0.0299334 -0.00442474)
(0.00162958 -0.0231334 0.00162958)
(-0.00277631 -0.0164669 0.00416648)
(-0.0038756 -0.0115374 0.00485495)
(-0.00469964 -0.00793303 0.00478472)
(-0.00464393 -0.00555184 0.00456292)
(-0.00413548 -0.00383696 0.0043618)
(-0.00334171 -0.0024584 0.00426787)
(-0.00228019 -0.00134819 0.00441828)
(-0.00135452 -0.000602958 0.00473061)
(-0.0001903 1.27015e-05 0.00468039)
(0.000941572 -0.00084784 0.00377213)
(0.002451 -0.0020159 0.00335633)
(0.00364028 -0.00346935 0.00340509)
(0.00429595 -0.0052784 0.00367051)
(0.0044632 -0.0080475 0.0038337)
(0.00377515 -0.0120277 0.0038973)
(0.00279016 -0.0172281 0.00328793)
(-0.00177908 -0.0238769 0.000821913)
(0.00123236 -0.0311591 -0.00491123)
(-0.00427897 -0.0229666 -0.00816623)
(-0.00419303 -0.0176885 -0.00419303)
(-0.00901427 -0.0139747 -0.00298014)
(-0.0106079 -0.0121284 -0.00325499)
(-0.0111159 -0.0111993 -0.00414565)
(-0.0104016 -0.0109548 -0.00503385)
(-0.00888384 -0.0110276 -0.00571183)
(-0.00681155 -0.011148 -0.00597649)
(-0.00448058 -0.0110827 -0.00566179)
(-0.00262651 -0.0104923 -0.00471143)
(-0.000222851 -0.0101268 -0.00466847)
(0.00188921 -0.0103835 -0.00607409)
(0.00462054 -0.0104933 -0.00654643)
(0.00706963 -0.0105269 -0.00645257)
(0.00904787 -0.0106475 -0.00600936)
(0.0102496 -0.0111084 -0.00528432)
(0.0101205 -0.0122264 -0.00445129)
(0.00883525 -0.0142701 -0.0041457)
(0.00418323 -0.0181835 -0.00519241)
(0.00445313 -0.023722 -0.00874642)
(-0.00992178 -0.0132592 -0.0143566)
(-0.0150999 -0.00851131 -0.0150999)
(-0.0209513 -0.00587584 -0.0177019)
(-0.0230122 -0.00447407 -0.0206475)
(-0.0233172 -0.00349675 -0.0236051)
(-0.0220854 -0.00265943 -0.0263863)
(-0.0195691 -0.00172796 -0.0287938)
(-0.0158289 -0.000628904 -0.0306397)
(-0.0109098 0.000617471 -0.0315155)
(-0.00588633 0.0018518 -0.0307344)
(0.00213907 0.00225077 -0.0306988)
(0.00772779 0.000903207 -0.031787)
(0.0131882 -0.000361925 -0.0311126)
(0.0174755 -0.00147374 -0.0293924)
(0.0205344 -0.00238337 -0.0270916)
(0.0222546 -0.00322851 -0.0244524)
(0.0223885 -0.00425172 -0.0216577)
(0.0207324 -0.00573465 -0.0188229)
(0.015141 -0.00850639 -0.0161931)
(0.0101165 -0.0135458 -0.0151407)
(-0.00278797 0.00134845 -0.0135275)
(-0.00652268 -0.00110474 -0.0106704)
(-0.00778837 -0.00267406 -0.00778837)
(-0.00735699 -0.00317891 -0.00531147)
(-0.00593493 -0.00280194 -0.00339877)
(-0.00424181 -0.00187521 -0.00217811)
(-0.00244132 -0.0012899 -0.00146293)
(-0.000732412 -0.00108789 -0.000875449)
(0.000548316 -0.000633707 -0.000423864)
(0.00105176 1.32028e-05 -7.90918e-05)
(0.00076536 0.000552715 0.000158242)
(0.000132376 0.000544218 0.000308616)
(7.38036e-05 0.000206173 7.33886e-05)
(0.00056447 -0.000253296 -0.000582347)
(0.00211229 -0.00145057 -0.0013742)
(0.00343684 -0.00283463 -0.00278483)
(0.00388715 -0.00295209 -0.00408006)
(0.00342703 -0.00206458 -0.0049792)
(0.00272452 -0.000797726 -0.00600391)
(0.00124859 0.00081596 -0.00794994)
(0.00273428 0.00974806 0.00704679)
(0.00415511 0.00671911 0.00636094)
(0.0043392 0.00387448 0.0043392)
(0.00236395 0.00202661 0.00228139)
(-0.000677345 0.000332889 0.00118876)
(-0.00299151 -0.00208588 -7.74548e-05)
(-0.00272946 -0.00310533 -0.000610276)
(-0.00179808 -0.00294901 -0.000876648)
(-0.000666487 -0.00212109 -0.00161189)
(0.000357501 -0.00109774 -0.00221658)
(0.00116431 -0.00030963 -0.00207782)
(0.00159109 -0.000381664 -0.00130425)
(0.00206747 -0.00128963 -0.000618635)
(0.00203582 -0.00214469 -0.000581504)
(0.00178867 -0.00227939 3.42021e-05)
(-0.00213367 0.00203138 0.00206708)
(-0.00539541 0.00442786 0.00412956)
(-0.00765338 0.00526852 0.00744603)
(-0.00688811 0.0054441 0.0107175)
(-0.00395865 0.00578358 0.0122402)
(0.00542027 0.00193195 0.0176015)
(0.0105862 0.00356371 0.0163876)
(0.0135275 0.00422486 0.0135275)
(0.013121 0.00446128 0.0101929)
(0.0103753 0.00391513 0.00736065)
(0.00714924 0.00187123 0.00526541)
(0.00367733 -0.00114639 0.00331843)
(0.00130812 -0.00347108 0.00112657)
(0.000491951 -0.00375013 -0.00114824)
(0.000484613 -0.0030408 -0.00275927)
(0.000951902 -0.00217016 -0.00265179)
(0.000729979 -0.00175864 -0.000935791)
(-0.000686129 -0.00148189 0.00144352)
(-0.00417603 0.000850951 0.0035446)
(-0.00858092 0.00353347 0.00565534)
(-0.0112917 0.00508606 0.00802948)
(-0.0132511 0.00519657 0.0108563)
(-0.0128626 0.00272628 0.0139685)
(-0.00956375 -0.00213482 0.0162187)
(-0.00476115 -0.00659784 0.0165775)
(0.00451214 -0.0104567 0.0118226)
(0.0101553 -0.00645333 0.014053)
(0.0140729 -0.0016006 0.0140729)
(0.015842 0.0026782 0.0124965)
(0.0149388 0.00446568 0.0104318)
(0.01253 0.00376667 0.00850279)
(0.00971913 0.00158882 0.00657002)
(0.00647445 -0.00105715 0.00400974)
(0.00319754 -0.00281285 0.00106855)
(0.00100353 -0.00331961 -0.00153263)
(-5.7112e-05 -0.00234819 -0.00133786)
(-0.00224452 -0.000111398 0.00196041)
(-0.00592296 0.00238572 0.00535525)
(-0.00918232 0.00377142 0.00754198)
(-0.01212 0.00461053 0.00924457)
(-0.0139392 0.00452717 0.0110384)
(-0.0139522 0.00231754 0.0126531)
(-0.0116548 -0.00326399 0.0132762)
(-0.0085081 -0.00906177 0.0120738)
(-0.00375238 -0.0138618 0.00891645)
(0.0035877 -0.0174456 0.00337101)
(0.00889261 -0.0121995 0.00852621)
(0.0112969 -0.00649402 0.0112969)
(0.0129228 -0.00052757 0.0121722)
(0.013209 0.00342833 0.0116793)
(0.011902 0.00427094 0.0105658)
(0.0096779 0.00300641 0.00910788)
(0.00699297 0.00124331 0.00724899)
(0.00402621 -0.000290783 0.00463361)
(0.00132989 -0.00142748 0.00187698)
(-0.000489205 -0.000450712 0.00201052)
(-0.00260011 0.00239607 0.00542007)
(-0.00518483 0.00416419 0.00805637)
(-0.00777215 0.00489902 0.00994519)
(-0.00997345 0.00465405 0.011377)
(-0.0111099 0.00261177 0.0122996)
(-0.0107851 -0.00209054 0.0121606)
(-0.00967109 -0.00853775 0.0105628)
(-0.00807472 -0.0147258 0.00701818)
(-0.00316951 -0.0204494 0.00124317)
(0.00247956 -0.0225702 -0.00253879)
(0.0081684 -0.0157299 0.00443757)
(0.00888971 -0.0092405 0.00888971)
(0.00920778 -0.00262482 0.0111643)
(0.00897138 0.00247795 0.011935)
(0.00817399 0.0045846 0.011504)
(0.00651434 0.00440539 0.0104402)
(0.00436402 0.00368158 0.00905579)
(0.00219188 0.00329599 0.00762254)
(0.000612162 0.00304548 0.0062988)
(-0.000207448 0.00351919 0.00601461)
(-0.00133821 0.00481091 0.0074534)
(-0.00296896 0.00570988 0.00915924)
(-0.00471007 0.00586214 0.0106277)
(-0.00622277 0.00488522 0.0116114)
(-0.00724129 0.00179843 0.0117536)
(-0.00799756 -0.00374585 0.010541)
(-0.00807345 -0.0105891 0.00795065)
(-0.00786413 -0.0172229 0.00317714)
(-0.00221104 -0.0246274 -0.00396985)
(0.000750048 -0.0258844 -0.00634012)
(0.00703628 -0.0171122 0.00120451)
(0.00636856 -0.0100166 0.00636857)
(0.00616699 -0.00346417 0.00921923)
(0.00541031 0.00123451 0.0105236)
(0.00465405 0.00347323 0.0103793)
(0.00366975 0.00365742 0.00967492)
(0.00242008 0.00306254 0.00889067)
(0.00121725 0.00254171 0.00822442)
(0.000249903 0.00224736 0.00751473)
(-0.000440262 0.00262682 0.00707041)
(-0.00108892 0.00372156 0.00746833)
(-0.00175017 0.00457712 0.00823991)
(-0.00256236 0.00467771 0.00903761)
(-0.00347739 0.00360324 0.00956309)
(-0.00454682 0.000640897 0.00942542)
(-0.00566056 -0.00417899 0.00790447)
(-0.00601166 -0.0108063 0.00506556)
(-0.0069096 -0.0178746 -7.04213e-05)
(-0.000507708 -0.0273373 -0.00739815)
(-0.00170057 -0.0260106 -0.0097149)
(0.00416648 -0.0164669 -0.00277631)
(0.00216405 -0.00931759 0.00216406)
(0.00192085 -0.00271345 0.00459226)
(0.00153348 0.00224834 0.00581248)
(0.00141928 0.00463223 0.00569759)
(0.00112367 0.00546823 0.00496107)
(0.000773432 0.00583458 0.00426026)
(0.00052903 0.00606968 0.00387766)
(7.04272e-06 0.00615412 0.00365151)
(-0.000780785 0.00646713 0.00330451)
(-0.00122587 0.00674239 0.00310783)
(-0.00126006 0.00671807 0.00335259)
(-0.00130828 0.00623264 0.00382745)
(-0.00141221 0.00496421 0.00417816)
(-0.00144156 0.00217554 0.00383035)
(-0.00189825 -0.00291211 0.00272056)
(-0.00201225 -0.00957213 0.000518756)
(-0.00399865 -0.0168543 -0.00411104)
(0.0019054 -0.0269546 -0.010661)
(-0.00535308 -0.0212229 -0.0138958)
(-0.00298014 -0.0139747 -0.00901427)
(-0.00592728 -0.00889902 -0.00592728)
(-0.00583888 -0.00585211 -0.00487382)
(-0.00555617 -0.00403656 -0.00510737)
(-0.0042521 -0.00334818 -0.00508668)
(-0.00297683 -0.00362851 -0.00536195)
(-0.00194437 -0.00417351 -0.00540786)
(-0.00130559 -0.00426784 -0.00500633)
(-0.00131218 -0.00298302 -0.00462664)
(-0.00120771 -0.00249006 -0.0048429)
(-0.000968227 -0.0032225 -0.00564579)
(2.56554e-05 -0.00318991 -0.00588661)
(0.00153142 -0.0029242 -0.00612294)
(0.00333681 -0.00295269 -0.00643122)
(0.00498299 -0.00380374 -0.00672045)
(0.00554097 -0.00569424 -0.00660908)
(0.00593739 -0.00886725 -0.00760585)
(0.00311153 -0.014179 -0.0104257)
(0.00553884 -0.0217251 -0.0148651)
(-0.0121627 -0.0118394 -0.0202058)
(-0.0177019 -0.00587584 -0.0209513)
(-0.0236265 -0.00270906 -0.0236265)
(-0.0253404 -0.000937557 -0.0268969)
(-0.0252511 0.000365744 -0.0302295)
(-0.0237952 0.00153591 -0.0334925)
(-0.0212335 0.00283602 -0.0364878)
(-0.0174817 0.0043564 -0.0389107)
(-0.012325 0.00605697 -0.0401694)
(-0.0066851 0.00771848 -0.0392624)
(0.00281938 0.0081155 -0.0390985)
(0.00903914 0.00625464 -0.04029)
(0.0147589 0.00457879 -0.0393424)
(0.0190981 0.00306665 -0.0370954)
(0.0222128 0.00181847 -0.034288)
(0.024111 0.000691017 -0.0312413)
(0.0246104 -0.000597328 -0.0281463)
(0.0233381 -0.00240229 -0.025046)
(0.017708 -0.00568863 -0.0223647)
(0.0123357 -0.0119401 -0.021334)
(-0.00190382 -0.00225099 -0.012581)
(-0.00442578 -0.00302276 -0.00997967)
(-0.00531147 -0.00317891 -0.00735699)
(-0.00511138 -0.00290551 -0.00511138)
(-0.00415894 -0.00239469 -0.00332717)
(-0.00271839 -0.00178885 -0.0020056)
(-0.00107487 -0.00148446 -0.0011352)
(0.000482385 -0.00131064 -0.000417256)
(0.00150439 -0.000736892 0.000149165)
(0.00147564 8.10154e-05 0.000593167)
(0.000523834 0.000654368 0.000838942)
(-0.000673335 0.000545358 0.000813035)
(-0.000951091 5.38827e-05 0.000405032)
(-0.000610255 -0.000381919 -0.00044952)
(0.000670154 -0.00110331 -0.00128099)
(0.001805 -0.00201739 -0.00261415)
(0.00260373 -0.00291311 -0.00421497)
(0.00243852 -0.00302419 -0.00538173)
(0.00187327 -0.002756 -0.00645963)
(0.00072936 -0.0025634 -0.00799404)
(0.00181276 0.00550365 0.00397015)
(0.0024499 0.00363989 0.00390376)
(0.00228139 0.00202662 0.00236395)
(0.000703452 0.000718868 0.000703451)
(-0.00120633 -0.000958934 -4.13751e-05)
(-0.00212997 -0.00284021 -0.000488287)
(-0.00170522 -0.00350565 -0.00038064)
(-0.000938506 -0.0033144 -0.000313417)
(-0.000107793 -0.0024788 -0.000736478)
(0.000545827 -0.00139641 -0.0012136)
(0.000933119 -0.000582451 -0.00103365)
(0.0010773 -0.000624837 -0.000321927)
(0.001363 -0.00144729 0.000105881)
(0.00155901 -0.00235529 -0.000140522)
(0.00150082 -0.00276768 -0.000182859)
(-2.88972e-05 -0.000896769 0.000884122)
(-0.00240572 0.00219204 0.00254856)
(-0.00416119 0.00378267 0.00532742)
(-0.00394417 0.00454256 0.00798329)
(-0.00251006 0.00508628 0.00886573)
(0.00431776 0.00454454 0.0168181)
(0.0079818 0.0045824 0.0158234)
(0.0101929 0.00446128 0.013121)
(0.00993242 0.00405052 0.00993242)
(0.00806661 0.00282148 0.00725028)
(0.00564482 0.00049607 0.00520081)
(0.00294528 -0.00230038 0.00331148)
(0.00133847 -0.0041008 0.00170584)
(0.000709645 -0.00439674 7.47573e-05)
(0.000595232 -0.00388976 -0.00134855)
(0.000743953 -0.00301104 -0.00122031)
(0.00060444 -0.00245831 0.0003717)
(-0.000322713 -0.00233882 0.00202341)
(-0.00247979 -0.000974805 0.00354352)
(-0.00626444 0.00180824 0.00572469)
(-0.00878972 0.00374177 0.00836568)
(-0.0101899 0.0049705 0.0111242)
(-0.00994586 0.0047826 0.0142722)
(-0.00745473 0.00314525 0.0166507)
(-0.00398717 0.00134978 0.0173139)
(0.00456398 -0.0023879 0.0142441)
(0.00910404 0.000239113 0.0163117)
(0.0124965 0.0026782 0.015842)
(0.0138444 0.00443996 0.0138444)
(0.0131545 0.0046083 0.011486)
(0.0112217 0.00314136 0.00932378)
(0.00873782 0.000653296 0.00724856)
(0.00578027 -0.00212374 0.00476665)
(0.00304857 -0.00403791 0.00220283)
(0.00118118 -0.00482896 -0.000151333)
(-0.000133504 -0.00390671 -6.50448e-06)
(-0.00194064 -0.0017063 0.00287462)
(-0.00517808 0.00074155 0.00591679)
(-0.00842374 0.00270679 0.00840056)
(-0.0109682 0.00398918 0.010347)
(-0.0126476 0.00469316 0.0125254)
(-0.012782 0.00436036 0.014576)
(-0.0109988 0.00233572 0.0157776)
(-0.00794013 -0.000639175 0.0148534)
(-0.00404816 -0.00402781 0.0111966)
(0.00452148 -0.00967028 0.003899)
(0.00953735 -0.00439558 0.00954252)
(0.0121722 -0.000527571 0.0129228)
(0.0136906 0.0028394 0.0136906)
(0.0138002 0.00463714 0.0129141)
(0.0125574 0.00433016 0.0115355)
(0.010447 0.0024808 0.00986549)
(0.00779609 -1.66343e-05 0.00773866)
(0.00462537 -0.00244636 0.00484369)
(0.00170284 -0.00406083 0.00198153)
(-0.000905822 -0.0031019 0.00204635)
(-0.00355638 0.00013496 0.0056399)
(-0.00643595 0.00281709 0.00879898)
(-0.00906749 0.00422081 0.0109123)
(-0.0112329 0.00476257 0.0125636)
(-0.0124325 0.00407255 0.0137859)
(-0.0122895 0.00179408 0.0140201)
(-0.0110566 -0.00173892 0.0122765)
(-0.00902571 -0.0056088 0.00795247)
(-0.00427312 -0.0115277 0.00147698)
(0.00311927 -0.0165116 -0.0034111)
(0.00955875 -0.00763116 0.00410261)
(0.0111643 -0.00262483 0.00920779)
(0.0118993 0.00164119 0.0118993)
(0.0118329 0.0045844 0.012667)
(0.0109174 0.00536873 0.0122077)
(0.00913608 0.0043828 0.0110657)
(0.00671596 0.0027792 0.00945344)
(0.00394682 0.00120664 0.00738551)
(0.00146665 -0.000336245 0.00500584)
(-0.000981082 0.000347994 0.00482723)
(-0.00311138 0.00308849 0.00750759)
(-0.00545847 0.00491518 0.00982161)
(-0.00759772 0.00584671 0.0115028)
(-0.00933158 0.00575913 0.0125491)
(-0.0104149 0.00415712 0.0127044)
(-0.0108524 0.000966586 0.0113944)
(-0.0105589 -0.00316997 0.00816663)
(-0.00938592 -0.0082283 0.00258105)
(-0.00284721 -0.0181342 -0.00518399)
(0.000665498 -0.0219236 -0.00797624)
(0.00841901 -0.00997539 0.000304666)
(0.00921923 -0.00346418 0.00616699)
(0.00952969 0.00114896 0.00952969)
(0.00912027 0.00422016 0.0110371)
(0.00843666 0.00523178 0.0112062)
(0.00729889 0.00446824 0.0106608)
(0.00563475 0.00293907 0.0097991)
(0.00352535 0.00143873 0.0087947)
(0.00124387 0.000332256 0.00745066)
(-0.00151961 0.000829915 0.00705095)
(-0.00343779 0.00285142 0.0081618)
(-0.00498656 0.00464308 0.00932412)
(-0.00628948 0.00565322 0.0102066)
(-0.00736273 0.00556923 0.0105619)
(-0.00825277 0.00396298 0.0100377)
(-0.00897571 0.000854018 0.00818465)
(-0.00892616 -0.00353016 0.00470966)
(-0.00829013 -0.0100334 -0.0012021)
(-0.00034619 -0.0230813 -0.00931371)
(-0.00242868 -0.0240995 -0.0118673)
(0.00485495 -0.0115374 -0.0038756)
(0.00459226 -0.00271345 0.00192085)
(0.00552354 0.00345174 0.00552354)
(0.00538399 0.00633607 0.00712844)
(0.00521772 0.00723978 0.00742001)
(0.00482825 0.00703733 0.00704768)
(0.00404714 0.00657457 0.00647901)
(0.00287489 0.00626994 0.00594981)
(0.00103181 0.00616118 0.00536078)
(-0.00198529 0.00653094 0.00497659)
(-0.00375452 0.0070596 0.00519164)
(-0.00462208 0.00750634 0.00557785)
(-0.00501226 0.00776798 0.00593961)
(-0.00514196 0.00753742 0.00597573)
(-0.00524313 0.00630499 0.00530102)
(-0.00540521 0.0035589 0.00352043)
(-0.00448507 -0.00227054 4.70659e-06)
(-0.00462704 -0.0114838 -0.00548142)
(0.00272342 -0.0248077 -0.0130386)
(-0.00656397 -0.0208457 -0.0162036)
(-0.00325499 -0.0121284 -0.0106079)
(-0.00487382 -0.00585211 -0.00583887)
(-0.00260254 -0.00180745 -0.00260253)
(-0.00154837 0.000310663 -0.00176246)
(-0.000449363 0.000290387 -0.00215574)
(0.000328349 -0.000719285 -0.00305514)
(0.000435783 -0.00159646 -0.003955)
(0.000124004 -0.00176637 -0.00434014)
(-0.000757303 -0.000432501 -0.00402344)
(-0.00200774 -4.84398e-05 -0.00417926)
(-0.00263749 -0.000822405 -0.00482596)
(-0.00226997 -0.000544486 -0.00483921)
(-0.00135303 0.00012267 -0.00447937)
(-4.5978e-05 0.000724502 -0.00410521)
(0.00140357 0.000465717 -0.00409699)
(0.00249966 -0.00154789 -0.00492395)
(0.00498032 -0.00558155 -0.0078815)
(0.00351253 -0.0120787 -0.0122568)
(0.00680124 -0.0211506 -0.0173618)
(-0.014346 -0.0113905 -0.0224435)
(-0.0206475 -0.00447407 -0.0230122)
(-0.0268969 -0.000937557 -0.0253404)
(-0.0282622 0.00107135 -0.0282622)
(-0.0276384 0.00259309 -0.0313292)
(-0.0260154 0.00395081 -0.0348425)
(-0.0235318 0.00551301 -0.0384996)
(-0.0197871 0.00736334 -0.0417428)
(-0.0142933 0.00943552 -0.0438247)
(-0.00784144 0.011608 -0.0436094)
(0.00382453 0.0120628 -0.0435329)
(0.0109833 0.00960523 -0.0440702)
(0.0170178 0.00747141 -0.0421419)
(0.0213432 0.00565626 -0.0390823)
(0.0243642 0.00416371 -0.0356984)
(0.0263919 0.00288376 -0.032455)
(0.0273906 0.00145104 -0.0296073)
(0.026523 -0.000539275 -0.026881)
(0.0206382 -0.0041701 -0.0245514)
(0.0145256 -0.0113668 -0.0237129)
(-0.00120701 -0.00261235 -0.0102246)
(-0.00278443 -0.00300766 -0.00799255)
(-0.00339877 -0.00280194 -0.00593493)
(-0.00332717 -0.00239469 -0.00415894)
(-0.00259854 -0.00198631 -0.00259854)
(-0.00135307 -0.00170738 -0.00128402)
(0.000180969 -0.00178604 -0.000321056)
(0.00168898 -0.00168985 0.000638234)
(0.00245315 -0.00106421 0.0014394)
(0.00194785 -0.000158773 0.00212305)
(0.000241535 0.000441662 0.00236863)
(-0.00151484 0.000308928 0.0019164)
(-0.00199596 -0.000220921 0.00113712)
(-0.00170525 -0.000632938 0.000126324)
(-0.000721787 -0.000928688 -0.000781573)
(0.000470362 -0.00148457 -0.00198355)
(0.00121996 -0.00215947 -0.00339499)