/*--------------------------------*- C++ -*----------------------------------*\
  =========                 |
  \\      /  F ield         | OpenFOAM: The Open Source CFD Toolbox
   \\    /   O peration     | Website:  https://openfoam.org
    \\  /    A nd           | Version:  9
     \\/     M anipulation  |
\*---------------------------------------------------------------------------*/
FoamFile
{
    format      ascii;
    class       volScalarField;
    location    "1500";
    object      epsilon;
}
// * * * * * * * * * * * * * * * * * * * * * * * * * * * * * * * * * * * * * //

dimensions      [0 2 -3 0 0 0 0];

internalField   nonuniform List<scalar> 
4000
(
1.29005e-07
9.12612e-08
4.11675e-08
2.59103e-08
2.10948e-08
1.79902e-08
1.1903e-08
9.78581e-09
9.04718e-09
8.96701e-09
8.82728e-09
8.57025e-09
9.35257e-09
1.21637e-08
2.06372e-08
2.10013e-08
3.73838e-08
8.85963e-08
1.73653e-07
2.39098e-07
3.72526e-07
3.37996e-07
2.8229e-07
2.04427e-07
1.40952e-07
7.62789e-08
2.42302e-08
1.95061e-08
1.80645e-08
1.87049e-08
1.89192e-08
1.7906e-08
2.05387e-08
2.95299e-08
1.04501e-07
1.70954e-07
2.34749e-07
3.08858e-07
3.68859e-07
4.11707e-07
4.54269e-07
4.19598e-07
3.51599e-07
2.74977e-07
1.99803e-07
1.38675e-07
8.94855e-08
4.7395e-08
2.24848e-08
2.629e-08
2.69074e-08
2.40659e-08
4.78826e-08
9.007e-08
1.36862e-07
1.96117e-07
2.71744e-07
3.57311e-07
4.33585e-07
4.73642e-07
4.9563e-07
4.73763e-07
4.06529e-07
3.17999e-07
2.29142e-07
1.57541e-07
1.06341e-07
6.83707e-08
4.30291e-08
3.96265e-08
4.34151e-08
5.79278e-08
8.47035e-08
1.17353e-07
1.61264e-07
2.27785e-07
3.20106e-07
4.13785e-07
4.85175e-07
5.09775e-07
5.23046e-07
5.21878e-07
4.77102e-07
4.14634e-07
3.50377e-07
2.95775e-07
2.53788e-07
2.22297e-07
2.00429e-07
1.87791e-07
1.98489e-07
2.17763e-07
2.41753e-07
2.72538e-07
3.11414e-07
3.62174e-07
4.24221e-07
4.8665e-07
5.32445e-07
5.35251e-07
5.45942e-07
5.71139e-07
5.64032e-07
5.41594e-07
5.13381e-07
4.83376e-07
4.5435e-07
4.26322e-07
3.9974e-07
3.76979e-07
3.87564e-07
4.14352e-07
4.42561e-07
4.70798e-07
4.98894e-07
5.27229e-07
5.53956e-07
5.75633e-07
5.82518e-07
5.57697e-07
5.69473e-07
6.24215e-07
6.55026e-07
6.69739e-07
6.74368e-07
6.69155e-07
6.54211e-07
6.31001e-07
5.99555e-07
5.63651e-07
5.75091e-07
6.1367e-07
6.47034e-07
6.71462e-07
6.86526e-07
6.91057e-07
6.8505e-07
6.68787e-07
6.36618e-07
5.81442e-07
5.96805e-07
6.83652e-07
7.52051e-07
8.01382e-07
8.36791e-07
8.56981e-07
8.60536e-07
8.45535e-07
8.09317e-07
7.56192e-07
7.69589e-07
8.24142e-07
8.62868e-07
8.80539e-07
8.78332e-07
8.57784e-07
8.20621e-07
7.68799e-07
6.97688e-07
6.09467e-07
6.33715e-07
7.62303e-07
8.7197e-07
9.58215e-07
1.02593e-06
1.07377e-06
1.09996e-06
1.0987e-06
1.06088e-06
9.85889e-07
1.00304e-06
1.07778e-06
1.12024e-06
1.12624e-06
1.10215e-06
1.05349e-06
9.82855e-07
8.92778e-07
7.79092e-07
6.47629e-07
6.88932e-07
8.65425e-07
1.02561e-06
1.15555e-06
1.26462e-06
1.35283e-06
1.41615e-06
1.4473e-06
1.43261e-06
1.35803e-06
1.38083e-06
1.45351e-06
1.47279e-06
1.44686e-06
1.38609e-06
1.29773e-06
1.18633e-06
1.05205e-06
8.86226e-07
7.04812e-07
9.12612e-08
8.73599e-08
5.09757e-08
4.13242e-08
4.11824e-08
4.01328e-08
2.6371e-08
1.69541e-08
1.45897e-08
1.44699e-08
1.45915e-08
1.5336e-08
1.99559e-08
3.16572e-08
4.05483e-08
3.69546e-08
4.75496e-08
8.41828e-08
1.55713e-07
1.79543e-07
3.37996e-07
4.32793e-07
3.64216e-07
2.67233e-07
1.99222e-07
1.34229e-07
6.64753e-08
3.18791e-08
2.17917e-08
1.76233e-08
1.81645e-08
2.25017e-08
3.56861e-08
7.88239e-08
1.60779e-07
2.29378e-07
2.96877e-07
3.97372e-07
4.64331e-07
3.69586e-07
4.19598e-07
4.10543e-07
3.60955e-07
2.85345e-07
2.09914e-07
1.55675e-07
1.15823e-07
7.52709e-08
4.26878e-08
2.57936e-08
2.67913e-08
4.14217e-08
7.11775e-08
1.0851e-07
1.4857e-07
2.01848e-07
2.73909e-07
3.58169e-07
4.17847e-07
4.35311e-07
4.73763e-07
4.27632e-07
3.80265e-07
3.02777e-07
2.13771e-07
1.53932e-07
1.11329e-07
7.51732e-08
4.84719e-08
3.83433e-08
4.11173e-08
5.41257e-08
7.94987e-08
1.12466e-07
1.54154e-07
2.16906e-07
3.13716e-07
3.94385e-07
4.41174e-07
4.87395e-07
5.21878e-07
4.67727e-07
4.32759e-07
3.70467e-07
2.83028e-07
2.08476e-07
1.6011e-07
1.22534e-07
9.87925e-08
9.28984e-08
9.82973e-08
1.10726e-07
1.37213e-07
1.74673e-07
2.22109e-07
2.9631e-07
3.84458e-07
4.48562e-07
4.82034e-07
5.34933e-07
5.71139e-07
5.16132e-07
4.9062e-07
4.51107e-07
3.92658e-07
3.12748e-07
2.57541e-07
2.16698e-07
1.92079e-07
1.82002e-07
1.88034e-07
2.03093e-07
2.30936e-07
2.7365e-07
3.31972e-07
4.07931e-07
4.64381e-07
5.04433e-07
5.29628e-07
5.85156e-07
6.24215e-07
5.67229e-07
5.40955e-07
5.14268e-07
4.95165e-07
4.57633e-07
3.84971e-07
3.20457e-07
2.80323e-07
2.62384e-07
2.6832e-07
2.91381e-07
3.40119e-07
4.05135e-07
4.72879e-07
5.10367e-07
5.29268e-07
5.54637e-07
5.80935e-07
6.39414e-07
6.83652e-07
6.40279e-07
6.20317e-07
6.04221e-07
6.15408e-07
6.24031e-07
6.13837e-07
5.84757e-07
5.3272e-07
4.67833e-07
4.8102e-07
5.48879e-07
5.99534e-07
6.3046e-07
6.43098e-07
6.36397e-07
6.24789e-07
6.38768e-07
6.57275e-07
7.00783e-07
7.62303e-07
8.01732e-07
8.41607e-07
8.70196e-07
9.06564e-07
9.40427e-07
9.62739e-07
9.53565e-07
8.88678e-07
7.64773e-07
7.82282e-07
9.0586e-07
9.78586e-07
9.95987e-07
9.78315e-07
9.43878e-07
9.03904e-07
8.70974e-07
8.25744e-07
7.82239e-07
8.65425e-07
1.07788e-06
1.27758e-06
1.45086e-06
1.61008e-06
1.75263e-06
1.86721e-06
1.93612e-06
1.93159e-06
1.8336e-06
1.86415e-06
1.96075e-06
1.97269e-06
1.91233e-06
1.80166e-06
1.65891e-06
1.49634e-06
1.31673e-06
1.10903e-06
8.89152e-07
4.11675e-08
5.09757e-08
4.89448e-08
5.11661e-08
5.62455e-08
5.63197e-08
3.79592e-08
2.36737e-08
1.88078e-08
1.84938e-08
1.91335e-08
2.15631e-08
2.91469e-08
4.34542e-08
5.55038e-08
4.82656e-08
4.74435e-08
6.00869e-08
8.30991e-08
8.77701e-08
2.8229e-07
3.64216e-07
3.16716e-07
2.53002e-07
2.01317e-07
1.40616e-07
7.6516e-08
4.31089e-08
2.88272e-08
2.2124e-08
2.30345e-08
3.02337e-08
4.66313e-08
8.64855e-08
1.6571e-07
2.34937e-07
2.83495e-07
3.46444e-07
3.93802e-07
3.07206e-07
3.51599e-07
3.60955e-07
3.26655e-07
2.63762e-07
2.04996e-07
1.618e-07
1.28462e-07
8.88836e-08
5.37838e-08
3.30874e-08
3.33399e-08
5.16425e-08
8.27755e-08
1.18528e-07
1.52858e-07
1.98282e-07
2.52825e-07
3.18547e-07
3.60948e-07
3.5782e-07
4.06529e-07
3.80265e-07
3.29773e-07
2.61774e-07
1.94548e-07
1.49916e-07
1.16985e-07
8.57435e-08
6.05341e-08
4.29444e-08
4.55074e-08
6.30825e-08
8.59735e-08
1.14161e-07
1.48886e-07
2.00484e-07
2.77564e-07
3.4867e-07
3.97852e-07
4.16689e-07
4.77102e-07
4.32759e-07
3.68312e-07
2.98178e-07
2.21155e-07
1.63126e-07
1.24971e-07
9.31813e-08
6.77568e-08
5.34527e-08
5.7945e-08
7.54552e-08
1.0133e-07
1.32461e-07
1.71474e-07
2.32394e-07
3.14054e-07
3.87156e-07
4.50696e-07
4.9071e-07
5.64032e-07
4.9062e-07
4.13433e-07
3.40764e-07
2.67099e-07
1.98172e-07
1.52963e-07
1.1909e-07
9.49093e-08
8.34376e-08
8.70372e-08
1.02535e-07
1.29007e-07
1.64508e-07
2.1115e-07
2.78986e-07
3.53803e-07
4.28663e-07
5.05628e-07
5.79787e-07
6.55026e-07
5.40955e-07
4.5386e-07
3.62748e-07
2.96771e-07
2.40285e-07
1.91977e-07
1.54623e-07
1.2983e-07
1.17011e-07
1.20167e-07
1.3623e-07
1.65288e-07
2.05167e-07
2.53318e-07
3.08623e-07
3.76076e-07
4.69779e-07
5.56558e-07
6.73097e-07
7.52051e-07
6.20317e-07
5.41697e-07
4.18683e-07
3.3368e-07
3.04558e-07
2.74878e-07
2.45763e-07
2.15201e-07
1.84959e-07
1.8766e-07
2.21456e-07
2.57399e-07
2.90871e-07
3.22023e-07
3.50802e-07
4.4368e-07
5.66574e-07
6.41759e-07
7.73436e-07
8.7197e-07
8.41607e-07
8.85615e-07
9.29214e-07
9.58417e-07
9.73525e-07
1.01815e-06
1.02122e-06
9.1984e-07
7.25932e-07
7.43139e-07
9.48938e-07
1.06962e-06
1.08248e-06
1.04938e-06
1.02922e-06
9.85544e-07
9.31748e-07
8.75222e-07
8.97974e-07
1.02561e-06
1.27758e-06
1.51233e-06
1.72346e-06
1.92906e-06
2.12654e-06
2.29806e-06
2.41275e-06
2.42386e-06
2.29646e-06
2.33452e-06
2.46144e-06
2.46092e-06
2.35863e-06
2.19243e-06
1.99489e-06
1.78488e-06
1.56503e-06
1.31946e-06
1.05696e-06
2.59103e-08
4.13242e-08
5.11661e-08
6.027e-08
6.97257e-08
6.47974e-08
4.4884e-08
2.94491e-08
2.28402e-08
2.24639e-08
2.34867e-08
2.6565e-08
3.51196e-08
4.94847e-08
6.55164e-08
6.16619e-08
5.14809e-08
4.82134e-08
4.82244e-08
3.70229e-08
2.04427e-07
2.67233e-07
2.53002e-07
2.20379e-07
1.7871e-07
1.24305e-07
7.27354e-08
4.65022e-08
3.31414e-08
2.81894e-08
2.86827e-08
3.42687e-08
4.86181e-08
7.81448e-08
1.40925e-07
2.10874e-07
2.52185e-07
2.77164e-07
2.8591e-07
2.23215e-07
2.74977e-07
2.85345e-07
2.63762e-07
2.24248e-07
1.86981e-07
1.57768e-07
1.28846e-07
8.94421e-08
5.59769e-08
3.81462e-08
3.75278e-08
5.29219e-08
8.16767e-08
1.16941e-07
1.45636e-07
1.79232e-07
2.15719e-07
2.51685e-07
2.74382e-07
2.69122e-07
3.17999e-07
3.02777e-07
2.61774e-07
2.14146e-07
1.72082e-07
1.421e-07
1.16713e-07
8.99968e-08
6.62538e-08
4.7304e-08
4.82602e-08
6.76883e-08
8.94617e-08
1.12413e-07
1.38975e-07
1.75247e-07
2.25636e-07
2.78555e-07
3.16995e-07
3.22192e-07
4.14634e-07
3.70467e-07
2.98178e-07
2.35453e-07
1.80965e-07
1.4156e-07
1.13501e-07
8.81525e-08
6.52247e-08
4.72367e-08
5.04077e-08
7.0404e-08
9.27381e-08
1.16924e-07
1.46309e-07
1.89526e-07
2.49083e-07
3.15041e-07
3.87318e-07
4.29017e-07
5.41594e-07
4.51107e-07
3.40764e-07
2.64313e-07
2.02275e-07
1.53579e-07
1.20052e-07
9.28238e-08
6.94915e-08
5.25198e-08
5.55587e-08
7.51888e-08
9.9999e-08
1.27928e-07
1.6242e-07
2.11768e-07
2.75523e-07
3.54026e-07
4.65353e-07
5.58912e-07
6.69739e-07
5.14268e-07
3.62748e-07
2.72868e-07
2.13849e-07
1.69868e-07
1.37019e-07
1.10561e-07
8.86956e-08
7.29716e-08
7.55685e-08
9.45998e-08
1.19564e-07
1.47493e-07
1.80295e-07
2.23457e-07
2.83291e-07
3.7644e-07
5.2922e-07
6.90254e-07
8.01382e-07
6.04221e-07
4.18683e-07
3.14292e-07
2.82555e-07
2.68826e-07
2.60834e-07
2.49789e-07
2.22539e-07
1.81469e-07
1.85281e-07
2.348e-07
2.69307e-07
2.83053e-07
2.89343e-07
2.99089e-07
3.31143e-07
4.4748e-07
6.27134e-07
8.26504e-07
9.58215e-07
8.70196e-07
9.29214e-07
9.96783e-07
1.13395e-06
1.29879e-06
1.46419e-06
1.54481e-06
1.44285e-06
1.1765e-06
1.18622e-06
1.49082e-06
1.63133e-06
1.56698e-06
1.40244e-06
1.22035e-06
1.07364e-06
9.9317e-07
9.12337e-07
9.89792e-07
1.15555e-06
1.45086e-06
1.72346e-06
1.97604e-06
2.24053e-06
2.51156e-06
2.7634e-06
2.94578e-06
2.99774e-06
2.87859e-06
2.91965e-06
3.04041e-06
3.00329e-06
2.83663e-06
2.59387e-06
2.32296e-06
2.05323e-06
1.78898e-06
1.5024e-06
1.19332e-06
2.10948e-08
4.11824e-08
5.62455e-08
6.97257e-08
7.44013e-08
6.42835e-08
4.71508e-08
3.34991e-08
2.65396e-08
2.65082e-08
2.78023e-08
3.05281e-08
3.84254e-08
5.06177e-08
6.5209e-08
7.17978e-08
6.10492e-08
4.86201e-08
3.72079e-08
1.96929e-08
1.40952e-07
1.99222e-07
2.01317e-07
1.7871e-07
1.41564e-07
9.83689e-08
6.47865e-08
4.57959e-08
3.48996e-08
3.34725e-08
3.38462e-08
3.58712e-08
4.65208e-08
6.59751e-08
1.03034e-07
1.60145e-07
2.07477e-07
2.25724e-07
2.14669e-07
1.53781e-07
1.99803e-07
2.09914e-07
2.04996e-07
1.86981e-07
1.67562e-07
1.47682e-07
1.17782e-07
8.08612e-08
5.28232e-08
4.05552e-08
4.01081e-08
4.99382e-08
7.24909e-08
1.04491e-07
1.32483e-07
1.54102e-07
1.77293e-07
1.9479e-07
1.97759e-07
1.8841e-07
2.29142e-07
2.13771e-07
1.94548e-07
1.72082e-07
1.5032e-07
1.31172e-07
1.10565e-07
8.77571e-08
6.57819e-08
4.9312e-08
4.96848e-08
6.60616e-08
8.66689e-08
1.05785e-07
1.2507e-07
1.47194e-07
1.738e-07
1.98987e-07
2.16877e-07
2.30293e-07
3.50377e-07
2.83028e-07
2.21155e-07
1.80965e-07
1.49364e-07
1.25091e-07
1.04903e-07
8.51679e-08
6.66423e-08
5.26038e-08
5.49216e-08
7.08539e-08
8.80142e-08
1.05798e-07
1.26296e-07
1.53118e-07
1.88231e-07
2.31601e-07
2.98287e-07
3.67021e-07
5.13381e-07
3.92658e-07
2.67099e-07
2.02275e-07
1.5976e-07
1.28512e-07
1.04911e-07
8.44146e-08
6.62661e-08
5.34459e-08
5.57736e-08
7.07894e-08
8.94599e-08
1.09739e-07
1.33837e-07
1.66222e-07
2.1067e-07
2.78267e-07
4.08095e-07
5.32477e-07
6.74368e-07
4.95165e-07
2.96771e-07
2.13849e-07
1.70113e-07
1.4072e-07
1.1875e-07
1.00659e-07
8.54421e-08
7.65558e-08
7.92855e-08
9.1504e-08
1.08608e-07
1.26918e-07
1.48481e-07
1.77525e-07
2.22059e-07
3.0728e-07
5.0908e-07
6.96768e-07
8.36791e-07
6.15408e-07
3.3368e-07
2.82555e-07
2.78088e-07
2.8398e-07
2.94338e-07
2.97942e-07
2.75989e-07
2.31612e-07
2.35706e-07
2.91325e-07
3.2286e-07
3.2155e-07
3.07632e-07
2.96151e-07
2.9661e-07
3.4675e-07
6.39298e-07
8.64598e-07
1.02593e-06
9.06564e-07
9.58417e-07
1.13395e-06
1.44899e-06
1.76494e-06
2.05217e-06
2.19837e-06
2.04795e-06
1.62776e-06
1.62342e-06
2.09657e-06
2.32066e-06
2.2079e-06
1.91181e-06
1.57384e-06
1.23106e-06
1.05306e-06
9.56665e-07
1.06221e-06
1.26462e-06
1.61008e-06
1.92906e-06
2.24053e-06
2.59686e-06
2.96394e-06
3.30877e-06
3.57319e-06
3.68278e-06
3.58764e-06
3.63663e-06
3.72722e-06
3.63377e-06
3.38865e-06
3.05527e-06
2.69062e-06
2.32926e-06
2.00461e-06
1.66893e-06
1.30693e-06
1.79902e-08
4.01328e-08
5.63197e-08
6.47974e-08
6.42835e-08
5.65739e-08
4.56941e-08
3.59221e-08
3.01659e-08
3.10581e-08
3.25708e-08
3.40196e-08
3.98886e-08
4.82684e-08
5.73395e-08
6.39315e-08
6.27159e-08
5.19572e-08
3.56127e-08
1.50377e-08
7.62789e-08
1.34229e-07
1.40616e-07
1.24305e-07
9.83689e-08
7.42233e-08
5.62308e-08
4.35113e-08
3.63756e-08
3.96515e-08
4.01425e-08
3.72079e-08
4.32053e-08
5.49733e-08
7.2499e-08
9.99585e-08
1.34416e-07
1.5517e-07
1.46118e-07
8.75186e-08
1.38675e-07
1.55675e-07
1.618e-07
1.57768e-07
1.47682e-07
1.27643e-07
9.80656e-08
6.83674e-08
4.84498e-08
4.26331e-08
4.29417e-08
4.65212e-08
6.10048e-08
8.4213e-08
1.10495e-07
1.29752e-07
1.41049e-07
1.47011e-07
1.41568e-07
1.25747e-07
1.57541e-07
1.53932e-07
1.49916e-07
1.421e-07
1.31172e-07
1.17142e-07
9.97701e-08
8.03667e-08
6.13436e-08
5.00275e-08
5.08516e-08
6.06095e-08
7.77553e-08
9.47964e-08
1.09279e-07
1.22938e-07
1.35439e-07
1.44817e-07
1.50631e-07
1.61259e-07
2.95775e-07
2.08476e-07
1.63126e-07
1.4156e-07
1.25091e-07
1.10009e-07
9.50313e-08
7.97418e-08
6.57836e-08
5.7476e-08
6.04519e-08
6.98524e-08
8.17411e-08
9.43185e-08
1.0832e-07
1.24335e-07
1.42972e-07
1.67801e-07
2.19426e-07
3.15176e-07
4.83376e-07
3.12748e-07
1.98172e-07
1.53579e-07
1.28512e-07
1.09403e-07
9.30708e-08
7.83883e-08
6.6475e-08
6.24767e-08
6.57946e-08
7.0747e-08
8.18907e-08
9.54832e-08
1.11656e-07
1.3179e-07
1.59239e-07
2.08395e-07
3.31684e-07
5.03644e-07
6.69155e-07
4.57633e-07
2.40285e-07
1.69868e-07
1.4072e-07
1.22733e-07
1.0892e-07
9.80325e-08
9.09003e-08
9.5567e-08
1.00227e-07
9.75994e-08
1.05054e-07
1.15126e-07
1.28126e-07
1.46108e-07
1.76658e-07
2.49991e-07
4.70108e-07
6.92236e-07
8.56981e-07
6.24031e-07
3.04558e-07
2.68826e-07
2.8398e-07
3.11543e-07
3.40924e-07
3.56695e-07
3.31179e-07
2.76476e-07
2.79563e-07
3.44186e-07
3.82985e-07
3.71994e-07
3.39286e-07
3.06195e-07
2.85376e-07
3.16587e-07
6.45446e-07
8.85588e-07
1.07377e-06
9.40427e-07
9.73525e-07
1.29879e-06
1.76494e-06
2.25159e-06
2.6734e-06
2.88507e-06
2.60655e-06
1.9336e-06
1.89996e-06
2.5902e-06
2.9932e-06
2.85239e-06
2.43e-06
1.93195e-06
1.42506e-06
1.08118e-06
9.93613e-07
1.11237e-06
1.35283e-06
1.75263e-06
2.12654e-06
2.51156e-06
2.96394e-06
3.43654e-06
3.88961e-06
4.25799e-06
4.45531e-06
4.42885e-06
4.49771e-06
4.49874e-06
4.31105e-06
3.96414e-06
3.52675e-06
3.06138e-06
2.60577e-06
2.20702e-06
1.81507e-06
1.39701e-06
1.1903e-08
2.6371e-08
3.79592e-08
4.4884e-08
4.71508e-08
4.56941e-08
4.1716e-08
3.69583e-08
3.39884e-08
3.73372e-08
3.90747e-08
3.76221e-08
4.02231e-08
4.40102e-08
4.7213e-08
4.83667e-08
4.58807e-08
3.84067e-08
2.55447e-08
1.05948e-08
2.42302e-08
6.64754e-08
7.65161e-08
7.27354e-08
6.47865e-08
5.62308e-08
4.79847e-08
4.10169e-08
3.94067e-08
5.3211e-08
5.39335e-08
4.02198e-08
4.02529e-08
4.57818e-08
5.31067e-08
6.15952e-08
7.09403e-08
7.63592e-08
6.68881e-08
2.34633e-08
8.94855e-08
1.15823e-07
1.28462e-07
1.28846e-07
1.17782e-07
9.80656e-08
7.5643e-08
5.6756e-08
4.64049e-08
5.34524e-08
5.53753e-08
4.596e-08
5.14357e-08
6.43343e-08
8.15466e-08
9.89775e-08
1.09561e-07
1.10272e-07
9.95826e-08
7.81248e-08
1.06341e-07
1.11329e-07
1.16985e-07
1.16713e-07
1.10565e-07
9.97701e-08
8.57385e-08
6.97988e-08
5.7359e-08
6.38007e-08
6.79564e-08
5.73409e-08
6.58598e-08
7.96926e-08
9.20593e-08
1.01096e-07
1.06611e-07
1.07813e-07
1.06177e-07
1.13417e-07
2.53788e-07
1.6011e-07
1.24971e-07
1.13501e-07
1.04903e-07
9.50313e-08
8.38059e-08
7.24103e-08
6.49637e-08
8.0227e-08
8.88279e-08
6.98511e-08
7.39996e-08
8.24897e-08
9.20165e-08
1.01763e-07
1.11706e-07
1.26606e-07
1.6927e-07
2.73976e-07
4.5435e-07
2.57541e-07
1.52963e-07
1.20052e-07
1.04911e-07
9.30708e-08
8.19324e-08
7.2142e-08
6.84971e-08
9.76746e-08
1.09303e-07
7.42016e-08
7.47092e-08
8.27547e-08
9.31818e-08
1.05552e-07
1.22562e-07
1.58837e-07
2.68584e-07
4.73828e-07
6.54211e-07
3.84971e-07
1.91977e-07
1.37019e-07
1.1875e-07
1.0892e-07
1.01639e-07
9.69803e-08
1.00041e-07
1.48515e-07
1.64573e-07
1.09029e-07
1.03376e-07
1.06548e-07
1.127e-07
1.22386e-07
1.42014e-07
2.00688e-07
4.03999e-07
6.76467e-07
8.60536e-07
6.13837e-07
2.74878e-07
2.60834e-07
2.94338e-07
3.40924e-07
3.87777e-07
4.07079e-07
3.62734e-07
3.23881e-07
3.35013e-07
3.67395e-07
4.24021e-07
4.16807e-07
3.7124e-07
3.20144e-07
2.79874e-07
2.86405e-07
6.32892e-07
8.87782e-07
1.09996e-06
9.62739e-07
1.01815e-06
1.46419e-06
2.05217e-06
2.6734e-06
3.25927e-06
3.48908e-06
2.90079e-06
2.22792e-06
2.22962e-06
2.75862e-06
3.45778e-06
3.38596e-06
2.85816e-06
2.23641e-06
1.59987e-06
1.11412e-06
1.01244e-06
1.13747e-06
1.41615e-06
1.86721e-06
2.29806e-06
2.7634e-06
3.30877e-06
3.88961e-06
4.46824e-06
4.97516e-06
5.33521e-06
5.54424e-06
5.66505e-06
5.38934e-06
5.01332e-06
4.52367e-06
3.96535e-06
3.39639e-06
2.85059e-06
2.37613e-06
1.92731e-06
1.45823e-06
9.78581e-09
1.69541e-08
2.36737e-08
2.94491e-08
3.34991e-08
3.59221e-08
3.69583e-08
3.72057e-08
3.83446e-08
4.53655e-08
4.76223e-08
4.18794e-08
4.01703e-08
3.93892e-08
3.8191e-08
3.58354e-08
3.17089e-08
2.52282e-08
1.65709e-08
8.38431e-09
1.95061e-08
3.18791e-08
4.31089e-08
4.65022e-08
4.57959e-08
4.35113e-08
4.10169e-08
4.0443e-08
4.70854e-08
7.68542e-08
7.86703e-08
4.77864e-08
3.96758e-08
3.91638e-08
4.08193e-08
4.25527e-08
4.30288e-08
3.98735e-08
2.9616e-08
1.66664e-08
4.7395e-08
7.52709e-08
8.88836e-08
8.94421e-08
8.08612e-08
6.83674e-08
5.6756e-08
4.93632e-08
5.40886e-08
1.3883e-07
1.44722e-07
5.5376e-08
4.6274e-08
4.96692e-08
5.70853e-08
6.59407e-08
7.27097e-08
7.26495e-08
6.11592e-08
3.45598e-08
6.83707e-08
7.51732e-08
8.57435e-08
8.99969e-08
8.77572e-08
8.03667e-08
6.97988e-08
6.06941e-08
7.10337e-08
2.51109e-07
2.6869e-07
7.43574e-08
5.72692e-08
6.33455e-08
7.27799e-08
8.00301e-08
8.2374e-08
7.89859e-08
7.26075e-08
7.58926e-08
2.22297e-07
1.22534e-07
9.31814e-08
8.81525e-08
8.51679e-08
7.97418e-08
7.24103e-08
6.72061e-08
9.2319e-08
4.31251e-07
4.74196e-07
1.0281e-07
6.87425e-08
7.15186e-08
7.74767e-08
8.2684e-08
8.68865e-08
9.51149e-08
1.31098e-07
2.40902e-07
4.26322e-07
2.16698e-07
1.1909e-07
9.28238e-08
8.44146e-08
7.83883e-08
7.2142e-08
6.95697e-08
1.12565e-07
6.44199e-07
7.13788e-07
1.27215e-07
7.23449e-08
7.23667e-08
7.773e-08
8.39925e-08
9.38865e-08
1.23054e-07
2.25867e-07
4.433e-07
6.31001e-07
3.20457e-07
1.54623e-07
1.10561e-07
1.00659e-07
9.80325e-08
9.69803e-08
1.01222e-07
1.67007e-07
8.58775e-07
9.53877e-07
1.88432e-07
1.08223e-07
1.0131e-07
1.01071e-07
1.03082e-07
1.13593e-07
1.60702e-07
3.37928e-07
6.50408e-07
8.45534e-07
5.84757e-07
2.45763e-07
2.49789e-07
2.97942e-07
3.56695e-07
4.07079e-07
4.09515e-07
3.90613e-07
9.42222e-07
1.03726e-06
4.03656e-07
4.11442e-07
4.22769e-07
3.81422e-07
3.21638e-07
2.67263e-07
2.5511e-07
6.02706e-07
8.6918e-07
1.0987e-06
9.53565e-07
1.02122e-06
1.54481e-06
2.19837e-06
2.88507e-06
3.48908e-06
3.46559e-06
2.81315e-06
3.72095e-06
3.77322e-06
2.78394e-06
3.26827e-06
3.4552e-06
2.99533e-06
2.34292e-06
1.66269e-06
1.09986e-06
9.93472e-07
1.13067e-06
1.4473e-06
1.93612e-06
2.41275e-06
2.94578e-06
3.57319e-06
4.25799e-06
4.97516e-06
5.68542e-06
6.41763e-06
7.31427e-06
7.51653e-06
6.52727e-06
5.72641e-06
5.00767e-06
4.30692e-06
3.63642e-06
3.01291e-06
2.47401e-06
1.98448e-06
1.48216e-06
9.04718e-09
1.45897e-08
1.88078e-08
2.28402e-08
2.65396e-08
3.01659e-08
3.39884e-08
3.83446e-08
4.31368e-08
5.30815e-08
5.63675e-08
4.64663e-08
4.09713e-08
3.61384e-08
3.20908e-08
2.821e-08
2.39747e-08
1.89278e-08
1.33092e-08
7.86476e-09
1.80645e-08
2.17917e-08
2.88272e-08
3.31414e-08
3.48996e-08
3.63756e-08
3.94067e-08
4.70854e-08
7.03185e-08
4.88374e-07
4.97072e-07
7.11483e-08
4.63495e-08
3.82792e-08
3.50474e-08
3.32561e-08
3.10685e-08
2.65773e-08
1.89428e-08
1.64668e-08
2.24848e-08
4.26878e-08
5.37838e-08
5.59769e-08
5.28232e-08
4.84498e-08
4.64049e-08
5.40886e-08
1.68307e-07
2.0062e-06
2.03152e-06
1.70639e-07
5.30355e-08
4.31566e-08
4.31547e-08
4.52304e-08
4.63514e-08
4.3315e-08
3.25664e-08
2.13251e-08
4.30291e-08
4.84719e-08
6.05341e-08
6.62538e-08
6.57819e-08
6.13436e-08
5.7359e-08
7.10337e-08
3.44714e-07
3.99076e-06
4.0496e-06
3.54835e-07
7.04064e-08
5.3208e-08
5.55793e-08
5.98248e-08
6.12444e-08
5.72215e-08
4.90074e-08
5.19507e-08
2.00429e-07
9.87925e-08
6.77568e-08
6.52247e-08
6.66423e-08
6.57836e-08
6.49637e-08
9.2319e-08
6.224e-07
6.56881e-06
6.68011e-06
6.56977e-07
9.73239e-08
6.52021e-08
6.53165e-08
6.62354e-08
6.59906e-08
7.15845e-08
1.08078e-07
2.16835e-07
3.9974e-07
1.92079e-07
9.49094e-08
6.94915e-08
6.62661e-08
6.6475e-08
6.84971e-08
1.12565e-07
9.54478e-07
9.23715e-06
9.37783e-06
1.00677e-06
1.21131e-07
7.00952e-08
6.65606e-08
6.59296e-08
7.00939e-08
9.83797e-08
2.00143e-07
4.13507e-07
5.99555e-07
2.80323e-07
1.2983e-07
8.86956e-08
8.54421e-08
9.09003e-08
1.00041e-07
1.67007e-07
1.28328e-06
1.09081e-05
1.10679e-05
1.34946e-06
1.82421e-07
1.06455e-07
9.48309e-08
8.7508e-08
9.03106e-08
1.34112e-07
2.89216e-07
6.15268e-07
8.09317e-07
5.3272e-07
2.15201e-07
2.22539e-07
2.75989e-07
3.31179e-07
3.62734e-07
3.90613e-07
1.35424e-06
1.02936e-05
1.054e-05
1.42005e-06
3.99977e-07
3.67412e-07
3.43457e-07
2.90645e-07
2.33639e-07
2.21402e-07
5.52278e-07
8.28664e-07
1.06088e-06
8.88678e-07
9.1984e-07
1.44285e-06
2.04795e-06
2.60655e-06
2.90079e-06
2.81315e-06
3.96697e-06
8.76402e-06
8.89191e-06
4.02652e-06
2.76685e-06
2.78337e-06
2.59532e-06
2.10776e-06
1.51299e-06
9.74993e-07
9.17229e-07
1.0857e-06
1.43261e-06
1.93159e-06
2.42386e-06
2.99774e-06
3.68278e-06
4.45531e-06
5.33521e-06
6.41763e-06
7.95542e-06
9.99168e-06
1.02954e-05
8.12335e-06
6.49936e-06
5.36736e-06
4.48093e-06
3.71726e-06
3.0394e-06
2.46623e-06
1.96686e-06
1.45955e-06
8.96701e-09
1.44699e-08
1.84938e-08
2.24639e-08
2.65082e-08
3.10581e-08
3.73372e-08
4.53655e-08
5.30815e-08
6.07661e-08
6.41737e-08
5.57543e-08
4.66557e-08
3.79081e-08
3.12268e-08
2.63173e-08
2.19213e-08
1.74709e-08
1.32913e-08
7.98949e-09
1.87049e-08
1.76233e-08
2.2124e-08
2.81894e-08
3.34725e-08
3.96515e-08
5.3211e-08
7.68542e-08
4.88374e-07
7.48923e-07
7.59078e-07
4.82971e-07
7.39536e-08
5.0578e-08
3.78879e-08
3.21882e-08
2.73965e-08
2.1367e-08
1.66983e-08
1.76265e-08
2.629e-08
2.57936e-08
3.30874e-08
3.81462e-08
4.05552e-08
4.26331e-08
5.34524e-08
1.3883e-07
2.0062e-06
1.71503e-06
1.72463e-06
1.99523e-06
1.34341e-07
5.20938e-08
4.09926e-08
3.81376e-08
3.47309e-08
2.92602e-08
2.29213e-08
2.48586e-08
3.96265e-08
3.83433e-08
4.29444e-08
4.7304e-08
4.9312e-08
5.00275e-08
6.38007e-08
2.51109e-07
3.99076e-06
3.01095e-06
3.02654e-06
3.96428e-06
2.50857e-07
6.44127e-08
4.89531e-08
4.70815e-08
4.41926e-08
4.09702e-08
3.92526e-08
4.50595e-08
1.87791e-07
9.28984e-08
5.34527e-08
4.72367e-08
5.26038e-08
5.7476e-08
8.0227e-08
4.31251e-07
6.56881e-06
4.67018e-06
4.70818e-06
6.53111e-06
4.44799e-07
8.55054e-08
5.92533e-08
5.30446e-08
4.71751e-08
5.77481e-08
1.01812e-07
2.00692e-07
3.76979e-07
1.82002e-07
8.34376e-08
5.25198e-08
5.34459e-08
6.24767e-08
9.76746e-08
6.44199e-07
9.23715e-06
6.60777e-06
6.68085e-06
9.11849e-06
6.64848e-07
1.06477e-07
6.49626e-08
5.34516e-08
5.31359e-08
8.81552e-08
1.88626e-07
3.87008e-07
5.63651e-07
2.62384e-07
1.17011e-07
7.29716e-08
7.65558e-08
9.5567e-08
1.48515e-07
8.58774e-07
1.09081e-05
8.50205e-06
8.61215e-06
1.06709e-05
8.86413e-07
1.64723e-07
1.02632e-07
7.91643e-08
7.49483e-08
1.21923e-07
2.68593e-07
5.75163e-07
7.56192e-07
4.67833e-07
1.84959e-07
1.81469e-07
2.31612e-07
2.76476e-07
3.23881e-07
9.42222e-07
1.02936e-05
9.67785e-06
9.81313e-06
1.00553e-05
9.72856e-07
3.39114e-07
2.83014e-07
2.37187e-07
1.86401e-07
1.89284e-07
4.82453e-07
7.70285e-07
9.85889e-07
7.64773e-07
7.25932e-07
1.1765e-06
1.62776e-06
1.9336e-06
2.22792e-06
3.72095e-06
8.76402e-06
9.92841e-06
1.01046e-05
8.598e-06
3.70441e-06
2.21728e-06
1.89211e-06
1.6224e-06
1.20262e-06
7.61035e-07
7.84518e-07
1.00381e-06
1.35803e-06
1.8336e-06
2.29646e-06
2.87859e-06
3.58764e-06
4.42885e-06
5.54424e-06
7.31427e-06
9.99168e-06
1.08597e-05
1.12349e-05
1.01186e-05
7.40293e-06
5.59373e-06
4.44725e-06
3.60184e-06
2.89986e-06
2.32409e-06
1.85812e-06
1.37763e-06
8.82728e-09
1.45915e-08
1.91335e-08
2.34867e-08
2.78023e-08
3.25708e-08
3.90747e-08
4.76223e-08
5.63675e-08
6.41737e-08
6.81816e-08
5.9979e-08
5.07416e-08
4.06546e-08
3.30645e-08
2.76418e-08
2.28247e-08
1.8183e-08
1.38378e-08
8.25714e-09
1.89192e-08
1.81645e-08
2.30345e-08
2.86827e-08
3.38462e-08
4.01425e-08
5.39335e-08
7.86703e-08
4.97072e-07
7.59078e-07
8.11419e-07
5.37023e-07
8.2896e-08
5.41971e-08
3.93052e-08
3.27874e-08
2.73128e-08
2.12863e-08
1.69056e-08
1.80999e-08
2.69074e-08
2.67913e-08
3.33399e-08
3.75277e-08
4.01081e-08
4.29417e-08
5.53753e-08
1.44722e-07
2.03151e-06
1.72463e-06
1.83684e-06
2.11159e-06
1.49724e-07
5.61671e-08
4.2866e-08
3.96089e-08
3.60446e-08
3.09044e-08
2.44153e-08
2.57089e-08
4.34151e-08
4.11173e-08
4.55074e-08
4.82602e-08
4.96848e-08
5.08516e-08
6.79564e-08
2.6869e-07
4.0496e-06
3.02654e-06
3.20019e-06
4.0673e-06
2.70773e-07
6.82191e-08
5.12033e-08
4.97212e-08
4.77248e-08
4.47964e-08
4.10605e-08
4.30748e-08
1.98489e-07
9.82973e-08
5.7945e-08
5.04077e-08
5.49216e-08
6.04519e-08
8.88279e-08
4.74196e-07
6.68011e-06
4.70818e-06
4.94393e-06
6.56322e-06
4.62904e-07
8.74983e-08
6.03312e-08
5.49827e-08
5.12794e-08
6.08315e-08
1.02355e-07
2.02409e-07
3.87564e-07
1.88034e-07
8.70372e-08
5.55587e-08
5.57736e-08
6.57946e-08
1.09303e-07
7.13788e-07
9.37782e-06
6.68085e-06
6.97572e-06
9.08276e-06
6.82901e-07
1.05217e-07
6.41859e-08
5.52553e-08
5.70279e-08
9.02407e-08
1.90825e-07
3.90517e-07
5.75091e-07
2.6832e-07
1.20167e-07
7.55685e-08
7.92855e-08
1.00227e-07
1.64573e-07
9.53877e-07
1.10679e-05
8.61215e-06
8.95498e-06
1.05974e-05
8.9956e-07
1.57124e-07
9.72014e-08
7.83957e-08
7.75008e-08
1.24059e-07
2.72571e-07
5.79847e-07
7.69589e-07
4.8102e-07
1.8766e-07
1.85281e-07
2.35706e-07
2.79563e-07
3.35013e-07
1.03726e-06
1.054e-05
9.81313e-06
1.01893e-05
1.00646e-05
9.91042e-07
3.30893e-07
2.77349e-07
2.36759e-07
1.89906e-07
1.92112e-07
4.90733e-07
7.75975e-07
1.00304e-06
7.82282e-07
7.43139e-07
1.18622e-06
1.62342e-06
1.89996e-06
2.22962e-06
3.77322e-06
8.89191e-06
1.01046e-05
1.04881e-05
8.60752e-06
3.7058e-06
2.21801e-06
1.89269e-06
1.63711e-06
1.2187e-06
7.72856e-07
7.96577e-07
1.01071e-06
1.38083e-06
1.86415e-06
2.33452e-06
2.91965e-06
3.63663e-06
4.49771e-06
5.66505e-06
7.51653e-06
1.02954e-05
1.12349e-05
1.17526e-05
1.03722e-05
7.53971e-06
5.67053e-06
4.4932e-06
3.63434e-06
2.92551e-06
2.34565e-06
1.87248e-06
1.3859e-06
8.57025e-09
1.5336e-08
2.15631e-08
2.6565e-08
3.05281e-08
3.40196e-08
3.76221e-08
4.18794e-08
4.64663e-08
5.57543e-08
5.9979e-08
5.01244e-08
4.28963e-08
3.69025e-08
3.23967e-08
2.84368e-08
2.43466e-08
1.95175e-08
1.41906e-08
8.31589e-09
1.7906e-08
2.25017e-08
3.02337e-08
3.42687e-08
3.58712e-08
3.72079e-08
4.02198e-08
4.77864e-08
7.11483e-08
4.8297e-07
5.37023e-07
7.86107e-08
4.89425e-08
3.86465e-08
3.48999e-08
3.32538e-08
3.145e-08
2.68547e-08
1.97152e-08
1.73198e-08
2.40659e-08
4.14217e-08
5.16425e-08
5.29219e-08
4.99381e-08
4.65212e-08
4.596e-08
5.5376e-08
1.70639e-07
1.99523e-06
2.11159e-06
1.83204e-07
5.59373e-08
4.48633e-08
4.53883e-08
4.86642e-08
5.12016e-08
4.93484e-08
3.86534e-08
2.28445e-08
5.79278e-08
5.41257e-08
6.30825e-08
6.76883e-08
6.60616e-08
6.06095e-08
5.73409e-08
7.43574e-08
3.54835e-07
3.96428e-06
4.0673e-06
3.69874e-07
7.35168e-08
5.63548e-08
5.99139e-08
6.49997e-08
6.60902e-08
6.14106e-08
5.23876e-08
5.16852e-08
2.17763e-07
1.10726e-07
7.54552e-08
7.0404e-08
7.08539e-08
6.98524e-08
6.98511e-08
1.0281e-07
6.56977e-07
6.53111e-06
6.56322e-06
6.62014e-07
9.87608e-08
6.71155e-08
6.78064e-08
6.92641e-08
6.99925e-08
7.674e-08
1.12813e-07
2.19014e-07
4.14352e-07
2.03093e-07
1.02535e-07
7.51888e-08
7.07894e-08
7.0747e-08
7.42016e-08
1.27215e-07
1.00677e-06
9.11849e-06
9.08276e-06
1.00082e-06
1.2046e-07
7.04328e-08
6.8249e-08
6.95311e-08
7.58921e-08
1.05047e-07
2.0583e-07
4.16797e-07
6.1367e-07
2.91381e-07
1.3623e-07
9.45998e-08
9.1504e-08
9.75994e-08
1.09029e-07
1.88432e-07
1.34946e-06
1.06709e-05
1.05974e-05
1.32431e-06
1.76459e-07
1.02707e-07
9.33985e-08
8.94519e-08
9.56167e-08
1.40551e-07
2.98522e-07
6.18702e-07
8.24142e-07
5.48879e-07
2.21456e-07
2.348e-07
2.91325e-07
3.44186e-07
3.67395e-07
4.03656e-07
1.42005e-06
1.00553e-05
1.00646e-05
1.40467e-06
3.90417e-07
3.59035e-07
3.3926e-07
2.90439e-07
2.37625e-07
2.28052e-07
5.61115e-07
8.31192e-07
1.07778e-06
9.0586e-07
9.48938e-07
1.49082e-06
2.09657e-06
2.5902e-06
2.75862e-06
2.78394e-06
4.02652e-06
8.59799e-06
8.60752e-06
3.9967e-06
2.74924e-06
2.73983e-06
2.60115e-06
2.12905e-06
1.52667e-06
9.83279e-07
9.23704e-07
1.08605e-06
1.45351e-06
1.96075e-06
2.46144e-06
3.04041e-06
3.72722e-06
4.49874e-06
5.38934e-06
6.52726e-06
8.12335e-06
1.01186e-05
1.03722e-05
8.2181e-06
6.56441e-06
5.40352e-06
4.50445e-06
3.73334e-06
3.04992e-06
2.4735e-06
1.96937e-06
1.45848e-06
9.35257e-09
1.99559e-08
2.91469e-08
3.51196e-08
3.84254e-08
3.98886e-08
4.02231e-08
4.01703e-08
4.09713e-08
4.66557e-08
5.07416e-08
4.28963e-08
3.86946e-08
3.66764e-08
3.50863e-08
3.28871e-08
2.94667e-08
2.41344e-08
1.64566e-08
8.72003e-09
2.05387e-08
3.56861e-08
4.66313e-08
4.86181e-08
4.65208e-08
4.32053e-08
4.02529e-08
3.96758e-08
4.63495e-08
7.39536e-08
8.2896e-08
4.89425e-08
3.82076e-08
3.73183e-08
3.98358e-08
4.29681e-08
4.51661e-08
4.33145e-08
3.15982e-08
1.74992e-08
4.78826e-08
7.11775e-08
8.27755e-08
8.16766e-08
7.24909e-08
6.10048e-08
5.14357e-08
4.6274e-08
5.30355e-08
1.34341e-07
1.49724e-07
5.59373e-08
4.56248e-08
5.03385e-08
5.98842e-08
7.10427e-08
7.97068e-08
8.0123e-08
6.7544e-08
4.01727e-08
8.47035e-08
7.94987e-08
8.59735e-08
8.94617e-08
8.66688e-08