/*--------------------------------*- C++ -*----------------------------------*\
  =========                 |
  \\      /  F ield         | OpenFOAM: The Open Source CFD Toolbox
   \\    /   O peration     | Website:  https://openfoam.org
    \\  /    A nd           | Version:  9
     \\/     M anipulation  |
\*---------------------------------------------------------------------------*/
FoamFile
{
    format      ascii;
    class       volScalarField;
    location    "0.12";
    object      k;
}
// * * * * * * * * * * * * * * * * * * * * * * * * * * * * * * * * * * * * * //

dimensions      [0 2 -2 0 0 0 0];

internalField   nonuniform List<scalar> 
12225
(
0.353921
0.335043
0.316966
0.300961
0.288126
0.278909
0.273302
0.271009
0.271576
0.274485
0.279224
0.285322
0.292374
0.300045
0.308082
0.316272
0.324677
0.33687
0.436865
0.44898
0.438087
0.433065
0.438796
0.453602
0.474826
0.500019
0.527195
0.554868
0.58201
0.607959
0.632339
0.654979
0.676
0.695301
0.715116
0.730549
0.395187
0.410873
0.410631
0.405747
0.402012
0.400927
0.40262
0.406817
0.413097
0.421002
0.430099
0.440009
0.450423
0.461101
0.471908
0.482741
0.493924
0.504798
0.379641
0.38484
0.386546
0.38573
0.383905
0.382027
0.380569
0.379741
0.37961
0.380154
0.381311
0.383001
0.385141
0.387658
0.390503
0.393643
0.397111
0.400803
0.374976
0.3759
0.376239
0.375721
0.37457
0.373083
0.371496
0.369967
0.368594
0.367427
0.366487
0.365772
0.365275
0.364979
0.364875
0.364954
0.365214
0.365626
0.373488
0.372554
0.371759
0.370807
0.369631
0.368275
0.366808
0.365299
0.363802
0.362357
0.360989
0.359713
0.358537
0.357463
0.356492
0.355625
0.354861
0.354195
0.373012
0.371296
0.369813
0.368416
0.367025
0.36561
0.364167
0.36271
0.361256
0.359822
0.358423
0.35707
0.355771
0.35453
0.353352
0.352239
0.351193
0.350221
0.372865
0.370838
0.369004
0.36731
0.365711
0.364173
0.362678
0.361215
0.359781
0.358379
0.357012
0.355684
0.354398
0.353157
0.351962
0.350817
0.349724
0.348693
0.37282
0.37068
0.368691
0.366836
0.365095
0.363448
0.361879
0.360375
0.358926
0.357529
0.356179
0.354876
0.353618
0.352404
0.351235
0.350112
0.349035
0.348017
0.372806
0.370628
0.368578
0.366648
0.364828
0.36311
0.361481
0.359933
0.358456
0.357043
0.355691
0.354393
0.353149
0.351953
0.350806
0.349706
0.348653
0.347657
0.372801
0.370609
0.368537
0.366576
0.36472
0.362963
0.361298
0.359717
0.358214
0.356783
0.355418
0.354115
0.35287
0.35168
0.350542
0.349454
0.348415
0.347434
0.372799
0.370602
0.368522
0.366549
0.36468
0.362906
0.361224
0.359626
0.358107
0.356662
0.355286
0.353976
0.352726
0.351533
0.350396
0.34931
0.348275
0.347299
0.372797
0.370599
0.368514
0.366537
0.36466
0.362879
0.361188
0.35958
0.358052
0.356598
0.355214
0.353897
0.352641
0.351445
0.350305
0.349217
0.348181
0.347206
0.372796
0.370596
0.368509
0.366528
0.364649
0.362863
0.361167
0.359555
0.358021
0.356562
0.355172
0.35385
0.35259
0.351389
0.350245
0.349155
0.348116
0.347138
0.372795
0.370593
0.368505
0.366523
0.364641
0.362853
0.361154
0.359539
0.358002
0.35654
0.355147
0.353822
0.352559
0.351355
0.350208
0.349114
0.348073
0.347093
0.372795
0.370592
0.368502
0.366518
0.364634
0.362845
0.361144
0.359527
0.357989
0.356525
0.355131
0.353803
0.352538
0.351332
0.350183
0.349087
0.348043
0.347061
0.372794
0.37059
0.368499
0.366515
0.36463
0.362839
0.361137
0.359519
0.357979
0.356513
0.355118
0.353789
0.352523
0.351316
0.350165
0.349067
0.348022
0.347038
0.372794
0.37059
0.368498
0.366512
0.364627
0.362835
0.361132
0.359513
0.357972
0.356506
0.355109
0.353779
0.352512
0.351304
0.350152
0.349053
0.348006
0.347021
0.372793
0.370589
0.368497
0.366512
0.364626
0.362834
0.361131
0.359511
0.35797
0.356503
0.355106
0.353775
0.352507
0.351298
0.350146
0.349046
0.347999
0.347012
0.372794
0.37059
0.368498
0.366513
0.364628
0.362836
0.361134
0.359514
0.357973
0.356507
0.35511
0.35378
0.352512
0.351303
0.350151
0.349051
0.348004
0.347017
0.372794
0.370591
0.3685
0.366516
0.364632
0.362842
0.36114
0.359522
0.357983
0.356518
0.355123
0.353794
0.352528
0.351321
0.350169
0.349072
0.348025
0.34704
0.372795
0.370593
0.368504
0.366522
0.364642
0.362856
0.361159
0.359546
0.358012
0.356553
0.355164
0.35384
0.352579
0.351377
0.350231
0.349137
0.348094
0.347111
0.372796
0.370598
0.368518
0.366547
0.364681
0.362913
0.361235
0.359642
0.358128
0.356686
0.355312
0.354002
0.352752
0.351558
0.350417
0.349326
0.348284
0.347301
0.372804
0.370631
0.368592
0.366676
0.364872
0.363167
0.361548
0.360006
0.358533
0.357122
0.355768
0.354468
0.35322
0.352021
0.35087
0.349764
0.348704
0.3477
0.372856
0.370818
0.368973
0.367264
0.365645
0.364085
0.362567
0.361083
0.359632
0.358214
0.356834
0.355494
0.354198
0.352948
0.351745
0.350592
0.349489
0.348447
0.373166
0.37177
0.370579
0.369371
0.368049
0.366605
0.365072
0.363493
0.361906
0.360343
0.358827
0.357373
0.355992
0.354689
0.353469
0.35233
0.351272
0.350303
0.374797
0.375829
0.376175
0.375401
0.373834
0.371876
0.369792
0.36774
0.365813
0.364066
0.362523
0.361193
0.360074
0.359154
0.358421
0.35786
0.357452
0.357184
0.382729
0.391671
0.392375
0.388806
0.384384
0.380403
0.377247
0.374996
0.373618
0.373034
0.373147
0.373858
0.375073
0.376703
0.378669
0.380902
0.383341
0.385918
0.407499
0.414513
0.405422
0.395991
0.390552
0.389287
0.391447
0.396203
0.402819
0.410702
0.419403
0.42858
0.437981
0.447416
0.45675
0.465889
0.474787
0.483359
0.360554
0.347547
0.334933
0.322917
0.311965
0.302352
0.294189
0.287469
0.282113
0.278001
0.274996
0.27296
0.271758
0.271263
0.271363
0.271956
0.272955
0.274278
0.00259652
0.0111274
0.0170555
0.0221265
0.026902
0.0319974
0.0376755
0.044072
0.0513401
0.0595929
0.0682297
0.0769262
0.0854739
0.0936897
0.101429
0.108586
0.11509
0.120896
0.125984
0.130355
0.134021
0.136994
0.139236
0.140658
0.141263
0.141592
0.142745
0.142599
0.140202
0.143241
0.141369
0.142529
0.144672
0.143726
0.144811
0.145261
0.144098
0.14993
0.15623
0.16273
0.169391
0.176203
0.183157
0.190253
0.197488
0.204865
0.212385
0.220049
0.227859
0.235817
0.243924
0.25218
0.260586
0.269142
0.277847
0.286701
0.295702
0.304848
0.314136
0.323564
0.333128
0.342824
0.352649
0.362598
0.372665
0.382845
0.393132
0.403521
0.414004
0.424576
0.435227
0.445953
0.456744
0.467593
0.478491
0.489431
0.500405
0.511403
0.522416
0.533436
0.544455
0.555461
0.566448
0.577404
0.58832
0.599188
0.609996
0.620735
0.631394
0.641965
0.652435
0.662794
0.673035
0.683147
0.693126
0.702973
0.712699
0.722339
0.73189
0.741223
0.75034
0.759238
0.767907
0.776338
0.78452
0.792441
0.80009
0.807456
0.814529
0.821298
0.827753
0.833886
0.839687
0.845148
0.85026
0.855017
0.859411
0.863436
0.867086
0.870357
0.873243
0.875742
0.877849
0.879562
0.88088
0.8818
0.882323
0.882449
0.882178
0.881512
0.880454
0.879007
0.877173
0.874959
0.872368
0.869406
0.86608
0.862397
0.858365
0.853991
0.849285
0.844255
0.838913
0.833267
0.82733
0.821111
0.814623
0.807878
0.800887
0.793664
0.786221
0.778571
0.770728
0.762703
0.754512
0.746164
0.737681
0.729068
0.720344
0.711534
0.702604
0.693681
0.684853
0.677907
0.673724
0.669709
0.665667
0.661589
0.657477
0.653336
0.649169
0.644974
0.640742
0.636454
0.632064
0.627474
0.622457
0.616421
0.60782
0.590948
0.00665957
0.0220814
0.0320122
0.0398231
0.0469516
0.0538759
0.0609802
0.0684257
0.0763841
0.084864
0.0937138
0.102728
0.111705
0.120473
0.128899
0.13689
0.144388
0.151369
0.157838
0.163821
0.169366
0.174516
0.179304
0.183813
0.188275
0.193002
0.19801
0.20321
0.208753
0.215043
0.2221
0.229396
0.236881
0.245784
0.255143
0.265422
0.276687
0.287636
0.298307
0.309251
0.320503
0.332044
0.343859
0.355939
0.368281
0.380887
0.393759
0.406901
0.420315
0.434007
0.447979
0.462235
0.476777
0.491608
0.506729
0.522141
0.537845
0.55384
0.570126
0.586699
0.603559
0.620701
0.638122
0.655816
0.673779
0.692004
0.710485
0.729214
0.748182
0.767381
0.786802
0.806433
0.826265
0.846286
0.866485
0.88685
0.907367
0.928023
0.948806
0.969701
0.990694
1.01177
1.03292
1.05411
1.07535
1.09661
1.11788
1.13914
1.16037
1.18156
1.20268
1.22374
1.24469
1.26553
1.28624
1.3068
1.32717
1.34733
1.36702
1.38643
1.40555
1.42438
1.44289
1.46106
1.47888
1.49632
1.51335
1.52996
1.54613
1.56182
1.57703
1.59173
1.6059
1.61952
1.63258
1.64506
1.65693
1.66819
1.67882
1.68881
1.69814
1.7068
1.71478
1.72208
1.72867
1.73456
1.73974
1.7442
1.74795
1.75097
1.75326
1.75484
1.75569
1.75582
1.75524
1.75394
1.75195
1.74925
1.74587
1.74182
1.7371
1.73173
1.72571
1.71908
1.71184
1.704
1.69559
1.68663
1.67713
1.66712
1.65661
1.64563
1.6342
1.62234
1.61007
1.59741
1.58441
1.57107
1.55741
1.54351
1.52921
1.51488
1.50045
1.48626
1.47247
1.45864
1.44473
1.43073
1.41666
1.40254
1.38839
1.37421
1.36001
1.34579
1.33153
1.3172
1.30268
1.28789
1.27162
1.25093
0.0120776
0.033846
0.0467706
0.0565753
0.0651234
0.0731497
0.0811302
0.0893367
0.0979133
0.106885
0.116176
0.12565
0.135155
0.144549
0.153723
0.162602
0.171152
0.17937
0.187286
0.194956
0.202457
0.209873
0.217296
0.224841
0.232655
0.240854
0.249452
0.258523
0.268094
0.278203
0.288873
0.30007
0.311819
0.324172
0.337046
0.350435
0.364234
0.378202
0.392334
0.406743
0.421473
0.436532
0.45192
0.467637
0.483684
0.500066
0.516784
0.533844
0.551249
0.569003
0.587109
0.605572
0.624393
0.643575
0.663119
0.683024
0.703292
0.72392
0.744906
0.766248
0.787942
0.809983
0.832365
0.855083
0.878128
0.901493
0.925169
0.949145
0.973412
0.997957
1.02277
1.04783
1.07314
1.09867
1.12441
1.15035
1.17646
1.20274
1.22917
1.25572
1.28238
1.30913
1.33596
1.36284
1.38975
1.41668
1.44361
1.47051
1.49737
1.52416
1.55087
1.57747
1.60395
1.63028
1.65645
1.68243
1.70822
1.73366
1.75874
1.7835
1.8079
1.83192
1.85555
1.87874
1.90148
1.92373
1.94546
1.96664
1.98725
2.00727
2.02665
2.04539
2.06344
2.08079
2.09742
2.11329
2.1284
2.14272
2.15622
2.1689
2.18074
2.19172
2.20183
2.21105
2.21938
2.2268
2.23331
2.2389
2.24356
2.2473
2.25011
2.252
2.25296
2.25299
2.25211
2.25032
2.24763
2.24405
2.23959
2.23426
2.22809
2.22107
2.21325
2.20462
2.19521
2.18505
2.17416
2.16255
2.15027
2.13732
2.12374
2.10956
2.09479
2.07948
2.06366
2.04732
2.03056
2.01334
1.99572
1.97785
1.95963
1.94122
1.92265
1.90411
1.88566
1.86716
1.84854
1.82983
1.81104
1.7922
1.77332
1.75444
1.73558
1.71675
1.69797
1.67929
1.66071
1.64236
1.6238
1.60483
0.018719
0.046078
0.0612968
0.0724822
0.0820061
0.090841
0.0994851
0.10823
0.117235
0.126555
0.136161
0.145968
0.155867
0.16575
0.175531
0.185155
0.194602
0.203884
0.213043
0.222142
0.231264
0.240495
0.249927
0.259654
0.269767
0.280338
0.291404
0.302991
0.31511
0.327768
0.340966
0.354699
0.368952
0.383705
0.398927
0.414581
0.430613
0.446956
0.463592
0.480543
0.497832
0.515472
0.533474
0.551843
0.570585
0.589708
0.609216
0.629115
0.64941
0.670107
0.69121
0.712722
0.734648
0.75699
0.779749
0.802927
0.826524
0.850538
0.874968
0.899812
0.925064
0.950722
0.976777
1.00323
1.03006
1.05726
1.08483
1.11276
1.14103
1.16963
1.19854
1.22775
1.25725
1.28701
1.31703
1.34728
1.37774
1.4084
1.43923
1.47022
1.50133
1.53256
1.56388
1.59526
1.62669
1.65814
1.68958
1.721
1.75237
1.78367
1.81487
1.84596
1.8769
1.90767
1.93826
1.96863
1.99875
2.02849
2.05785
2.08682
2.11537
2.14349
2.17112
2.19825
2.22483
2.25083
2.27622
2.30096
2.32502
2.34837
2.37098
2.39281
2.41384
2.43403
2.45336
2.47181
2.48934
2.50594
2.52158
2.53623
2.54989
2.56254
2.57415
2.58472
2.59423
2.60267
2.61004
2.61632
2.62151
2.62561
2.62861
2.63052
2.63135
2.63109
2.62975
2.62735
2.62388
2.61937
2.61383
2.60728
2.59973
2.5912
2.58172
2.5713
2.55997
2.54777
2.5347
2.52081
2.50612
2.49067
2.47447
2.45758
2.44001
2.4218
2.40301
2.3836
2.36372
2.34339
2.32263
2.30151
2.28003
2.25829
2.23634
2.21429
2.19222
2.17004
2.14775
2.12536
2.10289
2.08037
2.05785
2.03534
2.01289
1.99055
1.96838
1.94647
1.92495
1.90409
1.88383
1.8645
0.0256219
0.057548
0.074807
0.0871804
0.0975848
0.107095
0.116256
0.125387
0.134671
0.144197
0.153974
0.163963
0.174094
0.184295
0.194504
0.204686
0.214833
0.224964
0.235125
0.245378
0.255799
0.266467
0.277459
0.288847
0.300693
0.313043
0.325924
0.339348
0.353315
0.367821
0.382855
0.398404
0.41445
0.430972
0.447946
0.465348
0.483151
0.501328
0.519867
0.538774
0.558057
0.577728
0.597796
0.618271
0.639162
0.660476
0.68222
0.704404
0.727033
0.750114
0.773654
0.797657
0.822129
0.847072
0.872492
0.898388
0.924763
0.951617
0.978949
1.00676
1.03504
1.06379
1.093
1.12267
1.15278
1.18334
1.21432
1.24572
1.27752
1.30971
1.34228
1.3752
1.40846
1.44205
1.47593
1.5101
1.54452
1.57918
1.61405
1.64911
1.68434
1.7197
1.75517
1.79073
1.82635
1.86201
1.89767
1.93331
1.96891
2.00442
2.03984
2.07513
2.11026
2.1452
2.17993
2.21443
2.24856
2.28228
2.31559
2.34846
2.38085
2.41273
2.44407
2.47481
2.50493
2.53438
2.56312
2.59112
2.61834
2.64473
2.67027
2.69492
2.71864
2.74141
2.76318
2.78394
2.80364
2.82227
2.8398
2.85621
2.87147
2.88556
2.89848
2.91019
2.9207
2.92999
2.93804
2.94486
2.95043
2.95475
2.95783
2.95966
2.96026
2.95962
2.95776
2.95468
2.9504
2.94494
2.9383
2.93052
2.92161
2.9116
2.9005
2.88835
2.87518
2.86101
2.84587
2.82981
2.81285
2.79503
2.77637
2.75694
2.73675
2.71582
2.69429
2.67214
2.64944
2.62623
2.60255
2.57844
2.55396
2.52914
2.50408
2.47884
2.45349
2.42801
2.4024
2.37669
2.3509
2.32508
2.29927
2.27352
2.24787
2.22242
2.19724
2.1725
2.14839
2.12526
2.10319
2.08248
0.0321329
0.0678072
0.086783
0.100305
0.111533
0.121644
0.131237
0.14066
0.150128
0.159758
0.1696
0.179652
0.189887
0.200264
0.210749
0.221324
0.231992
0.242777
0.253722
0.264884
0.276328
0.288117
0.300313
0.312969
0.326126
0.339814
0.354049
0.368836
0.38417
0.400042
0.41644
0.43335
0.450754
0.468637
0.486983
0.505776
0.525001
0.544648
0.564709
0.585186
0.606086
0.627416
0.649186
0.671407
0.694087
0.717237
0.740867
0.764985
0.789601
0.814724
0.84036
0.866518
0.893205
0.920425
0.948184
0.976485
1.00533
1.03473
1.06467
1.09515
1.12619
1.15776
1.18987
1.22251
1.25567
1.28934
1.32351
1.35818
1.39331
1.42891
1.46495
1.50142
1.53829
1.57554
1.61315
1.6511
1.68936
1.72791
1.76671
1.80575
1.84498
1.88439
1.92394
1.96361
2.00335
2.04315
2.08297
2.12277
2.16253
2.20222
2.24179
2.28123
2.32049
2.35954
2.39836
2.43688
2.47497
2.51262
2.5498
2.58648
2.62262
2.65818
2.69311
2.72738
2.76094
2.79374
2.82574
2.8569
2.88716
2.9165
2.94487
2.97223
2.99854
3.02377
3.04787
3.07083
3.09259
3.11315
3.13245
3.1505
3.16725
3.18269
3.19679
3.20956
3.22096
3.23099
3.23963
3.24689
3.25275
3.25721
3.26028
3.26196
3.26225
3.26116
3.25871
3.2549
3.24976
3.24329
3.23553
3.22648
3.21619
3.20467
3.19195
3.17806
3.16305
3.14693
3.12974
3.11153
3.09234
3.0722
3.0511
3.02921
3.00651
2.98304
2.95888
2.93405
2.90862
2.88262
2.85611
2.82913
2.80173
2.77397
2.74591
2.71763
2.68916
2.66055
2.63179
2.60293
2.574
2.54505
2.51614
2.48731
2.45866
2.43027
2.40227
2.37486
2.34827
2.32286
2.29874
2.27608
0.0378624
0.0764442
0.0970072
0.111589
0.123576
0.134233
0.144202
0.153866
0.163464
0.173144
0.18299
0.193038
0.203295
0.213753
0.224403
0.235244
0.246287
0.257559
0.269098
0.280953
0.293174
0.305813
0.318913
0.332514
0.346643
0.361319
0.376552
0.392341
0.408683
0.425568
0.442985
0.460922
0.479367
0.498307
0.517733
0.537635
0.558006
0.578841
0.600137
0.621898
0.644128
0.666836
0.690031
0.713724
0.737927
0.76265
0.787905
0.813704
0.840057
0.866976
0.89447
0.92255
0.951224
0.9805
1.01038
1.04088
1.072
1.10375
1.13612
1.16911
1.20273
1.23697
1.27183
1.30731
1.34338
1.38006
1.41732
1.45514
1.49353
1.53246
1.5719
1.61185
1.65227
1.69315
1.73445
1.77616
1.81823
1.86065
1.90338
1.94639
1.98964
2.03311
2.07675
2.12053
2.16442
2.20837
2.25236
2.29635
2.3403
2.38417
2.42793
2.47153
2.51494
2.55813
2.60104
2.64357
2.68562
2.72718
2.76822
2.80869
2.84856
2.88778
2.9263
2.96406
3.00103
3.03714
3.07235
3.10661
3.13988
3.1721
3.20324
3.23324
3.26207
3.28969
3.31606
3.34114
3.36489
3.38728
3.40829
3.42789
3.44604
3.46274
3.47796
3.49168
3.50389
3.51457
3.52372
3.53133
3.5374
3.54192
3.5449
3.54635
3.54626
3.54466
3.54155
3.53696
3.53089
3.52336
3.51441
3.50407
3.49235
3.47929
3.46492
3.44926
3.43239
3.41432
3.39506
3.37468
3.35328
3.33086
3.30745
3.28314
3.25797
3.23198
3.20523
3.17776
3.14964
3.1209
3.09162
3.06182
3.03157
3.00093
2.96994
2.93869
2.90721
2.87556
2.84376
2.81186
2.77989
2.74793
2.71602
2.68424
2.65269
2.62147
2.59074
2.56072
2.53165
2.5039
2.4775
2.45255
0.0424466
0.0835035
0.105413
0.120915
0.133569
0.14471
0.155015
0.164888
0.174594
0.184305
0.194134
0.204149
0.214387
0.224869
0.235608
0.246616
0.257913
0.269528
0.281492
0.293845
0.306627
0.319875
0.333623
0.347897
0.362717
0.378095
0.394038
0.410544
0.42761
0.44523
0.463394
0.482095
0.501324
0.521074
0.541339
0.562114
0.583396
0.605185
0.627481
0.65029
0.673619
0.697475
0.72187
0.746815
0.772324
0.798409
0.825085
0.852364
0.880261
0.908788
0.937959
0.967785
0.998278
1.02945
1.06131
1.09386
1.12712
1.16108
1.19576
1.23114
1.26725
1.30407
1.34159
1.37983
1.41875
1.45837
1.49867
1.53962
1.58122
1.62345
1.66628
1.7097
1.75368
1.79818
1.84319
1.88867
1.93458
1.9809
2.02759
2.0746
2.1219
2.16946
2.21722
2.26516
2.31323
2.36139
2.40959
2.4578
2.50597
2.55406
2.60203
2.64983
2.69742
2.74475
2.79177
2.8383
2.88431
2.92979
2.97468
3.01894
3.06252
3.10537
3.14744
3.18866
3.22899
3.26836
3.30673
3.34405
3.38025
3.41529
3.44912
3.4817
3.51298
3.54291
3.57145
3.59856
3.62421
3.64836
3.67097
3.69202
3.71148
3.72934
3.74557
3.76015
3.77307
3.78432
3.79388
3.80176
3.80794
3.81243
3.81524
3.81637
3.81583
3.81364
3.8098
3.80435
3.79729
3.78866
3.77846
3.76676
3.75358
3.73895
3.72289
3.70543
3.68668
3.66665
3.64537
3.62289
3.5993
3.57462
3.5489
3.5222
3.49458
3.46609
3.43678
3.40671
3.37594
3.34451
3.31249
3.27994
3.24689
3.21342
3.17957
3.14542
3.11103
3.07643
3.04168
3.00682
2.97191
2.93701
2.9022
2.86756
2.83318
2.79921
2.76582
2.73321
2.70166
2.67147
2.64264
2.61523
0.0460686
0.0890524
0.112031
0.128283
0.141494
0.153049
0.163646
0.173708
0.183513
0.193254
0.203067
0.213044
0.223247
0.233719
0.244492
0.25559
0.26704
0.278869
0.291108
0.303787
0.316937
0.330586
0.34476
0.359477
0.374752
0.390594
0.407008
0.423995
0.441553
0.459678
0.478366
0.497611
0.517409
0.537758
0.558654
0.580098
0.60209
0.624633
0.647731
0.671392
0.695623
0.720436
0.745843
0.771858
0.798495
0.825771
0.8537
0.8823
0.911587
0.941576
0.972284
1.00372
1.03591
1.06886
1.10259
1.13709
1.17239
1.20849
1.2454
1.28311
1.32164
1.36098
1.40114
1.44209
1.48385
1.52639
1.5697
1.61378
1.65859
1.70413
1.75037
1.79727
1.84482
1.89299
1.94173
1.99101
2.0408
2.09105
2.14173
2.19279
2.24418
2.29586
2.34779
2.39991
2.45219
2.50457
2.55701
2.60946
2.66187
2.7142
2.76639
2.81839
2.87016
2.92164
2.97269
3.0232
3.07315
3.1225
3.17119
3.21919
3.26643
3.31285
3.35839
3.40299
3.4466
3.48915
3.53058
3.57084
3.60987
3.64762
3.68403
3.71906
3.75266
3.78478
3.81537
3.8444
3.87181
3.89758
3.92167
3.94405
3.96469
3.98358
4.00069
4.01601
4.02953
4.04122
4.05108
4.05911
4.0653
4.06966
4.0722
4.07292
4.07184
4.06896
4.06432
4.05794
4.04983
4.04003
4.02853
4.01543
4.00075
3.98452
3.96678
3.94756
3.92694
3.90497
3.88167
3.85711
3.83135
3.80443
3.77642
3.74737
3.71734
3.68639
3.65458
3.62196
3.58859
3.55454
3.51985
3.4846
3.44882
3.4126
3.37597
3.33902
3.30179
3.26434
3.22673
3.18902
3.15126
3.11353
3.07591
3.03849
3.00138
2.96474
2.92872
2.89357
2.85952
2.82685
2.79549
2.76551
0.0487626
0.0931767
0.116957
0.133784
0.147436
0.159326
0.170169
0.180395
0.190293
0.200068
0.209872
0.219815
0.229977
0.240418
0.251182
0.262306
0.27382
0.285754
0.298134
0.310987
0.324338
0.338209
0.352619
0.367584
0.383115
0.399221
0.415908
0.433177
0.451031
0.469468
0.488488
0.50809
0.528274
0.549041
0.570391
0.592329
0.614857
0.637984
0.661715
0.686062
0.711034
0.736646
0.762913
0.789849
0.817474
0.845804
0.874859
0.904658
0.935221
0.966566
0.998712
1.03168
1.06548
1.10013
1.13565
1.17205
1.20935
1.24754
1.28665
1.32666
1.3676
1.40945
1.45222
1.4959
1.54049
1.58597
1.63232
1.67954
1.7276
1.77647
1.82614
1.87657
1.92773
1.97958
2.03209
2.08522
2.13891
2.19313
2.24783
2.30295
2.35845
2.41427
2.47037
2.52669
2.58317
2.63977
2.69642
2.75309
2.80971
2.86623
2.9226
2.97876
3.03465
3.09019
3.14518
3.19958
3.25336
3.30647
3.35887
3.41048
3.46124
3.5111
3.55998
3.60781
3.65454
3.7001
3.74442
3.78746
3.82915
3.86942
3.90824
3.94554
3.98127
4.01539
4.04785
4.07861
4.10761
4.13482
4.1602
4.18373
4.20538
4.22514
4.24297
4.25886
4.27282
4.28481
4.29483
4.30287
4.30894
4.31304
4.31519
4.3154
4.31367
4.31003
4.3045
4.29711
4.2879
4.27687
4.26408
4.24956
4.23337
4.21554
4.19612
4.17514
4.15268
4.12878
4.10349
4.07687
4.04899
4.01989
3.98963
3.95829
3.92592
3.89258
3.85833
3.82324
3.78736
3.75076
3.71351
3.67565
3.63725
3.59837
3.55908
3.51942
3.47948
3.43931
3.39897
3.35852
3.31803
3.27758
3.23727
3.19717
3.15744
3.1182
3.07964
3.04199
3.00546
2.97029
2.93638
2.90381
0.0505913
0.0960007
0.120337
0.137575
0.15155
0.163694
0.174729
0.185088
0.195066
0.204875
0.214674
0.224586
0.234701
0.245092
0.255813
0.266908
0.278411
0.290353
0.302761
0.315659
0.329068
0.343007
0.357494
0.372541
0.388161
0.404363
0.421154
0.438539
0.456523
0.475109
0.494301
0.514102
0.534517
0.555548
0.577203
0.599488
0.622412
0.645982
0.670212
0.695113
0.720701
0.746992
0.774003
0.801754
0.830265
0.859557
0.889653
0.920575
0.952346
0.984987
1.01852
1.05297
1.08835
1.12469
1.16199
1.20028
1.23957
1.27986
1.32118
1.36352
1.40689
1.45129
1.49671
1.54316
1.59062
1.63907
1.68852
1.73892
1.79027
1.84253
1.89567
1.94967
2.00447
2.06005
2.11636
2.17335
2.23096
2.28916
2.34788
2.40706
2.46665
2.52659
2.58682
2.64727
2.7079
2.76865
2.82945
2.89024
2.95097
3.01159
3.07202
3.13222
3.19211
3.25145
3.31021
3.36832
3.42575
3.48243
3.53831
3.59332
3.6474
3.70046
3.75244
3.80326
3.85285
3.90117
3.94813
3.99368
4.03776
4.0803
4.12125
4.16055
4.19816
4.23402
4.26809
4.30033
4.33067
4.35907
4.38551
4.40996
4.43239
4.45278
4.47112
4.48739
4.50158
4.5137
4.5237
4.53159
4.53738
4.54109
4.54272
4.54229
4.53982
4.53533
4.52885
4.5204
4.51003
4.49776
4.48363
4.46769
4.44998
4.43056
4.40947
4.38675
4.36248
4.3367
4.30947
4.28086
4.25091
4.21971
4.1873
4.15375
4.11913
4.08351
4.04694
4.00949
3.97122
3.93221
3.89251
3.85219
3.8113
3.76991
3.72808
3.68588
3.64338
3.60063
3.5577
3.51467
3.47161
3.42859
3.38572
3.34309
3.30085
3.25913
3.21813
3.17805
3.1391
3.10147
3.06503
3.02991
0.0516428
0.097677
0.122353
0.139851
0.154036
0.166351
0.177518
0.187973
0.198009
0.20784
0.21763
0.227506
0.237566
0.247889
0.258535
0.269552
0.280981
0.292851
0.305192
0.318026
0.331374
0.345255
0.359685
0.374678
0.390249
0.406407
0.423163
0.440526
0.458505
0.477108
0.496342
0.516215
0.536736
0.557913
0.579757
0.602279
0.625491
0.649405
0.674039
0.699408
0.725531
0.752427
0.780119
0.808629
0.83798
0.868198
0.899309
0.931337
0.96431
0.998252
1.03319
1.06914
1.10614
1.1442
1.18334
1.22357
1.26492
1.30739
1.35099
1.39574
1.44162
1.48865
1.53682
1.58612
1.63653
1.68806
1.74066
1.79433
1.84903
1.90474
1.96141
2.01901
2.0775
2.13682
2.19693
2.25778
2.3193
2.38145
2.44415
2.50733
2.57094
2.6349
2.69914
2.76362
2.82825
2.89299
2.95776
3.0225
3.08715
3.15165
3.21594
3.27995
3.34345
3.40634
3.46858
3.53011
3.59087
3.6508
3.70984
3.76791
3.82496
3.88089
3.9356
3.98904
4.04115
4.09185
4.14107
4.18877
4.23486
4.2793
4.32201
4.36296
4.40208
4.43933
4.47467
4.50808
4.53943
4.56871
4.59589
4.62095
4.64387
4.66464
4.68322
4.69962
4.71381
4.72581
4.73558
4.74315
4.7485
4.75167
4.75265
4.75148
4.74817
4.74274
4.73523
4.72568
4.7141
4.70056
4.68507
4.66771
4.6485
4.62751
4.60478
4.58038
4.55435
4.52677
4.49768
4.46716
4.43527
4.40207
4.36762
4.33201
4.29528
4.25751
4.21877
4.17913
4.13864
4.09738
4.05541
4.0128
3.9696
3.92589
3.88172
3.83716
3.79228
3.74715
3.70184
3.65642
3.61096
3.56556
3.52031
3.47532
3.43073
3.38669
3.34337
3.30098
3.2597
3.21969
3.18082
3.14324
0.0520231
0.098373
0.123201
0.140825
0.155116
0.16752
0.178757
0.18926
0.199321
0.209154
0.21892
0.228748
0.238739
0.248974
0.259516
0.270416
0.281716
0.29345
0.305646
0.31833
0.331523
0.345245
0.359514
0.374346
0.389758
0.405765
0.42238
0.439617
0.457489
0.47601
0.495192
0.515048
0.535593
0.556839
0.578803
0.601498
0.624944
0.649157
0.674158
0.699967
0.726609
0.754107
0.782486
0.811773
0.841996
0.873184
0.905366
0.93857
0.972825
1.00816
1.04461
1.08218
1.12092
1.16084
1.20196
1.24429
1.28785
1.33265
1.3787
1.42601
1.47456
1.52437
1.57543
1.62772
1.68123
1.73594
1.79182
1.84885
1.90698
1.9662
2.02645
2.08768
2.14985
2.21291
2.27679
2.34144
2.40679
2.47279
2.53936
2.60641
2.67386
2.74164
2.8097
2.87795
2.94634
3.01479
3.08324
3.15162
3.21986
3.28791
3.35571
3.42301
3.4897
3.55571
3.62099
3.68548
3.74911
3.81181
3.87351
3.93416
3.99371
4.05201
4.10896
4.16452
4.21862
4.2712
4.32219
4.37153
4.41915
4.465
4.50901
4.55113
4.59131
4.62949
4.66565
4.69973
4.73167
4.76144
4.789
4.81433
4.83742
4.85824
4.87678
4.89303
4.90697
4.91862
4.92795
4.93498
4.93972
4.94218
4.94238
4.94034
4.93608
4.92963
4.92103
4.91031
4.8975
4.88266
4.86583
4.84705
4.82638
4.80387
4.77958
4.75356
4.72588
4.69659
4.66577
4.63348
4.59978
4.56474
4.52843
4.49091
4.45227
4.41255
4.37185
4.33021
4.28771
4.24443
4.20041
4.15574
4.11046
4.06466
4.01838
3.97171
3.9247
3.87743
3.82997
3.78239
3.73478
3.68722
3.63981
3.59267
3.54593
3.49974
3.45429
3.40974
3.36628
3.32404
3.28287
3.24296
0.0518494
0.0982609
0.123084
0.140715
0.155016
0.167429
0.178672
0.189172
0.199219
0.209022
0.218741
0.228503
0.238406
0.248532
0.258944
0.269694
0.280826
0.292375
0.304371
0.316843
0.329813
0.343305
0.35734
0.371938
0.387121
0.402906
0.419313
0.436361
0.45407
0.472459
0.491546
0.511352
0.531896
0.553198
0.575279
0.598158
0.62186
0.646407
0.671825
0.698141
0.725383
0.75358
0.782761
0.812957
0.844201
0.876523
0.909956
0.944532
0.980281
1.01724
1.05542
1.09487
1.13561
1.17766
1.22104
1.26574
1.31179
1.35919
1.40795
1.45807
1.50955
1.56237
1.61653
1.67201
1.72879
1.78684
1.84612
1.90661
1.96826
2.03103
2.09486
2.15971
2.22552
2.29222
2.35975
2.42804
2.49704
2.56668
2.63691
2.70753
2.77851
2.84978
2.92127
2.9929
3.06462
3.13633
3.20799
3.27952
3.35086
3.42195
3.49252
3.56248
3.63174
3.70026
3.76795
3.83475
3.90059
3.96539
4.02909
4.09162
4.1529
4.21284
4.27135
4.32837
4.38381
4.43763
4.48975
4.54012
4.58866
4.63532
4.68004
4.72277
4.76345
4.80205
4.83851
4.87279
4.90485
4.93466
4.96217
4.98737
5.01023
5.03075
5.0489
5.06468
5.07809
5.08912
5.09777
5.10405
5.10798
5.10956
5.10882
5.10578
5.10047
5.09292
5.08316
5.07124
5.05719
5.04106
5.0229
5.00276
4.98068
4.95674
4.93098
4.90347
4.87427
4.84344
4.81105
4.77716
4.74185
4.70518
4.66722
4.62804
4.58771
4.5463
4.50388
4.46051
4.41628
4.37124
4.32546
4.27901
4.23195
4.18434
4.13625
4.08776
4.03891
3.98979
3.94047
3.89103
3.84154
3.79209
3.74279
3.69376
3.64512
3.59703
3.54965
3.50315
3.4577
3.41342
3.37015
3.32809
0.0512459
0.0975085
0.122192
0.139728
0.153953
0.1663
0.177484
0.187928
0.197917
0.207656
0.217301
0.226974
0.236771
0.246769
0.257031
0.26761
0.278549
0.289885
0.301651
0.313878
0.326593
0.339823
0.353594
0.367933
0.382864
0.398412
0.414604
0.431465
0.449022
0.467302
0.486332
0.50614
0.526753
0.548201
0.570508
0.593699
0.617805
0.642856
0.668884
0.695923
0.724005
0.753165
0.783437
0.814855
0.847454
0.881267
0.916329
0.952671
0.990325
1.02932
1.06969
1.11145
1.15464
1.19928
1.24538
1.29291
1.34187
1.39228
1.44414
1.49745
1.55218
1.60833
1.66587
1.72477
1.78501
1.84656
1.90935
1.97337
2.03854
2.10482
2.17216
2.24048
2.30973
2.37984
2.45073
2.52234
2.59458
2.66738
2.74067
2.81433
2.88828
2.96245
3.03676
3.11113
3.1855
3.2598
3.33397
3.40794
3.48161
3.55471
3.62719
3.69896
3.76997
3.84012
3.90935
3.97759
4.04476
4.1108
4.17562
4.23916
4.30134
4.36209
4.42131
4.47895
4.53493
4.58919
4.64166
4.69229
4.74101
4.78776
4.8325
4.87516
4.91571
4.95409
4.99026
5.02418
5.05582
5.08514
5.11211
5.13671
5.15892
5.17873
5.19613
5.2111
5.22365
5.23378
5.24149
5.24679
5.2497
5.25024
5.24841
5.24426
5.23781
5.2291
5.21815
5.20502
5.18974
5.17236
5.15293
5.13151
5.10814
5.08289
5.05582
5.02698
4.99645
4.96428
4.93054
4.89529
4.85862
4.82058
4.78125
4.74069
4.69898
4.65619
4.61237
4.56761
4.52197
4.47552
4.42832
4.38044
4.33194
4.28288
4.23334
4.18337
4.13304
4.08243
4.03159
3.98062
3.92959
3.87859
3.82773
3.77711
3.72687
3.67715
3.62812
3.57993
3.53274
3.48666
3.44152
3.39755
0.0502981
0.096231
0.120654
0.138
0.152067
0.164277
0.175339
0.185673
0.195559
0.205198
0.214739
0.2243
0.233971
0.243827
0.253928
0.264327
0.275067
0.286188
0.297725
0.309713
0.322185
0.335173
0.348711
0.362833
0.377571
0.392955
0.40902
0.425801
0.443336
0.461661
0.480816
0.500838
0.521768
0.543651
0.566521
0.590386
0.615293
0.641285
0.668401
0.696681
0.726164
0.756888
0.788889
0.822203
0.856864
0.892905
0.930357
0.969247
1.0096
1.05144
1.09479
1.13966
1.18607
1.23402
1.28351
1.33453
1.38706
1.4411
1.49663
1.55364
1.61208
1.67195
1.7332
1.79579
1.85968
1.92483
1.99118
2.05868
2.12726
2.19688
2.26745
2.33893
2.41122
2.48426
2.55798
2.6323
2.70713
2.78241
2.85803
2.93393
3.01
3.08619
3.1624
3.23857
3.31464
3.39054
3.4662
3.54141
3.61604
3.69001
3.76326
3.8357
3.90728
3.9779
4.04751
4.11602
4.18338
4.24949
4.31431
4.37775
4.43974
4.50021
4.5591
4.61632
4.67182
4.72553
4.7774
4.82735
4.87534
4.92132
4.96523
5.00701
5.04664
5.08406
5.11923
5.15212
5.18269
5.21092
5.23678
5.26024
5.2813
5.29993
5.31614
5.32991
5.34124
5.35014
5.35662
5.36069
5.36236
5.36165
5.35859
5.3532
5.34552
5.33557
5.3234
5.30906
5.29257
5.274
5.25338
5.23079
5.20626
5.17985
5.15164
5.12168
5.09002
5.05675
5.02191
4.98559
4.94784
4.90874
4.86836
4.82675
4.784
4.74017
4.69532
4.64953
4.60286
4.55537
4.50714
4.45822
4.40867
4.35856
4.30795
4.2569
4.20547
4.15375
4.10179
4.04966
3.99746
3.94527
3.89319
3.84133
3.78981
3.73878
3.6884
3.63881
3.59015
3.54254
3.49581
3.4502
0.0492892
0.0947402
0.118796
0.135863
0.149696
0.161703
0.172587
0.182766
0.192514
0.202027
0.211448
0.22089
0.23044
0.240169
0.250138
0.260399
0.270997
0.281976
0.293376
0.305239
0.317601
0.330502
0.343988
0.358109
0.372919
0.388423
0.404677
0.421735
0.439649
0.458469
0.478246
0.499032
0.520878
0.543834
0.567944
0.593249
0.619795
0.647627
0.67679
0.707324
0.739269
0.77266
0.807529
0.843906
0.881816
0.92128
0.962315
1.00493
1.04915
1.09495
1.14236
1.19136
1.24194
1.29409
1.34778
1.403
1.45971
1.51787
1.57747
1.63844
1.70077
1.7644
1.82929
1.89538
1.96262
2.03096
2.10034
2.1707
2.24198
2.3141
2.38701
2.46063
2.5349
2.60973
2.68507
2.76083
2.83694
2.91332
2.9899
3.0666