/*--------------------------------*- C++ -*----------------------------------*\
  =========                 |
  \\      /  F ield         | OpenFOAM: The Open Source CFD Toolbox
   \\    /   O peration     | Website:  https://openfoam.org
    \\  /    A nd           | Version:  9
     \\/     M anipulation  |
\*---------------------------------------------------------------------------*/
FoamFile
{
    format      ascii;
    class       volScalarField;
    location    "0.12";
    object      nut;
}
// * * * * * * * * * * * * * * * * * * * * * * * * * * * * * * * * * * * * * //

dimensions      [0 2 -1 0 0 0 0];

internalField   nonuniform List<scalar> 
12225
(
4.04768e-05
3.83178e-05
3.62504e-05
3.44199e-05
3.29521e-05
3.18979e-05
3.12566e-05
3.09944e-05
3.10593e-05
3.1392e-05
3.19339e-05
3.26313e-05
3.34378e-05
3.43151e-05
3.52343e-05
3.61709e-05
3.7132e-05
3.85265e-05
0.000281048
0.000209265
0.000176265
0.000157438
0.000146269
0.000139685
0.000135791
0.000133428
0.000131913
0.000130857
0.000130042
0.000129356
0.000128739
0.000128161
0.000127623
0.00012708
0.000126694
0.000125705
0.000556046
0.000419905
0.000349811
0.00030473
0.000272441
0.000247974
0.000228755
0.000213288
0.000200657
0.000190252
0.000181634
0.000174462
0.000168468
0.000163429
0.000159172
0.000155505
0.000152346
0.00014923
0.000740307
0.000625819
0.000544112
0.000484992
0.000439761
0.000403637
0.000373824
0.000348583
0.000326826
0.000307857
0.000291201
0.000276511
0.000263516
0.000251985
0.000241721
0.000232501
0.000224166
0.000216413
0.000817069
0.00075914
0.000700542
0.000648571
0.000603887
0.00056557
0.000532454
0.000503488
0.000477845
0.000454918
0.000434259
0.000415533
0.000398481
0.00038289
0.000368578
0.000355355
0.00034307
0.000331618
0.0008421
0.000819687
0.000789922
0.000757601
0.000725546
0.000695152
0.000666949
0.000640994
0.000617144
0.000595198
0.000574952
0.000556217
0.000538829
0.000522639
0.000507514
0.000493321
0.000479952
0.000467452
0.000849261
0.000841807
0.000829741
0.000814185
0.000796476
0.000777753
0.000758837
0.000740238
0.000722244
0.000705002
0.000688569
0.000672955
0.000658137
0.000644075
0.000630721
0.000618018
0.000605923
0.000594563
0.00085112
0.000848747
0.00084448
0.000838235
0.000830243
0.00082089
0.000810591
0.00079971
0.000788537
0.00077729
0.000766122
0.000755141
0.000744416
0.000733987
0.000723876
0.000714093
0.000704649
0.000695697
0.00085156
0.000850665
0.00084917
0.000846886
0.00084374
0.000839756
0.000835029
0.000829687
0.000823865
0.000817691
0.000811279
0.000804722
0.000798097
0.000791465
0.000784871
0.000778351
0.000771941
0.000765779
0.000851652
0.000851133
0.000850468
0.000849564
0.000848346
0.000846771
0.000844823
0.000842516
0.000839877
0.00083695
0.000833777
0.000830407
0.000826882
0.000823241
0.00081952
0.00081575
0.000811964
0.000808261
0.000851668
0.00085123
0.000850778
0.000850278
0.000849697
0.000849006
0.000848181
0.000847209
0.000846084
0.000844809
0.000843392
0.000841844
0.00084018
0.000838416
0.000836568
0.000834652
0.000832688
0.000830733
0.000851669
0.000851245
0.000850835
0.000850429
0.000850013
0.000849575
0.0008491
0.000848578
0.000848
0.000847362
0.00084666
0.000845895
0.00084507
0.000844188
0.000843254
0.000842275
0.000841261
0.000840245
0.000851668
0.000851244
0.000850843
0.000850459
0.000850088
0.000849725
0.000849364
0.000849
0.000848627
0.000848241
0.000847838
0.000847416
0.000846975
0.000846512
0.00084603
0.000845528
0.000845012
0.000844499
0.000851667
0.000851242
0.000850839
0.000850458
0.000850096
0.000849751
0.00084942
0.000849101
0.000848792
0.00084849
0.000848193
0.000847899
0.000847608
0.000847318
0.000847027
0.000846737
0.000846449
0.000846174
0.000851666
0.000851239
0.000850835
0.000850452
0.00085009
0.000849746
0.000849419
0.000849108
0.000848811
0.000848527
0.000848255
0.000847995
0.000847744
0.000847503
0.00084727
0.000847045
0.00084683
0.000846635
0.000851665
0.000851236
0.000850831
0.000850447
0.000850083
0.000849737
0.000849409
0.000849097
0.000848801
0.000848519
0.00084825
0.000847994
0.000847749
0.000847516
0.000847294
0.000847081
0.000846881
0.000846702
0.000851664
0.000851235
0.000850828
0.000850442
0.000850077
0.00084973
0.000849401
0.000849088
0.00084879
0.000848507
0.000848237
0.00084798
0.000847735
0.000847502
0.000847279
0.000847067
0.000846867
0.000846689
0.000851663
0.000851234
0.000850826
0.00085044
0.000850073
0.000849725
0.000849395
0.000849081
0.000848782
0.000848498
0.000848227
0.000847969
0.000847723
0.000847489
0.000847265
0.000847051
0.00084685
0.000846671
0.000851663
0.000851233
0.000850825
0.000850439
0.000850072
0.000849724
0.000849393
0.000849079
0.000848779
0.000848495
0.000848223
0.000847964
0.000847718
0.000847482
0.000847257
0.000847043
0.00084684
0.000846661
0.000851664
0.000851234
0.000850826
0.00085044
0.000850074
0.000849726
0.000849396
0.000849082
0.000848783
0.000848498
0.000848226
0.000847967
0.000847719
0.000847482
0.000847256
0.000847039
0.000846834
0.000846652
0.000851664
0.000851235
0.000850829
0.000850443
0.000850078
0.00084973
0.000849399
0.000849083
0.00084878
0.00084849
0.000848211
0.000847941
0.000847681
0.000847429
0.000847185
0.000846947
0.000846719
0.000846509
0.000851665
0.000851237
0.00085083
0.000850442
0.000850069
0.000849706
0.000849351
0.000849
0.000848648
0.000848294
0.000847936
0.000847572
0.000847201
0.000846822
0.000846436
0.000846043
0.000845646
0.000845257
0.000851664
0.000851228
0.000850794
0.000850348
0.00084987
0.000849345
0.000848762
0.000848112
0.00084739
0.000846595
0.00084573
0.0008448
0.00084381
0.000842766
0.000841678
0.000840551
0.000839396
0.000838236
0.000851634
0.000851073
0.000850343
0.000849364
0.00084808
0.000846469
0.000844532
0.000842294
0.000839789
0.000837057
0.000834141
0.000831082
0.000827919
0.000824684
0.000821407
0.000818114
0.000814828
0.000811596
0.000851287
0.000849596
0.000846721
0.000842578
0.000837264
0.000830982
0.000823975
0.000816476
0.000808681
0.000800747
0.000792795
0.000784916
0.000777175
0.000769616
0.00076227
0.000755155
0.000748288
0.00074172
0.000848318
0.000839426
0.000826162
0.000810019
0.00079236
0.000774229
0.000756325
0.000739049
0.0007226
0.000707059
0.000692436
0.000678704
0.000665817
0.00065372
0.000642357
0.000631673
0.00062162
0.000612209
0.000828548
0.000788843
0.000746035
0.000705704
0.000669465
0.000637502
0.000609447
0.000584741
0.000562847
0.000543309
0.000525758
0.000509895
0.000495479
0.000482315
0.000470244
0.000459136
0.000448885
0.000439442
0.000730726
0.000627346
0.000554508
0.00050106
0.000460319
0.000428348
0.000402634
0.00038147
0.000363711
0.000348582
0.000335537
0.000324179
0.00031421
0.000305399
0.000297568
0.000290572
0.000284291
0.000278642
0.000439249
0.000338471
0.000287936
0.000256869
0.000236362
0.000222511
0.000212994
0.000206313
0.000201507
0.00019796
0.000195272
0.000193178
0.0001915
0.000190117
0.000188948
0.000187933
0.000187037
0.00018621
7.16431e-05
6.90587e-05
6.65522e-05
6.41645e-05
6.19883e-05
6.00783e-05
5.84563e-05
5.7121e-05
5.60567e-05
5.52396e-05
5.46426e-05
5.42381e-05
5.39991e-05
5.39008e-05
5.39206e-05
5.40385e-05
5.4237e-05
5.44999e-05
8.09966e-07
1.58536e-05
2.42935e-05
3.1503e-05
3.82881e-05
4.55334e-05
5.35983e-05
6.26747e-05
7.29766e-05
8.46577e-05
9.68278e-05
0.000109055
0.000121044
0.000132539
0.000143338
0.000153297
0.00016232
0.000170348
0.000177358
0.000183357
0.000188362
0.000192375
0.000195336
0.000197171
0.00019809
0.000198999
0.000199979
0.000199176
4.54162e-05
0.000200068
0.000197818
0.000199729
0.000203317
0.000201319
0.000202622
0.000202886
4.71176e-05
4.80122e-05
4.89829e-05
4.99646e-05
5.09497e-05
5.19364e-05
5.29233e-05
5.39099e-05
5.48959e-05
5.58814e-05
5.68665e-05
5.78513e-05
5.88359e-05
5.98204e-05
6.08049e-05
6.17893e-05
6.27737e-05
6.37578e-05
6.47415e-05
6.57247e-05
6.6707e-05
6.76882e-05
6.8668e-05
6.96461e-05
7.0622e-05
7.15954e-05
7.25658e-05
7.35327e-05
7.44958e-05
7.54546e-05
7.64085e-05
7.73571e-05
7.82999e-05
7.92364e-05
8.0166e-05
8.10883e-05
8.20028e-05
8.29089e-05
8.38062e-05
8.46942e-05
8.55724e-05
8.64403e-05
8.72974e-05
8.81433e-05
8.89775e-05
8.97996e-05
9.06092e-05
9.14057e-05
9.21888e-05
9.2958e-05
9.37129e-05
9.44531e-05
9.51781e-05
9.58876e-05
9.6581e-05
9.7258e-05
9.79183e-05
9.85616e-05
9.91878e-05
9.97973e-05
0.000100391
0.000100972
0.000101541
0.000102088
0.000102615
0.000103121
0.000103605
0.000104069
0.000104511
0.000104931
0.000105328
0.000105702
0.000106054
0.000106381
0.000106685
0.000106965
0.000107221
0.000107451
0.000107657
0.000107838
0.000107994
0.000108124
0.000108229
0.000108308
0.000108361
0.000108389
0.000108391
0.000108367
0.000108318
0.000108242
0.000108142
0.000108015
0.000107864
0.000107687
0.000107486
0.000107259
0.000107008
0.000106733
0.000106435
0.000106112
0.000105767
0.000105398
0.000105008
0.000104595
0.000104161
0.000103706
0.000103231
0.000102735
0.00010222
0.000101687
0.000101135
0.000100566
9.99794e-05
9.93768e-05
9.87585e-05
9.81253e-05
9.74778e-05
9.68167e-05
9.61427e-05
9.54563e-05
9.47589e-05
9.40505e-05
9.33323e-05
9.26058e-05
9.18685e-05
9.11286e-05
9.03914e-05
8.97667e-05
8.9332e-05
8.89091e-05
8.84836e-05
8.80545e-05
8.76221e-05
8.71867e-05
8.67484e-05
8.63072e-05
8.58623e-05
8.54126e-05
8.49548e-05
8.44823e-05
8.39798e-05
8.34069e-05
8.26581e-05
8.1339e-05
2.08446e-06
3.57488e-05
7.46679e-05
0.000104513
0.000127175
0.000144328
0.000158075
0.000170193
0.000181927
0.000193874
0.000206148
0.000218596
0.000230939
0.00024288
0.00025415
0.000264522
0.00027381
0.000281862
0.000288559
0.000293787
0.000297395
0.000299119
0.00029855
0.000295397
0.000290307
0.000285633
0.000283145
0.000275902
0.000258788
0.000269102
0.00026172
0.000263023
0.000266928
0.000265358
0.000268238
0.000270709
0.000268872
0.000274892
0.000280872
0.000287171
0.000293695
0.000300381
0.000307185
0.00031408
0.00032105
0.000328089
0.000335195
0.000342368
0.00034961
0.000356924
0.000364313
0.00037178
0.000379328
0.000386961
0.00039468
0.000402488
0.000410386
0.000418375
0.000426456
0.000434629
0.000442893
0.000451247
0.000459691
0.000468221
0.000476835
0.000485532
0.000494307
0.000503157
0.000512078
0.000521067
0.000530118
0.000539227
0.00054839
0.0005576
0.000566853
0.000576143
0.000585465
0.000594814
0.000604184
0.00061357
0.000622965
0.000632366
0.000641767
0.000651162
0.000660547
0.000669917
0.000679268
0.000688595
0.000697893
0.000707157
0.000716383
0.000725563
0.000734688
0.000743744
0.000752711
0.000761552
0.000770212
0.000778608
0.000786349
0.000793923
0.000801382
0.000808728
0.000815956
0.000823062
0.000830038
0.000836881
0.000843582
0.000850138
0.000856542
0.000862788
0.000868873
0.000874789
0.000880533
0.000886098
0.000891482
0.000896679
0.000901684
0.000906494
0.000911105
0.000915514
0.000919717
0.00092371
0.000927492
0.000931059
0.000934409
0.00093754
0.000940449
0.000943136
0.000945599
0.000947837
0.000949849
0.000951634
0.000953193
0.000954526
0.000955633
0.000956514
0.000957171
0.000957605
0.000957818
0.000957812
0.000957588
0.00095715
0.0009565
0.000955641
0.000954577
0.000953312
0.000951848
0.000950191
0.000948345
0.000946315
0.000944105
0.000941721
0.000939169
0.000936453
0.000933583
0.000930557
0.000927393
0.000924089
0.000920652
0.000917104
0.000913436
0.000909587
0.00090539
0.000899856
0.000892652
0.000884985
0.000877141
0.000869195
0.000861176
0.000853099
0.000844973
0.000836803
0.000828595
0.000820347
0.00081205
0.000803683
0.000795174
0.000786419
0.000776366
0.000755845
3.78268e-06
5.36626e-05
0.000112118
0.000157736
0.000191835
0.000217314
0.000236946
0.000252952
0.000266986
0.000280129
0.000292959
0.000305667
0.000318204
0.000330397
0.000342037
0.000352925
0.000362899
0.000371849
0.000379717
0.000386496
0.000392211
0.000396898
0.000400615
0.00040357
0.000406313
0.000409708
0.000414154
0.000418727
0.000423707
0.000430914
0.000437861
0.000446561
0.00045623
0.000466154
0.000477288
0.000489066
0.000501326
0.000514793
0.000528491
0.000542357
0.000556379
0.000570545
0.000584847
0.000599277
0.000613835
0.000628521
0.000643341
0.0006583
0.000673405
0.000688663
0.000704079
0.00071966
0.000735412
0.000751338
0.000767442
0.000783726
0.000800193
0.000816842
0.000833672
0.000850683
0.00086787
0.000885231
0.000902761
0.000920454
0.000938305
0.000956305
0.000974448
0.000992724
0.00101113
0.00102964
0.00104826
0.00106697
0.00108577
0.00110464
0.00112356
0.00114254
0.00116155
0.00118058
0.00119963
0.00121868
0.00123771
0.00125672
0.00127569
0.00129462
0.00131348
0.00133228
0.00135099
0.0013696
0.00138811
0.00140649
0.00142473
0.00144282
0.00146072
0.00147841
0.00149585
0.00151301
0.00152985
0.00154604
0.00156179
0.00157725
0.00159247
0.00160745
0.00162218
0.00163664
0.00165083
0.00166473
0.00167833
0.00169162
0.00170459
0.00171723
0.00172952
0.00174146
0.00175303
0.00176423
0.00177505
0.00178547
0.00179548
0.00180509
0.00181428
0.00182304
0.00183137
0.00183926
0.0018467
0.0018537
0.00186024
0.00186632
0.00187194
0.0018771
0.00188178
0.00188599
0.00188974
0.001893
0.0018958
0.00189813
0.00189998
0.00190136
0.00190227
0.00190272
0.00190271
0.00190225
0.00190133
0.00189996
0.00189815
0.00189591
0.00189324
0.00189015
0.00188665
0.00188274
0.00187845
0.00187376
0.00186871
0.00186329
0.00185753
0.00185142
0.001845
0.00183826
0.00183122
0.00182392
0.00181634
0.0018085
0.00180043
0.00179196
0.00178288
0.00177244
0.0017604
0.00174757
0.00173432
0.00172081
0.0017071
0.00169323
0.00167923
0.0016651
0.00165087
0.00163652
0.00162204
0.00160735
0.00159227
0.0015763
0.0015575
0.00152705
5.86346e-06
6.96955e-05
0.0001416
0.000197998
0.000240657
0.000272964
0.000297857
0.000317745
0.000334503
0.000349481
0.000363544
0.000377155
0.000390491
0.000403551
0.000416252
0.000428489
0.00044018
0.000451288
0.000461831
0.000471883
0.000481565
0.000491023
0.000500437
0.000510032
0.000520105
0.000530965
0.000542755
0.000555381
0.000568887
0.000583326
0.000598521
0.000614596
0.000631438
0.000648958
0.000667191
0.00068602
0.000705349
0.000725095
0.000745049
0.000765144
0.000785368
0.000805727
0.000826227
0.000846879
0.000867692
0.000888678
0.000909846
0.000931207
0.000952771
0.000974549
0.000996547
0.00101877
0.00104124
0.00106394
0.00108689
0.00111008
0.00113351
0.00115719
0.00118112
0.00120528
0.00122967
0.00125429
0.00127914
0.00130419
0.00132944
0.00135488
0.0013805
0.00140628
0.00143222
0.00145829
0.00148448
0.00151077
0.00153716
0.00156362
0.00159013
0.00161668
0.00164325
0.00166982
0.00169637
0.0017229
0.00174937
0.00177578
0.0018021
0.00182832
0.00185442
0.00188038
0.00190619
0.00193183
0.00195727
0.0019825
0.00200749
0.00203223
0.00205668
0.00208081
0.00210459
0.00212798
0.00215093
0.00217327
0.00219517
0.00221671
0.0022379
0.00225874
0.00227923
0.00229935
0.00231909
0.00233842
0.00235734
0.00237582
0.00239386
0.00241143
0.00242852
0.00244512
0.00246122
0.0024768
0.00249184
0.00250634
0.00252028
0.00253365
0.00254645
0.00255866
0.00257027
0.00258127
0.00259166
0.00260143
0.00261058
0.00261908
0.00262695
0.00263418
0.00264076
0.00264669
0.00265196
0.00265658
0.00266055
0.00266387
0.00266653
0.00266854
0.0026699
0.00267062
0.0026707
0.00267014
0.00266895
0.00266714
0.00266472
0.00266169
0.00265806
0.00265385
0.00264906
0.0026437
0.00263779
0.00263134
0.00262437
0.00261688
0.0026089
0.00260044
0.00259153
0.00258218
0.0025724
0.00256223
0.00255167
0.00254071
0.00252937
0.00251753
0.002505
0.00249136
0.00247646
0.00246071
0.00244439
0.00242769
0.00241067
0.00239339
0.0023759
0.00235821
0.00234035
0.00232231
0.00230408
0.00228556
0.00226651
0.00224626
0.00222273
0.00218956
8.02261e-06
8.20833e-05
0.000164828
0.000230444
0.000280656
0.000319002
0.000348651
0.000372216
0.000391761
0.000408832
0.000424504
0.000439452
0.000454049
0.00046846
0.000482734
0.000496868
0.000510855
0.000524715
0.000538506
0.000552323
0.000566295
0.000580567
0.000595292
0.000610622
0.000626704
0.000643653
0.000661513
0.000680263
0.000699866
0.00072027
0.000741408
0.00076324
0.000785703
0.000808738
0.00083229
0.000856281
0.000880628
0.000905246
0.000930051
0.000955007
0.000980104
0.00100535
0.00103075
0.00105633
0.00108209
0.00110806
0.00113425
0.00116066
0.00118732
0.00121422
0.0012414
0.00126884
0.00129655
0.00132455
0.00135283
0.00138139
0.00141024
0.00143936
0.00146877
0.00149844
0.00152837
0.00155856
0.001589
0.00161966
0.00165055
0.00168164
0.00171292
0.00174437
0.00177597
0.00180772
0.00183958
0.00187154
0.00190357
0.00193566
0.00196779
0.00199994
0.00203207
0.00206418
0.00209624
0.00212822
0.00216012
0.00219189
0.00222354
0.00225502
0.00228633
0.00231745
0.00234834
0.00237899
0.00240939
0.0024395
0.00246931
0.00249878
0.0025279
0.00255664
0.00258498
0.0026129
0.00264021
0.00266699
0.00269332
0.00271924
0.00274474
0.00276984
0.0027945
0.00281873
0.0028425
0.00286579
0.00288859
0.00291087
0.00293263
0.00295384
0.00297448
0.00299455
0.00301402
0.00303287
0.0030511
0.00306869
0.00308562
0.00310189
0.00311747
0.00313236
0.00314654
0.00316002
0.00317277
0.00318478
0.00319606
0.00320659
0.00321637
0.00322539
0.00323364
0.00324112
0.00324783
0.00325377
0.00325893
0.00326332
0.00326693
0.00326977
0.00327184
0.00327314
0.00327368
0.00327346
0.00327249
0.00327078
0.00326833
0.00326515
0.00326125
0.00325665
0.00325135
0.00324537
0.00323873
0.00323142
0.00322348
0.00321492
0.00320576
0.00319601
0.0031857
0.00317484
0.00316346
0.00315158
0.0031392
0.00312633
0.00311297
0.00309905
0.00308443
0.0030689
0.00305237
0.00303502
0.00301705
0.00299859
0.00297973
0.00296054
0.00294106
0.00292133
0.00290137
0.00288121
0.00286082
0.00284013
0.0028189
0.0027965
0.00277115
0.00273874
1.00582e-05
9.21873e-05
0.000183748
0.000257417
0.00031439
0.000358278
0.000392419
0.000419587
0.000442
0.00046136
0.000478908
0.000495494
0.000511654
0.000527702
0.000543804
0.000560047
0.000576486
0.000593174
0.000610181
0.000627592
0.000645506
0.000664025
0.000683248
0.000703256
0.000724109
0.000745839
0.000768439
0.000791871
0.000816081
0.000841003
0.000866571
0.000892723
0.000919395
0.000946528
0.000974062
0.00100194
0.00103009
0.00105847
0.00108703
0.00111575
0.00114463
0.00117368
0.0012029
0.00123231
0.00126193
0.00129177
0.00132184
0.00135217
0.00138276
0.00141363
0.00144478
0.00147622
0.00150795
0.00153999
0.00157233
0.00160497
0.00163791
0.00167115
0.00170467
0.00173848
0.00177256
0.00180691
0.0018415
0.00187633
0.00191138
0.00194664
0.00198208
0.00201769
0.00205344
0.00208932
0.00212531
0.00216138
0.00219751
0.00223367
0.00226985
0.00230601
0.00234214
0.00237821
0.00241419
0.00245007
0.00248581
0.00252139
0.0025568
0.00259201
0.00262699
0.00266173
0.0026962
0.00273038
0.00276425
0.00279779
0.00283097
0.00286378
0.0028962
0.00292819
0.00295974
0.00299082
0.00302129
0.00305124
0.00308074
0.00310978
0.00313838
0.00316653
0.00319421
0.00322141
0.00324811
0.00327429
0.00329993
0.00332502
0.00334952
0.00337343
0.00339673
0.0034194
0.00344141
0.00346277
0.00348343
0.0035034
0.00352266
0.00354118
0.00355897
0.00357599
0.00359225
0.00360773
0.00362242
0.00363631
0.00364939
0.00366165
0.00367308
0.00368369
0.00369345
0.00370236
0.00371044
0.00371766
0.00372403
0.00372954
0.0037342
0.00373801
0.00374096
0.00374307
0.00374434
0.00374476
0.00374435
0.00374311
0.00374105
0.00373819
0.00373452
0.00373006
0.00372483
0.00371883
0.00371207
0.00370458
0.00369638
0.00368746
0.00367786
0.0036676
0.00365669
0.00364515
0.00363301
0.00362029
0.00360699
0.00359313
0.0035787
0.00356367
0.00354795
0.00353144
0.00351407
0.00349595
0.00347719
0.00345788
0.00343812
0.00341796
0.00339745
0.00337665
0.00335558
0.00333429
0.00331278
0.00329101
0.00326879
0.00324561
0.00322009
0.00318967
1.18466e-05
0.000100335
0.000199306
0.000279904
0.000342907
0.000391921
0.000430368
0.000461121
0.000486501
0.000508325
0.000527963
0.000546401
0.000564313
0.000582135
0.000600137
0.000618479
0.000637267
0.000656576
0.00067647
0.000697016
0.000718276
0.000740308
0.000763157
0.000786853
0.000811404
0.000836799
0.000863003
0.000889964
0.000917622
0.000945908
0.000974758
0.00100411
0.00103389
0.00106406
0.00109456
0.00112534
0.00115636
0.00118759
0.001219
0.00125058
0.00128233
0.00131426
0.00134637
0.00137868
0.00141121
0.00144397
0.00147697
0.00151023
0.00154377
0.00157758
0.00161169
0.00164609
0.0016808
0.00171581
0.00175113
0.00178675
0.00182268
0.0018589
0.00189542
0.00193221
0.00196928
0.00200661
0.00204418
0.00208198
0.00212
0.00215822
0.00219661
0.00223516
0.00227385
0.00231265
0.00235154
0.0023905
0.0024295
0.00246852
0.00250753
0.00254651
0.00258543
0.00262426
0.00266298
0.00270157
0.00274
0.00277824
0.00281627
0.00285407
0.00289161
0.00292887
0.00296583
0.00300247
0.00303877
0.00307471
0.00311027
0.00314543
0.00318017
0.00321446
0.00324831
0.0032816
0.00331435
0.0033466
0.00337838
0.0034097
0.00344057
0.00347097
0.00350089
0.0035303
0.0035592
0.00358756
0.00361535
0.00364257
0.00366919
0.00369519
0.00372055
0.00374525
0.00376927
0.00379261
0.00381522
0.00383711
0.00385825
0.00387863
0.00389823
0.00391704
0.00393504
0.00395222
0.00396857
0.00398408
0.00399875
0.00401255
0.00402548
0.00403753
0.00404869
0.00405896
0.00406834
0.00407683
0.00408441
0.00409108
0.00409685
0.00410171
0.00410567
0.00410873
0.0041109
0.00411216
0.00411253
0.00411202
0.00411064
0.0041084
0.00410529
0.00410133
0.00409654
0.00409093
0.0040845
0.00407727
0.00406926
0.00406049
0.00405098
0.00404074
0.00402979
0.00401816
0.00400586
0.00399292
0.00397934
0.00396514
0.00395031
0.00393485
0.00391871
0.00390183
0.0038842
0.00386584
0.00384684
0.00382727
0.00380719
0.00378667
0.00376576
0.00374452
0.003723
0.00370124
0.0036793
0.00365715
0.00363467
0.0036115
0.00358662
0.00355843
1.32782e-05
0.00010693
0.000211908
0.000298363
0.000366693
0.000420426
0.000462991
0.000497295
0.000525713
0.000550133
0.000572016
0.000592451
0.000612219
0.000631855
0.000651713
0.000672021
0.000692921
0.000714505
0.000736838
0.000759963
0.000783915
0.000808713
0.000834366
0.000860868
0.000888195
0.000916313
0.000945172
0.000974714
0.00100488
0.00103559
0.0010668
0.00109844
0.00113046
0.0011628
0.00119543
0.0012283
0.0012614
0.00129468
0.00132815
0.00136178
0.00139559
0.00142958
0.00146376
0.00149814
0.00153274
0.00156757
0.00160264
0.00163797
0.00167357
0.00170945
0.00174561
0.00178207
0.00181883
0.00185588
0.00189324
0.0019309
0.00196886
0.0020071
0.00204564
0.00208445
0.00212352
0.00216285
0.00220242
0.00224221
0.00228221
0.0023224
0.00236276
0.00240327
0.00244391
0.00248466
0.00252549
0.00256638
0.00260731
0.00264825
0.00268917
0.00273004
0.00277085
0.00281156
0.00285215
0.00289259
0.00293286
0.00297292
0.00301276
0.00305234
0.00309166
0.00313068
0.00316938
0.00320774
0.00324575
0.00328339
0.00332063
0.00335746
0.00339386
0.00342981
0.0034653
0.00350023
0.00353467
0.00356864
0.00360216
0.00363522
0.00366783
0.00369998
0.00373164
0.0037628
0.00379343
0.00382353
0.00385305
0.003882
0.00391033
0.00393804
0.0039651
0.0039915
0.0040172
0.0040422
0.00406648
0.00409001
0.00411277
0.00413476
0.00415594
0.00417631
0.00419586
0.00421456
0.00423241
0.0042494
0.00426552
0.00428074
0.00429507
0.00430849
0.004321
0.00433258
0.00434324
0.00435297
0.00436178
0.00436964
0.00437656
0.00438254
0.00438758
0.00439169
0.00439487
0.00439712
0.00439842
0.00439881
0.0043983
0.00439689
0.00439456
0.00439133
0.00438724
0.00438227
0.00437646
0.0043698
0.00436233
0.00435405
0.00434498
0.00433514
0.00432456
0.00431324
0.0043012
0.00428847
0.00427506
0.00426098
0.00424623
0.00423082
0.00421473
0.00419792
0.0041804
0.00416218
0.00414331
0.00412385
0.00410386
0.00408339
0.0040625
0.00404125
0.0040197
0.00399792
0.00397598
0.0039539
0.00393162
0.00390889
0.00388498
0.00385883
1.44093e-05
0.000111966
0.000221685
0.000313034
0.000386034
0.000444074
0.000490532
0.000528301
0.000559766
0.00058685
0.000611066
0.000633572
0.000655228
0.000676646
0.00069825
0.00072032
0.000743034
0.000766502
0.000790788
0.000815926
0.00084193
0.000868795
0.000896506
0.000925032
0.000954336
0.000984367
0.00101507
0.00104638
0.00107825
0.0011106
0.00114338
0.00117653
0.00121002
0.00124378
0.0012778
0.00131204
0.00134647
0.00138109
0.00141587
0.00145082
0.00148594
0.00152124
0.00155672
0.0015924
0.00162829
0.0016644
0.00170075
0.00173734
0.00177419
0.00181132
0.00184872
0.0018864
0.00192438
0.00196264
0.0020012
0.00204005
0.0020792
0.00211862
0.00215833
0.0021983
0.00223854
0.00227903
0.00231976
0.00236071
0.00240187
0.00244322
0.00248474
0.00252642
0.00256823
0.00261016
0.00265217
0.00269425
0.00273637
0.00277851
0.00282064
0.00286274
0.00290477
0.00294671
0.00298853
0.00303021
0.00307171
0.00311301
0.00315409
0.00319492
0.00323547
0.00327573
0.00331566
0.00335526
0.0033945
0.00343336
0.00347183
0.00350989
0.00354753
0.00358472
0.00362144
0.00365767
0.00369345
0.00372881
0.00376373
0.00379822
0.00383228
0.00386588
0.003899
0.00393164
0.00396376
0.00399534
0.00402636
0.0040568
0.00408664
0.00411585
0.00414442
0.00417232
0.00419952
0.00422602
0.00425179
0.00427681
0.00430106
0.00432451
0.00434716
0.00436898
0.00438997
0.0044101
0.00442936
0.00444775
0.00446525
0.00448186
0.00449754
0.0045123
0.00452611
0.00453899
0.00455093
0.00456192
0.00457197
0.00458105
0.00458916
0.00459631
0.00460249
0.00460772
0.00461203
0.00461534
0.0046177
0.0046191
0.00461957
0.00461911
0.00461772
0.00461541
0.00461219
0.00460809
0.0046031
0.00459725
0.00459054
0.004583
0.00457464
0.00456548
0.00455553
0.00454482
0.00453335
0.00452115
0.00450823
0.0044946
0.00448028
0.00446526
0.00444954
0.00443312
0.004416
0.00439819
0.00437973
0.00436066
0.00434103
0.00432089
0.0043003
0.00427934
0.00425806
0.00423656
0.00421492
0.00419319
0.00417137
0.0041493
0.00412644
0.00410203
1.52503e-05
0.000115561
0.000228843
0.000324174
0.000401194
0.000463102
0.000513176
0.000554256
0.000588701
0.000618435
0.000644991
0.00066957
0.000693081
0.000716194
0.000739385
0.000762978
0.000787183
0.00081213
0.00083789
0.000864495
0.000891948
0.000920234
0.000949321
0.000979171
0.00100973
0.00104095
0.00107277
0.00110513
0.00113797
0.00117124
0.00120487
0.00123883
0.00127308
0.00130756
0.00134227
0.00137716
0.00141223
0.00144746
0.00148285
0.00151839
0.00155409
0.00158996
0.00162599
0.00166222
0.00169864
0.00173527
0.00177212
0.00180921
0.00184655
0.00188414
0.001922
0.00196014
0.00199855
0.00203725
0.00207624
0.00211551
0.00215507
0.00219491
0.00223504
0.00227544
0.0023161
0.00235703
0.0023982
0.00243961
0.00248124
0.00252308
0.00256512
0.00260733
0.00264969
0.00269219
0.0027348
0.0027775
0.00282027
0.00286309
0.00290592
0.00294874
0.00299152
0.00303424
0.00307686
0.00311936
0.0031617
0.00320386
0.00324581
0.00328753
0.00332898
0.00337014
0.00341099
0.00345151
0.00349169
0.00353149
0.00357091
0.00360994
0.00364855
0.00368674
0.0037245
0.00376186
0.00379882
0.00383538
0.00387156
0.00390733
0.00394268
0.0039776
0.00401206
0.00404605
0.00407953
0.00411249
0.0041449
0.00417673
0.00420797
0.0042386
0.00426858
0.00429789
0.00432652
0.00435445
0.00438164
0.00440809
0.00443376
0.00445863
0.00448269
0.00450591
0.0045283
0.00454982
0.00457046
0.00459022
0.00460909
0.00462706
0.00464409
0.00466018
0.00467531
0.00468949
0.00470272
0.00471499
0.00472632
0.00473666
0.00474601
0.00475437
0.00476175
0.00476816
0.00477361
0.00477807
0.00478157
0.00478409
0.00478566
0.00478628
0.00478596
0.0047847
0.00478252
0.00477943
0.00477544
0.00477056
0.00476481
0.0047582
0.00475075
0.00474247
0.00473337
0.00472349
0.00471282
0.00470138
0.0046892
0.00467628
0.00466263
0.00464827
0.00463319
0.0046174
0.0046009
0.00458372
0.00456587
0.0045474
0.00452834
0.00450876
0.0044887
0.00446824
0.00444745
0.00442644
0.0044053
0.00438411
0.0043629
0.00434158
0.00431973
0.00429679
1.58209e-05
0.000117871
0.000233637
0.000332079
0.000412465
0.000477765
0.000531117
0.000575276
0.000612548
0.000644828
0.000673647
0.00070022
0.000725485
0.000750148
0.000774723
0.00079957
0.000824929
0.000850948
0.000877712
0.000905257
0.000933586
0.000962681
0.000992506
0.00102302
0.00105416
0.00108589
0.00111813
0.00115084
0.00118396
0.00121744
0.00125123
0.00128529
0.00131958
0.00135408
0.00138875
0.00142358
0.00145856
0.00149368
0.00152893
0.00156432
0.00159984
0.00163552
0.00167135
0.00170735
0.00174354
0.00177992
0.00181651
0.00185333
0.00189038
0.00192768
0.00196525
0.00200308
0.00204119
0.00207959
0.00211828
0.00215726
0.00219654
0.00223612
0.002276
0.00231617
0.00235663
0.00239738
0.0024384
0.00247969
0.00252125
0.00256305
0.00260508
0.00264732
0.00268977
0.0027324
0.00277519
0.00281812
0.00286116
0.00290429
0.00294749
0.00299072
0.00303395
0.00307717
0.00312033
0.0031634
0.00320635
0.00324915
0.00329177
0.00333418
0.00337634
0.00341824
0.00345984
0.00350113
0.00354208
0.00358268
0.00362291
0.00366276
0.00370221
0.00374133
0.00378011
0.00381855
0.00385664
0.00389438
0.00393176
0.00396877
0.00400539
0.0040416
0.00407737
0.00411268
0.0041475
0.00418181
0.00421559
0.0042488
0.00428142
0.00431343
0.00434481
0.00437553
0.00440556
0.00443489
0.0044635
0.00449137
0.00451845
0.00454473
0.00457019
0.00459482
0.00461859
0.0046415
0.00466353
0.00468467
0.00470491
0.00472427
0.00474266
0.00476009
0.00477657
0.00479208
0.00480662
0.0048202
0.00483281
0.00484443
0.00485506
0.00486469
0.00487334
0.004881
0.00488769
0.00489338
0.0048981
0.00490184
0.00490461
0.00490643
0.00490729
0.0049072
0.00490618
0.00490424
0.00490139
0.00489763
0.00489299
0.00488747
0.00488109
0.00487386
0.0048658
0.00485693
0.00484725
0.00483678
0.00482554
0.00481353
0.00480077
0.00478727
0.00477304
0.00475808
0.0047424
0.00472603
0.00470897
0.00469128
0.00467298
0.00465412
0.00463477
0.00461499
0.00459487
0.00457451
0.00455401
0.00453349
0.00451299
0.00449246
0.00447157
0.00444985
1.61487e-05
0.000119069
0.00023635
0.000337073
0.000420163
0.000488335
0.000544562
0.000591484
0.000631333
0.000665958
0.000696865
0.000725262
0.000752096
0.000778095
0.000803797
0.000829587
0.00085573
0.000882395
0.000909682
0.000937636
0.000966267
0.000995561
0.00102549
0.001056
0.00108704
0.00111857
0.00115053
0.00118287
0.00121554
0.0012485
0.00128169
0.0013151
0.00134868
0.00138241
0.00141628
0.00145027
0.00148437
0.00151857
0.00155289
0.00158731
0.00162186
0.00165653
0.00169135
0.00172632
0.00176147
0.00179681
0.00183235
0.00186811
0.00190411
0.00194037
0.0019769
0.00201371
0.00205081
0.00208822
0.00212595
0.00216401
0.00220239
0.00224111
0.00228018
0.00231958
0.00235933