/*--------------------------------*- C++ -*----------------------------------*\
  =========                 |
  \\      /  F ield         | OpenFOAM: The Open Source CFD Toolbox
   \\    /   O peration     | Website:  https://openfoam.org
    \\  /    A nd           | Version:  9
     \\/     M anipulation  |
\*---------------------------------------------------------------------------*/
FoamFile
{
    format      ascii;
    class       surfaceScalarField;
    location    "0.12";
    object      phi;
}
// * * * * * * * * * * * * * * * * * * * * * * * * * * * * * * * * * * * * * //

dimensions      [0 3 -1 0 0 0 0];

internalField   nonuniform List<scalar> 
24170
(
3.1336e-06
5.48104e-08
3.04826e-06
8.53371e-08
2.97312e-06
7.51407e-08
2.90426e-06
6.88591e-08
2.8394e-06
6.48602e-08
2.78214e-06
5.72597e-08
2.73319e-06
4.89466e-08
2.69161e-06
4.15814e-08
2.6561e-06
3.55089e-08
2.62549e-06
3.06076e-08
2.59881e-06
2.66798e-08
2.57525e-06
2.35648e-08
2.5541e-06
2.11486e-08
2.53467e-06
1.94308e-08
2.51627e-06
1.8396e-08
2.49698e-06
1.92961e-08
2.47543e-06
2.1546e-08
4.07479e-08
2.43468e-06
3.45361e-06
1.84488e-08
3.45616e-06
8.27875e-08
3.44961e-06
8.1693e-08
3.43798e-06
8.04918e-08
3.42347e-06
7.93649e-08
3.40591e-06
7.48225e-08
3.38625e-06
6.86043e-08
3.36531e-06
6.25206e-08
3.34386e-06
5.69599e-08
3.3225e-06
5.1966e-08
3.30163e-06
4.75492e-08
3.28147e-06
4.37234e-08
3.26213e-06
4.04872e-08
3.2436e-06
3.79689e-08
3.2259e-06
3.60883e-08
3.20888e-06
3.63174e-08
3.19346e-06
3.69647e-08
4.85962e-08
3.18562e-06
3.66535e-06
1.56139e-08
3.67825e-06
6.98939e-08
3.6853e-06
7.46414e-08
3.68957e-06
7.62236e-08
3.69122e-06
7.7709e-08
3.69007e-06
7.59774e-08
3.68659e-06
7.20847e-08
3.68135e-06
6.77519e-08
3.6748e-06
6.35171e-08
3.66726e-06
5.95014e-08
3.65903e-06
5.57841e-08
3.6503e-06
5.24491e-08
3.64123e-06
4.95586e-08
3.63192e-06
4.72814e-08
3.62235e-06
4.5655e-08
3.61298e-06
4.56832e-08
3.60343e-06
4.65151e-08
5.20833e-08
3.59995e-06
3.92465e-06
1.63558e-08
3.93579e-06
5.87489e-08
3.94252e-06
6.79083e-08
3.94799e-06
7.07628e-08
3.95238e-06
7.33168e-08
3.95527e-06
7.30821e-08
3.9568e-06
7.05626e-08
3.95724e-06
6.73069e-08
3.9568e-06
6.39621e-08
3.95561e-06
6.06898e-08
3.9538e-06
5.75875e-08
3.95149e-06
5.47617e-08
3.94875e-06
5.23038e-08
3.94565e-06
5.0375e-08
3.94224e-06
4.9069e-08
3.93897e-06
4.89511e-08
3.93586e-06
4.963e-08
5.21916e-08
3.93575e-06
4.20776e-06
1.57181e-08
4.21599e-06
5.05242e-08
4.22164e-06
6.2256e-08
4.22656e-06
6.5847e-08
4.23124e-06
6.86387e-08
4.23517e-06
6.91515e-08
4.23823e-06
6.7499e-08
4.24056e-06
6.49759e-08
4.24227e-06
6.22543e-08
4.24344e-06
5.95214e-08
4.24414e-06
5.68818e-08
4.24445e-06
5.44509e-08
4.24443e-06
5.23312e-08
4.24414e-06
5.06598e-08
4.24368e-06
4.95294e-08
4.24341e-06
4.92198e-08
4.24354e-06
4.94977e-08
5.04305e-08
4.24531e-06
4.51044e-06
1.43682e-08
4.51685e-06
4.41094e-08
4.52215e-06
5.6957e-08
4.52679e-06
6.12046e-08
4.53138e-06
6.40476e-08
4.53555e-06
6.49878e-08
4.5391e-06
6.39483e-08
4.5421e-06
6.19717e-08
4.54464e-06
5.97168e-08
4.54677e-06
5.73939e-08
4.54854e-06
5.51139e-08
4.54999e-06
5.29919e-08
4.5512e-06
5.11294e-08
4.55222e-06
4.96336e-08
4.55318e-06
4.85714e-08
4.55435e-06
4.80524e-08
4.55596e-06
4.78854e-08
4.78222e-08
4.55857e-06
4.83412e-06
1.29701e-08
4.83957e-06
3.86583e-08
4.84481e-06
5.17182e-08
4.84938e-06
5.66323e-08
4.85387e-06
5.95608e-08
4.85807e-06
6.07875e-08
4.8618e-06
6.02174e-08
4.86509e-06
5.86779e-08
4.86801e-06
5.67947e-08
4.87061e-06
5.48002e-08
4.87291e-06
5.28102e-08
4.87497e-06
5.09348e-08
4.87683e-06
4.92669e-08
4.87858e-06
4.78852e-08
4.88033e-06
4.68259e-08
4.88227e-06
4.61031e-08
4.88462e-06
4.55428e-08
4.48571e-08
4.88758e-06
5.1809e-06
1.16533e-08
5.18569e-06
3.38619e-08
5.19082e-06
4.65973e-08
5.19538e-06
5.20719e-08
5.19982e-06
5.51209e-08
5.20405e-06
5.65566e-08
5.20789e-06
5.63689e-08
5.21137e-06
5.52042e-08
5.21452e-06
5.36388e-08
5.2174e-06
5.19222e-08
5.22004e-06
5.01756e-08
5.22247e-06
4.85016e-08
5.22476e-06
4.69818e-08
5.22697e-06
4.56714e-08
5.22921e-06
4.45813e-08
5.23164e-06
4.36785e-08
5.23437e-06
4.28101e-08
4.17398e-08
5.23749e-06
5.5526e-06
1.03931e-08
5.55684e-06
2.96206e-08
5.56174e-06
4.16935e-08
5.56629e-06
4.75237e-08
5.57072e-06
5.06884e-08
5.575e-06
5.22783e-08
5.57896e-06
5.24075e-08
5.58259e-06
5.15758e-08
5.58594e-06
5.02952e-08
5.58903e-06
4.88246e-08
5.59192e-06
4.72897e-08
5.59463e-06
4.57855e-08
5.59723e-06
4.43823e-08
5.59979e-06
4.31179e-08
5.60238e-06
4.19873e-08
5.60512e-06
4.09407e-08
5.60808e-06
3.98527e-08
3.85566e-08
5.61126e-06
5.95098e-06
9.18622e-09
5.95475e-06
2.58572e-08
5.95939e-06
3.70518e-08
5.9639e-06
4.30082e-08
5.96834e-06
4.62552e-08
5.97266e-06
4.79533e-08
5.97673e-06
4.83372e-08
5.98051e-06
4.77982e-08
5.98403e-06
4.67758e-08
5.98733e-06
4.55271e-08
5.99043e-06
4.41813e-08
5.99339e-06
4.28255e-08
5.99626e-06
4.15199e-08
5.99908e-06
4.02914e-08
6.00194e-06
3.91281e-08
6.0049e-06
3.79808e-08
6.008e-06
3.67539e-08
3.53429e-08
6.01122e-06
6.37795e-06
8.04616e-09
6.38132e-06
2.2494e-08
6.38569e-06
3.26806e-08
6.39014e-06
3.855e-08
6.39457e-06
4.18267e-08
6.39894e-06
4.35911e-08
6.40311e-06
4.41674e-08
6.40703e-06
4.38761e-08
6.41072e-06
4.30844e-08
6.41421e-06
4.20363e-08
6.41753e-06
4.08611e-08
6.42072e-06
3.9639e-08
6.42381e-06
3.84219e-08
6.42687e-06
3.72307e-08
6.42995e-06
3.60537e-08
6.43308e-06
3.48508e-08
6.43628e-06
3.35549e-08
3.21088e-08
6.43951e-06
5.74175e-06
7.13407e-09
5.74432e-06
1.99165e-08
5.74781e-06
2.91925e-08
5.75152e-06
3.48401e-08
5.75526e-06
3.80907e-08
5.75897e-06
3.98823e-08
5.76256e-06
4.05748e-08
5.76598e-06
4.04546e-08
5.76923e-06
3.9835e-08
5.77233e-06
3.89405e-08
5.77529e-06
3.78971e-08
5.77815e-06
3.678e-08
5.78094e-06
3.56357e-08
5.78368e-06
3.44831e-08
5.78642e-06
3.33135e-08
5.78918e-06
3.20975e-08
5.79194e-06
3.0788e-08
2.93587e-08
5.79469e-06
6.99913e-06
6.1594e-09
7.00186e-06
1.71906e-08
7.00563e-06
2.54181e-08
7.00978e-06
3.06912e-08
7.01404e-06
3.3833e-08
7.01831e-06
3.56095e-08
7.0225e-06
3.63877e-08
7.02653e-06
3.64219e-08
7.03039e-06
3.59708e-08
7.0341e-06
3.5233e-08
7.03767e-06
3.43275e-08
7.04113e-06
3.3324e-08
7.0445e-06
3.22646e-08
7.04781e-06
3.11676e-08
7.0511e-06
3.00299e-08
7.05436e-06
2.88342e-08
7.0576e-06
2.75524e-08
2.61822e-08
7.06077e-06
8.53188e-06
5.13126e-09
8.53472e-06
1.43425e-08
8.53876e-06
2.13839e-08
8.54334e-06
2.61088e-08
8.54814e-06
2.90294e-08
8.55303e-06
3.07274e-08
8.55787e-06
3.15433e-08
8.56259e-06
3.16994e-08
8.56716e-06
3.14018e-08
8.57158e-06
3.08175e-08
8.57585e-06
3.00535e-08
8.58e-06
2.91738e-08
8.58405e-06
2.82163e-08
8.58802e-06
2.72e-08
8.59192e-06
2.61285e-08
8.59576e-06
2.49962e-08
8.59952e-06
2.37907e-08
2.25256e-08
8.60317e-06
1.04003e-05
4.05997e-09
1.04032e-05
1.13888e-08
1.04075e-05
1.71071e-08
1.04125e-05
2.10971e-08
1.04179e-05
2.36559e-08
1.04234e-05
2.51877e-08
1.0429e-05
2.59748e-08
1.04345e-05
2.62036e-08
1.04399e-05
2.60319e-08
1.04451e-05
2.55907e-08
1.04502e-05
2.49702e-08
1.04551e-05
2.42265e-08
1.046e-05
2.33938e-08
1.04647e-05
2.24918e-08
1.04693e-05
2.15297e-08
1.04738e-05
2.0511e-08
1.04781e-05
1.94344e-08
1.83224e-08
1.04823e-05
1.26779e-05
2.95073e-09
1.2681e-05
8.32012e-09
1.26855e-05
1.25774e-08
1.2691e-05
1.56423e-08
1.26969e-05
1.76747e-08
1.27032e-05
1.89264e-08
1.27096e-05
1.9601e-08
1.27159e-05
1.98395e-08
1.27222e-05
1.97547e-08
1.27284e-05
1.94401e-08
1.27344e-05
1.89643e-08
1.27402e-05
1.83724e-08
1.27459e-05
1.76936e-08
1.27515e-05
1.69465e-08
1.27569e-05
1.61432e-08
1.27621e-05
1.52925e-08
1.27671e-05
1.4399e-08
1.34882e-08
1.27719e-05
1.54543e-05
1.79182e-09
1.54576e-05
5.08383e-09
1.54624e-05
7.72477e-09
1.54684e-05
9.67055e-09
1.54751e-05
1.09971e-08
1.54822e-05
1.18353e-08
1.54895e-05
1.23009e-08
1.54968e-05
1.24793e-08
1.55041e-05
1.24376e-08
1.55114e-05
1.22317e-08
1.55184e-05
1.19043e-08
1.55253e-05
1.14855e-08
1.5532e-05
1.09957e-08
1.55385e-05
1.04498e-08
1.55448e-05
9.85891e-09
1.55508e-05
9.2325e-09
1.55567e-05
8.57666e-09
7.91543e-09
1.55622e-05
1.88389e-05
5.40903e-10
1.88424e-05
1.54641e-09
1.88478e-05
2.35943e-09
1.88545e-05
2.97149e-09
1.88621e-05
3.40572e-09
1.88702e-05
3.6923e-09
1.88787e-05
3.85411e-09
1.88872e-05
3.90991e-09
1.88958e-05
3.87774e-09
1.89043e-05
3.7735e-09
1.89126e-05
3.60968e-09
1.89206e-05
3.39594e-09
1.89285e-05
3.14016e-09
1.89361e-05
2.84915e-09
1.89434e-05
2.52902e-09
1.89505e-05
2.1861e-09
1.89572e-05
1.82455e-09
1.4636e-09
1.89637e-05
2.29648e-05
-9.10326e-10
2.29689e-05
-2.59665e-09
2.29753e-05
-3.96031e-09
2.29832e-05
-4.95684e-09
2.29922e-05
-5.60193e-09
2.30019e-05
-5.98167e-09
2.30119e-05
-6.18911e-09
2.30221e-05
-6.2829e-09
2.30323e-05
-6.29997e-09
2.30423e-05
-6.27181e-09
2.30522e-05
-6.224e-09
2.30617e-05
-6.17298e-09
2.3071e-05
-6.12789e-09
2.30799e-05
-6.09361e-09
2.30885e-05
-6.07239e-09
2.30968e-05
-6.06406e-09
2.31047e-05
-6.06856e-09
-6.07348e-09
2.31122e-05
1.68119e-05
-2.05999e-09
1.68151e-05
-5.84314e-09
1.682e-05
-8.90729e-09
1.68262e-05
-1.11068e-08
1.68331e-05
-1.24897e-08
1.68404e-05
-1.32895e-08
1.68479e-05
-1.37101e-08
1.68555e-05
-1.38595e-08
1.6863e-05
-1.38129e-08
1.68704e-05
-1.3641e-08
1.68775e-05
-1.33991e-08
1.68845e-05
-1.31214e-08
1.68912e-05
-1.28289e-08
1.68976e-05
-1.2535e-08
1.69038e-05
-1.2248e-08
1.69097e-05
-1.19718e-08
1.69154e-05
-1.17089e-08
-1.14511e-08
1.69207e-05
1.46357e-05
-3.17325e-09
1.46389e-05
-9.01481e-09
1.46437e-05
-1.37511e-08
1.46496e-05
-1.70154e-08
1.46561e-05
-1.89534e-08
1.46628e-05
-2.00392e-08
1.46697e-05
-2.0575e-08
1.46765e-05
-2.06949e-08
1.46832e-05
-2.05189e-08
1.46897e-05
-2.01634e-08
1.46961e-05
-1.97078e-08
1.47021e-05
-1.91974e-08
1.4708e-05
-1.86615e-08
1.47136e-05
-1.812e-08
1.47189e-05
-1.7586e-08
1.4724e-05
-1.70661e-08
1.47288e-05
-1.65641e-08
-1.60747e-08
1.47335e-05
1.27412e-05
-4.22577e-09
1.27444e-05
-1.22373e-08
1.27494e-05
-1.87277e-08
1.27552e-05
-2.28351e-08
1.27613e-05
-2.50989e-08
1.27677e-05
-2.63636e-08
1.2774e-05
-2.69333e-08
1.27803e-05
-2.69349e-08
1.27863e-05
-2.656e-08
1.27921e-05
-2.598e-08
1.27977e-05
-2.529e-08
1.28031e-05
-2.45398e-08
1.28082e-05
-2.37636e-08
1.2813e-05
-2.29863e-08
1.28177e-05
-2.2223e-08
1.28221e-05
-2.1481e-08
1.28263e-05
-2.07643e-08
-2.00688e-08
1.28303e-05
1.10918e-05
-5.10691e-09
1.10951e-05
-1.55703e-08
1.11005e-05
-2.40404e-08
1.11063e-05
-2.86397e-08
1.11121e-05
-3.09684e-08
1.11181e-05
-3.23159e-08
1.1124e-05
-3.28301e-08
1.11297e-05
-3.26302e-08
1.11351e-05
-3.20079e-08
1.11403e-05
-3.11797e-08
1.11453e-05
-3.02428e-08
1.115e-05
-2.92487e-08
1.11545e-05
-2.8237e-08
1.11587e-05
-2.72353e-08
1.11627e-05
-2.62585e-08
1.11666e-05
-2.53135e-08
1.11702e-05
-2.44034e-08
-2.35246e-08
1.11737e-05
9.65583e-06
-5.72441e-09
9.65937e-06
-1.91043e-08
9.66498e-06
-2.96568e-08
9.67069e-06
-3.43432e-08
9.67635e-06
-3.66322e-08
9.68201e-06
-3.79806e-08
9.68748e-06
-3.82973e-08
9.69265e-06
-3.78018e-08
9.69755e-06
-3.69016e-08
9.70219e-06
-3.58192e-08
9.70658e-06
-3.46345e-08
9.71073e-06
-3.33989e-08
9.71465e-06
-3.21574e-08
9.71835e-06
-3.09393e-08
9.72185e-06
-2.97588e-08
9.72516e-06
-2.86219e-08
9.72829e-06
-2.75297e-08
-2.64772e-08
9.73124e-06
8.40544e-06
-5.80751e-09
8.40982e-06
-2.34873e-08
8.41533e-06
-3.5173e-08
8.42054e-06
-3.95507e-08
8.42599e-06
-4.20835e-08
8.43149e-06
-4.34765e-08
8.43667e-06
-4.34755e-08
8.44146e-06
-4.25922e-08
8.44592e-06
-4.13628e-08
8.45009e-06
-3.99872e-08
8.45398e-06
-3.85228e-08
8.4576e-06
-3.70217e-08
8.46097e-06
-3.55318e-08
8.46412e-06
-3.40821e-08
8.46704e-06
-3.26863e-08
8.46977e-06
-3.13502e-08
8.47232e-06
-3.00745e-08
-2.88553e-08
8.47469e-06
7.31506e-06
-3.58329e-09
7.32195e-06
-3.03791e-08
7.32741e-06
-4.06337e-08
7.3322e-06
-4.43331e-08
7.33752e-06
-4.74131e-08
7.34292e-06
-4.88711e-08
7.3479e-06
-4.84603e-08
7.35241e-06
-4.70988e-08
7.35648e-06
-4.54338e-08
7.36014e-06
-4.36437e-08
7.3634e-06
-4.17877e-08
7.36631e-06
-3.9929e-08
7.3689e-06
-3.81171e-08
7.37119e-06
-3.63783e-08
7.37323e-06
-3.47241e-08
7.37504e-06
-3.3159e-08
7.37664e-06
-3.16803e-08
-3.02815e-08
7.37807e-06
6.36222e-06
4.2597e-09
6.37295e-06
-4.11097e-08
6.38009e-06
-4.77688e-08
6.38628e-06
-5.05244e-08
6.39226e-06
-5.33959e-08
6.39757e-06
-5.41742e-08
6.40194e-06
-5.28367e-08
6.40554e-06
-5.06951e-08
6.40847e-06
-4.83632e-08
6.41078e-06
-4.59535e-08
6.41252e-06
-4.35336e-08
6.41378e-06
-4.11812e-08
6.4146e-06
-3.8945e-08
6.41507e-06
-3.68444e-08
6.41523e-06
-3.48861e-08
6.41514e-06
-3.30713e-08
6.41486e-06
-3.13916e-08
-2.98266e-08
6.4144e-06
5.53608e-06
1.36429e-08
5.54776e-06
-5.27879e-08
5.55745e-06
-5.74621e-08
5.56603e-06
-5.91019e-08
5.57281e-06
-6.01735e-08
5.57724e-06
-5.86072e-08
5.5794e-06
-5.49971e-08
5.57985e-06
-5.11448e-08
5.57901e-06
-4.75249e-08
5.57717e-06
-4.4109e-08
5.57454e-06
-4.09046e-08
5.57131e-06
-3.79493e-08
5.56762e-06
-3.52567e-08
5.56359e-06
-3.28185e-08
5.55933e-06
-3.06202e-08
5.55491e-06
-2.86588e-08
5.55045e-06
-2.69253e-08
-2.53585e-08
5.54598e-06
4.85751e-06
-1.62577e-08
4.86091e-06
-5.61916e-08
4.86151e-06
-5.80593e-08
4.85885e-06
-5.64408e-08
4.85485e-06
-5.61744e-08
4.84816e-06
-5.19223e-08
4.83892e-06
-4.5756e-08
4.82769e-06
-3.99079e-08
4.81509e-06
-3.49316e-08
4.80173e-06
-3.075e-08
4.78806e-06
-2.72271e-08
4.77437e-06
-2.42597e-08
4.76087e-06
-2.17571e-08
4.74769e-06
-1.96401e-08
4.73491e-06
-1.78457e-08
4.72262e-06
-1.6364e-08
4.71092e-06
-1.52216e-08
-1.49115e-08
4.70047e-06
4.18642e-06
4.13023e-06
4.07217e-06
4.01573e-06
3.95955e-06
3.90763e-06
3.86187e-06
3.82197e-06
3.78703e-06
3.75628e-06
3.72906e-06
3.7048e-06
3.68304e-06
3.6634e-06
3.64556e-06
3.62919e-06
3.61397e-06
3.59906e-06
1.16076e-08
-1.16076e-08
2.58189e-08
-1.42113e-08
3.72771e-08
-1.14582e-08
4.40419e-08
-6.76478e-09
4.52994e-08
-1.25749e-09
4.10589e-08
4.24047e-09
3.18972e-08
9.16173e-09
1.86459e-08
1.32513e-08
2.21857e-09
1.64273e-08
-1.6576e-08
1.87945e-08
-3.7136e-08
2.05601e-08
-5.90668e-08
2.19308e-08
-8.214e-08
2.30731e-08
-1.06238e-07
2.40985e-08
-1.31305e-07
2.5067e-08
-1.57308e-07
2.60026e-08
-1.84216e-07
2.69081e-08
-2.11993e-07
2.77769e-08
-2.40591e-07
2.85978e-08
-2.69945e-07
2.93537e-08
-2.99972e-07
3.00272e-08
-3.30614e-07
3.06416e-08
-3.61984e-07
3.13708e-08
-3.94496e-07
3.25121e-08
-4.27979e-07
3.34821e-08
-4.61063e-07
3.30849e-08
-4.9466e-07
3.35969e-08
-5.28974e-07
3.43133e-08
-5.63559e-07
3.45854e-08
-6.01349e-07
3.77897e-08
-6.40203e-07
3.88545e-08
-6.76496e-07
3.62928e-08
-7.1616e-07
3.96638e-08
-7.58197e-07
4.20373e-08
-8.00251e-07
4.20539e-08
-8.43847e-07
4.3596e-08
-8.83261e-07
3.94144e-08
-9.20257e-07
3.69958e-08
-9.59406e-07
3.91487e-08
-9.99379e-07
3.99725e-08
-1.03981e-06
4.04343e-08
-1.08047e-06
4.06534e-08
-1.1212e-06
4.07318e-08
-1.16193e-06
4.07308e-08
-1.20262e-06
4.06863e-08
-1.24323e-06
4.06192e-08
-1.28378e-06
4.05411e-08
-1.32423e-06
4.04576e-08
-1.3646e-06
4.03711e-08
-1.40489e-06
4.02817e-08
-1.44507e-06
4.01879e-08
-1.48516e-06
4.00877e-08
-1.52514e-06
3.99783e-08
-1.565e-06
3.98569e-08
-1.60472e-06
3.97204e-08
-1.64428e-06
3.95657e-08
-1.68367e-06
3.939e-08
-1.72286e-06
3.91904e-08
-1.76183e-06
3.89644e-08
-1.80054e-06
3.87095e-08
-1.83896e-06
3.84235e-08
-1.87706e-06
3.81045e-08
-1.91482e-06
3.77507e-08
-1.95218e-06
3.73605e-08
-1.98911e-06
3.69327e-08
-2.02557e-06
3.6466e-08
-2.06153e-06
3.59596e-08
-2.09695e-06
3.54128e-08
-2.13177e-06
3.4825e-08
-2.16597e-06
3.41959e-08
-2.19949e-06
3.35252e-08
-2.23231e-06
3.2813e-08
-2.26437e-06
3.20592e-08
-2.29563e-06
3.12641e-08
-2.32606e-06
3.04281e-08
-2.35561e-06
2.95515e-08
-2.38424e-06
2.86348e-08
-2.41192e-06
2.76786e-08
-2.43861e-06
2.66833e-08
-2.46426e-06
2.56498e-08
-2.48883e-06
2.45785e-08
-2.5123e-06
2.34699e-08
-2.53463e-06
2.23246e-08
-2.55577e-06
2.11429e-08
-2.5757e-06
1.99249e-08
-2.59437e-06
1.86704e-08
-2.61175e-06
1.7379e-08
-2.6278e-06
1.60497e-08
-2.64248e-06
1.46809e-08
-2.65575e-06
1.32701e-08
-2.66756e-06
1.18139e-08
-2.67787e-06
1.03067e-08
-2.68661e-06
8.74057e-09
-2.69371e-06
7.10496e-09
-2.6991e-06
5.38361e-09
-2.70266e-06
3.56806e-09
-2.70434e-06
1.67484e-09
-2.70401e-06
-3.30484e-10
-2.70206e-06
-1.9497e-09
-2.69854e-06
-3.52044e-09
-2.69348e-06
-5.06119e-09
-2.68688e-06
-6.59624e-09
-2.67874e-06
-8.1382e-09
-2.66905e-06
-9.68954e-09
-2.6578e-06
-1.12498e-08
-2.64499e-06
-1.28177e-08
-2.63059e-06
-1.4391e-08
-2.61463e-06
-1.59679e-08
-2.59708e-06
-1.75462e-08
-2.57796e-06
-1.91236e-08
-2.55726e-06
-2.06981e-08
-2.53499e-06
-2.22675e-08
-2.51116e-06
-2.38296e-08
-2.48578e-06
-2.53821e-08
-2.45886e-06
-2.69231e-08
-2.43041e-06
-2.84502e-08
-2.40045e-06
-2.99612e-08
-2.36899e-06
-3.14541e-08
-2.33606e-06
-3.29266e-08
-2.30169e-06
-3.43768e-08
-2.26589e-06
-3.58024e-08
-2.22868e-06
-3.72016e-08
-2.19011e-06
-3.85724e-08
-2.1502e-06
-3.99128e-08
-2.10898e-06
-4.1221e-08
-2.06648e-06
-4.24951e-08
-2.02275e-06
-4.37334e-08
-1.97782e-06
-4.49338e-08
-1.93172e-06
-4.6095e-08
-1.88451e-06
-4.72153e-08
-1.83621e-06
-4.82933e-08
-1.78688e-06
-4.93277e-08
-1.73657e-06
-5.03172e-08
-1.68531e-06
-5.12605e-08
-1.63315e-06
-5.21565e-08
-1.58015e-06
-5.30043e-08
-1.52634e-06
-5.38031e-08
-1.47179e-06
-5.45523e-08
-1.41654e-06
-5.52513e-08
-1.36064e-06
-5.58997e-08
-1.30414e-06
-5.6497e-08
-1.2471e-06
-5.70432e-08
-1.18956e-06
-5.75384e-08
-1.13158e-06
-5.79829e-08
-1.0732e-06
-5.83768e-08
-1.01448e-06
-5.87207e-08
-9.55465e-07
-5.90154e-08
-8.96203e-07
-5.92617e-08
-8.36743e-07
-5.94605e-08
-7.7713e-07
-5.96131e-08
-7.17409e-07
-5.97208e-08
-6.57624e-07
-5.9785e-08
-5.97817e-07
-5.98072e-08
-5.38028e-07
-5.9789e-08
-4.78296e-07
-5.9732e-08
-4.18658e-07
-5.96375e-08
-3.59152e-07
-5.95064e-08
-2.99812e-07
-5.93394e-08
-2.40676e-07
-5.91359e-08
-1.81786e-07
-5.88903e-08
-1.23178e-07
-5.86084e-08
-6.48894e-08
-5.82882e-08
-6.97265e-09
-5.79168e-08
5.05317e-08
-5.75043e-08
1.076e-07
-5.70681e-08
1.64239e-07
-5.66391e-08
2.20477e-07
-5.62378e-08
2.76333e-07
-5.58567e-08
3.31818e-07
-5.54849e-08
3.86929e-07
-5.51108e-08
4.41649e-07
-5.47198e-08
4.95938e-07
-5.42892e-08
5.49719e-07
-5.37809e-08
6.02846e-07
-5.31267e-08
6.55037e-07
-5.21912e-08
7.05736e-07
-5.06995e-08
7.5366e-07
-4.79241e-08
7.95804e-07
-4.21438e-08
8.23695e-07
-2.78913e-08
1.52366e-08
8.08459e-07
1.17435e-08
-2.33511e-08
1.80066e-08
-2.04745e-08
1.86462e-08
-1.20978e-08
1.50724e-08
-3.19093e-09
8.16814e-09
5.64672e-09
-1.66265e-09
1.40713e-08
-1.43002e-08
2.17993e-08
-2.96572e-08
2.86082e-08
-4.76289e-08
3.4399e-08
-6.80411e-08
3.92068e-08
-9.0661e-08
4.318e-08
-1.15247e-07
4.65167e-08
-1.41583e-07
4.94088e-08
-1.69494e-07
5.20104e-08
-1.98856e-07
5.44287e-08
-2.29582e-07
5.67288e-08
-2.61619e-07
5.8945e-08
-2.94935e-07
6.10924e-08
-3.2951e-07
6.31737e-08
-3.6534e-07
6.5183e-08
-4.02426e-07
6.7114e-08
-4.40774e-07
6.89888e-08
-4.803e-07
7.08968e-08
-5.20702e-07
7.2914e-08
-5.62005e-07
7.47851e-08
-6.05052e-07
7.61322e-08
-6.48854e-07
7.73994e-08
-6.93262e-07
7.87205e-08
-7.3861e-07
7.99334e-08
-7.82333e-07
8.15131e-08
-8.26064e-07
8.25849e-08
-8.72393e-07
8.26226e-08
-9.15958e-07
8.32284e-08
-9.57863e-07
8.39423e-08
-9.99719e-07
8.39103e-08
-1.03968e-06
8.35574e-08
-1.08229e-06
8.20224e-08
-1.12594e-06
8.06437e-08
-1.16709e-06
8.03006e-08
-1.20714e-06
8.00266e-08
-1.24644e-06
7.97356e-08
-1.28522e-06
7.94273e-08
-1.32359e-06
7.91048e-08
-1.36164e-06
7.8776e-08
-1.3994e-06
7.84465e-08
-1.4369e-06
7.81198e-08
-1.47415e-06
7.77967e-08
-1.51117e-06
7.74756e-08
-1.54795e-06
7.71536e-08
-1.5845e-06
7.68264e-08
-1.6208e-06
7.64889e-08
-1.65685e-06
7.61359e-08
-1.69263e-06
7.57618e-08
-1.72813e-06
7.53609e-08
-1.76334e-06
7.49279e-08
-1.79823e-06
7.44577e-08
-1.83279e-06
7.39452e-08
-1.86698e-06
7.33859e-08
-1.9008e-06
7.27756e-08
-1.9342e-06
7.21105e-08
-1.96716e-06
7.13872e-08
-1.99966e-06
7.06025e-08
-2.03166e-06
6.97539e-08
-2.06314e-06
6.88389e-08
-2.09406e-06
6.78557e-08
-2.1244e-06
6.68027e-08
-2.15412e-06
6.56784e-08
-2.18319e-06
6.44821e-08
-2.21158e-06
6.32128e-08
-2.23925e-06
6.18703e-08
-2.26618e-06
6.04543e-08
-2.29233e-06
5.89649e-08
-2.31767e-06
5.74023e-08
-2.34218e-06
5.5767e-08
-2.36581e-06
5.40596e-08
-2.38854e-06
5.22808e-08
-2.41033e-06
5.04316e-08
-2.43117e-06
4.85127e-08
-2.45101e-06
4.65254e-08
-2.46983e-06
4.44705e-08
-2.4876e-06
4.23492e-08
-2.5043e-06
4.01624e-08
-2.51988e-06
3.79111e-08
-2.53433e-06
3.5596e-08
-2.54763e-06
3.32178e-08
-2.55973e-06
3.07768e-08
-2.57063e-06
2.82733e-08
-2.58029e-06
2.5707e-08
-2.58868e-06
2.30778e-08
-2.5958e-06
2.03848e-08
-2.60161e-06
1.76277e-08
-2.60611e-06
1.4806e-08
-2.60929e-06
1.19202e-08
-2.61116e-06
8.97353e-09
-2.61175e-06
5.97327e-09
-2.61111e-06
2.93343e-09
-2.6094e-06
-4.2042e-11
-2.60661e-06
-3.11933e-09
-2.60249e-06
-6.06386e-09
-2.59697e-06
-9.04281e-09
-2.58998e-06
-1.20512e-08
-2.58149e-06
-1.50848e-08
-2.57149e-06
-1.81428e-08
-2.55995e-06
-2.1223e-08
-2.54688e-06
-2.43221e-08
-2.53226e-06
-2.74363e-08
-2.51609e-06
-3.05615e-08
-2.49837e-06
-3.36935e-08
-2.47909e-06
-3.6828e-08
-2.45825e-06
-3.99607e-08
-2.43586e-06
-4.30874e-08
-2.41192e-06
-4.62036e-08
-2.38645e-06
-4.93051e-08
-2.35944e-06
-5.23877e-08
-2.33092e-06
-5.54469e-08
-2.30089e-06
-5.84784e-08
-2.26937e-06
-6.1478e-08
-2.23639e-06
-6.44413e-08
-2.20195e-06
-6.7364e-08
-2.16608e-06
-7.0242e-08
-2.12881e-06
-7.30712e-08
-2.09017e-06
-7.58477e-08
-2.05017e-06
-7.85675e-08
-2.00886e-06
-8.12269e-08
-1.96626e-06
-8.38221e-08
-1.9224e-06
-8.63494e-08
-1.87733e-06
-8.88051e-08
-1.83108e-06
-9.11858e-08
-1.78369e-06
-9.34882e-08
-1.73519e-06
-9.57091e-08
-1.68564e-06
-9.78458e-08
-1.63507e-06
-9.98955e-08
-1.58353e-06
-1.01856e-07
-1.53107e-06
-1.03724e-07
-1.47773e-06
-1.05499e-07
-1.42356e-06
-1.07177e-07
-1.3686e-06
-1.08758e-07
-1.31291e-06
-1.10239e-07
-1.25654e-06
-1.11621e-07
-1.19954e-06
-1.12902e-07
-1.14196e-06
-1.14082e-07
-1.08384e-06
-1.1516e-07
-1.02524e-06
-1.16136e-07
-9.66214e-07
-1.17011e-07
-9.06806e-07
-1.17785e-07
-8.47066e-07
-1.1846e-07
-7.87044e-07
-1.19037e-07
-7.26788e-07
-1.19518e-07
-6.66345e-07
-1.19904e-07
-6.0576e-07
-1.20198e-07
-5.45079e-07
-1.20402e-07
-4.84343e-07
-1.20521e-07
-4.23595e-07
-1.20555e-07
-3.62875e-07
-1.20509e-07
-3.0222e-07
-1.20387e-07
-2.41668e-07
-1.2019e-07
-1.81253e-07
-1.19921e-07
-1.21011e-07
-1.19581e-07
-6.09748e-08
-1.19173e-07
-1.17548e-09
-1.1869e-07
5.83516e-08
-1.18135e-07
1.17574e-07
-1.17511e-07
1.76475e-07
-1.16818e-07
2.35044e-07
-1.16073e-07
2.93277e-07
-1.15301e-07
3.51172e-07
-1.14534e-07
4.08725e-07
-1.13791e-07
4.65936e-07
-1.13068e-07
5.22804e-07
-1.12352e-07
5.79318e-07
-1.11625e-07
6.35457e-07
-1.10859e-07
6.91176e-07
-1.10008e-07
7.46391e-07
-1.08996e-07
8.0095e-07
-1.07686e-07
8.54575e-07
-1.05816e-07
9.06752e-07
-1.02877e-07
9.56476e-07
-9.76476e-08
1.00205e-06
-8.77191e-08
1.04019e-06
-6.60294e-08
-1.54254e-08
1.07085e-06
4.09548e-09
-2.74465e-08
1.04015e-09
-1.74191e-08
-5.88075e-09
-5.17689e-09
-1.54859e-08
6.41424e-09
-2.72408e-08
1.74016e-08
-4.09137e-08
2.77442e-08
-5.64477e-08
3.73333e-08
-7.38903e-08
4.60508e-08
-9.3316e-08
5.38247e-08
-1.14771e-07
6.06619e-08
-1.3824e-07
6.66484e-08
-1.63646e-07
7.19226e-08
-1.90876e-07
7.66392e-08
-2.19806e-07
8.09403e-08
-2.50316e-07
8.49387e-08
-2.82301e-07
8.8714e-08
-3.15672e-07
9.23154e-08
-3.50348e-07
9.57683e-08
-3.86253e-07
9.90795e-08
-4.23312e-07
1.02242e-07
-4.61442e-07
1.05244e-07
-5.00533e-07
1.08079e-07
-5.40391e-07
1.10755e-07
-5.80727e-07
1.1325e-07
-6.21396e-07
1.15454e-07
-6.62509e-07
1.17246e-07
-7.03775e-07
1.18666e-07
-7.44884e-07
1.1983e-07
-7.85678e-07
1.20727e-07
-8.25563e-07
1.21398e-07
-8.64715e-07
1.21737e-07
-9.03789e-07
1.21696e-07
-9.4202e-07
1.2146e-07
-9.79148e-07
1.2107e-07
-1.01563e-06
1.20393e-07
-1.05149e-06
1.19416e-07
-1.08767e-06
1.182e-07
-1.12405e-06
1.17026e-07
-1.15982e-06
1.16071e-07
-1.19505e-06
1.15254e-07
-1.22984e-06
1.14529e-07
-1.26429e-06
1.13871e-07
-1.29844e-06
1.13261e-07
-1.33235e-06
1.12689e-07
-1.36605e-06
1.12146e-07
-1.39956e-06
1.11624e-07
-1.43288e-06
1.11117e-07
-1.46602e-06
1.10616e-07
-1.49898e-06
1.10115e-07
-1.53176e-06
1.09605e-07
-1.56435e-06
1.09078e-07
-1.59674e-06
1.08525e-07
-1.62891e-06
1.0794e-07
-1.66087e-06
1.07313e-07
-1.69258e-06
1.06639e-07
-1.72403e-06
1.05908e-07
-1.7552e-06
1.05116e-07
-1.78607e-06
1.04256e-07
-1.81662e-06
1.03322e-07
-1.84681e-06
1.02309e-07
-1.87664e-06
1.01212e-07
-1.90606e-06
1.00028e-07
-1.93506e-06
9.87522e-08
-1.96361e-06
9.73823e-08
-1.99166e-06
9.59153e-08
-2.01921e-06
9.43488e-08
-2.04621e-06
9.26812e-08
-2.07264e-06
9.09109e-08
-2.09847e-06
8.9037e-08
-2.12366e-06
8.70588e-08
-2.14818e-06
8.4976e-08
-2.172e-06
8.27885e-08
-2.19509e-06
8.04965e-08
-2.21743e-06
7.81007e-08
-2.23897e-06
7.56018e-08
-2.25969e-06
7.30007e-08
-2.27956e-06
7.02987e-08
-2.29854e-06
6.74969e-08
-2.31661e-06
6.45968e-08
-2.33374e-06
6.15999e-08
-2.3499e-06
5.85079e-08
-2.36506e-06
5.53221e-08
-2.37919e-06
5.20443e-08
-2.39227e-06
4.86759e-08
-2.40427e-06
4.52183e-08
-2.41517e-06
4.16729e-08
-2.42494e-06
3.80411e-08
-2.43356e-06
3.43242e-08
-2.441e-06
3.05234e-08
-2.44726e-06
2.66405e-08
-2.45231e-06
2.26779e-08
-2.45614e-06
1.8639e-08
-2.45875e-06
1.45288e-08
-2.46013e-06
1.0355e-08
-2.46029e-06
6.12824e-09
-2.45922e-06
1.86482e-09
-2.45685e-06
-2.40776e-09
-2.45325e-06
-6.72473e-09
-2.44825e-06
-1.10629e-08
-2.44184e-06
-1.54517e-08
-2.434e-06
-1.98913e-08
-2.4247e-06
-2.43773e-08
-2.41394e-06
-2.8904e-08
-2.4017e-06
-3.34656e-08
-2.38797e-06
-3.80563e-08
-2.37273e-06
-4.26697e-08
-2.356e-06
-4.72997e-08
-2.33775e-06
-5.19399e-08
-2.31799e-06
-5.65839e-08
-2.29673e-06
-6.12252e-08
-2.27396e-06
-6.58577e-08
-2.24969e-06
-7.04747e-08
-2.22392e-06
-7.50701e-08
-2.19667e-06
-7.96373e-08
-2.16795e-06
-8.41701e-08
-2.13777e-06
-8.86619e-08
-2.10614e-06
-9.31064e-08
-2.07308e-06
-9.74972e-08
-2.03862e-06
-1.01828e-07
-2.00277e-06
-1.06092e-07
-1.96555e-06
-1.10285e-07
-1.927e-06
-1.14398e-07
-1.88714e-06
-1.18428e-07
-1.846e-06
-1.22369e-07
-1.80361e-06
-1.26214e-07
-1.76e-06
-1.29958e-07
-1.71521e-06
-1.33596e-07
-1.66927e-06
-1.37123e-07
-1.62223e-06
-1.40534e-07
-1.57411e-06
-1.43824e-07
-1.52497e-06
-1.46989e-07
-1.47484e-06
-1.50025e-07
-1.42377e-06
-1.52928e-07
-1.3718e-06
-1.55695e-07
-1.31897e-06
-1.58322e-07
-1.26534e-06
-1.60806e-07
-1.21095e-06
-1.63146e-07
-1.15586e-06
-1.65339e-07
-1.10009e-06
-1.67383e-07
-1.04372e-06
-1.69278e-07
-9.86778e-07
-1.71022e-07
-9.29323e-07
-1.72615e-07
-8.71402e-07
-1.74057e-07
-8.13064e-07
-1.75349e-07
-7.54357e-07
-1.76492e-07
-6.95331e-07
-1.77487e-07
-6.36032e-07
-1.78336e-07
-5.76508e-07
-1.79042e-07
-5.16803e-07
-1.79608e-07
-4.56963e-07
-1.80038e-07
-3.97031e-07
-1.80335e-07
-3.37049e-07
-1.80503e-07
-2.77056e-07
-1.80548e-07
-2.17092e-07
-1.80473e-07
-1.57194e-07
-1.80285e-07
-9.73971e-08
-1.79987e-07
-3.77342e-08
-1.79584e-07
2.17624e-08
-1.79078e-07
8.10608e-08
-1.78471e-07
1.40134e-07
-1.77763e-07
1.98955e-07
-1.76957e-07
2.57506e-07
-1.76061e-07
3.15781e-07
-1.75093e-07
3.73784e-07
-1.74077e-07
4.31515e-07
-1.73032e-07
4.88958e-07
-1.71977e-07
5.46097e-07
-1.7093e-07
6.02922e-07
-1.69893e-07
6.59425e-07
-1.68855e-07
7.15591e-07
-1.67792e-07
7.71397e-07
-1.66664e-07
8.26795e-07
-1.65406e-07
8.81705e-07
-1.63906e-07
9.35985e-07
-1.61966e-07
9.89392e-07
-1.59223e-07
1.04151e-06
-1.54995e-07
1.09169e-06
-1.47829e-07
1.139e-06
-1.35029e-07
1.18303e-06
-1.10063e-07
-6.05155e-08
1.22812e-06
-5.26507e-09
-2.21815e-08
-1.54977e-08
-7.18648e-09
-2.78718e-08
7.19715e-09
-4.17878e-08
2.03302e-08
-5.70449e-08
3.26588e-08
-7.35922e-08
4.42915e-08
-9.14661e-08
5.52072e-08
-1.10758e-07
6.5343e-08
-1.31581e-07
7.46475e-08
-1.5403e-07
8.31111e-08
-1.78157e-07
9.0775e-08
-2.03957e-07
9.77224e-08
-2.31376e-07
1.04058e-07
-2.60325e-07
1.09889e-07
-2.90692e-07
1.15306e-07
-3.22356e-07
1.20378e-07
-3.55188e-07
1.25147e-07
-3.89054e-07
1.29634e-07
-4.23814e-07
1.3384e-07
-4.59322e-07
1.37749e-07
-4.95418e-07
1.41341e-07
-5.3193e-07
1.44591e-07
-5.68653e-07
1.47479e-07
-6.05377e-07
1.49973e-07
-6.41948e-07
1.52025e-07
-6.78305e-07
1.53603e-07
-7.14367e-07
1.54728e-07
-7.49994e-07
1.55456e-07
-7.85093e-07
1.55826e-07
-8.19578e-07
1.55883e-07
-8.53483e-07
1.55641e-07
-8.8691e-07
1.55123e-07
-9.19853e-07
1.54403e-07
-9.52297e-07
1.53515e-07
-9.84365e-07
1.52461e-07
-1.01621e-06
1.51259e-07
-1.04798e-06
1.49975e-07
-1.07969e-06
1.4873e-07
-1.11121e-06
1.47597e-07
-1.14253e-06
1.46575e-07
-1.17366e-06
1.45653e-07
-1.2046e-06
1.44814e-07
-1.23538e-06
1.44043e-07
-1.26602e-06
1.43325e-07
-1.29652e-06
1.4265e-07
-1.3269e-06
1.42004e-07
-1.35716e-06
1.41376e-07
-1.3873e-06
1.40756e-07
-1.41732e-06
1.40132e-07
-1.44721e-06
1.39492e-07
-1.47696e-06
1.38827e-07
-1.50656e-06
1.38126e-07
-1.536e-06
1.37379e-07
-1.56526e-06
1.36576e-07
-1.59433e-06
1.35708e-07
-1.62318e-06
1.34765e-07
-1.65181e-06
1.33741e-07
-1.68018e-06
1.32627e-07
-1.70827e-06
1.31417e-07
-1.73607e-06
1.30104e-07
-1.76354e-06
1.28681e-07
-1.79066e-06
1.27146e-07
-1.8174e-06
1.25491e-07
-1.84373e-06
1.23715e-07
-1.86963e-06
1.21812e-07
-1.89506e-06
1.19781e-07
-1.91999e-06
1.17619e-07
-1.94441e-06
1.15323e-07
-1.96826e-06
1.12894e-07
-1.99154e-06
1.10329e-07
-2.01419e-06
1.07629e-07
-2.03619e-06
1.04793e-07
-2.05752e-06
1.01821e-07
-2.07813e-06
9.8715e-08
-2.098e-06
9.54745e-08
-2.11711e-06
9.21012e-08
-2.1354e-06
8.85967e-08
-2.15287e-06
8.49625e-08
-2.16947e-06
8.12005e-08
-2.18519e-06
7.73127e-08
-2.19998e-06
7.33013e-08
-2.21382e-06
6.91683e-08
-2.2267e-06
6.49162e-08
-2.23857e-06
6.05473e-08
-2.24941e-06
5.60636e-08
-2.25921e-06
5.14678e-08
-2.26793e-06
4.67621e-08
-2.27555e-06
4.19491e-08
-2.28206e-06
3.70314e-08
-2.28743e-06
3.20123e-08
-2.29165e-06
2.68955e-08
-2.2947e-06
2.1686e-08
-2.29656e-06
1.63897e-08
-2.29722e-06
1.10139e-08
-2.29666e-06
5.56799e-09
-2.29485e-06
5.73634e-11
-2.29176e-06
-5.50164e-09
-2.28736e-06
-1.11253e-08
-2.28161e-06
-1.68131e-08
-2.27448e-06
-2.2573e-08
-2.26597e-06
-2.84014e-08
-2.25606e-06
-3.42923e-08
-2.24473e-06
-4.02382e-08
-2.23196e-06
-4.62307e-08
-2.21775e-06
-5.22619e-08
-2.2021e-06
-5.83234e-08
-2.18499e-06
-6.44068e-08
-2.16643e-06
-7.05037e-08
-2.14641e-06
-7.66057e-08
-2.12493e-06
-8.27044e-08
-2.102e-06
-8.87915e-08
-2.07761e-06
-9.48584e-08
-2.05178e-06
-1.00897e-07
-2.02452e-06
-1.06899e-07
-1.99584e-06
-1.12855e-07
-1.96574e-06
-1.18758e-07
-1.93425e-06
-1.24599e-07
-1.90138e-06
-1.30369e-07