/*--------------------------------*- C++ -*----------------------------------*\
  =========                 |
  \\      /  F ield         | OpenFOAM: The Open Source CFD Toolbox
   \\    /   O peration     | Website:  https://openfoam.org
    \\  /    A nd           | Version:  9
     \\/     M anipulation  |
\*---------------------------------------------------------------------------*/
FoamFile
{
    format      ascii;
    class       volVectorField;
    location    "0.12";
    object      U;
}
// * * * * * * * * * * * * * * * * * * * * * * * * * * * * * * * * * * * * * //

dimensions      [0 1 -1 0 0 0 0];

internalField   nonuniform List<vector> 
12225
(
(9.86107 -0.874317 0)
(9.67245 -0.700188 0)
(9.4589 -0.387583 0)
(9.22453 -0.188465 0)
(9.00327 -0.0843786 0)
(8.81008 -0.0328565 0)
(8.64466 -0.00752537 0)
(8.50351 0.00505741 0)
(8.38314 0.0113783 0)
(8.28002 0.0145262 0)
(8.19076 0.0160374 0)
(8.11247 0.0167297 0)
(8.04271 0.0170498 0)
(7.97963 0.0173005 0)
(7.92016 0.0176781 0)
(7.86531 0.0190225 0)
(7.79292 0.0221092 0)
(7.76624 0.0328389 0)
(10.0547 0.263072 0)
(10.1201 0.360748 0)
(10.118 0.273833 0)
(10.0826 0.187108 0)
(10.0405 0.131189 0)
(9.99377 0.096962 0)
(9.9399 0.0756031 0)
(9.88008 0.0618089 0)
(9.8174 0.0524199 0)
(9.75434 0.0456246 0)
(9.69233 0.0404825 0)
(9.63219 0.0365374 0)
(9.57427 0.0335401 0)
(9.51897 0.0314907 0)
(9.46541 0.0302389 0)
(9.41627 0.0317046 0)
(9.36389 0.0332606 0)
(9.33965 0.0557181 0)
(9.99919 0.0460901 0)
(10.0244 0.0342204 0)
(10.0538 0.0149686 0)
(10.0707 0.0218402 0)
(10.0777 0.0367127 0)
(10.0781 0.0460613 0)
(10.072 0.0500168 0)
(10.0599 0.0512265 0)
(10.0435 0.0511569 0)
(10.024 0.0504715 0)
(10.0023 0.0495448 0)
(9.97907 0.0486285 0)
(9.95468 0.047881 0)
(9.92958 0.0475589 0)
(9.90368 0.0477512 0)
(9.8781 0.0499325 0)
(9.8519 0.053227 0)
(9.83187 0.0660948 0)
(9.9968 0.00643215 0)
(10.0085 0.0250319 0)
(10.0342 0.0389616 0)
(10.0527 0.0503376 0)
(10.0643 0.0571571 0)
(10.0729 0.0592301 0)
(10.0787 0.0589386 0)
(10.0813 0.0580438 0)
(10.0812 0.0570692 0)
(10.0789 0.0560931 0)
(10.0751 0.0551722 0)
(10.0698 0.0544003 0)
(10.0633 0.0538778 0)
(10.0559 0.0538219 0)
(10.0475 0.0543897 0)
(10.039 0.056557 0)
(10.0307 0.059984 0)
(10.0252 0.0675042 0)
(9.99922 0.00674315 0)
(10.0081 0.0335919 0)
(10.0271 0.0460749 0)
(10.0417 0.0508915 0)
(10.0523 0.0539777 0)
(10.062 0.0555869 0)
(10.0706 0.0559586 0)
(10.0771 0.0558056 0)
(10.0818 0.0554761 0)
(10.0852 0.0550645 0)
(10.0874 0.0546499 0)
(10.0886 0.0543444 0)
(10.0889 0.0542687 0)
(10.0885 0.0546182 0)
(10.0876 0.0555675 0)
(10.0866 0.0576701 0)
(10.0862 0.0607419 0)
(10.0879 0.0653671 0)
(10.0002 0.00908146 0)
(10.0078 0.0321476 0)
(10.0225 0.0419506 0)
(10.0349 0.0457229 0)
(10.0447 0.0492038 0)
(10.054 0.0517653 0)
(10.0628 0.0529346 0)
(10.0702 0.0533238 0)
(10.0763 0.0534108 0)
(10.0814 0.0533632 0)
(10.0857 0.0532776 0)
(10.0892 0.0532695 0)
(10.0922 0.0534603 0)
(10.0946 0.0540111 0)
(10.0968 0.055065 0)
(10.099 0.0568993 0)
(10.1019 0.0593531 0)
(10.1064 0.062284 0)
(10.0003 0.00880967 0)
(10.0068 0.0275459 0)
(10.0189 0.0371305 0)
(10.0302 0.0418101 0)
(10.0394 0.0457558 0)
(10.0481 0.0486101 0)
(10.0564 0.0500559 0)
(10.0638 0.0506929 0)
(10.0702 0.0510096 0)
(10.0758 0.0511818 0)
(10.0809 0.0513014 0)
(10.0854 0.0514752 0)
(10.0894 0.0518144 0)
(10.0931 0.0524425 0)
(10.0967 0.0534565 0)
(10.1004 0.0549668 0)
(10.1047 0.0568044 0)
(10.1101 0.0586312 0)
(10.0004 0.00784849 0)
(10.0057 0.0237282 0)
(10.016 0.0334256 0)
(10.0263 0.0386691 0)
(10.035 0.0425932 0)
(10.0431 0.045421 0)
(10.051 0.0470159 0)
(10.0581 0.0478454 0)
(10.0645 0.0483371 0)
(10.0703 0.0486679 0)
(10.0756 0.0489301 0)
(10.0805 0.0492216 0)
(10.085 0.0496388 0)
(10.0894 0.0502709 0)
(10.0936 0.0511711 0)
(10.0981 0.0523547 0)
(10.1029 0.0536498 0)
(10.1086 0.0547222 0)
(10.0004 0.00696438 0)
(10.0049 0.0207468 0)
(10.0136 0.0301009 0)
(10.0229 0.035496 0)
(10.0311 0.0393138 0)
(10.0388 0.0421128 0)
(10.0462 0.0438489 0)
(10.0531 0.0448496 0)
(10.0594 0.0454823 0)
(10.0652 0.0459316 0)
(10.0705 0.0462938 0)
(10.0756 0.046657 0)
(10.0803 0.0471012 0)
(10.085 0.047687 0)
(10.0896 0.0484344 0)
(10.0943 0.0493102 0)
(10.0994 0.0501557 0)
(10.105 0.0507074 0)
(10.0004 0.00617953 0)
(10.0042 0.0181671 0)
(10.0115 0.0268731 0)
(10.0199 0.0322469 0)
(10.0276 0.035993 0)
(10.0348 0.0387659 0)
(10.0419 0.0406002 0)
(10.0485 0.0417318 0)
(10.0547 0.0424728 0)
(10.0604 0.0430093 0)
(10.0657 0.0434391 0)
(10.0708 0.0438396 0)
(10.0757 0.0442747 0)
(10.0805 0.0447837 0)
(10.0852 0.0453653 0)
(10.0901 0.0459678 0)
(10.0951 0.0464571 0)
(10.1005 0.0466487 0)
(10.0003 0.00544467 0)
(10.0036 0.0158503 0)
(10.0098 0.0237966 0)
(10.0172 0.0290312 0)
(10.0244 0.03269 0)
(10.0313 0.0354008 0)
(10.0379 0.0372738 0)
(10.0443 0.0384915 0)
(10.0503 0.0393112 0)
(10.0559 0.0399087 0)
(10.0613 0.0403798 0)
(10.0664 0.0407916 0)
(10.0713 0.0411942 0)
(10.0761 0.0416121 0)
(10.0809 0.0420333 0)
(10.0857 0.0424051 0)
(10.0907 0.0426226 0)
(10.0958 0.0425679 0)
(10.0003 0.00479399 0)
(10.0031 0.0139104 0)
(10.0085 0.0211312 0)
(10.0152 0.0261363 0)
(10.0219 0.0296714 0)
(10.0283 0.0322913 0)
(10.0347 0.0341544 0)
(10.0408 0.035413 0)
(10.0467 0.0362775 0)
(10.0522 0.0369077 0)
(10.0574 0.037395 0)
(10.0625 0.0377981 0)
(10.0674 0.0381568 0)
(10.0722 0.038487 0)
(10.077 0.0387739 0)
(10.0818 0.038972 0)
(10.0866 0.0390025 0)
(10.0914 0.0387959 0)
(10.0003 0.00418923 0)
(10.0027 0.0121483 0)
(10.0074 0.0186253 0)
(10.0134 0.0233103 0)
(10.0196 0.0266788 0)
(10.0257 0.0291836 0)
(10.0318 0.0310022 0)
(10.0376 0.0322688 0)
(10.0433 0.0331542 0)
(10.0487 0.0337981 0)
(10.0539 0.0342852 0)
(10.0589 0.0346676 0)
(10.0638 0.0349771 0)
(10.0686 0.0352247 0)
(10.0733 0.0353966 0)
(10.0779 0.0354572 0)
(10.0826 0.0353498 0)
(10.0872 0.0350401 0)
(10.0003 0.00355915 0)
(10.0024 0.0103154 0)
(10.0064 0.0159417 0)
(10.0117 0.0201756 0)
(10.0174 0.0232897 0)
(10.0231 0.0256207 0)
(10.0288 0.0273429 0)
(10.0344 0.028575 0)
(10.0399 0.0294502 0)
(10.0452 0.0300837 0)
(10.0502 0.0305506 0)
(10.0552 0.0308957 0)
(10.06 0.0311447 0)
(10.0647 0.0313056 0)
(10.0693 0.0313686 0)
(10.0738 0.03131 0)
(10.0783 0.0310934 0)
(10.0827 0.0307116 0)
(10.0002 0.00290206 0)
(10.002 0.00841029 0)
(10.0055 0.0130902 0)
(10.0101 0.0167378 0)
(10.0153 0.0194879 0)
(10.0206 0.0215673 0)
(10.0259 0.0231259 0)
(10.0313 0.0242654 0)
(10.0365 0.0250853 0)
(10.0416 0.0256742 0)
(10.0466 0.0260943 0)
(10.0514 0.0263831 0)
(10.0561 0.0265611 0)
(10.0607 0.0266357 0)
(10.0651 0.0266023 0)
(10.0695 0.0264489 0)
(10.0737 0.0261559 0)
(10.0779 0.0257341 0)
(10.0002 0.00221808 0)
(10.0017 0.00643322 0)
(10.0047 0.0100747 0)
(10.0087 0.012997 0)
(10.0134 0.0152542 0)
(10.0183 0.0169829 0)
(10.0233 0.0182941 0)
(10.0283 0.019267 0)
(10.0333 0.0199719 0)
(10.0382 0.0204715 0)
(10.043 0.0208122 0)
(10.0477 0.0210235 0)
(10.0523 0.0211218 0)
(10.0567 0.0211145 0)
(10.061 0.0210019 0)
(10.0652 0.020781 0)
(10.0692 0.020444 0)
(10.0732 0.0200115 0)
(10.0002 0.00150377 0)
(10.0015 0.00436667 0)
(10.0041 0.00687145 0)
(10.0077 0.00892721 0)
(10.0118 0.0105497 0)
(10.0164 0.0118094 0)
(10.021 0.0127738 0)
(10.0258 0.013494 0)
(10.0306 0.0140137 0)
(10.0353 0.0143712 0)
(10.0399 0.0145964 0)
(10.0444 0.0147089 0)
(10.0488 0.0147208 0)
(10.0531 0.0146385 0)
(10.0572 0.0144651 0)
(10.0612 0.0142028 0)
(10.0651 0.0138502 0)
(10.0688 0.0134312 0)
(10.0001 0.000741067 0)
(10.0013 0.00215345 0)
(10.0037 0.00339896 0)
(10.0069 0.00443758 0)
(10.0108 0.00527265 0)
(10.015 0.0059295 0)
(10.0195 0.00643358 0)
(10.024 0.00680522 0)
(10.0286 0.00706221 0)
(10.0331 0.0072202 0)
(10.0375 0.00729129 0)
(10.0419 0.00728372 0)
(10.0461 0.0072028 0)
(10.0502 0.0070521 0)
(10.0542 0.00683426 0)
(10.058 0.00655239 0)
(10.0617 0.00620728 0)
(10.0652 0.00582115 0)
(10.0001 -0.000117287 0)
(10.0013 -0.000340224 0)
(10.0035 -0.000534712 0)
(10.0067 -0.00068714 0)
(10.0104 -0.000794184 0)
(10.0146 -0.000869161 0)
(10.0189 -0.000931 0)
(10.0233 -0.000993459 0)
(10.0278 -0.00106532 0)
(10.0322 -0.00115405 0)
(10.0365 -0.00126663 0)
(10.0407 -0.00140863 0)
(10.0449 -0.00158396 0)
(10.0488 -0.0017951 0)
(10.0526 -0.00204328 0)
(10.0563 -0.00232807 0)
(10.0598 -0.00265009 0)
(10.0632 -0.0029926 0)
(10.0001 -0.000943666 0)
(10.0014 -0.00274785 0)
(10.0038 -0.0043391 0)
(10.0071 -0.00563452 0)
(10.0111 -0.00662722 0)
(10.0154 -0.00737837 0)
(10.0198 -0.00795473 0)
(10.0243 -0.00840155 0)
(10.0288 -0.00875349 0)
(10.0333 -0.00904283 0)
(10.0376 -0.00929647 0)
(10.0418 -0.00953347 0)
(10.0459 -0.00976679 0)
(10.0498 -0.0100056 0)
(10.0536 -0.0102562 0)
(10.0571 -0.0105222 0)
(10.0606 -0.0108065 0)
(10.0639 -0.0110983 0)
(10.0002 -0.00166016 0)
(10.0015 -0.00485891 0)
(10.0042 -0.00767495 0)
(10.008 -0.00990428 0)
(10.0123 -0.0115619 0)
(10.0169 -0.0128042 0)
(10.0216 -0.0137488 0)
(10.0263 -0.0144552 0)
(10.0309 -0.0149777 0)
(10.0355 -0.0153753 0)
(10.0399 -0.0156955 0)
(10.0441 -0.0159689 0)
(10.0482 -0.0162154 0)
(10.0521 -0.0164493 0)
(10.0558 -0.0166807 0)
(10.0594 -0.0169158 0)
(10.0628 -0.0171591 0)
(10.066 -0.0174034 0)
(10.0002 -0.00234469 0)
(10.0017 -0.00695536 0)
(10.0049 -0.0110239 0)
(10.0092 -0.0140917 0)
(10.0141 -0.0162525 0)
(10.0191 -0.0178436 0)
(10.0241 -0.0190451 0)
(10.029 -0.0199215 0)
(10.0339 -0.020545 0)
(10.0385 -0.0209983 0)
(10.043 -0.0213431 0)
(10.0473 -0.0216179 0)
(10.0514 -0.0218492 0)
(10.0553 -0.0220564 0)
(10.059 -0.0222531 0)
(10.0626 -0.0224471 0)
(10.066 -0.0226441 0)
(10.0692 -0.0228391 0)
(10.0002 -0.00298275 0)
(10.0018 -0.00907166 0)
(10.0056 -0.014418 0)
(10.0109 -0.0182359 0)
(10.0164 -0.0208281 0)
(10.0218 -0.0226944 0)
(10.0271 -0.0240295 0)
(10.0323 -0.0249392 0)
(10.0374 -0.0255611 0)
(10.0422 -0.026007 0)
(10.0468 -0.0263371 0)
(10.0511 -0.0265868 0)
(10.0553 -0.0267848 0)
(10.0592 -0.0269542 0)
(10.0629 -0.0271101 0)
(10.0665 -0.0272609 0)
(10.0699 -0.0274121 0)
(10.073 -0.0275608 0)
(10.0001 -0.00356109 0)
(10.0019 -0.0115093 0)
(10.0065 -0.0178825 0)
(10.0127 -0.0219883 0)
(10.019 -0.0249495 0)
(10.0249 -0.027227 0)
(10.0306 -0.0287454 0)
(10.0361 -0.0296343 0)
(10.0413 -0.0301704 0)
(10.0463 -0.0305321 0)
(10.0509 -0.0307856 0)
(10.0554 -0.0309629 0)
(10.0595 -0.0310938 0)
(10.0635 -0.0312019 0)
(10.0672 -0.0313011 0)
(10.0707 -0.0313984 0)
(10.0741 -0.0314975 0)
(10.0772 -0.0315944 0)
(9.99997 -0.00368312 0)
(10.0018 -0.0151593 0)
(10.0076 -0.0226153 0)
(10.0148 -0.0259296 0)
(10.0215 -0.0284758 0)
(10.0278 -0.0309205 0)
(10.0341 -0.0326807 0)
(10.0401 -0.0337013 0)
(10.0457 -0.0342834 0)
(10.0508 -0.0346359 0)
(10.0556 -0.0348425 0)
(10.06 -0.0349519 0)
(10.0642 -0.0350067 0)
(10.0681 -0.0350364 0)
(10.0717 -0.0350577 0)
(10.075 -0.0350791 0)
(10.0782 -0.035104 0)
(10.0811 -0.0351303 0)
(9.99898 -0.00130423 0)
(10 -0.0179586 0)
(10.0085 -0.0290427 0)
(10.0174 -0.0326549 0)
(10.0245 -0.0340656 0)
(10.0313 -0.035278 0)
(10.0383 -0.0362106 0)
(10.045 -0.0368384 0)
(10.0509 -0.037274 0)
(10.0562 -0.0375577 0)
(10.0609 -0.0377044 0)
(10.0651 -0.03775 0)
(10.0688 -0.0377359 0)
(10.0722 -0.0376917 0)
(10.0751 -0.0376357 0)
(10.0777 -0.0375794 0)
(10.0801 -0.0375262 0)
(10.0821 -0.0374755 0)
(9.99528 0.00387243 0)
(9.99334 -0.0103015 0)
(10.007 -0.027086 0)
(10.0212 -0.0388998 0)
(10.0311 -0.0448277 0)
(10.0392 -0.0464235 0)
(10.0467 -0.045929 0)
(10.0531 -0.0449609 0)
(10.0582 -0.0440742 0)
(10.0623 -0.0432903 0)
(10.0655 -0.0425657 0)
(10.0678 -0.0418976 0)
(10.0694 -0.0412926 0)
(10.0704 -0.0407503 0)
(10.0709 -0.0402685 0)
(10.0709 -0.0398461 0)
(10.0706 -0.0394738 0)
(10.07 -0.0391247 0)
(9.99144 -0.0172911 0)
(9.99189 0.000372793 0)
(10.01 0.0176778 0)
(10.0296 0.0116064 0)
(10.0442 -0.0050831 0)
(10.0542 -0.0187922 0)
(10.0601 -0.0271322 0)
(10.0624 -0.0320029 0)
(10.0619 -0.0348779 0)
(10.0593 -0.0364767 0)
(10.0552 -0.037247 0)
(10.0498 -0.037514 0)
(10.0435 -0.0374906 0)
(10.0365 -0.0373063 0)
(10.029 -0.0370451 0)
(10.0212 -0.0367681 0)
(10.0131 -0.0365307 0)
(10.005 -0.0363018 0)
(10.0235 -0.206006 0)
(10.0684 -0.312334 0)
(10.0789 -0.255583 0)
(10.0704 -0.184164 0)
(10.0606 -0.134884 0)
(10.0499 -0.102705 0)
(10.0343 -0.0811402 0)
(10.013 -0.0665898 0)
(9.98794 -0.056594 0)
(9.96075 -0.0494343 0)
(9.93258 -0.0440732 0)
(9.90413 -0.0399211 0)
(9.87588 -0.0366198 0)
(9.84819 -0.0339365 0)
(9.82127 -0.0317234 0)
(9.79525 -0.0299168 0)
(9.77038 -0.0284866 0)
(9.74667 -0.0277492 0)
(9.94226 0.671596 0)
(9.87997 0.567458 0)
(9.77447 0.338472 0)
(9.63243 0.183327 0)
(9.48774 0.094915 0)
(9.35666 0.0470938 0)
(9.24114 0.0213113 0)
(9.13969 0.00709219 0)
(9.05081 -0.000964816 0)
(8.97288 -0.0056037 0)
(8.90419 -0.00829062 0)
(8.84318 -0.00985069 0)
(8.78862 -0.0107541 0)
(8.73951 -0.0112698 0)
(8.69504 -0.0115585 0)
(8.65449 -0.0117449 0)
(8.61702 -0.0119228 0)
(8.58224 -0.0124533 0)
(0.0050477 -0.00948675 -3.57431e-20)
(0.0172706 -0.0167805 3.48434e-20)
(0.0286276 -0.0165233 0)
(0.0370083 -0.0119123 0)
(0.0408471 -0.00508479 0)
(0.0395249 0.00229639 -3.17303e-20)
(0.0334215 0.008976 0)
(0.0232855 0.0142746 0)
(0.00989766 0.0180078 0)
(-0.00594666 0.0203771 0)
(-0.0235754 0.0217993 2.86435e-20)
(-0.0425704 0.0226895 0)
(-0.0626755 0.0233488 0)
(-0.0837481 0.0239556 0)
(-0.105721 0.0245882 0)
(-0.128561 0.0252605 2.51323e-20)
(-0.152246 0.0259539 0)
(-0.176747 0.026642 0)
(-0.202031 0.0272988 0)
(-0.228049 0.0278927 0)
(-0.254719 0.0283911 0)
(-0.281983 0.0288696 0)
(-0.30997 0.02985 0)
(-0.338757 0.0321031 2.20597e-20)
(-0.36815 0.0336517 -2.18324e-20)
(-0.398519 0.0312792 2.16195e-20)
(-0.428836 0.0322273 2.14004e-20)
(-0.45912 0.0343009 0)
(-0.490987 0.0360144 0)
(-0.523049 0.0469273 -2.14486e-20)
(-0.556901 0.0477677 -2.28604e-20)
(-0.592703 0.0361704 0)
(-0.626943 0.0474217 0)
(-0.66305 0.0551581 -2.20857e-20)
(-0.703072 0.0539315 0)
(-0.740853 0.0566886 0)
(-0.778802 0.0401228 2.19317e-20)
(-0.814461 0.0285181 0)
(-0.848492 0.0319871 2.14518e-20)
(-0.88501 0.0326702 4.24161e-20)
(-0.92189 0.0330283 0)
(-0.959157 0.0330973 0)
(-0.996585 0.0330126 0)
(-1.03409 0.0328447 0)
(-1.07163 0.0326346 0)
(-1.10916 0.0324051 3.97417e-20)
(-1.14667 0.0321689 3.93391e-20)
(-1.18417 0.0319323 3.89472e-20)
(-1.22164 0.031698 0)
(-1.25908 0.0314663 -3.81931e-20)
(-1.2965 0.031236 0)
(-1.33388 0.0310055 3.74738e-20)
(-1.37123 0.0307724 3.71257e-20)
(-1.40852 0.0305343 0)
(-1.44576 0.0302886 0)
(-1.48292 0.0300331 0)
(-1.51999 0.0297653 3.57971e-20)
(-1.55695 0.0294832 0)
(-1.59377 0.0291849 0)
(-1.63043 0.0288687 0)
(-1.6669 0.0285331 0)
(-1.70316 0.028177 0)
(-1.73917 0.0277992 0)
(-1.7749 0.027399 0)
(-1.81031 0.0269758 0)
(-1.84538 0.0265292 -3.30399e-20)
(-1.88006 0.0260588 0)
(-1.91432 0.0255647 0)
(-1.94812 0.0250469 3.21449e-20)
(-1.98142 0.0245056 3.18449e-20)
(-2.01418 0.0239412 0)
(-2.04636 0.023354 -3.12398e-20)
(-2.07793 0.0227446 3.09336e-20)
(-2.10885 0.0221135 0)
(-2.13907 0.0214615 -3.03114e-20)
(-2.16856 0.0207893 0)
(-2.19728 0.0200975 0)
(-2.22519 0.0193869 2.93469e-20)
(-2.25225 0.0186583 0)
(-2.27843 0.0179123 -2.86776e-20)
(-2.30369 0.0171495 0)
(-2.32799 0.0163704 2.7983e-20)
(-2.35129 0.0155753 2.76251e-20)
(-2.37357 0.0147645 2.72597e-20)
(-2.39478 0.0139376 5.37726e-20)
(-2.41489 0.013094 -5.3009e-20)
(-2.43386 0.0122326 0)
(-2.45165 0.0113516 0)
(-2.46823 0.0104483 0)
(-2.48355 0.00951909 -4.97732e-20)
(-2.49758 0.00855961 -4.89157e-20)
(-2.51025 0.00756509 4.80375e-20)
(-2.52153 0.00653009 0)
(-2.53133 0.00544944 -4.62179e-20)
(-2.5396 0.00432364 -4.52759e-20)
(-2.54626 0.00316936 -4.43127e-20)
(-2.55119 0.00202378 0)
(-2.55427 0.000925375 0)
(-2.55554 -7.20455e-05 0)
(-2.55547 -0.00092947 -4.0213e-20)
(-2.55392 -0.00175366 0)
(-2.55094 -0.00256404 0)
(-2.54651 -0.00336903 3.68598e-20)
(-2.54063 -0.00417028 0)
(-2.53327 -0.00496792 0)
(-2.52442 -0.00576138 3.32657e-20)
(-2.51408 -0.00654984 0)
(-2.50224 -0.00733242 0)
(-2.48889 -0.00810822 -2.94288e-20)
(-2.47402 -0.00887632 -2.80963e-20)
(-2.45762 -0.00963582 0)
(-2.43971 -0.0103858 2.53521e-20)
(-2.42028 -0.0111255 0)
(-2.39933 -0.0118539 -2.25047e-20)
(-2.37686 -0.0125703 0)
(-2.35289 -0.0132738 -1.95575e-20)
(-2.32742 -0.0139635 -1.80477e-20)
(-2.30046 -0.0146388 0)
(-2.27203 -0.0152987 0)
(-2.24214 -0.0159427 0)
(-2.21081 -0.01657 0)
(-2.17806 -0.0171799 0)
(-2.1439 -0.0177718 0)
(-2.10837 -0.018345 0)
(-2.07148 -0.0188991 -5.19916e-21)
(-2.03326 -0.0194333 3.51009e-21)
(-1.99374 -0.0199472 0)
(-1.95295 -0.0204402 0)
(-1.91092 -0.0209119 0)
(-1.86769 -0.0213619 0)
(-1.82328 -0.0217898 -1.02724e-20)
(-1.77775 -0.0221954 0)
(-1.73112 -0.0225782 1.73301e-20)
(-1.68343 -0.0229381 -2.08784e-20)
(-1.63473 -0.0232749 0)
(-1.58505 -0.0235883 0)
(-1.53444 -0.0238784 0)
(-1.48294 -0.0241452 3.51351e-20)
(-1.4306 -0.0243886 3.87006e-20)
(-1.37746 -0.0246086 0)
(-1.32357 -0.0248055 4.58125e-20)
(-1.26897 -0.0249794 4.9353e-20)
(-1.21371 -0.0251305 -5.28793e-20)
(-1.15783 -0.0252593 0)
(-1.10139 -0.025366 0)
(-1.04442 -0.025451 -6.33436e-20)
(-0.986981 -0.025515 0)
(-0.929105 -0.0255585 0)
(-0.870843 -0.025582 0)
(-0.812235 -0.0255862 0)
(-0.753326 -0.0255719 8.02342e-20)
(-0.694157 -0.0255399 8.35058e-20)
(-0.634766 -0.0254908 0)
(-0.575194 -0.0254255 8.9923e-20)
(-0.515476 -0.0253448 0)
(-0.45565 -0.0252493 0)
(-0.395749 -0.0251397 9.92005e-20)
(-0.335808 -0.0250157 0)
(-0.275861 -0.0248769 1.0513e-19)
(-0.215947 -0.0247195 0)
(-0.156101 -0.0245365 0)
(-0.0963588 -0.024325 1.13607e-19)
(-0.0367434 -0.0240769 0)
(0.0226388 -0.0237233 1.18259e-19)
(0.0817574 -0.0232869 0)
(0.140667 -0.0228655 0)
(0.199369 -0.0224711 0)
(0.25788 -0.0220966 -1.21796e-19)
(0.316219 -0.0217351 0)
(0.374392 -0.0213812 1.23078e-19)
(0.432391 -0.0210289 0)
(0.490189 -0.02067 0)
(0.547733 -0.020291 0)
(0.604905 -0.0198685 0)
(0.661518 -0.0193558 0)
(0.717034 -0.0186595 0)
(0.771038 -0.0175208 0)
(0.819156 -0.0152933 -2.5217e-19)
(0.865886 -0.0100592 0)
(0.862124 0.00777876 0)
(0.00667287 -0.0365095 1.05895e-19)
(0.0150475 -0.0380067 -9.98595e-20)
(0.0170813 -0.0266824 0)
(0.0155875 -0.0130777 5.87176e-20)
(0.0109423 0.000880455 0)
(0.00354359 0.0141378 2.73279e-20)
(-0.00643035 0.0259537 -5.31047e-20)
(-0.0189014 0.0358869 -5.16324e-20)
(-0.0337882 0.0438179 0)
(-0.0509476 0.0499123 -4.89387e-20)
(-0.070188 0.0545389 -2.38466e-20)
(-0.0912953 0.0581203 0)
(-0.114065 0.061019 0)
(-0.138327 0.0634965 0)
(-0.163951 0.0657155 0)
(-0.190848 0.0677615 -2.11197e-20)
(-0.218961 0.0696712 0)
(-0.248254 0.0714549 4.0566e-20)
(-0.278709 0.0731075 0)
(-0.310314 0.0746122 0)
(-0.343081 0.0759531 -3.87369e-20)
(-0.377045 0.0771638 0)
(-0.412121 0.0784008 3.79171e-20)
(-0.448009 0.0798676 -1.88602e-20)
(-0.484848 0.0812577 1.87616e-20)
(-0.523184 0.0818168 -1.86566e-20)
(-0.562301 0.0823105 -1.85109e-20)
(-0.602271 0.0828634 0)
(-0.642957 0.0829652 0)
(-0.68298 0.0837042 1.81854e-20)
(-0.723392 0.0853798 -1.81809e-20)
(-0.764377 0.0861576 0)
(-0.804567 0.0858009 0)
(-0.844248 0.0861411 1.77849e-20)
(-0.881757 0.0864418 0)
(-0.919078 0.0867816 0)
(-0.957573 0.0866059 -1.72021e-20)
(-0.996781 0.0865395 0)
(-1.03563 0.0869659 1.67108e-20)
(-1.07293 0.0869259 -3.31953e-20)
(-1.10939 0.0865227 0)
(-1.14533 0.0859183 0)
(-1.18092 0.0851948 -6.40709e-20)
(-1.21624 0.0844092 -6.33967e-20)
(-1.25133 0.0835953 -6.27428e-20)
(-1.28623 0.0827726 3.09754e-20)
(-1.32094 0.0819514 -3.08245e-20)
(-1.35549 0.0811356 -9.14146e-20)
(-1.38988 0.0803252 6.03046e-20)
(-1.4241 0.0795178 2.99469e-20)
(-1.45816 0.0787094 0)
(-1.49204 0.0778954 -2.93951e-20)
(-1.52574 0.0770707 2.8966e-20)
(-1.55924 0.0762301 0)
(-1.59253 0.0753687 0)
(-1.6256 0.0744818 0)
(-1.65842 0.0735652 -2.81031e-20)
(-1.69098 0.072615 0)
(-1.72325 0.0716278 5.50658e-20)
(-1.75521 0.0706008 0)
(-1.78684 0.0695314 5.41063e-20)
(-1.81811 0.0684177 0)
(-1.84899 0.0672581 -5.31609e-20)
(-1.87946 0.0660514 0)
(-1.90949 0.064797 5.22236e-20)
(-1.93905 0.0634943 -2.58051e-20)
(-1.96811 0.0621434 0)
(-1.99664 0.0607445 -5.08189e-20)
(-2.02461 0.0592981 -2.52426e-20)
(-2.05199 0.057805 -2.50042e-20)
(-2.07875 0.0562661 0)
(-2.10486 0.0546828 -2.43949e-20)
(-2.1303 0.0530563 -2.42768e-20)
(-2.15502 0.0513882 0)
(-2.179 0.0496801 2.37779e-20)
(-2.20221 0.0479336 -4.69365e-20)
(-2.22462 0.0461507 0)
(-2.24621 0.0443331 -2.30015e-20)
(-2.26693 0.0424826 0)
(-2.28677 0.0406011 6.72936e-20)
(-2.30569 0.0386902 0)
(-2.32367 0.0367517 -6.56198e-20)
(-2.34067 0.0347871 -2.161e-20)
(-2.35667 0.0327978 2.1247e-20)
(-2.37165 0.0307848 4.19017e-20)
(-2.38557 0.0287491 -4.12961e-20)
(-2.39842 0.0266912 0)
(-2.41015 0.0246113 0)
(-2.42075 0.0225089 0)
(-2.4302 0.0203829 1.16301e-19)
(-2.43847 0.0182317 3.80908e-20)
(-2.44554 0.0160534 -3.73804e-20)
(-2.4514 0.0138453 0)
(-2.45604 0.0116037 -3.59151e-20)
(-2.45949 0.00932435 3.51474e-20)
(-2.46178 0.00701374 3.43687e-20)
(-2.46299 0.00471346 0)
(-2.46322 0.00249395 0)
(-2.46243 0.000354136 0)
(-2.46029 -0.00169147 3.10442e-20)
(-2.4568 -0.00370092 0)
(-2.45191 -0.00568835 -5.86553e-20)
(-2.4456 -0.00766115 -8.51882e-20)
(-2.43785 -0.00962 5.49839e-20)
(-2.42865 -0.0115638 0)
(-2.41797 -0.0134904 2.56757e-20)
(-2.40582 -0.0153974 0)
(-2.39217 -0.0172825 4.71961e-20)
(-2.37703 -0.0191432 -2.26972e-20)
(-2.36039 -0.0209772 -2.16682e-20)
(-2.34225 -0.0227821 0)
(-2.3226 -0.0245556 -5.81024e-20)
(-2.30145 -0.0262957 3.66518e-20)
(-2.2788 -0.0280002 1.70624e-20)
(-2.25465 -0.029667 0)
(-2.22901 -0.0312941 1.47883e-20)
(-2.20189 -0.0328796 4.12455e-20)
(-2.1733 -0.0344218 0)
(-2.14326 -0.0359187 2.29203e-20)
(-2.11177 -0.0373688 2.05311e-20)
(-2.07886 -0.0387705 1.81164e-20)
(-2.04454 -0.0401225 0)
(-2.00883 -0.0414233 0)
(-1.97176 -0.0426719 0)
(-1.93335 -0.0438669 -4.34755e-21)
(-1.89363 -0.0450073 -2.61902e-21)
(-1.85262 -0.0460922 0)
(-1.81036 -0.0471205 -6.25365e-22)
(-1.76687 -0.0480916 1.93793e-21)
(-1.72219 -0.0490049 0)
(-1.67636 -0.0498599 7.61572e-21)
(-1.62941 -0.0506564 1.93715e-20)
(-1.58137 -0.0513941 -1.28164e-20)
(-1.53229 -0.0520728 -1.4339e-20)
(-1.48221 -0.0526925 0)
(-1.43116 -0.0532533 0)
(-1.3792 -0.0537555 0)
(-1.32636 -0.0541997 -2.58318e-20)
(-1.27268 -0.0545865 2.72922e-20)
(-1.21822 -0.0549164 6.08694e-20)
(-1.16302 -0.0551902 -3.3572e-20)
(-1.10711 -0.0554089 3.4986e-20)
(-1.05056 -0.0555738 3.86711e-20)
(-0.993396 -0.055686 0)
(-0.935674 -0.0557468 0)
(-0.877436 -0.0557579 -4.50457e-20)
(-0.818729 -0.0557208 0)
(-0.759596 -0.0556374 0)
(-0.700081 -0.0555094 1.05891e-19)
(-0.640227 -0.0553389 0)
(-0.580077 -0.055128 5.71389e-20)
(-0.519671 -0.0548788 -6.05944e-20)
(-0.459048 -0.0545935 0)
(-0.398247 -0.0542742 6.40594e-20)
(-0.337303 -0.0539231 0)
(-0.276253 -0.0535419 0)
(-0.215129 -0.0531321 -7.17535e-20)
(-0.153966 -0.0526938 1.46694e-19)
(-0.0927939 -0.052226 -7.59631e-20)
(-0.0316457 -0.0517272 0)
(0.0294484 -0.0511932 0)
(0.0904554 -0.0506247 7.97545e-20)
(0.151356 -0.0500336 0)
(0.212124 -0.0494105 8.19465e-20)
(0.272759 -0.0487551 0)
(0.333271 -0.0481017 0)
(0.393652 -0.0474698 0)
(0.453903 -0.0468584 8.6774e-20)
(0.514025 -0.0462609 0)
(0.574016 -0.0456687 -8.84019e-20)
(0.633863 -0.0450699 0)
(0.693534 -0.044447 0)
(0.75297 -0.0437698 1.80185e-19)
(0.812053 -0.0429859 -1.81414e-19)
(0.870589 -0.0419915 0)
(0.92812 -0.040586 0)
(0.98419 -0.0382399 0)
(1.03614 -0.0339505 5.58737e-19)
(1.08657 -0.0241164 0)
(1.11468 -0.000470051 -3.80086e-19)
(0.00314988 -0.0525502 -5.00647e-23)
(0.00338535 -0.0393334 1.28984e-19)
(-0.00168438 -0.0188068 0)
(-0.00903754 0.000934256 -1.08062e-19)
(-0.0185123 0.0195275 0)
(-0.0298167 0.036757 0)
(-0.0428061 0.0523678 8.5798e-24)
(-0.0574763 0.0661209 4.53782e-20)
(-0.0738931 0.077905 4.4154e-20)
(-0.0921197 0.0877895 4.30578e-20)
(-0.112174 0.0960087 0)
(-0.134014 0.102888 0)
(-0.157553 0.108765 -4.00926e-20)
(-0.182684 0.113927 -7.84167e-20)
(-0.209299 0.118591 7.67601e-20)
(-0.237299 0.122902 0)
(-0.266601 0.126949 7.38039e-20)
(-0.297132 0.130779 -3.62668e-20)
(-0.328826 0.134411 0)
(-0.361617 0.137847 7.02428e-20)
(-0.395442 0.141084 3.46453e-20)
(-0.430234 0.144147 -6.83701e-20)
(-0.465846 0.147095 -3.37935e-20)
(-0.502013 0.14992 0)
(-0.538588 0.152392 6.61249e-20)
(-0.57562 0.154246 6.54288e-20)
(-0.612897 0.155593 0)
(-0.650244 0.156691 6.39554e-20)
(-0.687417 0.1575 0)
(-0.724054 0.158151 6.24919e-20)
(-0.76 0.15806 3.08951e-20)
(-0.795611 0.157144 0)
(-0.830868 0.15632 0)
(-0.865285 0.155207 0)
(-0.898802 0.153309 0)
(-0.931789 0.150769 0)
(-0.964861 0.147592 0)
(-0.998244 0.144661 5.66207e-20)
(-1.03145 0.142435 -8.38918e-20)
(-1.06411 0.140493 0)
(-1.09637 0.138704 0)
(-1.12832 0.137004 0)
(-1.16004 0.135365 8.28951e-23)
(-1.19157 0.133773 5.27583e-20)
(-1.22293 0.132223 1.04259e-19)
(-1.25415 0.130709 -1.0312e-19)
(-1.28525 0.129224 -5.09597e-20)
(-1.31623 0.127762 5.05141e-20)
(-1.3471 0.126315 -9.67963e-23)
(-1.37784 0.124874 4.93769e-20)
(-1.40847 0.123432 0)
(-1.43896 0.12198 4.83804e-20)
(-1.46932 0.120509 -1.02074e-22)
(-1.49952 0.119012 0)
(-1.52956 0.117481 0)
(-1.55942 0.11591 -4.64973e-20)
(-1.58908 0.114293 0)
(-1.61852 0.112624 0)
(-1.64773 0.110899 4.50539e-20)
(-1.67668 0.109114 8.94429e-20)
(-1.70535 0.107266 -4.43921e-20)
(-1.73371 0.105353 0)
(-1.76175 0.103371 4.35354e-20)
(-1.78943 0.101321 0)
(-1.81673 0.0992016 4.24886e-20)
(-1.84362 0.0970117 4.22636e-20)
(-1.87007 0.0947518 -8.34897e-20)
(-1.89606 0.0924226 -4.12293e-20)
(-1.92156 0.0900251 0)
(-1.94654 0.0875603 8.09546e-20)
(-1.97096 0.0850301 0)
(-1.9948 0.0824362 1.18955e-19)
(-2.01803 0.0797808 7.83834e-20)
(-2.04063 0.0770661 7.7513e-20)
(-2.06255 0.0742946 -7.66341e-20)
(-2.08377 0.071469 1.13692e-19)
(-2.10426 0.0685918 0)
(-2.12399 0.0656658 0)
(-2.14293 0.0626938 -7.30116e-20)
(-2.16106 0.0596786 -1.0817e-19)
(-2.17834 0.0566228 0)
(-2.19475 0.0535291 3.51283e-20)
(-2.21025 0.0503999 0)
(-2.22483 0.0472377 -1.02294e-19)
(-2.23845 0.0440447 -7.65659e-23)
(-2.25109 0.0408228 6.73223e-23)
(-2.26272 0.0375738 6.50476e-20)
(-2.27332 0.0342996 0)
(-2.28287 0.0310019 -6.28655e-20)
(-2.29134 0.0276824 -2.79864e-23)
(-2.29872 0.0243435 0)
(-2.30499 0.0209885 0)
(-2.31014 0.0176226 0)
(-2.31416 0.014254 5.70005e-20)
(-2.31706 0.0108937 0)
(-2.31882 0.00755627 0)
(-2.31941 0.00426122 0)
(-2.31884 0.00102954 0)
(-2.31703 -0.0021688 0)
(-2.31391 -0.00536702 4.91106e-20)
(-2.30945 -0.00855553 0)
(-2.30363 -0.0117299 4.61484e-20)
(-2.29643 -0.0148865 4.467e-20)
(-2.28783 -0.0180214 -4.31654e-20)
(-2.27782 -0.0211307 0)
(-2.26638 -0.0242104 -4.00783e-20)
(-2.25351 -0.0272563 0)
(-2.23919 -0.0302644 -3.68888e-20)
(-2.22341 -0.0332307 3.52566e-20)
(-2.20618 -0.0361514 1.01209e-19)
(-2.18748 -0.0390227 0)
(-2.16732 -0.041841 9.11024e-20)
(-2.1457 -0.0446029 2.8967e-20)
(-2.12262 -0.047305 0)
(-2.09808 -0.0499439 5.04653e-20)
(-2.0721 -0.0525167 4.69072e-20)
(-2.04467 -0.0550202 -6.4682e-20)
(-2.01582 -0.0574514 0)
(-1.98554 -0.0598077 -1.76989e-20)
(-1.95387 -0.0620863 -1.58368e-20)
(-1.9208 -0.064285 -4.25214e-20)
(-1.88636 -0.0664015 0)
(-1.85058 -0.0684338 0)
(-1.81347 -0.07038 0)
(-1.77505 -0.0722382 -7.02964e-21)
(-1.73535 -0.074007 0)
(-1.69441 -0.0756848 0)
(-1.65224 -0.0772702 4.78304e-22)
(-1.60887 -0.0787621 -1.48069e-21)
(-1.56435 -0.0801598 0)
(-1.5187 -0.0814626 0)
(-1.47196 -0.0826702 -1.47565e-20)
(-1.42416 -0.0837824 0)
(-1.37535 -0.0847991 2.26267e-20)
(-1.32555 -0.0857202 2.57203e-20)
(-1.27482 -0.0865463 0)
(-1.22319 -0.0872779 0)
(-1.17071 -0.0879159 -3.74281e-20)
(-1.11741 -0.0884617 -8.6005e-22)
(-1.06334 -0.0889162 -8.64123e-22)
(-1.00855 -0.0892808 0)
(-0.953078 -0.0895573 -1.06494e-19)
(-0.896967 -0.0897478 0)
(-0.840264 -0.0898545 0)
(-0.783012 -0.0898795 0)
(-0.725257 -0.0898254 6.86552e-20)
(-0.667042 -0.0896951 0)
(-0.608411 -0.0894916 -1.50134e-19)
(-0.549405 -0.0892179 -7.95136e-20)
(-0.490067 -0.0888772 0)
(-0.430438 -0.0884733 -8.6543e-20)
(-0.370556 -0.0880094 0)
(-0.310461 -0.0874892 0)
(-0.250189 -0.0869163 -2.88524e-19)
(-0.189775 -0.0862942 1.98395e-19)
(-0.129253 -0.0856256 0)
(-0.0686561 -0.0849133 2.11286e-19)
(-0.00801418 -0.0841596 -1.09433e-19)
(0.0526427 -0.0833659 0)
(0.113287 -0.0825319 0)
(0.173893 -0.0816574 0)
(0.234439 -0.0807459 -3.5274e-19)
(0.294911 -0.0798087 0)
(0.355315 -0.0788607 -1.21842e-19)
(0.415662 -0.0779129 0)
(0.475938 -0.0769757 0)
(0.53613 -0.0760581 0)
(0.596226 -0.07516 0)
(0.656221 -0.0742747 0)
(0.716105 -0.0733914 0)
(0.775863 -0.0724928 -2.65103e-19)
(0.835461 -0.0715509 0)
(0.89484 -0.070519 -1.35794e-19)
(0.95389 -0.0693151 4.09838e-19)
(1.01243 -0.0677859 0)
(1.07008 -0.0656388 0)
(1.1265 -0.0622263 -2.798e-19)
(1.17993 -0.0563082 -2.83304e-19)
(1.23308 -0.0446808 2.85391e-19)
(1.27391 -0.0205272 2.90395e-19)
(-0.00205439 -0.0500092 -2.07544e-19)
(-0.00890944 -0.025578 -1.87669e-19)
(-0.0190546 -0.000159202 -1.10881e-19)
(-0.0305946 0.0230925 -5.03397e-20)
(-0.0435442 0.0446413 0)
(-0.0576935 0.0645934 8.90402e-20)
(-0.0730032 0.0828818 -4.27362e-20)
(-0.0895366 0.0993933 0)
(-0.107396 0.114063 -4.02051e-20)
(-0.126684 0.126929 0)
(-0.147471 0.138137 7.65445e-20)
(-0.16978 0.147913 0)
(-0.193585 0.156513 3.66028e-20)
(-0.218822 0.164182 7.16686e-20)
(-0.245401 0.17112 -7.02168e-20)
(-0.273218 0.177474 0)
(-0.302164 0.183341 -6.75705e-20)
(-0.332123 0.188772 0)
(-0.362976 0.193782 0)
(-0.394596 0.198361 -6.42029e-20)
(-0.42685 0.202485 0)
(-0.459594 0.20613 -7.81746e-24)
(-0.492657 0.209277 0)
(-0.525839 0.211878 0)
(-0.558976 0.213818 1.16786e-23)
(-0.591989 0.215007 -5.88474e-20)
(-0.624807 0.215512 -5.8031e-20)
(-0.657331 0.215439 -5.71985e-20)
(-0.689456 0.214847 0)
(-0.721094 0.213818 -1.11169e-19)
(-0.752223 0.212289 0)
(-0.782911 0.210261 -5.40301e-20)
(-0.813204 0.207996 0)
(-0.843086 0.205508 0)
(-0.872589 0.202722 5.17894e-20)
(-0.901851 0.19967 0)
(-0.931047 0.196393 -5.03772e-20)
(-0.960251 0.193193 -1.28223e-23)
(-0.989376 0.190263 9.80954e-20)
(-1.01835 0.187554 -9.68064e-20)
(-1.04718 0.185025 0)
(-1.07587 0.182639 0)
(-1.10445 0.180369 -4.65895e-20)
(-1.13294 0.178193 0)
(-1.16134 0.176093 -4.55585e-20)
(-1.18966 0.174053 4.50359e-20)
(-1.21791 0.172059 4.45272e-20)
(-1.2461 0.170097 0)
(-1.27422 0.168155 -4.3548e-20)
(-1.30227 0.166219 -4.30755e-20)
(-1.33024 0.164278 8.51331e-20)
(-1.35812 0.162319 -4.21608e-20)
(-1.3859 0.160332 -4.1717e-20)
(-1.41358 0.158307 0)
(-1.44113 0.156235 0)