/*--------------------------------*- C++ -*----------------------------------*\
  =========                 |
  \\      /  F ield         | OpenFOAM: The Open Source CFD Toolbox
   \\    /   O peration     | Website:  https://openfoam.org
    \\  /    A nd           | Version:  9
     \\/     M anipulation  |
\*---------------------------------------------------------------------------*/
FoamFile
{
    format      ascii;
    class       volScalarField;
    location    "140";
    object      p;
}
// * * * * * * * * * * * * * * * * * * * * * * * * * * * * * * * * * * * * * //

dimensions      [0 2 -2 0 0 0 0];

internalField   nonuniform List<scalar> 
10720
(
-114.779
-128.16
-142.72
-154.22
-161.417
-167.117
-169.955
-169.814
-167.569
-162.757
-155.857
-147.4
-137.73
-127.174
-116.085
-104.906
-94.4509
-85.6604
-79.5199
-75.8851
-73.6076
-71.9141
-70.7732
-70.3449
-70.5362
-70.9629
-71.257
-70.9061
-68.8095
-63.4679
-54.4961
-43.2388
-34.2341
-32.2292
-30.2934
-32.0472
-37.4256
-29.6583
-60.2259
-98.9592
-83.7422
-64.1795
-43.1662
-21.7644
-0.941163
18.0738
33.9463
46.1426
54.9137
60.5204
63.4408
64.5445
64.5887
63.8388
62.4881
60.7241
58.658
56.357
53.8363
51.1136
48.1711
45.0129
41.6705
38.3407
35.1755
32.1043
29.1164
26.2282
23.4551
20.7601
18.1352
15.5268
12.8466
9.98215
6.61495
2.52776
-4.1668
-14.8143
-65.5439
-77.4459
-89.2678
-99.9816
-109.603
-118.233
-124.909
-129.318
-131.716
-132.169
-130.857
-127.87
-123.255
-117.114
-109.66
-101.273
-92.7123
-84.9624
-79.1657
-75.4979
-73.2163
-71.6322
-70.5578
-70.1592
-70.3791
-70.824
-71.1202
-70.78
-68.7338
-63.4726
-54.5985
-43.4081
-34.3728
-32.2661
-30.2896
-32.012
-37.3966
-29.7541
-61.0003
-53.9838
-42.349
-29.7495
-15.9321
-1.59336
12.7244
26.224
38.028
47.6374
54.9243
59.8847
62.7158
63.9459
64.0925
63.4596
62.2471
60.6047
58.6365
56.4101
53.9526
51.2832
48.3969
45.3022
42.0361
38.7571
35.598
32.5189
29.5141
26.6029
23.8014
21.0756
18.4187
15.7791
13.0703
10.1821
6.80024
2.71302
-3.98236
-13.9605
-56.3007
-67.0932
-77.8428
-88.4124
-98.0214
-106.372
-113.157
-118.094
-121.205
-122.55
-122.119
-119.972
-116.234
-111.093
-104.8
-97.7131
-90.4089
-83.6568
-78.376
-74.8421
-72.7392
-71.3423
-70.3709
-70.0076
-70.2598
-70.7382
-71.0419
-70.7078
-68.7213
-63.5541
-54.7809
-43.6549
-34.5814
-32.3185
-30.2732
-31.9435
-37.3318
-29.8497
-61.8145
-45.6134
-34.1861
-21.7464
-8.625
4.52906
17.3418
29.2135
39.5298
47.9775
54.4684
58.9974
61.7193
63.0405
63.3447
62.8812
61.8244
60.311
58.4449
56.2977
53.9057
51.2917
48.4602
45.4226
42.2158
38.9698
35.8119
32.7311
29.7226
26.8047
23.9926
21.255
18.5848
15.9323
13.2123
10.3166
6.93415
2.86022
-3.78655
-13.1083
-40.2224
-49.6494
-59.3384
-68.8136
-77.7312
-85.9517
-93.1262
-99.0481
-103.599
-106.669
-108.131
-107.953
-106.202
-103.022
-98.6268
-93.3324
-87.6044
-82.0603
-77.447
-74.1966
-72.2868
-71.0874
-70.2269
-69.8902
-70.168
-70.6853
-71.0064
-70.6753
-68.7472
-63.69
-55.022
-43.9415
-34.8038
-32.3529
-30.2413
-31.864
-37.2934
-29.966
-62.5902
-31.1119
-21.7061
-11.5372
-0.615223
10.4083
21.2627
31.4477
40.4125
47.8712
53.7192
57.9047
60.5392
61.9455
62.4088
62.1222
61.2359
59.8754
58.1395
56.0994
53.797
51.2594
48.4989
45.5306
42.3916
39.193
36.0537
32.982
29.9752
27.0517
24.2275
21.4754
18.7878
16.1176
13.3819
10.4746
7.08934
3.03106
-3.54569
-12.2707
-31.8239
-40.457
-49.3812
-58.2554
-66.715
-74.7267
-81.9647
-88.1372
-93.0688
-96.6575
-98.8025
-99.4843
-98.7462
-96.6922
-93.4947
-89.4214
-84.8641
-80.3294
-76.3885
-73.461
-71.6809
-70.6727
-70.0385
-69.7998
-70.0887
-70.6298
-70.9775
-70.6591
-68.787
-63.8495
-55.2987
-44.253
-35.0337
-32.3646
-30.1821
-31.7582
-37.2851
-30.118
-63.3007
-23.4414
-14.8323
-5.5715
4.25972
14.0723
23.6989
32.7454
40.7413
47.4471
52.7737
56.6627
59.2207
60.7034
61.3162
61.2073
60.5015
59.3089
57.7205
55.8051
53.6086
51.1618
48.4835
45.5925
42.5268
39.3825
36.2694
33.2109
30.2096
27.2843
24.4516
21.6885
18.9864
16.3016
13.553
10.6373
7.25312
3.21736
-3.2649
-11.4275
-24.4514
-32.2662
-40.4402
-48.5922
-56.4472
-64.0231
-70.9938
-77.1192
-82.2718
-86.3411
-89.2298
-90.8661
-91.2268
-90.3515
-88.3619
-85.4717
-82.0057
-78.3982
-75.1315
-72.5815
-70.9248
-70.0426
-69.6747
-69.664
-70.017
-70.5651
-70.9342
-70.6373
-68.818
-64.0002
-55.5805
-44.5814
-35.2408
-32.3297
-30.1
-31.6121
-37.2797
-30.3014
-63.9281
-16.8944
-9.2026
-0.917117
7.90227
16.6825
25.3119
33.4544
40.6849
46.7861
51.6773
55.3109
57.8
59.3464
60.0932
60.1538
59.6295
58.6135
57.1862
55.412
53.3379
50.9976
48.4144
45.6109
42.6255
39.5436
36.4662
33.4284
30.4386
27.5161
24.6786
21.9069
19.1922
16.4939
13.7334
10.8102
7.4299
3.42244
-2.94623
-10.57
-19.1022
-26.2966
-33.8652
-41.4502
-48.7886
-55.9592
-62.6554
-68.6641
-73.8745
-78.1536
-81.4148
-83.5888
-84.6403
-84.5873
-83.5164
-81.591
-79.0668
-76.2941
-73.6762
-71.5498
-70.0855
-69.2909
-69.1003
-69.3589
-69.8795
-70.474
-70.859
-70.5874
-68.8191
-64.117
-55.8372
-44.8976
-35.4298
-32.2521
-29.9786
-31.4224
-37.2577
-30.4992
-64.3613
-12.1534
-5.12386
2.44507
10.4889
18.4676
26.3118
33.7373
40.3522
45.9545
50.473
53.887
56.313
57.9066
58.7677
58.9838
58.6346
57.7969
56.5386
54.918
52.98
50.7599
48.2843
45.5783
42.6808
39.6691
36.6371
33.6278
30.6557
27.7411
24.9027
22.1255
19.4008
16.6909
13.9204
10.9919
7.619
3.645
-2.58682
-9.70349
-14.8432
-21.4836
-28.5068
-35.5604
-42.4076
-49.1575
-55.5257
-61.3234
-66.4636
-70.8233
-74.3277
-76.9159
-78.5364
-79.1782
-78.8915
-77.7969
-76.0951
-74.0689
-72.0554
-70.3603
-69.1564
-68.4796
-68.3738
-68.8228
-69.5714
-70.3026
-70.7344
-70.4836
-68.758
-64.1642
-56.0341
-45.1783
-35.5565
-32.0905
-29.8174
-31.1973
-37.2163
-30.712
-64.4976
-8.43433
-1.98289
4.97381
12.368
19.6848
26.8845
33.7205
39.8252
45.0034
49.1975
52.4229
54.7895
56.4124
57.3664
57.7196
57.5341
56.8702
55.7838
54.3245
52.5336
50.4457
48.0891
45.4906
42.689
39.756
36.7789
33.8064
30.8588
27.9577
25.1229
22.3438
19.6118
16.8927
14.1144
11.1829
7.82128
3.88724
-2.18929
-8.82178
-11.4887
-17.6577
-24.2094
-30.8024
-37.2115
-43.5722
-49.6169
-55.1796
-60.1983
-64.5504
-68.1715
-71.0169
-73.0322
-74.1944
-74.5293
-74.1212
-73.1222
-71.7565
-70.2977
-69.0162
-68.0965
-67.5896
-67.5466
-68.0705
-69.004
-69.9435
-70.4991
-70.2891
-68.5985
-64.1067
-56.1336
-45.3769
-35.63
-31.8525
-29.588
-30.9363
-37.1496
-30.931
-64.2241
-5.53719
0.431417
6.87417
13.723
20.4852
27.1463
33.4883
39.1604
43.9691
47.8819
50.9449
53.251
54.8872
55.9131
56.3834
56.3459
55.8468
54.9297
53.635
51.9986
50.0526
47.8253
45.3436
42.6462
39.8001
36.8874
33.9603
31.0443
28.1628
25.3367
22.5598
19.8239
17.0984
14.3147
11.3828
8.03678
4.14777
-1.75199
-7.93104
-8.79395
-14.551
-20.6847
-26.8648
-32.8792
-38.8741
-44.6025
-49.9162
-54.773
-59.0597
-62.7202
-65.726
-68.0245
-69.5877
-70.42
-70.577
-70.1739
-69.3849
-68.4308
-67.5409
-66.8995
-66.5883
-66.6376
-67.1695
-68.1771
-69.311
-70.0654
-69.9479
-68.2907
-63.8918
-56.0893
-45.4593
-35.5932
-31.4894
-29.3006
-30.6458
-37.057
-31.1639
-63.5655
-3.24013
2.30987
8.31086
14.6913
20.98
27.1815
33.1015
38.3968
42.8797
46.5499
49.4715
51.714
53.3489
54.4276
54.995
55.0879
54.7409
53.9866
52.8559
51.3778
49.5807
47.4909
45.1346
42.5493
39.7983
36.9593
34.0864
31.2096
28.3541
25.5424
22.7719
20.036
17.3071
14.521
11.5916
8.26599
4.42889
-1.2782
-7.02518
-6.61524
-12.0114
-17.7747
-23.587
-29.2433
-34.9043
-40.3329
-45.4009
-50.0786
-54.2657
-57.9108
-60.9994
-63.487
-65.3444
-66.564
-67.1791
-67.2732
-66.9805
-66.4769
-65.954
-65.5791
-65.4581
-65.6273
-66.1634
-67.1419
-68.3665
-69.3277
-69.3728
-67.7761
-63.4568
-55.8408
-45.3672
-35.4558
-31.0227
-28.9278
-30.3196
-36.929
-31.4006
-62.5573
-1.41076
3.77717
9.39305
15.3663
21.2455
27.0498
32.6018
37.5641
41.7588
45.2196
48.0132
50.1898
51.8118
52.9262
53.5713
53.7764
53.567
52.9656
51.9945
50.6753
49.0311
47.0852
44.8616
42.3955
39.7475
36.9912
34.1813
31.3513
28.5288
25.7373
22.9782
20.2465
17.5178
14.7325
11.8091
8.50871
4.72852
-0.767873
-6.1103
-4.8407
-9.91484
-15.3471
-20.8289
-26.1631
-31.5147
-36.6633
-41.4919
-45.9837
-50.0501
-53.6432
-56.7588
-59.3651
-61.4354
-62.953
-63.9342
-64.4386
-64.5681
-64.4604
-64.2737
-64.1536
-64.21
-64.4999
-65.0649
-65.9713
-67.1592
-68.239
-68.4734
-66.9884
-62.7485
-55.325
-45.0648
-35.1465
-30.409
-28.4874
-29.9664
-36.768
-31.6508
-61.2991
0.0560108
4.92361
10.2013
15.8162
21.3366
26.7931
32.02
36.684
40.6242
43.9022
46.5784
48.6871
50.2866
51.4219
52.1274
52.427
52.3392
51.8788
51.0598
49.8968
48.4069
46.6091
44.5239
42.1835
39.6457
36.9804
34.2422
31.467
28.6845
25.9195
23.1772
20.4542
17.7297
14.9489
12.0351
8.76521
5.04948
-0.224326
-5.18125
-3.38533
-8.1732
-13.307
-18.4904
-23.5313
-28.6012
-33.4879
-38.0875
-42.3938
-46.3275
-49.8452
-52.9493
-55.6201
-57.8358
-59.5766
-60.8459
-61.684
-62.1671
-62.4013
-62.5151
-62.6334
-62.8573
-63.2543
-63.86
-64.6998
-65.7632
-66.8188
-67.1858
-65.8567
-61.7249
-54.486
-44.4921
-34.672
-29.6916
-27.9477
-29.5795
-36.5654
-31.9005
-59.8417
1.23446
5.81893
10.7948
16.0909
21.2938
26.4426
31.3786
35.7729
39.4894
42.6059
45.1717
47.2109
48.7807
49.925
50.6754
51.0528
51.0707
50.7377
50.0613
49.0491
47.7122
46.0641
44.1213
41.9121
39.4909
36.9244
34.266
31.5535
28.8182
26.0862
23.3662
20.6572
17.9412
15.1689
12.269
9.03504
5.38859
0.350866
-4.24416
-2.18727
-6.71661
-11.5803
-16.4928
-21.2675
-26.0768
-30.7217
-35.1046
-39.2294
-43.0239
-46.4521
-49.5174
-52.2117
-54.5199
-56.423
-57.9144
-59.0193
-59.7939
-60.319
-60.6961
-61.0308
-61.4118
-61.904
-62.5455
-63.3377
-64.2524
-65.1596
-65.5283
-64.3416
-60.3666
-53.3062
-43.6234
-33.9591
-28.8383
-27.3374
-29.1737
-36.331
-32.1575
-58.2712
2.18367
6.5132
11.2191
16.2294
21.1483
26.021
30.6934
34.8449
38.3637
41.3353
43.7962
45.7656
47.3002
48.4434
49.2253
49.6651
49.7732
49.5538
49.009
48.1401
46.9522
45.4534
43.6551
41.5813
39.2823
36.8215
34.2508
31.6088
28.9281
26.2359
23.5443
20.8545
18.1519
15.3925
12.5107
9.31823
5.74903
0.954586
-3.29501
-1.19788
-5.49285
-10.1101
-14.7753
-19.3063
-23.8777
-28.2968
-32.476
-36.4255
-40.0787
-43.4083
-46.4165
-49.1033
-51.4633
-53.4784
-55.1364
-56.4506
-57.4614
-58.2294
-58.8333
-59.3587
-59.8828
-60.4613
-61.1286
-61.8803
-62.6584
-63.3552
-63.587
-62.4575
-58.6709
-51.8049
-42.4384
-33.0322
-27.9094
-26.6337
-28.7447
-36.0574
-32.4032
-56.6231
2.94751
7.0471
11.5087
16.2602
20.9234
25.5462
29.9777
33.9092
37.2528
40.0918
42.453
44.3528
45.8484
46.9825
47.7846
48.2735
48.4573
48.3377
47.9123
47.1775
46.1329
44.7809
43.1277
41.1917
39.0191
36.6702
34.1943
31.63
29.0111
26.3655
23.7085
21.0436
18.3595
15.6177
12.7591
9.614
6.12663
1.58361
-2.3401
-0.378986
-4.4592
-8.85137
-13.2901
-17.5985
-21.9484
-26.1586
-30.1469
-33.9279
-37.4412
-40.667
-43.6055
-46.262
-48.6409
-50.7282
-52.5069
-53.9813
-55.1797
-56.1464
-56.9412
-57.6313
-58.2812
-58.9367
-59.6233
-60.3333
-60.995
-61.4787
-61.4866
-60.295
-56.6796
-50.0382
-40.9877
-31.8675
-26.8762
-25.8816
-28.3162
-35.7638
-32.6471
-54.9604
3.56065
7.45136
11.6904
16.2073
20.6377
25.0324
29.2421
32.9742
36.1605
38.8776
41.1435
42.9746
44.4281
45.5465
46.3595
46.8854
47.1321
47.0986
46.7804
46.1696
45.2608
44.0513
42.5416
40.7447
38.7019
36.4698
34.0951
31.6157
29.0656
26.4738
23.8579
21.2239
18.5639
15.845
13.0144
9.92213
6.52488
2.23519
-1.37668
0.299548
-3.5844
-7.76927
-11.9991
-16.1018
-20.2479
-24.2633
-28.0718
-31.6925
-35.0696
-38.1884
-41.0484
-43.6587
-46.0316
-48.1582
-50.0194
-51.6127
-52.9563
-54.0822
-55.0341
-55.8627
-56.6194
-57.3406
-58.0416
-58.708
-59.2654
-59.5617
-59.3256
-57.9804
-54.4695
-48.079
-39.3492
-30.5511
-25.8082
-25.0752
-27.8884
-35.4509
-32.8718
-53.3115
4.05041
7.75029
11.7861
16.0872
20.3058
24.4904
28.4948
32.0457
35.089
37.6927
39.8677
41.6312
43.0407
44.1386
44.9546
45.5075
45.8049
45.8453
45.6219
45.1242
44.3427
43.2698
41.9007
40.2424
38.3313
36.22
33.952
31.5638
29.0893
26.558
23.9896
21.3926
18.7623
16.0717
13.2748
10.2416
6.93831
2.90471
-0.411562
0.861794
-2.84109
-6.83405
-10.8714
-14.7838
-18.7404
-22.5745
-26.2147
-29.6824
-32.9269
-35.9371
-38.7146
-41.2676
-43.6159
-45.7553
-47.6673
-49.3443
-50.7964
-52.0459
-53.1235
-54.0657
-54.9104
-55.6847
-56.3953
-57.0189
-57.4805
-57.6193
-57.1649
-55.6354
-52.1571
-46.0187
-37.6182
-29.133
-24.6853
-24.2684
-27.493
-35.1592
-33.0982
-51.7403
4.4387
7.96329
11.8114
15.915
19.9378
23.9285
27.743
31.1278
34.0396
36.5368
38.6254
40.3232
41.6877
42.7614
43.5738
44.145
44.4827
44.5852
44.4448
44.0491
43.3855
42.442
41.2089
39.6875
37.9087
35.9209
33.7644
31.4733
29.0809
26.617
24.1027
21.5492
18.9549
16.2984
13.5406
10.5718
7.37074
3.58976
0.556528
1.32712
-2.20834
-6.0234
-9.88127
-13.6174
-17.3978
-21.0623
-24.5437
-27.8667
-30.9832
-33.8852
-36.5775
-39.0661
-41.3751
-43.5066
-45.4437
-47.1748
-48.7043
-50.0462
-51.2211
-52.2529
-53.1677
-53.9828
-54.6974
-55.2803
-55.6544
-55.6603
-55.0291
-53.3369
-49.8535
-43.9497
-35.8825
-27.7377
-23.5838
-23.4709
-27.138
-34.8975
-33.3334
-50.2929
4.743
8.10549
11.7806
15.7003
19.5421
23.3525
26.991
30.2235
33.0127
35.4094
37.4158
39.0499
40.3691
41.4157
42.2198
42.8021
43.1709
43.325
43.2565
42.9518
42.396
41.5738
40.4709
39.0833
37.4362
35.5735
33.5318
31.3427
29.0384
26.6481
24.1945
21.6907
19.1385
16.522
13.8096
10.9112
7.81553
4.2847
1.51971
1.71146
-1.66824
-5.31782
-9.00887
-12.5807
-16.1961
-19.7019
-23.0346
-26.2197
-29.213
-32.0083
-34.6142
-37.0326
-39.2915
-41.3992
-43.3406
-45.1017
-46.6821
-48.0893
-49.3357
-50.4353
-51.4033
-52.2474
-52.9602
-53.5051
-53.8019
-53.6962
-52.9287
-51.1193
-47.6409
-41.9532
-34.2314
-26.4128
-22.5063
-22.742
-26.8593
-34.7114
-33.6286
-49.0354
4.97746
8.18967
11.7033
15.4527
19.1253
22.7669
26.2425
29.3347
32.0095
34.311
36.2391
37.8115
39.0852
40.1028
40.8946
41.482
41.8741
42.0704
42.0634
41.8391
41.381
40.6713
39.6918
38.4336
36.9163
35.179
33.2546
31.1717
28.9608
26.6505
24.2641
21.8167
19.3131
16.743
14.0817
11.2588
8.27599
4.98754
2.47853
2.02735
-1.20709
-4.70163
-8.23651
-11.6547
-15.1161
-18.4728
-21.6648
-24.7195
-27.5943
-30.2858
-32.8047
-35.1499
-37.3507
-39.4218
-41.351
-43.1223
-44.7311
-46.1806
-47.4762
-48.6241
-49.6296
-50.4925
-51.1986
-51.7084
-51.9391
-51.7424
-50.874
-48.995
-45.5617
-40.0954
-32.7394
-25.2563
-21.5546
-22.1124
-26.6735
-34.6045
-34.0043
-48.0144
5.15373
8.22557
11.5889
15.178
18.6929
22.1763
25.5006
28.4638
31.0312
33.2414
35.0943
36.6072
37.8361
38.8234
39.5997
40.187
40.5958
40.8261
40.8712
40.7173
40.3469
39.7406
38.8771
37.7429
36.3521
34.7394
32.9336
30.9601
28.8471
26.6222
24.309
21.9243
19.4756
16.958
14.3542
11.6125
8.74455
5.69171
3.42377
2.28592
-0.812311
-4.16183
-7.55025
-10.8246
-14.1408
-17.3573
-20.417
-23.3469
-26.1084
-28.6988
-31.1313
-33.4013
-35.5388
-37.564
-39.4675
-41.2329
-42.852
-44.3239
-45.6496
-46.8282
-47.8576
-48.7298
-49.4251
-49.9025
-50.0789
-49.812
-48.8743
-46.9666
-43.6258
-38.4083
-31.4454
-24.3131
-20.7621
-21.6422
-26.6124
-34.6206
-34.4974
-47.2872
5.28129
8.22177
11.4434
14.883
18.2494
21.5843
24.7679
27.6113
30.0774
32.2005
33.9813
35.4364
36.6211
37.5773
38.3357
38.9193
39.339
39.5961
39.685
39.592
39.2998
38.7876
38.032
37.0154
35.7472
34.2571
32.57
30.7082
28.697
26.5627
24.3287
22.0129
19.6258
17.1671
14.6269
11.9708
9.2241
6.39544
4.35542
2.49584
-0.47474
-3.68743
-6.93793
-10.0771
-13.2569
-16.3411
-19.2751
-22.087
-24.7395
-27.2317
-29.5782
-31.7724
-33.8437
-35.8158
-37.6835
-39.4299
-41.0444
-42.5228
-43.8623
-45.0569
-46.0982
-46.9718
-47.6541
-48.1023
-48.2361
-47.9199
-46.9432
-45.0427
-41.8353
-36.9094
-30.3737
-23.6429
-20.2314
-21.3735
-26.6981
-34.7597
-35.1148
-46.8794
5.3678
8.18514
11.274
14.5719
17.7994
20.9943
24.0465
26.7779
29.1477
31.1877
32.8991
34.2985
35.4399
36.3648
37.1036
37.68
38.106
38.3838
38.5087
38.4682
38.2451
37.818
37.162
36.2563
35.1055
33.7351
32.166
30.4168
28.5104
26.4709
24.3213
22.0803
19.7608
17.3672
14.8968
12.3313
9.70643
7.09212
5.26372
2.66469
-0.185401
-3.2693
-6.38979
-9.40153
-12.4521
-15.4115
-18.2267
-20.9257
-23.4741
-25.8712
-28.1326
-30.2514
-32.2548
-34.169
-35.9926
-37.7099
-39.3076
-40.7792
-42.1192
-43.3174
-44.3603
-45.229
-45.8962
-46.3193
-46.4217
-46.0763
-45.0893
-43.2281
-40.1854
-35.5911
-29.519
-23.241
-19.9849
-21.3515
-26.9523
-35.0521
-35.8828
-46.8123
5.42028
8.1214
11.0847
14.25
17.346
20.4092
23.3376
25.9632
28.242
30.2025
31.8474
33.1929
34.2919
35.1853
35.9033
36.4702
36.8985
37.1916
37.3461
37.3503
37.1877
36.837
36.2722
35.47
34.4311
33.1764
31.7234
30.0872
28.2875
26.3465
24.2863
22.126
19.8802
17.5581
15.1632
12.6923
10.1933
7.78041
6.14876
2.79834
0.0621938
-2.89967
-5.89705
-8.78806
-11.7171
-14.5577
-17.2597
-19.8519
-22.3001
-24.6054
-26.783
-28.8276
-30.7629
-32.6159
-34.3895
-36.0694
-37.6409
-39.0954
-40.425
-41.6169
-42.6533
-43.5119
-44.1634
-44.5664
-44.6485
-44.2929
-43.3232
-41.5321
-38.6794
-34.4495
-28.8764
-23.1116
-20.0647
-21.6009
-27.3906
-35.4891
-36.8119
-47.0822
5.44396
8.03556
10.8804
13.9197
16.8922
19.8305
22.6421
25.1675
27.3596
29.2443
30.8252
32.1188
33.1766
34.0386
34.735
35.2905
35.7179
36.022
36.2001
36.2421
36.1322
35.8495
35.3677
34.6616
33.7283
32.5849
31.2452
29.721
28.0292
26.1895
24.2227
22.1479
19.9816
17.7366
15.423
13.0506
10.6766
8.45363
7.00069
2.90246
0.274412
-2.57199
-5.45274
-8.22956
-11.0426
-13.7708
-16.3657
-18.8552
-21.2077
-23.4242
-25.5203
-27.4917
-29.3589
-31.1489
-32.8683
-34.5049
-36.043
-37.4721
-38.7829
-39.9604
-40.9841
-41.8291
-42.4655
-42.8536
-42.9261
-42.5768
-41.6488
-39.9564
-37.3143
-33.4709
-28.4234
-23.2168
-20.4385
-22.122
-28.0149
-36.0905
-37.9151
-47.6826
5.44382
7.93156
10.6641
13.5845
16.4396
19.2601
21.9604
24.3903
26.4999
28.3122
29.832
31.0755
32.0932
32.9243
33.5988
34.1411
34.5652
34.8763
35.0732
35.1467
35.0824
34.8598
34.453
33.8355
33.0013
31.9639
30.7341
29.3204
27.7366
26.0002
24.1303
22.1459
20.0646
17.9025
15.6752
13.4044
11.1573
9.11038
7.81979
2.98132
0.45566
-2.28057
-5.05043
-7.71853
-10.4219
-13.043
-15.5354
-17.9274
-20.1879
-22.319
-24.3358
-26.2356
-28.035
-29.7612
-31.424
-33.0132
-34.5124
-35.91
-37.1957
-38.3527
-39.3593
-40.1887
-40.8111
-41.1898
-41.2635
-40.9365
-40.0717
-38.5041
-36.0914
-32.6489
-28.1459
-23.5324
-21.0908
-22.9015
-28.8272
-36.8467
-39.1936
-48.5925
5.42358
7.81297
10.439
13.2465
15.9903
18.6984
21.2933
23.6318
25.6626
27.4059
28.8669
30.0621
31.0409
31.8418
32.494
33.0224
33.441
33.7561
33.9673
34.0671
34.0418
33.8722
33.5327
32.9963
32.2545
31.3176
30.1934
28.8877
27.4112
25.7791
24.0088
22.1186
20.1268
18.0525
15.9165
13.7499
11.6276
9.74432
8.59702
3.03891
0.610998
-2.0207
-4.68481
-7.24984
-9.84809
-12.3674
-14.7626
-17.0609
-19.2333
-21.2821
-23.2223
-25.0519
-26.7846
-28.4468
-30.0516
-31.5908
-33.0475
-34.4093
-35.6651
-36.7976
-37.7838
-38.597
-39.2074
-39.5825
-39.6672
-39.3759
-38.5924
-37.1714
-35.0037
-31.9689
-28.0193
-24.0119
-21.9615
-23.9025
-29.8102
-37.7616
-40.6382
-49.7796
5.38676
7.68261
10.2074
12.9075
15.5451
18.1468
20.6407
22.892
24.8471
26.5245
27.9293
29.0781
30.0194
30.7904
31.4205
31.9341
32.3457
32.6622
32.8843
33.0054
33.0134
32.8902
32.6108
32.1482
31.492
30.6496
29.6265
28.4255
27.0549
25.5274
23.8586
22.0658
20.168
18.1863
16.1456
14.0854
12.0872
10.3542
9.33317
3.07828
0.743432
-1.78818
-4.35135
-6.81776
-9.31656
-11.7384
-14.0403
-16.2495
-18.3373
-20.3067
-22.1727
-23.9342
-25.6015
-27.2004
-28.7467
-30.2343
-31.6463
-32.9695
-34.1923
-35.2975
-36.2619
-37.059
-37.6604
-38.0374
-38.1422
-37.8993
-37.2113
-35.955
-34.0445
-31.4192
-28.0252
-24.623
-23.0065
-25.0867
-30.9444
-38.8151
-42.2235
-51.1964
5.33621
7.5431
9.97137
12.5688
15.1051
17.6047
20.0034
22.1709
24.0535
25.6675
27.0184
28.1227
29.0276
29.7699
30.3777
30.876
31.2794
31.5952
31.825
31.9635
31.9997
31.9168
31.6909
31.2952
30.7177
29.9638
29.0366
27.9367
26.6698
25.2463
23.6798
21.9869
20.1863
18.3009
16.359
14.4065
12.5289
10.934
10.0204
3.1025
0.856668
-1.57943
-4.04613
-6.41865
-8.82159
-11.1505
-13.3636
-15.487
-17.4938
-19.3869
-21.1812
-22.8762
-24.4801
-26.0171
-27.5052
-28.9405
-30.3066
-31.5897
-32.7779
-33.8544
-34.7966
-35.5787
-36.1741
-36.5584
-36.6914
-36.507
-35.9258
-34.8464
-33.2007
-30.9801
-28.1371
-25.3222
-24.1583
-26.3934
-32.1899
-39.9843
-43.9078
-52.7771
5.27449
7.39628
9.73244
12.2319
14.6708
17.0736
19.3812
21.4684
23.2813
24.8345
26.1336
27.195
28.0648
28.779
29.3652
29.848
30.2423
30.5556
30.7905
30.9429
31.0028
30.9547
30.7762
30.4407
29.9355
29.264
28.4273
27.4242
26.2581
24.9373
23.4735
21.8821
20.1815
18.3957
16.5554
14.7114
12.9519
11.4827
10.6602
3.11383
0.95305
-1.3914
-3.76562
-6.04796
-8.35992
-10.5997
-12.7273
-14.7688
-16.6979
-18.5176
-20.2426
-21.873
-23.4154
-24.8925
-26.3233
-27.7063
-29.0262
-30.2687
-31.4217
-32.4693
-33.3897
-34.1586
-34.7514
-35.1477
-35.3155
-35.1981
-34.7316
-33.8375
-32.4599
-30.6329
-28.3299
-26.0777
-25.3635
-27.7677
-33.5022
-41.2242
-45.6443
-54.4559
5.20357
7.24429
9.49212
11.8976
14.2431
16.5532
18.7745
20.7848
22.5303
24.025
25.2742
26.2944
27.1304
27.8173
28.3823
28.8495
29.2339
29.5435
29.7815
29.9447
30.0243
30.0064
29.8695
29.5882
29.1489
28.5536
27.8019
26.8911
25.8224
24.6021
23.2404
21.751
20.1521
18.468
16.7312
14.9956
13.3498
11.9945
11.2462
3.11456
1.0354
-1.22133
-3.50688
-5.70321
-7.9272
-10.0818
-12.1281
-14.0907
-15.9451
-17.6941
-19.3524
-20.92
-22.4033
-23.8228
-25.1976
-26.529
-27.8029
-29.0049
-30.1231
-31.1422
-32.0421
-32.7998
-33.3932
-33.8059
-34.0137
-33.9696
-33.6226
-32.9164
-31.8057
-30.3535
-28.5718
-26.8512
-26.5588
-29.137
-34.8186
-42.4816
-47.3662
-56.1512
5.12545
7.08839
9.25172
11.5667
13.8226
16.0445
18.1831
20.1196
21.7999
23.2384
24.4397
25.4203
26.2238
26.8842
27.4283
27.88
28.2541
28.5589
28.7983
28.9697
29.0658
29.0735
28.9733
28.7405
28.361
27.8359
27.1638
26.3403
25.3651
24.2428
22.9817
21.5945
20.0983
18.5174
16.8853
15.2574
13.7213
12.4689
11.7804
3.10635
1.1054
-1.06688
-3.26728
-5.38063
-7.52095
-9.59355
-11.5612
-13.4486
-15.2312
-16.9124
-18.5064
-20.0133
-21.4399
-22.8041
-24.1247
-25.4055
-26.6342
-27.7965
-28.8806
-29.8725
-30.7534
-31.5023
-32.0993
-32.5319
-32.7835
-32.8166
-32.5909
-32.071
-31.2221
-30.1204
-28.8309
-27.6136
-27.6963
-30.4378
-36.0722
-43.6829
-49.0017
-57.7744
5.04161
6.93014
9.01211
11.2403
13.4101
15.5472
17.6073
19.4724
21.0901
22.4742
23.6295
24.5719
25.3439
25.9789
26.5028
26.9391
27.3026
27.6017
27.841
28.0186
28.1281
28.1579
28.0897
27.9
27.5748
27.1141
26.5159
25.7747
24.8889
23.8612
22.6987
21.4125
20.0188
18.5416
17.0143
15.4924
14.061
12.9007
12.258
3.09094
1.16529
-0.925994
-3.04442
-5.07842
-7.13767
-9.13168
-11.0243
-12.8389
-14.5526
-16.1685
-17.7007
-19.1493
-20.5213
-21.8324
-23.1009
-24.3327
-25.5175
-26.6411
-27.6924
-28.6586
-29.5222
-30.2645
-30.8677
-31.323
-31.6206
-31.7325
-31.6275
-31.2873
-30.6905
-29.9111
-29.0713
-28.331
-28.7287
-31.5993
-37.1849
-44.7473
-50.4599
-59.2199
4.95356
6.77043
8.7744
10.919
13.006
15.0623
17.0463
18.8429
20.4
21.7318
22.8428
23.7483
24.4901
25.1006
25.6048
26.0261
26.3788
26.6718
26.9097
27.0916
27.212
27.2607
27.2204
27.069
26.7928
26.3911
25.8613
25.1972
24.3961
23.4595
22.3929
21.206
19.9141
18.5402
17.1171
15.6992
14.3676
13.2899
12.6815
3.06967
1.21627
-0.796813
-2.83635
-4.79365
-6.77556
-8.69383
-10.5139
-12.259
-13.9063
-15.4595
-16.9322
-18.3246
-19.6441
-20.9043
-22.1227
-23.3074
-24.4497
-25.5362
-26.5563
-27.4983
-28.3466
-29.0841
-29.6956
-30.1753
-30.5195
-30.7097
-30.7221
-30.5513
-30.1923
-29.7068
-29.261
-28.9719
-29.6276
-32.5665
-38.0803
-45.5792
-51.643
-60.3759
4.86231
6.61051
8.53916
10.6034
12.6108
14.5891
16.5004
18.2307
19.7294
21.0107
22.079
22.9491
23.662
24.2486
24.7341
25.1404
25.4825
25.7686
26.0044
26.189
26.3184
26.3827
26.3668
26.2493
26.0172
25.6692
25.2025
24.6103
23.8893
23.0396
22.0655
20.9755
19.7835
18.5114
17.1908
15.8737
14.6364
13.632
13.0476
3.04374
1.26011
-0.677791
-2.64125
-4.52499
-6.43173
-8.2773
-10.0279
-11.7057
-13.2893
-14.7822
-16.1977
-17.5361
-18.8052
-20.0164
-21.1868
-22.3263
-23.4278
-24.4788
-25.4691
-26.3886
-27.2231
-27.9576
-28.5786
-29.0834
-29.4738
-29.7392
-29.8635
-29.8489
-29.7077
-29.4886
-29.3727
-29.4969
-30.3714
-33.2939
-38.6858
-46.0856
-52.4435
-61.1208
4.76906
6.45093
8.30727
10.2939
12.2247
14.1283
15.969
17.6353
19.0777
20.3104
21.3375
22.1737
22.8585
23.4225
23.8893
24.2816
24.6126
24.8922
25.1246
25.3111
25.4471
25.5249
25.5299
25.4426
25.2499
24.9508
24.542
24.0166
23.3707
22.6035
21.7182
20.722
19.6274
18.455
17.2345
16.015
14.8666
13.9276
13.359
3.01416
1.29769
-0.567529
-2.45759
-4.27001
-6.10496
-7.88017
-9.56348
-11.1769
-12.6991
-14.1338
-15.4943
-16.7807
-18.0012
-19.1655
-20.29
-21.3861
-22.4486
-23.4656
-24.4278
-25.3261
-26.1481
-26.8806
-27.5118
-28.0414
-28.4758
-28.8116
-29.0396
-29.1664
-29.2183
-29.2386
-29.3903
-29.8654
-30.9471
-33.7661
-38.946
-46.1753
-52.7505
-61.3269
4.67452
6.29268
8.07896
9.99092
11.848
13.6792
15.4521
17.0566
18.4446
19.6302
20.6177
21.4212
22.0791
22.6209
23.0703
23.4484
23.769
24.0412
24.2703
24.4572
24.5987
24.6875
24.7107
24.6498
24.4925
24.2376
23.8818
23.4182
22.8424
22.1531
21.3523
20.4461
19.4457
18.3698
17.2462
16.1199
15.0546
14.1733
13.6136
2.98186
1.33036
-0.464814
-2.28388
-4.02783
-5.7928
-7.50037
-9.11916
-10.67
-12.1331
-13.5119
-14.8193
-16.0557
-17.2294
-18.3485
-19.429
-20.4837
-21.5088
-22.4932
-23.4285
-24.3068
-25.1173
-25.8481
-26.4892
-27.0422
-27.5175
-27.9172
-28.2385
-28.4909
-28.708
-28.9371
-29.3053
-30.0436
-31.3306
-33.9883
-38.8349
-45.783
-52.4659
-60.8699
4.57953
6.13605
7.85496
9.69457
11.4806
13.2424
14.9493
16.4941
17.8294
18.9698
19.9189
20.6909
21.3229
21.8435
22.2758
22.6403
22.9506
23.2155
23.4407
23.6273
23.7728
23.8709
23.9096
23.8721
23.7462
23.5312
23.2238
22.817
22.3064
21.6901
20.9693
20.1489
19.2388
18.2558
17.2252
16.1878
15.2001
14.3702
13.8146
2.94761
1.35873
-0.368543
-2.11898
-3.79644
-5.49431
-7.1363
-8.69238
-10.1832
-11.5892
-12.914
-14.1704
-15.3585
-16.487
-17.5627
-18.6009
-19.6158
-20.6049
-21.558
-22.4675
-23.3266
-24.1258
-24.8548
-25.5048
-26.0788
-26.5904
-27.0461
-27.4485
-27.8096
-28.164
-28.5661
-29.112
-30.0233
-31.4853
-33.983
-38.3691
-44.8771
-51.5118
-59.6352
4.48465
5.98183
7.63536
9.40538
11.1229
12.8171
14.4607
15.9475
17.232
18.3285
19.2407
19.9823
20.5893
21.0895
21.5053
21.8566
22.1568
22.4144
22.6353
22.8209
22.9693
23.0748
23.1271
23.1097
23.0121
22.833
22.5694
22.2148
21.7644
21.216
20.5704
19.8312
19.0069
18.1124
17.1702
16.2166
15.3008
14.516
13.9606
2.91208
1.38388
-0.277848
-1.96182
-3.57521
-5.20762
-6.78633
-8.28211
-9.71453
-11.0654
-12.338
-13.5449
-14.6865
-15.7713
-16.8052
-17.8027
-18.7791
-19.7334
-20.6563
-21.5407
-22.3808
-23.1686
-23.8949
-24.5519
-25.1436
-25.686
-26.1891
-26.6592
-27.1106
-27.5759
-28.1123
-28.8002
-29.8152
-31.3758
-33.7568
-37.61
-43.4906
-49.8664
-57.5492
4.39055
5.83018
7.42087
9.1232
10.7745
12.4041
13.9857
15.4165
16.6517
17.7057
18.5823
19.2946
19.8775
20.3581
20.758
21.0965
21.3867
21.637
21.8533
22.0375
22.1877
22.2995
22.363
22.3635
22.2906
22.1438
21.92
21.6128
21.2177
20.7324
20.1569
19.494
18.7506
17.9398
17.0812
16.2061
15.3569
14.6124
14.0551
2.87587
1.40628
-0.191874
-1.81149
-3.36255
-4.93208
-6.44926
-7.8863
-9.26249
-10.5599
-11.782
-12.941
-14.0373
-15.0797
-16.0732
-17.0315
-17.9707
-18.891
-19.7843
-20.644
-21.4651
-22.2407
-22.9628
-23.6242
-24.2294
-24.7961
-25.3371
-25.8609
-26.3837
-26.9352
-27.5687
-28.3591
-29.4349
-31.003
-33.2828
-36.6309
-41.7224
-47.5787
-54.6004
4.2976
5.6818
7.21129
8.84855
10.4359
12.0023
13.5243
14.9008
16.0883
17.1012
17.9432
18.6273
19.187
19.6486
20.0331
20.3592
20.6397
20.8827
21.0943
21.2764
21.4277
21.5443
21.6174
21.6332
21.5824
21.4643
21.2764
21.0124
20.6679
20.2405
19.7299
19.138
18.4704
17.738
16.9575
16.1556
15.3674
14.6585
14.0977
2.83947
1.42675
-0.109906
-1.6671
-3.15804
-4.66608
-6.12375
-7.50417
-8.82551
-10.0711
-11.2442
-12.3566
-13.409
-14.41
-15.3642
-16.2848
-17.1875
-18.0745
-18.9385
-19.7734
-20.5749
-21.3369
-22.0528
-22.7152
-23.3292
-23.9132
-24.4821
-25.0458
-25.621
-26.2348
-26.9331
-27.7846
-28.8878
-30.4012
-32.5359
-35.4632
-39.717
-44.8018
-50.8995
4.20636
5.53667
7.00731
8.58112
10.1066
11.6125
13.0762
14.3999
15.5411
16.5142
17.3228
17.9796
18.5169
18.9602
19.3298
19.644
19.9149
20.1507
20.3574
20.537
20.6887
20.809
20.89
20.9192
20.8876
20.7952
20.6393
20.4143
20.1158
19.7414
19.2904
18.7642
18.1669
17.5074
16.7996
16.0653
15.3331
14.6562
14.0919
2.80342
1.44569
-0.0312551
-1.52796
-2.96027
-4.40918
-5.80896
-7.13403
-8.40233
-9.59745
-10.7229
-11.79
-12.7996
-13.76
-14.676
-15.5598
-16.427
-17.2809
-18.1155
-18.9251
-19.7058
-20.4527
-21.1595
-21.8195
-22.4365
-23.0303
-23.6173
-24.2074
-24.8168
-25.4699
-26.205
-27.0806
-28.1769
-29.6049
-31.5397
-34.0945
-37.5826
-41.7503
-46.6909
4.11703
5.39542
6.80856
8.32138
9.78695
11.2336
12.6412
13.9137
15.0099
15.9444
16.7207
17.3509
17.8667
18.2922
18.6475
18.95
19.2116
19.4402
19.6418
19.8185
19.97
20.093
20.1806
20.2211
20.2064
20.1364
20.0093
19.8193
19.5623
19.236
18.8396
18.3734
17.8408
17.2486
16.6078
15.9356
15.2544
14.6061
14.0384
2.76804
1.46373
0.0446372
-1.39335
-2.76909
-4.16006
-5.50375
-6.77531
-7.99174
-9.13776
-10.2167
-11.2396
-12.2073
-13.1281
-14.0066
-14.8542
-15.6862
-16.5071
-17.312
-18.0954
-18.854
-19.5835
-20.2784
-20.9311
-21.5457
-22.1423
-22.7372
-23.3409
-23.9677
-24.6391
-25.3861
-26.2554
-27.312
-28.6343
-30.3447
-32.532
-35.3592
-38.625
-42.306
4.03009
5.25782
6.61573
8.06872
9.4764
10.8662
12.2188
13.4415
14.4941
15.3911
16.136
16.7407
17.2354
17.6439
17.9852
18.2764
18.5289
18.7504
18.9468
19.1203
19.2708
19.3958
19.4886
19.5388
19.5384
19.4883
19.3865
19.2278
19.0081
18.7253
18.3782
17.9667
17.4931
16.9624
16.3828
15.7674
15.1328
14.5105
13.9407
2.73368
1.48117
0.118271
-1.26269
-2.58324
-3.91838
-5.20739
-6.42658
-7.5928
-8.6909
-9.72439
-10.704
-11.6307
-12.5124
-13.354
-14.1658
-14.9629
-15.7507
-16.5251
-17.2812
-18.0159
-18.7255
-19.4047
-20.0457
-20.6526
-21.2446
-21.8382
-22.4435
-23.0723
-23.7429
-24.4801
-25.3194
-26.3099
-27.5086
-28.9923
-30.8184
-33.0639
-35.5452
-38.0486
3.94554
5.12439
6.42811
7.82372
9.17515
10.5093
11.809
12.9834
13.9936
14.8542
15.5685
16.1483
16.6227
17.0145
17.3423
17.6225
17.866
18.0804
18.2715
18.4415