/*--------------------------------*- C++ -*----------------------------------*\
  =========                 |
  \\      /  F ield         | OpenFOAM: The Open Source CFD Toolbox
   \\    /   O peration     | Website:  https://openfoam.org
    \\  /    A nd           | Version:  9
     \\/     M anipulation  |
\*---------------------------------------------------------------------------*/
FoamFile
{
    format      ascii;
    class       surfaceScalarField;
    location    "140";
    object      phi;
}
// * * * * * * * * * * * * * * * * * * * * * * * * * * * * * * * * * * * * * //

dimensions      [0 3 -1 0 0 0 0];

internalField   nonuniform List<scalar> 
21254
(
-0.146198
0.150138
-0.00393903
0.154961
-0.00482279
0.157339
-0.00237708
0.158309
-0.000968479
0.158254
5.64203e-05
0.155786
0.00246915
0.151337
0.00445028
0.145374
0.00596433
0.137581
0.00779464
0.128605
0.00897787
0.1186
0.0100071
0.107522
0.0110794
0.0954853
0.0120389
0.0822728
0.0132148
0.0675507
0.0147247
0.0511816
0.0163722
0.0332819
0.0179026
0.0150428
0.0182421
-0.000931154
0.0159784
-0.0124183
0.0114989
-0.0193622
0.00695617
-0.0234828
0.00412879
-0.026354
0.00288298
-0.0296793
0.00332967
-0.0344655
0.00477996
-0.0401322
0.00569909
-0.0451502
0.00504922
-0.0480886
0.00291409
-0.0478766
-0.000193221
-0.0435864
-0.00409701
-0.034705
-0.00884923
-0.0210973
-0.0130144
-0.00159853
-0.0202337
0.00702912
-0.0142992
0.0171899
-0.00562878
0.0191242
-0.00176594
0.000298423
0.0178573
0.0208367
-0.0217204
0.0467602
-0.0371484
-0.139935
-0.00626192
-0.133699
-0.00623504
-0.124579
-0.0091188
-0.113625
-0.0109535
-0.101359
-0.0122655
-0.0877088
-0.0136506
-0.0730584
-0.0146501
-0.0583186
-0.014739
-0.0442679
-0.0140497
-0.0311878
-0.0130787
-0.0193858
-0.0118004
-0.00888898
-0.0104942
0.000589962
-0.00947511
0.00918357
-0.00858941
0.0169169
-0.00772988
0.0238096
-0.00688935
0.0300283
-0.00621596
0.0357129
-0.00568217
0.0410074
-0.00529311
0.046004
-0.00499533
0.0507952
-0.00479183
0.0554206
-0.0046263
0.0598878
-0.00447111
0.064017
-0.00413291
0.0677307
-0.00371578
0.0711101
-0.00337929
0.0741528
-0.00304233
0.076899
-0.00274777
0.0793613
-0.00247166
0.0816
-0.00222313
0.0836196
-0.00201361
0.0854846
-0.00185791
0.0872536
-0.00175942
0.0890242
-0.00176217
0.0909329
-0.00188832
0.0932735
-0.00227123
0.0963158
-0.00305247
0.102796
-0.00740285
0.121944
-0.0177542
-0.138648
0.145231
-0.0105226
0.151616
-0.0112072
0.157703
-0.00846375
0.162874
-0.00613732
0.167707
-0.00477576
0.17194
-0.00176215
0.175337
0.00105395
0.177718
0.00358439
0.178646
0.00686841
0.177899
0.00972721
0.175256
0.0126521
0.170518
0.0158189
0.163504
0.0190547
0.153927
0.0227935
0.141358
0.0272948
0.125108
0.0326233
0.104554
0.0384562
0.0795345
0.0432593
0.050944
0.0445653
0.0227452
0.0396926
0.000495234
0.0291993
-0.0135182
0.0181312
-0.0220136
0.0113651
-0.0281512
0.0094438
-0.0333842
0.00998004
-0.0378579
0.0101489
-0.0411559
0.00833845
-0.0428668
0.00462051
-0.0424079
-0.000612401
-0.0381545
-0.00820267
-0.0284282
-0.0184432
-0.0124346
-0.0287353
0.00523221
-0.0378362
0.013421
-0.0241736
0.0171217
-0.00769674
0.00996377
0.00525789
-0.00193462
0.0291432
0.00635082
-0.0308086
0.0433599
-0.080101
-0.13154
-0.0133688
-0.123842
-0.013932
-0.114532
-0.0184281
-0.104202
-0.0212825
-0.0926616
-0.0238063
-0.0800167
-0.026295
-0.0668116
-0.0278546
-0.0535653
-0.0279843
-0.0407593
-0.0268545
-0.0285719
-0.0252648
-0.0172381
-0.0231328
-0.00682269
-0.0209078
0.00263458
-0.0189305
0.0111489
-0.0171015
0.0188602
-0.0154389
0.0259105
-0.013937
0.0323942
-0.0126974
0.0384148
-0.0117003
0.044077
-0.0109534
0.0494523
-0.0103687
0.0546173
-0.0099563
0.0596227
-0.00963165
0.0644697
-0.00932041
0.0690291
-0.00869478
0.0732003
-0.00788815
0.0770397
-0.00721856
0.0805484
-0.00655022
0.0837468
-0.00594847
0.0866522
-0.0053883
0.0893045
-0.00486389
0.0917124
-0.00441874
0.0939391
-0.00408006
0.096031
-0.00384648
0.0980932
-0.00381572
0.10026
-0.00404438
0.102906
-0.00485698
0.106154
-0.00628659
0.11362
-0.0157026
0.129487
-0.0323116
-0.135512
0.141796
-0.0168056
0.147724
-0.017135
0.153696
-0.014435
0.158654
-0.0110945
0.162658
-0.00877758
0.165857
-0.00496096
0.168051
-0.00113879
0.169608
0.00203
0.170487
0.00599149
0.17094
0.00927617
0.170868
0.0127265
0.170207
0.0164814
0.168634
0.0206291
0.165972
0.0254574
0.161525
0.0317443
0.154636
0.039515
0.143755
0.0493396
0.127127
0.05989
0.102919
0.0687781
0.0717423
0.0708762
0.0383458
0.0626074
0.0104353
0.0460559
-0.00776304
0.0295844
-0.0182561
0.019959
-0.024951
0.0167005
-0.0299353
0.0151819
-0.0338151
0.0122678
-0.0362753
0.00706373
-0.0363588
-0.00054499
-0.032434
-0.012066
-0.0229211
-0.0280275
-0.00701104
-0.0444145
0.00992384
-0.0552156
0.0178791
-0.0340187
0.0160332
-0.00401221
0.00273856
0.0187282
-0.00565747
0.0372759
0.00139961
-0.0381198
0.0400137
-0.12178
-0.128868
-0.0200122
-0.121047
-0.0217514
-0.111251
-0.0282234
-0.10055
-0.0319845
-0.0888617
-0.0354935
-0.0761491
-0.0390076
-0.0629576
-0.0410451
-0.0501115
-0.0408291
-0.0377024
-0.0392622
-0.0258661
-0.0370997
-0.0148856
-0.0341118
-0.00473633
-0.0310553
0.00458672
-0.0282514
0.0130932
-0.0256059
0.0208973
-0.0232408
0.0281062
-0.0211439
0.034799
-0.0193881
0.0410581
-0.0179578
0.046966
-0.01686
0.0525931
-0.0159955
0.0580177
-0.0153813
0.0632732
-0.0148886
0.0683582
-0.0144083
0.073184
-0.0135239
0.0776515
-0.0123578
0.0817806
-0.0113485
0.0855944
-0.0103642
0.0891082
-0.00946405
0.0923521
-0.00863669
0.0953532
-0.00785404
0.0981374
-0.00719824
0.100747
-0.00668175
0.103248
-0.00633926
0.105724
-0.00628489
0.108311
-0.00661045
0.11138
-0.00786206
0.11504
-0.00996982
0.122655
-0.023857
0.137204
-0.0459516
-0.132839
0.139892
-0.0238582
0.146567
-0.0238097
0.153454
-0.0213212
0.159332
-0.0169706
0.164459
-0.0139051
0.168736
-0.00923592
0.172122
-0.00452292
0.174377
-0.00022344
0.17561
0.00476137
0.175811
0.00907758
0.175068
0.0134708
0.173517
0.0180344
0.171327
0.0228215
0.168647
0.0281392
0.165723
0.0346694
0.162336
0.0429036
0.157954
0.0537216
0.150715
0.0671282
0.137499
0.0819922
0.114784
0.093589
0.082283
0.0951037
0.0461231
0.0822087
0.0156657
0.0600305
-0.00386666
0.0394719
-0.0148349
0.0276377
-0.0217827
0.0220998
-0.026839
0.0173008
-0.0300997
0.0103119
-0.0306292
6.91108e-06
-0.0270785
-0.0155349
-0.0180402
-0.0369984
-0.00272399
-0.05959
0.0136389
-0.0714517
0.0213736
-0.0423772
0.0151
0.00282604
-0.00166157
0.0353468
-0.00732351
0.0426019
-0.000899754
-0.0449944
0.0357916
-0.161227
-0.125692
-0.0271586
-0.117669
-0.029774
-0.1076
-0.0382913
-0.0967894
-0.0427952
-0.0850253
-0.0472578
-0.0722434
-0.0517885
-0.0591576
-0.0541297
-0.0465081
-0.0534769
-0.0343818
-0.0513868
-0.0228573
-0.0486224
-0.0121744
-0.0447929
-0.00228978
-0.0409381
0.0068758
-0.0374149
0.0153267
-0.034055
0.0231505
-0.0310625
0.0304581
-0.0284496
0.0372999
-0.0262279
0.0437447
-0.0244008
0.0498664
-0.02298
0.0557296
-0.0218576
0.061383
-0.0210342
0.0668696
-0.0203758
0.0721926
-0.0197331
0.0772615
-0.0185952
0.0819819
-0.0170797
0.0863642
-0.0157312
0.090423
-0.0144224
0.0941786
-0.013221
0.0976485
-0.0121133
0.100882
-0.0110805
0.103897
-0.0102114
0.106748
-0.00952835
0.109493
-0.00907963
0.112235
-0.00901908
0.115102
-0.00946465
0.118473
-0.0111766
0.122464
-0.0139436
0.130117
-0.03205
0.143565
-0.0584233
-0.132165
0.139523
-0.0312149
0.14654
-0.0308248
0.154001
-0.0287817
0.160186
-0.0231544
0.165795
-0.0195131
0.170593
-0.0140332
0.174412
-0.0083403
0.17716
-0.00296797
0.179043
0.00288027
0.179817
0.00830588
0.17962
0.0136708
0.178444
0.0192113
0.176474
0.0247931
0.173645
0.0309706
0.170263
0.0380535
0.166677
0.046492
0.163272
0.0571293
0.159898
0.0705054
0.154587
0.0873079
0.143155
0.105028
0.120485
0.117782
0.0864272
0.11628
0.0487053
0.0977701
0.0180527
0.070151
-0.00103831
0.0467642
-0.0119753
0.0331042
-0.0190709
0.0244614
-0.0235503
0.0147949
-0.0247914
0.001228
-0.0217975
-0.0185064
-0.0134826
-0.0453988
0.000938745
-0.0738508
0.0166902
-0.0875732
0.0241873
-0.0512392
0.0147728
0.0134255
-0.00396355
0.0542818
-0.00773349
0.0462239
-0.00239641
-0.0504392
0.0301526
-0.195306
-0.124529
-0.0347949
-0.116136
-0.0381656
-0.105453
-0.0489747
-0.0942206
-0.054027
-0.0820746
-0.0594029
-0.0689779
-0.0648844
-0.0556531
-0.0674528
-0.0429254
-0.0662027
-0.0308927
-0.0634177
-0.0195499
-0.0599632
-0.00906161
-0.0552794
0.000590515
-0.050588
0.00956917
-0.0463916
0.0179133
-0.0423971
0.0257039
-0.0388513
0.0330409
-0.0357846
0.0399811
-0.0331664
0.0465758
-0.0309939
0.0528805
-0.0292839
0.0589483
-0.027925
0.064826
-0.0269124
0.0705383
-0.0260893
0.0760926
-0.0252898
0.0814064
-0.0239119
0.0863822
-0.0220579
0.091016
-0.0203662
0.0953183
-0.0187253
0.099311
-0.0172153
0.103011
-0.0158145
0.106457
-0.0145196
0.109673
-0.0134223
0.112723
-0.0125721
0.115666
-0.0120127
0.118596
-0.0119441
0.12167
-0.012518
0.125257
-0.0147038
0.129505
-0.018221
0.137089
-0.0399019
0.149712
-0.070537
-0.131963
0.139761
-0.0390118
0.147421
-0.0384831
0.155453
-0.0368123
0.162216
-0.029916
0.168289
-0.0255866
0.173749
-0.0194903
0.178045
-0.0126341
0.181468
-0.00638886
0.183857
0.000494336
0.185259
0.00690592
0.185685
0.0132464
0.185052
0.0198462
0.183489
0.026358
0.180996
0.0334653
0.177614
0.0414369
0.173724
0.050383
0.169594
0.0612601
0.165868
0.074231
0.162766
0.0904094
0.158212
0.10958
0.146694
0.129297
0.122495
0.140472
0.0864835
0.133773
0.0484901
0.108128
0.0192032
0.0760242
0.00119362
0.0510802
-0.00949052
0.0351128
-0.0159679
0.0212489
-0.0184217
0.00369008
-0.0162957
-0.0205766
-0.00898126
-0.0526802
0.0042357
-0.0869468
0.0192327
-0.102411
0.0264774
-0.058786
0.0149692
0.025172
-0.0048468
0.0739475
-0.00763624
0.0487614
-0.00388385
-0.0545534
0.0229763
-0.223898
-0.123903
-0.0428539
-0.115144
-0.0469245
-0.103891
-0.0602269
-0.0921141
-0.0658032
-0.0794833
-0.0720335
-0.0659435
-0.0784229
-0.0522666
-0.0811278
-0.0393581
-0.079109
-0.0272807
-0.0754928
-0.0159816
-0.0712601
-0.00562387
-0.0656348
0.00386019
-0.0600697
0.0126748
-0.0552041
0.0208841
-0.0506042
0.0286023
-0.0465675
0.0359303
-0.0431106
0.042923
-0.0401574
0.0496212
-0.0376904
0.056075
-0.0357364
0.0623222
-0.0341713
0.0683992
-0.0329892
0.074329
-0.0320198
0.0801089
-0.0310715
0.085677
-0.0294823
0.0909125
-0.0272952
0.0957944
-0.0252487
0.100351
-0.0232808
0.104583
-0.0214476
0.108516
-0.0197503
0.112186
-0.0181837
0.115618
-0.0168511
0.118866
-0.0158156
0.121994
-0.0151352
0.125122
-0.0150639
0.128372
-0.0157527
0.13215
-0.0184281
0.136613
-0.0226619
0.144108
-0.0476985
0.156018
-0.0817879
-0.132646
0.141014
-0.0473782
0.149052
-0.0465193
0.157701
-0.0454602
0.164995
-0.0372088
0.171594
-0.0321835
0.177468
-0.0253638
0.182288
-0.0174517
0.186071
-0.0101687
0.18895
-0.00238293
0.190814
0.00504451
0.191682
0.0123804
0.191642
0.0198878
0.190641
0.0273602
0.188687
0.0354206
0.185868
0.0442579
0.182188
0.0540656
0.177946
0.0655053
0.173549
0.0786314
0.169727
0.0942355
0.166731
0.112582
0.162021
0.134016
0.148972
0.153532
0.122004
0.160758
0.0842684
0.145886
0.0471654
0.113163
0.0199208
0.0783868
0.00321212
0.0519029
-0.00654835
0.0310309
-0.0109934
0.00813307
-0.0102318
-0.0213212
-0.0042571
-0.0587425
0.00742198
-0.0984843
0.0214065
-0.116756
0.028301
-0.066828
0.0155205
0.0389259
-0.0048068
0.0944681
-0.00746645
0.051325
-0.00571478
-0.0563629
0.0143828
-0.244886
-0.124066
-0.0514335
-0.114806
-0.0561827
-0.102943
-0.0720905
-0.0905769
-0.0781686
-0.0773984
-0.085211
-0.0632593
-0.0925607
-0.0491098
-0.0952753
-0.0358603
-0.0923561
-0.0235881
-0.0877626
-0.0121807
-0.082665
-0.00187801
-0.0759349
0.00749882
-0.0694442
0.0161799
-0.0638829
0.0242602
-0.0586827
0.03188
-0.0541853
0.0391731
-0.0504021
0.046172
-0.0471546
0.0529351
-0.0444524
0.0595017
-0.0423019
0.0659043
-0.0405738
0.072163
-0.0392482
0.0782953
-0.0381535
0.0843019
-0.03708
0.0901068
-0.0352899
0.0956014
-0.0327924
0.10075
-0.0303994
0.105557
-0.0280892
0.110042
-0.0259328
0.114211
-0.0239217
0.118114
-0.0220801
0.121763
-0.020496
0.125223
-0.0192681
0.128561
-0.0184648
0.131872
-0.0183692
0.135326
-0.0191876
0.139284
-0.0223259
0.143956
-0.0273759
0.151339
-0.0551843
0.162601
-0.0927857
-0.133858
0.142769
-0.0562872
0.151405
-0.0551532
0.160707
-0.0547603
0.168449
-0.0449487
0.175548
-0.0392839
0.181906
-0.0317187
0.187124
-0.0226678
0.191436
-0.014479
0.194648
-0.00559159
0.196944
0.00275006
0.198319
0.0110075
0.198691
0.0195172
0.198123
0.0279289
0.196664
0.0368819
0.194324
0.0465995
0.191151
0.0572399
0.187274
0.069383
0.182869
0.0830365
0.178325
0.0987788
0.174479
0.116426
0.171562
0.136929
0.165958
0.159132
0.150119
0.176589
0.119843
0.176149
0.0810915
0.151893
0.045639
0.11381
0.0207492
0.076758
0.00577984
0.045969
-0.00180656
0.0157141
-0.00316802
-0.0199271
0.00100829
-0.0629081
0.0107325
-0.108099
0.023343
-0.129186
0.0297474
-0.0733758
0.0162881
0.0525025
-0.00418792
0.114792
-0.00747689
0.0543942
-0.00809722
-0.0560703
0.00453433
-0.258755
-0.124781
-0.0605092
-0.115038
-0.0659258
-0.102424
-0.0847041
-0.089372
-0.09122
-0.0755398
-0.0990428
-0.0607701
-0.107329
-0.0460287
-0.110015
-0.0323218
-0.10606
-0.0197608
-0.100321
-0.00818943
-0.0942336
0.00217724
-0.0862988
0.0114923
-0.0787567
0.0200721
-0.0724603
0.0280364
-0.0666447
0.0355705
-0.0617174
0.0427967
-0.0576264
0.0497784
-0.0541345
0.0565729
-0.0512455
0.0632189
-0.0489468
0.0697428
-0.0470969
0.0761579
-0.0456634
0.0824794
-0.0444758
0.0887026
-0.0433048
0.0947479
-0.0413375
0.100498
-0.0385443
0.105906
-0.035809
0.110975
-0.0331576
0.115717
-0.0306731
0.120136
-0.028341
0.124272
-0.0262102
0.128157
-0.0243744
0.131835
-0.0229399
0.135384
-0.0220074
0.138905
-0.0218809
0.142552
-0.0228151
0.146694
-0.0264158
0.151578
-0.0322319
0.158812
-0.062563
0.169463
-0.102984
-0.135701
0.145138
-0.0657235
0.154343
-0.0643562
0.164272
-0.0646875
0.172539
-0.0532159
0.180211
-0.0469525
0.187066
-0.0385745
0.192751
-0.0283499
0.197362
-0.0190877
0.201038
-0.00926501
0.203676
0.000113652
0.205354
0.00933113
0.206109
0.0187633
0.205979
0.0280607
0.204934
0.0379283
0.203027
0.0485082
0.200342
0.0599264
0.196905
0.0728225
0.192836
0.0871087
0.188275
0.103344
0.183683
0.121023
0.18004
0.14058
0.177048
0.162134
0.169685
0.183965
0.15019
0.195664
0.11672
0.185391
0.0776853
0.152894
0.0445642
0.109952
0.0223835
0.0681912
0.0100261
0.0280932
0.00546836
-0.0153323
0.00715545
-0.0646743
0.0144302
-0.115252
0.0252217
-0.140335
0.0308771
-0.0800608
0.0171956
0.0670325
-0.00321864
0.135423
-0.00781387
0.0589148
-0.0111413
-0.0527687
-0.00636672
-0.264069
-0.125988
-0.0702221
-0.115666
-0.0762467
-0.102305
-0.0980658
-0.0885973
-0.104927
-0.0740035
-0.113636
-0.0584943
-0.122837
-0.0430177
-0.125489
-0.0288002
-0.120275
-0.0158432
-0.113275
-0.00399557
-0.106078
0.00648528
-0.096777
0.0158238
-0.0880926
0.0243601
-0.0809944
0.0322424
-0.0745249
0.0396766
-0.0691498
0.046833
-0.0647811
0.0537645
-0.0610648
0.0605679
-0.0580476
0.0672631
-0.0556415
0.0738836
-0.0537171
0.0804385
-0.0522187
0.0869306
-0.0509689
0.0933511
-0.0497271
0.0996332
-0.0476221
0.105643
-0.0445567
0.111307
-0.0414749
0.11664
-0.0384924
0.121634
-0.0356697
0.126313
-0.0330213
0.130698
-0.0305929
0.134819
-0.0284897
0.138731
-0.0268468
0.142498
-0.0257646
0.146233
-0.0256118
0.150099
-0.026661
0.154435
-0.0306933
0.159513
-0.0373568
0.166587
-0.0696533
0.176658
-0.112932
-0.137922
0.14802
-0.0758214
0.157828
-0.0741615
0.168475
-0.075333
0.177264
-0.0620031
0.185361
-0.0550504
0.19275
-0.0459604
0.198849
-0.0344469
0.203879
-0.0241157
0.207913
-0.0132973
0.210894
-0.00286488
0.212926
0.00730027
0.214081
0.0176101
0.21427
0.0278731
0.213563
0.0386368
0.212089
0.0499833
0.209754
0.0622629
0.20671
0.0758676
0.203003
0.0908161
0.198793
0.107554
0.194159
0.125656
0.189614
0.145124
0.186363
0.165383
0.183004
0.187318
0.173016
0.205643
0.149267
0.209125
0.113013
0.189125
0.0747438
0.14819
0.0445969
0.0983071
0.0256021
0.0470711
0.016366
-0.0060823
0.0146151
-0.0629307
0.0188102
-0.119344
0.027237
-0.148575
0.0318301
-0.0847152
0.0181994
0.0807203
-0.00205255
0.155524
-0.00853297
0.0651918
-0.0149628
-0.0466466
-0.0178451
-0.262163
-0.127689
-0.080454
-0.116751
-0.0871851
-0.102551
-0.112266
-0.088009
-0.119468
-0.0726845
-0.12896
-0.0562996
-0.13922
-0.0400979
-0.141688
-0.0252425
-0.135128
-0.0118125
-0.126702
0.000403487
-0.118291
0.0110746
-0.107445
0.0204717
-0.0974871
0.029012
-0.0895322
0.0368561
-0.0823669
0.0442125
-0.0765043
0.0512836
-0.0718506
0.0581794
-0.0679589
0.0649523
-0.0648194
0.071678
-0.0623661
0.0783694
-0.0604082
0.085033
-0.0588824
0.0916793
-0.057616
0.0982962
-0.0563456
0.104804
-0.0541323
0.111055
-0.0508102
0.116983
-0.047404
0.122572
-0.0440817
0.127835
-0.0409311
0.13277
-0.0379563
0.137409
-0.0352255
0.141783
-0.0328545
0.145929
-0.0309812
0.149931
-0.0297576
0.153893
-0.0295622
0.157975
-0.0307219
0.162501
-0.0351658
0.167789
-0.0426093
0.174697
-0.0766061
0.184135
-0.122052
-0.140662
0.15136
-0.0865163
0.161755
-0.0845553
0.173108
-0.0866855
0.182543
-0.0714369
0.191228
-0.0637333
0.199117
-0.0538494
0.205567
-0.0408934
0.211036
-0.0295823
0.215431
-0.0176912
0.21876
-0.00619166
0.221085
0.00497668
0.22248
0.0162164
0.223025
0.0273294
0.222722
0.0389413
0.22152
0.0511867
0.219558
0.0642262
0.216844
0.0785833
0.213515
0.0941485
0.209611
0.11146
0.205229
0.130043
0.200489
0.14987
0.196262
0.169618
0.193447
0.190143
0.18913
0.209975
0.175526
0.222748
0.147337
0.217352
0.109351
0.186227
0.0729363
0.134775
0.0461152
0.0739294
0.0304512
0.00966447
0.0239557
-0.0565257
0.0242633
-0.119531
0.0296457
-0.154315
0.0327231
-0.0887508
0.0192929
0.0949352
-0.000776925
0.175821
-0.00963446
0.0739997
-0.0194821
-0.0367922
-0.0295032
-0.252562
-0.12973
-0.0913864
-0.118183
-0.098731
-0.103101
-0.127347
-0.0877201
-0.134848
-0.0714922
-0.145186
-0.0542566
-0.156454
-0.0371998
-0.158743
-0.0216435
-0.150681
-0.00763145
-0.140711
0.00496082
-0.130881
0.0159059
-0.118388
0.0254522
-0.107031
0.0340563
-0.0981341
0.0418672
-0.0901758
0.0491664
-0.0838019
0.0561856
-0.0788683
0.0630147
-0.0747869
0.0697702
-0.0715739
0.0764914
-0.0690867
0.0832278
-0.0671445
0.0899857
-0.0656406
0.0967656
-0.064397
0.103563
-0.0631441
0.110287
-0.0608596
0.116783
-0.0573085
0.122963
-0.053587
0.128821
-0.0499421
0.134346
-0.0464596
0.139551
-0.0431644
0.144449
-0.0401225
0.149071
-0.0374731
0.153473
-0.0353772
0.157712
-0.0339911
0.161908
-0.0337531
0.166216
-0.0350115
0.170946
-0.0398337
0.176422
-0.0481458
0.183137
-0.0832908
0.191949
-0.130822
-0.143728
0.155154
-0.0979409
0.166227
-0.0956265
0.178328
-0.0987857
0.188309
-0.0814166
0.197555
-0.0729794
0.205984
-0.0622759
0.212975
-0.0478828
0.218798
-0.0354025
0.223539
-0.0224305
0.227171
-0.00982158
0.229835
0.00231472
0.231575
0.0144772
0.232355
0.0265511
0.232306
0.0389916
0.231459
0.0520345
0.229809
0.0658784
0.227389
0.0810045
0.224307
0.0972312
0.220672
0.115095
0.216607
0.134108
0.212081
0.154395
0.20742
0.174278
0.203791
0.193769
0.201299
0.212461
0.195003
0.229033
0.176883
0.235455
0.14475
0.218338
0.106314
0.173185
0.0722997
0.107926
0.0487659
0.0332025
0.0358863
-0.0436595
0.0312267
-0.114774
0.0327371
-0.155646
0.0337534
-0.0897796
0.0204906
0.108239
0.000563147
0.195601
-0.0110669
0.085436
-0.0245966
-0.023557
-0.041051
-0.236914
-0.132153
-0.102959
-0.11987
-0.111013
-0.103906
-0.14331
-0.0876023
-0.151151
-0.0704617
-0.162326
-0.0522839
-0.17463
-0.0342832
-0.176741
-0.0179773
-0.166984
-0.0033582
-0.155328
0.00973859
-0.143975
0.0210307
-0.129677
0.0307771
-0.116775
0.0394499
-0.106805
0.0473051
-0.098029
0.0545797
-0.0910749
0.0615379
-0.085825
0.0683155
-0.0815633
0.0750223
-0.0782796
0.0817408
-0.0758047
0.0885002
-0.0739034
0.0953235
-0.0724641
0.10222
-0.0712945
0.109187
-0.0701123
0.116122
-0.0677974
0.122852
-0.064041
0.129285
-0.0600217
0.1354
-0.0560591
0.141197
-0.0522568
0.146661
-0.048629
0.15183
-0.0452854
0.156715
-0.0423475
0.161368
-0.0400154
0.165863
-0.0384716
0.170291
-0.0381671
0.174837
-0.0395327
0.179762
-0.0447059
0.185414
-0.0537543
0.191965
-0.0898218
0.200139
-0.138766
-0.147261
0.159317
-0.109994
0.171106
-0.107415
0.184002
-0.111681
0.194667
-0.0920815
0.204526
-0.0828357
0.213491
-0.0712405
0.220946
-0.0553348
0.227211
-0.0416656
0.232266
-0.0274833
0.23622
-0.0137739
0.239148
-0.000611377
0.241137
0.012489
0.24225
0.0254389
0.24249
0.0387531
0.241894
0.0526317
0.240492
0.0672815
0.238362
0.0831364
0.23556
0.100035
0.232167
0.11849
0.228289
0.137989
0.224043
0.158646
0.219411
0.178915
0.21504
0.198148
0.212209
0.2153
0.20942
0.231836
0.199939
0.244957
0.17701
0.241304
0.141868
0.208366
0.103652
0.146195
0.0720213
0.0649249
0.0511591
-0.0228894
0.0402263
-0.103757
0.0368618
-0.152644
0.0350911
-0.0889158
0.0218429
0.122225
0.00196753
0.21573
-0.0127451
0.100117
-0.0301496
-0.00612182
-0.0523873
-0.214968
-0.134874
-0.115345
-0.121945
-0.123941
-0.104965
-0.160289
-0.0877235
-0.168392
-0.0695484
-0.1805
-0.0503051
-0.193872
-0.0313826
-0.195661
-0.0142074
-0.184157
0.00109249
-0.170625
0.0147365
-0.157616
0.0264048
-0.141343
0.0363989
-0.126767
0.0452536
-0.115658
0.0531587
-0.105933
0.0604471
-0.0983618
0.0673796
-0.0927563
0.0741022
-0.0882848
0.0807537
-0.0849304
0.0874411
-0.0824917
0.0942175
-0.0806797
0.101094
-0.0793411
0.108096
-0.0782973
0.115204
-0.0772217
0.122339
-0.0749345
0.129298
-0.071003
0.135976
-0.0667029
0.14235
-0.0624374
0.148406
-0.0583174
0.154147
-0.0543748
0.159585
-0.0507249
0.164741
-0.0475023
0.169662
-0.0449332
0.174411
-0.0432149
0.17909
-0.0428453
0.18387
-0.0442943
0.189004
-0.0497791
0.194824
-0.0596436
0.201159
-0.0961097
0.208686
-0.146295
-0.151091
0.16391
-0.122813
0.176455
-0.119959
0.1902
-0.125425
0.201543
-0.103424
0.212003
-0.0932963
0.22155
-0.0807841
0.229514
-0.063297
0.23617
-0.048319
0.241618
-0.0329292
0.245869
-0.0180226
0.24912
-0.00386084
0.251363
0.0102465
0.252722
0.024081
0.25321
0.0382673
0.252807
0.0530355
0.251693
0.0683973
0.249807
0.0850229
0.247228
0.102616
0.244071
0.121648
0.2404
0.14166
0.236363
0.162684
0.232007
0.183271
0.227435
0.202718
0.223709
0.219024
0.221429
0.23411
0.217128
0.24925
0.203449
0.254969
0.175813
0.235987
0.138073
0.183925
0.100109
0.102896
0.0704048
0.00680278
0.0517647
-0.0850211
0.0423865
-0.143107
0.0370104
-0.0835292
0.0234259
0.13586
0.00346364
0.235552
-0.0144979
0.117896
-0.0360346
0.0151498
-0.06349
-0.188149
-0.138027
-0.128407
-0.124199
-0.137768
-0.10624
-0.178247
-0.0879438
-0.186687
-0.0687517
-0.199691
-0.0484316
-0.214191
-0.0283977
-0.215693
-0.0103392
-0.202213
0.00574324
-0.186705
0.0199816
-0.171852
0.0321109
-0.15347
0.0424072
-0.137061
0.0514469
-0.124696
0.0594602
-0.113944
0.0667611
-0.105661
0.0736788
-0.099673
0.0803693
-0.0949743
0.0869802
-0.0915406
0.0936387
-0.0891495
0.100409
-0.08745
0.107325
-0.0862573
0.114402
-0.0853749
0.121654
-0.0844751
0.128974
-0.0822577
0.136149
-0.0781805
0.143065
-0.0736225
0.149694
-0.0690697
0.156021
-0.0646468
0.162034
-0.0603903
0.167747
-0.0564337
0.173175
-0.0529206
0.178362
-0.0501033
0.183378
-0.048212
0.188311
-0.0477599
0.193333
-0.0492902
0.198666
-0.055057
0.204635
-0.065563
0.210802
-0.102216
0.217633
-0.152951
-0.155276
0.168944
-0.136479
0.182248
-0.133263
0.196887
-0.140064
0.208913
-0.115449
0.220034
-0.104415
0.230257
-0.0910062
0.238681
-0.0717178
0.245796
-0.0554316
0.25168
-0.0388114
0.256261
-0.0226024
0.25976
-0.00735776
0.262273
0.00773437
0.263799
0.0225561
0.264524
0.0375431
0.264417
0.0531439
0.2635
0.0693154
0.261844
0.0866807
0.259472
0.104989
0.256436
0.124685
0.252921
0.145178
0.249048
0.166559
0.244879
0.187443
0.240467
0.207134
0.236192
0.223304
0.233122
0.237185
0.230626
0.251758
0.223591
0.262023
0.204895
0.254712
0.172224
0.216633
0.131724
0.143477
0.0938677
0.0445444
0.0663069
-0.0574269
0.0497121
-0.126846
0.0397441
-0.0745166
0.0253625
0.150907
0.00513298
0.256059
-0.0161444
0.139169
-0.0420012
0.0410737
-0.0743631
-0.155957
-0.141409
-0.142274
-0.126849
-0.152326
-0.107738
-0.197357
-0.0883673
-0.206058
-0.0680438
-0.220014
-0.0465195
-0.235714
-0.0253946
-0.236816
-0.00632278
-0.221283
0.0105331
-0.203558
0.0254665
-0.186784
0.0380795
-0.166081
0.048749
-0.147729
0.0580435
-0.133989
0.066187
-0.122086
0.0735711
-0.113044
0.0804862
-0.106587
0.0871508
-0.101638
0.0937351
-0.0981241
0.100359
-0.095773
0.107115
-0.0942061
0.114047
-0.0931896
0.121196
-0.0925249
0.128567
-0.0918479
0.136066
-0.0897587
0.143452
-0.0855692
0.150598
-0.0807727
0.157476
-0.0759524
0.164062
-0.0712383
0.170349
-0.0666838
0.176334
-0.062423
0.182044
-0.0586312
0.187514
-0.0555717
0.192793
-0.0534894
0.197992
-0.0529594
0.203263
-0.0545448
0.208794
-0.0605265
0.214895
-0.071747
0.220858
-0.108128
0.226987
-0.15911
-0.159874
0.174391
-0.150995
0.188496
-0.147368
0.20405
-0.155618
0.216804
-0.128202
0.228679
-0.11629
0.239539
-0.101863
0.248512
-0.0806883
0.256106
-0.0630242
0.262361
-0.0450641
0.267249
-0.0274891
0.27103
-0.011137
0.273797
0.00496814
0.27563
0.0207245
0.276527
0.0366471
0.276607
0.0530652
0.275883
0.0700406
0.274408
0.0881566
0.272213
0.107185
0.269408
0.127492
0.266015
0.148572
0.26221
0.170366
0.25819
0.191464
0.253982
0.211344
0.249643
0.227642
0.245674
0.241153
0.2428
0.254629
0.238939
0.265879
0.227736
0.265908
0.202748
0.241622
0.164126
0.182113
0.120667
0.0880131
0.0840307
-0.0206775
0.0591807
-0.101856
0.0436175
-0.0589355
0.0278078
0.166787
0.00708065
0.276668
-0.0174805
0.163562
-0.0476821
0.0710624
-0.0849085
-0.119202
-0.145118
-0.157029
-0.12966
-0.167783
-0.109422
-0.217595
-0.0888965
-0.226582
-0.067384
-0.241526
-0.0446066
-0.25849
-0.0222729
-0.259148
-0.00216864
-0.241385
0.0155837
-0.221309
0.0312439
-0.202442
0.0444273
-0.179263
0.0554965
-0.158797
0.0650477
-0.143539
0.0733969
-0.130434
0.0808484
-0.120495
0.087825
-0.113563
0.0944674
-0.10828
0.101026
-0.104682
0.107617
-0.102363
0.114357
-0.100947
0.121307
-0.10014
0.128505
-0.099724
0.135989
-0.099333
0.143645
-0.0974178
0.151234
-0.0931612
0.158599
-0.0881431
0.16572
-0.0830777
0.172565
-0.0780885
0.179124
-0.0732471
0.185393
-0.0686912
0.191384
-0.0646151
0.197127
-0.0612992
0.202693
-0.0590335
0.208153
-0.0583983
0.213674
-0.0600357
0.219402
-0.066201
0.225613
-0.0779024
0.231392
-0.113822
0.23683
-0.164406
-0.164776
0.180146
-0.166364
0.195152
-0.162375
0.21171
-0.172176
0.225257
-0.141748
0.237885
-0.128916
0.249394
-0.11337
0.258974
-0.0902659
0.267071
-0.0711181
0.273707
-0.0516984
0.27895
-0.0327313
0.283082
-0.0152686
0.286069
0.00198211
0.288103
0.018692
0.289219
0.0355324
0.28946
0.0528244
0.288925
0.0705767
0.287601
0.0894822
0.285577
0.10921
0.282875
0.130196
0.279637
0.15181
0.27591
0.174094
0.271932
0.195443
0.267869
0.215409
0.263676
0.231836
0.259307
0.245523
0.255332
0.258608
0.251834
0.269384
0.245043
0.272712
0.227634
0.259048
0.194393
0.215395
0.149128
0.133148
0.104711
0.0237308
0.0710416
-0.0685668
0.0488717
-0.0376489
0.0309651
0.185245
0.00947158
0.29845
-0.0182685
0.191328
-0.0527099
0.105589
-0.0948234
-0.0771458
-0.149128
-0.172677
-0.132767
-0.184145
-0.111313
-0.239047
-0.0895356
-0.248359
-0.0667812
-0.264279
-0.0426993
-0.282571
-0.0190357
-0.282809
0.00215015
-0.262568
0.0208669
-0.240023
0.0373003
-0.218873
0.0510863
-0.193047
0.0625975
-0.170307
0.0725095
-0.153449
0.08105
-0.138974
0.0886502
-0.128094
0.0956752
-0.120587
0.10235
-0.114954
0.108884
-0.111216
0.115453
-0.108932
0.12217
-0.107663
0.129118
-0.107089
0.136365
-0.106971
0.143947
-0.106917
0.151766
-0.105239
0.15953
-0.100929
0.167113
-0.0957297
0.174466
-0.0904365
0.18157
-0.0851981
0.188394
-0.0800781
0.194942
-0.0752445
0.201217
-0.0708939
0.207252
-0.0673356
0.213094
-0.064875
0.21882
-0.0641277
0.224596
-0.0657935
0.230515
-0.0720635
0.236824
-0.0843058
0.242416
-0.119367
0.247115
-0.169155
-0.170083
0.186398
-0.18268
0.202351
-0.178327
0.219856
-0.189681
0.234329
-0.156222
0.247652
-0.142238
0.259945
-0.125661
0.270091
-0.100409
0.278709
-0.0797342
0.285808
-0.0587958
0.291435
-0.0383568
0.295776
-0.0196093
0.299065
-0.00130591
0.301271
0.0164865
0.302575
0.0342304
0.303039
0.0523607
0.302624
0.0709938
0.301474
0.0906327
0.299575
0.111111
0.29702
0.132752
0.293855
0.154977
0.2902
0.17775
0.286277
0.199369
0.282215
0.219473
0.27815
0.235905
0.27371
0.249964
0.268874
0.263446
0.264342
0.273918
0.25889
0.278167
0.246883
0.271067
0.220364
0.241935
0.177106
0.176439
0.127464
0.0735015
0.0852832
-0.0262557
0.0557894
-0.0081235
0.0350591
0.206061
0.0124913
0.320924
-0.0182461
0.221922
-0.0566685
0.143854
-0.103607
-0.0305177
-0.153495
-0.189264
-0.136141
-0.201497
-0.113369
-0.261819
-0.0903271
-0.2714
-0.0662063
-0.2884
-0.0407236
-0.308053
-0.0157502
-0.307781
0.00668167
-0.284998
0.0263829
-0.259722
0.0436853
-0.236174
0.0581366
-0.207497
0.07016
-0.182329
0.0804278
-0.163716
0.0892325
-0.147778
0.0969831
-0.135844
0.104096
-0.127699
0.110812
-0.12167
0.11734
-0.117744
0.123884
-0.115476
0.130589
-0.114368
0.137542
-0.114042
0.144819
-0.11425
0.15249
-0.114589
0.160446
-0.113198
0.168394
-0.10888
0.176177
-0.103518
0.183754
-0.0980197
0.191099
-0.0925492
0.198192
-0.0871775
0.205013
-0.0820676
0.211577
-0.0774549
0.217894
-0.0736393
0.224026
-0.0709878
0.230034
-0.070112
0.236047
-0.0717753
0.242171
-0.0781347
0.248546
-0.0906252
0.253986
-0.124709
0.257992
-0.173037
-0.175731
0.193044
-0.199993
0.209916
-0.1952
0.2286
-0.208366
0.243842
-0.171463
0.258083
-0.156477
0.271099
-0.138676
0.281953
-0.11126
0.291059
-0.0888376
0.298618
-0.066353
0.304595
-0.0443328
0.309314
-0.0243275
0.3128
-0.00479177
0.315281
0.0140069
0.316759
0.032753
0.317362
0.0517589
0.317107
0.0712494
0.316063
0.0916774
0.314253
0.112921
0.311758
0.135249
0.308669
0.158067
0.305092
0.181327
0.301139
0.203323
0.297051
0.22356
0.293037
0.239918
0.288674
0.254326
0.283441
0.268677
0.277656
0.279703
0.27152
0.284301
0.262005
0.280585
0.241427
0.262508
0.202657
0.215102
0.150951
0.125121
0.101553
0.0227958
0.0644524
0.0282223
0.040344
0.230577
0.0163775
0.345169
-0.0171477
0.255497
-0.0591846
0.185994
-0.110532
0.0208738
-0.158153
-0.206842
-0.139759
-0.219891
-0.115614
-0.285963
-0.0912435
-0.295771
-0.0656967
-0.313946
-0.0387224
-0.335026
-0.0122856
-0.334216
0.0113811
-0.308662
0.0321692
-0.280508
0.0503755
-0.254378
0.0655544
-0.222675
0.0781292
-0.194902
0.0888021
-0.174388
0.0979066
-0.156881
0.10586