/*--------------------------------*- C++ -*----------------------------------*\
  =========                 |
  \\      /  F ield         | OpenFOAM: The Open Source CFD Toolbox
   \\    /   O peration     | Website:  https://openfoam.org
    \\  /    A nd           | Version:  9
     \\/     M anipulation  |
\*---------------------------------------------------------------------------*/
FoamFile
{
    format      ascii;
    class       volScalarField;
    location    "650";
    object      alphat;
}
// * * * * * * * * * * * * * * * * * * * * * * * * * * * * * * * * * * * * * //

dimensions      [1 -1 -1 0 0 0 0];

internalField   nonuniform List<scalar> 
4000
(
0.000352542
0.000308336
0.00027673
0.000261503
0.000253877
0.00024955
0.000245779
0.000244209
0.000244859
0.000247601
0.000250815
0.000248551
0.000245632
0.000244911
0.000246893
0.00025012
0.000251222
0.000259309
0.000292412
0.000365738
0.00040662
0.00037483
0.000349917
0.000330961
0.00029913
0.000276866
0.000270646
0.000270577
0.000276578
0.000286436
0.000292759
0.000285346
0.000274068
0.000270773
0.000270334
0.000291946
0.000341457
0.000369298
0.000400974
0.000457038
0.000494632
0.000464005
0.000433172
0.000404841
0.00037361
0.000345288
0.000314184
0.000288544
0.000302315
0.00031791
0.000323774
0.000312812
0.000297759
0.000306919
0.000341977
0.000372293
0.000409005
0.000446964
0.000484728
0.000509204
0.000524054
0.000513806
0.000492186
0.000456957
0.000419473
0.000387297
0.000358056
0.000338255
0.000342738
0.000360185
0.000362703
0.000348998
0.000339751
0.000350359
0.000375585
0.000407975
0.000446997
0.000485941
0.00051588
0.000533012
0.00054022
0.000538625
0.000524572
0.000502475
0.000477241
0.000454912
0.000445034
0.000447529
0.00045129
0.000451059
0.000442261
0.000435526
0.000432418
0.00043505
0.00044475
0.000465572
0.000492634
0.00052057
0.00054127
0.000547845
0.000551193
0.000559519
0.000559363
0.000555691
0.000552477
0.000551169
0.000551683
0.000552647
0.000551647
0.000544368
0.000532955
0.000532859
0.000535852
0.000538425
0.000540819
0.00054473
0.000551169
0.000558988
0.000563699
0.000558794
0.000560505
0.000578918
0.000592754
0.000603942
0.000614
0.000622332
0.000628216
0.000630909
0.000628839
0.000620348
0.000610443
0.000614363
0.000618687
0.000619878
0.00061745
0.000611867
0.000604357
0.00059584
0.000584955
0.000568711
0.000570117
0.000598218
0.000623387
0.000644621
0.000662778
0.00067728
0.000688238
0.000694117
0.000693443
0.000685485
0.000677358
0.000683776
0.000687551
0.000685651
0.000678342
0.000666031
0.000649601
0.00062993
0.000606412
0.000579358
0.000581558
0.000620398
0.000654917
0.000684021
0.000708959
0.00072924
0.000744782
0.000754714
0.00075715
0.000751066
0.00074574
0.000753654
0.00075555
0.000749632
0.000736714
0.000717814
0.000693867
0.000665414
0.000631346
0.000592433
0.000596562
0.00064401
0.000684773
0.000717245
0.000744797
0.000768546
0.000788633
0.000804374
0.000814234
0.000816421
0.000818665
0.000823746
0.000819329
0.000807225
0.00078899
0.00076551
0.000737022
0.000702798
0.000659906
0.000610031
0.000308336
0.000297789
0.000286465
0.000281929
0.000281872
0.000284694
0.00028357
0.000284095
0.000288966
0.00029622
0.000301143
0.000295534
0.000289706
0.000287778
0.000293807
0.000292944
0.000283332
0.000282232
0.000303911
0.000356036
0.00037483
0.000429011
0.000464934
0.000527365
0.000615248
0.000666064
0.000665185
0.000665625
0.000687884
0.000707665
0.000693579
0.000650232
0.000626034
0.000620047
0.000649256
0.000643902
0.000585483
0.000523267
0.000490166
0.00041914
0.000464005
0.000603576
0.000597665
0.000589232
0.000599685
0.000618318
0.000640208
0.000679863
0.000669285
0.000681136
0.000664916
0.000631578
0.000620894
0.00062243
0.000616082
0.000614809
0.000628784
0.000660232
0.000678235
0.000494309
0.000513806
0.000735114
0.000749455
0.000685767
0.000631002
0.00059479
0.000573348
0.000575937
0.000601324
0.00062457
0.000627865
0.000605533
0.000583158
0.000566786
0.000585412
0.000626284
0.000684914
0.000749115
0.000734735
0.000524515
0.000538625
0.000774042
0.000823438
0.000780486
0.000695906
0.000630165
0.000584973
0.000558211
0.000547223
0.000564897
0.000585931
0.000575313
0.000564475
0.00057533
0.000608085
0.000664546
0.0007454
0.000800139
0.000771337
0.00054643
0.000559519
0.000821825
0.000900265
0.000895748
0.000836631
0.000757504
0.000707561
0.000678275
0.000669408
0.000662717
0.00065291
0.000653766
0.000660475
0.000675455
0.000712301
0.000781243
0.000841779
0.000865542
0.000811373
0.000565845
0.000578918
0.000861701
0.000970944
0.00102861
0.00105791
0.00105758
0.00103338
0.00101751
0.00099041
0.000942599
0.000898109
0.000899007
0.000919933
0.000944823
0.000972097
0.000977982
0.000962163
0.00092656
0.000845042
0.000585485
0.000598218
0.000887628
0.00101934
0.00113625
0.00124857
0.00132744
0.00134622
0.00133524
0.0013033
0.00126215
0.00123788
0.00124576
0.001265
0.00126499
0.00122309
0.0011505
0.0010592
0.000970257
0.000868189
0.000606475
0.000620398
0.000861923
0.000997699
0.00111756
0.00121943
0.00128765
0.00132857
0.00134534
0.00133296
0.00129085
0.00126083
0.00127543
0.00128719
0.00126925
0.00122441
0.00115469
0.0010658
0.000967405
0.000852943
0.000631697
0.00064401
0.000695302
0.000740873
0.000779166
0.000813659
0.00084527
0.000873749
0.000897509
0.000913866
0.000920125
0.000925142
0.000927472
0.000918542
0.000899913
0.000874063
0.000842728
0.000806793
0.000765679
0.000716453
0.000660734
0.00027673
0.000286465
0.000287023
0.00028747
0.000289469
0.000294736
0.000300267
0.000306466
0.000317325
0.000330256
0.000338233
0.0003299
0.000320446
0.000315404
0.000318059
0.000311873
0.000298108
0.000291199
0.000299093
0.000327445
0.000349917
0.000464934
0.000536366
0.000617004
0.000717028
0.000800496
0.000835566
0.000869132
0.000931928
0.000991972
0.000986894
0.000908702
0.000849313
0.000819572
0.000831787
0.000771994
0.000657074
0.000551856
0.000473594
0.000384111
0.000433172
0.000597665
0.000645411
0.000678289
0.000718443
0.000763423
0.000812893
0.000886455
0.000926666
0.000985942
0.000967687
0.000886098
0.000830003
0.000790476
0.000752061
0.000721748
0.000699046
0.000682853
0.000642728
0.000448041
0.000492186
0.000749455
0.000793276
0.000771535
0.000746751
0.00073376
0.00073617
0.000773131
0.000849719
0.000918504
0.000914757
0.000842518
0.000771568
0.000719091
0.000715673
0.000740634
0.000779696
0.000814132
0.000769134
0.000497391
0.000524572
0.000823438
0.000919909
0.000885715
0.000817968
0.000759426
0.000719768
0.000705935
0.000735289
0.000821732
0.0008573
0.000785503
0.000722642
0.000707952
0.000734917
0.000790567
0.000861596
0.000904534
0.000825827
0.000528867
0.000559363
0.000900265
0.00103081
0.00102588
0.000948413
0.000861707
0.000798002
0.00076249
0.000759686
0.000788769
0.000822638
0.000783633
0.000758214
0.000763988
0.00080731
0.000884889
0.000970127
0.000992505
0.000887592
0.000561807
0.000592754
0.000970944
0.00114214
0.00119847
0.00116612
0.00111172
0.00106551
0.00104562
0.00104941
0.00106735
0.00106653
0.00103503
0.000998975
0.000989371
0.00101326
0.00106248
0.00110868
0.00107931
0.000940947
0.000595789
0.000623387
0.00101934
0.00124085
0.00141069
0.00150337
0.00152869
0.00153506
0.00154269
0.00154569
0.0015248
0.00148738
0.00146883
0.00144744
0.00141683
0.00138962
0.00136262
0.00128714
0.00115881
0.000977703
0.000629537
0.000654917
0.000997699
0.00128285
0.00155066
0.00174738
0.00185983
0.00192123
0.00195132
0.00195337
0.00189231
0.0018361
0.00187009
0.00189796
0.00185317
0.00177031
0.00164395
0.0014562
0.00122125
0.000971048
0.000666144
0.000684773
0.000740873
0.000790343
0.000833101
0.000873165
0.000911422
0.000947509
0.000978952
0.00100202
0.00101297
0.00102086
0.00101982
0.00100579
0.00098068
0.000947949
0.000910031
0.000868173
0.000821502
0.000766809
0.000704441
0.000261503
0.000281929
0.00028747
0.000288952
0.000290484
0.000295713
0.000306026
0.000319655
0.000338026
0.000358032
0.000369206
0.000357234
0.000343538
0.000334495
0.000331331
0.00032131
0.000305001
0.000293824
0.000289715
0.000293761
0.000330961
0.000527365
0.000617004
0.000689935
0.000766556
0.000861777
0.000937671
0.00101829
0.00113074
0.0012437
0.00125482
0.00113621
0.00102848
0.000968508
0.000948788
0.000855972
0.00069032
0.000561208
0.000456337
0.000348589
0.000404841
0.000589232
0.000678289
0.000740713
0.000796588
0.000856642
0.000928899
0.0010446
0.00116218
0.00129849
0.00128694
0.00113492
0.00100022
0.000913226
0.000838338
0.000776676
0.000716698
0.000658833
0.000578257
0.000408209
0.000456957
0.000685767
0.000771535
0.000799822
0.000812921
0.00082834
0.000857917
0.000930079
0.00107353
0.00125576
0.00124948
0.00107072
0.000916437
0.00082205
0.000789222
0.000785604
0.000787716
0.000773616
0.000693186
0.000452404
0.000502475
0.000780486
0.000885715
0.000901222
0.000878656
0.000852337
0.000839244
0.0008617
0.00097323
0.00118284
0.00121752
0.00102047
0.000871608
0.000814124
0.000817805
0.000849879
0.000885923
0.000886647
0.000788667
0.000499415
0.000555691
0.000895748
0.00102588
0.00105057
0.0010124
0.000957053
0.000914438
0.000904682
0.000955784
0.00110266
0.00117892
0.00100639
0.000895711
0.000869977
0.000897398
0.000955017
0.00101021
0.00100747
0.00088215
0.000551916
0.000603942
0.00102861
0.00119847
0.00125772
0.00124707
0.00120881
0.00117894
0.00118403
0.00124287
0.00135063
0.00138662
0.00126628
0.00114344
0.00109029
0.00109722
0.00113919
0.00117193
0.00113514
0.000979824
0.000601929
0.000644621
0.00113625
0.00141069
0.00157957
0.0016497
0.00167129
0.00168326
0.0017063
0.00173738
0.00175616
0.00173313
0.00166594
0.00160069
0.00154795
0.00151757
0.00150025
0.00144475
0.00129348
0.00105831
0.000647907
0.000684021
0.00111756
0.00155066
0.00193989
0.00208025
0.00217432
0.00224034
0.00227038
0.00224482
0.00216456
0.00210269
0.00213531
0.00217304
0.00216172
0.00210738
0.00202681
0.00183888
0.00145699
0.00106692
0.000694698
0.000717245
0.000779166
0.000833101
0.000880684
0.000927512
0.000973786
0.00101857
0.00105882
0.00109009
0.0011082
0.00112095
0.00111346
0.00109177
0.00105859
0.00101745
0.00097157
0.000923033
0.000870434
0.000809724
0.000739808
0.000253877
0.000281872
0.000289469
0.000290484
0.000290492
0.000294443
0.000306626
0.000327534
0.000355198
0.000383692
0.000397006
0.000381015
0.00036272
0.000348829
0.000338448
0.000324319
0.00030687
0.000293196
0.000281955
0.00027063
0.00029913
0.000615248
0.000717028
0.000766556
0.000816472
0.000894504
0.001009
0.00114596
0.00130555
0.0014583
0.00147193
0.00133202
0.00118981
0.00109705
0.00103252
0.000923846
0.000730521
0.000573909
0.000454098
0.000317439
0.00037361
0.000599685
0.000718443
0.000796588
0.000859955
0.000927565
0.00102581
0.00119258
0.00139446
0.00159541
0.00157741
0.00136661
0.00116683
0.00103041
0.000914389
0.000816372
0.000725528
0.000637738
0.000534567
0.000374457
0.000419473
0.000631002
0.000746751
0.000812921
0.000857537
0.000898037
0.000953765
0.00106723
0.00129791
0.00158157
0.00155678
0.00128588
0.00104724
0.000904988
0.000834908
0.000797948
0.000763955
0.000711804
0.000609868
0.000411366
0.000477241
0.000695906
0.000817968
0.000878656
0.000902585
0.000913738
0.000933861
0.00100419
0.0012189
0.00155067
0.00155672
0.00124123
0.000992356
0.000884018
0.000855681
0.000853556
0.00084651
0.000802882
0.00068763
0.000463812
0.000552477
0.000836631
0.000948413
0.0010124
0.00102968
0.00102329
0.00102162
0.00106402
0.00121958
0.00151615
0.00157297
0.00125544
0.00103218
0.000955913
0.000950877
0.000969938
0.000976281
0.000932292
0.000819833
0.000541158
0.000614
0.00105791
0.00116612
0.00124707
0.00128692
0.00129618
0.00130511
0.00135304
0.00148477
0.00169009
0.00173805
0.00149008
0.00128341
0.00118961
0.0011707
0.00117964
0.00116977
0.00110415
0.000984797
0.000606662
0.000662778
0.00124857
0.00150337
0.0016497
0.00173148
0.00177142
0.00180021
0.00183994
0.0018954
0.00195042
0.00192481
0.00179393
0.00169503
0.00163099
0.00159613
0.00157292
0.00151295
0.00136644
0.0011268
0.000663319
0.000708959
0.00121943
0.00174738
0.00208025
0.00225196
0.00237889
0.00246816
0.00250685
0.00246949
0.00236868
0.0022938
0.00233067
0.00238601
0.00238091
0.00231074
0.00220061
0.00203934
0.00162745
0.00114313
0.000719144
0.000744797
0.000813659
0.000873165
0.000927512
0.000982711
0.00103828
0.00109317
0.00114409
0.0011861
0.00121446
0.00123323
0.00121581
0.00118373
0.00114039
0.00108937
0.00103386
0.000976002
0.000916294
0.000848799
0.000770409
0.00024955
0.000284694
0.000294736
0.000295713
0.000294443
0.000295363
0.00030762
0.000332153
0.000371036
0.000410445
0.000425034
0.000404559
0.000380815
0.000361045
0.000343402
0.000324874
0.000306338
0.000291212
0.000276244
0.000256657
0.000276866
0.000666064
0.000800496
0.000861777
0.000894504
0.000942473
0.00106238
0.00126789
0.00146701
0.00162434
0.00162438
0.00150043
0.00135095
0.00123002
0.00112113
0.000994549
0.00080342
0.000620045
0.000477826
0.000290134
0.000345288
0.000618318
0.000763423
0.000856642
0.000927565
0.00100575
0.00113893
0.00134877
0.00160117
0.00179465
0.00175916
0.00156989
0.00135267
0.00117974
0.00102755
0.000879244
0.000754586
0.000637928
0.000515245
0.000342384
0.000387297
0.00059479
0.00073376
0.00082834
0.000898037
0.000960524
0.00104325
0.00121087
0.00151551
0.00180705
0.00175554
0.00148291
0.00119705
0.00100671
0.000888963
0.000813806
0.000744996
0.000663867
0.000549458
0.000374863
0.000454912
0.000630165
0.000759426
0.000852337
0.000913738
0.000959198
0.0010149
0.00114407
0.00145901
0.00182913
0.00178712
0.00143507
0.00110999
0.000941478
0.000873912
0.000834296
0.000788721
0.000714619
0.000598129
0.000429371
0.000551169
0.000757504
0.000861707
0.000957053
0.00102329
0.00106604
0.00111295
0.00122442
0.00149379
0.0018651
0.00185799
0.00146583
0.00114947
0.00101318
0.000965259
0.000939279
0.000897865
0.000820646
0.000716831
0.000531497
0.000622332
0.00105758
0.00111172
0.00120881
0.00129618
0.00135534
0.00140919
0.00150922
0.0017209
0.00200973
0.00202629
0.00166934
0.00138621
0.00125224
0.00120053
0.00116715
0.00111035
0.00102218
0.000953304
0.000610227
0.00067728
0.00132744
0.00152869
0.00167129
0.00177142
0.00183678
0.00188905
0.00194972
0.00203386
0.00213255
0.00208588
0.0018777
0.00174589
0.00167128
0.00162366
0.00158044
0.00150293
0.00135733
0.00116516
0.000675708
0.00072924
0.00128765
0.00185983
0.00217432
0.00237889
0.00253741
0.00264641
0.00268256
0.00262148
0.00250128
0.00240928
0.00244066
0.00251665
0.00253174
0.00245542
0.00231029
0.00211074
0.00172505
0.00119179
0.000739513
0.000768546
0.00084527
0.000911422
0.000973786
0.00103828
0.00110439
0.00117114
0.00123506
0.00129123
0.00133461
0.00136056
0.00132769
0.00128103
0.00122489
0.00116242
0.00109625
0.00102844
0.000960359
0.000885105
0.000797425
0.000245779
0.00028357
0.000300267
0.000306026
0.000306626
0.00030762
0.000315617
0.000337657
0.000383995
0.000439611
0.000456083
0.000431164
0.000399682
0.000372537
0.000347562
0.00032463
0.000305987
0.000290222
0.000272944
0.000247999
0.000270646
0.000665185
0.000835566
0.000937671
0.001009
0.00106238
0.00117545
0.0013967
0.0016088
0.00170714
0.00166873
0.00161803
0.00151299
0.001386
0.00124361
0.00108942
0.00090257
0.000723229
0.000555306
0.000272202
0.000314184
0.000640208
0.000812893
0.000928899
0.00102581
0.00113893
0.00130567
0.00152507
0.00174345
0.00182785
0.00174252
0.00168547
0.00155198
0.00138684
0.00122047
0.00103639
0.000852924
0.000689153
0.000528552
0.000307443
0.000358056
0.000573348
0.00073617
0.000857917
0.000953765
0.00104325
0.00116418
0.00138345
0.00166765
0.00184258
0.00173243
0.00159324
0.00138552
0.00117968
0.00101444
0.00088514
0.000769868
0.000652671
0.000516387
0.000337874
0.000445034
0.000584973
0.000719768
0.000839244
0.000933861
0.0010149
0.00111583
0.00131194
0.00164368
0.00190922
0.00178573
0.00154786
0.00126634
0.00104783
0.000922932
0.000836636
0.000751917
0.000651483
0.000533287
0.00040255
0.000551683
0.000707561
0.000798002
0.000914438
0.00102162
0.00111295
0.00121771
0.00140717
0.00172392
0.00202368
0.00191014
0.00159014
0.00127553
0.00107884
0.000975001
0.000899509
0.000816597
0.000719555
0.000636137
0.000523748
0.000628216
0.00103338
0.00106551
0.00117894
0.00130511
0.00140919
0.00151109
0.00167173
0.00194685
0.00223174
0.00216114
0.00180218
0.00147648
0.00129445
0.00120033
0.00112245
0.00102546
0.000923879
0.000887223
0.000612044
0.000688238
0.00134622
0.00153506
0.00168326
0.00180021
0.00188905
0.00196494
0.0020517
0.00218556
0.00234444
0.00225999
0.0019711
0.00177905
0.00168135
0.00161428
0.00154586
0.0014483
0.00130263
0.00116552
0.000684517
0.000744782
0.00132857
0.00192123
0.00224034
0.00246816
0.00264641
0.00276199
0.00278485
0.00271555
0.00264168
0.00255062
0.00251626
0.00256715
0.00260006
0.00253201
0.00236974
0.00214002
0.00176028
0.0012087
0.000755182
0.000788633
0.000873749
0.000947509
0.00101857
0.00109317
0.00117114
0.00125169
0.00133202
0.0014085
0.0014768
0.00151191
0.00145334
0.00138464
0.00131134
0.00123502
0.00115707
0.00107883
0.00100166
0.000918083
0.000820843
0.000244209
0.000284095
0.000306466
0.000319655
0.000327534
0.000332153
0.000337657
0.000357052
0.000399262
0.00046052
0.000488747
0.000458138
0.000421456
0.000383244
0.000351625
0.000326302
0.000308236
0.000292109
0.000273067
0.000243619
0.000270577
0.000665625
0.000869132
0.00101829
0.00114596
0.00126789
0.0013967
0.00157282
0.00169698
0.00164775
0.00153404
0.00163007
0.00163381
0.00153875
0.00139436
0.00122674
0.00103174
0.000857716
0.000668882
0.000266472
0.000288544
0.000679863
0.000886455
0.0010446
0.00119258
0.00134877
0.00152507
0.00169081
0.00174837
0.00175057
0.00161115
0.00161939
0.00167254
0.00160684
0.00146092
0.00128031
0.00108008
0.000856618
0.000622178
0.000273728
0.000338255
0.000575937
0.000773131
0.000930079
0.00106723
0.00121087
0.00138345
0.00156253
0.00168489
0.00192775
0.0017777
0.00154801
0.00151757
0.00142908
0.0012651
0.00108299
0.000895997
0.000720635
0.000531822
0.000302308
0.000447529
0.000558211
0.000705935
0.0008617
0.00100419
0.00114407
0.00131194
0.00151224
0.00171756
0.00215997
0.00200921
0.00155305
0.0014085
0.00126703
0.00108643
0.000922791
0.000779257
0.000635257
0.00049725
0.000385477
0.000552647
0.000678275
0.00076249
0.000904682
0.00106402
0.00122442
0.00140717
0.0016252
0.0018605
0.0023606
0.00224874
0.00163267
0.00139305
0.00122051
0.00104848
0.000903283
0.000769159
0.000650008
0.000579909
0.00051676
0.000630909
0.00101751
0.00104562
0.00118403
0.00135304
0.00150922
0.00167173
0.00188317
0.00213075
0.00255358
0.00249071
0.00188809
0.00158108
0.00137271
0.0012209
0.00109077
0.000955294
0.000843154
0.0008251
0.000611521
0.000694117
0.00133524
0.00154269
0.0017063
0.00183994
0.00194972
0.0020517
0.00219014
0.00242373
0.00273312
0.00267432
0.00217803
0.00185075
0.00168406
0.00158653
0.0014953
0.00138317
0.00123756
0.00113052
0.000689001
0.000754714
0.00134534
0.00195132
0.00227038
0.00250685
0.00268256
0.00278485
0.00280609
0.00283693
0.00302925
0.00299618
0.00270113
0.0025736
0.00256602
0.00251684
0.00236865
0.00213273
0.00176111
0.0012014
0.000765363
0.000804374
0.000897509
0.000978952
0.00105882
0.00114409
0.00123506
0.00133202
0.00143445
0.00154287
0.00165466
0.00170069
0.00159917
0.00149537
0.0013974
0.00130376
0.00121278
0.00112383
0.00103759
0.000945784
0.000839533
0.000244859
0.000288966
0.000317325
0.000338026
0.000355198
0.000371036
0.000383995
0.000399262
0.000420105
0.000466738
0.000501694
0.000475885
0.000437217
0.000397075
0.000361442
0.000334424
0.000316198
0.000299491
0.00027886
0.000241754
0.000276578
0.000687884
0.000931928
0.00113074
0.00130555
0.00146701
0.0016088
0.00169698
0.00165818
0.0018184
0.00176482
0.00151092
0.00161883
0.00161866
0.00151502
0.00136027
0.00117807
0.00098551
0.000755655
0.000266839
0.000302315
0.000669285
0.000926666
0.00116218
0.00139446
0.00160117
0.00174345
0.00174837
0.00174539
0.00240839
0.00234769
0.00161472
0.001582
0.00168513
0.00164489
0.00148364
0.00127323
0.0010373
0.000759181
0.000265118
0.000342738
0.000601324
0.000849719
0.00107353
0.00129791
0.00151551
0.00166765
0.00168489
0.00198257
0.00300605
0.00296234
0.00187441
0.00148866
0.00154683
0.00151188
0.00133533
0.0011137
0.000880515
0.000617392
0.00027132
0.00045129
0.000547223
0.000735289
0.00097323
0.0012189
0.00145901
0.00164368
0.00171756
0.0022735
0.00353324
0.00352075
0.00217635
0.00147506
0.00144168
0.00134775
0.00113648
0.000902859
0.000671983
0.000483013
0.000380748
0.000551647
0.000669408
0.000759686
0.000955784
0.00121958
0.00149379
0.00172392
0.0018605
0.00252596
0.00392324
0.00396356
0.00243691
0.00151035
0.00138596
0.00123373
0.000999438
0.000774408
0.000613424
0.000546648
0.000509458
0.000628839
0.00099041
0.00104941
0.00124287
0.00148477
0.0017209
0.00194685
0.00213075
0.00276433
0.00414267
0.004238
0.00269011
0.00170653
0.00149302
0.00130632
0.00110906
0.000922002
0.000789808
0.000773707
0.000606677
0.000693443
0.0013033
0.00154569
0.00173738
0.0018954
0.00203386
0.00218556
0.00242373
0.0030128
0.00422291
0.00433633
0.00297015
0.00202575
0.00170072
0.00154552
0.00143402
0.00131478
0.00116957
0.00106862
0.000687258
0.00075715
0.00133296
0.00195337
0.00224482
0.00246949
0.00262148
0.00271555
0.00283693
0.00324993
0.00404603
0.00408906
0.00327678
0.00266205
0.00245225
0.00237718
0.00226666
0.00205713
0.00172174
0.00115865
0.000767262
0.000814234
0.000913866
0.00100202
0.00109009
0.0011861
0.00129123
0.0014085
0.00154287
0.0017017
0.00187905
0.00193008
0.00177196
0.00161427
0.00147978
0.00136314
0.00125732
0.00115755
0.00106312
0.000964463
0.000851044
0.000247601
0.00029622
0.000330256
0.000358032
0.000383692
0.000410445
0.000439611
0.00046052
0.000466738
0.000479014
0.000501655
0.000481312
0.000448959
0.00040868
0.000376187
0.000350803
0.000330909
0.00031214
0.000287647
0.000241865
0.000286436
0.000707665
0.000991972
0.0012437
0.0014583
0.00162434
0.00170714
0.00164775
0.0018184
0.00119253
0.00111012
0.00160626
0.00141349
0.00152536
0.00151743
0.00140252
0.00124047
0.00104664
0.000804081
0.000268167
0.00031791
0.000681136
0.000985942
0.00129849
0.00159541
0.00179465
0.00182785
0.00175057
0.00240839
0.00185499
0.00168141
0.00216674
0.00142169
0.001506
0.00162676
0.00152202
0.00132393
0.00107642
0.000788929
0.000266455
0.000360185
0.00062457
0.000918504
0.00125576
0.00158157
0.00180705
0.00184258
0.00192775
0.00300605
0.00252077
0.00226353
0.00275697
0.00154173
0.00135539
0.0014905
0.0013743
0.00115446
0.000911183
0.000638736
0.000271312
0.000451059
0.000564897
0.000821732
0.00118284
0.00155067
0.00182913
0.00190922
0.00215997
0.00353324
0.0032
0.00287051
0.00330567
0.0017506
0.00129273
0.00137449
0.0012146
0.000956633
0.000699303
0.000482328
0.000374468
0.000544368
0.000662717
0.000788769
0.00110266
0.00151615
0.0018651
0.00202368
0.0023606
0.00392324
0.00385749
0.00347743
0.00373892
0.00193769
0.00132387
0.00132003
0.00109605
0.000812872
0.000604592
0.000529816
0.000497581
0.000620348
0.000942599
0.00106735
0.00135063
0.00169009
0.00200973
0.00223174
0.00255358
0.00414267
0.00441231
0.00401609
0.00404038
0.00213082
0.00149494
0.00138352
0.00114586
0.000902883
0.000750891
0.000722293
0.000594217
0.000685485
0.00126215
0.0015248
0.00175616
0.00195042
0.00213255
0.00234444
0.00273312
0.00422291
0.00478878
0.0044075
0.00422341
0.00238738
0.00168161
0.00147589
0.00134966
0.00123209
0.00109782
0.00099162
0.000676158
0.000751066
0.00129085
0.00189231
0.00216456
0.00236868
0.00250128
0.00264168
0.00302925
0.00404603
0.00481712
0.00453717
0.00411308
0.0029335
0.00234116
0.00215529
0.00207141
0.00190427
0.0016639
0.00107425
0.000757891
0.000816421
0.000920125
0.00101297
0.0011082
0.00121446
0.00133461
0.0014768
0.00165466
0.00187905
0.00209406
0.00209458
0.00195596
0.00173536
0.00155198
0.00140611
0.00128366
0.00117313
0.00107303
0.000969908
0.000851911
0.000250815
0.000301143
0.000338233
0.000369206
0.000397006
0.000425034
0.000456083
0.000488747
0.000501694
0.000501655
0.000466867
0.000451638
0.000436501
0.000405372
0.000379183
0.000357561
0.000339552
0.000320401
0.000294199
0.000241982
0.000292759
0.000693579
0.000986894
0.00125482
0.00147193
0.00162438
0.00166873
0.00153404
0.00176482
0.00111012
0.000903582
0.00133382
0.00117187
0.00135587
0.00139761
0.00131012
0.00116941
0.000992308
0.000765565
0.000264399
0.000323774
0.000664916
0.000967687
0.00128694
0.00157741
0.00175916
0.00174252
0.00161115
0.00234769
0.00168141
0.00135302
0.00195373
0.00118493
0.00130616
0.00146969
0.0013733
0.00118932
0.000965071
0.000707127
0.000263856
0.000362703
0.000627865
0.000914757
0.00124948
0.00155678
0.00175554
0.00173243
0.0017777
0.00296234
0.00226353
0.00179833
0.00260768
0.00129623
0.00114617
0.00132846
0.00121295
0.00101461
0.000803842
0.000573913
0.000279601
0.000442261
0.000585931
0.0008573
0.00121752
0.00155672
0.00178712
0.00178573
0.00200921
0.00352075
0.00287051
0.00224729
0.00320273
0.00147553
0.00105984
0.00121342
0.00107202
0.000862208
0.000659634
0.00048086
0.00036171
0.000532955
0.00065291
0.000822638
0.00117892
0.00157297
0.00185799
0.00191014
0.00224874
0.00396356
0.00347743
0.00268896
0.00367301
0.00165892
0.00106548
0.00117257
0.00100169
0.000779874
0.000605148
0.000523065
0.000481546
0.000610443
0.000898109
0.00106653
0.00138662
0.00173805
0.00202629
0.00216114
0.00249071
0.004238
0.00401609
0.00308517
0.00399321
0.001893
0.00124776
0.00127007
0.00108755
0.000875321
0.000728532
0.000686488
0.000579604
0.000677358
0.00123788
0.00148738
0.00173313
0.00192481
0.00208588
0.00225999
0.00267432
0.00433633
0.0044075
0.00340909
0.00412856
0.00217576
0.00145428
0.0013398
0.00126325
0.00117175
0.00104839
0.000945502
0.000663086
0.00074574
0.00126083
0.0018361
0.00210269
0.0022938
0.00240928
0.00255062
0.00299618
0.00408906
0.00453717
0.00365553
0.00389872
0.00272736
0.00211749
0.00198145
0.00195927
0.00181795
0.00159656
0.00101346
0.000745243
0.000818665
0.000925142
0.00102086
0.00112095
0.00123323
0.00136056
0.00151191
0.00170069
0.00193008
0.00209458
0.00193124
0.00195934
0.00174975
0.00155993
0.00140871
0.00128314
0.00116958
0.00106691
0.000963022
0.000844142
0.000248551
0.000295534
0.0003299
0.000357234
0.000381015
0.000404559
0.000431164
0.000458138
0.000475885
0.000481312
0.000451638
0.000424321
0.00039704
0.000377498
0.000361405
0.000347668
0.000334557
0.00031866
0.000294216
0.000242263
0.000285346
0.000650232
0.000908702
0.00113621
0.00133202
0.00150043
0.00161803
0.00163007
0.00151092
0.00160626
0.00133382
0.00107142
0.00117175
0.00126943
0.00124336
0.00115194
0.00103153
0.000886565
0.000692338
0.000260392
0.000312812
0.000631578
0.000886098
0.00113492
0.00136661
0.00156989
0.00168547
0.00161939
0.00161472
0.00216674
0.00195373
0.00126872
0.00113226
0.00131426
0.00131111
0.00118432
0.00102443
0.000844043
0.000626853
0.000264553
0.000348998
0.000605533
0.000842518
0.00107072
0.00128588
0.00148291
0.00159324
0.00154801
0.00187441
0.00275697
0.00260768
0.0015779
0.00105336
0.00119193
0.00117645
0.00103581
0.000881263
0.000720407
0.000535514
0.000293253
0.000435526
0.000575313
0.000785503
0.00102047
0.00124123
0.00143507
0.00154786
0.00155305
0.00217635
0.00330567
0.00320273
0.00188461
0.00101937
0.00109283
0.00106097
0.000922573
0.000781019
0.000638047
0.000493336
0.000366984
0.000532859
0.000653766
0.000783633
0.00100639
0.00125544
0.00146583
0.00159014
0.00163267
0.00243691
0.00373892
0.00367301
0.00214308
0.00103728
0.00106369
0.00102409
0.000888563
0.000747966
0.000623423
0.000545785
0.000482137
0.000614363
0.000899007
0.00103503
0.00126628
0.00149008
0.00166934
0.00180218
0.00188809
0.00269011
0.00404038
0.00399321
0.00242119
0.00123997
0.00119531
0.00113972
0.00101673
0.000877733
0.000759454
0.000708213
0.000583596
0.000683776
0.00124576
0.00146883
0.00166594
0.00179393
0.0018777
0.0019711
0.00217803
0.00297015
0.00422341
0.00412856
0.00276903
0.00159667
0.00138462
0.00133541
0.00129262
0.00121774
0.001095
0.000974778
0.000669764
0.000753654
0.00127543
0.00187009
0.00213531
0.00233067
0.00244066
0.00251626
0.00270113
0.00327678
0.00411308
0.00389873
0.00313372
0.0023855
0.00215601
0.00215803
0.00212443
0.00193952
0.00166477
0.00105424
0.000753998
0.000823746
0.000927472
0.00101982
0.00111346
0.00121581
0.00132769
0.00145334
0.00159917
0.00177196
0.00195596
0.00195934
0.00180932
0.00164088
0.00149779
0.0013772
0.00126912
0.00116579
0.00106871
0.000967317
0.000850871
0.000245632
0.000289706
0.000320446
0.000343538
0.00036272
0.000380815
0.000399682
0.000421456
0.000437217
0.000448959
0.000436501
0.00039704
0.00035956
0.000342575
0.000336947
0.000331522
0.000324292
0.00031265
0.000291794
0.000242656
0.000274068
0.000626034
0.000849313
0.00102848
0.00118981
0.00135095
0.00151299
0.00163381
0.00161883
0.00141349
0.00117187
0.00117175
0.00119841
0.00116259
0.00109217
0.00101487
0.000921516
0.000803197
0.000638878
0.000259903
0.000297759
0.000620894
0.000830003
0.00100022
0.00116683
0.00135267
0.00155198
0.00167254
0.001582
0.00142169
0.00118493
0.00113226
0.00124755
0.00125454
0.00116088
0.00104215
0.000911087
0.000765247
0.000586577
0.000275142
0.000339751
0.000583158
0.000771568
0.000916437
0.00104724
0.00119705
0.00138552
0.00151757
0.00148866
0.00154173
0.00129623
0.00105336
0.00114019
0.00113974
0.00102987
0.000914708
0.000801419
0.00067891
0.000526203
0.000314662
0.000432418
0.000564475
0.000722642
0.000871608
0.000992356
0.00110999
0.00126634
0.0014085
0.00147506
0.0017506
0.00147553
0.00101937
0.00104476
0.00103136
0.000930053
0.000840035
0.000751304
0.000646662
0.00052071
0.000381805
0.000535852
0.000660475
0.000758214
0.000895711
0.00103218
0.00114947
0.00127553
0.00139305
0.00151035
0.00193769
0.00165892
0.00103728
0.00101527
0.00100737
0.000927391
0.00085002
0.000762233
0.00066661
0.000585885
0.000491578
0.000618687
0.000919933
0.000998975
0.00114344
0.00128341
0.00138621
0.00147648
0.00158108
0.00170653
0.00213082
0.001893
0.00123997
0.00116465
0.00114416
0.00108995
0.00102041
0.00092117
0.000818497
0.000767023
0.000591049
0.000687551
0.001265
0.00144744
0.00160069
0.00169503
0.00174589
0.00177905
0.00185075
0.00202575
0.00238738
0.00217576
0.00159667
0.00142862
0.0014079
0.00140443
0.0013719
0.00129485
0.00115903
0.00102367
0.000675129
0.00075555
0.00128719
0.00189796
0.00217304
0.00238601
0.00251665
0.00256715
0.0025736
0.00266205
0.0029335
0.00272736