/*--------------------------------*- C++ -*----------------------------------*\
  =========                 |
  \\      /  F ield         | OpenFOAM: The Open Source CFD Toolbox
   \\    /   O peration     | Website:  https://openfoam.org
    \\  /    A nd           | Version:  9
     \\/     M anipulation  |
\*---------------------------------------------------------------------------*/
FoamFile
{
    format      ascii;
    class       volScalarField;
    location    "650";
    object      epsilon;
}
// * * * * * * * * * * * * * * * * * * * * * * * * * * * * * * * * * * * * * //

dimensions      [0 2 -3 0 0 0 0];

internalField   nonuniform List<scalar> 
4000
(
2.99916e-07
1.95235e-07
1.32433e-07
1.07753e-07
9.79465e-08
9.3255e-08
8.91062e-08
8.69197e-08
8.70318e-08
8.94973e-08
9.2905e-08
9.04489e-08
8.73195e-08
8.6702e-08
8.89178e-08
9.22334e-08
9.36575e-08
1.06201e-07
1.63837e-07
3.29494e-07
4.69398e-07
3.49098e-07
2.76294e-07
2.29198e-07
1.689e-07
1.27571e-07
1.17853e-07
1.1692e-07
1.23662e-07
1.36651e-07
1.46728e-07
1.36888e-07
1.21179e-07
1.16772e-07
1.16263e-07
1.51171e-07
2.40379e-07
3.09164e-07
4.04843e-07
6.11341e-07
7.4923e-07
6.30917e-07
5.07743e-07
4.10881e-07
3.21254e-07
2.51332e-07
1.88232e-07
1.44033e-07
1.64235e-07
1.90508e-07
2.02901e-07
1.84266e-07
1.57915e-07
1.69798e-07
2.34246e-07
3.03847e-07
4.06336e-07
5.33104e-07
6.86908e-07
8.05297e-07
8.76741e-07
8.26055e-07
7.22267e-07
5.76815e-07
4.45435e-07
3.49861e-07
2.75914e-07
2.33595e-07
2.4456e-07
2.83908e-07
2.92616e-07
2.62255e-07
2.37082e-07
2.53802e-07
3.10681e-07
3.99698e-07
5.29353e-07
6.86189e-07
8.27717e-07
9.16953e-07
9.56232e-07
9.48599e-07
8.75454e-07
7.68679e-07
6.58273e-07
5.69513e-07
5.32934e-07
5.42096e-07
5.5658e-07
5.57556e-07
5.29728e-07
5.08562e-07
4.95068e-07
4.99465e-07
5.29882e-07
6.0567e-07
7.18366e-07
8.49006e-07
9.56859e-07
9.93396e-07
1.01455e-06
1.06198e-06
1.06084e-06
1.03894e-06
1.01926e-06
1.01001e-06
1.01191e-06
1.0182e-06
1.01504e-06
9.78569e-07
9.22593e-07
9.22774e-07
9.36128e-07
9.46124e-07
9.56251e-07
9.75968e-07
1.01058e-06
1.0542e-06
1.08151e-06
1.05353e-06
1.06693e-06
1.176e-06
1.2613e-06
1.33192e-06
1.39716e-06
1.45314e-06
1.49438e-06
1.51471e-06
1.50189e-06
1.444e-06
1.37935e-06
1.40595e-06
1.4342e-06
1.43991e-06
1.42079e-06
1.38165e-06
1.33165e-06
1.27697e-06
1.20908e-06
1.11064e-06
1.12325e-06
1.29791e-06
1.46745e-06
1.62038e-06
1.75882e-06
1.87503e-06
1.96638e-06
2.0171e-06
2.01209e-06
1.94501e-06
1.87844e-06
1.93195e-06
1.96311e-06
1.94509e-06
1.88215e-06
1.781e-06
1.65307e-06
1.50866e-06
1.34716e-06
1.17424e-06
1.19299e-06
1.4487e-06
1.70314e-06
1.93832e-06
2.15544e-06
2.34301e-06
2.49297e-06
2.59183e-06
2.61612e-06
2.55417e-06
2.50065e-06
2.58096e-06
2.60023e-06
2.53893e-06
2.40937e-06
2.22862e-06
2.01406e-06
1.77799e-06
1.52012e-06
1.25552e-06
1.28841e-06
1.62082e-06
1.94647e-06
2.23327e-06
2.49585e-06
2.73653e-06
2.95069e-06
3.12574e-06
3.23907e-06
3.26603e-06
3.29275e-06
3.35368e-06
3.29968e-06
3.15623e-06
2.94859e-06
2.69533e-06
2.40831e-06
2.09127e-06
1.73397e-06
1.37034e-06
1.95235e-07
1.69085e-07
1.43646e-07
1.3338e-07
1.3222e-07
1.36234e-07
1.35201e-07
1.35701e-07
1.42367e-07
1.52694e-07
1.603e-07
1.51743e-07
1.42542e-07
1.38935e-07
1.46466e-07
1.42074e-07
1.29724e-07
1.33373e-07
1.80378e-07
2.97843e-07
3.49098e-07
3.36647e-07
3.22124e-07
3.31358e-07
3.07203e-07
2.08504e-07
1.43906e-07
1.27423e-07
1.2477e-07
1.35635e-07
1.45476e-07
1.39995e-07
1.34354e-07
1.50242e-07
1.93066e-07
3.36798e-07
4.12232e-07
4.1668e-07
4.61446e-07
4.95986e-07
6.30917e-07
7.20599e-07
5.75619e-07
4.6013e-07
3.79958e-07
3.14766e-07
2.60684e-07
1.80349e-07
1.50047e-07
1.57871e-07
1.69476e-07
1.66735e-07
1.71817e-07
2.24123e-07
3.01277e-07
3.69626e-07
4.77401e-07
6.32792e-07
8.26812e-07
7.46735e-07
8.26055e-07
8.9015e-07
7.75217e-07
5.92041e-07
4.49689e-07
3.5021e-07
2.79005e-07
2.38926e-07
2.18177e-07
2.21744e-07
2.36663e-07
2.34978e-07
2.29335e-07
2.5124e-07
3.09918e-07
4.02583e-07
5.39225e-07
7.21329e-07
8.53892e-07
8.81398e-07
9.48599e-07
8.82116e-07
8.27132e-07
7.2628e-07
5.83586e-07
4.75013e-07
4.05141e-07
3.68885e-07
3.47369e-07
3.4546e-07
3.51808e-07
3.49424e-07
3.55349e-07
3.81266e-07
4.31692e-07
5.23442e-07
6.66675e-07
7.94202e-07
8.88117e-07
9.91417e-07
1.06198e-06
9.46424e-07
9.34709e-07
9.0896e-07
8.4899e-07
7.56353e-07
6.92395e-07
6.47443e-07
6.24189e-07
5.91737e-07
5.59831e-07
5.75353e-07
6.06601e-07
6.41069e-07
6.96586e-07
7.8954e-07
8.65081e-07
9.23428e-07
9.65407e-07
1.09756e-06
1.176e-06
1.03668e-06
1.06032e-06
1.09666e-06
1.13762e-06
1.14818e-06
1.11357e-06
1.07097e-06
1.00665e-06
9.2182e-07
8.61726e-07
8.86132e-07
9.47636e-07
1.01994e-06
1.08968e-06
1.1076e-06
1.08907e-06
1.07252e-06
1.07078e-06
1.21352e-06
1.29791e-06
1.18677e-06
1.24984e-06
1.32942e-06
1.43488e-06
1.52172e-06
1.57186e-06
1.57513e-06
1.51631e-06
1.39804e-06
1.31693e-06
1.38223e-06
1.47101e-06
1.52127e-06
1.52019e-06
1.4591e-06
1.36809e-06
1.29612e-06
1.24255e-06
1.34689e-06
1.4487e-06
1.50412e-06
1.68158e-06
1.86009e-06
2.05326e-06
2.23726e-06
2.39797e-06
2.50088e-06
2.49058e-06
2.34987e-06
2.24844e-06
2.38594e-06
2.47447e-06
2.45597e-06
2.3454e-06
2.17719e-06
1.98741e-06
1.79786e-06
1.60209e-06
1.52067e-06
1.62082e-06
2.0413e-06
2.46748e-06
2.86485e-06
3.25347e-06
3.63569e-06
4.00231e-06
4.32589e-06
4.55922e-06
4.65439e-06
4.73394e-06
4.77049e-06
4.63511e-06
4.36161e-06
4.0002e-06
3.58946e-06
3.15403e-06
2.70007e-06
2.21511e-06
1.73782e-06
1.32433e-07
1.43646e-07
1.42088e-07
1.41622e-07
1.44108e-07
1.50979e-07
1.60145e-07
1.69963e-07
1.8816e-07
2.11306e-07
2.2711e-07
2.11503e-07
1.93379e-07
1.83133e-07
1.85526e-07
1.70943e-07
1.50864e-07
1.44994e-07
1.6824e-07
2.34727e-07
2.76294e-07
3.22124e-07
3.34129e-07
3.37863e-07
2.95966e-07
2.13151e-07
1.59789e-07
1.47375e-07
1.49899e-07
1.64538e-07
1.74848e-07
1.66976e-07
1.60364e-07
1.76942e-07
2.22108e-07
3.49802e-07
4.08442e-07
3.80794e-07
3.68956e-07
3.7489e-07
5.07743e-07
5.75619e-07
5.1006e-07
4.43977e-07
3.85073e-07
3.26182e-07
2.75195e-07
1.98126e-07
1.69882e-07
1.75445e-07
1.85302e-07
1.83681e-07
1.93083e-07
2.47526e-07
3.22518e-07
3.78612e-07
4.56906e-07
5.50848e-07
6.52231e-07
5.79821e-07
7.22267e-07
7.75217e-07
6.73722e-07
5.41605e-07
4.33476e-07
3.51557e-07
2.91012e-07
2.59301e-07
2.35408e-07
2.26554e-07
2.39472e-07
2.42723e-07
2.43939e-07
2.65941e-07
3.18739e-07
4.01934e-07
5.18661e-07
6.67847e-07
7.91912e-07
7.5789e-07
8.75454e-07
8.27132e-07
7.47704e-07
6.28678e-07
5.07937e-07
4.13573e-07
3.4723e-07
3.09574e-07
2.92154e-07
3.00187e-07
3.18531e-07
3.15332e-07
3.11039e-07
3.3067e-07
3.79831e-07
4.66418e-07
5.92123e-07
7.3261e-07
8.42617e-07
9.04918e-07
1.06084e-06
9.34709e-07
8.39287e-07
7.45382e-07
6.46765e-07
5.53635e-07
4.84737e-07
4.38927e-07
4.19938e-07
4.08091e-07
4.10878e-07
4.22801e-07
4.39741e-07
4.63006e-07
5.15802e-07
6.04195e-07
7.16979e-07
8.34985e-07
9.50163e-07
1.07764e-06
1.2613e-06
1.06032e-06
9.59024e-07
8.72596e-07
8.02611e-07
7.46502e-07
6.94374e-07
6.52814e-07
6.21873e-07
6.04847e-07
5.99686e-07
6.09786e-07
6.27315e-07
6.61594e-07
7.12881e-07
7.78042e-07
8.71068e-07
9.78404e-07
1.0861e-06
1.27936e-06
1.46745e-06
1.24984e-06
1.20089e-06
1.14389e-06
1.08078e-06
1.08192e-06
1.08244e-06
1.06995e-06
1.03288e-06
9.7385e-07
9.39918e-07
9.80072e-07
1.03257e-06
1.063e-06
1.07951e-06
1.12184e-06
1.20871e-06
1.26994e-06
1.3061e-06
1.50487e-06
1.70314e-06
1.68158e-06
1.91084e-06
2.15735e-06
2.42522e-06
2.65173e-06
2.88825e-06
3.04129e-06
2.97742e-06
2.73893e-06
2.62344e-06
2.83231e-06
3.00579e-06
3.02416e-06
2.89367e-06
2.67608e-06
2.40352e-06
2.10235e-06
1.80967e-06
1.78005e-06
1.94647e-06
2.46748e-06
2.99356e-06
3.49937e-06
4.01546e-06
4.54704e-06
5.08611e-06
5.58893e-06
5.97981e-06
6.17875e-06
6.33317e-06
6.31663e-06
6.06318e-06
5.62672e-06
5.08863e-06
4.50836e-06
3.92024e-06
3.32591e-06
2.70821e-06
2.1007e-06
1.07753e-07
1.3338e-07
1.41622e-07
1.4459e-07
1.47499e-07
1.54661e-07
1.70318e-07
1.92998e-07
2.26998e-07
2.68438e-07
2.95006e-07
2.69092e-07
2.39361e-07
2.19672e-07
2.11087e-07
1.89087e-07
1.63215e-07
1.48705e-07
1.486e-07
1.63637e-07
2.29198e-07
3.31358e-07
3.37863e-07
3.049e-07
2.45886e-07
1.92332e-07
1.64501e-07
1.63087e-07
1.76504e-07
2.00572e-07
2.11253e-07
1.93996e-07
1.80711e-07
1.90944e-07
2.22478e-07
3.0388e-07
3.55678e-07
3.28431e-07
2.93865e-07
2.77092e-07
4.10881e-07
4.6013e-07
4.43977e-07
4.08045e-07
3.59838e-07
3.06928e-07
2.57498e-07
1.98459e-07
1.90232e-07
2.08059e-07
2.15478e-07
2.01699e-07
2.00802e-07
2.41727e-07
3.05951e-07
3.47858e-07
3.96311e-07
4.3776e-07
4.68875e-07
4.33106e-07
5.76815e-07
5.92041e-07
5.41605e-07
4.68393e-07
3.98217e-07
3.37375e-07
2.89769e-07
2.65328e-07
2.47996e-07
2.5589e-07
2.65453e-07
2.52652e-07
2.47588e-07
2.65655e-07
3.07113e-07
3.70606e-07
4.51299e-07
5.41058e-07
6.0839e-07
5.76794e-07
7.68679e-07
7.2628e-07
6.28678e-07
5.33543e-07
4.45578e-07
3.73615e-07
3.2027e-07
2.926e-07
2.91006e-07
3.1861e-07
3.37572e-07
3.13587e-07
2.94598e-07
3.05073e-07
3.46764e-07
4.19133e-07
5.1782e-07
6.30107e-07
7.34805e-07
7.65406e-07
1.03894e-06
9.0896e-07
7.45382e-07
6.2758e-07
5.3284e-07
4.5504e-07
3.96818e-07
3.60533e-07
3.53736e-07
3.72809e-07
4.06113e-07
3.80731e-07
3.73074e-07
3.84254e-07
4.28435e-07
5.05489e-07
6.1192e-07
7.42654e-07
8.95346e-07
1.02299e-06
1.33192e-06
1.09666e-06
8.72596e-07
7.35782e-07
6.50865e-07
5.91387e-07
5.47852e-07
5.22233e-07
5.20489e-07
5.52544e-07
5.81756e-07
5.60086e-07
5.28945e-07
5.30984e-07
5.63758e-07
6.28056e-07
7.29898e-07
8.81962e-07
1.08436e-06
1.31714e-06
1.62038e-06
1.32942e-06
1.14389e-06
1.02685e-06
1.01414e-06
1.04364e-06
1.08646e-06
1.12545e-06
1.13665e-06
1.11189e-06
1.09422e-06
1.1147e-06
1.11404e-06
1.08058e-06
1.0389e-06
1.02741e-06
1.06818e-06
1.22051e-06
1.36421e-06
1.6359e-06
1.93832e-06
1.86009e-06
2.15735e-06
2.43677e-06
2.80905e-06
3.26514e-06
3.70637e-06
3.97794e-06
3.96097e-06
3.70344e-06
3.61444e-06
3.9156e-06
4.11511e-06
4.00348e-06
3.63197e-06
3.19682e-06
2.89561e-06
2.43631e-06
2.0136e-06
2.01258e-06
2.23327e-06
2.86485e-06
3.49937e-06
4.12525e-06
4.7999e-06
5.52498e-06
6.28845e-06
7.03201e-06
7.65181e-06
8.03645e-06
8.33286e-06
8.17514e-06
7.71686e-06
7.04549e-06
6.26626e-06
5.46592e-06
4.69422e-06
3.94129e-06
3.17669e-06
2.42527e-06
9.79465e-08
1.3222e-07
1.44108e-07
1.47499e-07
1.4892e-07
1.555e-07
1.73374e-07
2.08273e-07
2.62974e-07
3.29459e-07
3.667e-07
3.27338e-07
2.83191e-07
2.50921e-07
2.27245e-07
1.98307e-07
1.69145e-07
1.48924e-07
1.34851e-07
1.22606e-07
1.689e-07
3.07203e-07
2.95966e-07
2.45886e-07
1.99651e-07
1.73842e-07
1.6936e-07
1.82278e-07
2.09482e-07
2.47016e-07
2.54563e-07
2.22349e-07
1.99375e-07
1.98233e-07
2.10713e-07
2.42072e-07
2.75689e-07
2.70054e-07
2.38585e-07
2.06798e-07
3.21254e-07
3.79958e-07
3.85073e-07
3.59838e-07
3.17614e-07
2.70399e-07
2.26233e-07
1.96892e-07
2.16254e-07
2.59544e-07
2.599e-07
2.19746e-07
2.01404e-07
2.19625e-07
2.65514e-07
2.99321e-07
3.28475e-07
3.45024e-07
3.45895e-07
3.30583e-07
4.45435e-07
4.49689e-07
4.33476e-07
3.98217e-07
3.55244e-07
3.11841e-07
2.76349e-07
2.57959e-07
2.60854e-07
3.09845e-07
3.10668e-07
2.61289e-07
2.40268e-07
2.51219e-07
2.79757e-07
3.21924e-07
3.7038e-07
4.14705e-07
4.39264e-07
4.27684e-07
6.58273e-07
5.83586e-07
5.07937e-07
4.45578e-07
3.88662e-07
3.38502e-07
2.99631e-07
2.84815e-07
3.07039e-07
3.78686e-07
3.91259e-07
3.19637e-07
2.80249e-07
2.81349e-07
3.11453e-07
3.63511e-07
4.28493e-07
4.97249e-07
5.63659e-07
6.18493e-07
1.01926e-06
8.4899e-07
6.46765e-07
5.3284e-07
4.56291e-07
3.97571e-07
3.54192e-07
3.33057e-07
3.52801e-07
4.36202e-07
4.81433e-07
3.85239e-07
3.40276e-07
3.39842e-07
3.73853e-07
4.3439e-07
5.17685e-07
6.27976e-07
8.0054e-07
9.634e-07
1.39716e-06
1.13762e-06
8.02611e-07
6.50865e-07
5.75469e-07
5.30907e-07
5.0441e-07
5.00248e-07
5.34507e-07
6.2787e-07
6.859e-07
5.85949e-07
5.06408e-07
4.83315e-07
5.00394e-07
5.49905e-07
6.34288e-07
7.78182e-07
1.07504e-06
1.34391e-06
1.75882e-06
1.43488e-06
1.08078e-06
1.01414e-06
1.05705e-06
1.13663e-06
1.22652e-06
1.30452e-06
1.34086e-06
1.34253e-06
1.34454e-06
1.32617e-06
1.29306e-06
1.22097e-06
1.12976e-06
1.05867e-06
1.03557e-06
1.14029e-06
1.44275e-06
1.74854e-06
2.15544e-06
2.05326e-06
2.42522e-06
2.80905e-06
3.46671e-06
4.18633e-06
4.82644e-06
5.20926e-06
5.14728e-06
4.76577e-06
4.70644e-06
5.15807e-06
5.49773e-06
5.34924e-06
4.76288e-06
3.99488e-06
3.28174e-06
2.75809e-06
2.22871e-06
2.22348e-06
2.49585e-06
3.25347e-06
4.01546e-06
4.7999e-06
5.6807e-06
6.65882e-06
7.7252e-06
8.8123e-06
9.78887e-06
1.05024e-05
1.10305e-05
1.05831e-05
9.78101e-06
8.75982e-06
7.64972e-06
6.55109e-06
5.52134e-06
4.57494e-06
3.64222e-06
2.72826e-06
9.3255e-08
1.36234e-07
1.50979e-07
1.54661e-07
1.555e-07
1.58455e-07
1.78494e-07
2.18739e-07
2.99328e-07
4.02258e-07
4.50298e-07
3.92704e-07
3.29117e-07
2.80118e-07
2.39985e-07
2.02854e-07
1.71142e-07
1.47657e-07
1.26711e-07
1.02619e-07
1.27571e-07
2.08504e-07
2.13151e-07
1.92332e-07
1.73842e-07
1.6929e-07
1.83024e-07
2.13924e-07
2.60315e-07
3.16375e-07
3.16461e-07
2.62508e-07
2.25509e-07
2.10173e-07
2.0307e-07
1.98952e-07
2.0303e-07
2.03674e-07
1.87181e-07
1.55899e-07
2.51332e-07
3.14766e-07
3.26182e-07
3.06928e-07
2.70399e-07
2.30086e-07
2.00978e-07
2.0562e-07
2.58376e-07
3.39756e-07
3.29277e-07
2.49448e-07
2.06909e-07
2.00788e-07
2.20155e-07
2.46872e-07
2.63642e-07
2.7004e-07
2.62005e-07
2.50542e-07
3.49861e-07
3.5021e-07
3.51557e-07
3.37375e-07
3.11841e-07
2.81595e-07
2.56341e-07
2.45929e-07
2.87079e-07
4.03731e-07
3.90601e-07
2.80009e-07
2.31047e-07
2.3062e-07
2.4882e-07
2.71916e-07
2.97205e-07
3.1576e-07
3.20578e-07
3.21147e-07
5.69513e-07
4.75013e-07
4.13573e-07
3.73615e-07
3.38502e-07
3.05434e-07
2.79689e-07
2.79485e-07
3.37759e-07
4.92532e-07
4.90593e-07
3.35891e-07
2.66783e-07
2.56838e-07
2.73573e-07
3.05357e-07
3.42381e-07
3.798e-07
4.23393e-07
4.89387e-07
1.01001e-06
7.56353e-07
5.53635e-07
4.5504e-07
3.97571e-07
3.5648e-07
3.28536e-07
3.27011e-07
3.91239e-07
5.8065e-07
6.20392e-07
4.09658e-07
3.19049e-07
3.0543e-07
3.2666e-07
3.67557e-07
4.23562e-07
5.05389e-07
6.64909e-07
9.09451e-07
1.45314e-06
1.14818e-06
7.46502e-07
5.91387e-07
5.30907e-07
5.05245e-07
4.98859e-07
5.20218e-07
6.03343e-07
8.02377e-07
8.8417e-07
6.4319e-07
5.07899e-07
4.62513e-07
4.62845e-07
4.91589e-07
5.52182e-07
6.86199e-07
1.04114e-06
1.36181e-06
1.87503e-06
1.52172e-06
1.08192e-06
1.04364e-06
1.13663e-06
1.26606e-06
1.40006e-06
1.50463e-06
1.54699e-06
1.58207e-06
1.60389e-06
1.51372e-06
1.46592e-06
1.37944e-06
1.24932e-06
1.11835e-06
1.02546e-06
1.06134e-06
1.51622e-06
1.84021e-06
2.34301e-06
2.23726e-06
2.65173e-06
3.26514e-06
4.18633e-06
5.1256e-06
5.95715e-06
6.39931e-06
6.18494e-06
5.68916e-06
5.72283e-06
6.22833e-06
6.7426e-06
6.66186e-06
5.94082e-06
4.87926e-06
3.79803e-06
3.09305e-06
2.44303e-06
2.40682e-06
2.73653e-06
3.63569e-06
4.54704e-06
5.52498e-06
6.65882e-06
7.96074e-06
9.43492e-06
1.10122e-05
1.25478e-05
1.38492e-05
1.47465e-05
1.3722e-05
1.23389e-05
1.07997e-05
9.24323e-06
7.76625e-06
6.42317e-06
5.23871e-06
4.10953e-06
3.0131e-06
8.91062e-08
1.35201e-07
1.60145e-07
1.70318e-07
1.73374e-07
1.78494e-07
1.93692e-07
2.32444e-07
3.3194e-07
4.93773e-07
5.56882e-07
4.74853e-07
3.81424e-07
3.09382e-07
2.51514e-07
2.05744e-07
1.7307e-07
1.47731e-07
1.22755e-07
9.22165e-08
1.17853e-07
1.43906e-07
1.59789e-07
1.64501e-07
1.6936e-07
1.83024e-07
2.13459e-07
2.67366e-07
3.4479e-07
4.44893e-07
4.43041e-07
3.37712e-07
2.73076e-07
2.36683e-07
2.08627e-07
1.82826e-07
1.64235e-07
1.5297e-07
1.39426e-07
1.24204e-07
1.88232e-07
2.60684e-07
2.75195e-07
2.57498e-07
2.26233e-07
2.00978e-07
2.00223e-07
2.40502e-07
3.42424e-07
5.39635e-07
5.31869e-07
3.32773e-07
2.37255e-07
2.03241e-07
1.95175e-07
2.01971e-07
2.09834e-07
2.08737e-07
1.95755e-07
1.81177e-07
2.75914e-07
2.79005e-07
2.91012e-07
2.89769e-07
2.76349e-07
2.56341e-07
2.39258e-07
2.51833e-07
3.72035e-07
7.00493e-07
6.92519e-07
3.69483e-07
2.44078e-07
2.18249e-07
2.25586e-07
2.35156e-07
2.41578e-07
2.42811e-07
2.35494e-07
2.34711e-07
5.32934e-07
4.05141e-07
3.4723e-07
3.2027e-07
2.99631e-07
2.79689e-07
2.6669e-07
2.88195e-07
4.34105e-07
8.85947e-07
9.00688e-07
4.3454e-07
2.73846e-07
2.41788e-07
2.44556e-07
2.57755e-07
2.73833e-07
2.9145e-07
3.23272e-07
4.01297e-07
1.01191e-06
6.92395e-07
4.84737e-07
3.96818e-07
3.54192e-07
3.28536e-07
3.17395e-07
3.46511e-07
5.15237e-07
1.0504e-06
1.14236e-06
5.27479e-07
3.21601e-07
2.81756e-07
2.86228e-07
3.07745e-07
3.41909e-07
4.05834e-07
5.64266e-07
8.65738e-07
1.49438e-06
1.11357e-06
6.94374e-07
5.47852e-07
5.0441e-07
4.98859e-07
5.14998e-07
5.71091e-07
7.58665e-07
1.3019e-06
1.5081e-06
8.09296e-07
5.34007e-07
4.53585e-07
4.32778e-07
4.38869e-07
4.77741e-07
6.00314e-07
9.63393e-07
1.36781e-06
1.96638e-06
1.57186e-06
1.08244e-06
1.08646e-06
1.22652e-06
1.40006e-06
1.56561e-06
1.68053e-06
1.75271e-06
2.00838e-06
2.15518e-06
1.73366e-06
1.60192e-06
1.5077e-06
1.35163e-06
1.16957e-06
1.01959e-06
1.01922e-06
1.551e-06
1.90497e-06
2.49297e-06
2.39797e-06
2.88825e-06
3.70637e-06
4.82644e-06
5.95715e-06
6.91029e-06
7.3102e-06
6.94627e-06
6.83844e-06
7.21911e-06
7.21409e-06
7.65083e-06
7.70402e-06
6.93141e-06
5.64829e-06
4.2836e-06
3.35733e-06
2.61841e-06
2.55138e-06
2.95069e-06
4.00231e-06
5.08611e-06
6.28845e-06
7.7252e-06
9.43492e-06
1.14493e-05
1.37368e-05
1.62001e-05
1.866e-05
2.01822e-05
1.79567e-05
1.55382e-05
1.3204e-05
1.10387e-05
9.08785e-06
7.37631e-06
5.91444e-06
4.56515e-06
3.2737e-06
8.69197e-08
1.35701e-07
1.69963e-07
1.92998e-07
2.08273e-07
2.18738e-07
2.32444e-07
2.72673e-07
3.73493e-07
5.6755e-07
6.85774e-07
5.70071e-07
4.45852e-07
3.36303e-07
2.62595e-07
2.11356e-07
1.78382e-07
1.51448e-07
1.23315e-07
8.75097e-08
1.1692e-07
1.27423e-07
1.47375e-07
1.63087e-07
1.82278e-07
2.13924e-07
2.67366e-07
3.57125e-07
4.82702e-07
7.19152e-07
7.79414e-07
5.01295e-07
3.57166e-07
2.79693e-07
2.29688e-07
1.90792e-07
1.58938e-07
1.34831e-07
1.14456e-07
1.14041e-07
1.44033e-07
1.80349e-07
1.98126e-07
1.98459e-07
1.96892e-07
2.0562e-07
2.40502e-07
3.31692e-07
5.72887e-07
1.36909e-06
1.54609e-06
6.36197e-07
3.35339e-07
2.42678e-07
2.06976e-07
1.89407e-07
1.78157e-07
1.68141e-07
1.49014e-07
1.27491e-07
2.33595e-07
2.38925e-07
2.59301e-07
2.65328e-07
2.57959e-07
2.45929e-07
2.51833e-07
3.39102e-07
7.57445e-07
2.32505e-06
2.63399e-06
8.73099e-07
3.55585e-07
2.43253e-07
2.2136e-07
2.18986e-07
2.14305e-07
2.00346e-07
1.79229e-07
1.67973e-07
5.42096e-07
3.68885e-07
3.09573e-07
2.926e-07
2.84815e-07
2.79485e-07
2.88195e-07
3.86477e-07
9.78125e-07
3.37365e-06
3.92018e-06
1.15469e-06
3.99612e-07
2.64243e-07
2.39932e-07
2.34526e-07
2.32099e-07
2.33863e-07
2.57719e-07
3.50517e-07
1.0182e-06
6.47443e-07
4.38927e-07
3.60533e-07
3.33057e-07
3.27011e-07
3.46511e-07
4.74559e-07
1.1952e-06
4.05432e-06
5.04424e-06
1.4471e-06
4.59234e-07
2.95083e-07
2.66648e-07
2.66042e-07
2.82429e-07
3.35338e-07
4.91504e-07
8.26906e-07
1.51471e-06
1.07097e-06
6.52814e-07
5.22233e-07
5.00248e-07
5.20218e-07
5.71091e-07
7.27979e-07
1.47493e-06
4.30901e-06
5.61401e-06
1.85053e-06
7.02777e-07
4.78922e-07
4.18991e-07
3.99774e-07
4.20584e-07
5.33977e-07
8.88297e-07
1.35856e-06
2.0171e-06
1.57513e-06
1.06995e-06
1.12545e-06
1.30452e-06
1.50463e-06
1.68053e-06
1.83152e-06
2.33305e-06
4.51234e-06
5.72653e-06
2.69313e-06
1.77573e-06
1.57093e-06
1.40001e-06
1.19227e-06
1.00536e-06
9.76297e-07
1.53274e-06
1.93547e-06
2.59183e-06
2.50088e-06
3.04129e-06
3.97794e-06
5.20926e-06
6.39931e-06
7.3102e-06
7.58015e-06
7.76198e-06
9.91308e-06
1.1387e-05
8.92503e-06
8.17147e-06
8.07805e-06
7.42514e-06
6.13303e-06
4.61262e-06
3.53646e-06
2.73119e-06
2.64498e-06
3.12574e-06
4.32589e-06
5.58893e-06
7.03201e-06
8.8123e-06
1.10122e-05
1.37368e-05
1.70857e-05
2.12006e-05
2.61077e-05
2.86921e-05
2.39185e-05
1.95629e-05
1.59563e-05
1.29557e-05
1.04311e-05
8.30688e-06
6.5487e-06
4.97245e-06
3.49084e-06
8.70318e-08
1.42367e-07
1.8816e-07
2.26998e-07
2.62974e-07
2.99328e-07
3.3194e-07
3.73493e-07
4.34629e-07
5.92976e-07
7.37088e-07
6.40711e-07
4.96312e-07
3.71672e-07
2.82349e-07
2.25933e-07
1.91377e-07
1.62533e-07
1.3091e-07
8.54131e-08
1.23662e-07
1.2477e-07
1.49899e-07
1.76504e-07
2.09482e-07
2.60315e-07
3.4479e-07
4.82702e-07
7.18926e-07
2.33296e-06
2.91019e-06
8.6735e-07
4.87643e-07
3.3839e-07
2.59165e-07
2.10022e-07
1.72861e-07
1.42361e-07
1.15687e-07
1.1387e-07
1.64235e-07
1.50047e-07
1.69882e-07
1.90232e-07
2.16254e-07
2.58376e-07
3.42424e-07
5.72887e-07
1.59565e-06
7.2643e-06
9.45688e-06
2.00838e-06
6.14085e-07
3.31503e-07
2.42869e-07
2.04618e-07
1.78839e-07
1.54072e-07
1.25121e-07
1.11552e-07
2.4456e-07
2.18177e-07
2.35408e-07
2.47996e-07
2.60854e-07
2.87079e-07
3.72035e-07
7.57445e-07
2.96364e-06
1.27243e-05
1.65909e-05
3.87507e-06
8.60558e-07
3.55837e-07
2.46767e-07
2.14337e-07
1.97642e-07
1.78545e-07
1.47381e-07
1.20136e-07
5.5658e-07
3.47369e-07
2.92154e-07
2.91006e-07
3.07039e-07
3.37759e-07
4.34105e-07
9.78125e-07
4.44007e-06
1.77888e-05
2.33849e-05
5.98704e-06
1.1514e-06
3.90861e-07
2.65867e-07
2.30816e-07
2.10069e-07
1.97925e-07
2.19716e-07
3.33207e-07
1.01504e-06
6.24189e-07
4.19938e-07
3.53736e-07
3.52801e-07
3.91239e-07
5.15237e-07
1.1952e-06
5.50453e-06
2.11933e-05
2.83593e-05
7.77412e-06
1.41381e-06
4.36366e-07
2.89958e-07
2.50534e-07
2.46549e-07
2.93606e-07
4.45115e-07
7.88863e-07
1.50189e-06
1.00665e-06
6.21873e-07
5.20489e-07
5.34507e-07
6.03343e-07
7.58665e-07
1.47493e-06
5.99132e-06
2.18267e-05
2.97026e-05
8.87743e-06
1.76029e-06
6.33708e-07
4.45987e-07
3.88532e-07
3.90448e-07
4.94062e-07
8.26445e-07
1.32301e-06
2.01209e-06
1.51631e-06
1.03288e-06
1.13665e-06
1.34086e-06
1.54699e-06
1.75271e-06
2.33305e-06
6.2002e-06
2.01357e-05
2.71933e-05
9.34156e-06
2.69842e-06
1.61604e-06
1.35952e-06
1.1521e-06
9.60799e-07
9.36679e-07
1.45533e-06
1.9165e-06
2.61612e-06
2.49058e-06
2.97742e-06
3.96097e-06
5.14728e-06
6.18494e-06
6.94627e-06
7.76198e-06
1.0819e-05
1.96571e-05
2.3918e-05
1.43209e-05
9.35238e-06
7.86451e-06
7.11203e-06
6.02716e-06
4.56676e-06
3.41092e-06
2.70379e-06
2.6579e-06
3.23907e-06
4.55922e-06
5.97981e-06
7.65181e-06
9.78887e-06
1.25478e-05
1.62001e-05
2.12006e-05
2.83374e-05
3.80878e-05
4.19886e-05
3.25972e-05
2.46479e-05
1.89642e-05
1.48052e-05
1.16092e-05
9.05915e-06
7.02858e-06
5.26028e-06
3.62768e-06
8.94973e-08
1.52694e-07
2.11306e-07
2.68438e-07
3.29459e-07
4.02258e-07
4.93772e-07
5.6755e-07
5.92976e-07
6.46231e-07
7.4372e-07
6.58652e-07
5.33787e-07
4.00738e-07
3.13014e-07
2.55295e-07
2.15582e-07
1.81628e-07
1.4249e-07
8.52824e-08
1.36651e-07
1.35635e-07
1.64538e-07
2.00572e-07
2.47016e-07
3.16375e-07
4.44893e-07
7.19152e-07
2.33296e-06
3.58528e-06
3.99347e-06
3.0421e-06
7.48361e-07
3.93754e-07
2.79291e-07
2.25085e-07
1.87978e-07
1.55327e-07
1.24716e-07
1.15167e-07
1.90508e-07
1.57871e-07
1.75445e-07
2.08059e-07
2.59544e-07
3.39756e-07
5.39635e-07
1.36909e-06
7.2643e-06
7.51614e-06
8.07259e-06
9.14019e-06
1.48028e-06
4.5018e-07
2.64385e-07
2.11608e-07
1.81564e-07
1.52581e-07
1.22642e-07
1.12099e-07
2.83908e-07
2.21744e-07
2.26554e-07
2.5589e-07
3.09845e-07
4.03731e-07
7.00493e-07
2.32504e-06
1.27243e-05
1.26371e-05
1.32082e-05
1.63014e-05
2.62135e-06
5.55644e-07
2.60893e-07
2.03562e-07
1.78711e-07
1.58338e-07
1.35198e-07
1.15856e-07
5.57556e-07
3.4546e-07
3.00187e-07
3.1861e-07
3.78686e-07
4.92532e-07
8.85947e-07
3.37365e-06
1.77888e-05
1.87899e-05
1.92766e-05
2.362e-05
4.09788e-06
7.049e-07
2.87676e-07
2.19112e-07
1.93719e-07
1.82919e-07
1.96873e-07
3.10759e-07
9.78569e-07
5.91737e-07
4.08091e-07
3.72809e-07
4.36201e-07
5.8065e-07
1.0504e-06
4.05432e-06
2.11933e-05
2.52961e-05
2.56912e-05
2.94281e-05
5.27245e-06
8.63722e-07
3.46591e-07
2.59642e-07
2.38083e-07
2.73547e-07
4.15906e-07
7.33551e-07
1.444e-06
9.2182e-07
6.04847e-07
5.52544e-07
6.2787e-07
8.02377e-07
1.3019e-06
4.30901e-06
2.18267e-05
3.06361e-05
3.10558e-05
3.22206e-05
6.02417e-06
1.13817e-06
5.17397e-07
3.93673e-07
3.73957e-07
4.6666e-07
7.56974e-07
1.24346e-06
1.94501e-06
1.39804e-06
9.7385e-07
1.11189e-06
1.34253e-06
1.58207e-06
2.00838e-06
4.51234e-06
2.01357e-05
3.34253e-05
3.39245e-05
3.11635e-05
7.21504e-06
1.95909e-06
1.28962e-06
1.05007e-06
8.67607e-07
8.53244e-07
1.32651e-06
1.82604e-06
2.55417e-06
2.34987e-06
2.73893e-06
3.70344e-06
4.76577e-06
5.68916e-06
6.83844e-06
9.91308e-06
1.96571e-05
3.35974e-05
3.49882e-05
2.77768e-05
1.36422e-05
8.43923e-06
6.60035e-06
5.47652e-06
4.11373e-06
2.93743e-06
2.48126e-06
2.56158e-06
3.26603e-06
4.65439e-06
6.17875e-06
8.03645e-06
1.05024e-05
1.38492e-05
1.866e-05
2.61077e-05
3.80878e-05
5.31641e-05
5.4356e-05
4.40556e-05
3.07091e-05
2.19276e-05
1.62737e-05
1.23609e-05
9.42803e-06
7.22216e-06
5.34468e-06
3.63428e-06
9.2905e-08
1.603e-07
2.2711e-07
2.95006e-07
3.667e-07
4.50298e-07
5.56882e-07
6.85774e-07
7.37088e-07
7.4372e-07
6.11457e-07
5.44191e-07
4.87503e-07
3.91748e-07
3.19841e-07
2.69268e-07
2.31986e-07
1.95799e-07
1.52139e-07
8.53752e-08
1.46728e-07
1.45476e-07
1.74848e-07
2.11253e-07
2.54563e-07
3.16461e-07
4.43041e-07
7.79414e-07
2.91019e-06
3.99347e-06
3.85118e-06
3.23208e-06
7.57417e-07
3.70894e-07
2.65836e-07
2.21151e-07
1.90981e-07
1.6198e-07
1.31107e-07
1.10041e-07
2.02901e-07
1.69476e-07
1.85302e-07
2.15478e-07
2.599e-07
3.29277e-07
5.31869e-07
1.54609e-06
9.45688e-06
8.07259e-06
7.63167e-06
1.14972e-05
1.62616e-06
4.16746e-07
2.39708e-07
1.98336e-07
1.75566e-07
1.51619e-07
1.23804e-07
1.0789e-07
2.92616e-07
2.36663e-07
2.39472e-07
2.65453e-07
3.10668e-07
3.90601e-07
6.92519e-07
2.63399e-06
1.65909e-05
1.32082e-05
1.18325e-05
2.19769e-05
2.94889e-06
4.95512e-07
2.28798e-07
1.89863e-07
1.74439e-07
1.59344e-07
1.39622e-07
1.26629e-07
5.29728e-07
3.51808e-07
3.18531e-07
3.37572e-07
3.91259e-07
4.90593e-07
9.00688e-07
3.92018e-06
2.33849e-05
1.92766e-05
1.61281e-05
3.30487e-05
4.68224e-06
6.13347e-07
2.48299e-07
2.06756e-07
1.94794e-07
1.90259e-07
2.00002e-07
2.79169e-07
9.22593e-07
5.59831e-07
4.10878e-07
4.06113e-07
4.81433e-07
6.20392e-07
1.14236e-06
5.04424e-06
2.83593e-05
2.56912e-05
2.00105e-05
4.22745e-05
6.32058e-06
7.72623e-07
3.02373e-07
2.4908e-07
2.4237e-07
2.75082e-07
3.93383e-07
6.67193e-07
1.37935e-06
8.61726e-07
5.99686e-07
5.81756e-07
6.859e-07
8.8417e-07
1.5081e-06
5.61401e-06
2.97026e-05
3.10558e-05
2.26775e-05
4.68753e-05
7.64359e-06
1.12856e-06
4.78164e-07
3.80078e-07
3.69134e-07
4.50818e-07
7.03625e-07
1.15706e-06
1.87844e-06
1.31693e-06
9.39918e-07
1.09422e-06
1.34454e-06
1.60389e-06
2.15518e-06
5.72653e-06
2.71933e-05
3.39245e-05
2.39217e-05
4.3886e-05
9.01316e-06
1.95199e-06
1.18703e-06
9.67017e-07
8.03402e-07
7.94799e-07
1.24082e-06
1.72595e-06
2.50065e-06
2.24844e-06
2.62344e-06
3.61444e-06
4.70644e-06
5.72283e-06
7.21911e-06
1.1387e-05
2.3918e-05
3.49882e-05
2.54817e-05
3.47104e-05
1.59187e-05
8.82023e-06
6.45651e-06
5.24907e-06
3.83652e-06
2.65854e-06
2.28179e-06
2.44071e-06
3.29275e-06
4.73394e-06
6.33317e-06
8.33286e-06
1.10305e-05
1.47465e-05
2.01822e-05
2.86921e-05
4.19886e-05
5.4356e-05
4.15213e-05
4.46704e-05
3.17587e-05
2.24085e-05
1.64442e-05
1.2394e-05
9.37099e-06
7.114e-06
5.24075e-06
3.54044e-06
9.04489e-08
1.51743e-07
2.11503e-07
2.69092e-07
3.27338e-07
3.92704e-07
4.74853e-07
5.70071e-07
6.40711e-07
6.58652e-07
5.44191e-07
4.17176e-07
3.51549e-07
3.10922e-07
2.76539e-07
2.48049e-07
2.21852e-07
1.92125e-07
1.51635e-07
8.52416e-08
1.36888e-07
1.39995e-07
1.66976e-07
1.93996e-07
2.22349e-07
2.62508e-07
3.37712e-07
5.01295e-07
8.6735e-07
3.0421e-06
3.23208e-06
8.86229e-07
4.35431e-07
2.78463e-07
2.26971e-07
2.01318e-07
1.81598e-07
1.6014e-07
1.32013e-07
1.04562e-07
1.84266e-07
1.66735e-07
1.83681e-07
2.01699e-07
2.19746e-07
2.49448e-07
3.32773e-07
6.36197e-07
2.00838e-06
9.14019e-06
1.14972e-05
2.41083e-06
5.97326e-07
2.60205e-07
2.00519e-07
1.84806e-07
1.73821e-07
1.58158e-07
1.32284e-07
1.08747e-07
2.62255e-07
2.34978e-07
2.42723e-07
2.52652e-07
2.61289e-07
2.80009e-07
3.69483e-07
8.73099e-07
3.87507e-06
1.63014e-05
2.19769e-05
5.06239e-06
8.36985e-07
2.60162e-07
1.95653e-07
1.88763e-07
1.85492e-07
1.76356e-07
1.58092e-07
1.46989e-07
5.08562e-07
3.49424e-07
3.15332e-07
3.13587e-07
3.19637e-07
3.35891e-07
4.3454e-07
1.15469e-06
5.98704e-06
2.362e-05
3.30487e-05
8.17365e-06
1.11357e-06
2.8052e-07
2.09851e-07
2.07073e-07
2.10403e-07
2.14355e-07
2.27088e-07
2.94924e-07
9.22774e-07
5.75353e-07
4.22801e-07
3.80731e-07
3.85239e-07
4.09658e-07
5.27479e-07
1.4471e-06
7.77412e-06
2.94281e-05
4.22745e-05
1.09983e-05
1.40057e-06
3.25479e-07
2.44094e-07
2.44274e-07
2.61628e-07
3.0588e-07
4.21123e-07
6.74147e-07
1.40595e-06
8.86132e-07
6.09786e-07
5.60086e-07
5.85949e-07
6.4319e-07
8.09296e-07
1.85053e-06
8.87743e-06
3.22206e-05
4.68753e-05
1.32598e-05
1.91998e-06
5.26972e-07
3.92796e-07
3.73063e-07
3.93529e-07
4.85842e-07
7.38049e-07
1.1838e-06
1.93195e-06
1.38223e-06
9.80072e-07
1.1147e-06
1.32617e-06
1.51372e-06
1.73366e-06
2.69313e-06
9.34156e-06
3.11635e-05
4.3886e-05
1.45893e-05
2.97891e-06
1.47541e-06
1.24428e-06
1.06744e-06
8.94464e-07
8.85291e-07
1.31281e-06
1.77978e-06
2.58096e-06
2.38594e-06
2.83231e-06
3.9156e-06
5.15807e-06
6.22833e-06
7.21409e-06
8.92503e-06
1.43209e-05
2.77768e-05
3.47104e-05
1.96e-05
1.09973e-05
8.21549e-06
7.16695e-06
6.01975e-06
4.34051e-06
2.99852e-06
2.46355e-06
2.52781e-06
3.35368e-06
4.77049e-06
6.31663e-06
8.17514e-06
1.05831e-05
1.3722e-05
1.79567e-05
2.39185e-05
3.25972e-05
4.40556e-05
4.46704e-05
3.52297e-05
2.61724e-05
1.98387e-05
1.53798e-05
1.20055e-05
9.28929e-06
7.15796e-06
5.31416e-06
3.625e-06
8.73195e-08
1.42542e-07
1.93379e-07
2.39361e-07
2.83191e-07
3.29117e-07
3.81424e-07
4.45852e-07
4.96312e-07
5.33787e-07
4.87503e-07
3.51549e-07
2.57078e-07
2.28523e-07
2.22795e-07
2.13436e-07
2.00164e-07
1.79524e-07
1.46257e-07
8.48252e-08
1.21179e-07
1.34354e-07
1.60364e-07
1.80711e-07
1.99375e-07
2.25509e-07
2.73076e-07
3.57166e-07
4.87643e-07
7.48361e-07
7.57417e-07
4.35431e-07
2.71971e-07
2.14829e-07
1.93841e-07
1.84223e-07
1.75048e-07
1.60838e-07
1.36448e-07
1.02585e-07
1.57915e-07
1.71817e-07
1.93083e-07
2.00802e-07
2.01404e-07
2.06909e-07
2.37255e-07
3.35339e-07
6.14085e-07
1.48028e-06
1.62616e-06
5.97326e-07
2.67106e-07
1.97172e-07
1.86932e-07
1.88596e-07
1.89487e-07
1.82055e-07
1.58817e-07
1.23787e-07
2.37082e-07
2.29335e-07
2.43939e-07
2.47588e-07
2.40268e-07
2.31047e-07