/*--------------------------------*- C++ -*----------------------------------*\
  =========                 |
  \\      /  F ield         | OpenFOAM: The Open Source CFD Toolbox
   \\    /   O peration     | Website:  https://openfoam.org
    \\  /    A nd           | Version:  9
     \\/     M anipulation  |
\*---------------------------------------------------------------------------*/
FoamFile
{
    format      ascii;
    class       surfaceScalarField;
    location    "650";
    object      phi;
}
// * * * * * * * * * * * * * * * * * * * * * * * * * * * * * * * * * * * * * //

dimensions      [1 0 -1 0 0 0 0];

internalField   nonuniform List<scalar> 
11200
(
-0.00218141
0.00436206
-0.00218141
-0.00405035
0.00383324
-0.00196485
-0.00476266
0.00220114
-0.00148898
-0.00471469
0.000955523
-0.00100348
-0.00428182
0.00012182
-0.000554642
-0.00373842
-0.000341181
-0.000202181
-0.00322495
-0.000527974
1.45568e-05
-0.00262406
-0.000741708
0.000140893
-0.00179091
-0.000994457
0.000161412
-0.000641315
-0.00125524
0.000105764
0.000683845
-0.00137906
5.40229e-05
0.00189561
-0.00132861
0.000116964
0.00293306
-0.00125048
0.000213146
0.00375132
-0.00106233
0.000244184
0.00467655
-0.00111213
0.000187008
0.00516161
-0.000569802
8.48681e-05
0.00497619
0.00026005
-7.45296e-05
0.00407648
0.000998677
-9.90043e-05
0.00195004
0.0019631
0.000162953
0.000986298
0.000963261
0.00220695
-5.24281e-05
0.00220695
0.00236006
0.00209439
0.00158522
0.00144756
0.00225565
0.000857668
-1.28663e-05
0.00207613
0.000339641
-0.00174324
0.00174291
0.000109231
-0.00266598
0.000724371
-0.000142794
-0.00284266
-0.000161463
-0.000189776
-0.00217643
-0.00126199
-0.000145871
-0.00152951
-0.00135526
-0.000286015
-0.000667124
-0.00168107
-0.000436441
0.000266349
-0.00183518
-0.000477232
0.00104499
-0.00179428
-0.00031286
0.00165012
-0.00177295
-8.25563e-05
0.00188277
-0.00134315
4.82712e-05
0.00111359
-0.000404248
6.13842e-05
-0.000706182
0.000996467
0.000253494
-0.00259296
0.00156018
0.000586617
-0.00364165
0.00111541
0.00093185
-0.00283986
-0.000187061
0.00134815
-0.00348605
0.00163237
0.00308914
-0.00623076
0.00308914
0.00498666
-0.00272622
0.00292289
0.00524732
-0.000382554
0.00237735
0.00427805
0.00131808
0.00172715
0.00303933
0.00182108
0.00116044
0.00153778
0.00149988
0.000725978
6.16047e-05
0.000882592
0.0004321
-0.000773799
-0.000379375
-4.71601e-05
-0.000757082
-0.00102125
-0.000350653
-0.000425375
-0.00145509
-0.000557597
-0.000157388
-0.00154761
-0.000555465
-0.000249781
-0.00137237
-0.000329444
-0.000895128
-0.00111868
-8.85809e-06
-0.00216108
-0.000332601
0.000255458
-0.00380063
0.000695853
0.000539473
-0.00482995
0.00121818
0.000807617
-0.00540646
0.000963988
0.00117268
-0.00488514
-0.000900171
0.00149424
-0.00283577
-0.00394068
0.00170423
-0.00797829
0.00165646
0.00177418
-0.00977916
0.00177418
0.00335275
-0.00655903
0.00225419
0.00424899
-0.00361473
0.00233589
0.00457212
-0.00118317
0.00217805
0.00426353
0.000213532
0.00191607
0.00353877
0.000584004
0.00164059
0.00270468
0.00037307
0.00134357
0.00137827
-2.86355e-05
0.000975663
0.000516787
-0.000660002
0.000500254
6.90847e-05
-0.00110968
0.000102343
-0.000433042
-0.00107584
3.04026e-05
-0.00133118
-0.000721798
0.000247599
-0.00263433
-0.000409156
0.00059366
-0.00383835
-6.45673e-05
0.000936018
-0.00446991
0.000157524
0.00116991
-0.00460686
-7.05131e-06
0.0013622
-0.00406756
-0.00112726
0.00155195
-0.00304715
-0.00358172
0.00166113
-0.00158902
-0.0068971
0.00149826
-0.0106983
0.00113095
0.000854592
-0.0114884
0.000854592
0.00125149
-0.00855979
0.00160381
0.00134418
-0.00576872
0.00206126
0.00146066
-0.0037083
0.00240861
0.00157528
-0.00243022
0.00252909
0.0015542
-0.00185538
0.00246043
0.00137753
-0.00174185
0.00229157
0.00115246
-0.00183686
0.00203327
0.000867804
-0.00204636
0.00167101
0.000571455
-0.00211797
0.00130464
0.000183
-0.00182136
0.00113399
-0.000268856
-0.00155861
0.00128867
-0.000794904
-0.00146669
0.00158358
-0.001248
-0.00149272
0.00188125
-0.00148663
-0.00168971
0.00208586
-0.00148198
-0.00221306
0.00220135
-0.00129014
-0.00344378
0.00212466
-0.00106886
-0.00560262
0.0017996
-0.000692822
-0.00861497
0.0013418
-0.0120319
0.000640793
0.000204991
-0.0118984
0.000204991
-0.000188956
-0.00938403
0.00121814
-0.000658847
-0.00710358
0.00180471
-0.000916417
-0.0056401
0.00218933
-0.000944153
-0.00480966
0.00240714
-0.000764043
-0.00444384
0.00240831
-0.000463734
-0.00431272
0.00227052
-8.86658e-05
-0.00429041
0.00207845
0.000235215
-0.00427938
0.00190911
0.000429782
-0.00409654
0.00178398
0.000503001
-0.00364518
0.00175058
0.000655802
-0.00353797
0.00182653
0.000823382
-0.00360103
0.00196674
0.000957894
-0.0037519
0.00212464
0.000983482
-0.00399396
0.00227863
0.000893977
-0.00445813
0.00233455
0.000682641
-0.00538584
0.00215337
0.000295451
-0.00697889
0.00176342
-6.1947e-05
-0.00943037
0.00117277
-0.012266
0.000172096
-0.000303387
-0.0112917
-0.000303387
-0.00121294
-0.00933341
0.000858881
-0.00196974
-0.0077098
0.00136296
-0.00238235
-0.00682606
0.00159851
-0.00242724
-0.00641962
0.00165481
-0.00216494
-0.00630163
0.00159544
-0.00167759
-0.00625955
0.00145943
-0.00104242
-0.00623191
0.00130628
-0.000392332
-0.00614972
0.00122021
0.00016664
-0.00591845
0.0012629
0.000647284
-0.00552133
0.00139547
0.00121317
-0.00551962
0.00141573
0.00177774
-0.00563689
0.00147124
0.00221472
-0.00577989
0.00159097
0.00241865
-0.00591261
0.00171468
0.00234789
-0.00615546
0.00176805
0.00195048
-0.00668555
0.00169708
0.00123612
-0.00768634
0.00142177
0.00035649
-0.0094434
0.000892626
-0.0116205
-0.000289048
-0.000848397
-0.00959495
-0.000848397
-0.00216136
-0.00816981
0.000149312
-0.00314624
-0.00720461
0.00047964
-0.00364268
-0.00679669
0.000467021
-0.00365898
-0.00667771
0.00027434
-0.00327164
-0.00671526
2.62307e-05
-0.00258727
-0.00677678
-0.00016718
-0.00172146
-0.00680293
-0.000294837
-0.000807631
-0.0067306
-0.000333004
1.37936e-05
-0.00651072
-0.000229204
0.000759086
-0.00619233
-7.43354e-05
0.00162698
-0.00628071
-0.000106842
0.00249294
-0.00642343
-7.94748e-05
0.00318584
-0.00652465
5.18156e-05
0.00356526
-0.00657258
0.000280517
0.00355382
-0.00664496
0.00050089
0.0030752
-0.0068509
0.000643928
0.00212546
-0.0073272
0.000590563
0.000850659
-0.00836998
0.000201343
-0.00992406
-0.000845774
-0.00169237
-0.00621028
-0.00169237
-0.00337307
-0.00542651
-0.00106266
-0.00445561
-0.00505865
-0.00106348
-0.00492359
-0.00503728
-0.00129148
-0.00484804
-0.00514773
-0.00160558
-0.00434848
-0.00532528
-0.00188959
-0.00350771
-0.00550139
-0.00211623
-0.0024264
-0.00562901
-0.00225529
-0.00124497
-0.00566204
-0.00225004
-0.000142799
-0.00556745
-0.00204549
0.000874442
-0.00538458
-0.00182504
0.00208417
-0.00550454
-0.00198596
0.00325505
-0.00557887
-0.00201548
0.004189
-0.00555054
-0.00190811
0.00475936
-0.00544683
-0.00169616
0.0048598
-0.00532073
-0.00142472
0.00440299
-0.00523379
-0.00116035
0.0033374
-0.00526067
-0.00100098
0.00168589
-0.00564269
-0.00107583
-0.00648392
-0.00175429
-0.00310517
-0.00310517
-0.00519166
-0.00334007
-0.00627452
-0.00397585
-0.00666698
-0.00464488
-0.00650601
-0.00530877
-0.00589515
-0.00593619
-0.00491023
-0.00648636
-0.00360938
-0.00692992
-0.00207563
-0.00719584
-0.000526614
-0.00711652
0.00114879
-0.00706004
0.00295043
-0.00730624
0.00453531
-0.00716381
0.00573997
-0.00675527
0.00648588
-0.00619279
0.00670799
-0.0055429
0.00633311
-0.00485897
0.00525737
-0.00418498
0.00317322
-0.00355859
-0.00331074
-0.00196485
0.00383324
-0.00405035
-0.00337408
0.00281814
-0.00337408
-0.00400819
0.00165633
-0.00251132
-0.00407482
0.000730834
-0.0016677
-0.0038051
8.85119e-05
-0.000912841
-0.00341114
-0.000301469
-0.00029462
-0.00296446
-0.000553537
0.000121478
-0.00247127
-0.000750838
0.000398636
-0.00172814
-0.00107745
0.000495861
-0.000630393
-0.00143952
0.000447689
0.000687029
-0.00163341
0.000370161
0.00188216
-0.00150382
0.000425795
0.00287898
-0.0012831
0.000499549
0.0036868
-0.0010307
0.000467193
0.00460761
-0.00104291
0.000309214
0.00504906
-0.000414357
5.79087e-05
0.00491669
0.000321237
-0.000263316
0.00409017
0.00119519
-0.00046774
0.00222176
0.0025089
-0.000477912
0.00324921
-6.46527e-05
0.00158522
0.00209439
0.00236006
0.0017642
0.00245977
0.0017642
0.00112026
0.00221791
0.000939775
2.3435e-05
0.00189014
0.000277011
-0.00127321
0.00150919
-1.48413e-05
-0.00214485
0.000681869
-0.000254497
-0.00242277
-0.000184893
-0.000280439
-0.00196936
-0.00118652
-0.000163517
-0.0014321
-0.00165795
-0.00024267
-0.000679736
-0.00222888
-0.000399317
0.000153919
-0.0025003
-0.000443854
0.000874947
-0.00228245
-0.000255141
0.00144521
-0.00189136
-4.44571e-05
0.00164082
-0.00122067
4.2723e-05
0.000878506
-0.00026084
4.17021e-05
-0.000699528
0.00111264
0.000304514
-0.00220283
0.00161145
0.000799643
-0.00304876
0.00155979
0.00141303
-0.00256149
0.00129583
0.00207365
-0.000137002
0.00245672
0.00292289
-0.00272622
0.00498666
0.00454309
-0.000780862
0.00454309
0.00476902
0.000753822
0.00361531
0.00400603
0.00178171
0.00259842
0.00292868
0.00199545
0.00175142
0.00166615
0.00159351
0.0010768
0.000391038
0.000941969
0.000580324
-0.000474111
-0.000339977
-2.85214e-05
-0.000636636
-0.00146306
-0.000382944
-0.000510609
-0.00225535
-0.000657056
-0.000427843
-0.00249883
-0.000639595
-0.000639877
-0.00207343
-0.000326342
-0.00126342
-0.00132507
4.84691e-05
-0.00244687
-0.000181488
0.000399765
-0.00393909
0.000902819
0.000868036
-0.00484206
0.00144928
0.00137393
-0.00542086
0.00134799
0.00201489
-0.00498251
-8.04771e-05
0.00269607
-0.00309546
-0.00203527
0.00314818
-0.00474908
0.00317305
0.00225419
-0.00655903
0.00335275
0.00398575
-0.00424402
0.00398575
0.00492447
-0.00180977
0.00396068
0.00508
0.000287722
0.00351643
0.00457043
0.00148609
0.00293493
0.00376441
0.00166074
0.00237933
0.00291165
0.00129486
0.0018434
0.00166115
0.000668046
0.00121814
0.000580131
-0.000296455
0.000414699
-0.000163881
-0.00125332
-0.00015561
-0.000909238
-0.00153424
-0.000188764
-0.00198278
-0.000962739
0.000210502
-0.00327034
-0.000166584
0.000722769
-0.00436041
0.000555546
0.00128909
-0.00502639
0.00101428
0.00172444
-0.00534327
0.0010073
0.00212107
-0.00493396
-1.78364e-05
0.00250845
-0.00387369
-0.00226025
0.00278062
-0.00211743
-0.00495548
0.00266219
-0.00763472
0.00189916
0.00160381
-0.00855979
0.00125149
0.00258751
-0.00621145
0.00258751
0.00309728
-0.00360328
0.00334496
0.00338567
-0.00122183
0.00362973
0.00341545
0.000438321
0.00354705
0.00311041
0.00115151
0.00327467
0.0026374
0.00116873
0.00289068
0.00205252
0.000890793
0.00239539
0.00128144
0.000408823
0.00173684
0.00042339
-0.000152405
0.00106182
-0.000500867
-0.000324834
0.000848883
-0.00149222
9.25148e-05
0.0012248
-0.00239948
0.000527479
0.00179681
-0.00306833
0.000799666
0.00230599
-0.0034323
0.000799919
0.0026642
-0.00336729
0.000233086
0.00291054
-0.00297383
-0.00129012
0.00300347
-0.00242678
-0.00375205
0.00274434
-0.00146956
-0.00658492
0.002014
-0.00910298
0.00063948
0.00121814
-0.00938403
-0.000188956
0.00162297
-0.00702118
0.00162297
0.00158036
-0.00447041
0.00271441
0.00149323
-0.00223641
0.00329099
0.0015086
-0.000692701
0.00352276
0.00153854
7.70026e-05
0.00345285
0.00145452
0.000341054
0.00318219
0.00132073
0.000277278
0.00282574
0.00108032
7.67028e-05
0.00248162
0.000660553
-5.38456e-05
0.00210519
0.000152475
1.30373e-05
0.00192078
-0.000357355
0.000253972
0.0021749
-0.000817457
0.000424413
0.00252989
-0.0011504
0.000396244
0.00286099
-0.00127769
3.38849e-05
0.00317196
-0.00133922
-0.000693494
0.00332265
-0.00141409
-0.00221673
0.00315482
-0.00144665
-0.00454268
0.0025866
-0.00110162
-0.00724185
0.00148465
-0.00966871
-0.000363807
0.000858881
-0.00933341
-0.00121294
0.000814274
-0.00693202
0.000814274
0.000442736
-0.00471533
0.00197937
0.000180186
-0.00292863
0.00255325
9.1794e-05
-0.00171946
0.00276992
0.000146192
-0.00108059
0.0026986
0.000312692
-0.000871379
0.00250534
0.000498395
-0.000854462
0.00225229
0.000603792
-0.000850675
0.00204216
0.000572722
-0.000723161
0.00196326
0.000437332
-0.00047534
0.00201921
0.000343801
-0.000382697
0.00214591
0.000302232
-0.000402285
0.00233949
0.000267025
-0.000568472
0.00259087
0.000171696
-0.000990144
0.00283402
-3.87811e-06
-0.00171535
0.00296545
-0.000284357
-0.00297533
0.00273614
-0.000697002
-0.00480511
0.00209682
-0.000797412
-0.00710256
0.000853717
-0.00953099
-0.0012242
0.000149312
-0.00816981
-0.00216136
-0.000239776
-0.0061539
-0.000239776
-0.000845165
-0.00439659
0.000766234
-0.00113544
-0.0032848
0.00111342
-0.00114843
-0.00258856
0.00115639
-0.000981525
-0.00222079
0.000999486
-0.000659704
-0.00211503
0.000754615
-0.000249086
-0.00208498
0.000525031
0.000143553
-0.00199709
0.000420737
0.000402882
-0.00173128
0.000519556
0.000584365
-0.00145562
0.000724431
0.000830465
-0.00152221
0.000786539
0.00110509
-0.00166466
0.000908246
0.00131161
-0.00185144
0.00112823
0.00139181
-0.00216183
0.00137197
0.0012978
-0.002635
0.00151452
0.000927777
-0.00339308
0.00143166
0.000275314
-0.00453218
0.000970053
-0.000149219
-0.00633099
-0.000145732
-0.00836857
-0.00215745
-0.00106266
-0.00542651
-0.00337307
-0.00213305
-0.00401317
-0.00213305
-0.00287924
-0.00309378
-0.00162016
-0.00318752
-0.00264127
-0.00162679
-0.00304833
-0.00242194
-0.00191143
-0.00260677
-0.0023674
-0.00218459
-0.00196564
-0.00237706
-0.00249538
-0.00121044
-0.00237226
-0.00272325
-0.000455788
-0.00228514
-0.00271669
0.000221886
-0.0020052
-0.00244929
0.000800714
-0.00172135
-0.00213818
0.00151096
-0.00197608
-0.00224236
0.00223438
-0.00218699
-0.00221661
0.00286707
-0.0023242
-0.00206807
0.00326053
-0.00243232
-0.00181918
0.00331158
-0.00257505
-0.00153576
0.00292838
-0.00283188
-0.00133839
0.00213457
-0.00327936
-0.00146004
0.00104225
-0.0041875
-0.00212706
-0.00562029
-0.00346035
-0.00334007
-0.00519166
-0.00534669
-0.00534669
-0.00633561
-0.00608077
-0.00664607
-0.00697575
-0.00645353
-0.0079233
-0.00587462
-0.00888257
-0.00497623
-0.00976186
-0.00378088
-0.0104976
-0.00229233
-0.0109696
-0.000483094
-0.010931
0.00159222
-0.0108568
0.00344141
-0.0111316
0.00495655
-0.010866
0.00607381
-0.0101968
0.00675603
-0.00930739
0.00695672
-0.00831869
0.00659792
-0.00733211
0.00554002
-0.00640649
0.00345601
-0.00566213
-0.00547507
-0.00148898
0.00220114
-0.00476266
-0.00251132
0.00165633
-0.00400819
-0.00303727
0.00105185
-0.00303727
-0.00318213
0.000510328
-0.00203318
-0.00307963
8.42266e-05
-0.00109956
-0.00286226
-0.000206946
-0.000305009
-0.00256132
-0.00047227
0.000292869
-0.00219729
-0.000686775
0.000721475
-0.00158712
-0.00104213
0.000927941
-0.000590765
-0.00147803
0.000929522
0.00066405
-0.00173123
0.000846739
0.00180578
-0.00154813
0.000832332
0.00272861
-0.001235
0.00081185
0.00348149
-0.000960252
0.000674689
0.00431948
-0.000921866
0.000393189
0.00475209
-0.00036478
-9.81201e-06
0.00471919
0.000304494
-0.000534854
0.00413039
0.00117479
-0.00105379
0.0026013
0.00260927
-0.00155841
0.00449587
-0.0019598
0.000857668
0.00225565
0.00144756
0.000939775
0.00221791
0.00112026
0.000478305
0.00197461
0.000478305
-0.000317336
0.00165732
-7.44411e-05
-0.00117194
0.0012494
-0.000325441
-0.00181428
0.000608475
-0.000427585
-0.00206928
-0.000168223
-0.000329443
-0.00175645
-0.00108488
-7.81642e-05
-0.00134359
-0.00168395
-1.36057e-05
-0.000688175
-0.00243428
-9.83369e-05
7.52467e-05
-0.00280672
-0.000131643
0.000752212
-0.00246954
-1.05701e-05
0.00127282
-0.0018593
5.93292e-05
0.00149059
-0.0011234
-1.1807e-05
0.000887879
-0.000169972
-0.00010742
-0.000333155
0.00108344
7.72996e-05
-0.00144745
0.00167238
0.000545972
-0.00205858
0.00201199
0.00118678
-0.00177187
0.0025865
0.00180939
0.00319609
0.00198416
0.00237735
-0.000382554
0.00524732
0.00361531
0.000753822
0.00476902
0.00380224
0.00160058
0.00380224
0.00324718
0.00207136
0.0027393
0.00236658
0.00205312
0.0018282
0.00135706
0.00159756
0.00109717
0.000327382
0.000899401
0.000542351
-0.000439221
-0.000370698
2.3933e-05
-0.000643663
-0.00163567
-0.000226711
-0.000597799
-0.00268615
-0.000450949
-0.000568027
-0.00306108
-0.0004149
-0.000775123
-0.00246254
-0.000126162
-0.00132657
-0.00140505
0.000145724
-0.00235373
-9.81686e-05
0.00040172
-0.0036076
0.00103719
0.000914737
-0.00434515
0.00163755
0.00155732
-0.00477693
0.00177574
0.00234323
-0.00448463
0.00121771
0.00319791
-0.00293208
0.000278952
0.00390298
-0.000610808
0.00404765
0.00233589
-0.00361473
0.00424899
0.00396068
-0.00180977
0.00492447
0.00482563
-0.000129402
0.00482563
0.00486438
0.00136902
0.00417994
0.00435106
0.00208853
0.00341277
0.00357165
0.00207039
0.00268584
0.00273281
0.00156428
0.00201733
0.00155617
0.000730833
0.00129323
0.000450361
-0.000584114
0.000468985
-0.000367302
-0.00190838
-0.000115646
-0.00116356
-0.00234858
-0.000104929
-0.00223281
-0.00153932
0.000356585
-0.00346444
-0.000336088
0.000885469
-0.00450006
0.000742823
0.00148374
-0.00514969
0.00139546
0.00201579
-0.00549341
0.00154115
0.00256116
-0.00522962
0.000892763
0.0031276
-0.00419799
-0.000605739
0.00357239
-0.00242128
-0.00237839
0.0035428
-0.0039766
0.00284365
0.00206126
-0.00576872
0.00134418
0.00334496
-0.00360328
0.00309728
0.00407029
-0.00158009
0.00407029
0.0043798
0.000378141
0.00431105
0.00424311
0.00169389
0.00407832
0.00378428
0.00215985
0.00364401
0.00314851
0.00197765
0.00311305
0.00235674
0.00143514
0.00248285
0.00130561
0.000581369
0.0016225
0.000141942
-0.000460686
0.000777844
-0.00105107
-0.000937884
0.000631259
-0.00228178
-0.000262885
0.00117911
-0.00334261
0.000643361
0.00187822
-0.00407851
0.00129917
0.00248556
-0.00451563
0.001582
0.0029148
-0.0045607
0.00123934
0.00325741
-0.00410565
-6.25935e-06
0.00344743
-0.00324591
-0.00196091
0.00323976
-0.00194077
-0.00398275
0.0023132
-0.00590493
0.000627029
0.00180471
-0.00710358
-0.000658847
0.00271441
-0.00447041
0.00158036
0.00305355
-0.00225842
0.00305355
0.00315001
-0.00023808
0.00381073
0.00308617
0.00126486
0.00401559
0.00287313
0.00195735
0.00386836
0.00252442
0.0019932
0.00351533
0.00207945
0.00166444
0.00304139
0.00146094
0.00116163
0.00251986
0.000643247
0.000568089
0.00189413
-0.000314576
0.00025343
0.00168732
-0.00124394
0.0006696
0.0021718
-0.00202914
0.00122062
0.00273783
-0.00259609
0.00156719
0.00315992
-0.00291836
0.0015742
0.00350202
-0.00298662
0.000950113
0.00368012
-0.00286354
-0.000504119
0.00352959
-0.00251145
-0.00255728
0.00283086
-0.0016593
-0.00473407
0.0013838
-0.00711675
-0.000811305
0.00136296
-0.0077098
-0.00196974
0.00197937
-0.00471533
0.000442736
0.00208046
-0.00246064
0.00208046
0.00198322
-0.000521853
0.00293422
0.00190751
0.000829883
0.00328057
0.00183958
0.00146645
0.00325739
0.00174744
0.00156052
0.00303013
0.0015943
0.00136453
0.00270532
0.00132681
0.00108419
0.00238708
0.000832605
0.000853695
0.00217185
0.000130228
0.000806206
0.00216881
-0.000501939
0.00096708
0.00248059
-0.00096394
0.00121169
0.00281042
-0.00130338
0.00135348
0.00314401
-0.00154771
0.00122714
0.0034254
-0.00172307
0.000572911
0.00351799
-0.00186087
-0.000814864
0.00318466
-0.00181838
-0.00274397
0.00224101
-0.00128879
-0.00491222
0.000502262
-0.00771176
-0.00191801
0.00047964
-0.00720461
-0.00314624
0.000766234
-0.00439659
-0.000845165
0.000670788
-0.0022698
0.000670788
0.000615962
-0.00078151
0.00142786
0.000748576
0.000120198
0.00173343
0.000888251
0.000650871
0.00167537
0.00101788
0.000713722
0.00147176
0.00107563
0.000601762
0.00123003
0.00102436
0.000497049
0.00105913
0.000742742
0.000607543
0.00104732
0.000312239
0.000749626
0.0012115
-2.06133e-07
0.000666883
0.00139917
-0.000165737
0.000637456
0.001648
-0.000253259
0.000623676
0.00194554
-0.000292285
0.000418557
0.00221957
-0.000320244
-0.000166595
0.00228197
-0.000507175
-0.00108638
0.00189008
-0.000723236
-0.00253139
0.000973502
-0.000502449
-0.00455572
-0.00072306
-0.00729257
-0.00307912
-0.00106348
-0.00505865
-0.00445561
-0.00162016
-0.00309378
-0.00287924
-0.00185064
-0.0018089
-0.00185064
-0.00181292
-0.00104918
-0.00139688
-0.00143487
-0.000576496
-0.00159283
-0.000857242
-0.000347759
-0.00176362
-0.000299359
-0.000287815
-0.00205175
0.000151921
-0.000231318
-0.00234147
0.000424956
-5.72151e-05
-0.00243548
0.000529399
0.000295383
-0.0022416
0.000553625
0.000549881
-0.00196268
0.000713626
0.000260261
-0.00199576
0.00101965
3.30887e-06
-0.00188851
0.00144323
-0.000215053
-0.00165295
0.00185263
-0.000474789
-0.00133525
0.00201375
-0.000822759
-0.00104075
0.0019267
-0.00132461
-0.00101314
0.0015995
-0.00204649
-0.00161778
0.00101925
-0.00327711
-0.00282545
-0.00522677
-0.00450695
-0.00397585
-0.00627452
-0.00608077
-0.00633561
-0.00698525
-0.00698525
-0.00714836
-0.00786187
-0.00684107
-0.00880714
-0.00619676
-0.00987468
-0.00528988
-0.0109566
-0.0040891
-0.0119297
-0.00250835
-0.0126076
-0.000449139
-0.0126949
0.00193132
-0.0126874
0.00395043
-0.0128904
0.00552838
-0.0124407
0.00668668
-0.0115702
0.00742329
-0.0105188
0.00770475
-0.00942295
0.0074231
-0.00837513
0.00637936
-0.00740929
0.00413961
-0.00669954
-0.00656228
-0.00100348
0.000955523
-0.00471469
-0.0016677
0.000730834
-0.00407482
-0.00203318
0.000510328
-0.00318213
-0.00218003
0.000293687
-0.00218003
-0.00220465
0.000113499
-0.00118847
-0.00214043
-8.91465e-05
-0.00028008
-0.00201937
-0.000310815
0.000482655
-0.00181835
-0.000563494
0.00108403
-0.00137661
-0.00095231
0.00143864
-0.000542307
-0.00143706
0.00153244
0.00058437
-0.00173363
0.00145386
0.00163699
-0.00153804
0.0013179
0.00247143
-0.00118448
0.00116201
0.00313858
-0.000885105
0.000892751
0.00382022
-0.000780635
0.000492276
0.00420327
-0.000350448
-4.23315e-05
0.00418666
0.000225478
-0.000743687
0.00370475
0.00093895
-0.00151088
0.00242937
0.002092
-0.00237521
0.00377621
-0.00330702
0.000339641
0.00207613
-1.28664e-05
0.000277011
0.00189014
2.3435e-05
-7.44412e-05
0.00165732
-0.000317336
-0.000605594
0.00135593
-0.000605594
-0.0011017
0.000957554
-0.00067342
-0.00149651
0.000459828
-0.00058176
-0.00167967
-0.000150146
-0.000306928
-0.00148392
-0.000935939
9.85934e-05
-0.00120322
-0.00158518
0.000338659
-0.000685869
-0.00243368
0.000381068
-4.14021e-05
-0.00287356
0.000363966
0.0005652
-0.0024948
0.000339709
0.00104094
-0.00180496
0.000204161
0.00129063
-0.00108307
-6.34549e-05
0.000914899
-0.000190139
-0.000322136
7.81085e-05
0.000878511
-0.000314893
-0.000685437
0.00156154
-2.66177e-05
-0.00108712
0.00207109
0.00045616
-0.00092558
0.00284797
0.000891584
0.00401912
0.000815244
0.00172715
0.00131808
0.00427805
0.00259842
0.00178171
0.00400603
0.0027393
0.00207136
0.00324718
0.00234344
0.00214753
0.00234344
0.00167488
0.00191576
0.00153847
0.000911078
0.00142057
0.000900177
0.000150947
0.000715127
0.000437184
-0.000434809
-0.000448647
0.000122425
-0.00063999
-0.00167675
7.01024e-05
-0.000669102
-0.00283319
-2.22293e-05
-0.00068913
-0.00329321
2.48772e-05
-0.000858259
-0.00262527
0.000173516
-0.00125963
-0.00148445
0.000226641
-0.00204833
-0.000175191
0.000282554
-0.00298015
0.000991415
0.000664983
-0.003531
0.00167787
0.00130877
-0.00376006
0.0020628
0.00207093
-0.00345631
0.00208424
0.00288085
-0.00229462
0.00205701
0.00353203
0.0020922
0.00367965
0.00217805
-0.00118317
0.00457212
0.00351643
0.000287723
0.00508
0.00417994
0.00136902
0.00486438
0.00421194
0.00208343
0.00421194
0.00378208
0.00232931
0.003429
0.00311746
0.00208869
0.00268229
0.00234832
0.00148776
0.0020138
0.00131186
0.000558851
0.00132218
0.000310951
-0.000875459
0.000668631
-0.000526938
-0.00232374
0.000212859
-0.00133149
-0.00285736
0.00026385
-0.00230815
-0.00192676
0.000634791
-0.00338153
-0.000548993
0.00102342
-0.00429383
0.000707757
0.0015131
-0.00484131
0.00150109
0.00205357
-0.00509039
0.00185365
0.00263441
-0.00483966
0.00167888
0.00326072
-0.00396742
0.00101543
0.00376888
-0.00239694
0.000132635
0.00389659
-0.000884903
0.00342371
0.00240861
-0.0037083
0.00146066
0.00362973
-0.00122183
0.00338567
0.00431105
0.000378141
0.0043798
0.00455136
0.00160277
0.00455136
0.00437829
0.00232287
0.00425778
0.00390456
0.00244315
0.00376323
0.00324667
0.00207037
0.00318828
0.00239013
0.00135741
0.00254082
0.00122273
0.000254027
0.00166043
-9.11125e-05
-0.00112437
0.000892361
-0.00143385
-0.00172943
0.000846117
-0.00273169
-0.000844545
0.00139479
-0.00381976
0.000395594
0.00202173
-0.00453114
0.00130503
0.00259967
-0.00493283
0.00180308
0.00301449
-0.00496443
0.00176593
0.00337672
-0.00452003
0.00108571
0.00359618
-0.00360397
-9.1395e-05
0.0034305
-0.00225957
-0.00145128
0.00255271
-0.00345778
0.000940328
0.00218933
-0.0056401
-0.000916417
0.00329099
-0.00223641
0.00149323
0.00381073
-0.00023808
0.00315001
0.00396727
0.00128964
0.00396727
0.00388139
0.00224016
0.00418415
0.00359157
0.002571
0.0040303
0.00313679
0.00237664
0.00366381
0.00253457
0.00183968
0.00316132
0.00166306
0.00108506
0.00256035
0.000496026
0.00011075
0.00182606
-0.000856382
-0.000361028
0.00167136
-0.0020261
0.000203173
0.00229383
-0.002938
0.00111463
0.00293072
-0.00356458
0.00174811
0.00334343
-0.00390856
0.00201842
0.00363065
-0.00394437
0.00173116
0.0037507
-0.00366311
0.000781488
0.00355254
-0.00305768
-0.000665446
0.00279947
-0.00200118
-0.00240774
0.00128375
-0.00538428
-0.000886009
0.00159851
-0.00682606
-0.00238235
0.00255325
-0.00292863
0.000180186
0.00293422
-0.000521853
0.00198322
0.00299824
0.00116157
0.00299824
0.0029735
0.00208971
0.00345573
0.00287627
0.00240931
0.00351629
0.00268503
0.00226307
0.00333492
0.00236319
0.00185475
0.00301209
0.00184485
0.00136055
0.00262993
0.000925549
0.000932393
0.00226951
-0.000268191
0.000732607
0.00226893
-0.00132101
0.000980489
0.00275611
-0.00200843
0.00142508
0.00318739
-0.00244984
0.00182321
0.00351032
-0.00269543
0.00198207
0.00370736
-0.00277704
0.0016572
0.00367356
-0.00273278
0.000706802
0.00321508
-0.00237484
-0.000949603
0.00216721
-0.00152324
-0.0030857
0.000328593
-0.00665121
-0.00217434
0.000467021
-0.00679669
-0.00364268
0.00111342
-0.0032848
-0.00113544
0.00142786
-0.00078151
0.000615962
0.00158382
0.000849627
0.00158382
0.00175174
0.00165094
0.00200426
0.00191449
0.00184142
0.00208048
0.00200155
0.00169426
0.0019535
0.00192881
0.0014355
0.00172202
0.00161599
0.00123412
0.00149837
0.0009315
0.00127434
0.00138986
-1.00794e-05
0.00135561
0.00153008
-0.000724763
0.00126313
0.00183122
-0.00112949
0.00132223
0.00215557
-0.00131099
0.00148675
0.0024635
-0.00136115
0.00158041
0.00267138
-0.00137389
0.0013151
0.0026368
-0.00128519
0.000326738
0.00218144
-0.00108349
-0.00114367
0.000965841
-0.000533782
-0.00343842
-0.000920076
-0.00680979
-0.00345436
-0.00129148
-0.00503728
-0.00492359
-0.00162679
-0.00264127
-0.00318752
-0.00139688
-0.00104918
-0.00181292
-0.000998964
5.37592e-05
-0.000998964
-0.000491846
0.000450309
-0.000899349
6.92709e-05
0.000544635
-0.00102798
0.000519043
0.000530087
-0.00133737
0.000769072
0.000558915
-0.00171494
0.00083278
0.000721716
-0.0019868
0.000700866
0.00114421
-0.00197956
0.000385002
0.00145241
-0.00174363
0.00029798
0.00102612
-0.00167175
0.00038429
0.000747055
-0.00139966
0.000605016
0.000591432
-0.000978379
0.000931191
0.00047879
-0.000559822
0.00126368
0.000256094
-0.000314247
0.00144668
-0.000379494
-0.00048994
0.00153499
-0.00136539
-0.0014844
0.0011927
-0.00285784
-0.00306378
-0.00522055
-0.00490353
-0.00464488
-0.00666698
-0.00697575
-0.00664607
-0.00786187
-0.00714836
-0.00783502
-0.00783502
-0.00741207
-0.00877983
-0.0067642
-0.00997796
-0.00588446
-0.0113063
-0.00465112
-0.0126042
-0.00291516
-0.0136218
-0.000479934
-0.0139859
0.00239586
-0.0141108
0.00465855
-0.0141271
0.00631079
-0.0133459
0.0074818
-0.0121498
0.00826988
-0.0108282
0.00868138
-0.0095784
0.00848895
-0.00856224
0.00738142
-0.0076672
0.00485672
-0.00703274
-0.00692615
-0.000554642
0.00012182
-0.00428182
-0.000912841
8.85119e-05
-0.0038051
-0.00109956
8.42266e-05
-0.00307963
-0.00118847
0.000113499
-0.00220465
-0.00124752
0.000118054
-0.00124752
-0.00129743
4.96057e-05
-0.000279822
-0.00132739
-0.000126382
0.000638992
-0.00130284
-0.000397108
0.00145664
-0.00107228
-0.000841013
0.00204922
-0.000484856
-0.00138913
0.0023343
0.000421971
-0.00171932
0.00226652
0.00134579
-0.00152913
0.00192335
0.00208529
-0.00114636
0.00156898
0.00266483
-0.000818782
0.00113209
0.00316684
-0.000621527
0.000611869
0.0034417
-0.000293027
-2.41143e-05
0.00337175
0.000112923
-0.000786657
0.00289681
0.000616246
-0.00165222
0.00183311
0.00129883
-0.00261044
0.00210907
-0.00358316
0.000109231
0.00174291
-0.00174324
-1.48414e-05
0.00150919
-0.00127321
-0.000325441
0.0012494
-0.00117194
-0.000673421
0.000957554
-0.0011017
-0.00092957
0.000630325
-0.00092957
-0.00110201
0.000281987
-0.000641721
-0.00119612
-0.000145411
-0.000193784
-0.00112409
-0.00074491
0.000374404
-0.000998016
-0.00146324
0.000834905
-0.000671658
-0.00238917
0.00105488
-0.000203732
-0.00285567
0.00103253
0.000275375
-0.0024715
0.00080308
0.000684597
-0.00176151
0.000410173
0.000950398
-0.00107648
-7.14956e-05
0.000807055
-0.000290873
-0.000509415
0.000369523
0.0005577
-0.000728105
-0.000112748
0.00124377
-0.000675242
-0.000380136
0.00172732
-0.000387654
-0.000350039
0.00228226
-0.000122145
0.00294966
-0.000375665
0.00116044
0.00182108
0.00303933
0.00175142
0.00199545
0.00292868
0.0018282
0.00205312
0.00236658
0.00153847
0.00191576
0.00167488
0.00106214
0.0015829
0.00106214
0.00052932
0.00110137
0.000613577
1.622e-05
0.000448979
0.000355873
-0.000381917
-0.000535321
0.000310995
-0.000604552
-0.00166693
0.000496482
-0.00072692
-0.00286703
0.000578088
-0.000818598
-0.00334398
0.000604957
-0.000962556
-0.00268159
0.000527649
-0.00121154
-0.00158703
0.000301202
-0.00171634
-0.000390157
0.000101036
-0.00230714
0.000739905
0.000224985
-0.00268174
0.00151023
0.000730787
-0.00274097
0.00200957
0.00136427
-0.00242972
0.00227947
0.00201732
-0.00155398
0.0024452
0.00249316
0.00259021
0.00248487
0.00191606
0.000213533
0.00426353
0.00293493
0.00148609
0.00457043
0.00341277
0.00208853
0.00435106
0.003429
0.00232931
0.00378208
0.00309911
0.00224263
0.00309911
0.00257464
0.00185796
0.0024501
0.00190775
0.00124147
0.00188816
0.00104187
0.000313785
0.00133894
0.000162707
-0.00108413
0.000965023
-0.00065908
-0.0025486
0.000716271
-0.0014314
-0.00307468
0.000766941
-0.00226832
-0.00214572
0.000935893
-0.0031336
-0.000767586
0.00106929
-0.00386648
0.000520167
0.00133565
-0.00428072
0.00140387
0.00180381
-0.00437643
0.00192537
0.00231493
-0.00409132
0.00210942
0.00287569
-0.00335364
0.00198578
0.0033248