/*--------------------------------*- C++ -*----------------------------------*\
  =========                 |
  \\      /  F ield         | OpenFOAM: The Open Source CFD Toolbox
   \\    /   O peration     | Website:  https://openfoam.org
    \\  /    A nd           | Version:  9
     \\/     M anipulation  |
\*---------------------------------------------------------------------------*/
FoamFile
{
    format      ascii;
    class       volVectorField;
    location    "650";
    object      U;
}
// * * * * * * * * * * * * * * * * * * * * * * * * * * * * * * * * * * * * * //

dimensions      [0 1 -1 0 0 0 0];

internalField   nonuniform List<vector> 
4000
(
(-0.00228229 0.0145582 -0.00228229)
(-0.0114305 0.0102819 -0.0031846)
(-0.0161808 0.00324204 -0.00267308)
(-0.0168991 -0.00118857 -0.00177784)
(-0.0158017 -0.0026584 -0.000915621)
(-0.0138281 -0.00200114 -0.000288255)
(-0.012166 -0.00175701 7.73487e-05)
(-0.0102156 -0.00239105 0.000331377)
(-0.00768421 -0.00340857 0.000342472)
(-0.00436435 -0.00433025 0.000201239)
(-8.10825e-05 -0.00491552 7.77542e-05)
(0.00471247 -0.00465116 0.000251794)
(0.00838912 -0.00419637 0.000500225)
(0.0116429 -0.0035609 0.000606014)
(0.0145548 -0.00391943 0.000519187)
(0.0170691 -0.00427284 0.000381417)
(0.018407 -0.00364741 8.86656e-05)
(0.0168887 2.78678e-05 0.000116242)
(0.0111025 0.00686152 0.000933867)
(0.000868042 0.00883066 0.00317305)
(0.00600502 0.0130776 0.00600502)
(0.00751195 0.0156747 0.00405828)
(0.00689028 0.0118507 0.00246435)
(0.00348846 0.00800406 0.00136437)
(-0.00330659 0.00375789 0.00058015)
(-0.00904692 -0.000790392 -0.000222187)
(-0.0101431 -0.00279198 -0.000362463)
(-0.00861601 -0.00371446 -0.000365254)
(-0.00648862 -0.00439049 -0.000717981)
(-0.00380563 -0.00544411 -0.00106085)
(-0.000657136 -0.00596649 -0.00115174)
(0.0024612 -0.00586512 -0.000749053)
(0.00479942 -0.00576759 -0.000196299)
(0.00590175 -0.00513137 0.000130849)
(0.00692147 -0.00464406 0.000168483)
(0.00150958 0.000973211 0.000574437)
(-0.00738504 0.00590826 0.00148647)
(-0.0115382 0.00753713 0.00234232)
(-0.0111579 0.00710102 0.00331929)
(-0.00679158 -0.003496 0.00383016)
(0.00576204 -0.014332 0.00576204)
(0.0141818 -0.00186887 0.00632653)
(0.0183754 0.0051291 0.00561997)
(0.0174969 0.00771248 0.00434429)
(0.01298 0.00779404 0.00304258)
(0.00810712 0.00563151 0.00201456)
(0.00326108 0.00207669 0.00122269)
(-0.0028503 -0.00435302 -7.17994e-05)
(-0.00278804 -0.0049771 -0.000687617)
(-0.00202701 -0.00587515 -0.00117149)
(-0.000755554 -0.00625901 -0.00119415)
(-0.00040001 -0.00602872 -0.000667129)
(-0.00144276 -0.00574057 6.72614e-05)
(-0.00485766 -0.00304825 0.000584752)
(-0.0111109 0.00231099 0.00119862)
(-0.0150724 0.00530972 0.00183589)
(-0.0186514 0.00538292 0.00263997)
(-0.0186314 0.000841754 0.0033404)
(-0.0135221 -0.00891851 0.00364128)
(-0.00455772 -0.0221037 0.00322419)
(0.00289454 -0.0295355 0.00289454)
(0.00895539 -0.0184868 0.00436824)
(0.0127648 -0.0086367 0.00501467)
(0.0159288 0.000396457 0.00516344)
(0.0161132 0.00515665 0.00474989)
(0.0138198 0.00563974 0.00422423)
(0.0108638 0.00443557 0.0036298)
(0.00737211 0.00222935 0.00288055)
(0.00274987 -0.00112159 0.00179451)
(0.000861073 -0.00339212 0.000804321)
(-0.000289375 -0.00370531 0.000508831)
(-0.00266965 -0.00253121 0.000994018)
(-0.00688061 -0.00101024 0.00185228)
(-0.0117694 0.00124292 0.00256812)
(-0.0148603 0.00309503 0.00296839)
(-0.0164712 0.00362268 0.00334047)
(-0.0156479 0.000377103 0.00373898)
(-0.0118651 -0.00836724 0.00369437)
(-0.00811387 -0.0199243 0.0030696)
(-0.00214028 -0.0336113 0.0021198)
(0.00122985 -0.03789 0.00122985)
(0.00419773 -0.0272097 0.00292561)
(0.00400545 -0.0169735 0.00402516)
(0.00483418 -0.00904703 0.00511173)
(0.00532399 -0.00387238 0.00585112)
(0.00576039 -0.00143148 0.00595779)
(0.00516685 -0.00137067 0.00564097)
(0.0043372 -0.00223775 0.00496492)
(0.00352721 -0.00323037 0.00402032)
(0.00260089 -0.00402842 0.00326932)
(0.00149703 -0.0034586 0.00297322)
(-0.000219585 -0.00231655 0.00324015)
(-0.00187838 -0.00170445 0.00393624)
(-0.00367136 -0.00153766 0.0047665)
(-0.00507438 -0.00190819 0.0052883)
(-0.00536423 -0.00367977 0.00536832)
(-0.00492366 -0.00819697 0.0046888)
(-0.00350254 -0.0164078 0.00356929)
(-0.0036306 -0.0276719 0.00250215)
(-0.000626494 -0.0402251 0.00112804)
(7.1482e-05 -0.0414069 7.14819e-05)
(0.000930085 -0.0318929 0.00187577)
(-0.0021048 -0.0229185 0.00273983)
(-0.00280429 -0.0169496 0.00338219)
(-0.00339366 -0.0135276 0.00368011)
(-0.00305883 -0.0120512 0.00353793)
(-0.00219986 -0.0114987 0.00311697)
(-0.000973403 -0.0113962 0.00258329)
(0.000358904 -0.0115345 0.00218678)
(0.00125828 -0.0110104 0.00214885)
(0.00171017 -0.00938589 0.00242999)
(0.00185986 -0.00879239 0.00251544)
(0.00252906 -0.00891436 0.00274515)
(0.00311841 -0.00941239 0.00311976)
(0.00342346 -0.0103846 0.00352335)
(0.00336728 -0.0122153 0.00369974)
(0.0027417 -0.0159603 0.00338235)
(0.00237239 -0.0224025 0.00263077)
(-0.000573989 -0.0319835 0.00176528)
(0.000389025 -0.0429195 0.000181558)
(-0.0010268 -0.0408283 -0.0010268)
(-0.00171855 -0.0331472 0.000673725)
(-0.00620655 -0.0266125 0.000827845)
(-0.00778878 -0.0228002 0.000709511)
(-0.00858718 -0.0208751 0.00030859)
(-0.00814356 -0.0201702 -0.000215357)
(-0.00676905 -0.0199521 -0.000756069)
(-0.00477302 -0.0198865 -0.00119796)
(-0.00240384 -0.0196584 -0.00140253)
(-0.000330392 -0.0188215 -0.00122961)
(0.00149725 -0.0172191 -0.000765213)
(0.0030705 -0.017083 -0.000842607)
(0.00518982 -0.017442 -0.000762299)
(0.00702733 -0.0179662 -0.000437902)
(0.00819948 -0.0185868 5.68109e-05)
(0.00849891 -0.0197412 0.000503606)
(0.00766653 -0.0221159 0.000827388)
(0.00622836 -0.0263952 0.000825713)
(0.00180616 -0.0334912 0.000626859)
(0.00136323 -0.0420389 -0.000952736)
(-0.00258112 -0.0361428 -0.00258112)
(-0.00449533 -0.030715 -0.00121625)
(-0.00992635 -0.0266633 -0.00180278)
(-0.0121153 -0.0248182 -0.00255785)
(-0.0129379 -0.0242147 -0.00342671)
(-0.0122228 -0.0242938 -0.00424596)
(-0.0102758 -0.0244284 -0.00488862)
(-0.00752617 -0.0245237 -0.00536458)
(-0.00429311 -0.0243701 -0.00557334)
(-0.00142063 -0.0237537 -0.00540657)
(0.00146796 -0.0226728 -0.00504933)
(0.00398384 -0.0227945 -0.00528129)
(0.00716634 -0.0231642 -0.00518347)
(0.00997866 -0.0234721 -0.00476925)
(0.0119081 -0.0235762 -0.00407831)
(0.0126358 -0.0238488 -0.00327896)
(0.0118333 -0.0247821 -0.00245878)
(0.00974874 -0.0269221 -0.00180338)
(0.00435676 -0.0313111 -0.00130426)
(0.00278576 -0.0372898 -0.00263361)
(-0.00510089 -0.0270472 -0.00510089)
(-0.00843502 -0.02341 -0.00456602)
(-0.014317 -0.0214539 -0.00563855)
(-0.016643 -0.0209812 -0.0069208)
(-0.0172088 -0.0211485 -0.00821551)
(-0.0161159 -0.0216691 -0.00935712)
(-0.0137327 -0.0222688 -0.0102762)
(-0.0103434 -0.0227355 -0.0109246)
(-0.00629749 -0.0228882 -0.0111782)
(-0.00261724 -0.0225655 -0.0108541)
(0.00143919 -0.0219994 -0.0104193)
(0.00506083 -0.0222817 -0.0109056)
(0.00932303 -0.0224772 -0.0107822)
(0.0130401 -0.0223648 -0.0101953)
(0.0157199 -0.0220448 -0.00927421)
(0.0169788 -0.0217089 -0.00814893)
(0.0164561 -0.0216226 -0.00692901)
(0.0141682 -0.0221205 -0.0057591)
(0.0082833 -0.0241514 -0.0048031)
(0.00528173 -0.0280617 -0.00537164)
(-0.00898382 -0.016784 -0.00898382)
(-0.0146586 -0.013476 -0.0101928)
(-0.0205955 -0.0119215 -0.012395)
(-0.0227973 -0.0114811 -0.0145676)
(-0.0230698 -0.0114155 -0.016685)
(-0.0216464 -0.0114759 -0.018657)
(-0.0188294 -0.0114557 -0.0203767)
(-0.0148233 -0.0112259 -0.0217661)
(-0.00987513 -0.0106964 -0.0226274)
(-0.00511054 -0.00988373 -0.0224981)
(0.00134313 -0.00894483 -0.022364)
(0.00723383 -0.00966697 -0.0230807)
(0.0130929 -0.0104467 -0.0225367)
(0.0179485 -0.0110092 -0.0212194)
(0.0213875 -0.0113419 -0.0194403)
(0.023152 -0.0115524 -0.0173935)
(0.0229982 -0.0118103 -0.0152264)
(0.0208216 -0.0123609 -0.0130553)
(0.0148584 -0.0140068 -0.0108916)
(0.00931964 -0.0175419 -0.00963323)
(-0.0031846 0.0102819 -0.0114305)
(-0.00967859 0.00614697 -0.00967859)
(-0.0132469 0.0018283 -0.00716762)
(-0.0143359 -0.00112065 -0.0047488)
(-0.0138902 -0.00233297 -0.00260515)
(-0.0125546 -0.00191839 -0.000931104)
(-0.0111375 -0.00176632 0.00012102)
(-0.00953318 -0.00226444 0.000808448)
(-0.00734924 -0.00332386 0.000935447)
(-0.00425377 -0.00447662 0.000684825)
(-6.59134e-05 -0.00528993 0.000416559)
(0.00467522 -0.00487705 0.000685572)
(0.00826737 -0.00415502 0.00107735)
(0.0114551 -0.00343694 0.0011527)
(0.0142862 -0.00373265 0.000838644)
(0.01692 -0.00398952 0.000276056)
(0.0180313 -0.00312029 -0.00054049)
(0.016583 0.000506207 -0.000792918)
(0.0116513 0.00707145 -1.65453e-05)
(0.00215059 0.0114663 0.00260617)
(0.00405828 0.0156747 0.00751195)
(0.00568582 0.013526 0.00568582)
(0.00539177 0.00971527 0.00318098)
(0.00259431 0.00642126 0.00119523)
(-0.00220717 0.0031897 0.000280397)
(-0.00680178 -0.000451622 -0.000682744)
(-0.0086184 -0.00284539 -0.000864351)
(-0.0075708 -0.00384224 -0.000655118)
(-0.00593924 -0.00517149 -0.00116682)
(-0.00364671 -0.00682556 -0.00176257)
(-0.000889789 -0.00768659 -0.00192085)
(0.00189381 -0.0071337 -0.00126586)
(0.00406723 -0.00614323 -0.000374015)
(0.00527499 -0.00498673 0.000136016)
(0.00615955 -0.0041507 0.000221014)
(0.00049165 0.00165346 0.0011021)
(-0.00623827 0.00580993 0.00260262)
(-0.00975624 0.00823749 0.00433222)
(-0.00945617 0.0105704 0.00634376)
(-0.00661626 0.00886991 0.00788847)
(0.00632653 -0.00186887 0.0141818)
(0.0132253 0.00446092 0.0132253)
(0.0167247 0.00730685 0.0107054)
(0.0159731 0.00797316 0.0077811)
(0.0123205 0.00742376 0.00524426)
(0.00796892 0.00521821 0.00324004)
(0.00400498 0.00194322 0.00182349)
(-0.00126959 -0.00380902 -0.000219829)
(-0.00207575 -0.00642349 -0.00151631)
(-0.0019487 -0.00849446 -0.00235816)
(-0.00141845 -0.00932132 -0.00230355)
(-0.00166415 -0.0082624 -0.00135816)
(-0.00295029 -0.00622262 -8.03541e-05)
(-0.00600924 -0.00241553 0.00114179)
(-0.0117916 0.00273857 0.00251627)
(-0.0152526 0.00559414 0.00390116)
(-0.0185381 0.00604242 0.00568711)
(-0.0187263 0.00366251 0.00745402)
(-0.0142729 -0.00202147 0.00861821)
(-0.00604566 -0.010742 0.00837968)
(0.00436824 -0.0184868 0.00895539)
(0.0109605 -0.0109544 0.0109605)
(0.0154963 -0.00296974 0.0111576)
(0.0180286 0.00378076 0.010077)
(0.0172287 0.00672786 0.00855483)
(0.0146245 0.00654785 0.00707193)
(0.0115676 0.00487212 0.00561238)
(0.00828715 0.00189019 0.00385625)
(0.00359236 -0.00273924 0.00153452)
(0.00062398 -0.00632446 -0.000119642)
(-0.00161067 -0.00722487 -0.000280841)
(-0.00479771 -0.00518016 0.00077102)
(-0.00927253 -0.00210974 0.00226954)
(-0.0136984 0.00144889 0.00389321)
(-0.0165571 0.00394125 0.00508774)
(-0.0184606 0.0048104 0.00613403)
(-0.0185444 0.00251812 0.00719593)
(-0.0150833 -0.00468554 0.00804186)
(-0.0105353 -0.0134929 0.0076095)
(-0.00379092 -0.022777 0.00554124)
(0.00292561 -0.0272097 0.00419773)
(0.00785115 -0.0191168 0.00785115)
(0.00959178 -0.0103122 0.00989351)
(0.01121 -0.00219718 0.010853)
(0.0122062 0.00339294 0.0107949)
(0.0115686 0.00524927 0.0101756)
(0.0100446 0.00480521 0.00925971)
(0.00817167 0.00332573 0.00807673)
(0.00591132 0.00117104 0.00652611)
(0.00313239 -0.00147187 0.00484486)
(3.29826e-05 -0.00248719 0.00406441)
(-0.00364448 -0.000786748 0.00484426)
(-0.00694039 0.00133396 0.00624899)
(-0.00967535 0.00282572 0.00754115)
(-0.011645 0.00344306 0.0084665)
(-0.0123098 0.00224809 0.00914324)
(-0.0109128 -0.00269118 0.0094179)
(-0.00902055 -0.0110332 0.00859551)
(-0.0073533 -0.0207859 0.006648)
(-0.00247036 -0.0297757 0.0029389)
(0.00187577 -0.0318929 0.000930085)
(0.00596679 -0.0236849 0.00596679)
(0.00524023 -0.0146435 0.0088553)
(0.00522421 -0.00651588 0.010454)
(0.00509866 -0.000695314 0.0113211)
(0.00543783 0.00231735 0.0113282)
(0.00523721 0.00288023 0.0107394)
(0.00485525 0.00246548 0.00994166)
(0.00424142 0.0015163 0.00922071)
(0.00318023 0.000534589 0.00845864)
(0.00157734 0.00055206 0.00800337)
(-0.000531665 0.00148649 0.00840253)
(-0.00211392 0.00231994 0.00911687)
(-0.00357861 0.00257588 0.00985734)
(-0.00446718 0.00190745 0.0105848)
(-0.0044704 -0.000828043 0.0108987)
(-0.00473481 -0.00639705 0.0102566)
(-0.00454711 -0.0149068 0.00869902)
(-0.005517 -0.0246062 0.00581585)
(-0.00155275 -0.0331559 0.000614905)
(0.000673725 -0.0331472 -0.00171856)
(0.00432538 -0.0250364 0.00432538)
(0.00167486 -0.0166563 0.00730204)
(0.00103114 -0.0095685 0.00869993)
(0.000305326 -0.00470378 0.00925522)
(0.000311664 -0.00210655 0.00922537)
(0.000803604 -0.0011276 0.00883716)
(0.0014121 -0.0010777 0.00827402)
(0.00200871 -0.00124076 0.00790677)
(0.00216671 -0.00125338 0.00798702)
(0.00183577 -0.000693795 0.00835141)
(0.00122873 -0.00020858 0.00856761)
(0.00104363 -1.11125e-05 0.00886557)
(0.00092296 -0.000436127 0.00934169)
(0.000815268 -0.00184177 0.00973531)
(0.000438586 -0.00456953 0.00983576)
(-0.000495581 -0.00956494 0.00924533)
(-0.00113768 -0.0169156 0.00770157)
(-0.004094 -0.0256938 0.00458176)
(-0.000503714 -0.033935 -0.00168772)
(-0.00121625 -0.030715 -0.00449533)
(0.00154579 -0.0231643 0.00154579)
(-0.0027242 -0.0162913 0.00393035)
(-0.00358546 -0.011359 0.00448165)
(-0.0041073 -0.0079874 0.00419476)
(-0.00371348 -0.0060825 0.00363048)
(-0.00289585 -0.0055557 0.00276901)
(-0.00160921 -0.00543141 0.00205797)
(-7.30358e-05 -0.00505908 0.00192652)
(0.00104327 -0.0039115 0.00270943)
(0.00177466 -0.00248611 0.00374448)
(0.0023193 -0.00253386 0.0037371)
(0.00330041 -0.00309027 0.00382018)
(0.00416047 -0.00399496 0.00430966)
(0.0047471 -0.00566913 0.00483)
(0.00482901 -0.0081009 0.00528402)
(0.0039895 -0.0117503 0.00541604)
(0.00294861 -0.0167828 0.00457707)
(-0.00158404 -0.0238048 0.00187459)
(0.00126539 -0.0313893 -0.00446625)
(-0.00456602 -0.02341 -0.00843502)
(-0.00456748 -0.0177431 -0.00456748)
(-0.00936087 -0.0137056 -0.00361848)
(-0.0107814 -0.0116479 -0.00421133)
(-0.0110022 -0.0106245 -0.00546133)
(-0.00989119 -0.0103938 -0.00666626)
(-0.00796961 -0.0106024 -0.00765371)
(-0.00551583 -0.0109327 -0.00823022)
(-0.00281786 -0.0110874 -0.00809713)
(-0.000495069 -0.0105739 -0.00696941)
(0.00188834 -0.0101143 -0.00573137)
(0.00391214 -0.0104966 -0.00643845)
(0.00648472 -0.0107865 -0.00667532)
(0.00889376 -0.0108961 -0.00627431)
(0.0107463 -0.0110459 -0.005396)
(0.0116186 -0.0114931 -0.00425105)
(0.0110971 -0.0125445 -0.00328999)
(0.00945444 -0.0144817 -0.00309496)
(0.00441531 -0.018404 -0.00450673)
(0.00462699 -0.0240883 -0.00869928)
(-0.0101928 -0.013476 -0.0146586)
(-0.0152325 -0.00848082 -0.0152325)
(-0.021021 -0.00574606 -0.0177321)
(-0.0228461 -0.00443 -0.0206473)
(-0.022911 -0.00370831 -0.0236381)
(-0.0215051 -0.00324978 -0.0265342)
(-0.0189304 -0.00274401 -0.0291038)
(-0.0153069 -0.00200521 -0.0312039)
(-0.0106122 -0.000924932 -0.0325111)
(-0.00566585 0.000547699 -0.0323418)
(0.00242559 0.00193804 -0.032148)
(0.00891118 0.000686367 -0.0330222)
(0.0147588 -0.000567243 -0.0322569)
(0.0193111 -0.00167308 -0.0303209)
(0.0224505 -0.00259945 -0.0276951)
(0.0240481 -0.00346715 -0.0246922)
(0.0238853 -0.00449862 -0.0215957)
(0.0218246 -0.00598959 -0.0186472)
(0.0157431 -0.00882465 -0.016179)
(0.0105613 -0.0139852 -0.0155567)
(-0.00267308 0.00324204 -0.0161808)
(-0.00716762 0.0018283 -0.0132469)
(-0.00978856 0.000265221 -0.00978856)
(-0.010949 -0.00102509 -0.00642394)
(-0.0110313 -0.00164815 -0.0034252)
(-0.0104542 -0.00144232 -0.000984129)
(-0.00949814 -0.00141866 0.00076361)
(-0.00839649 -0.00194991 0.00194401)
(-0.00667789 -0.00302538 0.0024259)
(-0.0039673 -0.00432649 0.00230602)
(-5.41513e-05 -0.00530998 0.00201048)
(0.00449091 -0.00481594 0.00212151)
(0.00788288 -0.00393101 0.00225822)
(0.0108458 -0.00318608 0.001999)
(0.0134543 -0.00334684 0.00127045)
(0.015937 -0.00352997 0.000141805)
(0.0169959 -0.00276466 -0.00126594)
(0.0159701 0.000209408 -0.002434)
(0.0124781 0.0058368 -0.00320334)
(0.00439285 0.0126564 -0.00281937)
(0.00246435 0.0118507 0.00689028)
(0.00318098 0.00971527 0.00539177)
(0.00281767 0.00714709 0.00281767)
(0.000681212 0.00481034 0.000606142)
(-0.00261076 0.00240234 -0.000407257)
(-0.00564159 -0.000184509 -0.00109504)
(-0.00732545 -0.00241719 -0.00104636)
(-0.00666006 -0.00354427 -0.000462909)
(-0.00542213 -0.0051405 -0.00053648)
(-0.00350588 -0.0072398 -0.00102199)
(-0.00106072 -0.00839914 -0.00117625)
(0.00150835 -0.0075477 -0.00055565)
(0.00352965 -0.00599766 3.77228e-05)
(0.00475698 -0.00465485 0.000103313)
(0.00560035 -0.00368633 -7.35176e-06)
(0.00108936 0.00142458 0.000895652)
(-0.00395237 0.00527801 0.00269371)
(-0.00672892 0.00819732 0.00489832)
(-0.00639695 0.0121275 0.00711207)
(-0.00432949 0.0163352 0.00825575)
(0.00561997 0.0051291 0.0183754)
(0.0107054 0.00730685 0.0167247)
(0.0133851 0.00797018 0.0133851)
(0.0127685 0.0077782 0.00968821)
(0.00995809 0.00677016 0.00653137)
(0.0064369 0.0046831 0.00400019)
(0.00322619 0.00153891 0.00210176)
(-0.00104518 -0.00353823 8.89941e-06)
(-0.00197199 -0.0066864 -0.0011661)
(-0.00208239 -0.00959301 -0.0021402)
(-0.00187212 -0.0108379 -0.00206275)
(-0.00222522 -0.00925355 -0.00091694)
(-0.00340837 -0.00626515 0.000367749)
(-0.00595434 -0.00215941 0.00152123)
(-0.0109988 0.00286331 0.00334197)
(-0.0137763 0.00582846 0.00537707)
(-0.0164078 0.00704475 0.00792405)
(-0.0166307 0.00694221 0.0105898)
(-0.0131031 0.00638532 0.0125746)
(-0.00656299 0.00478261 0.0128953)
(0.00501467 -0.0086367 0.0127648)
(0.0111576 -0.00296974 0.0154963)
(0.0155591 0.00255301 0.0155591)
(0.0173031 0.00632597 0.0136979)
(0.0163446 0.00771346 0.0113233)
(0.0138637 0.00691232 0.00903459)
(0.0109476 0.00482094 0.00686968)
(0.00778061 0.0013167 0.00445326)
(0.00327378 -0.00393002 0.00144814)
(0.000121537 -0.00843602 -0.000776139)
(-0.00247098 -0.0097612 -0.000836097)
(-0.00575881 -0.00703381 0.000812479)
(-0.0100475 -0.0027579 0.00280964)
(-0.0142566 0.00165743 0.00492944)
(-0.0169586 0.00457794 0.00665564)
(-0.0188111 0.0058429 0.00832046)
(-0.0191049 0.00474475 0.00995674)
(-0.0165466 0.000621555 0.0110678)
(-0.0116439 -0.00496179 0.0104367)
(-0.00488368 -0.00979364 0.007421)
(0.00402516 -0.0169735 0.00400545)
(0.00989351 -0.0103122 0.00959178)
(0.0128025 -0.00379235 0.0128025)
(0.0149087 0.00260859 0.0139687)
(0.0152782 0.00650591 0.0134721)
(0.0141206 0.00750238 0.0122322)
(0.0121124 0.00643865 0.0106149)
(0.00968992 0.00413707 0.00862304)
(0.006555 0.000384726 0.00586423)
(0.0027212 -0.00405299 0.00292568)
(-0.00155934 -0.00578983 0.00221722)
(-0.00597138 -0.00307757 0.00402507)
(-0.0100836 0.000751546 0.00643946)
(-0.0131036 0.00371185 0.00844804)
(-0.0152233 0.00518893 0.00984182)
(-0.0161305 0.0046498 0.0108877)
(-0.0152408 0.00110182 0.0113514)
(-0.0125623 -0.00524727 0.0104083)
(-0.00954076 -0.0117854 0.00724226)
(-0.00353447 -0.017659 0.00150508)
(0.00273983 -0.0229185 -0.0021048)
(0.0088553 -0.0146435 0.00524023)
(0.00998951 -0.00724586 0.00998951)
(0.0107805 -0.000184599 0.0125986)
(0.0109064 0.00494896 0.0134595)
(0.0104715 0.00722745 0.0130843)
(0.00944034 0.00714592 0.011976)
(0.00805712 0.00580901 0.0104786)
(0.00625805 0.00377664 0.00892181)
(0.003932 0.00125853 0.00711993)
(0.000719987 -0.000137435 0.0062992)
(-0.0029847 0.00160668 0.00768205)
(-0.00579156 0.00388939 0.00937083)
(-0.00826489 0.00538366 0.0107574)
(-0.00983464 0.00570626 0.0119551)
(-0.010411 0.00378897 0.0125617)
(-0.0100899 -0.00118501 0.0119643)
(-0.0092182 -0.00833268 0.00947926)
(-0.00834085 -0.0156722 0.004619)
(-0.00231897 -0.0230242 -0.00284165)
(0.000827845 -0.0266125 -0.00620655)
(0.00730204 -0.0166563 0.00167486)
(0.00694213 -0.00870922 0.00694213)
(0.00704262 -0.00174536 0.00979247)
(0.00676515 0.00321323 0.0109976)
(0.00651307 0.00563508 0.0108171)
(0.00624784 0.00591685 0.00998996)
(0.00584322 0.00493619 0.00887234)
(0.00517615 0.00344644 0.00784801)
(0.00393428 0.00202538 0.00727369)
(0.00184818 0.00149494 0.00734921)
(-0.000867 0.002356 0.00806313)
(-0.00267984 0.00376691 0.00906604)
(-0.00406565 0.004704 0.0102475)
(-0.00505883 0.00449982 0.0113484)
(-0.00573028 0.00222841 0.0118245)
(-0.00620087 -0.00264456 0.0106076)
(-0.00617254 -0.00965873 0.00745301)
(-0.00702597 -0.0173995 0.00177452)
(-0.000642594 -0.0265657 -0.00624582)
(-0.00180278 -0.0266633 -0.00992635)
(0.00393035 -0.0162913 -0.0027242)
(0.00208352 -0.00846016 0.00208352)
(0.0021825 -0.00175157 0.00426814)
(0.00240398 0.00289813 0.00517838)
(0.00285013 0.00503441 0.00476711)
(0.00333617 0.00559731 0.00387173)
(0.00370233 0.00546965 0.00286275)
(0.00378982 0.00517943 0.00220189)
(0.00322762 0.00499241 0.00223536)
(0.00189183 0.00519403 0.00282587)
(0.000362767 0.00549577 0.00331339)
(-0.000401396 0.00577321 0.00412532)
(-0.000815878 0.00570478 0.00523909)
(-0.0010396 0.00483401 0.00638371)
(-0.00103796 0.00228009 0.00674631)
(-0.00143157 -0.0027491 0.00565088)
(-0.00167061 -0.00944274 0.00295485)
(-0.00406493 -0.0169458 -0.00245816)
(0.00180995 -0.0268264 -0.00987046)
(-0.00563855 -0.0214539 -0.014317)
(-0.00361848 -0.0137056 -0.00936087)
(-0.00664142 -0.00817413 -0.00664142)
(-0.00641794 -0.00472319 -0.00602102)
(-0.00573836 -0.00265151 -0.00659397)
(-0.00386305 -0.0019285 -0.00694308)
(-0.00194329 -0.00229209 -0.00778974)
(-0.000203208 -0.00301293 -0.00857832)
(0.00116859 -0.00344154 -0.00851017)
(0.00173422 -0.00266197 -0.00766135)
(0.00192763 -0.00209136 -0.00674968)
(0.00201298 -0.00290076 -0.00684065)
(0.00284611 -0.00330338 -0.00663578)
(0.00416988 -0.00321982 -0.00631681)
(0.00567012 -0.00334517 -0.00577949)
(0.00680595 -0.00428665 -0.0052206)
(0.00694068 -0.00626513 -0.00486232)
(0.00673207 -0.00933653 -0.00598962)
(0.00332849 -0.0144558 -0.00929389)
(0.00565233 -0.0219763 -0.0145951)
(-0.012395 -0.0119215 -0.0205955)
(-0.0177321 -0.00574606 -0.021021)
(-0.0234906 -0.00248409 -0.0234906)
(-0.0248106 -0.000831024 -0.0266524)
(-0.0243568 0.000128326 -0.0299944)
(-0.0226754 0.000796634 -0.0334624)
(-0.0200384 0.00157431 -0.0367829)
(-0.0164445 0.00267677 -0.0396603)
(-0.0116164 0.00421192 -0.0415631)
(-0.00621555 0.00617912 -0.0414536)
(0.00325887 0.00783623 -0.0411922)
(0.0104452 0.00613618 -0.0421878)
(0.0167129 0.00451056 -0.0411604)
(0.0213814 0.0030133 -0.0385985)
(0.0246264 0.00175077 -0.0353208)
(0.0264468 0.000563978 -0.0317324)
(0.0266192 -0.000796845 -0.0281459)
(0.024781 -0.00266725 -0.024783)
(0.0184947 -0.00602639 -0.022211)
(0.0128531 -0.0123459 -0.0216136)
(-0.00177784 -0.00118857 -0.0168991)
(-0.0047488 -0.00112065 -0.0143359)
(-0.00642394 -0.00102509 -0.010949)
(-0.00734946 -0.00098417 -0.00734946)
(-0.00767957 -0.000862638 -0.00392831)
(-0.00768328 -0.000656573 -0.000966738)
(-0.00735058 -0.000805528 0.00140287)
(-0.00683961 -0.00148654 0.00313579)
(-0.00571053 -0.00263591 0.00405538)
(-0.00353894 -0.00405588 0.00418931)
(-0.000136975 -0.00516629 0.00390468)
(0.0040422 -0.00468971 0.00367065)
(0.00715499 -0.00373099 0.00339019)
(0.00981374 -0.00292499 0.00270983)
(0.012061 -0.00286269 0.00154401)
(0.014103 -0.00287458 -0.000122086)
(0.0149805 -0.0023807 -0.00222714)
(0.0140902 -0.000359971 -0.00449893)
(0.0112367 0.00349006 -0.0070603)
(0.00513743 0.0091179 -0.00994555)
(0.00136437 0.00800406 0.00348846)
(0.00119523 0.00642126 0.00259431)
(0.000606142 0.00481034 0.000681212)
(-0.00107 0.00321234 -0.00107)
(-0.00299535 0.00160026 -0.00169441)
(-0.00473606 -7.83605e-05 -0.00174315)
(-0.00589265 -0.00168232 -0.00113454)
(-0.00556134 -0.00293163 -4.00679e-05)
(-0.00471579 -0.0047389 0.000465273)
(-0.00325516 -0.00711213 0.000364837)
(-0.00128859 -0.00847757 0.00028786)
(0.000945993 -0.00753967 0.000506011)
(0.00279968 -0.00575237 0.000430204)
(0.00402396 -0.00427152 -0.000149942)
(0.00480362 -0.00323549 -0.000710063)
(0.0020029 0.000673807 -0.000290041)
(-0.00158802 0.00423493 0.00114795)
(-0.00360406 0.00703328 0.00318901)
(-0.00341433 0.0108095 0.00489388)
(-0.001995 0.0156821 0.00463175)
(0.00434429 0.00771248 0.0174969)
(0.0077811 0.00797316 0.0159731)
(0.00968821 0.0077782 0.0127685)
(0.00917161 0.00705373 0.00917161)
(0.00712295 0.00567126 0.00607821)
(0.00451105 0.00367771 0.00362481)
(0.00196503 0.000822459 0.00176349)
(-0.00106233 -0.00334646 0.000193112)
(-0.00189013 -0.00647417 -0.000377893)
(-0.00214983 -0.00978208 -0.000999911)
(-0.00228737 -0.0113079 -0.000827774)
(-0.00267182 -0.00953581 3.20249e-05)
(-0.00355455 -0.0063206 0.000659467)
(-0.00534916 -0.00242069 0.00128479)
(-0.00922392 0.00229991 0.00299556)
(-0.0113048 0.00544874 0.00527977)
(-0.0130383 0.00726176 0.00805415)
(-0.0130023 0.00841271 0.0110119)
(-0.0101802 0.00988124 0.013347)
(-0.00534822 0.0120109 0.0137957)
(0.00516344 0.000396458 0.0159288)
(0.010077 0.00378076 0.0180286)
(0.0136979 0.00632597 0.0173031)
(0.0149541 0.00784213 0.0149541)
(0.0141293 0.00786939 0.0121739)
(0.0120634 0.00652002 0.00952888)
(0.00954661 0.00421458 0.00711822)
(0.00661013 0.00054923 0.00457898)
(0.00268541 -0.00459931 0.00188263)
(-0.000272715 -0.0094306 -3.39635e-05)
(-0.00316138 -0.0110461 0.000101541)
(-0.00626921 -0.00803772 0.00165927)
(-0.0100044 -0.00332752 0.00335885)
(-0.013713 0.00142021 0.0053486)
(-0.016047 0.00471091 0.00726583)
(-0.0174748 0.00653082 0.00929704)
(-0.0175901 0.00683254 0.011414)
(-0.0155528 0.00552913 0.0130783)
(-0.0112291 0.00372489 0.013302)
(-0.00539729 0.00180682 0.0111652)
(0.00511173 -0.00904703 0.00483418)
(0.010853 -0.00219718 0.01121)
(0.0139687 0.00260859 0.0149087)
(0.0156373 0.00620959 0.0156373)
(0.015741 0.00808584 0.014699)
(0.0145246 0.00799972 0.0130276)
(0.0124987 0.00637755 0.0110319)
(0.0100022 0.00357547 0.00872014)
(0.00647369 -0.00106713 0.00554499)
(0.00228543 -0.00615804 0.00262477)
(-0.00278507 -0.00817292 0.00231078)
(-0.00741099 -0.00486508 0.00433421)
(-0.0117641 -0.000231898 0.00674144)
(-0.0147479 0.00356931 0.00888073)
(-0.0166725 0.00569848 0.0104112)
(-0.0174615 0.0061063 0.0116768)
(-0.0166881 0.0044509 0.0123718)
(-0.0141983 0.00103443 0.0116273)
(-0.0105313 -0.00302209 0.00823801)
(-0.00444315 -0.00809942 0.00253597)
(0.00338219 -0.0169496 -0.00280429)
(0.010454 -0.00651587 0.00522421)
(0.0125986 -0.000184599 0.0107805)
(0.0136199 0.0046595 0.0136199)
(0.0137463 0.00779088 0.0143719)
(0.0130818 0.00879669 0.0138127)
(0.011756 0.00796923 0.0124991)
(0.00994958 0.00594144 0.010722)
(0.00750018 0.00298931 0.00868952)
(0.00420696 -0.00105397 0.00617068)
(-0.000639319 -0.00321336 0.00549983)
(-0.00539838 -0.000524983 0.00755001)
(-0.00878688 0.00315562 0.00977393)
(-0.0115381 0.00561992 0.0113026)
(-0.0132129 0.00677837 0.0124668)
(-0.0138225 0.00599874 0.0130308)
(-0.0132855 0.00293652 0.0124245)
(-0.0117644 -0.00178493 0.00980291)
(-0.00978601 -0.00714382 0.00454447)
(-0.00286103 -0.0159869 -0.00310858)
(0.000709511 -0.0228002 -0.00778878)
(0.00869993 -0.0095685 0.00103114)
(0.00979247 -0.00174536 0.00704262)
(0.0104019 0.00382426 0.0104019)
(0.0104078 0.00725123 0.0118006)
(0.010182 0.00854183 0.0118279)
(0.0096881 0.00801571 0.0110565)
(0.00883864 0.00629992 0.00985966)
(0.00746326 0.00396428 0.00857479)
(0.00520354 0.00162551 0.00754166)
(0.00131056 0.000215553 0.0074934)
(-0.00316843 0.00166055 0.00891688)
(-0.00598746 0.00399858 0.0102965)
(-0.00790867 0.00592677 0.0115289)
(-0.00906613 0.00667895 0.012457)
(-0.00960063 0.0054897 0.0126376)
(-0.00964491 0.00203382 0.0112909)
(-0.00893957 -0.00318911 0.00768333)
(-0.00838015 -0.0100604 0.00135242)
(-0.000579626 -0.0219594 -0.00737696)
(-0.00255785 -0.0248182 -0.0121153)
(0.00448165 -0.011359 -0.00358546)
(0.00426814 -0.00175157 0.0021825)
(0.00543622 0.00455163 0.00543622)
(0.00581624 0.00753813 0.00663172)
(0.00637654 0.00854864 0.00664563)
(0.00683968 0.008295 0.00604884)
(0.00691778 0.00745201 0.00521555)
(0.00634691 0.00652567 0.00453548)
(0.00473798 0.00590332 0.00432472)
(0.00168773 0.00587765 0.00480331)
(-0.00170024 0.00623857 0.00563759)
(-0.00340642 0.00697261 0.00663899)
(-0.00435522 0.00770052 0.00772573)
(-0.00472209 0.00790993 0.00862524)
(-0.00480621 0.00678398 0.00877012)
(-0.00485051 0.00348852 0.00737541)
(-0.00378546 -0.00306116 0.00337355)
(-0.00477154 -0.0119552 -0.00301182)
(0.00246703 -0.0245927 -0.0116907)
(-0.0069208 -0.0209812 -0.016643)
(-0.00421133 -0.0116479 -0.0107814)
(-0.00602102 -0.00472319 -0.00641794)
(-0.0036763 -3.53424e-05 -0.0036763)
(-0.0025681 0.00221383 -0.00372704)
(-0.000682724 0.0022932 -0.00435747)
(0.00112305 0.00130418 -0.00544417)
(0.00231172 0.000205114 -0.00663153)
(0.0028835 -0.000336854 -0.00736619)
(0.00276721 0.000480197 -0.00707072)
(0.00193912 0.000896736 -0.00619352)
(0.000948053 -6.33635e-05 -0.00613175)
(0.00109492 -0.000305349 -0.00544068)
(0.00163722 0.000147664 -0.0041172)
(0.00258248 0.000674579 -0.00263613)
(0.00351473 0.000155838 -0.00162822)
(0.00457095 -0.00239002 -0.00247827)
(0.00591083 -0.00637997 -0.0054594)
(0.00361116 -0.0125976 -0.0104839)
(0.00684775 -0.021517 -0.0167106)
(-0.0145676 -0.0114811 -0.0227973)
(-0.0206473 -0.00443 -0.0228461)
(-0.0266524 -0.000831024 -0.0248106)
(-0.0274522 0.00102504 -0.0274522)
(-0.0263811 0.00209726 -0.0305043)
(-0.0245944 0.00285809 -0.0343242)
(-0.0220961 0.00387471 -0.0384605)
(-0.0185532 0.00535777 -0.0423442)
(-0.0134115 0.00734428 -0.0451738)
(-0.00730603 0.00983569 -0.0458489)
(0.00426683 0.0118612 -0.0460165)
(0.012603 0.00958384 -0.0464888)
(0.0193836 0.00751837 -0.0444399)
(0.024168 0.00571369 -0.0409737)
(0.0274269 0.00418889 -0.0369664)
(0.0294917 0.00279397 -0.0330673)
(0.0301604 0.00117458 -0.0296557)
(0.0284722 -0.000934878 -0.0264737)
(0.021659 -0.00464847 -0.0241651)
(0.0151254 -0.0118848 -0.0237608)
(-0.000915621 -0.0026584 -0.0158017)
(-0.00260515 -0.00233297 -0.0138902)
(-0.0034252 -0.00164815 -0.0110313)
(-0.00392831 -0.000862638 -0.00767957)
(-0.00419439 -0.000211842 -0.00419439)
(-0.00446638 0.00013917 -0.000865789)
(-0.00468697 -9.4944e-05 0.00206754)
(-0.00477172 -0.00089451 0.0044457)
(-0.00434878 -0.00218947 0.0059778)
(-0.00292488 -0.00379609 0.00656496)
(-0.00035749 -0.00502707 0.00631833)
(0.00321514 -0.00461113 0.00553964)
(0.00599079 -0.00358898 0.00469472)
(0.00833294 -0.00270791 0.00349889)
(0.0101915 -0.00230803 0.00192279)
(0.0116359 -0.00206677 -0.000147256)
(0.0121424 -0.00177032 -0.00270124)
(0.0111674 -0.000687316 -0.00560557)
(0.00859448 0.00125905 -0.00895857)
(0.00398227 0.00371998 -0.0126524)
(0.00058015 0.00375789 -0.00330659)
(0.000280397 0.0031897 -0.00220717)
(-0.000407257 0.00240234 -0.00261076)