/*--------------------------------*- C++ -*----------------------------------*\
  =========                 |
  \\      /  F ield         | OpenFOAM: The Open Source CFD Toolbox
   \\    /   O peration     | Website:  https://openfoam.org
    \\  /    A nd           | Version:  9
     \\/     M anipulation  |
\*---------------------------------------------------------------------------*/
FoamFile
{
    format      ascii;
    class       volScalarField;
    location    "5";
    object      p;
}
// * * * * * * * * * * * * * * * * * * * * * * * * * * * * * * * * * * * * * //

dimensions      [0 2 -2 0 0 0 0];

internalField   nonuniform List<scalar> 
112055
(
0.0175572
0.00606918
-0.000499097
-0.000871234
7.50195e-05
0.00856798
0.0170507
-0.000854957
5.01027e-05
0.0172901
0.00608181
0.0161679
1.9073e-06
0.01618
0.0261097
7.49404e-06
-0.0688209
0.0194555
0.00606829
0.0010042
-8.43566e-05
-1.00559e-05
0.0060813
0.00240692
2.68826e-06
-4.86895e-05
0.037592
0.00724427
0.00856761
-3.74058e-05
0.00947319
-0.00733911
-1.27319e-05
0.00339618
6.43937e-05
-1.21185e-05
0.000960746
0.0592795
-0.00361399
-2.07477e-06
-1.08327e-05
-0.00314618
0.00292851
-0.00046608
0.0199126
0.00174122
0.00297599
-5.96729e-07
-2.81189e-05
-0.00306322
-0.000825017
-0.0271573
-1.59653e-05
-0.0034211
0.000400834
0.0171511
1.79231e-06
6.97118e-06
-0.013818
0.00171609
0.0143922
9.2555e-06
-3.68769e-06
-9.724e-06
0.011645
0.000148042
0.0618957
-2.85646e-06
0.00457309
-5.77082e-05
-1.3641e-05
-0.0571358
0.00250168
0.0345431
-0.00627807
-0.0645169
0.00598574
0.0174481
-0.0120867
-0.00329524
-1.1393e-05
-0.0677121
-0.000793205
-4.92657e-05
5.84765e-06
0.00427279
-0.00279208
0.000413925
0.00201199
0.000450142
7.12598e-06
-8.37319e-06
-0.00299666
5.64342e-05
-0.00675114
0.00596906
-0.00119932
0.0257942
0.00947024
4.44714e-06
2.36217e-05
-1.68019e-05
-1.09864e-05
0.00674147
-0.0107676
-0.0793183
0.0116275
-9.94588e-06
-4.75929e-06
0.00425154
-0.0537364
-0.00119394
0.000101881
0.00719933
0.0045931
0.019859
0.0113109
-3.30828e-06
0.00200866
3.39938e-05
0.00747673
0.00725604
0.0172447
1.37222e-05
-1.24702e-06
0.0066818
-0.0738937
-1.09361e-05
-0.000235127
-0.0110614
-5.85712e-06
0.0372772
-9.31285e-06
0.0494129
-0.00372536
-1.13683e-05
-1.60986e-05
0.00424535
-0.000420583
0.000278609
0.00419305
0.000211093
-0.000764768
-0.00145499
-1.50515e-05
0.000173528
0.0181739
-6.7627e-06
-1.0556e-05
-3.68491e-06
-0.0806513
-1.6996e-05
0.0152727
-1.5969e-05
-0.000403697
0.00771625
0.0100765
0.0072778
-0.0130377
-0.00256279
0.000106043
-2.81713e-05
-0.000137772
0.000906868
-9.86917e-06
0.00263417
0.0101523
-0.00741723
-4.26313e-05
0.011671
0.00904276
0.0076961
-0.000132339
-0.00158442
-0.00260893
4.52001e-05
-2.8222e-05
-0.000152889
-0.000566473
-1.83266e-05
-0.00263253
-9.17592e-06
-3.49617e-05
0.00949489
-0.00480107
0.0133733
-2.23634e-05
-1.71429e-05
-0.000760574
0.00195954
0.00422638
-1.23644e-05
0.000502151
0.00751822
-0.000232166
2.39907e-05
-0.00147277
-0.00143546
-1.78379e-05
0.0100449
0.0595808
0.0127945
0.0144779
5.02983e-06
-1.61261e-05
0.0196327
0.0623183
0.0103877
-0.0658182
-1.03273e-05
0.00338949
-1.12161e-05
0.0177978
-9.23016e-06
-0.00119529
0.0104846
0.00913204
-0.00197822
-7.33851e-06
-0.00097103
-3.19961e-06
-0.0125078
0.000152038
-0.0026673
-0.0112024
-6.66063e-05
-6.61793e-06
0.0095765
0.00554178
-1.23797e-07
-2.35219e-05
-4.33993e-07
-0.00480402
0.00659339
-0.0336234
1.32751e-05
4.7797e-05
-4.35673e-05
-0.106155
0.0976948
2.313e-05
-0.00550887
-9.16584e-05
-2.77614e-06
-1.67396e-05
-0.0330757
-0.000984885
-0.00227929
-2.55605e-05
-0.00093035
0.00164197
-1.69261e-05
0.00337231
-0.000156806
-0.00144036
-1.31193e-05
0.00420711
-0.000226311
0.00281749
-7.54952e-06
-0.0108113
0.0173759
0.0025813
0.0137815
0.0496474
0.00199899
-7.83745e-06
-0.000127174
0.0125094
-8.02868e-06
0.00163833
0.000258419
-6.54115e-06
-0.0258438
-7.7979e-05
0.000190858
-0.00378273
-0.0969084
-0.0940841
0.0037693
1.74459e-06
0.00617129
0.0111805
0.00883868
0.00713504
-0.000670874
0.00695901
-2.29247e-05
-1.56476e-05
0.012753
-9.40209e-05
1.40903e-05
0.00694434
-2.49178e-05
0.00660323
0.00711291
0.0108599
-4.31264e-05
-1.39337e-05
-4.57832e-06
0.00636175
0.00950095
0.00945874
0.00681607
-0.00157051
-3.09746e-06
-3.7472e-05
0.000814143
-7.86093e-05
-1.27608e-05
0.000944044
0.00490265
-1.2195e-05
-1.7567e-05
-0.00219607
-0.0127891
-0.000489448
3.05619e-06
-1.98056e-05
-2.16051e-05
-1.24069e-05
0.0504881
0.0271738
-3.98997e-05
-0.000947857
-0.000990473
0.000206794
0.00298362
0.006213
-1.72928e-05
0.00550837
1.73628e-05
0.0111655
-0.000752645
-0.00102868
-6.51841e-06
-7.2357e-06
-2.91886e-06
0.00493954
0.00155115
0.0595584
-0.0720576
-1.15823e-06
-3.34293e-05
-1.4369e-05
-0.00234056
-1.0621e-05
-0.00314662
0.0116175
-2.03062e-05
0.0236592
0.0140544
0.0158852
-0.000246085
-0.00018929
-0.000192432
0.0342782
-1.48823e-05
-1.14798e-05
0.0162998
-0.0616404
1.03042e-05
-0.000993609
0.107374
-2.39265e-05
-0.105803
0.00157905
-0.00132125
0.00630512
-0.000220412
0.0201243
0.0205435
0.0105501
0.0130873
0.143276
1.38357e-05
-6.3657e-06
-0.000162303
-0.000171973
-0.000113463
-1.17686e-05
0.00862131
0.0163093
-1.09816e-06
0.000716437
-6.87058e-06
-3.73074e-06
-0.00179397
0.0110594
0.0207014
-0.000951869
0.00331913
-1.35686e-05
-0.0040908
0.0342037
-0.000107167
0.00424066
-0.00307834
-0.0250858
-2.0639e-06
0.0166656
-0.000118575
-0.0395843
0.015456
-1.18086e-05
-0.0491094
-0.00268034
-5.02626e-05
-0.000112089
0.00536334
-0.000733198
-1.31436e-05
-9.58568e-05
-6.35082e-06
-2.0415e-05
-0.00213009
0.00780268
-0.00218154
6.52858e-06
0.0077949
0.0276222
-1.31762e-05
0.00368474
0.00800102
0.00695187
-0.00101294
0.0101186
1.96941e-06
-0.000528314
-0.00276672
-7.20806e-05
0.0104414
0.000111806
-0.0246404
-0.00938831
0.0233451
-1.4852e-05
-0.00317309
0.0969139
0.0225379
-0.000992887
4.27508e-06
0.00782721
0.000800841
0.00588617
1.2406e-05
0.0338294
0.0222083
1.98257e-05
-0.00291234
0.000268884
0.00746156
-3.14155e-06
0.00879919
-0.000938167
-0.0692412
-2.24054e-05
1.24858e-06
0.00900417
-4.16109e-06
-0.000113612
0.000314936
2.18459e-05
8.94756e-06
-0.00530755
-4.16458e-06
4.33972e-06
0.0154377
0.00691897
-3.44929e-05
0.00864902
7.35618e-07
0.000148278
-0.000332733
0.00819465
-0.000792731
-5.18227e-05
-2.06366e-06
2.14814e-05
-1.27613e-05
-0.000593148
-0.111868
8.57285e-06
-0.012162
1.49077e-05
0.00269722
0.0129658
-8.01971e-06
-8.54139e-05
-3.99919e-05
-2.31216e-05
-0.00443171
-0.00163396
1.5397e-08
0.00993385
0.000205531
0.00841203
-3.0795e-05
-2.68822e-05
-2.92346e-05
0.0031813
3.66623e-06
0.000242036
0.0108013
6.55071e-06
0.00698366
-1.26115e-05
-0.0441452
3.78322e-06
-9.99771e-06
-0.00079614
0.0169586
-1.3914e-05
0.00533339
0.0610564
-2.23403e-05
1.96918e-06
-1.35242e-05
0.00077645
-0.000663352
0.00894365
2.01441e-05
-2.21172e-05
0.000425121
0.00479379
-0.0121394
1.02921e-05
0.0630777
-1.69768e-05
-3.11991e-06
0.00750784
-0.000186523
-0.0841779
0.0491968
-1.40055e-06
0.0130891
-0.00100893
-0.115198
-6.67696e-05
1.58365e-06
-1.99718e-05
-2.76131e-06
-0.112296
0.0234421
-0.000601633
-0.00101462
-0.000655032
0.00432806
0.00775064
-1.21528e-05
0.0234723
0.00721998
0.0100028
-0.0184475
0.00842113
-9.20954e-06
-0.00649789
-3.43443e-07
-2.61598e-05
-0.0090647
0.00527642
-1.05244e-06
-9.36019e-06
0.00321103
0.105042
0.000419207
6.0875e-06
-0.0975274
6.55296e-06
-0.0933744
0.000284634
0.00834226
-1.39247e-05
-0.00316471
-3.74272e-06
0.00627076
0.00745026
-0.000390883
0.0102071
-0.0463546
-8.42196e-06
9.63628e-06
0.0127285
0.00671002
0.00957829
-1.16661e-06
0.00742677
0.00417158
0.00762338
-2.897e-05
0.00739696
0.00332557
-9.43301e-06
0.00328876
-0.000111654
0.00796648
0.00558119
0.00156465
0.00719601
-0.000219658
-7.66701e-07
-0.000524792
1.41714e-05
0.00698828
-0.000153376
0.00479736
-9.62379e-05
0.00916611
0.0103916
-3.18568e-06
0.000460828
0.0114326
-1.37526e-05
-0.000468131
0.0461314
0.00723999
8.08783e-06
-1.04983e-05
-0.00057796
0.00591287
-0.00793654
0.00982428
0.00683211
-9.26323e-06
0.00701118
-0.0426123
0.00118431
-0.000788653
-0.000220778
-0.00122433
-0.0186598
-0.085844
-1.55775e-05
-0.0130579
7.53664e-06
-4.2682e-06
-5.48786e-06
6.33309e-06
-1.30852e-05
0.00672859
-6.4908e-06
-4.60414e-06
0.000117887
-1.90799e-05
-0.00274174
0.0222927
0.0724588
0.00895199
0.00542103
-0.000454457
-0.1112
-0.000161797
-5.35549e-06
0.0183599
-2.04995e-05
-1.42494e-05
0.0106054
0.0142797
-0.000239637
-0.000952571
0.0104497
0.0090207
5.74133e-06
0.0164144
1.8624e-06
3.64435e-05
-0.00813252
-0.00344451
5.37675e-06
0.00721532
-0.00128826
-0.0178001
-0.000164942
0.0167687
-0.0001187
-1.07626e-05
0.00698368
0.0181517
0.0763134
1.16755e-05
-2.2754e-05
-0.00017505
2.70451e-06
-0.00387736
0.000506306
0.0128178
-0.000513643
-3.90479e-05
-0.0208579
-2.23916e-05
-9.90619e-06
0.00855849
0.00622897
0.00835241
0.0221894
0.0165061
0.0166278
0.0126705
-7.13445e-06
0.000167954
0.000471388
-6.50807e-06
0.00748948
-9.6019e-06
1.81017e-05
0.00438967
0.000130252
-1.80008e-05
0.132642
-5.80567e-07
0.00878838
0.00124823
-1.60606e-05
-0.00155099
0.00331764
2.1023e-05
0.0125981
-7.36705e-06
0.00642976
-1.27973e-05
0.000824392
0.000489806
3.54769e-06
-0.00307251
2.81922e-06
0.0104688
0.0126296
0.00655393
0.00335414
0.000244705
-0.000128584
0.0142498
-0.0820926
1.5141e-05
0.00781465
-1.32703e-05
0.04448
-0.000626657
-6.17867e-05
-2.23112e-05
-0.00644378
-2.42101e-05
0.00103189
0.00820255
-0.100982
0.00363131
-0.00274947
0.0113341
0.00590444
0.00694081
-5.47655e-06
-2.42717e-06
-1.19128e-05
-0.00127907
-6.49419e-05
0.0112416
0.00777336
-2.85175e-06
0.0158781
-9.97656e-06
-1.74066e-05
-0.0115847
-0.000916521
-0.0166645
0.035769
0.0600108
0.00766275
-6.92673e-05
1.21292e-05
-1.54655e-05
2.84263e-06
-0.000602778
-2.35376e-05
9.16713e-06
8.69199e-06
0.00691039
-0.0853651
-2.69635e-05
5.42431e-06
0.0138906
-0.00950031
0.0167157
-5.06386e-06
0.0015511
-0.108086
-3.09562e-05
2.27285e-06
4.88322e-06
0.000857384
-0.0091247
1.86831e-05
-0.000163649
-1.95106e-05
-0.00357757
-0.000166251
-1.02786e-05
-0.0596932
0.000490268
0.00637403
6.14468e-06
0.000447868
0.0140407
0.000898177
-0.000137826
-0.149273
-6.8157e-06
0.000240091
0.000233653
7.68971e-06
2.5864e-05
-0.0151507
-0.000112222
-0.000838884
0.0129875
-9.05825e-05
-0.00224471
-1.80664e-05
0.00919306
-1.19263e-05
-0.000153086
0.000751483
0.0078625
5.76426e-07
0.00929678
-3.02389e-05
-0.032308
0.0151457
-0.00248833
-0.00297681
3.46182e-06
-1.76558e-05
0.0124779
0.0167827
-5.14535e-06
0.131442
0.00672652
-8.32634e-06
0.0071151
0.0112399
-0.00250453
1.63894e-06
0.142024
0.0138285
0.000480309
-1.59001e-05
8.72276e-07
0.00433932
0.000893721
0.00895251
-1.35838e-06
-0.000188326
8.28932e-06
0.0356755
1.11228e-06
-0.00228847
-1.18285e-05
0.0168394
-1.07206e-05
0.00883424
-1.22874e-05
0.0763741
-3.30782e-05
0.00129429
-0.00347031
0.000256287
-1.4598e-05
0.00710797
0.0090517
-0.00398899
-0.00010189
1.40698e-06
0.00818298
0.0141599
-0.104664
0.00248002
0.00693881
0.00878373
0.00345503
-0.0223259
0.00630065
-1.28914e-06
4.77605e-06
1.78244e-05
-8.5969e-06
2.55248e-06
0.00127774
0.00334922
0.0111525
-1.51875e-05
0.00574558
0.000246515
0.00698238
0.000448029
-0.0245183
-0.0476515
-2.07751e-05
-0.000551066
0.0839593
-8.73093e-07
-0.0658182
-0.000380237
0.00588289
-0.00213386
-4.83741e-06
-0.00229885
-0.0472033
3.46319e-06
0.00617632
-0.000440006
0.00610864
0.0159408
-0.00027115
0.00451536
0.00570288
-0.0832815
0.00481557
-2.04193e-05
-1.988e-05
4.04713e-06
9.17199e-06
0.00275255
-1.5832e-05
0.00238858
-0.000351223
-3.13305e-05
0.00655949
5.15358e-06
0.00945736
-2.84187e-05
-2.40703e-05
1.629e-05
0.00379887
-0.000165629
1.30384e-06
-0.000801951
-3.06421e-06
-0.0174634
3.27087e-05
0.00943926
-1.80795e-05
0.0131153
0.0105268
-1.47406e-05
0.00466145
-0.0125147
-3.70955e-06
3.52128e-06
0.00370767
-0.00502764
0.0153721
0.00199604
0.00696346
-1.65648e-05
0.00442032
-0.00142638
0.0198794
-6.48177e-05
5.87118e-06
4.457e-06
-0.0334674
-3.02933e-05
0.00120412
-0.00187428
-1.69331e-05
-0.000371638
7.35832e-05
-0.0637404
3.82752e-06
-0.123767
-8.64166e-06
0.00818241
-0.000676921
0.0069229
-0.00293984
-0.00205827
-0.000228515
-0.0129879
0.0309762
0.000892601
0.0167871
0.00542999
-1.0444e-05
-7.56866e-06
0.00200284
0.00960114
0.00623334
1.08168e-06
-0.0115822
0.00473501
-1.88643e-05
-7.52967e-06
0.0164016
-6.27629e-06
-0.00084005
0.009846
0.00733856
0.00125012
0.0113625
-3.71759e-05
0.00948445
0.000354653
-0.000279964
-0.0003582
-0.000133722
-0.00047703
0.0338921
-0.000350583
0.000151374
0.00497701
-5.11502e-05
-0.0795939
0.00377431
2.34926e-06
2.30621e-06
0.000336895
0.00417779
0.00778643
0.00935539
2.90697e-06
0.00725589
0.00010963
-0.0602343
0.00170591
-1.87567e-05
-0.000258837
0.000390941
-5.5827e-06
0.00587073
-6.2805e-06
-1.48186e-06
0.0207082
-2.95194e-05
-0.000614261
-0.000120768
-8.80623e-06
0.059801
-0.0025671
9.42078e-06
1.90671e-05
0.00497013
0.00742261
0.0149907
1.2049e-06
-0.0467628
0.00747542
0.000340644
-1.29389e-05
0.00698003
-4.91842e-06
-0.021876
-4.39678e-06
-0.00333281
-1.73656e-05
8.99141e-06
0.00713264
-0.00648019
-9.3792e-06
-2.06746e-05
-8.08874e-06
0.00187647
0.0046916
0.0209994
-0.000919039
0.0734919
-0.016185
-0.00281797
-0.00127914
-0.00111347
-2.40042e-05
0.0150882
0.00949771
0.0106513
-0.0264463
-8.20482e-06
-0.107419
4.26402e-06
-0.000479317
-0.0423247
0.000827763
0.00987613
-6.12998e-05
-3.18701e-06
2.46595e-05
0.00624236
-0.000614346
-0.000210659
-0.000135571
-2.02232e-05
-0.000144554
-3.29876e-05
-0.00590783
-0.000947027
-0.000629965
-5.2348e-06
1.52259e-05
-1.9461e-05
-1.42559e-05
0.0453857
-1.22456e-05
0.00965679
-0.00175823
-4.46638e-05
0.00691985
5.84677e-06
0.00229898
0.00437032
-0.00289321
-1.20974e-05
-2.0266e-05
-1.3426e-05
-0.00805778
-0.0021393
2.36869e-07
-7.11254e-07
-5.17454e-07
-2.729e-05
0.0172743
0.00609064
-1.13649e-05
6.73996e-06
0.00688595
-7.25449e-06
0.0676334
-0.000135636
0.00100978
0.111285
0.00628867
0.00166491
0.010534
-2.069e-05
0.00710707
-1.31469e-05
0.000171166
0.0134564
0.0250954
-0.0400451
-1.14223e-05
0.0755454
-1.47364e-05
0.00276672
0.00314043
-0.000813008
0.000569843
-0.00306666
-2.05556e-05
-1.75007e-05
0.00149723
-4.02618e-06
-1.84504e-05
0.0148436
-5.62663e-06
0.00987265
-1.3072e-07
-9.37211e-05
-0.0152317
-0.000345703
0.00390332
-5.44267e-06
0.0144942
-0.00255059
-0.000229248
0.0151375
0.00817179
0.00226882
-1.19288e-05
-8.82031e-06
0.00114168
-0.000484689
0.00898521
0.0074797
0.0225409
-1.85016e-05
0.00553442
-6.48315e-05
0.000672708
-0.00147296
2.21056e-05
0.0255334
0.00636275
-0.000188801
0.0324617
-1.81371e-05
-0.116743
0.0162219
-5.95299e-06
0.0066203
-1.54e-05
0.110383
0.00213676
-0.0833797
-3.23166e-06
-2.95315e-05
0.00143105
0.00262455
-0.0002549
4.08663e-05
-0.00128929
-0.0495039
-0.00931407
-0.00089427
-1.08563e-05
-0.00232074
0.00390878
-0.0978914
-1.8026e-05
0.0878389
-0.100291
0.000283327
0.00579776
0.000202079
-8.42424e-06
-2.33256e-06
-3.48669e-05
-2.85989e-06
3.86107e-06
-1.26563e-06
0.00987446
-0.00754975
3.4285e-05
-6.67932e-05
-0.0508057
-0.0532235
0.00894433
-1.55378e-05
-2.43013e-05
8.35867e-05
0.00732125
-7.77005e-05
0.00678295
0.0114238
-0.00414838
0.0517671
-9.90696e-06
0.0271868
0.00154958
0.0019348
0.00789985
-1.20267e-05
6.083e-06
0.0132881
-0.00236629
0.00097914
0.00921653
-0.000102086
9.12632e-06
-0.000471591
-0.000376426
-0.0948625
-0.00350612
0.00998715
4.79476e-06
-0.000286229
0.00393399
0.0709955
-0.0322424
0.00947313
0.00189251
0.00369819
0.0372072
-4.27415e-05
-0.000295516
-5.34047e-06
0.00589616
-0.00019102
8.45524e-06
0.00793287
-0.00333036
0.00225175
-8.27343e-05
1.88393e-05
-1.9321e-05
0.00866792
-0.000126862
3.42545e-06
0.0076635
0.00548645
-0.00591164
-0.000723467
0.00707304
0.0598383
0.0152868
-9.55132e-06
-0.000243945
0.0042472
0.0100097
-0.000207342
1.8697e-05
0.0121538
-5.41959e-05
0.0529016
-0.0036777
-8.88765e-06
-0.000471687
0.00843608
-0.000158362
-0.000187566
-0.000907689
-4.09915e-05
0.000254665
-0.00840551
0.00945841
-0.000135094
0.0886436
-7.02609e-06
0.000903436
0.00786938
0.0066216
0.00728623
-4.06808e-06
0.00038226
0.0104944
-3.53858e-05
0.00253808
-0.0493023
-0.00109675
-5.3123e-05
-0.000336734
-0.000207764
-4.10306e-05
-8.67899e-05
-8.75807e-05
-0.000178432
0.000560708
0.0100189
0.0148715
-0.000661511
-0.00405514
-1.43064e-05
-9.48325e-06
1.9858e-05
-7.76177e-06
4.18582e-06
-5.27478e-06
-0.000403291
-0.00125365
0.00819096
0.00203568
1.52423e-05
-1.34968e-05
0.0107425
1.03732e-05
-0.00526206
0.00251565
0.00705105
-9.12126e-06
-7.25889e-06
-0.00145999
-5.48521e-06
0.0505303
-1.12505e-05
-0.00271567
-6.10171e-06
-1.89425e-05
-0.000448236
-0.00158155
0.008008
0.00539026
0.0433402
6.94599e-06
0.0102168
0.00010795
-0.00494102
-0.00162005
-0.000227928
-1.82832e-05
-3.40739e-06
-0.000845086
-7.65342e-06
-6.71246e-05
0.00988
-0.00513704
-0.0984746
2.55928e-05
1.92627e-05
0.00472736
0.00848551
0.00488821
0.0198367
0.000909513
-1.4063e-05
-0.00189476
0.00651091
0.00521007
0.00851937
-0.0233486
-0.00954418
0.000207627
-0.0888227
0.00100585
0.0105882
-1.47993e-05
3.25165e-06
-2.05565e-06
0.00836599
0.0222511
1.98375e-05
0.00207062
0.0564833
0.0034594
-0.00641978
-1.17984e-05
0.00958869
0.000299183
-0.0198436
-0.000690332
-0.00161552
-0.00295164
0.00593384
0.0037401
-0.0860908
-0.000421836
0.0232598
0.00189147
-4.38173e-06
0.0111831
-0.00604811
-9.40418e-05
0.00667307
0.00128147
0.00446141
-5.1837e-05
-9.83955e-06
-0.000804007
-0.00128261
1.21798e-05
-0.0462475
-0.00524383
0.002998
-1.36102e-05
-0.00298423
0.0115783
0.00155241
1.28394e-05
-0.0474126
0.0135366
-2.08414e-05
0.00528763
0.0804752
0.0063534
-0.00501414
-0.00236139
0.00967479
1.82048e-05
-0.0949949
-0.00617841
0.00462971
-0.12648
0.108994
0.0044786
0.00845325
-0.00321099
-4.05447e-05
0.00925078
-8.27662e-06
2.49229e-05
0.000160575
-1.69304e-05
0.00854545
0.0972726
0.00852625
0.00112298
-4.55035e-05
-3.24556e-05
2.52871e-05
-4.33245e-07
0.0427149
1.37189e-05
0.0450581
-3.04381e-06
-0.000235869
-0.0494814
-9.92351e-05
-0.00133868
2.68231e-06
0.000652306
1.62584e-06
0.00979983
-9.96267e-06
-1.31922e-05
-4.45433e-05
-7.75845e-06
0.0420713
0.00589304
0.0101621
-0.0231086
-2.98266e-05
0.00825298
-0.107857
0.00463393
0.00914484
-4.58401e-05
0.0206502
0.0248124
0.00854357
-0.00134509
0.000108593
0.000573211
-0.00192727
-1.45216e-05
-0.00058467
0.0107165
-0.00036678
-0.000547344
0.0323323
-0.000443881
0.000406697
0.00642278
-0.149789
0.00584601
9.73882e-06
0.00886037
-1.30872e-06
0.00816392
0.00217758
-1.78535e-05
0.00780461
7.61622e-06
-0.000233105
0.0113201
0.0034381
0.00106836
1.18345e-06
-1.52498e-05
0.00652507
0.00757663
-2.08368e-05
-0.000698576
-0.000249151
-0.00784412
0.00226891
5.66867e-06
5.98223e-06
-2.27326e-06
0.126387
-1.9735e-06
0.00706621
-0.000537813
-0.0558479
0.000632272
-2.19689e-05
-7.62629e-06
0.00940227
-1.11807e-05
0.00884348
-0.0869796
-2.49895e-06
0.0102543
0.0442057
1.27701e-06
0.0108351
-2.85939e-05
0.00713017
-9.84504e-06
-0.0231787
0.000538642
2.48938e-06
-0.00400146
0.00851702
0.00747027
0.0124361
-1.96803e-05
-1.76624e-05
-6.00644e-05
0.00142066
0.0093364
1.21603e-05
-9.86415e-06
-0.0154661
2.51705e-06
-1.45786e-05
-1.12739e-05
0.00339073
1.71354e-05
0.00718426
0.00866806
-0.00800523
0.00931559
0.00642287
0.00633471
-0.0203977
-1.48657e-05
-4.58543e-06
0.00618712
-2.34546e-05
-0.000825207
-3.19562e-05
-0.0987911
0.00495006
0.00948699
0.0166628
-0.000343652
-0.000621889
-0.00082204
0.000990433
0.00510292
0.00849513
0.00925556
-3.29849e-06
0.0201217
0.00806949
0.00340427
-6.71635e-06
0.0202575
-6.30811e-05
0.00889915
-5.62014e-06
0.00304501
-0.00656754
-0.0148403
-0.000192271
0.00717113
0.0255685
0.0616593
0.0109376
0.00586777
-0.00284578
0.000575338
-2.99169e-06
7.16518e-05
4.62817e-06
1.18515e-05
1.2172e-05
0.00915984
-1.21891e-05
0.00427268
7.40589e-07
-3.92677e-05
-5.56477e-06
-0.0951271
-0.0155496
-1.62144e-05
1.52201e-05
-0.0328671
-3.4378e-05
0.00805638
-0.000160923
0.0133212
0.0074361
-3.60213e-05
-0.00216649
6.36747e-05
-3.22092e-05
-2.37541e-05
-0.000143896
-2.63253e-05
-0.0132565
0.00857402
0.0115857
-0.0882149
-0.000853608
-1.85053e-05
-4.64504e-05
-2.99764e-05
-6.9109e-06
2.70806e-05
-1.43065e-05
-0.0456186
-0.0183942
-1.85045e-06
-1.63832e-05
0.00244092
-1.08935e-05
0.00629328
-0.000348367
-0.00113701
1.20297e-05
0.010858
0.00831203
-0.00137209
0.00800119
4.33704e-06
0.000986918
5.93081e-06
-2.04674e-06
0.0192797
-0.0860229
-0.101972
0.0315744
0.00491863
0.00725614
-7.703e-06
0.0203767
0.000221051
0.00661556
0.00850962
0.00781971
-0.110306
-0.00012422
-0.00405139
0.00364659
-2.21958e-05
-0.0022144
0.0428665
-0.046498
-8.95964e-06
-0.000289343
-2.43284e-05
-0.000610183
0.00125665
0.00901838
-2.75936e-05
0.00663995
0.00854522
-7.95741e-06
0.000270295
-0.00599812
0.00124972
0.00773506
-0.000138901
6.71492e-06
-0.106182
0.00668015
-1.12797e-05
4.30774e-06
-4.5119e-06
-0.000235946
0.00907763
4.59505e-06
0.0161398
0.00866518
5.32287e-07
-9.42378e-06
-0.0062001
-0.096179
0.00653244
0.00975845
9.2793e-07
1.05763e-05
0.00754976
0.00218881
-0.00424315
0.0385285
-1.41642e-05
1.21755e-05
0.0104672
-1.31335e-05
-0.0159084
-0.0865944
0.00849413
-0.0234098
-8.29793e-06
-0.00263964
-0.000321157
-0.000124388
0.00225369
0.01057
2.41867e-06
-0.00501064
-0.00526181
0.000630174
-0.101675
0.00946529
0.00699423
-0.00939626
0.00618417
-2.01148e-05
-0.00132721
0.00741255
0.000281552
-1.28925e-05
0.0115608
0.00530649
-1.05588e-06
-0.00186645
0.00988047
9.26725e-05
-0.00185933
0.000404657
-6.95698e-05
-0.00253055
0.00663181
-7.13999e-06
-1.54367e-05
-2.87078e-06
0.00713895
-2.1704e-05
0.0110792
-2.92747e-05
0.0110309
-2.40568e-05
-1.37725e-05
0.00699459
0.0091499
0.000850001
-0.00209985
0.0013917
-2.70947e-05
0.0107267
-0.0133284
-1.72471e-05
-0.0573937
6.08212e-05
-0.000564942
0.000701977
-0.00350867
-0.00142252
0.00452285
-2.45756e-05
0.00682724
-0.0146339
-8.71149e-06
-2.02432e-05
-0.0247883
-1.80124e-05
-9.82223e-05
-0.000464748
0.00722131
-0.00325068
-0.000783679
0.00981478
0.000600759
0.00942303
0.000302781
0.0241096
2.74997e-05
0.00257802
-6.00018e-06
-2.61403e-05
-9.01862e-06
0.000590853
1.0997e-05
0.00274123
0.00791352
0.00698339
0.00864544
0.0112297
-8.6506e-05
0.0141019
0.00595284
-0.0232802
-2.30475e-05
1.88693e-06
-0.000854108
0.00728321
-0.00672087
0.0058972
-0.00053444
2.3202e-05
0.00817049
-0.0321285
-3.07145e-05
-0.000286123
0.00226251
-1.89417e-06
-3.03042e-05
0.00592871
-0.00789401
-3.35279e-05
-2.24304e-05
0.00727938
-9.77676e-05
0.00932384
-7.7532e-06
0.00786113
0.00286469
0.0505402
0.0090671
-0.00902491
0.00212135
0.00609924
0.00392547
2.1513e-06
-1.29777e-05
-1.93118e-05
-0.0082781
0.0255722
1.77219e-06
-6.15012e-06
-0.000746693
-9.71136e-06
0.00349538
1.35036e-05
0.00202945
7.89828e-06
0.00897764
5.27153e-06
-4.27082e-06
-2.43055e-05
0.000515668
0.0103299
0.0111034
-2.05219e-05
0.0325781
0.000118514
-4.69318e-06
0.0071774
-2.22435e-05
1.52622e-05
0.00965611
1.45102e-05
-1.08326e-05
-0.00115677
-0.00102918
-3.09835e-06
-0.00186534
0.00931424
-0.000157954
0.0236546
0.00784492
-9.62495e-06
0.00385936
-0.0901392
-0.00118259
0.0056323
-1.0803e-05
-3.08264e-05
-0.00265624
-0.00624144
7.71531e-05
0.0177058
3.1816e-06
-0.0120754
-2.15432e-05
0.00961536
-0.000132117
-0.00571058
0.00457053
-8.07355e-05
0.00945999
-0.000246654
0.00453738
-2.46282e-05
0.00867429
0.00449234
-1.10875e-05
-4.18678e-06
-0.0349566
0.00793223
-0.0642211
1.06436e-05
0.00789819
0.0354567
-0.000844985
-1.01675e-05
0.0105843
-1.09034e-05
-2.37706e-05
-0.044439
-0.0018814
0.00110871
0.00161538
0.00242255
-2.62318e-05
-1.59622e-05
0.0110486
-0.0656661
0.000215341
0.000206566
-7.34331e-06
0.00100945
0.00234302
-4.86895e-05
-1.50227e-05
-0.00084267
-1.06098e-05
-0.0160567
-4.69858e-05
0.00999475
0.0114666
0.00560686
0.00166572
0.000551249
-1.41485e-05
0.005883
-5.37595e-05
0.0181545
0.0100425
0.000355343
-1.93807e-05
4.73179e-07
0.0857126
0.0165488
0.000649754
0.0241237
0.00689582
-1.18504e-05
0.00890882
-1.53202e-06
0.00417369
-0.00266657
-1.04368e-05
0.00632754
0.00167859
0.0219049
0.00157642
-1.39178e-05
0.0083201
-6.6782e-06
-0.00139305
0.00644691
0.0160994
-2.70269e-05
0.0158092
8.26475e-05
-0.000993271
-2.83709e-05
0.0321073
0.00782167
0.00748349
-5.68495e-05
-0.000186591
0.000529116
0.00396143
0.0070334
0.00759381
-0.00130326
0.00679247
-0.0445874
0.000361354
-0.0599379
0.00404588
0.000180834
0.0011149
-6.91726e-05
0.0129924
-3.61628e-05
0.0549661
-0.00375652
1.78799e-06
-2.10558e-05
-7.45974e-06
0.00805129
0.00656573
0.00614743
0.000986651
-0.000317449
0.00917266
-0.000833517
-0.0356419
-7.51173e-06
7.21006e-06
0.00318521
0.00584106
-1.42602e-05
0.00951441
-0.000532368
0.00156696
0.00764597
-2.82091e-05
0.0288773
0.00624395
0.0275999
-9.08946e-06
0.00245209
0.00101333
0.00889008
-0.0333723
3.11278e-06
0.00127268
5.53693e-06
-0.000302342
0.00889055
-3.2847e-05
0.0114481
-6.15131e-06
-5.80701e-06
-1.77091e-05
-3.63016e-05
0.00101781
0.0191574
-0.00955379
-0.00446629
-0.0165202
-4.40163e-05
-3.45337e-05
0.0209402
0.0159789
-8.82855e-05
2.17835e-05
0.008572
0.00515785
-2.06253e-05
0.00113779
-0.0125995
-0.0641574
-1.03644e-05
0.00926807
0.00112201
-0.000449013
2.1769e-06
0.0263614
0.0127928
0.000407797
0.000138759
0.00470893
-0.000120928
-0.00551902
1.55964e-06
-0.0995696
0.00630401
0.0124516
-2.09737e-06
-1.03121e-05
-0.0914333
0.0746415
1.08199e-05
-0.00176103
0.000274636
-1.04544e-05
-1.42558e-05
3.04582e-05
0.00858067
0.0201894
-0.000239834
0.00834443
0.00732604
0.00729727
-0.000660018
-0.00972717
-1.20781e-05
0.0289059
-2.80054e-05
-0.106207
0.0073331
-1.60716e-05
2.72018e-06
-0.0120671
-1.81365e-05
-0.00386508
-0.00611291
-0.0436461
0.00777426
0.0124737
8.50507e-05
0.00866103
0.00145642
0.00937717
-0.0499897
0.0116426
0.00712795
-2.32635e-05
0.0135507
0.0063357
-8.72549e-06
0.00767801
0.0058722
0.00631759
-0.107891
-1.3532e-05
-0.0222435
-6.90382e-05
0.0266458
3.54983e-06
-1.01462e-05
0.0136473
-0.00601323
-9.43843e-07
0.00286361
5.23212e-07
0.0229433
0.0061914
0.0156974
1.27879e-06
0.00142867
-0.105195
0.00603569
0.0054956
1.32429e-05
0.00797486
-1.22555e-05
9.16428e-05
-1.58197e-05
-0.00057045
-9.7533e-06
-2.15979e-05
-4.06855e-06
0.0092374
-0.00271987
0.00393297
-0.00274451
-1.21838e-05
-0.000203718
-1.76594e-05
-0.00153886
-0.000859103
0.000723247
0.00484752
-0.00146501
0.0107514
-0.00389101
0.0187876
-0.000124291
-0.000383255
0.00723319
7.41145e-06
0.000101978
0.00357454
0.0197703
0.00804317
0.0764356
-3.32925e-05
0.0048906
0.00794861
0.0151188
0.0186737
-4.90958e-06
-2.88175e-05
1.5742e-05
0.00219266
0.00113957
0.00017501
0.0638566
0.0938239
-0.0134999
-0.00202347
0.00942026
0.0138955
-0.000668943
7.71181e-07
-0.130604
0.00953671
-2.73885e-05
0.00751295
-8.80802e-05
-3.75603e-06
-0.00265266
0.000151172
0.00265117
0.015264
-1.78561e-05
-0.0999785
0.000588448
0.00753409
-0.000847007
-1.83705e-05
-0.000372171
0.00421307
-0.000883959
-6.90732e-05
-1.58521e-05
-1.5617e-05
-0.0478673
-0.00517326
0.0089017
-1.64683e-05
0.0157336
0.00658419
-0.0453813
-0.000989192
0.012411
0.000142712
0.00913595
0.007635
-3.54437e-05
0.00812313
-0.000331458
0.00648775
-0.000150697
-3.55074e-05
0.0029714
-8.52193e-06
0.000677892
-0.105437
4.6375e-06
-1.5937e-05
-0.000305474
-2.4366e-05
0.00451777
0.00280963
-0.102592
0.00674645
0.0258261
-0.10322
0.000611428
-0.10847
0.00429618
0.000153276
0.00944846
0.00926873
0.00774231
-0.00584305
0.0035598
-0.097531
-0.00756648
0.00438228
-0.00103094
0.00944997
0.00434046
-0.00208617
-4.34765e-06
-0.109739
-0.0944652
0.00442763
0.00566795
-1.27214e-05
0.00819447
-1.31614e-05
1.00244e-05
-8.19579e-05
-1.34545e-05
0.00944232
-0.00173
0.00228166
0.0014452
0.00606113
0.00811533
0.0102575
-0.0836653
9.46531e-05
-1.46512e-05
1.67413e-05
0.00666839
-0.0109793
0.0161173
-0.00103164
0.00791268
0.000159019
-1.11053e-06
0.00680263
-1.61299e-05
0.00886168
0.00764257
9.80723e-05
0.00214879
0.000164644
0.0252418
-0.000129067
0.00746796
-0.000109635
-0.000145606
-0.101834
-6.26143e-05
-0.00126914
0.00026483
0.00221641
0.00096507
-0.104633
-0.030405
0.00509798
0.00592808
0.00194757
-2.23861e-05
0.00745061
0.0151618
-5.15026e-06
-0.0168082
-6.93886e-05
-7.93071e-06
-1.4885e-05
-0.00956153
4.12646e-06
0.00958076
-1.5497e-05
0.000420515
0.000111109
0.0263884
0.00234834
0.0064837
5.90137e-06
7.34123e-06
-0.00481514
-1.13473e-05
0.00254312
-1.388e-05
0.00016683
-0.0941081
0.00371402
0.0202149
-0.00419277
0.00365047
0.000252453
-7.6339e-05
-0.000144024
-0.0239794
-0.027862
0.00122759
-1.78729e-05
-0.108051
0.00988672
-2.54405e-05
0.00821034
0.0345092
-1.69905e-05
0.00704533
1.90438e-05
0.0422534
0.00400041
0.00677618
0.00758959
-1.45123e-05
1.11627e-05
-2.05792e-05
-0.0219294
-0.00321782
-0.00953046
-0.0147932
0.00979936
-1.27494e-05
0.00758519
9.05696e-07
-1.00944e-05
-3.40857e-05
-1.95794e-05
2.28824e-05
3.6381e-06
-0.000224834
-0.102385
-2.08564e-05
-0.0413279
0.0109113
-5.14079e-06
6.33042e-06
-0.000553944
-1.81703e-06
-2.89397e-06
-3.97506e-05
-0.0278032
0.00820741
-2.17766e-05
-1.52724e-05
-1.65388e-05
0.00577227
0.00107404
-0.0204761
-2.6065e-05
-8.6473e-08
1.13491e-05
0.00652653
0.0139247
0.000934909
-3.78401e-05
-0.0472222
1.2952e-05
0.00983649
0.00719826
0.00678049
0.00363963
0.00882548
0.00674029
0.0278539
0.0093736
-1.06117e-05
-1.87484e-05
0.00347687
4.43701e-05
0.00497193
-0.0365489
1.58598e-05
0.00704534
-9.296e-06
-0.00346281
0.00771485
0.00098764
-0.000858879
-1.35089e-05
-0.000386405
-0.0119418
3.52939e-06
0.0413062
-3.77804e-05
9.60055e-05
2.99766e-05
0.00710904
-0.058445
0.00264747
0.0290867
4.7199e-05
-0.00469199
-1.10908e-05
1.21177e-05
0.000669371
0.00872792
5.99404e-06
1.51299e-05
0.00912888
0.0230435
0.00578713
0.00792161
4.78216e-06
-0.0345035
0.00881869
-0.00653919
-4.53868e-06
-0.00251042
-0.00314753
-1.29218e-05
0.00533817
0.00298538
0.0094373
0.00697742
0.00568385
0.00317733
-2.78454e-05
0.0382668
0.00812748
2.27391e-05
0.00761394
-0.0017143
0.00599714
0.00664063
-0.00194251
-2.09964e-05
2.40835e-06
0.00136135
0.00781784
-9.24345e-06
-0.000377286
0.0100284
-0.000822126
4.30556e-06
-1.84252e-05
0.0107754
-0.00124171
-0.00137243
2.21256e-05
-0.013708
0.00148578
-0.000286095
6.46766e-06
0.00298427
-2.85793e-05
-1.69648e-05
-0.00169629
1.54566e-06
-6.66015e-06
0.00711636
-0.00230365
0.000994713
5.82552e-06
-4.81585e-06
0.0060441
-5.19203e-06