/*--------------------------------*- C++ -*----------------------------------*\
  =========                 |
  \\      /  F ield         | OpenFOAM: The Open Source CFD Toolbox
   \\    /   O peration     | Website:  https://openfoam.org
    \\  /    A nd           | Version:  9
     \\/     M anipulation  |
\*---------------------------------------------------------------------------*/
FoamFile
{
    format      ascii;
    class       surfaceScalarField;
    location    "5";
    object      phi;
}
// * * * * * * * * * * * * * * * * * * * * * * * * * * * * * * * * * * * * * //

dimensions      [0 3 -1 0 0 0 0];

internalField   nonuniform List<scalar> 
167688
(
-0.0433199
0.0259887
0.0173312
0.00971203
-0.0736742
0.0639621
0.0342753
0.0464384
-0.0807137
0.0377353
-0.0826365
0.0449012
0.098454
-0.087296
-0.011158
-0.0741575
0.0140681
0.0600894
0.0430508
-0.0254595
-0.0175913
-0.0375924
0.0753278
-0.116806
0.0395525
0.0772537
-0.0266687
-0.00379821
0.0304669
-0.0503059
0.0600179
-0.0634742
0.0362381
0.027236
0.111398
-0.0853553
-0.0260431
-0.0480522
-0.0154219
-0.0385298
0.0175705
0.0209593
0.0396383
0.0323219
-0.0719602
0.0207578
0.00420678
-0.0249646
0.0224898
-0.0268768
0.00438703
0.0322848
0.0376888
-0.0699736
0.104903
-0.0651499
-0.0397536
-0.0823683
-0.0211602
0.103528
0.0461023
0.050246
-0.0963483
0.0636869
-0.0314021
-0.0879724
0.0650349
0.0229375
0.0958945
-0.0156946
-0.0801998
-0.0755967
0.0296376
0.0459591
0.0128276
0.0108738
-0.0237015
0.0725583
-0.0801546
0.00759628
-0.091508
0.0173505
-0.00131443
-0.0810539
0.0117393
0.0691963
-0.0809357
0.0619506
-0.0562069
-0.00574374
0.131629
-0.118952
-0.0126767
-0.0366837
0.029308
0.00737566
-0.0665112
-0.050295
-0.115993
0.0774918
0.0385009
0.049677
0.0552265
0.0049986
-0.0148926
0.00989401
0.0243547
0.039911
-0.0642657
-0.0567575
-0.0358676
0.0926251
0.0328668
-0.0891548
0.056288
-0.0647272
0.0162508
0.0484764
-0.0716378
-0.011437
0.0830748
0.0623729
-0.0280977
0.0427919
-0.0203022
0.0385742
-0.0664205
0.0278463
-0.0222127
-0.0144709
-0.119131
0.00265121
0.11648
-0.0963643
0.0345621
0.0618023
-0.0040835
-0.0606437
0.0680933
-0.0279682
-0.0401251
-0.0293436
0.0242433
0.00510036
0.0884824
-0.085533
-0.00294942
-0.0570117
0.0813664
0.00576936
-0.066159
0.0603896
0.0235257
0.0195251
-0.0952187
0.0649837
0.030235
0.106296
-0.038942
-0.0673539
-0.0371211
0.00666354
0.0304575
0.0714118
-0.0328376
0.00896809
0.0332315
-0.0421995
-0.0472715
-0.0718593
0.115341
-0.0335423
-0.0817983
-0.00109314
0.116434
-0.00737822
-0.0300344
0.0374126
0.118382
-0.0692611
-0.0491211
0.0152452
-0.0102466
0.107103
-0.0863561
-0.0207466
-0.0637599
0.0071687
0.0565912
-0.0818796
-0.0166758
0.0985554
0.0762039
0.030092
-0.00495509
0.00198536
0.00296973
-0.0601283
-0.0278441
-0.0278773
0.0220236
0.00585369
-0.0170883
0.0384895
-0.0214013
-0.0106594
0.0141355
-0.00347613
0.0890457
-0.00602236
-0.0830233
-0.0197942
0.0461125
-0.0216165
-0.024496
-0.0587329
0.00172118
0.0170988
0.0638393
-0.0809381
-0.00244205
-0.00821732
0.0464109
0.0216825
-0.0613852
-0.0142115
0.108225
-0.0685864
0.0144391
-0.0670244
0.0525853
0.0728843
-0.0531659
-0.0197184
0.0631293
-0.05736
0.0478397
0.00824651
-0.0560863
-0.0628447
0.0796658
-0.0168211
0.13293
-0.0577708
-0.0751588
-0.048474
-0.0675187
0.0376368
0.0352476
0.030315
0.068139
0.0238294
-0.0409176
0.116059
-0.0270132
0.0693933
-0.0468928
-0.0225005
-0.0290367
-0.00949311
0.0787693
-0.06703
-0.0802588
-0.0149598
0.0560468
0.0553517
0.110381
-0.105675
-0.00470627
-0.0897197
0.0652696
0.0244501
0.0617545
-0.102359
0.0406044
-0.0134876
0.036337
-0.0228494
-0.0323431
0.0147204
0.0176227
-0.0493269
0.0419487
-0.0568365
0.0911534
-0.034317
0.0765532
-0.114559
0.0380062
-0.0619614
0.0764005
-0.00202912
-0.00292597
-0.0416164
0.0397724
0.00184407
0.0424944
0.0300204
-0.0725148
-0.0744041
0.0470898
0.0273143
-0.0768622
0.0131024
-0.059183
0.020673
0.03851
0.0422816
-0.00416893
-0.0381127
0.00685605
-0.0705061
0.0636501
-0.00123966
0.0490794
-0.120366
0.0844654
0.035901
0.0525821
-0.083062
0.0304799
-0.00721064
0.0797689
-0.040717
0.0140484
0.0585703
-0.0826224
0.0240521
-0.0535081
0.0863748
-0.0217667
0.0835212
-0.0114282
-0.017075
0.0285032
0.00416038
0.0614101
-0.0655705
-0.0820778
0.0208443
0.0612335
0.0228712
-0.0363588
-0.0285704
0.0871407
0.0315298
-0.0187022
0.0196996
0.0726947
-0.0923943
0.0218346
-0.00459508
-0.0172395
-0.014445
0.054356
-0.101759
0.0450016
0.123923
-0.0868835
-0.037039
0.100297
-0.073559
-0.0267376
-0.0422713
-0.0270227
0.069294
0.0837015
-0.0185605
-0.065141
0.0376655
0.062631
-0.0797656
0.0809508
-0.0011852
-0.0629506
-0.00367602
0.0666266
-0.00956307
0.014157
-0.00459391
0.0189054
-0.0757419
-0.0708247
0.0406788
0.0301459
0.0241971
0.00618632
-0.0303834
-0.113018
0.0359537
0.0770639
0.073828
-0.0669719
-0.0841914
0.0859326
-0.00174117
-0.0280166
-0.00432645
-0.0331728
0.0792751
-0.0375881
0.0527636
-0.0151755
0.00769588
0.0807865
-0.0838974
0.0416261
0.0717783
-0.0366518
-0.0351265
-0.0865414
0.0749486
0.0115927
-0.0271152
-0.0472889
-0.0374938
0.000372706
0.0370418
-0.000786626
-0.0362552
0.0921427
-0.0496483
-0.123908
0.0831375
0.0407701
0.00839419
0.0430657
-0.0514599
-0.0711773
0.0364703
0.034707
-0.0831697
0.0902221
-0.00705237
0.0813598
-0.00420786
-0.077152
0.0529775
0.00469483
-0.0576724
0.0254077
0.0365428
-0.0841035
0.00638884
0.0777147
-0.0574406
0.0613099
-0.00386927
0.0189286
0.0419951
-0.0609237
0.0652756
0.00650277
0.0866069
-0.0782127
-0.020324
0.0107609
-0.0175347
-0.0430432
0.0605779
-0.0426101
-0.0777563
-0.0904616
-0.00590274
0.118139
-0.0299659
-0.0881734
0.0656527
-0.0491516
-0.0165011
-0.00245261
-0.073649
0.0761017
-0.0507595
0.0332247
0.0812227
0.0185857
-0.0998084
-0.113287
0.0144327
0.0988545
0.072204
-0.102159
0.0299554
-0.0725478
0.0466033
0.0259445
-0.0469861
0.0345954
0.0123907
-0.0679098
-0.0559977
-0.00397091
-0.0791988
-0.0690316
0.006081
-0.0678601
0.0175609
0.0502991
0.00775291
0.0505231
-0.058276
0.0819422
0.0496866
-0.101018
0.0381728
-0.0184664
0.0710485
0.0972015
-0.0458729
-0.0513285
-0.136259
0.0947229
0.041536
0.0550705
-0.0642438
0.00917334
-0.00732827
-0.0342882
0.0995888
-0.0445156
-0.0550732
-0.0295399
-0.0570015
0.00142079
-0.0139253
0.0125045
-0.0180771
0.0429366
-0.0248595
-0.0288378
0.0378059
0.0288298
-0.0798708
0.051041
-0.0874269
-0.0220729
0.1095
-0.0355794
-0.0236036
-0.0203804
0.00463442
0.0157459
0.0211594
-0.0454035
0.0242441
0.0395555
-0.0187977
0.0733731
0.014724
-0.0880971
-0.0986824
0.0734694
0.025213
0.110595
0.00238998
-0.112985
-0.0162531
0.0404502
-0.0163466
0.0756064
-0.00621318
-0.0195309
0.0406903
0.0561733
-0.0372447
-0.0597453
-0.00306242
0.0628078
-0.127603
0.0413333
0.0862696
0.0810566
-0.029448
-0.0516086
-0.102368
0.0201818
0.0821858
0.0229178
-0.0431435
0.0202257
0.0889699
0.0294124
-0.00960655
0.0466483
0.0627104
-0.017754
-0.0449564
-0.108045
0.023942
0.0172726
0.0931085
-0.0198809
0.0483467
-0.0284658
-0.0445621
0.0714257
-0.0268636
0.0715625
-0.102375
0.0308125
-0.111049
0.038445
0.0726044
-0.068978
-0.0586249
-0.0409326
-0.0316152
-0.11491
0.0484393
0.0664709
0.0277249
0.00307453
-0.0307994
-0.11605
0.0428896
0.0731603
-0.0831457
-0.0531131
-0.0335575
5.67116e-05
0.000699731
-0.000756443
-0.00207996
-0.00469812
0.00677808
-0.0609633
-0.0212069
0.0821702
-0.040278
0.0497728
-0.00949479
0.109372
-0.0768418
-0.0325298
-0.117513
0.0565497
-0.0151328
-0.0653566
0.0804894
0.0404621
-0.0127372
0.063119
0.00943847
-0.0725575
0.0316467
-0.0634829
0.0318363
0.118321
-0.0589191
-0.0594019
0.0205565
0.0605001
0.0218342
0.037319
-0.0591531
0.0986655
-0.0174428
0.0337702
-0.0292585
-0.00451167
0.0900292
-0.0370993
-0.05293
0.00132955
0.0537409
-0.000496166
-0.0836953
0.0563491
-0.0485961
-0.0878766
0.00579886
0.0558168
-0.0248246
-0.0309922
-0.0173594
0.082629
0.050696
0.0120144
0.0303678
-0.0299722
-0.000395594
0.0205094
0.0608504
-0.0160464
-0.0309397
-0.00320008
-0.0137985
0.0169986
-0.0769791
0.00911907
0.00222504
-0.089652
0.0443488
0.0737905
-0.00898514
-0.0341788
0.0431639
0.0407497
0.066353
0.062415
-0.0405808
-0.0253451
-0.0187599
0.044105
0.0654205
0.0341683
-0.0346313
0.00528773
0.0305696
0.0418179
-0.0723875
0.0333392
0.0246343
-0.0579735
0.0188711
0.020285
-0.0391561
-0.000840781
0.000760293
8.04881e-05
-0.000764775
-7.60061e-05
0.0102223
0.0235479
-0.00247056
0.0790237
-0.0824003
0.0657889
0.0166115
-0.0242308
-0.0148017
0.0390325
0.0545366
-0.0629131
0.00837651
0.101225
-0.0837185
-0.0175068
0.0336138
0.0320388
0.100971
-0.0264269
-0.0745438
0.120659
-0.0300279
-0.0906315
0.0834426
-0.0792822
-0.0354521
0.0264669
-0.0940174
0.0514522
0.0425651
0.00985407
0.0595903
-0.0694444
-0.0472656
-0.0287283
0.0759939
0.106422
-0.0539101
-0.0525121
-0.0675786
-0.0473316
0.0575589
0.0436664
-0.053759
0.0688579
-0.0150988
0.0823913
-0.0798579
-0.00253334
0.099251
-0.0578869
-0.041364
0.1013
0.0316299
0.10617
-0.0401663
-0.0660034
0.0814718
-0.00926773
0.023921
-0.0438018
-0.10993
0.10231
0.00761919
-0.0773776
0.0620017
0.0153759
-0.0535456
0.0732453
0.000692287
-0.113979
0.0538481
-0.0735131
0.019665
0.0825475
-0.0519779
-0.000464341
-0.0703554
0.0708197
-0.0215003
-0.0950281
0.051335
0.0436931
-0.122731
0.0384177
0.0843135
-0.118704
0.0243989
0.0943052
-0.000414368
0.0424584
-0.042044
0.0483195
-0.0254017
-0.0213883
-0.0338638
0.0552521
-0.110223
-0.00582715
-0.1011
0.0700738
0.0310267
0.0938656
0.00538538
-0.080464
0.0653312
0.0226674
-0.000832854
0.0109599
-0.0323316
0.0213717
0.100913
-0.0185214
0.0651182
-0.00199918
0.0511537
-0.0857728
0.0346191
-0.0206826
-0.059083
-0.0804413
0.00880354
-0.0582464
-0.0241539
0.0778745
0.0460481
-0.0680694
0.0235073
-0.0680794
-0.0134797
0.0815592
0.0551448
-0.0128632
0.0651219
-0.000640704
-0.0644812
0.0962464
-0.0415508
-0.0546956
-0.0174619
-0.0514832
0.0689451
-0.0217615
0.093324
0.0523367
0.0430702
-0.0954069
-0.0113699
-0.0836583
-0.0551928
0.015777
0.0394158
-0.0102771
0.0116979
-0.0325809
0.0211527
0.114492
-0.0185978
-0.106659
0.0831715
0.0234871
-0.111765
0.0425422
0.0692225
-0.0276691
0.0593158
-0.120295
0.00727764
0.0656929
-0.0529189
-0.012774
-0.00823786
-0.0492028
-0.0592886
0.0763874
0.00609089
0.0190095
-0.0251004
0.01035
0.0272968
-0.0376468
-0.000229506
-0.0245039
0.0247334
0.0158161
0.00987834
-0.0256944
-0.0609522
-0.00294972
0.0639019
-0.0702866
0.00933446
-0.0193486
-0.00794463
0.0272932
-0.0836022
0.0811496
0.121449
-0.120425
-0.00102391
0.0167763
0.0233655
-0.0401418
-0.0362609
0.013519
0.0227419
0.0530844
0.0683647
0.0790098
0.0172366
-0.00817527
0.00703506
0.00114021
0.0308933
0.0874277
0.00088429
-0.000827579
-0.0279499
-0.0272429
-0.0144856
-0.034992
0.0494776
0.0809638
0.0252059
0.0465605
-0.0790102
0.0324497
-0.0282081
-0.0088048
0.0370129
0.00705446
-0.0352626
-0.0321638
-0.0128455
0.0450093
0.0180448
0.00698959
-0.0250344
-0.000534215
0.000399629
0.000134585
0.125175
-0.041918
-0.0832565
0.0682677
0.0569068
0.0753466
-0.0794705
0.00412385
-0.0302069
-0.00970992
0.0399168
0.102632
-0.0484768
-0.054155
-0.057697
-0.0650342
0.0877851
-0.0969595
0.00917438
0.0377578
-0.0209815
-0.0149901
0.069791
-0.0548008
0.00737131
0.0464768
0.102951
-0.00649644
-0.0964542
0.0217221
0.0812286
-0.00120152
-0.0585438
-0.0405936
0.0163628
-0.0300858
0.0320058
-0.00191995
-0.0379331
0.00115573
0.0367773
0.00651689
-0.0728912
0.0663743
-0.0292837
0.0881824
-0.0588987
0.0240453
0.0247545
-0.0487999
-0.0285248
0.000647517
-0.0795504
-0.0144669
-0.0976913
0.0636667
0.0340246
-0.0480484
-0.0196661
0.0677145
-0.0181578
0.014655
0.00350279
-0.0823468
0.0530631
0.00412371
0.0262441
-0.00946183
-0.0284712
-0.0047624
0.00517286
-0.000410452
0.0535297
-0.0217163
-0.0318134
0.0187362
-0.0735786
0.0548425
-0.0273016
0.0242466
0.00305507
0.0712719
-0.0377757
-0.0334962
0.00624994
-0.0881295
0.101535
-0.0216923
-0.0798428
0.110597
-0.0917777
-0.0188191
0.0675657
-0.00244381
0.0656409
-0.089272
0.0236311
-0.0410792
-0.041768
0.0828472
0.0918354
-0.0261945
-0.0693345
0.0518726
0.0477632
-0.0663218
0.0185586
0.0311296
0.0431929
-0.0743225
0.0496464
-0.0500608
-0.0947594
0.0859918
0.00876762
0.0543823
-0.0663482
0.011966
-0.0161808
0.0271407
0.0746167
-0.104655
0.0300384
0.0608382
0.00379987
-0.0646381
0.0823701
-0.0808226
-0.00154749
0.0895976
0.011373
0.0615407
0.0117922
-0.0733329
0.00885352
-0.0434945
0.034641
0.0984243
-0.0207546
-0.0776697
0.0307677
-0.052156
0.0290267
0.0422452
0.050626
-0.0917051
-0.059939
0.0277753
-0.0679203
0.00766853
0.0602518
0.0143564
0.00528368
-0.01964
0.00461729
-0.0321457
0.0275284
0.0247998
-0.0187089
0.0630428
0.0240733
-0.0871161
-0.00231097
0.0680039
-0.00885242
0.00677247
-0.0250944
-0.00191039
0.0270048
0.0595047
0.00203598
-0.0197813
0.072118
0.0739196
-0.04279
0.0192806
0.0298743
-0.0491549
-0.0926647
0.0102974
0.0823672
-0.129379
0.11673
0.0126489
-0.0258178
0.00646921
0.00827362
-0.033368
-0.0974968
0.0294174
0.0179501
-0.0659985
0.0756666
0.00803488
-0.0365728
0.0891794
-0.0526066
0.0136183
0.0609985
-0.0149459
0.0694825
-0.0130807
0.0642343
0.0126881
0.00209197
-0.0147801
0.0658848
-0.0821036
0.0162188
-0.0498288
0.0786587
0.0297884
0.0205581
-0.0503465
-0.0727716
0.0723073
0.030775
0.0707602
-0.0584963
-0.0123284
0.0650276
-0.0551735
0.0963437
-0.112251
0.0159075
-0.00901519
-0.0312628
0.0580492
0.0267791
-0.0848283
0.0704431
0.0085501
-0.0789932
0.0520302
0.00149953
0.0421007
-0.0893663
0.0969242
-0.0399469
-0.0569774
0.0146378
0.0731474
0.0521176
0.0584773
-0.0795837
0.0116634
-0.0663117
0.00475148
0.0615603
-0.0105258
0.0443712
-0.0338454
-0.0257125
-0.0359256
0.061638
0.128237
-0.0782956
-0.0499416
-0.0352455
-0.0671221
-0.0847848
0.0876389
-0.00285404
-0.0325654
-0.0861387
0.0310745
-0.0152584
0.00160808
-0.000911532
-0.000696544
-0.0723844
0.0573943
0.0531148
-0.00700228
-0.0151273
-0.0487608
0.0638881
0.0425462
0.0132706
-0.0206715
-0.0259535
0.0466249
-0.100518
-0.0112469
0.0535819
0.0557896
0.0487896
0.0794476
0.0916035
-0.0335757
-0.0580278
0.0462062
-0.0496985
0.00349228
-0.0286262
-0.0487515
-0.0320713
0.0901204
0.0447315
-0.035878
-0.0826481
-0.00428594
0.0869341
-0.121382
0.0946105
0.0267713
-0.0842873
0.0119128
0.0723745
0.109182
-0.00276013
0.114181
-0.0606379
-0.0535428
-0.0360663
-0.0325717
0.0686379
0.0954159
0.0187648
0.00609907
-0.0887472
-0.00362367
-0.0501354
0.123248
-0.0643419
-0.0589066
-0.0873943
-0.0139124
0.101307
0.137188
-0.0462002
-0.0909875
0.0173274
0.0188332
-0.0361606
0.113103
-0.108289
-0.00481377
0.10359
-0.033147
0.0206984
-0.0104978
0.024163
-0.0136652
0.0133325
0.0377038
-0.0510363
0.0448437
0.0657531
-0.00107951
0.0111045
-0.010025
-0.0698452
0.080242
-0.0103968
0.0452426
-0.115088
0.105588
-0.0139847
0.0452184
-0.0259378
-0.01441
-0.0348725
0.0492825
0.0896988
-0.0257552
-0.0639436
-0.0222258
-0.0387588
0.0609846
0.0621143
0.0585452
-0.0843207
0.0797664
0.00455435
-0.0288774
-0.0205818
0.0494592
-0.00224764
0.0289498
-0.0267022
-0.0922495
-0.0174135
0.109663
-0.019992
-0.000388309
-0.0923571
0.00757225
0.110114
-0.0795171
-0.0305972
-0.09411
0.0575372
0.0170191
0.0583276
-0.00995262
0.0284349
-0.0184823
-0.0201488
0.0169487
-0.122047
0.0587375
0.0633097
0.062283
-0.0286505
-0.0336325
-0.0270402
0.0747362
-0.047696
0.00718873
-0.0137715
0.0065828
-0.094702
0.0836416
0.0110604
0.120776
-0.0138346
-0.106941
0.108768
-0.045725
0.0825344
0.0382414
-0.00620926
0.013398
0.0395311
-0.0284363
-0.0110949
-0.0668361
0.0178241
0.049012
-0.0564882
-0.0619889
-0.00484726
0.0375052
-0.0528723
0.0153671
0.0633727
-0.00899044
-0.0188882
-0.0590807
0.0779689
0.0298013
0.00972986
-0.0837336
0.0032527
0.0804809
0.0383081
0.0350198
-0.0733279
0.0163858
-0.0458697
0.0294839
-0.0585861
-0.0627957
-0.0364737
-0.0701849
0.0281902
0.00995645
-0.0381466
0.0567237
0.0926639
0.035044
-0.0304267
0.0271388
-0.00217447
-0.0249643
-0.0944126
0.10325
-0.00883781
0.0698918
-0.0949166
0.0250248
-0.0624734
0.0264071
-0.00767778
-0.00049749
0.0195253
-0.103846
-0.0777929
0.075573
0.00221996
0.000139292
0.000621002
-0.0793899
0.0642626
-0.000172309
-0.000592466
0.0635326
-0.0204212
-0.0431114
0.0325867
-0.0431125
-0.0686038
-0.00132143
0.0699252
-0.0100426
-0.021297
0.0313396
0.110157
-0.0289508
-0.0812065
-0.0588835
0.0990788
-0.0401953
0.0721888
-0.00809198
-0.0640968
-0.0601454
-0.00616635
0.0976208
-0.0446433
-0.0313677
0.00406609
-0.0131109
-0.0816485
-0.0468203
-0.0825584
-0.0668757
0.029449
0.0374267
-0.0188693
0.0822272
-0.0633578
-0.0137393
0.0618895
-0.0481502
-0.0138575
-0.078392
-0.0450614
0.0495042
-0.00444284
-0.000896066
0.0384013
-0.0812833
-0.00831676
0.0896
-0.00102179
0.0554961
-0.0544743
0.085347
-0.0131582
0.0269857
-0.0591535
0.0321677
-0.0148761
0.12499
0.0688382
-0.0418524
0.0876163
0.0150154
0.0106008
0.0717692
0.0735691
-0.0904719
0.0169028
0.0191209
-0.0696814
0.0505605
-0.0467482
0.087466
-0.0407177
0.0581722
0.0390292
-0.0328755
-0.0455033
0.0783788
-0.0146764
-0.0377974
0.0524739
0.00250772
0.093836
-0.00392571
-0.046978
0.0509037
0.0880925
0.00193671
-0.0514984
0.022621
0.0625938
0.0155042
-0.078098
0.0927093
-0.0225254
-0.0701839
0.0392025
-0.0353861
-0.00381638
-0.139274
0.0482178
0.091056
0.00745546
-0.056138
0.0486826
-0.0538092
-0.00447939
0.0582886
0.00891628
-0.0737669
0.0648506
-0.0854575
0.035615
0.0498425
0.014084
0.00750658
-0.0215905
-0.112628
0.0288947
0.0911772
0.0887289
-0.0391754
-0.0495535
0.0415577
-0.0562342
0.0233942
-0.0392202
-0.0114824
0.0507026
-0.0932022
0.0715052
0.021697
-0.0408031
-0.0691264
-0.0632354
0.0721517
-0.0147302
-0.0726641
-0.0179149
0.0352423
0.102004
-0.0560712
-0.0459328
-0.0785413
0.0453412
0.0332001
-0.0226088
0.0691693
-0.0561757
0.04169
-0.00743327
-0.0107245
0.000110538
0.000404026
-0.000514563
0.0890037
-0.0633448
-0.0256589
0.00333876
-0.000475466
-0.0028633
0.0737246
-0.014739
-0.0589856
-0.0981696
-0.0238776
0.113907
-0.0623071
-0.0516003
0.105594
-0.0318699
0.0989179
-0.0947552
-0.00416271
0.0591395
-0.0780089
-0.114027
0.0652408
0.0487861
0.034295
0.0646229
-0.0914451
0.0765678
0.0148773
-0.026202
-0.0515909
-0.0305247
0.0314887
-0.00096405
-0.0271145
0.0341891
-0.00707452
-0.0163042
0.0152797
0.00102445
-1.65032e-05
-0.0416771
0.0416936
0.0388034
-0.0116646
-0.0415311
-0.0439265
0.000550906
0.00105717
-0.0513778
0.0880083
-0.0366305
0.038599
-0.0763025
0.0377035
-0.0459036
0.0411663
0.00473728
-0.0381729
0.0767719
-0.021136
0.0910277
-0.073993
0.032221
0.041772
-0.0439656
0.0586344
-0.0146689
-0.0690333
0.0388264
0.064306
-0.0137559
-0.0505501
0.0401606
0.0177848
-0.0579453
-0.0409194
0.0409029
0.115771
-0.0173464
0.0447502
-0.0146787
-0.0300715
0.0695304
0.00663066
-0.0761611
-0.0573834
-0.0278967
0.0852801
-0.0543849
0.0151647
0.0244961
-0.0345387
-0.0689493
-0.0703245
0.0242893
-0.0710375
-0.0684687
0.0543425
0.0141261
-0.0254986
0.0418844
0.089783
-0.055054
-0.034729
-7.28166e-05
0.0213918
-0.021319
0.0924128
-0.0430521
-0.0493607
0.109627
-0.0405779
-0.0690493
0.0376989
0.0299767
-0.0676756
-0.0226758
-0.0232278
0.010363
0.000898065
-0.011261
0.0927473
0.021094
0.0682836
-0.0893776
0.00590161
-0.0572794
-0.0221959
0.0757959
-0.0536001
-0.0165681
0.0354392
0.0975096
-0.0215859
-0.0759237
-0.0591197
0.0410426
-0.0664368
-0.00231751
0.0687543
0.058856
-0.0917315
-0.0380556
0.0314565
0.0065991
-0.0377698
0.0511023
-0.0263275
-0.0598983
0.0862258
-0.0909762
0.0720654
0.0189107
0.0436805
0.0299037
-0.0735841
0.0457874
0.00878165
-0.0545691
-0.03535
0.00823542
0.0351564
0.00959379
0.01065
-0.0211478
-0.0598739
0.0313342
0.0285396
0.0778711
-0.00507589
-0.0727952
0.0792496
-0.0459104
-0.0616866
0.069142
-0.0758827
0.121675
-0.0457924
0.000572198
-0.0456336
0.0109068
-0.0867895
-0.0935433
0.0361599
0.0469295
-0.00537061
-0.0415589
-0.0914451
-0.0851936
0.0663054
-0.000606347
-0.00121877
0.00182512
0.0545279
-0.0808554
0.0504276
-0.0206392
-0.0124964
-0.0460766
0.0585729
0.0520375
-0.0742334
-0.0669664
0.057819
0.00914747
-0.0586969
0.0652138
-0.0435891
0.0925482
-0.0489591
-0.0456866
-0.0141873
0.0833399
-0.0646037
-0.0538999
-0.020606
0.0745059
0.046139
0.0574075
-0.103546
-0.0876329
0.0504052
0.0372277
0.0273668
0.0421664
-0.0695331
-0.0375556
-0.056857
0.050616
0.00507391
-0.0556899
0.0328555
0.0802471
0.082558
-0.0423974
-0.0347652
-0.0321105
0.00494458
0.0145515
-0.0194961
0.00464603
-0.0849092
0.0802632
-0.0561166
0.00439173
0.0517249
0.0866033
-0.0876961
0.00109283
0.00347067
0.0300228
-0.0334935
0.0141186
-0.0240713
0.0329171
-0.0835182
0.0506011
0.0505761
0.0268157
-0.0773918
-0.0270998
-0.0869271
-0.00391138
0.0179953
0.0647901
-0.0817818
0.0169917
-0.0864747
-0.00205388
0.0885286
0.0461319
0.0418578
-0.0879897
-0.0495231
0.0503773
-0.000854235
-0.0120058
-0.0722815
0.0587486
-0.0521708
-0.00657785
0.0569897
-0.0112023
0.0315626
-0.021757
-0.0098056
0.0816259
-0.0207877
0.017688
-0.0629598
0.0452718
-0.0687569
0.0149477
0.0965876
-0.0338797
-0.0627079
-0.0267936
0.0644925
-0.0564471
0.102486
-0.0460384
0.100615
0.00712422
-0.107739
-0.0654943
-0.00763542
0.0731297
0.00975497
-0.0782236
0.0967144
-0.0685391
-0.0281753
-0.0387752
0.0569993
-0.0182241
0.0984156
-0.0478394
-0.056924
0.078018
0.0369486
-0.0371781
0.0153509
-0.0809686
0.0656177
-0.0895563
0.024062
0.0187284
-0.020976
0.068859
-0.00455297
0.061483
-0.0288666
-0.0326164
-0.0284217
0.0163112
0.0121106
0.00955253
-0.010632
-0.0267756
-0.0545076
0.091631
-0.0681304
-0.0235006
0.011897
-0.0730654
0.0611684
-0.112449
0.0312729
0.0811756
0.0187081
0.0819068
0.0786724
-0.0138823
0.0208309
0.0506152
-0.071446
-0.127327
0.05849
0.0688366
-0.0947956
-0.032531
-0.0439326
0.0709196
-0.026987
0.023525
-0.0173466
-0.00617848
-0.0712457
-0.0181279
0.0893737
-0.00523591
-0.0668544
0.0720903
0.0382406
-0.0278906
0.000924456
-0.0385984
0.0376739
0.0398683
-0.0399411
-0.118369
0.00592062
0.0879088
-0.0687879
0.0121929
-0.0227556
0.0105628
0.0840819
-0.00531542
-0.0787665
0.0382383
-0.087606
0.0493677
-0.0340522
0.0807413
-0.0466891
-0.119243
0.050091
0.0691523
0.0356696
-0.0347451
0.0409629
-0.112209
0.0325915
-0.0635874
0.0309959
-0.0991746
0.061625
0.0375495
0.0459151
-0.0372507
-0.00866436
0.100674
-0.0508512
-0.0498226
0.00421527
-0.070156
0.0659407
-0.027329
-0.00893192
0.0854889
0.0120207
0.0290456
-0.0630272
0.0339816
0.0833527
-0.0451144
-0.0279278
-0.0525278
0.0804556
-0.0395055
0.00608936
0.0334162
-0.0670042
-0.0522391
0.0707287
0.0190543
0.00702161
0.00130199
-0.0083236
-0.0760498
0.0879468
-0.0611045
0.02115
0.0399545
-0.0710082
0.0456631
0.00517726
0.0574347
-0.062612
-0.0394148
-0.0441045
0.0835193
-0.0318451
0.0380671
-0.00622204
0.00791747
0.0786858
-0.0504388
-0.0281025
-0.0607526
0.0400811
-0.0402478
-0.0544543
-0.0633638
0.0056438
0.05772
0.0121898
0.0768138
0.0360497
0.0566596
0.0275903
-0.0820434
0.0544531
0.0599473
0.0407265
-0.0169616
-0.0450788
0.0620403
-0.078711
0.0297636
0.0489474
-0.0962021
0.0191738
0.0770283
-0.0942202
0.0194257
0.0747945
-0.039818
-0.0506859
0.0905039
-0.00727865
0.00251625
-0.00720805
-0.0303801
-0.0773184
0.0557705
0.0215479
-0.00421127
0.0548273
0.112105
-0.102301
-0.00980383
-0.0469744
0.0745647
0.0354286
-0.0173839
-0.00562581
0.0330325
-0.0274067
-0.0286003
0.0936343
-0.065034
0.00195409
-0.00256044
0.0595483
-0.0691892
0.00964086
-0.107931
0.0727335
0.0351978
-0.0732612
-0.0234662
0.0967273
0.0105267
-0.0493019
-0.0699479
-0.00737047
0.0443017
-0.072902
-0.000149708
-0.000384507
-0.00753615
0.0415085
-0.0339724
0.0899015
-0.0625347
-0.0592053
-0.0399693
0.0685997
-0.0919173
0.0233175
0.0154629
-0.0301117
0.0146487
-0.0486604
-0.0389725
-0.0174407
-0.027863
0.0453037
0.047349
-0.0930416
0.0456926
-0.03097
0.0635615
-0.0721263
0.0773036
-0.0246244
-0.00379738
-0.0396073
0.0869563
-0.0737233
0.0103595
0.0903971
-0.0805706
-0.00982641
-0.0483009
0.0321094
0.0161915
-0.078415
0.0937659
-0.00906312
0.0646285
-0.0555654
0.0920237
0.0176035
0.0160742
-0.00571125
-0.0401422
0.0760947
-0.0359525
0.0948443
-0.0317877
-0.0630567
0.0410014
0.00491375
0.0142431
0.0492895
-0.0437953
-0.064136
0.0200788
-0.09334
-0.0510063
0.0335656
0.0296381
0.103268
-0.0108548
-0.00921051
0.0774931
-0.0682826
0.0706956
-0.044917
-0.0257786
0.000530294
-0.0444958
0.0031301
0.0146561
-0.0177862
-0.00185567
0.0324414
-0.0305857
-0.0672614
0.0633357
0.0513861
-0.0604492
-0.0496849
-0.0489975
0.00594022
0.0225821
-0.0285224
0.0569376
-0.027892
-0.0844509
0.0697906
0.0146603
-0.101949
0.0678969
-0.0191922
-0.0553297
0.0745219
-0.0583279
-0.0427725
-0.0913423
0.00476348
0.0865788
0.0877468
0.0070975
-0.0512169
0.0558629
-0.0381793
0.00622067
0.0319587
-0.114165
0.0663783
0.0477866
0.110922
-0.0375034
-0.0734189
-0.0742567
0.0181401
0.0760516
-0.0760516
0.0589663
-0.0868941
0.0333007
-0.0189444
-0.0486985
0.0329266
0.0157719
-0.0783114
0.0772896
0.00542136
-0.0718582
-0.00802537
0.0140489
-0.00602353
-0.0884373
0.0662115
0.0173927
-0.00470459
0.0740574
-0.0110859
-0.0629715
0.0871114
0.0094762
0.0679217
-0.015837
-0.0520847
-0.0933389
0.0368917
-0.0803698
0.0320204
0.0483494
-0.0215534
-0.0271451
0.0683445
-0.109772
0.0414278
-0.00645983
-0.0576974
0.0641572
0.0828881
-0.0741995
-0.00868861
0.0992763
-0.0933544
-0.0059219
-0.0266528
-0.00301774
0.0296705
0.0601236
-0.0715073
0.0113837
0.0132612
-0.0563035
0.0430422
0.0475759
0.0633464
0.00864343
0.0148816
-0.0259913
0.00219587
0.0237954
0.0824946
-0.0363555
-0.0848864
0.0850377
-0.000151264
0.0647145
-0.110565
0.0458504
0.0749135
0.0321244
-0.107038
0.00632532
0.0725368
-0.0788621
-0.102772
0.0835797
0.0871125
-0.0303902
-0.0567223
0.090377
-0.0237461
-0.066631
-0.0628512
-0.0260005
0.0888516
0.0318335
0.0595062
-0.0913396
-0.00668698
-0.0682159
0.0749029
0.0857989
0.00271123
-0.0885101
0.127989
-0.0492873
-0.0787014
-0.0602673
0.098356
-0.0380887
-0.128572
0.0737256
0.0548468
-0.0977977
0.0253997
0.072398
0.077871
-0.0748504
-0.00302054
-0.0680826
0.0628467
0.0210545
-0.0744315
0.053377
-0.00677064
0.0751151
-0.00211786
-0.0249809
0.0270988
-0.0335642
0.108478
0.0392932
0.0354723
-0.0747656
-0.0862274
-0.015494
0.101721
0.0425123
0.0197707
0.0843387
-0.0648489
-0.0194898
0.129711
-0.0264368
-0.103274
-0.0677986
0.0330577
0.0347409
0.0379326
-0.0435357
0.00560311
0.102803
-0.0332509
-0.0695526
-0.0299497
0.0992886
-0.0693389
-0.0314887
-0.0491407
0.0806294
0.076976
-0.0303727
0.0170885
0.0112518
-0.0283402
0.0259897
0.00441969
-0.0304094
0.0484095
-0.00131973
-0.0863465
0.0174277
0.0689188
0.0657751
-0.092919
0.0271439
0.0436387
0.00174069
-0.0453794
-0.0265962
0.0442278
-0.0176316
0.0907585
0.00595592
0.0757164
-0.0427993
0.104444
-0.054168
-0.0502758
-0.0109054
-0.0286479
0.0395533
0.111591
-0.056518
-0.0550731
0.0124475
0.0660122
-0.0784597
0.0382601
0.028083
-0.0663431
-0.120521
0.0511779
0.069343
0.0581872
0.029278
-0.0874651
-0.087686
0.0357834
0.0519026
-0.00422497
0.00422497
-0.0104127
0.113216
0.001325
-0.0011881
-0.000136896
0.0291457
0.055649
-0.0847948
0.0610773
-0.0317706
-0.0293067
-0.0878714
0.035288
0.0525835
-0.0542891
-0.0447559
0.0990451
-0.0519666
0.0525338
-0.000567265
-0.00887246
-0.0595518
0.0684243
0.0127293
0.0647026
-0.0774319
-0.0440259
0.056878
-0.0128521
0.0052018
0.0235381
-0.0287399
-0.0531666
0.089599
-0.0364324
0.009243
-0.0347025
-0.110983
0.0494488
0.061534
-0.00439713
0.0774155
-0.0730184
0.100104
0.000632456
-0.100737
-0.0465229
0.0430376
0.00348533
0.0191643
0.0456
-0.0647642
0.0505096
-0.0569694
-0.0213768
0.0899765
0.0323336
-0.053966
0.0216324
-0.0523704
-0.0154282
-0.0288869
-0.0518806
0.0807675
0.103102
-0.0837567
-0.0193456
0.0269814
-0.0448382
0.0178568
0.0591895
0.0409149
0.0371709
0.04775
-0.084921
-0.104212
0.0289955
0.0752163
-0.0499405
-0.052847
0.102788
-0.022715
0.0639105
-0.0411955
-0.00146833
0.053805
-0.0523367
0.091756
-0.0487672
-0.0429888
0.022562
-0.0734475
0.0508854
0.105806
-0.0502319
-0.0555739
0.0772368
-0.0171133
0.0787639
-0.0308217
-0.0479422
-0.104848
0.0416098
0.0632377
0.0500584
-0.0983626
0.0483043
-0.0202052
0.00343886
0.0167663
0.0793695
-0.00531204
-0.0226469
-0.0304956
0.0531425
0.0742728
-0.096973
0.0227002
0.0579363
0.0223235
-0.0802598
-0.0183277
0.0343004
-0.0159726
0.0115051
-0.0508747
0.0393696
-0.133815
0.0768601
0.0569553
0.0700095
-0.0917415
0.021732
0.0609572
-0.0217824
-0.0391748
0.0494279
-0.0189371
-0.0304908
-0.0582494
0.00513558
0.0531139
-0.0921399
0.0771623
0.0149777
-0.103809
0.0384528
-0.0834701
0.0501991
0.0332709
-0.0746332
0.0820634
-0.0074302
0.0223508
0.0044829
-0.0268337
-0.0018024
0.0487506
-0.0469482
0.124997
-0.0708549
-0.0541417
0.0671585
-0.0547107
-0.0124478
-0.0338747
-0.0396718
0.0735465
-0.0069817
0.0963922
-0.0894105
-0.0701706
0.0327475
0.0374231
-0.0255229
-0.0441672
0.0696901
-0.0775442
-0.0176943
0.0952385
-0.035403
0.0053172
0.074678
-0.0966218
0.0219438
0.0900702
-0.0623206
-0.0277496
-0.0780446
0.0849196
-0.00687498
-0.12556
0.0649188
0.0606413
0.013716
-0.0136388
-7.7209e-05
0.0314848
-0.0264378
-0.00504704
0.0537694
-0.0718291
0.0180597
0.0922324
-0.0740495
-0.0181829
-0.0109114
-0.053263
0.0641744
0.0686196
0.0313804
0.0316344
0.00397601
-0.0356104
0.0222013
0.0620716
-0.0842729
0.0341316
-0.0323709
-0.00176066
0.0414707
0.00159381
-0.0430645
0.0808786
0.0249272
0.105259
-0.112319
0.00706029
-0.0719311
0.00119954
0.0707315
0.111145
-0.0114916
-0.0996536
-0.0387456
0.00340371
0.0353419
0.0126685
0.0925907
0.0551929
0.00102474
-0.0562176
0.100743
0.00664003
-0.107383
0.0792006
0.0123176
-0.0915182
0.0469299
0.025762
-0.072692
0.0419351
0.0240013
-0.0659364
0.00427319
0.09647
0.0869708
-0.00360036
-0.0833705
0.101169
0.00997632
-0.0708456
0.0290243
0.0418214
0.0419936
-0.0468998
0.00490619
-0.0384533
0.0352016
0.00325169
0.0664774
-0.0384023
-0.0280751
-0.00892159
-0.00179493
0.0107165
0.0436195
0.0178635
-0.0599373
0.0427539
0.0171835
-0.0333369
0.0666802
-0.0333433
0.0221474
0.0170079
-0.0391553
-0.103222
0.10292
0.0003011
-0.0531261
0.0195697
0.0335564
-0.0170028
-0.0626098
0.0796126
0.0375963
-0.0638281
0.0262318
0.0395504
-0.0364918
-0.00305862
0.0987378
-0.105491
0.0067531
0.0237696
-0.0259551
0.00218552
-0.0159347
-0.0609107
0.0768454
0.0384415
-0.0801946
0.0417531
0.0479023
-0.014191
-0.0337113
0.0305439
-0.0475054
0.0568898
-0.0888608
0.031971
0.113504
-0.0163029
-0.0972007
-0.112137
0.0127856
0.0377262
0.0743787
-0.0661626
0.00229952
0.063863
0.0220277
-0.068373
0.0463453