/*--------------------------------*- C++ -*----------------------------------*\
  =========                 |
  \\      /  F ield         | OpenFOAM: The Open Source CFD Toolbox
   \\    /   O peration     | Website:  https://openfoam.org
    \\  /    A nd           | Version:  9
     \\/     M anipulation  |
\*---------------------------------------------------------------------------*/
FoamFile
{
    format      ascii;
    class       volVectorField;
    location    "5";
    object      U;
}
// * * * * * * * * * * * * * * * * * * * * * * * * * * * * * * * * * * * * * //

dimensions      [0 1 -1 0 0 0 0];

internalField   nonuniform List<vector> 
112055
(
(0.491293 0.0146369 0)
(0.498507 0.00458141 0)
(0.502782 0.000225273 -1.64078e-21)
(0.515561 -0.0081773 6.57652e-22)
(0.501169 -0.00411959 1.01297e-22)
(0.501759 -0.00146986 0)
(0.492512 0.0141763 -5.93645e-20)
(0.515548 -0.00777878 0)
(0.48333 -4.97859e-05 1.64621e-22)
(0.489687 -0.00289474 3.22307e-21)
(0.499746 0.00460191 1.8029e-20)
(0.497054 0.0167567 -3.96667e-20)
(0.492216 0.00052718 -6.04985e-24)
(0.496983 0.0164661 3.7878e-20)
(0.473178 -0.00567525 -2.38602e-20)
(0.500408 0.00140396 2.82491e-24)
(0.584208 0.109128 7.79942e-20)
(0.485891 -0.0425211 -1.99943e-21)
(0.508661 0.00396714 0)
(0.503406 -0.0047414 3.10177e-21)
(0.503135 -0.00122167 4.62347e-22)
(0.49792 -6.66435e-05 0)
(0.507739 0.00400639 -1.04333e-20)
(0.509807 0.00160474 -4.14489e-21)
(0.501767 4.9369e-06 0)
(0.506385 -0.00431498 1.39922e-22)
(0.446943 0.0251876 -1.8253e-20)
(0.499992 -0.00318126 0)
(0.501509 -0.00173188 0)
(0.502823 -0.00150646 -4.41106e-22)
(0.499993 -1.64273e-05 -4.26644e-20)
(0.544007 -0.0076015 0)
(0.499389 -0.00295146 0)
(0.379034 0.0778863 1.76413e-21)
(0.483574 -0.000124531 -2.07958e-22)
(0.50469 -0.000390976 -1.58532e-23)
(0.503273 -0.00483289 0)
(0.374965 0.119708 1.50397e-20)
(0.532229 0.00555912 0)
(0.498774 -0.000725437 2.55757e-24)
(0.497963 0.000788887 2.40491e-23)
(0.531057 0.00439083 3.87012e-21)
(0.49727 0.00120647 1.92041e-21)
(0.502167 0.000630584 2.51457e-21)
(0.484889 -0.0429077 0)
(0.510991 0.000746354 0)
(0.380001 0.0806221 0)
(0.501844 0.000461876 0)
(0.503323 0.000478331 -1.68238e-22)
(0.531013 0.00413294 7.73521e-22)
(0.515614 -0.00699943 1.83269e-21)
(0.569834 0.0777939 0)
(0.500239 -0.00202658 -6.3806e-23)
(0.531458 0.00534418 1.0501e-20)
(0.490254 -2.49853e-05 -2.19041e-21)
(0.492392 0.0145074 2.90529e-20)
(0.502044 0.000614995 2.05641e-23)
(0.503588 0.00128368 0)
(0.555984 0.0400878 0)
(0.51058 0.000866822 -2.58897e-21)
(0.497385 -0.00669354 2.11354e-20)
(0.501675 0.000501197 1.30681e-23)
(0.501904 -0.00098379 -4.28473e-23)
(0.501862 -0.00105988 4.4956e-23)
(0.502869 -0.000755663 0)
(0.486912 0.00364492 5.29268e-22)
(0.369047 0.120766 0)
(0.49903 -0.000916018 0)
(0.514865 0.00268252 1.01595e-21)
(0.50295 0.00282353 -2.45182e-22)
(0.503427 0.0010312 2.69319e-23)
(-0.0874051 0.0159301 1.48508e-21)
(0.509715 0.00173223 0)
(0.454201 0.00704747 6.72903e-20)
(0.499973 0.0550449 -1.69259e-20)
(0.289562 -0.227706 -1.42677e-20)
(0.493205 -0.00196883 -3.14757e-21)
(0.4915 0.0144444 -3.07301e-20)
(0.551502 0.016266 -1.96037e-20)
(0.531187 0.00497805 -1.38022e-20)
(0.499256 -0.000837828 -4.12817e-23)
(0.248113 -0.211805 -1.52855e-20)
(0.515413 -0.00692413 0)
(0.506771 -0.00453565 1.66508e-22)
(0.500114 0.00147975 -3.65313e-25)
(0.488257 0.00203286 9.37784e-21)
(0.538601 -0.01434 -9.1777e-21)
(0.489925 -0.000154068 -2.41656e-21)
(0.458137 -0.000359565 -8.21704e-21)
(0.489667 0.000245602 0)
(0.500865 0.00118399 -1.75529e-23)
(0.504582 -0.000576844 2.06216e-23)
(0.539003 -0.0140803 0)
(0.501203 -0.00401458 -1.61737e-22)
(0.503152 0.0544281 0)
(0.493208 -0.00232367 5.09044e-21)
(0.51324 0.0223626 -7.85796e-21)
(0.473792 -0.00562066 4.05346e-20)
(0.499992 -2.05827e-05 1.95945e-20)
(0.502005 0.000319148 0)
(0.492254 0.000402052 -1.32207e-23)
(0.500221 -0.000952566 1.07228e-25)
(0.499565 0.000755102 1.20139e-23)
(0.501995 0.00226276 -3.34971e-20)
(0.507068 -0.0601246 0)
(0.554387 0.108175 -3.54397e-20)
(0.502852 -0.000852394 0)
(0.499128 -0.00123308 0)
(0.499442 0.00047431 -8.2962e-25)
(0.487937 0.00182698 0)
(-0.0770517 0.0189234 5.43115e-20)
(0.483053 -0.0369289 -8.36414e-22)
(0.488272 0.000815702 0)
(0.511977 0.0116882 1.36399e-20)
(0.514655 0.00258224 0)
(0.486208 0.00829966 5.80184e-20)
(0.498523 0.0135081 0)
(0.500376 0.000533256 0)
(0.459011 0.00037796 1.05968e-20)
(0.48917 0.000848962 9.00529e-23)
(0.501555 0.00440341 8.51091e-21)
(0.4999 -0.00350584 0)
(0.489787 -0.00271186 0)
(0.501857 -0.000481834 -1.65405e-24)
(0.497783 0.000803873 -1.82479e-23)
(0.503125 0.00244259 1.07579e-20)
(0.615545 -0.0791047 -7.35345e-20)
(0.501197 0.00145057 1.76286e-23)
(0.503059 0.000448104 -6.68342e-22)
(0.509247 -0.0590863 0)
(0.501217 -0.000494256 -3.31224e-24)
(0.447548 0.0264395 -6.56733e-20)
(0.501548 0.000303109 4.66528e-23)
(0.419207 0.0189572 7.81686e-20)
(0.532879 0.00582271 4.40885e-21)
(0.498594 -0.000743276 0)
(0.500047 0.00117571 2.74341e-23)
(0.498695 -0.00364269 0)
(0.505472 2.03302e-05 6.43791e-22)
(0.497331 0.00433334 4.21507e-22)
(0.498713 -0.00361396 0)
(0.49998 0.00476073 0)
(0.510316 0.0218145 -6.06151e-22)
(0.481022 -0.220688 0)
(0.498939 -0.00102102 3.67334e-23)
(0.527259 0.00584016 -8.62267e-23)
(0.490056 -0.0313593 7.05555e-21)
(0.498544 0.0019933 0)
(0.500666 0.00067984 6.03578e-23)
(0.501477 -0.000166818 0)
(0.560696 0.10323 0)
(0.497998 -0.0003747 0)
(0.497621 0.00207432 0)
(0.499874 -0.00209048 -1.1946e-23)
(0.505278 -0.000139041 0)
(0.50581 -0.0027512 2.92287e-20)
(0.498462 -0.00136445 -1.47938e-20)
(0.511792 0.0115907 0)
(0.554583 0.0405513 -1.285e-20)
(0.537227 0.0213794 7.77332e-21)
(0.488028 0.00100117 -1.85387e-23)
(0.501976 -0.000693699 -3.67094e-23)
(0.499427 -0.00257133 -1.04007e-22)
(0.502997 -0.00486046 -2.34388e-21)
(0.493761 -0.000226867 -5.18626e-23)
(0.499446 -0.00305343 7.16114e-21)
(0.501742 0.000782527 -4.69705e-21)
(0.543829 -0.00819388 6.92729e-22)
(0.497044 -0.0024408 1.82761e-22)
(0.501309 0.000995257 0)
(0.500752 -0.00245453 -5.69887e-20)
(0.505633 -0.0027026 1.62029e-20)
(0.499509 -0.00268318 3.57306e-22)
(0.480786 -0.21353 -8.03772e-22)
(0.519451 -0.0204303 -2.52481e-21)
(0.489066 0.000986159 -1.3581e-22)
(0.503305 0.000478103 8.29395e-23)
(0.503455 0.00263602 6.14546e-22)
(0.526162 0.00110406 2.94878e-21)
(0.503618 0.00116659 -5.67829e-23)
(0.520134 -0.0198132 1.22061e-20)
(0.499343 0.00280146 -3.98989e-23)
(0.498442 -0.0045403 2.54216e-22)
(0.49995 -3.36994e-05 -6.26747e-20)
(0.5424 0.0068542 -1.88535e-20)
(0.501207 -0.0444716 2.1995e-20)
(0.501982 -0.000535223 8.43048e-23)
(0.493612 -0.000173023 5.56889e-23)
(0.510275 0.0224145 3.48942e-22)
(0.511981 -0.00101771 -8.67828e-21)
(0.503557 0.00273246 0)
(0.499399 -0.00299473 -2.22264e-23)
(0.489393 0.000438195 1.17335e-21)
(0.501617 0.00435286 1.49506e-20)
(0.503568 -0.00103279 -5.04103e-22)
(0.500043 0.00150677 -1.63689e-23)
(0.517526 0.0156017 0)
(0.484497 -0.0375182 -1.34869e-21)
(0.504516 0.00169054 -1.57104e-23)
(0.498363 -0.00129661 4.53474e-20)
(0.392825 -0.00256988 -2.56136e-20)
(0.499149 0.00144723 3.39322e-20)
(0.497135 -0.00652989 4.3578e-20)
(0.504061 -2.53924e-05 0)
(0.50292 0.000440943 -3.19518e-24)
(0.48673 0.00806229 -4.89669e-20)
(0.377092 -0.0759531 0)
(0.500793 0.0108618 2.64291e-20)
(0.586399 0.107809 -7.92676e-20)
(0.499425 0.000900036 0)
(0.507343 0.00397568 5.08684e-21)
(0.497277 0.00031121 0)
(0.491254 -0.0315632 -2.84734e-20)
(0.499469 0.000801409 -3.46894e-25)
(0.513219 0.0219742 4.45887e-21)
(0.500252 0.0110519 1.56279e-21)
(0.500432 -0.00244068 3.03304e-20)
(0.530313 -0.00251224 0)
(0.491115 4.18706e-05 -1.13161e-23)
(0.516605 -0.0081259 0)
(0.500394 0.00199551 -4.90741e-25)
(0.547634 -0.0116306 0)
(0.487036 0.00369997 -4.11607e-22)
(0.537448 0.0210243 -9.39409e-21)
(0.53253 0.0418157 4.80359e-20)
(0.49704 -0.0024187 -1.348e-22)
(0.50048 -0.00107416 7.0546e-24)
(0.50504 0.0124051 -2.12162e-20)
(0.513028 0.000625373 -8.31645e-21)
(0.501002 0.00111569 -7.33132e-26)
(0.504354 -0.000249715 -6.39407e-24)
(0.491171 -0.000139173 -6.55323e-24)
(0.542515 0.00662624 -1.30049e-20)
(0.501265 -0.00256402 -1.39916e-20)
(0.584388 -0.0621133 0)
(0.502172 -0.00107743 1.64485e-23)
(0.500187 0.00156267 1.1461e-22)
(0.504366 -0.000302238 0)
(-0.017702 -0.0344134 1.42141e-20)
(0.270677 0.0513751 5.10815e-20)
(0.503194 0.000150439 -4.62234e-23)
(0.542226 0.00300846 -1.72772e-20)
(0.503556 0.00127971 -3.39259e-22)
(0.504136 0.000238435 6.40827e-23)
(0.498399 0.00195051 4.14885e-23)
(0.583843 -0.0602735 2.82158e-20)
(0.513512 0.0153055 -2.45343e-21)
(0.52663 0.00857879 7.66754e-21)
(0.501375 0.000107421 6.18791e-23)
(0.516386 -0.00801311 1.22469e-21)
(0.517794 0.000108539 0)
(0.499432 0.00281601 6.18473e-23)
(0.412881 0.054086 0)
(0.505951 -0.00213548 7.71688e-22)
(0.517347 0.0152991 3.38725e-22)
(0.501163 -0.000307303 2.13421e-25)
(0.504306 0.00267104 1.1392e-20)
(0.502973 0.000295169 1.25259e-21)
(0.44207 -0.0184668 -6.8315e-21)
(0.499598 0.000667416 -4.66556e-23)
(0.531262 0.0421855 -5.2307e-20)
(0.48903 0.0608978 -3.72413e-21)
(0.499221 -0.00316236 -1.61124e-20)
(0.500612 -0.0438494 -4.13824e-20)
(0.417972 0.0285789 0)
(0.512389 -0.000936799 7.54141e-21)
(0.503469 0.000817199 4.22429e-26)
(0.503619 0.00249697 -3.45525e-22)
(0.503212 -0.0226038 -1.49002e-20)
(0.499061 -0.00111338 -1.97832e-23)
(0.517945 -0.000165451 -5.30756e-21)
(0.502806 0.0126897 0)
(0.504372 0.00158249 1.44219e-23)
(0.567868 0.0777841 -3.24074e-21)
(0.502786 0.000866419 3.24668e-24)
(0.502478 0.00198562 -6.30581e-22)
(0.488829 0.0523074 3.99009e-21)
(-0.0109794 -0.0294841 0)
(-0.0105376 -0.0294462 -1.42287e-20)
(0.411845 0.0518613 -3.23584e-21)
(0.499541 0.00044531 1.25668e-25)
(0.506397 -0.00094723 -1.07344e-20)
(0.507338 -0.032557 3.4026e-20)
(0.503497 -0.000524945 0)
(0.500156 -0.000199284 0)
(0.526319 0.00103842 -3.74042e-21)
(0.50014 -0.000177466 1.21126e-20)
(0.499349 0.000259499 -8.5664e-23)
(0.501393 0.00159126 2.71928e-24)
(0.502804 -0.0227145 -3.52029e-20)
(0.507262 0.00181044 1.61615e-22)
(0.501097 -0.000263249 0)
(0.498627 0.00488804 0)
(0.495926 0.000305521 0)
(0.501239 -0.00273072 0)
(0.500088 -0.000425927 0)
(0.49656 0.000326888 0)
(0.493827 -0.00513676 0)
(0.501046 -0.00315533 0)
(0.500768 0.00126775 -6.95346e-23)
(0.506209 -0.000760986 -2.40635e-20)
(0.499939 -1.82956e-05 2.79641e-20)
(0.505623 0.0122575 0)
(0.500161 -7.01012e-05 0)
(0.5228 0.00521887 -5.1692e-21)
(0.501762 9.10085e-05 1.65881e-23)
(0.498201 -0.00471017 -2.60931e-22)
(0.512642 -0.00217088 4.57056e-21)
(0.502756 0.000857491 -3.16425e-24)
(0.498785 -0.00060056 -2.55132e-23)
(0.503298 -0.00461819 4.01372e-22)
(0.505363 -0.000914475 1.08503e-22)
(0.500062 0.0036041 -3.56449e-23)
(0.50024 -9.97962e-05 0)
(0.521532 0.0148306 0)
(0.547507 -0.0124824 4.87643e-22)
(0.505577 -0.015683 0)
(0.502753 -0.00120002 -1.36164e-23)
(0.497459 0.00282752 -2.91613e-24)
(0.501378 -0.00309606 -3.78019e-23)
(0.498882 0.00234441 -4.13435e-23)
(0.416704 0.0180342 9.08791e-22)
(0.472374 -0.0245153 -2.47517e-22)
(0.494342 -0.00502308 -4.8284e-23)
(0.513434 0.0148609 3.20542e-21)
(0.523154 0.00451928 -2.94403e-21)
(0.499678 0.00494518 -3.01612e-22)
(0.496963 0.00129085 -2.1807e-21)
(0.50632 -0.000923003 0)
(0.500031 0.00116989 0)
(0.512858 0.000929496 8.95628e-21)
(0.502958 0.000259094 7.18594e-23)
(0.498659 0.0135768 1.33674e-20)
(0.517102 -0.00542622 1.77291e-23)
(0.512924 0.00983041 4.5663e-21)
(0.499403 -0.00191892 1.36007e-23)
(0.501056 0.00100987 -2.10069e-23)
(0.5025 -0.000786518 4.05907e-24)
(0.505283 -0.00118901 1.31381e-22)
(0.464021 -0.0183374 -7.07731e-21)
(0.39238 -0.00495754 -8.37162e-21)
(0.618895 -0.0761901 3.1491e-20)
(0.501789 2.61864e-05 -5.1912e-25)
(0.497471 -0.000823595 -8.64827e-24)
(0.499823 0.000725088 2.14715e-24)
(0.526244 0.00878626 -8.67796e-21)
(0.499001 0.00205755 0)
(0.52821 0.00701431 0)
(0.501428 0.000948526 1.1247e-20)
(0.499704 -0.000761223 0)
(0.478631 -0.0244701 -4.69487e-20)
(0.499527 -0.0138728 -9.12068e-21)
(0.493238 -5.17623e-05 4.6301e-22)
(0.440642 -0.0657119 -6.91608e-22)
(0.49997 0.00215772 1.32982e-21)
(0.500432 0.00225222 -1.23957e-21)
(0.454019 -0.0148231 0)
(0.503711 0.000821922 0)
(0.50056 -0.00309198 0)
(0.491396 -0.00369621 -1.29904e-22)
(0.623612 0.0927488 -1.37076e-21)
(0.500492 -0.00300716 -8.57492e-23)
(0.512623 0.00974443 -2.19843e-21)
(0.23597 -0.0731075 0)
(0.501079 0.000521596 2.79121e-23)
(-0.0193828 -0.0396426 2.8704e-20)
(0.46346 -0.0190122 1.83416e-21)
(0.526157 -0.00148175 -3.11477e-21)
(0.506283 -0.000809887 7.64254e-21)
(0.509147 -0.00150861 1.68516e-22)
(0.48441 -0.0355733 -6.87738e-20)
(0.483463 -0.0352348 6.13508e-20)
(0.507633 -0.0119102 0)
(0.500421 -0.0505916 0)
(0.0096216 -0.0127992 -2.16983e-20)
(0.499854 -0.000178515 9.66249e-24)
(0.499556 -0.000193706 -8.90475e-24)
(0.516158 0.00325465 0)
(0.518313 -0.00275142 1.19747e-22)
(0.506298 0.00223907 -1.33411e-22)
(0.50006 0.00363982 -2.99029e-23)
(0.499996 -0.000828557 4.43798e-21)
(0.491524 -0.00392557 1.68475e-22)
(0.503416 0.000967884 2.80916e-23)
(0.513161 -0.00222073 -4.46985e-21)
(0.499895 0.000717374 -7.73592e-24)
(0.500223 0.000591922 0)
(0.52983 -0.00264004 -9.07256e-22)
(0.507365 -0.0316937 -1.38987e-20)
(0.484689 -0.012856 0)
(0.529099 0.0631919 -7.37282e-22)
(0.489923 0.00171661 -2.21064e-21)
(0.500564 -0.00027653 0)
(0.52255 0.0306014 -1.24034e-20)
(0.454927 0.00630107 -5.01961e-20)
(0.507227 0.00209623 -2.21143e-22)
(0.499922 0.00270261 2.8451e-21)
(0.533009 0.00282981 -9.37665e-21)
(0.39275 -0.319748 -6.09451e-21)
(0.500996 1.58329e-05 0)
(0.490375 0.0612546 -4.80609e-22)
(0.52765 0.0622678 0)
(0.160937 -0.137429 0)
(0.498713 0.0163572 0)
(0.500307 -0.000959522 -1.73332e-23)
(0.598947 0.120323 -5.29766e-20)
(0.534653 0.000743345 -4.69058e-21)
(0.503144 0.00256077 1.87232e-22)
(0.503885 -0.00518184 3.05485e-22)
(0.499215 -0.00232268 0)
(0.517112 -0.00525784 0)
(0.503528 -0.00160689 0)
(0.501164 0.00100809 2.1517e-22)
(0.502779 -0.00188565 -5.71097e-24)
(0.499099 -0.00201192 3.08965e-23)
(0.523766 -0.00925259 0)
(0.500103 0.000936247 1.67311e-20)
(0.521302 0.0145214 -2.17057e-21)
(0.488761 -0.000529747 -3.42966e-24)
(0.499699 0.00209302 0)
(0.471345 -0.0240814 1.29475e-20)
(0.492906 -0.00327164 0)
(0.506796 0.00108845 -1.97281e-20)
(0.501297 0.00361623 3.98452e-20)
(0.50021 -0.000143607 -5.66194e-20)
(0.516723 0.0115654 9.56038e-22)
(0.508846 -0.0154884 1.87896e-20)
(0.498268 -0.000257353 2.81387e-24)
(0.505965 -0.01571 0)
(0.534784 0.000583983 -1.6392e-21)
(0.500362 0.001077 -1.43052e-22)
(0.507773 -0.0117204 0)
(0.496795 0.0018189 -1.05079e-21)
(0.562015 -0.109502 0)
(0.547098 0.0208515 1.35145e-20)
(0.478934 -0.0248565 0)
(0.497392 -0.000727013 0)
(0.528074 0.00726867 -8.16112e-22)
(0.275295 0.0563174 -5.12272e-20)
(0.479674 -0.0367407 -2.20502e-20)
(0.516805 0.0113833 0)
(0.50225 -0.00090234 -7.75277e-24)
(0.500111 0.000962506 3.41407e-23)
(0.482024 -0.00330686 8.91499e-22)
(0.493009 -0.00274153 0)
(0.499184 0.000263775 3.17885e-23)
(0.455253 -0.0156374 -1.54651e-20)
(0.480316 -0.0359279 -9.53625e-21)
(0.50306 0.000274942 -5.87222e-23)
(0.53264 0.00276135 1.50367e-20)
(0.497669 0.00445209 -1.99984e-22)
(0.501709 0.00457248 -2.67903e-20)
(0.492973 -0.00326909 -9.29327e-25)
(0.503419 -0.000486849 -1.19578e-20)
(0.522264 0.00429317 2.9811e-21)
(0.293576 0.138445 -1.06812e-19)
(0.498483 -0.00104267 -1.56829e-22)
(0.503641 -0.000199427 -1.99035e-23)
(0.510723 -0.0207582 0)
(0.498771 -0.000750481 0)
(0.503865 -0.00490681 2.42419e-22)
(0.526958 0.00587101 0)
(0.500584 -0.000254632 0)
(0.505834 -0.0025752 -4.60876e-23)
(0.541772 0.00322763 1.41446e-20)
(0.496827 -0.000183853 7.08591e-24)
(0.502163 0.0017566 0)
(0.498729 0.0167121 -3.39469e-22)
(0.49917 0.00459929 0)
(0.505519 0.000560818 1.60702e-22)
(0.500099 -0.000790741 2.06372e-20)
(0.49727 0.00027286 -6.28292e-24)
(0.496313 0.0016364 7.62416e-22)
(0.50713 0.0173257 -5.27651e-22)
(0.509382 0.0116513 9.64251e-21)
(0.514847 -0.00723235 1.42778e-21)
(0.50056 0.00437074 0)
(0.500333 0.00205735 0)
(0.492485 -0.00421337 0)
(0.500097 -7.46464e-06 5.93046e-24)
(0.443402 -0.0650513 1.23513e-21)
(0.0332029 -0.0145941 3.04189e-20)
(0.503247 0.00109652 1.6713e-23)
(0.551607 0.0152513 0)
(0.49433 0.000915406 -6.16188e-23)
(0.443262 -0.0183221 0)
(0.499347 0.00154662 -8.13183e-21)
(0.499933 0.000836134 4.32906e-23)
(0.503485 0.00124141 0)
(0.500552 0.00422068 0)
(0.500297 -0.00149337 0)
(0.496011 0.0510581 -1.78486e-21)
(0.52296 0.0053082 5.46325e-21)
(0.49652 -0.000142547 -2.9093e-23)
(0.509185 -0.0154701 5.79149e-21)
(0.488501 -0.00214773 -8.31878e-22)
(0.500053 0.000957144 -3.47731e-20)
(0.49799 -0.00301697 -1.00068e-22)
(0.49619 0.00022531 0)
(0.498618 0.0024385 -3.37428e-23)
(0.506483 0.0032094 0)
(0.498566 0.00244331 -4.53658e-23)
(0.488654 -0.00220304 6.4629e-22)
(0.496225 0.000216981 4.7793e-21)
(0.495251 5.35302e-05 -1.27396e-23)
(0.497186 0.00595177 0)
(0.499277 0.00265837 -1.04064e-23)
(0.58831 -0.0565475 0)
(0.499784 -0.0009933 0)
(0.502049 0.00190636 0)
(0.514999 -0.0069434 -1.94466e-21)
(0.485538 -0.0926185 -1.62128e-20)
(0.503035 0.014168 -2.47255e-23)
(0.499032 -0.00234179 0)
(0.298536 0.247983 0)
(0.498707 -0.000547691 0)
(0.498736 -0.000509354 1.36387e-23)
(0.500437 -0.00139669 0)
(0.482594 -0.00370215 0)
(0.507366 -0.0159401 -6.49072e-22)
(0.49723 0.00300636 -1.98479e-20)
(0.504902 0.000451099 -1.94618e-23)
(0.499448 0.000174034 -4.16676e-23)
(0.484118 -5.98345e-05 -1.25206e-22)
(0.514795 0.0104967 5.03423e-21)
(0.538882 0.105234 8.68635e-21)
(0.496235 0.000180728 0)
(0.378589 -0.0712779 0)
(0.492753 -0.00423962 2.83592e-24)
(0.502133 -0.00210842 -5.14418e-23)
(0.501313 0.00428048 0)
(0.515281 0.0029216 0)
(0.604021 0.0699184 -4.41952e-20)
(0.419285 0.0307912 0)
(0.502741 -0.00147837 -7.7087e-24)
(0.499752 0.0169567 -4.4841e-21)
(0.516101 -0.0087029 -3.10413e-21)
(0.480159 0.224447 -3.24082e-20)
(0.502163 -0.00217355 -2.07535e-22)
(0.498204 -0.000550438 0)
(0.498682 -0.00128454 0)
(0.497971 -0.000725295 0)
(0.506898 0.232888 -7.05378e-20)
(0.478318 -0.0316598 0)
(0.509444 0.0185098 2.15142e-21)
(0.516436 -0.00843043 0)
(0.509892 0.0190032 -2.45099e-21)
(0.520105 0.0180317 1.78169e-20)
(0.499564 0.0021487 0)
(0.500148 0.00401011 -9.59512e-23)
(0.478159 -0.0327295 0)
(0.500118 -0.000486789 3.54418e-20)
(0.49987 0.00081233 0)
(0.556877 -0.00390989 -7.5755e-22)
(0.499992 0.00102241 1.56833e-20)
(0.497367 -0.000834042 0)
(0.537495 -0.0170818 1.88708e-20)
(0.499216 0.00264267 2.5864e-23)
(0.498298 -0.000921744 6.1041e-23)
(0.546541 0.0203656 0)
(0.403365 -0.0397175 -5.79366e-22)
(0.496503 9.11976e-05 -1.02022e-23)
(0.501404 -0.000981529 -2.67654e-23)
(0.50675 0.00339822 -1.33009e-22)
(0.244965 -0.0715109 -3.28508e-20)
(0.48429 -0.000123185 -3.94233e-22)
(0.511295 0.00141 7.04553e-23)
(-0.0147488 -0.0354561 1.50265e-20)
(0.493945 0.000826396 0)
(-0.0116175 -0.0357064 3.6203e-21)
(0.494573 -0.0105701 1.20008e-21)
(0.509029 0.0118387 9.7634e-21)
(0.499466 -0.000275894 -9.22667e-25)
(0.471797 0.0605145 5.00015e-21)
(0.502734 -0.000853882 0)
(0.498184 -0.00346063 0)
(0.503898 0.00382922 -5.13967e-21)
(0.507647 0.0175024 0)
(0.501187 0.00080509 0)
(0.594219 0.120918 5.13853e-20)
(0.488617 -0.000752178 -3.01333e-24)
(0.499024 0.000351747 -3.96299e-23)
(0.499916 -0.00116198 -1.67547e-20)
(0.501591 -0.00313425 1.15401e-23)
(0.499835 -0.000627362 4.38074e-20)
(0.496566 0.000102261 0)
(0.512762 -0.0270021 9.41013e-21)
(0.52027 0.0177514 -1.14149e-20)
(0.499686 0.00218841 8.56579e-21)
(0.500538 -0.000289964 2.48269e-23)
(0.503979 0.00390576 0)
(0.507032 0.000547198 9.72232e-21)
(0.502019 -0.00199453 3.30261e-23)
(0.507464 0.00044855 -3.02185e-20)
(0.506662 0.00214337 6.37478e-23)
(0.501326 0.003712 -4.58096e-20)
(0.498982 -0.00218737 -4.38121e-22)
(0.492692 -0.00321451 -3.76999e-21)
(0.499539 -0.00385269 -2.66217e-20)
(0.503664 -0.000925927 4.54862e-22)
(0.496906 0.00071902 1.31629e-24)
(0.508599 0.0174077 -1.23671e-21)
(0.505286 -0.00285709 4.38837e-23)
(0.501459 0.00275312 -1.19496e-20)
(0.5055 -0.00232454 -6.13493e-22)
(0.514708 0.0102357 -4.11292e-22)
(0.502788 0.00108502 7.44174e-23)
(0.500185 -5.71757e-05 5.55357e-20)
(0.507351 0.0317071 -3.45067e-20)
(0.499408 -0.00171136 7.76769e-24)
(0.491939 0.000693639 1.19091e-21)
(0.497979 0.00276373 1.41609e-20)
(0.503711 -0.00274027 3.67094e-23)
(0.501804 0.00104892 1.3055e-21)
(0.41214 0.106539 4.70858e-20)
(0.500094 -0.000468243 -1.43184e-20)
(0.495157 0.000174573 2.96531e-23)
(0.498115 0.000213766 -2.76029e-23)
(0.508934 0.0171275 -7.0319e-23)
(0.493038 -0.0025594 -4.81308e-21)
(0.522826 -0.0313679 0)
(0.500602 7.58468e-05 0)
(0.500065 -0.00010906 0)
(0.504344 -0.00240477 0)
(0.49735 0.00607026 0)
(0.585679 -0.0554155 -3.90335e-20)
(0.494863 -0.00113264 0)
(0.515498 -0.0114802 -3.22157e-23)
(0.509241 -0.00138033 0)
(0.525906 -0.00138398 2.43471e-21)
(0.389449 -0.320816 1.74161e-21)
(-0.0173791 0.0157255 0)
(0.503009 0.00070212 -2.04473e-25)
(0.0657257 0.0281721 -1.34712e-20)
(0.499679 9.9126e-05 -5.51998e-24)
(0.502904 -0.0013924 9.67406e-24)
(0.504999 -0.0020471 0)
(0.499632 -0.000150278 0)
(0.500747 -0.000670145 3.2183e-24)
(0.501507 -0.00309354 -4.27452e-20)
(0.500194 -0.00110623 0)
(0.500954 -0.00073356 8.98672e-24)
(0.482063 -0.000634197 -1.5266e-22)
(0.511787 0.0016464 0)
(0.531979 0.0659798 0)
(0.48146 0.00522874 -5.448e-20)
(0.357564 -0.0397805 0)
(0.50244 -0.00207287 5.24012e-23)
(0.401309 -0.0369402 0)
(0.502096 0.00082383 1.35083e-21)
(0.0370226 -0.0167272 -2.99134e-22)
(0.505175 -0.00539361 0)
(0.500097 0.000231967 -6.62976e-24)
(0.48877 -0.00120793 0)
(0.500133 0.000400933 0)
(0.501533 -0.00108015 0)
(0.500929 -0.00208097 1.86366e-20)
(0.497913 0.00396936 -6.30797e-20)
(0.519056 -0.00257471 0)
(0.512215 0.0173823 9.13865e-22)
(0.501718 0.000776574 -4.32089e-21)
(0.502292 -0.00224253 -1.93201e-20)
(0.498395 -6.91124e-05 0)
(0.495525 0.0307018 -2.61805e-20)
(0.498224 -0.000170889 -5.63532e-24)
(0.488117 -0.000856779 1.09407e-22)
(0.523013 -0.0320454 0)
(0.475488 0.0599871 3.16261e-21)
(0.49943 -0.00180362 1.91048e-23)
(0.499792 -0.00383661 3.27126e-20)
(0.519431 -0.0158209 -5.08758e-21)
(0.555816 -0.00378035 -5.4495e-20)
(0.503992 0.0143986 1.20496e-22)
(0.490445 -0.0027649 -2.55734e-20)
(0.501544 0.0023783 -9.27428e-22)
(0.497467 -0.000137352 1.04313e-22)
(0.502047 -0.00189926 0)
(0.489129 -0.0011369 2.40934e-20)
(0.343531 0.0471118 7.52367e-20)
(0.504988 -0.00185709 3.68928e-23)
(0.499648 -0.000737801 0)
(0.5058 -0.00545193 9.7484e-24)
(0.496957 -0.00164007 0)
(0.490339 0.051513 -3.84123e-21)
(0.488008 -0.000840206 0)
(0.499014 0.00133267 0)
(0.505923 -0.0013522 0)
(0.4979 0.00060256 2.73085e-23)
(0.525021 0.0771336 5.5189e-21)
(0.503078 0.0141949 0)
(0.500671 0.000815774 1.00692e-23)
(0.500105 0.00216366 1.39138e-20)
(0.496398 0.00220405 0)
(0.50772 0.00841108 -3.1112e-20)
(0.481784 0.00463636 4.89822e-20)
(0.495453 0.031143 0)
(0.486436 -0.0909581 1.67583e-20)
(0.497975 0.0108319 3.36941e-20)
(0.500944 -0.000531483 -6.20136e-23)
(0.502602 0.00240033 1.12734e-21)
(0.492876 0.00061845 4.54228e-22)
(0.502248 0.00275356 0)
(0.512586 -0.0264044 0)
(0.502569 0.00297097 0)
(0.48837 -0.000780944 -6.70521e-23)
(0.522404 0.0264301 2.96806e-21)
(0.481722 -0.00031512 0)
(0.500041 0.0041125 0)
(0.0873588 0.0302708 -9.4802e-21)
(0.500193 0.000438865 -2.6213e-23)
(0.511299 -0.0207742 -2.16851e-20)
(0.515886 0.000176425 0)
(0.498415 -0.00139939 0)
(0.528374 -0.000441312 3.31445e-21)
(0.491375 0.00150796 2.32335e-21)
(0.504418 0.000423953 -1.32116e-23)
(0.498012 0.0105409 0)
(0.499909 -0.000756883 -1.78294e-23)
(0.496227 -0.00118332 1.38616e-20)
(0.495481 -0.00335132 0)
(0.517944 0.000899092 -2.04751e-21)
(0.479824 -0.00112149 1.11982e-21)
(0.496584 0.000226799 1.8946e-23)
(0.527618 0.0162197 1.29496e-20)
(0.499778 -0.000960775 -1.07332e-24)
(0.502474 0.0004977 2.77531e-20)
(0.500128 -0.00112225 -4.12037e-20)
(0.491317 0.141713 1.66432e-21)
(0.49779 -0.00332725 -1.6122e-21)
(0.49851 -0.00398479 5.15962e-22)
(0.505095 -0.00340559 0)
(0.499477 -0.0150415 -4.18016e-20)
(0.61323 0.0683074 -4.12262e-20)
(0.490588 0.00231909 -3.4615e-23)
(0.501239 0.00334643 -4.83293e-21)
(0.500359 -0.00103339 0)
(0.415934 0.10854 -3.62512e-20)
(0.512254 -0.002419 0)
(0.502606 0.00148009 0)
(0.505328 -0.000160578 -7.43275e-23)
(0.54447 -0.000813878 0)
(0.497869 -0.00270443 9.53682e-23)
(0.478459 0.00407084 4.27356e-21)
(0.508025 0.00839412 2.79911e-20)
(0.633187 -0.0183918 1.12026e-19)
(0.507517 0.000839902 2.33771e-20)
(0.525606 -0.0121353 1.15621e-20)
(0.497824 0.00260432 -2.53522e-21)
(0.495246 0.00213078 1.51122e-20)
(0.501594 -0.00184467 2.03754e-20)
(0.49927 -0.000289521 8.24221e-24)
(0.495052 0.000733651 0)
(0.498966 -0.00059053 0)
(0.519198 -0.0160965 4.95001e-21)
(0.504393 0.00101629 3.40096e-22)
(0.500488 -0.000513829 -2.3337e-20)
(0.501297 0.00323794 1.57765e-20)
(0.499613 -0.00100148 -2.73373e-24)
(0.493005 -0.000235391 -3.42695e-22)
(0.497453 -0.000328699 -2.76889e-24)
(0.498931 -0.000649341 -1.39573e-23)
(0.538755 0.102426 -1.19315e-20)
(0.512085 0.0169212 -1.57268e-21)
(0.553462 0.0265283 -4.85181e-20)
(0.450169 0.0361726 3.62792e-20)
(0.307906 0.242765 0)
(0.499528 0.00213632 -9.37738e-21)
(0.503186 0.00191477 0)
(0.499207 0.000742415 3.64598e-23)
(0.499472 0.000730909 1.14584e-23)
(0.49512 0.000688125 0)
(0.511029 -0.00207949 8.45336e-22)
(0.505847 0.00138717 0)
(0.497503 0.00027654 5.96226e-23)
(0.498219 0.000201876 -1.2579e-23)
(0.506 -0.000815882 1.17603e-20)
(0.416791 0.117785 1.00794e-19)
(0.493914 0.00316956 -4.19159e-23)
(0.499741 -0.00105803 -8.5376e-24)
(0.499741 -0.0139494 5.00174e-20)
(0.552754 -0.0145641 -2.72221e-21)
(0.490523 -0.00286999 -5.73247e-22)
(0.499259 0.000792305 2.76018e-24)
(0.492093 -0.00365754 2.73403e-21)
(0.63817 0.180264 3.05874e-20)
(0.501017 0.000941964 1.32106e-22)
(0.499223 -0.000487764 0)
(0.500112 -0.00111827 0)
(0.492541 -0.00121722 2.00446e-21)
(0.552197 -0.0140889 2.8225e-21)
(0.493534 0.0031637 2.20851e-23)
(0.502433 0.00283046 0)
(0.498574 -0.00169416 1.12742e-23)
(0.490613 -0.0450948 0)
(0.50381 0.0031205 3.55285e-22)
(0.501239 0.00142379 0)
(0.620962 0.0951943 3.23072e-20)
(0.488201 -0.000851396 -1.55658e-21)
(0.510149 0.00164719 0)
(0.498936 -0.000525764 1.77888e-23)
(0.48132 -0.00180976 1.94332e-21)
(0.499758 0.0154248 0)
(0.492468 -0.00137681 3.78576e-21)
(0.503687 0.0140096 -1.26708e-22)
(0.268424 -0.0762126 -5.06182e-21)
(0.500041 0.000747576 4.29887e-24)
(0.502925 0.0198539 0)
(0.503167 0.0127557 0)
(0.502315 0.000687908 3.53855e-23)
(0.499758 -0.000740352 6.70653e-23)
(0.54803 -0.0168637 0)
(0.504856 -0.00364736 0)
(0.515645 -0.0117066 0)
(0.499214 0.0015107 -2.88848e-20)
(0.502575 -0.00229177 1.83965e-22)
(0.523063 0.0198956 0)
(0.502966 0.000727191 -4.10502e-23)
(0.50019 8.77539e-05 -4.04148e-20)
(0.501323 -0.00075308 4.11427e-23)
(0.503783 0.00311048 0)
(0.526499 -0.00233052 1.35071e-21)
(0.49722 0.00339419 0)
(0.502247 0.00102268 0)
(0.499243 -0.000485489 -1.34967e-20)
(0.49717 -0.000314009 7.97145e-23)
(0.202067 -0.180389 1.02288e-20)
(0.497953 0.00213421 1.97397e-20)
(0.532354 0.00220335 4.82981e-21)
(0.52705 0.0159072 -1.38022e-20)
(0.503502 0.000972414 -6.76705e-25)
(0.501952 -0.000928596 0)
(0.501836 -0.0503506 0)
(0.495409 0.0173489 0)
(0.494558 0.00399053 0)
(0.0977448 0.0407831 2.01436e-20)
(0.499522 0.00245021 -4.59132e-21)
(0.504773 0.000714477 2.05377e-23)
(0.500017 0.000147088 2.80206e-20)
(0.500246 -0.000581714 0)
(0.532495 0.00212709 -9.15142e-21)
(0.494268 0.00337134 0)
(0.0159555 -0.00927172 6.70728e-20)
(0.499335 -0.00741738 -4.84726e-20)
(0.479766 -0.000781714 -9.47546e-22)
(0.498827 -0.00149983 -1.06992e-22)
(0.500156 0.00149038 0)
(0.423249 -0.0241822 3.70568e-21)
(0.517897 0.000756178 -2.81723e-21)
(0.507213 -0.00894493 0)
(0.499679 -0.000323831 -1.21945e-23)
(0.501592 0.0026994 0)
(0.502305 0.000341046 0)
(0.450702 0.0349145 -3.62504e-20)
(0.498895 -0.000540461 6.93386e-24)
(0.523305 0.0197799 0)
(0.500313 0.00183689 -9.07374e-24)
(0.495496 0.0208905 0)
(0.497634 -0.000275963 1.42192e-23)
(0.502535 -0.00175267 -1.73515e-20)
(0.497561 0.000252708 -3.18748e-23)
(0.343256 0.0508429 -7.97928e-20)
(0.496992 -0.00416901 -1.54832e-22)
(0.49768 -0.00231035 0)
(0.490822 -0.0443844 -2.56268e-21)
(0.494918 -0.0105014 -1.37952e-21)
(0.504606 0.000615014 0)
(0.500012 0.000128621 0)
(0.507035 -0.00909744 1.96185e-20)
(0.493873 0.0508307 5.2266e-21)
(0.501058 0.00199979 0)
(0.500094 -0.000301667 -4.63775e-23)
(0.504713 0.00345567 -1.48026e-22)
(0.498026 0.00397573 6.99147e-20)
(0.608326 0.00938444 4.52377e-20)
(0.451301 -0.000363327 6.19395e-21)
(0.500717 0.00244603 0)
(0.502623 -0.00203938 -6.242e-21)
(0.507105 0.00376901 1.47121e-20)
(0.564791 -0.0634389 -1.96945e-20)
(0.509963 0.00141679 0)
(0.493948 0.000755808 -1.09218e-23)
(0.500052 -0.00124169 0)
(0.499451 -0.00129581 -1.44701e-23)
(0.496746 0.00299542 -3.89659e-23)
(0.500788 0.00180534 0)
(0.497692 -0.00228405 6.51163e-22)
(0.496468 -0.00331281 -6.74714e-21)
(0.507982 -0.0398048 0)
(0.502233 -0.00194433 -5.84566e-24)
(0.492115 -0.00177791 2.94756e-20)
(0.498325 -0.00384191 4.89139e-22)
(0.500014 5.69674e-07 6.12247e-20)
(0.480799 -0.00145194 -2.54252e-21)
(0.561886 -0.106964 0)
(0.608132 -0.0101235 0)
(0.500086 -0.000638766 1.92102e-23)
(0.506425 -0.00164484 0)
(0.325006 -0.00450273 0)
(0.504182 0.000684352 3.1919e-23)
(0.307378 0.144647 7.41813e-20)
(0.507815 -0.0103668 5.64893e-22)
(0.494663 0.00184433 0)
(0.525644 0.00895538 -4.00943e-21)
(0.49921 -0.00031217 -1.19222e-23)
(0.522495 0.015307 0)
(0.607792 -0.0129566 0)
(0.497896 2.22798e-05 -5.76695e-24)
(0.505723 -0.00408236 0)
(0.51204 0.00934818 1.78936e-22)
(0.497804 -0.00352034 -1.60096e-21)
(0.496381 0.0323746 1.19701e-20)
(0.509585 -0.00173282 0)
(0.504777 0.00137378 -1.42934e-20)
(0.491749 -0.0018393 -6.24985e-21)
(0.405894 0.12155 -1.05607e-19)
(0.502778 0.114879 1.73197e-21)
(0.495793 -0.00328724 0)
(0.499328 0.00330816 0)
(0.50107 -0.000367827 0)
(0.498534 0.00117521 -8.12213e-24)
(0.483897 -0.00223555 -1.148e-21)
(0.499715 -0.000923033 -2.04621e-23)
(0.490675 0.00351298 4.99054e-21)
(0.510781 0.00448601 -2.38555e-21)