/*--------------------------------*- C++ -*----------------------------------*\
  =========                 |
  \\      /  F ield         | OpenFOAM: The Open Source CFD Toolbox
   \\    /   O peration     | Website:  https://openfoam.org
    \\  /    A nd           | Version:  9
     \\/     M anipulation  |
\*---------------------------------------------------------------------------*/
FoamFile
{
    format      ascii;
    class       surfaceScalarField;
    location    "0.55";
    object      alphaPhi0.water;
}
// * * * * * * * * * * * * * * * * * * * * * * * * * * * * * * * * * * * * * //

dimensions      [0 3 -1 0 0 0 0];

internalField   nonuniform List<scalar> 
4432
(
1.61281e-11
-1.59798e-11
2.12903e-14
1.41431e-12
4.61707e-18
2.12981e-14
6.06139e-19
-9.14354e-18
9.34053e-21
-2.82031e-19
-1.4679e-22
-1.59573e-21
-6.46076e-24
4.90296e-24
1.92573e-26
9.87769e-27
1.6463e-26
2.13299e-26
4.46311e-27
1.68931e-26
-4.3934e-29
5.84926e-27
-3.43111e-30
-5.82061e-29
1.61632e-29
-1.43833e-29
3.1517e-29
-8.4898e-30
3.87296e-29
-4.57332e-30
4.15778e-29
-2.45336e-30
4.24959e-29
-1.34537e-30
4.2494e-29
-7.83267e-31
4.1591e-29
-3.32979e-31
3.84288e-29
2.0961e-30
2.59586e-29
1.12991e-29
8.82181e-30
1.54043e-29
6.16546e-30
1.76372e-12
-1.75952e-11
-2.09236e-14
1.62639e-13
6.30756e-18
3.68536e-16
3.68198e-19
-7.63438e-18
3.00236e-21
-1.9904e-19
-8.40221e-23
-7.16863e-22
2.19094e-25
2.54916e-24
2.0636e-25
5.64197e-26
1.01754e-25
1.01719e-25
2.32557e-26
6.7114e-26
-1.46664e-28
1.85998e-26
-1.28963e-29
-8.77017e-29
-2.85097e-30
-4.14904e-30
1.38435e-30
-6.62765e-31
1.9971e-30
-1.72405e-31
1.75837e-30
-4.61368e-32
1.49845e-30
-2.18892e-32
1.34471e-30
-2.59211e-32
1.34716e-30
-1.9601e-32
3.43129e-30
3.58312e-32
1.25057e-29
1.76497e-30
1.03624e-29
1.59764e-29
1.41502e-29
-1.58748e-13
-3.52436e-12
-3.50202e-16
4.21992e-15
4.28943e-18
1.40516e-17
1.83948e-19
-5.17059e-18
8.01434e-22
-1.17997e-19
-1.77012e-23
-2.50722e-22
9.47411e-25
1.73545e-24
6.61791e-25
1.26099e-25
2.7004e-25
2.33182e-25
5.12509e-26
1.31882e-25
-1.67431e-28
2.99387e-26
-5.65111e-30
-9.07255e-29
-4.49114e-31
-1.02671e-30
-4.42249e-32
-8.99144e-32
3.38423e-33
-1.57116e-32
1.36049e-32
-1.41001e-32
1.8805e-32
-4.36202e-32
3.80395e-32
-6.51242e-32
4.93034e-32
-5.68372e-32
5.15647e-32
-3.72331e-33
1.52956e-30
1.65517e-31
6.11266e-30
1.03931e-29
1.80342e-29
-4.04206e-15
8.00302e-21
1.72491e-17
1.60609e-16
2.63546e-18
-3.53438e-17
9.22933e-20
-3.32548e-18
1.45186e-22
-6.76616e-20
1.31468e-24
-5.58595e-23
2.31908e-24
-1.88627e-25
1.34435e-24
1.40187e-25
4.59313e-25
3.42438e-25
7.26389e-26
1.71458e-25
-1.38924e-28
3.25754e-26
-1.5361e-30
-7.536e-29
-8.8133e-32
-2.53065e-31
-7.55769e-33
-3.19568e-32
-4.69121e-33
-1.24132e-32
-4.36295e-33
-3.07148e-32
7.82745e-33
-1.29748e-31
6.11174e-32
-3.22515e-31
9.95289e-32
-2.87093e-31
4.83302e-32
-1.9553e-32
7.2063e-32
1.04868e-31
2.64267e-30
7.10328e-30
1.86072e-29
3.59697e-17
-4.65184e-19
1.65778e-17
-1.10592e-16
1.60096e-18
-3.41188e-17
4.60403e-20
-2.14381e-18
-4.71257e-22
-3.77405e-20
5.31196e-24
2.14775e-22
4.06989e-24
-1.0353e-24
2.0025e-24
1.59794e-26
5.79973e-25
3.59767e-25
7.70563e-26
1.66014e-25
-1.3336e-28
2.70852e-26
-4.93714e-31
-8.74561e-29
-3.7304e-32
-1.40728e-31
-9.54497e-33
-1.84783e-32
-1.26623e-32
-1.33127e-32
-3.7448e-32
-5.52319e-32
-1.23833e-31
-2.95804e-31
-1.3117e-31
-7.3018e-31
-4.30372e-32
-7.11838e-31
-8.71896e-34
-1.16498e-31
5.71415e-33
7.40212e-32
4.82523e-31
6.04249e-30
1.7125e-29
7.8375e-17
-2.17155e-18
1.27236e-17
-2.62864e-16
9.94836e-19
-2.74752e-17
2.14132e-20
-1.42485e-18
-9.07043e-22
-1.94091e-20
-7.74816e-24
4.79064e-22
5.551e-24
1.95005e-24
2.36917e-24
-2.27314e-25
5.87176e-25
2.7867e-25
6.63755e-26
1.2662e-25
-1.74097e-28
1.83604e-26
-3.95614e-31
-1.17708e-28
-2.21177e-32
-3.25974e-31
-1.26657e-32
-1.25039e-32
-2.24949e-32
-1.27887e-32
-1.0419e-31
-7.19884e-32
-4.11232e-31
-3.50799e-31
-8.0391e-31
-9.53012e-31
-6.93612e-31
-1.34072e-30
-3.52213e-31
-4.90193e-31
-8.48231e-31
6.29976e-31
-1.60758e-30
6.11432e-30
1.361e-29
1.14116e-16
-1.19534e-17
9.82923e-18
-4.28035e-16
6.45941e-19
-2.27489e-17
8.89834e-21
-9.95123e-19
-8.63443e-22
-8.8683e-21
4.39268e-24
4.70035e-22
6.12537e-24
-1.37711e-24
2.32313e-24
-5.67372e-25
4.97699e-25
1.49917e-25
4.87671e-26
7.78784e-26
-2.38279e-28
1.05677e-26
-5.32856e-31
-1.1053e-28
-1.53353e-32
-3.26725e-31
-1.31833e-32
-8.18089e-33
-2.50559e-32
-9.89774e-33
-1.57132e-31
-5.42609e-32
-6.3288e-31
-2.65671e-31
-1.50332e-30
-8.4021e-31
-2.24404e-30
-1.41043e-30
-2.33651e-30
-9.82078e-31
-3.0335e-30
1.19453e-30
-3.23542e-30
5.20572e-30
8.57552e-30
1.62162e-16
-1.57403e-16
8.01512e-18
-6.8743e-16
4.44358e-19
-2.01002e-17
3.2318e-21
-7.39156e-19
-3.9373e-22
-3.53015e-21
8.29019e-24
1.57422e-22
5.66528e-24
-3.15112e-24
1.91763e-24
-8.52719e-25
3.62557e-25
3.73614e-26
3.16936e-26
3.86336e-26
-2.51485e-28
5.31085e-27
-1.14274e-30
-9.91098e-29
-1.19988e-32
-1.4783e-31
-1.13435e-32
-5.28622e-33
-2.09289e-32
-7.65247e-33
-1.13733e-31
-3.65179e-32
-5.10755e-31
-1.49498e-31
-1.68791e-30
-4.10718e-31
-3.58775e-30
-7.16063e-31
-5.14676e-30
-5.99556e-31
-5.49545e-30
4.28039e-31
-4.2535e-30
2.68303e-30
2.66489e-30
4.86589e-49
-4.75335e-47
-5.56057e-47
9.0453e-48
-4.80133e-45
1.35527e-45
-2.32145e-43
3.93827e-44
-6.11647e-42
6.31068e-43
-1.16606e-40
6.74754e-42
-1.94754e-39
4.63542e-41
-3.32953e-38
-1.38492e-40
-4.3674e-37
-2.62309e-38
-4.20481e-36
-4.74885e-37
-3.1562e-35
-5.39459e-36
-1.95049e-34
-6.55667e-35
-9.36784e-34
-8.20716e-34
-3.25128e-33
-6.17722e-33
-5.49077e-33
-3.23589e-32
-1.46433e-33
-7.88849e-32
-2.22151e-35
-5.21128e-33
3.9721e-37
-6.39463e-35
2.86485e-38
-8.65676e-47
-3.74092e-47
-2.72811e-44
2.67209e-44
-1.67682e-42
1.3715e-42
-5.1862e-41
2.71644e-41
-1.07573e-39
3.4491e-40
-1.79307e-38
3.14472e-39
-2.77829e-37
1.8261e-38
-4.30366e-36
-6.52912e-38
-5.31305e-35
-4.92e-36
-4.98673e-34
-8.48736e-35
-3.6409e-33
-9.35273e-34
-2.06759e-32
-7.53097e-33
-9.01989e-32
-4.52698e-32
-2.81354e-31
-1.97035e-31
-4.56905e-31
-5.64327e-31
-2.39212e-31
-8.74765e-31
-1.23955e-32
-4.90702e-31
-1.27418e-40
-2.76552e-32
4.0687e-40
-3.0948e-44
1.77907e-44
-4.51917e-42
4.21111e-42
-1.56257e-40
1.38775e-40
-3.49796e-39
2.34476e-39
-6.77168e-38
2.80636e-38
-1.09717e-36
2.48066e-37
-1.67463e-35
1.37152e-36
-2.50869e-34
-6.33432e-36
-3.00428e-33
-3.76657e-34
-2.75455e-32
-6.26587e-33
-1.97049e-31
-6.73209e-32
-1.10177e-30
-5.2956e-31
-4.7585e-30
-3.12533e-30
-1.52866e-29
-1.35031e-29
-2.75833e-29
-3.9291e-29
-1.70855e-29
-6.41905e-29
-1.88643e-30
-4.36436e-29
-1.19649e-35
-4.21425e-30
-3.34543e-35
-4.91358e-42
4.40279e-42
-3.58646e-40
3.26556e-40
-9.27001e-39
8.09277e-39
-1.56541e-37
1.20475e-37
-2.85419e-36
1.37691e-36
-4.48521e-35
1.18463e-35
-6.72985e-34
6.25492e-35
-9.78606e-33
-3.55781e-34
-1.13738e-31
-1.7855e-32
-1.01667e-30
-2.85788e-31
-7.11388e-30
-2.98613e-30
-3.91033e-29
-2.29321e-29
-1.67079e-28
-1.32945e-28
-5.44837e-28
-5.71207e-28
-1.08961e-27
-1.69619e-27
-7.4484e-28
-2.90776e-27
-1.43372e-28
-2.33302e-27
-1.30337e-32
-3.50765e-28
-5.07566e-32
-4.88887e-40
4.54507e-40
-1.93443e-38
1.73872e-38
-3.98274e-37
3.42811e-37
-5.84587e-36
4.58697e-36
-9.39341e-35
4.94385e-35
-1.42315e-33
4.11236e-34
-2.08899e-32
2.04546e-33
-2.93565e-31
-1.43891e-32
-3.29338e-30
-6.16353e-31
-2.85447e-29
-9.44039e-30
-1.94578e-28
-9.56712e-29
-1.0487e-27
-7.18048e-28
-4.43008e-27
-4.10784e-27
-1.45822e-26
-1.76273e-26
-3.14463e-26
-5.3098e-26
-2.35135e-26
-9.59866e-26
-6.87867e-27
-8.81615e-26
-2.59367e-30
-1.95051e-26
-1.31531e-29
-3.24423e-38
3.06724e-38
-8.15915e-37
7.26563e-37
-1.37376e-35
1.16619e-35
-1.82014e-34
1.41085e-34
-2.60041e-33
1.42559e-33
-3.77508e-32
1.13578e-32
-5.39151e-31
5.20913e-32
-7.27308e-30
-4.69745e-31
-7.81888e-29
-1.77868e-29
-6.53009e-28
-2.67798e-28
-4.31774e-27
-2.71836e-27
-2.27825e-26
-2.07893e-26
-9.53815e-26
-1.24225e-25
-3.11065e-25
-5.61557e-25
-6.86905e-25
-1.68977e-24
-6.25394e-25
-3.06524e-24
-2.36139e-25
-3.04595e-24
-2.32364e-28
-1.21767e-24
-1.6576e-27
-1.68268e-36
1.64395e-36
-2.9022e-35
2.55282e-35
-4.01538e-34
3.35379e-34
-4.81871e-33
3.6777e-33
-6.3254e-32
3.48129e-32
-8.74268e-31
2.63013e-31
-1.21028e-29
1.08004e-30
-1.56138e-28
-1.45495e-29
-1.59788e-27
-4.49316e-28
-1.2766e-26
-6.02048e-27
-8.13047e-26
-5.5194e-26
-4.1596e-25
-3.83451e-25
-1.70267e-24
-2.08291e-24
-5.50757e-24
-8.82988e-24
-1.27567e-23
-2.80507e-23
-1.36393e-23
-5.94921e-23
-6.10784e-24
-7.0748e-23
-1.27608e-26
-2.73107e-23
-1.21952e-25
-7.60735e-35
7.42633e-35
-9.02733e-34
7.77169e-34
-1.02781e-32
8.40725e-33
-1.12094e-31
8.38201e-32
-1.39634e-30
7.43575e-31
-1.84928e-29
5.26633e-30
-2.46011e-28
1.84994e-29
-2.87859e-27
0
-2.65196e-26
0
-1.93773e-25
0
-1.14694e-24
0
-5.51184e-24
0
-2.15325e-23
0
-6.88093e-23
-3.76375e-24
-1.67842e-22
-5.5041e-23
-2.17582e-22
-2.6938e-22
-1.07318e-22
-4.96625e-22
-4.44598e-25
-1.73479e-22
-1.76832e-24
8.14139e-16
-2.14409e-15
1.36445e-17
-2.16584e-15
5.35112e-19
-1.95906e-17
-1.18884e-21
-5.01701e-19
-1.10731e-22
4.01961e-21
1.58849e-23
1.7386e-24
9.14024e-24
-4.09642e-24
2.8727e-24
-1.2789e-24
5.1263e-25
-1.4032e-25
4.18464e-26
3.09083e-27
-4.65338e-28
8.20985e-28
-1.14035e-30
-4.06468e-29
-2.46046e-32
-7.21542e-32
-2.08315e-32
-5.34538e-33
-3.61091e-32
-4.7132e-34
-1.65234e-31
-2.31147e-34
-5.94561e-31
-6.3062e-34
-1.62726e-30
-2.34633e-33
-3.19642e-30
-4.16874e-33
-4.5193e-30
-4.33128e-33
-4.60082e-30
-1.60359e-33
-2.4135e-30
3.21791e-32
2.58963e-32
-2.0753e-35
1.34275e-15
-5.75576e-15
1.26354e-17
-4.39319e-15
3.09289e-19
-2.12918e-17
-1.19118e-20
-3.34564e-19
-9.58355e-24
1.43211e-20
5.06505e-24
1.27255e-24
2.65643e-24
-1.69099e-24
7.71313e-25
-5.58134e-25
1.51438e-25
-8.96844e-26
1.16157e-26
-6.67246e-27
-2.42126e-28
-2.11301e-30
-9.8867e-31
-1.16221e-30
-6.79376e-32
-1.19862e-31
-4.3452e-33
-1.31779e-32
-9.62515e-34
-9.73459e-34
-1.13019e-33
-7.81156e-35
-4.24254e-33
-3.44994e-36
-1.26861e-32
-3.15372e-36
-2.48736e-32
-5.15739e-36
-3.74639e-32
-8.35714e-36
-4.68197e-32
1.21516e-35
-2.05665e-32
2.36653e-34
1.35464e-33
-2.47363e-33
1.82229e-15
-1.03711e-14
1.24992e-17
-7.03613e-15
1.25997e-19
-2.41092e-17
-4.26472e-20
-1.54382e-19
-3.00514e-23
3.56016e-20
-1.68149e-24
1.60816e-23
2.22949e-25
1.09549e-24
6.13968e-26
-6.24524e-26
2.29577e-27
-1.12274e-26
-1.98527e-28
-2.50022e-28
-4.24118e-29
2.75371e-29
-5.62924e-30
2.36567e-31
-4.85114e-31
-1.25786e-31
-3.23093e-32
-1.98333e-32
-1.37518e-33
-1.66186e-33
-3.37628e-35
-7.79181e-35
-3.73859e-35
-4.32407e-36
-8.54011e-35
-4.20701e-36
-1.34624e-34
-2.05373e-36
-4.01364e-34
1.05932e-36
-1.41664e-33
3.24291e-35
-8.29579e-33
2.89043e-34
4.47091e-33
-8.1415e-32
2.22756e-15
-1.51908e-14
1.28192e-17
-9.76871e-15
1.85491e-20
-2.76271e-17
-5.85388e-20
-2.52928e-20
-3.19198e-22
5.50342e-20
-7.42239e-24
2.14452e-22
-2.31661e-25
2.17932e-24
-7.97965e-27
6.31293e-26
-4.07071e-27
4.672e-27
-9.94545e-28
7.30655e-28
-1.39777e-28
8.07898e-29
-1.4213e-29
6.34697e-30
-1.09487e-30
3.05368e-31
-7.1589e-32
7.43599e-33
-3.41717e-33
-1.33022e-34
-9.95887e-35
-1.87185e-35
-7.13125e-35
-9.37277e-37
-1.62263e-34
-5.08434e-37
-9.35103e-34
9.25932e-36
-5.92608e-33
1.73603e-34
-3.48756e-32
1.95636e-33
-2.6167e-31
1.78927e-32
1.82852e-31
-2.75625e-30
2.56554e-15
-1.94845e-14
1.34015e-17
-1.23554e-14
-3.36762e-20
-3.15697e-17
-5.89951e-20
6.6461e-20
-3.87355e-22
5.79056e-20
-9.80111e-24
1.11046e-22
-3.8517e-25
3.14123e-24
-4.06373e-26
1.09914e-25
-8.80724e-27
1.10061e-26
-1.54622e-27
1.44618e-27
-1.98743e-28
1.45633e-28
-1.847e-29
1.29193e-29
-1.35183e-30
8.18262e-31
-8.68496e-32
4.048e-32
-4.23816e-33
1.76982e-33
-4.56231e-34
7.76023e-35
-7.10604e-34
1.98148e-35
-4.2547e-33
1.1857e-34
-2.72792e-32
9.91207e-34
-1.67413e-31
8.20237e-33
-9.76223e-31
6.57587e-32
-7.26256e-30
5.07694e-31
4.65002e-30
-7.50098e-29
2.85929e-15
-2.27764e-14
1.41649e-17
-1.46712e-14
-1.09033e-19
-3.57607e-17
-5.19821e-20
1.65336e-19
-2.52445e-22
2.19308e-20
-1.288e-23
1.08279e-22
-8.2406e-25
5.04798e-24
-1.1444e-25
3.15992e-25
-1.42986e-26
3.60081e-26
-1.57903e-27
2.83415e-27
-1.75218e-28
1.88255e-28
-1.5792e-29
1.3596e-29
-1.09237e-30
8.76038e-31
-6.74345e-32
4.33882e-32
-3.7688e-33
2.61059e-33
-4.30949e-33
2.9976e-34
-1.48592e-32
7.97956e-34
-9.78247e-32
5.23599e-33
-6.10669e-31
3.44218e-32
-3.70568e-30
2.34313e-31
-2.1515e-29
1.61214e-30
-1.58879e-28
1.114e-29
9.2945e-29
-1.60449e-27
3.14164e-15
-2.45469e-14
1.50272e-17
-1.66849e-14
-2.06353e-19
-3.99445e-17
-2.2116e-20
3.97625e-19
-2.84902e-22
1.16785e-20
-2.67239e-23
1.49203e-22
-3.8295e-24
1.50413e-23
-5.31977e-25
1.95628e-24
-4.32318e-26
2.0577e-25
-2.46027e-27
1.20701e-26
-9.76899e-29
4.35653e-28
-2.46985e-30
1.0481e-29
-9.31202e-32
1.44777e-31
-1.22899e-32
6.90489e-33
-2.72065e-32
1.20829e-33
-4.0426e-32
3.47895e-33
-2.75637e-31
2.1915e-32
-1.76463e-30
1.31301e-31
-1.08852e-29
7.90876e-31
-6.54881e-29
4.88373e-30
-3.79111e-28
3.05888e-29
-2.77946e-27
1.9477e-28
1.49681e-27
-2.73655e-26
3.44741e-15
-2.45383e-14
1.58164e-17
-1.84224e-14
-4.57573e-19
-4.3634e-17
-1.89748e-20
1.05029e-18
-4.97685e-22
1.28364e-20
-9.82152e-23
3.8228e-22
-1.98037e-23
7.49515e-23
-2.71027e-24
1.21928e-23
-2.50727e-25
1.28629e-24
-1.62074e-26
9.44317e-26
-5.51195e-28
4.84155e-27
-1.68734e-30
1.27045e-28
-7.5765e-32
1.76552e-31
-5.70202e-32
1.25176e-32
-1.13257e-31
1.72656e-32
-6.45441e-31
7.81302e-32
-4.08245e-30
4.17963e-31
-2.56151e-29
2.35453e-30
-1.56819e-28
1.3525e-29
-9.36888e-28
7.86559e-29
-5.41184e-27
4.62135e-28
-3.93999e-26
2.76544e-27
1.98007e-26
-3.77898e-25
3.78463e-15
-2.25106e-14
1.8919e-17
-1.99354e-14
-1.0052e-18
-5.38682e-17
-2.44035e-20
2.44386e-18
-1.6212e-21
2.13684e-20
-6.39872e-22
1.84478e-21
-2.11238e-22
6.63048e-22
-5.68658e-23
1.70292e-22
-1.21503e-23
3.63928e-23
-1.77242e-24
6.09183e-24
-1.56768e-25
6.9146e-25
-6.60508e-27
4.79271e-26
-8.02493e-30
1.59381e-27
-1.71223e-30
1.87218e-30
-2.32975e-30
5.40419e-31
-8.93187e-30
1.44461e-30
-4.95147e-29
6.17802e-30
-3.03886e-28
3.25489e-29
-1.84936e-27
1.8079e-28
-1.09863e-26
1.00989e-27
-6.33602e-26
5.6692e-27
-4.58164e-25
3.23719e-26
2.18583e-25
-4.28117e-24
4.00723e-15
-1.60593e-14
2.89624e-17
-2.13365e-14
-1.82168e-18
-8.65038e-17
-4.59771e-20
4.40786e-18
-1.20934e-20
6.0141e-20
-8.61831e-21
1.9858e-20
-4.21976e-21
1.17088e-20
-1.67574e-21
4.07804e-21
-4.96057e-22
1.25845e-21
-1.02787e-22
2.86397e-22
-1.51196e-23
4.64013e-23
-1.48339e-24
5.41627e-24
-8.06935e-26
4.24537e-25
-1.39502e-27
1.85878e-26
-1.31242e-28
2.85189e-28
-1.72617e-28
4.01736e-29
-5.72432e-28
9.66228e-29
-2.99956e-27
3.7375e-28
-1.80191e-26
1.94085e-27
-1.06705e-25
1.05412e-26
-6.14954e-25
5.72969e-26
-4.41962e-24
3.16218e-25
2.03971e-24
-4.02483e-23
3.69336e-15
-7.93119e-15
4.76098e-17
-2.28918e-14
-2.52973e-18
-1.57309e-16
-1.18062e-19
6.21813e-18
-8.69461e-20
2.49071e-19
-8.19057e-20
1.77376e-19
-4.34624e-20
1.29227e-19
-1.86053e-20
4.46708e-20
-6.53508e-21
1.51956e-20
-1.70372e-21
4.18266e-21
-3.36347e-22
8.64235e-22
-4.92592e-23
1.37303e-22
-4.94405e-24
1.62662e-23
-2.90737e-25
1.32494e-24
-1.46533e-26
6.53337e-26
-1.22753e-26
4.70197e-27
-1.42089e-26
3.59156e-27
-3.25033e-26
5.74067e-27
-1.48623e-25
1.77832e-26
-8.67721e-25
9.07679e-26
-5.01248e-24
4.84075e-25
-3.58482e-23
2.61192e-24
1.63102e-23
-3.18743e-22
2.77402e-15
8.59677e-07
6.86046e-17
-2.46226e-14
-2.93719e-18
-2.72078e-16
-3.60597e-19
7.96811e-18
-4.37928e-19
1.08977e-18
-4.80584e-19
1.06403e-18
-2.70325e-19
8.25713e-19
-1.23688e-19
2.97328e-19
-5.17517e-20
1.11196e-19
-1.75079e-20
3.74697e-20
-4.94042e-21
1.02148e-20
-1.16892e-21
2.35061e-21
-2.20741e-22
4.53079e-22
-3.11025e-23
6.94632e-23
-3.20551e-24
7.99414e-24
-4.44173e-25
7.16113e-25
-2.91826e-25
1.18622e-25
-3.425e-25
7.63039e-26
-1.08287e-24
1.4709e-25
-5.9783e-24
6.58186e-25
-3.45869e-23
3.44819e-24
-2.46449e-22
1.83596e-23
1.12287e-22
-2.14129e-21
2.06693e-15
1.59601e-06
8.49809e-17
-2.58327e-14
-3.33952e-18
-4.20374e-16
-1.2256e-18
1.07315e-17
-1.79265e-18
4.08793e-18
-2.00419e-18
4.63521e-18
-1.21818e-18
3.71127e-18
-6.40132e-19
1.48013e-18
-3.31229e-19
6.53271e-19
-1.43477e-19
2.74474e-19
-5.19961e-20
9.47872e-20
-1.56568e-20
2.75749e-20
-3.78142e-21
6.67176e-21
-7.18752e-22
1.30061e-21
-1.08193e-22
2.01829e-22
-1.41802e-23
2.53174e-23
-2.75385e-24
3.01608e-24
-2.92827e-24
7.75517e-25
-6.57117e-24
9.60341e-25
-3.53607e-23
4.08981e-24
-2.03803e-22
2.09308e-23
-1.44673e-21
1.10483e-22
6.67974e-22
-1.22859e-20
1.66539e-15
1.67718e-06
9.53312e-17
-2.60894e-14
-4.2454e-18
-5.76919e-16
-3.60488e-18
1.68816e-17
-5.83425e-18
1.33288e-17
-6.62018e-18
1.61505e-17
-4.49917e-18
1.33234e-17
-2.81682e-18
6.18841e-18
-1.7071e-18
3.2508e-18
-8.26586e-19
1.5577e-18
-3.23566e-19
5.83654e-19
-1.0538e-19
1.81244e-19
-2.8437e-20
4.75352e-20
-6.36067e-21
1.04397e-20
-1.17957e-21
1.91776e-21
-1.83755e-22
2.94884e-22
-3.14423e-23
4.00879e-23
-2.31465e-23
8.30666e-24
-3.77147e-23
6.48553e-24
-1.82189e-22
2.23139e-23
-1.03767e-21
1.09722e-22
-7.32857e-21
5.74245e-22
3.452e-21
-6.07966e-20
1.33319e-15
1.74233e-06
9.90876e-17
-2.54297e-14
-5.99565e-18
-7.11785e-16
-8.60091e-18
3.00817e-17
-1.60153e-17
4.03344e-17
-1.84632e-17
4.77042e-17
-1.46375e-17
4.13994e-17
-1.0628e-17
2.28681e-17
-6.90516e-18
1.35241e-17
-3.38999e-18
6.68248e-18
-1.37351e-18
2.51211e-18
-4.8904e-19
8.20883e-19
-1.51766e-19
2.39584e-19
-4.02623e-20
6.10027e-20
-8.84555e-21
1.32312e-20
-1.59212e-21
2.38027e-21
-3.09297e-22
3.71471e-22
-1.99287e-22
8.36512e-23
-2.46716e-22
5.44861e-23
-8.641e-22
1.19213e-22
-4.61657e-21
5.07586e-22
-3.22227e-20
2.58875e-21
1.54786e-20
-2.59304e-19
1.03472e-15
1.80422e-06
9.58095e-17
-2.40109e-14
-9.97522e-18
-7.98737e-16
-1.95817e-17
5.79141e-17
-3.87648e-17
1.06521e-16
-4.65624e-17
1.26514e-16
-4.35162e-17
1.16281e-16
-3.45001e-17
7.63674e-17
-2.24608e-17
4.70371e-17
-1.09155e-17
2.2737e-17
-4.77708e-18
8.66119e-18
-1.94705e-18
3.14202e-18
-6.98771e-19
1.05565e-18
-2.08947e-19
3.0705e-19
-5.01237e-20
7.37534e-20
-1.03061e-20
1.44974e-20
-2.86489e-21
2.7296e-21
-2.04199e-21
8.72698e-22
-2.20261e-21
6.09001e-22
-4.40234e-21
7.74899e-22
-1.85492e-20
2.22861e-21
-1.23861e-19
1.03518e-20
6.14118e-20
-9.73987e-19
8.05026e-16
1.86245e-06
8.67835e-17
-2.19835e-14
-1.75612e-17
-8.20121e-16
-4.12496e-17
1.14191e-16
-8.38572e-17
2.49476e-16
-1.10455e-16
3.05772e-16
-1.16472e-16
2.9483e-16
-9.5588e-17
2.28472e-16
-6.02463e-17
1.36301e-16
-3.02645e-17
6.45992e-17
-1.47608e-17
2.6406e-17
-6.72974e-18
1.07676e-17
-2.61312e-18
3.98653e-18
-8.22465e-19
1.2369e-18
-2.16194e-19
3.16749e-19
-6.09447e-20
7.26044e-20
-2.95063e-20
2.06111e-20
-2.41551e-20
1.04705e-20
-2.46199e-20
7.81838e-21
-3.05742e-20
7.15915e-21
-7.74392e-20
1.13292e-20
-4.47629e-19
4.03905e-20
2.33147e-19
-3.50029e-18
6.42007e-16
1.91772e-06
7.33511e-17
-1.94825e-14
-3.09337e-17
-7.67928e-16
-7.94275e-17
2.18919e-16
-1.67845e-16
5.28151e-16
-2.36188e-16
6.70984e-16
-2.63581e-16
6.73058e-16
-2.27939e-16
5.87987e-16
-1.39516e-16
3.43006e-16
-7.57613e-17
1.62542e-16
-4.08685e-17
7.38823e-17
-1.98679e-17
3.31142e-17
-8.14048e-18
1.30536e-17
-2.94018e-18
4.44123e-18
-1.11181e-18
1.41309e-18
-5.69484e-19
5.09505e-19
-4.0725e-19
2.52085e-19
-3.36516e-19
1.6069e-19
-2.96182e-19
1.13629e-19
-3.03177e-19
8.66113e-20
-4.1957e-19
8.31477e-20
-1.62939e-18
1.72755e-19
8.66212e-19
-1.25152e-17
5.34949e-16
1.97125e-06
5.64833e-17
-1.66046e-14
-5.25356e-17
-6.4237e-16
-1.4027e-16
3.95966e-16
-3.06876e-16
1.01825e-15
-4.5739e-16
1.34638e-15
-5.27347e-16
1.4186e-15
-4.81476e-16
1.2984e-15
-2.95545e-16
7.93315e-16
-1.75771e-16
3.85058e-16
-1.03724e-16
1.95427e-16
-5.52554e-17
9.68557e-17
-2.88413e-17
4.46039e-17
-1.76651e-17
2.17856e-17
-1.30535e-17
1.26513e-17
-1.0341e-17
8.28667e-18
-8.02638e-18
5.45499e-18
-5.98971e-18
3.41992e-18
-4.39593e-18
2.08343e-18
-3.50176e-18
1.30748e-18
-3.60736e-18
9.40382e-19
-6.22067e-18
9.61311e-19
2.78792e-18
-3.69874e-17
4.46552e-16
2.0213e-06
3.73415e-17
-1.34107e-14
-8.47459e-17
-4.51839e-16
-2.28574e-16
6.65206e-16
-5.19975e-16
1.81135e-15
-8.16691e-16
2.52709e-15
-9.9189e-16
2.8234e-15
-9.45306e-16
2.66396e-15
-6.00597e-16
1.77635e-15
-3.90966e-16
9.00307e-16
-2.54416e-16
5.12002e-16
-1.67709e-16
2.98001e-16
-1.45997e-16
1.94464e-16
-1.5321e-16
1.62447e-16
-1.66563e-16
1.49795e-16
-1.61559e-16
1.3406e-16
-1.27531e-16
9.80963e-17
-9.3291e-17
6.00848e-17
-6.57973e-17
3.55025e-17
-4.50816e-17
2.055e-17
-3.39325e-17
1.22387e-17
-3.49807e-17
8.64663e-18
8.89724e-18
-7.57802e-17
3.40355e-16
6.08477e-07
1.8183e-17
-9.85951e-15
-1.27377e-16
-2.26612e-16
-3.40795e-16
1.00749e-15
-8.31584e-16
3.00039e-15
-1.41627e-15
4.5897e-15
-1.82247e-15
5.56863e-15
-1.82105e-15
5.46982e-15
-1.19435e-15
4.01379e-15
-8.28445e-16
2.11715e-15
-6.31009e-16
1.35339e-15
-5.98476e-16
9.89757e-16
-6.72258e-16
8.54934e-16
-9.52028e-16
9.49701e-16
-1.19587e-15
1.10213e-15
-1.24146e-15
1.06939e-15
-1.09291e-15
9.18507e-16
-8.10536e-16
5.83672e-16
-5.96564e-16
3.52101e-16
-4.27949e-16
2.12983e-16
-2.99119e-16
1.26975e-16
-2.11652e-16
7.78049e-17
5.46293e-17
-2.16872e-16
1.87767e-16
1.44237e-08
1.2251e-17
-6.25476e-15
-1.71643e-16
-1.53883e-16
-4.56313e-16
1.32807e-15
-1.27195e-15
4.64141e-15
-2.41727e-15
8.19219e-15
-3.27975e-15
1.0904e-14
-3.36026e-15
1.10743e-14
-2.33576e-15
8.74541e-15
-1.83113e-15
5.13817e-15
-1.65775e-15
3.82742e-15
-1.72184e-15
3.17118e-15
-2.21683e-15
2.9562e-15
-3.48278e-15
3.77322e-15
-4.62678e-15
4.69008e-15
-5.10297e-15
4.8137e-15
-4.84473e-15
4.30057e-15
-3.74723e-15
3.0866e-15
-2.87082e-15
1.92011e-15
-2.15528e-15
1.22255e-15
-1.62539e-15
7.66343e-16
-1.19566e-15
4.94249e-16
3.25587e-16
-8.84476e-16
5.12189e-17
1.29119e-08
7.84328e-18
-1.8823e-15
-2.05341e-16
-9.67361e-17
-5.48269e-16
1.54615e-15
-1.87568e-15
6.74146e-15
-3.93446e-15
1.41891e-14
-5.3564e-15
2.01796e-14
-5.44754e-15
2.07472e-14
-4.19119e-15
1.72869e-14
-3.87805e-15
1.24539e-14
-3.75896e-15
1.07245e-14
-3.83665e-15
8.94465e-15
-4.85678e-15
8.03603e-15
-7.91401e-15
9.95922e-15
-1.07536e-14
1.28002e-14
-1.2202e-14
1.36259e-14
-1.22118e-14
1.2521e-14
-9.9967e-15
1.00021e-14
-7.93229e-15
6.51568e-15
-6.13054e-15
4.3283e-15
-4.79781e-15
2.81299e-15
-3.80312e-15
1.88619e-15
1.31958e-15
-2.90648e-15
-1.55405e-09
7.07781e-08
-1.78424e-17
6.17774e-08
-2.02939e-16
1.3377e-17
-5.93418e-16
1.67672e-15
-2.55883e-15
9.09088e-15
-5.68617e-15
2.28209e-14
-7.73968e-15
3.44544e-14
-8.10514e-15
3.73367e-14
-8.20457e-15
3.61553e-14
-9.00859e-15
3.59738e-14
-7.85832e-15
3.5943e-14
-7.32536e-15
2.54214e-14
-7.53277e-15
2.11572e-14
-1.0529e-14
2.01636e-14
-1.4916e-14
2.43269e-14
-1.74375e-14
2.6823e-14
-1.80143e-14
2.53815e-14
-1.62463e-14
2.22976e-14
-1.34477e-14
1.59435e-14
-1.07803e-14
1.09506e-14
-8.49072e-15
7.41998e-15
-6.95625e-15
4.99638e-15
3.56539e-15
-5.79519e-15
-5.28359e-09
1.19075e-07
-1.49706e-16
1.24435e-07
-2.17416e-16
6.37998e-17
-5.73609e-16
1.75557e-15
-2.98207e-15
1.11824e-14
-6.81282e-15
3.28324e-14
-9.4087e-15
5.40175e-14
-1.14408e-14
6.66109e-14
-1.4969e-14
8.03329e-14
-1.97314e-14
9.69265e-14
-1.24925e-14
7.62878e-14
-1.07127e-14
6.42571e-14
-9.74199e-15
5.04713e-14
-9.37074e-15
3.91062e-14
-1.07606e-14
3.35609e-14
-1.19579e-14
3.51603e-14
-1.31012e-14
3.54774e-14
-1.36267e-14
2.99702e-14
-1.18526e-14
2.60385e-14
-1.04278e-14
2.14165e-14
-8.8028e-15
1.58494e-14
-7.26788e-15
1.09558e-14
7.54257e-15
-6.35607e-15
-9.25944e-09
9.38409e-08
-1.81687e-16
1.28265e-07
-1.97037e-16
1.08329e-16
-4.99127e-16
1.79859e-15
-2.95635e-15
1.29592e-14
-6.84129e-15
4.35057e-14
-9.4784e-15
7.61999e-14
-1.14955e-14
9.80059e-14
-1.1799e-14
1.09413e-13
-7.96528e-15
1.11191e-13
-3.05796e-15
1.00287e-13
8.93977e-16
8.26749e-14
2.94379e-15
5.59249e-14
4.14062e-15
3.84172e-14
5.2693e-15
3.2399e-14
7.55637e-15
3.42327e-14
8.13669e-15
3.54935e-14
7.96337e-15
3.38534e-14
6.72665e-15
3.09851e-14
4.73517e-15
2.8272e-14
2.06769e-15
2.30953e-14
1.70472e-17
1.89879e-14
1.45399e-14
-1.14285e-15
-1.06463e-08
8.10189e-08
-6.25004e-17
1.27702e-07
-1.77042e-16
1.30517e-16
-4.18583e-16
1.93638e-15
-2.80241e-15
1.5186e-14
-5.70477e-15
5.55e-14
-5.38594e-15
9.34786e-14
-1.53252e-15
1.03236e-13
4.643e-15
1.0193e-13
1.10532e-14
9.26313e-14
1.7289e-14
9.19534e-14
2.48809e-14
8.05995e-14
2.08415e-14
5.01674e-14
2.03327e-14
4.28332e-14
2.18001e-14
3.28571e-14
2.33421e-14
3.65981e-14
2.45852e-14
3.97274e-14
2.95617e-14
3.9064e-14
3.15518e-14
3.12299e-14
2.94373e-14
2.87558e-14
2.271e-14
2.7784e-14
1.91135e-14
2.71582e-14
2.53729e-14
1.56937e-14
-8.31204e-09
7.44618e-08
-2.48104e-15
1.31786e-07
-2.68478e-16
1.96954e-15
-3.94116e-16
2.16794e-15
-2.16537e-15
1.79487e-14
-2.28668e-15
6.12017e-14
3.14294e-15
9.48095e-14
1.11985e-14
9.52365e-14
1.95322e-14
8.13772e-14
2.51089e-14
8.57676e-14
3.12834e-14
8.58256e-14
3.60274e-14
7.51975e-14
4.06724e-14
4.43677e-14
3.83206e-14
5.30698e-14
3.99039e-14
3.51771e-14
4.21057e-14
4.17644e-14
4.39446e-14
5.05912e-14
4.53576e-14
5.85773e-14
4.75924e-14
5.11019e-14
4.88131e-14
3.19487e-14
4.54523e-14
5.0924e-14
4.11414e-14
4.74808e-14
2.26083e-14
3.82818e-14
-2.36393e-09
6.04261e-08
-1.77619e-15
5.28675e-08
-3.0395e-16
2.5755e-15
-3.89651e-16
2.36867e-15
-1.13189e-15
1.99973e-14
2.72774e-15
6.2957e-14
1.17348e-14
8.66094e-14
2.20924e-14
6.67507e-14
5.74075e-14
4.53171e-14
5.67788e-13
9.31001e-13
9.52389e-13
1.00641e-12
2.98507e-13
7.66339e-13
2.9039e-13
5.18262e-14
1.01565e-11
1.27028e-12
2.05804e-11
8.68635e-12
1.54889e-11
7.7386e-12
8.23534e-12
6.13651e-12
7.57311e-13
2.66952e-12
2.24892e-13
6.01405e-13
2.05929e-13
6.02634e-14
1.25179e-12
3.30892e-13
1.35384e-12
5.24954e-13
5.63736e-13
1.36273e-12
-3.10303e-11
9.77451e-08
-2.17304e-15
1.36414e-08
-3.67972e-16
2.99901e-15
-7.01758e-16
2.71126e-15
1.98684e-16
2.88206e-14
8.48522e-15
6.98441e-14
2.06038e-14
7.52821e-14
2.65374e-14
4.05509e-14
6.92171e-14
1.62758e-14
1.74163e-12
1.15499e-12
2.86221e-12
1.53309e-12
2.33442e-12
1.08139e-12
1.62399e-12
2.04079e-13
1.67261e-11
8.95448e-13
2.40452e-11
4.00399e-12
2.68201e-11
6.94526e-12
2.75629e-11
7.36865e-12
2.24893e-11
6.89458e-12
1.08469e-12
2.71699e-12
6.3983e-13
4.964e-13
6.87421e-13
3.11327e-13
6.51489e-13
4.28792e-13
3.74535e-13
3.66799e-13
-8.27145e-10
4.04326e-06
-3.32785e-15
1.10201e-08
-5.68413e-16
3.48684e-15
-5.81488e-16
3.59092e-15
1.92861e-15
3.08697e-14
1.39161e-14
6.48822e-14
2.55966e-14
6.01827e-14
2.61455e-14
2.98063e-14
4.21736e-14
9.10425e-15
1.22425e-12
3.41551e-14
2.66926e-12
3.22561e-13
2.68088e-12
8.03983e-13
2.35923e-12
5.94096e-13
3.49174e-12
4.72828e-13
9.66847e-12
1.04053e-12
2.16342e-11
1.04662e-12
3.11598e-11
1.90784e-12
1.72212e-11
3.43718e-12
3.85071e-12
2.3423e-12
2.71812e-12
1.39686e-12
1.18688e-12
1.81637e-12
8.24046e-13
6.28023e-13
1.82409e-12
1.06128e-12
-5.90579e-09
4.21247e-05
-1.75109e-15
5.11432e-09
-6.39431e-16
4.13664e-15
-1.73764e-16
5.586e-15
9.10979e-16
3.21191e-14
4.37514e-15
6.42445e-14
9.33744e-15
5.92144e-14
1.36999e-14
2.98254e-14
1.82558e-14
9.19241e-15
4.99476e-14
7.08102e-15
1.37879e-13
1.94964e-13
2.2983e-13
7.33285e-13
2.80674e-13
5.58996e-13
3.58073e-13
4.06805e-13
4.95899e-13
9.34626e-13
8.54604e-13
8.24159e-13
1.9689e-12
1.11761e-12
3.59693e-12
8.35961e-13
5.19597e-12
6.08411e-13
1.29968e-10
6.09233e-12
4.92158e-10
1.84755e-10
3.24245e-10
1.41093e-10
9.82211e-11
5.05956e-11
-3.199e-09
5.82533e-05
-1.79203e-15
1.91532e-09
-4.75614e-16
4.71948e-15
-3.01765e-15
1.05692e-14
8.72402e-13
4.77468e-12
3.82116e-12
9.27014e-12
5.50644e-12
8.14808e-12
8.56971e-13
2.48489e-12
3.38265e-13
2.69899e-13
3.56929e-13
4.44746e-15
1.86637e-09
2.09179e-12
5.1073e-09
5.33656e-11
2.89594e-09
2.06833e-10
4.96546e-10
2.61351e-10
4.96647e-11
2.0193e-10
1.95588e-11
3.16637e-11
1.27688e-11
8.45403e-12
1.05333e-11
3.199e-12
9.83864e-12
8.24465e-13
6.73089e-10
3.99115e-11
9.20777e-10
1.10457e-10
9.35322e-10
1.54263e-10
2.21501e-10
8.34785e-10
-1.22827e-09
6.01139e-05
-6.30448e-14
6.87132e-10
-8.34049e-14
2.65507e-14
1.84709e-13
6.53157e-13
8.15266e-12
2.09306e-11
2.74853e-11
1.27882e-11
3.38451e-11
0
1.97374e-11
0
1.05486e-11
0
3.51781e-11
-2.21847e-11
2.26482e-09
-1.46406e-11
6.96525e-09
-3.3898e-11
5.82631e-09
1.35551e-11
4.16591e-09
1.94751e-10
1.28882e-09
3.45838e-10
7.35265e-11
9.6972e-11
4.72143e-11
2.94579e-11
3.73725e-11
1.03931e-11
3.63931e-11
4.02785e-12
7.07846e-11
2.80362e-12
9.46084e-10
2.01545e-11
9.93679e-10
1.30955e-10
1.83108e-10
1.03365e-09
-2.74766e-08
6.12521e-05
-4.68392e-14
1.94084e-08
-3.70229e-14
1.67345e-14
4.19302e-14
8.17536e-13
9.76373e-11
-7.31694e-11
4.52318e-10
-3.2084e-10
5.52758e-10
-1.30863e-10
5.62452e-10
0
8.424e-10
-2.7472e-10
1.88785e-09
-4.47769e-10
5.7037e-09
-4.69251e-10
6.81048e-09
-3.35494e-10
6.90325e-09
7.45533e-12
5.55655e-09
2.09085e-10
1.2651e-09
1.86372e-10
1.07683e-10
6.56139e-11
4.21191e-11
2.64898e-11
2.04021e-11
1.02668e-11
1.22501e-11
4.58355e-12
2.49183e-11
1.08001e-12
7.32459e-11
0
2.10519e-10
0
0
1.14666e-09
2.27301e-06
5.9846e-05
1.39811e-13
2.43298e-06
-9.60055e-13
-4.81216e-12
8.23453e-10
-8.23596e-10
7.42654e-09
-6.6292e-09
1.0585e-08
-1.77559e-09
1.55722e-08
0
1.48055e-08
-2.66923e-09
1.23768e-08
-8.1894e-11
9.76832e-09
0
7.73583e-09
0
5.74962e-09
0
1.78311e-10
1.03541e-10
2.10049e-10
7.07849e-11
3.34504e-10
4.47064e-11
1.90723e-10
3.52635e-11
1.13856e-11
2.0484e-11
1.43984e-12
8.45834e-12
5.30443e-12
4.37613e-12
1.08336e-11
2.90477e-12
1.30915e-11
2.32819e-12
1.30253e-11
2.38974e-12
7.77089e-12
3.6583e-11
5.04406e-06
5.56348e-05
1.68045e-07
7.90164e-06
3.52329e-08
1.32649e-07
9.02331e-08
-5.47188e-08
1.09767e-07
-2.70122e-08
1.44399e-07
0
1.12407e-07
0
2.364e-08
0
8.54045e-09
1.32401e-09
5.04952e-09
2.45236e-09
1.63858e-09
3.09987e-09
4.62523e-10
1.06862e-09
1.66818e-10
3.57097e-10
8.27027e-11
1.41388e-10
4.9121e-11
7.76068e-11
3.21843e-11
5.6448e-11
1.95057e-11
3.786e-11
1.08632e-11
2.032e-11
5.97837e-12
1.1037e-11
3.42829e-12
6.28307e-12
1.96338e-12
4.0344e-12
1.15696e-12
3.19615e-12
-1.04365e-09
-7.85026e-09
4.56194e-06
4.65657e-05
2.43382e-07
1.34497e-05
4.89296e-07
-1.38409e-08
7.05897e-07
-2.38727e-07
7.27753e-07
0
4.88149e-07
0
2.00303e-07
0
1.38793e-07
-1.79032e-08
1.74502e-07
-4.99508e-08
3.35311e-07
-1.18018e-07
1.34473e-06
-1.71915e-07
4.20769e-06
-7.18036e-07
6.67362e-06
-2.84173e-07
8.80557e-06
8.05696e-07
1.39751e-05
2.07527e-06
3.1615e-05
4.14987e-06
6.96308e-05