/*--------------------------------*- C++ -*----------------------------------*\
  =========                 |
  \\      /  F ield         | OpenFOAM: The Open Source CFD Toolbox
   \\    /   O peration     | Website:  https://openfoam.org
    \\  /    A nd           | Version:  9
     \\/     M anipulation  |
\*---------------------------------------------------------------------------*/
FoamFile
{
    format      ascii;
    class       volScalarField;
    location    "0.55";
    object      epsilon;
}
// * * * * * * * * * * * * * * * * * * * * * * * * * * * * * * * * * * * * * //

dimensions      [0 2 -3 0 0 0 0];

internalField   nonuniform List<scalar> 
2268
(
0.031342
0.0963809
0.178193
0.259059
0.327855
0.39236
0.453048
0.51054
0.565078
0.616099
0.662527
0.702873
0.735196
0.756705
0.762563
0.753828
0.725385
0.671103
0.590901
0.487094
0.371366
0.26684
0.199858
0.0397427
0.0637501
0.0985881
0.134006
0.165131
0.191825
0.216205
0.239166
0.261015
0.2817
0.300967
0.318437
0.333634
0.345945
0.354612
0.361406
0.365594
0.365209
0.358453
0.341257
0.30614
0.237629
0.233622
0.0489988
0.0591651
0.0861045
0.112781
0.135381
0.154742
0.172137
0.188354
0.203751
0.21842
0.232294
0.245234
0.257071
0.26763
0.276837
0.285623
0.294222
0.30219
0.308611
0.310185
0.299922
0.270493
0.353954
0.0519445
0.0605217
0.0834302
0.105561
0.12455
0.140921
0.155586
0.169186
0.182067
0.194377
0.206142
0.217334
0.227917
0.237893
0.247394
0.257071
0.267333
0.278208
0.289132
0.29782
0.300528
0.304642
0.495791
0.0563349
0.0644145
0.0842956
0.103427
0.120167
0.13486
0.148109
0.160384
0.171989
0.183104
0.193816
0.204165
0.214194
0.223992
0.233761
0.244024
0.255204
0.267497
0.280601
0.293352
0.305825
0.339109
0.642035
0.0604295
0.0702737
0.0876897
0.104298
0.119308
0.132849
0.145198
0.156654
0.167481
0.177882
0.18799
0.197894
0.207684
0.217492
0.227543
0.238281
0.250107
0.263304
0.277845
0.293722
0.314668
0.374493
0.809946
0.0641639
0.0786919
0.0935442
0.107656
0.121135
0.133705
0.145309
0.156105
0.166332
0.176216
0.185922
0.195571
0.20528
0.215203
0.225564
0.236751
0.249144
0.263091
0.278855
0.297482
0.325861
0.409782
0.993361
0.0737591
0.0912823
0.102108
0.113499
0.125445
0.136988
0.147773
0.15787
0.16751
0.17693
0.186316
0.195802
0.205517
0.215616
0.226324
0.237983
0.250965
0.265672
0.282629
0.303693
0.337827
0.44102
1.31304
0.636233
1.09177
1.85841
3.4708
6.17173
9.55607
13.4808
17.8253
22.6082
27.9632
34.0359
40.7599
47.54
52.8508
53.8134
47.0026
34.8999
21.5174
7.01397
0.741702
1.18353
2.52292
4.34548
6.18692
8.04315
10.1033
12.5314
15.5093
19.2683
24.0657
30.0639
37.1777
44.7734
50.2643
45.0834
27.5289
13.4725
5.53721
1.1368
1.61231
2.98207
4.58497
6.15969
7.88554
9.9478
12.4502
15.5305
19.3801
24.1509
29.7024
35.3089
39.7604
41.1343
37.7821
24.386
8.2547
6.00233
1.49149
1.95641
3.23931
4.67143
6.17302
7.90955
9.96864
12.391
15.2563
18.6671
22.6315
26.7956
30.1826
31.7022
30.527
26.2877
15.5016
5.60027
6.32509
1.62676
2.23791
3.43256
4.6945
6.12483
7.82709
9.79833
12.0282
14.5388
17.3502
20.3781
23.1727
24.7155
24.269
21.7389
16.2913
8.58283
4.55712
6.64735
1.52936
2.44995
3.54183
4.6334
5.97688
7.60655
9.44145
11.4311
13.5489
15.754
17.9116
19.5469
19.7696
18.3354
14.9914
10.161
5.92296
3.97614
6.81756
1.4806
2.44632
3.42877
4.43934
5.70871
7.24607
8.91811
10.65
12.3796
14.0256
15.4386
16.1937
15.5437
13.5549
10.2515
6.99499
4.58906
3.62281
6.77761
1.56481
2.03573
3.09616
4.09477
5.30837
6.73609
8.22738
9.69995
11.0657
12.2165
13.0204
13.1418
11.9857
9.79335
7.33809
5.22091
3.78232
3.36125
6.60673
0.112498
0.114039
0.117171
0.125173
0.135042
0.144916
0.154271
0.163176
0.171867
0.180594
0.189554
0.198878
0.208692
0.219156
0.230487
0.242973
0.256992
0.273009
0.291862
0.316102
0.35421
0.439961
0.735407
0.218971
0.163561
0.151179
0.152586
0.157601
0.163385
0.16945
0.175852
0.182749
0.190313
0.19869
0.207913
0.217999
0.229117
0.241465
0.255283
0.27095
0.288876
0.309962
0.336462
0.373439
0.435126
0.555655
0.343206
0.218764
0.19282
0.185978
0.18397
0.184362
0.186539
0.190239
0.195343
0.201884
0.209969
0.21938
0.22976
0.241675
0.255223
0.270651
0.288291
0.308423
0.331734
0.359582
0.394305
0.440767
0.50353
0.447898
0.245671
0.215808
0.207882
0.203164
0.200767
0.200668
0.202718
0.206804
0.212927
0.221035
0.230735
0.24199
0.255062
0.269925
0.287021
0.306961
0.329864
0.355395
0.383932
0.416876
0.455629
0.49961
0.440076
0.234898
0.213952
0.208644
0.206579
0.206176
0.207367
0.210266
0.215008
0.221726
0.230403
0.240716
0.252719
0.266882
0.283286
0.302278
0.324385
0.350514
0.378237
0.407209
0.439567
0.474556
0.511778
0.406168
0.222299
0.202548
0.200133
0.201313
0.203884
0.207589
0.212568
0.219037
0.227174
0.236997
0.248328
0.261207
0.276108
0.293281
0.312835
0.335336
0.361643
0.391178
0.423281
0.45805
0.491291
0.526411
0.381873
0.208605
0.189849
0.188925
0.192209
0.197116
0.203136
0.210283
0.218712
0.22857
0.239892
0.252605
0.266765
0.282684
0.300544
0.32038
0.342441
0.36744
0.395588
0.426963
0.461086
0.496275
0.533615
0.362762
0.197202
0.178175
0.177453
0.181669
0.187972
0.195613
0.20445
0.214535
0.225956
0.23875
0.252899
0.268444
0.28553
0.304237
0.324518
0.346458
0.370502
0.397041
0.426163
0.457908
0.491728
0.52794
0.34962
0.187688
0.1677
0.166434
0.17075
0.177628
0.186151
0.196041
0.207255
0.21982
0.233758
0.249064
0.265743
0.283825
0.303294
0.324067
0.346138
0.369737
0.395163
0.42249
0.45182
0.483118
0.516048
0.339955
0.179399
0.158206
0.156036
0.159928
0.166773
0.175547
0.185879
0.197654
0.21085
0.225464
0.241482
0.258876
0.277607
0.297595
0.318729
0.340945
0.364325
0.389019
0.415095
0.442651
0.471733
0.50205
0.331099
0.171698
0.149422
0.146268
0.149446
0.155846
0.16439
0.174652
0.186473
0.199796
0.214596
0.230847
0.248501
0.267482
0.28768
0.308961
0.331225
0.35445
0.378672
0.403913
0.43022
0.457614
0.486002
0.32144
0.164189
0.141166
0.137113
0.139464
0.145157
0.153137
0.162937
0.174379
0.18739
0.201934
0.217977
0.235467
0.254319
0.274413
0.295613
0.317793
0.340871
0.364802
0.389558
0.415131
0.44154
0.468843
0.310238
0.156703
0.133351
0.128555
0.130091
0.13497
0.14215
0.151209
0.161959
0.174314
0.188238
0.203706
0.220673
0.239065
0.258777
0.279683
0.301654
0.324579
0.348371
0.372957
0.398297
0.42441
0.451437
0.297475
0.149241
0.125965
0.120606
0.121393
0.12544
0.13174
0.139883
0.149705
0.161167
0.174204
0.188817
0.204983
0.222655
0.241756
0.262191
0.283848
0.306619
0.3304
0.3551
0.380659
0.407094
0.434583
0.283592
0.141916
0.11905
0.113297
0.113424
0.116676
0.122086
0.129266
0.138065
0.148446
0.160423
0.174001
0.189179
0.205944
0.224269
0.244102
0.26537
0.287991
0.311874
0.336929
0.363092
0.390375
0.418967
0.269237
0.134894
0.112674
0.106666
0.10623
0.108749
0.113307
0.119537
0.127303
0.13658
0.147399
0.159817
0.17391
0.189664
0.207117
0.226272
0.247112
0.269602
0.293686
0.319296
0.346377
0.374942
0.405172
0.255096
0.12836
0.106918
0.100754
0.0998397
0.1017
0.105469
0.110803
0.11758
0.125791
0.135485
0.146746
0.159678
0.174382
0.19094
0.209399
0.229815
0.252215
0.276597
0.302934
0.331192
0.36139
0.393693
0.241794
0.12249
0.101861
0.095598
0.0942721
0.0955459
0.0985999
0.103113
0.108979
0.116199
0.124844
0.135023
0.146872
0.160542
0.176192
0.193987
0.214024
0.236406
0.261194
0.288419
0.318079
0.350203
0.384942
0.229843
0.117442
0.0975775
0.0912305
0.0895346
0.0902813
0.0926939
0.0964703
0.101515
0.107844
0.115542
0.124745
0.135622
0.148373
0.163217
0.18038
0.200081
0.222543
0.247859
0.276135
0.307407
0.341725
0.379216
0.219637
0.113347
0.0941287
0.087674
0.0856245
0.085887
0.0877216
0.0908407
0.0951578
0.100699
0.107563
0.115909
0.125941
0.137903
0.152072
0.168749
0.188236
0.210828
0.236764
0.26626
0.299351
0.336118
0.376667
0.211445
0.110302
0.0915599
0.0849404
0.082529
0.0823316
0.0836373
0.0861681
0.0898429
0.0946945
0.100835
0.108443
0.117754
0.129057
0.142688
0.159018
0.178438
0.201331
0.228036
0.258825
0.293874
0.333348
0.377262
0.205433
0.108372
0.0898965
0.0830276
0.0802243
0.0795731
0.0803834
0.0823812
0.0854864
0.0897353
0.09525
0.102226
0.11093
0.121691
0.134906
0.151018
0.170508
0.193853
0.221491
0.25378
0.290969
0.333237
0.380747
0.201672
0.107587
0.0891417
0.0819172
0.0786744
0.0775602
0.0778941
0.0793999
0.0819936
0.085711
0.0906805
0.0971134
0.105302
0.115619
0.128515
0.144513
0.164181
0.1881
0.216813
0.25077
0.290294
0.335609
0.386911
0.200153
0.107943
0.0892749
0.0815739
0.077831
0.0762327
0.0760976
0.0771396
0.0792656
0.0825068
0.0869941
0.092951
0.100694
0.110634
0.123281
0.13923
0.159145
0.183716
0.213597
0.24934
0.291353
0.339921
0.39529
0.200809
0.109406
0.0902523
0.0819443
0.0776335
0.0755227
0.0749176
0.0755143
0.0772046
0.0800103
0.0840608
0.0895879
0.096929
0.106532
0.118959
0.134882
0.155063
0.180303
0.211378
0.248953
0.293538
0.345502
0.405182
0.203539
0.111915
0.0920078
0.0829593
0.0780101
0.0753558
0.0742757
0.0744393
0.0757168
0.0781157
0.0817592
0.0868835
0.0938424
0.103115
0.115316
0.131189
0.151593
0.177448
0.209658
0.249019
0.296158
0.351562
0.4157
0.208226
0.115385
0.0944571
0.0845358
0.0788808
0.0756537
0.0740932
0.0738329
0.0747151
0.076727
0.0799812
0.0847127
0.0912867
0.100209
0.112137
0.127886
0.148407
0.174741
0.207932
0.248917
0.298467
0.357215
0.425807
0.214751
0.119718
0.0975021
0.0865818
0.0801601
0.0763366
0.0742935
0.0736192
0.0741209
0.0757605
0.0786338
0.0829697
0.0891377
0.0976623
0.109238
0.124739
0.145206
0.171798
0.205703
0.248022
0.299688
0.361515
0.434355
0.22299
0.124805
0.101038
0.089001
0.0817616
0.0773261
0.0748042
0.0737291
0.073866
0.0751455
0.0776416
0.08157
0.0872975
0.0953577
0.106471
0.121557
0.141735
0.168277
0.20252
0.245738
0.299058
0.363497
0.440139
0.232812
0.130537
0.104959
0.0916984
0.0836014
0.0785483
0.075559
0.0741015
0.0738924
0.0748253
0.0769465
0.0804518
0.0856966
0.0932125
0.10373
0.118201
0.137802
0.163907
0.197997
0.241536
0.295863
0.362225
0.441957
0.244086
0.136813
0.109168
0.0945849
0.0856018
0.0799358
0.0764994
0.0746848
0.0741536
0.074757
0.0765081
0.0795759
0.0842949
0.0911821
0.100962
0.114596
0.133295
0.15851
0.191857
0.23499
0.289487
0.356848
0.43867
0.256722
0.143552
0.113577
0.0975803
0.087693
0.08143
0.0775759
0.0754373
0.0746143
0.0749113
0.0763027
0.0789243
0.0830807
0.0892609
0.0981652
0.110737
0.128193
0.152027
0.183962
0.225835
0.279476
0.346666
0.429281
0.270751
0.150706
0.118116
0.100615
0.0898148
0.0829814
0.0787493
0.0763284
0.0752514
0.0752721
0.0763224
0.0784995
0.0820692
0.0874799
0.0953885
0.106695
0.122582
0.144541
0.174356
0.214019
0.265608
0.331211
0.413005
0.286403
0.158276
0.122732
0.103627
0.091915
0.0845506
0.0799921
0.0773399
0.0760546
0.0758369
0.0765745
0.0783218
0.0812991
0.0859032
0.0927298
0.102608
0.116649
0.136285
0.163296
0.199765
0.247986
0.31036
0.3894
0.304212
0.166335
0.127386
0.10656
0.0939467
0.0861083
0.0812897
0.0784686
0.0770294
0.0766193
0.077082
0.0784286
0.0808295
0.0846215
0.0903251
0.0986767
0.110675
0.127639
0.15126
0.183618
0.227135
0.284485
0.358537
0.325171
0.175045
0.132042
0.109347
0.0958624
0.087634
0.082644
0.0797311
0.0782013
0.0776519
0.0778865
0.0788747
0.0807372
0.083746
0.0883374
0.095138
0.105007
0.119097
0.138927
0.166446
0.204063
0.254607
0.321256
0.351053
0.184702
0.136637
0.111883
0.0976026
0.0891165
0.0840776
0.0811697
0.0796233
0.0789937
0.079053
0.0797362
0.0811172
0.0834037
0.0869445
0.0922486
0.100019
0.111208
0.127091
0.149366
0.180239
0.222479
0.279403
0.385207
0.195796
0.141003
0.11398
0.099078
0.0905544
0.0856426
0.0828638
0.0813863
0.0807402
0.0806802
0.0811174
0.0820871
0.0837374
0.0863319
0.0902627
0.0960745
0.104506
0.116556
0.133577
0.157399
0.190461
0.235902
0.434964
0.209038
0.144639
0.115254
0.100148
0.0919642
0.0874361
0.0849449
0.0836334
0.0830364
0.0829126
0.0831642
0.0837988
0.0849135
0.0866944
0.0894244
0.0934988
0.0994529
0.108007
0.120141
0.137207
0.161087
0.194364
0.52045
0.224788
0.14608
0.114959
0.100615
0.093412
0.0896293
0.0876193
0.0865783
0.0860937
0.0859572
0.0860799
0.0864541
0.0871373
0.0882487
0.0899743
0.092576
0.0964077
0.101941
0.109809
0.120884
0.136404
0.158138
0.721713
0.238984
0.141381
0.111861
0.100335
0.0951031
0.0925216
0.0912004
0.0905278
0.0902102
0.0901041
0.0901475
0.0903299
0.0906794
0.0912608
0.0921768
0.0935743
0.0956511
0.098668
0.102968
0.109014
0.117453
0.129225
1.61008
0.217552
0.12202
0.104803
0.0996271
0.0975738
0.0966243
0.0961525
0.0959148
0.0958012
0.0957596
0.095767
0.0958186
0.0959224
0.0960984
0.0963793
0.0968122
0.0974606
0.098407
0.099757
0.101646
0.104256
0.107842
1.79508
1.3668
1.08586
1.02503
0.695553
0.709356
0.693976
0.694099
0.550692
0.576738
0.59867
0.626058
0.531461
0.553975
0.577502
0.605092
0.539562
0.55985
0.581398
0.605477
0.553476
0.572935
0.592897
0.613783
0.56333
0.584343
0.604754
0.623945
0.55636
0.57667
0.597402
0.618021
0.541551
0.559906
0.579071
0.599308
0.525311
0.541927
0.559363
0.577877
0.507822
0.52332
0.539589
0.556873
0.4899
0.504762
0.520381
0.537005
0.472374
0.48707
0.50255
0.519079
0.456005
0.470973
0.486779
0.50369
0.44141
0.457025
0.473532
0.491186
0.429082
0.445644
0.463146
0.481808
0.419433
0.437181
0.455905
0.475772
0.412811
0.431938
0.452071
0.473312
0.409481
0.430156
0.451868
0.474651
0.409588
0.431979
0.45545
0.479963
0.413124
0.437418
0.46285
0.489322
0.419895
0.446315
0.473954
0.502662
0.429541
0.458338
0.488474
0.519753
0.441759
0.473208
0.506167
0.540413
0.45583
0.4902
0.526311
0.563911
0.470795
0.508307
0.547839
0.589113
0.485484
0.526266
0.569393
0.614565
0.498562
0.542614
0.589375
0.638526
0.508594
0.555756
0.60602
0.659061
0.514116
0.564046
0.617491
0.674133
0.513714
0.565879
0.621974
0.681712
0.506097
0.559764
0.617765
0.679865
0.490176
0.5444
0.603337
0.66682
0.465173
0.518779
0.577431
0.641042
0.43081
0.482367
0.539226
0.601384
0.38761
0.435433
0.488683
0.547442
0.337282
0.379512
0.427083
0.480157
0.283021
0.317867
0.357639
0.402579
0.229345
0.25553
0.285797
0.320435
0.181054
0.198326
0.218448
0.241668
0.141511
0.150756
0.161513
0.173904
0.11149
0.114203
0.117313
0.120841
0.924832
1.69397
2.64183
3.49902
4.49493
5.66126
6.84124
7.92743
8.79581
9.30737
9.35888
8.81245
7.69266
6.30373
4.94327
3.81882
3.12231
3.11125
6.35901
0.776627
1.47565
2.43924
3.24018
3.63777
4.25687
4.98701
5.64886
6.08887
6.18186
5.80197
5.20062
4.52766
3.83953
3.22907
2.76951
2.54922
2.78947
5.86501
0.70151
1.01357
1.7647
2.34469
2.82375
3.27524
3.63369
3.93925
4.12296
4.12526
3.80199
3.30445
2.91198
2.63412
2.43196
2.29438
2.28009
2.60811
5.47521
0.666044
0.826934
1.14152
1.47547
1.90592
2.32661
2.62785
2.82146
2.91283
2.86587
2.56426
2.31147
2.23598
2.26646
2.28979
2.26212
2.27245
2.5755
5.24416
0.653499
0.749106
0.898075
1.08204
1.3191
1.58004
1.81156
1.95586
2.01035
1.98713
1.94872
2.04703
2.31862
2.61418
2.71986
2.60648
2.4781
2.66226
5.14588
0.652012
0.715614
0.802489
0.911616
1.04592
1.19773
1.34469
1.45793
1.54944
1.68532
1.99526
2.59423
3.33591
3.85514
3.78032
3.27573
2.82374
2.81276
5.09945
0.6564
0.706433
0.767979
0.841507
0.931338
1.03703
1.15501
1.29372
1.51286
1.97166
2.94052
4.52624
6.06828
6.43573
5.43675
4.06146
3.16608
2.95268
4.97795
0.653015
0.706836
0.76652
0.828544
0.910509
1.02061
1.17493
1.42774
1.94115
3.12483
5.61686
9.10608
11.0425
9.37564
6.60439
4.41604
3.33015
3.03675
4.60839
0.635595
0.689321
0.751757
0.830447
0.94444
1.1131
1.38425
1.89439
3.03951
5.87781
11.707
16.4618
13.0306
9.83135
6.26964
4.29715
3.37959
3.12284
3.97385
0.611211
0.663293
0.730262
0.82362
0.966821
1.20324
1.6387
2.54825
4.64644
9.30977
14.5899
15.7431
13.2788
8.44765
5.36682
3.98121
3.43756
3.32378
3.45532
0.588046
0.637837
0.704818
0.806005
0.97458
1.27761
1.87205
3.13435
5.68189
9.37268
12.0279
12.6863
11.4344
6.85317
4.62304
3.80309
3.56668
3.50149
3.15617
0.567089
0.616513
0.684833
0.790463
0.971078
1.30581
1.974
3.26779
5.42673
7.96939
9.53059
9.87202
8.49494
5.65055
4.24354
3.78963
3.66548
3.59712
3.03213
0.549108
0.59961
0.670453
0.780331
0.967419
1.31252
1.95699
3.08047
4.73736
6.47941
7.49428
7.63696
6.72013
5.10236
4.15349
3.8865
3.78701
3.70842
3.16275
0.534451
0.586745
0.659768
0.771179
0.955601
1.28119
1.84004
2.73622
3.95947
5.18669
5.91931
6.11621
5.81156
4.92118
4.21154
4.04564
3.99421
3.9077
3.76571
0.52321
0.577419
0.651391
0.760365
0.932421
1.21605
1.66817
2.3449
3.22495
4.10845
4.69964
4.98332
5.11292
4.87883
4.35353
4.23596
4.25834
4.25616
4.56926
0.515452
0.571418
0.645047
0.748287
0.901309
1.13573
1.48436
1.97633
2.59739
3.24481
3.75557
4.12308
4.46998
4.65826
4.50514
4.45826
4.55468
4.65291
5.52283
0.511286
0.568902
0.641395
0.737299
0.869545
1.05717
1.31813
1.66787
2.10387
2.59015
3.05526
3.5147
4.01067
4.42215
4.63934
4.76463
4.91405
5.07078
6.63608
0.510926
0.570302
0.641562
0.730214
0.843685
0.992002
1.18553
1.43419
1.74803
2.13128
2.59127
3.16657
3.8453
4.47716
4.982
5.28644
5.41738
5.56832
7.98967
0.514636
0.576165
0.646757
0.729496
0.828007
0.946968
1.09291
1.2761
1.51767
1.85609
2.35915
3.10384
4.05251
4.9811
5.7458
6.16639
6.12245
6.15029
9.12882
0.522661
0.58702
0.658048
0.737024
0.825171
0.924593
1.04082
1.1879
1.39941
1.74652
2.35361
3.35682
4.7088
6.03866
6.99793
7.34934
6.97151
6.73192
9.73666
0.53517
0.603289
0.676233
0.754018
0.836527
0.92513
1.02685
1.16189
1.37974
1.78562
2.56537
3.91599
5.73943
7.42476
8.37827
8.48027
7.75949
7.194
9.79412
0.552191
0.6252
0.701746
0.781003
0.862244
0.947343
1.04599
1.18668
1.43731
1.94042
2.93738
4.63589
6.77957
8.52235
9.22036
9.11224
8.13601
7.40849
9.14275
0.573575
0.652706
0.734586
0.817792
0.901409
0.987983
1.09068
1.24601
1.53757
2.13312
3.28404
5.10444
7.13738
8.47567
8.75667
8.49476
7.79283
7.38508
7.80937
0.599039
0.685423
0.774266
0.863434
0.951688
1.04247
1.15157
1.32043
1.63853
2.27005
3.41546
5.05476
6.64602
7.44338
7.46905
7.34944
7.21523
7.1952
7.16288
0.627997
0.722653
0.819681
0.916179
1.0104
1.10604
1.21994
1.39407
1.71269
2.31401
3.33206
4.68005
5.91239
6.44399
6.46193
6.5488
6.80154
7.05906
7.48046
0.659193
0.763055
0.869322
0.97415
1.07493
1.17484
1.29024
1.46044
1.75916
2.29623
3.16405
4.27903
5.2708
5.7164
5.74073
5.89952
6.36114
6.97312
8.79983
0.691019
0.804844
0.92127
1.0353
1.14303
1.24648
1.36063
1.52116
1.79204
2.26374
3.01828
3.97948
4.86525
5.34752
5.34281
5.48428
5.95541
6.74925
10.1937
0.721514
0.845851
0.973271
1.09747
1.2129
1.31983
1.43156
1.58088
1.82554
2.24749
2.91548
3.78078
4.64048
5.16787
5.2073
5.32078
5.76723
6.71364
11.2738
0.748487
0.883604
1.02278
1.15839
1.28292
1.39437
1.50418
1.6436
1.86774
2.25287
2.85814
3.68006
4.58954
5.19056
5.22082
5.32394
5.80978
6.86431
11.9615
0.769599
0.915417
1.06698
1.2155
1.3514
1.46987
1.57981
1.71194
1.9219
2.27727
2.83909
3.65331
4.67152
5.35254
5.36747
5.50701
6.03673
7.19933
12.7588
0.782481
0.938474
1.10277
1.26582
1.41616
1.54577
1.65979
1.78789
1.98675
2.31845
2.84897
3.66513
4.81038
5.63558
5.61258
5.79748
6.3832
7.65434
13.7386
0.784828
0.949906
1.12674
1.30569
1.47399
1.62056
1.74501
1.87222
2.061
2.37385
2.88337
3.69759
4.93506
5.82256
5.84602
6.15863
6.81747
8.17028
14.6369
0.774463
0.946823
1.13521
1.33069
1.52025
1.69084
1.83362
1.96566
2.14429
2.44033
2.93297
3.73441
4.9588
5.87092
6.16526
6.63891
7.35999
8.74004
15.2934
0.749384
0.926311
1.12414
1.33552
1.54847
1.74922
1.91961
2.06747
2.24111
2.52094
2.98422
3.73252
4.84637
6.02203
6.64498
7.29499
8.06787
9.33045
15.6619
0.707893
0.885488
1.0891
1.31383
1.55052
1.78402
1.99066
2.17061
2.35573
2.61879
3.0366
3.69656
4.70027
6.01548
7.20178
8.14391
9.05738
10.0617
15.565
0.648956
0.821855
1.02545
1.25798
1.51438
1.78078
2.02874
2.25393
2.4723
2.73097
3.0994
3.65612
4.50869
5.81608
7.58682
9.17572
10.4851
11.5189
15.444
0.572893
0.734202
0.929505
1.1603
1.42655
1.72
2.00859
2.28348
2.54852
2.82779
3.16598
3.62527
4.31128
5.4426
7.25809
9.76229
12.255
14.1149
15.8093
0.482339
0.624067
0.800464
1.01592
1.27526
1.5798
1.89815
2.21724
2.53119
2.84677
3.18355
3.57835
4.11494
4.97972
6.47649
8.84552
12.4271
15.9339
18.7379
0.383159
0.497197
0.642998
0.826882
1.05697
1.34351
1.66581
2.0079
2.3582
2.71066
3.06676
3.44244
3.89099
4.55148
5.69501
7.68635
11.1446
16.8755
24.4086
0.284606
0.364502
0.469926
0.607247
0.784709
1.01544
1.29784
1.61763
1.96414
2.32595
2.69474
3.0717
3.48211
4.04022
5.00695
6.88033
10.7845
19.4488
29.3892
0.197165
0.241608
0.306506
0.392912
0.503928
0.649378
0.838475
1.06464
1.32316
1.60216
1.89337
2.19671
2.55803
3.06601
3.96857
5.92211
10.834
23.6786
37.4518
0.127552
0.143014
0.196988
0.253582
0.316356
0.390178
0.479827
0.575262
0.663609
0.70085
0.613159
0.587079
0.679534
0.835451
1.18127
2.21761
7.49705
27.5515
56.0156
)
;

boundaryField
{
    leftWall
    {
        type            epsilonWallFunction;
        value           nonuniform List<scalar> 
50
(
0.031342
0.0397427
0.0489988
0.0519445
0.0563349
0.0604295
0.0641639
0.0737591
0.112498
0.218971
0.343206
0.447898
0.440076
0.406168
0.381873
0.362762
0.34962
0.339955
0.331099
0.32144
0.310238
0.297475
0.283592
0.269237
0.255096
0.241794
0.229843
0.219637
0.211445
0.205433
0.201672
0.200153
0.200809
0.203539
0.208226
0.214751
0.22299
0.232812
0.244086
0.256722
0.270751
0.286403
0.304212
0.325171
0.351053
0.385207
0.434964
0.52045
0.721713
1.61008
)
;
    }
    rightWall
    {
        type            epsilonWallFunction;
        value           nonuniform List<scalar> 
50
(
7.01397
5.53721
6.00233
6.32509
6.64735
6.81756
6.77761
6.60673
6.35901
5.86501
5.47521
5.24416
5.14588
5.09945
4.97795
4.60839
3.97385
3.45532
3.15617
3.03213
3.16275
3.76571
4.56926
5.52283
6.63608
7.98967
9.12882
9.73666
9.79412
9.14275
7.80937
7.16288
7.48046
8.79983
10.1937
11.2738
11.9615
12.7588
13.7386
14.6369
15.2934
15.6619
15.565
15.444
15.8093
18.7379
24.4086
29.3892
37.4518
56.0156
)
;
    }
    lowerWall
    {
        type            epsilonWallFunction;
        value           nonuniform List<scalar> 
62
(
0.031342
0.0963809
0.178193
0.259059
0.327855
0.39236
0.453048
0.51054
0.565078
0.616099
0.662527
0.702873
0.735196
0.756705
0.762563
0.753828
0.725385
0.671103
0.590901
0.487094
0.371366
0.26684
0.199858
0.199858
0.233622
0.353954
0.495791
0.642035
0.809946
0.993361
1.31304
1.79508
1.3668
1.08586
1.02503
0.636233
0.741702
1.1368
1.49149
1.62676
1.52936
1.4806
1.56481
0.636233
1.09177
1.85841
3.4708
6.17173
9.55607
13.4808
17.8253
22.6082
27.9632
34.0359
40.7599
47.54
52.8508
53.8134
47.0026
34.8999
21.5174
7.01397
)
;
    }
    atmosphere
    {
        type            inletOutlet;
        inletValue      uniform 0.1;
        value           nonuniform List<scalar> 
46
(
0.1
0.1
0.1
0.1
0.1
0.1
0.1
0.1
0.1
0.1
0.1
0.1
0.1
0.1
0.1
0.1
0.1
0.1
0.1
0.1
0.1
0.1
0.1
0.1
0.1
0.1
0.1
0.1
0.1
0.196988
0.253582
0.316356
0.390178
0.479827
0.575262
0.663609
0.70085
0.613159
0.1
0.1
0.1
0.1
0.1
0.1
0.1
56.0156
)
;
    }
    defaultFaces
    {
        type            empty;
    }
}


// ************************************************************************* //
