/*--------------------------------*- C++ -*----------------------------------*\
  =========                 |
  \\      /  F ield         | OpenFOAM: The Open Source CFD Toolbox
   \\    /   O peration     | Website:  https://openfoam.org
    \\  /    A nd           | Version:  9
     \\/     M anipulation  |
\*---------------------------------------------------------------------------*/
FoamFile
{
    format      ascii;
    class       volScalarField;
    location    "0.55";
    object      k;
}
// * * * * * * * * * * * * * * * * * * * * * * * * * * * * * * * * * * * * * //

dimensions      [0 2 -2 0 0 0 0];

internalField   nonuniform List<scalar> 
2268
(
0.0130656
0.017702
0.0225891
0.0266118
0.0296056
0.0318609
0.0335697
0.0351239
0.0365071
0.0377008
0.0387745
0.0397653
0.0409173
0.0425647
0.0441046
0.0450666
0.0449806
0.0433144
0.0396546
0.0339609
0.0274353
0.019888
0.0109505
0.0224343
0.0420896
0.0525414
0.0596969
0.0648861
0.0688267
0.0719332
0.0745105
0.0769261
0.0792788
0.0816205
0.083946
0.0862149
0.0883631
0.0899006
0.0900039
0.0878197
0.0824803
0.0736779
0.0613894
0.0463399
0.0333284
0.0198148
0.0306627
0.0577456
0.0707646
0.0791956
0.0849482
0.0890349
0.0921197
0.094654
0.0970733
0.0994884
0.101933
0.104367
0.106674
0.108638
0.109748
0.109076
0.105536
0.0981478
0.0868109
0.0723669
0.0555208
0.0396972
0.0231099
0.0380015
0.0703013
0.0849396
0.0940581
0.0999804
0.10392
0.106713
0.108919
0.111007
0.113113
0.115254
0.117353
0.119236
0.120586
0.120833
0.119076
0.114122
0.104928
0.0916123
0.0754339
0.0578204
0.0413737
0.0237542
0.0444214
0.0812595
0.0971414
0.106677
0.112603
0.11628
0.118662
0.120383
0.121927
0.123473
0.125024
0.126468
0.127578
0.127968
0.127016
0.123824
0.117301
0.106548
0.091703
0.0742653
0.056258
0.0402005
0.022704
0.049916
0.0911978
0.108191
0.117984
0.123797
0.127128
0.129008
0.130139
0.130973
0.131774
0.13252
0.13307
0.133154
0.132336
0.12997
0.125182
0.116994
0.104718
0.0886991
0.0706672
0.0531934
0.0381523
0.0213435
0.0550017
0.10048
0.118518
0.128457
0.134056
0.136958
0.138256
0.138691
0.13872
0.138646
0.138441
0.137941
0.136848
0.134704
0.130865
0.124523
0.114857
0.101433
0.0848475
0.066982
0.0505302
0.0368713
0.0203594
0.0599139
0.109388
0.1284
0.138384
0.143672
0.146065
0.146708
0.146371
0.145527
0.144498
0.14326
0.141641
0.139332
0.135881
0.130687
0.12306
0.112395
0.0985647
0.0824317
0.0659368
0.0513347
0.0394879
0.0227909
0.0105288
0.0116171
0.01471
0.0165716
0.017646
0.0182295
0.0184505
0.018422
0.0182586
0.0178337
0.0171958
0.0163585
0.0153094
0.0140266
0.0125013
0.0108522
0.0109457
0.0101116
0.00512492
0.0134539
0.0287675
0.0337266
0.035266
0.0356454
0.0356872
0.0355231
0.0351677
0.0345547
0.0337201
0.032646
0.0312861
0.0295715
0.0274154
0.0247178
0.0213762
0.0173252
0.0127412
0.00544778
0.0207544
0.0403052
0.0459511
0.0471308
0.0468085
0.0461216
0.0453178
0.0444347
0.043414
0.0422261
0.0408053
0.0390654
0.0369032
0.0342018
0.0308277
0.0266415
0.0214935
0.0151712
0.00610324
0.0279442
0.0502726
0.0557762
0.0565221
0.0554732
0.0540405
0.0525976
0.0512108
0.0498009
0.0482837
0.0465556
0.0444984
0.0419821
0.0388696
0.0350111
0.030255
0.0244321
0.0172089
0.00696729
0.0346887
0.0599672
0.0646464
0.0647509
0.0629622
0.0608239
0.0587783
0.0569049
0.0551006
0.0532464
0.0512097
0.0488468
0.0460075
0.0425415
0.0382928
0.0331086
0.0268095
0.0189784
0.00782281
0.0416946
0.0701068
0.0731748
0.0723279
0.0697681
0.0669587
0.0643411
0.0619919
0.0597862
0.0575827
0.055228
0.0525597
0.049413
0.0456294
0.041052
0.0355282
0.028864
0.0205601
0.0085957
0.049528
0.0809216
0.0815421
0.079407
0.0760599
0.0726194
0.0694641
0.0666568
0.0640524
0.0614956
0.0588191
0.0558483
0.0524089
0.0483373
0.0434768
0.037672
0.0307061
0.0219951
0.00928134
0.0601477
0.0920158
0.0894966
0.0859217
0.081842
0.0778384
0.0741934
0.0709607
0.0679776
0.0650769
0.0620859
0.0588234
0.0551099
0.0507782
0.0456702
0.0396233
0.0323907
0.0233112
0.0099134
0.0680283
0.123157
0.143478
0.153358
0.158
0.15947
0.158987
0.157352
0.15506
0.152397
0.149471
0.14611
0.142029
0.136838
0.130071
0.121291
0.110284
0.0974069
0.0838806
0.0715935
0.0620171
0.055811
0.0545547
0.0767741
0.138895
0.161214
0.171133
0.174978
0.175233
0.173263
0.169933
0.165793
0.16115
0.156173
0.150892
0.145153
0.138775
0.131616
0.123675
0.115231
0.106926
0.0996932
0.0944571
0.0917276
0.0912015
0.0923446
0.085701
0.154392
0.178328
0.187991
0.190773
0.189598
0.18601
0.18096
0.175068
0.168728
0.162169
0.155511
0.148825
0.142113
0.135421
0.128904
0.12284
0.117593
0.113497
0.110747
0.10932
0.108984
0.109849
0.0949638
0.169888
0.194946
0.204037
0.205546
0.202821
0.197581
0.190872
0.18339
0.175606
0.167836
0.160283
0.153078
0.146333
0.140156
0.134665
0.129982
0.126212
0.123401
0.121483
0.120318
0.119853
0.120026
0.104665
0.185498
0.21112
0.219344
0.219449
0.215145
0.2083
0.200042
0.191135
0.182118
0.173365
0.165132
0.157586
0.150837
0.144954
0.139973
0.1359
0.132691
0.130248
0.128451
0.127177
0.126318
0.125747
0.114864
0.201325
0.226898
0.234009
0.232665
0.226834
0.21848
0.208796
0.198605
0.188497
0.178885
0.170044
0.16214
0.155254
0.149403
0.144553
0.140624
0.1375
0.135041
0.133101
0.131541
0.130233
0.129046
0.125571
0.21751
0.242354
0.24818
0.245425
0.238173
0.228427
0.217428
0.206053
0.194936
0.184513
0.175062
0.16673
0.159564
0.153536
0.14856
0.144507
0.141226
0.138552
0.136325
0.134399
0.132643
0.130937
0.136677
0.234227
0.257596
0.262063
0.258008
0.249465
0.238432
0.226199
0.213698
0.201604
0.190372
0.180272
0.171431
0.163864
0.157505
0.152234
0.147893
0.144306
0.141298
0.1387
0.136363
0.134162
0.13199
0.1478
0.251634
0.272775
0.275938
0.270736
0.261013
0.248757
0.235327
0.221721
0.208651
0.196586
0.185789
0.176362
0.168295
0.161493
0.155809
0.151067
0.147077
0.143652
0.140623
0.137843
0.13519
0.132578
0.158
0.269685
0.288112
0.290166
0.283948
0.273084
0.259611
0.244979
0.23026
0.216201
0.203275
0.191734
0.181661
0.173018
0.165689
0.159506
0.15428
0.14981
0.145907
0.142398
0.13914
0.136024
0.132979
0.165717
0.287589
0.303899
0.305118
0.297907
0.285846
0.271101
0.255239
0.239396
0.22434
0.210541
0.198231
0.187469
0.178198
0.170281
0.163536
0.15776
0.15275
0.14831
0.144273
0.140503
0.136901
0.133418
0.169745
0.303531
0.320378
0.320935
0.31264
0.299274
0.283198
0.266095
0.249144
0.233118
0.218463
0.205389
0.19393
0.184008
0.175467
0.168114
0.161739
0.156133
0.151103
0.146487
0.142159
0.138039
0.134098
0.172208
0.316463
0.337127
0.337194
0.32781
0.313117
0.295728
0.277438
0.259457
0.242537
0.227096
0.21331
0.201187
0.190626
0.181457
0.173476
0.166466
0.160217
0.154543
0.14929
0.144347
0.139658
0.135221
0.175268
0.327534
0.35299
0.353112
0.342865
0.326988
0.308422
0.289094
0.270234
0.252567
0.23647
0.222082
0.209382
0.198246
0.188489
0.179893
0.172238
0.165314
0.158943
0.152985
0.147354
0.14202
0.137019
0.178739
0.337088
0.367419
0.36812
0.357331
0.340518
0.321004
0.300866
0.281351
0.26315
0.246595
0.231785
0.218665
0.207086
0.196841
0.187698
0.179428
0.171822
0.164712
0.157977
0.151563
0.145478
0.139803
0.182408
0.345266
0.380477
0.382016
0.370936
0.353439
0.333242
0.31257
0.292678
0.274219
0.257474
0.242498
0.229198
0.217394
0.206849
0.197307
0.188523
0.18028
0.172418
0.164841
0.157529
0.150543
0.144024
0.186459
0.352453
0.392391
0.394788
0.383552
0.365577
0.344962
0.324053
0.304103
0.285713
0.269111
0.254306
0.241164
0.229461
0.218921
0.209247
0.200157
0.191417
0.182859
0.174406
0.16608
0.158003
0.150394
0.191185
0.359045
0.403383
0.40649
0.395135
0.376842
0.356057
0.335218
0.31555
0.297596
0.28153
0.267315
0.254772
0.243625
0.23354
0.224157
0.215136
0.20619
0.197124
0.187858
0.178444
0.16907
0.16005
0.196891
0.365607
0.413624
0.417205
0.405706
0.387222
0.366506
0.346045
0.327011
0.309889
0.294802
0.281668
0.270264
0.260256
0.251235
0.242757
0.234388
0.225755
0.216591
0.206771
0.196344
0.185544
0.174772
0.203811
0.372889
0.423199
0.427043
0.41536
0.396808
0.376401
0.356625
0.338584
0.322703
0.309067
0.297559
0.287911
0.279729
0.272521
0.265739
0.258831
0.251298
0.24275
0.23296
0.22191
0.209814
0.197117
0.212051
0.381491
0.432081
0.436168
0.424298
0.40583
0.385985
0.367204
0.350513
0.336287
0.324582
0.315257
0.308006
0.302377
0.297793
0.293601
0.289117
0.283695
0.276786
0.268004
0.257187
0.244435
0.230128
0.220957
0.391114
0.440414
0.444898
0.432886
0.414706
0.395705
0.378235
0.363248
0.35108
0.341766
0.335146
0.330879
0.328461
0.327244
0.326477
0.325361
0.323108
0.31901
0.312501
0.303222
0.29108
0.276262
0.228816
0.400171
0.448711
0.453741
0.441717
0.424104
0.406265
0.390443
0.37752
0.367793
0.361275
0.35778
0.356933
0.358185
0.360834
0.364065
0.366999
0.368748
0.368478
0.365471
0.359183
0.349303
0.335766
0.235693
0.407822
0.457772
0.463432
0.451679
0.435003
0.418704
0.404913
0.394432
0.387502
0.38409
0.383966
0.38672
0.391767
0.398381
0.405725
0.412897
0.418976
0.42307
0.424372
0.42221
0.416102
0.405763
0.242001
0.415393
0.468445
0.475062
0.464075
0.448808
0.434517
0.423216
0.415585
0.411759
0.411616
0.414862
0.421046
0.429565
0.439709
0.450684
0.46164
0.471702
0.480001
0.48572
0.488138
0.486673
0.480912
0.247895
0.425509
0.481914
0.490243
0.480734
0.46749
0.455815
0.447561
0.443205
0.4427
0.445776
0.452056
0.461066
0.47219
0.484815
0.498275
0.511861
0.524831
0.536426
0.545894
0.552534
0.555742
0.555046
0.252792
0.440673
0.500276
0.511367
0.504194
0.493784
0.485499
0.480927
0.480239
0.483115
0.489051
0.497553
0.508146
0.520368
0.533788
0.547965
0.562424
0.57663
0.58999
0.601867
0.611625
0.618684
0.622591
0.256528
0.462904
0.526891
0.541666
0.537885
0.531365
0.527375
0.527124
0.530296
0.536175
0.544037
0.553316
0.563637
0.574796
0.586694
0.599247
0.612309
0.62562
0.638793
0.651333
0.662677
0.672262
0.679618
0.258426
0.493425
0.56666
0.585477
0.586352
0.584995
0.586219
0.590591
0.597265
0.60514
0.613289
0.621153
0.628592
0.635824
0.643262
0.65133
0.660313
0.670275
0.681054
0.692287
0.703471
0.714029
0.723413
0.260387
0.532602
0.625298
0.648427
0.655627
0.660845
0.66771
0.676123
0.684847
0.692581
0.698339
0.70169
0.70287
0.702692
0.702268
0.702674
0.704703
0.708771
0.714919
0.722884
0.732177
0.742167
0.752168
0.263396
0.577039
0.709133
0.738639
0.75443
0.767314
0.778844
0.788492
0.795384
0.798737
0.797883
0.792625
0.783596
0.772279
0.760586
0.750314
0.742786
0.738729
0.738333
0.741368
0.74731
0.755429
0.764855
0.273632
0.628843
0.82625
0.869242
0.89658
0.916761
0.928329
0.931495
0.927949
0.919093
0.905235
0.886343
0.863164
0.837586
0.812139
0.789227
0.770585
0.757129
0.749094
0.746217
0.747891
0.753278
0.761301
0.293678
0.702771
0.989884
1.0591
1.10147
1.12455
1.12414
1.10469
1.07508
1.0416
1.0062
0.968416
0.928247
0.88718
0.847732
0.812452
0.783151
0.760717
0.745312
0.736601
0.733905
0.736291
0.742523
0.324218
0.809986
1.20363
1.3201
1.38104
1.39476
1.35942
1.29175
1.21533
1.14353
1.07895
1.01932
0.962398
0.907912
0.857508
0.813163
0.776247
0.747353
0.726482
0.713241
0.706951
0.706679
0.711182
0.356616
0.945398
1.41791
1.61687
1.69619
1.66845
1.55816
1.42209
1.29518
1.18812
1.09903
1.02257
0.954509
0.892639
0.837263
0.789299
0.749475
0.718033
0.694804
0.679322
0.670881
0.668555
0.671199
0.381447
1.01774
1.63246
1.85845
1.83995
1.70693
1.5494
1.39725
1.26799
1.16075
1.06767
0.984771
0.911157
0.846838
0.791599
0.745024
0.706795
0.676659
0.654274
0.639083
0.630355
0.62725
0.628817
0.403632
1.11742
1.83861
1.81943
1.64236
1.5134
1.38893
1.26763
1.1635
1.07257
0.986839
0.904401
0.831016
0.770716
0.721697
0.681533
0.649148
0.624221
0.606161
0.594088
0.587145
0.584596
0.585701
0.426172
1.31125
1.71313
1.54131
1.48691
1.39548
1.23256
1.08606
0.980337
0.898238
0.825158
0.760527
0.706475
0.662169
0.626232
0.597418
0.574868
0.557796
0.545457
0.537265
0.532738
0.531444
0.532854
0.412669
1.2419
1.26243
1.25099
1.11825
0.974163
0.869094
0.791912
0.731654
0.681277
0.637458
0.599804
0.568317
0.542993
0.523173
0.507775
0.496202
0.487722
0.481757
0.478032
0.476436
0.476833
0.478936
0.313587
0.764721
0.752122
0.701513
0.653615
0.61252
0.579306
0.55054
0.523567
0.498402
0.476472
0.458747
0.44502
0.434726
0.427581
0.423291
0.421005
0.419672
0.419104
0.419221
0.420224
0.42207
0.424953
0.167101
0.364025
0.395553
0.391581
0.389218
0.388949
0.383257
0.380383
0.372414
0.360217
0.350546
0.34566
0.345141
0.348004
0.35408
0.359444
0.365392
0.368802
0.371459
0.373806
0.377759
0.380174
0.385892
0.089781
0.154978
0.200818
0.198599
0.20686
0.225867
0.240254
0.272919
0.291361
0.267432
0.254448
0.251161
0.256506
0.277638
0.319911
0.341833
0.386889
0.389699
0.397938
0.398715
0.421038
0.423906
0.456811
0.0617387
0.0681413
0.0754133
0.0828555
0.0951741
0.0977986
0.101616
0.1062
0.111761
0.113218
0.114821
0.116271
0.120582
0.120935
0.121196
0.121274
0.125341
0.12505
0.124678
0.124189
0.128007
0.12732
0.126581
0.125773
0.129439
0.128476
0.127487
0.126466
0.130119
0.128937
0.127756
0.126573
0.130376
0.129006
0.127664
0.126347
0.130468
0.128925
0.12744
0.126005
0.130605
0.128899
0.127279
0.125735
0.130978
0.129108
0.127355
0.125705
0.13177
0.129728
0.127834
0.126069
0.133191
0.130949
0.128892
0.12699
0.135507
0.133015
0.130746
0.128665
0.13911
0.136279
0.133713
0.131372
0.144626
0.141304
0.138297
0.135556
0.153081
0.149039
0.145355
0.141983
0.166166
0.161083
0.156374
0.152007
0.186474
0.179998
0.173826
0.167961
0.217411
0.209352
0.201363
0.193487
0.262199
0.252851
0.243137
0.233111
0.321932
0.312252
0.301672
0.29019
0.39406
0.385398
0.375405
0.363976
0.472821
0.466356
0.458377
0.448678
0.551192
0.547533
0.542423
0.535599
0.622789
0.621934
0.619834
0.616179
0.683056
0.68464
0.685259
0.68462
0.729069
0.732517
0.735337
0.737289
0.759024
0.763691
0.768085
0.772046
0.772051
0.777338
0.782695
0.788053
0.768217
0.773659
0.779475
0.785691
0.748791
0.754067
0.759971
0.766622
0.716645
0.721523
0.727203
0.733913
0.675771
0.680348
0.685953
0.692717
0.63258
0.636545
0.641458
0.64739
0.588287
0.591166
0.594963
0.59974
0.535115
0.537517
0.54055
0.544352
0.481084
0.483241
0.485848
0.489051
0.427191
0.429395
0.432029
0.435118
0.38892
0.392581
0.398055
0.402919
0.465611
0.474138
0.533859
0.548161
0.0899927
0.105266
0.100178
0.0949689
0.0899936
0.0852751
0.0809622
0.0770794
0.0734736
0.0700059
0.0665018
0.0627733
0.0586344
0.0539112
0.0484376
0.0420333
0.034406
0.0248173
0.0105899
0.110537
0.111821
0.107901
0.103106
0.0980987
0.0931429
0.0884278
0.0839914
0.0797901
0.0757394
0.0716856
0.0674479
0.0628384
0.0576725
0.0517654
0.044906
0.0367538
0.026528
0.0114006
0.117365
0.116253
0.112963
0.108776
0.104084
0.0992108
0.0943874
0.0896745
0.0851327
0.0807054
0.0762637
0.0716389
0.0666427
0.0610793
0.054745
0.0474063
0.0387068
0.0278947
0.0120689
0.121039
0.11937
0.116417
0.112649
0.108323
0.103698
0.0989777
0.0942621
0.0896273
0.085038
0.0803832
0.0755028
0.070206
0.0642856
0.0575237
0.0496784
0.0404081
0.0290463
0.0126457
0.123343
0.121341
0.118541
0.115089
0.111137
0.106867
0.102427
0.0979287
0.0934295
0.0888933
0.0842122
0.0792236
0.0737277
0.067504
0.0603234
0.0519457
0.0420647
0.0301429
0.0131868
0.124567
0.122347
0.119621
0.116429
0.112854
0.109012
0.105001
0.10091
0.0967574
0.0924876
0.0879749
0.0830382
0.0774578
0.070995
0.06341
0.0544692
0.0439111
0.0313607
0.0137476
0.12501
0.122631
0.119956
0.116999
0.113809
0.110456
0.107005
0.10349
0.0998849
0.09609
0.0919392
0.0872124
0.0816575
0.0750146
0.0670365
0.0574987
0.0461823
0.0328883
0.0143842
0.124928
0.122432
0.119815
0.117096
0.114318
0.111529
0.108755
0.105978
0.10311
0.0999836
0.0963651
0.0919766
0.0865298
0.0797545
0.0714117
0.0612828
0.0491538
0.0349627
0.0151646
0.124548
0.121971
0.119435
0.116983
0.114666
0.112525
0.110552
0.10867
0.10671
0.104411
0.101449
0.0974869
0.0922292
0.0854447
0.0769296
0.0664148
0.0535166
0.0381052
0.0162236
0.124075
0.121445
0.119024
0.116886
0.1151
0.113704
0.11266
0.111819
0.11091
0.109557
0.107354
0.103963
0.0991918
0.092957
0.0850771
0.0749562
0.061488
0.0438868
0.0179666
0.123688
0.121029
0.118762
0.116996
0.115825
0.115282
0.115295
0.11563
0.115903
0.115648
0.114469
0.112225
0.109078
0.105211
0.100186
0.0922839
0.0785297
0.0563825
0.0216522
0.123543
0.120871
0.118797
0.117471
0.117009
0.117435
0.118638
0.120312
0.122001
0.123277
0.124046
0.124791
0.126336
0.128907
0.130902
0.128127
0.11427
0.0836131
0.030679
0.123787
0.121105
0.119259
0.118442
0.118792
0.120331
0.122905
0.126231
0.12994
0.134006
0.139234
0.147228
0.159247
0.174479
0.188842
0.194532
0.180709
0.13719
0.0522342
0.124563
0.121856
0.12026
0.120021
0.121308
0.124173
0.12851
0.13417
0.141376
0.151205
0.166027
0.188238
0.217947
0.251829
0.283031
0.300106
0.286859
0.228025
0.0957837
0.12604
0.123258
0.121913
0.122322
0.124727
0.129311
0.136227
0.145825
0.159496
0.180581
0.212569
0.256269
0.308377
0.363346
0.413387
0.44373
0.431062
0.358429
0.163862
0.128451
0.125489
0.124358
0.125489
0.1293
0.136339
0.147465
0.164281
0.189826
0.229081
0.28523
0.353668
0.428171
0.504204
0.573367
0.613473
0.593234
0.514003
0.244687
0.132163
0.128816
0.12779
0.129708
0.135363
0.146103
0.164268
0.193535
0.238334
0.30113
0.382202
0.473695
0.569502
0.665471
0.748196
0.786291
0.744007
0.672667
0.321386
0.137816
0.133698
0.132514
0.135197
0.143182
0.159185
0.187745
0.23434
0.301928
0.387835
0.486846
0.597159
0.712468
0.825925
0.917721
0.946552
0.869342
0.813576
0.384476
0.146555
0.140965
0.139054
0.142163
0.152542
0.174464
0.214211
0.276573
0.359778
0.458026
0.566911
0.683258
0.810429
0.943992
1.05009
1.07319
0.962507
0.900884
0.431997
0.160443
0.152187
0.148429
0.150945
0.16264
0.188714
0.235596
0.305464
0.392711
0.491317
0.596536
0.705919
0.834336
0.980228
1.09188
1.11123
1.02396
0.953149
0.456549
0.182919
0.170258
0.162779
0.162716
0.173259
0.199574
0.246955
0.315119
0.397346
0.487692
0.580353
0.675265
0.797785
0.937974
1.04585
1.08643
1.06444
0.985485
0.473713
0.218766
0.199864
0.186211
0.180662
0.186517
0.208385
0.250024
0.308997
0.378733
0.454509
0.528712
0.608451
0.727037
0.871493
0.999417
1.07839
1.10615
1.00097
0.484961
0.272419
0.246651
0.224883
0.210785
0.207983
0.220711
0.251831
0.297247
0.347578
0.403428
0.457822
0.532542
0.667239
0.841344
0.996562
1.10121
1.1525
1.00892
0.493418
0.34467
0.313946
0.284502
0.260528
0.246166
0.245814
0.2628
0.295102
0.328657
0.358709
0.398252
0.493171
0.663869
0.86707
1.03203
1.14045
1.1991
1.01229
0.49983
0.430638
0.399073
0.365496
0.333843
0.308282
0.293485
0.294312
0.31189
0.335032
0.356956
0.40187
0.52679
0.728069
0.937663
1.08925
1.18117
1.23967
1.01451
0.503451
0.521343
0.493438
0.460767
0.426468
0.393938
0.367528
0.353049
0.354971
0.371315
0.401675
0.475783
0.625199
0.830364
1.02361
1.1491
1.21517
1.26512
1.01499
0.50336
0.607147
0.58623
0.558831
0.52722
0.493942
0.462585
0.438377
0.427916
0.438211
0.481875
0.575774
0.731011
0.923264
1.09576
1.1971
1.24129
1.27073
1.00824
0.50035
0.681062
0.668457
0.648921
0.62383
0.594887
0.564771
0.537957
0.521592
0.526983
0.57004
0.662293
0.808475
0.984537
1.14007
1.22496
1.25763
1.25528
0.994919
0.496542
0.738751
0.734306
0.723435
0.706623
0.684792
0.659819
0.635358
0.618033
0.619272
0.651974
0.730624
0.85937
1.01685
1.1569
1.23273
1.26385
1.22658
0.97853
0.494255
0.777687
0.780471
0.77795
0.769759
0.756085
0.73806
0.71848
0.702799
0.700235
0.722988
0.785592
0.893659
1.02951
1.15245
1.22484
1.2631
1.19628
0.963107
0.495733
0.796896
0.805635
0.810547
0.810511
0.805042
0.794595
0.781129
0.768843
0.764814
0.780233
0.828545
0.91624
1.0292
1.13354
1.20463
1.25697
1.17638
0.954657
0.502758
0.796798
0.810125
0.821213
0.828386
0.830619
0.827796
0.821102
0.813596
0.810642
0.821711
0.858627
0.928261
1.0204
1.1085
1.1783
1.24731
1.16968
0.953696
0.51537
0.779196
0.795799
0.811611
0.824684
0.833715
0.838144
0.838457
0.836675
0.836753
0.845903
0.874108
0.928946
1.00601
1.08683
1.15941
1.22954
1.16416
0.95573
0.532028
0.74725
0.76585
0.784848
0.802317
0.816899
0.827707
0.834639
0.838793
0.842836
0.851565
0.873082
0.916886
0.987566
1.0745
1.16152
1.20917
1.13063
0.954861
0.551125
0.706231
0.725016
0.745126
0.765115
0.783571
0.799316
0.811718
0.821025
0.828636
0.837669
0.854774
0.893415
0.96841
1.07336
1.18189
1.17762
1.08674
0.954148
0.572097
0.659405
0.676503
0.695679
0.715808
0.735588
0.753709
0.769172
0.781685
0.792011
0.802999
0.821686
0.864184
0.951233
1.07029
1.14757
1.11549
1.05423
0.964214
0.592664
0.609678
0.623801
0.639863
0.65708
0.674597
0.691335
0.70631
0.719104
0.73021
0.742158
0.761306
0.800537
0.874745
0.964134
1.01244
1.02021
1.02301
0.981175
0.607608
0.552469
0.563986
0.577306
0.591844
0.606916
0.621736
0.635522
0.647687
0.658226
0.668313
0.681591
0.704644
0.746559
0.80698
0.869676
0.932605
0.996885
0.992706
0.610787
0.495919
0.505375
0.516402
0.528622
0.54145
0.554304
0.566669
0.577956
0.587845
0.596879
0.607246
0.62345
0.653528
0.705777
0.782973
0.881978
0.980902
0.984818
0.595996
0.441558
0.449788
0.459247
0.469901
0.48096
0.492135
0.503348
0.513851
0.522974
0.531311
0.540489
0.555335
0.586721
0.650635
0.753276
0.874261
0.975773
0.950236
0.554159
0.41122
0.419656
0.429026
0.441678
0.451946
0.461722
0.473379
0.48287
0.488111
0.493618
0.497672
0.512487
0.558946
0.662262
0.804253
0.904108
0.967175
0.861402
0.453483
0.552076
0.549687
0.555345
0.622329
0.625368
0.610142
0.610426
0.625258
0.613088
0.608753
0.524781
0.505344
0.535753
0.638643
0.772012
0.731946
0.71726
0.511554
0.274992
)
;

boundaryField
{
    leftWall
    {
        type            kqRWallFunction;
        value           nonuniform List<scalar> 
50
(
0.0130656
0.0224343
0.0306627
0.0380015
0.0444214
0.049916
0.0550017
0.0599139
0.0680283
0.0767741
0.085701
0.0949638
0.104665
0.114864
0.125571
0.136677
0.1478
0.158
0.165717
0.169745
0.172208
0.175268
0.178739
0.182408
0.186459
0.191185
0.196891
0.203811
0.212051
0.220957
0.228816
0.235693
0.242001
0.247895
0.252792
0.256528
0.258426
0.260387
0.263396
0.273632
0.293678
0.324218
0.356616
0.381447
0.403632
0.426172
0.412669
0.313587
0.167101
0.089781
)
;
    }
    rightWall
    {
        type            kqRWallFunction;
        value           nonuniform List<scalar> 
50
(
0.00512492
0.00544778
0.00610324
0.00696729
0.00782281
0.0085957
0.00928134
0.0099134
0.0105899
0.0114006
0.0120689
0.0126457
0.0131868
0.0137476
0.0143842
0.0151646
0.0162236
0.0179666
0.0216522
0.030679
0.0522342
0.0957837
0.163862
0.244687
0.321386
0.384476
0.431997
0.456549
0.473713
0.484961
0.493418
0.49983
0.503451
0.50336
0.50035
0.496542
0.494255
0.495733
0.502758
0.51537
0.532028
0.551125
0.572097
0.592664
0.607608
0.610787
0.595996
0.554159
0.453483
0.274992
)
;
    }
    lowerWall
    {
        type            kqRWallFunction;
        value           nonuniform List<scalar> 
62
(
0.0130656
0.017702
0.0225891
0.0266118
0.0296056
0.0318609
0.0335697
0.0351239
0.0365071
0.0377008
0.0387745
0.0397653
0.0409173
0.0425647
0.0441046
0.0450666
0.0449806
0.0433144
0.0396546
0.0339609
0.0274353
0.019888
0.0109505
0.0109505
0.0198148
0.0231099
0.0237542
0.022704
0.0213435
0.0203594
0.0227909
0.0617387
0.0681413
0.0754133
0.0828555
0.0105288
0.0134539
0.0207544
0.0279442
0.0346887
0.0416946
0.049528
0.0601477
0.0105288
0.0116171
0.01471
0.0165716
0.017646
0.0182295
0.0184505
0.018422
0.0182586
0.0178337
0.0171958
0.0163585
0.0153094
0.0140266
0.0125013
0.0108522
0.0109457
0.0101116
0.00512492
)
;
    }
    atmosphere
    {
        type            inletOutlet;
        inletValue      uniform 0.1;
        value           nonuniform List<scalar> 
46
(
0.1
0.154978
0.1
0.1
0.1
0.1
0.1
0.1
0.1
0.1
0.1
0.1
0.1
0.277638
0.1
0.341833
0.1
0.1
0.397938
0.398715
0.1
0.423906
0.1
0.465611
0.474138
0.1
0.1
0.1
0.549687
0.555345
0.1
0.1
0.610142
0.610426
0.1
0.1
0.1
0.524781
0.505344
0.535753
0.638643
0.772012
0.1
0.71726
0.511554
0.1
)
;
    }
    defaultFaces
    {
        type            empty;
    }
}


// ************************************************************************* //
