/*--------------------------------*- C++ -*----------------------------------*\
  =========                 |
  \\      /  F ield         | OpenFOAM: The Open Source CFD Toolbox
   \\    /   O peration     | Website:  https://openfoam.org
    \\  /    A nd           | Version:  9
     \\/     M anipulation  |
\*---------------------------------------------------------------------------*/
FoamFile
{
    format      ascii;
    class       volScalarField;
    location    "0.55";
    object      nut;
}
// * * * * * * * * * * * * * * * * * * * * * * * * * * * * * * * * * * * * * //

dimensions      [0 2 -1 0 0 0 0];

internalField   nonuniform List<scalar> 
2268
(
0.000102872
8.80183e-05
9.94977e-05
0.000108372
0.000114505
0.000118897
0.000122088
0.000124875
0.0001273
0.000129341
0.000131138
0.000132773
0.000134825
0.000137501
0.000139853
0.000141253
0.000141008
0.000138276
0.000132219
0.000122317
0.000109863
9.34548e-05
6.92813e-05
0.000209192
0.000600338
0.000753255
0.000868582
0.000960665
0.00103288
0.00108478
0.00111236
0.0011308
0.00114576
0.00115832
0.00116815
0.00117244
0.00116404
0.00114271
0.00110658
0.00105
0.000966085
0.000852276
0.000688593
0.000475516
0.000318949
0.000197434
0.000244154
0.00103468
0.0014167
0.00168333
0.00188402
0.00202775
0.00211931
0.00216366
0.00218454
0.0021916
0.00218833
0.002175
0.00214864
0.00210262
0.00203264
0.00193219
0.00179592
0.00161505
0.00139254
0.00112608
0.000790323
0.000499128
0.000213365
0.000271761
0.00137544
0.00199598
0.00240867
0.00270461
0.00290567
0.00302493
0.0030764
0.00308801
0.00307351
0.00303897
0.00298595
0.00291223
0.00281231
0.00268032
0.00250876
0.00228808
0.00201439
0.00170003
0.00135742
0.000963098
0.000600503
0.000216445
0.000294246
0.00165223
0.00249759
0.0030473
0.00342797
0.00367799
0.00381953
0.00387362
0.00387003
0.00382767
0.00375494
0.00365489
0.00352627
0.00336429
0.00316235
0.00291246
0.00260703
0.00224591
0.0018473
0.00144041
0.00101874
0.000631777
0.000211709
0.000312062
0.00188181
0.0029319
0.00361026
0.00406938
0.00436445
0.00452659
0.0045831
0.00456204
0.00449028
0.00437755
0.00422838
0.00404247
0.00381548
0.00354038
0.00320896
0.00281535
0.00236454
0.0018839
0.00141886
0.000993375
0.000615158
0.000205272
0.000327556
0.00207486
0.00330895
0.00410822
0.00464211
0.00498088
0.00516393
0.00522306
0.00518722
0.00508787
0.00493689
0.00474029
0.00449874
0.00420824
0.00386146
0.00344993
0.00296921
0.0024293
0.00186795
0.00134784
0.000919899
0.000571892
0.000200634
0.000341775
0.002239
0.00363787
0.0045507
0.00515687
0.00553932
0.00574481
0.00580881
0.00576214
0.00563912
0.00545426
0.00521497
0.00492301
0.00457492
0.00416333
0.00367966
0.00312053
0.00250009
0.00186563
0.00129534
0.000856846
0.0005396
0.000212799
0.000287549
7.24984e-05
8.1697e-05
8.66409e-05
8.93892e-05
9.08689e-05
9.14439e-05
9.13871e-05
9.103e-05
9.00092e-05
8.84238e-05
8.62723e-05
8.34742e-05
7.98998e-05
7.54134e-05
7.02096e-05
0.000304037
0.000276237
0.000124497
0.000183396
0.000526725
0.000603314
0.00065988
0.000706858
0.00074726
0.000777852
0.000795885
0.000794744
0.000788848
0.00077834
0.000762053
0.000737993
0.000703423
0.000654706
0.000586649
0.000526
0.000464087
0.000115884
0.000228647
0.000974951
0.00122452
0.00139453
0.00152182
0.00161088
0.0016623
0.00167946
0.00166519
0.00163604
0.00159355
0.00153598
0.00145988
0.00136063
0.00123261
0.00106892
0.000865807
0.000603802
0.000122943
0.000264864
0.00137177
0.00183885
0.00212758
0.00232098
0.00243771
0.00248932
0.00248913
0.00244795
0.00238198
0.00229441
0.00218381
0.00204629
0.00187655
0.00166811
0.00141284
0.00109946
0.000698003
0.0001315
0.000295114
0.00172761
0.00242271
0.0028205
0.00306128
0.00318865
0.00322778
0.00320116
0.00312494
0.00301576
0.00287839
0.00271212
0.00251322
0.0022763
0.00199477
0.00166021
0.0012597
0.000763033
0.000139401
0.000323603
0.00205624
0.00296946
0.00346375
0.0037368
0.0038627
0.00388125
0.00382305
0.00370795
0.00355343
0.00336576
0.00314508
0.00288817
0.00259
0.00224436
0.00184342
0.00137481
0.000811163
0.000146184
0.000352668
0.00237564
0.00348339
0.00405814
0.00435094
0.00446646
0.00445899
0.00436649
0.00421138
0.00401182
0.00377544
0.00350338
0.0031931
0.00284024
0.00243937
0.00198368
0.001462
0.000849538
0.000151995
0.000388176
0.00272076
0.00397929
0.00461001
0.00490991
0.00500777
0.00497031
0.0048424
0.00464787
0.00440495
0.00412261
0.003803
0.00344442
0.00304334
0.00259533
0.00209467
0.00153127
0.000881812
0.000157195
0.000363777
0.00245962
0.00409005
0.0051701
0.00588738
0.00634073
0.0065869
0.00666603
0.00661071
0.00645146
0.00621677
0.00591598
0.00555298
0.00512607
0.00462917
0.00405531
0.00340442
0.00269764
0.00199296
0.00137736
0.000915311
0.000612758
0.000432459
0.000386073
0.00267883
0.0045419
0.00580711
0.00666196
0.00721541
0.00753217
0.00765643
0.00762239
0.00745803
0.00719125
0.00684939
0.00644189
0.00597424
0.00544938
0.00487222
0.00425664
0.00363279
0.00304704
0.00254728
0.00216189
0.00188085
0.00168597
0.000407387
0.00286139
0.00490911
0.00632781
0.0073041
0.00795319
0.00834564
0.0085292
0.00854
0.00840811
0.00816012
0.00782096
0.00741912
0.00696972
0.00648494
0.00597889
0.00547009
0.00498247
0.00454166
0.00416905
0.00387292
0.00364604
0.00353039
0.000428199
0.00301716
0.00521194
0.00675699
0.00783846
0.00857628
0.00904565
0.00929739
0.00936935
0.00929287
0.00909643
0.00880699
0.00844903
0.00804894
0.00763012
0.0072116
0.00680996
0.00644241
0.00612438
0.00586195
0.00565506
0.00552737
0.00551156
0.000448797
0.00315265
0.00546401
0.00711215
0.00828303
0.00910063
0.00964402
0.00996658
0.0101074
0.0100983
0.00996809
0.00974474
0.00945547
0.00912678
0.00878228
0.00844265
0.00812629
0.00784541
0.00760631
0.00741481
0.00727926
0.00721484
0.00723924
0.000469378
0.00327317
0.00567544
0.00740671
0.00865222
0.00953944
0.0101506
0.0105411
0.0107508
0.0108113
0.0107511
0.0105972
0.0103767
0.0101159
0.00983863
0.00956507
0.00931086
0.00908646
0.00889825
0.00875103
0.00865033
0.00860288
0.00861378
0.000490125
0.00338396
0.00585445
0.0076518
0.00895864
0.00990507
0.0105755
0.0110268
0.0112993
0.0114245
0.0114294
0.0113401
0.011182
0.0109803
0.0107578
0.010534
0.0103233
0.0101352
0.00997527
0.00984674
0.00975148
0.00969019
0.00966083
0.000511208
0.00349049
0.00600812
0.00785724
0.00921412
0.0102099
0.0109301
0.0114323
0.0117574
0.0119367
0.0119964
0.0119609
0.0118543
0.0116999
0.0115195
0.0113314
0.0111491
0.0109816
0.0108336
0.0107066
0.0105999
0.010511
0.010435
0.000532728
0.00359814
0.00614294
0.00803238
0.0094303
0.0104668
0.011227
0.0117688
0.0121337
0.0123533
0.0124535
0.0124578
0.0123886
0.0122681
0.0121166
0.0119514
0.0117857
0.0116276
0.0114811
0.0113466
0.0112221
0.0111037
0.0109856
0.000554311
0.00371045
0.00626547
0.00818676
0.00961897
0.0106885
0.0114793
0.012049
0.01244
0.0126846
0.0128093
0.0128371
0.0127897
0.0126882
0.0125521
0.0123981
0.0122387
0.0120817
0.0119306
0.0117852
0.0116431
0.0114997
0.0113496
0.000573726
0.00382376
0.00638281
0.00833031
0.00979151
0.0108874
0.0116996
0.0122859
0.0126895
0.0129442
0.0130772
0.013112
0.0130703
0.0129725
0.012838
0.0126831
0.0125202
0.0123572
0.0121973
0.0120403
0.0118834
0.0117221
0.0115513
0.000585494
0.00392375
0.00650151
0.00847147
0.00995695
0.0110726
0.011898
0.0124909
0.0128955
0.013147
0.0132738
0.0133004
0.0132488
0.01314
0.0129932
0.0128252
0.0126488
0.0124721
0.0122989
0.0121291
0.01196
0.0117875
0.0116065
0.000588323
0.00399934
0.00662235
0.00861329
0.0101192
0.0112492
0.0120813
0.012673
0.0130696
0.0133075
0.0134167
0.0134226
0.0133481
0.0132148
0.0130427
0.0128495
0.0126488
0.0124496
0.0122566
0.0120706
0.0118895
0.0117095
0.0115257
0.000591881
0.00405991
0.00673836
0.00875254
0.0102767
0.0114176
0.0122521
0.012838
0.0132211
0.0134392
0.0135233
0.0134999
0.0133928
0.0132246
0.0130164
0.0127869
0.0125511
0.0123194
0.012098
0.011889
0.0116919
0.0115036
0.0113196
0.000596683
0.00410979
0.00684457
0.00888389
0.0104254
0.0115755
0.0124109
0.0129892
0.0133572
0.0135533
0.0136096
0.0135531
0.0134085
0.0131992
0.0129474
0.0126731
0.0123928
0.0121186
0.0118585
0.0116168
0.011395
0.0111921
0.0110042
0.000601385
0.00414833
0.00693877
0.00900331
0.0105614
0.0117203
0.0125567
0.0131287
0.0134834
0.0136597
0.01369
0.0136017
0.0134199
0.0131686
0.0128708
0.0125477
0.012217
0.0118923
0.0115836
0.0112977
0.0110389
0.010809
0.0106066
0.000605866
0.00417571
0.00701988
0.00910828
0.0106818
0.0118495
0.0126887
0.0132578
0.0136041
0.0137666
0.0137773
0.0136636
0.0134504
0.0131621
0.0128223
0.0124526
0.0120711
0.0116927
0.0113287
0.0109881
0.0106783
0.0104051
0.0101705
0.000610498
0.00419243
0.00708729
0.00919725
0.0107847
0.0119614
0.0128062
0.0133778
0.0137233
0.0138812
0.0138827
0.0137545
0.0135213
0.0132074
0.0128364
0.0124296
0.012005
0.0115769
0.0111573
0.0107564
0.010384
0.0100498
0.00976072
0.000615846
0.00420059
0.00714082
0.00926942
0.0108687
0.0120551
0.0129095
0.0134908
0.0138453
0.0140104
0.0140161
0.0138883
0.0136511
0.0133286
0.0129439
0.0125174
0.0120656
0.0116015
0.0111355
0.0106774
0.0102381
0.00982981
0.00946439
0.00062258
0.00420495
0.00718093
0.00932486
0.0109337
0.0121312
0.0130005
0.0136002
0.0139752
0.014161
0.0141864
0.0140762
0.0138543
0.0135445
0.013169
0.0127466
0.0122913
0.0118135
0.0113206
0.0108203
0.0103219
0.00983793
0.00938295
0.0006316
0.00421231
0.00720895
0.0093646
0.0109811
0.0121924
0.0130835
0.0137115
0.014119
0.0143395
0.0144004
0.0143259
0.0141401
0.0138662
0.0135253
0.0131339
0.0127032
0.0122398
0.0117476
0.0112305
0.0106947
0.0101499
0.00960999
0.000645035
0.00422745
0.00722827
0.00939116
0.0110145
0.0122443
0.0131655
0.0138322
0.0142836
0.0145513
0.0146618
0.0146397
0.0145094
0.0142936
0.0140118
0.0136778
0.0132991
0.0128788
0.0124171
0.011914
0.0113716
0.0107956
0.0101961
0.000658435
0.00424689
0.00724424
0.00940913
0.0110412
0.0122965
0.0132568
0.013971
0.0144746
0.0147978
0.0149676
0.0150104
0.0149511
0.0148119
0.0146097
0.0143548
0.0140512
0.0136984
0.0132933
0.0128328
0.0123158
0.0117439
0.011123
0.000669432
0.00426564
0.00726201
0.00942622
0.011073
0.0123628
0.0133697
0.0141356
0.0146928
0.0150717
0.015303
0.0154161
0.0154372
0.015387
0.0152788
0.0151188
0.0149069
0.0146393
0.0143105
0.0139153
0.01345
0.0129139
0.012309
0.000680158
0.00428697
0.00728722
0.00945625
0.0111283
0.0124606
0.0135156
0.0143273
0.0149271
0.0153503
0.0156346
0.0158148
0.015918
0.0159624
0.0159564
0.015901
0.0157918
0.0156217
0.0153832
0.0150697
0.0146762
0.0141999
0.0136407
0.000692189
0.00432619
0.00733428
0.0095225
0.0112318
0.0126079
0.013699
0.0145334
0.0151483
0.01559
0.0159079
0.0161432
0.0163228
0.0164603
0.0165585
0.0166125
0.016613
0.0165498
0.016413
0.0161948
0.0158893
0.0154927
0.0150016
0.000706417
0.00440633
0.00743172
0.00965778
0.0114102
0.0128156
0.0139088
0.0147208
0.0153075
0.0157313
0.0160564
0.0163286
0.0165724
0.0167953
0.0169936
0.0171565
0.0172702
0.0173204
0.0172947
0.0171835
0.0169801
0.0166808
0.016284
0.000721968
0.00455425
0.0076213
0.00989769
0.0116819
0.0130762
0.0141127
0.0148397
0.0153437
0.0157164
0.0160266
0.0163165
0.0166055
0.0168964
0.0171812
0.0174454
0.0176711
0.0178398
0.0179351
0.0179439
0.0178574
0.0176713
0.017385
0.000736856
0.00479521
0.00794973
0.010267
0.0120412
0.0133559
0.0142528
0.0148349
0.0152292
0.0155327
0.0158081
0.0160905
0.0163948
0.0167229
0.0170671
0.0174127
0.0177398
0.0180261
0.0182495
0.0183913
0.018438
0.0183822
0.0182225
0.00074824
0.00514621
0.00844626
0.0107584
0.0124435
0.0135876
0.0142807
0.0147016
0.0149832
0.0152103
0.0154325
0.015677
0.0159576
0.0162797
0.0166414
0.017033
0.0174363
0.0178269
0.0181767
0.0184593
0.0186534
0.0187452
0.0187292
0.000743839
0.00557114
0.00909272
0.0113181
0.0128125
0.0137031
0.0141886
0.0144657
0.0146466
0.0147942
0.0149451
0.0151215
0.0153388
0.0156091
0.0159401
0.0163313
0.0167713
0.0172368
0.0176964
0.0181155
0.0184626
0.018714
0.0188562
0.000750235
0.00603598
0.00981325
0.0118545
0.0130615
0.0136807
0.0139875
0.0141453
0.0142323
0.0142932
0.0143573
0.0144451
0.0145741
0.0147616
0.0150244
0.0153731
0.015806
0.0163062
0.016843
0.017377
0.0178671
0.0182777
0.0185833
0.00077291
0.00655338
0.0105119
0.0122818
0.013147
0.0135159
0.0136621
0.0136989
0.013681
0.0136457
0.0136193
0.0136206
0.0136651
0.0137695
0.0139555
0.014242
0.0146372
0.0151335
0.0157067
0.0163183
0.0169221
0.0174723
0.0179301
0.000813009
0.00710904
0.0110651
0.0125217
0.0130306
0.0131552
0.0131032
0.012986
0.0128545
0.0127347
0.0126443
0.0125964
0.0126
0.0126556
0.0127894
0.0130248
0.0133767
0.0138464
0.014419
0.0150632
0.0157349
0.0163838
0.0169609
0.000859015
0.00755432
0.0111974
0.0123535
0.0125176
0.0123192
0.0120788
0.0118617
0.0116969
0.0115796
0.0114959
0.0114453
0.0114371
0.0114824
0.0116011
0.0118137
0.0121361
0.0125748
0.0131231
0.0137586
0.0144441
0.0151324
0.0157716
0.000889937
0.00730854
0.0107417
0.0114471
0.0111433
0.0108093
0.0105644
0.0104163
0.010354
0.0103278
0.0102973
0.01027
0.0102719
0.0103336
0.0104689
0.0106875
0.0110001
0.0114137
0.0119256
0.0125201
0.0131687
0.013833
0.0144666
0.000915849
0.00674804
0.00954233
0.00935988
0.00894931
0.00881655
0.00882241
0.00889896
0.009013
0.00909975
0.00913108
0.00913247
0.00916311
0.00926222
0.00942982
0.00966552
0.00997601
0.010367
0.0108339
0.0113624
0.0119312
0.0125134
0.0130728
0.000938039
0.00580501
0.00722446
0.00700988
0.00715782
0.00729029
0.00733998
0.0074923
0.00770077
0.00785634
0.00793414
0.00798585
0.00806532
0.00819552
0.00838316
0.00862846
0.00893042
0.00928447
0.00968239
0.0101143
0.010568
0.0110279
0.0114692
0.000933232
0.00444275
0.00489211
0.00524925
0.00543071
0.00560473
0.00584812
0.00611611
0.00635395
0.00653279
0.00666363
0.00678011
0.0069114
0.00707647
0.0072807
0.00751822
0.00778444
0.00807057
0.00836812
0.00867208
0.0089791
0.0092834
0.00957172
0.000841268
0.00283641
0.0032441
0.00358592
0.00394167
0.00429855
0.00463035
0.0049132
0.00512931
0.00528657
0.0054138
0.0055371
0.00566888
0.00581642
0.00598141
0.0061662
0.00635757
0.00653812
0.00670403
0.00685772
0.00700335
0.00714016
0.00726434
0.000636348
0.00174726
0.00232135
0.00274111
0.00308693
0.00340692
0.0036536
0.00387576
0.00400864
0.00405183
0.00408581
0.00413214
0.00419222
0.00427853
0.00437598
0.00447287
0.00454491
0.00460284
0.0046413
0.00466522
0.00468388
0.00468707
0.00468492
0.000433171
0.00122941
0.00204055
0.00231109
0.00245871
0.0026602
0.00269573
0.00288599
0.00301134
0.00269113
0.00253718
0.00244015
0.00239262
0.00254184
0.00277957
0.00299349
0.00313093
0.00311044
0.00312266
0.00307777
0.00303471
0.00302867
0.00302359
0.000354765
0.000373099
0.000392704
0.000411548
0.00159468
0.00161678
0.00172443
0.00200044
0.00356865
0.00367549
0.00387961
0.00421799
0.00563166
0.005763
0.00595167
0.00619851
0.00735331
0.00745326
0.00757814
0.00772364
0.00867631
0.00872682
0.00878551
0.00884938
0.00966156
0.00966417
0.00966739
0.00966956
0.0103798
0.0103425
0.0103026
0.0102591
0.0108862
0.0108186
0.0107469
0.0106707
0.0112191
0.0111306
0.0110373
0.0109389
0.0114027
0.0113021
0.0111961
0.0110845
0.0114512
0.011346
0.0112349
0.0111174
0.0113723
0.0112684
0.011158
0.0110399
0.0111727
0.0110734
0.0109671
0.0108513
0.0108631
0.0107684
0.0106665
0.010553
0.010464
0.0103703
0.0102696
0.0101556
0.0100123
0.0099116
0.00980529
0.00968496
0.00956656
0.00944673
0.00932428
0.00918917
0.00921032
0.00905607
0.00890352
0.0087423
0.00904848
0.00884474
0.00864653
0.00844505
0.00918891
0.00892755
0.00867209
0.00841675
0.00970468
0.00939184
0.00908028
0.00876714
0.0105957
0.0102519
0.00990199
0.00954454
0.0117843
0.0114357
0.011074
0.0106986
0.0131494
0.0128178
0.0124687
0.0121017
0.0145642
0.0142637
0.0139429
0.013603
0.0159173
0.015653
0.0153673
0.0150607
0.0170998
0.0168799
0.0166367
0.01637
0.0180294
0.0178641
0.0176727
0.017455
0.0186388
0.0185395
0.0184109
0.0182528
0.0188778
0.0188557
0.0188012
0.0187139
0.0187207
0.0187839
0.0188127
0.0188062
0.0181767
0.0183265
0.0184417
0.0185213
0.017296
0.0175224
0.017717
0.0178786
0.0161602
0.0164419
0.0166977
0.0169256
0.0148616
0.0151601
0.0154395
0.0156986
0.0134186
0.0136903
0.0139523
0.0142041
0.0117396
0.0119564
0.012168
0.0123762
0.00974418
0.00988451
0.0100221
0.0101592
0.00733428
0.00738928
0.0074402
0.00748978
0.00467509
0.00466608
0.00464153
0.0046195
0.0030548
0.00306697
0.00315037
0.00314843
0.00127758
0.00351178
0.00477401
0.00542771
0.00571442
0.00577319
0.00568272
0.0054926
0.00522984
0.00491639
0.004563
0.00417329
0.00374684
0.00328136
0.00277369
0.00221926
0.00160857
0.000918743
0.000162502
0.00294955
0.00468204
0.00578448
0.0063623
0.00659066
0.0065898
0.00643425
0.00617001
0.00583015
0.00543895
0.00500876
0.00454465
0.00404756
0.00351634
0.00294876
0.00234082
0.00168316
0.000953724
0.000168759
0.0048503
0.00600971
0.00679697
0.00720718
0.00733205
0.00725326
0.00702993
0.00669907
0.0062961
0.00584323
0.00535283
0.00483063
0.00427829
0.00369527
0.00307982
0.00242844
0.00173286
0.000974583
0.000173806
0.00657668
0.00724587
0.00771671
0.00793922
0.00794728
0.00778708
0.00749921
0.00711425
0.00666218
0.00616225
0.00562569
0.00505804
0.00446112
0.00383481
0.00317805
0.00248872
0.00176126
0.000983455
0.000178131
0.00792863
0.00826326
0.00848443
0.00854268
0.00844355
0.00821014
0.00786738
0.00744045
0.006952
0.00641715
0.00584503
0.00524026
0.00460473
0.00393924
0.00324468
0.00252195
0.00176974
0.000982817
0.000182209
0.00893091
0.0090486
0.00909007
0.00901937
0.00883201
0.0085386
0.00815332
0.00769556
0.00718033
0.00661795
0.00601469
0.00537409
0.00469888
0.00399291
0.00326205
0.00251329
0.00175079
0.000972719
0.00018648
0.00966164
0.00963455
0.00954957
0.00938274
0.00912741
0.0087873
0.00837079
0.00788892
0.00734947
0.00675724
0.00611524
0.00542685
0.00469876
0.00394295
0.00317662
0.00241796
0.00167697
0.000945773
0.000191373
0.0101863
0.0100598
0.00988626
0.00964976
0.0093438
0.00896771
0.00852402
0.0080148
0.00743966
0.00679719
0.0060883
0.0053207
0.00451293
0.00369503
0.00290346
0.00216969
0.00150476
0.000883721
0.000197474
0.0105514
0.0103566
0.0101213
0.00983449
0.00948903
0.00907933
0.00859982
0.00804218
0.00739698
0.00665876
0.00583372
0.0049468
0.00404357
0.00318192
0.00241407
0.00176732
0.00123472
0.000773837
0.00020632
0.010788
0.0105469
0.0102685
0.00994275
0.00955898
0.00910365
0.00855963
0.00790767
0.00713356
0.00624022
0.00525965
0.00425622
0.00331299
0.00250209
0.00185616
0.0013617
0.000976194
0.000651099
0.000223031
0.0109139
0.0106426
0.0103318
0.00996809
0.00953265
0.0089999
0.00833924
0.00752782
0.00656551
0.00549256
0.00439435
0.00338094
0.00254349
0.00191542
0.00146866
0.00114071
0.00086515
0.000596415
0.000262307
0.0109363
0.0106449
0.0103037
0.00988995
0.00937142
0.00870965
0.00786921
0.0068467
0.00569286
0.00451466
0.0034478
0.00260066
0.00200722
0.00162717
0.0013822
0.00118761
0.000968281
0.000678817
0.000354662
0.0108547
0.0105468
0.010167
0.00967658
0.00902716
0.00817748
0.00711995
0.00590294
0.00465856
0.00354783
0.00269582
0.00214045
0.00183556
0.00169388
0.00162123
0.00152522
0.00131803
0.00094516
0.000525831
0.0106648
0.0103371
0.00990075
0.00929542
0.00846373
0.00739104
0.00614153
0.00485319
0.00369894
0.00283265
0.00230425
0.00206983
0.00203791
0.00210885
0.00218675
0.00216841
0.0019391
0.00142322
0.00073433
0.0103642
0.0100077
0.00949054
0.00873128
0.00768624
0.00641342
0.0050823
0.00389895
0.00301118
0.00248525
0.00230241
0.00237276
0.00258812
0.00285009
0.00306643
0.00311387
0.00282668
0.00209597
0.000895224
0.0099598
0.00956288
0.00894301
0.00800744
0.00676366
0.00538452
0.00413302
0.00320706
0.0026734
0.00250994
0.00265832
0.00300804
0.00344533
0.00388576
0.0042368
0.00432866
0.00392133
0.00290348
0.000982532
0.00947525
0.00902909
0.00829903
0.00719883
0.00582506
0.00447454
0.0034438
0.00285538
0.00268651
0.00286166
0.00330494
0.00390169
0.00454154
0.00515092
0.00561656
0.00570937
0.00511406
0.00379864
0.00102648
0.00895694
0.00846082
0.0076378
0.00642489
0.00502224
0.00381606
0.00307048
0.00281664
0.00297194
0.00343385
0.00410468
0.00490467
0.0057258
0.00649317
0.00706061
0.00713316
0.00631078
0.00471553
0.00105111
0.00847663
0.00793763
0.00706312
0.00581446
0.00447
0.00345054
0.00296081
0.00296461
0.00334723
0.00400176
0.00483406
0.00576021
0.00672595
0.0076666
0.00836161
0.00843203
0.00738848
0.00539224
0.00106415
0.00813004
0.00755214
0.00667282
0.00545666
0.0042021
0.0033261
0.00299262
0.00313516
0.00363217
0.00438402
0.00529023
0.00626827
0.00734122
0.00844819
0.00925654
0.00932968
0.00820462
0.00586327
0.00105803
0.00803124
0.00739958
0.0065375
0.0053861
0.00419721
0.00337101
0.00307059
0.00323027
0.00373826
0.00449825
0.00539906
0.00637313
0.00754296
0.00880735
0.00974157
0.00988138
0.00878965
0.00618284
0.00106538
0.00829502
0.00757724
0.00671484
0.00562506
0.00445733
0.0035771
0.00318823
0.00324861
0.00366133
0.00433319
0.00514613
0.00609128
0.00741556
0.00894283
0.0101033
0.0103596
0.00930115
0.00643757
0.00107201
0.00899172
0.00816813
0.00726583
0.00621322
0.00504336
0.00402874
0.00343678
0.00328627
0.00348649
0.00396459
0.00461204
0.00558827
0.00723377
0.00912631
0.0105176
0.0108672
0.00981136
0.00667358
0.00108046
0.010096
0.00918813
0.00822692
0.00718172
0.00602532
0.00487594
0.00399834
0.00352932
0.00345993
0.00367432
0.00415694
0.00535158
0.00737304
0.00955761
0.011068
0.011422
0.010312
0.0068849
0.00108589
0.0114888
0.01055
0.00955435
0.00850538
0.007383
0.00619313
0.00504433
0.00420057
0.00382488
0.00384091
0.00435577
0.00585578
0.00815633
0.0103963
0.0118021
0.0119987
0.0107643
0.00706498
0.00108562
0.0130122
0.0120986
0.0111168
0.0100834
0.00899804
0.00784056
0.00663588
0.00555104
0.00487543
0.00478097
0.00554737
0.00727165
0.00954347
0.0115453
0.0126455
0.0125511
0.0111171
0.0071897
0.0010801
0.014516
0.0136738
0.012751
0.0117675
0.0107382
0.00966922
0.00857248
0.00752865
0.00678724
0.00675529
0.00759145
0.00921351
0.0111604
0.0127587
0.0134675
0.0130337
0.0113315
0.00721823
0.00107301
0.015888
0.015147
0.0143181
0.0134214
0.0124776
0.01151
0.0105531
0.00968535
0.0091046
0.00911125
0.0098017
0.0111133
0.0126421
0.0138195
0.0141511
0.0134044
0.011402
0.00716446
0.00106756
0.0170505
0.0164273
0.0157127
0.0149252
0.0140869
0.013227
0.0123925
0.011669
0.0112168
0.0111867
0.0116998
0.0126925
0.0138326
0.0146357
0.0146513
0.0136572
0.0113783
0.00706556
0.00106578
0.0179419
0.0174493
0.0168617
0.0161965
0.0154745
0.0147254
0.0139964
0.0133656
0.0129519
0.0128724
0.0132188
0.0139307
0.0147326
0.0152139
0.0149851
0.0138275
0.0113349
0.00695828
0.00107027
0.0185147
0.0181654
0.0177153
0.017181
0.016582
0.0159459
0.0153149
0.0147542
0.0143523
0.0142126
0.0144058
0.0148771
0.0153917
0.0156013
0.015189
0.0139596
0.0113577
0.0069157
0.00108201
0.0187364
0.0185425
0.0182392
0.0178429
0.0173724
0.0168526
0.0163194
0.0158254
0.0154369
0.0152431
0.0153036
0.015575
0.0158585
0.0158537
0.0153076
0.0140833
0.0114707
0.00694396
0.00109885
0.0185927
0.0185621
0.0184121
0.0181586
0.0178207
0.0174209
0.0169891
0.0165668
0.0162042
0.0159728
0.0159269
0.0160424
0.0161584
0.016012
0.0153881
0.0141639
0.0115959
0.00699946
0.00111799
0.0180907
0.0182202
0.0182222
0.0181117
0.0179074
0.0176293
0.017302
0.0169578
0.0166358
0.0163876
0.0162663
0.0162724
0.0162896
0.0160855
0.0154641
0.014177
0.0115701
0.00703518
0.00113892
0.0172563
0.0175214
0.0176593
0.0176827
0.0176068
0.0174476
0.0172243
0.016962
0.0166924
0.0164529
0.0162945
0.0162469
0.0162405
0.0160688
0.015528
0.0140856
0.0114459
0.00709487
0.001162
0.016098
0.0164544
0.0166968
0.0168314
0.0168678
0.0168169
0.0166926
0.0165142
0.0163079
0.0161097
0.0159673
0.0159316
0.0159741
0.0158745
0.0152594
0.0137806
0.011305
0.00720319
0.00118391
0.0146118
0.0149959
0.0152896
0.0154934
0.0156117
0.0156494
0.0156138
0.0155178
0.015382
0.0152388
0.0151263
0.0150931
0.0151194
0.0149744
0.0143534
0.013098
0.0109822
0.00727035
0.00119998
0.0127269
0.0130737
0.0133634
0.013592
0.0137576
0.0138589
0.013896
0.0138727
0.0138002
0.0136988
0.0135953
0.0135184
0.0134671
0.0133246
0.0128856
0.0119827
0.010376
0.00719585
0.00120432
0.0103964
0.0106409
0.010863
0.0110574
0.0112193
0.0113428
0.0114222
0.0114529
0.0114371
0.0113855
0.0113164
0.0112558
0.0112249
0.0111765
0.0109842
0.010516
0.00950382
0.00691678
0.00118948
0.00757495
0.00767232
0.00777621
0.0078775
0.00797918
0.00807439
0.00815626
0.00821781
0.00825449
0.00827034
0.00828715
0.00833814
0.00846697
0.0086824
0.00890546
0.00894249
0.00846313
0.00641305
0.00114211
0.00459282
0.00458128
0.00459425
0.00459813
0.00463145
0.00468594
0.00476366
0.00484677
0.00492864
0.00501863
0.00515506
0.00537622
0.00579351
0.00648071
0.0072468
0.0075422
0.00727338
0.00551604
0.00101398
0.00310086
0.00310709
0.00310027
0.00316308
0.00314348
0.003167
0.00321326
0.00325177
0.00331747
0.00342236
0.00337977
0.00356688
0.00405821
0.00501805
0.00605106
0.005554
0.00526929
0.00309843
0.000751535
)
;

boundaryField
{
    leftWall
    {
        type            nutkWallFunction;
        Cmu             0.09;
        kappa           0.41;
        E               9.8;
        value           nonuniform List<scalar> 
50
(
1.4467e-05
2.17664e-05
2.68173e-05
3.07072e-05
3.37794e-05
3.62153e-05
3.83383e-05
4.02859e-05
4.33151e-05
4.63598e-05
4.92721e-05
5.21185e-05
5.49368e-05
5.77457e-05
6.05474e-05
6.3315e-05
6.5963e-05
6.82948e-05
7.00033e-05
7.11267e-05
6.77807e-05
6.76642e-05
6.82427e-05
6.88678e-05
6.95572e-05
7.03586e-05
7.13161e-05
7.24585e-05
7.42681e-05
8.04237e-05
8.25538e-05
8.38161e-05
8.48859e-05
8.58462e-05
8.66848e-05
8.73179e-05
8.76747e-05
8.80975e-05
8.48128e-05
7.8845e-05
7.84215e-05
8.1893e-05
8.55005e-05
8.81541e-05
9.04512e-05
9.2855e-05
9.23975e-05
8.02854e-05
6.00901e-05
4.58731e-05
)
;
    }
    rightWall
    {
        type            nutkWallFunction;
        Cmu             0.09;
        kappa           0.41;
        E               9.8;
        value           nonuniform List<scalar> 
50
(
6.96173e-06
7.50596e-06
8.55657e-06
9.84717e-06
1.10376e-05
1.20506e-05
1.29066e-05
1.36642e-05
1.44451e-05
1.53444e-05
1.60586e-05
1.66572e-05
1.72048e-05
1.77589e-05
1.83726e-05
1.91042e-05
2.00635e-05
2.1568e-05
2.44982e-05
3.06554e-05
4.2095e-05
5.8902e-05
7.75042e-05
9.08049e-05
9.73442e-05
0.00010266
0.00010247
0.00010452
0.000106247
0.000107387
0.000108236
0.000108878
0.000109229
0.000109201
0.000108893
0.000108511
0.000108282
0.000108428
0.000109123
0.00011036
0.00011197
0.000113781
0.000115732
0.000117607
0.000118948
0.000119231
0.000117907
0.000114065
0.000104118
8.29425e-05
)
;
    }
    lowerWall
    {
        type            nutkWallFunction;
        Cmu             0.09;
        kappa           0.41;
        E               9.8;
        value           nonuniform List<scalar> 
62
(
1.19911e-06
3.22372e-06
5.06525e-06
6.42045e-06
7.35428e-06
8.02249e-06
8.51096e-06
8.94301e-06
9.3184e-06
9.63588e-06
9.91658e-06
1.01717e-05
1.04638e-05
1.08734e-05
1.12481e-05
1.14785e-05
1.1458e-05
1.10568e-05
1.01434e-05
8.62077e-06
6.68307e-06
4.07553e-06
8.87891e-08
8.87891e-08
1.99107e-05
2.21937e-05
2.2618e-05
2.19229e-05
2.09947e-05
2.03022e-05
2.19811e-05
4.12317e-05
4.36119e-05
4.6167e-05
4.8642e-05
0
1.74703e-05
2.38106e-05
2.89021e-05
3.30376e-05
3.68755e-05
4.07567e-05
4.55007e-05
0
4.40171e-07
1.93477e-06
2.74803e-06
3.19359e-06
3.42906e-06
3.51711e-06
3.50578e-06
3.44067e-06
3.26983e-06
3.00887e-06
2.65769e-06
2.20279e-06
1.62145e-06
8.88734e-07
3.59793e-08
8.6255e-08
0
0
)
;
    }
    atmosphere
    {
        type            calculated;
        value           nonuniform List<scalar> 
46
(
0.009
0.00122941
0.009
0.009
0.009
0.009
0.009
0.009
0.009
0.009
0.009
0.009
0.009
0.00254184
0.009
0.00299349
0.009
0.009
0.00312266
0.00307777
0.009
0.00302867
0.009
0.0030548
0.00306697
0.009
0.009
0.009
0.00310709
0.00310027
0.009
0.009
0.003167
0.00321326
0.009
0.009
0.009
0.00337977
0.00356688
0.00405821
0.00501805
0.00605106
0.009
0.00526929
0.00309843
0.009
)
;
    }
    defaultFaces
    {
        type            empty;
    }
}


// ************************************************************************* //
