/*--------------------------------*- C++ -*----------------------------------*\
  =========                 |
  \\      /  F ield         | OpenFOAM: The Open Source CFD Toolbox
   \\    /   O peration     | Website:  https://openfoam.org
    \\  /    A nd           | Version:  9
     \\/     M anipulation  |
\*---------------------------------------------------------------------------*/
FoamFile
{
    format      ascii;
    class       volScalarField;
    location    "0.55";
    object      p_rgh;
}
// * * * * * * * * * * * * * * * * * * * * * * * * * * * * * * * * * * * * * //

dimensions      [1 -1 -2 0 0 0 0];

internalField   nonuniform List<scalar> 
2268
(
578.81
577.322
582.724
592.114
603.406
615.399
628.04
641.514
656.035
671.752
688.724
706.932
726.345
746.982
768.969
792.426
817.408
843.637
870.117
894.668
909.972
916.369
937.147
578.657
576.212
580.581
589.216
599.99
611.728
624.357
637.953
652.669
668.632
685.903
704.477
724.346
745.552
768.218
792.609
818.79
846.597
874.854
900.538
916.877
912.812
935.69
577.599
575.223
579.415
587.035
596.933
608.178
620.582
634.145
648.96
665.129
682.711
701.705
722.114
744.006
767.517
792.878
820.167
849.042
878.179
904.197
922.088
913.688
937.466
576.544
574.482
578.755
585.613
594.702
605.372
617.415
630.802
645.6
661.896
679.745
699.126
720.033
742.542
766.768
792.871
820.852
850.182
879.478
905.398
923.782
924.619
944.137
575.862
574.676
578.469
584.683
593.044
603.112
614.717
627.838
642.537
658.9
676.979
696.707
718.05
741.084
765.897
792.587
821.028
850.526
879.744
905.634
924.679
932.361
953.891
575.484
575.154
578.319
583.915
591.58
601.016
612.135
624.938
639.495
655.903
674.206
694.27
716.008
739.51
764.85
792.09
820.97
850.603
879.774
905.797
925.505
938.541
964.538
575.194
575.314
577.818
582.847
589.856
598.663
609.288
621.764
636.187
652.678
671.277
691.722
713.847
737.784
763.624
791.44
820.83
850.671
879.911
906.2
926.417
944.01
973.725
574.926
574.164
575.748
580.35
586.91
595.295
605.549
617.756
632.105
648.82
667.953
688.976
711.557
735.939
762.27
790.671
820.604
850.744
880.186
906.816
927.308
945.635
977.686
406.201
406.142
406.068
405.964
405.766
405.473
405.123
404.765
404.431
404.129
403.842
403.632
403.729
404.006
402.52
400.992
441.175
822.527
1523.53
406.192
406.137
406.088
405.998
405.8
405.497
405.142
404.785
404.458
404.165
403.886
403.625
403.359
402.814
401.321
400.18
414.955
662.762
1459.41
406.194
406.16
406.113
406.007
405.789
405.474
405.121
404.773
404.453
404.168
403.905
403.613
403.257
402.824
402.545
403.348
408.294
498.33
1344.68
406.209
406.204
406.132
405.988
405.741
405.419
405.072
404.732
404.413
404.118
403.828
403.497
403.108
402.723
402.527
403.599
408.263
432.45
1177.89
406.236
406.267
406.145
405.955
405.682
405.356
405.014
404.676
404.354
404.046
403.741
403.403
403.012
402.666
402.483
403.76
410.949
541.862
1082.5
406.254
406.35
406.147
405.913
405.623
405.296
404.956
404.62
404.294
403.98
403.673
403.35
402.996
402.68
402.548
404.153
508.427
707.432
1077.29
406.228
406.415
406.128
405.861
405.565
405.241
404.905
404.568
404.242
403.93
403.641
403.372
403.009
402.744
403.116
458.505
754.587
834.885
1138.19
411.724
407.508
406.025
405.794
405.51
405.196
404.863
404.528
404.204
403.902
403.637
403.343
402.986
403.029
415.267
691.834
887.572
952.668
1224.19
480.651
454.897
448.361
460.291
481.861
508.471
537.184
566.922
597.355
627.952
657.405
683.076
706.729
732.093
759.561
789.18
820.064
850.695
880.626
908.121
929.346
942.67
948.36
20.6073
22.6384
31.1093
42.2486
56.9617
76.9614
103.273
137.58
183.005
244.616
328.888
436.257
540.793
640.062
726.029
786.192
820.471
851.569
882.46
913.716
940.177
961.445
983.544
0.599817
0.646512
0.64479
0.642872
0.652733
0.65952
0.660114
0.658678
0.659273
0.664843
0.687612
1.61245
32.1438
92.5724
203.405
420.663
731.816
857.292
886.44
922.468
952.506
979.441
1006.79
0.602665
0.606312
0.61647
0.624664
0.632459
0.638151
0.64131
0.642827
0.643915
0.646775
0.657366
0.683717
0.697521
0.657042
0.61806
4.69363
48.1109
178.611
470.581
899.374
973.126
999.218
1027.71
0.588082
0.590744
0.596759
0.604296
0.610556
0.615403
0.619077
0.622104
0.625357
0.630114
0.637618
0.644306
0.631244
0.625101
0.631416
0.638826
0.577903
0.370065
6.8322
96.0345
314.245
672.135
1037.39
0.577994
0.578896
0.581852
0.586397
0.590858
0.594815
0.598293
0.601583
0.605209
0.609757
0.615305
0.619552
0.616446
0.609464
0.606077
0.601305
0.59021
0.580918
0.539944
0.388444
0.216781
22.2571
125.2
0.563103
0.563899
0.565845
0.56895
0.572263
0.575477
0.57855
0.581595
0.584828
0.588416
0.592137
0.594626
0.593196
0.588455
0.582357
0.573295
0.558574
0.543272
0.545689
0.55127
0.540195
0.492504
0.401778
0.548424
0.548806
0.54993
0.551935
0.554311
0.556827
0.559405
0.562045
0.56478
0.567567
0.570113
0.571568
0.570715
0.567674
0.562902
0.555241
0.543395
0.529371
0.518128
0.508029
0.50594
0.525657
0.539635
0.533171
0.533295
0.533806
0.535034
0.5367
0.538633
0.540742
0.542972
0.545266
0.547509
0.549426
0.550496
0.550116
0.548209
0.544814
0.53948
0.531745
0.52246
0.513082
0.503327
0.497096
0.49857
0.494585
0.517784
0.517531
0.517529
0.518201
0.519341
0.520816
0.522528
0.524398
0.526338
0.52822
0.529824
0.530823
0.530876
0.529847
0.52768
0.52421
0.519367
0.513658
0.507843
0.502038
0.497531
0.495455
0.493219
0.502385
0.50173
0.501276
0.501505
0.502251
0.503365
0.504751
0.506325
0.507995
0.509642
0.511102
0.512162
0.512608
0.512315
0.511214
0.509237
0.506422
0.503096
0.499749
0.496681
0.494529
0.493751
0.493927
0.487034
0.486014
0.485173
0.485044
0.485469
0.48629
0.48741
0.488746
0.490212
0.49171
0.493118
0.494291
0.495091
0.495415
0.495204
0.494424
0.493128
0.491518
0.489908
0.488608
0.488096
0.488666
0.49033
0.471743
0.470439
0.469289
0.468864
0.469019
0.469594
0.470492
0.471636
0.472948
0.47435
0.475751
0.477052
0.478156
0.478985
0.479488
0.479642
0.479487
0.479149
0.478835
0.478805
0.479441
0.480997
0.483706
0.456495
0.455009
0.453638
0.452975
0.452901
0.453263
0.453972
0.454957
0.456149
0.457483
0.458893
0.460308
0.461658
0.462884
0.463939
0.464799
0.465483
0.466069
0.466695
0.467575
0.469027
0.471293
0.4747
0.441259
0.439694
0.438193
0.43735
0.437084
0.437263
0.437809
0.438657
0.439748
0.441028
0.442444
0.443944
0.445476
0.446993
0.44845
0.449819
0.451098
0.452327
0.453598
0.455084
0.457062
0.459759
0.46352
0.426009
0.424452
0.422901
0.421936
0.421518
0.421544
0.421947
0.422674
0.423674
0.424901
0.42631
0.427861
0.42951
0.431217
0.43294
0.434645
0.436312
0.437951
0.439621
0.441457
0.443701
0.446561
0.450358
0.410724
0.409239
0.407705
0.40667
0.40614
0.406041
0.406324
0.406944
0.407858
0.409025
0.410409
0.411972
0.413678
0.415485
0.417353
0.419241
0.421117
0.42297
0.424829
0.426796
0.429077
0.431856
0.435413
0.395389
0.394019
0.392549
0.391488
0.390881
0.390686
0.390869
0.391394
0.392225
0.393326
0.394663
0.396203
0.397909
0.399739
0.401649
0.403591
0.405523
0.407419
0.409284
0.411189
0.413308
0.415793
0.418874
0.380001
0.378764
0.377387
0.376334
0.375682
0.375417
0.375517
0.375958
0.376707
0.377734
0.379005
0.380487
0.382143
0.383928
0.385792
0.387682
0.389543
0.391336
0.393048
0.394725
0.396507
0.398514
0.40092
0.364556
0.363455
0.362183
0.361161
0.36049
0.360176
0.360211
0.360576
0.361244
0.362188
0.363375
0.36477
0.366333
0.368015
0.369759
0.371505
0.373191
0.374763
0.376192
0.377501
0.378798
0.380173
0.381746
0.349053
0.348077
0.346911
0.345934
0.345263
0.344919
0.344902
0.345199
0.345789
0.346642
0.347729
0.349012
0.350446
0.351978
0.353544
0.355074
0.3565
0.357756
0.3588
0.359635
0.360338
0.360969
0.3616
0.333491
0.33262
0.331552
0.330626
0.329969
0.32961
0.329555
0.329794
0.330306
0.331066
0.332041
0.333192
0.334471
0.335817
0.33716
0.338423
0.339528
0.340402
0.340991
0.34128
0.341322
0.341148
0.340784
0.317866
0.317077
0.316095
0.31522
0.314586
0.314225
0.314143
0.314333
0.314775
0.31544
0.316298
0.317305
0.31841
0.319547
0.32064
0.321606
0.322356
0.322811
0.322908
0.322619
0.321974
0.320986
0.319638
0.302173
0.301448
0.300535
0.299708
0.299101
0.298746
0.298649
0.2988
0.299178
0.299755
0.300495
0.301355
0.302279
0.303198
0.304031
0.304688
0.305074
0.305105
0.304708
0.303848
0.302535
0.300769
0.298503
0.286411
0.285732
0.284872
0.284087
0.283508
0.283166
0.283062
0.283183
0.283507
0.284003
0.284632
0.28535
0.286097
0.286802
0.287381
0.287738
0.287776
0.287403
0.286544
0.285154
0.283232
0.28077
0.277704
0.270578
0.269935
0.269113
0.268359
0.267808
0.267482
0.267377
0.267478
0.267757
0.268181
0.268712
0.269298
0.269882
0.270389
0.270734
0.270819
0.270543
0.269813
0.268551
0.266707
0.264272
0.261236
0.257525
0.254672
0.25406
0.253261
0.252532
0.252005
0.251697
0.251596
0.251682
0.251926
0.252292
0.252737
0.253209
0.253649
0.253982
0.254124
0.253977
0.253441
0.25242
0.250838
0.248643
0.245822
0.242367
0.238201
0.238696
0.238109
0.237323
0.23661
0.236106
0.235816
0.235722
0.2358
0.236019
0.236338
0.236712
0.237089
0.237408
0.237598
0.237574
0.237245
0.236511
0.23528
0.233479
0.231056
0.228
0.224304
0.219899
0.222648
0.222081
0.221302
0.220603
0.220118
0.219845
0.219761
0.219838
0.220039
0.220323
0.220643
0.220944
0.221167
0.221243
0.221094
0.220634
0.219771
0.218418
0.216506
0.21399
0.210862
0.207122
0.202703
0.206532
0.20598
0.205206
0.204518
0.204051
0.203795
0.203722
0.203801
0.203992
0.204252
0.204531
0.204775
0.204926
0.204919
0.204684
0.204144
0.203218
0.201828
0.199913
0.197438
0.194402
0.190812
0.186605
0.190353
0.189811
0.189041
0.188362
0.187911
0.187672
0.187612
0.187696
0.187884
0.188127
0.188378
0.188581
0.188682
0.188621
0.188336
0.187761
0.186829
0.185477
0.183656
0.181346
0.178555
0.175295
0.171507
0.174119
0.173579
0.172814
0.172142
0.171705
0.171482
0.171435
0.171527
0.171715
0.17195
0.172182
0.172361
0.172431
0.17234
0.172035
0.171463
0.170573
0.169319
0.167671
0.165625
0.163202
0.160424
0.157233
0.157836
0.157283
0.156526
0.15586
0.155436
0.155228
0.155196
0.155297
0.155487
0.155718
0.155942
0.156109
0.156166
0.156067
0.155766
0.155225
0.154409
0.153295
0.151875
0.150162
0.148197
0.146007
0.143543
0.141515
0.140911
0.140166
0.139509
0.139099
0.138909
0.138893
0.139005
0.1392
0.139432
0.139655
0.13982
0.139879
0.139789
0.139512
0.139022
0.138302
0.13735
0.136184
0.13484
0.133374
0.131827
0.130163
0.125179
0.124439
0.123715
0.123076
0.122688
0.122523
0.122527
0.122652
0.122855
0.123091
0.123317
0.123489
0.123563
0.123497
0.12326
0.122834
0.122219
0.121435
0.120523
0.119544
0.118576
0.117671
0.116814
0.108842
0.107826
0.107138
0.106541
0.106193
0.106066
0.106098
0.10624
0.106451
0.106692
0.106926
0.107112
0.10721
0.107182
0.106998
0.106647
0.10614
0.105514
0.104834
0.104186
0.103668
0.103347
0.103233
0.0925051
0.0910063
0.0903798
0.0898687
0.0895978
0.0895302
0.0896004
0.0897622
0.0899823
0.09023
0.0904735
0.0906785
0.0908089
0.0908296
0.0907125
0.0904467
0.0900479
0.0895651
0.0890807
0.0887026
0.0885464
0.0886984
0.0891969
0.0761941
0.0739214
0.0733584
0.0730107
0.0728732
0.0728944
0.0730138
0.0731975
0.0734257
0.0736787
0.0739331
0.0741611
0.0743313
0.0744112
0.0743729
0.0742038
0.0739179
0.0735659
0.0732379
0.0730547
0.0731463
0.0736173
0.0745386
0.0598333
0.0565723
0.0560357
0.0559874
0.0560582
0.0561879
0.0563571
0.0565588
0.0567912
0.0570476
0.0573136
0.057568
0.0577843
0.0579325
0.057985
0.0579258
0.0577626
0.0575385
0.0573379
0.0572796
0.057497
0.0581065
0.0592013
0.0429606
0.0388305
0.0383802
0.0390551
0.0394621
0.0396864
0.0398775
0.0400794
0.0403064
0.040562
0.0408391
0.0411217
0.0413877
0.0416103
0.0417629
0.0418267
0.0418002
0.0417117
0.0416267
0.0416458
0.041888
0.042463
0.0434441
0.0254088
0.0193879
0.0197439
0.0221829
0.0230982
0.0233688
0.0235388
0.0237203
0.0239352
0.0241904
0.0244821
0.0247978
0.0251193
0.0254243
0.0256893
0.0258937
0.0260271
0.026099
0.0261478
0.0262426
0.0264706
0.0269175
0.0276821
0.011262
-0.00448109
-0.00142215
0.00261648
0.00366798
0.00395927
0.00414474
0.00434067
0.00457751
0.0048646
0.00519976
0.00557491
0.00597875
0.00639742
0.00681479
0.00721353
0.00757772
0.00789792
0.00817756
0.00843703
0.0087102
0.00903414
0.00946534
923.979
932.709
942.821
941.997
994.858
1002.09
1008.07
1014.46
1023.09
1033.48
1044.3
1057.43
1045.34
1059.2
1074.93
1091.17
1082.5
1090.83
1102.6
1117.28
252.216
367.405
512.726
689.142
0.323068
0.200767
1.57348
10.6305
0.55433
0.56105
0.561051
0.538082
0.486085
0.486815
0.499672
0.523453
0.493095
0.493697
0.49568
0.498931
0.495221
0.496481
0.498611
0.500662
0.492186
0.49382
0.496393
0.499378
0.486175
0.488138
0.490985
0.494439
0.477539
0.479692
0.482711
0.486378
0.466452
0.468599
0.471599
0.475261
0.453115
0.455042
0.457779
0.461186
0.437758
0.439279
0.441532
0.444455
0.420621
0.421599
0.42321
0.425479
0.401925
0.402274
0.403149
0.404665
0.3819
0.381569
0.381666
0.382392
0.360832
0.359801
0.359116
0.359052
0.339088
0.337368
0.335925
0.335098
0.317061
0.314706
0.312568
0.311036
0.295138
0.292232
0.289498
0.287361
0.273678
0.270326
0.267118
0.2645
0.253001
0.249329
0.245792
0.242842
0.23336
0.229502
0.225785
0.222658
0.214934
0.21102
0.207262
0.204098
0.197813
0.19397
0.190291
0.187206
0.18199
0.178341
0.174847
0.171923
0.167359
0.164023
0.160808
0.158106
0.153723
0.150814
0.147966
0.145537
0.140807
0.138429
0.136039
0.133938
0.128287
0.126522
0.124677
0.122972
0.115819
0.114715
0.113482
0.112243
0.103064
0.102617
0.102025
0.101306
0.0897248
0.0898684
0.0898872
0.0897013
0.0755674
0.0761727
0.0767012
0.0770054
0.0604528
0.0613245
0.0621888
0.0628744
0.044503
0.0453529
0.0463093
0.0472299
0.0286312
0.0293367
0.0301107
0.0308953
0.0099983
0.0103866
0.0108569
0.0114286
569.91
405.116
405.844
405.69
405.435
405.143
404.819
404.488
404.173
403.891
403.646
403.394
403.145
433.58
661.03
933.327
1019.98
1131.76
1360.6
802.801
405.345
405.802
405.689
405.402
405.146
404.837
404.509
404.215
403.982
403.843
403.622
445.938
839.993
1066.52
1118.74
1192.89
1316.93
1494.64
1089.28
738.307
405.324
405.602
405.347
405.23
404.945
404.624
404.354
404.156
403.695
461.933
978.936
1176.26
1222.17
1272.98
1339.81
1459.19
1479.62
1119.71
1175.33
976.119
653.446
404.768
405.043
404.615
404.339
404.127
403.693
429.206
905.204
1272.13
1319.57
1366.59
1406.98
1458.04
1560.89
1514.46
1144.57
1187.99
1238.94
1262.34
1151.7
854.77
563.914
491.403
503.994
612.984
1021.52
1356.72
1402.83
1457.85
1509.25
1533.36
1544.23
1623.93
1528.46
1015.64
1208.64
1233.21
1268.09
1309.89
1343.49
1312.58
1252.41
1275.04
1359.39
1440.52
1471.44
1519.56
1585.28
1481.76
1463.81
1586.72
1644.86
1505.04
75.4583
278.393
619.575
953.916
1150.49
1257.44
1270.78
1292.01
1320.89
1358.74
1409.79
1408.52
1333.74
978.251
880.515
1225.49
1654.48
1643.65
1479.41
0.420378
0.214112
4.33322
55.273
163.212
302.014
476.798
600.409
617.296
609.645
547.966
464.707
413.566
493.138
838.167
1596.62
1660.18
1631.27
1429.54
0.560105
0.565906
0.520231
0.350112
0.232112
0.300822
0.556572
2.04566
3.07152
5.519
18.4379
65.7572
180.902
642.866
1636.94
1708.9
1614.58
1144.89
1180.64
0.505553
0.513162
0.558294
0.652278
0.710931
0.764187
0.838592
1.02345
1.49072
2.57373
6.18833
18.4257
65.2947
799.112
1722.06
1746.6
704.657
246.37
402.314
0.503906
0.511756
0.535464
0.577767
0.6204
0.680651
0.778351
0.95551
1.25222
1.65638
2.35895
5.12538
18.9895
471.174
1610.82
1597.43
257.169
183.594
180.284
0.505606
0.518478
0.539692
0.570324
0.609554
0.667661
0.755626
0.886683
1.06183
1.23673
1.37419
2.77536
4.54811
122.823
1191.47
1649.45
374.259
183.922
180.594
0.502212
0.518422
0.542575
0.575749
0.61865
0.67631
0.752691
0.846764
0.939595
0.971568
0.928097
1.37117
1.62259
4.31157
607.304
1663.9
981.626
182.197
179.914
0.494653
0.512163
0.53742
0.571136
0.61357
0.666469
0.729498
0.79509
0.836998
0.798118
0.649296
0.53749
0.779622
0.693347
137.177
1121.28
1296.97
408.921
176.634
0.483517
0.501048
0.525691
0.557615
0.596438
0.641912
0.691348
0.735354
0.751053
0.69759
0.542029
0.326244
0.178552
0.127231
0.411379
509.616
1334.86
719.001
169.177
0.468997
0.485724
0.508834
0.538043
0.57239
0.610544
0.648986
0.679362
0.685786
0.64554
0.541918
0.396422
0.297518
0.295363
0.233395
90.743
1377.88
924.815
160.894
0.451452
0.466774
0.487771
0.513889
0.543831
0.575861
0.606757
0.630564
0.638124
0.619774
0.56999
0.498108
0.445675
0.441665
0.458061
0.631728
1363.53
1080.72
163.21
0.431387
0.444883
0.463393
0.486271
0.512174
0.539444
0.5658
0.587884
0.601964
0.606065
0.601014
0.591083
0.586854
0.595096
0.614525
0.590969
136.723
1094.96
693.065
0.409314
0.42073
0.436559
0.456201
0.47849
0.502167
0.525978
0.548954
0.571052
0.595301
0.626785
0.667484
0.711315
0.742514
0.750916
0.705566
0.60315
1061.24
1099.65
0.385708
0.394922
0.408011
0.424505
0.44354
0.464282
0.486441
0.510906
0.539509
0.579889
0.639977
0.722621
0.814873
0.88513
0.914572
0.889269
1.13871
791.227
1142.47
0.36103
0.368022
0.3784
0.391857
0.407767
0.425719
0.445963
0.470247
0.502786
0.552067
0.628608
0.739737
0.874716
1.14286
1.08162
1.00851
1.42691
580.609
949.324
0.33578
0.340605
0.348366
0.358888
0.37167
0.386529
0.403889
0.425568
0.456126
0.503539
0.577716
0.69003
1.00349
1.53028
1.19178
1.16105
2.15026
616.997
774.533
0.310501
0.313284
0.318585
0.326259
0.335906
0.3472
0.360326
0.376288
0.39804
0.430342
0.476816
0.560793
1.16282
1.82176
3.64064
2.63726
40.4266
722.469
953.472
0.285734
0.286681
0.289738
0.29474
0.301301
0.308834
0.31657
0.324263
0.331251
0.335832
0.335097
0.334332
0.53127
4.78391
52.0079
189.565
269.869
343.371
1004.61
0.261989
0.261382
0.262505
0.265174
0.268879
0.272783
0.275153
0.274187
0.265324
0.241278
0.20338
0.111252
0.11992
0.219079
88.0995
531.958
544.251
183.703
374.738
0.239686
0.237875
0.237464
0.238283
0.239598
0.240397
0.238534
0.231509
0.211802
0.17193
0.101925
-0.0272183
-0.1852
-0.343349
-0.705953
491.332
562.555
243.932
102.848
0.219109
0.216478
0.214975
0.214409
0.21399
0.212552
0.208001
0.200231
0.175027
0.133521
0.063164
-0.023756
-0.166214
-0.349144
-0.50755
7.82149
575.191
644.963
112.992
0.200395
0.197307
0.195115
0.19363
0.19207
0.189437
0.183516
0.179825
0.243857
0.218243
0.0909676
0.164204
-0.00493254
-0.185609
-0.26048
-0.470315
469.849
668.608
220.343
0.183538
0.180292
0.177742
0.175664
0.17334
0.174717
0.200871
0.16329
0.308034
0.283238
0.247055
0.195028
0.135333
-0.0389261
-0.0567335
-0.210628
543.084
690.254
234.586
0.168421
0.165223
0.162531
0.160105
0.157281
0.16347
0.209191
0.142177
0.218674
0.221675
0.214237
0.205131
0.0977483
0.094751
0.149377
16.4643
806.689
503.206
240.352
0.154844
0.151805
0.149047
0.146333
0.142986
0.145365
0.192676
0.125095
0.109018
0.0873736
0.0520031
0.059715
0.0185947
0.249745
0.295415
518.764
842.295
678.436
248.418
0.142556
0.139713
0.136861
0.133736
0.129533
0.124114
0.138736
0.302148
0.0963726
0.075696
0.0184336
-0.0651355
-0.116968
0.274391
82.4114
862.786
864.244
818.739
255.972
0.131277
0.12865
0.125665
0.122002
0.116657
0.107235
0.0892969
0.28295
1.15944
2.21574
1.68571
-0.0360677
-0.330205
-0.525732
215.914
887.294
884.923
837.157
263.028
0.120695
0.118345
0.115285
0.111166
0.104858
0.0940862
0.073573
0.0506578
2.83658
2.83782
2.79987
2.5383
-0.0190786
-0.708909
-0.501376
568.662
908.133
909.344
285.777
0.110442
0.10848
0.105525
0.1013
0.0948715
0.0840198
0.0650397
0.0391826
1.15364
2.92565
2.84616
2.74287
1.13802
-0.459149
-0.434039
17.2221
792.041
927.094
281.468
0.100078
0.0986352
0.0960151
0.0920582
0.0861499
0.0766755
0.0612404
0.038155
-0.00377709
1.00551
2.93679
2.61509
0.504915
-0.301321
-0.273475
-0.210568
38.7977
430.907
422.13
0.08912
0.0883025
0.0862218
0.08284
0.0778894
0.0703671
0.0585661
0.040551
0.0122267
-0.0296903
0.212051
0.0683435
-0.0831942
-0.157811
-0.192171
-0.113792
-0.2081
10.3144
432.773
0.0770891
0.0769537
0.0755266
0.0728905
0.0691046
0.0636903
0.0555108
0.0433115
0.0246132
-0.00257648
-0.0402123
-0.0828891
-0.124932
-0.149285
-0.143295
-0.10867
-0.076506
-0.168957
163.251
0.0635876
0.0641379
0.0633347
0.0613936
0.0587307
0.0552836
0.0505394
0.0437937
0.0336921
0.0185726
-0.0039901
-0.0343932
-0.0667497
-0.0933472
-0.106475
-0.106434
-0.0923703
-0.0578303
0.229228
0.0485303
0.0497846
0.0493415
0.0476298
0.045646
0.0435908
0.0414078
0.0391432
0.0366316
0.0328087
0.0232784
0.00739322
-0.0134663
-0.0366963
-0.0601454
-0.0885622
-0.101413
-0.0373368
6.80989
0.032211
0.0344761
0.0338238
0.0311342
0.0289183
0.0272273
0.0262372
0.0267773
0.0303285
0.0377876
0.038101
0.0341807
0.0244899
0.00933356
-0.0072019
-0.0156144
-0.0651534
-0.0909635
15.0093
0.0127024
0.0165741
0.0150618
0.0113378
0.00892921
0.007147
0.00622739
0.00745408
0.0138814
0.0325453
0.0500564
0.0381124
0.0311408
0.019433
-0.0108464
-0.11182
-0.549688
-0.721538
9.18453
)
;

boundaryField
{
    leftWall
    {
        type            fixedFluxPressure;
        gradient        uniform 0;
        value           nonuniform List<scalar> 
50
(
578.81
578.657
577.599
576.544
575.862
575.484
575.194
574.926
480.651
20.6073
0.599817
0.602665
0.588082
0.577994
0.563103
0.548424
0.533171
0.517784
0.502385
0.487034
0.471743
0.456495
0.441259
0.426009
0.410724
0.395389
0.380001
0.364556
0.349053
0.333491
0.317866
0.302173
0.286411
0.270578
0.254672
0.238696
0.222648
0.206532
0.190353
0.174119
0.157836
0.141515
0.125179
0.108842
0.0925051
0.0761941
0.0598333
0.0429606
0.0254088
0.011262
)
;
    }
    rightWall
    {
        type            fixedFluxPressure;
        gradient        uniform 0;
        value           nonuniform List<scalar> 
50
(
1523.53
1459.41
1344.68
1177.89
1082.5
1077.29
1138.19
1224.19
1360.6
1494.64
1479.62
1514.46
1528.46
1505.04
1479.41
1429.54
1180.64
402.314
180.284
180.594
179.914
176.634
169.177
160.894
163.21
693.065
1099.65
1142.47
949.324
774.533
953.472
1004.61
374.738
102.848
112.992
220.343
234.586
240.352
248.418
255.972
263.028
285.777
281.468
422.13
432.773
163.251
0.229228
6.80989
15.0093
9.18453
)
;
    }
    lowerWall
    {
        type            fixedFluxPressure;
        gradient        uniform 0;
        value           nonuniform List<scalar> 
62
(
578.81
577.322
582.724
592.114
603.406
615.399
628.04
641.514
656.035
671.752
688.724
706.932
726.345
746.982
768.969
792.426
817.408
843.637
870.117
894.668
909.972
916.369
937.147
937.147
935.69
937.466
944.137
953.891
964.538
973.725
977.686
923.979
932.709
942.821
941.997
406.201
406.192
406.194
406.209
406.236
406.254
406.228
411.724
406.201
406.142
406.068
405.964
405.766
405.473
405.123
404.765
404.431
404.129
403.842
403.632
403.729
404.006
402.52
400.992
441.175
822.527
1523.53
)
;
    }
    atmosphere
    {
        type            totalPressure;
        rho             rho;
        psi             none;
        gamma           1;
        p0              uniform 0;
        value           nonuniform List<scalar> 
46
(
-0.000498818
-0.00755923
-0.00874924
-0.00881739
-0.00871518
-0.00855145
-0.00834654
-0.00809904
-0.00780545
-0.00746457
-0.0070775
-0.00664702
-0.0061773
-0.00567422
-0.00514611
-0.00460453
-0.00406462
-0.00354463
-0.00306387
-0.00263878
-0.00227713
-0.00197101
-0.00169065
-0.00145333
-0.0012435
-0.000967711
-0.000659053
-0.000229221
0
0
0
0
0
0
0
0
0
0
-0.0012307
-0.00556981
-0.0131351
-0.0233125
-0.0343731
-0.0290872
-0.00501376
0
)
;
    }
    defaultFaces
    {
        type            empty;
    }
}


// ************************************************************************* //
