/*--------------------------------*- C++ -*----------------------------------*\
  =========                 |
  \\      /  F ield         | OpenFOAM: The Open Source CFD Toolbox
   \\    /   O peration     | Website:  https://openfoam.org
    \\  /    A nd           | Version:  9
     \\/     M anipulation  |
\*---------------------------------------------------------------------------*/
FoamFile
{
    format      ascii;
    class       surfaceScalarField;
    location    "0.55";
    object      phi;
}
// * * * * * * * * * * * * * * * * * * * * * * * * * * * * * * * * * * * * * //

dimensions      [0 3 -1 0 0 0 0];

internalField   nonuniform List<scalar> 
4432
(
5.17014e-06
-5.17014e-06
2.693e-06
2.47703e-06
-1.65937e-06
4.35239e-06
-5.35869e-06
3.69932e-06
-7.95366e-06
2.5949e-06
-9.35106e-06
1.39749e-06
-9.67172e-06
3.20695e-07
-9.09419e-06
-5.77557e-07
-7.79835e-06
-1.2957e-06
-5.87534e-06
-1.92313e-06
-3.35534e-06
-2.51989e-06
-2.3075e-07
-3.12465e-06
3.51642e-06
-3.74715e-06
7.90674e-06
-4.39038e-06
1.29381e-05
-5.0313e-06
1.84777e-05
-5.53975e-06
2.41671e-05
-5.68936e-06
2.92575e-05
-5.09048e-06
3.23628e-05
-3.10536e-06
3.06819e-05
1.68091e-06
2.15176e-05
9.16423e-06
8.1474e-06
1.33702e-05
8.14748e-06
8.58394e-07
-6.02851e-06
-1.79285e-06
5.12816e-06
-5.48535e-06
8.04485e-06
-8.67605e-06
6.89012e-06
-1.08965e-05
4.81528e-06
-1.21611e-05
2.66216e-06
-1.25896e-05
7.49361e-07
-1.22982e-05
-8.69054e-07
-1.13434e-05
-2.25034e-06
-9.77738e-06
-3.48928e-06
-7.63018e-06
-4.66702e-06
-4.9129e-06
-5.842e-06
-1.61714e-06
-7.04287e-06
2.26209e-06
-8.26976e-06
6.6865e-06
-9.45566e-06
1.15376e-05
-1.03909e-05
1.65211e-05
-1.0673e-05
2.10716e-05
-9.641e-06
2.43708e-05
-6.40475e-06
2.55334e-05
5.18481e-07
2.24053e-05
1.22922e-05
1.22568e-05
2.35186e-05
2.04044e-05
-1.90747e-06
-4.12102e-06
-4.74877e-06
7.9694e-06
-7.7738e-06
1.10698e-05
-1.04592e-05
9.57563e-06
-1.24886e-05
6.84462e-06
-1.38099e-05
3.98352e-06
-1.44469e-05
1.38647e-06
-1.44406e-05
-8.75543e-07
-1.38258e-05
-2.86502e-06
-1.26414e-05
-4.67371e-06
-1.09171e-05
-6.39126e-06
-8.67116e-06
-8.08803e-06
-5.91155e-06
-9.80244e-06
-2.65013e-06
-1.15313e-05
1.07453e-06
-1.31803e-05
5.16119e-06
-1.44777e-05
9.37688e-06
-1.48888e-05
1.32643e-05
-1.35284e-05
1.60747e-05
-9.21522e-06
1.72296e-05
-6.36451e-07
1.60387e-05
1.34832e-05
1.03146e-05
2.92426e-05
3.0719e-05
-3.62985e-06
-4.91172e-07
-6.65834e-06
1.09979e-05
-9.3939e-06
1.38053e-05
-1.18428e-05
1.20246e-05
-1.38174e-05
8.81915e-06
-1.5239e-05
5.40509e-06
-1.60855e-05
2.23306e-06
-1.63646e-05
-5.96495e-07
-1.60986e-05
-3.13102e-06
-1.53186e-05
-5.4537e-06
-1.40554e-05
-7.65446e-06
-1.23344e-05
-9.80901e-06
-1.01758e-05
-1.1961e-05
-7.60278e-06
-1.41044e-05
-4.65485e-06
-1.61282e-05
-1.40717e-06
-1.77254e-05
1.98033e-06
-1.82763e-05
5.18139e-06
-1.67294e-05
7.63054e-06
-1.16645e-05
8.80079e-06
-1.8067e-06
8.68212e-06
1.36019e-05
6.30759e-06
3.1617e-05
3.70266e-05
-4.67447e-06
4.18328e-06
-7.96527e-06
1.42887e-05
-1.06528e-05
1.64928e-05
-1.30381e-05
1.441e-05
-1.50417e-05
1.08228e-05
-1.65927e-05
6.95599e-06
-1.76551e-05
3.29558e-06
-1.82242e-05
-2.75017e-08
-1.83156e-05
-3.03958e-06
-1.79576e-05
-5.8117e-06
-1.71837e-05
-8.42828e-06
-1.6028e-05
-1.09648e-05
-1.45228e-05
-1.34662e-05
-1.2703e-05
-1.59243e-05
-1.06086e-05
-1.82225e-05
-8.29014e-06
-2.00438e-05
-5.83014e-06
-2.07364e-05
-3.40554e-06
-1.91539e-05
-1.36391e-06
-1.37062e-05
-4.86324e-08
-3.12201e-06
1.03668e-06
1.25166e-05
1.61491e-06
3.10386e-05
3.86416e-05
-5.3552e-06
9.53844e-06
-8.89529e-06
1.78288e-05
-1.16692e-05
1.92666e-05
-1.40982e-05
1.68389e-05
-1.61873e-05
1.29119e-05
-1.78904e-05
8.65904e-06
-1.91754e-05
4.58061e-06
-2.00359e-05
8.32925e-07
-2.04868e-05
-2.58858e-06
-2.05569e-05
-5.74163e-06
-2.02842e-05
-8.70096e-06
-1.97123e-05
-1.15367e-05
-1.88872e-05
-1.42912e-05
-1.7858e-05
-1.69535e-05
-1.6672e-05
-1.94086e-05
-1.53651e-05
-2.13507e-05
-1.39546e-05
-2.2147e-05
-1.24521e-05
-2.06564e-05
-1.08991e-05
-1.52593e-05
-9.29349e-06
-4.72772e-06
-7.17677e-06
1.04e-05
-3.75401e-06
2.76158e-05
3.48876e-05
-5.80068e-06
1.53391e-05
-9.57562e-06
2.16037e-05
-1.25036e-05
2.21946e-05
-1.50411e-05
1.93764e-05
-1.72534e-05
1.51242e-05
-1.91248e-05
1.05303e-05
-2.06356e-05
6.09142e-06
-2.17841e-05
1.98148e-06
-2.25884e-05
-1.78433e-06
-2.30797e-05
-5.25031e-06
-2.33016e-05
-8.479e-06
-2.33073e-05
-1.1531e-05
-2.31568e-05
-1.44416e-05
-2.29154e-05
-1.71949e-05
-2.26449e-05
-1.96791e-05
-2.23838e-05
-2.16118e-05
-2.21118e-05
-2.2419e-05
-2.16955e-05
-2.10726e-05
-2.08276e-05
-1.61272e-05
-1.90141e-05
-6.54133e-06
-1.54792e-05
6.86513e-06
-8.8004e-06
2.0937e-05
2.60873e-05
-6.07733e-06
2.14164e-05
-1.00842e-05
2.56106e-05
-1.31973e-05
2.53077e-05
-1.58814e-05
2.20605e-05
-1.82416e-05
1.74843e-05
-2.02915e-05
1.25802e-05
-2.20276e-05
7.82751e-06
-2.34558e-05
3.40976e-06
-2.45988e-05
-6.41356e-07
-2.54921e-05
-4.35704e-06
-2.61843e-05
-7.78674e-06
-2.67366e-05
-1.09788e-05
-2.72206e-05
-1.39576e-05
-2.77163e-05
-1.66993e-05
-2.83018e-05
-1.90935e-05
-2.90286e-05
-2.08849e-05
-2.98679e-05
-2.15798e-05
-3.05949e-05
-2.03456e-05
-3.06065e-05
-1.61156e-05
-2.8899e-05
-8.24886e-06
-2.42927e-05
2.25891e-06
-1.45577e-05
1.1202e-05
1.15296e-05
2.77446e-06
-2.77446e-06
-3.71721e-06
6.49166e-06
-1.22213e-05
8.50417e-06
-1.91969e-05
6.9756e-06
-2.41847e-05
4.98779e-06
-2.72004e-05
3.0157e-06
-2.85324e-05
1.33206e-06
-2.84763e-05
-5.62555e-08
-2.74024e-05
-1.07391e-06
-2.55552e-05
-1.84724e-06
-2.30582e-05
-2.49713e-06
-1.99878e-05
-3.0703e-06
-1.64268e-05
-3.56108e-06
-1.2489e-05
-3.93786e-06
-8.3395e-06
-4.14943e-06
-4.35283e-06
-3.98673e-06
-1.15404e-06
-3.19876e-06
6.60272e-07
-1.81433e-06
6.60271e-07
-2.02836e-06
-7.46007e-07
-9.86177e-06
1.43251e-05
-1.79429e-05
1.65853e-05
-2.39647e-05
1.29974e-05
-2.77698e-05
8.79286e-06
-2.97832e-05
5.02896e-06
-3.04592e-05
2.00808e-06
-3.0171e-05
-3.44515e-07
-2.90574e-05
-2.18763e-06
-2.72072e-05
-3.69743e-06
-2.47208e-05
-4.98363e-06
-2.16827e-05
-6.10838e-06
-1.81803e-05
-7.0635e-06
-1.43271e-05
-7.7911e-06
-1.0276e-05
-8.2005e-06
-6.24329e-06
-8.01949e-06
-2.64945e-06
-6.79259e-06
-2.31914e-07
-4.23175e-06
4.28366e-07
-6.59857e-06
5.85263e-06
-1.42102e-05
2.19368e-05
-2.09142e-05
2.32893e-05
-2.57721e-05
1.78553e-05
-2.88951e-05
1.19159e-05
-3.06183e-05
6.75205e-06
-3.1224e-05
2.6138e-06
-3.09172e-05
-6.51384e-07
-2.98139e-05
-3.29103e-06
-2.80111e-05
-5.50012e-06
-2.55969e-05
-7.39788e-06
-2.26534e-05
-9.05185e-06
-1.92664e-05
-1.04505e-05
-1.55426e-05
-1.1515e-05
-1.16289e-05
-1.21141e-05
-7.71865e-06
-1.19298e-05
-4.0751e-06
-1.04361e-05
-1.25687e-06
-7.04988e-06
-8.28482e-07
-1.03283e-05
1.6181e-05
-1.78451e-05
2.94536e-05
-2.34796e-05
2.89236e-05
-2.74436e-05
2.18194e-05
-3.00178e-05
1.44901e-05
-3.1455e-05
8.18918e-06
-3.1931e-05
3.08982e-06
-3.15725e-05
-1.00994e-06
-3.04724e-05
-4.39116e-06
-2.87127e-05
-7.2598e-06
-2.63672e-05
-9.74333e-06
-2.35107e-05
-1.19084e-05
-2.02234e-05
-1.37378e-05
-1.66037e-05
-1.51347e-05
-1.27858e-05
-1.5932e-05
-8.93522e-06
-1.57804e-05
-5.2577e-06
-1.41136e-05
-2.1149e-06
-1.01926e-05
-2.94336e-06
-1.38125e-05
2.99935e-05
-2.13056e-05
3.69467e-05
-2.60512e-05
3.36693e-05
-2.92394e-05
2.50076e-05
-3.12919e-05
1.65427e-05
-3.24207e-05
9.31789e-06
-3.27324e-05
3.40153e-06
-3.23e-05
-1.44237e-06
-3.1187e-05
-5.50418e-06
-2.94546e-05
-8.99219e-06
-2.71612e-05
-1.20367e-05
-2.43705e-05
-1.46991e-05
-2.11543e-05
-1.69539e-05
-1.76007e-05
-1.86884e-05
-1.38271e-05
-1.97055e-05
-9.9733e-06
-1.96342e-05
-6.19945e-06
-1.78875e-05
-2.73571e-06
-1.36562e-05
-5.67907e-06
-1.76445e-05
4.7638e-05
-2.4958e-05
4.42602e-05
-2.87898e-05
3.75011e-05
-3.1221e-05
2.74387e-05
-3.2752e-05
1.80737e-05
-3.3556e-05
1.01219e-05
-3.3682e-05
3.52754e-06
-3.31569e-05
-1.96752e-06
-3.20129e-05
-6.64817e-06
-3.02883e-05
-1.07168e-05
-2.8025e-05
-1.43001e-05
-2.52733e-05
-1.74508e-05
-2.20944e-05
-2.01328e-05
-1.85641e-05
-2.22187e-05
-1.47826e-05
-2.3487e-05
-1.08658e-05
-2.3551e-05
-6.938e-06
-2.18152e-05
-3.15964e-06
-1.74345e-05
-8.83873e-06
-2.22777e-05
6.99156e-05
-2.90944e-05
5.1077e-05
-3.17851e-05
4.01917e-05
-3.3413e-05
2.90667e-05
-3.44106e-05
1.90714e-05
-3.4879e-05
1.05902e-05
-3.48056e-05
3.45403e-06
-3.41724e-05
-2.60068e-06
-3.29801e-05
-7.84055e-06
-3.12429e-05
-1.24539e-05
-2.89852e-05
-1.65578e-05
-2.62432e-05
-2.01928e-05
-2.30655e-05
-2.33106e-05
-1.95152e-05
-2.5769e-05
-1.56757e-05
-2.73265e-05
-1.16432e-05
-2.75835e-05
-7.52026e-06
-2.59381e-05
-3.45025e-06
-2.15044e-05
-1.2289e-05
-2.83613e-05
9.82768e-05
-3.37968e-05
5.65126e-05
-3.50496e-05
4.14446e-05
-3.57949e-05
2.98119e-05
-3.62509e-05
1.95275e-05
-3.63811e-05
1.07203e-05
-3.61013e-05
3.17425e-06
-3.53487e-05
-3.3533e-06
-3.40923e-05
-9.09697e-06
-3.23229e-05
-1.42234e-05
-3.00469e-05
-1.88338e-05
-2.72857e-05
-2.29541e-05
-2.40747e-05
-2.65216e-05
-2.04643e-05
-2.93794e-05
-1.65236e-05
-3.12671e-05
-1.2334e-05
-3.17731e-05
-7.98984e-06
-3.02822e-05
-3.64937e-06
-2.58449e-05
-1.59383e-05
-1.32438e-05
3.46602e-05
-2.27333e-05
3.51e-05
-3.00865e-05
3.26609e-05
-3.63539e-05
2.83279e-05
-4.19187e-05
2.30492e-05
-4.68947e-05
1.75561e-05
-5.13244e-05
1.22572e-05
-5.52496e-05
7.33487e-06
-5.87335e-05
2.84259e-06
-6.18644e-05
-1.22609e-06
-6.47553e-05
-4.89585e-06
-6.75485e-05
-8.18561e-06
-7.04141e-05
-1.1092e-05
-7.35423e-05
-1.3571e-05
-7.71208e-05
-1.5515e-05
-8.12753e-05
-1.67304e-05
-8.59272e-05
-1.69279e-05
-9.05045e-05
-1.57684e-05
-9.36495e-05
-1.29705e-05
-9.35017e-05
-8.39665e-06
-8.8921e-05
-2.32177e-06
-8.1618e-05
3.89913e-06
9.20931e-06
-7.92978e-05
-1.39185e-05
4.85787e-05
-2.43007e-05
4.54822e-05
-3.26629e-05
4.10231e-05
-3.98275e-05
3.54925e-05
-4.62129e-05
2.94346e-05
-5.20173e-05
2.33605e-05
-5.73463e-05
1.75862e-05
-6.22784e-05
1.22669e-05
-6.68939e-05
7.45817e-06
-7.12857e-05
3.16567e-06
-7.55608e-05
-6.20711e-07
-7.98426e-05
-3.90384e-06
-8.42696e-05
-6.665e-06
-8.89844e-05
-8.85616e-06
-9.41081e-05
-1.03912e-05
-9.9694e-05
-1.11445e-05
-0.000105658
-1.09642e-05
-0.000111726
-9.70005e-06
-0.000117486
-7.20986e-06
-0.000122509
-3.37445e-06
-0.000126506
1.67608e-06
-0.000129931
7.3241e-06
1.34492e-05
-0.000134171
-1.46859e-05
6.32646e-05
-2.60048e-05
5.68011e-05
-3.53205e-05
5.03388e-05
-4.33445e-05
4.35165e-05
-5.05004e-05
3.65904e-05
-5.70355e-05
2.98956e-05
-6.30989e-05
2.36497e-05
-6.87937e-05
1.79617e-05
-7.42066e-05
1.28711e-05
-7.94217e-05
8.38079e-06
-8.45248e-05
4.48238e-06
-8.96018e-05
1.17314e-06
-9.47338e-05
-1.533e-06
-9.99886e-05
-3.60126e-06
-0.000105403
-4.97713e-06
-0.000110957
-5.59047e-06
-0.000116556
-5.3649e-06
-0.000122029
-4.22735e-06
-0.000127133
-2.10528e-06
-0.000131538
1.03061e-06
-0.000134927
5.06471e-06
-0.000137196
9.5938e-06
1.43861e-05
-0.000138133
-1.56651e-05
7.89296e-05
-2.791e-05
6.9046e-05
-3.80713e-05
6.05e-05
-4.68278e-05
5.2273e-05
-5.4623e-05
4.43856e-05
-6.17388e-05
3.70115e-05
-6.83511e-05
3.0262e-05
-7.45746e-05
2.41853e-05
-8.04931e-05
1.87897e-05
-8.61757e-05
1.40634e-05
-9.1683e-05
9.98963e-06
-9.70673e-05
6.55751e-06
-0.000102369
3.76829e-06
-0.000107608
1.63789e-06
-0.000112779
1.9429e-07
-0.000117842
-5.27514e-07
-0.000122713
-4.93394e-07
-0.000127263
3.22374e-07
-0.000131297
1.92895e-06
-0.000134551
4.28395e-06
-0.000136716
7.23e-06
-0.000137611
1.04886e-05
1.38734e-05
-0.000137098
-1.69055e-05
9.58351e-05
-3.00293e-05
8.21698e-05
-4.08787e-05
7.13494e-05
-5.01925e-05
6.15868e-05
-5.84595e-05
5.26526e-05
-6.59914e-05
4.45435e-05
-7.29783e-05
3.72489e-05
-7.95362e-05
3.07432e-05
-8.57405e-05
2.49941e-05
-9.16452e-05
1.99681e-05
-9.72911e-05
1.56355e-05
-0.000102708
1.19749e-05
-0.000107916
8.97577e-06
-0.000112917
6.63899e-06
-0.000117697
4.97389e-06
-0.000122216
3.99238e-06
-0.00012641
3.7005e-06
-0.000130178
4.0903e-06
-0.000133375
5.12552e-06
-0.000135811
6.72015e-06
-0.000137294
8.71311e-06
-0.000137701
1.08951e-05
1.31294e-05
-0.000136957
-1.84546e-05
0.00011429
-3.23632e-05
9.60783e-05
-4.36972e-05
8.26834e-05
-5.33626e-05
7.12522e-05
-6.19223e-05
6.12124e-05
-6.97137e-05
5.23351e-05
-7.69294e-05
4.44646e-05
-8.36772e-05
3.74909e-05
-9.00199e-05
3.13368e-05
-9.59975e-05
2.59457e-05
-0.000101638
2.12757e-05
-0.00010696
1.72966e-05
-0.000111973
1.39896e-05
-0.00011668
1.13455e-05
-0.000121067
9.36129e-06
-0.000125108
8.03296e-06
-0.000128754
7.34691e-06
-0.000131934
7.27e-06
-0.000134547
7.73839e-06
-0.000136472
8.64567e-06
-0.000137599
9.83979e-06
-0.000137855
1.11506e-05
1.24736e-05
-0.000137199
-2.03882e-05
0.000134678
-3.49067e-05
0.000110597
-4.64634e-05
9.42401e-05
-5.62545e-05
8.10433e-05
-6.49338e-05
6.98918e-05
-7.28522e-05
6.02535e-05
-8.01885e-05
5.1801e-05
-8.70314e-05
4.43339e-05
-9.34263e-05
3.77317e-05
-9.93997e-05
3.19191e-05
-0.00010497
2.68458e-05
-0.00011015
2.2477e-05
-0.00011495
1.87895e-05
-0.000119373
1.57685e-05
-0.000123415
1.34029e-05
-0.000127059
1.16777e-05
-0.000130278
1.05653e-05
-0.000133024
1.00157e-05
-0.000135234
9.94879e-06
-0.000136838
1.02499e-05
-0.000137775
1.07763e-05
-0.000138005
1.1381e-05
1.19847e-05
-0.000137516
-2.28048e-05
0.000157483
-3.76098e-05
0.000125402
-4.90591e-05
0.000105689
-5.87482e-05
9.07324e-05
-6.74032e-05
7.85469e-05
-7.53561e-05
6.82064e-05
-8.27495e-05
5.91943e-05
-8.96396e-05
5.12241e-05
-9.60494e-05
4.41414e-05
-0.000101991
3.78606e-05
-0.000107475
3.23297e-05
-0.000112512
2.75145e-05
-0.000117114
2.33912e-05
-0.000121288
1.99429e-05
-0.000125039
1.71537e-05
-0.000128363
1.50015e-05
-0.000131247
1.34492e-05
-0.000133667
1.24362e-05
-0.000135592
1.18734e-05
-0.000136985
1.16432e-05
-0.00013782
1.16106e-05
-0.000138082
1.16438e-05
1.16857e-05
-0.000137783
-2.57234e-05
0.000183206
-4.02537e-05
0.000139932
-5.12373e-05
0.000116673
-6.06514e-05
0.000100147
-6.92071e-05
8.71027e-05
-7.7165e-05
7.61644e-05
-8.4604e-05
6.66333e-05
-9.15374e-05
5.81575e-05
-9.79623e-05
5.05663e-05
-0.000103878
4.37758e-05
-0.000109288
3.77402e-05
-0.000114204
3.24303e-05
-0.000118639
2.78257e-05
-0.000122606
2.391e-05
-0.000126117
2.06653e-05
-0.000129181
1.80655e-05
-0.0001318
1.6068e-05
-0.00013397
1.46062e-05
-0.000135683
1.35864e-05
-0.000136931
1.2891e-05
-0.000137711
1.23911e-05
-0.000138035
1.19672e-05
1.15823e-05
-0.000137931
-2.84771e-05
0.000211683
-4.21899e-05
0.000153645
-5.25439e-05
0.000127027
-6.16815e-05
0.000109284
-7.01908e-05
9.5612e-05
-7.82122e-05
8.41858e-05
-8.57435e-05
7.41646e-05
-9.27549e-05
6.51689e-05
-9.92233e-05
5.70346e-05
-0.000105139
4.96913e-05
-0.000110504
4.31052e-05
-0.00011533
3.72563e-05
-0.000119633
3.21294e-05
-0.000123434
2.77108e-05
-0.000126752
2.39831e-05
-0.000129606
2.0919e-05
-0.000132011
1.84733e-05
-0.000133982
1.6577e-05
-0.000135531
1.51352e-05
-0.000136671
1.40318e-05
-0.000137424
1.31438e-05
-0.000137819
1.23624e-05
1.16699e-05
-0.000137907
-2.84538e-05
0.000240137
-4.21897e-05
0.000167381
-5.23522e-05
0.000137189
-6.15304e-05
0.000118463
-7.02241e-05
0.000104306
-7.84594e-05
9.24212e-05
-8.61772e-05
8.18824e-05
-9.33269e-05
7.23186e-05
-9.9881e-05
6.35887e-05
-0.000105832
5.56419e-05
-0.000111185
4.84583e-05
-0.000115955
4.2027e-05
-0.000120165
3.6339e-05
-0.000123839
3.13843e-05
-0.000127003
2.71477e-05
-0.000129687
2.36025e-05
-0.000131918
2.07044e-05
-0.000133725
1.83848e-05
-0.00013514
1.655e-05
-0.000136195
1.5087e-05
-0.000136931
1.38792e-05
-0.000137396
1.28282e-05
1.19347e-05
-0.000137661
-2.31424e-05
0.000263279
-3.91601e-05
0.000183398
-5.02463e-05
0.000148276
-6.00906e-05
0.000128307
-6.9316e-05
0.000113531
-7.79529e-05
0.000101058
-8.59581e-05
8.98876e-05
-9.33036e-05
7.96641e-05
-9.99814e-05
7.02665e-05
-0.000105998
6.16583e-05
-0.000111369
5.3829e-05
-0.000116116
4.67739e-05
-0.000120265
4.04885e-05
-0.000123847
3.49663e-05
-0.000126894
3.01951e-05
-0.000129443
2.61513e-05
-0.000131532
2.27935e-05
-0.000133204
2.00563e-05
-0.000134504
1.78501e-05
-0.000135483
1.60667e-05
-0.000136201
1.45966e-05
-0.000136725
1.33526e-05
1.23539e-05
-0.000137144
-1.76844e-05
0.000280964
-3.43727e-05
0.000200087
-4.6831e-05
0.000160734
-5.77493e-05
0.000139225
-6.77168e-05
0.000123499
-7.68524e-05
0.000110194
-8.51888e-05
9.8224e-05
-9.27505e-05
8.72258e-05
-9.95649e-05
7.70809e-05
-0.000105661
6.77543e-05
-0.000111067
5.92355e-05
-0.000115814
5.15205e-05
-0.000119932
4.46064e-05
-0.000123455
3.8489e-05
-0.000126419
3.31595e-05
-0.000128866
2.85986e-05
-0.000130843
2.47701e-05
-0.000132402
2.16149e-05
-0.000133601
1.90498e-05
-0.000134509
1.69741e-05
-0.000135199
1.52873e-05
-0.000135762
1.39149e-05
1.28947e-05
-0.000136303
-1.45911e-05
0.000295555
-3.0148e-05
0.000215644
-4.33998e-05
0.000173986
-5.51808e-05
0.000151006
-6.57925e-05
0.00013411
-7.53648e-05
0.000119766
-8.39851e-05
0.000106844
-9.17275e-05
9.49682e-05
-9.86549e-05
8.40084e-05
-0.000104819
7.39182e-05
-0.000110261
6.46781e-05
-0.000115019
5.62785e-05
-0.000119127
4.8714e-05
-0.000122619
4.19811e-05
-0.000125534
3.6074e-05
-0.000127914
3.09786e-05
-0.000129809
2.66658e-05
-0.00013128
2.30854e-05
-0.000132394
2.0164e-05
-0.000133231
1.78114e-05
-0.000133883
1.59389e-05
-0.000134455
1.44874e-05
1.3515e-05
-0.000135076
-1.28112e-05
0.000308366
-2.71195e-05
0.000229952
-4.05587e-05
0.000187425
-5.27968e-05
0.000163244
-6.37999e-05
0.000145114
-7.36406e-05
0.000129607
-8.24258e-05
0.000115629
-9.02628e-05
0.000102805
-9.72424e-05
9.09879e-05
-0.000103435
8.01103e-05
-0.000108892
7.01357e-05
-0.000113657
6.10432e-05
-0.000117765
5.28215e-05
-0.000121249
4.54653e-05
-0.000124145
3.89705e-05
-0.000126495
3.33284e-05
-0.000128347
2.85181e-05
-0.000129762
2.45003e-05
-0.000130813
2.12149e-05
-0.000131588
1.85862e-05
-0.000132191
1.65412e-05
-0.000132743
1.50398e-05
1.41645e-05
-0.000133393
-1.11353e-05
0.000319501
-2.48497e-05
0.000243666
-3.82849e-05
0.000200861
-5.06857e-05
0.000175645
-6.18282e-05
0.000156256
-7.17361e-05
0.000139515
-8.05281e-05
0.000124421
-8.83368e-05
0.000110614
-9.52748e-05
9.7926e-05
-0.000101427
8.62622e-05
-0.000106854
7.55626e-05
-0.0001116
6.579e-05
-0.000115703
5.69237e-05
-0.000119192
4.89541e-05
-0.000122098
4.18771e-05
-0.000124457
3.56875e-05
-0.000126311
3.03724e-05
-0.000127716
2.59048e-05
-0.000128741
2.22401e-05
-0.000129476
1.93212e-05
-0.000130031
1.70958e-05
-0.000130539
1.55482e-05
1.47902e-05
-0.000131165
-9.8187e-06
0.00032932
-2.31404e-05
0.000256988
-3.64609e-05
0.000214181
-4.88131e-05
0.000187997
-5.98677e-05
0.000167311
-6.96333e-05
0.00014928
-7.8251e-05
0.000133039
-8.58802e-05
0.000118243
-9.26532e-05
0.000104699
-9.86666e-05
9.22756e-05
-0.000103988
8.08839e-05
-0.000108665
7.0467e-05
-0.000112733
6.09918e-05
-0.000116221
5.24416e-05
-0.000119153
4.48094e-05
-0.000121557
3.8091e-05
-0.000123463
3.22792e-05
-0.000124916
2.73576e-05
-0.000125974
2.32982e-05
-0.000126718
2.00646e-05
-0.000127252
1.763e-05
-0.000127712
1.60087e-05
1.53493e-05
-0.000128272
-9.00061e-06
0.00033832
-2.19086e-05
0.000269896
-3.49974e-05
0.00022727
-4.71165e-05
0.000200116
-5.78624e-05
0.000178057
-6.72653e-05
0.000158683
-7.55075e-05
0.000141281
-8.27802e-05
0.000125516
-8.9235e-05
0.000111154
-9.49793e-05
9.802e-05
-0.000100087
8.59911e-05
-0.000104608
7.4988e-05
-0.000108579
6.49634e-05
-0.000112029
5.58911e-05
-0.000114977
4.7758e-05
-0.000117443
4.05571e-05
-0.000119446
3.42823e-05
-0.000121013
2.89243e-05
-0.000122183
2.44678e-05
-0.000123015
2.08966e-05
-0.000123596
1.82109e-05
-0.000124046
1.64587e-05
1.5832e-05
-0.000124528
-8.7794e-06
0.0003471
-2.1031e-05
0.000282148
-3.38087e-05
0.000240048
-4.55255e-05
0.000211833
-5.57321e-05
0.000188263
-6.45323e-05
0.000167483
-7.21757e-05
0.000148925
-7.88894e-05
0.000132229
-8.48429e-05
0.000117107
-9.01527e-05
0.00010333
-9.4898e-05
9.07364e-05
-9.91345e-05
7.92245e-05
-0.000102903
6.87319e-05
-0.000106233
5.92215e-05
-0.000109147
5.06713e-05
-0.000111657
4.3067e-05
-0.000113773
3.63985e-05
-0.000115505
3.06565e-05
-0.00011687
2.58322e-05
-0.000117896
2.1923e-05
-0.000118636
1.89511e-05
-0.000119173
1.69958e-05
1.62925e-05
-0.000119634
-9.22753e-06
0.000356327
-2.0427e-05
0.000293347
-3.28641e-05
0.000252485
-4.39831e-05
0.000222952
-5.338e-05
0.00019766
-6.13111e-05
0.000175415
-6.81092e-05
0.000155723
-7.40375e-05
0.000138158
-7.92776e-05
0.000122347
-8.39524e-05
0.000108004
-8.81468e-05
9.49308e-05
-9.19238e-05
8.30015e-05
-9.53321e-05
7.21401e-05
-9.84085e-05
6.2298e-05
-0.000101179
5.34418e-05
-0.000103659
4.55465e-05
-0.000105852
3.85924e-05
-0.000107759
3.25633e-05
-0.000109374
2.74475e-05
-0.000110696
2.3245e-05
-0.000111734
1.99882e-05
-0.000112513
1.77751e-05
1.6871e-05
-0.000113091
-9.75379e-06
0.000366081
-2.02173e-05
0.00030381
-3.22346e-05
0.000264502
-4.24342e-05
0.000233152
-5.06891e-05
0.000205915
-5.7456e-05
0.000182181
-6.31464e-05
0.000161413
-6.8044e-05
0.000143055
-7.23339e-05
0.000126637
-7.61412e-05
0.000111812
-7.95579e-05
9.83475e-05
-8.2657e-05
8.61007e-05
-8.54994e-05
7.49825e-05
-8.81338e-05
6.49324e-05
-9.05962e-05
5.59043e-05
-9.29087e-05
4.78591e-05
-9.50792e-05
4.07629e-05
-9.71022e-05
3.45862e-05
-9.89606e-05
2.93059e-05
-0.000100628
2.49129e-05
-0.000102074
2.14338e-05
-0.000103264
1.89646e-05
1.77721e-05
-0.000104165
-9.50255e-06
0.000375584
-2.06038e-05
0.000314912
-3.19277e-05
0.000275826
-4.07481e-05
0.000241972
-4.74918e-05
0.000212659
-5.28001e-05
0.00018749
-5.71223e-05
0.000165735
-6.07372e-05
0.00014667
-6.38229e-05
0.000129723
-6.6506e-05
0.000114495
-6.88885e-05
0.00010073
-7.10586e-05
8.82709e-05
-7.30939e-05
7.70178e-05
-7.50596e-05
6.68981e-05
-7.70059e-05
5.78506e-05
-7.8966e-05
4.98191e-05
-8.09546e-05
4.27514e-05
-8.29682e-05
3.65998e-05
-8.49851e-05
3.13227e-05
-8.6965e-05
2.68928e-05
-8.88482e-05
2.3317e-05
-9.05521e-05
2.06685e-05
1.91817e-05
-9.19618e-05
-8.16268e-06
0.000383746
-2.13615e-05
0.00032811
-3.16581e-05
0.000286122
-3.86513e-05
0.000248965
-4.3571e-05
0.000217578
-4.71763e-05
0.000191095
-4.98947e-05
0.000168454
-5.19792e-05
0.000148755
-5.35984e-05
0.000131342
-5.4886e-05
0.000115783
-5.59616e-05
0.000101806
-5.6936e-05
8.92453e-05
-5.7909e-05
7.79909e-05
-5.89661e-05
6.79552e-05
-6.01738e-05
5.90582e-05
-6.15773e-05
5.12226e-05
-6.31993e-05
4.43733e-05
-6.50392e-05
3.84397e-05
-6.70739e-05
3.33573e-05
-6.92556e-05
2.90745e-05
-7.1508e-05
2.55695e-05
-7.37181e-05
2.28785e-05
2.11772e-05
-7.57136e-05
-8.94121e-06
0.000392688
-2.2589e-05
0.000341758
-3.0941e-05
0.000294474
-3.57825e-05
0.000253807
-3.87199e-05
0.000220515
-4.04618e-05
0.000192837
-4.13778e-05
0.00016937
-4.16938e-05
0.000149071
-4.15821e-05
0.000131231
-4.11987e-05
0.000115399
-4.06937e-05
0.000101301
-4.02095e-05
8.87611e-05
-3.98747e-05
7.76561e-05
-3.97974e-05
6.78779e-05
-4.00606e-05
5.93215e-05
-4.07196e-05
5.18815e-05
-4.18011e-05
4.54548e-05
-4.33045e-05
3.99432e-05
-4.52027e-05
3.52555e-05
-4.7441e-05
3.13127e-05
-4.99323e-05
2.80608e-05
-5.25461e-05
2.54923e-05
2.37094e-05
-5.50783e-05
-1.13912e-05
0.000404079
-2.29051e-05
0.000353272
-2.90328e-05
0.000300602
-3.18569e-05
0.000256631
-3.28511e-05
0.00022151
-3.2648e-05
0.000192634
-3.15836e-05
0.000168305
-2.98926e-05
0.00014738
-2.77825e-05
0.000129121
-2.54552e-05
0.000113072
-2.31067e-05
9.89521e-05
-2.09211e-05
8.65756e-05
-1.90615e-05
7.57965e-05
-1.76605e-05
6.64769e-05
-1.68148e-05
5.84758e-05
-1.65838e-05
5.16506e-05
-1.69917e-05
4.58627e-05
-1.803e-05
4.09815e-05
-1.96615e-05
3.6887e-05
-2.18208e-05
3.34719e-05
-2.44101e-05
3.065e-05
-2.72897e-05
2.83719e-05
2.66528e-05
-3.02331e-05
-1.41402e-05
0.000418219
-2.21385e-05
0.00036127
-2.60745e-05
0.000304538
-2.7069e-05
0.000257625
-2.61679e-05
0.000220609
-2.39096e-05
0.000190376
-2.06473e-05
0.000165043
-1.66804e-05
0.000143413
-1.22909e-05
0.000124731
-7.74887e-06
0.00010853
-3.31026e-06
9.45135e-05
7.8975e-07
8.24756e-05
4.34914e-06
7.22372e-05
7.21159e-06
6.36145e-05
9.27279e-06
5.64146e-05
1.04789e-05
5.04446e-05
1.08199e-05
4.55217e-05
1.03221e-05
4.14793e-05
9.04138e-06
3.81677e-05
7.0602e-06
3.54531e-05
4.49116e-06
3.32191e-05
1.49019e-06
3.13728e-05
2.98904e-05
-1.7474e-06
-1.6088e-05
0.000434307
-2.07718e-05
0.000365954
-2.27417e-05
0.000306508
-2.20143e-05
0.000256898
-1.91272e-05
0.000217721
-1.4565e-05
0.000185814
-8.78436e-06
0.000159262
-2.21222e-06
0.000136841
4.7638e-06
0.000117755
1.17914e-05
0.000101502
1.85462e-05
8.77587e-05
2.47364e-05
7.62854e-05
3.01198e-05
6.68538e-05
3.4521e-05
5.92134e-05
3.78383e-05
5.30972e-05
4.0038e-05
4.82449e-05
4.11386e-05
4.4421e-05
4.11969e-05
4.1421e-05
4.02964e-05
3.90683e-05
3.85417e-05
3.72078e-05
3.60585e-05
3.57023e-05
3.30013e-05
3.44301e-05
3.32983e-05
2.95934e-05
-1.66333e-05
0.00045094
-1.92892e-05
0.00036861
-1.98475e-05
0.000307066
-1.74381e-05
0.000254488
-1.22524e-05
0.000212536
-4.93115e-06
0.000178492
3.83066e-06
0.000150501
1.34154e-05
0.000127256
2.33116e-05
0.000107859
3.30865e-05
9.17274e-05
4.23501e-05
7.8495e-05
5.07551e-05
6.78804e-05
5.80215e-05
5.95874e-05
6.39641e-05
5.32708e-05
6.85014e-05
4.856e-05
7.16396e-05
4.51066e-05
7.34454e-05
4.26153e-05
7.40206e-05
4.08459e-05
7.34858e-05
3.96031e-05
7.1973e-05
3.87206e-05
6.96249e-05
3.80504e-05
6.66016e-05
3.74535e-05
3.67955e-05
6.31043e-05
-1.30132e-05
0.000463953
-1.84178e-05
0.000374014
-1.83984e-05
0.000307047
-1.40286e-05
0.000250118
-5.87942e-06
0.000204387
4.91342e-06
0.000167699
1.72811e-05
0.000138133
3.03587e-05
0.000114178
4.3508e-05
9.47098e-05
5.62373e-05
7.89981e-05
6.81168e-05
6.66156e-05
7.87588e-05
5.72384e-05
8.78562e-05
5.04899e-05
9.52303e-05
4.58967e-05
0.000100844
4.29464e-05
0.000104771
4.11791e-05
0.00010715
4.02364e-05
0.000108143
3.98532e-05
0.000107916
3.98302e-05
0.000106631
4.00057e-05
0.000104448
4.02338e-05
0.000101528
4.03732e-05
4.02732e-05
9.80503e-05
-7.88414e-06
0.000471837
-2.08214e-05
0.000386952
-1.96758e-05
0.000305901
-1.21103e-05
0.000242553
1.63125e-07
0.000192113
1.54527e-05
0.00015241
3.22303e-05
0.000121355
4.9313e-05
9.70957e-05
6.59551e-05
7.80678e-05
8.16809e-05
6.32723e-05
9.60905e-05
5.2206e-05
0.000108796
4.45328e-05
0.000119483
3.9803e-05
0.000128002
3.73777e-05
0.000134395
3.65536e-05
0.000138839
3.67349e-05
0.000141567
3.75082e-05
0.000142814
3.86065e-05
0.000142794
3.98497e-05
0.000141699
4.11015e-05
0.000139698
4.22344e-05
0.000136954
4.31174e-05
4.36166e-05
0.00013361
-9.1539e-07
0.000472753
-2.54513e-05
0.000411488
-2.27171e-05
0.000303167
-1.07585e-05
0.000230594
6.99587e-06
0.000174359
2.81305e-05
0.000131275
5.02959e-05
9.91898e-05
7.18257e-05
7.5566e-05
9.19294e-05
5.79642e-05
0.00011033
4.4872e-05
0.000126807
3.57284e-05
0.000141051
3.0289e-05
0.000152769
2.80847e-05
0.000161874
2.82728e-05
0.000168533
2.98944e-05
0.000173068
3.22e-05
0.000175823
3.47531e-05
0.000177103
3.73271e-05
0.000177161
3.97916e-05
0.000176208
4.2055e-05
0.000174414
4.40275e-05
0.000171932
4.56001e-05
4.66929e-05
0.000168855
-2.99766e-06
0.00047575
-2.89948e-05
0.000437485
-2.47101e-05
0.000298882
-8.04259e-06
0.000213927
1.68104e-05
0.000149506
4.56306e-05
0.000102455
7.43595e-05
7.04609e-05
0.000100515
4.94105e-05
0.000123467
3.50121e-05
0.00014354
2.47996e-05
0.000160997
1.82714e-05
0.000175694
1.55917e-05
0.000187389
1.63899e-05
0.000196118
1.9543e-05
0.000202254
2.37585e-05
0.000206298
2.81565e-05
0.000208689
3.23616e-05
0.000209761
3.62556e-05
0.00020977
3.97828e-05
0.000208926
4.28985e-05
0.000207398
4.55554e-05
0.000205311
4.76872e-05
4.93058e-05
0.000202698
-6.19422e-06
0.000481945
-2.65967e-05
0.000457887
-2.46819e-05
0.000296968
-2.12183e-06
0.000191367
3.28102e-05
0.000114574
7.21616e-05
6.31039e-05
0.000108696
3.39264e-05
0.000138887
1.92195e-05
0.000162909
1.09903e-05
0.000182457
5.25172e-06
0.000198768
1.95992e-06
0.000212031
2.32899e-06
0.000222075
6.34591e-06
0.000229088
1.25302e-05
0.000233703
1.91431e-05
0.000236617
2.52429e-05
0.000238303
3.06757e-05
0.000239024
3.55338e-05
0.000238953
3.98541e-05
0.000238267
4.35849e-05
0.000237132
4.66899e-05
0.000235647
4.91719e-05
5.11753e-05
0.000233778
-9.2197e-06
0.000491164
-3.19778e-05
0.000480645
-2.72122e-05
0.000292202
8.97836e-06
0.000155176
6.07759e-05
6.27762e-05
0.000114194
9.68592e-06
0.000158532
-1.04122e-05
0.000190029
-1.22769e-05
0.000211188
-1.01692e-05
0.000226287
-9.84694e-06
0.000238143
-9.89568e-06
0.000247349
-6.87721e-06
0.00025365
4.45942e-08
0.000257395
8.78498e-06
0.000259534
1.70049e-05
0.000260901
2.38757e-05
0.000261838
2.97381e-05
0.000262356
3.50159e-05
0.00026244
3.97704e-05
0.000262176
4.38494e-05
0.000261727
4.71384e-05
0.000261204
4.96952e-05
5.19198e-05
0.00026046
-3.70148e-06
0.000494866
-4.86771e-05
0.000525621
-2.51524e-05
0.000268677
4.10607e-05
8.89631e-05
0.000115874
-1.2037e-05
0.000181365
-5.58049e-05
0.000227024
-5.60718e-05
0.000251802
-3.70546e-05
0.000262851
-2.12177e-05
0.000267905
-1.49016e-05
0.000271437
-1.3427e-05
0.000274148
-9.58816e-06
0.000274795
-6.03126e-07
0.000274557
9.02356e-06
0.000274213
1.73491e-05
0.000274501
2.35872e-05
0.000275381
2.8858e-05
0.000276382
3.40148e-05
0.000277224
3.89287e-05
0.000277956
4.3117e-05
0.000278766
4.63282e-05
0.000279838
4.86238e-05
5.01941e-05
0.000281563
1.77989e-05
0.000477067
-9.25373e-06
0.000552674
4.30396e-05
0.000216384
0.000141317
-9.3146e-06
0.000224678
-9.53975e-05
0.000276266
-0.000107393
0.000298888
-7.86935e-05
0.000301897
-4.0064e-05
0.000295698
-1.50181e-05
0.000287604
-6.80825e-06
0.000281643
-7.46587e-06
0.000277049
-4.99414e-06
0.000273384
3.06221e-06
0.000270899
1.15086e-05
0.000270519
1.77294e-05
0.00027203
2.20761e-05
0.000274617
2.62714e-05
0.000277421
3.12103e-05
0.000280153
3.61974e-05
0.000282927
4.03424e-05
0.000285811
4.34444e-05
0.000288663
4.57716e-05
4.76637e-05
0.000291194
3.91044e-05
0.000437962
9.58584e-05
0.00049592
0.000223702
8.85404e-05
0.00032229
-0.000107903
0.000352102
-0.00012521
0.000337909
-9.32e-05
0.000309632
-5.04168e-05
0.000285584
-1.60163e-05
0.000270691
-1.25499e-07
0.000260172
3.71105e-06
0.0002489
3.80672e-06
0.00023989
4.01565e-06
0.000237038
5.9142e-06
0.000239611
8.93543e-06
0.000245037
1.23037e-05
0.000251082
1.60306e-05
0.000256622
2.07317e-05
0.000261985
2.58469e-05
0.000268072
3.01109e-05
0.000275054
3.33596e-05
0.000282595
3.5904e-05
0.000290296
3.80708e-05
3.99456e-05
0.000298014
9.11257e-05
0.000346837
0.000260172
0.000326873
0.000390477
-4.17645e-05
0.00037621
-9.36354e-05
0.000302303
-5.13034e-05
0.000232201
-2.30977e-05