/*--------------------------------*- C++ -*----------------------------------*\
  =========                 |
  \\      /  F ield         | OpenFOAM: The Open Source CFD Toolbox
   \\    /   O peration     | Website:  https://openfoam.org
    \\  /    A nd           | Version:  9
     \\/     M anipulation  |
\*---------------------------------------------------------------------------*/
FoamFile
{
    format      ascii;
    class       volVectorField;
    location    "0.55";
    object      U;
}
// * * * * * * * * * * * * * * * * * * * * * * * * * * * * * * * * * * * * * //

dimensions      [0 1 -1 0 0 0 0];

internalField   nonuniform List<vector> 
2268
(
(-0.0434968 0.0175156 0)
(-0.0790091 0.0076404 0)
(-0.0777699 -0.00539573 0)
(-0.0535586 -0.0105687 0)
(-0.0237247 -0.0114881 0)
(0.00688929 -0.0109151 0)
(0.0356004 -0.00993186 0)
(0.0616495 -0.0089031 0)
(0.0849894 -0.00795783 0)
(0.10581 -0.00710528 0)
(0.124274 -0.00629468 0)
(0.140336 -0.00544101 0)
(0.15368 -0.0044382 0)
(0.163599 -0.00312419 0)
(0.169166 -0.00102358 0)
(0.167372 0.00221335 0)
(0.154854 0.00714874 0)
(0.127954 0.0135339 0)
(0.0832683 0.0203687 0)
(0.0204602 0.025999 0)
(-0.0638272 0.0248332 0)
(-0.145002 -0.00302032 0)
(-0.0629675 -0.0470436 0)
(-0.0449318 0.0383687 0)
(-0.0478935 0.0129438 0)
(-0.0355615 -0.00994908 0)
(-0.0128063 -0.0197047 0)
(0.0140016 -0.0220179 0)
(0.0410085 -0.0213603 0)
(0.0662706 -0.0196376 0)
(0.089143 -0.0176807 0)
(0.109544 -0.0157951 0)
(0.127591 -0.0140368 0)
(0.143375 -0.0123138 0)
(0.156798 -0.0104435 0)
(0.167531 -0.00821346 0)
(0.175012 -0.00533932 0)
(0.178438 -0.00124118 0)
(0.17715 0.00476417 0)
(0.169385 0.0133752 0)
(0.152143 0.0247688 0)
(0.121873 0.0379339 0)
(0.0749284 0.0500829 0)
(0.0165283 0.0517397 0)
(-0.0597111 0.0181534 0)
(-0.0193029 -0.0753255 0)
(-0.0295463 0.0530801 0)
(-0.0181519 0.00959533 0)
(-0.00386865 -0.0189723 0)
(0.0179736 -0.0306926 0)
(0.0418252 -0.0334226 0)
(0.0653024 -0.0322558 0)
(0.0871214 -0.0296226 0)
(0.106842 -0.0266348 0)
(0.124391 -0.0237243 0)
(0.139835 -0.0209763 0)
(0.153212 -0.0182525 0)
(0.164383 -0.0152758 0)
(0.173009 -0.0117512 0)
(0.17862 -0.00732807 0)
(0.18064 -0.00144221 0)
(0.178585 0.00674978 0)
(0.171637 0.0181905 0)
(0.158425 0.0334779 0)
(0.137542 0.0516506 0)
(0.107155 0.0686539 0)
(0.071848 0.0726529 0)
(0.0126886 0.0347426 0)
(0.0220245 -0.0798886 0)
(-0.0105694 0.0601184 0)
(0.00799988 0.00340598 0)
(0.0245616 -0.0280262 0)
(0.0454894 -0.0410469 0)
(0.0664141 -0.0438399 0)
(0.0862996 -0.042064 0)
(0.104628 -0.0385676 0)
(0.121191 -0.0346405 0)
(0.135924 -0.030793 0)
(0.148843 -0.0271267 0)
(0.159943 -0.0234578 0)
(0.169053 -0.0194184 0)
(0.175822 -0.0146494 0)
(0.179859 -0.00877649 0)
(0.180795 -0.00123626 0)
(0.17841 0.00883251 0)
(0.172422 0.022479 0)
(0.162313 0.0404002 0)
(0.147808 0.0615459 0)
(0.128422 0.0813953 0)
(0.106354 0.0880717 0)
(0.0635396 0.0512572 0)
(0.0529299 -0.061067 0)
(0.00701477 0.0551211 0)
(0.0319204 -0.00435768 0)
(0.051503 -0.0374124 0)
(0.0711509 -0.0504886 0)
(0.0888619 -0.0527732 0)
(0.105021 -0.0503015 0)
(0.119836 -0.0460619 0)
(0.133274 -0.041359 0)
(0.145242 -0.0367215 0)
(0.155697 -0.0322613 0)
(0.164604 -0.0277552 0)
(0.171766 -0.0227478 0)
(0.176827 -0.0168387 0)
(0.179464 -0.00967873 0)
(0.179501 -0.000758055 0)
(0.176998 0.0107348 0)
(0.172079 0.025883 0)
(0.164692 0.0453933 0)
(0.155079 0.0680512 0)
(0.143409 0.089348 0)
(0.129856 0.098803 0)
(0.0992503 0.0688462 0)
(0.0748527 -0.0303677 0)
(0.0200576 0.0404511 0)
(0.0535612 -0.0150441 0)
(0.0770379 -0.0469943 0)
(0.094903 -0.0586643 0)
(0.108941 -0.0599013 0)
(0.121277 -0.0567509 0)
(0.132673 -0.051959 0)
(0.143128 -0.0466756 0)
(0.152456 -0.0414104 0)
(0.160544 -0.0362971 0)
(0.167345 -0.0310883 0)
(0.172658 -0.0252382 0)
(0.17612 -0.0183236 0)
(0.177474 -0.0100693 0)
(0.176718 -7.13955e-05 0)
(0.174196 0.0123852 0)
(0.170365 0.0283952 0)
(0.165419 0.0486854 0)
(0.159789 0.0718779 0)
(0.154002 0.0937684 0)
(0.146871 0.105983 0)
(0.126332 0.0869474 0)
(0.0925075 0.0130549 0)
(0.0281018 0.0188613 0)
(0.0732709 -0.0294732 0)
(0.100807 -0.0566887 0)
(0.115948 -0.0653014 0)
(0.125877 -0.0651383 0)
(0.134513 -0.0614891 0)
(0.142792 -0.0563865 0)
(0.150554 -0.0507031 0)
(0.157463 -0.0449361 0)
(0.163336 -0.0392778 0)
(0.168136 -0.0334845 0)
(0.171688 -0.026915 0)
(0.173642 -0.0191321 0)
(0.173801 -0.0099795 0)
(0.172321 0.000795935 0)
(0.169815 0.0137776 0)
(0.167045 0.0300936 0)
(0.164298 0.0505531 0)
(0.162018 0.0735962 0)
(0.161044 0.0954132 0)
(0.159641 0.109992 0)
(0.149233 0.104215 0)
(0.111416 0.0688696 0)
(0.0342588 -0.00865749 0)
(0.0926709 -0.0492747 0)
(0.12175 -0.0674665 0)
(0.132744 -0.0709813 0)
(0.138607 -0.0690609 0)
(0.144127 -0.0650496 0)
(0.149881 -0.0597934 0)
(0.155417 -0.0538049 0)
(0.160246 -0.0475744 0)
(0.164123 -0.041379 0)
(0.167055 -0.0350215 0)
(0.168931 -0.0277886 0)
(0.169455 -0.0192449 0)
(0.168495 -0.00938013 0)
(0.166341 0.00187352 0)
(0.163863 0.0149276 0)
(0.162106 0.0310092 0)
(0.161326 0.0511572 0)
(0.161877 0.0735081 0)
(0.164973 0.094505 0)
(0.169293 0.1103 0)
(0.168451 0.11624 0)
(0.146432 0.141864 0)
(0.124597 -0.0830619 0)
(0.304273 -0.0270666 0)
(0.238641 0.0344002 0)
(-0.0150022 0.0760977 0)
(-0.36809 0.1014 0)
(-0.763102 0.109291 0)
(-1.15172 0.104085 0)
(-1.51126 0.0957686 0)
(-1.84396 0.0907531 0)
(-2.1695 0.0911041 0)
(-2.51701 0.0953406 0)
(-2.90296 0.0937607 0)
(-3.32269 0.0430464 0)
(-3.75783 -0.082127 0)
(-4.17956 -0.244331 0)
(-4.30895 -0.345586 0)
(-3.75672 -0.393649 0)
(-2.28413 -0.625733 0)
(-0.452137 -0.686184 0)
(0.0521003 -0.138673 0)
(0.139528 -0.00531342 0)
(0.0099099 0.118499 0)
(-0.324154 0.207858 0)
(-0.736673 0.251928 0)
(-1.12539 0.25604 0)
(-1.46086 0.238281 0)
(-1.75249 0.218888 0)
(-2.01922 0.208569 0)
(-2.27681 0.211376 0)
(-2.53454 0.231137 0)
(-2.77567 0.264838 0)
(-2.93813 0.283636 0)
(-2.96852 0.23976 0)
(-2.83183 0.174392 0)
(-2.65644 0.128673 0)
(-2.43163 -0.326361 0)
(-1.31779 -0.901955 0)
(0.0522167 -1.15286 0)
(-0.00715483 -0.154051 0)
(0.0217022 0.02589 0)
(-0.156038 0.218962 0)
(-0.464694 0.347355 0)
(-0.792325 0.394261 0)
(-1.07336 0.382341 0)
(-1.31108 0.347314 0)
(-1.52009 0.315518 0)
(-1.70859 0.296908 0)
(-1.87675 0.291257 0)
(-2.01705 0.292077 0)
(-2.11059 0.28488 0)
(-2.11595 0.232874 0)
(-2.02024 0.0810216 0)
(-1.85441 -0.147823 0)
(-1.63043 -0.306679 0)
(-1.31488 -0.504084 0)
(-0.719095 -1.15291 0)
(0.20662 -1.39111 0)
(-0.0341981 -0.142442 0)
(-0.035002 0.0635445 0)
(-0.209681 0.31721 0)
(-0.464712 0.467378 0)
(-0.704894 0.506266 0)
(-0.905552 0.477835 0)
(-1.08053 0.429402 0)
(-1.23554 0.387192 0)
(-1.36818 0.357899 0)
(-1.46955 0.337774 0)
(-1.52621 0.317466 0)
(-1.51915 0.281287 0)
(-1.42979 0.194563 0)
(-1.26162 0.00881047 0)
(-1.06342 -0.226975 0)
(-0.690646 -0.475546 0)
(-0.107039 -0.729691 0)
(-0.319654 -1.17545 0)
(0.221917 -1.4998 0)
(-0.0253595 -0.112378 0)
(-0.0237047 0.0970036 0)
(-0.174172 0.402042 0)
(-0.380809 0.559529 0)
(-0.556518 0.587109 0)
(-0.703813 0.547577 0)
(-0.836179 0.490694 0)
(-0.951151 0.439318 0)
(-1.04053 0.397348 0)
(-1.09088 0.359072 0)
(-1.08483 0.313667 0)
(-1.00797 0.245847 0)
(-0.858308 0.127784 0)
(-0.650904 -0.0821898 0)
(-0.432902 -0.329169 0)
(-0.13645 -0.592418 0)
(0.192323 -0.793196 0)
(0.00982624 -1.12217 0)
(0.211842 -1.50602 0)
(0.0189833 -0.0957567 0)
(0.0513945 0.128179 0)
(-0.0785999 0.476785 0)
(-0.251827 0.630434 0)
(-0.381363 0.64577 0)
(-0.490044 0.599168 0)
(-0.58984 0.536165 0)
(-0.67303 0.475497 0)
(-0.72887 0.419028 0)
(-0.742687 0.359369 0)
(-0.695797 0.285793 0)
(-0.578036 0.188435 0)
(-0.414303 0.0461128 0)
(-0.194276 -0.188878 0)
(0.0436586 -0.440779 0)
(0.266441 -0.665589 0)
(0.297903 -0.826551 0)
(0.190605 -1.10011 0)
(0.220301 -1.44048 0)
(0.112713 -0.242961 0)
(0.192915 0.140566 0)
(0.0439197 0.55195 0)
(-0.10371 0.686962 0)
(-0.195383 0.688374 0)
(-0.272097 0.636965 0)
(-0.344991 0.569073 0)
(-0.402603 0.499043 0)
(-0.433372 0.427593 0)
(-0.423204 0.346508 0)
(-0.354257 0.24695 0)
(-0.227342 0.124729 0)
(-0.0724248 -0.0368098 0)
(0.163689 -0.293583 0)
(0.358702 -0.501003 0)
(0.374923 -0.663837 0)
(0.367527 -0.820807 0)
(0.284928 -1.06398 0)
(0.232901 -1.34947 0)
(0.175683 -0.205834 0)
(0.222222 0.0825606 0)
(0.122616 0.598052 0)
(0.0376635 0.726338 0)
(-0.00840105 0.716195 0)
(-0.0544491 0.663008 0)
(-0.103794 0.591553 0)
(-0.141096 0.513051 0)
(-0.154477 0.427692 0)
(-0.131365 0.326712 0)
(-0.0568503 0.201529 0)
(0.0666239 0.0582439 0)
(0.213189 -0.119961 0)
(0.430057 -0.362115 0)
(0.452747 -0.512687 0)
(0.442179 -0.654633 0)
(0.415432 -0.807014 0)
(0.327572 -1.01705 0)
(0.23623 -1.24101 0)
(0.056692 -0.060475 0)
(0.121476 -0.0909193 0)
(0.144212 -0.0874582 0)
(0.148803 -0.0800783 0)
(0.150561 -0.0747578 0)
(0.153116 -0.0700215 0)
(0.156262 -0.0644906 0)
(0.15929 -0.0580302 0)
(0.161605 -0.0510465 0)
(0.162908 -0.0439047 0)
(0.163244 -0.0365191 0)
(0.162631 -0.0281639 0)
(0.161028 -0.0184708 0)
(0.158468 -0.0076803 0)
(0.155369 0.00393142 0)
(0.15296 0.0163709 0)
(0.152724 0.031184 0)
(0.154665 0.0502563 0)
(0.158826 0.0708377 0)
(0.167136 0.0892432 0)
(0.180167 0.104337 0)
(0.196478 0.11757 0)
(0.230537 0.154984 0)
(0.115761 -0.17184 0)
(0.139228 -0.122402 0)
(0.137767 -0.0861557 0)
(0.139836 -0.0759382 0)
(0.143338 -0.0725911 0)
(0.14693 -0.0694993 0)
(0.150335 -0.0647752 0)
(0.15332 -0.0585217 0)
(0.155473 -0.0514433 0)
(0.156358 -0.0442817 0)
(0.155536 -0.0371744 0)
(0.152417 -0.0285083 0)
(0.148422 -0.0177549 0)
(0.144373 -0.00577584 0)
(0.140493 0.00626511 0)
(0.138371 0.01709 0)
(0.14022 0.028251 0)
(0.145004 0.0450432 0)
(0.151647 0.062359 0)
(0.163021 0.0751098 0)
(0.179644 0.085137 0)
(0.198833 0.0912254 0)
(0.225973 0.0946978 0)
(0.0809301 -0.28617 0)
(0.0805725 -0.111676 0)
(0.110237 -0.0832387 0)
(0.130063 -0.0768999 0)
(0.139006 -0.0731645 0)
(0.143204 -0.0697627 0)
(0.145525 -0.0647066 0)
(0.14741 -0.0579421 0)
(0.149029 -0.0501396 0)
(0.149632 -0.0420965 0)
(0.147121 -0.0341288 0)
(0.135352 -0.0243041 0)
(0.12712 -0.0136763 0)
(0.123185 -0.0022113 0)
(0.121933 0.00790175 0)
(0.125167 0.0156028 0)
(0.131417 0.0246056 0)
(0.137787 0.040182 0)
(0.146259 0.052953 0)
(0.16017 0.0577977 0)
(0.178266 0.0640472 0)
(0.198076 0.0676793 0)
(0.220984 0.0690616 0)
(-0.0721741 -0.359467 0)
(-0.0199558 -0.17904 0)
(0.0251852 -0.124796 0)
(0.0623325 -0.106943 0)
(0.0902859 -0.0949953 0)
(0.111504 -0.0850831 0)
(0.127227 -0.0761583 0)
(0.138276 -0.0664144 0)
(0.144916 -0.0542773 0)
(0.146576 -0.0385012 0)
(0.142971 -0.0176449 0)
(0.136502 0.00528115 0)
(0.122422 -0.00540713 0)
(0.115542 0.000746452 0)
(0.112986 0.00975178 0)
(0.113088 0.0145669 0)
(0.116945 0.0191644 0)
(0.127998 0.0350302 0)
(0.147298 0.0445998 0)
(0.166635 0.0453568 0)
(0.184343 0.0483842 0)
(0.204357 0.0480724 0)
(0.226731 0.0479564 0)
(-0.0320587 -0.214222 0)
(-0.0293168 -0.200847 0)
(0.00209825 -0.165069 0)
(0.03262 -0.140304 0)
(0.0601249 -0.121224 0)
(0.0834384 -0.105272 0)
(0.102454 -0.0909393 0)
(0.117374 -0.0766809 0)
(0.128556 -0.0610437 0)
(0.13668 -0.0428197 0)
(0.143459 -0.0214862 0)
(0.151009 -0.000322586 0)
(0.153827 0.00964911 0)
(0.150985 0.0125669 0)
(0.14684 0.0139094 0)
(0.137823 0.0134431 0)
(0.118114 0.00993962 0)
(0.119972 0.0257573 0)
(0.146256 0.0338151 0)
(0.170031 0.0305741 0)
(0.193617 0.0345208 0)
(0.218303 0.0342223 0)
(0.240198 0.035486 0)
(-0.0106118 -0.237666 0)
(-0.0124468 -0.217028 0)
(0.00179387 -0.1897 0)
(0.0216447 -0.165626 0)
(0.0427665 -0.14472 0)
(0.0628313 -0.125979 0)
(0.0808828 -0.108417 0)
(0.0966525 -0.0910103 0)
(0.110361 -0.0728078 0)
(0.122753 -0.0532348 0)
(0.135132 -0.0327453 0)
(0.148201 -0.0140448 0)
(0.159357 -0.00147963 0)
(0.166478 0.0089185 0)
(0.171409 0.0185564 0)
(0.175173 0.023388 0)
(0.176171 0.0123497 0)
(0.182601 -0.013272 0)
(0.182601 -0.0128742 0)
(0.176234 0.00691229 0)
(0.195003 0.0190153 0)
(0.220551 0.0169033 0)
(0.240154 0.0168843 0)
(-0.00662261 -0.219026 0)
(-0.00671457 -0.220505 0)
(0.00257108 -0.202932 0)
(0.0158874 -0.182808 0)
(0.0314294 -0.162912 0)
(0.0475571 -0.143703 0)
(0.0633729 -0.124957 0)
(0.0785094 -0.106206 0)
(0.093039 -0.0869788 0)
(0.107439 -0.067114 0)
(0.122418 -0.0471668 0)
(0.138191 -0.0287845 0)
(0.153477 -0.0137261 0)
(0.167092 -0.00109409 0)
(0.179711 0.00965623 0)
(0.19195 0.0160767 0)
(0.202092 0.0144407 0)
(0.208282 0.00670453 0)
(0.211567 -0.00347086 0)
(0.218937 -0.0250254 0)
(0.234954 -0.0456224 0)
(0.234124 -0.0201271 0)
(0.236183 -0.00313572 0)
(-0.00275357 -0.215693 0)
(-0.00274401 -0.223926 0)
(0.00273402 -0.211655 0)
(0.0115379 -0.194824 0)
(0.0227768 -0.176679 0)
(0.035432 -0.158209 0)
(0.0488379 -0.139632 0)
(0.0626657 -0.120862 0)
(0.0768927 -0.101774 0)
(0.0917503 -0.0824326 0)
(0.107562 -0.0633288 0)
(0.124336 -0.0454633 0)
(0.141425 -0.0298461 0)
(0.158224 -0.0165626 0)
(0.174883 -0.00586304 0)
(0.191406 0.000839689 0)
(0.206397 0.00209257 0)
(0.218182 -0.000561396 0)
(0.227409 -0.00353787 0)
(0.235117 -0.00951387 0)
(0.240284 -0.0171625 0)
(0.244382 -0.0210324 0)
(0.253755 -0.0322075 0)
(-0.00148799 -0.214043 0)
(-0.0020502 -0.225998 0)
(0.00111429 -0.217224 0)
(0.00690303 -0.203173 0)
(0.0150149 -0.187036 0)
(0.0248881 -0.169954 0)
(0.0360923 -0.152358 0)
(0.0483786 -0.134399 0)
(0.0616818 -0.11616 0)
(0.0760803 -0.0978322 0)
(0.091682 -0.0798389 0)
(0.108416 -0.0628593 0)
(0.125914 -0.0475815 0)
(0.143798 -0.0343979 0)
(0.161925 -0.0237948 0)
(0.17997 -0.0166787 0)
(0.196917 -0.0137165 0)
(0.211654 -0.0140742 0)
(0.224162 -0.0159914 0)
(0.234383 -0.0193124 0)
(0.242151 -0.0216254 0)
(0.250464 -0.0198829 0)
(0.261239 -0.0198636 0)
(-0.00178507 -0.211978 0)
(-0.00327291 -0.226625 0)
(-0.00185739 -0.220537 0)
(0.00173782 -0.208898 0)
(0.00750262 -0.194812 0)
(0.0151413 -0.179422 0)
(0.0243955 -0.16325 0)
(0.0350912 -0.146573 0)
(0.0471528 -0.129591 0)
(0.0605772 -0.112556 0)
(0.075363 -0.0958419 0)
(0.091405 -0.0799567 0)
(0.108446 -0.0654298 0)
(0.12618 -0.0527025 0)
(0.144323 -0.0422592 0)
(0.162427 -0.0346851 0)
(0.179714 -0.0303246 0)
(0.195391 -0.0287541 0)
(0.209171 -0.0290485 0)
(0.220867 -0.0305547 0)
(0.230547 -0.0316621 0)
(0.239541 -0.0310679 0)
(0.248291 -0.0308739 0)
(-0.00260672 -0.208922 0)
(-0.00527987 -0.2258 0)
(-0.00540475 -0.222039 0)
(-0.00359711 -0.212603 0)
(0.000256581 -0.20053 0)
(0.00600535 -0.186948 0)
(0.0134889 -0.172416 0)
(0.0225885 -0.157269 0)
(0.0332334 -0.141766 0)
(0.0453821 -0.126178 0)
(0.058981 -0.110841 0)
(0.0739079 -0.096161 0)
(0.0899454 -0.0825661 0)
(0.106812 -0.0704603 0)
(0.12417 -0.0602515 0)
(0.141559 -0.0523303 0)
(0.158343 -0.0468873 0)
(0.173892 -0.0436883 0)
(0.187821 -0.042178 0)
(0.199885 -0.0417507 0)
(0.210068 -0.0414046 0)
(0.218764 -0.0403117 0)
(0.226132 -0.038628 0)
(-0.00352847 -0.204393 0)
(-0.00736947 -0.223527 0)
(-0.00888438 -0.221955 0)
(-0.00862752 -0.214598 0)
(-0.00643387 -0.20448 0)
(-0.00237733 -0.192729 0)
(0.00344061 -0.179921 0)
(0.0109388 -0.166417 0)
(0.0200563 -0.152498 0)
(0.0307377 -0.138433 0)
(0.0429069 -0.124523 0)
(0.0564349 -0.111101 0)
(0.0711211 -0.0985176 0)
(0.0866971 -0.0871117 0)
(0.102824 -0.0772063 0)
(0.119065 -0.0690713 0)
(0.134887 -0.0628207 0)
(0.149753 -0.0583064 0)
(0.163249 -0.0551496 0)
(0.17507 -0.0528436 0)
(0.185071 -0.0506737 0)
(0.193216 -0.0479526 0)
(0.199551 -0.04424 0)
(-0.0042786 -0.198546 0)
(-0.00910913 -0.219956 0)
(-0.0118439 -0.220468 0)
(-0.0129544 -0.215073 0)
(-0.0122494 -0.20683 0)
(-0.00975512 -0.196879 0)
(-0.00553277 -0.185802 0)
(0.000364778 -0.173969 0)
(0.00788856 -0.161665 0)
(0.0169818 -0.149145 0)
(0.0275626 -0.136675 0)
(0.0395038 -0.12453 0)
(0.0526181 -0.112993 0)
(0.0666547 -0.102335 0)
(0.081294 -0.092802 0)
(0.0961415 -0.0845824 0)
(0.110739 -0.0777456 0)
(0.124622 -0.0721831 0)
(0.13738 -0.0676082 0)
(0.148677 -0.0635879 0)
(0.158275 -0.0595287 0)
(0.165929 -0.0547862 0)
(0.171595 -0.0487488 0)
(-0.0047415 -0.191721 0)
(-0.0103025 -0.215328 0)
(-0.0140436 -0.217772 0)
(-0.0163335 -0.214194 0)
(-0.0169589 -0.207714 0)
(-0.0159065 -0.199486 0)
(-0.0132044 -0.190095 0)
(-0.00888069 -0.179908 0)
(-0.00297001 -0.1692 0)
(0.00447727 -0.158209 0)
(0.0133831 -0.147164 0)
(0.0236283 -0.136292 0)
(0.0350427 -0.125816 0)
(0.0473986 -0.115944 0)
(0.0604078 -0.106857 0)
(0.0737232 -0.0986829 0)
(0.0869517 -0.0914587 0)
(0.0996882 -0.0850906 0)
(0.111554 -0.0793391 0)
(0.12221 -0.0738174 0)
(0.131377 -0.0679846 0)
(0.138722 -0.0611993 0)
(0.144152 -0.0527609 0)
(-0.00490621 -0.184336 0)
(-0.0109107 -0.209932 0)
(-0.0154164 -0.21409 0)
(-0.0186787 -0.212143 0)
(-0.0204605 -0.207277 0)
(-0.02071 -0.200657 0)
(-0.0194233 -0.192866 0)
(-0.016605 -0.184258 0)
(-0.0122732 -0.175093 0)
(-0.00646695 -0.165584 0)
(0.000745507 -0.155927 0)
(0.00925872 -0.146306 0)
(0.0189222 -0.136892 0)
(0.0295362 -0.127839 0)
(0.0408502 -0.119272 0)
(0.0525662 -0.111274 0)
(0.0643514 -0.103854 0)
(0.0758598 -0.0969209 0)
(0.0867563 -0.0902572 0)
(0.0967282 -0.0835013 0)
(0.105498 -0.0761316 0)
(0.112714 -0.0674891 0)
(0.118274 -0.0567966 0)
(-0.0048152 -0.176787 0)
(-0.0109922 -0.204065 0)
(-0.0160172 -0.20966 0)
(-0.0200333 -0.209121 0)
(-0.0227789 -0.205689 0)
(-0.0241635 -0.200533 0)
(-0.0241518 -0.194223 0)
(-0.0227251 -0.187097 0)
(-0.0198843 -0.179392 0)
(-0.0156542 -0.171296 0)
(-0.0100892 -0.162973 0)
(-0.0032781 -0.154565 0)
(0.00465138 -0.146202 0)
(0.0135297 -0.137991 0)
(0.0231453 -0.130014 0)
(0.0332502 -0.122315 0)
(0.0435695 -0.114883 0)
(0.0538171 -0.107623 0)
(0.063711 -0.100328 0)
(0.0729826 -0.0926483 0)
(0.0813855 -0.0840641 0)
(0.0885901 -0.0738878 0)
(0.0945167 -0.0612647 0)
(-0.00453311 -0.169399 0)
(-0.0106576 -0.197995 0)
(-0.0159764 -0.204718 0)
(-0.0205313 -0.205338 0)
(-0.024039 -0.20314 0)
(-0.0263723 -0.199283 0)
(-0.0274658 -0.194314 0)
(-0.0272791 -0.18855 0)
(-0.0257958 -0.182202 0)
(-0.0230259 -0.175431 0)
(-0.0190082 -0.168369 0)
(-0.0138127 -0.161126 0)
(-0.0075436 -0.15379 0)
(-0.000339812 -0.146432 0)
(0.00762674 -0.1391 0)
(0.0161559 -0.131812 0)
(0.0250285 -0.124537 0)
(0.0340179 -0.117178 0)
(0.0429008 -0.109535 0)
(0.0514624 -0.101262 0)
(0.0595039 -0.0918309 0)
(0.0667396 -0.0805191 0)
(0.0731311 -0.0663934 0)
(-0.00412846 -0.162409 0)
(-0.0100367 -0.19194 0)
(-0.0154611 -0.199477 0)
(-0.0203587 -0.201003 0)
(-0.0244313 -0.199829 0)
(-0.0275198 -0.197094 0)
(-0.0295328 -0.193315 0)
(-0.03041 -0.188778 0)
(-0.0301197 -0.183669 0)
(-0.0286575 -0.178121 0)
(-0.0260467 -0.172235 0)
(-0.0223388 -0.166091 0)
(-0.017614 -0.159747 0)
(-0.011981 -0.153242 0)
(-0.00557452 -0.146598 0)
(0.00145094 -0.139811 0)
(0.00892875 -0.132844 0)
(0.0166897 -0.125598 0)
(0.0245696 -0.117876 0)
(0.0324119 -0.109334 0)
(0.0400713 -0.0994304 0)
(0.0473139 -0.0874022 0)
(0.0541464 -0.0722347 0)
(-0.00366349 -0.155961 0)
(-0.00925606 -0.186056 0)
(-0.0146446 -0.194111 0)
(-0.0197193 -0.196303 0)
(-0.0241762 -0.19595 0)
(-0.0278329 -0.194159 0)
(-0.0305772 -0.191412 0)
(-0.0323337 -0.187963 0)
(-0.0330572 -0.183966 0)
(-0.0327309 -0.179527 0)
(-0.0313638 -0.174723 0)
(-0.0289897 -0.169604 0)
(-0.0256668 -0.164203 0)
(-0.0214755 -0.158536 0)
(-0.0165151 -0.152605 0)
(-0.0108981 -0.146394 0)
(-0.00474238 -0.13986 0)
(0.00183628 -0.13291 0)
(0.00873056 -0.125352 0)
(0.0158404 -0.116843 0)
(0.0230737 -0.10682 0)
(0.0302472 -0.0944734 0)
(0.0374047 -0.0787009 0)
(-0.00319049 -0.15012 0)
(-0.00842481 -0.180439 0)
(-0.0136843 -0.188755 0)
(-0.0188065 -0.191398 0)
(-0.023493 -0.191678 0)
(-0.0275478 -0.190662 0)
(-0.0308459 -0.188793 0)
(-0.0333015 -0.186288 0)
(-0.0348601 -0.183273 0)
(-0.0354945 -0.179825 0)
(-0.0352012 -0.175998 0)
(-0.0339989 -0.17182 0)
(-0.0319255 -0.167302 0)
(-0.0290359 -0.162443 0)
(-0.0253979 -0.157233 0)
(-0.021086 -0.151649 0)
(-0.0161738 -0.145651 0)
(-0.0107278 -0.139151 0)
(-0.00480287 -0.131967 0)
(0.00155225 -0.123752 0)
(0.00829325 -0.113922 0)
(0.0152807 -0.101606 0)
(0.0225834 -0.0856042 0)
(-0.00274951 -0.144882 0)
(-0.00762621 -0.175127 0)
(-0.0127066 -0.183498 0)
(-0.0177837 -0.186415 0)
(-0.0225755 -0.187164 0)
(-0.0268826 -0.186769 0)
(-0.0305761 -0.185631 0)
(-0.0335658 -0.18393 0)
(-0.0357923 -0.181764 0)
(-0.0372209 -0.179187 0)
(-0.0378387 -0.176228 0)
(-0.037651 -0.172898 0)
(-0.0366786 -0.169193 0)
(-0.0349543 -0.165099 0)
(-0.0325184 -0.160599 0)
(-0.0294122 -0.15567 0)
(-0.0256708 -0.150279 0)
(-0.021317 -0.14435 0)
(-0.0163593 -0.137711 0)
(-0.010799 -0.130009 0)
(-0.00463961 -0.120629 0)
(0.0020128 -0.108629 0)
(0.00923741 -0.0926923 0)
(-0.00236579 -0.140197 0)
(-0.00691419 -0.170121 0)
(-0.0118002 -0.178392 0)
(-0.0167732 -0.181445 0)
(-0.0215768 -0.182529 0)
(-0.0260182 -0.18262 0)
(-0.0299727 -0.182076 0)
(-0.0333527 -0.181047 0)
(-0.0360984 -0.1796 0)
(-0.0381718 -0.17777 0)
(-0.039553 -0.175567 0)
(-0.0402371 -0.172987 0)
(-0.0402306 -0.170014 0)
(-0.0395483 -0.166627 0)
(-0.0382073 -0.162807 0)
(-0.036221 -0.158537 0)
(-0.033592 -0.153795 0)
(-0.0303059 -0.148521 0)
(-0.0263314 -0.142553 0)
(-0.0216296 -0.135534 0)
(-0.0161701 -0.126806 0)
(-0.0100293 -0.11534 0)
(-0.00313049 -0.0996798 0)
(-0.00204749 -0.13599 0)
(-0.00631378 -0.16539 0)
(-0.0110151 -0.173458 0)
(-0.015853 -0.176552 0)
(-0.0206033 -0.177866 0)
(-0.0250881 -0.178329 0)
(-0.0291947 -0.178258 0)
(-0.0328446 -0.177773 0)
(-0.0359827 -0.176921 0)
(-0.0385715 -0.175715 0)
(-0.0405876 -0.174153 0)
(-0.042019 -0.172218 0)
(-0.0428615 -0.169887 0)
(-0.0431153 -0.167135 0)
(-0.0427794 -0.163946 0)
(-0.0418449 -0.160313 0)
(-0.040288 -0.15623 0)
(-0.038064 -0.151656 0)
(-0.0351084 -0.146442 0)
(-0.0313486 -0.140222 0)
(-0.0267255 -0.13229 0)
(-0.0212916 -0.121513 0)
(-0.0149778 -0.106274 0)
(-0.00178399 -0.13218 0)
(-0.00582514 -0.160887 0)
(-0.0103676 -0.168692 0)
(-0.0150606 -0.171769 0)
(-0.0197161 -0.17324 0)
(-0.0241773 -0.173983 0)
(-0.0283508 -0.174279 0)
(-0.0321728 -0.174224 0)
(-0.0355978 -0.173844 0)
(-0.0385927 -0.173141 0)
(-0.0411344 -0.172102 0)
(-0.0432069 -0.170702 0)
(-0.0447987 -0.168912 0)
(-0.0458999 -0.166711 0)
(-0.0464959 -0.164085 0)
(-0.0465612 -0.161043 0)
(-0.0460518 -0.157599 0)
(-0.0448997 -0.153733 0)
(-0.0430134 -0.14931 0)
(-0.040292 -0.143957 0)
(-0.0366507 -0.13691 0)
(-0.032118 -0.126922 0)
(-0.0266309 -0.112197 0)
(-0.00155023 -0.128697 0)
(-0.00543202 -0.15656 0)
(-0.00984919 -0.164078 0)
(-0.0144012 -0.167114 0)
(-0.0189374 -0.168696 0)
(-0.0233274 -0.169648 0)
(-0.0275022 -0.170221 0)
(-0.0314181 -0.170489 0)
(-0.035043 -0.170468 0)
(-0.0383524 -0.17015 0)
(-0.0413266 -0.169514 0)
(-0.0439489 -0.168534 0)
(-0.0462045 -0.167179 0)
(-0.0480769 -0.165428 0)
(-0.0495428 -0.163281 0)
(-0.0505658 -0.16076 0)
(-0.051088 -0.157902 0)
(-0.0510246 -0.154714 0)
(-0.050263 -0.151079 0)
(-0.0486777 -0.146613 0)
(-0.0461583 -0.140497 0)
(-0.0427046 -0.131359 0)
(-0.0382493 -0.117209 0)
(-0.00132024 -0.125493 0)
(-0.00511264 -0.152354 0)
(-0.00943769 -0.15959 0)
(-0.013858 -0.162591 0)
(-0.0182607 -0.164261 0)
(-0.0225449 -0.165372 0)
(-0.0266707 -0.166146 0)
(-0.0306173 -0.166644 0)
(-0.0343699 -0.166874 0)
(-0.0379156 -0.166825 0)
(-0.0412409 -0.166475 0)
(-0.0443322 -0.165797 0)
(-0.0471741 -0.164762 0)
(-0.0497475 -0.163354 0)
(-0.0520251 -0.161583 0)
(-0.0539646 -0.15949 0)
(-0.0555009 -0.157138 0)
(-0.0565384 -0.154563 0)
(-0.0569493 -0.151672 0)
(-0.0565863 -0.148076 0)
(-0.0553108 -0.142902 0)
(-0.053084 -0.134649 0)
(-0.0498171 -0.121131 0)
(-0.00108275 -0.12254 0)
(-0.00484918 -0.148224 0)
(-0.00910624 -0.155205 0)
(-0.0134017 -0.158199 0)
(-0.0176602 -0.159957 0)
(-0.0218121 -0.161193 0)
(-0.0258485 -0.162106 0)
(-0.0297738 -0.16275 0)
(-0.0335925 -0.163132 0)
(-0.0373052 -0.163243 0)
(-0.0409075 -0.163063 0)
(-0.0443913 -0.162568 0)
(-0.0477437 -0.161734 0)
(-0.0509466 -0.160551 0)
(-0.0539726 -0.159041 0)
(-0.0567789 -0.157266 0)
(-0.059299 -0.155315 0)
(-0.0614332 -0.153258 0)
(-0.0630443 -0.151031 0)
(-0.0639656 -0.148253 0)
(-0.0640264 -0.144003 0)
(-0.0631368 -0.136664 0)
(-0.0611621 -0.12385 0)
(-0.000849365 -0.119819 0)
(-0.00463087 -0.144138 0)
(-0.00882795 -0.150908 0)
(-0.0129969 -0.153943 0)
(-0.017099 -0.155802 0)
(-0.0210959 -0.15714 0)
(-0.0250093 -0.158143 0)
(-0.0288689 -0.15886 0)
(-0.0326988 -0.159304 0)
(-0.0365144 -0.159471 0)
(-0.0403224 -0.159351 0)
(-0.0441218 -0.158924 0)
(-0.047905 -0.15817 0)
(-0.0516576 -0.157091 0)
(-0.0553559 -0.155719 0)
(-0.0589615 -0.154135 0)
(-0.0624122 -0.152459 0)
(-0.0656113 -0.150798 0)
(-0.0684184 -0.149126 0)
(-0.0706514 -0.147081 0)
(-0.0721045 -0.143718 0)
(-0.0726227 -0.137319 0)
(-0.0719969 -0.125313 0)
(-0.000644496 -0.117302 0)
(-0.00444889 -0.140086 0)
(-0.00857545 -0.146702 0)
(-0.0126057 -0.149831 0)
(-0.0165359 -0.151811 0)
(-0.0203568 -0.153241 0)
(-0.0241179 -0.154292 0)
(-0.0278724 -0.15502 0)
(-0.031663 -0.155446 0)
(-0.0355199 -0.155579 0)
(-0.0394616 -0.155415 0)
(-0.0434958 -0.154944 0)
(-0.0476218 -0.154157 0)
(-0.0518312 -0.153059 0)
(-0.0561072 -0.151698 0)
(-0.0604197 -0.150172 0)
(-0.0647165 -0.14863 0)
(-0.0689112 -0.147221 0)
(-0.0728685 -0.145964 0)
(-0.0763974 -0.144539 0)
(-0.0792569 -0.142004 0)
(-0.0812163 -0.136571 0)
(-0.0819632 -0.125514 0)
(-0.000483419 -0.114955 0)
(-0.00428803 -0.13608 0)
(-0.00831987 -0.142605 0)
(-0.0121912 -0.145883 0)
(-0.0159315 -0.148006 0)
(-0.019556 -0.149519 0)
(-0.0231386 -0.150588 0)
(-0.0267521 -0.151275 0)
(-0.0304556 -0.151616 0)
(-0.0342933 -0.151631 0)
(-0.0382947 -0.151333 0)
(-0.042477 -0.150719 0)
(-0.0468474 -0.14979 0)
(-0.0514051 -0.14856 0)
(-0.0561422 -0.147084 0)
(-0.0610401 -0.145481 0)
(-0.066062 -0.143924 0)
(-0.071139 -0.142605 0)
(-0.0761509 -0.141601 0)
(-0.0809081 -0.140652 0)
(-0.0851414 -0.138856 0)
(-0.0885402 -0.134408 0)
(-0.0906669 -0.124468 0)
(-0.000363795 -0.11274 0)
(-0.00412633 -0.132146 0)
(-0.00803531 -0.138644 0)
(-0.0117236 -0.142117 0)
(-0.015254 -0.144404 0)
(-0.0186625 -0.145997 0)
(-0.0220419 -0.147058 0)
(-0.0254809 -0.147665 0)
(-0.0290517 -0.147865 0)
(-0.0328099 -0.147698 0)
(-0.0367951 -0.147188 0)
(-0.0410334 -0.146346 0)
(-0.0455398 -0.145181 0)
(-0.050322 -0.143715 0)
(-0.0553818 -0.142012 0)
(-0.0607142 -0.140201 0)
(-0.0663016 -0.13848 0)
(-0.0720998 -0.137081 0)
(-0.078015 -0.136145 0)
(-0.0838736 -0.135496 0)
(-0.0893929 -0.134315 0)
(-0.0941915 -0.130839 0)
(-0.0976982 -0.122184 0)
(-0.000279452 -0.110653 0)
(-0.00394962 -0.128314 0)
(-0.00771168 -0.134846 0)
(-0.0111895 -0.138559 0)
(-0.0144871 -0.141027 0)
(-0.0176579 -0.142696 0)
(-0.0208092 -0.143733 0)
(-0.0240411 -0.144228 0)
(-0.0274352 -0.144248 0)
(-0.031055 -0.143847 0)
(-0.0349476 -0.143066 0)
(-0.0391463 -0.141928 0)
(-0.0436734 -0.140452 0)
(-0.0485441 -0.138666 0)
(-0.05377 -0.136638 0)
(-0.0593603 -0.134505 0)
(-0.0653185 -0.132482 0)
(-0.0716303 -0.130833 0)
(-0.0782389 -0.129768 0)
(-0.0850047 -0.12921 0)
(-0.0916555 -0.12847 0)
(-0.0977635 -0.125897 0)
(-0.102638 -0.118652 0)
(-0.000254307 -0.108722 0)
(-0.00377439 -0.124614 0)
(-0.00737068 -0.131245 0)
(-0.0106021 -0.135236 0)
(-0.0136351 -0.137899 0)
(-0.0165397 -0.139643 0)
(-0.0194344 -0.140641 0)
(-0.0224261 -0.141003 0)
(-0.0256009 -0.140814 0)
(-0.0290256 -0.140146 0)
(-0.0327511 -0.139053 0)
(-0.0368152 -0.137574 0)
(-0.0412453 -0.135734 0)
(-0.0460628 -0.133566 0)
(-0.0512876 -0.131141 0)
(-0.0569416 -0.128594 0)
(-0.0630488 -0.12615 0)
(-0.0696271 -0.124098 0)
(-0.076664 -0.122705 0)
(-0.0840719 -0.122007 0)
(-0.0916189 -0.121477 0)
(-0.0988723 -0.119656 0)
(-0.105064 -0.113849 0)
(-0.000390775 -0.106909 0)
(-0.00365958 -0.121068 0)
(-0.00707486 -0.127877 0)
(-0.0100051 -0.132188 0)
(-0.0127236 -0.135056 0)
(-0.0153207 -0.136869 0)
(-0.0179229 -0.137816 0)
(-0.0206389 -0.138029 0)
(-0.023553 -0.137614 0)
(-0.0267299 -0.136659 0)
(-0.030219 -0.135235 0)
(-0.0340586 -0.13339 0)
(-0.0382781 -0.131157 0)
(-0.0429029 -0.128573 0)
(-0.0479584 -0.125705 0)
(-0.0534765 -0.122686 0)
(-0.0594981 -0.119735 0)
(-0.0660705 -0.117153 0)
(-0.0732276 -0.115253 0)
(-0.0809457 -0.114176 0)
(-0.0890642 -0.113582 0)
(-0.0971971 -0.112262 0)
(-0.104567 -0.107778 0)
(-0.000891058 -0.104988 0)
(-0.00370458 -0.117694 0)
(-0.00692336 -0.124805 0)
(-0.00946629 -0.129478 0)
(-0.0117926 -0.132554 0)
(-0.0140222 -0.134419 0)
(-0.0162863 -0.135296 0)
(-0.018688 -0.135344 0)
(-0.0213022 -0.134691 0)
(-0.024184 -0.133445 0)
(-0.0273756 -0.131687 0)
(-0.0309104 -0.129474 0)
(-0.0348167 -0.126845 0)
(-0.0391201 -0.123838 0)
(-0.0438491 -0.120515 0)
(-0.0490408 -0.116998 0)
(-0.0547473 -0.113495 0)
(-0.0610375 -0.110303 0)
(-0.0679861 -0.107758 0)
(-0.0756353 -0.106087 0)
(-0.0839164 -0.105133 0)
(-0.0925419 -0.103978 0)
(-0.10081 -0.100532 0)
(-0.0020139 -0.102636 0)
(-0.00405389 -0.114546 0)
(-0.00703579 -0.12213 0)
(-0.00905954 -0.127206 0)
(-0.0108812 -0.130472 0)
(-0.0126633 -0.132355 0)
(-0.0145348 -0.133127 0)
(-0.0165825 -0.132986 0)
(-0.0188615 -0.132088 0)
(-0.0214087 -0.130553 0)
(-0.0242521 -0.128473 0)
(-0.0274157 -0.125911 0)
(-0.0309223 -0.122906 0)
(-0.034795 -0.119496 0)
(-0.0390616 -0.115736 0)
(-0.0437601 -0.111735 0)
(-0.0489462 -0.10768 0)
(-0.0547003 -0.10385 0)
(-0.0611235 -0.100584 0)
(-0.0683127 -0.0981622 0)
(-0.0762935 -0.0965816 0)
(-0.0849104 -0.0952132 0)
(-0.0936194 -0.0923757 0)
(-0.00401438 -0.0995207 0)
(-0.00489835 -0.111754 0)
(-0.0075154 -0.120022 0)
(-0.00883162 -0.125525 0)
(-0.0100028 -0.128925 0)
(-0.0112446 -0.130749 0)
(-0.0126689 -0.131356 0)
(-0.0143282 -0.130992 0)
(-0.0162443 -0.129837 0)
(-0.0184267 -0.128023 0)
(-0.0208833 -0.125646 0)
(-0.0236248 -0.122768 0)
(-0.0266652 -0.119428 0)
(-0.0300226 -0.115658 0)
(-0.033721 -0.111506 0)
(-0.0377948 -0.107065 0)
(-0.0422968 -0.102501 0)
(-0.0473068 -0.0980658 0)
(-0.0529349 -0.094077 0)
(-0.0593095 -0.0908362 0)
(-0.0665295 -0.0884457 0)
(-0.0745723 -0.0865228 0)
(-0.0831002 -0.0837932 0)
(-0.00718499 -0.0948534 0)
(-0.0064421 -0.109465 0)
(-0.00837398 -0.118733 0)
(-0.00874795 -0.124654 0)
(-0.00911231 -0.128061 0)
(-0.00973313 -0.129694 0)
(-0.010674 -0.130039 0)
(-0.0119269 -0.1294 0)
(-0.0134653 -0.127975 0)
(-0.0152637 -0.125896 0)
(-0.0173069 -0.123255 0)
(-0.0195903 -0.120106 0)
(-0.0221183 -0.116484 0)
(-0.0249023 -0.112413 0)
(-0.0279603 -0.107934 0)
(-0.0313203 -0.103126 0)
(-0.0350264 -0.0981298 0)
(-0.039148 -0.0931679 0)
(-0.0437875 -0.0885283 0)
(-0.0490762 -0.0845032 0)
(-0.0551488 -0.0812482 0)