/*--------------------------------*- C++ -*----------------------------------*\
  =========                 |
  \\      /  F ield         | OpenFOAM: The Open Source CFD Toolbox
   \\    /   O peration     | Website:  https://openfoam.org
    \\  /    A nd           | Version:  9
     \\/     M anipulation  |
\*---------------------------------------------------------------------------*/
FoamFile
{
    format      ascii;
    class       volScalarField;
    location    "1100";
    object      alphat;
}
// * * * * * * * * * * * * * * * * * * * * * * * * * * * * * * * * * * * * * //

dimensions      [1 -1 -1 0 0 0 0];

internalField   nonuniform List<scalar> 
4000
(
0.000259058
0.00023819
0.000213234
0.000198188
0.000181371
0.000167532
0.000158639
0.000151788
0.000147162
0.000143825
0.000140856
0.000139398
0.000141972
0.00014826
0.000158477
0.000175205
0.000175622
0.000192165
0.000241629
0.000288469
0.000397764
0.000377939
0.000342838
0.000292362
0.000236631
0.000192353
0.000181639
0.000175334
0.000176105
0.000178077
0.000176931
0.000174055
0.000173349
0.000176592
0.000195177
0.000263472
0.000312289
0.000360815
0.000395984
0.000414336
0.000441129
0.000430126
0.000406669
0.000374648
0.000331307
0.000287912
0.000246391
0.000199325
0.000190007
0.000195677
0.000194355
0.00018971
0.000196151
0.000245377
0.00028573
0.00032958
0.000373287
0.00040801
0.000433417
0.000444876
0.000458324
0.000453718
0.000434776
0.000404829
0.000369542
0.000333122
0.00030005
0.000264882
0.000228292
0.00020543
0.000203774
0.000208447
0.000239747
0.000282666
0.000323408
0.000365296
0.000402575
0.000434599
0.000454696
0.000459691
0.000469556
0.000472884
0.000463557
0.00044624
0.0004258
0.000405984
0.000387439
0.000368422
0.000350233
0.000333645
0.00031866
0.000324485
0.000347236
0.000372833
0.000396476
0.000420204
0.000442855
0.000461716
0.000471742
0.000469487
0.000478908
0.000490809
0.000493903
0.000491902
0.000487488
0.000481102
0.000472744
0.00046263
0.000451503
0.000440825
0.000434463
0.000441774
0.000452398
0.000462783
0.000471894
0.000479711
0.000485615
0.00048907
0.000487505
0.00047769
0.000488387
0.000509056
0.000523152
0.000532014
0.000537239
0.000538588
0.00053605
0.000529712
0.000520282
0.000509811
0.000505504
0.00051476
0.000522416
0.000527382
0.000529305
0.000528031
0.000523446
0.000515789
0.000503695
0.00048602
0.000498921
0.000528294
0.000551621
0.0005685
0.000580641
0.000587741
0.000589564
0.000585925
0.000577095
0.000565511
0.000561975
0.000573478
0.00057969
0.00058097
0.000577704
0.000570189
0.000558252
0.000542333
0.000521324
0.000495451
0.000512031
0.000551729
0.000583462
0.000607391
0.000625479
0.000637612
0.000643535
0.000642555
0.000634255
0.000620828
0.00061745
0.000630853
0.000635704
0.000633835
0.000626305
0.00061382
0.000595891
0.000572822
0.000543146
0.000507433
0.000529514
0.000578904
0.000618454
0.000647834
0.000670479
0.000687415
0.000698619
0.000703445
0.000700946
0.000690736
0.000687225
0.000697168
0.000696649
0.000689222
0.000676141
0.000658131
0.000635239
0.000606573
0.000569024
0.000523837
0.00023819
0.000242992
0.000231132
0.000228233
0.000224503
0.000210567
0.000193993
0.000181378
0.000172606
0.000166135
0.000160434
0.000159132
0.000165124
0.000180224
0.000200767
0.000212226
0.000201597
0.000201318
0.000221763
0.000240896
0.000377939
0.000445296
0.00041506
0.00039724
0.000416886
0.000430942
0.000420717
0.000430647
0.000451618
0.000464617
0.000454425
0.000424552
0.000399151
0.000402237
0.000414011
0.000420181
0.000427224
0.000465161
0.000504163
0.000395322
0.000430126
0.000559643
0.000562892
0.000512864
0.000461765
0.00043689
0.000417633
0.000417786
0.00046868
0.000517527
0.000514298
0.000466263
0.000418046
0.000424238
0.000440361
0.00046756
0.00052218
0.000584473
0.000576894
0.000431162
0.000453718
0.00058535
0.000602398
0.000559372
0.000492369
0.000440661
0.000406129
0.000386142
0.000398765
0.000460605
0.000474653
0.000393519
0.000381499
0.000406217
0.000443685
0.000499723
0.000579512
0.000630462
0.000606919
0.000451978
0.000472884
0.000621853
0.000653319
0.000622154
0.000553226
0.000483762
0.000436402
0.000395951
0.000368235
0.000364296
0.000362041
0.000351483
0.000374619
0.000420144
0.000476936
0.000558978
0.000641144
0.000676667
0.000637393
0.000469517
0.000490809
0.000657803
0.000704846
0.000702527
0.000659263
0.000590237
0.000515118
0.000464243
0.000430351
0.00041407
0.000406176
0.000410993
0.000441814
0.000494703
0.000572961
0.000667367
0.000720782
0.000723763
0.00066805
0.00048671
0.000509056
0.000689559
0.000748432
0.000782111
0.000794106
0.000772657
0.000724123
0.000651314
0.000583236
0.00053557
0.000526092
0.000547266
0.000610132
0.000695829
0.000771506
0.000805024
0.000797709
0.000761421
0.000693235
0.000504474
0.000528294
0.000716968
0.000783245
0.000847073
0.00090713
0.000936712
0.000938467
0.000919298
0.000886918
0.000858373
0.000852612
0.000890843
0.000924676
0.0009426
0.000942048
0.000914822
0.000855277
0.000789581
0.000712412
0.000523051
0.000551729
0.000718189
0.000802159
0.000873941
0.00093592
0.000973998
0.000986824
0.000968308
0.000917293
0.000858412
0.000853437
0.000909618
0.000948219
0.000962625
0.000954142
0.000926896
0.000869238
0.000796863
0.000709831
0.000545288
0.000578904
0.000630598
0.000673469
0.000707165
0.000734954
0.000757397
0.000773673
0.000782183
0.000781246
0.000770435
0.000766852
0.000776633
0.000774201
0.000762855
0.000744639
0.000721271
0.000693428
0.000660652
0.000619856
0.000571809
0.000213234
0.000231132
0.000236865
0.000244872
0.000244794
0.000231006
0.000214399
0.000199412
0.000188507
0.000180649
0.000174149
0.000173901
0.00018153
0.000198478
0.000219139
0.000232795
0.000224043
0.000206117
0.000199479
0.000188626
0.000342838
0.00041506
0.000431179
0.00047479
0.000518706
0.00052203
0.000510658
0.000527801
0.000551194
0.000568856
0.000559193
0.000522104
0.000493169
0.000491164
0.000510133
0.000510479
0.000491367
0.000478456
0.000472302
0.000361922
0.000406669
0.000562892
0.000584335
0.000552707
0.000532848
0.00053325
0.00053055
0.00053723
0.000586387
0.00064013
0.000645808
0.000586464
0.000535354
0.000537901
0.000540857
0.000542173
0.000565539
0.00060423
0.000583337
0.000404585
0.000434776
0.000602398
0.000641498
0.000608808
0.000553577
0.000518905
0.000501134
0.000500507
0.000532863
0.000589825
0.000601946
0.000527772
0.000499008
0.000507851
0.0005299
0.000569144
0.00063124
0.00067234
0.000623699
0.000428594
0.000463557
0.000653319
0.000703861
0.000673902
0.000598158
0.000535069
0.00049391
0.000465064
0.000454747
0.000474898
0.000480131
0.00044745
0.000453334
0.000488789
0.000539537
0.000613133
0.000698001
0.000729238
0.000667757
0.000456107
0.000493903
0.000704846
0.000768022
0.000752499
0.000676462
0.000592089
0.000523094
0.000470503
0.000432661
0.000420207
0.000417425
0.000418616
0.000452062
0.000510646
0.000590407
0.000692029
0.000775754
0.00078983
0.000715588
0.000486475
0.000523152
0.000748432
0.000826662
0.000836953
0.000786451
0.000714283
0.000647527
0.000581435
0.000524632
0.00049222
0.000485513
0.000503028
0.000554131
0.000629896
0.000718105
0.00080519
0.00085875
0.000843804
0.000754401
0.000515603
0.000551621
0.000783245
0.000890161
0.000953839
0.000977331
0.000953582
0.000922351
0.000875863
0.000810204
0.000750579
0.000740675
0.000782412
0.000841328
0.000899915
0.0009528
0.000993186
0.000971199
0.000898886
0.000780232
0.000543706
0.000583462
0.000802159
0.000988592
0.00116798
0.00130214
0.00137727
0.00140927
0.00137742
0.00127608
0.00115424
0.00114149
0.00124066
0.00132472
0.00136609
0.00135101
0.00129463
0.00116562
0.000980452
0.000788542
0.000574716
0.000618454
0.000673469
0.000718751
0.000755534
0.000787254
0.00081425
0.000835088
0.00084721
0.000848015
0.000836268
0.000832691
0.000842698
0.000838171
0.000822982
0.000800116
0.000772318
0.000740568
0.000704725
0.000661401
0.000609557
0.000198188
0.000228233
0.000244872
0.000254943
0.000251465
0.000238757
0.000224913
0.000211128
0.000200774
0.000193249
0.000185936
0.000185649
0.000193466
0.000208795
0.000225775
0.000240791
0.000241159
0.000225038
0.000200279
0.000171642
0.000292362
0.00039724
0.00047479
0.000544787
0.000573868
0.000565326
0.000564265
0.000588885
0.000621517
0.000648525
0.000646626
0.000601661
0.000563478
0.000549019
0.000559117
0.000562581
0.000544269
0.00050082
0.000445029
0.000319646
0.000374648
0.000512864
0.000552707
0.000564279
0.000582816
0.000602234
0.000604667
0.000611901
0.000666664
0.000737339
0.000751847
0.000683594
0.000614564
0.000612173
0.000611765
0.000594021
0.00057892
0.000569205
0.000525079
0.00037046
0.000404829
0.000559372
0.000608808
0.000599635
0.000581592
0.000575046
0.000577849
0.000589605
0.000623745
0.000688556
0.000708165
0.00062581
0.000589245
0.000585386
0.000588396
0.000599253
0.000621087
0.000630014
0.000572215
0.000395501
0.00044624
0.000622154
0.000673902
0.000659105
0.000614706
0.00057853
0.000556891
0.000546334
0.000557178
0.000605025
0.000615151
0.00055228
0.000539379
0.000558326
0.000589152
0.000632915
0.000680032
0.000690219
0.000625304
0.000436008
0.000491902
0.000702527
0.000752499
0.000738348
0.000682057
0.000620885
0.000573101
0.000536253
0.000512975
0.000520952
0.000522247
0.000500643
0.00052088
0.000567354
0.000628018
0.000699764
0.000756741
0.000762005
0.000702185
0.000481987
0.000532014
0.000782111
0.000836953
0.000832579
0.000788217
0.00072916
0.000679245
0.000635144
0.00059633
0.000580535
0.000570041
0.000568981
0.000606682
0.00066645
0.000736906
0.000807477
0.000849605
0.000841278
0.000781201
0.000522079
0.0005685
0.000847073
0.000953839
0.00101522
0.00101752
0.000992771
0.000969797
0.000937406
0.000882993
0.000823236
0.000804917
0.000836223
0.000886289
0.000937091
0.000986905
0.00102756
0.00102618
0.000953934
0.000843499
0.000558297
0.000607391
0.000873941
0.00116798
0.00145068
0.00153966
0.00159352
0.00162853
0.00160643
0.00150105
0.00135671
0.00134692
0.00146089
0.00153766
0.00155642
0.00153742
0.00149877
0.0014312
0.00115288
0.000853581
0.000596522
0.000647834
0.000707165
0.000755534
0.000795894
0.000832456
0.000865246
0.000891857
0.000909156
0.000914103
0.000905586
0.000902297
0.000908646
0.000899722
0.000878991
0.000850227
0.000816461
0.000779703
0.000740344
0.00069389
0.000637474
0.000181371
0.000224503
0.000244794
0.000251465
0.000247727
0.000239482
0.000229882
0.000219625
0.000211497
0.000205564
0.000197584
0.000196403
0.000203436
0.000215322
0.000226697
0.000236849
0.000243109
0.000236547
0.000215136
0.000172626
0.000236631
0.000416886
0.000518706
0.000573868
0.000586954
0.000589103
0.000600838
0.000633179
0.000681698
0.00072302
0.000733357
0.000677463
0.000618441
0.000593891
0.000586054
0.000581631
0.00056518
0.000519782
0.00043684
0.000273074
0.000331307
0.000461765
0.000532848
0.000582816
0.000624098
0.000646829
0.000646575
0.000659823
0.00072768
0.000820689
0.000844953
0.000756793
0.000667495
0.000655391
0.000655452
0.000634556
0.000596321
0.000547946
0.000474513
0.000331434
0.000369542
0.000492369
0.000553577
0.000581592
0.000599807
0.00061868
0.00063533
0.000648748
0.000686339
0.000768524
0.000796666
0.000698593
0.00065252
0.000642525
0.000629839
0.000615414
0.000600712
0.000572042
0.000500427
0.000360268
0.0004258
0.000553226
0.000598158
0.000614706
0.000612082
0.00060792
0.000607832
0.000614831
0.000645528
0.000716306
0.00072769
0.000638669
0.000608279
0.000611008
0.000619745
0.000630227
0.000634555
0.000611209
0.000550136
0.000414625
0.000487488
0.000659263
0.000676462
0.000682057
0.000666797
0.000643003
0.000622138
0.000607938
0.000612586
0.000661298
0.000660073
0.000596463
0.000592791
0.000619282
0.000652721
0.000683636
0.000695503
0.000675733
0.000643866
0.000475912
0.000537239
0.000794106
0.000786451
0.000788217
0.000777351
0.000753362
0.000729171
0.000709626
0.000704049
0.000732547
0.000708157
0.000663882
0.000678056
0.000717078
0.000759519
0.000790893
0.000794217
0.000776145
0.000780311
0.000525363
0.000580641
0.00090713
0.000977331
0.00101752
0.0010266
0.0010191
0.00101117
0.000994355
0.000958009
0.000916842
0.000882482
0.000893161
0.000931496
0.00096926
0.00100204
0.00102237
0.00100934
0.000956042
0.000895786
0.00056841
0.000625479
0.00093592
0.00130214
0.00153966
0.0016664
0.00177189
0.00183819
0.00181902
0.00168296
0.00149617
0.00148843
0.00164577
0.0017444
0.0017527
0.00169841
0.00160834
0.0014837
0.00127098
0.000904507
0.000612692
0.000670479
0.000734954
0.000787254
0.000832456
0.000876187
0.000915777
0.000948719
0.000972059
0.000982871
0.000980224
0.000976563
0.000977303
0.00096272
0.000935917
0.000900606
0.000859779
0.000815525
0.000771196
0.000720779
0.000659076
0.000167532
0.000210567
0.000231006
0.000238757
0.000239482
0.000236639
0.000231938
0.000226408
0.000221895
0.000218208
0.000209742
0.000207982
0.000212459
0.000219567
0.000225099
0.000227909
0.000227728
0.0002227
0.000205193
0.000156006
0.000192353
0.000430942
0.00052203
0.000565326
0.000589103
0.000607989
0.000630145
0.000670939
0.000732553
0.000784596
0.000807413
0.000744024
0.000665807
0.000629855
0.000608827
0.000585868
0.000556038
0.000507339
0.000416391
0.000202396
0.000287912
0.00043689
0.00053325
0.000602234
0.000646829
0.000664105
0.000669007
0.000695045
0.000771864
0.000859622
0.000883041
0.000804388
0.00070585
0.000679088
0.00067248
0.00065291
0.000610899
0.000545393
0.000449306
0.00029541
0.000333122
0.000440661
0.000518905
0.000575046
0.00061868
0.000652211
0.000670468
0.000683629
0.000730571
0.000807676
0.000829368
0.000748591
0.000691776
0.00067882
0.000659763
0.000628163
0.000588121
0.000533576
0.000450426
0.000326076
0.000405984
0.000483762
0.000535069
0.00057853
0.00060792
0.000628664
0.000645732
0.00066709
0.000712705
0.000784216
0.000790637
0.000704156
0.000658764
0.000647237
0.000638129
0.000622876
0.000595776
0.000548428
0.000486335
0.000395654
0.000481102
0.000590237
0.000592089
0.000620885
0.000643003
0.000652691
0.000656871
0.000666075
0.000702391
0.000778207
0.000767375
0.000679045
0.000649329
0.000654252
0.000661982
0.000658244
0.00063289
0.000589843
0.000566762
0.000468541
0.000538588
0.000772657
0.000714283
0.00072916
0.000753362
0.000762527
0.000761886
0.000765135
0.000797485
0.000870628
0.000828172
0.000743055
0.000730625
0.000748964
0.000765376
0.000761563
0.00072975
0.000697633
0.000744519
0.000525185
0.000587741
0.000936712
0.000953582
0.000992771
0.0010191
0.00103347
0.00104006
0.00103109
0.00100424
0.000981841
0.000931045
0.000926409
0.000960212
0.000988298
0.00100287
0.0010001
0.000971107
0.000919334
0.000909943
0.000573844
0.000637612
0.000973998
0.00137727
0.00159352
0.00177189
0.00191416
0.00198732
0.00193794
0.00173661
0.00148386
0.00147486
0.00171184
0.00187085
0.00189658
0.00182482
0.00169407
0.00152235
0.00132283
0.000928238
0.000623232
0.000687415
0.000757397
0.00081425
0.000865246
0.000915777
0.000961837
0.00100148
0.0010322
0.00105165
0.001059
0.00105417
0.00104566
0.00102313
0.000989034
0.000946749
0.000899129
0.000847995
0.000797676
0.000742671
0.000675371
0.000158639
0.000193993
0.000214399
0.000224913
0.000229882
0.000231938
0.000232585
0.000232658
0.000232941
0.0002325
0.000224425
0.000221568
0.000221048
0.000222369
0.000222298
0.000219634
0.000213599
0.000202861
0.000182673
0.000145036
0.000181639
0.000420717
0.000510658
0.000564265
0.000600838
0.000630145
0.000662084
0.000709012
0.000769679
0.000813548
0.000840566
0.000788165
0.000709591
0.000663118
0.000630722
0.000595642
0.000551061
0.000491723
0.000401671
0.000180569
0.000246391
0.000417633
0.00053055
0.000604667
0.000646575
0.000669007
0.000689536
0.000728829
0.000787194
0.000792974
0.000801555
0.000809848
0.000738255
0.000697686
0.000675912
0.000648632
0.000604181
0.000533416
0.000426364
0.000258382
0.00030005
0.000406129
0.000501134
0.000577849
0.00063533
0.000670468
0.000687572
0.000707901
0.000743392
0.00071132
0.000710314
0.000754328
0.000715558
0.000696197
0.000676161
0.000638401
0.000582139
0.000508145
0.000413238
0.000297109
0.000387439
0.000436402
0.00049391
0.000556891
0.000607832
0.000645732
0.000675035
0.000704858
0.00073892
0.000692684
0.000683242
0.000728567
0.000695642
0.000673424
0.000651136
0.000618341
0.000570472
0.000506507
0.000441874
0.000378776
0.000472744
0.000515118
0.000523094
0.000573101
0.000622138
0.000656871
0.000682111
0.00071154
0.000752678
0.000726584
0.000703642
0.000723082
0.000693591
0.000679012
0.000665228
0.000636362
0.000585962
0.000525995
0.000503188
0.000459886
0.00053605
0.000724123
0.000647527
0.000679245
0.000729171
0.000761886
0.000779999
0.000804082
0.0008587
0.000882854
0.000824701
0.00079289
0.000767631
0.000766786
0.000762591
0.000734051
0.000677102
0.000626277
0.000680736
0.000521687
0.000589564
0.000938467
0.000922351
0.000969797
0.00101117
0.00104006
0.00105077
0.00103792
0.00101319
0.000994723
0.000933758
0.00092926
0.000964382
0.000991778
0.000996645
0.000976985
0.000933892
0.000873439
0.0008983
0.000574625
0.000643535
0.000986824
0.00140927
0.00162853
0.00183819
0.00198732
0.00203282
0.00192027
0.00164661
0.00138133
0.00136065
0.00162517
0.00186735
0.00194645
0.00188857
0.00174283
0.00153961
0.00132657
0.000929617
0.000628242
0.000698619
0.000773673
0.000835088
0.000891857
0.000948719
0.00100148
0.00104902
0.00109003
0.00112403
0.001151
0.0011443
0.00111668
0.00108075
0.00103678
0.000986533
0.00093203
0.000874514
0.000818311
0.00075868
0.000686277
0.000151788
0.000181378
0.000199412
0.000211128
0.000219625
0.000226408
0.000232658
0.000238899
0.000244648
0.000248376
0.000244214
0.000236664
0.000229487
0.000224235
0.000218773
0.00021198
0.000202933
0.000190194
0.000170852
0.000139153
0.000175334
0.000430647
0.000527801
0.000588885
0.000633179
0.000670939
0.000709012
0.000747162
0.000759112
0.000693532
0.000710444
0.000778567
0.000747196
0.000700981
0.000659391
0.000616982
0.000567134
0.000502521
0.000406438
0.000174587
0.000199325
0.000417786
0.00053723
0.000611901
0.000659823
0.000695045
0.000728829
0.000754898
0.000694224
0.000537071
0.000552475
0.000701074
0.000753453
0.000722622
0.000686991
0.000647762
0.000594955
0.000517836
0.000401216
0.000210624
0.000264882
0.000386142
0.000500507
0.000589605
0.000648748
0.000683629
0.000707901
0.000719963
0.000619115
0.000522213
0.000553682
0.000618331
0.000718912
0.000707764
0.000683373
0.000645339
0.000584398
0.000496724
0.000386491
0.000269102
0.000368422
0.000395951
0.000465064
0.000546334
0.000614831
0.00066709
0.000704858
0.000719977
0.000603604
0.000599097
0.000632464
0.000596224
0.000709805
0.000698802
0.000666731
0.000620173
0.00055608
0.000475916
0.00040188
0.000361824
0.00046263
0.000464243
0.000470503
0.000536253
0.000607938
0.000666075
0.00071154
0.000735993
0.000630006
0.000711513
0.000719419
0.000606493
0.000719056
0.000707818
0.000673858
0.000622105
0.000549797
0.000474878
0.000455554
0.000449701
0.000529712
0.000651314
0.000581435
0.000635144
0.000709626
0.000765135
0.000804082
0.000836689
0.000792407
0.000875093
0.00083636
0.000723299
0.000797932
0.000789691
0.000764239
0.000711956
0.000629885
0.000557033
0.000604054
0.000515016
0.000585925
0.000919298
0.000875863
0.000937406
0.000994355
0.00103109
0.00103792
0.00101933
0.000988803
0.00103172
0.00098024
0.000909418
0.000945396
0.000973163
0.000974701
0.000942835
0.000883266
0.000809918
0.000870619
0.000570672
0.000642555
0.000968308
0.00137742
0.00160643
0.00181902
0.00193794
0.00192027
0.0017385
0.00150391
0.00150853
0.00149027
0.00146727
0.00168325
0.00183262
0.00183012
0.00170777
0.00149986
0.00126723
0.000902514
0.000627073
0.000703445
0.000782183
0.00084721
0.000909156
0.000972059
0.0010322
0.00109003
0.00114709
0.00120677
0.00127035
0.00126202
0.0011971
0.00113645
0.00107725
0.00101705
0.000955263
0.000891801
0.00083029
0.000767173
0.000691172
0.000147162
0.000172606
0.000188507
0.000200774
0.000211497
0.000221895
0.000232941
0.000244648
0.000255645
0.000270182
0.000264614
0.000250229
0.000237884
0.00022604
0.000215645
0.000205624
0.000194883
0.00018205
0.000164403
0.000136896
0.000176105
0.000451618
0.000551194
0.000621517
0.000681698
0.000732553
0.000769679
0.000759112
0.000635547
0.00066998
0.000699455
0.000638008
0.000749594
0.000745681
0.000705342
0.000657091
0.000602521
0.000536713
0.000439644
0.000171145
0.000190007
0.00046868
0.000586387
0.000666664
0.00072768
0.000771864
0.000787194
0.000694224
0.000516014
0.000885262
0.000932715
0.000513903
0.000676622
0.000750106
0.000725346
0.000679023
0.000620005
0.000541834
0.000428038
0.000184511
0.000228292
0.000398765
0.000532863
0.000623745
0.000686339
0.000730571
0.000743392
0.000619115
0.000548167
0.00120685
0.00126101
0.000558895
0.000610815
0.000721543
0.000706479
0.000664245
0.000603719
0.000514734
0.00038518
0.000236625
0.000350233
0.000368235
0.000454747
0.000557178
0.000645528
0.000712706
0.00073892
0.000603604
0.000665228
0.00156924
0.00161666
0.000675665
0.000598447
0.000724593
0.000701709
0.000641714
0.000559635
0.000459474
0.000368951
0.000344272
0.000451503
0.000430351
0.000432661
0.000512975
0.000612586
0.000702391
0.000752678
0.000630006
0.000797749
0.00189532
0.00192594
0.000794242
0.000619324
0.000744467
0.000706238
0.00062465
0.000523749
0.000433192
0.000420206
0.000438293
0.000520282
0.000583236
0.000524632
0.00059633
0.000704049
0.000797485
0.0008587
0.000792407
0.000967948
0.0021182
0.00212916
0.000935374
0.000744598
0.000832486
0.000788882
0.000700653
0.000585861
0.000499818
0.000537758
0.000505748
0.000577095
0.000886918
0.000810204
0.000882993
0.000958009
0.00100424
0.00101319
0.000988803
0.00114259
0.00221724
0.00221791
0.00110079
0.000912026
0.000935798
0.000929412
0.000884687
0.000808855
0.000737227
0.000836879
0.000562384
0.000634255
0.000917293
0.00127608
0.00150105
0.00168296
0.00173661
0.00164661
0.00150391
0.00162646
0.00217332
0.00216916
0.0015981
0.00144595
0.00154796
0.00161369
0.00155513
0.00138002
0.00115822
0.000850652
0.000619506
0.000700946
0.000781246
0.000848015
0.000914103
0.000982871
0.00105165
0.00112403
0.00120677
0.00130674
0.00141528
0.00140618
0.0012944
0.00119405
0.00110996
0.00103574
0.000965669
0.000896644
0.000831166
0.000766623
0.000689213
0.000143825
0.000166135
0.000180649
0.000193249
0.000205564
0.000218208
0.0002325
0.000248376
0.000270182
0.000283114
0.000277231
0.000265586
0.000248417
0.000229679
0.000214088
0.000201345
0.00018947
0.000177115
0.000161597
0.000136967
0.000178077
0.000464617
0.000568856
0.000648525
0.00072302
0.000784596
0.000813548
0.000693532
0.00066998
0.000450902
0.000454409
0.000660499
0.000661677
0.00078463
0.000763931
0.000710851
0.000644493
0.000569388
0.000467619
0.000169864
0.000195677
0.000517527
0.00064013
0.000737339
0.000820689
0.000859622
0.000792974
0.000537071
0.000885262
0.000661918
0.000673756
0.000846634
0.000503255
0.000737395
0.000789436
0.000748791
0.000677612
0.000592717
0.000482047
0.000186091
0.00020543
0.000460605
0.000589825
0.000688556
0.000768524
0.000807676
0.00071132
0.000522213
0.00120685
0.000891747
0.000912076
0.00115057
0.000497822
0.000680409
0.000764663
0.000727015
0.000658454
0.000575042
0.000450446
0.000203696
0.000333645
0.000364296
0.000474898
0.000605025
0.000716306
0.000784216
0.000692684
0.000599097
0.00156924
0.00115005
0.00117746
0.00149417
0.000577107
0.000679568
0.00077084
0.000711693
0.000609633
0.000481917
0.000364629
0.000326006
0.000440825
0.00041407
0.000420207
0.000520952
0.000661298
0.000778207
0.000726584
0.000711513
0.00189532
0.00143066
0.00146237
0.00180189
0.000678619
0.000709137
0.000775211
0.000671297
0.000530574
0.000420616
0.000403611
0.000426786
0.000509811
0.000535571
0.00049222
0.000580535
0.000732547
0.000870628
0.000882854
0.000875093
0.0021182
0.0017053
0.00173894
0.00201746
0.000815971
0.000811072
0.000829544
0.000708661
0.00055989
0.000472244
0.000509786
0.000495508
0.000565511
0.000858373
0.000750579
0.000823236
0.000916842
0.000981841
0.000994723
0.00103172
0.00221724
0.00192119
0.00195492
0.00213756
0.000962816
0.000875291
0.000862596
0.000807662
0.000732051
0.000681648
0.00080446
0.000551524
0.000620828
0.000858412
0.00115424
0.00135671
0.00149617
0.00148387
0.00138133
0.00150853
0.00217332
0.00207085
0.00209883
0.00212431
0.00146385
0.00128056
0.00134223
0.00135476
0.00123126
0.00104039
0.000796854
0.000607024
0.000690736
0.000770435
0.000836268
0.000905586
0.000980224
0.001059
0.001151
0.00127035
0.00141528
0.00145905
0.00146064
0.00139796
0.00125448
0.00113499
0.00104165
0.00096214
0.000887741
0.000819054
0.000755918
0.000679272
0.000140856
0.000160434
0.000174149
0.000185936
0.000197584
0.000209742
0.000224425
0.000244214
0.000264614
0.000277231
0.000277964
0.000266603
0.000250007
0.000229417
0.000212406
0.000199009
0.00018704
0.000175175
0.000160842
0.000137481
0.000176931
0.000454425
0.000559193
0.000646626
0.000733357
0.000807413
0.000840566
0.000710444
0.000699455
0.000454409
0.000465014
0.000679467
0.000663247
0.000798058
0.000793507
0.000741397
0.000666927
0.000583898
0.000474802
0.000167566
0.000194355
0.000514298
0.000645808
0.000751846
0.000844953
0.000883041
0.000801555
0.000552475
0.000932715
0.000673756
0.000694173
0.000899355
0.000526239
0.000746835
0.000841839
0.000814297
0.000732922
0.000645125
0.000526579
0.000186646
0.000203774
0.000474653
0.000601946
0.000708165
0.000796666
0.000829368
0.000710314
0.000553682
0.00126101
0.000912076
0.000945593
0.00123331
0.000559619
0.000684395
0.000825457
0.000808176
0.000730676
0.000645519
0.000529737
0.000199096
0.00031866
0.000362041
0.000480131
0.000615151
0.00072769
0.000790637
0.000683242
0.000632464
0.00161666
0.00117746
0.00122334
0.00159798
0.000668795
0.000683222
0.000825006
0.000780497
0.000668905
0.000520024
0.000377861
0.000307514
0.000434463
0.000406176
0.000417425
0.000522247
0.000660073
0.000767375
0.000703642
0.000719419
0.00192594
0.00146237
0.00151618
0.00192183
0.000764311
0.000681503
0.000781776
0.000688818
0.000547318
0.000428117
0.000398962
0.00041951
0.000505504
0.000526092
0.000485513
0.000570041
0.000708157
0.000828172
0.000824701
0.00083636
0.00212916
0.00173894
0.00179389
0.00214262
0.000850536
0.000734939
0.000774986
0.000673705
0.000548016
0.000468368
0.000501934
0.000491538
0.000561975
0.000852612
0.000740675
0.000804917
0.000882482
0.000931045
0.000933759
0.00098024
0.00221791
0.00195491
0.00200623
0.00226313
0.000961642
0.00079929
0.000794633
0.000763774
0.000713835
0.000676182
0.000799777
0.000549125
0.00061745
0.000853437
0.00114149
0.00134692
0.00148843
0.00147486
0.00136065
0.00149027
0.00216916
0.00209883
0.00214539
0.00220222
0.00149108
0.00126406
0.00133548
0.00135954
0.00123429
0.00103696
0.00079572
0.000605333
0.000687225
0.000766852
0.000832691
0.000902297
0.000976563
0.00105417
0.0011443
0.00126202
0.00140618
0.00146064
0.00145978
0.00140131
0.001258
0.00113736
0.00104422
0.000965141
0.000890308
0.0008203
0.000755834
0.000677871
0.000139398
0.000159132
0.000173901
0.000185649
0.000196403
0.000207982
0.000221568
0.000236664
0.000250229
0.000265586
0.000266603
0.000252915
0.000236426
0.00022082
0.000208094
0.000196889
0.000186092
0.00017479
0.000160671
0.000138063
0.000174055
0.000424552
0.000522104
0.000601661
0.000677463
0.000744024
0.000788165
0.000778567
0.000638008
0.000660499
0.000679467
0.000618075
0.000745335
0.000770989
0.000744783
0.000696026
0.000632756
0.000559901
0.000457148
0.000165168
0.00018971
0.000466263
0.000586464
0.000683594
0.000756793
0.000804388
0.000809848
0.000701074
0.000513903
0.000846634
0.000899355
0.000533801
0.000681157
0.000803869
0.000813181
0.0007728
0.000703765
0.000626194
0.000513464
0.000183343
0.000208447
0.000393519
0.000527771
0.00062581
0.000698593
0.000748591
0.000754328
0.000618331
0.000558895
0.00115057
0.00123331
0.000625721
0.000628005
0.000784104
0.000800903
0.000760388
0.000689582
0.000592099
0.000446888
0.000196306
0.000324485
0.000351483
0.00044745
0.00055228
0.000638669
0.000704156
0.000728567
0.000596224
0.000675665
0.00149417
0.00159798
0.000779216
0.000616247
0.000764772
0.000759765
0.000693338
0.00059984
0.000481476
0.000361739
0.000305967
0.000441774
0.000410993
0.000418616
0.000500643
0.000596463
0.000679045
0.000723082
0.000606493
0.000794241
0.00180189
0.00192183
0.000918099
0.000596671
0.000722753
0.000696958
0.000615792
0.000516323
0.000423256
0.00039859
0.000425346
0.00051476
0.000547266
0.000503028
0.000568981
0.000663882
0.000743055
0.00079289
0.000723299
0.000935374
0.00201746
0.00214262
0.00104165
0.00065625
0.000732552
0.000697993
0.000628795
0.000542686
0.000478804
0.000514449
0.000500178
0.000573478
0.000890843
0.000782412
0.000836223
0.000893161
0.000926409
0.00092926
0.000909418
0.00110079
0.00213756
0.00226313
0.00118041
0.000810995
0.000805011
0.00080452
0.0007833
0.000746137
0.000711056
0.000829606
0.000560099
0.000630853
0.000909618
0.00124066
0.00146089
0.00164577
0.00171184
0.00162517
0.00146727
0.0015981
0.00212431
0.00220222
0.00165604
0.00142069
0.0015233
0.00161185
0.00154913
0.00136444
0.00114236
0.000848009
0.000618697
0.000697168
0.000776633
0.000842698
0.000908646
0.000977303
0.00104566
0.00111668
0.0011971
0.0012944
0.00139796
0.00140131
0.00129621
0.00119581
0.00111265
0.00104002
0.000970426
0.000900672
0.000833841
0.000767757
0.000688766
0.000141972
0.000165124
0.00018153
0.000193466
0.000203436
0.000212459
0.000221048
0.000229487
0.000237884
0.000248417
0.000250007
0.000236426
0.000223002
0.00021355
0.000205609
0.000197506
0.00018849
0.000177593
0.000162554
0.000139452
0.000173349
0.000399151
0.000493169
0.000563478
0.000618441
0.000665807
0.000709591
0.000747196
0.000749594
0.000661677
0.000663247
0.000745335
0.000740747
0.000705712
0.000667097
0.000626214
0.000578248
0.000515594
0.00042471
0.000165199
0.000196151
0.000418046
0.000535354
0.000614564
0.000667495
0.00070585
0.000738255
0.000753453
0.000676622
0.000503255
0.000526239
0.000681157
0.000763187
0.000753053
0.000721447
0.000684213
0.000636209
0.000565989
0.00045852
0.000180167
0.000239747
0.000381499
0.000499008
0.000589245
0.00065252
0.000691776
0.000715558
0.000718912
0.000610815
0.000497822
0.000559619
0.000628005
0.000746455
0.000749704
0.000723006
0.000681367
0.000615729
0.000520154
0.000390692
0.000227615
0.000347236
0.00037462
0.000453334
0.000539379
0.000608279
0.000658764
0.000695642
0.000709805
0.000598447
0.000577107