/*--------------------------------*- C++ -*----------------------------------*\
  =========                 |
  \\      /  F ield         | OpenFOAM: The Open Source CFD Toolbox
   \\    /   O peration     | Website:  https://openfoam.org
    \\  /    A nd           | Version:  9
     \\/     M anipulation  |
\*---------------------------------------------------------------------------*/
FoamFile
{
    format      ascii;
    class       surfaceScalarField;
    location    "1100";
    object      phi;
}
// * * * * * * * * * * * * * * * * * * * * * * * * * * * * * * * * * * * * * //

dimensions      [1 0 -1 0 0 0 0];

internalField   nonuniform List<scalar> 
11200
(
0.000904007
-0.00180769
0.000904008
0.00134734
-0.00128436
0.000841293
0.00137821
-0.000651548
0.000620796
0.00141075
-0.000488195
0.000455703
0.00149515
-0.000367404
0.00028301
0.0014595
-0.000131171
0.00016679
0.00122755
5.70402e-05
0.000174857
0.000784754
0.000256715
0.000186027
0.000277267
0.000362705
0.00014473
-0.000111795
0.000297784
9.12304e-05
-0.000361357
0.000160221
8.92948e-05
-0.000536449
1.78005e-05
0.000157251
-0.000670692
-6.78468e-05
0.000202063
-0.000693142
-0.000142586
0.000165017
-0.000597989
-0.000224616
0.000129446
-0.000412028
-0.000352727
0.000166778
-0.000638799
0.000135499
9.12354e-05
-0.00107127
0.000128592
0.000303874
-0.00098621
-0.000783191
0.000698356
-0.00197305
0.000987254
0.00283788
-0.00748314
0.00283788
0.00404794
-0.00502367
0.00252958
0.00382097
-0.0024074
0.0019832
0.00240845
-0.000504493
0.00142909
0.000665924
0.000406727
0.000968415
-0.000256295
0.000392171
0.000398855
-0.000367899
3.90079e-05
0.000129617
-0.000140365
3.24771e-05
-3.35028e-06
0.000157445
0.000150537
-8.57112e-05
0.00040366
0.000169142
-0.000117633
0.00056765
0.000109844
-0.00011365
0.000656329
4.30048e-06
-7.51958e-05
0.000706643
-0.000104371
-1.37949e-05
0.00051776
-2.51803e-05
7.1478e-05
-0.000553858
0.000361602
0.000485398
-0.00252051
0.000555331
0.00105868
-0.00397204
2.93929e-06
0.00158428
-0.00412417
-0.00197296
0.00225388
-0.00276832
-0.00491876
0.00277983
-0.00770054
0.00295924
0.00194934
-0.0113818
0.00194934
0.00326231
-0.00847693
0.00214028
0.00404533
-0.00530744
0.00211704
0.0040039
-0.00245126
0.00198825
0.00321215
-0.000522687
0.00172126
0.00193466
0.000304234
0.00136549
0.000674712
0.000305913
0.000993056
3.68001e-06
0.000224893
0.000478609
0.000123825
6.65383e-05
-3.61563e-05
0.000423145
0.000145334
-0.000275524
0.000605221
0.000205676
-0.000277916
0.000515697
0.000187069
-9.32464e-05
-0.000242898
0.000230294
0.000423928
-0.00157652
0.000395855
0.000912604
-0.00295112
0.000500849
0.00123539
-0.00383335
-0.000143826
0.00158146
-0.00385863
-0.00182494
0.00185321
-0.00305317
-0.0048367
0.00205827
-0.00176918
-0.0082925
0.00208974
-0.0112945
0.00182479
0.0010075
-0.0133969
0.0010075
0.00143871
-0.0104796
0.00157143
0.00164107
-0.00732986
0.00182006
0.00181267
-0.00461889
0.00199603
0.00189574
-0.00262256
0.00201681
0.00184078
-0.00148641
0.00184564
0.00143454
-0.000899562
0.00161174
0.000817537
-0.00046422
0.00130613
0.000327464
-0.000285922
0.000842547
0.000280578
-4.84575e-05
0.000240673
0.000294268
0.000120062
7.19154e-05
-0.000249867
9.70511e-05
0.000634145
-0.00114585
-0.000100652
0.00122694
-0.00180754
-0.000473754
0.00153132
-0.00207607
-0.00100852
0.00177793
-0.00204345
-0.00216108
0.00198465
-0.00173664
-0.0041469
0.00201513
-0.00140884
-0.00698244
0.00181791
-0.000967064
-0.0102519
0.00151763
-0.0131281
0.000866496
0.000354607
-0.0141061
0.000354607
-5.13787e-05
-0.0113167
0.00124307
-0.000561603
-0.00850221
0.00168256
-0.00086704
-0.00632742
0.00201396
-0.000979922
-0.00477166
0.00226197
-0.000981158
-0.00376949
0.00228431
-0.000927435
-0.0031077
0.00215442
-0.000786757
-0.00260037
0.00199547
-0.000627664
-0.00224895
0.00180393
-0.000250972
-0.00198725
0.00156211
0.000126149
-0.00172056
0.0014635
0.000285241
-0.00177229
0.00171026
0.000345989
-0.00214155
0.00198016
0.000373886
-0.00266107
0.00215942
0.000400125
-0.00333691
0.00230214
0.000363342
-0.00440179
0.00227748
0.000212743
-0.00600869
0.00201238
-0.000168159
-0.00825933
0.00165778
-0.000474178
-0.011105
0.0011591
-0.0137659
0.000163637
-0.000134494
-0.0138371
-0.000134493
-0.00105484
-0.0114263
0.00102998
-0.00188149
-0.00917226
0.0014967
-0.00237999
-0.00759387
0.00176493
-0.00251807
-0.00652466
0.00189108
-0.00239629
-0.00581762
0.00192635
-0.00207295
-0.00531138
0.00188034
-0.00159115
-0.0049081
0.00182592
-0.00103785
-0.00459549
0.00179323
-0.000452004
-0.00434141
0.00176831
0.000167535
-0.00411582
0.00177572
0.000743779
-0.00417834
0.00182979
0.00123558
-0.00451726
0.0018839
0.00159624
-0.00496078
0.00193905
0.00178373
-0.00550399
0.00197959
0.00172906
-0.00625316
0.00190603
0.00135793
-0.0073676
0.00173003
0.000655228
-0.00898749
0.00143085
-9.28738e-05
-0.011246
0.0008891
-0.0135234
-0.000335417
-0.00051018
-0.0128168
-0.00051018
-0.00178082
-0.0109018
0.000746146
-0.00279683
-0.00925637
0.00110013
-0.00335348
-0.00824209
0.00120488
-0.00344427
-0.00758682
0.00115295
-0.00317115
-0.00715453
0.0010638
-0.00263493
-0.00684831
0.00100071
-0.00194674
-0.00659812
0.00100185
-0.00122195
-0.00637648
0.00105621
-0.000525324
-0.00616881
0.00113078
0.00022893
-0.00601971
0.00114964
0.00102202
-0.00610047
0.00112905
0.00174839
-0.00634901
0.00110537
0.00232324
-0.00663132
0.0010957
0.00266049
-0.0069527
0.00111146
0.00265037
-0.00739575
0.00115271
0.00219845
-0.00807746
0.00116177
0.00130668
-0.0091145
0.00101878
0.000240929
-0.0107354
0.000555151
-0.0125491
-0.000733402
-0.00101839
-0.01078
-0.00101839
-0.00259379
-0.00933028
3.85541e-06
-0.00376777
-0.00829111
0.000208723
-0.00433527
-0.00774132
6.67368e-05
-0.00433391
-0.0074307
-0.000157464
-0.00390573
-0.00725353
-0.000329163
-0.00316967
-0.00712479
-0.000459567
-0.00226317
-0.00699377
-0.00051084
-0.00133741
-0.00683688
-0.000465351
-0.000514724
-0.00665567
-0.000335822
0.000321735
-0.00657956
-0.000276606
0.00132492
-0.00669396
-0.000409678
0.00228955
-0.0068649
-0.000448738
0.00306745
-0.00700897
-0.000400238
0.00354667
-0.00713852
-0.000293391
0.00361966
-0.00731095
-0.000157777
0.00313973
-0.00762498
2.74643e-05
0.0020943
-0.0081694
0.000100335
0.000720265
-0.00919437
-0.000167024
-0.0105864
-0.00124243
-0.00189864
-0.00698269
-0.00189864
-0.00380495
-0.00616242
-0.00126154
-0.00503872
-0.00575138
-0.00130594
-0.00556258
-0.00565683
-0.00156062
-0.00545641
-0.00567487
-0.00186197
-0.0048627
-0.00575051
-0.00209671
-0.0039111
-0.00582366
-0.00225271
-0.00273889
-0.0058502
-0.00231576
-0.0015254
-0.00580099
-0.00224936
-0.000488405
-0.00567389
-0.00201876
0.00054872
-0.00564018
-0.00197649
0.0018405
-0.00574946
-0.00223627
0.0030689
-0.00580882
-0.00228447
0.00405589
-0.00578649
-0.00220945
0.00468762
-0.00570876
-0.00206148
0.0048591
-0.00561932
-0.00186309
0.00441979
-0.00559365
-0.001592
0.00330944
-0.00568125
-0.00137779
0.00159953
-0.00608746
-0.001397
-0.00687383
-0.00211303
-0.00349134
-0.00349134
-0.00583922
-0.00381452
-0.00705638
-0.00453419
-0.00746706
-0.00524612
-0.00722093
-0.00592098
-0.00644024
-0.00653117
-0.00522552
-0.00703836
-0.0036813
-0.00739439
-0.00196793
-0.00751433
-0.000415161
-0.00722664
0.00112206
-0.00717738
0.00288985
-0.00751723
0.00445762
-0.00737657
0.00569242
-0.00702127
0.00650316
-0.00651948
0.00680041
-0.00591655
0.00646795
-0.00526118
0.00536886
-0.00458214
0.00319642
-0.00391501
-0.0036774
0.000841293
-0.00128436
0.00134734
0.00134529
-0.00100781
0.00134529
0.00150143
-0.000625955
0.00109071
0.00163826
-0.000553096
0.000871995
0.00175987
-0.000531736
0.000693141
0.00173782
-0.00035922
0.000548052
0.00148571
-6.29376e-05
0.000489865
0.000970449
0.000220083
0.000481154
0.000364806
0.000287155
0.000463174
-0.000146778
0.000186957
0.000415817
-0.000501
2.60349e-05
0.000417444
-0.000737212
-9.27275e-05
0.000486169
-0.000941136
-0.000102995
0.000508971
-0.00100873
-0.000212574
0.000445176
-0.000881846
-0.000388728
0.000391285
-0.000634782
-0.000432838
0.000352564
-0.000698129
-8.4611e-05
0.000239184
-0.000888348
8.77192e-05
0.000406356
-0.000724747
-0.000241762
0.000776592
-0.000721649
0.000984362
0.00252958
-0.00502367
0.00404794
0.00368222
-0.00331275
0.00368222
0.00356892
-0.0014308
0.00290168
0.00252866
-0.000146839
0.00206327
0.00128642
0.000285493
0.00139345
0.000481598
0.000115264
0.000729177
0.000278717
-0.000126487
0.000396032
0.000364866
-0.00011074
0.000241275
0.00042931
4.77021e-05
8.92412e-05
0.000379088
0.000109156
1.03518e-05
0.000275062
1.34314e-05
2.96455e-06
0.000165606
-0.000138367
7.98969e-05
8.60237e-05
-0.000243467
0.000206256
-0.000213322
-0.00017136
0.000329609
-0.00107844
0.000177751
0.000784044
-0.00245347
0.000599073
0.00140186
-0.00364776
0.000506729
0.00218741
-0.00377863
-0.000781687
0.00325436
-0.00254099
-0.00282683
0.0041274
-0.00473886
0.00443555
0.00214028
-0.00847693
0.00326231
0.0036818
-0.00639579
0.0036818
0.00454963
-0.00380459
0.00362302
0.00449679
-0.0013156
0.00320993
0.00363728
0.00025473
0.00261161
0.00238769
0.000746062
0.00198434
0.00133727
0.00050367
0.00141334
0.000723394
0.000212035
0.000769711
0.000526413
7.57433e-05
0.00013277
0.000460542
0.000151217
-0.00025173
0.00027186
0.000216613
-0.000292424
-0.000137291
0.000148473
2.90566e-05
-0.000878179
0.000207654
0.000713693
-0.001966
0.000533073
0.00129601
-0.00324603
0.000837799
0.0018554
-0.00419079
0.000651386
0.00247397
-0.00426453
-0.000656239
0.00308996
-0.00343447
-0.00311298
0.0035595
-0.00194123
-0.0058592
0.00362887
-0.00797962
0.00312431
0.00157143
-0.0104796
0.00143871
0.00256244
-0.00837782
0.00256244
0.00311971
-0.00558815
0.00304634
0.00339665
-0.00271119
0.00311469
0.00333798
-0.000555577
0.0028858
0.00294143
0.000454973
0.0025333
0.00223016
0.000697378
0.00212931
0.00142747
0.00071792
0.00160295
0.000795532
0.000666476
0.00088375
0.000360916
0.000719908
0.000106587
-7.61607e-05
0.000806549
-8.09582e-05
-0.000797213
0.000781239
0.000722424
-0.00170589
0.000790282
0.00155299
-0.00258664
0.000867413
0.00207774
-0.00324511
0.000765362
0.00250885
-0.00341852
-0.000103721
0.00291319
-0.00309886
-0.00214169
0.00318091
-0.00246008
-0.00502124
0.00308738
-0.00147389
-0.00782185
0.00249408
-0.00983202
0.00124499
0.00124307
-0.0113167
-5.13782e-05
0.0016634
-0.00921849
0.0016634
0.00159029
-0.00638087
0.00254836
0.00139819
-0.00346653
0.00296139
0.00124473
-0.00124891
0.00310876
0.00105955
-4.72698e-05
0.00297174
0.000692869
0.00056012
0.00265835
0.000293506
0.000845506
0.00226725
-2.39018e-05
0.00101951
0.0017683
-5.5827e-05
0.00113325
0.00118068
-3.88718e-05
0.00122803
0.00102506
-0.000320887
0.00116499
0.00160852
-0.000772573
0.00101915
0.00220298
-0.00122987
0.000837006
0.00264712
-0.00151885
0.000361267
0.00299521
-0.00165862
-0.000863938
0.00317745
-0.00176358
-0.00303575
0.00301139
-0.00174081
-0.00592369
0.00253745
-0.00126512
-0.00867674
0.00153829
-0.0106625
-0.000271001
0.00102998
-0.0114263
-0.00105484
0.00102726
-0.00921305
0.00102726
0.00052561
-0.00648976
0.00210723
7.10482e-06
-0.00380045
0.00261735
-0.000362581
-0.00183242
0.00284426
-0.000557522
-0.000716538
0.00279055
-0.000612537
-9.12576e-05
0.00258672
-0.000627158
0.000353976
0.00233206
-0.000524924
0.000638819
0.00207168
-0.000255403
0.000834453
0.00179757
4.03527e-05
0.000982227
0.00172575
0.000124369
0.000905335
0.00200542
5.57809e-05
0.000636697
0.00233493
-5.54514e-05
0.00025642
0.00263086
-0.000198291
-0.000365038
0.00284872
-0.000482313
-0.00152854
0.00285463
-0.000896347
-0.00347556
0.00258386
-0.00125401
-0.00614679
0.0020116
-0.00113471
-0.00873493
0.000827987
-0.0108425
-0.0012901
0.000746146
-0.0109018
-0.00178082
0.000388205
-0.00849717
0.000388205
-0.000371066
-0.00611625
0.0014859
-0.000942624
-0.0040014
0.00197738
-0.0012719
-0.00250293
0.00215275
-0.00136654
-0.00160688
0.00204878
-0.00127609
-0.00107041
0.00188941
-0.00103116
-0.000676265
0.00178715
-0.000713123
-0.000344807
0.0017218
-0.000388771
-2.05569e-06
0.00164293
-3.1633e-05
0.000150305
0.00162442
0.000241082
2.00569e-06
0.00175966
0.00045764
-0.000364603
0.00189011
0.000578614
-0.000754309
0.00198544
0.000565623
-0.00131282
0.00207222
0.00032553
-0.00222349
0.00208775
-0.00010439
-0.00373685
0.00185297
-0.000710431
-0.00583879
0.00131682
-0.000893663
-0.0081366
0.000140052
-0.0104301
-0.00203953
3.85516e-06
-0.00933028
-0.00259379
-0.00063364
-0.00722217
-0.000633639
-0.00152179
-0.00535895
0.000339573
-0.00208804
-0.00399952
0.000631121
-0.00229636
-0.00304328
0.000591217
-0.00221936
-0.00246699
0.000453949
-0.00193128
-0.00211322
0.000295171
-0.00151271
-0.00184549
0.000239825
-0.00103651
-0.00158828
0.000301921
-0.000543073
-0.00128903
0.000457717
-4.03399e-05
-0.0011679
0.000538858
0.000516198
-0.00138989
0.000425673
0.00098335
-0.00165198
0.000371486
0.00133397
-0.00191844
0.000413275
0.0014959
-0.00227386
0.000505712
0.00139863
-0.00285744
0.000573441
0.000984185
-0.00380017
0.000505238
0.000216113
-0.00514508
0.000174705
-0.000207011
-0.006952
-0.000928495
-0.00901671
-0.00286281
-0.00126154
-0.00616242
-0.00380495
-0.00256427
-0.0046167
-0.00256427
-0.00353445
-0.003608
-0.00208669
-0.00396813
-0.00303627
-0.00209016
-0.00387235
-0.00268303
-0.00231799
-0.00344954
-0.00249676
-0.00248974
-0.00282505
-0.00237666
-0.00261375
-0.00207989
-0.00224897
-0.00265743
-0.00129499
-0.0020712
-0.00255134
-0.000579172
-0.00177408
-0.00224952
0.000202164
-0.00174018
-0.00218554
0.00107615
-0.00203079
-0.00246935
0.00190511
-0.00221886
-0.00254654
0.00258903
-0.00234757
-0.00246423
0.00307413
-0.00245593
-0.0023645
0.003285
-0.00261331
-0.00231808
0.00298818
-0.00294366
-0.00215169
0.00218815
-0.0034926
-0.00223023
0.00109415
-0.00447526
-0.00277973
-0.00598586
-0.00404971
-0.00381452
-0.00583922
-0.00612285
-0.00612285
-0.00730341
-0.00696161
-0.00768938
-0.00789639
-0.00746097
-0.00883238
-0.00674797
-0.00974091
-0.00562883
-0.0105341
-0.00416315
-0.011109
-0.00241191
-0.0113367
-0.000412903
-0.0109997
0.00161237
-0.0109428
0.00339763
-0.0113333
0.00488639
-0.0110842
0.00603571
-0.0105181
0.00679571
-0.00973538
0.00709478
-0.00882892
0.00680974
-0.00791977
0.00576495
-0.00702993
0.00362434
-0.00624964
-0.00603891
0.000620796
-0.000651548
0.00137821
0.00109071
-0.000625955
0.00150143
0.00137105
-0.000560619
0.00137105
0.00163733
-0.000621413
0.00122714
0.00187419
-0.000662445
0.00111873
0.00190432
-0.000461362
0.000979281
0.00168001
-0.000188022
0.000902167
0.00115737
0.000105284
0.000898467
0.000469183
0.00023015
0.000921174
-0.000164267
0.000141146
0.000908085
-0.000629346
-1.67833e-05
0.000899272
-0.000916075
-0.000149631
0.000922518
-0.00115874
-0.000114358
0.000865985
-0.00123791
-0.000230863
0.00075521
-0.00106337
-0.000463823
0.000680564
-0.000743618
-0.000527986
0.000560812
-0.000596334
-0.00028188
0.00037379
-0.000554235
-3.32476e-06
0.000367567
-0.000371072
0.000121795
0.00047162
0.000196802
0.000416485
0.0019832
-0.0024074
0.00382097
0.00290168
-0.0014308
0.00356892
0.00283834
-0.000433706
0.00283834
0.00211175
0.000143749
0.00202477
0.0012872
0.000181291
0.00137427
0.000756934
-5.97806e-05
0.000857841
0.000654243
-0.000327298
0.000637987
0.000689368
-0.000210118
0.000521518
0.000614891
1.56811e-05
0.00037814
0.000384472
9.78887e-05
0.000283997
0.000111152
-1.74037e-05
0.0002769
-0.00011471
-0.000213161
0.000369293
-0.000210591
-0.000306748
0.000494523
-0.000382123
-0.000280958
0.000551232
-0.000918928
1.91906e-05
0.000837834
-0.00183877
0.00047249
0.00132126
-0.00271225
0.000752982
0.00202614
-0.00290552
0.000367939
0.00307654
-0.0020089
-0.000684532
0.00403729
-0.00175748
0.00438108
0.00211704
-0.00530744
0.00404533
0.00362302
-0.00380459
0.00454963
0.00440402
-0.00199565
0.00440402
0.0042807
-0.000295126
0.00377221
0.00340747
0.000727363
0.00293887
0.00229918
0.000853942
0.00217897
0.00139268
0.000457503
0.00153505
0.000921863
0.00011105
0.000919357
0.000725638
1.60713e-05
0.000328589
0.000517631
0.000126756
-7.26092e-05
0.000142732
0.000200874
-0.000135813
-0.000324132
6.9688e-05
0.000213061
-0.000909435
0.000122623
0.000869622
-0.0018215
0.000489421
0.00143771
-0.00294437
0.000929346
0.00206815
-0.00385435
0.00100116
0.00285534
-0.0040368
0.00033815
0.00368729
-0.00329622
-0.00117636
0.00436325
-0.00188687
-0.00296064
0.00449562
-0.00447058
0.00395054
0.00182006
-0.00732987
0.00164107
0.00304634
-0.00558816
0.00311971
0.00381185
-0.00352667
0.00381185
0.00408936
-0.00125873
0.00380079
0.0038804
0.000414474
0.00340768
0.00327327
0.00109035
0.00290404
0.002423
0.0010843
0.00235279
0.00158102
0.000859778
0.00169621
0.000919741
0.000662028
0.000899067
0.000385332
0.000670242
9.74965e-05
-0.000197076
0.000769966
-6.76577e-05
-0.000945152
0.000760492
0.000779685
-0.00184858
0.000893001
0.00168604
-0.00280243
0.00117723
0.0023438
-0.00359206
0.00131997
0.00290787
-0.00395573
0.000809557
0.00346848
-0.00370418
-0.000648216
0.00391573
-0.00291765
-0.00279106
0.00391554
-0.00173346
-0.00476888
0.00311811
-0.00648028
0.00152123
0.00168256
-0.00850221
-0.000561602
0.00254836
-0.00638087
0.00159029
0.00289495
-0.00421984
0.00289495
0.00295723
-0.00181462
0.00345498
0.00279082
0.000168555
0.00352109
0.00236321
0.00122475
0.00326494
0.00174982
0.00150142
0.00285462
0.00107454
0.00145793
0.00234437
0.000462986
0.00139344
0.00164843
0.000105117
0.00139943
0.000809343
-0.000210953
0.00147586
0.000635215
-0.000786953
0.00146805
0.00147695
-0.00151511
0.00154682
0.00227731
-0.00224483
0.00168559
0.00286848
-0.00278527
0.00152264
0.00333298
-0.00299866
0.000572904
0.00362748
-0.00291631
-0.00127431
0.00355512
-0.00254633
-0.00353559
0.00291199
-0.00170233
-0.00556652
0.00149191
-0.0077398
-0.000713816
0.0014967
-0.00917226
-0.00188149
0.00210723
-0.00648976
0.000525611
0.00210845
-0.00422231
0.00210845
0.00179252
-0.00177759
0.00289624
0.00146878
9.78593e-05
0.00323869
0.00108024
0.00125004
0.00315379
0.000668854
0.00163254
0.00286698
0.000271605
0.00170305
0.00248418
-7.6879e-06
0.00172929
0.00201511
-8.73326e-05
0.0017962
0.00148042
-0.000137048
0.00187765
0.00137365
-0.000435801
0.00184908
0.00192312
-0.000884609
0.00184999
0.00248055
-0.0013462
0.00185931
0.00291871
-0.00173881
0.0015415
0.00322247
-0.00204351
0.000459072
0.00327315
-0.002277
-0.00134719
0.00289022
-0.00221386
-0.00359908
0.00201195
-0.00156138
-0.00573563
0.000344621
-0.00853933
-0.00205195
0.00110013
-0.00925637
-0.00279683
0.0014859
-0.00611625
-0.000371065
0.00131521
-0.00388095
0.00131521
0.000899944
-0.00155532
0.00217038
0.000457311
0.000217137
0.00247609
0.000164935
0.00113001
0.00246118
-6.78678e-05
0.00147594
0.0022788
-0.000239031
0.00158804
0.00207331
-0.000309631
0.00166154
0.00186013
-0.000251736
0.00176792
0.0016133
-0.000181742
0.00184492
0.00158714
-0.00026403
0.00181126
0.00187974
-0.000451709
0.00177037
0.00215739
-0.000676968
0.00170284
0.00236715
-0.000933223
0.00137451
0.00249545
-0.00129203
0.000481676
0.00242394
-0.00160842
-0.00119489
0.00201705
-0.00168003
-0.00332237
0.00111171
-0.00117517
-0.00551541
-0.000585029
-0.00875745
-0.00299658
0.000208723
-0.00829111
-0.00376777
0.000339572
-0.00535895
-0.00152179
-6.73738e-05
-0.00306705
-6.73735e-05
-0.000377229
-0.00132768
0.000713333
-0.000463757
-0.000173679
0.00106856
-0.00050925
0.000563745
0.0010657
-0.000516313
0.000850143
0.000928022
-0.000483367
0.000969217
0.000825692
-0.000422005
0.00110914
0.000792948
-0.000406896
0.00139444
0.000816078
-0.000343864
0.00146431
0.000856418
-0.00025699
0.00125828
0.000891767
-0.000213298
0.00115252
0.000945634
-0.000193224
0.00106961
0.00102643
-0.000219011
0.000822941
0.00108306
-0.000217172
4.10793e-05
0.00101219
-0.000390141
-0.00105487
0.000538184
-0.000570509
-0.00268892
-0.000278382
-0.000304498
-0.0049677
-0.00174222
-0.00794609
-0.00397866
-0.00130594
-0.00575138
-0.00503872
-0.00208669
-0.003608
-0.00353445
-0.00251402
-0.00221239
-0.00251402
-0.00260229
-0.00134097
-0.00198858
-0.00232148
-0.000727381
-0.00204509
-0.00182708
-0.000319342
-0.00210104
-0.00137793
-6.17778e-05
-0.00215098
-0.00103178
0.000119789
-0.00215415
-0.000771402
0.000327394
-0.00202997
-0.000593779
0.000704801
-0.00173751
-0.000365422
0.000730644
-0.00168023
-4.15093e-05
0.000363139
-0.00189812
0.000373846
0.000171531
-0.0019809
0.000915484
1.34312e-05
-0.0019497
0.00153395
-0.000186386
-0.00197364
0.00196466
-0.000610657
-0.00209705
0.00202519
-0.00120591
-0.00206117
0.00180081
-0.00205362
-0.00264114
0.00120246
-0.00343092
-0.00371815
-0.00555967
-0.00523366
-0.00453419
-0.00705638
-0.00696161
-0.00730341
-0.00806779
-0.00806779
-0.00832867
-0.00897646
-0.00800746
-0.00988094
-0.00724317
-0.0108245
-0.00610256
-0.0117365
-0.00459687
-0.0124949
-0.00270625
-0.0128999
-0.000382376
-0.0126188
0.00196857
-0.0125631
0.00387186
-0.0128734
0.00540265
-0.0124434
0.0065739
-0.0116759
0.00740607
-0.0107539
0.00779409
-0.00982758
0.00764018
-0.00897175
0.00666822
-0.00811158
0.00438749
-0.0073998
-0.00721107
0.000455703
-0.000488195
0.00141075
0.000871995
-0.000553096
0.00163826
0.00122714
-0.000621413
0.00163733
0.00158818
-0.000722067
0.00158819
0.00187585
-0.00067593
0.001507
0.00197019
-0.000509561
0.0013945
0.00180713
-0.000280911
0.00134612
0.00132733
1.28466e-06
0.00137694
0.000576139
0.00022154
0.00145079
-0.000192642
0.000172937
0.00150389
-0.000774489
2.01529e-06
0.00147907
-0.00111499
-0.000140878
0.00140389
-0.00136446
-0.000121929
0.00123738
-0.00143666
-0.000232797
0.00106021
-0.00124756
-0.000457123
0.000948588
-0.000871171
-0.000624423
0.00080886
-0.00056889
-0.000489015
0.00056054
-0.000373423
-0.000226844
0.00039895
-0.000181904
1.34361e-05
0.000266646
0.000213265
2.12936e-05
0.00142909
-0.000504493
0.00240845
0.00206327
-0.000146839
0.00252866
0.00202477
0.000143749
0.00211175
0.00157421
0.000179079
0.00157421
0.00111742
-1.02273e-05
0.00116534
0.000896357
-0.000353098
0.000922435
0.000925115
-0.00053915
0.000867461
0.000928111
-0.00029594
0.000815731
0.000777475
5.1074e-06
0.000745158
0.000414204
0.000123014
0.000697158
-1.34893e-05
4.59601e-06
0.000702005
-0.000343136
-0.000185343
0.000743408
-0.000428753
-0.000335272
0.000793477
-0.000447858
-0.000428606
0.000766142
-0.000650822
-0.000242508
0.000826182
-0.00115088
0.000150713
0.00104619
-0.00170346
0.000625084
0.00146468
-0.00187809
0.00084931
0.00217513
-0.00136446
0.000720066
0.00281719
0.000335924
0.00289411
0.00198825
-0.00245126
0.0040039
0.00320993
-0.0013156
0.00449679
0.00377221
-0.000295126
0.0042807
0.00356328
0.000597019
0.00356328
0.00283044
0.00091962
0.00274193
0.00194238
0.000683979
0.00203
0.00125891
0.000197755
0.00148163
0.000972705
-0.000114381
0.001024
0.000842502
-0.000126905
0.00059079
0.000577098
6.74106e-05
0.000248375
0.000118217
0.000150147
0.000177502
-0.000312246
-4.76985e-06
0.000462938
-0.000728779
-2.93207e-05
0.000980199
-0.00141522
0.000260869
0.00143468
-0.0023173
0.000769996
0.00195775
-0.00309873
0.00109347
0.00269406
-0.00334525
0.00100104
0.0035579
-0.00283531
0.000402759
0.0042999
-0.00170053
-0.0004902
0.00457114
-0.00152425
0.0041102
0.00199603
-0.00461889
0.00181267
0.00311469
-0.00271119
0.00339665
0.00380079
-0.00125873
0.00408936
0.00404182
0.000114983
0.00404182
0.00377363
0.00101731
0.00357821
0.00312929
0.00123405
0.00299834
0.00228506
0.00101625
0.00237854
0.00150701
0.000633776
0.00172611
0.000916552
0.000358064
0.00100455
0.00041569
0.000343992
0.000321762
-0.000194245
0.000510491
0.000181918
-0.000900736
0.000563326
0.00091807
-0.00172455
0.000725035
0.00175549
-0.00263168
0.00108396
0.00242783
-0.00339038
0.00139482
0.00304175
-0.00377992
0.00130673
0.00364478
-0.00361966
0.000610608
0.00414591
-0.00296523
-0.00056324
0.0042271
-0.00193921
-0.0018899
0.00349178
-0.00378669
0.00184445
0.00201396
-0.00632743
-0.000867039
0.00296139
-0.00346653
0.00139819
0.00345498
-0.00181462
0.00295723
0.00362917
-0.000233417
0.00362917
0.00345964
0.00103479
0.00367313
0.00296976
0.00160942
0.00337945
0.00229373
0.00159415
0.00295274
0.00153132
0.00132567
0.00241487
0.000807001
0.00106875
0.00166206
0.000218645
0.00095044
0.000791238
-0.000360817
0.0010822
0.00064295
-0.00107946
0.00121677
0.00154213
-0.00189672
0.00143535
0.00238424
-0.0026909
0.00174873
0.00299789
-0.00328577
0.00184289
0.00347978
-0.0035278
0.00137956
0.00379667
-0.00339088
0.000285377
0.00374342
-0.00293324
-0.00111737
0.00300848
-0.0020453
-0.00265509
0.00136916
-0.005605
-0.000940819
0.00176493
-0.00759387
-0.00237999
0.00261735
-0.00380045
7.10512e-06
0.00289624
-0.00177759
0.00179252
0.00284871
-0.000138374
0.00284871
0.00260387
0.00123221
0.0032861
0.0021849
0.00190903
0.00327314
0.00163619
0.00198966
0.00302016
0.00103095
0.00179641
0.00261867
0.000465151
0.00159458
0.00205507
2.21376e-05
0.00152354
0.00135032
-0.000397946
0.00162828
0.00124764
-0.000966771
0.00174387
0.00196483
-0.00161016
0.00194213
0.00261716
-0.00220247
0.00217732
0.00308242
-0.00264609
0.00214744
0.00336154
-0.00289516
0.00154716
0.00335461
-0.00294245
0.000353
0.00286987
-0.00266855
-0.00113398
0.00175464
-0.00181047
-0.00307509
-9.34671e-05
-0.00699609
-0.00247133
0.00120488
-0.00824209
-0.00335348
0.00197738
-0.0040014
-0.000942623
0.00217038
-0.00155532
0.000899945
0.00193904
0.000324304
0.00193904
0.00169225
0.00143961
0.00251547
0.00139923
0.00198895
0.00267427
0.0010339
0.00204174
0.00259205
0.000607841
0.00190428
0.00239148
0.000182728
0.00178698
0.00209283
-0.000176004
0.00180223
0.00169333
-0.000510007
0.00188639
0.00166301
-0.000910116
0.00193909
0.00208462
-0.00131787
0.00207131
0.00243595
-0.00166334
0.00223362
0.00265632
-0.00192964
0.00219482
0.00271435
-0.00214034
0.00169067
0.00249111
-0.0023083
0.000701285
0.00183671
-0.00209325
-0.000956697
0.000719368
-0.00124905
-0.00341322
-0.0010911
-0.00776688
-0.00347484
6.67368e-05
-0.00774132
-0.00433527
0.000631121
-0.00399952
-0.00208804
0.000713333
-0.00132768
-0.000377229
0.000716398
0.000318166
0.000716398
0.000642962
0.00135547
0.00122612
0.000606565
0.00168879
0.00140225
0.000509948
0.00167521
0.00139117
0.00031873
0.0015995
0.00132169
3.49887e-05
0.00161543
0.00124823
-0.000391497
0.00186772
0.00117706
-0.0007657
0.00190609
0.00121091
-0.000962364
0.00170839
0.00131913
-0.00107454
0.00172478
0.00140434
-0.00109944
0.00182768
0.00145726
-0.00107706
0.00184731
0.00140818
-0.00106467
0.00154562
0.00114484
-0.00103491
0.000674855
0.000534842
-0.000806757
-0.000920105
-0.00054313
-0.000127176
-0.00359164
-0.00224338
-0.00740166
-0.00447105
-0.00156062
-0.00565683
-0.00556258
-0.00209016
-0.00303627
-0.00396813
-0.00198858
-0.00134097
-0.00260229
-0.00174039
-0.000178216
-0.00174039
-0.00136331
0.000396561
-0.00146326
-0.000976533
0.000622891
-0.00142192
-0.00068397
0.00073061
-0.00149895
-0.000518751
0.00085495
-0.00157483
-0.000479797
0.00108492
-0.00153841
-0.000597273
0.00158617
-0.00133849
-0.000658772
0.00158358
-0.00129623
-0.000517087
0.00108887
-0.00142028
-0.00022345
0.000866177
-0.00141594
0.000222403
0.000763508
-0.00133138
0.000742306
0.000676682
-0.00132291
0.00117831
0.000479212
-0.00146664
0.00157363
6.71872e-07
-0.00178231
0.00184995
-0.00116557
-0.00267199
0.00148058
-0.00285719
-0.00408322
-0.00546916
-0.00568555
-0.00524612
-0.00746706
-0.00789639
-0.00768938
-0.00897646
-0.00832867
-0.00906555
-0.00906555
-0.00861565
-0.00993425
-0.00783609
-0.0109812
-0.0067341
-0.0121078
-0.00520891
-0.0131651
-0.00313209
-0.0138918
-0.000327707
-0.013837
0.00248963
-0.0137969
0.00457102
-0.0138659
0.00611184
-0.0131181
0.00723734
-0.0120379
0.00805793
-0.0108978
0.00856466
-0.00985508
0.00859482
-0.00900122
0.0076443
-0.00832661
0.00512193
-0.0077346
-0.00755829
0.00028301
-0.000367404
0.00149515
0.00069314
-0.000531736
0.00175987
0.00111873
-0.000662445
0.00187419
0.001507
-0.00067593
0.00187585
0.00182224
-0.000630471
0.00182224
0.00198369
-0.000526517
0.00175956
0.00189695
-0.000325425
0.00175826
0.00147083
-4.40815e-05
0.0018471
0.000684132
0.000217977
0.00201947
-0.000235782
0.000221827
0.00220194
-0.000947001
3.06098e-05
0.00215964
-0.00133882
-0.000117771
0.00191347
-0.00157577
-0.000133987
0.0016083
-0.00161723
-0.000248852
0.00135052
-0.0014378
-0.000415888
0.00118505
-0.00110168
-0.00057922
0.00105197
-0.000723662
-0.000675316
0.000857858
-0.000433759
-0.000518761
0.000627826
-0.000213063
-0.000317978
0.000363938
-0.000167213
-2.455e-05
0.000968415
0.000406727
0.000665925
0.00139345
0.000285493
0.00128642
0.00137427
0.000181291
0.0012872
0.00116534
-1.02273e-05
0.00111742
0.00102725
-0.000354315
0.00102725
0.00103908
-0.000652527
0.00103662
0.00113421
-0.000659743
0.00110665
0.00111812
-0.000355443
0.00114317
0.000910322
-9.20598e-06
0.00118008
0.000459136
0.000148747
0.00122138
-9.97707e-05
6.04067e-05
0.0012311
-0.000524967
-0.000118646
0.00116947
-0.000637963
-0.00032904
0.00110152
-0.000575427
-0.00054794
0.00100269
-0.00055677
-0.000488193
0.000879831
-0.00072489
-0.000198491
0.000833585
-0.00103777
0.000181632
0.000920633
-0.00118136
0.00059376
0.00120625
-0.000920935
0.000842888
0.00139599
0.000921006
0.000885058
0.00172126
-0.000522687
0.00321215
0.00261161
0.000254729
0.00363728
0.00293887
0.000727363
0.00340747
0.00274193
0.00091962
0.00283044
0.00218977
0.000750059
0.00218977
0.00157315
0.000306741
0.00168738
0.00115151
-0.000126555
0.00137008
0.00100627
-0.000343208
0.001157
0.000901284
-0.000242923
0.000929474
0.000614177
-1.96788e-05
0.00070388
0.0001223
8.57807e-05
0.000643984
-0.000289353
-6.55102e-05
0.000821439
-0.000569589
-0.000193329
0.00112472
-0.00103056
-1.36565e-05
0.00136137
-0.00166585
0.000422987
0.00168188
-0.0022649
0.000905865
0.00218878
-0.00254584
0.00115735
0.00286315
-0.00226855
0.00110572
0.00351068
-0.00147583
0.000809362
0.00381197
5.78023e-05
0.00349761
0.00201681
-0.00262256
0.00189574
0.0028858
-0.000555577
0.00333798
0.00340768
0.000414474
0.0038804
0.00357821
0.00101731
0.00377363
0.00332649
0.00125351
0.00332649
0.00273376
0.00113243
0.0027654
0.00200803
0.000758432
0.00221929
0.0013585
0.000315431
0.001717
0.000871368
3.78742e-05
0.00121088
0.000445093
1.37427e-05
0.000714604
-0.000115345
0.000237071
0.000591051
-0.000758277
0.000348314
0.00114717
-0.00147915
0.000497049
0.00178598
-0.00226576
0.000863236
0.00233756
-0.00293075
0.00124635
0.00288338
-0.00326925
0.00145019
0.00343897
-0.00317855