/*--------------------------------*- C++ -*----------------------------------*\
  =========                 |
  \\      /  F ield         | OpenFOAM: The Open Source CFD Toolbox
   \\    /   O peration     | Website:  https://openfoam.org
    \\  /    A nd           | Version:  9
     \\/     M anipulation  |
\*---------------------------------------------------------------------------*/
FoamFile
{
    format      ascii;
    class       volVectorField;
    location    "1100";
    object      U;
}
// * * * * * * * * * * * * * * * * * * * * * * * * * * * * * * * * * * * * * //

dimensions      [0 1 -1 0 0 0 0];

internalField   nonuniform List<vector> 
4000
(
(0.00131513 0.00537638 0.00131513)
(0.00435747 0.00126461 0.00130899)
(0.00466131 -0.00199859 0.000919963)
(0.00495451 -0.00447635 0.000657413)
(0.00490609 -0.00340981 0.000192935)
(0.00512568 -0.000544301 -4.92003e-05)
(0.00477688 0.000967961 6.30496e-05)
(0.00360142 0.000972651 0.00014726)
(0.00188415 0.000793996 0.000107957)
(0.000196259 0.000529176 -2.24852e-05)
(-0.000902556 0.000173989 -2.35851e-05)
(-0.00161716 -5.88274e-05 0.000200836)
(-0.00219726 8.49448e-05 0.00034159)
(-0.0024877 0.000148228 0.000236202)
(-0.00219932 -0.00124471 0.000116608)
(-0.00173009 -0.00417138 0.000298054)
(-0.00142009 -0.00177215 9.86364e-05)
(-0.00296642 0.00358762 0.000551738)
(-0.00406156 0.00753015 0.00156418)
(-0.0023706 0.00815618 0.00228599)
(0.006131 -0.018078 0.006131)
(0.0121852 -0.0101311 0.00588474)
(0.0147 -0.0020896 0.00498372)
(0.0123019 0.00201333 0.00373335)
(0.00512502 0.00167309 0.0023236)
(-0.000615136 -0.000107288 0.000590522)
(-0.00127164 -0.000716033 -7.62153e-05)
(-0.00106545 0.000639324 -0.000420012)
(7.63695e-05 0.00156307 -0.000588138)
(0.00104591 0.00130057 -0.000680671)
(0.00172798 0.000782941 -0.000653049)
(0.00214049 0.000190408 -0.000548721)
(0.00255317 -0.000621519 -0.000388311)
(0.00210803 -0.00137764 -0.000146492)
(0.00190907 -0.000122664 0.000767062)
(-0.00607021 0.00237885 0.00291852)
(-0.0125931 0.00316772 0.00429545)
(-0.0150514 -0.00231614 0.0056941)
(-0.0121102 -0.0122686 0.0063923)
(-0.00580612 -0.0214593 0.00621426)
(0.00377962 -0.0354304 0.00377962)
(0.00904546 -0.0258618 0.00451615)
(0.0125195 -0.015532 0.00481818)
(0.0147707 -0.00608134 0.00495394)
(0.0135195 0.000703952 0.00450241)
(0.00940186 0.00285582 0.00359677)
(0.00450898 0.0011425 0.00263261)
(-2.77189e-05 -0.000306209 0.000838917)
(2.40761e-05 -0.000658083 -0.000551157)
(0.000916766 -0.000257641 -0.00124756)
(0.00193361 -0.000106202 -0.00118515)
(0.00218819 -0.000231514 -0.000664694)
(0.00170175 -0.000129915 0.000608096)
(-0.00342147 0.00129625 0.00236178)
(-0.00812489 0.00286509 0.00318063)
(-0.0128557 0.00175743 0.00406684)
(-0.0142094 -0.00334358 0.00455166)
(-0.0117798 -0.0130207 0.00457317)
(-0.00834676 -0.0244263 0.00426752)
(-0.00331735 -0.034775 0.0033509)
(0.00189645 -0.0440544 0.00189645)
(0.00462814 -0.0337976 0.00311803)
(0.00483663 -0.0225295 0.00373604)
(0.00596499 -0.0122905 0.00451964)
(0.00669352 -0.00492841 0.00507158)
(0.00691899 -0.000907415 0.00495599)
(0.00594896 0.000802107 0.00447697)
(0.00419266 0.00179887 0.00367013)
(0.00170855 0.00127429 0.00238726)
(0.000501192 0.00154822 0.000702929)
(0.00131789 0.0018472 0.000304921)
(0.000835774 0.00188406 0.00149112)
(-0.0025732 0.00205331 0.00330281)
(-0.00563171 0.00178928 0.00419067)
(-0.00730159 0.000699641 0.00475213)
(-0.00747273 -0.00310752 0.00499622)
(-0.0065489 -0.010391 0.00450299)
(-0.00484519 -0.0211491 0.00366689)
(-0.00452897 -0.0330369 0.00293901)
(-0.00180997 -0.0432844 0.00148526)
(0.000729989 -0.0483524 0.00072999)
(0.00130534 -0.038372 0.00226595)
(-0.00166467 -0.027648 0.00287803)
(-0.00253524 -0.0190147 0.00369427)
(-0.00330172 -0.0128482 0.00447323)
(-0.00337895 -0.00911723 0.00480109)
(-0.00330437 -0.00666323 0.00476719)
(-0.00295764 -0.00460672 0.00472343)
(-0.00251053 -0.00298458 0.00466526)
(-0.0016571 -0.00181157 0.00447753)
(-7.52091e-05 -0.000753711 0.00431135)
(0.000854223 -0.000970019 0.00461725)
(0.00103549 -0.00261461 0.00497252)
(0.00122626 -0.00484353 0.00504256)
(0.00132944 -0.00748799 0.00499501)
(0.00141164 -0.0115214 0.00449585)
(0.000997028 -0.0177779 0.00362491)
(0.000724046 -0.0267361 0.00277604)
(-0.00194045 -0.037586 0.00205692)
(-0.000942776 -0.0472299 0.000241747)
(-0.000168516 -0.0490788 -0.000168515)
(-0.00114631 -0.0398666 0.00149054)
(-0.0057921 -0.0310845 0.00164815)
(-0.00761095 -0.0247161 0.00179608)
(-0.00872245 -0.0203495 0.0017643)
(-0.00865758 -0.0174614 0.00170158)
(-0.00782634 -0.0154264 0.00163493)
(-0.00637601 -0.0138713 0.00170821)
(-0.00451355 -0.0127441 0.00192302)
(-0.00261309 -0.0118615 0.00221587)
(-0.00053466 -0.0110053 0.00243137)
(0.00161022 -0.0112188 0.00226935)
(0.00347457 -0.0124715 0.00204534)
(0.0049856 -0.0141299 0.00189621)
(0.00598838 -0.0162379 0.00185548)
(0.00631664 -0.019294 0.0018107)
(0.00553789 -0.0238472 0.00172003)
(0.00424829 -0.0303865 0.00152176)
(-6.95116e-05 -0.039247 0.00122068)
(-0.000254507 -0.0479062 -0.000787559)
(-0.00122628 -0.046751 -0.00122628)
(-0.00313102 -0.0393615 0.000360284)
(-0.00870276 -0.0327547 -0.000132823)
(-0.0110128 -0.0284521 -0.000693231)
(-0.0120775 -0.0256508 -0.00135972)
(-0.0116446 -0.023822 -0.00191369)
(-0.0101664 -0.0225312 -0.00230767)
(-0.00796792 -0.0214921 -0.00251974)
(-0.00539781 -0.0206193 -0.00249401)
(-0.00303578 -0.0198385 -0.00225008)
(-0.00059235 -0.0192277 -0.00213891)
(0.00212883 -0.0195011 -0.00241115)
(0.00486376 -0.0204581 -0.00241798)
(0.00717272 -0.0216183 -0.00220693)
(0.00881582 -0.0229934 -0.00183662)
(0.00948933 -0.0248986 -0.00133774)
(0.00872574 -0.0278118 -0.000741243)
(0.00687852 -0.0322129 -0.000233284)
(0.00163621 -0.0387728 7.39356e-05)
(0.000666529 -0.0457517 -0.00189546)
(-0.0028356 -0.0407863 -0.00283559)
(-0.00559852 -0.0353959 -0.00157119)
(-0.0118425 -0.0311756 -0.00256797)
(-0.0144832 -0.0288445 -0.00364036)
(-0.0153446 -0.0274276 -0.00467304)
(-0.014471 -0.026555 -0.00550497)
(-0.012371 -0.0259624 -0.00612783)
(-0.00944508 -0.0254656 -0.00653261)
(-0.00611589 -0.0249753 -0.00666534)
(-0.00326114 -0.0244547 -0.00649109)
(-0.000386388 -0.024169 -0.00646225)
(0.00276438 -0.0243941 -0.00677154)
(0.00634077 -0.0249262 -0.00656323)
(0.00941294 -0.0254714 -0.00611653)
(0.0116568 -0.0260573 -0.00547906)
(0.0127241 -0.0269053 -0.00466386)
(0.0121306 -0.0283645 -0.00368593)
(0.00990558 -0.0307171 -0.00265924)
(0.00400626 -0.0348499 -0.00186156)
(0.0022105 -0.0400042 -0.00351107)
(-0.0055719 -0.0303493 -0.0055719)
(-0.00961723 -0.0266159 -0.00517539)
(-0.0161649 -0.0244775 -0.00649428)
(-0.0188262 -0.0236898 -0.00793883)
(-0.0194056 -0.0234939 -0.00927835)
(-0.0180758 -0.0236285 -0.0103631)
(-0.0153279 -0.0238255 -0.0111827)
(-0.0115754 -0.0238986 -0.011699)
(-0.00727623 -0.0237326 -0.0117864)
(-0.00368907 -0.0232996 -0.0112871)
(0.000172562 -0.0231175 -0.0112146)
(0.0040421 -0.0233749 -0.0119045)
(0.00860146 -0.023555 -0.0117422)
(0.012487 -0.0235044 -0.0111786)
(0.0153474 -0.0233011 -0.0103519)
(0.0168424 -0.0231348 -0.00930254)
(0.0165076 -0.0233207 -0.00800664)
(0.014219 -0.0240896 -0.00663269)
(0.00809512 -0.0262199 -0.00548585)
(0.00489183 -0.0298346 -0.00623553)
(-0.00995279 -0.0186578 -0.00995279)
(-0.0165755 -0.0150795 -0.0114685)
(-0.0231608 -0.0132764 -0.0139682)
(-0.0256034 -0.0125081 -0.0163184)
(-0.0257401 -0.0120642 -0.0185159)
(-0.0238582 -0.011726 -0.0204832)
(-0.0203407 -0.0113277 -0.0221176)
(-0.0155037 -0.0107902 -0.0232885)
(-0.00975443 -0.0101077 -0.0237439)
(-0.00471023 -0.00938217 -0.0229866)
(0.00167053 -0.00926392 -0.0228738)
(0.00694176 -0.0100104 -0.0238988)
(0.0128248 -0.0107714 -0.02335)
(0.0177199 -0.0113236 -0.0221493)
(0.0213148 -0.0117013 -0.0205114)
(0.0233298 -0.0119849 -0.0185464)
(0.0234053 -0.0123733 -0.016386)
(0.0213054 -0.0130855 -0.0141179)
(0.0151546 -0.0148458 -0.0117746)
(0.00921727 -0.0183465 -0.010573)
(0.00130899 0.00126461 0.00435747)
(0.00408373 -0.00166586 0.00408373)
(0.00494493 -0.00370361 0.0031017)
(0.00553837 -0.00453537 0.0023432)
(0.00583896 -0.0033757 0.00167713)
(0.00597254 -0.00124622 0.00114462)
(0.0057155 0.000545478 0.00104228)
(0.00441691 0.00106794 0.00104976)
(0.00242372 0.00090971 0.000950461)
(0.000323352 0.00052174 0.000752186)
(-0.00127243 9.904e-05 0.000752876)
(-0.00224493 -5.77013e-05 0.00103146)
(-0.00306796 0.000266 0.00117334)
(-0.00348327 -3.51414e-05 0.000979106)
(-0.00320012 -0.00185791 0.000835802)
(-0.00266619 -0.00414378 0.000833937)
(-0.00204997 -0.00374531 0.000493093)
(-0.00277187 -0.000313443 0.00141018)
(-0.00309696 0.00409942 0.00293782)
(-0.00165626 0.00730985 0.0040623)
(0.00588474 -0.0101311 0.0121852)
(0.0111614 -0.0048794 0.0111614)
(0.0134685 0.000102706 0.00894507)
(0.0114013 0.00168937 0.00641186)
(0.00650188 0.000452299 0.00435165)
(0.00222116 -0.00142175 0.00206161)
(0.00107792 -0.00120287 0.000935916)
(0.000978549 0.000165891 0.000404238)
(0.00144814 0.000969884 -6.43749e-05)
(0.00146938 0.000766501 -0.000249624)
(0.00117912 0.000146374 -0.000250193)
(0.000725751 -0.000476694 -5.14072e-05)
(0.000539811 -0.0010483 0.000274229)
(-5.63043e-06 -0.00176468 0.000647673)
(-0.00131171 -0.000953325 0.00244231)
(-0.00632156 0.0017815 0.00452505)
(-0.0115296 0.00352888 0.00693688)
(-0.0137565 0.00126516 0.00996982)
(-0.0113093 -0.0052581 0.0122763)
(-0.00582859 -0.011801 0.0129162)
(0.00451615 -0.0258618 0.00904546)
(0.0102238 -0.018907 0.0102238)
(0.0143508 -0.0106313 0.0101292)
(0.016491 -0.00291163 0.00918408)
(0.014871 0.00168999 0.00763963)
(0.0108458 0.00246609 0.00596135)
(0.00615323 0.000670392 0.00429872)
(0.0028489 -0.00075513 0.00234707)
(0.00189929 -0.000709021 0.000226053)
(0.00167805 -3.68352e-05 -0.000901133)
(0.00143605 -4.88339e-06 -0.000979865)
(0.000516413 -0.000585367 -0.000109134)
(-0.0013048 -0.000592658 0.00215002)
(-0.00482989 0.000887069 0.00392089)
(-0.00933361 0.00253329 0.00546664)
(-0.0135966 0.0027348 0.00714488)
(-0.0154674 -0.000133743 0.00875017)
(-0.013466 -0.00757226 0.00992956)
(-0.00944023 -0.0162739 0.00999023)
(-0.00396995 -0.0235687 0.00852175)
(0.00311803 -0.0337976 0.00462814)
(0.00764566 -0.0264696 0.00764566)
(0.00960284 -0.0169266 0.00887661)
(0.0113144 -0.00724432 0.00913909)
(0.0121956 -0.000373525 0.0086291)
(0.0113149 0.002505 0.00763712)
(0.0091478 0.00290926 0.00651446)
(0.0064551 0.0024341 0.00509812)
(0.00360448 0.00139853 0.00308227)
(0.00169083 0.00126662 0.000707561)
(0.000720953 0.00163354 5.53184e-05)
(-0.00116968 0.00183603 0.00251965)
(-0.00432847 0.00233092 0.00486751)
(-0.00765927 0.00315059 0.00627092)
(-0.0105528 0.003402 0.00745792)
(-0.0122296 0.00126873 0.00857337)
(-0.0113373 -0.00513864 0.0092628)
(-0.0093345 -0.0148653 0.00891683)
(-0.00732474 -0.0246453 0.00738203)
(-0.00289238 -0.0317523 0.00399082)
(0.00226595 -0.038372 0.00130534)
(0.00601497 -0.0311001 0.00601497)
(0.00534629 -0.021279 0.00826015)
(0.00515753 -0.0110961 0.00937669)
(0.0044721 -0.00341727 0.00996518)
(0.00431762 0.000790597 0.00969638)
(0.00318994 0.00227862 0.0088668)
(0.00174965 0.00301418 0.00785579)
(0.000271946 0.00368422 0.00663733)
(-0.000414222 0.00427018 0.0052265)
(4.99122e-05 0.00459991 0.00476218)
(-0.000377382 0.00423844 0.0061126)
(-0.00188219 0.00371256 0.00759106)
(-0.00360328 0.00324154 0.00871664)
(-0.00509947 0.00200126 0.00966663)
(-0.00546718 -0.00200197 0.0100768)
(-0.00591516 -0.00941847 0.00943629)
(-0.00576646 -0.0195068 0.00816903)
(-0.00621775 -0.029151 0.00558199)
(-0.00226764 -0.0359778 0.000529251)
(0.00149054 -0.0398666 -0.00114631)
(0.00499634 -0.0324797 0.00499634)
(0.00228763 -0.0227714 0.00772368)
(0.000926338 -0.0129448 0.00901968)
(-0.000815149 -0.00547419 0.0096606)
(-0.0017567 -0.00126783 0.0097576)
(-0.00194137 0.0011016 0.00942891)
(-0.00217245 0.00231708 0.00894531)
(-0.00206489 0.00306515 0.00848997)
(-0.00147289 0.0036015 0.00802205)
(-0.000249869 0.00398553 0.00784259)
(0.000454411 0.00363914 0.00833668)
(0.000377013 0.00290436 0.00895534)
(-2.09627e-05 0.00203165 0.00953782)
(-0.000422881 8.68006e-05 0.00993788)
(-0.000978458 -0.00438511 0.00968372)
(-0.00241863 -0.0117055 0.00887924)
(-0.00333263 -0.0213928 0.00741208)
(-0.00559795 -0.0307 0.00429576)
(-0.00158585 -0.0376924 -0.00206805)
(0.000360284 -0.0393615 -0.00313102)
(0.00375465 -0.0314745 0.00375465)
(-0.000635911 -0.0223823 0.006419)
(-0.00232445 -0.0138725 0.00743147)
(-0.00399328 -0.00787814 0.00765031)
(-0.00466364 -0.00423594 0.00752478)
(-0.00465777 -0.00199449 0.00744147)
(-0.00400436 -0.000427811 0.00761084)
(-0.00301014 0.000527646 0.00786955)
(-0.00194249 0.0011282 0.0080306)
(-0.000695594 0.0016657 0.00801368)
(0.000428223 0.00156118 0.00816795)
(0.00123066 0.000681819 0.00809823)
(0.00183038 -0.000756513 0.0078898)
(0.00209243 -0.00307514 0.00770766)
(0.00170809 -0.00681388 0.00758696)
(0.000368182 -0.0129231 0.0071711)
(-0.000847423 -0.0214302 0.00597381)
(-0.00459947 -0.0300034 0.00281915)
(-0.000475537 -0.0375388 -0.00411186)
(-0.00157119 -0.0353959 -0.00559852)
(0.000985191 -0.0275169 0.000985193)
(-0.00464913 -0.0203455 0.00306698)
(-0.00643529 -0.0144101 0.00337404)
(-0.00773302 -0.0100015 0.0026749)
(-0.00789894 -0.00725291 0.0019335)
(-0.00724056 -0.00542012 0.00143221)
(-0.00597532 -0.00392176 0.0014153)
(-0.00436038 -0.00249898 0.00195179)
(-0.00275285 -0.000994505 0.00291822)
(-0.00105688 -0.000238936 0.00340966)
(0.000800547 -0.00143936 0.00253126)
(0.00263965 -0.00294728 0.00196132)
(0.00407262 -0.00446753 0.00191652)
(0.00497144 -0.00637066 0.00221094)
(0.00514372 -0.00920829 0.00265095)
(0.00425346 -0.0135845 0.00313566)
(0.00302642 -0.0194527 0.0026668)
(-0.00199138 -0.0264787 -0.000100741)
(0.00143502 -0.0340731 -0.00658414)
(-0.00517539 -0.0266159 -0.00961723)
(-0.00561463 -0.0206679 -0.00561463)
(-0.0113214 -0.0163303 -0.00478376)
(-0.0133204 -0.0138523 -0.00542332)
(-0.0137958 -0.0123481 -0.00654137)
(-0.0127759 -0.0116752 -0.00747118)
(-0.0109088 -0.0114696 -0.00805608)
(-0.00850297 -0.0113789 -0.00818403)
(-0.00578266 -0.0111564 -0.00770703)
(-0.00342554 -0.0105133 -0.00650231)
(-0.000598741 -0.0103437 -0.00627058)
(0.00216234 -0.0107688 -0.00756339)
(0.00520486 -0.0109601 -0.00797578)
(0.00784074 -0.0110534 -0.00780896)
(0.00990238 -0.0112284 -0.00728136)
(0.0112213 -0.0118353 -0.00656152)
(0.0111381 -0.0132886 -0.00561778)
(0.00971604 -0.0157188 -0.00521883)
(0.00460115 -0.0199542 -0.00634638)
(0.00490004 -0.0258293 -0.0105263)
(-0.0114685 -0.0150795 -0.0165755)
(-0.0175038 -0.00946182 -0.0175038)
(-0.0241337 -0.0063056 -0.0203321)
(-0.0264035 -0.00451528 -0.0233913)
(-0.0265237 -0.00328784 -0.0263885)
(-0.0248129 -0.00232114 -0.0291769)
(-0.0216227 -0.00135421 -0.031532)
(-0.0171179 -0.000289847 -0.033215)
(-0.0114121 0.000877403 -0.0338558)
(-0.0058394 0.00217185 -0.0328046)
(0.00296121 0.00222835 -0.0326206)
(0.0087472 0.000780429 -0.0338704)
(0.014515 -0.000480478 -0.0331575)
(0.0191007 -0.00154064 -0.0314963)
(0.0224219 -0.00246269 -0.0291752)
(0.0243273 -0.00332839 -0.0264105)
(0.0244896 -0.00444167 -0.0235001)
(0.0226397 -0.0061093 -0.0205825)
(0.0165049 -0.00914162 -0.017962)
(0.0110507 -0.0146269 -0.0173173)
(0.000919963 -0.00199858 0.00466131)
(0.0031017 -0.00370361 0.00494493)
(0.00431491 -0.00448012 0.00431491)
(0.00526408 -0.00416768 0.00367807)
(0.00602722 -0.00311874 0.00316039)
(0.00651168 -0.00150467 0.00262815)
(0.00631445 -8.16107e-05 0.00234808)
(0.00512843 0.000702576 0.00230033)
(0.0030008 0.000795295 0.00228248)
(0.000532327 0.000529596 0.00216256)
(-0.00160517 7.6454e-05 0.00216668)
(-0.00283404 -0.000103108 0.00237228)
(-0.00377541 0.000246771 0.00234662)
(-0.00431031 -9.39403e-05 0.00205754)
(-0.00389631 -0.00166323 0.00184789)
(-0.00315031 -0.00357767 0.0015955)
(-0.00229412 -0.0043962 0.00107483)
(-0.0019337 -0.00355488 0.00123889)
(-0.00169991 -0.000423127 0.00218044)
(-0.000752383 0.00338382 0.00244163)
(0.00498372 -0.0020896 0.0147)
(0.00894507 0.000102706 0.0134685)
(0.0105768 0.00152392 0.0105768)
(0.00901606 0.000798241 0.00749745)
(0.00569573 -0.000979303 0.00501857)
(0.00311213 -0.00213656 0.00285126)
(0.00225711 -0.00164132 0.00183926)
(0.00223902 -0.000187604 0.00129112)
(0.00236131 0.000723696 0.000705389)
(0.00182771 0.000590226 0.000336927)
(0.000897616 -0.000141435 0.000299879)
(-0.000162813 -0.000759389 0.000647924)
(-0.000537513 -0.00109528 0.0011797)
(-0.000931262 -0.00184592 0.00156678)
(-0.00159294 -0.00189713 0.00288039)
(-0.00471039 0.000441996 0.00502675)
(-0.00845758 0.00303057 0.00785136)
(-0.0104744 0.00374409 0.0117301)
(-0.00897625 0.00161141 0.015036)
(-0.00512612 -0.00171415 0.0162598)
(0.00481818 -0.015532 0.0125195)
(0.0101292 -0.0106313 0.0143508)
(0.0142153 -0.00485488 0.0142153)
(0.0157624 0.000253384 0.012482)
(0.0139299 0.00249205 0.0100103)
(0.0101512 0.00199173 0.00754805)
(0.00601949 -9.40936e-05 0.0053112)
(0.00348654 -0.00110969 0.00300497)
(0.0026766 -0.00065683 0.000755591)
(0.00216597 7.93777e-05 -0.000696397)
(0.00130815 2.76835e-05 -0.000894324)
(-0.000211781 -0.000798506 0.000340527)
(-0.00180085 -0.000995878 0.00282438)
(-0.00450286 0.000286489 0.00492999)
(-0.00852403 0.00217011 0.00710165)
(-0.01231 0.00325009 0.00954926)
(-0.0142899 0.00244797 0.0120861)
(-0.013064 -0.00152637 0.0140671)
(-0.00918959 -0.00720019 0.0141795)
(-0.00420252 -0.0120495 0.0120363)
(0.00373604 -0.0225295 0.00483663)
(0.00887661 -0.0169266 0.00960284)
(0.011851 -0.0100474 0.011851)
(0.0139246 -0.00281024 0.012123)
(0.0143391 0.00207363 0.0111113)
(0.0127032 0.00364269 0.00962068)
(0.0100357 0.00320498 0.00794664)
(0.00696843 0.00200094 0.00586865)
(0.00407763 0.000805765 0.00311211)
(0.00204364 0.000845295 0.000122262)
(0.000552921 0.00127773 -0.000493378)
(-0.00177559 0.00136477 0.00261705)
(-0.00481218 0.00202017 0.00572652)
(-0.00818523 0.00327105 0.00780822)
(-0.011429 0.00422302 0.009574)
(-0.0136262 0.00334024 0.0112625)
(-0.0135845 -0.000631939 0.0124421)
(-0.0114065 -0.00749411 0.0120466)
(-0.00850438 -0.0141681 0.00940939)
(-0.00358018 -0.0195714 0.00420556)
(0.00287803 -0.027648 -0.00166467)
(0.00826015 -0.021279 0.00534629)
(0.00940948 -0.0140495 0.00940948)
(0.0101395 -0.00591636 0.0112551)
(0.0101649 0.000598773 0.0117501)
(0.00922933 0.00385577 0.0110761)
(0.0072913 0.00447114 0.00980293)
(0.00493168 0.00415066 0.00818585)
(0.00251972 0.00388813 0.00601355)
(0.000765027 0.00388193 0.00334461)
(-1.64651e-05 0.00417913 0.00270823)
(-0.00152277 0.00417561 0.0053815)
(-0.00395872 0.00446059 0.00791635)
(-0.00665739 0.00506471 0.00977009)
(-0.00903771 0.00481853 0.0112162)
(-0.0102722 0.00200786 0.0120362)
(-0.0102618 -0.00398607 0.0115017)
(-0.0094508 -0.0116028 0.00937335)
(-0.00829397 -0.0184086 0.0049022)
(-0.00295106 -0.0247635 -0.00235216)
(0.00164815 -0.0310845 -0.00579209)
(0.00772368 -0.0227714 0.00228763)
(0.00727693 -0.0150685 0.00727693)
(0.00684724 -0.00658142 0.00981472)
(0.00562719 0.000575584 0.0110121)
(0.00449804 0.00442278 0.0107464)
(0.00312864 0.00571201 0.00979404)
(0.00160769 0.00587658 0.00858053)
(0.000306911 0.00589819 0.00722213)
(-0.000350916 0.0060609 0.00574037)
(-0.000238249 0.00628924 0.00539321)
(-0.000799902 0.00612549 0.00690451)
(-0.00223497 0.00617157 0.00856591)
(-0.00393869 0.00635946 0.00994732)
(-0.00547011 0.00542906 0.010933)
(-0.00655501 0.00175894 0.0110495)
(-0.00755481 -0.00492308 0.00969871)
(-0.0077961 -0.0128127 0.00687572)
(-0.00801819 -0.0200445 0.00157437)
(-0.00174168 -0.0286838 -0.00649947)
(-0.000132823 -0.0327547 -0.00870276)
(0.006419 -0.0223823 -0.000635909)
(0.00461937 -0.0144109 0.00461937)
(0.00396689 -0.00618572 0.00734122)
(0.0023265 -0.0002033 0.00853358)
(0.00106784 0.0034539 0.00820518)
(0.000153883 0.0047233 0.0073679)
(-0.000596366 0.00500539 0.00659177)
(-0.00103287 0.00515977 0.00595349)
(-0.00106285 0.00549752 0.00530007)
(-0.000676467 0.00584984 0.00519527)
(-0.000656036 0.00581405 0.00600681)
(-0.00118079 0.00578894 0.00690384)
(-0.0019473 0.00569165 0.00765725)
(-0.00278994 0.00447734 0.00825011)
(-0.00386304 0.000890082 0.0082248)
(-0.00515161 -0.00482669 0.00678908)
(-0.0055465 -0.0123804 0.00387129)
(-0.00685504 -0.0199207 -0.00155094)
(8.23155e-05 -0.0307981 -0.00950373)
(-0.00256797 -0.0311756 -0.0118425)
(0.00306698 -0.0203455 -0.00464913)
(-3.90605e-05 -0.0122496 -3.90592e-05)
(-0.000628765 -0.0040457 0.00198316)
(-0.00154888 0.00225118 0.00264992)
(-0.00160651 0.00549076 0.00240734)
(-0.00175879 0.00684861 0.00166239)
(-0.00173472 0.00747988 0.00122732)
(-0.00156333 0.00788449 0.00122502)
(-0.00147667 0.00823886 0.00152845)
(-0.00130303 0.00842416 0.00169612)
(-0.00101906 0.00823674 0.00167193)
(-0.000785581 0.00789251 0.00179617)
(-0.000697232 0.00738237 0.00215967)
(-0.000729269 0.0061518 0.00255701)
(-0.000748038 0.00317736 0.00257412)
(-0.00109255 -0.0029001 0.00132195)
(-0.00119422 -0.0104411 -0.000934216)
(-0.00355083 -0.0186525 -0.0055064)
(0.0025268 -0.0297486 -0.0126774)
(-0.00649428 -0.0244775 -0.0161649)
(-0.00478376 -0.0163303 -0.0113214)
(-0.00865182 -0.0104186 -0.00865182)
(-0.00893784 -0.00673815 -0.00785065)
(-0.00862392 -0.00429903 -0.00810416)
(-0.00705439 -0.00318032 -0.0079398)
(-0.00540557 -0.00303308 -0.00780238)
(-0.00409039 -0.00310112 -0.00768633)
(-0.00303471 -0.00276645 -0.00726516)
(-0.00241271 -0.00133569 -0.00635239)
(-0.00165518 -0.00110303 -0.00614274)
(-0.000809812 -0.00224156 -0.00679255)
(0.000551475 -0.00243359 -0.00705951)
(0.00209602 -0.00225721 -0.00692887)
(0.00405004 -0.00234413 -0.00719523)
(0.00621944 -0.00351342 -0.00806736)
(0.00690812 -0.00590954 -0.00808286)
(0.00733312 -0.00957729 -0.0091386)
(0.0041136 -0.0154575 -0.0120257)
(0.00634428 -0.0236166 -0.0169283)
(-0.0139682 -0.0132764 -0.0231608)
(-0.0203321 -0.0063056 -0.0241337)
(-0.0269755 -0.00256514 -0.0269755)
(-0.0288067 -0.000410224 -0.0302455)
(-0.0284946 0.00110713 -0.033487)
(-0.0265649 0.00236478 -0.0366598)
(-0.0233232 0.00365701 -0.0395283)
(-0.018753 0.00507197 -0.041684)
(-0.0127397 0.00663079 -0.0425702)
(-0.00658247 0.00838186 -0.0412413)
(0.00393697 0.0083691 -0.0409972)
(0.0102484 0.00643357 -0.042447)
(0.0162855 0.0047846 -0.0414699)
(0.0209517 0.00339558 -0.039343)
(0.024359 0.00215454 -0.0364884)
(0.0265042 0.00101159 -0.0333702)
(0.0271111 -0.000366165 -0.0302681)
(0.0257132 -0.00236859 -0.0271722)
(0.0195474 -0.00596818 -0.0245254)
(0.0136478 -0.0128181 -0.0237753)
(0.000657413 -0.00447635 0.00495451)
(0.0023432 -0.00453537 0.00553837)
(0.00367807 -0.00416768 0.00526408)
(0.00487614 -0.00352351 0.00487614)
(0.00593523 -0.00268341 0.00450914)
(0.00666833 -0.00152472 0.00407402)
(0.00663712 -0.00051412 0.00384829)
(0.00566451 0.000353072 0.00387527)
(0.00356045 0.000727711 0.00401803)
(0.000772256 0.000646612 0.00406192)
(-0.00202126 0.000136228 0.00401423)
(-0.00349762 -0.00014045 0.00395902)
(-0.00448927 0.000128852 0.00358575)
(-0.00500683 -0.000137086 0.00308643)
(-0.00463257 -0.0012595 0.00276987)
(-0.00361836 -0.00283479 0.00232603)
(-0.00249683 -0.00386811 0.00159398)
(-0.00165777 -0.00441655 0.00121155)
(-0.000844007 -0.00403495 0.000900035)
(-0.000386374 -0.0023452 0.000257082)
(0.00373335 0.00201333 0.0123019)
(0.00641186 0.00168937 0.0114013)
(0.00749745 0.000798241 0.00901606)
(0.00640814 -0.000813743 0.00640814)
(0.00446879 -0.00232089 0.00441136)
(0.00334595 -0.00263294 0.00312637)
(0.00301787 -0.00194805 0.00263522)
(0.00317475 -0.000437557 0.00228766)
(0.00309303 0.000693745 0.00187554)
(0.00220629 0.00071644 0.00157607)
(0.00072911 -4.82571e-05 0.00156257)
(-0.000834834 -0.00064123 0.00185164)
(-0.00137959 -0.00100424 0.00219306)
(-0.00147936 -0.00181994 0.00228415)
(-0.00163236 -0.00240306 0.00284845)
(-0.0028558 -0.00155209 0.00406319)
(-0.00518405 0.00108807 0.00632519)
(-0.00674064 0.00337598 0.00974584)
(-0.00602221 0.00430062 0.0129418)
(-0.00383325 0.00418367 0.0140627)
(0.00495394 -0.00608134 0.0147707)
(0.00918408 -0.00291163 0.016491)
(0.012482 0.000253384 0.0157624)
(0.0132896 0.00227658 0.0132896)
(0.0115489 0.0024033 0.0103223)
(0.00834259 0.000786763 0.00758721)
(0.00516103 -0.00122022 0.00532896)
(0.00354314 -0.00157036 0.00337669)
(0.00304189 -0.000685764 0.00154677)
(0.00252857 0.000138291 0.0001701)
(0.00132019 0.000103985 -0.000101241)
(-0.000372202 -0.000768616 0.00108391)
(-0.00158169 -0.00146377 0.00315354)
(-0.0034199 -0.000753555 0.00506858)
(-0.00658583 0.00117391 0.0072588)
(-0.00985209 0.00291617 0.0100368)
(-0.0116706 0.0035918 0.0129965)
(-0.0110814 0.00268361 0.0155744)
(-0.00803705 0.000415372 0.0164879)
(-0.00419025 -0.00238928 0.014801)
(0.00451964 -0.0122905 0.00596499)
(0.00913909 -0.00724433 0.0113144)
(0.012123 -0.00281024 0.0139246)
(0.0139437 0.00138139 0.0139437)
(0.0139171 0.00361478 0.0124171)
(0.0122089 0.00373296 0.0104785)
(0.00956341 0.0026114 0.00841467)
(0.00650187 0.000961757 0.00602082)
(0.00392822 -3.33973e-05 0.00323383)
(0.00218326 0.00029145 0.000573553)
(0.00057387 0.000823097 4.35615e-05)
(-0.0017339 0.000750568 0.00290658)
(-0.00450723 0.0013283 0.0060643)
(-0.00766322 0.00269193 0.00843704)
(-0.0107004 0.0041141 0.0105336)
(-0.0128345 0.0044678 0.0126286)
(-0.0131852 0.00295653 0.0143122)
(-0.0115555 -0.000439497 0.0144069)
(-0.0087551 -0.00446146 0.011448)
(-0.00445297 -0.00918207 0.00580224)
(0.00369427 -0.0190147 -0.00253524)
(0.00937669 -0.0110961 0.00515753)
(0.0112551 -0.00591636 0.0101395)
(0.0124277 -0.000747429 0.0124277)
(0.0125455 0.00320937 0.0126584)
(0.011393 0.00479955 0.0116802)
(0.0092638 0.00451286 0.0101705)
(0.00667309 0.00347966 0.0082839)
(0.00396568 0.00249437 0.00567111)
(0.00168576 0.00197385 0.00252092)
(-0.000192226 0.00253996 0.00192695)
(-0.0023596 0.00311223 0.00512049)
(-0.00514153 0.00382971 0.00809107)
(-0.00808673 0.00495313 0.0102668)
(-0.0106337 0.00552673 0.0119666)
(-0.0120871 0.00434336 0.0130601)
(-0.0121536 0.000986074 0.0128239)
(-0.0111181 -0.00357353 0.0102659)
(-0.0093875 -0.00827103 0.00493225)
(-0.00383048 -0.0163432 -0.00290513)
(0.00179607 -0.0247161 -0.00761095)
(0.00901968 -0.0129448 0.000926339)
(0.00981472 -0.00658142 0.00684724)
(0.0100887 -0.000822222 0.0100887)
(0.00955029 0.00386906 0.0114512)
(0.00844907 0.00622525 0.0112441)
(0.00672861 0.00650812 0.0102328)
(0.00464198 0.00583679 0.00877922)
(0.00249992 0.0051392 0.00687763)
(0.000767332 0.0048463 0.00461385)
(-0.000618041 0.00518321 0.0042167)
(-0.00223389 0.00553452 0.00653374)
(-0.00444749 0.00619754 0.00875343)
(-0.00669835 0.00706709 0.0104185)
(-0.00856331 0.00704749 0.0115052)
(-0.00971714 0.00500416 0.0116233)
(-0.0102383 0.000876973 0.0101045)
(-0.0100382 -0.00422473 0.00659191)
(-0.00920682 -0.0102338 0.000472305)
(-0.00187212 -0.0224482 -0.0080532)
(-0.000693231 -0.0284521 -0.0110128)
(0.00743147 -0.0138725 -0.00232445)
(0.00734121 -0.00618572 0.00396689)
(0.00733501 -0.000418258 0.00733501)
(0.00635616 0.00405945 0.00882715)
(0.00540723 0.00636842 0.00899655)
(0.0042695 0.00662519 0.00842232)
(0.002858 0.00594052 0.00757758)
(0.00133514 0.00524446 0.0065597)
(-4.05905e-05 0.00509899 0.00534917)
(-0.00120889 0.005497 0.00525592)
(-0.00239372 0.00591673 0.00657173)
(-0.00384405 0.00663252 0.00777899)
(-0.00519633 0.00740283 0.0086564)
(-0.00627299 0.00722419 0.00909491)
(-0.00711783 0.00512302 0.00865344)
(-0.00787775 0.00118729 0.00683468)
(-0.00791726 -0.00408082 0.0033205)
(-0.00769171 -0.0115778 -0.00293848)
(0.000672099 -0.0265916 -0.0115607)
(-0.00364036 -0.0288445 -0.0144832)
(0.00337404 -0.0144101 -0.00643529)
(0.00198316 -0.0040457 -0.000628764)
(0.00288048 0.00326195 0.00288048)
(0.00237865 0.00685721 0.00429765)
(0.00221834 0.00843187 0.00450279)
(0.00198584 0.00869131 0.00419343)
(0.00148139 0.00857935 0.00384378)
(0.000751071 0.00855764 0.00359518)
(-0.000577471 0.00878307 0.00344898)
(-0.00214102 0.00897547 0.00355861)
(-0.00305168 0.00891158 0.00385816)
(-0.00354781 0.00898939 0.00415329)
(-0.00378687 0.00914694 0.0044334)
(-0.00379995 0.00888811 0.00450052)
(-0.00374155 0.00744316 0.0039626)
(-0.00398717 0.00438096 0.00217916)
(-0.00298147 -0.00198325 -0.00134031)
(-0.00371409 -0.0125848 -0.00708008)
(0.00362533 -0.0274564 -0.0150738)
(-0.00793883 -0.0236898 -0.0188262)
(-0.00542332 -0.0138523 -0.0133204)
(-0.00785065 -0.00673815 -0.00893784)
(-0.00602183 -0.00215656 -0.00602183)
(-0.00519552 0.000522946 -0.00532967)
(-0.00396075 0.00100118 -0.00559837)
(-0.00281518 0.000452941 -0.00605984)
(-0.00203849 -0.000160465 -0.0063014)
(-0.0016001 -0.000233402 -0.00602329)
(-0.00188702 0.00119161 -0.00514696)
(-0.00223984 0.00124887 -0.00498057)
(-0.00215591 1.75296e-05 -0.0055785)
(-0.00133507 0.000226179 -0.00571514)
(-6.53013e-05 0.000995351 -0.00550364)
(0.0016286 0.00162645 -0.00534464)
(0.00333042 0.00125143 -0.00548009)
(0.00408777 -0.00118817 -0.00601282)
(0.00674897 -0.00580783 -0.00929077)
(0.00489755 -0.0129773 -0.0138293)
(0.00781934 -0.0228465 -0.0193673)
(-0.0163184 -0.0125081 -0.0256034)
(-0.0233913 -0.00451528 -0.0264035)
(-0.0302455 -0.000410224 -0.0288067)
(-0.0316048 0.00189156 -0.0316048)
(-0.03069 0.00351748 -0.0344551)
(-0.028596 0.00489983 -0.0377507)
(-0.0254719 0.00641087 -0.0411989)
(-0.0209939 0.00817277 -0.044279)
(-0.0146534 0.0102241 -0.0461445)
(-0.00765829 0.0125945 -0.0454284)
(0.00537573 0.012525 -0.0452607)
(0.0124746 0.0100078 -0.0460362)
(0.0188217 0.00789789 -0.0440948)
(0.0233505 0.00614406 -0.0409291)
(0.0265897 0.00469153 -0.0374303)
(0.0288285 0.00342293 -0.0341627)
(0.0300414 0.00194033 -0.0314657)
(0.0291311 -0.000240906 -0.0288715)
(0.022732 -0.00421016 -0.0266444)
(0.016042 -0.0120806 -0.0260217)
(0.000192935 -0.00340981 0.00490609)
(0.00167713 -0.0033757 0.00583896)
(0.00316039 -0.00311874 0.00602722)
(0.00450914 -0.00268341 0.00593523)
(0.00572739 -0.00209912 0.00572739)
(0.00660282 -0.00147169 0.00543738)
(0.0068151 -0.000766581 0.00534854)
(0.00607894 7.79731e-05 0.00554061)
(0.00407112 0.000670234 0.0059392)
(0.00103536 0.00078183 0.00629718)
(-0.00254357 0.00019118 0.00619383)
(-0.00425243 -0.000206245 0.00568242)
(-0.00524307 -7.62486e-05 0.00487828)
(-0.00565169 -0.000300645 0.00413563)
(-0.0053159 -0.000951806 0.00365231)
(-0.00432794 -0.00192566 0.00315769)
(-0.00309773 -0.00302422 0.00239664)
(-0.0020475 -0.00367735 0.001764)
(-0.00106577 -0.00413186 0.00112471)