/*--------------------------------*- C++ -*----------------------------------*\
  =========                 |
  \\      /  F ield         | OpenFOAM: The Open Source CFD Toolbox
   \\    /   O peration     | Website:  https://openfoam.org
    \\  /    A nd           | Version:  9
     \\/     M anipulation  |
\*---------------------------------------------------------------------------*/
FoamFile
{
    format      ascii;
    class       volScalarField;
    location    "380";
    object      p;
}
// * * * * * * * * * * * * * * * * * * * * * * * * * * * * * * * * * * * * * //

dimensions      [0 2 -2 0 0 0 0];

internalField   nonuniform List<scalar> 
10720
(
-61.6268
-73.3955
-86.3014
-97.1351
-104.962
-111.524
-115.515
-117.022
-116.809
-114.414
-110.13
-104.365
-97.4764
-89.9127
-82.2297
-75.0564
-69.1387
-64.8976
-62.252
-60.464
-59.0769
-58.0536
-57.3628
-56.8585
-56.4051
-55.9892
-55.5479
-54.7158
-52.8666
-49.6152
-45.4754
-42.3138
-40.7991
-40.4768
-43.4418
-45.9358
-44.5216
-39.1692
-34.589
-48.2735
-35.4613
-19.8072
-3.48241
12.5638
27.5325
40.5738
50.8654
58.064
62.292
64.0899
64.4606
63.8434
62.4694
60.6214
58.4685
56.1308
53.6526
51.055
48.318
45.4424
42.3942
39.1721
35.8218
32.5736
29.588
26.762
24.0721
21.537
19.1721
16.9877
14.947
13.0492
11.2827
9.61139
8.01358
6.46426
5.27869
4.55403
-28.2743
-38.2828
-48.4278
-57.947
-66.6496
-74.672
-81.3483
-86.2335
-89.3494
-90.7513
-90.6327
-89.1314
-86.3534
-82.4713
-77.7931
-72.7814
-68.1425
-64.437
-61.9019
-60.149
-58.8585
-57.9073
-57.2597
-56.7832
-56.3387
-55.9216
-55.4855
-54.6768
-52.8667
-49.6571
-45.5321
-42.351
-40.7895
-40.4628
-43.4161
-45.9303
-44.5929
-39.4394
-34.7624
-18.6429
-8.9784
1.34089
12.3459
23.3914
34.0118
43.6033
51.554
57.4857
61.2843
63.1831
63.7049
63.2414
62.0785
60.4268
58.4335
56.2084
53.8094
51.2655
48.5744
45.7376
42.7363
39.5735
36.2984
33.0941
30.1002
27.2519
24.5322
21.9623
19.559
17.3337
15.2533
13.3176
11.5161
9.81524
8.19537
6.63398
5.43262
4.69622
-21.9926
-31.0885
-40.3492
-49.6014
-58.2334
-66.0539
-72.7139
-77.8518
-81.4366
-83.519
-84.1089
-83.2864
-81.1941
-78.0523
-74.186
-70.0474
-66.2436
-63.2157
-61.1067
-59.66
-58.5818
-57.7412
-57.1532
-56.717
-56.2942
-55.8788
-55.4443
-54.6598
-52.8943
-49.7319
-45.6229
-42.4131
-40.7755
-40.4421
-43.406
-45.9289
-44.6373
-39.674
-34.9338
-13.1184
-3.82957
6.08945
16.3472
26.3593
35.8106
44.254
51.2367
56.5018
59.9918
61.9101
62.6097
62.3767
61.441
59.9838
58.1451
56.0345
53.7204
51.2406
48.6038
45.8145
42.8641
39.7581
36.5421
33.3648
30.3608
27.5018
24.7715
22.1891
19.7702
17.5273
15.43
13.4775
11.6604
9.94713
8.31965
6.75712
5.55522
4.81966
-11.8306
-19.7467
-27.9938
-36.2129
-44.0873
-51.5108
-58.1658
-63.8081
-68.34
-71.6745
-73.7296
-74.4929
-74.0334
-72.5028
-70.1304
-67.2416
-64.3066
-61.8323
-60.1249
-59.0264
-58.221
-57.5317
-57.0184
-56.6338
-56.2471
-55.8464
-55.4162
-54.657
-52.9431
-49.8309
-45.7321
-42.4894
-40.7656
-40.4312
-43.412
-45.9455
-44.6846
-39.8393
-35.0169
-4.25065
3.47972
11.7131
20.3578
28.8557
36.9786
44.3393
50.5167
55.2641
58.5219
60.455
61.3139
61.2996
60.593
59.3511
57.6998
55.7421
53.5495
51.1652
48.6066
45.8838
42.9974
39.9565
36.8041
33.6661
30.6692
27.809
25.0712
22.4749
20.0368
17.7707
15.6505
13.6745
11.8355
10.1038
8.46413
6.8965
5.69171
4.9529
-6.61663
-13.8257
-21.3803
-29
-36.375
-43.4789
-50.0263
-55.7605
-60.5204
-64.2134
-66.765
-68.1673
-68.4756
-67.8119
-66.3704
-64.4226
-62.2971
-60.3625
-58.9651
-58.1474
-57.6611
-57.2206
-56.8383
-56.5187
-56.1743
-55.8016
-55.3879
-54.6589
-53.0051
-49.9513
-45.861
-42.5734
-40.7632
-40.4325
-43.429
-45.9813
-44.755
-39.965
-35.0451
0.305629
7.3271
14.7784
22.5449
30.1213
37.3625
43.96
49.536
53.8723
56.9408
58.8844
59.8778
60.0625
59.579
58.5571
57.1058
55.3183
53.2657
50.9945
48.5303
45.8881
43.0763
40.1073
37.0233
33.9318
30.9501
28.0924
25.3507
22.7441
20.2905
18.0049
15.8647
13.8682
12.0095
10.2617
8.61136
7.03992
5.8367
5.0874
-2.24197
-8.75756
-15.6547
-22.6263
-29.4278
-36.0783
-42.307
-47.9035
-52.7409
-56.7271
-59.7984
-61.9041
-63.0389
-63.2584
-62.6969
-61.5743
-60.1732
-58.7827
-57.684
-57.0588
-56.8449
-56.729
-56.5727
-56.3589
-56.0675
-55.7344
-55.3512
-54.6561
-53.066
-50.0791
-45.9985
-42.6571
-40.7711
-40.4485
-43.4469
-46.0281
-44.8483
-40.0802
-35.0509
4.00402
10.2889
16.9752
23.9606
30.7693
37.3036
43.2938
48.387
52.3835
55.2954
57.2437
58.344
58.7014
58.4243
57.6174
56.3715
54.768
52.8732
50.7344
48.3822
45.8366
43.1114
40.2232
37.213
34.1754
31.2176
28.3692
25.6286
23.016
20.5498
18.2463
16.0872
14.0703
12.1921
10.4275
8.76652
7.19108
5.98908
5.23225
0.801783
-5.18097
-11.5457
-18.0016
-24.3185
-30.5671
-36.4901
-41.9055
-46.7163
-50.8005
-54.1066
-56.5904
-58.2349
-59.0706
-59.1899
-58.7509
-57.9794
-57.1143
-56.3561
-55.8938
-55.8395
-56.0131
-56.1555
-56.1213
-55.912
-55.6317
-55.294
-54.6413
-53.1187
-50.2101
-46.143
-42.7312
-40.7837
-40.4707
-43.4648
-46.0861
-44.9732
-40.2181
-35.0823
6.53703
12.2733
18.3801
24.7606
30.9661
36.9374
42.4393
47.1331
50.8458
53.6251
55.5683
56.7497
57.2521
57.159
56.5544
55.5107
54.0966
52.3708
50.3792
48.1537
45.7187
43.0918
40.2936
37.3638
34.3875
31.4632
28.6314
25.8977
23.2835
20.8082
18.4894
16.3129
14.2768
12.3796
10.5985
8.92655
7.34656
6.14804
5.37594
3.12312
-2.40145
-8.29706
-14.2862
-20.1611
-26.0138
-31.612
-36.7945
-41.4879
-45.5793
-49.0202
-51.7804
-53.8259
-55.1593
-55.837
-55.973
-55.7415
-55.3522
-54.969
-54.714
-54.7537
-55.106
-55.5393
-55.7584
-55.6887
-55.4848
-55.206
-54.6039
-53.1481
-50.3247
-46.2769
-42.7816
-40.791
-40.4939
-43.4785
-46.1496
-45.1223
-40.3912
-35.1541
8.40435
13.6696
19.2873
25.1585
30.8668
36.3739
41.4674
45.8208
49.2948
51.9589
53.8856
55.125
55.7445
55.8107
55.39
54.5394
53.3138
51.7635
49.9294
47.8436
45.5315
43.0148
40.3156
37.4736
34.566
31.6846
28.8771
26.1564
23.5454
21.0648
18.7334
16.5416
14.4878
12.5724
10.7753
9.09305
7.50876
6.3127
5.5301
4.83994
-0.283756
-5.77724
-11.3649
-16.8478
-22.3443
-27.6329
-32.5754
-37.1191
-41.1576
-44.6403
-47.5537
-49.8618
-51.5561
-52.6672
-53.2731
-53.4991
-53.5173
-53.4899
-53.4972
-53.6472
-54.0839
-54.7255
-55.2237
-55.3613
-55.2737
-55.0702
-54.5303
-53.1458
-50.4151
-46.3932
-42.7989
-40.7743
-40.5043
-43.4958
-46.2247
-45.308
-40.6164
-35.3054
9.74798
14.6203
19.8245
25.2723
30.5619
35.6786
40.4237
44.4836
47.7541
50.3148
52.2155
53.4923
54.2036
54.4042
54.1465
53.4747
52.4314
51.0572
49.3867
47.4497
45.2714
42.8751
40.284
37.5374
34.7063
31.8772
29.1021
26.4012
23.7987
21.3172
18.9768
16.7719
14.7019
12.7694
10.9567
9.26379
7.67453
6.48153
5.68054
6.14003
1.35809
-3.78092
-9.01117
-14.1472
-19.3141
-24.311
-29.0124
-33.3839
-37.3293
-40.7984
-43.7901
-46.2729
-48.233
-49.6807
-50.6663
-51.2809
-51.6516
-51.9296
-52.2077
-52.5223
-53.0137
-53.7616
-54.5003
-54.8939
-54.9768
-54.8715
-54.4022
-53.0897
-50.4556
-46.4684
-42.7668
-40.7166
-40.4997
-43.5143
-46.3086
-45.5202
-40.8921
-35.5237
10.7192
15.2493
20.1033
25.1841
30.1169
34.8974
39.3396
43.144
46.2395
48.7043
50.5713
51.8681
52.649
52.96
52.8441
52.3341
51.4629
50.2609
48.7562
46.9738
44.9379
42.6706
40.1963
37.5522
34.8058
32.0379
29.3039
26.6294
24.0414
21.5636
19.2178
17.0026
14.9186
12.9703
11.143
9.44036
7.84642
6.65424
5.83893
7.11669
2.63272
-2.19355
-7.10795
-11.9317
-16.8031
-21.5277
-25.9988
-30.1911
-34.0211
-37.439
-40.4503
-43.0362
-45.1803
-46.8806
-48.1661
-49.1031
-49.783
-50.3245
-50.8402
-51.354
-51.9261
-52.7112
-53.6065
-54.2566
-54.5588
-54.5855
-54.1995
-52.9626
-50.4291
-46.4871
-42.6769
-40.6027
-40.4698
-43.5465
-46.4128
-45.7746
-41.2345
-35.8445
11.4059
15.6447
20.1885
24.9527
29.5748
34.0623
38.2351
41.8166
44.7595
47.1339
48.9602
50.2639
51.0954
51.4956
51.4999
51.134
50.4215
49.3844
48.0435
46.4185
44.5302
42.3994
40.0491
37.5147
34.8605
32.1627
29.4783
26.8377
24.2703
21.8015
19.4545
17.2321
15.1364
13.1738
11.3327
9.61994
8.02057
6.82812
5.9912
7.84211
3.62684
-0.921009
-5.55368
-10.0991
-14.6987
-19.1736
-23.4244
-27.4375
-31.1386
-34.4821
-37.475
-40.1115
-42.3778
-44.2633
-45.7814
-46.9786
-47.9241
-48.7016
-49.4161
-50.1213
-50.8166
-51.6223
-52.5873
-53.4452
-53.9893
-54.1857
-53.8982
-52.7388
-50.305
-46.4217
-42.5131
-40.4239
-40.415
-43.5901
-46.5355
-46.0592
-41.6379
-36.2434
11.8822
15.8591
20.1339
24.6171
28.967
33.194
37.1259
40.5116
43.3184
45.6064
47.388
48.6879
49.554
50.0242
50.1293
49.8894
49.3209
48.4388
47.2565
45.7884
44.0508
42.0618
39.8415
37.4235
34.8684
32.2494
29.623
27.0238
24.4834
22.029
19.6854
17.4592
15.3544
13.3796
11.526
9.80434
8.19997
7.00418
6.14864
8.3794
4.39907
0.101736
-4.27722
-8.57047
-12.9253
-17.1685
-21.212
-25.0507
-28.6169
-31.8723
-34.822
-37.4696
-39.8075
-41.8226
-43.5174
-44.9211
-46.0864
-47.0739
-47.9622
-48.8272
-49.666
-50.5166
-51.4941
-52.4795
-53.2454
-53.639
-53.4725
-52.3979
-50.0583
-46.2509
-42.2671
-40.1755
-40.3255
-43.6597
-46.6909
-46.3925
-42.1186
-36.755
12.1914
15.9399
19.9722
24.2067
28.3136
32.3082
36.0234
39.2345
41.9179
44.1226
45.857
47.1443
48.0323
48.5564
48.7447
48.6132
48.1736
47.4343
46.4033
45.0886
43.5022
41.6576
39.5722
37.2761
34.827
32.2943
29.7343
27.184
24.6773
22.2432
19.9078
17.6817
15.5708
13.5857
11.7209
9.99018
8.38002
7.17856
6.29792
8.76445
4.9984
0.926461
-3.22329
-7.28904
-11.4183
-15.4497
-19.2993
-22.97
-26.4003
-29.5596
-32.4486
-35.0786
-37.4496
-39.5505
-41.375
-42.9391
-44.2812
-45.4486
-46.4942
-47.4892
-48.46
-49.389
-50.3648
-51.3988
-52.3274
-52.9196
-52.895
-51.9157
-49.6618
-45.9469
-41.9251
-39.8596
-40.2059
-43.7507
-46.8755
-46.7607
-42.6661
-37.3468
12.3735
15.915
19.7318
23.7419
27.6306
31.4134
34.9338
37.9893
40.5589
42.6837
44.3687
45.6372
46.5364
47.1006
47.3562
47.3169
46.9907
46.3818
45.4927
44.326
42.8886
41.1895
39.2421
37.0725
34.7351
32.2961
29.8103
27.3165
24.8503
22.4424
20.1204
17.8985
15.7849
13.7921
11.9179
10.1794
8.56407
7.35338
6.44835
9.03096
5.45756
1.59143
-2.34945
-6.20753
-10.1326
-13.967
-17.6356
-21.1467
-24.4426
-27.5009
-30.3181
-32.9097
-35.286
-37.4372
-39.3524
-41.0378
-42.5193
-43.8344
-45.0208
-46.1281
-47.204
-48.2267
-49.2181
-50.2479
-51.2581
-52.0145
-52.143
-51.2724
-49.1006
-45.4902
-41.4823
-39.4783
-40.0532
-43.8782
-47.1035
-47.1845
-43.2964
-38.0488
12.4553
15.8107
19.4314
23.2378
26.9281
30.5184
33.8622
36.7776
39.2415
41.2885
42.9227
44.1675
45.0695
45.6628
45.9718
46.0102
45.7828
45.2911
44.5331
43.5071
42.2143
40.6598
38.8517
36.812
34.5908
32.2519
29.8476
27.4176
24.9987
22.6234
20.3203
18.1071
15.9943
13.9962
12.1143
10.3681
8.74694
7.52395
6.58879
9.20243
5.80628
2.12737
-1.62297
-5.29205
-9.02707
-12.6804
-16.1807
-19.5396
-22.7051
-25.6603
-28.3995
-30.9385
-33.2982
-35.4719
-37.4455
-39.2188
-40.8078
-42.2402
-43.5459
-44.7547
-45.9122
-47.0198
-48.052
-49.0606
-50.0777
-50.9342
-51.205
-50.4528
-48.3692
-44.8689
-40.9354
-39.0362
-39.8814
-44.0334
-47.3698
-47.6502
-43.9959
-38.8184
12.4585
15.6442
19.0859
22.7071
26.216
29.6284
32.8128
35.6007
37.9654
39.9368
41.5197
42.737
43.6349
44.2472
44.5983
44.7008
44.5589
44.1713
43.5333
42.6391
41.4853
40.0724
38.4034
36.4956
34.3946
32.1612
29.845
27.486
25.1212
22.7847
20.5062
18.3064
16.1984
14.1983
12.3107
10.5585
8.93198
7.69337
6.72662
9.29821
6.06342
2.55723
-1.01735
-4.51214
-8.07337
-11.5583
-14.9007
-18.1162
-21.1562
-24.0075
-26.6654
-29.1437
-31.4703
-33.6442
-35.6499
-37.4828
-39.1516
-40.675
-42.077
-43.3759
-44.601
-45.7731
-46.8584
-47.8568
-48.8319
-49.712
-50.0888
-49.4555
-47.4709
-44.0884
-40.2906
-38.5395
-39.6984
-44.229
-47.6898
-48.181
-44.7803
-39.6873
12.3995
15.43
18.7079
22.1577
25.5008
28.75
31.7873
34.4575
36.7287
38.627
40.1584
41.345
42.2338
42.8574
43.2405
43.3956
43.3268
43.0308
42.5014
41.7291
40.7072
39.4311
37.8995
36.1238
34.1458
32.0221
29.8001
27.5183
25.2143
22.9229
20.6749
18.4935
16.3943
14.3953
12.504
10.7462
9.11361
7.85628
6.85292
9.33302
6.24778
2.90103
-0.512059
-3.84602
-7.24538
-10.5743
-13.7697
-16.8491
-19.7684
-22.5165
-25.0925
-27.505
-29.787
-31.9433
-33.9595
-35.8285
-37.5531
-39.1444
-40.6205
-41.9944
-43.2793
-44.4968
-45.6299
-46.6383
-47.5579
-48.3957
-48.8232
-48.2964
-46.4205
-43.1682
-39.5613
-38.0041
-39.527
-44.4522
-48.0575
-48.7646
-45.6407
-40.6374
12.2914
15.179
18.305
21.5982
24.7873
27.8847
30.7866
33.3469
35.5298
37.3578
38.8379
39.9923
40.8674
41.4961
41.9026
42.1003
42.0929
41.877
41.4447
40.7843
39.8861
38.7412
37.3436
35.6993
33.8454
31.835
29.7121
27.5136
25.2768
23.0368
20.8252
18.6674
16.5816
14.5872
12.6951
10.933
9.29541
8.01604
6.9726
9.31862
6.37155
3.173
-0.0893226
-3.27433
-6.52396
-9.70686
-12.7642
-15.7157
-18.5195
-21.167
-23.6607
-26.0042
-28.2328
-30.3579
-32.3683
-34.2538
-36.0137
-37.6534
-39.1845
-40.6168
-41.9536
-43.2056
-44.3712
-45.4019
-46.2793
-47.0375
-47.4565
-47.0113
-45.2487
-42.1429
-38.7723
-37.4548
-39.3872
-44.7185
-48.487
-49.4246
-46.6002
-41.7145
12.1446
14.8996
17.886
21.0321
24.0786
27.0359
29.8103
32.2675
34.3664
36.1269
37.5562
38.6773
39.5356
40.1642
40.5873
40.8191
40.8631
40.7165
40.3702
39.8117
39.0279
38.0071
36.7387
35.2239
33.4944
31.5994
29.5795
27.4696
25.3057
23.123
20.9537
18.8249
16.7568
14.7708
12.8803
11.1147
9.47142
8.16733
7.07952
9.26482
6.44688
3.38614
0.263666
-2.78247
-5.89167
-8.93857
-11.8666
-14.697
-17.3905
-19.9402
-22.3519
-24.6242
-26.7933
-28.8779
-30.8692
-32.7557
-34.5336
-36.2042
-37.7734
-39.2481
-40.6267
-41.9071
-43.0906
-44.1425
-45.0021
-45.6771
-46.0435
-45.6494
-44.0041
-41.0653
-37.9655
-36.9335
-39.3071
-45.0159
-48.9682
-50.1488
-47.661
-42.9154
11.967
14.5993
17.4542
20.4651
23.3775
26.2023
28.8591
31.2187
33.2376
34.9332
36.3129
37.3996
38.2386
38.863
39.297
39.5552
39.6421
39.5547
39.2842
38.8172
38.1388
37.2344
36.0896
34.701
33.0948
31.3163
29.4024
27.3856
25.3
23.1805
21.0594
18.965
16.9196
14.9461
13.0602
11.2931
9.64469
8.31352
7.17689
9.17881
6.48138
3.55019
0.559123
-2.35735
-5.3357
-8.25455
-11.0611
-13.7769
-16.3651
-18.8206
-21.1511
-23.3516
-25.4575
-27.4944
-29.4564
-31.3312
-33.1124
-34.799
-36.3924
-37.8954
-39.3044
-40.6086
-41.8019
-42.8655
-43.7271
-44.3416
-44.6375
-44.2684
-42.7454
-39.9998
-37.1989
-36.4905
-39.309
-45.362
-49.5144
-50.9525
-48.8457
-44.2683
11.7657
14.2826
17.0162
19.898
22.685
25.3871
27.9325
30.1996
32.1421
33.7746
35.1059
36.1579
36.9761
37.5928
38.033
38.3113
38.4334
38.3963
38.1922
37.8068
37.2245
36.4282
35.4007
34.1334
32.6484
30.9862
29.1804
27.26
25.2575
23.2064
21.1391
19.0844
17.0666
15.1094
13.2311
11.4639
9.80972
8.44961
7.2607
9.06755
6.48358
3.67361
0.805649
-1.98897
-4.84384
-7.64286
-10.3346
-12.9416
-15.4296
-17.7939
-20.0449
-22.1739
-24.2148
-26.199
-28.1236
-29.9762
-31.7487
-33.4385
-35.0439
-36.5631
-37.9911
-39.313
-40.5129
-41.5786
-42.4504
-43.0384
-43.2744
-42.9192
-41.5295
-39.009
-36.5312
-36.1714
-39.4093
-45.7442
-50.1128
-51.8188
-50.1465
-45.753
11.5457
13.9551
16.5728
19.3351
22.0027
24.5883
27.0307
29.2099
31.0786
32.6506
33.9342
34.9515
35.7472
36.3538
36.796
37.0894
37.2397
37.2454
37.0988
36.7859
36.2904
35.5939
34.6763
33.5253
32.1582
30.6113
28.9143
27.0931
25.1776
23.1999
21.1917
19.1822
17.1968
15.2607
13.3933
11.6281
9.96915
8.57828
7.33259
8.93569
6.45825
3.76319
1.01175
-1.66853
-4.40735
-7.09267
-9.67609
-12.1801
-14.572
-16.8485
-19.0209
-21.0797
-23.0559
-24.9838
-26.8648
-28.687
-30.4414
-32.1238
-33.7306
-35.2562
-36.6934
-38.0263
-39.2321
-40.2956
-41.1767
-41.7694
-41.9773
-41.6428
-40.4041
-38.1476
-36.0164
-36.015
-39.6241
-46.1822
-50.775
-52.7553
-51.557
-47.3616
11.3115
13.6193
16.1293
18.7761
21.3316
23.809
26.153
28.2484
30.0456
31.559
32.7959
33.7788
34.5511
35.1458
35.5868
35.8906
36.0635
36.1051
36.008
35.7591
35.3415
34.7363
33.921
32.8804
31.6269
30.1931
28.6047
26.8842
25.0588
23.1588
21.2144
19.2553
17.3071
15.3962
13.5432
11.7819
10.118
8.69541
7.39143
8.78808
6.4116
3.82477
1.18312
-1.38879
-4.01744
-6.59583
-9.07635
-11.4821
-13.7824
-15.9744
-18.0697
-20.0601
-21.9722
-23.8416
-25.674
-27.4595
-29.188
-30.8542
-32.4533
-33.977
-35.4153
-36.7524
-37.963
-39.0246
-39.9117
-40.5291
-40.7497
-40.4588
-39.3955
-37.4465
-35.6864
-36.0394
-39.9546
-46.6624
-51.4836
-53.7462
-53.044
-49.0767
11.0669
13.279
15.6853
18.2252
20.6732
23.0469
25.2996
27.3144
29.043
30.4992
31.6906
32.6389
33.3874
33.9681
34.4054
34.7157
34.9067
34.9776
34.9232
34.7302
34.3824
33.86
33.1396
32.2027
31.058
29.7341
28.2531
26.6342
24.9013
23.0823
21.2065
19.3026
17.3966
15.5153
13.6806
11.9257
10.258
8.80259
7.43774
8.62754
6.34673
3.86305
1.32597
-1.14328
-3.66807
-6.14426
-8.52699
-10.8396
-13.052
-15.1626
-17.183
-19.1066
-20.9555
-22.7651
-24.5457
-26.2896
-27.9865
-29.6298
-31.2136
-32.7286
-34.1618
-35.4974
-36.7106
-37.7743
-38.667
-39.3187
-39.5903
-39.3759
-38.5135
-36.9163
-35.5566
-36.2549
-40.4079
-47.2007
-52.2454
-54.7925
-54.5853
-50.9037
10.8147
12.9358
15.2454
17.681
20.0279
22.3049
24.469
26.4066
28.0687
29.4694
30.6163
31.5305
32.2548
32.8204
33.2517
33.5659
33.7698
33.8657
33.8472
33.703
33.4171
32.9695
32.3361
31.4961
30.4548
29.2368
27.8612
26.3433
24.7043
22.9694
21.1659
19.3214
17.4622
15.6149
13.802
12.056
10.3851
8.897
7.47264
8.45786
6.26823
3.88219
1.44427
-0.927406
-3.35267
-5.73215
-8.02194
-10.2451
-12.3734
-14.4056
-16.3534
-18.2116
-19.9982
-21.7476
-23.4743
-25.1734
-26.8342
-28.4491
-30.0116
-31.5117
-32.9352
-34.2648
-35.4783
-36.5476
-37.4494
-38.1384
-38.4887
-38.3861
-37.7461
-36.5362
-35.6066
-36.64
-40.964
-47.777
-53.035
-55.8744
-56.1472
-52.8566
10.5575
12.5926
14.8084
17.1469
19.3966
21.5801
23.6611
25.5245
27.1222
28.4691
29.5723
30.453
31.1526
31.7022
32.1262
32.4406
32.6549
32.7701
32.7825
32.6804
32.4491
32.0687
31.5146
30.7646
29.8208
28.7043
27.431
26.0131
24.4685
22.8196
21.0917
19.3109
17.5028
15.6939
13.9066
12.1724
10.4998
8.97901
7.49519
8.28094
6.17784
3.88562
1.54255
-0.736022
-3.06715
-5.35383
-7.55457
-9.69249
-11.7401
-13.6969
-15.5744
-17.3688
-19.094
-20.7832
-22.4552
-24.1072
-25.7286
-27.311
-28.8475
-30.328
-31.7378
-33.0587
-34.2702
-35.3478
-36.2656
-36.9941
-37.439
-37.48
-37.0781
-36.2745
-35.8026
-37.1686
-41.6128
-48.3953
-53.8491
-56.9777
-57.7053
-54.9177
10.2974
12.2501
14.378
16.6215
18.7794
20.8753
22.8747
24.6664
26.2019
27.4965
28.5573
29.4047
30.0797
30.6129
31.0274
31.3411
31.5616
31.6932
31.7304
31.6652
31.4816
31.1611
30.6789
30.0119
29.1594
28.1394
26.9648
25.6449
24.1943
22.6327
20.9828
19.2691
17.5161
15.7494
13.9916
12.2721
10.5994
9.04744
7.50771
8.0995
6.07947
3.87624
1.62377
-0.566098
-2.80626
-5.00475
-7.12072
-9.17644
-11.1465
-13.0306
-14.84
-16.572
-18.2371
-19.8669
-21.4838
-23.0873
-24.6667
-26.2134
-27.7204
-29.1776
-30.5705
-31.8807
-33.0885
-34.1754
-35.1158
-35.8868
-36.4312
-36.6388
-36.4834
-36.0823
-36.0803
-37.7797
-42.3082
-49.0203
-54.6485
-58.0693
-59.2173
-57.0394
10.036
11.9105
13.9526
16.1076
18.1767
20.1872
22.1099
23.8323
25.3075
26.5512
27.5705
28.3853
29.0358
29.5516
29.9562
30.2662
30.4917
30.6347
30.6938
30.6589
30.5173
30.2499
29.8326
29.2417
28.4741
27.5452
26.4651
25.2404
23.8828
22.4088
20.8389
19.1951
17.5008
15.7804
14.0556
12.3539
10.6831
9.10142
7.50751
7.91459
5.97384
3.8566
1.69115
-0.413417
-2.56757
-4.68094
-6.71494
-8.6924
-10.5878
-12.4016
-14.145
-15.8162
-17.4224
-18.9938
-20.5559
-22.11
-23.6458
-25.1545
-26.6292
-28.0602
-29.4339
-30.732
-31.9356
-33.0318
-33.9999
-34.8184
-35.4611
-35.8468
-35.9426
-35.9204
-36.3803
-38.4176
-43.0152
-49.6359
-55.4127
-59.1129
-60.6425
-59.1098
9.77503
11.5741
13.5357
15.6032
17.5885
19.5186
21.3654
23.0207
24.4375
25.6318
26.6105
27.3933
28.0197
28.518
28.9113
29.2168
29.4442
29.5968
29.6725
29.6642
29.5586
29.3381
28.9789
28.4572
27.7682
26.9247
25.9346
24.8018
23.5351
22.1485
20.6594
19.0879
17.4553
15.7846
14.0965
12.4157
10.7493
9.14099
7.49842
7.72844
5.8641
3.82879
1.74681
-0.276262
-2.34654
-4.37865
-6.33459
-8.23591
-10.0593
-11.8052
-13.4846
-15.0961
-16.6453
-18.1598
-19.6674
-21.1716
-22.6626
-24.1317
-25.5722
-26.9751
-28.3273
-29.6122
-30.8111
-31.9159
-32.9141
-33.7842
-34.5204
-35.0824
-35.4289
-35.7468
-36.6298
-38.9981
-43.6631
-50.1842
-56.0835
-60.0571
-61.9194
-61.0099
9.51538
11.2425
13.1252
15.1113
17.015
18.8661
20.6416
22.2318
23.5918
24.7378
25.6769
26.4283
27.0302
27.511
27.8923
28.1922
28.4198
28.5788
28.6686
28.682
28.6077
28.4279
28.1207
27.6618
27.0449
26.2811
25.376
24.3311
23.1529
21.8524
20.4447
18.9469
17.3786
15.7606
14.1124
12.4558
10.7964
9.16432
7.47679
7.54166
5.75045
3.7947
1.79323
-0.150963
-2.14181
-4.09511
-5.97511
-7.80375
-9.55769
-11.2377
-12.8547
-14.4078
-15.9016
-17.361
-18.8149
-20.269
-21.7143
-23.1426
-24.5475
-25.9207
-27.25
-28.5205
-29.7144
-30.8265
-31.8543
-32.7792
-33.6034
-34.3294
-34.9212
-35.5385
-36.7807
-39.4558
-44.1949
-50.6228
-56.6196
-60.8444
-62.9924
-62.6058
9.25825
10.9159
12.7242
14.6295
16.456
18.2326
19.9369
21.4642
22.769
23.8682
24.7684
25.4889
26.0671
26.5296
26.8988
27.1917
27.4181
27.5815
27.6819
27.7141
27.6656
27.5221
27.2608
26.8583
26.3074
25.6174
24.792
23.8308
22.7378
21.5218
20.1949
18.7718
17.2697
15.7072
14.1021
12.4729
10.8236
9.1724
7.44723
7.35599
5.63558
3.75584
1.83192
-0.0368159
-1.94963
-3.82753
-5.63502
-7.39272
-9.07933
-10.6955
-12.2519
-13.7476
-15.1875
-16.5938
-17.9947
-19.3985
-20.7977
-22.1843
-23.5525
-24.8948
-26.2001
-27.4547
-28.6428
-29.7607
-30.8152
-31.7943
-32.7003
-33.5691
-34.3902
-35.2692
-36.7868
-39.7129
-44.5247
-50.8713
-56.9426
-61.4059
-63.7808
-63.7944
9.00435
10.5956
12.3305
14.1606
15.9115
17.6147
19.2519
20.718
21.969
23.0224
23.8846
24.5749
25.1291
25.5737
25.9299
26.2152
26.4388
26.6048
26.7141
26.7604
26.735
26.622
26.4014
26.0496
25.5586
24.9365
24.1855
23.3034
22.292
21.1579
19.9107
18.5626
17.128
15.6231
14.0639
12.4651
10.829
9.16288
7.40522
7.17158
5.51915
3.71359
1.86465
0.069503
-1.76939
-3.57377
-5.31021
-7.00008
-8.62137
-10.1755
-11.6729
-13.1126
-14.5001
-15.8544
-17.2031
-18.5567
-19.9095
-21.2541
-22.5848
-23.8953
-25.1752
-26.4125
-27.5933
-28.715
-29.7913
-30.8204
-31.8021
-32.7891
-33.8122
-34.9244
-36.6331
-39.7243
-44.5887
-50.8639
-56.9886
-61.6624
-64.2134
-64.4924
8.75458
10.2813
11.9473
13.7022
15.3814
17.0151
18.5854
19.9917
21.1907
22.1994
23.0246
23.685
24.2157
24.6422
24.9853
25.2622
25.482
25.6492
25.7644
25.8231
25.8159
25.7299
25.5449
25.2381
24.8012
24.2411
23.5591
22.7512
21.8175
20.7624
19.5933
18.3196
16.9533
15.5079
13.997
12.4318
10.8127
9.13736
7.35574
6.98991
5.40363
3.66894
1.89263
0.167961
-1.59786
-3.33153
-5.00016
-6.62317
-8.18115
-9.67494
-11.1148
-12.4999
-13.8359
-15.1395
-16.4367
-17.7405
-19.047
-20.349
-21.6417
-22.9191
-24.1723
-25.3903
-26.5614
-27.6843
-28.7766
-29.8474
-30.8967
-31.9771
-33.1614
-34.479
-36.3084
-39.4517
-44.3121
-50.5095
-56.6635
-61.5246
-64.1959
-64.629
8.50936
9.9743
11.5721
13.2568
14.8657
16.4306
17.9374
19.2857
20.4338
21.3988
22.1877
22.8188
23.3261
23.7348
24.0643
24.3323
24.5473
24.7142
24.8337
24.9018
24.9102
24.8472
24.6929
24.426
24.0377
23.5342
22.9156
22.1769
21.3166
20.3371
19.2436
18.0433
16.7453
15.3606
13.9
12.3714
10.7727
9.09333
7.29398
6.81106
5.28822
3.6231
1.91712
0.261479
-1.43505
-3.09956
-4.70133
-6.26034
-7.75665
-9.19154
-10.5753
-11.9069
-13.1924
-14.446
-15.6924
-16.9469
-18.2069
-19.4662
-20.72
-21.9634
-23.1882
-24.3847
-25.5427
-26.6629
-27.7649
-28.8665
-29.9727
-31.1252
-32.4233
-33.9116
-35.819
-38.8986
-43.6577
-49.741
-55.8894
-60.8959
-63.6461
-64.1404
8.26939
9.67423
11.2077
12.8221
14.364
15.8635
17.307
18.5988
19.6974
20.6198
21.3731
21.9755
22.4604
22.8501
23.1673
23.4247
23.635
23.7994
23.9225
23.9969
24.0191
23.9744
23.8474
23.6154
23.2705
22.818
22.2576
21.5831
20.7917
19.8841
18.8635
17.7348
16.5048
15.1815
13.7731
12.2839
10.7096
9.03259
7.2249
6.63614
5.17528
3.57667
1.93896
0.349504
-1.27803
-2.87601
-4.41363
-5.90947
-7.34561
-8.72309
-10.0519
-11.331
-12.5669
-13.7713
-14.9676
-16.173
-17.3867
-18.6027
-19.8168
-21.0247
-22.2191
-23.3914
-24.5325
-25.6453
-26.7502
-27.8701
-29.018
-30.224
-31.5889
-33.1964
-35.1595
-38.0823
-42.6063
-48.4933
-54.5777
-59.6793
-62.4655
-62.9355
8.03488
9.38203
10.8516
12.4003
13.8761
15.3111
16.6944
17.931
18.9813
19.8621
20.5806
21.155
21.6165
21.9898
22.2912
22.5411
22.7429
22.9068
23.0289
23.1107
23.1417
23.1139
23.0094
22.8081
22.5017
22.0952
21.5876
20.9723
20.2452
19.4054
18.4545
17.3953
16.2322
14.9704
13.6153
12.168
10.6217
8.95292
7.14348
6.46494
5.06369
3.53058
1.9591
0.434834
-1.12743
-2.65993
-4.13416
-5.56926
-6.94657
-8.26779
-9.54267
-10.7702
-11.9571
-13.1128
-14.2598
-15.4164
-16.5835
-17.7557
-18.9291
-20.0997
-21.2614
-22.4064
-23.5264
-24.6258
-25.7262
-26.8518
-28.0229
-29.2645
-30.6584
-32.3219
-34.321
-37.0436
-41.1914
-46.7504
-52.6732
-57.7879
-60.5719
-60.9499
7.8064
9.09725
10.5066
11.9892
13.4021
14.7754
16.0985
17.2814
18.2845
19.1247
19.8093
20.3561
20.7955
21.1501
21.4391
21.6775
21.8738
22.0328
22.1562
22.2407
22.2804
22.2656
22.1805
22.0059
21.7334
21.3679
20.9082
20.3471
19.6795
18.9034
18.0188
17.0265
15.9287
14.7282
13.4276
12.0246
10.5103
8.85618
7.05473
6.29845
4.95564
3.48511
1.97821
0.516375
-0.98053
-2.44993
-3.86333
-5.23803
-6.55784
-7.82398
-9.0459
-10.2226
-11.361
-12.4686
-13.5664
-14.6746
-15.795
-16.9226
-18.0539
-19.1853
-20.3116
-21.4257
-22.52
-23.5997
-24.6875
-25.8067
-26.9814
-28.2374
-29.6325
-31.2887
-33.2846
-35.8092
-39.4764
-44.5373
-50.1517
-55.1665
-57.8958
-58.1117
7.58391
8.82068
10.17
11.5907
12.9415
14.2539
15.5199
16.6502
17.6073
18.4077
19.0589
19.5783
19.9959
20.3327
20.608
20.8358
21.0249
21.1795
21.3018
21.3887
21.4346
21.4305
21.3618
21.2101
20.9672
20.6383
20.2218
19.71
19.0973
18.3806
17.5584
16.63
15.5955
14.4555
13.2097
11.853
10.3742
8.74058
6.95364
6.1364
4.84969
3.4411
1.9969
0.596762
-0.838272
-2.24539
-3.59838
-4.91499
-6.17846
-7.39037
-8.56012
-9.68664
-10.7768
-11.8366
-12.8858
-13.9455
-15.0188
-16.1009
-17.1885
-18.2786
-19.3664
-20.4459
-21.5095
-22.563
-23.6291
-24.7302
-25.8896
-27.1366
-28.511
-30.1123
-32.0456
-34.3898
-37.5478
-41.9475
-47.061
-51.813
-54.42
-54.4365
7.3679
8.55178
9.84436
11.2026
12.4943
13.7486
14.9574
16.0364
16.9486
17.7101
18.3286
18.8215
19.2171
19.5365
19.7979
20.0151
20.1963
20.3461
20.4662
20.5542
20.6046
20.6091
20.5543
20.4216
20.2049
19.9083
19.5305
19.0634
18.5011
17.8394
17.0757
16.208
15.2347
14.154
12.9633
11.6547
10.215
8.60816
6.84513
5.97961
4.748
3.3986
2.01556
0.674594
-0.698207
-2.04532
-3.34017
-4.59895
-5.80709
-6.9657
-8.08397
-9.16078
-10.2031
-11.2153
-12.2161
-13.2273
-14.2528
-15.2884
-16.3307
-17.3769
-18.4232
-19.4637
-20.4919
-21.5123
-22.5477
-23.6191
-24.7467
-25.9608
-27.293
-28.8096
-30.6196
-32.7784
-35.4696
-39.1124
-43.5211
-47.8082
-50.1885
-49.9675
7.15822
8.29118
9.52718
10.8269
12.0601
13.2571
14.4115
15.4403
16.3086
17.032
17.6184
18.0849
18.4591
18.761
19.0086
19.2149
19.388
19.5322
19.6493
19.7373
19.7907
19.8023
19.7582
19.6424
19.4479
19.1798
18.8364
18.4096
17.8931
17.2822
16.5731
15.7627
14.8478
13.8248
12.689
11.4298
10.0322
8.45756
6.72441
5.82753
4.64895
3.35821
2.03464
0.752353
-0.56169
-1.84933
-3.08631
-4.28943
-5.44307
-6.54923
-7.61655
-8.64399
-9.63834
-10.6033
-11.5558
-12.5183
-13.4954
-14.4831
-15.4782
-16.4782
-17.4795
-18.4771
-19.4646
-20.4452
-21.4408
-22.4707
-23.5523
-24.7125
-25.9798
-27.394
-29.0395
-30.9816
-33.2708
-36.1689
-39.7192
-43.3244
-45.3381
-44.8652
6.95523
8.03832
9.22072
10.4614
11.6389
12.7813
13.8813
14.8612
15.6865
16.3727
16.9276
17.3683
17.7212
18.0059
18.2397
18.4349
18.5996
18.7376
18.8512
18.938
18.9933
19.0099
18.975
18.8729
18.6977
18.4545
18.1415
17.7509
17.276
16.7115
16.0531
15.2965
14.4374
13.4704
12.3889
11.1802
9.82781
8.29104
6.59641
5.68088
4.55453
3.31979
2.05437
0.828279
-0.426407
-1.65665
-2.83806
-3.98546
-5.08569
-6.14011
-7.15698
-8.13538
-9.08173
-9.99943
-10.904
-11.8174
-12.7451
-13.6836
-14.6295
-15.5807
-16.5336
-17.4842
-18.4254
-19.3601
-20.3074
-21.2852
-22.3083
-23.3981
-24.5792
-25.8762
-27.3391
-29.0302
-30.9576
-33.206
-35.859
-38.6116
-40.0989
-39.3285
6.75864
7.79364
8.92259
10.1079
11.2303
12.3187
13.3672
14.2991
15.0824
15.7321
16.2561
16.6713
17.0034
17.2709
17.4908
17.6749
17.8308
17.9624
18.0716
18.1565
18.2125
18.2327
18.2049
18.1141
17.9556
17.734
17.4476
17.0893
16.6519
16.1299
15.5183
14.8121
14.0057
13.0927
12.0646
10.9071
9.60225
8.10787
6.45646
5.53913
4.46292
3.28389
2.07499
0.90478
-0.293958
-1.46729
-2.5932
-3.68693
-4.7346
-5.73778
-6.70479
-7.63433
-8.53274
-9.40311
-10.2597
-11.1235
-12.001
-12.8887
-13.7836
-14.6831
-15.5845
-16.4837
-17.3742
-18.2568
-19.1474
-20.064
-21.0179
-22.0248
-23.103
-24.2689
-25.5449
-26.9702
-28.5481
-30.2581
-32.0958
-33.9322
-34.7619
-33.6563
6.56868
7.5566
8.6348
9.7642
10.8343
11.8712
12.8681
13.7534
14.4956
15.1097
15.6035
15.9937
16.3051
16.5557
16.7618
16.9347
17.0816
17.2063
17.3107
17.3927
17.4483
17.4709
17.4485
17.3674
17.2229
17.0194
16.7566
16.4269
16.0232
15.5397
14.9712
14.3119
13.5555
12.6943
11.7187
10.6128
9.35777
7.9104
6.30982
5.40281
4.37603
3.25017
2.09654
0.979745
-0.162186
-1.28073
-2.35322
-3.39329
-4.38916
-5.34201
-6.25949
-7.14061
-7.99108
-8.8141
-9.62236
-10.4362
-11.2624
-12.0981
-12.9397
-13.7853
-14.6318
-15.4762
-16.3105
-17.135
-17.9636
-18.8112
-19.6873
-20.6023
-21.5665
-22.5899
-23.6786
-24.8438
-26.0806
-27.3348
-28.5057
-29.4925
-29.6143
-28.1227
6.385
7.32746
8.35515
9.43219
10.4506
11.4367
12.3846
13.2243
13.9264
14.5055
14.9696
15.3352
15.6263
15.8601
16.0525
16.214
16.3518
16.4693
16.5684
16.6469
16.7012
16.7249
16.7067
16.6333
16.5001
16.3126
16.0702
15.7658
15.3921
14.9436
14.4147
13.7989
13.0895
12.2778
11.3533
10.2991
9.09547
7.69863
6.1519
5.27113
4.29186
3.2189
2.11902
1.05554
-0.0330625
-1.09707
-2.11615
-3.10467
-4.04951
-4.95258
-5.82107
-6.65401
-7.45674
-8.23231
-8.99211
-9.75542
-10.5294
-11.3116
-12.0985
-12.8874
-13.6764
-14.4615
-15.2366
-15.9978
-16.76
-17.5327
-18.325
-19.1413
-19.9851
-20.8599
-21.7629
-22.6838
-23.6005
-24.454
-25.1003
-25.3926
-24.8562
-22.9759
6.20776
7.10574
8.08557
9.10994
10.0792
11.0169
11.9159
12.711
13.374
13.9191
14.3542
14.6957
14.9668
15.184
15.3627
15.5129
15.6414
15.7513
15.8447
15.9192
15.9715
15.9954
15.9799
15.9125
15.7889
15.6148
15.3902
15.1077
14.7609
14.344
13.8512
13.2758
12.6105
11.8462
10.9715