/*--------------------------------*- C++ -*----------------------------------*\
  =========                 |
  \\      /  F ield         | OpenFOAM: The Open Source CFD Toolbox
   \\    /   O peration     | Website:  https://openfoam.org
    \\  /    A nd           | Version:  9
     \\/     M anipulation  |
\*---------------------------------------------------------------------------*/
FoamFile
{
    format      ascii;
    class       surfaceScalarField;
    location    "0.35";
    object      alphaPhi0.water;
}
// * * * * * * * * * * * * * * * * * * * * * * * * * * * * * * * * * * * * * //

dimensions      [0 3 -1 0 0 0 0];

internalField   nonuniform List<scalar> 
3781
(
-3.30288e-06
3.30288e-06
-4.08415e-06
7.8127e-07
-2.92283e-06
-1.16132e-06
-9.11463e-07
-2.01136e-06
1.39042e-06
-2.30188e-06
3.7281e-06
-2.33769e-06
5.97621e-06
-2.2481e-06
8.09308e-06
-2.11688e-06
1.00786e-05
-1.98552e-06
1.195e-05
-1.87142e-06
1.37307e-05
-1.78063e-06
1.5444e-05
-1.71336e-06
1.71109e-05
-1.66692e-06
1.87484e-05
-1.63748e-06
2.03695e-05
-1.62107e-06
2.19835e-05
-1.61399e-06
2.35964e-05
-1.61291e-06
2.52113e-05
-1.61489e-06
2.68286e-05
-1.61736e-06
2.84466e-05
-1.61795e-06
3.0061e-05
-1.61441e-06
3.16654e-05
-1.60443e-06
3.3251e-05
-1.58556e-06
3.4806e-05
-1.55499e-06
3.63154e-05
-1.50944e-06
3.77603e-05
-1.44489e-06
3.91167e-05
-1.35637e-06
4.03542e-05
-1.23754e-06
4.14342e-05
-1.07994e-06
4.23055e-05
-8.71314e-07
4.28975e-05
-5.92036e-07
4.31016e-05
-2.04115e-07
4.27427e-05
3.58919e-07
4.16393e-05
1.10345e-06
3.96288e-05
2.01047e-06
3.65469e-05
3.08191e-06
3.22495e-05
4.2974e-06
2.66626e-05
5.5869e-06
1.98553e-05
6.80733e-06
1.20987e-05
7.75653e-06
3.86384e-06
8.23488e-06
-4.08288e-06
8.22722e-06
-1.12611e-05
7.11249e-06
4.08349e-06
-1.63397e-06
4.93684e-06
-1.20983e-06
3.57136e-07
9.1881e-08
-2.46304e-06
1.86838e-06
-3.78786e-06
3.8889e-06
-4.3224e-06
5.97016e-06
-4.41896e-06
8.02623e-06
-4.30417e-06
1.00192e-05
-4.10984e-06
1.19396e-05
-3.90589e-06
1.37932e-05
-3.72504e-06
1.55922e-05
-3.57965e-06
1.73501e-05
-3.4713e-06
1.90795e-05
-3.39626e-06
2.07906e-05
-3.34863e-06
2.24915e-05
-3.32198e-06
2.41877e-05
-3.31013e-06
2.58823e-05
-3.30749e-06
2.75764e-05
-3.309e-06
2.92691e-05
-3.31011e-06
3.09577e-05
-3.30656e-06
3.26375e-05
-3.29415e-06
3.43016e-05
-3.26856e-06
3.59411e-05
-3.22504e-06
3.75443e-05
-3.15818e-06
3.90964e-05
-3.06159e-06
4.05791e-05
-2.92753e-06
4.19692e-05
-2.74647e-06
4.32381e-05
-2.50649e-06
4.43506e-05
-2.19237e-06
4.52636e-05
-1.78434e-06
4.5928e-05
-1.25646e-06
4.62992e-05
-5.75332e-07
4.63474e-05
3.10773e-07
4.59957e-05
1.45515e-06
4.51059e-05
2.90024e-06
4.35076e-05
4.68018e-06
4.09971e-05
6.80794e-06
3.73445e-05
9.23951e-06
3.23302e-05
1.18215e-05
2.58406e-05
1.42462e-05
1.80283e-05
1.60472e-05
9.45403e-06
1.68015e-05
1.60059e-06
1.55353e-05
9.616e-06
-1.03864e-07
5.04071e-06
7.30545e-07
-4.77273e-07
2.05411e-06
-3.7866e-06
3.72819e-06
-5.46195e-06
5.56996e-06
-6.16417e-06
7.47405e-06
-6.32304e-06
9.38118e-06
-6.21131e-06
1.12628e-05
-5.99146e-06
1.31089e-05
-5.75199e-06
1.49198e-05
-5.53598e-06
1.67008e-05
-5.36063e-06
1.84587e-05
-5.22919e-06
2.02003e-05
-5.13787e-06
2.19315e-05
-5.07979e-06
2.36567e-05
-5.04717e-06
2.53788e-05
-5.03232e-06
2.70994e-05
-5.02807e-06
2.88183e-05
-5.02783e-06
3.05336e-05
-5.0255e-06
3.22423e-05
-5.0152e-06
3.39392e-05
-4.99107e-06
3.56175e-05
-4.94689e-06
3.72683e-05
-4.87583e-06
3.88802e-05
-4.77002e-06
4.04388e-05
-4.6202e-06
4.19264e-05
-4.41518e-06
4.33213e-05
-4.14134e-06
4.45967e-05
-3.78189e-06
4.57203e-05
-3.31599e-06
4.66537e-05
-2.71778e-06
4.73526e-05
-1.95528e-06
4.77673e-05
-9.90084e-07
4.78513e-05
2.26815e-07
4.75515e-05
1.75491e-06
4.68001e-05
3.65166e-06
4.55143e-05
5.96602e-06
4.3597e-05
8.72521e-06
4.09314e-05
1.19051e-05
3.73738e-05
1.53791e-05
3.27705e-05
1.88495e-05
2.70425e-05
2.17752e-05
2.04534e-05
2.33906e-05
1.35466e-05
2.24533e-05
1.66988e-05
8.59499e-07
4.18121e-06
1.97518e-06
-1.59296e-06
3.43264e-06
-5.24406e-06
5.08982e-06
-7.11913e-06
6.84224e-06
-7.91659e-06
8.63324e-06
-8.11404e-06
1.04333e-05
-8.01136e-06
1.22276e-05
-7.78578e-06
1.401e-05
-7.53434e-06
1.57791e-05
-7.30509e-06
1.75364e-05
-7.11793e-06
1.92844e-05
-6.97724e-06
2.10261e-05
-6.8795e-06
2.27638e-05
-6.81754e-06
2.44996e-05
-6.7829e-06
2.62343e-05
-6.76702e-06
2.79679e-05
-6.76172e-06
2.96994e-05
-6.75928e-06
3.14263e-05
-6.75239e-06
3.31449e-05
-6.73385e-06
3.48502e-05
-6.6963e-06
3.65351e-05
-6.63186e-06
3.8191e-05
-6.53175e-06
3.98069e-05
-6.38584e-06
4.13689e-05
-6.18223e-06
4.28603e-05
-5.90663e-06
4.42607e-05
-5.54171e-06
4.55453e-05
-5.06643e-06
4.66844e-05
-4.45512e-06
4.76433e-05
-3.67674e-06
4.83823e-05
-2.6942e-06
4.88566e-05
-1.4644e-06
4.902e-05
6.33802e-08
4.88261e-05
1.94886e-06
4.82266e-05
4.25115e-06
4.71715e-05
7.02107e-06
4.56097e-05
1.0287e-05
4.34849e-05
1.403e-05
4.07236e-05
1.81403e-05
3.72211e-05
2.2352e-05
3.2846e-05
2.61503e-05
2.7551e-05
2.86856e-05
2.1433e-05
2.85713e-05
2.36518e-05
1.22133e-06
2.95988e-06
2.71274e-06
-3.08436e-06
4.35837e-06
-6.88968e-06
6.06223e-06
-8.82299e-06
7.78259e-06
-9.63695e-06
9.5081e-06
-9.83955e-06
1.12369e-05
-9.74014e-06
1.29684e-05
-9.51726e-06
1.47019e-05
-9.26785e-06
1.64369e-05
-9.04007e-06
1.81731e-05
-8.85413e-06
1.99106e-05
-8.71473e-06
2.16495e-05
-8.61849e-06
2.33902e-05
-8.55819e-06
2.51324e-05
-8.52509e-06
2.68755e-05
-8.51018e-06
2.86184e-05
-8.50463e-06
3.03591e-05
-8.49998e-06
3.20947e-05
-8.48795e-06
3.38211e-05
-8.46028e-06
3.55331e-05
-8.40831e-06
3.7224e-05
-8.3227e-06
3.88851e-05
-8.19291e-06
4.05061e-05
-8.00679e-06
4.20739e-05
-7.75003e-06
4.35728e-05
-7.40555e-06
4.49839e-05
-6.95277e-06
4.62843e-05
-6.3669e-06
4.74473e-05
-5.61811e-06
4.84415e-05
-4.67096e-06
4.92314e-05
-3.4841e-06
4.97776e-05
-2.0106e-06
5.00387e-05
-1.97676e-07
4.99745e-05
2.01302e-06
4.95465e-05
4.67917e-06
4.87189e-05
7.8487e-06
4.74582e-05
1.15476e-05
4.57292e-05
1.57591e-05
4.34817e-05
2.03878e-05
4.06299e-05
2.52038e-05
3.70272e-05
2.9753e-05
3.24799e-05
3.32329e-05
2.67596e-05
3.42916e-05
3.08802e-05
1.37218e-06
1.58769e-06
3.15861e-06
-4.87079e-06
4.97104e-06
-8.70211e-06
6.72984e-06
-1.05818e-05
8.44067e-06
-1.13478e-05
1.01274e-05
-1.15263e-05
1.18095e-05
-1.14222e-05
1.34975e-05
-1.12053e-05
1.5196e-05
-1.09663e-05
1.69057e-05
-1.07498e-05
1.86258e-05
-1.05743e-05
2.03551e-05
-1.0444e-05
2.20921e-05
-1.03555e-05
2.38352e-05
-1.03013e-05
2.5583e-05
-1.02728e-05
2.73335e-05
-1.02607e-05
2.90847e-05
-1.02558e-05
3.08338e-05
-1.02491e-05
3.25776e-05
-1.02317e-05
3.43118e-05
-1.01944e-05
3.6031e-05
-1.01276e-05
3.77288e-05
-1.00205e-05
3.93969e-05
-9.86107e-06
4.10256e-05
-9.63543e-06
4.26026e-05
-9.32711e-06
4.41137e-05
-8.91657e-06
4.55413e-05
-8.3804e-06
4.6865e-05
-7.69057e-06
4.80605e-05
-6.81365e-06
4.91e-05
-5.71043e-06
4.99518e-05
-4.33593e-06
5.05814e-05
-2.64018e-06
5.09527e-05
-5.69004e-07
5.10309e-05
1.93483e-06
5.07837e-05
4.92641e-06
5.01822e-05
8.45022e-06
4.91995e-05
1.25302e-05
4.78055e-05
1.71531e-05
4.5953e-05
2.22403e-05
4.35545e-05
2.76023e-05
4.0447e-05
3.28605e-05
3.63577e-05
3.73222e-05
3.08581e-05
3.97912e-05
3.84269e-05
1.49783e-06
8.98671e-08
3.46868e-06
-6.84165e-06
5.38239e-06
-1.06158e-05
7.1693e-06
-1.23687e-05
8.86791e-06
-1.30464e-05
1.05252e-05
-1.31836e-05
1.21736e-05
-1.30706e-05
1.38307e-05
-1.28624e-05
1.5504e-05
-1.26397e-05
1.71956e-05
-1.24413e-05
1.89044e-05
-1.22831e-05
2.06283e-05
-1.21679e-05
2.23646e-05
-1.20918e-05
2.41108e-05
-1.20475e-05
2.58641e-05
-1.20261e-05
2.76218e-05
-1.20184e-05
2.9381e-05
-1.2015e-05
3.11386e-05
-1.20066e-05
3.28907e-05
-1.19838e-05
3.4633e-05
-1.19368e-05
3.63604e-05
-1.18549e-05
3.80664e-05
-1.17265e-05
3.97435e-05
-1.15381e-05
4.13824e-05
-1.12743e-05
4.29721e-05
-1.09168e-05
4.44995e-05
-1.0444e-05
4.59491e-05
-9.82997e-06
4.73025e-05
-9.04401e-06
4.85385e-05
-8.04959e-06
4.96322e-05
-6.80419e-06
5.0556e-05
-5.2597e-06
5.12795e-05
-3.36367e-06
5.17714e-05
-1.06088e-06
5.20014e-05
1.70483e-06
5.19418e-05
4.98597e-06
5.15679e-05
8.82412e-06
5.08557e-05
1.32424e-05
4.97756e-05
1.82332e-05
4.82788e-05
2.37371e-05
4.62721e-05
2.9609e-05
4.35776e-05
3.5555e-05
3.98716e-05
4.10282e-05
3.45941e-05
4.50686e-05
4.61549e-05
1.63078e-06
-1.54091e-06
3.70931e-06
-8.92018e-06
5.65946e-06
-1.2566e-05
7.43863e-06
-1.41479e-05
9.11121e-06
-1.4719e-05
1.07378e-05
-1.48102e-05
1.23571e-05
-1.46898e-05
1.39893e-05
-1.44947e-05
1.56433e-05
-1.42937e-05
1.73212e-05
-1.41192e-05
1.90217e-05
-1.39836e-05
2.0742e-05
-1.38882e-05
2.24786e-05
-1.38285e-05
2.42281e-05
-1.3797e-05
2.59869e-05
-1.37849e-05
2.77515e-05
-1.3783e-05
2.95184e-05
-1.3782e-05
3.12841e-05
-1.37723e-05
3.30445e-05
-1.37443e-05
3.47953e-05
-1.36876e-05
3.65313e-05
-1.35909e-05
3.82465e-05
-1.34417e-05
3.99339e-05
-1.32255e-05
4.15849e-05
-1.29254e-05
4.31898e-05
-1.25217e-05
4.47368e-05
-1.1991e-05
4.62124e-05
-1.13056e-05
4.76008e-05
-1.04323e-05
4.88833e-05
-9.33217e-06
5.00388e-05
-7.95962e-06
5.10428e-05
-6.26373e-06
5.1869e-05
-4.18984e-06
5.249e-05
-1.68193e-06
5.28797e-05
1.31515e-06
5.30143e-05
4.85141e-06
5.28724e-05
8.96601e-06
5.24329e-05
1.36819e-05
5.16684e-05
1.89976e-05
5.05316e-05
2.4874e-05
4.89305e-05
3.121e-05
4.66851e-05
3.78004e-05
4.34506e-05
4.42628e-05
3.85889e-05
4.99303e-05
5.37491e-05
1.771e-06
-3.3119e-06
3.90283e-06
-1.1052e-05
5.83765e-06
-1.45008e-05
7.57768e-06
-1.58879e-05
9.2093e-06
-1.63506e-05
1.08001e-05
-1.64009e-05
1.23899e-05
-1.62796e-05
1.39989e-05
-1.61038e-05
1.56356e-05
-1.59303e-05
1.73014e-05
-1.5785e-05
1.89946e-05
-1.56768e-05
2.07117e-05
-1.56052e-05
2.24484e-05
-1.55653e-05
2.42007e-05
-1.55492e-05
2.59641e-05
-1.55483e-05
2.77346e-05
-1.55536e-05
2.95083e-05
-1.55557e-05
3.12813e-05
-1.55452e-05
3.30494e-05
-1.55123e-05
3.48081e-05
-1.54463e-05
3.65526e-05
-1.53354e-05
3.82771e-05
-1.51663e-05
3.99752e-05
-1.49236e-05
4.16393e-05
-1.45895e-05
4.32605e-05
-1.41429e-05
4.48289e-05
-1.35593e-05
4.63328e-05
-1.28095e-05
4.7759e-05
-1.18586e-05
4.90923e-05
-1.06654e-05
5.03145e-05
-9.18182e-06
5.14048e-05
-7.35405e-06
5.23403e-05
-5.12529e-06
5.3097e-05
-2.43871e-06
5.36526e-05
7.59634e-07
5.39868e-05
4.51719e-06
5.40823e-05
8.87045e-06
5.39227e-05
1.38415e-05
5.34865e-05
1.94338e-05
5.27356e-05
2.56249e-05
5.15929e-05
3.23527e-05
4.99007e-05
3.94926e-05
4.73419e-05
4.68216e-05
4.32885e-05
5.39837e-05
6.05281e-05
1.91072e-06
-5.22263e-06
4.05387e-06
-1.31952e-05
5.93553e-06
-1.63824e-05
7.61411e-06
-1.75665e-05
9.19355e-06
-1.793e-05
1.07433e-05
-1.79507e-05
1.23015e-05
-1.78378e-05
1.38865e-05
-1.76887e-05
1.55052e-05
-1.7549e-05
1.71584e-05
-1.74382e-05
1.88434e-05
-1.73617e-05
2.0556e-05
-1.73178e-05
2.22913e-05
-1.73006e-05
2.40446e-05
-1.73024e-05
2.58108e-05
-1.73146e-05
2.75855e-05
-1.73283e-05
2.93643e-05
-1.73345e-05
3.11429e-05
-1.73239e-05
3.29171e-05
-1.72866e-05
3.46825e-05
-1.72117e-05
3.64344e-05
-1.70873e-05
3.81674e-05
-1.68993e-05
3.98755e-05
-1.66317e-05
4.1552e-05
-1.6266e-05
4.31892e-05
-1.57801e-05
4.47785e-05
-1.51487e-05
4.63108e-05
-1.43417e-05
4.77755e-05
-1.33233e-05
4.91607e-05
-1.20506e-05
5.04519e-05
-1.0473e-05
5.16317e-05
-8.53385e-06
5.26802e-05
-6.17382e-06
5.35767e-05
-3.33517e-06
5.43017e-05
3.46476e-08
5.48389e-05
3.97996e-06
5.51757e-05
8.53361e-06
5.53025e-05
1.37148e-05
5.52081e-05
1.95282e-05
5.4872e-05
2.5961e-05
5.42475e-05
3.29773e-05
5.32305e-05
4.05095e-05
5.1598e-05
4.84542e-05
4.88745e-05
5.67072e-05
6.54196e-05
2.079e-06
-7.30163e-06
4.23669e-06
-1.53528e-05
6.07199e-06
-1.82177e-05
7.70481e-06
-1.91993e-05
9.25293e-06
-1.94781e-05
1.0785e-05
-1.94828e-05
1.23363e-05
-1.93891e-05
1.39228e-05
-1.92752e-05
1.55499e-05
-1.91762e-05
1.72173e-05
-1.91056e-05
1.89215e-05
-1.90659e-05
2.06575e-05
-1.90538e-05
2.24197e-05
-1.90629e-05
2.42025e-05
-1.90853e-05
2.60005e-05
-1.91126e-05
2.78085e-05
-1.91363e-05
2.96217e-05
-1.91476e-05
3.14354e-05
-1.91376e-05
3.32454e-05
-1.90965e-05
3.5047e-05
-1.90134e-05
3.68357e-05
-1.88759e-05
3.86064e-05
-1.86699e-05
4.03534e-05
-1.83788e-05
4.20707e-05
-1.79832e-05
4.37514e-05
-1.74608e-05
4.53885e-05
-1.67857e-05
4.69746e-05
-1.59278e-05
4.85025e-05
-1.48512e-05
4.99639e-05
-1.3512e-05
5.1348e-05
-1.18571e-05
5.26407e-05
-9.82658e-06
5.38248e-05
-7.35789e-06
5.48816e-05
-4.39193e-06
5.57939e-05
-8.777e-07
5.65489e-05
3.22498e-06
5.71391e-05
7.94338e-06
5.75631e-05
1.32908e-05
5.78235e-05
1.92678e-05
5.79226e-05
2.5862e-05
5.78546e-05
3.30453e-05
5.75927e-05
4.07714e-05
5.70671e-05
4.89798e-05
5.6128e-05
5.76463e-05
6.70166e-05
2.21813e-06
-9.51976e-06
4.34114e-06
-1.74759e-05
6.09836e-06
-1.9975e-05
7.66556e-06
-2.07665e-05
9.16636e-06
-2.09789e-05
1.06651e-05
-2.09816e-05
1.21932e-05
-2.09171e-05
1.37641e-05
-2.08462e-05
1.53819e-05
-2.0794e-05
1.70453e-05
-2.0769e-05
1.87502e-05
-2.07707e-05
2.04908e-05
-2.07944e-05
2.22611e-05
-2.08331e-05
2.40547e-05
-2.08789e-05
2.58658e-05
-2.09236e-05
2.76884e-05
-2.09589e-05
2.95174e-05
-2.09767e-05
3.1348e-05
-2.09682e-05
3.31755e-05
-2.0924e-05
3.49955e-05
-2.08333e-05
3.68033e-05
-2.06837e-05
3.8594e-05
-2.04607e-05
4.03627e-05
-2.01474e-05
4.21035e-05
-1.97241e-05
4.38105e-05
-1.91679e-05
4.54778e-05
-1.8453e-05
4.71003e-05
-1.75503e-05
4.86743e-05
-1.64252e-05
5.0196e-05
-1.50337e-05
5.16594e-05
-1.33205e-05
5.30541e-05
-1.12213e-05
5.43654e-05
-8.66923e-06
5.55764e-05
-5.60295e-06
5.66717e-05
-1.97296e-06
5.76411e-05
2.25553e-06
5.84827e-05
7.10177e-06
5.92038e-05
1.25697e-05
5.98211e-05
1.86505e-05
6.03603e-05
2.53227e-05
6.08553e-05
3.25504e-05
6.13491e-05
4.02775e-05
6.19032e-05
4.84256e-05
6.26404e-05
5.69092e-05
6.57072e-05
2.33526e-06
-1.1855e-05
4.40167e-06
-1.95423e-05
6.07851e-06
-2.16518e-05
7.58383e-06
-2.22718e-05
9.03961e-06
-2.24347e-05
1.05045e-05
-2.24465e-05
1.20065e-05
-2.24191e-05
1.35577e-05
-2.23973e-05
1.51612e-05
-2.23976e-05
1.68154e-05
-2.24232e-05
1.85156e-05
-2.24709e-05
2.02556e-05
-2.25345e-05
2.20289e-05
-2.26064e-05
2.38285e-05
-2.26786e-05
2.56479e-05
-2.2743e-05
2.74808e-05
-2.27918e-05
2.93215e-05
-2.28174e-05
3.11648e-05
-2.28115e-05
3.30059e-05
-2.27651e-05
3.48403e-05
-2.26677e-05
3.66633e-05
-2.25067e-05
3.84703e-05
-2.22677e-05
4.02564e-05
-2.19335e-05
4.20163e-05
-2.1484e-05
4.37445e-05
-2.0896e-05
4.54357e-05
-2.01442e-05
4.70869e-05
-1.92015e-05
4.86982e-05
-1.80365e-05
5.02715e-05
-1.6607e-05
5.18064e-05
-1.48554e-05
5.32972e-05
-1.2712e-05
5.47315e-05
-1.01035e-05
5.60931e-05
-6.96462e-06
5.73672e-05
-3.247e-06
5.85454e-05
1.07733e-06
5.96301e-05
6.01702e-06
6.06364e-05
1.15634e-05
6.15932e-05
1.76937e-05
6.25441e-05
2.43718e-05
6.35499e-05
3.15446e-05
6.46928e-05
3.91346e-05
6.60893e-05
4.70291e-05
6.79232e-05
5.50753e-05
6.30994e-05
2.42343e-06
-1.42784e-05
4.42499e-06
-2.15438e-05
6.03357e-06
-2.32604e-05
7.48873e-06
-2.3727e-05
8.90489e-06
-2.38509e-05
1.03358e-05
-2.38774e-05
1.18082e-05
-2.38915e-05
1.33342e-05
-2.39233e-05
1.49172e-05
-2.39806e-05
1.65556e-05
-2.40615e-05
1.82445e-05
-2.41598e-05
1.99775e-05
-2.42675e-05
2.17476e-05
-2.43765e-05
2.35474e-05
-2.44784e-05
2.53695e-05
-2.45651e-05
2.72072e-05
-2.46295e-05
2.90543e-05
-2.46644e-05
3.09051e-05
-2.46624e-05
3.27548e-05
-2.46148e-05
3.45985e-05
-2.45114e-05
3.64316e-05
-2.43398e-05
3.82496e-05
-2.40857e-05
4.00478e-05
-2.37317e-05
4.18211e-05
-2.32573e-05
4.35637e-05
-2.26386e-05
4.52704e-05
-2.18509e-05
4.69393e-05
-2.08704e-05
4.85747e-05
-1.9672e-05
5.01856e-05
-1.82179e-05
5.1779e-05
-1.64488e-05
5.33543e-05
-1.42874e-05
5.4902e-05
-1.16512e-05
5.64054e-05
-8.46801e-06
5.78482e-05
-4.68989e-06
5.92226e-05
-2.97035e-07
6.05338e-05
4.70588e-06
6.18024e-05
1.02947e-05
6.30663e-05
1.64298e-05
6.43804e-05
2.30577e-05
6.58185e-05
3.01065e-05
6.74753e-05
3.74778e-05
6.94703e-05
4.50341e-05
7.19564e-05
5.25892e-05
5.99139e-05
2.47814e-06
-1.67566e-05
4.42756e-06
-2.34933e-05
5.99565e-06
-2.48285e-05
7.41851e-06
-2.51498e-05
8.80101e-06
-2.52334e-05
1.01963e-05
-2.52727e-05
1.16336e-05
-2.53287e-05
1.31272e-05
-2.54169e-05
1.46819e-05
-2.55354e-05
1.62966e-05
-2.56762e-05
1.79665e-05
-2.58297e-05
1.9685e-05
-2.5986e-05
2.14448e-05
-2.61362e-05
2.32378e-05
-2.62714e-05
2.50561e-05
-2.63834e-05
2.68922e-05
-2.64655e-05
2.87392e-05
-2.65115e-05
3.05914e-05
-2.65145e-05
3.24434e-05
-2.64667e-05
3.42902e-05
-2.63582e-05
3.61271e-05
-2.61768e-05
3.79496e-05
-2.59082e-05
3.97533e-05
-2.55354e-05
4.15331e-05
-2.5037e-05
4.32824e-05
-2.43879e-05
4.49945e-05
-2.3563e-05
4.66673e-05
-2.25432e-05
4.83094e-05
-2.13141e-05
4.99385e-05
-1.9847e-05
5.15709e-05
-1.80812e-05
5.32133e-05
-1.59297e-05
5.48587e-05
-1.32965e-05
5.64889e-05
-1.00982e-05
5.80844e-05
-6.28541e-06
5.96353e-05
-1.84791e-06
6.11479e-05
3.19328e-06
6.26468e-05
8.79578e-06
6.41751e-05
1.49016e-05
6.57932e-05
2.14395e-05
6.75785e-05
2.83212e-05
6.96237e-05
3.54325e-05
7.20333e-05
4.26245e-05
7.49207e-05
4.97018e-05
5.64224e-05
2.49839e-06
-1.9255e-05
4.43905e-06
-2.54339e-05
6.01017e-06
-2.63996e-05
7.42067e-06
-2.65603e-05
8.77221e-06
-2.65849e-05
1.01262e-05
-2.66267e-05
1.15197e-05
-2.67222e-05
1.29717e-05
-2.68688e-05
1.4489e-05
-2.70527e-05
1.60713e-05
-2.72584e-05
1.77137e-05
-2.7472e-05
1.94094e-05
-2.76817e-05
2.11508e-05
-2.78776e-05
2.29294e-05
-2.80499e-05
2.47363e-05
-2.81903e-05
2.65633e-05
-2.82925e-05
2.84029e-05
-2.8351e-05
3.0249e-05
-2.83604e-05
3.20958e-05
-2.83135e-05
3.39382e-05
-2.82005e-05
3.57712e-05
-2.80097e-05
3.75902e-05
-2.77271e-05
3.93912e-05
-2.73363e-05
4.11696e-05
-2.68153e-05
4.29174e-05
-2.61357e-05
4.46246e-05
-2.527e-05
4.62862e-05
-2.42047e-05
4.79142e-05
-2.2942e-05
4.95372e-05
-2.147e-05
5.11834e-05
-1.97272e-05
5.28685e-05
-1.76148e-05
5.45891e-05
-1.5017e-05
5.63244e-05
-1.18334e-05
5.80494e-05
-8.01031e-06
5.975e-05
-3.54847e-06
6.1432e-05
1.51132e-06
6.31221e-05
7.10566e-06
6.48658e-05
1.31579e-05
6.67249e-05
1.95804e-05
6.87747e-05
2.62715e-05
7.10997e-05
3.31075e-05
7.37843e-05
3.994e-05
7.69038e-05
4.65823e-05
5.28076e-05
2.49053e-06
-2.17455e-05
4.50672e-06
-2.745e-05
6.13593e-06
-2.80287e-05
7.54865e-06
-2.79729e-05
8.86332e-06
-2.78994e-05
1.0164e-05
-2.79272e-05
1.15016e-05
-2.80595e-05
1.29012e-05
-2.82682e-05
1.43716e-05
-2.85228e-05
1.59125e-05
-2.8799e-05
1.75188e-05
-2.90779e-05
1.91831e-05
-2.93456e-05
2.08977e-05
-2.95918e-05
2.26535e-05
-2.98053e-05
2.44406e-05
-2.9977e-05
2.625e-05
-3.01013e-05
2.80735e-05
-3.01741e-05
2.99046e-05
-3.01909e-05
3.17373e-05
-3.01456e-05
3.35662e-05
-3.00288e-05
3.53858e-05
-2.98286e-05
3.71913e-05
-2.95319e-05
3.89797e-05
-2.9124e-05
4.07474e-05
-2.85824e-05
4.24855e-05
-2.78731e-05
4.41783e-05
-2.69621e-05
4.58137e-05
-2.58395e-05
4.74056e-05
-2.45332e-05
4.89958e-05
-2.30595e-05
5.06258e-05
-2.13564e-05
5.23229e-05
-1.93109e-05
5.40893e-05
-1.67824e-05
5.59004e-05
-1.36437e-05
5.7724e-05
-9.83326e-06
5.95404e-05
-5.36454e-06
6.13539e-05
-3.01998e-07
6.3192e-05
5.26757e-06
6.51005e-05
1.12494e-05
6.71393e-05
1.75416e-05
6.93778e-05
2.4033e-05
7.18915e-05
3.05938e-05
7.47442e-05
3.70872e-05
7.79781e-05
4.33484e-05
4.91807e-05
2.47725e-06
-2.42224e-05
4.69849e-06
-2.96701e-05
6.43891e-06
-2.9768e-05
7.85071e-06
-2.93835e-05
9.10836e-06
-2.91555e-05
1.03366e-05
-2.91536e-05
1.16043e-05
-2.93251e-05
1.29414e-05
-2.96028e-05
1.43565e-05
-2.99353e-05
1.58484e-05
-3.02879e-05
1.74107e-05
-3.06369e-05
1.9035e-05
-3.09665e-05
2.0714e-05
-3.12671e-05
2.24377e-05
-3.15252e-05
2.41953e-05
-3.17306e-05
2.59767e-05
-3.18784e-05
2.77733e-05
-3.19662e-05
2.9578e-05
-3.19909e-05
3.1385e-05
-3.19477e-05
3.31884e-05
-3.1827e-05
3.49818e-05
-3.16166e-05
3.67597e-05
-3.13043e-05
3.85206e-05
-3.08795e-05
4.0264e-05
-3.03201e-05
4.19809e-05
-2.95844e-05
4.36486e-05
-2.86242e-05
4.52419e-05
-2.74271e-05
4.67769e-05
-2.60614e-05
4.83115e-05
-2.4587e-05
4.99e-05
-2.29374e-05
5.15787e-05
-2.09799e-05
5.33581e-05
-1.85517e-05
5.52105e-05
-1.54876e-05
5.70957e-05
-1.17123e-05
5.89886e-05
-7.25381e-06
6.08923e-05
-2.20403e-06
6.28352e-05
3.3251e-06
6.48612e-05
9.22332e-06
6.70255e-05
1.53774e-05
6.93886e-05
2.16699e-05
7.20189e-05
2.79635e-05
7.49627e-05
3.41434e-05
7.82363e-05
4.00748e-05
4.55935e-05
2.50282e-06
-2.67214e-05
5.09485e-06
-3.22529e-05
6.96622e-06
-3.163e-05
8.33657e-06
-3.07434e-05
9.49758e-06
-3.03037e-05
1.06297e-05
-3.027e-05
1.18156e-05
-3.04928e-05
1.30837e-05
-3.08504e-05
1.44384e-05
-3.12674e-05
1.58753e-05
-3.17003e-05
1.73859e-05
-3.21213e-05
1.89602e-05
-3.25129e-05
2.05919e-05
-3.28694e-05
2.227e-05
-3.31728e-05
2.39823e-05
-3.3411e-05
2.57179e-05
-3.35807e-05
2.7468e-05
-3.36811e-05
2.92249e-05
-3.37108e-05
3.09833e-05
-3.36671e-05
3.27362e-05
-3.35391e-05
3.4476e-05
-3.33141e-05
3.61953e-05
-3.29799e-05
3.78951e-05
-3.25347e-05
3.95784e-05
-3.19575e-05
4.12377e-05
-3.11965e-05
4.28378e-05
-3.01758e-05
4.43215e-05
-2.88579e-05
4.5747e-05
-2.74189e-05
4.72241e-05
-2.59906e-05
4.88083e-05
-2.44521e-05
5.05014e-05
-2.25791e-05
5.23176e-05
-2.02673e-05
5.42103e-05
-1.73027e-05
5.61361e-05
-1.35875e-05
5.80743e-05
-9.16303e-06
6.00333e-05
-4.14941e-06
6.20479e-05
1.31615e-06
6.41568e-05
7.11456e-06
6.64065e-05
1.31278e-05
6.88452e-05
1.92312e-05
7.15409e-05
2.52678e-05
7.45244e-05
3.11599e-05
7.77922e-05
3.6807e-05
4.20698e-05
2.68701e-06
-2.93722e-05
5.76607e-06
-3.52586e-05
7.65155e-06
-3.34412e-05
8.86221e-06
-3.18696e-05
9.86087e-06
-3.11955e-05
1.08705e-05
-3.11496e-05
1.19637e-05
-3.14358e-05
1.31529e-05
-3.18721e-05
1.44334e-05
-3.2365e-05
1.57971e-05
-3.28681e-05
1.72324e-05
-3.33494e-05
1.87262e-05
-3.37886e-05
2.02774e-05
-3.41935e-05
2.18684e-05
-3.4529e-05
2.34833e-05
-3.47824e-05
2.51114e-05
-3.49544e-05
2.67433e-05
-3.5046e-05
2.83696e-05
-3.50558e-05
2.99863e-05
-3.49878e-05
3.15816e-05
-3.4824e-05
3.31439e-05
-3.45117e-05
3.46549e-05
-3.34904e-05
3.60753e-05
-3.20127e-05
3.74091e-05
-3.04001e-05
3.86406e-05
-2.87009e-05
3.94672e-05
-2.62553e-05
3.92464e-05
-2.2115e-05
3.91439e-05
-1.74009e-05
4.06647e-05
-1.61291e-05
4.3315e-05
-1.61799e-05
4.70795e-05
-1.81128e-05
5.01532e-05
-2.03568e-05
5.24093e-05
-1.89875e-05
5.45312e-05
-1.53682e-05
5.66161e-05
-1.10271e-05
5.86898e-05
-6.09865e-06
6.08141e-05
-7.36636e-07
6.30334e-05
4.91927e-06
6.53583e-05
1.08029e-05
6.78407e-05
1.67487e-05
7.05715e-05
2.2537e-05
7.35631e-05
2.81682e-05
7.67955e-05
3.35746e-05
3.86232e-05
3.55811e-06
-3.23881e-05
6.50128e-06
-3.38779e-05
7.77503e-06
-2.89751e-05
8.35568e-06
-2.4352e-05
8.7674e-06
-2.05903e-05
9.31281e-06
-1.8365e-05
9.9957e-06
-1.71525e-05
1.07858e-05
-1.64785e-05
1.16702e-05
-1.61128e-05
1.26397e-05
-1.59767e-05
1.36618e-05
-1.59622e-05
1.47079e-05
-1.58587e-05
1.58252e-05
-1.59504e-05
1.68791e-05
-1.59167e-05
1.77956e-05
-1.56145e-05
1.85628e-05
-1.50364e-05
1.91635e-05
-1.4228e-05
1.95579e-05
-1.32052e-05
1.97648e-05
-1.20872e-05
1.96553e-05
-1.0814e-05
1.91357e-05
-9.41558e-06
1.80299e-05
-6.70031e-06
1.71365e-05
-2.83228e-06
1.64714e-05
-3.46063e-07
1.53984e-05
-4.48878e-08
1.31244e-05
-5.91629e-09
9.59951e-06
-8.00549e-10
8.26465e-06
-1.10554e-10
9.32798e-06
1.79442e-11
1.3175e-05
5.85325e-11
2.22491e-05
4.82918e-11
3.4143e-05
-4.26957e-06
4.24446e-05
-7.1704e-06
4.74746e-05
-8.59874e-06
5.1582e-05
-8.1699e-06
5.53385e-05
-6.2418e-06
5.85962e-05
-2.65871e-06
6.13561e-05
2.28274e-06
6.39887e-05
8.17036e-06
6.65611e-05
1.4177e-05
6.9324e-05
1.97744e-05
7.22964e-05
2.51958e-05
7.54609e-05
3.041e-05
7.88128e-05
3.52714e-05
3.97654e-05
3.91673e-06
-8.41591e-06
3.00714e-06
-1.26164e-06
2.72215e-06
-4.05799e-08
2.22035e-06
-1.06034e-09
1.88445e-06
-3.36111e-11
1.7746e-06
-1.27133e-12
1.74883e-06
1.21649e-12
1.76605e-06
8.44074e-13
1.82024e-06
5.2646e-10
1.90731e-06
6.56869e-10
2.00369e-06
1.05207e-09
2.09381e-06
1.6308e-09
2.22126e-06
1.39097e-09
2.28144e-06
7.95979e-10
2.23515e-06
3.61791e-10
2.09747e-06
1.42013e-10
1.88285e-06
5.63617e-11
1.59766e-06
2.30239e-11
1.27685e-06
9.42509e-12
8.91393e-07
3.84298e-12
1.22092e-06
1.58952e-12
8.14188e-07
6.88552e-13
3.99246e-07
3.38339e-13
5.17549e-08
2.60824e-13
6.85051e-09
4.29797e-13
9.33328e-10
7.95904e-13
1.31421e-10
1.35766e-12
1.89285e-11
1.93895e-12
-2.82247e-11
2.05558e-10
-1.00842e-10
4.31079e-10
-9.19727e-11
4.72776e-10
1.03922e-06
3.53574e-10
5.63068e-06
2.08714e-10
1.09293e-05
9.9281e-11
1.68648e-05
3.73828e-11
2.56192e-05
1.04622e-11
3.80928e-05
-4.69972e-07
5.09781e-05
5.4974e-08
5.9717e-05
3.56678e-06
6.44643e-05
9.44353e-06
6.80032e-05
1.62233e-05
7.10465e-05
2.21526e-05
7.41113e-05
2.73453e-05
7.73271e-05
3.20557e-05
3.64447e-05
4.75103e-07
1.65948e-14
4.16751e-08
3.67371e-15
1.09528e-09
4.36705e-16
3.49399e-11
3.86775e-17
1.32874e-12
4.27845e-18
5.74005e-14
1.11381e-18
-4.7512e-13
7.27038e-12
-3.56525e-13
3.26627e-12
-2.38457e-10
1.46643e-12
-3.17428e-10
4.26898e-12
-5.4079e-10
4.91942e-11
-8.89909e-10
2.80098e-10
-8.03892e-10
4.60281e-10
-4.86394e-10
4.43694e-10
-2.3355e-10
3.13554e-10
-9.68052e-11
1.80339e-10
-4.05586e-11
8.99312e-11
-1.74854e-11
4.06709e-11
-7.55285e-12
1.73062e-11
-3.25077e-12
7.18954e-12
-1.42206e-12
3.03761e-12
-6.54092e-13
1.3614e-12
-3.43596e-13
7.09385e-13
-2.86273e-13
6.09487e-13
-5.09445e-13
9.75542e-13
-1.02107e-12
1.78516e-12
-1.87718e-12
2.88857e-12
-2.88135e-12
4.01403e-12
-3.29471e-10
2.24407e-10
-7.4489e-10
4.69929e-10
-8.76173e-10
5.30183e-10
-7.12257e-10
4.28363e-10
-4.74712e-10
2.89227e-10
-2.69342e-10
1.6181e-10
-1.31241e-10
7.67379e-11
-5.45768e-11
3.11488e-11
1.14408e-07
1.02449e-11
3.07758e-06
1.6627e-12
1.1361e-05
5.70355e-08
3.14544e-05
4.98652e-07
5.97914e-05
4.29566e-06
6.75635e-05
1.4396e-05
7.27788e-05
2.21555e-05
7.60755e-05
2.87585e-05
3.32575e-05
-2.44036e-15
4.87129e-16
-7.05184e-16
1.78405e-16
-7.99237e-17
4.33956e-17
-7.82733e-18
1.27004e-17
-1.13475e-18
3.69142e-18
-3.68345e-19
1.77543e-18
-2.82604e-12
2.95544e-18
-1.4341e-12
4.48206e-15
-7.09401e-13
4.10595e-13
-2.24025e-12
2.94495e-12
-2.77188e-11
3.98155e-11
-1.68305e-10
2.26228e-10
-2.93689e-10
3.67144e-10
-2.99782e-10
3.5009e-10
-2.23873e-10
2.45498e-10
-1.35936e-10
1.40677e-10
-7.15475e-11
7.02766e-11
-3.4158e-11
3.20988e-11
-1.53537e-11
1.39756e-11
-6.74223e-12
6.05929e-12
-3.01111e-12
2.74066e-12
-1.42393e-12
1.34515e-12
-7.80409e-13
7.81758e-13
-7.01387e-13
7.47511e-13
-1.20705e-12
1.24199e-12
-2.35887e-12
2.26139e-12
-4.09203e-12
3.62676e-12
-6.12609e-12
5.0192e-12
-3.72939e-10
6.09181e-12
-8.63936e-10
6.60249e-12
-1.10277e-09
6.50883e-12
-1.01919e-09
5.99053e-12
-7.55856e-10
5.24908e-12
-4.82843e-10
4.23674e-12
-2.77371e-10
3.05343e-12
-1.46933e-10
1.88758e-12
-7.28208e-11
9.00865e-13
-3.46509e-11
2.53517e-13
5.70007e-08
3.58918e-14
5.52196e-07
7.15758e-09
7.05079e-06
1.42436e-07
2.57557e-05
5.65834e-07
5.91798e-05
2.69298e-06
7.13849e-05
1.78969e-05
2.68462e-05
4.03089e-17
3.07919e-16
1.38401e-18
1.73889e-16
-4.91093e-18
3.50063e-17
-2.36076e-18
1.01758e-17
-9.55387e-19
3.33348e-18
-5.91108e-19
2.08934e-18
-1.18334e-18
4.22297e-18
-2.06058e-15
1.5314e-17
-2.10175e-13
1.49467e-15
-1.64519e-12
1.07706e-13
-2.39525e-11
2.54342e-12
-1.45327e-10
1.72758e-11
-2.50543e-10
3.4069e-11
-2.52826e-10
3.90885e-11
-1.87089e-10
3.26404e-11
-1.12943e-10
2.22032e-11
-5.94006e-11
1.32588e-11
-2.85647e-11
7.38962e-12
-1.31016e-11
4.06463e-12
-5.98599e-12
2.31151e-12
-2.85184e-12
1.39288e-12
-1.47215e-12
8.866e-13
-8.98335e-13
6.34826e-13
-9.02222e-13
6.8445e-13
-1.59217e-12
1.15744e-12
-3.07912e-12
2.08446e-12
-5.27467e-12
3.31772e-12
-7.87526e-12
4.57717e-12
-1.04733e-11
5.57003e-12
-1.26917e-11
6.10097e-12
-1.42582e-11
6.13063e-12
-1.49844e-11
5.7644e-12
-1.47612e-11
5.12204e-12
-1.36997e-11
4.22723e-12
-1.20276e-11
3.16486e-12
-9.99924e-12
2.07e-12
-7.9002e-12
1.11612e-12
-5.95286e-12
4.59314e-13
-4.67126e-12
9.55256e-14
7.02126e-09
1.2976e-10
1.453e-07
5.9414e-09
6.93387e-07
2.64543e-08
4.6167e-06
1.72637e-07
2.44394e-05
7.66157e-07
2.86184e-06
3.3684e-17
1.04632e-16
1.46718e-18
7.69465e-17
-3.46711e-18
1.36871e-17
-1.93878e-18
4.25287e-18
-8.96157e-19
1.81382e-18
-7.21392e-19
1.93373e-18
-1.75688e-18
5.03035e-18
-7.34096e-18
1.83066e-17
-8.00463e-16
4.93173e-17
-6.30974e-14
1.04016e-16
-1.60644e-12
4.4227e-15
-1.16523e-11
9.98598e-14
-2.43895e-11
3.66187e-13
-2.9571e-11
7.37226e-13
-2.60086e-11
1.08485e-12
-1.85941e-11
1.31731e-12
-1.16562e-11
1.40255e-12
-6.81756e-12
1.35458e-12
-3.93643e-12
1.21207e-12
-2.35049e-12
1.01946e-12
-1.48699e-12
8.14445e-13
-9.93378e-13
6.22614e-13
-7.46866e-13
4.93704e-13
-8.47583e-13
5.33044e-13
-1.51574e-12
8.54761e-13
-2.89437e-12
1.48333e-12
-4.91595e-12
2.30597e-12
-7.321e-12
3.12469e-12
-9.77163e-12
3.75588e-12
-1.1957e-11
4.09836e-12
-1.36374e-11
4.14822e-12
-1.46311e-11
3.95627e-12
-1.48374e-11
3.57039e-12
-1.431e-11
3.01505e-12
-1.32051e-11
2.33973e-12
-1.17204e-11
1.62529e-12
-1.0031e-11
9.75044e-13
-8.24133e-12
4.72891e-13
-6.0451e-12
1.03617e-13
1.20069e-10
3.52527e-12
5.89567e-09
2.18964e-10
3.13864e-08
1.36749e-09
1.97847e-07
1.16288e-08
9.22622e-07
5.55354e-08
2.25793e-07
5.52696e-18
1.19819e-17
-6.98839e-19
8.8361e-18
-1.56047e-18
2.02615e-18
-8.61535e-19
8.33388e-19
-5.11006e-19
8.25609e-19
-6.90591e-19
1.79741e-18
-2.15135e-18
5.65292e-18
-9.00756e-18
2.04622e-17
-2.71264e-17
5.38671e-17
-6.26522e-17
1.08932e-16
-2.87468e-15
1.26924e-15
-6.93308e-14
3.25808e-14
-2.69691e-13
1.40417e-13
-5.73127e-13
3.31797e-13
-8.86991e-13
5.58326e-13
-1.12985e-12
7.51966e-13
-1.25995e-12
8.65061e-13
-1.27362e-12
8.85077e-13
-1.19274e-12
8.27187e-13
-1.05021e-12
7.19273e-13
-8.78581e-13
5.89444e-13
-7.03737e-13
4.59382e-13
-5.85513e-13
3.62291e-13
-6.65045e-13
3.59218e-13
-1.12594e-12
5.10349e-13
-2.07098e-12
8.14168e-13
-3.43644e-12
1.18279e-12
-5.0253e-12
1.48599e-12
-6.61383e-12
1.64857e-12
-8.02787e-12
1.67137e-12
-9.16558e-12
1.62306e-12
-9.94952e-12
1.56043e-12
-1.03175e-11
1.47043e-12
-1.02589e-11
1.32669e-12
-9.81999e-12
1.10036e-12
-9.09264e-12
8.18976e-13
-8.17151e-12
5.32898e-13
-7.1281e-12
2.85033e-13
-5.95075e-12
8.03359e-14
-6.37006e-13
-2.44307e-14
2.08723e-10
9.07367e-12
1.52613e-09
6.6281e-11
1.27326e-08
7.29667e-10
6.51529e-08
4.17958e-09
1.98558e-08
1.49063e-19
4.29171e-18
-4.36833e-19
2.95314e-18
-2.71708e-19
7.95946e-19
-1.79037e-19
3.40158e-19
-2.40016e-19
6.27347e-19
-6.52995e-19
1.85134e-18
-2.44166e-18
6.31053e-18
-1.01407e-17
2.24876e-17
-2.9834e-17
5.7482e-17
-6.61158e-17
1.12112e-16
-8.3208e-16
7.14324e-16
-2.2829e-14
1.59207e-14
-1.04371e-13