/*--------------------------------*- C++ -*----------------------------------*\
  =========                 |
  \\      /  F ield         | OpenFOAM: The Open Source CFD Toolbox
   \\    /   O peration     | Website:  https://openfoam.org
    \\  /    A nd           | Version:  9
     \\/     M anipulation  |
\*---------------------------------------------------------------------------*/
FoamFile
{
    format      ascii;
    class       volScalarField;
    location    "0.35";
    object      alpha.water;
}
// * * * * * * * * * * * * * * * * * * * * * * * * * * * * * * * * * * * * * //

dimensions      [0 0 0 0 0 0 0];

internalField   nonuniform List<scalar> 
1935
(
1
1
1
1
1
1
1
1
1
1
1
1
1
1
1
1
1
1
1
1
1
1
1
1
1
1
1
1
1
1
1
1
1
1
1
1
1
1
1
1
1
0.983432
0.91018
0.910423
1
1
1
1
1
1
1
1
1
1
1
1
1
1
1
1
1
1
1
1
1
1
1
1
1
1
1
1
1
1
1
1
1
1
1
1
1
1
1
1
1
1
0.950673
0.913694
1
1
1
1
1
1
1
1
1
1
1
1
1
1
1
1
1
1
1
1
1
1
1
1
1
1
1
1
1
1
1
1
1
1
1
1
1
1
1
1
1
1
0.999927
0.956382
1
1
1
1
1
1
1
1
1
1
1
1
1
1
1
1
1
1
1
1
1
1
1
1
1
1
1
1
1
1
1
1
1
1
1
1
1
1
1
1
1
1
0.999998
0.999671
1
1
1
1
1
1
1
1
1
1
1
1
1
1
1
1
1
1
1
1
1
1
1
1
1
1
1
1
1
1
1
1
1
1
1
1
1
1
1
1
1
1
1
0.999982
1
1
1
1
1
1
1
1
1
1
1
1
1
1
1
1
1
1
1
1
1
1
1
1
1
1
1
1
1
1
1
1
1
1
1
1
1
1
1
1
1
1
1
0.999998
1
1
1
1
1
1
1
1
1
1
1
1
1
1
1
1
1
1
1
1
1
1
1
1
1
1
1
1
1
1
1
1
1
1
1
1
1
1
1
1
1
1
1
1
1
1
1
1
1
1
1
1
1
1
1
1
1
1
1
1
1
1
1
1
1
1
1
1
1
1
1
1
1
1
1
1
1
1
1
1
1
1
1
1
1
1
1
1
1
1
1
1
1
1
1
1
1
1
1
1
1
1
1
1
1
1
1
1
1
1
1
1
1
1
1
1
1
1
1
1
1
1
1
1
1
1
1
1
1
1
1
1
1
1
1
1
1
1
1
1
1
1
1
1
1
1
1
1
1
1
1
1
1
1
1
1
1
1
1
1
1
1
1
1
1
1
1
1
1
1
1
1
1
1
1
1
1
1
1
1
1
1
1
1
1
1
1
1
1
1
1
1
1
1
1
1
1
1
1
1
1
1
1
1
1
1
1
1
1
1
1
1
1
1
1
1
1
1
1
1
1
1
1
1
1
1
1
1
1
1
1
1
1
1
1
1
1
1
1
1
1
1
1
1
1
1
1
1
1
1
1
1
1
1
1
1
1
1
1
1
1
1
1
1
1
1
1
1
1
1
1
1
1
1
1
1
1
1
1
1
1
1
1
1
1
1
1
1
1
1
1
1
1
1
1
1
1
1
1
1
1
1
1
1
1
1
1
1
1
1
1
1
1
1
1
1
1
1
1
1
1
1
1
1
1
1
1
1
1
1
1
1
1
1
1
1
1
1
1
1
1
1
1
1
1
1
1
1
1
1
1
1
1
1
1
1
1
1
1
1
1
1
1
1
1
1
1
1
1
1
1
1
1
1
1
1
1
1
1
1
1
1
1
1
1
1
1
1
1
1
1
1
1
1
1
1
1
1
1
1
1
1
0.999999
0.999999
0.999999
0.999999
0.999999
0.999999
0.999999
0.999999
0.999999
0.999999
0.999999
0.999999
0.999999
0.999999
0.999999
0.999998
0.999998
0.999998
0.999998
0.999998
0.999999
0.999999
0.999999
0.999999
0.999998
0.999998
0.999999
0.999999
1
1
1
1
1
1
1
1
1
1
1
0.999998
0.999998
0.999997
0.999997
0.999996
0.999995
0.999995
0.999994
0.999993
0.999993
0.999992
0.999992
0.999992
0.999991
0.999991
0.99999
0.999989
0.999989
0.999988
0.999987
0.999986
0.999985
0.999985
0.999985
0.999985
0.999985
0.999984
0.999985
0.999984
0.999981
0.999981
0.999984
0.999989
0.999995
0.999998
1
1
1
1
1
1
1
1
0.999994
0.99998
0.999979
0.999976
0.999971
0.999965
0.99996
0.999955
0.99995
0.999945
0.999942
0.999938
0.999934
0.999931
0.999928
0.999924
0.999919
0.999913
0.999906
0.9999
0.999892
0.999884
0.999877
0.999871
0.999869
0.999868
0.99986
0.999843
0.999846
0.999836
0.999801
0.999802
0.999834
0.99989
0.999942
0.999974
0.999993
1
1
1
1
1
1
1
0.999939
0.999834
0.999825
0.999805
0.999762
0.999714
0.99967
0.999629
0.999593
0.999561
0.999534
0.999507
0.999485
0.999464
0.999439
0.999408
0.99937
0.999325
0.999274
0.999219
0.999158
0.999088
0.999018
0.998961
0.998926
0.998884
0.99876
0.998526
0.99851
0.998484
0.998173
0.99818
0.998577
0.999115
0.999526
0.999753
0.999884
0.999995
1
1
1
1
1
1
0.99941
0.998676
0.998627
0.998451
0.998094
0.997712
0.99737
0.997074
0.996819
0.996611
0.996439
0.996263
0.996135
0.996008
0.995842
0.995624
0.995352
0.995018
0.994641
0.994215
0.993547
0.990189
0.985439
0.979226
0.972969
0.962567
0.934115
0.881629
0.87102
0.885899
0.928776
0.974799
0.990069
0.994072
0.996385
0.997702
0.998452
0.999425
1
1
1
1
1
1
0.993813
0.970797
0.9588
0.931732
0.890268
0.853412
0.825848
0.805627
0.790803
0.780857
0.774117
0.766192
0.7628
0.758135
0.748865
0.734318
0.714881
0.689859
0.661322
0.627987
0.589098
0.538139
0.478368
0.433004
0.398624
0.351555
0.26663
0.173697
0.167228
0.192692
0.287528
0.48672
0.697546
0.830626
0.904993
0.953558
0.97887
0.995504
0.999978
0.999983
0.999998
1
1
1
1
0.57626
0.405291
0.351641
0.275718
0.201682
0.156347
0.130215
0.114014
0.103447
0.0969937
0.0928669
0.0879389
0.0862883
0.0834256
0.0775789
0.0688586
0.0581142
0.0457951
0.0334945
0.020635
0.00481027
-1.5539e-06
-1.34528e-08
-4.36102e-11
-1.6153e-13
-9.64433e-16
-9.96278e-17
-5.95443e-23
-6.15556e-07
-2.13579e-06
-1.89913e-06
0.00441078
0.0508438
0.12944
0.214116
0.321141
0.483953
0.689933
0.941004
0.999838
1.00017
0.999994
0.999999
1
1
0.000714183
-6.10224e-13
-2.9633e-17
-2.38177e-21
0
0
-3.57763e-08
-2.43905e-08
-1.49326e-05
-1.82963e-05
-2.88121e-05
-4.39906e-05
-3.70295e-05
-2.09591e-05
-9.44369e-06
-3.68323e-06
-1.45591e-06
-5.93817e-07
-2.43362e-07
-9.96253e-08
-4.14984e-08
-1.81568e-08
-9.04281e-09
-7.10088e-09
-1.20229e-08
-2.29607e-08
-4.04584e-08
-6.00285e-08
-6.69995e-06
-1.49844e-05
-1.77457e-05
-1.4651e-05
-9.75362e-06
-5.45538e-06
-2.59275e-06
-1.03898e-06
5.74672e-20
0.0238511
0.0819993
0.221803
0.722626
0.999639
1.00014
1
0.999999
-3.00136e-10
-1.08645e-10
-1.31232e-11
-1.09334e-12
-1.21959e-13
-3.18057e-14
-2.05547e-07
-9.08716e-08
-4.00588e-08
-1.14504e-07
-1.2968e-06
-7.26932e-06
-1.17888e-05
-1.12399e-05
-7.87143e-06
-4.49627e-06
-2.23225e-06
-1.00768e-06
-4.29239e-07
-1.78982e-07
-7.60524e-08
-3.43102e-08
-1.80106e-08
-1.5608e-08
-2.58038e-08
-4.85612e-08
-8.14041e-08
-1.184e-07
-7.04444e-06
-1.6036e-05
-2.01556e-05
-1.83264e-05
-1.34812e-05
-8.56127e-06
-4.89867e-06
-2.59999e-06
-1.30302e-06
-6.19261e-07
-3.69099e-09
4.39748e-05
0.0354042
0.142379
0.510057
0.993151
1.00006
-7.68078e-12
-5.54505e-12
-1.31995e-12
-3.48488e-13
-9.91613e-14
-4.7604e-14
-7.87305e-14
-1.18022e-10
-1.06553e-08
-7.52452e-08
-1.00177e-06
-5.61228e-06
-8.99783e-06
-8.49035e-06
-5.90078e-06
-3.35741e-06
-1.66904e-06
-7.60516e-07
-3.3125e-07
-1.44032e-07
-6.54659e-08
-3.23442e-08
-1.89673e-08
-1.83858e-08
-3.13268e-08
-5.86488e-08
-9.75531e-08
-1.41885e-07
-1.84288e-07
-2.18348e-07
-2.39803e-07
-2.4678e-07
-2.39592e-07
-2.20307e-07
-1.92183e-07
-1.58999e-07
-1.24503e-07
-9.20524e-08
-7.15406e-08
-1.63327e-08
4.68631e-05
0.000217835
0.012258
0.117717
0.428288
-5.48363e-12
-4.52899e-12
-9.29883e-13
-2.57627e-13
-8.31565e-14
-5.21313e-14
-1.05175e-13
-3.79008e-13
-3.66339e-11
-2.60933e-09
-6.08607e-08
-4.08471e-07
-7.96863e-07
-9.05516e-07
-7.49801e-07
-5.06522e-07
-3.00955e-07
-1.67275e-07
-9.19958e-08
-5.24424e-08
-3.17532e-08
-2.03622e-08
-1.47417e-08
-1.61555e-08
-2.7958e-08
-5.18076e-08
-8.56271e-08
-1.24346e-07
-1.62002e-07
-1.93477e-07
-2.15304e-07
-2.25732e-07
-2.24665e-07
-2.1343e-07
-1.94313e-07
-1.70003e-07
-1.43081e-07
-1.15736e-07
-8.46385e-08
-1.10158e-09
4.42853e-07
8.58899e-06
0.000103218
0.000439138
0.00653645
-2.14784e-12
-1.73874e-12
-3.18658e-13
-9.82298e-14
-4.18527e-14
-4.4825e-14
-1.16936e-13
-4.25042e-13
-1.13945e-12
-2.38521e-12
-1.00505e-10
-2.24783e-09
-8.1676e-09
-1.63043e-08
-2.381e-08
-2.87268e-08
-3.04393e-08
-2.93184e-08
-2.62264e-08
-2.21101e-08
-1.77536e-08
-1.36847e-08
-1.09855e-08
-1.20688e-08
-1.98091e-08
-3.54123e-08
-5.72351e-08
-8.16385e-08
-1.04841e-07
-1.24133e-07
-1.3821e-07
-1.4646e-07
-1.48612e-07
-1.44874e-07
-1.36048e-07
-1.23494e-07
-1.08758e-07
-9.3282e-08
-7.71549e-08
-8.18972e-09
-1.28911e-08
2.91374e-07
4.19171e-06
2.6884e-05
0.000154601
-2.6313e-13
-1.84721e-13
-4.27031e-14
-1.76683e-14
-1.76498e-14
-3.87904e-14
-1.22864e-13
-4.46145e-13
-1.17368e-12
-2.36453e-12
-2.73896e-11
-6.98169e-10
-2.98694e-09
-7.00749e-09
-1.17138e-08
-1.56873e-08
-1.79704e-08
-1.83431e-08
-1.71427e-08
-1.49447e-08
-1.23151e-08
-9.68446e-09
-7.73885e-09
-7.81371e-09
-1.13701e-08
-1.87037e-08
-2.82638e-08
-3.73464e-08
-4.41348e-08
-4.83009e-08
-5.12678e-08
-5.45042e-08
-5.76249e-08
-5.95018e-08
-5.92687e-08
-5.60594e-08
-5.08882e-08
-4.48951e-08
-3.90775e-08
-2.8576e-08
-4.82671e-10
5.63542e-09
1.50129e-07
1.52118e-06
9.65367e-06
-9.59487e-14
-5.78973e-14
-1.54717e-14
-6.67773e-15
-1.24863e-14
-3.73469e-14
-1.28659e-13
-4.61556e-13
-1.18311e-12
-2.3063e-12
-1.46504e-11
-3.25013e-10
-1.4196e-09
-3.44216e-09
-5.96879e-09
-8.29759e-09
-9.85478e-09
-1.04011e-08
-1.0013e-08
-8.95176e-09
-7.52883e-09
-6.01409e-09
-4.76201e-09
-4.34672e-09
-5.27042e-09
-7.25949e-09
-8.89347e-09
-7.32695e-09
-1.93213e-09
2.40282e-09
1.30705e-08
1.38808e-08
6.83726e-09
-2.32595e-25
-5.07906e-09
-7.7254e-09
-7.30628e-09
-5.24226e-09
-3.22324e-09
-2.33874e-09
-6.01543e-12
-9.56301e-11
5.49613e-09
5.85699e-08
5.14575e-07
-1.85354e-14
-9.3585e-15
-2.99497e-15
-2.17181e-15
-1.03267e-14
-3.73449e-14
-1.35156e-13
-4.75908e-13
-1.1782e-12
-2.2206e-12
-8.16383e-12
-1.35068e-10
-6.02095e-10
-1.52204e-09
-2.76177e-09
-4.01076e-09
-4.95418e-09
-5.40628e-09
-5.34631e-09
-4.87817e-09
-4.16174e-09
-3.35337e-09
-2.61647e-09
-2.14264e-09
-2.01261e-09
-1.89748e-09
-9.50566e-10
2.60162e-09
1.14465e-08
5.10681e-08
5.16003e-08
5.16005e-08
5.16622e-08
3.25793e-08
5.58238e-09
2.15539e-09
3.5531e-09
9.33289e-09
1.2869e-08
1.28885e-08
1.27314e-08
7.37232e-09
8.97938e-10
2.26891e-09
2.29274e-08
-9.34811e-16
-4.14898e-16
-3.15204e-16
-1.33146e-15
-9.90487e-15
-3.82961e-14
-1.4159e-13
-4.85959e-13
-1.15306e-12
-2.09018e-12
-5.47635e-12
-6.0523e-11
-2.68357e-10
-6.98322e-10
-1.30884e-09
-1.95585e-09
-2.47088e-09
-2.73973e-09
-2.73579e-09
-2.50644e-09
-2.13637e-09
-1.71198e-09
-1.30589e-09
-9.71875e-10
-7.02399e-10
-4.03399e-10
-5.65435e-11
1.36578e-08
4.79159e-08
4.97495e-08
5.11823e-08
5.1624e-08
5.02635e-08
3.94543e-08
1.14233e-08
3.10829e-09
5.66321e-09
9.70634e-09
1.08815e-08
9.69049e-09
6.54713e-09
2.32328e-09
5.25956e-10
5.4961e-10
1.36742e-09
-2.3346e-19
-2.04528e-17
-1.94646e-16
-1.40933e-15
-9.93185e-15
-3.92843e-14
-1.45967e-13
-4.85373e-13
-1.09691e-12
-1.90213e-12
-4.25053e-12
-3.35955e-11
-1.41474e-10
-3.62861e-10
-6.74673e-10
-1.00018e-09
-1.25132e-09
-1.37096e-09
-1.34957e-09
-1.21612e-09
-1.01709e-09
-7.973e-10
-5.89073e-10
-4.09197e-10
-2.57925e-10
-1.22804e-10
6.23256e-11
1.28254e-09
1.07722e-08
3.19327e-08
3.13226e-08
1.8548e-08
9.26748e-10
7.6725e-11
9.70342e-11
1.86626e-10
1.81145e-10
2.00577e-10
2.1224e-10
2.26271e-10
3.38982e-10
4.94448e-10
5.30336e-10
5.43539e-10
6.33223e-10
-7.81913e-19
-2.13439e-17
-2.10143e-16
-1.51307e-15
-9.89964e-15
-3.96072e-14
-1.46195e-13
-4.68292e-13
-1.0025e-12
-1.65719e-12
-3.38405e-12
-2.07596e-11
-8.04472e-11
-1.96659e-10
-3.51955e-10
-5.04255e-10
-6.10951e-10
-6.48888e-10
-6.19382e-10
-5.40952e-10
-4.37815e-10
-3.3069e-10
-2.3264e-10
-1.49225e-10
-7.7322e-11
-8.82496e-12
3.87256e-11
3.71518e-11
4.35086e-11
4.95356e-11
5.43523e-11
5.9125e-11
6.41979e-11
7.11574e-11
1.02305e-10
1.46706e-10
1.88957e-10
2.41653e-10
3.1894e-10
4.20396e-10
5.20675e-10
6.2325e-10
7.52307e-10
7.55511e-10
7.53439e-10
-1.07735e-18
-2.17138e-17
-2.19206e-16
-1.56962e-15
-9.65748e-15
-3.87688e-14
-1.40726e-13
-4.31723e-13
-8.71015e-13
-1.36999e-12
-2.62562e-12
-1.28085e-11
-4.46917e-11
-1.02237e-10
-1.73448e-10
-2.37035e-10
-2.7495e-10
-2.80159e-10
-2.56732e-10
-2.15105e-10
-1.66423e-10
-1.18687e-10
-7.56919e-11
-3.83174e-11
-1.13572e-28
5.04396e-11
1.02471e-10
1.00848e-10
8.81322e-11
7.53475e-11
7.23479e-11
7.83904e-11
1.06436e-10
1.61336e-10
2.23149e-10
2.80315e-10
3.40358e-10
4.02217e-10
4.62163e-10
5.19944e-10
5.71972e-10
6.30853e-10
8.03188e-10
8.97496e-10
8.8816e-10
-1.16846e-18
-2.1417e-17
-2.20013e-16
-1.56355e-15
-9.12496e-15
-3.64788e-14
-1.29032e-13
-3.76855e-13
-7.13035e-13
-1.06702e-12
-1.96533e-12
-7.84552e-12
-2.41647e-11
-5.07373e-11
-8.03006e-11
-1.03302e-10
-1.13458e-10
-1.09791e-10
-9.55759e-11
-7.58644e-11
-5.50199e-11
-3.52811e-11
-1.68428e-11
0
3.85723e-11
1.11882e-10
1.32544e-10
1.32544e-10
1.28347e-10
1.16325e-10
1.16339e-10
1.27024e-10
1.57403e-10
1.97716e-10
2.36106e-10
2.74971e-10
2.86134e-10
2.93346e-10
3.07938e-10
3.35446e-10
3.78566e-10
4.3447e-10
5.02621e-10
6.06734e-10
7.63728e-10
-1.15156e-18
-2.03972e-17
-2.11563e-16
-1.48731e-15
-8.28076e-15
-3.27232e-14
-1.11839e-13
-3.09041e-13
-5.45838e-13
-7.78864e-13
-1.40792e-12
-4.74359e-12
-1.27064e-11
-2.40271e-11
-3.49164e-11
-4.17677e-11
-4.30159e-11
-3.91314e-11
-3.19301e-11
-2.35272e-11
-1.53004e-11
-7.42132e-12
0
1.92384e-11
5.72207e-11
1.15878e-10
1.30398e-10
1.31356e-10
1.19527e-10
9.98798e-11
9.91068e-11
1.05391e-10
1.21178e-10
1.27185e-10
1.30754e-10
1.36567e-10
1.47327e-10
1.63538e-10
1.85144e-10
2.11041e-10
2.39641e-10
2.69954e-10
2.95123e-10
3.18553e-10
3.84154e-10
-1.06524e-18
-1.86838e-17
-1.94087e-16
-1.34432e-15
-7.16553e-15
-2.77825e-14
-9.10144e-14
-2.36405e-13
-3.88234e-13
-5.31076e-13
-9.58914e-13
-2.81255e-12
-6.51584e-12
-1.09427e-11
-1.44292e-11
-1.59223e-11
-1.52731e-11
-1.28944e-11
-9.6277e-12
-6.29226e-12
-3.17475e-12
0
6.79555e-12
2.28122e-11
4.76476e-11
7.21415e-11
9.36727e-11
8.40337e-11
5.44297e-11
3.9974e-11
4.21221e-11
4.74878e-11
5.33219e-11
6.01605e-11
6.80707e-11
7.62942e-11
8.46652e-11
9.45403e-11
1.08938e-10
1.29853e-10
1.4989e-10
1.76438e-10
2.08806e-10
2.08052e-10
3.84186e-10
-9.34734e-19
-1.63964e-17
-1.69172e-16
-1.14915e-15
-5.87327e-15
-2.21739e-14
-6.90916e-14
-1.67557e-13
-2.55172e-13
-3.37804e-13
-6.16926e-13
-1.61542e-12
-3.25165e-12
-4.83347e-12
-5.77562e-12
-5.88631e-12
-5.23507e-12
-3.99494e-12
-2.57963e-12
-1.3119e-12
-1.27862e-13
1.76764e-12
7.02361e-12
1.2893e-11
2.11284e-11
3.03969e-11
2.92029e-11
2.24634e-11
1.55064e-11
1.59916e-11
1.81815e-11
2.19567e-11
2.64976e-11
3.08231e-11
3.44142e-11
3.7489e-11
4.18352e-11
5.09236e-11
6.8295e-11
9.53262e-11
1.17603e-10
1.52001e-10
2.52074e-10
2.15266e-10
2.24079e-10
-7.81126e-19
-1.37284e-17
-1.39513e-16
-9.24686e-16
-4.53025e-15
-1.65245e-14
-4.86034e-14
-1.09295e-13
-1.54301e-13
-2.00499e-13
-3.72239e-13
-8.82424e-13
-1.55849e-12
-2.06742e-12
-2.26564e-12
-2.14994e-12
-1.74466e-12
-1.12026e-12
-5.33124e-13
-9.7669e-14
3.21587e-13
1.20957e-12
2.52521e-12
4.50472e-12
7.47206e-12
7.76956e-12
6.76932e-12
5.23103e-12
5.65736e-12
6.70455e-12
8.27109e-12
1.01408e-11
1.19967e-11
1.34842e-11
1.44798e-11
1.5863e-11
1.99152e-11
3.09273e-11
5.19977e-11
8.45688e-11
1.10091e-10
1.6909e-10
2.96709e-10
4.36925e-10
3.768e-10
-6.219e-19
-1.09157e-17
-1.08361e-16
-6.96852e-16
-3.26584e-15
-1.14163e-14
-3.14587e-14
-6.5154e-14
-8.55829e-14
-1.11164e-13
-2.08838e-13
-4.49472e-13
-7.04153e-13
-8.47634e-13
-8.6768e-13
-7.63854e-13
-5.31801e-13
-2.29681e-13
-2.44506e-14
7.53296e-14
1.8082e-13
4.29137e-13
8.88007e-13
1.43313e-12
1.87462e-12
1.78155e-12
1.51989e-12
1.71125e-12
2.11935e-12
2.64229e-12
3.27122e-12
3.96011e-12
4.5032e-12
4.85287e-12
5.20425e-12
6.2536e-12
1.03895e-11
2.21297e-11
4.50947e-11
8.18372e-11
1.12467e-10
1.90817e-10
2.5867e-10
4.97489e-10
3.98717e-10
-4.70723e-19
-8.19751e-18
-7.88495e-17
-4.88936e-16
-2.18367e-15
-7.2536e-15
-1.85853e-14
-3.52422e-14
-4.34864e-14
-5.75689e-14
-1.07805e-13
-2.09829e-13
-2.95292e-13
-3.29417e-13
-3.17558e-13
-2.47688e-13
-1.22977e-13
2.74443e-15
4.18188e-14
3.28408e-14
6.49718e-14
1.59842e-13
2.76719e-13
3.86531e-13
4.04316e-13
3.85342e-13
4.35376e-13
5.59278e-13
7.0821e-13
8.72629e-13
1.07566e-12
1.27152e-12
1.40198e-12
1.50149e-12
1.6799e-12
2.51799e-12
6.2424e-12
1.76155e-11
4.25331e-11
8.24653e-11
1.18976e-10
2.38003e-10
2.654e-10
4.90001e-10
2.37966e-09
-3.37246e-19
-5.77593e-18
-5.34025e-17
-3.17092e-16
-1.34224e-15
-4.19895e-15
-9.93013e-15
-1.7173e-14
-2.02566e-14
-2.77341e-14
-5.05723e-14
-8.85503e-14
-1.13868e-13
-1.19764e-13
-1.06026e-13
-6.4097e-14
-8.18097e-15
2.88081e-14
1.996e-14
9.80865e-15
2.45748e-14
5.16522e-14
7.70457e-14
9.56351e-14
9.36486e-14
1.00252e-13
1.25881e-13
1.60397e-13
1.93939e-13
2.43227e-13
3.00049e-13
3.43726e-13
3.73521e-13
4.07543e-13
5.17236e-13
1.16197e-12
4.36268e-12
1.57068e-11
4.26527e-11
8.79692e-11
1.36676e-10
2.76757e-10
2.93033e-10
3.40097e-10
3.15162e-08
-2.27139e-19
-3.78655e-18
-3.33845e-17
-1.88335e-16
-7.50234e-16
-2.18963e-15
-4.74737e-15
-7.48926e-15
-8.66171e-15
-1.22947e-14
-2.12611e-14
-3.3404e-14
-3.99732e-14
-3.94248e-14
-2.93834e-14
-8.89233e-15
7.53296e-15
1.15665e-14
2.18922e-15
2.87772e-15
8.30943e-15
1.58306e-14
2.18005e-14
2.50948e-14
2.35178e-14
2.55195e-14
3.01249e-14
3.62855e-14
4.55401e-14
5.83816e-14
6.97359e-14
7.84599e-14
8.67052e-14
1.02454e-13
1.79854e-13
6.94127e-13
3.63069e-12
1.54534e-11
4.58685e-11
9.80279e-11
1.68957e-10
3.20787e-10
5.53355e-10
8.27297e-10
4.10667e-08
-1.42398e-19
-2.28495e-18
-1.90541e-17
-1.01213e-16
-3.76129e-16
-1.01432e-15
-2.00604e-15
-2.90805e-15
-3.39346e-15
-4.92191e-15
-7.89181e-15
-1.11454e-14
-1.2472e-14
-1.09382e-14
-5.51199e-15
1.55061e-15
1.0596e-15
3.80913e-16
3.50711e-16
8.93258e-16
)
;

boundaryField
{
    leftWall
    {
        type            zeroGradient;
    }
    rightWall
    {
        type            zeroGradient;
    }
    lowerWall
    {
        type            zeroGradient;
    }
    atmosphere
    {
        type            inletOutlet;
        inletValue      nonuniform List<scalar> 0();
        value           nonuniform List<scalar> 0();
    }
    defaultFaces
    {
        type            empty;
    }
    procBoundary0to1
    {
        type            processor;
        value           nonuniform List<scalar> 
44
(
0.988995
0.998347
0.985275
0.996875
0.999965
0.999975
0.999999
1
1
1
1
1
1
1
1
1
1
1
1
1
1
1
1
1.00002
0.999967
0.974374
0.116504
0.000710902
5.5832e-05
4.17795e-06
1.68647e-07
1.14838e-08
1.20668e-09
7.59858e-10
7.75536e-10
7.59879e-10
4.14184e-10
1.68962e-09
1.48206e-08
3.9412e-10
4.19092e-10
5.82692e-10
1.76491e-08
3.08624e-08
)
;
    }
    procBoundary0to2
    {
        type            processor;
        value           nonuniform List<scalar> 
46
(
2.65577e-15
4.71923e-15
6.10294e-15
6.47235e-15
5.29284e-15
5.05133e-15
5.61907e-15
7.02485e-15
9.21915e-15
1.16212e-14
1.36977e-14
1.56432e-14
1.85035e-14
2.83138e-14
9.09049e-14
5.45589e-13
3.42854e-12
1.60288e-11
5.00896e-11
1.117e-10
2.03239e-10
3.74193e-10
1.11044e-09
1.84095e-09
4.09769e-08
-8.19338e-20
-1.25127e-18
-9.78247e-18
-4.84189e-17
-1.66155e-16
-4.10188e-16
-7.39101e-16
-1.00166e-15
-1.20438e-15
-1.73435e-15
-2.54188e-15
-3.23359e-15
-3.27859e-15
-2.24954e-15
-2.55158e-16
1.01562e-15
1.36749e-16
9.74421e-17
9.67867e-17
2.65577e-15
2.68481e-16
)
;
    }
}


// ************************************************************************* //
