/*--------------------------------*- C++ -*----------------------------------*\
  =========                 |
  \\      /  F ield         | OpenFOAM: The Open Source CFD Toolbox
   \\    /   O peration     | Website:  https://openfoam.org
    \\  /    A nd           | Version:  9
     \\/     M anipulation  |
\*---------------------------------------------------------------------------*/
FoamFile
{
    format      ascii;
    class       volScalarField;
    location    "0.35";
    object      p;
}
// * * * * * * * * * * * * * * * * * * * * * * * * * * * * * * * * * * * * * //

dimensions      [1 -1 -2 0 0 0 0];

internalField   nonuniform List<scalar> 
1935
(
1109.83
1109.63
1113.44
1120.06
1127.39
1134.44
1140.86
1146.63
1151.84
1156.65
1161.16
1165.46
1169.61
1173.65
1177.61
1181.53
1185.44
1189.35
1193.32
1197.38
1201.58
1205.99
1210.7
1215.81
1221.47
1227.84
1235.15
1243.67
1253.75
1265.84
1280.55
1298.73
1321.14
1348.4
1381.04
1419.49
1463.58
1512.02
1562.06
1609.61
1650.06
1680.28
1695.75
1700.64
1061.26
1060.19
1063.22
1069.13
1075.49
1081.89
1087.92
1093.49
1098.6
1103.34
1107.76
1111.94
1115.93
1119.78
1123.52
1127.2
1130.85
1134.52
1138.24
1142.08
1146.09
1150.36
1154.98
1160.07
1165.8
1172.33
1179.91
1188.84
1199.48
1212.28
1227.78
1246.58
1269.62
1297.79
1331.81
1372.18
1418.9
1470.9
1525.41
1577.66
1621.42
1651.73
1662.04
1652.68
1012.03
1012.05
1014.78
1019.25
1024.43
1029.83
1035.1
1040.09
1044.75
1049.08
1053.11
1056.89
1060.46
1063.86
1067.14
1070.35
1073.54
1076.76
1080.07
1083.53
1087.22
1091.24
1095.69
1100.72
1106.49
1113.21
1121.14
1130.58
1141.91
1155.59
1172.16
1192.22
1216.56
1246.03
1281.33
1322.88
1370.61
1423.53
1479.16
1533.08
1579.02
1610.9
1623.16
1615.65
962.595
963.817
966.446
970.089
974.341
978.826
983.286
987.572
991.611
995.376
998.868
1002.11
1005.14
1007.99
1010.72
1013.39
1016.04
1018.74
1021.56
1024.57
1027.87
1031.56
1035.77
1040.64
1046.37
1053.17
1061.3
1071.09
1082.91
1097.23
1114.56
1135.46
1160.59
1190.68
1226.38
1267.99
1315.32
1367.39
1421.97
1475.35
1522.37
1557.69
1577.08
1581.81
912.694
914.91
917.584
920.749
924.337
928.099
931.853
935.482
938.911
942.1
945.041
947.744
950.239
952.564
954.767
956.905
959.04
961.239
963.577
966.14
969.027
972.354
976.258
980.9
986.47
993.196
1001.35
1011.25
1023.28
1037.87
1055.5
1076.7
1102.02
1132.07
1167.36
1208.12
1254.1
1304.4
1357.18
1409.54
1457.56
1497.05
1524.8
1544.05
862.203
865.102
867.902
870.758
873.837
877.012
880.161
883.2
886.064
888.714
891.134
893.332
895.331
897.167
898.886
900.543
902.203
903.936
905.823
907.954
910.434
913.386
916.953
921.302
926.628
933.163
941.178
950.989
962.961
977.505
995.068
1016.12
1041.11
1070.55
1104.84
1144.12
1188.14
1236.11
1286.6
1337.46
1385.87
1428.78
1464.12
1497.42
811.154
814.503
817.396
819.987
822.631
825.296
827.908
830.41
832.751
834.896
836.83
838.557
840.099
841.485
842.761
843.979
845.203
846.507
847.972
849.692
851.775
854.347
857.554
861.567
866.581
872.828
880.575
890.129
901.837
916.081
933.265
953.795
978.056
1006.43
1039.24
1076.56
1118.12
1163.27
1210.89
1259.38
1306.78
1351.05
1391.44
1435.52
759.558
763.214
766.108
768.428
770.666
772.857
774.969
776.968
778.817
780.487
781.965
783.253
784.37
785.342
786.21
787.024
787.847
788.752
789.82
791.147
792.84
795.027
797.854
801.492
806.136
812.013
819.383
828.541
839.816
853.554
870.115
889.842
913.042
939.996
970.943
1005.91
1044.61
1086.46
1130.51
1175.5
1219.95
1262.46
1303.21
1351.12
707.441
711.29
714.091
716.118
717.953
719.682
721.308
722.821
724.198
725.415
726.46
727.334
728.052
728.638
729.127
729.564
730.011
730.539
731.227
732.17
733.476
735.27
737.696
740.923
745.142
750.574
757.473
766.122
776.826
789.9
805.652
824.364
846.265
871.539
900.34
932.647
968.14
1006.22
1046
1086.25
1125.52
1162.34
1196.6
1236.36
654.83
658.784
661.42
663.126
664.548
665.809
666.949
667.981
668.895
669.672
670.299
670.775
671.112
671.329
671.456
671.536
671.623
671.786
672.104
672.667
673.581
674.967
676.968
679.746
683.489
688.411
694.757
702.799
712.826
725.117
739.93
757.482
777.925
801.345
827.809
857.243
889.269
923.225
958.111
992.496
1024.46
1051.54
1071.43
1086.78
601.303
605.292
607.711
609.067
610.048
610.821
611.462
612.007
612.453
612.789
613
613.082
613.043
612.897
612.67
612.397
612.13
611.932
611.878
612.054
612.563
613.521
615.066
617.355
620.569
624.913
630.628
637.978
647.238
658.657
672.441
688.736
707.615
729.068
753.069
779.481
807.866
837.453
867.052
894.855
918.147
932.763
932.557
908.16
546.67
550.639
552.804
553.775
554.279
554.535
554.655
554.69
554.653
554.534
554.319
553.999
553.579
553.066
552.48
551.851
551.225
550.659
550.223
550
550.084
550.588
551.644
553.4
556.029
559.729
564.733
571.31
579.73
590.218
602.924
617.919
635.187
654.625
676.108
699.44
724.137
749.322
773.624
794.9
809.815
813.1
796.261
743.477
491.246
495.157
497.039
497.585
497.571
497.274
496.839
496.336
495.786
495.188
494.526
493.789
492.972
492.081
491.125
490.129
489.132
488.185
487.353
486.711
486.349
486.371
486.902
488.084
490.076
493.063
497.279
503.007
510.537
520.073
531.712
545.436
561.125
578.583
597.592
617.911
639.047
660.072
679.52
695.118
703.404
699.192
674.915
619.227
435.155
438.98
440.552
440.628
440.044
439.144
438.106
437.018
435.914
434.799
433.656
432.471
431.236
429.945
428.6
427.219
425.832
424.485
423.237
422.154
421.319
420.829
420.802
421.369
422.672
424.876
428.215
433.015
439.617
448.221
458.863
471.42
485.638
501.22
517.872
535.338
553.169
570.468
585.787
596.924
600.661
592.512
566.758
516.81
378.565
382.278
383.509
383.061
381.84
380.263
378.55
376.811
375.095
373.41
371.741
370.07
368.384
366.667
364.909
363.118
361.318
359.549
357.862
356.316
354.984
353.953
353.336
353.255
353.825
355.174
357.533
361.306
366.951
374.678
384.46
396.036
408.969
422.836
437.3
452.131
466.99
481.107
493.152
501.117
502.186
492.615
468.024
424.101
321.683
325.265
326.128
325.086
323.123
320.762
318.276
315.804
313.405
311.09
308.844
306.645
304.475
302.303
300.107
297.882
295.646
293.434
291.29
289.265
287.416
285.821
284.593
283.847
283.655
284.076
285.315
287.912
292.563
299.51
308.649
319.537
331.454
343.806
356.262
368.682
380.915
392.422
402.072
408.111
408.17
399.147
377.614
340.639
264.786
268.24
268.71
266.962
264.105
260.808
257.426
254.121
250.957
247.947
245.07
242.296
239.608
236.955
234.293
231.604
228.903
226.218
223.591
221.06
218.663
216.459
214.576
213.142
212.158
211.525
211.355
212.451
216.039
222.405
231.339
242.1
253.469
264.595
275.221
285.423
295.343
304.773
312.841
318.063
318.541
311.669
294.708
265.693
208.313
211.55
211.59
208.966
204.961
200.48
195.987
191.669
187.59
183.755
180.131
176.679
173.392
170.185
166.974
163.727
160.455
157.187
153.97
150.82
147.741
144.77
142.094
139.92
138.125
136.237
134.093
133.015
135.414
141.597
151.202
163.001
174.775
185.203
194.241
202.431
210.381
218.309
225.611
230.985
233.067
229.557
218.099
197.305
152.534
155.4
154.949
151.062
145.376
139.236
133.266
127.644
122.399
117.521
112.95
108.634
104.607
100.723
96.8277
92.8768
88.8897
84.9131
81.0153
77.1819
73.3573
69.5996
66.2322
63.6687
61.5935
58.8369
54.6782
51.2265
52.4171
58.3988
68.8488
82.2877
95.1013
104.999
112.234
118.244
124.466
131.654
139.395
146.17
151.233
152.2
146.786
134.105
97.3996
100.589
98.9884
92.7498
84.6892
76.8175
69.7003
63.2594
57.3673
51.961
46.9281
42.2055
37.9242
33.8683
29.8263
25.7904
21.8301
18.0357
14.5162
11.2167
8.0083
5.01524
2.66028
1.44637
0.915332
-0.514214
-3.84751
-6.69094
-6.24458
-2.76573
4.18923
14.6163
24.58
30.5668
32.8653
33.8565
36.3147
41.8406
50.4224
59.9476
70.5333
78.1417
79.7457
75.2866
46.4315
49.1316
44.8627
36.5614
28.4377
22.1622
17.3226
13.2496
9.63165
6.37319
3.35016
0.536546
-1.91762
-4.13252
-6.20365
-8.0373
-9.52679
-10.5722
-11.1101
-11.1802
-10.8988
-10.5151
-9.90671
-9.02287
-8.08464
-7.55863
-7.68652
-7.45058
-7.33854
-7.09909
-6.96065
-6.69489
-6.84988
-9.5509
-15.6605
-23.9781
-31.8857
-36.3855
-35.8372
-29.3897
-13.4738
3.2763
13.9856
19.2473
17.9434
13.4502
10.7735
7.78501
4.27564
1.72077
0.229125
-0.693334
-1.37304
-1.9319
-2.41172
-2.85175
-3.24597
-3.58741
-3.87747
-4.10846
-4.24256
-4.25864
-4.13937
-3.9025
-3.54321
-2.92527
-2.65542
-2.63631
-2.6361
-2.63654
-2.66204
-2.74157
-2.84279
-2.89524
-2.92141
-2.93619
-3.06377
-3.98383
-5.93172
-9.60094
-15.8116
-25.8592
-41.9055
-61.3277
-79.7553
-81.3446
-68.5822
-53.3968
-37.6979
-28.2031
-2.39635
-1.80531
-2.01447
-2.20522
-2.17313
-2.14947
-2.14191
-2.1464
-2.15949
-2.17848
-2.20313
-2.23133
-2.26059
-2.29245
-2.32893
-2.36769
-2.40726
-2.4457
-2.48253
-2.51799
-2.49802
-2.45967
-2.44877
-2.46177
-2.48765
-2.52333
-2.5694
-2.62024
-2.66496
-2.69759
-2.70537
-2.72204
-2.85195
-3.15416
-3.37183
-3.56472
-3.79199
-6.89745
-15.053
-30.158
-57.3681
-81.6669
-94.9344
-88.5338
-75.1345
-2.30393
-2.19594
-2.18193
-2.18735
-2.16119
-2.1356
-2.11802
-2.10747
-2.10302
-2.10419
-2.11082
-2.12247
-2.13852
-2.15921
-2.18512
-2.21641
-2.25341
-2.29672
-2.34765
-2.41009
-2.48321
-2.53646
-2.56167
-2.58744
-2.62014
-2.6589
-2.70343
-2.75059
-2.79393
-2.82826
-2.84824
-2.86822
-2.92866
-3.02917
-3.10693
-3.15199
-3.15816
-3.3969
-4.17821
-4.65176
-9.45667
-23.0024
-48.8801
-77.6288
-94.2201
-2.33208
-2.2987
-2.26227
-2.24933
-2.23261
-2.21581
-2.20386
-2.1977
-2.19729
-2.20235
-2.21264
-2.22768
-2.24699
-2.27082
-2.29963
-2.33355
-2.37255
-2.41658
-2.46551
-2.51943
-2.57679
-2.62484
-2.66069
-2.69534
-2.7321
-2.77294
-2.81805
-2.865
-2.90945
-2.94888
-2.98384
-3.02306
-3.08267
-3.16094
-3.23531
-3.2921
-3.31549
-3.34001
-3.4689
-3.5431
-3.87471
-4.94385
-7.23939
-18.9214
-41.4484
-2.36655
-2.34566
-2.325
-2.31046
-2.29761
-2.28589
-2.27797
-2.27508
-2.27752
-2.28517
-2.29782
-2.3151
-2.33666
-2.36261
-2.39319
-2.42837
-2.46792
-2.51147
-2.55843
-2.60765
-2.65679
-2.7019
-2.74272
-2.78249
-2.82331
-2.86657
-2.91237
-2.95936
-3.00549
-3.05006
-3.09424
-3.14378
-3.20677
-3.28159
-3.35758
-3.42821
-3.49008
-3.55764
-3.65805
-3.69222
-3.69278
-3.87828
-4.19323
-4.98715
-6.69257
-2.41162
-2.39977
-2.38523
-2.3716
-2.36028
-2.35112
-2.34556
-2.34459
-2.34856
-2.35746
-2.37118
-2.38949
-2.41217
-2.43917
-2.47057
-2.50627
-2.54603
-2.58942
-2.6358
-2.68421
-2.73291
-2.77986
-2.8246
-2.86854
-2.91293
-2.95868
-3.00587
-3.05393
-3.10218
-3.15053
-3.20029
-3.25477
-3.31782
-3.38865
-3.46217
-3.53557
-3.61
-3.69428
-3.79434
-3.86989
-3.92306
-4.00573
-4.05871
-4.19686
-4.49074
-2.47243
-2.46039
-2.44741
-2.43498
-2.42509
-2.41796
-2.41441
-2.41519
-2.4206
-2.43072
-2.44548
-2.46475
-2.48838
-2.5163
-2.54845
-2.58471
-2.62481
-2.66834
-2.71469
-2.76304
-2.81224
-2.86102
-2.90886
-2.95623
-3.00378
-3.05201
-3.10108
-3.15093
-3.20144
-3.25291
-3.30635
-3.36378
-3.42712
-3.49586
-3.56789
-3.64198
-3.71896
-3.80294
-3.89577
-3.98481
-4.07436
-4.17873
-4.26193
-4.34457
-4.42088
-2.53702
-2.5244
-2.51217
-2.50103
-2.49272
-2.48751
-2.48588
-2.48835
-2.49524
-2.50662
-2.52249
-2.54277
-2.56735
-2.59613
-2.62903
-2.66589
-2.70643
-2.75026
-2.79682
-2.84542
-2.8952
-2.94532
-2.99531
-3.04522
-3.09527
-3.14574
-3.19682
-3.24865
-3.30142
-3.35553
-3.41183
-3.47154
-3.53569
-3.60415
-3.67598
-3.75059
-3.82842
-3.91114
-3.99936
-4.0892
-4.18394
-4.29036
-4.39626
-4.50507
-4.6027
-2.60386
-2.59078
-2.5794
-2.56974
-2.56308
-2.55967
-2.5598
-2.56386
-2.57212
-2.58469
-2.6016
-2.62281
-2.64824
-2.67779
-2.71136
-2.74878
-2.78977
-2.83396
-2.88085
-2.92984
-2.98025
-3.03145
-3.083
-3.13477
-3.1868
-3.23922
-3.29221
-3.34597
-3.40083
-3.45724
-3.51584
-3.57743
-3.64263
-3.71147
-3.78358
-3.85868
-3.93703
-4.01938
-4.10599
-4.19562
-4.28989
-4.39217
-4.49909
-4.61204
-4.72624
-2.67204
-2.65931
-2.64914
-2.64107
-2.63602
-2.63425
-2.63596
-2.64145
-2.65094
-2.66458
-2.68241
-2.70442
-2.73057
-2.76078
-2.79491
-2.83282
-2.87422
-2.91877
-2.96602
-3.01543
-3.06644
-3.1185
-3.17122
-3.22439
-3.27797
-3.33201
-3.38666
-3.44216
-3.49886
-3.55718
-3.61764
-3.68077
-3.74698
-3.81639
-3.88889
-3.96439
-4.04306
-4.12536
-4.21152
-4.30135
-4.3957
-4.49606
-4.60138
-4.71196
-4.82607
-2.74137
-2.72987
-2.72123
-2.71479
-2.71124
-2.71093
-2.71402
-2.72077
-2.73136
-2.74594
-2.76456
-2.78726
-2.814
-2.84472
-2.87931
-2.91761
-2.95936
-3.00423
-3.0518
-3.10159
-3.15311
-3.20584
-3.25943
-3.31363
-3.36837
-3.42368
-3.47969
-3.53663
-3.59482
-3.65466
-3.71657
-3.78092
-3.848
-3.91797
-3.99085
-4.06668
-4.14564
-4.22805
-4.31423
-4.4044
-4.49918
-4.59925
-4.70416
-4.81355
-4.92627
-2.81193
-2.80232
-2.79536
-2.79045
-2.78827
-2.78922
-2.79352
-2.80135
-2.8129
-2.82828
-2.84758
-2.87084
-2.89806
-2.92919
-2.96413
-3.00273
-3.04474
-3.08984
-3.13766
-3.18775
-3.23964
-3.29286
-3.34705
-3.40196
-3.45753
-3.51377
-3.5708
-3.62884
-3.68817
-3.74915
-3.81211
-3.87734
-3.94509
-4.01552
-4.08875
-4.1649
-4.24417
-4.32689
-4.4134
-4.50407
-4.59941
-4.69982
-4.805
-4.91438
-5.02696
-2.88378
-2.87641
-2.87104
-2.86752
-2.86655
-2.86861
-2.87392
-2.88268
-2.89504
-2.91111
-2.93098
-2.95471
-2.98231
-3.01375
-3.04894
-3.08774
-3.12992
-3.17517
-3.22313
-3.27338
-3.32548
-3.37899
-3.43354
-3.4889
-3.54499
-3.60184
-3.65956
-3.71835
-3.77846
-3.84019
-3.90384
-3.96966
-4.03786
-4.10863
-4.18216
-4.25863
-4.3383
-4.42147
-4.50855
-4.59992
-4.69604
-4.7972
-4.90315
-5.01327
-5.12661
-2.95682
-2.95174
-2.94774
-2.94543
-2.94554
-2.94856
-2.95476
-2.96431
-2.97735
-2.99399
-3.01434
-3.03844
-3.06632
-3.09798
-3.13334
-3.17226
-3.21451
-3.2598
-3.30778
-3.35806
-3.41021
-3.46381
-3.51852
-3.57408
-3.63041
-3.68756
-3.74562
-3.8048
-3.86533
-3.92746
-3.99147
-4.05759
-4.12606
-4.19709
-4.27089
-4.34771
-4.42783
-4.51159
-4.5994
-4.69168
-4.78889
-4.89127
-4.99863
-5.11031
-5.2253
-3.03072
-3.02775
-3.02487
-3.02364
-3.02472
-3.0286
-3.03557
-3.04581
-3.05943
-3.07655
-3.09727
-3.12165
-3.14973
-3.18152
-3.21694
-3.25587
-3.2981
-3.34334
-3.39124
-3.44141
-3.49347
-3.547
-3.60165
-3.65719
-3.71352
-3.77066
-3.82875
-3.88797
-3.94855
-4.01074
-4.07483
-4.14105
-4.20966
-4.28088
-4.35495
-4.43215
-4.51278
-4.59721
-4.6859
-4.77934
-4.87802
-4.98221
-5.09175
-5.20592
-5.32352
-3.10499
-3.10383
-3.10187
-3.10161
-3.10358
-3.10825
-3.11592
-3.12675
-3.14087
-3.15838
-3.17939
-3.20397
-3.23216
-3.26397
-3.29936
-3.33821
-3.38032
-3.4254
-3.47312
-3.5231
-3.57493
-3.62824
-3.68267
-3.73798
-3.79405
-3.85093
-3.90873
-3.96767
-4.02798
-4.08997
-4.15391
-4.22009
-4.28876
-4.36016
-4.43452
-4.51213
-4.59331
-4.6785
-4.76824
-4.86315
-4.9638
-5.07049
-5.18307
-5.3007
-5.42195
-3.17905
-3.17938
-3.17822
-3.17886
-3.18165
-3.18705
-3.19535
-3.20672
-3.22126
-3.2391
-3.26032
-3.28502
-3.31323
-3.34499
-3.38026
-3.41893
-3.46081
-3.50565
-3.5531
-3.60279
-3.6543
-3.70725
-3.76129
-3.81617
-3.87178
-3.92814
-3.98539
-4.04378
-4.10359
-4.16517
-4.22883
-4.29488
-4.3636
-4.43519
-4.50988
-4.58793
-4.66972
-4.75578
-4.84681
-4.94359
-5.04678
-5.15676
-5.27328
-5.3954
-5.52135
-3.25238
-3.25391
-3.25348
-3.25496
-3.25853
-3.26461
-3.2735
-3.28533
-3.30024
-3.31834
-3.33971
-3.36445
-3.39262
-3.42425
-3.45931
-3.49772
-3.5393
-3.58381
-3.63091
-3.68021
-3.73129
-3.78377
-3.83729
-3.89158
-3.94652
-4.00215
-4.05862
-4.11624
-4.17537
-4.2364
-4.29971
-4.36565
-4.43444
-4.50628
-4.58134
-4.65988
-4.74236
-4.82946
-4.92208
-5.02119
-5.12758
-5.24164
-5.36304
-5.49067
-5.62242
-3.32448
-3.32697
-3.32727
-3.32958
-3.3339
-3.34063
-3.35005
-3.36231
-3.37752
-3.3958
-3.41726
-3.44197
-3.47003
-3.50145
-3.53623
-3.5743
-3.61551
-3.65962
-3.70629
-3.75513
-3.80572
-3.85763
-3.9105
-3.96405
-4.01816
-4.07286
-4.12837
-4.18505
-4.24335
-4.30377
-4.36674
-4.43261
-4.50157
-4.57373
-4.64922
-4.72832
-4.81157
-4.8999
-4.99444
-5.09638
-5.20662
-5.32555
-5.45271
-5.58681
-5.72543
-3.39498
-3.39825
-3.39933
-3.40244
-3.4075
-3.41485
-3.42477
-3.43739
-3.45285
-3.47125
-3.49271
-3.51733
-3.54518
-3.57632
-3.61076
-3.64843
-3.6892
-3.73283
-3.77902
-3.82736
-3.87741
-3.92871
-3.98085
-4.03355
-4.08667
-4.14027
-4.19464
-4.25023
-4.30761
-4.3674
-4.43008
-4.49599
-4.56524
-4.63784
-4.71382
-4.79349
-4.87757
-4.96726
-5.06401
-5.16926
-5.284
-5.40852
-5.54218
-5.68346
-5.82981
-3.46367
-3.46752
-3.46944
-3.47335
-3.47913
-3.48709
-3.49747
-3.51041
-3.52604
-3.54449
-3.56588
-3.59031
-3.61788
-3.64866
-3.68266
-3.71986
-3.76013
-3.80325
-3.84892
-3.89674
-3.94621
-3.99683
-4.04819
-4.09995
-4.15198
-4.20437
-4.25748
-4.31189
-4.36831
-4.42747
-4.48992
-4.55597
-4.62563
-4.69875
-4.77526
-4.85551
-4.94045
-5.03159
-5.1308
-5.23976
-5.35951
-5.49018
-5.63088
-5.77987
-5.93472
-3.53048
-3.53468
-3.53748
-3.54218
-3.54868
-3.55723
-3.56804
-3.58125
-3.59702
-3.61545
-3.63669
-3.66086
-3.68805
-3.71837
-3.75186
-3.78851
-3.8282
-3.87075
-3.91585
-3.96304
-4.01177
-4.06157
-4.11203
-4.16279
-4.21372
-4.26495
-4.31688
-4.37022
-4.42578
-4.48438
-4.54662
-4.61276
-4.68273
-4.75627
-4.83329
-4.9142
-5.00015
-5.09298
-5.19484
-5.30763
-5.43247
-5.56946
-5.71756
-5.87516
-6.03878
-3.59543
-3.59969
-3.60341
-3.60893
-3.61615
-3.62527
-3.63649
-3.64995
-3.6658
-3.68419
-3.70524
-3.72909
-3.75587
-3.78566
-3.81855
-3.85454
-3.89355
-3.93538
-3.97969
-4.02599
)
;

boundaryField
{
    leftWall
    {
        type            calculated;
        value           nonuniform List<scalar> 
44
(
1109.83
1061.26
1012.03
962.595
912.694
862.203
811.154
759.558
707.441
654.83
601.303
546.67
491.246
435.155
378.565
321.683
264.786
208.313
152.534
97.3996
46.4315
13.4502
-2.39635
-2.30393
-2.33208
-2.36655
-2.41162
-2.47243
-2.53702
-2.60386
-2.67204
-2.74137
-2.81193
-2.88378
-2.95682
-3.03072
-3.10499
-3.17905
-3.25238
-3.32448
-3.39498
-3.46367
-3.53048
-3.59543
)
;
    }
    rightWall
    {
        type            calculated;
        value           nonuniform List<scalar> 0();
    }
    lowerWall
    {
        type            calculated;
        value           nonuniform List<scalar> 
44
(
1133.38
1133.18
1136.98
1143.6
1150.94
1157.98
1164.41
1170.17
1175.39
1180.19
1184.71
1189.01
1193.15
1197.19
1201.15
1205.08
1208.98
1212.9
1216.86
1220.92
1225.12
1229.53
1234.24
1239.35
1245.01
1251.38
1258.69
1267.21
1277.29
1289.38
1304.09
1322.27
1344.69
1371.94
1404.58
1443.03
1487.12
1535.56
1585.61
1633.15
1673.6
1703.44
1717.18
1722.08
)
;
    }
    atmosphere
    {
        type            calculated;
        value           nonuniform List<scalar> 0();
    }
    defaultFaces
    {
        type            empty;
    }
    procBoundary0to1
    {
        type            processor;
        value           nonuniform List<scalar> 
44
(
1721.45
1651.29
1608.46
1589.56
1574.8
1553.84
1513.44
1443.24
1328.39
1146.13
861.68
637.561
521.776
436.652
356.879
286.363
224.08
167.036
113.987
64.5077
64.5077
11.4463
-24.6155
-62.0584
-92.8215
-69.3017
-16.529
-5.13928
-4.53358
-4.68616
-4.83816
-4.94315
-5.04175
-5.14185
-5.24213
-5.34233
-5.44296
-5.5447
-5.64845
-5.75497
-5.86462
-5.97695
-6.09013
-6.20177
)
;
    }
    procBoundary0to2
    {
        type            processor;
        value           nonuniform List<scalar> 
46
(
-4.07377
-4.12253
-4.17191
-4.2216
-4.27148
-4.32171
-4.37275
-4.42534
-4.48032
-4.53851
-4.60049
-4.6665
-4.73645
-4.81012
-4.88751
-4.96917
-5.05641
-5.1512
-5.25581
-5.37218
-5.50159
-5.64436
-5.79987
-5.96587
-6.13819
-3.6584
-3.66261
-3.66728
-3.67363
-3.68157
-3.69125
-3.70285
-3.71654
-3.73248
-3.75081
-3.77168
-3.79521
-3.82153
-3.85077
-3.883
-3.91824
-3.95639
-3.99725
-4.04051
-4.07377
-4.08567
)
;
    }
}


// ************************************************************************* //
