/*--------------------------------*- C++ -*----------------------------------*\
  =========                 |
  \\      /  F ield         | OpenFOAM: The Open Source CFD Toolbox
   \\    /   O peration     | Website:  https://openfoam.org
    \\  /    A nd           | Version:  9
     \\/     M anipulation  |
\*---------------------------------------------------------------------------*/
FoamFile
{
    format      ascii;
    class       volScalarField;
    location    "480";
    object      nut;
}
// * * * * * * * * * * * * * * * * * * * * * * * * * * * * * * * * * * * * * //

dimensions      [0 2 -1 0 0 0 0];

internalField   nonuniform List<scalar> 
10720
(
0.0510791
0.0527941
0.0545823
0.0562619
0.058035
0.05945
0.0602171
0.0602523
0.0593566
0.0573188
0.0538015
0.0484617
0.041289
0.032873
0.0243179
0.0156514
0.0120263
0.0127876
0.0130248
0.0123914
0.0114389
0.0107919
0.0100106
0.00909338
0.00682208
0.0064252
0.00649515
0.00730916
0.0101587
0.01306
0.0152511
0.0164538
0.0155868
0.0116213
0.00763422
0.00696601
0.0112616
0.018932
0.0263644
0.0493918
0.0474142
0.0452633
0.0424556
0.039163
0.0352149
0.0303827
0.0246725
0.0193964
0.017823
0.016482
0.0157588
0.0188224
0.0214901
0.0234734
0.0250794
0.0265371
0.0279534
0.0293803
0.0308471
0.0323746
0.0339705
0.0356352
0.0373503
0.0390389
0.0406163
0.0420657
0.043397
0.0446276
0.0457626
0.0468165
0.0478082
0.04879
0.0498149
0.0508787
0.052084
0.0531631
0.0550939
0.054483
0.0668893
0.066011
0.0646905
0.0629571
0.0609826
0.0590171
0.0572418
0.0565521
0.0582059
0.0610215
0.0642455
0.0672046
0.0691034
0.0691189
0.0670661
0.0643228
0.0644021
0.0667489
0.0664629
0.0623585
0.0547468
0.0475392
0.0425443
0.0367567
0.0320113
0.0301593
0.029263
0.0292324
0.0315057
0.0351924
0.0383561
0.0406466
0.0425077
0.0408695
0.0319748
0.0353915
0.0533513
0.0610588
0.0884115
0.0677924
0.0682391
0.0688583
0.0688818
0.0685778
0.0678891
0.0666622
0.0648456
0.062489
0.0596376
0.05652
0.0533204
0.0500192
0.0468253
0.0438587
0.0411198
0.0386313
0.036393
0.0344206
0.0326884
0.0311865
0.0298938
0.028794
0.0278311
0.0269794
0.0262585
0.0256693
0.0252123
0.0248826
0.024674
0.0245759
0.0246194
0.0251173
0.0261237
0.0274389
0.0288748
0.0304279
0.0316628
0.0341173
0.0959114
0.0950368
0.0937037
0.0918922
0.0897858
0.0872409
0.0841596
0.0802996
0.0771556
0.0748178
0.0711201
0.068739
0.0707471
0.0748145
0.0794796
0.0838025
0.088892
0.0957128
0.10219
0.106807
0.108638
0.105212
0.0961981
0.0825826
0.0670579
0.0609851
0.0587383
0.0598751
0.0656716
0.074319
0.0821084
0.0883089
0.094287
0.0926488
0.0722132
0.0785821
0.112118
0.130738
0.166221
0.096732
0.0971363
0.097611
0.0976195
0.0972976
0.0965955
0.0953975
0.0936581
0.0914449
0.0888404
0.0858548
0.0826177
0.0792466
0.0758099
0.0724082
0.0690756
0.0658663
0.0628133
0.0599466
0.0572549
0.0547427
0.0523914
0.0501814
0.0480136
0.0458304
0.043676
0.0415735
0.0395479
0.037615
0.035794
0.0340947
0.0325286
0.0311327
0.0298971
0.0295893
0.0300599
0.0308933
0.0318823
0.0312527
0.112115
0.111445
0.110445
0.109084
0.107459
0.105421
0.102927
0.0999477
0.0961678
0.0918759
0.0884599
0.0846939
0.0801904
0.0776348
0.0800466
0.0865867
0.0959805
0.108056
0.121695
0.135205
0.147028
0.15461
0.154593
0.140988
0.11211
0.0975617
0.0926672
0.0947033
0.104405
0.11957
0.133773
0.145877
0.156902
0.151739
0.120856
0.133959
0.18297
0.214288
0.268846
0.112703
0.113015
0.113313
0.113308
0.113056
0.112535
0.111671
0.110433
0.108844
0.106918
0.104644
0.10209
0.0993229
0.0963842
0.0933491
0.0902578
0.0871627
0.0841094
0.0811395
0.0782638
0.0755023
0.0728507
0.0702925
0.0677329
0.0651047
0.0624528
0.0598034
0.0571853
0.054619
0.0521285
0.049729
0.0474368
0.0452735
0.043252
0.0414538
0.0399128
0.0386156
0.0378509
0.0349278
0.121768
0.121325
0.120637
0.119693
0.118539
0.117049
0.115187
0.112942
0.110141
0.106615
0.102362
0.0987825
0.0946369
0.0889784
0.0841113
0.0855488
0.094075
0.108905
0.128439
0.150544
0.172909
0.192054
0.203083
0.198619
0.168801
0.140362
0.13065
0.132662
0.146206
0.169402
0.192068
0.212098
0.222295
0.211744
0.17274
0.199944
0.263809
0.309802
0.387021
0.122127
0.122305
0.12245
0.122397
0.122174
0.121764
0.121133
0.120269
0.119176
0.117847
0.116262
0.114449
0.112431
0.110219
0.107859
0.105373
0.102801
0.100176
0.0975392
0.0949076
0.0923073
0.0897426
0.0872053
0.0846134
0.0819053
0.0791198
0.0762845
0.0734301
0.0705808
0.0677647
0.065003
0.0623188
0.0597381
0.0572858
0.0550021
0.0529015
0.0509567
0.0497266
0.0439905
0.127777
0.127509
0.12706
0.126423
0.125621
0.124558
0.123207
0.121545
0.119502
0.116972
0.11369
0.109602
0.105966
0.101815
0.095334
0.089446
0.0914158
0.103803
0.125779
0.154708
0.187187
0.218364
0.24166
0.249126
0.230122
0.190771
0.173051
0.17313
0.189673
0.222142
0.255533
0.279777
0.285743
0.271256
0.229284
0.275416
0.352845
0.415145
0.517021
0.127965
0.128032
0.128063
0.127959
0.127732
0.127377
0.126888
0.126265
0.125511
0.124604
0.123525
0.122282
0.120877
0.119307
0.117595
0.115747
0.113783
0.111722
0.109594
0.107412
0.105197
0.102955
0.10068
0.098308
0.0957817
0.093131
0.0903813
0.0875606
0.0846933
0.0818084
0.0789314
0.0760903
0.0733164
0.0706419
0.0681116
0.0657396
0.0635056
0.0619969
0.0557687
0.131739
0.131604
0.131318
0.130885
0.130315
0.129544
0.128561
0.127351
0.125849
0.124007
0.121708
0.118585
0.114691
0.111299
0.106921
0.0994463
0.093666
0.0986141
0.117829
0.14993
0.19071
0.23367
0.270327
0.291593
0.287198
0.250543
0.220902
0.216011
0.233835
0.276239
0.319767
0.344033
0.346202
0.330121
0.295029
0.359354
0.448595
0.528412
0.656226
0.131787
0.131762
0.131708
0.131562
0.131322
0.130992
0.130588
0.130124
0.129593
0.12897
0.128234
0.127385
0.126419
0.125328
0.124122
0.122799
0.121365
0.11983
0.118209
0.116509
0.114743
0.112914
0.111014
0.108992
0.106797
0.104449
0.101966
0.0993706
0.0966829
0.0939297
0.0911364
0.0883327
0.0855528
0.0828331
0.0802244
0.0777441
0.075388
0.0737155
0.067526
0.134438
0.134385
0.134184
0.133854
0.133408
0.132811
0.132063
0.131159
0.130051
0.128707
0.127076
0.124974
0.121969
0.118325
0.115296
0.110301
0.101593
0.0976608
0.109142
0.139283
0.184903
0.238238
0.288715
0.325391
0.337589
0.316153
0.275374
0.261816
0.278281
0.329823
0.380717
0.404066
0.404223
0.389149
0.372882
0.451077
0.549862
0.647883
0.80248
0.13438
0.134283
0.134169
0.133996
0.133748
0.133433
0.133085
0.132729
0.13235
0.131918
0.131413
0.130833
0.130171
0.129419
0.128579
0.127647
0.126624
0.125512
0.124318
0.123042
0.121692
0.120264
0.118752
0.117111
0.115298
0.113324
0.111199
0.108937
0.106551
0.104064
0.101497
0.0988782
0.0962404
0.0936207
0.0910728
0.0886162
0.0862648
0.0845274
0.0786254
0.136306
0.136285
0.136109
0.13582
0.135442
0.134956
0.134371
0.133684
0.132854
0.131866
0.130672
0.129214
0.127236
0.124304
0.121088
0.118339
0.111828
0.102405
0.103788
0.126573
0.172048
0.232864
0.296602
0.349877
0.380374
0.377309
0.338104
0.311913
0.323236
0.380709
0.437348
0.460549
0.460988
0.450229
0.461699
0.55047
0.655748
0.771888
0.95305
0.136183
0.136033
0.13588
0.135695
0.135449
0.135146
0.134838
0.134563
0.134289
0.133987
0.133641
0.133246
0.132794
0.132278
0.131699
0.131051
0.130332
0.129541
0.128679
0.127744
0.126738
0.125656
0.124489
0.1232
0.121754
0.120154
0.118403
0.116508
0.114478
0.112326
0.110068
0.107727
0.105333
0.10292
0.10054
0.0982125
0.0959698
0.0942452
0.0888028
0.13761
0.137579
0.137396
0.137121
0.13679
0.136389
0.135926
0.135394
0.134762
0.134022
0.133139
0.132053
0.130736
0.12881
0.126043
0.12359
0.120411
0.111594
0.104273
0.115765
0.155311
0.219138
0.294193
0.364453
0.414613
0.431794
0.408678
0.367856
0.36947
0.42751
0.489999
0.514627
0.518163
0.516189
0.561423
0.657692
0.765575
0.898705
1.10581
0.137467
0.137287
0.13711
0.136922
0.136685
0.136392
0.136113
0.135898
0.135699
0.135489
0.135254
0.134987
0.134682
0.134334
0.133941
0.133497
0.133001
0.132448
0.131837
0.131166
0.130431
0.129628
0.128746
0.127756
0.126629
0.125363
0.123959
0.122417
0.120742
0.118939
0.11702
0.115001
0.112907
0.110765
0.108625
0.106501
0.104446
0.102785
0.0979506
0.138528
0.138465
0.138268
0.138008
0.13772
0.137389
0.13702
0.136602
0.136113
0.135543
0.134879
0.13405
0.133063
0.131891
0.129994
0.127705
0.126152
0.120955
0.110195
0.10982
0.138306
0.199481
0.282346
0.36882
0.439806
0.47877
0.475225
0.431561
0.418303
0.470316
0.539504
0.567709
0.578016
0.593803
0.672894
0.773044
0.878808
1.02694
1.25917
0.138407
0.138216
0.138026
0.137838
0.137612
0.137324
0.137067
0.136898
0.136755
0.136612
0.136455
0.136279
0.136078
0.135849
0.135589
0.135294
0.134961
0.134585
0.134163
0.133692
0.133167
0.132583
0.13193
0.131183
0.13032
0.129337
0.128232
0.127004
0.125652
0.124178
0.12259
0.120897
0.119118
0.117276
0.115412
0.113536
0.11172
0.110149
0.106086
0.139178
0.139082
0.138878
0.138637
0.13839
0.138118
0.137819
0.137486
0.1371
0.136652
0.136137
0.13551
0.134718
0.133919
0.13287
0.13107
0.129637
0.127827
0.119096
0.110053
0.124498
0.176997
0.26265
0.363113
0.455326
0.517458
0.53537
0.504546
0.471422
0.511492
0.586964
0.621502
0.643106
0.692854
0.79756
0.896987
0.995067
1.15541
1.41198
0.139105
0.138921
0.138725
0.138537
0.138321
0.138033
0.137794
0.13766
0.137561
0.137468
0.137369
0.137259
0.137132
0.136988
0.136825
0.136639
0.136425
0.136181
0.135903
0.135584
0.135221
0.134808
0.134336
0.133784
0.133135
0.132384
0.131529
0.130567
0.129495
0.128315
0.127027
0.12564
0.124166
0.122622
0.121043
0.119433
0.117877
0.116419
0.113294
0.139638
0.139521
0.139318
0.139099
0.13889
0.138665
0.138419
0.138148
0.137839
0.137483
0.137072
0.136588
0.135976
0.135309
0.134786
0.133734
0.132455
0.132027
0.127586
0.11574
0.116417
0.155124
0.23745
0.348064
0.460739
0.547443
0.588411
0.576143
0.530429
0.555211
0.633666
0.678269
0.717454
0.811528
0.936274
1.03033
1.11418
1.28312
1.56343
0.139618
0.139455
0.139259
0.139071
0.138867
0.138577
0.138352
0.138246
0.138182
0.138129
0.138073
0.138011
0.137939
0.137858
0.137766
0.137659
0.137536
0.137391
0.137221
0.137019
0.136781
0.136502
0.136172
0.135776
0.135298
0.134736
0.134086
0.133346
0.132513
0.131584
0.130562
0.129449
0.128254
0.126989
0.125683
0.124337
0.123038
0.121722
0.119526
0.139962
0.139836
0.13964
0.139447
0.139272
0.139083
0.138877
0.138653
0.138401
0.138115
0.137781
0.137394
0.136935
0.136381
0.135997
0.135622
0.134564
0.13417
0.1334
0.1241
0.114899
0.136971
0.209546
0.324956
0.455879
0.567917
0.633725
0.642198
0.59742
0.604727
0.681281
0.740486
0.815201
0.949586
1.09006
1.17438
1.23622
1.40928
1.713
0.139966
0.139843
0.139664
0.139476
0.139286
0.138997
0.138785
0.138701
0.138663
0.13864
0.138617
0.138591
0.13856
0.138526
0.138487
0.138442
0.138386
0.138316
0.138228
0.138115
0.137974
0.137799
0.137581
0.137307
0.136966
0.136557
0.136077
0.135523
0.13489
0.134177
0.133383
0.132509
0.131562
0.130548
0.129492
0.12839
0.127329
0.126178
0.124715
0.140177
0.140059
0.139876
0.13971
0.139564
0.139403
0.139229
0.139043
0.138835
0.138602
0.138328
0.13801
0.137656
0.137237
0.136861
0.136833
0.136236
0.135702
0.136442
0.131956
0.119032
0.12478
0.181974
0.295646
0.440996
0.578079
0.670727
0.70216
0.673863
0.66199
0.732402
0.813257
0.934887
1.10666
1.2609
1.33094
1.36147
1.53319
1.86046
0.140174
0.140091
0.139955
0.139781
0.139606
0.139322
0.139126
0.139058
0.139039
0.139037
0.139038
0.139039
0.139039
0.13904
0.139042
0.139042
0.139037
0.139025
0.139
0.138957
0.138889
0.138794
0.138662
0.138484
0.138254
0.13797
0.137629
0.137228
0.136763
0.136232
0.135632
0.134963
0.134229
0.133435
0.1326
0.131712
0.130861
0.129873
0.128955
0.140308
0.140217
0.140047
0.139908
0.139787
0.139649
0.139501
0.139346
0.139175
0.138982
0.138754
0.138492
0.138205
0.1379
0.137578
0.137545
0.137532
0.136792
0.137451
0.137214
0.126314
0.119418
0.157541
0.262363
0.416734
0.577243
0.698358
0.75537
0.748562
0.727871
0.796009
0.907562
1.07497
1.28236
1.45063
1.50264
1.49052
1.65437
2.00502
0.140299
0.140239
0.140141
0.140004
0.139851
0.139577
0.139395
0.13934
0.139334
0.139347
0.139364
0.139385
0.139407
0.139436
0.139467
0.139502
0.139536
0.139565
0.139582
0.139585
0.139568
0.139531
0.139464
0.139364
0.139227
0.139047
0.138822
0.138549
0.138225
0.137845
0.137408
0.136912
0.136358
0.135748
0.135099
0.134388
0.133715
0.132878
0.13235
0.140389
0.140327
0.140172
0.14006
0.139957
0.139837
0.139713
0.139583
0.139441
0.139282
0.139092
0.138873
0.138634
0.138406
0.138173
0.138084
0.13833
0.13778
0.13792
0.139671
0.133744
0.120222
0.138498
0.227633
0.38416
0.564919
0.71537
0.800928
0.818774
0.804156
0.875441
1.02058
1.23256
1.47563
1.6518
1.69103
1.62426
1.77251
2.13557
0.140379
0.140332
0.140256
0.140155
0.140033
0.139774
0.139609
0.139564
0.139568
0.139591
0.13962
0.139653
0.139692
0.139739
0.139791
0.139845
0.139893
0.139933
0.139963
0.139982
0.13999
0.139985
0.139963
0.139918
0.13985
0.139755
0.13963
0.13947
0.139273
0.139031
0.138742
0.138399
0.138003
0.137548
0.137055
0.136477
0.135961
0.135249
0.134973
0.140444
0.1404
0.140265
0.140176
0.140087
0.139982
0.139877
0.139769
0.139651
0.139519
0.139362
0.139177
0.138977
0.138796
0.138642
0.138543
0.138771
0.138704
0.138231
0.140109
0.139153
0.125498
0.126332
0.194151
0.344804
0.540908
0.72045
0.837422
0.883659
0.891712
0.968797
1.14951
1.40566
1.66469
1.84802
1.88696
1.76445
1.88761
2.24609
0.140433
0.140391
0.140328
0.140249
0.140154
0.139925
0.139777
0.139742
0.139753
0.139783
0.139819
0.139861
0.139911
0.139967
0.140021
0.140072
0.140116
0.140154
0.140186
0.140211
0.14023
0.140241
0.140242
0.140229
0.140202
0.140158
0.140096
0.140013
0.139905
0.139768
0.139598
0.13939
0.139139
0.138836
0.13849
0.138031
0.137673
0.137042
0.136893
0.140481
0.14045
0.140342
0.14027
0.14019
0.140096
0.140007
0.139917
0.139817
0.139708
0.139578
0.139421
0.139254
0.139106
0.139007
0.138942
0.139057
0.139297
0.138705
0.139719
0.141841
0.132452
0.121265
0.164636
0.300756
0.505387
0.712301
0.863086
0.941518
0.981504
1.07372
1.29162
1.5724
1.84438
2.03584
2.07694
1.91452
2.00005
2.33895
0.140467
0.140429
0.140373
0.140308
0.140231
0.14004
0.139908
0.139881
0.139897
0.139932
0.139975
0.140023
0.140073
0.140123
0.140168
0.140211
0.14025
0.140285
0.140317
0.140346
0.14037
0.14039
0.140403
0.140408
0.140404
0.140388
0.140362
0.140321
0.140265
0.140192
0.140097
0.139978
0.13983
0.139646
0.13943
0.139106
0.138902
0.138308
0.138214
0.140504
0.140483
0.140402
0.140346
0.140271
0.140189
0.140111
0.140035
0.139952
0.139859
0.139751
0.139618
0.139479
0.139358
0.139295
0.139275
0.139326
0.139633
0.139378
0.139423
0.142321
0.138632
0.122667
0.141619
0.254785
0.459109
0.689761
0.875899
0.990124
1.06465
1.18784
1.42843
1.72797
2.014
2.21494
2.25897
2.0797
2.11026
2.41787
0.140487
0.140451
0.140401
0.140345
0.14028
0.140127
0.140008
0.139988
0.140009
0.14005
0.140094
0.140138
0.14018
0.140221
0.140259
0.140296
0.140332
0.140365
0.140397
0.140427
0.140455
0.14048
0.140501
0.140516
0.140524
0.140525
0.140519
0.140503
0.140477
0.14044
0.140389
0.140322
0.140237
0.140128
0.139998
0.13979
0.139696
0.139138
0.139087
0.140516
0.140502
0.140443
0.140403
0.140333
0.140262
0.140197
0.140131
0.140061
0.139983
0.139891
0.139778
0.139662
0.139565
0.139524
0.13954
0.139582
0.139841
0.139906
0.139374
0.141519
0.14252
0.128238
0.126907
0.21039
0.403726
0.652009
0.87369
1.02699
1.13786
1.29208
1.55319
1.87143
2.17325
2.38551
2.43404
2.26003
2.21819
2.48599
0.140497
0.140463
0.140417
0.140368
0.140311
0.14019
0.140087
0.140073
0.140099
0.140139
0.140178
0.140214
0.140248
0.140283
0.140316
0.140349
0.140382
0.140414
0.140446
0.140477
0.140506
0.140534
0.140559
0.14058
0.140597
0.140608
0.140614
0.140613
0.140606
0.14059
0.140565
0.140529
0.140481
0.140417
0.14034
0.140209
0.140176
0.139669
0.139669
0.14052
0.140511
0.140467
0.140439
0.140381
0.140318
0.140266
0.14021
0.140149
0.140084
0.140007
0.139908
0.13981
0.139732
0.139709
0.139746
0.13982
0.139998
0.140229
0.139771
0.140677
0.143914
0.135212
0.121063
0.171545
0.342145
0.598927
0.854286
1.04942
1.19882
1.38324
1.66472
2.00209
2.32159
2.54752
2.60291
2.43981
2.32311
2.54573
0.140501
0.140469
0.140427
0.140381
0.140331
0.140231
0.140151
0.140142
0.140167
0.1402
0.140231
0.140261
0.140291
0.140321
0.140351
0.140382
0.140413
0.140444
0.140475
0.140506
0.140536
0.140566
0.140593
0.140618
0.14064
0.140658
0.140671
0.14068
0.140683
0.140681
0.140672
0.140656
0.14063
0.140594
0.140548
0.140467
0.140461
0.140021
0.140071
0.140519
0.140513
0.140481
0.140461
0.140419
0.140361
0.140319
0.140273
0.14022
0.140166
0.140102
0.140016
0.13993
0.139869
0.139861
0.139911
0.140014
0.140137
0.1404
0.140225
0.140093
0.143452
0.141013
0.123031
0.142153
0.278782
0.531607
0.815811
1.05452
1.24522
1.46018
1.76226
2.11929
2.45814
2.70055
2.76566
2.61158
2.42438
2.59896
0.140501
0.140471
0.14043
0.140388
0.140342
0.140258
0.140198
0.140193
0.140212
0.140238
0.140264
0.14029
0.140317
0.140344
0.140372
0.140401
0.140431
0.140461
0.140491
0.140522
0.140553
0.140583
0.140612
0.140639
0.140663
0.140685
0.140703
0.140718
0.140729
0.140736
0.140737
0.140733
0.140722
0.140703
0.140677
0.140627
0.14063
0.140269
0.140355
0.140516
0.140512
0.140487
0.140473
0.140444
0.140396
0.140359
0.140324
0.140278
0.140232
0.14018
0.140106
0.140029
0.139982
0.139986
0.14005
0.140162
0.140266
0.140483
0.140569
0.140092
0.142195
0.144234
0.129698
0.124658
0.219377
0.452996
0.757181
1.03927
1.27444
1.52166
1.84498
2.22223
2.58195
2.84376
2.92189
2.77425
2.52187
2.64711
0.140498
0.140469
0.14043
0.140389
0.140346
0.140274
0.140229
0.140225
0.140241
0.140262
0.140285
0.140308
0.140332
0.140358
0.140384
0.140412
0.14044
0.140469
0.140499
0.140529
0.140559
0.14059
0.140619
0.140647
0.140674
0.140698
0.140719
0.140738
0.140753
0.140765
0.140774
0.140777
0.140776
0.140769
0.140756
0.140724
0.140731
0.140451
0.140552
0.14051
0.140508
0.140488
0.140479
0.14046
0.140424
0.140393
0.140363
0.140326
0.140287
0.140244
0.140181
0.140112
0.140077
0.14009
0.140165
0.140275
0.140377
0.140533
0.14076
0.140383
0.141094
0.144858
0.137347
0.119513
0.17021
0.368371
0.678809
1.00091
1.28342
1.56597
1.9118
2.30986
2.692
2.97615
3.07096
2.92845
2.61619
2.69132
0.140492
0.140464
0.140426
0.140387
0.140346
0.140282
0.140247
0.140244
0.140258
0.140276
0.140297
0.140318
0.140341
0.140365
0.14039
0.140417
0.140444
0.140472
0.140501
0.14053
0.14056
0.14059
0.140619
0.140648
0.140675
0.1407
0.140724
0.140745
0.140763
0.140779
0.140791
0.1408
0.140805
0.140805
0.140801
0.140782
0.14079
0.140585
0.140683
0.140502
0.140502
0.140486
0.14048
0.140468
0.140445
0.140423
0.140393
0.140365
0.140333
0.140295
0.140244
0.140185
0.140159
0.140178
0.140259
0.140361
0.140466
0.14058
0.140828
0.140727
0.140572
0.143834
0.143004
0.123683
0.136289
0.285233
0.583478
0.937409
1.2688
1.5908
1.96144
2.38107
2.78705
3.09655
3.21202
3.07507
2.70884
2.73265
0.140484
0.140456
0.140419
0.140381
0.140342
0.140283
0.140255
0.140254
0.140266
0.140283
0.140302
0.140323
0.140345
0.140368
0.140392
0.140417
0.140443
0.14047
0.140498
0.140527
0.140556
0.140585
0.140614
0.140643
0.14067
0.140696
0.14072
0.140742
0.140763
0.14078
0.140796
0.140808
0.140817
0.140822
0.140823
0.140813
0.140822
0.140674
0.140763
0.140492
0.140493
0.14048
0.140477
0.14047
0.140456
0.140444
0.140417
0.140393
0.140371
0.140339
0.140295
0.140245
0.140226
0.140256
0.140335
0.140428
0.140532
0.140631
0.140832
0.14097
0.14056
0.142316
0.145429
0.132283
0.119694
0.212272
0.477056
0.848458
1.22715
1.59316
1.99213
2.43459
2.86588
3.20362
3.3441
3.215
2.80318
2.77257
0.140474
0.140447
0.140411
0.140373
0.140335
0.140281
0.140258
0.140257
0.140268
0.140285
0.140304
0.140324
0.140345
0.140367
0.140391
0.140415
0.14044
0.140466
0.140493
0.14052
0.140549
0.140577
0.140606
0.140634
0.140661
0.140687
0.140711
0.140734
0.140755
0.140774
0.140791
0.140805
0.140816
0.140824
0.140829
0.140824
0.140835
0.140727
0.140805
0.140481
0.140482
0.140472
0.140471
0.140468
0.140461
0.140456
0.140438
0.140415
0.140399
0.140373
0.140335
0.140293
0.14028
0.140321
0.140395
0.14048
0.140579
0.140677
0.140823
0.141071
0.140819
0.141241
0.145154
0.140418
0.118311
0.157393
0.368487
0.736463
1.15567
1.56939
2.00158
2.46893
2.9271
3.29588
3.46613
3.34924
2.90891
2.81336
0.140462
0.140436
0.1404
0.140364
0.140326
0.140276
0.140256
0.140256
0.140268
0.140284
0.140302
0.140322
0.140342
0.140364
0.140387
0.14041
0.140434
0.140459
0.140485
0.140512
0.140539
0.140567
0.140595
0.140622
0.140649
0.140674
0.140698
0.140721
0.140742
0.140762
0.140779
0.140795
0.140808
0.140817
0.140825
0.140823
0.140835
0.140752
0.140823
0.140468
0.14047
0.140462
0.140463
0.140462
0.14046
0.140461
0.140453
0.140434
0.140419
0.1404
0.140368
0.140332
0.140324
0.140372
0.140441
0.140519
0.14061
0.140711
0.140824
0.141068
0.141094
0.140828
0.143573
0.14517
0.126228
0.124926
0.268814
0.607478
1.05321
1.51553
1.98664
2.48222
2.96912
3.37164
3.57684
3.47872
3.03204
2.85748
0.14045
0.140424
0.140389
0.140353
0.140316
0.140269
0.140252
0.140253
0.140264
0.14028
0.140298
0.140318
0.140338
0.140359
0.140381
0.140404
0.140427
0.140451
0.140476
0.140502
0.140528
0.140555
0.140582
0.140608
0.140634
0.140659
0.140683
0.140705
0.140726
0.140746
0.140763
0.140779
0.140793
0.140803
0.140812
0.140813
0.140825
0.14076
0.140824
0.140455
0.140458
0.140452
0.140454
0.140455
0.140456
0.14046
0.14046
0.140451
0.140436
0.140423
0.140397
0.140366
0.140361
0.140411
0.140475
0.140548
0.140632
0.140731
0.140835
0.141025
0.141245
0.140917
0.142013
0.146171
0.136485
0.114377
0.18895
0.471557
0.921465
1.42784
1.9433
2.47188
2.99006
3.42893
3.67465
3.60371
3.16221
2.90684
0.140437
0.140411
0.140377
0.140341
0.140305
0.140262
0.140247
0.140249
0.14026
0.140276
0.140294
0.140313
0.140332
0.140353
0.140374
0.140396
0.140419
0.140442
0.140466
0.140491
0.140516
0.140542
0.140568
0.140593
0.140618
0.140642
0.140665
0.140687
0.140708
0.140727
0.140744
0.14076
0.140774
0.140785
0.140794
0.140797
0.140808
0.140756
0.140815
0.140441
0.140445
0.14044
0.140443
0.140446
0.140449
0.140456
0.140461
0.140461
0.140453
0.14044
0.140419
0.140395
0.140395
0.140443
0.140502
0.140569
0.140646
0.140741
0.140845
0.140987
0.141261
0.141184
0.141157
0.144811
0.143968
0.119346
0.136304
0.341865
0.766325
1.30414
1.86695
2.43442
2.98739
3.46542
3.75748
3.72372
3.29792
2.96275
0.140423
0.140398
0.140363
0.140328
0.140293
0.140253
0.140241
0.140243
0.140255
0.14027
0.140288
0.140307
0.140326
0.140346
0.140367
0.140388
0.14041
0.140432
0.140455
0.140479
0.140503
0.140528
0.140553
0.140577
0.140601
0.140624
0.140646
0.140667
0.140687
0.140705
0.140722
0.140738
0.140751
0.140763
0.140772
0.140776
0.140787
0.140744
0.140797
0.140427
0.140431
0.140427
0.140432
0.140436
0.140441
0.14045
0.140458
0.140463
0.140465
0.140452
0.140436
0.140418
0.140426
0.14047
0.140523
0.140585
0.140656
0.140744
0.140849
0.140967
0.141203
0.141382
0.141018
0.142875
0.14685
0.130987
0.112518
0.232499
0.598552
1.14513
1.75288
2.36526
2.95779
3.47832
3.82246
3.83718
3.43868
3.02598
0.140409
0.140384
0.14035
0.140315
0.140281
0.140244
0.140233
0.140237
0.140249
0.140265
0.140283
0.140301
0.14032
0.14034
0.14036
0.14038
0.140401
0.140422
0.140444
0.140467
0.14049
0.140514
0.140537
0.140561
0.140583
0.140605
0.140626
0.140646
0.140665
0.140683
0.140699
0.140714
0.140727
0.140738
0.140747
0.140752
0.140763
0.140727
0.140776
0.140412
0.140416
0.140414
0.140419
0.140425
0.140432
0.140443
0.140453
0.140461
0.140468
0.140466
0.140451
0.140436
0.140451
0.14049
0.140538
0.140595
0.140662
0.140744
0.140846
0.140959
0.141135
0.14143
0.141247
0.141546
0.146125
0.141528
0.111867
0.154766
0.433439
0.956158
1.59769
2.25888
2.89685
3.46405
3.86579
3.94101
3.58229
3.09586
0.140393
0.140369
0.140336
0.140302
0.140269
0.140235
0.140226
0.140231
0.140243
0.140259
0.140277
0.140296
0.140315
0.140334
0.140353
0.140372
0.140392
0.140413
0.140434
0.140455
0.140477
0.140499
0.140522
0.140544
0.140565
0.140586
0.140606
0.140625
0.140642
0.140659
0.140675
0.140689
0.140701
0.140712
0.140721
0.140726
0.140736
0.140706
0.140751
0.140396
0.140401
0.1404
0.140406
0.140414
0.140422
0.140434
0.140446
0.140457
0.140467
0.140473
0.140459
0.140448
0.140467
0.140502
0.140547
0.1406
0.140664
0.140741
0.140837
0.140951
0.141088
0.141368
0.141491
0.141115
0.143949
0.146991
0.123852
0.113439
0.288679
0.748654
1.40095
2.10955
2.79894
3.41804
3.88246
4.03033
3.72469
3.16648
0.140378
0.140354
0.140322
0.140289
0.140257
0.140226
0.140219
0.140225
0.140238
0.140254
0.140272
0.140291
0.140309
0.140327
0.140346
0.140365
0.140384
0.140403
0.140423
0.140443
0.140464
0.140485
0.140506
0.140527
0.140547
0.140567
0.140585
0.140603
0.14062
0.140635
0.14065
0.140663
0.140675
0.140686
0.140695
0.1407
0.14071
0.140684
0.140726
0.14038
0.140385
0.140385
0.140393
0.140401
0.140411
0.140425
0.140438
0.140451
0.140463
0.140474
0.140471
0.140462
0.14048
0.140512
0.140552
0.140602
0.140663
0.140736
0.140826
0.140938
0.141062
0.141276
0.141581
0.141268
0.142091
0.147457
0.137624
0.104362
0.18036
0.54033
1.16768
1.91275
2.65747
3.3345
3.86631
4.09855
3.86071
3.24158
0.140362
0.140339
0.140307
0.140275
0.140245
0.140216
0.140211
0.140218
0.140232
0.140249
0.140267
0.140285
0.140303
0.140321
0.140339
0.140357
0.140375
0.140394
0.140413
0.140432
0.140452
0.140471
0.140491
0.14051
0.140529
0.140548
0.140565
0.140581
0.140597
0.140612
0.140625
0.140638
0.14065
0.14066
0.140668
0.140674
0.140684
0.140661
0.140701
0.140364
0.14037
0.140371
0.140379
0.140389
0.1404
0.140415
0.140429
0.140444
0.140458
0.140471
0.140478
0.140478
0.140494
0.14052
0.140557
0.140603
0.14066
0.14073
0.140814
0.140921
0.141045
0.141205
0.141526
0.141554
0.141258
0.145266
0.146339
0.115508
0.117369
0.353353
0.910467
1.66743
2.46573
3.20649
3.81042
4.13769
3.98536
3.34606
0.140346
0.140324
0.140293
0.140262
0.140232
0.140205
0.140201
0.14021
0.140225
0.140242
0.140261
0.140279
0.140296
0.140314
0.140331
0.140349
0.140366
0.140384
0.140402
0.14042
0.140439
0.140458
0.140476
0.140494
0.140512
0.140529
0.140545
0.14056
0.140575
0.140589
0.140602
0.140614
0.140625
0.140634
0.140643
0.140649
0.140659
0.14064
0.140678
0.140348
0.140354
0.140356
0.140366
0.140376
0.140389
0.140405
0.14042
0.140436
0.140452
0.140467
0.140478
0.140485
0.1405
0.140524
0.140558
0.140601
0.140655
0.140722
0.140803
0.140903
0.141026
0.141162
0.141415
0.141699
0.141257
0.142859
0.148578
0.132496
0.0975361
0.209497
0.65051
1.37915
2.21864
3.02659
3.708
4.13879
4.09226
3.46958
0.14033
0.140308
0.140279
0.140248
0.140218
0.14019
0.140188
0.140199
0.140215
0.140234
0.140253
0.140271
0.140288
0.140306
0.140323
0.140339
0.140357
0.140374
0.140391
0.140408
0.140426
0.140444
0.140461
0.140478
0.140494
0.14051
0.140526
0.14054
0.140554
0.140567
0.140579
0.140591
0.140601
0.140611
0.14062
0.140626
0.140637
0.14062
0.140657
0.140332
0.140339
0.140342
0.140352
0.140364
0.140378
0.140395
0.140412
0.140429
0.140446
0.140462
0.140476
0.140486
0.140501
0.140525
0.140557
0.140598
0.14065
0.140714
0.140791
0.140886
0.141004
0.141136
0.14132
0.141667
0.141561
0.141512
0.146666
0.144899
0.106978
0.122346
0.415711
1.06317
1.91582
2.78802
3.55285
4.09248
4.173
3.61139
0.140315
0.140293
0.140264
0.140233
0.140202
0.140173
0.140172
0.140185
0.140203
0.140223
0.140242
0.140261
0.140278
0.140296
0.140312
0.140329
0.140345
0.140362
0.140379
0.140395
0.140412
0.140429
0.140445
0.140462
0.140477
0.140492
0.140507
0.14052
0.140533
0.140546
0.140558
0.140569
0.14058
0.140589
0.140599
0.140606
0.140617
0.140603
0.14064
0.140316
0.140323
0.140328
0.140339
0.140352
0.140368
0.140385
0.140403
0.140422
0.14044
0.140457
0.140472
0.140485
0.1405
0.140523
0.140555
0.140594
0.140644
0.140705
0.140779
0.14087
0.140981
0.141114
0.141262
0.141548
0.141772
0.141263
0.143773
0.149314
0.12708
0.0912196
0.234308
0.745978
1.56528
2.48679
3.3381
3.9896
4.21719
3.75907
0.140299
0.140277
0.140248
0.140216
0.140184
0.140155
0.140155
0.14017
0.140189
0.14021
0.140231
0.140249
0.140267
0.140284
0.1403
0.140317
0.140333
0.140349
0.140365
0.140381
0.140398
0.140414
0.140429
0.140445
0.14046
0.140474
0.140488
0.140501
0.140514
0.140526
0.140538
0.140549
0.14056
0.140571
0.140581
0.14059
0.140602
0.140589
0.140626
0.140301
0.140309
0.140314
0.140327
0.140341
0.140358
0.140377
0.140396
0.140415
0.140434
0.140452
0.140469
0.140483
0.140499
0.140522
0.140552
0.140591
0.140638
0.140697
0.140768
0.140855
0.14096
0.141089
0.141228
0.141434
0.141782
0.141539
0.141874
0.147914
0.14321
0.0992481
0.124141
0.462384
1.18701
2.12501
3.05845
3.82339
4.2137
3.90027
0.140283
0.140261
0.140232
0.140199
0.140167
0.140138
0.140139
0.140155
0.140176
0.140198
0.140218
0.140237
0.140255
0.140271
0.140287
0.140303
0.140319
0.140335
0.140351
0.140366
0.140382
0.140398
0.140413
0.140428
0.140442
0.140456
0.14047
0.140483
0.140496
0.140508
0.14052
0.140532
0.140544
0.140555
0.140566
0.140577
0.14059
0.140578
0.140616
0.140286
0.140294
0.140301
0.140315
0.140331
0.140349
0.140369
0.140389
0.140409
0.140429
0.140448
0.140466
0.140481
0.140497
0.14052
0.140549
0.140587
0.140634
0.14069
0.140758
0.140841
0.140941
0.141063
0.141203
0.141361
0.141671
0.14181
0.141322
0.144649
0.149789
0.122573
0.084107
0.24668
0.814073
1.71496
2.71281
3.5918
4.15202
4.01919
0.140267
0.140245
0.140214
0.140182
0.140149
0.140122
0.140125
0.140142
0.140164
0.140186
0.140207
0.140225
0.140242
0.140258
0.140274
0.140289
0.140305
0.14032
0.140335
0.140351
0.140366
0.140381
0.140396
0.14041
0.140425
0.140439
0.140452
0.140466
0.140479
0.140492
0.140505
0.140517
0.14053
0.140543
0.140556
0.140568
0.140583
0.140569
0.14061
0.14027
0.14028
0.140289
0.140304
0.140321
0.14034
0.140362
0.140383
0.140404
0.140424
0.140444
0.140463
0.14048
0.140496
0.140518
0.140547
0.140584
0.140629
0.140684
0.140749
0.140829
0.140924
0.141039
0.141177
0.141321
0.141546
0.141874
0.141531
0.142252
0.1489
0.142111
0.0925585
0.118787
0.487666
1.28221
2.3073
3.2975
4.02406
4.10027
0.140251
0.140228
0.140197
0.140164
0.140133
0.140108
0.140113
0.140131
0.140154
0.140176
0.140196
0.140214
0.14023
0.140246
0.140261
0.140276
0.14029
0.140305
0.14032
0.140335
0.14035
0.140365
0.14038
0.140394
0.140408
0.140422
0.140436
0.14045
0.140464
0.140478
0.140492
0.140506
0.14052
0.140535
0.140549
0.140563
0.14058
0.140566
0.140608
0.140255
0.140266
0.140276
0.140293
0.140312
0.140332
0.140355
0.140377
0.140399
0.14042
0.140441
0.14046