/*--------------------------------*- C++ -*----------------------------------*\
  =========                 |
  \\      /  F ield         | OpenFOAM: The Open Source CFD Toolbox
   \\    /   O peration     | Website:  https://openfoam.org
    \\  /    A nd           | Version:  9
     \\/     M anipulation  |
\*---------------------------------------------------------------------------*/
FoamFile
{
    format      ascii;
    class       volScalarField;
    location    "480";
    object      p;
}
// * * * * * * * * * * * * * * * * * * * * * * * * * * * * * * * * * * * * * //

dimensions      [0 2 -2 0 0 0 0];

internalField   nonuniform List<scalar> 
10720
(
-19.6617
-28.1005
-37.3833
-44.9686
-49.9666
-53.9009
-55.9012
-55.7678
-54.0531
-50.7957
-46.7033
-42.5821
-39.0393
-36.3817
-34.5876
-33.3976
-32.5286
-31.828
-31.259
-30.8204
-30.4987
-30.109
-29.4314
-28.5046
-27.6119
-26.9764
-26.6528
-26.6349
-26.9367
-27.6113
-28.6362
-29.6355
-30.2868
-29.9599
-28.9939
-27.6495
-25.7768
-24.8288
-25.4674
-9.94969
-0.744664
10.5078
22.1635
33.426
43.6294
52.0836
58.1709
61.7274
63.0921
63.0574
61.8954
59.7874
57.2494
54.5366
51.6588
48.6715
45.6225
42.5222
39.296
35.913
32.3319
28.5601
24.6365
20.8115
17.2605
13.858
10.562
7.37779
4.30469
1.35194
-1.54651
-4.439
-7.3732
-10.449
-13.7116
-17.4488
-20.8193
-25.2585
3.38805
-3.55848
-10.6595
-17.3683
-23.5598
-29.0867
-33.1838
-35.752
-37.1453
-37.617
-37.5068
-37.0478
-36.2652
-35.2028
-34.055
-33.0347
-32.2475
-31.6453
-31.1401
-30.7254
-30.4332
-30.0921
-29.4565
-28.5465
-27.6512
-27.0073
-26.6766
-26.6524
-26.9479
-27.616
-28.6331
-29.627
-30.2725
-29.9413
-28.9806
-27.6431
-25.8011
-24.8488
-26.1141
10.0699
16.8132
24.0296
31.7124
39.3331
46.4997
52.7069
57.4642
60.5325
61.9827
62.0989
61.1161
59.3371
57.0965
54.5797
51.8421
48.9501
45.9601
42.8874
39.6862
36.3292
32.7894
29.0753
25.2305
21.4503
17.884
14.4503
11.1157
7.88882
4.7698
1.76906
-1.17585
-4.11127
-7.08404
-10.1912
-13.476
-17.2225
-20.5746
-25.258
6.92132
0.644787
-5.78797
-12.253
-18.1637
-23.2559
-27.3637
-30.4054
-32.3553
-33.2875
-33.384
-33.0116
-32.5946
-32.377
-32.2554
-32.0156
-31.6942
-31.3442
-30.967
-30.6046
-30.3506
-30.0677
-29.4887
-28.6032
-27.7049
-27.0495
-26.7088
-26.6782
-26.9692
-27.6324
-28.6427
-29.6261
-30.2625
-29.9261
-28.9748
-27.6488
-25.8615
-24.9272
-26.586
13.0107
19.4252
26.3102
33.4163
40.267
46.6016
52.0439
56.2386
59.0301
60.4861
60.7787
60.075
58.6074
56.6151
54.2701
51.6669
48.8786
45.9599
42.9324
39.7731
36.4596
32.9721
29.3166
25.5341
21.7808
18.1988
14.7489
11.3996
8.15716
5.02048
1.99916
-0.965138
-3.91855
-6.9075
-10.0264
-13.3171
-17.0604
-20.4092
-25.2423
13.4049
8.0259
2.35919
-3.3296
-8.73344
-13.7366
-18.155
-21.8502
-24.7542
-26.8725
-28.2614
-29.0359
-29.3801
-29.611
-29.9972
-30.4374
-30.7386
-30.797
-30.6503
-30.4068
-30.2265
-30.0164
-29.5083
-28.659
-27.7578
-27.0884
-26.7376
-26.7017
-26.9893
-27.6482
-28.6515
-29.6243
-30.2528
-29.9192
-28.9862
-27.6748
-25.9469
-25.0409
-26.9856
18.5228
23.7615
29.3681
35.2608
40.9969
46.3845
51.1015
54.8198
57.3854
58.8365
59.2754
58.8123
57.6212
55.8872
53.7621
51.3441
48.7043
45.8958
42.948
39.8552
36.6028
33.1771
29.5845
25.8654
22.1499
18.5706
15.1147
11.7538
8.49371
5.33448
2.28614
-0.704591
-3.68328
-6.69565
-9.83312
-13.1357
-16.8817
-20.2353
-25.1954
16.2014
11.3478
6.19897
0.949927
-4.09118
-8.87862
-13.2307
-16.9594
-20.0206
-22.4117
-24.1926
-25.4809
-26.3971
-27.0705
-27.7273
-28.5201
-29.3469
-29.9204
-30.1346
-30.1
-30.0412
-29.9211
-29.4949
-28.6963
-27.7984
-27.1155
-26.7561
-26.7167
-27.0017
-27.6564
-28.6536
-29.6156
-30.2433
-29.9271
-29.0195
-27.7289
-26.0598
-25.1875
-27.4143
20.8369
25.5557
30.5982
35.853
40.9291
45.7037
49.9159
53.2801
55.6658
57.1054
57.6584
57.3992
56.4605
54.9816
53.0876
50.8684
48.3926
45.7137
42.866
39.8566
36.6782
33.3233
29.8003
26.1488
22.4789
18.9112
15.4532
12.084
8.81
5.63252
2.56088
-0.452622
-3.4533
-6.48618
-9.63973
-12.9521
-16.7005
-20.0635
-25.1337
18.5853
14.2393
9.57443
4.80441
0.173415
-4.31996
-8.50409
-12.2412
-15.4884
-18.2163
-20.4226
-22.1626
-23.5338
-24.6252
-25.5513
-26.5157
-27.6388
-28.6889
-29.3714
-29.6547
-29.7767
-29.7658
-29.4274
-28.6929
-27.8127
-27.1229
-26.7589
-26.7189
-27.0024
-27.6527
-28.6432
-29.5983
-30.2356
-29.9518
-29.0787
-27.8178
-26.2034
-25.3752
-27.8847
22.7182
26.8861
31.3522
36.0254
40.5404
44.8121
48.6144
51.6864
53.9204
55.3387
55.9736
55.8828
55.1644
53.9226
52.2571
50.2453
47.9498
45.4214
42.6958
39.7879
36.6987
33.4264
29.9815
26.4026
22.7851
19.2382
15.7851
12.4132
9.12986
5.93696
2.8442
-0.19107
-3.2133
-6.26675
-9.43666
-12.76
-16.5112
-19.8899
-25.0605
20.0141
16.0521
11.7751
7.37735
3.08984
-1.1314
-5.1301
-8.77545
-12.0203
-14.8416
-17.2375
-19.2394
-20.9057
-22.3126
-23.5118
-24.613
-25.8372
-27.1804
-28.3247
-29.0211
-29.3991
-29.5281
-29.2853
-28.6254
-27.7829
-27.1009
-26.7401
-26.7045
-26.9885
-27.6339
-28.6191
-29.5731
-30.2342
-30
-29.1683
-27.9476
-26.3867
-25.6082
-28.3955
23.7776
27.5488
31.5946
35.825
39.9044
43.7777
47.2486
50.0774
52.1786
53.5671
54.2588
54.3021
53.7707
52.7422
51.2948
49.4903
47.3831
45.0187
42.4317
39.6413
36.6552
33.477
30.1192
26.6189
23.0607
19.544
16.1035
12.7347
9.44645
6.24164
3.13018
0.0748115
-2.96766
-6.04076
-9.22647
-12.5608
-16.3157
-19.7183
-24.9714
21.0037
17.3789
13.4416
9.3837
5.41319
1.46123
-2.32766
-5.84036
-9.0387
-11.9004
-14.4174
-16.6028
-18.4839
-20.1227
-21.5729
-22.8528
-24.1143
-25.5497
-27.0201
-28.1526
-28.8603
-29.175
-29.0459
-28.472
-27.6897
-27.0375
-26.6934
-26.6689
-26.9561
-27.5961
-28.5773
-29.5402
-30.2394
-30.0719
-29.2964
-28.1217
-26.61
-25.8902
-28.94
24.4426
27.8696
31.5545
35.4113
39.1285
42.6698
45.8608
48.4814
50.4624
51.8126
52.5399
52.6871
52.3105
51.4691
50.2227
48.6187
46.7012
44.509
42.0731
39.4141
36.5442
33.4713
30.2094
26.7942
23.3026
19.8259
16.406
13.0467
9.7584
6.54562
3.41859
0.345375
-2.71593
-5.80769
-9.00881
-12.3545
-16.1124
-19.5447
-24.8693
21.6097
18.2677
14.6216
10.8537
7.16064
3.45488
-0.130806
-3.49442
-6.60564
-9.4366
-11.9864
-14.2652
-16.2837
-18.077
-19.7065
-21.1824
-22.524
-23.9461
-25.5534
-27.0426
-28.1169
-28.6699
-28.6856
-28.2165
-27.5173
-26.9205
-26.612
-26.6087
-26.9032
-27.5376
-28.5193
-29.5016
-30.256
-30.1758
-29.4702
-28.3447
-26.8833
-26.2234
-29.5216
24.7777
27.9204
31.3051
34.8498
38.2623
41.5229
44.4732
46.9141
48.7841
50.0888
50.8355
51.0603
50.8095
50.1285
49.0628
47.6471
45.9152
43.898
41.6212
39.1046
36.3622
33.4051
30.248
26.9256
23.5081
20.0808
16.6899
13.3468
10.0639
6.84765
3.70845
0.619658
-2.45868
-5.56787
-8.78343
-12.1404
-15.902
-19.3708
-24.7485
21.9609
18.8655
15.4752
11.9652
8.52025
5.04225
1.65404
-1.55267
-4.55756
-7.32743
-9.8681
-12.188
-14.2901
-16.19
-17.9306
-19.5556
-21.0324
-22.4471
-24.0439
-25.7374
-27.1503
-27.9823
-28.1802
-27.8447
-27.255
-26.7395
-26.4885
-26.5198
-26.827
-27.4566
-28.4437
-29.4581
-30.2853
-30.3118
-29.6964
-28.6201
-27.2057
-26.6122
-30.1331
24.8933
27.7901
30.917
34.1927
37.3439
40.3616
43.102
45.3838
47.1499
48.4048
49.1575
49.4382
49.2875
48.7417
47.8354
46.5927
45.038
43.1939
41.0801
38.7133
36.1077
33.2753
30.2314
27.0088
23.6733
20.3044
16.9513
13.6315
10.3601
7.14511
3.99793
0.896527
-2.19667
-5.32173
-8.55097
-11.9194
-15.6832
-19.1935
-24.6123
22.117
19.2368
16.0715
12.789
9.56593
6.29489
3.09171
0.0398757
-2.84914
-5.5367
-8.03392
-10.3521
-12.4907
-14.4579
-16.2712
-17.9799
-19.5887
-21.0582
-22.5871
-24.3247
-25.9816
-27.1012
-27.5169
-27.3471
-26.8968
-26.4904
-26.3172
-26.3993
-26.7268
-27.3539
-28.3531
-29.4136
-30.3354
-30.4904
-29.9796
-28.954
-27.5878
-27.0584
-30.7762
24.8435
27.5283
30.4304
33.4727
36.3962
39.2009
41.7551
43.8941
45.5627
46.7653
47.5127
47.8322
47.7601
47.3265
46.5583
45.4716
44.0825
42.4058
40.4549
38.2422
35.7801
33.0803
30.1572
27.0414
23.7956
20.4942
17.1877
13.8987
10.6451
7.43683
4.28596
1.17501
-1.93053
-5.06967
-8.311
-11.6904
-15.4567
-19.0133
-24.4552
22.1288
19.4395
16.4749
13.3959
10.3718
7.29061
4.2605
1.35878
-1.41027
-4.00604
-6.43986
-8.72852
-10.8695
-12.8693
-14.7333
-16.4864
-18.1746
-19.7427
-21.2311
-22.8991
-24.6686
-26.0402
-26.6956
-26.7204
-26.4392
-26.1722
-26.0958
-26.2434
-26.6009
-27.2304
-28.2477
-29.371
-30.4092
-30.7134
-30.3256
-29.3503
-28.0273
-27.5663
-31.4477
24.6744
27.1718
29.8767
32.7123
35.4351
38.0505
40.4378
42.4468
44.0229
45.172
45.906
46.2502
46.2383
45.8966
45.2467
44.2986
43.0617
41.5441
39.7526
37.6951
35.3806
32.8193
30.0232
27.021
23.8717
20.6464
17.3952
14.1447
10.9155
7.71973
4.57008
1.45354
-1.66155
-4.81239
-8.06471
-11.4547
-15.2215
-18.8276
-24.2805
22.0316
19.512
16.7273
13.8312
10.987
8.07887
5.20963
2.45155
-0.197753
-2.69821
-5.05644
-7.29605
-9.415
-11.4179
-13.3092
-15.0918
-16.8086
-18.4618
-19.974
-21.5352
-23.2916
-24.8422
-25.738
-25.977
-25.8868
-25.7852
-25.8274
-26.0513
-26.4494
-27.0894
-28.1325
-29.338
-30.5149
-30.9949
-30.7397
-29.8153
-28.534
-28.1365
-32.1509
24.4149
26.7472
29.2756
31.9273
34.4707
36.9161
39.1531
41.042
42.5302
43.6251
44.3394
44.6971
44.7305
44.4633
43.9134
43.0868
41.9877
40.6187
38.9809
37.0767
34.9116
32.4922
29.8285
26.9458
23.9001
20.7588
17.5714
14.3675
11.1697
7.99245
4.84928
1.73104
-1.39036
-4.55049
-7.81152
-11.2111
-14.9783
-18.6359
-24.0832
21.8509
19.4839
16.8619
14.1315
11.4504
8.70131
5.98128
3.35867
0.827046
-1.57674
-3.85352
-6.03173
-8.11201
-10.097
-11.9917
-13.7931
-15.5162
-17.2055
-18.7832
-20.2706
-21.9265
-23.5626
-24.6748
-25.1373
-25.2507
-25.3321
-25.5136
-25.8241
-26.2723
-26.9339
-28.012
-29.3182
-30.6547
-31.3346
-31.2278
-30.3525
-29.104
-28.7725
-32.8874
24.0885
26.2722
28.6429
31.1284
33.5103
35.8016
37.9016
39.6792
41.0834
42.1243
42.8142
43.1766
43.2428
43.035
42.5688
41.8476
40.872
39.64
38.1479
36.3929
34.3762
32.1007
29.5729
26.8146
23.8784
20.8285
17.713
14.5633
11.404
8.25166
5.1206
2.00534
-1.11866
-4.28508
-7.55298
-10.961
-14.7262
-18.4364
-23.8662
21.6057
19.3771
16.903
14.3235
11.7914
9.18791
6.6067
4.11179
1.69354
-0.613762
-2.8063
-4.91536
-6.94521
-8.89827
-10.7774
-12.5821
-14.3076
-15.9925
-17.6262
-19.1061
-20.6329
-22.2641
-23.5503
-24.2338
-24.5532
-24.8232
-25.1566
-25.5666
-26.0717
-26.7671
-27.8937
-29.3185
-30.8395
-31.7441
-31.7945
-30.9679
-29.7454
-29.4743
-33.6565
23.7113
25.7612
27.9885
30.3235
32.5584
34.709
36.6833
38.3566
39.6809
40.6679
41.3299
41.69
41.7791
41.6183
41.2215
40.5912
39.725
38.6178
37.2618
35.6499
33.7787
31.6471
29.2574
26.6273
23.8056
20.8538
17.818
14.7303
11.6167
8.49598
5.38292
2.27549
-0.847193
-4.01674
-7.2886
-10.7033
-14.4657
-18.2274
-23.625
21.3108
19.2085
16.8698
14.4285
12.0324
9.56393
7.11156
4.73617
2.42679
0.213986
-1.89441
-3.93009
-5.90148
-7.81213
-9.66278
-11.4542
-13.1785
-14.8454
-16.4939
-18.0154
-19.4429
-20.9976
-22.4021
-23.2958
-23.8173
-24.273
-24.762
-25.2807
-25.8508
-26.5935
-27.7821
-29.3425
-31.0727
-32.2188
-32.4428
-31.6633
-30.4534
-30.2434
-34.4527
23.296
25.2239
27.3207
29.5179
31.6184
33.6394
35.4976
37.0732
38.3211
39.2548
39.8864
40.2389
40.3426
40.2179
39.8786
39.3256
38.5557
37.561
36.3309
34.8545
33.1241
31.1345
28.8833
26.3837
23.6808
20.8329
17.8836
14.8652
11.8046
8.72197
5.63309
2.53885
-0.578129
-3.747
-7.02029
-10.4398
-14.1962
-18.0078
-23.3625
20.9773
18.9909
16.7766
14.4627
12.192
9.84807
7.51552
5.25287
3.04665
0.92528
-1.101
-3.06154
-4.96935
-6.83002
-8.64338
-10.4087
-12.1224
-13.7741
-15.4017
-16.9681
-18.3618
-19.8046
-21.2639
-22.3499
-23.0679
-23.6999
-24.3406
-24.9714
-25.6162
-26.4211
-27.6866
-29.4015
-31.3646
-32.7678
-33.1711
-32.4408
-31.2329
-31.0796
-35.2672
22.852
24.6686
26.6453
28.7156
30.6925
32.5935
34.3434
35.8271
37.002
37.8832
38.4826
38.823
38.9348
38.8378
38.5451
38.0579
37.372
36.478
35.3631
34.0136
32.4179
30.5666
28.4531
26.0852
23.5042
20.7649
17.9087
14.9665
11.9659
8.92823
5.87003
2.79447
-0.312029
-3.47641
-6.74748
-10.169
-13.9183
-17.7751
-23.0745
20.614
18.7344
16.6354
14.4389
12.2843
10.056
7.83532
5.67796
3.56989
1.53708
-0.409822
-2.29599
-4.13777
-5.94354
-7.71334
-9.44409
-11.136
-12.7748
-14.3706
-15.9497
-17.3703
-18.7127
-20.1607
-21.4114
-22.323
-23.122
-23.9059
-24.6486
-25.3774
-26.2585
-27.617
-29.5025
-31.7155
-33.3789
-33.9704
-33.2939
-32.0783
-31.9799
-36.0981
22.3867
24.1006
25.9665
27.9196
29.7819
31.5712
33.2197
34.6167
35.7218
36.5513
37.1174
37.4427
37.5572
37.4804
37.2255
36.7937
36.1805
35.376
34.3658
33.1339
31.6657
29.9479
27.9694
25.733
23.2757
20.649
17.8911
15.0315
12.0977
9.11161
6.09045
3.0395
-0.0514971
-3.20696
-6.47245
-9.89317
-13.6315
-17.5293
-22.7639
20.2277
18.4471
16.455
14.368
12.3209
10.2002
8.08388
6.02599
4.01047
2.06297
0.192604
-1.6208
-3.39604
-5.14388
-6.86563
-8.557
-10.2182
-11.8405
-13.4108
-14.9688
-16.4376
-17.7337
-19.1174
-20.4879
-21.5915
-22.5538
-23.4729
-24.3261
-25.1483
-26.1182
-27.5879
-29.6588
-32.1323
-34.0521
-34.8306
-34.2123
-32.9916
-32.9407
-36.945
21.9057
23.5246
25.2879
27.1317
28.8873
30.5727
32.1257
33.4403
34.4785
35.2574
35.7893
36.0971
36.21
36.1476
35.9229
35.5376
34.9871
34.2615
33.3456
32.2219
30.8732
29.2829
27.4355
25.3294
22.9967
20.4853
17.8302
15.0591
12.1985
9.27062
6.29307
3.27293
0.202793
-2.93905
-6.19472
-9.61082
-13.3362
-17.2671
-22.4271
19.8238
18.1355
16.243
14.2578
12.3109
10.2909
8.27246
6.30751
4.37995
2.51396
0.717668
-1.02511
-2.73393
-4.42245
-6.09333
-7.74237
-9.36794
-10.9671
-12.5198
-14.0435
-15.5409
-16.8561
-18.1579
-19.5844
-20.8717
-22.002
-23.054
-24.0175
-24.9421
-26.0152
-27.6129
-29.8784
-32.6081
-34.7688
-35.7384
-35.1821
-33.967
-33.9512
-37.8112
21.4136
22.9443
24.6118
26.3539
28.0095
29.5976
31.0604
32.2965
33.2704
33.9999
34.4975
34.7858
34.8937
34.8408
34.6399
34.2933
33.7967
33.1404
32.309
31.2839
30.0462
28.5764
26.8554
24.877
22.6684
20.2739
17.7251
15.0474
12.2658
9.40245
6.47486
3.49165
0.448023
-2.67523
-5.91683
-9.32443
-13.0322
-16.9894
-22.0668
19.4066
17.8044
16.0054
14.1155
12.2622
10.3363
8.40961
6.53257
4.68792
2.89965
1.17435
-0.500177
-2.14386
-3.77285
-5.39134
-6.99606
-8.58393
-10.1538
-11.6905
-13.1859
-14.6784
-16.0513
-17.3013
-18.7151
-20.157
-21.4661
-22.6579
-23.7358
-24.7733
-25.9665
-27.707
-30.1695
-33.1395
-35.5252
-36.6827
-36.1943
-34.9987
-35.0013
-38.6951
20.9141
22.3623
23.9404
25.5867
27.149
28.6458
30.0229
31.1842
32.0963
32.7774
33.2405
33.508
33.6084
33.5608
33.3784
33.0637
32.6133
32.0176
31.2614
30.3257
29.1903
27.8337
26.2335
24.379
22.293
20.0158
17.576
14.9958
12.2987
9.50572
6.6346
3.69464
0.683485
-2.41584
-5.63838
-9.03274
-12.7199
-16.6929
-21.6797
18.9798
17.4584
15.7469
13.9464
12.181
10.3436
8.50321
6.70858
4.94279
3.22823
1.57088
-0.0385507
-1.61904
-3.18938
-4.75537
-6.31441
-7.86342
-9.40027
-10.9177
-12.3955
-13.8635
-15.289
-16.5479
-17.9034
-19.4415
-20.9357
-22.286
-23.4898
-24.6527
-25.9824
-27.8762
-30.5287
-33.7137
-36.3013
-37.6465
-37.236
-36.0704
-36.0718
-39.596
20.4099
21.7808
23.2747
24.8314
26.3055
27.7164
29.0122
30.1019
30.9545
31.5885
32.0173
32.263
32.3537
32.3082
32.1398
31.8515
31.4403
30.8973
30.2078
29.3527
28.3111
27.0598
25.5739
23.8387
21.8728
19.7126
17.3831
14.9037
12.2954
9.57838
6.76957
3.87908
0.906196
-2.16358
-5.36228
-8.73831
-12.3996
-16.3791
-21.2691
18.5461
17.1006
15.4716
13.7555
12.0725
10.3183
8.55927
6.84285
5.15125
3.50681
1.91423
0.366605
-1.15318
-2.66658
-4.18066
-5.6936
-7.20293
-8.70554
-10.1991
-11.6653
-13.1093
-14.5564
-15.8756
-17.1763
-18.7336
-20.3972
-21.9317
-23.283
-24.5877
-26.0701
-28.1227
-30.9532
-34.325
-37.0898
-38.6154
-38.2938
-37.1599
-37.1488
-40.5094
19.9033
21.2018
22.6165
24.0883
25.4796
26.8091
28.0273
29.0484
29.8437
30.432
30.8267
31.05
31.1293
31.0834
30.9252
30.6584
30.2805
29.7832
29.1526
28.3698
27.4135
26.2597
24.8812
23.2602
21.4109
19.3661
17.1474
14.7711
12.2555
9.61949
6.87878
4.04392
1.11551
-1.91877
-5.08803
-8.4401
-12.0715
-16.0453
-20.8316
18.1079
16.7342
15.183
13.5464
11.9411
10.2656
8.58332
6.9404
5.31951
3.74146
2.21077
0.721353
-0.740685
-2.19894
-3.66209
-5.12896
-6.59814
-8.06646
-9.53306
-10.9877
-12.4181
-13.86
-15.2507
-16.5455
-18.0562
-19.8392
-21.5796
-23.1109
-24.5783
-26.2292
-28.4422
-31.4338
-34.9611
-37.8736
-39.5706
-39.3478
-38.2456
-38.2097
-41.4259
19.3963
20.6265
21.9664
23.3582
24.671
25.9232
27.0674
28.0228
28.763
29.3068
29.6678
29.8682
29.935
29.8863
29.7352
29.4858
29.1361
28.6784
28.0997
27.3814
26.5026
25.4384
24.1602
22.6473
20.9105
18.9787
16.8702
14.5983
12.1786
9.62748
6.9602
4.18675
1.30867
-1.68442
-4.81848
-8.14079
-11.7359
-15.6936
-20.3708
17.6671
16.3611
14.8838
13.3224
11.7908
10.1893
8.5798
7.00689
5.45257
3.93772
2.46624
1.03201
-0.375392
-1.78059
-3.19396
-4.61526
-6.04425
-7.47879
-8.91782
-10.3579
-11.7832
-13.2124
-14.6506
-15.9968
-17.4422
-19.2645
-21.2093
-22.9597
-24.6174
-26.4537
-28.8285
-31.9613
-35.614
-38.6475
-40.4987
-40.3788
-39.3029
-39.2415
-42.3299
18.8905
20.0562
21.3253
22.6412
23.8797
25.0582
26.1319
27.0243
27.7113
28.2118
28.5397
28.7171
28.7703
28.7171
28.5706
28.3351
28.0089
27.5856
27.0523
26.3916
25.5826
24.6003
23.4152
22.0044
20.3751
18.5531
16.5535
14.3863
12.0645
9.60228
7.01316
4.30668
1.48516
-1.46054
-4.55349
-7.83951
-11.3934
-15.3217
-19.8839
17.2254
15.9838
14.5763
13.0863
11.6241
10.0934
8.55272
7.04572
5.5551
4.10034
2.68548
1.30392
-0.0515391
-1.40571
-2.77062
-4.14728
-5.53677
-6.93827
-8.35045
-9.7733
-11.196
-12.6185
-14.073
-15.4959
-16.9132
-18.6939
-20.8016
-22.8053
-24.6877
-26.7281
-29.2671
-32.5213
-36.2685
-39.3972
-41.3818
-41.3632
-40.3142
-40.2205
-43.1913
18.3872
19.4917
20.6937
21.9375
23.1052
24.2139
25.2199
26.0519
26.6877
27.1461
27.4415
27.5959
27.6348
27.5757
27.4317
27.2069
26.9006
26.5067
26.0134
25.4038
24.6576
23.7498
22.6506
21.3352
19.8083
18.0922
16.1993
14.1364
11.9138
9.54311
7.03628
4.40189
1.64244
-1.24987
-4.29575
-7.53892
-11.0446
-14.9324
-19.3746
16.7842
15.6035
14.2626
12.8404
11.4445
9.98041
8.50528
7.06132
5.6309
4.23334
2.8726
1.54147
0.235538
-1.06953
-2.38756
-3.72105
-5.07215
-6.44122
-7.82748
-9.23158
-10.6495
-12.0732
-13.528
-15.0125
-16.4635
-18.1615
-20.3491
-22.6165
-24.7621
-27.0287
-29.738
-33.0964
-36.9097
-40.1111
-42.2021
-42.278
-41.2528
-41.1312
-43.9705
17.8874
18.9339
20.0721
21.2473
22.3479
23.3897
24.3311
25.105
25.6914
26.1091
26.3726
26.5039
26.528
26.462
26.3185
26.1023
25.8125
25.444
24.9854
24.4211
23.7311
22.891
21.8706
20.6443
19.2141
17.5995
15.8102
13.8505
11.7275
9.45054
7.02949
4.47201
1.78029
-1.05263
-4.04494
-7.23851
-10.6899
-14.5241
-18.8409
16.3447
15.2221
13.9443
12.5868
11.2535
9.8535
8.44052
7.05612
5.68348
4.34046
3.03135
1.74846
0.489844
-0.76825
-2.04128
-3.33335
-4.64734
-5.98454
-7.34507
-8.72976
-10.1392
-11.5666
-13.0218
-14.535
-16.0592
-17.6971
-19.864
-22.3605
-24.803
-27.3209
-30.2113
-33.6631
-37.5163
-40.7693
-42.9367
-43.0987
-42.102
-41.9437
-44.6107
17.392
18.3835
19.4611
20.571
21.6073
22.5857
23.4648
24.1829
24.7217
25.0999
25.3322
25.4408
25.4499
25.3759
25.2317
25.0216
24.7456
24.3988
23.9707
23.4462
22.8064
22.0276
21.0795
19.9356
18.5961
17.0782
15.389
13.5303
11.5066
9.32469
6.99238
4.51565
1.89664
-0.871003
-3.80382
-6.94066
-10.3303
-14.1003
-18.2871
15.9077
14.8404
13.6231
12.3272
11.054
9.71426
8.36084
7.03374
5.71571
4.42478
3.16502
1.92836
0.714782
-0.498478
-1.72869
-2.98104
-4.25909
-5.56467
-6.8991
-8.26382
-9.66161
-11.0905
-12.5506
-14.07
-15.6618
-17.3034
-19.3782
-22.0144
-24.7647
-27.5614
-30.6487
-34.1916
-38.0655
-41.3516
-43.5635
-43.7986
-42.8312
-42.6328
-45.0562
16.902
17.8411
18.8607
19.9083
20.8837
21.8007
22.6207
23.2851
23.7779
24.1179
24.3199
24.406
24.3998
24.3174
24.171
23.9655
23.7008
23.3725
22.9708
22.4815
21.8868
21.1631
20.2807
19.213
17.9583
16.5319
14.9389
13.1787
11.2533
9.16695
6.92537
4.53327
1.99172
-0.705064
-3.57188
-6.64513
-9.96646
-13.6601
-17.7116
15.4744
14.4599
13.3001
12.063
10.8468
9.56548
8.26868
6.9958
5.7305
4.48943
3.2768
2.08441
0.91377
-0.257012
-1.44637
-2.66054
-3.90338
-5.17731
-6.48502
-7.82893
-9.2128
-10.6383
-12.1048
-13.6245
-15.2501
-16.9492
-18.9266
-21.5776
-24.6004
-27.6985
-31.0022
-34.6437
-38.5269
-41.8319
-44.0544
-44.3518
-43.4204
-43.1506
-45.2521
16.4179
17.3069
18.2715
19.2596
20.1764
21.0354
21.7982
22.4109
22.8595
23.1625
23.3349
23.399
23.3775
23.286
23.1367
22.9342
22.6788
22.3662
21.9875
21.5294
20.9745
20.3004
19.4779
18.4802
17.3045
15.9643
14.4631
12.7982
10.9693
8.97832
6.82897
4.5241
2.0642
-0.556643
-3.35159
-6.35427
-9.59971
-13.2072
-17.1194
15.0452
14.081
12.9765
11.7958
10.6344
9.40812
8.16583
6.94533
5.73007
4.53675
3.36942
2.2195
1.08964
-0.040603
-1.19075
-2.36766
-3.57562
-4.81775
-6.09791
-7.41985
-8.78795
-10.2054
-11.6743
-13.1962
-14.8247
-16.5885
-18.5222
-21.0763
-24.2736
-27.6751
-31.2167
-34.9735
-38.865
-42.1796
-44.3803
-44.7299
-43.8302
-43.45
-45.1669
15.9403
16.7817
17.6934
18.6248
19.4857
20.2888
20.9971
21.5602
21.9662
22.2334
22.377
22.4195
22.3827
22.2819
22.1288
21.9281
21.6802
21.381
21.0223
20.5916
20.0722
19.4426
18.6744
17.7409
16.6384
15.3791
13.965
12.3919
10.6572
8.76087
6.70445
4.48926
2.11471
-0.425183
-3.14243
-6.06776
-9.23045
-12.7414
-16.5097
14.621
13.7052
12.6533
11.5265
10.4173
9.24455
8.05416
6.88345
5.71664
4.56924
3.44538
2.33638
1.2454
0.15406
-0.958004
-2.09813
-3.27116
-4.48106
-5.73281
-7.03138
-8.38161
-9.7869
-11.2517
-12.7754
-14.3931
-16.1887
-18.1414
-20.5517
-23.7737
-27.4361
-31.231
-35.1258
-39.0351
-42.3554
-44.509
-44.9033
-44.0274
-43.4649
-44.7802
15.4698
16.2656
17.1269
18.0039
18.8113
19.5612
20.2169
20.7324
21.0973
21.33
21.4458
21.4671
21.4153
21.3047
21.1473
20.9475
20.7055
20.4178
20.0766
19.6698
19.182
18.5924
17.8733
16.9986
15.9636
14.7799
13.4482
11.9628
10.3196
8.5164
6.55299
4.42896
2.14266
-0.312049
-2.94622
-5.7878
-8.86079
-12.2669
-15.8879
14.2022
13.3325
12.3313
11.2563
10.1974
9.07532
7.93515
6.81276
5.69214
4.58901
3.50714
2.4378
1.38414
0.330283
-0.744354
-1.84781
-2.9857
-4.16295
-5.38546
-6.65893
-7.98878
-9.37813
-10.8317
-12.3514
-13.9563
-15.7435
-17.7356
-20.0323
-23.1265
-26.9406
-30.9825
-35.0392
-38.9843
-42.3125
-44.4111
-44.835
-43.9566
-43.1428
-44.0896
15.0066
15.759
16.572
17.397
18.1534
18.8519
19.4576
19.9273
20.2528
20.4521
20.5409
20.5415
20.4747
20.3546
20.1923
19.9925
19.7552
19.4773
19.1511
18.7656
18.3058
17.752
17.0775
16.2562
15.2837
14.1702
12.9161
11.5145
9.95955
8.24762
6.37666
4.34483
2.14934
-0.21628
-2.76232
-5.51412
-8.49075
-11.7836
-15.2538
13.7893
12.964
12.0112
10.986
9.9751
8.90246
7.81033
6.734
5.65845
4.5981
3.5569
2.52626
1.50891
0.491516
-0.546194
-1.6131
-2.71573
-3.85992
-5.0521
-6.29846
-7.60455
-8.97365
-10.4095
-11.9157
-13.5058
-15.2606
-17.2634
-19.5089
-22.385
-26.1794
-30.4162
-34.6478
-38.6524
-41.9964
-44.0509
-44.4816
-43.5674
-42.4263
-43.0758
14.5513
15.2619
16.0289
16.8041
17.5115
18.1614
18.7188
19.1446
19.4321
19.5993
19.662
19.6425
19.5612
19.4313
19.264
19.0635
18.8298
18.5601
18.2472
17.8803
17.4453
16.9238
16.2893
15.5169
14.6018
13.5537
12.3724
11.0501
9.58004
7.95696
6.17732
4.23795
2.13491
-0.13856
-2.59211
-5.24847
-8.12282
-11.2959
-14.6133
13.3827
12.5997
11.6937
10.7164
9.75197
8.72626
7.68074
6.64937
5.61696
4.59811
3.59649
2.60378
1.62217
0.640602
-0.360516
-1.391
-2.45829
-3.56884
-4.72929
-5.94597
-7.22464
-8.56846
-9.98012
-11.4626
-13.0308
-14.7447
-16.7118
-18.9389
-21.5994
-25.1884
-29.4976
-33.89
-37.9747
-41.3449
-43.3827
-43.784
-42.7947
-41.284
-41.7077
14.104
14.7749
15.4976
16.2254
16.886
17.4888
18.0004
18.3841
18.6352
18.7715
18.809
18.7701
18.6745
18.5349
18.3624
18.1605
17.9299
17.667
17.3657
17.015
16.6027
16.1096
15.5115
14.7835
13.9211
12.9337
11.8204
10.5732
9.18441
7.64747
5.95768
4.11055
2.10122
-0.0774266
-2.43458
-4.99064
-7.75702
-10.8043
-13.9666
12.9829
12.2406
11.3793
10.448
9.52806
8.54834
7.54757
6.55934
5.56915
4.59068
3.62771
2.67218
1.72591
0.779797
-0.184971
-1.17913
-2.2109
-3.28692
-4.41382
-5.59796
-6.84498
-8.15802
-9.53887
-10.9883
-12.5229
-14.1915
-16.0894
-18.2776
-20.7823
-24.0414
-28.2321
-32.7192
-36.8885
-40.2928
-42.3427
-42.673
-41.5803
-39.6838
-39.9239
13.6651
14.2979
14.9786
15.6608
16.2767
16.8349
17.3022
17.6455
17.8618
17.9685
17.9817
17.9242
17.8145
17.6656
17.4873
17.2843
17.0553
16.7988
16.507
16.1715
15.7784
15.3114
14.7461
14.0585
13.2447
12.3133
11.2637
10.0874
8.77597
7.32215
5.72011
3.96436
2.0492
-0.0328242
-2.29053
-4.7421
-7.39586
-10.3127
-13.3197
12.5899
11.8866
11.0684
10.1815
9.30475
8.36874
7.41164
6.46559
5.51611
4.57705
3.65194
2.73306
1.82186
0.910932
-0.0177335
-0.975625
-1.97142
-3.01165
-4.10278
-5.25106
-6.46198
-7.73836
-9.08131
-10.489
-11.9774
-13.5927
-15.4068
-17.5091
-19.9036
-22.8154
-26.6789
-31.1206
-35.3444
-38.7776
-40.8528
-41.0744
-39.863
-37.6102
-37.6528
13.2349
13.8314
14.4715
15.1105
15.6837
16.1987
16.6242
16.9289
17.1117
17.19
17.1801
17.1044
16.9814
16.823
16.6395
16.4343
16.2071
15.9553
15.6727
15.3499
14.9747
14.5309
13.995
13.3445
12.5751
11.6957
10.7055
9.59586
8.35808
6.9842
5.46764
3.80209
1.98111
-0.00298876
-2.15866
-4.50226
-7.03933
-9.82204
-12.6727
12.2044
11.5385
10.7616
9.91731
9.08192
8.18883
7.27375
6.36833
5.45893
4.55844
3.67047
2.78769
1.91138
1.03541
0.142681
-0.778787
-1.73784
-2.74065
-3.79346
-4.90229
-6.0725
-7.30641
-8.60413
-9.96193
-11.3925
-12.9424
-14.6667
-16.6449
-18.9222
-21.5479
-24.9415
-29.1306
-33.322
-36.7535
-38.8383
-38.951
-37.6077
-35.042
-34.8258
12.8137
13.3753
13.977
14.5742
15.1067
15.581
15.9659
16.2338
16.3847
16.4359
16.4038
16.3109
16.1749
16.0075
15.8186
15.6113
15.3851
15.1376
14.8628
14.5515
14.1924
13.7693
13.2604
12.6436
11.9151
11.0838
10.149
9.10206
7.93413
6.63686
5.20314
3.626
1.89853
0.0128568
-2.03919
-4.27226
-6.68962
-9.33579
-12.0315
11.8264
11.1963
10.4591
9.65601
8.86072
8.00853
7.13448
6.26897
5.39836
4.53562
3.68426
2.8372
1.99564
1.15442
0.297561
-0.587178
-1.50837
-2.47193
-3.4836
-4.54939
-5.67434
-6.86003
-8.10536
-9.40501
-10.7681
-12.2394
-13.8664
-15.7038
-17.8236
-20.2246
-23.127
-26.8461
-30.8486
-34.2111
-36.2602
-36.3081
-34.8019
-31.9718
-31.4055
12.4015
12.93
13.4945
14.0522
14.5459
14.9807
15.3275
15.5603
15.6809
15.7062
15.6529
15.5435
15.3952
15.219
15.0249
14.8154
14.5899
14.3462
14.0782
13.7773
13.4324
13.0285
12.544
11.9578
11.267
10.4804
9.59722
8.60915
7.50735
6.28336
4.92967
3.43896
1.80398
0.0167307
-1.93065
-4.0513
-6.34675
-8.85472
-11.3963
11.4562
10.8605
10.1615
9.39788
8.64104
7.82895
6.99444
6.16749
5.33509
4.50943
3.69418
2.88253
2.07555
1.26907
0.448061
-0.399333
-1.28147
-2.20373
-3.1716
-4.19085
-5.26609
-6.39799
-7.58421
-8.81794
-10.1052
-11.4864
-13.0058
-14.6976
-16.6254
-18.8131
-21.2972
-24.408
-28.0128
-31.1964
-33.1421
-33.1627
-31.4613
-28.4085
-27.4142
11.9986
12.4952
13.0247
13.5442
14.0009
14.3987
14.7086
14.9081
14.9998
15.0006
14.9272
14.8023
14.6422
14.4578
14.2586
14.0468
13.8219
13.5814
13.3195
13.0281
12.6962
12.3096
11.8472
11.2893
10.6332
9.88794
9.05303
8.12024
7.081
5.92691
4.65028
3.24365
1.6995
0.00991823
-1.83265
-3.8401
-6.01252
-8.38206
-10.7724
11.094
10.5312
9.86883
9.14339
8.4238
7.64994
6.85407
6.06489
5.26957
4.48039
3.70078
2.92423
2.15183
1.38006
0.595149
-0.214226
-1.05595
-1.93496
-2.85649
-3.82598
-4.84742
-5.92051
-7.04152
-8.20209
-9.40589
-10.6883
-12.0894
-13.6324
-15.3559
-17.3056
-19.4539
-21.953
-24.9626
-27.8168
-29.5739
-29.5424
-27.6539
-24.4188
-22.9458
11.605
12.0714
12.5669
13.0505
13.4718
13.8339
14.1094
14.2772
14.3416
14.3192
14.2268
14.0871
13.916
13.7238
13.5197
13.3058
13.0813
12.8437
12.5875
12.3045
11.9845
11.6136
11.1717
10.6398
10.0157
9.30895
8.51898
7.63807
6.65803
5.57052
4.36795
3.04281
1.58762
-0.00544767
-1.74364
-3.63772
-5.68679
-7.91828
-10.1594
10.7399
10.2087
9.58147
8.89271
8.20886
7.47244
6.71378
5.96113
5.20231
4.44888
3.70447
2.96277
2.22492
1.48787
0.739307
-0.0312421
-0.831179
-1.66521
-2.53821
-3.45515
-4.41911
-5.42881
-6.47916
-7.56046
-8.67452
-9.85184
-11.1265
-12.5159
-14.0372
-15.7277
-17.5756
-19.5613
-21.8742
-24.2297
-25.6974
-25.5296
-23.5161
-20.138
-18.1825
11.2208
11.6581
12.1216
12.5705
12.9585
13.2871
13.5294
13.6673
13.7059
13.6617
13.5515
13.398
13.2164
13.017
12.8085
12.5925
12.3684
12.1335
11.8824
11.6073
11.2982
10.9417
10.5186
10.0106
9.41653
8.7455
7.9975
7.16545
6.24137
5.21723
4.08563
2.83923
1.47064
-0.0277288
-1.66278
-3.44435
-5.37084
-7.46592
-9.56239
10.3938
9.89288
9.29949
8.64612
7.99689
7.29626
6.5739
5.85695
5.13356
4.41524
3.70556
2.99843
2.29504
1.59265
0.880741
0.149848
-0.607146
-1.39477
-2.21748
-3.0794
-3.98285
-4.9253
-5.90057
-6.89775
-7.91713
-8.98482
-10.1285
-11.3602
-12.6852
-14.1172
-15.6629
-17.2455
-18.8998
-20.621
-21.6964
-21.2972
-19.2014
-15.7426
-13.3632
10.846
11.2557
11.6884
12.1049
12.4609
12.7574
12.9688
13.0785
13.0929
13.0281
12.9012
12.7348
12.5437
12.3375
12.1249
11.9072
11.6835
11.4512
11.2049
10.937
10.638
10.295
9.88923
9.40366
8.83735
8.19957
7.49095
6.7048
5.83363
4.86971
3.80603
2.63546
1.3509
-0.0549073
-1.58858
-3.25903
-5.0644
-7.02527
-8.98021
10.0559
9.58393
9.02302
8.40366
7.7877
7.12201
6.43465
5.75228
5.06362
4.37969
3.70417
3.03125
2.36222
1.69437
1.01938
0.328768
-0.384428
-1.12465
-1.89569
-2.70084
-3.54126
-4.41355
-5.31019
-6.21981
-7.14112
-8.09692
-9.10831
-10.1815
-11.3158
-12.5052
-13.7491
-14.9906
-16.1212
-17.1708
-17.7684
-17.0813
-14.8827
-11.3937
-8.75251
10.4807
10.864
11.2679
11.6529
11.979
12.2456
12.4273
12.5105
12.5021
12.4182
12.2758
12.0976
11.8976
11.6854
11.4691
11.2499
11.0267
10.7969
10.5553
10.2942
10.0047
9.67415
9.28477
8.82008
8.27956
7.673
7.00133
6.25846
5.43728
4.53059
3.53178
2.43405
1.23068
-0.0851917
-1.51989
-3.08157
-4.76822
-6.59808
-8.41717
9.72616
9.28184
8.75201
8.16545
7.58163
6.94943
6.29618
5.64751
4.99256
4.34226
3.70034
3.06118
2.42632
1.79296
1.15493
0.504888
-0.164124
-0.856415
-1.57495
-2.322
-3.09782
-3.89772
-4.71377
-5.5337
-6.35574
-7.19903
-8.07957
-8.99767
-9.94779
-10.9145
-11.8771
-12.8012
-13.5471
-14.0134
-14.0887
-13.0997
-10.7519
-7.24439
-4.56446
10.1248
10.4833
10.8593
11.2152
11.5128
11.7506
11.9051
11.9634
11.9337
11.8321
11.6755
11.4862
11.2784
11.0607
10.8412
10.6208
10.3983
10.171
9.9338
9.67931
9.39873
9.08001
8.70594
8.26086
7.74471
7.16749
6.53062
5.82844
5.05453
4.2022
3.26521