/*--------------------------------*- C++ -*----------------------------------*\
  =========                 |
  \\      /  F ield         | OpenFOAM: The Open Source CFD Toolbox
   \\    /   O peration     | Website:  https://openfoam.org
    \\  /    A nd           | Version:  9
     \\/     M anipulation  |
\*---------------------------------------------------------------------------*/
FoamFile
{
    format      ascii;
    class       surfaceScalarField;
    location    "0.075";
    object      phi;
}
// * * * * * * * * * * * * * * * * * * * * * * * * * * * * * * * * * * * * * //

dimensions      [0 3 -1 0 0 0 0];

internalField   nonuniform List<scalar> 
1740
(
1.71024e-08
-1.71045e-08
1.36558e-08
3.4468e-09
-2.45741e-08
3.82304e-08
-9.52926e-08
7.0718e-08
-1.91946e-07
9.66535e-08
-3.06774e-07
1.14828e-07
-4.32139e-07
1.25365e-07
-5.61033e-07
1.28896e-07
-6.87207e-07
1.26174e-07
-8.05156e-07
1.17949e-07
-9.10073e-07
1.04917e-07
-9.97788e-07
8.77154e-08
-1.06475e-06
6.69618e-08
-1.10806e-06
4.33119e-08
-1.12557e-06
1.75095e-08
-1.11599e-06
-9.5828e-09
-1.07902e-06
-3.69656e-08
-1.01552e-06
-6.34991e-08
-9.27603e-07
-8.79192e-08
-8.18728e-07
-1.08876e-07
-6.93733e-07
-1.24995e-07
-5.58762e-07
-1.34971e-07
-4.21098e-07
-1.37662e-07
-2.8889e-07
-1.32209e-07
-1.70736e-07
-1.18154e-07
-7.51058e-08
-9.56308e-08
-9.41158e-09
-6.56947e-08
2.15381e-08
-3.09503e-08
1.89106e-08
2.62689e-09
1.89099e-08
-3.18003e-09
-1.39259e-08
-6.28851e-08
6.31533e-08
-1.95107e-07
1.70452e-07
-3.96667e-07
2.7228e-07
-6.5547e-07
3.55457e-07
-9.55614e-07
4.14972e-07
-1.28008e-06
4.49836e-07
-1.61229e-06
4.611e-07
-1.9368e-06
4.50683e-07
-2.23964e-06
4.20793e-07
-2.50842e-06
3.73695e-07
-2.73235e-06
3.11651e-07
-2.90237e-06
2.36978e-07
-3.01122e-06
1.52167e-07
-3.05371e-06
5.99917e-08
-3.0269e-06
-3.63875e-08
-2.93049e-06
-1.33378e-07
-2.76703e-06
-2.26955e-07
-2.54222e-06
-3.12731e-07
-2.26499e-06
-3.86106e-07
-1.94749e-06
-4.42494e-07
-1.60484e-06
-4.77622e-07
-1.25461e-06
-4.87891e-07
-9.16031e-07
-4.70786e-07
-6.08835e-07
-4.25351e-07
-3.51646e-07
-3.5282e-07
-1.59751e-07
-2.5759e-07
-4.19951e-08
-1.48707e-07
3.80316e-09
-4.31729e-08
2.27133e-08
-3.72305e-08
2.33056e-08
-1.7163e-07
1.97553e-07
-4.08104e-07
4.06926e-07
-7.38235e-07
6.02411e-07
-1.145e-06
7.62224e-07
-1.60681e-06
8.76778e-07
-2.10029e-06
9.4332e-07
-2.60219e-06
9.62996e-07
-3.09042e-06
9.38917e-07
-3.54471e-06
8.75085e-07
-3.94691e-06
7.75889e-07
-4.28118e-06
6.45922e-07
-4.53423e-06
4.90032e-07
-4.69554e-06
3.13472e-07
-4.75763e-06
1.22084e-07
-4.71647e-06
-7.7543e-08
-4.57186e-06
-2.77994e-07
-4.32776e-06
-4.71051e-07
-3.99264e-06
-6.47851e-07
-3.57956e-06
-7.99189e-07
-3.10607e-06
-9.15983e-07
-2.59381e-06
-9.89875e-07
-2.06774e-06
-1.01396e-06
-1.5549e-06
-9.83627e-07
-1.08277e-06
-8.97479e-07
-6.77072e-07
-7.5852e-07
-3.5896e-07
-5.75702e-07
-1.41719e-07
-3.65948e-07
-2.69631e-08
-1.5793e-07
-4.24891e-09
-7.24788e-08
9.57842e-08
-2.85415e-07
4.1049e-07
-6.29052e-07
7.50563e-07
-1.08614e-06
1.0595e-06
-1.63336e-06
1.30944e-06
-2.24368e-06
1.4871e-06
-2.88857e-06
1.58821e-06
-3.53968e-06
1.6141e-06
-4.16998e-06
1.56922e-06
-4.7545e-06
1.4596e-06
-5.27075e-06
1.29214e-06
-5.69911e-06
1.07428e-06
-6.02305e-06
8.13979e-07
-6.22953e-06
5.19952e-07
-6.30932e-06
2.01873e-07
-6.25746e-06
-1.29403e-07
-6.07372e-06
-4.61732e-07
-5.76303e-06
-7.81741e-07
-5.3358e-06
-1.07509e-06
-4.80803e-06
-1.32696e-06
-4.20122e-06
-1.52279e-06
-3.54184e-06
-1.64925e-06
-2.8604e-06
-1.69541e-06
-2.18997e-06
-1.65405e-06
-1.56431e-06
-1.52314e-06
-1.01531e-06
-1.30752e-06
-5.70201e-07
-1.02081e-06
-2.48487e-07
-6.87663e-07
-5.93027e-08
-3.47113e-07
-6.35514e-08
-1.05483e-07
2.01267e-07
-3.95677e-07
7.00686e-07
-8.45449e-07
1.20033e-06
-1.42706e-06
1.64111e-06
-2.10967e-06
1.99206e-06
-2.86046e-06
2.23789e-06
-3.64606e-06
2.37381e-06
-4.43382e-06
2.40187e-06
-5.1928e-06
2.3282e-06
-5.89441e-06
2.16121e-06
-6.51291e-06
1.91064e-06
-7.02577e-06
1.58714e-06
-7.414e-06
1.20221e-06
-7.66253e-06
7.68486e-07
-7.76065e-06
2.99995e-07
-7.70249e-06
-1.8757e-07
-7.4875e-06
-6.76712e-07
-7.12103e-06
-1.14821e-06
-6.61463e-06
-1.58149e-06
-5.98627e-06
-1.95531e-06
-5.26028e-06
-2.24878e-06
-4.4668e-06
-2.44274e-06
-3.64082e-06
-2.52139e-06
-2.82066e-06
-2.47421e-06
-2.04591e-06
-2.29789e-06
-1.35486e-06
-1.99856e-06
-7.81703e-07
-1.59397e-06
-3.53825e-07
-1.11554e-06
-8.99152e-08
-6.11022e-07
-1.53467e-07
-1.35932e-07
3.37199e-07
-5.00258e-07
1.06501e-06
-1.05338e-06
1.75345e-06
-1.75655e-06
2.34429e-06
-2.5707e-06
2.80621e-06
-3.45678e-06
3.12396e-06
-4.37656e-06
3.29359e-06
-5.29346e-06
3.31877e-06
-6.1732e-06
3.20794e-06
-6.98433e-06
2.97234e-06
-7.69856e-06
2.62488e-06
-8.29115e-06
2.17972e-06
-8.74113e-06
1.65219e-06
-9.03178e-06
1.05913e-06
-9.15097e-06
4.19188e-07
-9.09177e-06
-2.46766e-07
-8.85299e-06
-9.15491e-07
-8.43975e-06
-1.56145e-06
-7.86399e-06
-2.15726e-06
-7.14479e-06
-2.67452e-06
-6.30838e-06
-3.08519e-06
-5.3878e-06
-3.36331e-06
-4.42198e-06
-3.48722e-06
-3.45424e-06
-3.44194e-06
-2.53024e-06
-3.22189e-06
-1.69537e-06
-2.83343e-06
-9.9196e-07
-2.29739e-06
-4.56648e-07
-1.65085e-06
-1.1868e-07
-9.48991e-07
-2.72148e-07
-1.64299e-07
5.01498e-07
-5.99531e-07
1.50024e-06
-1.25287e-06
2.40679e-06
-2.07464e-06
3.16606e-06
-3.01719e-06
3.74876e-06
-4.03496e-06
4.14173e-06
-5.08479e-06
4.34341e-06
-6.1263e-06
4.36028e-06
-7.12226e-06
4.20391e-06
-8.03885e-06
3.88892e-06
-8.84578e-06
3.43181e-06
-9.51655e-06
2.85049e-06
-1.00286e-05
2.16427e-06
-1.03638e-05
1.39429e-06
-1.05085e-05
5.63922e-07
-1.04546e-05
-3.00684e-07
-1.01997e-05
-1.17038e-06
-9.74814e-06
-2.01303e-06
-9.11142e-06
-2.79398e-06
-8.30889e-06
-3.47705e-06
-7.36794e-06
-4.02614e-06
-6.32387e-06
-4.40738e-06
-5.21923e-06
-4.59186e-06
-4.10241e-06
-4.55876e-06
-3.02567e-06
-4.29863e-06
-2.04249e-06
-3.81661e-06
-1.2046e-06
-3.13528e-06
-5.5914e-07
-2.29631e-06
-1.46577e-07
-1.36156e-06
-4.18724e-07
-1.91236e-07
6.92735e-07
-6.94775e-07
2.00378e-06
-1.44555e-06
3.15757e-06
-2.38322e-06
4.10372e-06
-3.45148e-06
4.81703e-06
-4.5981e-06
5.28836e-06
-5.77494e-06
5.52024e-06
-6.93797e-06
5.52331e-06
-8.04731e-06
5.31325e-06
-9.06713e-06
4.90874e-06
-9.96561e-06
4.33029e-06
-1.07149e-05
3.59976e-06
-1.12911e-05
2.74052e-06
-1.16748e-05
1.77794e-06
-1.18509e-05
7.40036e-07
-1.18097e-05
-3.41913e-07
-1.15472e-05
-1.43289e-06
-1.10661e-05
-2.49406e-06
-1.03769e-05
-3.4832e-06
-9.49821e-06
-4.35575e-06
-8.45776e-06
-5.06659e-06
-7.29251e-06
-5.57263e-06
-6.0483e-06
-5.83607e-06
-4.77878e-06
-5.82829e-06
-3.54344e-06
-5.53397e-06
-2.40493e-06
-4.95512e-06
-1.42577e-06
-4.11444e-06
-6.64925e-07
-3.05716e-06
-1.74963e-07
-1.85152e-06
-5.93687e-07
-2.17304e-07
9.1004e-07
-7.87339e-07
2.57382e-06
-1.63335e-06
4.00358e-06
-2.68453e-06
5.15489e-06
-3.87595e-06
6.00845e-06
-5.14868e-06
6.56108e-06
-6.44962e-06
6.82118e-06
-7.73129e-06
6.80498e-06
-8.95144e-06
6.5334e-06
-1.00727e-05
6.02997e-06
-1.1062e-05
5.31963e-06
-1.18907e-05
4.42842e-06
-1.25339e-05
3.38371e-06
-1.29708e-05
2.2149e-06
-1.31851e-05
9.54312e-07
-1.31651e-05
-3.61957e-07
-1.29046e-05
-1.69331e-06
-1.24043e-05
-2.99436e-06
-1.16724e-05
-4.21517e-06
-1.07258e-05
-5.30228e-06
-9.59184e-06
-6.20059e-06
-8.30819e-06
-6.85628e-06
-6.9236e-06
-7.22066e-06
-5.49695e-06
-7.25493e-06
-4.09561e-06
-6.93531e-06
-2.79252e-06
-6.2582e-06
-1.66253e-06
-5.24444e-06
-7.78085e-07
-3.9416e-06
-2.05253e-07
-2.42435e-06
-7.9894e-07
-2.42941e-07
1.15298e-06
-8.78338e-07
3.20921e-06
-1.8179e-06
4.94314e-06
-2.98038e-06
6.31737e-06
-4.29222e-06
7.3203e-06
-5.68779e-06
7.95665e-06
-7.10918e-06
8.24257e-06
-8.50569e-06
8.20149e-06
-9.83313e-06
7.86084e-06
-1.1053e-05
7.24982e-06
-1.21317e-05
6.39834e-06
-1.304e-05
5.33673e-06
-1.37525e-05
4.09623e-06
-1.42475e-05
2.70994e-06
-1.45072e-05
1.21395e-06
-1.45177e-05
-3.51406e-07
-1.42705e-05
-1.94051e-06
-1.37631e-05
-3.50182e-06
-1.30004e-05
-4.9778e-06
-1.1997e-05
-6.30575e-06
-1.07779e-05
-7.41966e-06
-9.38083e-06
-8.25335e-06
-7.85655e-06
-8.74494e-06
-6.26896e-06
-8.84253e-06
-4.69365e-06
-8.51062e-06
-3.21505e-06
-7.7368e-06
-1.92206e-06
-6.53744e-06
-9.02739e-07
-4.96092e-06
-2.38821e-07
-3.08827e-06
-1.03776e-06
-2.6847e-07
1.42145e-06
-9.6861e-07
3.90935e-06
-2.00036e-06
5.97489e-06
-3.27187e-06
7.58887e-06
-4.70077e-06
8.7492e-06
-6.21476e-06
9.47064e-06
-7.75131e-06
9.77912e-06
-9.2569e-06
9.70708e-06
-1.06859e-05
9.28983e-06
-1.19993e-05
8.56324e-06
-1.31637e-05
7.56269e-06
-1.41499e-05
6.32294e-06
-1.49325e-05
4.87889e-06
-1.54894e-05
3.2668e-06
-1.58013e-05
1.52583e-06
-1.58523e-05
-3.00331e-07
-1.56309e-05
-2.16191e-06
-1.51308e-05
-4.00197e-06
-1.43528e-05
-5.75581e-06
-1.33071e-05
-7.35145e-06
-1.20155e-05
-8.71119e-06
-1.0514e-05
-9.75489e-06
-8.85406e-06
-1.04049e-05
-7.10387e-06
-1.05927e-05
-5.3474e-06
-1.02671e-05
-3.68153e-06
-9.40267e-06
-2.21122e-06
-8.00774e-06
-1.04289e-06
-6.12925e-06
-2.7699e-07
-3.85417e-06
-1.31475e-06
-2.94125e-07
1.71558e-06
-1.05878e-06
4.67401e-06
-2.18157e-06
7.09768e-06
-3.55945e-06
8.96675e-06
-5.10097e-06
1.02907e-05
-6.72711e-06
1.10968e-05
-8.37099e-06
1.1423e-05
-9.97676e-06
1.13129e-05
-1.14981e-05
1.08111e-05
-1.28963e-05
9.96148e-06
-1.41389e-05
8.8053e-06
-1.51979e-05
7.38192e-06
-1.60486e-05
5.72958e-06
-1.66688e-05
3.88704e-06
-1.70386e-05
1.89557e-06
-1.714e-05
-1.98929e-07
-1.69581e-05
-2.34378e-06
-1.64823e-05
-4.47781e-06
-1.5708e-05
-6.53008e-06
-1.46397e-05
-8.41969e-06
-1.3294e-05
-1.00569e-05
-1.17029e-05
-1.13461e-05
-9.91666e-06
-1.21911e-05
-8.00645e-06
-1.25029e-05
-6.06404e-06
-1.22095e-05
-4.19962e-06
-1.12671e-05
-2.53636e-06
-9.671e-06
-1.2024e-06
-7.46322e-06
-3.21051e-07
-4.73552e-06
-1.6358e-06
-3.20116e-07
2.03569e-06
-1.14947e-06
5.50336e-06
-2.36221e-06
8.31042e-06
-3.84322e-06
1.04478e-05
-5.49135e-06
1.19389e-05
-7.22077e-06
1.28262e-05
-8.96056e-06
1.31628e-05
-1.06532e-05
1.30055e-05
-1.22527e-05
1.24106e-05
-1.37218e-05
1.14306e-05
-1.50301e-05
1.01136e-05
-1.61517e-05
8.50356e-06
-1.70639e-05
6.64176e-06
-1.77454e-05
4.5686e-06
-1.81762e-05
2.32629e-06
-1.83366e-05
-3.84935e-08
-1.82085e-05
-2.47183e-06
-1.77764e-05
-4.90997e-06
-1.70292e-05
-7.27724e-06
-1.59641e-05
-9.48486e-06
-1.45898e-05
-1.14312e-05
-1.29317e-05
-1.30041e-05
-1.10365e-05
-1.40864e-05
-8.97547e-06
-1.45639e-05
-6.84711e-06
-1.43379e-05
-4.7751e-06
-1.33391e-05
-2.90307e-06
-1.1543e-05
-1.38493e-06
-8.98136e-06
-3.72307e-07
-5.74814e-06
-2.00811e-06
-3.46747e-07
2.38244e-06
-1.24153e-06
6.39814e-06
-2.54336e-06
9.61226e-06
-4.12346e-06
1.20279e-05
-5.87011e-06
1.36855e-05
-7.69046e-06
1.46466e-05
-9.51001e-06
1.49823e-05
-1.12706e-05
1.47661e-05
-1.29276e-05
1.40676e-05
-1.44467e-05
1.29496e-05
-1.5801e-05
1.14679e-05
-1.69685e-05
9.67103e-06
-1.79294e-05
7.60271e-06
-1.86649e-05
5.30414e-06
-1.91558e-05
2.8171e-06
-1.93815e-05
1.87279e-07
-1.93212e-05
-2.5322e-06
-1.89539e-05
-5.27726e-06
-1.82614e-05
-7.96969e-06
-1.72316e-05
-1.05147e-05
-1.5863e-05
-1.27998e-05
-1.41711e-05
-1.46961e-05
-1.21945e-05
-1.60629e-05
-1.00018e-05
-1.67566e-05
-7.69512e-06
-1.66445e-05
-5.41116e-06
-1.56231e-05
-3.31599e-06
-1.36382e-05
-1.59403e-06
-1.07033e-05
-4.32107e-07
-6.91006e-06
-2.44022e-06
-3.74566e-07
2.757e-06
-1.33651e-06
7.36008e-06
-2.727e-06
1.10027e-05
-4.40127e-06
1.37021e-05
-6.2357e-06
1.55199e-05
-8.13016e-06
1.6541e-05
-1.00072e-05
1.68594e-05
-1.18094e-05
1.65683e-05
-1.3495e-05
1.57532e-05
-1.50345e-05
1.44892e-05
-1.64066e-05
1.284e-05
-1.75945e-05
1.08589e-05
-1.85835e-05
8.59174e-06
-1.93587e-05
6.07928e-06
-1.99029e-05
3.36135e-06
-2.01963e-05
4.80654e-07
-2.02156e-05
-2.51291e-06
-1.99351e-05
-5.55774e-06
-1.93287e-05
-8.57607e-06
-1.83734e-05
-1.147e-05
-1.70548e-05
-1.41184e-05
-1.53743e-05
-1.63766e-05
-1.33579e-05
-1.80792e-05
-1.10658e-05
-1.90487e-05
-8.59992e-06
-1.91105e-05
-6.10757e-06
-1.81154e-05
-3.77856e-06
-1.59672e-05
-1.83312e-06
-1.26488e-05
-5.01908e-07
-8.24127e-06
-2.94212e-06
-4.04556e-07
3.16156e-06
-1.43714e-06
8.39266e-06
-2.91684e-06
1.24825e-05
-4.67945e-06
1.54647e-05
-6.58756e-06
1.7428e-05
-8.5336e-06
1.84871e-05
-1.04383e-05
1.87641e-05
-1.22463e-05
1.83763e-05
-1.39216e-05
1.74285e-05
-1.54415e-05
1.60091e-05
-1.67923e-05
1.41907e-05
-1.79649e-05
1.20315e-05
-1.89516e-05
9.5784e-06
-1.9743e-05
6.87076e-06
-2.03265e-05
3.94477e-06
-2.06838e-05
8.37981e-07
-2.07911e-05
-2.40565e-06
-2.06185e-05
-5.73029e-06
-2.01321e-05
-9.06243e-06
-1.92971e-05
-1.2305e-05
-1.80832e-05
-1.53323e-05
-1.64736e-05
-1.79862e-05
-1.44758e-05
-2.00771e-05
-1.21345e-05
-2.139e-05
-9.54443e-06
-2.17005e-05
-6.85942e-06
-2.08004e-05
-4.29268e-06
-1.85339e-05
-2.1056e-06
-1.48358e-05
-5.83382e-07
-9.7635e-06
-3.52551e-06
-4.38423e-07
3.59998e-06
-1.54806e-06
9.5023e-06
-3.1193e-06
1.40537e-05
-4.96335e-06
1.73088e-05
-6.92667e-06
1.93914e-05
-8.89428e-06
2.04547e-05
-1.07867e-05
2.06565e-05
-1.25538e-05
2.01434e-05
-1.41676e-05
1.90422e-05
-1.56152e-05
1.74568e-05
-1.68933e-05
1.54689e-05
-1.80029e-05
1.31411e-05
-1.89455e-05
1.05209e-05
-1.97195e-05
7.64484e-06
-2.03185e-05
4.54373e-06
-2.07283e-05
1.24776e-06
-2.0926e-05
-2.20789e-06
-2.08795e-05
-5.77679e-06
-2.05478e-05
-9.39415e-06
-1.98839e-05
-1.2969e-05
-1.88398e-05
-1.63763e-05
-1.73763e-05
-1.94498e-05
-1.54751e-05
-2.19782e-05
-1.31569e-05
-2.37082e-05
-1.04997e-05
-2.43577e-05
-7.65552e-06
-2.36446e-05
-4.85815e-06
-2.13313e-05
-2.41494e-06
-1.72791e-05
-6.78564e-07
-1.14999e-05
-4.20407e-06
-4.79026e-07
4.07901e-06
-1.67686e-06
1.07001e-05
-3.34463e-06
1.57215e-05
-5.2617e-06
1.92258e-05
-7.25562e-06
2.13853e-05
-9.20483e-06
2.24039e-05
-1.10326e-05
2.24843e-05
-1.26977e-05
2.18085e-05
-1.41842e-05
2.05286e-05
-1.54926e-05
1.87652e-05
-1.6633e-05
1.66093e-05
-1.76189e-05
1.41271e-05
-1.84633e-05
1.13653e-05
-1.91748e-05
8.35632e-06
-1.9755e-05
5.12398e-06
-2.01963e-05
1.68899e-06
-2.04791e-05
-1.92502e-06
-2.05713e-05
-5.68465e-06
-2.04268e-05
-9.53865e-06
-1.99874e-05
-1.34084e-05
-1.9187e-05
-1.71767e-05
-1.796e-05
-2.06768e-05
-1.62558e-05
-2.36824e-05
-1.40601e-05
-2.59039e-05
-1.14209e-05
-2.69969e-05
-8.47593e-06
-2.65896e-05
-5.47193e-06
-2.43353e-05
-2.76486e-06
-1.99861e-05
-7.90132e-07
-1.34746e-05
-4.9942e-06
-5.31064e-07
4.61007e-06
-1.83538e-06
1.20045e-05
-3.60823e-06
1.74943e-05
-5.58697e-06
2.12046e-05
-7.57765e-06
2.3376e-05
-9.45458e-06
2.42808e-05
-1.11488e-05
2.41786e-05
-1.26336e-05
2.32932e-05
-1.39101e-05
2.18052e-05
-1.49966e-05
1.98517e-05
-1.59197e-05
1.75324e-05
-1.67082e-05
1.49155e-05
-1.73883e-05
1.20454e-05
-1.79806e-05
8.94859e-06
-1.8497e-05
5.64038e-06
-1.89382e-05
2.13021e-06
-1.92911e-05
-1.57212e-06
-1.95262e-05
-5.4495e-06
-1.95959e-05
-9.46895e-06
-1.94336e-05
-1.35707e-05
-1.89558e-05
-1.76545e-05
-1.80693e-05
-2.15633e-05
-1.66851e-05
-2.50666e-05
-1.47421e-05
-2.78468e-05
-1.22418e-05
-2.94973e-05
-9.28839e-06
-2.9543e-05
-6.12694e-06
-2.74968e-05
-3.15981e-06
-2.29532e-05
-9.21934e-07
-1.57125e-05
-5.91614e-06
-6.022e-07
5.21227e-06
-2.04169e-06
1.34439e-05
-3.93172e-06
1.93843e-05
-5.95448e-06
2.32273e-05
-7.89325e-06
2.53147e-05
-9.62405e-06
2.60116e-05
-1.1094e-05
2.56485e-05
-1.22988e-05
2.4498e-05
-1.32636e-05
2.277e-05
-1.4029e-05
2.06172e-05
-1.46416e-05
1.81449e-05
-1.5147e-05
1.54209e-05
-1.55863e-05
1.24848e-05
-1.59932e-05
9.35546e-06
-1.6391e-05
6.03819e-06
-1.67907e-05
2.52993e-06
-1.7188e-05
-1.17484e-06
-1.75599e-05
-5.0776e-06
-1.78614e-05
-9.1675e-06
-1.80221e-05
-1.341e-05
-1.79456e-05
-1.7731e-05
-1.75123e-05
-2.19966e-05
-1.65914e-05
-2.59876e-05
-1.50645e-05
-2.93737e-05
-1.28667e-05
-3.16951e-05
-1.00426e-05
-3.23671e-05
-6.80979e-06
-3.07296e-05
-3.60539e-06
-2.61576e-05
-1.07996e-06
-1.82379e-05
-6.9961e-06
-7.04972e-07
5.91724e-06
-2.32252e-06
1.50615e-05
-4.34323e-06
2.14051e-05
-6.37849e-06
2.52626e-05
-8.19209e-06
2.71283e-05
-9.67355e-06
2.74931e-05
-1.07994e-05
2.67744e-05
-1.15992e-05
2.52977e-05
-1.21299e-05
2.33007e-05
-1.24596e-05
2.09469e-05
-1.2657e-05
1.83423e-05
-1.27858e-05
1.55498e-05
-1.29021e-05
1.2601e-05
-1.3052e-05
9.50537e-06
-1.32706e-05
6.25676e-06
-1.35798e-05
2.83919e-06
-1.39862e-05
-7.68474e-07
-1.44767e-05
-4.58708e-06
-1.50141e-05
-8.63007e-06
-1.55313e-05
-1.28928e-05
-1.5926e-05
-1.73363e-05
-1.60587e-05
-2.18639e-05
-1.57584e-05
-2.62879e-05
-1.48424e-05
-3.02896e-05
-1.31596e-05
-3.33779e-05
-1.0661e-05
-3.48657e-05
-7.49635e-06
-3.38942e-05
-4.10891e-06
-2.95451e-05
-1.27414e-06
-2.10727e-05
-8.27024e-06
-8.60047e-07
6.77729e-06
-2.71613e-06
1.69176e-05
-4.87459e-06
2.35635e-05
-6.8618e-06
2.72498e-05
-8.43576e-06
2.87023e-05
-9.52171e-06
2.8579e-05
-1.0146e-05
2.73986e-05
-1.03865e-05
2.55383e-05
-1.0341e-05
2.32552e-05
-1.01087e-05
2.07146e-05
-9.7814e-06
1.8015e-05
-9.43978e-06
1.52082e-05
-9.15245e-06
1.23137e-05
-8.9761e-06
9.32902e-06
-8.95557e-06
6.23623e-06
-9.1232e-06
3.00682e-06
-9.49688e-06
-3.94797e-07
-1.00764e-05
-4.00754e-06
-1.08378e-05
-7.86868e-06
-1.17253e-05
-1.20053e-05
-1.26419e-05
-1.64197e-05
-1.34403e-05
-2.10655e-05
-1.39189e-05
-2.58093e-05
-1.3832e-05
-3.03765e-05
-1.29267e-05
-3.42833e-05
-1.10224e-05
-3.677e-05
-8.14227e-06
-3.67743e-05
-4.67862e-06
-3.30087e-05
-1.52126e-06
-2.423e-05
-9.7915e-06
-1.1017e-06
7.87899e-06
-3.27407e-06
1.90899e-05
-5.55049e-06
2.58399e-05
-7.37109e-06
2.90704e-05
-8.52335e-06
2.98546e-05
-9.00663e-06
2.90623e-05
-8.9256e-06
2.73176e-05
-8.42349e-06
2.50362e-05
-7.64575e-06
2.24775e-05
-6.72369e-06
1.97925e-05
-5.76923e-06
1.70606e-05
-4.87529e-06
1.43142e-05
-4.11811e-06
1.15565e-05
-3.56007e-06
8.77099e-06
-3.25179e-06
5.92795e-06
-3.23303e-06
2.98806e-06
-3.53204e-06
-9.57825e-08
-4.16266e-06
-3.37693e-06
-5.11861e-06
-6.91273e-06
-6.36432e-06
-1.07596e-05
-7.82181e-06
-1.49623e-05
-9.35425e-06
-1.95331e-05
-1.07499e-05
-2.44137e-05
-1.17147e-05
-2.94117e-05
-1.18918e-05
-3.41062e-05
-1.09341e-05
-3.77277e-05
-8.6626e-06
-3.90459e-05
-5.31863e-06
-3.63527e-05
-1.84954e-06
-2.76991e-05
-1.1641e-05
-1.48629e-06
9.36528e-06
-4.05617e-06
2.16598e-05
-6.35689e-06
2.81406e-05
-7.78251e-06
3.0496e-05
-8.22542e-06
3.02975e-05
-7.81895e-06
2.86558e-05
-6.78084e-06
2.62795e-05
-5.33347e-06
2.35888e-05
-3.6707e-06
2.08147e-05
-1.94958e-06
1.80714e-05
-2.9315e-07
1.54041e-05
1.20299e-06
1.28181e-05
2.46382e-06
1.02957e-05
3.429e-06
7.8058e-06
4.04862e-06
5.30833e-06
4.28044e-06
2.75623e-06
4.0892e-06
9.54582e-08
3.44805e-06
-2.73577e-06
2.3431e-06
-5.80778e-06
7.82286e-07
-9.19875e-06
-1.18989e-06
-1.29901e-05
-3.4704e-06
-1.72526e-05
-5.86887e-06
-2.20152e-05
-8.07773e-06
-2.72028e-05
-9.65877e-06
-3.25252e-05
-1.00836e-05
-3.73029e-05
-8.88866e-06
-4.02407e-05
-6.01036e-06
-3.9231e-05
-2.3031e-06
-3.14064e-05
-1.39441e-05
-2.10043e-06
1.14657e-05
-5.09954e-06
2.46589e-05
-7.15744e-06
3.01986e-05
-7.7664e-06
3.1105e-05
-7.06318e-06
2.95942e-05
-5.39369e-06
2.69863e-05
-3.11762e-06
2.40034e-05
-5.35671e-07
2.10068e-05
2.12456e-06
1.81545e-05
4.69898e-06
1.5497e-05
7.07145e-06
1.30317e-05
9.15917e-06
1.07304e-05
1.0901e-05
8.55388e-06
1.22489e-05
6.4579e-06
1.31619e-05
4.39538e-06
1.36019e-05
2.31621e-06
1.35319e-05
1.65443e-07
1.29155e-05
-2.11943e-06
1.17196e-05
-4.61185e-06
9.92056e-06
-7.39969e-06
7.51757e-06
-1.05871e-05
4.55588e-06
-1.42909e-05
1.16404e-06
-1.86233e-05
-2.39361e-06
-2.36451e-05
-5.65904e-06
-2.92597e-05
-7.95482e-06
-3.50071e-05
-8.47782e-06
-3.97178e-05
-6.65525e-06
-4.10536e-05
-2.93673e-06
-3.51249e-05
-1.68809e-05
-3.04415e-06
1.45099e-05
-6.29765e-06
2.79124e-05
-7.48478e-06
3.13857e-05
-6.55533e-06
3.01755e-05
-4.10287e-06
2.71418e-05
-7.52827e-07
2.36363e-05
3.00165e-06
2.02489e-05
6.81884e-06
1.71896e-05
1.04791e-05
1.44942e-05
1.38472e-05
1.21289e-05
1.68418e-05
1.00371e-05
1.94133e-05
8.15891e-06
2.15291e-05
6.43799e-06
2.31645e-05
4.82258e-06
2.42954e-05
3.26446e-06
2.4895e-05
1.71656e-06
2.49306e-05
1.29852e-07
2.43619e-05
-1.55072e-06
2.31409e-05
-3.39082e-06
2.12144e-05
-5.47316e-06
1.85318e-05
-7.9045e-06
1.50631e-05
-1.08222e-05
1.0835e-05
-1.43952e-05
5.99541e-06
-1.88055e-05
9.14247e-07
-2.41786e-05
-3.69711e-06
-3.03957e-05
-6.7328e-06
-3.66821e-05
-6.91604e-06
-4.08703e-05
-3.76124e-06
-3.82797e-05
-2.06421e-05
-4.30453e-06
1.88144e-05
-7.01702e-06
3.06249e-05
-6.05384e-06
3.04225e-05
-2.5127e-06
2.66344e-05
2.35369e-06
2.22754e-05
7.68057e-06
1.83094e-05
1.29463e-05
1.49832e-05
1.78683e-05
1.22676e-05
2.23105e-05
1.00521e-05
2.62178e-05
8.22164e-06
2.95757e-05
6.67913e-06
3.23876e-05
5.34699e-06
3.46615e-05
4.1641e-06
3.64028e-05
3.08132e-06
3.76099e-05
2.0573e-06
3.82718e-05
1.05469e-06
3.8365e-05
3.66791e-08
3.78517e-05
-1.03747e-06
3.66772e-05
-2.21627e-06
3.47674e-05
-3.56341e-06
3.20294e-05
-5.16646e-06
2.83568e-05
-7.14967e-06
2.36516e-05
-9.68999e-06
1.78774e-05
-1.30314e-05
1.11751e-05
-1.74762e-05
4.06639e-06
-2.32871e-05
-2.27288e-06
-3.03428e-05
-5.84866e-06
-3.72946e-05
-4.54837e-06
-3.958e-05
-2.51905e-05
-5.28341e-06
2.40978e-05
-5.03428e-06
3.03758e-05
2.72634e-07
2.51156e-05
7.57142e-06
1.93356e-05
1.51335e-05
1.47133e-05
2.22e-05
1.12429e-05
2.84862e-05
8.69696e-06
3.39328e-05
6.82107e-06
3.85772e-05
5.40767e-06
4.24888e-05
4.31009e-06
4.5739e-05
3.42883e-06
4.839e-05
2.69605e-06
5.04897e-05
2.06434e-06
5.20718e-05
1.49926e-06
5.31549e-05
9.7418e-07
5.37429e-05
4.6668e-07
5.38239e-05
-4.42834e-08
5.33678e-05
-5.81347e-07
5.2323e-05
-1.17153e-06
5.06109e-05
-1.85124e-06
4.81176e-05
-2.67317e-06
4.4686e-05
-3.71812e-06
4.0111e-05
-5.11498e-06
3.41531e-05
-7.07347e-06
2.66073e-05
-9.93044e-06
1.75016e-05
-1.41813e-05
7.53996e-06
-2.03812e-05
-1.12103e-06
-2.86336e-05
-4.32719e-06
-3.63738e-05
-2.95177e-05
-2.31846e-06
2.64163e-05
6.60874e-06
2.14486e-05
1.84565e-05
1.32678e-05
2.92644e-05
8.52776e-06
3.82592e-05
5.71852e-06
4.55417e-05
3.9604e-06
5.13976e-05
2.84104e-06
5.6111e-05
2.1076e-06
5.99149e-05
1.60385e-06
6.29859e-05
1.23904e-06
6.5454e-05
9.60776e-07
6.74122e-05
7.37828e-07
6.89259e-05
5.50675e-07
7.00387e-05
3.86389e-07
7.07772e-05
2.35731e-07
7.11525e-05
9.14122e-08
7.11613e-05
-5.31712e-08
7.07848e-05
-2.0478e-07
6.99849e-05
-3.71692e-07
6.86988e-05
-5.65148e-07
6.68278e-05
-8.02154e-07
6.42203e-05
-1.11059e-06
6.0645e-05
-1.53965e-06
5.57532e-05
-2.18167e-06
4.90402e-05
-3.21752e-06
3.9864e-05
-5.00501e-06
2.77155e-05
-8.23275e-06
1.31931e-05
-1.41111e-05
6.36366e-07
-2.38171e-05
-2.88813e-05
2.64163e-05
4.78649e-05
6.11327e-05
6.96604e-05
7.5379e-05
7.93394e-05
8.21804e-05
8.4288e-05
8.58918e-05
8.71309e-05
8.80917e-05
8.88295e-05
8.93802e-05
8.97666e-05
9.00023e-05
9.00937e-05
9.00405e-05
8.98357e-05
8.9464e-05
8.88989e-05
8.80967e-05
8.69862e-05
8.54465e-05
8.32648e-05
8.00473e-05
7.50423e-05
6.68096e-05
5.26984e-05
2.88813e-05
)
;

boundaryField
{
    movingWall
    {
        type            calculated;
        value           uniform 0;
    }
    fixedWalls
    {
        type            calculated;
        value           uniform 0;
    }
    frontAndBack
    {
        type            empty;
        value           nonuniform List<scalar> 0();
    }
}


// ************************************************************************* //
