/*--------------------------------*- C++ -*----------------------------------*\
  =========                 |
  \\      /  F ield         | OpenFOAM: The Open Source CFD Toolbox
   \\    /   O peration     | Website:  https://openfoam.org
    \\  /    A nd           | Version:  9
     \\/     M anipulation  |
\*---------------------------------------------------------------------------*/
FoamFile
{
    format      ascii;
    class       volVectorField;
    location    "0.075";
    object      U;
}
// * * * * * * * * * * * * * * * * * * * * * * * * * * * * * * * * * * * * * //

dimensions      [0 1 -1 0 0 0 0];

internalField   nonuniform List<vector> 
900
(
(0.000334155 -0.000354349 0)
(0.000650466 -0.000173363 0)
(3.30539e-05 0.000239804 0)
(-0.00161393 0.000619709 0)
(-0.0041667 0.000914688 0)
(-0.00738707 0.00111621 0)
(-0.0110376 0.00123144 0)
(-0.0148958 0.0012717 0)
(-0.0187617 0.0012476 0)
(-0.022459 0.00116839 0)
(-0.0258331 0.00104195 0)
(-0.0287492 0.000874671 0)
(-0.0310911 0.000672162 0)
(-0.032762 0.000440248 0)
(-0.0336856 0.000185726 0)
(-0.0338093 -8.32335e-05 0)
(-0.0331086 -0.000356872 0)
(-0.031591 -0.00062377 0)
(-0.0293004 -0.000870952 0)
(-0.0263201 -0.0010842 0)
(-0.022775 -0.00124869 0)
(-0.0188308 -0.00134988 0)
(-0.0146904 -0.00137454 0)
(-0.0105878 -0.00131179 0)
(-0.00677786 -0.0011543 0)
(-0.00352178 -0.000900207 0)
(-0.00106728 -0.000557445 0)
(0.000387803 -0.000153466 0)
(0.000785354 0.000234347 0)
(0.000363678 0.000360053 0)
(0.000164688 -0.000656828 0)
(-0.00050958 0.000502313 0)
(-0.00335772 0.00239092 0)
(-0.00842695 0.0041898 0)
(-0.0154323 0.00564701 0)
(-0.0239337 0.00668115 0)
(-0.0334238 0.00728672 0)
(-0.0433892 0.00749164 0)
(-0.0533458 0.00733506 0)
(-0.0628514 0.0068578 0)
(-0.0715099 0.00609921 0)
(-0.0789725 0.00509662 0)
(-0.0849404 0.00388696 0)
(-0.089168 0.00250954 0)
(-0.091467 0.00100851 0)
(-0.0917135 -0.000565337 0)
(-0.0898568 -0.00215349 0)
(-0.0859287 -0.00368965 0)
(-0.0800517 -0.00510076 0)
(-0.072445 -0.00630931 0)
(-0.063426 -0.00723709 0)
(-0.0534064 -0.00781025 0)
(-0.0428814 -0.00796521 0)
(-0.03241 -0.00765534 0)
(-0.0225863 -0.0068588 0)
(-0.0139993 -0.00558957 0)
(-0.00717646 -0.00391655 0)
(-0.00250087 -0.00199675 0)
(-0.000109028 -0.000160849 0)
(0.000258933 0.000792806 0)
(-0.000214591 -7.98535e-05 0)
(-0.00238612 0.00335699 0)
(-0.00794806 0.00786023 0)
(-0.016568 0.0121347 0)
(-0.0277674 0.0156421 0)
(-0.040961 0.018162 0)
(-0.0554626 0.0196395 0)
(-0.0705608 0.0201079 0)
(-0.0855687 0.0196412 0)
(-0.0998481 0.0183304 0)
(-0.112821 0.0162712 0)
(-0.123975 0.0135616 0)
(-0.132872 0.0103034 0)
(-0.139153 0.00660612 0)
(-0.142546 0.00259197 0)
(-0.142875 -0.00160075 0)
(-0.140075 -0.00581548 0)
(-0.134198 -0.0098777 0)
(-0.125431 -0.0135982 0)
(-0.114095 -0.0167794 0)
(-0.100653 -0.0192254 0)
(-0.085696 -0.0207548 0)
(-0.0699303 -0.0212165 0)
(-0.0541462 -0.020507 0)
(-0.0391755 -0.018592 0)
(-0.0258352 -0.0155323 0)
(-0.014847 -0.0115228 0)
(-0.0067388 -0.00694837 0)
(-0.00180879 -0.00249813 0)
(-8.176e-05 0.000473522 0)
(-0.000606557 0.00156943 0)
(-0.00435782 0.00856788 0)
(-0.0127623 0.016583 0)
(-0.0249685 0.0240008 0)
(-0.0402262 0.0300535 0)
(-0.0577945 0.0343868 0)
(-0.0768351 0.0368899 0)
(-0.0964818 0.0375972 0)
(-0.115896 0.0366197 0)
(-0.134295 0.0341061 0)
(-0.150963 0.0302226 0)
(-0.165266 0.0251463 0)
(-0.17666 0.0190657 0)
(-0.184698 0.012186 0)
(-0.189044 0.00473514 0)
(-0.189482 -0.00303056 0)
(-0.18593 -0.0108235 0)
(-0.178457 -0.0183261 0)
(-0.16729 -0.0251967 0)
(-0.152826 -0.0310819 0)
(-0.13563 -0.0356339 0)
(-0.116427 -0.0385338 0)
(-0.096079 -0.0395196 0)
(-0.0755527 -0.0384184 0)
(-0.0558668 -0.035182 0)
(-0.0380275 -0.0299299 0)
(-0.0229362 -0.0230034 0)
(-0.0112883 -0.0150308 0)
(-0.00363165 -0.00704135 0)
(-0.000434285 -0.000811291 0)
(-0.000960826 0.00424686 0)
(-0.00623954 0.0161296 0)
(-0.0174634 0.0285021 0)
(-0.0332143 0.0396072 0)
(-0.0524226 0.0485407 0)
(-0.074168 0.0548593 0)
(-0.0974614 0.058418 0)
(-0.121301 0.0592616 0)
(-0.144724 0.0575446 0)
(-0.166836 0.053481 0)
(-0.186818 0.0473176 0)
(-0.203943 0.0393227 0)
(-0.217585 0.0297864 0)
(-0.227232 0.0190259 0)
(-0.232493 0.00739353 0)
(-0.233115 -0.00471569 0)
(-0.229 -0.0168611 0)
(-0.220215 -0.028558 0)
(-0.207012 -0.0392879 0)
(-0.189834 -0.0485152 0)
(-0.169316 -0.0557147 0)
(-0.146282 -0.0604055 0)
(-0.121718 -0.0621938 0)
(-0.0967347 -0.0608196 0)
(-0.07252 -0.0562095 0)
(-0.0502641 -0.0485338 0)
(-0.0310638 -0.0382698 0)
(-0.0158212 -0.0262662 0)
(-0.00539405 -0.0138367 0)
(-0.000751398 -0.0030535 0)
(-0.00127623 0.00787963 0)
(-0.00799749 0.0259683 0)
(-0.021954 0.0435665 0)
(-0.0411679 0.0588998 0)
(-0.0642283 0.071016 0)
(-0.0900168 0.0794418 0)
(-0.117386 0.0840344 0)
(-0.145202 0.0848719 0)
(-0.172399 0.0821672 0)
(-0.197985 0.0762109 0)
(-0.221064 0.0673403 0)
(-0.240837 0.0559248 0)
(-0.256616 0.042366 0)
(-0.267832 0.0271038 0)
(-0.274049 0.0106273 0)
(-0.274979 -0.00651695 0)
(-0.270494 -0.02372 0)
(-0.26065 -0.0403135 0)
(-0.245699 -0.0555819 0)
(-0.226106 -0.0687858 0)
(-0.202552 -0.0791976 0)
(-0.175929 -0.0861484 0)
(-0.147326 -0.089085 0)
(-0.11799 -0.0876343 0)
(-0.0892736 -0.0816726 0)
(-0.0625655 -0.0713964 0)
(-0.0391876 -0.0573931 0)
(-0.0202892 -0.0406984 0)
(-0.00707785 -0.0228628 0)
(-0.00103382 -0.00618676 0)
(-0.00156237 0.0123929 0)
(-0.0096472 0.0379817 0)
(-0.0262393 0.0616852 0)
(-0.0488247 0.0817958 0)
(-0.0756481 0.0973892 0)
(-0.10538 0.108024 0)
(-0.136708 0.113605 0)
(-0.16837 0.114276 0)
(-0.1992 0.11033 0)
(-0.228128 0.10215 0)
(-0.254194 0.0901731 0)
(-0.276542 0.0748796 0)
(-0.294436 0.0567882 0)
(-0.307262 0.0364677 0)
(-0.31454 0.0145491 0)
(-0.315941 -0.00826291 0)
(-0.311301 -0.0311829 0)
(-0.300645 -0.0533474 0)
(-0.284205 -0.0738286 0)
(-0.262442 -0.0916631 0)
(-0.236057 -0.105895 0)
(-0.205992 -0.115637 0)
(-0.173422 -0.120141 0)
(-0.139724 -0.118882 0)
(-0.106425 -0.111648 0)
(-0.0751367 -0.0986246 0)
(-0.0474409 -0.0804724 0)
(-0.0247753 -0.0583807 0)
(-0.00872904 -0.0341071 0)
(-0.00129635 -0.010164 0)
(-0.00182997 0.0177328 0)
(-0.0112191 0.0520784 0)
(-0.0303634 0.0827654 0)
(-0.056237 0.108207 0)
(-0.0867435 0.127572 0)
(-0.120337 0.140512 0)
(-0.155535 0.147028 0)
(-0.190949 0.147367 0)
(-0.22532 0.14193 0)
(-0.257511 0.131211 0)
(-0.286509 0.115761 0)
(-0.311418 0.0961762 0)
(-0.331462 0.0730958 0)
(-0.345988 0.0472183 0)
(-0.354475 0.0193163 0)
(-0.356549 -0.00974745 0)
(-0.351996 -0.0390092 0)
(-0.340794 -0.0674047 0)
(-0.323132 -0.0937825 0)
(-0.29944 -0.116936 0)
(-0.270412 -0.135654 0)
(-0.237019 -0.148793 0)
(-0.200506 -0.155366 0)
(-0.162377 -0.154646 0)
(-0.124348 -0.14628 0)
(-0.0882773 -0.13039 0)
(-0.0560462 -0.107668 0)
(-0.0294238 -0.0794262 0)
(-0.0104186 -0.0476144 0)
(-0.00155727 -0.0149775 0)
(-0.00208711 0.0238652 0)
(-0.0127423 0.0681922 0)
(-0.0343765 0.106732 0)
(-0.0634686 0.138057 0)
(-0.0975846 0.161488 0)
(-0.13496 0.176825 0)
(-0.173943 0.18422 0)
(-0.21302 0.184063 0)
(-0.250847 0.176896 0)
(-0.286232 0.163344 0)
(-0.318121 0.144087 0)
(-0.345591 0.119841 0)
(-0.367838 0.0913688 0)
(-0.384178 0.0594929 0)
(-0.39405 0.0251215 0)
(-0.397027 -0.0107313 0)
(-0.39284 -0.0469283 0)
(-0.381396 -0.0822045 0)
(-0.362818 -0.115178 0)
(-0.337476 -0.144382 0)
(-0.306027 -0.168321 0)
(-0.26944 -0.185552 0)
(-0.229016 -0.194794 0)
(-0.186376 -0.195056 0)
(-0.143432 -0.185772 0)
(-0.10232 -0.166939 0)
(-0.0652593 -0.139226 0)
(-0.0344006 -0.104035 0)
(-0.0122237 -0.0635072 0)
(-0.00183443 -0.0206628 0)
(-0.00233982 0.030771 0)
(-0.0142401 0.0862804 0)
(-0.0383215 0.133527 0)
(-0.0705737 0.171279 0)
(-0.108225 0.19906 0)
(-0.149292 0.216878 0)
(-0.191954 0.225088 0)
(-0.23458 0.224271 0)
(-0.275751 0.215143 0)
(-0.31423 0.198489 0)
(-0.348943 0.175126 0)
(-0.378952 0.145901 0)
(-0.403439 0.111692 0)
(-0.421698 0.0734407 0)
(-0.433133 0.0321778 0)
(-0.437268 -0.0109449 0)
(-0.433758 -0.0546294 0)
(-0.422428 -0.0974176 0)
(-0.403304 -0.137696 0)
(-0.376666 -0.173724 0)
(-0.343095 -0.203691 0)
(-0.303525 -0.22581 0)
(-0.259279 -0.238441 0)
(-0.212081 -0.240246 0)
(-0.16404 -0.230364 0)
(-0.117592 -0.20858 0)
(-0.07534 -0.175474 0)
(-0.039875 -0.132499 0)
(-0.0142211 -0.0819908 0)
(-0.00214448 -0.0272978 0)
(-0.00259265 0.038443 0)
(-0.0157299 0.106318 0)
(-0.0422309 0.163107 0)
(-0.0775898 0.207808 0)
(-0.118692 0.2402 0)
(-0.163333 0.260561 0)
(-0.209527 0.269505 0)
(-0.255533 0.267856 0)
(-0.29987 0.256543 0)
(-0.341278 0.236537 0)
(-0.378677 0.208811 0)
(-0.411138 0.174341 0)
(-0.437847 0.134122 0)
(-0.458092 0.0891971 0)
(-0.471251 0.0407022 0)
(-0.476795 -0.0100951 0)
(-0.474305 -0.0617567 0)
(-0.463501 -0.112648 0)
(-0.444287 -0.160932 0)
(-0.416813 -0.204586 0)
(-0.381542 -0.241461 0)
(-0.339323 -0.269373 0)
(-0.291457 -0.28625 0)
(-0.239739 -0.290313 0)
(-0.186466 -0.280294 0)
(-0.134386 -0.255661 0)
(-0.0865343 -0.216814 0)
(-0.0460117 -0.165204 0)
(-0.0164855 -0.103353 0)
(-0.00250333 -0.0350009 0)
(-0.00284877 0.0468813 0)
(-0.017225 0.128291 0)
(-0.0461289 0.195435 0)
(-0.0845409 0.247571 0)
(-0.12899 0.284796 0)
(-0.177043 0.307719 0)
(-0.226555 0.317282 0)
(-0.275685 0.314606 0)
(-0.32291 0.300882 0)
(-0.366969 0.277293 0)
(-0.406807 0.244986 0)
(-0.441526 0.205072 0)
(-0.470344 0.15865 0)
(-0.492562 0.106851 0)
(-0.50755 0.0508901 0)
(-0.514736 -0.00788013 0)
(-0.513622 -0.0679125 0)
(-0.503811 -0.127425 0)
(-0.485059 -0.184374 0)
(-0.457344 -0.236462 0)
(-0.420957 -0.28118 0)
(-0.376601 -0.3159 0)
(-0.325492 -0.338037 0)
(-0.269442 -0.345259 0)
(-0.210902 -0.335757 0)
(-0.15294 -0.30854 0)
(-0.0990636 -0.263703 0)
(-0.0529674 -0.202613 0)
(-0.0190901 -0.12796 0)
(-0.00292689 -0.0439296 0)
(-0.00311086 0.0560926 0)
(-0.0187382 0.1522 0)
(-0.0500391 0.230477 0)
(-0.0914454 0.290483 0)
(-0.139105 0.332693 0)
(-0.190346 0.35813 0)
(-0.242867 0.368137 0)
(-0.294745 0.3642 0)
(-0.34444 0.347818 0)
(-0.39072 0.320427 0)
(-0.432589 0.283363 0)
(-0.469217 0.237875 0)
(-0.499886 0.185158 0)
(-0.523942 0.126407 0)
(-0.54077 0.0628822 0)
(-0.549774 -0.00401459 0)
(-0.550382 -0.0726713 0)
(-0.542075 -0.1412 0)
(-0.524437 -0.207388 0)
(-0.497231 -0.26868 0)
(-0.460514 -0.322201 0)
(-0.414767 -0.364843 0)
(-0.361035 -0.393422 0)
(-0.301063 -0.404928 0)
(-0.237401 -0.396844 0)
(-0.173413 -0.367537 0)
(-0.113114 -0.316624 0)
(-0.0608891 -0.245259 0)
(-0.0221081 -0.156254 0)
(-0.00343189 -0.0542805 0)
(-0.00338266 0.0660906 0)
(-0.0202876 0.178057 0)
(-0.0539951 0.268204 0)
(-0.098332 0.336435 0)
(-0.149024 0.383685 0)
(-0.203146 0.411483 0)
(-0.258243 0.421666 0)
(-0.312333 0.416162 0)
(-0.363892 0.396842 0)
(-0.411761 0.365429 0)
(-0.455044 0.323472 0)
(-0.493024 0.27236 0)
(-0.52509 0.21337 0)
(-0.550676 0.147734 0)
(-0.569214 0.076723 0)
(-0.580112 0.00173641 0)
(-0.582744 -0.0756035 0)
(-0.576471 -0.153361 0)
(-0.560686 -0.229208 0)
(-0.534903 -0.300375 0)
(-0.498878 -0.363639 0)
(-0.452776 -0.415384 0)
(-0.397359 -0.451755 0)
(-0.334193 -0.468921 0)
(-0.265821 -0.463467 0)
(-0.195853 -0.432873 0)
(-0.128827 -0.376044 0)
(-0.0699131 -0.293724 0)
(-0.0256148 -0.188744 0)
(-0.00403685 -0.0662898 0)
(-0.00367115 0.076901 0)
(-0.0219051 0.205894 0)
(-0.0580569 0.308593 0)
(-0.105259 0.385293 0)
(-0.158754 0.437493 0)
(-0.215342 0.467348 0)
(-0.272422 0.477303 0)
(-0.327984 0.469826 0)
(-0.380567 0.447225 0)
(-0.429134 0.411558 0)
(-0.472948 0.364607 0)
(-0.511461 0.307905 0)
(-0.544222 0.242796 0)
(-0.570799 0.17052 0)
(-0.590722 0.0923122 0)
(-0.603441 0.00951367 0)
(-0.608306 -0.0763104 0)
(-0.604576 -0.163252 0)
(-0.591452 -0.248947 0)
(-0.568166 -0.330478 0)
(-0.534109 -0.404323 0)
(-0.489027 -0.466365 0)
(-0.433266 -0.51202 0)
(-0.36805 -0.536499 0)
(-0.295767 -0.535256 0)
(-0.220163 -0.50459 0)
(-0.146279 -0.442358 0)
(-0.080164 -0.348607 0)
(-0.0296901 -0.226003 0)
(-0.00476338 -0.0802355 0)
(-0.0039892 0.0885711 0)
(-0.0236471 0.235785 0)
(-0.0623311 0.351644 0)
(-0.112341 0.436898 0)
(-0.168348 0.493752 0)
(-0.226848 0.525146 0)
(-0.285113 0.534281 0)
(-0.341149 0.524275 0)
(-0.39362 0.497962 0)
(-0.441682 0.457781 0)
(-0.484825 0.405771 0)
(-0.522735 0.343608 0)
(-0.555183 0.272684 0)
(-0.581931 0.194214 0)
(-0.602663 0.109349 0)
(-0.616922 0.0193107 0)
(-0.624083 -0.0744732 0)
(-0.623333 -0.170215 0)
(-0.613699 -0.265614 0)
(-0.594116 -0.357711 0)
(-0.563559 -0.442772 0)
(-0.521252 -0.516229 0)
(-0.466963 -0.572746 0)
(-0.401376 -0.606457 0)
(-0.326505 -0.611437 0)
(-0.24605 -0.582435 0)
(-0.165467 -0.515814 0)
(-0.091753 -0.41049 0)
(-0.0344238 -0.268662 0)
(-0.00563834 -0.0964423 0)
(-0.00435965 0.101186 0)
(-0.0256101 0.267868 0)
(-0.0669983 0.397393 0)
(-0.119777 0.491059 0)
(-0.177924 0.551981 0)
(-0.237602 0.584103 0)
(-0.295988 0.591568 0)
(-0.351175 0.57829 0)
(-0.40204 0.547716 0)
(-0.448019 0.502723 0)
(-0.488912 0.445621 0)
(-0.524716 0.378227 0)
(-0.555494 0.30196 0)
(-0.581266 0.217971 0)
(-0.601931 0.127279 0)
(-0.61719 0.0309149 0)
(-0.626498 -0.0699125 0)
(-0.629028 -0.173641 0)
(-0.623672 -0.278162 0)
(-0.609083 -0.380612 0)
(-0.583786 -0.477181 0)
(-0.546395 -0.562961 0)
(-0.495935 -0.631907 0)
(-0.432306 -0.676994 0)
(-0.356855 -0.690676 0)
(-0.272952 -0.665718 0)
(-0.186275 -0.596401 0)
(-0.104777 -0.479883 0)
(-0.0399223 -0.317398 0)
(-0.00669723 -0.115289 0)
(-0.00482202 0.114897 0)
(-0.0279536 0.302395 0)
(-0.0723485 0.445944 0)
(-0.127886 0.547554 0)
(-0.187683 0.611551 0)
(-0.247554 0.643192 0)
(-0.30465 0.647806 0)
(-0.357258 0.630273 0)
(-0.404588 0.594752 0)
(-0.44647 0.544602 0)
(-0.483113 0.482419 0)
(-0.514906 0.410143 0)
(-0.542276 0.329191 0)
(-0.565569 0.240614 0)
(-0.58496 0.145241 0)
(-0.600372 0.043851 0)
(-0.611413 -0.0626542 0)
(-0.617315 -0.17305 0)
(-0.616902 -0.28556 0)
(-0.608594 -0.39759 0)
(-0.590482 -0.505448 0)
(-0.560508 -0.604072 0)
(-0.516802 -0.686838 0)
(-0.458214 -0.74557 0)
(-0.385051 -0.770895 0)
(-0.299936 -0.75312 0)
(-0.208427 -0.683705 0)
(-0.119315 -0.55715 0)
(-0.0463221 -0.372928 0)
(-0.00799011 -0.137225 0)
(-0.00544379 0.129965 0)
(-0.030935 0.33979 0)
(-0.0788269 0.497499 0)
(-0.137133 0.606102 0)
(-0.197902 0.671615 0)
(-0.256621 0.701039 0)
(-0.310543 0.701207 0)
(-0.358324 0.678158 0)
(-0.399669 0.63686 0)
(-0.434947 0.581184 0)
(-0.464885 0.513998 0)
(-0.490351 0.437336 0)
(-0.512201 0.352573 0)
(-0.53116 0.26061 0)
(-0.547734 0.162044 0)
(-0.562133 0.0573373 0)
(-0.574188 -0.052992 0)
(-0.583277 -0.168164 0)
(-0.588255 -0.286883 0)
(-0.587403 -0.407021 0)
(-0.578445 -0.525248 0)
(-0.558657 -0.636621 0)
(-0.525171 -0.734188 0)
(-0.475525 -0.808764 0)
(-0.408554 -0.849058 0)
(-0.325562 -0.842458 0)
(-0.231417 -0.776701 0)
(-0.135428 -0.642396 0)
(-0.0538124 -0.435996 0)
(-0.00959309 -0.162794 0)
(-0.00634087 0.146829 0)
(-0.0349633 0.38074 0)
(-0.0870886 0.552375 0)
(-0.148141 0.666304 0)
(-0.208867 0.730987 0)
(-0.26454 0.755781 0)
(-0.312758 0.749421 0)
(-0.352802 0.719307 0)
(-0.385101 0.671291 0)
(-0.410731 0.609742 0)
(-0.431058 0.537757 0)
(-0.447502 0.457399 0)
(-0.461394 0.369947 0)
(-0.473871 0.276101 0)
(-0.485805 0.176176 0)
(-0.497731 0.0702742 0)
(-0.509771 -0.041531 0)
(-0.52154 -0.158993 0)
(-0.532043 -0.281429 0)
(-0.539568 -0.40738 0)
(-0.541608 -0.534161 0)
(-0.534877 -0.657304 0)
(-0.515498 -0.769929 0)
(-0.479502 -0.862177 0)
(-0.423798 -0.920948 0)
(-0.347655 -0.930369 0)
(-0.254389 -0.873465 0)
(-0.153137 -0.735294 0)
(-0.0626753 -0.50736 0)
(-0.0116304 -0.192683 0)
(-0.00771503 0.166222 0)
(-0.040683 0.426303 0)
(-0.0980552 0.610989 0)
(-0.16164 0.727496 0)
(-0.220691 0.787926 0)
(-0.270574 0.804843 0)
(-0.309653 0.789346 0)
(-0.338216 0.750382 0)
(-0.357711 0.694688 0)
(-0.370112 0.627056 0)
(-0.377527 0.550698 0)
(-0.381977 0.467612 0)
(-0.385274 0.378893 0)
(-0.388961 0.284982 0)
(-0.394269 0.185874 0)
(-0.402069 0.0812828 0)
(-0.41281 -0.0291928 0)
(-0.426426 -0.145889 0)
(-0.442201 -0.268836 0)
(-0.458612 -0.397417 0)
(-0.473147 -0.529879 0)
(-0.482179 -0.662652 0)
(-0.480967 -0.789474 0)
(-0.463991 -0.900399 0)
(-0.425856 -0.980951 0)
(-0.362976 -1.01195 0)
(-0.275907 -0.970754 0)
(-0.172384 -0.834811 0)
(-0.0733496 -0.587752 0)
(-0.0143163 -0.227814 0)
(-0.0099235 0.189363 0)
(-0.0491026 0.47803 0)
(-0.112939 0.673741 0)
(-0.178271 0.788443 0)
(-0.232886 0.839764 0)
(-0.272908 0.844598 0)
(-0.298164 0.816892 0)
(-0.310489 0.767214 0)
(-0.312689 0.703067 0)
(-0.307819 0.629467 0)
(-0.298791 0.549553 0)
(-0.288206 0.465096 0)
(-0.278308 0.376897 0)
(-0.270974 0.285076 0)
(-0.267729 0.189274 0)
(-0.269739 0.0888175 0)
(-0.277776 -0.0171593 0)
(-0.29214 -0.129571 0)
(-0.312515 -0.249192 0)
(-0.337769 -0.376358 0)
(-0.365682 -0.510489 0)
(-0.392644 -0.649347 0)
(-0.413416 -0.787949 0)
(-0.421142 -0.917128 0)
(-0.407964 -1.02192 0)
(-0.366676 -1.0803 0)
(-0.29354 -1.06342 0)
(-0.192878 -0.938731 0)
(-0.0865184 -0.677787 0)
(-0.0180305 -0.269503 0)
(-0.0136063 0.218289 0)
(-0.0617733 0.538058 0)
(-0.133139 0.740651 0)
(-0.198041 0.846722 0)
(-0.243435 0.882275 0)
(-0.267511 0.869884 0)
(-0.272621 0.826687 0)
(-0.262819 0.764716 0)
(-0.24261 0.691884 0)
(-0.216223 0.613067 0)
(-0.187325 0.531029 0)
(-0.158977 0.447101 0)
(-0.1337 0.361653 0)
(-0.113552 0.274413 0)
(-0.100219 0.184664 0)
(-0.0950533 0.0913693 0)
(-0.0990873 -0.00673736 0)
(-0.112981 -0.111077 0)
(-0.1369 -0.223109 0)
(-0.170295 -0.34412 0)
(-0.21157 -0.474833 0)
(-0.257627 -0.614694 0)
(-0.303336 -0.760692 0)
(-0.341098 -0.905538 0)
(-0.360891 -1.0352 0)
(-0.351438 -1.12616 0)
(-0.303049 -1.1436 0)
(-0.213691 -1.04285 0)
(-0.103184 -0.777706 0)
(-0.0234473 -0.319758 0)
(-0.0199015 0.256401 0)
(-0.0809671 0.608994 0)
(-0.159708 0.81046 0)
(-0.218966 0.897565 0)
(-0.24691 0.9087 0)
(-0.246079 0.873391 0)
(-0.222797 0.81186 0)
(-0.184009 0.736963 0)
(-0.136085 0.656324 0)
(-0.0843088 0.574103 0)
(-0.0328488 0.492277 0)
(0.015064 0.411476 0)
(0.0569158 0.331503 0)
(0.0907132 0.251646 0)
(0.114828 0.170843 0)
(0.127891 0.0877704 0)
(0.12874 0.000870923 0)
(0.116422 -0.0916344 0)
(0.0902818 -0.191725 0)
(0.0501503 -0.301494 0)
(-0.00331489 -0.422906 0)
(-0.0680836 -0.55725 0)
(-0.139974 -0.70404 0)
(-0.211702 -0.859039 0)
(-0.272083 -1.01107 0)
(-0.306104 -1.13754 0)
(-0.296861 -1.19959 0)
(-0.232232 -1.13953 0)
(-0.124558 -0.886667 0)
(-0.0317063 -0.381705 0)
(-0.0307068 0.30927 0)
(-0.109519 0.693137 0)
(-0.191595 0.878689 0)
(-0.233913 0.931939 0)
(-0.230761 0.908478 0)
(-0.192511 0.845178 0)
(-0.130948 0.764173 0)
(-0.0561919 0.677736 0)
(0.0238457 0.592053 0)
(0.103376 0.509791 0)
(0.178301 0.431676 0)
(0.24573 0.357394 0)
(0.303574 0.286088 0)
(0.350249 0.216603 0)
(0.384454 0.147603 0)
(0.405027 0.0775893 0)
(0.410853 0.0048803 0)
(0.400824 -0.0724497 0)
(0.373868 -0.156637 0)
(0.32907 -0.250277 0)
(0.265943 -0.356283 0)
(0.184946 -0.477612 0)
(0.0883708 -0.616489 0)
(-0.0182978 -0.772654 0)
(-0.124625 -0.939917 0)
(-0.213592 -1.1002 0)
(-0.261236 -1.21489 0)
(-0.241752 -1.21546 0)
(-0.151137 -1.00098 0)
(-0.0444397 -0.459989 0)
(-0.0485047 0.385847 0)
(-0.148913 0.789956 0)
(-0.220386 0.933652 0)
(-0.223562 0.933624 0)
(-0.168517 0.866071 0)
(-0.0773998 0.772914 0)
(0.0321091 0.675137 0)
(0.147653 0.582012 0)
(0.261072 0.496761 0)
(0.367275 0.419741 0)
(0.463192 0.350063 0)
(0.546987 0.286365 0)
(0.617512 0.227156 0)
(0.673963 0.17094 0)
(0.715644 0.11624 0)
(0.741821 0.061548 0)
(0.751617 0.00525568 0)
(0.743943 -0.0544581 0)
(0.717471 -0.119759 0)
(0.670653 -0.193319 0)
(0.601852 -0.278465 0)
(0.509687 -0.379241 0)
(0.393774 -0.500155 0)
(0.256164 -0.645115 0)
(0.103784 -0.814569 0)
(-0.0479961 -0.999124 0)
(-0.171309 -1.1675 0)
(-0.225691 -1.24835 0)
(-0.179111 -1.11052 0)
(-0.062776 -0.561275 0)
(-0.0737418 0.501167 0)
(-0.191306 0.889158 0)
(-0.216239 0.947859 0)
(-0.141821 0.874418 0)
(-0.00847707 0.760154 0)
(0.149236 0.643488 0)
(0.310869 0.538588 0)
(0.46513 0.448629 0)
(0.606273 0.3725 0)
(0.731776 0.307835 0)
(0.84081 0.252164 0)
(0.933333 0.203284 0)
(1.00958 0.159318 0)
(1.0698 0.118672 0)
(1.11408 0.079939 0)
(1.14224 0.0418078 0)
(1.15378 0.00294938 0)
(1.14781 -0.0381062 0)
(1.12294 -0.0831309 0)
(1.07727 -0.134403 0)
(1.00827 -0.19498 0)
(0.912883 -0.269037 0)
(0.787814 -0.362167 0)
(0.63051 -0.481359 0)
(0.441465 -0.633714 0)
(0.228949 -0.821643 0)
(0.0168202 -1.03026 0)
(-0.146382 -1.20196 0)
(-0.190482 -1.19149 0)
(-0.0826644 -0.695496 0)
(-0.0911123 0.671724 0)
(-0.193074 0.95044 0)
(-0.0944138 0.864625 0)
(0.110746 0.712049 0)
(0.341745 0.568202 0)
(0.56439 0.449678 0)
(0.7658 0.356949 0)
(0.941925 0.285261 0)
(1.09298 0.229282 0)
(1.22087 0.184656 0)
(1.32787 0.148132 0)
(1.41602 0.117336 0)
(1.48701 0.0905192 0)
(1.54206 0.0663564 0)
(1.58196 0.0437878 0)
(1.60705 0.0218972 0)
(1.61723 -0.000193147 0)
(1.61188 -0.0234267 0)
(1.5898 -0.048945 0)
(1.54909 -0.0782606 0)
(1.48692 -0.113525 0)
(1.39928 -0.157945 0)
(1.28071 -0.21641 0)
(1.12433 -0.296368 0)
(0.922734 -0.408595 0)
(0.67163 -0.566233 0)
(0.377631 -0.777421 0)
(0.0755738 -1.02238 0)
(-0.129383 -1.18657 0)
(-0.0776341 -0.861239 0)
(0.0102517 0.815418 0)
(0.026823 0.852805 0)
(0.359797 0.616109 0)
(0.723083 0.430646 0)
(1.02442 0.304667 0)
(1.26699 0.21951 0)
(1.46231 0.161951 0)
(1.6194 0.122399 0)
(1.74593 0.0942912 0)
(1.84809 0.0734735 0)
(1.93046 0.0573725 0)
(1.99633 0.0443678 0)
(2.04805 0.0334038 0)
(2.08721 0.0237599 0)
(2.11484 0.014909 0)
(2.13152 0.00642877 0)
(2.13735 -0.00206365 0)
(2.13201 -0.0109694 0)
(2.11469 -0.0207704 0)
(2.08391 -0.0321227 0)
(2.03734 -0.0460068 0)
(1.97135 -0.0639994 0)
(1.88037 -0.0887882 0)
(1.75589 -0.125163 0)
(1.58535 -0.181822 0)
(1.35153 -0.274127 0)
(1.03142 -0.426432 0)
(0.606466 -0.666751 0)
(0.174066 -0.967572 0)
(0.0770078 -0.930222 0)
(0.886983 0.431554 0)
(1.15972 0.378573 0)
(1.62553 0.230067 0)
(1.97425 0.136148 0)
(2.18862 0.0828997 0)
(2.32902 0.052215 0)
(2.42815 0.0343095 0)
(2.50082 0.023606 0)
(2.55548 0.016897 0)
(2.59746 0.012422 0)
(2.63002 0.00923198 0)
(2.65521 0.00680496 0)
(2.67434 0.00484217 0)
(2.68828 0.00316243 0)
(2.69754 0.00164678 0)
(2.70242 0.000208074 0)
(2.70301 -0.00122743 0)
(2.69921 -0.00273581 0)
(2.69068 -0.00440707 0)
(2.67684 -0.00636826 0)
(2.65665 -0.00881987 0)
(2.62849 -0.0121103 0)
(2.5896 -0.0168999 0)
(2.5352 -0.0245344 0)
(2.45676 -0.0378847 0)
(2.33837 -0.0631525 0)
(2.14466 -0.1134 0)
(1.79786 -0.213411 0)
(1.28204 -0.383475 0)
(0.943179 -0.452376 0)
)
;

boundaryField
{
    movingWall
    {
        type            fixedValue;
        value           uniform (3 0 0);
    }
    fixedWalls
    {
        type            noSlip;
    }
    frontAndBack
    {
        type            empty;
    }
}


// ************************************************************************* //
