/*--------------------------------*- C++ -*----------------------------------*\
  =========                 |
  \\      /  F ield         | OpenFOAM: The Open Source CFD Toolbox
   \\    /   O peration     | Website:  https://openfoam.org
    \\  /    A nd           | Version:  9
     \\/     M anipulation  |
\*---------------------------------------------------------------------------*/
FoamFile
{
    format      ascii;
    class       volScalarField;
    location    "80";
    object      p;
}
// * * * * * * * * * * * * * * * * * * * * * * * * * * * * * * * * * * * * * //

dimensions      [0 2 -2 0 0 0 0];

internalField   nonuniform List<scalar> 
10720
(
-30.8127
-33.7182
-36.5021
-36.873
-33.9608
-29.5699
-23.5475
-17.335
-13.0674
-11.3708
-11.1796
-11.1341
-10.8679
-10.8982
-11.021
-11.0886
-11.2208
-11.6371
-11.9977
-11.4364
-9.50647
-7.12653
-6.03288
-8.05217
-14.2634
-23.2543
-31.4316
-35.8836
-35.7468
-32.727
-31.8878
-39.3559
-55.8763
-72.6822
-81.3665
-85.9836
-97.4959
-107.378
-225.52
-24.7339
-18.7654
-8.92095
2.59197
14.99
27.6019
39.5546
49.6544
57.2074
62.2916
65.155
66.2548
66.1376
65.0735
63.0938
60.5458
57.7746
54.8297
51.6557
48.2302
44.5878
40.7046
36.5636
32.1665
27.716
23.3819
19.0895
14.8009
10.5033
6.19679
1.77369
-2.80075
-7.66443
-13.0583
-19.264
-27.1583
-37.2763
-55.1879
-86.3101
1.51351
-2.88813
-6.8725
-9.03706
-9.4207
-8.77944
-7.77718
-7.44696
-8.5595
-10.1542
-10.5591
-10.1419
-10.1982
-10.4702
-10.7708
-10.9539
-11.065
-11.4118
-11.8109
-11.4305
-9.71388
-7.46034
-6.44553
-8.47649
-14.586
-23.4206
-31.4676
-35.8428
-35.6541
-32.5773
-31.6696
-39.2242
-55.8738
-72.7038
-81.4459
-86.121
-97.8629
-107.955
-228.311
5.84414
10.4613
15.9131
22.5488
29.9488
37.7791
45.5082
52.4224
57.9891
62.0006
64.4585
65.5503
65.5315
64.5488
62.7338
60.381
57.7457
54.8841
51.7725
48.4066
44.8152
40.9858
36.908
32.5918
28.1988
23.8736
19.5725
15.2652
10.943
6.60617
2.15119
-2.45686
-7.35244
-12.774
-19.0005
-26.9011
-37.0001
-54.8881
-84.1415
4.86854
1.29294
-1.74913
-4.30613
-6.02559
-6.85797
-6.91795
-6.53249
-6.40848
-7.07897
-8.15176
-9.07462
-9.69513
-10.0382
-10.5275
-10.8853
-11.0401
-11.291
-11.6824
-11.4889
-10.0397
-7.9751
-7.05426
-9.04756
-15.0134
-23.6915
-31.5971
-35.8844
-35.6365
-32.487
-31.53
-39.3361
-56.1052
-72.8385
-81.6394
-86.4059
-98.5436
-108.91
-231.202
8.74157
13.545
19.3879
26.0188
33.0131
40.1317
46.9249
52.8881
57.6997
61.2279
63.4721
64.5514
64.6297
63.8049
62.1964
60.0352
57.5228
54.7388
51.693
48.3905
44.8523
41.0752
37.0534
32.8002
28.4449
24.1217
19.8168
15.5044
11.1752
6.82753
2.36214
-2.2585
-7.16549
-12.5958
-18.825
-26.7162
-36.7808
-54.5327
-82.1213
15.0598
11.8196
8.56402
5.50887
2.93779
0.912977
-0.613261
-1.7948
-2.80652
-3.89841
-5.28891
-7.0542
-8.67324
-9.59828
-10.2092
-10.7201
-10.9968
-11.2239
-11.6205
-11.6236
-10.4612
-8.58184
-7.71087
-9.60897
-15.4269
-24.0094
-31.7971
-35.9813
-35.6825
-32.5344
-31.7113
-39.8686
-56.5798
-73.1118
-81.9611
-86.8428
-99.4131
-110.036
-233.882
18.2933
21.9296
26.2619
31.3731
36.8591
42.5625
48.1204
53.0883
57.1825
60.2745
62.3269
63.3886
63.5519
62.8791
61.467
59.4971
57.1337
54.4645
51.5168
48.3021
44.8383
41.1299
37.1761
32.9935
28.689
24.3863
20.0903
15.7802
11.4469
7.08811
2.61114
-2.02499
-6.94674
-12.3891
-18.6236
-26.5068
-36.5276
-54.1131
-80.179
18.6003
15.5406
12.4189
9.34839
6.71802
4.52955
2.75132
1.26288
-0.104207
-1.50304
-2.96126
-4.62414
-6.61345
-8.46385
-9.71559
-10.4619
-10.8646
-11.1415
-11.5894
-11.8033
-10.9476
-9.2327
-8.33211
-10.0874
-15.7958
-24.3558
-32.027
-36.0683
-35.7235
-32.6717
-32.2388
-40.7412
-57.2563
-73.5323
-82.4122
-87.4337
-100.424
-111.27
-236.49
21.6892
25.1403
29.2046
33.8343
38.6765
43.6533
48.4836
52.8063
56.398
59.1622
61.0579
62.1002
62.3346
61.7995
60.5767
58.8032
56.609
54.0772
51.2463
48.1338
44.7584
41.1294
37.2512
33.1432
28.8963
24.6221
20.3401
16.0361
11.7024
7.33634
2.85165
-1.79653
-6.72961
-12.1803
-18.4157
-26.2844
-36.2482
-53.6265
-78.231
22.3759
19.5875
16.6267
13.6531
10.9204
8.40602
6.17315
4.20854
2.41993
0.717927
-0.928837
-2.57574
-4.45162
-6.62188
-8.65148
-10.0132
-10.6666
-11.0078
-11.5443
-11.9834
-11.4471
-9.88577
-8.88398
-10.4891
-16.1533
-24.7024
-32.1887
-36.0469
-35.6853
-32.879
-33.0661
-41.8908
-58.1364
-74.1253
-83.0269
-88.2125
-101.571
-112.585
-239.069
25.1186
28.1092
31.6268
35.6644
39.8755
44.2162
48.4484
52.2541
55.4422
57.9379
59.6981
60.7157
61.0052
60.5918
59.5455
57.9648
55.9486
53.5703
50.8727
47.8784
44.6067
41.0703
37.2777
33.2512
29.0697
24.8342
20.5739
16.2829
11.954
7.58518
3.09606
-1.56118
-6.5033
-11.9596
-18.1927
-26.0403
-35.9341
-53.0621
-76.2613
24.5447
21.9264
19.1047
16.2
13.486
10.929
8.58572
6.47648
4.52695
2.6673
0.857191
-0.909132
-2.69571
-4.71185
-7.01246
-9.07635
-10.3063
-10.8377
-11.451
-12.1156
-11.8956
-10.4876
-9.34639
-10.7759
-16.3872
-24.832
-32.0655
-35.7713
-35.4842
-33.1679
-34.1547
-43.263
-59.1979
-74.8925
-83.8164
-89.1918
-102.825
-113.988
-241.63
27.0979
29.8402
33.0435
36.6853
40.4458
44.3139
48.0898
51.4922
54.3594
56.6351
58.2765
59.2613
59.589
59.2809
58.3944
56.9967
55.16
52.9461
50.3955
47.5334
44.379
40.9478
37.2508
33.3132
29.2045
25.0177
20.7876
16.5164
12.198
7.83083
3.34102
-1.32207
-6.2703
-11.729
-17.9558
-25.7747
-35.5858
-52.4179
-74.278
26.1959
23.7745
21.105
18.3281
15.6982
13.1244
10.6911
8.45651
6.36538
4.38004
2.4599
0.583051
-1.24387
-3.1071
-5.25975
-7.63549
-9.55977
-10.5661
-11.3169
-12.1568
-12.2339
-10.9815
-9.68274
-10.855
-16.2693
-24.4355
-31.432
-35.0932
-35.0946
-33.5495
-35.4355
-44.8205
-60.4492
-75.8574
-84.8122
-90.4015
-104.194
-115.534
-244.087
28.5544
31.0425
33.9506
37.2474
40.633
44.1136
47.5171
50.5898
53.1928
55.2821
56.8151
57.7581
58.1085
57.8894
57.1437
55.9147
54.2539
52.2089
49.8151
47.0961
44.0716
40.7572
37.1665
33.3255
29.2985
25.1699
20.9793
16.7348
12.433
8.07263
3.58638
-1.0788
-6.02973
-11.4872
-17.7032
-25.4848
-35.1991
-51.6922
-72.2719
27.2797
25.005
22.4745
19.8143
17.2664
14.738
12.2961
10.0234
7.88143
5.84202
3.87761
1.95231
0.05321
-1.80285
-3.74763
-6.01528
-8.36055
-10.03
-11.106
-12.0824
-12.3855
-11.2967
-9.80524
-10.5821
-15.5623
-23.2655
-30.1006
-33.9064
-34.5023
-33.9929
-36.8649
-46.5299
-61.8682
-77.0131
-86.0116
-91.8414
-105.666
-117.287
-246.387
29.4686
31.7619
34.4325
37.4495
40.5287
43.6923
46.7887
49.5888
51.9701
53.8984
55.3288
56.2232
56.5845
56.4379
55.8131
54.7364
53.243
51.3663
49.1341
46.5666
43.682
40.4951
37.0206
33.2845
29.3475
25.2867
21.1449
16.935
12.6566
8.30855
3.83055
-0.832506
-5.78224
-11.2343
-17.4343
-25.1697
-34.7739
-50.8832
-70.2491
27.9909
25.8623
23.4666
20.9258
18.4823
16.0173
13.6033
11.325
9.15931
7.09428
5.10816
3.16762
1.24279
-0.660644
-2.52212
-4.53843
-6.90206
-9.12239
-10.7142
-11.872
-12.2955
-11.3593
-9.63082
-9.86232
-14.1824
-21.3031
-28.0397
-32.243
-33.754
-34.4875
-38.3899
-48.3678
-63.471
-78.3803
-87.4403
-93.5382
-107.274
-119.313
-248.466
30.0355
32.1531
34.6182
37.3954
40.2164
43.1129
45.9502
48.5193
50.7117
52.4976
53.8283
54.6694
55.033
54.9435
54.4202
53.4788
52.1407
50.4275
48.3576
45.9468
43.2095
40.1594
36.81
33.1875
29.3485
25.3656
21.2817
17.1148
12.8666
8.53738
4.07258
-0.58322
-5.52767
-10.9694
-17.148
-24.8267
-34.3062
-49.9911
-68.1995
28.4062
26.407
24.1325
21.7077
19.3615
16.9798
14.6159
12.3569
10.2022
8.14159
6.15644
4.21989
2.31247
0.405297
-1.46709
-3.31646
-5.44759
-7.87765
-10.0071
-11.4523
-11.9421
-11.0785
-9.10383
-8.67893
-12.2022
-18.714
-25.3967
-30.2177
-32.8814
-34.9982
-39.9858
-50.3189
-65.2312
-79.9383
-89.0835
-95.4789
-109.013
-121.642
-250.387
30.3224
32.2883
34.5761
37.148
39.7482
42.4161
45.0317
47.4024
49.431
51.0875
52.3217
53.1077
53.467
53.4202
52.9808
52.1573
50.961
49.4027
47.4926
45.24
42.6553
39.749
36.5327
33.0311
29.2984
25.4025
21.386
17.2705
13.0604
8.75643
4.31051
-0.33281
-5.26693
-10.6932
-16.844
-24.4556
-33.7968
-49.0163
-66.1302
28.6007
26.7139
24.5532
22.2378
19.9959
17.6958
15.3961
13.1773
11.0465
9.0086
7.04368
5.12745
3.25088
1.38463
-0.48964
-2.30226
-4.17778
-6.46993
-8.92826
-10.733
-11.3182
-10.4009
-8.23321
-7.12241
-9.8362
-15.7679
-22.4355
-28.0096
-31.9648
-35.5362
-41.6238
-52.3689
-67.1638
-81.7043
-90.9571
-97.6805
-110.927
-124.3
-252.112
30.3969
32.2299
34.3624
36.7539
39.1631
41.6332
44.0553
46.2537
48.1369
49.6733
50.8155
51.5472
51.896
51.8795
51.5086
50.7863
49.7171
48.3031
46.547
44.4513
42.0216
39.2642
36.1876
32.8139
29.1953
25.3951
21.4555
17.3999
13.2357
8.96422
4.54347
-0.0814825
-4.99974
-10.4048
-16.521
-24.0537
-33.2413
-47.9603
-64.0322
28.6123
26.8316
24.7751
22.5645
20.4165
18.2054
15.9761
13.8086
11.7168
9.71396
7.78377
5.90158
4.06088
2.24551
0.418547
-1.39516
-3.12851
-5.09841
-7.53551
-9.64129
-10.3786
-9.36116
-7.0578
-5.33171
-7.30746
-12.6959
-19.3934
-25.7632
-31.0422
-36.0855
-43.3077
-54.5196
-69.2452
-83.652
-93.0335
-100.106
-113.004
-127.266
-253.5
30.3043
32.0193
34.0139
36.2477
38.4888
40.7852
43.0376
45.084
46.8362
48.2599
49.3142
49.9937
50.3269
50.331
50.0146
49.3784
48.4215
47.1401
45.5297
43.5872
41.3121
38.7063
35.7741
32.5346
29.0367
25.3405
21.4865
17.4996
13.3895
9.15795
4.76882
0.168588
-4.72773
-10.1052
-16.1792
-23.6214
-32.6418
-46.8256
-61.9132
28.483
26.7949
24.8373
22.7235
20.6713
18.5406
16.3882
14.2836
12.2345
10.2731
8.38617
6.54682
4.7494
2.98331
1.22727
-0.544396
-2.23644
-3.90706
-6.01599
-8.19568
-9.10203
-8.04056
-5.64566
-3.48948
-4.82224
-9.70765
-16.478
-23.6255
-30.2002
-36.6911
-45.0346
-56.7584
-71.4899
-85.7962
-95.3225
-102.752
-115.268
-130.477
-254.192
30.0788
31.6885
33.5612
35.6532
37.7461
39.8888
41.9897
43.9005
45.5328
46.8512
47.823
48.4519
48.7659
48.782
48.5083
47.9442
47.0855
45.9242
44.4501
42.6545
40.5315
38.0779
35.2933
32.1929
28.8219
25.2372
21.4775
17.5678
13.5199
9.33617
4.98577
0.417311
-4.45057
-9.7933
-15.8173
-23.1562
-31.9939
-45.615
-59.7644
28.2367
26.6361
24.7681
22.7469
20.78
18.7339
16.6576
14.6154
12.6153
10.7002
8.86119
7.07079
5.32359
3.61006
1.9233
0.237361
-1.42164
-2.92402
-4.58215
-6.53134
-7.54756
-6.5134
-4.08964
-1.74406
-2.50408
-6.95467
-13.8224
-21.6911
-29.4814
-37.3581
-46.8165
-59.0868
-73.865
-88.1046
-97.7965
-105.566
-117.663
-133.784
-253.914
29.7464
31.2616
33.0239
34.9902
36.9501
38.955
40.9212
42.7089
44.2304
45.4501
46.3449
46.9246
47.2171
47.2384
46.9977
46.4934
45.7199
44.6656
43.3173
41.6607
39.6854
37.3825
34.7471
31.7888
28.5498
25.0831
21.4255
17.6012
13.6239
9.49586
5.19157
0.661959
-4.17025
-9.47081
-15.4359
-22.6592
-31.3005
-44.3333
-57.5939
27.8966
26.374
24.5912
22.6549
20.7732
18.8021
16.8014
14.8252
12.8753
11.0089
9.22025
7.48162
5.78891
4.133
2.51066
0.917966
-0.663301
-2.09757
-3.38219
-4.87228
-5.84767
-4.89142
-2.49388
-0.167524
-0.450433
-4.57404
-11.5515
-20.0698
-28.9708
-38.1403
-48.653
-61.4862
-76.3704
-90.584
-100.461
-108.548
-120.156
-137.018
-252.508
29.3278
30.7574
32.421
34.2722
36.1129
37.9941
39.8387
41.5139
42.9315
44.0593
44.8825
45.4149
45.6835
45.7051
45.4889
45.0337
44.3333
43.3741
42.1403
40.6139
38.7799
36.6246
34.1378
31.3239
28.2208
24.8779
21.3295
17.5986
13.6999
9.63584
5.38548
0.902534
-3.88622
-9.13639
-15.0334
-22.1281
-30.5576
-42.9837
-55.3948
27.4786
26.0298
24.324
22.4683
20.6614
18.7676
16.837
14.9244
13.0304
11.212
9.47327
7.78662
6.14965
4.55349
2.99458
1.48334
0.00940186
-1.36736
-2.44722
-3.43415
-4.18275
-3.32416
-0.980617
1.17165
1.24341
-2.65571
-9.74509
-18.8224
-28.7
-39.0416
-50.5579
-63.9591
-78.9777
-93.1983
-103.291
-111.644
-122.645
-140.018
-250.069
28.8382
30.1908
31.7635
33.5118
35.2441
37.0125
38.7472
40.3191
41.6387
42.6807
43.4373
43.9243
44.1677
44.1856
43.987
43.5721
42.9336
42.0584
40.9278
39.5222
37.822
35.8095
33.4691
30.8
27.8352
24.6207
21.1876
17.5576
13.7451
9.75331
5.56454
1.13618
-3.60108
-8.79224
-14.6113
-21.5646
-29.7693
-41.5736
-53.1754
26.9968
25.6137
23.9815
22.1993
20.4668
18.6401
16.7772
14.9305
13.091
11.3187
9.62763
7.99222
6.40932
4.87178
3.37525
1.93405
0.56183
-0.726172
-1.72969
-2.34737
-2.75016
-1.98043
0.264633
2.1824
2.44236
-1.28636
-8.4813
-18.0191
-28.7322
-40.1119
-52.5395
-66.4934
-81.6861
-95.9471
-106.281
-114.837
-125.091
-142.714
-246.808
28.2907
29.5728
31.0639
32.7166
34.3512
36.0172
37.6506
39.1263
40.3544
41.3164
42.011
42.4541
42.6721
42.6829
42.4967
42.1138
41.5282
40.726
39.6882
38.3931
36.8185
34.9428
32.7452
30.22
27.3948
24.3122
20.9998
17.4774
13.7586
9.84727
5.72832
1.36295
-3.31411
-8.43692
-14.1679
-20.9669
-28.9318
-40.1065
-50.932
26.4613
25.1409
23.5748
21.8623
20.1948
18.4364
16.6359
14.8507
13.0654
11.3363
9.6901
8.1039
6.57223
5.08958
3.65211
2.27329
0.98114
-0.205148
-1.17153
-1.6274
-1.69544
-0.988731
1.07503
2.7884
2.99677
-0.512429
-7.79629
-17.6876
-29.0852
-41.3583
-54.6127
-69.0956
-84.4708
-98.8001
-109.399
-118.066
-127.43
-145.126
-242.984
27.6952
28.9133
30.3287
31.8959
33.4402
35.0119
36.5525
37.9381
39.0809
39.9679
40.6045
41.0054
41.1977
41.1991
41.0208
40.6636
40.1226
39.3838
38.429
37.2345
35.7767
34.0303
31.971
29.5871
26.9019
23.9532
20.7657
17.3565
13.7385
9.91512
5.87413
1.57981
-3.02811
-8.07329
-13.7053
-20.3376
-28.0506
-38.5915
-48.6743
25.8817
24.617
23.1139
21.4651
19.8616
18.1618
16.4215
14.6961
12.9602
11.2717
9.66798
8.12718
6.64312
5.20964
3.82499
2.50071
1.26714
0.162698
-0.760041
-1.21797
-1.0888
-0.421436
1.34534
2.87218
2.83134
-0.395231
-7.72825
-17.8669
-29.8036
-42.8219
-56.7924
-71.7607
-87.3302
-101.75
-112.621
-121.305
-129.693
-147.318
-238.629
27.0605
28.2198
29.5672
31.0541
32.5162
34.0019
35.4556
36.7568
37.8196
38.6369
39.2188
39.5795
39.7457
39.7363
39.5622
39.2256
38.7217
38.0382
37.1566
36.0533
34.7032
33.0786
31.1515
28.9057
26.3592
23.5455
20.4861
17.1952
13.6844
9.95668
6.0017
1.78721
-2.74237
-7.69971
-13.2218
-19.6751
-27.1226
-37.032
-46.3998
25.2653
24.0535
22.6068
21.0177
19.4698
17.8291
16.1428
14.4707
12.7828
11.1335
9.56833
8.06797
6.62586
5.2349
3.89446
2.61494
1.42266
0.36631
-0.513708
-1.04357
-0.913831
-0.29378
1.06889
2.35098
1.99365
-1.02605
-8.27512
-18.5623
-30.8931
-44.5071
-59.0892
-74.4913
-90.2456
-104.767
-115.91
-124.515
-131.89
-149.303
-233.485
26.3933
27.4993
28.783
30.1979
31.5838
32.9897
34.3633
35.585
36.5726
37.3248
37.8549
38.1772
38.3178
38.2961
38.1233
37.8026
37.3299
36.6942
35.8772
34.8562
33.6047
32.094
30.2926
28.1804
25.77
23.0913
20.1619
16.9935
13.5953
9.97011
6.10869
1.98244
-2.45979
-7.31939
-12.7204
-18.9829
-26.1545
-35.4389
-44.1207
24.6184
23.4534
22.0606
20.5258
19.0323
17.4414
15.8063
14.1842
12.5404
10.9292
9.39718
7.93106
6.52388
5.16813
3.86187
2.61542
1.44924
0.409584
-0.453806
-1.06309
-1.10049
-0.591958
0.314019
1.21777
0.541462
-2.44427
-9.44484
-19.7857
-32.3757
-46.4421
-61.5166
-77.2888
-93.2138
-107.839
-119.228
-127.684
-134.084
-151.003
-227.069
25.7001
26.7567
27.9832
29.3299
30.6464
31.9797
33.2776
34.4236
35.341
36.0325
36.514
36.7992
36.9147
36.8797
36.7062
36.3975
35.9511
35.3564
34.5966
33.6491
32.4877
31.0824
29.3997
27.4156
25.1383
22.5935
19.7953
16.7523
13.4718
9.95556
6.19555
2.16589
-2.17929
-6.93096
-12.1995
-18.2604
-25.1441
-33.8156
-41.8371
23.9463
22.8259
21.4808
19.9967
18.5501
17.009
15.4193
13.8405
12.2402
10.6643
9.15935
7.72084
6.34176
5.01301
3.73086
2.50452
1.34969
0.302542
-0.581836
-1.2676
-1.55477
-1.27107
-0.810305
-0.442481
-1.45765
-4.57145
-11.2575
-21.5156
-34.2398
-48.6208
-64.0756
-80.1492
-96.2188
-110.94
-122.539
-130.801
-136.286
-152.261
-218.957
24.9854
25.9975
27.17
28.4557
29.7073
30.9726
32.2005
33.2748
34.1261
34.7611
35.1966
35.4465
35.5377
35.489
35.3126
35.0129
34.5883
34.0288
33.3192
32.4375
31.3582
30.0502
28.4789
26.6169
24.4686
22.0553
19.3883
16.4726
13.3138
9.91211
6.26045
2.33521
-1.90387
-6.53783
-11.6628
-17.5122
-24.1
-32.1738
-39.5623
23.2539
22.1727
20.8731
19.435
18.0338
16.5339
14.9871
13.449
11.8872
10.342
8.85864
7.44115
6.08352
4.77341
3.50557
2.28623
1.12789
0.0546966
-0.885068
-1.66126
-2.20505
-2.26707
-2.21551
-2.48039
-3.91282
-7.28935
-13.7028
-23.7429
-36.4815
-51.0513
-66.7737
-83.0738
-99.258
-114.057
-125.818
-133.866
-138.514
-152.929
-209.036
24.2543
25.2251
26.3495
27.5767
28.769
29.9718
31.1329
32.1398
32.9293
33.5117
33.9037
34.1201
34.1874
34.1246
33.9442
33.6513
33.2443
32.7154
32.0496
31.2267
30.2215
29.0031
27.5356
25.7895
23.7653
21.4808
18.9437
16.1569
13.1229
9.84087
6.30409
2.4916
-1.63262
-6.13868
-11.1093
-16.7376
-23.0212
-30.5165
-37.2981
22.5456
21.5015
20.2419
18.8463
17.4837
16.0252
14.5156
13.0121
11.4862
9.96706
8.50021
7.09781
5.75444
4.45468
3.19125
1.96716
0.790533
-0.323495
-1.34325
-2.2357
-3.01193
-3.49142
-3.84102
-4.72692
-6.69068
-10.4368
-16.7064
-26.4408
-39.0707
-53.7097
-69.5984
-86.0513
-102.314
-117.171
-129.051
-136.893
-140.757
-152.928
-197.597
23.5101
24.4436
25.5221
26.6974
27.8335
28.9773
30.0769
31.0205
31.752
32.285
32.636
32.8207
32.865
32.7882
32.6028
32.3141
31.9223
31.4192
30.7918
30.0212
29.0829
27.9465
26.5755
24.9388
23.0333
20.8739
18.4651
15.8071
12.9
9.74202
6.32566
2.63294
-1.36794
-5.73676
-10.5433
-15.9424
-21.917
-28.8555
-35.0586
21.8246
20.813
19.5917
18.2342
16.9091
15.4839
14.0087
12.5378
11.0414
9.54401
8.08937
6.69647
5.36009
4.06261
2.79403
1.5546
0.346371
-0.821922
-1.93714
-2.9718
-3.96234
-4.85966
-5.6467
-7.05819
-9.63196
-13.8439
-20.1612
-29.5689
-41.9886
-56.5851
-72.5405
-89.0787
-105.382
-120.272
-132.227
-139.892
-143.011
-152.289
-185.207
22.7567
23.6556
24.6931
25.818
26.9031
27.9924
29.0332
29.9174
30.5947
31.0815
31.3941
31.5486
31.5713
31.4806
31.2892
31.0038
30.6238
30.1433
29.5495
28.8253
27.9472
26.8854
25.6038
24.0697
22.2776
20.239
17.9561
15.4263
12.6479
9.61711
6.32684
2.76068
-1.10847
-5.33098
-9.96362
-15.1266
-20.7872
-27.1936
-32.8464
21.0945
20.114
18.9258
17.6035
16.3097
14.918
13.472
12.0275
10.5573
9.07846
7.63277
6.24323
4.90688
3.60395
2.32173
1.05718
-0.193328
-1.42784
-2.64759
-3.84123
-5.0428
-6.30973
-7.57549
-9.41011
-12.5633
-17.3259
-23.8982
-33.0541
-45.1874
-59.6424
-75.5725
-92.1318
-108.443
-123.345
-135.349
-142.883
-145.271
-151.139
-172.497
21.9968
22.8643
23.8626
24.943
25.9795
27.0173
28.0038
28.8322
29.4586
29.9021
30.1785
30.3048
30.3066
30.2022
30.0054
29.7213
29.3518
28.8901
28.3264
27.643
26.819
25.8252
24.6259
23.1879
21.5032
19.5807
17.4204
15.0176
12.3683
9.46735
6.30731
2.87375
-0.856454
-4.92468
-9.37491
-14.2965
-19.6421
-25.5417
-30.6753
20.3581
19.4046
18.2482
16.9573
15.6939
14.3282
12.909
11.489
10.0385
8.57579
7.13655
5.74412
4.40117
3.08598
1.78264
0.484542
-0.816833
-2.1271
-3.45706
-4.81569
-6.23243
-7.81236
-9.55438
-11.7713
-15.3641
-20.7061
-27.7184
-36.7959
-48.6178
-62.8509
-78.6723
-95.1933
-111.481
-126.379
-138.412
-145.859
-147.525
-149.66
-160.067
21.2334
22.0718
23.0354
24.0723
25.0648
26.055
26.9896
27.7656
28.3443
28.7472
28.9898
29.0895
29.0716
28.9547
28.7515
28.4689
28.1073
27.6629
27.1247
26.4783
25.7026
24.7706
23.647
22.2983
20.7151
18.9037
16.8625
14.5846
12.0643
9.29516
6.26938
2.97383
-0.610536
-4.51638
-8.77666
-13.4522
-18.4819
-23.9027
-28.5479
19.6187
18.6907
17.5617
16.2998
15.061
13.722
12.3249
10.9237
9.49086
8.04177
6.60568
5.20501
3.84963
2.5167
1.186
-0.152019
-1.51089
-2.90311
-4.34678
-5.86789
-7.50049
-9.35271
-11.514
-14.1226
-17.9898
-23.8183
-31.3932
-40.6342
-52.2006
-66.1568
-81.8006
-98.2268
-114.466
-129.353
-141.413
-148.795
-149.773
-148.077
-148.431
20.4689
21.281
22.2111
23.2098
24.1603
25.1055
25.9921
26.7189
27.253
27.6178
27.8286
27.9033
27.8669
27.7378
27.529
27.2468
26.8925
26.4625
25.9479
25.3342
24.6021
23.726
22.6717
21.4061
19.9182
18.2127
16.2864
14.1309
11.7387
9.10224
6.21323
3.06038
-0.372416
-4.10964
-8.17353
-12.6005
-17.3175
-22.2864
-26.4766
18.8781
17.9722
16.8697
15.6334
14.419
13.0999
11.7228
10.3398
8.91923
7.48107
6.0448
4.63201
3.25983
1.9044
0.541708
-0.841356
-2.26204
-3.73941
-5.29801
-6.97463
-8.81502
-10.9141
-13.4145
-16.4148
-20.4667
-26.5634
-34.7037
-44.354
-55.8327
-69.5062
-84.9199
-101.202
-117.366
-132.237
-144.327
-151.636
-152.021
-146.613
-138.022
19.7058
20.4935
21.3941
22.3554
23.268
24.1716
25.0121
25.693
26.1853
26.5144
26.6954
26.7467
26.693
26.5527
26.3385
26.0566
25.7086
25.2917
24.7979
24.2137
23.5209
22.6958
21.7049
20.516
19.1175
17.5127
15.6969
13.6607
11.3951
8.89161
6.14172
3.1352
-0.140637
-3.7034
-7.56545
-11.7421
-16.1499
-20.6948
-24.4627
18.1393
17.2547
16.1746
14.9621
13.767
12.469
11.1082
9.73796
8.32904
6.89895
5.45977
4.03227
2.63995
1.25849
-0.139828
-1.57105
-3.05591
-4.61889
-6.29033
-8.11341
-10.1454
-12.4708
-15.2396
-18.5803
-22.8148
-28.9455
-37.4705
-47.6863
-59.3396
-72.8121
-87.9708
-104.071
-120.135
-134.983
-147.118
-154.357
-154.295
-145.478
-129.18
18.9462
19.7119
20.584
21.5127
22.389
23.2531
24.0512
24.6891
25.1425
25.4381
25.5911
25.6205
25.5507
25.3999
25.1807
24.899
24.5568
24.1519
23.677
23.1191
22.4628
21.6835
20.7508
19.6328
18.3181
16.8086
15.0985
13.1778
11.0366
8.6655
6.05566
3.19815
0.0830939
-3.30082
-6.95746
-10.8841
-14.989
-19.1374
-22.5173
17.404
16.5377
15.4796
14.2882
13.1128
11.8294
10.4838
9.12635
7.72458
6.30012
4.85642
3.41261
1.99779
0.587991
-0.847953
-2.32887
-3.87825
-5.52469
-7.30364
-9.26232
-11.4654
-13.9928
-16.9798
-20.5771
-25.0046
-31.0443
-39.6285
-50.3609
-62.4612
-75.9424
-90.8843
-106.78
-122.72
-137.531
-149.712
-156.908
-156.559
-144.796
-122.086
18.1924
18.9377
19.7847
20.6811
21.525
22.3526
23.1098
23.7076
24.1247
24.3893
24.5163
24.5254
24.4407
24.2801
24.0563
23.7749
23.438
23.0444
22.5864
22.0537
21.4297
20.693
19.8136
18.7613
17.5247
16.105
14.496
12.6869
10.6674
8.4273
5.958
3.25141
0.300209
-2.90132
-6.34963
-10.0276
-13.8369
-17.6157
-20.64
16.6751
15.8264
14.7868
13.6151
12.4547
11.1884
9.85468
8.50532
7.11117
5.68969
4.24162
2.78132
1.34204
-0.097739
-1.57182
-3.10207
-4.71427
-6.43988
-8.31863
-10.4001
-12.752
-15.4524
-18.6174
-22.3909
-26.9758
-32.92
-41.2565
-52.1976
-64.8536
-78.6448
-93.5293
-109.245
-125.045
-139.799
-152.012
-159.191
-158.658
-144.57
-116.735
17.4461
18.173
18.9956
19.864
20.6767
21.4696
22.1891
22.7495
23.1331
23.3688
23.4717
23.4618
23.3635
23.1941
22.966
22.685
22.3534
21.9698
21.5283
21.0181
20.4247
19.7271
18.8967
17.9054
16.7418
15.4067
13.8939
12.1922
10.291
8.17991
5.85028
3.29512
0.509401
-2.50804
-5.74726
-9.17989
-12.7027
-16.1382
-18.84
15.9539
15.1201
14.0991
12.9449
11.8007
10.5455
9.22334
7.88342
6.49285
5.07265
3.6212
2.14574
0.680961
-0.78948
-2.3009
-3.87833
-5.5498
-7.34859
-9.31718
-11.5068
-13.9843
-16.8254
-20.1305
-24.0192
-28.6881
-34.5587
-42.5006
-53.2089
-66.2137
-80.5315
-95.6496
-111.32
-127.003
-141.675
-153.884
-161.022
-160.309
-144.593
-112.925
16.7093
17.419
18.2204
19.0607
19.8455
20.6064
21.2895
21.8151
22.1679
22.377
22.4577
22.4307
22.3197
22.1421
21.9105
21.63
21.3035
20.9299
20.5035
20.0146
19.4497
18.788
18.0035
17.0689
15.9736
14.7183
13.2968
11.6982
9.91167
7.92693
5.73558
3.33163
0.712027
-2.12055
-5.1509
-8.34201
-11.5887
-14.7059
-17.1155
15.2426
14.4237
13.4183
12.2806
11.1487
9.90786
8.59486
7.26052
5.87512
4.45537
3.0011
1.51196
0.0222248
-1.47812
-3.02488
-4.64601
-6.37134
-8.23547
-10.282
-12.5628
-15.1427
-18.0919
-21.4971
-25.4523
-30.1325
-35.9119
-43.4508
-53.5777
-66.4406
-81.1793
-96.7902
-112.686
-128.374
-142.978
-155.132
-162.187
-161.218
-144.499
-110.375
15.9834
16.6777
17.4579
18.2742
19.0318
19.7623
20.4123
20.9054
21.2299
21.4143
21.4748
21.432
21.3095
21.1256
20.89
20.6112
20.289
19.9257
19.5128
19.045
18.5055
17.8785
17.1365
16.2549
15.2238
14.0437
12.709
11.209
9.53321
7.67152
5.61609
3.36172
0.907289
-1.74148
-4.5653
-7.52113
-10.5034
-13.3266
-15.474
14.5426
13.7363
12.7468
11.6243
10.5064
9.27447
7.97164
6.64496
5.26222
3.84295
2.38694
0.88571
-0.626963
-2.15507
-3.73384
-5.39383
-7.16629
-9.08611
-11.1972
-13.5513
-16.2094
-19.235
-22.7013
-26.6792
-31.3129
-36.9493
-44.1097
-53.5105
-65.7067
-80.3724
-96.4207
-112.793
-128.73
-143.375
-155.455
-162.375
-161.048
-143.804
-108.685
15.2703
15.9499
16.7118
17.5035
18.237
18.9395
19.5576
20.0208
20.3192
20.4812
20.5232
20.4661
20.3343
20.1431
19.9068
19.6274
19.3123
18.9563
18.5591
18.1085
17.5952
16.9995
16.2979
15.4663
14.4955
13.3866
12.1344
10.7286
9.15952
7.41731
5.49477
3.38771
1.09658
-1.37044
-3.99109
-6.71841
-9.44844
-12.0005
-13.9122
13.8561
13.0625
12.0865
10.9787
9.87124
8.65241
7.35785
6.03623
4.659
3.2409
1.78442
0.27355
-1.25906
-2.81172
-4.41827
-6.11119
-7.92274
-9.88755
-12.0489
-14.4571
-17.1692
-20.2402
-23.7298
-27.6886
-32.2306
-37.6705
-44.4508
-53.1207
-64.3219
-78.2574
-94.2299
-111
-127.381
-142.263
-154.343
-161.114
-159.376
-141.924
-107.262
14.5712
15.2374
15.9809
16.7517
17.4617
18.1375
18.7268
19.1622
19.4365
19.578
19.6033
19.5337
19.393
19.1977
18.9588
18.6823
18.3713
18.0256
17.6406
17.2088
16.7185
16.1531
15.4897
14.7052
13.7914
12.7501
11.5762
10.2607
8.79405
7.16733
5.37401
3.4109
1.27975
-1.00939
-3.43209
-5.93962
-8.43097
-10.7341
-12.4363
13.1839
12.4013
11.4397
10.3454
9.25068
8.04023
6.75541
5.4422
4.06866
2.65348
1.19843
-0.318383
-1.86716
-3.44048
-5.06975
-6.78853
-8.63007
-10.6282
-12.8247
-15.2676
-18.009
-21.0959
-24.5738
-28.4746
-32.8863
-38.0873
-44.4653
-52.4373
-62.5452
-75.2487
-90.3821
-106.973
-123.621
-138.833
-151.041
-157.74
-155.68
-138.288
-105.246
13.8876
14.5411
15.2685
16.018
16.7069
17.3583
17.92
18.3298
18.5821
18.705
18.7153
18.6347
18.4869
18.2879
18.0482
17.7742
17.4688
17.1322
16.76
16.3453
15.8774
15.3408
14.7132
13.9734
13.114
12.1367
11.0374
9.80803
8.43983
6.9245
5.25643
3.43328
1.45806
-0.657834
-2.88878
-5.18566
-7.45192
-9.52658
-11.0414
12.528
11.757
10.8075
9.72694
8.6422
7.44458
6.16854
4.86175
3.49557
2.08508
0.632959
-0.884522
-2.44394
-4.03361
-5.68025
-7.41744
-9.2791
-11.2984
-13.5145
-15.9725
-18.7195
-21.7938
-25.2276
-29.0355
-33.2831
-38.214
-44.167
-51.4666
-60.5143
-71.7756
-85.4328
-100.986
-117.22
-132.45
-144.759
-151.502
-149.403
-132.543
-101.7
13.2205
13.8624
14.5737
15.3049
15.9733
16.6014
17.1382
17.5243
17.7565
17.8626
17.8596
17.7696
17.6159
17.4142
17.1747
16.9039
16.6046
16.2771
15.9175
15.5193
15.0729
14.5633
13.9698
13.2729
12.4649
11.5484
10.5203
9.37331
8.09947
6.69128
5.14398
3.45613
1.63171
-0.316977
-2.3639
-4.46068
-6.51642
-8.38268
-9.73238
11.8893
11.1283
10.1922
9.12483
8.05264
6.86379
5.59886
4.30208
2.94257
1.53876
0.092136
-1.42098
-2.98441
-4.5847
-6.24276
-7.99053
-9.86229
-11.89
-14.1103
-16.5643
-19.2938
-22.3288
-25.6893
-29.374
-33.4288
-38.0663
-43.5793
-50.2243
-58.2852
-68.1205
-80.0077
-93.8135
-108.724
-123.208
-135.211
-141.945
-140.121
-124.46
-96.1337
12.5716
13.2022
13.8994
14.6117
15.2617
15.8684
16.3814
16.7458
16.9599
17.0509
17.0364
16.9384
16.7801
16.5767
16.3384
16.0715
15.7787
15.4606
15.1135
14.7314
14.3055
13.8217
13.2612
12.6044
11.8454
10.987
10.0267
8.95841
7.77489
6.46952
5.03832
3.48078
1.80153
0.0134265
-1.85763
-3.76513
-5.62449
-7.3005
-8.50284
11.2696
10.5194
9.59502
8.54121
7.47925
6.30419
5.04972
3.76177
2.41325
1.0185
-0.419612
-1.92401
-3.48496
-5.08913
-6.75146
-8.50158
-10.3733
-12.397
-14.6062
-17.038
-19.7284
-22.6996
-25.9605
-29.4962
-33.3355
-37.663
-42.7302
-48.7391
-55.8872
-64.4144
-74.5448
-86.2943
-99.1952
-112.074
-123.053
-129.422
-127.981
-114.109
-88.76
11.9417
12.5618
13.2445
13.9404
14.5722
15.1585
15.6501
15.9948
16.1925
16.2702
16.2456
16.1412
15.9794
15.7755
15.5393
15.277
14.9912
14.6829
14.3483
13.982
13.5758
13.1169
12.5874
11.9693
11.2571
10.4537
9.5582
8.56496
7.46771
6.26069
4.94073
3.50794
1.96759
0.332616
-1.3718
-3.10165
-4.77917
-6.2827
-7.35603
10.6695
9.9288
9.01767
7.97721
6.92849
5.7638
4.52235
3.2476
1.90959
0.526886
-0.899272
-2.39045
-3.94272
-5.54347
-7.20237
-8.94594
-10.8072
-12.8149
-14.9987
-17.3913
-20.0228
-22.9083
-26.0469
-29.4125
-33.0189
-37.0265
-41.65
-47.0462
-53.3494
-60.7072
-69.2509
-78.9983
-89.6607
-100.401
-109.699
-115.185
-113.959
-102.077
-80.1105
11.3319
11.9416
12.6112
13.2901
13.9054
14.4729
14.9443
15.271
15.4541
15.5203
15.4873
15.3777
15.2138
15.0104
14.7771
14.5202
14.2421
13.9437
13.6217
13.2712
12.8843
12.4493
11.9494
11.3683
10.7004
9.94969
9.11588
8.19401
7.17888
6.06563
4.85177
3.53802
2.12994
0.640348
-0.906746
-2.47034
-3.9798
-5.32659
-6.28458
10.0902
9.3602
8.46097
7.43467
6.39757
5.24827
4.01998
2.75758
1.43475
0.0668981
-1.3438
-2.81735
-4.35456
-5.94474
-7.59246
-9.32064
-11.1611
-13.1409
-15.2861
-17.6241
-20.1792
-22.96
-25.9574
-29.1358
-32.4981
-36.1827
-40.3711
-45.1836
-50.7077
-57.0258
-64.191
-72.1734
-80.7407
-89.2751
-96.6104
-100.844
-99.551
-89.5213
-70.9534
10.7427
11.3425
11.9985
12.6624
13.2612
13.811
14.2642
14.5746
14.7448
14.8011
14.7613
14.648
14.4831
14.2812
14.0518
13.8008
13.5309
13.2429
12.9337
12.5987
12.2308
11.8189
11.3477
10.8014
10.1759
9.47572
8.70042
7.84638
6.90923
5.88506
4.77195
3.57115
2.28831
0.935831
-0.463777
-1.87285
-3.22788
-4.43314
-5.29053
9.53211
8.81203
7.92635
6.91452
5.89207
4.75541
3.54331
2.29755
0.990275
-0.359946
-1.75143
-3.2031
-4.71851
-6.29083
-7.91976
-9.6241
-11.4339
-13.3746
-15.4687
-17.7385
-20.2025
-22.8629
-25.704
-28.6838
-31.7955
-35.1581
-38.9264
-43.1896
-48.0001
-53.3955
-59.3769
-65.8705
-72.654
-79.2331
-84.7135
-87.6339
-86.0919
-77.6083
-62.1458
10.175
10.7647
11.4082
12.0563
12.6404
13.1736
13.6097
13.9055
14.0644
14.1124
14.0673
13.9516
13.787
13.5876
13.3628
13.1186
12.8572
12.58
12.2836
11.9642
11.6149
11.2255
10.7817
10.2689
9.68422
9.03188
8.31232
7.52251
6.65923
5.7192
4.70123
3.607
2.44215
1.21834
-0.0435026
-1.30932
-2.52263
-3.59957
-4.36617
8.99624
8.28724
7.41434
6.41799
5.40892
4.29014
3.09451
1.86527
0.578168
-0.751631
-2.12047
-3.5467
-5.03386
-6.58055
-8.1832
-9.85582
-11.6258
-13.5171
-15.549
-17.7389
-20.0995
-22.6274
-25.3015
-28.0742
-30.9335
-33.9814
-37.3489
-41.1007
-45.2636
-49.8442
-54.8121
-60.0685
-65.3966
-70.3815
-74.3219
-76.1104
-74.305
-67.0705
-54.279
9.62893
10.2085
10.8392
11.4733
12.0427
12.5605
12.9812
13.2638
13.4129
13.454
13.405
13.2883
13.1249
12.929
12.7098
12.4729
12.2207
11.9544
11.6711
11.3671
11.0361
10.6686
10.2512
9.77074
9.22491
8.61828
7.95147
7.22268
6.42905
5.56819
4.63968
3.64547
2.59099
1.48722
0.353171
-0.780669
-1.86455
-2.82584
-3.51316
8.48235
7.78403
6.92582
5.94545
4.953
3.8499
2.67378