/*--------------------------------*- C++ -*----------------------------------*\
  =========                 |
  \\      /  F ield         | OpenFOAM: The Open Source CFD Toolbox
   \\    /   O peration     | Website:  https://openfoam.org
    \\  /    A nd           | Version:  9
     \\/     M anipulation  |
\*---------------------------------------------------------------------------*/
FoamFile
{
    format      ascii;
    class       volVectorField;
    location    "80";
    object      U;
}
// * * * * * * * * * * * * * * * * * * * * * * * * * * * * * * * * * * * * * //

dimensions      [0 1 -1 0 0 0 0];

internalField   nonuniform List<vector> 
10720
(
(-1.33786 13.8786 8.97736e-18)
(-0.609269 14.1628 -8.92627e-18)
(0.145896 14.1967 0)
(0.866113 13.7671 -1.02023e-16)
(1.48906 12.8962 1.12218e-16)
(1.9473 11.4811 5.16505e-17)
(2.13767 9.46423 7.19731e-17)
(1.99614 6.93921 0)
(1.50937 4.13529 0)
(0.750963 1.4827 0)
(-0.159599 -0.340521 1.0968e-17)
(-0.900182 -0.752281 0)
(-1.34909 -0.832504 6.9211e-16)
(-1.60084 -0.852672 0)
(-1.82275 -0.838811 0)
(-1.99851 -0.817977 0)
(-2.18953 -0.801021 -9.31548e-16)
(-2.41605 -0.760607 -1.35579e-15)
(-2.58401 -0.680977 1.22779e-15)
(-2.47748 -0.568391 0)
(-1.91305 -0.449327 9.16484e-16)
(-0.877504 -0.358318 -1.63333e-15)
(0.624552 -0.280302 5.61977e-16)
(2.47918 -0.158576 -1.17901e-17)
(4.33302 -0.0479072 0)
(5.82527 0.011164 3.73911e-16)
(6.78189 0.0186567 6.76115e-18)
(6.65573 -0.00471499 -2.893e-16)
(5.43945 -0.0404873 -1.34355e-15)
(4.16263 -0.14157 -6.14252e-15)
(3.68911 -0.165483 3.19432e-15)
(1.00846 0.15855 7.62386e-15)
(-3.34549 0.627125 6.90877e-15)
(-5.76468 0.893132 2.8746e-14)
(-6.18143 0.910788 -1.51028e-14)
(-4.70772 0.621868 -1.20429e-16)
(-1.6662 0.0850247 1.65201e-16)
(6.11223 -1.59184 5.19826e-14)
(8.53639 -2.86058 -9.34442e-14)
(-2.04587 13.4375 3.4934e-18)
(-2.74923 12.7862 5.50132e-18)
(-3.41611 11.9328 -5.45711e-18)
(-3.96683 10.7431 -1.27412e-17)
(-4.32429 9.3917 -2.43713e-17)
(-4.42611 7.89575 8.85218e-17)
(-4.23279 6.33743 4.68801e-16)
(-3.7459 4.83576 2.57704e-16)
(-3.02695 3.50023 0)
(-2.1587 2.37903 0)
(-1.2127 1.48261 1.49089e-15)
(-0.269541 0.798884 1.36845e-15)
(0.579519 0.285668 -3.24349e-15)
(1.39636 -0.156966 2.04648e-15)
(2.21001 -0.509374 2.86081e-15)
(2.96646 -0.754445 1.64845e-15)
(3.64749 -0.913853 2.00111e-15)
(4.26993 -1.01808 1.2867e-15)
(4.85678 -1.08684 0)
(5.41954 -1.12662 0)
(5.96432 -1.1411 -1.77618e-15)
(6.49692 -1.12971 -8.89283e-17)
(7.02237 -1.08936 1.32911e-15)
(7.53521 -1.00955 -1.02538e-15)
(8.01469 -0.886726 7.0467e-18)
(8.45261 -0.732426 0)
(8.85561 -0.55575 2.57962e-16)
(9.2295 -0.362915 0)
(9.57719 -0.158047 0)
(9.90329 0.0544683 7.55212e-17)
(10.2157 0.271994 0)
(10.5204 0.49178 1.24791e-16)
(10.8313 0.71308 6.18804e-16)
(11.1604 0.935839 5.11768e-15)
(11.5539 1.16749 -2.85922e-15)
(11.9982 1.40989 1.25598e-17)
(12.7811 1.71349 0)
(13.4847 2.10588 -1.23362e-14)
(17.2129 2.53891 -1.56853e-14)
(1.92285 12.597 -8.07837e-19)
(2.68672 12.9265 -2.41517e-19)
(3.48148 13.2233 0)
(4.22296 13.4874 0)
(4.8116 13.6899 -2.14502e-17)
(5.20772 13.8038 -3.60405e-17)
(5.37399 13.6638 0)
(5.28234 13.0158 0)
(4.88457 11.5428 2.91135e-17)
(4.12033 9.09216 0)
(2.95935 5.93263 1.84852e-16)
(1.50638 2.78171 0)
(0.0812008 0.489842 1.93262e-16)
(-0.900875 -0.37317 -2.35641e-16)
(-1.4741 -0.639696 4.23381e-16)
(-1.75402 -0.721271 -8.05906e-16)
(-1.91577 -0.768919 7.79157e-16)
(-2.11858 -0.776815 7.70031e-16)
(-2.33428 -0.717849 7.54959e-16)
(-2.3159 -0.629929 3.85603e-17)
(-1.83434 -0.574491 -5.43946e-16)
(-0.847343 -0.586132 3.78398e-16)
(0.585414 -0.6113 -1.6314e-17)
(2.27576 -0.53745 0)
(3.94522 -0.383639 0)
(5.26788 -0.227833 0)
(6.07003 -0.112158 4.41959e-17)
(6.44926 -0.0119201 -1.20531e-17)
(5.99413 0.0243211 8.09071e-16)
(4.98291 -0.0702508 5.94317e-18)
(2.90423 0.161717 -7.78105e-18)
(-2.04432 0.845732 -2.61532e-17)
(-5.9142 1.16198 2.95373e-15)
(-7.47955 1.20907 -7.28388e-15)
(-7.47549 1.0746 -6.26259e-17)
(-6.14265 0.708257 -1.37622e-14)
(-3.01769 0.0774549 0)
(4.4513 -1.60638 -1.08503e-14)
(7.14237 -1.79884 -4.38412e-14)
(1.18578 12.177 1.03824e-18)
(0.468792 11.6606 -6.97278e-18)
(-0.295181 10.9907 -8.80423e-17)
(-1.00951 10.1358 7.85009e-17)
(-1.6084 9.09497 0)
(-2.0339 7.89819 -2.40344e-16)
(-2.23279 6.59842 -1.65948e-16)
(-2.16957 5.28802 -1.16115e-15)
(-1.85745 4.05752 4.76213e-16)
(-1.34673 2.96502 -6.67634e-16)
(-0.70069 2.04416 1.29876e-15)
(0.0182578 1.29676 -6.05503e-16)
(0.75732 0.700917 0)
(1.50132 0.214503 -5.71805e-16)
(2.24392 -0.149634 2.15821e-18)
(2.95283 -0.397809 -1.17666e-15)
(3.6112 -0.566049 0)
(4.22772 -0.686173 0)
(4.81715 -0.772387 -1.19656e-16)
(5.38823 -0.826199 1.10082e-16)
(5.94496 -0.849981 -1.36888e-15)
(6.49224 -0.842137 -1.54783e-16)
(7.03377 -0.798749 6.87847e-17)
(7.56557 -0.707771 8.66671e-16)
(8.07069 -0.57098 -7.21744e-16)
(8.53947 -0.408443 -5.51955e-16)
(8.97582 -0.230159 0)
(9.3845 -0.0407073 0)
(9.76761 0.157516 0)
(10.1299 0.360685 3.1484e-18)
(10.4782 0.567617 0)
(10.8184 0.775999 0)
(11.164 0.986082 -1.01921e-15)
(11.5262 1.19958 -1.69091e-15)
(11.9512 1.4251 2.35578e-15)
(12.4211 1.66974 -3.06173e-15)
(13.2355 1.99173 7.63407e-15)
(13.9085 2.38101 9.58959e-15)
(17.603 3.45266 1.12528e-14)
(1.21438 11.6208 -2.05768e-19)
(1.72555 11.9158 3.79772e-19)
(2.29195 12.1291 -1.4803e-19)
(2.8783 12.2791 4.11505e-19)
(3.46884 12.3902 -1.29894e-17)
(4.06494 12.5469 3.83276e-17)
(4.62469 12.8225 -2.43615e-17)
(5.10658 13.1796 -1.40183e-17)
(5.46682 13.3456 -2.4675e-18)
(5.57096 12.7955 -2.08868e-17)
(5.1965 11.0608 1.12457e-17)
(4.16377 8.11752 -7.41673e-17)
(2.56237 4.637 -5.33554e-17)
(0.823966 1.76984 0)
(-0.477147 0.299819 -3.11047e-16)
(-1.14643 -0.205105 6.37192e-16)
(-1.48715 -0.43769 0)
(-1.76735 -0.559267 -1.1149e-15)
(-2.0519 -0.610437 -5.45561e-16)
(-2.12991 -0.65255 5.47701e-17)
(-1.76143 -0.747265 -4.65249e-17)
(-0.890609 -0.89749 -1.39203e-17)
(0.399035 -1.00582 -1.61796e-16)
(1.91583 -0.943688 8.65495e-17)
(3.39713 -0.718477 0)
(4.57632 -0.43792 1.93884e-16)
(5.27276 -0.196348 -3.43012e-17)
(5.45332 0.023701 0)
(5.09351 0.175561 6.13692e-16)
(3.91381 0.279999 1.15615e-15)
(0.387663 0.841451 -1.68305e-15)
(-4.40558 1.45524 -1.58357e-15)
(-7.19057 1.518 -1.43102e-17)
(-8.4579 1.41593 -5.11819e-15)
(-8.52163 1.19053 -5.27325e-15)
(-7.18757 0.706243 8.6902e-15)
(-4.0031 -0.0544393 0)
(3.07273 -1.68275 -6.57061e-15)
(5.8471 -1.65757 5.29734e-14)
(0.754796 11.2558 -3.53663e-18)
(0.308098 10.7954 -1.12771e-17)
(-0.13338 10.1863 3.19084e-17)
(-0.563173 9.44211 0)
(-0.919927 8.57093 8.44766e-17)
(-1.17167 7.58299 0)
(-1.28494 6.51078 5.23188e-16)
(-1.23336 5.41531 3.14116e-16)
(-1.01176 4.35596 3.94142e-16)
(-0.637338 3.3761 0)
(-0.145556 2.50769 -1.28068e-15)
(0.427176 1.76521 -4.15387e-16)
(1.04482 1.14866 2.23679e-15)
(1.69128 0.641622 0)
(2.35361 0.246314 -1.0502e-15)
(3.00227 -0.0470199 -3.08364e-16)
(3.62051 -0.265333 1.31728e-15)
(4.21017 -0.431215 6.90902e-16)
(4.77999 -0.555183 1.98176e-16)
(5.33626 -0.640492 -9.8719e-17)
(5.882 -0.690935 1.15686e-15)
(6.42056 -0.706951 0)
(6.95455 -0.686031 0)
(7.48063 -0.620374 4.65332e-18)
(7.98509 -0.512235 0)
(8.45887 -0.376103 1.03525e-15)
(8.90438 -0.219382 -1.40082e-17)
(9.32597 -0.0457577 -7.63841e-17)
(9.72572 0.141988 0)
(10.1084 0.339226 -6.09361e-17)
(10.4806 0.544982 4.34434e-17)
(10.8478 0.756401 0)
(11.2233 0.973466 4.69417e-16)
(11.6174 1.1978 0)
(12.075 1.43799 0)
(12.5754 1.70367 2.14291e-17)
(13.4159 2.04585 -8.23259e-17)
(14.0876 2.52122 -8.88197e-15)
(17.5247 3.64568 -2.16584e-14)
(2.21793 10.8201 -4.24529e-18)
(2.67704 11.1116 -6.80087e-18)
(3.17099 11.3524 1.04549e-17)
(3.67801 11.5416 1.46054e-17)
(4.1428 11.6658 0)
(4.54656 11.7442 0)
(4.89044 11.8377 -6.43714e-19)
(5.19745 12.052 1.79151e-17)
(5.51388 12.4801 0)
(5.85006 12.9621 -1.545e-17)
(6.06508 12.9567 -3.66395e-17)
(5.84058 11.7598 -3.3092e-17)
(4.86928 9.08389 6.07466e-17)
(3.15928 5.54667 8.10431e-17)
(1.23274 2.46647 0)
(-0.192054 0.748143 3.18044e-16)
(-0.912813 0.0693085 1.16474e-16)
(-1.3406 -0.243251 8.47096e-16)
(-1.71649 -0.420082 5.01799e-17)
(-1.91555 -0.608374 -4.43953e-17)
(-1.69967 -0.882297 3.01412e-16)
(-0.986703 -1.19524 -3.64291e-17)
(0.132183 -1.3893 1.38378e-16)
(1.46894 -1.32551 7.50711e-17)
(2.76842 -1.02996 -8.12292e-18)
(3.82147 -0.63741 -1.52465e-16)
(4.45443 -0.271944 1.96494e-18)
(4.50252 0.069326 -1.96566e-18)
(3.93453 0.383607 -5.12582e-16)
(1.99069 0.827478 -1.26511e-17)
(-2.22208 1.59586 6.22238e-16)
(-5.97598 1.95412 -1.28709e-15)
(-8.0952 1.80609 -1.55871e-15)
(-9.24802 1.59227 -4.6226e-17)
(-9.31246 1.26122 3.93054e-15)
(-8.00311 0.653442 0)
(-4.84798 -0.248474 5.74319e-15)
(1.92336 -1.81883 4.74358e-15)
(4.82674 -1.69409 -1.91778e-14)
(1.78567 10.4884 -7.76968e-18)
(1.3533 10.0906 2.10607e-17)
(0.913499 9.58171 8.20054e-17)
(0.484785 8.95569 0)
(0.119162 8.21608 -7.84813e-17)
(-0.157838 7.3713 0)
(-0.317577 6.4462 -4.83549e-16)
(-0.338046 5.49187 -1.20582e-17)
(-0.213627 4.55512 3.45287e-16)
(0.0455862 3.66939 4.41036e-16)
(0.415159 2.86275 1.46598e-17)
(0.868399 2.15179 1.26973e-15)
(1.37838 1.53928 -1.01773e-15)
(1.93146 1.01997 3.0579e-16)
(2.51401 0.598795 1.08931e-15)
(3.10108 0.270143 1.21978e-15)
(3.67626 0.0165775 -1.10704e-15)
(4.23599 -0.179542 -4.7349e-18)
(4.78374 -0.328819 0)
(5.32296 -0.436447 1.22039e-15)
(5.85535 -0.506154 6.40607e-17)
(6.38276 -0.539094 -9.82557e-16)
(6.90669 -0.533787 0)
(7.42395 -0.484812 3.46823e-18)
(7.92284 -0.393329 0)
(8.39449 -0.270911 -4.49114e-16)
(8.83982 -0.125494 0)
(9.26253 0.0384083 6.80184e-17)
(9.66462 0.21749 -2.0986e-18)
(10.0507 0.40696 1.17009e-18)
(10.4273 0.606211 -3.80966e-17)
(10.8002 0.81244 -1.86623e-19)
(11.1821 1.02582 0)
(11.5834 1.2485 -6.56431e-16)
(12.0481 1.48931 -1.23845e-17)
(12.5557 1.76067 2.53141e-15)
(13.3923 2.1108 -1.27947e-14)
(14.066 2.63894 -2.46576e-17)
(17.2243 3.75843 0)
(2.42506 10.2386 -7.38802e-18)
(2.77164 10.5251 -6.97787e-18)
(3.156 10.7814 2.442e-17)
(3.55528 11.0061 -7.38765e-17)
(3.94827 11.1779 1.58765e-17)
(4.34605 11.3049 2.35233e-17)
(4.72686 11.3968 -3.47833e-18)
(5.07499 11.4827 0)
(5.39907 11.6587 -4.35905e-18)
(5.73636 12.0569 1.31383e-17)
(6.11489 12.6329 0)
(6.41537 12.8674 2.84988e-17)
(6.26827 11.9029 -1.8583e-17)
(5.2648 9.31219 5.62537e-17)
(3.41859 5.76384 0)
(1.38241 2.68205 -2.35334e-16)
(-0.0390483 0.950996 3.34124e-16)
(-0.777185 0.232799 -3.4313e-18)
(-1.29745 -0.132463 0)
(-1.63877 -0.47879 3.33899e-16)
(-1.60877 -0.945111 -2.45119e-16)
(-1.09544 -1.43938 -9.38941e-18)
(-0.171859 -1.73305 -1.25689e-16)
(0.967743 -1.68323 -1.16493e-16)
(2.0672 -1.34527 0)
(2.97779 -0.863674 0)
(3.54429 -0.36531 -5.68642e-17)
(3.44049 0.14256 -7.85408e-18)
(2.42336 0.705854 4.62647e-16)
(-0.415187 1.51486 -9.91439e-18)
(-4.30369 2.25602 7.39027e-18)
(-7.06852 2.34359 1.02123e-15)
(-8.82731 2.05444 0)
(-9.8913 1.7431 6.65128e-15)
(-9.94712 1.30019 -2.38606e-17)
(-8.67836 0.56637 0)
(-5.59195 -0.474748 4.80279e-17)
(0.931444 -1.9922 0)
(3.99031 -1.80537 1.59178e-14)
(2.10327 9.92165 1.15029e-17)
(1.78434 9.55236 -5.40913e-17)
(1.45575 9.08649 6.1105e-17)
(1.1239 8.52679 8.33734e-17)
(0.833517 7.87881 -3.17136e-16)
(0.602949 7.14315 -3.92239e-16)
(0.456434 6.33646 4.37181e-16)
(0.415424 5.50026 -5.3857e-16)
(0.488856 4.67098 -3.28235e-16)
(0.673468 3.87342 -3.83371e-16)
(0.954275 3.13138 9.1042e-16)
(1.31251 2.46251 -1.07099e-15)
(1.73176 1.86893 -5.30807e-16)
(2.20315 1.35201 4.97765e-16)
(2.7122 0.920331 -1.14515e-15)
(3.2392 0.570538 2.00821e-16)
(3.76904 0.291363 0)
(4.29519 0.0698363 -8.48384e-16)
(4.81717 -0.103063 3.03815e-16)
(5.33602 -0.232601 -1.21812e-15)
(5.85214 -0.322068 0)
(6.36611 -0.37283 8.20423e-16)
(6.87828 -0.384189 6.62024e-16)
(7.38542 -0.352693 -5.55352e-16)
(7.87728 -0.279189 0)
(8.34524 -0.17283 -4.09906e-16)
(8.78894 -0.0416117 0)
(9.21123 0.110034 0)
(9.6139 0.278663 0)
(10.0012 0.459718 5.33495e-17)
(10.3794 0.652463 0)
(10.754 0.854187 0)
(11.1378 1.06495 3.3675e-16)
(11.5406 1.28735 5.95726e-16)
(12.0057 1.53013 0)
(12.5131 1.80899 2.22051e-15)
(13.3375 2.16825 4.58405e-17)
(14.0068 2.74427 0)
(16.9217 3.87704 7.43423e-15)
(2.88768 9.72961 1.21762e-17)
(3.19176 10.0058 -9.64123e-18)
(3.52816 10.261 0)
(3.88033 10.4948 -1.71248e-18)
(4.22837 10.6887 6.98094e-17)
(4.56205 10.8575 -2.30981e-17)
(4.86976 11.0068 7.1589e-18)
(5.15307 11.1353 5.01579e-17)
(5.42156 11.2534 -1.37934e-17)
(5.6902 11.4284 -8.96318e-18)
(5.9991 11.812 -2.0551e-19)
(6.39167 12.424 8.24851e-18)
(6.73167 12.7267 3.74526e-18)
(6.56433 11.753 -4.47415e-18)
(5.41877 9.06927 0)
(3.40239 5.51331 -3.52243e-17)
(1.35102 2.58287 -1.05613e-16)
(0.0155438 1.00181 -5.40795e-16)
(-0.756802 0.298552 1.74727e-16)
(-1.27291 -0.243049 -1.97402e-16)
(-1.45031 -0.910243 -2.53348e-17)
(-1.1712 -1.60589 0)
(-0.468289 -2.0249 1.01992e-16)
(0.445511 -2.0164 6.95826e-18)
(1.30892 -1.67034 -7.17512e-18)
(2.0357 -1.11498 -1.36799e-16)
(2.50101 -0.455002 5.24596e-17)
(2.12653 0.295645 1.23792e-16)
(0.429949 1.19587 -3.79352e-16)
(-2.75072 2.20938 -1.5687e-17)
(-5.80462 2.77522 4.34768e-16)
(-7.8869 2.65773 9.0961e-16)
(-9.42897 2.27566 0)
(-10.4151 1.87312 4.99835e-17)
(-10.4688 1.31721 -2.81796e-15)
(-9.25292 0.455216 0)
(-6.25797 -0.723895 -7.52671e-15)
(0.0438752 -2.19448 0)
(3.26678 -1.96334 -1.39712e-14)
(2.60369 9.43309 -1.09608e-17)
(2.32243 9.09582 2.76732e-17)
(2.03198 8.67547 0)
(1.73929 8.17361 0)
(1.48205 7.59619 1.47501e-16)
(1.27291 6.94263 7.08032e-16)
(1.1316 6.2255 0)
(1.07616 5.48094 -4.88239e-16)
(1.1149 4.73895 -5.75825e-16)
(1.24685 4.01775 6.93801e-16)
(1.46201 3.33666 -1.90977e-17)
(1.7465 2.71208 4.40953e-16)
(2.09171 2.1459 3.82294e-19)
(2.49274 1.64229 1.24628e-15)
(2.93568 1.21075 1.16089e-15)
(3.40558 0.849888 -1.09603e-15)
(3.88951 0.553018 1.62438e-16)
(4.37979 0.311587 -3.01131e-16)
(4.8734 0.118768 1.3932e-16)
(5.36944 -0.0298728 8.46512e-16)
(5.86709 -0.137281 1.10654e-16)
(6.36578 -0.20485 -8.88188e-17)
(6.86488 -0.232286 -5.55199e-16)
(7.36093 -0.21733 0)
(7.84473 -0.160838 2.65763e-17)
(8.30793 -0.0700032 7.24951e-16)
(8.74907 0.0476167 -4.21388e-18)
(9.17014 0.187599 4.06086e-18)
(9.57264 0.346348 0)
(9.96038 0.519342 -4.86286e-17)
(10.3393 0.70564 0)
(10.715 0.90272 0)
(11.0995 1.11059 -2.99201e-16)
(11.5027 1.33237 -5.2668e-16)
(11.9666 1.57666 0)
(12.4721 1.86269 -1.99911e-15)
(13.2818 2.23065 1.00106e-14)
(13.9442 2.85116 -3.77915e-17)
(16.6301 3.99438 -6.5174e-15)
(3.20892 9.32631 1.78518e-18)
(3.46138 9.59549 -1.01633e-17)
(3.74386 9.85278 3.05591e-17)
(4.04118 10.098 -3.1315e-17)
(4.33649 10.3102 -4.4009e-17)
(4.6351 10.4984 0)
(4.92715 10.6696 6.43156e-17)
(5.20368 10.8274 6.88536e-18)
(5.46567 10.9747 3.87765e-18)
(5.7156 11.1099 8.96912e-18)
(5.96542 11.2899 0)
(6.26873 11.6866 -9.06911e-18)
(6.68366 12.3221 -2.29868e-17)
(7.02707 12.5686 -6.94841e-17)
(6.73535 11.3761 0)
(5.34168 8.47247 -8.09282e-17)
(3.16933 4.95916 -1.26891e-16)
(1.19777 2.31671 1.87418e-16)
(-0.0429866 0.947845 -2.29319e-16)
(-0.792099 0.128488 2.41662e-16)
(-1.19645 -0.758295 2.2323e-17)
(-1.17511 -1.67526 -1.56437e-16)
(-0.721781 -2.25186 0)
(-0.0596194 -2.30802 -1.26769e-16)
(0.526611 -1.97497 9.48318e-18)
(1.00154 -1.34545 1.55003e-16)
(1.277 -0.477158 0)
(0.432661 0.598811 -8.3636e-18)
(-1.80537 1.79487 1.38874e-17)
(-4.61773 2.80551 4.15657e-16)
(-6.86593 3.17275 -3.53525e-16)
(-8.52554 2.92392 -7.93973e-16)
(-9.91672 2.47562 1.0517e-15)
(-10.8396 1.9863 2.93942e-17)
(-10.901 1.31738 2.44556e-15)
(-9.75036 0.325519 3.86415e-15)
(-6.86498 -0.991341 3.32444e-15)
(-0.78074 -2.42331 -5.79775e-17)
(2.60322 -2.1517 3.74109e-17)
(2.97425 9.04241 5.78494e-18)
(2.74142 8.72612 5.82917e-17)
(2.49874 8.33625 6.76532e-17)
(2.25015 7.8762 -1.25783e-16)
(2.02913 7.3527 -4.53691e-16)
(1.84516 6.7631 1.59647e-16)
(1.71511 6.11688 3.81873e-16)
(1.65515 5.44626 1.13283e-15)
(1.67279 4.77661 5.48348e-16)
(1.76843 4.12114 -6.21503e-16)
(1.93459 3.49627 -2.6323e-17)
(2.16246 2.91482 -4.01426e-16)
(2.44912 2.3795 0)
(2.79058 1.89611 -1.63783e-17)
(3.17524 1.47257 -6.88447e-16)
(3.59237 1.10865 3.13827e-16)
(4.03144 0.801218 -3.00118e-16)
(4.48485 0.545422 0)
(4.94834 0.336695 4.86969e-16)
(5.41965 0.171574 -8.81362e-16)
(5.89692 0.047978 0)
(6.37866 -0.0353345 6.79714e-16)
(6.86339 -0.0781826 0)
(7.34736 -0.0792462 -2.95773e-17)
(7.82213 -0.0391683 2.84348e-17)
(8.27952 0.0362008 -3.38088e-16)
(8.71723 0.140238 -5.72989e-18)
(9.13643 0.268346 -3.80075e-18)
(9.53826 0.417005 9.88338e-19)
(9.92609 0.581685 -4.88615e-17)
(10.3055 0.761353 -4.01372e-17)
(10.6819 0.953638 -2.42375e-17)
(11.0669 1.15858 -2.44772e-18)
(11.4701 1.37973 9.53661e-18)
(11.9323 1.62565 0)
(12.4353 1.91898 -3.32346e-17)
(13.2287 2.29607 -4.4419e-15)
(13.8822 2.95707 1.49894e-17)
(16.349 4.10816 -5.70729e-15)
(3.54091 8.9831 2.66993e-18)
(3.76106 9.24358 2.0203e-17)
(4.00852 9.4979 0)
(4.27055 9.7443 -6.70763e-18)
(4.53283 9.96336 -5.84802e-17)
(4.79954 10.1634 0)
(5.05945 10.351 4.32716e-17)
(5.30718 10.5276 -1.18422e-16)
(5.54624 10.7006 1.11578e-16)
(5.77906 10.8661 -3.69077e-17)
(6.00639 11.0152 -1.69213e-17)
(6.24045 11.2114 -1.05128e-17)
(6.5505 11.6458 5.17495e-18)
(6.99517 12.2906 3.01241e-17)
(7.28639 12.3459 1.16878e-17)
(6.74404 10.7596 5.22466e-17)
(5.03017 7.59454 9.21605e-17)
(2.76819 4.24115 1.25104e-16)
(0.942352 1.97277 -1.2675e-16)
(-0.169889 0.674653 -4.66072e-16)
(-0.824493 -0.46773 0)
(-1.08045 -1.62944 -4.87268e-18)
(-0.903458 -2.39424 1.04469e-16)
(-0.509071 -2.53023 1.18524e-16)
(-0.239079 -2.20144 -9.10623e-18)
(-0.10034 -1.47323 -1.52373e-16)
(-0.204315 -0.350447 2.05027e-18)
(-1.56276 1.04756 -1.01791e-16)
(-3.78283 2.3726 7.76124e-18)
(-5.96165 3.27395 -7.24334e-16)
(-7.62384 3.4833 1.5933e-18)
(-9.02313 3.15787 -1.05629e-17)
(-10.3002 2.6579 -9.46365e-16)
(-11.1745 2.08497 3.18345e-17)
(-11.2556 1.30422 -2.21518e-15)
(-10.1857 0.181509 -6.95082e-15)
(-7.42884 -1.27316 3.04896e-15)
(-1.57523 -2.67703 2.80865e-15)
(1.95825 -2.3497 -1.2894e-14)
(3.33643 8.71209 -2.53444e-17)
(3.13442 8.41445 -8.34955e-17)
(2.92332 8.05077 -5.9653e-17)
(2.70633 7.6248 -1.31836e-16)
(2.51256 7.14415 2.74283e-16)
(2.34901 6.60527 -2.15973e-18)
(2.22988 6.01579 -1.07145e-15)
(2.16931 5.40519 -4.4049e-16)
(2.17366 4.79541 -6.55782e-18)
(2.24382 4.19598 0)
(2.37323 3.62153 -6.53462e-16)
(2.55785 3.08123 6.54168e-16)
(2.79851 2.57797 -6.38962e-16)
(3.09008 2.11834 -3.23355e-16)
(3.42413 1.708 2.91331e-16)
(3.7934 1.34726 2.81618e-16)
(4.18974 1.03551 1.05267e-15)
(4.6064 0.770574 -2.49068e-16)
(5.03884 0.549892 -4.47928e-16)
(5.48403 0.371181 0)
(5.93938 0.233283 -7.12075e-16)
(6.40269 0.135398 -5.55111e-16)
(6.87181 0.0778979 -6.80736e-18)
(7.34277 0.0614613 -6.2021e-17)
(7.80751 0.085681 -2.30855e-17)
(8.25809 0.145983 3.50892e-16)
(8.69151 0.236524 -7.4413e-18)
(9.10817 0.35272 5.81656e-17)
(9.50881 0.491165 1.01033e-17)
(9.89634 0.647406 4.38375e-17)
(10.276 0.820302 -2.6508e-18)
(10.6528 1.00767 4.71488e-17)
(11.0382 1.20961 2.26861e-16)
(11.4412 1.4301 4.32938e-16)
(11.9013 1.67768 1.97549e-17)
(12.4013 1.97828 -1.08174e-17)
(13.1769 2.36477 4.07466e-15)
(13.8195 3.0616 4.71055e-15)
(16.0764 4.21815 5.22448e-15)
(3.83698 8.69427 -1.04393e-17)
(4.02795 8.94785 -8.84829e-18)
(4.24412 9.19926 -6.51159e-17)
(4.4739 9.44701 2.51338e-16)
(4.70452 9.67123 -1.17991e-16)
(4.94178 9.87982 1.03349e-16)
(5.17864 10.0763 -1.55303e-16)
(5.4084 10.2613 0)
(5.63243 10.4425 -3.86609e-17)
(5.85199 10.6239 1.03285e-18)
(6.0694 10.7982 2.32523e-17)
(6.28358 10.9545 1.56737e-17)
(6.51096 11.1765 -9.37223e-18)
(6.84786 11.6758 0)
(7.31823 12.2827 0)
(7.45816 11.9813 0)
(6.53211 9.8769 0)
(4.49411 6.52371 -9.32516e-17)
(2.24852 3.47106 1.29378e-16)
(0.643405 1.47682 1.71636e-16)
(-0.316614 -0.0140637 -1.73464e-16)
(-0.869582 -1.44862 9.71728e-17)
(-0.990117 -2.42912 -7.89512e-17)
(-0.87365 -2.65227 -6.18696e-18)
(-0.933477 -2.2999 -6.20974e-18)
(-1.20915 -1.43754 1.53663e-16)
(-1.84874 -0.0550291 4.73691e-17)
(-3.39142 1.5306 0)
(-5.26252 2.85593 0)
(-6.87556 3.63177 -4.56238e-18)
(-8.16278 3.73615 0)
(-9.39501 3.36844 7.20858e-16)
(-10.5824 2.82479 -9.12341e-16)
(-11.4229 2.17128 -2.01025e-15)
(-11.5383 1.28076 3.95896e-15)
(-10.5679 0.0268917 3.20279e-15)
(-7.96161 -1.56511 -2.8141e-15)
(-2.36482 -2.95562 -5.48037e-15)
(1.29728 -2.53777 1.27663e-14)
(3.65976 8.43364 0)
(3.48499 8.15124 2.56248e-17)
(3.30157 7.80832 1.10537e-16)
(3.11187 7.40979 -4.75616e-16)
(2.94182 6.96378 3.86469e-16)
(2.79654 6.4661 -2.88669e-16)
(2.68845 5.92298 -7.0894e-18)
(2.62988 5.36184 3.68371e-16)
(2.62633 4.80221 4.50641e-16)
(2.67841 4.25104 0)
(2.78111 3.72031 2.89047e-16)
(2.93333 3.21842 -8.65156e-16)
(3.13693 2.74773 1.41109e-15)
(3.38688 2.31343 2.68442e-16)
(3.67743 1.91952 -5.38924e-16)
(4.00393 1.56672 -5.12257e-16)
(4.36036 1.25574 -4.81257e-16)
(4.7413 0.986243 0)
(5.1425 0.757287 0)
(5.56071 0.567943 0)
(5.99295 0.417839 6.62743e-16)
(6.43658 0.306924 0)
(6.88898 0.235673 -4.45936e-16)
(7.34594 0.204712 -5.78763e-17)
(7.79972 0.213748 -3.71727e-16)
(8.24247 0.259395 -3.08418e-16)
(8.67069 0.336494 0)
(9.08406 0.440785 -4.79466e-17)
(9.48294 0.568867 -1.04342e-17)
(9.86973 0.716536 1.75176e-18)
(10.2492 0.882441 7.79826e-17)
(10.6264 1.06477 -4.83887e-18)
(11.0118 1.26359 -2.1532e-16)
(11.4144 1.48336 3.87031e-16)
(11.8722 1.73258 0)
(12.3686 2.04032 2.80849e-17)
(13.1251 2.43632 -7.35529e-17)
(13.7549 3.16425 -4.42863e-15)
(15.8105 4.32451 3.1223e-17)
(4.11681 8.44564 1.09333e-17)
(4.28543 8.69191 0)
(4.47721 8.93939 1.332e-16)
(4.68178 9.18592 -1.2744e-16)
(4.88776 9.41133 5.45452e-17)
(5.10183 9.62491 -9.74352e-17)
(5.31689 9.82671 8.07774e-17)
(5.52682 10.0182 6.78962e-17)
(5.73311 10.205 0)
(5.93662 10.3908 3.02831e-17)
(6.14017 10.5786 2.35851e-17)
(6.34617 10.7577 -2.21421e-17)
(6.5489 10.9183 -2.32633e-17)
(6.7803 11.1882 5.85182e-18)
(7.16755 11.7668 -1.9049e-17)
(7.62153 12.2268 -2.49454e-17)
(7.4627 11.3837 2.66874e-17)
(6.05777 8.73599 3.20814e-17)
(3.77927 5.35866 -2.1962e-17)
(1.70334 2.62475 3.37615e-17)
(0.343731 0.63532 1.13243e-16)
(-0.526959 -1.10809 1.77773e-17)
(-0.96613 -2.33652 -1.19429e-17)
(-1.12915 -2.65416 -7.65895e-17)
(-1.50541 -2.24919 0)
(-2.19743 -1.24626 -1.21424e-16)
(-3.26964 0.323576 -7.60152e-17)
(-4.75987 1.96884 -5.67573e-17)
(-6.24784 3.23651 -1.80354e-16)
(-7.46545 3.90932 6.1595e-16)
(-8.52656 3.95135 2.788e-16)
(-9.64555 3.56087 3.50603e-17)
(-10.7636 2.9779 -2.10368e-17)
(-11.5869 2.24753 0)
(-11.7523 1.24961 -1.81347e-15)
(-10.9018 -0.135038 0)
(-8.47168 -1.86258 0)
(-3.16262 -3.25186 2.70744e-15)
(0.588238 -2.70978 -7.34084e-17)
(3.96101 8.19439 -3.40473e-17)
(3.80752 7.92501 9.92894e-17)
(3.64625 7.5999 -2.22573e-19)
(3.47892 7.22428 1.07313e-16)
(3.32872 6.80687 -3.68034e-16)
(3.19931 6.34326 2.7273e-16)
(3.10154 5.83861 1.76733e-17)
(3.04639 5.31882 -3.38079e-16)
(3.03839 4.80144 -3.91352e-16)
(3.07711 4.29251 -4.57484e-16)
(3.16017 3.80036 -9.79278e-16)
(3.28872 3.33317 0)
(3.4626 2.89388 -5.03351e-16)
(3.67811 2.48506 -1.34094e-17)
(3.93154 2.10964 0)
(4.22021 1.76816 -4.49311e-16)
(4.53998 1.46203 -2.13999e-16)
(4.88683 1.19195 -2.04847e-16)
(5.25726 0.95822 7.3683e-16)
(5.64816 0.761051 6.72506e-16)
(6.0565 0.601005 -7.36414e-17)
(6.47946 0.478621 5.43839e-16)
(6.91412 0.394773 1.21553e-16)
(7.35618 0.350201 -5.41179e-17)
(7.79804 0.344812 3.29262e-16)
(8.23198 0.376229 1.9761e-17)
(8.65405 0.440096 0)
(9.06334 0.532497 0)
(9.4598 0.650139 -1.75374e-18)
(9.84535 0.789091 3.69768e-18)
(10.2243 0.947856 -8.03697e-17)
(10.6014 1.12497 -4.61616e-18)
(10.9867 1.32052 -1.94768e-16)
(11.3887 1.53946 -3.65746e-16)
(11.8437 1.79029 -2.02587e-17)
(12.3359 2.10489 -7.58686e-18)
(13.0718 2.5104 -6.96083e-15)
(13.6869 3.26458 4.01768e-15)
(15.5502 4.42604 -2.87066e-17)
(4.37842 8.2296 5.06063e-18)
(4.52799 8.46934 0)
(4.69886 8.71284 -6.47494e-17)
(4.88182 8.95759 0)
(5.06632 9.1829 1.04752e-16)
(5.25946 9.3992 -1.08718e-16)
(5.45522 9.60386 -9.19345e-17)
(5.64839 9.7988 -6.63317e-17)
(5.8394 9.98898 0)
(6.02862 10.1766 4.78481e-17)
(6.21794 10.3654 -1.82012e-17)
(6.41177 10.5585 3.08038e-17)
(6.6092 10.7358 8.38686e-18)
(6.80206 10.9046 5.07581e-18)
(7.05863 11.2573 1.35752e-17)
(7.50853 11.8902 2.4253e-17)
(7.84082 12.0197 -3.60353e-17)
(7.21751 10.4809 -4.37193e-17)
(5.32869 7.38892 0)
(3.0022 4.12984 2.5909e-17)
(1.18994 1.53923 -6.81876e-17)
(-0.037901 -0.579119 2.04434e-17)
(-0.819458 -2.09811 1.50705e-18)
(-1.26092 -2.53076 1.79335e-16)
(-1.9121 -2.06335 -1.61727e-17)
(-2.94145 -0.942486 2.86976e-17)
(-4.26149 0.721468 5.88075e-17)
(-5.6286 2.34383 5.62967e-17)
(-6.83056 3.53725 1.47342e-16)
(-7.80721 4.13484 -2.78649e-16)
(-8.73658 4.14205 -2.42765e-16)
(-9.7778 3.73861 -1.25225e-15)
(-10.8461 3.12 1.48536e-15)
(-11.6677 2.31648 -2.40046e-17)
(-11.8975 1.21361 1.73714e-15)
(-11.1882 -0.300654 -6.87306e-17)
(-8.96354 -2.16091 3.809e-17)
(-3.97661 -3.5586 -6.21956e-17)
(-0.193503 -2.874 1.33586e-14)
(4.24031 7.98682 2.03572e-17)
(4.10484 7.72877 -4.81461e-17)
(3.9622 7.41885 9.40479e-17)
(3.8138 7.06265 0)
(3.68059 6.66938 2.25421e-16)
(3.56516 6.23442 0)
(3.47706 5.76227 0)
(3.42613 5.27749 0)
(3.4159 4.79613 7.59652e-16)
(3.44561 4.32313 -4.21283e-16)
(3.51466 3.8654 4.53104e-16)
(3.62482 3.43049 0)
(3.77472 3.02069 0)
(3.96182 2.63675 -4.40881e-16)
(4.18376 2.28079 0)
(4.43928 1.95298 4.14669e-16)
(4.72582 1.6547 9.26243e-18)
(5.04071 1.38732 0)
(5.38131 1.15201 -5.20517e-16)
(5.74505 0.949769 -7.88332e-16)
(6.12908 0.78197 -5.59645e-16)
(6.53062 0.649792 -5.05383e-16)
(6.94673 0.554662 8.83293e-16)
(7.37306 0.497448 0)
(7.80211 0.478514 3.09387e-16)
(8.22623 0.496288 2.95074e-16)
(8.6412 0.547274 1.12857e-16)
(9.04557 0.62786 0)
(9.43889 0.73506 -8.09726e-18)
(9.82262 0.865128 -4.21239e-17)
(10.2006 1.01662 7.88367e-17)
(10.5772 1.1883 -4.40229e-18)
(10.962 1.38048 1.72489e-16)
(11.363 1.59844 -3.12417e-16)
(11.8147 1.85079 6.31864e-18)
(12.3021 2.17184 -1.72223e-17)
(13.0161 2.58678 6.4643e-15)
(13.6147 3.36205 -3.74249e-15)
(15.2947 4.52218 -7.73544e-15)
(4.62513 8.0399 4.18024e-18)
(4.75879 8.27363 -1.82005e-17)
(4.9122 8.51298 0)
(5.07701 8.75497 -1.19001e-16)
(5.24355 8.9789 0)
(5.4189 9.19617 0)
(5.59763 9.40245 4.09716e-18)
(5.77525 9.59892 -6.94049e-17)
(5.95174 9.79091 -1.14401e-16)
(6.12711 9.97991 -1.67335e-16)
(6.30297 10.1678 -6.43963e-17)
(6.48255 10.3605 -4.47123e-17)
(6.6699 10.5555 0)
(6.8582 10.7247 -1.45217e-17)
(7.04695 10.9229 1.56751e-18)
(7.36161 11.3961 0)
(7.84569 11.9788 2.04006e-17)
(7.88223 11.5356 3.9114e-17)
(6.67077 9.24509 0)
(4.44107 5.8897 7.29244e-17)
(2.24877 2.74143 -1.02055e-16)
(0.614849 0.169821 0)
(-0.536848 -1.69119 -9.89679e-18)
(-1.26238 -2.28657 -1.18241e-17)
(-2.13506 -1.7731 5.4224e-18)
(-3.39927 -0.563968 1.89087e-16)
(-4.81801 1.11328 -3.02235e-18)
(-6.07766 2.66909 -5.3537e-18)
(-7.10415 3.78679 -5.19079e-18)
(-7.95007 4.32957 7.68849e-18)
(-8.80712 4.31698 2.66046e-16)
(-9.79754 3.90531 1.13934e-15)
(-10.8337 3.25384 3.88713e-17)
(-11.6659 2.38072 -1.58374e-15)
(-11.9725 1.17588 -1.5109e-15)
(-11.4247 -0.466047 -2.77949e-15)
(-9.4379 -2.45563 -2.60187e-15)
(-4.81345 -3.87088 1.00386e-16)
(-1.05907 -3.03634 -1.34774e-14)
(4.5019 7.80476 -4.11393e-17)
(4.38139 7.55686 -1.34722e-16)
(4.25438 7.26012 2.58065e-16)
(4.12208 6.9207 0)
(4.00343 6.54813 4.08894e-16)
(3.90031 6.1377 0)
(3.82118 5.69335 -2.54174e-16)
(3.77478 5.23858 1.15464e-15)
(3.76359 4.78873 -1.0092e-15)
(3.78742 4.34674 0)
(3.84674 3.9193 7.72494e-16)
(3.94257 3.51399 7.64924e-16)
(4.07317 3.1315 0)
(4.23687 2.77151 -7.64581e-16)
(4.43213 2.4353 1.89278e-16)
(4.65881 2.12252 -1.85919e-16)
(4.91554 1.83433 1.83686e-16)
(5.20084 1.57232 3.33554e-16)
(5.51302 1.3381 -6.41055e-18)
(5.85014 1.13335 4.21276e-16)
(6.20981 0.960023 1.34524e-16)
(6.58948 0.819921 -1.21007e-16)
(6.98639 0.714849 -4.14098e-16)
(7.39625 0.646136 3.57988e-16)
(7.81165 0.614586 -2.74079e-16)
(8.22503 0.619387 -2.96742e-16)
(8.63196 0.657856 -1.06941e-16)
(9.03054 0.72681 -1.16482e-18)
(9.41996 0.823548 8.82051e-18)
(9.80121 0.944668 4.00618e-17)
(10.1777 1.08873 1.9975e-18)
(10.5533 1.25482 -4.18969e-18)
(10.9372 1.44346 -1.55099e-16)
(11.3367 1.66024 3.17662e-16)
(11.7845 1.914 -1.76604e-17)
(12.2664 2.24099 1.23604e-15)
(12.9571 2.66496 -3.05587e-15)
(13.5375 3.45638 0)
(15.0437 4.61293 7.46217e-15)
(4.85822 7.87215 8.99984e-18)
(4.97833 8.10014 0)
(5.11682 8.3353 0)
(5.2661 8.57432 2.19306e-16)
(5.4171 8.7963 -4.94926e-18)
(5.57671 9.01314 0)
(5.74049 9.22068 0)
(5.90414 9.41733 2.94494e-16)
(6.06757 9.60953 -5.84426e-18)
(6.23018 9.79864 -5.76196e-18)
(6.39349 9.98598 1.59596e-16)
(6.56 10.1751 1.63412e-17)
(6.73286 10.3713 -3.24328e-17)
(6.91552 10.5628 -5.53762e-18)
(7.09157 10.7241 0)
(7.29609 10.998 0)
(7.70174 11.5933 -4.93333e-17)
(8.1104 11.9016 -1.59645e-17)
(7.64047 10.655 1.62771e-17)
(5.85372 7.70379 -6.04665e-17)
(3.49639 4.2253 1.56107e-16)
(1.44715 1.16259 9.73757e-17)
(-0.104779 -1.08933 -7.00987e-17)
(-1.13291 -1.9292 -6.96049e-17)
(-2.18064 -1.40891 1.51059e-17)
(-3.58737 -0.133143 -1.43389e-16)
(-5.01888 1.497 -1.8681e-17)
(-6.20666 2.96579 4.59246e-18)
(-7.14165 4.00929 -3.59262e-18)
(-7.92849 4.50812 1.65513e-17)
(-8.75273 4.48238 1.30277e-17)
(-9.71404 4.0641 -5.54567e-16)
(-10.7319 3.38162 -1.99859e-18)
(-11.5836 2.44221 -1.49135e-17)
(-11.9755 1.13949 0)
(-11.6073 -0.626759 2.56394e-15)
(-9.89168 -2.74213 2.45649e-15)
(-5.67388 -4.1837 0)
(-2.00699 -3.18884 0)
(4.74776 7.64399 0)
(4.6399 7.40502 1.26048e-16)
(4.52629 7.11997 -4.00823e-16)
(4.40781 6.79518 -1.74758e-16)
(4.30179 6.44058 -3.81793e-16)
(4.2095 6.05145 0)
(4.13861 5.63121 0)
(4.09691 5.20234 -5.38335e-16)
(4.08565 4.78034 6.2095e-16)
(4.1057 4.36575 0)
(4.15845 3.96507 -3.38022e-16)
(4.24308 3.58652 -3.5767e-16)
(4.35816 3.22923 3.47088e-16)
(4.50253 2.89187 3.58281e-16)
(4.67532 2.57511 -6.75526e-16)
(4.87701 2.2781 0)
(5.10722 2.00156 -1.58259e-16)
(5.36541 1.74702 4.63921e-18)
(5.65082 1.51624 7.09048e-16)
(5.96226 1.31126 -1.39464e-16)
(6.29785 1.13451 1.32503e-16)
(6.6555 0.988263 -1.04405e-16)
(7.03276 0.874739 1.4606e-16)
(7.42551 0.79573 -7.16833e-16)
(7.82653 0.752556 -2.5605e-16)
(8.2283 0.745184 2.27642e-16)
(8.62628 0.771621 -1.39062e-17)
(9.01819 0.829224 0)
(9.4029 0.915601 -7.48736e-18)