/*--------------------------------*- C++ -*----------------------------------*\
  =========                 |
  \\      /  F ield         | OpenFOAM: The Open Source CFD Toolbox
   \\    /   O peration     | Website:  https://openfoam.org
    \\  /    A nd           | Version:  9
     \\/     M anipulation  |
\*---------------------------------------------------------------------------*/
FoamFile
{
    format      ascii;
    class       surfaceScalarField;
    location    "15";
    object      phi;
}
// * * * * * * * * * * * * * * * * * * * * * * * * * * * * * * * * * * * * * //

dimensions      [0 3 -1 0 0 0 0];

internalField   nonuniform List<scalar> 
167688
(
-0.0426067
0.0254784
0.0171283
0.0082982
-0.073589
0.0652908
0.0336147
0.0488889
-0.0825036
0.0375498
-0.0841281
0.0465783
0.0967834
-0.0870177
-0.0097657
-0.0731545
0.0132197
0.0599348
0.0423195
-0.0251177
-0.0172018
-0.0392682
0.076818
-0.116068
0.0392829
0.0767851
-0.0262791
-0.00378526
0.0300643
-0.0514528
0.059751
-0.0620035
0.035445
0.0265585
0.10967
-0.0839147
-0.0257552
-0.0469825
-0.0150209
-0.037989
0.0173131
0.0206759
0.0392102
0.0326154
-0.0718257
0.0219124
-0.00219054
-0.0197219
0.0220379
-0.026487
0.00444909
0.0306953
0.0383335
-0.0690287
0.105866
-0.0656463
-0.0402199
-0.0824206
-0.0208612
0.103282
0.046928
0.050647
-0.097575
0.0627642
-0.0320689
-0.0886107
0.0653896
0.0232212
0.0966589
-0.0158554
-0.0808036
-0.0760939
0.0285074
0.0475865
0.0125683
0.0107041
-0.0232724
0.0718634
-0.080195
0.00833152
-0.0911856
0.018031
-0.00164652
-0.0807741
0.0117403
0.0691954
-0.0809356
0.0620256
-0.0569029
-0.00512266
0.131607
-0.119081
-0.0125259
-0.0182406
0.0141391
0.00410145
-0.0660347
-0.0500333
-0.114877
0.0771436
0.0377334
0.0501727
0.0556935
0.00472625
-0.0145848
0.00985856
0.0248727
0.0396962
-0.0645689
-0.0571841
-0.0356524
0.0928365
0.0319574
-0.0884958
0.0565384
-0.0646425
0.0159434
0.0486991
-0.0724365
-0.0117687
0.0842051
0.0636446
-0.0300299
0.0421235
-0.0200856
0.0384017
-0.066789
0.0283874
-0.0123581
-0.00588247
-0.119814
0.00269954
0.117114
-0.0972121
0.0352604
0.0619517
-0.0038008
-0.0608417
0.0690291
-0.0276261
-0.0414029
-0.0279577
0.0241389
0.00381886
0.0889168
-0.0859048
-0.00301202
-0.0568392
0.0817119
0.00496148
-0.0672816
0.0623201
0.0232278
0.0190917
-0.0956323
0.0652249
0.0304073
0.106521
-0.0390719
-0.0674493
-0.0358886
0.00544927
0.0304393
0.0716606
-0.0332589
0.0087667
0.0327281
-0.0414948
-0.0477144
-0.0720996
0.115177
-0.0334636
-0.0817129
-0.00114357
0.11632
-0.00721979
-0.0295949
0.0368147
0.118321
-0.0687223
-0.0495985
0.0148571
-0.0101309
0.107388
-0.0864221
-0.0209657
-0.0628436
0.00680059
0.056043
-0.0829635
-0.0163423
0.0993058
0.0763276
0.0301936
-0.00666405
0.00369736
0.00296669
-0.0606767
-0.027934
-0.027407
0.0216936
0.00571341
-0.0191996
0.0448246
-0.0256251
-0.0100595
0.0132744
-0.00321491
0.0902783
-0.00567713
-0.0846012
-0.019379
0.0464559
-0.0226479
-0.023808
-0.0588745
0.00203537
0.0170586
0.0641279
-0.0811864
-0.002318
-0.00774148
0.0475869
0.0214422
-0.06324
-0.012854
0.108012
-0.0688016
0.0152438
-0.069082
0.0538383
0.0720615
-0.0520199
-0.0200415
0.0642139
-0.0592525
0.027362
0.00405354
-0.0314155
-0.0651644
0.0812196
-0.0160552
0.133395
-0.0584406
-0.0749547
-0.0476772
-0.0671998
0.036656
0.0354055
0.0284072
0.0683763
0.0282543
-0.0474539
0.118336
-0.0280574
0.0706992
-0.0480929
-0.0226063
-0.0286399
-0.00934908
0.0787699
-0.0670296
-0.0805653
-0.015067
0.0553325
0.0543373
0.110107
-0.105357
-0.00474976
-0.0901441
0.065966
0.0241781
0.0629808
-0.102556
0.0395748
-0.0131876
0.0415487
-0.0283611
-0.0199086
0.00483212
0.0150765
-0.0485404
0.0413206
-0.057108
0.0911524
-0.0340444
0.0759822
-0.113821
0.0378392
-0.0635378
0.0787815
-0.00112449
-0.00553956
-0.0487153
0.0440032
0.00471207
0.0427294
0.0304521
-0.0731814
-0.0732074
0.0466749
0.0265325
-0.0760774
0.0132338
-0.0581955
0.0202745
0.0379209
0.0421269
-0.00433154
-0.0377954
0.00763163
-0.0707392
0.0631076
-0.00139759
0.0287596
-0.119841
0.0844104
0.0354308
0.0511236
-0.0823039
0.0311802
-0.00805478
0.0799182
-0.0401627
0.0138836
0.0583727
-0.0824957
0.024123
-0.053912
0.0858694
-0.0202321
0.0832128
-0.00344569
-0.0194371
0.0228828
0.00422456
0.061572
-0.0657965
-0.0832808
0.0218242
0.0614566
0.0290289
-0.0422165
-0.0287633
0.087136
0.0309549
-0.0183866
0.0195611
0.0724719
-0.092033
0.0214561
-0.0045185
-0.0169376
-0.0149002
0.0545964
-0.102107
0.0449231
0.124466
-0.0871195
-0.0373469
0.102128
-0.0746921
-0.027436
-0.0445712
-0.0262918
0.0708631
0.0767641
-0.0160955
-0.0606686
0.0385997
0.0635284
-0.0748645
0.075358
-0.000493457
-0.063527
-0.00448987
0.0680168
-0.00891494
0.0137725
-0.00485757
0.0186696
-0.0757776
-0.0700969
0.0400479
0.0300489
0.0239287
0.00598041
-0.0299091
-0.112533
0.0354968
0.0770363
0.0741846
-0.0665529
-0.0846946
0.0863034
-0.00160881
-0.0201859
0.000277311
-0.0332609
0.0801889
-0.0367921
0.0516461
-0.0148539
0.00780371
0.0811131
-0.0859541
0.0413829
0.0710716
-0.0358338
-0.0352378
-0.0864491
0.0749971
0.011452
-0.0264267
-0.0467807
-0.0371931
0.00130447
0.036844
-0.00127184
-0.0355721
0.0928846
-0.0501553
-0.123217
0.0826822
0.040535
0.0075134
0.0441528
-0.0516662
-0.0717877
0.0367387
0.0350491
-0.0827906
0.0896521
-0.00686145
0.0827278
-0.0044679
-0.0782599
0.0523159
0.00497882
-0.0572947
0.0247621
0.0372635
-0.0846048
0.00655205
0.0780528
-0.056534
0.0605209
-0.00398686
0.0181021
0.0424688
-0.0605709
0.0650265
0.0060451
0.0869722
-0.0794588
-0.0195615
0.0106465
-0.0182797
-0.0441793
0.062459
-0.0427196
-0.0771216
-0.0906084
-0.0066037
0.11758
-0.0287365
-0.0888439
0.0654294
-0.0492437
-0.0161857
-0.00184578
-0.0742254
0.0760712
-0.0522923
0.0340126
0.0815377
0.0188691
-0.100407
-0.114348
0.0140993
0.100249
0.0722016
-0.102158
0.0299562
-0.0721638
0.0457814
0.0263824
-0.0461622
0.0338978
0.0122643
-0.067595
-0.0556222
-0.0040772
-0.0787134
-0.0704648
0.0069378
-0.0682018
0.0179328
0.0502689
0.00853096
0.0506758
-0.0592068
0.081807
0.0498001
-0.103305
0.0381403
-0.0198746
0.0709983
0.0987886
-0.0475293
-0.0512593
-0.136246
0.0949661
0.0412795
0.0557672
-0.0656769
0.0099097
-0.0109229
-0.0377924
0.10048
-0.0440728
-0.0564071
-0.0293594
-0.0570897
0.00140805
-0.0137115
0.0123035
-0.0179577
0.0423877
-0.02443
-0.0284328
0.0371995
0.0283658
-0.0789801
0.0506143
-0.0872109
-0.0222432
0.109454
-0.034906
-0.0232894
-0.020062
0.00452482
0.0155372
0.0206889
-0.0448443
0.0241554
0.034785
-0.0128726
0.0740755
0.014477
-0.0885525
-0.0988533
0.0738881
0.0249652
0.109262
0.00218932
-0.111451
-0.015888
0.0398167
-0.0160687
0.0774292
-0.00672996
-0.0196398
0.0403287
0.055625
-0.0375228
-0.0587475
-0.0037389
0.0624864
-0.125917
0.0407344
0.085183
0.0823362
-0.0294259
-0.0529103
-0.102675
0.0204786
0.0821964
0.0216443
-0.044063
0.0224186
0.0894707
0.0288501
-0.00904056
0.0458845
0.0669904
-0.0174243
-0.0495661
-0.108547
0.023942
0.0173471
0.0927597
-0.0192815
0.0475554
-0.028274
-0.0432641
0.070293
-0.0270289
0.0705998
-0.101805
0.0312055
-0.109958
0.0376855
0.0722729
-0.0680938
-0.0578236
-0.0411565
-0.0310073
-0.114825
0.048914
0.0659115
0.0295426
0.000838894
-0.0303815
-0.116742
0.0429331
0.0738089
-0.0828173
-0.0534284
-0.0328148
-5.33884e-05
0.000451843
-0.000398455
-0.00193101
-0.00467014
0.00660115
-0.0608516
-0.0209993
0.081851
-0.0394774
0.0494238
-0.0099464
0.109318
-0.0770379
-0.0322801
-0.116936
0.0560848
-0.0148487
-0.064457
0.0793057
0.0407093
-0.0111667
0.0641745
0.0104202
-0.0745947
0.0321194
-0.0640888
0.0319694
0.117963
-0.0587522
-0.0592104
0.0199433
0.0623929
0.0224133
0.0368283
-0.0592416
0.0991822
-0.0176445
0.0268839
-0.0203189
-0.00656494
0.0909161
-0.0368937
-0.0540224
0.000622893
0.0551443
-0.000498947
-0.0841956
0.0572431
-0.0487121
-0.0884063
0.00512553
0.038484
-0.0115234
-0.0269606
-0.0170494
0.0830154
0.0557375
0.0112529
0.0299995
-0.0294106
-0.000588951
0.0210176
0.0617103
-0.0158667
-0.0302955
-0.00312619
-0.013552
0.0166782
-0.0770055
0.0088037
0.00228225
-0.0894931
0.0430206
0.0745598
-0.00897715
-0.0334708
0.042448
0.0410013
0.0663865
0.0625022
-0.0400889
-0.0259594
-0.0176802
0.0436397
0.0667958
0.0336841
-0.0342182
0.00626045
0.0313317
0.0419272
-0.0732589
0.0302026
0.0228531
-0.0530558
0.0209978
0.0246855
-0.0456832
-0.000354573
0.000317172
3.74016e-05
-0.000325797
-2.87763e-05
0.0109341
0.0159498
-0.00254362
0.0785258
-0.0816233
0.0656874
0.015936
-0.0236414
-0.0146022
0.0382436
0.0548947
-0.0625235
0.00762882
0.101372
-0.0836777
-0.0176946
0.0333287
0.0321007
0.100961
-0.0264075
-0.0745536
0.119845
-0.029504
-0.0903411
0.0836901
-0.0794655
-0.0348821
0.025905
-0.0952121
0.0506184
0.0445937
0.00974908
0.0591672
-0.0689163
-0.045987
-0.0300672
0.0760542
0.10449
-0.0526806
-0.0518094
-0.0680547
-0.0467707
0.0574331
0.0439392
-0.0534507
0.0688246
-0.0153739
0.08091
-0.0799254
-0.00098453
0.0978522
-0.0569715
-0.0408807
0.10109
0.032305
0.105874
-0.0405529
-0.0653215
0.0814698
-0.00926819
0.0237785
-0.04306
-0.109991
0.102376
0.00761487
-0.0777637
0.0626599
0.0151038
-0.0534178
0.0729789
0.00137941
-0.115727
0.0541198
-0.0740704
0.0199506
0.0836166
-0.0522849
-0.000339815
-0.070983
0.0713229
-0.0216151
-0.0953142
0.0512064
0.0441078
-0.123242
0.0384788
0.0847631
-0.119662
0.0246548
0.0950076
-0.000819988
0.0436254
-0.0428054
0.0488845
-0.0272402
-0.02245
-0.0340734
0.0565234
-0.111065
-0.00567726
-0.0994152
0.0688978
0.0305174
0.0925993
0.00525286
-0.0790607
0.064212
0.0222683
-0.000812249
0.0107585
-0.0317309
0.0209724
0.100407
-0.0194969
0.0670327
-0.00285825
0.0514588
-0.0860741
0.0346153
-0.0202127
-0.0546518
-0.0815278
0.00909135
-0.0582257
-0.0233976
0.0783796
0.0460868
-0.0670071
0.023743
-0.0680506
-0.0133322
0.0813828
0.0547203
-0.0125933
0.0666174
-0.00176107
-0.0648563
0.09913
-0.043357
-0.055773
-0.0174142
-0.0518118
0.069226
-0.0222072
0.092807
0.0508401
0.0441472
-0.0949873
-0.0116548
-0.0836594
-0.0542069
0.0196213
0.0345857
-0.0101119
0.01152
-0.0257124
0.0222667
0.115346
-0.0186868
-0.107361
0.0838393
0.023522
-0.111731
0.0428057
0.0689255
-0.027869
0.0599884
-0.12012
0.00758643
0.0661354
-0.0534601
-0.0126753
-0.00793104
-0.048603
-0.0594925
0.0765511
0.00602121
0.0186713
-0.0246925
0.0101588
0.0268504
-0.0370092
-0.000214789
-0.0241268
0.0243416
0.0148696
0.0116788
-0.0265484
-0.0631302
-0.00166252
0.0647927
-0.071329
0.00819882
-0.0191058
-0.0078574
0.0269632
-0.083525
0.0816793
0.121309
-0.120095
-0.00121435
0.0165441
0.0230811
-0.0396252
-0.0350713
0.0119499
0.0231214
0.0531748
0.0681346
0.0807623
0.0183677
-0.00798322
0.00684872
0.00113449
0.030826
0.0871365
0.000455002
-0.00050839
-0.0313718
-0.0228352
-0.0144132
-0.0352001
0.0496133
0.0801444
0.02573
0.048738
-0.0806014
0.0318634
-0.027922
-0.00859654
0.0365185
0.00687385
-0.0347958
-0.0314902
-0.0126643
0.0441545
0.0179219
0.00670619
-0.0246281
-0.000508785
0.000378294
0.000130491
0.125533
-0.0419314
-0.0836015
0.0682928
0.05724
0.0758531
-0.0800859
0.00423282
-0.0303766
-0.00974108
0.0401176
0.105278
-0.0508
-0.0544784
-0.0577708
-0.0654711
0.0876765
-0.0969417
0.00926521
0.037262
-0.0207179
-0.0146422
0.0693568
-0.0547146
0.00720839
0.0469114
0.102833
-0.00618537
-0.0966478
0.0215487
0.0812844
-0.000311017
-0.0584365
-0.039773
0.0161316
-0.0296458
0.031486
-0.00184018
-0.0366255
0.0006137
0.0360118
0.00672521
-0.0748331
0.0681079
-0.0291942
0.0881788
-0.0589846
0.0248545
0.0263382
-0.0511927
-0.0280849
0.000677939
-0.0820188
-0.0131933
-0.0985293
0.0642796
0.0342497
-0.0473028
-0.0201615
0.0674643
-0.0173374
0.0140924
0.00324498
-0.0821582
0.052964
0.00427661
0.0257229
-0.00849951
-0.0281259
-0.00446722
0.00485961
-0.000392394
0.0522681
-0.0211646
-0.0311035
0.0187207
-0.0740089
0.0552882
-0.0257124
0.0240716
0.00164082
0.0708538
-0.0371207
-0.0337331
0.00576902
-0.0887325
0.105224
-0.0234902
-0.0817341
0.111497
-0.0928831
-0.0186135
0.0681612
-0.00154376
0.0650908
-0.0886877
0.0235969
-0.0410594
-0.0437688
0.0848282
0.091373
-0.0262822
-0.0696297
0.0522155
0.0484858
-0.0671376
0.0186519
0.0310977
0.0432186
-0.0743163
0.0504076
-0.0512275
-0.0935024
0.0848944
0.008608
0.0557504
-0.0667887
0.0110383
-0.0158828
0.0266413
0.0755529
-0.105093
0.02954
0.0611026
0.00364929
-0.0647519
0.0831372
-0.0805318
-0.00260544
0.0896131
0.011348
0.0622617
0.0127138
-0.0749755
0.00875248
-0.0427158
0.0339634
0.0991648
-0.0209222
-0.0782426
0.0310259
-0.053476
0.0284254
0.0424283
0.0527527
-0.0938122
-0.0588093
0.0273191
-0.0701749
0.00909222
0.0610827
0.0150096
0.00426926
-0.0192789
0.00595797
-0.0324015
0.0264435
0.0244183
-0.0183971
0.0637338
0.0240945
-0.0878283
-0.00254653
0.0686819
-0.00859197
0.00666096
-0.024659
-0.00196722
0.0266262
0.0607924
0.00146928
-0.0213761
0.0722162
0.0739054
-0.0428077
0.0145914
0.0267087
-0.0413
-0.0938527
0.0098738
0.0839789
-0.129093
0.116697
0.0123958
-0.0254968
0.00639099
0.00821706
-0.032876
-0.0972806
0.02923
0.0184267
-0.0657294
0.070251
0.00651306
-0.0378863
0.0890335
-0.0511473
0.0146583
0.0608946
-0.0139518
0.0688465
-0.0131412
0.0645999
0.00605831
-0.0024081
-0.00365021
0.0660288
-0.0823754
0.0163467
-0.049535
0.0779008
0.0293188
0.0201723
-0.0494911
-0.0732313
0.0728915
0.0333108
0.0719134
-0.0581052
-0.0119916
0.06467
-0.0549209
0.09372
-0.109955
0.0162346
-0.00802133
-0.031456
0.0585642
0.0269622
-0.0855264
0.0698885
0.0087008
-0.0785893
0.0508338
0.00143431
0.0430492
-0.0890362
0.0970766
-0.0389126
-0.058164
0.014521
0.0731555
0.0516507
0.0576115
-0.081084
0.0109091
-0.0680676
0.00574429
0.0623233
-0.0107449
0.0439379
-0.033193
-0.0271026
-0.0357387
0.0628413
0.127747
-0.0777488
-0.0499979
-0.035576
-0.067099
-0.0835235
0.0868437
-0.00332018
-0.032859
-0.0868035
0.0323817
-0.0175121
0.000753305
-0.00052677
-0.000226535
-0.0719906
0.0573484
0.0524603
-0.0060044
-0.0146313
-0.0488226
0.0634539
0.0329839
0.00550016
-0.0205549
-0.0254061
0.0459611
-0.100279
-0.0114519
0.0533559
0.0559622
0.0483498
0.0793969
0.0914415
-0.0331421
-0.0582994
0.0540162
-0.0577232
0.00370701
-0.0283585
-0.0494052
-0.0324052
0.0909694
0.0439452
-0.0351927
-0.0846849
-0.0034521
0.088137
-0.121397
0.0945469
0.0268499
-0.0861842
0.0125591
0.0736251
0.107537
-0.00304689
0.114262
-0.0610269
-0.0532347
-0.0359729
-0.0333275
0.0693003
0.0959269
0.0183347
0.00499712
-0.089682
-0.0031846
-0.0502661
0.124754
-0.0651712
-0.0595829
-0.0891558
-0.0128525
0.102008
0.134657
-0.0454247
-0.0892323
0.0246683
0.0150935
-0.0397618
0.113082
-0.107866
-0.00521593
0.103168
-0.0332794
0.0204843
-0.00987937
0.0234857
-0.0136064
0.0145755
0.037372
-0.0519475
0.0448122
0.0666844
-0.000912961
0.0107357
-0.00982273
-0.0703229
0.0806555
-0.0103326
0.0454024
-0.115725
0.105766
-0.0143243
0.0383865
-0.0237951
-0.0153753
-0.0353982
0.0507736
0.0904669
-0.0266303
-0.0638366
-0.0212467
-0.0395654
0.0608121
0.0613598
0.0584854
-0.0849353
0.0809019
0.00403334
-0.0282054
-0.0208761
0.0490815
-0.00106354
0.0275896
-0.0265261
-0.0930649
-0.0176746
0.11074
-0.0196456
-0.000416368
-0.091667
0.0081435
0.110517
-0.0792466
-0.0312706
-0.0943862
0.0564999
0.0168764
0.0589767
-0.00336453
0.019812
-0.0164475
-0.019765
0.0166389
-0.121328
0.0581559
0.0631718
0.0612872
-0.0281635
-0.0331237
-0.028523
0.0766002
-0.0480772
0.00693138
-0.0128842
0.00595286
-0.094685
0.0828722
0.0118128
0.121586
-0.0142994
-0.107286
0.109415
-0.0456817
0.0828879
0.0386978
-0.0055857
0.0125171
0.0389148
-0.0279598
-0.010955
-0.0687286
0.0191355
0.0495931
-0.0579489
-0.0631393
-0.00558927
0.0372395
-0.052051
0.0148116
0.0635099
-0.00775945
-0.0187327
-0.0594442
0.078177
0.0293847
0.00953002
-0.0837563
0.00327418
0.0804821
0.0384887
0.0346638
-0.0731524
0.0192366
-0.0480725
0.028836
-0.0586483
-0.0627486
-0.0365995
-0.0707618
0.0280708
0.0106072
-0.038678
0.0555963
0.092991
0.035521
-0.0295631
0.0156542
-0.00466173
-0.0109924
-0.0940468
0.102571
-0.00852461
0.0699502
-0.094837
0.0248868
-0.0629527
0.0269799
-0.007478
-0.000505222
0.0203294
-0.105265
-0.0785438
0.0767977
0.00174606
3.90969e-05
0.000278075
-0.0788942
0.0642629
-8.64168e-05
-0.00023938
0.0620171
-0.018939
-0.0430781
0.0318161
-0.042561
-0.0681563
-0.00162707
0.0697834
-0.0128647
-0.0251175
0.0379822
0.109567
-0.028569
-0.0809984
-0.0583548
0.0996127
-0.0412579
0.0728246
-0.00940967
-0.0634149
-0.0609658
-0.0071018
0.0969301
-0.0446142
-0.0308147
0.00510227
-0.0128027
-0.0806997
-0.0466148
-0.0824782
-0.0659213
0.0290947
0.0368266
-0.0197088
0.0825877
-0.0628789
-0.0137173
0.0618511
-0.0481338
-0.0138593
-0.0792056
-0.0442598
0.0488291
-0.00456936
-0.000488127
0.0377276
-0.082369
-0.00725718
0.0896262
-0.00122677
0.0555371
-0.0543103
0.0849758
-0.0121512
0.0271434
-0.0594695
0.0323261
-0.0143423
0.12486
0.0691303
-0.0419869
0.0887254
0.016553
0.0117993
0.071338
0.0749138
-0.0913429
0.0164291
0.0191467
-0.0705965
0.0514498
-0.0481541
0.0882457
-0.0400916
0.0583896
0.0403989
-0.0320753
-0.0465139
0.0785892
-0.0157899
-0.0380368
0.0538266
0.001268
0.092452
-0.002659
-0.0478187
0.0504777
0.0896426
0.0012735
-0.051062
0.0228567
0.0618055
0.0161296
-0.077935
0.0925048
-0.0223535
-0.0701513
0.0385219
-0.0347017
-0.00382021
-0.13916
0.0479558
0.0912042
0.00827985
-0.0574664
0.0491865
-0.0530007
-0.00508312
0.0580838
0.00962443
-0.0744306
0.0648061
-0.0874467
0.0377403
0.0497065
0.0139702
0.00726145
-0.0212317
-0.112631
0.0288746
0.0923489
0.0885757
-0.0392596
-0.0493161
0.0418977
-0.0576876
0.024483
-0.0431609
-0.0116182
0.0547791
-0.0928886
0.0712875
0.021601
-0.0408497
-0.0691414
-0.063063
0.0726874
-0.0161894
-0.0729664
-0.015372
0.0400404
0.10404
-0.0578545
-0.0461858
-0.0800284
0.0458156
0.0342128
-0.021539
0.070277
-0.0562718
0.0418587
-0.0070045
-0.0103329
4.88187e-05
0.00014655
-0.000195369
0.0902278
-0.0635871
-0.0266407
-0.00425402
-0.00220037
0.0064544
0.0757163
-0.016729
-0.0589873
-0.0973389
-0.0239887
0.113058
-0.0619292
-0.0511287
0.106184
-0.0304675
0.0989662
-0.0948426
-0.00412356
0.0584058
-0.0781145
-0.113635
0.0646038
0.0490307
0.0342604
0.0647058
-0.0908855
0.0759064
0.0149791
-0.0261126
-0.0524311
-0.0293475
0.0307796
-0.00143211
-0.0265837
0.0335761
-0.00699239
-0.0160276
0.0150195
0.00100816
-0.00083825
-0.040958
0.0417962
0.0162659
-0.000611777
-0.0440632
-0.0433836
9.71161e-05
0.000656189
-0.0542215
0.0910293
-0.0368078
0.0385801
-0.076245
0.0376649
-0.0451397
0.040528
0.00461174
-0.0381044
0.0766845
-0.0210006
0.0909508
-0.0734166
0.0323371
0.0410795
-0.0430722
0.0576446
-0.0145724
-0.0693332
0.0389566
0.0654785
-0.0134611
-0.0520173
0.0395803
0.0178953
-0.0574756
-0.0411224
0.0402842
0.116733
-0.0175682
0.0437537
-0.0143923
-0.0293615
0.0697371
0.00675745
-0.0764946
-0.0568078
-0.0277355
0.0845433
-0.0590125
0.0158516
0.0289479
-0.0418126
-0.0687501
-0.07041
0.0231649
-0.0713191
-0.0693074
0.0552554
0.0140521
-0.024333
0.0435696
0.0910438
-0.0551128
-0.0359309
-0.000103243
0.0211311
-0.0210278
0.0957511
-0.0458461
-0.049905
0.109684
-0.0406018
-0.0690818
0.0390104
0.0288238
-0.0678343
-0.0222269
-0.0229128
0.0102382
0.000783797
-0.011022
0.0921967
0.0209877
0.0686696
-0.0896573
0.00479416
-0.0590156
-0.0223416
0.0751571
-0.0528155
-0.0200743
0.041072
0.0987558
-0.021363
-0.0773928
-0.0584108
0.0404531
-0.066507
-0.00339001
0.069897
0.0595593
-0.0916346
-0.0430763
0.0387785
0.00429779
-0.0370882
0.0516637
-0.0263719
-0.0600537
0.0864257
-0.0906087
0.072274
0.0183348
0.0449013
0.0296197
-0.074521
0.0457495
0.00815592
-0.0539054
-0.034711
0.00812738
0.0343437
0.00941002
0.0107738
-0.0206532
-0.0591319
0.0310936
0.0280383
0.0776627
-0.0051918
-0.0724709
0.0726517
-0.0424491
-0.0619536
0.0702335
-0.0762036
0.121992
-0.0457888
0.000725626
-0.0449854
0.0107641
-0.0869677
-0.0926283
0.0358205
0.0457635
-0.00500475
-0.0407588
-0.0908855
-0.0854746
0.0667418
-0.000555874
-0.00121107
0.00176695
0.0547883
-0.0811603
0.0495898
-0.020271
-0.0120465
-0.046412
0.0584584
0.0509263
-0.0732679
-0.0668071
0.0579912
0.00881588
-0.0600297
0.0667549
-0.0431335
0.0921049
-0.0489714
-0.0452842
-0.0138478
0.0839082
-0.0651874
-0.0541907
-0.0211166
0.0753074
0.0459833
0.0572512
-0.103235
-0.0872419
0.0501831
0.0370589
0.0273806
0.0431637
-0.0705442
-0.037704
-0.0563428
0.0516046
0.00497219
-0.0565768
0.0331698
0.0799118
0.0816657
-0.0420854
-0.0343407
-0.0315807
0.00539291
0.0139987
-0.0193916
0.00504071
-0.0861929
0.0811522
-0.0522448
0.00303557
0.0492092
0.0870947
-0.0889912
0.00189649
0.00337641
0.0295074
-0.0328838
0.0157494
-0.019114
0.0341704
-0.0841872
0.0500169
0.0517183
0.0256928
-0.0774111
-0.0265768
-0.0870577
-0.00366799
0.0176382
0.0639702
-0.0821579
0.0181877
-0.0877823
-0.00150058
0.0892829
0.0459159
0.0416698
-0.0875858
-0.0501863
0.0502605
-7.41699e-05
-0.0126801
-0.0735041
0.0460109
-0.042173
-0.0038379
0.0564508
-0.0107013
0.0270218
-0.0199578
-0.00706399
0.081796
-0.0206934
0.017813
-0.0637758
0.0459628
-0.0683567
0.015356
0.0982752
-0.0347992
-0.063476
-0.0256739
0.0646844
-0.0567398
0.10301
-0.0462707
0.100564
0.00678014
-0.107344
-0.0654964
-0.00773188
0.0732282
0.010156
-0.0794635
0.0989247
-0.0691497
-0.029775
-0.0387091
0.0565446
-0.0178355
0.0985319
-0.0468137
-0.0571284
0.0781161
0.0364117
-0.0366265
0.0158811
-0.0819069
0.0660258
-0.0897567
0.0242603
0.0190696
-0.0201332
0.0707621
-0.00528365
0.065537
-0.0328652
-0.0326718
-0.0279339
0.0160247
0.0119092
0.00944384
-0.0103568
-0.0280276
-0.0543414
0.0916711
-0.0679291
-0.023742
0.011652
-0.0729036
0.0612516
-0.113099
0.0314209
0.0816781
0.0190456
0.0815185
0.0793788
-0.0154086
0.0200978
0.0516762
-0.071774
-0.127812
0.0585827
0.0692298
-0.0952609
-0.0325516
-0.0428882
0.070178
-0.0272898
0.00889407
-0.00886521
-2.88591e-05
-0.0702006
-0.0176018
0.0878024
-0.0047377
-0.0668879
0.0716256
0.0375901
-0.0274313
0.0027994
-0.0389291
0.0361297
0.0393346
-0.0394378
-0.11912
0.00602054
0.0892519
-0.0701052
0.0123002
-0.021696
0.00939586
0.083831
-0.00529559
-0.0785354
0.0381467
-0.0876563
0.0495096
-0.0330512
0.0802484
-0.0471972
-0.121608
0.0507259
0.0708822
0.0364131
-0.0336137
0.0400314
-0.110232
0.0345212
-0.0646138
0.0300926
-0.0999169
0.061779
0.0381378
0.0522993
-0.0432995
-0.00899981
0.101516
-0.0499164
-0.0515994
0.00249604
-0.0698234
0.0673273
-0.0276866
-0.00738471
0.0870516
0.0117043
0.029485
-0.0626726
0.0331876
0.0834618
-0.0453151
-0.028917
-0.0526858
0.0816029
-0.0387308
0.0059558
0.032775
-0.0679104
-0.0536977
0.0724444
0.0185994
0.00608897
0.00122931
-0.00731828
-0.0758609
0.0875129
-0.0612387
0.0220653
0.0391734
-0.0706195
0.0446601
0.00532346
0.0575783
-0.0629017
-0.0390981
-0.0444781
0.0835762
-0.0351199
0.0397978
-0.00467798
0.00717126
0.0799234
-0.0518418
-0.0281866
-0.0599747
0.0394198
-0.0409882
-0.0536968
-0.0648994
0.00602493
0.0588744
0.0129309
0.0772969
0.035738
0.0567668
0.0275064
-0.0819524
0.054446
0.0592348
0.042281
-0.0160729
-0.0449369
0.0610097
-0.0800144
0.0311228
0.0488916
-0.0963153
0.0192778
0.0770374
-0.0940621
0.0190938
0.0749682
-0.0389954
-0.0502011
0.0891966
-0.00686552
0.00239831
-0.00703556
-0.0297566
-0.0772643
0.0552335
0.0220307
-0.00418482
0.0557895
0.111439
-0.101818
-0.00962112
-0.0468836
0.07439
0.0349086
-0.0169867
-0.00556777
0.0323499
-0.0267821
-0.0285253
0.0927445
-0.0642193
0.00192312
-0.002479
0.0608326
-0.0695774
0.00874478
-0.107312
0.0721314
0.0351802
-0.0732549
-0.0234719
0.0967268
0.0101928
-0.0489019
-0.0693679
-0.00789635
0.0437014
-0.0722266
-0.000134484
-0.0003743
-0.00732277
0.0407461
-0.0334234
0.0909748
-0.0635942
-0.0599683
-0.0399486
0.0692822
-0.0920708
0.0227885
0.0138837
-0.0187397
0.00485601
-0.0484592
-0.0387828
-0.0174332
-0.027303
0.0447362
0.0478943
-0.0931634
0.0452691
-0.029892
0.0644132
-0.0724164
0.0777398
-0.0242137
-0.00372021
-0.0394292
0.0873235
-0.0752435
0.0103441
0.0899003
-0.0805232
-0.0093771
-0.0472025
0.0313568
0.0158457
-0.0788039
0.094685
-0.00802405
0.0637795
-0.0557554
0.0919277
0.0177559
0.0157818
-0.00554368
-0.0414799
0.0776411
-0.0361612
0.096386
-0.0321346
-0.0642513
0.0475967
0.00470263
0.0129011
0.049116
-0.0436495
-0.0636621
0.0200851
-0.09334
-0.0504184
0.0329852
0.033942
0.105912
-0.0101608
-0.00919461
0.0782012
-0.0690066
0.0704103
-0.044298
-0.0261124
0.000689531
-0.0437618
0.00494946
0.0112498
-0.0161993
-0.00145525
0.016316
-0.0148608
-0.066725
0.064066
0.0516768
-0.0597009
-0.0494363
-0.0494171
0.00769626
0.0210884
-0.0287847
0.0566156
-0.0271306
-0.0839751
0.0696284
0.0143467
-0.101238
0.0681866
-0.0196568
-0.055316
0.0749728
-0.0572785
-0.0421367
-0.0905016
0.00437682
0.0861248
0.0892432
0.00714282
-0.051878
0.0569187
-0.0372977
0.00599492
0.0313028
-0.114007
0.0658236
0.0481835
0.113328
-0.0380324
-0.0752954
-0.0702657
0.018021
0.0760519
-0.0760519
0.0592814
-0.0881985
0.0331185
-0.0181089
-0.0481765
0.0351424
0.0130341
-0.0785952
0.0773685
0.00665469
-0.0731616
-0.00791809
0.0137859
-0.00586779
-0.0883173
0.0670705
0.00513801
0.000920297
0.0764983
-0.0121403
-0.064358
0.088321
0.00995419
0.0687598
-0.0161985
-0.0525613
-0.0938578
0.0371181
-0.0819651
0.0324686
0.0494965
-0.0190561
-0.0291204
0.0683578
-0.109866
0.0415081
-0.00801794
-0.056648
0.0646659
0.0852236
-0.0754178
-0.00980583
0.0994036
-0.0942412
-0.00516236
-0.0260055
-0.00298723
0.0289928
0.0627274
-0.0728927
0.0101654
0.0134529
-0.056529
0.0430761
0.0482827
0.065045
-2.42648e-06
0.00889649
-0.0258753
0.00254936
0.0233259
0.0821984
-0.0362151
-0.0846981
0.0867046
-0.00200644
0.0648488
-0.110809
0.0459605
0.0747703
0.0314588
-0.106229
0.00682402
0.0745594
-0.0813834
-0.103314
0.0836573
0.0895106
-0.0312649
-0.0582457
0.0912373
-0.0232192
-0.0680181
-0.062298
-0.0265548
0.0888528
0.0325599
0.0591982
-0.0917581
-0.00653258
-0.0682654
0.074798
0.0863031
0.00213666
-0.0884398
0.127982
-0.0491856
-0.0787963
-0.0605621
0.0994915
-0.0389294
-0.128255
0.0733731
0.0548819
-0.101365
0.0262847
0.0750798
0.0787864
-0.0763019
-0.00248445
-0.0676622
0.0629245
0.0207361
-0.0759322
0.0551961
-0.00670476
0.0750625
-0.000752863
-0.0253971
0.02615
-0.0330325
0.107803
0.0390494
0.035556
-0.0746054
-0.085199
-0.0156644
0.100863
0.0418628
0.0194244
0.0835049
-0.0646853
-0.0188196
0.13063
-0.0264622
-0.104168
-0.0670281
0.032937
0.034091
0.0438109
-0.0476071
0.00379615
0.103077
-0.0338132
-0.0692636
-0.0302349
0.099461
-0.0692261
-0.0325249
-0.0498749
0.0823998
0.076897
-0.0311156
0.0170789
0.0107913
-0.0278702
0.0180344
0.00234823
-0.0203827
0.047546
-0.000871117
-0.0862647
0.0175143
0.0687504
0.0664104
-0.0936715
0.027261
0.0437811
0.00116024
-0.0449414
-0.0261255
0.0436246
-0.0174991
0.0917693
0.00715544
0.0764277
-0.0422574
0.105387
-0.0545562
-0.0508312
-0.0145193
-0.0260408
0.0405601
0.11178
-0.0562347
-0.0555457
0.0117439
0.0674728
-0.0792167
0.0370642
0.0281558
-0.06522
-0.119787
0.0507548
0.0690324
0.0606658
0.0286236
-0.0892894
-0.0883779
0.03511
0.0532679
-0.00393904
0.00393904
-0.00983059
0.112907
0.000743754
-0.000623806
-0.000119948
0.0289103
0.0554258
-0.084336
0.0601846
-0.0316205
-0.0285641
-0.0877391
0.034206
0.0535331
-0.0531702
-0.0464042
0.0995744
-0.0527395
0.053156
-0.000416557
-0.00861994
-0.0599831
0.068603
0.0143065
0.0655187
-0.0798253
-0.0500703
0.062073
-0.0120027
0.00497364
0.0231625
-0.0281361
-0.0529232
0.0896664
-0.0367432
0.00894289
-0.0340606
-0.111703
0.0493623
0.0623409
-0.00378122
0.0769144
-0.0731331
0.0997961
0.000177066
-0.0999732
-0.026581
0.0261567
0.000424302
0.0183653
0.0459256
-0.064291
0.0492962
-0.0573141
-0.0204804
0.0897627
0.0312652
-0.0537632
0.0224981
-0.0514924
-0.0155357
-0.0292098
-0.0515763
0.080786
0.10379
-0.0842373
-0.0195531
0.0266292
-0.0442766
0.0176474
0.0585806
0.0412156
0.0391027
0.0476106
-0.0867132
-0.103953
0.028913
0.07504
-0.0499195
-0.0528687
0.102788
-0.0223047
0.0637349
-0.0414301
-0.000910516
0.053239
-0.0523285
0.0918242
-0.0485481
-0.0432761
0.0232002
-0.0734009
0.0502007
0.107214
-0.0513758
-0.0558386
0.0791276
-0.0164003
0.0798159
-0.0305141
-0.0493018
-0.107399
0.0437359
0.0636631
0.0493921
-0.099519
0.050127
-0.0196602
0.00312306
0.0165371
0.0812939
-0.00479565
-0.0203108
-0.0292407
0.0495516
0.0762599
-0.09935
0.0230901
0.0577355
0.0227015
-0.080437
-0.0122748
0.0310117
-0.018737
0.0114858
-0.0520243
0.0405385
-0.132939
0.0765324
0.0564065
0.068835
-0.0900663
0.0212313
0.0658183
-0.0264085
-0.0394098
0.0486093
-0.0188147
-0.0297945
-0.0574375
0.00464228
0.0527952
-0.0910989
0.0772296
0.0138693
-0.102299
0.0378416
-0.0830842
0.0508013
0.0322829
-0.0722906
0.077697
-0.00540642
0.0204175
0.00708472
-0.0275023
-0.00130168
0.0473846
-0.0460829
0.126267
-0.0720595
-0.0542072
0.0672057
-0.0545725
-0.0126332
-0.0298583
-0.0346149
0.0644731
-0.00686698
0.0955361
-0.0886691
-0.0696895
0.0324723
0.0372172
-0.0255824
-0.0437978
0.0693802
-0.0779637
-0.0178449
0.0958086
-0.0348419
0.00519609
0.0761933
-0.0974474
0.0212541
0.0914897
-0.0643676
-0.027122
-0.0796504
0.0856826
-0.00603221
-0.125651
0.0649619
0.0606894
0.0133585
-0.0133956
3.70516e-05
0.0311461
-0.025666
-0.00548008
0.0543456
-0.0715107
0.0171652
0.0923612
-0.0747177
-0.0176435
-0.0102914
-0.0543177
0.0646091
0.0686175
0.0313825
0.0310431
0.00381052
-0.0348536
0.0221939
0.0618787
-0.0840726
0.0380557
-0.0328346
-0.00522108
0.040732
0.00160907
-0.0423411
0.0825658
0.0246486
0.105
-0.112299
0.00729846
-0.0712704
-0.000223893
0.0714943
0.110502
-0.0115884
-0.0989132
-0.047024
0.00943314
0.0375908
0.0124753
0.092525
0.0574385
0.000939059
-0.0583775
0.100278
0.00730953
-0.107588
0.0793899
0.0119823
-0.0913722
0.0473361
0.0248893
-0.0722254
0.0421607
0.0256293
-0.0677899
0.00359875
0.0966796
0.087312
-0.00379819
-0.0835138
0.100285
0.0102163
-0.0724705
0.029883
0.0425875
0.0415679
-0.0461266
0.00455877
-0.0378572
0.0346307
0.00322653
0.0653397
-0.0372116
-0.0281281
-0.00882703
-0.00165127
0.0104783
0.0449353
0.0206018
-0.0594473
0.0416264
0.0178209
-0.0334287
0.0681117
-0.034683
0.0238654
0.0226528
-0.0465181
-0.104147
0.104269
-0.000121994
-0.0524013
0.0193181
0.0330832
-0.0158053
-0.062611
0.0784163
0.0377087
-0.0634741
0.0257653
0.0399296
-0.035668
-0.00426153
0.0984885
-0.105506
0.00701781
0.0228274
-0.0241722
0.00134478
-0.0158256
-0.0600362
0.0758618
0.0374541
-0.0810199
0.0435657
0.0480957
-0.0199078
-0.0281879
0.0306383
-0.0467112
0.0568345
-0.0886161
0.0317816
0.113523
-0.0165307
-0.0969922
-0.112455
0.0127763
0.0373436
0.0740955
-0.065897
0.00114026
0.0647568
0.0213781
-0.0696535