/*--------------------------------*- C++ -*----------------------------------*\
  =========                 |
  \\      /  F ield         | OpenFOAM: The Open Source CFD Toolbox
   \\    /   O peration     | Website:  https://openfoam.org
    \\  /    A nd           | Version:  9
     \\/     M anipulation  |
\*---------------------------------------------------------------------------*/
FoamFile
{
    format      ascii;
    class       volVectorField;
    location    "15";
    object      U;
}
// * * * * * * * * * * * * * * * * * * * * * * * * * * * * * * * * * * * * * //

dimensions      [0 1 -1 0 0 0 0];

internalField   nonuniform List<vector> 
112055
(
(0.483486 0.0129146 0)
(0.502873 -0.0033133 0)
(0.513549 -0.0107354 -9.06027e-21)
(0.525481 -0.0145228 2.31818e-21)
(0.498119 -0.0149591 1.91404e-21)
(0.49983 0.00388174 0)
(0.48443 0.0122798 -6.16181e-20)
(0.525314 -0.0142647 0)
(0.480354 -0.000339923 -4.52505e-21)
(0.483245 -0.00246528 3.35015e-21)
(0.502862 -0.00336883 1.46773e-20)
(0.485805 0.0157102 -4.12102e-20)
(0.484217 -0.000534999 2.08509e-21)
(0.485806 0.015377 3.93685e-20)
(0.466604 -0.00581597 -2.51961e-20)
(0.499965 0.0033567 1.37065e-23)
(0.485539 -0.0122076 8.73866e-20)
(0.478695 -0.0436257 -2.19254e-21)
(0.503645 -0.00337897 0)
(0.50795 -0.00412754 -3.464e-21)
(0.501493 -0.00273554 -7.69511e-23)
(0.503743 -0.00180283 0)
(0.503672 -0.00336064 -8.24988e-21)
(0.513397 0.000275363 -8.5928e-22)
(0.505544 0.000295582 0)
(0.512687 -0.0147671 -2.07704e-21)
(0.43898 0.0242833 -1.9469e-20)
(0.500469 0.00158931 0)
(0.499874 0.00383258 0)
(0.501441 -0.00276614 7.85324e-23)
(0.499992 -1.99576e-05 -4.03081e-20)
(0.546903 0.000575964 0)
(0.499455 -0.00394393 0)
(0.178527 0.0527628 -3.6805e-20)
(0.480541 -0.000323105 4.06021e-21)
(0.500155 -0.00283281 -1.36158e-22)
(0.507842 -0.00419086 0)
(0.366549 0.120471 1.61659e-20)
(0.53427 0.00167525 0)
(0.499513 0.00052218 1.90331e-23)
(0.496132 -0.00238429 6.79768e-22)
(0.532256 0.0012797 9.38977e-21)
(0.50365 0.00244939 7.5292e-22)
(0.513213 -0.0106662 1.5188e-20)
(0.477698 -0.0439935 0)
(0.513865 0.00312376 0)
(0.187221 0.0512062 0)
(0.504461 -4.72803e-05 0)
(0.506183 -0.00381467 2.29395e-21)
(0.531906 0.00102323 1.91686e-21)
(0.525106 -0.0139717 6.6219e-21)
(0.558712 0.0997717 0)
(0.502413 -0.00226514 1.71512e-22)
(0.533521 0.00197348 2.53269e-20)
(0.501427 -0.00533628 7.90589e-21)
(0.484226 0.0127037 3.02116e-20)
(0.504058 0.000214469 2.85029e-24)
(0.504389 0.000742671 0)
(0.547046 0.0558657 0)
(0.513164 0.00316473 4.08736e-22)
(0.489538 -0.00726226 2.14708e-20)
(0.504328 -0.000167771 7.37448e-22)
(0.501438 -0.00131025 2.86147e-23)
(0.501332 -0.00129115 -3.06039e-23)
(0.495039 -0.00108896 0)
(0.487231 -0.000209291 -5.27867e-21)
(0.360677 0.121488 0)
(0.499909 -8.66532e-05 0)
(0.510113 0.00489243 6.99555e-22)
(0.507311 -5.36525e-05 -1.24327e-21)
(0.5046 0.000845157 -1.11822e-21)
(-0.115919 -0.00456907 1.6508e-22)
(0.513256 0.000244684 0)
(0.447042 0.00614718 7.14194e-20)
(0.585557 0.0586724 -1.02577e-19)
(0.271492 -0.215701 -1.03974e-20)
(0.502293 0.00055298 -2.53183e-21)
(0.483688 0.0126423 -3.19194e-20)
(0.550215 0.0304696 -2.5532e-20)
(0.532983 0.00180643 -3.32786e-20)
(0.501047 -0.000385522 2.20261e-22)
(0.232866 -0.200229 -1.0909e-20)
(0.524984 -0.0139645 0)
(0.512669 -0.0148813 -1.82171e-21)
(0.500012 0.00333067 1.81163e-23)
(0.502081 0.000467213 5.51766e-21)
(0.530431 -0.0213641 -1.72991e-20)
(0.500991 -0.00524326 8.18647e-21)
(0.259699 -0.00213386 -4.26478e-20)
(0.500986 -0.0053125 0)
(0.501875 -0.00243599 -5.37165e-24)
(0.500139 -0.00290454 1.40416e-22)
(0.530944 -0.0211884 0)
(0.498654 -0.0149354 -3.64452e-21)
(0.585497 0.0564866 0)
(0.502364 0.000619894 4.06892e-21)
(0.525606 0.0269125 -3.13553e-20)
(0.4672 -0.00577392 4.28208e-20)
(0.499991 -2.49732e-05 1.84916e-20)
(0.504135 0.00016153 0)
(0.48426 -0.000466534 1.91131e-21)
(0.498641 -0.00152797 3.82796e-25)
(0.501898 0.00296529 1.54137e-22)
(0.50215 -0.00446899 -2.83208e-20)
(0.602252 -0.0443611 0)
(0.392725 -0.0111654 -3.47914e-20)
(0.495065 -0.00118231 0)
(0.498434 0.0002822 0)
(0.496155 -3.35637e-05 -4.48939e-23)
(0.502078 0.000472885 0)
(-0.117726 -0.00463779 8.2235e-20)
(0.540982 -0.0697234 -1.13261e-20)
(0.492689 0.00170568 0)
(0.504854 0.0149733 1.23696e-20)
(0.51003 0.00481511 0)
(0.478178 0.00713782 5.99717e-20)
(0.494753 0.0155047 0)
(0.50005 0.00386096 0)
(0.266082 0.00310264 5.36805e-20)
(0.487337 -0.00129531 -2.61107e-21)
(0.500529 -0.00230034 8.01022e-21)
(0.500474 0.00162424 0)
(0.483287 -0.00228622 0)
(0.50129 0.000338691 -4.3892e-23)
(0.496062 -0.00248343 -1.29252e-21)
(0.502241 -0.00446313 9.16226e-21)
(0.545933 0.0255341 -7.25496e-20)
(0.502737 0.00170148 -1.33107e-22)
(0.507155 0.00547898 -3.8973e-21)
(0.600782 -0.0431165 0)
(0.501328 0.000301205 4.28126e-24)
(0.439596 0.025524 -7.0135e-20)
(0.499694 0.000417457 -5.04162e-23)
(0.411877 0.0185155 8.28366e-20)
(0.534905 0.00179793 1.02558e-20)
(0.499985 0.000373273 0)
(0.502254 0.00221101 8.4246e-23)
(0.507058 -0.00157988 0)
(0.514098 0.0092756 3.23914e-21)
(0.458032 0.0111034 4.71412e-21)
(0.507144 -0.00160459 0)
(0.464369 0.00975008 0)
(0.520062 0.0281345 -2.56962e-21)
(0.463908 -0.223151 0)
(0.498653 0.000267458 -4.99286e-24)
(0.522381 0.00878554 3.09036e-21)
(0.482173 -0.0324333 7.56444e-21)
(0.498 -8.75015e-05 0)
(0.499855 0.00388341 1.90865e-22)
(0.504 -0.000584423 0)
(0.405303 -0.0126746 0)
(0.503484 -0.00195321 0)
(0.487157 0.00203012 0)
(0.502143 -0.00242402 -3.83482e-24)
(0.513639 0.00909552 0)
(0.502255 -0.00718322 2.61422e-20)
(0.49859 2.96723e-05 -1.41233e-20)
(0.50469 0.0147568 0)
(0.545493 0.0556834 -1.28069e-20)
(0.527564 0.027379 1.32433e-20)
(0.492252 0.00160442 2.79896e-23)
(0.499172 -0.000421666 1.27732e-24)
(0.504712 0.00216417 -5.65119e-22)
(0.507434 -0.00431082 3.36693e-21)
(0.490744 -0.000827591 -9.86098e-22)
(0.507008 -0.00171666 2.1206e-21)
(0.49788 0.00312701 -4.57079e-21)
(0.547251 -0.000100565 9.91065e-22)
(0.499314 -0.0018779 1.34823e-21)
(0.494905 0.00254728 0)
(0.499241 -0.00735325 -5.3337e-20)
(0.502329 -0.00716518 1.47276e-20)
(0.504482 0.00219844 1.95437e-21)
(0.463928 -0.216333 1.28456e-21)
(0.534887 -0.0227402 -8.08394e-21)
(0.48734 -0.00127359 3.91113e-21)
(0.506304 -0.00390222 -9.55389e-22)
(0.504293 -0.00651921 6.24495e-21)
(0.524684 0.0038423 1.81624e-20)
(0.505233 -0.00153307 1.14502e-21)
(0.534875 -0.0221275 3.94836e-20)
(0.50226 0.00193219 2.05859e-23)
(0.505213 -0.00140002 -4.20833e-22)
(0.49994 -3.98312e-05 -5.9169e-20)
(0.539931 0.000353561 -4.0499e-20)
(0.491645 -0.0453962 2.44155e-20)
(0.499168 -0.000420685 -2.32722e-23)
(0.490807 -0.000930145 1.1572e-21)
(0.51991 0.0289501 1.55137e-21)
(0.513196 0.00179624 4.66517e-22)
(0.509037 -0.000480523 0)
(0.499449 -0.00394493 -5.39629e-22)
(0.500684 -0.00525467 -3.106e-21)
(0.50053 -0.00237119 1.45995e-20)
(0.511115 0.00610695 -4.62133e-21)
(0.500116 -0.000305153 -2.09147e-24)
(0.52937 0.0210787 0)
(0.543644 -0.0686535 -1.71246e-20)
(0.509692 -0.0047179 3.16418e-22)
(0.49865 4.00675e-05 4.33936e-20)
(0.386675 -0.00267907 -2.69611e-20)
(0.492522 0.00246242 3.37188e-20)
(0.489328 -0.00701791 4.42902e-20)
(0.498875 0.000742234 0)
(0.502537 0.00112217 2.46926e-23)
(0.478591 0.00693768 -5.10992e-20)
(0.3707 -0.0758677 0)
(0.496211 0.0130452 2.58123e-20)
(0.505081 -0.0117511 -9.03284e-20)
(0.50203 0.00275985 0)
(0.509157 0.00146685 2.43309e-21)
(0.490762 -0.000594873 0)
(0.48297 -0.0326243 -3.05698e-20)
(0.501852 0.00284367 -2.20009e-24)
(0.525447 0.0266419 1.76013e-20)
(0.496005 0.0131529 1.53181e-21)
(0.499087 -0.00737156 3.24876e-20)
(0.528474 -0.00864993 0)
(0.48475 -0.000365586 1.09429e-21)
(0.525965 -0.0146702 0)
(0.501025 0.000495213 2.08186e-24)
(0.561378 0.00585017 0)
(0.487055 -9.21729e-05 4.68788e-21)
(0.527982 0.0269467 -1.59178e-20)
(0.582578 0.0264389 1.3604e-19)
(0.49937 -0.00188093 -9.36722e-22)
(0.498743 -0.00140718 -5.78689e-23)
(0.497966 0.0145357 -2.04471e-20)
(0.505851 -0.00353803 -5.62468e-21)
(0.498172 0.0040452 -6.89556e-24)
(0.500168 -0.00272585 -1.55493e-22)
(0.484757 -0.000362068 -1.0364e-21)
(0.539838 -3.01871e-05 -2.79005e-20)
(0.501063 0.000808427 -1.21229e-20)
(0.574997 -0.0905672 0)
(0.50631 0.00024464 8.17335e-22)
(0.500143 -0.000218938 1.64202e-23)
(0.500161 -0.00277461 0)
(-0.0117416 -0.0189366 1.11603e-20)
(0.26444 0.0522376 5.25923e-20)
(0.501178 0.000993194 -1.33031e-23)
(0.539369 0.0109939 -3.11871e-20)
(0.503542 -0.000163479 -2.24678e-21)
(0.501366 0.000865338 -3.54031e-24)
(0.490729 0.0023153 1.99235e-21)
(0.575099 -0.0889121 2.55751e-20)
(0.525828 0.0210831 -8.61625e-21)
(0.531312 0.00986244 2.52815e-20)
(0.499681 0.00014499 -8.7345e-23)
(0.525783 -0.0145264 4.32519e-21)
(0.516807 0.00380492 0)
(0.50207 0.00203023 -3.28576e-23)
(0.308395 0.0855686 0)
(0.512119 0.00342768 2.92646e-21)
(0.529182 0.0209054 1.16486e-21)
(0.503941 -0.000529605 -3.72504e-24)
(0.509027 -0.000387831 7.38331e-21)
(0.507235 0.00554801 7.29856e-21)
(0.309983 -0.0759518 6.77742e-21)
(0.501705 0.0030376 -3.19499e-22)
(0.582291 0.0278545 -1.4958e-19)
(0.479411 0.0632007 -4.28956e-21)
(0.50693 -0.00170695 -4.69215e-21)
(0.491056 -0.0447586 -4.59563e-20)
(0.410251 0.0282961 0)
(0.513195 0.00195692 -4.05406e-22)
(0.502573 0.00118523 5.86704e-24)
(0.50421 -0.00637418 -3.21507e-21)
(0.494131 -0.0234934 -1.5356e-20)
(0.500083 -8.7583e-05 2.06288e-23)
(0.516542 0.00351573 2.0608e-21)
(0.494624 0.0199993 0)
(0.509616 -0.00458371 -3.12889e-22)
(0.556793 0.0990443 -2.66141e-21)
(0.50752 -0.00116523 9.19312e-24)
(0.460386 0.00424015 -8.86738e-21)
(0.572763 0.0707046 3.59533e-20)
(-0.00496642 -0.0124453 0)
(-0.00463287 -0.0121995 -1.16445e-20)
(0.295932 0.0869661 3.43513e-20)
(0.49645 -4.69941e-05 -1.63423e-23)
(0.503749 0.00374835 -8.87794e-21)
(0.496977 -0.0330752 3.60658e-20)
(0.499595 0.00463795 0)
(0.500282 0.000883746 0)
(0.524906 0.00379472 -2.04191e-20)
(0.50017 -0.000281047 1.18513e-20)
(0.496594 0.00259763 -6.93103e-22)
(0.502712 0.00180388 -1.45661e-23)
(0.493623 -0.02357 -3.64931e-20)
(0.516898 0.0149555 -5.843e-22)
(0.497481 -0.000479217 0)
(0.500694 -0.00143773 0)
(0.487577 -0.00133887 0)
(0.501008 0.000780144 0)
(0.500311 0.000898259 0)
(0.496523 0.00296614 0)
(0.493915 0.00186563 0)
(0.494179 -0.00310477 0)
(0.501876 -0.00237019 -1.63575e-23)
(0.503204 0.00428345 -2.11667e-20)
(0.499929 -2.25318e-05 2.63996e-20)
(0.498267 0.0144326 0)
(0.500387 -8.84943e-05 0)
(0.527541 0.00909355 -1.70443e-20)
(0.500075 0.00042752 6.07594e-23)
(0.505475 -0.00125208 4.24483e-22)
(0.516611 -0.000803928 -1.00176e-20)
(0.508288 -0.00142849 5.06108e-23)
(0.502721 -0.00019175 2.3996e-24)
(0.507509 -0.00418957 -5.39078e-22)
(0.506135 0.00097394 1.96994e-22)
(0.502469 0.00269393 -8.46799e-23)
(0.504048 0.000231094 0)
(0.532789 0.017932 0)
(0.562756 0.00559266 2.37191e-22)
(0.516407 -0.0202806 0)
(0.506188 0.000369795 5.84301e-22)
(0.489073 0.00245767 -8.69588e-24)
(0.494189 -0.00300027 -6.09593e-22)
(0.490226 0.00217063 -2.19027e-21)
(0.409441 0.0176342 9.46486e-22)
(0.463566 -0.0240583 -2.45341e-22)
(0.493646 0.00187028 -1.11381e-21)
(0.525735 0.0206805 1.12749e-20)
(0.525142 0.0036134 -1.28645e-20)
(0.464647 0.0101053 -3.88991e-21)
(0.503684 0.00246352 -9.74196e-22)
(0.503556 0.00380176 0)
(0.502263 0.00221637 0)
(0.505951 -0.00349559 6.91261e-21)
(0.501814 -0.000408566 3.74339e-22)
(0.495 0.015567 1.33296e-20)
(0.522245 -0.0125471 6.86513e-23)
(0.526569 0.015765 1.60212e-20)
(0.501788 -0.0026098 -1.96552e-22)
(0.498128 0.00393841 -2.63098e-22)
(0.504298 -0.00917176 3.5846e-21)
(0.505977 0.00100012 1.96058e-22)
(0.44084 -0.0667609 -1.56993e-20)
(0.386361 -0.00508497 -8.81002e-21)
(0.565588 0.0279459 3.70824e-20)
(0.505534 0.000308299 2.61013e-22)
(0.501124 -2.65686e-05 -3.55283e-24)
(0.499167 -0.000605619 5.38221e-24)
(0.531604 0.00997521 -2.51337e-20)
(0.498053 -0.000151989 0)
(0.53315 0.00534342 0)
(0.495038 0.00253959 1.10728e-20)
(0.501142 -0.000434617 0)
(0.47071 -0.0244584 -5.00366e-20)
(0.491064 -0.0134716 -9.32327e-21)
(0.485624 -0.000170782 4.74606e-22)
(0.454179 -0.0882363 -8.1074e-20)
(0.507221 -0.00763425 1.06138e-20)
(0.507087 -0.00766496 -1.00259e-20)
(0.448526 -0.0147732 0)
(0.505343 -0.00166705 0)
(0.499482 -0.00405432 0)
(0.485135 -0.00348725 -1.37761e-22)
(0.604335 0.126231 -1.01659e-21)
(0.499481 -0.00403816 4.04002e-22)
(0.526357 0.0158287 -7.80794e-21)
(0.230152 -0.0706031 0)
(0.499683 0.000149859 -2.29904e-23)
(-0.0130888 -0.0216676 2.23987e-20)
(0.441707 -0.0685536 4.49043e-21)
(0.527862 -0.0005693 -1.10244e-20)
(0.503339 0.00413659 6.58575e-21)
(0.518295 -0.0102856 6.10231e-22)
(0.477612 -0.036527 -7.43379e-20)
(0.476759 -0.036144 6.63716e-20)
(0.498075 -0.0123021 0)
(0.491892 -0.0524231 0)
(0.00927176 -0.0120384 -2.19253e-20)
(0.501405 0.000853581 -5.32974e-24)
(0.501377 0.000853275 4.74229e-24)
(0.520263 0.00422423 0)
(0.520872 -0.00250105 2.43524e-21)
(0.516171 0.0121772 3.50893e-22)
(0.502546 0.00270835 -6.95558e-23)
(0.499939 -0.00137656 4.49868e-21)
(0.485154 -0.00371631 1.82749e-22)
(0.501349 -3.07781e-05 -1.83828e-22)
(0.517024 -0.000873135 1.06572e-20)
(0.500314 -0.000726436 -6.55063e-24)
(0.500206 -0.000673025 0)
(0.527978 -0.00871154 -2.52889e-21)
(0.497225 -0.0323311 -1.47954e-20)
(0.477096 -0.0132877 0)
(0.516268 0.0711628 4.4323e-22)
(0.502687 0.00190099 -1.14457e-21)
(0.500253 6.24279e-05 0)
(0.548373 0.0352919 -4.60633e-20)
(0.447812 0.00542767 -5.32882e-20)
(0.5169 0.0150231 9.06033e-22)
(0.504258 0.00203859 1.93245e-21)
(0.531858 -0.00253909 -2.21754e-20)
(0.373611 -0.309631 -2.78201e-21)
(0.500246 7.51152e-05 0)
(0.48057 0.0637234 -5.59169e-22)
(0.514768 0.0699402 0)
(0.150965 -0.129557 0)
(0.487184 0.0154244 0)
(0.503608 -0.00155636 1.48745e-22)
(0.580036 0.144352 -4.19184e-20)
(0.531835 0.00662509 -1.11824e-20)
(0.50707 -7.48814e-05 9.31575e-22)
(0.518928 -0.0141963 -1.09498e-22)
(0.504428 0.000980259 0)
(0.522297 -0.0124801 0)
(0.500188 -0.000832939 0)
(0.513987 -0.0042556 8.37567e-22)
(0.500392 -0.000823306 -9.4978e-25)
(0.501667 -0.00266735 -9.89451e-23)
(0.530424 -0.0105981 0)
(0.500092 0.00108597 1.65581e-20)
(0.532591 0.0176904 -6.76229e-21)
(0.482559 -0.000154192 -5.72951e-21)
(0.500949 -0.00564306 0)
(0.462689 -0.0235992 1.38085e-20)
(0.494041 0.00162827 0)
(0.507995 0.0020418 -1.10616e-20)
(0.500235 -0.00248172 3.57867e-20)
(0.500193 -0.000304723 -5.13023e-20)
(0.527138 0.0178227 3.21317e-21)
(0.49941 -0.0157003 1.85278e-20)
(0.502158 -0.000406366 -7.97421e-24)
(0.517302 -0.0201834 0)
(0.532061 0.00646144 -3.97047e-21)
(0.514289 -0.00455897 -6.37709e-22)
(0.498337 -0.0121779 0)
(0.505673 -0.00646895 1.51987e-20)
(0.546452 -0.12687 0)
(0.542481 0.0326984 1.71088e-20)
(0.471266 -0.0248997 0)
(0.501276 0.000111979 0)
(0.533361 0.005486 -2.12788e-21)
(0.268958 0.0571197 -5.27536e-20)
(0.472451 -0.0373185 -2.3898e-20)
(0.527009 0.0177353 0)
(0.504618 -0.00908129 -3.06983e-21)
(0.50008 0.00111348 3.97789e-23)
(0.409549 -0.0166041 7.16755e-21)
(0.502509 0.000639657 0)
(0.498538 0.00132696 -2.36144e-23)
(0.449623 -0.015522 -1.64361e-20)
(0.473284 -0.0365691 -1.03277e-20)
(0.50177 -0.000411832 -3.24245e-22)
(0.531315 -0.00257461 3.57151e-20)
(0.459947 0.011193 -2.30496e-21)
(0.50049 -0.00204046 -2.52918e-20)
(0.494083 0.00165128 1.61154e-21)
(0.499646 0.00471685 -1.1061e-20)
(0.525017 0.00394648 1.28606e-20)
(0.0994526 -0.0173645 -1.2729e-19)
(0.499878 -0.000664884 4.29542e-23)
(0.49875 0.000648164 -2.85447e-25)
(0.502043 -0.0207641 0)
(0.502528 -9.46829e-05 0)
(0.518653 -0.0141192 -1.85167e-22)
(0.522067 0.00884383 0)
(0.497626 -0.000421226 0)
(0.494527 0.00196218 -5.44837e-21)
(0.538848 0.0111249 2.56211e-20)
(0.500645 -0.00037174 -2.79403e-23)
(0.500025 0.000469961 0)
(0.487134 0.0157879 -3.50937e-22)
(0.500698 -0.00140044 0)
(0.509251 -0.00608222 -2.15506e-21)
(0.49992 -0.00140651 1.81172e-20)
(0.490589 -0.000683324 3.00265e-22)
(0.505525 -0.00638901 -1.06824e-20)
(0.515009 0.0244885 -1.71396e-21)
(0.501938 0.0143964 9.03745e-21)
(0.524892 -0.013971 5.06463e-21)
(0.498559 0.0023319 0)
(0.501047 0.000528186 0)
(0.488278 -0.000726659 0)
(0.504106 0.000176295 3.39683e-26)
(0.46877 -0.0909196 1.55894e-19)
(0.0140427 -0.0125619 2.36173e-20)
(0.501202 -1.58079e-05 1.22982e-22)
(0.550728 0.0292316 0)
(0.49268 0.00256677 1.60432e-21)
(0.314973 -0.0752111 0)
(0.49214 0.0031483 -8.06115e-21)
(0.499188 -0.000638062 -4.38231e-23)
(0.50319 4.58367e-05 0)
(0.498614 0.00232041 0)
(0.500928 0.000732451 0)
(0.574803 0.063517 -1.19715e-20)
(0.527625 0.00899363 1.76134e-20)
(0.501006 -0.000159748 3.41902e-23)
(0.499914 -0.0156412 5.66573e-21)
(0.494828 0.00372166 6.53219e-21)
(0.499998 0.00144793 -3.22623e-20)
(0.50732 -0.000495184 3.32028e-22)
(0.48789 -0.00151471 0)
(0.499953 -0.000192038 1.5096e-23)
(0.511715 0.000409447 0)
(0.499971 -0.000242655 -3.81145e-24)
(0.494711 0.00366254 -5.03518e-21)
(0.496658 0.00298865 4.70137e-21)
(0.501157 9.25332e-05 4.49022e-24)
(0.500901 -0.00192136 0)
(0.48989 0.00210896 -1.46617e-21)
(0.629055 0.0254649 0)
(0.498112 0.00118985 0)
(0.50014 0.000383731 0)
(0.524885 -0.0138553 -6.89625e-21)
(0.474187 -0.0970696 -2.01069e-20)
(0.507229 0.0215353 1.43598e-21)
(0.504483 0.000854068 0)
(0.289243 0.244496 0)
(0.501213 0.000124266 0)
(0.501418 -3.53768e-06 -1.05046e-23)
(0.500969 0.000752397 0)
(0.415307 -0.0177184 0)
(0.519745 -0.0199544 -2.28377e-21)
(0.499626 -0.00261681 -2.47398e-20)
(0.506535 -0.00451072 -1.21516e-21)
(0.496592 0.00250682 -4.80928e-22)
(0.490631 -0.00337284 3.55139e-22)
(0.511849 0.0141359 3.83255e-21)
(0.525832 0.11841 4.04207e-21)
(0.501298 -0.000343711 0)
(0.372302 -0.0712914 0)
(0.488576 -0.00057284 1.27199e-22)
(0.501708 0.00106692 1.59519e-23)
(0.500459 -0.00204308 0)
(0.52011 0.00456389 0)
(0.487958 -0.0247156 -3.83534e-20)
(0.411472 0.0305123 0)
(0.499451 0.000185084 -5.1961e-23)
(0.491884 0.0172648 -4.65786e-21)
(0.5261 -0.0149952 -1.08335e-20)
(0.442397 0.215085 -2.60722e-20)
(0.499924 0.00350068 -3.25081e-21)
(0.500816 -0.00225468 0)
(0.501129 0.000132366 0)
(0.500708 -0.00232071 0)
(0.468673 0.224479 -5.63536e-20)
(0.47085 -0.0319583 0)
(0.519583 0.0249099 8.60508e-21)
(0.526143 -0.0148201 0)
(0.520392 0.0252284 -9.79966e-21)
(0.511174 0.0217282 1.43406e-20)
(0.501024 -0.00567289 0)
(0.502037 0.00310941 -7.80037e-22)
(0.470594 -0.0330234 0)
(0.500142 -0.000616262 3.12708e-20)
(0.498679 -0.000824777 0)
(0.57217 0.0218024 -5.10324e-22)
(0.499995 0.00140243 1.44754e-20)
(0.501192 -1.44158e-05 0)
(0.547416 -0.0111726 4.34862e-20)
(0.489954 0.00210454 1.68888e-21)
(0.500295 -0.000469627 -1.82353e-23)
(0.541894 0.0319706 0)
(0.182976 -0.072797 4.1447e-21)
(0.493734 0.00173603 -3.41069e-22)
(0.500939 -0.000315965 6.65357e-23)
(0.511574 0.000580771 -1.60987e-22)
(0.239032 -0.0690622 -3.37768e-20)
(0.490857 -0.00336985 1.003e-21)
(0.518203 0.00548652 4.01195e-21)
(-0.00693177 -0.0152362 1.21661e-20)
(0.492556 0.00247385 0)
(-0.00515809 -0.0146797 2.97755e-21)
(0.488127 -0.0216354 1.19151e-20)
(0.501449 0.0145291 9.19411e-21)
(0.49784 -0.00223776 -6.03281e-24)
(0.566481 0.0806355 6.91757e-20)
(0.500591 0.00107989 0)
(0.501802 0.001249 0)
(0.501059 -0.00409491 -4.53156e-21)
(0.516002 0.0246625 0)
(0.497772 0.00306227 0)
(0.575883 0.144049 4.07451e-20)
(0.48258 -0.00018433 4.47634e-21)
(0.498427 0.00134461 2.2352e-23)
(0.492643 -0.00200384 -1.67342e-20)
(0.500831 0.00078492 1.98207e-24)
(0.499587 -0.000554108 4.22578e-20)
(0.501275 -0.000331075 0)
(0.505231 -0.0284441 9.43968e-21)
(0.511675 0.0214784 -9.12548e-21)
(0.501233 -0.00589581 9.08933e-21)
(0.50009 0.000445417 -6.09554e-24)
(0.501127 -0.00410918 0)
(0.509681 0.000297522 5.80575e-21)
(0.501652 0.00104718 -1.28657e-23)
(0.509669 0.000342134 -1.4292e-20)
(0.516024 0.0121096 -2.02113e-22)
(0.500277 -0.00250793 -4.08134e-20)
(0.503753 0.00194937 -3.42198e-22)
(0.500128 -0.00213927 6.24669e-22)
(0.500795 0.00227515 -2.84383e-20)
(0.511073 0.00602184 4.53093e-21)
(0.500214 -0.00339629 -2.93119e-23)
(0.518095 0.0243816 -4.48545e-21)
(0.49537 0.00231368 3.73317e-21)
(0.501935 -0.00504392 -1.15214e-20)
(0.511735 0.00314497 -2.31112e-21)
(0.511849 0.0138875 -4.82588e-22)
(0.502366 -0.00340559 7.75839e-22)
(0.499705 -0.00127466 5.21497e-20)
(0.497761 0.0320445 -3.63468e-20)
(0.499319 -0.000359362 4.89279e-23)
(0.499796 0.00367458 -3.70261e-21)
(0.495071 0.00693981 1.47809e-20)
(0.506494 0.000287339 -1.12279e-21)
(0.513195 -0.0108595 7.44878e-21)
(0.403558 0.107782 5.16363e-20)
(0.500108 -0.000591718 -1.26089e-20)
(0.501308 7.62568e-05 -3.11281e-23)
(0.497097 0.00132382 -3.17092e-22)
(0.519083 0.0239975 -3.66059e-22)
(0.502474 0.000621922 -3.85131e-21)
(0.564532 -0.025516 0)
(0.499101 0.000532488 0)
(0.500355 -9.25673e-05 0)
(0.506246 0.000306164 0)
(0.500855 -0.00191556 0)
(0.627585 0.0245667 -5.27681e-20)
(0.50431 0.00469648 0)
(0.524589 -0.0163442 -2.48762e-23)
(0.518107 -0.0104122 0)
(0.527399 -0.000668957 9.39636e-21)
(0.370972 -0.311168 1.54933e-21)
(-0.00654739 0.00562694 0)
(0.508012 -0.00331318 -3.12734e-23)
(-0.140258 -0.00097823 -8.3385e-20)
(0.504812 0.0109175 -1.34838e-21)
(0.499466 0.000183633 9.18489e-23)
(0.50149 -0.00267986 0)
(0.504431 0.0106116 0)
(0.501223 -0.00050619 -1.39004e-23)
(0.500815 0.000815251 -3.5998e-20)
(0.498559 0.00213029 0)
(0.501166 -0.000502284 -9.11819e-23)
(0.478436 0.0001515 1.50469e-21)
(0.518316 0.00540584 0)
(0.519299 0.0749067 0)
(0.472881 0.00455611 -5.71855e-20)
(0.351512 -0.0391601 0)
(0.499332 -0.00795089 5.63325e-23)
(0.160154 -0.0702355 0)
(0.513292 -0.010857 7.94165e-21)
(0.0159104 -0.0138953 -1.46195e-22)
(0.520527 -0.0136078 0)
(0.499651 0.000482528 2.18516e-24)
(0.481021 -0.000359287 0)
(0.499491 0.000458676 0)
(0.501076 -0.000332183 0)
(0.496623 -0.00721907 1.74218e-20)
(0.489562 0.00551535 -6.40361e-20)
(0.521199 -0.00228718 0)
(0.524562 0.0229932 3.39359e-21)
(0.4977 -0.00081313 -4.16872e-21)
(0.499182 -0.00797246 -1.81079e-20)
(0.502317 -0.000428108 0)
(0.484328 0.0294249 -2.78421e-20)
(0.500611 -0.000676888 -5.7681e-24)
(0.483957 -0.00110643 -4.04663e-21)
(0.566007 -0.0256031 0)
(0.5718 0.0782759 3.07953e-20)
(0.499346 -0.000396978 -2.89846e-23)
(0.500749 0.00228105 2.84343e-20)
(0.527123 -0.0181487 -1.76087e-20)
(0.570679 0.0208067 -7.752e-20)
(0.511863 0.0221201 2.61021e-23)
(0.484091 -0.00247176 -2.63617e-20)
(0.515658 -0.0061819 -3.40114e-21)
(0.497618 -0.000371751 -1.02725e-22)
(0.502043 0.0056336 0)
(0.481371 -0.000282002 2.4955e-20)
(0.336345 0.0479788 7.85735e-20)
(0.501502 -0.00265643 -1.04886e-23)
(0.501409 -0.000197303 0)
(0.520772 -0.0135563 1.54654e-23)
(0.49111 -0.00304393 0)
(0.571751 0.0694336 -2.86887e-20)
(0.496507 -0.00408225 0)
(0.492483 0.00223609 0)
(0.51437 -0.00946555 0)
(0.500262 -0.00333263 -2.05563e-23)
(0.619539 0.0245754 1.41886e-20)
(0.506006 0.0216189 0)
(0.501895 0.00073316 -2.26053e-23)
(0.499912 -0.00227609 1.30317e-20)
(0.501821 -0.00103718 0)
(0.502081 0.0120599 -2.88876e-20)
(0.473143 0.00404181 5.14433e-20)
(0.484216 0.0298712 0)
(0.475242 -0.095417 2.07949e-20)
(0.49246 0.0126233 3.40465e-20)
(0.498979 0.000128742 1.07931e-22)
(0.4618 0.00520658 1.62833e-20)
(0.500127 0.0038111 -1.42729e-21)
(0.50339 0.00199512 0)
(0.505155 -0.0278069 0)
(0.503402 0.00213137 0)
(0.483399 -0.0011009 3.64955e-21)
(0.510677 0.0287238 2.67555e-21)
(0.478484 0.000127342 0)
(0.502059 0.00314553 0)
(0.0847345 0.0303193 -9.59354e-21)
(0.502136 0.000793107 4.68835e-23)
(0.502685 -0.0207041 -2.12276e-20)
(0.516226 -0.00256963 0)
(0.491518 -0.00314819 0)
(0.528443 0.00294342 1.08587e-20)
(0.502895 0.00189351 1.05486e-21)
(0.502668 0.00204865 -1.33168e-21)
(0.492587 0.0123867 0)
(0.503837 -0.0014397 1.1099e-22)
(0.501307 0.000294694 1.24498e-20)
(0.494096 -0.00325213 0)
(0.515725 0.000779287 5.4452e-21)
(0.486826 0.000848526 -2.7693e-21)
(0.493777 0.00182143 -3.20572e-22)
(0.536649 0.0150299 3.72267e-20)
(0.49811 0.00120555 -8.36257e-24)
(0.497635 -0.000752069 2.71846e-20)
(0.492826 -0.0019838 -4.10803e-20)
(0.478799 0.148328 3.28875e-21)
(0.504784 -0.00181931 -8.11103e-22)
(0.470987 -0.013109 5.94515e-21)
(0.510849 0.00208058 0)
(0.490754 -0.0144611 -4.28513e-20)
(0.512343 -0.0268071 -3.7569e-20)
(0.492081 -0.0027799 2.71716e-21)
(0.500458 -0.00304197 -4.32008e-21)
(0.498532 0.00211915 0)
(0.407264 0.10991 -3.96841e-20)
(0.516533 -0.0114652 0)
(0.508429 -0.00100407 0)
(0.503334 -0.000343757 1.8881e-21)
(0.543604 -0.00966525 0)
(0.507426 -0.000495204 -2.91531e-22)
(0.381698 0.0168751 3.23813e-20)
(0.502538 0.0120422 2.57996e-20)
(0.552934 -0.0635216 9.04238e-20)
(0.508143 0.00192175 1.30283e-20)
(0.53274 -0.0133076 3.4454e-20)
(0.495241 0.00687839 -2.65234e-21)
(0.502456 -0.000463231 1.20987e-20)
(0.50213 0.00561215 1.75051e-20)
(0.501852 -0.000376097 1.1179e-23)
(0.493589 0.00279614 0)
(0.499536 9.91207e-05 0)
(0.52727 -0.0184301 1.70946e-20)
(0.512989 -0.00584286 -3.62929e-22)
(0.495791 -0.00262326 -2.2863e-20)
(0.500494 -0.00306253 1.45377e-20)
(0.500952 -0.000267605 8.7405e-24)
(0.485663 -0.000359747 -3.51629e-22)
(0.502041 0.00109906 -8.42896e-23)
(0.499887 0.000216756 -6.90502e-24)
(0.525899 0.115746 -6.683e-21)
(0.524448 0.0226418 -5.70983e-21)
(0.58206 -0.000960503 -8.83058e-20)
(0.44251 0.0353305 3.89087e-20)
(0.298532 0.239733 0)
(0.501148 -0.00585741 -1.05273e-20)
(0.502866 5.06458e-07 0)
(0.498604 -4.21068e-05 -4.99181e-23)
(0.502446 0.000650019 9.30207e-25)
(0.493596 0.00279188 0)
(0.516072 -0.0114058 3.98563e-21)
(0.510122 0.00584075 0)
(0.500176 0.00107913 -8.82716e-23)
(0.500116 0.00117977 -6.27963e-23)
(0.502354 -0.0057355 1.00476e-20)
(0.207807 -0.0131945 9.51526e-20)
(0.484852 0.00199809 -5.48027e-21)
(0.498838 0.00114428 -6.58958e-23)
(0.491375 -0.0135717 5.10829e-20)
(0.547354 -0.0282375 -3.68955e-21)
(0.48425 -0.00259535 -5.90828e-22)
(0.502407 0.000615575 -6.6809e-25)
(0.500475 -0.00228112 -5.24326e-22)
(0.593739 0.191245 2.43459e-20)
(0.499722 0.000899209 -1.48026e-23)
(0.499514 9.7536e-05 0)
(0.498812 0.00238104 0)
(0.502474 -0.00448163 -2.51654e-21)
(0.546646 -0.0275631 3.83608e-21)
(0.484415 0.00186336 3.49153e-21)
(0.505791 -0.00668274 0)
(0.502523 -0.00393611 2.82273e-22)
(0.565906 -0.0645951 0)
(0.505409 -0.00833433 4.34354e-21)
(0.506006 -0.00639878 0)
(0.601848 0.127642 2.66628e-20)
(0.496305 -0.00401994 3.99245e-21)
(0.505624 0.00567371 0)
(0.499892 0.000110501 -6.29919e-23)
(0.487219 0.00138064 -5.45176e-21)
(0.490002 0.015356 0)
(0.50247 -0.00442808 -4.31813e-21)
(0.511612 0.0218151 -2.75395e-23)
(0.234785 -0.0692693 -4.02117e-21)
(0.498207 -3.35191e-05 -3.69407e-23)
(0.498737 0.0296112 0)
(0.496386 0.0200909 0)
(0.504403 -8.10803e-05 6.36893e-22)
(0.501004 -0.00245253 -6.57547e-23)
(0.571448 0.00653881 0)
(0.510558 0.00192763 0)
(0.52476 -0.01642 0)
(0.492103 0.00285783 -2.86426e-20)
(0.499923 0.00350503 3.01666e-21)
(0.533868 0.0226325 0)
(0.507828 -0.00326101 6.36566e-22)
(0.499673 -0.00130793 -3.49967e-20)
(0.500741 -0.000993456 1.26685e-22)
(0.505369 -0.00821136 0)
(0.520071 -0.00680623 -2.65132e-21)
(0.500588 -0.00396619 0)
(0.502633 0.00125538 0)
(0.499389 0.00205792 -1.28195e-20)
(0.490297 -0.00166307 1.70914e-21)
(0.189938 -0.170641 6.23009e-21)
(0.487473 0.00219162 2.01438e-20)
(0.529974 -0.00329696 1.23935e-20)
(0.536143 0.0151039 -3.96845e-20)
(0.501047 8.65244e-05 -2.21502e-24)
(0.500886 -0.00102137 0)
(0.493092 -0.0521215 0)
(0.484633 0.0163812 0)
(0.489307 0.00261733 0)
(0.0948572 0.0406256 2.04172e-20)
(0.502491 -0.00507612 -4.79056e-21)
(0.501537 -0.000344465 -2.86881e-23)
(0.500021 0.000179253 2.42569e-20)
(0.495811 -0.00255068 0)
(0.530046 -0.00355665 -2.30538e-20)
(0.488915 0.00262574 0)
(0.0153985 -0.00855552 6.77452e-20)
(0.490777 -0.00818075 -4.91202e-20)
(0.486428 0.000644898 2.34275e-21)
(0.502467 -0.00387149 -3.16695e-22)
(0.500463 -0.0021364 0)
(0.225316 -0.0781517 -1.23235e-20)
(0.515507 0.000698696 5.61123e-21)
(0.500322 -0.0105649 0)
(0.499832 -0.00241916 -9.84613e-23)
(0.506004 -0.00666517 0)
(0.504681 -6.15009e-05 0)
(0.443031 0.0340558 -3.88965e-20)
(0.499813 -0.00240616 6.38154e-26)
(0.534188 0.0223916 0)
(0.499371 -0.000611709 7.30647e-24)
(0.484216 0.0200372 0)
(0.50183 0.0011018 -6.46853e-23)
(0.499663 0.00298114 -1.59039e-20)
(0.497598 -0.000372451 4.98174e-23)
(0.336016 0.0517048 -8.33035e-20)
(0.506087 -0.00124904 2.82147e-22)
(0.506117 -0.0031358 0)
(0.563991 -0.0642965 -1.78421e-20)
(0.48842 -0.0213505 -1.36514e-20)
(0.501564 -0.000321985 0)
(0.500015 0.000156569 0)
(0.500218 -0.0106296 1.86256e-20)
(0.573098 0.0653246 3.98571e-20)
(0.515441 -0.0061445 0)
(0.504917 -0.000962057 2.32093e-21)
(0.501221 0.00810524 -1.89649e-22)
(0.489802 0.00559182 7.11455e-20)
(0.515592 0.053284 3.53867e-20)
(0.223099 -0.00221786 2.53995e-20)
(0.501963 -0.00497062 0)
(0.499709 0.00299981 -5.70263e-21)
(0.508959 0.00140733 8.25943e-21)
(0.556851 -0.0853561 -1.69833e-20)
(0.505744 0.0055422 0)
(0.492107 0.00245041 -8.3401e-22)
(0.498696 0.00232217 0)
(0.501536 0.000592661 -1.19748e-24)
(0.48907 0.00250406 -2.0017e-21)
(0.497813 6.33076e-05 0)
(0.506046 -0.00317189 -5.10694e-22)
(0.50448 -0.00188267 -3.32595e-21)
(0.49697 -0.0401057 0)
(0.501319 0.00113217 -6.11852e-25)
(0.502793 0.00023124 2.31788e-20)
(0.468987 -0.0129749 5.63674e-21)
(0.500017 7.75152e-07 5.25453e-20)
(0.486861 0.00116139 7.04918e-21)
(0.546814 -0.124429 0)
(0.610244 -0.0615651 0)
(0.500441 0.000480456 -3.90469e-24)
(0.514619 -0.0094571 0)
(0.318545 -0.00324565 0)
(0.506574 -0.00459375 -9.69035e-22)
(0.10964 -0.0148465 8.92677e-20)
(0.521359 -0.0152909 1.58482e-21)
(0.50253 -0.00042738 0)
(0.531278 0.011005 -1.41486e-20)
(0.501992 -0.000330626 -1.28263e-23)
(0.533361 0.0174366 0)
(0.608876 -0.0630941 0)
(0.498215 0.000165097 1.078e-22)
(0.503495 0.00404339 0)
(0.523055 0.0168915 5.22292e-22)
(0.502281 0.00164226 -1.29694e-21)
(0.485086 0.0311916 1.27916e-20)
(0.519893 -0.00978667 0)
(0.506496 0.00232879 -9.7999e-21)
(0.502859 0.000208349 -4.90449e-21)
(0.196237 -0.0135029 -9.96381e-20)
(0.490862 0.122221 3.85643e-21)
(0.494099 -0.00324505 0)
(0.503628 -0.00707529 0)
(0.502334 -0.000511384 0)
(0.494159 0.00305152 -2.14235e-23)
(0.498976 -0.00122264 -4.45835e-22)
(0.501558 0.000501093 4.3927e-24)
(0.504057 0.00325793 1.26356e-21)
(0.519143 0.0107385 -9.93149e-21)
(0.504481 0.00328733 -2.08794e-21)
(0.501061 0.000683223 0)