/*--------------------------------*- C++ -*----------------------------------*\
  =========                 |
  \\      /  F ield         | OpenFOAM: The Open Source CFD Toolbox
   \\    /   O peration     | Website:  https://openfoam.org
    \\  /    A nd           | Version:  9
     \\/     M anipulation  |
\*---------------------------------------------------------------------------*/
FoamFile
{
    format      ascii;
    class       volScalarField;
    location    "100";
    object      nut;
}
// * * * * * * * * * * * * * * * * * * * * * * * * * * * * * * * * * * * * * //

dimensions      [0 2 -1 0 0 0 0];

internalField   nonuniform List<scalar> 
10720
(
0.0475016
0.0489862
0.0504234
0.0516884
0.0529315
0.0534644
0.0531208
0.0518323
0.049259
0.0450342
0.0388499
0.0308908
0.0224788
0.0139397
0.00993164
0.0115526
0.0116585
0.00948673
0.00694513
0.00589547
0.00577474
0.0084941
0.0155195
0.0189693
0.0161631
0.0191082
0.022815
0.0347031
0.0426932
0.0458799
0.0450513
0.0415325
0.0381184
0.0365905
0.0303784
0.0361898
0.0483155
0.063358
0.0633062
0.0458657
0.043895
0.0417134
0.038769
0.0351854
0.0307455
0.0254567
0.0205921
0.0190491
0.0176274
0.016489
0.0195192
0.0223536
0.0244729
0.0261236
0.0275517
0.0289135
0.0302781
0.031672
0.0331101
0.0346088
0.036179
0.0378282
0.0395435
0.0412466
0.0428484
0.044332
0.0457106
0.0470068
0.0482311
0.0494069
0.0505602
0.0517306
0.0529985
0.0544542
0.0562402
0.0583062
0.0617952
0.0649446
0.0658831
0.0648294
0.0632568
0.0611677
0.058812
0.0566563
0.0546878
0.0549125
0.0570057
0.0594151
0.0610789
0.0609373
0.0585079
0.0545413
0.0538927
0.0585907
0.0593183
0.0484594
0.0348997
0.0273124
0.0314007
0.0341019
0.0458414
0.058829
0.0717178
0.0847941
0.0950143
0.0976328
0.0933435
0.0828435
0.0713102
0.0641679
0.0666699
0.0868857
0.0951879
0.0852559
0.0942965
0.0885516
0.0838386
0.0669234
0.0674684
0.068207
0.0683165
0.0681069
0.0675297
0.0664326
0.0646777
0.0621557
0.0592541
0.0561476
0.0528806
0.0496847
0.0466344
0.0438013
0.0411779
0.0387879
0.0366346
0.0347256
0.0330384
0.0315646
0.030288
0.0292173
0.0282958
0.0274947
0.0268297
0.0262979
0.025897
0.0256217
0.0254687
0.0254318
0.0255065
0.0257264
0.0264064
0.0276411
0.029135
0.0311122
0.0322311
0.0343859
0.0952215
0.0942183
0.0926954
0.0906131
0.088196
0.085071
0.0814294
0.0785341
0.0757452
0.0707161
0.0682981
0.0687959
0.0707057
0.0725559
0.0761144
0.0836959
0.0914311
0.093357
0.0782928
0.0541252
0.0588844
0.0768845
0.100454
0.122899
0.142792
0.163009
0.185302
0.196386
0.192903
0.175044
0.154259
0.144758
0.156488
0.198681
0.208249
0.174948
0.192974
0.183311
0.176498
0.0961498
0.0966473
0.0971965
0.097264
0.0969869
0.0963208
0.0951488
0.0934256
0.0911915
0.0885313
0.0855021
0.0822638
0.078937
0.0755694
0.0722503
0.0690035
0.0658778
0.0629057
0.0601182
0.0575035
0.0550638
0.0527794
0.0506301
0.0485169
0.0463824
0.0442691
0.0421972
0.0401885
0.0382542
0.0364434
0.0347734
0.0332578
0.0319091
0.0307603
0.0298573
0.0295432
0.0303973
0.0321533
0.0268993
0.112042
0.111294
0.110155
0.108579
0.106644
0.104157
0.101049
0.0971116
0.0940754
0.0904325
0.0855291
0.0784589
0.0761633
0.0781443
0.0839975
0.0948102
0.108726
0.118781
0.116315
0.0921552
0.100262
0.133294
0.169714
0.199738
0.221183
0.243996
0.281608
0.304968
0.305445
0.283405
0.257156
0.237328
0.255492
0.311105
0.317454
0.271424
0.30331
0.290977
0.28101
0.112721
0.113107
0.113469
0.113512
0.113292
0.11278
0.111894
0.110599
0.108914
0.106878
0.104521
0.101917
0.0991317
0.0961984
0.0931904
0.0901409
0.0870987
0.0841059
0.0812031
0.0783985
0.0757092
0.0731286
0.0706399
0.0681493
0.065591
0.0630112
0.0604359
0.057893
0.0554023
0.0529906
0.0506731
0.0484702
0.0464066
0.0445165
0.04286
0.0415336
0.0404323
0.0412873
0.0353715
0.122473
0.122065
0.121383
0.120368
0.119048
0.117259
0.11495
0.111977
0.108088
0.104722
0.101255
0.0955185
0.0878126
0.083236
0.0857033
0.0966285
0.114703
0.132674
0.141003
0.1371
0.150374
0.201628
0.253488
0.289449
0.304791
0.323344
0.379224
0.419898
0.429014
0.407687
0.360773
0.322953
0.347216
0.412201
0.41798
0.376877
0.422342
0.407845
0.393111
0.122839
0.123026
0.123187
0.123142
0.122919
0.122491
0.121809
0.12086
0.119657
0.118205
0.116512
0.114612
0.112526
0.110264
0.107872
0.10537
0.1028
0.100192
0.0975842
0.0949915
0.0924374
0.0899242
0.0874433
0.0849127
0.0822722
0.0795622
0.076811
0.0740495
0.0713034
0.0686028
0.0659708
0.0634356
0.0610312
0.0587998
0.0567905
0.0551086
0.053649
0.0541282
0.0485134
0.129417
0.129329
0.129007
0.128398
0.127529
0.12628
0.124601
0.122475
0.119588
0.115855
0.112655
0.109156
0.102975
0.093887
0.0888424
0.0946214
0.112741
0.136867
0.156151
0.170008
0.203115
0.273841
0.346915
0.392974
0.394978
0.398468
0.473921
0.538152
0.5515
0.516214
0.450139
0.402197
0.43574
0.507093
0.513821
0.492046
0.546756
0.530265
0.50921
0.129464
0.129411
0.129372
0.129211
0.128944
0.128535
0.127963
0.127231
0.126357
0.125337
0.124154
0.12282
0.121335
0.119696
0.117925
0.116028
0.114025
0.111938
0.109794
0.107608
0.105398
0.103173
0.100925
0.0985884
0.0961091
0.0935174
0.0908399
0.0881058
0.0853418
0.0825795
0.0798481
0.0771826
0.074624
0.0722251
0.0700475
0.0682005
0.0666398
0.0668717
0.0622903
0.134367
0.134488
0.134342
0.133973
0.133417
0.132597
0.131455
0.129977
0.128208
0.125748
0.122361
0.119327
0.115514
0.108067
0.0973771
0.0944272
0.107178
0.133393
0.1622
0.192279
0.246531
0.337348
0.430366
0.490867
0.492447
0.468345
0.563802
0.6392
0.648837
0.605848
0.527444
0.477773
0.523532
0.599993
0.609985
0.615537
0.673774
0.654838
0.627034
0.134146
0.133819
0.133575
0.133284
0.132955
0.132529
0.132002
0.131409
0.130757
0.130028
0.129198
0.128263
0.127217
0.12605
0.124774
0.123385
0.121891
0.120305
0.11864
0.116906
0.115115
0.113271
0.111368
0.109354
0.107181
0.104871
0.102443
0.0999205
0.0973274
0.0946931
0.0920471
0.0894271
0.0868781
0.0844594
0.0822416
0.0803405
0.0787652
0.078767
0.0753342
0.137789
0.137925
0.137788
0.137561
0.137235
0.136744
0.136046
0.135163
0.13423
0.133088
0.131108
0.128093
0.124996
0.120377
0.110682
0.100071
0.103018
0.12545
0.160035
0.204198
0.278471
0.388932
0.50036
0.574544
0.584095
0.534204
0.646382
0.717939
0.727461
0.681319
0.596042
0.552496
0.612671
0.695059
0.712693
0.746006
0.801033
0.778918
0.742582
0.137485
0.136968
0.136557
0.136139
0.135759
0.135301
0.134782
0.134281
0.133789
0.133265
0.132681
0.132025
0.131288
0.130459
0.129543
0.128535
0.127438
0.126255
0.124995
0.123659
0.122256
0.120786
0.119241
0.117579
0.115762
0.1138
0.111707
0.109498
0.107191
0.104811
0.102384
0.0999454
0.0975406
0.09523
0.0930868
0.0912309
0.0897104
0.0895247
0.0873779
0.139518
0.139576
0.139504
0.139399
0.139247
0.139014
0.138687
0.138242
0.137726
0.137156
0.136322
0.134663
0.132107
0.129118
0.123145
0.111259
0.103994
0.11704
0.151578
0.206098
0.298183
0.428133
0.55686
0.644284
0.659033
0.600773
0.711533
0.78102
0.793044
0.74639
0.659162
0.629219
0.705731
0.797066
0.835341
0.882437
0.926483
0.895822
0.841924
0.139362
0.139041
0.138649
0.138168
0.137766
0.137291
0.136769
0.136335
0.135962
0.135593
0.135188
0.134734
0.134218
0.133631
0.132973
0.132242
0.131436
0.130559
0.129611
0.128592
0.127507
0.126354
0.125125
0.123787
0.122308
0.120692
0.118946
0.11708
0.115106
0.11304
0.110904
0.10873
0.106559
0.104446
0.102465
0.100732
0.0993267
0.0989853
0.098014
0.140257
0.140297
0.140269
0.140226
0.140157
0.140045
0.139891
0.139669
0.139407
0.139126
0.138803
0.138215
0.13684
0.13479
0.131794
0.123461
0.110417
0.111598
0.139674
0.198927
0.305338
0.454182
0.600004
0.70098
0.722581
0.672746
0.762791
0.833574
0.849377
0.804029
0.720143
0.710898
0.80638
0.910448
0.987165
1.02384
1.04815
0.991953
0.917522
0.140173
0.140014
0.139814
0.13952
0.139186
0.138736
0.138229
0.137852
0.137573
0.137323
0.137056
0.136753
0.1364
0.135991
0.135522
0.134992
0.134401
0.133749
0.133035
0.132258
0.131419
0.130518
0.129547
0.128479
0.12729
0.12598
0.124552
0.123011
0.121363
0.11962
0.117798
0.115923
0.114027
0.112164
0.110399
0.108842
0.107595
0.107158
0.107007
0.14063
0.140668
0.140665
0.140653
0.140626
0.140574
0.140502
0.140389
0.14025
0.140111
0.139964
0.139807
0.139367
0.138224
0.136761
0.132789
0.120909
0.111797
0.127911
0.184558
0.300072
0.466335
0.6299
0.744981
0.777184
0.742642
0.803488
0.879102
0.899148
0.856933
0.782449
0.800789
0.920433
1.03963
1.15988
1.16936
1.16417
1.06343
0.968974
0.140567
0.140463
0.140346
0.140193
0.140027
0.139743
0.139301
0.138986
0.138786
0.138631
0.138473
0.138289
0.138063
0.137791
0.137467
0.13709
0.13666
0.136178
0.13564
0.135044
0.134393
0.133687
0.13292
0.13207
0.131117
0.130062
0.128904
0.127647
0.126294
0.124851
0.123329
0.121749
0.120138
0.118541
0.117016
0.115662
0.114599
0.114133
0.114515
0.14084
0.140878
0.140888
0.140894
0.14089
0.140871
0.140841
0.140786
0.14071
0.140644
0.14058
0.140533
0.140491
0.140097
0.139336
0.138149
0.131179
0.117526
0.11966
0.165937
0.283202
0.463871
0.645933
0.776373
0.82222
0.797592
0.834433
0.919896
0.944505
0.907468
0.850254
0.903076
1.05523
1.21606
1.35081
1.3186
1.27285
1.11073
0.997773
0.140787
0.140708
0.140623
0.140521
0.140424
0.140276
0.140042
0.139816
0.139692
0.139615
0.139543
0.139452
0.139327
0.139167
0.138959
0.138707
0.138409
0.138063
0.137664
0.13721
0.136706
0.136155
0.13555
0.134875
0.134114
0.133266
0.132334
0.131316
0.130216
0.129036
0.127784
0.126476
0.125134
0.123796
0.122513
0.121371
0.120503
0.120063
0.120812
0.140966
0.141002
0.14102
0.141036
0.141046
0.141046
0.141041
0.141021
0.140984
0.140955
0.140941
0.140933
0.140977
0.140978
0.140652
0.140516
0.138204
0.12662
0.117211
0.146837
0.256557
0.446296
0.647129
0.794721
0.85649
0.839619
0.854137
0.957236
0.987364
0.957877
0.929063
1.02316
1.2135
1.43231
1.55885
1.47103
1.37222
1.13463
1.00568
0.140919
0.140854
0.140786
0.140708
0.140638
0.14054
0.140419
0.140329
0.140281
0.140254
0.140231
0.140199
0.140152
0.140088
0.139995
0.139871
0.139703
0.139486
0.139213
0.138888
0.138516
0.138103
0.137643
0.137119
0.136521
0.13585
0.135108
0.134294
0.133408
0.132454
0.131438
0.130371
0.129272
0.128175
0.127122
0.126186
0.125511
0.125133
0.126138
0.14104
0.141076
0.141098
0.14112
0.141138
0.14115
0.14116
0.141163
0.141152
0.141146
0.141158
0.141184
0.141234
0.141352
0.141324
0.141357
0.141578
0.135397
0.120635
0.131165
0.223295
0.413673
0.632045
0.79897
0.878696
0.871398
0.866866
0.992416
1.03011
1.01357
1.02344
1.16612
1.39995
1.67984
1.78203
1.62478
1.46128
1.13575
0.994737
0.140999
0.140942
0.140885
0.140821
0.140767
0.140691
0.140614
0.140575
0.140559
0.140552
0.140546
0.140537
0.140522
0.1405
0.140466
0.14042
0.140355
0.140269
0.140154
0.140003
0.139807
0.139562
0.139258
0.138889
0.138455
0.137956
0.137393
0.136768
0.136079
0.13533
0.134525
0.133673
0.132793
0.131912
0.131068
0.130315
0.129823
0.129502
0.130615
0.141081
0.141115
0.141139
0.141165
0.141188
0.141209
0.141229
0.141245
0.141253
0.141264
0.141291
0.14134
0.141401
0.14152
0.141651
0.141676
0.142498
0.141244
0.128299
0.122246
0.188133
0.367425
0.599128
0.787428
0.887372
0.894856
0.889533
1.02731
1.07618
1.07981
1.13689
1.33414
1.63841
1.95284
2.01958
1.7784
1.53867
1.11499
0.967897
0.141043
0.140994
0.140944
0.140891
0.140846
0.140783
0.140729
0.140712
0.140708
0.140711
0.140714
0.140717
0.140716
0.140713
0.140703
0.140687
0.140661
0.140625
0.140575
0.140509
0.140423
0.140314
0.140173
0.139992
0.139763
0.139479
0.139135
0.138728
0.138255
0.13772
0.137128
0.136488
0.135817
0.135134
0.134478
0.133875
0.133552
0.133207
0.134228
0.141098
0.14113
0.141155
0.141183
0.14121
0.141236
0.141263
0.14129
0.141309
0.141331
0.141369
0.14143
0.141509
0.141616
0.141795
0.141871
0.142404
0.143715
0.136585
0.121051
0.156714
0.311207
0.54745
0.757781
0.880741
0.910071
0.925327
1.06233
1.12786
1.16019
1.27129
1.52161
1.91582
2.22224
2.26024
1.93088
1.59744
1.07405
0.929615
0.141062
0.141018
0.140975
0.140929
0.140893
0.140842
0.1408
0.140791
0.140793
0.140799
0.140807
0.140816
0.140824
0.140831
0.140834
0.140834
0.140828
0.140816
0.140795
0.140765
0.140724
0.140671
0.140601
0.140512
0.140399
0.140258
0.140083
0.139868
0.13961
0.139305
0.138951
0.138553
0.138118
0.137658
0.137203
0.13676
0.136559
0.136124
0.136907
0.141097
0.141128
0.141153
0.141183
0.141212
0.141242
0.141275
0.141308
0.141336
0.141365
0.14141
0.141478
0.141569
0.141678
0.14185
0.142011
0.142198
0.143897
0.1425
0.126621
0.134533
0.251551
0.478208
0.707717
0.856773
0.914071
0.957171
1.09619
1.18598
1.25552
1.42692
1.75247
2.18725
2.47376
2.48166
2.08221
1.63693
1.01616
0.886696
0.141064
0.141024
0.140985
0.140946
0.140917
0.140877
0.140843
0.140835
0.140839
0.140847
0.140858
0.140871
0.140884
0.140897
0.140908
0.140916
0.140922
0.140923
0.140918
0.140908
0.140891
0.140866
0.140831
0.140784
0.140723
0.140648
0.140554
0.14044
0.140302
0.140138
0.139946
0.139724
0.139475
0.139206
0.138932
0.138658
0.13853
0.138161
0.138695
0.141084
0.141114
0.141139
0.14117
0.141201
0.141234
0.14127
0.141308
0.141343
0.141377
0.141425
0.141496
0.141592
0.14171
0.141866
0.142081
0.14216
0.143215
0.145069
0.134858
0.124221
0.197065
0.396346
0.636262
0.813233
0.903492
0.977953
1.12643
1.24957
1.36495
1.59608
2.01261
2.44353
2.70914
2.68625
2.23354
1.65969
0.945818
0.848763
0.141053
0.141015
0.14098
0.140946
0.140924
0.140891
0.140863
0.140856
0.14086
0.14087
0.140883
0.140898
0.140914
0.14093
0.140946
0.14096
0.140972
0.140981
0.140987
0.140988
0.140985
0.140976
0.14096
0.140937
0.140906
0.140864
0.140812
0.140749
0.140672
0.14058
0.140472
0.140347
0.140207
0.140053
0.139895
0.139737
0.139656
0.139446
0.139777
0.141063
0.141092
0.141117
0.141149
0.141181
0.141217
0.141255
0.141296
0.141336
0.141375
0.141424
0.141495
0.141591
0.141715
0.141864
0.142085
0.142226
0.14261
0.145101
0.141759
0.12506
0.15615
0.311306
0.545906
0.748452
0.875189
0.98526
1.14791
1.31571
1.48737
1.80339
2.26048
2.68501
2.93097
2.87761
2.38206
1.66721
0.868311
0.82706
0.141033
0.140998
0.140965
0.140935
0.140918
0.140891
0.140866
0.140861
0.140865
0.140875
0.14089
0.140906
0.140924
0.140943
0.140962
0.14098
0.140996
0.14101
0.141022
0.141031
0.141036
0.141037
0.141033
0.141025
0.14101
0.14099
0.140962
0.140927
0.140884
0.140831
0.140769
0.140697
0.140615
0.140526
0.140434
0.140342
0.140293
0.140181
0.140398
0.141037
0.141064
0.14109
0.141123
0.141156
0.141193
0.141234
0.141276
0.14132
0.141362
0.141413
0.141483
0.141576
0.141699
0.141848
0.142052
0.142278
0.142365
0.144074
0.145325
0.132112
0.133083
0.234975
0.444225
0.663195
0.826425
0.976796
1.16061
1.38265
1.61338
2.01763
2.49251
2.91269
3.14118
3.05773
2.51506
1.66017
0.789283
0.830787
0.141008
0.140975
0.140944
0.140917
0.140902
0.14088
0.140859
0.140854
0.140859
0.14087
0.140884
0.140902
0.140921
0.140942
0.140962
0.140982
0.141001
0.141019
0.141035
0.141048
0.141059
0.141067
0.141071
0.141072
0.141069
0.141061
0.141049
0.141032
0.141009
0.14098
0.140945
0.140904
0.140856
0.140804
0.14075
0.140696
0.140669
0.140607
0.140764
0.141007
0.141034
0.14106
0.141093
0.141128
0.141166
0.141208
0.141252
0.141297
0.141342
0.141394
0.141463
0.141553
0.141672
0.14182
0.142005
0.142266
0.142364
0.143105
0.145866
0.139753
0.126711
0.177647
0.343265
0.562541
0.758292
0.952254
1.18209
1.44989
1.76596
2.21866
2.70828
3.12714
3.34092
3.22776
2.62916
1.63982
0.713732
0.862858
0.140979
0.140948
0.140919
0.140894
0.140882
0.140863
0.140844
0.14084
0.140845
0.140856
0.140871
0.140889
0.140909
0.140931
0.140952
0.140974
0.140995
0.141015
0.141033
0.141049
0.141064
0.141076
0.141086
0.141093
0.141097
0.141098
0.141096
0.14109
0.141081
0.141067
0.14105
0.141028
0.141002
0.140973
0.140942
0.140912
0.140899
0.140863
0.140986
0.140976
0.141002
0.141029
0.141062
0.141097
0.141136
0.141179
0.141224
0.141271
0.141317
0.141369
0.141437
0.141525
0.141638
0.141781
0.141956
0.142204
0.142414
0.142607
0.144864
0.144555
0.13079
0.143631
0.255872
0.455786
0.674001
0.910622
1.19779
1.50961
1.91391
2.40231
2.90753
3.32848
3.53071
3.38854
2.7273
1.60843
0.645001
0.918434
0.140948
0.140918
0.14089
0.140867
0.140857
0.140841
0.140825
0.140821
0.140826
0.140837
0.140852
0.140871
0.140891
0.140913
0.140935
0.140958
0.14098
0.141001
0.141021
0.141039
0.141056
0.141072
0.141085
0.141096
0.141105
0.141112
0.141117
0.141119
0.141118
0.141115
0.141109
0.1411
0.141088
0.141074
0.141059
0.141044
0.141041
0.141021
0.141121
0.140943
0.140969
0.140996
0.14103
0.141066
0.141105
0.141149
0.141194
0.141242
0.141289
0.141341
0.141408
0.141494
0.141602
0.141738
0.141906
0.142126
0.142408
0.142492
0.143667
0.146025
0.138006
0.130487
0.191136
0.354326
0.579353
0.854093
1.20191
1.58165
2.04486
2.5668
3.08974
3.51639
3.7106
3.54069
2.8129
1.56891
0.583881
0.98714
0.140916
0.140887
0.14086
0.140838
0.14083
0.140817
0.140801
0.140798
0.140803
0.140814
0.140829
0.140848
0.140868
0.14089
0.140913
0.140936
0.140959
0.140981
0.141002
0.141022
0.14104
0.141058
0.141073
0.141087
0.1411
0.141111
0.14112
0.141127
0.141133
0.141136
0.141138
0.141138
0.141135
0.141131
0.141127
0.141122
0.141126
0.141116
0.141201
0.14091
0.140936
0.140963
0.140997
0.141033
0.141073
0.141118
0.141164
0.141212
0.14126
0.141311
0.141375
0.141459
0.141563
0.141693
0.141854
0.142052
0.142339
0.142521
0.142916
0.145417
0.143536
0.130917
0.151525
0.268042
0.48181
0.785017
1.19092
1.64168
2.15525
2.71086
3.25423
3.69029
3.88035
3.68467
2.88888
1.5242
0.529792
1.05622
0.140883
0.140855
0.140829
0.140808
0.140802
0.14079
0.140776
0.140773
0.140777
0.140788
0.140804
0.140822
0.140843
0.140865
0.140888
0.140911
0.140934
0.140956
0.140978
0.140999
0.141018
0.141037
0.141054
0.14107
0.141085
0.141098
0.14111
0.141121
0.141131
0.141139
0.141146
0.141152
0.141156
0.141159
0.141161
0.141163
0.141172
0.141169
0.141244
0.140876
0.140902
0.14093
0.140964
0.141001
0.141041
0.141086
0.141132
0.141181
0.14123
0.14128
0.141342
0.141422
0.141523
0.141647
0.141801
0.141986
0.142242
0.142528
0.142641
0.144203
0.145921
0.136819
0.133487
0.202727
0.388844
0.706213
1.16264
1.68066
2.24303
2.83338
3.40006
3.84939
4.03957
3.82088
2.95739
1.47781
0.482406
1.11213
0.14085
0.140823
0.140798
0.140778
0.140772
0.140762
0.140749
0.140745
0.14075
0.140761
0.140776
0.140795
0.140815
0.140837
0.14086
0.140883
0.140906
0.140929
0.140951
0.140972
0.140992
0.141011
0.141029
0.141046
0.141063
0.141078
0.141092
0.141105
0.141118
0.141129
0.14114
0.141149
0.141158
0.141165
0.141173
0.14118
0.141192
0.141193
0.14126
0.140843
0.140869
0.140897
0.140932
0.140969
0.141009
0.141054
0.141101
0.14115
0.141199
0.141249
0.141309
0.141385
0.141482
0.141602
0.141748
0.141925
0.142148
0.142468
0.142618
0.143254
0.145899
0.142587
0.13027
0.159549
0.30643
0.621149
1.11634
1.69572
2.30645
2.93311
3.5262
3.9928
4.18775
3.94966
3.02029
1.43346
0.439294
1.14362
0.140817
0.140791
0.140766
0.140747
0.140741
0.140733
0.14072
0.140717
0.140722
0.140733
0.140748
0.140766
0.140786
0.140808
0.140831
0.140854
0.140877
0.140899
0.140921
0.140943
0.140963
0.140983
0.141001
0.141019
0.141036
0.141052
0.141068
0.141082
0.141096
0.14111
0.141123
0.141135
0.141146
0.141157
0.141168
0.141178
0.141192
0.141197
0.141257
0.140811
0.140836
0.140864
0.1409
0.140937
0.140978
0.141023
0.141069
0.141118
0.141168
0.141218
0.141276
0.141349
0.141441
0.141556
0.141695
0.141866
0.142068
0.142365
0.142639
0.142792
0.14482
0.14588
0.134431
0.135756
0.238304
0.533462
1.05251
1.68574
2.34394
3.00869
3.63139
4.1195
4.32436
4.0715
3.08054
1.39368
0.402087
1.13662
0.140785
0.140759
0.140735
0.140716
0.14071
0.140703
0.140691
0.140688
0.140693
0.140704
0.140718
0.140736
0.140756
0.140778
0.1408
0.140823
0.140846
0.140868
0.14089
0.140912
0.140932
0.140952
0.140971
0.140989
0.141006
0.141023
0.141039
0.141054
0.141069
0.141084
0.141098
0.141112
0.141125
0.141138
0.141151
0.141163
0.141179
0.141186
0.141241
0.140779
0.140804
0.140832
0.140868
0.140905
0.140946
0.140991
0.141037
0.141086
0.141136
0.141186
0.141243
0.141313
0.141401
0.141511
0.141644
0.141808
0.141999
0.142254
0.142605
0.142682
0.143696
0.146678
0.140399
0.126941
0.186096
0.446706
0.972396
1.6501
2.3546
3.05819
3.71421
4.22839
4.44884
4.18695
3.14137
1.36292
0.369885
1.07772
0.140754
0.140728
0.140704
0.140685
0.14068
0.140673
0.140662
0.140659
0.140664
0.140674
0.140689
0.140707
0.140727
0.140748
0.14077
0.140792
0.140815
0.140837
0.140859
0.14088
0.1409
0.14092
0.140939
0.140957
0.140974
0.140991
0.141007
0.141023
0.141039
0.141054
0.141068
0.141083
0.141097
0.141111
0.141125
0.141139
0.141155
0.141165
0.141215
0.140748
0.140773
0.140801
0.140837
0.140874
0.140915
0.14096
0.141006
0.141054
0.141104
0.141153
0.141209
0.141278
0.141363
0.141467
0.141594
0.14175
0.141936
0.142158
0.142511
0.14271
0.142974
0.145933
0.145093
0.127626
0.149652
0.364117
0.878019
1.58859
2.33746
3.08055
3.77276
4.31825
4.56063
4.29671
3.20599
1.34526
0.330501
0.986
0.140723
0.140698
0.140674
0.140654
0.140649
0.140643
0.140633
0.14063
0.140634
0.140645
0.14066
0.140677
0.140697
0.140718
0.140739
0.140761
0.140783
0.140805
0.140827
0.140848
0.140868
0.140887
0.140905
0.140923
0.140941
0.140957
0.140973
0.140989
0.141005
0.14102
0.141035
0.14105
0.141064
0.141079
0.141093
0.141108
0.141124
0.141135
0.141181
0.140718
0.140743
0.140771
0.140807
0.140844
0.140885
0.140929
0.140975
0.141023
0.141072
0.141121
0.141176
0.141243
0.141325
0.141425
0.141546
0.141694
0.141875
0.14208
0.142391
0.142727
0.142683
0.144658
0.147482
0.133078
0.127612
0.288733
0.771922
1.50147
2.29161
3.07468
3.80563
4.38751
4.6591
4.4016
3.27775
1.34458
0.285814
0.873633
0.140693
0.140668
0.140644
0.140625
0.140618
0.140613
0.140603
0.140601
0.140605
0.140616
0.140631
0.140648
0.140667
0.140688
0.140709
0.140731
0.140752
0.140774
0.140795
0.140815
0.140835
0.140854
0.140872
0.140889
0.140906
0.140922
0.140938
0.140954
0.140969
0.140984
0.140998
0.141013
0.141028
0.141042
0.141057
0.141071
0.141088
0.141099
0.141142
0.140688
0.140713
0.140742
0.140777
0.140814
0.140855
0.140899
0.140945
0.140992
0.141041
0.141089
0.141142
0.141207
0.141288
0.141384
0.1415
0.14164
0.141813
0.142012
0.142274
0.142678
0.142666
0.143522
0.147784
0.139707
0.118075
0.223534
0.657498
1.38942
2.21612
3.03946
3.81161
4.43477
4.74339
4.50233
3.36017
1.36504
0.239712
0.749641
0.140664
0.140639
0.140615
0.140595
0.140588
0.140582
0.140574
0.140572
0.140577
0.140587
0.140602
0.140619
0.140638
0.140658
0.140679
0.1407
0.140721
0.140742
0.140762
0.140782
0.140801
0.14082
0.140837
0.140854
0.140871
0.140887
0.140902
0.140917
0.140931
0.140946
0.14096
0.140974
0.140989
0.141003
0.141017
0.141032
0.141048
0.14106
0.141099
0.14066
0.140684
0.140713
0.140749
0.140786
0.140826
0.14087
0.140915
0.140961
0.14101
0.141058
0.141109
0.141172
0.14125
0.141344
0.141456
0.141589
0.141753
0.141948
0.142175
0.14257
0.142741
0.142815
0.14675
0.145187
0.118124
0.171256
0.539088
1.25385
2.11002
2.97365
3.78921
4.45887
4.81228
4.59953
3.45667
1.41156
0.196732
0.622575
0.140635
0.140611
0.140587
0.140567
0.140558
0.140553
0.140545
0.140543
0.140549
0.140559
0.140574
0.140591
0.140609
0.140629
0.140649
0.14067
0.14069
0.140711
0.140731
0.14075
0.140768
0.140786
0.140803
0.140819
0.140835
0.14085
0.140865
0.140879
0.140893
0.140907
0.14092
0.140934
0.140948
0.140962
0.140975
0.140989
0.141005
0.141017
0.141054
0.140632
0.140657
0.140686
0.140721
0.140757
0.140798
0.140841
0.140885
0.140931
0.140979
0.141027
0.141077
0.141138
0.141213
0.141304
0.141413
0.141541
0.141695
0.141885
0.142095
0.142437
0.142785
0.142545
0.145198
0.148388
0.124432
0.134081
0.42236
1.09722
1.97237
2.87566
3.73682
4.45817
4.86442
4.69353
3.57017
1.48992
0.162211
0.500645
0.140608
0.140584
0.14056
0.140539
0.140529
0.140523
0.140516
0.140515
0.140521
0.140532
0.140546
0.140563
0.140581
0.140601
0.14062
0.14064
0.14066
0.14068
0.140699
0.140718
0.140736
0.140753
0.140769
0.140784
0.140799
0.140814
0.140827
0.140841
0.140854
0.140867
0.14088
0.140893
0.140906
0.140919
0.140932
0.140946
0.140961
0.140973
0.141007
0.140605
0.14063
0.140659
0.140694
0.14073
0.14077
0.140813
0.140857
0.140902
0.140949
0.140996
0.141045
0.141104
0.141176
0.141264
0.14137
0.141494
0.141641
0.141822
0.142026
0.142309
0.142749
0.142569
0.143771
0.149173
0.13347
0.113127
0.314218
0.923866
1.80252
2.74351
3.65231
4.4305
4.89816
4.78414
3.70338
1.60671
0.143394
0.389987
0.140581
0.140557
0.140533
0.140511
0.1405
0.140494
0.140487
0.140487
0.140494
0.140505
0.14052
0.140536
0.140554
0.140573
0.140592
0.140611
0.140631
0.14065
0.140668
0.140686
0.140703
0.140719
0.140735
0.140749
0.140763
0.140777
0.14079
0.140802
0.140814
0.140827
0.140839
0.140851
0.140863
0.140875
0.140888
0.140901
0.140916
0.140928
0.140961
0.140579
0.140604
0.140633
0.140668
0.140704
0.140743
0.140785
0.140829
0.140873
0.14092
0.140967
0.141015
0.141071
0.14114
0.141225
0.141327
0.141447
0.141589
0.14176
0.141961
0.1422
0.142639
0.142703
0.142832
0.148114
0.141994
0.107515
0.222442
0.74068
1.60076
2.57465
3.533
4.37304
4.91141
4.87038
3.85749
1.77011
0.149405
0.293101
0.140555
0.140531
0.140507
0.140485
0.140472
0.140465
0.140459
0.14046
0.140467
0.140479
0.140493
0.14051
0.140527
0.140546
0.140564
0.140583
0.140601
0.14062
0.140637
0.140654
0.140671
0.140686
0.140701
0.140715
0.140728
0.14074
0.140752
0.140764
0.140775
0.140786
0.140797
0.140809
0.14082
0.140832
0.140844
0.140856
0.14087
0.140883
0.140915
0.140554
0.140578
0.140607
0.140642
0.140678
0.140717
0.140759
0.140801
0.140846
0.140892
0.140938
0.140985
0.141039
0.141106
0.141187
0.141284
0.141401
0.141538
0.141701
0.141897
0.142112
0.142491
0.1428
0.142452
0.146154
0.147714
0.113733
0.154261
0.557945
1.3695
2.3662
3.37529
4.2821
4.90151
4.94999
4.03244
1.98581
0.193753
0.207003
0.14053
0.140506
0.140482
0.140459
0.140445
0.140437
0.140432
0.140434
0.140441
0.140453
0.140468
0.140484
0.140501
0.140519
0.140537
0.140555
0.140573
0.14059
0.140607
0.140623
0.140639
0.140653
0.140667
0.14068
0.140692
0.140703
0.140714
0.140725
0.140736
0.140746
0.140756
0.140767
0.140777
0.140788
0.1408
0.140812
0.140826
0.14084
0.140871
0.140529
0.140554
0.140583
0.140617
0.140653
0.140692
0.140733
0.140775
0.140819
0.140864
0.140909
0.140956
0.141009
0.141073
0.14115
0.141243
0.141355
0.141487
0.141643
0.141832
0.14204
0.142344
0.142789
0.14248
0.144233
0.149795
0.12618
0.1143
0.389436
1.11507
2.11555
3.17439
4.15287
4.86448
5.01905
4.22526
2.26215
0.29209
0.124833
0.140505
0.140482
0.140457
0.140434
0.140419
0.14041
0.140405
0.140408
0.140416
0.140429
0.140443
0.140459
0.140476
0.140493
0.14051
0.140527
0.140544
0.140561
0.140577
0.140592
0.140607
0.140621
0.140633
0.140645
0.140656
0.140667
0.140677
0.140687
0.140697
0.140706
0.140716
0.140726
0.140736
0.140746
0.140758
0.14077
0.140784
0.1408
0.140831
0.140505
0.14053
0.140559
0.140593
0.140629
0.140667
0.140708
0.14075
0.140793
0.140837
0.140882
0.140928
0.14098
0.141042
0.141116
0.141204
0.14131
0.141436
0.141586
0.141766
0.141972
0.142221
0.142675
0.142665
0.142962
0.148882
0.13872
0.101794
0.25076
0.849849
1.82218
2.92439
3.97876
4.79354
5.07248
4.43219
2.60879
0.476467
0.0455597
0.140481
0.140458
0.140433
0.140409
0.140394
0.140384
0.14038
0.140383
0.140392
0.140405
0.140419
0.140435
0.140451
0.140467
0.140484
0.1405
0.140516
0.140532
0.140547
0.140562
0.140576
0.140588
0.1406
0.140611
0.140621
0.140631
0.14064
0.14065
0.140658
0.140667
0.140676
0.140686
0.140696
0.140706
0.140717
0.14073
0.140746
0.140763
0.140795
0.140482
0.140506
0.140535
0.14057
0.140605
0.140643
0.140684
0.140725
0.140768
0.140812
0.140856
0.140901
0.140951
0.141011
0.141083
0.141167
0.141267
0.141387
0.141529
0.1417
0.141904
0.142125
0.142511
0.142793
0.142472
0.146526
0.146927
0.109512
0.155111
0.59371
1.49084
2.61892
3.75106
4.67933
5.10371
4.64278
3.00654
0.774405
0.0197215
0.140458
0.140434
0.140409
0.140386
0.140369
0.140358
0.140355
0.140359
0.140369
0.140382
0.140396
0.140411
0.140427
0.140442
0.140458
0.140473
0.140489
0.140504
0.140518
0.140532
0.140545
0.140557
0.140567
0.140578
0.140587
0.140596
0.140605
0.140613
0.140621
0.14063
0.140639
0.140648
0.140658
0.140668
0.14068
0.140694
0.140712
0.140732
0.140765
0.140459
0.140483
0.140512
0.140547
0.140582
0.140621
0.140661
0.140702
0.140744
0.140787
0.140831
0.140875
0.140924
0.140982
0.141051
0.141132
0.141227
0.14134
0.141474
0.141635
0.141831
0.142046
0.14235
0.142775
0.142508
0.144272
0.149572
0.125957
0.107916
0.372757
1.1359
2.25392
3.4589
4.50949
5.10079
4.84601
3.45072
1.20292
0.0130679
0.140435
0.140411
0.140387
0.140363
0.140345
0.140333
0.14033
0.140336
0.140346
0.140359
0.140374
0.140388
0.140403
0.140418
0.140433
0.140447
0.140462
0.140476
0.140489
0.140502
0.140514
0.140525
0.140535
0.140545
0.140554
0.140562
0.14057
0.140578
0.140586
0.140595
0.140603
0.140613
0.140623
0.140635
0.140648
0.140664
0.140683
0.140706
0.140742
0.140436
0.140461
0.14049
0.140525
0.14056
0.140599
0.140639
0.140679
0.140721
0.140763
0.140807
0.14085
0.140897
0.140953
0.14102
0.141098
0.141189
0.141296
0.141422
0.141573
0.141757
0.141969
0.142218
0.142638
0.142692
0.142952
0.148266
0.140458
0.101101
0.212086
0.785151
1.83271
3.09041
4.26803
5.04611
5.03006
3.91712
1.79885
0.0662126
0.140412
0.140389
0.140364
0.14034
0.140322
0.140309
0.140307
0.140313
0.140325
0.140338
0.140352
0.140366
0.14038
0.140394
0.140408
0.140421
0.140435
0.140448
0.140461
0.140473
0.140484
0.140495
0.140504
0.140513
0.140521
0.140529
0.140537
0.140545
0.140554
0.140562
0.140571
0.140582
0.140593
0.140606
0.140621
0.140639
0.140661
0.140687
0.140724
0.140414
0.140439
0.140469
0.140504
0.140539
0.140577
0.140617
0.140658
0.140699
0.140741
0.140783
0.140826
0.140872
0.140926
0.14099
0.141065
0.141152
0.141254
0.141373
0.141514
0.141684
0.141889
0.142114
0.142459
0.142766
0.142558
0.145662
0.14775
0.116363
0.12476
0.478686
1.37434
2.63699
3.93527
4.916
5.17287
4.37952
2.56442
0.627499
0.14039
0.140367
0.140343
0.140319
0.140299
0.140286
0.140285
0.140292
0.140304
0.140317
0.140331
0.140344
0.140357
0.14037
0.140383
0.140396
0.140409
0.140421
0.140433
0.140445
0.140455
0.140465
0.140474
0.140483
0.140491
0.140499
0.140507
0.140515
0.140524
0.140534
0.140544
0.140555
0.140568
0.140583
0.140601
0.140621
0.140645
0.140675
0.140714
0.140393
0.140418
0.140448
0.140484
0.140519
0.140557
0.140597
0.140637
0.140678
0.140719
0.140761
0.140804
0.140848
0.1409
0.140962
0.141033
0.141117