/*--------------------------------*- C++ -*----------------------------------*\
  =========                 |
  \\      /  F ield         | OpenFOAM: The Open Source CFD Toolbox
   \\    /   O peration     | Website:  https://openfoam.org
    \\  /    A nd           | Version:  9
     \\/     M anipulation  |
\*---------------------------------------------------------------------------*/
FoamFile
{
    format      ascii;
    class       surfaceScalarField;
    location    "100";
    object      phi;
}
// * * * * * * * * * * * * * * * * * * * * * * * * * * * * * * * * * * * * * //

dimensions      [0 3 -1 0 0 0 0];

internalField   nonuniform List<scalar> 
21254
(
-0.0890025
0.093483
-0.00448256
0.0982678
-0.0047843
0.101184
-0.00291741
0.102583
-0.00140074
0.102268
0.00031518
0.0987964
0.00347153
0.0918575
0.00694129
0.081294
0.0105644
0.0668538
0.0144386
0.0497606
0.0170882
0.0320179
0.0177343
0.0161446
0.0158626
0.00439606
0.0117349
-0.00284741
0.00722729
-0.00707471
0.00421281
-0.00896031
0.00187003
-0.00859458
-0.000377344
-0.00616931
-0.00241401
-0.00305822
-0.00310463
-0.00189706
-0.00113315
-0.00422589
0.00232835
-0.010232
0.00604373
-0.016413
0.00613429
-0.017337
0.000964678
-0.00999336
-0.0072146
0.00806664
-0.018
0.0315553
-0.023518
0.0532348
-0.0218492
0.0682779
-0.0150233
0.0739077
-0.00551197
0.0702195
0.00360303
0.0620341
0.0081729
0.0547275
0.00726577
0.0505397
0.00343729
0.0521414
-0.000959692
0.0637413
-0.0116067
0.0961486
-0.032534
0.114994
-0.0188952
0.120075
-0.00840421
-0.0828793
-0.00612352
-0.0763856
-0.00649408
-0.0677304
-0.00865515
-0.057692
-0.0100381
-0.0466343
-0.0110552
-0.034647
-0.0119852
-0.0221966
-0.0124479
-0.0100158
-0.0121782
0.00117559
-0.0111889
0.0111889
-0.0100119
0.0200762
-0.00888722
0.0278991
-0.00782304
0.0348127
-0.00691413
0.0408999
-0.00608715
0.0463188
-0.00541888
0.0511545
-0.00483514
0.0555879
-0.00443282
0.0597352
-0.00414569
0.0637216
-0.00398498
0.0675975
-0.00387298
0.0714312
-0.00383256
0.0752395
-0.00380553
0.0790115
-0.00377514
0.0825176
-0.00351035
0.0856771
-0.00316357
0.0886019
-0.00292886
0.091294
-0.00269566
0.0938076
-0.00251964
0.0961741
-0.00236129
0.0984291
-0.00228096
0.100637
-0.0022252
0.102861
-0.00223579
0.105189
-0.00235239
0.107761
-0.00259542
0.110801
-0.0030567
0.114528
-0.00361879
0.119635
-0.00519553
0.126553
-0.0060539
0.142601
-0.0167097
-0.0818354
0.0874444
-0.0100941
0.0928515
-0.0101912
0.0980304
-0.00809808
0.102478
-0.00584844
0.106777
-0.00398363
0.110704
-0.000453256
0.113743
0.00390403
0.114863
0.00944507
0.112264
0.0170367
0.10404
0.0253093
0.0889958
0.0327745
0.068231
0.0366244
0.045211
0.0347518
0.0244739
0.0279616
0.00985258
0.0188289
0.0012387
0.0104764
-0.00323996
0.00409818
-0.00428862
-0.00135781
-0.0029439
-0.00444393
-0.00348433
-0.000586643
-0.00892946
0.00777077
-0.0151701
0.0122841
-0.0184848
0.00941136
-0.0169051
-0.000636377
-0.00704381
-0.0170591
0.0118671
-0.0368946
0.0350416
-0.0466813
0.0565206
-0.0433645
0.0712207
-0.0296889
0.0773667
-0.0115715
0.0763024
0.00470517
0.0701227
0.0143017
0.0600441
0.0173377
0.0492967
0.0138306
0.0471277
0.0014366
0.0613569
-0.0259291
0.096715
-0.068155
0.119977
-0.0423796
0.126275
-0.0177989
-0.0757909
-0.0121682
-0.069078
-0.013208
-0.0609024
-0.01683
-0.0518786
-0.0190606
-0.0418998
-0.0210324
-0.0310927
-0.0227901
-0.0199703
-0.0235688
-0.00904458
-0.0231027
0.0014999
-0.0217324
0.0114124
-0.0199239
0.0202934
-0.0177683
0.0282074
-0.0157373
0.0352899
-0.013997
0.0416513
-0.0124482
0.0474399
-0.0112071
0.0527443
-0.0101382
0.0576561
-0.00934326
0.0622899
-0.00877713
0.0667464
-0.00843943
0.0710758
-0.00819956
0.0753428
-0.00809843
0.0795889
-0.00805064
0.083799
-0.00799
0.08781
-0.00752842
0.0915101
-0.00687349
0.0949809
-0.00640792
0.0982279
-0.00595071
0.101283
-0.00557881
0.104183
-0.00525735
0.106946
-0.00506793
0.109642
-0.00493293
0.112344
-0.00495021
0.115135
-0.0051609
0.118159
-0.00564524
0.121651
-0.00655862
0.125897
-0.00783158
0.13153
-0.0109001
0.139718
-0.0131578
0.154177
-0.0323399
-0.0799786
0.0854856
-0.0155995
0.0906531
-0.0153612
0.0957612
-0.0132053
0.0998724
-0.00996017
0.103057
-0.00716672
0.105555
-0.00294898
0.107723
0.0017402
0.110253
0.00691548
0.113103
0.0141845
0.115067
0.023343
0.112883
0.0349548
0.10295
0.0465556
0.0841335
0.0535676
0.0598637
0.0522304
0.0361037
0.0425871
0.0179392
0.0286368
0.00652254
0.0155123
0.000442592
0.00472735
-0.00186502
-0.0021267
-0.00391938
0.00148025
-0.00893283
0.0127915
-0.0144855
0.0178518
-0.0180253
0.0129477
-0.0163944
-0.00223296
-0.00582378
-0.0275621
0.0134555
-0.0561458
0.036692
-0.0699343
0.0578885
-0.0646529
0.0720723
-0.0438791
0.0770723
-0.0165151
0.0745403
0.00713998
0.0673427
0.0215243
0.0552287
0.0294274
0.0418724
0.0268578
0.0400728
0.00357861
0.0579875
-0.0437941
0.0966641
-0.106786
0.123353
-0.068994
0.130764
-0.0262197
-0.074123
-0.0180247
-0.0673265
-0.0200038
-0.0588121
-0.0253437
-0.0495561
-0.0283149
-0.0395033
-0.031083
-0.0286728
-0.0336194
-0.0175921
-0.0346487
-0.0069168
-0.0337775
0.0032942
-0.0319432
0.0129016
-0.0295313
0.0216597
-0.0265262
0.0295985
-0.0236761
0.0367944
-0.0211926
0.0433199
-0.0189734
0.0492874
-0.017174
0.0548055
-0.0156558
0.0599576
-0.0144945
0.0648348
-0.0136533
0.0695199
-0.013123
0.0740812
-0.0127591
0.0785945
-0.0126098
0.0830779
-0.0125324
0.0875112
-0.0124236
0.0917885
-0.0118073
0.0957974
-0.0108832
0.0995752
-0.0101862
0.103155
-0.00953192
0.106562
-0.00898896
0.109849
-0.00854183
0.113019
-0.00825426
0.116161
-0.00808619
0.119327
-0.00812678
0.122626
-0.00847708
0.126187
-0.00922587
0.130249
-0.0106238
0.135124
-0.012582
0.141259
-0.0171453
0.150433
-0.021909
0.164251
-0.0463817
-0.0779772
0.0839399
-0.0215636
0.0895577
-0.0209781
0.0952746
-0.0189224
0.100031
-0.0147156
0.104076
-0.0112095
0.107327
-0.00619532
0.109674
-0.000605026
0.11119
0.00540086
0.112601
0.0127715
0.114815
0.0211253
0.11758
0.032187
0.117681
0.0464535
0.109996
0.061253
0.0919169
0.0703092
0.066644
0.0678599
0.0411575
0.054122
0.0213748
0.035295
0.00871594
0.0173882
0.00190048
0.00469324
-0.0018372
0.00521992
-0.00691569
0.0178688
-0.0130125
0.0239433
-0.0173398
0.0172557
-0.0160617
-0.00353081
-0.00549487
-0.0381364
0.0138266
-0.0754712
0.0370276
-0.0931334
0.0578948
-0.0855342
0.0715271
-0.0574902
0.075669
-0.0206071
0.07186
0.0109729
0.0627213
0.0306426
0.0477724
0.0443833
0.033001
0.0414493
0.033431
0.00325002
0.0554199
-0.0658583
0.0973487
-0.148908
0.126868
-0.0986691
0.134856
-0.0358804
-0.0718282
-0.0241733
-0.0649283
-0.0269028
-0.0562085
-0.0340617
-0.0468685
-0.0376527
-0.0367477
-0.0412025
-0.0258305
-0.0445355
-0.0147458
-0.0457331
-0.0041394
-0.0443838
0.00590275
-0.0419854
0.015328
-0.0389566
0.0239596
-0.0351579
0.0318333
-0.0315499
0.0390445
-0.0284036
0.0456407
-0.0255692
0.0517312
-0.0232634
0.0574082
-0.0213318
0.0627585
-0.0198429
0.0678436
-0.0187368
0.0727495
-0.0180263
0.0775391
-0.0175468
0.0822617
-0.0173306
0.086954
-0.0172246
0.0916062
-0.0170784
0.0961075
-0.0163146
0.100358
-0.0151419
0.104381
-0.0142181
0.108201
-0.0133605
0.111852
-0.012646
0.11537
-0.0120608
0.118791
-0.0116927
0.122188
-0.0114929
0.125631
-0.0115805
0.129218
-0.0120797
0.133104
-0.0131362
0.137523
-0.0150527
0.142813
-0.0178542
0.1494
-0.0238156
0.159184
-0.0309286
0.173248
-0.0613768
-0.0774335
0.0836584
-0.0277888
0.0895605
-0.0268798
0.0957193
-0.0250804
0.100734
-0.0197282
0.105149
-0.0156212
0.108777
-0.00981962
0.111505
-0.00333049
0.113369
0.00353694
0.114615
0.011523
0.115635
0.0201031
0.11762
0.0301986
0.120768
0.0433053
0.121793
0.0602281
0.114293
0.0778107
0.0950749
0.0870784
0.0680602
0.0811373
0.0414295
0.0619265
0.0211293
0.0376929
0.00847858
0.0173517
0.00182686
0.0118826
-0.00402155
0.0237244
-0.0110455
0.0309785
-0.016315
0.0225298
-0.0158042
-0.0040123
-0.00579757
-0.0480941
0.0132131
-0.0944517
0.0361772
-0.116098
0.0566189
-0.106039
0.069725
-0.0706041
0.0731608
-0.024011
0.0680816
0.0159758
0.0563666
0.0423798
0.0381954
0.0625337
0.0231917
0.0561998
0.0272065
-0.000483234
0.0533814
-0.0919594
0.0984117
-0.193871
0.130724
-0.130885
0.138887
-0.0444213
-0.0709121
-0.0306936
-0.0637232
-0.0340901
-0.0545143
-0.043268
-0.0448118
-0.0473532
-0.034352
-0.0516608
-0.0231205
-0.0557665
-0.0117743
-0.0570792
-0.00103309
-0.0551254
0.00900886
-0.0520279
0.0183732
-0.0483213
0.0269276
-0.0437127
0.0347298
-0.0393518
0.0419214
-0.035595
0.0485474
-0.0321944
0.0547122
-0.0294275
0.0605178
-0.0271363
0.0660248
-0.025349
0.0712929
-0.0240035
0.0763923
-0.0231246
0.0813844
-0.022537
0.0863166
-0.0222614
0.0912133
-0.0221193
0.096074
-0.0219388
0.100802
-0.0210415
0.105293
-0.0196328
0.109555
-0.0184785
0.113611
-0.0174164
0.117496
-0.0165306
0.121247
-0.0158134
0.124893
-0.0153412
0.12851
-0.0151183
0.132185
-0.0152618
0.136017
-0.0159261
0.140155
-0.0172864
0.144869
-0.0197584
0.150508
-0.0233621
0.157495
-0.0309262
0.167755
-0.0410178
0.182338
-0.0759356
-0.0773157
0.0839184
-0.034391
0.0903156
-0.0332766
0.0969452
-0.0317095
0.102407
-0.0251872
0.107205
-0.020416
0.111361
-0.0139708
0.114517
-0.00648417
0.116916
0.00113809
0.118489
0.00994732
0.119354
0.0192348
0.12004
0.02951
0.12184
0.0415048
0.125203
0.0568658
0.1259
0.0771158
0.116522
0.0964572
0.0944562
0.103205
0.0652341
0.0911491
0.0379321
0.0649964
0.018251
0.0370343
0.00710715
0.0230273
-0.000341669
0.0311708
-0.00838434
0.0390164
-0.0147539
0.0288861
-0.0154364
-0.00334649
-0.00653517
-0.0570112
0.0117618
-0.11276
0.0342158
-0.138559
0.0540696
-0.125903
0.0666197
-0.0831422
0.0693035
-0.0266586
0.0626755
0.022614
0.0477554
0.0572955
0.0265911
0.0837119
0.0129139
0.0697374
0.0215077
-0.00900957
0.0517976
-0.122321
0.0997939
-0.242046
0.134872
-0.166079
0.143094
-0.0536772
-0.0704263
-0.0375813
-0.0629103
-0.0416037
-0.0531988
-0.0529763
-0.0430177
-0.0575323
-0.0321083
-0.0625691
-0.0204374
-0.0674372
-0.0087116
-0.068805
0.0022769
-0.0661143
0.0124529
-0.0622045
0.0218758
-0.0577446
0.0304256
-0.0522628
0.0381931
-0.0471191
0.0453633
-0.0427649
0.0520005
-0.0388306
0.0582128
-0.0356389
0.0641018
-0.0330238
0.0697265
-0.0309723
0.075149
-0.0294239
0.080422
-0.0283956
0.0856005
-0.0277134
0.0907297
-0.0273891
0.0958316
-0.0272206
0.100899
-0.0270078
0.105866
-0.0260134
0.110604
-0.024377
0.115102
-0.022986
0.119404
-0.0217287
0.123525
-0.0206615
0.127511
-0.0198035
0.131391
-0.0192364
0.135243
-0.01898
0.139146
-0.0191758
0.143209
-0.0200037
0.147615
-0.0217166
0.152599
-0.0247525
0.158579
-0.0293393
0.165941
-0.0383787
0.176692
-0.0512768
0.191744
-0.0916618
-0.0779005
0.0849792
-0.0414673
0.0917288
-0.0400279
0.0988722
-0.0388518
0.104764
-0.0310762
0.109983
-0.0256305
0.114483
-0.0184668
0.118025
-0.0100235
0.120697
-0.00153424
0.122684
0.00795772
0.123951
0.0179642
0.124509
0.0289504
0.124985
0.0410272
0.12697
0.0548823
0.130413
0.0736756
0.129528
0.097345
0.116253
0.116481
0.0899049
0.1175
0.0585245
0.0963805
0.0316821
0.0638832
0.0145507
0.0401667
0.0044306
0.0412985
-0.00479657
0.0482513
-0.0124466
0.0365436
-0.014723
-0.00104858
-0.00748718
-0.0642091
0.00960388
-0.129818
0.0311824
-0.160127
0.0501895
-0.144947
0.0620154
-0.0949731
0.0637676
-0.0283827
0.0551211
0.0312013
0.0364977
0.0759294
0.0132717
0.10692
0.00265669
0.0801172
0.0163559
-0.0224394
0.0506035
-0.156488
0.101453
-0.292832
0.139368
-0.203884
0.147542
-0.0620268
-0.0705605
-0.04492
-0.0626036
-0.0495567
-0.0523207
-0.0632567
-0.0415854
-0.0682654
-0.0301379
-0.074016
-0.0178854
-0.0796892
-0.00566539
-0.0810253
0.00569962
-0.07748
0.0161377
-0.0726434
0.0257501
-0.067358
0.0343675
-0.0608806
0.0421506
-0.0549025
0.0493205
-0.0499342
0.0559615
-0.045471
0.0621969
-0.0418731
0.0681454
-0.0389713
0.0738638
-0.0366892
0.0794098
-0.0349689
0.0848369
-0.033821
0.0901901
-0.0330655
0.0955061
-0.032703
0.100805
-0.0325185
0.106091
-0.0322915
0.111279
-0.0312011
0.116268
-0.0293627
0.121028
-0.0277448
0.125575
-0.0262718
0.129947
-0.0250337
0.134172
-0.0240237
0.138298
-0.0233609
0.142384
-0.0230656
0.146531
-0.0233284
0.150853
-0.0243313
0.155509
-0.0263845
0.160792
-0.0300066
0.167106
-0.0355213
0.174842
-0.0462503
0.186075
-0.0624454
0.201525
-0.106989
-0.0789288
0.0864881
-0.0490304
0.0937491
-0.0472894
0.101451
-0.0465541
0.107738
-0.0373606
0.113375
-0.0312629
0.118271
-0.0233565
0.122138
-0.0138888
0.125197
-0.00459357
0.127395
0.00575633
0.128963
0.0163934
0.129899
0.0280115
0.130112
0.0408148
0.130456
0.0545393
0.132844
0.0712905
0.135901
0.0942902
0.13156
0.120824
0.112469
0.136592
0.0813564
0.127494
0.048841
0.0963998
0.0248165
0.0641907
0.0107159
0.0553972
-7.07727e-05
0.0590326
-0.00917877
0.0456421
-0.0134141
0.00317166
-0.00840924
-0.0692307
0.00689647
-0.14514
0.0271425
-0.180384
0.0449272
-0.162745
0.055722
-0.105763
0.0561896
-0.0288238
0.0449023
0.0424874
0.0224123
0.0984231
-0.00120967
0.130563
-0.00713499
0.0859281
0.0116923
-0.0412147
0.0497309
-0.194596
0.103309
-0.346585
0.144109
-0.244758
0.152316
-0.0709094
-0.0711268
-0.052719
-0.0627148
-0.0579672
-0.051751
-0.074217
-0.0403737
-0.0796413
-0.0282905
-0.0860982
-0.0153962
-0.0925835
-0.00256584
-0.0938557
0.00928185
-0.0893279
0.0200713
-0.0834336
0.0299337
-0.0772211
0.0387054
-0.0696529
0.0465534
-0.0627505
0.0537503
-0.0571305
0.0604031
-0.0521229
0.0666614
-0.0481303
0.0726563
-0.0449648
0.0784421
-0.0424735
0.0840902
-0.0406152
0.0896465
-0.0393755
0.0951555
-0.0385725
0.100643
-0.038189
0.106138
-0.0380131
0.111637
-0.0377911
0.117062
-0.0366297
0.122301
-0.0346076
0.127318
-0.0327701
0.132128
-0.0310924
0.13676
-0.0296775
0.141241
-0.0285125
0.145614
-0.0277481
0.149959
-0.0274244
0.154357
-0.0277397
0.158938
-0.0289272
0.163875
-0.0313461
0.169444
-0.0355889
0.176097
-0.0421811
0.184209
-0.0544639
0.195899
-0.0738248
0.211684
-0.123268
-0.0804648
0.088519
-0.0570844
0.0962887
-0.0550622
0.10455
-0.0548154
0.111293
-0.0440995
0.117399
-0.0373634
0.122701
-0.0286536
0.126931
-0.0181159
0.130211
-0.00787434
0.132711
0.00325272
0.134466
0.0146355
0.135602
0.026873
0.136086
0.0403313
0.135937
0.0546895
0.136437
0.0707929
0.139359
0.0913711
0.140802
0.119385
0.130649
0.146747
0.104271
0.153876
0.0691561
0.131519
0.0384122
0.0949411
0.0190173
0.0747979
0.00597804
0.0720787
-0.00475529
0.0563808
-0.0112493
0.00968366
-0.00903064
-0.0714223
0.00383276
-0.157971
0.0222051
-0.198738
0.0382703
-0.178827
0.0475803
-0.115069
0.0461875
-0.0273958
0.0315464
0.0570877
0.00572452
0.124249
-0.0160571
0.152328
-0.0161566
0.0858082
0.00746459
-0.0645873
0.0491202
-0.236164
0.105333
-0.402743
0.149101
-0.288426
0.157404
-0.0793216
-0.0720997
-0.061084
-0.0631504
-0.0669136
-0.0514761
-0.0858895
-0.039439
-0.0916769
-0.0266235
-0.0989131
-0.0129914
-0.106215
0.000568198
-0.107415
0.0129789
-0.101739
0.0242124
-0.094668
0.0344167
-0.0874264
0.0434011
-0.0786382
0.0513762
-0.0707257
0.0586408
-0.0643951
0.0653275
-0.0588088
0.0716072
-0.0544092
0.0776315
-0.0509878
0.0834706
-0.0483117
0.0892011
-0.0463442
0.0948663
-0.0450397
0.100515
-0.0442194
0.106173
-0.0438464
0.11185
-0.0436882
0.117553
-0.0434927
0.123217
-0.0422911
0.128719
-0.0401078
0.133993
-0.0380398
0.139072
-0.0361689
0.143963
-0.0345629
0.148717
-0.0332598
0.153359
-0.0323803
0.157964
-0.0320243
0.162633
-0.032405
0.167481
-0.0337789
0.172705
-0.036573
0.178591
-0.0414332
0.185598
-0.0490533
0.19407
-0.063088
0.206199
-0.0859001
0.222286
-0.139242
-0.0823497
0.0909955
-0.0657346
0.0993149
-0.0633831
0.10821
-0.0637097
0.115419
-0.0513044
0.121912
-0.0438507
0.127648
-0.0343834
0.132207
-0.0226723
0.135793
-0.0114617
0.138525
0.000517092
0.140454
0.0127033
0.141734
0.0255912
0.142487
0.0395778
0.142473
0.054705
0.141948
0.0713212
0.143044
0.0902774
0.146135
0.116297
0.143606
0.149277
0.125097
0.172386
0.091449
0.165168
0.0555487
0.130841
0.0298985
0.100446
0.0136155
0.088357
0.00100013
0.0689882
-0.00795383
0.018626
-0.00905903
-0.0703333
0.000659843
-0.167705
0.0165172
-0.214609
0.0302628
-0.192588
0.0374247
-0.122234
0.0333551
-0.0233089
0.014748
0.0756843
-0.0128909
0.151895
-0.0303928
0.169854
-0.0242658
0.0795902
0.00363836
-0.0924483
0.0487081
-0.281299
0.10739
-0.461595
0.154178
-0.335248
0.162814
-0.0884416
-0.0734682
-0.0699648
-0.0639369
-0.0764438
-0.0514692
-0.098355
-0.0386394
-0.104505
-0.0250755
-0.112476
-0.0105931
-0.120698
0.00371961
-0.121728
0.0167938
-0.114814
0.0285567
-0.106431
0.0391878
-0.0980584
0.0484526
-0.0879035
0.0565942
-0.0788676
0.0639677
-0.0717682
0.070716
-0.0655565
0.077029
-0.0607209
0.0830824
-0.0570401
0.0889702
-0.0541979
0.0947595
-0.0521321
0.100526
-0.0508045
0.106298
-0.0499896
0.112097
-0.0496437
0.117955
-0.0495464
0.123868
-0.0494057
0.129766
-0.0481915
0.135518
-0.0458631
0.141066
-0.0435962
0.146411
-0.0415226
0.151584
-0.0397493
0.15661
-0.0382938
0.161528
-0.0373156
0.166418
-0.0369319
0.171359
-0.0373646
0.1765
-0.0389366
0.182025
-0.0421241
0.188228
-0.047651
0.195582
-0.05642
0.204441
-0.0720618
0.216998
-0.0982655
0.233272
-0.155885
-0.084663
0.0938829
-0.0749574
0.102758
-0.0722607
0.112296
-0.0732465
0.120061
-0.0590642
0.127055
-0.0508375
0.133213
-0.0405355
0.138061
-0.0275179
0.141968
-0.0153701
0.144933
-0.00245177
0.147052
0.0105807
0.148427
0.0242141
0.149217
0.0387878
0.149468
0.0544556
0.148916
0.0718759
0.148376
0.0908203
0.150387
0.114289
0.15219
0.147477
0.14248
0.182099
0.114193
0.193458
0.0759815
0.169057
0.0439814
0.132451
0.0232191
0.109123
0.00821129
0.0840013
-0.00327511
0.0301252
-0.00815739
-0.065432
-0.00232848
-0.173508
0.0102855
-0.2272
0.0209869
-0.203291
0.0251259
-0.126356
0.0173267
-0.0154631
-0.00516329
0.0981508
-0.0322421
0.178976
-0.0435766
0.181179
-0.0314772
0.0672828
0.000181687
-0.123889
0.0484342
-0.32946
0.109401
-0.522548
0.159294
-0.38504
0.168493
-0.0977831
-0.075139
-0.0794884
-0.0650084
-0.0865725
-0.0516943
-0.111668
-0.038037
-0.118162
-0.0235928
-0.12692
-0.00823949
-0.13605
0.00693528
-0.136902
0.0207433
-0.128622
0.0331239
-0.118813
0.0442163
-0.109152
0.053833
-0.0975213
0.0622062
-0.0872415
0.0697346
-0.0792967
0.0765619
-0.0723834
0.0829244
-0.0670826
0.0890194
-0.0631342
0.0949437
-0.0601212
0.100798
-0.0579856
0.106635
-0.0566401
0.112513
-0.0558663
0.118457
-0.0555872
0.124482
-0.0555703
0.130593
-0.055515
0.136726
-0.0543228
0.142736
-0.0518696
0.148551
-0.0494083
0.154181
-0.0471465
0.159634
-0.0451968
0.164951
-0.0435995
0.170157
-0.0425082
0.175328
-0.0420883
0.180573
-0.0425999
0.186008
-0.0443639
0.191847
-0.0479638
0.198379
-0.0541225
0.206102
-0.0640089
0.215336
-0.0814609
0.228264
-0.11113
0.244703
-0.172236
-0.0872811
0.0971714
-0.0848506
0.106675
-0.0817646
0.116899
-0.0834677
0.125172
-0.0673315
0.132659
-0.0583176
0.139271
-0.0471416
0.144544
-0.0327879
0.148721
-0.019549
0.15191
-0.00564463
0.15419
0.00829691
0.155715
0.0226874
0.156594
0.0379084
0.156898
0.0541534
0.156539
0.0722373
0.15544
0.0919213
0.155551
0.11418
0.158267
0.144762
0.155732
0.184635
0.135649
0.213542
0.0989772
0.205728
0.0617252
0.169701
0.0354085
0.135436
0.0171931
0.10221
0.00301939
0.0442905
-0.00598318
-0.0564436
-0.00481168
-0.174693
0.00376661
-0.235792
0.0106061
-0.210146
0.0106018
-0.12636
-0.00189476
-0.00295961
-0.0271629
0.123403
-0.0509419
0.202761
-0.0551791
0.185439
-0.0378178
0.0498545
-0.00293803
-0.158729
0.0482327
-0.380687
0.111259
-0.585742
0.164234
-0.438004
0.174357
-0.108268
-0.077132
-0.0896373
-0.0663071
-0.0973967
-0.05212
-0.125854
-0.0375596
-0.132721
-0.0221959
-0.142283
-0.00588257
-0.152363
0.010245
-0.153029
0.0248418
-0.143218
0.0378865
-0.131858
0.0495368
-0.120803
0.059565
-0.10755
0.0682201
-0.095897
0.0759206
-0.0869973
0.0828753
-0.0793376
0.08931
-0.0735167
0.0954509
-0.069274
0.101416
-0.0660852
0.107316
-0.0638843
0.11323
-0.0625532
0.1192
-0.0618341
0.125264
-0.0616505
0.131445
-0.06175
0.137759
-0.0618291
0.144124
-0.0606891
0.15039
-0.0581382
0.156478
-0.0555014
0.162387
-0.053063
0.168135
-0.0509558
0.173737
-0.0492108
0.179246
-0.0480337
0.18472
-0.0475855
0.190264
-0.0481668
0.19602
-0.0501432
0.202175
-0.0541456
0.209054
-0.0610174
0.217138
-0.0721105
0.226743
-0.0911945
0.240065
-0.12434
0.256615
-0.189069
-0.0902897
0.100807
-0.0953703
0.110979
-0.0919372
0.121934
-0.0944204
0.130816
-0.0762071
0.138842
-0.066336
0.145917
-0.0542107
0.151568
-0.0384361
0.156082
-0.0240647
0.159481
-0.00904694
0.161941
0.00583225
0.163571
0.0210554
0.16449
0.0369892
0.164851
0.0537929
0.164668
0.0724228
0.163612
0.0929787
0.162363
0.115432
0.163831
0.143296
0.165525
0.182943
0.154526
0.224542
0.123285
0.236972
0.0832853
0.209704
0.0508781
0.167847
0.0283484
0.124744
0.0111422
0.0615064
-0.00216272
-0.0431282
-0.0064099
-0.170427
-0.00269224
-0.239489
-0.000605071
-0.212223
-0.00602963
-0.12091
-0.0235286
0.0145906
-0.04953
0.149396
-0.0678129
0.221048
-0.0650098
0.182633
-0.0433066
0.0279682
-0.00573272
-0.196117
0.0480342
-0.434371
0.112848
-0.650582
0.168893
-0.493957
0.180269
-0.119818
-0.0793923
-0.100535
-0.0679075
-0.108881
-0.0527425
-0.141018
-0.0372404
-0.148224
-0.0208584
-0.158665
-0.003477
-0.169743
0.0136207
-0.170126
0.0291074
-0.158705
0.0428831
-0.145635
0.0551443
-0.133066
0.0656282
-0.118036
0.0746106
-0.10488
0.0825591
-0.094946
0.0896616
-0.0864401
0.0961956
-0.0800501
0.102402
-0.07548
0.108412
-0.0720943
0.114355
-0.0698258
0.120324
-0.0685216
0.126383
-0.0678923
0.132561
-0.0678272
0.138896
-0.0680847
0.145391
-0.0683227
0.151988
-0.0672846
0.158509
-0.0646565
0.164869
-0.0618582
0.171063
-0.0592514
0.177098
-0.0569833
0.183007
-0.0551072
0.188824
-0.0538343
0.194613
-0.053356
0.20048
-0.0540155
0.206557
-0.0562028
0.213052
-0.0606278
0.220279
-0.0681727
0.228743
-0.0804478
0.238732
-0.101359
0.252349
-0.137865
0.268985
-0.205669
-0.0935819
0.104827
-0.106617
0.115709
-0.102819
0.12745
-0.106157
0.13695
-0.0857013
0.145519
-0.0748975
0.153095
-0.0617804
0.159163
-0.0445008
0.16398
-0.0288848
0.167652
-0.0127226
0.170284
0.0031964
0.172071
0.0192658
0.173062
0.0359976
0.173419
0.0534367
0.173253
0.0725911
0.172377
0.0938562
0.170716
0.117094
0.17036
0.143654
0.1731
0.180204
0.169941
0.227702
0.147313
0.259599
0.108312
0.248704
0.0704703
0.205685
0.0424856
0.152724
0.0214873
0.0824979
0.00368276
-0.0253348
-0.00666343
-0.160092
-0.00864391
-0.237521
-0.0121648
-0.208719
-0.0239041
-0.109183
-0.0458266
0.0365084
-0.0703265
0.17388
-0.0820739
0.232798
-0.0730891
0.173666
-0.0479661
0.00279728
-0.00819923
-0.235846
0.0477681
-0.490386
0.113993
-0.71697
0.173082
-0.552992
0.186063
-0.133058
-0.0820024
-0.112115
-0.0696843
-0.121199
-0.0535378
-0.157165
-0.0370018
-0.164759
-0.0195777
-0.176088
-0.00109321
-0.188229
0.0171235
-0.188342
0.0335431
-0.175125
0.0481397
-0.160232
0.0610644
-0.145992
0.0720698
-0.129042
0.081425
-0.114237
0.0896432
-0.103164
0.0969317
-0.0937286
0.103577
-0.0866945
0.109865
-0.0817677
0.115936
-0.0781642
0.121924
-0.0758135
0.127952
-0.0745479
0.134087
-0.0740268
0.140372
-0.0741107
0.146841
-0.0745528
0.153525
-0.0750059
0.160346
-0.0741055
0.167117
-0.0714284
0.173748
-0.0684929
0.180229
-0.0657373
0.186569
-0.0633311
0.192787
-0.0613333
0.198919
-0.0599831
0.205029
-0.059489
0.21122
-0.0602349
0.217637
-0.0626484
0.22448
-0.0675016
0.232069
-0.0757777
0.240904
-0.0893056
0.25127
-0.111862
0.265215
-0.151748
0.281843
-0.222526
-0.0971979
0.109242
-0.118662
0.120853
-0.11443
0.133426
-0.118725
0.143562
-0.0958297
0.152724
-0.0840523
0.160877
-0.0699275
0.167333
-0.0509546
0.172509
-0.0340614
0.176491
-0.0167091
0.179326
0.000356827
0.181222
0.0173669
0.182311
0.0349074
0.182637
0.0531109
0.182438
0.0727909
0.181742
0.0945536
0.180168
0.118671
0.178543
0.14528
0.180209
0.178539
0.181942
0.22597
0.169236
0.272307
0.135571
0.28237
0.0945032
0.246755
0.0604378
0.186792
0.0345957
0.108345
0.0120068
-0.00273889
-0.00503492
-0.143041
-0.0135427
-0.228996
-0.0232604
-0.198989
-0.0414636
-0.0909521
-0.0666029
0.0616901
-0.0879957
0.195271
-0.0933523
0.238161
-0.0794965
0.159812
-0.0518106
-0.0250433
-0.0103282
-0.277178
0.0473369
-0.547978
0.114604
-0.78433
0.176593
-0.614894
0.191518
-0.148177
-0.0848385
-0.124475
-0.0717691
-0.134269
-0.0545089
-0.174425
-0.0368965
-0.182372
-0.0183403
-0.194645
0.00135955
-0.207927
0.0207143
-0.207697
0.0381747
-0.192585
0.0536173
-0.175676
0.06729
-0.159666
0.0788529
-0.140607
0.0886456
-0.12403
0.0971836
-0.111703
0.104688
-0.101233
0.111491
-0.0934971
0.11787
-0.088146
0.124006
-0.0842999
0.130059
-0.0818656
0.136142
-0.0806298
0.142345
-0.0802295
0.148724
-0.0804886
0.155331
-0.0811592
0.16219
-0.0818643
0.169232
-0.0811465
0.176258
-0.0784529
0.183159
-0.0753904
0.189928
-0.0725017
0.196565
-0.0699604
0.203098
-0.0678555
0.209549
-0.066418
0.215993
-0.0659144
0.222531
-0.066748
0.229288
-0.069379
0.236496
-0.0746792
0.24446
-0.0836579
0.253669
-0.0983951
0.264409
-0.122785
0.278595
-0.16582
0.295184
-0.239113
-0.101177
0.114039
-0.131526
0.126425
-0.126813
0.139862
-0.132158
0.150675
-0.106637
0.160508
-0.0938766
0.169221
-0.0786342
0.176136
-0.0578672
0.181689
-0.0396167
0.185939
-0.0209642
0.18896
-0.00266895
0.190996
0.0153279
0.192175
0.0337272
0.192614
0.0526724
0.192349
0.0730572
0.191626
0.0952779
0.190277
0.120022
0.188178
0.147379
0.188037
0.178682
0.191567
0.22244
0.187829
0.276045
0.163138
0.30706
0.12271
0.287181
0.0830543
0.226445
0.0512691
0.140125
0.0232882
0.0252329
-0.000946249
-0.118815
-0.0167215
-0.213232
-0.0328504
-0.182876
-0.0569763
-0.0668418
-0.0839872
0.0886906
-0.101648
0.212916
-0.101628
0.238141
-0.0842977
0.142491
-0.0548055
-0.0545668
-0.0121189
-0.319831
0.0466572
-0.606793
0.114449
-0.852288
0.179194
-0.679542
0.196324
-0.165481
-0.0879643
-0.137689
-0.0740201
-0.148214
-0.0556332
-0.192814
-0.0368701
-0.201135
-0.0171145
-0.2144
0.00385793
-0.2289
0.0244579
-0.228296
0.0430081
-0.211135
0.0593968
-0.192065
0.0738568
-0.174128
0.086052
-0.152804
0.0963111
-0.134291
0.105192
-0.120585
0.112963
-0.109005
0.119929
-0.100463
0.126442
-0.0946583
0.132653
-0.0905104
0.138769
-0.0879811
0.14491
-0.08677
0.151185
-0.0865037
0.157658
-0.0869604
0.164386
-0.0878859
0.171419
-0.0888967
0.17868
-0.0884064
0.185955
-0.0857284
0.193122
-0.0825579
0.200178
-0.0795609
0.207121
-0.0769064
0.213972
-0.0747145
0.220758
-0.0732178
0.227543
-0.0727221
0.234419
-0.0736538
0.241546
-0.0765396
0.249117
-0.0822831
0.257462
-0.0920203
0.267045
-0.108004
0.27815
-0.134033
0.292561
-0.180203
0.30908
-0.255827
-0.105457
0.119159
-0.145229
0.1324
-0.140053
0.146778
-0.146531
0.15833
-0.118181
0.168843
-0.104382
0.178135
-0.0879192
0.185558
-0.0652883
0.191511
-0.0455713
0.196043
-0.0255008
0.199287
-0.00591882
0.201521
0.0130904
0.202772
0.0324754
0.203243
0.0522008
0.202993
0.073308
0.202176
0.0960964
0.20095
0.121248
0.198903
0.149427
0.197344
0.180241
0.200049
0.219736
0.202494
0.273601
0.18866
0.320895
0.15352
0.322322
0.110545
0.269421
0.0721308
0.178542
0.0379735
0.0593937
0.00613073
-0.0869681
-0.0175134
-0.189579
-0.0399196
-0.160461
-0.0690269
-0.0377116
-0.0968147
0.116507
-0.111011
0.227113
-0.10706
0.234196
-0.0875519
0.122983
-0.0569452
-0.0852877
-0.0136136
-0.363038
0.0456002
-0.665954
0.113383
-0.920231
0.180611
-0.746655
0.200094
-0.185115
-0.0913687
-0.151778
-0.0765247
-0.16306
-0.0569287
-0.21241
-0.0369224
-0.221143
-0.0159049
-0.235418
0.00640428
-0.251208
0.0283556
-0.250247
0.0480539
-0.230834
0.0654612
-0.209474
0.080767
-0.189436
0.0936308
-0.165669
0.104403
-0.145064
0.113697
-0.12988
0.121746
-0.117054
0.128925
-0.107642
0.135579
-0.101312
0.1419
-0.0968304
0.148087
-0.0941674
0.154294
-0.0929769
0.160634
-0.0928433
0.167195
-0.09352
0.174046
-0.0947365
0.181247
-0.0960971
0.188726
-0.0958851
0.196238
-0.0932388
0.203677
-0.0899951
0.211019
-0.0868988
0.218272
-0.0841543
0.225439
-0.0818737
0.232562
-0.0803294
0.239694
-0.0798349
0.246937
-0.0808735
0.254424
-0.083992
0.262366
-0.0901843
0.271103
-0.100651
0.281055
-0.117852
0.292522
-0.145682
0.307106
-0.194661
0.323445
-0.272198
-0.110107
0.124729
-0.159851
0.138876
-0.154198
0.154177
-0.161827
0.166572
-0.13057
0.17774
-0.115542
0.187716
-0.0978879
0.195626
-0.0731953
0.201999
-0.0519478
0.206879
-0.0303863
0.210377
-0.00942228
0.212701
0.0107636
0.214088
0.0310861
0.214572
0.0517173
0.21433
0.0735508
0.213488
0.096939
0.212185
0.122552
0.210376
0.151237
0.208131
0.182486
0.208958
0.21891
0.21386
0.268699
0.210146
0.324609
0.184423
0.348043
0.142058
0.311783
0.0976767
0.222919
0.0564968
0.100568
0.0166631
-0.0471434
-0.0153295
-0.157597
-0.0436932
-0.132114
-0.0767818
-0.00463754
-0.104672
0.144385
-0.116245
0.238672
-0.109886
0.227833
-0.0893099
0.102409
-0.0582525
-0.116368
-0.0148904
-0.406371
0.0440422
-0.724925
0.11115
-0.987513
0.180405
-0.81578
0.202294
-0.207114
-0.0950926
-0.166793
-0.0792702
-0.178883
-0.0583692
-0.233314
-0.0370815
-0.24243
-0.0146909
-0.257809
0.00905226
-0.274953
0.0323754
-0.27357
0.0533532
-0.251812
0.0718176
-0.227939
0.0880535
-0.205673
0.101648
-0.179265
0.112991
-0.156408
0.122715
-0.139604
0.131092
-0.12543
0.138503
-0.115053
0.145321
-0.108129
0.151769
-0.103278
0.158037
-0.100435
0.164313
-0.0992519
0.170729
-0.0992581
0.177379
-0.100169
0.184345
-0.101702
0.191712
-0.103463
0.199402
-0.103573
0.207161
-0.100997
0.214861
-0.0976951
0.222486
-0.0945234
0.230038
-0.091709
0.237535
-0.0893755
0.244993
-0.0877991
0.252483
-0.0873436
0.260082
-0.0885019
0.267951
-0.0918961
0.276287
-0.0985566
0.285396
-0.109777
0.295733
-0.128219
0.307531
-0.157621
0.322287
-0.20941
0.338439
-0.288527
-0.115096
0.130692
-0.175448
0.145745
-0.169249
0.162146
-0.178223
0.175291
-0.143707
0.187281
-0.127525
0.197909
-0.10851
0.206417
-0.0817018
0.213191
-0.0587231
0.218421
-0.0356216
0.222153
-0.0131588
0.224704
0.00820852
0.226147
0.0296408
0.226729
0.0511348
0.226485
0.0737958
0.225577
0.0978477
0.224174
0.123956
0.222428
0.152983
0.22005
0.184865
0.219026
0.219934
0.223327
0.264399
0.226656
0.32128
0.212262
0.362437
0.175312
0.348732
0.127628
0.270604
0.0792096
0.148986
0.0310677
0.000998876
-0.00967264
-0.116855
-0.0436855
-0.0980983
-0.0799112
0.0316005
-0.107658
0.172147
-0.117687
0.2487
-0.110305
0.220454
-0.089611
0.0817159
-0.0587841
-0.147272
-0.0160645
-0.449
0.041815
-0.782764
0.107477
-1.05339
0.17807
-0.886213
0.202217
-0.231328
-0.0991014
-0.18279
-0.082247
-0.195739
-0.0599753
-0.255585
-0.0373354
-0.265073