/*--------------------------------*- C++ -*----------------------------------*\
  =========                 |
  \\      /  F ield         | OpenFOAM: The Open Source CFD Toolbox
   \\    /   O peration     | Website:  https://openfoam.org
    \\  /    A nd           | Version:  9
     \\/     M anipulation  |
\*---------------------------------------------------------------------------*/
FoamFile
{
    format      ascii;
    class       volScalarField;
    location    "500";
    object      alphat;
}
// * * * * * * * * * * * * * * * * * * * * * * * * * * * * * * * * * * * * * //

dimensions      [1 -1 -1 0 0 0 0];

internalField   nonuniform List<scalar> 
4000
(
0.000423946
0.000392129
0.000356209
0.000327937
0.000311518
0.000303588
0.000300394
0.000299124
0.000298116
0.000296833
0.00029375
0.000287839
0.000290712
0.000295796
0.00029991
0.000303664
0.000309151
0.000318148
0.000331586
0.000349825
0.000565433
0.000536595
0.000491048
0.000435874
0.000383629
0.00034579
0.000325086
0.000317818
0.000316334
0.000315824
0.000314596
0.000309165
0.000304764
0.000304521
0.000309104
0.000323533
0.000350119
0.000385854
0.000425352
0.000462832
0.000632598
0.000618953
0.000587268
0.000540812
0.000483778
0.00042114
0.000364358
0.000335635
0.000328093
0.000330495
0.000334029
0.000329198
0.000319951
0.000314795
0.000325601
0.000367503
0.000421352
0.000472659
0.000515429
0.000544187
0.00066696
0.000666535
0.000648517
0.00061617
0.00057432
0.000524497
0.000466374
0.000397501
0.000367114
0.000360849
0.000363432
0.000358866
0.000350531
0.000353569
0.000399279
0.000460388
0.000512438
0.000553599
0.000582171
0.00059203
0.00068943
0.000701742
0.000698127
0.000682159
0.000658532
0.000628054
0.000590629
0.00054614
0.000488503
0.000445934
0.000437928
0.000452117
0.000479369
0.000518978
0.000554862
0.000583266
0.000607672
0.000625741
0.000633926
0.000623699
0.000707392
0.000732457
0.000744488
0.000746427
0.000741617
0.000730541
0.000713527
0.000691117
0.00066537
0.000641816
0.000637059
0.000654345
0.00066874
0.000681098
0.000690433
0.000695532
0.000695924
0.000691039
0.000677954
0.000648646
0.000724164
0.000761337
0.000787715
0.000803912
0.000812704
0.000814435
0.000809668
0.000798817
0.000782859
0.000765735
0.000764192
0.000777342
0.000786137
0.000790035
0.000788083
0.00078032
0.000766511
0.000746116
0.000716198
0.000669525
0.000741081
0.000790384
0.000829001
0.000856668
0.000876193
0.000887621
0.00089156
0.000888236
0.000878078
0.000864501
0.000864305
0.000875904
0.0008803
0.000877298
0.000866868
0.000849421
0.000825259
0.000793374
0.000750058
0.0006883
0.000760269
0.000823589
0.000874545
0.000912645
0.000941007
0.000960419
0.000971462
0.000974215
0.000968221
0.000956498
0.000956128
0.00096595
0.000966551
0.000958228
0.000941001
0.00091573
0.000882383
0.000840183
0.000784767
0.00070891
0.000783034
0.000854579
0.000911753
0.000953949
0.000986194
0.0010106
0.00102826
0.00103931
0.0010428
0.00103802
0.00103742
0.00103873
0.00103079
0.00101509
0.000992781
0.000964079
0.000927966
0.000882101
0.000820147
0.000734107
0.000392129
0.00038927
0.000368945
0.000353102
0.000347491
0.00034879
0.000351694
0.000352007
0.000348704
0.000346728
0.000343644
0.000334726
0.000326958
0.000326268
0.00033011
0.000332806
0.000335207
0.000340014
0.000347537
0.000348733
0.000536595
0.000629375
0.000614406
0.000595191
0.000626982
0.00071861
0.000830492
0.000911491
0.000932459
0.000868725
0.000780964
0.000694233
0.000663084
0.000684154
0.000679497
0.000622001
0.000559207
0.000526215
0.00051541
0.000453389
0.000618953
0.000770595
0.000772282
0.000718132
0.000668441
0.00068089
0.000767682
0.000868531
0.00090559
0.000903941
0.000879144
0.00082579
0.000794931
0.000788497
0.000733727
0.000621028
0.000571595
0.000591207
0.000618469
0.000537582
0.000666535
0.00085516
0.000889784
0.00085276
0.000777322
0.000695792
0.000648439
0.000656354
0.000690822
0.000731334
0.000757108
0.000732269
0.000690027
0.00065035
0.000605167
0.000594265
0.000641861
0.000699343
0.000712985
0.000589683
0.000701742
0.00093676
0.00100357
0.000996477
0.000940439
0.000847857
0.000737802
0.000653041
0.000629315
0.000645578
0.000665473
0.000649097
0.000619655
0.00060784
0.000634021
0.000715752
0.000787195
0.000821227
0.000793284
0.000625194
0.000732457
0.0010259
0.00113151
0.0011691
0.00115543
0.00108944
0.000987777
0.000867068
0.000782317
0.000763277
0.000777922
0.000788275
0.000792118
0.000825153
0.000915917
0.00096721
0.000983264
0.000956829
0.00087593
0.000654555
0.000761337
0.00111299
0.00125899
0.00135178
0.00140779
0.00141711
0.0013871
0.00132919
0.00124568
0.00117449
0.00118517
0.00124677
0.00129443
0.00133023
0.00131544
0.00127284
0.00119526
0.00109175
0.000958498
0.000683243
0.000790384
0.00118478
0.00135879
0.00150149
0.00161265
0.00168292
0.00172049
0.00173237
0.00173047
0.00174052
0.00177235
0.0017877
0.00176886
0.00171535
0.00163253
0.00151959
0.00136593
0.00119883
0.00102306
0.000716279
0.000823589
0.00116858
0.00136396
0.00152409
0.00165592
0.00174996
0.00180509
0.00182505
0.00180945
0.00179709
0.00182229
0.0018446
0.00183936
0.00178951
0.00169506
0.00156552
0.00140585
0.0012322
0.00104809
0.000753455
0.000854579
0.000933346
0.000998424
0.00104866
0.00108879
0.00112074
0.00114541
0.00116266
0.00117099
0.00116956
0.00116872
0.00116555
0.00115126
0.00112768
0.00109649
0.00105843
0.00101268
0.000956989
0.000885127
0.000791448
0.000356209
0.000368945
0.000366725
0.000366095
0.000371133
0.000379555
0.000387129
0.000390219
0.000387028
0.000383487
0.000379782
0.000369429
0.000354784
0.000351507
0.000357923
0.000359776
0.000357776
0.000354789
0.000350958
0.000338435
0.000491048
0.000614406
0.000658898
0.00071296
0.000817877
0.00096425
0.00111033
0.00121772
0.00127344
0.00121223
0.00107987
0.000943775
0.000906001
0.000971027
0.000971724
0.000877478
0.00075041
0.000639825
0.000553228
0.000431337
0.000587268
0.000772282
0.00080836
0.000794396
0.000810057
0.000907977
0.00106485
0.00121578
0.00132571
0.00135901
0.001322
0.0012288
0.00118261
0.00118287
0.00109004
0.000883934
0.000720005
0.000656644
0.000634739
0.000521538
0.000648517
0.000889784
0.000958164
0.000935867
0.000871633
0.000826419
0.000861578
0.000966463
0.00105518
0.00114259
0.00119457
0.00114638
0.00107385
0.00100045
0.000882096
0.000752831
0.000717534
0.000744828
0.000736858
0.000583396
0.000698127
0.00100357
0.00110888
0.00111138
0.0010441
0.000934675
0.000830193
0.000794656
0.000841782
0.000954066
0.00101652
0.000951528
0.00084898
0.000765812
0.000721931
0.000753767
0.000829754
0.000871866
0.000829336
0.000628345
0.000744488
0.00113151
0.00128487
0.00133275
0.00130053
0.00119006
0.0010436
0.000944024
0.000930184
0.000999297
0.00104526
0.000979812
0.000889524
0.000850331
0.000880925
0.000960008
0.00102703
0.00102248
0.000926894
0.000667937
0.000787715
0.00125899
0.00147591
0.00159643
0.00164545
0.00160769
0.00150234
0.00141822
0.00138138
0.00140629
0.00144089
0.00139981
0.00132322
0.00127791
0.0012737
0.00131487
0.00128607
0.0011935
0.00103166
0.000707711
0.000829001
0.00135879
0.00166253
0.00188289
0.00204572
0.00215079
0.00219913
0.00217507
0.00212669
0.00210543
0.00212833
0.00213573
0.00208874
0.00201858
0.00192923
0.00178264
0.00159355
0.00138011
0.00113857
0.000749416
0.000874545
0.00136396
0.00174087
0.00207433
0.0023342
0.002509
0.0026094
0.00266605
0.00264828
0.00256481
0.00255533
0.002616
0.00262938
0.00253035
0.00236698
0.00215301
0.00186376
0.00152856
0.00119511
0.00079887
0.000911753
0.000998424
0.00106996
0.00112674
0.00117322
0.00121141
0.00124215
0.0012652
0.0012787
0.00128101
0.00128044
0.00127185
0.00125081
0.00122004
0.00118144
0.0011361
0.00108343
0.00102123
0.000943893
0.000846409
0.000327937
0.000353102
0.000366095
0.000377618
0.000390714
0.000404118
0.000415145
0.000421211
0.000420394
0.000414981
0.000410416
0.000398754
0.000378527
0.000375445
0.000384607
0.000385549
0.00037998
0.00037002
0.0003548
0.000327337
0.000435874
0.000595191
0.00071296
0.000843979
0.00100507
0.00118186
0.00134527
0.00147054
0.00154802
0.00153008
0.00136873
0.00118642
0.00114548
0.00124726
0.00123393
0.00111806
0.000954296
0.000780212
0.000605408
0.00039863
0.000540812
0.000718132
0.000794396
0.000853594
0.00096073
0.00113163
0.00133123
0.00152176
0.0016837
0.00178273
0.00175015
0.00162458
0.00155806
0.0015491
0.00141653
0.00116148
0.000905056
0.000730656
0.000628264
0.000489165
0.00061617
0.00085276
0.000935867
0.000940391
0.000927222
0.000967287
0.00109793
0.00128008
0.00145962
0.00160819
0.00167476
0.00159422
0.00148406
0.00137306
0.00119708
0.00095732
0.000795616
0.000750261
0.000718355
0.000562542
0.000682159
0.000996477
0.00111138
0.00111938
0.0010619
0.000980657
0.000935925
0.000985056
0.00114256
0.00139138
0.00150214
0.00137053
0.00117827
0.00100575
0.000865433
0.000805839
0.000830314
0.000864758
0.00082809
0.000619236
0.000746427
0.0011691
0.00133275
0.00137034
0.0013249
0.0012177
0.00112062
0.00109863
0.0012183
0.00146435
0.00153739
0.00135121
0.00111438
0.000958268
0.000899171
0.000924598
0.000997486
0.00102401
0.000949608
0.000670976
0.000803912
0.00135178
0.00159643
0.00170838
0.00173804
0.00170713
0.00164942
0.00163342
0.00172785
0.00189561
0.00192518
0.00174396
0.00150538
0.00133382
0.00125507
0.00125573
0.00126696
0.00122817
0.00108448
0.000722804
0.000856668
0.00150149
0.00188289
0.00216464
0.00237564
0.0024927
0.00247827
0.00245157
0.00245562
0.00249446
0.00249212
0.00240072
0.00225623
0.0021156
0.00200035
0.00189729
0.00171275
0.0014949
0.00122338
0.000775028
0.000912645
0.00152409
0.00207433
0.00257597
0.00292941
0.00310692
0.00312232
0.00309417
0.00302829
0.00294739
0.00291412
0.00293981
0.00293027
0.00287067
0.00277526
0.00263534
0.00227915
0.00179252
0.00130759
0.000834135
0.000953949
0.00104866
0.00112674
0.00119028
0.00124373
0.00128926
0.00132762
0.00135828
0.00137946
0.0013889
0.00139051
0.00137263
0.00134232
0.00130234
0.00125496
0.00120131
0.00114154
0.00107312
0.000990627
0.000888552
0.000311518
0.000347491
0.000371133
0.000390714
0.000408961
0.000425769
0.000439963
0.000450013
0.000453633
0.000447653
0.000441862
0.000427413
0.000402449
0.000401221
0.000410446
0.000409712
0.000401376
0.000386373
0.000362305
0.000320351
0.000383629
0.000626982
0.000817877
0.00100507
0.0011987
0.00139082
0.00156593
0.00170908
0.00180984
0.0018441
0.0016778
0.00145724
0.00142091
0.00152187
0.00147518
0.00134485
0.00116681
0.00095783
0.000706947
0.000367173
0.000483778
0.000668441
0.000810057
0.00096073
0.00114718
0.00136368
0.00159516
0.00182754
0.00203552
0.0021764
0.00216593
0.00202965
0.00194838
0.00190227
0.00172371
0.00144963
0.00114782
0.000873553
0.000652129
0.000443931
0.00057432
0.000777322
0.000871633
0.000927222
0.00100266
0.00114239
0.00134778
0.00159848
0.00186902
0.00208922
0.00215786
0.00205512
0.00191001
0.00175146
0.00152629
0.00121353
0.0009278
0.000761844
0.000677039
0.000527697
0.000658532
0.000940439
0.0010441
0.0010619
0.00103896
0.00102633
0.00108675
0.00127323
0.00159765
0.00195095
0.00204945
0.00185469
0.00157776
0.00130859
0.00106646
0.000897956
0.000827596
0.000826054
0.000798105
0.000597593
0.000741617
0.00115543
0.00130053
0.0013249
0.00128375
0.00122091
0.00121313
0.001332
0.00165927
0.0020693
0.00211863
0.00181906
0.00144117
0.00115051
0.000981196
0.000922546
0.000947492
0.000992207
0.000955607
0.000664845
0.000812704
0.00140779
0.00164545
0.00173804
0.00176318
0.0017924
0.00181531
0.00192386
0.00218114
0.00247281
0.00244606
0.00213036
0.00175213
0.00146244
0.00129213
0.0012224
0.00121027
0.00123037
0.00113456
0.000729329
0.000876193
0.00161265
0.00204572
0.00237564
0.00259359
0.00266775
0.00269874
0.00274497
0.00283181
0.00291639
0.00285094
0.0026536
0.00242025
0.00220951
0.00203782
0.00190831
0.00178611
0.00157407
0.00130384
0.000791457
0.000941007
0.00165592
0.0023342
0.00292941
0.00323618
0.00335582
0.00340607
0.00340338
0.00335276
0.00327255
0.00320044
0.00318772
0.00315796
0.00307929
0.00294783
0.00277587
0.00254139
0.00198527
0.00139505
0.000859349
0.000986194
0.00108879
0.00117322
0.00124373
0.00130582
0.00136034
0.00140809
0.0014492
0.00148169
0.00150199
0.00150772
0.00147677
0.00143373
0.00138203
0.00132386
0.00125997
0.0011909
0.00111577
0.00102802
0.000920538
0.000303588
0.00034879
0.000379555
0.000404118
0.000425769
0.000445636
0.000464013
0.000480119
0.000490758
0.000489233
0.000478189
0.00045769
0.000429702
0.000430585
0.000435619
0.000431626
0.000420372
0.000401497
0.000371051
0.000317045
0.00034579
0.00071861
0.00096425
0.00118186
0.00139082
0.00159162
0.00177749
0.00193721
0.00205677
0.00211308
0.00200574
0.00177208
0.00174851
0.00178453
0.0016966
0.00155258
0.0013696
0.0011476
0.000851484
0.000347184
0.00042114
0.00068089
0.000907977
0.00113163
0.00136368
0.00160983
0.00187412
0.00213974
0.00236233
0.00249897
0.00252139
0.0024238
0.00234655
0.00223577
0.00201866
0.00173699
0.00142646
0.00110243
0.000761471
0.000395541
0.000524497
0.000695792
0.000826419
0.000967287
0.00114239
0.00136112
0.00163416
0.00196468
0.00228899
0.00250049
0.00255769
0.00248062
0.0023374
0.00213728
0.00185759
0.00151276
0.00115209
0.000843695
0.00064502
0.000483652
0.000628054
0.000847857
0.000934675
0.000980657
0.00102633
0.00112235
0.00132971
0.00169381
0.00215311
0.00249837
0.00253223
0.00232955
0.0020227
0.00167394
0.00133573
0.00104964
0.000859117
0.000776632
0.000735924
0.000568118
0.000730541
0.00108944
0.00119006
0.0012177
0.00122091
0.00125022
0.00137827
0.00170897
0.00223824
0.00267249
0.00264164
0.00229128
0.00183804
0.00142806
0.00113627
0.000970837
0.000913549
0.000925502
0.000921193
0.000652041
0.000814435
0.00141711
0.00160769
0.00170713
0.0017924
0.00188184
0.00202874
0.00230773
0.00272142
0.00303568
0.0029165
0.00250678
0.00202949
0.00164143
0.00138517
0.00124077
0.00118489
0.00118933
0.00115165
0.000728311
0.000887621
0.00168292
0.00215079
0.0024927
0.00266775
0.00279761
0.00292518
0.00307799
0.00325916
0.00335112
0.00318886
0.00288925
0.00257912
0.00230935
0.00208477
0.00190735
0.00177861
0.00161955
0.00135656
0.000799395
0.000960419
0.00174996
0.002509
0.00310692
0.00335582
0.00351738
0.00360909
0.00364088
0.00362354
0.00355675
0.00343207
0.00335935
0.00329929
0.00320704
0.00305259
0.00283365
0.00257128
0.00209194
0.00144777
0.000874847
0.0010106
0.00112074
0.00121141
0.00128926
0.00136034
0.00142483
0.00148448
0.00153965
0.00158825
0.00162476
0.00163742
0.00158806
0.00152703
0.00145989
0.0013885
0.00131295
0.00123335
0.00115068
0.00105742
0.00094408
0.000300394
0.000351694
0.000387129
0.000415145
0.000439963
0.000464013
0.000488772
0.000513592
0.000533689
0.000539384
0.000520656
0.000489807
0.000461867
0.000462843
0.000459946
0.000450386
0.000435014
0.000412297
0.000376963
0.000315208
0.000325086
0.000830492
0.00111033
0.00134527
0.00156593
0.00177749
0.00197436
0.0021436
0.0022672
0.0023245
0.00229142
0.00211084
0.0020992
0.00203245
0.0019013
0.00173638
0.00154238
0.00131054
0.000990802
0.000338769
0.000364358
0.000767682
0.00106485
0.00133123
0.00159516
0.00187412
0.00216362
0.00242522
0.00261351
0.0026916
0.00270858
0.00272297
0.00269162
0.00254589
0.00230563
0.00201207
0.00169452
0.00135366
0.000943633
0.000358532
0.000466374
0.000648439
0.000861578
0.00109793
0.00134778
0.00163416
0.00198113
0.00234624
0.00263996
0.00276789
0.00275047
0.00276186
0.00269996
0.00250849
0.0021981
0.00183109
0.00143852
0.0010267
0.000672638
0.000435656
0.000590629
0.000737802
0.000830193
0.000935925
0.00108675
0.00132971
0.00171283
0.00220551
0.0026687
0.0029165
0.00282237
0.00267032
0.00244715
0.00210547
0.00168459
0.00127992
0.000961857
0.000765168
0.000660653
0.000533831
0.000713527
0.000987777
0.0010436
0.00112062
0.00121313
0.00137827
0.00171469
0.00225518
0.00284995
0.00318141
0.00300039
0.00266481
0.00226298
0.00180617
0.00138997
0.00109529
0.000926022
0.000856136
0.000842559
0.000633827
0.000809668
0.0013871
0.00150234
0.00164942
0.00181531
0.00202874
0.00235037
0.00281151
0.00330509
0.00353502
0.00328539
0.00285598
0.00236386
0.00189373
0.00154262
0.00131126
0.00117614
0.00112611
0.00113333
0.000720526
0.00089156
0.00172049
0.00219913
0.00247827
0.00269874
0.00292518
0.00317482
0.003464
0.00373763
0.00381021
0.00353442
0.0031534
0.0027692
0.00241605
0.00213405
0.00190779
0.00174346
0.00161645
0.00138228
0.000799183
0.000971462
0.00180509
0.0026094
0.00312232
0.00340607
0.00360909
0.00374497
0.00383767
0.00390712
0.00390941
0.00373345
0.0035314
0.00338095
0.00325201
0.00308086
0.00283459
0.00252676
0.0021432
0.0014619
0.00088115
0.00102826
0.00114541
0.00124215
0.00132762
0.00140809
0.00148448
0.00155922
0.00163341
0.00170524
0.00176675
0.00179082
0.00171411
0.0016265
0.00153808
0.00144985
0.00136052
0.00126921
0.00117845
0.00107942
0.000960155
0.000299124
0.000352007
0.000390219
0.000421211
0.000450013
0.000480119
0.000513592
0.000549118
0.000579757
0.000594098
0.000571376
0.000521704
0.000503536
0.000495137
0.00048136
0.000463954
0.000442985
0.000415992
0.000376596
0.000313263
0.000317818
0.000911491
0.00121772
0.00147054
0.00170908
0.00193721
0.0021436
0.00230931
0.00240747
0.00241517
0.00237174
0.00235247
0.00233757
0.00223455
0.00207367
0.0018812
0.0016642
0.00141406
0.00106773
0.00033703
0.000335635
0.000868531
0.00121578
0.00152176
0.00182754
0.00213974
0.00242522
0.0026447
0.00277376
0.00278031
0.00266285
0.00279464
0.00287796
0.00278221
0.0025536
0.00224539
0.00190217
0.00153638
0.00108096
0.000339553
0.000397501
0.000656354
0.000966463
0.00128008
0.00159848
0.00196468
0.00234624
0.00267808
0.00295069
0.00308094
0.00289847
0.00286865
0.00289142
0.00279223
0.00251291
0.00212059
0.00167483
0.00120074
0.000744123
0.000385817
0.00054614
0.000653041
0.000794656
0.000985056
0.00127323
0.00169381
0.00220551
0.00270871
0.00319953
0.00348344
0.00323112
0.00293745
0.00272881
0.00249745
0.00208055
0.00158172
0.00115321
0.000834384
0.000626093
0.000497725
0.000691117
0.000867068
0.000944024
0.00109863
0.001332
0.00170897
0.00225518
0.00287886
0.00351636
0.00389019
0.00357695
0.00304025
0.00260975
0.00223139
0.00175613
0.00131829
0.0010095
0.000822809
0.000739072
0.000612221
0.000798817
0.00132919
0.00141822
0.00163342
0.00192386
0.00230773
0.00281151
0.0033821
0.00394258
0.00426298
0.0039194
0.00326107
0.00271655
0.00223838
0.00178746
0.00144489
0.00120546
0.00107292
0.00108326
0.000707165
0.000888236
0.00173237
0.00217507
0.00245157
0.00274497
0.00307799
0.003464
0.0038931
0.00430371
0.00452619
0.0042042
0.00356254
0.00303463
0.00256449
0.00218959
0.00191138
0.00170594
0.00156008
0.00138286
0.000791427
0.000974215
0.00182505
0.00266605
0.00309417
0.00340338
0.00364088
0.00383767
0.00404913
0.00431308
0.00452089
0.00434754
0.00387527
0.00348234
0.00323939
0.00303384
0.00277285
0.0024415
0.00210677
0.00142833
0.000878075
0.00103931
0.00116266
0.0012652
0.00135828
0.0014492
0.00153965
0.00163341
0.00173329
0.00183881
0.00193916
0.0019814
0.00186452
0.00173661
0.00161803
0.00150787
0.00140193
0.00129742
0.00119764
0.00109296
0.000968431
0.000298116
0.000348704
0.000387028
0.000420394
0.000453633
0.000490758
0.000533689
0.000579757
0.000618928
0.000629685
0.000614168
0.000554718
0.000539996
0.000519286
0.000494098
0.000468431
0.000441893
0.00041132
0.000370309
0.000310595
0.000316334
0.000932459
0.00127344
0.00154802
0.00180984
0.00205677
0.0022672
0.00240747
0.0024387
0.00255482
0.00243374
0.00232727
0.0024176
0.00233927
0.00217083
0.00195497
0.00171318
0.00144138
0.00106953
0.000333232
0.000328093
0.00090559
0.00132571
0.0016837
0.00203552
0.00236233
0.00261351
0.00277376
0.00290456
0.00326299
0.00319334
0.0027476
0.00283986
0.00285116
0.00267952
0.00237118
0.0019967
0.00157491
0.00106112
0.000330781
0.000367114
0.000690822
0.00105518
0.00145962
0.00186902
0.00228899
0.00263996
0.00295069
0.00337525
0.0039601
0.00389631
0.00314558
0.00289917
0.00283603
0.00266067
0.00226894
0.00178207
0.00127997
0.00078544
0.000354794
0.000488503
0.000629315
0.000841782
0.00114256
0.00159765
0.00215311
0.0026687
0.00319953
0.0039076
0.00462858
0.00456334
0.00357027
0.00289581
0.00264499
0.0023718
0.00187404
0.00135902
0.000930369
0.00062745
0.000460531
0.00066537
0.000782317
0.000930184
0.0012183
0.00165927
0.00223824
0.00284995
0.00351636
0.00439126
0.00520097
0.00513234
0.00394043
0.00294298
0.00249643
0.00212735
0.00161218
0.00115959
0.000847422
0.000696967
0.000590981
0.000782859
0.00124568
0.00138138
0.00172785
0.00218114
0.00272142
0.00330509
0.00394258
0.00482018
0.005629
0.0055593
0.00426056
0.00309239
0.00252817
0.00209505
0.00165031
0.0012848
0.00104216
0.000991751
0.000690368
0.000878078
0.00173047
0.00212669
0.00245562
0.00283181
0.00325916
0.00373763
0.00430371
0.00509944
0.00580584
0.00572019
0.00453174
0.00338758
0.00273919
0.00227738
0.00193962
0.00168604
0.00149457
0.00137091
0.000777976
0.000968221
0.00180945
0.00264828
0.00302829
0.00335276
0.00362354
0.00390712
0.00431308
0.00492019
0.00550308
0.00543621
0.00458947
0.00370764
0.00321804
0.00293335
0.00265534
0.00231553
0.00196954
0.00137004
0.000867195
0.0010428
0.00117099
0.0012787
0.00137946
0.00148169
0.00158825
0.00170524
0.00183881
0.0019911
0.00214567
0.00221038
0.00204616
0.00185967
0.00169881
0.00156026
0.0014345
0.0013153
0.00120512
0.00109582
0.000967522
0.000296833
0.000346728
0.000383487
0.000414981
0.000447653
0.000489233
0.000539384
0.000594098
0.000629685
0.000647274
0.000631521
0.000593574
0.00055291
0.000523508
0.000491201
0.000462284
0.000434388
0.000403981
0.000363912
0.000307362
0.000315824
0.000868725
0.00121223
0.00153008
0.0018441
0.00211308
0.0023245
0.00241517
0.00255482
0.00181393
0.00157691
0.0023069
0.00232525
0.00230969
0.00215554
0.00191531
0.00164409
0.00134605
0.000982059
0.000324609
0.000330495
0.000903941
0.00135901
0.00178273
0.0021764
0.00249897
0.0026916
0.00278031
0.00326299
0.00280102
0.00242761
0.00313035
0.00260764
0.00265635
0.00260095
0.00230839
0.00190602
0.00145126
0.00094002
0.000328565
0.000360849
0.000731334
0.00114259
0.00160819
0.00208922
0.00250049
0.00276789
0.00308094
0.0039601
0.00372493
0.00325767
0.00384926
0.00278698
0.00258541
0.00254627
0.00219821
0.00170841
0.00120379
0.00073654
0.000348801
0.000445934
0.000645578
0.000954066
0.00139138
0.00195095
0.00249837
0.0029165
0.00348344
0.00462858
0.00459355
0.00407289
0.00447311
0.0030067
0.00251026
0.00238923
0.00197469
0.00144966
0.000972925
0.000627696
0.000438446
0.000641816
0.000763277
0.000999297
0.00146435
0.0020693
0.00267249
0.00318141
0.00389019
0.00520097
0.00536148
0.00483274
0.00498802
0.00323254
0.0024989
0.00229363
0.00184113
0.00131718
0.000902922
0.000692832
0.000575454
0.000765735
0.00117449
0.00140629
0.00189561
0.00247281
0.00303568
0.00353502
0.00426298
0.005629
0.00596413
0.00547218
0.00535636
0.00344306
0.00259795
0.00231412
0.00188224
0.00142285
0.00106772
0.000954995
0.000674905
0.000864501
0.00174052
0.00210543
0.00249446
0.00291639
0.00335112
0.00381021
0.00452619
0.00580584
0.00631659
0.00591341
0.00558467
0.00368831
0.00279223
0.0023718
0.00202736
0.00172822
0.00147345
0.00136356
0.000762091
0.000956498
0.00179709
0.00256481
0.00294739
0.00327255
0.00355675
0.00390941
0.00452089
0.00550308
0.00621488
0.00597389
0.00538867
0.00397175
0.00318875
0.00282368
0.00253535
0.0021974
0.00184718
0.00131997
0.00085071
0.00103802
0.00116956
0.00128101
0.0013889
0.00150199
0.00162476
0.00176675
0.00193916
0.00214567
0.00234674
0.00239774
0.00223925
0.00198491
0.00177234
0.00160095
0.00145387
0.0013197
0.0011996
0.00108805
0.000957349
0.00029375
0.000343644
0.000379782
0.000410416
0.000441862
0.000478189
0.000520656
0.000571376
0.000614168
0.000631521
0.000622678
0.000597979
0.000544191
0.000511046
0.000480098
0.000451495
0.000424081
0.000394691
0.00035641
0.000302703
0.000314596
0.000780964
0.00107987
0.00136873
0.0016778
0.00200574
0.00229142
0.00237174
0.00243374
0.00157691
0.00126713
0.00205548
0.0019967
0.00205523
0.0019208
0.0017041
0.00146116
0.00119034
0.000863201
0.000317646
0.000334029
0.000879144
0.001322
0.00175015
0.00216593
0.00252139
0.00270858
0.00266285
0.00319334
0.00242761
0.00185095
0.00298052
0.00224388
0.00240692
0.0023884
0.00209715
0.00170832
0.00127905
0.000821491
0.00032962
0.000363432
0.000757108
0.00119457
0.00167476
0.00215786
0.00255769
0.00275047
0.00289847
0.00389631
0.00325767
0.0024142
0.00378982
0.00242532
0.00236044
0.00237607
0.00201741
0.00154305
0.00107442
0.000669103
0.000357998
0.000437928
0.000665473
0.00101652
0.00150214
0.00204945
0.00253223
0.00282237
0.00323112
0.00456334
0.00407289
0.00298577
0.00447356
0.00262728
0.00227309
0.00225373
0.00185924
0.00137654
0.000942905
0.00063031
0.00044695
0.000637059
0.000777922
0.00104526
0.00153739
0.00211863
0.00264164
0.00300039
0.00357695
0.00513234
0.00483274
0.00355995
0.00501212
0.00284844
0.00228653
0.00223636
0.00184323
0.00136527
0.000952038
0.000724421
0.000576596
0.000764192
0.00118517
0.00144089
0.00192518
0.00244606
0.0029165
0.00328539
0.0039194
0.0055593
0.00547218
0.00410124
0.00537752
0.00308297
0.00243838
0.00233121
0.00197812
0.00154603
0.00115131
0.00100067
0.000675164
0.000864305
0.00177235
0.00212833
0.00249212
0.00285094
0.00318886
0.00353442
0.0042042
0.00572019
0.00591341
0.00459311
0.00555135
0.00337658
0.00265602
0.00239633
0.00212992
0.00184311
0.00154745
0.00137486
0.000762977
0.000956128
0.00182229
0.00255533
0.00291412
0.00320044
0.00343207
0.00373345
0.00434754
0.00543621
0.00597389
0.00500174
0.00526044
0.00376999
0.00304131
0.00277584
0.00254678
0.00222944
0.00186907
0.00133969
0.000852609
0.00103742
0.00116872
0.00128044
0.00139051
0.00150772
0.00163742
0.00179082
0.0019814
0.00221038
0.00239774
0.00224223
0.00229017
0.00202886
0.00179905
0.00161668
0.00146305
0.00132483
0.00120223
0.00109103
0.000960622
0.000287839
0.000334726
0.000369429
0.000398754
0.000427413
0.00045769
0.000489807
0.000521704
0.000554718
0.000593574
0.000597979
0.000526661
0.000497097
0.000480875
0.000457976
0.000433988
0.000409417
0.000382218
0.000346613
0.000295914
0.000309165
0.000694233
0.000943775
0.00118642
0.00145724
0.00177208
0.00211084
0.00235247
0.00232727
0.0023069
0.00205548
0.00169566
0.00179239
0.00178172
0.00166641
0.00149829
0.00129759
0.00105913
0.000762869
0.000311133
0.000329198
0.00082579
0.0012288
0.00162458
0.00202965
0.0024238
0.00272297
0.00279464
0.0027476
0.00313035
0.00298052
0.00222473
0.00226913
0.00238499
0.0022331
0.00193143
0.00156861
0.00116931
0.000749611
0.000327903
0.000358866
0.000732269
0.00114638
0.00159422
0.00205512
0.00248062
0.00276186
0.00286865
0.00314558
0.00384926
0.00378982
0.00265769
0.00231315
0.00242307
0.00224106
0.00183785
0.00139101
0.000969638
0.00062264
0.000367363
0.000452117
0.000649097
0.000951528
0.00137053
0.00185469
0.00232955
0.00267032
0.00293745
0.00357027
0.00447311
0.00447356
0.00304857
0.00228102
0.00228809
0.00207984
0.00165441
0.00122632
0.000868961
0.00062934
0.000474209
0.000654345
0.000788275
0.000979812
0.00135121
0.00181906
0.00229128
0.00266481
0.00304025
0.00394043
0.00498802
0.00501212
0.00339928
0.00233196
0.00226046
0.00205971
0.00166808
0.00127074
0.000942446
0.000766197
0.000593301
0.000777342
0.00124677
0.00139981
0.00174396
0.00213036
0.00250678
0.00285598
0.00326107
0.00426056
0.00535636
0.00537752
0.00371627
0.00253865
0.0023989
0.00219323
0.00188359
0.00153976
0.00121152
0.00108837
0.000689436
0.000875904
0.0017877
0.00213573
0.00240072
0.0026536
0.00288925
0.0031534
0.00356254
0.00453174
0.00558467
0.00555135
0.00407923
0.00291126
0.00259004
0.00236572
0.00215521
0.00192014
0.00165638
0.0013986
0.000777913
0.00096595
0.0018446
0.002616
0.00293981
0.00318772
0.00335935
0.0035314
0.00387527
0.00458947
0.00538867
0.00526044
0.00426822
0.0033712
0.00306692
0.00291528
0.00270373
0.00238821
0.00201808
0.00140612
0.000868519
0.00103873
0.00116555
0.00127185
0.00137263
0.00147677
0.00158806
0.00171411
0.00186452
0.00204616
0.00223925
0.00229017
0.00209419
0.00188542
0.00171374
0.0015695
0.00144038
0.00131918
0.00120744
0.00109846
0.00096969
0.000290712
0.000326958
0.000354784
0.000378527
0.000402449
0.000429702
0.000461867
0.000503536
0.000539996
0.00055291
0.000544191
0.000497097
0.00046433
0.000446945
0.000431387
0.000412615
0.000391593
0.000367112
0.000334264
0.000286862
0.000304764
0.000663084
0.000906001
0.00114548
0.00142091
0.00174851
0.0020992
0.00233757
0.0024176
0.00232525
0.0019967
0.00179239
0.00178503
0.00172091
0.00159728
0.00144702
0.00126614
0.00103836
0.000741184
0.000303441
0.000319951
0.000794931
0.00118261
0.00155806
0.00194838
0.00234655
0.00269162
0.00287796
0.00283986
0.00260764
0.00224388
0.00226913
0.00241247
0.00236388
0.00215364
0.00186256
0.00151905
0.00113199
0.000722205
0.000326731
0.000350531
0.000690027
0.00107385
0.00148406
0.00191001
0.0023374
0.00269996
0.00289142
0.00289917
0.00278698
0.00242532
0.00231315
0.00244677
0.00238579
0.00207717
0.00167896
0.00126892
0.000892477
0.000593678
0.000380131
0.000479369
0.000619655
0.00084898
0.00117827
0.00157776
0.0020227
0.00244715
0.00272881
0.00289581
0.0030067
0.00262728
0.00228102
0.00228895
0.00218555
0.00183262
0.00143238
0.00107197
0.000793354
0.000624682
0.000501396
0.00066874
0.000792118
0.000889524
0.00111438
0.00144117
0.00183804
0.00226298
0.00260975
0.00294298
0.00323254
0.00284844
0.00233196
0.00223581
0.00210719
0.00177757
0.00142543
0.00111497
0.000891467
0.000793828
0.000607574
0.000786137
0.00129443
0.00132322
0.00150538
0.00175213
0.00202949
0.00236386
0.00271655
0.00309239
0.00344306
0.00308297
0.00253865
0.00238494
0.00220306
0.00194524
0.00168798
0.00142629
0.00120006
0.00115703
0.000699739
0.0008803
0.00176886
0.00208874
0.00225623
0.00242025
0.00257912
0.0027692
0.00303463
0.00338758
0.00368831
0.00337658
0.00291126
0.00265434
0.00244266
0.00226927
0.00209636
0.001907
0.00169504
0.00140346
0.000785683
0.000966551
0.00183936
0.00262938
0.00293027
0.00315796
0.00329929
0.00338095
0.00348234
0.00370764
0.00397175
0.00376999
0.0033712
0.00317343
0.00310947
0.0030016
0.00279307
0.00248678
0.00213416
0.0014577
0.000874779
0.00103079
0.00115126
0.00125081
0.00134232
0.00143373
0.00152703
0.0016265
0.00173661
0.00185967
0.00198491
0.00202886
0.00188542
0.00174692
0.00162322
0.00150975
0.00140169
0.00129609
0.00119544
0.00109135
0.000966353
0.000295796
0.000326268
0.000351507