/*--------------------------------*- C++ -*----------------------------------*\
  =========                 |
  \\      /  F ield         | OpenFOAM: The Open Source CFD Toolbox
   \\    /   O peration     | Website:  https://openfoam.org
    \\  /    A nd           | Version:  9
     \\/     M anipulation  |
\*---------------------------------------------------------------------------*/
FoamFile
{
    format      ascii;
    class       volScalarField;
    location    "500";
    object      epsilon;
}
// * * * * * * * * * * * * * * * * * * * * * * * * * * * * * * * * * * * * * //

dimensions      [0 2 -3 0 0 0 0];

internalField   nonuniform List<scalar> 
4000
(
3.465e-07
2.89919e-07
2.32036e-07
1.93211e-07
1.73264e-07
1.64578e-07
1.61543e-07
1.60491e-07
1.59943e-07
1.58914e-07
1.5548e-07
1.47636e-07
1.493e-07
1.5636e-07
1.6258e-07
1.67755e-07
1.74078e-07
1.83762e-07
1.97577e-07
2.152e-07
9.09986e-07
7.73028e-07
5.90932e-07
4.18659e-07
2.96995e-07
2.30273e-07
2.00839e-07
1.93225e-07
1.93378e-07
1.95083e-07
1.95104e-07
1.86606e-07
1.76242e-07
1.72501e-07
1.75593e-07
1.92187e-07
2.29796e-07
2.90701e-07
3.71926e-07
4.65277e-07
1.39161e-06
1.29635e-06
1.10127e-06
8.52074e-07
6.03898e-07
4.01362e-07
2.71728e-07
2.25802e-07
2.18425e-07
2.26825e-07
2.36303e-07
2.26973e-07
2.06192e-07
1.90897e-07
1.98489e-07
2.63646e-07
3.81732e-07
5.31118e-07
6.87895e-07
8.16279e-07
1.68687e-06
1.68438e-06
1.55769e-06
1.34078e-06
1.08835e-06
8.32314e-07
5.92531e-07
3.8216e-07
3.12435e-07
3.02788e-07
3.12906e-07
3.00893e-07
2.75104e-07
2.68526e-07
3.57381e-07
5.28408e-07
7.18456e-07
9.03767e-07
1.05237e-06
1.11191e-06
1.89125e-06
2.00133e-06
1.98446e-06
1.86269e-06
1.6848e-06
1.47057e-06
1.23475e-06
9.92841e-07
7.35248e-07
5.87832e-07
5.72636e-07
6.21761e-07
7.01788e-07
8.44614e-07
9.99236e-07
1.1315e-06
1.25983e-06
1.36297e-06
1.40868e-06
1.33509e-06
2.06218e-06
2.30262e-06
2.43518e-06
2.46989e-06
2.43555e-06
2.33834e-06
2.18662e-06
1.99387e-06
1.7869e-06
1.61457e-06
1.59439e-06
1.71212e-06
1.80858e-06
1.88947e-06
1.94615e-06
1.96648e-06
1.94643e-06
1.88366e-06
1.75994e-06
1.52564e-06
2.22949e-06
2.60782e-06
2.90992e-06
3.11153e-06
3.22859e-06
3.25863e-06
3.20647e-06
3.08082e-06
2.90074e-06
2.71798e-06
2.70958e-06
2.8441e-06
2.92732e-06
2.95374e-06
2.91346e-06
2.80764e-06
2.63826e-06
2.40849e-06
2.10562e-06
1.69739e-06
2.40476e-06
2.93686e-06
3.41303e-06
3.78538e-06
4.06388e-06
4.2349e-06
4.29626e-06
4.24884e-06
4.10315e-06
3.91475e-06
3.92089e-06
4.07461e-06
4.1227e-06
4.06316e-06
3.89992e-06
3.6467e-06
3.31982e-06
2.92316e-06
2.44257e-06
1.85992e-06
2.61099e-06
3.34243e-06
4.02487e-06
4.59381e-06
5.05091e-06
5.38034e-06
5.57346e-06
5.6217e-06
5.51675e-06
5.31546e-06
5.32105e-06
5.48018e-06
5.47623e-06
5.31576e-06
5.01045e-06
4.59107e-06
4.07906e-06
3.49184e-06
2.81556e-06
2.04385e-06
2.86719e-06
3.75438e-06
4.58083e-06
5.26218e-06
5.82441e-06
6.27362e-06
6.61065e-06
6.82478e-06
6.88814e-06
6.7835e-06
6.76942e-06
6.78311e-06
6.61322e-06
6.29942e-06
5.87562e-06
5.36058e-06
4.75743e-06
4.06006e-06
3.23366e-06
2.28265e-06
2.89919e-07
2.98327e-07
2.69793e-07
2.50616e-07
2.48081e-07
2.55217e-07
2.62605e-07
2.63772e-07
2.5969e-07
2.58962e-07
2.55904e-07
2.4023e-07
2.20384e-07
2.14619e-07
2.18036e-07
2.23249e-07
2.26219e-07
2.29867e-07
2.33668e-07
2.21308e-07
7.73028e-07
7.74709e-07
6.02528e-07
4.31697e-07
3.16608e-07
2.55869e-07
2.29296e-07
2.2089e-07
2.25953e-07
2.41811e-07
2.58274e-07
2.57047e-07
2.29619e-07
2.02388e-07
1.88278e-07
1.96376e-07
2.32521e-07
3.03888e-07
4.06844e-07
4.45009e-07
1.29635e-06
1.21476e-06
1.03256e-06
7.93436e-07
5.67236e-07
4.04066e-07
3.08481e-07
2.5838e-07
2.40934e-07
2.44216e-07
2.54729e-07
2.51471e-07
2.33405e-07
2.17197e-07
2.16708e-07
2.58787e-07
3.56957e-07
5.09685e-07
6.91211e-07
7.83297e-07
1.68438e-06
1.4558e-06
1.33618e-06
1.15576e-06
9.2825e-07
6.91755e-07
4.8787e-07
3.65974e-07
3.11653e-07
2.92807e-07
2.89904e-07
2.78534e-07
2.6124e-07
2.56726e-07
2.97304e-07
4.26408e-07
6.03171e-07
7.87528e-07
9.51731e-07
1.0915e-06
2.00133e-06
1.69365e-06
1.64111e-06
1.53283e-06
1.36761e-06
1.15042e-06
8.96781e-07
6.5682e-07
5.06741e-07
4.42025e-07
4.3641e-07
4.47868e-07
4.68187e-07
5.2487e-07
6.39056e-07
8.3183e-07
9.92346e-07
1.10756e-06
1.17941e-06
1.33605e-06
2.30262e-06
2.00232e-06
2.02726e-06
1.98406e-06
1.88191e-06
1.71182e-06
1.48937e-06
1.22366e-06
1.00255e-06
8.88663e-07
8.7758e-07
9.41632e-07
1.0243e-06
1.14415e-06
1.34692e-06
1.44754e-06
1.48978e-06
1.48923e-06
1.44766e-06
1.55612e-06
2.60782e-06
2.39235e-06
2.49992e-06
2.50468e-06
2.46982e-06
2.3753e-06
2.22751e-06
2.03353e-06
1.79868e-06
1.58677e-06
1.55908e-06
1.72032e-06
1.89682e-06
2.0527e-06
2.09883e-06
2.07978e-06
2.01365e-06
1.92186e-06
1.78385e-06
1.78852e-06
2.93686e-06
2.93495e-06
3.17536e-06
3.27424e-06
3.33028e-06
3.33151e-06
3.27754e-06
3.15898e-06
2.96757e-06
2.77133e-06
2.78658e-06
2.99498e-06
3.0962e-06
3.10046e-06
3.0079e-06
2.86057e-06
2.68928e-06
2.50199e-06
2.25089e-06
2.07987e-06
3.34243e-06
3.78534e-06
4.38718e-06
4.8201e-06
5.15512e-06
5.37732e-06
5.46922e-06
5.40426e-06
5.14e-06
4.79182e-06
4.7499e-06
5.05752e-06
5.17975e-06
5.12437e-06
4.87056e-06
4.50057e-06
4.06026e-06
3.58182e-06
3.01981e-06
2.44713e-06
3.75438e-06
4.91193e-06
6.03245e-06
7.00545e-06
7.85197e-06
8.56975e-06
9.14958e-06
9.56538e-06
9.7622e-06
9.7126e-06
9.6898e-06
9.59966e-06
9.23255e-06
8.65615e-06
7.93334e-06
7.1068e-06
6.19167e-06
5.18908e-06
4.06704e-06
2.86402e-06
2.32036e-07
2.69793e-07
2.77901e-07
2.87279e-07
3.06013e-07
3.2998e-07
3.50356e-07
3.59517e-07
3.54798e-07
3.51151e-07
3.4672e-07
3.24617e-07
2.84313e-07
2.68926e-07
2.77402e-07
2.84342e-07
2.80372e-07
2.6961e-07
2.5127e-07
2.11254e-07
5.90932e-07
6.02528e-07
5.01633e-07
3.97179e-07
3.27402e-07
2.92062e-07
2.78496e-07
2.75804e-07
2.82202e-07
3.01914e-07
3.22912e-07
3.22473e-07
2.85967e-07
2.49181e-07
2.28057e-07
2.26987e-07
2.47003e-07
2.93753e-07
3.65642e-07
3.91712e-07
1.10127e-06
1.03256e-06
8.81993e-07
6.93413e-07
5.27496e-07
4.16181e-07
3.5026e-07
3.11437e-07
2.91325e-07
2.94814e-07
3.07079e-07
3.03643e-07
2.8277e-07
2.65024e-07
2.59173e-07
2.8001e-07
3.45191e-07
4.68358e-07
6.30948e-07
7.134e-07
1.55769e-06
1.33618e-06
1.18335e-06
9.99984e-07
7.94542e-07
6.07928e-07
4.72907e-07
3.93974e-07
3.50727e-07
3.29099e-07
3.23328e-07
3.07071e-07
2.9016e-07
2.89004e-07
3.13595e-07
3.8758e-07
5.25446e-07
7.09855e-07
9.02826e-07
1.05637e-06
1.98446e-06
1.64111e-06
1.47426e-06
1.30219e-06
1.10592e-06
8.95983e-07
6.95506e-07
5.47645e-07
4.53283e-07
4.14912e-07
4.03084e-07
3.84159e-07
3.75727e-07
3.99303e-07
4.68773e-07
6.03641e-07
7.81796e-07
9.61914e-07
1.13531e-06
1.35913e-06
2.43518e-06
2.02726e-06
1.88007e-06
1.70944e-06
1.50014e-06
1.26112e-06
1.02316e-06
8.11004e-07
6.71326e-07
6.12666e-07
6.02843e-07
6.05185e-07
6.27421e-07
6.94157e-07
8.22641e-07
9.69683e-07
1.12691e-06
1.28061e-06
1.42047e-06
1.65913e-06
2.90992e-06
2.49992e-06
2.45815e-06
2.30688e-06
2.0574e-06
1.74242e-06
1.44011e-06
1.23372e-06
1.08002e-06
9.88739e-07
9.77364e-07
1.01156e-06
1.06311e-06
1.14142e-06
1.24457e-06
1.42617e-06
1.59616e-06
1.73729e-06
1.81547e-06
1.99773e-06
3.41303e-06
3.17536e-06
3.40696e-06
3.41392e-06
3.2275e-06
2.94032e-06
2.61765e-06
2.25117e-06
2.01041e-06
1.84829e-06
1.84604e-06
1.97114e-06
2.06271e-06
2.11303e-06
2.2701e-06
2.41109e-06
2.50786e-06
2.52625e-06
2.42016e-06
2.3972e-06
4.02487e-06
4.38718e-06
5.28302e-06
6.00721e-06
6.4929e-06
6.76335e-06
6.81375e-06
6.62136e-06
6.05052e-06
5.48503e-06
5.38786e-06
5.83076e-06
6.12016e-06
6.2286e-06
5.93814e-06
5.47459e-06
4.89446e-06
4.21515e-06
3.47737e-06
2.93025e-06
4.58083e-06
6.03245e-06
7.44068e-06
8.70262e-06
9.83407e-06
1.08307e-05
1.1676e-05
1.23318e-05
1.27176e-05
1.27697e-05
1.27471e-05
1.24806e-05
1.185e-05
1.09726e-05
9.93387e-06
8.79704e-06
7.58871e-06
6.31298e-06
4.94243e-06
3.51943e-06
1.93211e-07
2.50616e-07
2.87279e-07
3.21135e-07
3.58739e-07
3.9768e-07
4.3088e-07
4.51238e-07
4.54e-07
4.44706e-07
4.37664e-07
4.07891e-07
3.45506e-07
3.24288e-07
3.44352e-07
3.5171e-07
3.39641e-07
3.12949e-07
2.70065e-07
2.00053e-07
4.18659e-07
4.31697e-07
3.97179e-07
3.56602e-07
3.29949e-07
3.19112e-07
3.19308e-07
3.26166e-07
3.41451e-07
3.67962e-07
3.92444e-07
3.86755e-07
3.37977e-07
2.93643e-07
2.68951e-07
2.61307e-07
2.65695e-07
2.82315e-07
3.10953e-07
3.24029e-07
8.52074e-07
7.93436e-07
6.93413e-07
5.76806e-07
4.80906e-07
4.16954e-07
3.76832e-07
3.5332e-07
3.47096e-07
3.60177e-07
3.7462e-07
3.62393e-07
3.31003e-07
3.07542e-07
2.96692e-07
3.02636e-07
3.34391e-07
4.07891e-07
5.20972e-07
5.91393e-07
1.34078e-06
1.15576e-06
9.99984e-07
8.37679e-07
6.80189e-07
5.57721e-07
4.79191e-07
4.28605e-07
3.95596e-07
3.89477e-07
3.85913e-07
3.55632e-07
3.29623e-07
3.27383e-07
3.43586e-07
3.81011e-07
4.67316e-07
6.19398e-07
8.08734e-07
9.53805e-07
1.86269e-06
1.53283e-06
1.30219e-06
1.10044e-06
9.05598e-07
7.29094e-07
5.90224e-07
5.07436e-07
4.69616e-07
4.69105e-07
4.53632e-07
3.9972e-07
3.64455e-07
3.66984e-07
4.0447e-07
4.87865e-07
6.42404e-07
8.47512e-07
1.08061e-06
1.31474e-06
2.46989e-06
1.98406e-06
1.70944e-06
1.46752e-06
1.22138e-06
9.91234e-07
8.13804e-07
6.74756e-07
6.03205e-07
6.08048e-07
5.95934e-07
5.33919e-07
4.95223e-07
5.0983e-07
5.77953e-07
6.93676e-07
8.81157e-07
1.12787e-06
1.39403e-06
1.70101e-06
3.11153e-06
2.50468e-06
2.30688e-06
2.07642e-06
1.75631e-06
1.43407e-06
1.20975e-06
1.05714e-06
9.76407e-07
9.66942e-07
9.52804e-07
8.9296e-07
8.41362e-07
8.32822e-07
8.7891e-07
1.01038e-06
1.26762e-06
1.57467e-06
1.80769e-06
2.14825e-06
3.78538e-06
3.27424e-06
3.41392e-06
3.43398e-06
3.18117e-06
2.93368e-06
2.7812e-06
2.5879e-06
2.37983e-06
2.2144e-06
2.18685e-06
2.24492e-06
2.24313e-06
2.16571e-06
2.06254e-06
1.99987e-06
2.27851e-06
2.47569e-06
2.45564e-06
2.67093e-06
4.59381e-06
4.8201e-06
6.00721e-06
7.16941e-06
7.99307e-06
8.44571e-06
8.51126e-06
8.3126e-06
7.81264e-06
7.19445e-06
7.04535e-06
7.48227e-06
7.74189e-06
7.60616e-06
7.14489e-06
6.57485e-06
5.75136e-06
4.73798e-06
3.76081e-06
3.3549e-06
5.26218e-06
7.00545e-06
8.70262e-06
1.027e-05
1.17239e-05
1.30628e-05
1.42631e-05
1.52677e-05
1.59805e-05
1.62921e-05
1.63221e-05
1.56845e-05
1.46458e-05
1.33486e-05
1.19092e-05
1.04037e-05
8.88164e-06
7.33347e-06
5.72585e-06
4.08847e-06
1.73264e-07
2.48081e-07
3.06013e-07
3.58739e-07
4.1168e-07
4.64371e-07
5.12713e-07
5.51106e-07
5.7139e-07
5.61149e-07
5.46709e-07
5.01372e-07
4.14085e-07
3.93642e-07
4.20994e-07
4.23124e-07
4.01089e-07
3.58717e-07
2.92883e-07
1.93354e-07
2.96995e-07
3.16608e-07
3.27402e-07
3.29949e-07
3.33612e-07
3.42279e-07
3.57671e-07
3.8209e-07
4.18292e-07
4.60383e-07
4.86897e-07
4.63317e-07
3.93364e-07
3.38571e-07
3.09421e-07
2.96392e-07
2.8924e-07
2.82222e-07
2.74135e-07
2.71587e-07
6.03898e-07
5.67236e-07
5.27496e-07
4.80906e-07
4.40788e-07
4.11172e-07
3.94333e-07
3.96144e-07
4.22574e-07
4.61868e-07
4.74136e-07
4.3793e-07
3.85246e-07
3.47812e-07
3.28904e-07
3.25206e-07
3.3328e-07
3.57816e-07
4.05674e-07
4.50342e-07
1.08835e-06
9.2825e-07
7.94542e-07
6.80189e-07
5.87492e-07
5.22287e-07
4.79008e-07
4.57013e-07
4.67681e-07
5.0276e-07
4.92322e-07
4.28476e-07
3.78827e-07
3.642e-07
3.71538e-07
3.87217e-07
4.24436e-07
5.15024e-07
6.64025e-07
7.96568e-07
1.6848e-06
1.36761e-06
1.10592e-06
9.05598e-07
7.42595e-07
6.18279e-07
5.40222e-07
5.11598e-07
5.37071e-07
6.05783e-07
5.78202e-07
4.67448e-07
3.95143e-07
3.75811e-07
3.89881e-07
4.34609e-07
5.40322e-07
7.24275e-07
9.75751e-07
1.19836e-06
2.43555e-06
1.88191e-06
1.50014e-06
1.22138e-06
9.90315e-07
8.09673e-07
6.97927e-07
6.43337e-07
6.77523e-07
7.91551e-07
7.4921e-07
5.88469e-07
4.77907e-07
4.42456e-07
4.65725e-07
5.44975e-07
7.03988e-07
9.73115e-07
1.32827e-06
1.66908e-06
3.22859e-06
2.46982e-06
2.0574e-06
1.75631e-06
1.47691e-06
1.31116e-06
1.19292e-06
1.13555e-06
1.16385e-06
1.2604e-06
1.19148e-06
1.00115e-06
8.43326e-07
7.51571e-07
7.27944e-07
7.88527e-07
9.70748e-07
1.34964e-06
1.75479e-06
2.22296e-06
4.06388e-06
3.33028e-06
3.2275e-06
3.18117e-06
3.21814e-06
3.30285e-06
3.30024e-06
3.18259e-06
2.98964e-06
2.82579e-06
2.72064e-06
2.67719e-06
2.604e-06
2.43558e-06
2.19185e-06
1.95417e-06
1.88929e-06
2.20913e-06
2.42591e-06
2.86062e-06
5.05091e-06
5.15512e-06
6.4929e-06
7.99307e-06
9.13259e-06
9.87159e-06
1.02066e-05
1.00749e-05
9.53356e-06
8.89055e-06
8.7176e-06
9.12802e-06
9.45478e-06
9.26412e-06
8.52365e-06
7.40395e-06
6.3053e-06
5.00797e-06
3.93184e-06
3.68733e-06
5.82441e-06
7.85197e-06
9.83407e-06
1.17239e-05
1.35744e-05
1.53503e-05
1.70234e-05
1.85515e-05
1.98152e-05
2.06204e-05
2.07932e-05
1.95112e-05
1.78277e-05
1.59399e-05
1.39745e-05
1.20023e-05
1.00867e-05
8.24992e-06
6.40981e-06
4.5595e-06
1.64578e-07
2.55217e-07
3.2998e-07
3.9768e-07
4.64371e-07
5.32888e-07
6.03934e-07
6.73864e-07
7.27959e-07
7.34538e-07
6.92809e-07
6.14112e-07
5.03194e-07
4.91493e-07
5.07096e-07
4.94901e-07
4.58724e-07
4.00141e-07
3.14003e-07
1.89822e-07
2.30273e-07
2.55869e-07
2.92062e-07
3.19112e-07
3.42279e-07
3.67947e-07
4.04463e-07
4.59899e-07
5.34881e-07
6.08752e-07
6.33744e-07
5.68158e-07
4.66002e-07
3.94388e-07
3.5439e-07
3.33264e-07
3.16383e-07
2.93455e-07
2.60925e-07
2.44272e-07
4.01362e-07
4.04066e-07
4.16181e-07
4.16954e-07
4.11172e-07
4.07009e-07
4.19214e-07
4.66284e-07
5.54464e-07
6.41626e-07
6.36884e-07
5.51109e-07
4.63663e-07
3.99531e-07
3.63908e-07
3.5023e-07
3.44625e-07
3.37812e-07
3.30352e-07
3.33784e-07
8.32314e-07
6.91755e-07
6.07928e-07
5.57721e-07
5.22287e-07
4.93915e-07
4.82169e-07
5.16955e-07
6.24242e-07
7.44877e-07
6.9532e-07
5.57223e-07
4.58709e-07
4.11386e-07
3.99621e-07
4.02168e-07
4.07327e-07
4.30027e-07
5.07169e-07
6.24098e-07
1.47057e-06
1.15042e-06
8.95983e-07
7.29094e-07
6.18279e-07
5.52596e-07
5.32636e-07
5.78678e-07
7.34591e-07
9.41336e-07
8.476e-07
6.15132e-07
4.70615e-07
4.12597e-07
4.02305e-07
4.15822e-07
4.67844e-07
5.95074e-07
8.20387e-07
1.04256e-06
2.33834e-06
1.71182e-06
1.26112e-06
9.91234e-07
8.09673e-07
6.9612e-07
6.52215e-07
7.09502e-07
9.44825e-07
1.26469e-06
1.10214e-06
7.54294e-07
5.3525e-07
4.40587e-07
4.24589e-07
4.68122e-07
5.85611e-07
8.14528e-07
1.20268e-06
1.58685e-06
3.25863e-06
2.3753e-06
1.74242e-06
1.43407e-06
1.31116e-06
1.26444e-06
1.27315e-06
1.35802e-06
1.58447e-06
1.85881e-06
1.63199e-06
1.2192e-06
9.32385e-07
7.64139e-07
6.80145e-07
6.80604e-07
7.96886e-07
1.09552e-06
1.65075e-06
2.22699e-06
4.2349e-06
3.33151e-06
2.94032e-06
2.93368e-06
3.30285e-06
3.60914e-06
3.75343e-06
3.72277e-06
3.62376e-06
3.54848e-06
3.30116e-06
3.05396e-06
2.89213e-06
2.67238e-06
2.34521e-06
1.97892e-06
1.71735e-06
1.83933e-06
2.35581e-06
2.96201e-06
5.38034e-06
5.37732e-06
6.76335e-06
8.44571e-06
9.87159e-06
1.09208e-05
1.13711e-05
1.12681e-05
1.08244e-05
1.04093e-05
1.02724e-05
1.03883e-05
1.0629e-05
1.04565e-05
9.59628e-06
8.12933e-06
6.44473e-06
5.05775e-06
3.99838e-06
3.90571e-06
6.27362e-06
8.56975e-06
1.08307e-05
1.30628e-05
1.53503e-05
1.76419e-05
1.99497e-05
2.22518e-05
2.44155e-05
2.61143e-05
2.66086e-05
2.42292e-05
2.15095e-05
1.87665e-05
1.61104e-05
1.35765e-05
1.12041e-05
9.05219e-06
6.98237e-06
4.9273e-06
1.61543e-07
2.62605e-07
3.50356e-07
4.3088e-07
5.12713e-07
6.03934e-07
7.11642e-07
8.33818e-07
9.44395e-07
9.85314e-07
8.98892e-07
7.50487e-07
6.27775e-07
6.17274e-07
6.00131e-07
5.61362e-07
5.04615e-07
4.28421e-07
3.25273e-07
1.86945e-07
2.00839e-07
2.29296e-07
2.78496e-07
3.19308e-07
3.57671e-07
4.04463e-07
4.74679e-07
5.81403e-07
7.2114e-07
8.55311e-07
8.78965e-07
7.23702e-07
5.76245e-07
4.74781e-07
4.11664e-07
3.74268e-07
3.44483e-07
3.08921e-07
2.60883e-07
2.33928e-07
2.71728e-07
3.08481e-07
3.5026e-07
3.76832e-07
3.94333e-07
4.19214e-07
4.79466e-07
6.08264e-07
8.14101e-07
1.01895e-06
9.77234e-07
7.60639e-07
6.01378e-07
4.85492e-07
4.16339e-07
3.83138e-07
3.63751e-07
3.39782e-07
3.01917e-07
2.66626e-07
5.92531e-07
4.8787e-07
4.72907e-07
4.79191e-07
4.79008e-07
4.82169e-07
5.29202e-07
6.8808e-07
1.0149e-06
1.379e-06
1.24963e-06
8.68389e-07
6.32543e-07
5.02946e-07
4.46272e-07
4.29072e-07
4.16668e-07
3.91562e-07
3.87441e-07
4.68861e-07
1.23475e-06
8.96781e-07
6.95506e-07
5.90224e-07
5.40222e-07
5.32636e-07
5.88848e-07
8.00911e-07
1.31171e-06
1.96643e-06
1.68652e-06
1.04105e-06
6.70423e-07
5.02978e-07
4.4289e-07
4.24656e-07
4.32052e-07
4.90959e-07
6.45434e-07
8.76989e-07
2.18662e-06
1.48937e-06
1.02316e-06
8.13804e-07
6.97927e-07
6.52215e-07
7.12431e-07
9.99524e-07
1.73067e-06
2.62511e-06
2.19344e-06
1.26474e-06
7.36488e-07
5.10597e-07
4.35827e-07
4.38515e-07
5.07025e-07
6.73509e-07
1.02839e-06
1.46731e-06
3.20647e-06
2.22751e-06
1.44011e-06
1.20975e-06
1.19292e-06
1.27315e-06
1.44141e-06
1.78477e-06
2.5222e-06
3.40476e-06
2.88634e-06
1.79277e-06
1.14477e-06
8.37793e-07
6.87409e-07
6.33092e-07
6.84443e-07
9.04417e-07
1.50753e-06
2.16498e-06
4.29626e-06
3.27754e-06
2.61765e-06
2.7812e-06
3.30024e-06
3.75343e-06
4.02995e-06
4.21101e-06
4.61976e-06
5.18887e-06
4.79421e-06
3.76257e-06
3.12342e-06
2.77728e-06
2.39915e-06
1.96084e-06
1.58578e-06
1.47029e-06
2.25298e-06
2.96835e-06
5.57346e-06
5.46922e-06
6.81375e-06
8.51126e-06
1.02066e-05
1.13711e-05
1.18989e-05
1.19977e-05
1.21047e-05
1.25215e-05
1.2605e-05
1.16479e-05
1.12361e-05
1.09619e-05
1.00771e-05
8.45902e-06
6.42765e-06
4.92147e-06
3.9493e-06
3.99934e-06
6.61065e-06
9.14958e-06
1.1676e-05
1.42631e-05
1.70234e-05
1.99497e-05
2.31159e-05
2.65706e-05
3.02237e-05
3.35786e-05
3.4759e-05
3.04179e-05
2.595e-05
2.19147e-05
1.83209e-05
1.50948e-05
1.22053e-05
9.72141e-06
7.42848e-06
5.18739e-06
1.60491e-07
2.63772e-07
3.59517e-07
4.51238e-07
5.51106e-07
6.73864e-07
8.33818e-07
1.02966e-06
1.21885e-06
1.3149e-06
1.18102e-06
9.05147e-07
8.15415e-07
7.60817e-07
6.90114e-07
6.12369e-07
5.29478e-07
4.3588e-07
3.20623e-07
1.83298e-07
1.93225e-07
2.2089e-07
2.75804e-07
3.26166e-07
3.8209e-07
4.59899e-07
5.81403e-07
7.6596e-07
1.00884e-06
1.30613e-06
1.36467e-06
9.84367e-07
7.47223e-07
5.88704e-07
4.85e-07
4.19167e-07
3.69829e-07
3.2088e-07
2.61184e-07
2.3143e-07
2.25802e-07
2.5838e-07
3.11437e-07
3.5332e-07
3.96144e-07
4.66284e-07
6.08264e-07
8.85485e-07
1.36454e-06
2.19409e-06
2.24855e-06
1.30024e-06
8.70212e-07
6.31351e-07
4.95876e-07
4.24606e-07
3.81561e-07
3.40959e-07
2.8668e-07
2.35881e-07
3.8216e-07
3.65974e-07
3.93974e-07
4.28605e-07
4.57013e-07
5.16955e-07
6.8808e-07
1.12276e-06
2.05847e-06
3.73756e-06
3.69556e-06
1.90807e-06
1.07562e-06
6.98027e-07
5.33048e-07
4.68607e-07
4.33866e-07
3.87348e-07
3.33794e-07
3.3957e-07
9.92841e-07
6.5682e-07
5.47645e-07
5.07436e-07
5.11598e-07
5.78678e-07
8.00911e-07
1.4555e-06
3.09073e-06
5.67469e-06
5.52424e-06
2.6945e-06
1.30194e-06
7.34291e-07
5.31843e-07
4.59485e-07
4.26461e-07
4.28311e-07
5.07012e-07
7.23518e-07
1.99387e-06
1.22366e-06
8.11004e-07
6.74756e-07
6.43337e-07
7.09502e-07
9.99524e-07
1.88403e-06
4.05675e-06
7.49832e-06
7.27352e-06
3.47366e-06
1.48132e-06
7.40687e-07
5.08992e-07
4.4691e-07
4.59827e-07
5.54399e-07
8.26573e-07
1.32992e-06
3.08082e-06
2.03353e-06
1.23372e-06
1.05714e-06
1.13555e-06
1.35802e-06
1.78477e-06
2.77412e-06
5.15339e-06
8.91715e-06
8.71849e-06
4.37012e-06
1.91671e-06
1.03665e-06
7.35794e-07
6.18109e-07
6.11786e-07
7.65736e-07
1.33374e-06
2.05171e-06
4.24884e-06
3.15898e-06
2.25117e-06
2.5879e-06
3.18259e-06
3.72277e-06
4.21101e-06
5.14863e-06
7.37944e-06
1.08991e-05
1.13451e-05
6.85067e-06
3.8287e-06
2.78736e-06
2.30935e-06
1.85186e-06
1.44648e-06
1.28472e-06
2.09375e-06
2.88622e-06
5.6217e-06
5.40426e-06
6.62136e-06
8.3126e-06
1.00749e-05
1.12681e-05
1.19977e-05
1.27818e-05
1.44506e-05
1.72703e-05
1.83403e-05
1.44819e-05
1.18739e-05
1.0888e-05
9.91639e-06
8.28438e-06
6.14001e-06
4.35945e-06
3.7322e-06
3.96024e-06
6.82478e-06
9.56538e-06
1.23318e-05
1.52677e-05
1.85515e-05
2.22518e-05
2.65706e-05
3.17468e-05
3.78916e-05
4.43597e-05
4.69623e-05
3.90669e-05
3.15263e-05
2.54705e-05
2.05799e-05
1.64953e-05
1.30245e-05
1.01944e-05
7.70622e-06
5.32188e-06
1.59943e-07
2.5969e-07
3.54798e-07
4.54e-07
5.7139e-07
7.27959e-07
9.44395e-07
1.21885e-06
1.48467e-06
1.55972e-06
1.45068e-06
1.0819e-06
9.99869e-07
8.78476e-07
7.476e-07
6.30308e-07
5.25001e-07
4.20844e-07
3.04751e-07
1.78927e-07
1.93378e-07
2.25953e-07
2.82202e-07
3.41451e-07
4.18292e-07
5.34881e-07
7.2114e-07
1.00884e-06
1.45999e-06
3.20815e-06
3.93922e-06
1.65315e-06
1.00116e-06
7.26294e-07
5.63958e-07
4.61892e-07
3.90533e-07
3.29486e-07
2.6328e-07
2.22412e-07
2.18425e-07
2.40934e-07
2.91325e-07
3.47096e-07
4.22574e-07
5.54464e-07
8.14101e-07
1.36454e-06
2.85462e-06
7.90846e-06
1.01152e-05
3.37831e-06
1.45984e-06
8.40199e-07
5.84791e-07
4.60186e-07
3.87497e-07
3.30025e-07
2.67328e-07
2.21473e-07
3.12435e-07
3.11653e-07
3.50727e-07
3.95596e-07
4.67681e-07
6.24242e-07
1.0149e-06
2.05847e-06
5.18941e-06
1.32388e-05
1.7152e-05
6.05366e-06
2.22254e-06
1.04272e-06
6.41821e-07
4.99202e-07
4.33403e-07
3.75002e-07
3.07651e-07
2.75493e-07
7.35248e-07
5.06741e-07
4.53283e-07
4.69616e-07
5.37071e-07
7.34591e-07
1.31171e-06
3.09073e-06
8.00707e-06
1.88458e-05
2.42646e-05
9.34475e-06
3.26428e-06
1.24143e-06
6.76375e-07
5.08265e-07
4.34549e-07
3.9754e-07
4.27015e-07
5.88732e-07
1.7869e-06
1.00255e-06
6.71326e-07
6.03205e-07
6.77523e-07
9.44825e-07
1.73067e-06
4.05675e-06
1.0503e-05
2.35794e-05
3.00971e-05
1.27639e-05
4.19026e-06
1.35401e-06
6.67286e-07
4.91261e-07
4.44987e-07
4.85029e-07
7.08474e-07
1.20306e-06
2.90074e-06
1.79868e-06
1.08002e-06
9.76407e-07
1.16385e-06
1.58447e-06
2.5222e-06
5.15339e-06
1.23613e-05
2.64219e-05
3.34472e-05
1.56984e-05
4.99949e-06
1.62096e-06
8.49119e-07
6.28957e-07
5.64406e-07
6.55024e-07
1.12298e-06
1.9117e-06
4.10315e-06
2.96757e-06
2.01041e-06
2.37983e-06
2.98964e-06
3.62376e-06
4.61976e-06
7.37944e-06
1.44964e-05
2.67269e-05
3.29085e-05
1.7702e-05
6.33362e-06
2.98523e-06
2.13796e-06
1.66789e-06
1.2784e-06
1.11516e-06
1.90805e-06
2.74088e-06
5.51675e-06
5.14e-06
6.05052e-06
7.81264e-06
9.53356e-06
1.08244e-05
1.21047e-05
1.44506e-05
1.96316e-05
2.81899e-05
3.23599e-05
2.23428e-05
1.40084e-05
1.08349e-05
9.30391e-06
7.62377e-06
5.54372e-06
3.77945e-06
3.42599e-06
3.81195e-06
6.88814e-06
9.7622e-06
1.27176e-05
1.59805e-05
1.98152e-05
2.44155e-05
3.02237e-05
3.78916e-05
4.80573e-05
5.99028e-05
6.49016e-05
5.14791e-05
3.86277e-05
2.94228e-05
2.276e-05
1.76404e-05
1.35466e-05
1.03685e-05
7.75482e-06
5.30141e-06
1.58914e-07
2.58962e-07
3.51151e-07
4.44706e-07
5.61149e-07
7.34538e-07
9.85314e-07
1.3149e-06
1.55972e-06
1.69883e-06
1.57948e-06
1.31421e-06
1.0606e-06
8.98071e-07
7.3529e-07
6.06507e-07
4.99805e-07
4.00347e-07
2.90884e-07
1.73817e-07
1.95083e-07
2.41811e-07
3.01914e-07
3.67962e-07
4.60383e-07
6.08752e-07
8.55311e-07
1.30613e-06
3.20815e-06
5.66995e-06
6.35047e-06
4.88851e-06
1.54967e-06
8.61424e-07
6.23675e-07
4.9429e-07
4.09663e-07
3.41738e-07
2.71293e-07
2.07248e-07
2.26825e-07
2.44216e-07
2.94814e-07
3.60177e-07
4.61868e-07
6.41626e-07
1.01895e-06
2.19409e-06
7.90846e-06
1.14225e-05
1.2067e-05
1.22657e-05
2.89331e-06
1.05314e-06
6.21895e-07
4.64163e-07
3.7952e-07
3.16281e-07
2.56416e-07
2.20142e-07
3.02788e-07
2.92807e-07
3.29099e-07
3.89477e-07
5.0276e-07
7.44877e-07
1.379e-06
3.73756e-06
1.32388e-05
1.87181e-05
1.91499e-05
2.05968e-05
4.81208e-06
1.34243e-06
6.5344e-07
4.69955e-07
3.90448e-07
3.34663e-07
2.86678e-07
2.66669e-07
5.87832e-07
4.42025e-07
4.14912e-07
4.69105e-07
6.05783e-07
9.41336e-07
1.96643e-06
5.67469e-06
1.88458e-05
2.67253e-05
2.72581e-05
2.93878e-05
6.9334e-06
1.67905e-06
7.28487e-07
5.12935e-07
4.24421e-07
3.752e-07
3.90947e-07
5.23952e-07
1.61457e-06
8.88663e-07
6.12666e-07
6.08048e-07
7.91551e-07
1.26469e-06
2.62511e-06
7.49832e-06
2.35794e-05
3.41207e-05
3.53442e-05
3.68188e-05
8.88446e-06
2.00232e-06
8.02458e-07
5.41385e-07
4.51281e-07
4.54267e-07
6.48557e-07
1.11731e-06
2.71798e-06
1.58677e-06
9.88739e-07
9.66942e-07
1.2604e-06
1.85881e-06
3.40476e-06
8.91715e-06
2.64219e-05
3.94963e-05
4.19158e-05
4.08252e-05
1.00895e-05
2.34021e-06
9.89651e-07
6.70542e-07
5.53104e-07
5.94189e-07
1.00105e-06
1.78797e-06
3.91475e-06
2.77133e-06
1.84829e-06
2.2144e-06
2.82579e-06
3.54848e-06
5.18887e-06
1.08991e-05
2.67269e-05
4.14719e-05
4.51743e-05
4.07173e-05
1.08643e-05
3.41793e-06
2.02969e-06
1.51363e-06
1.13811e-06
9.79264e-07
1.72468e-06
2.57369e-06
5.31546e-06
4.79182e-06
5.48503e-06
7.19445e-06
8.89055e-06
1.04093e-05
1.25215e-05
1.72703e-05
2.81899e-05
4.2744e-05
4.69935e-05
3.78506e-05
1.87118e-05
1.15102e-05
8.76374e-06
6.81457e-06
4.80651e-06
3.18567e-06
3.0484e-06
3.58954e-06
6.7835e-06
9.7126e-06
1.27697e-05
1.62921e-05
2.06204e-05
2.61143e-05
3.35786e-05
4.43597e-05
5.99028e-05
7.7606e-05
8.2137e-05
6.7122e-05
4.68236e-05
3.33375e-05
2.45364e-05
1.83203e-05
1.36432e-05
1.01938e-05
7.56399e-06
5.11835e-06
1.5548e-07
2.55904e-07
3.4672e-07
4.37664e-07
5.46709e-07
6.92809e-07
8.98892e-07
1.18102e-06
1.45068e-06
1.57948e-06
1.50691e-06
1.32635e-06
1.00375e-06
8.3119e-07
6.87185e-07
5.68364e-07
4.68786e-07
3.76641e-07
2.75896e-07
1.66851e-07
1.95104e-07
2.58274e-07
3.22912e-07
3.92444e-07
4.86897e-07
6.33744e-07
8.78965e-07
1.36467e-06
3.93922e-06
6.35047e-06
6.81278e-06
6.36447e-06
1.64007e-06
8.4795e-07
6.14722e-07
4.92832e-07
4.12567e-07
3.46322e-07
2.75817e-07
1.96997e-07
2.36303e-07
2.54729e-07
3.07079e-07
3.7462e-07
4.74136e-07
6.36884e-07
9.77234e-07
2.24855e-06
1.01152e-05
1.2067e-05
1.1019e-05
1.78584e-05
3.04879e-06
9.32603e-07
5.55497e-07
4.29988e-07
3.60875e-07
3.06841e-07
2.55689e-07
2.24678e-07
3.12906e-07
2.89904e-07
3.23328e-07
3.85913e-07
4.92322e-07
6.9532e-07
1.24963e-06
3.69556e-06
1.7152e-05
1.91499e-05
1.51697e-05
3.17733e-05
5.0902e-06
1.1317e-06
5.50397e-07
4.11924e-07
3.49547e-07
3.08179e-07
2.83785e-07
2.92899e-07
5.72636e-07
4.3641e-07
4.03084e-07
4.53632e-07
5.78202e-07
8.476e-07
1.68652e-06
5.52424e-06
2.42646e-05
2.72581e-05
1.96188e-05
4.54945e-05
7.38372e-06
1.38972e-06
6.03639e-07
4.52124e-07
3.92657e-07
3.66658e-07
4.06394e-07
5.61959e-07
1.59439e-06
8.7758e-07
6.02843e-07
5.95934e-07
7.4921e-07
1.10214e-06
2.19344e-06
7.27352e-06
3.00971e-05
3.53442e-05
2.4199e-05
5.65415e-05
9.52606e-06
1.68963e-06
7.05421e-07
5.23369e-07
4.53995e-07
4.57943e-07
6.54086e-07
1.12873e-06
2.70958e-06
1.55908e-06
9.77364e-07
9.52804e-07
1.19148e-06
1.63199e-06
2.88634e-06
8.71849e-06
3.34472e-05
4.19158e-05
2.80609e-05
6.2104e-05
1.09906e-05
2.08809e-06
9.47475e-07
6.99247e-07
5.79487e-07
5.93451e-07
9.9322e-07
1.79124e-06
3.92089e-06
2.78658e-06
1.84604e-06
2.18685e-06
2.72064e-06
3.30116e-06
4.79421e-06
1.13451e-05
3.29085e-05
4.51743e-05
3.09885e-05
5.95142e-05
1.21606e-05
3.27885e-06
2.03206e-06
1.57072e-06
1.18382e-06
9.75641e-07
1.72476e-06
2.58234e-06
5.32105e-06
4.7499e-06
5.38786e-06
7.04535e-06
8.7176e-06
1.02724e-05
1.2605e-05
1.83403e-05
3.23599e-05
4.69935e-05
3.59579e-05
4.87781e-05
2.14771e-05
1.19612e-05
8.7582e-06
6.74965e-06
4.76479e-06
3.15855e-06
3.03457e-06
3.61396e-06
6.76942e-06
9.6898e-06
1.27471e-05
1.63221e-05
2.07932e-05
2.66086e-05
3.4759e-05
4.69623e-05
6.49016e-05
8.2137e-05
6.96699e-05
7.17077e-05
4.98148e-05
3.47875e-05
2.52497e-05
1.8682e-05
1.38288e-05
1.02887e-05
7.63727e-06
5.16911e-06
1.47636e-07
2.4023e-07
3.24617e-07
4.07891e-07
5.01372e-07
6.14112e-07
7.50487e-07
9.05147e-07
1.0819e-06
1.31421e-06
1.32635e-06
9.22874e-07
7.75385e-07
6.98413e-07
6.01435e-07
5.09904e-07
4.2676e-07
3.46232e-07
2.56881e-07
1.57339e-07
1.86606e-07
2.57047e-07
3.22473e-07
3.86755e-07
4.63317e-07
5.68158e-07
7.23702e-07
9.84367e-07
1.65315e-06
4.88851e-06
6.36447e-06
1.90257e-06
9.18369e-07
6.51311e-07
5.25979e-07
4.45881e-07
3.85353e-07
3.29325e-07
2.64966e-07
1.87291e-07
2.26973e-07
2.51471e-07
3.03643e-07
3.62393e-07
4.3793e-07
5.51109e-07
7.60639e-07
1.30024e-06
3.37831e-06
1.22657e-05
1.78584e-05
4.33659e-06
1.2705e-06
6.46823e-07
4.7073e-07
3.93253e-07
3.43224e-07
2.98506e-07
2.52095e-07
2.22335e-07
3.00893e-07
2.78534e-07
3.07071e-07
3.55632e-07
4.28476e-07
5.57223e-07
8.68389e-07
1.90807e-06
6.05366e-06
2.05968e-05
3.17733e-05
8.04399e-06
1.81406e-06
6.80157e-07
4.4486e-07
3.67509e-07
3.24753e-07
2.96302e-07
2.88777e-07
3.19573e-07
6.21761e-07
4.47868e-07
3.84159e-07
3.9972e-07
4.67448e-07
6.15132e-07
1.04105e-06
2.69451e-06
9.34475e-06
2.93878e-05
4.54945e-05
1.22538e-05
2.40349e-06
7.35465e-07
4.55096e-07
3.82511e-07
3.54617e-07
3.61413e-07
4.46071e-07
6.5972e-07
1.71212e-06
9.41632e-07
6.05185e-07
5.33919e-07
5.88469e-07
7.54294e-07
1.26474e-06
3.47366e-06
1.27639e-05
3.68188e-05
5.65415e-05
1.61657e-05
3.00385e-06
8.5424e-07
5.2951e-07
4.51195e-07
4.26878e-07
4.68835e-07
7.0544e-07
1.21958e-06
2.8441e-06
1.72032e-06
1.01156e-06
8.9296e-07
1.00115e-06
1.2192e-06
1.79277e-06
4.37012e-06
1.56984e-05
4.08252e-05
6.2104e-05
1.88419e-05
3.6624e-06
1.18875e-06
8.00512e-07
6.67049e-07
5.87012e-07
6.21809e-07
1.069e-06
1.89495e-06
4.07461e-06
2.99498e-06
1.97114e-06
2.24492e-06
2.67719e-06
3.05396e-06
3.76257e-06
6.85067e-06
1.7702e-05
4.07173e-05
5.95142e-05
2.03657e-05
5.08699e-06
2.62968e-06
2.131e-06
1.74735e-06
1.34681e-06
1.08103e-06
1.90165e-06
2.72103e-06
5.48018e-06
5.05752e-06
5.83076e-06
7.48227e-06
9.12802e-06
1.03883e-05
1.16479e-05
1.44819e-05
2.23428e-05
3.78506e-05
4.87781e-05
2.58487e-05
1.41802e-05
1.08434e-05
9.2977e-06
7.52205e-06
5.44607e-06
3.69516e-06
3.38737e-06
3.80284e-06
6.78311e-06
9.59966e-06
1.24806e-05
1.56845e-05
1.95112e-05
2.42292e-05
3.04179e-05
3.90669e-05
5.14791e-05
6.7122e-05
7.17077e-05
5.47411e-05
4.00312e-05
3.01034e-05
2.31191e-05
1.78343e-05
1.36512e-05
1.04117e-05
7.77908e-06
5.29959e-06
1.493e-07
2.20384e-07
2.84313e-07
3.45506e-07
4.14085e-07
5.03194e-07
6.27775e-07
8.15415e-07
9.99869e-07
1.0606e-06
1.00375e-06
7.75385e-07
6.41151e-07
5.671e-07
5.07425e-07
4.42468e-07
3.77505e-07
3.10479e-07
2.33254e-07
1.4533e-07
1.76242e-07
2.29619e-07
2.85967e-07
3.37977e-07
3.93364e-07
4.66002e-07
5.76245e-07
7.47223e-07
1.00116e-06
1.54967e-06
1.64007e-06
9.18369e-07
6.41937e-07
5.21549e-07
4.46148e-07
3.91713e-07
3.47331e-07
3.02396e-07
2.46076e-07
1.74405e-07
2.06192e-07
2.33405e-07
2.8277e-07
3.31003e-07
3.85246e-07
4.63663e-07
6.01378e-07
8.70212e-07
1.45984e-06
2.89331e-06
3.04879e-06
1.2705e-06
6.94308e-07
5.0385e-07
4.21374e-07
3.75137e-07
3.39194e-07
2.98949e-07
2.50532e-07
2.16684e-07
2.75104e-07
2.6124e-07
2.9016e-07
3.29623e-07
3.78827e-07
4.58709e-07
6.32543e-07