/*--------------------------------*- C++ -*----------------------------------*\
  =========                 |
  \\      /  F ield         | OpenFOAM: The Open Source CFD Toolbox
   \\    /   O peration     | Website:  https://openfoam.org
    \\  /    A nd           | Version:  9
     \\/     M anipulation  |
\*---------------------------------------------------------------------------*/
FoamFile
{
    format      ascii;
    class       volScalarField;
    location    "1350";
    object      epsilon;
}
// * * * * * * * * * * * * * * * * * * * * * * * * * * * * * * * * * * * * * //

dimensions      [0 2 -3 0 0 0 0];

internalField   nonuniform List<scalar> 
4000
(
2.85266e-07
2.01543e-07
8.50854e-08
3.86566e-08
2.64476e-08
2.19783e-08
1.71782e-08
1.40009e-08
1.24186e-08
1.1777e-08
1.12679e-08
1.08724e-08
1.13301e-08
1.30896e-08
1.65586e-08
2.12233e-08
3.07126e-08
6.1317e-08
1.41561e-07
2.1163e-07
3.88385e-07
3.02142e-07
2.01233e-07
1.53441e-07
1.22401e-07
7.55211e-08
2.94922e-08
2.58728e-08
2.37441e-08
2.45303e-08
2.44068e-08
2.24849e-08
2.3013e-08
2.47916e-08
7.57026e-08
1.2975e-07
1.6633e-07
2.08408e-07
2.69902e-07
3.63944e-07
4.55455e-07
4.05897e-07
3.29433e-07
2.63556e-07
2.05914e-07
1.49807e-07
1.0319e-07
5.72686e-08
3.02808e-08
3.32509e-08
3.3365e-08
3.02542e-08
4.82229e-08
9.16748e-08
1.42215e-07
2.07831e-07
2.78786e-07
3.46854e-07
4.04627e-07
4.45155e-07
4.9233e-07
4.57966e-07
3.8496e-07
3.07508e-07
2.32272e-07
1.65953e-07
1.13233e-07
7.40146e-08
4.92196e-08
4.6289e-08
4.72786e-08
5.38865e-08
7.69012e-08
1.1435e-07
1.64762e-07
2.31614e-07
3.12563e-07
3.93598e-07
4.58809e-07
4.8542e-07
5.15478e-07
5.0252e-07
4.494e-07
3.81701e-07
3.16293e-07
2.6247e-07
2.17338e-07
1.79891e-07
1.57495e-07
1.50548e-07
1.65117e-07
1.81254e-07
2.07835e-07
2.42828e-07
2.82294e-07
3.33693e-07
3.96138e-07
4.58241e-07
5.04428e-07
5.09843e-07
5.32749e-07
5.44846e-07
5.27513e-07
4.99643e-07
4.69868e-07
4.39444e-07
4.10178e-07
3.82497e-07
3.58286e-07
3.403e-07
3.56501e-07
3.82306e-07
4.09899e-07
4.37851e-07
4.65127e-07
4.92547e-07
5.17792e-07
5.39258e-07
5.48086e-07
5.28163e-07
5.49863e-07
5.91253e-07
6.13389e-07
6.2431e-07
6.2829e-07
6.23348e-07
6.09365e-07
5.87894e-07
5.59922e-07
5.28764e-07
5.44865e-07
5.83415e-07
6.15806e-07
6.38664e-07
6.51409e-07
6.53103e-07
6.4415e-07
6.26587e-07
5.96151e-07
5.465e-07
5.7051e-07
6.43523e-07
7.04642e-07
7.51672e-07
7.86976e-07
8.08331e-07
8.14207e-07
8.02027e-07
7.70168e-07
7.21855e-07
7.38318e-07
7.93256e-07
8.30031e-07
8.44111e-07
8.37678e-07
8.13117e-07
7.7274e-07
7.19117e-07
6.4998e-07
5.68529e-07
6.00145e-07
7.13528e-07
8.16293e-07
9.01513e-07
9.71108e-07
1.02168e-06
1.05117e-06
1.05331e-06
1.01995e-06
9.49139e-07
9.67341e-07
1.0433e-06
1.08151e-06
1.08198e-06
1.05256e-06
9.99157e-07
9.23969e-07
8.31835e-07
7.21296e-07
5.99834e-07
6.46921e-07
8.05484e-07
9.5567e-07
1.08182e-06
1.19073e-06
1.28175e-06
1.34982e-06
1.38559e-06
1.37615e-06
1.30683e-06
1.32709e-06
1.40097e-06
1.4142e-06
1.38053e-06
1.31245e-06
1.21916e-06
1.10586e-06
9.73862e-07
8.16349e-07
6.48891e-07
2.01543e-07
1.45888e-07
7.44448e-08
5.00144e-08
4.40704e-08
4.41924e-08
3.53795e-08
2.43395e-08
2.0219e-08
1.84112e-08
1.7561e-08
1.7038e-08
1.89233e-08
2.66594e-08
3.30923e-08
3.62219e-08
4.19712e-08
5.59788e-08
8.4851e-08
1.04874e-07
3.02142e-07
3.2702e-07
2.41754e-07
2.03894e-07
1.90301e-07
1.46044e-07
7.12952e-08
3.86378e-08
2.77808e-08
2.28937e-08
2.2194e-08
2.3902e-08
3.1434e-08
6.17868e-08
1.41795e-07
2.0017e-07
2.32661e-07
2.79352e-07
3.39945e-07
2.72411e-07
4.05897e-07
5.69947e-07
4.50243e-07
3.26226e-07
2.40919e-07
1.78768e-07
1.30856e-07
8.62435e-08
4.9841e-08
3.05511e-08
3.00932e-08
4.35029e-08
7.64243e-08
1.17365e-07
1.6489e-07
2.26422e-07
3.02138e-07
3.93343e-07
4.58503e-07
3.99158e-07
4.57966e-07
4.59826e-07
3.97314e-07
3.12659e-07
2.32451e-07
1.72612e-07
1.25672e-07
8.79218e-08
6.12678e-08
4.62363e-08
4.79006e-08
6.17347e-08
8.59239e-08
1.21158e-07
1.6688e-07
2.26658e-07
3.06443e-07
3.77102e-07
4.25735e-07
4.51106e-07
5.0252e-07
4.61029e-07
4.16963e-07
3.50945e-07
2.74785e-07
2.10985e-07
1.6197e-07
1.2283e-07
9.86548e-08
9.44683e-08
1.00336e-07
1.09489e-07
1.35953e-07
1.75641e-07
2.24339e-07
2.91303e-07
3.67842e-07
4.22605e-07
4.53169e-07
4.96035e-07
5.44846e-07
4.92406e-07
4.67555e-07
4.28862e-07
3.77465e-07
3.0426e-07
2.52667e-07
2.13308e-07
1.89289e-07
1.79873e-07
1.88072e-07
2.03788e-07
2.32865e-07
2.76469e-07
3.30221e-07
4.03209e-07
4.48211e-07
4.77588e-07
4.91956e-07
5.38947e-07
5.91253e-07
5.33211e-07
5.17735e-07
5.00623e-07
4.83159e-07
4.41554e-07
3.74653e-07
3.19491e-07
2.85982e-07
2.67576e-07
2.76951e-07
3.04141e-07
3.47214e-07
4.10669e-07
4.76442e-07
5.08409e-07
5.17668e-07
5.27535e-07
5.35292e-07
5.86319e-07
6.43523e-07
5.98165e-07
5.94302e-07
5.95031e-07
6.11947e-07
6.17349e-07
6.03563e-07
5.69187e-07
5.15683e-07
4.54646e-07
4.72016e-07
5.44259e-07
6.00705e-07
6.32788e-07
6.43992e-07
6.32483e-07
6.08715e-07
6.02942e-07
6.01921e-07
6.39946e-07
7.13528e-07
7.48698e-07
8.0527e-07
8.53919e-07
9.04632e-07
9.4548e-07
9.69605e-07
9.61214e-07
8.99439e-07
7.77487e-07
7.90402e-07
9.16177e-07
9.82472e-07
9.93812e-07
9.70184e-07
9.2506e-07
8.66677e-07
8.13117e-07
7.54517e-07
7.12434e-07
8.05484e-07
1.00669e-06
1.2038e-06
1.38025e-06
1.5445e-06
1.69407e-06
1.818e-06
1.89543e-06
1.90017e-06
1.81233e-06
1.83876e-06
1.93386e-06
1.93217e-06
1.85552e-06
1.72984e-06
1.5757e-06
1.40476e-06
1.22156e-06
1.01757e-06
8.09304e-07
8.50854e-08
7.44448e-08
5.86402e-08
5.35989e-08
5.69074e-08
5.64404e-08
4.56855e-08
3.18161e-08
2.58563e-08
2.33293e-08
2.24351e-08
2.20994e-08
2.47113e-08
3.48063e-08
4.51216e-08
4.70521e-08
4.78929e-08
4.99331e-08
5.28748e-08
4.41567e-08
2.01233e-07
2.41754e-07
2.2261e-07
2.18478e-07
2.0705e-07
1.55612e-07
8.42906e-08
4.91636e-08
3.47999e-08
2.79415e-08
2.68753e-08
2.9854e-08
4.048e-08
6.89377e-08
1.48057e-07
2.2e-07
2.51744e-07
2.7135e-07
2.88374e-07
2.19415e-07
3.29433e-07
4.50243e-07
3.86732e-07
3.04207e-07
2.40099e-07
1.85847e-07
1.40871e-07
9.74561e-08
6.08988e-08
3.88029e-08
3.66387e-08
5.29983e-08
8.71834e-08
1.27508e-07
1.69529e-07
2.23275e-07
2.80263e-07
3.445e-07
3.84106e-07
3.34899e-07
3.8496e-07
3.97314e-07
3.5018e-07
2.83992e-07
2.21927e-07
1.72477e-07
1.31884e-07
9.79058e-08
7.23264e-08
5.16533e-08
5.14296e-08
7.19547e-08
9.52997e-08
1.25813e-07
1.64656e-07
2.13756e-07
2.73933e-07
3.31638e-07
3.68929e-07
3.77589e-07
4.494e-07
4.16963e-07
3.61619e-07
2.98417e-07
2.33611e-07
1.81654e-07
1.41283e-07
1.07612e-07
8.2192e-08
6.77507e-08
7.11978e-08
8.67098e-08
1.11998e-07
1.45425e-07
1.86253e-07
2.41289e-07
3.09146e-07
3.66665e-07
4.14281e-07
4.41107e-07
5.27513e-07
4.67555e-07
4.03995e-07
3.40972e-07
2.78577e-07
2.16969e-07
1.71395e-07
1.3548e-07
1.10305e-07
9.94924e-08
1.03152e-07
1.1801e-07
1.46092e-07
1.84224e-07
2.30778e-07
2.92079e-07
3.51742e-07
4.09685e-07
4.68164e-07
5.21584e-07
6.13389e-07
5.17735e-07
4.49769e-07
3.7648e-07
3.18615e-07
2.66048e-07
2.17694e-07
1.79152e-07
1.53375e-07
1.40959e-07
1.45299e-07
1.63398e-07
1.94322e-07
2.36309e-07
2.83923e-07
3.31023e-07
3.81878e-07
4.49615e-07
5.15225e-07
6.08767e-07
7.04642e-07
5.94302e-07
5.45519e-07
4.63118e-07
3.83029e-07
3.54427e-07
3.24834e-07
2.93065e-07
2.57334e-07
2.23257e-07
2.2911e-07
2.69308e-07
3.07904e-07
3.40369e-07
3.67349e-07
3.89341e-07
4.58096e-07
5.38162e-07
5.89325e-07
7.01287e-07
8.16293e-07
8.05271e-07
8.92386e-07
9.80796e-07
1.05019e-06
1.07542e-06
1.10213e-06
1.09302e-06
9.8526e-07
7.84743e-07
8.013e-07
1.00977e-06
1.11937e-06
1.12601e-06
1.09364e-06
1.05537e-06
9.71483e-07
8.80444e-07
8.02397e-07
8.15265e-07
9.5567e-07
1.2038e-06
1.44612e-06
1.67086e-06
1.88966e-06
2.0996e-06
2.28635e-06
2.41534e-06
2.44241e-06
2.332e-06
2.36725e-06
2.48687e-06
2.46113e-06
2.33043e-06
2.13908e-06
1.92154e-06
1.69399e-06
1.46329e-06
1.21655e-06
9.63617e-07
3.86566e-08
5.00144e-08
5.35989e-08
5.94386e-08
6.43455e-08
6.04537e-08
4.89015e-08
3.66915e-08
3.06653e-08
2.8537e-08
2.79333e-08
2.73151e-08
2.99272e-08
3.76572e-08
5.10171e-08
5.75293e-08
5.49374e-08
4.93821e-08
4.21429e-08
2.63009e-08
1.53441e-07
2.03894e-07
2.18478e-07
2.21543e-07
1.95179e-07
1.35376e-07
7.94937e-08
5.27945e-08
3.91362e-08
3.32449e-08
3.22202e-08
3.43926e-08
4.4063e-08
6.36165e-08
1.18367e-07
1.99059e-07
2.48136e-07
2.59992e-07
2.47237e-07
1.71066e-07
2.63556e-07
3.26226e-07
3.04207e-07
2.62255e-07
2.19847e-07
1.76256e-07
1.35734e-07
9.48682e-08
6.20775e-08
4.4807e-08
4.19054e-08
5.45688e-08
8.27362e-08
1.21455e-07
1.5885e-07
2.0194e-07
2.42751e-07
2.76023e-07
2.8943e-07
2.61667e-07
3.07508e-07
3.12659e-07
2.83992e-07
2.4268e-07
2.00552e-07
1.62498e-07
1.28939e-07
1.00076e-07
7.63031e-08
5.66364e-08
5.42253e-08
7.50101e-08
9.79398e-08
1.22969e-07
1.53461e-07
1.89713e-07
2.28888e-07
2.63232e-07
2.86133e-07
2.87723e-07
3.81701e-07
3.50945e-07
2.98417e-07
2.48539e-07
2.02022e-07
1.63074e-07
1.31179e-07
1.03806e-07
8.10977e-08
6.08237e-08
6.18615e-08
8.30197e-08
1.04831e-07
1.31103e-07
1.62167e-07
2.01291e-07
2.48206e-07
2.95815e-07
3.45858e-07
3.69195e-07
4.99643e-07
4.28862e-07
3.40972e-07
2.7767e-07
2.24719e-07
1.78864e-07
1.42712e-07
1.1241e-07
8.7039e-08
6.9085e-08
7.18831e-08
9.14106e-08
1.17558e-07
1.48224e-07
1.83618e-07
2.2732e-07
2.77636e-07
3.40095e-07
4.30376e-07
4.93779e-07
6.2431e-07
5.00623e-07
3.7648e-07
3.00128e-07
2.46917e-07
2.03995e-07
1.68265e-07
1.3843e-07
1.14566e-07
1.00399e-07
1.03605e-07
1.2079e-07
1.46552e-07
1.77011e-07
2.10473e-07
2.47553e-07
2.94062e-07
3.67541e-07
4.99165e-07
6.21262e-07
7.51672e-07
5.95031e-07
4.63118e-07
3.73264e-07
3.40074e-07
3.24679e-07
3.12806e-07
2.96187e-07
2.63678e-07
2.20141e-07
2.27249e-07
2.72969e-07
3.04176e-07
3.18722e-07
3.25953e-07
3.31663e-07
3.52088e-07
4.35415e-07
5.87652e-07
7.50049e-07
9.01513e-07
8.53919e-07
9.80796e-07
1.10731e-06
1.26273e-06
1.43986e-06
1.59761e-06
1.6668e-06
1.55263e-06
1.26835e-06
1.28467e-06
1.57286e-06
1.68345e-06
1.60997e-06
1.44449e-06
1.2465e-06
1.05793e-06
9.42879e-07
8.43731e-07
9.01781e-07
1.08182e-06
1.38025e-06
1.67086e-06
1.94973e-06
2.23861e-06
2.53015e-06
2.8011e-06
3.00623e-06
3.08288e-06
2.98564e-06
3.03562e-06
3.14296e-06
3.0658e-06
2.85482e-06
2.57478e-06
2.27142e-06
1.97167e-06
1.68908e-06
1.39708e-06
1.09513e-06
2.64476e-08
4.40704e-08
5.69074e-08
6.43455e-08
6.46708e-08
5.80861e-08
4.81193e-08
3.99219e-08
3.54237e-08
3.45212e-08
3.42871e-08
3.27436e-08
3.46001e-08
4.02734e-08
4.96198e-08
6.0216e-08
6.17502e-08
5.46654e-08
4.15852e-08
2.11453e-08
1.22401e-07
1.90301e-07
2.0705e-07
1.95179e-07
1.53552e-07
1.02716e-07
6.97668e-08
5.15225e-08
4.10626e-08
3.82606e-08
3.80268e-08
3.74793e-08
4.39506e-08
5.76396e-08
8.29703e-08
1.38564e-07
1.98797e-07
2.25401e-07
2.11372e-07
1.26496e-07
2.05914e-07
2.40919e-07
2.40099e-07
2.19847e-07
1.9021e-07
1.56052e-07
1.19827e-07
8.45552e-08
5.91815e-08
4.77969e-08
4.58132e-08
5.26164e-08
7.24914e-08
1.04621e-07
1.39013e-07
1.7068e-07
2.00089e-07
2.18636e-07
2.16778e-07
1.9062e-07
2.32272e-07
2.32451e-07
2.21927e-07
2.00552e-07
1.73739e-07
1.45901e-07
1.19625e-07
9.56642e-08
7.4558e-08
5.92231e-08
5.69915e-08
7.19302e-08
9.31072e-08
1.1458e-07
1.36899e-07
1.61467e-07
1.85028e-07
2.01334e-07
2.06222e-07
2.05882e-07
3.16293e-07
2.74785e-07
2.33611e-07
2.02022e-07
1.72157e-07
1.44719e-07
1.2038e-07
9.90461e-08
8.08154e-08
6.5716e-08
6.56916e-08
8.18414e-08
9.90817e-08
1.18603e-07
1.40748e-07
1.65697e-07
1.92384e-07
2.19405e-07
2.56877e-07
3.02159e-07
4.69869e-07
3.77465e-07
2.78577e-07
2.24719e-07
1.85992e-07
1.53542e-07
1.26217e-07
1.02587e-07
8.21606e-08
6.74708e-08
6.89062e-08
8.42441e-08
1.0426e-07
1.27018e-07
1.52155e-07
1.80752e-07
2.1484e-07
2.66278e-07
3.70978e-07
4.65139e-07
6.2829e-07
4.83159e-07
3.18615e-07
2.46917e-07
2.05658e-07
1.74555e-07
1.48724e-07
1.27106e-07
1.10073e-07
1.04054e-07
1.05446e-07
1.12389e-07
1.29679e-07
1.50321e-07
1.72768e-07
1.97935e-07
2.33484e-07
3.05207e-07
4.8199e-07
6.27864e-07
7.86976e-07
6.11947e-07
3.83029e-07
3.40074e-07
3.38896e-07
3.4549e-07
3.52197e-07
3.50157e-07
3.20899e-07
2.7204e-07
2.76892e-07
3.25407e-07
3.51355e-07
3.48925e-07
3.35588e-07
3.19267e-07
3.12326e-07
3.57568e-07
6.06261e-07
7.88509e-07
9.71108e-07
9.04632e-07
1.05019e-06
1.26273e-06
1.6234e-06
1.98409e-06
2.2632e-06
2.40058e-06
2.21576e-06
1.7496e-06
1.77192e-06
2.24907e-06
2.42957e-06
2.27831e-06
1.98407e-06
1.5992e-06
1.20386e-06
9.89493e-07
8.93228e-07
9.74505e-07
1.19073e-06
1.5445e-06
1.88966e-06
2.23861e-06
2.62725e-06
3.02702e-06
3.40625e-06
3.71125e-06
3.86171e-06
3.79984e-06
3.87605e-06
3.94753e-06
3.79401e-06
3.4789e-06
3.08569e-06
2.66982e-06
2.2663e-06
1.91456e-06
1.56892e-06
1.21054e-06
2.19783e-08
4.41924e-08
5.64404e-08
6.04537e-08
5.80861e-08
5.24256e-08
4.70105e-08
4.29585e-08
4.05761e-08
4.14754e-08
4.18217e-08
3.86689e-08
3.89806e-08
4.23167e-08
4.6875e-08
5.24819e-08
5.66275e-08
5.38358e-08
4.17429e-08
1.87801e-08
7.55211e-08
1.46044e-07
1.55612e-07
1.35376e-07
1.02716e-07
7.74823e-08
6.0623e-08
4.88959e-08
4.24658e-08
4.32197e-08
4.4518e-08
4.03542e-08
4.32499e-08
5.23733e-08
6.47944e-08
8.30155e-08
1.12339e-07
1.37053e-07
1.28135e-07
5.13926e-08
1.49807e-07
1.78768e-07
1.85847e-07
1.76256e-07
1.56052e-07
1.28386e-07
9.84858e-08
7.24008e-08
5.5492e-08
4.97607e-08
4.94089e-08
5.06496e-08
6.26548e-08
8.43553e-08
1.11607e-07
1.38154e-07
1.57867e-07
1.65835e-07
1.5819e-07
1.29125e-07
1.65953e-07
1.72612e-07
1.72477e-07
1.62498e-07
1.45901e-07
1.26439e-07
1.06585e-07
8.67796e-08
6.98367e-08
6.07243e-08
5.98342e-08
6.67019e-08
8.30464e-08
1.01839e-07
1.19087e-07
1.34813e-07
1.48003e-07
1.5433e-07
1.51191e-07
1.44416e-07
2.6247e-07
2.10985e-07
1.81654e-07
1.63074e-07
1.44719e-07
1.25885e-07
1.07868e-07
9.19834e-08
7.86693e-08
7.09659e-08
7.17869e-08
7.93055e-08
9.15601e-08
1.05689e-07
1.21254e-07
1.37133e-07
1.5217e-07
1.67676e-07
1.96664e-07
2.52019e-07
4.39444e-07
3.0426e-07
2.16969e-07
1.78864e-07
1.53542e-07
1.31438e-07
1.11519e-07
9.42585e-08
8.09501e-08
7.72767e-08
7.91805e-08
8.20511e-08
9.40234e-08
1.09813e-07
1.27282e-07
1.45888e-07
1.67457e-07
2.03647e-07
2.9457e-07
4.38134e-07
6.23348e-07
4.41554e-07
2.66048e-07
2.03995e-07
1.74555e-07
1.53742e-07
1.36414e-07
1.22799e-07
1.15334e-07
1.27078e-07
1.2768e-07
1.15037e-07
1.2172e-07
1.33543e-07
1.47451e-07
1.63569e-07
1.88854e-07
2.50219e-07
4.33178e-07
6.26237e-07
8.08331e-07
6.17349e-07
3.54428e-07
3.24679e-07
3.4549e-07
3.75719e-07
4.03727e-07
4.13726e-07
3.7887e-07
3.20548e-07
3.21943e-07
3.79716e-07
4.11979e-07
3.9636e-07
3.60807e-07
3.22855e-07
2.97325e-07
3.30279e-07
6.13745e-07
8.14003e-07
1.02168e-06
9.4548e-07
1.07543e-06
1.43986e-06
1.98409e-06
2.51563e-06
2.95503e-06
3.14593e-06
2.80502e-06
2.06734e-06
2.0861e-06
2.84159e-06
3.20075e-06
2.99804e-06
2.53194e-06
1.97746e-06
1.40227e-06
1.03071e-06
9.42428e-07
1.03036e-06
1.28175e-06
1.69407e-06
2.0996e-06
2.53015e-06
3.02702e-06
3.54977e-06
4.0622e-06
4.49902e-06
4.76718e-06
4.80056e-06
4.9183e-06
4.88828e-06
4.61342e-06
4.16258e-06
3.63155e-06
3.08953e-06
2.57537e-06
2.13877e-06
1.72905e-06
1.30834e-06
1.71782e-08
3.53795e-08
4.56855e-08
4.89015e-08
4.81193e-08
4.70105e-08
4.64766e-08
4.59902e-08
4.66766e-08
5.1401e-08
5.28322e-08
4.60156e-08
4.33513e-08
4.36028e-08
4.41683e-08
4.39743e-08
4.28982e-08
3.95268e-08
2.9881e-08
1.38196e-08
2.94922e-08
7.12952e-08
8.42906e-08
7.94937e-08
6.97668e-08
6.0623e-08
5.26472e-08
4.69202e-08
4.62137e-08
5.78438e-08
6.23559e-08
4.65403e-08
4.34257e-08
4.75441e-08
5.37477e-08
5.98499e-08
6.43794e-08
6.45844e-08
5.10001e-08
2.66996e-08
1.0319e-07
1.30856e-07
1.40871e-07
1.35734e-07
1.19827e-07
9.84858e-08
7.79743e-08
6.21415e-08
5.42037e-08
6.32276e-08
6.74292e-08
5.23158e-08
5.56109e-08
6.77387e-08
8.39406e-08
1.01855e-07
1.16372e-07
1.209e-07
1.10789e-07
8.03323e-08
1.13233e-07
1.25672e-07
1.31884e-07
1.28939e-07
1.19625e-07
1.06585e-07
9.13318e-08
7.6093e-08
6.63148e-08
7.75675e-08
8.37746e-08
6.504e-08
7.19549e-08
8.626e-08
1.00398e-07
1.11453e-07
1.17802e-07
1.17651e-07
1.09417e-07
9.93233e-08
2.17338e-07
1.6197e-07
1.41283e-07
1.31179e-07
1.2038e-07
1.07868e-07
9.5136e-08
8.3689e-08
7.70006e-08
9.65471e-08
1.06974e-07
7.87846e-08
8.27834e-08
9.30396e-08
1.04015e-07
1.14265e-07
1.2277e-07
1.31148e-07
1.52728e-07
2.15401e-07
4.10178e-07
2.52667e-07
1.71395e-07
1.42712e-07
1.26217e-07
1.11519e-07
9.76272e-08
8.61033e-08
8.23688e-08
1.16466e-07
1.29149e-07
8.46174e-08
8.50893e-08
9.49238e-08
1.06789e-07
1.1913e-07
1.33532e-07
1.61467e-07
2.45719e-07
4.1328e-07
6.09365e-07
3.74653e-07
2.17695e-07
1.68265e-07
1.48724e-07
1.36414e-07
1.26645e-07
1.20504e-07
1.25415e-07
1.8817e-07
1.98719e-07
1.25848e-07
1.17886e-07
1.21754e-07
1.2859e-07
1.37735e-07
1.54905e-07
2.04086e-07
3.67052e-07
6.15825e-07
8.14207e-07
6.03563e-07
3.24834e-07
3.12806e-07
3.52197e-07
4.03727e-07
4.50184e-07
4.63398e-07
4.09686e-07
3.76376e-07
3.81228e-07
4.07525e-07
4.6053e-07
4.42934e-07
3.89098e-07
3.31386e-07
2.88902e-07
3.02374e-07
6.00819e-07
8.2307e-07
1.05117e-06
9.69605e-07
1.10213e-06
1.59761e-06
2.2632e-06
2.95503e-06
3.55017e-06
3.76284e-06
3.09842e-06
2.40981e-06
2.45261e-06
3.09265e-06
3.8136e-06
3.61632e-06
2.9896e-06
2.27585e-06
1.58829e-06
1.08197e-06
9.74607e-07
1.06427e-06
1.34982e-06
1.818e-06
2.28635e-06
2.8011e-06
3.40625e-06
4.0622e-06
4.73218e-06
5.35022e-06
5.83513e-06
6.16495e-06
6.35541e-06
6.005e-06
5.50115e-06
4.86333e-06
4.17026e-06
3.49156e-06
2.86674e-06
2.34086e-06
1.86287e-06
1.38193e-06
1.40009e-08
2.43395e-08
3.18161e-08
3.66915e-08
3.99219e-08
4.29585e-08
4.59902e-08
4.96508e-08
5.48169e-08
6.45249e-08
6.75479e-08
5.59117e-08
4.85296e-08
4.45938e-08
4.17606e-08
3.86607e-08
3.47414e-08
2.95741e-08
2.20914e-08
1.19916e-08
2.58728e-08
3.86378e-08
4.91636e-08
5.27945e-08
5.15225e-08
4.88958e-08
4.69202e-08
4.83399e-08
5.87164e-08
9.9458e-08
1.09955e-07
6.27897e-08
4.72648e-08
4.43265e-08
4.54391e-08
4.68861e-08
4.69782e-08
4.36468e-08
3.4529e-08
2.30651e-08
5.72686e-08
8.62435e-08
9.74561e-08
9.48682e-08
8.45552e-08
7.24008e-08
6.21415e-08
5.68389e-08
6.79065e-08
1.97362e-07
2.17728e-07
7.16636e-08
5.38738e-08
5.63081e-08
6.3352e-08
7.12753e-08
7.75703e-08
7.79764e-08
6.67999e-08
3.41585e-08
7.40146e-08
8.79218e-08
9.79058e-08
1.00076e-07
9.56642e-08
8.67796e-08
7.6093e-08
6.82833e-08
8.54698e-08
3.3946e-07
3.85878e-07
9.30602e-08
6.58294e-08
7.14685e-08
8.09711e-08
8.87541e-08
9.19505e-08
8.8407e-08
7.70129e-08
6.3809e-08
1.79891e-07
1.2283e-07
1.07612e-07
1.03806e-07
9.90461e-08
9.19834e-08
8.3689e-08
7.81308e-08
1.09087e-07
5.52425e-07
6.48318e-07
1.23571e-07
7.76895e-08
8.13939e-08
8.87699e-08
9.4646e-08
9.78992e-08
1.00607e-07
1.17733e-07
1.8863e-07
3.82497e-07
2.13308e-07
1.3548e-07
1.1241e-07
1.02587e-07
9.42585e-08
8.61033e-08
8.27049e-08
1.31335e-07
7.72209e-07
9.03883e-07
1.49614e-07
8.25135e-08
8.32544e-08
8.97098e-08
9.6275e-08
1.04699e-07
1.27664e-07
2.0926e-07
3.89825e-07
5.87894e-07
3.19491e-07
1.79152e-07
1.3843e-07
1.27106e-07
1.22799e-07
1.20504e-07
1.24838e-07
1.99232e-07
9.96342e-07
1.13387e-06
2.17879e-07
1.23064e-07
1.15163e-07
1.14893e-07
1.16884e-07
1.26889e-07
1.68273e-07
3.13531e-07
5.97576e-07
8.02027e-07
5.69187e-07
2.93065e-07
2.96187e-07
3.50157e-07
4.13726e-07
4.63398e-07
4.58857e-07
4.39016e-07
1.05675e-06
1.16625e-06
4.48431e-07
4.51715e-07
4.55028e-07
4.00954e-07
3.32235e-07
2.75692e-07
2.73897e-07
5.70234e-07
8.1333e-07
1.05331e-06
9.61214e-07
1.09302e-06
1.6668e-06
2.40058e-06
3.14593e-06
3.76284e-06
3.68872e-06
3.04258e-06
4.0805e-06
4.22561e-06
3.10026e-06
3.65098e-06
3.79453e-06
3.1976e-06
2.4313e-06
1.67249e-06
1.08269e-06
9.70144e-07
1.06897e-06
1.38559e-06
1.89543e-06
2.41534e-06
3.00623e-06
3.71125e-06
4.49902e-06
5.35022e-06
6.23302e-06
7.18664e-06
8.3399e-06
8.65937e-06
7.43906e-06
6.42609e-06
5.5088e-06
4.62973e-06
3.81533e-06
3.08685e-06
2.48083e-06
1.94686e-06
1.42093e-06
1.24186e-08
2.0219e-08
2.58562e-08
3.06653e-08
3.54237e-08
4.05761e-08
4.66766e-08
5.48169e-08
6.42763e-08
7.64138e-08
7.86916e-08
6.69272e-08
5.56754e-08
4.70328e-08
4.09545e-08
3.58041e-08
3.0713e-08
2.5085e-08
1.90578e-08
1.11834e-08
2.37441e-08
2.77808e-08
3.47999e-08
3.91362e-08
4.10626e-08
4.24657e-08
4.62137e-08
5.87164e-08
1.04676e-07
6.77681e-07
7.1439e-07
1.12084e-07
6.04713e-08
4.59475e-08
4.14098e-08
3.93021e-08
3.68925e-08
3.163e-08
2.44009e-08
2.15782e-08
3.02808e-08
4.9841e-08
6.08988e-08
6.20775e-08
5.91815e-08
5.54919e-08
5.42037e-08
6.79065e-08
2.53374e-07
2.87152e-06
2.89607e-06
2.67734e-07
6.97869e-08
5.21561e-08
5.14545e-08
5.30454e-08
5.3457e-08
4.93483e-08
3.66928e-08
2.75198e-08
4.92196e-08
6.12678e-08
7.23264e-08
7.63031e-08
7.4558e-08
6.98367e-08
6.63148e-08
8.54698e-08
4.74881e-07
5.40815e-06
5.48145e-06
5.18791e-07
8.9935e-08
6.37757e-08
6.54377e-08
6.8812e-08
6.96471e-08
6.51072e-08
5.24124e-08
3.78915e-08
1.57495e-07
9.86548e-08
8.2192e-08
8.10977e-08
8.08154e-08
7.86693e-08
7.70006e-08
1.09087e-07
8.22689e-07
8.46418e-06
8.61697e-06
9.24597e-07
1.18067e-07
7.54859e-08
7.57979e-08
7.68998e-08
7.53024e-08
7.51801e-08
9.48341e-08
1.72145e-07
3.58286e-07
1.8929e-07
1.10305e-07
8.7039e-08
8.21606e-08
8.09501e-08
8.23688e-08
1.31335e-07
1.14762e-06
1.11927e-05
1.14633e-05
1.30978e-06
1.43519e-07
8.06952e-08
7.73014e-08
7.6607e-08
7.957e-08
1.03296e-07
1.8833e-07
3.68679e-07
5.59922e-07
2.85982e-07
1.53375e-07
1.14566e-07
1.10073e-07
1.15334e-07
1.25415e-07
1.99232e-07
1.46456e-06
1.25924e-05
1.2966e-05
1.65739e-06
2.11494e-07
1.20828e-07
1.08032e-07
1.00854e-07
1.04505e-07
1.45045e-07
2.83037e-07
5.72017e-07
7.70168e-07
5.15684e-07
2.57334e-07
2.63678e-07
3.20899e-07
3.7887e-07
4.09686e-07
4.39016e-07
1.4782e-06
1.14089e-05
1.18956e-05
1.65978e-06
4.42028e-07
3.98124e-07
3.64956e-07
3.04219e-07
2.45938e-07
2.42955e-07
5.19428e-07
7.83248e-07
1.01995e-06
8.99439e-07
9.8526e-07
1.55263e-06
2.21576e-06
2.80502e-06
3.09842e-06
3.04258e-06
4.33896e-06
9.74999e-06
1.00429e-05
4.58171e-06
3.09154e-06
3.08515e-06
2.82683e-06
2.24031e-06
1.5609e-06
9.78996e-07
9.09586e-07
1.03679e-06
1.37615e-06
1.90017e-06
2.44241e-06
3.08288e-06
3.86171e-06
4.76718e-06
5.83513e-06
7.18664e-06
9.11033e-06
1.17094e-05
1.2194e-05
9.48762e-06
7.44863e-06
6.023e-06
4.9114e-06
3.97387e-06
3.16898e-06
2.51071e-06
1.95323e-06
1.41196e-06
1.1777e-08
1.84112e-08
2.33293e-08
2.8537e-08
3.45212e-08
4.14754e-08
5.14009e-08
6.45249e-08
7.64138e-08
8.66331e-08
8.82286e-08
7.86437e-08
6.75148e-08
5.36885e-08
4.34495e-08
3.61795e-08
2.9729e-08
2.36835e-08
1.81481e-08
1.09321e-08
2.45303e-08
2.28937e-08
2.79415e-08
3.32449e-08
3.82606e-08
4.32197e-08
5.78438e-08
9.9458e-08
6.7768e-07
9.56274e-07
9.83166e-07
6.76546e-07
1.0413e-07
6.04328e-08
4.44673e-08
3.8371e-08
3.25803e-08
2.63025e-08
2.11352e-08
2.21942e-08
3.32509e-08
3.05511e-08
3.88029e-08
4.4807e-08
4.77969e-08
4.97607e-08
6.32276e-08
1.97362e-07
2.87152e-06
2.19237e-06
2.26975e-06
2.773e-06
2.04815e-07
6.57426e-08
4.96136e-08
4.60902e-08
4.1341e-08
3.47161e-08
2.7849e-08
3.00996e-08
4.6289e-08
4.62363e-08
5.16533e-08
5.66364e-08
5.92231e-08
6.07243e-08
7.75675e-08
3.3946e-07
5.40815e-06
3.80314e-06
3.96768e-06
5.26366e-06
3.58789e-07
8.06439e-08
5.98396e-08
5.68531e-08
5.20697e-08
4.66275e-08
4.21648e-08
3.76483e-08
1.50549e-07
9.44683e-08
6.77507e-08
6.08237e-08
6.5716e-08
7.09659e-08
9.65471e-08
5.52425e-07
8.46418e-06
5.81907e-06
6.09345e-06
8.32154e-06
5.98826e-07
1.01775e-07
7.08736e-08
6.40348e-08
5.58564e-08
5.93268e-08
9.18463e-08
1.6606e-07
3.403e-07
1.79873e-07
9.94924e-08
6.9085e-08
6.74708e-08
7.72767e-08
1.16466e-07
7.72209e-07
1.11927e-05
8.11196e-06
8.48988e-06
1.11158e-05
8.47188e-07
1.23074e-07
7.65528e-08
6.37737e-08
6.19993e-08
9.49029e-08
1.80937e-07
3.52766e-07
5.28764e-07
2.67576e-07
1.40959e-07
1.00399e-07
1.04054e-07
1.27078e-07
1.8817e-07
9.96342e-07
1.25924e-05
1.03009e-05
1.07417e-05
1.2615e-05
1.07601e-06
1.89721e-07
1.20953e-07
9.59596e-08
9.16259e-08
1.35339e-07
2.67648e-07
5.43309e-07
7.21856e-07
4.54646e-07
2.23257e-07
2.20141e-07
2.7204e-07
3.20548e-07
3.76376e-07
1.05675e-06
1.14089e-05
1.16307e-05
1.20513e-05
1.16937e-05
1.13589e-06
3.70365e-07
3.06238e-07
2.56522e-07
2.05516e-07
2.12916e-07
4.60676e-07
7.3786e-07
9.49139e-07
7.77487e-07
7.84743e-07
1.26835e-06
1.7496e-06
2.06734e-06
2.40981e-06
4.0805e-06
9.74999e-06
1.18721e-05
1.22571e-05
9.96983e-06
4.24324e-06
2.47471e-06
2.06848e-06
1.74787e-06
1.26907e-06
7.82207e-07
7.8925e-07
9.69046e-07
1.30683e-06
1.81233e-06
2.332e-06
2.98564e-06
3.79984e-06
4.80056e-06
6.16495e-06
8.3399e-06
1.17094e-05
1.3526e-05
1.40739e-05
1.21787e-05
8.67371e-06
6.38322e-06
4.94605e-06
3.90484e-06
3.06529e-06
2.39603e-06
1.86392e-06
1.34309e-06
1.12679e-08
1.7561e-08
2.24351e-08
2.79333e-08
3.42871e-08
4.18217e-08
5.28322e-08
6.75479e-08
7.86916e-08
8.82286e-08
8.13566e-08
7.24354e-08
6.3965e-08
5.15349e-08
4.16951e-08
3.46786e-08
2.84682e-08
2.28801e-08
1.76806e-08
1.07097e-08
2.44068e-08
2.2194e-08
2.68753e-08
3.22202e-08
3.80268e-08
4.4518e-08
6.23559e-08
1.09955e-07
7.1439e-07
9.83166e-07
9.5234e-07
6.70368e-07
1.05025e-07
6.18434e-08
4.45062e-08
3.76968e-08
3.16826e-08
2.59147e-08
2.10549e-08
2.22716e-08
3.3365e-08
3.00932e-08
3.66387e-08
4.19054e-08
4.58132e-08
4.94089e-08
6.74292e-08
2.17728e-07
2.89607e-06
2.26975e-06
2.19934e-06
2.71199e-06
2.04909e-07
6.68773e-08
4.87491e-08
4.42501e-08
3.95873e-08
3.4139e-08
2.82487e-08
3.11602e-08
4.72786e-08
4.79006e-08
5.14296e-08
5.42253e-08
5.69915e-08
5.98341e-08
8.37746e-08
3.85878e-07
5.48145e-06
3.96768e-06
3.84473e-06
5.19373e-06
3.69522e-07
8.37605e-08
5.90102e-08
5.53785e-08
5.13661e-08
4.76799e-08
4.45702e-08
4.25522e-08
1.65117e-07
1.00336e-07
7.11977e-08
6.18615e-08
6.56916e-08
7.17869e-08
1.06974e-07
6.48318e-07
8.61697e-06
6.09345e-06
5.90697e-06
8.27291e-06
6.46104e-07
1.08976e-07
7.16073e-08
6.44112e-08
5.7607e-08
6.45159e-08
9.93394e-08
1.81385e-07
3.56501e-07
1.88072e-07
1.03152e-07
7.18831e-08
6.89062e-08
7.91805e-08
1.29149e-07
9.03883e-07
1.14633e-05
8.48988e-06
8.23718e-06
1.114e-05
9.11866e-07
1.325e-07
7.78814e-08
6.51687e-08
6.53979e-08
9.89846e-08
1.89971e-07
3.70516e-07
5.44865e-07
2.76951e-07
1.45299e-07
1.03605e-07
1.05446e-07
1.2768e-07
1.98719e-07
1.13387e-06
1.2966e-05
1.07417e-05
1.0429e-05
1.27263e-05
1.15756e-06
2.00998e-07
1.22948e-07
9.81029e-08
9.49839e-08
1.39466e-07
2.76291e-07
5.62825e-07
7.38318e-07
4.72016e-07
2.2911e-07
2.27249e-07
2.76892e-07
3.21943e-07
3.81228e-07
1.16625e-06
1.18956e-05
1.20513e-05
1.16744e-05
1.19007e-05
1.2196e-06
3.8469e-07
3.15254e-07
2.67773e-07
2.16601e-07
2.18947e-07
4.81289e-07
7.60667e-07
9.67341e-07
7.90402e-07
8.013e-07
1.28467e-06
1.77192e-06
2.0861e-06
2.45261e-06
4.22561e-06
1.00429e-05
1.22571e-05
1.18935e-05
1.00243e-05
4.28963e-06
2.47994e-06
2.05364e-06
1.75273e-06
1.29299e-06
8.13751e-07
8.09268e-07
9.97454e-07
1.32709e-06
1.83876e-06
2.36725e-06
3.03562e-06
3.87605e-06
4.9183e-06
6.35541e-06
8.65937e-06
1.2194e-05
1.40739e-05
1.37815e-05
1.21651e-05
8.71464e-06
6.41727e-06
4.96971e-06
3.92911e-06
3.09448e-06
2.42928e-06
1.89818e-06
1.37539e-06
1.08724e-08
1.7038e-08
2.20994e-08
2.73151e-08
3.27436e-08
3.86689e-08
4.60156e-08
5.59117e-08
6.69272e-08
7.86437e-08
7.24354e-08
5.82322e-08
4.88269e-08
4.14605e-08
3.61132e-08
3.15721e-08
2.71742e-08
2.24691e-08
1.73895e-08
1.05994e-08
2.24849e-08
2.3902e-08
2.9854e-08
3.43926e-08
3.74793e-08
4.03542e-08
4.65403e-08
6.27897e-08
1.12084e-07
6.76546e-07
6.70368e-07
1.02514e-07
5.85081e-08
4.39142e-08
3.85254e-08
3.5955e-08
3.34916e-08
2.89271e-08
2.30816e-08
2.13626e-08
3.02542e-08
4.35029e-08
5.29983e-08
5.45688e-08
5.26164e-08
5.06496e-08
5.23158e-08
7.16636e-08
2.67734e-07
2.773e-06
2.71199e-06
2.47094e-07
6.6655e-08
4.87554e-08
4.69913e-08
4.85577e-08
4.98363e-08
4.71839e-08
3.77445e-08
2.88956e-08
5.38865e-08
6.17347e-08
7.19547e-08
7.50101e-08
7.19302e-08
6.67019e-08
6.504e-08
9.30602e-08
5.18791e-07
5.26366e-06
5.19373e-06
5.10811e-07
8.89985e-08
6.10309e-08
6.27486e-08
6.79365e-08
7.05648e-08
6.72744e-08
5.62917e-08
4.78075e-08
1.81254e-07
1.09489e-07
8.67098e-08
8.30197e-08
8.18414e-08
7.93055e-08
7.87846e-08
1.23571e-07
9.24597e-07
8.32153e-06
8.27291e-06
9.26425e-07
1.22229e-07
7.54624e-08
7.54456e-08
7.71727e-08
7.74095e-08
8.20379e-08
1.10394e-07
1.98893e-07
3.82306e-07
2.03788e-07
1.1801e-07
9.14106e-08
8.42441e-08
8.20511e-08
8.46174e-08
1.49614e-07
1.30978e-06
1.11158e-05
1.114e-05
1.34325e-06
1.5231e-07
8.13238e-08
7.72084e-08
7.80336e-08
8.41578e-08
1.12561e-07
2.05602e-07
3.9837e-07
5.83415e-07
3.04141e-07
1.63398e-07
1.2079e-07
1.12389e-07
1.15037e-07
1.25848e-07
2.17879e-07
1.65739e-06
1.2615e-05
1.27263e-05
1.71592e-06
2.22163e-07
1.21993e-07
1.09199e-07
1.04283e-07
1.10806e-07
1.55156e-07
3.03102e-07
6.04656e-07
7.93256e-07
5.44259e-07
2.69308e-07
2.72969e-07
3.25407e-07
3.79716e-07
4.07525e-07
4.48431e-07
1.65978e-06
1.16937e-05
1.19007e-05
1.75253e-06
4.53717e-07
4.0086e-07
3.75217e-07
3.21523e-07
2.65265e-07
2.57001e-07
5.58002e-07
8.20787e-07
1.0433e-06
9.16177e-07
1.00977e-06
1.57286e-06
2.24907e-06
2.84159e-06
3.09265e-06
3.10026e-06
4.58171e-06
9.96983e-06
1.00243e-05
4.66441e-06
3.09096e-06
2.99066e-06
2.78586e-06
2.25468e-06
1.60493e-06
1.03637e-06
9.43268e-07
1.08048e-06
1.40097e-06
1.93386e-06
2.48687e-06
3.14296e-06
3.94753e-06
4.88828e-06
6.005e-06
7.43906e-06
9.48762e-06
1.21787e-05
1.21651e-05
9.52424e-06
7.47938e-06
6.03553e-06
4.92638e-06
4.00079e-06
3.2071e-06
2.55449e-06
1.99824e-06
1.454e-06
1.13301e-08
1.89233e-08
2.47113e-08
2.99272e-08
3.46e-08
3.89806e-08
4.33513e-08
4.85296e-08
5.56754e-08
6.75148e-08
6.3965e-08
4.88269e-08
4.1597e-08
3.79081e-08
3.5203e-08
3.22763e-08
2.87903e-08
2.44583e-08
1.85812e-08
1.07652e-08
2.3013e-08
3.1434e-08
4.048e-08
4.4063e-08
4.39506e-08
4.32499e-08
4.34257e-08
4.72648e-08
6.04713e-08
1.0413e-07
1.05025e-07
5.85081e-08
4.3132e-08
3.92748e-08
3.93886e-08
4.02218e-08
4.04915e-08
3.76759e-08
2.98422e-08
2.13827e-08
4.82229e-08
7.64243e-08
8.71834e-08
8.27362e-08
7.24914e-08
6.26548e-08
5.56109e-08
5.38738e-08
6.97869e-08
2.04815e-07
2.04909e-07
6.6655e-08
4.85065e-08
4.95914e-08
5.62466e-08
6.54302e-08
7.40614e-08
7.69265e-08
6.65971e-08
3.57462e-08
7.69012e-08
8.59239e-08
9.52997e-08
9.79398e-08
9.31072e-08
8.30464e-08
7.19549e-08
6.58294e-08
8.9935e-08
3.58789e-07