/*--------------------------------*- C++ -*----------------------------------*\
  =========                 |
  \\      /  F ield         | OpenFOAM: The Open Source CFD Toolbox
   \\    /   O peration     | Website:  https://openfoam.org
    \\  /    A nd           | Version:  9
     \\/     M anipulation  |
\*---------------------------------------------------------------------------*/
FoamFile
{
    format      ascii;
    class       volScalarField;
    location    "1350";
    object      k;
}
// * * * * * * * * * * * * * * * * * * * * * * * * * * * * * * * * * * * * * //

dimensions      [0 2 -2 0 0 0 0];

internalField   nonuniform List<scalar> 
4000
(
3.13542e-05
2.47377e-05
1.38372e-05
8.28263e-06
6.47413e-06
5.72868e-06
4.85139e-06
4.23293e-06
3.9077e-06
3.77241e-06
3.66427e-06
3.57725e-06
3.67807e-06
4.05037e-06
4.74816e-06
5.58982e-06
7.12797e-06
1.1215e-05
1.95568e-05
2.5637e-05
3.86681e-05
3.257e-05
2.4887e-05
2.08134e-05
1.79128e-05
1.29399e-05
6.95551e-06
6.37913e-06
6.02557e-06
6.1562e-06
6.13617e-06
5.81042e-06
5.90498e-06
6.20292e-06
1.30287e-05
1.86552e-05
2.20098e-05
2.55887e-05
3.0316e-05
3.70926e-05
4.30745e-05
3.98964e-05
3.47718e-05
2.99743e-05
2.54214e-05
2.0567e-05
1.60411e-05
1.08285e-05
7.08258e-06
7.54066e-06
7.55879e-06
7.08286e-06
9.67339e-06
1.48351e-05
1.98773e-05
2.55871e-05
3.112e-05
3.59815e-05
3.98601e-05
4.24792e-05
4.5395e-05
4.32634e-05
3.85655e-05
3.32133e-05
2.75541e-05
2.20231e-05
1.7063e-05
1.28312e-05
9.74682e-06
9.36142e-06
9.49435e-06
1.03696e-05
1.31739e-05
1.71802e-05
2.19114e-05
2.74916e-05
3.35693e-05
3.91465e-05
4.33537e-05
4.5017e-05
4.68193e-05
4.60394e-05
4.27546e-05
3.8349e-05
3.38297e-05
2.98643e-05
2.63176e-05
2.31791e-05
2.11887e-05
2.05522e-05
2.18723e-05
2.3306e-05
2.55659e-05
2.83677e-05
3.13698e-05
3.50725e-05
3.93221e-05
4.33304e-05
4.61921e-05
4.65209e-05
4.78674e-05
4.86015e-05
4.75802e-05
4.59018e-05
4.40677e-05
4.21483e-05
4.02563e-05
3.84227e-05
3.67794e-05
3.55329e-05
3.66489e-05
3.84038e-05
4.0238e-05
4.2052e-05
4.3783e-05
4.54869e-05
4.70253e-05
4.83109e-05
4.88305e-05
4.76343e-05
4.88949e-05
5.13347e-05
5.26265e-05
5.32659e-05
5.35054e-05
5.32347e-05
5.24425e-05
5.12076e-05
4.95703e-05
4.77081e-05
4.86587e-05
5.09293e-05
5.28009e-05
5.41022e-05
5.48205e-05
5.49144e-05
5.44074e-05
5.34074e-05
5.16556e-05
4.87372e-05
5.01202e-05
5.43301e-05
5.7739e-05
6.02996e-05
6.219e-05
6.33251e-05
6.36423e-05
6.30129e-05
6.13351e-05
5.87364e-05
5.96068e-05
6.25278e-05
6.44478e-05
6.5176e-05
6.48441e-05
6.35667e-05
6.14393e-05
5.8556e-05
5.47311e-05
5.00462e-05
5.18519e-05
5.82182e-05
6.3706e-05
6.80883e-05
7.15686e-05
7.40498e-05
7.54817e-05
7.55941e-05
7.39939e-05
7.05227e-05
7.13959e-05
7.5086e-05
7.69085e-05
7.69306e-05
7.55272e-05
7.29453e-05
6.92318e-05
6.45413e-05
5.86787e-05
5.18766e-05
5.45258e-05
6.31402e-05
7.07928e-05
7.69188e-05
8.20215e-05
8.61697e-05
8.92098e-05
9.07903e-05
9.03841e-05
8.7322e-05
8.81944e-05
9.14396e-05
9.20131e-05
9.05431e-05
8.7536e-05
8.33298e-05
7.80737e-05
7.17186e-05
6.37453e-05
5.46798e-05
2.47377e-05
1.97823e-05
1.27431e-05
9.87797e-06
9.13799e-06
9.14541e-06
7.85279e-06
6.11476e-06
5.40115e-06
5.07509e-06
4.92235e-06
4.8282e-06
5.18034e-06
6.51839e-06
7.54922e-06
7.98998e-06
8.79953e-06
1.06179e-05
1.39358e-05
1.59946e-05
3.257e-05
3.67838e-05
3.04942e-05
2.80911e-05
2.81452e-05
2.44692e-05
1.61017e-05
1.14646e-05
9.94948e-06
9.60038e-06
9.61723e-06
9.34734e-06
1.0183e-05
1.45212e-05
2.37386e-05
2.89481e-05
3.09211e-05
3.41027e-05
3.80094e-05
3.06448e-05
3.98964e-05
5.78125e-05
5.02814e-05
4.05311e-05
3.32924e-05
2.7624e-05
2.2786e-05
1.77589e-05
1.34735e-05
1.1319e-05
1.13518e-05
1.26594e-05
1.65847e-05
2.12541e-05
2.62309e-05
3.20553e-05
3.86934e-05
4.59844e-05
4.93898e-05
3.95351e-05
4.32634e-05
5.12353e-05
4.79884e-05
4.07994e-05
3.30925e-05
2.7017e-05
2.19139e-05
1.74454e-05
1.42934e-05
1.34648e-05
1.36817e-05
1.42793e-05
1.7154e-05
2.13898e-05
2.64639e-05
3.26189e-05
4.03162e-05
4.61778e-05
4.82214e-05
4.28941e-05
4.60394e-05
5.19522e-05
5.03792e-05
4.4662e-05
3.69265e-05
3.02492e-05
2.49707e-05
2.04962e-05
1.75794e-05
1.72311e-05
1.78639e-05
1.87211e-05
2.18196e-05
2.63177e-05
3.16092e-05
3.86233e-05
4.63255e-05
5.08293e-05
5.11164e-05
4.56982e-05
4.86015e-05
5.4756e-05
5.51412e-05
5.21491e-05
4.66613e-05
3.86372e-05
3.3137e-05
2.88985e-05
2.62805e-05
2.5372e-05
2.61738e-05
2.76909e-05
3.0792e-05
3.54481e-05
4.12057e-05
4.92257e-05
5.39883e-05
5.58771e-05
5.44671e-05
4.83016e-05
5.13347e-05
5.78236e-05
5.93698e-05
5.91999e-05
5.78457e-05
5.33965e-05
4.62133e-05
4.02538e-05
3.66316e-05
3.47661e-05
3.57536e-05
3.85749e-05
4.32059e-05
4.99705e-05
5.69756e-05
6.03963e-05
6.08035e-05
6.00065e-05
5.76572e-05
5.10988e-05
5.43301e-05
6.17114e-05
6.42646e-05
6.66327e-05
6.98455e-05
7.10435e-05
6.98341e-05
6.66303e-05
6.18171e-05
5.68833e-05
5.8442e-05
6.44532e-05
6.94676e-05
7.24033e-05
7.33947e-05
7.18253e-05
6.78664e-05
6.47426e-05
6.16194e-05
5.41789e-05
5.82182e-05
6.81142e-05
7.44151e-05
7.95062e-05
8.39374e-05
8.67705e-05
8.80902e-05
8.6984e-05
8.21742e-05
7.36617e-05
7.47117e-05
8.36109e-05
8.8724e-05
9.00408e-05
8.87452e-05
8.55193e-05
8.03705e-05
7.47084e-05
6.81971e-05
5.82102e-05
6.31402e-05
7.32954e-05
8.26061e-05
9.05203e-05
9.75918e-05
0.000103817
0.000108838
0.000111918
0.000112111
0.000108625
0.000109651
0.000113402
0.000113335
0.000110315
0.000105269
9.89109e-05
9.1612e-05
8.34518e-05
7.38676e-05
6.33906e-05
1.38372e-05
1.27431e-05
1.09646e-05
1.03892e-05
1.08632e-05
1.07738e-05
9.32282e-06
7.31011e-06
6.35947e-06
5.93856e-06
5.79381e-06
5.74557e-06
6.19594e-06
7.78949e-06
9.2842e-06
9.54266e-06
9.62639e-06
9.88138e-06
1.02339e-05
9.0422e-06
2.4887e-05
3.04942e-05
3.02291e-05
3.14733e-05
3.20237e-05
2.75468e-05
1.92109e-05
1.42344e-05
1.21906e-05
1.15838e-05
1.15894e-05
1.14726e-05
1.27335e-05
1.68178e-05
2.64162e-05
3.32677e-05
3.48719e-05
3.51422e-05
3.50127e-05
2.65687e-05
3.47718e-05
5.02814e-05
4.72493e-05
4.09407e-05
3.56321e-05
3.06647e-05
2.60563e-05
2.10846e-05
1.66283e-05
1.39481e-05
1.38049e-05
1.55939e-05
1.99072e-05
2.45534e-05
2.8962e-05
3.41361e-05
3.90437e-05
4.40695e-05
4.52371e-05
3.51824e-05
3.85655e-05
4.79884e-05
4.66662e-05
4.10733e-05
3.48151e-05
2.94883e-05
2.48377e-05
2.07045e-05
1.77677e-05
1.57973e-05
1.59306e-05
1.78522e-05
2.04105e-05
2.41218e-05
2.86295e-05
3.39868e-05
4.00907e-05
4.48948e-05
4.53577e-05
3.81196e-05
4.27546e-05
5.03792e-05
4.89725e-05
4.36281e-05
3.65098e-05
3.0376e-05
2.5426e-05
2.11179e-05
1.7785e-05
1.61452e-05
1.66126e-05
1.8322e-05
2.15804e-05
2.58648e-05
3.09086e-05
3.73736e-05
4.47226e-05
4.93045e-05
4.99126e-05
4.22821e-05
4.75802e-05
5.51412e-05
5.39113e-05
4.89762e-05
4.18456e-05
3.41571e-05
2.83348e-05
2.36502e-05
2.02673e-05
1.89331e-05
1.93766e-05
2.11788e-05
2.48728e-05
2.98188e-05
3.57741e-05
4.33617e-05
4.99984e-05
5.41408e-05
5.48154e-05
4.72804e-05
5.26265e-05
5.93698e-05
5.86865e-05
5.38903e-05
4.77608e-05
4.09745e-05
3.46335e-05
2.954e-05
2.60571e-05
2.44925e-05
2.50553e-05
2.73516e-05
3.14516e-05
3.69449e-05
4.31829e-05
4.9217e-05
5.43226e-05
5.8242e-05
5.86376e-05
5.24173e-05
5.7739e-05
6.42646e-05
6.61966e-05
6.30941e-05
5.73773e-05
5.36993e-05
4.97335e-05
4.55722e-05
4.10754e-05
3.70921e-05
3.78518e-05
4.26282e-05
4.74505e-05
5.1716e-05
5.54114e-05
5.82018e-05
6.25509e-05
6.50423e-05
6.32172e-05
5.76116e-05
6.3706e-05
7.44151e-05
8.7264e-05
9.93002e-05
0.000107569
0.000110848
0.000112588
0.000110681
0.000101568
8.59571e-05
8.72321e-05
0.000103459
0.000112637
0.000114575
0.000112588
0.000108098
9.84576e-05
8.5834e-05
7.35801e-05
6.37106e-05
7.07928e-05
8.26061e-05
9.33782e-05
0.000102844
0.000111662
0.00011981
0.000126831
0.000131567
0.000132553
0.000128517
0.000129787
0.000134129
0.000133204
0.000128445
0.000121309
0.00011293
0.00010382
9.41567e-05
8.32378e-05
7.12405e-05
8.28263e-06
9.87797e-06
1.03892e-05
1.11915e-05
1.17882e-05
1.12802e-05
9.76166e-06
8.04503e-06
7.12686e-06
6.79169e-06
6.70574e-06
6.62069e-06
7.0462e-06
8.21212e-06
1.00672e-05
1.09227e-05
1.05877e-05
9.83597e-06
8.83966e-06
6.44414e-06
2.08134e-05
2.80911e-05
3.14733e-05
3.36583e-05
3.24534e-05
2.6399e-05
1.93599e-05
1.54786e-05
1.36453e-05
1.33677e-05
1.34662e-05
1.30972e-05
1.41034e-05
1.68959e-05
2.40849e-05
3.28831e-05
3.65534e-05
3.58491e-05
3.25256e-05
2.24776e-05
2.99743e-05
4.05311e-05
4.09407e-05
3.83835e-05
3.51431e-05
3.11241e-05
2.68398e-05
2.1931e-05
1.77541e-05
1.59549e-05
1.58335e-05
1.69907e-05
2.05098e-05
2.52351e-05
2.92481e-05
3.34352e-05
3.67391e-05
3.8665e-05
3.75682e-05
2.98531e-05
3.32133e-05
4.07994e-05
4.10733e-05
3.8012e-05
3.39362e-05
2.98371e-05
2.5927e-05
2.23762e-05
1.96439e-05
1.77243e-05
1.76314e-05
1.98124e-05
2.22681e-05
2.52399e-05
2.87618e-05
3.26773e-05
3.64563e-05
3.88428e-05
3.82013e-05
3.18101e-05
3.8349e-05
4.4662e-05
4.36281e-05
3.98503e-05
3.48766e-05
3.01594e-05
2.60554e-05
2.24023e-05
1.94509e-05
1.74306e-05
1.77584e-05
1.97941e-05
2.2528e-05
2.59999e-05
2.99654e-05
3.4631e-05
3.9544e-05
4.29894e-05
4.38529e-05
3.75689e-05
4.59018e-05
5.21491e-05
4.89762e-05
4.42806e-05
3.84162e-05
3.24406e-05
2.74299e-05
2.31149e-05
1.94817e-05
1.71628e-05
1.75673e-05
2.00615e-05
2.37495e-05
2.80825e-05
3.29334e-05
3.84845e-05
4.38035e-05
4.82284e-05
5.17292e-05
4.56032e-05
5.32659e-05
5.91999e-05
5.38903e-05
4.84837e-05
4.27506e-05
3.69029e-05
3.16993e-05
2.73047e-05
2.38122e-05
2.1978e-05
2.24021e-05
2.46458e-05
2.8376e-05
3.28292e-05
3.76506e-05
4.25426e-05
4.72009e-05
5.21829e-05
5.83661e-05
5.31504e-05
6.02996e-05
6.66327e-05
6.30941e-05
5.85462e-05
5.5549e-05
5.27084e-05
5.00146e-05
4.7041e-05
4.27657e-05
3.78469e-05
3.86585e-05
4.38518e-05
4.79874e-05
5.07252e-05
5.27942e-05
5.42804e-05
5.56601e-05
5.9733e-05
6.51862e-05
6.02713e-05
6.80883e-05
7.95062e-05
9.93002e-05
0.000117636
0.000127998
0.000137697
0.000145645
0.000148102
0.000139167
0.000119498
0.000120452
0.000140262
0.000148817
0.000145952
0.000137304
0.000125883
0.000113055
9.56211e-05
7.78676e-05
6.81631e-05
7.69188e-05
9.05203e-05
0.000102844
0.000114015
0.00012504
0.000135697
0.000145237
0.000152255
0.000154835
0.000151552
0.000153223
0.000156817
0.000154244
0.000147085
0.000137297
0.000126281
0.000114905
0.000103637
9.1308e-05
7.76069e-05
6.47413e-06
9.13799e-06
1.08632e-05
1.17882e-05
1.18169e-05
1.09798e-05
9.663e-06
8.52058e-06
7.85419e-06
7.71511e-06
7.69016e-06
7.47321e-06
7.76219e-06
8.59282e-06
9.87412e-06
1.12508e-05
1.14496e-05
1.05527e-05
8.78329e-06
5.58251e-06
1.79128e-05
2.81452e-05
3.20237e-05
3.24534e-05
2.88234e-05
2.29052e-05
1.84101e-05
1.57204e-05
1.44865e-05
1.49919e-05
1.5369e-05
1.43361e-05
1.46701e-05
1.65683e-05
2.01082e-05
2.70045e-05
3.29922e-05
3.41076e-05
3.0375e-05
1.83685e-05
2.54214e-05
3.32924e-05
3.56321e-05
3.51431e-05
3.30311e-05
2.9805e-05
2.57349e-05
2.12161e-05
1.79417e-05
1.72897e-05
1.74724e-05
1.74379e-05
1.97698e-05
2.39804e-05
2.79465e-05
3.10179e-05
3.32928e-05
3.37531e-05
3.12104e-05
2.41663e-05
2.75541e-05
3.30925e-05
3.48151e-05
3.39362e-05
3.16473e-05
2.87425e-05
2.5681e-05
2.27139e-05
2.0247e-05
1.91018e-05
1.92577e-05
2.03449e-05
2.26598e-05
2.51774e-05
2.76692e-05
3.01646e-05
3.21126e-05
3.25268e-05
3.04415e-05
2.54531e-05
3.38297e-05
3.69265e-05
3.65098e-05
3.48766e-05
3.20927e-05
2.89166e-05
2.57984e-05
2.29495e-05
2.0741e-05
1.97156e-05
2.00926e-05
2.11649e-05
2.30374e-05
2.5545e-05
2.82931e-05
3.10741e-05
3.34326e-05
3.46133e-05
3.49283e-05
3.28843e-05
4.40677e-05
4.66613e-05
4.18456e-05
3.84162e-05
3.467e-05
3.06245e-05
2.68055e-05
2.3359e-05
2.05138e-05
1.91617e-05
1.94613e-05
2.08366e-05
2.35476e-05
2.68013e-05
3.02068e-05
3.3576e-05
3.65807e-05
3.96916e-05
4.53244e-05
4.3837e-05
5.35054e-05
5.78457e-05
4.77608e-05
4.27506e-05
3.87826e-05
3.47324e-05
3.08814e-05
2.75414e-05
2.50792e-05
2.48362e-05
2.49335e-05
2.53105e-05
2.77964e-05
3.09356e-05
3.41599e-05
3.71522e-05
4.01414e-05
4.51247e-05
5.68482e-05
5.35408e-05
6.219e-05
6.98455e-05
5.73773e-05
5.5549e-05
5.54303e-05
5.47625e-05
5.37897e-05
5.21345e-05
4.83772e-05
4.35067e-05
4.39035e-05
4.87002e-05
5.20692e-05
5.31573e-05
5.31641e-05
5.23738e-05
5.12719e-05
5.33675e-05
6.84171e-05
6.23298e-05
7.15686e-05
8.39374e-05
0.000107569
0.000127998
0.000150404
0.0001699
0.000184093
0.000189696
0.000176724
0.000147043
0.000148052
0.00017806
0.00019052
0.000183864
0.000168359
0.000146885
0.000122048
0.00010212
8.20042e-05
7.1798e-05
8.20215e-05
9.75918e-05
0.000111662
0.00012504
0.000139149
0.00015295
0.000165486
0.000175229
0.000179931
0.00017799
0.000180353
0.000182568
0.000177813
0.000167833
0.000154936
0.000140677
0.000126113
0.000112693
9.8673e-05
8.29872e-05
5.72868e-06
9.14541e-06
1.07738e-05
1.12802e-05
1.09798e-05
1.02433e-05
9.5212e-06
8.95248e-06
8.60499e-06
8.72567e-06
8.78323e-06
8.35049e-06
8.40269e-06
8.87926e-06
9.50652e-06
1.02488e-05
1.07932e-05
1.04358e-05
8.79755e-06
5.15529e-06
1.29399e-05
2.44692e-05
2.75468e-05
2.6399e-05
2.29052e-05
1.9691e-05
1.72891e-05
1.56221e-05
1.51253e-05
1.63547e-05
1.70886e-05
1.53638e-05
1.50002e-05
1.61571e-05
1.78812e-05
2.0214e-05
2.35244e-05
2.54051e-05
2.24704e-05
1.00673e-05
2.0567e-05
2.7624e-05
3.06647e-05
3.11241e-05
2.9805e-05
2.70253e-05
2.33902e-05
1.98575e-05
1.77828e-05
1.80261e-05
1.85212e-05
1.76213e-05
1.87381e-05
2.16908e-05
2.51294e-05
2.78966e-05
2.92572e-05
2.86972e-05
2.56556e-05
1.86456e-05
2.20231e-05
2.7017e-05
2.94883e-05
2.98371e-05
2.87425e-05
2.68344e-05
2.45414e-05
2.20534e-05
2.00989e-05
1.98445e-05
2.02186e-05
2.01788e-05
2.18838e-05
2.41587e-05
2.60387e-05
2.74333e-05
2.81293e-05
2.74365e-05
2.47669e-05
2.01003e-05
2.98643e-05
3.02492e-05
3.0376e-05
3.01594e-05
2.89166e-05
2.69657e-05
2.47563e-05
2.27191e-05
2.13285e-05
2.14073e-05
2.19666e-05
2.18608e-05
2.28578e-05
2.4522e-05
2.63095e-05
2.78101e-05
2.86352e-05
2.8592e-05
2.86854e-05
2.91468e-05
4.21483e-05
3.86373e-05
3.41571e-05
3.24406e-05
3.06245e-05
2.82123e-05
2.55694e-05
2.31343e-05
2.15378e-05
2.2118e-05
2.25811e-05
2.18143e-05
2.3093e-05
2.5223e-05
2.74106e-05
2.92312e-05
3.05068e-05
3.20865e-05
3.72579e-05
4.21329e-05
5.32347e-05
5.33965e-05
4.09745e-05
3.69029e-05
3.47324e-05
3.24181e-05
2.99501e-05
2.78525e-05
2.69786e-05
2.95837e-05
2.9552e-05
2.68143e-05
2.75386e-05
2.92924e-05
3.11159e-05
3.25777e-05
3.40641e-05
3.81263e-05
5.16805e-05
5.34588e-05
6.33251e-05
7.10435e-05
5.36993e-05
5.27084e-05
5.47625e-05
5.65252e-05
5.75886e-05
5.70718e-05
5.31455e-05
4.80743e-05
4.79921e-05
5.28869e-05
5.64224e-05
5.62123e-05
5.40996e-05
5.11513e-05
4.83542e-05
4.98124e-05
6.97092e-05
6.36782e-05
7.40498e-05
8.67705e-05
0.000110848
0.000137697
0.0001699
0.000198113
0.000219534
0.000226234
0.00020371
0.000157657
0.000158149
0.000204827
0.000228034
0.000220433
0.000197195
0.000167124
0.000132973
0.000106298
8.53622e-05
7.45293e-05
8.61697e-05
0.000103817
0.00011981
0.000135697
0.00015295
0.000170103
0.00018611
0.000199221
0.000207046
0.000207987
0.000211369
0.000210519
0.000202571
0.000189166
0.000172725
0.000155081
0.000137356
0.00012135
0.000105296
8.7414e-05
4.85139e-06
7.85279e-06
9.32282e-06
9.76166e-06
9.663e-06
9.5212e-06
9.44426e-06
9.36895e-06
9.45164e-06
1.00732e-05
1.02675e-05
9.37659e-06
9.01653e-06
9.05327e-06
9.13236e-06
9.10353e-06
8.94758e-06
8.46797e-06
7.02066e-06
4.20111e-06
6.95551e-06
1.61017e-05
1.92109e-05
1.93599e-05
1.84101e-05
1.72891e-05
1.62352e-05
1.5609e-05
1.61474e-05
1.90177e-05
2.02248e-05
1.69141e-05
1.54617e-05
1.57e-05
1.64251e-05
1.70309e-05
1.72001e-05
1.6472e-05
1.33582e-05
6.51719e-06
1.60411e-05
2.2786e-05
2.60563e-05
2.68398e-05
2.57349e-05
2.33902e-05
2.07208e-05
1.85592e-05
1.78095e-05
1.96433e-05
2.06164e-05
1.8143e-05
1.79637e-05
1.95276e-05
2.16544e-05
2.36653e-05
2.47027e-05
2.39083e-05
2.06322e-05
1.35863e-05
1.7063e-05
2.19139e-05
2.48377e-05
2.5927e-05
2.5681e-05
2.45414e-05
2.2778e-05
2.08346e-05
1.97887e-05
2.13498e-05
2.23232e-05
2.01102e-05
2.06113e-05
2.23921e-05
2.39867e-05
2.48325e-05
2.46798e-05
2.32219e-05
2.00978e-05
1.56695e-05
2.63176e-05
2.49707e-05
2.5426e-05
2.60554e-05
2.57984e-05
2.47563e-05
2.33412e-05
2.19992e-05
2.14798e-05
2.36695e-05
2.49376e-05
2.21777e-05
2.21656e-05
2.32288e-05
2.43289e-05
2.5021e-05
2.49762e-05
2.41771e-05
2.39331e-05
2.62604e-05
4.02563e-05
3.3137e-05
2.83348e-05
2.74299e-05
2.68055e-05
2.55694e-05
2.39402e-05
2.249e-05
2.23121e-05
2.60266e-05
2.73196e-05
2.27877e-05
2.24057e-05
2.35192e-05
2.47782e-05
2.56225e-05
2.59533e-05
2.68325e-05
3.21503e-05
4.05305e-05
5.24425e-05
4.62133e-05
3.46335e-05
3.16993e-05
3.08814e-05
2.99501e-05
2.87464e-05
2.78932e-05
2.88065e-05
3.55585e-05
3.62906e-05
2.87252e-05
2.73557e-05
2.77947e-05
2.84606e-05
2.88258e-05
2.92682e-05
3.2258e-05
4.47646e-05
5.28711e-05
6.36423e-05
6.98341e-05
4.97335e-05
5.00147e-05
5.37897e-05
5.75886e-05
6.02588e-05
5.9997e-05
5.48385e-05
5.15208e-05
5.15744e-05
5.42197e-05
5.90832e-05
5.87263e-05
5.51115e-05
5.04268e-05
4.61836e-05
4.61803e-05
6.84941e-05
6.41573e-05
7.54817e-05
8.80902e-05
0.000112588
0.000145645
0.000184093
0.000219534
0.000246076
0.000250033
0.000208802
0.00015894
0.000160366
0.000207389
0.000251301
0.000248076
0.000219774
0.000182777
0.000142914
0.000109403
8.71933e-05
7.61654e-05
8.92098e-05
0.000108838
0.000126831
0.000145237
0.000165486
0.00018611
0.000206044
0.000223598
0.000236879
0.000245687
0.000250716
0.00024143
0.00022776
0.000209827
0.000189408
0.000168267
0.000147542
0.000128891
0.000110674
9.0672e-05
4.23293e-06
6.11476e-06
7.31011e-06
8.04503e-06
8.52058e-06
8.95248e-06
9.36895e-06
9.85634e-06
1.05221e-05
1.17243e-05
1.20945e-05
1.0673e-05
9.71508e-06
9.18268e-06
8.78895e-06
8.34683e-06
7.76915e-06
6.97524e-06
5.74139e-06
3.81985e-06
6.37913e-06
1.14646e-05
1.42344e-05
1.54786e-05
1.57204e-05
1.56221e-05
1.5609e-05
1.62691e-05
1.80992e-05
2.12921e-05
2.29811e-05
1.94207e-05
1.66233e-05
1.55614e-05
1.53535e-05
1.51951e-05
1.46925e-05
1.34143e-05
1.0755e-05
5.90698e-06
1.08285e-05
1.77589e-05
2.10846e-05
2.1931e-05
2.12161e-05
1.98575e-05
1.85592e-05
1.79658e-05
1.89492e-05
2.6633e-05
2.87507e-05
1.98534e-05
1.79552e-05
1.80351e-05
1.88204e-05
1.95785e-05
1.9783e-05
1.87246e-05
1.5455e-05
7.67808e-06
1.28312e-05
1.74454e-05
2.07045e-05
2.23762e-05
2.27139e-05
2.20534e-05
2.08346e-05
1.98219e-05
2.086e-05
3.49664e-05
3.85967e-05
2.18858e-05
1.98061e-05
2.05101e-05
2.15764e-05
2.21061e-05
2.16018e-05
1.97041e-05
1.61652e-05
1.1673e-05
2.31791e-05
2.04963e-05
2.11179e-05
2.24023e-05
2.29495e-05
2.27191e-05
2.19992e-05
2.13995e-05
2.34034e-05
4.71735e-05
5.37301e-05
2.49626e-05
2.16256e-05
2.19684e-05
2.25373e-05
2.25728e-05
2.17899e-05
2.03104e-05
1.98635e-05
2.40453e-05
3.84227e-05
2.88985e-05
2.36502e-05
2.31149e-05
2.3359e-05
2.31343e-05
2.249e-05
2.21902e-05
2.56424e-05
5.93801e-05
6.76306e-05
2.72475e-05
2.22353e-05
2.21499e-05
2.25023e-05
2.24317e-05
2.1956e-05
2.24653e-05
2.82379e-05
3.89854e-05
5.12076e-05
4.02538e-05
2.954e-05
2.73047e-05
2.75414e-05
2.78525e-05
2.78932e-05
2.85093e-05
3.4122e-05
7.4628e-05
8.24324e-05
3.53192e-05
2.80696e-05
2.69223e-05
2.643e-05
2.57086e-05
2.52431e-05
2.76146e-05
3.91028e-05
5.18237e-05
6.30129e-05
6.66303e-05
4.55722e-05
4.7041e-05
5.21345e-05
5.70718e-05
5.9997e-05
5.84217e-05
5.50591e-05
8.37552e-05
8.96767e-05
5.51789e-05
5.71338e-05
5.83277e-05
5.47676e-05
4.91542e-05
4.37089e-05
4.24798e-05
6.5633e-05
6.3653e-05
7.55941e-05
8.6984e-05
0.000110681
0.000148102
0.000189696
0.000226234
0.000250033
0.000235872
0.000190043
0.000212445
0.000219577
0.000191382
0.000232599
0.00025002
0.000227219
0.000189599
0.000146577
0.00010838
8.63545e-05
7.63934e-05
9.07903e-05
0.000111918
0.000131567
0.000152255
0.000175229
0.000199221
0.000223598
0.000247526
0.000272114
0.000300471
0.000308071
0.000278422
0.000252569
0.000227965
0.000203055
0.000178508
0.000155001
0.000133982
0.000113981
9.23751e-05
3.9077e-06
5.40115e-06
6.35947e-06
7.12686e-06
7.85419e-06
8.60499e-06
9.45164e-06
1.05221e-05
1.16966e-05
1.31152e-05
1.3391e-05
1.20248e-05
1.06365e-05
9.5048e-06
8.66592e-06
7.92186e-06
7.15052e-06
6.24587e-06
5.20141e-06
3.64577e-06
6.02557e-06
9.94948e-06
1.21906e-05
1.36453e-05
1.44865e-05
1.51253e-05
1.61474e-05
1.80992e-05
2.08292e-05
5.93947e-05
6.26478e-05
2.23757e-05
1.8904e-05
1.65526e-05
1.53116e-05
1.44727e-05
1.35036e-05
1.17887e-05
9.46081e-06
5.65228e-06
7.08258e-06
1.34735e-05
1.66283e-05
1.77541e-05
1.79417e-05
1.77828e-05
1.78095e-05
1.89492e-05
2.96002e-05
0.000143125
0.000146993
3.13909e-05
1.95175e-05
1.79023e-05
1.75281e-05
1.73196e-05
1.67158e-05
1.50774e-05
1.16827e-05
6.64885e-06
9.74683e-06
1.42934e-05
1.77677e-05
1.96439e-05
2.0247e-05
2.00989e-05
1.97887e-05
2.086e-05
4.21665e-05
0.000229022
0.000235955
4.57689e-05
2.14669e-05
1.97524e-05
1.9842e-05
1.98124e-05
1.9087e-05
1.71867e-05
1.33683e-05
8.2561e-06
2.11887e-05
1.75794e-05
1.7785e-05
1.94509e-05
2.0741e-05
2.13285e-05
2.14798e-05
2.34034e-05
6.06003e-05
0.000324717
0.00033593
6.75087e-05
2.43088e-05
2.15956e-05
2.13734e-05
2.06964e-05
1.91328e-05
1.71194e-05
1.71066e-05
2.2626e-05
3.67794e-05
2.62805e-05
2.02673e-05
1.94817e-05
2.05138e-05
2.15378e-05
2.23121e-05
2.56424e-05
7.66905e-05
0.00040683
0.000422776
8.64532e-05
2.65719e-05
2.22195e-05
2.12334e-05
1.98992e-05
1.84906e-05
1.92418e-05
2.59879e-05
3.75619e-05
4.95703e-05
3.66317e-05
2.60571e-05
2.38122e-05
2.50792e-05
2.69786e-05
2.88065e-05
3.4122e-05
9.5016e-05
0.000452838
0.000471998
0.000105535
3.46034e-05
2.79772e-05
2.57513e-05
2.34962e-05
2.20376e-05
2.45359e-05
3.58904e-05
5.03328e-05
6.13351e-05
6.18171e-05
4.10754e-05
4.27657e-05
4.83772e-05
5.31455e-05
5.48385e-05
5.50591e-05
0.000103711
0.000434537
0.000456424
0.000113203
5.43896e-05
5.28618e-05
5.07471e-05
4.55662e-05
3.97933e-05
3.85787e-05
6.11379e-05
6.207e-05
7.39939e-05
8.21742e-05
0.000101568
0.000139167
0.000176724
0.00020371
0.000208802
0.000190043
0.000226679
0.000401336
0.000415589
0.000237654
0.000190697
0.000206124
0.0002029
0.000176254
0.000137919
9.96843e-05
8.16814e-05
7.4849e-05
9.03841e-05
0.000112111
0.000132553
0.000154835
0.000179931
0.000207046
0.000236879
0.000272114
0.00031868
0.000376674
0.000386947
0.000327363
0.000278635
0.000241885
0.00021117
0.000183394
0.000157723
0.000135047
0.000114224
9.19841e-05
3.77241e-06
5.07509e-06
5.93856e-06
6.79169e-06
7.71511e-06
8.72567e-06
1.00732e-05
1.17243e-05
1.31152e-05
1.42554e-05
1.44507e-05
1.33805e-05
1.20825e-05
1.03715e-05
9.0071e-06
7.97215e-06
6.99428e-06
6.01212e-06
5.03621e-06
3.59136e-06
6.1562e-06
9.60038e-06
1.15838e-05
1.33677e-05
1.49919e-05
1.63547e-05
1.90177e-05
2.12921e-05
5.93947e-05
5.78587e-05
5.98879e-05
6.0801e-05
2.25551e-05
1.98923e-05
1.69764e-05
1.53383e-05
1.35116e-05
1.1463e-05
9.38387e-06
5.76165e-06
7.54066e-06
1.1319e-05
1.39481e-05
1.59549e-05
1.72897e-05
1.80261e-05
1.96433e-05
2.6633e-05
0.000143125
0.000106872
0.000111311
0.000142394
2.79522e-05
2.04381e-05
1.84787e-05
1.74472e-05
1.57373e-05
1.35816e-05
1.11266e-05
7.06042e-06
9.36142e-06
1.34648e-05
1.57973e-05
1.77243e-05
1.91018e-05
1.98445e-05
2.13498e-05
3.49664e-05
0.000229022
0.000164006
0.000171767
0.000228449
3.69012e-05
2.2016e-05
2.02175e-05
1.93203e-05
1.75462e-05
1.55265e-05
1.35893e-05
8.21666e-06
2.05522e-05
1.72311e-05
1.61452e-05
1.74306e-05
1.97156e-05
2.14073e-05
2.36695e-05
4.71735e-05
0.000324717
0.000230645
0.00024222
0.000326306
5.07412e-05
2.44703e-05
2.20133e-05
2.02719e-05
1.76146e-05
1.58617e-05
1.71287e-05
2.20837e-05
3.55329e-05
2.5372e-05
1.89331e-05
1.71628e-05
1.91617e-05
2.2118e-05
2.60266e-05
5.93801e-05
0.00040683
0.000303606
0.000318644
0.000411912
6.43131e-05
2.67808e-05
2.25274e-05
1.92394e-05
1.65873e-05
1.84434e-05
2.54023e-05
3.64653e-05
4.77081e-05
3.47661e-05
2.44925e-05
2.1978e-05
2.48362e-05
2.95837e-05
3.55585e-05
7.4628e-05
0.000452838
0.000373327
0.000390508
0.000460896
7.90271e-05
3.52623e-05
2.87516e-05
2.36643e-05
2.05844e-05
2.34773e-05
3.44458e-05
4.8625e-05
5.87364e-05
5.68833e-05
3.70921e-05
3.78469e-05
4.35067e-05
4.80743e-05
5.15208e-05
8.37552e-05
0.000434537
0.00042076
0.000437803
0.000449585
8.75931e-05
4.99729e-05
4.57329e-05
4.09423e-05
3.53375e-05
3.51767e-05
5.65105e-05
5.96376e-05
7.05227e-05
7.36617e-05
8.59571e-05
0.000119498
0.000147043
0.000157657
0.00015894
0.000212445
0.000401336
0.00043982
0.000455859
0.000413021
0.000219672
0.000159928
0.000155223
0.000144932
0.000117886
8.45204e-05
7.34661e-05
7.15418e-05
8.7322e-05
0.000108625
0.000128517
0.000151552
0.00017799
0.000207987
0.000245687
0.000300471
0.000376674
0.000414177
0.000425547
0.000386532
0.000308339
0.000251385
0.000212117
0.000181228
0.000154236
0.000130882
0.000110704
8.89619e-05
3.66427e-06
4.92235e-06
5.79381e-06
6.70574e-06
7.69016e-06
8.78323e-06
1.02675e-05
1.20945e-05
1.3391e-05
1.44507e-05
1.37008e-05
1.26795e-05
1.16678e-05
1.01006e-05
8.76905e-06
7.75501e-06
6.79907e-06
5.87853e-06
4.95167e-06
3.54378e-06
6.13616e-06
9.61723e-06
1.15894e-05
1.34662e-05
1.5369e-05
1.70886e-05
2.02248e-05
2.29811e-05
6.26478e-05
5.98879e-05
5.86193e-05
6.07772e-05
2.30934e-05
2.04013e-05
1.72194e-05
1.54007e-05
1.34513e-05
1.14463e-05
9.40524e-06
5.7753e-06
7.55879e-06
1.13518e-05
1.38049e-05
1.58335e-05
1.74724e-05
1.85212e-05
2.06164e-05
2.87507e-05
0.000146993
0.000111311
0.000109108
0.000140992
2.83201e-05
2.08717e-05
1.86514e-05
1.7391e-05
1.55902e-05
1.35501e-05
1.12351e-05
7.22248e-06
9.49435e-06
1.36817e-05
1.59306e-05
1.76314e-05
1.92577e-05
2.02186e-05
2.23232e-05
3.85967e-05
0.000235955
0.000171767
0.000168431
0.000227722
3.80135e-05
2.25938e-05
2.04205e-05
1.93671e-05
1.75691e-05
1.57535e-05
1.37992e-05
8.89355e-06
2.18723e-05
1.78639e-05
1.66126e-05
1.77584e-05
2.00926e-05
2.19666e-05
2.49376e-05
5.37301e-05
0.00033593
0.00024222
0.000237682
0.000327404
5.42938e-05
2.54073e-05
2.23783e-05
2.04933e-05
1.78534e-05
1.64547e-05
1.79629e-05
2.33982e-05
3.66489e-05
2.61738e-05
1.93766e-05
1.75673e-05
1.94613e-05
2.25811e-05
2.73196e-05
6.76306e-05
0.000422776
0.000318644
0.000313019
0.00041594
6.88479e-05
2.78031e-05
2.27662e-05
1.94141e-05
1.70491e-05
1.89894e-05
2.63237e-05
3.76582e-05
4.86587e-05
3.57536e-05
2.50553e-05
2.24021e-05
2.49335e-05
2.9552e-05
3.62906e-05
8.24324e-05
0.000471998
0.000390508
0.000383983
0.000467939
8.43112e-05
3.63178e-05
2.89666e-05
2.39526e-05
2.11187e-05
2.40837e-05
3.54098e-05
4.97608e-05
5.96068e-05
5.8442e-05
3.78518e-05
3.86585e-05
4.39035e-05
4.79921e-05
5.15744e-05
8.96767e-05
0.000456424
0.000437803
0.000430063
0.000459548
9.29275e-05
5.15102e-05
4.69051e-05
4.23551e-05
3.67925e-05
3.60969e-05
5.84187e-05
6.08339e-05
7.13959e-05
7.47117e-05
8.72321e-05
0.000120452
0.000148052
0.000158149
0.000160366
0.000219577
0.000415589
0.000455859
0.000448471
0.000417632
0.000223174
0.000160418
0.000154266
0.000145174
0.000119556
8.70482e-05
7.5305e-05
7.2895e-05
8.81944e-05
0.000109651
0.000129787
0.000153223
0.000180353
0.000211369
0.000250715
0.000308071
0.000386947
0.000425547
0.000419616
0.00038601
0.000309109
0.000252127
0.000212674
0.000181874
0.000155119
0.000132003
0.000111984
9.033e-05
3.57725e-06
4.8282e-06
5.74557e-06
6.62069e-06
7.47321e-06
8.35049e-06
9.37659e-06
1.0673e-05
1.20248e-05
1.33805e-05
1.26795e-05
1.09721e-05
9.75292e-06
8.74092e-06
7.96937e-06
7.2853e-06
6.59199e-06
5.80841e-06
4.89784e-06
3.51988e-06
5.81042e-06
9.34734e-06
1.14726e-05
1.30972e-05
1.43361e-05
1.53638e-05
1.69141e-05
1.94207e-05
2.23757e-05
6.0801e-05
6.07772e-05
2.17548e-05
1.88485e-05
1.63798e-05
1.49594e-05
1.40114e-05
1.29773e-05
1.13693e-05
9.2727e-06
5.6155e-06
7.08286e-06
1.26594e-05
1.55939e-05
1.69907e-05
1.74379e-05
1.76213e-05
1.8143e-05
1.98534e-05
3.13909e-05
0.000142394
0.000140992
3.00914e-05
1.92417e-05
1.75969e-05
1.70564e-05
1.68266e-05
1.63077e-05
1.4809e-05
1.19154e-05
6.86469e-06
1.03696e-05
1.42793e-05
1.78522e-05
1.98124e-05
2.03448e-05
2.01788e-05
2.01102e-05
2.18858e-05
4.57689e-05
0.000228449
0.000227722
4.54994e-05
2.13331e-05
1.95617e-05
1.97202e-05
1.99597e-05
1.94266e-05
1.75403e-05
1.38214e-05
9.61068e-06
2.3306e-05
1.87211e-05
1.8322e-05
1.97941e-05
2.11649e-05
2.18608e-05
2.21776e-05
2.49626e-05
6.75087e-05
0.000326306
0.000327404
6.82082e-05
2.47257e-05
2.17912e-05
2.15048e-05
2.07884e-05
1.93435e-05
1.79268e-05
1.87966e-05
2.48743e-05
3.84038e-05
2.76909e-05
2.11788e-05
2.00615e-05
2.08366e-05
2.18143e-05
2.27877e-05
2.72475e-05
8.64532e-05
0.000411912
0.00041594
8.9026e-05
2.73206e-05
2.23235e-05
2.12171e-05
2.00797e-05
1.91285e-05
2.0424e-05
2.77167e-05
3.95207e-05
5.09293e-05
3.85749e-05
2.73516e-05
2.46458e-05
2.53105e-05
2.68143e-05
2.87252e-05
3.53192e-05
0.000105535
0.000460896
0.000467939
0.000109334
3.53936e-05
2.805e-05
2.58599e-05
2.39984e-05
2.30276e-05
2.59663e-05
3.81154e-05
5.2196e-05
6.25278e-05
6.44532e-05
4.26282e-05
4.38518e-05
4.87002e-05
5.28869e-05
5.42197e-05
5.51789e-05
0.000113203
0.000449585
0.000459548
0.00011868
5.54878e-05
5.34497e-05
5.20382e-05
4.76387e-05
4.22575e-05
4.06468e-05
6.48141e-05
6.39979e-05
7.5086e-05
8.36109e-05
0.000103459
0.000140262
0.00017806
0.000204827
0.000207389
0.000191382
0.000237654
0.000413021
0.000417632
0.000242408
0.000190348
0.000200782
0.000200328
0.000176937
0.000140923
0.000104242
8.48991e-05
7.68833e-05
9.14396e-05
0.000113402
0.000134129
0.000156817
0.000182568
0.000210519
0.00024143
0.000278422
0.000327363
0.000386532
0.00038601
0.000327951
0.000279209
0.00024207
0.000211462
0.000184086
0.000158858
0.000136498
0.000115881
9.37371e-05
3.67807e-06
5.18034e-06
6.19594e-06
7.0462e-06
7.76219e-06
8.40269e-06
9.01653e-06
9.71508e-06
1.06365e-05
1.20825e-05
1.16678e-05
9.75292e-06
8.75966e-06
8.22885e-06
7.82952e-06
7.38722e-06
6.84507e-06
6.14202e-06
5.11701e-06
3.55559e-06
5.90498e-06
1.0183e-05
1.27335e-05
1.41034e-05
1.46701e-05
1.50002e-05
1.54617e-05
1.66233e-05
1.8904e-05
2.25551e-05
2.30934e-05
1.88485e-05
1.58255e-05
1.45677e-05
1.41907e-05
1.394e-05
1.34824e-05
1.2293e-05
9.90381e-06
5.61891e-06
9.67339e-06
1.65847e-05
1.99072e-05
2.05098e-05
1.97698e-05
1.87381e-05
1.79637e-05
1.79552e-05
1.95175e-05
2.79522e-05
2.83201e-05
1.92417e-05
1.70637e-05
1.69021e-05
1.76451e-05
1.86386e-05
1.92217e-05
1.85039e-05
1.53382e-05
7.92388e-06
1.31739e-05
1.7154e-05
2.04105e-05
2.22681e-05
2.26598e-05
2.18838e-05
2.06113e-05