/*--------------------------------*- C++ -*----------------------------------*\
  =========                 |
  \\      /  F ield         | OpenFOAM: The Open Source CFD Toolbox
   \\    /   O peration     | Website:  https://openfoam.org
    \\  /    A nd           | Version:  9
     \\/     M anipulation  |
\*---------------------------------------------------------------------------*/
FoamFile
{
    format      ascii;
    class       volScalarField;
    location    "1350";
    object      nut;
}
// * * * * * * * * * * * * * * * * * * * * * * * * * * * * * * * * * * * * * //

dimensions      [0 2 -1 0 0 0 0];

internalField   nonuniform List<scalar> 
4000
(
0.000310158
0.000273272
0.000202526
0.000159719
0.000142633
0.000134387
0.00012331
0.000115178
0.000110665
0.000108754
0.000107245
0.000105929
0.00010746
0.000112799
0.000122538
0.000132503
0.000148887
0.000184613
0.000243161
0.000279511
0.000346486
0.000315986
0.000277005
0.000254088
0.000235929
0.000199542
0.000147636
0.000141554
0.00013762
0.000139048
0.000138843
0.000135135
0.000136366
0.000139679
0.000201806
0.0002414
0.000262122
0.000282764
0.000306464
0.000340237
0.000366637
0.000352934
0.000330317
0.000306809
0.00028246
0.000254128
0.000224427
0.000184274
0.000149093
0.000153907
0.000154119
0.000149236
0.000174641
0.000216059
0.000250041
0.000283514
0.000312644
0.000335935
0.000353399
0.000364824
0.000376706
0.000367833
0.000347716
0.000322858
0.000294184
0.000263036
0.00023141
0.000200197
0.000173712
0.000170391
0.000171597
0.000179593
0.000203112
0.000232308
0.000262256
0.000293681
0.000324481
0.000350409
0.000368691
0.000375731
0.000382721
0.000379619
0.00036608
0.000346758
0.00032565
0.000305821
0.000286813
0.000268797
0.000256557
0.000252512
0.00026076
0.000269705
0.000283039
0.000298259
0.000313737
0.000331763
0.000351293
0.000368753
0.000380696
0.000382035
0.00038708
0.000390183
0.000386244
0.000379527
0.000371969
0.00036383
0.00035558
0.000347369
0.0003398
0.00033392
0.000339081
0.000347201
0.0003555
0.000363488
0.000370921
0.000378066
0.000384372
0.000389526
0.00039154
0.000386647
0.000391305
0.000401135
0.000406364
0.000409017
0.000410089
0.000409167
0.000406192
0.000401432
0.000394964
0.000387406
0.000391088
0.000400129
0.000407456
0.000412477
0.000415217
0.000415559
0.000413591
0.000409698
0.000402829
0.000391177
0.000396283
0.000412819
0.000425807
0.000435354
0.000442306
0.000446483
0.000447712
0.000445567
0.000439618
0.000430137
0.000433102
0.000443584
0.000450364
0.000452916
0.000451758
0.000447248
0.000439644
0.000429126
0.000414774
0.00039649
0.000403196
0.000427512
0.000447464
0.000462823
0.000474701
0.00048303
0.000487814
0.000488272
0.00048312
0.000471597
0.000474252
0.00048635
0.000492222
0.00049229
0.000487756
0.000479296
0.00046687
0.000450693
0.000429625
0.000403789
0.000413614
0.000445448
0.000471968
0.000492215
0.000508492
0.000521372
0.000530631
0.00053541
0.000534271
0.000525136
0.0005275
0.000537135
0.000538804
0.00053445
0.000525452
0.000512603
0.000496082
0.000475344
0.000447985
0.00041469
0.000273272
0.000241422
0.000196317
0.000175583
0.000170528
0.000170334
0.000156869
0.000138258
0.000129854
0.000125907
0.000124176
0.000123138
0.000127633
0.000143441
0.000154996
0.000158622
0.000166039
0.000181258
0.00020599
0.000219544
0.000315986
0.000372376
0.000346181
0.000348318
0.000374637
0.000368976
0.000327284
0.000306158
0.000320699
0.000362329
0.000375065
0.000328991
0.00029689
0.000307149
0.000357678
0.000376777
0.000369854
0.000374686
0.000382487
0.000310265
0.000352934
0.000527778
0.000505371
0.000453212
0.000414058
0.000384173
0.000357096
0.000329117
0.000327808
0.000377425
0.000385394
0.000331552
0.000323913
0.000346407
0.000375555
0.000408434
0.000445976
0.000483829
0.000478823
0.000352423
0.000367833
0.000513792
0.000521654
0.000479159
0.000424004
0.00038058
0.000343909
0.000311536
0.000300111
0.000352908
0.000351705
0.000297252
0.000308217
0.000339863
0.000377698
0.000422485
0.000477367
0.00050892
0.000491568
0.000367079
0.000379619
0.000526893
0.000547831
0.00051154
0.000446607
0.000390317
0.000346473
0.000307814
0.000281925
0.000282866
0.000286244
0.000288096
0.000315171
0.000354905
0.000400833
0.00046089
0.000525076
0.000550219
0.000518922
0.000378903
0.000390183
0.000548003
0.000585277
0.000570714
0.000519133
0.000441581
0.000391129
0.000352361
0.000328385
0.000322097
0.000327832
0.00033864
0.000366448
0.000409055
0.000462755
0.000540873
0.000585274
0.000588378
0.00054273
0.000389601
0.000401135
0.000564357
0.000612726
0.000630048
0.000623297
0.000581145
0.000513035
0.000456454
0.000422296
0.000406542
0.000415413
0.000440328
0.000483874
0.000547241
0.000613211
0.000645729
0.00064276
0.000614311
0.000558932
0.000400803
0.000412819
0.000572996
0.000625431
0.000671549
0.000717473
0.000735802
0.000727201
0.00070199
0.000666923
0.000640528
0.000651233
0.000686952
0.000723012
0.000745592
0.00075282
0.000734088
0.000680985
0.000625672
0.000567725
0.000412819
0.000427512
0.000557714
0.000618904
0.000666236
0.000700941
0.000716695
0.000720282
0.000708437
0.000675682
0.000628107
0.000635583
0.000686735
0.000721116
0.000734203
0.000730597
0.000711542
0.000670779
0.000617772
0.00055476
0.000428051
0.000445448
0.000480285
0.000510165
0.000534291
0.000554984
0.000572598
0.000586423
0.000594753
0.000595316
0.000585955
0.000588492
0.000598491
0.000598311
0.000590259
0.000576558
0.000558803
0.000537705
0.000513095
0.000482597
0.000446869
0.000202526
0.000196317
0.000184515
0.000181239
0.000186635
0.000185094
0.000171222
0.000151163
0.000140773
0.000136051
0.000134661
0.00013444
0.000139818
0.000156892
0.000171928
0.000174182
0.00017414
0.00017599
0.000178269
0.000166646
0.000277005
0.000346181
0.000369443
0.000408056
0.00044577
0.000438876
0.000394056
0.000370916
0.000384337
0.000432209
0.000449792
0.000396795
0.000360494
0.000369253
0.000424185
0.000452758
0.000434744
0.000409611
0.000382592
0.000289546
0.000330317
0.000505371
0.000519546
0.000495887
0.000475922
0.000455368
0.000433756
0.000410549
0.000408629
0.000451238
0.000468134
0.000412945
0.000409099
0.000425529
0.000445302
0.000469711
0.000489529
0.000507375
0.000479491
0.000332643
0.000347716
0.000521654
0.0005597
0.000534634
0.00049155
0.000453742
0.000420993
0.000394061
0.000392835
0.000434819
0.000444113
0.000398625
0.000393422
0.000416233
0.000448014
0.000486345
0.000528062
0.000546978
0.000501883
0.000346354
0.00036608
0.000547831
0.000596892
0.000574052
0.000513533
0.000457151
0.000411822
0.00037298
0.000346355
0.000346271
0.000348859
0.000348432
0.000374241
0.000414022
0.000461632
0.000520997
0.00058228
0.000596687
0.000541214
0.000364763
0.000386244
0.000585277
0.000647481
0.000633131
0.000565714
0.000483958
0.000421584
0.000371569
0.000335149
0.000324261
0.000327585
0.000342078
0.000381122
0.000434385
0.000499097
0.000579367
0.000639631
0.000643933
0.000577628
0.000385728
0.000406364
0.000612726
0.000689173
0.00069426
0.000644346
0.00056795
0.000495894
0.00043837
0.000398421
0.000383016
0.000388846
0.000412061
0.000458149
0.000519843
0.000591107
0.00065859
0.000695471
0.000679007
0.000600617
0.0004062
0.000425807
0.000625431
0.000722944
0.000773621
0.000773555
0.000732237
0.000685296
0.000637791
0.000590078
0.000554625
0.000562821
0.000607278
0.000658126
0.000707201
0.000752249
0.000783044
0.000768692
0.000707493
0.000610321
0.000425959
0.000447464
0.000618904
0.000767998
0.000904825
0.00099163
0.0010283
0.00103512
0.0010087
0.000942331
0.00084738
0.000854673
0.000954021
0.00102008
0.00104926
0.00104316
0.00099649
0.000898061
0.000753112
0.000607258
0.000448092
0.000471968
0.000510165
0.000542663
0.000569724
0.000593844
0.000615306
0.000633215
0.000645
0.000647445
0.000637433
0.000640415
0.000651078
0.000648852
0.000637148
0.000619157
0.000597321
0.000572655
0.000545273
0.000512573
0.000474014
0.000159719
0.000175583
0.000181239
0.000189647
0.000194366
0.000189431
0.000175375
0.000158756
0.00014907
0.000145475
0.000144882
0.000144426
0.000149309
0.000161177
0.000178791
0.000186643
0.000183643
0.000176322
0.000166874
0.000142103
0.000254088
0.000348318
0.000408056
0.000460225
0.000485657
0.000463314
0.000424342
0.000408428
0.000428186
0.000483764
0.00050653
0.000448886
0.000406272
0.000403865
0.000441065
0.000488883
0.000484629
0.000444877
0.000385106
0.000265814
0.000306809
0.000453212
0.000495887
0.000505602
0.000505595
0.000494642
0.000477655
0.000456289
0.000456991
0.000511314
0.000538427
0.000476124
0.000457583
0.000471888
0.000484676
0.000498228
0.000500424
0.000487454
0.000438873
0.000306529
0.000322858
0.000479159
0.000534634
0.000535859
0.000516824
0.00049307
0.000469205
0.000450283
0.000455151
0.00049921
0.000515959
0.000470975
0.000455669
0.000466254
0.000485151
0.000506566
0.000522595
0.000515852
0.00045902
0.000316518
0.000346758
0.00051154
0.000574052
0.000575058
0.000541892
0.000501999
0.000465772
0.000435117
0.00041987
0.000449569
0.000458808
0.000424749
0.000435709
0.000464059
0.000498335
0.000536226
0.000567011
0.00056227
0.000500428
0.000344067
0.000379527
0.000570714
0.000633131
0.000635536
0.00059106
0.00052954
0.000474496
0.00042778
0.00039245
0.00038374
0.000386391
0.000396252
0.000431814
0.000478846
0.000531618
0.000586377
0.000621993
0.000615529
0.000559585
0.000379054
0.000409017
0.000630048
0.00069426
0.0007049
0.000666156
0.000600819
0.000537464
0.000484718
0.000445436
0.000432999
0.000435954
0.000452582
0.000494485
0.000547976
0.000606165
0.000657994
0.000681875
0.000666798
0.000614213
0.000409243
0.000435354
0.000671549
0.000773621
0.000826462
0.000816624
0.0007701
0.000719718
0.000672403
0.000624252
0.000585603
0.000591875
0.000634021
0.000681355
0.00072657
0.00076959
0.000799524
0.000791917
0.000737509
0.000650779
0.000435886
0.000462823
0.000666236
0.000904825
0.00112474
0.00116771
0.00118514
0.00119498
0.00118436
0.00112266
0.00101326
0.00101643
0.00112573
0.00118398
0.00119081
0.00117461
0.00114415
0.00108734
0.000872757
0.000646773
0.000463704
0.000492215
0.000534291
0.000569724
0.000600057
0.000628582
0.000654989
0.000677747
0.000694006
0.000699883
0.000692355
0.000696054
0.000704192
0.000698421
0.000682027
0.00065891
0.000631861
0.000602675
0.000572301
0.000537081
0.000494968
0.000142633
0.000170528
0.000186635
0.000194366
0.00019433
0.000186793
0.000174641
0.00016367
0.00015673
0.000155182
0.000155233
0.000153508
0.000156724
0.000165004
0.000176842
0.00018919
0.000191067
0.000183341
0.000166962
0.000132644
0.000235929
0.000374637
0.00044577
0.000485657
0.000486941
0.0004597
0.000437226
0.000431692
0.000459963
0.000528694
0.000559041
0.000493532
0.000440702
0.000428625
0.000438599
0.000473658
0.000492783
0.000464503
0.000392851
0.000240057
0.00028246
0.000414058
0.000475922
0.000505595
0.000516245
0.000512334
0.000497429
0.000479109
0.000489536
0.000562882
0.000599733
0.000520129
0.000485244
0.000494694
0.00050564
0.000507323
0.000498565
0.000468973
0.000404414
0.000275736
0.000294184
0.000424004
0.00049155
0.000516824
0.000518822
0.000509602
0.000496186
0.000485375
0.000494843
0.000554498
0.000585654
0.000517893
0.00049633
0.000497912
0.000503309
0.00050717
0.000501598
0.000472942
0.000404427
0.000283209
0.00032565
0.000446607
0.000513533
0.000541892
0.000538432
0.000520011
0.000497591
0.000478575
0.000479079
0.000532342
0.000553102
0.000492607
0.000482076
0.000495176
0.000511871
0.000524473
0.000522893
0.000491453
0.000427436
0.000322095
0.000371969
0.000519133
0.000565714
0.00059106
0.00058164
0.000549734
0.000512356
0.000478697
0.00046097
0.000489771
0.000494684
0.00046383
0.000478652
0.000508967
0.000539716
0.000561329
0.000560572
0.000532482
0.000498378
0.000371827
0.000410089
0.000623297
0.000644346
0.000666156
0.000658219
0.000621985
0.000577105
0.000537091
0.000514268
0.000533524
0.000530615
0.000513004
0.000536229
0.000572979
0.000607874
0.00062761
0.000621112
0.000600451
0.000603444
0.000410909
0.000442306
0.000717473
0.000773555
0.000816624
0.000815961
0.000781219
0.000739358
0.000698602
0.000656379
0.000626212
0.000626513
0.000655959
0.000694477
0.000728847
0.000758007
0.000773243
0.000757519
0.000716866
0.000694883
0.000443433
0.000474701
0.000700941
0.00099163
0.00116771
0.00125411
0.00130938
0.00134769
0.0013491
0.00126856
0.00111222
0.00111334
0.00126873
0.0013446
0.00133544
0.00128576
0.0012142
0.0011136
0.000948537
0.000677568
0.000476083
0.000508492
0.000554984
0.000593844
0.000628582
0.000663287
0.000695548
0.000723579
0.000744619
0.000754529
0.00075036
0.000755268
0.000759915
0.000750014
0.000728708
0.000700159
0.000667123
0.000631601
0.000596994
0.000558521
0.000512018
0.000134387
0.000170334
0.000185094
0.000189431
0.000186793
0.000180127
0.000173552
0.000167912
0.000164238
0.000165215
0.000166016
0.000162295
0.000163016
0.000167681
0.000173518
0.000180128
0.000185146
0.000182063
0.000166872
0.000127366
0.000199542
0.000368976
0.000438876
0.000463314
0.0004597
0.000450376
0.000443764
0.000449212
0.000484854
0.000556987
0.000590363
0.000526443
0.00046822
0.0004486
0.000444119
0.000442982
0.000443353
0.000423835
0.000354647
0.000177486
0.000254128
0.000384173
0.000455368
0.000494642
0.000512334
0.000511996
0.000499964
0.00049017
0.000512878
0.000587702
0.000624849
0.000551751
0.00050436
0.000501976
0.000509233
0.00050697
0.000487997
0.000446936
0.00037448
0.000242316
0.000263036
0.00038058
0.000453742
0.00049307
0.000509602
0.000512562
0.000508562
0.000504399
0.0005206
0.000583658
0.000614886
0.00054941
0.000518999
0.000515795
0.00051241
0.000502419
0.000481161
0.000438985
0.00036514
0.000251786
0.000305821
0.000390317
0.000457151
0.000501999
0.000520011
0.000519867
0.000511353
0.000505028
0.000520426
0.000581188
0.000604956
0.000542342
0.000513575
0.000512064
0.000513773
0.000507581
0.000484967
0.000438796
0.000376565
0.000303382
0.00036383
0.000441581
0.000483958
0.00052954
0.000549734
0.000545002
0.000527638
0.000511016
0.000515734
0.000569753
0.000579581
0.000521963
0.000510468
0.000521415
0.000531266
0.000527128
0.000500187
0.000454999
0.000424123
0.000364651
0.000409167
0.000581145
0.00056795
0.000600819
0.000621985
0.000615213
0.000591806
0.000568558
0.000567965
0.000619835
0.000615593
0.000562519
0.000560741
0.000578269
0.000590961
0.000583959
0.000552982
0.000522843
0.000554919
0.000410716
0.000446483
0.000735802
0.000732237
0.000770101
0.000781219
0.000765356
0.00073931
0.000708555
0.000670943
0.000648896
0.000643877
0.000662948
0.000695459
0.00071749
0.000730056
0.000729372
0.000707748
0.00067614
0.000712582
0.00044833
0.00048303
0.000716695
0.0010283
0.00118514
0.00130938
0.00140418
0.00146785
0.00146424
0.00133146
0.00108207
0.00107905
0.00132878
0.00146214
0.00145868
0.00138223
0.0012712
0.00113485
0.000986637
0.000695866
0.000485186
0.000521372
0.000572598
0.000615306
0.000654989
0.000695548
0.000733615
0.000767398
0.000793952
0.000809311
0.000811004
0.00081754
0.000815958
0.000800523
0.00077369
0.000739366
0.000700595
0.000659319
0.000619661
0.000577113
0.000525633
0.00012331
0.000156869
0.000171222
0.000175375
0.000174641
0.000173552
0.00017272
0.000171775
0.000172249
0.000177668
0.000179585
0.00017196
0.000168779
0.000169176
0.000169941
0.000169614
0.000167964
0.000163271
0.000148458
0.000114941
0.000147636
0.000327284
0.000394056
0.000424342
0.000437226
0.000443764
0.00045059
0.00046734
0.000507783
0.000562735
0.000590384
0.000553236
0.000495461
0.0004666
0.000451752
0.000436168
0.000413576
0.0003781
0.000314898
0.000143172
0.000224427
0.000357096
0.000433756
0.000477655
0.000497429
0.000499964
0.000495571
0.000498859
0.000526641
0.000549241
0.00056731
0.000566275
0.000522246
0.000506642
0.000502763
0.000494861
0.000471937
0.000425516
0.000345809
0.000206803
0.00023141
0.000343909
0.000420993
0.000469205
0.000496186
0.000508562
0.000511271
0.000513417
0.000531455
0.000528874
0.000535356
0.000559623
0.000531367
0.000523148
0.000515771
0.000497953
0.000465339
0.000412518
0.000332241
0.000222487
0.000286813
0.000346473
0.000411822
0.000465772
0.000497591
0.000511353
0.000515398
0.000520462
0.000539272
0.000522255
0.000523206
0.000561865
0.000534146
0.000521947
0.000512144
0.000493107
0.000457304
0.000401134
0.000337537
0.000288136
0.00035558
0.000391129
0.000421584
0.000474496
0.000512356
0.000527638
0.000528358
0.000528689
0.000543954
0.000523452
0.000520117
0.000552313
0.000530986
0.000524462
0.000517431
0.00049598
0.000453985
0.000401311
0.000378596
0.000357735
0.000406192
0.000513035
0.000495894
0.000537464
0.000577105
0.000591806
0.000587247
0.000581084
0.000595489
0.000604753
0.000596474
0.000590097
0.000571314
0.000571065
0.000566924
0.000542953
0.000497703
0.000458886
0.000491343
0.000408527
0.000447712
0.000727201
0.000685296
0.000719718
0.000739358
0.00073931
0.000725927
0.000699113
0.000660637
0.000634725
0.000627951
0.000649237
0.000682201
0.00070076
0.000702536
0.000690606
0.000664458
0.000634763
0.000702758
0.000450089
0.000487814
0.000720282
0.00103512
0.00119498
0.00134769
0.00146785
0.00153508
0.00149528
0.00126641
0.000943466
0.000943708
0.00125165
0.00149038
0.0015316
0.00145406
0.00132112
0.00115733
0.000995603
0.000702067
0.000490577
0.000530631
0.000586423
0.000633215
0.000677747
0.000723579
0.000767398
0.000807425
0.000841024
0.000865456
0.000881203
0.000890145
0.0008736
0.000848678
0.000814763
0.000774239
0.000729832
0.000683421
0.000638724
0.000591766
0.000535432
0.000115178
0.000138258
0.000151163
0.000158756
0.00016367
0.000167912
0.000171775
0.000176095
0.000181774
0.000191729
0.000194897
0.000183362
0.000175037
0.00017018
0.000166475
0.000162187
0.000156366
0.000148064
0.000134293
0.000109511
0.000141554
0.000306158
0.000370916
0.000408428
0.000431692
0.000449212
0.00046734
0.000492792
0.000502115
0.00041024
0.000432283
0.000540611
0.000526186
0.000491675
0.000466907
0.000443208
0.000413557
0.000371043
0.000301497
0.00013615
0.000184274
0.000329117
0.000410549
0.000456289
0.000479109
0.00049017
0.000498859
0.000511079
0.000475898
0.00032346
0.000341685
0.000495011
0.000538575
0.000519886
0.000503198
0.00048402
0.000454078
0.000404672
0.000321813
0.000155328
0.000200197
0.000311536
0.000394061
0.000450283
0.000485375
0.000504399
0.000513417
0.000517865
0.000458202
0.000324158
0.000347451
0.000463238
0.000536317
0.000529739
0.000517451
0.00049554
0.00045674
0.000395246
0.000305379
0.000192188
0.000268797
0.000307814
0.00037298
0.000435117
0.000478575
0.000505028
0.000520462
0.000527507
0.000451887
0.000362548
0.000400765
0.000453844
0.000541769
0.000533637
0.000514966
0.000484519
0.000436491
0.000369022
0.000301615
0.000275862
0.000347369
0.000352361
0.000371569
0.00042778
0.000478697
0.000511016
0.000528689
0.000535841
0.000450588
0.000410951
0.000455425
0.000446605
0.000539268
0.000530369
0.000507992
0.000470386
0.000414388
0.000355793
0.000342943
0.000350894
0.000401432
0.000456454
0.000438371
0.000484718
0.000537091
0.000568558
0.000581084
0.000585964
0.000525959
0.000503081
0.000539355
0.000515285
0.000576217
0.00056644
0.000547199
0.000508913
0.000451964
0.000407854
0.000438912
0.000404488
0.000445567
0.00070199
0.000637791
0.000672403
0.000698602
0.000708555
0.000699113
0.000669444
0.000621469
0.00059744
0.000620595
0.000611072
0.000650376
0.000672905
0.00067328
0.000654513
0.000623676
0.000592954
0.000679883
0.000448346
0.000488272
0.000708437
0.0010087
0.00118436
0.0013491
0.00146424
0.00149528
0.00135743
0.00106833
0.00099546
0.0010269
0.00106327
0.00133367
0.00148264
0.00145315
0.00133069
0.00115614
0.00097642
0.000691793
0.000491349
0.00053541
0.000594753
0.000645
0.000694006
0.000744619
0.000793952
0.000841024
0.000884678
0.000927297
0.000974288
0.000986409
0.000937849
0.000893418
0.000849026
0.000801522
0.000751665
0.000700482
0.000651239
0.000600579
0.000540481
0.000110665
0.000129854
0.000140773
0.00014907
0.00015673
0.000164238
0.000172249
0.000181774
0.000191562
0.00020259
0.000205088
0.000194446
0.000182886
0.000172873
0.000165033
0.000157748
0.000149829
0.000139963
0.000127765
0.000106966
0.00013762
0.000320699
0.000384337
0.000428186
0.000459963
0.000484854
0.000507783
0.000502115
0.000373025
0.000468504
0.000494445
0.000402025
0.000531865
0.000536675
0.000509544
0.000479652
0.000444838
0.000395435
0.000330136
0.000133252
0.000149093
0.000327808
0.000408629
0.000456991
0.000489536
0.000512878
0.000526641
0.000475898
0.000311221
0.000642037
0.00067147
0.000331243
0.000491267
0.000553039
0.000537388
0.000508946
0.000470424
0.000414596
0.000334772
0.000144574
0.000173712
0.000300111
0.000392835
0.000455151
0.000494843
0.0005206
0.000531455
0.000458202
0.000336971
0.000872868
0.000914128
0.000363405
0.000461163
0.000550589
0.000541482
0.000513398
0.000470779
0.000408317
0.000306873
0.000161901
0.000256557
0.000281925
0.000346355
0.00041987
0.000479079
0.000520426
0.000539272
0.000451887
0.00040175
0.00112116
0.00117865
0.000443619
0.000450445
0.000556043
0.000542414
0.000501309
0.000437512
0.000350846
0.000277719
0.000267649
0.0003398
0.000328385
0.000335149
0.00039245
0.00046097
0.000515734
0.000543954
0.000450588
0.000461241
0.00133086
0.00140331
0.000513576
0.000442768
0.000550634
0.00052492
0.000465207
0.000386717
0.00032259
0.000322749
0.000344422
0.000394964
0.000422296
0.000398421
0.000445436
0.000514268
0.000567965
0.000595489
0.000525959
0.000554792
0.00146561
0.00154638
0.000604803
0.000509543
0.000583018
0.000552443
0.000492657
0.000418246
0.000373548
0.000409596
0.000398599
0.000439618
0.000666923
0.000590078
0.000624252
0.000656379
0.000670943
0.000660637
0.000621469
0.00065488
0.00148953
0.00157614
0.000694879
0.000602315
0.000631695
0.000635075
0.000614245
0.00057948
0.00055133
0.000647647
0.000442697
0.00048312
0.000675682
0.000942331
0.00112266
0.00126856
0.00133146
0.00126641
0.00106833
0.00106581
0.00148681
0.00154779
0.00110944
0.00105866
0.00123943
0.00131072
0.001248
0.00109676
0.000913513
0.000660153
0.000486322
0.000534271
0.000595316
0.000647445
0.000699883
0.000754529
0.000809311
0.000865456
0.000927297
0.00100327
0.00109054
0.00110509
0.00101659
0.000938078
0.000874274
0.000817151
0.000761725
0.000706505
0.000653754
0.000601183
0.000539319
0.000108754
0.000125907
0.000136051
0.000145475
0.000155182
0.000165215
0.000177668
0.000191729
0.00020259
0.000211113
0.000213016
0.00020489
0.000194607
0.00018032
0.000168046
0.0001581
0.000148098
0.000137357
0.000125782
0.000106184
0.000139048
0.000362329
0.000432209
0.000483764
0.000528694
0.000556987
0.000562735
0.00041024
0.000468504
0.000315063
0.000328317
0.000491775
0.000439701
0.000589305
0.000583301
0.000551812
0.000504315
0.000449619
0.000374973
0.000134616
0.000153907
0.000377425
0.000451238
0.000511314
0.000562882
0.000587702
0.000549241
0.00032346
0.000642037
0.000468876
0.000491292
0.000658076
0.000343332
0.000571841
0.000619419
0.000594409
0.000539167
0.000478206
0.000400091
0.000149054
0.000170391
0.000352908
0.000434819
0.00049921
0.000554498
0.000583658
0.000528874
0.000324158
0.000872868
0.000636532
0.000669241
0.000892346
0.000341573
0.000540939
0.000614767
0.000590903
0.000532138
0.000465314
0.000394174
0.000161394
0.000252512
0.000282866
0.000346271
0.000449569
0.000532342
0.000581188
0.000522255
0.000362548
0.00112116
0.000822769
0.000866562
0.00115156
0.000386957
0.000529517
0.000615361
0.000577586
0.000499939
0.000381675
0.000287495
0.000264315
0.00033392
0.000322097
0.000324261
0.00038374
0.000489771
0.000569753
0.000523452
0.000410951
0.00133086
0.00102267
0.00107635
0.00137375
0.000439402
0.000524473
0.000596629
0.000522378
0.000399397
0.000322586
0.000320967
0.000339247
0.000387406
0.000406542
0.000383016
0.000432999
0.000533524
0.000619835
0.000604753
0.000503081
0.00146561
0.00121772
0.0012777
0.00151552
0.00052237
0.000589858
0.000615107
0.000525218
0.000416198
0.000366536
0.000398979
0.000391665
0.000430137
0.000640528
0.000554625
0.000585603
0.000626212
0.000648896
0.000634725
0.00059744
0.00148953
0.00136996
0.00143142
0.00155566
0.000607921
0.00060685
0.000614667
0.000588117
0.000546852
0.000523051
0.000623885
0.00043382
0.000471597
0.000628107
0.00084738
0.00101326
0.00111222
0.00108207
0.000943466
0.00099546
0.00148681
0.00146644
0.00152586
0.00153993
0.00102352
0.000930179
0.00104834
0.00108158
0.000985557
0.000821948
0.000615463
0.000475354
0.000525136
0.000585955
0.000637433
0.000692355
0.00075036
0.000811004
0.000881203
0.000974288
0.00109054
0.00114142
0.00115804
0.00110411
0.000986492
0.000891007
0.000818718
0.000756986
0.000698463
0.000643445
0.000591757
0.00053033
0.000107245
0.000124176
0.000134661
0.000144882
0.000155233
0.000166016
0.000179585
0.000194897
0.000205088
0.000213016
0.000207656
0.000199754
0.000191549
0.000178171
0.000165983
0.00015608
0.000146144
0.000135932
0.00012481
0.000105535
0.000138843
0.000375064
0.000449792
0.00050653
0.000559041
0.000590363
0.000590384
0.000432283
0.000494445
0.000328317
0.000324736
0.000495918
0.000457008
0.000605711
0.000599594
0.000566262
0.000513983
0.000455019
0.000378119
0.000134785
0.000154119
0.000385394
0.000468134
0.000538427
0.000599733
0.000624849
0.00056731
0.000341685
0.000671469
0.000491292
0.000487147
0.000659699
0.000352267
0.000586243
0.000642244
0.000615146
0.00055257
0.000484039
0.000402162
0.000150666
0.000171597
0.000351705
0.000444113
0.000515959
0.000585654
0.000614885
0.000535356
0.000347451
0.000914127
0.000669241
0.00066408
0.000898614
0.000351947
0.000548505
0.000635984
0.00060958
0.000540833
0.000468448
0.00038451
0.00016729
0.00026076
0.000286244
0.000348859
0.000458808
0.000553102
0.000604956
0.000523206
0.000400765
0.00117865
0.000866562
0.000860735
0.00116614
0.000410621
0.000533123
0.00062942
0.000586823
0.000497977
0.000377707
0.000292329
0.000271648
0.000339081
0.000327832
0.000327585
0.000386391
0.000494684
0.000579581
0.000520117
0.000455425
0.00140331
0.00107635
0.00107055
0.00139771
0.000467835
0.000525065
0.000598949
0.000520519
0.000400019
0.000327866
0.000328284
0.000344472
0.000391088
0.000415413
0.000388846
0.000435954
0.000530615
0.000615593
0.000596474
0.000539355
0.00154638
0.0012777
0.00127239
0.00154852
0.000552672
0.000590594
0.000614207
0.000526339
0.000422598
0.000374301
0.000408433
0.000395954
0.000433102
0.000651233
0.000562821
0.000591875
0.000626513
0.000643877
0.000627951
0.000620595
0.00157614
0.00143142
0.00142584
0.0015971
0.000637255
0.000620752
0.000628092
0.000602957
0.000562473
0.000535603
0.000638176
0.000437864
0.000474252
0.000635583
0.000854673
0.00101643
0.00111334
0.00107905
0.000943708
0.0010269
0.00154779
0.00152586
0.00152195
0.00156594
0.00104499
0.000933915
0.00104293
0.0010822
0.00099492
0.000838051
0.000630664
0.000479452
0.0005275
0.000588492
0.000640415
0.000696054
0.000755268
0.00081754
0.000890145
0.000986409
0.00110509
0.00115804
0.00114987
0.00110236
0.000986771
0.000891517
0.000819106
0.000757686
0.000699819
0.000645558
0.000594593
0.000533926
0.000105929
0.000123138
0.00013444
0.000144426
0.000153508
0.000162295
0.00017196
0.000183362
0.000194446
0.00020489
0.000199754
0.000186062
0.000175329
0.000165853
0.000158279
0.000151298
0.000143919
0.000135136
0.000124155
0.0001052
0.000135135
0.000328991
0.000396795
0.000448886
0.000493532
0.000526443
0.000553236
0.000540611
0.000402025
0.000491775
0.000495918
0.0004155
0.00054649
0.000549861
0.000522784
0.000491413
0.000452556
0.000402164
0.000335266
0.000132851
0.000149236
0.000331552
0.000412945
0.000476124
0.000520129
0.000551751
0.000566275
0.000495011
0.000331243
0.000658076
0.000659699
0.00032981
0.000499918
0.0005716
0.000557187
0.000524777
0.000480267
0.000418313
0.000338537
0.000146775
0.000179593
0.000297252
0.000398625
0.000470975
0.000517893
0.00054941
0.000559623
0.000463238
0.000363405
0.000892346
0.000898614
0.000364748
0.000460223
0.000564294
0.000557779
0.000527773
0.000481335
0.00041159
0.000305422
0.000173882
0.000269705
0.000288096
0.000348432
0.000424749
0.000492607
0.000542342
0.000561865
0.000453844
0.000443619
0.00115156
0.00116614
0.000451965
0.000450159
0.000566338
0.000551671
0.000503987
0.00043503
0.000352559
0.000288043
0.000279979
0.000347201
0.00033864
0.000342078
0.000396252
0.00046383
0.000521963
0.000552313
0.000446605
0.000513576
0.00137375
0.00139771
0.000531029
0.000441054
0.000551502
0.000524745
0.000465022
0.000391301
0.00033353
0.000336279
0.000352863
0.000400129
0.000440328
0.000412061
0.000452582
0.000513004
0.000562519
0.000590097
0.000515285
0.000604803
0.00151552
0.00154852
0.000626987
0.00050748
0.000580462
0.000551164
0.000497046
0.000430704
0.000391105
0.000431376
0.000405517
0.000443584
0.000686952
0.000607278
0.000634021
0.000655959
0.000662948
0.000649237
0.000611072
0.000694879
0.00155566
0.0015971
0.000723322
0.000610733
0.000641416
0.000649537
0.000635257
0.000605857
0.000578576
0.000677558
0.0004491
0.00048635
0.000686735
0.000954021
0.00112573
0.00126873
0.00132878
0.00125165
0.00106327
0.00110944
0.00153993
0.00156594
0.00113381
0.00105498
0.00121318
0.00129649
0.00124967
0.00111365
0.000943659
0.000687723
0.000492368
0.000537135
0.000598491
0.000651078
0.000704192
0.000759915
0.000815958
0.0008736
0.000937849
0.00101659
0.00110411
0.00110236
0.00101632
0.000938071
0.000873795
0.000816916
0.000762323
0.000708184
0.000656433
0.000604814
0.000543876
0.00010746
0.000127633
0.000139818
0.000149309
0.000156724
0.000163016
0.000168779
0.000175037
0.000182886
0.000194607
0.000191549
0.000175329
0.000166018
0.000160764
0.000156723
0.000152167
0.000146471
0.000138816
0.000126824
0.000105693
0.000136366
0.00029689
0.000360494
0.000406272
0.000440702
0.00046822
0.000495461
0.000526186
0.000531865
0.000439701
0.000457008
0.00054649
0.000522583
0.000486306
0.000460131
0.000434819
0.000404031
0.000360989
0.000295813
0.000132887
0.000174641
0.000323913
0.000409099
0.000457583
0.000485244
0.00050436
0.000522246
0.000538575
0.000491267
0.000343331
0.000352267
0.000499918
0.000540244
0.000518464
0.000498191
0.000477849
0.000448988
0.000400583
0.000317934
0.000158084
0.000203112
0.000308217
0.000393422
0.000455669
0.00049633
0.000518999
0.000531367
0.000536317
0.000461163
0.000341573
0.000351947
0.000460223
0.000534554
0.000528407
0.000517181
0.000494316
0.000452412
0.000388299
0.000300726
0.000198779
0.000283039
0.000315171