/*--------------------------------*- C++ -*----------------------------------*\
  =========                 |
  \\      /  F ield         | OpenFOAM: The Open Source CFD Toolbox
   \\    /   O peration     | Website:  https://openfoam.org
    \\  /    A nd           | Version:  9
     \\/     M anipulation  |
\*---------------------------------------------------------------------------*/
FoamFile
{
    format      ascii;
    class       volScalarField;
    location    "340";
    object      nuTilda;
}
// * * * * * * * * * * * * * * * * * * * * * * * * * * * * * * * * * * * * * //

dimensions      [0 2 -1 0 0 0 0];

internalField   nonuniform List<scalar> 
10720
(
0.0573479
0.0589809
0.0601308
0.0604068
0.0598635
0.0579248
0.0540908
0.0477619
0.0383034
0.0262555
0.0146688
0.0104158
0.0123383
0.0122059
0.0122836
0.0124485
0.0122009
0.0117506
0.0106681
0.00914379
0.00971244
0.0103691
0.0113317
0.0122875
0.0135538
0.0162276
0.020318
0.0242695
0.0278276
0.0270668
0.0220024
0.0177286
0.0175179
0.0179977
0.0179768
0.0259693
0.0420531
0.0610692
0.0816189
0.0555109
0.0534589
0.0512524
0.0485672
0.0455454
0.0420986
0.0381137
0.0335085
0.0282342
0.0223885
0.0169122
0.0152626
0.0139192
0.0137435
0.0166513
0.01925
0.0212434
0.0229174
0.0244858
0.0260686
0.0277189
0.0294498
0.0312641
0.0331472
0.035034
0.0368471
0.0385648
0.0401903
0.0417337
0.0432043
0.0446263
0.046022
0.0474441
0.0489292
0.0506772
0.052604
0.055918
0.0585335
0.0714668
0.0628152
0.0614939
0.0601246
0.0591958
0.0585431
0.0605807
0.0637236
0.0666245
0.0678267
0.0660043
0.061154
0.0579787
0.0615789
0.0584033
0.0486223
0.0442647
0.0390114
0.0375595
0.0375128
0.0393069
0.0427452
0.0472338
0.0513197
0.0556295
0.0601881
0.0649335
0.0703634
0.0761741
0.0820555
0.0839117
0.0829789
0.0855732
0.0886575
0.0909834
0.0879915
0.107515
0.114033
0.124764
0.178673
0.0639457
0.0646594
0.0655235
0.0658243
0.0657922
0.0653783
0.0644414
0.0629391
0.0609799
0.0587436
0.0561781
0.053141
0.0499452
0.0468818
0.0438966
0.0411758
0.0387328
0.0365188
0.0345174
0.0327151
0.0311172
0.02971
0.0284781
0.0273643
0.0263416
0.0254575
0.024746
0.0242041
0.0238212
0.0235853
0.0234878
0.023518
0.0236782
0.0239649
0.0245173
0.0255193
0.0273742
0.0283732
0.0274087
0.0913164
0.0900126
0.0879959
0.0859184
0.0838188
0.0810793
0.0783707
0.0742376
0.0736289
0.0755205
0.0780127
0.0809483
0.0880811
0.0956046
0.101156
0.0997349
0.0856485
0.0794187
0.0754546
0.0758075
0.0815312
0.0912704
0.100859
0.111158
0.122201
0.132773
0.14213
0.149383
0.153607
0.153304
0.150543
0.151131
0.155818
0.163322
0.171051
0.207738
0.210316
0.25488
0.375753
0.0924577
0.0931552
0.0939204
0.0942116
0.0941709
0.0937586
0.0928599
0.0914289
0.089517
0.0872117
0.0845198
0.0814994
0.0782777
0.0749363
0.0716305
0.0684403
0.0654026
0.0625064
0.0597581
0.057155
0.0547146
0.0524253
0.0502643
0.0481353
0.0459853
0.0438593
0.0417788
0.0397638
0.03783
0.0359879
0.0342517
0.0326297
0.0311968
0.029992
0.0290139
0.028454
0.0278115
0.0305298
0.0206444
0.107279
0.106244
0.104709
0.102676
0.100116
0.0978229
0.0953604
0.0915674
0.0869866
0.0816739
0.0815446
0.0858003
0.0956823
0.111566
0.12989
0.143184
0.14531
0.133955
0.121771
0.114966
0.120376
0.136307
0.153219
0.167462
0.180492
0.192228
0.201931
0.208307
0.210024
0.206674
0.202651
0.204156
0.213926
0.230605
0.252355
0.300897
0.309674
0.40272
0.595799
0.108157
0.108734
0.109304
0.109571
0.109584
0.109322
0.108698
0.107668
0.106252
0.104495
0.102423
0.100066
0.0974782
0.0946715
0.0917663
0.0888286
0.0859085
0.0830261
0.0802047
0.0774552
0.0748043
0.072252
0.0697813
0.0673029
0.0647579
0.0621945
0.05964
0.057121
0.0546601
0.0522745
0.0499859
0.0478185
0.0458009
0.0439853
0.0423896
0.0412777
0.040107
0.0425918
0.0361869
0.116986
0.116347
0.115395
0.114145
0.112449
0.109971
0.107467
0.104881
0.101288
0.0957508
0.0897478
0.0876835
0.0935416
0.110487
0.138082
0.167589
0.187688
0.192452
0.179717
0.159921
0.15821
0.175061
0.196339
0.213079
0.227916
0.24091
0.251072
0.256721
0.256395
0.251153
0.247352
0.251871
0.267783
0.293039
0.326414
0.385436
0.413899
0.562024
0.798479
0.117557
0.117941
0.118324
0.11852
0.118549
0.118385
0.117969
0.117268
0.11629
0.115043
0.113515
0.11177
0.109864
0.107754
0.105504
0.103147
0.100721
0.0982478
0.0957548
0.093256
0.0907788
0.0883293
0.0858992
0.0834121
0.0808143
0.0781484
0.075444
0.0727309
0.0700365
0.0673852
0.0648055
0.0623327
0.0600026
0.0578811
0.0559972
0.0546538
0.0533665
0.055639
0.0515547
0.123527
0.123355
0.122856
0.121971
0.1209
0.119583
0.11772
0.115324
0.112409
0.108495
0.102679
0.0956635
0.0930176
0.102557
0.129972
0.171791
0.211897
0.235516
0.236302
0.215741
0.198593
0.206897
0.230996
0.251074
0.268245
0.282803
0.2935
0.298596
0.296898
0.291297
0.289247
0.297858
0.319578
0.351696
0.393937
0.46378
0.523427
0.726568
0.975524
0.123777
0.123896
0.12411
0.124206
0.124225
0.124106
0.1238
0.123288
0.12258
0.121681
0.12057
0.119275
0.117877
0.116337
0.114676
0.1129
0.111026
0.109069
0.107047
0.104972
0.102862
0.100724
0.0985529
0.0962866
0.0938768
0.0913567
0.088753
0.0860938
0.0834063
0.0807183
0.0780622
0.0754799
0.0730145
0.0707443
0.0687084
0.0672329
0.0659047
0.0679191
0.0656521
0.128869
0.128984
0.128919
0.128618
0.128092
0.127241
0.12593
0.124028
0.121411
0.118184
0.113967
0.107586
0.0996348
0.0982516
0.115485
0.158342
0.215696
0.262148
0.281713
0.273738
0.247637
0.241821
0.260852
0.284706
0.304668
0.321109
0.33252
0.337359
0.335214
0.33056
0.331277
0.344166
0.370731
0.407923
0.457114
0.539112
0.636133
0.887872
1.1282
0.128857
0.128674
0.128612
0.128492
0.128417
0.128266
0.127969
0.127515
0.126925
0.126207
0.125337
0.12436
0.123303
0.122155
0.120922
0.119593
0.118173
0.116668
0.115091
0.113445
0.111741
0.109979
0.108154
0.106216
0.104123
0.101895
0.0995544
0.0971212
0.0946193
0.092075
0.0895204
0.0869992
0.0845582
0.0822828
0.0802194
0.0787044
0.0773926
0.0791601
0.0782149
0.13255
0.132609
0.132584
0.132411
0.132091
0.131603
0.130877
0.129788
0.128075
0.125569
0.12232
0.11787
0.110694
0.102104
0.105079
0.136359
0.199412
0.269022
0.312981
0.322358
0.307035
0.286829
0.292284
0.316271
0.339638
0.358048
0.370523
0.375597
0.374095
0.371366
0.375358
0.392215
0.422513
0.463379
0.518654
0.613862
0.749194
1.03495
1.25878
0.132654
0.132615
0.132531
0.132235
0.131987
0.131717
0.131339
0.130843
0.130249
0.129583
0.128836
0.12805
0.127227
0.126343
0.125392
0.124369
0.123272
0.122104
0.120874
0.119582
0.11823
0.116814
0.115328
0.11373
0.111985
0.110104
0.108097
0.10598
0.103769
0.101485
0.0991563
0.0968241
0.0945342
0.0923729
0.09039
0.0889198
0.0876737
0.0892319
0.0891229
0.134992
0.134987
0.134964
0.134854
0.134659
0.134353
0.133903
0.133263
0.132294
0.13074
0.128383
0.125196
0.120455
0.112029
0.104209
0.117168
0.1703
0.253794
0.326129
0.359207
0.358436
0.343156
0.334906
0.350439
0.374508
0.395475
0.409349
0.415278
0.415352
0.415274
0.422789
0.443179
0.476337
0.52034
0.582305
0.690456
0.860099
1.16196
1.36934
0.135184
0.135293
0.13537
0.135248
0.135022
0.13466
0.134187
0.133597
0.132925
0.132244
0.131576
0.130918
0.130243
0.129527
0.128764
0.127947
0.127076
0.12615
0.125171
0.12414
0.123057
0.121918
0.120715
0.119415
0.117989
0.116439
0.114769
0.112988
0.111105
0.109135
0.107099
0.105032
0.102977
0.101013
0.0991905
0.0978306
0.096683
0.0979988
0.098352
0.136539
0.136502
0.136478
0.136403
0.136279
0.136083
0.135804
0.135412
0.134846
0.133983
0.132547
0.130301
0.127192
0.121732
0.111833
0.108596
0.140316
0.220645
0.316919
0.380774
0.40071
0.397154
0.38734
0.396442
0.413755
0.434296
0.45012
0.457891
0.460073
0.463257
0.474521
0.498314
0.534197
0.582204
0.653298
0.770384
0.966953
1.26844
1.46165
0.13675
0.136909
0.137061
0.137091
0.137051
0.136856
0.136437
0.135815
0.135054
0.134366
0.133783
0.133237
0.13268
0.132086
0.13145
0.130771
0.130048
0.129283
0.128477
0.12763
0.126741
0.125808
0.124821
0.123756
0.122588
0.121316
0.119941
0.118466
0.116894
0.115236
0.113505
0.11173
0.109944
0.108221
0.106606
0.105387
0.104375
0.105438
0.106002
0.137529
0.137486
0.137468
0.137421
0.137346
0.137223
0.137053
0.136809
0.136458
0.135956
0.135168
0.133787
0.131648
0.128455
0.121524
0.111099
0.119899
0.180349
0.285676
0.381822
0.430916
0.444357
0.447483
0.451344
0.464808
0.479406
0.493656
0.503507
0.5091
0.516244
0.531718
0.559059
0.59902
0.656103
0.733081
0.851851
1.06814
1.35638
1.53734
0.137716
0.137864
0.13801
0.138077
0.138117
0.138076
0.137885
0.137442
0.136679
0.136033
0.135561
0.135133
0.134687
0.1342
0.133669
0.133093
0.132477
0.131822
0.131134
0.130411
0.129655
0.128864
0.128031
0.127135
0.126159
0.125102
0.123961
0.122738
0.121433
0.12005
0.118599
0.117101
0.115583
0.114106
0.112711
0.111647
0.110769
0.111611
0.112261
0.138184
0.138146
0.138136
0.13811
0.138068
0.137995
0.13789
0.137744
0.137528
0.137218
0.13677
0.136016
0.134655
0.13262
0.128877
0.119629
0.112853
0.145206
0.239827
0.35946
0.444456
0.481906
0.499141
0.513017
0.524109
0.536422
0.545994
0.552763
0.562773
0.57465
0.595227
0.627823
0.679705
0.745129
0.819028
0.932404
1.1596
1.42838
1.59789
0.138339
0.138459
0.138578
0.138636
0.138682
0.138687
0.138618
0.138409
0.137877
0.137331
0.136987
0.136676
0.136336
0.135948
0.13551
0.135026
0.134499
0.133934
0.133335
0.132705
0.132045
0.131354
0.130628
0.129852
0.129013
0.128112
0.127147
0.126116
0.125021
0.123862
0.122645
0.121387
0.120108
0.118857
0.117669
0.116759
0.115991
0.116678
0.117372
0.138638
0.138608
0.138607
0.138596
0.138576
0.138538
0.138474
0.138388
0.138259
0.138069
0.137796
0.137385
0.136627
0.135287
0.133276
0.127954
0.116807
0.12373
0.191509
0.316456
0.436387
0.507016
0.541875
0.568198
0.589142
0.601431
0.610148
0.616225
0.624856
0.640776
0.670016
0.716375
0.779518
0.846787
0.910973
1.01136
1.23642
1.48699
1.64468
0.138763
0.138857
0.138952
0.138999
0.139041
0.139056
0.139025
0.13892
0.13867
0.138323
0.138104
0.137902
0.137661
0.137372
0.137025
0.136624
0.136178
0.135693
0.135174
0.134623
0.134042
0.133432
0.132789
0.132104
0.131367
0.13058
0.129743
0.128856
0.127918
0.126931
0.125899
0.124834
0.123752
0.122693
0.121683
0.120912
0.120216
0.120869
0.121581
0.138963
0.138942
0.138948
0.138949
0.138944
0.138929
0.138895
0.138849
0.138776
0.138664
0.138497
0.138254
0.137859
0.137064
0.135801
0.133376
0.125053
0.116722
0.152067
0.261601
0.405101
0.51497
0.575138
0.614706
0.647979
0.671147
0.681845
0.690049
0.701814
0.72454
0.764414
0.823996
0.896532
0.96183
1.01019
1.08969
1.29968
1.53454
1.67893
0.139064
0.139139
0.139216
0.139257
0.139299
0.139323
0.139309
0.139233
0.139098
0.138968
0.138865
0.138763
0.138629
0.138449
0.138202
0.137896
0.137541
0.137142
0.1367
0.136224
0.135718
0.135183
0.134617
0.134011
0.13336
0.132664
0.131927
0.131148
0.130329
0.129471
0.12858
0.127663
0.126736
0.12583
0.124966
0.124314
0.123661
0.124452
0.125116
0.139202
0.139189
0.1392
0.139209
0.139214
0.139215
0.139202
0.139184
0.13915
0.139091
0.138995
0.138848
0.13863
0.138217
0.137395
0.136239
0.132127
0.120717
0.128408
0.206805
0.354268
0.50139
0.596621
0.652985
0.697978
0.733916
0.757312
0.770618
0.789411
0.822073
0.875108
0.949004
1.03081
1.09138
1.11881
1.16928
1.35363
1.57304
1.70174
0.139284
0.139346
0.139412
0.139449
0.139491
0.139522
0.139524
0.139462
0.139362
0.139299
0.139249
0.139198
0.139134
0.139053
0.13894
0.138784
0.138565
0.138276
0.137927
0.137541
0.137119
0.136663
0.136174
0.135647
0.135078
0.134468
0.13382
0.133134
0.132412
0.131657
0.130874
0.130073
0.129265
0.128481
0.127734
0.127189
0.126596
0.127598
0.128163
0.139381
0.139373
0.139387
0.139401
0.139414
0.139426
0.139428
0.139427
0.139419
0.139397
0.139353
0.139273
0.139147
0.138944
0.138474
0.137743
0.136271
0.128369
0.120336
0.162592
0.292476
0.464836
0.601757
0.682926
0.740129
0.787876
0.825026
0.85367
0.884786
0.930631
0.999819
1.09032
1.18262
1.23631
1.23935
1.25231
1.40221
1.60418
1.71338
0.13945
0.139503
0.139562
0.139595
0.139634
0.139667
0.139679
0.139638
0.139566
0.139522
0.139488
0.139454
0.139412
0.139363
0.139301
0.139225
0.139125
0.138992
0.138805
0.138556
0.138243
0.137884
0.13749
0.137057
0.136582
0.136065
0.135509
0.134915
0.134286
0.133626
0.132939
0.132238
0.131534
0.130857
0.130222
0.129797
0.129321
0.130416
0.130883
0.139516
0.139511
0.139526
0.139543
0.13956
0.139579
0.139593
0.139603
0.139611
0.139614
0.139606
0.139577
0.139514
0.139413
0.139191
0.138688
0.138175
0.134668
0.12325
0.134967
0.230851
0.408335
0.585868
0.702497
0.775126
0.834076
0.883984
0.927595
0.974521
1.03692
1.12297
1.22977
1.33584
1.39641
1.37305
1.3408
1.44817
1.62832
1.7146
0.139577
0.139624
0.139676
0.139705
0.13974
0.13977
0.139786
0.139765
0.139719
0.139688
0.139666
0.139643
0.139616
0.139582
0.139539
0.139487
0.139424
0.139348
0.139255
0.139137
0.138981
0.13878
0.138525
0.138218
0.137863
0.137463
0.137022
0.136542
0.136025
0.135474
0.134898
0.134307
0.133717
0.13316
0.132655
0.132383
0.132061
0.13308
0.13334
0.139619
0.139614
0.139629
0.139647
0.139667
0.13969
0.139711
0.13973
0.13975
0.139769
0.139784
0.139789
0.139775
0.139732
0.139648
0.139364
0.139027
0.13815
0.130139
0.123639
0.179495
0.33938
0.546355
0.707083
0.802978
0.873434
0.935149
0.992691
1.05518
1.13436
1.23775
1.36157
1.48275
1.55292
1.52129
1.43629
1.49316
1.64552
1.70893
0.139672
0.139714
0.139759
0.139784
0.139815
0.139842
0.139858
0.139852
0.139826
0.139809
0.139797
0.139785
0.139769
0.139748
0.13972
0.139684
0.139639
0.139585
0.13952
0.139445
0.139358
0.139254
0.139125
0.138965
0.138768
0.13853
0.138248
0.137923
0.137557
0.137155
0.136723
0.136275
0.135828
0.13541
0.135043
0.134879
0.134694
0.135446
0.135401
0.139695
0.139691
0.139707
0.139725
0.139747
0.139772
0.139797
0.139821
0.139851
0.139881
0.13991
0.139938
0.139956
0.139956
0.13994
0.139835
0.13955
0.139531
0.136077
0.124426
0.144933
0.268475
0.484587
0.690943
0.821895
0.90646
0.979359
1.04989
1.12736
1.22314
1.34424
1.48608
1.624
1.70576
1.67147
1.53982
1.53816
1.65601
1.69774
0.139742
0.139777
0.139816
0.139838
0.139867
0.139894
0.139911
0.139914
0.139907
0.139903
0.139901
0.139897
0.139889
0.139877
0.139859
0.139835
0.139804
0.139765
0.139718
0.139663
0.1396
0.139529
0.139448
0.139356
0.139249
0.139122
0.138972
0.138795
0.138587
0.138348
0.138082
0.137794
0.137498
0.137213
0.136959
0.136831
0.136711
0.137215
0.136928
0.139753
0.139751
0.139768
0.139787
0.13981
0.139836
0.139864
0.139891
0.139924
0.13996
0.14
0.140042
0.140081
0.140113
0.140133
0.140134
0.139967
0.139968
0.139387
0.130463
0.127935
0.206273
0.406653
0.649467
0.827072
0.933175
1.0172
1.09987
1.19166
1.3038
1.44294
1.60386
1.76031
1.85581
1.82067
1.65205
1.58389
1.66009
1.68173
0.139792
0.139819
0.139852
0.139873
0.139906
0.13994
0.13996
0.139967
0.139974
0.139982
0.139988
0.139991
0.139989
0.139983
0.139972
0.139956
0.139934
0.139906
0.139873
0.139832
0.139785
0.139732
0.139672
0.139606
0.139534
0.139453
0.139364
0.139264
0.139149
0.139018
0.13887
0.138706
0.138531
0.138358
0.138198
0.138109
0.138018
0.138361
0.137968
0.139797
0.139799
0.139818
0.139839
0.139863
0.13989
0.139919
0.139948
0.139981
0.140019
0.140063
0.140112
0.140165
0.140219
0.140265
0.140315
0.140283
0.140184
0.140573
0.13643
0.125098
0.160888
0.322827
0.581626
0.811351
0.952018
1.04898
1.14302
1.24844
1.37662
1.53406
1.71505
1.89182
2.0035
1.97083
1.77232
1.63119
1.6583
1.66194
0.139827
0.139847
0.139876
0.1399
0.13994
0.139987
0.140017
0.140025
0.140037
0.140051
0.140064
0.140072
0.140075
0.140075
0.140069
0.140059
0.140043
0.140023
0.139997
0.139967
0.139932
0.139891
0.139846
0.139796
0.139742
0.139684
0.139621
0.139554
0.139482
0.139403
0.139316
0.139223
0.139124
0.139026
0.138933
0.138883
0.138821
0.139064
0.138721
0.139831
0.139838
0.139861
0.139885
0.13991
0.139939
0.139969
0.139999
0.140031
0.140067
0.140109
0.14016
0.140219
0.140285
0.140353
0.140424
0.140484
0.140404
0.140754
0.140028
0.129743
0.135123
0.245273
0.491974
0.767539
0.957923
1.07479
1.17962
1.2978
1.44159
1.61743
1.81933
2.01807
2.14851
2.12171
1.90077
1.6813
1.6515
1.64035
0.139852
0.139869
0.139898
0.139927
0.139977
0.140039
0.140081
0.140088
0.1401
0.140115
0.14013
0.140142
0.14015
0.140154
0.140153
0.140147
0.140137
0.140122
0.140103
0.140079
0.140051
0.14002
0.139985
0.139947
0.139906
0.139862
0.139816
0.139767
0.139716
0.139662
0.139606
0.139549
0.13949
0.139434
0.139382
0.139359
0.139325
0.139498
0.13934
0.139859
0.139871
0.139898
0.139926
0.139954
0.139985
0.140015
0.140046
0.140078
0.140113
0.140152
0.140199
0.140255
0.140325
0.140404
0.14049
0.140592
0.140607
0.14072
0.141354
0.135812
0.126584
0.184738
0.391163
0.691887
0.942176
1.09329
1.20981
1.33973
1.49845
1.69262
1.916
2.13815
2.28995
2.27268
2.0373
1.73604
1.64112
1.61941
0.139876
0.139892
0.139924
0.139958
0.140016
0.140089
0.14014
0.140148
0.140157
0.140171
0.140187
0.140201
0.140213
0.140221
0.140224
0.140223
0.140217
0.140207
0.140193
0.140174
0.140152
0.140127
0.140099
0.14007
0.140038
0.140004
0.139968
0.139932
0.139895
0.139857
0.139818
0.13978
0.139744
0.139711
0.139683
0.139677
0.139665
0.139785
0.139754
0.139886
0.139902
0.139933
0.139964
0.139995
0.140028
0.14006
0.140092
0.140124
0.140159
0.140196
0.140238
0.140289
0.140352
0.140432
0.140525
0.140641
0.140742
0.140757
0.141453
0.140011
0.128794
0.146778
0.293826
0.58744
0.894768
1.09906
1.23379
1.37415
1.54682
1.75891
2.00408
2.25075
2.42638
2.4223
2.17245
1.79729
1.6291
1.60086
0.139902
0.139921
0.139954
0.13999
0.140049
0.140124
0.140178
0.140192
0.140201
0.140215
0.140231
0.140247
0.140262
0.140273
0.14028
0.140283
0.140282
0.140276
0.140267
0.140253
0.140236
0.140216
0.140194
0.14017
0.140144
0.140118
0.14009
0.140063
0.140035
0.140008
0.139981
0.139956
0.139933
0.139914
0.139901
0.139905
0.139908
0.140001
0.140005
0.139918
0.139936
0.13997
0.140004
0.140037
0.140072
0.140106
0.140138
0.14017
0.140205
0.140241
0.14028
0.140325
0.14038
0.140451
0.140542
0.140656
0.140799
0.140854
0.141228
0.141787
0.134622
0.130263
0.214332
0.465802
0.808953
1.08175
1.25035
1.4011
1.58624
1.81549
2.08233
2.35434
2.55595
2.56962
2.31004
1.86722
1.61791
1.58459
0.139935
0.139955
0.139986
0.140017
0.14007
0.140139
0.140189
0.14021
0.140226
0.140242
0.140259
0.140277
0.140294
0.140308
0.140319
0.140326
0.140329
0.140328
0.140323
0.140314
0.140302
0.140287
0.140269
0.14025
0.14023
0.140209
0.140187
0.140166
0.140146
0.140126
0.140108
0.140091
0.140078
0.140069
0.140065
0.140075
0.140088
0.140168
0.140184
0.139958
0.139977
0.140013
0.14005
0.140085
0.140121
0.140155
0.140188
0.140219
0.140252
0.140287
0.140324
0.140364
0.140412
0.140472
0.140552
0.140658
0.140805
0.140931
0.141085
0.142011
0.139443
0.128754
0.16162
0.345189
0.686601
1.02843
1.25349
1.42082
1.61634
1.86142
2.14944
2.44723
2.67686
2.71346
2.45187
1.94923
1.61071
1.56832
0.139975
0.139991
0.140016
0.140038
0.14008
0.140137
0.140179
0.140206
0.140229
0.140251
0.140271
0.140291
0.14031
0.140327
0.140341
0.140352
0.140359
0.140362
0.140361
0.140357
0.140349
0.140339
0.140326
0.140311
0.140296
0.140279
0.140263
0.140247
0.140231
0.140218
0.140205
0.140196
0.140189
0.140187
0.14019
0.140205
0.140222
0.140296
0.140321
0.140005
0.140026
0.140065
0.140103
0.14014
0.140178
0.140212
0.140244
0.140274
0.140305
0.140336
0.140369
0.140405
0.140447
0.140498
0.140566
0.140658
0.140789
0.140953
0.141063
0.141694
0.14182
0.133678
0.135826
0.244503
0.541046
0.929407
1.23126
1.43193
1.63696
1.89585
2.20402
2.52768
2.78739
2.85231
2.59876
2.04501
1.61151
1.54835
0.140018
0.140027
0.140043
0.140055
0.140085
0.140128
0.140163
0.140191
0.14022
0.140247
0.140271
0.140294
0.140314
0.140333
0.140349
0.140363
0.140373
0.14038
0.140383
0.140383
0.140379
0.140373
0.140364
0.140354
0.140342
0.14033
0.140318
0.140306
0.140295
0.140286
0.140279
0.140274
0.140273
0.140276
0.140284
0.140302
0.140324
0.140392
0.140424
0.140055
0.14008
0.140121
0.140163
0.140202
0.14024
0.140275
0.140307
0.140336
0.140364
0.140392
0.14042
0.14045
0.140485
0.140528
0.140584
0.140661
0.140772
0.140934
0.141079
0.141401
0.142327
0.138798
0.129989
0.176265
0.394898
0.785725
1.16768
1.42787
1.64823
1.91806
2.24474
2.59393
2.88558
2.98447
2.74969
2.15873
1.62579
1.52104
0.140061
0.140063
0.140071
0.140075
0.140091
0.140121
0.140151
0.140178
0.140209
0.140239
0.140266
0.14029
0.140312
0.140332
0.140349
0.140364
0.140376
0.140385
0.140391
0.140394
0.140394
0.140391
0.140386
0.140379
0.140372
0.140363
0.140355
0.140347
0.14034
0.140335
0.140332
0.140332
0.140334
0.140341
0.140353
0.140375
0.140401
0.140465
0.140502
0.140103
0.140132
0.140177
0.140222
0.140263
0.140303
0.14034
0.140372
0.140402
0.140429
0.140454
0.140478
0.140502
0.14053
0.140564
0.140608
0.14067
0.140761
0.140899
0.141071
0.14126
0.142037
0.141642
0.1336
0.141464
0.272254
0.613248
1.0504
1.39468
1.64839
1.92749
2.27035
2.64428
2.96938
3.10805
2.90405
2.30317
1.6615
1.48477
0.140102
0.140099
0.140102
0.140096
0.140099
0.140117
0.140148
0.140173
0.140202
0.140233
0.140261
0.140286
0.140308
0.140328
0.140345
0.14036
0.140373
0.140384
0.140391
0.140396
0.140398
0.140398
0.140396
0.140392
0.140387
0.140382
0.140377
0.140373
0.140369
0.140368
0.140368
0.140371
0.140378
0.140388
0.140404
0.140429
0.140458
0.14052
0.140561
0.140146
0.14018
0.140227
0.140273
0.140316
0.140358
0.140397
0.140431
0.140463
0.140491
0.140517
0.140541
0.140562
0.140584
0.140609
0.140642
0.140689
0.140759
0.140869
0.141035
0.141207
0.141662
0.142416
0.138624
0.131729
0.188973
0.439867
0.880249
1.31338
1.62989
1.92416
2.27959
2.67702
3.0366
3.22059
3.05984
2.47149
1.72895
1.44269
0.140141
0.140135
0.140133
0.140117
0.140106
0.140114
0.140147
0.140173
0.140201
0.14023
0.140258
0.140283
0.140304
0.140323
0.14034
0.140355
0.140368
0.140378
0.140387
0.140393
0.140396
0.140397
0.140397
0.140395
0.140393
0.14039
0.140388
0.140386
0.140386
0.140387
0.140391
0.140397
0.140407
0.140421
0.14044
0.140468
0.140499
0.140561
0.140606
0.140185
0.140219
0.140267
0.140313
0.140356
0.1404
0.140439
0.140476
0.140511
0.140541
0.140572
0.140599
0.140621
0.140641
0.140662
0.140686
0.140719
0.14077
0.140852
0.140989
0.141165
0.141433
0.142201
0.141601
0.134154
0.146259
0.295275
0.676839
1.16935
1.57632
1.90572
2.27172
2.69049
3.08495
3.31904
3.21386
2.65769
1.83963
1.40728
0.140177
0.140169
0.140158
0.14013
0.140109
0.140111
0.140144
0.140173
0.140201
0.140229
0.140256
0.14028
0.140301
0.140319
0.140336
0.14035
0.140362
0.140372
0.14038
0.140386
0.14039
0.140392
0.140393
0.140393
0.140392
0.140391
0.140391
0.140391
0.140393
0.140397
0.140404
0.140413
0.140426
0.140443
0.140465
0.140495
0.14053
0.140592
0.140641
0.140218
0.140251
0.140296
0.140341
0.140383
0.140425
0.140465
0.140503
0.140541
0.140575
0.14061
0.140643
0.140671
0.140695
0.140715
0.140736
0.140761
0.140796
0.140853
0.140953
0.141113
0.141316
0.14181
0.142443
0.138899
0.133452
0.198332
0.47455
0.964644
1.46548
1.86268
2.24635
2.6825
3.11208
3.40005
3.36291
2.86229
2.00534
1.40572
0.140208
0.140194
0.140172
0.140136
0.14011
0.140109
0.140139
0.140169
0.140198
0.140226
0.140252
0.140275
0.140296
0.140314
0.14033
0.140343
0.140355
0.140365
0.140372
0.140378
0.140382
0.140385
0.140386
0.140386
0.140387
0.140387
0.140388
0.140391
0.140394
0.1404
0.140409
0.140421
0.140436
0.140456
0.140481
0.140515
0.140553
0.140616
0.140669
0.140243
0.140275
0.140317
0.140359
0.140398
0.140438
0.140477
0.140515
0.140554
0.14059
0.140628
0.140666
0.140702
0.140734
0.14076
0.140783
0.140806
0.140833
0.140872
0.14094
0.141062
0.14124
0.14154
0.142238
0.141737
0.134978
0.149483
0.309193
0.724604
1.28145
1.77496
2.1997
2.65208
3.11525
3.45989
3.50306
3.08144
2.23718
1.47817
0.140229
0.140206
0.140176
0.140137
0.140111
0.140109
0.140134
0.140163
0.140193
0.140221
0.140247
0.140269
0.140289
0.140307
0.140322
0.140335
0.140346
0.140356
0.140363
0.140369
0.140372
0.140375
0.140376
0.140377
0.140378
0.14038
0.140382
0.140385
0.140391
0.140399
0.140409
0.140424
0.140442
0.140464
0.140492
0.140529
0.14057
0.140635
0.140691
0.14026
0.140291
0.14033
0.140369
0.140406
0.140444
0.140481
0.140517
0.140555
0.140592
0.140631
0.140672
0.140713
0.140753
0.140788
0.140819
0.140845
0.140871
0.140902
0.140948
0.141032
0.141175
0.141389
0.141842
0.142461
0.139362
0.134869
0.201747
0.492185
1.03003
1.61684
2.11842
2.59742
3.0908
3.49419
3.62659
3.3076
2.52612
1.66121
0.140238
0.140209
0.140176
0.140139
0.140115
0.140111
0.140131
0.140159
0.140188
0.140215
0.14024
0.140262
0.140281
0.140298
0.140313
0.140325
0.140336
0.140345
0.140352
0.140357
0.140361
0.140363
0.140364
0.140366
0.140367
0.140369
0.140372
0.140377
0.140384
0.140394
0.140406
0.140423
0.140443
0.140469
0.1405
0.140539
0.140584
0.140651
0.14071
0.140266
0.140298
0.140336
0.140373
0.140408
0.140444
0.140479
0.140514
0.14055
0.140587
0.140625
0.140666
0.140709
0.140754
0.140798
0.140838
0.140872
0.140902
0.140932
0.140968
0.141024
0.141126
0.141292
0.141567
0.142196
0.141905
0.135936
0.150112
0.309577
0.746392
1.37318
1.97662
2.51101
3.03624
3.49774
3.72492
3.5318
2.85502
1.96854
0.14024
0.140209
0.140178
0.140145
0.140122
0.140114
0.140132
0.140157
0.140184
0.140211
0.140235
0.140256
0.140274
0.140289
0.140303
0.140314
0.140324
0.140332
0.140339
0.140344
0.140347
0.140349
0.140351
0.140352
0.140354
0.140357
0.140361
0.140367
0.140375
0.140387
0.140401
0.14042
0.140443
0.140472
0.140506
0.140548
0.140596
0.140665
0.140727
0.140267
0.1403
0.140338
0.140373
0.140407
0.140441
0.140475
0.140508
0.140543
0.140578
0.140615
0.140654
0.140697
0.140743
0.140792
0.14084
0.140884
0.140923
0.140957
0.14099
0.141032
0.1411
0.141222
0.141411
0.141795
0.142427
0.139923
0.135713
0.197506
0.485006
1.05936
1.7452
2.37187
2.94531
3.46379
3.78884
3.73552
3.20451
2.37622
0.14024
0.140212
0.140185
0.140155
0.14013
0.140118
0.140133
0.140157
0.140183
0.140208
0.140231
0.14025
0.140266
0.14028
0.140292
0.140303
0.140312
0.140319
0.140325
0.140329
0.140332
0.140334
0.140336
0.140337
0.14034
0.140343
0.140348
0.140355
0.140365
0.140379
0.140396
0.140417
0.140443
0.140475
0.140512
0.140557
0.140608
0.140679
0.140743
0.140267
0.1403
0.140336
0.140371
0.140404
0.140437
0.140469
0.140502
0.140535
0.140569
0.140604
0.140642
0.140682
0.140727
0.140775
0.140828
0.14088
0.140929
0.140971
0.141009
0.141046
0.141094
0.141175
0.141312
0.141534
0.142093
0.142055
0.13696
0.148043
0.293164
0.727529
1.41605
2.14562
2.80188
3.38478
3.80827
3.89995
3.53931
2.82327
0.140242
0.140218
0.140194
0.140164
0.140138
0.140122
0.140135
0.140157
0.140182
0.140206
0.140227
0.140245
0.140259
0.140272
0.140282
0.140292
0.140299
0.140306
0.140311
0.140314
0.140317
0.140319
0.14032
0.140322
0.140325
0.140329
0.140336
0.140345
0.140357
0.140373
0.140392
0.140417
0.140446
0.14048
0.140521
0.140569
0.140623
0.140696
0.140761
0.140268
0.140299
0.140335
0.140368
0.1404
0.140432
0.140464
0.140495
0.140527
0.14056
0.140594
0.14063
0.140668
0.14071
0.140755
0.140806
0.140862
0.140919
0.140972
0.141018
0.141059
0.141099
0.141152
0.141245
0.14139
0.141702
0.142336
0.140526
0.136201
0.185799
0.446005
1.02623
1.80468
2.57155
3.24344
3.77004
4.00892
3.82937
3.25974
0.140246
0.140225
0.140202
0.140171
0.140143
0.140126
0.140137
0.140158
0.140181
0.140204
0.140223
0.140239
0.140252
0.140263
0.140273
0.14028
0.140287
0.140292
0.140297
0.1403
0.140302
0.140304
0.140306
0.140308
0.140312
0.140318
0.140326
0.140337
0.140352
0.14037
0.140393
0.14042
0.140452
0.14049
0.140534
0.140584
0.140641
0.140714
0.14078
0.140271
0.1403
0.140334
0.140366
0.140396
0.140427
0.140458
0.140489
0.14052
0.140552
0.140584
0.140619
0.140655
0.140694
0.140735
0.140782
0.140835
0.140895
0.140956
0.141013
0.141062
0.141105
0.141146
0.141204
0.141302
0.141469
0.141946
0.142146
0.138074
0.144327
0.260327
0.654065
1.36512
2.21393
3.00634
3.65216
4.04506
4.0523
3.65056
0.140251
0.140231
0.140207
0.140176
0.140148
0.140129
0.140138
0.140157
0.140179
0.1402
0.140217
0.140232
0.140244
0.140254
0.140262
0.140269
0.140275
0.14028
0.140284
0.140286
0.140289
0.140291
0.140293
0.140296
0.140302
0.14031
0.14032
0.140334
0.140352
0.140373
0.140399
0.14043
0.140465
0.140506
0.140552
0.140605
0.140663
0.140736
0.140801
0.140274
0.140301
0.140333
0.140364
0.140393
0.140424
0.140453
0.140483
0.140513
0.140544
0.140576
0.140609
0.140643
0.140679
0.140716
0.140758
0.140806
0.140862
0.140925
0.14099
0.14105
0.141102
0.141144
0.141185
0.141246
0.141349
0.141586
0.142179
0.141078
0.136823
0.169668
0.375932
0.905035
1.72525
2.62534
3.4159
3.97841
4.18502
3.96939
0.140255
0.140234
0.14021
0.140179
0.14015
0.140131
0.140137
0.140155
0.140175
0.140194
0.14021
0.140223
0.140234
0.140243
0.140251
0.140257
0.140263
0.140267
0.140271
0.140274
0.140277
0.14028
0.140283
0.140288
0.140296
0.140306
0.14032
0.140337
0.140358
0.140384
0.140413
0.140447
0.140486
0.140529
0.140577
0.140631
0.140689
0.14076
0.140823
0.140275
0.140302
0.140333
0.140363
0.140391
0.140421
0.14045
0.140479
0.140508
0.140538
0.140568
0.1406
0.140632
0.140666
0.140701
0.140738
0.14078
0.140829
0.140887
0.140953
0.14102
0.141082
0.141134
0.141173
0.141213
0.14128
0.141394
0.14177
0.14212
0.139252
0.14087
0.218383
0.527344
1.17877
2.08251
3.0083
3.75662
4.18887
4.18787
0.140256
0.140235
0.14021
0.140179
0.14015
0.140129
0.140134
0.140151
0.14017
0.140187
0.140201
0.140213
0.140223
0.140231
0.140239
0.140245
0.140251
0.140256
0.14026
0.140264
0.140268
0.140272
0.140277
0.140285
0.140296
0.14031
0.140327
0.140348
0.140373
0.140402
0.140435
0.140472
0.140513
0.140558
0.140607
0.140661
0.140717
0.140786
0.140846
0.140276
0.140302
0.140332
0.140362
0.14039
0.140419
0.140448
0.140476
0.140505
0.140533
0.140563
0.140593
0.140624
0.140655
0.140688
0.140723
0.14076
0.140802
0.140851
0.140911
0.140978
0.141046
0.141107
0.141154
0.14119
0.141235
0.141302
0.141467
0.141955
0.141476
0.13793
0.154625
0.290338
0.699787
1.44901
2.40521
3.32208
3.99004
4.25359
0.140256
0.140234
0.14021
0.140179
0.140148
0.140123
0.140129
0.140145
0.140163
0.140179
0.140192
0.140203
0.140212
0.14022
0.140227
0.140234
0.14024
0.140245
0.140251
0.140256
0.140261
0.140268
0.140276
0.140287
0.140302
0.14032
0.140342
0.140367
0.140396
0.140429
0.140465
0.140505
0.140547
0.140593
0.140642
0.140694
0.140748
0.140814
0.14087
0.140275
0.140301
0.140332
0.140362
0.14039
0.140419
0.140448
0.140476
0.140504
0.140531
0.140559
0.140588
0.140618
0.140648
0.140679
0.140711
0.140745
0.140782
0.140823