/*--------------------------------*- C++ -*----------------------------------*\
  =========                 |
  \\      /  F ield         | OpenFOAM: The Open Source CFD Toolbox
   \\    /   O peration     | Website:  https://openfoam.org
    \\  /    A nd           | Version:  9
     \\/     M anipulation  |
\*---------------------------------------------------------------------------*/
FoamFile
{
    format      ascii;
    class       volScalarField;
    location    "340";
    object      p;
}
// * * * * * * * * * * * * * * * * * * * * * * * * * * * * * * * * * * * * * //

dimensions      [0 2 -2 0 0 0 0];

internalField   nonuniform List<scalar> 
10720
(
-21.9476
-24.1582
-26.2619
-26.1577
-22.9315
-18.4399
-12.7449
-7.42464
-4.37384
-3.61356
-3.68603
-3.56166
-3.19749
-2.95653
-2.82994
-2.90122
-3.08317
-3.12856
-2.88965
-2.53817
-2.36575
-2.52589
-3.05595
-4.00376
-5.44042
-7.459
-10.1555
-13.5427
-17.4184
-21.35
-24.8342
-28.2184
-32.275
-37.8122
-45.0241
-53.6347
-86.5319
-114.217
-206.22
-16.5081
-11.188
-2.03376
8.77937
20.463
32.3602
43.6367
53.1269
60.1464
64.7777
67.2732
68.1042
67.7831
66.4951
64.2676
61.4954
58.5562
55.5065
52.248
48.722
44.9686
40.9895
36.7711
32.3116
27.8061
23.4241
19.0919
14.7696
10.4447
6.10689
1.69271
-2.87195
-7.71202
-13.0618
-19.1684
-26.9173
-36.6496
-54.02
-84.7384
9.11004
5.16752
1.65578
-0.00355917
-0.00664176
0.718354
1.34997
0.874567
-1.05083
-2.80175
-2.88273
-2.69786
-2.78834
-2.75344
-2.66838
-2.73466
-2.95506
-3.07658
-2.91636
-2.60764
-2.44024
-2.59618
-3.12187
-4.05977
-5.48433
-7.49014
-10.1735
-13.5464
-17.4055
-21.3174
-24.7776
-28.1468
-32.2202
-37.8061
-45.0954
-53.8
-86.6905
-114.361
-209.279
12.9536
17.0789
21.9949
28.0652
34.8813
42.1271
49.2923
55.6882
60.7956
64.4133
66.5473
67.3891
67.161
65.962
63.9168
61.3528
58.5567
55.5856
52.3812
48.9116
45.2102
41.2854
37.1292
32.7494
28.3004
23.9262
19.5838
15.2416
10.8909
6.52205
2.07428
-2.52497
-7.39775
-12.776
-18.9042
-26.6599
-36.3745
-53.7222
-82.4526
11.9816
8.88974
6.27621
4.05044
2.56605
1.8631
1.77716
1.93371
1.60693
0.529741
-0.687107
-1.82
-2.32239
-2.46742
-2.46529
-2.55052
-2.81422
-3.02195
-2.95569
-2.70315
-2.54743
-2.68952
-3.19964
-4.12345
-5.53414
-7.52684
-10.197
-13.5516
-17.3861
-21.2738
-24.7134
-28.0764
-32.1749
-37.8205
-45.2325
-54.0105
-86.9965
-114.838
-212.322
15.3667
19.6723
25.0085
31.1136
37.5821
44.1839
50.4825
55.9883
60.3925
63.5689
65.5212
66.3675
66.2434
65.212
63.3886
61.0288
58.3579
55.4549
52.3068
48.8997
45.255
41.3834
37.282
32.9636
28.5516
24.1787
19.8318
15.4838
11.1257
6.74594
2.2864
-2.32586
-7.21041
-12.5977
-18.7292
-26.4764
-36.1594
-53.3672
-80.3676
21.8045
18.9752
16.0924
13.3172
10.9773
9.12492
7.66058
6.42303
5.26655
3.94271
2.23336
0.216719
-1.29727
-1.99188
-2.13047
-2.30002
-2.64535
-2.96809
-3.00696
-2.80457
-2.64919
-2.76659
-3.25063
-4.15434
-5.54981
-7.5304
-10.1879
-13.5229
-17.3341
-21.2092
-24.6588
-28.0539
-32.1952
-37.8845
-45.3989
-54.2162
-87.3972
-115.524
-215.047
24.5995
27.7838
31.6346
36.2451
41.2297
46.4443
51.5366
56.0779
59.7945
62.5612
64.3426
65.1829
65.1489
64.2771
62.6634
60.5057
57.9853
55.1904
52.1352
48.8162
45.2487
41.4459
37.4111
33.1613
28.7993
24.4462
20.1076
15.7614
11.3988
7.00833
2.53544
-2.09272
-6.99232
-12.3921
-18.5295
-26.2702
-35.9124
-52.9612
-78.375
24.9509
22.2871
19.5297
16.7582
14.3834
12.408
10.7544
9.28243
7.84687
6.34166
4.74833
2.92416
0.875094
-0.82846
-1.64881
-1.97923
-2.42262
-2.89703
-3.06392
-2.90485
-2.72859
-2.80299
-3.2483
-4.12703
-5.50783
-7.47866
-10.1238
-13.438
-17.2293
-21.1053
-24.5964
-28.0667
-32.2713
-37.9983
-45.5907
-54.4275
-87.9035
-116.362
-217.59
27.6243
30.6569
34.2833
38.456
42.8402
47.3673
51.7672
55.6949
58.937
61.3999
63.0428
63.8738
63.9149
63.1875
61.774
59.8226
57.474
54.8133
51.8711
48.654
45.1764
41.4529
37.4924
33.3155
29.0101
24.685
20.3599
16.0193
11.6558
7.25832
2.77581
-1.86478
-6.7761
-12.1847
-18.3239
-26.052
-35.6406
-52.4996
-76.3878
28.495
26.0872
23.471
20.7826
18.287
15.9813
13.8973
12.0074
10.2365
8.52594
6.87756
5.19937
3.25515
1.08582
-0.685696
-1.5939
-2.17076
-2.77647
-3.09945
-2.99029
-2.7705
-2.78222
-3.17909
-4.02952
-5.39662
-7.3592
-9.99153
-13.2844
-17.0605
-20.9535
-24.52
-28.1028
-32.3983
-38.1679
-45.8099
-54.6698
-88.5319
-117.33
-220.005
30.8414
33.426
36.5197
40.1185
43.8923
47.8059
51.63
55.0628
57.9223
60.1352
61.657
62.4705
62.5699
61.9699
60.7423
58.9922
56.825
54.3163
51.5045
48.4047
45.0316
41.4008
37.5249
33.428
29.1868
24.8994
20.5954
16.2671
11.908
7.50801
3.01905
-1.63101
-6.55162
-11.9667
-18.1045
-25.8142
-35.3376
-51.9696
-74.3992
30.4296
28.1768
25.6875
23.0641
20.6023
18.2696
16.109
14.1288
12.2603
10.4564
8.69853
6.97186
5.18473
3.13771
0.886983
-0.884123
-1.90414
-2.61405
-3.06946
-3.03621
-2.76345
-2.69289
-3.03544
-3.85807
-5.21355
-7.16861
-9.7868
-13.0585
-16.8255
-20.7526
-24.4247
-28.1556
-32.5638
-38.3833
-46.0619
-54.9624
-89.2818
-118.397
-222.235
32.6069
34.9633
37.7667
40.9915
44.3366
47.7983
51.1858
54.2342
56.7908
58.7994
60.2142
60.9993
61.1393
60.65
59.5902
58.0302
56.0461
53.7013
51.0347
48.0661
44.8108
41.2854
37.5043
33.4946
29.325
25.0852
20.8108
16.5015
12.1524
7.75427
3.26275
-1.39357
-6.32068
-11.7389
-17.8718
-25.556
-35.0022
-51.3695
-72.4099
31.9167
29.843
27.5001
25.0051
22.6288
20.2895
18.0546
15.9768
14.0118
12.1278
10.2931
8.4923
6.72839
4.88243
2.68877
0.346057
-1.42079
-2.4179
-2.95647
-3.00069
-2.6942
-2.52844
-2.81155
-3.60961
-4.95708
-6.90558
-9.5092
-12.7618
-16.528
-20.5087
-24.3185
-28.2267
-32.7744
-38.6549
-46.3485
-55.3291
-90.1475
-119.526
-224.276
33.9027
36.0197
38.5398
41.435
44.4214
47.512
50.5428
53.2772
55.5847
57.4203
58.7349
59.4812
59.6461
59.2507
58.3383
56.953
55.1482
52.9729
50.462
47.6358
44.5105
41.102
37.4264
33.5118
29.4223
25.2396
21.0038
16.7204
12.3874
7.99632
3.50618
-1.15272
-6.083
-11.501
-17.6246
-25.2757
-34.6324
-50.6958
-70.4187
32.8493
30.9193
28.7088
26.3278
24.0419
21.7528
19.5205
17.4273
15.4378
13.5318
11.6838
9.85804
8.05397
6.27164
4.30412
1.91444
-0.483755
-2.05727
-2.76339
-2.85139
-2.54111
-2.28805
-2.50954
-3.28664
-4.63123
-6.57613
-9.16639
-12.4026
-16.1768
-20.2285
-24.2008
-28.3142
-33.02
-38.972
-46.6787
-55.7862
-91.1152
-120.667
-226.098
34.6833
36.615
38.9106
41.5387
44.2323
47.0192
49.7561
52.2313
54.3302
56.0158
57.2331
57.9326
58.1111
57.7929
57.0066
55.7785
54.1442
52.1385
49.7889
47.1137
44.1282
40.8473
37.2871
33.4761
29.475
25.359
21.1708
16.9213
12.6109
8.23239
3.74855
-0.908787
-5.83852
-11.2523
-17.362
-24.9713
-34.226
-49.9465
-68.4242
33.4431
31.6483
29.5675
27.3075
25.1265
22.9073
20.7076
18.62
16.6276
14.7199
12.8768
11.0586
9.23782
7.4314
5.60324
3.46118
0.883302
-1.32599
-2.42161
-2.58897
-2.27656
-1.96965
-2.13405
-2.89288
-4.23798
-6.18305
-8.76373
-11.9892
-15.7815
-19.9225
-24.082
-28.4225
-33.3127
-39.3514
-47.0569
-56.3546
-92.1648
-121.77
-227.749
35.1389
36.9054
39.0059
41.4045
43.8504
46.3812
48.8699
51.1253
53.0467
54.5981
55.7189
56.3665
56.5503
56.2931
55.6129
54.524
53.0482
51.2074
49.0204
46.5014
43.6632
40.5189
37.0833
33.3845
29.48
25.4405
21.3091
17.1015
12.8207
8.46098
3.98829
-0.662777
-5.58784
-10.9927
-17.0833
-24.6415
-33.7817
-49.1201
-66.4246
33.7551
32.0816
30.1188
27.9735
25.8943
23.7593
21.6145
19.557
17.5878
15.7009
13.8765
12.081
10.2848
8.4704
6.66639
4.7644
2.40427
-0.146749
-1.79689
-2.18991
-1.90268
-1.57209
-1.694
-2.4385
-3.78665
-5.73518
-8.31186
-11.5344
-15.3556
-19.5997
-23.9625
-28.5506
-33.643
-39.7809
-47.4888
-57.0401
-93.2595
-122.784
-229.277
35.3296
36.9554
38.8877
41.0903
43.3251
45.6363
47.9125
49.9793
51.7461
53.1737
54.2
54.7943
54.9766
54.7657
54.1731
53.2055
51.8742
50.1902
48.1634
45.8026
43.1168
40.1161
36.8131
33.2339
29.4342
25.4804
21.4152
17.2579
13.0142
8.67983
4.22417
-0.415442
-5.331
-10.722
-16.7876
-24.2844
-33.2975
-48.2161
-64.419
33.8564
32.2916
30.4405
28.4055
26.4285
24.3819
22.3038
20.2875
18.3519
16.4981
14.705
12.9412
11.1868
9.40927
7.60685
5.81106
3.78825
1.31772
-0.800168
-1.59165
-1.43558
-1.0931
-1.19822
-1.93495
-3.28753
-5.24115
-7.81888
-11.0465
-14.9071
-19.2673
-23.8511
-28.7029
-34.0249
-40.2773
-47.9737
-57.8539
-94.3571
-123.698
-230.791
35.3219
36.8226
38.6085
40.6392
42.6915
44.8135
46.9043
48.8076
50.4366
51.7474
52.6827
53.2248
53.3993
53.2219
52.7009
51.8375
50.6359
49.0979
47.2258
45.022
42.4911
39.6392
36.4752
33.0229
29.3358
25.4763
21.4865
17.3881
13.1893
8.88717
4.45457
-0.168065
-5.06889
-10.4403
-16.4746
-23.8993
-32.7725
-47.2355
-62.4064
33.7889
32.3242
30.5755
28.6442
26.7641
24.8064
22.8002
20.8376
18.9444
17.1321
15.3803
13.657
11.948
10.2273
8.4651
6.69719
4.90927
2.78441
0.51461
-0.75192
-0.853891
-0.560535
-0.654708
-1.39983
-2.76047
-4.7214
-7.30366
-10.5424
-14.45
-18.9342
-23.7463
-28.8775
-34.4446
-40.8191
-48.5134
-58.7914
-95.4085
-124.531
-232.307
35.1558
36.5471
38.2025
40.0831
41.9752
43.9312
45.8602
47.6195
49.1233
50.3232
51.1717
51.6635
51.8253
51.6711
51.2074
50.4328
49.3458
47.942
46.2167
44.1663
41.7901
39.0895
36.0694
32.7502
29.1824
25.4255
21.5199
17.4889
13.3429
9.08052
4.67771
0.0783465
-4.80182
-10.1475
-16.1435
-23.4847
-32.2053
-46.179
-60.3858
33.5876
32.2126
30.5603
28.7263
26.9397
25.0662
23.138
21.2371
19.3889
17.6214
15.9163
14.2399
12.5796
10.9174
9.22495
7.49683
5.80554
4.03272
1.94715
0.319497
-0.136144
-0.00308297
-0.0805802
-0.851119
-2.22664
-4.1957
-6.78337
-10.0361
-13.9942
-18.6071
-23.6559
-29.0769
-34.9125
-41.4202
-49.1089
-59.8571
-96.3719
-125.36
-233.72
34.8658
36.1586
37.6991
39.4443
41.1953
43.0051
44.7899
46.4207
47.8089
48.9049
49.6719
50.1153
50.2603
50.1207
49.7022
49.0022
48.0156
46.7334
45.1454
43.2423
41.0182
38.4695
35.5965
32.4154
28.9732
25.3263
21.5134
17.5583
13.4732
9.25809
4.89197
0.322399
-4.53094
-9.84412
-15.7941
-23.0401
-31.5953
-45.0497
-58.3552
33.2778
31.986
30.4219
28.6789
26.9798
25.189
23.3394
21.5029
19.7013
17.9804
16.325
14.6997
13.0923
11.4878
9.8687
8.2149
6.56756
5.00114
3.26555
1.53129
0.688444
0.585299
0.465637
-0.304548
-1.71236
-3.69156
-6.28569
-9.55335
-13.5622
-18.3019
-23.5831
-29.2989
-35.4092
-42.0518
-49.7583
-61.0318
-97.2031
-126.247
-234.7
34.4753
35.6803
37.1164
38.7422
40.3668
42.0451
43.7022
45.2163
46.4965
47.4948
48.1861
48.5826
48.7083
48.5764
48.1932
47.5553
46.6558
45.4824
44.0212
42.2577
40.1812
37.7832
35.0588
32.0189
28.7072
25.1769
21.4645
17.5934
13.5773
9.41736
5.09543
0.562786
-4.25671
-9.53005
-15.4261
-22.5645
-30.9417
-43.8503
-56.3141
32.8798
31.6631
30.1816
28.5237
26.9075
25.1945
23.4226
21.6501
19.8967
18.2233
16.619
15.0465
13.4942
11.9482
10.3968
8.82857
7.24267
5.75098
4.32033
2.73488
1.57954
1.1964
0.943433
0.212895
-1.23913
-3.23188
-5.83182
-9.11326
-13.1701
-18.0311
-23.5408
-29.5487
-35.9418
-42.7242
-50.456
-62.3021
-97.8622
-127.225
-234.861
34.0043
35.1293
36.4726
37.989
39.5004
41.0614
42.6031
44.0101
45.1882
46.0952
46.7167
47.0681
47.1722
47.0427
46.6864
46.0998
45.2753
44.1986
42.8529
41.2202
39.2854
37.0347
34.4583
31.562
28.3848
24.9768
21.3719
17.5927
13.6536
9.55664
5.28651
0.798101
-3.98032
-9.20606
-15.0392
-22.0578
-30.2445
-42.5853
-54.261
32.4093
31.2624
29.8564
28.2779
26.7384
25.1006
23.4008
21.6927
19.9911
18.3643
16.8098
15.2895
13.7924
12.305
10.8165
9.32572
7.82321
6.36626
5.08688
3.76829
2.4768
1.78742
1.35582
0.630849
-0.822202
-2.84291
-5.44831
-8.74303
-12.8442
-17.8179
-23.5403
-29.8295
-36.494
-43.4044
-51.1866
-63.6198
-98.3013
-128.239
-233.862
33.4669
34.5205
35.7779
37.1969
38.6056
40.059
41.497
42.8048
43.8864
44.7084
45.2652
45.573
45.6543
45.5232
45.1867
44.6423
43.8819
42.8905
41.6494
40.1381
38.3374
36.2294
33.799
31.0466
28.0066
24.7254
21.2342
17.5541
13.6996
9.67372
5.46323
1.02692
-3.7025
-8.87225
-14.6334
-21.5196
-29.5034
-41.2592
-52.1955
31.879
30.7951
29.46
27.9551
26.488
24.9197
23.2883
21.6454
19.9977
18.4149
16.9071
15.4372
13.9932
12.5627
11.1343
9.70992
8.28972
6.88408
5.63427
4.53219
3.29841
2.33061
1.69533
0.903906
-0.48534
-2.54375
-5.15436
-8.45881
-12.5988
-17.6738
-23.5943
-30.1471
-37.0741
-44.1038
-51.9345
-64.9398
-98.4826
-129.211
-231.537
32.8756
33.8634
35.0444
36.3726
37.6888
39.0453
40.3869
41.602
42.5936
43.3363
43.8329
44.099
44.1566
44.0206
43.6984
43.1883
42.4824
41.5657
40.4187
39.0188
37.3441
35.3729
33.085
30.4756
27.5741
24.4233
21.051
17.4767
13.7142
9.76719
5.62423
1.24801
-3.42441
-8.52943
-14.2088
-20.9502
-28.7189
-39.8776
-50.1178
31.2989
30.2735
29.0032
27.5671
26.1665
24.665
23.0973
21.5189
19.9246
18.3823
16.9177
15.496
14.1027
12.7257
11.3543
9.98845
8.63597
7.2968
6.04233
5.01955
3.94849
2.80782
1.93324
1.03448
-0.296151
-2.34619
-4.97289
-8.2827
-12.4542
-17.6162
-23.7098
-30.5014
-37.6645
-44.7951
-52.6774
-66.1854
-98.3669
-130.015
-227.782
32.2394
33.1681
34.2776
35.5251
36.7559
38.0229
39.2765
40.4045
41.3117
41.9807
42.4208
42.6468
42.6805
42.537
42.2248
41.7422
41.0825
40.231
39.1679
37.8697
36.3124
34.4708
32.3208
29.8523
27.0896
24.0714
20.8223
17.3595
13.6959
9.83521
5.76787
1.45992
-3.14676
-8.17793
-13.7655
-20.3498
-27.8914
-38.4464
-48.0289
30.6773
29.7051
28.4954
27.123
25.785
24.3445
22.838
21.3212
19.7773
18.273
16.8489
15.4724
14.1268
12.7995
11.4803
10.1673
8.8681
7.58987
6.34773
5.29574
4.35927
3.19548
2.06851
1.02695
-0.298466
-2.26818
-4.91783
-8.22887
-12.4206
-17.6521
-23.893
-30.8934
-38.2663
-45.4864
-53.3974
-67.2921
-97.9357
-130.534
-222.601
31.5667
32.4407
33.4867
34.6579
35.8113
36.9972
38.1681
39.2137
40.042
40.6427
41.03
41.2175
41.2272
41.0747
40.7685
40.3081
39.6873
38.8924
37.9039
36.6979
35.2489
33.5293
31.5115
29.1806
26.5557
23.6712
20.5486
17.2022
13.6439
9.87697
5.89309
1.66171
-2.87057
-7.81846
-13.3036
-19.719
-27.0219
-36.9718
-45.9296
30.0214
29.0985
27.9442
26.6309
25.35
23.9679
22.5175
21.0581
19.5623
18.0951
16.7084
15.3734
14.0714
12.7889
11.5162
10.2503
8.99434
7.76089
6.54832
5.43713
4.52479
3.44225
2.12046
0.882861
-0.488127
-2.36942
-4.99489
-8.31429
-12.514
-17.7937
-24.1489
-31.3198
-38.8621
-46.1508
-54.0698
-68.1828
-97.1732
-130.615
-216.012
30.8636
31.6885
32.6743
33.7776
34.8591
35.9697
37.0646
38.032
38.7863
39.3235
39.6611
39.8121
39.7981
39.6351
39.3321
38.8892
38.3012
37.5554
36.6328
35.5099
34.1602
32.5548
30.6628
28.465
25.9755
23.2248
20.2307
17.005
13.5575
9.89116
5.99842
1.85205
-2.59682
-7.45173
-12.8239
-19.0589
-26.1123
-35.461
-43.8233
29.3367
28.4586
27.356
26.0974
24.8701
23.5405
22.1432
20.7363
19.287
17.8573
16.5039
15.2051
13.9417
12.6989
11.4668
10.2415
9.02187
7.81863
6.63405
5.48386
4.4988
3.4965
2.10115
0.631131
-0.845425
-2.68697
-5.21754
-8.54632
-12.7431
-18.0465
-24.481
-31.779
-39.4474
-46.7859
-54.6713
-68.8037
-96.0771
-130.127
-208.112
30.1361
30.9152
31.8476
32.8862
33.9023
34.9448
35.9672
36.8603
37.5453
38.0239
38.3149
38.4309
38.3938
38.2195
37.9174
37.4883
36.928
36.2245
35.3602
34.3119
33.0529
31.5533
29.78
27.7099
25.3528
22.7349
19.8704
16.7685
13.4368
9.87728
6.08319
2.03
-2.32642
-7.0787
-12.3271
-18.3709
-25.1644
-33.9206
-41.7131
28.6285
27.7918
26.7363
25.5283
24.3496
23.0699
21.721
20.3615
18.9587
17.566
16.2408
14.9728
13.7431
12.5349
11.3373
10.146
8.95639
7.77341
6.60432
5.43895
4.35087
3.34718
1.98706
0.315256
-1.34329
-3.21283
-5.63838
-8.92351
-13.1177
-18.4189
-24.8922
-32.267
-40.0069
-47.3655
-55.1782
-69.1076
-94.64
-128.928
-199.024
29.3883
30.1263
31.008
31.9892
32.944
33.9224
34.8781
35.7009
36.321
36.7451
36.9921
37.0749
37.0153
36.8294
36.5263
36.1079
35.5707
34.904
34.0909
33.1093
31.933
30.5311
28.8691
26.9209
24.6921
22.2047
19.4701
16.4939
13.2819
9.83495
6.14648
2.1944
-2.06048
-6.70039
-11.8143
-17.6573
-24.1815
-32.3584
-39.6041
27.9008
27.1016
26.09
24.9287
23.7954
22.56
21.2567
19.9413
18.5826
17.2245
15.9229
14.6804
13.48
12.3016
11.133
9.96903
8.80317
7.63408
6.46819
5.2945
4.12339
3.03377
1.73472
-0.0316515
-1.92642
-3.91468
-6.28722
-9.45694
-13.638
-18.9149
-25.3841
-32.7818
-40.5354
-47.8791
-55.5716
-69.0696
-92.8594
-126.933
-188.957
28.6247
29.3246
30.1614
31.0874
31.9865
32.9063
33.7981
34.5548
35.1144
35.4877
35.6933
35.7446
35.6633
35.4653
35.1602
34.7501
34.2323
33.5974
32.8296
31.9076
30.806
29.494
27.9358
26.1032
23.9978
21.6381
19.0322
16.1832
13.0941
9.76448
6.18811
2.3451
-1.79974
-6.31776
-11.2867
-16.9195
-23.1665
-30.7809
-37.5008
27.1578
26.3931
25.4213
24.303
23.2103
22.0174
20.7552
19.4798
18.1629
16.836
15.5544
14.3333
13.1577
12.0043
10.8593
9.71663
8.56808
7.40809
6.23748
5.05034
3.82529
2.61711
1.32329
-0.426476
-2.5317
-4.73698
-7.14967
-10.1902
-14.2973
-19.5372
-25.9592
-33.3218
-41.0272
-48.311
-55.8427
-68.6848
-90.7374
-124.109
-178.159
27.8486
28.5142
29.3081
30.1855
31.032
31.8961
32.7294
33.424
33.9269
34.2527
34.4193
34.4408
34.3387
34.1287
33.8205
33.4168
32.9155
32.308
31.5799
30.7113
29.6772
28.4474
26.9858
25.2621
23.2749
21.0392
18.5602
15.8384
12.8745
9.66663
6.20799
2.48116
-1.545
-5.93177
-10.746
-16.1605
-22.1234
-29.1957
-35.4103
26.4023
25.6688
24.7341
23.655
22.6005
21.4445
20.2207
18.9827
17.7029
16.4042
15.1403
13.9369
12.7815
11.6482
10.5215
9.39469
8.25754
7.10193
5.9223
4.71417
3.45068
2.13894
0.777189
-0.917813
-3.12475
-5.60447
-8.17956
-11.1447
-15.1064
-20.2808
-26.6189
-33.8889
-41.4844
-48.6606
-55.9911
-67.9714
-88.2968
-120.508
-166.938
27.0633
27.6972
28.4532
29.2834
30.0822
30.8957
31.6725
32.3092
32.7592
33.0405
33.1706
33.1639
33.0421
32.8202
32.5083
32.1094
31.622
31.0386
30.3456
29.5245
28.5516
27.3967
26.0243
24.4028
22.5282
20.4123
18.0578
15.4626
12.6252
9.54227
6.20678
2.6028
-1.29664
-5.54337
-10.1932
-15.3826
-21.056
-27.6089
-33.3383
25.6379
24.9331
24.0316
22.9885
21.9677
20.8471
19.6573
18.4522
17.2064
15.934
14.6865
13.4968
12.3568
11.2388
10.1256
9.00935
7.87855
6.72269
5.53138
4.29745
2.9983
1.61146
0.147248
-1.53324
-3.72316
-6.43684
-9.29343
-12.3007
-16.0946
-21.1369
-27.3652
-34.4886
-41.9158
-48.9349
-56.0284
-66.9848
-85.5924
-116.253
-155.608
26.2714
26.8768
27.5966
28.3855
29.1393
29.9043
30.6295
31.2119
31.6125
31.8523
31.948
31.9148
31.774
31.5407
31.2248
30.8295
30.3542
29.7917
29.1299
28.3512
27.4333
26.347
25.0569
23.531
21.763
19.7622
17.5289
15.0589
12.3487
9.39319
6.18501
2.70998
-1.05534
-5.15393
-9.63053
-14.5893
-19.9695
-26.0273
-31.2928
24.8668
24.1876
23.317
22.3066
21.3174
20.227
19.0686
17.8941
16.6767
15.4299
14.1986
13.018
11.8885
10.7815
9.67713
8.56669
7.43775
6.2774
5.07236
3.81079
2.47421
1.03181
-0.527628
-2.25548
-4.38376
-7.19808
-10.3881
-13.5924
-17.2744
-22.1141
-28.1916
-35.1306
-42.3354
-49.1478
-55.9651
-65.8073
-82.7073
-111.506
-144.476
25.4757
26.0549
26.7429
27.4916
28.2047
28.9257
29.6009
30.1326
30.4872
30.6883
30.7519
30.6939
30.5354
30.291
29.9709
29.5786
29.1134
28.5696
27.9354
27.1949
26.3266
25.3029
24.0887
22.6518
20.9844
19.0936
16.9778
14.631
12.0476
9.22124
6.14422
2.80326
-0.821234
-4.76388
-9.05965
-13.7829
-18.868
-24.457
-29.2801
24.092
23.4363
22.5931
21.6128
20.6508
19.5895
18.4586
17.3103
16.1189
14.8967
13.6803
12.5047
11.3809
10.281
9.18177
8.07329
6.94217
5.77386
4.55298
3.26385
1.8886
0.39871
-1.23362
-3.03792
-5.13853
-7.91449
-11.3687
-14.9097
-18.6199
-23.2292
-29.0906
-35.8239
-42.7678
-49.3222
-55.8196
-64.5529
-79.7554
-106.434
-133.797
24.6783
25.2341
25.8915
26.6053
27.2799
27.9587
28.5884
29.0728
29.3845
29.5495
29.5831
29.5018
29.3267
29.0719
28.7475
28.3575
27.9014
27.374
26.7648
26.0585
25.2353
24.2684
23.124
21.7701
20.1974
18.4114
16.4091
14.1828
11.7253
9.02892
6.08547
2.88331
-0.594535
-4.37478
-8.48279
-12.9676
-17.7577
-22.9039
-27.3079
23.3153
22.6804
21.8627
20.9093
19.973
18.9359
17.8301
16.7067
15.5372
14.3377
13.1342
11.9605
10.8388
9.74253
8.64515
7.53504
6.39847
5.21941
3.98069
2.66461
1.25166
-0.282351
-1.96989
-3.84383
-5.97003
-8.65095
-12.1987
-16.122
-20.046
-24.4898
-30.0665
-36.5631
-43.2394
-49.4919
-55.614
-63.3335
-76.8528
-101.175
-123.768
23.8816
24.4156
25.0466
25.7262
26.3663
27.0068
27.5925
28.0327
28.3048
28.4362
28.4419
28.3391
28.1484
27.8839
27.5556
27.1675
26.7195
26.2069
25.62
24.9449
24.1625
23.2478
22.1676
20.8906
19.4069
17.7205
15.8272
13.7183
11.385
8.81885
6.0111
2.95108
-0.374944
-3.98715
-7.90181
-12.1462
-16.6431
-21.3729
-25.382
22.5393
21.9234
21.1281
20.1992
19.2848
18.2712
17.1873
16.0845
14.9357
13.7563
12.5635
11.39
10.2676
9.17175
8.07311
6.95848
5.81361
4.62156
3.36371
2.02117
0.57294
-1.00231
-2.73458
-4.65796
-6.8312
-9.44645
-12.9204
-17.1235
-21.4147
-25.8624
-31.1352
-37.3441
-43.7681
-49.7055
-55.4074
-62.2533
-74.1231
-95.8587
-114.529
23.0872
23.6022
24.2076
24.8578
25.4652
26.0691
26.6145
27.0138
27.2493
27.3494
27.3292
27.2064
27.0012
26.7279
26.3959
26.0095
25.5689
25.0698
24.5035
23.8565
23.1116
22.2444
21.2234
20.0179
18.6177
17.0257
15.2369
13.2418
11.0307
8.59405
5.92291
3.00775
-0.162556
-3.6021
-7.31927
-11.3227
-15.5303
-19.8698
-23.5093
21.7655
21.1662
20.3916
19.4848
18.591
17.5964
16.5326
15.4492
14.3175
13.1558
11.9722
10.7974
9.67203
8.57399
7.47156
6.34985
5.19434
3.98768
2.71019
1.34195
-0.138698
-1.75101
-3.52151
-5.47846
-7.68634
-10.2846
-13.6159
-17.8893
-22.576
-27.243
-32.305
-38.1771
-44.3476
-50.0119
-55.2822
-61.3729
-71.6832
-90.6332
-106.177
22.2973
22.7947
23.3782
23.9994
24.578
25.1487
25.6549
26.0162
26.218
26.2894
26.2453
26.1041
25.886
25.6043
25.2693
24.8847
24.451
23.9645
23.4168
22.7959
22.0851
21.2618
20.2955
19.1565
17.8344
16.3317
14.6428
12.7577
10.6661
8.35762
5.82348
3.05491
0.0432505
-3.22021
-6.73678
-10.5002
-14.4238
-18.3986
-21.6944
20.9963
20.412
19.6555
18.7687
17.892
16.9163
15.8695
14.8018
13.6862
12.5394
11.3645
10.1883
9.05739
7.95445
6.84622
5.7156
4.54776
3.32541
2.02799
0.63509
-0.874986
-2.51979
-4.3218
-6.302
-8.52323
-11.1219
-14.3337
-18.4876
-23.4266
-28.4714
-33.5317
-39.0837
-44.9802
-50.4357
-55.3316
-60.7396
-69.6367
-85.7175
-98.8206
21.5134
21.9954
22.5576
23.1542
23.7053
24.2442
24.7152
25.0413
25.2122
25.2571
25.191
25.0329
24.8028
24.514
24.1764
23.7937
23.3667
22.8919
22.3618
21.7648
21.0858
20.3028
19.387
18.3099
17.0612
15.6428
14.0494
12.2703
10.295
8.11298
5.71518
3.09394
0.242776
-2.84251
-6.15708
-9.68278
-13.3295
-16.9641
-19.9426
20.2328
19.6616
18.9219
18.0527
17.1925
16.2314
15.2004
14.1477
13.0448
11.9102
10.7446
9.5679
8.42909
7.3185
6.20268
5.062
3.8807
2.64188
1.32475
-0.0914284
-1.62762
-3.29994
-5.12694
-7.12257
-9.34106
-11.9272
-15.0629
-19.0217
-23.9692
-29.3859
-34.6907
-40.0664
-45.6846
-50.9744
-55.6224
-60.4194
-68.0554
-81.3723
-92.592
20.7372
21.2052
21.7493
22.3214
22.8483
23.3587
23.7955
24.0893
24.232
24.2526
24.1664
23.9933
23.7525
23.4575
23.1178
22.7375
22.3169
21.8535
21.3397
20.7653
20.1155
19.3701
18.5012
17.4818
16.302
14.9635
13.4608
11.7837
9.92148
7.86341
5.60073
3.12671
0.436771
-2.46945
-5.58188
-8.87318
-12.2516
-15.5697
-18.2566
19.4772
18.9178
18.1925
17.3395
16.4926
15.5465
14.5286
13.4877
12.397
11.2725
10.1161
8.93964
7.79162
6.67133
5.54648
4.39489
3.19972
1.94427
0.608184
-0.82929
-2.38854
-4.08334
-5.92829
-7.9316
-10.138
-12.6923
-15.7665
-19.5485
-24.3081
-29.9039
-35.5991
-41.058
-46.4789
-51.633
-56.1695
-60.5029
-67.0018
-77.8296
-87.6181
19.9701
20.4258
20.9524
21.504
22.0077
22.4908
22.8974
23.1615
23.2783
23.2768
23.1725
22.9856
22.7356
22.4354
22.0943
21.7167
21.3027
20.8502
20.3518
19.7987
19.1763
18.466
17.6409
16.6755
15.5605
14.2975
12.8813
11.302
9.54922
7.61225
5.4828
3.15485
0.625735
-2.10182
-5.0136
-8.07556
-11.1952
-14.2195
-16.6402
18.7306
18.1813
17.4695
16.6307
15.7968
14.8619
13.8565
12.827
11.746
10.6303
9.48265
8.30645
7.14891
6.01789
4.88315
3.72024
2.51116
1.23967
-0.114135
-1.57082
-3.14962
-4.86213
-6.71878
-8.72219
-10.9092
-13.418
-16.4209
-20.0614
-24.5646
-30.0751
-36.0967
-41.895
-47.3346
-52.4157
-56.9497
-61.0391
-66.5801
-75.2301
-83.9258
19.2136
19.6582
20.1701
20.7011
21.1846
21.6434
22.021
22.2578
22.3513
22.3298
22.2093
22.0104
21.7524
21.4478
21.1065
20.7316
20.3248
19.8825
19.3998
18.8662
18.27
17.5924
16.8085
15.8939
14.84
13.6484
12.3145
10.8291
9.18189
7.3628
5.36394
3.18021
0.810468
-1.74
-4.45382
-7.29236
-10.1641
-12.9159
-15.0943
17.995
17.4549
16.7544
15.9286
15.1051
14.1821
13.187
12.1665
11.0953
9.98745
8.84792
7.67201
6.5053
5.3633
4.2183
3.04408
1.82155
0.534878
-0.835076
-2.30836
-3.90308
-5.62846
-7.49079
-9.48717
-11.6479
-14.1035
-17.0217
-20.5321
-24.796
-30.0408
-36.1433
-42.3672
-48.1192
-53.2977
-57.9319
-61.9907
-66.8711
-73.664
-81.5103
18.469
18.9039
19.4014
19.9155
20.3796
20.8152
21.1674
21.3795
21.4518
21.4123
21.2774
21.068
20.8033
20.4956
20.1544
19.7835
19.3834
18.9521
18.4837
17.9696
17.3978
16.7513
16.0062
15.1395
14.1432
13.0194
11.764
10.3683
8.82288
7.11808
5.24667
3.20448
0.99159
-1.3847
-3.90464
-6.52704
-9.16246
-11.6621
-13.6212
17.2711
16.7388
16.0491
15.2349
14.4216
13.5075
12.5222
11.5111
10.4474
9.34714
8.21533
7.04025
5.86499
4.71213
3.55706
2.37225
1.13726
-0.163271
-1.54752
-3.0346
-4.64133
-6.37475
-8.23704
-10.22
-12.3481
-14.745
-17.5702
-20.9455
-24.9983
-29.9265
-35.8454
-42.3354
-48.5971
-54.1545
-59.0479
-63.2675
-67.8484
-73.1675
-80.3389
17.7374
18.1636
18.6491
19.1462
19.5935
20.0088
20.3366
20.5264
20.5798
20.5243
20.3769
20.1587
19.8886
19.5789
19.2389
18.8722
18.4795
18.059
17.6049
17.1093
16.5611
15.944
15.2357
14.4143
13.4727
12.4134
11.2327
9.92291
8.47528
6.88092
5.13339
3.22923
1.16979
-1.0362
-3.36749
-5.78176
-8.19293
-10.4596
-12.2203
16.5608
16.0355
15.355
14.5514
13.7464
12.842
11.8651
10.8613
9.80579
8.71261
7.58795
6.41537
5.23304
4.06928
2.9043
1.70993
0.464158
-0.848429
-2.24468
-3.7424
-5.35734
-7.09383
-8.95061
-10.9143
-13.0039
-15.3374
-18.0656
-21.3
-25.1523
-29.7797
-35.3648
-41.825
-48.5378
-54.7218
-60.1368
-64.7269
-69.3459
-73.6627
-80.3152
17.0201
17.4388
17.9126
18.3958
18.827
19.2229
19.5298
19.6994
19.736
19.6666
19.5083
19.2827
19.0087
18.698
18.36
17.9983
17.6134
17.2037
16.7639
16.2864
15.7609
15.172
14.4986
13.7203
12.8308
11.8327
10.7233
9.49563
8.14183
6.65389
5.02612
3.25594
1.34561
-0.695065
-2.84411
-5.05924
-7.25885
-9.31083
-10.8929
15.8646
15.3454
14.6737
13.8798
13.0832
12.1861
11.2176
10.2217
9.1728
8.08643
6.96831
5.80046
4.61408
3.44015
2.26536
1.06246
-0.192264
-1.51453
-2.92002
-4.4252
-6.04399
-7.77872
-9.62453
-11.5637
-13.6098
-15.8755
-18.5039
-21.5954
-25.2491
-29.5972
-34.8107
-40.9913
-47.8651
-54.6854
-60.8757
-66.1129
-71.091
-74.9101
-81.2215
16.3181
16.73
17.1942
17.6633
18.0808
18.4599
18.7468
18.8985
18.9203
18.8388
18.6716
18.4404
18.1635
17.8531
17.518
17.1619
16.7853
16.3867
15.9611
15.5014
14.9979
14.4361
13.7962
13.0589
12.219
11.2794
10.238
9.08876
7.82486
6.43913
4.92669
3.28585
1.51958
-0.361627
-2.3356
-4.36122
-6.36202
-8.21627
-9.63691
15.1844
14.6707
14.0064
13.2216
12.4319
11.5432
10.5822
9.59287
8.55142
7.47183
6.35993
5.19846
4.01118
2.82882
1.64521
0.435016
-0.826689
-2.15593
-3.56749
-5.07639
-6.69478
-8.42284
-10.2525
-12.1621
-14.1602
-16.3543
-18.8803
-21.829
-25.2862
-29.3668
-34.2179
-39.9943
-46.6937
-53.8674
-60.859
-66.9985
-72.6645
-76.5177
-82.7318
15.6325
16.0386
16.4933
16.9511
17.3554
17.7185
17.9885
18.1242
18.1332
18.0415
17.867
17.6315
17.3534
17.0442
16.7131
16.3632
15.9954
15.6082
15.1968
14.7546
14.2725
13.7369
13.1291
12.4313
11.6387
10.7548
9.7784
8.70418
7.52626
6.23842
4.83666
3.31997
1.69207
-0.0362693
-1.84327
-3.68962
-5.50457
-7.17737
-8.45299
14.5205
14.0116
13.3547
12.5783
11.7958
10.9137
9.96055
8.97877
7.9439
6.87145
5.76628
4.61237
3.42668
2.23839
1.04784
-0.167697
-1.43394
-2.76731
-4.18159
-5.69021
-7.30371
-9.02009
-10.8286
-12.7037
-14.6498
-16.7689
-19.1902
-21.9962
-25.2602
-29.0814
-33.5856
-38.9238
-45.2196
-52.3356
-59.8249
-66.8792
-73.4831
-77.9102
-84.3142
14.9641
15.365
15.8121
16.2583
16.6513
17.0007
17.2546
17.3764
17.3745
17.2744
17.0943
16.8563
16.578
16.2714
15.945
15.6022
15.2437
14.8682
14.4711
14.0462
13.585
13.0748
12.498
11.8379
11.0908
10.2603
9.34593
8.34332
7.24747
6.05312
4.75707
3.35909
1.86332
0.280627
-1.36798
-3.04559
-4.68746
-6.19372
-7.33832
13.8746
13.37
12.7195
11.9511
11.175
10.3007
9.35489
8.37995
7.35291
6.28816
5.19061
4.04551
2.86362
1.67212
0.477047
-0.741396
-2.00924
-3.34355
-4.75696
-6.26128
-7.86504
-9.56478
-11.3471
-13.1831
-15.0735
-17.1146
-19.429
-22.0921
-25.1665
-28.7361
-32.9075
-37.8117
-43.6008
-50.322
-57.8196
-65.4398
-72.9366
-78.3188
-85.1714
14.314
14.7103
15.1496
15.5867
15.9688
16.3051
16.5457
16.6554
16.6443
16.5377
16.3536
16.1143
15.8375
15.5343
15.2136
14.8786
14.5299
14.1664
13.7838
13.3762
12.9356
12.4501
11.9032
11.2795
10.5758
9.79658
8.94143
8.00711
6.98947
5.88417
4.68876
3.40369
2.03342
0.588683
-0.910649
-2.43034
-3.91179
-5.26588
-6.29287
13.247
12.7463
12.1022
11.3415
10.5721
9.70451
8.76673
7.79976
6.78044
5.72417
4.63544
3.5006
2.32501
1.13309
-0.0639798
-1.28253
-2.54879
-3.88027
-5.28889
-6.7845
-8.37402
-10.0519
-11.8032
-13.5956
-15.4266
-17.3867
-19.5927
-22.1127
-25.0002
-28.3255
-32.1773
-36.6638
-41.9233
-48.0673
-55.1392
-62.7632
-70.7245
-77.0455
-84.3953
13.6828
14.075
14.508
14.9352
15.3083
15.6335
15.8614
15.9609
15.9425
15.8309
15.6445
15.4055
15.1311
14.8327
14.5186
14.1922
13.8539
13.5027
13.1347
12.7442
12.3238
11.8625
11.3446
10.7559
10.0941
9.3638
8.56533
7.6961
6.7529
5.73212
4.63215
3.45397
2.20228
0.887453
-0.471913
-1.84452
-3.17784
-4.39281
-5.31322
12.6389
12.142
11.5038
10.7506
9.98756
9.12772
8.19789
7.2388
6.22859
5.18167
4.10309
2.97997
1.81394
0.624795
-0.571738
-1.78786
-3.04918
-4.37393
-5.77338
-7.25586
-8.82609
-10.4774
-12.1923
-13.9371
-15.7048
-17.5819
-19.6777
-22.0547
-24.7578
-27.8454
-31.3899
-35.4784
-40.2225
-45.7332
-52.1287
-59.2523
-67.0468
-73.8432
-81.3809
13.0712
13.4596
13.886
14.3056
14.6698
14.9845
15.2023
15.2933
15.269
15.1541
14.9669
14.7293
14.4588
14.166
13.8595
13.5423
13.215
12.8765
12.5232
12.1499
11.7495
11.3116
10.8218
10.267
9.64547
8.9621
8.21765
7.41047
6.53787
5.59717
4.58738
3.50996
2.36971
1.17655
-0.0523469
-1.28872
-2.48585
-3.5743
-4.39918
12.0506
11.5573
10.9251
10.1796
9.42324
8.57078
7.64971
6.69971
5.6989
4.66249
3.59538
2.48517
1.33218
0.150152
-1.04278
-2.25401
-3.50727
-4.82136
-6.20717
-7.67172
-9.21793
-10.8375
-12.5117
-14.2037
-15.9055
-17.6968
-19.6815
-21.9157
-24.4371
-27.2933
-30.5423
-34.2525
-38.509