/*--------------------------------*- C++ -*----------------------------------*\
  =========                 |
  \\      /  F ield         | OpenFOAM: The Open Source CFD Toolbox
   \\    /   O peration     | Website:  https://openfoam.org
    \\  /    A nd           | Version:  9
     \\/     M anipulation  |
\*---------------------------------------------------------------------------*/
FoamFile
{
    format      ascii;
    class       surfaceScalarField;
    location    "340";
    object      phi;
}
// * * * * * * * * * * * * * * * * * * * * * * * * * * * * * * * * * * * * * //

dimensions      [0 3 -1 0 0 0 0];

internalField   nonuniform List<scalar> 
21254
(
-0.119511
0.121062
-0.00155386
0.122055
-0.000990421
0.118971
0.00308211
0.112235
0.00673857
0.101563
0.0106708
0.085625
0.0159378
0.0652281
0.0203965
0.0423002
0.0229262
0.0198965
0.0224049
0.00251684
0.017384
-0.00795594
0.0104775
-0.0124855
0.00452946
-0.0139393
0.00144899
-0.0146392
0.000692011
-0.0144662
-0.00018015
-0.0135966
-0.000874588
-0.012361
-0.00123819
-0.0108132
-0.00154943
-0.008729
-0.00208562
-0.00587176
-0.00285913
-0.00199613
-0.00387697
0.00279607
-0.00480056
0.00782658
-0.00503305
0.0126814
-0.0048568
0.0173189
-0.00464123
0.0217258
-0.00441513
0.0257598
-0.00404026
0.0290226
-0.00328583
0.0303355
-0.00138172
0.0282204
0.00201829
0.022828
0.00553866
0.014933
0.00754193
0.0087817
0.00644449
0.00928756
0.00052278
0.015858
-0.00769155
0.0429759
-0.0271872
0.0619606
-0.0189927
0.102404
-0.0406317
0.11197
-0.0121825
-0.11537
-0.00414051
-0.110838
-0.00453307
-0.103556
-0.00728204
-0.0943447
-0.00921244
-0.083682
-0.0106624
-0.071531
-0.0121509
-0.0582674
-0.013264
-0.0447267
-0.0135414
-0.031603
-0.0131249
-0.0191423
-0.0124618
-0.00767102
-0.0114727
0.00239557
-0.0100682
0.0110207
-0.00862701
0.0185347
-0.00751582
0.0252945
-0.00676197
0.0314873
-0.00619517
0.0372284
-0.00574373
0.042548
-0.00532228
0.0475312
-0.00498602
0.0522672
-0.00473891
0.0568633
-0.0045984
0.061359
-0.00449811
0.0657616
-0.00439969
0.069881
-0.00411529
0.0736475
-0.00376323
0.0771575
-0.00350762
0.0804162
-0.00325817
0.083471
-0.00305526
0.0863471
-0.0028844
0.0891132
-0.00276455
0.0918155
-0.0027013
0.0945437
-0.00272921
0.0974175
-0.00287732
0.100626
-0.00320924
0.104465
-0.00384546
0.109474
-0.00499473
0.11646
-0.0069797
0.13168
-0.0150183
0.164185
-0.0326809
-0.112966
0.117762
-0.00635
0.122545
-0.00577274
0.127365
-0.00173815
0.131436
0.00266897
0.13413
0.00797589
0.133582
0.0164848
0.127828
0.0261492
0.114692
0.0360622
0.0929278
0.0441689
0.0642222
0.0460904
0.0340212
0.0406794
0.00973995
0.0288102
-0.00447135
0.0156566
-0.0106024
0.00681682
-0.0133801
0.0025914
-0.01448
0.000221803
-0.014564
-0.00115549
-0.0136899
-0.00242329
-0.0116741
-0.00410143
-0.00853685
-0.0059963
-0.00470233
-0.00771169
-0.000612451
-0.00889074
0.00354305
-0.00918718
0.00756703
-0.00887771
0.0113778
-0.00844754
0.0149244
-0.00795903
0.0180578
-0.00717426
0.0203807
-0.00562413
0.0211741
-0.00222039
0.0191787
0.00394236
0.0132926
0.0114473
0.00402993
0.0166079
-0.00376796
0.0142444
-0.00447244
0.0014706
0.00511637
-0.017641
0.0269979
-0.049102
0.0547441
-0.0467797
0.0946754
-0.0807078
0.113811
-0.0329081
-0.107641
-0.00946712
-0.1017
-0.0104746
-0.0942904
-0.0146922
-0.0857995
-0.0177035
-0.0760563
-0.0204055
-0.0651437
-0.0230636
-0.0535262
-0.0248819
-0.0416754
-0.0253931
-0.0300476
-0.0247537
-0.0188698
-0.0236408
-0.00844256
-0.0219009
0.00122077
-0.0197327
0.010131
-0.0175386
0.0181208
-0.0155073
0.0252814
-0.0139246
0.0318081
-0.0127244
0.0378593
-0.0117976
0.0435437
-0.0110098
0.0489458
-0.0103912
0.0541252
-0.00992216
0.0591618
-0.00963803
0.0641074
-0.00944661
0.068967
-0.00925652
0.0736081
-0.00875139
0.0779337
-0.0080831
0.0820114
-0.00758279
0.08585
-0.00709689
0.089478
-0.00668754
0.0929263
-0.00634244
0.0962441
-0.00608232
0.0994841
-0.00594523
0.102744
-0.00599382
0.106134
-0.00627246
0.109864
-0.00694311
0.114209
-0.00819559
0.119893
-0.0106826
0.127436
-0.0145227
0.144379
-0.0317301
0.173605
-0.0621571
-0.109882
0.114007
-0.0104743
0.117409
-0.00917589
0.12032
-0.00464794
0.122739
0.000248543
0.125311
0.00540322
0.128675
0.0131196
0.132238
0.0225854
0.13385
0.034449
0.129106
0.0489131
0.113999
0.0611981
0.0874707
0.0672081
0.0541135
0.0621677
0.0233174
0.0464518
0.00300587
0.0271258
-0.00724104
0.0128351
-0.0122896
0.00526776
-0.0148456
0.0013992
-0.0155062
-0.00176399
-0.0142885
-0.00532003
-0.011539
-0.00874771
-0.00803726
-0.0112158
-0.00443486
-0.012499
-0.000942687
-0.0126842
0.00237294
-0.0121987
0.00542275
-0.0115039
0.00815156
-0.0106954
0.0104194
-0.0094467
0.0117646
-0.00698061
0.0112669
-0.00175399
0.00779211
0.00738377
0.000753183
0.0185861
-0.00857345
0.0258234
-0.0154229
0.0212435
-0.0150539
0.0014382
-0.00453809
-0.0284938
0.0158345
-0.0695098
0.0482437
-0.0791776
0.0877185
-0.120232
0.111704
-0.0576092
-0.105186
-0.0141645
-0.0992828
-0.0163778
-0.0915556
-0.0224201
-0.0828234
-0.0264357
-0.0730257
-0.030203
-0.0621307
-0.0339589
-0.0506201
-0.0363931
-0.0392383
-0.036776
-0.028111
-0.0358822
-0.0174048
-0.0343482
-0.00740955
-0.0318973
0.00193777
-0.0290809
0.0106397
-0.0262415
0.0186323
-0.0235009
0.0259611
-0.0212548
0.0327092
-0.019474
0.0389896
-0.01808
0.0449119
-0.0169343
0.0505598
-0.0160417
0.0559965
-0.015361
0.0612988
-0.0149427
0.0665011
-0.0146501
0.0716065
-0.0143615
0.0765282
-0.0136712
0.081169
-0.0127224
0.0855567
-0.0119686
0.0897242
-0.011262
0.0936971
-0.0106586
0.0975205
-0.0101687
0.101233
-0.00979341
0.104905
-0.00961406
0.108616
-0.00970311
0.112504
-0.0101612
0.116768
-0.0112055
0.12169
-0.0131201
0.128006
-0.0169785
0.136254
-0.0227706
0.153231
-0.0486177
0.181575
-0.090585
-0.107373
0.112397
-0.0154998
0.116885
-0.0136635
0.121147
-0.0089111
0.124431
-0.00303571
0.126842
0.00299077
0.128643
0.0113166
0.130823
0.0204039
0.133969
0.0313037
0.137239
0.045643
0.136456
0.0619823
0.125417
0.0782465
0.100403
0.0871823
0.0651906
0.0816633
0.0306499
0.0616651
0.00675859
0.0367243
-0.00596764
0.017992
-0.0125139
0.00794461
-0.01576
0.00148223
-0.0162236
-0.00485573
-0.0144127
-0.0105583
-0.0114923
-0.0141362
-0.00845234
-0.0155394
-0.00561756
-0.0155184
-0.00305443
-0.0147598
-0.000797168
-0.0137572
0.00110068
-0.0125889
0.00244978
-0.010793
0.00267197
-0.00721038
0.000756943
0.000133655
-0.00413196
0.0122298
-0.0118402
0.0262992
-0.0205241
0.0344012
-0.0260134
0.0267053
-0.0245096
1.44832e-05
-0.0134598
-0.0396966
0.00693621
-0.0899298
0.0426793
-0.114951
0.0815613
-0.159189
0.108169
-0.0849694
-0.102091
-0.0194467
-0.0959504
-0.0225193
-0.088006
-0.0303646
-0.0792125
-0.0352292
-0.0694075
-0.0400081
-0.0585308
-0.0448357
-0.0471965
-0.0477281
-0.0360816
-0.047892
-0.0253068
-0.0466583
-0.0149797
-0.0446767
-0.0053399
-0.0415383
0.00366976
-0.0380917
0.0121257
-0.0346985
0.0200184
-0.0313948
0.0273695
-0.0286076
0.0342361
-0.0263425
0.040678
-0.0245244
0.0467878
-0.0230467
0.0526517
-0.0219089
0.0583295
-0.021042
0.0638655
-0.0204821
0.0693044
-0.020091
0.0746554
-0.0197118
0.0798307
-0.0188427
0.084738
-0.017625
0.0893933
-0.0166201
0.0938211
-0.0156881
0.0980543
-0.0148935
0.102125
-0.0142455
0.106098
-0.0137664
0.110034
-0.0135534
0.114027
-0.0137001
0.118206
-0.0143441
0.122796
-0.0157993
0.128073
-0.0184014
0.134818
-0.0237279
0.14359
-0.0315478
0.160776
-0.0656574
0.188357
-0.118349
-0.106908
0.112198
-0.0207912
0.116977
-0.0184436
0.121699
-0.0136332
0.125249
-0.00658729
0.128143
9.34599e-05
0.130262
0.00919625
0.131895
0.0187709
0.133641
0.0295571
0.136744
0.0425407
0.140767
0.0579607
0.14179
0.0772233
0.132305
0.0966674
0.107071
0.106897
0.0695915
0.0991437
0.0326412
0.0736737
0.00717502
0.0434572
-0.00655051
0.0216692
-0.0137477
0.00867863
-0.0168642
-0.00174024
-0.0167192
-0.010705
-0.0147392
-0.0161185
-0.0124093
-0.0178743
-0.0103402
-0.0175926
-0.00862403
-0.0164821
-0.0072742
-0.0151139
-0.00634676
-0.0135243
-0.00608179
-0.0110635
-0.00713122
-0.00617203
-0.0103669
0.00334878
-0.0162092
0.0180565
-0.0239802
0.0341535
-0.0316802
0.0420296
-0.035833
0.0309872
-0.0333157
-0.0022169
-0.0217935
-0.051471
-0.000726825
-0.111025
0.0375985
-0.153262
0.075868
-0.197483
0.103745
-0.11322
-0.101178
-0.0251765
-0.0946499
-0.0290479
-0.0860916
-0.038923
-0.0768652
-0.0444555
-0.0666781
-0.0501952
-0.0554953
-0.0560189
-0.043945
-0.0592792
-0.0327749
-0.0590634
-0.0221098
-0.057325
-0.0119833
-0.0548049
-0.00257808
-0.0509449
0.00614883
-0.0468197
0.0143679
-0.0429185
0.0221153
-0.0391433
0.0294173
-0.0359108
0.0363206
-0.0332474
0.0428698
-0.0310754
0.049134
-0.029313
0.0551829
-0.0279599
0.0610678
-0.0269292
0.0668309
-0.0262471
0.0724988
-0.0257605
0.078086
-0.025299
0.083514
-0.0242708
0.0886869
-0.0227968
0.0936058
-0.0215378
0.0982917
-0.0203711
0.10278
-0.0193795
0.107105
-0.0185692
0.111319
-0.0179811
0.115493
-0.0177228
0.119735
-0.0179378
0.124173
-0.0187816
0.129032
-0.0206563
0.13462
-0.0239877
0.141746
-0.0308313
0.150986
-0.0407915
0.168389
-0.0830293
0.195416
-0.145406
-0.106798
0.112576
-0.0265693
0.118044
-0.0239122
0.123423
-0.0190146
0.127695
-0.0108616
0.131221
-0.0034339
0.134078
0.00633647
0.136013
0.016835
0.137364
0.0282081
0.138669
0.0412363
0.141306
0.0553243
0.145497
0.0730325
0.146951
0.0952137
0.136947
0.116901
0.109181
0.126909
0.0687544
0.1141
0.0305091
0.0817019
0.00515821
0.0470194
-0.00850762
0.0223442
-0.0155099
0.00526208
-0.0178905
-0.00832383
-0.0173647
-0.0166444
-0.0159731
-0.0192664
-0.0147876
-0.0187781
-0.014017
-0.0172511
-0.0136706
-0.0154566
-0.0138205
-0.0133689
-0.0147492
-0.0101297
-0.0170926
-0.0038309
-0.0214622
0.00769961
-0.0278784
0.0244404
-0.0353804
0.041657
-0.0420679
0.0486293
-0.0450539
0.0339347
-0.0416297
-0.00560285
-0.0295376
-0.0636784
-0.00751726
-0.133069
0.0327733
-0.193579
0.0704684
-0.235228
0.0987811
-0.142032
-0.100623
-0.0313518
-0.0937216
-0.0359496
-0.0846316
-0.048013
-0.0748872
-0.0542003
-0.0642327
-0.0608497
-0.0526217
-0.0676298
-0.0407304
-0.0711714
-0.0293816
-0.0704136
-0.0186723
-0.0680361
-0.00859409
-0.0648848
0.000675965
-0.0602166
0.00920909
-0.0553542
0.0172324
-0.050943
0.0248246
-0.0467368
0.0320438
-0.0431315
0.0389403
-0.0401458
0.0455506
-0.0376878
0.0519264
-0.0356914
0.0581277
-0.034164
0.0641941
-0.0329987
0.0701593
-0.0322153
0.0760483
-0.0316517
0.0818656
-0.0311166
0.0875549
-0.0299579
0.092997
-0.0282353
0.0981758
-0.0267123
0.10313
-0.0253223
0.107877
-0.0241257
0.112457
-0.0231528
0.116926
-0.0224508
0.121355
-0.0221545
0.125845
-0.0224313
0.130534
-0.023475
0.135683
-0.0258086
0.141565
-0.0298737
0.149063
-0.0383353
0.158759
-0.050494
0.176296
-0.100481
0.202802
-0.172035
-0.107694
0.114029
-0.0329035
0.119897
-0.0297818
0.125886
-0.0250048
0.130682
-0.0156593
0.134702
-0.0074587
0.137974
0.00306403
0.140482
0.0143276
0.142209
0.0264824
0.143359
0.0400874
0.144465
0.0542188
0.146952
0.0705455
0.151262
0.0909037
0.152239
0.115924
0.139508
0.139638
0.107321
0.146287
0.0637465
0.125276
0.0255072
0.0852583
0.00151036
0.0463403
-0.0113353
0.0181068
-0.01734
-0.00232076
-0.0189375
-0.0150491
-0.0187824
-0.0194253
-0.0186169
-0.0189485
-0.0188846
-0.0169895
-0.0196344
-0.0147145
-0.0209556
-0.012056
-0.0231507
-0.00794326
-0.0267384
-0.000255421
-0.0320431
0.0129822
-0.0388142
0.0312016
-0.0459588
0.0488782
-0.0517741
0.0543858
-0.0537992
0.0360953
-0.0495542
-0.00957324
-0.0368041
-0.0766576
-0.0137357
-0.156164
0.0280546
-0.235351
0.0653487
-0.272544
0.0932981
-0.170238
-0.100997
-0.0380495
-0.0935804
-0.043366
-0.0838649
-0.057729
-0.0735205
-0.0645444
-0.0623051
-0.0720647
-0.0500957
-0.0798397
-0.0377238
-0.083544
-0.026024
-0.0821149
-0.0151095
-0.0789525
-0.00492303
-0.0750734
0.00429892
-0.0694404
0.0127279
-0.0637845
0.0206236
-0.0588399
0.0280852
-0.0541995
0.0352053
-0.0502529
0.0420713
-0.0470132
0.0486999
-0.0443182
0.0551507
-0.0421439
0.0614714
-0.040487
0.0676976
-0.0392267
0.0738489
-0.0383689
0.079946
-0.0377497
0.0859965
-0.0371684
0.0919309
-0.035892
0.097643
-0.0339479
0.103103
-0.0321701
0.108324
-0.0305417
0.113343
-0.0291408
0.118185
-0.027994
0.122919
-0.0271848
0.127606
-0.0268359
0.132361
-0.0271811
0.13733
-0.0284416
0.142754
-0.0312296
0.148965
-0.0360788
0.156821
-0.0461667
0.166972
-0.0606526
0.18456
-0.118062
0.210532
-0.198009
-0.109101
0.115982
-0.0397861
0.122451
-0.036251
0.129089
-0.031646
0.134361
-0.0209342
0.138904
-0.0120031
0.142647
-0.000680819
0.145515
0.0114595
0.147724
0.0242754
0.14913
0.0386832
0.150015
0.0533342
0.150971
0.0695898
0.153588
0.0882864
0.157916
0.111596
0.157142
0.140412
0.139549
0.163879
0.101521
0.163304
0.0555149
0.131264
0.0187417
0.0831131
-0.0032129
0.040061
-0.0144434
0.00890926
-0.0190598
-0.0104327
-0.0205479
-0.0179379
-0.0215578
-0.0179389
-0.0229637
-0.0155827
-0.0248894
-0.0127852
-0.0274523
-0.00948715
-0.0309414
-0.00444688
-0.0357028
0.00450787
-0.0418147
0.0190822
-0.0488768
0.0382386
-0.0557452
0.0557486
-0.0609036
0.0594664
-0.0621745
0.0373215
-0.057216
-0.0145152
-0.0437673
-0.0902137
-0.01963
-0.180327
0.0232793
-0.278283
0.0603259
-0.309628
0.0873871
-0.197674
-0.101897
-0.0452535
-0.0939849
-0.051279
-0.0835345
-0.0681792
-0.0725032
-0.075576
-0.0606245
-0.0839433
-0.0477697
-0.0926941
-0.0347936
-0.096521
-0.0226217
-0.0942885
-0.0114
-0.0901763
-0.00104082
-0.0854349
0.0082544
-0.0787375
0.016656
-0.0721876
0.0244838
-0.0666689
0.0318451
-0.0615622
0.0388863
-0.0572955
0.0456972
-0.0538259
0.0523218
-0.0509448
0.0588169
-0.0486414
0.0652266
-0.0468992
0.0715816
-0.0455846
0.0778966
-0.0446865
0.0841908
-0.0440462
0.0904668
-0.0434453
0.0966525
-0.0420768
0.102633
-0.0399262
0.108369
-0.0379019
0.113872
-0.0360408
0.119171
-0.0344381
0.124292
-0.0331153
0.129294
-0.0321881
0.134261
-0.0318041
0.13929
-0.032214
0.144544
-0.0336988
0.150273
-0.0369633
0.156803
-0.0426131
0.165016
-0.0543859
0.175623
-0.0712676
0.193165
-0.135556
0.218539
-0.223465
-0.111159
0.118575
-0.047203
0.125611
-0.043288
0.132869
-0.0389072
0.138664
-0.026732
0.143749
-0.0170921
0.147948
-0.00487938
0.151213
0.00819549
0.153645
0.0218443
0.155452
0.0368777
0.156617
0.0521702
0.157182
0.0690256
0.158015
0.0874529
0.161047
0.108563
0.165152
0.136307
0.160907
0.168124
0.136269
0.187942
0.0920194
0.175513
0.0450043
0.130128
0.0108421
0.0742222
-0.00834284
0.0280927
-0.017327
-0.00145098
-0.0210506
-0.0142172
-0.0234341
-0.0155594
-0.0260741
-0.0129485
-0.0292457
-0.00962175
-0.0330991
-0.00564337
-0.037869
0.000312036
-0.0437413
0.0103643
-0.050643
0.0259589
-0.058051
0.0456343
-0.0648206
0.0625827
-0.0695727
0.0641715
-0.0703103
0.0381985
-0.0647426
-0.019801
-0.050605
-0.104569
-0.0254067
-0.205548
0.0183123
-0.321985
0.0552443
-0.346583
0.0808975
-0.223516
-0.103328
-0.0530857
-0.0948297
-0.0597778
-0.0836265
-0.0793837
-0.0719154
-0.0872867
-0.0592665
-0.0965918
-0.0456566
-0.106305
-0.0319361
-0.110242
-0.0192268
-0.106999
-0.00759027
-0.101815
0.00307002
-0.0960974
0.0125131
-0.0881825
0.0209767
-0.0806528
0.0287977
-0.0744912
0.0361021
-0.0688679
0.043062
-0.0642567
0.0498178
-0.0605832
0.056411
-0.0575395
0.0629299
-0.0551621
0.0694015
-0.0533724
0.0758632
-0.0520483
0.0823281
-0.0511528
0.0888028
-0.0505225
0.0952876
-0.0499308
0.101723
-0.0485136
0.10798
-0.046183
0.11399
-0.0439111
0.11978
-0.0418283
0.125358
-0.0400145
0.130771
-0.0385257
0.136064
-0.0374807
0.141314
-0.0370482
0.146638
-0.0375318
0.152184
-0.0392405
0.158227
-0.0430007
0.165107
-0.0494839
0.173683
-0.0629376
0.184718
-0.0823129
0.202146
-0.152984
0.226903
-0.24822
-0.113616
0.121683
-0.0552718
0.129319
-0.0509275
0.137277
-0.0468682
0.143586
-0.0330454
0.149101
-0.0226074
0.153791
-0.00957192
0.15741
0.00457765
0.160155
0.0191011
0.162182
0.0348525
0.163587
0.0507665
0.164389
0.0682237
0.164741
0.0871007
0.165725
0.107579
0.16929
0.132742
0.172354
0.16506
0.162264
0.198032
0.128729
0.209048
0.0789996
0.179857
0.0328081
0.120413
0.0024441
0.058456
-0.0131365
0.0141287
-0.0201025
-0.00725184
-0.0241564
-0.011506
-0.0281125
-0.00899184
-0.0325816
-0.00514948
-0.0377403
-0.000478616
-0.0437631
0.00634346
-0.0507364
0.0173427
-0.0584742
0.0336917
-0.0663702
0.0535123
-0.0732736
0.0694912
-0.0778863
0.0687152
-0.0783126
0.0385794
-0.0722697
-0.0258434
-0.0574758
-0.119468
-0.0312538
-0.231798
0.0129202
-0.366179
0.0497561
-0.383452
0.0737508
-0.247815
-0.105248
-0.0614546
-0.096126
-0.0689007
-0.0840844
-0.0914251
-0.0715354
-0.0998361
-0.0581271
-0.11
-0.0436317
-0.120799
-0.0291579
-0.124717
-0.0157889
-0.12037
-0.0036608
-0.113945
0.00738817
-0.107149
0.0170712
-0.0978676
0.0256541
-0.0892372
0.0335232
-0.0823617
0.0408194
-0.0761654
0.0477259
-0.0711645
0.0544196
-0.0672782
0.060995
-0.0641167
0.0675034
-0.0616724
0.0740211
-0.0598925
0.0805668
-0.0585963
0.0871518
-0.0577404
0.0937935
-0.0571661
0.100488
-0.056627
0.107165
-0.0551905
0.113682
-0.0526984
0.119978
-0.0502038
0.126049
-0.0478965
0.131927
-0.0458893
0.137632
-0.044231
0.143222
-0.0430699
0.148778
-0.042605
0.154399
-0.0431551
0.160263
-0.0451082
0.166633
-0.0493752
0.173863
-0.0567186
0.182789
-0.0718688
0.194262
-0.0937956
0.211529
-0.170227
0.235511
-0.272255
-0.116589
0.12526
-0.0639464
0.133489
-0.0591578
0.142139
-0.0555217
0.149071
-0.039981
0.15514
-0.0286798
0.160291
-0.0147225
0.164199
0.000669627
0.167283
0.0160192
0.169538
0.0325992
0.17112
0.0491861
0.172104
0.0672401
0.172511
0.0866936
0.172624
0.107465
0.174138
0.131228
0.178282
0.160916
0.178391
0.197922
0.159599
0.22784
0.11638
0.223075
0.0630157
0.173777
0.0197569
0.101713
-0.00553973
0.0394232
-0.0173789
0.00458422
-0.0236456
-0.00524272
-0.0290275
-0.00361525
-0.0348065
0.000622567
-0.0412583
0.00596267
-0.0485239
0.0135973
-0.0566265
0.0254256
-0.0653072
0.0423465
-0.0738704
0.0620518
-0.0811666
0.0768493
-0.085932
0.0734406
-0.0862749
0.0390659
-0.0798886
-0.0319457
-0.0645138
-0.135037
-0.0373518
-0.258979
0.00687822
-0.410393
0.0435748
-0.420174
0.0656884
-0.270109
-0.107527
-0.0705184
-0.0977785
-0.0786489
-0.084851
-0.104354
-0.0714456
-0.113241
-0.0571214
-0.124324
-0.041746
-0.136176
-0.0263935
-0.14007
-0.0122969
-0.134469
0.000440841
-0.126685
0.0119078
-0.118618
0.0219126
-0.107874
0.0306974
-0.0980235
0.0386752
-0.0903408
0.0459778
-0.0834692
0.0528576
-0.0780456
0.0595232
-0.0739451
0.0660571
-0.0706521
0.0725685
-0.0681853
0.0791004
-0.066426
0.085707
-0.0652045
0.0924014
-0.0644364
0.0991911
-0.063957
0.106081
-0.0635179
0.112992
-0.0621025
0.119773
-0.0594803
0.126345
-0.0567756
0.132713
-0.0542637
0.138887
-0.0520607
0.144901
-0.0502432
0.150798
-0.0489655
0.156658
-0.0484595
0.162605
-0.0490935
0.16879
-0.0512869
0.175499
-0.0560774
0.183089
-0.0642958
0.192376
-0.0811313
0.204254
-0.105688
0.221271
-0.187241
0.244429
-0.29541
-0.119904
0.129297
-0.0733415
0.138197
-0.0680623
0.14758
-0.0649085
0.155049
-0.0474539
0.161654
-0.035286
0.167298
-0.0203684
0.171669
-0.00369961
0.175018
0.0126721
0.177491
0.0301278
0.179201
0.0474769
0.180328
0.0661138
0.180967
0.0860545
0.180978
0.107454
0.18102
0.131185
0.183381
0.158554
0.187374
0.193929
0.181536
0.233678
0.15129
0.253321
0.0989116
0.226155
0.0448524
0.155772
0.0070784
0.0771962
-0.0122638
0.0239257
-0.0217552
0.00424818
-0.0287794
0.00340978
-0.0358734
0.00771922
-0.0435894
0.0136846
-0.0521
0.0221165
-0.0613898
0.0347233
-0.0711276
0.0520844
-0.0805695
0.0714842
-0.0885369
0.0848242
-0.0937271
0.078575
-0.0942188
0.0395138
-0.0876642
-0.0385124
-0.0718541
-0.150951
-0.0439163
-0.286949
-0.000104316
-0.454224
0.0363006
-0.456618
0.0564901
-0.290555
-0.11019
-0.0802333
-0.0997035
-0.0891366
-0.0858761
-0.118181
-0.071534
-0.127584
-0.0562724
-0.139585
-0.0399249
-0.152522
-0.0236048
-0.156392
-0.00873027
-0.149345
0.00465285
-0.140071
0.0166702
-0.130638
0.0270754
-0.118281
0.0361139
-0.107064
0.0442122
-0.0984404
0.0515965
-0.0908546
0.0584855
-0.0849358
0.0651219
-0.0805828
0.071631
-0.0771625
0.0781191
-0.0746751
0.0846701
-0.0729787
0.0913185
-0.071855
0.0980951
-0.0712149
0.105018
-0.0708818
0.112094
-0.0705961
0.119235
-0.0692442
0.126272
-0.0665169
0.133122
-0.0636237
0.139778
-0.0609174
0.146259
-0.0585385
0.152574
-0.0565579
0.158791
-0.0551812
0.164975
-0.0546424
0.171244
-0.0553636
0.177774
-0.0578196
0.184822
-0.0631294
0.192787
-0.0722651
0.202418
-0.0907674
0.214671
-0.117952
0.231444
-0.204003
0.253702
-0.317702
-0.123681
0.133718
-0.0833812
0.143329
-0.0776757
0.15349
-0.0750737
0.16162
-0.055587
0.168804
-0.0424747
0.174944
-0.0265082
0.179717
-0.00847142
0.183412
0.00897935
0.186078
0.0274632
0.187952
0.0456049
0.189124
0.0649419
0.189793
0.0853859
0.19002
0.107227
0.189695
0.131509
0.190064
0.158186
0.193388
0.190604
0.195108
0.231958
0.179435
0.268993
0.136058
0.269531
0.0770699
0.214759
0.0262805
0.127983
-0.00370426
0.0539077
-0.0181365
0.0186765
-0.0272832
0.0125524
-0.0357721
0.016202
-0.0447461
0.0226501
-0.0544998
0.0318573
-0.0650095
0.0452149
-0.0759184
0.0629643
-0.0864369
0.0819795
-0.095338
0.0937728
-0.101235
0.0844497
-0.102116
0.0405409
-0.0956188
-0.0447346
-0.0796112
-0.167126
-0.0511702
-0.315406
-0.00835033
-0.497032
0.0276258
-0.492613
0.0458113
-0.308876
-0.113163
-0.0907526
-0.102004
-0.100296
-0.0871559
-0.133031
-0.0718509
-0.142887
-0.0555375
-0.155898
-0.0381011
-0.169961
-0.0208156
-0.173678
-0.00504767
-0.165115
0.00905155
-0.154172
0.0216726
-0.143261
0.0325189
-0.129129
0.0418611
-0.116407
0.0501852
-0.106766
0.0576645
-0.098335
0.0646034
-0.0918758
0.0712469
-0.0872275
0.0777326
-0.0836496
0.0841947
-0.0811385
0.0907396
-0.0795251
0.0974266
-0.0785433
0.104276
-0.0780655
0.111322
-0.0779294
0.118559
-0.0778344
0.12592
-0.076606
0.133209
-0.0738076
0.140332
-0.0707462
0.147278
-0.0678636
0.154054
-0.0653138
0.16069
-0.0631919
0.167229
-0.0617188
0.173746
-0.0611531
0.180359
-0.0619675
0.187232
-0.0646828
0.194641
-0.0705295
0.202976
-0.0805834
0.212958
-0.100728
0.225569
-0.130578
0.241985
-0.220414
0.263288
-0.339007
-0.127773
0.138575
-0.0941856
0.148937
-0.0880431
0.15993
-0.0860706
0.168719
-0.06438
0.176481
-0.0502382
0.183157
-0.0331874
0.188377
-0.01369
0.192372
0.00498764
0.195312
0.024525
0.197334
0.0435848
0.198632
0.0636439
0.1993
0.0847176
0.19956
0.106966
0.199283
0.131786
0.198617
0.158851
0.199817
0.189404
0.203487
0.228288
0.199187
0.273292
0.16967
0.299048
0.113678
0.270751
0.0528219
0.188839
0.00978186
0.0969468
-0.0122506
0.0407087
-0.0243822
0.0246846
-0.0344738
0.0262965
-0.0447484
0.0329295
-0.0557435
0.0428609
-0.0674985
0.0569782
-0.0796606
0.0751308
-0.0914173
0.0937338
-0.101484
0.103848
-0.108355
0.0912798
-0.109908
0.0420581
-0.103769
-0.0508938
-0.0878784
-0.183114
-0.0593246
-0.343998
-0.0181881
-0.53819
0.017169
-0.528019
0.033265
-0.325179
-0.116559
-0.101967
-0.104508
-0.112348
-0.0886549
-0.148882
-0.0722789
-0.159265
-0.0549139
-0.173264
-0.0363635
-0.18851
-0.0179376
-0.192106
-0.00123785
-0.181817
0.0136842
-0.169097
0.0269543
-0.156533
0.0383166
-0.140493
0.0480151
-0.126107
0.0565756
-0.115327
0.0642067
-0.105967
0.0712013
-0.0988715
0.0778681
-0.0938954
0.0843553
-0.090138
0.0908068
-0.0875913
0.0973505
-0.0860704
0.104057
-0.0852512
0.110967
-0.0849783
0.11811
-0.0850736
0.125512
-0.0852381
0.133081
-0.0841762
0.14061
-0.0813378
0.147999
-0.0781341
0.155232
-0.0750961
0.162318
-0.0723973
0.169271
-0.0701444
0.176139
-0.0685844
0.182992
-0.0680043
0.189946
-0.0689214
0.197179
-0.0719174
0.204951
-0.0783035
0.213664
-0.0892987
0.223977
-0.111045
0.236901
-0.143514
0.252998
-0.236507
0.273225
-0.359255
-0.132231
0.143878
-0.105835
0.155002
-0.0991699
0.166875
-0.0979482
0.176332
-0.0738413
0.184722
-0.0586326
0.192023
-0.0404891
0.197644
-0.0193095
0.202011
0.000623005
0.205272
0.0212662
0.207486
0.0413728
0.208855
0.0622754
0.209557
0.0840156
0.209689
0.106834
0.209461
0.132013
0.208661
0.15965
0.208119
0.189945
0.210418
0.225989
0.212097
0.271613
0.196568
0.314576
0.15064
0.316678
0.085826
0.253651
0.0295686
0.153201
-0.00316736
0.073441
-0.0198147
0.0413275
-0.0319104
0.0383877
-0.0435868
0.0445985
-0.055843
0.0551068
-0.0688549
0.0699728
-0.0823284
0.0885811
-0.0954458
0.106829
-0.106874
0.115315
-0.11497
0.0993735
-0.117501
0.044719
-0.112059
-0.0560596
-0.0966977
-0.198608
-0.068552
-0.372156
-0.0298368
-0.576894
0.00452294
-0.562383
0.0182258
-0.338966
-0.120205
-0.113995
-0.107393
-0.12516
-0.0903793
-0.165898
-0.0729003
-0.176742
-0.0543744
-0.191789
-0.0345892
-0.208297
-0.0150277
-0.211668
0.00273011
-0.199576
0.0184868
-0.184855
0.0325039
-0.170552
0.0444093
-0.1524
0.0545329
-0.136231
0.063396
-0.124191
0.0712053
-0.113778
0.0783237
-0.105991
0.0850286
-0.100601
0.0915269
-0.0966375
0.0979853
-0.0940511
0.104525
-0.0926119
0.111245
-0.0919725
0.118198
-0.0919321
0.125436
-0.0923137
0.132981
-0.0927844
0.140753
-0.0919493
0.14852
-0.0891066
0.156168
-0.0857834
0.163685
-0.082613
0.171068
-0.0797803
0.178341
-0.0774167
0.185536
-0.0757774
0.192735
-0.075198
0.20005
-0.0762267
0.207639
-0.0794958
0.215785
-0.0864357
0.224878
-0.098374
0.235511
-0.121657
0.248712
-0.156733
0.264408
-0.252193
0.283509
-0.37836
-0.137106
0.149607
-0.118339
0.161537
-0.111105
0.174315
-0.110731
0.184486
-0.0840176
0.193596
-0.0677443
0.201489
-0.0483852
0.207599
-0.0254176
0.212353
-0.00412819
0.215876
0.0177459
0.218265
0.0389858
0.219747
0.0607945
0.220485
0.0832767
0.22065
0.106669
0.220294
0.132369
0.219478
0.160465
0.218162
0.19126
0.218246
0.225906
0.221007
0.268851
0.216172
0.31941
0.184261
0.348589
0.122903
0.31501
0.0564356
0.219668
0.0104997
0.119376
-0.0131576
0.0649855
-0.0279454
0.0531775
-0.0411996
0.0578574
-0.054777
0.0686908
-0.069072
0.0842761
-0.0838883
0.103403
-0.0984505
0.121395
-0.111391
0.128263
-0.120934
0.10889
-0.124732
0.0484888
-0.120393
-0.0604179
-0.106061
-0.213022
-0.0789672
-0.399287
-0.0434303
-0.612457
-0.0106905
-0.595184
-3.94183e-05
-0.349779
-0.124185
-0.126916
-0.110463
-0.138883
-0.0922948
-0.184063
-0.0736345
-0.195404
-0.053884
-0.21154
-0.0328043
-0.229376
-0.011997
-0.232478
0.00684144
-0.218417
0.0235534
-0.201569
0.0383635
-0.185363
0.0508978
-0.164936
0.0614762
-0.146811
0.0706513
-0.133368
0.0787102
-0.121837
0.0859444
-0.113226
0.0927499
-0.107408
0.099267
-0.103156
0.105736
-0.100522
0.112277
-0.0991542
0.119013
-0.0987095
0.126011
-0.0989323
0.133325
-0.0996299
0.141008
-0.100469
0.148965
-0.0999079
0.156964
-0.097107
0.164863
-0.0936831
0.172657
-0.0904067
0.18034
-0.0874624
0.187932
-0.0850076
0.195465
-0.0833093
0.203012
-0.082742
0.210676
-0.0838897
0.218644
-0.0874632
0.227157
-0.094949
0.236626
-0.107842
0.247566
-0.132599
0.260996
-0.170174
0.276288
-0.267484
0.294236
-0.396321
-0.142305
0.155673
-0.13171
0.168504
-0.123939
0.182275
-0.124508
0.193225
-0.0949713
0.203059
-0.0775846
0.211561
-0.0568865
0.21822
-0.0320763
0.2234
-0.00930538
0.227193
0.0139564
0.229801
0.0363798
0.231473
0.0591235
0.232233
0.0825163
0.232338
0.106563
0.231878
0.132827
0.230958
0.161384
0.229463
0.192755
0.227944
0.227423
0.229107
0.267688
0.229701
0.318815
0.211919
0.366369
0.160743
0.366185
0.0898465
0.290562
0.0302229
0.178997
-0.00360296
0.0988071
-0.0223472
0.0719175
-0.0374968
0.0730016
-0.0524724
0.0836587
-0.068081
0.0998718
-0.0842733
0.119578
-0.100344
0.137449
-0.11491
0.142862
-0.126092
0.120079
-0.131449
0.0539695
-0.128633
-0.0629983
-0.115911
-0.225834
-0.0906271
-0.424588
-0.0589988
-0.644071
-0.0287838
-0.625382
-0.021955
-0.356624
-0.128479
-0.140744
-0.11383
-0.15353
-0.0944221
-0.203474
-0.0744819
-0.215341
-0.0534478
-0.232574
-0.0310146
-0.251812
-0.0088378
-0.254656
0.0111373
-0.238394
0.0288751
-0.219309
0.0445278
-0.201017
0.0577256
-0.178134
0.0688027
-0.157889
0.0783856
-0.142951
0.0866883
-0.130141
0.0941141
-0.120653
0.101014
-0.114309
0.107603
-0.109745
0.114088
-0.107008
0.120644
-0.105712
0.127389
-0.105456
0.134418
-0.105963
0.14181
-0.107023
0.149621
-0.108282
0.15777
-0.108058
0.165976
-0.105315
0.174125
-0.101834
0.182189
-0.0984717
0.190172
-0.0954458
0.198076
-0.0929112
0.205945
-0.091177
0.21384
-0.0906326
0.221874
-0.0919161
0.230208
-0.095784
0.23909
-0.103816
0.248932
-0.117662
0.260158
-0.14381
0.273776
-0.18381
0.288638
-0.282333
0.305314
-0.413004
-0.147919
0.162245
-0.146039
0.176026
-0.137725
0.19075
-0.139237
0.202606
-0.106833
0.213119
-0.0880997
0.22236
-0.0661311
0.229537
-0.0392512
0.235165
-0.0149302
0.23932
0.00980446
0.242188
0.033514
0.243909
0.0574039
0.24478
0.0816449
0.24482
0.106522
0.244244
0.133402
0.243213
0.162415
0.241588
0.194379
0.2394
0.229611
0.23838
0.268707
0.240032
0.317163
0.233003
0.373399
0.19606
0.403128
0.128034
0.358588
0.057134
0.249896
0.0102285
0.145712
-0.0147792
0.0969265
-0.0323459
0.0905712
-0.0488432
0.100161
-0.065792
0.116827
-0.0833855
0.137177
-0.101007
0.155076
-0.117298
0.15916
-0.130294
0.133059
-0.1375
0.0611579
-0.136643
-0.0638718
-0.12613
-0.236409
-0.10354
-0.447208
-0.0765817
-0.671055
-0.049945
-0.652088
-0.0475562
-0.359135
-0.133135
-0.155528
-0.117476
-0.169191
-0.096722
-0.224224
-0.0754797
-0.236586
-0.0530422
-0.255012
-0.0291546
-0.275698
-0.00560127
-0.278212
0.0156703
-0.259667
0.0344581
-0.238098
0.0510416
-0.217602
0.0649648
-0.192059
0.076608
-0.169533
0.0866014
-0.152946
0.0952163
-0.138757
0.102842
-0.128279
0.109874
-0.121342
0.116548
-0.116421
0.123068
-0.113529
0.129639
-0.112283
0.136408
-0.112227
0.143476
-0.113033
0.150932
-0.114481
0.158864
-0.116217
0.167184
-0.11638
0.175608
-0.113741
0.183993
-0.11022
0.19232
-0.106799
0.200587
-0.103713
0.208809
-0.101134
0.217007
-0.0993736
0.225257
-0.0988806
0.233647
-0.100304
0.24236
-0.104495
0.251621
-0.113075
0.261808
-0.127845
0.273323
-0.155323
0.287062
-0.197559
0.301521
-0.29679
0.316949
-0.428441
-0.153898
0.169236
-0.161382
0.183954
-0.152447
0.199848
-0.155138
0.212477
-0.119466
0.223878
-0.0995067
0.233808
-0.0760612
0.241639
-0.0470811
0.247685
-0.0209736
0.252209
0.00528479
0.255308
0.030417
0.257267
0.0554463
0.258153
0.0807587
0.25826
0.106414
0.257586
0.134076
0.256343
0.163656
0.25459
0.196131
0.252149
0.232051
0.249559
0.271296
0.24964
0.317081
0.248578
0.37446
0.226351
0.425353
0.168053
0.416885
0.091281
0.326665
0.0300616
0.206928
-0.00448265
0.131467
-0.0255333
0.111618
-0.0437759
0.118399
-0.0621018
0.135146
-0.0810952
0.156158
-0.100297
0.174272
-0.118395
0.177278
-0.13339
0.148072
-0.142749
0.0706098
-0.144277