/*--------------------------------*- C++ -*----------------------------------*\
  =========                 |
  \\      /  F ield         | OpenFOAM: The Open Source CFD Toolbox
   \\    /   O peration     | Website:  https://openfoam.org
    \\  /    A nd           | Version:  9
     \\/     M anipulation  |
\*---------------------------------------------------------------------------*/
FoamFile
{
    format      ascii;
    class       volVectorField;
    location    "340";
    object      U;
}
// * * * * * * * * * * * * * * * * * * * * * * * * * * * * * * * * * * * * * //

dimensions      [0 1 -1 0 0 0 0];

internalField   nonuniform List<vector> 
10720
(
(-1.29891 13.6688 6.46993e-18)
(-0.609649 13.9408 -6.44725e-18)
(0.100854 13.9393 0)
(0.772804 13.4603 -7.22539e-17)
(1.34513 12.5163 7.54622e-17)
(1.75234 11.0005 2.52969e-17)
(1.89697 8.86539 4.11868e-17)
(1.72569 6.24002 0)
(1.242 3.42164 0)
(0.537647 0.925131 0)
(-0.349254 -0.528105 1.68761e-17)
(-0.973786 -0.777312 0)
(-1.25193 -0.84777 2.11591e-16)
(-1.33642 -0.840602 0)
(-1.39493 -0.796047 0)
(-1.42588 -0.706429 0)
(-1.44966 -0.598896 -3.56812e-16)
(-1.3792 -0.478246 -5.65144e-16)
(-1.14728 -0.353529 5.23861e-16)
(-0.762132 -0.245292 0)
(-0.304011 -0.165365 5.55025e-16)
(0.185158 -0.0983154 -1.14273e-15)
(0.705166 -0.0364193 4.9646e-16)
(1.2273 0.00404478 -1.25658e-17)
(1.73862 0.018813 0)
(2.23221 0.00699371 2.72025e-16)
(2.69728 -0.029603 4.33485e-18)
(3.10535 -0.0845835 -1.90487e-16)
(3.41213 -0.143443 -9.17862e-16)
(3.40453 -0.183913 -4.24903e-15)
(3.02665 -0.190678 2.47505e-15)
(2.32944 -0.151386 6.27705e-15)
(1.41977 -0.0795866 8.02427e-15)
(0.864245 -0.0786513 4.08056e-14)
(0.890781 -0.165943 -1.85395e-14)
(3.30576 -0.775759 -8.72055e-17)
(4.91357 -1.00532 1.39787e-16)
(9.71357 -2.0397 4.92266e-14)
(11.331 -3.375 -7.05576e-14)
(-1.97946 13.2411 2.35034e-18)
(-2.65882 12.6001 3.30619e-18)
(-3.30591 11.7582 -1.25454e-18)
(-3.8397 10.5812 -2.10892e-17)
(-4.18366 9.24319 -4.15399e-17)
(-4.27548 7.7618 1.05044e-16)
(-4.0756 6.21792 5.20218e-16)
(-3.5847 4.72953 2.76032e-16)
(-2.86342 3.40605 0)
(-1.99503 2.29595 0)
(-1.05161 1.40831 1.62688e-15)
(-0.11547 0.728362 1.49188e-15)
(0.718096 0.215186 -3.19541e-15)
(1.5326 -0.225594 1.96723e-15)
(2.35143 -0.576106 2.79137e-15)
(3.11134 -0.81692 1.62089e-15)
(3.79042 -0.968897 1.97578e-15)
(4.40556 -1.06454 1.27394e-15)
(4.98384 -1.12636 0)
(5.54006 -1.16133 0)
(6.07963 -1.17175 -1.76608e-15)
(6.6065 -1.15634 -8.84015e-17)
(7.12505 -1.11193 1.3223e-15)
(7.63016 -1.02836 -1.02034e-15)
(8.10186 -0.902144 7.15757e-18)
(8.53218 -0.744783 0)
(8.92778 -0.565437 2.56538e-16)
(9.29437 -0.370271 0)
(9.63554 -0.163471 0)
(9.95473 0.0509423 7.42381e-17)
(10.2592 0.269842 0)
(10.556 0.490598 1.27677e-16)
(10.8596 0.712578 6.2185e-16)
(11.1795 0.935462 5.11634e-15)
(11.566 1.16718 -2.84619e-15)
(11.9941 1.40804 1.24943e-17)
(12.7573 1.70847 0)
(13.4911 2.10208 -1.21743e-14)
(16.8623 2.51879 -1.56e-14)
(1.90218 12.3894 -2.35875e-18)
(2.63389 12.7176 1.89289e-18)
(3.3827 13.0326 0)
(4.0584 13.3286 0)
(4.56814 13.571 -1.15616e-17)
(4.8795 13.7109 -1.70418e-17)
(4.96677 13.5399 0)
(4.81215 12.7566 0)
(4.36917 11.0353 -9.21112e-19)
(3.58618 8.31582 0)
(2.41317 5.01496 4.9619e-17)
(1.02858 1.98805 0)
(-0.179318 0.168301 6.00786e-17)
(-0.787237 -0.422186 -6.63571e-17)
(-1.10422 -0.668603 1.15736e-16)
(-1.3199 -0.742337 -2.28682e-16)
(-1.47476 -0.712517 2.56158e-16)
(-1.5017 -0.621289 2.53591e-16)
(-1.34302 -0.510009 2.42959e-16)
(-1.01865 -0.406579 1.31706e-17)
(-0.609002 -0.323638 -2.13501e-16)
(-0.187418 -0.255252 2.29829e-16)
(0.235062 -0.190563 -1.34723e-17)
(0.651579 -0.140525 0)
(1.05329 -0.112742 0)
(1.43414 -0.105631 0)
(1.78286 -0.116361 2.40589e-17)
(2.07507 -0.134982 -8.10608e-18)
(2.26084 -0.140754 5.56746e-16)
(2.24991 -0.11628 2.15697e-18)
(1.89072 -0.057069 -3.16083e-18)
(1.05394 0.0425223 -3.0864e-17)
(-0.0390114 0.139357 2.95528e-15)
(-0.658609 0.124686 -6.50646e-15)
(-0.406229 -0.0489469 -5.67646e-17)
(1.7868 -0.640538 -1.04037e-14)
(3.25083 -0.849253 0)
(8.79126 -2.1878 -1.19314e-14)
(10.2547 -2.45888 -3.35078e-14)
(1.19218 11.9697 3.13601e-18)
(0.499127 11.4583 -1.08131e-17)
(-0.242672 10.7966 -1.17237e-16)
(-0.936576 9.95437 1.08986e-16)
(-1.5181 8.92838 0)
(-1.92957 7.74867 -2.66805e-16)
(-2.11823 6.46683 -1.78043e-16)
(-2.04829 5.17396 -1.24729e-15)
(-1.73234 3.95988 5.09968e-16)
(-1.22076 2.88232 -7.03683e-16)
(-0.577002 1.9733 1.37227e-15)
(0.137827 1.23007 -6.43578e-16)
(0.871223 0.634739 0)
(1.61426 0.150901 -5.69552e-16)
(2.36087 -0.208633 4.01737e-18)
(3.07221 -0.449252 -1.17441e-15)
(3.7282 -0.606895 0)
(4.33773 -0.717585 0)
(4.91918 -0.798378 -1.19653e-16)
(5.4841 -0.849401 1.10265e-16)
(6.03602 -0.870289 -1.36992e-15)
(6.57815 -0.859008 -1.54838e-16)
(7.11357 -0.812086 6.88153e-17)
(7.63855 -0.718076 8.66228e-16)
(8.1369 -0.578688 -7.20919e-16)
(8.59914 -0.413894 -5.51181e-16)
(9.0292 -0.233765 0)
(9.43176 -0.0428193 0)
(9.80952 0.156512 0)
(10.1661 0.360913 3.18512e-18)
(10.5077 0.56833 0)
(10.8412 0.776862 0)
(11.1806 0.98688 -1.02566e-15)
(11.5349 1.19993 -1.69242e-15)
(11.9544 1.42498 2.34837e-15)
(12.4093 1.66759 -3.04431e-15)
(13.2094 1.98804 7.53772e-15)
(13.9013 2.36605 9.4917e-15)
(17.3105 3.4685 1.11816e-14)
(1.19281 11.4019 -7.01602e-19)
(1.67586 11.6934 -9.92933e-18)
(2.2079 11.9051 8.21015e-18)
(2.76205 12.0674 9.03434e-18)
(3.31675 12.2155 4.5143e-18)
(3.87021 12.4466 -1.10934e-17)
(4.38183 12.8246 6.3779e-18)
(4.81486 13.2528 1.33257e-17)
(5.11768 13.35 -2.66633e-18)
(5.13812 12.528 3.43656e-18)
(4.6452 10.3868 -1.3709e-17)
(3.51082 7.11458 -1.51255e-17)
(1.91359 3.64756 -1.11297e-17)
(0.434575 1.17257 0)
(-0.455464 0.0649788 -8.68923e-17)
(-0.978336 -0.408124 1.67196e-16)
(-1.33872 -0.594177 0)
(-1.52069 -0.647875 -3.47016e-16)
(-1.47074 -0.632446 -1.58728e-16)
(-1.22567 -0.576737 1.69785e-17)
(-0.884645 -0.501671 -1.61122e-17)
(-0.533828 -0.422838 -8.43337e-18)
(-0.196929 -0.341355 -1.32005e-16)
(0.127511 -0.270651 8.21244e-17)
(0.43382 -0.219429 0)
(0.713091 -0.186554 1.12226e-16)
(0.958343 -0.166621 -1.66776e-17)
(1.14578 -0.145459 0)
(1.21441 -0.0973508 3.89371e-16)
(1.04814 -0.000838636 8.67522e-16)
(0.560302 0.136799 -1.74933e-15)
(-0.328512 0.28219 -1.65831e-15)
(-1.29391 0.354462 -2.54602e-17)
(-1.74357 0.267796 -3.72778e-15)
(-1.36792 0.0086674 -3.66176e-15)
(0.608418 -0.586743 6.24276e-15)
(2.07111 -0.825752 0)
(7.89268 -2.26179 -7.55807e-15)
(8.90806 -2.26552 4.05991e-14)
(0.757953 11.0438 -5.3189e-18)
(0.333061 10.5918 -1.43898e-17)
(-0.0881351 9.99335 4.58414e-17)
(-0.49987 9.26321 0)
(-0.84139 8.40741 9.62911e-17)
(-1.08085 7.43653 0)
(-1.18514 6.38215 5.6913e-16)
(-1.12805 5.30411 3.38585e-16)
(-0.904056 4.26085 4.19788e-16)
(-0.529965 3.29526 0)
(-0.0408773 2.43822 -1.34195e-15)
(0.528117 1.70204 -4.33539e-16)
(1.14122 1.08929 2.29507e-15)
(1.78593 0.58525 0)
(2.44984 0.194223 -1.0597e-15)
(3.09901 -0.0919939 -3.11156e-16)
(3.71408 -0.301463 1.32612e-15)
(4.29713 -0.460313 6.95139e-16)
(4.85951 -0.580401 1.9927e-16)
(5.40968 -0.663281 -9.94962e-17)
(5.95044 -0.710678 1.1627e-15)
(6.48387 -0.723196 0)
(7.01192 -0.698916 0)
(7.53145 -0.630581 4.76227e-18)
(8.02937 -0.52028 0)
(8.4968 -0.38239 1.03676e-15)
(8.93624 -0.224283 -1.4027e-17)
(9.35193 -0.0495679 -7.6298e-17)
(9.7466 0.138959 0)
(10.1238 0.337346 -6.02103e-17)
(10.4897 0.543375 4.21563e-17)
(10.8508 0.754745 0)
(11.2206 0.971577 4.73168e-16)
(11.6073 1.1953 0)
(12.0602 1.43478 0)
(12.5459 1.69814 2.12573e-17)
(13.3752 2.03761 -8.10388e-17)
(14.0551 2.50187 -8.80105e-15)
(17.2712 3.63256 -2.16903e-14)
(2.20136 10.5945 -5.98548e-18)
(2.6324 10.8855 -1.04325e-17)
(3.09563 11.1289 1.81062e-17)
(3.56681 11.3287 2.21807e-17)
(3.99165 11.4708 0)
(4.3547 11.5818 0)
(4.66168 11.7412 5.69031e-17)
(4.94105 12.0708 -3.62871e-17)
(5.24051 12.6262 0)
(5.54824 13.1193 2.832e-17)
(5.67845 12.8762 3.92632e-18)
(5.29942 11.2031 8.94066e-18)
(4.14423 8.05928 1.32533e-17)
(2.39603 4.4294 1.49824e-17)
(0.731388 1.69084 0)
(-0.342629 0.334491 7.00328e-17)
(-0.994157 -0.242596 2.84582e-17)
(-1.38707 -0.525673 2.64041e-16)
(-1.50666 -0.672234 1.4663e-17)
(-1.38053 -0.710555 -1.37802e-17)
(-1.12414 -0.662813 1.07123e-16)
(-0.849274 -0.574546 -1.69812e-17)
(-0.595264 -0.47418 1.01843e-16)
(-0.360873 -0.382142 5.71448e-17)
(-0.147866 -0.30846 -5.11832e-18)
(0.0374033 -0.251316 -8.14287e-17)
(0.185695 -0.201802 9.55881e-19)
(0.269277 -0.139949 -8.82036e-19)
(0.213157 -0.0343754 -3.07326e-16)
(-0.0916189 0.13446 -1.07393e-17)
(-0.675136 0.340525 6.57771e-16)
(-1.51769 0.50939 -1.26364e-15)
(-2.30298 0.539872 -1.21555e-15)
(-2.59971 0.374238 -2.63977e-17)
(-2.15811 0.0341474 2.57279e-15)
(-0.335679 -0.579086 0)
(1.18822 -0.903163 6.34693e-15)
(7.06889 -2.3526 5.42923e-15)
(7.68016 -2.16465 -1.45e-14)
(1.79272 10.2677 -9.22754e-18)
(1.38121 9.87769 2.77988e-17)
(0.960126 9.37998 9.99864e-17)
(0.548076 8.7693 0)
(0.195849 8.04603 -8.95678e-17)
(-0.0707861 7.21928 0)
(-0.223225 6.31295 -5.23905e-16)
(-0.239545 5.37701 -1.20268e-17)
(-0.113884 4.45716 3.67168e-16)
(0.144066 3.58641 4.62259e-16)
(0.510267 2.79191 1.48901e-17)
(0.958321 2.08946 1.3125e-15)
(1.46285 1.482 -1.03279e-15)
(2.01318 0.966156 3.11014e-16)
(2.5951 0.549247 1.10494e-15)
(3.18117 0.226941 1.23508e-15)
(3.75289 -0.0191782 -1.11945e-15)
(4.30673 -0.209 -4.57588e-18)
(4.84778 -0.354067 0)
(5.38113 -0.458597 1.23144e-15)
(5.90852 -0.525046 6.45345e-17)
(6.43087 -0.554634 -9.89586e-16)
(6.94909 -0.546233 0)
(7.46003 -0.49481 3.55922e-18)
(7.95254 -0.401426 0)
(8.41794 -0.277528 -4.50586e-16)
(8.85727 -0.13095 0)
(9.27414 0.0338437 6.80399e-17)
(9.67116 0.213513 -2.09227e-18)
(10.0519 0.404012 1.16424e-18)
(10.4223 0.603293 -3.70407e-17)
(10.789 0.809234 -1.53609e-19)
(11.1654 1.02216 0)
(11.5596 1.24402 -6.58478e-16)
(12.02 1.48388 -1.2388e-17)
(12.5128 1.75253 2.51695e-15)
(13.342 2.09996 -1.26397e-14)
(14.0143 2.61221 -2.44471e-17)
(17.0156 3.73028 0)
(2.39226 10.0072 -9.78434e-18)
(2.7122 10.2927 -1.04339e-17)
(3.06749 10.5506 3.86017e-17)
(3.43528 10.7837 -1.34459e-16)
(3.79885 10.9701 3.09265e-17)
(4.16715 11.12 5.22334e-17)
(4.51964 11.2466 -3.17526e-17)
(4.84293 11.3922 0)
(5.14981 11.6816 -7.51094e-17)
(5.48122 12.2349 -8.43656e-18)
(5.84386 12.8753 0)
(6.06176 12.8839 -7.37928e-18)
(5.71203 11.3818 1.43234e-19)
(4.45784 8.24566 -1.03492e-17)
(2.54076 4.56278 0)
(0.755089 1.81112 -5.79397e-17)
(-0.399558 0.438362 8.03992e-17)
(-1.0731 -0.210069 -3.42286e-18)
(-1.40938 -0.58613 0)
(-1.45237 -0.773452 1.00505e-16)
(-1.30824 -0.785043 -8.67388e-17)
(-1.11747 -0.697889 -4.90339e-18)
(-0.948814 -0.582154 -7.76539e-17)
(-0.806066 -0.471324 -8.59644e-17)
(-0.688231 -0.377442 0)
(-0.600038 -0.297606 0)
(-0.552765 -0.218631 -2.09346e-17)
(-0.578563 -0.114598 -3.68744e-18)
(-0.756699 0.0484641 2.43034e-16)
(-1.15535 0.279904 -8.52796e-18)
(-1.76396 0.533728 7.29207e-18)
(-2.50732 0.70611 9.98836e-16)
(-3.12328 0.690257 0)
(-3.2985 0.451638 4.57257e-15)
(-2.81859 0.0374441 -1.48112e-17)
(-1.1096 -0.604332 0)
(0.493537 -1.04229 3.16492e-17)
(6.29752 -2.45377 0)
(6.58615 -2.09275 1.18804e-14)
(2.09423 9.69541 1.45716e-17)
(1.79674 9.33359 -6.56289e-17)
(1.48839 8.87808 7.18426e-17)
(1.17457 8.33307 9.26027e-17)
(0.899082 7.70101 -3.5731e-16)
(0.680217 6.98338 -4.28708e-16)
(0.542087 6.19584 4.74736e-16)
(0.505978 5.37866 -5.75531e-16)
(0.581131 4.56704 -3.46147e-16)
(0.764732 3.78526 -4.01758e-16)
(1.04233 3.0563 9.53256e-16)
(1.39489 2.39757 -1.1066e-15)
(1.80814 1.81047 -5.40901e-16)
(2.27581 1.29798 5.08026e-16)
(2.7827 0.87104 -1.16479e-15)
(3.30754 0.52739 2.04578e-16)
(3.83375 0.255101 0)
(4.35459 0.0396901 -8.59107e-16)
(4.87052 -0.128669 3.07476e-16)
(5.38374 -0.254771 -1.23167e-15)
(5.89486 -0.340979 0)
(6.40383 -0.388519 8.27637e-16)
(6.91047 -0.396855 6.67209e-16)
(7.4115 -0.36292 -5.59023e-16)
(7.89712 -0.287517 0)
(8.35892 -0.179734 -4.11856e-16)
(8.79666 -0.0474109 0)
(9.21316 0.105002 0)
(9.61073 0.274103 0)
(9.99267 0.456028 5.29448e-17)
(10.3647 0.648628 0)
(10.7334 0.849882 0)
(11.1117 1.06005 3.40299e-16)
(11.5076 1.28147 5.97949e-16)
(11.9687 1.52307 0)
(12.4617 1.79906 2.209e-15)
(13.2819 2.15514 4.463e-17)
(13.9424 2.71274 0)
(16.7525 3.83888 7.4088e-15)
(2.85653 9.4921 1.60864e-17)
(3.13612 9.76746 -1.27329e-17)
(3.44558 10.0244 0)
(3.76942 10.2669 -1.68434e-18)
(4.08824 10.475 1.12741e-16)
(4.39043 10.6656 -5.1285e-17)
(4.6677 10.8458 6.72075e-18)
(4.92529 11.0121 1.23577e-16)
(5.17415 11.1853 -1.30562e-17)
(5.43293 11.4678 -7.27857e-17)
(5.74749 12.0186 1.92587e-17)
(6.13753 12.7131 -2.75991e-17)
(6.37978 12.7699 -1.34806e-17)
(5.95215 11.1985 -2.35217e-17)
(4.49509 7.93652 0)
(2.40285 4.27197 -7.43048e-18)
(0.576935 1.68257 -2.83809e-17)
(-0.541457 0.3763 -1.56836e-16)
(-1.14894 -0.332669 5.79408e-17)
(-1.40569 -0.731443 -5.74782e-17)
(-1.40911 -0.848854 -8.7944e-18)
(-1.31699 -0.783515 0)
(-1.23583 -0.657958 6.19575e-17)
(-1.18456 -0.531564 4.25887e-18)
(-1.16086 -0.420529 -3.42823e-18)
(-1.169 -0.320357 -5.19418e-17)
(-1.22251 -0.213246 1.61686e-17)
(-1.35552 -0.0688222 4.42295e-17)
(-1.63636 0.14533 -2.02444e-16)
(-2.08997 0.425281 -1.4396e-17)
(-2.6804 0.707393 4.55013e-16)
(-3.31532 0.870079 8.49271e-16)
(-3.79201 0.808407 0)
(-3.87544 0.504028 2.6797e-17)
(-3.36793 0.0206251 -1.80718e-15)
(-1.73378 -0.662059 0)
(-0.0827412 -1.21944 -8.13192e-15)
(5.5745 -2.56063 0)
(5.62075 -2.04797 -1.02653e-14)
(2.59436 9.20069 -1.39095e-17)
(2.33263 8.87091 3.31554e-17)
(2.06069 8.4611 0)
(1.78474 7.9739 0)
(1.54154 7.41213 1.66468e-16)
(1.34369 6.77643 7.77456e-16)
(1.2107 6.07838 0)
(1.16029 5.35295 -5.21307e-16)
(1.20092 4.62887 -6.09817e-16)
(1.33203 3.92384 7.30191e-16)
(1.54403 3.25643 -1.97101e-17)
(1.82276 2.64288 4.57299e-16)
(2.16185 2.08438 1.73923e-18)
(2.5587 1.58628 1.27391e-15)
(2.9986 1.16024 1.18358e-15)
(3.4656 0.805668 -1.11608e-15)
(3.94578 0.51543 1.64954e-16)
(4.43119 0.279954 -3.05654e-16)
(4.91927 0.0918687 1.41347e-16)
(5.40993 -0.0530686 8.57446e-16)
(5.90261 -0.157095 1.12018e-16)
(6.39637 -0.221416 -8.96753e-17)
(6.89009 -0.245786 -5.60099e-16)
(7.38023 -0.228331 0)
(7.85795 -0.169885 2.67429e-17)
(8.31509 -0.0776376 7.29095e-16)
(8.75033 0.0410517 -4.2289e-18)
(9.16564 0.181724 4.0763e-18)
(9.56302 0.340875 0)
(9.94544 0.51464 -4.82988e-17)
(10.3183 0.700733 0)
(10.688 0.897279 0)
(11.0672 1.1045 -3.02578e-16)
(11.4635 1.32525 -5.29175e-16)
(11.9238 1.56822 0)
(12.4151 1.8514 -1.98935e-15)
(13.2233 2.21551 9.90072e-15)
(13.8715 2.81682 -3.74194e-17)
(16.4927 3.94838 -6.48079e-15)
(3.17048 9.08615 2.60721e-18)
(3.39908 9.35483 -1.30117e-17)
(3.65583 9.61404 4.28936e-17)
(3.92621 9.86746 -4.39892e-17)
(4.19502 10.0918 -7.15333e-17)
(4.46761 10.2978 0)
(4.73384 10.4957 1.13722e-16)
(4.98634 10.6884 6.34395e-18)
(5.22718 10.8755 2.64461e-17)
(5.4597 11.0644 5.07498e-17)
(5.70236 11.3553 0)
(6.02026 11.9324 6.21625e-17)
(6.43583 12.6437 2.59711e-17)
(6.64588 12.5842 3.99012e-17)
(6.02135 10.7319 0)
(4.28213 7.2706 -3.07452e-18)
(2.05116 3.72353 -2.47699e-17)
(0.299791 1.38242 5.7392e-17)
(-0.696918 0.146781 -8.04042e-17)
(-1.21471 -0.550847 7.22313e-17)
(-1.40263 -0.832293 7.35853e-18)
(-1.42783 -0.82094 -6.03386e-17)
(-1.4372 -0.696144 0)
(-1.4758 -0.558967 -6.91306e-17)
(-1.54386 -0.434611 4.40244e-18)
(-1.64603 -0.31703 5.15085e-17)
(-1.79715 -0.184383 0)
(-2.03031 -0.0038996 -3.53351e-18)
(-2.38867 0.251293 8.42953e-18)
(-2.87084 0.565313 3.62799e-16)
(-3.42648 0.860446 -3.77605e-16)
(-3.96657 1.00562 -7.52428e-16)
(-4.33677 0.899926 8.01122e-16)
(-4.35285 0.53502 1.11907e-17)
(-3.82434 -0.0150286 1.59717e-15)
(-2.24272 -0.747584 2.87574e-15)
(-0.578164 -1.42331 3.52457e-15)
(4.89451 -2.67299 -5.61497e-17)
(4.77415 -2.0286 2.81392e-17)
(2.95706 8.807 7.16756e-18)
(2.74373 8.49778 6.81415e-17)
(2.51953 8.1178 7.59862e-17)
(2.28777 7.67178 -1.44197e-16)
(2.08092 7.16337 -5.03302e-16)
(1.90847 6.59122 1.75366e-16)
(1.7871 5.96382 4.12104e-16)
(1.73259 5.31225 1.20935e-15)
(1.75254 4.66053 5.79243e-16)
(1.84766 4.0214 -6.55116e-16)
(2.01039 3.41096 -2.54025e-17)
(2.23277 2.84092 -4.11369e-16)
(2.51412 2.31386 0)
(2.85138 1.8371 -1.64843e-17)
(3.23257 1.4199 -7.03115e-16)
(3.64638 1.06254 3.19691e-16)
(4.08166 0.76163 -3.05828e-16)
(4.53052 0.511753 0)
(4.98891 0.307956 4.94406e-16)
(5.4551 0.14686 -8.93551e-16)
(5.92748 0.0268318 0)
(6.40435 -0.0531133 6.87538e-16)
(6.88386 -0.0928496 0)
(7.36213 -0.0913004 -2.98237e-17)
(7.83098 -0.0492041 2.86777e-17)
(8.28243 0.0276668 -3.40309e-16)
(8.71432 0.132778 -5.77196e-18)
(9.12783 0.261607 -3.81811e-18)
(9.52453 0.410642 9.86839e-19)
(9.90707 0.576058 -4.86049e-17)
(10.2805 0.755505 -3.93957e-17)
(10.6509 0.947249 -2.59312e-17)
(11.0307 1.15151 -2.50004e-18)
(11.4271 1.37164 9.44242e-18)
(11.8859 1.61609 0)
(12.3749 1.90667 -3.29475e-17)
(13.1688 2.2791 -4.39606e-15)
(13.8044 2.92131 1.46157e-17)
(16.2378 4.05617 -5.65592e-15)
(3.49925 8.74032 3.33365e-18)
(3.69709 9.00056 2.5583e-17)
(3.92062 9.25644 0)
(4.15766 9.51035 -6.1343e-18)
(4.39567 9.7404 -8.33306e-17)
(4.63784 9.95569 0)
(4.87308 10.1666 6.66866e-17)
(5.0974 10.3747 -2.32388e-16)
(5.31519 10.5862 2.3925e-16)
(5.52912 10.7934 -7.65457e-17)
(5.74011 10.9994 -5.46502e-17)
(5.97141 11.3206 -1.16725e-16)
(6.30733 11.9482 -6.01717e-17)
(6.74477 12.6266 -2.97919e-17)
(6.84195 12.2793 -2.85405e-18)
(5.89985 9.98991 5.48756e-18)
(3.84491 6.3462 1.71321e-17)
(1.5799 3.02178 3.21442e-17)
(0.00204797 0.942882 -4.21009e-17)
(-0.858026 -0.188777 -1.5292e-16)
(-1.27506 -0.713139 0)
(-1.43945 -0.799488 3.75588e-18)
(-1.54405 -0.692581 4.67018e-17)
(-1.67038 -0.551487 6.41322e-17)
(-1.82657 -0.418422 -3.86138e-18)
(-2.01851 -0.28689 -4.42943e-17)
(-2.26148 -0.132337 5.1736e-19)
(-2.58246 0.0779051 -3.95007e-17)
(-2.99862 0.363053 4.19158e-18)
(-3.49654 0.698233 -6.42988e-16)
(-4.01881 0.995147 1.67088e-18)
(-4.48648 1.11807 -1.00753e-17)
(-4.78043 0.969839 -7.42345e-16)
(-4.75001 0.547811 1.23279e-17)
(-4.20721 -0.0673237 -1.47119e-15)
(-2.66856 -0.85594 -5.2206e-15)
(-1.01686 -1.6467 3.14394e-15)
(4.24807 -2.7891 2.86312e-15)
(4.028 -2.02545 -9.05484e-15)
(3.31498 8.47398 -3.02021e-17)
(3.13139 8.18342 -9.73845e-17)
(2.93803 7.82928 -6.77146e-17)
(2.73734 7.41692 -1.47529e-16)
(2.55744 6.95077 3.05777e-16)
(2.40532 6.42882 -2.75666e-18)
(2.295 5.85774 -1.15436e-15)
(2.24017 5.26588 -4.66918e-16)
(2.24717 4.67386 -5.14139e-18)
(2.31709 4.09067 0)
(2.44321 3.53078 -6.8035e-16)
(2.62293 3.00212 6.73254e-16)
(2.85911 2.50774 -6.56197e-16)
(3.14673 2.05573 -3.31599e-16)
(3.4772 1.6525 2.97691e-16)
(3.84298 1.29865 2.8791e-16)
(4.23554 0.993469 1.07301e-15)
(4.64791 0.73452 -2.53692e-16)
(5.0756 0.518984 -4.55114e-16)
(5.51591 0.344603 0)
(5.96648 0.210482 -7.21883e-16)
(6.42501 0.116097 -5.61931e-16)
(6.88907 0.0617837 -6.98095e-18)
(7.35454 0.0480835 -6.26734e-17)
(7.81355 0.0744244 -2.32682e-17)
(8.25833 0.136351 3.53477e-16)
(8.68604 0.228023 -7.47846e-18)
(9.09708 0.345013 5.84065e-17)
(9.49261 0.483852 1.01147e-17)
(9.8749 0.640828 4.36236e-17)
(10.2487 0.813546 -2.64363e-18)
(10.6196 1.00041 5.05109e-17)
(10.9997 1.20168 2.30116e-16)
(11.3961 1.42119 4.3553e-16)
(11.8529 1.66718 1.97593e-17)
(12.3393 1.9652 -1.07936e-17)
(13.117 2.34619 4.03555e-15)
(13.7392 3.02555 4.65597e-15)
(15.9867 4.16162 5.16735e-15)
(3.79095 8.44996 -1.29415e-17)
(3.96068 8.70303 -1.14973e-17)
(4.15411 8.95585 -8.63021e-17)
(4.36019 9.21035 3.4048e-16)
(4.56786 9.44459 -1.64461e-16)
(4.78243 9.66617 1.52958e-16)
(4.9968 9.88261 -2.48841e-16)
(5.20473 10.095 0)
(5.40797 10.3119 -8.01014e-17)
(5.60859 10.5358 8.93578e-19)
(5.80857 10.7547 5.97648e-17)
(6.00772 10.9777 1.20157e-16)
(6.24144 11.3495 2.33497e-17)
(6.61734 12.0431 0)
(7.05276 12.5967 0)
(6.92255 11.7769 0)
(5.55676 8.97076 0)
(3.2387 5.24944 -2.27588e-17)
(1.06786 2.22506 4.12812e-17)
(-0.30048 0.422592 5.70053e-17)
(-1.01333 -0.460271 -4.11853e-17)
(-1.35148 -0.70858 3.1381e-17)
(-1.55717 -0.644141 -3.58181e-17)
(-1.76865 -0.507526 -2.72366e-18)
(-2.00847 -0.37091 -2.38488e-18)
(-2.28405 -0.22997 4.39164e-17)
(-2.6112 -0.0581203 1.23107e-17)
(-3.00459 0.174022 0)
(-3.46783 0.479122 0)
(-3.97896 0.824765 4.22975e-18)
(-4.47856 1.11518 0)
(-4.89803 1.2127 6.40262e-16)
(-5.14243 1.02284 -7.2064e-16)
(-5.08395 0.54582 -1.47958e-15)
(-4.53467 -0.13377 2.69358e-15)
(-3.03697 -0.982821 2.41922e-15)
(-1.41637 -1.88427 -2.84494e-15)
(3.62238 -2.90598 -5.48073e-15)
(3.35674 -2.02788 8.76609e-15)
(3.63323 8.19386 0)
(3.47617 7.9182 3.01057e-17)
(3.31003 7.58453 1.2603e-16)
(3.13626 7.19914 -5.35183e-16)
(2.97987 6.76708 4.28961e-16)
(2.84597 6.28581 -3.15292e-16)
(2.74681 5.76061 -5.83535e-18)
(2.69423 5.21783 3.95644e-16)
(2.69365 4.67566 4.78283e-16)
(2.7455 4.14079 0)
(2.84532 3.62435 2.98035e-16)
(2.99372 3.134 -8.91742e-16)
(3.19363 2.6728 1.45001e-15)
(3.44002 2.2469 2.75068e-16)
(3.72709 1.86075 -5.5155e-16)
(4.05011 1.51517 -5.23301e-16)
(4.40285 1.21091 -4.90792e-16)
(4.77971 0.947537 0)
(5.17645 0.723964 0)
(5.59003 0.539215 0)
(6.01763 0.393135 6.72187e-16)
(6.45659 0.285857 0)
(6.90408 0.217917 -4.5125e-16)
(7.35575 0.189798 -5.85256e-17)
(7.804 0.201113 -3.7516e-16)
(8.24112 0.248506 -3.10825e-16)
(8.66374 0.326871 0)
(9.0716 0.432038 -4.816e-17)
(9.4654 0.560594 -1.04487e-17)
(9.84703 0.708995 1.75103e-18)
(10.2208 0.874819 7.67205e-17)
(10.5921 1.05668 -4.80996e-18)
(10.9724 1.25485 -2.18504e-16)
(11.3684 1.47371 3.8975e-16)
(11.823 1.72126 0)
(12.3062 2.02664 2.78675e-17)
(13.066 2.41626 -7.14441e-17)
(13.6737 3.12866 -4.37262e-15)
(15.7385 4.26455 3.09367e-17)
(4.06743 8.20007 1.3152e-17)
(4.21573 8.44596 0)
(4.38581 8.6945 1.7203e-16)
(4.56794 8.94704 -1.68777e-16)
(4.7522 9.18151 7.6622e-17)
(4.9448 9.40668 -1.44726e-16)
(5.13873 9.62589 1.26581e-16)
(5.32793 9.84128 1.10138e-16)
(5.51408 10.0595 0)
(5.69879 10.2854 6.83174e-17)
(5.88567 10.5193 5.93462e-17)
(6.07567 10.7475 -5.54539e-17)
(6.26728 10.9932 -1.1824e-16)
(6.52238 11.4445 -2.38814e-17)
(6.9566 12.1872 6.21445e-17)
(7.32331 12.4581 2.54536e-17)
(6.81778 10.9907 -1.07566e-17)
(4.98389 7.70066 3.91257e-18)
(2.52305 4.0485 -4.80996e-18)
(0.54047 1.39556 9.23135e-18)
(-0.593363 -0.0212352 2.90083e-17)
(-1.16283 -0.531331 4.45624e-18)
(-1.48479 -0.548006 -4.82395e-18)
(-1.77812 -0.426543 -3.37641e-17)
(-2.09531 -0.291052 0)
(-2.44775 -0.145127 -3.42658e-17)
(-2.84726 0.0375769 -2.19004e-17)
(-3.30144 0.283463 -2.5657e-17)
(-3.80672 0.599737 -1.18193e-16)
(-4.33459 0.947204 5.34927e-16)
(-4.82597 1.22485 2.60719e-16)
(-5.2204 1.29441 1.0975e-17)
(-5.43906 1.06312 -6.08407e-18)
(-5.36942 0.531981 0)
(-4.82104 -0.211938 -1.26006e-15)
(-3.36739 -1.12459 0)
(-1.79085 -2.1306 0)
(3.00291 -3.01781 2.68132e-15)
(2.73149 -2.02677 -5.12e-17)
(3.93013 7.95323 -4.06034e-17)
(3.79368 7.69048 1.15714e-16)
(3.64905 7.3742 2.07529e-20)
(3.4972 7.0113 1.21865e-16)
(3.36037 6.60735 -4.06379e-16)
(3.24223 6.15965 2.95974e-16)
(3.15346 5.67243 1.57349e-17)
(3.10452 5.17055 -3.63226e-16)
(3.09979 4.6702 -4.17382e-16)
(3.1384 4.17745 -4.80815e-16)
(3.21915 3.69928 -1.01338e-15)
(3.34493 3.24357 0)
(3.51583 2.81426 -5.17674e-16)
(3.7282 2.41448 -1.34762e-17)
(3.97837 2.0473 0)
(4.26371 1.71336 -4.59514e-16)
(4.57993 1.41418 -2.18726e-16)
(4.92291 1.15041 -2.08963e-16)
(5.28913 0.92228 7.49953e-16)
(5.67563 0.729973 6.8355e-16)
(6.07949 0.57419 -7.46877e-17)
(6.4979 0.455616 5.51404e-16)
(6.9278 0.375211 1.22941e-16)
(7.36477 0.333615 -5.47536e-17)
(7.8013 0.330666 3.32424e-16)
(8.22977 0.363976 1.99413e-17)
(8.64639 0.429255 0)
(9.05029 0.522645 0)
(9.44173 0.64086 -1.75385e-18)
(9.82221 0.780573 3.68359e-18)
(10.1956 0.939377 -7.91646e-17)
(10.5669 1.11608 -4.58305e-18)
(10.9471 1.31104 -1.9807e-16)
(11.3426 1.52914 -3.68357e-16)
(11.7945 1.77825 -2.02483e-17)
(12.2739 2.09073 -7.42049e-18)
(13.0142 2.48904 -6.90014e-15)
(13.6063 3.23009 3.97103e-15)
(15.4925 4.3636 -2.84175e-17)
(4.32534 7.98355 6.11469e-18)
(4.45544 8.22286 0)
(4.60561 8.46712 -8.2799e-17)
(4.76717 8.71724 0)
(4.93096 8.95071 1.46113e-16)
(5.10373 9.17777 -1.51838e-16)
(5.27979 9.39756 -1.35917e-16)
(5.45349 9.61353 -1.07818e-16)
(5.62531 9.8315 0)
(5.79613 10.0547 8.36401e-17)
(5.96887 10.2882 -5.33025e-17)
(6.14851 10.5314 9.62794e-17)
(6.33181 10.7659 3.92094e-17)
(6.52405 11.0501 3.38227e-17)
(6.82928 11.6071 -4.01007e-17)
(7.31618 12.3167 -2.44464e-17)
(7.48223 12.0864 9.3423e-18)
(6.45768 9.87078 3.52346e-18)
(4.19721 6.23596 0)
(1.73847 2.82751 5.65615e-18)
(0.0275528 0.677907 -1.4618e-17)
(-0.862552 -0.234712 3.80906e-18)
(-1.33454 -0.398217 -7.82772e-19)
(-1.71019 -0.308413 7.11005e-17)
(-2.09694 -0.178939 -5.79198e-18)
(-2.51529 -0.0323783 5.51656e-18)
(-2.97603 0.154604 1.89661e-17)
(-3.48367 0.406824 2.6828e-17)
(-4.02909 0.726446 9.79795e-17)
(-4.57985 1.06861 -2.41419e-16)
(-5.07799 1.32856 -2.31881e-16)
(-5.46864 1.36785 -1.11919e-15)
(-5.68258 1.09451 1.24648e-15)
(-5.61556 0.509056 -1.88563e-17)
(-5.07634 -0.299416 1.20943e-15)
(-3.67482 -1.27797 -5.86561e-17)
(-2.15205 -2.37986 3.14682e-17)
(2.37322 -3.11924 -5.70611e-17)
(2.12354 -2.01985 8.80287e-15)
(4.20523 7.74497 2.46168e-17)
(4.08614 7.49324 -5.57714e-17)
(3.95966 7.19172 1.07638e-16)
(3.82639 6.84779 0)
(3.7063 6.46746 2.49611e-16)
(3.60201 6.04791 0)
(3.52295 5.59267 0)
(3.47844 5.12532 0)
(3.47165 4.66064 8.07633e-16)
(3.5016 4.20332 -4.40899e-16)
(3.56902 3.7593 4.69611e-16)
(3.67727 3.33597 0)
(3.82482 2.93652 0)
(4.00922 2.56206 -4.52671e-16)
(4.22821 2.21471 0)
(4.48061 1.89475 4.24055e-16)
(4.76377 1.60364 9.24847e-18)
(5.075 1.34278 0)
(5.41164 1.1133 -5.29881e-16)
(5.77119 0.916185 -8.01473e-16)
(6.15093 0.752876 -5.68303e-16)
(6.54805 0.624707 -5.12364e-16)
(6.95955 0.533154 8.94444e-16)
(7.38097 0.479076 0)
(7.80487 0.462732 3.12519e-16)
(8.2237 0.482582 2.97641e-16)
(8.63337 0.535123 1.13657e-16)
(9.03247 0.616857 0)
(9.42085 0.724735 -8.11648e-18)
(9.79959 0.855626 -4.20021e-17)
(10.1721 1.00727 7.77067e-17)
(10.5431 1.17865 -4.36623e-18)
(10.9228 1.37027 1.75523e-16)
(11.3175 1.58748 -3.15121e-16)
(11.7662 1.83806 6.2616e-18)
(12.2412 2.15727 -1.72075e-17)
(12.9603 2.56425 6.4126e-15)
(13.5356 3.32899 -3.69603e-15)
(15.2488 4.45818 -7.62423e-15)
(4.56862 7.7939 5.26803e-18)
(4.68366 8.027 -2.21859e-17)
(4.81724 8.26671 0)
(4.96162 8.51363 -1.54691e-16)
(5.10835 8.74491 0)
(5.26424 8.97212 0)
(5.42438 9.19158 3.85045e-18)
(5.58366 9.40669 -1.09504e-16)
(5.74183 9.62359 -1.88795e-16)
(5.89951 9.84451 -3.08524e-16)
(6.05897 10.0728 -1.30857e-16)
(6.22499 10.3155 -1.07639e-16)
(6.40107 10.5647 0)
(6.57963 10.8065 -9.89591e-17)
(6.78903 11.1584 2.76475e-17)
(7.17535 11.82 0)
(7.64941 12.323 -2.35428e-17)
(7.42474 11.3673 -3.07038e-18)
(5.79366 8.42462 0)
(3.23035 4.67576 9.80443e-18)
(0.934284 1.73492 -1.38289e-17)
(-0.424483 0.236067 0)
(-1.10617 -0.178773 -2.72198e-18)
(-1.57431 -0.151859 -5.95869e-18)
(-2.02305 -0.0362303 1.73272e-18)
(-2.49648 0.105844 4.93873e-17)
(-3.00909 0.292663 -5.23668e-19)
(-3.56395 0.545591 -2.94696e-18)
(-4.14861 0.862312 -4.22041e-18)
(-4.72858 1.1932 5.93622e-18)
(-5.24729 1.43113 2.34791e-16)
(-5.65253 1.43747 1.00899e-15)
(-5.87924 1.12028 2.319e-17)
(-5.8273 0.479409 -1.23074e-15)
(-5.30818 -0.394118 -1.06849e-15)
(-3.97131 -1.43972 -2.08611e-15)
(-2.51375 -2.62533 -2.4826e-15)
(1.7201 -3.20638 9.13551e-17)
(1.5064 -2.00996 -8.77218e-15)
(4.46273 7.56274 -4.87712e-17)
(4.35802 7.3208 -1.55907e-16)
(4.24674 7.03206 2.95815e-16)
(4.12928 6.70442 0)
(4.02355 6.34427 4.53225e-16)
(3.9315 5.94874 0)
(3.86145 5.52075 -2.73651e-16)
(3.82164 5.08288 1.2384e-15)
(3.81383 4.64967 -1.06742e-15)
(3.83826 4.22276 0)
(3.897 3.80848 8.00737e-16)
(3.99161 3.41483 7.90774e-16)
(4.12044 3.04296 0)
(4.28188 2.69272 -7.86038e-16)
(4.47454 2.36541 1.93859e-16)
(4.69835 2.06073 -1.90498e-16)
(4.95193 1.77995 1.87704e-16)
(5.23378 1.52467 3.40213e-16)
(5.54223 1.2965 -6.81026e-18)
(5.87539 1.09711 4.28388e-16)
(6.23093 0.928515 1.36326e-16)
(6.60633 0.792617 -1.22833e-16)
(6.99878 0.691291 -4.1937e-16)
(7.40389 0.625871 3.62166e-16)
(7.81432 0.597084 -2.76876e-16)
(8.22257 0.604139 -2.99365e-16)
(8.62435 0.644328 -1.07708e-16)
(9.01779 0.714586 -1.16955e-18)
(9.40233 0.812141 8.84438e-18)
(9.77869 0.934156 3.99517e-17)
(10.1498 1.07851 1.98845e-18)
(10.52 1.24441 -4.15057e-18)
(10.8988 1.43254 -1.583e-16)
(11.2922 1.64868 3.20402e-16)
(11.7371 1.90064 -1.76728e-17)
(12.207 2.22608 1.23407e-15)
(12.9035 2.64144 -3.03204e-15)
(13.4607 3.42502 0)
(15.0073 4.54817 7.34595e-15)
(4.79846 7.62641 1.08479e-17)
(4.90075 7.85366 0)
(5.02017 8.08889 0)
(5.14979 8.33235 2.86771e-16)
(5.28181 8.56096 -4.54452e-18)
(5.42275 8.78714 0)
(5.56874 9.00665 0)
(5.7152 9.21978 4.49722e-16)
(5.86132 9.43426 -5.14642e-18)
(6.00706 9.65219 -5.15015e-18)
(6.15456 9.87579 3.21106e-16)
(6.30754 10.1112 4.74236e-17)
(6.47097 10.3622 -8.9998e-17)
(6.64556 10.6131 -5.17452e-18)
(6.82271 10.8736 0)
(7.07906 11.3294 0)
(7.55244 12.0261 7.94948e-17)
(7.85811 12.0671 4.23504e-18)
(7.04038 10.2322 -4.47402e-18)
(4.81879 6.73302 -7.68536e-18)
(2.15083 3.18914 1.49771e-17)
(0.204976 0.955338 3.59173e-18)
(-0.786602 0.141577 -4.87282e-18)
(-1.3736 0.0471865 -2.17887e-17)
(-1.88369 0.134718 4.78417e-18)
(-2.4045 0.267726 -4.25733e-17)
(-2.96053 0.450722 -7.17041e-18)
(-3.55601 0.700318 2.59499e-18)
(-4.17787 1.00954 -2.27837e-18)
(-4.7915 1.32456 1.36449e-17)
(-5.34166 1.53659 1.92883e-18)
(-5.77629 1.50693 -4.8697e-16)
(-6.0306 1.14323 -1.12895e-17)
(-6.00668 0.445207 4.21808e-19)
(-5.52195 -0.493658 0)
(-4.26614 -1.60637 1.95373e-15)
(-2.8885 -2.86067 2.3448e-15)
(1.03112 -3.27901 0)
(0.857776 -2.00183 0)
(4.70465 7.40211 0)
(4.61207 7.16883 1.45866e-16)
(4.51377 6.89136 -4.59016e-16)
(4.40987 6.5779 -1.96692e-16)
(4.31659 6.23524 -4.23476e-16)
(4.23531 5.8605 0)
(4.17357 5.45606 0)
(4.13868 5.04344 -5.77978e-16)
(4.13094 4.63769 6.56577e-16)
(4.15206 4.23778 0)
(4.20503 3.84989 -3.50282e-16)
(4.28907 3.48303 -3.68994e-16)
(4.40289 3.13651 3.574e-16)
(4.54544 2.80908 3.67651e-16)
(4.71598 2.50141 -6.93341e-16)
(4.91508 2.21271 0)
(5.14238 1.94379 -1.61574e-16)
(5.39736 1.69618 5.03758e-18)
(5.67926 1.47166 7.2255e-16)
(5.98695 1.27225 -1.41504e-16)
(6.3186 1.10046 1.34503e-16)
(6.67213 0.958623 -1.05829e-16)
(7.04505 0.849026 1.48021e-16)