/*--------------------------------*- C++ -*----------------------------------*\
  =========                 |
  \\      /  F ield         | OpenFOAM: The Open Source CFD Toolbox
   \\    /   O peration     | Website:  https://openfoam.org
    \\  /    A nd           | Version:  9
     \\/     M anipulation  |
\*---------------------------------------------------------------------------*/
FoamFile
{
    format      ascii;
    class       volScalarField;
    location    "0.75";
    object      alpha.water;
}
// * * * * * * * * * * * * * * * * * * * * * * * * * * * * * * * * * * * * * //

dimensions      [0 0 0 0 0 0 0];

internalField   nonuniform List<scalar> 
2268
(
2.68323e-06
2.68265e-06
1.01497e-06
6.6741e-10
1.67472e-11
4.69305e-13
4.947e-14
1.9457e-15
6.23995e-17
2.64622e-18
1.40035e-19
8.82912e-21
6.29782e-22
4.46146e-23
2.03517e-24
1.91807e-26
-3.71771e-25
2.55134e-25
1.46804e-24
1.6322e-24
1.62428e-24
1.45256e-24
1.1053e-24
1.3126e-06
6.87206e-07
5.98912e-08
4.06009e-10
4.97375e-12
5.21743e-14
1.14484e-15
2.21826e-17
5.25347e-19
1.34498e-20
1.35278e-22
-3.66554e-40
-2.03532e-22
-8.58819e-23
-2.61952e-23
-7.37877e-24
-2.02326e-24
-5.31861e-25
-1.19951e-25
1.30961e-25
5.87222e-25
1.10223e-24
1.04569e-24
-3.53657e-13
-2.66536e-14
-6.15415e-16
1.60659e-11
1.47058e-12
5.32602e-15
1.20186e-17
9.95129e-20
-7.06276e-36
-7.34256e-21
-4.28158e-21
-9.84248e-22
-1.85161e-22
-3.3053e-23
-5.94868e-24
-1.10356e-24
-2.0042e-25
-2.96366e-26
-3.98452e-28
6.79533e-27
7.13274e-26
5.6994e-25
9.35055e-25
-1.08701e-12
-1.07055e-13
-4.19716e-15
1.44565e-14
3.31119e-15
1.73125e-17
5.57514e-35
-7.15469e-20
-4.4393e-20
-1.40192e-20
-2.77863e-21
-3.54616e-22
-3.93069e-23
-4.27816e-24
-4.61081e-25
-1.54966e-42
9.38113e-27
4.15696e-26
5.14634e-26
2.75693e-26
2.81302e-26
2.87343e-25
8.06712e-25
-2.57268e-12
-8.68749e-13
-1.2212e-13
-7.62e-14
-3.775e-15
-5.08226e-17
-6.47982e-19
-1.11342e-19
-3.93593e-20
-8.86269e-21
-1.1267e-21
-6.75462e-23
-3.58096e-24
-1.53549e-25
0
1.08212e-25
6.98326e-25
7.01106e-25
3.99412e-25
7.67124e-26
3.11135e-26
1.6722e-25
7.01431e-25
-5.09161e-12
-4.97531e-12
-6.078e-13
-6.7612e-14
-1.38184e-15
9.77647e-18
-5.89126e-20
-9.85386e-20
-2.80555e-20
-4.66228e-21
-3.74409e-22
-3.92188e-24
-1.82566e-26
5.43107e-26
9.66421e-25
5.92435e-24
1.86205e-23
1.59102e-23
5.77893e-24
3.15123e-25
3.30716e-26
1.2278e-25
6.19019e-25
-9.72032e-12
-7.29953e-12
-5.70209e-13
-3.95619e-14
-5.70115e-16
1.03845e-17
-1.2276e-19
-7.58216e-20
-1.76575e-20
-2.31845e-21
-1.38763e-22
8.14209e-25
7.82966e-26
1.29442e-24
1.12749e-23
6.36532e-23
1.85751e-22
1.76698e-22
3.89406e-23
8.03792e-25
4.43818e-26
1.29967e-25
6.04914e-25
-2.02719e-11
-9.45068e-12
-4.35648e-13
-2.26564e-14
-2.45029e-16
7.77065e-18
-1.30063e-19
-5.06111e-20
-9.81435e-21
-1.07061e-21
-5.26924e-23
3.98957e-25
3.13741e-25
3.83961e-24
3.28076e-23
1.82401e-22
5.04255e-22
5.03343e-22
2.0386e-24
4.53195e-25
5.59346e-26
1.64693e-25
5.58893e-25
1.54287e-19
1.56177e-19
1.85759e-17
5.67881e-16
7.90844e-15
6.92584e-14
4.48418e-13
2.3543e-12
1.06511e-11
4.38027e-11
1.6423e-10
5.37413e-10
1.57154e-09
3.87704e-09
8.23177e-09
1.73945e-08
4.02121e-08
8.88711e-08
1.25452e-07
2.63913e-19
7.60021e-18
7.66015e-16
1.72582e-14
1.93288e-13
1.45371e-12
8.29135e-12
3.7566e-11
1.39331e-10
4.69541e-10
1.71402e-09
6.73141e-09
2.45407e-08
7.24755e-08
1.67876e-07
2.9533e-07
4.65865e-07
9.60211e-07
2.1702e-07
5.36002e-18
7.29423e-17
4.75504e-15
1.00951e-13
1.08563e-12
7.87389e-12
4.1091e-11
1.4813e-10
3.85155e-10
9.98972e-10
6.27607e-09
3.62884e-08
1.31782e-07
4.16251e-07
1.22135e-06
3.01141e-06
6.37442e-06
1.28122e-05
3.17079e-06
6.06701e-17
4.19008e-16
1.81727e-14
3.68917e-13
3.89995e-12
2.6654e-11
1.08767e-10
2.74432e-10
6.46072e-10
2.29683e-09
1.18887e-08
1.73539e-07
8.87619e-07
1.74472e-06
4.23391e-06
1.17661e-05
3.63055e-05
9.18282e-05
4.2144e-05
3.50891e-16
1.60347e-15
5.57558e-14
1.14131e-12
1.14506e-11
5.97664e-11
1.72644e-10
4.21764e-10
1.66586e-09
8.24309e-09
4.26121e-08
2.16349e-07
4.55248e-06
1.8366e-05
1.83412e-05
3.35507e-05
7.80733e-05
0.000363095
0.000330945
1.26647e-15
5.03216e-15
1.67431e-13
3.21451e-12
2.62786e-11
9.12993e-11
2.09303e-10
8.28335e-10
3.71627e-09
1.98207e-08
9.90393e-08
4.77366e-07
2.38734e-06
6.94893e-05
0.000242749
0.000204382
0.000327574
0.000722843
0.00158848
4.07669e-15
1.44607e-14
4.89376e-13
7.53021e-12
4.61707e-11
1.43613e-10
3.52516e-10
1.46474e-09
7.23977e-09
3.8135e-08
1.86022e-07
8.92383e-07
4.09876e-06
3.22921e-05
0.00077779
0.00482654
0.00977723
0.00915925
0.00652653
1.15818e-14
3.67107e-14
1.16947e-12
1.48222e-11
6.29222e-11
1.61737e-10
6.32093e-10
2.78259e-09
1.54699e-08
8.25045e-08
4.01231e-07
1.93074e-06
9.04458e-06
3.8929e-05
0.00118668
0.00928411
0.0262565
0.0650416
0.184839
-3.88534e-11
-1.61588e-11
-2.57175e-13
-9.23517e-15
-5.66648e-17
1.93025e-18
-8.69648e-20
-2.56317e-20
-4.49119e-21
-4.64197e-22
-1.87165e-23
1.61774e-24
3.26586e-23
3.51369e-22
2.9925e-21
1.7112e-20
4.19964e-20
3.65914e-20
1.74404e-21
2.27558e-22
7.67914e-23
1.35222e-23
6.1248e-19
-6.07177e-11
-2.20279e-11
-1.67985e-13
-4.18958e-15
-9.41439e-18
1.81319e-20
-3.35727e-20
-7.04813e-21
-8.30782e-22
-6.07523e-23
1.24106e-24
7.62171e-23
9.99037e-22
9.95964e-21
7.9058e-20
4.60615e-19
1.74595e-18
4.33291e-18
9.40033e-18
2.79819e-17
1.07839e-16
7.77532e-16
7.26501e-15
-7.83825e-11
-2.59526e-11
-1.20998e-13
-1.99494e-15
1.61613e-17
-3.33364e-21
-1.13405e-20
-1.92141e-21
-1.55219e-22
1.22885e-24
1.06346e-22
1.59625e-21
1.72228e-20
1.55287e-19
1.15998e-18
7.07977e-18
3.50605e-17
1.41954e-16
4.76918e-16
1.43606e-15
4.52831e-15
1.82084e-14
7.50929e-14
-9.14042e-11
-2.79815e-11
-9.27844e-14
-9.20703e-16
4.98102e-17
-5.05735e-22
-3.61024e-21
-5.41443e-22
0
7.19841e-23
1.65547e-21
1.75076e-20
1.60613e-19
1.26997e-18
8.6072e-18
4.94399e-17
2.3719e-16
9.46074e-16
3.21384e-15
9.88532e-15
2.98699e-14
1.0227e-13
3.46011e-13
-9.99299e-11
-2.86564e-11
-7.42842e-14
-3.93168e-16
4.98195e-17
4.22569e-20
-1.07557e-21
-1.1008e-22
1.38057e-23
9.51587e-22
1.05366e-20
9.72507e-20
7.77993e-19
5.40454e-18
3.26406e-17
1.71155e-16
7.77891e-16
3.07127e-15
1.06809e-14
3.401e-14
1.04635e-13
3.4927e-13
1.14388e-12
-1.051e-10
-2.84421e-11
-6.14121e-14
-1.38457e-16
4.6241e-17
2.33173e-20
-2.58322e-22
-6.78523e-39
3.01485e-22
4.40553e-21
4.20403e-20
3.47807e-19
2.50826e-18
1.58697e-17
8.84886e-17
4.36313e-16
1.90995e-15
7.47129e-15
2.64466e-14
8.71717e-14
2.77738e-13
9.36067e-13
3.04995e-12
-1.07698e-10
-2.76967e-11
-5.20721e-14
-2.82275e-17
3.91819e-17
9.09655e-21
0
4.46712e-23
1.4235e-21
1.48971e-20
1.30193e-19
9.88907e-19
6.58962e-18
3.88504e-17
2.0407e-16
9.61384e-16
4.09292e-15
1.58911e-14
5.69466e-14
1.92562e-13
6.29902e-13
2.1242e-12
6.7599e-12
-1.08344e-10
-2.66672e-11
-4.50594e-14
7.82356e-18
2.59839e-17
2.58944e-21
5.36793e-23
3.47407e-22
4.40203e-21
4.18679e-20
3.41346e-19
2.4273e-18
1.52299e-17
8.5149e-17
4.27883e-16
1.94938e-15
8.12835e-15
3.13338e-14
1.12845e-13
3.85584e-13
1.26541e-12
4.15671e-12
1.2678e-11
-1.07541e-10
-2.55112e-11
-3.96767e-14
3.76916e-17
8.73177e-18
1.53158e-21
1.65363e-22
1.02635e-21
1.14095e-20
1.02607e-19
7.91665e-19
5.3501e-18
3.20625e-17
1.72228e-16
8.37333e-16
3.72053e-15
1.52618e-14
5.83378e-14
2.09241e-13
7.0971e-13
2.28579e-12
7.21446e-12
2.10641e-11
-1.05676e-10
-2.4324e-11
-3.55361e-14
5.24455e-17
1.58791e-18
2.19633e-21
6.68617e-22
2.52057e-21
2.60633e-20
2.25087e-19
1.66269e-18
1.07959e-17
6.24241e-17
3.25084e-16
1.54057e-15
6.71144e-15
2.71376e-14
1.02561e-13
3.63158e-13
1.20804e-12
3.78656e-12
1.1496e-11
3.21593e-11
-1.03036e-10
-2.31604e-11
-3.24416e-14
6.73086e-17
3.09296e-19
8.60028e-21
4.03004e-21
5.95676e-21
5.34365e-20
4.49288e-19
3.20999e-18
2.01806e-17
1.13357e-16
5.75527e-16
2.66963e-15
1.14277e-14
4.55156e-14
1.69341e-13
5.88065e-13
1.90942e-12
5.82794e-12
1.70895e-11
4.57519e-11
-9.98369e-11
-2.20501e-11
-3.03311e-14
9.03435e-17
3.71639e-19
5.21698e-20
2.13427e-20
1.63836e-20
1.00279e-19
8.28385e-19
5.78195e-18
3.54214e-17
1.94262e-16
9.65135e-16
4.39091e-15
1.84663e-14
7.22415e-14
2.63241e-13
8.92085e-13
2.82215e-12
8.39458e-12
2.3778e-11
6.07444e-11
-9.62385e-11
-2.10083e-11
-2.92217e-14
1.28118e-16
8.54436e-19
2.99952e-19
1.04083e-19
6.30426e-20
1.81945e-19
1.43518e-18
9.90183e-18
5.95503e-17
3.20521e-16
1.56405e-15
6.99189e-15
2.88709e-14
1.1057e-13
3.92778e-13
1.29439e-12
3.98406e-12
1.15216e-11
3.13368e-11
7.59041e-11
-9.2361e-11
-2.00417e-11
-2.91669e-14
1.87502e-16
3.14427e-18
1.46515e-18
4.98042e-19
2.82608e-19
3.70386e-19
2.38796e-18
1.64386e-17
9.7935e-17
5.20531e-16
2.50636e-15
1.10408e-14
4.47822e-14
1.67641e-13
5.79487e-13
1.856e-12
5.55399e-12
1.5538e-11
4.01719e-11
9.12366e-11
-8.82954e-11
-1.91524e-11
-3.02236e-14
2.77528e-16
1.18792e-17
6.22827e-18
2.29222e-18
1.20508e-18
1.01129e-18
3.92859e-18
2.67903e-17
1.59706e-16
8.43814e-16
4.02922e-15
1.75517e-14
7.00347e-14
2.56204e-13
8.60877e-13
2.67393e-12
7.73838e-12
2.07563e-11
5.06618e-11
1.07938e-10
-8.41109e-11
-1.83401e-11
-3.24209e-14
4.1713e-16
4.13486e-17
2.37679e-17
9.66779e-18
4.77581e-18
3.34438e-18
6.76326e-18
4.30002e-17
2.58246e-16
1.36266e-15
6.46589e-15
2.78564e-14
1.09263e-13
3.91058e-13
1.28453e-12
3.90652e-12
1.10438e-11
2.86438e-11
6.66493e-11
1.34727e-10
-7.98608e-11
-1.76037e-11
-3.57295e-14
6.53251e-16
1.32512e-16
8.27023e-17
3.69047e-17
1.77892e-17
1.11426e-17
1.33465e-17
6.75542e-17
4.05759e-16
2.13269e-15
1.00123e-14
4.25097e-14
1.6413e-13
5.80916e-13
1.90691e-12
5.84767e-12
1.6576e-11
4.19669e-11
9.16019e-11
1.68552e-10
-7.55867e-11
-1.69415e-11
-4.00203e-14
1.09596e-15
3.94647e-16
2.6512e-16
1.28247e-16
6.26049e-17
3.50916e-17
3.14054e-17
1.01264e-16
5.90378e-16
3.09285e-15
1.43633e-14
6.04562e-14
2.33534e-13
8.35776e-13
2.77676e-12
8.43166e-12
2.26275e-11
5.17363e-11
9.9745e-11
1.68217e-10
-7.13208e-11
-1.63521e-11
-4.50024e-14
1.98465e-15
1.10489e-15
7.89814e-16
4.10497e-16
2.07232e-16
1.06698e-16
8.37644e-17
1.54079e-16
7.7003e-16
4.03547e-15
1.90674e-14
8.19594e-14
3.25477e-13
1.18956e-12
3.90421e-12
1.10927e-11
2.64795e-11
5.30422e-11
9.26205e-11
1.45901e-10
-6.70871e-11
-1.58341e-11
-5.01175e-14
3.78652e-15
2.94793e-15
2.20971e-15
1.2186e-15
6.50198e-16
3.56911e-16
2.93345e-16
3.70844e-16
1.21288e-15
5.3662e-15
2.50329e-14
1.19597e-13
5.42677e-13
2.11008e-12
6.52817e-12
1.59155e-11
3.18103e-11
5.46579e-11
8.3315e-11
1.15544e-10
-6.29018e-11
-1.53867e-11
-5.43442e-14
7.40644e-15
7.41559e-15
5.87849e-15
3.39355e-15
2.0322e-15
1.46858e-15
1.42505e-15
2.43548e-15
5.23334e-15
1.27535e-14
4.07779e-14
1.75015e-13
8.41429e-13
3.45685e-12
1.04111e-11
2.37349e-11
4.31059e-11
6.63564e-11
9.25046e-11
1.21369e-10
-5.87747e-11
-1.5009e-11
-5.58965e-14
1.48612e-14
1.72012e-14
1.49315e-14
9.16616e-15
6.625e-15
6.02616e-15
8.80469e-15
2.02886e-14
4.06938e-14
7.19367e-14
1.32319e-13
3.12382e-13
9.89107e-13
3.29414e-12
9.58192e-12
2.21812e-11
4.15655e-11
6.79875e-11
1.05088e-10
1.52686e-10
-5.47116e-11
-1.47001e-11
-5.1805e-14
2.98989e-14
3.79202e-14
3.61237e-14
2.4671e-14
2.14548e-14
2.31091e-14
4.84555e-14
1.2892e-13
2.7369e-13
4.73159e-13
7.23337e-13
1.07525e-12
1.76191e-12
3.471e-12
7.3178e-12
1.48777e-11
2.91036e-11
5.26775e-11
8.85087e-11
1.39959e-10
-5.07181e-11
-1.44587e-11
-3.76771e-14
5.85845e-14
8.16331e-14
8.33582e-14
6.64461e-14
6.39321e-14
8.53968e-14
2.16926e-13
6.13633e-13
1.36189e-12
2.42836e-12
3.66894e-12
4.88028e-12
6.00176e-12
7.32053e-12
9.82079e-12
1.47051e-11
2.07775e-11
3.00672e-11
4.68926e-11
7.91413e-11
-4.68014e-11
-1.4284e-11
-1.26806e-14
1.11003e-13
1.72693e-13
1.86202e-13
1.74239e-13
1.81184e-13
2.79051e-13
7.29826e-13
2.13094e-12
5.0105e-12
9.35809e-12
1.46129e-11
2.0214e-11
2.62731e-11
3.20151e-11
3.48365e-11
3.16816e-11
3.3175e-11
3.61336e-11
4.24829e-11
5.05194e-11
-4.2972e-11
-1.41747e-11
1.66694e-15
2.18055e-13
3.52502e-13
4.10905e-13
4.40182e-13
5.01599e-13
7.98409e-13
1.89465e-12
5.13749e-12
1.23167e-11
2.46365e-11
4.20252e-11
6.43034e-11
9.36384e-11
1.34654e-10
1.66861e-10
1.62855e-10
1.45568e-10
1.62282e-10
1.41196e-10
9.91913e-11
-3.92413e-11
-1.41239e-11
3.37072e-14
4.14609e-13
6.97092e-13
8.92966e-13
1.07595e-12
1.34812e-12
2.13538e-12
4.60251e-12
1.10025e-11
2.39486e-11
4.74716e-11
8.45443e-11
1.37234e-10
2.13651e-10
3.31082e-10
4.30873e-10
4.09736e-10
3.79045e-10
3.85117e-10
3.84417e-10
3.75981e-10
-3.562e-11
-1.41173e-11
9.2999e-14
7.5116e-13
1.34251e-12
1.9134e-12
2.58171e-12
3.53638e-12
5.62236e-12
1.17819e-11
2.61606e-11
5.09462e-11
9.31069e-11
1.58678e-10
2.48823e-10
3.69821e-10
4.87584e-10
4.95451e-10
4.93069e-10
4.61472e-10
4.12927e-10
3.72022e-10
3.52213e-10
-3.21152e-11
-1.41286e-11
1.87496e-13
1.2904e-12
2.47435e-12
3.91658e-12
5.90253e-12
8.94903e-12
1.45622e-11
3.13576e-11
6.93323e-11
1.25169e-10
1.91675e-10
2.60721e-10
3.23486e-10
3.76118e-10
4.22026e-10
4.24722e-10
5.66919e-10
1.22557e-09
1.34517e-09
7.24562e-10
3.53745e-10
-2.8731e-11
-1.41149e-11
3.25188e-13
2.12756e-12
4.41496e-12
7.70624e-12
1.27995e-11
2.05004e-11
3.45431e-11
7.36471e-11
1.60988e-10
2.87055e-10
4.03164e-10
4.80015e-10
5.46218e-10
6.65373e-10
7.45018e-10
6.62625e-10
6.33609e-10
6.60486e-10
6.66917e-10
6.7918e-10
4.22357e-08
-2.5466e-11
-1.40077e-11
5.6041e-13
3.56363e-12
8.23823e-12
1.63344e-11
2.99815e-11
5.05682e-11
9.04122e-11
1.77267e-10
3.14517e-10
4.37085e-10
4.85305e-10
5.06649e-10
5.94454e-10
1.12616e-09
2.9328e-09
4.57761e-09
4.8282e-09
4.06439e-09
1.98114e-09
1.7793e-09
2.29496e-09
-2.23161e-11
-1.37244e-11
9.8194e-13
6.64132e-12
1.59232e-11
3.19673e-11
5.61781e-11
9.00141e-11
1.44945e-10
2.30393e-10
3.40668e-10
4.2556e-10
4.42381e-10
4.42739e-10
4.57999e-10
5.61886e-10
1.36937e-09
4.30038e-09
5.20605e-09
5.20605e-09
4.56992e-09
2.30309e-09
1.98085e-09
-1.90795e-11
-1.28486e-11
6.00711e-13
7.8116e-12
1.8169e-11
3.36572e-11
5.41561e-11
8.02381e-11
1.09395e-10
1.28114e-10
1.32399e-10
1.37529e-10
1.47383e-10
1.48107e-10
1.55529e-10
1.62709e-10
2.68977e-10
8.32733e-10
1.49718e-09
1.36114e-09
1.31702e-09
1.37909e-09
1.2766e-07
-1.33917e-11
-9.29273e-12
-3.62011e-11
7.38889e-14
9.87016e-12
1.86235e-11
2.65813e-11
2.91453e-11
2.89328e-11
2.95827e-11
3.53935e-11
1.33585e-10
1.15951e-09
1.1569e-08
1.62516e-08
9.18392e-09
8.55131e-10
7.69639e-10
1.20106e-09
1.24865e-09
1.24903e-09
1.52926e-08
3.41628e-08
-3.74586e-08
-4.12694e-09
-6.93233e-10
-4.08721e-10
-2.37926e-10
-1.04676e-10
4.66278e-28
2.02653e-11
2.56669e-11
6.55006e-10
5.8944e-09
7.61439e-08
1.06196e-06
1.824e-06
1.64459e-06
3.73565e-07
1.59247e-09
4.33768e-10
1.21994e-09
1.24865e-09
1.68857e-09
2.48825e-09
2.6184e-09
-8.05172e-08
-2.55123e-08
-5.46746e-09
-1.4641e-09
-5.21938e-10
-2.14729e-10
-8.47817e-11
-1.96394e-11
5.03937e-08
9.17871e-07
1.36116e-05
3.3924e-05
4.51351e-05
2.25617e-05
1.29466e-06
3.22119e-07
7.23499e-08
1.82961e-08
5.63213e-09
2.35581e-09
2.11679e-09
2.76559e-09
2.85964e-09
-1.68279e-12
-4.01651e-15
3.08012e-23
1.92507e-24
3.42407e-05
3.26505e-05
4.32663e-06
1.9911e-05
7.23114e-05
0.000219713
0.00044923
0.000372225
6.11802e-05
9.05734e-06
2.7756e-06
7.79928e-07
2.52327e-07
1.03626e-07
2.38181e-07
8.99121e-05
0.000109798
0.000110533
0.000110323
0.00285147
0.00145125
0.000972517
0.00116378
0.000717709
0.00115232
0.00190463
0.0035541
0.00649004
0.00371715
0.000330622
0.000145082
6.43112e-05
3.36801e-05
3.64653e-06
1.20451e-06
4.82101e-07
2.74151e-07
9.98316e-07
1.70932e-05
4.92141e-05
4.85509e-05
3.19274e-05
0.00335753
0.00335753
0.00322578
0.00130787
0.000632173
0.000662014
0.0187814
0.0196388
0.0111456
0.00107794
0.000753642
0.000438624
0.000199846
4.3452e-05
1.06181e-05
2.55656e-06
8.56837e-07
4.82418e-07
8.14195e-07
1.02261e-06
1.56287e-06
2.82359e-06
3.21354e-06
0.000795973
0.00313437
0.00188673
0.000611173
0.000633482
0.00639023
0.0243747
0.0180373
0.0174299
0.0248048
0.0275027
0.0174282
0.0182221
0.13379
0.360821
0.387826
0.344412
0.3333
0.334748
0.340014
0.409
0.54219
0.528864
7.48e-05
0.000364215
0.0001181
0.000846778
0.000871843
0.000871451
0.114997
0.250071
0.254334
0.256032
0.255179
0.120383
0.055452
0.380068
0.588947
0.594894
0.598998
0.602255
0.604831
0.606934
0.607695
0.607463
0.606243
5.15293e-05
5.15293e-05
8.84205e-05
0.000696821
0.000788167
0.000842935
0.00353716
0.00917621
0.0148115
0.0141353
0.00927507
0.00466373
0.00466373
0.0140063
0.0311533
0.0491211
0.0440743
0.0461048
0.0393713
0.0411111
0.0391457
0.0462647
0.0383274
5.22069e-16
1.00128e-14
2.79225e-14
3.33859e-14
2.70405e-14
6.36904e-14
6.92533e-14
6.42119e-14
1.80096e-13
3.5042e-13
3.63337e-13
3.09687e-13
7.53079e-13
1.41099e-12
1.60584e-12
1.84741e-12
2.44938e-12
4.51148e-12
5.49267e-12
8.39576e-12
6.45914e-12
1.15882e-11
1.4955e-11
2.46059e-11
1.39178e-11
2.39288e-11
3.22671e-11
5.32946e-11
2.5429e-11
4.24553e-11
5.87152e-11
9.18024e-11
4.12301e-11
6.64476e-11
9.15313e-11
1.3537e-10
6.09916e-11
9.37602e-11
1.26699e-10
1.76637e-10
8.36422e-11
1.22783e-10
1.62945e-10
2.16942e-10
1.0688e-10
1.50733e-10
1.96436e-10
2.52591e-10
1.28515e-10
1.75632e-10
2.24911e-10
2.80095e-10
1.47662e-10
1.95127e-10
2.43904e-10
2.95596e-10
1.67754e-10
2.16056e-10
2.65395e-10
3.16991e-10
2.02412e-10
2.54315e-10
3.06039e-10
3.57662e-10
2.35156e-10
2.82782e-10
3.28855e-10
3.73263e-10
2.30596e-10
2.74887e-10
3.18241e-10
3.60135e-10
1.9118e-10
2.24043e-10
2.56907e-10
2.8909e-10
1.39332e-10
1.54669e-10
1.69173e-10
1.82585e-10
1.40364e-10
1.52225e-10
1.7235e-10
2.12531e-10
1.86024e-10
2.00886e-10
2.14773e-10
2.29302e-10
1.832e-10
2.05836e-10
2.21679e-10
2.30225e-10
1.1458e-10
1.38966e-10
1.59889e-10
1.79788e-10
5.93838e-11
6.74548e-11
7.59409e-11
8.64949e-11
8.18032e-11
8.13446e-11
8.3082e-11
8.64271e-11
3.61377e-10
3.4234e-10
3.10495e-10
2.69408e-10
3.48547e-10
3.46475e-10
3.48806e-10
3.57065e-10
3.50137e-10
3.47604e-10
3.49405e-10
3.51439e-10
7.39161e-08
7.56924e-08
7.64157e-08
7.65664e-08
5.26305e-09
5.32894e-08
7.69753e-08
7.7379e-08
2.11701e-09
4.7546e-09
1.02581e-08
1.01637e-08
3.79818e-07
3.94239e-07
4.3519e-07
4.44718e-07
2.43063e-08
4.19064e-09
6.98952e-09
6.06836e-07
2.777e-09
3.09208e-09
7.01943e-09
2.72336e-08
2.81035e-09
2.75618e-09
4.59119e-09
8.55472e-09
0.00010644
2.57307e-05
7.69468e-09
1.43228e-08
2.02935e-05
1.16832e-05
2.51251e-06
1.17619e-06
2.8173e-06
2.49019e-06
2.33389e-06
2.38234e-06
0.447493
0.598205
0.616934
0.617635
0.421313
0.128242
0.139989
0.54891
0.0319796
0.0302174
0.0298423
0.0384177
3.12065e-14
3.75732e-13
6.6415e-12
3.87732e-11
1.16704e-10
3.50041e-10
1.46065e-09
7.69144e-09
4.23977e-08
2.21423e-07
1.13229e-06
5.40066e-06
5.18497e-05
0.000608771
0.00243085
0.00974644
0.0244428
0.0902026
0.61271
3.99926e-13
4.79534e-12
2.78028e-11
8.75494e-11
2.4232e-10
9.78929e-10
5.10696e-09
2.9281e-08
1.67367e-07
8.67949e-07
4.56349e-06
0.000103685
0.000617153
0.00181638
0.00262761
0.00181136
0.00247109
0.0590927
0.742617
3.30721e-12
1.83254e-11
5.95209e-11
1.58069e-10
6.34476e-10
3.11849e-09
1.82136e-08
1.05439e-07
5.96516e-07
3.20575e-06
7.81053e-05
0.000620051
0.000917934
0.000544072
1.02495e-05
6.43292e-08
6.43308e-08
0.025481
0.742619
1.35945e-11
4.25589e-11
1.0364e-10
3.77804e-10
1.63917e-09
9.53548e-09
5.48573e-08
3.15902e-07
1.73367e-06
4.1455e-05
0.000356883
0.000476917
0.000221807
6.53563e-08
6.52475e-08
6.43837e-08
6.43307e-08
0.0150124
0.742617
3.58585e-11
8.51776e-11
1.97588e-10
7.76377e-10
3.94878e-09
2.25432e-08
1.2824e-07
7.25749e-07
8.92182e-06
0.000157708
0.000256553
6.0011e-05
6.64547e-08
6.55789e-08
6.51372e-08
9.12807e-08
6.43838e-08
0.00594891
0.742573
7.28267e-11
1.45504e-10
3.61471e-10
1.41189e-09
7.96478e-09
4.50945e-08
2.59764e-07
1.51439e-06
6.05321e-05
0.00013525
2.3256e-05
6.94514e-08
6.67898e-08
6.64547e-08
7.00726e-08
1.19482e-07
6.47978e-08
6.71026e-08
0.724273
1.2008e-10
2.07391e-10
5.504e-10
2.2778e-09
1.29764e-08
7.41543e-08
4.24332e-07
2.16213e-05
6.21575e-05
3.62549e-05
2.47532e-07
7.55928e-08
6.94562e-08
6.72559e-08
6.7052e-08
1.1968e-07
6.71042e-08
7.42257e-08
0.586774
1.64581e-10
2.48916e-10
7.58734e-10
3.61348e-09
2.09943e-08
1.23482e-07
8.65524e-07
3.02117e-05
5.92006e-05
1.94257e-06
3.96373e-07
9.38744e-08
7.0937e-08
2.10967e-07
6.62182e-08
8.1944e-08
7.61836e-08
7.87569e-08
0.541663
2.18888e-10
3.06088e-10
8.83637e-10
4.23926e-09
2.45869e-08
1.44556e-07
4.3869e-06
3.58266e-05
3.62957e-05
3.39104e-06
1.70201e-06
1.72514e-09
8.83272e-08
4.53042e-07
6.62182e-08
6.75313e-08
6.7577e-07
8.32313e-08
0.695563
2.83549e-10
3.98563e-10
8.64454e-10
4.47724e-09
2.56076e-08
1.29854e-07
5.38175e-06
2.78725e-05
2.24944e-05
7.22531e-06
9.7219e-06
2.51553e-07
2.15252e-07
4.67777e-07
6.75308e-08
7.10344e-08
1.73321e-06
1.01606e-07
0.823741
3.43325e-10
4.92567e-10
8.06231e-10
4.28787e-09
2.39449e-08
1.10949e-07
5.07387e-06
1.59599e-05
1.6073e-05
6.08074e-05
0.0003373
6.77212e-05
6.54826e-07
4.73856e-07
7.85457e-08
8.03192e-08
5.7435e-07
2.53176e-07
0.846202
3.75917e-10
5.16208e-10
6.83585e-10
3.79005e-09
2.18169e-08
1.04809e-07
3.34287e-06
9.11954e-06
1.48061e-05
0.0002035
0.00130296
0.000653093
3.03566e-06
4.56722e-07
8.61486e-08
1.06866e-07
3.11999e-07
2.38551e-06
0.860021
3.82079e-10
4.86973e-10
5.32229e-10
3.28938e-09
2.16167e-08
1.28728e-07
9.47658e-07
2.84441e-06
1.3691e-05
0.000555241
0.00130291
0.000992858
6.6979e-06
2.6996e-07
1.10801e-07
-1.48925e-07
1.23846e-06
3.88898e-05
0.906302
3.89019e-10
4.97253e-10
5.91826e-10
2.61014e-09
1.85526e-08
1.03247e-07
2.67077e-07
4.35033e-07
3.16763e-06
0.00120682
0.00130396
0.00052169
1.63966e-06
2.08939e-07
1.48437e-07
2.23786e-08
0.00651437
0.0326012
0.950264
4.13869e-10
5.42123e-10
7.01819e-10
1.74298e-09
1.31124e-08
4.67509e-08
9.21358e-08
1.14051e-07
1.31597e-07
0.00129406
0.00130257
0.000333474
9.65305e-07
4.01913e-07
2.00258e-07
8.80138e-06
0.0271498
0.476992
0.975685
4.48528e-10
5.65978e-10
7.15396e-10
1.26755e-09
6.02674e-09
1.82844e-08
3.26247e-08
2.16119e-08
6.26763e-08
0.00120343
0.00129745
0.00033381
8.44816e-07
6.86454e-07
2.68917e-07
5.36267e-07
0.0455514
0.915866
0.989582
4.52333e-10
5.58629e-10
6.7562e-10
9.27148e-10
2.58781e-09
9.71394e-09
3.45325e-09
1.66876e-09
2.03153e-06
0.00108747
0.00127983
0.000128659
5.06111e-07
3.4323e-07
1.44832e-06
2.33809e-06
0.0365512
0.952317
0.99428
4.31774e-10
5.21784e-10
6.0978e-10
7.67411e-10
1.4567e-09
4.39463e-09
3.39919e-09
-1.1838e-08
0.000673123
0.00108763
0.000615252
1.72527e-05
3.22851e-07
3.01597e-07
3.52682e-06
6.75432e-05
0.0218452
0.89199
0.994686
3.4466e-10
4.15162e-10
4.86086e-10
6.096e-10
1.06657e-09
3.03852e-09
3.1668e-09
1.29847e-05
0.00105478
0.00107898
2.03268e-05
3.01684e-07
1.87256e-07
2.82097e-07
7.39776e-06
0.00033044
0.0192643
0.860007
0.994686
2.02956e-10
2.2441e-10
2.34875e-10
2.44438e-10
5.86128e-10
3.10401e-09
3.62937e-09
0.000134359
0.00102167
0.000631617
2.08876e-05
1.23612e-07
1.19693e-07
1.90042e-07
4.0126e-05
0.00075805
0.0369763
0.884747
0.994686
3.08842e-10
4.20033e-10
5.93123e-10
1.25319e-08
1.24115e-07
3.63383e-09
9.34916e-09
0.00018501
0.000141027
-2.98924e-10
1.97006e-07
7.63416e-08
1.1983e-07
1.19849e-07
0.000175816
0.00167954
0.084426
0.96914
0.994664
2.49013e-10
2.57365e-10
4.35079e-09
1.8474e-07
4.89647e-07
5.78574e-08
3.43031e-07
2.84079e-10
2.30744e-10
2.20267e-10
2.96472e-10
1.64006e-08
7.65474e-08
1.43646e-07
0.000421588
0.00526314
0.184405
0.996237
0.994618
2.37529e-10
2.48967e-10
7.69879e-09
2.42484e-07
4.91006e-07
3.3845e-07
6.19438e-07
1.17732e-09
2.27238e-10
2.29901e-10
3.63228e-10
6.89091e-08
1.89187e-07
2.83208e-06
0.000587326
0.0261494
0.46778
0.996246
0.996129
2.2322e-10
2.88892e-10
4.18506e-09
1.69024e-08
1.367e-07
1.7293e-07
7.4292e-09
2.27211e-10
2.27211e-10
1.64501e-10
8.2437e-10
1.20575e-06
8.17041e-07
2.67136e-05
0.000556999
0.0898373
0.801765
0.996253
0.99624
1.15444e-10
1.66581e-10
4.15274e-10
1.29508e-10
1.31358e-10
1.32033e-10
1.62783e-10
2.33256e-10
2.27252e-10
6.20861e-10
1.46259e-06
5.54021e-06
1.76592e-06
2.44945e-05
0.000292554
0.141376
0.913036
0.996264
0.996253
9.84463e-11
1.17333e-10
1.22736e-10
1.24637e-10
1.29508e-10
1.40424e-10
1.76509e-10
2.83122e-10
2.32453e-10
1.47554e-08
5.90002e-06
7.8431e-06
2.89469e-06
1.24151e-05
0.000173753
0.155718
0.918626
0.996279
0.996264
2.23479e-10
1.81698e-10
1.83175e-10
2.17123e-10
3.1067e-10
3.23785e-10
4.56009e-10
3.22092e-10
2.60774e-10
6.47101e-08
7.65154e-06
8.88569e-06
5.15763e-06
9.90574e-06
0.000150544
0.157373
0.90574
0.996287
0.99616
3.53916e-10
2.92935e-10
3.91359e-10
8.15787e-10
1.17164e-09
1.15376e-09
7.66707e-10
3.37673e-10
3.95116e-10
1.42127e-07
7.39711e-06
8.22348e-06
7.09137e-06
1.08882e-05
0.000175173
0.160014
0.905126
0.996279
0.9958
4.27696e-10
5.77691e-10
1.39285e-09
2.25513e-09
2.29793e-09
2.07351e-09
1.01394e-09
4.67105e-10
9.50931e-10
1.67719e-07
3.63285e-06
3.09205e-06
4.53402e-06
8.63354e-06
0.000174629
0.179634
0.944944
0.996258
0.995878
5.04011e-08
6.21669e-09
7.05204e-09
4.71665e-09
2.62786e-09
2.58871e-09
1.1146e-09
8.58273e-10
4.14582e-09
1.55281e-07
2.8735e-07
8.79495e-07
2.79022e-06
6.62164e-06
0.00016708
0.19514
0.985737
0.99624
0.996229
7.74267e-08
7.74267e-08
7.74267e-08
4.40508e-08
1.62333e-08
5.40454e-09
1.19518e-09
1.46057e-09
8.52122e-08
2.04924e-07
2.53829e-07
2.92245e-07
1.73681e-06
5.5515e-06
0.000150923
0.196359
0.996196
0.996234
0.996231
1.03473e-08
1.31538e-08
5.33653e-08
5.58184e-08
5.58184e-08
1.52743e-08
1.50684e-09
3.80893e-07
1.52284e-06
8.38245e-07
2.92244e-07
3.42724e-07
8.21416e-07
7.01963e-06
0.000184743
0.245834
0.995304
0.996241
0.996227
1.337e-07
1.81663e-08
3.24206e-08
2.89865e-08
8.60061e-09
5.6426e-09
2.55119e-09
1.6229e-06
1.87588e-06
1.56529e-06
3.56167e-07
6.1014e-07
2.99905e-06
2.7329e-05
0.000281524
0.39565
0.990528
0.996259
0.996225
6.90121e-07
4.76823e-07
1.91293e-08
1.09713e-08
8.61359e-09
6.71947e-09
5.65965e-09
1.71189e-06
1.87588e-06
1.77979e-06
6.64487e-07
1.45743e-06
1.25121e-05
7.32183e-05
0.00209829
0.526646
0.989771
0.995972
0.996051
4.55547e-08
4.45562e-08
6.04047e-06
1.37176e-05
7.91195e-06
7.32416e-07
1.5505e-07
6.49304e-07
1.15882e-06
1.03737e-06
1.25576e-06
6.09614e-06
5.57151e-05
0.00021903
0.000619253
0.63373
0.993906
0.996009
0.995973
1.36657e-06
1.9412e-05
2.39053e-05
2.40759e-05
2.39777e-05
2.17007e-05
1.80449e-06
5.29575e-07
6.81502e-07
8.09423e-07
2.99745e-06
3.62673e-05
0.000247143
0.000689744
0.00719236
0.781396
0.99597
0.996123
0.996074
1.21262e-05
2.37918e-05
2.40598e-05
2.4039e-05
2.3657e-05
8.8281e-06
2.85707e-07
4.07298e-07
5.15496e-07
2.86953e-06
1.92331e-05
0.000175679
0.000728628
0.00196963
0.346885
0.939971
0.996043
0.99615
0.996164
2.75542e-06
3.64474e-06
3.65958e-06
3.08942e-06
1.4655e-06
2.85259e-07
2.85707e-07
2.66701e-07
3.66035e-06
-2.95708e-06
0.000242819
0.000941126
0.00334009
0.148996
0.762525
0.99518
0.996179
0.996164
0.996193
1.44329e-06
1.08045e-06
7.23895e-07
4.86921e-07
3.9683e-07
3.43509e-07
2.85707e-07
0.003827
0.0171671
0.0418595
0.0870351
0.163936
0.368866
0.825934
0.995657
0.996212
0.996219
0.996191
0.996153
0.590226
0.488127
0.487392
0.530823
0.566932
0.576117
0.589843
0.614859
0.649157
0.69924
0.77666
0.900282
0.992439
0.995516
0.996158
0.996153
0.996189
0.996152
0.99615
0.823175
0.840423
0.848918
0.857429
0.864678
0.876888
0.884795
0.893707
0.903664
0.921206
0.940744
0.978608
0.995138
0.995893
0.996081
0.996153
0.996155
0.996156
0.99615
0.0481191
0.0639315
0.0653863
0.0610582
0.060254
0.0710067
0.0762139
0.0728381
0.0750823
0.088284
0.0967437
0.123181
0.139914
0.176809
0.186616
0.229704
0.262814
0.308422
0.299745
)
;

boundaryField
{
    leftWall
    {
        type            zeroGradient;
    }
    rightWall
    {
        type            zeroGradient;
    }
    lowerWall
    {
        type            zeroGradient;
    }
    atmosphere
    {
        type            inletOutlet;
        inletValue      uniform 0;
        value           nonuniform List<scalar> 
46
(
5.15293e-05
5.15293e-05
8.84205e-05
0
0
0
0.00353716
0
0.0148115
0.0141353
0
0.00466373
0.00466373
0.0140063
0
0.0491211
0
0.0461048
0
0.0411111
0
0.0462647
0
0.0319796
0.0302174
0
0
0
0.0639315
0.0653863
0
0
0.0710067
0.0762139
0
0
0.088284
0
0.123181
0
0.176809
0
0.229704
0
0.308422
0
)
;
    }
    defaultFaces
    {
        type            empty;
    }
}


// ************************************************************************* //
