/*--------------------------------*- C++ -*----------------------------------*\
  =========                 |
  \\      /  F ield         | OpenFOAM: The Open Source CFD Toolbox
   \\    /   O peration     | Website:  https://openfoam.org
    \\  /    A nd           | Version:  9
     \\/     M anipulation  |
\*---------------------------------------------------------------------------*/
FoamFile
{
    format      ascii;
    class       surfaceScalarField;
    location    "0.75";
    object      alphaPhi0.water;
}
// * * * * * * * * * * * * * * * * * * * * * * * * * * * * * * * * * * * * * //

dimensions      [0 3 -1 0 0 0 0];

internalField   nonuniform List<scalar> 
4432
(
-5.06434e-06
5.06434e-06
-8.93171e-06
3.86737e-06
-1.05179e-05
1.58618e-06
-1.10698e-05
5.51928e-07
-1.14332e-05
3.63374e-07
-1.18936e-05
4.60425e-07
-1.24947e-05
6.01058e-07
-1.31906e-05
6.95893e-07
-1.39147e-05
7.24171e-07
-1.46066e-05
6.91847e-07
-1.52191e-05
6.12495e-07
-1.57229e-05
5.03817e-07
-1.61062e-05
3.83334e-07
-1.6363e-05
2.56726e-07
-1.64805e-05
1.17577e-07
-1.64463e-05
-3.4275e-08
-1.62447e-05
-2.01453e-07
-1.57885e-05
-4.01443e-07
-1.45495e-05
-7.03942e-07
-1.32453e-05
-1.32356e-06
-1.05618e-05
-2.70823e-06
-5.99542e-06
-4.76164e-06
-5.99633e-06
-5.14181e-06
1.02061e-05
-7.62572e-06
6.35127e-06
-8.72457e-06
2.68503e-06
-9.49653e-06
1.32389e-06
-1.02563e-05
1.12312e-06
-1.10897e-05
1.29382e-06
-1.19955e-05
1.50684e-06
-1.29258e-05
1.62626e-06
-1.38265e-05
1.62483e-06
-1.46536e-05
1.51897e-06
-1.53729e-05
1.33174e-06
-1.59601e-05
1.09099e-06
-1.64e-05
8.23317e-07
-1.6674e-05
5.3067e-07
-1.67517e-05
1.95288e-07
-1.65949e-05
-1.91102e-07
-1.6151e-05
-6.45365e-07
-1.53114e-05
-1.2409e-06
-1.3696e-05
-2.12697e-06
-1.1299e-05
-3.50716e-06
-8.25271e-06
-5.78237e-06
-4.60835e-06
-8.55729e-06
-1.06056e-05
-4.14518e-06
1.43513e-05
-6.00299e-06
8.20907e-06
-7.23586e-06
3.9179e-06
-8.32156e-06
2.40958e-06
-9.38097e-06
2.18254e-06
-1.04543e-05
2.36713e-06
-1.15362e-05
2.5888e-06
-1.25921e-05
2.68214e-06
-1.35836e-05
2.61634e-06
-1.44809e-05
2.41626e-06
-1.52569e-05
2.10773e-06
-1.58892e-05
1.72332e-06
-1.63606e-05
1.29466e-06
-1.66462e-05
8.16248e-07
-1.67053e-05
2.544e-07
-1.64882e-05
-4.08166e-07
-1.5933e-05
-1.20054e-06
-1.49266e-05
-2.24731e-06
-1.32953e-05
-3.75826e-06
-1.07713e-05
-5.99541e-06
-7.51131e-06
-9.1981e-06
-3.59161e-06
-1.2926e-05
-1.41981e-05
-3.10359e-06
1.74549e-05
-4.67564e-06
9.78113e-06
-6.0534e-06
5.29566e-06
-7.4051e-06
3.76128e-06
-8.72319e-06
3.50063e-06
-1.0003e-05
3.64695e-06
-1.1233e-05
3.81878e-06
-1.23881e-05
3.83724e-06
-1.34449e-05
3.67319e-06
-1.43871e-05
3.35836e-06
-1.51938e-05
2.91443e-06
-1.58456e-05
2.37511e-06
-1.63266e-05
1.77569e-06
-1.66104e-05
1.10004e-06
-1.66508e-05
2.9485e-07
-1.63965e-05
-6.62464e-07
-1.57926e-05
-1.80443e-06
-1.47422e-05
-3.29771e-06
-1.30891e-05
-5.41138e-06
-1.06607e-05
-8.42384e-06
-7.30629e-06
-1.25525e-05
-3.09372e-06
-1.71386e-05
-1.72929e-05
-2.05077e-06
1.95057e-05
-3.50644e-06
1.12368e-05
-5.07103e-06
6.86024e-06
-6.68385e-06
5.3741e-06
-8.2405e-06
5.05728e-06
-9.70426e-06
5.11071e-06
-1.10628e-05
5.1773e-06
-1.23003e-05
5.07478e-06
-1.34074e-05
4.78024e-06
-1.43799e-05
4.33091e-06
-1.52023e-05
3.73675e-06
-1.58583e-05
3.03116e-06
-1.63369e-05
2.25427e-06
-1.66129e-05
1.37603e-06
-1.66373e-05
3.19309e-07
-1.6363e-05
-9.36759e-07
-1.57537e-05
-2.41379e-06
-1.47394e-05
-4.312e-06
-1.31889e-05
-6.96186e-06
-1.09181e-05
-1.06946e-05
-7.65251e-06
-1.58181e-05
-3.2185e-06
-2.15716e-05
-2.05086e-05
-1.01427e-06
2.052e-05
-2.46906e-06
1.26916e-05
-4.27746e-06
8.66864e-06
-6.15649e-06
7.25313e-06
-7.93505e-06
6.83583e-06
-9.56172e-06
6.73739e-06
-1.10297e-05
6.6453e-06
-1.23335e-05
6.3786e-06
-1.34771e-05
5.92378e-06
-1.44676e-05
5.32143e-06
-1.52923e-05
4.56147e-06
-1.59393e-05
3.67817e-06
-1.64052e-05
2.72011e-06
-1.66684e-05
1.63928e-06
-1.6678e-05
3.28846e-07
-1.63947e-05
-1.22003e-06
-1.58096e-05
-2.99883e-06
-1.4888e-05
-5.23363e-06
-1.35329e-05
-8.31693e-06
-1.158e-05
-1.26475e-05
-8.69734e-06
-1.87008e-05
-4.25984e-06
-2.60064e-05
-2.47688e-05
-6.27462e-08
2.05827e-05
-1.58341e-06
1.42122e-05
-3.68216e-06
1.07674e-05
-5.83029e-06
9.40127e-06
-7.81416e-06
8.81977e-06
-9.58181e-06
8.50482e-06
-1.11386e-05
8.20184e-06
-1.24912e-05
7.73098e-06
-1.36568e-05
7.08919e-06
-1.46522e-05
6.31671e-06
-1.54649e-05
5.37409e-06
-1.60886e-05
4.30185e-06
-1.6531e-05
3.16251e-06
-1.67757e-05
1.88397e-06
-1.67683e-05
3.21498e-07
-1.64804e-05
-1.50799e-06
-1.59367e-05
-3.54255e-06
-1.51421e-05
-6.02818e-06
-1.40426e-05
-9.41644e-06
-1.2544e-05
-1.41461e-05
-1.04568e-05
-2.07881e-05
-6.82683e-06
-2.96345e-05
-3.1596e-05
6.86376e-07
1.98963e-05
-8.94136e-07
1.57928e-05
-3.29019e-06
1.31634e-05
-5.70516e-06
1.18162e-05
-7.8749e-06
1.09895e-05
-9.75697e-06
1.03869e-05
-1.13786e-05
9.82345e-06
-1.2761e-05
9.11336e-06
-1.3932e-05
8.26023e-06
-1.49186e-05
7.30339e-06
-1.57023e-05
6.15817e-06
-1.62867e-05
4.88582e-06
-1.66946e-05
3.56981e-06
-1.69142e-05
2.10348e-06
-1.6885e-05
2.92263e-07
-1.65901e-05
-1.80291e-06
-1.60924e-05
-4.04018e-06
-1.54367e-05
-6.68397e-06
-1.46107e-05
-1.02424e-05
-1.36298e-05
-1.51269e-05
-1.27001e-05
-2.17178e-05
-1.12712e-05
-3.10629e-05
-4.28718e-05
-3.26484e-05
3.26157e-05
-7.74121e-05
4.47485e-05
-0.000100255
2.2761e-05
-0.000109624
9.28177e-06
-0.000112923
3.25617e-06
-0.000114528
1.66779e-06
-0.000114694
2.15589e-06
-0.000117227
2.55398e-06
-0.000119294
2.00997e-06
-0.000118657
-6.93984e-07
-0.000113506
-5.61372e-06
-0.000101319
-1.27167e-05
-8.18183e-05
-1.96706e-05
-5.93906e-05
-2.23271e-05
-3.89875e-05
-2.04288e-05
-2.09067e-05
-1.7326e-05
-5.21933e-06
-1.5065e-05
6.01857e-06
-1.16822e-05
5.79283e-06
-5.21042e-05
8.47034e-05
-9.03365e-05
8.29389e-05
-0.000105254
3.75916e-05
-0.000110162
1.41516e-05
-0.000111924
5.02415e-06
-0.000113026
2.76904e-06
-0.000114243
3.38356e-06
-0.000115111
3.46275e-06
-0.000115266
2.18265e-06
-0.000114082
-1.87501e-06
-0.000109408
-1.02846e-05
-9.86365e-05
-2.34854e-05
-8.16805e-05
-3.66226e-05
-6.23643e-05
-4.16354e-05
-4.3878e-05
-3.8362e-05
-2.7627e-05
-3.08138e-05
-1.37752e-05
-2.82989e-05
-2.65076e-06
-2.16234e-05
3.45652e-06
-4.66072e-05
0.000131251
-6.84709e-05
9.89715e-05
-8.58684e-05
2.73702e-05
-9.98601e-05
1.24538e-05
-0.000105656
5.07556e-06
-0.00010789
3.07494e-06
-0.000109185
4.27318e-06
-0.000109754
4.02129e-06
-0.000109253
1.6819e-06
-0.000107628
-3.49697e-06
-0.000103317
-1.45918e-05
-9.39297e-05
-3.2869e-05
-7.89811e-05
-5.15626e-05
-6.19467e-05
-5.86561e-05
-4.62873e-05
-5.3985e-05
-3.06853e-05
-4.54048e-05
-1.82558e-05
-4.04019e-05
-7.94865e-06
-3.12053e-05
-4.4481e-06
-2.84677e-05
0.000157783
-1.47317e-05
6.41703e-05
-1.19599e-05
8.04131e-06
-1.43781e-05
4.98884e-06
-3.94099e-05
2.78171e-06
-7.64664e-05
1.18665e-06
-9.6061e-05
3.76446e-06
-0.000102666
3.81127e-06
-0.000103662
8.00727e-07
-0.00010164
-5.73826e-06
-9.73117e-05
-1.89163e-05
-8.8823e-05
-4.13528e-05
-7.52865e-05
-6.50869e-05
-5.99561e-05
-7.39373e-05
-4.63708e-05
-6.73195e-05
-3.48379e-05
-5.64104e-05
-2.20423e-05
-5.28838e-05
-1.02947e-05
-4.29795e-05
-1.47649e-05
-5.55063e-06
0.000161204
-1.34102e-06
1.60208e-05
-8.93632e-07
4.41584e-06
-1.40928e-06
2.05507e-06
-3.07785e-06
1.43541e-06
-4.80876e-06
9.66686e-07
-1.24243e-05
1.56592e-06
-3.72163e-05
8.83604e-07
-6.6501e-05
3.75863e-07
-8.36799e-05
-2.90584e-06
-8.93227e-05
-1.83776e-05
-8.27991e-05
-4.8181e-05
-7.05254e-05
-7.73958e-05
-5.58676e-05
-8.72596e-05
-4.28009e-05
-7.58862e-05
-3.42368e-05
-5.91292e-05
-2.45224e-05
-6.06585e-05
-1.17692e-05
-5.75555e-05
-2.65538e-05
1.5087e-05
0.000143957
5.22125e-06
2.23935e-05
2.05198e-06
4.71338e-06
3.0077e-06
9.12453e-06
4.4762e-06
1.09748e-05
1.32086e-06
2.80061e-06
-4.01156e-07
1.96655e-06
-1.64288e-06
9.72927e-07
-2.68773e-06
7.04114e-07
-1.24449e-05
-3.86576e-07
-4.72398e-05
-5.78284e-06
-7.19586e-05
-3.84726e-05
-6.34754e-05
-8.68623e-05
-4.85647e-05
-9.95462e-05
-3.11666e-05
-7.82252e-05
-3.04893e-05
-5.33684e-05
-2.41885e-05
-6.50197e-05
-1.2234e-05
-6.83693e-05
-3.88459e-05
2.14628e-05
0.000111048
3.64705e-06
4.33044e-05
9.23954e-06
2.11313e-05
3.98508e-05
2.87594e-05
5.12256e-05
1.99004e-05
3.58221e-05
2.35556e-05
5.75351e-06
2.83922e-05
7.81862e-07
5.22189e-06
-9.13629e-07
1.47754e-06
-2.9416e-06
4.81552e-07
-8.12827e-06
-1.76562e-06
-4.25008e-05
-2.25394e-05
-5.23477e-05
-8.43539e-05
-4.05897e-05
-0.000107398
-2.69227e-05
-7.60325e-05
-2.38757e-05
-5.91445e-05
-2.08117e-05
-6.0182e-05
-1.10505e-05
-7.72627e-05
-5.31858e-05
2.34491e-05
5.98019e-05
3.67956e-05
4.22677e-05
5.20069e-05
2.85711e-05
5.71411e-05
3.3609e-05
6.09937e-05
2.301e-05
6.41733e-05
2.7338e-05
2.89337e-05
5.20396e-05
3.56528e-06
2.48761e-05
-2.12777e-07
4.10747e-06
-2.31521e-06
1.37832e-06
-4.19375e-06
-1.00696e-06
-2.05777e-05
-1.68827e-05
-3.6787e-05
-7.74459e-05
-3.4514e-05
-0.000111829
-2.36752e-05
-8.83789e-05
-1.91976e-05
-6.63004e-05
-1.80858e-05
-6.41049e-05
-1.08498e-05
-8.44949e-05
-6.40212e-05
1.6633e-06
2.88542e-06
-5.00546e-07
3.52995e-06
-4.52953e-06
3.91044e-06
-9.03587e-06
4.34961e-06
-1.38584e-05
5.23454e-06
-1.87528e-05
6.37362e-06
-2.36173e-05
7.46712e-06
-2.81133e-05
8.36735e-06
-3.0704e-05
9.37107e-06
-3.27162e-05
9.3156e-06
-3.42205e-05
7.66238e-06
-3.52708e-05
5.93612e-06
-3.59826e-05
4.28126e-06
-3.63544e-05
2.47506e-06
-3.62021e-05
1.40622e-07
-3.55174e-05
-2.48834e-06
-3.45886e-05
-4.9692e-06
-3.36227e-05
-7.64983e-06
-3.26826e-05
-1.11826e-05
-3.20481e-05
-1.57613e-05
-3.23591e-05
-2.14063e-05
-3.48133e-05
-2.86055e-05
-3.43408e-05
-4.33385e-05
-6.08782e-08
3.60353e-09
-1.12713e-07
1.64971e-09
-3.6909e-07
2.43032e-10
-8.53926e-07
0
-1.7521e-06
0
-3.31348e-06
0
-5.65126e-06
0
-9.04093e-06
0
-1.42517e-05
2.91511e-07
-2.05726e-05
1.61186e-06
-2.71301e-05
2.81281e-06
-3.25751e-05
3.45116e-06
-3.54568e-05
3.30224e-06
-3.58306e-05
2.14322e-06
-3.54486e-05
-2.2236e-07
-3.4548e-05
-3.38608e-06
-3.36961e-05
-5.81996e-06
-3.3136e-05
-8.20739e-06
-3.27795e-05
-1.15369e-05
-3.27297e-05
-1.58094e-05
-3.3141e-05
-2.09902e-05
-3.36262e-05
-2.81143e-05
-3.65166e-05
-3.14539e-05
3.26993e-10
9.71966e-11
-2.56443e-09
1.97383e-10
-7.17746e-09
2.81369e-10
-1.46044e-08
2.30237e-10
-2.80539e-08
1.05871e-10
-4.96316e-08
0
-7.43594e-08
0
-1.05115e-07
0
-3.07403e-07
0
-1.15341e-06
0
-2.72747e-06
0
-4.76987e-06
0
-7.47139e-06
0
-1.27702e-05
0
-2.10463e-05
-2.63462e-07
-2.63675e-05
-1.0681e-06
-2.7633e-05
-1.94585e-06
-2.83548e-05
-3.84435e-06
-2.96527e-05
-7.39643e-06
-3.0653e-05
-1.14434e-05
-3.28739e-05
-1.50863e-05
-3.62917e-05
-2.13228e-05
-3.39269e-05
-3.75093e-05
7.55697e-12
2.41503e-12
3.87106e-11
6.9149e-12
5.14326e-11
1.52059e-11
-1.75202e-11
1.66139e-11
-1.77063e-10
1.48553e-11
-4.523e-10
8.57563e-12
-8.47102e-10
0
-1.54469e-09
0
-4.52314e-09
0
-1.3706e-08
0
-2.36837e-08
0
-2.57142e-08
0
-2.19537e-08
3.87636e-11
-3.21807e-08
3.05127e-11
-3.64521e-08
-4.31506e-16
-2.58849e-07
-1.75062e-14
-1.63287e-06
-1.35492e-13
-4.38735e-06
-2.14144e-12
-7.42004e-06
-5.85169e-11
-9.20253e-06
-1.61393e-09
-1.13876e-05
-4.34628e-08
-1.57061e-05
-7.63045e-07
-4.3771e-06
-3.01695e-05
1.22885e-13
6.059e-14
1.47686e-12
2.17037e-13
5.71278e-12
5.87743e-13
8.93534e-12
7.61596e-13
1.02007e-11
7.73177e-13
8.31546e-12
5.82604e-13
3.34309e-12
3.01361e-13
-3.51738e-12
1.79367e-13
-1.98394e-11
6.20197e-13
-6.51744e-11
0
-1.0002e-10
0
-9.53867e-11
0
-3.07214e-11
0
-3.53844e-15
0
-4.40986e-15
0
-8.58498e-15
-1.37965e-14
-8.21243e-14
-6.32416e-14
-2.0432e-12
-1.96174e-13
-5.50925e-11
-5.86059e-12
-1.56084e-09
-1.18071e-10
-4.38794e-08
-1.39481e-09
-8.13261e-07
7.09856e-11
4.0246e-09
-5.32953e-06
1.88895e-15
3.87015e-15
4.50987e-14
8.58651e-15
2.30385e-13
2.06693e-14
4.54408e-13
3e-14
6.47932e-13
3.36908e-14
7.36507e-13
2.98218e-14
7.37943e-13
2.35125e-14
7.82754e-13
2.45967e-14
1.04219e-12
4.23659e-14
1.04541e-12
3.03562e-14
4.0764e-13
0
-1.83427e-13
0
-2.099e-13
0
-1.63841e-13
6.48485e-14
-1.04795e-13
4.52569e-14
-1.27024e-13
1.22223e-14
0
-1.35978e-16
-6.81805e-13
-1.1123e-14
-8.76655e-12
-3.73979e-13
-1.74086e-10
1.05907e-14
-2.70794e-09
3.5228e-10
-2.1841e-08
4.59373e-09
9.09563e-09
-1.57741e-07
1.02539e-16
3.7671e-15
1.67653e-15
4.99566e-16
8.28866e-15
1.74348e-15
1.73432e-14
3.10974e-15
2.64697e-14
4.22868e-15
3.24081e-14
4.7355e-15
3.58595e-14
4.83407e-15
4.19568e-14
5.37254e-15
5.99808e-14
7.57744e-15
6.96479e-14
9.35256e-15
5.04805e-14
5.16362e-15
1.60844e-14
8.35977e-16
3.40178e-15
3.06276e-16
-2.92558e-15
2.81228e-16
-4.80683e-15
3.55031e-16
-4.75403e-15
4.46164e-15
-2.87221e-15
3.10324e-15
-7.44543e-14
9.57719e-15
-1.56308e-12
1.65116e-13
-2.83776e-11
4.54018e-12
-1.32147e-10
8.7139e-11
-1.24965e-09
1.05378e-09
5.60235e-09
-3.65029e-08
-1.78117e-17
-2.42806e-16
1.12897e-16
3.75792e-16
4.54644e-16
1.41448e-15
9.94612e-16
2.59672e-15
1.59225e-15
3.6681e-15
2.03659e-15
4.33137e-15
2.34514e-15
4.56621e-15
2.81434e-15
4.95055e-15
4.11858e-15
6.34781e-15
5.02213e-15
8.47034e-15
3.40926e-15
6.73645e-15
1.0558e-15
3.17393e-15
2.71431e-16
1.08422e-15
4.66201e-17
5.06039e-16
1.31901e-16
2.62786e-16
8.21972e-16
-1.51882e-15
-1.14128e-14
-1.64629e-15
-3.51383e-15
1.6782e-15
-7.36608e-14
4.06452e-14
-1.66395e-12
1.06874e-12
-2.59823e-11
2.08446e-11
-4.40164e-10
2.93425e-10
2.85659e-09
-9.48712e-09
-1.01399e-17
-1.24683e-16
-2.10169e-17
-1.24543e-16
-4.7106e-17
-1.80792e-16
-9.52055e-17
-2.71709e-16
-1.67238e-16
-3.86251e-16
-2.83268e-16
-5.61481e-16
-4.93565e-16
-8.75966e-16
-7.98766e-16
-1.30886e-15
-1.08888e-15
-1.68792e-15
-1.08326e-15
-1.63157e-15
-1.01644e-15
-1.54464e-15
-1.19869e-15
-1.94579e-15
-1.15874e-15
-2.20094e-15
-8.74602e-16
-2.30536e-15
-4.18891e-16
-2.48207e-15
1.97341e-16
-2.66399e-15
-7.31568e-16
-2.07235e-15
0
4.95636e-16
0
6.74797e-15
0
6.24198e-14
0
1.27469e-12
0
1.97351e-11
3.09561e-10
0
-2.47524e-18
-3.14725e-17
-6.03387e-18
-3.64195e-17
-2.00549e-17
-7.8689e-17
-5.41163e-17
-1.58041e-16
-1.15714e-16
-2.72692e-16
-2.12633e-16
-4.27571e-16
-3.60108e-16
-6.43791e-16
-5.72352e-16
-9.38894e-16
-8.4206e-16
-1.30187e-15
-1.09197e-15
-1.6361e-15
-1.23486e-15
-1.8562e-15
-1.24415e-15
-1.96632e-15
-1.04982e-15
-1.86566e-15
-7.70112e-16
-1.70993e-15
-4.62791e-16
-1.56713e-15
-1.3418e-16
-1.27894e-15
-9.89427e-17
-6.24816e-16
-3.23211e-16
9.2722e-16
-7.12741e-16
3.87006e-15
-9.54312e-15
1.54673e-15
-6.54024e-13
1.19648e-13
-1.30279e-11
2.41214e-12
3.21467e-11
-1.0677e-10
-4.93676e-19
-7.22844e-18
-1.14224e-18
-7.56572e-18
-3.96422e-18
-1.67704e-17
-1.19169e-17
-3.71079e-17
-2.76677e-17
-6.88888e-17
-5.36288e-17
-1.13e-16
-9.37116e-17
-1.74286e-16
-1.52838e-16
-2.59365e-16
-2.33747e-16
-3.7249e-16
-3.25729e-16
-5.01577e-16
-4.00411e-16
-6.15485e-16
-4.25194e-16
-6.79126e-16
-3.73815e-16
-6.53592e-16
-2.78599e-16
-5.72868e-16
-1.65149e-16
-4.44881e-16
-5.4943e-17
-2.34713e-16
3.64054e-17
1.68073e-16
-8.31445e-17
9.19425e-16
-2.82012e-16
1.61531e-15
-5.13816e-17
2.10998e-15
-4.64177e-14
1.62214e-14
-9.04396e-13
3.07291e-13
4.76576e-12
-1.50337e-11
-9.47083e-20
-1.76984e-18
-2.10715e-19
-1.64009e-18
-7.06575e-19
-3.38535e-18
-2.19348e-18
-7.56028e-18
-5.12853e-18
-1.39029e-17
-9.84447e-18
-2.23001e-17
-1.69227e-17
-3.35024e-17
-2.71948e-17
-4.87557e-17
-4.14952e-17
-6.9461e-17
-5.84786e-17
-9.40983e-17
-7.48235e-17
-1.19337e-16
-8.21278e-17
-1.34414e-16
-7.57498e-17
-1.32545e-16
-5.71111e-17
-1.12326e-16
-2.77996e-17
-6.54652e-17
2.5401e-17
2.16863e-17
6.00275e-17
1.80819e-16
7.08947e-17
1.85813e-16
5.62523e-17
2.21333e-16
5.93768e-17
4.12265e-16
-3.36769e-16
3.31547e-15
-1.21234e-14
7.53048e-14
1.14567e-12
-3.3771e-13
-1.76261e-20
-4.69978e-19
-4.10587e-20
-4.01533e-19
-1.34795e-19
-7.66497e-19
-4.06287e-19
-1.60458e-18
-8.97637e-19
-2.72063e-18
-1.59995e-18
-3.97894e-18
-2.53943e-18
-5.4429e-18
-3.76175e-18
-7.22251e-18
-5.38357e-18
-9.56512e-18
-7.02409e-18
-1.18951e-17
-9.26946e-18
-1.54028e-17
-9.99868e-18
-1.68028e-17
-9.44069e-18
-1.65757e-17
-6.9251e-18
-1.3162e-17
-1.26132e-18
-2.69627e-18
1.27194e-17
1.92794e-17
1.59674e-17
1.34319e-17
1.40916e-17
8.3606e-18
1.93448e-17
1.13118e-17
5.78116e-17
2.83076e-17
1.86976e-15
3.35364e-16
5.20653e-14
7.5341e-15
1.51759e-13
7.37191e-13
-2.81589e-21
-1.23697e-19
-7.55657e-21
-9.94619e-20
-2.52246e-20
-1.77978e-19
-7.25289e-20
-3.38654e-19
-1.48228e-19
-5.13853e-19
-2.37518e-19
-6.59358e-19
-3.31555e-19
-7.78567e-19
-4.25044e-19
-8.80862e-19
-5.35014e-19
-1.01314e-18
-5.6928e-19
-1.0153e-18
-7.95749e-19
-1.37437e-18
-7.95329e-19
-1.36638e-18
-7.14772e-19
-1.25409e-18
-4.32783e-19
-7.95712e-19
7.66878e-19
7.24008e-19
1.27453e-18
3.85278e-19
1.11439e-18
2.87561e-19
1.11213e-18
3.3025e-19
2.05471e-18
6.03915e-19
6.95937e-18
1.86407e-18
1.4572e-16
2.92585e-17
5.52792e-15
5.70062e-16
1.25122e-14
1.21888e-13
-3.23998e-22
-2.96626e-20
-1.16889e-21
-2.2238e-20
-4.09548e-21
-3.73091e-20
-1.13371e-20
-6.42245e-20
-2.15068e-20
-8.6778e-20
-3.07247e-20
-9.63068e-20
-3.67458e-20
-9.51754e-20
-3.93356e-20
-8.82291e-20
-4.187e-20
-8.44316e-20
-3.24899e-20
-6.07755e-20
-4.8966e-20
-8.73189e-20
-4.18368e-20
-7.28883e-20
-2.88606e-20
-5.02282e-20
-2.44415e-21
-4.33418e-21
5.6118e-20
1.47147e-20
4.975e-20
7.19227e-21
6.41748e-20
1.13281e-20
8.73701e-20
1.84168e-20
1.85531e-19
3.93936e-20
6.73224e-19
1.28729e-19
1.23357e-17
1.93812e-18
3.55967e-16
5.02927e-17
7.57632e-16
9.75843e-15
-1.51963e-23
-6.15686e-21
-1.4332e-22
-4.22331e-21
-5.44493e-22
-6.59185e-21
-1.46956e-21
-1.02664e-20
-2.60178e-21
-1.23362e-20
-3.30532e-21
-1.17547e-20
-3.34796e-21
-9.57352e-21
-2.97594e-21
-7.20663e-21
-2.61104e-21
-5.57639e-21
-1.39289e-21
-2.71127e-21
-2.21926e-21
-4.04689e-21
-1.43921e-21
-2.5169e-21
-2.87389e-22
-4.91717e-22
1.77899e-21
2.12486e-21
1.67474e-21
1.81593e-22
2.24107e-21
2.84746e-22
3.79864e-21
5.35552e-22
6.27677e-21
1.02734e-21
1.50034e-20
2.67531e-21
5.77224e-20
1.09865e-20
9.95795e-19
1.40204e-19
2.7769e-17
3.52802e-18
6.42567e-17
5.75468e-16
1.03786e-24
-1.05402e-21
-1.37114e-23
-6.47602e-22
-5.76583e-23
-9.32693e-22
-1.52381e-22
-1.31336e-21
-2.52691e-22
-1.40543e-21
-2.85522e-22
-1.1478e-21
-2.45437e-22
-7.70433e-22
-1.80491e-22
-4.68286e-22
-1.2713e-22
-2.84841e-22
-4.65911e-23
-9.3346e-23
-7.51638e-23
-1.38537e-22
-3.0072e-23
-5.21951e-23
3.51641e-23
2.7816e-23
5.92141e-23
5.27743e-24
6.22645e-23
5.99703e-24
1.04356e-22
1.09168e-23
2.02643e-22
2.44685e-23
4.19297e-22
7.78349e-23
1.35362e-21
4.79203e-22
7.34392e-21
3.95012e-21
9.64667e-20
3.72156e-20
2.20618e-18
4.27499e-19
6.36186e-18
4.33657e-17
2.44087e-25
-1.40314e-22
-1.04257e-24
-7.50913e-23
-4.73934e-24
-9.89761e-23
-1.21413e-23
-1.2627e-22
-1.88721e-23
-1.21146e-22
-1.90656e-23
-8.54742e-23
-1.42744e-23
-4.85728e-23
-8.81396e-24
-2.41952e-23
-4.84501e-24
-1.12433e-23
-1.21374e-24
-2.47057e-24
-1.87661e-24
-3.45157e-24
-3.28595e-25
-5.59414e-25
9.55766e-25
8.21091e-26
1.31557e-24
9.76908e-26
2.29339e-24
1.8909e-25
4.43233e-24
4.57141e-25
1.22745e-23
2.63888e-24
5.8342e-23
2.79093e-23
4.92108e-22
3.22187e-22
4.51937e-21
3.32209e-21
4.24596e-20
3.17662e-20
4.38097e-19
3.13172e-19
3.55269e-18
5.71848e-18
1.48097e-26
-1.35693e-23
-6.88674e-26
-6.03138e-24
-2.91044e-25
-7.19496e-24
-6.99984e-25
-8.36897e-24
-1.01914e-24
-7.3155e-24
-9.33444e-25
-4.55977e-24
-6.25859e-25
-2.26558e-24
-3.34347e-25
-9.5522e-25
-1.46395e-25
-3.46556e-25
-2.33002e-26
-4.7503e-26
-3.31524e-26
-6.00488e-26
1.1658e-26
3.16791e-27
2.33467e-26
1.59434e-27
3.92203e-26
2.72456e-27
8.09067e-26
7.42175e-27
2.89734e-25
7.03953e-26
2.7373e-24
1.17409e-24
3.44913e-23
1.88584e-23
4.15623e-22
2.55905e-22
4.43055e-21
2.91138e-21
5.24841e-20
3.85321e-20
5.93168e-19
4.53035e-19
5.06526e-18
6.16336e-18
-6.1656e-29
-9.08383e-25
-3.92735e-27
-3.08858e-25
-1.26152e-26
-3.26575e-25
-2.72484e-26
-3.49712e-25
-3.73323e-26
-2.86818e-25
-3.22818e-26
-1.66638e-25
-2.02473e-26
-7.61827e-26
-9.73534e-27
-2.84053e-26
-3.54393e-27
-8.4201e-27
-2.69961e-28
-5.43322e-28
-3.59593e-28
-6.33146e-28
3.6635e-28
6.24392e-29
6.03558e-28
3.59684e-29
1.14084e-27
9.2385e-29
5.52456e-27
1.24827e-27
8.42769e-26
3.05359e-26
1.50349e-24
6.58554e-25
2.37458e-23
1.14814e-23
3.22285e-22
1.65466e-22
3.92741e-21
2.14395e-21
6.97321e-20
4.11655e-20
1.05666e-18
7.77108e-19
9.98276e-18
1.16174e-17
-1.6333e-28
-4.57922e-26
-1.95416e-28
-1.15315e-26
-4.41793e-28
-1.06936e-26
-8.19768e-28
-1.05188e-26
-1.03622e-27
-8.12651e-27
-8.49917e-28
-4.4845e-27
-5.05268e-28
-1.92805e-27
-2.23287e-28
-6.52676e-28
-6.81033e-29
-1.59836e-28
1.02104e-30
1.5749e-30
1.55063e-30
2.17316e-30
7.66789e-30
4.60859e-31
1.37182e-29
8.67951e-31
7.15713e-29
1.41034e-29
1.55683e-27
4.70377e-28
3.65348e-26
1.26121e-26
7.3486e-25
2.6452e-25
1.2546e-23
4.61981e-24
1.82321e-22
6.86328e-23
2.61858e-21
1.07456e-21
6.8653e-20
3.61522e-20
1.615e-18
9.97701e-19
1.40417e-17
1.93161e-17
-1.47978e-29
-1.86654e-27
-7.96653e-30
-3.4527e-28
-1.31943e-29
-2.79569e-28
-2.06902e-29
-2.51317e-28
-2.36199e-29
-1.81542e-28
-1.81877e-29
-9.52018e-29
-1.02111e-29
-3.86444e-29
-4.13096e-30
-1.18898e-29
-9.75175e-31
-2.22931e-30
1.35507e-31
5.14857e-32
1.1041e-31
2.47732e-32
1.50173e-31
9.68476e-33
5.93101e-31
1.06751e-31
1.77522e-29
4.55096e-30
5.26308e-28
1.45996e-28
1.31379e-26
3.6528e-27
2.80289e-25
7.81271e-26
4.89414e-24
1.34597e-24
7.30908e-23
2.00129e-23
1.29127e-21
4.05615e-22
5.86247e-20
2.59341e-20
1.93194e-18
9.70371e-19
1.39017e-17
2.35948e-17
-8.02399e-31
-6.45011e-29
-2.64831e-31
-8.78464e-30
-3.40806e-31
-6.1984e-30
-4.53706e-31
-5.06313e-30
-4.61705e-31
-3.38446e-30
-3.29692e-31
-1.67491e-30
-1.7308e-31
-6.38698e-31
-6.23897e-32
-1.74474e-31
-9.36745e-33
-2.06328e-32
3.89936e-33
2.69826e-34
3.02591e-33
1.90674e-34
3.62726e-33
6.11821e-34
1.33944e-31
3.04624e-32
4.87976e-30
1.13601e-30
1.49124e-28
3.35921e-29
3.98746e-27
8.9006e-28
8.76296e-26
1.91702e-26
1.5018e-24
3.18932e-25
2.28717e-23
4.90241e-24
5.46057e-22
1.51239e-22
4.5282e-20
1.77209e-20
1.85202e-18
8.635e-19
1.25239e-17
2.25824e-17
-3.2754e-32
-1.94897e-30
-7.37141e-33
-1.9692e-31
-7.6852e-33
-1.20944e-31
-8.7821e-33
-8.9283e-32
-7.91949e-33
-5.46662e-32
-5.19088e-33
-2.52841e-32
-2.52143e-33
-8.98049e-33
-7.97575e-34
-2.14931e-33
-8.10605e-35
-1.70838e-34
2.95878e-35
9.63997e-37
3.35403e-35
3.04866e-36
6.70399e-34
1.28942e-34
3.10079e-32
6.33685e-33
1.14061e-30
2.1627e-31
3.74143e-29
6.85329e-30
1.0429e-27
1.84578e-28
2.27822e-26
3.89393e-27
3.8613e-25
6.64416e-26
6.41398e-24
1.24157e-24
2.50694e-22
7.10444e-23
3.4204e-20
1.20742e-20
1.59206e-18
6.42469e-19
9.19982e-18
1.91411e-17
-1.09794e-33
-5.25699e-32
-1.76657e-34
-3.98271e-33
-1.53038e-34
-2.12723e-33
-1.51626e-34
-1.41243e-33
-1.20896e-34
-7.84957e-34
-7.21453e-35
-3.35804e-34
-3.21041e-35
-1.09976e-34
-8.87494e-36
-2.29773e-35
-7.40964e-37
-1.49024e-36
8.25035e-37
1.35542e-38
3.01929e-36
4.79106e-37
1.48606e-34
2.87021e-35
6.19883e-33
1.0308e-33
2.38341e-31
3.65159e-32
8.13487e-30
1.16975e-30
2.28356e-28
3.12027e-29
4.99774e-27
6.86035e-28
9.29774e-26
1.46973e-26
2.06093e-24
4.43895e-25
1.46984e-22
4.18147e-23
2.46039e-20
7.64605e-21
1.18986e-18
4.12507e-19
6.04915e-18
1.42182e-17
-3.14218e-35
-1.28417e-33
-3.72528e-36
-7.38784e-35
-2.72236e-36
-3.42822e-35
-2.35612e-36
-2.03912e-35
-1.65972e-36
-1.02062e-35
-8.95612e-37
-3.99732e-36
-3.61712e-37
-1.19426e-36
-8.72417e-38
-2.17376e-37
-6.08869e-39
-1.17025e-38
1.78834e-38
1.24624e-39
4.92523e-37
8.4921e-38
2.41402e-35
3.6204e-36
1.06836e-33
1.40904e-34
4.24754e-32
5.01306e-33
1.4746e-30
1.61244e-31
4.22569e-29
4.60405e-30
1.04101e-27
1.31681e-28
2.67224e-26
4.60821e-27
9.94678e-25
2.32068e-25
9.87705e-23
2.59313e-23
1.60096e-20
4.29651e-21
7.95015e-19
2.41257e-19
4.0025e-18
1.02317e-17
-7.82707e-37
-2.87142e-35
-7.00626e-38
-1.27202e-36
-4.36556e-38
-5.12169e-37
-3.32106e-38
-2.71998e-37
-2.06653e-38
-1.21805e-37
-1.00238e-38
-4.3256e-38
-3.64182e-39
-1.16641e-38
-7.64804e-40
-1.84436e-39
-4.02749e-41
-7.4351e-41
1.25513e-39
2.00764e-40
7.05683e-38
1.02109e-38
3.53962e-36
4.28088e-37
1.55663e-34
1.56499e-35
6.20583e-33
5.44421e-34
2.2528e-31
1.91987e-32
7.56597e-30
7.45291e-31
2.66403e-28
3.5089e-29
1.13083e-26
1.96549e-27
6.30121e-25
1.32674e-25
6.65738e-23
1.5198e-23
9.77461e-21
2.31363e-21
5.07402e-19
1.37639e-19
2.63205e-18
7.43111e-18
-1.71447e-38
-5.92818e-37
-1.18834e-39
-2.05115e-38
-6.36212e-40
-7.15503e-39
-4.27587e-40
-3.38329e-39
-2.35045e-40
-1.34808e-39
-1.0194e-40
-4.30252e-40
-3.30365e-41
-1.03636e-40
-6.0128e-42
-1.41588e-41
7.83345e-42
1.30211e-42
1.43995e-40
2.05863e-41
8.24088e-39
9.349e-40
4.17559e-37
3.72553e-38
1.79866e-35
1.27958e-36
7.41432e-34
4.70843e-35
3.23961e-32
2.30222e-33
1.61757e-30
1.50467e-31
9.32739e-29
1.11121e-29
5.71264e-27
8.16103e-28
3.85145e-25
6.38656e-26
4.29883e-23
8.14897e-24
6.00232e-21
1.25074e-21
3.14583e-19
7.46081e-20
1.51314e-18
4.98684e-18
-3.35749e-40
-1.13854e-38
-1.83565e-41
-3.12014e-40
-8.48964e-42
-9.41011e-41
-5.06188e-42
-3.95225e-41
-2.45811e-42
-1.39466e-41
-9.48608e-43
-3.9687e-42
-2.71987e-43
-8.45685e-43
-4.15206e-44
-9.65641e-44
2.4072e-43
3.3423e-44
1.29234e-41
1.38956e-42
7.71736e-40
6.25214e-41
3.64439e-38
2.10312e-39
1.51342e-36
6.69139e-38
7.16826e-35
3.21758e-36
4.85272e-33
2.86593e-34
4.06972e-31
3.0154e-32
3.31845e-29
2.82516e-30
2.44568e-27
2.34214e-28
1.93615e-25
2.22294e-26
2.5858e-23
3.81973e-24
3.61223e-21
6.22322e-22
1.73946e-19
3.37737e-20
6.3202e-19
2.65958e-18
-5.94543e-42
-2.04808e-40
-2.61167e-43
-4.50415e-42
-1.04668e-43
-1.17155e-42
-5.54774e-44
-4.36082e-43
-2.37843e-44
-1.35743e-43
-8.12902e-45
-3.41984e-44
-2.04549e-45
-6.38814e-45
-1.90338e-46
-4.43013e-46
1.28255e-44
1.16579e-45
8.76762e-43
5.16424e-44
4.54645e-41
1.85347e-42
1.84113e-39
7.19729e-41
7.59907e-38
4.21186e-39
5.68775e-36
3.41433e-37
7.30403e-34
3.62287e-35
9.00856e-32
4.22435e-33
9.06134e-30
4.28972e-31
7.84684e-28
4.16088e-29
7.72419e-26
5.4084e-27
1.3671e-23
1.40069e-24
1.88307e-21
2.39763e-22
7.63628e-20
1.12099e-20
1.75647e-19
1.00122e-18
-9.7454e-44
-3.4717e-42
-3.4769e-45
-6.20384e-44
-1.20401e-45
-1.38753e-44
-5.66698e-46
-4.56754e-45
-2.14116e-46
-1.2498e-45
-6.4507e-47
-2.77033e-46
-1.41026e-47
-4.48816e-47
2.11752e-47
7.44865e-48
4.50364e-46
2.07814e-47
1.31074e-44
6.59182e-46
7.62272e-43
6.81851e-44
8.92689e-41
7.52128e-42
1.07787e-38
8.37757e-40
1.18429e-36
7.39448e-38
1.29522e-34
4.92326e-36
1.60504e-32
3.75092e-34
1.83309e-30
3.3448e-32
1.87766e-28
3.79347e-30
2.424e-26
7.82434e-28
5.72082e-24
3.27853e-25
7.54609e-22
6.13535e-23
2.56515e-20
2.67907e-21
3.66707e-20
2.76851e-19
-1.50467e-45
-5.57419e-44
-4.38381e-47
-8.19483e-46
-1.30194e-47
-1.57072e-46
-5.422e-48
-4.56305e-47
-1.80062e-48
-1.09404e-47
-4.75948e-49
-2.12177e-48
-8.93145e-50
-2.94364e-49
1.59895e-49
3.37304e-51
5.05698e-48
4.42847e-49
7.25287e-46
7.728e-47
1.17976e-43
1.42522e-44
1.65792e-41
1.56617e-42
2.08011e-39
1.33528e-40
2.33934e-37
9.1538e-39
2.38081e-35
4.42921e-37
2.35939e-33
1.08863e-35
2.56736e-31
-4.16478e-34
3.12153e-29
-7.64096e-32
5.64593e-27
1.01803e-29
1.76381e-24
3.17799e-26
2.22188e-22
9.05049e-24
6.52281e-21
4.3645e-22
5.99029e-21
6.00198e-20
-2.19939e-47
-8.51574e-46
-5.24403e-49
-1.04324e-47
-1.32388e-49
-1.70763e-48
-4.8604e-50
-4.36867e-49
-1.41563e-50
-9.14899e-50
-3.2709e-51
-1.54449e-50
-5.19773e-52
-1.80787e-51
2.49774e-51
2.01481e-52
3.89919e-49
5.05275e-50
7.26585e-47
8.06768e-48
1.20894e-44
9.77174e-46
1.77268e-42
1.00038e-43
2.31319e-40
8.16316e-42
2.71174e-38
4.63858e-40
2.89587e-36
5.42904e-39
2.85839e-34
-2.22254e-36
2.74026e-32
-3.7e-34
3.22598e-30
-4.73894e-32
8.29018e-28
-9.9489e-30
3.29868e-25
-1.6847e-27
4.08576e-23
3.71061e-25
1.14603e-21
4.047e-23
8.38829e-22
1.02122e-20
-2.97389e-49
-1.24359e-47
-5.84549e-51
-1.28522e-49
-1.25001e-51
-1.79159e-50
-4.04929e-52
-4.0273e-51
-1.03555e-52
-7.34173e-52
-2.08996e-53
-1.07352e-52
-2.65951e-54
-9.99166e-54
9.10461e-53
9.72438e-54
2.005e-50
1.77563e-51
4.00022e-48
2.72977e-49
7.031e-46
3.53405e-47
1.09457e-43
3.76514e-45
1.5121e-41
2.98951e-43
1.86442e-39
1.14488e-41
2.07971e-37
-1.07045e-39
2.13773e-35
-3.05953e-37
2.08865e-33
-4.54693e-35
2.41865e-31
-5.92025e-33
6.23555e-29
-1.0815e-30
2.47822e-26
-2.54833e-28
3.54943e-24
-1.88335e-26
1.44423e-22
1.96189e-24
1.72493e-22
2.04991e-21
-3.50573e-51
-1.74658e-49
-5.77418e-53
-1.53604e-51
-1.05926e-53
-1.82272e-52
-3.067e-54
-3.59093e-53
-6.95121e-55
-5.67448e-54
-1.23219e-55
-7.15034e-55
-9.08908e-57
-3.80097e-56
2.36785e-54
1.74372e-55
5.7942e-52
3.35884e-53
1.25477e-49
5.6282e-51
2.40106e-47
8.00316e-49
4.06697e-45
9.14445e-47
6.10572e-43
7.19297e-45
8.16511e-41
7.73555e-44
9.88742e-39
-8.17681e-41
1.10686e-36
-1.92726e-38
1.18167e-34
-3.11843e-36
1.39393e-32
-4.46901e-34
2.7421e-30
-7.26174e-32
8.93935e-28
-1.60828e-29
1.82635e-25
-3.02239e-27
1.71779e-23
-1.10469e-25
3.87197e-23
6.71878e-22
-3.05519e-53
-2.38076e-51
-4.42478e-55
-1.78022e-53
-7.39421e-56
-1.80612e-54
-2.00602e-56
-3.10925e-55
-4.15394e-57
-4.23476e-56
-6.58998e-58
-4.57277e-57
8.03403e-58
9.13868e-59
3.76005e-56
1.8504e-57
1.02197e-53
3.91296e-55
2.45583e-51
7.27336e-53
5.21593e-49
1.14582e-50
9.78391e-47
1.42372e-48
1.6209e-44
1.11221e-46
2.38107e-42
-2.31155e-45
3.17207e-40
-2.28912e-42
3.92695e-38
-5.45673e-40
4.73668e-36
-1.01736e-37
6.03835e-34
-1.82065e-35
1.00588e-31
-3.4481e-33
2.71477e-29
-7.97951e-31
8.526e-27
-2.37859e-28
1.89191e-24
-4.1721e-26
2.31583e-24
1.68781e-22
-2.9876e-56
-3.19273e-53
-1.21532e-57
-1.99121e-55
-3.04632e-58
-1.74916e-56
-9.80816e-59
-2.62477e-57
-2.08182e-59
-3.07791e-58
-3.09095e-60
-2.80865e-59
4.59029e-60
6.23565e-62
3.00944e-58
7.95987e-60
9.06838e-56
1.7046e-57
2.43386e-53
3.31123e-55
5.78721e-51
5.5581e-53
1.21193e-48
7.14163e-51
2.22612e-46
5.33391e-49
3.60063e-44
-3.69405e-50
5.25774e-42
-5.29913e-47
7.14475e-40
-2.66802e-44
9.88403e-38
-9.11937e-42
1.52669e-35
-6.77634e-38
2.85547e-33
-5.96872e-35
7.5671e-31
-2.40487e-32
3.2226e-28
-1.23829e-29
1.27437e-25
-4.92357e-27
-2.25079e-25
1.76982e-23
3.579e-59
-4.28446e-55
3.37861e-60
-2.20319e-57
2.85581e-61
-1.66267e-58
-1.12931e-61
-2.18008e-59
-8.3327e-62
-2.57108e-60
-1.1819e-62
-1.65564e-61
1.59295e-62
5.69743e-65
6.74784e-61
1.34739e-62
1.72552e-58
1.85679e-60
3.83218e-56
2.1471e-58
7.50271e-54
1.97977e-56
8.55947e-52
8.54962e-55
3.64027e-50
5.7494e-54
2.03379e-49
-4.09824e-54
8.22527e-47
-7.05173e-51