/*--------------------------------*- C++ -*----------------------------------*\
  =========                 |
  \\      /  F ield         | OpenFOAM: The Open Source CFD Toolbox
   \\    /   O peration     | Website:  https://openfoam.org
    \\  /    A nd           | Version:  9
     \\/     M anipulation  |
\*---------------------------------------------------------------------------*/
FoamFile
{
    format      ascii;
    class       volScalarField;
    location    "0.75";
    object      epsilon;
}
// * * * * * * * * * * * * * * * * * * * * * * * * * * * * * * * * * * * * * //

dimensions      [0 2 -3 0 0 0 0];

internalField   nonuniform List<scalar> 
2268
(
0.0453657
0.158002
0.225702
0.299803
0.371328
0.435541
0.493085
0.541912
0.583821
0.621035
0.655335
0.687622
0.717386
0.742263
0.757481
0.7557
0.728271
0.667872
0.571367
0.460339
0.335676
0.204869
0.0342359
0.0870033
0.104267
0.1345
0.167484
0.197196
0.222119
0.243648
0.261957
0.277934
0.292545
0.306499
0.320087
0.333005
0.344181
0.35159
0.352238
0.342847
0.321121
0.288973
0.256558
0.220551
0.178217
0.106005
0.128843
0.115153
0.132133
0.153729
0.173708
0.190443
0.204663
0.217005
0.228233
0.239069
0.250011
0.261217
0.272354
0.282425
0.289574
0.291067
0.283931
0.266478
0.240512
0.213467
0.188022
0.164264
0.136736
0.171575
0.132085
0.140328
0.155516
0.170551
0.183486
0.194558
0.204396
0.213692
0.223064
0.232928
0.24338
0.254054
0.263911
0.27103
0.272554
0.265347
0.247719
0.221731
0.194093
0.169817
0.151341
0.152735
0.214171
0.149947
0.151205
0.161746
0.173413
0.183907
0.193082
0.201425
0.209547
0.217999
0.227147
0.237053
0.247321
0.256879
0.26373
0.264882
0.25698
0.238159
0.210561
0.181028
0.155819
0.138358
0.156261
0.256967
0.167947
0.162997
0.169738
0.178757
0.187385
0.195156
0.202382
0.209578
0.217232
0.225671
0.234931
0.244604
0.253605
0.25991
0.260467
0.251779
0.231741
0.20227
0.170411
0.143582
0.125685
0.150172
0.30014
0.186063
0.175175
0.178574
0.185325
0.192356
0.198929
0.205177
0.211509
0.218349
0.22598
0.234424
0.243274
0.251451
0.256971
0.256835
0.247555
0.226846
0.196117
0.162171
0.133534
0.114646
0.137946
0.343412
0.203983
0.187479
0.187861
0.192571
0.198135
0.203585
0.208886
0.21434
0.220303
0.227019
0.234484
0.242292
0.249414
0.253971
0.253147
0.243674
0.22329
0.192925
0.158502
0.12906
0.109639
0.130453
0.0347231
0.155332
0.199414
0.225477
0.252176
0.277466
0.299342
0.317285
0.331699
0.343523
0.354824
0.368265
0.381607
0.392927
0.394811
0.37036
0.290411
0.166521
0.0377622
0.0975367
0.170882
0.19164
0.178481
0.16515
0.155573
0.149458
0.146089
0.145164
0.14719
0.15437
0.169412
0.191647
0.219722
0.246361
0.255787
0.225033
0.148915
0.138743
0.190535
0.188028
0.180991
0.151926
0.131134
0.119355
0.114022
0.113712
0.118432
0.129692
0.151078
0.186598
0.23854
0.30297
0.363108
0.393608
0.367357
0.243829
0.291945
0.277088
0.200516
0.173532
0.140547
0.119895
0.110049
0.108004
0.112811
0.125572
0.149762
0.192301
0.260447
0.355713
0.463323
0.548962
0.583915
0.554083
0.387453
0.46709
0.360406
0.212009
0.16972
0.136674
0.11803
0.11117
0.113549
0.12533
0.149506
0.192727
0.26662
0.379394
0.522799
0.659735
0.740382
0.755528
0.711816
0.583971
0.653881
0.445265
0.224165
0.168723
0.136872
0.121075
0.118137
0.126428
0.147792
0.188
0.258078
0.373664
0.536402
0.716447
0.853325
0.898744
0.885807
0.83966
0.84992
0.86775
0.535094
0.236468
0.169313
0.139417
0.127378
0.129599
0.145749
0.179938
0.241617
0.346978
0.511704
0.718607
0.912351
1.0263
1.03276
0.999087
0.95905
1.0813
1.08417
0.639558
0.245072
0.170139
0.143458
0.136474
0.145493
0.17193
0.222699
0.311615
0.460266
0.67581
0.910911
1.09538
1.17988
1.16622
1.12023
1.0692
1.17488
1.21883
0.399407
0.229947
0.206465
0.202762
0.204522
0.20788
0.211542
0.215287
0.219258
0.223716
0.228849
0.234638
0.240701
0.246114
0.249213
0.247556
0.238425
0.220249
0.19435
0.166574
0.145271
0.136964
0.163078
0.476962
0.264691
0.232087
0.223255
0.221282
0.221638
0.222691
0.223931
0.225405
0.227277
0.229686
0.232635
0.235872
0.238789
0.240339
0.239137
0.234063
0.225609
0.217214
0.213928
0.22182
0.254669
0.335697
0.555277
0.299337
0.257358
0.243559
0.237789
0.234832
0.232817
0.231082
0.22951
0.228235
0.227398
0.227061
0.22716
0.227462
0.227587
0.227118
0.225919
0.224697
0.22556
0.231892
0.247322
0.274381
0.308918
0.637037
0.333646
0.28215
0.26335
0.253588
0.246977
0.241458
0.236283
0.231274
0.226514
0.222186
0.218455
0.215422
0.213129
0.211587
0.210805
0.21084
0.211908
0.214629
0.219743
0.228241
0.239523
0.248991
0.720292
0.367412
0.306314
0.28238
0.268426
0.257906
0.248614
0.239767
0.231181
0.222944
0.215259
0.208364
0.202494
0.19788
0.194741
0.193242
0.193408
0.195046
0.197788
0.201234
0.205002
0.208038
0.207656
0.803484
0.400502
0.329672
0.300482
0.282206
0.267651
0.254501
0.241978
0.229931
0.218487
0.207895
0.198444
0.190427
0.184118
0.179734
0.177375
0.176939
0.178063
0.180128
0.182354
0.183909
0.183919
0.18154
0.885645
0.432651
0.352073
0.317581
0.294947
0.276364
0.259428
0.243393
0.228159
0.213899
0.200894
0.189447
0.179843
0.172314
0.166995
0.163885
0.162788
0.163288
0.164765
0.166473
0.167718
0.168132
0.168071
0.965883
0.463649
0.373432
0.333677
0.30675
0.284258
0.263726
0.244448
0.226376
0.209718
0.19476
0.181789
0.171038
0.162663
0.156712
0.153101
0.151591
0.151789
0.153176
0.155201
0.157477
0.160091
0.164004
1.04362
0.493374
0.393729
0.348832
0.317762
0.291566
0.267704
0.245507
0.224967
0.206307
0.189797
0.175679
0.164117
0.155189
0.148867
0.145016
0.143396
0.143676
0.145474
0.148455
0.152516
0.15807
0.166404
1.11855
0.521787
0.412998
0.363149
0.328151
0.298516
0.271635
0.246864
0.224218
0.203913
0.186187
0.171217
0.159099
0.149837
0.143345
0.139467
0.137982
0.138637
0.14119
0.145498
0.151687
0.1604
0.173144
1.1906
0.548916
0.431318
0.376754
0.338092
0.30532
0.275752
0.248754
0.224343
0.202712
0.184048
0.168463
0.155982
0.146546
0.140032
0.136272
0.135084
0.136294
0.139787
0.145584
0.15399
0.165827
0.182748
1.25984
0.574842
0.448792
0.389782
0.347747
0.312161
0.280249
0.251364
0.22551
0.20284
0.183482
0.167481
0.154793
0.145309
0.138875
0.135329
0.134528
0.136376
0.140869
0.148169
0.158726
0.173488
0.194188
1.32645
0.599675
0.465536
0.402365
0.357265
0.319196
0.285281
0.254844
0.227856
0.204421
0.1846
0.168367
0.155619
0.146198
0.139932
0.136665
0.136293
0.138792
0.14426
0.152973
0.165499
0.182864
0.206809
1.39066
0.623538
0.481664
0.41462
0.366764
0.326548
0.290973
0.259317
0.231507
0.207583
0.187537
0.171274
0.158629
0.149402
0.143401
0.140476
0.140558
0.143686
0.150041
0.160001
0.17422
0.19377
0.22033
1.4527
0.646558
0.497284
0.426645
0.376341
0.334309
0.297417
0.264884
0.236576
0.212466
0.19247
0.176421
0.164093
0.155243
0.149652
0.147171
0.147752
0.151482
0.158612
0.169596
0.185161
0.206393
0.234882
1.5128
0.668849
0.512484
0.438517
0.386061
0.342542
0.304684
0.271631
0.243181
0.219232
0.199621
0.184107
0.172397
0.164198
0.159257
0.157409
0.158608
0.162963
0.170769
0.182539
0.199047
0.221394
0.251085
1.57112
0.690514
0.527339
0.450292
0.395971
0.351294
0.31283
0.279642
0.25145
0.228073
0.209268
0.194713
0.184048
0.176916
0.173013
0.172134
0.174208
0.179331
0.187805
0.200161
0.217205
0.240053
0.270169
1.6278
0.711645
0.541916
0.462017
0.406108
0.360605
0.321914
0.28901
0.261533
0.239221
0.221747
0.208712
0.199675
0.194207
0.19193
0.192569
0.195987
0.202226
0.211538
0.224425
0.241679
0.264421
0.29413
1.68293
0.732333
0.55628
0.473744
0.416524
0.370537
0.332026
0.299871
0.273633
0.252967
0.237468
0.226657
0.220009
0.217005
0.217171
0.220125
0.225622
0.233593
0.244182
0.257793
0.275138
0.297294
0.325754
1.73661
0.75268
0.570523
0.485563
0.427316
0.381213
0.343329
0.312446
0.288043
0.269699
0.256935
0.249191
0.245855
0.246302
0.249934
0.256228
0.264782
0.275363
0.287947
0.302768
0.320377
0.341717
0.368224
1.78894
0.772829
0.584789
0.497635
0.438679
0.392874
0.356121
0.327101
0.305212
0.289958
0.280787
0.277063
0.278076
0.283077
0.291317
0.302094
0.31481
0.329021
0.344482
0.361199
0.379488
0.400065
0.424183
1.84017
0.792996
0.59932
0.510247
0.450965
0.40595
0.370922
0.344449
0.325841
0.314529
0.309887
0.311191
0.31762
0.328278
0.342233
0.358579
0.376489
0.395282
0.414462
0.433768
0.453229
0.473262
0.494834
1.89071
0.813517
0.614506
0.523885
0.464774
0.421169
0.388585
0.365464
0.351017
0.344587
0.345458
0.352799
0.365646
0.382924
0.403496
0.42623
0.450069
0.474093
0.497558
0.519933
0.540946
0.560675
0.579733
1.94128
0.834914
0.630969
0.539324
0.481065
0.439679
0.410449
0.391662
0.382403
0.3819
0.389313
0.403654
0.42377
0.448368
0.476084
0.505567
0.535561
0.564946
0.592775
0.618291
0.640953
0.6605
0.677162
1.99303
0.857974
0.649656
0.557755
0.501298
0.463223
0.438536
0.425324
0.422506
0.429138
0.444183
0.466421
0.494446
0.526691
0.561558
0.597523
0.633196
0.667366
0.698956
0.727083
0.751024
0.770238
0.784561
2.04771
0.883873
0.671973
0.580935
0.527626
0.494361
0.475811
0.469813
0.47504
0.490281
0.514169
0.545138
0.581453
0.621191
0.662536
0.703883
0.743858
0.781341
0.815214
0.8446
0.868777
0.887024
0.898823
2.10794
0.914319
0.699953
0.611382
0.563107
0.536727
0.526514
0.529971
0.5454
0.571156
0.605305
0.645741
0.690411
0.736838
0.783039
0.82756
0.869243
0.90721
0.940722
0.969148
0.991826
1.00797
1.01679
2.17747
0.951746
0.736434
0.652569
0.611938
0.595322
0.596514
0.612568
0.641159
0.680012
0.726114
0.776408
0.828247
0.879179
0.927375
0.971652
1.01132
1.04605
1.07565
1.09994
1.11853
1.13074
1.13558
2.2615
0.999473
0.785194
0.709046
0.679608
0.676715
0.693572
0.726652
0.77231
0.826743
0.885863
0.945709
1.00299
1.05529
1.10122
1.1403
1.17274
1.19909
1.22
1.23593
1.24697
1.25268
1.252
2.36653
1.06165
0.850841
0.786331
0.772841
0.78907
0.827248
0.882098
0.948663
1.02143
1.09462
1.16301
1.22271
1.27158
1.30914
1.33626
1.35457
1.366
1.37229
1.37478
1.37414
1.37027
1.36212
2.49868
1.14252
0.938147
0.89041
0.899362
0.941342
1.00628
1.08748
1.17834
1.27139
1.3587
1.43332
1.49074
1.52945
1.55064
1.55735
1.55339
1.54249
1.52778
1.51154
1.49503
1.47848
1.4609
2.65819
1.24416
1.0505
1.02703
1.06715
1.14186
1.23781
1.34682
1.46171
1.57368
1.67244
1.74875
1.79724
1.8175
1.81334
1.79092
1.7569
1.71721
1.67636
1.63739
1.60196
1.57052
1.54211
2.8287
1.36219
1.18754
1.20111
1.28539
1.40084
1.52719
1.65633
1.78456
1.90518
2.00645
2.07607
2.10723
2.10092
2.06441
2.0076
1.94005
1.86961
1.80173
1.73971
1.68523
1.63876
1.59944
2.96593
1.48809
1.34432
1.4173
1.57014
1.73691
1.88235
2.00423
2.11334
2.21393
2.2963
2.34477
2.3499
2.31379
2.24646
2.16049
2.06655
1.97284
1.88481
1.80544
1.73614
1.67744
1.62881
3.01165
1.61817
1.51281
1.68148
1.94831
2.17843
2.30789
2.36144
2.38721
2.41455
2.4376
2.44151
2.41933
2.36901
2.29443
2.20359
2.10581
2.00785
1.91454
1.8288
1.75231
1.68629
1.63124
2.89913
1.73811
1.68729
2.00319
2.45092
2.73018
2.73893
2.61646
2.488
2.40791
2.36476
2.3335
2.30288
2.26427
2.21094
2.145
2.06968
1.98753
1.90261
1.81933
1.74142
1.6719
1.61302
2.61125
1.84517
1.85213
2.24539
2.72719
2.88745
2.72751
2.50264
2.34206
2.26595
2.23879
2.21059
2.17008
2.13851
2.11146
2.07718
2.02876
1.96264
1.88352
1.7991
1.71769
1.64417
1.58287
2.1556
1.96632
2.09744
2.56882
2.86311
2.65823
2.41049
2.27613
2.26648
2.3368
2.41999
2.36407
2.21477
2.10631
2.05999
2.01674
1.96642
1.90602
1.83289
1.75099
1.66872
1.59448
1.53483
1.60059
1.99514
2.60596
3.62476
3.3121
2.5847
2.24123
2.17406
2.28729
2.42939
2.5008
2.34114
2.05239
1.90144
1.85989
1.84161
1.81735
1.7789
1.72546
1.66197
1.59631
1.53808
1.49604
1.15389
1.96936
3.33901
3.9343
2.79011
1.92564
1.70752
1.73737
1.77688
1.749
1.74178
1.71079
1.64596
1.62172
1.62608
1.62802
1.61501
1.59312
1.56252
1.53092
1.50054
1.47769
1.46494
1.93477
1.87796
2.90917
2.29058
1.45278
1.12704
1.18448
1.33316
1.37775
1.3433
1.37065
1.46161
1.54538
1.48426
1.51899
1.56823
1.53342
1.5448
1.52583
1.54427
1.54821
1.58336
1.60784
2.14862
1.38134
1.13418
0.469678
0.341586
0.391935
0.60579
0.955731
1.11638
1.00257
1.19382
1.54921
1.51442
1.03918
1.15954
1.22108
1.35352
1.50615
1.60495
1.8004
1.8377
2.03655
2.07547
0.342418
0.523207
0.716487
0.881771
0.450338
0.464929
0.457211
0.41886
0.328616
0.320958
0.30243
0.272238
0.24681
0.237918
0.224267
0.208267
0.200691
0.194355
0.187485
0.1817
0.177341
0.175236
0.174431
0.1759
0.169137
0.171341
0.175696
0.183059
0.1707
0.177006
0.186054
0.19877
0.178568
0.188766
0.2022
0.219887
0.190453
0.204263
0.22169
0.243787
0.204716
0.221719
0.242552
0.268241
0.220154
0.23979
0.263278
0.291557
0.23598
0.257602
0.282925
0.312764
0.251855
0.274817
0.301205
0.331697
0.267933
0.291654
0.318475
0.348942
0.284884
0.308883
0.335674
0.365694
0.303955
0.327812
0.354244
0.383601
0.327057
0.350322
0.376069
0.404603
0.356815
0.378879
0.403422
0.430751
0.39634
0.416415
0.438909
0.464174
0.448478
0.465798
0.485278
0.507317
0.514841
0.528924
0.544712
0.562649
0.595387
0.606095
0.617966
0.631495
0.688663
0.696103
0.704134
0.713306
0.792238
0.796639
0.801076
0.806159
0.903023
0.904688
0.90586
0.90721
1.01776
1.01686
1.01497
1.01279
1.13324
1.12976
1.12491
1.11936
1.24597
1.23976
1.23195
1.22318
1.35186
1.34266
1.33186
1.32001
1.44587
1.43343
1.41959
1.40478
1.52205
1.50627
1.48949
1.47195
1.57457
1.55563
1.53621
1.51635
1.59988
1.5782
1.5566
1.53495
1.59929
1.57538
1.55203
1.52909
1.57908
1.55344
1.52878
1.50514
1.5486
1.52266
1.49778
1.47464
1.50439
1.4823
1.46208
1.44355
1.47834
1.46499
1.45056
1.43798
1.47073
1.48066
1.49265
1.50522
1.7017
1.78166
1.8574
1.91464
2.84774
2.7981
3.18506
3.25461
0.426908
0.230956
0.169595
0.151949
0.155602
0.178644
0.226002
0.309285
0.447637
0.662654
0.925051
1.16146
1.31188
1.36653
1.35169
1.29707
1.20911
1.26068
1.34194
0.301229
0.201094
0.167862
0.166934
0.189549
0.239329
0.327991
0.475205
0.702579
1.00193
1.28841
1.49647
1.61364
1.66588
1.6744
1.6251
1.43755
1.39603
1.63174
0.228331
0.181682
0.173139
0.192607
0.241461
0.330204
0.477658
0.706207
1.02071
1.3551
1.62658
1.80895
1.92027
1.98679
2.02192
1.97178
1.69498
1.57907
1.95176
0.191003
0.177097
0.19041
0.23392
0.316991
0.456631
0.675044
0.983521
1.35128
1.68328
1.93426
2.10947
2.22643
2.29342
2.30702
2.22927
1.96778
1.81133
2.31153
0.178104
0.186519
0.221509
0.293448
0.417976
0.616282
0.905952
1.27424
1.6574
1.9749
2.21475
2.3879
2.49985
2.54748
2.53015
2.44943
2.25786
2.06853
2.70516
0.181813
0.208578
0.266376
0.370316
0.540248
0.797248
1.14555
1.54674
1.9213
2.22444
2.45571
2.62024
2.7206
2.7592
2.74406
2.68427
2.56472
2.33902
3.14357
0.197145
0.241145
0.322598
0.459578
0.673657
0.980661
1.36659
1.77466
2.13335
2.42168
2.6407
2.79662
2.89654
2.94812
2.96003
2.93248
2.86052
2.60192
3.61355
0.220535
0.281075
0.385423
0.553045
0.804598
1.14677
1.54869
1.94677
2.28616
2.55703
2.7644
2.92084
3.03631
3.12255
3.1844
3.1983
3.15445
2.86611
4.02148
0.248821
0.324402
0.448746
0.641334
0.919719
1.28028
1.68059
2.05827
2.37456
2.62676
2.82947
2.99885
3.14501
3.28716
3.42529
3.49496
3.45339
3.10672
4.39652
0.279007
0.366957
0.506506
0.71604
1.00878
1.37202
1.75762
2.10799
2.3984
2.63375
2.84092
3.0356
3.22375
3.43947
3.67728
3.81127
3.73755
3.29919
4.7298
0.30846
0.40516
0.55394
0.77134
1.06606
1.41885
1.77996
2.10003
2.36438
2.58821
2.80706
3.03257
3.26709
3.56191
3.92115
4.11538
3.972
3.44449
5.01479
0.335249
0.436676
0.588446
0.804868
1.09079
1.42335
1.75421
2.04461
2.28617
2.50836
2.74602
2.99626
3.26372
3.63057
4.1284
4.37056
4.12276
3.50995
5.16908
0.358407
0.46076
0.609909
0.817843
1.08672
1.39284
1.69175
1.95591
2.182
2.41504
2.68003
2.94618
3.21586
3.63778
4.28559
4.54902
4.06165
3.46512
5.1241
0.377997
0.478249
0.620526
0.814607
1.06119
1.33793
1.60702
1.85046
2.07309
2.32479
2.61805
2.89367
3.1526
3.62569
4.449
4.65303
3.83042
3.33376
4.96718
0.394984
0.491234
0.624249
0.801847
1.02442
1.27271
1.5193
1.74593
1.97333
2.24807
2.5627
2.84071
3.09936
3.64112
4.63011
4.71186
3.66978
3.20493
4.8042
0.41099
0.502571
0.625994
0.78766
0.98946
1.21848
1.44172
1.65737
1.89788
2.1949
2.51805
2.78534
3.05638
3.67265
4.72067
4.64836
3.56075
3.09736
4.63365
0.428031
0.515344
0.630701
0.780106
0.970339
1.1801
1.38912
1.6022
1.85752
2.1716
2.48839
2.72927
3.00946
3.6772
4.67928
4.44808
3.42727
2.99232
4.49946
0.448227
0.532265
0.642107
0.784172
0.968567
1.16611
1.37014
1.58678
1.85384
2.17756
2.47604
2.67291
2.94507
3.61598
4.49425
4.15032
3.25209
2.86888
4.35175
0.473382
0.554795
0.661305
0.800139
0.980394
1.17435
1.38011
1.60439
1.88082
2.20226
2.46804
2.61365
2.86095
3.492
4.2019
3.79409
3.03842
2.72258
4.1674
0.504781
0.582471
0.68531
0.820104
0.994505
1.18969
1.40098
1.63589
1.92303
2.22973
2.44399
2.54616
2.76288
3.33671
3.86698
3.42077
2.80503
2.56202
3.94137
0.544012
0.614762
0.709863
0.835051
0.99764
1.19177
1.40837
1.65549
1.94919
2.23041
2.39301
2.46634
2.65942
3.17907
3.53527
3.06893
2.5787
2.40172
3.68693
0.593637
0.654051
0.735454
0.845199
0.990857
1.17383
1.38935
1.63948
1.92028
2.16771
2.30528
2.37321
2.56003
3.03568
3.23938
2.77041
2.38155
2.25693
3.4352
0.655876
0.703346
0.768586
0.859573
0.984763
1.14857
1.34958
1.58541
1.84034
2.05983
2.19165
2.27488
2.47526
2.91655
2.98281
2.5361
2.22442
2.13925
3.2143
0.730628
0.764777
0.813725
0.885335
0.988494
1.12942
1.3087
1.52102
1.74808
1.94625
2.07963
2.18783
2.41289
2.82491
2.78267
2.37167
2.11066
2.05471
3.04305
0.816278
0.837889
0.871627
0.924852
1.00646
1.12378
1.27926
1.4675
1.67005
1.85254
1.9903
2.12351
2.37457
2.76707
2.65454
2.26658
2.03814
2.00467
2.92969
0.910451
0.920521
0.940351
0.976824
1.03866
1.134
1.26696
1.43344
1.61674
1.78843
1.93007
2.0814
2.35001
2.73277
2.57605
2.20495
2.00097
1.98804
2.87539
1.00954
1.00924
1.01679
1.03858
1.08314
1.15923
1.27246
1.42058
1.58893
1.75251
1.8961
2.057
2.33278
2.7064
2.52922
2.17435
1.99223
2.00184
2.87785
1.10996
1.10047
1.09741
1.10674
1.13673
1.1966
1.29321
1.42614
1.58269
1.73951
1.8828
2.04631
2.32216
2.68867
2.50581
2.16642
2.00555
2.04196
2.93522
1.20789
1.19037
1.17838
1.17747
1.1956
1.24214
1.32496
1.4453
1.59225
1.74338
1.88457
2.04649
2.31915
2.68214
2.49979
2.17488
2.03494
2.10301
3.04665
1.29914
1.27471
1.25547
1.24652
1.25535
1.29122
1.36264
1.47235
1.61129
1.75802
1.89661
2.05565
2.32481
2.68749
2.50762
2.19505
2.07505
2.17852
3.21008
1.37895
1.34881
1.32408
1.30929
1.31125
1.3388
1.40075
1.50114
1.63312
1.77695
1.91503
2.07315
2.34114
2.7042
2.52898
2.22393
2.12157
2.26141
3.42125
1.44169
1.40761
1.37931
1.36091
1.35833
1.37967
1.43362
1.52539
1.65088
1.79365
1.9363
2.10026
2.37392
2.73222
2.56009
2.25947
2.17129
2.34503
3.67574
1.48241
1.446
1.41647
1.39681
1.39198
1.40901
1.45606
1.53925
1.65786
1.8011
1.95596
2.14026
2.43478
2.77811
2.60015
2.30264
2.22389
2.42746
3.97394
1.49835
1.46108
1.43215
1.4136
1.40877
1.42334
1.46442
1.53847
1.64826
1.79161
1.96712
2.19622
2.54052
2.85604
2.65923
2.35822
2.28377
2.51582
4.3314
1.49093
1.45436
1.42749
1.41138
1.40818
1.42198
1.45818
1.52221
1.61952
1.7598
1.96419
2.26992
2.70675
3.02804
2.77423
2.43062
2.35865
2.63483
4.7897
1.46691
1.43293
1.40964
1.39712
1.39615
1.40966
1.44152
1.49532
1.57805
1.71594
1.96444
2.38843
2.96786
3.32473
2.86601
2.50301
2.44786
2.76809
5.24724
1.43894
1.40992
1.39194
1.3839
1.38461
1.39649
1.42295
1.46685
1.54239
1.69683
2.0188
2.60611
3.31053
3.37285
2.79566
2.54378
2.54581
2.91138
5.64716
1.41629
1.39764
1.3882
1.38398
1.3846
1.39247
1.4095
1.43942
1.50289
1.65351
1.97423
2.56361
3.04938
2.86558
2.64661
2.56864
2.6537
3.04713
5.90524
1.42327
1.42002
1.42363
1.42927
1.43405
1.44095
1.45267
1.47204
1.5134
1.61002
1.80217
2.11272
2.40909
2.50639
2.5459
2.62325
2.77553
3.13775
5.898
1.52876
1.55797
1.58341
1.60886
1.63278
1.65999
1.68287
1.70608
1.73171
1.77654
1.87547
2.03804
2.23923
2.40681
2.57507
2.73583
2.90367
3.12766
5.36441
1.9901
2.09084
2.14597
2.20725
2.26741
2.37306
2.41781
2.4485
2.43605
2.40089
2.42634
2.43696
2.54789
2.57247
2.79321
2.86194
3.02931
2.93991
3.83759
3.10799
3.61792
3.49458
3.73039
3.76335
4.57077
4.32197
4.35907
4.02105
3.78563
3.4829
3.19307
2.84617
2.34266
2.2397
1.82185
1.82685
1.53394
2.07776
)
;

boundaryField
{
    leftWall
    {
        type            epsilonWallFunction;
        value           nonuniform List<scalar> 
50
(
0.0453657
0.0870033
0.128843
0.171575
0.214171
0.256967
0.30014
0.343412
0.399407
0.476962
0.555277
0.637037
0.720292
0.803484
0.885645
0.965883
1.04362
1.11855
1.1906
1.25984
1.32645
1.39066
1.4527
1.5128
1.57112
1.6278
1.68293
1.73661
1.78894
1.84017
1.89071
1.94128
1.99303
2.04771
2.10794
2.17747
2.2615
2.36653
2.49868
2.65819
2.8287
2.96593
3.01165
2.89913
2.61125
2.1556
1.60059
1.15389
1.93477
2.14862
)
;
    }
    rightWall
    {
        type            epsilonWallFunction;
        value           nonuniform List<scalar> 
50
(
0.0377622
0.138743
0.291945
0.46709
0.653881
0.86775
1.08417
1.21883
1.34194
1.63174
1.95176
2.31153
2.70516
3.14357
3.61355
4.02148
4.39652
4.7298
5.01479
5.16908
5.1241
4.96718
4.8042
4.63365
4.49946
4.35175
4.1674
3.94137
3.68693
3.4352
3.2143
3.04305
2.92969
2.87539
2.87785
2.93522
3.04665
3.21008
3.42125
3.67574
3.97394
4.3314
4.7897
5.24724
5.64716
5.90524
5.898
5.36441
3.83759
2.07776
)
;
    }
    lowerWall
    {
        type            epsilonWallFunction;
        value           nonuniform List<scalar> 
62
(
0.0453657
0.158002
0.225702
0.299803
0.371328
0.435541
0.493085
0.541912
0.583821
0.621035
0.655335
0.687622
0.717386
0.742263
0.757481
0.7557
0.728271
0.667872
0.571367
0.460339
0.335676
0.204869
0.0342359
0.0342359
0.106005
0.136736
0.152735
0.156261
0.150172
0.137946
0.130453
0.342418
0.523207
0.716487
0.881771
0.0347231
0.0975367
0.190535
0.277088
0.360406
0.445265
0.535094
0.639558
0.0347231
0.155332
0.199414
0.225477
0.252176
0.277466
0.299342
0.317285
0.331699
0.343523
0.354824
0.368265
0.381607
0.392927
0.394811
0.37036
0.290411
0.166521
0.0377622
)
;
    }
    atmosphere
    {
        type            inletOutlet;
        inletValue      uniform 0.1;
        value           nonuniform List<scalar> 
46
(
2.14862
1.38134
1.13418
0.1
0.1
0.1
0.1
0.955731
0.1
0.1
1.19382
1.54921
1.51442
0.1
1.15954
0.1
1.35352
0.1
1.60495
0.1
1.8377
0.1
2.07547
0.1
0.1
3.18506
3.25461
3.10799
0.1
0.1
3.73039
3.76335
0.1
0.1
4.35907
4.02105
0.1
3.4829
0.1
2.84617
0.1
2.2397
0.1
1.82685
0.1
2.07776
)
;
    }
    defaultFaces
    {
        type            empty;
    }
}


// ************************************************************************* //
