/*--------------------------------*- C++ -*----------------------------------*\
  =========                 |
  \\      /  F ield         | OpenFOAM: The Open Source CFD Toolbox
   \\    /   O peration     | Website:  https://openfoam.org
    \\  /    A nd           | Version:  9
     \\/     M anipulation  |
\*---------------------------------------------------------------------------*/
FoamFile
{
    format      ascii;
    class       volScalarField;
    location    "0.75";
    object      k;
}
// * * * * * * * * * * * * * * * * * * * * * * * * * * * * * * * * * * * * * //

dimensions      [0 2 -2 0 0 0 0];

internalField   nonuniform List<scalar> 
2268
(
0.00353762
0.00562473
0.00792453
0.00993239
0.011689
0.0132658
0.014722
0.0160792
0.01734
0.0184939
0.0195175
0.020378
0.0210397
0.0214681
0.0216306
0.0215046
0.0210781
0.0203029
0.0191819
0.0177068
0.0157082
0.0124718
0.00736466
0.00564117
0.0109949
0.0160914
0.0206499
0.02463
0.0281638
0.0313514
0.0342593
0.0369182
0.0393242
0.0414455
0.0432326
0.0446307
0.0455886
0.046063
0.0460261
0.0454367
0.0442594
0.0424458
0.0397682
0.0354962
0.0279997
0.014246
0.00663826
0.0137294
0.0200537
0.0259196
0.0311722
0.0358299
0.0399882
0.0437354
0.047121
0.0501519
0.0528035
0.0550351
0.0568024
0.0580657
0.0587947
0.0589739
0.0585707
0.05755
0.0558174
0.0530078
0.0481055
0.0388462
0.0191029
0.00704878
0.0152705
0.022594
0.029581
0.0358627
0.0413773
0.0462419
0.0505804
0.054467
0.0579232
0.0609356
0.0634776
0.0655219
0.0670463
0.0680388
0.0685011
0.0684126
0.0677451
0.0663863
0.0638992
0.0590575
0.0488861
0.024392
0.00705428
0.0161399
0.0245065
0.0325903
0.0397863
0.0460124
0.0514405
0.0562413
0.0605165
0.064302
0.0675967
0.0703905
0.0726753
0.0744484
0.0757172
0.0765
0.0767892
0.0765686
0.0757295
0.0738074
0.0694205
0.0588893
0.0310714
0.00685717
0.0166213
0.0261727
0.0353548
0.0433643
0.0501814
0.0560644
0.0612377
0.0658278
0.0698817
0.0734095
0.0764192
0.0789234
0.0809385
0.0824897
0.0836111
0.0843062
0.0845769
0.0843377
0.0831424
0.0795458
0.0693755
0.0406732
0.00672148
0.0169641
0.0278523
0.0380976
0.0468015
0.0540923
0.0603363
0.0658118
0.0706626
0.0749399
0.0786642
0.0818635
0.0845709
0.0868203
0.0886527
0.0901179
0.091227
0.0920065
0.0924152
0.0920765
0.0896521
0.0810119
0.0552508
0.00690864
0.017525
0.0297882
0.0409715
0.0502148
0.0578546
0.0643711
0.0700902
0.0751601
0.079625
0.0835164
0.0868841
0.0897804
0.0922539
0.0943587
0.0961653
0.0976852
0.0989772
0.100063
0.100686
0.099851
0.0944125
0.0765277
0.133649
0.21904
0.262022
0.268318
0.24283
0.19946
0.160106
0.136692
0.128209
0.129036
0.134846
0.141108
0.143399
0.136942
0.121367
0.101469
0.0811804
0.0547791
0.0250013
0.286036
0.473255
0.585059
0.629107
0.594706
0.49883
0.388636
0.304073
0.260092
0.24667
0.248884
0.257724
0.263301
0.254097
0.227743
0.192894
0.155794
0.109434
0.0382258
0.357955
0.637226
0.819457
0.913132
0.904271
0.79723
0.635204
0.475587
0.369945
0.323073
0.31129
0.314881
0.317542
0.304116
0.27126
0.228528
0.183712
0.130105
0.0509119
0.380526
0.734046
1.01612
1.19435
1.25301
1.18485
0.986025
0.727368
0.513951
0.40022
0.361161
0.35432
0.350857
0.332613
0.295585
0.24802
0.198527
0.142346
0.0601546
0.359198
0.738
1.09101
1.38627
1.60726
1.71196
1.49539
1.12616
0.749544
0.502882
0.412168
0.388355
0.375299
0.35124
0.311585
0.26109
0.208258
0.150573
0.06629
0.325124
0.671564
0.942935
1.17241
1.43888
1.76262
1.89098
1.68539
1.14591
0.656713
0.471957
0.422666
0.395843
0.364764
0.3234
0.270927
0.215556
0.156704
0.0708073
0.287952
0.581294
0.72192
0.839184
1.01616
1.28647
1.57972
1.81128
1.59649
0.881068
0.543896
0.459971
0.414639
0.375333
0.331975
0.277913
0.221066
0.161335
0.0741771
0.24661
0.462006
0.533264
0.604322
0.733717
0.954194
1.23194
1.52047
1.69882
1.12658
0.627082
0.498877
0.431266
0.383403
0.337405
0.282118
0.224647
0.164354
0.0765444
0.00826393
0.0196737
0.0337173
0.0459495
0.0557051
0.0636552
0.0704446
0.0764526
0.081803
0.0865069
0.0906177
0.0942205
0.0973906
0.100193
0.102698
0.104978
0.107061
0.109058
0.111074
0.113018
0.114364
0.113339
0.104833
0.0120168
0.0266126
0.0414376
0.0535921
0.0631703
0.0710378
0.077951
0.084258
0.0899246
0.0948434
0.0991655
0.103035
0.106534
0.109744
0.11276
0.115656
0.118528
0.121612
0.125209
0.129608
0.135143
0.141942
0.149894
0.0158337
0.034286
0.0482788
0.0600502
0.0699213
0.078115
0.0853679
0.0921195
0.0980675
0.102887
0.107223
0.111236
0.11495
0.118459
0.121905
0.125375
0.129108
0.13351
0.139086
0.146505
0.156704
0.170251
0.185662
0.0191971
0.0399315
0.0527721
0.0633013
0.0729275
0.0817511
0.0901457
0.0981263
0.104996
0.110395
0.114881
0.118989
0.122805
0.126481
0.130253
0.134313
0.139096
0.145254
0.153563
0.165225
0.182102
0.205087
0.227127
0.0206194
0.0440163
0.0566816
0.0663775
0.0749577
0.0831305
0.0913706
0.0996131
0.107157
0.113831
0.119494
0.124452
0.128933
0.133225
0.137707
0.142674
0.148825
0.157474
0.169899
0.188083
0.216128
0.259232
0.285932
0.0215359
0.0465166
0.0595095
0.0690346
0.0771349
0.084685
0.0921847
0.0996732
0.10679
0.113437
0.119788
0.125946
0.131844
0.137632
0.143598
0.150142
0.158697
0.171051
0.188691
0.213212
0.245092
0.278809
0.310886
0.0219369
0.0478737
0.0613458
0.0710831
0.0791467
0.0864041
0.0933522
0.100168
0.106768
0.113138
0.119456
0.125861
0.132373
0.139148
0.14655
0.155312
0.166956
0.183112
0.204222
0.228882
0.253163
0.274431
0.301192
0.0221489
0.0485191
0.0623556
0.072377
0.0806119
0.0878683
0.0946029
0.101052
0.10728
0.113344
0.119404
0.125644
0.132209
0.139327
0.147482
0.15752
0.170692
0.188181
0.209936
0.233954
0.256603
0.277854
0.309021
0.0222309
0.0487588
0.0627705
0.0729845
0.0814055
0.0887847
0.095525
0.10186
0.107911
0.113772
0.119591
0.125566
0.131916
0.13894
0.147137
0.157342
0.170614
0.187741
0.208569
0.231396
0.253722
0.276791
0.311744
0.0222071
0.0487236
0.0627543
0.0730435
0.0815835
0.0890877
0.0959139
0.102272
0.108289
0.114069
0.119744
0.1255
0.131573
0.138285
0.146112
0.155757
0.168137
0.183886
0.202886
0.223973
0.245603
0.269216
0.304068
0.0220904
0.0484598
0.0623956
0.0726608
0.0812382
0.0888181
0.0957281
0.102154
0.108212
0.113999
0.119627
0.125255
0.131103
0.13747
0.14478
0.153615
0.164675
0.178575
0.195359
0.214292
0.234473
0.256913
0.288149
0.0218871
0.0479884
0.0617487
0.0719154
0.0804579
0.0880522
0.0950081
0.101494
0.107615
0.113454
0.119102
0.124691
0.130404
0.136498
0.143332
0.151375
0.16118
0.173239
0.187732
0.204341
0.22255
0.242868
0.269298
0.0216036
0.0473295
0.0608591
0.0708743
0.0793252
0.0868773
0.0938313
0.100346
0.106518
0.112418
0.118123
0.123735
0.129401
0.135332
0.141815
0.149227
0.158001
0.168542
0.181073
0.195503
0.211574
0.229564
0.251674
0.0212485
0.0465103
0.0597724
0.0696007
0.0779183
0.0853822
0.0922883
0.0987921
0.104985
0.110934
0.116702
0.12237
0.128055
0.133923
0.1402
0.14718
0.155203
0.164598
0.175586
0.188197
0.202337
0.218186
0.236976
0.0208332
0.0455635
0.0585365
0.0681558
0.0763117
0.0836523
0.0904715
0.096925
0.103105
0.109075
0.114892
0.120625
0.126364
0.13224
0.13843
0.145162
0.1527
0.161306
0.17118
0.182408
0.194989
0.209069
0.225381
0.0203698
0.0445262
0.0571998
0.0665989
0.0745753
0.0817674
0.0884688
0.0948375
0.100969
0.106927
0.112769
0.118553
0.124356
0.13028
0.136466
0.14309
0.150357
0.158476
0.167619
0.177889
0.189338
0.202098
0.21664
0.0198714
0.043437
0.05581
0.0649855
0.0727729
0.0798003
0.0863607
0.092616
0.098666
0.10458
0.110415
0.116227
0.122083
0.128068
0.134294
0.140903
0.148055
0.155919
0.16464
0.174324
0.185047
0.196936
0.210325
0.0193523
0.0423336
0.0544116
0.0633664
0.0709619
0.0778149
0.0842183
0.0903381
0.0962798
0.102118
0.107914
0.113725
0.119611
0.12565
0.131934
0.13858
0.14572
0.153492
0.162023
0.171417
0.181762
0.193188
0.205954
0.0188304
0.0412491
0.0530447
0.0617866
0.0691918
0.0758662
0.0821024
0.0880704
0.0938821
0.0996185
0.105346
0.111123
0.117013
0.123086
0.129426
0.136132
0.143319
0.151108
0.159611
0.168934
0.179176
0.19047
0.203043
0.0183247
0.0402133
0.0517447
0.0602844
0.0675044
0.0739998
0.0800631
0.0858684
0.0915335
0.0971461
0.102778
0.108494
0.114359
0.120442
0.126822
0.133592
0.140856
0.148723
0.157305
0.166707
0.17704
0.188446
0.201139
0.0178531
0.0392529
0.0505417
0.0588919
0.0659337
0.0722523
0.0781404
0.083776
0.0892826
0.0947546
0.10027
0.1059
0.111712
0.117779
0.124179
0.131003
0.13835
0.146328
0.155046
0.164617
0.175162
0.186832
0.199834
0.0174303
0.0383912
0.0494608
0.057635
0.0645063
0.0706517
0.0763643
0.0818262
0.0871663
0.0924849
0.0978668
0.103388
0.109124
0.115149
0.121546
0.128406
0.13583
0.143924
0.152802
0.162582
0.173396
0.185396
0.198785
0.017067
0.0376469
0.0485217
0.0565333
0.0632418
0.0692181
0.0747564
0.0800425
0.0852104
0.0903663
0.0956009
0.100997
0.106634
0.112594
0.118964
0.125838
0.133319
0.141518
0.150553
0.160546
0.171632
0.183963
0.197725
0.0167697
0.0370336
0.0477385
0.0556005
0.0621537
0.067965
0.0733304
0.0784396
0.0834315
0.0884175
0.0934939
0.0987493
0.10427
0.110143
0.116461
0.123323
0.130837
0.139117
0.148285
0.158465
0.169791
0.182406
0.196471
0.0165419
0.0365588
0.0471194
0.0548445
0.0612494
0.0668993
0.0720934
0.0770252
0.0818382
0.0866485
0.0915575
0.0966593
0.102046
0.10781
0.114052
0.120875
0.128392
0.136721
0.145986
0.15631
0.167822
0.180645
0.19491
0.016384
0.0362251
0.0466673
0.0542681
0.0605313
0.0660235
0.0710475
0.0758014
0.0804327
0.085062
0.0897951
0.094731
0.099967
0.105603
0.111742
0.118496
0.125982
0.134322
0.14364
0.154057
0.165689
0.178638
0.192994
0.0162948
0.0360308
0.0463804
0.0538698
0.0599981
0.065336
0.0701912
0.0747663
0.079213
0.0836557
0.0882043
0.0929619
0.0980307
0.103515
0.109526
0.116179
0.123597
0.131906
0.141229
0.151683
0.163369
0.176364
0.190717
0.0162708
0.0359711
0.0462541
0.0536453
0.0596461
0.0648335
0.0695209
0.0739161
0.0781747
0.0824248
0.0867795
0.0913457
0.0962292
0.10154
0.107392
0.113909
0.121218
0.129449
0.138726
0.14916
0.16084
0.173815
0.188091
0.0163082
0.0360393
0.0462824
0.0535898
0.0594713
0.0645123
0.0690333
0.0732472
0.0773139
0.0813644
0.085515
0.0898751
0.0945538
0.0996642
0.105326
0.111667
0.118821
0.126922
0.136098
0.146457
0.158074
0.170974
0.185126
0.0164031
0.0362298
0.0464606
0.0537001
0.0594719
0.0643717
0.0687279
0.0727591
0.0766293
0.0804727
0.0844077
0.0885457
0.0929981
0.0978803
0.103316
0.109437
0.116384
0.124297
0.133311
0.143533
0.155032
0.167814
0.181815
0.0165531
0.0365401
0.0467889
0.0539785
0.0596515
0.0644162
0.0686095
0.0724563
0.076125
0.0797528
0.0834598
0.0873587
0.0915615
0.0961851
0.101355
0.107208
0.113889
0.121548
0.130328
0.140344
0.151664
0.164286
0.178119
0.0167594
0.0369759
0.0472767
0.0544368
0.0600237
0.0646596
0.0686918
0.072352
0.0758135
0.0792163
0.082682
0.0863237
0.090253
0.0945864
0.0994499
0.104982
0.111333
0.118662
0.127124
0.13685
0.147918
0.160325
0.173969
0.0170299
0.0375563
0.0479485
0.0551023
0.060616
0.0651291
0.0690005
0.0724704
0.0757175
0.078885
0.0820956
0.0854618
0.0890936
0.0931053
0.0976209
0.102778
0.108731
0.115646
0.123694
0.133028
0.143748
0.155865
0.169277
0.0173823
0.0383212
0.0488519
0.0560246
0.0614768
0.0658697
0.0695772
0.0728499
0.0758731
0.0787934
0.0817343
0.0848069
0.0881182
0.0917783
0.0959068
0.100639
0.106128
0.112546
0.120076
0.128893
0.139138
0.150857
0.16396
0.0178493
0.0393407
0.0500684
0.057285
0.0626816
0.0669494
0.0704828
0.0735457
0.0763314
0.0789902
0.081646
0.0844076
0.0873774
0.0906592
0.0943655
0.0986253
0.103588
0.109426
0.116332
0.124507
0.134126
0.145296
0.15797
0.0184864
0.0407313
0.0517271
0.0590053
0.064338
0.0684616
0.0717987
0.0746305
0.0771594
0.0795395
0.0818942
0.0843283
0.0869381
0.0898192
0.0930747
0.0968227
0.101204
0.106386
0.112569
0.119971
0.128809
0.139245
0.151324
0.0193902
0.042676
0.0540147
0.0613477
0.0665806
0.0705181
0.0736209
0.07619
0.0784376
0.0805197
0.0825572
0.0846494
0.0868844
0.0893479
0.0921307
0.0953373
0.0990946
0.10356
0.108931
0.115438
0.123334
0.13285
0.144118
0.0207248
0.0454349
0.0571511
0.0644757
0.0695315
0.0732172
0.076035
0.078305
0.0802466
0.0820151
0.0837248
0.0854666
0.0873183
0.0893536
0.0916497
0.0942955
0.0974002
0.101104
0.105592
0.111096
0.117898
0.126294
0.136528
0.0227153
0.0492744
0.0612687
0.0684318
0.0731959
0.0765595
0.0790511
0.0809997
0.0826288
0.0840879
0.0854795
0.0868809
0.0883573
0.0899657
0.0917694
0.0938436
0.0962785
0.0991914
0.102743
0.107151
0.112708
0.119768
0.128701
0.0256178
0.054161
0.0661241
0.0729112
0.0772857
0.0803019
0.0824773
0.0841313
0.0854912
0.0866973
0.0878328
0.0889555
0.0901163
0.091336
0.0926544
0.0941529
0.0959079
0.0980096
0.100584
0.103813
0.107963
0.11341
0.120642
0.0294028
0.0593192
0.0708267
0.0770828
0.0810663
0.0838038
0.0857539
0.0872123
0.0884191
0.0895081
0.0905399
0.0915567
0.0926154
0.0936397
0.094509
0.0954313
0.0964978
0.0977726
0.0993356
0.101308
0.10388
0.107356
0.112219
0.0330185
0.0630203
0.0739014
0.079712
0.0834418
0.0860396
0.0878972
0.0892881
0.0904766
0.0916011
0.0927168
0.093892
0.0953352
0.0971258
0.097607
0.0979428
0.0983072
0.0987387
0.0992655
0.099928
0.100792
0.101968
0.103662
0.0900998
0.0901617
0.0950204
0.112357
0.15991
0.168247
0.178928
0.194668
0.197692
0.205564
0.21465
0.226784
0.235637
0.240158
0.246657
0.25791
0.275851
0.272012
0.274288
0.284359
0.309622
0.297701
0.295477
0.302507
0.316593
0.313026
0.311231
0.315432
0.330781
0.332299
0.329852
0.330142
0.345389
0.356505
0.35664
0.352663
0.34461
0.368387
0.382114
0.380994
0.325433
0.352701
0.379324
0.398496
0.299251
0.322567
0.349449
0.378028
0.274688
0.292667
0.313832
0.338132
0.255082
0.269028
0.285059
0.303176
0.240251
0.251507
0.264084
0.277868
0.229418
0.238962
0.249424
0.260673
0.221809
0.23031
0.239533
0.249393
0.216739
0.224673
0.23324
0.242409
0.213578
0.221293
0.229607
0.238526
0.211733
0.219466
0.227788
0.236729
0.210665
0.218545
0.227012
0.236108
0.209916
0.21798
0.226626
0.235897
0.20913
0.217353
0.226138
0.235526
0.20807
0.216385
0.225229
0.234638
0.206602
0.214929
0.22374
0.233065
0.20468
0.212942
0.221638
0.230787
0.202313
0.210452
0.21897
0.227877
0.199543
0.207521
0.215825
0.224456
0.196408
0.20421
0.212289
0.22064
0.192923
0.200554
0.208421
0.216512
0.189068
0.196544
0.204226
0.212094
0.184774
0.192117
0.199646
0.207338
0.179943
0.187168
0.194573
0.202131
0.174466
0.181572
0.188868
0.196321
0.168258
0.175222
0.1824
0.189756
0.161299
0.168074
0.1751
0.182339
0.153655
0.160174
0.166993
0.174074
0.145473
0.151656
0.158204
0.165078
0.136859
0.142614
0.148827
0.155466
0.12768
0.132811
0.138562
0.144923
0.117368
0.121339
0.126094
0.131781
0.105594
0.107201
0.109361
0.112444
0.218411
0.303554
0.345426
0.403347
0.49567
0.647509
0.874709
1.18718
1.64324
1.36464
0.760522
0.548874
0.448505
0.390702
0.341509
0.284878
0.227028
0.166321
0.0781413
0.23528
0.287011
0.345738
0.43
0.493158
0.584006
0.759264
1.07406
1.59454
1.44395
0.990124
0.616755
0.464033
0.394291
0.342746
0.285783
0.228154
0.166989
0.0791329
0.252116
0.316399
0.427784
0.529374
0.571285
0.669723
0.861845
1.18548
1.59757
1.58221
1.19015
0.672365
0.47921
0.397862
0.344094
0.289592
0.232448
0.168245
0.0793338
0.283312
0.359975
0.469641
0.566308
0.661924
0.842163
1.08599
1.34318
1.67909
1.90272
1.18944
0.679265
0.490797
0.406279
0.34999
0.301492
0.245682
0.17421
0.0807192
0.310009
0.387149
0.501736
0.628585
0.775926
0.98028
1.20662
1.47499
1.93159
2.00238
1.05866
0.655605
0.50133
0.420384
0.362264
0.322622
0.271991
0.187896
0.0851123
0.324239
0.395756
0.513617
0.67328
0.849787
1.05399
1.27033
1.57213
2.00921
1.50351
0.886361
0.631694
0.516843
0.440555
0.379401
0.339519
0.293545
0.203144
0.0934571
0.330369
0.387572
0.493049
0.653784
0.844849
1.04665
1.2369
1.47646
1.64246
1.09756
0.773734
0.626799
0.541987
0.467067
0.400109
0.34792
0.291982
0.214626
0.0933283
0.337027
0.374333
0.455269
0.593998
0.768578
0.942051
1.10319
1.20727
1.17442
0.907911
0.729279
0.644302
0.579609
0.500228
0.426229
0.362186
0.291897
0.213382
0.0855727
0.350556
0.368175
0.419133
0.517979
0.67703
0.849648
0.99653
1.02778
1.00067
0.817784
0.722082
0.679872
0.62922
0.539247
0.462093
0.39314
0.311491
0.218963
0.0894392
0.372867
0.374768
0.40068
0.460115
0.563618
0.716167
0.874625
0.934926
0.844936
0.760728
0.733676
0.722896
0.674206
0.585541
0.516809
0.449493
0.354716
0.24401
0.104477
0.404879
0.393945
0.401828
0.434238
0.496377
0.5901
0.705378
0.774108
0.747999
0.750078
0.764886
0.760097
0.706539
0.641361
0.603254
0.522309
0.414066
0.275867
0.126099
0.419251
0.422633
0.417772
0.433187
0.471943
0.533503
0.610094
0.679086
0.726483
0.779002
0.816676
0.797115
0.732705
0.695897
0.67895
0.566307
0.474766
0.30578
0.148297
0.382597
0.433281
0.439033
0.447111
0.474602
0.524347
0.591214
0.669059
0.752776
0.836928
0.86977
0.815095
0.737791
0.692844
0.667304
0.665383
0.522698
0.343034
0.168167
0.336928
0.389915
0.436509
0.457239
0.490447
0.54127
0.612493
0.70266
0.80597
0.896752
0.87
0.803527
0.734641
0.695655
0.716491
0.77447
0.589544
0.383476
0.185224
0.302855
0.342602
0.38806
0.432227
0.479209
0.545133
0.632058
0.732917
0.842575
0.877638
0.844398
0.791659
0.742305
0.726403
0.789837
0.840382
0.63625
0.414997
0.199718
0.280596
0.310742
0.347581
0.394815
0.458386
0.540789
0.646595
0.762877
0.833571
0.844058
0.822482
0.786239
0.756671
0.766921
0.856469
0.851896
0.638502
0.435038
0.212163
0.26678
0.292456
0.324703
0.370026
0.438682
0.537946
0.657616
0.759031
0.80425
0.814415
0.802951
0.77937
0.761156
0.790176
0.862439
0.822267
0.634206
0.448646
0.22142
0.258672
0.282838
0.31364
0.357801
0.424974
0.521097
0.633712
0.725521
0.769846
0.784339
0.780037
0.762065
0.754994
0.786519
0.833546
0.789394
0.633187
0.460999
0.227344
0.25446
0.278502
0.309136
0.352296
0.415647
0.502773
0.602296
0.685111
0.731231
0.750595
0.750263
0.739452
0.741654
0.771093
0.801009
0.765366
0.638813
0.473029
0.23104
0.252777
0.277257
0.308052
0.349873
0.408219
0.484797
0.57021
0.643475
0.68965
0.712195
0.717069
0.715693
0.725353
0.752214
0.775469
0.748853
0.646571
0.483712
0.232262
0.252459
0.277482
0.308326
0.348436
0.401409
0.467668
0.539905
0.603512
0.647548
0.672485
0.683968
0.692178
0.708525
0.73511
0.755836
0.736368
0.651192
0.493018
0.230513
0.252544
0.277938
0.308508
0.346594
0.394331
0.451364
0.512184
0.566851
0.60774
0.634724
0.652707
0.669598
0.692319
0.720056
0.739092
0.722958
0.64912
0.499525
0.231131
0.252334
0.277777
0.307673
0.343491
0.386344
0.435491
0.486872
0.533888
0.571615
0.600205
0.623749
0.647863
0.676004
0.704908
0.721873
0.705506
0.63769
0.503986
0.23623
0.251408
0.276531
0.305368
0.338748
0.377131
0.419662
0.463438
0.504236
0.539184
0.568896
0.59668
0.626164
0.658146
0.687488
0.702233
0.684866
0.622549
0.496202
0.241942
0.249594
0.274059
0.301525
0.33238
0.366706
0.403711
0.441408
0.477253
0.50984
0.540139
0.570722
0.603592
0.637654
0.666607
0.679444
0.662145
0.605379
0.481251
0.24094
0.246905
0.270455
0.296344
0.324679
0.355351
0.387725
0.420536
0.452412
0.48293
0.513237
0.545218
0.579609
0.614092
0.641879
0.653146
0.636969
0.585825
0.460958
0.229823
0.24347
0.265953
0.290181
0.316091
0.34351
0.37199
0.400825
0.429443
0.458037
0.487759
0.519874
0.554172
0.587622
0.613449
0.623114
0.608328
0.562706
0.440268
0.215187
0.239469
0.260837
0.283435
0.307104
0.331673
0.356882
0.38244
0.408302
0.435003
0.463588
0.494774
0.527676
0.558929
0.582092
0.589913
0.576357
0.536067
0.422462
0.201971
0.235076
0.25538
0.276473
0.298155
0.320285
0.342763
0.365595
0.389061
0.413848
0.440821
0.470246
0.500776
0.528964
0.548955
0.554732
0.542032
0.506759
0.406355
0.191025
0.230422
0.249783
0.269573
0.289569
0.309671
0.329902
0.35046
0.371803
0.394645
0.419642
0.446691
0.474152
0.498627
0.515012
0.518499
0.506036
0.475395
0.391725
0.182546
0.225561
0.244155
0.262891
0.281534
0.300012
0.318433
0.337103
0.356554
0.377445
0.400221
0.42449
0.448422
0.468713
0.481142
0.482014
0.469049
0.443156
0.37879
0.175925
0.22046
0.23849
0.256448
0.27408
0.291327
0.308338
0.325468
0.343245
0.362229
0.382669
0.403972
0.424213
0.4402
0.44863
0.446685
0.433246
0.411127
0.364301
0.172164
0.215003
0.232676
0.250134
0.26709
0.283479
0.299454
0.315367
0.331697
0.348882
0.367009
0.385371
0.402072
0.414149
0.418855
0.414231
0.400573
0.379728
0.34506
0.17532
0.209018
0.226517
0.243728
0.26032
0.276194
0.291479
0.306488
0.32162
0.33719
0.353151
0.368759
0.382249
0.390963
0.392424
0.385465
0.371434
0.350999
0.317772
0.1755
0.202317
0.219774
0.236946
0.253438
0.269098
0.284004
0.298406
0.312616
0.326828
0.340891
0.354052
0.364698
0.37037
0.368911
0.360104
0.345364
0.32452
0.288797
0.16695
0.194756
0.212237
0.229506
0.246092
0.261773
0.276559
0.290621
0.304184
0.31735
0.32988
0.340992
0.349105
0.351815
0.347693
0.337147
0.321331
0.29952
0.262422
0.153427
0.186302
0.203805
0.221228
0.238014
0.253861
0.268699
0.282617
0.295759
0.308155
0.319502
0.328951
0.334816
0.334743
0.32805
0.315332
0.297656
0.274241
0.237266
0.138684
0.177064
0.194573
0.21215
0.229156
0.245212
0.260163
0.274017
0.286838
0.298588
0.308901
0.31681
0.320502
0.317712
0.308214
0.292671
0.272143
0.246796
0.210863
0.123574
0.167214
0.184866
0.202642
0.219841
0.236059
0.251081
0.264828
0.277275
0.288299
0.297439
0.303544
0.304496
0.298081
0.284954
0.266135
0.24269
0.215699
0.182034
0.108462
0.15654
0.175139
0.193445
0.210858
0.227159
0.24215
0.255677
0.26761
0.277704
0.285325
0.288953
0.285605
0.27282
0.254735
0.232694
0.207458
0.180542
0.151839
0.0939207
0.143119
0.165713
0.18559
0.20339
0.219719
0.23459
0.247817
0.259154
0.268184
0.27397
0.274199
0.263562
0.235892
0.211107
0.187943
0.16538
0.1439
0.124291
0.0798631
0.120496
0.157262
0.180385
0.198755
0.215084
0.229823
0.242819
0.253745
0.262008
0.266231
0.2627
0.240539
0.165064
0.140467
0.128726
0.120208
0.112405
0.105292
0.073021
)
;

boundaryField
{
    leftWall
    {
        type            kqRWallFunction;
        value           nonuniform List<scalar> 
50
(
0.00353762
0.00564117
0.00663826
0.00704878
0.00705428
0.00685717
0.00672148
0.00690864
0.00826393
0.0120168
0.0158337
0.0191971
0.0206194
0.0215359
0.0219369
0.0221489
0.0222309
0.0222071
0.0220904
0.0218871
0.0216036
0.0212485
0.0208332
0.0203698
0.0198714
0.0193523
0.0188304
0.0183247
0.0178531
0.0174303
0.017067
0.0167697
0.0165419
0.016384
0.0162948
0.0162708
0.0163082
0.0164031
0.0165531
0.0167594
0.0170299
0.0173823
0.0178493
0.0184864
0.0193902
0.0207248
0.0227153
0.0256178
0.0294028
0.0330185
)
;
    }
    rightWall
    {
        type            kqRWallFunction;
        value           nonuniform List<scalar> 
50
(
0.0250013
0.0382258
0.0509119
0.0601546
0.06629
0.0708073
0.0741771
0.0765444
0.0781413
0.0791329
0.0793338
0.0807192
0.0851123
0.0934571
0.0933283
0.0855727
0.0894392
0.104477
0.126099
0.148297
0.168167
0.185224
0.199718
0.212163
0.22142
0.227344
0.23104
0.232262
0.230513
0.231131
0.23623
0.241942
0.24094
0.229823
0.215187
0.201971
0.191025
0.182546
0.175925
0.172164
0.17532
0.1755
0.16695
0.153427
0.138684
0.123574
0.108462
0.0939207
0.0798631
0.073021
)
;
    }
    lowerWall
    {
        type            kqRWallFunction;
        value           nonuniform List<scalar> 
62
(
0.00353762
0.00562473
0.00792453
0.00993239
0.011689
0.0132658
0.014722
0.0160792
0.01734
0.0184939
0.0195175
0.020378
0.0210397
0.0214681
0.0216306
0.0215046
0.0210781
0.0203029
0.0191819
0.0177068
0.0157082
0.0124718
0.00736466
0.00736466
0.014246
0.0191029
0.024392
0.0310714
0.0406732
0.0552508
0.0765277
0.0900998
0.0901617
0.0950204
0.112357
0.133649
0.286036
0.357955
0.380526
0.359198
0.325124
0.287952
0.24661
0.133649
0.21904
0.262022
0.268318
0.24283
0.19946
0.160106
0.136692
0.128209
0.129036
0.134846
0.141108
0.143399
0.136942
0.121367
0.101469
0.0811804
0.0547791
0.0250013
)
;
    }
    atmosphere
    {
        type            inletOutlet;
        inletValue      uniform 0.1;
        value           nonuniform List<scalar> 
46
(
0.0330185
0.0630203
0.0739014
0.079712
0.0834418
0.0860396
0.0878972
0.0892881
0.0904766
0.0916011
0.0927168
0.093892
0.0953352
0.1
0.1
0.1
0.1
0.1
0.1
0.1
0.1
0.1
0.1
0.1
0.1
0.1
0.1
0.1
0.157262
0.180385
0.198755
0.215084
0.229823
0.242819
0.253745
0.262008
0.266231
0.2627
0.240539
0.1
0.1
0.1
0.1
0.1
0.1
0.073021
)
;
    }
    defaultFaces
    {
        type            empty;
    }
}


// ************************************************************************* //
