/*--------------------------------*- C++ -*----------------------------------*\
  =========                 |
  \\      /  F ield         | OpenFOAM: The Open Source CFD Toolbox
   \\    /   O peration     | Website:  https://openfoam.org
    \\  /    A nd           | Version:  9
     \\/     M anipulation  |
\*---------------------------------------------------------------------------*/
FoamFile
{
    format      ascii;
    class       volScalarField;
    location    "0.75";
    object      nut;
}
// * * * * * * * * * * * * * * * * * * * * * * * * * * * * * * * * * * * * * //

dimensions      [0 2 -1 0 0 0 0];

internalField   nonuniform List<scalar> 
2268
(
0.000179424
7.03465e-05
7.9319e-05
8.69799e-05
9.34409e-05
9.87531e-05
0.000103032
0.000106428
0.000109191
0.000111527
0.000113579
0.000115422
0.000117044
0.000118335
0.000119066
0.000118882
0.000117328
0.000113905
0.000108156
0.000100662
9.06353e-05
7.68933e-05
0.000287751
0.000155478
0.000490787
0.000678188
0.000780079
0.000860914
0.000926143
0.000970039
0.000999603
0.00101853
0.00102908
0.00103266
0.00102997
0.00102079
0.00100377
0.000976305
0.00093472
0.000875271
0.000795692
0.000692596
0.000537915
0.000386584
0.000278284
0.000168388
0.000177067
0.000822382
0.00123515
0.00148217
0.0016625
0.00180077
0.0018977
0.00196167
0.001999
0.0020143
0.00201081
0.00199049
0.00195364
0.0018985
0.00182125
0.00171672
0.00158046
0.00141179
0.00121253
0.000960382
0.000687458
0.000457903
0.000184001
0.000194688
0.00107482
0.00168065
0.00206548
0.00234017
0.00254403
0.00268716
0.00277924
0.00282818
0.0028403
0.00282052
0.00277223
0.00269673
0.00259287
0.0024572
0.00228512
0.00207401
0.00182714
0.00155297
0.00124043
0.000902551
0.000587434
0.000191492
0.000209428
0.00128147
0.00205159
0.00255907
0.00291858
0.00317973
0.00336079
0.0034737
0.00352771
0.00353047
0.00348825
0.00340578
0.00328559
0.00312758
0.00292946
0.00268827
0.00240439
0.00208651
0.00175145
0.00139814
0.00102891
0.000664461
0.000193717
0.000222192
0.00145346
0.00236848
0.0029856
0.00342134
0.00373277
0.00394506
0.00407298
0.00412714
0.0041163
0.00404785
0.00392769
0.00375948
0.00354442
0.0032817
0.00297044
0.00261446
0.00222863
0.00183981
0.0014581
0.00107873
0.000694712
0.000192108
0.000234008
0.00159642
0.00264349
0.00336
0.00386492
0.00422113
0.00445972
0.00459843
0.00464935
0.00462224
0.00452546
0.00436582
0.00414794
0.00387447
0.00354624
0.00316455
0.00273672
0.00228373
0.00184362
0.00144075
0.00106599
0.000686774
0.000187673
0.000244934
0.00172153
0.00288687
0.00369328
0.00426131
0.00465803
0.00491945
0.00506617
0.00511168
0.00506668
0.00494031
0.00474033
0.00447258
0.00414085
0.00374755
0.00329633
0.00279796
0.00227867
0.00178823
0.0013666
0.00100516
0.00065099
0.000183176
0.000289853
7.00238e-05
7.54748e-05
7.85003e-05
8.15085e-05
8.42403e-05
8.65277e-05
8.83964e-05
8.99781e-05
9.14927e-05
9.34134e-05
9.58082e-05
9.85791e-05
0.000101344
0.000102711
0.000100426
9.04809e-05
6.94133e-05
0.000198445
0.000188602
0.000426003
0.000433637
0.000422713
0.000419938
0.000426987
0.000440176
0.000457858
0.000480826
0.000511027
0.000548637
0.000589433
0.000640757
0.000695106
0.000730118
0.000712513
0.000599742
0.00036871
0.000220944
0.000234689
0.000736723
0.000803659
0.00083329
0.0008659
0.000897819
0.000921962
0.000938393
0.000951478
0.000967264
0.000993499
0.00104234
0.0011214
0.00121013
0.00125819
0.00120834
0.00100489
0.000548076
0.000273116
0.000265728
0.00101858
0.00118503
0.00127706
0.00133879
0.0013641
0.00135424
0.00132215
0.00128583
0.00126728
0.00129389
0.00138941
0.00154665
0.00170688
0.00178022
0.00170382
0.00143684
0.000811279
0.000312913
0.000289329
0.0012768
0.00156138
0.00170715
0.00176834
0.00175034
0.00167531
0.00157899
0.00150147
0.00148542
0.00157359
0.00177866
0.00204928
0.00227388
0.00234027
0.0022101
0.00186589
0.00118963
0.000349579
0.000309638
0.00151097
0.00191566
0.0020949
0.00212606
0.00204135
0.00189387
0.00174826
0.001668
0.0017111
0.00191933
0.00226463
0.00263538
0.00288564
0.00290969
0.0027039
0.0022623
0.00157288
0.000385754
0.000328344
0.00172245
0.00223654
0.0024262
0.0024053
0.0022461
0.00203933
0.00187835
0.0018433
0.00199675
0.00235819
0.00283476
0.00326741
0.00351026
0.00347873
0.00319073
0.00263865
0.00190089
0.000414294
0.000347579
0.0019225
0.00252116
0.00269606
0.00260928
0.00238196
0.00214372
0.00200906
0.00206301
0.00236195
0.00288051
0.00345578
0.00391322
0.00413136
0.00404932
0.00368519
0.00302072
0.0021563
0.000424534
0.000257469
0.00189409
0.0032271
0.00416347
0.0048228
0.00527809
0.00556972
0.00572383
0.00575627
0.00567937
0.00550366
0.00523842
0.00489148
0.00446915
0.00397727
0.00342422
0.00282738
0.00222181
0.00166351
0.00121245
0.000876914
0.000603657
0.000299349
0.000273231
0.00208756
0.00360981
0.0046907
0.00545373
0.00597768
0.00630778
0.00647061
0.00648751
0.00637301
0.00613937
0.00579783
0.0053588
0.00483238
0.0042299
0.00356781
0.002875
0.00220198
0.00162042
0.00119745
0.000916786
0.000740553
0.000663815
0.000287352
0.00225275
0.00393544
0.00514035
0.00599339
0.00657804
0.00694451
0.00712329
0.00713394
0.00699373
0.00671939
0.00632433
0.00582274
0.0052306
0.00456779
0.00386199
0.00315369
0.00249814
0.00195788
0.00154939
0.00128235
0.00114355
0.00111556
0.000300544
0.00239467
0.00421758
0.00553096
0.00646357
0.00710363
0.0075056
0.00770377
0.00772135
0.00757647
0.00728484
0.00686521
0.00633791
0.00572667
0.00506048
0.00437531
0.00371195
0.00310831
0.00258702
0.00217783
0.00190045
0.00176205
0.00176641
0.000313232
0.00251781
0.00446406
0.00587298
0.00687684
0.00756855
0.00800644
0.00822827
0.00826048
0.00812421
0.00783908
0.00742623
0.0069097
0.0063174
0.00568161
0.00503754
0.00441998
0.0038584
0.0033752
0.00299104
0.0027251
0.00259464
0.00261476
0.000324883
0.00262477
0.00467922
0.00617262
0.00724077
0.00798106
0.00845551
0.00870507
0.0087592
0.00864194
0.00837586
0.00798475
0.00749522
0.00693726
0.00634375
0.00574825
0.0051816
0.00466875
0.00422844
0.003876
0.00362573
0.00349077
0.00347784
0.000335617
0.00271703
0.00486599
0.00643411
0.00756035
0.00834638
0.0088576
0.00913795
0.0092196
0.0091291
0.00889126
0.0085318
0.00807864
0.00756232
0.00701489
0.00646757
0.00594771
0.00547644
0.00506847
0.00473371
0.00447878
0.00430565
0.00420487
0.000345451
0.0027958
0.00502681
0.00666082
0.00783945
0.00866824
0.00921574
0.00952855
0.00964118
0.00958214
0.00937783
0.0090549
0.00864153
0.00816752
0.00766315
0.00715686
0.00667255
0.00622757
0.00583222
0.00549049
0.00520063
0.00495388
0.00473086
0.000354439
0.00286226
0.00516399
0.00685585
0.00808149
0.00894986
0.00953231
0.00987776
0.0100226
0.00999681
0.00982759
0.00954171
0.00916662
0.00873052
0.00826122
0.00778406
0.00731953
0.00688133
0.00647569
0.00610154
0.00575124
0.00541105
0.00506278
0.000362652
0.00291763
0.00527986
0.00702223
0.0082898
0.00919437
0.00980969
0.0101866
0.0103629
0.0103695
0.0102338
0.00998198
0.00964011
0.00923414
0.00878901
0.00832691
0.00786514
0.00741447
0.00697835
0.0065532
0.00612985
0.00569635
0.00524347
0.000370166
0.00296314
0.00537673
0.00716299
0.00846771
0.00940499
0.0100505
0.0104566
0.010662
0.010698
0.0105919
0.0103687
0.0100527
0.00966735
0.00923474
0.00877404
0.00830001
0.00782162
0.00734156
0.00685688
0.00636118
0.00584889
0.00532213
0.000377062
0.00299998
0.00545684
0.00728106
0.00861852
0.00958503
0.0102577
0.0106899
0.0109208
0.0109819
0.0108997
0.0106982
0.0103997
0.0100254
0.0095947
0.00912432
0.00862727
0.00811203
0.00758249
0.00703899
0.00648079
0.00591047
0.00534025
0.000383413
0.00302924
0.00552227
0.0073792
0.00874541
0.00973784
0.0104345
0.0108893
0.0111417
0.0112226
0.0111579
0.0109704
0.0106811
0.0103093
0.00987236
0.00938521
0.00885987
0.00830529
0.00772789
0.00713274
0.00652593
0.00591803
0.00532862
0.000389289
0.00305192
0.0055749
0.00745992
0.00885136
0.00986669
0.0105844
0.0110583
0.0113276
0.0114228
0.0113691
0.0111885
0.0109011
0.0105252
0.0100772
0.00957098
0.00901797
0.00842794
0.00780995
0.00717396
0.00653258
0.00590322
0.00531045
0.000394747
0.00306884
0.0056163
0.00752541
0.00893904
0.00997468
0.0107107
0.0112005
0.0114826
0.011587
0.0115382
0.0113582
0.0110673
0.0106838
0.010224
0.00970142
0.00912722
0.00851141
0.00786475
0.0072007
0.00653702
0.00589655
0.00530744
0.000399838
0.00308065
0.00564778
0.00757751
0.00901081
0.0100647
0.0108168
0.0113197
0.0116113
0.0117205
0.011672
0.0114884
0.011191
0.0107998
0.0103318
0.00980085
0.00921752
0.00859107
0.007932
0.00725483
0.00657992
0.00593381
0.00534775
0.000404599
0.00308787
0.00567032
0.00761771
0.00906868
0.0101392
0.0109059
0.0114201
0.0117186
0.0118297
0.0117788
0.0115898
0.0112867
0.0108916
0.0104237
0.00989711
0.0093217
0.00870471
0.0080542
0.00738257
0.00670942
0.00606224
0.00547465
0.000409061
0.00309085
0.0056847
0.0076472
0.00911432
0.0102005
0.0109809
0.0115054
0.0118095
0.0119215
0.0118678
0.0116751
0.0113708
0.0109803
0.0105249
0.0100195
0.00947263
0.00888885
0.00827209
0.00763005
0.0069778
0.00633997
0.00575005
0.000413242
0.00308986
0.00569149
0.00766699
0.0091492
0.0102507
0.0110446
0.0115793
0.011889
0.0120026
0.0119487
0.0117576
0.0114607
0.0110871
0.0106601
0.0101947
0.00969819
0.00917195
0.00861557
0.00803096
0.00742644
0.00682002
0.00624084
0.000417157
0.00308513
0.00569124
0.00767797
0.00917467
0.0102914
0.0110993
0.0116445
0.0119611
0.0120791
0.0120302
0.0118492
0.0115718
0.0112301
0.0108485
0.0104415
0.0100145
0.00956638
0.00909301
0.00859143
0.00806349
0.00751941
0.0069807
0.000420818
0.00307693
0.00568457
0.00768115
0.00919202
0.0103243
0.0111464
0.0117032
0.0120285
0.0121549
0.0121182
0.0119581
0.0117139
0.0114194
0.0110987
0.0107647
0.0104206
0.0100633
0.00968635
0.00928369
0.00885291
0.00839817
0.00793355
0.000424242
0.00306567
0.00567236
0.00767778
0.00920261
0.0103504
0.0111868
0.0117554
0.0120913
0.0122306
0.0122142
0.012086
0.0118878
0.0116533
0.0114046
0.0111522
0.0108969
0.010634
0.0103558
0.0100551
0.0097274
0.0093736
0.00900278
0.000427454
0.00305203
0.00565591
0.00766943
0.00920777
0.0103702
0.0112195
0.011799
0.0121462
0.0123021
0.0123129
0.012226
0.0120836
0.0119174
0.011746
0.0115769
0.0114089
0.0112359
0.0110501
0.0108441
0.0106127
0.0103555
0.0100788
0.000430497
0.003037
0.00563709
0.00765808
0.00920856
0.0103828
0.0112412
0.0118279
0.0121849
0.0123592
0.0124018
0.0123621
0.0122807
0.0121853
0.0120906
0.0120009
0.0119132
0.0118208
0.0117162
0.0115922
0.0114438
0.0112702
0.0110758
0.000433435
0.00302208
0.00561838
0.00764587
0.00920522
0.0103854
0.0112452
0.0118319
0.0121941
0.0123855
0.0124612
0.0124703
0.0124498
0.0124227
0.0123993
0.012381
0.0123636
0.0123405
0.0123045
0.0122491
0.0121696
0.0120649
0.0119381
0.000436361
0.00300928
0.00560281
0.00763464
0.00919636
0.0103719
0.0112208
0.0117964
0.0121559
0.0123601
0.0124665
0.0125217
0.0125576
0.012592
0.0126312
0.0126742
0.0127161
0.0127506
0.0127714
0.0127729
0.0127505
0.0127027
0.012632
0.000439403
0.00300116
0.00559355
0.00762512
0.00917792
0.0103328
0.0111538
0.011704
0.0120507
0.0122609
0.0123924
0.0124876
0.0125718
0.0126582
0.0127494
0.0128426
0.0129329
0.0130147
0.0130825
0.0131313
0.0131572
0.013158
0.0131351
0.000442733
0.00300066
0.00559319
0.00761578
0.00914267
0.010256
0.0110293
0.0115387
0.0118618
0.0120701
0.0122191
0.0123458
0.0124692
0.0125965
0.0127275
0.0128589
0.0129864
0.0131052
0.0132111
0.0132997
0.0133673
0.0134114
0.0134318
0.000446562
0.00301057
0.00560245
0.00760193
0.00908085
0.0101293
0.0108355
0.0112908
0.0115809
0.0117803
0.0119396
0.0120877
0.0122372
0.0123913
0.0125485
0.0127056
0.0128591
0.0130054
0.0131414
0.0132636
0.0133684
0.0134526
0.0135142
0.000451128
0.00303246
0.00561859
0.00757556
0.00898238
0.00994476
0.0105672
0.0109573
0.0112103
0.0113957
0.0115558
0.0117122
0.0118729
0.012039
0.0122084
0.0123787
0.0125474
0.0127124
0.0128713
0.0130214
0.0131594
0.0132813
0.0133834
0.000456632
0.00306486
0.00563405
0.00752631
0.00883955
0.00969269
0.0102212
0.0105457
0.010759
0.0109227
0.0110718
0.0112224
0.0113798
0.011544
0.0117134
0.0118863
0.0120613
0.0122373
0.0124128
0.0125856
0.0127527
0.0129097
0.0130509
0.000463037
0.00310071
0.00563538
0.00744267
0.00863062
0.00936441
0.00979996
0.0100591
0.0102271
0.0103584
0.0104828
0.0106142
0.0107569
0.0109105
0.0110733
0.0112437
0.0114208
0.011604
0.0117921
0.0119835
0.0121754
0.0123635
0.0125408
0.000469848
0.00312297
0.00560208
0.00728507
0.00833215
0.00894621
0.00929185
0.00948277
0.00959509
0.00967885
0.00976357
0.00986452
0.00998797
0.0101327
0.0102944
0.0104685
0.0106529
0.0108465
0.0110481
0.0112562
0.0114688
0.0116824
0.0118901
0.000477158
0.003081
0.00546315
0.00699982
0.00790073
0.00840035
0.00865919
0.00877566
0.008818
0.00883676
0.00886522
0.00892602
0.00903783
0.00919534
0.00938345
0.00958382
0.00979319
0.0100097
0.0102314
0.010457
0.0106863
0.0109183
0.0111473
0.000481837
0.00285946
0.00511293
0.00649833
0.00725776
0.0076518
0.00782503
0.00786097
0.00782488
0.00776933
0.00774999
0.00781317
0.00795327
0.00815252
0.00838774
0.00863923
0.00889694
0.00915308
0.00940333
0.00964735
0.00988791
0.0101283
0.0103665
0.000479624
0.00243277
0.0044504
0.00568093
0.00630784
0.00659021
0.00666219
0.00662126
0.00653515
0.00646467
0.00647395
0.00658295
0.00678865
0.00706812
0.00738416
0.00771502
0.00804247
0.00834943
0.0086297
0.00888634
0.0091279
0.00936375
0.0095972
0.0004682
0.00191782
0.00348551
0.00447054
0.00486347
0.00493899
0.00497328
0.00500587
0.00503818
0.00509868
0.00522787
0.00543921
0.00573131
0.00610191
0.00651163
0.00693181
0.00732661
0.00767236
0.00796524
0.00821537
0.00844035
0.00865576
0.00887028
0.0004417
0.0015179
0.0025883
0.00323875
0.00339115
0.00343201
0.00351319
0.00366611
0.00388008
0.00414435
0.00446178
0.00477383
0.00508984
0.00547511
0.00593189
0.00638304
0.00679
0.00713195
0.00740536
0.00762504
0.00781407
0.00799413
0.0081765
0.000401049
0.0013716
0.00224285
0.00281672
0.00297969
0.00292411
0.00297322
0.00316568
0.00347044
0.00383377
0.00423374
0.0045897
0.00486494
0.00520237
0.00561792
0.00602414
0.00637629
0.00666024
0.00687969
0.00705161
0.00719746
0.00733689
0.00748042
0.000367106
0.00153029
0.00245796
0.0030372
0.00306733
0.00300788
0.00305361
0.00323772
0.00347404
0.00373256
0.00405142
0.00438754
0.00467574
0.0049787
0.00530414
0.00561219
0.00586971
0.00607669
0.0062331
0.00635648
0.00646103
0.00655918
0.00665163
0.000443401
0.00190297
0.00276945
0.00309013
0.00323605
0.00334976
0.00334
0.00345703
0.00362167
0.00375978
0.00396886
0.00424785
0.00452534
0.00467098
0.00491631
0.00515244
0.00528362
0.00540933
0.00547135
0.00553039
0.00557029
0.00561523
0.0056431
0.000452088
0.00204649
0.00270391
0.00354716
0.00436636
0.00419744
0.00391354
0.00390216
0.00388604
0.00379731
0.003916
0.0042353
0.00443251
0.00417096
0.00438529
0.00437412
0.00450528
0.00446363
0.00454543
0.00448552
0.00454548
0.00447532
0.00453871
0.000236134
0.000277924
0.000311991
0.000336212
0.000708355
0.000730514
0.000788966
0.000957334
0.00119521
0.001298
0.00147812
0.0017745
0.00192676
0.00209188
0.00231883
0.00259925
0.00278593
0.00293233
0.00310177
0.00327138
0.0035659
0.00362959
0.00368644
0.00371998
0.00415033
0.00410757
0.00404806
0.00396586
0.00452396
0.00438532
0.00423555
0.00407673
0.00472927
0.00452193
0.00431649
0.00411932
0.00482315
0.0045763
0.00434549
0.00413843
0.00485384
0.00459118
0.00435651
0.00415691
0.00485473
0.00459249
0.0043668
0.00418317
0.00484665
0.00459422
0.00438369
0.00421869
0.00484333
0.0046046
0.0044107
0.00426341
0.00485796
0.00463237
0.00445302
0.00432014
0.00491136
0.00469435
0.00452425
0.00440016
0.00504163
0.00482536
0.00465603
0.00453239
0.00531155
0.00508754
0.00490899
0.00477542
0.00579957
0.0055652
0.00537169
0.00522044
0.00655861
0.00632414
0.00612249
0.00595717
0.00756281
0.00734874
0.00715846
0.00699676
0.0087055
0.00852908
0.00836904
0.0082304
0.00985774
0.00972398
0.00960125
0.00949403
0.0109204
0.0108246
0.0107359
0.0106577
0.0118344
0.011769
0.0117076
0.0116528
0.0125688
0.012527
0.0124869
0.0124507
0.0131052
0.0130835
0.0130621
0.0130427
0.0134319
0.0134296
0.0134268
0.0134249
0.0135436
0.0135617
0.0135788
0.0135966
0.0134422
0.0134822
0.0135211
0.0135609
0.0131389
0.0132019
0.0132642
0.013328
0.0126562
0.0127421
0.0128282
0.0129166
0.0120287
0.0121354
0.0122435
0.0123552
0.0113021
0.0114248
0.0115505
0.0116815
0.0105281
0.0106597
0.0107957
0.0109389
0.0097551
0.00988662
0.0100238
0.0101696
0.00901514
0.00913787
0.009266
0.00940292
0.00830128
0.00840664
0.00851536
0.00863035
0.00757511
0.00765121
0.00772465
0.00780142
0.00670554
0.00674398
0.00677552
0.00680372
0.00565081
0.00564075
0.00561545
0.00559155
0.0045968
0.00442106
0.00453057
0.00449779
0.000830399
0.00232118
0.00292576
0.00302375
0.00282334
0.00252163
0.00229436
0.00226606
0.00250705
0.00303729
0.00371955
0.00435154
0.0047888
0.0049589
0.00482821
0.00438134
0.00356249
0.00244518
0.000437798
0.00153403
0.0027445
0.00322393
0.00318685
0.00290339
0.00263112
0.00256019
0.00279511
0.00336166
0.00417059
0.00497501
0.0056163
0.00601737
0.00614579
0.00597385
0.00544798
0.00441375
0.00289505
0.000468096
0.0022851
0.00312958
0.00337481
0.00320655
0.00293371
0.00281529
0.00300633
0.00355985
0.00442341
0.00537639
0.00621398
0.00683919
0.00721094
0.00730637
0.00709545
0.00647973
0.00523524
0.0033316
0.000499057
0.00295668
0.00340502
0.00340935
0.00318535
0.00303016
0.00315193
0.00364476
0.00448759
0.00553962
0.0065464
0.00738184
0.00798987
0.00833704
0.00838976
0.00809697
0.00735217
0.00594195
0.00373458
0.000530433
0.00344274
0.00354443
0.00339131
0.00321365
0.00325202
0.0036449
0.0044171
0.00547022
0.00660815
0.00762609
0.0084505
0.00904072
0.00935839
0.0093551
0.00896823
0.00810286
0.00656843
0.0041153
0.000561506
0.00371993
0.00358866
0.0033908
0.00333715
0.00359823
0.00424556
0.0052356
0.00641566
0.00757389
0.00858469
0.00939511
0.00996645
0.0102555
0.010206
0.00974742
0.00878433
0.0071355
0.00447039
0.000593974
0.00384386
0.00360215
0.00344836
0.00355423
0.00402831
0.00488254
0.00601561
0.00725028
0.00840441
0.00940104
0.0101977
0.0107571
0.0110313
0.0109543
0.0104457
0.00940393
0.00764429
0.00476276
0.000622882
0.00388963
0.00363038
0.00356814
0.00383393
0.00448668
0.00548775
0.00669785
0.00794261
0.0090813
0.0100628
0.0108526
0.0114142
0.0116924
0.0116084
0.0110702
0.00996863
0.00812398
0.00502676
0.000645884
0.00391229
0.00368943
0.0037315
0.00413536
0.00492085
0.00601068
0.00724893
0.00847854
0.00959675
0.0105676
0.0113634
0.0119447
0.0122463
0.0121745
0.0116288
0.010511
0.00858942
0.00528127
0.000666238
0.0039395
0.00377528
0.00391215
0.00442075
0.00529108
0.00642096
0.00765469
0.00885524
0.0099536
0.0109232
0.01174
0.0123586
0.0126998
0.0126536
0.012134
0.0110236
0.00903225
0.00552567
0.000683536
0.00397955
0.00387565
0.00408607
0.00466218
0.00557329
0.00670534
0.00791253
0.00908081
0.010166
0.0111476
0.0119994
0.0126669
0.0130562
0.0130465
0.0125689
0.0114759
0.00941519
0.0057361
0.000696976
0.00403117
0.00397821
0.00423644
0.00484405
0.00575869
0.00686524
0.00803328
0.0091754
0.0102604
0.0112706
0.0121693
0.0128873
0.013318
0.0133403
0.012907
0.0118298
0.00969432
0.00587122
0.000702351
0.0040904
0.0040747
0.00435564
0.00496338
0.00585256
0.00691607
0.00804377
0.00917297
0.0102763
0.0113305
0.0122854
0.0130485
0.0134979
0.0135309
0.0131324
0.0120546
0.00979876
0.00591885
0.000696877
0.00415461
0.00416249
0.00444514
0.00502891
0.00587324
0.00688722
0.00798589
0.00912213
0.0102636
0.011367
0.0123769
0.0131781
0.0136308
0.0136569
0.0132889
0.0121484
0.00971967
0.00585045
0.000689167
0.00422528
0.00424513
0.00451479
0.00506001
0.00585244
0.00682591
0.00792206
0.00907805
0.0102592
0.0114172
0.0124755
0.0133051
0.0137571
0.0137798
0.0134312
0.0121719
0.00961792
0.0057584
0.000681023
0.00431206
0.00433408
0.0045829
0.00508665
0.00583766
0.00680243
0.00790019
0.00908946
0.0103197
0.0115262
0.0126136
0.0134502
0.0138987
0.0139278
0.0135533
0.0121682
0.00958272
0.00570694
0.000672649
0.00444095
0.00445482
0.00468016
0.00515147
0.00589242
0.00686092
0.0079918
0.00922744
0.0104981
0.011731
0.0128155
0.0136265
0.0140555
0.0140845
0.013642
0.0121387
0.00954434
0.00565689
0.000665784
0.00466717
0.00465958
0.00486077
0.00531656
0.00608066
0.00708484
0.00826837
0.00954423
0.0108282
0.0120515
0.013094
0.0138364
0.0142144
0.0142129
0.0136724
0.0120703
0.0094712
0.0055976
0.000657703
0.0050828
0.00504015
0.00521834
0.00568253
0.00648558
0.00754133
0.00876782
0.0100534
0.0113129
0.0124816
0.0134383
0.0140727
0.0143621
0.0142914
0.0136335
0.0119415
0.00934258
0.00550822
0.000647163
0.0057898
0.00571117
0.00587515
0.00635416
0.00716579
0.00824208
0.00946757
0.0107186
0.0119178
0.0129916
0.0138194
0.0143186
0.0144865
0.0143163
0.0135259
0.0117523
0.00915121
0.0053701
0.000633732
0.00681927
0.00672807
0.00688583
0.00733042
0.00809297
0.00912326
0.0102881
0.011464
0.0125731
0.0135242
0.0142013
0.0145501
0.0145763
0.0142901
0.0133587
0.0115149
0.00890396
0.00518361
0.000618119
0.00806913
0.00799143
0.00811433
0.00849711
0.00916764
0.0100864
0.0111406
0.0122066
0.0131961
0.0140101
0.0145415
0.0147403
0.0146222
0.0142179
0.013153
0.0112493
0.00862087
0.0049658
0.000601848
0.0093634
0.00929336
0.00938848
0.00970467
0.0102692
0.0110525
0.0119652
0.0128976
0.0137511
0.0144233
0.014813
0.0148711
0.0146229
0.0141101
0.0129256
0.0109737
0.00832646
0.00473912
0.000586696
0.0105563
0.0104991
0.0105765
0.0108364
0.0113039
0.0119586
0.0127303
0.0135222
0.014235
0.0147641
0.0150148
0.0149438
0.0145871
0.0139817
0.0127125
0.0107142
0.00804195
0.00451861
0.000573973
0.0115768
0.0115368
0.0116051
0.0118229
0.0122122
0.0127585
0.0134051
0.0140662
0.014644
0.0150365
0.0151567
0.0149708
0.0145295
0.0138689
0.0125368
0.0104856
0.00778414
0.00431806
0.000564606
0.0123994
0.0123791
0.0124449
0.0126326
0.0129625
0.0134237
0.0139678
0.0145163
0.0149751
0.0152463
0.0152516
0.0149716
0.0144705
0.0137722
0.0123883
0.0102906
0.00756324
0.00414672
0.000559075
0.0130166
0.0130178
0.0130869
0.0132559
0.0135439
0.0139425
0.014408
0.014867
0.0152286
0.0154
0.0153112
0.0149568
0.0144099
0.0136814
0.0122619
0.0101306
0.00738452
0.00400854
0.000557483
0.0134267
0.0134534
0.0135335
0.0136954
0.0139575
0.0143138
0.014724
0.0151173
0.0154056
0.0155006
0.0153386
0.0149262
0.0143442
0.0135952
0.0121586
0.0100099
0.0072546
0.00390937
0.000559836
0.0136308
0.0136899
0.0137905
0.0139577
0.0142094
0.0145417
0.0149173
0.0152673
0.0155051
0.0155455
0.0153296
0.0148729
0.0142672
0.0135126
0.0120792
0.00993368
0.0071826
0.00385884
0.000566032
0.0136331
0.0137326
0.0138642
0.0140495
0.0143056
0.01463
0.0149888
0.0153149
0.0155221
0.0155267
0.0152746
0.0147855
0.0141696
0.0134283
0.0120209
0.00990285
0.00717471
0.0038654
0.000575686
0.0134419
0.0135894
0.0137615
0.0139767
0.0142499
0.0145799
0.014936
0.0152538
0.0154476
0.0154334
0.0151601
0.0146511
0.0140395
0.0133325
0.011977
0.00991188
0.00722991
0.00393237
0.000588123
0.0130741
0.0132717
0.0134912
0.0137448
0.0140446
0.0143899
0.014753
0.0150736
0.0152677
0.0152507
0.0149712
0.0144586
0.0138651
0.0132105
0.011933
0.00994813
0.0073379
0.00405588
0.000602564
0.0125552
0.0128001
0.0130653
0.0133608
0.0136914
0.0140561
0.0144305
0.0147598
0.0149641
0.0149599
0.0146933
0.014198
0.0136411
0.0130491
0.0118693
0.00999092
0.00747526
0.00421953
0.000618391
0.0119179
0.0122039
0.0125068
0.0128338
0.0131918
0.0135735
0.013957
0.0142944
0.0145136
0.0145355
0.0143061
0.0138592
0.0133754
0.0128432
0.0117704
0.010011
0.00760404
0.00439063
0.000635629
0.0111999
0.0115136
0.0118419
0.0121873
0.0125519
0.0129359
0.0133192
0.0136572
0.0138883
0.0139453
0.0137832
0.0134379
0.01308
0.0126395
0.0116414
0.00997091
0.00767031
0.00450073
0.000658078
0.0104383
0.0107594
0.0110928
0.0114367
0.0117881
0.0121453
0.0125014
0.0128259
0.0130608
0.0131636
0.0131141
0.0129528
0.0127954
0.0124671
0.0114056
0.00982656
0.00768311
0.00461426
0.000680166
0.00965769
0.00995985
0.0102713
0.0105861
0.0108962
0.0112003
0.0114976
0.0117767
0.0120086
0.0121842
0.012319
0.0124431
0.0124899
0.0120362
0.0109296
0.00952499
0.00760093
0.00470108
0.000698859
0.00884473
0.00909829
0.00935444
0.0096029
0.00983707
0.0100581
0.010268
0.0104656
0.0106631
0.0108888
0.0111663
0.0114894
0.0115557
0.011013
0.0101561
0.00900655
0.00737289
0.00472203
0.000711495
0.00794572
0.0081088
0.00826815
0.00841859
0.00854545
0.00864942
0.00874329
0.0088409
0.00896879
0.00915782
0.00943207
0.00973845
0.00986549
0.00961616
0.00907798
0.00825255
0.00696121
0.00463091
0.000714353
0.00684975
0.0068892
0.00692519
0.00695791
0.00697484
0.00696942
0.00695841
0.0069608
0.00699622
0.00711648
0.00734105
0.00763208
0.00787778
0.00791416
0.00774139
0.00726643
0.00632759
0.00436681
0.000696774
0.00555667
0.00548332
0.00541712
0.00536783
0.00531749
0.00523646
0.00516312
0.00512798
0.00511398
0.00514404
0.00530602
0.0055208
0.0058524
0.00606498
0.00625642
0.00602823
0.00540676
0.00378017
0.000642843
0.00434085
0.00415511
0.00400856
0.00409149
0.00403187
0.00393558
0.00378416
0.00385462
0.00376995
0.003595
0.00372804
0.00370289
0.00396389
0.00398633
0.0043958
0.00414081
0.00379072
0.0022971
0.000571775
)
;

boundaryField
{
    leftWall
    {
        type            nutkWallFunction;
        Cmu             0.09;
        kappa           0.41;
        E               9.8;
        value           nonuniform List<scalar> 
50
(
1.09023e-05
1.36976e-05
1.69142e-05
1.95095e-05
2.16671e-05
2.35389e-05
2.52251e-05
2.67561e-05
2.85342e-05
3.0732e-05
3.27019e-05
3.45511e-05
3.62808e-05
3.78699e-05
3.93281e-05
4.06615e-05
4.18791e-05
4.29921e-05
4.40121e-05
4.49503e-05
4.58173e-05
4.66228e-05
4.73748e-05
4.80801e-05
4.87442e-05
4.93712e-05
4.99645e-05
5.05267e-05
5.10605e-05
5.15694e-05
5.20583e-05
5.25345e-05
5.30088e-05
5.34964e-05
5.40189e-05
5.46054e-05
5.52933e-05
5.6125e-05
5.71332e-05
5.83011e-05
5.95039e-05
6.05031e-05
6.09055e-05
6.02213e-05
5.81967e-05
5.42e-05
4.9121e-05
4.51551e-05
5.3186e-05
5.49048e-05
)
;
    }
    rightWall
    {
        type            nutkWallFunction;
        Cmu             0.09;
        kappa           0.41;
        E               9.8;
        value           nonuniform List<scalar> 
50
(
1.27157e-05
2.19764e-05
3.00914e-05
3.6388e-05
4.23658e-05
4.72646e-05
4.8647e-05
4.63789e-05
4.75286e-05
5.04384e-05
5.33089e-05
5.61759e-05
5.89816e-05
6.18203e-05
6.45306e-05
6.66793e-05
6.84929e-05
7.00287e-05
7.1279e-05
7.18958e-05
7.16202e-05
7.09311e-05
7.02024e-05
6.94307e-05
6.8807e-05
6.8097e-05
6.71825e-05
6.602e-05
6.46574e-05
6.32406e-05
6.19311e-05
6.08601e-05
6.01112e-05
5.9722e-05
5.96949e-05
6.00211e-05
6.06839e-05
6.16463e-05
6.28512e-05
6.4239e-05
6.57759e-05
6.74982e-05
6.96076e-05
7.16028e-05
7.32594e-05
7.431e-05
7.43571e-05
7.23593e-05
6.58338e-05
5.59083e-05
)
;
    }
    lowerWall
    {
        type            nutkWallFunction;
        Cmu             0.09;
        kappa           0.41;
        E               9.8;
        value           nonuniform List<scalar> 
62
(
0
2.04604e-07
1.66805e-06
2.93673e-06
3.97889e-06
4.80544e-06
5.47271e-06
5.99714e-06
6.4212e-06
6.77951e-06
7.09563e-06
7.38161e-06
7.63581e-06
7.84137e-06
7.963e-06
7.94501e-06
7.71533e-06
7.19238e-06
6.28857e-06
5.10116e-06
3.49148e-06
1.24487e-06
0
0
1.53534e-05
1.75602e-05
1.85808e-05
1.88185e-05
1.84864e-05
1.77513e-05
1.72184e-05
2.65948e-05
3.19911e-05
3.6405e-05
3.9536e-05
0
1.82892e-05
2.49734e-05
2.93291e-05
3.26599e-05
3.55213e-05
3.81501e-05
4.08373e-05
0
1.1179e-07
1.10051e-06
1.62012e-06
2.11537e-06
2.55387e-06
2.91284e-06
3.19649e-06
3.42141e-06
3.61083e-06
3.80765e-06
4.04196e-06
4.28555e-06
4.50459e-06
4.57515e-06
4.24234e-06
2.96417e-06
2.92717e-07
0
)
;
    }
    atmosphere
    {
        type            calculated;
        value           nonuniform List<scalar> 
46
(
0.000452088
0.00204649
0.00270391
0.009
0.009
0.009
0.009
0.00390216
0.009
0.009
0.003916
0.0042353
0.00443251
0.009
0.00438529
0.009
0.00450528
0.009
0.00454543
0.009
0.00454548
0.009
0.00453871
0.009
0.009
0.00453057
0.00449779
0.00434085
0.009
0.009
0.00409149
0.00403187
0.009
0.009
0.00385462
0.00376995
0.009
0.00372804
0.009
0.00396389
0.009
0.0043958
0.009
0.00379072
0.009
0.000571775
)
;
    }
    defaultFaces
    {
        type            empty;
    }
}


// ************************************************************************* //
