/*--------------------------------*- C++ -*----------------------------------*\
  =========                 |
  \\      /  F ield         | OpenFOAM: The Open Source CFD Toolbox
   \\    /   O peration     | Website:  https://openfoam.org
    \\  /    A nd           | Version:  9
     \\/     M anipulation  |
\*---------------------------------------------------------------------------*/
FoamFile
{
    format      ascii;
    class       volScalarField;
    location    "0.75";
    object      p;
}
// * * * * * * * * * * * * * * * * * * * * * * * * * * * * * * * * * * * * * //

dimensions      [1 -1 -2 0 0 0 0];

internalField   nonuniform List<scalar> 
2268
(
565.534
563.251
565.283
571.314
580.745
592.692
606.647
622.25
639.201
657.246
676.17
695.766
715.836
736.2
756.646
776.884
796.558
815.237
831.767
844.844
853.861
857.95
856.62
506.707
503.928
505.901
512.19
521.906
534.089
548.258
564.022
581.062
599.118
617.991
637.492
657.437
677.65
697.927
717.984
737.469
755.952
772.729
786.034
793.975
796.271
794.308
445.873
443.725
446.454
453.115
463.062
475.482
489.891
505.858
523.026
541.128
559.977
579.39
599.191
619.212
639.254
659.04
678.206
696.289
712.628
725.819
733.555
734.939
732.007
383.691
382.667
386.495
393.637
403.87
416.537
431.186
447.37
464.699
482.89
501.771
521.152
540.856
560.726
580.581
600.144
619.045
636.817
652.777
665.666
673.552
674.6
669.961
320.761
321.009
325.979
333.63
344.179
357.106
372.001
388.43
405.961
424.291
443.27
462.691
482.363
502.149
521.908
541.36
560.128
577.797
593.73
606.735
615.017
616.146
608.404
257.254
258.823
264.924
273.098
283.985
297.19
312.353
329.066
346.845
365.359
384.497
404.026
423.725
443.488
463.247
482.707
501.465
519.215
535.437
549.005
558.487
560.404
545.917
193.125
195.836
203.056
211.784
223.072
236.646
252.178
269.297
287.42
306.166
325.513
345.202
364.967
384.751
404.594
424.167
443.011
460.975
477.728
492.388
504.362
507.555
479.881
127.877
131.486
139.09
148.122
159.931
174.259
190.633
208.671
227.537
246.677
266.351
286.267
306.113
325.918
345.885
365.634
384.64
402.907
420.372
436.686
452.194
457.223
420.063
1267.44
968.651
722.598
564.989
513.01
518.208
534.789
552.312
573.543
614.069
706.376
872.646
1072.09
1220.71
1284.23
1291.52
1274.48
1231.8
1201.12
1262.87
906.491
639.815
488.098
446.886
464.059
482.882
495.532
509.003
538.647
615.788
762.2
949.483
1098.76
1171.61
1192.05
1187.19
1158.81
1142.04
1169.54
752.207
505.858
389.092
367.42
402.451
424.966
435.304
442.887
460.989
520.287
648.117
826.688
976.885
1056.95
1091
1107.15
1098.51
1081.91
997.587
545.269
387.548
326.778
318.462
350.886
366.738
371.647
372.457
377.621
420.235
536.972
718.84
873.638
955.095
994.69
1028.22
1042.34
1023.93
843.891
405.375
340.745
312.69
309.076
334.028
346.032
333.299
312.839
304.806
329.255
432.767
623.837
786.642
867.631
904.713
946.919
979.625
964.684
749.558
386.384
324.132
299.174
288.485
339.986
361.08
323.512
289.934
281.769
290.37
360.411
544.085
709.849
794.565
830.644
866.338
909.961
902.111
710.465
408.647
324.298
290.652
260.023
302.426
339.61
312.05
292.52
284.333
288.772
332.594
487.226
640.173
726.295
763.069
792.348
836.088
834.968
682.096
423.405
298.797
249.314
201.383
222.075
273.726
294.958
288.919
282.721
287.919
320.741
447.938
580.893
653.847
689.378
722.727
760.492
764.149
44.8775
48.2794
53.7283
60.2672
69.2947
81.1677
95.7483
112.757
131.754
152.207
173.078
193.787
213.88
233.683
253.907
274.04
293.309
312.008
330.686
349.827
369.338
380.384
383.961
1.11648
1.5895
2.46678
3.71607
5.78308
9.19071
14.3057
21.2136
30.4204
43.0038
57.6508
73.2457
89.2641
107.337
128.901
150.642
169.52
187.332
206.488
227.024
247.425
263.057
276.551
-0.136466
-0.150612
-0.116968
-0.0880431
-0.0781207
-0.0957506
-0.123126
-0.126051
0.027723
1.19468
3.8467
7.88299
13.2138
21.0291
32.8301
45.4682
56.1437
68.8163
85.613
104.434
124.926
149.406
178.306
-0.3049
-0.317501
-0.330455
-0.3446
-0.35779
-0.369306
-0.376028
-0.371793
-0.356101
-0.357772
-0.408414
-0.447363
-0.464561
-0.478541
-0.445138
-0.327486
1.43625
6.03928
13.0426
20.386
27.6824
39.603
73.9838
-0.462179
-0.465583
-0.467634
-0.471694
-0.478383
-0.487525
-0.496599
-0.503755
-0.514739
-0.539448
-0.559895
-0.565763
-0.557572
-0.54061
-0.515329
-0.481974
-0.463397
-0.493574
-0.467343
-0.358569
-0.133723
0.774808
4.58327
-0.616497
-0.617045
-0.615997
-0.616063
-0.618797
-0.624591
-0.631906
-0.639369
-0.649004
-0.66399
-0.675694
-0.678874
-0.672747
-0.658644
-0.636506
-0.600134
-0.557626
-0.506451
-0.434945
-0.336824
-0.203567
0.0238278
0.423041
-0.768874
-0.768719
-0.768169
-0.768306
-0.769923
-0.773269
-0.777722
-0.78253
-0.787991
-0.794952
-0.800451
-0.800664
-0.793595
-0.778818
-0.755369
-0.721386
-0.679402
-0.624941
-0.550677
-0.44817
-0.306882
-0.145213
-0.0535861
-0.919504
-0.918985
-0.91845
-0.918491
-0.919423
-0.921313
-0.92388
-0.926705
-0.929605
-0.932415
-0.933437
-0.930247
-0.921134
-0.905258
-0.881805
-0.849993
-0.810006
-0.759643
-0.694215
-0.610246
-0.50777
-0.403259
-0.357706
-1.06919
-1.06842
-1.06771
-1.06745
-1.06778
-1.06869
-1.06998
-1.07136
-1.07249
-1.07286
-1.07123
-1.06602
-1.05602
-1.04043
-1.01862
-0.990036
-0.954521
-0.911267
-0.858919
-0.797862
-0.732326
-0.676831
-0.655782
-1.21787
-1.2171
-1.21636
-1.21594
-1.2159
-1.21617
-1.2166
-1.21695
-1.21685
-1.21575
-1.21276
-1.20684
-1.19717
-1.18313
-1.16424
-1.14019
-1.111
-1.07679
-1.03797
-0.99648
-0.956736
-0.929955
-0.930153
-1.36562
-1.36498
-1.36434
-1.3639
-1.36369
-1.36363
-1.36359
-1.36334
-1.36255
-1.36075
-1.35731
-1.35161
-1.34313
-1.33149
-1.31636
-1.29761
-1.27554
-1.2508
-1.22462
-1.19944
-1.17945
-1.17284
-1.18921
-1.51251
-1.51207
-1.5116
-1.51124
-1.51104
-1.5109
-1.5107
-1.51024
-1.50924
-1.50732
-1.50411
-1.49928
-1.4926
-1.48384
-1.47284
-1.45963
-1.44465
-1.42884
-1.41382
-1.40222
-1.39784
-1.40743
-1.43733
-1.65861
-1.65838
-1.65812
-1.65795
-1.65789
-1.65787
-1.65776
-1.65739
-1.65654
-1.65495
-1.65244
-1.64893
-1.64439
-1.63874
-1.6319
-1.624
-1.6156
-1.60775
-1.60214
-1.60139
-1.60895
-1.6301
-1.66924
-1.80397
-1.80394
-1.80391
-1.80398
-1.80419
-1.80443
-1.8046
-1.80456
-1.80414
-1.8032
-1.80171
-1.79979
-1.79753
-1.79496
-1.79205
-1.78897
-1.78634
-1.78527
-1.78741
-1.79516
-1.81155
-1.84054
-1.8856
-1.94863
-1.94877
-1.94898
-1.94934
-1.94987
-1.95048
-1.95107
-1.95153
-1.95175
-1.95167
-1.9514
-1.95118
-1.9512
-1.95152
-1.95213
-1.95326
-1.95553
-1.96004
-1.96837
-1.98264
-2.00541
-2.03956
-2.08788
-2.09261
-2.09293
-2.09335
-2.09401
-2.0949
-2.09595
-2.09705
-2.09814
-2.09913
-2.10006
-2.10112
-2.10262
-2.1048
-2.10772
-2.11139
-2.11604
-2.12232
-2.13131
-2.14445
-2.16357
-2.19073
-2.22799
-2.27747
-2.23593
-2.23647
-2.23705
-2.23798
-2.23924
-2.24075
-2.24243
-2.24422
-2.24609
-2.2481
-2.25053
-2.25371
-2.25787
-2.26308
-2.26932
-2.27682
-2.28626
-2.29871
-2.31546
-2.33802
-2.36798
-2.40677
-2.45601
-2.37874
-2.37932
-2.38006
-2.38125
-2.38288
-2.38485
-2.38711
-2.38962
-2.39237
-2.39549
-2.39926
-2.404
-2.40994
-2.41711
-2.42547
-2.43526
-2.44714
-2.46217
-2.4815
-2.50633
-2.53787
-2.57705
-2.6251
-2.521
-2.52159
-2.52244
-2.52385
-2.5258
-2.52821
-2.53101
-2.53418
-2.53777
-2.54195
-2.54697
-2.55312
-2.56059
-2.56938
-2.57949
-2.59109
-2.60485
-2.62176
-2.64284
-2.66903
-2.7012
-2.73994
-2.7862
-2.66274
-2.6633
-2.66422
-2.66582
-2.66806
-2.67084
-2.6741
-2.67785
-2.6822
-2.68731
-2.69344
-2.70081
-2.70953
-2.71965
-2.73114
-2.74419
-2.7594
-2.77764
-2.79982
-2.82667
-2.85879
-2.89651
-2.94063
-2.80401
-2.80446
-2.80545
-2.80721
-2.80969
-2.81278
-2.81641
-2.82063
-2.82561
-2.83154
-2.83862
-2.84698
-2.85671
-2.86785
-2.88043
-2.89463
-2.91096
-2.93013
-2.95289
-2.97983
-3.01137
-3.04769
-3.08942
-2.94476
-2.94517
-2.94618
-2.94804
-2.95069
-2.95399
-2.95788
-2.96247
-2.96797
-2.97458
-2.98244
-2.99161
-3.00214
-3.01408
-3.02751
-3.0426
-3.05977
-3.07956
-3.10252
-3.12909
-3.15963
-3.19423
-3.23339
-3.08506
-3.08543
-3.08645
-3.08836
-3.09108
-3.09447
-3.09848
-3.10328
-3.10916
-3.11631
-3.1248
-3.13464
-3.14582
-3.15841
-3.17249
-3.18827
-3.20604
-3.22617
-3.24902
-3.27492
-3.30415
-3.3368
-3.37324
-3.22491
-3.22527
-3.22629
-3.22821
-3.23092
-3.23427
-3.23823
-3.24307
-3.24912
-3.25661
-3.26558
-3.27597
-3.28774
-3.30088
-3.31551
-3.33178
-3.34992
-3.37013
-3.39262
-3.41761
-3.44533
-3.47586
-3.5095
-3.36432
-3.36468
-3.36571
-3.36761
-3.37026
-3.37346
-3.37724
-3.38192
-3.38793
-3.39554
-3.40481
-3.41565
-3.42793
-3.44159
-3.45667
-3.47329
-3.49156
-3.5116
-3.53347
-3.55732
-3.58338
-3.61169
-3.64246
-3.50326
-3.50362
-3.50466
-3.50653
-3.50907
-3.51208
-3.5156
-3.51999
-3.52578
-3.53331
-3.54269
-3.55384
-3.56657
-3.58069
-3.59613
-3.61291
-3.63108
-3.65066
-3.67166
-3.69419
-3.71845
-3.74448
-3.77239
-3.64168
-3.64206
-3.64309
-3.64489
-3.64729
-3.65008
-3.65332
-3.6574
-3.66287
-3.67018
-3.67954
-3.69087
-3.70392
-3.71836
-3.73399
-3.75072
-3.76853
-3.78739
-3.80729
-3.82834
-3.85074
-3.8745
-3.89967
-3.77955
-3.77993
-3.78092
-3.7826
-3.7848
-3.78736
-3.79037
-3.7942
-3.79938
-3.80643
-3.81566
-3.82703
-3.84022
-3.85478
-3.87036
-3.88677
-3.90394
-3.92184
-3.94046
-3.95993
-3.98048
-4.00209
-4.02472
-3.91683
-3.91719
-3.91811
-3.91961
-3.92156
-3.9239
-3.92675
-3.93043
-3.93542
-3.94225
-3.95129
-3.96255
-3.97566
-3.99005
-4.00528
-4.02108
-4.03736
-4.05409
-4.07132
-4.08922
-4.10799
-4.12761
-4.14797
-4.05347
-4.05381
-4.05463
-4.05593
-4.05763
-4.05977
-4.06252
-4.06615
-4.07107
-4.07776
-4.08661
-4.0976
-4.11034
-4.12424
-4.13879
-4.15371
-4.16889
-4.18436
-4.20019
-4.21657
-4.23368
-4.25148
-4.26978
-4.18946
-4.18976
-4.1905
-4.19163
-4.19313
-4.19512
-4.19782
-4.20147
-4.20639
-4.21301
-4.22163
-4.2322
-4.24432
-4.2574
-4.27097
-4.28478
-4.29877
-4.31296
-4.32745
-4.34241
-4.35798
-4.37406
-4.39043
-4.32483
-4.32508
-4.32575
-4.3268
-4.32821
-4.33015
-4.33283
-4.33648
-4.34139
-4.34792
-4.35624
-4.36624
-4.3775
-4.38951
-4.40191
-4.41451
-4.42728
-4.44025
-4.45347
-4.46707
-4.48113
-4.49549
-4.50994
-4.45963
-4.45984
-4.46048
-4.46154
-4.463
-4.46499
-4.46766
-4.47123
-4.47601
-4.4823
-4.49018
-4.49944
-4.50969
-4.52052
-4.53168
-4.54307
-4.55467
-4.56646
-4.57845
-4.59066
-4.60314
-4.61571
-4.62817
-4.59396
-4.59415
-4.59479
-4.59595
-4.59758
-4.59967
-4.60229
-4.60566
-4.61013
-4.61596
-4.6232
-4.63158
-4.64074
-4.65038
-4.66035
-4.67061
-4.68109
-4.69173
-4.70243
-4.71318
-4.72399
-4.73471
-4.7452
-4.72794
-4.72812
-4.7288
-4.73009
-4.73191
-4.73408
-4.73657
-4.73961
-4.74357
-4.74877
-4.7552
-4.7626
-4.77067
-4.77918
-4.78805
-4.79724
-4.80664
-4.81609
-4.82544
-4.83466
-4.8438
-4.85279
-4.86155
-4.86168
-4.86189
-4.86262
-4.86402
-4.86593
-4.86806
-4.87029
-4.87287
-4.87624
-4.88071
-4.88629
-4.89273
-4.89976
-4.9072
-4.915
-4.9231
-4.93134
-4.93952
-4.94748
-4.95523
-4.96288
-4.97045
-4.97794
-4.99526
-4.99554
-4.99632
-4.99774
-4.99959
-5.00148
-5.00331
-5.00538
-5.00814
-5.01193
-5.01673
-5.0223
-5.02835
-5.03471
-5.04136
-5.04823
-5.0552
-5.06206
-5.0687
-5.07516
-5.0816
-5.08811
-5.0947
-5.12871
-5.12912
-5.12993
-5.13127
-5.13287
-5.13436
-5.13569
-5.13722
-5.13946
-5.14268
-5.14682
-5.15158
-5.15663
-5.16183
-5.16717
-5.17267
-5.17828
-5.18386
-5.18933
-5.19472
-5.20017
-5.20576
-5.2115
-5.2621
-5.26264
-5.26345
-5.2646
-5.26582
-5.2668
-5.26761
-5.26868
-5.27047
-5.27319
-5.2767
-5.2806
-5.28457
-5.28846
-5.29239
-5.29649
-5.3008
-5.30524
-5.30967
-5.31408
-5.31853
-5.32307
-5.3277
-5.39546
-5.39609
-5.39683
-5.39769
-5.39847
-5.39898
-5.39937
-5.40006
-5.40143
-5.40359
-5.40632
-5.4092
-5.41191
-5.41443
-5.41703
-5.41987
-5.42305
-5.42645
-5.42987
-5.43321
-5.43651
-5.43982
-5.44316
-5.5288
-5.5294
-5.52996
-5.53047
-5.53088
-5.53108
-5.53121
-5.53158
-5.53245
-5.53383
-5.53549
-5.53711
-5.53845
-5.53979
-5.54132
-5.54313
-5.54527
-5.54758
-5.54987
-5.55203
-5.55411
-5.55618
-5.55828
-5.66212
-5.66251
-5.66282
-5.66305
-5.6632
-5.66325
-5.66326
-5.66336
-5.66362
-5.66404
-5.66451
-5.6649
-5.66509
-5.66543
-5.6661
-5.66684
-5.66769
-5.66861
-5.6695
-5.67033
-5.67115
-5.67199
-5.67299
450.741
471.264
480.335
484.028
297.321
302.29
298.063
294.574
195.445
195.899
188.059
174.87
123.13
135.44
127.376
115.36
28.966
54.8146
69.0517
74.244
0.936596
5.46572
15.0142
31.5766
-0.22131
-0.627288
-3.35044
-1.55468
-0.435246
-0.678413
-2.16627
-7.3661
-0.660671
-0.687622
-1.05966
-3.45456
-0.933001
-0.910037
-0.942062
-1.40451
-1.21504
-1.2164
-1.20528
-1.26339
-1.47553
-1.49738
-1.51353
-1.52188
-1.70977
-1.73406
-1.76031
-1.7889
-1.92925
-1.956
-1.98364
-2.02038
-2.13455
-2.16606
-2.19811
-2.23555
-2.32522
-2.36002
-2.39717
-2.43629
-2.50311
-2.53866
-2.57797
-2.6184
-2.67059
-2.70534
-2.74419
-2.78397
-2.82951
-2.86276
-2.90003
-2.93787
-2.98145
-3.01279
-3.04792
-3.08326
-3.12752
-3.15666
-3.18923
-3.22175
-3.26862
-3.29537
-3.32509
-3.35452
-3.40551
-3.42974
-3.45641
-3.48262
-3.53871
-3.56032
-3.58385
-3.60681
-3.66853
-3.68744
-3.70785
-3.7277
-3.79532
-3.81163
-3.82909
-3.84613
-3.91974
-3.93371
-3.94858
-3.96315
-4.04234
-4.05436
-4.06705
-4.07946
-4.16349
-4.1739
-4.18475
-4.19528
-4.28346
-4.29247
-4.30168
-4.31054
-4.4024
-4.41007
-4.41773
-4.42502
-4.5202
-4.52654
-4.53274
-4.53863
-4.6367
-4.64183
-4.64686
-4.65169
-4.75214
-4.75632
-4.76062
-4.76484
-4.86727
-4.87085
-4.87471
-4.87854
-4.98296
-4.98621
-4.98962
-4.99287
-5.09939
-5.10237
-5.10518
-5.1076
-5.21576
-5.21836
-5.22059
-5.22237
-5.33116
-5.33331
-5.33528
-5.33691
-5.44565
-5.4474
-5.44928
-5.45106
-5.55974
-5.56096
-5.56259
-5.5647
-5.67393
-5.67491
-5.67653
-5.67937
572.286
363.893
196.819
143.208
127.126
139.429
175.65
235.453
269.972
273.186
279.65
305.891
400.164
505.823
546.854
565.851
606.234
643.229
653.748
313.501
157.612
104.396
107.024
110.476
112.341
116.065
146.699
217.579
242.852
253.862
276.095
347.172
417.188
423.186
399.177
436.019
491.834
513.391
142.992
97.7918
104.734
107.321
108.52
107.362
103.186
106.538
160.17
201.444
209.229
223.371
285.101
333.16
324.743
303.93
308.057
354.553
389.803
101.145
105.731
106.635
107
106.976
106.01
102.305
103.272
129.144
161.73
161.923
170.922
230.988
264.558
263.909
266.583
263.174
264.428
291.045
91.4353
106.391
106.686
106.795
106.627
106.113
104.614
105.51
116.247
130.437
131.37
139.678
192.525
225.456
236.77
245.495
242.621
230.749
229.635
69.5244
105.201
106.739
106.942
106.779
106.483
105.783
106.196
110.493
109.959
99.6044
111.531
166.594
201.993
219.962
228.751
224.229
213.223
196.509
29.0792
91.3742
106.813
107.074
106.92
106.537
105.867
105.462
106.425
101.022
69.0347
91.0101
146.059
179.326
197.908
203.936
203.743
195.69
183.181
-6.67012
43.301
96.479
106.598
106.94
106.45
105.74
104.984
103.422
95.3859
35.2225
67.1198
102.903
137.359
159.258
166.641
177.025
176.597
168.116
-12.2816
3.83666
53.1636
98.8724
106.147
106.333
105.68
105.125
102.576
81.536
-6.47801
36.3551
56.0246
80.9487
102.71
118.354
146.235
159.173
150.66
-4.118
-11.5411
7.47674
55.5067
97.1458
105.46
105.06
103.999
96.6076
27.7103
-14.4297
24.8875
34.3467
37.5083
43.4676
58.2059
105.214
137.208
132.985
-1.75415
-4.90452
-11.8862
3.23771
40.5524
81.1155
100.574
96.7657
35.387
-16.6801
-0.504177
17.0713
19.2
13.6153
13.5735
29.2505
55.8398
92.7265
120.906
-1.59426
-2.2531
-5.82932
-12.1275
-11.457
4.7899
23.0575
7.65901
-24.8604
-4.8673
5.7474
10.2475
9.06512
5.62422
7.02604
14.7571
24.7996
55.0554
95.2429
-1.82977
-1.93683
-2.62277
-5.39297
-10.0879
-16.1849
-20.1469
-18.8602
-8.02373
3.86626
7.49063
6.44774
3.56566
1.55632
1.98317
4.46938
10.4088
28.5741
59.9168
-2.0918
-2.16788
-2.24177
-2.87933
-4.49657
-7.01473
-8.59736
-7.12717
-2.22624
1.90037
3.27814
1.73308
-0.216301
-0.676866
-0.620456
-0.689219
1.78534
13.6856
35.7493
-2.31273
-2.43991
-2.5476
-2.73524
-3.13593
-3.8939
-4.51304
-3.78404
-2.66813
-1.95507
-1.86759
-1.69256
-2.32417
-2.03721
-1.902
-2.08751
-1.58294
1.71137
20.722
-2.50876
-2.64182
-2.79754
-2.97409
-3.13472
-3.25832
-3.37866
-3.32438
-3.28719
-3.48829
-3.55663
-3.23587
-3.06213
-2.7906
-2.69378
-2.76332
-3.17452
-3.11921
8.63763
-2.68702
-2.80339
-2.94455
-3.10711
-3.25809
-3.36275
-3.44429
-3.46225
-3.50991
-3.76281
-3.83867
-3.60219
-3.43664
-3.28939
-3.28774
-3.48548
-3.84224
-3.4291
1.411
-2.84898
-2.9507
-3.06784
-3.19732
-3.32488
-3.43373
-3.5167
-3.56662
-3.65164
-3.85049
-3.87737
-3.79853
-3.71474
-3.66383
-3.72414
-3.97448
-4.04794
-3.90191
-3.46928
-2.99826
-3.08843
-3.18873
-3.29428
-3.39748
-3.49213
-3.57524
-3.65371
-3.7761
-3.9225
-3.96052
-3.94703
-3.92149
-3.91036
-3.96609
-4.13659
-4.09502
-3.95624
-4.67524
-3.13861
-3.21849
-3.30586
-3.39667
-3.48588
-3.57141
-3.6549
-3.7448
-3.86867
-3.98494
-4.04
-4.05877
-4.05848
-4.05167
-4.06107
-4.09845
-4.02193
-4.00303
-5.24466
-3.27205
-3.34271
-3.4191
-3.49863
-3.57832
-3.65761
-3.73871
-3.82771
-3.93534
-4.0349
-4.09874
-4.13228
-4.14002
-4.12762
-4.10646
-4.08275
-3.97845
-3.8188
-5.13084
-3.39978
-3.46218
-3.52907
-3.59889
-3.66981
-3.74173
-3.81642
-3.89771
-3.98878
-4.07426
-4.13744
-4.17409
-4.18326
-4.16761
-4.13682
-4.09662
-3.99403
-3.83351
-4.31913
-3.52281
-3.57777
-3.63636
-3.69761
-3.7601
-3.82365
-3.8895
-3.96
-4.03569
-4.10717
-4.16267
-4.19565
-4.20337
-4.1878
-4.15845
-4.12792
-4.07877
-4.06011
-4.00965
-3.6421
-3.6904
-3.74172
-3.7953
-3.84977
-3.90473
-3.96096
-4.01984
-4.08086
-4.13782
-4.18234
-4.20842
-4.21285
-4.1968
-4.16886
-4.14119
-4.11337
-4.18043
-3.90415
-3.75853
-3.80098
-3.84592
-3.89255
-3.93944
-3.98611
-4.03295
-4.08056
-4.12806
-4.17117
-4.2041
-4.22215
-4.22232
-4.20455
-4.17471
-4.14072
-4.10591
-4.17262
-3.74207
-3.87303
-3.91036
-3.94966
-3.98995
-4.02979
-4.06872
-4.10692
-4.14443
-4.18018
-4.2112
-4.23365
-4.24405
-4.24001
-4.22078
-4.18897
-4.14703
-4.09304
-4.11662
-3.60643
-3.9865
-4.01925
-4.05344
-4.08793
-4.12137
-4.15337
-4.18396
-4.21284
-4.23895
-4.26023
-4.27414
-4.27837
-4.2712
-4.2519
-4.22108
-4.17719
-4.11667
-4.11252
-3.65594
-4.09958
-4.12807
-4.15752
-4.18672
-4.2145
-4.24058
-4.26478
-4.28659
-4.30514
-4.31905
-4.3267
-4.32676
-4.31813
-4.30013
-4.27259
-4.23275
-4.17522
-4.1676
-3.89984
-4.21244
-4.23698
-4.26202
-4.28647
-4.30939
-4.33058
-4.34968
-4.36607
-4.37903
-4.38773
-4.39129
-4.389
-4.38018
-4.36415
-4.34002
-4.30733
-4.25843
-4.24308
-4.12676
-4.32501
-4.34595
-4.36707
-4.38741
-4.4063
-4.42356
-4.43875
-4.45122
-4.46036
-4.46564
-4.46677
-4.46348
-4.455
-4.44049
-4.41814
-4.39237
-4.3573
-4.36129
-4.39062
-4.43708
-4.45487
-4.47271
-4.48975
-4.50546
-4.51961
-4.53176
-4.5414
-4.54799
-4.55121
-4.55107
-4.54769
-4.54012
-4.5271
-4.50963
-4.49553
-4.47106
-4.4812
-4.58171
-4.54865
-4.56377
-4.57893
-4.59342
-4.60667
-4.61831
-4.62799
-4.63543
-4.64026
-4.64228
-4.64174
-4.63878
-4.63271
-4.6228
-4.61912
-4.62809
-4.61439
-4.55993
-4.50224
-4.66013
-4.67301
-4.68587
-4.69819
-4.70936
-4.71888
-4.72645
-4.73203
-4.73555
-4.73695
-4.73652
-4.73412
-4.72896
-4.72273
-4.73296
-4.76653
-4.76385
-4.7224
-4.96222
-4.77214
-4.78303
-4.79377
-4.80399
-4.81311
-4.82069
-4.82647
-4.83047
-4.833
-4.83423
-4.83422
-4.83204
-4.8266
-4.82543
-4.84604
-4.87871
-4.88148
-4.85551
-4.86848
-4.88488
-4.89392
-4.90264
-4.91074
-4.91781
-4.92362
-4.92797
-4.93077
-4.93268
-4.9341
-4.9347
-4.93268
-4.92787
-4.93356
-4.95933
-4.97179
-4.96287
-4.9171
-4.8356
-4.9981
-5.00537
-5.01223
-5.01839
-5.02362
-5.02793
-5.03123
-5.03333
-5.03481
-5.03646
-5.03808
-5.03793
-5.03815
-5.04861
-5.06398
-5.06148
-5.03707
-4.9811
-4.87581
-5.11157
-5.11726
-5.12255
-5.12716
-5.13093
-5.13401
-5.13644
-5.13803
-5.13897
-5.1404
-5.14302
-5.14722
-5.15553
-5.16537
-5.16218
-5.14882
-5.122
-5.07021
-4.97001
-5.22534
-5.22978
-5.23385
-5.23731
-5.23998
-5.24199
-5.24343
-5.2441
-5.24413
-5.24443
-5.24636
-5.25209
-5.26174
-5.26594
-5.25696
-5.24114
-5.22175
-5.17661
-5.08982
-5.33949
-5.34302
-5.34605
-5.34862
-5.35041
-5.35146
-5.35183
-5.35132
-5.34995
-5.34833
-5.34761
-5.34917
-5.35288
-5.35344
-5.34965
-5.3437
-5.33285
-5.2985
-5.22643
-5.45387
-5.45714
-5.45918
-5.46099
-5.46216
-5.46248
-5.46193
-5.46031
-5.45742
-5.45346
-5.44902
-5.44504
-5.44553
-5.44923
-5.44974
-5.45068
-5.45243
-5.43335
-5.38122
-5.56906
-5.57338
-5.57447
-5.57575
-5.57677
-5.57694
-5.57592
-5.5733
-5.56854
-5.56097
-5.54975
-5.53689
-5.53621
-5.54963
-5.55564
-5.56426
-5.58335
-5.58792
-5.56312
-5.6867
-5.68861
-5.68781
-5.68848
-5.68948
-5.68986
-5.68907
-5.68646
-5.68122
-5.67184
-5.65319
-5.61729
-5.61526
-5.65537
-5.67248
-5.68772
-5.71902
-5.75804
-5.77134
)
;

boundaryField
{
    leftWall
    {
        type            calculated;
        value           nonuniform List<scalar> 
50
(
565.534
506.707
445.873
383.691
320.761
257.254
193.125
127.877
44.8775
1.11648
-0.136466
-0.3049
-0.462179
-0.616497
-0.768874
-0.919504
-1.06919
-1.21787
-1.36562
-1.51251
-1.65861
-1.80397
-1.94863
-2.09261
-2.23593
-2.37874
-2.521
-2.66274
-2.80401
-2.94476
-3.08506
-3.22491
-3.36432
-3.50326
-3.64168
-3.77955
-3.91683
-4.05347
-4.18946
-4.32483
-4.45963
-4.59396
-4.72794
-4.86168
-4.99526
-5.12871
-5.2621
-5.39546
-5.5288
-5.66212
)
;
    }
    rightWall
    {
        type            calculated;
        value           nonuniform List<scalar> 
50
(
1201.12
1142.04
1081.91
1023.93
964.684
902.111
834.968
764.149
653.748
513.391
389.803
291.045
229.635
196.509
183.181
168.116
150.66
132.985
120.906
95.2429
59.9168
35.7493
20.722
8.63763
1.411
-3.46928
-4.67524
-5.24466
-5.13084
-4.31913
-4.00965
-3.90415
-3.74207
-3.60643
-3.65594
-3.89984
-4.12676
-4.39062
-4.58171
-4.50224
-4.96222
-4.86848
-4.8356
-4.87581
-4.97001
-5.08982
-5.22643
-5.38122
-5.56312
-5.77134
)
;
    }
    lowerWall
    {
        type            calculated;
        value           nonuniform List<scalar> 
62
(
594.963
592.68
594.713
600.743
610.175
622.121
636.076
651.679
668.631
686.676
705.599
725.195
745.265
765.629
786.076
806.313
825.987
844.656
860.534
873.154
882.171
886.736
886.04
856.62
794.308
732.007
669.961
608.404
545.917
479.881
420.063
513.323
533.847
542.918
546.61
1267.44
1262.87
1169.54
997.587
843.891
749.558
710.465
682.096
1296.8
998.012
751.962
594.356
542.38
547.572
563.869
581.176
602.407
642.932
735.296
901.75
1101.2
1249.6
1312.95
1319.89
1302.89
1260.15
1228.37
)
;
    }
    atmosphere
    {
        type            calculated;
        value           nonuniform List<scalar> 
46
(
-5.72904
-5.72904
-5.72904
-5.72904
-5.72904
-5.72904
-5.72904
-5.72904
-5.72904
-5.72904
-5.72904
-5.72904
-5.72904
-5.72904
-5.72904
-5.72906
-5.72908
-5.7291
-5.72914
-5.72918
-5.72921
-5.72922
-5.7292
-5.72915
-5.72913
-5.72911
-5.72908
-5.72905
-5.72904
-5.72904
-5.72904
-5.72904
-5.72904
-5.72904
-5.72904
-5.72904
-5.72904
-5.72904
-5.72904
-5.72931
-5.73162
-5.73824
-5.74886
-5.76062
-5.75838
-5.90927
)
;
    }
    defaultFaces
    {
        type            empty;
    }
}


// ************************************************************************* //
