/*--------------------------------*- C++ -*----------------------------------*\
  =========                 |
  \\      /  F ield         | OpenFOAM: The Open Source CFD Toolbox
   \\    /   O peration     | Website:  https://openfoam.org
    \\  /    A nd           | Version:  9
     \\/     M anipulation  |
\*---------------------------------------------------------------------------*/
FoamFile
{
    format      ascii;
    class       volScalarField;
    location    "0.75";
    object      p_rgh;
}
// * * * * * * * * * * * * * * * * * * * * * * * * * * * * * * * * * * * * * //

dimensions      [1 -1 -2 0 0 0 0];

internalField   nonuniform List<scalar> 
2268
(
-1.7663
-1.76893
-1.7748
-1.78322
-1.79406
-1.80685
-1.82147
-1.83786
-1.85612
-1.87639
-1.89889
-1.92386
-1.95159
-1.98233
-2.01616
-2.05264
-2.09019
-2.12537
-2.15178
-2.16319
-2.1557
-2.13834
-2.12266
-1.76743
-1.77034
-1.77475
-1.78251
-1.79339
-1.80666
-1.82181
-1.83881
-1.85769
-1.87859
-1.90171
-1.9273
-1.95562
-1.98691
-2.02116
-2.05786
-2.09537
-2.13042
-2.15783
-2.16909
-2.16009
-2.13802
-2.11868
-1.76734
-1.77088
-1.77448
-1.78192
-1.79276
-1.80624
-1.82183
-1.83939
-1.8589
-1.88045
-1.90421
-1.93042
-1.9593
-1.99106
-2.02564
-2.06246
-2.09988
-2.13469
-2.16178
-2.17474
-2.16821
-2.14571
-2.12423
-1.7666
-1.7705
-1.77375
-1.78107
-1.79178
-1.80527
-1.82108
-1.839
-1.85893
-1.88095
-1.90518
-1.93182
-1.96109
-1.99316
-2.02797
-2.06499
-2.10268
-2.138
-2.16608
-2.18114
-2.17836
-2.15865
-2.13598
-1.76481
-1.76906
-1.77234
-1.77963
-1.79019
-1.80362
-1.8195
-1.83758
-1.85777
-1.88007
-1.90458
-1.93148
-1.96097
-1.99321
-2.02819
-2.06549
-2.10378
-2.14026
-2.17022
-2.18789
-2.18892
-2.17299
-2.15054
-1.76192
-1.76659
-1.77012
-1.77744
-1.7879
-1.80124
-1.81712
-1.83527
-1.85558
-1.87803
-1.9027
-1.92972
-1.95929
-1.9916
-2.02668
-2.06427
-2.10331
-2.14128
-2.17362
-2.19421
-2.19874
-2.18663
-2.16556
-1.75809
-1.76295
-1.76707
-1.77444
-1.78485
-1.79812
-1.81395
-1.83211
-1.85247
-1.87498
-1.8997
-1.92675
-1.95631
-1.98857
-2.02366
-2.06147
-2.10123
-2.14076
-2.17575
-2.19935
-2.20702
-2.1983
-2.17932
-1.75338
-1.75848
-1.76326
-1.77078
-1.78117
-1.79438
-1.81015
-1.82826
-1.84859
-1.87109
-1.89577
-1.92276
-1.95221
-1.98434
-2.01934
-2.05725
-2.09759
-2.13848
-2.17618
-2.20263
-2.2132
-2.20697
-2.18999
-2.07658
-2.09452
-2.11695
-2.15334
-2.19704
-2.24393
-2.29089
-2.33647
-2.38038
-2.42325
-2.4666
-2.51289
-2.56717
-2.63603
-2.72227
-2.82074
-2.92626
-3.03762
-3.06867
-2.07418
-2.08956
-2.11078
-2.14909
-2.19482
-2.24304
-2.29068
-2.33669
-2.38104
-2.42429
-2.46786
-2.51483
-2.5704
-2.64126
-2.73126
-2.83235
-2.93356
-3.05281
-3.07948
-2.06765
-2.08553
-2.10862
-2.14869
-2.19534
-2.24362
-2.29098
-2.33679
-2.38111
-2.42442
-2.46815
-2.51555
-2.57207
-2.64515
-2.74086
-2.84874
-2.94458
-3.0854
-3.09929
-2.0599
-2.08425
-2.11135
-2.15209
-2.19831
-2.24564
-2.29219
-2.33748
-2.38147
-2.42443
-2.46774
-2.51507
-2.57264
-2.64862
-2.75118
-2.87034
-2.96482
-3.14664
-3.13494
-2.05471
-2.08618
-2.11768
-2.15802
-2.20305
-2.24896
-2.29439
-2.33889
-2.38222
-2.42443
-2.46693
-2.51403
-2.57384
-2.6571
-2.76778
-2.9019
-2.99287
-3.26926
-3.24318
-2.05681
-2.0922
-2.12719
-2.16605
-2.20928
-2.2534
-2.29747
-2.34098
-2.38343
-2.42459
-2.46603
-2.5129
-2.57316
-2.67545
-2.85375
-3.0078
-3.09919
-3.50931
-3.67797
-2.07259
-2.10377
-2.13992
-2.17595
-2.21674
-2.25878
-2.30134
-2.34373
-2.38512
-2.42498
-2.46519
-2.51154
-2.57252
-2.6615
-3.06359
-4.76233
-6.55843
-7.11011
-5.56675
-2.1099
-2.12461
-2.15585
-2.18759
-2.22526
-2.26504
-2.30606
-2.34729
-2.38755
-2.42609
-2.46489
-2.5103
-2.57264
-2.66461
-3.26297
-6.92838
-14.1414
-33.0083
-79.9819
-1.74489
-1.75063
-1.7567
-1.76468
-1.77523
-1.78841
-1.80407
-1.82202
-1.84218
-1.86447
-1.88891
-1.91557
-1.9446
-1.97623
-2.01073
-2.04838
-2.08922
-2.1321
-2.1729
-2.20388
-2.21886
-2.21823
-2.20855
-1.73078
-1.73803
-1.74591
-1.75505
-1.76613
-1.77946
-1.795
-1.81271
-1.83247
-1.85423
-1.87796
-1.90369
-1.93152
-1.96163
-1.99431
-2.02999
-2.0692
-2.11188
-2.15517
-2.19136
-2.21162
-2.20756
-2.18703
-1.71422
-1.72303
-1.73273
-1.74307
-1.7548
-1.76837
-1.78389
-1.80133
-1.82065
-1.84178
-1.86468
-1.88933
-1.91578
-1.9441
-1.97451
-2.00735
-2.04315
-2.08193
-2.12156
-2.15788
-2.18256
-2.18888
-2.1829
-1.69559
-1.706
-1.71746
-1.72901
-1.74142
-1.75532
-1.77087
-1.78813
-1.80706
-1.82763
-1.84977
-1.87346
-1.89865
-1.92539
-1.95376
-1.98393
-2.01604
-2.04967
-2.08344
-2.11443
-2.13868
-2.15349
-2.16151
-1.67534
-1.68734
-1.70053
-1.71326
-1.72639
-1.74066
-1.75635
-1.77353
-1.79222
-1.81239
-1.83397
-1.85692
-1.88119
-1.90674
-1.93355
-1.9616
-1.99074
-2.02043
-2.04958
-2.07639
-2.0991
-2.11727
-2.13337
-1.65396
-1.66754
-1.6824
-1.69629
-1.71015
-1.72487
-1.74079
-1.75803
-1.77663
-1.79658
-1.81782
-1.8403
-1.86394
-1.88866
-1.91436
-1.94092
-1.96807
-1.99535
-2.02202
-2.04722
-2.07022
-2.09113
-2.11213
-1.63202
-1.64712
-1.66358
-1.6786
-1.69322
-1.70845
-1.72469
-1.7421
-1.76075
-1.78064
-1.80173
-1.82393
-1.84717
-1.87132
-1.89625
-1.92176
-1.94759
-1.97339
-1.99875
-2.02336
-2.04708
-2.07012
-2.09414
-1.61012
-1.62667
-1.64463
-1.66075
-1.67614
-1.69194
-1.70859
-1.72627
-1.74508
-1.76503
-1.78607
-1.80813
-1.83108
-1.85481
-1.87913
-1.90384
-1.92872
-1.95349
-1.97799
-2.0022
-2.02629
-2.05053
-2.07637
-1.58886
-1.60674
-1.6261
-1.64329
-1.65948
-1.6759
-1.69301
-1.71105
-1.73009
-1.75017
-1.77123
-1.79319
-1.81591
-1.83925
-1.86303
-1.88704
-1.91109
-1.93503
-1.95881
-1.98261
-2.00672
-2.03151
-2.05836
-1.56876
-1.58786
-1.60851
-1.62676
-1.64377
-1.66084
-1.67849
-1.69693
-1.71626
-1.7365
-1.7576
-1.77946
-1.80193
-1.82487
-1.84808
-1.87138
-1.89463
-1.91773
-1.94075
-1.96397
-1.98779
-2.01259
-2.03976
-1.55027
-1.57048
-1.59234
-1.61161
-1.62947
-1.64725
-1.66547
-1.68436
-1.704
-1.72442
-1.74554
-1.76726
-1.78944
-1.8119
-1.83448
-1.857
-1.87936
-1.90152
-1.92363
-1.94603
-1.96917
-1.99345
-2.02021
-1.53373
-1.55496
-1.57793
-1.59821
-1.61694
-1.63546
-1.6543
-1.67366
-1.69363
-1.7142
-1.73532
-1.75685
-1.77866
-1.80057
-1.82241
-1.84404
-1.86537
-1.88644
-1.90742
-1.9287
-1.95075
-1.97397
-1.99965
-1.51936
-1.5415
-1.56552
-1.58679
-1.6064
-1.62568
-1.64515
-1.665
-1.68529
-1.70601
-1.72707
-1.74835
-1.7697
-1.79095
-1.81194
-1.83255
-1.85272
-1.87251
-1.89212
-1.91198
-1.93256
-1.95422
-1.97816
-1.50724
-1.53019
-1.55516
-1.57737
-1.59785
-1.6179
-1.63801
-1.65833
-1.67893
-1.69976
-1.72073
-1.7417
-1.76251
-1.783
-1.80304
-1.8225
-1.84136
-1.8597
-1.87775
-1.89592
-1.91467
-1.93433
-1.95599
-1.49729
-1.52095
-1.54675
-1.56983
-1.59113
-1.61192
-1.63264
-1.65343
-1.6743
-1.69521
-1.71603
-1.73662
-1.75683
-1.77649
-1.79548
-1.81371
-1.83116
-1.84793
-1.86425
-1.88052
-1.89719
-1.91452
-1.93345
-1.48933
-1.51357
-1.54003
-1.56386
-1.5859
-1.60735
-1.62864
-1.64985
-1.67097
-1.69192
-1.71255
-1.73272
-1.75228
-1.77107
-1.78897
-1.80592
-1.82191
-1.83705
-1.85156
-1.86583
-1.88025
-1.89503
-1.91094
-1.48305
-1.50769
-1.53463
-1.55904
-1.58168
-1.60372
-1.6255
-1.64708
-1.66841
-1.68936
-1.70979
-1.72953
-1.74843
-1.76635
-1.78319
-1.79887
-1.81342
-1.82694
-1.83965
-1.85189
-1.86403
-1.87618
-1.88893
-1.47808
-1.50293
-1.53011
-1.55491
-1.57801
-1.60051
-1.6227
-1.64459
-1.66609
-1.68704
-1.70727
-1.72661
-1.7449
-1.76202
-1.77786
-1.79236
-1.80556
-1.81755
-1.82855
-1.83886
-1.84878
-1.85836
-1.86798
-1.47401
-1.49887
-1.52605
-1.55103
-1.57443
-1.59727
-1.61978
-1.64193
-1.66357
-1.68453
-1.7046
-1.72362
-1.74141
-1.75784
-1.7728
-1.78627
-1.79825
-1.80887
-1.81833
-1.82688
-1.83477
-1.84196
-1.84871
-1.47045
-1.49513
-1.52208
-1.54705
-1.5706
-1.59366
-1.61641
-1.63877
-1.66055
-1.68153
-1.70152
-1.72031
-1.73773
-1.75362
-1.76787
-1.78045
-1.79139
-1.80082
-1.80892
-1.81594
-1.82207
-1.8272
-1.83149
-1.46704
-1.49136
-1.5179
-1.5427
-1.56628
-1.58946
-1.61237
-1.63487
-1.65677
-1.67782
-1.69779
-1.71647
-1.73365
-1.74914
-1.76282
-1.77466
-1.78469
-1.79307
-1.79999
-1.80569
-1.81034
-1.81378
-1.81615
-1.46344
-1.48729
-1.51327
-1.5378
-1.56129
-1.58449
-1.60746
-1.63005
-1.65202
-1.67313
-1.69314
-1.71178
-1.7288
-1.74399
-1.75719
-1.76837
-1.77759
-1.78502
-1.79087
-1.79541
-1.79879
-1.80087
-1.80179
-1.45932
-1.48259
-1.50793
-1.5321
-1.55541
-1.57852
-1.60145
-1.62401
-1.64599
-1.66712
-1.68714
-1.70574
-1.72263
-1.73754
-1.75029
-1.76085
-1.7693
-1.77582
-1.78069
-1.78415
-1.78641
-1.78735
-1.78711
-1.45425
-1.4769
-1.50152
-1.52524
-1.54828
-1.57119
-1.59394
-1.61636
-1.63822
-1.65927
-1.6792
-1.69768
-1.71436
-1.72895
-1.74124
-1.75119
-1.75891
-1.76461
-1.76856
-1.77105
-1.77228
-1.7722
-1.77092
-1.44769
-1.46964
-1.49348
-1.51665
-1.53931
-1.56189
-1.58434
-1.60649
-1.62811
-1.64892
-1.6686
-1.68679
-1.70313
-1.71733
-1.72916
-1.73856
-1.74564
-1.75063
-1.75381
-1.75545
-1.75577
-1.75473
-1.7524
-1.4389
-1.46007
-1.48302
-1.50554
-1.52769
-1.54984
-1.57191
-1.59368
-1.61491
-1.63531
-1.65454
-1.67226
-1.68813
-1.70188
-1.71331
-1.72231
-1.72896
-1.73346
-1.73606
-1.73702
-1.73653
-1.73455
-1.73108
-1.42698
-1.44725
-1.46919
-1.49093
-1.51249
-1.53416
-1.55579
-1.57714
-1.5979
-1.61773
-1.63631
-1.65336
-1.66865
-1.68197
-1.69314
-1.70201
-1.70855
-1.71286
-1.71515
-1.71561
-1.71442
-1.71151
-1.70686
-1.4109
-1.43015
-1.451
-1.47186
-1.49277
-1.51396
-1.53521
-1.55616
-1.57639
-1.5955
-1.61325
-1.62949
-1.64415
-1.65713
-1.6683
-1.67741
-1.68426
-1.68882
-1.69115
-1.69136
-1.68961
-1.68588
-1.68013
-1.38956
-1.4078
-1.42756
-1.44751
-1.46776
-1.4885
-1.50948
-1.53016
-1.54988
-1.56818
-1.58492
-1.60021
-1.61425
-1.62713
-1.6387
-1.64859
-1.65635
-1.66171
-1.66454
-1.66483
-1.66274
-1.65837
-1.65172
-1.3619
-1.37941
-1.39827
-1.41732
-1.43685
-1.45717
-1.47808
-1.49876
-1.51815
-1.5356
-1.55117
-1.56544
-1.57901
-1.59215
-1.60472
-1.61609
-1.62549
-1.63231
-1.63623
-1.63709
-1.63498
-1.63016
-1.62296
-1.32673
-1.34446
-1.36277
-1.38088
-1.39943
-1.4193
-1.44053
-1.46182
-1.48136
-1.49807
-1.51234
-1.5255
-1.53883
-1.55285
-1.56725
-1.58107
-1.59302
-1.60207
-1.60772
-1.60972
-1.60803
-1.60294
-1.59482
-1.28203
-1.30262
-1.32076
-1.33754
-1.35448
-1.37377
-1.39616
-1.41937
-1.44006
-1.45635
-1.46911
-1.48103
-1.49454
-1.51046
-1.52795
-1.54546
-1.56111
-1.57322
-1.5811
-1.58467
-1.58382
-1.57864
-1.56966
-1.22406
-1.25377
-1.27134
-1.28579
-1.29974
-1.31822
-1.3435
-1.37111
-1.39478
-1.41119
-1.42222
-1.43289
-1.4474
-1.46696
-1.48945
-1.51217
-1.53271
-1.54865
-1.559
-1.56411
-1.5642
-1.5591
-1.54986
-1.14855
-1.19393
-1.21171
-1.22224
-1.23022
-1.24723
-1.27916
-1.31592
-1.34563
-1.36285
-1.37193
-1.38216
-1.39956
-1.42551
-1.4556
-1.4851
-1.51138
-1.53158
-1.54426
-1.55043
-1.55102
-1.54603
-1.53574
-1.04115
-1.11166
-1.13523
-1.14029
-1.13652
-1.15013
-1.19718
-1.25257
-1.29308
-1.31128
-1.31753
-1.32969
-1.35892
-1.39961
-1.43911
-1.47044
-1.50101
-1.52511
-1.53939
-1.5459
-1.54642
-1.54115
-1.5307
-0.901361
-0.984477
-1.02597
-1.02868
-1.0094
-1.01819
-1.09599
-1.18298
-1.23892
-1.26188
-1.32413
-1.43716
-1.53046
-1.48162
-1.43093
-1.4686
-1.50374
-1.53048
-1.54493
-1.5508
-1.55054
-1.54497
-1.53538
-0.759906
-0.805518
-0.874068
-0.904762
-1.0631
-1.08938
-1.06997
-1.22535
-1.52864
-2.2785
-3.41671
-3.05538
-1.5644
-1.4148
-1.45082
-1.48209
-1.51212
-1.53442
-1.54733
-1.99998
-2.09659
-2.09396
-2.0889
-15.1697
-7.94961
-5.57173
-6.59135
-4.27609
-6.65548
-10.8623
-19.2868
-34.3315
-19.9586
-2.60032
-1.80771
-1.50385
-1.50286
-1.43432
-1.4601
-1.48104
-1.47996
-1.4865
-1.56266
-1.72559
-1.71222
-1.62097
-17.7504
-17.6746
-16.8471
-6.66813
-3.25983
-3.85599
-99.8868
-103.486
-57.8701
-5.07032
-4.3169
-3.29009
-2.24271
-1.76255
-1.65019
-1.71193
-1.90533
-1.84388
-1.87739
-1.77969
-1.82743
-1.72474
-1.8224
-4.06768
-16.619
-9.44258
-2.45969
-2.91907
-34.2146
-131.349
-96.0235
-90.7601
-131.247
-147.717
-93.9082
-97.8247
-719.733
-1938.8
-2082.29
-1852.28
-1791.69
-1800.72
-1826.99
-2198.38
-2911
-2842.34
-0.0899518
-1.59546
0.0998871
-3.8457
-4.31297
-4.41942
-635.359
-1374.41
-1382.79
-1389.95
-1399.21
-650.984
-284.557
-2081.16
-3228.29
-3228.41
-3264.51
-3265.86
-3295.23
-3289.55
-3305.78
-3282.12
-3303.67
0.0589415
0.0735423
0.0124829
-3.52189
-3.98309
-3.49018
-11.0502
-41.0801
-31.3113
-25.9047
-33.2765
0.768477
5.10115
-29.2218
-133.771
-128.077
-183.522
-104.999
-153.22
-84.2856
-150.135
-102.347
-153.113
-2.25208
-2.25873
-2.29852
-2.33884
-2.20223
-2.20712
-2.21287
-2.22278
-2.18699
-2.18992
-2.19039
-2.19096
-2.16984
-2.17783
-2.18575
-2.19207
-2.14858
-2.16051
-2.17315
-2.18487
-2.13174
-2.14593
-2.16069
-2.17491
-2.11612
-2.13204
-2.14864
-2.16475
-2.09997
-2.11723
-2.13539
-2.15318
-2.08303
-2.1012
-2.12045
-2.13947
-2.06484
-2.08346
-2.10333
-2.12313
-2.04505
-2.06363
-2.08363
-2.10373
-2.02358
-2.04164
-2.06124
-2.08106
-2.00057
-2.01763
-2.03627
-2.0552
-1.97635
-1.99197
-2.00909
-2.02648
-1.95133
-1.96514
-1.98026
-1.99553
-1.92604
-1.93777
-1.95054
-1.96326
-1.9011
-1.91063
-1.92088
-1.93085
-1.87725
-1.88463
-1.89245
-1.89977
-1.8553
-1.86075
-1.86648
-1.87153
-1.83583
-1.83971
-1.84385
-1.84719
-1.81879
-1.82153
-1.82457
-1.82673
-1.80322
-1.80513
-1.80736
-1.80863
-1.78756
-1.78874
-1.79017
-1.79054
-1.77039
-1.77074
-1.7712
-1.77051
-1.75076
-1.75008
-1.74934
-1.74744
-1.72807
-1.72614
-1.72402
-1.72082
-1.70225
-1.69883
-1.69515
-1.69055
-1.67387
-1.66885
-1.66344
-1.65733
-1.64399
-1.63741
-1.63018
-1.62238
-1.61411
-1.60615
-1.59712
-1.58751
-1.5846
-1.57553
-1.56488
-1.5535
-1.55789
-1.54723
-1.53488
-1.52188
-1.53757
-1.52559
-1.51188
-1.49744
-1.52085
-1.50767
-1.49247
-1.47922
-1.51503
-1.50161
-1.48544
-1.46759
-1.519
-1.50429
-1.48671
-1.46677
-2.07254
-1.65551
-1.50582
-1.4785
-1.53372
-1.47251
-1.40919
-1.39985
-1.86651
-1.94347
-1.76296
-1.65943
-2403.48
-3210.77
-3307.33
-3313.42
-2282.06
-649.549
-713.197
-2995.31
-72.7583
-67.6035
-104.859
-168.422
-2.22341
-2.17595
-2.18453
-2.20818
-2.24034
-2.27654
-2.31525
-2.35496
-2.3939
-2.43082
-2.46703
-2.51154
-2.59293
-2.94744
-3.93256
-7.86978
-15.9764
-53.9353
-303.801
-2.21666
-2.21103
-2.2161
-2.23502
-2.26293
-2.29642
-2.33354
-2.3717
-2.40785
-2.44068
-2.47422
-2.57829
-2.94379
-3.70843
-4.17349
-3.56638
-4.2123
-44.3523
-473.96
-2.19909
-2.21685
-2.23353
-2.25629
-2.28496
-2.31871
-2.35566
-2.39259
-2.42637
-2.45763
-2.54431
-2.97811
-3.1754
-2.81086
-2.33393
-2.30916
-2.46991
-23.6349
-570.197
-2.20234
-2.22305
-2.24651
-2.27437
-2.3067
-2.34309
-2.3814
-2.41827
-2.45152
-2.51413
-2.81167
-2.89286
-2.61385
-2.37105
-2.3379
-2.31504
-2.3687
-16.6216
-664.113
-2.20253
-2.22839
-2.25757
-2.29096
-2.32849
-2.36914
-2.41025
-2.44842
-2.48844
-2.66099
-2.75213
-2.51897
-2.42651
-2.40351
-2.38007
-2.34784
-2.329
-8.72055
-759.812
-2.19743
-2.22989
-2.26577
-2.3058
-2.34975
-2.39597
-2.44101
-2.48171
-2.57951
-2.67465
-2.53285
-2.4883
-2.4685
-2.45013
-2.43011
-2.40517
-2.39877
-2.41553
-834.789
-2.19054
-2.22858
-2.271
-2.31816
-2.36935
-2.42195
-2.47152
-2.53977
-2.61823
-2.59161
-2.54195
-2.53224
-2.51732
-2.50169
-2.48576
-2.47156
-2.50402
-2.49719
-751.269
-2.18182
-2.22454
-2.27288
-2.32702
-2.38554
-2.44454
-2.49865
-2.58214
-2.64884
-2.57961
-2.58182
-2.57784
-2.56701
-2.555
-2.54297
-2.53386
-2.5793
-2.48691
-761.716
-2.17035
-2.21687
-2.27036
-2.33085
-2.39608
-2.46069
-2.52355
-2.61488
-2.6429
-2.60932
-2.61954
-2.62254
-2.61751
-2.61006
-2.60265
-2.60171
-2.64593
-2.42883
-1063.73
-2.15547
-2.20466
-2.26214
-2.32779
-2.39836
-2.46724
-2.53509
-2.61709
-2.63743
-2.63338
-2.66786
-2.6728
-2.67362
-2.66914
-2.67086
-2.68744
-2.73016
-2.50012
-1363.07
-2.13665
-2.18709
-2.24697
-2.31591
-2.38981
-2.4612
-2.53124
-2.59749
-2.62955
-2.74019
-3.28861
-2.85352
-2.73762
-2.73428
-2.7515
-2.8057
-2.85172
-2.6526
-1507.7
-2.11355
-2.16356
-2.22376
-2.29356
-2.36821
-2.43994
-2.50793
-2.56748
-2.61401
-3.02655
-5.1813
-4.00857
-2.78287
-2.7963
-2.85128
-2.99239
-3.02315
-2.73888
-1641.01
-2.08611
-2.13381
-2.19192
-2.25967
-2.33206
-2.40152
-2.46349
-2.5158
-2.57533
-3.75515
-5.33576
-4.74671
-2.77311
-2.82233
-2.94403
-3.25412
-3.22076
-2.7177
-1842.65
-2.05467
-2.09811
-2.15155
-2.21418
-2.28112
-2.3454
-2.40228
-2.44973
-2.49058
-5.16096
-5.44648
-3.778
-2.69124
-2.77067
-2.91148
-3.37231
-17.3071
-72.4781
-2046.79
-2.01994
-2.05735
-2.10374
-2.15833
-2.21686
-2.27352
-2.32415
-2.36704
-2.40407
-5.40377
-5.48972
-3.3023
-2.5773
-2.64187
-2.7425
-3.18548
-64.7076
-1081.33
-2222.07
-1.98311
-2.01313
-2.05059
-2.09486
-2.14265
-2.18995
-2.23299
-2.27097
-2.31386
-5.2432
-5.50483
-3.19568
-2.42575
-2.46791
-2.50729
-2.5944
-112.197
-2201.63
-2380.17
-1.94579
-1.96769
-1.99517
-2.02783
-2.06376
-2.10022
-2.13401
-2.16582
-2.23468
-5.01565
-5.47608
-2.545
-2.26173
-2.28949
-2.29191
-2.1021
-94.857
-2413.38
-2519.15
-1.90994
-1.92381
-1.94132
-1.96235
-1.98642
-2.01179
-2.0363
-2.0622
-3.91722
-5.04174
-3.71467
-2.11488
-2.12149
-2.14674
-2.15847
-2.06298
-59.8875
-2372.81
-2645.64
-1.8776
-1.88437
-1.89307
-1.90406
-1.9173
-1.9324
-1.9495
-2.00993
-4.93039
-4.9708
-1.983
-1.96079
-2.01406
-2.04977
-2.10697
-2.74955
-55.0522
-2393.89
-2769.66
-1.85014
-1.85139
-1.85323
-1.8563
-1.86052
-1.86652
-1.87658
-2.28328
-4.81873
-3.60886
-1.85192
-1.86764
-1.92892
-1.98887
-2.18544
-3.97199
-108.423
-2571.2
-2893.53
-1.82748
-1.82483
-1.82188
-1.81872
-1.81569
-1.81256
-1.81142
-2.35859
-2.15097
-1.66662
-1.70499
-1.78491
-1.85405
-1.94526
-2.61087
-6.70509
-255.975
-2935.53
-3017.99
-1.80773
-1.80232
-1.79544
-1.78776
-1.77875
-1.76571
-1.75217
-1.71597
-1.65807
-1.62919
-1.65557
-1.7117
-1.7748
-1.88321
-3.42382
-18.0643
-580.649
-3139.6
-3142.91
-1.78811
-1.78016
-1.76989
-1.75796
-1.74305
-1.72324
-1.69967
-1.66129
-1.6166
-1.59021
-1.59626
-1.62726
-1.67219
-1.7662
-3.90998
-86.8977
-1530.05
-3262.11
-3273.34
-1.76645
-1.75597
-1.74237
-1.72545
-1.70493
-1.67954
-1.64796
-1.60954
-1.5671
-1.53457
-1.52157
-1.53166
-1.54896
-1.67144
-3.52695
-306.458
-2723.84
-3386.77
-3399.64
-1.74162
-1.72855
-1.71155
-1.69033
-1.66438
-1.63319
-1.59635
-1.55364
-1.50765
-1.46618
-1.44158
-1.4394
-1.42076
-1.49889
-2.35204
-499.604
-3217.64
-3511.83
-3524.87
-1.71317
-1.69747
-1.677
-1.65147
-1.62045
-1.5836
-1.54076
-1.49221
-1.43991
-1.38877
-1.36565
-1.33778
-1.29802
-1.32174
-1.79079
-569.597
-3352.11
-3634.98
-3648.42
-1.6811
-1.66281
-1.63885
-1.60893
-1.57275
-1.53006
-1.48084
-1.42548
-1.36545
-1.30442
-1.27472
-1.22916
-1.18106
-1.18281
-1.58722
-595.141
-3416.84
-3756.24
-3769.48
-1.64605
-1.62524
-1.5978
-1.56346
-1.52204
-1.47335
-1.4174
-1.35453
-1.28592
-1.21483
-1.17137
-1.11056
-1.05988
-1.04973
-1.56997
-625.026
-3525.77
-3876.25
-3887.3
-1.60913
-1.58582
-1.55496
-1.51623
-1.46959
-1.41486
-1.35195
-1.2811
-1.20314
-1.12089
-1.05034
-0.970325
-0.916438
-0.895199
-1.44917
-724.064
-3797.23
-3995.52
-4004.41
-1.57197
-1.54601
-1.51184
-1.46886
-1.41717
-1.35652
-1.28662
-1.20743
-1.11942
-1.02494
-0.927396
-0.837633
-0.771159
-0.7353
-1.29242
-810.969
-4082.64
-4114.16
-4119.86
-1.53586
-1.50772
-1.4705
-1.42352
-1.36705
-1.30075
-1.22404
-1.13637
-1.03787
-0.929767
-0.816556
-0.708374
-0.625232
-0.5822
-1.10383
-840.606
-4247.88
-4231.36
-4230.08
-1.50225
-1.47193
-1.43231
-1.38224
-1.32181
-1.25033
-1.16732
-1.07305
-0.96758
-0.840408
-0.70591
-0.578118
-0.476827
-0.451602
-1.12978
-1083.03
-4362.5
-4344.83
-4334.48
-1.47443
-1.44136
-1.3996
-1.34721
-1.28346
-1.20786
-1.11966
-1.02354
-0.901619
-0.756471
-0.59222
-0.433594
-0.317641
-0.400683
-1.39692
-1790.8
-4452.47
-4451.07
-4429.47
-1.45562
-1.41928
-1.37374
-1.3203
-1.25448
-1.17545
-1.08355
-0.9823
-0.846117
-0.674218
-0.467225
-0.253196
-0.124059
-0.384542
-9.60179
-2445.6
-4550.42
-4544.34
-4509.42
-1.43985
-1.39957
-1.38316
-1.36783
-1.27364
-1.15668
-1.06057
-0.952853
-0.805691
-0.600294
-0.34725
-0.0865608
-0.0974825
-0.847651
-1.91737
-3011.77
-4656.69
-4620.31
-4573.1
-1.44039
-1.47891
-1.45373
-1.41033
-1.34538
-1.24495
-1.05555
-0.950715
-0.806856
-0.589595
-0.326767
-0.164009
-0.88863
-2.74137
-31.4723
-3778.23
-4738.42
-4680.42
-4616.6
-1.48696
-1.47319
-1.42453
-1.40085
-1.34047
-1.16336
-1.03868
-0.979338
-0.868058
-0.653214
-0.423128
-0.675475
-2.56146
-6.67648
-1709.57
-4590.8
-4788.38
-4723.67
-4644.52
-1.41021
-1.28917
-1.22683
-1.27786
-1.22688
-1.05712
-0.988596
-1.03418
-0.848599
-0.199423
-0.478593
-1.99192
-9.30731
-716.926
-3781.54
-4876.78
-4817.72
-4755.74
-4671.15
-1.73001
-1.33864
-1.23311
-1.62316
-1.59389
-1.01267
-0.739929
-20.9179
-89.6955
-215.104
-442.884
-825.194
-1849.11
-4143.06
-4935.88
-4865.84
-4828.98
-4786.11
-4720.87
-3169.34
-2616
-2611.54
-2851.07
-3044.3
-3083.77
-3151.78
-3288.92
-3464.49
-3698.62
-4071.04
-4649.82
-5056.89
-4960.45
-4907.29
-4843.91
-4826.86
-4819.26
-4819.73
-4508.89
-4504.73
-4533.93
-4682.6
-4727.98
-4677.79
-4687.1
-4844.27
-4899.54
-4879.58
-4959.14
-5044.49
-5099.7
-4972.59
-4944.45
-4849.6
-4825.16
-4831.64
-4952
-213.851
-100.997
-96.2433
-271.594
-266.567
-98.0445
-104.282
-315.706
-326.654
-150.443
-347.916
-190.398
-496.641
-289.036
-636.531
-385.264
-951.195
-665.563
-1376.73
)
;

boundaryField
{
    leftWall
    {
        type            fixedFluxPressure;
        gradient        uniform 0;
        value           nonuniform List<scalar> 
50
(
-1.7663
-1.76743
-1.76734
-1.7666
-1.76481
-1.76192
-1.75809
-1.75338
-1.74489
-1.73078
-1.71422
-1.69559
-1.67534
-1.65396
-1.63202
-1.61012
-1.58886
-1.56876
-1.55027
-1.53373
-1.51936
-1.50724
-1.49729
-1.48933
-1.48305
-1.47808
-1.47401
-1.47045
-1.46704
-1.46344
-1.45932
-1.45425
-1.44769
-1.4389
-1.42698
-1.4109
-1.38956
-1.3619
-1.32673
-1.28203
-1.22406
-1.14855
-1.04115
-0.901361
-0.759906
-15.1697
-17.7504
-4.06768
-0.0899518
0.0589415
)
;
    }
    rightWall
    {
        type            fixedFluxPressure;
        gradient        uniform 0;
        value           nonuniform List<scalar> 
50
(
-3.06867
-3.07948
-3.09929
-3.13494
-3.24318
-3.67797
-5.56675
-79.9819
-303.801
-473.96
-570.197
-664.113
-759.812
-834.789
-751.269
-761.716
-1063.73
-1363.07
-1507.7
-1641.01
-1842.65
-2046.79
-2222.07
-2380.17
-2519.15
-2645.64
-2769.66
-2893.53
-3017.99
-3142.91
-3273.34
-3399.64
-3524.87
-3648.42
-3769.48
-3887.3
-4004.41
-4119.86
-4230.08
-4334.48
-4429.47
-4509.42
-4573.1
-4616.6
-4644.52
-4671.15
-4720.87
-4819.73
-4952
-1376.73
)
;
    }
    lowerWall
    {
        type            fixedFluxPressure;
        gradient        uniform 0;
        value           nonuniform List<scalar> 
62
(
-1.7663
-1.76893
-1.7748
-1.78322
-1.79406
-1.80685
-1.82147
-1.83786
-1.85612
-1.87639
-1.89889
-1.92386
-1.95159
-1.98233
-2.01616
-2.05264
-2.09019
-2.12537
-2.15178
-2.16319
-2.1557
-2.13834
-2.12266
-2.12266
-2.11868
-2.12423
-2.13598
-2.15054
-2.16556
-2.17932
-2.18999
-2.25208
-2.25873
-2.29852
-2.33884
-2.07658
-2.07418
-2.06765
-2.0599
-2.05471
-2.05681
-2.07259
-2.1099
-2.07658
-2.09452
-2.11695
-2.15334
-2.19704
-2.24393
-2.29089
-2.33647
-2.38038
-2.42325
-2.4666
-2.51289
-2.56717
-2.63603
-2.72227
-2.82074
-2.92626
-3.03762
-3.06867
)
;
    }
    atmosphere
    {
        type            totalPressure;
        rho             rho;
        psi             none;
        gamma           1;
        p0              uniform 0;
        value           nonuniform List<scalar> 
46
(
0
0
0
-0.0219049
-0.0922177
-0.0635251
-0.288659
0
-0.766752
-0.634943
0
0
0
-0.366847
0
-2.4827
0
-1.18618
0
-0.622627
0
-0.919755
0
-0.0756175
-0.653106
0
0
0
-0.967321
-1.32805
0
0
-0.721467
-1.37129
0
0
-0.884729
0
-0.442297
0
-0.871964
0
-0.567803
0
-3.97999
0
)
;
    }
    defaultFaces
    {
        type            empty;
    }
}


// ************************************************************************* //
