/*--------------------------------*- C++ -*----------------------------------*\
  =========                 |
  \\      /  F ield         | OpenFOAM: The Open Source CFD Toolbox
   \\    /   O peration     | Website:  https://openfoam.org
    \\  /    A nd           | Version:  9
     \\/     M anipulation  |
\*---------------------------------------------------------------------------*/
FoamFile
{
    format      ascii;
    class       volVectorField;
    location    "0.75";
    object      U;
}
// * * * * * * * * * * * * * * * * * * * * * * * * * * * * * * * * * * * * * //

dimensions      [0 1 -1 0 0 0 0];

internalField   nonuniform List<vector> 
2268
(
(0.0293263 -0.0201994 0)
(0.0703812 -0.0114696 0)
(0.0828764 -0.000876277 0)
(0.0786974 0.00268721 0)
(0.0747997 0.00168961 0)
(0.0752114 -0.000343244 0)
(0.0800556 -0.00230639 0)
(0.0895808 -0.0041076 0)
(0.103569 -0.0057346 0)
(0.121799 -0.00723714 0)
(0.144199 -0.00868875 0)
(0.170798 -0.010143 0)
(0.201619 -0.0115935 0)
(0.236523 -0.0129612 0)
(0.274894 -0.0140366 0)
(0.315106 -0.0144174 0)
(0.353956 -0.0133817 0)
(0.384983 -0.00998459 0)
(0.401788 -8.9523e-05 0)
(0.378264 0.0152753 0)
(0.30018 0.0333836 0)
(0.155537 0.0414905 0)
(0.0278981 0.0276905 0)
(0.0237078 -0.0328765 0)
(0.051145 -0.016309 0)
(0.0568639 -0.00324117 0)
(0.058007 0.00170329 0)
(0.0578685 0.00092466 0)
(0.0590138 -0.00184463 0)
(0.0630647 -0.00508367 0)
(0.0706506 -0.00834163 0)
(0.0820176 -0.0115044 0)
(0.0972809 -0.0145985 0)
(0.116547 -0.0176901 0)
(0.13992 -0.0208156 0)
(0.167445 -0.0239134 0)
(0.198975 -0.0267549 0)
(0.233906 -0.0288137 0)
(0.270729 -0.0291179 0)
(0.306506 -0.0260635 0)
(0.33632 -0.0174527 0)
(0.35202 0.00113487 0)
(0.354503 0.0317681 0)
(0.328538 0.0722317 0)
(0.22845 0.099043 0)
(0.0689192 0.0685089 0)
(0.0142927 -0.0502919 0)
(0.0353126 -0.021768 0)
(0.0389586 -0.00535041 0)
(0.0417974 0.000858261 0)
(0.0432586 0.000406965 0)
(0.0448564 -0.00295924 0)
(0.0481747 -0.0073235 0)
(0.0541267 -0.0119843 0)
(0.0632214 -0.0167107 0)
(0.0757613 -0.0214712 0)
(0.09196 -0.0263051 0)
(0.111972 -0.0312243 0)
(0.135863 -0.0361115 0)
(0.163509 -0.0406042 0)
(0.194378 -0.0439041 0)
(0.227145 -0.0445513 0)
(0.259194 -0.0402272 0)
(0.286029 -0.0278235 0)
(0.300619 -0.00371856 0)
(0.297905 0.0370701 0)
(0.275884 0.0962731 0)
(0.214985 0.150304 0)
(0.0854189 0.138534 0)
(0.00669313 -0.059471 0)
(0.0221503 -0.0255534 0)
(0.0248824 -0.00739408 0)
(0.0281374 -0.000262216 0)
(0.0299024 -0.000343404 0)
(0.0313048 -0.0039941 0)
(0.0336928 -0.00919861 0)
(0.0380206 -0.0150503 0)
(0.0449122 -0.0211875 0)
(0.0547697 -0.0275039 0)
(0.0678686 -0.0339952 0)
(0.0843966 -0.0406361 0)
(0.104444 -0.0472496 0)
(0.127939 -0.0533468 0)
(0.154476 -0.057879 0)
(0.182994 -0.058928 0)
(0.211295 -0.0534428 0)
(0.235382 -0.0373343 0)
(0.249035 -0.00626909 0)
(0.245676 0.0437408 0)
(0.222896 0.115296 0)
(0.17883 0.191227 0)
(0.0833159 0.205119 0)
(0.00109306 -0.0645224 0)
(0.0116017 -0.0281336 0)
(0.0133062 -0.00912395 0)
(0.0160091 -0.00134187 0)
(0.017278 -0.000985099 0)
(0.0179783 -0.0046965 0)
(0.0191805 -0.0104708 0)
(0.0217759 -0.0172635 0)
(0.0264081 -0.0245935 0)
(0.0335145 -0.0322736 0)
(0.0433939 -0.040245 0)
(0.0562467 -0.0484396 0)
(0.072183 -0.0566265 0)
(0.0911912 -0.0642158 0)
(0.113022 -0.069959 0)
(0.136938 -0.0715524 0)
(0.161258 -0.0652683 0)
(0.182614 -0.0460323 0)
(0.195467 -0.00866803 0)
(0.19317 0.0500977 0)
(0.172416 0.131184 0)
(0.137273 0.221999 0)
(0.0708029 0.258866 0)
(-0.00295888 -0.0661437 0)
(0.00329313 -0.0296919 0)
(0.0036236 -0.0102306 0)
(0.00509396 -0.00202195 0)
(0.00532808 -0.00123369 0)
(0.00493504 -0.00487281 0)
(0.00471815 -0.011 0)
(0.00545535 -0.0184951 0)
(0.00774989 -0.0267797 0)
(0.0120263 -0.0355891 0)
(0.0185726 -0.0448076 0)
(0.0275781 -0.0543244 0)
(0.0391546 -0.0638675 0)
(0.0533377 -0.0727807 0)
(0.0700296 -0.0796829 0)
(0.0888307 -0.0819843 0)
(0.108637 -0.075378 0)
(0.126858 -0.0538431 0)
(0.13877 -0.0112131 0)
(0.13811 0.0553052 0)
(0.121388 0.144087 0)
(0.0937877 0.244377 0)
(0.0527612 0.298608 0)
(-0.00602092 -0.0652614 0)
(-0.00321244 -0.0300917 0)
(-0.00452491 -0.0105365 0)
(-0.00476632 -0.00205125 0)
(-0.00592864 -0.000879244 0)
(-0.00770525 -0.00437508 0)
(-0.00952656 -0.0106953 0)
(-0.0107522 -0.0186889 0)
(-0.010856 -0.0277031 0)
(-0.00946158 -0.0374036 0)
(-0.00631989 -0.0476197 0)
(-0.00127847 -0.058201 0)
(0.0057487 -0.0688468 0)
(0.0148097 -0.0788708 0)
(0.0259175 -0.0868306 0)
(0.038969 -0.0899618 0)
(0.05343 -0.0835111 0)
(0.0676256 -0.0606006 0)
(0.0779785 -0.0139553 0)
(0.0791366 0.0589761 0)
(0.0679563 0.153849 0)
(0.0487195 0.258864 0)
(0.0314062 0.323092 0)
(-0.00829647 -0.0627576 0)
(-0.00831591 -0.0291248 0)
(-0.0114848 -0.00997278 0)
(-0.0136766 -0.00132136 0)
(-0.016483 0.000173577 0)
(-0.0198479 -0.00314063 0)
(-0.0234068 -0.00953137 0)
(-0.0266656 -0.0178456 0)
(-0.0291981 -0.0273767 0)
(-0.0307018 -0.0377307 0)
(-0.0309911 -0.0486862 0)
(-0.0299757 -0.0600573 0)
(-0.0276254 -0.0715276 0)
(-0.0239231 -0.0824119 0)
(-0.0188145 -0.0912715 0)
(-0.0122021 -0.0952841 0)
(-0.00414609 -0.0894083 0)
(0.00465344 -0.0660167 0)
(0.0121974 -0.01687 0)
(0.0149757 0.0606588 0)
(0.010792 0.160115 0)
(0.00200734 0.268749 0)
(0.00360404 0.338593 0)
(0.0497169 -0.0209276 0)
(0.0309434 0.0170944 0)
(-0.0942403 0.027818 0)
(-0.201069 0.0286663 0)
(-0.304058 0.0263289 0)
(-0.391219 0.0219108 0)
(-0.460806 0.017131 0)
(-0.513366 0.0126381 0)
(-0.550211 0.00823646 0)
(-0.570697 0.00328918 0)
(-0.571257 -0.00254298 0)
(-0.548045 -0.00902394 0)
(-0.503369 -0.0154953 0)
(-0.436523 -0.0220502 0)
(-0.347577 -0.0281063 0)
(-0.241961 -0.033024 0)
(-0.140508 -0.0303145 0)
(-0.0910332 -0.00741056 0)
(-0.0482482 -0.0199544 0)
(0.00397611 -0.0210588 0)
(-0.0721278 0.0614971 0)
(-0.228661 0.0766337 0)
(-0.353139 0.07202 0)
(-0.452599 0.0613283 0)
(-0.524108 0.0483775 0)
(-0.573913 0.0361795 0)
(-0.606581 0.02536 0)
(-0.624657 0.015149 0)
(-0.628532 0.00423907 0)
(-0.617973 -0.00818829 0)
(-0.59143 -0.0220445 0)
(-0.542277 -0.0366068 0)
(-0.469515 -0.0503285 0)
(-0.376209 -0.0607075 0)
(-0.269511 -0.0667588 0)
(-0.168662 -0.0585688 0)
(-0.135829 -0.00431352 0)
(-0.0736504 -0.0569728 0)
(-0.0517045 0.0112407 0)
(-0.151887 0.113965 0)
(-0.295947 0.129855 0)
(-0.403643 0.11495 0)
(-0.484833 0.0931309 0)
(-0.54382 0.0710321 0)
(-0.587162 0.0517917 0)
(-0.618142 0.0351998 0)
(-0.637797 0.0195818 0)
(-0.644979 0.00296038 0)
(-0.636311 -0.0161978 0)
(-0.606384 -0.0385742 0)
(-0.549265 -0.0634666 0)
(-0.464255 -0.0871249 0)
(-0.359047 -0.103496 0)
(-0.244363 -0.109929 0)
(-0.131627 -0.0988025 0)
(-0.126364 -0.00987458 0)
(-0.0508195 -0.116017 0)
(-0.0925902 0.0656935 0)
(-0.207556 0.168671 0)
(-0.333905 0.178764 0)
(-0.426736 0.152643 0)
(-0.497267 0.121206 0)
(-0.551578 0.092051 0)
(-0.594041 0.0674961 0)
(-0.626499 0.0463228 0)
(-0.648674 0.0258664 0)
(-0.657661 0.00308488 0)
(-0.64724 -0.0246927 0)
(-0.608956 -0.0586826 0)
(-0.536097 -0.0969492 0)
(-0.431298 -0.132302 0)
(-0.31112 -0.153065 0)
(-0.192873 -0.154984 0)
(-0.0652998 -0.141269 0)
(-0.0845654 -0.00255244 0)
(0.0228373 -0.151025 0)
(-0.12517 0.135536 0)
(-0.250617 0.222664 0)
(-0.361439 0.22181 0)
(-0.443896 0.185572 0)
(-0.507746 0.146777 0)
(-0.559509 0.112355 0)
(-0.601937 0.0835908 0)
(-0.635929 0.0583584 0)
(-0.659826 0.0328629 0)
(-0.668171 0.00254702 0)
(-0.650977 -0.0366648 0)
(-0.59717 -0.0858601 0)
(-0.502533 -0.13987 0)
(-0.377278 -0.186243 0)
(-0.249071 -0.206693 0)
(-0.14565 -0.193865 0)
(-0.0233083 -0.172683 0)
(-0.0692285 0.0211237 0)
(0.111981 -0.155625 0)
(-0.155819 0.220616 0)
(-0.290403 0.275543 0)
(-0.386599 0.260086 0)
(-0.460655 0.215095 0)
(-0.519096 0.170632 0)
(-0.568788 0.132204 0)
(-0.611319 0.100029 0)
(-0.646562 0.0709746 0)
(-0.670705 0.0396664 0)
(-0.674495 -0.000512443 0)
(-0.644265 -0.0547538 0)
(-0.57021 -0.121939 0)
(-0.455601 -0.190883 0)
(-0.317709 -0.24252 0)
(-0.194515 -0.25785 0)
(-0.121938 -0.235594 0)
(-0.0304347 -0.197236 0)
(-0.102413 -0.00523394 0)
(0.192646 -0.138331 0)
(-0.190069 0.319696 0)
(-0.33378 0.327058 0)
(-0.41294 0.293907 0)
(-0.478491 0.241683 0)
(-0.531738 0.192991 0)
(-0.57947 0.151659 0)
(-0.622068 0.11672 0)
(-0.657736 0.0836748 0)
(-0.679309 0.044939 0)
(-0.673171 -0.00829045 0)
(-0.62484 -0.0806938 0)
(-0.531525 -0.166006 0)
(-0.406334 -0.246401 0)
(-0.268255 -0.296356 0)
(-0.162378 -0.293059 0)
(-0.12796 -0.257319 0)
(-0.0613436 -0.212818 0)
(-0.143025 -0.10813 0)
(0.26636 -0.099558 0)
(-0.233882 0.443051 0)
(-0.383388 0.372573 0)
(-0.442045 0.322043 0)
(-0.497528 0.265012 0)
(-0.545493 0.213781 0)
(-0.591264 0.170673 0)
(-0.633545 0.133368 0)
(-0.667775 0.0954253 0)
(-0.682544 0.0465702 0)
(-0.661445 -0.0231544 0)
(-0.594285 -0.114685 0)
(-0.488242 -0.214797 0)
(-0.363451 -0.301584 0)
(-0.240003 -0.347207 0)
(-0.152995 -0.320452 0)
(-0.129644 -0.271088 0)
(-0.0686099 -0.230961 0)
(-0.17231 -0.165794 0)
(0.237451 -0.135824 0)
(-0.0109259 -0.0560668 0)
(-0.0146979 -0.0255825 0)
(-0.0210223 -0.00766522 0)
(-0.0265101 0.000992402 0)
(-0.032187 0.00286723 0)
(-0.0382969 -0.000137445 0)
(-0.044751 -0.00647587 0)
(-0.0512867 -0.0150186 0)
(-0.0576511 -0.0250116 0)
(-0.063683 -0.0359785 0)
(-0.0693228 -0.047619 0)
(-0.0746091 -0.0596892 0)
(-0.0796479 -0.0718499 0)
(-0.0845527 -0.0834438 0)
(-0.0893459 -0.0931205 0)
(-0.0938422 -0.0981706 0)
(-0.0976466 -0.0935219 0)
(-0.100205 -0.0710023 0)
(-0.100196 -0.021352 0)
(-0.0958411 0.0582598 0)
(-0.0841992 0.155483 0)
(-0.0552135 0.244058 0)
(0.0351912 0.273571 0)
(-0.0131604 -0.0429508 0)
(-0.0217308 -0.0155243 0)
(-0.0327962 0.000632056 0)
(-0.0432725 0.008937 0)
(-0.0536434 0.0110482 0)
(-0.0642517 0.00844785 0)
(-0.0752455 0.0024564 0)
(-0.086622 -0.00585977 0)
(-0.0983652 -0.0157165 0)
(-0.110516 -0.0265524 0)
(-0.123222 -0.0379617 0)
(-0.136748 -0.0496034 0)
(-0.151466 -0.0610807 0)
(-0.167827 -0.0717623 0)
(-0.186258 -0.0804788 0)
(-0.207 -0.0849697 0)
(-0.229882 -0.0809967 0)
(-0.253715 -0.0616197 0)
(-0.274642 -0.0188636 0)
(-0.285956 0.0493947 0)
(-0.282871 0.129271 0)
(-0.268998 0.19724 0)
(-0.278591 0.245666 0)
(-0.0154129 -0.0258417 0)
(-0.0284903 -0.000685569 0)
(-0.0442573 0.0140741 0)
(-0.0597037 0.0218413 0)
(-0.0748886 0.0239666 0)
(-0.0901353 0.0216768 0)
(-0.105725 0.0161332 0)
(-0.12182 0.0083432 0)
(-0.138569 -0.000869881 0)
(-0.156174 -0.0108665 0)
(-0.174943 -0.0211266 0)
(-0.195302 -0.0311775 0)
(-0.217819 -0.0404944 0)
(-0.243197 -0.0483601 0)
(-0.272224 -0.0536419 0)
(-0.305656 -0.0544226 0)
(-0.34398 -0.0474324 0)
(-0.386629 -0.0274284 0)
(-0.430246 0.012298 0)
(-0.469444 0.0753722 0)
(-0.501012 0.156975 0)
(-0.528887 0.245998 0)
(-0.568698 0.334037 0)
(-0.0178708 -0.00449338 0)
(-0.0352172 0.0189302 0)
(-0.0554658 0.0324541 0)
(-0.0755904 0.0395833 0)
(-0.0953345 0.0415478 0)
(-0.114957 0.039439 0)
(-0.134793 0.0343194 0)
(-0.155096 0.0271627 0)
(-0.176099 0.0188162 0)
(-0.198081 0.00999893 0)
(-0.221404 0.00134076 0)
(-0.246533 -0.00655787 0)
(-0.274052 -0.0130324 0)
(-0.304655 -0.0172424 0)
(-0.339105 -0.0180124 0)
(-0.378141 -0.0136047 0)
(-0.422217 -0.00142556 0)
(-0.470814 0.0222376 0)
(-0.521713 0.0618184 0)
(-0.570461 0.120268 0)
(-0.611388 0.19593 0)
(-0.640088 0.279399 0)
(-0.65393 0.354702 0)
(-0.0204331 0.0211149 0)
(-0.0417882 0.0430883 0)
(-0.0661764 0.0554137 0)
(-0.0905527 0.0617931 0)
(-0.114409 0.0634164 0)
(-0.137924 0.0613054 0)
(-0.16144 0.0564648 0)
(-0.185234 0.0498462 0)
(-0.209558 0.0423133 0)
(-0.234693 0.0346367 0)
(-0.260965 0.0275226 0)
(-0.288765 0.0216637 0)
(-0.31854 0.0178095 0)
(-0.350777 0.0168523 0)
(-0.38595 0.019933 0)
(-0.424421 0.0285657 0)
(-0.466211 0.0447577 0)
(-0.510522 0.0709689 0)
(-0.555086 0.10949 0)
(-0.595622 0.161062 0)
(-0.626276 0.222819 0)
(-0.641737 0.286948 0)
(-0.64 0.342245 0)
(-0.0228935 0.0507836 0)
(-0.0479561 0.0714297 0)
(-0.0760953 0.0824944 0)
(-0.104238 0.0879703 0)
(-0.131679 0.0890373 0)
(-0.158514 0.0866778 0)
(-0.185064 0.0818606 0)
(-0.211585 0.0755181 0)
(-0.238305 0.0685171 0)
(-0.265457 0.0616508 0)
(-0.293287 0.0556585 0)
(-0.322059 0.0512652 0)
(-0.352043 0.0492341 0)
(-0.383484 0.0504284 0)
(-0.416545 0.0558753 0)
(-0.451207 0.0668148 0)
(-0.487077 0.0846878 0)
(-0.523066 0.110936 0)
(-0.557047 0.146437 0)
(-0.585739 0.190589 0)
(-0.605284 0.240319 0)
(-0.612968 0.290112 0)
(-0.609694 0.333845 0)
(-0.0251361 0.0842851 0)
(-0.053538 0.10355 0)
(-0.0850019 0.113209 0)
(-0.116406 0.11758 0)
(-0.146886 0.117836 0)
(-0.176462 0.114928 0)
(-0.205413 0.109796 0)
(-0.233954 0.103354 0)
(-0.262267 0.0964562 0)
(-0.290518 0.0898943 0)
(-0.318865 0.0844066 0)
(-0.347453 0.0807085 0)
(-0.376399 0.0795302 0)
(-0.405762 0.081657 0)
(-0.435489 0.0879597 0)
(-0.465335 0.0993937 0)
(-0.494729 0.116924 0)
(-0.522613 0.141311 0)
(-0.547364 0.172715 0)
(-0.566953 0.210192 0)
(-0.579479 0.251344 0)
(-0.584157 0.29265 0)
(-0.582583 0.330614 0)
(-0.0270932 0.121236 0)
(-0.058426 0.138997 0)
(-0.0927721 0.147058 0)
(-0.126938 0.150095 0)
(-0.159934 0.149255 0)
(-0.191711 0.145464 0)
(-0.222496 0.139635 0)
(-0.25246 0.132658 0)
(-0.28173 0.125368 0)
(-0.31041 0.118538 0)
(-0.338585 0.112886 0)
(-0.366309 0.109097 0)
(-0.393597 0.107846 0)
(-0.420398 0.109829 0)
(-0.446555 0.115766 0)
(-0.471747 0.126382 0)
(-0.495427 0.142322 0)
(-0.51676 0.16398 0)
(-0.534678 0.191257 0)
(-0.54809 0.223303 0)
(-0.556224 0.258438 0)
(-0.559072 0.294447 0)
(-0.558007 0.329166 0)
(-0.0287357 0.161181 0)
(-0.0625788 0.177294 0)
(-0.0993695 0.183554 0)
(-0.135822 0.185012 0)
(-0.170856 0.182784 0)
(-0.204352 0.177764 0)
(-0.236494 0.170842 0)
(-0.267404 0.162883 0)
(-0.297163 0.154699 0)
(-0.325825 0.147039 0)
(-0.35342 0.140592 0)
(-0.379947 0.136005 0)
(-0.405366 0.133902 0)
(-0.429576 0.134896 0)
(-0.452393 0.139589 0)
(-0.473513 0.148547 0)
(-0.492489 0.16223 0)
(-0.508734 0.180875 0)
(-0.521595 0.204346 0)
(-0.530533 0.232008 0)
(-0.5353 0.262721 0)
(-0.536103 0.295057 0)
(-0.534044 0.327622 0)
(-0.0300635 0.203647 0)
(-0.0660054 0.217971 0)
(-0.104823 0.222232 0)
(-0.143126 0.221873 0)
(-0.179768 0.21797 0)
(-0.214573 0.211387 0)
(-0.247681 0.202991 0)
(-0.279174 0.193625 0)
(-0.309095 0.184079 0)
(-0.337462 0.175076 0)
(-0.364272 0.167281 0)
(-0.389494 0.161306 0)
(-0.413064 0.15773 0)
(-0.434872 0.157101 0)
(-0.454742 0.15994 0)
(-0.472421 0.16671 0)
(-0.48757 0.177774 0)
(-0.499786 0.193317 0)
(-0.508676 0.213254 0)
(-0.51399 0.237161 0)
(-0.515699 0.264287 0)
(-0.514045 0.293724 0)
(-0.509956 0.324607 0)
(-0.0310957 0.248174 0)
(-0.068748 0.260583 0)
(-0.109205 0.262665 0)
(-0.148963 0.260268 0)
(-0.186837 0.254424 0)
(-0.222603 0.245968 0)
(-0.256363 0.235749 0)
(-0.288168 0.224594 0)
(-0.318031 0.213271 0)
(-0.345949 0.202486 0)
(-0.3719 0.192879 0)
(-0.39584 0.185039 0)
(-0.4177 0.179506 0)
(-0.437376 0.176786 0)
(-0.454717 0.177337 0)
(-0.469519 0.181563 0)
(-0.481524 0.189775 0)
(-0.490448 0.202152 0)
(-0.496039 0.21868 0)
(-0.498182 0.239116 0)
(-0.496928 0.263004 0)
(-0.492499 0.289822 0)
(-0.485689 0.319117 0)
(-0.0318607 0.294329 0)
(-0.0708664 0.304724 0)
(-0.112609 0.304468 0)
(-0.153469 0.299834 0)
(-0.192246 0.291809 0)
(-0.228677 0.281207 0)
(-0.262835 0.268861 0)
(-0.294746 0.255586 0)
(-0.324407 0.242136 0)
(-0.351799 0.229203 0)
(-0.376892 0.217411 0)
(-0.399641 0.207326 0)
(-0.41998 0.199468 0)
(-0.437816 0.194303 0)
(-0.453023 0.19225 0)
(-0.465431 0.193668 0)
(-0.474834 0.198841 0)
(-0.481011 0.207955 0)
(-0.483775 0.221067 0)
(-0.483058 0.238082 0)
(-0.478922 0.258781 0)
(-0.471531 0.282945 0)
(-0.461543 0.310448 0)
(-0.0323909 0.341724 0)
(-0.0724265 0.350024 0)
(-0.115132 0.347295 0)
(-0.156777 0.340252 0)
(-0.196167 0.329839 0)
(-0.233007 0.316854 0)
(-0.267349 0.302124 0)
(-0.299204 0.286455 0)
(-0.328559 0.270594 0)
(-0.355389 0.25522 0)
(-0.379664 0.240948 0)
(-0.401339 0.22833 0)
(-0.420358 0.217865 0)
(-0.436639 0.209991 0)
(-0.450071 0.205094 0)
(-0.460508 0.203497 0)
(-0.467768 0.205461 0)
(-0.471654 0.21118 0)
(-0.471993 0.220768 0)
(-0.468711 0.234254 0)
(-0.461836 0.251609 0)
(-0.451445 0.272858 0)
(-0.438024 0.298115 0)
(-0.0327177 0.390012 0)
(-0.0734916 0.396155 0)
(-0.116868 0.390837 0)
(-0.159009 0.381233 0)
(-0.198745 0.368255 0)
(-0.235761 0.35269 0)
(-0.270094 0.335366 0)
(-0.30175 0.317084 0)
(-0.33071 0.298588 0)
(-0.356953 0.280551 0)
(-0.380452 0.263579 0)
(-0.401169 0.248215 0)
(-0.419056 0.234938 0)
(-0.434041 0.224164 0)
(-0.446024 0.216244 0)
(-0.45487 0.211467 0)
(-0.460403 0.210069 0)
(-0.462425 0.212241 0)
(-0.460746 0.218137 0)
(-0.455249 0.227883 0)
(-0.445891 0.241605 0)
(-0.432636 0.259511 0)
(-0.415763 0.281868 0)
(-0.0328687 0.438889 0)
(-0.0741159 0.442818 0)
(-0.117889 0.434809 0)
(-0.160254 0.422511 0)
(-0.200083 0.406817 0)
(-0.237048 0.388512 0)
(-0.271183 0.368425 0)
(-0.30249 0.347362 0)
(-0.330958 0.326065 0)
(-0.356572 0.305204 0)
(-0.379313 0.28538 0)
(-0.399156 0.267124 0)
(-0.416062 0.2509 0)
(-0.42997 0.237098 0)
(-0.440787 0.226037 0)
(-0.448382 0.217964 0)
(-0.452579 0.213082 0)
(-0.453164 0.211564 0)
(-0.449914 0.213581 0)
(-0.442646 0.219329 0)
(-0.431221 0.229048 0)
(-0.41546 0.243074 0)
(-0.395402 0.261745 0)
(-0.032866 0.488083 0)
(-0.0743401 0.489738 0)
(-0.118247 0.478938 0)
(-0.16057 0.463828 0)
(-0.200234 0.445287 0)
(-0.236913 0.424107 0)
(-0.270639 0.401126 0)
(-0.301423 0.377156 0)
(-0.329265 0.352941 0)
(-0.354163 0.329151 0)
(-0.376114 0.306381 0)
(-0.395109 0.285152 0)
(-0.411121 0.265912 0)
(-0.424103 0.249022 0)
(-0.433971 0.234762 0)
(-0.440598 0.223338 0)
(-0.44381 0.214904 0)
(-0.443379 0.209599 0)
(-0.439047 0.207588 0)
(-0.430563 0.209094 0)
(-0.417674 0.214429 0)
(-0.40004 0.224001 0)
(-0.377429 0.238144 0)
(-0.0327247 0.537347 0)
(-0.0741873 0.536651 0)
(-0.117965 0.522954 0)
(-0.159971 0.504915 0)
(-0.199198 0.48341 0)
(-0.235327 0.459239 0)
(-0.268398 0.433258 0)
(-0.298436 0.406287 0)
(-0.325457 0.379077 0)
(-0.349481 0.352298 0)
(-0.370527 0.326541 0)
(-0.388606 0.302317 0)
(-0.403714 0.28005 0)
(-0.415818 0.260075 0)
(-0.424849 0.24263 0)
(-0.430695 0.227871 0)
(-0.433188 0.2159 0)
(-0.432107 0.206805 0)
(-0.427179 0.200713 0)
(-0.4181 0.197833 0)
(-0.404522 0.198487 0)
(-0.38594 0.203091 0)
(-0.361843 0.211917 0)
(-0.0324522 0.586444 0)
(-0.0736613 0.58329 0)
(-0.117035 0.566576 0)
(-0.15843 0.545486 0)
(-0.196915 0.520899 0)
(-0.232189 0.493631 0)
(-0.264303 0.464556 0)
(-0.2933 0.434511 0)
(-0.319223 0.404256 0)
(-0.342117 0.374461 0)
(-0.362032 0.345716 0)
(-0.379006 0.318518 0)
(-0.393061 0.293271 0)
(-0.404189 0.270274 0)
(-0.412344 0.249724 0)
(-0.417438 0.231729 0)
(-0.419331 0.216334 0)
(-0.41783 0.203569 0)
(-0.412681 0.193502 0)
(-0.403579 0.186282 0)
(-0.390129 0.182173 0)
(-0.371712 0.181517 0)
(-0.347586 0.184457 0)
(-0.0320488 0.635135 0)
(-0.0727471 0.629375 0)
(-0.115421 0.609499 0)
(-0.155878 0.585222 0)
(-0.193275 0.557424 0)
(-0.227331 0.526944 0)
(-0.258113 0.494682 0)
(-0.28569 0.461494 0)
(-0.310132 0.428153 0)
(-0.331522 0.395336 0)
(-0.349942 0.363626 0)
(-0.365469 0.33351 0)
(-0.378156 0.305365 0)
(-0.388029 0.279459 0)
(-0.395075 0.255947 0)
(-0.399245 0.234891 0)
(-0.400444 0.216286 0)
(-0.398532 0.200108 0)
(-0.393315 0.186354 0)
(-0.384539 0.175089 0)
(-0.371839 0.16646 0)
(-0.354585 0.160654 0)
(-0.33194 0.157611 0)
(-0.0315088 0.683163 0)
(-0.0714142 0.674604 0)
(-0.113061 0.651388 0)
(-0.152213 0.623758 0)
(-0.188122 0.592597 0)
(-0.220527 0.558771 0)
(-0.249519 0.52321 0)
(-0.275194 0.486798 0)
(-0.297658 0.450325 0)
(-0.317036 0.414478 0)
(-0.333452 0.379838 0)
(-0.347026 0.346874 0)
(-0.357853 0.315941 0)
(-0.366002 0.287273 0)
(-0.371507 0.260988 0)
(-0.374371 0.23711 0)
(-0.37456 0.215596 0)
(-0.372006 0.196373 0)
(-0.366597 0.179381 0)
(-0.358165 0.164592 0)
(-0.346439 0.152016 0)
(-0.330877 0.141642 0)
(-0.310727 0.133165 0)
(-0.0308242 0.730247 0)
(-0.0696232 0.718644 0)
(-0.109879 0.691869 0)
(-0.147311 0.660681 0)
(-0.181268 0.625965 0)
(-0.211516 0.588621 0)
(-0.238169 0.549618 0)
(-0.261355 0.509873 0)
(-0.281227 0.470203 0)
(-0.297955 0.431306 0)
(-0.311717 0.393761 0)
(-0.322683 0.358025 0)
(-0.331003 0.324426 0)
(-0.336804 0.293171 0)
(-0.340181 0.264345 0)
(-0.341204 0.237941 0)
(-0.339912 0.213886 0)
(-0.336314 0.192072 0)
(-0.330385 0.172389 0)
(-0.322048 0.154732 0)
(-0.31114 0.138983 0)
(-0.297255 0.124943 0)
(-0.279833 0.112086 0)
(-0.029988 0.776079 0)
(-0.0673344 0.76113 0)
(-0.105791 0.730526 0)
(-0.141036 0.695522 0)
(-0.172513 0.657006 0)
(-0.200019 0.615921 0)
(-0.223695 0.573287 0)
(-0.243712 0.530064 0)
(-0.260273 0.4871 0)
(-0.273606 0.44511 0)
(-0.283952 0.404676 0)
(-0.291547 0.366243 0)
(-0.296615 0.33012 0)
(-0.299358 0.296486 0)
(-0.299951 0.2654 0)
(-0.298546 0.236828 0)
(-0.295259 0.210668 0)
(-0.290177 0.186781 0)
(-0.283346 0.165014 0)
(-0.274765 0.145193 0)
(-0.26436 0.127097 0)
(-0.251855 0.110378 0)
(-0.236885 0.0943493 0)
(-0.028998 0.820329 0)
(-0.0645155 0.801661 0)
(-0.100721 0.766895 0)
(-0.13326 0.727753 0)
(-0.161668 0.685129 0)
(-0.185776 0.640021 0)
(-0.205761 0.593513 0)
(-0.221847 0.546622 0)
(-0.234301 0.500235 0)
(-0.243421 0.45509 0)
(-0.249526 0.411778 0)
(-0.25294 0.370738 0)
(-0.253982 0.332267 0)
(-0.252954 0.296519 0)
(-0.250134 0.263528 0)
(-0.24576 0.233226 0)
(-0.240033 0.205476 0)
(-0.233099 0.180101 0)
(-0.225059 0.156898 0)
(-0.215959 0.135635 0)
(-0.205785 0.116004 0)
(-0.194361 0.0975482 0)
(-0.18148 0.0794871 0)
(-0.027858 0.862654 0)
(-0.0611472 0.839803 0)
(-0.0946109 0.800468 0)
(-0.123878 0.756792 0)
(-0.148573 0.70968 0)
(-0.168571 0.660202 0)
(-0.184097 0.609526 0)
(-0.195442 0.558736 0)
(-0.20295 0.50877 0)
(-0.207006 0.460399 0)
(-0.208029 0.414231 0)
(-0.206457 0.370713 0)
(-0.202733 0.330133 0)
(-0.197288 0.292624 0)
(-0.190513 0.258181 0)
(-0.182746 0.226689 0)
(-0.174255 0.197957 0)
(-0.165236 0.17175 0)
(-0.155813 0.147806 0)
(-0.146048 0.125831 0)
(-0.135955 0.105453 0)
(-0.125428 0.0861398 0)
(-0.114378 0.0670761 0)
(-0.0265752 0.902709 0)
(-0.0572252 0.875095 0)
(-0.0874267 0.830699 0)
(-0.112824 0.782012 0)
(-0.133128 0.729957 0)
(-0.148268 0.675701 0)
(-0.158538 0.620513 0)
(-0.164309 0.565564 0)
(-0.16602 0.511849 0)
(-0.164162 0.460187 0)
(-0.15928 0.41122 0)
(-0.151957 0.365415 0)
(-0.142795 0.323058 0)
(-0.132377 0.284252 0)
(-0.121224 0.248931 0)
(-0.10977 0.216905 0)
(-0.0983388 0.187898 0)
(-0.087147 0.161589 0)
(-0.076311 0.137641 0)
(-0.0658767 0.115697 0)
(-0.0558488 0.0953344 0)
(-0.046157 0.0759823 0)
(-0.0367973 0.0568402 0)
(-0.0251559 0.940154 0)
(-0.0527619 0.907057 0)
(-0.0791705 0.857018 0)
(-0.10009 0.802759 0)
(-0.11531 0.745232 0)
(-0.124834 0.68573 0)
(-0.129041 0.62565 0)
(-0.128405 0.566257 0)
(-0.123473 0.508621 0)
(-0.114865 0.453624 0)
(-0.10328 0.401965 0)
(-0.0894822 0.354149 0)
(-0.0742699 0.310464 0)
(-0.0584083 0.270962 0)
(-0.0425638 0.235483 0)
(-0.0272577 0.203712 0)
(-0.0128521 0.175243 0)
(0.000449931 0.149635 0)
(0.0125778 0.126456 0)
(0.0235433 0.105287 0)
(0.033386 0.0856727 0)
(0.0421804 0.0670415 0)
(0.0498624 0.048656 0)
(-0.0236045 0.97466 0)
(-0.0477906 0.935212 0)
(-0.0698921 0.878857 0)
(-0.0857418 0.818379 0)
(-0.0951903 0.754772 0)
(-0.0983354 0.689501 0)
(-0.0956673 0.624112 0)
(-0.0877855 0.559976 0)
(-0.0753663 0.498247 0)
(-0.0591762 0.439898 0)
(-0.0400949 0.385719 0)
(-0.0191119 0.336274 0)
(0.00273345 0.291845 0)
(0.0244521 0.252406 0)
(0.0452126 0.217651 0)
(0.0644109 0.187074 0)
(0.0816776 0.160078 0)
(0.0968607 0.13606 0)
(0.109984 0.114467 0)
(0.12117 0.0948136 0)
(0.130548 0.0766362 0)
(0.138236 0.0594068 0)
(0.144123 0.042497 0)
(-0.0219306 1.00591 0)
(-0.042377 0.959114 0)
(-0.0597034 0.895679 0)
(-0.0699246 0.828234 0)
(-0.0729128 0.757847 0)
(-0.0688836 0.686212 0)
(-0.0584868 0.615059 0)
(-0.0424893 0.54587 0)
(-0.021713 0.47989 0)
(0.00291851 0.418201 0)
(0.0303169 0.361726 0)
(0.0592168 0.311133 0)
(0.088271 0.266707 0)
(0.116209 0.228297 0)
(0.142007 0.19536 0)
(0.164983 0.167107 0)
(0.184801 0.142668 0)
(0.201422 0.121222 0)
(0.215029 0.102067 0)
(0.22592 0.0846573 0)
(0.234369 0.0685471 0)
(0.240577 0.0533008 0)
(0.244421 0.0384629 0)
(-0.02015 1.03363 0)
(-0.0366219 0.978391 0)
(-0.0487778 0.907011 0)
(-0.0528299 0.8317 0)
(-0.0485965 0.753682 0)
(-0.0364662 0.67499 0)
(-0.0173489 0.59759 0)
(0.00773753 0.523051 0)
(0.0378004 0.452662 0)
(0.0717679 0.387657 0)
(0.108325 0.329181 0)
(0.145877 0.278064 0)
(0.182686 0.234596 0)
(0.217124 0.198431 0)
(0.247928 0.168675 0)
(0.274351 0.144122 0)
(0.296152 0.123511 0)
(0.313487 0.105728 0)
(0.326788 0.0899007 0)
(0.336612 0.07543 0)
(0.343447 0.0619296 0)
(0.347624 0.0491205 0)
(0.349033 0.0367976 0)
(-0.0182856 1.05755 0)
(-0.0306204 0.99278 0)
(-0.0372898 0.912421 0)
(-0.0345504 0.828074 0)
(-0.0220748 0.741321 0)
(-0.000555556 0.654755 0)
(0.0286028 0.570625 0)
(0.0639604 0.490491 0)
(0.104296 0.415622 0)
(0.148439 0.3474 0)
(0.194908 0.287295 0)
(0.24175 0.236429 0)
(0.286734 0.195125 0)
(0.327761 0.162753 0)
(0.363269 0.137891 0)
(0.392466 0.118715 0)
(0.415295 0.103417 0)
(0.432235 0.090502 0)
(0.444089 0.078901 0)
(0.451774 0.06799 0)
(0.456072 0.0575076 0)
(0.457489 0.0474179 0)
(0.455948 0.0378636 0)
(-0.0163159 1.07723 0)
(-0.0243057 1.00216 0)
(-0.025212 0.911428 0)
(-0.0147256 0.816358 0)
(0.00766168 0.719343 0)
(0.0406465 0.623903 0)
(0.0818312 0.532686 0)
(0.128932 0.447035 0)
(0.180441 0.367886 0)
(0.235307 0.296693 0)
(0.292092 0.235437 0)
(0.34851 0.185772 0)
(0.401711 0.148147 0)
(0.448965 0.121531 0)
(0.488342 0.1037 0)
(0.519053 0.0919281 0)
(0.541378 0.0836464 0)
(0.556298 0.0768756 0)
(0.565135 0.0703489 0)
(0.569285 0.0634713 0)
(0.569906 0.0562066 0)
(0.567715 0.0488765 0)
(0.562659 0.0421024 0)
(-0.013552 1.09233 0)
(-0.0168121 1.00658 0)
(-0.0118062 0.903243 0)
(0.00818332 0.794845 0)
(0.0434509 0.685287 0)
(0.0914651 0.579814 0)
(0.147768 0.481705 0)
(0.208421 0.391449 0)
(0.271607 0.308897 0)
(0.336935 0.235308 0)
(0.403541 0.17351 0)
(0.468954 0.12618 0)
(0.52953 0.0941033 0)
(0.581696 0.0756954 0)
(0.623091 0.0675197 0)
(0.653068 0.0655286 0)
(0.672485 0.0661169 0)
(0.683083 0.0667177 0)
(0.686874 0.0659219 0)
(0.68582 0.0632756 0)
(0.681502 0.0591014 0)
(0.674865 0.0542294 0)
(0.665813 0.049928 0)
(-0.00884169 1.09995 0)
(-0.00590034 1.0059 0)
(0.00536046 0.886242 0)
(0.0380946 0.760417 0)
(0.0913841 0.634794 0)
(0.160451 0.518102 0)
(0.236648 0.414732 0)
(0.312885 0.322708 0)
(0.387183 0.239054 0)
(0.460992 0.164245 0)
(0.53511 0.102655 0)
(0.607183 0.0589823 0)
(0.67254 0.0347425 0)
(0.72648 0.0275335 0)
(0.766241 0.0320491 0)
(0.791645 0.0424103 0)
(0.804519 0.0536479 0)
(0.80771 0.0625174 0)
(0.804072 0.0676368 0)
(0.796099 0.068931 0)
(0.785724 0.067251 0)
(0.774052 0.0640984 0)
(0.760823 0.0615708 0)
(-0.000107874 1.09878 0)
(0.0147196 0.997122 0)
(0.0324032 0.856967 0)
(0.0830075 0.70779 0)
(0.162378 0.560688 0)
(0.262011 0.43186 0)
(0.364989 0.327915 0)
(0.458434 0.240703 0)
(0.540877 0.160831 0)
(0.618018 0.0869253 0)
(0.694279 0.0262993 0)
(0.767782 -0.0123951 0)
(0.832285 -0.0260782 0)
(0.881681 -0.0183124 0)
(0.91326 0.00220547 0)
(0.928095 0.0271274 0)
(0.929418 0.0501573 0)
(0.921527 0.0673221 0)
(0.908205 0.0776038 0)
(0.892176 0.0817408 0)
(0.875358 0.0813319 0)
(0.85879 0.0786825 0)
(0.841793 0.0768911 0)
(0.0208353 1.07744 0)
(0.058165 0.985787 0)
(0.0838353 0.811526 0)
(0.157303 0.62954 0)
(0.273092 0.452952 0)
(0.415999 0.312124 0)
(0.55367 0.217819 0)
(0.663304 0.147605 0)
(0.745939 0.0802034 0)
(0.816192 0.0106054 0)
(0.884742 -0.0485013 0)
(0.949773 -0.0806864 0)
(1.00331 -0.080467 0)
(1.03773 -0.0533279 0)
(1.05135 -0.0140866 0)
(1.04806 0.0260625 0)
(1.03255 0.0601471 0)
(1.01052 0.0838291 0)
(0.986658 0.0969347 0)
(0.963244 0.101714 0)
(0.941432 0.100642 0)
(0.921676 0.0969786 0)
(0.902394 0.0948256 0)
(0.0769508 0.987636 0)
(0.138995 0.965394 0)
(0.183905 0.751468 0)
(0.2837 0.525552 0)
(0.444419 0.308009 0)
(0.640394 0.159182 0)
(0.814305 0.092014 0)
(0.929043 0.053151 0)
(0.993772 0.00866031 0)
(1.03924 -0.053252 0)
(1.08384 -0.109468 0)
(1.12501 -0.132625 0)
(1.15424 -0.116921 0)
(1.16415 -0.0670479 0)
(1.15154 -0.00850285 0)
(1.12439 0.0451377 0)
(1.09009 0.0868354 0)
(1.05479 0.111913 0)
(1.02347 0.123217 0)
(0.99702 0.125675 0)
(0.97504 0.121701 0)
(0.956506 0.115595 0)
(0.938291 0.113246 0)
(0.165311 0.839307 0)
(0.280875 0.913292 0)
(0.358012 0.654068 0)
(0.478491 0.340359 0)
(0.685916 0.0438687 0)
(0.92714 -0.102188 0)
(1.10583 -0.0684136 0)
(1.1757 -0.0166037 0)
(1.1748 -0.0100419 0)
(1.18222 -0.0841541 0)
(1.19505 -0.14805 0)
(1.20029 -0.155732 0)
(1.20972 -0.126749 0)
(1.2011 -0.0553329 0)
(1.16315 0.0190588 0)
(1.11678 0.0804638 0)
(1.07089 0.125096 0)
(1.03142 0.145643 0)
(1.00312 0.148345 0)
(0.98438 0.143744 0)
(0.97187 0.135731 0)
(0.962319 0.127231 0)
(0.952935 0.124074 0)
(0.211386 0.545299 0)
(0.432266 0.806306 0)
(0.558201 0.594832 0)
(0.688343 0.226678 0)
(0.875591 -0.130088 0)
(1.0782 -0.269253 0)
(1.16077 -0.132083 0)
(1.14789 -0.0332905 0)
(1.13801 -0.0366603 0)
(1.13158 -0.0974745 0)
(1.10655 -0.135264 0)
(1.06288 -0.138041 0)
(1.05914 -0.0989525 0)
(1.06599 0.0254618 0)
(1.0293 0.114426 0)
(0.981921 0.18609 0)
(0.947045 0.241235 0)
(0.926658 0.25039 0)
(0.921424 0.241927 0)
(0.926765 0.218096 0)
(0.934869 0.204206 0)
(0.940163 0.187267 0)
(0.940149 0.191816 0)
(0.147092 0.19957 0)
(0.397462 0.54894 0)
(0.549932 0.480387 0)
(0.664992 0.129804 0)
(0.855804 -0.333913 0)
(0.942827 -0.395182 0)
(0.962562 -0.140584 0)
(0.939095 -0.000216916 0)
(0.903105 0.0471931 0)
(0.83219 0.00895098 0)
(0.669113 0.0047742 0)
(0.618839 -0.136842 0)
(0.696398 -0.23427 0)
(0.749908 -0.00327486 0)
(0.696871 0.111082 0)
(0.677671 0.133848 0)
(0.69707 0.132592 0)
(0.736093 0.116295 0)
(0.781083 0.10033 0)
(0.827904 0.0849204 0)
(0.87107 0.0831822 0)
(0.903995 0.0872977 0)
(0.926857 0.0917556 0)
(0.00144931 -0.0322348 0)
(0.212062 0.369085 0)
(0.36188 0.308941 0)
(0.443897 -0.113824 0)
(0.537986 -0.49058 0)
(0.61922 -0.340556 0)
(0.623766 -0.0294314 0)
(0.551119 0.0669141 0)
(0.512569 0.0380719 0)
(0.527617 0.0244907 0)
(0.517072 0.037446 0)
(0.506609 -0.127792 0)
(0.555863 -0.238302 0)
(0.602525 -0.0244399 0)
(0.630577 0.0892028 0)
(0.663385 0.119968 0)
(0.704851 0.11861 0)
(0.750096 0.0987941 0)
(0.793414 0.0854853 0)
(0.833152 0.0693202 0)