/*--------------------------------*- C++ -*----------------------------------*\
  =========                 |
  \\      /  F ield         | OpenFOAM: The Open Source CFD Toolbox
   \\    /   O peration     | Website:  https://openfoam.org
    \\  /    A nd           | Version:  9
     \\/     M anipulation  |
\*---------------------------------------------------------------------------*/
FoamFile
{
    format      ascii;
    class       volVectorField;
    location    "0.125";
    object      U;
}
// * * * * * * * * * * * * * * * * * * * * * * * * * * * * * * * * * * * * * //

dimensions      [0 1 -1 0 0 0 0];

internalField   nonuniform List<vector> 
900
(
(0.000359351 -0.00035764 0)
(0.000676311 -0.000168544 0)
(3.52388e-05 0.000248814 0)
(-0.00168619 0.000642582 0)
(-0.00434603 0.000950086 0)
(-0.00770668 0.0011611 0)
(-0.0115192 0.00128206 0)
(-0.0155502 0.00132442 0)
(-0.0195901 0.00129951 0)
(-0.0234537 0.00121701 0)
(-0.0269786 0.00108488 0)
(-0.030023 0.000909798 0)
(-0.032465 0.000697839 0)
(-0.0342026 0.000455258 0)
(-0.0351558 0.000189167 0)
(-0.0352698 -9.19188e-05 0)
(-0.0345195 -0.000377723 0)
(-0.0329137 -0.000656112 0)
(-0.0305 -0.000913269 0)
(-0.027368 -0.00113415 0)
(-0.0236507 -0.00130323 0)
(-0.0195238 -0.00140547 0)
(-0.0152014 -0.00142739 0)
(-0.0109291 -0.00135813 0)
(-0.00697229 -0.00119068 0)
(-0.00360177 -0.00092388 0)
(-0.00107182 -0.000566894 0)
(0.000417346 -0.000149419 0)
(0.000815264 0.000246768 0)
(0.000374601 0.000371082 0)
(0.000187147 -0.000688782 0)
(-0.00051311 0.000537591 0)
(-0.00349327 0.00249262 0)
(-0.00879124 0.00436965 0)
(-0.0161148 0.00589454 0)
(-0.025007 0.00697892 0)
(-0.0349365 0.00761496 0)
(-0.0453662 0.00783104 0)
(-0.0557878 0.0076679 0)
(-0.0657365 0.0071681 0)
(-0.0747955 0.00637245 0)
(-0.0825985 0.00532006 0)
(-0.0888312 0.00405002 0)
(-0.0932345 0.00260394 0)
(-0.0956104 0.00102847 0)
(-0.0958296 -0.000622618 0)
(-0.0938407 -0.00228718 0)
(-0.0896801 -0.00389469 0)
(-0.0834805 -0.00536757 0)
(-0.0754767 -0.00662398 0)
(-0.0660068 -0.00758202 0)
(-0.0555073 -0.00816512 0)
(-0.0445004 -0.00830835 0)
(-0.033573 -0.00796535 0)
(-0.0233455 -0.00711635 0)
(-0.0144295 -0.00577956 0)
(-0.00736751 -0.00403083 0)
(-0.00254828 -0.00203832 0)
(-9.68293e-05 -0.000148735 0)
(0.000270796 0.000823036 0)
(-0.000218742 -8.72657e-05 0)
(-0.00248523 0.00350943 0)
(-0.00829772 0.00820789 0)
(-0.0173133 0.0126779 0)
(-0.0290325 0.0163528 0)
(-0.0428437 0.0189967 0)
(-0.0580278 0.0205486 0)
(-0.0738388 0.0210421 0)
(-0.089556 0.0205543 0)
(-0.104508 0.0191793 0)
(-0.118088 0.0170171 0)
(-0.129755 0.0141704 0)
(-0.13905 0.0107463 0)
(-0.145593 0.00686071 0)
(-0.149099 0.002643 0)
(-0.149384 -0.00175981 0)
(-0.146381 -0.00618116 0)
(-0.140154 -0.0104355 0)
(-0.1309 -0.0143222 0)
(-0.118967 -0.0176329 0)
(-0.104846 -0.0201626 0)
(-0.0891631 -0.021723 0)
(-0.0726638 -0.0221599 0)
(-0.0561779 -0.0213707 0)
(-0.0405748 -0.0193264 0)
(-0.0267034 -0.0160991 0)
(-0.0153079 -0.0119008 0)
(-0.00692552 -0.00714212 0)
(-0.00184739 -0.00254539 0)
(-7.82072e-05 0.00050353 0)
(-0.000630771 0.00162763 0)
(-0.00455294 0.00895158 0)
(-0.0133429 0.0173297 0)
(-0.0261154 0.0250947 0)
(-0.0420854 0.0314392 0)
(-0.0604776 0.0359857 0)
(-0.0804135 0.0386146 0)
(-0.100985 0.0393596 0)
(-0.121313 0.0383355 0)
(-0.140574 0.0356967 0)
(-0.158015 0.0316167 0)
(-0.172969 0.0262811 0)
(-0.184864 0.0198883 0)
(-0.193231 0.0126553 0)
(-0.197715 0.00482393 0)
(-0.198092 -0.00333299 0)
(-0.194281 -0.0115095 0)
(-0.18636 -0.0193679 0)
(-0.174576 -0.0265467 0)
(-0.159354 -0.0326734 0)
(-0.141294 -0.037384 0)
(-0.121164 -0.0403481 0)
(-0.0998742 -0.0412981 0)
(-0.0784373 -0.0400625 0)
(-0.0579183 -0.036603 0)
(-0.0393623 -0.0310583 0)
(-0.0236996 -0.023799 0)
(-0.0116408 -0.0154946 0)
(-0.00373458 -0.00722506 0)
(-0.000442543 -0.000811901 0)
(-0.00100265 0.00442899 0)
(-0.00652446 0.0168608 0)
(-0.0182633 0.0298005 0)
(-0.0347403 0.0414275 0)
(-0.0548353 0.0507898 0)
(-0.0775858 0.0574167 0)
(-0.101956 0.0611517 0)
(-0.126897 0.0620387 0)
(-0.1514 0.060237 0)
(-0.174524 0.055969 0)
(-0.195411 0.049492 0)
(-0.213294 0.0410875 0)
(-0.227519 0.0310608 0)
(-0.237544 0.0197476 0)
(-0.242962 0.00752249 0)
(-0.243512 -0.0051945 0)
(-0.239094 -0.0179344 0)
(-0.229788 -0.0301828 0)
(-0.215868 -0.0413908 0)
(-0.197806 -0.0509952 0)
(-0.17628 -0.0584466 0)
(-0.15216 -0.0632472 0)
(-0.126482 -0.0649945 0)
(-0.100413 -0.0634309 0)
(-0.0751906 -0.0584971 0)
(-0.0520511 -0.0503908 0)
(-0.0321263 -0.0396303 0)
(-0.0163399 -0.0271204 0)
(-0.00556173 -0.014241 0)
(-0.000771309 -0.00312043 0)
(-0.00133267 0.00822964 0)
(-0.00835899 0.027149 0)
(-0.0229432 0.045554 0)
(-0.0430202 0.0616027 0)
(-0.067114 0.0742927 0)
(-0.0940563 0.0831225 0)
(-0.122647 0.0879375 0)
(-0.151704 0.0888153 0)
(-0.180108 0.0859752 0)
(-0.206822 0.0797191 0)
(-0.230904 0.0703984 0)
(-0.251517 0.0584005 0)
(-0.267938 0.0441486 0)
(-0.279572 0.0281088 0)
(-0.285965 0.0108006 0)
(-0.286817 -0.00719446 0)
(-0.282003 -0.025229 0)
(-0.271589 -0.0425939 0)
(-0.255852 -0.0585332 0)
(-0.235286 -0.0722697 0)
(-0.210616 -0.0830439 0)
(-0.182785 -0.0901635 0)
(-0.152935 -0.0930633 0)
(-0.12237 -0.0913725 0)
(-0.0924985 -0.0849853 0)
(-0.0647616 -0.074133 0)
(-0.0405222 -0.0594551 0)
(-0.0209592 -0.0420564 0)
(-0.00730356 -0.0235673 0)
(-0.00106368 -0.00635265 0)
(-0.00162984 0.0129468 0)
(-0.0100677 0.0396955 0)
(-0.0273746 0.0644743 0)
(-0.0509279 0.0855075 0)
(-0.0788948 0.101824 0)
(-0.10989 0.112957 0)
(-0.142544 0.118801 0)
(-0.175543 0.1195 0)
(-0.207668 0.115357 0)
(-0.237802 0.106768 0)
(-0.264938 0.0941908 0)
(-0.288182 0.0781266 0)
(-0.306763 0.0591231 0)
(-0.320039 0.0377827 0)
(-0.327511 0.0147758 0)
(-0.32884 -0.00914799 0)
(-0.323863 -0.0331544 0)
(-0.312615 -0.0563283 0)
(-0.295351 -0.0776908 0)
(-0.272564 -0.0962307 0)
(-0.244995 -0.110952 0)
(-0.213638 -0.120935 0)
(-0.179724 -0.125418 0)
(-0.144687 -0.123877 0)
(-0.110117 -0.116119 0)
(-0.0776809 -0.102371 0)
(-0.049008 -0.0833561 0)
(-0.0255739 -0.0603431 0)
(-0.00900315 -0.0351818 0)
(-0.00133405 -0.0104565 0)
(-0.00190449 0.0185163 0)
(-0.011678 0.054386 0)
(-0.0315925 0.0864358 0)
(-0.058499 0.113015 0)
(-0.0902145 0.133253 0)
(-0.125133 0.146781 0)
(-0.161715 0.153594 0)
(-0.198517 0.153942 0)
(-0.234229 0.148239 0)
(-0.267666 0.136996 0)
(-0.297771 0.120786 0)
(-0.323608 0.100234 0)
(-0.344367 0.0760149 0)
(-0.359368 0.0488672 0)
(-0.368072 0.0196119 0)
(-0.370091 -0.0108337 0)
(-0.365214 -0.0414468 0)
(-0.353425 -0.0711008 0)
(-0.334936 -0.0985828 0)
(-0.310206 -0.122628 0)
(-0.279969 -0.141976 0)
(-0.245242 -0.155445 0)
(-0.207328 -0.162027 0)
(-0.16779 -0.160994 0)
(-0.128407 -0.152013 0)
(-0.0910981 -0.135252 0)
(-0.0577993 -0.111473 0)
(-0.0303251 -0.0820766 0)
(-0.0107308 -0.0491171 0)
(-0.00160082 -0.0154189 0)
(-0.00216487 0.0248927 0)
(-0.0132168 0.0711263 0)
(-0.0356406 0.111324 0)
(-0.0657847 0.144004 0)
(-0.101125 0.168455 0)
(-0.139835 0.184466 0)
(-0.180208 0.192186 0)
(-0.220676 0.192015 0)
(-0.259845 0.184509 0)
(-0.296478 0.170315 0)
(-0.329478 0.150139 0)
(-0.357883 0.124731 0)
(-0.380858 0.094893 0)
(-0.397692 0.0614978 0)
(-0.407804 0.0255091 0)
(-0.410759 -0.0119955 0)
(-0.406281 -0.0498103 0)
(-0.394287 -0.0865984 0)
(-0.374915 -0.120906 0)
(-0.348562 -0.151199 0)
(-0.31592 -0.175921 0)
(-0.278004 -0.193586 0)
(-0.236167 -0.202883 0)
(-0.192089 -0.202814 0)
(-0.147747 -0.192836 0)
(-0.10534 -0.172992 0)
(-0.067149 -0.144026 0)
(-0.0353782 -0.107438 0)
(-0.0125641 -0.0654825 0)
(-0.00188217 -0.0212699 0)
(-0.00241681 0.032045 0)
(-0.0147057 0.0898424 0)
(-0.0395569 0.139039 0)
(-0.0728305 0.178356 0)
(-0.111667 0.207299 0)
(-0.154024 0.225871 0)
(-0.198027 0.234433 0)
(-0.241995 0.233578 0)
(-0.284462 0.224041 0)
(-0.324149 0.206631 0)
(-0.359943 0.182197 0)
(-0.39087 0.151621 0)
(-0.416081 0.115832 0)
(-0.434846 0.0758232 0)
(-0.446551 0.0326897 0)
(-0.450704 -0.0123458 0)
(-0.44696 -0.0579079 0)
(-0.435145 -0.102458 0)
(-0.415298 -0.144301 0)
(-0.387719 -0.181621 0)
(-0.35302 -0.212536 0)
(-0.312173 -0.235207 0)
(-0.26655 -0.247955 0)
(-0.217931 -0.249431 0)
(-0.16849 -0.238791 0)
(-0.120728 -0.215867 0)
(-0.0773152 -0.181317 0)
(-0.0409025 -0.136699 0)
(-0.0145804 -0.0844704 0)
(-0.00219509 -0.0280823 0)
(-0.00266427 0.0399523 0)
(-0.0161607 0.110476 0)
(-0.043371 0.16949 0)
(-0.0796699 0.215954 0)
(-0.121863 0.249641 0)
(-0.16769 0.270831 0)
(-0.21512 0.280152 0)
(-0.262366 0.278445 0)
(-0.307906 0.266661 0)
(-0.350441 0.245796 0)
(-0.388857 0.216861 0)
(-0.422191 0.180872 0)
(-0.449604 0.138876 0)
(-0.470358 0.0919761 0)
(-0.483815 0.0413775 0)
(-0.489432 -0.0115746 0)
(-0.486784 -0.0653579 0)
(-0.475589 -0.11825 0)
(-0.455759 -0.168324 0)
(-0.427458 -0.213473 0)
(-0.391171 -0.251468 0)
(-0.347779 -0.280063 0)
(-0.298624 -0.297138 0)
(-0.245553 -0.300894 0)
(-0.190924 -0.290074 0)
(-0.137552 -0.264189 0)
(-0.0885425 -0.223719 0)
(-0.0470626 -0.170222 0)
(-0.0168548 -0.106355 0)
(-0.00255574 -0.0359701 0)
(-0.00291024 0.0486013 0)
(-0.0175948 0.132983 0)
(-0.0471075 0.202596 0)
(-0.0863272 0.256672 0)
(-0.131716 0.29531 0)
(-0.180797 0.319134 0)
(-0.231384 0.329101 0)
(-0.2816 0.326355 0)
(-0.329887 0.312109 0)
(-0.374951 0.287578 0)
(-0.415706 0.253946 0)
(-0.451228 0.212369 0)
(-0.480708 0.164002 0)
(-0.503428 0.110041 0)
(-0.518741 0.0517721 0)
(-0.526061 -0.00936671 0)
(-0.52488 -0.0717398 0)
(-0.514799 -0.133471 0)
(-0.495573 -0.192422 0)
(-0.467187 -0.246203 0)
(-0.429945 -0.292215 0)
(-0.384572 -0.32776 0)
(-0.332317 -0.350194 0)
(-0.275035 -0.357155 0)
(-0.215233 -0.346834 0)
(-0.156045 -0.318277 0)
(-0.10105 -0.271657 0)
(-0.0540147 -0.208451 0)
(-0.0194608 -0.13149 0)
(-0.00298016 -0.0450865 0)
(-0.00315771 0.0579854 0)
(-0.0190224 0.157329 0)
(-0.0507934 0.238277 0)
(-0.0928277 0.300371 0)
(-0.141224 0.344099 0)
(-0.193281 0.370502 0)
(-0.246665 0.380944 0)
(-0.299426 0.376935 0)
(-0.349996 0.360001 0)
(-0.397119 0.331607 0)
(-0.439772 0.293131 0)
(-0.477102 0.24587 0)
(-0.508372 0.191076 0)
(-0.532909 0.130012 0)
(-0.550083 0.064015 0)
(-0.559284 -0.0054269 0)
(-0.55993 -0.0766092 0)
(-0.551493 -0.147546 0)
(-0.533551 -0.215926 0)
(-0.505867 -0.279093 0)
(-0.468502 -0.334081 0)
(-0.421946 -0.377697 0)
(-0.367265 -0.40669 0)
(-0.306238 -0.418004 0)
(-0.241461 -0.409114 0)
(-0.17636 -0.37841 0)
(-0.115021 -0.325582 0)
(-0.0619048 -0.251895 0)
(-0.0224714 -0.160303 0)
(-0.00348513 -0.0556238 0)
(-0.00341113 0.0681059 0)
(-0.0204646 0.183497 0)
(-0.05447 0.276463 0)
(-0.0992132 0.346896 0)
(-0.150394 0.39575 0)
(-0.205072 0.424575 0)
(-0.260774 0.43523 0)
(-0.315501 0.429668 0)
(-0.367709 0.409786 0)
(-0.41622 0.377339 0)
(-0.460121 0.333917 0)
(-0.498676 0.280959 0)
(-0.53126 0.219803 0)
(-0.557288 0.151749 0)
(-0.576183 0.078147 0)
(-0.587337 0.000483976 0)
(-0.590115 -0.0795235 0)
(-0.583864 -0.15984 0)
(-0.567969 -0.238038 0)
(-0.541932 -0.311243 0)
(-0.505504 -0.376133 0)
(-0.458847 -0.429003 0)
(-0.402731 -0.465917 0)
(-0.338741 -0.482989 0)
(-0.269456 -0.476774 0)
(-0.198537 -0.444765 0)
(-0.130592 -0.385926 0)
(-0.0708672 -0.301108 0)
(-0.0259612 -0.193288 0)
(-0.00408914 -0.0678139 0)
(-0.00367832 0.0789782 0)
(-0.0219578 0.211494 0)
(-0.0582087 0.317097 0)
(-0.105562 0.396073 0)
(-0.159263 0.449943 0)
(-0.21611 0.48088 0)
(-0.273501 0.491351 0)
(-0.329417 0.483845 0)
(-0.382388 0.460697 0)
(-0.431367 0.423997 0)
(-0.475605 0.375568 0)
(-0.51454 0.316992 0)
(-0.547711 0.249674 0)
(-0.574674 0.174924 0)
(-0.594948 0.0940579 0)
(-0.607973 0.00850347 0)
(-0.613087 -0.08008 0)
(-0.609534 -0.169686 0)
(-0.596502 -0.257849 0)
(-0.573205 -0.34155 0)
(-0.539019 -0.417162 0)
(-0.493676 -0.480474 0)
(-0.437512 -0.526811 0)
(-0.371756 -0.551314 0)
(-0.298814 -0.549391 0)
(-0.222474 -0.517335 0)
(-0.147836 -0.453044 0)
(-0.0810237 -0.356663 0)
(-0.0300096 -0.231004 0)
(-0.00481369 -0.08193 0)
(-0.00397312 0.0906416 0)
(-0.0235641 0.241376 0)
(-0.0621312 0.360152 0)
(-0.112016 0.447714 0)
(-0.167921 0.50628 0)
(-0.226361 0.538807 0)
(-0.284617 0.548508 0)
(-0.340701 0.538523 0)
(-0.393276 0.511705 0)
(-0.441497 0.470525 0)
(-0.484845 0.417061 0)
(-0.523002 0.35304 0)
(-0.55573 0.279914 0)
(-0.582787 0.198967 0)
(-0.603845 0.111431 0)
(-0.618442 0.0186132 0)
(-0.62594 -0.0779665 0)
(-0.625512 -0.176424 0)
(-0.61617 -0.274361 0)
(-0.596826 -0.368718 0)
(-0.56643 -0.455657 0)
(-0.52418 -0.530513 0)
(-0.469821 -0.587853 0)
(-0.404022 -0.621725 0)
(-0.328797 -0.62614 0)
(-0.24787 -0.59582 0)
(-0.166742 -0.527145 0)
(-0.0924821 -0.419113 0)
(-0.0347045 -0.274062 0)
(-0.00568535 -0.0982916 0)
(-0.00431961 0.103177 0)
(-0.0253875 0.273271 0)
(-0.0664375 0.405653 0)
(-0.118809 0.501613 0)
(-0.176539 0.564267 0)
(-0.235828 0.597565 0)
(-0.293878 0.605655 0)
(-0.348796 0.592463 0)
(-0.39947 0.561452 0)
(-0.445339 0.515526 0)
(-0.486205 0.457034 0)
(-0.522062 0.387841 0)
(-0.552972 0.309427 0)
(-0.578953 0.223011 0)
(-0.599897 0.12969 0)
(-0.615501 0.0305804 0)
(-0.62521 -0.0730211 0)
(-0.628187 -0.17946 0)
(-0.623304 -0.286533 0)
(-0.609191 -0.391283 0)
(-0.584344 -0.489802 0)
(-0.547338 -0.577082 0)
(-0.497162 -0.646981 0)
(-0.433682 -0.692377 0)
(-0.358224 -0.70564 0)
(-0.274157 -0.679481 0)
(-0.187191 -0.608175 0)
(-0.105335 -0.488935 0)
(-0.0401508 -0.323121 0)
(-0.00673913 -0.117272 0)
(-0.0047588 0.116737 0)
(-0.0275966 0.307431 0)
(-0.0714408 0.453706 0)
(-0.126299 0.55755 0)
(-0.185377 0.623274 0)
(-0.244541 0.656126 0)
(-0.30098 0.661428 0)
(-0.353009 0.644061 0)
(-0.399852 0.608194 0)
(-0.441355 0.557209 0)
(-0.477731 0.493736 0)
(-0.509374 0.419761 0)
(-0.536713 0.336763 0)
(-0.560094 0.245856 0)
(-0.579692 0.147949 0)
(-0.595428 0.043902 0)
(-0.606905 -0.0652977 0)
(-0.613344 -0.178339 0)
(-0.613554 -0.293356 0)
(-0.605932 -0.40767 0)
(-0.588535 -0.517499 0)
(-0.559263 -0.617687 0)
(-0.516197 -0.701513 0)
(-0.458134 -0.760698 0)
(-0.385339 -0.785771 0)
(-0.300408 -0.76696 0)
(-0.208903 -0.695681 0)
(-0.11966 -0.566462 0)
(-0.046483 -0.378876 0)
(-0.00802464 -0.139312 0)
(-0.00535997 0.131585 0)
(-0.0304589 0.344295 0)
(-0.0776122 0.50453 0)
(-0.134998 0.615263 0)
(-0.194776 0.682476 0)
(-0.2525 0.713136 0)
(-0.305472 0.714057 0)
(-0.352384 0.691264 0)
(-0.392965 0.64973 0)
(-0.427604 0.59334 0)
(-0.45704 0.524995 0)
(-0.48215 0.44677 0)
(-0.503795 0.360099 0)
(-0.522705 0.265948 0)
(-0.539392 0.164989 0)
(-0.554064 0.0577645 0)
(-0.566551 -0.0551259 0)
(-0.576227 -0.172821 0)
(-0.581933 -0.293944 0)
(-0.581932 -0.416289 0)
(-0.573915 -0.53645 0)
(-0.555113 -0.6494 0)
(-0.5226 -0.748097 0)
(-0.473849 -0.823255 0)
(-0.407629 -0.863473 0)
(-0.32519 -0.856034 0)
(-0.231378 -0.788601 0)
(-0.135515 -0.651765 0)
(-0.0538891 -0.442052 0)
(-0.0096176 -0.164948 0)
(-0.00624113 0.148172 0)
(-0.0343947 0.384577 0)
(-0.0856342 0.558479 0)
(-0.145575 0.674396 0)
(-0.20509 0.740726 0)
(-0.259529 0.766771 0)
(-0.30655 0.761224 0)
(-0.345474 0.731463 0)
(-0.376763 0.683331 0)
(-0.401518 0.621208 0)
(-0.421122 0.548215 0)
(-0.437008 0.466458 0)
(-0.450518 0.377268 0)
(-0.462799 0.28141 0)
(-0.474729 0.179272 0)
(-0.486848 0.0710346 0)
(-0.499281 -0.0431515 0)
(-0.511642 -0.162962 0)
(-0.522928 -0.287642 0)
(-0.531411 -0.415666 0)
(-0.534559 -0.544283 0)
(-0.529042 -0.668957 0)
(-0.510923 -0.782734 0)
(-0.476159 -0.875658 0)
(-0.421575 -0.934521 0)
(-0.346357 -0.943324 0)
(-0.253767 -0.884981 0)
(-0.152927 -0.74449 0)
(-0.0626515 -0.513385 0)
(-0.0116419 -0.194859 0)
(-0.00760623 0.167248 0)
(-0.0400596 0.429373 0)
(-0.096455 0.616025 0)
(-0.158804 0.734346 0)
(-0.216496 0.796345 0)
(-0.264975 0.81451 0)
(-0.30267 0.799879 0)
(-0.329917 0.76136 0)
(-0.348199 0.705674 0)
(-0.359522 0.637614 0)
(-0.366016 0.560414 0)
(-0.36972 0.476109 0)
(-0.372463 0.385844 0)
(-0.3758 0.290124 0)
(-0.380974 0.189013 0)
(-0.388864 0.0823013 0)
(-0.399925 -0.0303369 0)
(-0.414094 -0.149166 0)
(-0.430654 -0.274149 0)
(-0.448071 -0.404613 0)
(-0.463812 -0.538754 0)
(-0.474212 -0.672953 0)
(-0.474477 -0.800888 0)
(-0.45901 -0.912537 0)
(-0.422316 -0.99332 0)
(-0.360711 -1.02392 0)
(-0.27466 -0.981565 0)
(-0.171845 -0.843581 0)
(-0.0732104 -0.593587 0)
(-0.0143114 -0.229956 0)
(-0.00981466 0.190054 0)
(-0.0484723 0.480288 0)
(-0.111311 0.677638 0)
(-0.175366 0.793954 0)
(-0.228557 0.846744 0)
(-0.267088 0.852801 0)
(-0.290848 0.825995 0)
(-0.301724 0.776842 0)
(-0.302563 0.712818 0)
(-0.296455 0.638935 0)
(-0.286338 0.558346 0)
(-0.274841 0.472857 0)
(-0.264226 0.383317 0)
(-0.25639 0.289904 0)
(-0.252873 0.19233 0)
(-0.254855 0.089993 0)
(-0.263116 -0.0179006 0)
(-0.27796 -0.132197 0)
(-0.299076 -0.25361 0)
(-0.325324 -0.382427 0)
(-0.354469 -0.518031 0)
(-0.382874 -0.65815 0)
(-0.405252 -0.797765 0)
(-0.414675 -0.927657 0)
(-0.403188 -1.03277 0)
(-0.363468 -1.09097 0)
(-0.291659 -1.07321 0)
(-0.191993 -0.946817 0)
(-0.0862528 -0.68326 0)
(-0.018006 -0.27155 0)
(-0.0135081 0.218655 0)
(-0.0611912 0.539521 0)
(-0.131614 0.74342 0)
(-0.19529 0.850886 0)
(-0.23929 0.887785 0)
(-0.261875 0.876565 0)
(-0.265459 0.834276 0)
(-0.254146 0.772886 0)
(-0.232485 0.700271 0)
(-0.204746 0.6213 0)
(-0.174629 0.538747 0)
(-0.145228 0.453971 0)
(-0.119089 0.367389 0)
(-0.0982986 0.278784 0)
(-0.08456 0.187505 0)
(-0.0792434 0.0925857 0)
(-0.0833924 -0.00717359 0)
(-0.0976741 -0.113129 0)
(-0.122256 -0.226685 0)
(-0.156586 -0.349087 0)
(-0.199058 -0.481029 0)
(-0.246551 -0.621942 0)
(-0.2939 -0.7688 0)
(-0.333443 -0.914287 0)
(-0.355073 -1.04431 0)
(-0.347392 -1.13523 0)
(-0.300578 -1.15208 0)
(-0.212469 -1.05 0)
(-0.102788 -0.782643 0)
(-0.0234 -0.321643 0)
(-0.0198257 0.256483 0)
(-0.08049 0.609748 0)
(-0.158421 0.812198 0)
(-0.216592 0.900471 0)
(-0.243263 0.9128 0)
(-0.24103 0.878578 0)
(-0.216269 0.817926 0)
(-0.175977 0.743629 0)
(-0.12657 0.663271 0)
(-0.0733774 0.580999 0)
(-0.0206083 0.498798 0)
(0.0284662 0.417324 0)
(0.0712966 0.336421 0)
(0.105858 0.255428 0)
(0.130496 0.173346 0)
(0.143822 0.0889121 0)
(0.14466 0.000634789 0)
(0.132052 -0.0932067 0)
(0.10534 -0.194542 0)
(0.0643607 -0.305429 0)
(0.00978203 -0.427812 0)
(-0.0563486 -0.562975 0)
(-0.129822 -0.710433 0)
(-0.203307 -0.865948 0)
(-0.265548 -1.01831 0)
(-0.301428 -1.14486 0)
(-0.293909 -1.20656 0)
(-0.230715 -1.14553 0)
(-0.12404 -0.890907 0)
(-0.031635 -0.383363 0)
(-0.0306637 0.309141 0)
(-0.109197 0.693329 0)
(-0.190659 0.879574 0)
(-0.232106 0.933759 0)
(-0.227879 0.911315 0)
(-0.188389 0.848978 0)
(-0.125465 0.768778 0)
(-0.049276 0.682916 0)
(0.0322187 0.597538 0)
(0.113179 0.515296 0)
(0.189458 0.436921 0)
(0.258115 0.362124 0)
(0.317018 0.290081 0)
(0.364543 0.219689 0)
(0.39936 0.14966 0)
(0.420283 0.0785554 0)
(0.426182 0.00474775 0)
(0.415946 -0.0736367 0)
(0.388506 -0.158791 0)
(0.342956 -0.25328 0)
(0.278824 -0.360001 0)
(0.196588 -0.481914 0)
(0.0985602 -0.621256 0)
(-0.00973988 -0.777784 0)
(-0.117828 -0.945303 0)
(-0.208604 -1.1057 0)
(-0.257991 -1.22021 0)
(-0.240026 -1.22017 0)
(-0.150521 -1.00439 0)
(-0.0443463 -0.461357 0)
(-0.0485008 0.385601 0)
(-0.148774 0.789781 0)
(-0.219868 0.93392 0)
(-0.222434 0.934595 0)
(-0.166563 0.867856 0)
(-0.0744223 0.775497 0)
(0.0362748 0.678404 0)
(0.153127 0.585781 0)
(0.267923 0.500815 0)
(0.375513 0.42385 0)
(0.472773 0.354001 0)
(0.557807 0.289925 0)
(0.629417 0.230164 0)
(0.686754 0.173261 0)
(0.729088 0.117782 0)
(0.755659 0.0622681 0)
(0.765577 0.00515431 0)
(0.757753 -0.055338 0)
(0.730867 -0.12134 0)
(0.683387 -0.195497 0)
(0.613699 -0.281127 0)
(0.520442 -0.382275 0)
(0.403258 -0.503468 0)
(0.264223 -0.648636 0)
(0.110293 -0.818244 0)
(-0.0431104 -1.00289 0)
(-0.168038 -1.17121 0)
(-0.223892 -1.25171 0)
(-0.178441 -1.11303 0)
(-0.0626657 -0.562308 0)
(-0.0737745 0.500907 0)
(-0.191342 0.888826 0)
(-0.216128 0.947769 0)
(-0.141369 0.874805 0)
(-0.00746425 0.761135 0)
(0.15103 0.645065 0)
(0.313641 0.540684 0)
(0.469037 0.451113 0)
(0.611417 0.375211 0)
(0.7382 0.310602 0)
(0.848492 0.254822 0)
(0.942189 0.205685 0)
(1.01948 0.161339 0)
(1.08055 0.120218 0)
(1.12545 0.08095 0)
(1.15399 0.0422574 0)
(1.16566 0.00284433 0)
(1.15956 -0.038729 0)
(1.13434 -0.0842094 0)
(1.08808 -0.135858 0)
(1.01832 -0.196724 0)
(0.922001 -0.270983 0)
(0.795874 -0.364247 0)
(0.637404 -0.483523 0)
(0.447102 -0.635938 0)
(0.233263 -0.823909 0)
(0.0197878 -1.03251 0)
(-0.144695 -1.20405 0)
(-0.189826 -1.1931 0)
(-0.0825485 -0.696174 0)
(-0.0911666 0.671533 0)
(-0.193229 0.95013 0)
(-0.0946033 0.864412 0)
(0.110667 0.71211 0)
(0.341981 0.568629 0)
(0.565162 0.450481 0)
(0.767313 0.35808 0)
(0.944351 0.286636 0)
(1.09643 0.2308 0)
(1.22541 0.186211 0)
(1.33348 0.149623 0)
(1.42264 0.118674 0)
(1.49452 0.0916337 0)
(1.55029 0.0671943 0)
(1.59072 0.0443171 0)
(1.61613 0.0221067 0)
(1.62639 -0.000295207 0)
(1.62092 -0.0238143 0)
(1.59852 -0.0495778 0)
(1.55733 -0.0790881 0)
(1.49452 -0.114492 0)
(1.40613 -0.158997 0)
(1.28675 -0.217505 0)
(1.1295 -0.297476 0)
(0.926985 -0.409704 0)
(0.67493 -0.567345 0)
(0.379956 -0.77853 0)
(0.0769382 -1.02342 0)
(-0.128835 -1.1874 0)
(-0.0775334 -0.861583 0)
(0.0102032 0.815328 0)
(0.0266507 0.852622 0)
(0.359497 0.615943 0)
(0.722742 0.430595 0)
(1.0242 0.304779 0)
(1.26707 0.219791 0)
(1.46288 0.162377 0)
(1.62059 0.12293 0)
(1.74785 0.0948801 0)
(1.85078 0.0740736 0)
(1.93392 0.0579414 0)
(2.00051 0.0448695 0)
(2.05284 0.0338106 0)
(2.0925 0.0240527 0)
(2.12049 0.0150779 0)
(2.13735 0.00647228 0)
(2.14322 -0.00213923 0)
(2.13777 -0.0111512 0)
(2.12019 -0.02104 0)
(2.08905 -0.0324578 0)
(2.04203 -0.0463835 0)
(1.97553 -0.0643953 0)
(1.88402 -0.0891857 0)
(1.75899 -0.125551 0)
(1.5879 -0.182197 0)
(1.35352 -0.274493 0)
(1.03284 -0.426795 0)
(0.607318 -0.6671 0)
(0.174412 -0.967846 0)
(0.0770675 -0.930319 0)
(0.886965 0.431537 0)
(1.15963 0.378523 0)
(1.62534 0.230013 0)
(1.97398 0.136117 0)
(2.18836 0.0829045 0)
(2.32887 0.0522566 0)
(2.4282 0.0343814 0)
(2.50112 0.0236983 0)
(2.55609 0.0169987 0)
(2.59839 0.0125233 0)
(2.63126 0.00932436 0)
(2.65673 0.00688203 0)
(2.6761 0.00489949 0)
(2.69021 0.00319754 0)
(2.69959 0.00165903 0)
(2.70452 0.000198392 0)
(2.70509 -0.00125686 0)
(2.70121 -0.00278182 0)
(2.69256 -0.00446554 0)
(2.67856 -0.00643438 0)
(2.65819 -0.00888869 0)
(2.62982 -0.0121776 0)
(2.59073 -0.0169633 0)
(2.53614 -0.0245928 0)
(2.45752 -0.0379383 0)
(2.33895 -0.0632034 0)
(2.14507 -0.113453 0)
(1.7981 -0.213465 0)
(1.28212 -0.383515 0)
(0.943183 -0.45238 0)
)
;

boundaryField
{
    movingWall
    {
        type            fixedValue;
        value           uniform (3 0 0);
    }
    fixedWalls
    {
        type            noSlip;
    }
    frontAndBack
    {
        type            empty;
    }
}


// ************************************************************************* //
