/*--------------------------------*- C++ -*----------------------------------*\
  =========                 |
  \\      /  F ield         | OpenFOAM: The Open Source CFD Toolbox
   \\    /   O peration     | Website:  https://openfoam.org
    \\  /    A nd           | Version:  9
     \\/     M anipulation  |
\*---------------------------------------------------------------------------*/
FoamFile
{
    format      ascii;
    class       volScalarField;
    location    "250";
    object      alphat;
}
// * * * * * * * * * * * * * * * * * * * * * * * * * * * * * * * * * * * * * //

dimensions      [1 -1 -1 0 0 0 0];

internalField   nonuniform List<scalar> 
4000
(
0.000611992
0.000571918
0.000540722
0.000528668
0.00053504
0.000551329
0.000568198
0.000581998
0.000584857
0.000583602
0.000583988
0.00058438
0.000583704
0.000582088
0.0005801
0.000578716
0.000580502
0.000589064
0.000608557
0.000641655
0.000745244
0.000703484
0.000653876
0.00061464
0.000595267
0.000601209
0.000618741
0.000635778
0.000641597
0.00062687
0.000621923
0.000627476
0.000631917
0.000632406
0.000631567
0.000634233
0.000645461
0.000670224
0.000709705
0.000757506
0.000837043
0.00081222
0.000766098
0.000718291
0.000685204
0.000669922
0.000676344
0.000688363
0.000694246
0.000684898
0.000664589
0.000647509
0.00065063
0.000656563
0.000661468
0.000669915
0.000694667
0.000736913
0.000789292
0.000834224
0.000900074
0.000896292
0.000865608
0.000822751
0.000783784
0.000755506
0.00074052
0.000739733
0.00073935
0.000731364
0.000712434
0.000686964
0.000659558
0.000656133
0.000666025
0.000689983
0.000736907
0.00079614
0.00085194
0.000883261
0.000945533
0.000962433
0.000953515
0.000928589
0.000897689
0.000865647
0.000830883
0.000797878
0.000782169
0.000768368
0.000750578
0.000726689
0.000700238
0.000682445
0.000675788
0.000721274
0.000794501
0.00085767
0.000903289
0.000916051
0.00098092
0.00101678
0.00103125
0.00103135
0.00102283
0.00100674
0.000981507
0.00094112
0.000867358
0.000820158
0.000797857
0.000778276
0.000761616
0.000753985
0.000789527
0.000845776
0.000893313
0.000930027
0.00095031
0.000940686
0.00101016
0.00106365
0.00110026
0.001123
0.0011355
0.00113829
0.00112982
0.001107
0.0010657
0.00100805
0.000984269
0.000973199
0.000976559
0.000993194
0.00100589
0.00101253
0.00101429
0.0010109
0.000997177
0.000960673
0.00103579
0.00110622
0.00116044
0.00120049
0.00122901
0.00124732
0.00125363
0.00124495
0.00121777
0.00118622
0.0011781
0.00117084
0.00116224
0.00115196
0.00113857
0.00112147
0.00110002
0.00107304
0.00103513
0.000976306
0.00106136
0.00114933
0.00122015
0.00127465
0.00131685
0.00134687
0.00136414
0.00136668
0.00135236
0.00132633
0.00131607
0.00130151
0.0012818
0.00125823
0.00123109
0.00120013
0.00116448
0.00112239
0.0010675
0.000991228
0.00108813
0.00118033
0.00125435
0.00130919
0.00135111
0.00138252
0.00140452
0.00141656
0.0014164
0.00140173
0.00139127
0.00137358
0.00135045
0.00132285
0.0012912
0.00125517
0.0012136
0.00116398
0.00109919
0.00101118
0.000571918
0.000581517
0.000571331
0.000565222
0.000576565
0.000603418
0.000628994
0.000646027
0.000649348
0.00064769
0.000646225
0.000645726
0.000646
0.000646891
0.000648925
0.00065265
0.000656297
0.000660248
0.000662471
0.000648404
0.000703484
0.00102595
0.00117879
0.00129408
0.00139854
0.00151986
0.00163218
0.00169404
0.00169246
0.00164125
0.00162218
0.00164259
0.00168867
0.00170931
0.0016721
0.00157274
0.00143888
0.00128967
0.00111122
0.000773898
0.00081222
0.00119865
0.00140925
0.00159165
0.00178388
0.00195305
0.00209148
0.00218505
0.00222055
0.00220987
0.00217465
0.00210897
0.00206954
0.00203964
0.00193876
0.00175729
0.00156154
0.00138735
0.00121205
0.000859819
0.000896292
0.00125622
0.00144742
0.00161197
0.00178565
0.00197476
0.00214932
0.00230318
0.00242392
0.00248277
0.00247198
0.0023689
0.00216203
0.00201462
0.00186065
0.00167337
0.00151675
0.0014018
0.00127614
0.00091692
0.000962433
0.00131695
0.00148153
0.00160428
0.00172047
0.00185291
0.00201766
0.00219809
0.00237245
0.00249472
0.00251486
0.00240975
0.00218973
0.00192972
0.00169739
0.00156743
0.00151194
0.00147919
0.00138467
0.000958016
0.00101678
0.00143436
0.00162612
0.00176767
0.00188864
0.00200109
0.00211504
0.00222648
0.00233285
0.0024019
0.00239572
0.00228519
0.00207677
0.0018379
0.00165489
0.00161412
0.00163436
0.00163783
0.00152804
0.000991816
0.00106365
0.00159146
0.00185842
0.00208951
0.00230542
0.00249662
0.00266398
0.00275267
0.00271601
0.00263858
0.00253566
0.00238744
0.00220146
0.00202699
0.00195015
0.00192019
0.00189324
0.00183388
0.00165789
0.00102097
0.00110622
0.0017429
0.00207781
0.00241185
0.00274577
0.0030396
0.00330254
0.00348236
0.00357972
0.00347441
0.00331873
0.00313973
0.00294812
0.00276987
0.00257374
0.00237234
0.00217391
0.00197848
0.00172018
0.00104491
0.00114933
0.0017259
0.00208813
0.00242155
0.0027327
0.00300026
0.00321488
0.00334853
0.00344984
0.00340007
0.00323324
0.00307796
0.00290582
0.00271731
0.00251768
0.00230999
0.00209748
0.00188471
0.00163104
0.00106593
0.00118033
0.00128471
0.00137192
0.00143928
0.00149292
0.00153526
0.00156718
0.00158783
0.00159522
0.00158355
0.00156496
0.00153704
0.00150213
0.00146225
0.00141814
0.00136979
0.00131603
0.00125423
0.00117623
0.00107407
0.000540722
0.000571331
0.000577018
0.000579492
0.000602305
0.000636652
0.000669713
0.000694508
0.000701702
0.000700907
0.000698674
0.000697522
0.000697173
0.000696793
0.000696594
0.000698301
0.000698073
0.000693373
0.000679805
0.000641854
0.000653876
0.00117879
0.00147959
0.00165891
0.00177616
0.00191768
0.0020894
0.00224645
0.00231011
0.00227429
0.00223904
0.00224228
0.00227432
0.00229073
0.00225199
0.0021222
0.00190373
0.00162675
0.00128434
0.000769096
0.000766098
0.00140925
0.00186308
0.00224152
0.00254503
0.00277938
0.00298094
0.00314767
0.00323675
0.00323357
0.0031546
0.00306123
0.00299171
0.00291157
0.00273619
0.0024417
0.0020999
0.0017566
0.00139627
0.000865302
0.000865608
0.00144742
0.00187574
0.00228576
0.00269186
0.00304742
0.00333436
0.00356572
0.00372331
0.00376801
0.00369745
0.00349981
0.00322592
0.00296681
0.00267857
0.00234611
0.00203587
0.00176219
0.00146482
0.000934069
0.000953515
0.00148153
0.00181205
0.00211974
0.00245653
0.00283817
0.00321811
0.00356122
0.00383048
0.00396564
0.00392636
0.00371641
0.00335316
0.00288934
0.00249605
0.00222827
0.00204397
0.00187612
0.00161129
0.0009859
0.00103125
0.00162612
0.00193826
0.0021836
0.00242958
0.00272374
0.00310065
0.00349699
0.00381974
0.00399239
0.003968
0.00375277
0.00337969
0.00292683
0.00252662
0.00234181
0.00225801
0.00213584
0.00183372
0.00102895
0.00110026
0.00185842
0.00226441
0.00259485
0.00291771
0.00327069
0.00364221
0.00398871
0.00420404
0.00426499
0.00416394
0.00391907
0.00357027
0.00319939
0.00291925
0.00277026
0.00264313
0.00244175
0.00204758
0.00107025
0.00116044
0.00207781
0.00265866
0.0031763
0.00370687
0.00424409
0.00471629
0.00496386
0.00500527
0.00493159
0.00478962
0.00456825
0.00429286
0.0040114
0.00373059
0.00340545
0.00305269
0.0026627
0.00215036
0.0011066
0.00122015
0.00208813
0.00276201
0.00339904
0.00396449
0.0044189
0.00479102
0.00493629
0.00491042
0.00482866
0.00476101
0.00465457
0.00448563
0.0041829
0.00382289
0.00342064
0.00298532
0.00252765
0.00201153
0.00113235
0.00125435
0.00137192
0.00146917
0.00154554
0.0016074
0.00165776
0.00169752
0.00172706
0.00174428
0.00173835
0.00171194
0.00167496
0.00163034
0.00158131
0.00152785
0.00147036
0.00140748
0.00133606
0.00124698
0.00113155
0.000528668
0.000565222
0.000579492
0.000595067
0.000619944
0.000654049
0.000692708
0.000726491
0.000740246
0.000742354
0.000741217
0.000740671
0.000740495
0.000739051
0.00073572
0.000732326
0.000724752
0.00070984
0.000682571
0.000629907
0.00061464
0.00129408
0.00165891
0.00180646
0.00190094
0.00202488
0.00221881
0.00246153
0.00264299
0.00267705
0.00266071
0.0026591
0.00268089
0.00269365
0.00265534
0.00250915
0.0022369
0.00186376
0.00139024
0.000748742
0.000718291
0.00159165
0.00224152
0.00270614
0.00299883
0.00320929
0.00341698
0.00364847
0.0038436
0.00391317
0.00385699
0.0037578
0.00366285
0.00354284
0.00332033
0.00295753
0.00250819
0.00202439
0.00150984
0.000848628
0.000822751
0.00161197
0.00228576
0.00291608
0.00344301
0.00383239
0.00413738
0.00439865
0.00459927
0.00467251
0.00458811
0.00434601
0.00403714
0.00370465
0.00332054
0.00287625
0.00243176
0.00201495
0.00157875
0.000927335
0.000928589
0.00160428
0.00211974
0.00266547
0.00326124
0.00382782
0.00431441
0.00471058
0.00499166
0.00510325
0.00500947
0.00472194
0.00425041
0.00367743
0.00316944
0.00276448
0.00244011
0.00213983
0.00174865
0.000990954
0.00103135
0.00176767
0.0021836
0.00255995
0.00303417
0.00364474
0.00428626
0.00483175
0.00520597
0.00535939
0.00527
0.0049616
0.00447408
0.00387959
0.00330493
0.00296305
0.00273217
0.0024684
0.00202471
0.00104551
0.001123
0.00208951
0.00259485
0.00299159
0.00346246
0.00409261
0.00474585
0.00526617
0.00558696
0.00569164
0.00557724
0.00526958
0.00482466
0.00433092
0.00389732
0.00356219
0.00326466
0.00290084
0.00232454
0.00109703
0.00120049
0.00241185
0.0031763
0.00388349
0.00460039
0.0052092
0.00564521
0.00591378
0.00602997
0.00601919
0.00589833
0.00565982
0.00533914
0.00500346
0.00469136
0.00427872
0.00378741
0.00321901
0.00248284
0.00114508
0.00127465
0.00242155
0.00339904
0.00430459
0.00501022
0.00536453
0.00553309
0.00559319
0.00558424
0.00552667
0.00548501
0.00538943
0.00522833
0.00502271
0.00477808
0.00432158
0.00373561
0.00306684
0.00231114
0.00117916
0.00130919
0.00143928
0.00154554
0.00162996
0.00169979
0.00175935
0.00180884
0.00184797
0.00187571
0.00187809
0.00184395
0.00179779
0.00174358
0.00168392
0.00162034
0.00155422
0.00148287
0.00140224
0.00130239
0.00117413
0.00053504
0.000576565
0.000602305
0.000619944
0.000635331
0.000659985
0.00070284
0.000746334
0.000768584
0.000775476
0.000777199
0.000778512
0.000779113
0.000776731
0.000770311
0.000760857
0.000744938
0.000719981
0.000681364
0.000619483
0.000595267
0.00139854
0.00177616
0.00190094
0.00192992
0.00199274
0.00217637
0.00249114
0.00279499
0.0029274
0.00296262
0.00297899
0.00300297
0.003012
0.00296348
0.00279595
0.00248511
0.00204174
0.00146523
0.000724953
0.000685204
0.00178388
0.00254503
0.00299883
0.00322911
0.00336632
0.00354315
0.00383391
0.00416999
0.00437167
0.00437705
0.00429567
0.00418769
0.00403893
0.00378252
0.003372
0.00283966
0.0022363
0.0015867
0.000819657
0.000783784
0.00178565
0.00269186
0.00344301
0.00396946
0.00431871
0.00458607
0.00485718
0.00513199
0.00529919
0.005251
0.00501764
0.00469149
0.0043135
0.00386184
0.00332661
0.00276114
0.00221071
0.00165198
0.000902009
0.000897689
0.00172047
0.00245653
0.00326124
0.00402605
0.0046561
0.00514365
0.00551568
0.00578806
0.00591621
0.00582773
0.00550058
0.00497192
0.00435801
0.0037522
0.00321579
0.00275183
0.00233045
0.00183827
0.00097462
0.00102283
0.00188864
0.00242958
0.00303417
0.00383476
0.0046875
0.00541147
0.00592891
0.00624181
0.00635587
0.00624297
0.0058895
0.00533679
0.004653
0.00394778
0.0034526
0.0030787
0.00270473
0.00215956
0.00103999
0.0011355
0.00230542
0.00291771
0.00346246
0.00423127
0.005111
0.00586018
0.00636339
0.00663508
0.00671751
0.00659729
0.00626004
0.00576523
0.0052053
0.00467698
0.00418781
0.00373536
0.0032386
0.00252821
0.00110246
0.00122901
0.00274577
0.00370687
0.00460039
0.00534947
0.00595122
0.0064092
0.00666199
0.00676582
0.00679542
0.00669486
0.00643353
0.00607702
0.00570571
0.00535989
0.00493372
0.00435522
0.00364548
0.00272928
0.00116379
0.00131685
0.0027327
0.00396449
0.00501022
0.00553009
0.00581452
0.00597028
0.00603058
0.00604824
0.00601443
0.00597726
0.00587202
0.00570419
0.00549732
0.00526081
0.00492075
0.00428451
0.00347231
0.00253009
0.00120837
0.00135111
0.00149292
0.0016074
0.00169979
0.00177982
0.00184809
0.00190751
0.00195987
0.00200272
0.00201627
0.00196995
0.00191016
0.0018438
0.00177382
0.00170088
0.00162443
0.0015441
0.00145426
0.00134434
0.00120465
0.000551329
0.000603418
0.000636652
0.000654049
0.000659985
0.000664551
0.000704129
0.000758435
0.00079225
0.000806098
0.000811678
0.000814585
0.000814623
0.000809912
0.000800172
0.000783949
0.000760066
0.000726332
0.000678877
0.000611618
0.000601209
0.00151986
0.00191768
0.00202488
0.00199274
0.00195068
0.0020773
0.0024568
0.00287097
0.00312535
0.00323547
0.00328009
0.00330394
0.00329377
0.00320824
0.00300109
0.002656
0.0021643
0.0015156
0.000703645
0.000669922
0.00195305
0.00277938
0.00320929
0.00336632
0.00340439
0.00351169
0.00384684
0.0043518
0.00470577
0.00481292
0.00476282
0.0046419
0.00445855
0.00416257
0.00370893
0.00311242
0.00241167
0.00164391
0.000786634
0.000755506
0.00197476
0.00304742
0.00383239
0.00431871
0.00458904
0.00477591
0.00502909
0.00540689
0.00573085
0.00579488
0.00560288
0.00526827
0.00485044
0.00434312
0.00373183
0.00305854
0.00237885
0.00169982
0.000865098
0.000865647
0.00185291
0.00283817
0.00382782
0.0046561
0.00526173
0.00566366
0.00594131
0.00621128
0.0064325
0.00645795
0.00615992
0.00562761
0.00497591
0.00428982
0.0036298
0.00302435
0.00247549
0.00188422
0.000942486
0.00100674
0.00200109
0.00272374
0.00364474
0.0046875
0.00559804
0.00623262
0.00658854
0.00681153
0.00695221
0.00693712
0.00662711
0.00604343
0.00529226
0.00451316
0.00386813
0.00334443
0.00286134
0.00222829
0.00101801
0.00113829
0.00249662
0.00327069
0.00409261
0.005111
0.00605876
0.00672441
0.0070545
0.00721786
0.00731601
0.0072854
0.00698841
0.00647099
0.00585773
0.00525257
0.00464859
0.00406637
0.00345583
0.00264469
0.00109117
0.00124732
0.0030396
0.00424409
0.0052092
0.00595122
0.00657179
0.00698787
0.00715721
0.00721914
0.00729973
0.00729419
0.00702003
0.00661785
0.00620213
0.00581341
0.00538418
0.00475428
0.00393274
0.00287027
0.00116444
0.00134687
0.00300026
0.0044189
0.00536453
0.00581452
0.006095
0.00626089
0.00637312
0.00646606
0.00647413
0.00639713
0.00621768
0.00600857
0.00578537
0.00554031
0.00523237
0.00464303
0.00374553
0.00266446
0.00122112
0.00138252
0.00153526
0.00165776
0.00175935
0.00184809
0.00192691
0.00200201
0.00207555
0.00214121
0.00216938
0.00210251
0.00202058
0.00193624
0.00185246
0.00176872
0.00168236
0.00159185
0.00149276
0.00137367
0.00122451
0.000568198
0.000628994
0.000669713
0.000692708
0.000702841
0.000704129
0.000712414
0.000768965
0.000820324
0.000844191
0.000852464
0.000853395
0.00084844
0.000838022
0.000820612
0.000796864
0.000765826
0.000725388
0.000672205
0.000604333
0.000618741
0.00163218
0.0020894
0.00221881
0.00217637
0.0020773
0.00207883
0.00242173
0.0029382
0.00334631
0.00356721
0.00364261
0.00363742
0.00356231
0.00339598
0.00313638
0.00275528
0.00222977
0.00153902
0.000684464
0.000676344
0.00209148
0.00298094
0.00341698
0.00354315
0.00351169
0.00351355
0.00381039
0.00443085
0.00494042
0.00520889
0.00523082
0.00509352
0.00485108
0.00449236
0.00398781
0.00333873
0.00256318
0.00169536
0.00075294
0.00074052
0.00214932
0.00333436
0.00413738
0.00458607
0.00477591
0.00484166
0.00501535
0.00551937
0.00598458
0.00621807
0.00614566
0.00583092
0.0053681
0.00480004
0.00411981
0.00335203
0.00254711
0.00174025
0.00082007
0.000830883
0.00201766
0.00321811
0.00431441
0.00514365
0.00566366
0.00589872
0.00603644
0.00640834
0.00677455
0.00691998
0.0067464
0.00626826
0.00558926
0.00482763
0.00405044
0.00329934
0.00260184
0.00189513
0.00089673
0.000981507
0.00211504
0.00310065
0.00428626
0.00541147
0.00623262
0.00665076
0.0068246
0.00713417
0.00740658
0.00745519
0.00722696
0.00669027
0.00591457
0.00506155
0.00426013
0.00357041
0.00295349
0.0022266
0.000982098
0.00112982
0.00266398
0.00364221
0.00474585
0.00586018
0.00672441
0.00717538
0.00732081
0.00755282
0.00781719
0.00782887
0.00757253
0.00706917
0.0063957
0.00569315
0.00498925
0.00427978
0.00356263
0.0026637
0.00106709
0.00125363
0.00330254
0.00471629
0.00564521
0.0064092
0.00698787
0.00731751
0.00748651
0.00766708
0.00786769
0.00785992
0.00752919
0.00706145
0.00657216
0.0061112
0.00564398
0.0050025
0.00409386
0.00292147
0.00114985
0.00136414
0.00321488
0.00479102
0.00553309
0.00597028
0.00626089
0.00650146
0.00678128
0.00704574
0.00715221
0.00695211
0.00656201
0.00623131
0.00595518
0.00568491
0.00536535
0.00488298
0.00391971
0.00272667
0.00121965
0.00140452
0.00156718
0.00169752
0.00180884
0.00190751
0.00200201
0.00210086
0.00220606
0.0023043
0.00235216
0.00225427
0.00213723
0.00202612
0.00192328
0.00182573
0.00172877
0.00162707
0.0015187
0.00139134
0.00123491
0.000581998
0.000646027
0.000694508
0.000726491
0.000746334
0.000758435
0.000768965
0.000790078
0.000864472
0.000902349
0.00090704
0.000898463
0.00088225
0.000857241
0.000826945
0.000793517
0.000755392
0.000710247
0.000656034
0.000593534
0.000635778
0.00169404
0.00224645
0.00246153
0.00249114
0.0024568
0.00242173
0.00244758
0.0029333
0.00352246
0.00388275
0.00404686
0.0040033
0.0038098
0.00354427
0.00321615
0.0027961
0.00224811
0.00154226
0.000662888
0.000688363
0.00218505
0.00314767
0.00364847
0.00383391
0.00384684
0.00381039
0.00385242
0.00445087
0.00518785
0.00551446
0.00564934
0.00554528
0.00523263
0.0047901
0.00422456
0.00353096
0.00270496
0.00175984
0.000719254
0.000739733
0.00230318
0.00356572
0.00439865
0.00485718
0.00502909
0.00501535
0.00505137
0.00564764
0.00643213
0.00661416
0.00657891
0.00635454
0.0058738
0.00524301
0.00450382
0.00366216
0.00274825
0.00180443
0.000769357
0.000797878
0.00219809
0.00356122
0.00471058
0.00551568
0.00594131
0.00603644
0.00610795
0.00664814
0.00739306
0.00747166
0.00721631
0.00684084
0.00619164
0.00537661
0.00450165
0.00361435
0.00274971
0.00189567
0.000836609
0.00094112
0.00222648
0.00349699
0.00483175
0.00592891
0.00658854
0.0068246
0.00697855
0.00744825
0.00812976
0.00815483
0.00772044
0.00724536
0.00651263
0.00560398
0.00467312
0.00380521
0.00301127
0.00216542
0.000931341
0.001107
0.00275267
0.00398871
0.00526617
0.00636339
0.0070545
0.00732081
0.00757464
0.00796843
0.00857932
0.00860772
0.00808676
0.00757142
0.00687473
0.00606826
0.00526048
0.00443501
0.00358831
0.00259391
0.00102828
0.00124495
0.00348236
0.00496386
0.00591378
0.00666199
0.00715721
0.00748651
0.00787713
0.00823395
0.0086981
0.00870889
0.008062
0.00745297
0.00686894
0.00630382
0.00574937
0.0051058
0.00414845
0.0028969
0.00111908
0.00136668
0.00334853
0.00493629
0.00559319
0.00603058
0.00637312
0.00678128
0.00733718
0.00780496
0.00808893
0.00780601
0.00703631
0.00645734
0.006064
0.00573702
0.0053831
0.00491248
0.00399457
0.00272224
0.00120319
0.00141656
0.00158783
0.00172706
0.00184797
0.00195987
0.00207555
0.00220606
0.00235212
0.00248836
0.00255938
0.00243015
0.0022636
0.00211487
0.00198666
0.00187175
0.00176225
0.00165034
0.00153164
0.00139661
0.00123524
0.000584857
0.000649348
0.000701702
0.000740246
0.000768584
0.00079225
0.000820324
0.000864472
0.000910446
0.000970738
0.000966687
0.000946209
0.000910363
0.000870332
0.000826477
0.000785175
0.000741971
0.000694044
0.000639078
0.000578072
0.000641597
0.00169246
0.00231011
0.00264299
0.00279499
0.00287097
0.0029382
0.0029333
0.00258446
0.00301058
0.00359499
0.0042546
0.00429639
0.00400831
0.00365777
0.00325804
0.00279044
0.00222685
0.00152893
0.000637731
0.000694246
0.00222055
0.00323675
0.0038436
0.00416999
0.0043518
0.00443085
0.00445087
0.00390696
0.00441131
0.00528781
0.0059084
0.00589036
0.00555365
0.00503069
0.00440338
0.00367394
0.00282459
0.00183897
0.000686206
0.00073935
0.00242392
0.00372331
0.00459927
0.00513199
0.00540689
0.00551937
0.00564764
0.0050657
0.00556542
0.00665075
0.00695114
0.00672484
0.00628334
0.00561575
0.00483603
0.00396048
0.00298778
0.00192917
0.000722568
0.000782169
0.00237245
0.00383048
0.00499166
0.00578806
0.00621128
0.00640834
0.00664814
0.00608783
0.00655195
0.00777285
0.00771402
0.00723772
0.00667044
0.00585571
0.00493743
0.00396724
0.00296385
0.00193947
0.000762266
0.000867358
0.00233285
0.00381974
0.00520597
0.00624181
0.00681153
0.00713417
0.00744825
0.0069516
0.00738237
0.00864384
0.00828582
0.007625
0.00697907
0.00607861
0.00508166
0.00407074
0.00307838
0.00207353
0.000854309
0.0010657
0.00271601
0.00420404
0.00558696
0.00663508
0.00721786
0.00755282
0.00796843
0.00763564
0.00802832
0.00920919
0.0086478
0.00790659
0.00724446
0.00638916
0.00547994
0.00454537
0.00355124
0.00244115
0.000966513
0.00121777
0.00357972
0.00500527
0.00602997
0.00676582
0.00721914
0.00766708
0.00823395
0.00821245
0.00853912
0.00942898
0.00861702
0.00776072
0.00709522
0.00642591
0.0057655
0.00506042
0.00413382
0.00282342
0.00106661
0.00135236
0.00344984
0.00491042
0.00558424
0.00604824
0.00646606
0.00704574
0.00780496
0.0082419
0.00852071
0.00864661
0.0075707
0.00669112
0.00614376
0.00573474
0.00532592
0.00482762
0.00407683
0.00267444
0.00116408
0.0014164
0.00159522
0.00174428
0.00187571
0.00200272
0.00214121
0.0023043
0.00248836
0.00264793
0.00271845
0.00260353
0.00238706
0.00219481
0.00203756
0.00190351
0.00178047
0.00165816
0.00152859
0.00138585
0.0012186
0.000583602
0.00064769
0.000700907
0.000742354
0.000775476
0.000806098
0.000844191
0.000902349
0.000970738
0.000992061
0.000991285
0.000974834
0.000933073
0.000882219
0.000832526
0.000787566
0.000743158
0.000695056
0.000640339
0.000577406
0.00062687
0.00164125
0.00227429
0.00267705
0.0029274
0.00312535
0.00334631
0.00352246
0.00301058
0.00200768
0.00284492
0.00451304
0.00434984
0.00403522
0.00366841
0.00325553
0.0027747
0.00221268
0.00153247
0.000611737
0.000684898
0.00220987
0.00323357
0.00391317
0.00437167
0.00470577
0.00494042
0.00518785
0.00441131
0.00301119
0.00477099
0.0063257
0.00605371
0.00568392
0.00512334
0.00447734
0.00374808
0.00291251
0.00193039
0.000655711
0.000731364
0.00248277
0.00376801
0.00467251
0.00529919
0.00573085
0.00598458
0.00643213
0.00556542
0.00408929
0.00648158
0.00742408
0.00692028
0.00647462
0.00580235
0.00502498
0.00415977
0.00318975
0.00208687
0.000690523
0.000768368
0.00249472
0.00396564
0.00510325
0.00591621
0.0064325
0.00677455
0.00739306
0.00655195
0.00520117
0.00786438
0.00819517
0.00746444
0.0069103
0.00612308
0.00522168
0.00425193
0.00320799
0.00207448
0.000719872
0.000820158
0.0024019
0.00399239
0.00535939
0.00635587
0.00695221
0.00740658
0.00812976
0.00738237
0.00627304
0.00888262
0.00873276
0.00784507
0.00721568
0.0063541
0.00536277
0.00431085
0.00320584
0.00204788
0.000777948
0.00100805
0.00263858
0.00426499
0.00569164
0.00671751
0.00731601
0.00781719
0.00857932
0.00802832
0.00722214
0.00950952
0.00901948
0.00808706
0.00742908
0.0065765
0.00562319
0.00460473
0.00348236
0.00227284
0.000912117
0.00118622
0.00347441
0.00493159
0.00601919
0.00679542
0.00729973
0.00786769
0.0086981
0.00853912
0.00806117
0.00974885
0.00894467
0.00794558
0.00721985
0.00648
0.00573959
0.00495312
0.00400823
0.00269015
0.00102317
0.00132633
0.00340007
0.00482866
0.00552667
0.00601443
0.00647413
0.00715221
0.00808893
0.00852071
0.00838626
0.00897595
0.00780695
0.00677822
0.00614835
0.00569156
0.0052447
0.00471557
0.00400911
0.0025575
0.0011197
0.00140173
0.00158355
0.00173835
0.00187809
0.00201627
0.00216938
0.00235216
0.00255938
0.00271845
0.00267249
0.0026692
0.00243878
0.00222296
0.00204821
0.00190157
0.00176837
0.00163738
0.00150058
0.00135301
0.00118615
0.000583988
0.000646225
0.000698674
0.000741217
0.000777199
0.000811678
0.000852464
0.00090704
0.000966687
0.000991285
0.000981389
0.000967222
0.000930145
0.00088531
0.000841666
0.000798188
0.00075363
0.00070619
0.000650945
0.000584767
0.000621923
0.00162218
0.00223904
0.00266071
0.00296262
0.00323547
0.00356721
0.00388275
0.00359499
0.00284492
0.00330386
0.00441908
0.00421498
0.00392967
0.00359197
0.0032178
0.00278623
0.00224282
0.00156178
0.000614241
0.000664589
0.00217465
0.0031546
0.00385699
0.00437705
0.00481292
0.00520889
0.00551446
0.00528781
0.00477099
0.00548343
0.00621641
0.00596571
0.00551574
0.0049847
0.00439378
0.00371649
0.00293005
0.00197584
0.000634484
0.000712434
0.00247198
0.00369745
0.00458811
0.005251
0.00579488
0.00621807
0.00661416
0.00665075
0.00648158
0.00708878
0.00726442
0.00688015
0.00634296
0.00568237
0.00496156
0.00416511
0.00325963
0.00218547
0.000665617
0.000750578
0.00251486
0.00392636
0.00500947
0.00582773
0.00645795
0.00691998
0.00747166
0.00777285
0.00786438
0.00826101
0.00801959
0.00748074
0.00684537
0.0060723
0.00523335
0.00432436
0.00332206
0.00217935
0.000694079
0.000797857
0.00239572
0.003968
0.00527
0.00624297
0.00693712
0.00745519
0.00815483
0.00864384
0.00888262
0.00908039
0.00855957
0.00790838
0.00720828
0.00634909
0.00540374
0.0043866
0.00328031
0.00207098
0.000736106
0.000984269
0.00253566
0.00416394
0.00557724
0.00659729
0.0072854
0.00782887
0.00860772
0.00920919
0.00950952
0.00954939
0.00885128
0.008141
0.00742239
0.00656429
0.0056243
0.0045918
0.00341991
0.00216057
0.000875676
0.0011781
0.00331873
0.00478962
0.00589833
0.00669486
0.00729419
0.00785992
0.00870889
0.00942898
0.00974885
0.00964578
0.00876555
0.00792979
0.00717814
0.00643606
0.00568515
0.00486465
0.00387456
0.00258005
0.000999917
0.00131607
0.00323324
0.00476101
0.00548501
0.00597726
0.00639713
0.00695211
0.00780601
0.00864661
0.00897595
0.00855437
0.0074803
0.00665759
0.00611267
0.00567459
0.0052198
0.00466878
0.00387946
0.00246192
0.00109994
0.00139127
0.00156496
0.00171194
0.00184395
0.00196995
0.00210251
0.00225427
0.00243015
0.00260353
0.0026692
0.00252066
0.00231676
0.0021392
0.00199076
0.00186007
0.00173664
0.00161209
0.00148142
0.00133766
0.00117366
0.00058438
0.000645726
0.000697522
0.000740671
0.000778512
0.000814585
0.000853395
0.000898463
0.000946209
0.000974834
0.000967222
0.000945333
0.000912818
0.000879101
0.000844787
0.000807798
0.000765832
0.00071685
0.000660021
0.000590897
0.000627476
0.00164259
0.00224228
0.0026591
0.00297899
0.00328009
0.00364261
0.00404686
0.0042546
0.00451304
0.00441908
0.00423861
0.00403963
0.00379026
0.00350896
0.00318125
0.00278131
0.00227491
0.00159244
0.000629018
0.000647509
0.00210897
0.00306123
0.0037578
0.00429567
0.00476282
0.00523082
0.00564934
0.0059084
0.0063257
0.00621641
0.0059884
0.0056174
0.00517897
0.00470313
0.00417165
0.00355388
0.00281352
0.00188092
0.000633889
0.000686964
0.0023689
0.00349981
0.004346
0.00501764
0.00560288
0.00614566
0.00657891
0.00695114
0.00742408
0.00726442
0.00694726
0.00648799
0.00589388
0.00527161
0.00461434
0.00388911
0.00305144
0.00204723
0.00064676
0.000726689
0.00240975
0.00371641
0.00472194
0.00550058
0.00615992
0.0067464
0.00721631
0.00771402
0.00819517
0.00801959
0.00762977
0.00709632
0.00640428
0.00566514
0.00490269
0.00408664
0.00316706
0.0020821
0.000673583
0.000778276
0.00228519
0.00375277
0.0049616
0.0058895
0.00662711
0.00722696
0.00772044
0.00828582
0.00873276
0.00855957
0.0081495
0.00759604
0.0068628
0.00605141
0.00517601
0.00421813
0.00315403
0.00197448
0.000716442
0.000973199
0.00238744
0.00391907
0.00526958
0.00626004
0.00698841
0.00757253
0.00808676
0.0086478
0.00901948
0.00885128
0.00843594
0.00788139
0.0071666
0.00635654
0.00546726
0.0044602
0.00329024
0.00204688
0.000860974
0.00117084
0.00313973
0.00456824
0.00565982
0.00643353
0.00702003
0.00752919
0.008062
0.00861702
0.00894467
0.00876555
0.00823276
0.00760515
0.00695358
0.00629174
0.00558281
0.00476786
0.0037474
0.00248032
0.000988767
0.00130151
0.00307796
0.00465457
0.00538943
0.00587202
0.00621768
0.00656201
0.00703631
0.0075707
0.00780695
0.0074803
0.00687386
0.00637464
0.00598222
0.00560613
0.00517398
0.00462285
0.00373888
0.00239627
0.00108898
0.00137358
0.00153704
0.00167496
0.00179779
0.00191016
0.00202058
0.00213723
0.0022636
0.00238706
0.00243878
0.00231676
0.00217199
0.00203914
0.00191939
0.00180697
0.00169578
0.00158007
0.00145743
0.00131971
0.00116173
0.000583704
0.000646
0.000697173
0.000740495
0.000779113
0.000814623
0.00084844
0.00088225
0.000910363
0.000933073
0.000930145
0.000912818
0.000890878
0.000866799
0.000839927
0.000808677
0.000771151
0.000724972
0.000666918
0.000594363
0.000631917
0.00168867
0.00227432
0.00268089
0.00300297
0.00330394
0.00363742
0.0040033
0.00429639
0.00434984
0.00421498
0.00403963
0.00384921
0.00365141
0.00342722
0.00314723
0.00278085
0.00228978
0.00160818
0.000640127
0.00065063
0.00206954
0.00299171
0.00366285
0.00418769
0.0046419
0.00509352
0.00554528
0.00589036
0.00605371
0.00596571
0.0056174
0.00522584
0.00483045
0.00441611
0.0039443
0.00337923
0.00268472
0.00180047
0.000646446
0.000659558
0.00216203
0.00322592
0.00403714
0.00469149
0.00526827
0.00583092
0.00635454
0.00672484
0.00692028
0.00688015
0.00648799
0.00592411
0.00534587
0.00477548
0.00417645
0.00351014
0.00274431
0.00183125
0.000638257
0.000700238
0.00218973
0.00335316
0.00425041
0.00497192
0.00562761
0.00626826
0.00684084
0.00723772
0.00746444
0.00748074
0.00709632
0.00646181
0.00575417
0.00506234
0.00436119
0.00360889
0.00278217
0.00184614
0.000661206
0.000761616
0.00207677
0.00337969
0.00447408
0.00533679
0.00604343
0.00669027
0.00724536
0.007625
0.00784507
0.00790838
0.00759604
0.00700002
0.00627211
0.00551449
0.00473168
0.00385952
0.0028699
0.00179221
0.00071528
0.000976559
0.00220146
0.00357027
0.00482466
0.00576523
0.00647099
0.00706917
0.00757142
0.00790659
0.00808706
0.008141
0.00788139
0.00736289
0.00672791
0.00602811
0.00521645
0.0042594
0.00313003
0.00195469
0.000867512
0.00116224
0.00294812
0.00429286
0.00533914
0.00607702
0.00661785
0.00706145
0.00745297
0.00776072
0.00794558
0.00792979
0.00760515
0.00714257
0.00665017
0.0061127
0.00547125
0.00467494
0.00362458
0.00238649
0.000984698
0.0012818
0.00290582
0.00448563
0.00522833
0.00570419
0.00600857
0.00623131
0.00645734
0.00669112
0.00677822
0.00665759
0.00637464
0.00608423
0.00580055
0.0054834
0.0050867
0.00454717
0.0035909
0.00233706
0.00108113
0.00135045
0.00150213
0.00163034
0.00174358
0.0018438
0.00193624
0.00202612
0.00211487
0.00219481
0.00222296
0.0021392
0.00203914
0.00193943
0.00184247
0.00174619
0.00164714
0.00154134
0.00142811
0.00129811
0.00114796
0.000582088
0.000646891
0.000696793
0.000739051
0.000776731
0.000809912
0.000838022
0.000857241
0.000870332
0.000882219
0.00088531
0.000879101
0.000866799
0.000850009
0.000828901
0.000802832
0.000770209
0.000728053
0.000671553
0.000596806
0.000632406
0.00170931
0.00229073
0.00269365
0.003012
0.00329377
0.00356231
0.0038098
0.00400831
0.00403522
0.00392967
0.00379026
0.00365141
0.00350755
0.00332974
0.00308627
0.00274624
0.00227149
0.00159851
0.000645977
0.000656563
0.00203964
0.00291157
0.00354284
0.00403893
0.00445855