/*--------------------------------*- C++ -*----------------------------------*\
  =========                 |
  \\      /  F ield         | OpenFOAM: The Open Source CFD Toolbox
   \\    /   O peration     | Website:  https://openfoam.org
    \\  /    A nd           | Version:  9
     \\/     M anipulation  |
\*---------------------------------------------------------------------------*/
FoamFile
{
    format      ascii;
    class       volScalarField;
    location    "250";
    object      epsilon;
}
// * * * * * * * * * * * * * * * * * * * * * * * * * * * * * * * * * * * * * //

dimensions      [0 2 -3 0 0 0 0];

internalField   nonuniform List<scalar> 
4000
(
1.06156e-06
9.57242e-07
9.10778e-07
9.40456e-07
1.02562e-06
1.14028e-06
1.25677e-06
1.34885e-06
1.35078e-06
1.308e-06
1.28296e-06
1.27271e-06
1.2633e-06
1.25006e-06
1.2333e-06
1.21062e-06
1.18953e-06
1.18338e-06
1.21306e-06
1.30498e-06
1.8449e-06
1.64935e-06
1.45863e-06
1.3513e-06
1.34866e-06
1.4537e-06
1.62067e-06
1.77073e-06
1.81206e-06
1.66335e-06
1.56741e-06
1.58454e-06
1.61542e-06
1.61669e-06
1.59618e-06
1.58219e-06
1.59716e-06
1.67413e-06
1.83889e-06
2.08564e-06
2.72805e-06
2.57894e-06
2.31005e-06
2.07874e-06
1.97298e-06
1.98141e-06
2.10604e-06
2.2446e-06
2.2998e-06
2.18931e-06
1.95124e-06
1.75319e-06
1.7708e-06
1.81252e-06
1.83426e-06
1.86942e-06
1.99424e-06
2.24064e-06
2.58618e-06
2.90965e-06
3.6016e-06
3.64999e-06
3.43931e-06
3.14765e-06
2.93052e-06
2.82552e-06
2.77905e-06
2.79878e-06
2.7829e-06
2.66765e-06
2.42595e-06
2.12444e-06
1.86027e-06
1.84158e-06
1.92089e-06
2.10283e-06
2.4546e-06
2.93042e-06
3.41091e-06
3.65041e-06
4.42279e-06
4.79522e-06
4.83548e-06
4.66707e-06
4.44594e-06
4.22017e-06
3.96961e-06
3.6288e-06
3.34374e-06
3.11349e-06
2.85953e-06
2.5546e-06
2.26531e-06
2.0966e-06
2.05924e-06
2.49979e-06
3.17366e-06
3.81001e-06
4.27546e-06
4.27842e-06
5.18877e-06
5.96858e-06
6.42842e-06
6.62464e-06
6.65853e-06
6.54242e-06
6.24514e-06
5.70947e-06
4.7061e-06
3.92298e-06
3.53444e-06
3.23198e-06
3.00795e-06
2.93453e-06
3.34484e-06
3.95476e-06
4.51187e-06
4.96157e-06
5.15689e-06
4.81982e-06
5.9196e-06
7.12875e-06
8.0998e-06
8.78664e-06
9.23443e-06
9.4361e-06
9.34272e-06
8.89649e-06
8.04829e-06
7.03171e-06
6.58921e-06
6.29974e-06
6.2472e-06
6.42222e-06
6.54332e-06
6.59102e-06
6.56642e-06
6.44158e-06
6.09746e-06
5.29017e-06
6.60955e-06
8.27223e-06
9.74842e-06
1.09364e-05
1.18475e-05
1.24892e-05
1.27566e-05
1.2557e-05
1.18259e-05
1.08833e-05
1.06193e-05
1.03734e-05
1.00961e-05
9.78727e-06
9.41938e-06
8.98143e-06
8.45814e-06
7.82055e-06
6.95584e-06
5.68331e-06
7.30525e-06
9.49762e-06
1.15206e-05
1.32424e-05
1.46738e-05
1.57417e-05
1.63764e-05
1.64771e-05
1.59923e-05
1.50796e-05
1.46955e-05
1.41839e-05
1.35264e-05
1.27785e-05
1.19638e-05
1.10846e-05
1.01266e-05
9.05597e-06
7.74458e-06
6.05605e-06
8.03629e-06
1.04683e-05
1.26445e-05
1.43948e-05
1.5811e-05
1.69119e-05
1.7697e-05
1.81235e-05
1.81059e-05
1.75098e-05
1.70939e-05
1.64434e-05
1.56352e-05
1.47195e-05
1.37208e-05
1.26421e-05
1.14646e-05
1.01404e-05
8.52739e-06
6.51597e-06
9.57242e-07
1.08358e-06
1.1083e-06
1.15761e-06
1.29679e-06
1.51158e-06
1.71693e-06
1.85112e-06
1.85418e-06
1.79887e-06
1.75588e-06
1.73515e-06
1.72448e-06
1.71899e-06
1.72396e-06
1.74418e-06
1.74579e-06
1.71636e-06
1.63005e-06
1.39247e-06
1.64935e-06
1.86023e-06
1.66773e-06
1.50254e-06
1.48898e-06
1.65115e-06
1.88091e-06
2.1267e-06
2.38961e-06
2.43218e-06
2.11382e-06
1.79763e-06
1.63781e-06
1.57407e-06
1.57481e-06
1.65237e-06
1.81978e-06
2.08544e-06
2.38257e-06
2.23955e-06
2.57894e-06
2.76286e-06
2.5589e-06
2.2804e-06
2.09076e-06
2.04896e-06
2.14743e-06
2.32481e-06
2.57128e-06
2.82285e-06
2.78511e-06
2.31996e-06
1.97468e-06
1.84053e-06
1.82311e-06
1.92093e-06
2.14789e-06
2.49961e-06
2.94123e-06
3.16695e-06
3.64999e-06
3.49854e-06
3.36459e-06
3.11292e-06
2.84978e-06
2.64165e-06
2.56527e-06
2.59409e-06
2.71249e-06
2.89595e-06
2.99432e-06
2.81216e-06
2.35737e-06
2.10545e-06
2.02967e-06
2.15605e-06
2.44012e-06
2.85145e-06
3.37059e-06
4.04421e-06
4.79522e-06
4.27181e-06
4.23728e-06
4.08539e-06
3.87197e-06
3.64298e-06
3.37951e-06
3.19925e-06
3.07627e-06
3.04064e-06
3.0257e-06
2.88515e-06
2.62954e-06
2.4252e-06
2.34195e-06
2.5777e-06
2.97746e-06
3.47558e-06
3.96897e-06
4.83986e-06
5.96858e-06
5.30536e-06
5.46359e-06
5.48258e-06
5.42986e-06
5.29793e-06
5.03341e-06
4.56377e-06
4.07209e-06
3.69222e-06
3.46161e-06
3.23711e-06
3.00142e-06
2.86647e-06
2.9897e-06
3.44171e-06
3.94075e-06
4.46828e-06
4.8385e-06
5.58641e-06
7.12875e-06
6.6654e-06
7.10677e-06
7.30569e-06
7.40744e-06
7.38295e-06
7.20111e-06
6.73212e-06
5.9358e-06
5.38247e-06
5.13404e-06
4.92212e-06
4.74722e-06
4.69423e-06
4.90249e-06
5.11324e-06
5.35142e-06
5.69766e-06
5.86801e-06
6.31585e-06
8.27223e-06
8.43083e-06
9.26907e-06
9.70602e-06
9.97594e-06
1.00733e-05
9.96909e-06
9.58371e-06
8.84839e-06
8.19291e-06
8.13919e-06
8.07159e-06
7.92696e-06
7.77933e-06
7.49342e-06
7.21208e-06
7.03256e-06
7.05888e-06
6.95017e-06
6.99373e-06
9.49762e-06
1.07851e-05
1.25839e-05
1.38249e-05
1.47253e-05
1.52578e-05
1.53733e-05
1.49716e-05
1.40741e-05
1.33086e-05
1.3293e-05
1.30391e-05
1.24989e-05
1.18295e-05
1.10913e-05
1.03536e-05
9.67364e-06
9.12232e-06
8.37734e-06
7.6203e-06
1.04683e-05
1.35787e-05
1.65616e-05
1.91137e-05
2.12946e-05
2.31003e-05
2.45022e-05
2.54215e-05
2.57422e-05
2.51219e-05
2.4221e-05
2.29509e-05
2.14469e-05
1.983e-05
1.81502e-05
1.64243e-05
1.46318e-05
1.27156e-05
1.04997e-05
7.92054e-06
9.10778e-07
1.1083e-06
1.18427e-06
1.26918e-06
1.48558e-06
1.78079e-06
2.0755e-06
2.28505e-06
2.3307e-06
2.28616e-06
2.23573e-06
2.20805e-06
2.19215e-06
2.1771e-06
2.16452e-06
2.16558e-06
2.14446e-06
2.053e-06
1.84753e-06
1.43799e-06
1.45863e-06
1.66773e-06
1.60438e-06
1.54285e-06
1.63014e-06
1.86691e-06
2.16376e-06
2.47238e-06
2.76756e-06
2.7938e-06
2.46123e-06
2.13089e-06
1.96143e-06
1.89726e-06
1.89901e-06
1.97416e-06
2.1289e-06
2.35388e-06
2.55083e-06
2.28947e-06
2.31005e-06
2.5589e-06
2.50016e-06
2.34119e-06
2.23454e-06
2.28437e-06
2.43868e-06
2.66517e-06
2.97348e-06
3.28155e-06
3.18292e-06
2.66687e-06
2.30078e-06
2.1592e-06
2.15552e-06
2.26338e-06
2.48758e-06
2.80859e-06
3.16039e-06
3.29385e-06
3.43931e-06
3.36459e-06
3.30369e-06
3.12919e-06
2.94086e-06
2.81897e-06
2.8202e-06
2.91681e-06
3.11977e-06
3.39702e-06
3.55175e-06
3.27276e-06
2.72966e-06
2.41727e-06
2.33994e-06
2.45477e-06
2.72167e-06
3.11795e-06
3.61218e-06
4.33332e-06
4.83548e-06
4.23728e-06
4.0579e-06
3.82502e-06
3.56122e-06
3.34313e-06
3.23819e-06
3.22286e-06
3.28786e-06
3.42518e-06
3.53289e-06
3.42469e-06
3.09821e-06
2.74086e-06
2.58417e-06
2.75408e-06
3.13014e-06
3.6708e-06
4.2426e-06
5.34521e-06
6.42842e-06
5.46359e-06
5.23101e-06
4.91169e-06
4.53602e-06
4.22413e-06
4.00773e-06
3.86991e-06
3.76883e-06
3.70816e-06
3.65848e-06
3.51833e-06
3.2721e-06
3.0651e-06
3.06059e-06
3.4084e-06
3.95908e-06
4.6698e-06
5.20005e-06
6.33216e-06
8.0998e-06
7.10677e-06
7.1465e-06
6.86445e-06
6.38043e-06
5.89382e-06
5.46738e-06
5.20866e-06
4.93452e-06
4.70532e-06
4.55823e-06
4.39806e-06
4.20693e-06
4.08808e-06
4.20626e-06
4.65988e-06
5.30172e-06
6.07216e-06
6.46862e-06
7.36747e-06
9.74842e-06
9.26907e-06
1.01398e-05
1.02866e-05
9.97436e-06
9.49272e-06
8.93097e-06
8.25928e-06
7.68782e-06
7.30152e-06
7.22054e-06
7.13876e-06
6.97395e-06
6.83742e-06
6.96053e-06
7.17347e-06
7.52827e-06
7.99256e-06
8.00037e-06
8.40979e-06
1.15206e-05
1.25839e-05
1.51432e-05
1.689e-05
1.78401e-05
1.81535e-05
1.78602e-05
1.69693e-05
1.5914e-05
1.52043e-05
1.52361e-05
1.51141e-05
1.4703e-05
1.43201e-05
1.36316e-05
1.28253e-05
1.20112e-05
1.12385e-05
1.00622e-05
9.23861e-06
1.26445e-05
1.65616e-05
2.03227e-05
2.36167e-05
2.64988e-05
2.8977e-05
3.10037e-05
3.25552e-05
3.34594e-05
3.3032e-05
3.15399e-05
2.95655e-05
2.73028e-05
2.49797e-05
2.26189e-05
2.02552e-05
1.7857e-05
1.53457e-05
1.25144e-05
9.33734e-06
9.40456e-07
1.15761e-06
1.26918e-06
1.40111e-06
1.60896e-06
1.92073e-06
2.29576e-06
2.60399e-06
2.72576e-06
2.7179e-06
2.67952e-06
2.65771e-06
2.648e-06
2.63201e-06
2.59832e-06
2.55437e-06
2.46964e-06
2.28864e-06
1.97068e-06
1.4593e-06
1.3513e-06
1.50254e-06
1.54285e-06
1.58177e-06
1.73437e-06
1.99655e-06
2.33675e-06
2.71432e-06
3.02728e-06
3.01262e-06
2.71254e-06
2.42327e-06
2.27289e-06
2.21272e-06
2.20289e-06
2.24406e-06
2.33697e-06
2.46281e-06
2.52976e-06
2.25752e-06
2.07874e-06
2.2804e-06
2.34119e-06
2.31074e-06
2.33119e-06
2.45249e-06
2.64942e-06
2.92586e-06
3.28132e-06
3.55274e-06
3.3646e-06
2.88352e-06
2.55186e-06
2.41932e-06
2.41391e-06
2.50307e-06
2.68355e-06
2.92762e-06
3.16339e-06
3.24836e-06
3.14765e-06
3.11292e-06
3.12919e-06
3.07981e-06
3.00877e-06
3.00925e-06
3.08286e-06
3.23869e-06
3.50229e-06
3.80097e-06
3.88711e-06
3.47188e-06
2.93446e-06
2.63335e-06
2.56257e-06
2.66427e-06
2.90571e-06
3.25746e-06
3.68484e-06
4.378e-06
4.66707e-06
4.08539e-06
3.82502e-06
3.6268e-06
3.47473e-06
3.41033e-06
3.43529e-06
3.52983e-06
3.69919e-06
3.90062e-06
3.99334e-06
3.8071e-06
3.35277e-06
2.92202e-06
2.75847e-06
2.90807e-06
3.28307e-06
3.82115e-06
4.39458e-06
5.57252e-06
6.62464e-06
5.48258e-06
4.91169e-06
4.40732e-06
3.99959e-06
3.82436e-06
3.83218e-06
3.91125e-06
4.01438e-06
4.09395e-06
4.08484e-06
3.91952e-06
3.60931e-06
3.32301e-06
3.20893e-06
3.51712e-06
4.12332e-06
4.89443e-06
5.44426e-06
6.79419e-06
8.78664e-06
7.30569e-06
6.86445e-06
6.20391e-06
5.48125e-06
5.11798e-06
5.04278e-06
5.0262e-06
4.99269e-06
4.92099e-06
4.81664e-06
4.64904e-06
4.42373e-06
4.25724e-06
4.31547e-06
4.83167e-06
5.63359e-06
6.52398e-06
6.86781e-06
8.07283e-06
1.09364e-05
9.70602e-06
1.02866e-05
1.02099e-05
9.6882e-06
9.36522e-06
9.10119e-06
8.69449e-06
8.2522e-06
7.9252e-06
7.8736e-06
7.82707e-06
7.67498e-06
7.52203e-06
7.52369e-06
7.85768e-06
8.4081e-06
8.93206e-06
8.71415e-06
9.42185e-06
1.32424e-05
1.38249e-05
1.689e-05
1.90772e-05
2.01179e-05
2.03095e-05
1.98427e-05
1.90455e-05
1.83009e-05
1.78541e-05
1.81584e-05
1.82867e-05
1.79367e-05
1.72593e-05
1.64935e-05
1.55205e-05
1.43838e-05
1.31162e-05
1.12836e-05
1.0509e-05
1.43948e-05
1.91137e-05
2.36167e-05
2.76249e-05
3.12311e-05
3.45225e-05
3.73588e-05
3.96724e-05
4.13526e-05
4.13975e-05
3.91998e-05
3.6384e-05
3.32712e-05
3.00698e-05
2.688e-05
2.38267e-05
2.07995e-05
1.76761e-05
1.42227e-05
1.04448e-05
1.02562e-06
1.29679e-06
1.48558e-06
1.60896e-06
1.71804e-06
1.94983e-06
2.38182e-06
2.81139e-06
3.03892e-06
3.09216e-06
3.08807e-06
3.09134e-06
3.10187e-06
3.09055e-06
3.03064e-06
2.92717e-06
2.75406e-06
2.47022e-06
2.0496e-06
1.47189e-06
1.34866e-06
1.48898e-06
1.63014e-06
1.73437e-06
1.85352e-06
2.06386e-06
2.42632e-06
2.90564e-06
3.24695e-06
3.21346e-06
2.95297e-06
2.71262e-06
2.58265e-06
2.51865e-06
2.48348e-06
2.474e-06
2.48599e-06
2.4964e-06
2.43733e-06
2.2009e-06
1.97298e-06
2.09076e-06
2.23454e-06
2.33119e-06
2.42945e-06
2.57295e-06
2.80567e-06
3.16935e-06
3.59318e-06
3.78217e-06
3.50662e-06
3.07027e-06
2.77274e-06
2.64072e-06
2.61344e-06
2.65732e-06
2.76103e-06
2.89721e-06
3.01624e-06
3.10514e-06
2.93052e-06
2.84978e-06
2.94086e-06
3.00877e-06
3.0792e-06
3.17718e-06
3.33152e-06
3.5922e-06
3.95608e-06
4.22808e-06
4.09637e-06
3.57582e-06
3.07013e-06
2.79185e-06
2.71345e-06
2.7783e-06
2.95768e-06
3.22709e-06
3.57601e-06
4.21384e-06
4.44594e-06
3.87197e-06
3.56122e-06
3.47473e-06
3.50659e-06
3.6171e-06
3.7904e-06
4.04056e-06
4.34826e-06
4.54603e-06
4.44132e-06
4.02356e-06
3.45123e-06
3.03331e-06
2.8729e-06
2.99362e-06
3.32319e-06
3.80185e-06
4.35416e-06
5.48452e-06
6.65853e-06
5.42986e-06
4.53602e-06
3.99959e-06
3.83324e-06
3.95605e-06
4.20714e-06
4.51914e-06
4.81908e-06
4.91685e-06
4.71345e-06
4.32668e-06
3.88074e-06
3.51762e-06
3.34983e-06
3.63329e-06
4.2064e-06
4.91409e-06
5.46073e-06
6.8562e-06
9.23443e-06
7.40745e-06
6.38043e-06
5.48125e-06
5.10069e-06
5.198e-06
5.42943e-06
5.68071e-06
5.8859e-06
5.84518e-06
5.55164e-06
5.19787e-06
4.87972e-06
4.68572e-06
4.71951e-06
5.15995e-06
5.91892e-06
6.70857e-06
6.94105e-06
8.33699e-06
1.18475e-05
9.97594e-06
9.97437e-06
9.6882e-06
9.74367e-06
9.84119e-06
9.72775e-06
9.56988e-06
9.44146e-06
9.14456e-06
8.89494e-06
8.77384e-06
8.64243e-06
8.54223e-06
8.5445e-06
8.73066e-06
9.1584e-06
9.46298e-06
8.96969e-06
9.98965e-06
1.46738e-05
1.47253e-05
1.78401e-05
2.01179e-05
2.13042e-05
2.15871e-05
2.11789e-05
2.0537e-05
2.02556e-05
2.00507e-05
2.03311e-05
2.05905e-05
2.04393e-05
1.98516e-05
1.89414e-05
1.7726e-05
1.62197e-05
1.4401e-05
1.20034e-05
1.13494e-05
1.5811e-05
2.12946e-05
2.64988e-05
3.12311e-05
3.57462e-05
3.98462e-05
4.36085e-05
4.70884e-05
5.00694e-05
5.09358e-05
4.75454e-05
4.34257e-05
3.91587e-05
3.49856e-05
3.09693e-05
2.7079e-05
2.33674e-05
1.96209e-05
1.55755e-05
1.12516e-05
1.14028e-06
1.51158e-06
1.78079e-06
1.92073e-06
1.94983e-06
1.97074e-06
2.3587e-06
2.9272e-06
3.30702e-06
3.45321e-06
3.50438e-06
3.5413e-06
3.56216e-06
3.53224e-06
3.42745e-06
3.24953e-06
2.97626e-06
2.59327e-06
2.09111e-06
1.47697e-06
1.4537e-06
1.65115e-06
1.86691e-06
1.99655e-06
2.06386e-06
2.13921e-06
2.48779e-06
3.1428e-06
3.56398e-06
3.53035e-06
3.2763e-06
3.04735e-06
2.90703e-06
2.81173e-06
2.73145e-06
2.66253e-06
2.59439e-06
2.50082e-06
2.33602e-06
2.1383e-06
1.98141e-06
2.04896e-06
2.28437e-06
2.45249e-06
2.57295e-06
2.70351e-06
3.00197e-06
3.58723e-06
4.19056e-06
4.25814e-06
3.82717e-06
3.33648e-06
3.01889e-06
2.8567e-06
2.78555e-06
2.76741e-06
2.78148e-06
2.80125e-06
2.80792e-06
2.92059e-06
2.82552e-06
2.64165e-06
2.81897e-06
3.00925e-06
3.17718e-06
3.36788e-06
3.69424e-06
4.28474e-06
4.97744e-06
5.13844e-06
4.54312e-06
3.79096e-06
3.2429e-06
2.94903e-06
2.83595e-06
2.83866e-06
2.92648e-06
3.0853e-06
3.3413e-06
3.9128e-06
4.22017e-06
3.64298e-06
3.34313e-06
3.41033e-06
3.6171e-06
3.91958e-06
4.39037e-06
5.13643e-06
5.94878e-06
6.08198e-06
5.25915e-06
4.30373e-06
3.57984e-06
3.14013e-06
2.95658e-06
3.01007e-06
3.24483e-06
3.61948e-06
4.12358e-06
5.14569e-06
6.54242e-06
5.29793e-06
4.22413e-06
3.82436e-06
3.95605e-06
4.38139e-06
5.05563e-06
6.0521e-06
7.04647e-06
7.09273e-06
5.99455e-06
4.88203e-06
4.11621e-06
3.66247e-06
3.46231e-06
3.64004e-06
4.09664e-06
4.67872e-06
5.21311e-06
6.58128e-06
9.4361e-06
7.38295e-06
5.89382e-06
5.11798e-06
5.198e-06
5.67325e-06
6.40025e-06
7.51047e-06
8.60712e-06
8.50991e-06
7.17105e-06
6.0087e-06
5.35939e-06
5.08306e-06
5.0673e-06
5.30589e-06
5.8939e-06
6.47429e-06
6.65185e-06
8.19972e-06
1.24892e-05
1.00733e-05
9.49272e-06
9.36522e-06
9.84119e-06
1.01555e-05
1.05134e-05
1.14399e-05
1.24993e-05
1.22158e-05
1.0701e-05
9.74318e-06
9.35772e-06
9.2511e-06
9.26193e-06
9.25749e-06
9.39057e-06
9.37666e-06
8.74535e-06
1.00805e-05
1.57417e-05
1.52578e-05
1.81535e-05
2.03095e-05
2.15871e-05
2.19192e-05
2.17874e-05
2.20481e-05
2.29869e-05
2.30588e-05
2.22636e-05
2.18341e-05
2.15869e-05
2.11235e-05
2.02732e-05
1.90116e-05
1.71737e-05
1.49302e-05
1.21946e-05
1.17166e-05
1.69119e-05
2.31003e-05
2.8977e-05
3.45225e-05
3.98462e-05
4.49524e-05
5.0167e-05
5.56433e-05
6.08616e-05
6.309e-05
5.74925e-05
5.1135e-05
4.5121e-05
3.96471e-05
3.46445e-05
2.99425e-05
2.54632e-05
2.11e-05
1.65279e-05
1.17633e-05
1.25677e-06
1.71693e-06
2.0755e-06
2.29576e-06
2.38182e-06
2.3587e-06
2.40123e-06
3.01235e-06
3.63229e-06
3.93065e-06
4.04154e-06
4.07675e-06
4.04275e-06
3.92673e-06
3.72085e-06
3.43799e-06
3.07014e-06
2.6162e-06
2.07257e-06
1.46859e-06
1.62067e-06
1.88091e-06
2.16376e-06
2.33675e-06
2.42632e-06
2.48779e-06
2.77466e-06
3.71459e-06
4.46684e-06
4.40949e-06
3.94491e-06
3.53986e-06
3.28482e-06
3.09849e-06
2.94313e-06
2.80491e-06
2.66458e-06
2.48966e-06
2.24523e-06
2.06005e-06
2.10604e-06
2.14743e-06
2.43868e-06
2.64942e-06
2.80567e-06
3.00197e-06
3.51878e-06
4.79104e-06
6.12275e-06
6.15424e-06
4.9513e-06
3.92686e-06
3.39349e-06
3.12436e-06
2.97643e-06
2.8826e-06
2.80577e-06
2.71266e-06
2.60366e-06
2.70762e-06
2.77905e-06
2.56527e-06
2.8202e-06
3.08286e-06
3.33152e-06
3.69424e-06
4.51662e-06
6.29953e-06
8.48865e-06
8.63933e-06
6.40393e-06
4.5647e-06
3.62926e-06
3.19661e-06
3.00012e-06
2.91525e-06
2.89091e-06
2.91444e-06
3.0438e-06
3.51412e-06
3.96961e-06
3.37951e-06
3.23819e-06
3.43529e-06
3.7904e-06
4.39037e-06
5.66129e-06
8.23712e-06
1.1368e-05
1.16428e-05
8.11508e-06
5.3605e-06
3.98942e-06
3.35753e-06
3.07891e-06
3.01777e-06
3.11288e-06
3.34091e-06
3.75384e-06
4.60675e-06
6.24514e-06
5.03341e-06
4.00773e-06
3.83218e-06
4.20714e-06
5.05563e-06
6.84028e-06
1.03455e-05
1.43678e-05
1.47204e-05
9.92762e-06
6.30897e-06
4.61053e-06
3.88099e-06
3.57039e-06
3.55833e-06
3.82589e-06
4.24251e-06
4.76827e-06
6.0346e-06
9.34272e-06
7.20111e-06
5.46738e-06
5.04278e-06
5.42943e-06
6.40025e-06
8.5131e-06
1.28269e-05
1.76022e-05
1.77173e-05
1.19575e-05
7.75982e-06
5.97621e-06
5.37007e-06
5.20767e-06
5.18993e-06
5.50944e-06
5.86544e-06
6.11866e-06
7.74587e-06
1.27566e-05
9.96909e-06
8.93097e-06
9.10119e-06
9.72775e-06
1.05134e-05
1.23703e-05
1.63522e-05
2.08014e-05
2.1429e-05
1.57616e-05
1.14879e-05
9.9175e-06
9.50508e-06
9.4287e-06
9.30595e-06
9.02504e-06
8.72766e-06
8.18281e-06
9.75132e-06
1.63764e-05
1.53733e-05
1.78602e-05
1.98427e-05
2.11789e-05
2.17874e-05
2.28391e-05
2.55655e-05
2.9245e-05
3.0101e-05
2.6139e-05
2.30909e-05
2.18846e-05
2.12918e-05
2.05182e-05
1.92126e-05
1.72115e-05
1.47644e-05
1.19274e-05
1.16519e-05
1.7697e-05
2.45022e-05
3.10037e-05
3.73588e-05
4.36085e-05
5.0167e-05
5.7677e-05
6.64578e-05
7.54029e-05
7.9941e-05
7.04577e-05
6.01973e-05
5.1444e-05
4.4148e-05
3.79011e-05
3.23045e-05
2.70302e-05
2.20845e-05
1.7073e-05
1.1999e-05
1.34885e-06
1.85112e-06
2.28505e-06
2.60399e-06
2.81139e-06
2.9272e-06
3.01235e-06
3.23771e-06
4.20224e-06
4.76166e-06
4.86079e-06
4.7699e-06
4.56388e-06
4.23489e-06
3.84442e-06
3.4288e-06
2.98363e-06
2.49645e-06
1.96429e-06
1.41984e-06
1.77073e-06
2.1267e-06
2.47238e-06
2.71432e-06
2.90564e-06
3.1428e-06
3.71459e-06
5.20125e-06
7.66356e-06
8.05299e-06
6.03244e-06
4.49744e-06
3.82304e-06
3.42882e-06
3.14656e-06
2.92269e-06
2.71641e-06
2.48002e-06
2.17493e-06
1.93872e-06
2.2446e-06
2.32481e-06
2.66517e-06
2.92586e-06
3.16935e-06
3.58723e-06
4.79104e-06
7.95847e-06
1.2913e-05
1.47127e-05
9.36261e-06
5.53969e-06
4.102e-06
3.53277e-06
3.24572e-06
3.05618e-06
2.8898e-06
2.69268e-06
2.45701e-06
2.45622e-06
2.79878e-06
2.59409e-06
2.91681e-06
3.23869e-06
3.5922e-06
4.28474e-06
6.29953e-06
1.16812e-05
1.98287e-05
2.30441e-05
1.36511e-05
7.04932e-06
4.54328e-06
3.65766e-06
3.28963e-06
3.08805e-06
2.93762e-06
2.80447e-06
2.7505e-06
3.04021e-06
3.6288e-06
3.19925e-06
3.22286e-06
3.52983e-06
4.04056e-06
5.13643e-06
8.23712e-06
1.61528e-05
2.69946e-05
3.13955e-05
1.82716e-05
8.7955e-06
5.10617e-06
3.83222e-06
3.33507e-06
3.10786e-06
3.02483e-06
3.0587e-06
3.29741e-06
3.89894e-06
5.70947e-06
4.56377e-06
3.86991e-06
3.91125e-06
4.51914e-06
6.0521e-06
1.03455e-05
2.06685e-05
3.27395e-05
3.78562e-05
2.25411e-05
1.05945e-05
5.88432e-06
4.31659e-06
3.73549e-06
3.49324e-06
3.50528e-06
3.71927e-06
4.18607e-06
5.25437e-06
8.89649e-06
6.73212e-06
5.20866e-06
5.0262e-06
5.68071e-06
7.51047e-06
1.28269e-05
2.37557e-05
3.52686e-05
4.09274e-05
2.60068e-05
1.24765e-05
7.24226e-06
5.6715e-06
5.18968e-06
4.96443e-06
4.87267e-06
5.03744e-06
5.43329e-06
7.0006e-06
1.2557e-05
9.58371e-06
8.25928e-06
8.69449e-06
9.56988e-06
1.14399e-05
1.63522e-05
2.60146e-05
3.60002e-05
4.08552e-05
2.85411e-05
1.58499e-05
1.08905e-05
9.47844e-06
9.10054e-06
8.78603e-06
8.1836e-06
7.67648e-06
7.38348e-06
9.04265e-06
1.64771e-05
1.49716e-05
1.69693e-05
1.90455e-05
2.0537e-05
2.20481e-05
2.55655e-05
3.27768e-05
4.11658e-05
4.43209e-05
3.51383e-05
2.60973e-05
2.22602e-05
2.08685e-05
1.9952e-05
1.85954e-05
1.65972e-05
1.39933e-05
1.12478e-05
1.11698e-05
1.81235e-05
2.54215e-05
3.25552e-05
3.96724e-05
4.70884e-05
5.56433e-05
6.64578e-05
8.01098e-05
9.43517e-05
0.000102408
8.7772e-05
7.11699e-05
5.82418e-05
4.84375e-05
4.06415e-05
3.40347e-05
2.8063e-05
2.25296e-05
1.71746e-05
1.1945e-05
1.35078e-06
1.85418e-06
2.3307e-06
2.72576e-06
3.03892e-06
3.30702e-06
3.63229e-06
4.20224e-06
4.8838e-06
5.90899e-06
5.89265e-06
5.57656e-06
5.02081e-06
4.43377e-06
3.83792e-06
3.30184e-06
2.79781e-06
2.29828e-06
1.7958e-06
1.31465e-06
1.81206e-06
2.38961e-06
2.76756e-06
3.02728e-06
3.24695e-06
3.56398e-06
4.46684e-06
7.66356e-06
1.41848e-05
1.88387e-05
1.20539e-05
6.46897e-06
4.52686e-06
3.78712e-06
3.35207e-06
3.04075e-06
2.7756e-06
2.49733e-06
2.14206e-06
1.74902e-06
2.2998e-06
2.57128e-06
2.97348e-06
3.28132e-06
3.59318e-06
4.19056e-06
6.12275e-06
1.2913e-05
2.38833e-05
3.09857e-05
2.01817e-05
9.56185e-06
5.34079e-06
4.12873e-06
3.62747e-06
3.31734e-06
3.0545e-06
2.75914e-06
2.39247e-06
2.16876e-06
2.7829e-06
2.71249e-06
3.11977e-06
3.50229e-06
3.95608e-06
4.97744e-06
8.48865e-06
1.98287e-05
3.25913e-05
4.02999e-05
2.88382e-05
1.30615e-05
6.25678e-06
4.38223e-06
3.73427e-06
3.39075e-06
3.11586e-06
2.82867e-06
2.55255e-06
2.56089e-06
3.34374e-06
3.07627e-06
3.28786e-06
3.69919e-06
4.34826e-06
5.94878e-06
1.1368e-05
2.69946e-05
3.92729e-05
4.64704e-05
3.69328e-05
1.64741e-05
7.23185e-06
4.61266e-06
3.75674e-06
3.34823e-06
3.07616e-06
2.87823e-06
2.83881e-06
3.08456e-06
4.7061e-06
4.07209e-06
3.76883e-06
4.01438e-06
4.81908e-06
7.04647e-06
1.43678e-05
3.27395e-05
4.35103e-05
4.99609e-05
4.32429e-05
1.93113e-05
8.23706e-06
5.03332e-06
4.0138e-06
3.54586e-06
3.28983e-06
3.24243e-06
3.52452e-06
4.18892e-06
8.04829e-06
5.9358e-06
4.93452e-06
4.99269e-06
5.8859e-06
8.60712e-06
1.76022e-05
3.52686e-05
4.52726e-05
5.08945e-05
4.63521e-05
2.11591e-05
9.46087e-06
6.12422e-06
5.13265e-06
4.64682e-06
4.28969e-06
4.19061e-06
4.64934e-06
5.88217e-06
1.18259e-05
8.84839e-06
7.68782e-06
8.2522e-06
9.44146e-06
1.24993e-05
2.08014e-05
3.60002e-05
4.66784e-05
5.13702e-05
4.66706e-05
2.31649e-05
1.25025e-05
9.40132e-06
8.52583e-06
7.95091e-06
7.17829e-06
6.42117e-06
6.42548e-06
7.85712e-06
1.59923e-05
1.40741e-05
1.5914e-05
1.83009e-05
2.02556e-05
2.29869e-05
2.9245e-05
4.11658e-05
5.31938e-05
5.69302e-05
4.86693e-05
3.1306e-05
2.3333e-05
2.04568e-05
1.90307e-05
1.74477e-05
1.52109e-05
1.25342e-05
1.00894e-05
1.01311e-05
1.81059e-05
2.57422e-05
3.34594e-05
4.13526e-05
5.00694e-05
6.08616e-05
7.54029e-05
9.43517e-05
0.000113071
0.000122416
0.000107445
8.3112e-05
6.48599e-05
5.20693e-05
4.25795e-05
3.49465e-05
2.83312e-05
2.23084e-05
1.67369e-05
1.14547e-05
1.308e-06
1.79887e-06
2.28616e-06
2.7179e-06
3.09216e-06
3.45321e-06
3.93065e-06
4.76166e-06
5.90899e-06
6.41971e-06
6.40748e-06
6.05767e-06
5.34509e-06
4.55761e-06
3.86385e-06
3.27408e-06
2.74716e-06
2.2415e-06
1.74564e-06
1.27129e-06
1.66335e-06
2.43218e-06
2.7938e-06
3.01262e-06
3.21346e-06
3.53035e-06
4.40949e-06
8.05299e-06
1.88387e-05
1.35851e-05
1.24377e-05
7.75459e-06
4.52605e-06
3.75722e-06
3.32248e-06
3.00092e-06
2.72519e-06
2.43609e-06
2.06051e-06
1.52899e-06
2.18931e-06
2.82285e-06
3.28155e-06
3.55274e-06
3.78217e-06
4.25814e-06
6.15424e-06
1.47127e-05
3.09857e-05
1.7031e-05
2.10714e-05
1.34717e-05
5.94508e-06
4.35365e-06
3.80815e-06
3.46918e-06
3.17036e-06
2.83294e-06
2.38218e-06
1.88266e-06
2.66765e-06
2.89595e-06
3.39702e-06
3.80097e-06
4.22808e-06
5.13844e-06
8.63933e-06
2.30441e-05
4.02999e-05
2.06493e-05
3.16048e-05
1.81613e-05
7.44462e-06
4.91795e-06
4.13946e-06
3.71293e-06
3.3424e-06
2.93617e-06
2.47979e-06
2.20812e-06
3.11349e-06
3.04064e-06
3.42518e-06
3.90062e-06
4.54603e-06
6.08198e-06
1.16428e-05
3.13955e-05
4.64704e-05
2.50596e-05
4.17809e-05
2.20409e-05
8.76841e-06
5.26772e-06
4.1865e-06
3.65336e-06
3.24609e-06
2.86777e-06
2.57199e-06
2.53125e-06
3.92298e-06
3.69222e-06
3.70816e-06
4.09395e-06
4.91685e-06
7.09273e-06
1.47204e-05
3.78562e-05
4.99609e-05
2.96962e-05
4.9489e-05
2.4792e-05
9.85885e-06
5.61567e-06
4.30441e-06
3.67695e-06
3.24574e-06
2.96912e-06
2.97281e-06
3.25661e-06
7.03171e-06
5.38247e-06
4.70532e-06
4.92099e-06
5.84518e-06
8.50991e-06
1.77173e-05
4.09274e-05
5.08945e-05
3.36768e-05
5.32229e-05
2.59162e-05
1.08058e-05
6.42955e-06
5.0949e-06
4.40916e-06
3.87981e-06
3.60937e-06
3.99272e-06
4.93974e-06
1.08833e-05
8.19291e-06
7.30152e-06
7.9252e-06
9.14456e-06
1.22158e-05
2.1429e-05
4.08552e-05
5.13702e-05
3.78302e-05
5.37606e-05
2.65676e-05
1.30596e-05
9.17582e-06
8.02516e-06
7.23815e-06
6.30191e-06
5.46231e-06
5.72503e-06
6.8563e-06
1.50796e-05
1.33086e-05
1.52043e-05
1.78541e-05
2.00507e-05
2.30588e-05
3.0101e-05
4.43209e-05
5.69302e-05
4.79184e-05
5.36149e-05
3.3094e-05
2.32155e-05
1.97219e-05
1.80793e-05
1.63374e-05
1.39521e-05
1.12462e-05
8.97912e-06
8.97981e-06
1.75098e-05
2.51219e-05
3.3032e-05
4.13975e-05
5.09358e-05
6.309e-05
7.9941e-05
0.000102408
0.000122416
0.000117322
0.000115497
8.83184e-05
6.7166e-05
5.2725e-05
4.23142e-05
3.41278e-05
2.7188e-05
2.10229e-05
1.55035e-05
1.05068e-05
1.28296e-06
1.75588e-06
2.23573e-06
2.67952e-06
3.08807e-06
3.50438e-06
4.04154e-06
4.86079e-06
5.89265e-06
6.40748e-06
6.19233e-06
5.88451e-06
5.27063e-06
4.56965e-06
3.948e-06
3.38012e-06
2.84003e-06
2.32397e-06
1.80654e-06
1.29493e-06
1.56741e-06
2.11382e-06
2.46123e-06
2.71254e-06
2.95297e-06
3.2763e-06
3.94491e-06
6.03244e-06
1.20539e-05
1.24377e-05
8.9412e-06
5.15519e-06
3.82171e-06
3.36465e-06
3.04373e-06
2.7744e-06
2.52035e-06
2.24131e-06
1.89258e-06
1.50428e-06
1.95124e-06
2.78511e-06
3.18292e-06
3.3646e-06
3.50662e-06
3.82717e-06
4.9513e-06
9.36261e-06
2.01817e-05
2.10714e-05
1.49137e-05
7.93961e-06
4.58937e-06
3.74322e-06
3.39806e-06
3.15011e-06
2.9042e-06
2.60922e-06
2.20338e-06
1.66802e-06
2.42595e-06
2.99432e-06
3.55175e-06
3.88711e-06
4.09637e-06
4.54312e-06
6.40393e-06
1.36511e-05
2.88382e-05
3.16048e-05
2.18405e-05
1.07744e-05
5.72961e-06
4.37698e-06
3.90168e-06
3.59631e-06
3.2821e-06
2.88921e-06
2.38469e-06
1.94183e-06
2.85953e-06
3.0257e-06
3.53289e-06
3.99334e-06
4.44132e-06
5.25915e-06
8.11508e-06
1.82716e-05
3.69328e-05
4.17809e-05
2.82466e-05
1.3531e-05
6.88292e-06
4.92316e-06
4.20574e-06
3.74656e-06
3.30744e-06
2.83971e-06
2.39808e-06
2.22734e-06
3.53444e-06
3.46161e-06
3.65848e-06
4.08484e-06
4.71345e-06
5.99455e-06
9.92762e-06
2.25411e-05
4.32429e-05
4.9489e-05
3.31105e-05
1.57699e-05
7.88354e-06
5.36553e-06
4.35925e-06
3.74064e-06
3.23264e-06
2.82335e-06
2.64095e-06
2.71106e-06
6.58921e-06
5.13404e-06
4.55823e-06
4.81664e-06
5.55164e-06
7.17105e-06
1.19575e-05
2.60068e-05
4.63521e-05
5.32229e-05
3.56392e-05
1.71533e-05
8.89118e-06
6.15882e-06
5.04808e-06
4.30899e-06
3.68525e-06
3.31771e-06
3.56615e-06
4.39788e-06
1.06193e-05
8.13919e-06
7.22054e-06
7.8736e-06
8.89494e-06
1.0701e-05
1.57616e-05
2.85411e-05
4.66706e-05
5.37606e-05
3.67884e-05
1.88476e-05
1.12998e-05
8.93531e-06
7.95592e-06
7.04417e-06
5.97649e-06
5.10717e-06
5.44589e-06
6.37655e-06
1.46955e-05
1.3293e-05
1.52361e-05
1.81584e-05
2.03311e-05
2.22636e-05
2.6139e-05
3.51383e-05
4.86693e-05
5.36149e-05
4.04218e-05
2.72608e-05
2.16241e-05
1.95337e-05
1.81626e-05
1.63476e-05
1.38006e-05
1.10222e-05
8.63739e-06
8.49639e-06
1.70939e-05
2.4221e-05
3.15399e-05
3.91998e-05
4.75454e-05
5.74925e-05
7.04577e-05
8.7772e-05
0.000107445
0.000115497
9.7288e-05
7.58161e-05
5.99098e-05
4.84339e-05
3.96129e-05
3.23237e-05
2.59379e-05
2.01898e-05
1.49525e-05
1.0159e-05
1.27271e-06
1.73515e-06
2.20805e-06
2.65771e-06
3.09134e-06
3.5413e-06
4.07675e-06
4.7699e-06
5.57656e-06
6.05767e-06
5.88451e-06
5.52135e-06
4.99177e-06
4.47574e-06
3.98504e-06
3.49192e-06
2.9764e-06
2.43408e-06
1.88023e-06
1.32607e-06
1.58454e-06
1.79763e-06
2.13089e-06
2.42327e-06
2.71262e-06
3.04735e-06
3.53986e-06
4.49744e-06
6.46897e-06
7.75459e-06
5.15519e-06
3.73713e-06
3.2769e-06
2.99657e-06
2.7821e-06
2.58123e-06
2.3623e-06
2.10175e-06
1.78707e-06
1.59983e-06
1.75319e-06
2.31996e-06
2.66687e-06
2.88352e-06
3.07027e-06
3.33648e-06
3.92686e-06
5.53969e-06
9.56185e-06
1.34717e-05
7.93961e-06
4.56629e-06
3.48863e-06
3.10766e-06
2.90066e-06
2.72653e-06
2.53199e-06
2.28508e-06
1.94626e-06
1.64897e-06
2.12444e-06
2.81216e-06
3.27276e-06
3.47188e-06
3.57582e-06
3.79096e-06
4.5647e-06
7.04932e-06
1.30615e-05
1.81613e-05
1.07744e-05
5.92302e-06
4.12072e-06
3.48829e-06
3.21186e-06
3.00942e-06
2.79063e-06
2.50115e-06
2.12929e-06
1.75703e-06
2.5546e-06
2.88515e-06
3.42469e-06
3.8071e-06
4.02356e-06
4.30373e-06
5.3605e-06
8.7955e-06
1.64741e-05
2.20409e-05
1.3531e-05
7.44877e-06
4.95467e-06
4.03956e-06
3.63003e-06
3.33107e-06
3.01096e-06
2.61465e-06
2.19362e-06
2.01589e-06
3.23198e-06
3.23711e-06
3.51833e-06
3.91952e-06
4.32668e-06
4.88203e-06
6.30897e-06
1.05945e-05
1.93113e-05
2.4792e-05
1.57699e-05
8.86964e-06
5.86296e-06
4.6825e-06
4.07309e-06
3.56568e-06
3.07091e-06
2.63457e-06
2.40117e-06
2.48137e-06
6.29974e-06
4.92212e-06
4.39806e-06
4.64904e-06
5.19787e-06
6.0087e-06
7.75982e-06
1.24765e-05
2.11591e-05
2.59162e-05
1.71533e-05
1.01135e-05
7.016e-06
5.76257e-06
4.9763e-06
4.25328e-06
3.57622e-06
3.15133e-06
3.33143e-06
4.15739e-06
1.03734e-05
8.07159e-06
7.13876e-06
7.82707e-06
8.77384e-06
9.74318e-06
1.14879e-05
1.58499e-05
2.31649e-05
2.65676e-05
1.88476e-05
1.25107e-05
9.85419e-06
8.84717e-06
8.09533e-06
7.12733e-06
5.9534e-06
5.05468e-06
5.27659e-06
6.14592e-06
1.41839e-05
1.30391e-05
1.51141e-05
1.82867e-05
2.05905e-05
2.18341e-05
2.30909e-05
2.60973e-05
3.1306e-05
3.3094e-05
2.72608e-05
2.24605e-05
2.0419e-05
1.94251e-05
1.82553e-05
1.64158e-05
1.38218e-05
1.10434e-05
8.45489e-06
8.23043e-06
1.64434e-05
2.29509e-05
2.95655e-05
3.6384e-05
4.34257e-05
5.1135e-05
6.01973e-05
7.11699e-05
8.3112e-05
8.83184e-05
7.58161e-05
6.26382e-05
5.19727e-05
4.34538e-05
3.63473e-05
3.01223e-05
2.44441e-05
1.92354e-05
1.43579e-05
9.84891e-06
1.2633e-06
1.72448e-06
2.19215e-06
2.648e-06
3.10187e-06
3.56216e-06
4.04275e-06
4.56388e-06
5.02081e-06
5.34509e-06
5.27063e-06
4.99177e-06
4.65632e-06
4.30116e-06
3.92047e-06
3.49989e-06
3.02888e-06
2.50433e-06
1.93243e-06
1.34151e-06
1.61542e-06
1.63781e-06
1.96143e-06
2.27289e-06
2.58265e-06
2.90703e-06
3.28482e-06
3.82304e-06
4.52686e-06
4.52605e-06
3.82171e-06
3.2769e-06
2.96069e-06
2.76826e-06
2.62234e-06
2.47535e-06
2.29733e-06
2.06491e-06
1.77232e-06
1.68488e-06
1.7708e-06
1.97468e-06
2.30078e-06
2.55186e-06
2.77274e-06
3.01889e-06
3.39349e-06
4.102e-06
5.34079e-06
5.94508e-06
4.58937e-06
3.48863e-06
2.97792e-06
2.74296e-06
2.61173e-06
2.49804e-06
2.35501e-06
2.14982e-06
1.86211e-06
1.74991e-06
1.86027e-06
2.35737e-06
2.72966e-06
2.93446e-06
3.07013e-06
3.2429e-06
3.62926e-06
4.54328e-06