/*--------------------------------*- C++ -*----------------------------------*\
  =========                 |
  \\      /  F ield         | OpenFOAM: The Open Source CFD Toolbox
   \\    /   O peration     | Website:  https://openfoam.org
    \\  /    A nd           | Version:  9
     \\/     M anipulation  |
\*---------------------------------------------------------------------------*/
FoamFile
{
    format      ascii;
    class       volScalarField;
    location    "250";
    object      k;
}
// * * * * * * * * * * * * * * * * * * * * * * * * * * * * * * * * * * * * * //

dimensions      [0 2 -2 0 0 0 0];

internalField   nonuniform List<scalar> 
4000
(
7.89171e-05
7.24428e-05
6.87072e-05
6.9034e-05
7.25248e-05
7.76275e-05
8.27357e-05
8.6749e-05
8.70235e-05
8.55402e-05
8.47431e-05
8.44311e-05
8.40689e-05
8.35115e-05
8.28084e-05
8.19461e-05
8.13554e-05
8.17419e-05
8.41201e-05
8.95918e-05
0.000114813
0.000105472
9.56243e-05
8.92339e-05
8.77298e-05
9.15358e-05
9.80498e-05
0.000103891
0.000105578
9.99838e-05
9.66713e-05
9.76291e-05
9.89232e-05
9.90001e-05
9.83052e-05
9.80804e-05
9.9413e-05
0.000103716
0.000111857
0.000123073
0.00014797
0.00014172
0.000130264
0.000119652
0.000113851
0.000112814
0.000116865
0.000121716
0.00012373
0.000119906
0.000111506
0.000104326
0.0001051
0.000106814
0.000107853
0.000109576
0.000115249
0.000125823
0.000139901
0.000152558
0.00017631
0.000177119
0.000168963
0.000157587
0.000148409
0.000143073
0.000140477
0.0001409
0.000140464
0.00013678
0.000128737
0.000118296
0.000108465
0.000107637
0.000110756
0.00011795
0.000131699
0.000149573
0.000166931
0.000175837
0.00020026
0.000210379
0.000210282
0.00020387
0.000195643
0.000187178
0.000177854
0.000166636
0.000158373
0.000151468
0.000143468
0.000133426
0.000123335
0.000117136
0.000115521
0.000131496
0.000155505
0.000177029
0.000192453
0.000193871
0.000220938
0.000241257
0.000252157
0.000255991
0.000255584
0.000251347
0.000242473
0.000227021
0.000197867
0.000175669
0.000164459
0.000155322
0.000148229
0.000145674
0.00015915
0.000179114
0.000196619
0.000210379
0.000216804
0.000208529
0.000239485
0.000269682
0.000292374
0.000307651
0.000317145
0.000320983
0.0003182
0.000307357
0.000286833
0.000260755
0.000249422
0.000242506
0.000241909
0.000247356
0.000251269
0.000253013
0.00025276
0.000249926
0.000241499
0.000220783
0.000256254
0.000296272
0.000329414
0.000354882
0.00037373
0.000386567
0.00039167
0.000387246
0.00037168
0.000351913
0.000346426
0.000341335
0.000335503
0.000328869
0.000320748
0.000310843
0.000298752
0.000283725
0.000262807
0.0002307
0.000272716
0.000323592
0.000367211
0.000402395
0.00043054
0.000450986
0.000462929
0.000464782
0.000455488
0.000438025
0.000430736
0.000420823
0.000407831
0.000392736
0.000375888
0.000357233
0.000336338
0.00031226
0.000281616
0.000239963
0.000289625
0.000344281
0.000390065
0.00042519
0.000452693
0.000473599
0.000488309
0.000496273
0.000496004
0.000485242
0.000477652
0.000465488
0.000450065
0.0004322
0.000412257
0.00039016
0.000365339
0.000336495
0.000299863
0.000251405
7.24428e-05
7.77183e-05
7.79072e-05
7.91939e-05
8.46564e-05
9.35042e-05
0.000101745
0.000107069
0.000107432
0.00010568
0.000104289
0.00010363
0.000103332
0.000103238
0.00010355
0.000104454
0.000104795
0.000104221
0.000101739
9.30308e-05
0.000105472
0.000135268
0.000137286
0.000136532
0.000141292
0.000155108
0.000171558
0.00018585
0.000196913
0.000195629
0.00018131
0.000168247
0.000162829
0.000160601
0.000158881
0.000157838
0.000158436
0.000160575
0.000159319
0.000128905
0.00014172
0.000178196
0.000185947
0.000186549
0.000189102
0.000195877
0.000207514
0.000220693
0.000233977
0.000244566
0.000240979
0.000216586
0.000197941
0.000189712
0.000184084
0.000179899
0.000179325
0.000182345
0.000184882
0.000161583
0.000177119
0.00020529
0.0002161
0.000219357
0.000220896
0.000223654
0.000229931
0.000239353
0.000251089
0.000262572
0.000266413
0.000252738
0.000221063
0.000201669
0.000190289
0.000185995
0.000188385
0.000195779
0.000203093
0.000188571
0.000210379
0.000232275
0.000245364
0.000250708
0.000252754
0.000254426
0.000255715
0.000259687
0.000264554
0.00026971
0.00027013
0.000258208
0.00023498
0.000211844
0.000195244
0.000196841
0.000207779
0.000222045
0.000229576
0.000210869
0.000241257
0.000270157
0.000291909
0.000304878
0.000313619
0.000318874
0.000319537
0.000312176
0.000301841
0.000291639
0.00028202
0.000266355
0.0002445
0.00022478
0.000217834
0.000230828
0.000248542
0.000264937
0.000266292
0.00023052
0.000269682
0.000318975
0.000355924
0.000382652
0.000404725
0.000420477
0.000428957
0.0004216
0.000393234
0.00036908
0.000353362
0.000335728
0.000316608
0.000302104
0.000302828
0.000306885
0.000311742
0.000316585
0.000305474
0.000248693
0.000296272
0.000375432
0.000429816
0.00047387
0.000512593
0.000541946
0.00056197
0.000565802
0.000551209
0.00052254
0.000509023
0.000493046
0.000473467
0.000454639
0.00043012
0.000405124
0.000382954
0.000366018
0.000338649
0.000264758
0.000323592
0.000422563
0.000502062
0.000566696
0.000621299
0.00066267
0.000688553
0.000693478
0.000682466
0.000658845
0.000642104
0.000620485
0.000590265
0.000555303
0.00051757
0.000478993
0.000441185
0.000406118
0.000362042
0.000279136
0.000344281
0.00040908
0.000466865
0.000513715
0.000552246
0.000583286
0.000606939
0.000622282
0.000627651
0.000617774
0.000603024
0.000581741
0.000555931
0.00052742
0.000496917
0.00046457
0.000429796
0.000391144
0.000344201
0.000285671
6.87072e-05
7.79072e-05
8.09323e-05
8.39625e-05
9.26098e-05
0.000104247
0.00011543
0.00012334
0.000125209
0.000123935
0.000122363
0.000121501
0.000121031
0.000120582
0.000120216
0.000120393
0.000119785
0.000116809
0.000109721
9.40596e-05
9.56243e-05
0.000137286
0.000150857
0.000156642
0.000166605
0.000185262
0.000208188
0.000230755
0.000247579
0.000246812
0.000229851
0.000214021
0.000206795
0.000204116
0.000202476
0.000200407
0.000197112
0.000191597
0.000177224
0.000129929
0.000130264
0.000185947
0.000211332
0.000224311
0.000233506
0.000246725
0.000264005
0.000283608
0.000303775
0.000318967
0.000310274
0.000279772
0.00025689
0.000245504
0.000237792
0.000230185
0.000223792
0.000217492
0.000205695
0.000165314
0.000168963
0.0002161
0.000243766
0.000261887
0.000275513
0.000287004
0.000300277
0.000315794
0.000333738
0.000350337
0.000354856
0.000331402
0.00029057
0.000262226
0.000245146
0.000234992
0.000230502
0.000229535
0.000225252
0.000197013
0.000210282
0.000245364
0.000265549
0.000278845
0.000289642
0.000301643
0.000316116
0.000331753
0.000347519
0.000360907
0.000364717
0.000349355
0.000315628
0.000275571
0.000248703
0.00024259
0.0002477
0.000256994
0.000256045
0.000224808
0.000252157
0.000291909
0.000311837
0.000320721
0.000325107
0.000332178
0.000345217
0.000360257
0.000371565
0.000376799
0.000373121
0.000355843
0.000325661
0.000293317
0.000272328
0.000276679
0.000292813
0.00030929
0.000302415
0.000249979
0.000292374
0.000355924
0.000393976
0.000413336
0.00042256
0.00042999
0.000437027
0.000446389
0.000446056
0.000438718
0.000426661
0.00040659
0.00037955
0.000354187
0.000343184
0.00035188
0.000366622
0.000377114
0.000356431
0.000275009
0.000329414
0.000429816
0.000508517
0.000559829
0.000595529
0.000621643
0.000635624
0.000627089
0.000607524
0.000587691
0.000575951
0.000559291
0.000535878
0.000512921
0.00049908
0.000484077
0.000469519
0.000451823
0.000406232
0.000298778
0.000367211
0.000502062
0.000633422
0.000742103
0.000823686
0.000877213
0.000905992
0.000896394
0.000865794
0.000839194
0.000834168
0.000821486
0.0007954
0.000758025
0.000707037
0.000648726
0.000586494
0.000522022
0.000440641
0.000316784
0.000390065
0.000466865
0.000535186
0.000591738
0.000639228
0.000678846
0.000710559
0.00073443
0.000748266
0.000742211
0.000719725
0.000689264
0.00065348
0.000615587
0.000575785
0.000534519
0.000491028
0.000443492
0.000386912
0.000318365
6.9034e-05
7.91939e-05
8.39625e-05
8.93961e-05
9.77799e-05
0.000109734
0.000123466
0.000134663
0.000139074
0.00013907
0.000137976
0.000137361
0.000137093
0.000136544
0.000135361
0.000133902
0.00013098
0.000124786
0.000113548
9.38672e-05
8.92339e-05
0.000136532
0.000156642
0.000165508
0.000177782
0.000196867
0.000222947
0.00025309
0.000276961
0.000278063
0.000263041
0.000248542
0.000241689
0.000239034
0.000236801
0.000232332
0.000223862
0.000209771
0.000183622
0.000127299
0.000119652
0.000186549
0.000224311
0.000244854
0.000258892
0.000274702
0.000294613
0.000319919
0.00034774
0.000365097
0.000352736
0.000322316
0.000299356
0.000286662
0.000277204
0.000266411
0.000254033
0.000238378
0.000213998
0.000162579
0.000157587
0.000219357
0.000261887
0.000293454
0.000315165
0.000332534
0.000349713
0.000369588
0.000393003
0.000412667
0.00041353
0.000380364
0.000337031
0.00030584
0.000285634
0.000271066
0.000260294
0.000250875
0.000236188
0.000197312
0.00020387
0.000250708
0.000278845
0.000304472
0.000329645
0.000353806
0.000376992
0.000399304
0.000420791
0.0004369
0.000437981
0.000415191
0.000369663
0.000320998
0.000289545
0.000277655
0.00027717
0.000280024
0.000271471
0.000230129
0.000255991
0.000304878
0.000320721
0.000328945
0.000341148
0.000365615
0.00039689
0.000425713
0.000447679
0.000458708
0.00045436
0.000431853
0.000393525
0.000351616
0.000318915
0.000316142
0.000328702
0.000340399
0.00032515
0.000261017
0.000307651
0.000382652
0.000413336
0.000421913
0.000426645
0.000448208
0.000479091
0.000503839
0.000517224
0.000518285
0.000507582
0.000484726
0.000452435
0.000420519
0.000401636
0.0004063
0.000420006
0.000426055
0.000391315
0.000291456
0.000354882
0.00047387
0.000559829
0.000616705
0.000653835
0.000684052
0.000701991
0.000702255
0.000690849
0.000676418
0.000667411
0.000651846
0.000626932
0.00060083
0.000581859
0.000567885
0.000552688
0.000525169
0.000455564
0.000321699
0.000402395
0.000566696
0.000742103
0.000887547
0.000983297
0.0010223
0.00102623
0.00101085
0.000990106
0.000972894
0.000977446
0.000972309
0.000948462
0.000911903
0.000869466
0.000802131
0.000717944
0.000621188
0.000500163
0.000344777
0.00042519
0.000513715
0.000591738
0.000657235
0.000713633
0.000763331
0.000805166
0.000838655
0.000862637
0.00086366
0.000832748
0.000792172
0.000746015
0.000696975
0.000646405
0.000596038
0.000543952
0.000487624
0.000421543
0.000342995
7.25248e-05
8.46564e-05
9.26098e-05
9.77799e-05
0.000102286
0.000111063
0.000126675
0.000141821
0.00014963
0.000151608
0.000151674
0.000151881
0.000152198
0.000151687
0.000149588
0.000146107
0.000140231
0.000130565
0.000115698
9.34874e-05
8.77298e-05
0.000141292
0.000166605
0.000177782
0.000185182
0.000198562
0.000224995
0.000263425
0.000294964
0.000300308
0.000289603
0.000278331
0.00027267
0.000269675
0.000265619
0.00025751
0.000243363
0.000221051
0.000185033
0.00012368
0.000113851
0.000189102
0.000233506
0.000258892
0.00027425
0.000288167
0.00030872
0.000341319
0.000379022
0.000398155
0.000383611
0.000355595
0.00033365
0.000319774
0.000307855
0.0002931
0.000274171
0.000249238
0.000214213
0.000156217
0.000148409
0.000220896
0.000275513
0.000315165
0.000342338
0.000362716
0.000382746
0.000409018
0.000441213
0.000463501
0.000454144
0.000414771
0.000371622
0.000339803
0.000316975
0.000297688
0.000279831
0.00026155
0.000238008
0.000190916
0.000195643
0.000252754
0.000289642
0.000329645
0.000367936
0.000401863
0.000432377
0.00046228
0.00049126
0.00050784
0.000498189
0.000460678
0.000405635
0.000356031
0.000321507
0.000303833
0.000296133
0.00029149
0.000277057
0.000226417
0.000255584
0.000313619
0.000325107
0.000341148
0.000375458
0.000421702
0.000467254
0.000506893
0.00053708
0.000547437
0.000531213
0.000494334
0.000445658
0.000396184
0.00035612
0.000346846
0.000352419
0.000357034
0.000336311
0.000261515
0.000317145
0.000404725
0.00042256
0.000426645
0.000454964
0.00050477
0.000552397
0.000588794
0.000611995
0.000613653
0.000592671
0.000558628
0.000519432
0.000483656
0.000460109
0.00045525
0.000460496
0.000456497
0.000410269
0.00029692
0.00037373
0.000512593
0.000595529
0.000653835
0.000707066
0.00074949
0.000773294
0.000781973
0.00078274
0.000772019
0.000755756
0.0007358
0.00070975
0.000683731
0.00066278
0.00064278
0.000618543
0.000575242
0.000484591
0.000333947
0.00043054
0.000621299
0.000823686
0.000983297
0.00106307
0.00109728
0.00110131
0.00108996
0.00108406
0.00107555
0.00107969
0.00107694
0.00105754
0.00102315
0.000977687
0.000914724
0.000816477
0.000692593
0.000539752
0.000362711
0.000452693
0.000552246
0.000639228
0.000713633
0.000781249
0.000840515
0.000893332
0.000940954
0.00098084
0.000992643
0.000947953
0.000892094
0.000832279
0.000771602
0.000710876
0.000649613
0.000588339
0.000523194
0.000448184
0.000360591
7.76275e-05
9.35042e-05
0.000104247
0.000109734
0.000111063
0.000112042
0.000126173
0.000145879
0.000158474
0.000163347
0.00016512
0.000166283
0.000166776
0.000165593
0.000162135
0.000156262
0.000147252
0.000134367
0.00011665
9.30527e-05
9.15358e-05
0.000155108
0.000185262
0.000196867
0.000198562
0.000200009
0.00022258
0.000272068
0.000313198
0.000325233
0.000318782
0.000309554
0.000303439
0.000297964
0.000289842
0.00027677
0.000257019
0.00022779
0.000184234
0.000120103
0.000112814
0.000195877
0.000246725
0.000274702
0.000288167
0.000297051
0.000317914
0.000363733
0.000418143
0.00043831
0.00042024
0.000390327
0.00036654
0.000349445
0.000333415
0.000313698
0.000288099
0.000254503
0.000210375
0.00014842
0.000143073
0.000223654
0.000287004
0.000332534
0.000362716
0.000384951
0.000411297
0.000454542
0.00050798
0.00053137
0.000502424
0.000451284
0.000404732
0.000370336
0.000343651
0.000318704
0.000292957
0.000265285
0.000233372
0.000180167
0.000187178
0.000254426
0.000301643
0.000353806
0.000401863
0.0004447
0.000488294
0.000540947
0.000595236
0.000612491
0.000570679
0.000504191
0.000439519
0.000387074
0.000348739
0.000323682
0.000306766
0.000293128
0.00027297
0.000215666
0.000251347
0.000318874
0.000332178
0.000365615
0.000421702
0.00048498
0.000549694
0.000618366
0.000678436
0.000687655
0.000631496
0.000557011
0.000488418
0.000431132
0.000387105
0.000367463
0.000362486
0.000358321
0.000333785
0.000253497
0.000320983
0.000420477
0.00042999
0.000448208
0.00050477
0.00057415
0.000642452
0.000712824
0.000771882
0.000772715
0.000707844
0.000634598
0.000576717
0.000534378
0.000505242
0.000486372
0.000479446
0.000463248
0.000410779
0.000292955
0.000386567
0.000541946
0.000621643
0.000684052
0.00074949
0.000800072
0.000839419
0.000886178
0.000930307
0.000924818
0.000865249
0.000809953
0.000770697
0.000741838
0.000718638
0.000691439
0.000654395
0.000594742
0.000490696
0.000335556
0.000450986
0.00066267
0.000877213
0.0010223
0.00109728
0.00113204
0.00114389
0.00116099
0.00119408
0.0011967
0.00116886
0.00114117
0.00111544
0.00108272
0.00103799
0.000976846
0.000874584
0.000732421
0.000558293
0.000370472
0.000473599
0.000583286
0.000678846
0.000763331
0.000840515
0.000911596
0.000981618
0.00105264
0.00111819
0.00114596
0.00107694
0.000995649
0.00091553
0.000839419
0.000766726
0.000695175
0.000623583
0.000549693
0.000466692
0.000371727
8.27357e-05
0.000101745
0.00011543
0.000123466
0.000126675
0.000126173
0.000128052
0.000149008
0.000169001
0.000178343
0.000181724
0.000182614
0.000181322
0.000177601
0.000171078
0.00016205
0.000150124
0.000134874
0.000115561
9.22351e-05
9.80498e-05
0.000171558
0.000208188
0.000222947
0.000224995
0.00022258
0.000235148
0.000293663
0.000354712
0.000376109
0.000367297
0.000351586
0.000338442
0.000325292
0.000309543
0.000290408
0.000265297
0.000230695
0.000182009
0.000116268
0.000116865
0.000207514
0.000264005
0.000294613
0.00030872
0.000317914
0.000344283
0.000418359
0.000510002
0.000539916
0.000497264
0.000443771
0.000407083
0.000381197
0.000358044
0.00033198
0.000299689
0.000258193
0.000205725
0.000139812
0.000140477
0.000229931
0.000300277
0.000349713
0.000382746
0.000411297
0.000457897
0.000550391
0.00067025
0.000704096
0.000617907
0.000518632
0.000450448
0.000405622
0.000371586
0.000339349
0.00030482
0.000266797
0.000225372
0.000166239
0.000177854
0.000255715
0.000316116
0.000376992
0.000432377
0.000488294
0.000565871
0.000690497
0.000835804
0.000869684
0.000733817
0.000588876
0.000489679
0.000424199
0.000377528
0.000342359
0.000313825
0.000288718
0.000261197
0.000199045
0.000242473
0.000319537
0.000345217
0.00039689
0.000467254
0.000549694
0.000660495
0.000822837
0.000991459
0.00102254
0.000842476
0.000661239
0.000543873
0.000469173
0.000416296
0.000381277
0.000361941
0.000346657
0.000319105
0.000238421
0.0003182
0.000428957
0.000437027
0.000479091
0.000552397
0.000642452
0.000765387
0.000948988
0.00112919
0.00115254
0.000947532
0.0007507
0.000636525
0.000573922
0.000533236
0.000498338
0.00047555
0.000447688
0.000395385
0.000281574
0.00039167
0.00056197
0.000635624
0.000701991
0.000773294
0.000839419
0.000931772
0.00108361
0.00123685
0.0012717
0.00109008
0.000910828
0.000819574
0.000774055
0.000743413
0.00070977
0.000658062
0.000585424
0.000478866
0.000327958
0.000462929
0.000688553
0.000905992
0.00102623
0.00110131
0.00114389
0.00119348
0.00128962
0.00140598
0.00143716
0.00132034
0.00120563
0.00114374
0.00110286
0.00105778
0.000994394
0.000897883
0.000745085
0.00055855
0.000369226
0.000488309
0.000606939
0.000710559
0.000805166
0.000893332
0.000981618
0.00107822
0.00118604
0.00129119
0.00134325
0.00123451
0.00111105
0.00100002
0.000902569
0.000814781
0.000731969
0.000649554
0.000567236
0.000477366
0.000377025
8.6749e-05
0.000107069
0.00012334
0.000134663
0.000141821
0.000145879
0.000149008
0.000156587
0.000186604
0.000202942
0.000205575
0.000202679
0.000196458
0.000186543
0.000174567
0.000161495
0.000146983
0.00013037
0.000111142
8.98784e-05
0.000103891
0.00018585
0.000230755
0.00025309
0.000263425
0.000272068
0.000293663
0.000349344
0.00046423
0.000521495
0.000473871
0.000417714
0.000383045
0.000353883
0.000326978
0.000300191
0.000269844
0.000231195
0.000179327
0.000111001
0.000121716
0.000220693
0.000283608
0.000319919
0.000341319
0.000363733
0.000418359
0.000542169
0.000742342
0.000855495
0.000703587
0.00054777
0.000466995
0.000420988
0.000386083
0.000351831
0.000312778
0.00026426
0.000203612
0.000130151
0.0001409
0.000239353
0.000315794
0.000369588
0.000409018
0.000454542
0.000550391
0.00075218
0.00103627
0.00119223
0.000930484
0.000666844
0.000526133
0.000453867
0.000406661
0.000365176
0.000321173
0.000271851
0.000218153
0.000149766
0.000166636
0.000259687
0.000331753
0.000399304
0.00046228
0.000540947
0.000690497
0.00097267
0.00131192
0.00149202
0.0011442
0.000780149
0.000578744
0.000476992
0.000414658
0.000366271
0.000323785
0.000283995
0.000244837
0.000176871
0.000227021
0.000312176
0.000360257
0.000425713
0.000506893
0.000618366
0.000822837
0.00117612
0.00152935
0.00171814
0.00132776
0.00088566
0.000639409
0.000519215
0.000448046
0.00039566
0.000357652
0.000327735
0.000294852
0.000216649
0.000307357
0.0004216
0.000446389
0.000503839
0.000588794
0.000712824
0.000948988
0.00131372
0.0016419
0.00183531
0.00146532
0.000983691
0.000725178
0.000611497
0.000549568
0.000500461
0.000455259
0.000416377
0.000367669
0.000262773
0.000387246
0.000565802
0.000627089
0.000702255
0.000781973
0.000886178
0.00108361
0.00140202
0.00168635
0.00184645
0.00154414
0.00110709
0.000882327
0.000790227
0.000741779
0.000696062
0.000633068
0.000552684
0.000452959
0.000311562
0.000464782
0.000693478
0.000896394
0.00101085
0.00108996
0.00116099
0.00128962
0.00151895
0.00175579
0.00185473
0.00162222
0.00132726
0.00117426
0.00110178
0.00104785
0.000979905
0.00088437
0.000732257
0.000541963
0.000359058
0.000496273
0.000622282
0.00073443
0.000838655
0.000940954
0.00105264
0.00118604
0.00134463
0.001501
0.00158599
0.00143067
0.00124331
0.00108712
0.00096086
0.000854296
0.000758557
0.000666565
0.000575359
0.000479692
0.000376225
8.70235e-05
0.000107432
0.000125209
0.000139074
0.00014963
0.000158474
0.000169001
0.000186604
0.000206455
0.000234506
0.000233683
0.000224899
0.000209316
0.000192326
0.00017437
0.000157641
0.000141063
0.000123653
0.000104886
8.53509e-05
0.000105578
0.000196913
0.000247579
0.000276961
0.000294964
0.000313198
0.000354712
0.00046423
0.000592897
0.000737601
0.000644669
0.000513688
0.000431808
0.000381482
0.00034285
0.000308183
0.000272493
0.000230901
0.000177197
0.000103411
0.00012373
0.000233977
0.000303775
0.00034774
0.000379022
0.000418143
0.000510002
0.000742342
0.000946023
0.00114523
0.00101173
0.000736003
0.000549201
0.00046887
0.000418284
0.000374235
0.000328015
0.000273354
0.000205388
0.000119455
0.000140464
0.000251089
0.000333738
0.000393003
0.000441213
0.00050798
0.00067025
0.00103627
0.00125847
0.00146709
0.00135638
0.000933072
0.000635169
0.000513821
0.00044841
0.000396518
0.000343982
0.00028467
0.000217298
0.000133207
0.000158373
0.000264554
0.000347519
0.000420791
0.00049126
0.000595236
0.000835804
0.00131192
0.00151453
0.0017094
0.00165946
0.00110394
0.000708456
0.000543171
0.000459282
0.000398147
0.000342089
0.000286014
0.000229782
0.000150165
0.000197867
0.000301841
0.000371565
0.000447679
0.00053708
0.000678436
0.000991459
0.00152935
0.00170356
0.00188143
0.00189361
0.00123878
0.000776085
0.000580397
0.000483704
0.000415686
0.00035837
0.000309394
0.000264748
0.000185268
0.000286833
0.000393234
0.000446056
0.000517224
0.000611995
0.000771882
0.00112919
0.0016419
0.00182127
0.00198028
0.00202366
0.00132477
0.000846996
0.000652296
0.000560802
0.000494181
0.000432438
0.000377802
0.000329943
0.000233523
0.00037168
0.000551209
0.000607524
0.000690849
0.00078274
0.000930307
0.00123685
0.00168635
0.00191797
0.00205186
0.00205477
0.00138375
0.000964702
0.000799863
0.000724891
0.00066308
0.000590266
0.000504584
0.000417158
0.000283531
0.000455488
0.000682466
0.000865794
0.000990106
0.00108406
0.00119408
0.00140598
0.00175579
0.00205119
0.00215776
0.00200949
0.00150792
0.00122381
0.00109801
0.00102317
0.000944123
0.000839283
0.000700127
0.000508768
0.000336351
0.000496004
0.000627651
0.000748266
0.000862637
0.00098084
0.00111819
0.00129119
0.001501
0.00169514
0.00178724
0.00163848
0.00137977
0.00116872
0.00100892
0.000881818
0.000772614
0.000671326
0.000571957
0.000471712
0.000365932
8.55402e-05
0.00010568
0.000123935
0.00013907
0.000151608
0.000163347
0.000178343
0.000202942
0.000234506
0.000247652
0.000247173
0.000237927
0.000218647
0.000196319
0.000175596
0.000157215
0.000139891
0.000122204
0.000103511
8.38814e-05
9.99838e-05
0.000195629
0.000246812
0.000278063
0.000300308
0.000325233
0.000376109
0.000521495
0.000737601
0.00051226
0.000583006
0.000579282
0.000434448
0.000381246
0.000341829
0.000306039
0.000269244
0.000227325
0.000173991
9.46952e-05
0.000119906
0.000244566
0.000318967
0.000365097
0.000398155
0.00043831
0.000539916
0.000855495
0.00114523
0.000702198
0.000982411
0.000903985
0.000587423
0.000487087
0.000432503
0.000385904
0.000337533
0.000281263
0.000209978
0.000108795
0.00013678
0.000262572
0.000350337
0.000412667
0.000463501
0.00053137
0.000704096
0.00119223
0.00146709
0.000900831
0.00140216
0.00113711
0.000702845
0.000552548
0.000479892
0.000422957
0.000365121
0.000299671
0.000222759
0.000120917
0.000151468
0.00026971
0.000360907
0.0004369
0.00050784
0.000612491
0.000869684
0.00149202
0.0017094
0.00111899
0.0017757
0.00131618
0.000792228
0.000590805
0.000495787
0.000427697
0.000363799
0.000297017
0.000226199
0.000132192
0.000175669
0.000291639
0.000376799
0.000458708
0.000547437
0.000687655
0.00102254
0.00171814
0.00188143
0.00133758
0.0020538
0.00144101
0.000861227
0.00062336
0.000512133
0.00043485
0.000366307
0.000302133
0.000241634
0.000155881
0.000260755
0.00036908
0.000438718
0.000518285
0.000613653
0.000772715
0.00115254
0.00183531
0.00198028
0.00152823
0.00220374
0.00149736
0.000915475
0.000676822
0.000566867
0.000487628
0.000413935
0.000347204
0.000295028
0.00020789
0.000351913
0.00052254
0.000587691
0.000676418
0.000772019
0.000924818
0.0012717
0.00184645
0.00205186
0.00171114
0.00224258
0.00150983
0.000997638
0.00079712
0.000706236
0.000631236
0.000547164
0.000458262
0.000384359
0.00025941
0.000438025
0.000658845
0.000839194
0.000972894
0.00107555
0.0011967
0.00143716
0.00185473
0.00215776
0.00196422
0.00214902
0.00157442
0.00122865
0.0010785
0.000993504
0.000906596
0.000794419
0.000657646
0.000469349
0.000310569
0.000485242
0.000617774
0.000742211
0.00086366
0.000992643
0.00114596
0.00134325
0.00158599
0.00178724
0.00173501
0.00172016
0.00143769
0.00119694
0.00101791
0.000878622
0.000760912
0.000653507
0.00055012
0.000448584
0.000345766
8.47431e-05
0.000104289
0.000122363
0.000137976
0.000151674
0.00016512
0.000181724
0.000205575
0.000233683
0.000247173
0.000241676
0.00023358
0.000216776
0.000196921
0.000178468
0.000160813
0.000143232
0.000125422
0.000106168
8.51937e-05
9.66713e-05
0.00018131
0.000229851
0.000263041
0.000289603
0.000318782
0.000367297
0.000473871
0.000644669
0.000583006
0.000532458
0.000467355
0.000392974
0.000356027
0.000323746
0.000292549
0.000259462
0.000219524
0.000168334
9.41169e-05
0.000111506
0.000240979
0.000310274
0.000352736
0.000383611
0.00042024
0.000497264
0.000703587
0.00101173
0.000982411
0.000885752
0.000687931
0.000512347
0.000444916
0.000402984
0.00036428
0.000321687
0.000270738
0.000204305
0.000100733
0.000128737
0.000266413
0.000354856
0.00041353
0.000454144
0.000502424
0.000617907
0.000930484
0.00135638
0.00140216
0.00121867
0.000866338
0.0006148
0.000515944
0.000461062
0.000413625
0.000362043
0.000300502
0.000223545
0.000111327
0.000143468
0.00027013
0.000364717
0.000437981
0.000498189
0.000570679
0.000733817
0.0011442
0.00165946
0.0017757
0.0014961
0.0010201
0.000702661
0.000568465
0.000494859
0.000433602
0.000370335
0.000300768
0.000223868
0.000121759
0.000164459
0.00028202
0.000373121
0.00045436
0.000531213
0.000631496
0.000842476
0.00132776
0.00189361
0.0020538
0.00169824
0.00113778
0.000773228
0.000609005
0.000515182
0.000440272
0.000368763
0.000298023
0.000229027
0.000138347
0.000249422
0.000353362
0.000426661
0.000507582
0.000592671
0.000707844
0.000947532
0.00146532
0.00202366
0.00220374
0.00180687
0.00120673
0.00083318
0.00066212
0.000563732
0.000482104
0.000402855
0.000329881
0.000271847
0.000192198
0.000346426
0.000509023
0.000575951
0.000667411
0.000755756
0.000865249
0.00109008
0.00154414
0.00205477
0.00224258
0.00184508
0.00125885
0.000927061
0.000784327
0.000700795
0.000619759
0.000528068
0.000435662
0.00036712
0.00024731
0.000430736
0.000642104
0.000834168
0.000977446
0.00107969
0.00116886
0.00132034
0.00162222
0.00200949
0.00214902
0.00182147
0.00139868
0.00117517
0.00107022
0.000994303
0.000904721
0.000786163
0.000640451
0.000451647
0.000299416
0.000477652
0.000603024
0.000719725
0.000832748
0.000947953
0.00107694
0.00123451
0.00143067
0.00163848
0.00172016
0.00153408
0.00129825
0.00110891
0.00096182
0.000840782
0.000733852
0.000633357
0.000535657
0.000438034
0.0003382
8.44311e-05
0.00010363
0.000121501
0.000137361
0.000151881
0.000166283
0.000182614
0.000202679
0.000224899
0.000237927
0.00023358
0.000223676
0.000208988
0.000194201
0.000179634
0.00016443
0.000147812
0.000129323
0.000109063
8.66612e-05
9.76291e-05
0.000168247
0.000214021
0.000248542
0.000278331
0.000309554
0.000351586
0.000417714
0.000513688
0.000579282
0.000467355
0.00038969
0.000356234
0.000329973
0.000305919
0.000280571
0.000250971
0.000214093
0.00016517
9.8219e-05
0.000104326
0.000216586
0.000279772
0.000322316
0.000355595
0.000390327
0.000443771
0.00054777
0.000736003
0.000903985
0.000687931
0.000512029
0.000433458
0.000392815
0.000361653
0.000330224
0.000293719
0.000248272
0.000187343
0.000100107
0.000118296
0.000252738
0.000331402
0.000380364
0.000414771
0.000451284
0.000518632
0.000666844
0.000933072
0.00113711
0.000866338
0.000628133
0.000506301
0.00044399
0.000402918
0.000364891
0.000322585
0.000270515
0.000204443
0.000104385
0.000133426
0.000258208
0.000349355
0.000415191
0.000460678
0.000504191
0.000588876
0.000780149
0.00110394
0.00131618
0.0010201
0.000738222
0.000580641
0.000498063
0.000444061
0.000395724
0.000343496
0.000281789
0.000209279
0.000114112
0.000155322
0.000266355
0.000355843
0.000431853
0.000494334
0.000557011
0.000661239
0.00088566
0.00123878
0.00144101
0.00113778
0.000832575
0.000653509
0.000555121
0.000486171
0.000420697
0.00035245
0.000282291
0.000213233
0.000130576
0.000242506
0.000335728
0.00040659
0.000484726
0.000558628
0.000634598
0.000750699
0.000983691
0.00132477
0.00149736
0.00120673
0.000904566
0.000728221
0.000629333
0.000550782
0.000472243
0.000391122
0.000315349
0.000255742
0.000185294
0.000341335
0.000493046
0.000559291
0.000651846
0.0007358
0.000809953
0.000910828
0.00110709
0.00138375
0.00150983
0.00125885
0.000993934
0.000847818
0.000768144
0.000698938
0.000617771
0.000521778
0.000426247
0.000354315
0.000241439
0.000420823
0.000620485
0.000821486
0.000972309
0.00107694
0.00114117
0.00120563
0.00132726
0.00150792
0.00157442
0.00139868
0.00121699
0.00111741
0.00105579
0.000990803
0.000902619
0.000782887
0.000629343
0.000440851
0.000293221
0.000465488
0.000581741
0.000689264
0.000792172
0.000892094
0.000995649
0.00111105
0.00124331
0.00137977
0.00143769
0.00129825
0.00114255
0.00100838
0.00089454
0.000793796
0.000700033
0.00060871
0.000518591
0.000426346
0.0003313
8.40689e-05
0.000103332
0.000121031
0.000137093
0.000152198
0.000166776
0.000181322
0.000196458
0.000209316
0.000218647
0.000216776
0.000208988
0.000199402
0.000189038
0.000177659
0.000164706
0.000149625
0.000131916
0.000111142
8.74193e-05
9.89232e-05
0.000162829
0.000206795
0.000241689
0.00027267
0.000303439
0.000338442
0.000383045
0.000431808
0.000434448
0.000392974
0.000356234
0.000330532
0.000311289
0.000293524
0.000273281
0.000247473
0.000212899
0.000165296
0.000101681
0.0001051
0.000197941
0.00025689
0.000299356
0.00033365
0.00036654
0.000407083
0.000466995
0.000549201
0.000587423
0.000512347
0.000433458
0.000386263
0.000356411
0.000332531
0.000307349
0.000276218
0.000235233
0.000179285
0.000104141
0.000108465
0.000221063
0.00029057
0.000337031
0.000371622
0.000404732
0.000450448
0.000526133
0.000635169
0.000702845
0.0006148
0.000506301
0.000431649
0.000386708
0.000354117
0.000322671
0.000286419
0.00024159
0.000184367
0.000102432
0.000123335
0.00023498
0.000315628
0.000369663
0.000405635
0.000439519
0.000489679
0.000578744
0.000708456
0.000792228
0.000702661