/*--------------------------------*- C++ -*----------------------------------*\
  =========                 |
  \\      /  F ield         | OpenFOAM: The Open Source CFD Toolbox
   \\    /   O peration     | Website:  https://openfoam.org
    \\  /    A nd           | Version:  9
     \\/     M anipulation  |
\*---------------------------------------------------------------------------*/
FoamFile
{
    format      ascii;
    class       volScalarField;
    location    "250";
    object      nut;
}
// * * * * * * * * * * * * * * * * * * * * * * * * * * * * * * * * * * * * * //

dimensions      [0 2 -1 0 0 0 0];

internalField   nonuniform List<scalar> 
4000
(
0.000528006
0.000493414
0.000466482
0.000456068
0.00046156
0.000475624
0.000490198
0.000502121
0.000504581
0.000503472
0.000503778
0.000504101
0.000503511
0.000502116
0.000500406
0.00049922
0.00050077
0.00050817
0.000525002
0.000553573
0.000643061
0.00060702
0.000564201
0.000530334
0.000513612
0.000518739
0.000533878
0.000548592
0.000553623
0.000540903
0.000536605
0.000541376
0.000545198
0.000545616
0.000544895
0.000547203
0.000556904
0.000578286
0.000612368
0.000653627
0.000722335
0.000700915
0.000661106
0.00061984
0.000591279
0.000578088
0.000583634
0.000594015
0.000599102
0.000591037
0.000573496
0.000558727
0.000561403
0.000566516
0.000570752
0.000578053
0.00059943
0.000635906
0.000681123
0.000719901
0.000776787
0.000773537
0.000747058
0.000710064
0.000676428
0.000652019
0.000639083
0.000638407
0.000638081
0.000631189
0.000614844
0.000592845
0.000569173
0.000566207
0.000574746
0.000595439
0.00063596
0.000687101
0.000735269
0.000762288
0.000816081
0.000830691
0.00082301
0.000801501
0.000774832
0.000747176
0.000717171
0.000688677
0.000675111
0.000663191
0.000647825
0.000627194
0.000604353
0.000588992
0.000583252
0.000622532
0.000685758
0.000740296
0.000779669
0.000790653
0.000846683
0.000877673
0.000890183
0.000890284
0.000882943
0.000869062
0.00084728
0.000812416
0.000748732
0.000707973
0.00068871
0.000671797
0.000657411
0.000650827
0.000681526
0.0007301
0.000771144
0.000802836
0.000820329
0.000811978
0.000871979
0.000918194
0.000949828
0.000969475
0.000980274
0.000982687
0.000975371
0.000955674
0.00092002
0.000870255
0.000849723
0.000840164
0.000843067
0.000857435
0.000868403
0.000874132
0.000875652
0.000872715
0.000860846
0.000829284
0.000894156
0.000954992
0.00100183
0.00103642
0.00106104
0.00107686
0.0010823
0.00107481
0.00105134
0.00102412
0.00101711
0.00101085
0.00100342
0.00099455
0.000982989
0.00096823
0.000949706
0.000926404
0.00089365
0.000842823
0.00091628
0.000992253
0.00105341
0.00110048
0.00113691
0.00116283
0.00117775
0.00117994
0.00116758
0.00114512
0.00113626
0.00112369
0.00110668
0.00108633
0.00106289
0.00103616
0.00100538
0.000969036
0.000921635
0.000855742
0.000939421
0.00101905
0.00108296
0.00113032
0.00116652
0.00119364
0.00121265
0.00122304
0.00122291
0.00121026
0.00120123
0.00118595
0.00116597
0.00114214
0.00111481
0.0010837
0.0010478
0.00100495
0.00094901
0.000872997
0.000493414
0.000501681
0.000492879
0.0004876
0.000497385
0.000520562
0.000542646
0.000557357
0.000560218
0.000558767
0.000557478
0.00055703
0.000557256
0.000558021
0.000559777
0.000562996
0.000566152
0.000569572
0.000571505
0.000559385
0.00060702
0.000885247
0.00101711
0.00111657
0.00120668
0.00131136
0.0014083
0.00146171
0.00146037
0.00141617
0.00139965
0.00141721
0.00145694
0.00147474
0.00144264
0.00135693
0.00124146
0.00111275
0.000958809
0.000667764
0.000700915
0.00103438
0.0012161
0.00137346
0.00153933
0.0016853
0.00180476
0.00188553
0.00191619
0.00190698
0.00187654
0.0018198
0.00178573
0.00175992
0.00167287
0.00151632
0.00134745
0.00119717
0.00104593
0.000741984
0.000773537
0.00108416
0.00124916
0.00139115
0.00154101
0.0017042
0.00185483
0.00198763
0.00209184
0.00214264
0.00213332
0.00204431
0.00186573
0.0017385
0.00160564
0.00144406
0.00130895
0.00120979
0.00110136
0.000791332
0.000830691
0.00113668
0.00127873
0.00138467
0.00148494
0.00159923
0.00174141
0.00189712
0.00204761
0.00215313
0.00217051
0.00207976
0.00188984
0.00166543
0.00146494
0.00135282
0.00130497
0.00127673
0.00119514
0.000826869
0.000877673
0.00123812
0.00140365
0.00152584
0.00163026
0.00172732
0.00182567
0.00192184
0.00201364
0.00207323
0.00206788
0.00197245
0.00179256
0.00158639
0.00142845
0.0013933
0.00141079
0.0014138
0.00131901
0.000856106
0.000918194
0.00137382
0.00160429
0.0018038
0.00199019
0.00215524
0.0022997
0.00237624
0.00234458
0.00227773
0.00218889
0.00206094
0.00190041
0.00174981
0.00168352
0.00165767
0.00163442
0.00158316
0.0014312
0.000881329
0.000954992
0.00150464
0.00179379
0.00208219
0.00237046
0.00262412
0.0028511
0.00300633
0.00309037
0.00299947
0.00286508
0.00271056
0.00254516
0.0023913
0.00222199
0.00204813
0.00187682
0.00170809
0.00148507
0.000902054
0.000992253
0.00149004
0.00180278
0.00209065
0.00235928
0.00259027
0.00277556
0.00289095
0.00297842
0.00293547
0.00279145
0.00265739
0.00250879
0.00234604
0.00217369
0.00199438
0.0018109
0.0016272
0.00140817
0.000920242
0.00101905
0.00110917
0.00118447
0.00124263
0.00128895
0.00132552
0.00135309
0.00137093
0.00137732
0.00136725
0.0013512
0.0013271
0.00129694
0.00126251
0.00122442
0.00118266
0.00113624
0.00108288
0.00101552
0.000927302
0.000466482
0.000492879
0.000497777
0.000499907
0.00051959
0.000549231
0.000577771
0.000599177
0.000605382
0.000604678
0.000602731
0.000601719
0.000601407
0.000601073
0.000600901
0.000602376
0.000602187
0.000598142
0.000586449
0.000553722
0.000564201
0.00101711
0.00127662
0.00143132
0.00153247
0.00165459
0.00180278
0.00193833
0.0019933
0.00196236
0.00193189
0.00193462
0.00196223
0.00197637
0.00194294
0.00183099
0.00164252
0.00140357
0.00110817
0.000663615
0.000661106
0.0012161
0.00160769
0.00193421
0.00219608
0.0023983
0.00257224
0.00271615
0.00279306
0.00279033
0.00272213
0.00264148
0.00258143
0.00251227
0.00236094
0.00210687
0.00181199
0.0015158
0.0012049
0.000746715
0.000747058
0.00124916
0.00161878
0.00197259
0.00232302
0.00262983
0.00287744
0.00307711
0.00321314
0.00325174
0.00319083
0.00302021
0.00278379
0.00256017
0.00231146
0.0020246
0.00175694
0.0015208
0.00126418
0.00080614
0.00082301
0.00127873
0.00156398
0.00182951
0.00212015
0.00244948
0.00277738
0.00307348
0.00330588
0.00342254
0.00338864
0.00320742
0.00289389
0.00249358
0.00215418
0.00192314
0.00176413
0.0016193
0.00139073
0.000850948
0.000890183
0.00140365
0.00167306
0.00188481
0.00209711
0.00235097
0.00267627
0.00301833
0.00329689
0.0034459
0.00342486
0.00323909
0.00291707
0.00252622
0.00218084
0.00202137
0.00194908
0.00184364
0.00158286
0.000888175
0.000949828
0.00160429
0.00195474
0.00223998
0.00251866
0.00282333
0.00314398
0.00344305
0.0036289
0.0036815
0.00359429
0.00338293
0.00308188
0.00276177
0.00252
0.00239143
0.00228172
0.00210788
0.00176759
0.000923886
0.00100183
0.00179379
0.00229523
0.00274209
0.00320009
0.00366382
0.0040714
0.00428508
0.00432082
0.00425723
0.00413469
0.00394362
0.00370592
0.00346299
0.00322062
0.00293996
0.00263544
0.00229876
0.00185644
0.00095533
0.00105341
0.00180278
0.00238457
0.00293454
0.00342269
0.00381498
0.00413622
0.00426162
0.00423928
0.00416872
0.00411033
0.00401847
0.00387263
0.0036113
0.00330051
0.00295324
0.00257742
0.00218228
0.00173667
0.000977601
0.00108296
0.00118447
0.00126844
0.00133439
0.00138781
0.0014313
0.00146565
0.00149116
0.00150604
0.00150094
0.00147814
0.0014462
0.00140767
0.00136532
0.00131915
0.0012695
0.0012152
0.00115353
0.00107661
0.000976945
0.000456068
0.0004876
0.000499907
0.000513342
0.000534807
0.000564237
0.000597603
0.000626762
0.000638628
0.000640433
0.000639433
0.000638946
0.000638784
0.000637533
0.000634658
0.000631732
0.000625203
0.000612345
0.000588829
0.000543406
0.000530334
0.00111657
0.00143132
0.0015586
0.00164012
0.00174706
0.00191441
0.00212388
0.00228049
0.00230985
0.0022957
0.00229425
0.00231302
0.002324
0.00229095
0.00216484
0.00192997
0.00160806
0.00119953
0.000646046
0.00061984
0.00137346
0.00193421
0.0023351
0.00258762
0.00276923
0.00294846
0.00314825
0.00331667
0.00337672
0.00332819
0.00324253
0.00316054
0.00305696
0.00286497
0.00255196
0.00216428
0.00174686
0.00130289
0.000732327
0.000710064
0.00139115
0.00197259
0.0025165
0.00297118
0.00330717
0.00357036
0.00379584
0.00396901
0.00403225
0.00395939
0.0037504
0.00348381
0.00319686
0.00286542
0.00248208
0.00209855
0.00173891
0.00136251
0.000800337
0.000801501
0.00138467
0.00182951
0.00230046
0.00281458
0.00330351
0.00372342
0.00406533
0.00430793
0.00440425
0.00432332
0.00407515
0.00366818
0.00317368
0.0027353
0.00238588
0.00210599
0.00184688
0.00150929
0.000855327
0.000890284
0.00152584
0.00188481
0.00220961
0.00261887
0.0031458
0.00369945
0.00417023
0.00449322
0.00462565
0.00454851
0.00428234
0.00386157
0.00334849
0.00285255
0.00255753
0.0023583
0.00213067
0.00174771
0.000902488
0.000969475
0.0018038
0.00223998
0.0025824
0.00298879
0.00353266
0.00409646
0.00454554
0.00482242
0.00491279
0.00481406
0.00454853
0.00416452
0.00373839
0.00336419
0.00307496
0.00281818
0.00250415
0.00200668
0.000947027
0.00103642
0.00208219
0.00274209
0.00335254
0.00397133
0.0044968
0.00487312
0.00510492
0.00520521
0.00519592
0.00509162
0.00488577
0.004609
0.00431928
0.00404992
0.00369377
0.00326967
0.002779
0.00214347
0.000988566
0.00110048
0.00209065
0.00293454
0.0037163
0.00432543
0.00463128
0.00477678
0.00482867
0.00482095
0.00477128
0.00473533
0.00465283
0.00451377
0.00433628
0.0041251
0.00373102
0.00322515
0.00264777
0.00199534
0.00101803
0.00113032
0.00124263
0.00133439
0.00140729
0.00146759
0.00151903
0.00156178
0.00159559
0.00161956
0.00162164
0.00159216
0.00155228
0.00150546
0.00145394
0.00139902
0.00134192
0.0012803
0.00121067
0.00112446
0.00101371
0.00046156
0.000497385
0.00051959
0.000534807
0.000548081
0.000569355
0.000606338
0.000643872
0.000663068
0.000669001
0.000670471
0.000671592
0.000672103
0.000670044
0.000664506
0.000656353
0.000642623
0.000621097
0.000587788
0.000534409
0.000513612
0.00120668
0.00153247
0.00164012
0.00166511
0.00171931
0.00187776
0.0021494
0.0024116
0.00252583
0.00255617
0.00257025
0.00259091
0.00259869
0.00255683
0.0024123
0.00214413
0.00176162
0.00126423
0.000625515
0.000591279
0.00153933
0.00219608
0.00258762
0.0027863
0.00290469
0.00305728
0.00330821
0.00359826
0.00377231
0.00377691
0.00370662
0.0036134
0.00348502
0.00326378
0.00290959
0.00245028
0.0019297
0.0013692
0.000707324
0.000676428
0.00154101
0.00232302
0.00297118
0.00342543
0.00372678
0.00395749
0.00419147
0.00442867
0.00457299
0.00453139
0.00432995
0.00404845
0.00372225
0.00333251
0.00287069
0.00238277
0.00190783
0.00142569
0.000778484
0.000774832
0.00148494
0.00212015
0.00281458
0.00347457
0.00401825
0.00443898
0.00476005
0.00499516
0.00510579
0.00502944
0.00474708
0.00429081
0.00376099
0.0032382
0.00277533
0.00237499
0.00201138
0.00158664
0.000841241
0.000882943
0.00163026
0.00209711
0.00261887
0.00330978
0.00404569
0.00467048
0.00511705
0.00538712
0.00548559
0.00538818
0.00508311
0.00460608
0.00401595
0.00340733
0.00298
0.00265736
0.00233464
0.00186412
0.000897744
0.000980274
0.00199019
0.00251866
0.00298879
0.00365232
0.00441157
0.00505814
0.00549246
0.00572697
0.00579815
0.00569442
0.00540334
0.00497629
0.00449303
0.00403708
0.00361491
0.00322443
0.00279568
0.0021825
0.000951728
0.00106104
0.00237046
0.00320009
0.00397133
0.00461785
0.0051372
0.00553248
0.00575068
0.00584034
0.00586592
0.00577914
0.00555358
0.00524587
0.0049254
0.00462694
0.00425912
0.00375979
0.00314714
0.00235622
0.00100472
0.00113691
0.00235928
0.00342269
0.00432543
0.00477419
0.00501972
0.00515419
0.00520628
0.00522159
0.00519243
0.00516033
0.00506946
0.00492457
0.00474598
0.00454182
0.00424827
0.00369902
0.00299783
0.00218437
0.00104325
0.00116652
0.00128895
0.00138781
0.00146759
0.00153671
0.00159568
0.00164702
0.00169225
0.00172928
0.00174103
0.00170101
0.00164936
0.00159203
0.00153158
0.00146858
0.00140255
0.00133317
0.00125559
0.00116068
0.00104006
0.000475624
0.000520562
0.000549231
0.000564237
0.000569355
0.000573291
0.000607441
0.000654302
0.000683474
0.00069541
0.000700212
0.000702711
0.000702742
0.000698678
0.000690279
0.000676287
0.000655686
0.000626587
0.00058565
0.000527629
0.000518739
0.00131136
0.00165459
0.00174706
0.00171931
0.00168301
0.00179226
0.00211973
0.00247711
0.00269659
0.00279157
0.00283004
0.00285059
0.00284182
0.00276803
0.00258932
0.00229159
0.00186737
0.00130769
0.00060713
0.000578088
0.0016853
0.0023983
0.00276923
0.00290469
0.0029375
0.00303009
0.00331932
0.0037551
0.00406055
0.00415297
0.0041097
0.00400533
0.00384711
0.00359173
0.00320032
0.00268565
0.00208102
0.00141856
0.000678825
0.000652019
0.0017042
0.00262983
0.00330717
0.00372678
0.00396002
0.00412126
0.00433976
0.00466585
0.00494545
0.00500068
0.00483495
0.00454615
0.00418559
0.00374782
0.00322035
0.0026394
0.00205291
0.00146698
0.000746629
0.000747176
0.00159923
0.00244948
0.00330351
0.00401825
0.00454086
0.00488769
0.00512731
0.00536036
0.00555132
0.00557328
0.00531604
0.00485662
0.00429421
0.00370214
0.00313259
0.00261015
0.00213653
0.00162629
0.000813511
0.000869062
0.00172732
0.00235097
0.0031458
0.00404569
0.00483147
0.0053791
0.00568628
0.00587879
0.00600026
0.00598724
0.00571966
0.0052159
0.00456761
0.00389523
0.00333859
0.00288667
0.00246979
0.00192345
0.000878774
0.000982687
0.00215524
0.00282333
0.00353266
0.00441157
0.00522951
0.005804
0.00608892
0.00622998
0.00631475
0.00628832
0.00603198
0.00558538
0.0050561
0.00453383
0.00401256
0.00351009
0.00298317
0.00228305
0.000941988
0.00107686
0.00262412
0.00366382
0.0044968
0.0051372
0.00567281
0.00603195
0.00617819
0.00623176
0.00630136
0.00629653
0.00605984
0.00571268
0.00535386
0.00501836
0.0046479
0.00410422
0.00339509
0.00247794
0.0010053
0.00116283
0.00259027
0.00381498
0.00463128
0.00501972
0.00526186
0.00540512
0.00550212
0.0055825
0.00558954
0.00552297
0.00536796
0.00518738
0.00499466
0.00478311
0.00451728
0.00400851
0.0032337
0.00230038
0.00105426
0.00119364
0.00132552
0.0014313
0.00151903
0.00159568
0.00166377
0.00172866
0.00179221
0.00184896
0.00187336
0.00181557
0.00174477
0.0016719
0.00159952
0.00152718
0.00145258
0.00137442
0.00128884
0.001186
0.00105721
0.000490198
0.000542646
0.000577771
0.000597603
0.000606338
0.000607441
0.000614581
0.000663375
0.000707685
0.000728266
0.000735396
0.000736197
0.000731925
0.000722942
0.000707927
0.000687443
0.00066067
0.000625786
0.000579908
0.000521357
0.000533878
0.0014083
0.00180278
0.00191441
0.00187776
0.00179226
0.00179357
0.00208944
0.00253509
0.00288723
0.0030778
0.00314283
0.00313834
0.00307355
0.00293005
0.00270608
0.00237728
0.00192388
0.00132791
0.000590586
0.000583634
0.00180476
0.00257224
0.00294846
0.00305728
0.00303009
0.00303167
0.00328785
0.00382331
0.00426305
0.00449467
0.00451353
0.00439503
0.00418583
0.00387632
0.00344097
0.00288093
0.00221176
0.00146296
0.000649748
0.000639083
0.00185483
0.00287744
0.00357036
0.00395749
0.00412126
0.00417797
0.00432789
0.00476297
0.00516448
0.0053659
0.00530333
0.00503168
0.00463229
0.00414211
0.00355515
0.00289265
0.0021981
0.00150186
0.000707766
0.000717171
0.00174141
0.00277738
0.00372342
0.00443898
0.00488769
0.00509051
0.00520943
0.00553055
0.00584668
0.00597207
0.00582216
0.00540948
0.0048235
0.00416624
0.00349558
0.00284745
0.00224556
0.0016357
0.000774018
0.00084728
0.00182567
0.00267627
0.00369945
0.00467048
0.0053791
0.00573994
0.00589007
0.00615746
0.00639267
0.00643447
0.00623737
0.00577412
0.00510465
0.00436848
0.00367687
0.00308167
0.0025493
0.00192198
0.000847781
0.000975371
0.0022997
0.00314398
0.00409646
0.00505814
0.005804
0.00619323
0.0063189
0.00651944
0.00674771
0.00675758
0.00653616
0.00610165
0.00552037
0.00491403
0.00430654
0.00369425
0.00307534
0.00229946
0.000921208
0.0010823
0.0028511
0.0040714
0.00487312
0.00553248
0.00603195
0.00631656
0.00646266
0.00661888
0.00679216
0.00678515
0.00649944
0.0060956
0.00567323
0.00527536
0.00487211
0.00431844
0.00353415
0.00252213
0.000992694
0.00117775
0.00277556
0.00413622
0.00477678
0.00515419
0.00540512
0.00561295
0.00585477
0.00608342
0.00617552
0.00600244
0.00566539
0.00537975
0.00514128
0.00490792
0.00463205
0.00421564
0.00338406
0.00235408
0.001053
0.00121265
0.00135309
0.00146565
0.00156178
0.00164702
0.00172866
0.00181408
0.001905
0.00198993
0.00203137
0.00194673
0.00184557
0.00174956
0.0016607
0.00157642
0.00149267
0.00140483
0.00131124
0.00120126
0.0010662
0.000502121
0.000557357
0.000599177
0.000626762
0.000643872
0.000654302
0.000663375
0.000681583
0.00074577
0.000778447
0.000782488
0.000775089
0.000761107
0.000739536
0.000713402
0.000684567
0.000651679
0.000612736
0.000565969
0.000512052
0.000548592
0.00146171
0.00193833
0.00212388
0.0021494
0.00211973
0.00208944
0.00211174
0.00253092
0.00303938
0.00335019
0.00349169
0.00345408
0.00328713
0.00305804
0.00277495
0.00241253
0.00193974
0.00133072
0.000571976
0.000594015
0.00188553
0.00271615
0.00314825
0.00330821
0.00331932
0.00328785
0.00332416
0.0038408
0.00447698
0.00475862
0.00487477
0.00478489
0.0045151
0.00413327
0.0036453
0.00304682
0.00233411
0.0015186
0.000620679
0.000638407
0.00198763
0.00307711
0.00379584
0.00419147
0.00433976
0.00432789
0.00435913
0.00487412
0.00555141
0.0057081
0.00567732
0.00548358
0.0050687
0.00452438
0.00388654
0.00316028
0.00237167
0.00155724
0.000663993
0.000688677
0.00189712
0.00307348
0.00406533
0.00476005
0.00512731
0.00520943
0.00527141
0.00573825
0.00638151
0.00644869
0.00622784
0.00590364
0.00534335
0.00464
0.00388496
0.00311928
0.00237315
0.00163615
0.00072212
0.000812416
0.00192184
0.00301833
0.00417023
0.00511705
0.00568628
0.00589007
0.00602334
0.00642957
0.00701817
0.00703891
0.00666343
0.00625321
0.00562079
0.0048366
0.00403327
0.00328429
0.00259914
0.00186915
0.000803965
0.000955674
0.00237624
0.00344305
0.00454554
0.00549246
0.00608892
0.0063189
0.00653851
0.00687933
0.00740708
0.00743054
0.0069802
0.00653517
0.0059338
0.00523775
0.00454059
0.00382819
0.00309747
0.0022392
0.000887702
0.00107481
0.00300633
0.00428508
0.00510492
0.00575068
0.00617819
0.00646266
0.00680043
0.00710936
0.00751053
0.00751876
0.00695961
0.00643361
0.00592939
0.00544157
0.00496302
0.00440756
0.00358125
0.00250091
0.000966132
0.00117994
0.00289095
0.00426162
0.00482867
0.00520628
0.00550212
0.00585477
0.00633521
0.00673984
0.00698549
0.00674031
0.00607516
0.00557499
0.00523526
0.0049529
0.00464734
0.00424107
0.00344866
0.00235025
0.00103878
0.00122304
0.00137093
0.00149116
0.00159559
0.00169225
0.00179221
0.001905
0.00203125
0.00214908
0.0022106
0.00209878
0.0019548
0.00182625
0.00171546
0.00161618
0.00152159
0.00142493
0.00132242
0.00120581
0.00106648
0.000504581
0.000560218
0.000605382
0.000638628
0.000663068
0.000683474
0.000707685
0.00074577
0.000785482
0.000837603
0.000834043
0.000816303
0.000785368
0.000750833
0.000713001
0.000677372
0.000640102
0.000598757
0.000551339
0.000498711
0.000553623
0.00146037
0.0019933
0.00228049
0.0024116
0.00247711
0.00253509
0.00253092
0.00223038
0.00259918
0.00310304
0.00367118
0.00370704
0.00345845
0.003156
0.00281112
0.00240768
0.00192141
0.00131923
0.000550274
0.000599102
0.00191619
0.00279306
0.00331667
0.00359826
0.0037551
0.00382331
0.0038408
0.0033725
0.0038095
0.00456473
0.00509871
0.00508276
0.00479216
0.0043409
0.00379963
0.00317023
0.00243736
0.00158689
0.000592159
0.000638081
0.00209184
0.00321314
0.00396901
0.00442867
0.00466585
0.00476297
0.00487412
0.00437349
0.00480678
0.00574164
0.00599901
0.00580323
0.00542215
0.00484606
0.00417323
0.00341772
0.00257837
0.00166486
0.000623601
0.000675111
0.00204761
0.00330588
0.00430793
0.00499516
0.00536036
0.00553055
0.00573825
0.0052566
0.00565916
0.00671066
0.00665786
0.00624625
0.00575658
0.00505346
0.00426103
0.00342382
0.00255794
0.00167393
0.000657939
0.000748732
0.00201364
0.00329689
0.00449322
0.00538712
0.00587879
0.00615746
0.00642957
0.00600295
0.00637659
0.00746296
0.00715189
0.00658095
0.00602336
0.00524622
0.00438584
0.00351343
0.00265704
0.00178981
0.000737464
0.00092002
0.00234458
0.0036289
0.00482242
0.00572697
0.00622998
0.00651944
0.00687933
0.00659409
0.00693466
0.00795152
0.00746494
0.00682455
0.0062529
0.00551468
0.00472997
0.00392341
0.00306544
0.00210732
0.000834381
0.00105134
0.00309037
0.00432082
0.00520521
0.00584034
0.00623176
0.00661888
0.00710936
0.00709266
0.00737608
0.00814191
0.00743918
0.00669935
0.00612469
0.00554692
0.00497689
0.00436834
0.00356858
0.00243747
0.000920831
0.00116758
0.00297842
0.00423928
0.00482095
0.00522159
0.0055825
0.00608342
0.00673984
0.00711856
0.00736046
0.0074672
0.00653693
0.00577695
0.00530413
0.0049509
0.00459793
0.00416776
0.00351965
0.00230897
0.00100501
0.00122291
0.00137732
0.00150604
0.00161956
0.00172928
0.00184896
0.00198993
0.00214908
0.00228719
0.00234841
0.00224875
0.00206153
0.00189534
0.00175944
0.00164362
0.00153732
0.00143168
0.00131978
0.00119652
0.00105211
0.000503472
0.000558767
0.000604678
0.000640433
0.000669001
0.00069541
0.000728266
0.000778447
0.000837603
0.000859825
0.000858138
0.000841058
0.000804958
0.000761082
0.000718212
0.000679425
0.000641115
0.000599617
0.000552411
0.000498115
0.000540903
0.00141617
0.00196236
0.00230985
0.00252583
0.00269659
0.00288723
0.00303938
0.00259918
0.00173844
0.0024595
0.00389461
0.00375318
0.00348166
0.00316517
0.00280893
0.00239407
0.00190916
0.00132227
0.000527831
0.000591037
0.00190698
0.00279033
0.00337672
0.00377231
0.00406055
0.00426305
0.00447698
0.0038095
0.00260569
0.00412227
0.00545935
0.0052238
0.00490458
0.00442085
0.00386345
0.0032342
0.00251322
0.00166577
0.000565837
0.000631189
0.00214264
0.00325174
0.00403225
0.00457299
0.00494545
0.00516448
0.00555141
0.00480678
0.0035369
0.00559868
0.00640771
0.00597199
0.00558724
0.0050071
0.00433629
0.0035897
0.00275265
0.00180094
0.000595934
0.000663191
0.00215313
0.00342254
0.00440425
0.00510579
0.00555132
0.00584668
0.00638151
0.00565916
0.00449699
0.00679213
0.00707364
0.00644202
0.00596361
0.00528422
0.00450634
0.00366949
0.00276861
0.00179041
0.000621326
0.000707973
0.00207323
0.0034459
0.00462565
0.00548559
0.00600026
0.00639267
0.00701817
0.00637659
0.00542231
0.00767101
0.00753811
0.00677098
0.00622758
0.00548397
0.00462844
0.00372064
0.00276701
0.00176764
0.000671531
0.000870255
0.00227773
0.0036815
0.00491279
0.00579815
0.00631475
0.00674771
0.00740708
0.00693466
0.00624154
0.00821228
0.00778614
0.00698039
0.00641225
0.00567636
0.00485359
0.00397461
0.00300595
0.001962
0.000787419
0.00102412
0.00299947
0.00425723
0.00519592
0.00586592
0.00630136
0.00679216
0.00751053
0.00737608
0.0069659
0.00841925
0.00772233
0.00685897
0.00623226
0.00559357
0.00495448
0.00427568
0.00346015
0.00232241
0.000883336
0.00114512
0.00293547
0.00416872
0.00477128
0.00519243
0.00558954
0.00617552
0.00698549
0.00736046
0.00724639
0.00775246
0.00674118
0.0058522
0.00530809
0.0049136
0.00452779
0.004071
0.00346116
0.00220801
0.000966698
0.00121026
0.00136725
0.00150094
0.00162164
0.00174103
0.00187336
0.00203137
0.0022106
0.00234841
0.00230923
0.00230572
0.00210632
0.00191971
0.00176867
0.00164195
0.00152687
0.00141373
0.00129558
0.00116816
0.00102408
0.000503778
0.000557478
0.000602731
0.000639433
0.000670471
0.000700212
0.000735396
0.000782488
0.000834043
0.000858138
0.000848898
0.000834454
0.000802421
0.000763738
0.000726085
0.000688576
0.000650134
0.000609205
0.000561539
0.000504441
0.000536605
0.00139965
0.00193189
0.0022957
0.00255617
0.00279157
0.0030778
0.00335019
0.00310304
0.0024595
0.00285376
0.00381321
0.00363675
0.00339054
0.00309916
0.00277633
0.00240397
0.00193511
0.00134751
0.000529967
0.000573496
0.00187654
0.00272213
0.00332819
0.00377691
0.00415297
0.00449467
0.00475862
0.00456473
0.00412227
0.00473458
0.00536455
0.00514775
0.00475941
0.00430118
0.00379129
0.00320689
0.0025283
0.00170494
0.0005475
0.000614844
0.00213332
0.00319083
0.00395939
0.00453139
0.00500068
0.0053659
0.0057081
0.00574164
0.00559868
0.00611995
0.00626936
0.00593725
0.00547359
0.00490353
0.00428153
0.00359427
0.00281293
0.001886
0.000574423
0.000647825
0.00217051
0.00338864
0.00432332
0.00502944
0.00557328
0.00597207
0.00644869
0.00671066
0.00679213
0.00713179
0.00692153
0.00645598
0.00590754
0.00524039
0.0045164
0.00373198
0.00286702
0.00188089
0.000599045
0.00068871
0.00206788
0.00342486
0.00454851
0.00538818
0.00598724
0.00643447
0.00703891
0.00746296
0.00767101
0.00783929
0.00738806
0.00682552
0.00622117
0.00547964
0.00466379
0.00378599
0.00283125
0.00178753
0.000635392
0.000849723
0.00218889
0.00359429
0.00481406
0.00569442
0.00628832
0.00675758
0.00743054
0.00795152
0.00821228
0.00824455
0.00764044
0.00702685
0.00640646
0.0056658
0.00485453
0.00396343
0.00295201
0.00186506
0.000755957
0.00101711
0.00286508
0.00413469
0.00509162
0.00577914
0.00629653
0.00678515
0.00751876
0.00814191
0.00841925
0.00832843
0.0075672
0.00684522
0.00619622
0.00555563
0.00490748
0.0041993
0.00334474
0.00222735
0.000863257
0.00113626
0.00279145
0.00411033
0.00473533
0.00516033
0.00552297
0.00600244
0.00674031
0.0074672
0.00775246
0.007387
0.00645866
0.0057479
0.00527723
0.00489893
0.00450627
0.00403059
0.00334923
0.00212548
0.000949637
0.00120123
0.0013512
0.00147814
0.00159216
0.00170101
0.00181557
0.00194673
0.00209878
0.00224875
0.00230572
0.0021771
0.00200078
0.0018473
0.00171902
0.0016061
0.00149947
0.00139189
0.00127904
0.0011549
0.0010133
0.000504101
0.00055703
0.000601719
0.000638946
0.000671592
0.000702711
0.000736197
0.000775089
0.000816303
0.000841058
0.000834454
0.000815521
0.000787462
0.000758371
0.000728766
0.000696854
0.000660647
0.000618386
0.000569354
0.000509714
0.000541376
0.00141721
0.00193462
0.00229425
0.00257025
0.00283004
0.00314283
0.00349169
0.00367118
0.00389461
0.00381321
0.00365715
0.00348538
0.00327021
0.0030275
0.00274474
0.00239968
0.00196276
0.00137393
0.0005427
0.000558727
0.0018198
0.00264148
0.00324253
0.00370662
0.0041097
0.00451353
0.00487477
0.00509871
0.00545935
0.00536455
0.00516735
0.00484709
0.00446875
0.00405816
0.00359956
0.00306652
0.0024277
0.00162299
0.000546968
0.000592845
0.00204431
0.00302021
0.0037504
0.00432995
0.00483495
0.00530333
0.00567732
0.00599901
0.00640771
0.00626936
0.00599519
0.00559871
0.005086
0.00454902
0.00398185
0.00335605
0.00263322
0.00176667
0.000558136
0.000627194
0.00207976
0.00320741
0.00407515
0.00474708
0.00531604
0.00582216
0.00622784
0.00665786
0.00707364
0.00692153
0.00658463
0.0061241
0.00552684
0.00488898
0.00423102
0.0035268
0.00273324
0.00179693
0.000581345
0.000671797
0.00197245
0.00323909
0.00428234
0.00508311
0.00571966
0.00623737
0.00666343
0.00715189
0.00753811
0.00738806
0.00703369
0.00655584
0.00592298
0.00522272
0.00446724
0.00364058
0.00272224
0.00170423
0.00061841
0.000840164
0.00206094
0.00338293
0.00454853
0.00540334
0.00603198
0.00653616
0.0069802
0.00746494
0.00778614
0.00764044
0.0072815
0.00680266
0.00618567
0.0054865
0.004719
0.00384985
0.00284008
0.00176692
0.000743263
0.00101085
0.00271056
0.00394362
0.00488577
0.00555358
0.00605984
0.00649944
0.00695961
0.00743918
0.00772233
0.0075672
0.00710685
0.00656488
0.00600238
0.00543107
0.00481915
0.00411575
0.00323497
0.00214126
0.00085363
0.00112369
0.00265739
0.00401847
0.00465283
0.00506946
0.00536796
0.00566539
0.00607516
0.00653693
0.00674118
0.00645866
0.00593469
0.00550348
0.00516457
0.00483982
0.00446672
0.00399095
0.00322786
0.0020688
0.000940176
0.00118595
0.0013271
0.0014462
0.00155228
0.00164936
0.00174477
0.00184557
0.0019548
0.00206153
0.00210632
0.00200078
0.00187564
0.00176083
0.00165735
0.00156023
0.00146417
0.00136423
0.00125832
0.0011394
0.00100299
0.000503511
0.000557256
0.000601407
0.000638784
0.000672103
0.000702742
0.000731925
0.000761107
0.000785368
0.000804958
0.000802421
0.000787462
0.000768528
0.00074775
0.000724564
0.000697602
0.000665225
0.000625383
0.000575296
0.000512698
0.000545198
0.00145694
0.00196223
0.00231302
0.00259091
0.00285059
0.00313834
0.00345408
0.00370704
0.00375318
0.00363675
0.00348538
0.00332105
0.00315037
0.00295693
0.00271535
0.00239924
0.00197556
0.00138748
0.000552276
0.000561403
0.00178573
0.00258143
0.00316054
0.0036134
0.00400533
0.00439503
0.00478489
0.00508276
0.0052238
0.00514775
0.00484709
0.00450917
0.00416798
0.00381046
0.00340335
0.00291578
0.00231652
0.00155355
0.000557793
0.000569173
0.00186573
0.00278379
0.00348381
0.00404845
0.00454615
0.00503168
0.00548358
0.00580323
0.00597199
0.00593725
0.00559871
0.00511207
0.00461306
0.00412086
0.00360396
0.00302901
0.00236817
0.00158027
0.00055079
0.000604353
0.00188984
0.00289389
0.00366818
0.00429081
0.00485662
0.00540948
0.00590364
0.00624625
0.00644202
0.00645598
0.0061241
0.00557646
0.00496577
0.00436875
0.00376369
0.0031145
0.00240107
0.00159329
0.000570662
0.000657411
0.00179256
0.00291707
0.00386157
0.00460608
0.0052159
0.00577412
0.00625321
0.00658095
0.00677098
0.00682552
0.00655584
0.0060414
0.00541317
0.00475933
0.00408377
0.0033311
0.00247703
0.00154692
0.000617411
0.000843067
0.00190041
0.00308188
0.00416452
0.00497629
0.00558538
0.00610165
0.00653517
0.00682455
0.00698039
0.00702685
0.00680266
0.0063551
0.00580704
0.00520305
0.00450255
0.00367656
0.00270183
0.00168736
0.000748909
0.00100342
0.00254516
0.00370592
0.004609
0.00524587
0.00571268
0.0060956
0.00643361
0.00669935
0.00685897
0.00684522
0.00656488
0.00616553
0.00574048
0.00527655
0.00472289
0.00403557
0.00312897
0.00206026
0.000850117
0.00110668
0.00250879
0.00387263
0.00451377
0.00492457
0.00518738
0.00537975
0.00557499
0.00577695
0.0058522
0.0057479
0.00550348
0.00525267
0.0050077
0.00473387
0.00439139
0.00392563
0.00310012
0.00201769
0.000933397
0.00116597
0.00129694
0.00140767
0.00150546
0.00159203
0.0016719
0.00174956
0.00182625
0.00189534
0.00191971
0.0018473
0.00176083
0.00167467
0.00159089
0.00150772
0.00142216
0.00133079
0.001233
0.00112075
0.000991106
0.000502116
0.000558021
0.000601073
0.000637533
0.000670044
0.000698678
0.000722942
0.000739536
0.000750833
0.000761082
0.000763738
0.000758371
0.00074775
0.000733259
0.000715045
0.000692551
0.000664405
0.000628035
0.000579291
0.000514807
0.000545616
0.00147474
0.00197637
0.002324
0.00259869
0.00284182
0.00307355
0.00328713
0.00345845
0.00348166
0.00339054
0.00327021
0.00315037
0.00302623
0.0028728
0.00266274
0.00236936
0.00195976
0.00137913