/*--------------------------------*- C++ -*----------------------------------*\
  =========                 |
  \\      /  F ield         | OpenFOAM: The Open Source CFD Toolbox
   \\    /   O peration     | Website:  https://openfoam.org
    \\  /    A nd           | Version:  9
     \\/     M anipulation  |
\*---------------------------------------------------------------------------*/
FoamFile
{
    format      ascii;
    class       surfaceScalarField;
    location    "250";
    object      phi;
}
// * * * * * * * * * * * * * * * * * * * * * * * * * * * * * * * * * * * * * //

dimensions      [1 0 -1 0 0 0 0];

internalField   nonuniform List<scalar> 
11200
(
0.00439179
-0.00878297
0.00439179
0.00590744
-0.0051096
0.00359451
0.00570945
-0.00244109
0.00263946
0.00471013
-0.000756049
0.00175552
0.00352504
0.000243197
0.000941798
0.00226961
0.000883781
0.000371417
0.000562055
0.0014016
0.000305683
-0.00189334
0.00183075
0.000624396
-0.00490902
0.00225385
0.000761387
-0.00785613
0.00228788
0.000658654
-0.00981148
0.00139478
0.000560117
-0.0108315
0.0005436
0.000476102
-0.0113454
0.00013714
0.00037667
-0.0116443
-1.85498e-06
0.000300675
-0.0118135
-0.000141543
0.000310835
-0.0117951
-0.000458757
0.00044056
-0.0112985
-0.00122536
0.000729001
-0.00983883
-0.00263302
0.00117388
-0.00660759
-0.00494989
0.00171932
-0.00886319
0.00225646
0.00344781
-0.015678
0.00344781
0.00552321
-0.0102663
0.00308184
0.00637782
-0.00571948
0.00242422
0.00629447
-0.00235532
0.00168287
0.00568291
-0.000136869
0.00099165
0.00487455
0.00120209
0.000489876
0.00392735
0.00201331
0.00033521
0.00253786
0.0027086
0.000511319
0.000231349
0.0037428
0.000817172
-0.00303779
0.00473217
0.000824273
-0.0062447
0.00407483
0.000526361
-0.00838283
0.00238923
0.000292203
-0.00962398
0.00125687
0.000121303
-0.0102996
0.000634844
3.89692e-05
-0.0106276
0.000126375
6.0207e-05
-0.0105623
-0.000716485
0.000192608
-0.00986557
-0.00235453
0.000432889
-0.00815462
-0.00510526
0.000761902
-0.00501531
-0.00924303
0.00115462
-0.0155569
0.00167936
0.00236609
-0.0204095
0.00236609
0.00420661
-0.0145213
0.00241518
0.00543742
-0.00908147
0.00213175
0.00613674
-0.00474341
0.00168918
0.00643244
-0.00162344
0.00119105
0.00642798
0.000449313
0.000757196
0.00604169
0.00190543
0.000493985
0.00519166
0.003113
0.000445392
0.00381736
0.00453939
0.000577424
0.00176243
0.00609521
0.000691493
-0.00138304
0.00668155
0.000538267
-0.00451139
0.00524674
0.000270473
-0.00657795
0.00325536
6.78675e-05
-0.00773799
0.00185783
-6.29718e-05
-0.00820264
0.000710295
-0.000119118
-0.00810065
-0.00081303
-5.1302e-06
-0.00731802
-0.00332484
0.0001882
-0.0057281
-0.00717997
0.00048553
-0.00324316
-0.0125504
0.000823386
-0.0201391
0.00134004
0.00137833
-0.0231654
0.00137833
0.00235995
-0.0173872
0.00188499
0.00314529
-0.0118002
0.00193409
0.00388516
-0.00726344
0.00178069
0.00460451
-0.00385103
0.00150859
0.00519142
-0.00126854
0.00113105
0.00552265
0.000785193
0.000788883
0.0053893
0.00270332
0.000542798
0.00488227
0.00458301
0.000463115
0.00405936
0.00639251
0.000525267
0.00273363
0.00747523
0.000531643
0.000537481
0.00706061
0.000381862
-0.00175541
0.00531233
0.000235619
-0.0034423
0.00347346
7.11282e-05
-0.0041877
0.00146129
-5.51299e-06
-0.00408173
-0.00105237
0.000133645
-0.00344028
-0.0043915
0.000425739
-0.00248007
-0.00886671
0.000727276
-0.00124687
-0.0147459
0.00096317
-0.0227163
0.00133127
0.000472561
-0.0241098
0.000472561
0.000239103
-0.0187022
0.00154913
-2.37386e-05
-0.0135034
0.00196662
1.78133e-05
-0.00943007
0.00212559
0.000321775
-0.00627857
0.00212393
0.000915301
-0.00378572
0.00192385
0.00183491
-0.00167805
0.00154362
0.00294792
0.000416008
0.00117403
0.00377562
0.00283438
0.000920589
0.00432041
0.00498845
0.000858894
0.00468376
0.0061878
0.000923679
0.0046008
0.00621847
0.000924689
0.00395817
0.0051141
0.000840464
0.00307708
0.00362303
0.000731178
0.00234366
0.00134287
0.000851645
0.00201119
-0.00186979
0.00114999
0.00184629
-0.00563018
0.00140396
0.00147523
-0.00998779
0.00149273
0.000956617
-0.0156916
0.001465
-0.0232716
0.00151273
-0.000396928
-0.0233152
-0.000396928
-0.0017542
-0.0186316
0.00128728
-0.00296201
-0.0142828
0.00198762
-0.00365785
-0.0111118
0.00237787
-0.00374227
-0.00872085
0.00252687
-0.00321831
-0.00681192
0.00250231
-0.0021397
-0.00513205
0.00237539
-0.000479899
-0.00342422
0.00218035
0.00142615
-0.00114698
0.00207504
0.00328272
0.00100593
0.00212555
0.00517063
0.0020321
0.00226737
0.00673543
0.00228273
0.0023705
0.0078088
0.00159491
0.00244538
0.00861602
0.000288998
0.00252637
0.00895515
-0.00166591
0.0026693
0.00841466
-0.00401661
0.0026872
0.00709525
-0.00687286
0.00256222
0.00527829
-0.0104407
0.00227015
0.00292155
-0.0152979
0.00196354
-0.0220595
0.00171017
-0.00112272
-0.0210693
-0.00112272
-0.00330194
-0.0173299
0.000877887
-0.0049934
-0.0141776
0.00158647
-0.0058726
-0.0121528
0.00192024
-0.00586007
-0.0107317
0.00199832
-0.00505861
-0.00958235
0.00196889
-0.00365378
-0.00848626
0.00194927
-0.00188748
-0.00721967
0.00202903
0.000239153
-0.00553373
0.00225999
0.00261347
-0.00400294
0.00263438
0.00527326
-0.00358093
0.00295301
0.00780503
-0.00343802
0.00318872
0.00983703
-0.00376629
0.00332895
0.0112249
-0.00450389
0.00340483
0.0116867
-0.00545586
0.00332802
0.0112335
-0.00664011
0.00307654
0.00984275
-0.00821238
0.00273024
0.00752307
-0.0104482
0.00232732
0.00424933
-0.0139708
0.00194692
-0.0194622
0.00165253
-0.00191321
-0.0172425
-0.00191321
-0.00458915
-0.0144341
-0.000219684
-0.0064628
-0.0125315
0.000227561
-0.00728483
-0.0115691
0.000238298
-0.00707223
-0.0109869
4.24186e-05
-0.00595336
-0.0105063
-0.00019513
-0.00414535
-0.00996803
-0.000326399
-0.00187882
-0.00919752
-0.000288843
0.000585204
-0.00804446
4.6545e-05
0.00316666
-0.00721055
0.000625991
0.00585496
-0.00724283
0.000973423
0.00837852
-0.00722929
0.00126754
0.0103937
-0.00725831
0.00147664
0.0117052
-0.00738609
0.00157048
0.0122585
-0.00760127
0.00159192
0.0119879
-0.00794402
0.00157442
0.0107773
-0.00851153
0.00150954
0.00847057
-0.00952611
0.00138458
0.00490293
-0.0116149
0.00121189
-0.0156319
0.00107299
-0.00317552
-0.0108912
-0.00317552
-0.00627485
-0.00926117
-0.0020736
-0.00818254
-0.00854166
-0.00208226
-0.00890109
-0.00841619
-0.00243458
-0.00852491
-0.00844366
-0.00291959
-0.00715734
-0.00848832
-0.00338571
-0.00495588
-0.00845882
-0.00371087
-0.00214883
-0.00822329
-0.00378147
0.000827973
-0.00761671
-0.00340475
0.0037511
-0.00723777
-0.00289611
0.00669113
-0.00739654
-0.00278651
0.00930117
-0.00734073
-0.0024988
0.0113337
-0.00716181
-0.0021292
0.0126676
-0.006943
-0.00177718
0.0132487
-0.00672626
-0.00145637
0.0130126
-0.00654728
-0.00116086
0.0118447
-0.00645825
-0.000885591
0.00953661
-0.00657187
-0.000646287
0.00571801
-0.00733175
-0.000464629
-0.00960174
-0.000311927
-0.00544556
-0.00544556
-0.00907637
-0.00563048
-0.0109791
-0.00663911
-0.0116108
-0.00778466
-0.0110809
-0.00897385
-0.00946438
-0.010105
-0.00683526
-0.0110882
-0.00336219
-0.0116966
0.000586524
-0.0115656
0.00444436
-0.0110958
0.00801729
-0.0109697
0.0109378
-0.0102614
0.0131159
-0.00934018
0.0144995
-0.00832673
0.0150777
-0.00730475
0.0148237
-0.00629348
0.0136591
-0.00529383
0.0113986
-0.00431157
0.00736815
-0.00330145
-0.00223349
0.00359451
-0.0051096
0.00590744
0.00516128
-0.00313311
0.00516128
0.00531076
-0.00157798
0.00406824
0.00461274
-0.000473968
0.00292756
0.0035032
0.000265158
0.00178604
0.00210679
0.000855589
0.000912005
0.00033863
0.00132521
0.000748388
-0.0019097
0.00166329
0.00120922
-0.00457161
0.00194815
0.00147479
-0.00722263
0.00193074
0.00137845
-0.00914072
0.00131668
0.00116109
-0.0102484
0.000670234
0.000913186
-0.0108496
0.000313386
0.000664329
-0.0111924
0.000140662
0.000502668
-0.0113763
-3.22143e-05
0.00052698
-0.0113242
-0.000422897
0.000811443
-0.0107821
-0.00120937
0.00139657
-0.00929951
-0.00255947
0.00225118
-0.00615734
-0.0046551
0.0032329
-0.00790513
0.00400509
0.00308184
-0.0102663
0.00552321
0.00505137
-0.0070717
0.00505137
0.00589642
-0.00407164
0.0040732
0.0058367
-0.00164344
0.00291226
0.00519932
8.23153e-05
0.00181188
0.00435844
0.00119333
0.000992864
0.00335513
0.00196038
0.000703104
0.00196444
0.00258417
0.000980846
-0.000191746
0.00337311
0.00154807
-0.00309279
0.0039548
0.00170079
-0.00590673
0.00335411
0.00130244
-0.0079093
0.00206807
0.000896641
-0.00915348
0.00109457
0.000584145
-0.00990793
0.000503255
0.000430792
-0.0103152
-5.56633e-05
0.000491023
-0.0103473
-0.000982873
0.000784947
-0.00974114
-0.00268868
0.0013064
-0.00813679
-0.00540055
0.00199923
-0.00510725
-0.00926854
0.0027393
-0.0146925
0.00336038
0.00241518
-0.0145213
0.00420661
0.0044036
-0.0110479
0.0044036
0.00566545
-0.00714043
0.00393918
0.0062219
-0.00362072
0.00311033
0.00625902
-0.0009567
0.00219308
0.00596164
0.000846927
0.00140095
0.00543903
0.00202783
0.000949005
0.00456691
0.00297234
0.000929154
0.0032178
0.00402694
0.00127248
0.00114787
0.00511663
0.00159929
-0.00177785
0.00534934
0.00146839
-0.00459442
0.00412541
0.0010294
-0.00651679
0.00243923
0.000645419
-0.00770899
0.00121519
0.000417277
-0.0082686
-1.77132e-05
0.000402676
-0.00831707
-0.00155739
0.000618182
-0.00770131
-0.00417378
0.00105807
-0.00623752
-0.0079984
0.00162033
-0.00374867
-0.0130661
0.00213301
-0.0196127
0.00251259
0.00188499
-0.0173872
0.00235995
0.00346983
-0.0142169
0.00346983
0.00460859
-0.00999569
0.00365119
0.0054154
-0.00590417
0.0032578
0.00598092
-0.00262051
0.00260718
0.0062661
-0.000196785
0.00188967
0.0062207
0.00153163
0.00133044
0.00583143
0.00284378
0.0010605
0.00509007
0.00410506
0.00112617
0.00396211
0.00537953
0.0013901
0.00220928
0.0061345
0.00149902
-0.000267107
0.00568677
0.0012966
-0.002598
0.00408123
0.00092431
-0.00419781
0.00228638
0.000599703
-0.00491549
0.000177155
0.000517446
-0.00500015
-0.00211861
0.000779883
-0.00457863
-0.00541153
0.00124255
-0.00370321
-0.00984805
0.00170228
-0.00226057
-0.0154758
0.00193112
-0.0224484
0.00190733
0.00154913
-0.0187022
0.000239103
0.0024208
-0.0159596
0.0024208
0.00284233
-0.0117973
0.00334725
0.00321302
-0.00763432
0.00348556
0.00370391
-0.0041825
0.00319541
0.00430991
-0.00150671
0.002628
0.00484558
0.000522745
0.00201688
0.00515068
0.00211802
0.00159462
0.00520493
0.00352054
0.0014507
0.00505678
0.00480424
0.00158214
0.00465597
0.00567343
0.00178531
0.00382431
0.00562253
0.00182032
0.00255474
0.00455345
0.00163756
0.00121075
0.00290542
0.00145595
0.000180478
0.00059672
0.00146234
-0.000206415
-0.00244482
0.00186334
-0.000380411
-0.00609137
0.00225828
-0.000608236
-0.0105431
0.00241622
-0.000609857
-0.0161985
0.00219006
-0.0231457
0.00160104
0.00128728
-0.0186316
-0.0017542
0.00132091
-0.0160264
0.00132091
0.00078522
-0.0121763
0.00290278
0.000384185
-0.00840024
0.0035452
0.000366798
-0.00528095
0.00364298
0.000818142
-0.00281633
0.00336077
0.0016841
-0.000870775
0.00290304
0.00271008
0.000774497
0.00249788
0.00361706
0.00235178
0.00233673
0.00452151
0.00356294
0.00246224
0.00543604
0.00427487
0.0027512
0.00612601
0.0043157
0.00298711
0.00647755
0.00353349
0.00311355
0.00657758
0.00210012
0.00323139
0.0062108
0.000182583
0.00345006
0.00535948
-0.0025608
0.00365454
0.00409262
-0.00590845
0.00364641
0.00254996
-0.0100082
0.00327835
0.00101507
-0.0152993
0.00259978
-0.0218346
0.00141473
0.000877887
-0.0173299
-0.00330194
0.000137585
-0.0145454
0.000137585
-0.00114656
-0.0112541
0.00194868
-0.00200678
-0.00838981
0.0027702
-0.00225681
-0.00603497
0.00300245
-0.00185102
-0.0041461
0.0028929
-0.000914005
-0.00254248
0.00268396
0.000392351
-0.00103959
0.00253674
0.001843
0.000494256
0.00266681
0.00342122
0.00162587
0.00299316
0.00520543
0.00199995
0.00344361
0.00690441
0.00193881
0.0038665
0.00824648
0.00130815
0.00421208
0.00914073
9.65458e-05
0.004514
0.00932932
-0.00137054
0.00469245
0.00860191
-0.00327242
0.00451554
0.00705449
-0.00571587
0.00408513
0.00485384
-0.00889905
0.00341899
0.00227929
-0.01327
0.00249248
-0.0189589
0.0010567
-0.000219684
-0.0144341
-0.00458915
-0.00154382
-0.011897
-0.00154382
-0.00310742
-0.0095188
5.59111e-05
-0.0040218
-0.00773541
0.000498243
-0.00414209
-0.00631549
0.000443147
-0.00352639
-0.00516459
0.000207569
-0.00229823
-0.0040958
-1.32512e-06
-0.000740127
-0.00298277
9.61632e-05
0.000874037
-0.00164456
0.000571111
0.00281393
-0.000951568
0.00126344
0.00498512
-0.00102404
0.00182612
0.00706369
-0.00119605
0.00232371
0.00874349
-0.00158213
0.00268699
0.00978458
-0.00223304
0.00285884
0.0101512
-0.00303961
0.00289423
0.00971327
-0.0040666
0.00280642
0.00839294
-0.00543898
0.0025529
0.00616325
-0.00738069
0.00209591
0.00316087
-0.0103941
0.00133852
-0.0148593
0.000134569
-0.0020736
-0.00926117
-0.00627485
-0.00435692
-0.00733044
-0.00435692
-0.00605984
-0.00603987
-0.00385839
-0.00685443
-0.0052849
-0.00409064
-0.00670004
-0.00471887
-0.00467075
-0.00568355
-0.00424163
-0.00532531
-0.00395394
-0.003776
-0.00576043
-0.00166179
-0.00315043
-0.0059061
0.000771808
-0.00208055
-0.00540251
0.00324386
-0.00173421
-0.00458566
0.00583493
-0.00236109
-0.00404067
0.00813308
-0.00267506
-0.00331809
0.00989527
-0.00289645
-0.00257721
0.0110406
-0.00309322
-0.00206247
0.0115107
-0.00330818
-0.00165806
0.011211
-0.00359942
-0.00132856
0.010017
-0.00404757
-0.00108315
0.00777287
-0.0048033
-0.000979646
0.00433786
-0.00627589
-0.00114784
-0.00908282
-0.00175041
-0.00563048
-0.00907637
-0.00929578
-0.00929578
-0.0113601
-0.0106149
-0.0121475
-0.0122824
-0.0117739
-0.0140665
-0.0103112
-0.0158096
-0.00780577
-0.0173697
-0.00434949
-0.0183035
0.000145223
-0.0181411
0.00476662
-0.0174516
0.00847199
-0.0170363
0.0113932
-0.0158579
0.0135066
-0.0143502
0.0147801
-0.0126937
0.0152478
-0.0110808
0.0148829
-0.00952826
0.0135803
-0.00803901
0.0111044
-0.00663914
0.00689611
-0.00536924
-0.00442021
0.00263946
-0.00244109
0.00570945
0.00406824
-0.00157798
0.00531075
0.00445493
-0.000773273
0.00445493
0.00405161
-5.92713e-05
0.00339009
0.00317716
0.000434115
0.00222621
0.00186532
0.000947621
0.00127601
9.49058e-05
0.00137226
0.00114631
-0.00205322
0.00163844
0.00171872
-0.00449811
0.00181626
0.00210312
-0.00682395
0.00169368
0.00201021
-0.00851586
0.00120063
0.00165196
-0.00951395
0.000694706
0.00121625
-0.0100539
0.000390077
0.000813962
-0.0103425
0.000219027
0.000572063
-0.0104605
3.51199e-05
0.000609808
-0.010323
-0.000337032
0.001011
-0.00969325
-0.00102628
0.00179328
-0.00818027
-0.00213759
0.00287612
-0.00523222
-0.00375309
0.00403845
-0.00605708
0.00483068
0.00242422
-0.00571948
0.00637782
0.0040732
-0.00407164
0.00589642
0.00484675
-0.00232012
0.00484675
0.00488251
-0.000753542
0.00357091
0.00439516
0.000432366
0.00230098
0.00365505
0.00133775
0.00134271
0.00266725
0.00203782
0.00102512
0.00122752
0.00261937
0.00143939
-0.00085814
0.00321071
0.00223898
-0.00339141
0.00343194
0.00249542
-0.00579263
0.00280028
0.00210364
-0.0075447
0.00176217
0.00158097
-0.00866342
0.000935906
0.00115687
-0.00935729
0.000392194
0.000951433
-0.00973822
-0.000141079
0.00104821
-0.00974785
-0.00102488
0.0014826
-0.00913958
-0.00255534
0.00222752
-0.00758491
-0.00486807
0.00317555
-0.00471239
-0.00798251
0.00409691
-0.0120452
0.00463702
0.00213175
-0.00908147
0.00543742
0.00393918
-0.00714043
0.00566545
0.00509315
-0.00462767
0.00509315
0.00553596
-0.00212997
0.00404418
0.00545557
-0.000158489
0.00286441
0.00509693
0.00122355
0.00187374
0.00453905
0.00220449
0.00134009
0.00366159
0.00300838
0.00141744
0.00231846
0.00383453
0.00199157
0.000255548
0.00455369
0.00254019
-0.00237181
0.00443886
0.00245687
-0.00477747
0.00325509
0.0019419
-0.00649402
0.00183476
0.00146298
-0.00759621
0.000715258
0.00119638
-0.00818567
-0.00038089
0.00123208
-0.00827988
-0.00190436
0.00159216
-0.00770435
-0.00429663
0.00222434
-0.0062542
-0.00764695
0.00294976
-0.00375105
-0.0118183
0.00346645
-0.0167381
0.00345536
0.00193409
-0.0118002
0.00314529
0.00365119
-0.00999569
0.00460859
0.0049177
-0.00716018
0.0049177
0.00567546
-0.00400794
0.00437839
0.00600609
-0.00133551
0.00345378
0.00600922
0.000609738
0.00250042
0.00578124
0.0019456
0.00181727
0.0052958
0.00296076
0.00159346
0.004468
0.00392373
0.00186463
0.00320034
0.00484733
0.00236393
0.00128145
0.00526601
0.00259052
-0.00112227
0.00460152
0.00235368
-0.00330204
0.00305607
0.00188265
-0.00478427
0.0012669
0.0015303
-0.00554991
-0.000586609
0.00148898
-0.00574508
-0.00273245
0.00180353
-0.00537491
-0.00575886
0.00233518
-0.00440197
-0.00971618
0.00279932
-0.00267219
-0.0144308
0.00281474
-0.0196017
0.00209959
0.00196662
-0.0135034
-2.37385e-05
0.00334725
-0.0117973
0.00284233
0.00425705
-0.00897923
0.00425705
0.00487295
-0.0055947
0.00445688
0.00534213
-0.0025597
0.00395076
0.00566192
-0.000232525
0.00315065
0.00578652
0.00141731
0.00242062
0.00572131
0.0026076
0.00201295
0.00542294
0.00362798
0.00204473
0.00488571
0.00455509
0.00241148
0.00404299
0.00512114
0.00277274
0.00275535
0.00487245
0.00283683
0.00109871
0.00373881
0.00261131
-0.000472632
0.00194229
0.00235185
-0.00155789
-0.000330042
0.00229115
-0.00201332
-0.00306564
0.00265228
-0.00217637
-0.00637772
0.00304071
-0.00210812
-0.0104773
0.00310975
-0.00152333
-0.0153393
0.00251445
-0.020562
0.0010388
0.00198762
-0.0142828
-0.00296201
0.00290278
-0.0121763
0.00078522
0.00315218
-0.0094776
0.00315218
0.00319362
-0.00621536
0.00412482
0.0033458
-0.0032252
0.0041566
0.00371315
-0.00088459
0.0036457
0.00419748
0.000835358
0.00300078
0.00462471
0.00212132
0.00255696
0.00491906
0.00316499
0.00250533
0.00513985
0.00397417
0.00282228
0.00531872
0.00441591
0.00327744
0.0053052
0.00426613
0.0036068
0.00502501
0.00339315
0.00373926
0.00447494
0.00193111
0.00379254
0.00359605
3.94667e-05
0.00395943
0.00262064
-0.00263231
0.00419677
0.0015625
-0.00585377
0.00418092
0.000437908
-0.00974793
0.00367399
-0.000172246
-0.0145655
0.00243669
-0.0196268
0.000307816
0.00158647
-0.0141776
-0.00499339
0.00194868
-0.0112541
-0.00114656
0.00157026
-0.00872053
0.00157026
0.00107119
-0.00590927
0.00296337
0.00089688
-0.00337799
0.00332971
0.001225
-0.00135207
0.00303236
0.00190536
0.000258982
0.00258005
0.00272315
0.001548
0.0022923
0.00349599
0.00265631
0.00240265
0.00433458
0.00326934
0.00285937
0.00533296
0.00339002
0.00347107
0.00628456
0.00313508
0.00404587
0.00698493
0.00241393
0.00449084
0.00731851
0.00126676
0.00484469
0.00709252
-0.000197683
0.00515555
0.00616058
-0.00222845
0.00504364
0.00466134
-0.00483776
0.00456848
0.00283594
-0.00815139
0.00364805
0.00107808
-0.0124272
0.00211235
-0.0171813
-0.000310366
0.000227561
-0.0125315
-0.0064628
5.59109e-05
-0.0095188
-0.00310742
-0.000883273
-0.00684213
-0.000883273
-0.00155744
-0.00480371
6.68413e-05
-0.00168029
-0.00300782
0.000195792
-0.00117735
-0.00152537
-0.000122099
-8.76962e-05
-0.000404394
-0.000427634
0.00113339
0.000910444
-0.000487403
0.00221352
0.00223149
-8.42355e-05
0.00345238
0.00258676
0.000707126
0.0049868
0.00214855
0.00153312
0.00647885
0.00166296
0.00230372
0.00765699
0.000992541
0.00293018
0.0084276
6.74003e-06
0.00334817
0.00858285
-0.00088824
0.00342946
0.00799579
-0.00216129
0.00332625
0.00668184
-0.00389014
0.00291921
0.00470068
-0.00620046
0.00212616
0.00227771
-0.00943393
0.000768306
-0.0135364
-0.00123246
-0.00208226
-0.00854166
-0.00818254
-0.00385839
-0.00603987
-0.00605984
-0.00510906
-0.00434092
-0.00510906
-0.00571031
-0.00319831
-0.00509491
-0.00554035
-0.00224152
-0.00560714
-0.00456661
-0.0013636
-0.00646093
-0.00308445
-0.000407327
-0.00723977
-0.00104092
0.00047352
-0.00751281
0.00118049
0.00152335
-0.0069159
0.0033559
0.0017201
-0.00589453
0.00557594
0.000911279
-0.00502356
0.00751428
0.000405422
-0.00399901
0.00903158
-8.91531e-05
-0.00301293
0.00997543
-0.00070979
-0.0022899
0.0103755
-0.00128235
-0.0016642
0.0101135
-0.00188583
-0.00134214
0.00904075
-0.00266368
-0.00123696
0.00702774
-0.00377376
-0.00139345
0.00394303
-0.00554927
-0.00194786
-0.00837919
-0.00296456
-0.00663911
-0.0109791
-0.0106149
-0.0113601
-0.0127855
-0.0127855
-0.0136014
-0.0146649
-0.0131916
-0.0167181
-0.0116607
-0.0187042
-0.00894545
-0.0204925
-0.00506488
-0.0217107
4.96244e-05
-0.0217325
0.00529899
-0.0209811
0.00936956
-0.0201958
0.0124568
-0.0185399
0.0146041
-0.0165868
0.0158178
-0.0146174
0.0162203
-0.0127658
0.0157769
-0.0109709
0.014367
-0.00929301
0.0117213
-0.00776735
0.00726484
-0.00646226
-0.00553468
0.00175552
-0.000756049
0.00471012
0.00292756
-0.000473969
0.00461274
0.00339009
-5.92713e-05
0.00405161
0.00322963
0.000320778
0.00322963
0.00255692
0.000714966
0.00218378
0.00145725
0.00109518
0.00128029
-0.000144314
0.00146673
0.00128093
-0.00222695
0.00171331
0.00208787
-0.00456295
0.00179146
0.00264739
-0.00666539
0.00154699
0.00256531
-0.00813332
0.00106879
0.00205075
-0.0089559
0.000627594
0.00141094
-0.00934634
0.000351527
0.000852652
-0.00948967
0.000185543
0.000529688
-0.00945105
1.68936e-05
0.000554188
-0.00915116
-0.000280832
0.000991905
-0.00838239
-0.00079874
0.00182329
-0.00683984
-0.0015917
0.00292543
-0.00418192
-0.00267493
0.00405578
-0.00409891
0.00474819
0.00168287
-0.00235532
0.00629447
0.00291226
-0.00164344
0.00583669
0.00357091
-0.000753542
0.00488251
0.0036673
0.000128048
0.0036673
0.00336532
0.000910333
0.00240756
0.0027828
0.00160358
0.00141672
0.00189499
0.00222718
0.00115229
0.000451613
0.00278538
0.00181048
-0.00157855
0.00320325
0.00285709
-0.00385655
0.00312527
0.00319481
-0.00589355
0.00240589
0.00280322
-0.00735099
0.00147913
0.00218663
-0.00826011
0.000751395
0.00166598
-0.00878771
0.000255127
0.00140938
-0.00902292
-0.000212988
0.00151332
-0.0088957
-0.000938702
0.00201337
-0.00819846
-0.00212643
0.00285821
-0.00666754
-0.00385231
0.00390563
-0.00404299
-0.00607014
0.00486813
-0.00882464
0.00532048
0.00168918
-0.00474341
0.00613674
0.00311033
-0.00362072
0.0062219
0.00404418
-0.00212997
0.00553596
0.00439433
-0.000572108
0.00439433
0.0043241
0.000710656
0.00313435
0.00401527
0.00171698
0.00206911
0.00350228
0.00254332
0.00153681
0.00263297
0.00328457
0.00178739
0.00121937
0.00395839
0.00264984
-0.000804961
0.00431356
0.003376
-0.00310144
0.00385429
0.00330469
-0.00509703
0.00265045
0.00276596
-0.00652861
0.00140498
0.00224086
-0.00743574
0.000394264
0.00196436
-0.00789748
-0.000564815
0.00204575
-0.00788803
-0.00185956
0.0025038
-0.00724076
-0.00379479
0.00324584
-0.00576824
-0.0064124
0.00403792
-0.00336466
-0.00949638
0.00448986
-0.0128968
0.00416367
0.00178069
-0.00726344
0.00388516
0.0032578
-0.00590417
0.0054154
0.00437839
-0.00400794
0.00567546
0.005
-0.00181507
0.005
0.00518671
6.33088e-05
0.00391455
0.00509924
0.00146723
0.00283764
0.00483441
0.00252472
0.00210064
0.00432042
0.00341319
0.00197872
0.00340677
0.00422772
0.00250881
0.00199998
0.00483822
0.00324588
2.79544e-05
0.00484664
0.00357001
-0.00213512
0.00387162
0.00329542
-0.00397961
0.00231916
0.00281287
-0.00523556
0.00068928
0.00249126
-0.00590309
-0.000901722
0.00249359
-0.00602608
-0.00277932
0.00284663
-0.005558
-0.00531135
0.0033842
-0.00442656
-0.00850776
0.00376391
-0.00256629
-0.0120473
0.00350616
-0.0155925
0.00222981
0.00212559
-0.00943007
1.78133e-05
0.00348556
-0.00763432
0.00321302
0.00445688
-0.0055947
0.00487295
0.0050809
-0.00306275
0.0050809
0.00541806
-0.00075851
0.00443567
0.00552306
0.00102298
0.00349001
0.00547603
0.00231836
0.00267402
0.00525507
0.00333788
0.00230918
0.00475891
0.0042139
0.00255462
0.00395506
0.0048707
0.00318273
0.0028349
0.00503772
0.00370167
0.00131684
0.00443244
0.00379392
-0.000373289
0.00307453
0.00354598
-0.00184453
0.0012507
0.00326169
-0.00280055
-0.00085006
0.00319569
-0.00319004
-0.00320605
0.00346884
-0.00317855
-0.00602926
0.00374762
-0.00275398
-0.00943985
0.00361788
-0.00173672
-0.0131597
0.00261018
-0.0167906
0.000500918
0.00237787
-0.0111118
-0.00365785
0.0035452
-0.00840024
0.000384186
0.00412482
-0.00621536
0.00319362
0.00439604
-0.00360485
0.00439604
0.00460489
-0.001202
0.00439151
0.0048084
0.000724757
0.00374059
0.00498953
0.00215664
0.00298144
0.00508471
0.00326758
0.0025321
0.00500043
0.00416259
0.00264088
0.0047756
0.0047055
0.00321224
0.00447832
0.00475064
0.0038617
0.00401738
0.00422583
0.00427424
0.0033326
0.00311325
0.00438522
0.00242378
0.00157706
0.00437496
0.00141367
-0.00034089
0.00446045
0.000549464
-0.00271635
0.00457149
-0.000168878
-0.00554308
0.00441342
-0.000728904
-0.00888308
0.00367766
-0.000740903
-0.0127245
0.00201394
-0.0166051
-0.000618229
0.00192024
-0.0121528
-0.0058726
0.0027702
-0.00838981
-0.00200678
0.00296337
-0.00590927
0.00107119
0.00279175
-0.00326143
0.00279175
0.00275165
-0.00104443
0.00321241
0.00297434
0.000730788
0.00280375
0.00340547
0.00213036
0.00217528
0.00386063
0.00330444
0.00180028
0.00417579
0.00426189
0.00198818
0.00448649
0.00458277
0.00267136
0.00494086
0.00427285
0.00349442
0.00537317
0.00363861
0.00420072
0.0056154
0.00269108
0.00467072
0.00558215
0.00148005
0.00497491
0.00508514
0.000101182
0.00521049
0.00412905
-0.00181956
0.00510302
0.00285827
-0.0042424
0.00453873
0.00151508
-0.0072654
0.00337375
0.000529177
-0.0110538
0.00142781
-0.0151278
-0.00125823
0.000238298
-0.0115691
-0.00728483
0.000498242
-0.00773541
-0.0040218
6.68411e-05
-0.00480371
-0.00155744
-0.000253277
-0.00262119
-0.000253277
-0.000269339
-0.000815949
-1.66282e-05
0.000169524
0.000663373
-0.000493547
0.00099058
0.00199999
-0.00111834
0.00202685
0.00320537
-0.00142465
0.00286809
0.00437577
-0.00103942
0.00374376
0.00447628
-6.21197e-05
0.00490187
0.00363361
0.00101419
0.00601446
0.00282334
0.00200634
0.00684888
0.00201375
0.00277303
0.00727709
0.00112766
0.0032723
0.00733911
-3.68951e-05
0.00350547
0.00669731
-0.00121863
0.0033671
0.00549318
-0.00296345
0.00284438
0.00384123
-0.00530036
0.00181308
0.00191328
-0.00849301
0.000135502
-0.0124759
-0.00197111
-0.00243458
-0.00841619
-0.00890109
-0.00409064
-0.0052849
-0.00685443
-0.00509491
-0.00319831
-0.00571031
-0.005539
-0.00173313
-0.005539
-0.00540818
-0.000372083
-0.00618192
-0.00460173
0.000574641
-0.00717874
-0.00305993
0.00139423
-0.00817591
-0.000866958
0.00232262
-0.00882314
0.00148391
0.003626
-0.00851712
0.00368086
0.00374236
-0.0073577
0.00588723
0.00251607
-0.00611252
0.00771314
0.00170816
-0.00470985
0.0090567
0.00108351
-0.00342636
0.00982796
0.000515696
-0.00244929
0.00997314
-7.07637e-05
-0.00177562
0.00967229
-0.00093177
-0.00132826
0.00867212
-0.00189736
-0.00130298
0.00681418
-0.00319402
-0.00164197
0.00391057
-0.00513689
-0.00240048
-0.00808959
-0.00344035
-0.00778466
-0.0116108
-0.0122824
-0.0121475
-0.0146649
-0.0136014
-0.0155316
-0.0155316
-0.0150244
-0.0175975
-0.01332
-0.0198342
-0.0103812
-0.0220373
-0.00603596
-0.0237335
1.69956e-05
-0.0241596
0.00624954
-0.0234715
0.0108017
-0.0222321
0.0140211
-0.0200513
0.0161169
-0.0175993
0.0172741
-0.015259
0.0176143
-0.013177
0.0170503
-0.0113387
0.0154833
-0.00962361
0.012616
-0.00809426
0.00781859
-0.00680189
-0.00580586
0.000941798
0.000243197
0.00352504
0.00178604
0.000265158
0.0035032
0.00222621
0.000434115
0.00317716
0.00218378
0.000714966
0.00255692
0.00167396
0.00101948
0.00167396
0.000836478
0.00125226
0.000865316
-0.000451135
0.00154088
0.00102748
-0.00239719
0.00182708
0.00220666
-0.00470484
0.00180503
0.00314977
-0.00673883
0.00143367
0.00316532
-0.00806447
0.000932751
0.00244335
-0.00870979
0.000529089
0.00152693
-0.00890526
0.000279025
0.000768915
-0.00883706
0.00012397
0.000337376
-0.00857424
-2.03221e-05
0.000311578
-0.00805464
-0.000243238
0.000715454
-0.00711803
-0.000598179
0.00148481
-0.00556742
-0.00111131
0.00248614
-0.00322219
-0.00176755
0.00347822
-0.00256076
0.00408701
0.00099165
-0.000136869
0.00568291
0.00181188
8.23152e-05
0.00519932
0.00230098
0.000432366
0.00439516
0.00240756
0.000910333
0.00336532
0.00221175
0.00141103
0.00221175
0.00178703
0.00189396
0.00119964
0.00105164
0.00243869
0.00098972
-0.000321035
0.00301858
0.00199146
-0.00230473
0.00329843
0.00334715
-0.00443524
0.0029437
0.00381502
-0.00619755
0.00212579
0.00337225
-0.00736782
0.00125978
0.00262602
-0.0080202
0.000608043
0.00198922
-0.00831063
0.000162192
0.00166153
-0.00831757
-0.000232831
0.00173276
-0.00798346
-0.000783416
0.00221949
-0.00715878
-0.00162154
0.00305703
-0.00566315
-0.00278805
0.004087
-0.00334739
-0.0042306
0.0050158
-0.0060087
0.00542154
0.00119105
-0.00162344
0.00643244
0.00219308
-0.0009567
0.00625902
0.00286441
-0.000158489
0.00545557
0.00313435
0.000710656
0.0043241
0.00308466
0.00151038
0.00308466
0.00283083
0.00222983
0.00198701
0.00238619
0.00295834
0.00146169
0.00153821
0.0037249
0.00192889
1.14954e-05
0.00431239
0.00316241
-0.00197591
0.00430365
0.00400325
-0.00394076
0.00350074
0.00389439
-0.00553908
0.00228719
0.00333671
-0.00663037
0.0011512
0.00278889
-0.00726251
0.000250628
0.00250805
-0.00749115
-0.000565914
0.00260754
-0.00729251
-0.0015771
0.00309903
-0.00653378
-0.0030056
0.0038715
-0.00507566
-0.00487922
0.00467143
-0.00288859
-0.00700099
0.00507379
-0.00932353
0.00459062
0.00150859
-0.00385103
0.00460451
0.00260718
-0.00262051
0.00598092
0.00345378
-0.00133551
0.00600609
0.00391455
6.33088e-05
0.00518671
0.00402606
0.00128739
0.00402606
0.00391069
0.00230479
0.00287803
0.00364078
0.00323023
0.00209858
0.00309978
0.00415049
0.002094
0.00205407
0.00493518
0.00293158
0.000480987
0.00523444
0.00388802
-0.00136523
0.00471463
0.00420217
-0.00316746
0.00345145
0.00393326
-0.0046092
0.0019091
0.00349664
-0.00556076
0.000467818
0.00322566
-0.00600578
-0.000899918
0.00327277
-0.00595175
-0.00242435
0.00364014
-0.0053463
-0.00437465
0.00414824
-0.00413039
-0.00676402
0.00443338
-0.00232702
-0.00927181
0.00397427
-0.0117893
0.00236924
0.00212393
-0.00627857
0.000321775
0.00319541
-0.0041825
0.00370391
0.00395076
-0.0025597
0.00534213
0.00443567
-0.00075851
0.00541806
0.00463804
0.000882772
0.00463804
0.0046335
0.00222207
0.00357731
0.00450023
0.0033743
0.00266321
0.00418251
0.00445331
0.002324
0.0035084
0.00536074
0.00280307
0.00246944
0.00576095
0.00369505
0.00117943
0.00538485
0.00432133
-0.000302772
0.00428418
0.00444328
-0.00176156
0.00270106
0.00421276
-0.00294297
0.000938317
0.00397265
-0.00364578
-0.000940281
0.00393904
-0.00384693
-0.00288487
0.00413085
-0.003624
-0.00511971
0.0042702
-0.00296068
-0.00774059
0.00393166
-0.00178017
-0.0104613
0.00261969
-0.013279
0.000210966
0.00252687
-0.00872085
-0.00374227
0.00364298
-0.00528095
0.000366799
0.0041566
-0.0032252
0.0033458
0.00439151
-0.001202