/*--------------------------------*- C++ -*----------------------------------*\
  =========                 |
  \\      /  F ield         | OpenFOAM: The Open Source CFD Toolbox
   \\    /   O peration     | Website:  https://openfoam.org
    \\  /    A nd           | Version:  9
     \\/     M anipulation  |
\*---------------------------------------------------------------------------*/
FoamFile
{
    format      ascii;
    class       surfaceScalarField;
    location    "0.1";
    object      alphaPhi0.water;
}
// * * * * * * * * * * * * * * * * * * * * * * * * * * * * * * * * * * * * * //

dimensions      [0 3 -1 0 0 0 0];

internalField   nonuniform List<scalar> 
3742
(
4.41707e-06
-4.31943e-05
4.58674e-06
-4.31781e-05
4.68797e-06
-4.27943e-05
5.22315e-08
-1.23669e-05
8.21659e-10
-1.01961e-07
0
-9.57924e-10
0
-1.4439e-12
5.59778e-17
3.4128e-13
-1.57091e-15
3.8197e-14
-5.13797e-17
2.51987e-15
-2.74996e-18
1.5366e-16
-1.56876e-19
8.57996e-18
-8.38301e-21
4.0453e-19
-4.38067e-22
1.89363e-20
-2.28095e-23
9.13557e-22
-1.19817e-24
4.57904e-23
-6.36967e-26
2.3994e-24
-3.41388e-27
1.31709e-25
-1.82988e-28
7.55708e-27
-9.62557e-30
4.52646e-28
-4.83861e-31
2.80903e-29
-2.16143e-32
1.80169e-30
-6.74442e-34
1.18235e-31
1.13626e-35
7.86561e-33
5.28315e-34
-6.22577e-07
-5.91192e-05
-5.58697e-07
-5.76949e-05
-3.25323e-07
-5.45853e-05
-3.30241e-08
-5.16186e-05
2.78376e-07
-4.89981e-05
5.89527e-07
-4.67802e-05
8.92277e-07
-4.49814e-05
1.18339e-06
-4.35842e-05
1.46172e-06
-4.25543e-05
1.72698e-06
-4.18486e-05
1.97887e-06
-4.14197e-05
2.21687e-06
-4.12202e-05
2.44016e-06
-4.1205e-05
2.64788e-06
-4.13326e-05
2.83941e-06
-4.15649e-05
3.01458e-06
-4.18677e-05
3.17391e-06
-4.22087e-05
3.31902e-06
-4.25573e-05
3.4525e-06
-4.28812e-05
3.57951e-06
-4.31448e-05
3.70849e-06
-4.33053e-05
3.83609e-06
-4.32896e-05
3.64049e-06
-4.25825e-05
3.78665e-08
-9.42474e-06
4.70898e-10
-6.35306e-08
0
-4.46653e-10
0
5.92297e-14
-1.92491e-14
1.98688e-13
-1.19796e-15
1.32209e-14
-2.66825e-17
7.21291e-16
-1.29425e-18
4.44693e-17
-6.24999e-20
2.04677e-18
-2.94739e-21
8.62709e-20
-1.40318e-22
3.71529e-21
-6.81599e-24
1.67146e-22
-3.40294e-25
7.88535e-24
-1.74964e-26
3.91305e-25
-9.23861e-28
2.04322e-26
-4.99562e-29
1.11912e-27
-2.73742e-30
6.4186e-29
-1.50781e-31
3.82106e-30
-8.21164e-33
2.34853e-31
-4.32683e-34
1.47828e-32
-2.13377e-35
9.47582e-34
6.14643e-35
-6.80039e-07
-3.46622e-05
-1.05817e-06
-4.53741e-05
-9.67896e-07
-5.22254e-05
-6.89167e-07
-5.13172e-05
-3.52556e-07
-4.8984e-05
-2.91275e-09
-4.69139e-05
3.40971e-07
-4.5181e-05
6.69199e-07
-4.38028e-05
9.78631e-07
-4.27709e-05
1.26831e-06
-4.20547e-05
1.53763e-06
-4.16106e-05
1.7861e-06
-4.13924e-05
2.013e-06
-4.13556e-05
2.21761e-06
-4.14591e-05
2.39953e-06
-4.16659e-05
2.55867e-06
-4.19419e-05
2.69542e-06
-4.22541e-05
2.81159e-06
-4.25748e-05
2.91018e-06
-4.28717e-05
2.99701e-06
-4.31136e-05
3.08568e-06
-4.32677e-05
3.13678e-06
-4.32235e-05
2.67579e-06
-4.20224e-05
2.64603e-08
-7.02155e-06
3.03135e-10
-3.657e-08
0
-1.24613e-10
-1.62527e-13
2.81625e-13
-1.92512e-14
7.80041e-14
-2.884e-16
1.22943e-15
-9.58051e-18
1.64344e-16
-4.41299e-19
9.85031e-18
-1.89422e-20
4.01182e-19
-8.16228e-22
1.59141e-20
-3.61219e-23
6.51156e-22
-1.652e-24
2.78795e-23
-7.84273e-26
1.25376e-24
-3.86888e-27
5.94011e-26
-1.97784e-28
2.9664e-27
-1.04527e-29
1.55719e-28
-5.65929e-31
8.57083e-30
-3.11987e-32
4.90412e-31
-1.73331e-33
2.90081e-32
-9.60996e-35
1.75998e-33
-5.24779e-36
1.08907e-34
6.80699e-36
1.83202e-08
8.95326e-25
-7.75288e-07
-4.06402e-06
-1.21001e-06
-1.40407e-05
-1.30807e-06
-2.21333e-05
-1.12497e-06
-2.93827e-05
-7.81786e-07
-3.48558e-05
-3.77748e-07
-3.81338e-05
3.02669e-08
-3.97368e-05
4.18298e-07
-4.03792e-05
7.75859e-07
-4.05199e-05
1.10023e-06
-4.04232e-05
1.39086e-06
-4.02175e-05
1.64608e-06
-3.99558e-05
1.8658e-06
-3.9631e-05
2.05014e-06
-3.92444e-05
2.19885e-06
-3.87714e-05
2.31127e-06
-3.82327e-05
2.39076e-06
-3.76134e-05
2.43918e-06
-3.69393e-05
2.46513e-06
-3.62194e-05
2.48742e-06
-3.54904e-05
2.44886e-06
-3.52846e-05
2.02725e-06
-3.59791e-05
2.13571e-08
-4.2622e-06
1.18521e-10
-1.48231e-08
-3.58647e-12
-1.65612e-15
-8.19804e-14
4.14846e-14
-1.26293e-15
7.62052e-16
-4.47764e-17
8.51094e-17
-2.91163e-18
3.5724e-17
-1.20382e-19
1.76053e-18
-4.76467e-21
6.86829e-20
-1.91895e-22
2.63805e-21
-7.99624e-24
1.04014e-22
-3.46535e-25
4.27512e-24
-1.56793e-26
1.84329e-25
-7.41346e-28
8.37557e-27
-3.6538e-29
4.01611e-28
-1.87239e-30
2.02779e-29
-9.89061e-32
1.07523e-30
-5.35257e-33
5.93667e-32
-2.94136e-34
3.3916e-33
-1.62919e-35
1.98872e-34
-8.99358e-37
1.18965e-35
7.17948e-37
-6.37312e-26
4.56593e-24
-2.17734e-07
-9.63934e-16
-2.12699e-07
-1.2759e-13
-4.40272e-07
-6.75095e-12
-6.065e-07
-3.29562e-10
-6.51992e-07
-1.84091e-08
-5.5763e-07
-1.30933e-06
-3.55943e-07
-4.62752e-06
-9.60561e-08
-7.59492e-06
1.83951e-07
-8.90034e-06
4.38675e-07
-9.40236e-06
6.56233e-07
-9.40104e-06
8.2221e-07
-9.02103e-06
9.40837e-07
-8.36657e-06
1.01609e-06
-7.40463e-06
1.05191e-06
-5.8835e-06
1.0563e-06
-4.33367e-06
1.03371e-06
-2.85364e-06
9.92122e-07
-1.70184e-06
9.41169e-07
-9.12272e-07
9.13219e-07
-2.45683e-07
7.86539e-07
-2.06858e-09
8.21145e-07
-3.42728e-06
1.47776e-08
-1.27139e-06
-2.78379e-14
-3.48633e-16
-2.68017e-14
-3.58616e-16
-1.34854e-15
0
-6.63665e-17
1.28996e-16
-1.31056e-17
1.58195e-17
-7.20601e-19
6.01841e-18
-2.7717e-20
2.68225e-19
-1.03474e-21
1.0457e-20
-3.94268e-23
3.93622e-22
-1.55877e-24
1.50574e-23
-6.43259e-26
5.9765e-25
-2.78251e-27
2.48437e-26
-1.26307e-28
1.08832e-27
-6.00254e-30
5.03547e-29
-2.97838e-31
2.45646e-30
-1.52964e-32
1.26002e-31
-8.07825e-34
6.737e-33
-4.34984e-35
3.72914e-34
-2.37269e-36
2.11965e-35
-1.29561e-37
1.22983e-36
7.19127e-38
-1.72471e-27
5.17041e-24
-9.63934e-16
7.69054e-24
-1.28554e-13
2.94238e-21
-6.8795e-12
1.25492e-19
-3.36441e-10
3.9186e-18
-1.87456e-08
8.08106e-17
-4.56142e-08
1.12441e-15
-4.69706e-08
9.04391e-15
-3.19607e-08
6.70666e-15
-3.8785e-09
2.53871e-15
8.931e-09
4.33998e-15
1.98196e-08
5.69538e-15
2.62713e-08
5.41484e-15
5.75426e-08
4.30068e-15
5.59871e-08
2.8336e-15
4.90726e-08
1.54404e-15
3.86285e-08
4.72133e-13
2.64295e-08
1.80535e-13
1.59235e-08
6.07786e-14
8.40956e-09
1.50104e-14
2.08083e-09
4.06212e-16
1.22466e-11
-8.78056e-16
2.88127e-09
-4.84353e-16
-3.80366e-16
-5.73632e-16
-3.7091e-16
-2.4717e-16
-3.04953e-15
-1.08181e-16
-1.68174e-16
4.43674e-16
-1.21104e-17
3.16061e-17
-3.14559e-18
3.3473e-18
-1.46204e-19
7.90043e-19
-5.42563e-21
3.48662e-20
-1.94415e-22
1.38306e-21
-7.08952e-24
5.16945e-23
-2.68234e-25
1.94034e-24
-1.0611e-26
7.51055e-26
-4.41101e-28
3.03583e-27
-1.92987e-29
1.29171e-28
-8.86731e-31
5.80414e-30
-4.26647e-32
2.75093e-31
-2.13085e-33
1.37155e-32
-1.097e-34
7.13144e-34
-5.77314e-36
3.83939e-35
-3.08689e-37
2.12295e-36
-1.65499e-38
1.19847e-37
6.80756e-39
8.35289e-26
6.53153e-26
-5.12861e-25
3.12382e-24
-7.40714e-23
8.17207e-22
5.33716e-20
4.91682e-20
3.52011e-18
2.01014e-18
6.74126e-17
6.59262e-17
5.7186e-16
1.36191e-15
3.78083e-16
1.35829e-14
1.01756e-16
1.0339e-14
8.86126e-17
4.0168e-15
8.36778e-18
6.73196e-15
-8.404e-17
8.92502e-15
-1.49512e-16
8.65186e-15
-1.57698e-16
6.82405e-15
-1.17689e-16
4.44154e-15
-6.45034e-17
2.37944e-15
-1.74575e-14
1.00089e-15
-4.90714e-15
2.839e-16
-7.64108e-16
1.35072e-17
3.03615e-18
-4.82962e-17
-4.37347e-18
-2.96719e-16
-1.26474e-17
-8.69782e-16
-2.76766e-17
-6.04764e-16
-1.26009e-16
-7.32357e-16
-3.26163e-16
-1.53012e-16
-1.06706e-15
-4.45971e-18
-4.11068e-17
1.20478e-16
-3.01692e-18
4.15939e-18
-5.48442e-19
4.6245e-19
-2.3981e-20
7.87617e-20
-8.86074e-22
3.70799e-21
-3.11407e-23
1.53724e-22
-1.10457e-24
5.83162e-24
-4.04945e-26
2.18581e-25
-1.55052e-27
8.36803e-27
-6.24161e-29
3.32688e-28
-2.6478e-30
1.38795e-29
-1.18173e-31
6.1047e-31
-5.53257e-33
2.83001e-32
-2.69349e-34
1.37938e-33
-1.3537e-35
7.00959e-35
-6.96547e-37
3.68679e-36
-3.64771e-38
1.99092e-37
-1.91556e-39
1.09725e-38
6.07198e-40
-3.40923e-29
-5.44344e-50
-3.00867e-25
5.50276e-45
-7.60811e-23
1.39253e-43
-2.912e-21
-2.00681e-42
-4.55236e-20
-3.48267e-39
1.03304e-17
-6.47583e-37
4.17541e-16
-1.0996e-34
4.88935e-16
-8.75167e-33
2.45354e-16
-4.7172e-31
4.87094e-16
-1.96474e-29
7.3046e-16
-6.79133e-28
7.83932e-16
-2.03696e-26
6.79752e-16
-5.45625e-25
4.86793e-16
-1.33043e-23
2.8832e-16
-2.99194e-22
1.34979e-16
-6.25472e-21
4.29513e-17
-1.22507e-19
2.31928e-18
-2.05805e-18
-5.8155e-18
-5.49027e-18
-2.66349e-17
-6.32715e-17
-2.26915e-16
-6.43795e-16
-3.74176e-16
-2.17072e-15
-5.0198e-16
-2.74304e-15
-4.96026e-16
-2.1229e-15
-6.81003e-17
-5.97137e-16
-9.13249e-17
-3.43059e-21
-4.50161e-18
4.56146e-18
-4.37395e-19
3.89994e-19
-6.6482e-20
3.72446e-20
-3.05267e-21
6.44762e-21
-1.17716e-22
3.20556e-22
-4.17873e-24
1.38755e-23
-1.47234e-25
5.51683e-25
-5.3144e-27
2.11582e-26
-1.99421e-28
8.15802e-28
-7.85018e-30
3.23387e-29
-3.25433e-31
1.33765e-30
-1.41965e-32
5.81283e-32
-6.49948e-34
2.65639e-33
-3.09644e-35
1.27423e-34
-1.52375e-36
6.36501e-36
-7.68208e-38
3.28709e-37
-3.94464e-39
1.74128e-38
-2.02927e-40
9.40508e-40
5.08757e-41
-5.44344e-50
4.54503e-46
-2.72509e-46
3.15381e-44
-9.15384e-45
8.36551e-43
1.66905e-44
-2.03266e-42
1.15715e-41
-3.49422e-39
-2.34794e-37
-4.12777e-37
-6.40651e-35
-4.61294e-35
-5.67165e-33
-3.14409e-33
-3.20361e-31
-1.57031e-31
-1.37159e-29
-6.25183e-30
-4.84008e-28
-2.08841e-28
-1.48007e-26
-6.0529e-27
-4.04872e-25
-1.55554e-25
-1.01163e-23
-3.59287e-24
-2.34146e-22
-7.51642e-23
-5.05631e-21
-1.43255e-21
-1.02668e-19
-2.48957e-20
-1.76758e-18
-3.93137e-19
-4.13171e-18
-3.77844e-18
-9.61869e-17
-5.54838e-17
-1.0054e-15
-6.11833e-16
-2.59451e-15
-2.45285e-15
-3.14559e-15
-3.34444e-15
-2.87154e-15
-2.40477e-15
-4.96053e-18
-6.63101e-16
-4.91544e-18
2.27775e-21
-4.17894e-19
1.40706e-19
-4.32444e-20
2.11913e-20
-6.07402e-21
2.70553e-21
-3.01967e-22
5.81954e-22
-1.22537e-23
3.03036e-23
-4.57194e-25
1.254e-24
-1.65181e-26
4.47448e-26
-5.99955e-28
1.7351e-27
-2.23898e-29
6.83998e-29
-8.72019e-31
2.75182e-30
-3.5663e-32
1.14452e-31
-1.53238e-33
4.96795e-33
-6.90378e-35
2.25829e-34
-3.23508e-36
1.07431e-35
-1.56526e-37
5.30974e-37
-7.75763e-39
2.70785e-38
-3.9155e-40
1.41418e-39
-1.97641e-41
7.51865e-41
3.99068e-42
6.43978e-46
3.33701e-45
8.19411e-45
2.53392e-43
-5.03996e-45
1.22789e-41
-2.61299e-41
4.86449e-40
-1.11084e-40
1.44447e-38
-5.80198e-37
2.39136e-37
-4.14684e-35
-5.63967e-36
-2.5428e-33
-7.00627e-34
-1.34969e-31
-2.86363e-32
-5.7171e-30
-8.69691e-31
-2.00108e-28
-2.23458e-29
-6.00794e-27
-5.05244e-28
-1.58461e-25
-1.04666e-26
-3.65496e-24
-1.9805e-25
-7.6441e-23
-3.41865e-24
-1.468e-21
-5.36839e-23
-2.57291e-20
-7.68869e-22
-4.09408e-19
-1.06349e-20
-4.4329e-18
-1.16949e-19
-1.18953e-16
-4.89909e-19
-1.44946e-15
-7.78257e-19
-4.05144e-15
-2.03843e-19
-4.45722e-15
-1.33225e-19
-3.34093e-15
-4.09307e-18
-1.98069e-19
-4.46397e-20
-1.68312e-19
3.60867e-23
-2.49126e-20
1.78076e-21
-3.27069e-21
3.29358e-22
-5.77695e-22
8.56411e-23
-2.88827e-23
3.85057e-23
-1.14563e-24
2.33197e-24
-4.26837e-26
1.00921e-25
-1.55558e-27
3.83117e-27
-5.70661e-29
1.38293e-28
-2.16493e-30
4.96084e-30
-8.48255e-32
2.03875e-31
-3.4627e-33
8.58997e-33
-1.47896e-34
3.76987e-34
-6.60645e-36
1.72425e-35
-3.06399e-37
8.20984e-37
-1.46518e-38
4.04506e-38
-7.1692e-40
2.05032e-39
-3.56909e-41
1.06162e-40
-1.77231e-42
5.58306e-42
2.91982e-43
1.0083e-44
6.21011e-45
6.94201e-43
5.757e-43
3.20652e-41
3.20194e-41
1.12896e-39
1.39691e-39
2.34382e-38
5.11549e-38
-2.69761e-37
1.53456e-36
-4.25614e-35
3.66801e-35
-1.4375e-33
6.96408e-34
-3.99648e-32
1.01049e-32
-1.00127e-30
9.91464e-32
-2.34039e-29
2.7693e-31
-5.44875e-28
-1.59083e-29
-1.09646e-26
-3.81532e-28
-2.02185e-25
-6.38467e-27
-3.48988e-24
-1.00873e-25
-5.53418e-23
-1.47271e-24
-8.00276e-22
-1.96381e-23
-1.15252e-20
-1.53973e-22
-1.81745e-19
-2.45582e-21
-2.57552e-19
-1.59407e-20
-4.05379e-20
-3.53955e-20
-2.08581e-19
-3.07667e-20
-1.49909e-18
-2.22309e-20
-1.19972e-20
-6.80825e-21
-5.13374e-20
-2.05368e-21
-4.63146e-21
-1.05568e-22
-9.14294e-22
2.34621e-23
-1.72626e-22
1.68561e-23
-3.97124e-23
5.20919e-24
-2.28431e-24
2.2214e-24
-9.72416e-26
1.54733e-25
-3.67989e-27
7.14475e-27
-1.32867e-28
2.82236e-28
-4.83009e-30
1.03311e-29
-1.82937e-31
3.69336e-31
-7.15127e-33
1.35895e-32
-2.94528e-34
5.72647e-34
-1.26706e-35
2.54034e-35
-5.66741e-37
1.17387e-36
-2.62072e-38
5.63615e-38
-1.24623e-39
2.79484e-39
-6.05148e-41
1.41904e-40
-2.98426e-42
7.331e-42
-1.46284e-43
3.83449e-43
1.98512e-44
2.77856e-44
-2.17159e-48
2.63259e-42
-2.42212e-46
1.49687e-40
-1.50937e-44
6.63192e-39
-7.25823e-43
2.37383e-37
-2.96137e-41
6.76749e-36
-1.05681e-39
1.52693e-34
-3.32548e-38
2.60887e-33
-9.25277e-37
2.97732e-32
-2.28471e-35
9.54976e-32
-5.03346e-34
-4.56232e-30
-9.95671e-33
-3.74335e-29
-2.65901e-31
-3.42468e-28
-3.14721e-30
-6.13177e-27
-4.75657e-29
-1.0166e-25
-6.64696e-28
-1.4931e-24
-8.38061e-27
-2.00639e-23
-9.71699e-26
-2.34749e-22
-9.00472e-25
-3.77589e-21
-1.23083e-23
-1.73954e-20
-6.97253e-23
-3.29243e-20
-1.58305e-22
-2.90566e-20
-2.0075e-22
-1.0297e-20
-1.79534e-22
-9.51029e-21
-1.23582e-22
-8.55828e-21
-5.38042e-23
-1.47667e-22
-2.94719e-24
-4.86309e-23
6.76393e-25
-1.10546e-23
6.37654e-25
-2.53351e-24
2.24223e-25
-1.58309e-25
9.94166e-26
-7.11992e-27
8.48475e-27
-2.78374e-28
4.26254e-28
-1.02273e-29
1.76976e-29
-3.74628e-31
6.72472e-31
-1.40484e-32
2.47184e-32
-5.48272e-34
8.98654e-34
-2.24808e-35
3.55705e-35
-9.62671e-37
1.57461e-36
-4.31777e-38
7.24767e-38
-2.01203e-39
3.49077e-39
-9.59484e-41
1.74513e-40
-4.65182e-42
8.91145e-42
-2.28396e-43
4.63042e-43
-1.1097e-44
2.42491e-44
1.2491e-45
-2.33634e-48
-3.8228e-51
-2.44114e-46
-4.43021e-49
-1.53656e-44
-2.93673e-47
-7.40157e-43
-1.37685e-45
-3.0298e-41
-5.22321e-44
-1.08527e-39
-1.70488e-42
-3.42857e-38
-4.89169e-41
-9.58128e-37
-1.2487e-39
-2.37711e-35
-2.86396e-38
-5.26382e-34
-5.90962e-37
-1.04687e-32
-1.1029e-35
-2.76457e-31
-1.5209e-34
-3.37568e-30
-1.71833e-33
-5.09876e-29
-2.45115e-32
-7.23108e-28
-3.31921e-31
-9.13107e-27
-3.99513e-30
-1.06175e-25
-4.39075e-29
-1.36549e-24
-3.63356e-28
-1.91754e-23
-3.76646e-27
-8.29261e-23
-3.33849e-26
-1.6284e-22
-2.28704e-25
-2.14242e-22
-1.10148e-24
-2.2639e-22
-2.7062e-24
-2.17856e-22
-3.02104e-24
-1.11719e-22
-1.77154e-24
-4.19462e-24
-1.54379e-25
-1.97471e-24
1.20624e-26
-5.33226e-25
1.64813e-26
-1.33355e-25
7.12259e-27
-9.24197e-27
3.6669e-27
-4.45422e-28
3.6019e-28
-1.82307e-29
2.10418e-29
-6.9031e-31
9.39783e-31
-2.57998e-32
3.74167e-32
-9.82208e-34
1.42004e-33
-3.84867e-35
5.30265e-35
-1.57808e-36
2.02694e-36
-6.74317e-38
9.08069e-38
-3.01073e-39
4.20885e-39
-1.39446e-40
2.0242e-40
-6.63571e-42
1.00449e-41
-3.2401e-43
5.11343e-43
-1.59519e-44
2.67268e-44
-7.7191e-46
1.4036e-45
7.23999e-47
-3.68848e-51
2.5539e-52
-5.26652e-49
2.31564e-50
-3.17048e-47
1.11167e-48
-1.4244e-45
3.34741e-47
-5.36635e-44
6.8575e-46
-1.7444e-42
7.26567e-45
-5.01774e-41
-9.35708e-44
-1.29078e-39
-8.29822e-42
-2.95788e-38
-1.95944e-40
-6.10741e-37
-3.92549e-39
-1.14355e-35
-7.30823e-38
-1.52296e-34
-9.82702e-37
-1.87062e-33
-1.214e-35
-2.87475e-32
-1.8596e-34
-3.66314e-31
-2.38863e-33
-4.26441e-30
-2.74782e-32
-4.70604e-29
-2.96535e-31
-4.22092e-28
-2.56142e-30
-4.83325e-27
-2.56e-29
-4.98912e-26
-2.17011e-28
-4.52705e-25
-1.68935e-27
-2.48898e-24
-1.09382e-26
-5.75614e-24
-3.70559e-26
-6.1812e-24
-5.20956e-26
-3.38043e-24
-3.59962e-26
-1.32168e-25
-5.99174e-27
-5.88917e-26
1.8715e-28
-2.01582e-26
2.70652e-28
-5.64924e-27
1.78838e-28
-4.49862e-28
1.07774e-28
-2.36886e-29
1.24467e-29
-1.02752e-30
8.10082e-31
-4.05793e-32
4.10226e-32
-1.56645e-33
1.75819e-33
-6.11915e-35
6.90414e-35
-2.43573e-36
2.6758e-36
-1.01175e-37
1.04014e-37
-4.35995e-39
4.784e-39
-1.94978e-40
2.26131e-40
-9.00086e-42
1.09935e-41
-4.26085e-43
5.4776e-43
-2.06524e-44
2.78325e-44
-1.01066e-45
1.43987e-45
-4.90291e-47
7.49523e-47
3.86908e-48
1.1463e-51
-1.51314e-55
1.10083e-49
-1.96933e-53
4.91926e-48
-1.30612e-51
1.32813e-46
-6.06726e-50
1.74397e-45
-2.22752e-48
-2.14193e-44
-6.87128e-47
-1.12283e-42
-3.22064e-45
-8.33237e-42
-5.29029e-44
-1.43783e-40
-9.94491e-43
-3.27527e-39
-2.02985e-41
-6.52648e-38
-3.68957e-40
-1.12579e-36
-5.99781e-39
-1.66596e-35
-8.73441e-38
-2.02536e-34
-1.11972e-36
-2.30563e-33
-1.31775e-35
-2.69094e-32
-1.52071e-34
-3.00776e-31
-1.67791e-33
-3.01962e-30
-1.70907e-32
-3.29078e-29
-1.67295e-31
-3.35279e-28
-1.39194e-30
-3.76593e-27
-1.08267e-29
-3.04515e-26
-7.66799e-29
-9.37859e-26
-3.14833e-28
-1.19323e-25
-5.27215e-28
-8.0989e-26
-4.18193e-28
-4.83154e-27
-1.1349e-28
-1.31305e-27
1.97442e-31
-5.75799e-28
2.9627e-30
-1.8746e-28
3.29391e-30
-1.79398e-29
2.21145e-30
-1.05886e-30
3.61918e-31
-4.96123e-32
2.50229e-32
-2.07184e-33
1.35325e-33
-8.38009e-35
6.38818e-35
-3.3893e-36
2.73196e-36
-1.38557e-37
1.1304e-37
-5.87646e-39
4.80949e-39
-2.57252e-40
2.28411e-40
-1.16281e-41
1.10779e-41
-5.40184e-43
5.49749e-43
-2.56031e-44
2.7819e-44
-1.23524e-45
1.42588e-45
-5.99662e-47
7.38715e-47
-2.87845e-48
3.82511e-48
1.94828e-49
-1.50939e-55
-3.75621e-58
-1.97934e-53
-5.08088e-56
-1.32469e-51
-3.92704e-54
-6.18226e-50
-1.92174e-52
-2.28164e-48
-7.28999e-51
-7.07505e-47
-2.30446e-49
-3.29748e-45
-6.02536e-48
-5.62676e-44
-1.01063e-46
-1.04158e-42
-1.87662e-45
-2.13694e-41
-3.86559e-44
-3.91785e-40
-7.14318e-43
-6.39908e-39
-1.17761e-41
-9.35231e-38
-1.73227e-40
-1.20568e-36
-2.25122e-39
-1.42211e-35
-2.68443e-38
-1.66792e-34
-3.19286e-37
-1.86549e-33
-3.60739e-36
-2.11177e-32
-3.978e-35
-2.23314e-31
-3.80832e-34
-2.1828e-30
-3.18859e-33
-2.42859e-29
-2.42039e-32
-2.3431e-28
-1.73972e-31
-8.86448e-28
-9.92607e-31
-1.28569e-27
-2.84871e-30
-1.02703e-27
-3.48885e-30
-1.21861e-28
-2.13379e-30
-2.09443e-29
-2.35513e-31
-1.19394e-29
2.23558e-32
-4.77586e-30
4.18844e-32
-5.67204e-31
2.71821e-32
-3.93847e-32
8.2099e-33
-2.05497e-33
6.8035e-34
-9.21829e-35
3.80257e-35
-3.94708e-36
1.77749e-36
-1.66883e-37
8.28988e-38
-7.09006e-39
4.09976e-39
-3.09111e-40
2.00748e-40
-1.38306e-41
9.90631e-42
-6.35563e-43
4.95861e-43
-2.98756e-44
2.52309e-44
-1.42689e-45
1.30171e-45
-6.91124e-47
6.77277e-47
-3.34863e-48
3.54977e-48
-1.59498e-49
1.84598e-49
9.38229e-51
-3.77157e-58
1.53535e-60
-6.62491e-56
1.42209e-58
-4.05668e-54
6.41098e-57
-1.94057e-52
1.60864e-55
-7.39756e-51
1.54913e-54
-2.34749e-49
-7.33492e-53
-6.15888e-48
-4.97679e-51
-9.83965e-47
-8.15e-50
-2.02289e-45
-1.72211e-48
-4.2415e-44
-3.77966e-47
-7.66018e-43
-7.11817e-46
-1.21879e-41
-1.16484e-44
-1.79604e-40
-1.74255e-43
-2.34322e-39
-2.31839e-42
-2.94287e-38
-2.9738e-41
-3.63533e-37
-3.76101e-40
-4.11033e-36
-4.30135e-39
-5.01512e-35
-4.97324e-38
-5.29296e-34
-4.88489e-37
-5.00175e-33
-4.27236e-36
-4.78566e-32
-3.34982e-35
-5.03291e-31
-2.44306e-34
-3.44076e-30
-1.76059e-33
-9.12881e-30
-9.60511e-33
-1.0648e-29
-2.20365e-32
-6.83931e-30
-1.98381e-32
-2.83449e-31
-6.37155e-33
-1.78947e-31
7.08442e-35
-8.9817e-32
3.46389e-34
-1.39598e-32
3.0322e-34
-1.1745e-33
1.35529e-34
-7.10649e-35
1.48376e-35
-3.55734e-36
9.79718e-37
-1.63816e-37
4.87406e-38
-7.33217e-39
2.66084e-39
-3.26543e-40
1.43591e-40
-1.47331e-41
7.52111e-42
-6.77844e-43
3.89275e-43
-3.18352e-44
2.02525e-44
-1.52142e-45
1.06308e-45
-7.35496e-47
5.6211e-47
-3.59194e-48
2.98191e-48
-1.74577e-49
1.58524e-49
-8.31282e-51
8.31747e-51
4.25525e-52
6.86244e-60
-1.15552e-64
6.37588e-58
-1.77004e-62
2.4555e-56
-1.35147e-60
3.2141e-55
-7.04335e-59
-1.40366e-53
-2.83392e-57
-5.30026e-52
-1.62644e-55
-3.76743e-51
-2.9117e-54
-9.5537e-50
-7.3319e-53
-2.28079e-48
-1.69684e-51
-4.15726e-47
-3.29259e-50
-6.57368e-46
-5.679e-49
-1.09571e-44
-9.64932e-48
-1.73404e-43
-1.55209e-46
-2.53084e-42
-2.31294e-45
-3.44533e-41
-3.21933e-44
-4.30408e-40
-4.15866e-43
-5.12236e-39
-4.99764e-42
-6.39257e-38
-5.8011e-41
-6.99297e-37
-5.92513e-40
-6.81851e-36
-5.42582e-39
-6.09872e-35
-4.48052e-38
-5.93588e-34
-3.41903e-37
-6.90758e-33
-2.55763e-36
-4.18076e-32
-1.68848e-35
-8.03508e-32
-5.84184e-35
-7.27575e-32
-8.01545e-35
-6.69768e-33
-5.12703e-35
-2.49935e-33
-7.11138e-36
-1.2306e-33
1.93537e-36
-2.61439e-34
2.3965e-36
-2.76816e-35
1.42697e-36
-1.98851e-36
2.37896e-37
-1.13727e-37
1.98687e-38
-5.83231e-39
1.17105e-39
-2.82725e-40
7.24007e-41
-1.33761e-41
4.3332e-42
-6.32174e-43
2.45186e-43
-3.01422e-44
1.35331e-44
-1.45699e-45
7.39784e-46
-7.12217e-47
4.0443e-47
-3.50536e-48
2.20969e-48
-1.73302e-49
1.20421e-49
-8.47984e-51
6.53075e-51
-4.05237e-52
3.48118e-52
1.80003e-53
-1.15512e-64
-4.00914e-68
-1.78094e-62
-6.50028e-66
-1.36873e-60
-5.25569e-64
-7.17691e-59
-2.89419e-62
-2.90415e-57
-1.22704e-60
-1.65584e-55
-4.00066e-59
-3.06849e-54
-7.58531e-58
-7.57981e-53
-1.93748e-56
-1.77797e-51
-4.70647e-55
-3.47018e-50
-9.55721e-54
-5.98982e-49
-1.70684e-52
-1.02185e-47
-3.01165e-51
-1.66297e-46
-5.07859e-50
-2.49767e-45
-7.92215e-49
-3.49173e-44
-1.15489e-47
-4.53348e-43
-1.55149e-46
-5.95668e-42
-2.00372e-45
-7.57069e-41
-2.42249e-44
-8.59819e-40
-2.6084e-43
-8.78035e-39
-2.54394e-42
-8.16075e-38
-2.2609e-41
-7.71745e-37
-1.83768e-40
-8.83851e-36
-1.39338e-39
-7.68185e-35
-1.05191e-38
-2.43046e-34
-7.4475e-38
-3.08282e-34
-2.72712e-37
-2.28999e-34
-3.37415e-37
-3.77768e-35
-1.58609e-37
-1.20368e-35
2.27596e-39
-3.5715e-36
9.57308e-39
-5.07588e-37
6.77014e-39
-4.47855e-38
2.59388e-39
-2.98578e-39
2.97701e-40
-1.72582e-40
2.12484e-41
-9.20114e-42
1.60213e-42
-4.69145e-43
1.0798e-43
-2.35269e-44
6.72477e-45
-1.17615e-45
4.01195e-46
-5.90972e-47
2.33721e-47
-2.98081e-48
1.34649e-48
-1.50509e-49
7.68144e-50
-7.59159e-51
4.33843e-51
-3.78558e-52
2.42369e-52
-1.82981e-53
1.33043e-53
7.01135e-55
-4.00912e-68
-3.97374e-72
-6.51803e-66
-7.12262e-70
-5.28538e-64
-6.31576e-68
-2.91701e-62
-3.78125e-66
-1.24e-60
-1.73221e-64
-4.03848e-59
-6.01684e-63
-7.31035e-58
-1.17049e-61
-2.0866e-56
-3.56487e-60
-5.03056e-55
-9.2052e-59
-9.69666e-54
-1.88132e-57
-1.77129e-52
-3.56831e-56
-3.26768e-51
-6.82039e-55
-5.52955e-50
-1.2039e-53
-8.65441e-49
-1.97113e-52
-1.26221e-47
-3.01688e-51
-1.69245e-46
-4.21378e-50
-2.39986e-45
-5.8855e-49
-3.17813e-44
-7.47019e-48
-3.79773e-43
-8.46157e-47
-4.15093e-42
-8.69385e-46
-4.15253e-41
-8.16497e-45
-3.81583e-40
-7.03734e-44
-3.57345e-39
-5.58891e-43
-4.35246e-38
-4.16955e-42
-4.5611e-37
-3.0473e-41
-1.52411e-36
-2.01874e-40
-1.52483e-36
-7.48424e-40
-4.95203e-37
-9.52382e-40
-6.97125e-38
-3.22605e-40
-3.34221e-38
1.62152e-41
-7.04496e-39
3.79086e-41
-8.00461e-40
1.5207e-41
-6.41738e-41
3.10236e-42
-4.27102e-42
3.23068e-43
-2.53975e-43
2.95908e-44
-1.41316e-44
2.28683e-45
-7.60702e-46
1.58995e-46
-4.03031e-47
1.03769e-47
-2.12473e-48
6.51117e-49
-1.11502e-49
3.99002e-50
-5.81779e-51
2.39638e-51
-3.01415e-52
1.41296e-52
-1.53967e-53
8.18195e-54
-7.56479e-55
4.63269e-55
2.49795e-56
-3.02209e-72
-7.46227e-76
-5.30147e-70
-1.32394e-73
-4.6187e-68
-1.17006e-71
-2.74458e-66
-7.02222e-70
-1.25356e-64
-3.30395e-68
-5.00874e-63
-1.29447e-66
-1.64995e-61
-4.26182e-65
-4.32938e-60
-1.18521e-63
-8.57572e-59
-2.72025e-62
-1.88255e-57
-6.1994e-61
-3.93866e-56
-1.33731e-59
-7.54725e-55
-2.66519e-58
-1.32842e-53
-4.90107e-57
-2.16581e-52
-8.3852e-56
-3.28962e-51
-1.34112e-54
-4.551e-50
-1.96137e-53
-7.07622e-49
-2.93634e-52
-9.8207e-48
-3.96721e-51
-1.2299e-46
-4.82913e-50
-1.41027e-45
-5.38289e-49
-1.49219e-44
-5.54501e-48
-1.45774e-43
-5.3109e-47
-1.32966e-42
-4.74378e-46
-1.23857e-41
-3.99314e-45
-1.39163e-40
-3.33905e-44
-1.43195e-39
-2.90305e-43
-5.7607e-39
-1.61052e-42
-5.96492e-39
-2.93543e-42
-2.1057e-40
-1.78954e-42
-1.82749e-40
-5.36539e-44
-7.0376e-41
1.23911e-43
-1.10691e-41
8.69783e-44
-1.11586e-42
2.47235e-44
-8.78183e-44
3.9594e-45
-5.94183e-45
4.48301e-46
-3.66514e-46
4.07981e-47
-2.14498e-47
3.22908e-48
-1.21731e-48
2.34036e-49
-6.79521e-50
1.60059e-50
-3.74e-51
1.0538e-51
-2.03086e-52
6.72082e-53
-1.08753e-53
4.16854e-54
-5.71523e-55
2.51847e-55
-2.86724e-56
1.47815e-56
8.19592e-58
-7.46241e-76
-2.44512e-80
-1.33142e-73
-4.56752e-78
-1.18525e-71
-4.27171e-76
-7.80566e-70
-2.84223e-74
-3.38126e-68
-1.33632e-72
-1.34009e-66
-5.60634e-71
-4.39007e-65
-1.93306e-69
-1.22846e-63
-5.68065e-68
-2.83014e-62
-1.37546e-66
-6.45892e-61
-3.29819e-65
-1.41226e-59
-7.58377e-64
-2.82985e-58
-1.60194e-62
-5.21375e-57
-3.11689e-61
-8.93576e-56
-5.651e-60
-1.43281e-54
-9.59829e-59
-2.14118e-53
-1.49869e-57
-3.5095e-52
-2.39033e-56
-5.1771e-51
-3.45319e-55
-6.94675e-50
-4.50131e-54
-8.60616e-49
-5.38831e-53
-9.94907e-48
-5.98207e-52
-1.07709e-46
-6.20415e-51
-1.08616e-45
-6.04172e-50
-1.08048e-44
-5.53685e-49
-1.37082e-43
-4.79804e-48
-2.09454e-42
-4.06602e-47
-1.1624e-41
-3.60198e-46
-1.59075e-41
-2.4944e-45
-7.1288e-42
-5.89819e-45
-7.86903e-43
-3.25871e-45
-4.58115e-43
8.96798e-47
-1.14833e-43
3.67089e-46
-1.5367e-44
1.58676e-46
-1.47969e-45
3.70956e-47
-1.16704e-46
5.46835e-48
-8.12709e-48
6.04102e-49
-5.24605e-49
5.56533e-50
-3.22693e-50
4.55661e-51
-1.92638e-51
3.44353e-52
-1.12156e-52
2.46351e-53
-6.38585e-54
1.68452e-54
-3.55839e-55
1.10824e-55
-1.93533e-56
7.03791e-57
-9.96664e-58
4.31254e-58
2.47363e-59
-2.44528e-80
-3.00395e-84
-4.73014e-78
-6.0276e-82
-4.58193e-76
-6.0396e-80
-2.86613e-74
-4.11235e-78
-1.4746e-72
-2.12189e-76
-5.65037e-71
-8.85523e-75
-1.9788e-69
-3.27576e-73
-5.78089e-68
-1.01602e-71
-1.40919e-66
-2.6292e-70
-3.58302e-65
-7.04359e-69
-8.24033e-64
-1.71632e-67
-1.72606e-62
-3.81486e-66
-3.34205e-61
-7.84907e-65
-6.03131e-60
-1.50698e-63
-1.02172e-58
-2.71728e-62
-1.62596e-57
-4.55502e-61
-2.83705e-56
-7.78211e-60
-4.46167e-55
-1.20865e-58
-6.38981e-54
-1.69234e-57
-8.46432e-53
-2.17828e-56
-1.04848e-51
-2.6053e-55
-1.22588e-50
-2.91832e-54
-1.35965e-49
-3.07888e-53
-1.42356e-48
-3.068e-52
-1.44359e-47
-2.90211e-51
-1.71681e-46
-2.69376e-50
-2.95471e-45
-2.60181e-49
-2.67869e-44
-2.03889e-48
-4.61776e-44
-6.91996e-48
-4.1606e-45
-8.19914e-48
-1.72426e-45
-2.35072e-48
-7.882e-46
4.68797e-49
-1.58983e-46
6.6672e-49
-2.00532e-47
2.54602e-49
-1.90249e-48
5.25346e-50
-1.52826e-49
7.32018e-51
-1.10612e-50
8.06212e-52
-7.47228e-52
7.60591e-53
-4.82245e-53
6.45042e-54
-2.99755e-54
5.0773e-55
-1.8039e-55
3.76124e-56
-1.05339e-56
2.64813e-57
-5.9665e-58
1.78148e-58
-3.1714e-59
1.14747e-59
6.84913e-61
-2.66563e-84
-9.31487e-89
-5.46552e-82
-2.00775e-86
-5.55608e-80
-2.155e-84
-3.65951e-78
-1.53208e-82
-1.90412e-76
-8.42674e-81
-8.90033e-75
-3.89762e-79
-3.27995e-73
-1.50531e-77
-1.06046e-71
-5.10746e-76
-3.06921e-70
-1.55216e-74
-7.9241e-69
-4.26874e-73
-1.87066e-67
-1.07449e-71
-4.0757e-66
-2.49922e-70
-8.27185e-65
-5.42006e-69
-1.57774e-63
-1.10457e-67
-2.84056e-62
-2.12526e-66
-4.89085e-61
-3.85973e-65
-9.1404e-60
-7.04469e-64
-1.54002e-58
-1.18719e-62
-2.36092e-57
-1.80334e-61
-3.34914e-56
-2.5246e-60
-4.44707e-55
-3.29618e-59
-5.58057e-54
-4.04825e-58
-6.65325e-53
-4.70835e-57
-7.49863e-52
-5.21263e-56
-8.19294e-51
-5.50771e-55
-1.02915e-49
-5.56766e-54
-1.67822e-48
-5.52506e-53
-1.6601e-47
-5.83136e-52
-5.81526e-47
-5.42674e-51
-7.0702e-47
-1.84249e-50
-3.50631e-48
-1.49359e-50
-3.20768e-48
2.96459e-53
-1.25691e-48
2.34497e-51
-2.14127e-49
1.28421e-51
-2.53658e-50
3.85167e-52
-2.41347e-51
7.12864e-53
-1.99685e-52
9.70279e-54
-1.50376e-53
1.07991e-54
-1.0619e-54
1.04619e-55
-7.11795e-56
9.18805e-57
-4.56625e-57
7.45865e-58
-2.81529e-58
5.67385e-59
-1.67155e-59
4.07697e-60
-9.22265e-61
2.78011e-61
1.73755e-62
-9.49366e-89
-1.41427e-93
-2.05735e-86
-3.26488e-91
-2.20749e-84
-3.73447e-89
-1.47877e-82
-2.67208e-87
-8.57279e-81
-1.6429e-85
-3.95274e-79
-8.02662e-84
-1.54485e-77
-3.32903e-82
-5.25443e-76
-1.20252e-80
-1.6019e-74
-3.89637e-79
-4.41827e-73
-1.14295e-77
-1.11223e-71
-3.0621e-76
-2.59288e-70
-7.60347e-75
-5.63759e-69
-1.763e-73
-1.15335e-67
-3.84996e-72
-2.22908e-66
-7.95341e-71
-4.06682e-65
-1.55733e-69
-8.1489e-64
-3.03208e-68
-1.48404e-62
-5.57999e-67
-2.46002e-61
-9.19686e-66
-3.78141e-60
-1.39475e-64
-5.45552e-59
-1.97234e-63
-7.4594e-58
-2.62519e-62
-9.75188e-57
-3.31228e-61
-1.22655e-55
-3.98427e-60
-1.47732e-54
-4.58929e-59
-1.72019e-53
-5.07287e-58
-2.28623e-52
-5.38328e-57
-4.77181e-51
-5.56326e-56
-6.38527e-50
-5.95396e-55
-1.66226e-49
-6.32063e-54
-8.60185e-50
-2.78105e-53
-1.12819e-50
-2.0347e-53
-6.30232e-51
1.32684e-54
-1.73478e-51
3.973e-54
-2.71197e-52
2.0572e-54
-3.16139e-53
5.44607e-55
-3.06065e-54
9.55873e-56
-2.61442e-55
1.29166e-56
-2.04772e-56
1.45951e-57
-1.49664e-57
1.45311e-58
-1.03302e-58
1.30916e-59
-6.77836e-60
1.08733e-60
-4.24805e-61
8.4196e-62
-2.44749e-62
6.12464e-63
4.03427e-64
-1.48188e-93
-1.01462e-97
-3.33893e-91
-2.45926e-95
-3.63598e-89
-2.9024e-93
-2.68944e-87
-2.30026e-91
-1.57945e-85
-1.44605e-89
-8.14671e-84
-7.91998e-88
-3.36151e-82
-3.47987e-86
-1.21884e-80
-1.34485e-84
-3.95617e-79
-4.65893e-83
-1.15269e-77
-1.45044e-81
-3.09462e-76
-4.16446e-80
-7.71509e-75
-1.11138e-78
-1.8023e-73
-2.77924e-77
-3.96738e-72
-6.55479e-76
-8.26395e-71
-1.46463e-74
-1.64105e-69
-3.11723e-73
-3.45207e-68
-6.43973e-72
-6.82866e-67
-1.308e-70
-1.22372e-65
-2.36203e-69
-2.02992e-64
-3.91985e-68
-3.15819e-63
-6.06885e-67
-4.65506e-62
-8.85722e-66
-6.55575e-61
-1.22802e-64
-8.89197e-60
-1.6274e-63
-1.16922e-58
-2.07153e-62
-1.48788e-57
-2.53953e-61
-1.83021e-56
-3.00145e-60
-2.4198e-55
-3.48502e-59
-5.00598e-54
-4.27282e-58
-1.03898e-52
-4.96932e-57
-3.70567e-52
-2.56306e-56
-2.28376e-53
-3.86875e-56
-1.80199e-53
-9.53625e-57
-9.83103e-54
5.68378e-57
-2.25823e-54
7.50719e-57
-3.37952e-55
3.1573e-57
-3.94178e-56
7.5631e-58
-3.89908e-57
1.28621e-58
-3.44058e-58
1.73789e-59
-2.77614e-59
1.99797e-60
-2.08272e-60
2.0265e-61
-1.46703e-61
1.85899e-62
-9.77651e-63
1.5662e-63
-5.91882e-64
1.22528e-64
8.56469e-66
-1.0031e-97
-1.20576e-102
-2.40382e-95
-3.13736e-100
-2.8548e-93
-4.003e-98
-2.32825e-91
-3.49935e-96
-1.46939e-89
-2.36444e-94
-7.60226e-88
-1.30939e-92
-3.36134e-86
-6.1968e-91
-1.30609e-84
-2.57781e-89
-4.54927e-83
-9.61635e-88
-1.44136e-81
-3.26488e-86
-4.20072e-80
-1.02031e-84
-1.13609e-78
-2.96125e-83
-2.87169e-77
-8.03973e-82
-6.825e-76
-2.05434e-80
-1.53304e-74
-4.96659e-79
-3.27294e-73
-1.14154e-77
-7.1921e-72
-2.52157e-76
-1.56051e-70
-5.56582e-75
-3.05262e-69
-1.11166e-73
-5.52094e-68
-2.03066e-72
-9.36644e-67
-3.45865e-71
-1.50671e-65
-5.55779e-70
-2.31847e-64
-8.499e-69
-3.4405e-63
-1.24516e-67
-4.95627e-62
-1.75731e-66
-6.90676e-61
-2.39968e-65
-9.31675e-60
-3.17865e-64
-1.39022e-58
-4.08341e-63
-3.08211e-57
-5.13194e-62