/*--------------------------------*- C++ -*----------------------------------*\
  =========                 |
  \\      /  F ield         | OpenFOAM: The Open Source CFD Toolbox
   \\    /   O peration     | Website:  https://openfoam.org
    \\  /    A nd           | Version:  9
     \\/     M anipulation  |
\*---------------------------------------------------------------------------*/
FoamFile
{
    format      ascii;
    class       volScalarField;
    location    "0.1";
    object      k;
}
// * * * * * * * * * * * * * * * * * * * * * * * * * * * * * * * * * * * * * //

dimensions      [0 2 -2 0 0 0 0];

internalField   nonuniform List<scalar> 
1915
(
0.135677
0.149708
0.16795
0.191473
0.221409
0.247688
0.243999
0.22203
0.194575
0.168981
0.14821
0.132666
0.121562
0.113802
0.108406
0.104629
0.101951
0.100017
0.098592
0.097517
0.0966862
0.0960266
0.0954877
0.0950319
0.0946318
0.0311122
0.0576375
0.0701822
0.0774081
0.0819933
0.0850751
0.0872751
0.0889686
0.0903946
0.0917141
0.0930453
0.0944872
0.0961371
0.0981048
0.100525
0.103566
0.107447
0.112446
0.118919
0.127328
0.138262
0.152474
0.17091
0.194715
0.225173
0.249922
0.242222
0.218391
0.190865
0.166053
0.146285
0.131624
0.121165
0.113815
0.108644
0.104966
0.102308
0.100349
0.0988765
0.0977472
0.0968625
0.0961538
0.0955719
0.0950806
0.0946511
0.031523
0.0584017
0.070573
0.0777275
0.0823446
0.0854896
0.0877616
0.0895311
0.0910421
0.0924618
0.0939143
0.095503
0.0973279
0.0994991
0.102148
0.105439
0.10958
0.114835
0.121544
0.130142
0.141192
0.155421
0.173765
0.197425
0.227839
0.249674
0.237835
0.212565
0.185633
0.162246
0.143957
0.13047
0.120803
0.11392
0.108985
0.105395
0.102738
0.100735
0.0991993
0.098003
0.0970552
0.0962908
0.0956617
0.0951315
0.0946716
0.032267
0.0599985
0.0712823
0.0783062
0.0829477
0.0861418
0.0884668
0.0902998
0.0918945
0.0934247
0.0950211
0.0967912
0.098836
0.101264
0.1042
0.107799
0.112255
0.117813
0.124781
0.133559
0.144656
0.158729
0.176634
0.19955
0.2291
0.24565
0.229506
0.20397
0.178787
0.157663
0.141352
0.12929
0.120519
0.114132
0.109427
0.105905
0.103226
0.10116
0.0995464
0.0982723
0.0972542
0.0964295
0.0957506
0.0951804
0.0946893
0.0341536
0.0632838
0.0723626
0.0792792
0.083969
0.0871776
0.0894991
0.0913474
0.0930002
0.0946403
0.0964038
0.0983973
0.10072
0.103473
0.106774
0.110762
0.115613
0.121545
0.128831
0.137817
0.148939
0.162738
0.179859
0.201231
0.22855
0.23775
0.21735
0.19307
0.170887
0.152742
0.138739
0.12822
0.120366
0.114456
0.10995
0.106467
0.103745
0.101599
0.0998975
0.098539
0.0974468
0.0965601
0.0958311
0.0952214
0.0947002
0.0355001
0.0640041
0.0732516
0.0804636
0.08536
0.0886036
0.090857
0.0926551
0.0943361
0.0960822
0.0980418
0.100318
0.102998
0.106174
0.109945
0.114431
0.11979
0.126211
0.133924
0.143213
0.154439
0.168024
0.184208
0.203066
0.224648
0.223479
0.202542
0.181448
0.163087
0.148161
0.136458
0.127399
0.120372
0.11487
0.110514
0.10704
0.104256
0.102021
0.100226
0.0987827
0.0976176
0.0966712
0.0958947
0.0952483
0.0946997
0.035811
0.0631153
0.0727897
0.0806457
0.0859689
0.0894393
0.0917614
0.0936092
0.0954093
0.0973705
0.0996388
0.102314
0.105475
0.109198
0.113563
0.118672
0.12466
0.131682
0.13992
0.149581
0.160903
0.174164
0.189324
0.204494
0.213584
0.20447
0.187681
0.17107
0.156527
0.144479
0.134729
0.126872
0.120506
0.115311
0.111053
0.107561
0.104707
0.102384
0.100502
0.0989805
0.0977498
0.0967505
0.0959325
0.0952547
0.0946832
0.0356901
0.0623091
0.0721223
0.080086
0.08585
0.0896857
0.0923041
0.0943866
0.0963967
0.0985924
0.101147
0.104165
0.107724
0.111885
0.116711
0.122285
0.128693
0.136047
0.144449
0.153964
0.164576
0.176087
0.187827
0.196937
0.196804
0.188313
0.175823
0.163093
0.151618
0.14179
0.133512
0.126543
0.120656
0.115675
0.111474
0.107958
0.105041
0.102646
0.100693
0.0991091
0.0978267
0.0967861
0.0959363
0.0952348
0.0946467
0.0356222
0.0609121
0.0720148
0.0796812
0.0853885
0.0895584
0.092646
0.095134
0.0974244
0.0998011
0.102468
0.105561
0.109178
0.113393
0.118266
0.123852
0.130208
0.137377
0.145359
0.154058
0.16321
0.172225
0.179922
0.184205
0.182751
0.176131
0.16687
0.157115
0.147955
0.139757
0.132537
0.126201
0.120654
0.115829
0.111678
0.108154
0.105203
0.102765
0.100769
0.0991477
0.0978337
0.0967679
0.0958991
0.0951839
0.0945871
0.0359311
0.0606249
0.0724388
0.0798549
0.0853008
0.0894755
0.092761
0.095496
0.0979852
0.10048
0.10318
0.106236
0.109758
0.113829
0.118507
0.123833
0.129826
0.136467
0.143666
0.151221
0.158744
0.165589
0.17076
0.173024
0.171488
0.166613
0.159804
0.152304
0.144883
0.137893
0.131454
0.125594
0.120323
0.115649
0.111575
0.108086
0.105148
0.10271
0.100709
0.099081
0.0977603
0.0966889
0.0958161
0.0950989
0.0945022
0.0363107
0.061246
0.0731988
0.080345
0.0854712
0.0894884
0.0927811
0.0956061
0.0981879
0.100728
0.103403
0.106356
0.109701
0.113523
0.117879
0.122795
0.128261
0.134215
0.140515
0.146916
0.153025
0.158283
0.161991
0.163454
0.162301
0.158828
0.153802
0.147952
0.141827
0.135765
0.129955
0.124514
0.119523
0.115043
0.111105
0.107715
0.104849
0.102464
0.100502
0.0989019
0.097602
0.0965462
0.0956856
0.0949788
0.0943918
0.0363793
0.0618974
0.0739951
0.0809873
0.0858381
0.0896207
0.0927786
0.0955484
0.0981061
0.100609
0.1032
0.106006
0.109132
0.112658
0.116635
0.121078
0.125959
0.131195
0.13663
0.142016
0.147012
0.151183
0.154051
0.155208
0.154468
0.151993
0.148203
0.143535
0.138395
0.133092
0.127853
0.122844
0.118189
0.113975
0.110252
0.107033
0.104305
0.102027
0.100149
0.0986124
0.0973607
0.0963416
0.0955094
0.0948251
0.0942568
0.0361307
0.062251
0.0745843
0.0815865
0.0862805
0.0898491
0.0928127
0.0954309
0.0978667
0.10025
0.102698
0.105314
0.108189
0.111393
0.114967
0.118919
0.123213
0.12776
0.132408
0.136938
0.141065
0.144459
0.146789
0.147788
0.147338
0.145518
0.142568
0.138763
0.134408
0.129782
0.125113
0.120586
0.11634
0.112475
0.109045
0.10607
0.10354
0.10142
0.099665
0.0982236
0.0970449
0.0960815
0.0952922
0.0946414
0.0941003
0.0357208
0.0622956
0.0748792
0.081997
0.0866524
0.0900797
0.0928621
0.0952971
0.0975578
0.0997655
0.10202
0.104409
0.107006
0.109868
0.113029
0.116489
0.120209
0.124106
0.128042
0.13183
0.13524
0.13802
0.13993
0.14078
0.140485
0.139082
0.136719
0.133579
0.129897
0.125911
0.121833
0.117842
0.114074
0.110627
0.107557
0.104883
0.102598
0.100675
0.0990755
0.0977546
0.0966684
0.0957761
0.0950414
0.0944333
0.0939261
0.0352392
0.062122
0.074906
0.0821684
0.0868574
0.0902153
0.0928613
0.0951257
0.0971995
0.0992069
0.101241
0.103376
0.105675
0.108184
0.110926
0.113897
0.117061
0.120341
0.12362
0.126743
0.129526
0.131775
0.13331
0.133994
0.133761
0.132631
0.130707
0.128119
0.125045
0.12168
0.118208
0.114787
0.111541
0.108556
0.105884
0.103547
0.101538
0.0998372
0.0984129
0.097229
0.0962488
0.0954381
0.0947663
0.0942073
0.0937391
0.0347451
0.0618225
0.0747346
0.0821198
0.0868664
0.0902009
0.0927546
0.0948784
0.0967785
0.0985859
0.100392
0.102266
0.10426
0.106411
0.108738
0.111234
0.113864
0.116564
0.119236
0.121754
0.123975
0.125749
0.126943
0.127457
0.127241
0.12631
0.124735
0.122632
0.120117
0.117347
0.114472
0.111623
0.108907
0.106395
0.104135
0.102144
0.100421
0.0989522
0.097712
0.0966725
0.0958047
0.0950812
0.0944771
0.0939711
0.0935449
0.0342638
0.0614602
0.0744344
0.0819009
0.0866987
0.0900291
0.0925212
0.0945343
0.0962839
0.0979066
0.0994945
0.101113
0.10281
0.104616
0.106546
0.108592
0.110726
0.112892
0.115013
0.116991
0.118715
0.120075
0.12097
0.121329
0.121118
0.12035
0.119079
0.117395
0.115384
0.113162
0.110846
0.10854
0.106328
0.104271
0.102406
0.100751
0.099307
0.0980643
0.0970055
0.0961095
0.0953544
0.0947188
0.0941836
0.0937316
0.0933486
0.0338027
0.061073
0.0740594
0.0815658
0.0863948
0.0897234
0.0921712
0.0940971
0.0957203
0.0971805
0.0985706
0.0999545
0.101376
0.102865
0.104431
0.106069
0.107757
0.109451
0.111092
0.112603
0.113905
0.114914
0.11556
0.115794
0.115592
0.114966
0.113957
0.11263
0.111061
0.109324
0.107505
0.105685
0.103928
0.102281
0.100776
0.0994289
0.098242
0.09721
0.0963213
0.0955611
0.0949135
0.0943627
0.0938944
0.0934955
0.093155
0.0333627
0.0606809
0.0736462
0.0811598
0.0859987
0.08932
0.0917314
0.0935871
0.0951058
0.0964278
0.0976463
0.0988243
0.100004
0.101213
0.102461
0.103748
0.105054
0.106348
0.107585
0.108711
0.109666
0.110394
0.110845
0.110985
0.1108
0.110299
0.109513
0.108489
0.107287
0.105956
0.104558
0.103151
0.101784
0.100491
0.099299
0.0982205
0.0972603
0.0964158
0.09568
0.0950432
0.0944943
0.0940223
0.0936167
0.0932681
0.0929681
0.0329434
0.0602942
0.0732191
0.0807173
0.0855493
0.0888563
0.0912345
0.0930322
0.0944652
0.095673
0.0967482
0.0977532
0.0987295
0.0997033
0.100687
0.101681
0.102674
0.103643
0.104557
0.105378
0.106063
0.106575
0.106879
0.106954
0.10679
0.106397
0.105795
0.105018
0.104107
0.103107
0.102051
0.100981
0.0999325
0.0989329
0.0980013
0.0971491
0.0963814
0.0956979
0.095095
0.0945665
0.0941055
0.0937043
0.0933558
0.0930533
0.092791
0.0325437
0.0599188
0.0727934
0.0802632
0.085077
0.0883639
0.0907108
0.0924597
0.0938231
0.0949387
0.095898
0.0967629
0.0975745
0.0983591
0.0991308
0.099893
0.100639
0.101356
0.10202
0.102608
0.103091
0.103443
0.103642
0.103675
0.103536
0.103231
0.102776
0.102194
0.101514
0.100766
0.0999772
0.0991724
0.098377
0.0976112
0.0968897
0.096222
0.0956129
0.0950636
0.0945727
0.0941369
0.0937519
0.0934128
0.0931151
0.0928541
0.0926258
0.032162
0.0595569
0.0723783
0.0798131
0.0846021
0.0878656
0.0901832
0.0918913
0.093199
0.0942418
0.0951101
0.0958652
0.0965482
0.0971859
0.0977938
0.0983783
0.0989376
0.0994638
0.0999435
0.10036
0.100697
0.100935
0.101063
0.10107
0.100955
0.100721
0.10038
0.0999472
0.0994419
0.0988855
0.0982986
0.0976963
0.0970959
0.096512
0.0959555
0.0954342
0.0949527
0.0945127
0.0941143
0.093756
0.0934355
0.0931498
0.0928962
0.0926718
0.0924738
0.0317973
0.0592098
0.0719786
0.0793763
0.0841378
0.0873772
0.089668
0.0913425
0.0926063
0.0935931
0.094392
0.0950636
0.0956492
0.0961762
0.0966617
0.0971143
0.0975362
0.0979241
0.0982706
0.098566
0.0987993
0.0989601
0.0990399
0.0990336
0.0989399
0.0987619
0.098507
0.0981857
0.0978111
0.0973976
0.0969595
0.0965088
0.0960555
0.0956101
0.0951808
0.0947738
0.0943929
0.0940405
0.0937171
0.0934226
0.0931559
0.0929154
0.0926996
0.0925069
0.0923356
0.031448
0.0588779
0.0715975
0.0789591
0.0836933
0.0869096
0.0891771
0.0908243
0.0920543
0.0929989
0.093746
0.0943557
0.0948695
0.0953154
0.0957117
0.0960692
0.0963928
0.0966827
0.0969359
0.0971472
0.0973103
0.0974192
0.097469
0.0974566
0.0973816
0.0972462
0.0970554
0.0968164
0.0965379
0.0962295
0.095901
0.0955615
0.0952177
0.0948764
0.0945439
0.0942247
0.0939225
0.0936392
0.0933761
0.0931334
0.0929111
0.0927084
0.0925247
0.0923591
0.0922109
0.0311114
0.0585611
0.0712375
0.0785661
0.0832751
0.0864704
0.0887181
0.0903436
0.091548
0.0924612
0.0931704
0.0937353
0.0941973
0.0945851
0.0949181
0.0952085
0.0954633
0.0956854
0.0958747
0.0960291
0.0961457
0.0962212
0.0962528
0.096239
0.0961798
0.0960769
0.0959337
0.0957549
0.0955464
0.0953147
0.0950665
0.094808
0.0945452
0.0942818
0.0940223
0.0937704
0.0935291
0.0933002
0.093085
0.0928843
0.0926982
0.0925269
0.0923702
0.0922277
0.0920993
0.030786
0.0582595
0.0708996
0.0781997
0.0828864
0.0860635
0.0882948
0.0899033
0.0910883
0.0919787
0.0926607
0.0931938
0.0936194
0.0939666
0.0942555
0.0944996
0.0947074
0.0948836
0.0950301
0.095147
0.0952335
0.095288
0.0953094
0.095297
0.0952511
0.095173
0.0950649
0.0949301
0.0947727
0.094597
0.0944076
0.094209
0.0940054
0.0938
0.0935956
0.0933952
0.0932009
0.0930146
0.0928375
0.0926705
0.0925141
0.0923687
0.0922345
0.0921116
0.092
0.0304743
0.0579739
0.0705839
0.0778599
0.0825275
0.0856895
0.0879074
0.0895029
0.0906738
0.0915481
0.0922112
0.0927225
0.0931231
0.0934427
0.0937017
0.0939147
0.094091
0.0942367
0.0943551
0.0944479
0.0945154
0.0945574
0.0945737
0.0945642
0.0945293
0.0944701
0.0943882
0.0942858
0.0941658
0.0940311
0.0938849
0.0937305
0.0935709
0.0934089
0.0932462
0.093085
0.0929272
0.0927743
0.0926274
0.0924876
0.0923553
0.0922313
0.0921158
0.0920093
0.0919121
0.0301816
0.0577064
0.0702904
0.0775458
0.0821975
0.0853469
0.0875545
0.0891406
0.0903018
0.0911653
0.0918161
0.092313
0.0926973
0.0929987
0.0932382
0.0934307
0.0935865
0.0937124
0.0938129
0.0938904
0.0939463
0.0939813
0.0939956
0.0939897
0.093964
0.0939194
0.0938571
0.0937788
0.0936863
0.0935819
0.0934679
0.0933464
0.0932199
0.0930902
0.0929593
0.0928283
0.0926989
0.0925722
0.0924495
0.0923314
0.0922188
0.0921123
0.0920125
0.0919198
0.0918346
0.0299119
0.0574592
0.0700198
0.0772572
0.0818955
0.0850349
0.0872349
0.0888147
0.0899699
0.090827
0.0914704
0.0919586
0.0923329
0.092623
0.0928501
0.0930296
0.0931724
0.0932858
0.0933751
0.0934432
0.0934924
0.0935237
0.0935379
0.0935357
0.0935176
0.0934844
0.0934371
0.0933769
0.0933051
0.0932233
0.0931333
0.0930366
0.092935
0.0928301
0.0927233
0.0926157
0.0925084
0.0924025
0.0922989
0.0921985
0.0921019
0.0920098
0.0919229
0.0918417
0.0917667
0.029665
0.0572332
0.0697728
0.0769945
0.0816213
0.0847531
0.086948
0.0885242
0.0896766
0.0905306
0.0911704
0.0916541
0.0920229
0.0923064
0.0925262
0.0926978
0.0928326
0.0929384
0.0930208
0.0930835
0.0931289
0.0931587
0.0931739
0.0931752
0.0931635
0.0931393
0.0931034
0.0930569
0.0930007
0.092936
0.0928641
0.0927862
0.0927037
0.0926177
0.0925294
0.0924399
0.09235
0.0922604
0.0921721
0.0920858
0.0920022
0.091922
0.0918457
0.0917741
0.0917076
0.0294382
0.0570282
0.0695498
0.0767581
0.081376
0.0845024
0.0866945
0.0882696
0.0894215
0.0902751
0.090914
0.0913961
0.0917625
0.0920427
0.0922585
0.0924257
0.0925558
0.0926571
0.0927356
0.0927952
0.0928388
0.0928683
0.0928849
0.0928895
0.0928829
0.0928658
0.0928388
0.0928027
0.0927583
0.0927066
0.0926484
0.0925848
0.0925168
0.0924453
0.0923713
0.0922958
0.0922193
0.0921426
0.0920664
0.0919914
0.0919182
0.0918475
0.0917799
0.0917161
0.0916566
0.0292303
0.0568445
0.0693516
0.0765497
0.0811615
0.0842852
0.0864769
0.088053
0.0892064
0.0900615
0.0907015
0.0911839
0.0915499
0.091829
0.0920429
0.0922078
0.0923354
0.0924342
0.0925105
0.0925685
0.0926114
0.0926411
0.0926592
0.0926666
0.0926642
0.0926525
0.0926323
0.0926041
0.0925687
0.0925266
0.0924788
0.0924259
0.0923689
0.0923084
0.0922453
0.0921803
0.0921141
0.0920472
0.0919804
0.0919141
0.091849
0.0917857
0.091725
0.0916673
0.0916134
0.0290423
0.0566839
0.0691812
0.0763738
0.0809834
0.0841074
0.0863012
0.08788
0.0890365
0.0898943
0.0905365
0.0910205
0.0913872
0.0916663
0.0918796
0.0920435
0.0921697
0.0922671
0.0923421
0.0923993
0.0924418
0.0924719
0.0924912
0.0925008
0.0925015
0.0924939
0.0924787
0.0924563
0.0924274
0.0923925
0.0923522
0.0923072
0.0922581
0.0922056
0.0921503
0.092093
0.0920341
0.0919743
0.0919141
0.0918541
0.0917948
0.0917369
0.091681
0.0916278
0.0915779
0.0288759
0.056552
0.0690475
0.0762412
0.0808537
0.0839816
0.0861795
0.0877625
0.0889227
0.0897837
0.0904283
0.090914
0.0912817
0.091561
0.0917741
0.0919371
0.0920624
0.0921587
0.0922326
0.092289
0.0923311
0.0923613
0.0923814
0.0923923
0.0923951
0.0923903
0.0923785
0.0923601
0.0923356
0.0923056
0.0922704
0.0922307
0.0921869
0.0921396
0.0920893
0.0920367
0.0919822
0.0919265
0.09187
0.0918134
0.0917572
0.0917022
0.0916489
0.0915982
0.0915505
0.0287326
0.0564624
0.0689704
0.0761752
0.0807966
0.0839314
0.0861347
0.0877218
0.088885
0.089748
0.0903939
0.09088
0.0912475
0.0915262
0.0917382
0.0918999
0.0920236
0.0921184
0.0921909
0.092246
0.0922872
0.0923169
0.0923369
0.0923483
0.092352
0.0923487
0.0923388
0.0923227
0.0923009
0.0922736
0.0922414
0.0922044
0.0921632
0.0921182
0.0920699
0.0920187
0.0919651
0.0919099
0.0918535
0.0917967
0.0917401
0.0916846
0.091631
0.09158
0.0915323
0.0286215
0.0564492
0.0689949
0.0762232
0.0808584
0.0840005
0.0862069
0.0877945
0.0889565
0.0898175
0.0904607
0.0909438
0.0913082
0.0915837
0.0917925
0.0919511
0.0920718
0.0921639
0.0922339
0.0922868
0.0923262
0.0923545
0.0923734
0.0923842
0.0923877
0.0923845
0.0923751
0.0923598
0.0923388
0.0923124
0.0922808
0.0922442
0.0922029
0.092157
0.0921069
0.0920531
0.0919959
0.0919362
0.0918747
0.0918123
0.0917501
0.0916892
0.0916307
0.0915756
0.0915246
0.0285785
0.056597
0.0692176
0.0764795
0.0811252
0.0842653
0.0864633
0.0880395
0.0891894
0.0900383
0.0906703
0.0911433
0.0914985
0.091766
0.0919677
0.0921201
0.0922354
0.0923226
0.0923885
0.0924378
0.0924741
0.0924997
0.0925165
0.0925255
0.0925277
0.0925234
0.0925132
0.0924971
0.0924754
0.092448
0.0924151
0.0923764
0.0923319
0.0922816
0.0922254
0.0921636
0.0920965
0.0920251
0.0919504
0.0918742
0.0917982
0.0917241
0.0916539
0.0915887
0.0915297
0.0287057
0.0571005
0.0698382
0.0771221
0.0817481
0.0848517
0.0870086
0.0885448
0.0896584
0.0904755
0.0910803
0.0915303
0.0918664
0.092118
0.0923066
0.0924481
0.0925543
0.092634
0.0926935
0.0927374
0.0927691
0.0927908
0.0928042
0.0928104
0.0928101
0.0928037
0.0927914
0.0927735
0.0927497
0.0927199
0.0926838
0.0926408
0.0925904
0.0925318
0.0924644
0.0923878
0.092302
0.092208
0.0921078
0.0920041
0.0919006
0.0918008
0.0917078
0.0916238
0.0915497
0.0292888
0.0583826
0.0712402
0.0784604
0.0829676
0.0859457
0.0879884
0.089427
0.0904596
0.0912108
0.0917624
0.0921699
0.0924721
0.0926968
0.0928641
0.0929886
0.0930813
0.09315
0.0932006
0.0932372
0.0932628
0.0932794
0.0932884
0.0932908
0.0932872
0.0932779
0.0932631
0.0932426
0.0932161
0.0931832
0.0931431
0.0930946
0.0930363
0.0929663
0.0928826
0.0927832
0.0926671
0.0925346
0.0923884
0.0922343
0.0920803
0.091934
0.0918012
0.0916849
0.0915861
0.0311432
0.0613022
0.0740821
0.0809581
0.0851046
0.0877732
0.0895676
0.0908123
0.0916951
0.0923311
0.0927942
0.0931338
0.0933839
0.0935686
0.0937052
0.0938061
0.0938805
0.0939349
0.0939742
0.0940019
0.0940202
0.0940308
0.094035
0.0940333
0.0940263
0.0940141
0.0939968
0.093974
0.0939455
0.0939102
0.093867
0.0938139
0.0937483
0.0936666
0.093564
0.0934354
0.0932757
0.0930819
0.0928567
0.0926113
0.0923665
0.0921395
0.0919406
0.0917737
0.0916378
0.0362514
0.0673808
0.0792735
0.0851254
0.0884478
0.0905081
0.0918627
0.0927892
0.0934402
0.0939061
0.0942434
0.0944896
0.0946702
0.0948029
0.0949005
0.0949722
0.0950246
0.0950623
0.095089
0.0951068
0.0951176
0.0951224
0.0951221
0.095117
0.0951076
0.0950937
0.0950754
0.0950523
0.095024
0.0949893
0.0949468
0.0948939
0.0948268
0.0947396
0.0946239
0.0944679
0.0942569
0.0939758
0.093617
0.0931986
0.0927879
0.0924247
0.0921234
0.0918838
0.0916982
0.0492223
0.0787407
0.0874723
0.0910707
0.0929514
0.0940861
0.0948295
0.0953403
0.0957014
0.0959611
0.0961498
0.096288
0.0963895
0.0964643
0.0965193
0.0965596
0.0965888
0.0966097
0.0966239
0.0966328
0.0966372
0.0966378
0.0966349
0.0966287
0.0966194
0.0966069
0.0965911
0.0965719
0.0965487
0.0965207
0.0964865
0.0964438
0.0963884
0.0963136
0.0962078
0.0960514
0.0958118
0.0954383
0.0948655
0.0940654
0.0933435
0.0927644
0.0923226
0.091994
0.091753
0.0862962
0.096197
0.0972038
0.0975858
0.09784
0.0980364
0.0981893
0.0983066
0.0983956
0.0984627
0.0985131
0.0985511
0.0985797
0.0986013
0.0986177
0.09863
0.0986392
0.098646
0.0986507
0.0986537
0.0986551
0.0986551
0.0986537
0.0986511
0.0986471
0.0986417
0.098635
0.0986268
0.098617
0.0986053
0.098591
0.0985733
0.0985503
0.0985182
0.0984694
0.098387
0.0982312
0.0979013
0.0971307
0.0951607
0.0938955
0.0930485
0.0924684
0.0920655
0.0917833
)
;

boundaryField
{
    leftWall
    {
        type            kqRWallFunction;
        value           nonuniform List<scalar> 
42
(
0.0311122
0.031523
0.032267
0.0341536
0.0355001
0.035811
0.0356901
0.0356222
0.0359311
0.0363107
0.0363793
0.0361307
0.0357208
0.0352392
0.0347451
0.0342638
0.0338027
0.0333627
0.0329434
0.0325437
0.032162
0.0317973
0.031448
0.0311114
0.030786
0.0304743
0.0301816
0.0299119
0.029665
0.0294382
0.0292303
0.0290423
0.0288759
0.0287326
0.0286215
0.0285785
0.0287057
0.0292888
0.0311432
0.0362514
0.0492223
0.0862962
)
;
    }
    rightWall
    {
        type            kqRWallFunction;
        value           nonuniform List<scalar> 0();
    }
    lowerWall
    {
        type            kqRWallFunction;
        value           nonuniform List<scalar> 0();
    }
    atmosphere
    {
        type            inletOutlet;
        inletValue      uniform 0.1;
        value           nonuniform List<scalar> 
45
(
0.1
0.1
0.1
0.1
0.1
0.1
0.1
0.1
0.1
0.1
0.1
0.1
0.1
0.1
0.1
0.1
0.1
0.1
0.1
0.1
0.1
0.1
0.1
0.1
0.1
0.1
0.1
0.1
0.1
0.1
0.1
0.1
0.1
0.1
0.1
0.1
0.1
0.1
0.1
0.0951607
0.0938955
0.0930485
0.0924684
0.0920655
0.0917833
)
;
    }
    defaultFaces
    {
        type            empty;
    }
    procBoundary2to0
    {
        type            processor;
        value           nonuniform List<scalar> 
46
(
0.133332
0.147049
0.164891
0.187849
0.216952
0.244417
0.244587
0.224222
0.197088
0.171122
0.14973
0.133569
0.121971
0.113871
0.108269
0.104389
0.101675
0.0997491
0.0983543
0.0973202
0.0965328
0.0959147
0.0954134
0.0949903
0.0946176
0.0307814
0.0572609
0.0699569
0.0772145
0.0817666
0.0847939
0.0869315
0.0885575
0.0899092
0.091144
0.0923755
0.0936986
0.0952079
0.0970115
0.0992441
0.102079
0.105737
0.110505
0.11675
0.124941
0.124941
)
;
    }
    procBoundary2to3
    {
        type            processor;
        value           nonuniform List<scalar> 
43
(
0.0942658
0.094262
0.0942591
0.0942536
0.0942427
0.0942229
0.094191
0.0941442
0.0940803
0.0939981
0.0938974
0.0937791
0.0936454
0.0934991
0.093344
0.0931839
0.0930225
0.0928634
0.0927096
0.0925635
0.0924266
0.0923
0.0921841
0.092079
0.0919843
0.0918995
0.0918241
0.0917573
0.0916983
0.0916467
0.0916018
0.0915636
0.0915317
0.0915065
0.0914884
0.0914783
0.0914772
0.0914858
0.091504
0.0915295
0.091557
0.0915777
0.0915849
)
;
    }
}


// ************************************************************************* //
