/*--------------------------------*- C++ -*----------------------------------*\
  =========                 |
  \\      /  F ield         | OpenFOAM: The Open Source CFD Toolbox
   \\    /   O peration     | Website:  https://openfoam.org
    \\  /    A nd           | Version:  9
     \\/     M anipulation  |
\*---------------------------------------------------------------------------*/
FoamFile
{
    format      ascii;
    class       volScalarField;
    location    "0.1";
    object      p;
}
// * * * * * * * * * * * * * * * * * * * * * * * * * * * * * * * * * * * * * //

dimensions      [1 -1 -2 0 0 0 0];

internalField   nonuniform List<scalar> 
1915
(
17.6902
13.4747
7.1064
-0.353201
-2.084
-2.21587
-2.20968
-2.19366
-2.1758
-2.15227
-2.1253
-2.09739
-2.07004
-2.044
-2.01967
-1.99717
-1.97655
-1.95778
-1.94082
-1.92566
-1.9122
-1.90037
-1.89006
-1.88097
-1.87284
27.0959
29.523
29.6685
31.0509
32.2029
33.0482
33.5426
33.656
33.4024
32.8095
31.8904
30.6497
29.1074
27.3034
25.2754
23.0456
20.6417
18.0998
15.463
12.7958
10.3024
8.09614
4.18467
-1.04538
-2.20137
-2.32873
-2.33909
-2.32983
-2.31125
-2.2847
-2.25395
-2.22219
-2.19119
-2.16187
-2.13465
-2.10965
-2.08685
-2.06615
-2.04745
-2.03064
-2.01562
-2.00228
-1.99054
-1.9802
-1.97076
11.1261
15.7608
13.1319
12.7904
12.7848
12.9751
13.2175
13.4013
13.4688
13.3919
13.1475
12.7238
12.1322
11.4026
10.5706
9.66094
8.69185
7.69313
6.68311
5.71957
5.05076
4.7906
2.63087
-1.87062
-2.33239
-2.46407
-2.48795
-2.479
-2.45406
-2.42079
-2.38404
-2.34713
-2.31178
-2.27884
-2.24862
-2.22113
-2.19622
-2.17368
-2.15333
-2.13498
-2.11848
-2.10368
-2.09048
-2.07876
-2.06818
1.13856
6.94105
6.11919
5.82326
4.37304
2.78292
1.63306
0.991319
0.751095
0.778391
0.976973
1.26856
1.60974
1.98209
2.38563
2.81644
3.28121
3.78729
4.32109
4.86864
5.68102
7.12563
5.19788
-2.68167
-2.58149
-2.63728
-2.66002
-2.64222
-2.60426
-2.55982
-2.51475
-2.47148
-2.43122
-2.39445
-2.36121
-2.33129
-2.30437
-2.28012
-2.25823
-2.23845
-2.22057
-2.20444
-2.18992
-2.1769
-2.1652
-3.94655
-3.33401
-3.39723
-2.002
-0.595815
0.790355
1.68333
1.92674
1.99419
2.10785
2.31054
2.59245
2.92361
3.24662
3.52816
3.75302
3.92165
4.04403
4.1158
4.12424
4.19421
4.76764
4.58865
-2.99981
-3.12793
-2.87884
-2.8546
-2.81575
-2.75798
-2.6989
-2.64388
-2.59368
-2.54839
-2.5079
-2.47183
-2.43969
-2.41096
-2.38516
-2.36188
-2.34082
-2.32171
-2.30439
-2.28872
-2.2746
-2.26189
-3.85837
-3.73855
-3.82772
-3.899
-4.03636
-4.09734
-4.09624
-4.07977
-4.07356
-4.05008
-4.02459
-4.00071
-3.98148
-3.97753
-3.98045
-3.96916
-3.9588
-3.94975
-3.94286
-3.94516
-3.95722
-3.9573
-3.90505
-3.53075
-3.49002
-3.15288
-3.0609
-2.9852
-2.90539
-2.83225
-2.76793
-2.71146
-2.66182
-2.6182
-2.57979
-2.54582
-2.5156
-2.48852
-2.46407
-2.44189
-2.42173
-2.4034
-2.38676
-2.3717
-2.35811
-3.86361
-3.83344
-3.86336
-3.88604
-3.91417
-3.93231
-3.93994
-3.94271
-3.94589
-3.95477
-3.95869
-3.94873
-3.92805
-3.90732
-3.89743
-3.89496
-3.89196
-3.88942
-3.88897
-3.89173
-3.8974
-3.9052
-3.9127
-3.83342
-3.62378
-3.38461
-3.24195
-3.13125
-3.0356
-2.95344
-2.88313
-2.82256
-2.77007
-2.72439
-2.68443
-2.64923
-2.61796
-2.58992
-2.56457
-2.54152
-2.52051
-2.50135
-2.48393
-2.46811
-2.4538
-3.88882
-3.8771
-3.88947
-3.90694
-3.92913
-3.94881
-3.96246
-3.97028
-3.97274
-3.96883
-3.96319
-3.95575
-3.94669
-3.9381
-3.93116
-3.92393
-3.91605
-3.90845
-3.90161
-3.89529
-3.88758
-3.87821
-3.86712
-3.8253
-3.65738
-3.48388
-3.3493
-3.23742
-3.14115
-3.05828
-2.987
-2.92548
-2.87221
-2.82587
-2.78534
-2.7496
-2.71779
-2.68917
-2.66323
-2.63957
-2.61795
-2.59819
-2.58017
-2.56377
-2.54888
-3.91985
-3.91584
-3.92103
-3.93053
-3.94477
-3.95959
-3.9714
-3.97886
-3.98179
-3.9803
-3.97595
-3.96938
-3.96088
-3.9513
-3.94126
-3.9307
-3.91965
-3.90829
-3.89653
-3.88319
-3.86602
-3.84209
-3.80798
-3.75133
-3.64235
-3.52212
-3.41328
-3.31473
-3.22648
-3.14849
-3.08011
-3.02037
-2.9682
-2.92256
-2.88241
-2.84683
-2.81497
-2.78618
-2.75996
-2.73598
-2.714
-2.69386
-2.67544
-2.65863
-2.64333
-3.94884
-3.95082
-3.95426
-3.95893
-3.96609
-3.97387
-3.98025
-3.98406
-3.98491
-3.98293
-3.97853
-3.97186
-3.96315
-3.953
-3.94197
-3.93024
-3.91769
-3.90396
-3.88855
-3.87054
-3.84782
-3.81799
-3.77757
-3.72059
-3.64085
-3.55086
-3.4619
-3.3773
-3.29905
-3.22812
-3.1647
-3.10845
-3.05875
-3.01482
-2.97584
-2.94098
-2.90953
-2.88094
-2.85477
-2.83074
-2.80864
-2.78834
-2.76971
-2.75267
-2.7371
-3.97483
-3.98008
-3.98474
-3.98855
-3.99262
-3.99657
-3.99947
-4.00065
-3.99984
-3.99686
-3.99166
-3.98426
-3.97491
-3.96409
-3.95217
-3.93922
-3.92498
-3.90891
-3.89032
-3.86846
-3.84208
-3.80936
-3.76815
-3.71573
-3.65087
-3.57866
-3.5048
-3.43255
-3.36411
-3.30079
-3.24316
-3.19127
-3.14483
-3.10328
-3.06599
-3.0323
-3.00165
-2.97358
-2.94774
-2.92391
-2.90192
-2.88165
-2.863
-2.84587
-2.83019
-3.99928
-4.00566
-4.01165
-4.01609
-4.01954
-4.02216
-4.02366
-4.02377
-4.02219
-4.01854
-4.01256
-4.00432
-3.99415
-3.98246
-3.96949
-3.95519
-3.93919
-3.92097
-3.8999
-3.87539
-3.8467
-3.81283
-3.77256
-3.72475
-3.6694
-3.60902
-3.5467
-3.48483
-3.42526
-3.36925
-3.31752
-3.27028
-3.22744
-3.18861
-3.15334
-3.12114
-3.09156
-3.06427
-3.039
-3.01558
-2.99388
-2.97382
-2.95531
-2.93827
-2.9226
-4.02399
-4.03042
-4.03696
-4.04192
-4.04541
-4.0477
-4.04876
-4.04841
-4.04628
-4.04194
-4.03523
-4.02632
-4.01557
-4.00326
-3.98949
-3.97409
-3.95668
-3.93684
-3.91417
-3.88829
-3.85879
-3.8252
-3.78691
-3.7435
-3.69524
-3.64353
-3.59018
-3.53683
-3.48493
-3.43556
-3.3894
-3.34671
-3.30749
-3.27151
-3.23842
-3.20788
-3.17957
-3.15324
-3.12871
-3.10587
-3.08462
-3.06492
-3.04669
-3.02987
-3.01436
-4.05008
-4.05621
-4.06275
-4.06785
-4.0714
-4.07363
-4.07448
-4.0737
-4.07091
-4.06584
-4.05854
-4.04926
-4.03827
-4.0257
-4.01145
-3.99529
-3.97693
-3.95613
-3.93273
-3.90657
-3.87749
-3.84523
-3.80954
-3.77026
-3.72769
-3.68268
-3.63641
-3.59003
-3.54463
-3.50109
-3.45996
-3.42152
-3.38577
-3.35258
-3.32171
-3.29291
-3.26597
-3.24072
-3.21705
-3.1949
-3.17424
-3.15502
-3.13722
-3.12074
-3.10549
-4.07828
-4.084
-4.09027
-4.09529
-4.09881
-4.10092
-4.10146
-4.10011
-4.09663
-4.09101
-4.08343
-4.0741
-4.06312
-4.05046
-4.03594
-4.01934
-4.00052
-3.97943
-3.95609
-3.93051
-3.90263
-3.8723
-3.83938
-3.80385
-3.76597
-3.72633
-3.68575
-3.64511
-3.60519
-3.56668
-3.53002
-3.49542
-3.4629
-3.43236
-3.40364
-3.37658
-3.35104
-3.32693
-3.30419
-3.28283
-3.26285
-3.24424
-3.22696
-3.21094
-3.19603
-4.10897
-4.11431
-4.12019
-4.12499
-4.12832
-4.13011
-4.13014
-4.12821
-4.12427
-4.11845
-4.11091
-4.10174
-4.09087
-4.07816
-4.06349
-4.04676
-4.02796
-4.00719
-3.98457
-3.96015
-3.93389
-3.9057
-3.87548
-3.84327
-3.80931
-3.77407
-3.73819
-3.70231
-3.66703
-3.63286
-3.60011
-3.56893
-3.53934
-3.51126
-3.48458
-3.45919
-3.43502
-3.41206
-3.39031
-3.36981
-3.3506
-3.33268
-3.31603
-3.30054
-3.28605
-4.14228
-4.14723
-4.15271
-4.15718
-4.16014
-4.16146
-4.16099
-4.1587
-4.15466
-4.14897
-4.14167
-4.13269
-4.12188
-4.10914
-4.09445
-4.07788
-4.05954
-4.03958
-4.01811
-3.99517
-3.9707
-3.94463
-3.91691
-3.88762
-3.857
-3.82546
-3.79351
-3.76165
-3.73034
-3.6999
-3.67056
-3.64241
-3.61544
-3.58958
-3.56477
-3.54095
-3.51812
-3.4963
-3.47557
-3.456
-3.43763
-3.42048
-3.40451
-3.38962
-3.37561
-4.17812
-4.1827
-4.18777
-4.1918
-4.19432
-4.19523
-4.1945
-4.19218
-4.18833
-4.1829
-4.1758
-4.16689
-4.15609
-4.14338
-4.1289
-4.11282
-4.0953
-4.07648
-4.05639
-4.03504
-4.01236
-3.98828
-3.96282
-3.93611
-3.9084
-3.88005
-3.85147
-3.82307
-3.79516
-3.76796
-3.74158
-3.71608
-3.69141
-3.66753
-3.64441
-3.62206
-3.6005
-3.57984
-3.56016
-3.54156
-3.52408
-3.50775
-3.49252
-3.47826
-3.46475
-4.21637
-4.22061
-4.22525
-4.22885
-4.23099
-4.23168
-4.23097
-4.22885
-4.22525
-4.21998
-4.21291
-4.20399
-4.19323
-4.18077
-4.1668
-4.15153
-4.13511
-4.11759
-4.09897
-4.07918
-4.05817
-4.03592
-4.01251
-3.98811
-3.96297
-3.93743
-3.91182
-3.88643
-3.86148
-3.83707
-3.81326
-3.79004
-3.76737
-3.74525
-3.72366
-3.70267
-3.68236
-3.66284
-3.64424
-3.62664
-3.6101
-3.59462
-3.58015
-3.56653
-3.55355
-4.25699
-4.26095
-4.26518
-4.26842
-4.27035
-4.27101
-4.27043
-4.2685
-4.26498
-4.2597
-4.25257
-4.24367
-4.23316
-4.22124
-4.2081
-4.19391
-4.17873
-4.16255
-4.14532
-4.12697
-4.10749
-4.08692
-4.06539
-4.0431
-4.02032
-3.99731
-3.97434
-3.9516
-3.92921
-3.9072
-3.88558
-3.86432
-3.8434
-3.82282
-3.80264
-3.78294
-3.76384
-3.74548
-3.72797
-3.7114
-3.69582
-3.6812
-3.66748
-3.65451
-3.64206
-4.30005
-4.30374
-4.30766
-4.31067
-4.31252
-4.31322
-4.31268
-4.3107
-4.30707
-4.30167
-4.29456
-4.28591
-4.27594
-4.26486
-4.25278
-4.23977
-4.22583
-4.21089
-4.19491
-4.17786
-4.15978
-4.14077
-4.121
-4.10071
-4.08011
-4.05943
-4.03882
-4.01841
-3.99822
-3.97827
-3.95852
-3.93894
-3.91954
-3.90036
-3.88148
-3.86302
-3.84512
-3.82791
-3.81151
-3.79598
-3.78134
-3.76757
-3.75459
-3.74225
-3.73033
-4.34553
-4.34898
-4.35268
-4.35556
-4.35735
-4.35798
-4.35728
-4.35507
-4.35124
-4.34583
-4.33897
-4.33088
-4.32173
-4.31166
-4.30069
-4.28881
-4.27597
-4.26212
-4.24724
-4.23136
-4.2146
-4.1971
-4.17905
-4.16067
-4.14212
-4.12355
-4.10506
-4.08667
-4.06838
-4.05017
-4.03201
-4.01389
-3.99584
-3.97794
-3.9603
-3.94306
-3.92635
-3.91029
-3.89498
-3.88047
-3.86676
-3.85381
-3.84155
-3.82983
-3.81842
-4.3933
-4.39654
-4.40005
-4.40277
-4.4044
-4.40481
-4.40384
-4.4014
-4.39754
-4.39237
-4.38607
-4.37878
-4.37058
-4.36152
-4.35155
-4.34063
-4.3287
-4.31577
-4.30189
-4.28714
-4.27169
-4.2557
-4.23934
-4.22278
-4.20614
-4.18949
-4.17284
-4.1562
-4.13953
-4.1228
-4.10601
-4.08918
-4.07238
-4.05569
-4.03926
-4.0232
-4.00766
-3.99273
-3.97848
-3.96496
-3.95214
-3.93998
-3.92841
-3.91728
-3.90637
-4.44317
-4.44622
-4.44948
-4.45195
-4.45331
-4.45345
-4.45229
-4.44986
-4.44627
-4.44164
-4.43609
-4.42966
-4.42235
-4.41413
-4.40495
-4.39477
-4.38361
-4.37152
-4.35861
-4.34501
-4.3309
-4.31642
-4.30172
-4.28688
-4.27198
-4.25702
-4.24198
-4.22683
-4.21153
-4.19609
-4.18052
-4.16487
-4.14924
-4.13372
-4.11845
-4.10356
-4.08915
-4.07532
-4.0621
-4.04952
-4.03755
-4.02613
-4.01521
-4.00465
-3.99423
-4.49506
-4.49788
-4.50083
-4.50298
-4.50408
-4.50408
-4.50298
-4.50085
-4.49778
-4.49382
-4.489
-4.48329
-4.47665
-4.46903
-4.46043
-4.45086
-4.44039
-4.42914
-4.41725
-4.40487
-4.39214
-4.37917
-4.36604
-4.3528
-4.33944
-4.32595
-4.31228
-4.29841
-4.28431
-4.27001
-4.25555
-4.24101
-4.22649
-4.21211
-4.19798
-4.18422
-4.17092
-4.15814
-4.1459
-4.13421
-4.12303
-4.11232
-4.10201
-4.09198
-4.08202
-4.54889
-4.55145
-4.5541
-4.556
-4.55697
-4.55704
-4.55623
-4.55456
-4.55204
-4.54866
-4.54437
-4.53914
-4.53292
-4.52572
-4.51758
-4.5086
-4.49888
-4.48857
-4.4778
-4.46669
-4.45535
-4.44384
-4.43217
-4.42035
-4.40834
-4.3961
-4.3836
-4.37083
-4.35779
-4.34452
-4.3311
-4.31762
-4.30419
-4.29092
-4.27791
-4.26526
-4.25302
-4.24123
-4.22992
-4.21906
-4.20862
-4.19856
-4.18882
-4.17929
-4.16976
-4.6046
-4.60693
-4.60936
-4.61115
-4.61217
-4.61245
-4.61199
-4.61072
-4.60859
-4.60554
-4.60154
-4.59657
-4.59064
-4.58382
-4.57621
-4.56792
-4.55909
-4.54984
-4.54028
-4.53048
-4.52048
-4.51031
-4.49993
-4.48933
-4.47845
-4.46727
-4.45578
-4.44397
-4.43189
-4.4196
-4.40718
-4.39475
-4.38239
-4.37021
-4.3583
-4.3467
-4.33548
-4.32465
-4.3142
-4.30411
-4.29435
-4.28489
-4.27567
-4.2666
-4.2575
-4.66213
-4.66428
-4.66658
-4.66837
-4.66951
-4.66999
-4.66974
-4.66867
-4.6667
-4.66379
-4.65994
-4.65519
-4.64961
-4.64329
-4.63637
-4.62895
-4.62115
-4.61305
-4.60471
-4.59615
-4.58737
-4.57836
-4.56907
-4.55947
-4.54954
-4.53926
-4.52864
-4.51771
-4.50654
-4.4952
-4.48378
-4.47239
-4.4611
-4.45
-4.43915
-4.42858
-4.41832
-4.40838
-4.39873
-4.38936
-4.38023
-4.37131
-4.36257
-4.35394
-4.34523
-4.72141
-4.72344
-4.72565
-4.72744
-4.72863
-4.72916
-4.72894
-4.72788
-4.72593
-4.7231
-4.71944
-4.71503
-4.70996
-4.70435
-4.69829
-4.69187
-4.68516
-4.67819
-4.67097
-4.6635
-4.65574
-4.64768
-4.63927
-4.63049
-4.62135
-4.61185
-4.60204
-4.59196
-4.58169
-4.57131
-4.5609
-4.55056
-4.54034
-4.53029
-4.52047
-4.51089
-4.50154
-4.49243
-4.48352
-4.47481
-4.46625
-4.45783
-4.44954
-4.44131
-4.43299
-4.78236
-4.78429
-4.78638
-4.78807
-4.78917
-4.78959
-4.78926
-4.78813
-4.78622
-4.78357
-4.78026
-4.77638
-4.77201
-4.76724
-4.76213
-4.75671
-4.75101
-4.74503
-4.73875
-4.73215
-4.72519
-4.71787
-4.71017
-4.70209
-4.69365
-4.68489
-4.67587
-4.66665
-4.65731
-4.64792
-4.63855
-4.62926
-4.62009
-4.61109
-4.60225
-4.59359
-4.5851
-4.57675
-4.56852
-4.56041
-4.55238
-4.54443
-4.53656
-4.52873
-4.52081
-4.84486
-4.84664
-4.84856
-4.85004
-4.85092
-4.85115
-4.8507
-4.84958
-4.84783
-4.84553
-4.84274
-4.83952
-4.83592
-4.832
-4.82776
-4.82321
-4.81834
-4.81313
-4.80756
-4.80162
-4.79529
-4.78857
-4.78148
-4.77404
-4.7663
-4.7583
-4.75011
-4.7418
-4.73343
-4.72506
-4.71674
-4.70849
-4.70036
-4.69234
-4.68443
-4.67663
-4.66891
-4.66127
-4.65367
-4.64611
-4.63858
-4.63109
-4.62364
-4.61621
-4.60869
-4.90875
-4.91035
-4.91202
-4.91323
-4.91387
-4.91393
-4.91346
-4.91247
-4.91103
-4.90918
-4.90697
-4.90441
-4.90153
-4.89832
-4.89477
-4.89088
-4.88661
-4.88197
-4.87694
-4.87151
-4.8657
-4.85954
-4.85305
-4.84627
-4.83927
-4.8321
-4.82481
-4.81746
-4.81009
-4.80275
-4.79546
-4.78823
-4.78107
-4.77397
-4.76692
-4.7599
-4.7529
-4.7459
-4.73888
-4.73186
-4.72482
-4.71778
-4.71076
-4.70376
-4.69668
-4.97396
-4.97535
-4.97675
-4.97769
-4.97813
-4.97813
-4.97773
-4.97698
-4.9759
-4.9745
-4.9728
-4.97078
-4.96842
-4.96573
-4.96266
-4.95922
-4.95538
-4.95116
-4.94656
-4.9416
-4.93631
-4.93073
-4.9249
-4.91886
-4.91268
-4.90639
-4.90005
-4.89369
-4.88733
-4.88099
-4.87468
-4.8684
-4.86214
-4.85588
-4.84961
-4.84331
-4.83696
-4.83055
-4.82409
-4.81759
-4.81104
-4.80448
-4.79793
-4.7914
-4.7848
-5.04058
-5.04177
-5.04292
-5.04364
-5.04396
-5.04396
-5.04369
-5.04316
-5.04237
-5.0413
-5.03994
-5.03825
-5.03623
-5.03384
-5.03108
-5.02795
-5.02444
-5.02059
-5.01642
-5.01196
-5.00724
-5.00231
-4.99721
-4.99199
-4.98668
-4.98133
-4.97594
-4.97055
-4.96515
-4.95976
-4.95436
-4.94894
-4.94348
-4.93797
-4.9324
-4.92674
-4.921
-4.91517
-4.90925
-4.90327
-4.89724
-4.8912
-4.88517
-4.87915
-4.87309
-5.1088
-5.10984
-5.11079
-5.11136
-5.11162
-5.11163
-5.11143
-5.11101
-5.11035
-5.10941
-5.10819
-5.10664
-5.10476
-5.10254
-5.09998
-5.09709
-5.09391
-5.09045
-5.08675
-5.08284
-5.07876
-5.07456
-5.07025
-5.06588
-5.06146
-5.05701
-5.05254
-5.04805
-5.04354
-5.03899
-5.03439
-5.02973
-5.02499
-5.02015
-5.01521
-5.01015
-5.00498
-4.99971
-4.99434
-4.98891
-4.98344
-4.97796
-4.97249
-4.96705
-4.96157
-5.17885
-5.17979
-5.18063
-5.18111
-5.1813
-5.18126
-5.181
-5.18051
-5.17979
-5.1788
-5.17753
-5.17597
-5.17412
-5.17199
-5.1696
-5.16696
-5.16412
-5.16109
-5.15792
-5.15462
-5.15122
-5.14776
-5.14424
-5.14069
-5.13711
-5.1335
-5.12986
-5.12617
-5.12243
-5.11862
-5.11473
-5.11073
-5.10662
-5.10238
-5.09802
-5.09352
-5.08891
-5.0842
-5.0794
-5.07455
-5.06967
-5.0648
-5.05995
-5.05513
-5.05028
-5.25088
-5.25176
-5.25253
-5.25293
-5.25301
-5.2528
-5.25234
-5.25163
-5.25069
-5.2495
-5.24808
-5.24644
-5.24458
-5.24254
-5.24033
-5.23798
-5.23551
-5.23294
-5.23031
-5.22762
-5.22489
-5.22214
-5.21935
-5.21655
-5.21371
-5.21083
-5.20789
-5.2049
-5.20181
-5.19863
-5.19534
-5.19192
-5.18837
-5.18469
-5.18087
-5.17692
-5.17287
-5.16872
-5.16451
-5.16027
-5.15601
-5.15178
-5.14759
-5.14344
-5.13924
-5.32475
-5.32561
-5.32636
-5.32668
-5.32656
-5.32609
-5.32532
-5.32429
-5.32305
-5.32163
-5.32005
-5.31833
-5.31649
-5.31456
-5.31257
-5.31052
-5.30844
-5.30633
-5.30422
-5.30209
-5.29996
-5.29782
-5.29567
-5.29349
-5.29126
-5.28899
-5.28664
-5.28421
-5.28168
-5.27904
-5.27627
-5.27337
-5.27034
-5.26717
-5.26388
-5.26047
-5.25697
-5.25339
-5.24977
-5.24615
-5.24255
-5.23899
-5.23548
-5.23201
-5.2285
-5.39988
-5.40096
-5.40177
-5.40201
-5.40164
-5.40083
-5.3997
-5.39835
-5.39685
-5.39525
-5.39357
-5.39184
-5.39009
-5.38833
-5.38658
-5.38485
-5.38314
-5.38145
-5.37979
-5.37814
-5.3765
-5.37487
-5.37321
-5.37153
-5.3698
-5.368
-5.36613
-5.36417
-5.3621
-5.35992
-5.35762
-5.3552
-5.35265
-5.34998
-5.3472
-5.34432
-5.34136
-5.33835
-5.33532
-5.33232
-5.32938
-5.32651
-5.3237
-5.32093
-5.31811
-5.47631
-5.47763
-5.47844
-5.47853
-5.47783
-5.47664
-5.4752
-5.47363
-5.472
-5.47035
-5.4687
-5.46709
-5.4655
-5.46397
-5.46248
-5.46105
-5.45967
-5.45833
-5.45704
-5.45576
-5.45451
-5.45325
-5.45197
-5.45066
-5.44931
-5.4479
-5.44641
-5.44484
-5.44317
-5.4414
-5.43953
-5.43756
-5.43548
-5.43331
-5.43103
-5.42866
-5.42622
-5.42373
-5.42124
-5.41885
-5.41659
-5.41442
-5.41232
-5.41025
-5.40814
-5.55558
-5.5568
-5.55701
-5.55626
-5.55496
-5.55342
-5.55182
-5.55022
-5.54866
-5.54714
-5.54568
-5.54427
-5.54292
-5.54164
-5.54041
-5.53925
-5.53813
-5.53706
-5.53603
-5.53502
-5.53402
-5.53302
-5.53201
-5.53097
-5.5299
-5.52878
-5.5276
-5.52635
-5.52504
-5.52365
-5.52218
-5.52064
-5.51902
-5.51733
-5.51554
-5.51368
-5.51173
-5.50967
-5.50758
-5.50574
-5.50423
-5.50282
-5.50145
-5.5001
-5.49869
-5.63388
-5.6437
-5.64067
-5.63595
-5.6333
-5.6316
-5.63014
-5.62876
-5.62747
-5.62622
-5.62503
-5.62388
-5.62278
-5.62172
-5.62071
-5.61974
-5.6188
-5.6179
-5.61702
-5.61616
-5.61531
-5.61446
-5.6136
-5.61273
-5.61184
-5.61092
-5.60997
-5.60899
-5.60797
-5.60692
-5.60583
-5.60469
-5.60351
-5.60228
-5.60098
-5.5996
-5.59804
-5.59612
-5.59381
-5.5923
-5.59196
-5.59162
-5.59113
-5.59056
-5.5899
-5.68832
-5.74675
-5.72766
-5.71424
-5.70972
-5.70767
-5.7062
-5.70501
-5.70399
-5.70308
-5.70222
-5.70141
-5.70062
-5.69987
-5.69914
-5.69843
-5.69774
-5.69707
-5.69641
-5.69576
-5.69513
-5.6945
-5.69387
-5.69326
-5.69265
-5.69204
-5.69144
-5.69084
-5.69025
-5.68966
-5.68906
-5.68846
-5.68785
-5.6872
-5.68649
-5.68564
-5.68448
-5.68253
-5.67942
-5.6789
-5.68043
-5.6814
-5.68187
-5.68211
-5.6822
)
;

boundaryField
{
    leftWall
    {
        type            calculated;
        value           nonuniform List<scalar> 
42
(
27.0959
11.1261
1.13856
-3.94655
-3.85837
-3.86361
-3.88882
-3.91985
-3.94884
-3.97483
-3.99928
-4.02399
-4.05008
-4.07828
-4.10897
-4.14228
-4.17812
-4.21637
-4.25699
-4.30005
-4.34553
-4.3933
-4.44317
-4.49506
-4.54889
-4.6046
-4.66213
-4.72141
-4.78236
-4.84486
-4.90875
-4.97396
-5.04058
-5.1088
-5.17885
-5.25088
-5.32475
-5.39988
-5.47631
-5.55558
-5.63388
-5.68832
)
;
    }
    rightWall
    {
        type            calculated;
        value           nonuniform List<scalar> 0();
    }
    lowerWall
    {
        type            calculated;
        value           nonuniform List<scalar> 0();
    }
    atmosphere
    {
        type            calculated;
        value           nonuniform List<scalar> 
45
(
-5.7363
-5.74906
-5.74618
-5.74422
-5.74278
-5.74163
-5.74068
-5.73986
-5.73914
-5.7385
-5.7379
-5.73734
-5.73681
-5.7363
-5.7358
-5.73532
-5.73484
-5.73438
-5.73392
-5.73348
-5.73305
-5.73263
-5.73224
-5.73186
-5.7315
-5.73117
-5.73086
-5.73057
-5.73031
-5.73007
-5.72986
-5.72967
-5.72951
-5.72938
-5.72926
-5.72917
-5.72911
-5.72907
-5.72905
-5.72904
-5.72904
-5.72904
-5.72904
-5.72904
-5.72904
)
;
    }
    defaultFaces
    {
        type            empty;
    }
    procBoundary2to0
    {
        type            processor;
        value           nonuniform List<scalar> 
46
(
24.5984
18.5329
9.95701
0.356432
-1.97687
-2.13833
-2.09934
-2.06761
-2.04585
-2.0227
-1.99784
-1.97281
-1.94854
-1.92548
-1.9039
-1.88389
-1.86551
-1.84877
-1.83369
-1.82026
-1.80842
-1.79807
-1.78904
-1.78131
-1.77477
50.3543
51.2241
52.1446
53.4656
54.4081
54.9695
55.1019
54.7831
54.0212
52.8298
51.2208
49.2064
46.8091
44.0629
40.9981
37.632
33.9871
30.1116
26.04
21.8368
21.8368
)
;
    }
    procBoundary2to3
    {
        type            processor;
        value           nonuniform List<scalar> 
43
(
-1.86573
-1.96211
-2.05844
-2.15461
-2.25042
-2.34585
-2.44086
-2.53539
-2.62941
-2.72289
-2.81582
-2.90818
-2.99999
-3.09127
-3.18204
-3.27236
-3.36225
-3.45176
-3.54095
-3.62987
-3.71856
-3.80706
-3.89543
-3.98369
-4.07188
-4.16003
-4.24815
-4.33628
-4.42443
-4.51265
-4.60097
-4.68943
-4.77805
-4.86689
-4.95596
-5.04529
-5.13492
-5.22486
-5.31517
-5.4059
-5.49718
-5.58915
-5.68218
)
;
    }
}


// ************************************************************************* //
