/*--------------------------------*- C++ -*----------------------------------*\
  =========                 |
  \\      /  F ield         | OpenFOAM: The Open Source CFD Toolbox
   \\    /   O peration     | Website:  https://openfoam.org
    \\  /    A nd           | Version:  9
     \\/     M anipulation  |
\*---------------------------------------------------------------------------*/
FoamFile
{
    format      ascii;
    class       volScalarField;
    location    "0.1";
    object      p_rgh;
}
// * * * * * * * * * * * * * * * * * * * * * * * * * * * * * * * * * * * * * //

dimensions      [1 -1 -2 0 0 0 0];

internalField   nonuniform List<scalar> 
1915
(
2361.73
2357.57
2351.28
723.656
0.555033
0.133718
0.134847
0.150724
0.168493
0.192014
0.218987
0.24689
0.274244
0.300278
0.324616
0.34711
0.367733
0.386507
0.403458
0.418625
0.43208
0.443916
0.454222
0.46331
0.471448
2413.22
2424.46
2430.61
2435.61
2438.78
2440.69
2441.76
2442.18
2442.1
2441.61
2440.73
2439.5
2437.95
2436.11
2434.04
2431.75
2429.27
2426.65
2423.92
2421.17
2418.6
2416.67
2413.15
568.85
0.372328
0.0834189
0.0708229
0.0798345
0.0983596
0.12491
0.155662
0.187423
0.218419
0.24774
0.274962
0.299957
0.322757
0.343458
0.362161
0.378967
0.393985
0.407326
0.419066
0.429404
0.438852
2021.02
2290.66
2433
2464.22
2473.3
2478.44
2481.39
2483.08
2483.98
2484.36
2484.35
2483.98
2483.33
2482.43
2481.36
2480.15
2478.81
2477.41
2475.96
2474.57
2473.52
2474.16
2474.25
434.544
0.221497
0.0123307
-0.012116
-0.0034273
0.0214798
0.0547482
0.0915041
0.128415
0.16376
0.196701
0.22692
0.25441
0.279323
0.301857
0.322209
0.340556
0.357058
0.371858
0.385055
0.396783
0.407357
420.419
825.602
1322.75
1794.48
2122.61
2313.7
2416.05
2466.92
2490.39
2501.77
2506.92
2507.87
2505.83
2501.22
2494.55
2485.99
2473.79
2459.86
2443.16
2425.65
2409.36
2410.18
2445.3
310.066
-0.0175592
-0.0951733
-0.117809
-0.100136
-0.0621795
-0.0177403
0.0273365
0.0706011
0.110866
0.147637
0.180873
0.210791
0.237712
0.261968
0.283858
0.303637
0.32151
0.337645
0.352165
0.365182
0.376881
-1.3373
-0.724759
42.0694
211.755
444.023
699.625
931.955
1120.86
1256.78
1333.81
1369.35
1373.71
1354.93
1317.81
1266.77
1201.66
1133.5
1064.35
999.058
939.409
886.923
872.865
1072.33
150.438
-0.51819
-0.269596
-0.245345
-0.206505
-0.148738
-0.0896512
-0.0346389
0.0155704
0.0608559
0.101347
0.137414
0.169554
0.198287
0.224087
0.247361
0.26843
0.287536
0.304855
0.320521
0.334646
0.347359
-1.18133
-1.06152
-1.15069
-1.22197
-1.35933
-1.4203
-1.41921
-1.40274
-1.39654
6.24369
11.3439
11.8048
8.80162
3.0702
-1.30354
-1.29216
-1.28178
-1.27272
-1.26583
-1.26813
-1.28019
-1.28027
-1.22802
23.0732
-0.812985
-0.475851
-0.383864
-0.308165
-0.228354
-0.155218
-0.0909026
-0.0344273
0.0152099
0.0588359
0.0972457
0.131209
0.161429
0.188515
0.212961
0.235136
0.255301
0.273635
0.290274
0.305332
0.318919
-1.11817
-1.088
-1.11792
-1.14059
-1.16872
-1.18686
-1.1945
-1.19727
-1.20044
-1.20932
-1.21324
-1.20328
-1.18261
-1.16187
-1.15198
-1.14952
-1.14655
-1.14399
-1.14353
-1.14629
-1.15195
-1.15976
-1.16725
-1.08797
-0.878332
-0.639165
-0.496503
-0.385805
-0.290156
-0.207992
-0.137681
-0.0771134
-0.0246247
0.0210561
0.0610159
0.0962139
0.127485
0.155526
0.180876
0.203926
0.224938
0.244092
0.26152
0.277338
0.291649
-1.07433
-1.0626
-1.07497
-1.09245
-1.11463
-1.13432
-1.14797
-1.15579
-1.15825
-1.15434
-1.14869
-1.14126
-1.1322
-1.1236
-1.11667
-1.10943
-1.10155
-1.09396
-1.08711
-1.08079
-1.07308
-1.06371
-1.05262
-1.0108
-0.842879
-0.669386
-0.534803
-0.422926
-0.326657
-0.243786
-0.172505
-0.110988
-0.0577093
-0.0113744
0.0291549
0.0648912
0.0967094
0.125323
0.15127
0.174928
0.196549
0.216305
0.234327
0.25073
0.265612
-1.03567
-1.03165
-1.03685
-1.04634
-1.06059
-1.07541
-1.08721
-1.09467
-1.09761
-1.09611
-1.09177
-1.08519
-1.0767
-1.06711
-1.05707
-1.04651
-1.03546
-1.02411
-1.01234
-0.999003
-0.981832
-0.957902
-0.923797
-0.867144
-0.758165
-0.637933
-0.529093
-0.430547
-0.342288
-0.264298
-0.195923
-0.136182
-0.0840155
-0.0383706
0.00177306
0.0373619
0.0692202
0.0980115
0.124228
0.148212
0.170191
0.190328
0.208748
0.22556
0.240857
-0.994316
-0.996291
-0.999734
-1.0044
-1.01156
-1.01934
-1.02572
-1.02953
-1.03039
-1.02841
-1.02401
-1.01733
-1.00863
-0.998475
-0.987442
-0.975713
-0.963167
-0.949431
-0.934026
-0.916012
-0.893298
-0.863466
-0.823043
-0.766063
-0.686324
-0.596333
-0.507376
-0.422778
-0.344521
-0.273598
-0.210179
-0.153927
-0.104225
-0.0602983
-0.0213112
0.0135477
0.0449904
0.0735861
0.0997542
0.123786
0.145882
0.166185
0.18481
0.201859
0.217422
-0.949313
-0.954565
-0.959227
-0.963035
-0.967104
-0.971057
-0.973953
-0.975135
-0.974322
-0.971345
-0.966144
-0.958739
-0.949396
-0.938572
-0.926649
-0.913703
-0.899467
-0.883391
-0.864804
-0.84294
-0.816563
-0.783839
-0.742638
-0.690211
-0.625358
-0.553139
-0.479285
-0.407029
-0.338591
-0.275271
-0.217642
-0.165757
-0.119309
-0.0777622
-0.0404705
-0.0067853
0.0238662
0.0519408
0.0777755
0.101606
0.123597
0.143869
0.16252
0.179642
0.195323
-0.902117
-0.908494
-0.914488
-0.91892
-0.922373
-0.924991
-0.926495
-0.926604
-0.925022
-0.921368
-0.915395
-0.907158
-0.896988
-0.88529
-0.87232
-0.85802
-0.842025
-0.8238
-0.802738
-0.778223
-0.74953
-0.71566
-0.675389
-0.627585
-0.572235
-0.511856
-0.449531
-0.38766
-0.328091
-0.272088
-0.220351
-0.173118
-0.130269
-0.0914466
-0.0561776
-0.0239723
0.00560391
0.0328981
0.0581661
0.0815868
0.103284
0.123348
0.141859
0.1589
0.174562
-0.854508
-0.860934
-0.867481
-0.872439
-0.875931
-0.878213
-0.879275
-0.878929
-0.876797
-0.872461
-0.865751
-0.856841
-0.846083
-0.833778
-0.820007
-0.804604
-0.787199
-0.76736
-0.744687
-0.718803
-0.689312
-0.655713
-0.617425
-0.574017
-0.525762
-0.474052
-0.420694
-0.367349
-0.315451
-0.266082
-0.219913
-0.17723
-0.138012
-0.102026
-0.0689383
-0.0383968
-0.0100865
0.0162422
0.0407694
0.0636161
0.0848619
0.104567
0.12279
0.139609
0.155124
-0.807613
-0.813737
-0.820282
-0.825379
-0.828933
-0.831156
-0.832009
-0.831231
-0.828437
-0.823372
-0.816072
-0.806792
-0.795801
-0.783227
-0.768983
-0.752824
-0.734463
-0.713662
-0.690257
-0.664101
-0.635015
-0.602762
-0.567066
-0.52779
-0.485218
-0.440215
-0.393937
-0.347559
-0.302163
-0.258618
-0.217492
-0.179049
-0.143305
-0.110112
-0.0792397
-0.0504413
-0.0235
0.00174972
0.0254172
0.0475664
0.0682332
0.0874474
0.105252
0.121725
0.136983
-0.762142
-0.76787
-0.774136
-0.779154
-0.782679
-0.784788
-0.785324
-0.783974
-0.780498
-0.774876
-0.767291
-0.757961
-0.746989
-0.734324
-0.719802
-0.703208
-0.684386
-0.663291
-0.639954
-0.614377
-0.586492
-0.556163
-0.523248
-0.48772
-0.449834
-0.410193
-0.369619
-0.328971
-0.289058
-0.250549
-0.213888
-0.179285
-0.146764
-0.116225
-0.0875094
-0.060449
-0.0349067
-0.0107916
0.0119405
0.0332997
0.0532825
0.0718945
0.0891694
0.105191
0.120101
-0.718486
-0.723829
-0.729705
-0.734509
-0.73784
-0.739626
-0.73966
-0.737725
-0.733785
-0.727964
-0.720429
-0.711258
-0.700389
-0.687681
-0.673004
-0.656273
-0.637479
-0.616709
-0.594085
-0.569666
-0.54341
-0.515216
-0.484998
-0.45279
-0.41883
-0.383591
-0.347704
-0.311824
-0.27655
-0.242376
-0.209626
-0.178449
-0.148857
-0.120775
-0.094092
-0.068703
-0.044539
-0.0215756
0.000172655
0.0206696
0.0398813
0.0577984
0.0744527
0.0899409
0.104429
-0.676754
-0.68171
-0.687188
-0.691654
-0.694616
-0.695937
-0.695471
-0.693177
-0.689135
-0.683448
-0.676148
-0.667164
-0.656357
-0.643615
-0.628924
-0.612355
-0.594022
-0.57406
-0.552589
-0.529646
-0.50518
-0.479107
-0.451385
-0.422095
-0.391478
-0.35994
-0.327987
-0.296132
-0.264816
-0.23438
-0.205041
-0.17689
-0.149916
-0.124059
-0.0992456
-0.0754268
-0.052594
-0.0307815
-0.0100524
0.00952288
0.027892
0.0450411
0.0610072
0.0759013
0.0899143
-0.636862
-0.641439
-0.646508
-0.650545
-0.653064
-0.653971
-0.653239
-0.650925
-0.647071
-0.641643
-0.634539
-0.625633
-0.614828
-0.602125
-0.587642
-0.571558
-0.554044
-0.535218
-0.515136
-0.493785
-0.4711
-0.447024
-0.421567
-0.394854
-0.36714
-0.338787
-0.310212
-0.281812
-0.253902
-0.2267
-0.200327
-0.174819
-0.15015
-0.126274
-0.103156
-0.0807983
-0.0592458
-0.0385809
-0.0189015
-0.000297217
0.0171741
0.0335034
0.0487372
0.0630005
0.0765043
-0.598672
-0.602916
-0.607554
-0.611153
-0.613298
-0.613987
-0.613269
-0.611156
-0.607551
-0.602285
-0.595218
-0.58629
-0.575532
-0.56307
-0.549101
-0.533832
-0.51741
-0.499893
-0.481269
-0.461481
-0.440472
-0.418228
-0.394818
-0.370413
-0.345278
-0.319737
-0.294125
-0.268735
-0.243779
-0.219373
-0.195561
-0.172339
-0.149677
-0.12755
-0.105965
-0.084971
-0.0646586
-0.0451426
-0.0265397
-0.00894401
0.00759253
0.0230719
0.0375518
0.0511684
0.0641469
-0.562147
-0.5661
-0.570337
-0.573577
-0.575505
-0.576169
-0.575589
-0.57365
-0.570137
-0.564853
-0.557725
-0.548824
-0.538314
-0.526393
-0.513259
-0.499064
-0.483882
-0.467704
-0.450473
-0.432129
-0.412648
-0.392077
-0.370544
-0.348255
-0.32547
-0.302467
-0.279497
-0.256755
-0.23436
-0.212358
-0.190739
-0.169478
-0.148556
-0.127978
-0.107794
-0.0880917
-0.0689938
-0.0506315
-0.0331246
-0.0165594
-0.000974395
0.0136461
0.0273697
0.0403399
0.0527903
-0.527341
-0.531025
-0.534949
-0.537964
-0.539811
-0.540508
-0.539968
-0.53799
-0.534358
-0.528961
-0.521849
-0.513198
-0.503234
-0.492149
-0.480072
-0.467063
-0.453116
-0.438181
-0.422201
-0.405151
-0.387066
-0.368056
-0.348293
-0.327997
-0.3074
-0.286716
-0.266113
-0.245697
-0.225514
-0.205562
-0.18581
-0.166231
-0.146828
-0.127645
-0.108765
-0.0903071
-0.0724085
-0.0552021
-0.038798
-0.0232666
-0.00862981
0.00514154
0.0181216
0.0304566
0.042384
-0.494235
-0.497681
-0.501384
-0.504265
-0.506054
-0.506682
-0.505981
-0.503769
-0.499943
-0.49453
-0.487674
-0.47958
-0.470436
-0.460361
-0.449394
-0.437515
-0.424673
-0.410819
-0.395937
-0.380064
-0.363301
-0.345801
-0.327756
-0.309369
-0.290822
-0.272256
-0.253761
-0.235371
-0.217083
-0.198871
-0.180709
-0.162589
-0.144542
-0.126643
-0.109005
-0.0917609
-0.0750483
-0.0589904
-0.0436796
-0.0291669
-0.0154568
-0.00250996
0.00975043
0.0214686
0.032882
-0.46268
-0.465926
-0.469432
-0.472156
-0.473788
-0.474195
-0.473221
-0.470784
-0.466921
-0.461758
-0.455456
-0.448161
-0.439967
-0.430902
-0.420934
-0.41001
-0.398086
-0.385158
-0.371272
-0.356529
-0.341073
-0.32508
-0.308725
-0.292168
-0.275526
-0.25887
-0.242226
-0.225582
-0.20891
-0.192183
-0.175395
-0.158568
-0.141762
-0.125078
-0.10864
-0.0925843
-0.0770391
-0.0621092
-0.0478659
-0.0343398
-0.0215211
-0.00936325
0.00220892
0.0133338
0.0242459
-0.432503
-0.435553
-0.438811
-0.441276
-0.442639
-0.442781
-0.441624
-0.439194
-0.4356
-0.430973
-0.425419
-0.418988
-0.411681
-0.403461
-0.394279
-0.384103
-0.37294
-0.360849
-0.347936
-0.334341
-0.320226
-0.305748
-0.291045
-0.276214
-0.26131
-0.246346
-0.231306
-0.216155
-0.200864
-0.185423
-0.169851
-0.154204
-0.138565
-0.123048
-0.10778
-0.0928877
-0.0784823
-0.0646469
-0.0514311
-0.0388476
-0.026875
-0.0154635
-0.00454287
0.00601689
0.0164446
-0.403592
-0.406412
-0.409362
-0.411512
-0.412608
-0.412608
-0.411514
-0.409384
-0.406308
-0.40235
-0.39753
-0.391823
-0.385183
-0.377568
-0.368961
-0.359389
-0.348923
-0.337675
-0.325785
-0.313403
-0.300668
-0.287698
-0.274573
-0.261332
-0.247976
-0.234483
-0.220816
-0.206943
-0.192847
-0.178544
-0.164082
-0.14954
-0.135021
-0.120639
-0.106513
-0.0927547
-0.079453
-0.0666689
-0.0544313
-0.0427381
-0.03156
-0.0208477
-0.0105379
-0.000511183
0.00945244
-0.375877
-0.378439
-0.381087
-0.382986
-0.383958
-0.384028
-0.383219
-0.381549
-0.379029
-0.375645
-0.371358
-0.366121
-0.359903
-0.352704
-0.344569
-0.335583
-0.325866
-0.315553
-0.304783
-0.29368
-0.28234
-0.270825
-0.259159
-0.247335
-0.235323
-0.223086
-0.210589
-0.197815
-0.184775
-0.171509
-0.158089
-0.144609
-0.131179
-0.117909
-0.1049
-0.0922423
-0.0800026
-0.06822
-0.0569056
-0.0460456
-0.035607
-0.0255434
-0.0158006
-0.00627198
0.0032504
-0.349285
-0.35161
-0.354038
-0.355827
-0.356848
-0.357134
-0.356666
-0.355396
-0.353266
-0.350222
-0.346221
-0.341247
-0.335321
-0.328503
-0.320889
-0.312602
-0.303771
-0.294521
-0.284957
-0.275157
-0.265163
-0.254987
-0.244613
-0.234007
-0.223132
-0.211953
-0.200456
-0.188649
-0.176568
-0.164278
-0.151865
-0.139428
-0.127072
-0.114894
-0.102976
-0.0913839
-0.0801607
-0.0693259
-0.0588762
-0.0487901
-0.039034
-0.0295673
-0.0203468
-0.0112806
-0.00217659
-0.323743
-0.325893
-0.328192
-0.329978
-0.33112
-0.331605
-0.331356
-0.330284
-0.328314
-0.325406
-0.321556
-0.316802
-0.311216
-0.304903
-0.297979
-0.290562
-0.282761
-0.27466
-0.266317
-0.257758
-0.248983
-0.239969
-0.230682
-0.221086
-0.211153
-0.20087
-0.190248
-0.179321
-0.168149
-0.156811
-0.145396
-0.134
-0.122712
-0.111612
-0.100758
-0.0901924
-0.0799362
-0.069992
-0.0603462
-0.0509737
-0.0418436
-0.0329238
-0.0241835
-0.0155477
-0.00684341
-0.299183
-0.301214
-0.303425
-0.305208
-0.306402
-0.306936
-0.306711
-0.305646
-0.303698
-0.300871
-0.297212
-0.292799
-0.287732
-0.282118
-0.27606
-0.269642
-0.262928
-0.255957
-0.24874
-0.241267
-0.233514
-0.225447
-0.217038
-0.208265
-0.199122
-0.189624
-0.179807
-0.169727
-0.159457
-0.149078
-0.138675
-0.128328
-0.118107
-0.108066
-0.0982435
-0.0886587
-0.0793141
-0.0701995
-0.0612955
-0.0525775
-0.044021
-0.035604
-0.0273094
-0.0190799
-0.0107654
-0.275517
-0.27744
-0.279537
-0.281227
-0.282324
-0.282743
-0.282409
-0.281282
-0.279372
-0.276726
-0.273417
-0.269535
-0.265168
-0.260395
-0.255279
-0.249862
-0.244162
-0.238179
-0.2319
-0.225298
-0.218347
-0.211026
-0.203323
-0.195242
-0.186803
-0.178046
-0.169025
-0.159806
-0.150465
-0.141074
-0.131704
-0.122413
-0.113247
-0.104239
-0.0954042
-0.0867443
-0.0782489
-0.0699
-0.0616771
-0.05356
-0.0455331
-0.0375861
-0.0297151
-0.0218812
-0.0139583
-0.252608
-0.254391
-0.256305
-0.257792
-0.258673
-0.258899
-0.258447
-0.257327
-0.255583
-0.253279
-0.250485
-0.247265
-0.243673
-0.239746
-0.235506
-0.230955
-0.226085
-0.220877
-0.215312
-0.20937
-0.20304
-0.196322
-0.18923
-0.18179
-0.174045
-0.166049
-0.157863
-0.149553
-0.141183
-0.132811
-0.124485
-0.116242
-0.108105
-0.100084
-0.092178
-0.0843766
-0.0766625
-0.0690158
-0.061419
-0.0538596
-0.0463323
-0.0388386
-0.031387
-0.0239551
-0.0164399
-0.2303
-0.231899
-0.233566
-0.234782
-0.235417
-0.235484
-0.235007
-0.234023
-0.232582
-0.230734
-0.228518
-0.225962
-0.223077
-0.219867
-0.216321
-0.212427
-0.208166
-0.203522
-0.198488
-0.193061
-0.187254
-0.181088
-0.174597
-0.167825
-0.160823
-0.153649
-0.14636
-0.13901
-0.131644
-0.124302
-0.117009
-0.109779
-0.102618
-0.0955189
-0.0884695
-0.0814533
-0.0744523
-0.0674503
-0.060436
-0.0534064
-0.0463665
-0.0393288
-0.0323122
-0.025308
-0.0182314
-0.208517
-0.209908
-0.211301
-0.212243
-0.212684
-0.212683
-0.212287
-0.211533
-0.21045
-0.209054
-0.207349
-0.205329
-0.202978
-0.200279
-0.197215
-0.193771
-0.189938
-0.185717
-0.181116
-0.176156
-0.170865
-0.165282
-0.159449
-0.153415
-0.147232
-0.140948
-0.134605
-0.128241
-0.121882
-0.115545
-0.109238
-0.102958
-0.0966961
-0.0904369
-0.0841636
-0.0778593
-0.0715103
-0.0651075
-0.0586483
-0.0521388
-0.0455934
-0.0390336
-0.0324861
-0.025951
-0.0193562
-0.187328
-0.188522
-0.189663
-0.190384
-0.190708
-0.190712
-0.19044
-0.189908
-0.189115
-0.188048
-0.186686
-0.185003
-0.182977
-0.180589
-0.177829
-0.174694
-0.171193
-0.167343
-0.163169
-0.158704
-0.153986
-0.149057
-0.143961
-0.13874
-0.133433
-0.128074
-0.122689
-0.117294
-0.1119
-0.106505
-0.101105
-0.0956852
-0.0902304
-0.084723
-0.079147
-0.0734902
-0.0677459
-0.0619134
-0.0559996
-0.0500183
-0.0439916
-0.037947
-0.0319155
-0.0259009
-0.0198378
-0.166927
-0.167968
-0.16892
-0.169492
-0.169748
-0.169763
-0.169561
-0.169138
-0.168474
-0.167543
-0.166316
-0.16477
-0.16289
-0.160667
-0.158107
-0.155222
-0.152036
-0.148575
-0.144874
-0.140967
-0.136892
-0.132685
-0.12838
-0.124005
-0.119585
-0.115135
-0.110665
-0.106176
-0.101663
-0.0971168
-0.0925219
-0.0878619
-0.0831201
-0.0782816
-0.0733357
-0.0682771
-0.063107
-0.0578334
-0.0524708
-0.0470399
-0.0415674
-0.0360835
-0.0306202
-0.0251801
-0.0196984
-0.147533
-0.148477
-0.149315
-0.149794
-0.149982
-0.149941
-0.149682
-0.149198
-0.148471
-0.147481
-0.146211
-0.144652
-0.142803
-0.140675
-0.138282
-0.135649
-0.132804
-0.129778
-0.1266
-0.123301
-0.119907
-0.116444
-0.112929
-0.109377
-0.105796
-0.102185
-0.0985426
-0.094858
-0.0911187
-0.0873094
-0.0834137
-0.079416
-0.0753031
-0.0710656
-0.0666997
-0.0622071
-0.0575967
-0.0528835
-0.0480883
-0.0432367
-0.0383571
-0.0334798
-0.0286336
-0.023817
-0.0189609
-0.129287
-0.130167
-0.130939
-0.131344
-0.131416
-0.131211
-0.130751
-0.130045
-0.129098
-0.127912
-0.126493
-0.124849
-0.122996
-0.120951
-0.11874
-0.116386
-0.113917
-0.111354
-0.10872
-0.106032
-0.103305
-0.100548
-0.0977651
-0.0949563
-0.0921165
-0.0892367
-0.0863048
-0.0833058
-0.080224
-0.0770436
-0.0737502
-0.0703325
-0.0667824
-0.0630968
-0.0592777
-0.0553333
-0.051278
-0.0471325
-0.0429232
-0.0386771
-0.0344249
-0.0301923
-0.0260025
-0.0218469
-0.0176509
-0.112045
-0.11291
-0.113656
-0.113977
-0.113864
-0.113389
-0.112616
-0.111592
-0.110353
-0.10893
-0.107346
-0.105625
-0.10379
-0.101862
-0.0998648
-0.0978167
-0.0957343
-0.0936305
-0.0915143
-0.0893909
-0.0872612
-0.0851219
-0.0829662
-0.0807838
-0.0785624
-0.0762873
-0.0739426
-0.0715124
-0.0689814
-0.0663366
-0.0635677
-0.0606679
-0.0576343
-0.0544681
-0.0511756
-0.0477687
-0.0442654
-0.0406899
-0.0370734
-0.0334523
-0.0298521
-0.0262911
-0.0227836
-0.0193129
-0.0158001
-0.0952229
-0.0962992
-0.0971061
-0.0973484
-0.0969845
-0.0961683
-0.0950397
-0.0936936
-0.0921945
-0.0905885
-0.0889095
-0.0871836
-0.0854326
-0.0836745
-0.0819232
-0.0801888
-0.0784772
-0.0767904
-0.0751268
-0.0734812
-0.0718448
-0.0702062
-0.0685519
-0.0668673
-0.0651366
-0.063344
-0.0614736
-0.059511
-0.057444
-0.0552632
-0.0529625
-0.0505386
-0.0479916
-0.0453247
-0.0425452
-0.0396654
-0.0367036
-0.0336872
-0.0306566
-0.0276599
-0.0247245
-0.0218519
-0.0190416
-0.0162683
-0.0134518
-0.0788427
-0.0801569
-0.0809708
-0.0810595
-0.0803616
-0.0791696
-0.0777243
-0.0761541
-0.0745252
-0.0728766
-0.0712336
-0.0696144
-0.0680323
-0.0664964
-0.0650119
-0.0635802
-0.0621992
-0.0608637
-0.0595655
-0.0582936
-0.057035
-0.0557752
-0.0544993
-0.0531923
-0.051839
-0.0504252
-0.0489374
-0.0473647
-0.0456983
-0.0439325
-0.0420638
-0.0400907
-0.0380136
-0.0358344
-0.0335579
-0.0311921
-0.0287505
-0.026259
-0.0237727
-0.0213809
-0.0191221
-0.0169537
-0.0148511
-0.0127809
-0.0106673
-0.0644358
-0.0656529
-0.0658626
-0.0651125
-0.0638133
-0.0622768
-0.0606713
-0.0590742
-0.057514
-0.0559995
-0.0545359
-0.0531281
-0.0517801
-0.0504937
-0.0492684
-0.0481013
-0.046987
-0.0459179
-0.0448844
-0.043875
-0.0428773
-0.0418787
-0.0408667
-0.0398291
-0.0387542
-0.0376312
-0.0364508
-0.0352057
-0.0338906
-0.0325023
-0.0310387
-0.0294983
-0.0278794
-0.0261806
-0.0244003
-0.0225367
-0.0205826
-0.0185277
-0.0164375
-0.014595
-0.0130806
-0.0116761
-0.0103089
-0.0089517
-0.00754735
-0.0481884
-0.0580078
-0.0549849
-0.0502653
-0.047609
-0.0459133
-0.0444474
-0.0430754
-0.0417773
-0.0405355
-0.0393408
-0.0381914
-0.0370881
-0.0360308
-0.0350182
-0.0340472
-0.0331135
-0.0322111
-0.031333
-0.0304716
-0.0296191
-0.0287678
-0.0279102
-0.0270394
-0.0261486
-0.025232
-0.0242849
-0.0233038
-0.0222865
-0.0212316
-0.0201376
-0.0190024
-0.0178219
-0.0165892
-0.0152927
-0.0139087
-0.0123565
-0.0104348
-0.00812358
-0.0066095
-0.00627704
-0.00593085
-0.00543954
-0.00486717
-0.00421617
-0.00721068
-0.0656371
-0.0465544
-0.0331287
-0.0286147
-0.0265571
-0.0250865
-0.0238999
-0.0228856
-0.0219689
-0.021112
-0.0202972
-0.0195159
-0.0187625
-0.0180332
-0.0173251
-0.0166355
-0.0159619
-0.0153021
-0.0146541
-0.0140163
-0.0133873
-0.0127658
-0.0121507
-0.0115408
-0.0109353
-0.0103335
-0.00973509
-0.00913958
-0.00854603
-0.00795225
-0.0073535
-0.00674017
-0.00609345
-0.00537921
-0.00453208
-0.0033745
-0.0014222
0.00168478
0.00220764
0.00068211
-0.000289879
-0.000759415
-0.000996187
-0.00109418
)
;

boundaryField
{
    leftWall
    {
        type            fixedFluxPressure;
        gradient        uniform 0;
        value           nonuniform List<scalar> 
42
(
2413.22
2021.02
420.419
-1.3373
-1.18133
-1.11817
-1.07433
-1.03567
-0.994316
-0.949313
-0.902117
-0.854508
-0.807613
-0.762142
-0.718486
-0.676754
-0.636862
-0.598672
-0.562147
-0.527341
-0.494235
-0.46268
-0.432503
-0.403592
-0.375877
-0.349285
-0.323743
-0.299183
-0.275517
-0.252608
-0.2303
-0.208517
-0.187328
-0.166927
-0.147533
-0.129287
-0.112045
-0.0952229
-0.0788427
-0.0644358
-0.0481884
-0.00721068
)
;
    }
    rightWall
    {
        type            fixedFluxPressure;
        gradient        nonuniform List<scalar> 0();
        value           nonuniform List<scalar> 0();
    }
    lowerWall
    {
        type            fixedFluxPressure;
        gradient        nonuniform List<scalar> 0();
        value           nonuniform List<scalar> 0();
    }
    atmosphere
    {
        type            totalPressure;
        rho             rho;
        psi             none;
        gamma           1;
        p0              uniform 0;
        value           nonuniform List<scalar> 
45
(
-0.00725889
-0.0200165
-0.0171389
-0.0151752
-0.0137415
-0.0125943
-0.0116391
-0.010821
-0.0101022
-0.00945543
-0.00886067
-0.00830327
-0.00777255
-0.007261
-0.00676365
-0.00627761
-0.00580159
-0.00533552
-0.00488018
-0.00443693
-0.00400745
-0.00359358
-0.00319713
-0.00281987
-0.00246337
-0.002129
-0.00181793
-0.00153102
-0.00126892
-0.00103199
-0.000820364
-0.00063395
-0.000472482
-0.000335588
-0.000222882
-0.000134075
-6.89605e-05
-2.71191e-05
-6.58696e-06
0
0
0
0
0
0
)
;
    }
    defaultFaces
    {
        type            empty;
    }
    procBoundary2to0
    {
        type            processor;
        value           nonuniform List<scalar> 
46
(
2304.11
2298.06
2289.5
876.092
0.783685
0.150843
0.180613
0.212108
0.233725
0.256859
0.28172
0.306745
0.33102
0.354076
0.375661
0.395664
0.414047
0.430785
0.445866
0.4593
0.471142
0.481492
0.490519
0.498248
0.504788
2388.87
2392.02
2394.47
2396.66
2398.06
2398.86
2399.11
2398.86
2398.13
2396.96
2395.36
2393.35
2390.95
2388.2
2385.12
2381.75
2378.09
2374.19
2370.1
2365.88
2365.88
)
;
    }
    procBoundary2to3
    {
        type            processor;
        value           nonuniform List<scalar> 
43
(
0.478548
0.447496
0.417097
0.387473
0.358827
0.331183
0.304591
0.279106
0.254774
0.231631
0.209699
0.188989
0.169496
0.151204
0.13409
0.118124
0.103272
0.0894932
0.0767424
0.0649759
0.0541523
0.0442335
0.0351845
0.0269756
0.019583
0.0129868
0.00716919
0.00211296
-0.00220241
-0.00580297
-0.00871785
-0.0109765
-0.0126075
-0.0136375
-0.0140888
-0.0139792
-0.0133269
-0.0121564
-0.0105059
-0.0084323
-0.00603395
-0.00345889
-0.00107519
)
;
    }
}


// ************************************************************************* //
