/*--------------------------------*- C++ -*----------------------------------*\
  =========                 |
  \\      /  F ield         | OpenFOAM: The Open Source CFD Toolbox
   \\    /   O peration     | Website:  https://openfoam.org
    \\  /    A nd           | Version:  9
     \\/     M anipulation  |
\*---------------------------------------------------------------------------*/
FoamFile
{
    format      ascii;
    class       surfaceScalarField;
    location    "0.1";
    object      phi;
}
// * * * * * * * * * * * * * * * * * * * * * * * * * * * * * * * * * * * * * //

dimensions      [0 3 -1 0 0 0 0];

internalField   nonuniform List<scalar> 
3742
(
4.48567e-06
-4.44189e-05
4.66074e-06
-4.44019e-05
4.85352e-06
-4.4113e-05
5.03396e-06
-4.33148e-05
5.22041e-06
-4.2078e-05
3.2739e-06
-2.06281e-05
1.27546e-06
-2.54579e-06
-4.10823e-07
1.12814e-05
-1.7145e-06
2.12995e-05
-2.63807e-06
2.80872e-05
-3.22213e-06
3.22963e-05
-3.52747e-06
3.45737e-05
-3.61603e-06
3.54912e-05
-3.54207e-06
3.5505e-05
-3.3498e-06
3.49513e-05
-3.07416e-06
3.40646e-05
-2.74229e-06
3.30015e-05
-2.37488e-06
3.18612e-05
-1.9877e-06
3.07035e-05
-1.59271e-06
2.95611e-05
-1.19881e-06
2.84504e-05
-8.12453e-07
2.73773e-05
-4.37835e-07
2.63422e-05
-8.23418e-08
2.53432e-05
2.43767e-05
-7.41136e-07
-6.08339e-05
-7.30684e-07
-5.9362e-05
-4.98153e-07
-5.61861e-05
-1.88223e-07
-5.31642e-05
1.44946e-07
-5.04939e-05
4.8002e-07
-4.82392e-05
8.06906e-07
-4.64077e-05
1.12108e-06
-4.49789e-05
1.42087e-06
-4.3918e-05
1.70559e-06
-4.31825e-05
1.97473e-06
-4.27266e-05
2.22771e-06
-4.25042e-05
2.46387e-06
-4.2471e-05
2.68251e-06
-4.25855e-05
2.88309e-06
-4.28093e-05
3.0655e-06
-4.31075e-05
3.2303e-06
-4.34472e-05
3.37922e-06
-4.37966e-05
3.51488e-06
-4.41224e-05
3.64263e-06
-4.43874e-05
3.77149e-06
-4.45477e-05
3.9143e-06
-4.45447e-05
4.07914e-06
-4.42778e-05
4.23925e-06
-4.34749e-05
4.41733e-06
-4.22561e-05
2.56093e-06
-1.87717e-05
2.75268e-07
-2.60124e-07
-1.79435e-06
1.3351e-05
-3.39935e-06
2.29045e-05
-4.50437e-06
2.91923e-05
-5.16659e-06
3.29585e-05
-5.47521e-06
3.48824e-05
-5.51882e-06
3.55348e-05
-5.37177e-06
3.53579e-05
-5.0921e-06
3.46716e-05
-4.72367e-06
3.36962e-05
-4.29909e-06
3.25769e-05
-3.84233e-06
3.14045e-05
-3.3708e-06
3.02319e-05
-2.89711e-06
2.90874e-05
-2.43031e-06
2.79836e-05
-1.97685e-06
2.69238e-05
-1.5412e-06
2.59066e-05
-1.12687e-06
2.49289e-05
2.39852e-05
-7.70724e-07
-6.00632e-05
-1.37282e-06
-5.87599e-05
-1.27691e-06
-5.6282e-05
-9.54834e-07
-5.34863e-05
-5.72402e-07
-5.08763e-05
-1.8047e-07
-4.86311e-05
2.01839e-07
-4.679e-05
5.66444e-07
-4.53435e-05
9.09557e-07
-4.42611e-05
1.22965e-06
-4.35026e-05
1.52606e-06
-4.3023e-05
1.79832e-06
-4.27764e-05
2.04594e-06
-4.27186e-05
2.26833e-06
-4.28078e-05
2.4651e-06
-4.30061e-05
2.63622e-06
-4.32786e-05
2.78226e-06
-4.35932e-05
2.90484e-06
-4.39192e-05
3.00717e-06
-4.42248e-05
3.09479e-06
-4.44751e-05
3.181e-06
-4.4634e-05
3.29247e-06
-4.46561e-05
3.42332e-06
-4.44087e-05
3.49283e-06
-4.35444e-05
3.42581e-06
-4.21891e-05
1.03384e-06
-1.63798e-05
-1.71968e-06
2.49334e-06
-4.09797e-06
1.57293e-05
-5.85492e-06
2.46614e-05
-6.98108e-06
3.03184e-05
-7.58078e-06
3.35582e-05
-7.77961e-06
3.50812e-05
-7.69074e-06
3.5446e-05
-7.40406e-06
3.50712e-05
-6.98674e-06
3.42542e-05
-6.4877e-06
3.31972e-05
-5.94203e-06
3.20312e-05
-5.3745e-06
3.08369e-05
-4.80241e-06
2.96598e-05
-4.23768e-06
2.85227e-05
-3.68846e-06
2.74344e-05
-3.1603e-06
2.63957e-05
-2.65702e-06
2.54033e-05
-2.18117e-06
2.4453e-05
2.35397e-05
5.80038e-07
-6.06433e-05
-2.61953e-06
-5.55603e-05
-2.61755e-06
-5.6284e-05
-2.17135e-06
-5.39325e-05
-1.65331e-06
-5.13944e-05
-1.12725e-06
-4.91572e-05
-6.15013e-07
-4.73022e-05
-1.29658e-07
-4.58288e-05
3.22472e-07
-4.47133e-05
7.37533e-07
-4.39176e-05
1.11396e-06
-4.33994e-05
1.45127e-06
-4.31137e-05
1.74943e-06
-4.30168e-05
2.00821e-06
-4.30666e-05
2.22757e-06
-4.32255e-05
2.40749e-06
-4.34586e-05
2.54854e-06
-4.37343e-05
2.65199e-06
-4.40227e-05
2.72065e-06
-4.42934e-05
2.75929e-06
-4.45137e-05
2.77685e-06
-4.46515e-05
2.84305e-06
-4.47223e-05
2.98455e-06
-4.45502e-05
2.84361e-06
-4.34035e-05
1.34883e-06
-4.06943e-05
-2.18873e-06
-1.28422e-05
-5.33928e-06
5.64387e-06
-7.74785e-06
1.81379e-05
-9.33939e-06
2.6253e-05
-1.02195e-05
3.11986e-05
-1.05495e-05
3.38882e-05
-1.04847e-05
3.50164e-05
-1.01515e-05
3.51128e-05
-9.64429e-06
3.4564e-05
-9.03099e-06
3.36409e-05
-8.35923e-06
3.25254e-05
-7.66197e-06
3.1334e-05
-6.96153e-06
3.01365e-05
-6.27272e-06
2.8971e-05
-5.60513e-06
2.78551e-05
-4.96486e-06
2.67941e-05
-4.35569e-06
2.57865e-05
-3.77991e-06
2.48275e-05
-3.23859e-06
2.39118e-05
2.30339e-05
5.85848e-06
-6.65016e-05
-4.80961e-06
-4.48922e-05
-5.18504e-06
-5.59085e-05
-4.40705e-06
-5.47105e-05
-3.46707e-06
-5.23343e-05
-2.56551e-06
-5.00588e-05
-1.74564e-06
-4.81221e-05
-1.01672e-06
-4.65578e-05
-3.59874e-07
-4.53701e-05
2.29648e-07
-4.45072e-05
7.52503e-07
-4.39222e-05
1.21066e-06
-4.35719e-05
1.60645e-06
-4.34126e-05
1.94048e-06
-4.34006e-05
2.21288e-06
-4.34979e-05
2.42398e-06
-4.36697e-05
2.57441e-06
-4.38847e-05
2.66448e-06
-4.41127e-05
2.69439e-06
-4.43233e-05
2.66589e-06
-4.44852e-05
2.56339e-06
-4.4549e-05
2.41395e-06
-4.45729e-05
2.56377e-06
-4.47e-05
2.03849e-06
-4.28782e-05
-3.52927e-06
-3.51266e-05
-8.05073e-06
-8.32078e-06
-1.1156e-05
8.74915e-06
-1.3017e-05
1.99988e-05
-1.3966e-05
2.7202e-05
-1.42523e-05
3.14849e-05
-1.40686e-05
3.37045e-05
-1.35707e-05
3.45186e-05
-1.28755e-05
3.44175e-05
-1.2066e-05
3.37544e-05
-1.11995e-05
3.27745e-05
-1.03151e-05
3.16409e-05
-9.43816e-06
3.0457e-05
-8.58503e-06
2.92833e-05
-7.76549e-06
2.81514e-05
-6.9851e-06
2.70747e-05
-6.24671e-06
2.60557e-05
-5.55149e-06
2.50913e-05
-4.89961e-06
2.41756e-05
-4.29051e-06
2.33027e-05
2.24671e-05
-1.6326e-06
-6.48691e-05
-1.13974e-06
-4.53851e-05
-4.8596e-06
-5.21889e-05
-6.22604e-06
-5.33441e-05
-5.72224e-06
-5.28381e-05
-4.57346e-06
-5.12076e-05
-3.37344e-06
-4.93221e-05
-2.26292e-06
-4.76683e-05
-1.26107e-06
-4.6372e-05
-3.71835e-07
-4.53964e-05
3.94036e-07
-4.46881e-05
1.04974e-06
-4.42276e-05
1.60589e-06
-4.39687e-05
2.06354e-06
-4.38583e-05
2.41627e-06
-4.38506e-05
2.67269e-06
-4.39261e-05
2.83582e-06
-4.40479e-05
2.90914e-06
-4.41861e-05
2.89365e-06
-4.43079e-05
2.79775e-06
-4.43893e-05
2.57659e-06
-4.43278e-05
1.8693e-06
-4.38656e-05
-2.37903e-07
-4.25928e-05
-3.20792e-06
-3.99082e-05
-1.23744e-05
-2.59601e-05
-1.68662e-05
-3.82897e-06
-1.89257e-05
1.08087e-05
-1.96e-05
2.06731e-05
-1.94835e-05
2.70855e-05
-1.8884e-05
3.08854e-05
-1.79892e-05
3.28097e-05
-1.69246e-05
3.34539e-05
-1.5776e-05
3.3269e-05
-1.46016e-05
3.258e-05
-1.34393e-05
3.16121e-05
-1.2313e-05
3.05146e-05
-1.12366e-05
2.93806e-05
-1.02173e-05
2.8264e-05
-9.2579e-06
2.7192e-05
-8.35863e-06
2.61754e-05
-7.51811e-06
2.52152e-05
-6.73426e-06
2.43074e-05
-6.00474e-06
2.3446e-05
-5.32705e-06
2.2625e-05
2.18391e-05
-8.35391e-07
-6.40337e-05
3.9286e-06
-5.01488e-05
2.67753e-06
-5.09377e-05
8.06077e-07
-5.14726e-05
-8.76054e-07
-5.1156e-05
-1.88221e-06
-5.02015e-05
-2.2247e-06
-4.89795e-05
-2.10083e-06
-4.77922e-05
-1.65911e-06
-4.68137e-05
-1.19567e-06
-4.58598e-05
-7.54195e-07
-4.51296e-05
-4.13989e-07
-4.45678e-05
-2.36045e-07
-4.41467e-05
-1.95319e-07
-4.38991e-05
-2.36364e-07
-4.38095e-05
-3.92658e-07
-4.37698e-05
-6.94916e-07
-4.37456e-05
-1.17003e-06
-4.37109e-05
-1.84408e-06
-4.36338e-05
-2.80801e-06
-4.34254e-05
-4.24169e-06
-4.28942e-05
-6.48704e-06
-4.16202e-05
-1.03024e-05
-3.87775e-05
-1.72372e-05
-3.29733e-05
-2.5226e-05
-1.79713e-05
-2.73522e-05
-1.70282e-06
-2.74191e-05
1.08757e-05
-2.65816e-05
1.98355e-05
-2.5253e-05
2.57569e-05
-2.36827e-05
2.93152e-05
-2.20167e-05
3.11436e-05
-2.03408e-05
3.1778e-05
-1.87067e-05
3.16349e-05
-1.71449e-05
3.10181e-05
-1.56714e-05
3.01387e-05
-1.42932e-05
2.91364e-05
-1.30111e-05
2.80985e-05
-1.18221e-05
2.7075e-05
-1.07212e-05
2.60911e-05
-9.70245e-06
2.51567e-05
-8.76002e-06
2.42727e-05
-7.88826e-06
2.34356e-05
-7.08209e-06
2.26398e-05
-6.337e-06
2.18799e-05
2.11513e-05
1.19429e-07
-6.41531e-05
4.54647e-06
-5.45762e-05
4.89762e-06
-5.12887e-05
3.43774e-06
-5.00128e-05
1.53807e-06
-4.92563e-05
-1.48502e-07
-4.8515e-05
-1.43408e-06
-4.7694e-05
-2.361e-06
-4.68652e-05
-3.08719e-06
-4.60875e-05
-3.60805e-06
-4.5339e-05
-4.04606e-06
-4.46916e-05
-4.45326e-06
-4.41606e-05
-4.85515e-06
-4.37448e-05
-5.30086e-06
-4.34534e-05
-5.84873e-06
-4.32617e-05
-6.5138e-06
-4.31048e-05
-7.32744e-06
-4.2932e-05
-8.34546e-06
-4.26929e-05
-9.67661e-06
-4.23027e-05
-1.14915e-05
-4.16105e-05
-1.40753e-05
-4.03103e-05
-1.7814e-05
-3.78815e-05
-2.31503e-05
-3.34412e-05
-3.02641e-05
-2.58595e-05
-3.45282e-05
-1.37072e-05
-3.54291e-05
-8.01899e-07
-3.45041e-05
9.95062e-06
-3.26819e-05
1.80133e-05
-3.04585e-05
2.35336e-05
-2.81097e-05
2.69663e-05
-2.57861e-05
2.882e-05
-2.35667e-05
2.95586e-05
-2.1489e-05
2.95572e-05
-1.95668e-05
2.90959e-05
-1.7801e-05
2.83729e-05
-1.61849e-05
2.75203e-05
-1.4708e-05
2.66216e-05
-1.33579e-05
2.5725e-05
-1.21226e-05
2.48558e-05
-1.09905e-05
2.40246e-05
-9.95129e-06
2.32336e-05
-8.99612e-06
2.24804e-05
-8.11728e-06
2.1761e-05
-7.30828e-06
2.10709e-05
2.04068e-05
-1.05579e-07
-6.40474e-05
2.11256e-06
-5.67943e-05
2.8285e-06
-5.20048e-05
2.16342e-06
-4.93477e-05
7.69785e-07
-4.78626e-05
-8.48971e-07
-4.68963e-05
-2.42127e-06
-4.61216e-05
-3.85822e-06
-4.54283e-05
-5.16006e-06
-4.47857e-05
-6.31751e-06
-4.41814e-05
-7.37041e-06
-4.36387e-05
-8.36065e-06
-4.31704e-05
-9.32558e-06
-4.27799e-05
-1.03171e-05
-4.24619e-05
-1.13893e-05
-4.21895e-05
-1.25838e-05
-4.19103e-05
-1.39542e-05
-4.15615e-05
-1.55847e-05
-4.10624e-05
-1.76e-05
-4.02874e-05
-2.01746e-05
-3.90359e-05
-2.35027e-05
-3.69822e-05
-2.77272e-05
-3.3657e-05
-3.27119e-05
-2.84566e-05
-3.77349e-05
-2.08363e-05
-4.05772e-05
-1.08649e-05
-4.09267e-05
-4.52313e-07
-3.96078e-05
8.63171e-06
-3.73348e-05
1.57403e-05
-3.46199e-05
2.08187e-05
-3.17808e-05
2.41272e-05
-2.90018e-05
2.6041e-05
-2.63792e-05
2.69361e-05
-2.39556e-05
2.71336e-05
-2.17425e-05
2.68828e-05
-1.97343e-05
2.63647e-05
-1.79169e-05
2.57029e-05
-1.62723e-05
2.4977e-05
-1.47821e-05
2.42347e-05
-1.34285e-05
2.35022e-05
-1.21958e-05
2.27919e-05
-1.10702e-05
2.21079e-05
-1.004e-05
2.14502e-05
-9.09552e-06
2.08165e-05
-8.22849e-06
2.02039e-05
1.96105e-05
-1.34174e-06
-6.27057e-05
-9.40409e-07
-5.71957e-05
-6.43323e-07
-5.23018e-05
-9.79425e-07
-4.90117e-05
-1.8987e-06
-4.69433e-05
-3.19257e-06
-4.56024e-05
-4.66324e-06
-4.4651e-05
-6.18563e-06
-4.39059e-05
-7.69431e-06
-4.32769e-05
-9.15498e-06
-4.27208e-05
-1.0567e-05
-4.22266e-05
-1.19485e-05
-4.17889e-05
-1.33295e-05
-4.13989e-05
-1.47524e-05
-4.1039e-05
-1.62668e-05
-4.06752e-05
-1.79233e-05
-4.02537e-05
-1.97833e-05
-3.97015e-05
-2.19265e-05
-3.89193e-05
-2.44508e-05
-3.7763e-05
-2.74583e-05
-3.60284e-05
-3.1002e-05
-3.34385e-05
-3.50116e-05
-2.96474e-05
-3.91429e-05
-2.43252e-05
-4.26524e-05
-1.73268e-05
-4.45027e-05
-9.0146e-06
-4.44517e-05
-5.03301e-07
-4.29408e-05
7.12076e-06
-4.0502e-05
1.33015e-05
-3.75856e-05
1.79023e-05
-3.45132e-05
2.10548e-05
-3.14888e-05
2.30166e-05
-2.86271e-05
2.40744e-05
-2.59827e-05
2.44892e-05
-2.35727e-05
2.44728e-05
-2.13928e-05
2.41848e-05
-1.94273e-05
2.37374e-05
-1.76555e-05
2.32052e-05
-1.60559e-05
2.26351e-05
-1.4608e-05
2.20543e-05
-1.32934e-05
2.14772e-05
-1.20962e-05
2.09108e-05
-1.1003e-05
2.03571e-05
-1.00026e-05
1.98161e-05
-9.08566e-06
1.92869e-05
1.87693e-05
-2.32444e-06
-6.03812e-05
-3.1425e-06
-5.63778e-05
-3.51274e-06
-5.19316e-05
-3.98742e-06
-4.85371e-05
-4.78087e-06
-4.61498e-05
-5.88878e-06
-4.44946e-05
-7.22617e-06
-4.33136e-05
-8.70427e-06
-4.24278e-05
-1.02565e-05
-4.17247e-05
-1.18399e-05
-4.11374e-05
-1.34388e-05
-4.06278e-05
-1.50575e-05
-4.01702e-05
-1.67161e-05
-3.97403e-05
-1.8447e-05
-3.93082e-05
-2.02903e-05
-3.88318e-05
-2.22911e-05
-3.82529e-05
-2.44994e-05
-3.74932e-05
-2.697e-05
-3.64487e-05
-2.97525e-05
-3.49805e-05
-3.28704e-05
-3.29104e-05
-3.6279e-05
-3.00299e-05
-3.98e-05
-2.61264e-05
-4.30723e-05
-2.10529e-05
-4.55485e-05
-1.48506e-05
-4.66787e-05
-7.88447e-06
-4.63216e-05
-8.60421e-07
-4.47304e-05
5.52957e-06
-4.22895e-05
1.08607e-05
-3.93707e-05
1.49834e-05
-3.62672e-05
1.79512e-05
-3.31816e-05
1.99309e-05
-3.02377e-05
2.11306e-05
-2.75006e-05
2.1752e-05
-2.49956e-05
2.19678e-05
-2.27235e-05
2.19128e-05
-2.06716e-05
2.16855e-05
-1.88205e-05
2.13541e-05
-1.71487e-05
2.09633e-05
-1.56354e-05
2.0541e-05
-1.42619e-05
2.01037e-05
-1.30115e-05
1.96603e-05
-1.18701e-05
1.92157e-05
-1.08258e-05
1.87718e-05
-9.86891e-06
1.833e-05
1.78915e-05
-2.68651e-06
-5.76948e-05
-4.28742e-06
-5.47768e-05
-5.28569e-06
-5.09333e-05
-6.11821e-06
-4.77046e-05
-7.04166e-06
-4.52264e-05
-8.152e-06
-4.33841e-05
-9.44966e-06
-4.2016e-05
-1.08984e-05
-4.0979e-05
-1.24572e-05
-4.0166e-05
-1.40937e-05
-3.95008e-05
-1.57917e-05
-3.89298e-05
-1.75504e-05
-3.84115e-05
-1.93824e-05
-3.79083e-05
-2.13104e-05
-3.73801e-05
-2.33634e-05
-3.67788e-05
-2.55731e-05
-3.60432e-05
-2.79702e-05
-3.50962e-05
-3.05785e-05
-3.38404e-05
-3.34028e-05
-3.21562e-05
-3.64084e-05
-2.99049e-05
-3.94939e-05
-2.69444e-05
-4.24606e-05
-2.31597e-05
-4.50001e-05
-1.85132e-05
-4.67381e-05
-1.31126e-05
-4.73614e-05
-7.26121e-06
-4.67968e-05
-1.42505e-06
-4.5208e-05
3.94082e-06
-4.28741e-05
8.52679e-06
-4.00887e-05
1.2198e-05
-3.71025e-05
1.4965e-05
-3.41016e-05
1.693e-05
-3.12082e-05
1.82373e-05
-2.8493e-05
1.90368e-05
-2.59884e-05
1.94632e-05
-2.37018e-05
1.96262e-05
-2.16258e-05
1.96094e-05
-1.97448e-05
1.94731e-05
-1.80402e-05
1.92587e-05
-1.64931e-05
1.89939e-05
-1.50857e-05
1.86963e-05
-1.38023e-05
1.83769e-05
-1.26292e-05
1.80425e-05
-1.15547e-05
1.76974e-05
-1.0569e-05
1.73443e-05
1.69865e-05
-2.69654e-06
-5.49982e-05
-4.70806e-06
-5.27654e-05
-6.17376e-06
-4.94677e-05
-7.3739e-06
-4.65045e-05
-8.52628e-06
-4.4074e-05
-9.75006e-06
-4.21604e-05
-1.10909e-05
-4.06752e-05
-1.25528e-05
-3.9517e-05
-1.41229e-05
-3.85959e-05
-1.5786e-05
-3.78377e-05
-1.75328e-05
-3.7183e-05
-1.93628e-05
-3.65815e-05
-2.1284e-05
-3.59871e-05
-2.33108e-05
-3.53534e-05
-2.54607e-05
-3.46288e-05
-2.77505e-05
-3.37535e-05
-3.01906e-05
-3.26561e-05
-3.27782e-05
-3.12528e-05
-3.54858e-05
-2.94485e-05
-3.82466e-05
-2.71441e-05
-4.09395e-05
-2.42514e-05
-4.33804e-05
-2.07188e-05
-4.53302e-05
-1.65634e-05
-4.6538e-05
-1.19048e-05
-4.6821e-05
-6.97821e-06
-4.61463e-05
-2.09968e-06
-4.46304e-05
2.42492e-06
-4.24772e-05
6.37354e-06
-3.99137e-05
9.63445e-06
-3.71449e-05
1.21963e-05
-3.43327e-05
1.41178e-05
-3.15903e-05
1.54949e-05
-2.89883e-05
1.64348e-05
-2.65637e-05
1.70386e-05
-2.43302e-05
1.73927e-05
-2.22861e-05
1.75654e-05
-2.04214e-05
1.76084e-05
-1.87218e-05
1.7559e-05
-1.71715e-05
1.74436e-05
-1.57555e-05
1.72803e-05
-1.44598e-05
1.70812e-05
-1.32721e-05
1.68548e-05
-1.21815e-05
1.66068e-05
-1.1179e-05
1.63418e-05
1.60641e-05
-2.60567e-06
-5.23926e-05
-4.77351e-06
-5.05976e-05
-6.51915e-06
-4.7722e-05
-7.99906e-06
-4.50246e-05
-9.36776e-06
-4.27053e-05
-1.07313e-05
-4.07969e-05
-1.21493e-05
-3.92571e-05
-1.36479e-05
-3.80185e-05
-1.52341e-05
-3.70096e-05
-1.69077e-05
-3.61642e-05
-1.86675e-05
-3.54233e-05
-2.05152e-05
-3.47338e-05
-2.24562e-05
-3.40461e-05
-2.44982e-05
-3.33113e-05
-2.66489e-05
-3.24782e-05
-2.89116e-05
-3.14907e-05
-3.12807e-05
-3.0287e-05
-3.37345e-05
-2.8799e-05
-3.62271e-05
-2.6956e-05
-3.86797e-05
-2.46915e-05
-4.09747e-05
-2.19563e-05
-4.29573e-05
-1.87362e-05
-4.44499e-05
-1.50708e-05
-4.52862e-05
-1.10685e-05
-4.5358e-05
-6.90629e-06
-4.46556e-05
-2.80209e-06
-4.32656e-05
1.03491e-06
-4.13383e-05
4.44622e-06
-3.90467e-05
7.34282e-06
-3.6554e-05
9.70362e-06
-3.39951e-05
1.15589e-05
-3.14702e-05
1.29699e-05
-2.90456e-05
1.40102e-05
-2.67603e-05
1.47534e-05
-2.46325e-05
1.52648e-05
-2.26662e-05
1.55991e-05
-2.08569e-05
1.57991e-05
-1.91952e-05
1.58973e-05
-1.76697e-05
1.59181e-05
-1.62685e-05
1.5879e-05
-1.49801e-05
1.57929e-05
-1.37943e-05
1.56689e-05
-1.27016e-05
1.55142e-05
-1.16941e-05
1.53343e-05
1.51347e-05
-2.47578e-06
-4.99169e-05
-4.67772e-06
-4.83955e-05
-6.56437e-06
-4.58354e-05
-8.22164e-06
-4.33674e-05
-9.74943e-06
-4.11775e-05
-1.12307e-05
-3.93156e-05
-1.27222e-05
-3.77657e-05
-1.42574e-05
-3.64833e-05
-1.58543e-05
-3.54126e-05
-1.75221e-05
-3.44964e-05
-1.92656e-05
-3.36797e-05
-2.10889e-05
-3.29105e-05
-2.29954e-05
-3.21396e-05
-2.49881e-05
-3.13187e-05
-2.70667e-05
-3.03996e-05
-2.92248e-05
-2.93326e-05
-3.14458e-05
-2.8066e-05
-3.36976e-05
-2.65473e-05
-3.59272e-05
-2.47263e-05
-3.80572e-05
-2.25615e-05
-3.99844e-05
-2.00291e-05
-4.1586e-05
-1.71347e-05
-4.27336e-05
-1.39232e-05
-4.33171e-05
-1.0485e-05
-4.32725e-05
-6.95087e-06
-4.26015e-05
-3.47308e-06
-4.137e-05
-1.96682e-07
-3.96888e-05
2.76501e-06
-3.76884e-05
5.3425e-06
-3.54962e-05
7.51146e-06
-3.32217e-05
9.28441e-06
-3.09499e-05
1.0698e-05
-2.87408e-05
1.18012e-05
-2.66328e-05
1.26453e-05
-2.46469e-05
1.3279e-05
-2.27919e-05
1.3744e-05
-2.10681e-05
1.40753e-05
-1.94711e-05
1.43003e-05
-1.79936e-05
1.44407e-05
-1.66274e-05
1.45128e-05
-1.53639e-05
1.45294e-05
-1.41951e-05
1.45001e-05
-1.31135e-05
1.44325e-05
-1.21123e-05
1.43331e-05
1.4208e-05
-2.3461e-06
-4.75708e-05
-4.51686e-06
-4.62249e-05
-6.45407e-06
-4.38982e-05
-8.20324e-06
-4.16182e-05
-9.82711e-06
-3.95536e-05
-1.13862e-05
-3.77564e-05
-1.29277e-05
-3.62243e-05
-1.44846e-05
-3.49264e-05
-1.60785e-05
-3.38187e-05
-1.7723e-05
-3.28519e-05
-1.94263e-05
-3.19764e-05
-2.11935e-05
-3.11434e-05
-2.30268e-05
-3.03063e-05
-2.49253e-05
-2.94201e-05
-2.68837e-05
-2.84412e-05
-2.88893e-05
-2.73269e-05
-3.09196e-05
-2.60357e-05
-3.29388e-05
-2.45282e-05
-3.48947e-05
-2.27704e-05
-3.67181e-05
-2.07381e-05
-3.83241e-05
-1.84231e-05
-3.96189e-05
-1.58399e-05
-4.0511e-05
-1.30311e-05
-4.09276e-05
-1.00684e-05
-4.08307e-05
-7.04782e-06
-4.0227e-05
-4.07679e-06
-3.91665e-05
-1.25716e-06
-3.7731e-05
1.32947e-06
-3.60179e-05
3.62943e-06
-3.4125e-05
5.61858e-06
-3.21393e-05
7.29869e-06
-3.01313e-05
8.68998e-06
-2.81534e-05
9.82333e-06
-2.62419e-05
1.07338e-05
-2.44189e-05
1.1456e-05
-2.26963e-05
1.20215e-05
-2.10788e-05
1.24578e-05
-1.9566e-05
1.27875e-05
-1.81546e-05
1.30293e-05
-1.68398e-05
1.3198e-05
-1.56159e-05
1.33055e-05
-1.44772e-05
1.33614e-05
-1.34182e-05
1.33735e-05
-1.24335e-05
1.33485e-05
1.3293e-05
-2.22755e-06
-4.53433e-05
-4.33531e-06
-4.41171e-05
-6.26798e-06
-4.19655e-05
-8.04752e-06
-3.98387e-05
-9.71401e-06
-3.78872e-05
-1.13098e-05
-3.61607e-05
-1.28719e-05
-3.46622e-05
-1.44292e-05
-3.33691e-05
-1.60028e-05
-3.22451e-05
-1.76071e-05
-3.12476e-05
-1.92514e-05
-3.0332e-05
-2.09407e-05
-2.94541e-05
-2.26759e-05
-2.85711e-05
-2.44538e-05
-2.76422e-05
-2.62658e-05
-2.66293e-05
-2.80963e-05
-2.54964e-05
-2.99209e-05
-2.4211e-05
-3.17045e-05
-2.27445e-05
-3.34002e-05
-2.10747e-05
-3.49496e-05
-1.91886e-05
-3.62858e-05
-1.70869e-05
-3.73386e-05
-1.47871e-05
-3.80438e-05
-1.23259e-05
-3.8353e-05
-9.75921e-06
-3.82436e-05
-7.15725e-06
-3.77238e-05
-4.59661e-06
-3.68313e-05
-2.1497e-06
-3.56259e-05
1.24126e-07
-3.41799e-05
2.18347e-06
-3.25676e-05
4.0062e-06
-3.08569e-05
5.58799e-06
-2.91053e-05
6.93833e-06
-2.73576e-05
8.07561e-06
-2.56465e-05
9.02275e-06
-2.39945e-05
9.80388e-06
-2.24152e-05
1.04422e-05
-2.09161e-05
1.09587e-05
-1.95003e-05
1.13717e-05
-1.81677e-05
1.16967e-05
-1.69165e-05
1.19468e-05
-1.57437e-05
1.21328e-05
-1.46458e-05
1.22635e-05
-1.36192e-05
1.23468e-05
-1.266e-05
1.23893e-05
1.23977e-05
-2.11837e-06
-4.3225e-05
-4.15077e-06
-4.20847e-05
-6.04672e-06
-4.00696e-05
-7.81604e-06
-3.80694e-05
-9.48466e-06
-3.62186e-05
-1.10823e-05
-3.4563e-05
-1.26372e-05
-3.31073e-05
-1.41735e-05
-3.18328e-05
-1.57099e-05
-3.07088e-05
-1.72596e-05
-2.96979e-05
-1.88313e-05
-2.87603e-05
-2.04293e-05
-2.78562e-05
-2.20533e-05
-2.6947e-05
-2.36988e-05
-2.59968e-05
-2.53555e-05
-2.49726e-05
-2.70072e-05
-2.38448e-05
-2.86301e-05
-2.25881e-05
-3.01926e-05
-2.1182e-05
-3.16546e-05
-1.96126e-05
-3.29691e-05
-1.78742e-05
-3.40845e-05
-1.59716e-05
-3.49494e-05
-1.39222e-05
-3.55187e-05
-1.17566e-05
-3.57603e-05
-9.51764e-06
-3.56606e-05
-7.25693e-06
-3.52276e-05
-5.02962e-06
-3.44894e-05
-2.88793e-06
-3.34896e-05
-8.75614e-07
-3.22815e-05
9.75333e-07
-3.09208e-05
2.64552e-06
-2.94604e-05
4.12758e-06
-2.79464e-05
5.42428e-06
-2.64164e-05
6.54559e-06
-2.48994e-05
7.50581e-06
-2.34168e-05
8.32122e-06
-2.1983e-05
9.00839e-06
-2.06074e-05
9.58307e-06
-1.92954e-05
1.00596e-05
-1.80495e-05
1.04508e-05
-1.68703e-05
1.07676e-05
-1.57571e-05
1.10195e-05
-1.47082e-05
1.12147e-05
-1.37217e-05
1.13603e-05
-1.27953e-05
1.14629e-05
1.1529e-05
-2.018e-06
-4.1207e-05
-3.97102e-06
-4.01318e-05
-5.81109e-06
-3.82295e-05
-7.54352e-06
-3.6337e-05
-9.18528e-06
-3.45768e-05
-1.07579e-05
-3.29904e-05
-1.22832e-05
-3.1582e-05
-1.37805e-05
-3.03355e-05
-1.52655e-05
-2.92238e-05
-1.67495e-05
-2.82138e-05
-1.82401e-05
-2.72698e-05
-1.97402e-05
-2.63561e-05
-2.12487e-05
-2.54385e-05
-2.27603e-05
-2.44853e-05
-2.42644e-05
-2.34685e-05
-2.57454e-05
-2.23637e-05
-2.7182e-05
-2.11515e-05
-2.85467e-05
-1.98173e-05
-2.98069e-05
-1.83525e-05
-3.09253e-05
-1.67558e-05
-3.18632e-05
-1.50337e-05
-3.25832e-05
-1.32022e-05
-3.30538e-05
-1.12861e-05
-3.32535e-05
-9.31803e-06
-3.31741e-05
-7.33633e-06
-3.28225e-05
-5.38121e-06
-3.22195e-05
-3.49089e-06
-3.1397e-05
-1.69807e-06
-3.03941e-05
-2.76736e-08
-2.92523e-05
1.50376e-06
-2.80125e-05
2.8878e-06
-2.67115e-05
4.12322e-06
-2.53803e-05
5.21446e-06
-2.40444e-05
6.16989e-06
-2.27232e-05
7.00003e-06
-2.14313e-05
7.71642e-06
-2.01788e-05
8.33057e-06
-1.89727e-05
8.85351e-06
-1.78172e-05
9.29537e-06
-1.67149e-05
9.66526e-06
-1.56667e-05
9.97129e-06
-1.46727e-05
1.02207e-05
-1.37323e-05
1.04199e-05
-1.28444e-05
1.0575e-05
1.06923e-05
-1.92532e-06
-3.92817e-05
-3.79679e-06
-3.82603e-05
-5.56975e-06
-3.64565e-05
-7.24777e-06
-3.4659e-05
-8.84286e-06
-3.29817e-05
-1.03714e-05
-3.14619e-05
-1.18504e-05
-3.0103e-05
-1.32952e-05
-2.88907e-05
-1.47185e-05
-2.78005e-05
-1.61296e-05
-2.68026e-05
-1.75345e-05
-2.5865e-05
-1.8935e-05
-2.49556e-05
-2.03295e-05
-2.4044e-05
-2.17122e-05
-2.31026e-05
-2.30732e-05
-2.21075e-05
-2.43982e-05
-2.10387e-05
-2.56688e-05
-1.98809e-05
-2.68622e-05
-1.86239e-05
-2.79521e-05
-1.72626e-05
-2.891e-05
-1.57979e-05
-2.97067e-05
-1.4237e-05
-3.03154e-05
-1.25936e-05
-3.07139e-05
-1.08876e-05
-3.08877e-05
-9.14424e-06
-3.0832e-05
-7.39205e-06
-3.05523e-05
-5.66085e-06
-3.00641e-05
-3.97906e-06
-2.93908e-05
-2.37147e-06
-2.85608e-05
-8.57688e-07
-2.76054e-05
5.48369e-07
-2.65559e-05
1.8383e-06
-2.54414e-05
3.00876e-06
-2.42877e-05
4.06073e-06
-2.31163e-05
4.99851e-06
-2.19449e-05
5.82858e-06
-2.07871e-05
6.55866e-06
-1.96535e-05
7.19698e-06
-1.85518e-05
7.75176e-06
-1.74874e-05
8.23092e-06
-1.6464e-05
8.6418e-06
-1.54838e-05
8.99117e-06
-1.45484e-05
9.2852e-06
-1.36581e-05
9.52965e-06
-1.28131e-05
9.73005e-06
9.89218e-06
-1.83615e-06
-3.74456e-05
-3.62416e-06
-3.64723e-05
-5.32355e-06
-3.47571e-05
-6.93634e-06
-3.30462e-05
-8.47221e-06
-3.14458e-05
-9.94416e-06
-2.999e-05
-1.13655e-05
-2.86816e-05
-1.27487e-05
-2.75075e-05
-1.41037e-05
-2.64455e-05
-1.5438e-05
-2.54683e-05
-1.6756e-05
-2.45471e-05
-1.80587e-05
-2.36529e-05
-1.93441e-05
-2.27586e-05
-2.06066e-05
-2.18402e-05
-2.18371e-05
-2.0877e-05
-2.30232e-05
-1.98525e-05
-2.41494e-05
-1.87548e-05
-2.51971e-05
-1.75762e-05
-2.61456e-05
-1.63141e-05
-2.69731e-05
-1.49704e-05
-2.7658e-05
-1.35521e-05
-2.81809e-05
-1.20708e-05
-2.85262e-05
-1.05424e-05
-2.8684e-05
-8.98642e-06
-2.86515e-05
-7.42456e-06
-2.84331e-05
-5.87921e-06
-2.80403e-05
-4.37185e-06
-2.74903e-05
-2.92154e-06
-2.68041e-05
-1.54389e-06
-2.60051e-05
-2.50572e-07
-2.51174e-05
9.50608e-07
-2.4164e-05
2.05539e-06
-2.3166e-05
3.06269e-06
-2.21416e-05
3.97414e-06
-2.11064e-05
4.79338e-06
-2.00731e-05
5.52533e-06
-1.90518e-05
6.17568e-06
-1.80505e-05
6.75044e-06
-1.70753e-05
7.25561e-06
-1.61305e-05
7.69701e-06
-1.52195e-05
8.08014e-06
-1.43444e-05
8.41018e-06
-1.35069e-05
8.6921e-06
-1.27076e-05
8.93082e-06
9.13162e-06
-1.74727e-06
-3.56983e-05
-3.45046e-06
-3.47691e-05
-5.07227e-06
-3.31354e-05
-6.61371e-06
-3.15047e-05
-8.08299e-06
-2.99765e-05
-9.49067e-06
-2.85823e-05
-1.08475e-05
-2.73247e-05
-1.21634e-05
-2.61916e-05
-1.34464e-05
-2.51625e-05
-1.47024e-05
-2.42124e-05
-1.59345e-05
-2.3315e-05
-1.71433e-05
-2.24441e-05
-1.83264e-05
-2.15755e-05
-1.94787e-05
-2.06879e-05
-2.05922e-05
-1.97634e-05
-2.16565e-05
-1.87883e-05
-2.26585e-05
-1.77527e-05
-2.35835e-05
-1.66512e-05
-2.44153e-05
-1.54823e-05
-2.51372e-05
-1.42485e-05
-2.57334e-05
-1.2956e-05
-2.61897e-05
-1.16146e-05
-2.6495e-05
-1.02371e-05
-2.66427e-05
-8.83868e-06
-2.66312e-05
-7.43613e-06
-2.64639e-05
-6.04652e-06
-2.61494e-05
-4.68635e-06
-2.57004e-05
-3.3705e-06
-2.51328e-05
-2.11152e-06
-2.44642e-05
-9.19213e-07
-2.37129e-05
1.99388e-07
-2.28973e-05
1.23982e-06
-2.20346e-05
2.19991e-06
-2.114e-05
3.07959e-06
-2.02271e-05
3.88052e-06
-1.93075e-05
4.60564e-06
-1.83905e-05
5.25871e-06
-1.74841e-05
5.84399e-06
-1.65945e-05
6.36594e-06
-1.57265e-05
6.82902e-06
-1.4884e-05
7.23762e-06
-1.40698e-05
7.59599e-06
-1.32861e-05
7.90836e-06
-1.25343e-05
8.17903e-06
8.41272e-06
-1.66018e-06
-3.40381e-05
-3.27764e-06
-3.31517e-05
-4.81901e-06
-3.1594e-05
-6.28547e-06
-3.00383e-05
-7.68377e-06
-2.85782e-05
-9.02253e-06
-2.72435e-05
-1.03106e-05
-2.60366e-05
-1.15561e-05
-2.49462e-05
-1.27654e-05
-2.39532e-05
-1.39431e-05
-2.30346e-05
-1.50918e-05
-2.21663e-05
-1.62115e-05
-2.13245e-05
-1.72997e-05
-2.04873e-05
-1.83521e-05
-1.96356e-05
-1.93616e-05
-1.87539e-05
-2.03195e-05
-1.78303e-05
-2.12153e-05
-1.6857e-05
-2.20371e-05
-1.58294e-05
-2.27723e-05
-1.4747e-05
-2.34085e-05
-1.36124e-05
-2.39337e-05
-1.24309e-05
-2.43375e-05
-1.12107e-05
-2.46123e-05
-9.96229e-06
-2.47534e-05
-8.69759e-06
-2.47598e-05
-7.42966e-06
-2.46346e-05
-6.17183e-06
-2.4384e-05
-4.93696e-06
-2.40176e-05
-3.73684e-06
-2.35475e-05
-2.58166e-06
-2.2987e-05
-1.4797e-06
-2.23504e-05
-4.37172e-07
-2.16522e-05
5.4159e-07
-2.09062e-05
1.45395e-06
-2.01254e-05
2.29883e-06
-1.93215e-05
3.07658e-06
-1.85046e-05
3.78872e-06
-1.76835e-05
4.43757e-06
-1.68656e-05
5.02604e-06
-1.60569e-05
5.55732e-06
-1.52627e-05
6.03479e-06
-1.44869e-05
6.46184e-06
-1.37328e-05
6.8419e-06
-1.3003e-05
7.17851e-06
-1.22993e-05
7.47535e-06
7.73662e-06
-1.57622e-06
-3.2462e-05
-3.1077e-06
-3.16202e-05
-4.56713e-06
-3.01345e-05
-5.95639e-06
-2.8649e-05
-7.28103e-06
-2.72536e-05
-8.54815e-06
-2.59763e-05
-9.7651e-06
-2.48196e-05
-1.09386e-05
-2.37727e-05
-1.20739e-05
-2.28178e-05
-1.31748e-05
-2.19337e-05
-1.42432e-05
-2.10979e-05
-1.52789e-05
-2.02888e-05
-1.62797e-05
-1.94865e-05
-1.72416e-05
-1.86737e-05
-1.81588e-05
-1.78367e-05
-1.9024e-05
-1.69652e-05
-1.98286e-05
-1.60523e-05
-2.05633e-05
-1.50947e-05
-2.12183e-05
-1.4092e-05
-2.17841e-05
-1.30466e-05
-2.22517e-05
-1.19633e-05
-2.26137e-05
-1.08487e-05
-2.28645e-05
-9.71152e-06
-2.30009e-05
-8.5612e-06
-2.30224e-05
-7.40813e-06
-2.29314e-05
-6.26283e-06
-2.27329e-05
-5.13552e-06
-2.2434e-05
-4.03567e-06
-2.2044e-05
-2.97164e-06
-2.15733e-05
-1.95041e-06
-2.1033e-05
-9.77481e-07
-2.04345e-05
-5.68894e-08
-1.97891e-05
8.0862e-07
-1.91077e-05
1.61745e-06
-1.84003e-05
2.3691e-06
-1.76757e-05
3.06409e-06
-1.69418e-05
3.7037e-06
-1.62056e-05
4.2898e-06
-1.54728e-05
4.82459e-06
-1.47486e-05
5.31052e-06
-1.40369e-05
5.75018e-06
-1.33413e-05
6.14629e-06
-1.26645e-05
6.50173e-06
-1.20088e-05
6.81965e-06
7.10371e-06
-1.49175e-06
-3.09702e-05
-2.93789e-06
-3.0174e-05
-4.31589e-06
-2.87565e-05
-5.62747e-06
-2.73374e-05
-6.8774e-06
-2.60037e-05
-8.07177e-06
-2.4782e-05
-9.21684e-06
-2.36745e-05
-1.03183e-05
-2.26713e-05
-1.13807e-05
-2.17555e-05
-1.2407e-05
-2.09073e-05
-1.33989e-05
-2.01061e-05
-1.4356e-05
-1.93317e-05
-1.52764e-05
-1.85661e-05
-1.61565e-05
-1.77936e-05
-1.69916e-05
-1.70017e-05
-1.77756e-05
-1.61812e-05
-1.85015e-05
-1.53264e-05
-1.91621e-05
-1.44342e-05
-1.97498e-05
-1.35045e-05
-2.0257e-05
-1.25394e-05
-2.06774e-05
-1.1543e-05
-2.10052e-05
-1.05209e-05
-2.12365e-05
-9.48019e-06
-2.13692e-05
-8.42854e-06
-2.1403e-05
-7.37431e-06
-2.13399e-05
-6.32595e-06
-2.11837e-05
-5.29169e-06
-2.09401e-05
-4.27925e-06
-2.06162e-05
-3.29553e-06
-2.02201e-05
-2.34648e-06
-1.97607e-05
-1.43691e-06
-1.9247e-05
-5.70551e-07
-1.86883e-05
2.49913e-07
-1.80935e-05
1.02268e-06
-1.74712e-05
1.74675e-06
-1.68291e-05
2.42197e-06
-1.61743e-05
3.04886e-06
-1.55129e-05
3.62849e-06
-1.48506e-05
4.1623e-06
-1.41921e-05
4.652e-06
-1.35414e-05
5.09951e-06
-1.29021e-05
5.50693e-06
-1.22769e-05
5.87659e-06
-1.16684e-05
6.21114e-06
6.51374e-06
-1.40189e-06
-2.95683e-05
-2.76386e-06
-2.88121e-05
-4.06223e-06
-2.74582e-05
-5.29727e-06
-2.61023e-05
-6.47318e-06
-2.48277e-05
-7.59538e-06
-2.36597e-05
-8.66943e-06
-2.26005e-05
-9.70026e-06
-2.16404e-05
-1.06918e-05
-2.07639e-05
-1.16467e-05
-1.99524e-05
-1.25662e-05
-1.91866e-05
-1.345e-05
-1.8448e-05
-1.42964e-05
-1.77197e-05
-1.51025e-05
-1.69875e-05
-1.58643e-05
-1.624e-05
-1.65766e-05
-1.54688e-05
-1.72342e-05
-1.46689e-05
-1.7831e-05
-1.38374e-05
-1.83611e-05
-1.29744e-05
-1.8819e-05
-1.20815e-05
-1.91996e-05
-1.11624e-05
-1.94989e-05
-1.02217e-05
-1.97139e-05
-9.2652e-06
-1.98431e-05
-8.2993e-06
-1.98867e-05
-7.33078e-06
-1.98461e-05
-6.36653e-06
-1.97244e-05
-5.4133e-06
-1.95262e-05
-4.47745e-06
-1.9257e-05
-3.56475e-06
-1.89232e-05
-2.68025e-06
-1.85319e-05
-1.82819e-06
-1.80905e-05
-1.01198e-06
-1.76064e-05
-2.34175e-07
-1.70871e-05
5.03375e-07
-1.65398e-05
1.19944e-06
-1.59713e-05
1.85342e-06
-1.53877e-05
2.46529e-06
-1.47947e-05
3.03553e-06
-1.41974e-05
3.56499e-06
-1.36002e-05
4.0548e-06
-1.3007e-05
4.50633e-06
-1.24212e-05
4.92117e-06
-1.18458e-05
5.30117e-06
-1.12831e-05
5.64854e-06
5.96597e-06
-1.3071e-06
-2.82612e-05
-2.58568e-06
-2.75335e-05
-3.80596e-06
-2.62379e-05
-4.96625e-06
-2.49421e-05
-6.0699e-06
-2.37241e-05
-7.12174e-06
-2.26079e-05
-8.12673e-06
-2.15956e-05
-9.08923e-06
-2.06779e-05
-1.00128e-05
-1.98404e-05
-1.08996e-05
-1.90655e-05
-1.17509e-05
-1.83353e-05
-1.25663e-05
-1.76325e-05
-1.33446e-05
-1.69414e-05
-1.40832e-05
-1.62489e-05
-1.47788e-05
-1.55444e-05
-1.54274e-05
-1.48203e-05
-1.60246e-05
-1.40717e-05
-1.65656e-05
-1.32964e-05
-1.7046e-05
-1.24941e-05
-1.74613e-05
-1.16662e-05
-1.78078e-05
-1.08159e-05
-1.80824e-05
-9.94707e-06
-1.82831e-05