/*--------------------------------*- C++ -*----------------------------------*\
  =========                 |
  \\      /  F ield         | OpenFOAM: The Open Source CFD Toolbox
   \\    /   O peration     | Website:  https://openfoam.org
    \\  /    A nd           | Version:  9
     \\/     M anipulation  |
\*---------------------------------------------------------------------------*/
FoamFile
{
    format      ascii;
    class       volScalarField;
    location    "0.4";
    object      alpha.water;
}
// * * * * * * * * * * * * * * * * * * * * * * * * * * * * * * * * * * * * * //

dimensions      [0 0 0 0 0 0 0];

internalField   nonuniform List<scalar> 
7700
(
1
1
1
1
1
1
1
1
1
1
1
1
1
1
1
1
1
1
1
1
1
1
1
1
1
1
1
1
1
1
1
1
1
1
1
1
1
1
1
1
1
0.958609
0.944691
0.984393
0.998389
0.998389
1
1
1
1
1
1
1
1
1
1
1
1
1
1
1
1
1
1
1
1
1
1
1
1
1
1
1
1
1
1
1
1
1
1
1
1
1
1
1
1
1
0.994139
0.944815
0.944567
0.99789
0.998389
1
1
1
1
1
1
1
1
1
1
1
1
1
1
1
1
1
1
1
1
1
1
1
1
1
1
1
1
1
1
1
1
1
1
1
1
1
1
1
1
1
1
0.968578
0.944567
0.967978
0.998074
1
1
1
1
1
1
1
1
1
1
1
1
1
1
1
1
1
1
1
1
1
1
1
1
1
1
1
1
1
1
1
1
1
1
1
1
1
1
1
1
1
1
0.999979
0.966768
0.980117
0.998319
1
1
1
1
1
1
1
1
1
1
1
1
1
1
1
1
1
1
1
1
1
1
1
1
1
1
1
1
1
1
1
1
1
1
1
1
1
1
1
1
1
1
0.999998
0.999498
0.998873
0.999627
1
1
1
1
1
1
1
1
1
1
1
1
1
1
1
1
1
1
1
1
1
1
1
1
1
1
1
1
1
1
1
1
1
1
1
1
1
1
1
1
1
1
1
0.999975
0.99996
0.99971
1
1
1
1
1
1
1
1
1
1
1
1
1
1
1
1
1
1
1
1
1
1
1
1
1
1
1
1
1
1
1
1
1
1
1
1
1
1
1
1
1
1
1
0.999998
0.999996
0.999706
1
1
1
1
1
1
1
1
1
1
1
1
1
1
1
1
1
1
1
1
1
1
1
1
1
1
1
1
1
1
1
1
1
1
1
1
1
1
1
1
1
1
1
1
0.999999
0.999711
1
1
1
1
1
1
1
1
1
1
1
1
1
1
1
1
1
1
1
1
1
1
1
1
1
1
1
1
1
1
1
1
1
1
1
1
1
1
1
1
1
1
1
1
1
0.999724
1
1
1
1
1
1
1
1
1
1
1
1
1
1
1
1
1
1
1
1
1
1
1
1
1
1
1
1
1
1
1
1
1
1
1
1
1
1
1
1
1
1
1
1
1
0.999894
3.08527e-23
3.06608e-23
2.78803e-23
3.06617e-24
1.22437e-25
4.84427e-27
2.05928e-28
1.20689e-29
1.24443e-29
2.87186e-29
1.1876e-28
5.62468e-28
1.6648e-27
2.40341e-27
1.08111e-27
3.56125e-28
8.03509e-29
1.20536e-29
1.28616e-30
1.09194e-31
5.95909e-33
2.8463e-34
1.05568e-35
3.3836e-37
1.06009e-38
3.39513e-40
1.16919e-41
4.29892e-43
3.61129e-44
1.27549e-45
3.6499e-47
9.7254e-49
2.25891e-50
4.39889e-52
6.83556e-54
7.89662e-56
6.09133e-58
2.62298e-60
4.29335e-63
1.00775e-63
2.48274e-22
3.00649e-22
1.53724e-22
2.83048e-23
2.79079e-24
2.70372e-25
2.16616e-26
1.78713e-27
9.71198e-28
7.11262e-27
1.95181e-26
2.81762e-26
1.78756e-26
1.23234e-26
4.38094e-27
1.68716e-27
7.26336e-28
2.70162e-28
6.43212e-29
8.95398e-30
6.33849e-31
2.33206e-32
2.84289e-34
1.05479e-35
3.38275e-37
1.06e-38
3.39515e-40
1.1692e-41
4.00894e-42
1.77383e-43
4.10221e-45
1.08595e-46
2.54324e-48
5.02336e-50
7.96248e-52
9.41213e-54
7.39233e-56
3.18013e-58
5.77005e-61
1.04534e-63
6.90966e-21
4.96634e-21
2.35336e-21
5.81432e-22
8.22668e-23
1.2203e-23
1.51158e-24
2.09205e-25
1.26653e-25
7.20055e-25
1.79799e-24
2.55163e-24
2.00333e-24
1.578e-24
7.42574e-25
3.09384e-25
1.11096e-25
3.15758e-26
6.38356e-27
8.52729e-28
6.971e-29
2.72126e-30
4.16605e-32
1.56442e-33
4.89949e-35
1.46259e-36
4.44659e-38
1.43072e-39
2.54905e-40
9.86737e-42
2.5145e-43
6.50066e-45
1.4935e-46
2.91377e-48
4.56452e-50
5.24863e-52
4.43951e-54
2.70775e-56
7.21558e-59
3.84247e-61
7.77083e-20
5.96523e-20
3.23333e-20
9.75316e-21
1.88091e-21
4.13316e-22
7.51187e-23
1.63834e-23
1.15138e-23
4.94151e-23
1.10185e-22
1.47157e-22
1.32448e-22
9.85763e-23
5.17069e-23
2.23005e-23
7.72542e-24
2.05419e-24
3.96456e-25
5.31038e-26
4.72179e-27
1.92996e-28
3.32387e-30
1.28666e-31
4.04787e-33
1.17502e-34
3.41646e-36
1.02358e-37
8.63069e-39
4.49485e-40
1.25144e-41
3.09764e-43
6.90367e-45
1.30279e-46
1.9268e-48
2.86179e-50
3.16791e-52
2.28329e-54
7.81215e-57
7.10474e-59
6.02191e-19
5.78559e-19
3.91242e-19
1.40933e-19
3.52493e-20
1.05949e-20
2.70848e-21
9.25521e-22
7.7545e-22
2.56871e-21
5.11366e-21
6.34135e-21
6.18343e-21
4.40225e-21
2.40177e-21
1.04672e-21
3.57661e-22
9.30816e-23
1.78216e-23
2.44839e-24
2.30627e-25
9.80507e-27
1.83641e-28
7.44754e-30
2.41759e-31
7.02114e-33
1.99482e-34
5.73556e-36
2.02184e-37
1.92389e-38
5.7947e-40
1.3321e-41
2.85701e-43
5.05134e-45
1.01255e-46
1.60154e-48
1.91239e-50
1.54684e-52
6.3464e-55
7.67605e-57
3.9206e-18
4.72736e-18
3.92961e-18
1.54421e-18
4.66866e-19
1.82805e-19
6.2301e-20
2.9548e-20
3.33924e-20
1.0634e-19
1.90592e-19
2.19636e-19
2.20281e-19
1.51836e-19
8.37323e-20
3.65475e-20
1.24304e-20
3.22792e-21
6.24937e-22
8.92155e-23
8.80323e-24
3.86922e-25
7.83862e-27
3.36749e-28
1.1512e-29
3.43552e-31
9.7753e-33
2.77305e-34
8.85698e-36
8.13407e-37
2.41979e-38
5.44321e-40
1.11076e-41
2.31316e-43
5.00479e-45
8.30012e-47
1.05306e-48
9.21373e-51
4.186e-53
6.22089e-55
1.9369e-17
2.76217e-17
2.57169e-17
1.05029e-17
4.03691e-18
1.82574e-18
7.43296e-19
4.96244e-19
1.2212e-18
3.55759e-18
5.85146e-18
6.41623e-18
6.24892e-18
4.23412e-18
2.33003e-18
1.01555e-18
3.45606e-19
9.04848e-20
1.791e-20
2.67979e-21
2.75049e-22
1.28478e-23
2.99109e-25
1.2538e-26
4.58042e-28
1.43634e-29
4.19235e-31
1.19784e-32
3.78276e-34
3.29235e-35
9.75962e-37
2.15742e-38
4.15745e-40
1.05838e-41
2.39313e-43
4.12049e-45
5.48342e-47
5.05262e-49
2.41254e-51
4.09234e-53
7.96552e-17
1.42236e-16
1.4374e-16
5.55441e-17
2.27893e-17
1.16525e-17
6.91349e-18
1.01811e-17
4.08889e-17
9.81872e-17
1.48957e-16
1.6301e-16
1.45214e-16
9.79589e-17
5.35456e-17
2.3323e-17
7.98507e-18
2.12432e-18
4.33341e-19
6.8183e-20
7.26422e-21
3.69894e-22
1.02135e-23
3.96163e-25
1.56175e-26
5.23475e-28
1.6007e-29
4.69994e-31
1.49505e-32
1.2794e-33
3.82486e-35
8.31355e-37
1.77526e-38
4.71213e-40
1.11075e-41
1.98941e-43
2.75681e-45
2.64493e-47
1.3125e-49
2.35285e-51
3.06068e-16
5.77492e-16
5.57407e-16
2.26469e-16
1.56057e-16
1.42667e-16
1.70293e-16
4.18618e-16
1.17751e-15
2.43029e-15
3.28868e-15
3.57792e-15
2.87472e-15
1.89265e-15
1.0173e-15
4.41942e-16
1.53013e-16
4.17002e-17
8.85784e-18
1.46632e-18
1.62492e-19
8.88993e-21
2.85798e-22
1.08254e-23
4.63226e-25
1.67739e-26
5.47627e-28
1.68338e-29
5.49324e-31
4.74469e-32
1.44596e-33
3.10855e-35
7.39858e-37
2.03966e-38
5.01408e-40
9.34321e-42
1.34523e-43
1.33865e-45
6.86547e-48
1.27555e-49
5.77631e-16
1.9763e-15
2.53339e-15
3.35305e-15
6.91243e-15
1.12963e-14
1.65142e-14
2.17985e-14
3.12326e-14
5.40111e-14
6.50946e-14
7.10607e-14
5.07722e-14
3.22345e-14
1.65043e-14
6.99888e-15
2.4226e-15
6.74841e-16
1.5067e-16
2.6002e-17
2.98619e-18
1.68787e-19
5.93024e-21
2.59105e-22
1.20231e-23
4.6132e-25
1.6261e-26
5.49181e-28
1.8711e-29
1.66337e-30
5.21863e-32
1.11784e-33
2.966e-35
8.53764e-37
2.18683e-38
4.24666e-40
6.35852e-42
6.56382e-44
3.47889e-46
6.59026e-48
1
1
1
1
1
1
1
1
1
1
1
1
1
1
1
1
1
1
1
1
1
1
1
1
1
1
1
1
1
1
1
1
1
1
1
1
1
1
1
1
1
1
1
1
1
1
1
1
1
1
1
1
1
1
1
1
1
1
1
1
1
1
1
1
1
1
1
1
1
1
1
1
1
1
1
1
1
1
1
1
1
1
1
1
1
1
1
1
1
1
1
1
1
0.999999
0.999999
0.999999
1
1
1
1
1
0.999999
0.999999
0.999999
0.999999
0.999999
0.999999
0.999999
0.999999
0.999999
0.999999
0.999999
0.999999
0.999999
0.999999
0.999999
1
1
1
1
1
1
1
1
1
1
1
1
1
1
1
1
1
1
1
1
1
1
0.999999
0.999994
0.999994
0.999995
0.999996
0.999996
0.999996
0.999996
0.999996
0.999995
0.999995
0.999994
0.999994
0.999993
0.999993
0.999992
0.999992
0.999992
0.999992
0.999992
0.999992
0.999992
0.999993
0.999994
0.999995
0.999996
0.999996
0.999996
0.999997
0.999997
0.999998
0.999998
0.999999
0.999999
1
1
1
1
1
1
1
1
1
1
1
1
0.999989
0.999945
0.999944
0.999956
0.999964
0.999967
0.999967
0.999965
0.999961
0.999957
0.999953
0.999949
0.999944
0.999939
0.999935
0.999932
0.999929
0.999927
0.999925
0.999925
0.999926
0.999928
0.999932
0.999937
0.999944
0.999952
0.999958
0.999958
0.999958
0.999962
0.999968
0.999975
0.999982
0.999987
0.999992
0.999998
1
1
1
1
1
1
1
1
1
1
0.999863
0.99952
0.999551
0.999655
0.999717
0.999736
0.999729
0.999709
0.999681
0.999647
0.99961
0.999572
0.999533
0.999495
0.99946
0.999431
0.999407
0.999387
0.999371
0.999362
0.999363
0.999371
0.999393
0.999429
0.999474
0.999532
0.999612
0.999615
0.999615
0.999642
0.999689
0.999728
0.999769
0.999822
0.999874
0.999951
0.999999
1
1
1
1
1
1
1
1
1
0.998586
0.996295
0.996676
0.997463
0.997882
0.997982
0.997899
0.997716
0.997479
0.9972
0.996909
0.996611
0.996308
0.99602
0.995756
0.995533
0.995343
0.995174
0.995029
0.994924
0.994874
0.994889
0.994986
0.995184
0.995444
0.995796
0.996298
0.996799
0.997082
0.997403
0.997567
0.997523
0.997543
0.997824
0.998411
0.999195
0.999856
0.999998
1
1
1
1
1
1
1
1
0.920463
0.811434
0.840121
0.89146
0.911356
0.907851
0.892285
0.870724
0.847153
0.821788
0.797593
0.773767
0.750266
0.728756
0.709552
0.693618
0.679079
0.664335
0.649614
0.636435
0.625259
0.616513
0.613561
0.615497
0.616405
0.623764
0.644805
0.686303
0.738059
0.782419
0.820171
0.860392
0.907726
0.954676
0.980396
0.98832
0.995283
0.999721
1
0.999998
1
1
1
1
1
1
0.244247
0.127619
0.154749
0.215499
0.241443
0.232784
0.205863
0.176556
0.149752
0.125782
0.106354
0.0895949
0.0749103
0.0631706
0.0537026
0.0464776
0.0401238
0.0340131
0.0282715
0.0234411
0.0196075
0.0167873
0.0158974
0.0162579
0.0161029
0.0188982
0.0272961
0.045208
0.0700442
0.0944869
0.119717
0.153826
0.214222
0.344976
0.584576
0.829064
0.952415
0.995742
0.999823
1
1.00001
0.999998
1
1
1
1
-1.99007e-08
-2.70497e-08
-8.02225e-07
-1.7874e-06
-2.65335e-07
-2.65079e-08
-5.03176e-09
-4.05693e-09
-8.93887e-08
-2.32734e-07
-9.67126e-07
-3.09275e-06
-5.71972e-06
-6.80126e-06
-6.20978e-06
-4.86718e-06
-1.21542e-05
-9.95323e-06
-5.53442e-06
-2.66018e-06
-1.27287e-06
-6.35128e-07
-1.42925e-05
-2.02215e-05
-1.8215e-05
-8.41346e-05
-0.000160568
-0.000131129
-7.42462e-05
-3.44114e-05
-1.41475e-05
-5.59461e-06
-2.167e-06
-5.3605e-07
0.00507093
0.0834792
0.413106
0.85948
0.998058
0.999648
0.999875
1.00001
1.00001
0.999999
1
1
-2.57947e-11
-1.62379e-11
-4.91308e-12
-1.38594e-07
-4.47461e-08
-9.96228e-09
-1.14283e-08
-1.51619e-08
-3.65578e-07
-9.26279e-07
-2.8421e-06
-8.47345e-06
-1.31172e-05
-1.42691e-05
-1.25955e-05
-9.73048e-06
-6.88178e-06
-4.5882e-06
-3.15869e-06
-2.15713e-06
-1.39301e-06
-8.46467e-07
-4.91822e-07
-2.78489e-07
-1.56332e-07
-8.87768e-08
-5.30058e-08
-3.58899e-08
-6.81592e-08
-2.49948e-07
-6.97734e-07
-1.39733e-06
-2.11107e-06
-2.4753e-06
-2.09603e-06
-9.43816e-07
0.00297681
0.0416856
0.371483
0.935265
0.999061
0.999968
0.999926
1.00001
1.00002
0.999999
-2.46723e-11
-1.94189e-11
-4.69905e-12
-1.4718e-12
-4.61571e-13
-1.61645e-13
-1.23871e-08
-1.86523e-08
-4.10356e-07
-9.60513e-07
-2.5628e-06
-6.30235e-06
-9.5047e-06
-1.05086e-05
-9.5887e-06
-7.71753e-06
-5.70703e-06
-3.98012e-06
-2.66103e-06
-1.72275e-06
-1.08691e-06
-6.7146e-07
-4.07935e-07
-2.44954e-07
-1.46537e-07
-8.89138e-08
-5.71847e-08
-4.23884e-08
-8.40021e-08
-3.11864e-07
-8.94866e-07
-1.9002e-06
-3.18875e-06
-4.41886e-06
-5.17004e-06
-5.13144e-06
-3.98752e-06
0.000162595
0.00414713
0.0405885
0.256058
0.869394
0.99944
1.00026
0.999944
1.00001
-1.54153e-11
-1.28202e-11
-2.67101e-12
-8.71831e-13
-2.98093e-13
-1.18723e-13
-8.62266e-09
-1.26508e-08
-1.78007e-07
-4.01892e-07
-7.01273e-07
-1.27977e-06
-2.05641e-06
-2.7134e-06
-3.00376e-06
-2.89036e-06
-2.49154e-06
-1.96935e-06
-1.45311e-06
-1.01517e-06
-6.79342e-07
-4.39846e-07
-2.78068e-07
-1.73248e-07
-1.07683e-07
-6.83639e-08
-4.66928e-08
-3.74333e-08
-6.62356e-08
-2.2219e-07
-6.40338e-07
-1.42764e-06
-2.58178e-06
-3.9544e-06
-5.28171e-06
-6.26993e-06
-6.69401e-06
-4.72833e-08
9.94194e-07
6.98308e-05
0.00312421
0.0556446
0.216188
0.788169
0.998687
1.00049
-5.84979e-12
-4.58374e-12
-9.16522e-13
-3.23313e-13
-1.2762e-13
-6.51191e-14
-2.58836e-09
-3.72692e-09
-3.57395e-09
-4.87172e-09
-2.9164e-08
-1.60157e-07
-4.17682e-07
-7.10579e-07
-9.20597e-07
-9.86777e-07
-9.20359e-07
-7.72577e-07
-5.98067e-07
-4.35031e-07
-3.01932e-07
-2.02624e-07
-1.33094e-07
-8.66282e-08
-5.67689e-08
-3.8571e-08
-2.88092e-08
-2.56657e-08
-3.65626e-08
-8.93356e-08
-2.3176e-07
-5.14473e-07
-9.66389e-07
-1.57535e-06
-2.28299e-06
-2.99576e-06
-3.60631e-06
-3.92782e-06
-6.83062e-10
5.07797e-07
1.37897e-05
0.000104706
0.00136126
0.0498468
0.16991
0.694851
-9.84701e-13
-6.64194e-13
-1.86132e-13
-8.10113e-14
-4.25021e-14
-3.36324e-14
-5.4122e-14
-1.08808e-12
-7.3862e-11
-5.67137e-10
-6.26915e-09
-3.66857e-08
-9.74535e-08
-1.68284e-07
-2.21356e-07
-2.41224e-07
-2.29259e-07
-1.96777e-07
-1.56539e-07
-1.17844e-07
-8.54637e-08
-6.06695e-08
-4.2771e-08
-3.03581e-08
-2.20663e-08
-1.69374e-08
-1.44996e-08
-1.46803e-08
-1.76416e-08
-2.36189e-08
-3.27982e-08
-4.52411e-08
-6.0825e-08
-7.91617e-08
-9.94611e-08
-1.20396e-07
-1.4006e-07
-1.94151e-07
-1.49561e-08
-1.1652e-09
3.06148e-07
3.93301e-06
2.43017e-05
0.000174
0.00123591
0.0426337
-3.81581e-13
-2.1479e-13
-6.66838e-14
-2.87836e-14
-1.76361e-14
-2.13797e-14
-4.82822e-14
-1.33876e-13
-5.101e-13
-1.22991e-11
-2.45058e-10
-1.7288e-09
-5.20738e-09
-1.00734e-08
-1.48071e-08
-1.80889e-08
-1.94331e-08
-1.91067e-08
-1.77172e-08
-1.58526e-08
-1.3913e-08
-1.21008e-08
-1.04856e-08
-9.08652e-09
-7.94767e-09
-7.18974e-09
-7.02435e-09
-7.72696e-09
-9.58301e-09
-1.28393e-08
-1.76744e-08
-2.42146e-08
-3.25769e-08
-4.29408e-08
-5.54809e-08
-7.01935e-08
-8.66163e-08
-1.04044e-07
-1.14781e-07
-1.86508e-08
-5.55695e-09
1.1242e-07
9.97316e-07
8.92578e-06
4.44159e-05
0.00021255
-9.67691e-14
-4.36227e-14
-1.54725e-14
-7.36852e-15
-7.27938e-15
-1.5871e-14
-4.51259e-14
-1.29735e-13
-3.11067e-13
-6.19058e-13
-1.80274e-12
-1.93997e-11
-9.62416e-11
-2.90659e-10
-6.46483e-10
-1.16729e-09
-1.81007e-09
-2.49837e-09
-3.14534e-09
-3.67566e-09
-4.03968e-09
-4.21781e-09
-4.21889e-09
-4.07919e-09
-3.86566e-09
-3.67948e-09
-3.65039e-09
-3.91538e-09
-4.58603e-09
-5.72348e-09
-7.31382e-09
-9.28347e-09
-1.15379e-08
-1.41918e-08
-1.76082e-08
-2.26571e-08
-3.02435e-08
-4.03801e-08
-5.36189e-08
-5.884e-08
-1.1112e-11
-1.35773e-09
2.35803e-08
4.20398e-07
2.00731e-06
1.30703e-05
-1.74019e-14
-6.23685e-15
-2.67397e-15
-1.90324e-15
-4.42165e-15
-1.40101e-14
-4.34572e-14
-1.25213e-13
-2.93431e-13
-5.68115e-13
-1.21491e-12
-7.84077e-12
-3.76561e-11
-1.17532e-10
-2.72289e-10
-5.11013e-10
-8.20131e-10
-1.16634e-09
-1.50651e-09
-1.79936e-09
-2.01436e-09
-2.13592e-09
-2.16381e-09
-2.11214e-09
-2.00892e-09
-1.8945e-09
-1.81514e-09
-1.80914e-09
-1.8873e-09
-2.01938e-09
-2.11053e-09
-1.98638e-09
-1.31717e-09
-1.92807e-10
2.41599e-09
8.47594e-09
1.05123e-08
6.84125e-09
3.88454e-11
-7.86243e-09
-1.13798e-08
-3.75743e-11
1.8328e-09
1.93399e-08
9.41893e-08
7.64541e-07
-3.77469e-15
-1.16759e-15
-5.99823e-16
-9.16992e-16
-3.72366e-15
-1.31913e-14
-4.18278e-14
-1.19035e-13
-2.71087e-13
-5.08819e-13
-9.60488e-13
-4.02304e-12
-1.72087e-11
-5.27651e-11
-1.22844e-10
-2.33094e-10
-3.78691e-10
-5.44829e-10
-7.10942e-10
-8.5635e-10
-9.65023e-10
-1.02816e-09
-1.04462e-09
-1.02001e-09
-9.65459e-10
-8.95265e-10
-8.22761e-10
-7.5413e-10
-6.81387e-10
-5.79945e-10
-4.23061e-10
-2.15902e-10
-2.87211e-11
2.30086e-10
2.07459e-08
3.31101e-08
3.3671e-08
3.38043e-08
3.37368e-08
3.09595e-08
9.3562e-09
2.59576e-09
3.45611e-09
4.22726e-09
6.92159e-09
4.06177e-08
-4.43831e-16
-1.33535e-16
-1.6179e-16
-6.91042e-16
-3.40923e-15
-1.24296e-14
-3.94757e-14
-1.102e-13
-2.42833e-13
-4.40518e-13
-7.76505e-13
-2.39783e-12
-8.82349e-12
-2.57786e-11
-5.89548e-11
-1.10968e-10
-1.79419e-10
-2.57103e-10
-3.34065e-10
-4.00384e-10
-4.4852e-10
-4.7454e-10
-4.78185e-10
-4.62172e-10
-4.31083e-10
-3.89941e-10
-3.42461e-10
-2.89777e-10
-2.31125e-10
-1.62579e-10
-9.14828e-11
2.56554e-12
2.12254e-10
1.99206e-09
1.14995e-08
2.96773e-08
3.31752e-08
3.36692e-08
3.37368e-08
3.31751e-08
3.13601e-08
1.24085e-08
2.06187e-09
2.70064e-09
3.06266e-09
2.44697e-09
-1.69844e-17
-1.64711e-17
-1.0605e-16
-6.31727e-16
-3.13694e-15
-1.14628e-14
-3.61145e-14
-9.83947e-14
-2.08954e-13
-3.65429e-13
-6.17235e-13
-1.59559e-12
-5.095e-12
-1.38539e-11
-3.03645e-11
-5.54344e-11
-8.74185e-11
-1.22527e-10
-1.55957e-10
-1.8325e-10
-2.0132e-10
-2.08876e-10
-2.0628e-10
-1.95038e-10
-1.77138e-10
-1.54406e-10
-1.2793e-10
-9.8014e-11
-6.56495e-11
-2.85229e-11
-5.92667e-28
7.83746e-11
9.83351e-11
7.11896e-11
6.61935e-11
1.62347e-09
8.02334e-09
1.07264e-08
7.41931e-09
3.02915e-09
9.73188e-10
1.02062e-09
1.66415e-09
3.24962e-09
3.17095e-09
7.97835e-10
-8.67964e-19
-1.09581e-17
-9.46477e-17
-5.77332e-16
-2.81152e-15
-1.02227e-14
-3.17553e-14
-8.40547e-14
-1.7135e-13
-2.88322e-13
-4.72023e-13
-1.09664e-12
-3.10356e-12
-7.76508e-12
-1.6034e-11
-2.79175e-11
-4.22787e-11
-5.71494e-11
-7.03447e-11
-8.00728e-11
-8.53086e-11
-8.58558e-11
-8.21602e-11
-7.4998e-11
-6.51413e-11
-5.31234e-11
-3.87961e-11
-2.18787e-11
-2.20952e-12
1.75539e-11
5.20352e-11
6.78116e-11
6.85292e-11
6.6735e-11
6.59751e-11
6.59522e-11
6.59751e-11
6.59525e-11
6.61554e-11
6.68472e-11
6.83408e-11
7.68399e-11
1.28033e-10
3.8416e-10
4.93092e-10
3.16731e-10
-7.78322e-19
-9.40016e-18
-8.29848e-17
-5.08529e-16
-2.42886e-15
-8.74998e-15
-2.66569e-14
-6.824e-14
-1.3302e-13
-2.15096e-13
-3.43855e-13
-7.43864e-13
-1.89385e-12
-4.33176e-12
-8.32804e-12
-1.36636e-11
-1.96487e-11
-2.53469e-11
-2.98723e-11
-3.26246e-11
-3.33815e-11
-3.22473e-11
-2.95107e-11
-2.54801e-11
-2.03573e-11
-1.41107e-11
-6.06345e-12
1.40634e-12
2.05378e-11
5.28982e-11
7.18506e-11
7.25544e-11
7.27044e-11
7.27044e-11
7.17478e-11
6.72598e-11
6.70646e-11
7.34212e-11
8.98441e-11
1.14459e-10
1.43548e-10
1.74549e-10
2.05097e-10
2.32684e-10
2.63458e-10
2.82074e-10
-6.50009e-19
-7.80911e-18
-7.00595e-17
-4.29257e-16
-2.01033e-15
-7.14577e-15
-2.12417e-14
-5.2348e-14
-9.72114e-14
-1.51043e-13
-2.37514e-13
-4.89245e-13
-1.1337e-12
-2.3615e-12
-4.18849e-12
-6.41064e-12
-8.66846e-12
-1.05698e-11
-1.18124e-11
-1.22539e-11
-1.19092e-11
-1.08904e-11
-9.32246e-12
-7.2792e-12
-4.7667e-12
-1.49341e-12
1.99254e-12
1.19011e-11
2.97946e-11
4.34478e-11
5.2168e-11
5.75151e-11
5.78658e-11
5.70678e-11
5.70767e-11
6.15556e-11
7.06909e-11
8.31004e-11
9.95603e-11
1.19881e-10
1.4322e-10
1.69124e-10
1.98824e-10
2.32226e-10
2.69725e-10
3.21847e-10
-5.14115e-19
-6.2641e-18
-5.67308e-17
-3.45831e-16
-1.58616e-15
-5.53935e-15
-1.59868e-14
-3.77499e-14
-6.65591e-14
-9.95127e-14
-1.55172e-13
-3.09171e-13
-6.58763e-13
-1.24892e-12
-2.03148e-12
-2.87811e-12
-3.62825e-12
-4.14175e-12
-4.34126e-12
-4.22392e-12
-3.83866e-12
-3.24614e-12
-2.47919e-12
-1.53978e-12
-3.76803e-13
1.02425e-12
5.28535e-12
1.06762e-11
1.36017e-11
1.67846e-11
1.83323e-11
1.81289e-11
1.7599e-11
1.81594e-11
1.99516e-11
2.33793e-11
2.8567e-11
3.50323e-11
4.22153e-11
5.0015e-11
5.88904e-11
6.96369e-11
8.32678e-11
1.01011e-10
1.23848e-10
1.55631e-10
-3.88061e-19
-4.83606e-18
-4.38926e-17
-2.64903e-16
-1.18756e-15
-4.05686e-15
-1.13106e-14
-2.54693e-14
-4.25211e-14
-6.13863e-14
-9.57262e-14
-1.8624e-13
-3.67663e-13
-6.35776e-13
-9.46629e-13
-1.23609e-12
-1.443e-12
-1.52649e-12
-1.47978e-12
-1.32618e-12
-1.09883e-12
-8.20898e-13
-4.93308e-13
-1.05944e-13
3.47797e-13
1.79749e-12
2.65938e-12
3.32164e-12
3.95843e-12
4.13809e-12
4.14746e-12
4.25917e-12
4.62841e-12
5.4112e-12
6.72078e-12
8.52602e-12
1.06895e-11
1.31013e-11
1.57977e-11
1.89942e-11
2.31313e-11
2.89377e-11
3.71369e-11
4.82692e-11
6.29228e-11
8.15754e-11
-2.80361e-19
-3.58048e-18
-3.23248e-17
-1.922e-16
-8.40047e-16
-2.79418e-15
-7.48771e-15
-1.6003e-14
-2.52574e-14
-3.54225e-14
-5.56752e-14
-1.06099e-13
-1.94904e-13
-3.08613e-13
-4.21462e-13
-5.0671e-13
-5.44543e-13
-5.2667e-13
-4.62154e-13
-3.70482e-13
-2.67198e-13
-1.58166e-13
-3.69884e-14
1.11114e-13
3.59784e-13
4.72672e-13
6.45426e-13
8.22146e-13
9.16446e-13
9.72525e-13
1.06761e-12
1.26301e-12
1.60402e-12
2.10806e-12
2.75483e-12
3.49216e-12
4.27096e-12
5.10556e-12
6.12175e-12
7.67807e-12
1.03841e-11
1.51317e-11
2.27227e-11
3.32717e-11
4.71174e-11
6.43979e-11
-1.93948e-19
-2.53203e-18
-2.2571e-17
-1.31572e-16
-5.5891e-16
-1.80135e-15
-4.61618e-15
-9.3213e-15
-1.39099e-14
-1.91202e-14
-3.04556e-14
-5.66784e-14
-9.7007e-14
-1.41279e-13
-1.77668e-13
-1.96501e-13
-1.92496e-13
-1.66101e-13
-1.26758e-13
-8.60772e-14
-4.84777e-14
-1.33572e-14
2.69371e-14
5.88287e-14
8.6848e-14
1.29701e-13
1.71444e-13
1.96138e-13
2.18684e-13
2.56112e-13
3.23856e-13
4.33795e-13
5.89093e-13
7.80847e-13
9.88833e-13
1.19102e-12
1.38989e-12
1.66216e-12
2.23748e-12
3.57881e-12
6.62595e-12
1.21356e-11
2.054e-11
3.17939e-11
4.69876e-11
7.17369e-11
-1.28272e-19
-1.70252e-18
-1.48791e-17
-8.46136e-17
-3.48059e-16
-1.0814e-15
-2.63661e-15
-5.00967e-15
-7.08745e-15
-9.65703e-15
-1.56047e-14
-2.81308e-14
-4.48224e-14
-6.02839e-14
-6.99776e-14
-7.0676e-14
-6.16887e-14
-4.50594e-14
-2.72503e-14
-1.36896e-14
-3.18415e-15
5.70973e-15
1.02676e-14
1.66201e-14
2.61568e-14
3.47058e-14
3.99227e-14
4.56983e-14
5.59252e-14
7.40762e-14
1.02214e-13
1.40323e-13
1.86252e-13
2.35429e-13
2.81453e-13
3.24873e-13
3.96226e-13
6.02707e-13
1.25304e-12
2.89261e-12
6.40903e-12
1.3201e-11
2.52187e-11
4.47359e-11
7.12338e-11
9.94113e-11
-8.08425e-20
-1.08267e-18
-9.21447e-18
-5.08629e-17
-2.01752e-16
-6.01016e-16
-1.38724e-15
-2.47245e-15
-3.33662e-15
-4.56187e-15
-7.44002e-15
-1.28455e-14
-1.90243e-14
-2.36855e-14
-2.52684e-14
-2.27554e-14
-1.68484e-14
-9.14485e-15
-3.02429e-15
-1.92993e-16
1.84203e-15
2.07061e-15
3.20267e-15
5.56624e-15
7.40522e-15
8.24773e-15
9.20159e-15
1.11573e-14
1.48908e-14
2.0698e-14
2.84786e-14
3.79843e-14
4.84727e-14
5.85785e-14
6.81593e-14
8.60065e-14
1.51899e-13
4.12107e-13
1.19123e-12
3.65656e-12
1.01433e-11
2.15032e-11
4.26292e-11
8.79215e-11
1.28663e-10
1.49022e-10
-4.83098e-20
-6.47007e-19
-5.32909e-18
-2.84057e-17
-1.08136e-16
-3.07144e-16
-6.68011e-16
-1.11516e-15
-1.45023e-15
-2.00986e-15
-3.2702e-15
-5.3406e-15
-7.33933e-15
-8.44132e-15
-8.12133e-15
-6.16252e-15
-3.50092e-15
-8.15309e-16
6.26732e-16
7.38472e-16
4.09732e-16
5.71986e-16
1.05764e-15
1.63933e-15
1.79649e-15
1.88231e-15
2.09759e-15
2.63623e-15
3.5853e-15
4.93717e-15
6.68497e-15
8.71774e-15
1.07641e-14
1.28499e-14
1.70494e-14
3.53825e-14
1.17831e-13
4.82541e-13
2.00144e-12
6.60537e-12
1.80352e-11
3.59056e-11
7.49623e-11
1.66629e-10
1.99939e-10
2.10338e-10
-2.71845e-20
-3.60517e-19
-2.85711e-18
-1.46279e-17
-5.31667e-17
-1.43167e-16
-2.92226e-16
-4.57465e-16
-5.81309e-16
-8.20138e-16
-1.30918e-15
-1.99843e-15
-2.54042e-15
-2.66614e-15
-2.20856e-15
-1.23729e-15
-4.24427e-16
2.05695e-16
2.0311e-16
1.67802e-16
9.96325e-17
1.82548e-16
3.13855e-16
4.10882e-16
4.01511e-16
3.95553e-16
4.30324e-16
5.36988e-16
7.30154e-16
1.01212e-15
1.36338e-15
1.7354e-15
2.14681e-15
3.07481e-15
7.44354e-15
2.99723e-14
1.62116e-13
8.37938e-13
3.42804e-12
1.09143e-11
2.81332e-11
5.45339e-11
1.18569e-10
2.40058e-10
2.53706e-10
2.65448e-10
-1.42727e-20
-1.8548e-19
-1.40687e-18
-6.88053e-18
-2.37438e-17
-6.02783e-17
-1.1515e-16
-1.69851e-16
-2.14179e-16
-3.0613e-16
-4.70285e-16
-6.6368e-16
-7.7348e-16
-7.16944e-16
-4.61903e-16
-1.20484e-16
-2.51373e-18
2.3772e-17
9.05397e-18
8.62175e-18
2.30187e-17
5.03356e-17
7.77041e-17
8.60539e-17
7.70816e-17
6.85175e-17
7.36339e-17
9.26048e-17
1.3015e-16
1.83208e-16
2.43138e-16
3.13363e-16
4.85083e-16
1.34388e-15
6.44383e-15
3.8989e-14
2.38303e-13
1.23115e-12
4.96672e-12
1.55081e-11
3.84518e-11
7.43448e-11
1.52963e-10
2.89293e-10
2.85868e-10
2.68727e-10
-6.90695e-21
-8.70297e-20
-6.28734e-19
-2.92069e-18
-9.51379e-18
-2.26538e-17
-4.04689e-17
-5.67553e-17
-7.19202e-17
-1.0262e-16
-1.48811e-16
-1.91823e-16
-2.00381e-16
-1.52966e-16
-5.87493e-17
1.83956e-17
6.17758e-18
6.64114e-19
7.12654e-19
2.11302e-18
6.14495e-18
1.11084e-17
1.54494e-17
1.49941e-17
1.16537e-17
9.65711e-18
1.06389e-17
1.42474e-17
2.08757e-17
2.92457e-17
3.95407e-17
6.46788e-17
1.99643e-16
1.09931e-15
7.14062e-15
4.71981e-14
2.93052e-13
1.52539e-12
6.16394e-12
1.92885e-11
4.74977e-11
9.15914e-11
1.68624e-10
3.43831e-10
3.05682e-10
2.71714e-10
-3.02926e-21
-3.66644e-20
-2.5111e-19
-1.1014e-18
-3.36655e-18
-7.48797e-18
-1.25354e-17
-1.69221e-17
-2.16383e-17
-3.01421e-17
-4.04829e-17
-4.67995e-17
-4.17792e-17
-2.25956e-17
-6.43504e-21
7.02915e-18
5.99993e-19
1.43459e-19
1.69823e-19
4.88663e-19
1.18731e-18
1.9256e-18
2.41932e-18
2.10884e-18
1.37002e-18
1.18958e-18
1.37756e-18
1.98562e-18
2.97553e-18
4.27084e-18
7.19387e-18
2.33053e-17
1.42766e-16
1.0326e-15
7.39599e-15
4.99934e-14
3.14971e-13
1.65803e-12
6.85437e-12
2.16012e-11
5.40733e-11
1.05738e-10
1.79664e-10
4.36598e-10
3.25375e-10
2.80085e-10
-1.17396e-21
-1.35823e-20
-8.7742e-20
-3.60996e-19
-1.02966e-18
-2.13527e-18
-3.37026e-18
-4.43302e-18
-5.67007e-18
-7.51323e-18
-9.14797e-18
-9.17616e-18
-6.40275e-18
-1.55755e-18
1.29708e-18
5.25303e-20
2.58579e-20
2.19082e-20
2.718e-20
8.4115e-20
1.81376e-19
2.6303e-19
3.03439e-19
2.24008e-19
1.3642e-19
1.29785e-19
1.60818e-19
2.49844e-19
3.89315e-19
6.68786e-19
2.12505e-18
1.40619e-17
1.11497e-16
8.25426e-16
5.81759e-15
4.23805e-14
2.91419e-13
1.64933e-12
7.01748e-12
2.2598e-11
5.83166e-11
1.19313e-10
2.0883e-10
5.00078e-10
3.27967e-10
2.93029e-10
-3.8079e-22
-4.17347e-21
-2.54959e-20
-9.8672e-20
-2.63582e-19
-5.12646e-19
-7.70364e-19
-9.92544e-19
-1.24227e-18
-1.52274e-18
-1.63148e-18
-1.34246e-18
-6.24317e-19
8.16427e-20
1.1458e-19
4.71374e-21
4.292e-21
3.05984e-21
3.96855e-21
1.13285e-20
2.11803e-20
2.77519e-20
2.92511e-20
1.81064e-20
1.19369e-20
1.22691e-20
1.71964e-20
2.91568e-20
5.24117e-20
1.55544e-19
1.05148e-18
9.23666e-18
7.42101e-17
5.4654e-16
3.98662e-15
2.97748e-14
2.15849e-13
1.32702e-12
6.28077e-12
2.2651e-11
6.1846e-11
1.3491e-10
2.42816e-10
5.15989e-10
3.72686e-10
3.14562e-10
-9.71502e-23
-1.01424e-21
-5.8783e-21
-2.14947e-20
-5.41462e-20
-9.97359e-20
-1.4397e-19
-1.80625e-19
-2.15449e-19
-2.37975e-19
-2.1637e-19
-1.35682e-19
-2.98476e-20
4.62563e-21
4.79935e-22
7.04059e-22
4.86969e-22
3.53476e-22
4.46971e-22
1.12124e-21
1.84311e-21
2.19946e-21
2.04325e-21
1.14314e-21
8.90058e-22
1.03553e-21
1.7658e-21
3.46867e-21
9.90845e-21
6.41064e-20
6.09148e-19
5.47598e-18
4.45559e-17
3.43818e-16
2.63791e-15
2.08873e-14
1.62732e-13
1.0927e-12
5.68186e-12
2.21806e-11
6.58921e-11
1.53308e-10
2.7917e-10
5.13197e-10
7.60792e-10
3.68518e-10
-1.84283e-23
-1.8386e-22
-1.01488e-21
-3.52452e-21
-8.43061e-21
-1.48199e-20
-2.06095e-20
-2.48798e-20
-2.75734e-20
-2.66659e-20
-1.96892e-20
-8.47898e-21
2.61153e-22
2.00892e-22
7.11806e-23
7.48155e-23
5.01365e-23
3.25407e-23
3.72203e-23
7.73232e-23
1.11739e-22
1.24333e-22
9.44136e-23
5.7437e-23
5.51864e-23
8.75868e-23
1.95532e-22
6.20575e-22
3.96784e-21
3.7925e-20
3.67678e-19
3.30344e-18
2.78469e-17
2.23148e-16
1.76617e-15
1.44409e-14
1.18896e-13
8.72857e-13
5.08026e-12
2.21529e-11
7.13946e-11
1.74646e-10
3.41616e-10
5.58516e-10
1.85237e-09
5.35555e-10
-2.32494e-24
-2.22254e-23
-1.17332e-22
-3.89065e-22
-8.89178e-22
-1.49915e-21
-2.00493e-21
-2.29491e-21
-2.30633e-21
-1.89208e-21
-1.07115e-21
-2.55646e-22
4.89329e-23
3.79272e-24
6.56766e-24
6.86542e-24
4.15082e-24
2.24982e-24
2.14715e-24
3.37275e-24
4.22489e-24
4.27446e-24
2.77761e-24
2.2692e-24
3.39215e-24
9.57263e-24
4.07666e-23
2.95836e-22
2.80873e-21
2.75349e-20
2.58819e-19
2.33549e-18
2.01076e-17
1.65614e-16
1.33908e-15
1.10485e-14
9.27544e-14
7.25272e-13
4.66548e-12
2.24262e-11
7.74606e-11
1.98277e-10
3.91621e-10
6.40638e-10
2.40494e-09
1.05097e-09
-1.47036e-25
-1.35048e-24
-6.84786e-24
-2.17902e-23
-4.78144e-23
-7.74854e-23
-9.91058e-23
-1.05792e-22
-9.4019e-23
-6.29753e-23
-2.4874e-23
-7.84081e-25
8.64327e-25
3.49826e-25
4.58998e-25
4.7751e-25
2.67254e-25
1.13661e-25
8.34121e-26
8.20288e-26
8.9828e-26
7.73905e-26
6.28185e-26
9.48396e-26
4.07158e-25
2.67977e-24
2.39655e-23
2.39789e-22
2.3739e-21
2.2623e-20
2.10087e-19
1.89902e-18
1.65888e-17
1.39262e-16
1.13828e-15
9.3407e-15
7.81196e-14
6.3248e-13
4.38365e-12
2.27772e-11
8.3272e-11
2.16916e-10
4.28394e-10
7.20592e-10
2.57537e-09
8.94971e-09
3.43405e-44
-7.38362e-51
-1.88583e-48
-1.50781e-45
-1.30585e-41
-2.09891e-41
-2.35042e-37
-2.42371e-35
-1.86555e-33
1.96686e-27
4.37088e-26
8.25936e-26
7.96036e-27
1.83531e-26
2.26464e-26
2.29199e-26
1.25447e-26
4.86245e-27
2.43313e-27
1.63487e-27
1.37918e-27
1.37198e-27
2.32808e-27
1.55866e-26
1.5545e-25
1.70961e-24
1.90743e-23
2.00567e-22
1.9808e-21
1.89422e-20
1.76384e-19
1.59919e-18
1.40842e-17
1.19926e-16
9.91493e-16
8.12357e-15
6.75618e-14
5.5732e-13
4.07318e-12
2.25935e-11
8.61306e-11
2.25357e-10
4.43354e-10
7.82824e-10
3.05326e-09
1.52316e-08
5.53144e-49
2.54748e-48
9.2514e-46
7.4458e-44
2.70556e-41
6.70596e-40
4.8329e-39
5.53503e-37
-2.91165e-35
7.6986e-31
1.6579e-28
1.55004e-27
3.98044e-28
6.21654e-28
6.98683e-28
6.33133e-28
3.62809e-28
1.86576e-28
1.13579e-28
7.80735e-29
6.80912e-29
9.33795e-29
5.82895e-28
7.47823e-27
9.59303e-26
1.17344e-24
1.32301e-23
1.40146e-22
1.43227e-21
1.4135e-20
1.34779e-19
1.24614e-18
1.11801e-17
9.70786e-17
8.14423e-16
6.67842e-15
5.51515e-14
4.60248e-13
3.50808e-12
2.05555e-11
8.26845e-11
2.24904e-10
4.41504e-10
7.92774e-10
3.00178e-09
1.61702e-08
1.89741e-50
6.8721e-50
-2.00485e-45
4.25803e-45
-2.3229e-41
-3.06203e-39
-2.54436e-37
-1.80349e-35
-1.12672e-33
1.9185e-31
3.34171e-30
1.03498e-29
1.75908e-29
1.99922e-29
1.83976e-29
1.12267e-29
8.89504e-30
8.099e-30
6.76098e-30
5.36574e-30
5.25788e-30
2.04391e-29
2.96975e-28
4.1814e-27
5.39563e-26
6.48339e-25
7.41452e-24
8.1841e-23
8.68967e-22
8.8678e-21
8.72653e-20
8.30067e-19
7.63965e-18
6.79195e-17
5.81987e-16
4.84771e-15
4.04035e-14
3.42184e-13
2.70625e-12
1.67744e-11
7.15066e-11
2.03757e-10
4.11375e-10
7.00412e-10
2.04315e-09
1.20496e-08
1.3217e-52
-4.1634e-49
9.03089e-49
-1.36624e-44
-3.79417e-43
-2.22042e-43
4.07256e-41
1.98169e-39
8.6903e-38
1.07997e-33
9.27785e-32
4.92217e-31
9.45605e-31
1.18621e-30
1.22961e-30
9.16947e-31
7.70418e-31
6.27454e-31
4.72037e-31
3.9617e-31
7.22228e-31
8.71484e-30
1.39768e-28
1.93575e-27
2.50921e-26
3.10745e-25
3.69096e-24
4.19936e-23
4.58267e-22
4.8076e-21
4.86028e-20
4.74692e-19
4.48201e-18
4.08374e-17
3.58155e-16
3.0437e-15
2.57955e-14
2.23582e-13
1.84866e-12
1.22213e-11
5.59486e-11
1.7082e-10
3.64702e-10
6.28396e-10
1.41395e-09
8.91442e-09
6.14522e-54
1.8225e-53
4.99184e-51
5.65166e-49
1.12294e-46
6.05154e-45
2.5413e-43
1.68403e-41
8.62662e-40
2.478e-37
1.27082e-34
3.90385e-33
1.53637e-32
3.0088e-32
4.27442e-32
5.07603e-32
5.25738e-32
4.04429e-32
3.14524e-32
3.32575e-32
2.05296e-31
3.62038e-30
5.41349e-29
7.74195e-28
1.04927e-26
1.3442e-25
1.63617e-24
1.90616e-23
2.13307e-22
2.29099e-21
2.36732e-20
2.36285e-19
2.28137e-18
2.12631e-17
1.90536e-16
1.64892e-15
1.41995e-14
1.26114e-13
1.09442e-12
7.80085e-12
3.91611e-11
1.32076e-10