/*--------------------------------*- C++ -*----------------------------------*\
  =========                 |
  \\      /  F ield         | OpenFOAM: The Open Source CFD Toolbox
   \\    /   O peration     | Website:  https://openfoam.org
    \\  /    A nd           | Version:  9
     \\/     M anipulation  |
\*---------------------------------------------------------------------------*/
FoamFile
{
    format      ascii;
    class       surfaceScalarField;
    location    "0.4";
    object      alphaPhi0.water;
}
// * * * * * * * * * * * * * * * * * * * * * * * * * * * * * * * * * * * * * //

dimensions      [0 3 -1 0 0 0 0];

internalField   nonuniform List<scalar> 
15214
(
-3.1794e-06
3.1794e-06
-4.4204e-06
1.241e-06
-3.8088e-06
-6.11605e-07
-2.28497e-06
-1.52383e-06
-3.68931e-07
-1.91604e-06
1.66032e-06
-2.02925e-06
3.68357e-06
-2.02324e-06
5.639e-06
-1.95544e-06
7.5054e-06
-1.86639e-06
9.28168e-06
-1.77628e-06
1.0976e-05
-1.69433e-06
1.26002e-05
-1.62419e-06
1.41665e-05
-1.56634e-06
1.56862e-05
-1.51961e-06
1.71682e-05
-1.48205e-06
1.86197e-05
-1.45147e-06
2.00453e-05
-1.42566e-06
2.14478e-05
-1.40251e-06
2.28279e-05
-1.38001e-06
2.41841e-05
-1.35627e-06
2.55135e-05
-1.32935e-06
2.68108e-05
-1.29732e-06
2.80689e-05
-1.25809e-06
2.92782e-05
-1.20935e-06
3.04267e-05
-1.1484e-06
3.14987e-05
-1.07203e-06
3.24749e-05
-9.76208e-07
3.33305e-05
-8.55636e-07
3.40335e-05
-7.03013e-07
3.45399e-05
-5.06361e-07
3.47866e-05
-2.46656e-07
3.46704e-05
1.16165e-07
3.40481e-05
6.22272e-07
3.28174e-05
1.23072e-06
3.08586e-05
1.95882e-06
2.80475e-05
2.81111e-06
2.42822e-05
3.76529e-06
1.95232e-05
4.75894e-06
1.384e-05
5.68329e-06
7.43874e-06
6.40122e-06
6.37687e-07
6.80105e-06
-6.17519e-06
6.94537e-06
-1.26126e-05
6.15615e-06
-1.56564e-05
2.65922e-06
-1.11456e-05
-4.51044e-06
-1.11452e-05
-2.01392e-06
5.19332e-06
-1.92553e-06
1.15261e-06
-9.97423e-07
-1.53971e-06
4.23411e-07
-2.94466e-06
2.12278e-06
-3.6154e-06
3.95655e-06
-3.86303e-06
5.81867e-06
-3.88536e-06
7.65871e-06
-3.79548e-06
9.452e-06
-3.65968e-06
1.11902e-05
-3.51451e-06
1.28743e-05
-3.37839e-06
1.45094e-05
-3.25934e-06
1.61025e-05
-3.15938e-06
1.76601e-05
-3.07727e-06
1.91882e-05
-3.01011e-06
2.0691e-05
-2.9543e-06
2.21714e-05
-2.90605e-06
2.36305e-05
-2.8616e-06
2.50678e-05
-2.81731e-06
2.64812e-05
-2.76961e-06
2.78667e-05
-2.71491e-06
2.92189e-05
-2.64947e-06
3.053e-05
-2.56924e-06
3.17904e-05
-2.46972e-06
3.29876e-05
-2.34566e-06
3.41064e-05
-2.19079e-06
3.51276e-05
-1.9974e-06
3.60277e-05
-1.75574e-06
3.67779e-05
-1.4532e-06
3.73442e-05
-1.07274e-06
3.76903e-05
-5.92734e-07
3.77869e-05
1.96031e-08
3.76026e-05
8.06556e-07
3.70375e-05
1.79581e-06
3.59796e-05
3.01671e-06
3.42975e-05
4.49318e-06
3.18385e-05
6.22437e-06
2.84396e-05
8.15782e-06
2.39653e-05
1.01576e-05
1.83804e-05
1.1986e-05
1.18521e-05
1.33294e-05
5.01944e-06
1.3856e-05
-1.07418e-06
1.1974e-05
-5.3705e-06
6.69514e-06
-6.79404e-06
-3.10767e-06
-1.79388e-05
-5.93207e-07
5.78653e-06
-5.30894e-08
6.12492e-07
9.41259e-07
-2.53406e-06
2.3011e-06
-4.3045e-06
3.87814e-06
-5.19244e-06
5.56688e-06
-5.55177e-06
7.29608e-06
-5.61457e-06
9.02445e-06
-5.52385e-06
1.07302e-05
-5.3654e-06
1.24037e-05
-5.18804e-06
1.40429e-05
-5.01755e-06
1.56493e-05
-4.86582e-06
1.72266e-05
-4.7366e-06
1.87783e-05
-4.62899e-06
2.03078e-05
-4.53964e-06
2.18175e-05
-4.46403e-06
2.33087e-05
-4.39717e-06
2.47811e-05
-4.33402e-06
2.62333e-05
-4.26958e-06
2.76626e-05
-4.19884e-06
2.90644e-05
-4.11672e-06
3.04328e-05
-4.01786e-06
3.176e-05
-3.89642e-06
3.30361e-05
-3.74583e-06
3.42489e-05
-3.55849e-06
3.53835e-05
-3.32535e-06
3.64215e-05
-3.03544e-06
3.7341e-05
-2.67524e-06
3.81156e-05
-2.22786e-06
3.87149e-05
-1.67203e-06
3.91036e-05
-9.81392e-07
3.92461e-05
-1.22897e-07
3.91068e-05
9.45806e-07
3.86346e-05
2.26809e-06
3.77672e-05
3.88409e-06
3.64341e-05
5.82622e-06
3.45549e-05
8.10364e-06
3.20368e-05
1.06759e-05
2.87791e-05
1.34153e-05
2.47022e-05
1.6063e-05
1.984e-05
1.81916e-05
1.44925e-05
1.92034e-05
9.00318e-06
1.7788e-05
3.85459e-06
1.15913e-05
2.07047e-07
6.72642e-07
-1.77288e-05
4.79691e-07
5.30684e-06
1.2376e-06
-1.45414e-07
2.3785e-06
-3.67496e-06
3.75138e-06
-5.67739e-06
5.2667e-06
-6.70776e-06
6.8598e-06
-7.14487e-06
8.48695e-06
-7.24171e-06
1.01213e-05
-7.15819e-06
1.17475e-05
-6.99159e-06
1.33577e-05
-6.79829e-06
1.4949e-05
-6.60886e-06
1.65212e-05
-6.43796e-06
1.80752e-05
-6.29066e-06
1.96127e-05
-6.16648e-06
2.11349e-05
-6.06184e-06
2.26425e-05
-5.9716e-06
2.41353e-05
-5.88995e-06
2.5612e-05
-5.81081e-06
2.70705e-05
-5.72808e-06
2.85072e-05
-5.63554e-06
2.99173e-05
-5.52679e-06
3.12945e-05
-5.39503e-06
3.26309e-05
-5.23279e-06
3.39167e-05
-5.03163e-06
3.51399e-05
-4.78178e-06
3.62863e-05
-4.47172e-06
3.73385e-05
-4.08763e-06
3.82761e-05
-3.61277e-06
3.9075e-05
-3.02679e-06
3.97079e-05
-2.30493e-06
4.01439e-05
-1.41746e-06
4.03501e-05
-3.2905e-07
4.02926e-05
1.00326e-06
3.99348e-05
2.6259e-06
3.92366e-05
4.58231e-06
3.81563e-05
6.90654e-06
3.66507e-05
9.60924e-06
3.46723e-05
1.26544e-05
3.21639e-05
1.59236e-05
2.90593e-05
1.91676e-05
2.53102e-05
2.19407e-05
2.09787e-05
2.35349e-05
1.60261e-05
2.27409e-05
1.03695e-05
1.76956e-05
4.77488e-06
6.55735e-06
-1.29604e-05
1.01922e-06
4.28762e-06
2.12636e-06
-1.25255e-06
3.43857e-06
-4.98717e-06
4.87089e-06
-7.10971e-06
6.36874e-06
-8.20561e-06
7.903e-06
-8.67913e-06
9.4558e-06
-8.79451e-06
1.10157e-05
-8.71809e-06
1.25753e-05
-8.55123e-06
1.41303e-05
-8.35323e-06
1.56781e-05
-8.15669e-06
1.72177e-05
-7.97756e-06
1.87487e-05
-7.82166e-06
2.02709e-05
-7.6887e-06
2.1784e-05
-7.57495e-06
2.32873e-05
-7.47486e-06
2.47793e-05
-7.38197e-06
2.6258e-05
-7.28945e-06
2.77202e-05
-7.19029e-06
2.91619e-05
-7.07729e-06
3.05781e-05
-6.94291e-06
3.19621e-05
-6.77909e-06
3.33062e-05
-6.57688e-06
3.46008e-05
-6.32618e-06
3.58343e-05
-6.01531e-06
3.69931e-05
-5.63053e-06
3.8061e-05
-5.15559e-06
3.90193e-05
-4.57105e-06
3.98463e-05
-3.8538e-06
4.05178e-05
-2.97642e-06
4.10072e-05
-1.90679e-06
4.12859e-05
-6.07776e-07
4.13253e-05
9.6381e-07
4.10971e-05
2.85416e-06
4.0573e-05
5.10644e-06
3.97258e-05
7.7537e-06
3.85289e-05
1.08061e-05
3.69523e-05
1.4231e-05
3.49542e-05
1.79218e-05
3.24694e-05
2.16523e-05
2.94025e-05
2.50076e-05
2.56472e-05
2.72902e-05
2.10372e-05
2.73509e-05
1.52547e-05
2.35095e-05
8.10639e-06
1.37406e-05
-4.85179e-06
1.25958e-06
3.02804e-06
2.70799e-06
-2.70096e-06
4.21518e-06
-6.49435e-06
5.7259e-06
-8.62043e-06
7.22838e-06
-9.70809e-06
8.7268e-06
-1.01775e-05
1.0226e-05
-1.02937e-05
1.17284e-05
-1.02205e-05
1.32344e-05
-1.00572e-05
1.47432e-05
-9.86203e-06
1.62537e-05
-9.66715e-06
1.77646e-05
-9.48847e-06
1.92747e-05
-9.33175e-06
2.07826e-05
-9.19663e-06
2.22869e-05
-9.07919e-06
2.37855e-05
-8.97351e-06
2.52762e-05
-8.87265e-06
2.67559e-05
-8.7692e-06
2.82211e-05
-8.65544e-06
2.96672e-05
-8.52336e-06
3.10887e-05
-8.3645e-06
3.24793e-05
-8.16968e-06
3.38311e-05
-7.92869e-06
3.51349e-05
-7.62995e-06
3.63797e-05
-7.26009e-06
3.75527e-05
-6.8035e-06
3.86389e-05
-6.24183e-06
3.96213e-05
-5.55347e-06
4.04807e-05
-4.71313e-06
4.11957e-05
-3.69149e-06
4.17438e-05
-2.45492e-06
4.21014e-05
-9.65363e-07
4.22452e-05
8.20018e-07
4.21532e-05
2.94622e-06
4.18045e-05
5.45507e-06
4.118e-05
8.37826e-06
4.02599e-05
1.17262e-05
3.90194e-05
1.54715e-05
3.74181e-05
1.95231e-05
3.53829e-05
2.36874e-05
3.27854e-05
2.76052e-05
2.94188e-05
3.06568e-05
2.49445e-05
3.18253e-05
1.88404e-05
2.96139e-05
1.05238e-05
2.20584e-05
5.66984e-06
1.42523e-06
1.60281e-06
3.13891e-06
-4.41464e-06
4.80477e-06
-8.16022e-06
6.38099e-06
-1.01966e-05
7.89062e-06
-1.12177e-05
9.36383e-06
-1.16507e-05
1.08226e-05
-1.17525e-05
1.228e-05
-1.16779e-05
1.37427e-05
-1.15199e-05
1.52132e-05
-1.13325e-05
1.66918e-05
-1.11458e-05
1.81776e-05
-1.09742e-05
1.96689e-05
-1.0823e-05
2.11636e-05
-1.06913e-05
2.26592e-05
-1.05749e-05
2.41531e-05
-1.04674e-05
2.56421e-05
-1.03616e-05
2.71224e-05
-1.02495e-05
2.85899e-05
-1.0123e-05
3.00399e-05
-9.9733e-06
3.14666e-05
-9.79125e-06
3.28637e-05
-9.56674e-06
3.42235e-05
-9.28846e-06
3.55371e-05
-8.94358e-06
3.67943e-05
-8.51728e-06
3.79831e-05
-7.99238e-06
3.90901e-05
-7.34877e-06
4.00997e-05
-6.56308e-06
4.0995e-05
-5.60841e-06
4.17577e-05
-4.45422e-06
4.2369e-05
-3.06619e-06
4.28098e-05
-1.40619e-06
4.30621e-05
5.67704e-07
4.31093e-05
2.899e-06
4.29363e-05
5.62814e-06
4.25285e-05
8.78605e-06
4.18699e-05
1.23848e-05
4.0937e-05
1.64044e-05
3.96875e-05
2.07725e-05
3.80407e-05
2.53343e-05
3.58447e-05
2.98011e-05
3.28289e-05
3.36726e-05
2.85249e-05
3.61292e-05
2.21977e-05
3.59411e-05
1.29161e-05
3.13401e-05
1.85836e-05
1.60585e-06
-3.0388e-09
3.50743e-06
-6.31622e-06
5.27712e-06
-9.92991e-06
6.89173e-06
-1.18113e-05
8.40039e-06
-1.27264e-05
9.85069e-06
-1.3101e-05
1.12758e-05
-1.31776e-05
1.26959e-05
-1.3098e-05
1.4122e-05
-1.2946e-05
1.55595e-05
-1.277e-05
1.70099e-05
-1.25962e-05
1.84728e-05
-1.24371e-05
1.99463e-05
-1.22966e-05
2.1428e-05
-1.2173e-05
2.29148e-05
-1.20616e-05
2.44032e-05
-1.19558e-05
2.58895e-05
-1.18479e-05
2.73694e-05
-1.17295e-05
2.88384e-05
-1.1592e-05
3.02913e-05
-1.14262e-05
3.17225e-05
-1.12225e-05
3.31256e-05
-1.09698e-05
3.44931e-05
-1.0656e-05
3.58169e-05
-1.02673e-05
3.70871e-05
-9.78755e-06
3.8293e-05
-9.19831e-06
3.94223e-05
-8.47807e-06
4.04613e-05
-7.60205e-06
4.13951e-05
-6.5422e-06
4.22082e-05
-5.26735e-06
4.28853e-05
-3.74326e-06
4.34117e-05
-1.93259e-06
4.37743e-05
2.05095e-07
4.39617e-05
2.71162e-06
4.39635e-05
5.6263e-06
4.37697e-05
8.97992e-06
4.33672e-05
1.27873e-05
4.27349e-05
1.70367e-05
4.18316e-05
2.16758e-05
4.05758e-05
2.659e-05
3.88089e-05
3.15681e-05
3.62306e-05
3.62509e-05
3.22918e-05
4.0068e-05
2.60483e-05
4.21846e-05
1.60621e-05
4.13264e-05
3.46435e-05
1.80385e-06
-1.80689e-06
3.84315e-06
-8.35552e-06
5.6726e-06
-1.17594e-05
7.30118e-06
-1.34398e-05
8.79901e-06
-1.42242e-05
1.02249e-05
-1.4527e-05
1.16187e-05
-1.45713e-05
1.30049e-05
-1.44843e-05
1.43978e-05
-1.4339e-05
1.58047e-05
-1.41769e-05
1.72284e-05
-1.40198e-05
1.86687e-05
-1.38775e-05
2.01241e-05
-1.37519e-05
2.15917e-05
-1.36406e-05
2.30681e-05
-1.3538e-05
2.45494e-05
-1.34371e-05
2.60312e-05
-1.33297e-05
2.75089e-05
-1.32072e-05
2.89776e-05
-1.30606e-05
3.04319e-05
-1.28806e-05
3.18661e-05
-1.26567e-05
3.3274e-05
-1.23776e-05
3.46484e-05
-1.20305e-05
3.59816e-05
-1.16004e-05
3.72646e-05
-1.10706e-05
3.84878e-05
-1.04215e-05
3.96401e-05
-9.63033e-06
4.07093e-05
-8.67134e-06
4.16827e-05
-7.51559e-06
4.25472e-05
-6.13185e-06
4.32907e-05
-4.48674e-06
4.39027e-05
-2.54457e-06
4.43749e-05
-2.67074e-07
4.47009e-05
2.38555e-06
4.48757e-05
5.45154e-06
4.48937e-05
8.96191e-06
4.47466e-05
1.29343e-05
4.44183e-05
1.7365e-05
4.38752e-05
2.2219e-05
4.30475e-05
2.74177e-05
4.17938e-05
3.28218e-05
3.98337e-05
3.8211e-05
3.66215e-05
4.32801e-05
3.10943e-05
4.77119e-05
2.11164e-05
5.13042e-05
5.57579e-05
2.00726e-06
-3.81414e-06
4.15267e-06
-1.05009e-05
6.01522e-06
-1.36219e-05
7.64285e-06
-1.50675e-05
9.12315e-06
-1.57045e-05
1.05224e-05
-1.59262e-05
1.18845e-05
-1.59335e-05
1.32373e-05
-1.5837e-05
1.45973e-05
-1.5699e-05
1.59733e-05
-1.5553e-05
1.73693e-05
-1.54158e-05
1.87858e-05
-1.52939e-05
2.02211e-05
-1.51872e-05
2.16723e-05
-1.50918e-05
2.31358e-05
-1.50015e-05
2.46072e-05
-1.49085e-05
2.60818e-05
-1.48043e-05
2.75545e-05
-1.46799e-05
2.90202e-05
-1.45263e-05
3.04733e-05
-1.43337e-05
3.19081e-05
-1.40915e-05
3.33185e-05
-1.3788e-05
3.46978e-05
-1.34097e-05
3.60386e-05
-1.29413e-05
3.7333e-05
-1.2365e-05
3.85723e-05
-1.16607e-05
3.97467e-05
-1.08048e-05
4.08457e-05
-9.77038e-06
4.18582e-05
-8.52803e-06
4.27731e-05
-7.0468e-06
4.35814e-05
-5.29498e-06
4.42763e-05
-3.23952e-06
4.48544e-05
-8.45223e-07
4.53149e-05
1.92511e-06
4.56581e-05
5.10835e-06
4.58842e-05
8.73574e-06
4.59913e-05
1.28272e-05
4.59717e-05
1.73846e-05
4.58058e-05
2.23849e-05
4.54491e-05
2.77744e-05
4.48059e-05
3.3465e-05
4.36774e-05
3.93395e-05
4.16523e-05
4.53052e-05
3.7805e-05
5.15593e-05
2.90433e-05
6.00659e-05
8.48e-05
4.02083e-29
-5.0211e-29
-2.46087e-30
4.12814e-29
-1.38249e-29
6.5001e-29
-1.15627e-30
7.51365e-30
-6.60008e-32
2.62721e-31
-3.42835e-33
7.79716e-33
-1.14641e-34
1.99289e-34
-1.96188e-34
4.54302e-36
-2.99034e-34
-3.87351e-36
-1.51859e-33
-1.18085e-34
-6.6252e-33
-8.85916e-34
-1.93217e-32
-1.45382e-32
-2.6093e-32
-7.85279e-32
-1.58535e-32
-1.64438e-31
-5.59425e-33
-8.24474e-32
-1.24591e-33
-2.97336e-32
-1.40705e-34
-7.26659e-33
8.499e-37
-1.13112e-33
3.17931e-36
-1.19037e-34
4.98592e-37
-8.85344e-36
7.14903e-38
-5.27665e-37
7.95002e-39
-4.71512e-38
6.31137e-40
-5.35957e-39
2.95546e-41
-3.10365e-40
8.64313e-43
-8.4839e-42
1.79055e-44
-1.21642e-43
2.01207e-46
-5.73201e-46
4.77801e-48
1.9192e-48
1.71767e-49
9.48416e-50
5.03769e-51
4.97448e-51
1.37269e-52
2.08617e-52
3.26176e-54
7.29027e-54
6.51523e-56
2.14928e-55
1.04251e-57
5.30425e-57
1.24925e-59
1.04573e-58
1.01141e-61
1.56188e-60
4.64598e-64
1.60021e-62
9.73082e-67
9.35174e-65
1.46968e-67
2.09253e-67
1.41676e-70
-1.05066e-28
-7.6125e-28
-4.90115e-28
1.78639e-27
-2.32221e-28
1.31097e-27
-3.58677e-29
2.52786e-28
-4.40075e-30
2.12836e-29
-4.01887e-31
1.48188e-30
-2.31655e-32
6.81345e-32
-1.58257e-32
1.92476e-33
-5.55528e-32
-1.52081e-33
-3.50186e-31
-4.08734e-32
-1.04812e-30
-2.52736e-31
-1.76943e-30
-7.4387e-31
-1.68589e-30
-1.26014e-30
-1.19911e-30
-1.44793e-30
-5.40014e-31
-1.08415e-30
-1.49679e-31
-5.61134e-31
-2.34068e-32
-1.97152e-31
-1.33849e-33
-4.68747e-32
1.80243e-34
-7.34739e-33
4.53779e-35
-7.67539e-34
7.84154e-36
-6.35438e-35
9.01097e-37
-5.42234e-36
8.01315e-38
-7.08537e-37
4.18727e-39
-5.06685e-38
1.3258e-40
-1.59242e-39
2.9406e-42
-2.70039e-41
3.99464e-44
-2.1245e-43
5.64012e-46
4.40189e-46
2.54986e-47
3.74016e-47
6.42434e-49
2.17085e-48
1.81753e-50
9.58135e-50
4.57388e-52
3.54135e-51
9.83139e-54
1.11168e-52
1.73426e-55
2.92985e-54
2.37562e-57
6.30928e-56
2.3285e-59
1.06065e-57
1.43355e-61
1.28721e-59
4.3837e-64
9.81815e-62
4.67727e-67
3.55882e-64
3.17851e-67
-1.08293e-26
1.10483e-26
-1.36964e-26
5.03919e-26
-6.09189e-27
3.10432e-26
-1.17627e-27
7.42887e-27
-2.06062e-28
8.52285e-28
-2.79946e-29
8.79772e-29
-2.70174e-30
6.07633e-30
-1.96662e-30
2.50369e-31
-6.35266e-30
-3.2543e-31
-3.34604e-29
-5.86843e-30
-8.83793e-29
-3.09303e-29
-1.40408e-28
-8.12035e-29
-1.20407e-28
-1.29016e-28
-8.40264e-29
-1.37967e-28
-3.71293e-29
-9.93582e-29
-1.04909e-29
-5.02959e-29
-1.77371e-30
-1.76307e-29
-1.38906e-31
-4.26854e-30
5.40395e-33
-6.99158e-31
2.695e-33
-7.72972e-32
4.63699e-34
-6.7299e-33
5.66691e-35
-5.21607e-34
5.4253e-36
-5.59346e-35
3.15958e-37
-4.29352e-36
1.10207e-38
-1.52334e-37
2.65614e-40
-2.97225e-39
4.28531e-42
-3.06592e-41
3.73007e-44
1.03921e-44
1.49304e-45
3.68027e-45
4.22776e-47
1.95319e-46
1.20805e-48
8.83376e-48
3.10244e-50
3.329e-49
6.91809e-52
1.07069e-50
1.29134e-53
2.91856e-52
1.92356e-55
6.59998e-54
2.23677e-57
1.19208e-55
1.85532e-59
1.61662e-57
8.3509e-62
1.47787e-59
1.72094e-64
7.34832e-62
1.17485e-64
-1.94421e-25
5.04903e-25
-2.37557e-25
8.71682e-25
-1.16334e-25
5.50659e-25
-2.83483e-26
1.53507e-25
-7.03741e-27
2.34399e-26
-1.36368e-27
3.51492e-27
-2.07382e-28
3.44869e-28
-1.67077e-28
1.82156e-29
-4.93202e-28
-4.41658e-29
-2.15308e-27
-5.2639e-28
-4.91542e-27
-2.35048e-27
-7.00215e-27
-5.46784e-27
-5.92602e-27
-8.15033e-27
-3.85773e-27
-8.11711e-27
-1.66995e-27
-5.64099e-27
-4.74698e-28
-2.80045e-27
-8.37049e-29
-9.8032e-28
-7.48411e-30
-2.41718e-28
7.70794e-32
-4.12575e-29
1.1985e-31
-4.87149e-30
2.04233e-32
-4.45195e-31
2.58705e-33
-3.22854e-32
2.61413e-34
-3.04708e-33
1.67646e-35
-2.46375e-34
6.47182e-37
-9.76728e-36
1.69899e-38
-2.16338e-37
3.07757e-40
-2.68012e-39
2.31577e-42
-4.37374e-42
7.14395e-44
2.77667e-43
2.2255e-45
1.23906e-44
6.35707e-47
5.75456e-46
1.66005e-48
2.2068e-47
3.816e-50
7.24806e-49
7.45985e-52
2.03513e-50
1.31772e-53
4.798e-52
1.80256e-55
9.2211e-54
1.73871e-57
1.3655e-55
9.89706e-60
1.42621e-57
3.08275e-62
8.84255e-60
2.08941e-62
-2.11842e-24
7.55737e-24
-3.17857e-24
1.12593e-23
-1.83127e-24
8.08465e-24
-5.50043e-25
2.56859e-24
-1.80213e-25
4.95201e-25
-4.7267e-26
9.93215e-26
-1.12926e-26
1.31354e-26
-1.05046e-26
7.47827e-28
-2.87556e-26
-3.57814e-27
-1.04326e-25
-3.40249e-26
-2.05455e-25
-1.28569e-25
-2.59871e-25
-2.6451e-25
-2.15187e-25
-3.68098e-25
-1.32199e-25
-3.43493e-25
-5.58889e-26
-2.30542e-25
-1.58552e-26
-1.12445e-25
-2.85937e-27
-3.93584e-26
-2.7168e-28
-9.88996e-27
8.4692e-31
-1.75687e-27
4.49676e-30
-2.22405e-28
7.46134e-31
-2.13272e-29
9.58578e-32
-1.48772e-30
1.00873e-32
-1.28971e-31
7.03171e-34
-1.08485e-32
3.00495e-35
-4.75469e-34
8.65286e-37
-1.18861e-35
1.7297e-38
-1.71219e-37
1.41701e-40
-6.39762e-40
3.15592e-42
1.40374e-41
1.0747e-43
6.57122e-43
3.00573e-45
3.1492e-44
7.9876e-47
1.23301e-45
1.88742e-48
4.14112e-47
4.3284e-50
1.1962e-48
8.14283e-52
2.9415e-50
1.20549e-53
5.94943e-52
1.29858e-55
9.44838e-54
8.72881e-58
1.09055e-55
3.55329e-60
7.89644e-58
2.49635e-60
-2.06439e-23
7.69616e-23
-3.37636e-23
1.15019e-22
-2.1881e-23
9.29487e-23
-7.50328e-24
3.07274e-23
-3.08961e-24
6.99764e-24
-1.03981e-24
1.77615e-24
-3.61282e-25
2.95712e-25
-3.8921e-25
8.68259e-27
-1.29547e-24
-2.09429e-25
-4.01162e-24
-1.68292e-24
-6.85693e-24
-5.43077e-24
-7.65944e-24
-9.92993e-24
-6.16549e-24
-1.28003e-23
-3.59636e-24
-1.12737e-23
-1.48183e-24
-7.31908e-24
-4.17045e-25
-3.51459e-24
-7.57814e-26
-1.23218e-24
-7.27316e-27
-3.15934e-25
8.9971e-29
-5.84197e-26
1.50998e-28
-7.93375e-27
2.38407e-29
-7.984e-28
3.05708e-30
-5.48158e-29
3.31446e-31
-4.50944e-30
2.4783e-32
-3.90893e-31
1.16778e-33
-1.87244e-32
3.70744e-35
-5.25453e-34
8.17448e-37
-8.6689e-36
8.36671e-39
-4.78061e-38
1.35888e-40
6.0927e-40
4.70209e-42
3.12838e-41
1.34375e-43
1.55548e-42
3.64756e-45
6.25342e-44
9.56765e-47
2.15561e-45
2.32397e-48
6.43817e-47
4.60815e-50
1.6439e-48
7.27968e-52
3.4815e-50
8.52242e-54
5.86119e-52
6.43594e-56
7.30505e-54
3.07318e-58
5.90521e-56
2.23059e-58
-1.51403e-22
5.42065e-22
-2.40311e-22
8.07678e-22
-1.61429e-22
6.72265e-22
-6.69123e-23
2.1912e-22
-3.1226e-23
6.12398e-23
-1.10981e-23
1.73837e-23
-6.90702e-24
3.24899e-24
-1.04104e-23
-1.92173e-25
-4.7545e-23
-1.04153e-23
-1.25337e-22
-6.55908e-23
-1.90373e-22
-1.82931e-22
-1.85772e-22
-3.03061e-22
-1.44658e-22
-3.5707e-22
-8.04493e-23
-2.9969e-22
-3.22639e-23
-1.88738e-22
-8.96074e-24
-8.94795e-23
-1.61659e-24
-3.1493e-23
-1.48078e-25
-8.25443e-24
6.68827e-27
-1.59085e-24
4.60437e-27
-2.31332e-25
6.97898e-28
-2.44379e-26
8.72959e-29
-1.72423e-27
9.59018e-30
-1.38252e-28
7.59434e-31
-1.19594e-29
3.91863e-32
-6.18765e-31
1.37434e-33
-1.93591e-32
3.34684e-35
-3.62442e-34
4.06177e-37
-2.57203e-36
5.56517e-39
2.40239e-38
1.9706e-40
1.3781e-39
5.78983e-42
7.15058e-41
1.61274e-43
2.96963e-42
4.69427e-45
1.05597e-43
1.19038e-46
3.27169e-45
2.47397e-48
8.67842e-47
4.13161e-50
1.91984e-48
5.16452e-52
3.40172e-50
4.23018e-54
4.50912e-52
2.1854e-56
3.93647e-54
1.64185e-56
-1.0204e-21
3.10229e-21
-1.49913e-21
4.79276e-21
-9.55853e-22
3.94979e-21
-3.94539e-22
1.17417e-21
-1.91591e-22
3.49153e-22
-9.10741e-23
1.10394e-22
-9.73632e-23
2.79364e-23
-3.43792e-22
-1.73138e-23
-1.45866e-21
-4.2553e-22
-3.21338e-21
-2.12096e-21
-4.40277e-21
-5.06153e-21
-3.86758e-21
-7.67988e-21
-2.83894e-21
-8.2468e-21
-1.51032e-21
-6.61347e-21
-5.89103e-22
-4.05662e-21
-1.60585e-22
-1.90676e-21
-2.82468e-23
-6.76424e-22
-2.24334e-24
-1.81853e-22
2.95131e-25
-3.66366e-23
1.26323e-25
-5.68707e-24
1.86285e-26
-6.31304e-25
2.26598e-27
-4.69874e-26
2.48903e-28
-3.76821e-27
2.06268e-29
-3.17831e-28
1.15479e-30
-1.75518e-29
4.46531e-32
-6.06336e-31
1.20127e-33
-1.2764e-32
1.67355e-35
-1.08911e-34
2.17701e-37
8.85937e-37
7.96114e-39
5.69779e-38
2.41598e-40
3.09914e-39
7.29949e-42
1.33719e-40
2.2205e-43
4.94423e-42
5.88066e-45
1.59172e-43
1.28064e-46
4.39635e-45
2.24969e-48
1.01565e-46
2.97388e-50
1.88715e-48
2.59682e-52
2.63722e-50
1.40217e-54
2.44377e-52
1.09596e-54
-5.9286e-21
1.33375e-20
-7.26354e-21
2.07991e-20
-3.80661e-21
1.57598e-20
-2.23532e-21
5.04641e-21
-1.88998e-21
2.49772e-21
-1.89358e-21
1.36455e-21
-3.3011e-21
6.0443e-22
-1.14747e-20
-1.78312e-21
-3.84087e-20
-1.55429e-20
-6.95514e-20
-6.37395e-20
-8.22377e-20
-1.2417e-19
-6.98343e-20
-1.70799e-19
-4.71598e-20
-1.62347e-19
-2.40219e-20
-1.23198e-19
-9.10313e-21
-7.30617e-20
-2.41928e-21
-3.40272e-20
-4.0382e-22
-1.22011e-20
-2.15008e-23
-3.37786e-21
9.35701e-24
-7.15965e-22
3.07562e-24
-1.18014e-22
4.44122e-25
-1.37965e-23
5.32693e-26
-1.08631e-24
5.84829e-27
-8.94477e-26
5.02538e-28
-7.4675e-27
3.02181e-29
-4.35093e-28
1.28133e-30
-1.64034e-29
3.80026e-32
-3.84097e-31
5.95636e-34
-3.77172e-33
8.0968e-36
3.09765e-35
3.08103e-37
2.21549e-36
9.71113e-39
1.26698e-37
3.17972e-40
5.70959e-39
1.01126e-41
2.20649e-40
2.80224e-43
7.41309e-42
6.39777e-45
2.13852e-43
1.18025e-46
5.16624e-45
1.6426e-48
1.00565e-46
1.51597e-50
1.47561e-48
8.46178e-53
1.43955e-50
6.8387e-53
-2.28361e-20
8.0434e-20
-3.27989e-20
7.98392e-20
-3.86167e-20
7.59167e-20
-6.72565e-20
8.00948e-20
-1.13671e-19
1.09795e-19
-1.6458e-19
9.91509e-20
-2.27858e-19
4.07814e-20
-3.49221e-19
-1.36734e-19
-8.5888e-19
-4.06293e-19
-1.28861e-18
-1.40934e-18
-1.28871e-18
-2.47948e-18
-1.05118e-18
-3.39424e-18
-6.65351e-19
-2.81905e-18
-3.24319e-19
-2.03335e-18
-1.18933e-19
-1.14446e-18
-3.04343e-20
-5.16601e-19
-4.57563e-21
-1.84537e-19
2.1384e-23
-5.22506e-20
2.3172e-22
-1.17222e-20
6.53292e-23
-2.02379e-21
9.38066e-24
-2.48196e-22
1.15977e-24
-2.05791e-23
1.29145e-25
-1.77896e-24
1.13116e-26
-1.53656e-25
7.14892e-28
-9.3699e-27
3.28096e-29
-3.79019e-28
1.06517e-30
-9.70399e-30
1.84343e-32
-1.04743e-31
2.84e-34
1.02905e-33
1.13185e-35
8.07671e-35
3.72608e-37
4.86393e-36
1.31975e-38
2.29974e-37
4.40629e-40
9.33364e-39
1.28029e-41
3.28704e-40
3.07e-43
9.93867e-42
5.95077e-45
2.51674e-43
8.70925e-47
5.13728e-45
8.46522e-49
7.90822e-47
4.87621e-51
8.09723e-49
4.05964e-51
2.24094e-06
-6.05508e-06
4.5188e-06
-1.27788e-05
6.43885e-06
-1.55419e-05
8.0898e-06
-1.67184e-05
9.57605e-06
-1.71908e-05
1.0971e-05
-1.73212e-05
1.23233e-05
-1.72857e-05
1.36641e-05
-1.71778e-05
1.50125e-05
-1.70474e-05
1.63793e-05
-1.69198e-05
1.77694e-05
-1.68059e-05
1.91837e-05
-1.67082e-05
2.06208e-05
-1.66243e-05
2.20777e-05
-1.65488e-05
2.35504e-05
-1.64742e-05
2.50343e-05
-1.63924e-05
2.65242e-05
-1.62941e-05
2.80145e-05
-1.61702e-05
2.94996e-05
-1.60114e-05
3.09739e-05
-1.58079e-05
3.24315e-05
-1.55491e-05
3.38664e-05
-1.52229e-05
3.52721e-05
-1.48155e-05
3.66419e-05
-1.4311e-05
3.79682e-05
-1.36914e-05
3.92435e-05
-1.2936e-05
4.04593e-05
-1.20206e-05
4.16065e-05
-1.09175e-05
4.26749e-05
-9.59643e-06
4.36551e-05
-8.02704e-06
4.45403e-05
-6.18018e-06
4.53275e-05
-4.02669e-06
4.6018e-05
-1.53572e-06
4.66167e-05
1.32635e-06
4.71307e-05
4.59435e-06
4.75669e-05
8.29959e-06
4.79307e-05
1.24634e-05
4.82252e-05
1.70902e-05
4.84488e-05
2.21613e-05
4.85905e-05
2.76327e-05
4.86201e-05
3.34353e-05
4.84716e-05
3.9488e-05
4.80181e-05
4.57587e-05
4.70734e-05
5.2504e-05
4.59922e-05
6.1147e-05
7.73878e-05
5.34044e-05
2.44436e-06
-8.49944e-06
4.83606e-06
-1.51705e-05
6.80236e-06
-1.75082e-05
8.46575e-06
-1.83818e-05
9.94507e-06
-1.86701e-05
1.13212e-05
-1.86973e-05
1.2648e-05
-1.86125e-05
1.39608e-05
-1.84906e-05
1.52816e-05
-1.83682e-05
1.66228e-05
-1.8261e-05
1.79904e-05
-1.81735e-05
1.93859e-05
-1.81037e-05
2.08079e-05
-1.80463e-05
2.22533e-05
-1.79942e-05
2.3718e-05
-1.7939e-05
2.5197e-05
-1.78714e-05
2.66848e-05
-1.77819e-05
2.81754e-05
-1.76608e-05
2.96629e-05
-1.74989e-05
3.11413e-05
-1.72864e-05
3.2605e-05
-1.70127e-05
3.40479e-05
-1.66658e-05
3.5464e-05
-1.62316e-05
3.68469e-05
-1.56939e-05
3.81901e-05
-1.50345e-05
3.9487e-05
-1.42329e-05
4.07309e-05
-1.32645e-05
4.19139e-05
-1.21006e-05
4.3027e-05
-1.07095e-05
4.40616e-05
-9.06167e-06
4.50127e-05
-7.13128e-06
4.58806e-05
-4.89461e-06
4.66717e-05
-2.32676e-06
4.73972e-05
6.00836e-07
4.80714e-05
3.92017e-06
4.87085e-05
7.66247e-06
4.9322e-05
1.18499e-05
4.99255e-05
1.64867e-05
5.05345e-05
2.15523e-05
5.1169e-05
2.69982e-05
5.18563e-05
3.2748e-05
5.26403e-05
3.87041e-05
5.36225e-05
4.47765e-05
5.51589e-05
5.09675e-05
5.85888e-05
5.77171e-05
6.77077e-05
6.82689e-05
2.62996e-06
-1.11294e-05
5.14792e-06
-1.76884e-05
7.17484e-06
-1.95351e-05
8.85735e-06
-2.00643e-05
1.03299e-05
-2.01426e-05
1.16838e-05
-2.00512e-05
1.29802e-05
-1.9909e-05
1.42598e-05
-1.97702e-05
1.5548e-05
-1.96563e-05
1.6859e-05
-1.9572e-05
1.81996e-05
-1.95141e-05
1.95716e-05
-1.94757e-05
2.09736e-05
-1.94482e-05
2.24025e-05
-1.9423e-05
2.3854e-05
-1.93905e-05
2.5323e-05
-1.93404e-05
2.68035e-05
-1.92623e-05
2.8289e-05
-1.91463e-05
2.97733e-05
-1.89832e-05
3.12504e-05
-1.87634e-05
3.27144e-05
-1.84767e-05
3.41597e-05
-1.8111e-05
3.55804e-05
-1.76524e-05
3.69707e-05
-1.70842e-05
3.83246e-05
-1.63884e-05
3.96371e-05
-1.55453e-05
4.09034e-05
-1.45308e-05
4.21173e-05
-1.33145e-05
4.32704e-05
-1.18626e-05
4.43543e-05
-1.01456e-05
4.53649e-05
-8.14183e-06
4.63052e-05
-5.83488e-06
4.71862e-05
-3.20783e-06
4.80262e-05
-2.39124e-07
4.8847e-05
3.09941e-06
4.96704e-05
6.839e-06
5.05173e-05
1.1003e-05
5.14091e-05
1.55949e-05
5.23727e-05
2.05887e-05
5.34469e-05
2.59241e-05
5.4689e-05
3.15059e-05
5.61867e-05
3.72063e-05
5.80898e-05
4.28735e-05
6.06976e-05
4.83597e-05
6.47383e-05
5.36765e-05
5.95317e-05
7.29143e-05
2.79943e-06
-1.39288e-05
5.47009e-06
-2.03588e-05
7.57511e-06
-2.16399e-05
9.28054e-06
-2.17695e-05
1.07432e-05
-2.16051e-05
1.20697e-05
-2.13775e-05
1.33306e-05
-2.11697e-05
1.45725e-05
-2.1012e-05
1.58242e-05
-2.09078e-05
1.71014e-05
-2.0849e-05
1.84115e-05
-2.0824e-05
1.97562e-05
-2.08201e-05
2.1134e-05
-2.08257e-05
2.25416e-05
-2.08304e-05
2.39749e-05
-2.08234e-05
2.54284e-05
-2.07936e-05
2.68959e-05
-2.07295e-05
2.83704e-05
-2.06206e-05
2.98453e-05
-2.04577e-05
3.13144e-05
-2.02322e-05
3.2772e-05
-1.99339e-05
3.42125e-05
-1.95513e-05
3.56307e-05
-1.90702e-05
3.70207e-05
-1.84739e-05
3.83771e-05
-1.77445e-05
3.96966e-05
-1.68646e-05
4.09769e-05
-1.5811e-05
4.22141e-05
-1.45515e-05
4.34004e-05
-1.30487e-05
4.45266e-05
-1.12716e-05
4.55886e-05
-9.20369e-06
4.65912e-05
-6.83739e-06
4.75497e-05
-4.16628e-06
4.84889e-05
-1.17821e-06
4.94384e-05
2.14985e-06
5.04279e-05
5.84952e-06
5.14839e-05
9.94701e-06
5.26321e-05
1.44466e-05
5.39041e-05
1.93168e-05
5.53446e-05
2.44836e-05
5.70179e-05
2.98325e-05
5.90131e-05
3.52111e-05
6.14522e-05
4.04344e-05
6.45172e-05
4.52947e-05
6.85908e-05
4.96029e-05
5.32982e-05
7.48243e-05
2.96262e-06
-1.68908e-05
5.82619e-06
-2.32197e-05
8.01578e-06
-2.38268e-05
9.73448e-06
-2.34862e-05
1.11775e-05
-2.30466e-05
1.24703e-05
-2.26689e-05
1.36922e-05
-2.23903e-05
1.4895e-05
-2.22132e-05
1.61095e-05
-2.21208e-05
1.73523e-05
-2.209e-05
1.86306e-05
-2.21005e-05
1.9946e-05
-2.21334e-05
2.12964e-05
-2.2174e-05
2.26788e-05
-2.22103e-05
2.40888e-05
-2.22309e-05
2.55214e-05
-2.22235e-05
2.69697e-05
-2.21751e-05
2.84265e-05
-2.20746e-05
2.98848e-05
-2.19132e-05
3.13382e-05
-2.16829e-05
3.27812e-05
-2.13742e-05
3.42085e-05
-2.0976e-05
3.56154e-05
-2.04746e-05
3.6996e-05
-1.98523e-05
3.83449e-05
-1.90914e-05
3.96604e-05
-1.81785e-05
4.09435e-05
-1.70925e-05
4.21937e-05
-1.58e-05
4.34042e-05
-1.42574e-05
4.45647e-05
-1.24305e-05
4.567e-05
-1.03075e-05
4.67255e-05
-7.89182e-06
4.77494e-05
-5.18945e-06
4.87722e-05
-2.20058e-06
4.98317e-05
1.09061e-06
5.0964e-05
4.71717e-06
5.22001e-05
8.71095e-06
5.35667e-05
1.308e-05
5.50938e-05
1.77897e-05
5.68235e-05
2.27539e-05
5.88149e-05
2.78411e-05
6.11434e-05
3.28826e-05
6.38963e-05
3.76815e-05
6.71778e-05
4.20132e-05
7.11463e-05
4.56344e-05
4.83519e-05
7.60926e-05
3.15153e-06
-2.00353e-05
6.24861e-06
-2.62932e-05
8.48133e-06
-2.60376e-05
1.0174e-05
-2.51626e-05
1.15792e-05
-2.44392e-05
1.28342e-05
-2.39125e-05
1.40186e-05
-2.35633e-05
1.51856e-05
-2.3368e-05
1.63663e-05
-2.32881e-05
1.75761e-05
-2.32851e-05
1.88224e-05
-2.33308e-05
2.0106e-05
-2.33995e-05
2.14245e-05
-2.34735e-05
2.2775e-05
-2.35407e-05
2.41539e-05
-2.35883e-05
2.55562e-05
-2.36034e-05
2.69751e-05
-2.35709e-05
2.84028e-05
-2.34787e-05
2.98325e-05
-2.3319e-05
3.12583e-05
-2.30849e-05
3.26746e-05
-2.2767e-05
3.40771e-05
-2.23558e-05
3.54624e-05
-2.18383e-05
3.68244e-05
-2.11944e-05
3.81563e-05
-2.04054e-05
3.94595e-05
-1.94661e-05
4.07381e-05
-1.83582e-05
4.19944e-05
-1.70428e-05
4.32244e-05
-1.54728e-05
4.44171e-05
-1.36082e-05
4.5565e-05
-1.14429e-05
4.66738e-05
-8.99027e-06
4.77617e-05
-6.26915e-06
4.88619e-05
-3.29471e-06
5.00184e-05
-6.18902e-08
5.12743e-05
3.46256e-06
5.26618e-05
7.3235e-06
5.42075e-05
1.15343e-05
5.59353e-05
1.60619e-05
5.78803e-05
2.08089e-05
6.00913e-05
2.56302e-05
6.26271e-05
3.03469e-05
6.55427e-05
3.47658e-05
6.88819e-05
3.86739e-05
7.26645e-05
4.18518e-05
4.41403e-05
7.68761e-05
3.53698e-06
-2.34994e-05
6.73508e-06
-2.93084e-05
8.81971e-06
-2.79584e-05
1.04112e-05
-2.66332e-05
1.17591e-05
-2.56911e-05
1.29791e-05
-2.50436e-05
1.41243e-05
-2.4617e-05
1.52511e-05
-2.43958e-05
1.63873e-05
-2.43152e-05
1.75455e-05
-2.4323e-05
1.87353e-05
-2.43887e-05
1.99561e-05
-2.44769e-05
2.12064e-05
-2.45691e-05
2.24857e-05
-2.46548e-05
2.37913e-05
-2.47193e-05
2.51198e-05
-2.47496e-05
2.64627e-05
-2.47257e-05
2.7812e-05
-2.46357e-05
2.91634e-05
-2.44751e-05
3.05143e-05
-2.42394e-05
3.18611e-05
-2.39189e-05
3.31996e-05
-2.35024e-05
3.4536e-05
-2.29896e-05
3.58625e-05
-2.23461e-05
3.71666e-05
-2.15479e-05
3.84699e-05
-2.06224e-05
3.97851e-05
-1.9544e-05
4.11111e-05
-1.82534e-05
4.24228e-05
-1.66658e-05
4.37072e-05
-1.47804e-05
4.49565e-05
-1.25958e-05
4.61894e-05
-1.01319e-05
4.74218e-05
-7.41307e-06
4.86726e-05
-4.46654e-06
4.99703e-05
-1.30429e-06
5.13646e-05
2.08936e-06
5.28899e-05
5.79796e-06
5.45779e-05
9.84618e-06
5.64546e-05
1.41853e-05
5.85478e-05
1.87156e-05
6.08944e-05
2.32836e-05
6.35399e-05
2.77014e-05
6.65129e-05
3.17928e-05
6.9817e-05
3.53698e-05
7.34103e-05
3.82585e-05
4.03518e-05
7.71988e-05
4.46708e-06
-2.00075e-05
6.20897e-06
-1.69576e-05
7.83215e-06
-1.68552e-05
9.42117e-06
-1.86307e-05
1.06246e-05
-1.89223e-05
1.16551e-05
-1.8094e-05
1.24237e-05
-1.67695e-05
1.31143e-05
-1.54829e-05
1.37479e-05
-1.43331e-05
1.43304e-05
-1.32946e-05
1.49083e-05
-1.24333e-05
1.54582e-05
-1.16588e-05
1.59974e-05
-1.09445e-05
1.65609e-05
-1.03423e-05
1.71518e-05
-9.82673e-06
1.77699e-05
-9.40552e-06
1.83607e-05
-9.00298e-06
1.89072e-05
-8.58015e-06
1.94401e-05
-8.14642e-06
1.99985e-05
-7.73947e-06
2.05989e-05