/*--------------------------------*- C++ -*----------------------------------*\
  =========                 |
  \\      /  F ield         | OpenFOAM: The Open Source CFD Toolbox
   \\    /   O peration     | Website:  https://openfoam.org
    \\  /    A nd           | Version:  9
     \\/     M anipulation  |
\*---------------------------------------------------------------------------*/
FoamFile
{
    format      ascii;
    class       volScalarField;
    location    "0.4";
    object      p;
}
// * * * * * * * * * * * * * * * * * * * * * * * * * * * * * * * * * * * * * //

dimensions      [1 -1 -2 0 0 0 0];

internalField   nonuniform List<scalar> 
7700
(
888.219
887.191
889.478
894.325
900.427
906.65
912.418
917.57
922.091
926.051
929.544
932.667
935.508
938.146
940.651
943.087
945.51
947.977
950.543
953.265
956.206
959.436
963.036
967.101
971.748
977.116
983.376
990.737
999.46
1009.88
1022.45
1037.68
1055.98
1077.63
1102.97
1132.16
1164.89
1200.06
1235.68
1268.98
1297.12
1318.03
1327.28
1332.5
1352
1377.01
840.112
838.312
839.878
844.104
849.394
854.91
860.175
864.986
869.285
873.093
876.473
879.499
882.247
884.792
887.204
889.548
891.885
894.276
896.781
899.466
902.398
905.655
909.326
913.514
918.345
923.971
930.573
938.372
947.636
958.69
971.893
987.729
1006.83
1029.58
1056.38
1087.47
1122.58
1160.68
1199.58
1235.94
1265.83
1286.06
1289.4
1281.19
1285.02
1318.92
791.196
790.206
791.836
795.019
799.138
803.598
807.992
812.105
815.843
819.191
822.178
824.856
827.289
829.545
831.69
833.79
835.909
838.111
840.465
843.039
845.911
849.166
852.901
857.229
862.287
868.235
875.267
883.616
893.559
905.423
919.575
936.467
956.65
980.597
1008.66
1040.98
1077.27
1116.52
1156.66
1194.33
1225.24
1245.6
1250.13
1241.66
1236.09
1275.13
742.239
742.453
744.111
746.666
749.901
753.436
756.958
760.289
763.34
766.082
768.53
770.722
772.71
774.557
776.327
778.084
779.894
781.823
783.944
786.332
789.071
792.251
795.976
800.368
805.567
811.744
819.097
827.863
838.32
850.79
865.629
883.231
904.072
928.609
957.137
989.708
1025.96
1064.89
1104.6
1142.15
1173.76
1195.97
1205.9
1205.44
1210.1
1249.3
693.27
694.528
696.279
698.438
701.035
703.826
706.59
709.199
711.583
713.719
715.615
717.3
718.82
720.233
721.601
722.987
724.457
726.079
727.926
730.081
732.63
735.669
739.305
743.665
748.892
755.159
762.666
771.648
782.375
795.153
810.32
828.226
849.275
873.853
902.197
934.289
969.746
1007.64
1046.36
1083.52
1116.11
1141.3
1157.25
1167.45
1188.3
1238.86
644.006
646.07
648.013
649.932
652.037
654.207
656.307
658.258
660.02
661.579
662.942
664.135
665.199
666.186
667.156
668.173
669.3
670.607
672.169
674.068
676.396
679.249
682.739
686.992
692.153
698.393
705.91
714.929
725.71
738.54
753.73
771.594
792.468
816.675
844.392
875.557
909.789
946.284
983.72
1020.25
1053.6
1081.6
1103.3
1124.3
1164.69
1231.28
594.443
597.097
599.274
601.023
602.712
604.335
605.833
607.177
608.352
609.358
610.208
610.924
611.544
612.116
612.699
613.353
614.143
615.136
616.409
618.043
620.13
622.77
626.071
630.161
635.182
641.301
648.707
657.618
668.274
680.942
695.903
713.439
733.829
757.337
784.098
814.015
846.724
881.524
917.33
952.701
985.963
1015.62
1041.68
1071.64
1130.26
1213.67
544.639
547.757
550.134
551.711
553.009
554.123
555.057
555.827
556.44
556.91
557.257
557.506
557.69
557.854
558.055
558.353
558.809
559.491
560.472
561.834
563.668
566.071
569.152
573.033
577.854
583.774
590.973
599.652
610.033
622.36
636.887
653.863
673.519
696.074
721.629
750.062
781.012
813.839
847.601
881.096
913.011
942.305
969.652
1003.77
1075.58
1170.6
494.509
498.129
500.656
502.035
502.94
503.558
503.949
504.161
504.223
504.163
504.009
503.789
503.536
503.292
503.112
503.053
503.175
503.543
504.229
505.311
506.878
509.025
511.858
515.495
520.067
525.724
532.635
540.983
550.968
562.808
576.732
592.964
611.697
633.11
657.282
684.067
713.085
743.7
774.997
805.815
834.874
861.076
884.805
914.34
989.082
1074.27
444.282
448.293
450.895
452.042
452.546
452.671
452.524
452.181
451.693
451.097
450.432
449.731
449.029
448.367
447.797
447.375
447.156
447.203
447.584
448.375
449.662
451.536
454.097
457.457
461.74
467.083
473.642
481.58
491.072
502.309
515.497
530.84
548.508
568.651
591.33
616.376
643.368
671.613
700.112
727.544
752.292
772.49
786.792
799.42
851.367
872.042
7.32441
7.32073
7.31686
7.31179
7.30664
7.3022
7.29773
7.29392
7.29078
7.28813
7.28567
7.28304
7.27992
7.27604
7.27122
7.2653
7.25819
7.24986
7.24033
7.2297
7.2181
7.20572
7.19278
7.17946
7.16585
7.15264
7.13999
7.12765
7.11596
7.10509
7.09512
7.08614
7.07823
7.07137
7.06557
7.06083
7.05716
7.05457
7.05302
7.05242
7.2785
7.27539
7.27258
7.2686
7.26314
7.25702
7.25132
7.24659
7.24273
7.23946
7.23641
7.23327
7.22976
7.22561
7.22063
7.21465
7.20758
7.19938
7.19006
7.17972
7.16847
7.1565
7.14395
7.13103
7.11824
7.10536
7.09257
7.08037
7.06884
7.05811
7.04831
7.03949
7.03166
7.02484
7.019
7.01415
7.01029
7.00748
7.00573
7.00518
7.23368
7.22935
7.22664
7.2224
7.21687
7.2105
7.20438
7.19907
7.19455
7.1906
7.18692
7.18323
7.17927
7.17479
7.16959
7.16351
7.15645
7.14836
7.13925
7.12919
7.11828
7.10667
7.09454
7.08207
7.06955
7.05703
7.04462
7.03266
7.02129
7.01066
7.0009
6.99208
6.98424
6.97737
6.97146
6.9665
6.96249
6.95953
6.95769
6.95734
7.18972
7.18319
7.17897
7.17445
7.16879
7.16254
7.15648
7.15105
7.14629
7.142
7.13795
7.13391
7.12965
7.12492
7.11956
7.11339
7.10631
7.09827
7.08926
7.07935
7.06863
7.05724
7.04535
7.03314
7.02083
7.00854
6.9964
6.98461
6.97335
6.96276
6.95296
6.94406
6.93611
6.92911
6.92307
6.91796
6.91381
6.91073
6.90893
6.90868
7.14533
7.13644
7.13014
7.12513
7.11953
7.11362
7.10791
7.10271
7.09803
7.09373
7.0896
7.08545
7.08106
7.07622
7.07076
7.06453
7.05743
7.0494
7.04043
7.03058
7.01991
7.00857
6.99673
6.98457
6.9723
6.96006
6.94799
6.93628
6.92504
6.91442
6.90453
6.89548
6.88733
6.88013
6.87387
6.86858
6.86429
6.86117
6.85948
6.85935
7.09931
7.08822
7.07994
7.07465
7.0694
7.06407
7.05894
7.05418
7.04983
7.04573
7.04173
7.03764
7.03326
7.02841
7.02292
7.01667
7.00956
7.00153
6.99257
6.98272
6.97204
6.96063
6.94869
6.9364
6.92398
6.91161
6.89945
6.88767
6.87639
6.86569
6.85566
6.8464
6.83796
6.83043
6.82386
6.81832
6.81391
6.81081
6.80932
6.80938
7.04996
7.03757
7.02792
7.02307
7.01856
7.01409
7.00973
7.00559
7.00169
6.99794
6.99421
6.99032
6.98607
6.98131
6.97587
6.96963
6.96253
6.95449
6.94551
6.93561
6.92484
6.91329
6.90115
6.88862
6.87592
6.86326
6.85086
6.83888
6.82744
6.81658
6.80636
6.7968
6.78798
6.78001
6.77302
6.76717
6.76264
6.75962
6.75836
6.75859
6.99428
6.98344
6.97378
6.97046
6.96723
6.96388
6.96045
6.95701
6.95366
6.95034
6.94697
6.94339
6.9394
6.93482
6.92951
6.92335
6.91627
6.90821
6.89915
6.88913
6.8782
6.86645
6.85405
6.84121
6.82815
6.81511
6.80232
6.78998
6.77823
6.76709
6.75655
6.74661
6.73732
6.72881
6.72131
6.71511
6.71045
6.70755
6.70653
6.70695
6.92484
6.92457
6.91793
6.91737
6.91581
6.91379
6.91134
6.90861
6.9058
6.90295
6.9
6.89681
6.89317
6.88889
6.8838
6.87778
6.87075
6.86265
6.85347
6.84326
6.83208
6.82005
6.80734
6.79415
6.78069
6.76719
6.7539
6.74105
6.72879
6.71716
6.70615
6.69571
6.68585
6.67675
6.66871
6.66213
6.65735
6.65455
6.65378
6.65439
6.82734
6.85837
6.86274
6.86516
6.86505
6.86435
6.8628
6.8606
6.85825
6.85582
6.8533
6.85055
6.84734
6.84344
6.83866
6.83285
6.82593
6.81782
6.8085
6.79805
6.78654
6.77413
6.76102
6.7474
6.73349
6.71949
6.70561
6.69209
6.67911
6.66676
6.65505
6.64395
6.63346
6.62374
6.61517
6.60822
6.60331
6.60062
6.60007
6.60085
393.435
397.815
400.439
401.333
401.427
401.052
400.357
399.447
398.389
397.236
396.037
394.831
393.655
392.553
391.574
390.77
390.195
389.906
389.967
390.452
391.441
393.022
395.289
398.345
402.302
407.29
413.446
420.912
429.833
440.368
452.702
467.03
483.517
502.295
523.414
546.689
571.638
597.469
623.019
646.673
666.215
678.498
679.194
663.006
632.379
437.439
341.769
346.48
349.074
349.703
349.384
348.498
347.233
345.726
344.065
342.321
340.552
338.805
337.122
335.547
334.132
332.923
331.97
331.325
331.046
331.205
331.878
333.146
335.099
337.825
341.427
346.023
351.738
358.687
366.976
376.725
388.098
401.292
416.492
433.835
453.38
474.928
497.935
521.489
544.247
564.324
579.041
584.441
574.421
538.246
461.842
311.395
289.546
294.522
297.033
297.397
296.672
295.264
293.401
291.26
288.958
286.583
284.207
281.883
279.657
277.579
275.699
274.063
272.712
271.691
271.055
270.87
271.209
272.148
273.769
276.147
279.369
283.547
288.797
295.205
302.822
311.713
322.022
333.965
347.775
363.636
381.641
401.601
422.912
444.55
465.022
482.302
493.603
495.036
481.139
444.109
375.906
293.618
236.839
241.958
244.336
244.462
243.358
241.421
238.928
236.109
233.119
230.069
227.043
224.099
221.289
218.67
216.293
214.202
212.429
211.008
209.989
209.437
209.421
210.014
211.289
213.305
216.128
219.873
224.658
230.537
237.478
245.462
254.606
265.171
277.478
291.815
308.349
326.915
346.882
367.123
386.016
401.517
410.988
411.041
397.496
365.748
311.614
248.102
183.805
188.726
190.937
190.893
189.441
186.945
183.752
180.169
176.401
172.579
168.804
165.14
161.643
158.383
155.42
152.797
150.531
148.639
147.17
146.192
145.774
145.989
146.91
148.565
150.985
154.318
158.715
164.195
170.578
177.682
185.593
194.663
205.38
218.229
233.51
251.03
270.137
289.608
307.7
322.444
331.456
331.917
320.587
294.344
250.517
195.31
130.362
134.661
136.59
136.308
134.418
131.237
127.197
122.703
118.014
113.277
108.614
104.086
99.7554
95.7201
92.0573
88.815
85.9804
83.5423
81.5482
80.0836
79.2214
79.0391
79.6208
80.9304
82.9262
85.8489
89.9615
95.2552
101.266
107.491
113.965
121.221
130.063
141.42
155.956
173.278
192.539
212.261
230.449
245.372
255.035
257.239
249.436
229.418
195.856
152.667
76.7084
80.2128
81.2493
80.431
78.0069
74.1727
69.4319
64.3155
59.1078
53.9315
48.9229
44.1138
39.5571
35.3734
31.6436
28.403
25.5874
23.1431
21.1125
19.5847
18.6103
18.2502
18.5882
19.4924
20.8102
22.8756
26.1088
30.5409
35.4174
39.8253
43.6896
47.6609
52.8396
60.9051
73.7239
91.441
112.33
134.219
154.121
170.427
181.677
186.603
183.263
170.104
146.607
115.52
28.4624
29.8834
29.6966
28.7075
26.6785
23.5259
19.8539
16.2445
12.8718
9.73819
6.90719
4.34439
2.0493
0.0788153
-1.55387
-2.86859
-3.93078
-4.78691
-5.42447
-5.82734
-6.01921
-6.01298
-5.80481
-5.49807
-5.19878
-4.8248
-4.14025
-3.00532
-1.75629
-1.10471
-1.31702
-2.25424
-3.58984
-4.00595
0.0274144
11.104
29.6075
53.354
76.6351
96.4035
110.7
119.421
121.146
114.904
100.511
79.8546
4.00451
2.22074
2.64439
2.72602
2.3817
1.56366
0.605475
-0.221979
-0.890398
-1.42844
-1.84189
-2.15852
-2.38949
-2.54146
-2.62773
-2.67017
-2.67726
-2.65274
-2.59804
-2.52652
-2.45247
-2.38618
-2.35691
-2.36535
-2.37568
-2.44888
-2.60391
-2.8163
-3.03704
-3.37488
-4.00067
-5.13798
-7.19388
-10.9593
-17.7153
-27.6024
-30.6236
-20.6235
-2.15687
20.1936
38.9968
53.6369
61.712
62.6672
56.6566
45.0864
-1.85225
-1.47075
-1.53532
-1.6506
-1.63169
-1.61781
-1.61132
-1.60704
-1.60547
-1.60724
-1.61156
-1.61839
-1.62723
-1.63637
-1.64463
-1.65226
-1.66024
-1.66898
-1.67724
-1.68452
-1.6915
-1.69857
-1.70905
-1.72722
-1.74998
-1.77864
-1.81432
-1.85631
-1.9102
-1.98173
-2.06783
-2.16675
-2.27347
-2.40565
-3.10381
-8.40207
-20.857
-38.4096
-52.9251
-48.3618
-34.1708
-14.5595
1.48476
11.2114
14.0862
11.1486
-1.70348
-1.65474
-1.64141
-1.63309
-1.60971
-1.58883
-1.57293
-1.56036
-1.55063
-1.54368
-1.53947
-1.53803
-1.53913
-1.54231
-1.54737
-1.55437
-1.56358
-1.57537
-1.58973
-1.60629
-1.62468
-1.64439
-1.66474
-1.68741
-1.71393
-1.74124
-1.76905
-1.80265
-1.84618
-1.89727
-1.95121
-2.00393
-2.04778
-2.0774
-2.18915
-2.50665
-3.23341
-7.79991
-25.6257
-50.7045
-72.9382
-72.2993
-58.7744
-42.4813
-29.9425
-23.3102
-1.75493
-1.73016
-1.71016
-1.69718
-1.68231
-1.66697
-1.65398
-1.64382
-1.63644
-1.63184
-1.62997
-1.6307
-1.63382
-1.63905
-1.6462
-1.65528
-1.66636
-1.67949
-1.69465
-1.71166
-1.73036
-1.75066
-1.77249
-1.79666
-1.82415
-1.85412
-1.88614
-1.92235
-1.96526
-2.01416
-2.0665
-2.11883
-2.16614
-2.1973
-2.21452
-2.24441
-2.38316
-2.78204
-3.70939
-9.38126
-28.8368
-56.6377
-78.8757
-82.72
-72.4974
-59.8047
-1.79645
-1.78475
-1.77166
-1.75978
-1.74792
-1.73594
-1.7255
-1.71738
-1.71182
-1.70894
-1.7087
-1.71094
-1.71542
-1.7219
-1.73024
-1.74039
-1.7524
-1.76625
-1.78192
-1.79932
-1.81845
-1.83942
-1.86248
-1.88815
-1.91696
-1.94891
-1.98404
-2.02322
-2.06767
-2.11722
-2.17043
-2.2253
-2.27874
-2.32693
-2.36919
-2.40627
-2.44303
-2.47265
-2.66087
-3.2445
-4.28114
-10.6652
-27.3683
-53.751
-74.132
-81.1224
-1.85155
-1.84267
-1.83175
-1.82028
-1.80924
-1.79877
-1.78978
-1.78289
-1.77842
-1.77649
-1.7771
-1.7801
-1.78532
-1.79253
-1.80163
-1.81256
-1.82535
-1.84001
-1.85652
-1.87488
-1.89515
-1.91747
-1.94212
-1.96949
-1.99995
-2.03369
-2.07091
-2.11212
-2.1579
-2.20807
-2.26172
-2.31757
-2.37429
-2.43066
-2.48882
-2.54983
-2.61138
-2.66169
-2.71388
-2.78764
-2.97761
-3.50074
-4.56131
-9.93028
-22.4372
-43.7063
-1.91341
-1.90425
-1.89333
-1.88201
-1.87165
-1.86237
-1.85465
-1.84895
-1.84556
-1.84457
-1.84601
-1.84977
-1.8557
-1.86367
-1.87356
-1.88534
-1.899
-1.91456
-1.93204
-1.95148
-1.97299
-1.99673
-2.02297
-2.05205
-2.08426
-2.11985
-2.15903
-2.20209
-2.24928
-2.30042
-2.35492
-2.412
-2.47092
-2.53154
-2.59517
-2.66354
-2.73748
-2.81526
-2.89477
-2.96792
-3.03151
-3.1141
-3.31632
-3.74219
-4.77894
-8.45702
-1.9777
-1.96783
-1.9567
-1.94573
-1.93621
-1.92812
-1.92168
-1.91722
-1.91496
-1.91501
-1.91737
-1.92197
-1.92872
-1.93751
-1.94826
-1.96093
-1.97552
-1.99205
-2.01055
-2.03112
-2.05388
-2.07904
-2.10684
-2.13758
-2.17154
-2.20895
-2.25001
-2.29487
-2.34361
-2.39607
-2.45184
-2.51043
-2.57144
-2.6348
-2.70136
-2.77235
-2.84906
-2.93235
-3.02431
-3.12256
-3.21462
-3.29712
-3.37653
-3.44832
-3.65813
-4.02513
-2.04386
-2.03306
-2.02193
-2.0116
-2.00302
-1.99609
-1.99089
-1.98764
-1.9865
-1.98756
-1.99084
-1.9963
-2.00386
-2.01347
-2.02506
-2.03861
-2.05412
-2.07162
-2.09117
-2.11288
-2.13692
-2.16348
-2.19281
-2.22519
-2.26087
-2.30009
-2.34299
-2.38963
-2.44001
-2.49397
-2.55122
-2.6114
-2.67425
-2.73979
-2.80848
-2.88118
-2.95879
-3.0424
-3.13369
-3.23273
-3.33596
-3.44288
-3.54705
-3.63162
-3.72482
-3.80624
-2.11131
-2.10002
-2.08923
-2.07974
-2.07213
-2.06631
-2.06226
-2.06012
-2.06002
-2.06203
-2.06617
-2.07243
-2.08078
-2.09116
-2.10354
-2.11792
-2.1343
-2.15274
-2.17332
-2.19617
-2.22146
-2.2494
-2.28024
-2.31422
-2.35161
-2.39259
-2.43729
-2.48571
-2.53778
-2.59333
-2.6521
-2.71381
-2.77825
-2.84543
-2.91565
-2.98951
-3.06769
-3.15096
-3.24026
-3.33587
-3.43695
-3.54442
-3.65626
-3.76659
-3.87828
-3.96943
-2.18
-2.1688
-2.15875
-2.15022
-2.14359
-2.13879
-2.13578
-2.13464
-2.13548
-2.13835
-2.14328
-2.15029
-2.15935
-2.17044
-2.18356
-2.1987
-2.2159
-2.23524
-2.2568
-2.28073
-2.30724
-2.33652
-2.36881
-2.40435
-2.44335
-2.48603
-2.53245
-2.58259
-2.63631
-2.69342
-2.75366
-2.81676
-2.88253
-2.95093
-3.02215
-3.09665
-3.17497
-3.25776
-3.34555
-3.43855
-3.5365
-3.63977
-3.74776
-3.85909
-3.97469
-4.08627
-2.24998
-2.23945
-2.23047
-2.223
-2.21732
-2.21346
-2.21138
-2.21114
-2.2128
-2.21644
-2.2221
-2.22978
-2.23949
-2.25124
-2.26502
-2.28087
-2.29882
-2.31898
-2.34145
-2.36641
-2.39406
-2.42462
-2.45829
-2.4953
-2.53584
-2.58008
-2.62808
-2.67979
-2.73504
-2.79358
-2.85515
-2.91945
-2.98627
-3.05553
-3.12735
-3.20207
-3.28017
-3.36219
-3.44859
-3.53957
-3.635
-3.73487
-3.83874
-3.94598
-4.05649
-4.16813
-2.32132
-2.31194
-2.30421
-2.29783
-2.29308
-2.29008
-2.28882
-2.28936
-2.29177
-2.2961
-2.3024
-2.31069
-2.32099
-2.33333
-2.34771
-2.36419
-2.38284
-2.40374
-2.42706
-2.45297
-2.48168
-2.51342
-2.5484
-2.5868
-2.62877
-2.67444
-2.72387
-2.77695
-2.83351
-2.89327
-2.95593
-3.02117
-3.08876
-3.15855
-3.23062
-3.30525
-3.38285
-3.46391
-3.54885
-3.63789
-3.73106
-3.82822
-3.92889
-4.03249
-4.13865
-4.24636
-2.39405
-2.38614
-2.37968
-2.37436
-2.37048
-2.36825
-2.36772
-2.36895
-2.37201
-2.37696
-2.38383
-2.39267
-2.40351
-2.41637
-2.4313
-2.44835
-2.46762
-2.48922
-2.51331
-2.54008
-2.56976
-2.60258
-2.63875
-2.67842
-2.72171
-2.76871
-2.8194
-2.87369
-2.93134
-2.99206
-3.05553
-3.12142
-3.18945
-3.25946
-3.33148
-3.40574
-3.48261
-3.56256
-3.64597
-3.73312
-3.82411
-3.91882
-4.01682
-4.11754
-4.22051
-4.3251
-2.46812
-2.46182
-2.45651
-2.45215
-2.44907
-2.44754
-2.44766
-2.44951
-2.45316
-2.45866
-2.46605
-2.47539
-2.48669
-2.50003
-2.51544
-2.53301
-2.55285
-2.57508
-2.59986
-2.62741
-2.65795
-2.69172
-2.72893
-2.76973
-2.8142
-2.86237
-2.9142
-2.96951
-3.02806
-3.08952
-3.15354
-3.21978
-3.28796
-3.3579
-3.4296
-3.50325
-3.57921
-3.65792
-3.73977
-3.82508
-3.91402
-4.00652
-4.10225
-4.20069
-4.30132
-4.40361
-2.54336
-2.53865
-2.53432
-2.53081
-2.52846
-2.52757
-2.52829
-2.53071
-2.5349
-2.5409
-2.54877
-2.55855
-2.57028
-2.58403
-2.59988
-2.61791
-2.63825
-2.66104
-2.68645
-2.71469
-2.74597
-2.78054
-2.81862
-2.86035
-2.9058
-2.95496
-3.00773
-3.0639
-3.12317
-3.18518
-3.24955
-3.31592
-3.384
-3.45363
-3.52479
-3.59766
-3.67257
-3.74996
-3.83027
-3.91385
-4.00092
-4.09152
-4.18542
-4.28218
-4.38122
-4.48198
-2.61948
-2.61622
-2.61271
-2.60995
-2.60829
-2.60801
-2.6093
-2.61226
-2.61695
-2.62342
-2.63172
-2.6419
-2.65402
-2.66814
-2.68437
-2.7028
-2.72358
-2.74686
-2.77281
-2.80163
-2.83354
-2.86878
-2.90754
-2.94999
-2.99619
-3.04611
-3.0996
-3.15642
-3.21622
-3.2786
-3.34315
-3.40949
-3.47733
-3.5465
-3.61699
-3.68897
-3.76278
-3.83887
-3.9177
-3.99972
-4.08521
-4.17429
-4.26685
-4.36251
-4.46067
-4.56058
-2.6961
-2.69409
-2.69125
-2.6892
-2.6882
-2.68853
-2.69038
-2.69386
-2.69903
-2.70593
-2.71462
-2.72517
-2.73762
-2.75208
-2.76863
-2.78741
-2.80855
-2.83223
-2.85863
-2.88793
-2.92036
-2.95612
-2.99543
-3.03841
-3.08514
-3.13557
-3.18954
-3.24679
-3.30693
-3.36951
-3.4341
-3.50029
-3.56779
-3.63643
-3.7062
-3.77729
-3.85003
-3.92489
-4.00242
-4.08312
-4.16738
-4.2554
-4.34716
-4.44231
-4.54018
-4.63981
-2.77281
-2.77183
-2.7696
-2.76822
-2.76786
-2.76879
-2.7712
-2.77519
-2.7808
-2.78811
-2.79716
-2.80803
-2.82079
-2.83553
-2.85237
-2.87143
-2.89287
-2.91686
-2.9436
-2.97328
-3.0061
-3.04227
-3.08197
-3.12532
-3.1724
-3.22314
-3.27739
-3.33486
-3.39514
-3.45779
-3.52231
-3.58828
-3.6554
-3.72349
-3.79257
-3.86282
-3.93459
-4.0084
-4.08486
-4.16456
-4.24799
-4.33546
-4.42697
-4.52218
-4.62029
-4.72009
-2.84923
-2.8491
-2.84744
-2.84671
-2.84698
-2.8485
-2.85146
-2.85592
-2.86197
-2.86965
-2.87903
-2.8902
-2.90323
-2.91823
-2.93531
-2.9546
-2.97627
-3.00049
-3.02746
-3.05739
-3.09047
-3.12691
-3.16686
-3.21045
-3.25773
-3.30863
-3.36299
-3.42052
-3.48083
-3.54343
-3.60783
-3.67359
-3.74036
-3.80797
-3.87643
-3.94594
-4.01688
-4.08983
-4.16548
-4.24452
-4.32756
-4.41496
-4.50677
-4.60258
-4.70145
-4.80189
-2.92508
-2.92565
-2.92454
-2.92445
-2.92533
-2.92743
-2.93091
-2.93584
-2.94229
-2.95032
-2.96001
-2.97145
-2.98473
-2.99996
-3.01724
-3.03672
-3.05854
-3.08291
-3.11
-3.14005
-3.17325
-3.20981
-3.24988
-3.29357
-3.34091
-3.39185
-3.44621
-3.50372
-3.56398
-3.62653
-3.69083
-3.75644
-3.82298
-3.89025
-3.95823
-4.02714
-4.09741
-4.16968
-4.24474
-4.32343
-4.40645
-4.49426
-4.58688
-4.68383
-4.78403
-4.88571
-3.00014
-3.00127
-3.00073
-3.00125
-3.00273
-3.00539
-3.00938
-3.01476
-3.0216
-3.02997
-3.03995
-3.05164
-3.06515
-3.08056
-3.09802
-3.11763
-3.13956
-3.16398
-3.19109
-3.22113
-3.25431
-3.29084
-3.33089
-3.37454
-3.42183
-3.4727
-3.52698
-3.58442
-3.64463
-3.70716
-3.77148
-3.83709
-3.90359
-3.97071
-4.03843
-4.10693
-4.17668
-4.24842
-4.32307
-4.40162
-4.48495
-4.57357
-4.66749
-4.76612
-4.8683
-4.97212
-3.07424
-3.07584
-3.07587
-3.077
-3.07906
-3.08227
-3.08674
-3.09255
-3.09976
-3.10845
-3.11872
-3.13065
-3.14435
-3.15993
-3.17752
-3.19722
-3.21919
-3.24359
-3.27062
-3.30052
-3.33353
-3.36992
-3.40983
-3.45333
-3.50045
-3.55114
-3.60527
-3.66262
-3.72282
-3.78542
-3.8499
-3.91573
-3.98243
-4.04967
-4.11735
-4.18564
-4.25505
-4.32639
-4.40077
-4.47938
-4.56327
-4.65308
-4.7487
-4.84945
-4.95436
-5.06175
-3.14728
-3.14925
-3.14988
-3.15158
-3.15421
-3.15795
-3.16289
-3.16911
-3.17668
-3.18568
-3.19621
-3.20836
-3.22224
-3.23796
-3.25563
-3.27538
-3.29734
-3.32165
-3.34852
-3.37817
-3.41094
-3.44713
-3.48682
-3.53006
-3.57689
-3.6273
-3.68121
-3.73843
-3.79863
-3.86139
-3.92616
-3.99237
-4.05948
-4.12707
-4.19496
-4.26328
-4.33255
-4.40372
-4.47804
-4.55696
-4.64175
-4.73316
-4.83099
-4.93452
-5.0431
-5.15367
-3.21919
-3.22144
-3.22267
-3.22493
-3.22812
-3.23236
-3.23776
-3.24437
-3.25229
-3.26158
-3.27236
-3.28471
-3.29875
-3.31458
-3.33232
-3.35208
-3.374
-3.39821
-3.42487
-3.45428
-3.4869
-3.52289
-3.56233
-3.60521
-3.65163
-3.70164
-3.75521
-3.81219
-3.87229
-3.9351
-4.00009
-4.06666
-4.13419
-4.2022
-4.27045
-4.33903
-4.40852
-4.47994
-4.55473
-4.63451
-4.72077
-4.81441
-4.91529
-5.02298
-5.13501
-5.24686
-3.28993
-3.29234
-3.29417
-3.297
-3.30073
-3.30547
-3.3113
-3.31829
-3.32654
-3.33613
-3.34715
-3.35971
-3.37391
-3.38986
-3.40768
-3.42748
-3.44938
-3.47352
-3.5001
-3.52947
-3.56197
-3.59777
-3.63688
-3.67932
-3.72521
-3.77467
-3.82773
-3.88426
-3.94403
-4.00665
-4.0716
-4.13825
-4.20597
-4.27427
-4.34287
-4.41191
-4.48201
-4.5543
-4.63031
-4.71178
-4.80025
-4.89677
-5.00153
-5.11272
-5.22723
-5.34242
-3.3595
-3.36194
-3.36437
-3.36775
-3.37202
-3.37723
-3.38348
-3.39085
-3.39943
-3.40931
-3.42059
-3.43338
-3.44778
-3.46389
-3.48184
-3.50174
-3.52371
-3.5479
-3.57453
-3.6039
-3.63628
-3.6718
-3.71044
-3.7523
-3.79757
-3.84637
-3.89876
-3.95469
-4.01395
-4.07617
-4.14085
-4.20736
-4.27507
-4.34349
-4.41239
-4.48198
-4.55297
-4.62659
-4.70443
-4.78822
-4.87942
-4.97892
-5.08683
-5.20159
-5.31923
-5.4367
-3.42794
-3.43037
-3.43334
-3.43726
-3.44202
-3.44769
-3.45433
-3.46205
-3.47095
-3.48112
-3.49266
-3.5057
-3.52032
-3.53664
-3.55476
-3.57481
-3.59691
-3.62121
-3.6479
-3.67721
-3.70934
-3.74438
-3.78242
-3.82362
-3.86818
-3.91625
-3.96793
-4.02322
-4.08194
-4.14375
-4.20816
-4.27452
-4.34221
-4.41075
-4.47995
-4.55011
-4.62205
-4.69712
-4.77696
-4.86327
-4.95739
-5.05995
-5.17074
-5.28833
-5.40953
-5.53043
-3.49532
-3.49762
-3.50116
-3.5056
-3.51083
-3.5169
-3.5239
-3.53194
-3.54113
-3.55156
-3.56335
-3.57662
-3.59145
-3.60797
-3.62627
-3.64647
-3.66868
-3.69305
-3.71971
-3.74884
-3.78059
-3.81507
-3.85245
-3.89293
-3.93671
-3.98401
-4.03498
-4.08965
-4.14789
-4.20939
-4.27362
-4.33994
-4.40769
-4.4764
-4.54592
-4.61665
-4.68951
-4.76595
-4.8477
-4.93643
-5.03337
-5.13896
-5.25273
-5.37316
-5.49752
-5.62226
-3.56153
-3.56398
-3.56796
-3.57286
-3.5785
-3.58493
-3.59225
-3.60057
-3.61
-3.62066
-3.63266
-3.64612
-3.66113
-3.67781
-3.69625
-3.71656
-3.73883
-3.76318
-3.78972
-3.81857
-3.84987
-3.88377
-3.92046
-3.96016
-4.00313
-4.04965
-4.0999
-4.15397
-4.21178
-4.27301
-4.33712
-4.40345
-4.4713
-4.54019
-4.61002
-4.68127
-4.75497
-4.83267
-4.91615
-5.00706
-5.10653
-5.21486
-5.33144
-5.45468
-5.582
-5.70992
-3.62675
-3.62941
-3.63377
-3.63907
-3.64507
-3.65181
-3.65939
-3.66795
-3.67759
-3.68843
-3.7006
-3.71421
-3.72936
-3.74615
-3.76468
-3.78503
-3.80729
-3.83154
-3.85787
-3.88638
-3.9172
-3.95047
-3.98643
-4.02533
-4.06747
-4.11318
-4.16271
-4.21618
-4.27356
-4.33451
-4.39849
-4.46478
-4.53267
-4.60169
-4.67176
-4.74344
-4.81788
-4.8967
-4.9817
-5.07445
-5.17601
-5.28658
-5.40548
-5.53117
-5.66115
-5.7919
-3.69107
-3.69392
-3.6986
-3.70425
-3.71054
-3.71754
-3.72535
-3.7341
-3.7439
-3.75489
-3.76718
-3.78089
-3.79612
-3.81297
-3.83153
-3.85186
-3.87403
-3.89811
-3.92417
-3.95227
-3.98255
-4.01516
-4.05034
-4.0884
-4.12968
-4.17456
-4.22334
-4.27621
-4.33311
-4.39373
-4.45749
-4.52364
-4.59147
-4.66048
-4.73067
-4.80267
-4.8777
-4.95743
-5.04363
-5.13781
-5.2409
-5.35307
-5.47367
-5.60127
-5.7335
-5.86681
-3.75456
-3.75756
-3.7625
-3.76842
-3.77496
-3.78216
-3.79015
-3.79903
-3.80895
-3.82003
-3.8324
-3.84616
-3.86142
-3.87827
-3.89679
-3.91703
-3.93905
-3.96289
-3.98859
-4.01623
-4.04592
-4.07782
-4.11219
-4.14936
-4.18973
-4.23373
-4.2817
-4.33387
-4.39021
-4.45039
-4.51382
-4.57971
-4.64732
-4.71619
-4.78635
-4.8585
-4.93391
-5.01425
-5.10125
-5.1963
-5.30027
-5.41332
-5.53493
-5.66384
-5.79787
-5.93348
-3.81728
-3.82039
-3.82552
-3.83165
-3.83837
-3.84571
-3.85382
-3.8628
-3.87278
-3.88391
-3.8963
-3.91005
-3.92528
-3.94207
-3.96048
-3.98057
-4.00236
-4.02589
-4.05117
-4.07828
-4.10732
-4.13846
-4.17196
-4.2082
-4.24761
-4.29064
-4.33771
-4.38905
-4.44466
-4.50422
-4.56711
-4.63255
-4.69979
-4.76836
-4.83836
-4.91048
-4.98602
-5.0666
-5.15386
-5.24913
-5.35324
-5.46641
-5.58831
-5.7179
-5.85322
-5.99081
-3.87928
-3.88246
-3.88773
-3.89399
-3.90082
-3.90826
-3.91643
-3.92545
-3.93546
-3.94658
-3.95893
-3.97263
-3.98777
-4.00443
-4.02267
-4.04253
-4.06402
-4.08715
-4.11196
-4.13847
-4.1668
-4.19711
-4.2297
-4.26495
-4.30331
-4.34528
-4.39131
-4.44165
-4.49632
-4.55501
-4.61712
-4.68185
-4.74848
-4.81657
-4.88621
-4.9581
-5.03347
-5.11386
-5.2008
-5.29558
-5.39903
-5.51153
-5.63294
-5.76249
-5.89844
-6.03757
-3.94065
-3.94386
-3.94919
-3.95553
-3.96241
-3.96989
-3.97807
-3.98708
-3.99706
-4.00813
-4.0204
-4.03398
-4.04897
-4.06544
-4.08344
-4.10299
-4.1241
-4.14678
-4.17103
-4.19688
-4.22443
-4.25387
-4.28548
-4.31965
-4.35687
-4.39766
-4.44248
-4.49161
-4.54509
-4.60262
-4.66363
-4.72737
-4.79313
-4.86051
-4.92956
-5.00095
-5.07579
-5.15548
-5.24147
-5.33497
-5.43691
-5.54785
-5.6679
-5.79655
-5.93231
-6.07229
-4.00145
-4.00466
-4.01001
-4.01636
-4.02324
-4.0307
-4.03885
-4.0478
-4.0577
-4.06866
-4.08079
-4.09421
-4.10899
-4.1252
-4.14288
-4.16206
-4.18273
-4.20488
-4.2285
-4.25362
-4.28034
-4.30883
-4.33939
-4.37241
-4.40839
-4.44785
-4.49126
-4.53894
-4.59093
-4.64698
-4.70655
-4.76896
-4.83355
-4.89993
-4.96814
-5.03872
-5.11264
-5.19112
-5.27547
-5.36691
-5.46647
-5.5749
-5.69255
-5.81917
-5.95354
-6.0933
-4.06176
-4.06494
-4.07026
-4.07658
-4.08341
-4.0908
-4.09887
-4.10772
-4.11749
-4.1283
-4.14024
-4.15343
-4.16794
-4.18383
-4.20114
-4.21987
-4.24002
-4.26157
-4.2845
-4.30884
-4.33466
-4.36215
-4.39158
-4.42336
-4.45798
-4.49596
-4.53776
-4.58372
-4.6339
-4.6881
-4.74586
-4.80657
-4.86963
-4.93469
-5.00173
-5.07116
-5.14373
-5.22048
-5.30257
-5.3912
-5.48751
-5.59245
-5.70656
-5.82985
-5.96143
-6.0996
-4.12167
-4.1248
-4.13004
-4.13628
-4.14302
-4.1503
-4.15824
-4.16695
-4.17655
-4.18715
-4.19885
-4.21176
-4.22594
-4.24145
-4.25832
-4.27655
-4.29612
-4.317
-4.33918
-4.36266
-4.38753
-4.41395
-4.44219
-4.47265
-4.5058
-4.54214
-4.58213
-4.62611
-4.67416
-4.72615
-4.78169
-4.84028
-4.9014
-4.96474
-5.03022
-5.09809
-5.16888
-5.2434
-5.32264
-5.40778
-5.50004
-5.6005
-5.70988
-5.82841
-5.95561
-6.0905
-4.18122
-4.18428
-4.18943
-4.19554
-4.20215
-4.20929
-4.21707
-4.22559
-4.23498
-4.24533
-4.25674
-4.26931
-4.28311
-4.29818
-4.31455
-4.33221
-4.35113
-4.37129
-4.39265
-4.41523
-4.43909
-4.46438
-4.49137
-4.52043
-4.552
-4.58656
-4.62456
-4.66631
-4.71194
-4.76136
-4.81428
-4.87031
-4.92905
-4.99021
-5.05367
-5.11951
-5.18804
-5.25983
-5.3357
-5.41675
-5.50423
-5.59927
-5.70273
-5.81503
-5.93608
-6.06567
-4.24048
-4.24347
-4.24848
-4.25444
-4.26089
-4.26785
-4.27543
-4.28373
-4.29286
-4.30292
-4.314
-4.32619
-4.33955
-4.35412
-4.36993
-4.38696
-4.40518
-4.42456
-4.44505
-4.46667
-4.48947
-4.51358
-4.53926
-4.56685
-4.59675
-4.62942
-4.66526
-4.70458
-4.74753
-4.79406
-4.84399
-4.89704
-4.95292
-5.0114
-5.07231
-5.1356
-5.20136
-5.26992
-5.34193
-5.41838
-5.50044
-5.58923
-5.68564
-5.79026
-5.9033
-6.02519
-4.29949
-4.30239
-4.30725
-4.31304
-4.3193
-4.32605
-4.33341
-4.34145
-4.35028
-4.36001
-4.37071
-4.38246
-4.39533
-4.40936
-4.42455
-4.44089
-4.45836
-4.4769
-4.49648
-4.51709
-4.53878
-4.56167
-4.58599
-4.61204
-4.64021
-4.67089
-4.70445
-4.74118
-4.78123
-4.82462
-4.87123
-4.92091
-4.97348
-5.02876
-5.08657
-5.14675
-5.20919
-5.27403
-5.34173
-5.41311
-5.48921
-5.57105
-5.65947
-5.7551
-5.85839
-5.97011
-4.35829
-4.36111
-4.36579
-4.37138
-4.37743
-4.38396
-4.39105
-4.3988
-4.40731
-4.41666
-4.42694
-4.43821
-4.45055
-4.46397
-4.4785
-4.49411
-4.51076
-4.52842
-4.54703
-4.56659
-4.58713
-4.60876
-4.63167
-4.65615
-4.68253
-4.71115
-4.74235
-4.77639
-4.8134
-4.85344
-4.89648
-4.94247
-4.99131
-5.0429
-5.09707
-5.15356
-5.21214
-5.27276
-5.3357
-5.40161
-5.47133
-5.54569
-5.62539
-5.71102
-5.80312
-5.90248
-4.41692
-4.41964
-4.42415
-4.42952
-4.43533
-4.4416
-4.44841
-4.45585
-4.464
-4.47294
-4.48275
-4.49351
-4.50526
-4.51804
-4.53185
-4.54667
-4.56248
-4.5792
-4.59681
-4.61527
-4.63463
-4.65496
-4.67643
-4.6993
-4.72384
-4.75038
-4.77917
-4.81045
-4.84435
-4.88093
-4.92023
-4.96227
-5.00705
-5.05454
-5.10456
-5.15683
-5.21102
-5.26695
-5.32474
-5.38483
-5.44784
-5.51437
-5.58492
-5.65991
-5.73979
-5.8252
-4.4754
-4.47803
-4.48234
-4.48748
-4.49305
-4.49904
-4.50555
-4.51264
-4.52039
-4.52889
-4.53821
-4.54841
-4.55954
-4.57163
-4.58468
-4.59868
-4.61358
-4.62934
-4.6459
-4.66324
-4.68137
-4.70037
-4.72038
-4.74161
-4.76431
-4.78873
-4.81511
-4.84362
-4.87439
-4.90748
-4.94295
-4.98089
-5.02138
-5.06442
-5.1099
-5.1575
-5.20686
-5.25767
-5.30994
-5.36393
-5.42003
-5.47859
-5.53986
-5.60405
-5.67131
-5.74194
-4.53375
-4.53629
-4.54041
-4.54532
-4.55061
-4.55632
-4.56249
-4.56922
-4.57655
-4.58458
-4.59337
-4.60297
-4.61344
-4.62481
-4.63706
-4.6502
-4.66417
-4.67892
-4.69441
-4.71059
-4.72747
-4.74512
-4.76364
-4.78322
-4.80406
-4.82638
-4.85036
-4.87614
-4.90381
-4.93343
-4.96508
-4.99888
-5.03495
-5.07335
-5.114
-5.1566
-5.20076
-5.24613
-5.29258
-5.34026
-5.38936
-5.44
-5.49216
-5.5458
-5.60072
-5.65692
-4.59202
-4.59448
-4.59839
-4.60305
-4.60807
-4.61347
-4.6193
-4.62563
-4.63253
-4.64006
-4.64828
-4.65727
-4.66705
-4.67765
-4.68908
-4.70132
-4.71432
-4.72804
-4.74242
-4.75742
-4.77304
-4.78931
-4.80634
-4.82426
-4.84325
-4.86348
-4.8851
-4.90822
-4.93288
-4.95913
-4.98704
-5.01674
-5.04838
-5.08207
-5.11775
-5.15517
-5.19392
-5.23362
-5.27409
-5.31533
-5.35741
-5.40027
-5.44369
-5.48737
-5.53086
-5.57404
-4.65023
-4.6526
-4.65632
-4.66072
-4.66546
-4.67053
-4.676
-4.68193
-4.68836
-4.69537
-4.70302
-4.71135
-4.72041
-4.73023
-4.7408
-4.75212
-4.76413
-4.7768
-4.79006
-4.80386
-4.8182
-4.83309
-4.84861
-4.86488
-4.88204
-4.90022
-4.91955
-4.94008
-4.96184
-4.98486
-5.00918
-5.03492
-5.06224
-5.09126
-5.12198
-5.15418
-5.18748
-5.22148
-5.25592
-5.29074
-5.3259
-5.36124
-5.39638
-5.43088
-5.46423
-5.49628