/*--------------------------------*- C++ -*----------------------------------*\
  =========                 |
  \\      /  F ield         | OpenFOAM: The Open Source CFD Toolbox
   \\    /   O peration     | Website:  https://openfoam.org
    \\  /    A nd           | Version:  9
     \\/     M anipulation  |
\*---------------------------------------------------------------------------*/
FoamFile
{
    format      ascii;
    class       volScalarField;
    location    "0.4";
    object      p_rgh;
}
// * * * * * * * * * * * * * * * * * * * * * * * * * * * * * * * * * * * * * //

dimensions      [1 -1 -2 0 0 0 0];

internalField   nonuniform List<scalar> 
7700
(
911.763
910.735
913.021
917.869
923.971
930.194
935.962
941.113
945.634
949.594
953.088
956.211
959.052
961.69
964.195
966.63
969.054
971.52
974.086
976.808
979.75
982.98
986.579
990.644
995.291
1000.66
1006.92
1014.28
1023
1033.42
1045.99
1061.23
1079.52
1101.17
1126.51
1155.71
1188.43
1223.6
1259.22
1292.52
1320.66
1340.6
1349.52
1355.68
1375.5
1400.52
910.742
908.942
910.508
914.734
920.024
925.54
930.805
935.616
939.915
943.724
947.104
950.129
952.877
955.423
957.835
960.178
962.515
964.906
967.412
970.097
973.029
976.286
979.956
984.144
988.976
994.601
1001.2
1009
1018.27
1029.32
1042.52
1058.36
1077.46
1100.21
1127.01
1158.1
1193.21
1231.31
1270.21
1306.57
1336.46
1356.27
1356.13
1347.91
1355.5
1389.43
908.913
907.923
909.554
912.736
916.855
921.316
925.71
929.822
933.56
936.908
939.895
942.574
945.007
947.262
949.407
951.507
953.626
955.829
958.182
960.757
963.629
966.884
970.618
974.947
980.004
985.952
992.984
1001.33
1011.28
1023.14
1037.29
1054.18
1074.37
1098.31
1126.37
1158.69
1194.99
1234.24
1274.38
1312.05
1342.96
1363.32
1364.16
1352.86
1350.05
1392.62
907.043
907.257
908.915
911.471
914.706
918.24
921.763
925.094
928.144
930.887
933.335
935.527
937.515
939.361
941.131
942.888
944.698
946.628
948.748
951.137
953.875
957.055
960.781
965.172
970.372
976.548
983.901
992.667
1003.12
1015.59
1030.43
1048.04
1068.88
1093.41
1121.94
1154.51
1190.77
1229.7
1269.4
1306.96
1338.57
1360.77
1370.71
1364.78
1371.63
1413.82
905.161
906.419
908.17
910.329
912.926
915.717
918.481
921.09
923.475
925.61
927.506
929.191
930.712
932.125
933.493
934.879
936.348
937.97
939.818
941.972
944.521
947.56
951.197
955.556
960.784
967.05
974.558
983.539
994.266
1007.04
1022.21
1040.12
1061.17
1085.74
1114.09
1146.18
1181.64
1219.53
1258.25
1295.41
1328.01
1353.19
1369.14
1379.24
1399.95
1450.68
902.985
905.048
906.992
908.91
911.016
913.186
915.285
917.237
918.999
920.557
921.92
923.114
924.178
925.164
926.135
927.151
928.278
929.585
931.147
933.047
935.374
938.228
941.718
945.97
951.131
957.372
964.888
973.908
984.689
997.519
1012.71
1030.57
1051.45
1075.65
1103.37
1134.54
1168.77
1205.26
1242.7
1279.22
1312.58
1340.58
1362.28
1383.27
1423.66
1490.18
900.509
903.162
905.339
907.088
908.778
910.401
911.898
913.242
914.418
915.423
916.273
916.99
917.61
918.182
918.764
919.418
920.208
921.201
922.474
924.108
926.196
928.835
932.137
936.226
941.247
947.366
954.773
963.683
974.339
987.007
1001.97
1019.5
1039.89
1063.4
1090.16
1120.08
1152.79
1187.59
1223.4
1258.77
1292.03
1321.68
1347.75
1377.7
1436.33
1519.64
897.791
900.909
903.286
904.864
906.162
907.275
908.21
908.979
909.592
910.062
910.409
910.658
910.842
911.006
911.207
911.505
911.961
912.643
913.624
914.987
916.82
919.223
922.304
926.185
931.007
936.926
944.125
952.804
963.186
975.512
990.039
1007.02
1026.67
1049.23
1074.78
1103.21
1134.16
1166.99
1200.75
1234.25
1266.16
1295.46
1322.8
1356.92
1428.73
1523.65
894.749
898.368
900.896
902.274
903.179
903.797
904.188
904.4
904.463
904.403
904.249
904.028
903.775
903.531
903.351
903.292
903.415
903.783
904.468
905.55
907.117
909.265
912.098
915.734
920.306
925.963
932.874
941.222
951.207
963.047
976.971
993.203
1011.94
1033.35
1057.52
1084.31
1113.32
1143.94
1175.24
1206.05
1235.11
1261.32
1285.04
1314.58
1389.32
1474.4
891.609
895.619
898.221
899.368
899.872
899.997
899.85
899.508
899.019
898.423
897.758
897.057
896.355
895.693
895.124
894.701
894.483
894.529
894.91
895.701
896.988
898.862
901.424
904.784
909.066
914.41
920.969
928.907
938.399
949.636
962.823
978.166
995.835
1015.98
1038.66
1063.7
1090.69
1118.94
1147.44
1174.87
1199.62
1219.82
1234.12
1246.75
1298.69
1319.32
7.34796
7.34427
7.34041
7.33533
7.33019
7.32575
7.32128
7.31747
7.31433
7.31168
7.30922
7.30658
7.30346
7.29959
7.29477
7.28884
7.28173
7.27341
7.26387
7.25325
7.24164
7.22926
7.21633
7.20301
7.18939
7.17619
7.16353
7.15119
7.13951
7.12863
7.11866
7.10969
7.10177
7.09491
7.08912
7.08438
7.0807
7.07811
7.07657
7.07597
7.34913
7.34602
7.34321
7.33923
7.33377
7.32765
7.32196
7.31722
7.31336
7.31009
7.30704
7.3039
7.30039
7.29624
7.29126
7.28528
7.27821
7.27001
7.26069
7.25035
7.2391
7.22713
7.21458
7.20166
7.18887
7.17599
7.1632
7.15101
7.13947
7.12874
7.11894
7.11012
7.10229
7.09547
7.08963
7.08478
7.08092
7.07811
7.07636
7.07581
7.3514
7.34707
7.34436
7.34011
7.33458
7.32822
7.3221
7.31678
7.31227
7.30832
7.30464
7.30095
7.29699
7.29251
7.28731
7.28123
7.27417
7.26608
7.25697
7.24691
7.236
7.22439
7.21225
7.19978
7.18727
7.17475
7.16234
7.15037
7.139
7.12837
7.11861
7.1098
7.10196
7.09509
7.08918
7.08421
7.08021
7.07725
7.07541
7.07506
7.35452
7.348
7.34377
7.33925
7.33359
7.32734
7.32129
7.31586
7.31109
7.3068
7.30275
7.29872
7.29445
7.28973
7.28436
7.27819
7.27112
7.26307
7.25407
7.24416
7.23344
7.22204
7.21015
7.19795
7.18563
7.17334
7.1612
7.14942
7.13816
7.12756
7.11776
7.10886
7.10091
7.09392
7.08787
7.08276
7.07861
7.07554
7.07373
7.07348
7.35722
7.34833
7.34203
7.33702
7.33143
7.32551
7.3198
7.3146
7.30992
7.30562
7.3015
7.29735
7.29295
7.28811
7.28265
7.27642
7.26932
7.26129
7.25232
7.24247
7.23181
7.22047
7.20862
7.19647
7.18419
7.17195
7.15989
7.14817
7.13693
7.12631
7.11642
7.10737
7.09923
7.09202
7.08576
7.08047
7.07618
7.07306
7.07137
7.07124
7.35829
7.3472
7.33892
7.33363
7.32838
7.32305
7.31791
7.31316
7.30881
7.30471
7.30071
7.29662
7.29224
7.28739
7.2819
7.27565
7.26854
7.26051
7.25155
7.2417
7.23101
7.21961
7.20767
7.19538
7.18296
7.17059
7.15843
7.14665
7.13537
7.12467
7.11464
7.10537
7.09694
7.08941
7.08284
7.0773
7.07289
7.06979
7.06829
7.06835
7.35602
7.34363
7.33399
7.32913
7.32463
7.32015
7.31579
7.31165
7.30776
7.30401
7.30027
7.29638
7.29214
7.28737
7.28193
7.2757
7.26859
7.26056
7.25157
7.24167
7.2309
7.21936
7.20722
7.19469
7.18198
7.16932
7.15692
7.14494
7.1335
7.12265
7.11242
7.10287
7.09405
7.08607
7.07908
7.07324
7.0687
7.06569
7.06442
7.06466
7.34744
7.33659
7.32693
7.32361
7.32038
7.31704
7.3136
7.31016
7.30681
7.30349
7.30012
7.29654
7.29255
7.28798
7.28267
7.27651
7.26942
7.26136
7.2523
7.24228
7.23135
7.2196
7.2072
7.19436
7.1813
7.16826
7.15547
7.14314
7.13138
7.12024
7.1097
7.09977
7.09047
7.08196
7.07446
7.06826
7.06361
7.0607
7.05968
7.0601
7.32508
7.32481
7.31817
7.31761
7.31604
7.31402
7.31158
7.30885
7.30604
7.30319
7.30024
7.29705
7.29341
7.28913
7.28404
7.27802
7.27099
7.26289
7.25371
7.2435
7.23232
7.22029
7.20758
7.19439
7.18093
7.16743
7.15414
7.14129
7.12903
7.1174
7.10639
7.09594
7.08609
7.07699
7.06895
7.06237
7.05759
7.05479
7.05402
7.05462
7.27467
7.3057
7.31006
7.31249
7.31237
7.31168
7.31013
7.30793
7.30558
7.30314
7.30063
7.29788
7.29466
7.29077
7.28599
7.28018
7.27326
7.26514
7.25583
7.24537
7.23387
7.22146
7.20834
7.19473
7.18082
7.16681
7.15293
7.13941
7.12644
7.11409
7.10238
7.09127
7.08078
7.07107
7.0625
7.05555
7.05064
7.04795
7.04739
7.04818
888.27
892.651
895.274
896.168
896.263
895.888
895.193
894.282
893.224
892.072
890.872
889.666
888.49
887.388
886.409
885.606
885.031
884.741
884.802
885.287
886.276
887.857
890.125
893.18
897.138
902.125
908.281
915.747
924.668
935.204
947.538
961.865
978.352
997.13
1018.25
1041.52
1066.47
1092.3
1117.85
1141.51
1161.05
1173.33
1174.03
1157.84
1127.21
932.274
884.758
889.469
892.063
892.692
892.373
891.487
890.222
888.715
887.054
885.31
883.541
881.794
880.11
878.536
877.12
875.912
874.959
874.313
874.035
874.194
874.867
876.135
878.088
880.814
884.416
889.012
894.727
901.676
909.965
919.714
931.087
944.281
959.481
976.824
996.369
1017.92
1040.92
1064.48
1087.24
1107.31
1122.03
1127.43
1117.41
1081.23
1004.83
854.384
881.136
886.111
888.622
888.986
888.261
886.853
884.991
882.849
880.547
878.172
875.796
873.472
871.246
869.168
867.288
865.652
864.301
863.28
862.644
862.459
862.798
863.737
865.358
867.736
870.958
875.136
880.386
886.794
894.411
903.303
913.612
925.555
939.364
955.226
973.231
993.19
1014.5
1036.14
1056.61
1073.89
1085.19
1086.63
1072.73
1035.7
967.495
885.207
877.48
882.596
884.974
885.1
883.997
882.06
879.567
876.747
873.758
870.707
867.681
864.737
861.927
859.307
856.93
854.839
853.065
851.644
850.625
850.073
850.057
850.65
851.926
853.943
856.766
860.512
865.297
871.176
878.118
886.101
895.246
905.811
918.118
932.456
948.99
967.556
987.524
1007.76
1026.66
1042.16
1051.63
1051.68
1038.14
1006.39
952.255
888.743
873.946
878.837
881.048
881.011
879.565
877.071
873.878
870.293
866.523
862.698
858.921
855.253
851.753
848.49
845.524
842.898
840.63
838.738
837.267
836.289
835.871
836.088
837.012
838.67
841.095
844.433
848.835
854.315
860.698
867.804
875.72
884.795
895.516
908.368
923.653
941.177
960.285
979.756
997.848
1012.59
1021.6
1022.07
1010.74
984.493
940.666
885.458
870.376
874.422
876.374
876.169
874.324
871.158
867.112
862.604
857.894
853.131
848.441
843.884
839.525
835.462
831.774
828.51
825.657
823.205
821.199
819.728
818.866
818.69
819.288
820.624
822.653
825.618
829.79
835.086
841.096
847.342
853.851
861.135
870.008
881.403
895.979
913.358
932.653
952.377
970.564
985.487
995.151
997.354
989.552
969.533
935.972
892.783
866.138
867.833
869.171
868.974
866.88
863.125
858.319
853.058
847.664
842.267
837.029
831.983
827.188
822.776
818.839
815.422
812.456
809.878
807.733
806.122
805.109
804.76
805.175
806.235
807.759
810.102
813.732
818.559
823.659
828.321
832.314
836.251
841.445
849.733
863.015
881.352
902.763
924.765
944.668
960.973
972.223
977.149
973.809
960.651
937.153
906.066
803.049
712.82
736.747
778.914
793.61
787.51
770.754
749.02
725.834
701.378
678.209
655.617
633.568
613.516
595.74
581.031
567.747
554.497
541.485
530.004
520.418
513.072
510.799
512.733
513.795
520.355
538.727
574.745
619.5
657.442
688.964
721.836
760.29
799.34
824.994
842.731
867.088
894.565
918.081
937.848
952.147
960.866
962.592
956.35
941.957
921.3
222.747
116.94
141.562
195.828
218.623
210.082
185.113
158.145
133.57
111.652
93.9102
78.6462
65.3177
54.6947
46.1638
39.6772
34.003
28.5772
23.5108
19.274
15.9288
13.4797
12.7151
13.0283
12.8797
15.2997
22.635
38.3986
60.3299
81.7932
103.67
132.956
184.769
297.626
504.575
712.753
819.751
868.396
890.502
913.014
931.821
946.453
954.53
955.485
949.474
937.904
-0.907606
-0.526108
-0.591415
-0.707621
-0.687274
-0.673171
-0.666656
-0.66238
-0.660892
-0.662794
-0.667805
-0.67664
-0.68796
-0.698124
-0.705825
-0.712192
-0.727043
-0.733706
-0.737798
-0.74236
-0.748033
-0.754506
-0.777876
-0.801641
-0.822507
-0.91337
-1.02119
-1.03539
-1.0356
-1.06954
-1.13651
-1.22736
-1.33085
-1.46149
2.6264
71.3237
369.945
773.645
889.908
895.972
910.378
930.114
946.161
955.876
958.753
955.815
-0.70648
-0.657747
-0.64441
-0.636229
-0.612763
-0.591841
-0.575948
-0.563375
-0.553995
-0.547605
-0.545307
-0.549477
-0.555198
-0.559525
-0.562923
-0.567061
-0.573437
-0.582944
-0.595883
-0.611438
-0.629072
-0.648236
-0.668234
-0.690691
-0.717091
-0.744337
-0.772109
-0.805693
-0.849255
-0.900519
-0.95491
-1.00832
-1.05289
-1.08287
-1.19424
-1.51059
0.728482
34.7159
345.368
881.815
923.123
924.665
938.148
954.528
967.071
973.685
-0.705121
-0.680352
-0.660348
-0.647372
-0.632502
-0.617159
-0.604182
-0.594027
-0.587056
-0.583031
-0.582849
-0.587495
-0.593972
-0.600258
-0.606449
-0.613557
-0.622535
-0.633852
-0.647627
-0.66365
-0.681685
-0.701551
-0.723111
-0.747102
-0.774495
-0.804397
-0.836387
-0.872583
-0.915538
-0.964672
-1.01763
-1.07101
-1.11968
-1.15213
-1.17013
-1.19998
-1.33753
-1.56171
1.68978
34.2362
240.757
856.2
970.349
967.366
977.256
990.013
-0.693334
-0.681636
-0.668544
-0.656659
-0.644806
-0.632824
-0.622393
-0.614272
-0.608898
-0.606263
-0.606353
-0.609228
-0.614565
-0.621773
-0.630432
-0.640459
-0.652023
-0.665302
-0.680399
-0.697318
-0.716077
-0.736781
-0.759664
-0.78522
-0.813958
-0.845869
-0.880973
-0.920146
-0.964626
-1.01435
-1.06802
-1.12375
-1.17847
-1.22817
-1.27189
-1.31006
-1.34729
-1.36958
-1.55665
-2.06443
0.264906
51.7591
211.977
815.926
1027.54
1022.54
-0.694631
-0.685755
-0.674832
-0.663358
-0.652325
-0.641847
-0.632859
-0.625978
-0.621507
-0.619579
-0.620209
-0.62337
-0.628881
-0.636435
-0.645772
-0.656783
-0.669496
-0.68398
-0.700289
-0.718462
-0.738575
-0.760783
-0.785352
-0.81267
-0.8431
-0.876817
-0.914019
-0.955234
-1.00102
-1.05125
-1.10507
-1.16124
-1.21849
-1.27556
-1.33454
-1.39638
-1.45863
-1.50931
-1.55696
-1.63013
-1.80475
-2.2228
-1.8311
48.8377
175.095
760.533
-0.702193
-0.693028
-0.682112
-0.670785
-0.660431
-0.651145
-0.643427
-0.637734
-0.634335
-0.633353
-0.634794
-0.63859
-0.6446
-0.652651
-0.662608
-0.674412
-0.68806
-0.703581
-0.72101
-0.740404
-0.76187
-0.785585
-0.811806
-0.840862
-0.873071
-0.908654
-0.947824
-0.990889
-1.03808
-1.08923
-1.14374
-1.20083
-1.25977
-1.32041
-1.38407
-1.45247
-1.52643
-1.60428
-1.68356
-1.7567
-1.81992
-1.89812
-2.0757
-2.32043
-2.07225
44.3414
-0.711678
-0.701807
-0.69067
-0.679705
-0.670186
-0.662091
-0.655653
-0.651195
-0.648937
-0.648983
-0.651341
-0.655947
-0.662701
-0.671494
-0.682249
-0.694926
-0.709519
-0.726046
-0.744551
-0.765116
-0.787877
-0.81303
-0.840828
-0.871561
-0.905521
-0.942938
-0.983996
-1.02886
-1.0776
-1.13006
-1.18584
-1.24444
-1.30545
-1.36883
-1.43541
-1.50642
-1.58314
-1.66646
-1.75843
-1.85656
-1.94861
-2.03095
-2.10924
-2.171
-2.33593
-2.49028
-0.722522
-0.711717
-0.700585
-0.690256
-0.68168
-0.674753
-0.669551
-0.666296
-0.665156
-0.666218
-0.669498
-0.674956
-0.682524
-0.69213
-0.703721
-0.71727
-0.732779
-0.750281
-0.769836
-0.791549
-0.815582
-0.842143
-0.871478
-0.903854
-0.939541
-0.978759
-1.02165
-1.0683
-1.11867
-1.17264
-1.22989
-1.29007
-1.35293
-1.41847
-1.48717
-1.55987
-1.63749
-1.72111
-1.81242
-1.91146
-2.01462
-2.12154
-2.22568
-2.30973
-2.40083
-2.46765
-0.734145
-0.722852
-0.712068
-0.702568
-0.694967
-0.689143
-0.685091
-0.682951
-0.68285
-0.68486
-0.689004
-0.695267
-0.703611
-0.713991
-0.726374
-0.740749
-0.757134
-0.775577
-0.796158
-0.819004
-0.844292
-0.872236
-0.903075
-0.937061
-0.974442
-1.01543
-1.06013
-1.10855
-1.16062
-1.21616
-1.27493
-1.33664
-1.40109
-1.46826
-1.53848
-1.61234
-1.69051
-1.77378
-1.86309
-1.95871
-2.0598
-2.16725
-2.2791
-2.38939
-2.50098
-2.59121
-0.746483
-0.735287
-0.72524
-0.716709
-0.710077
-0.705274
-0.702264
-0.70113
-0.701965
-0.704834
-0.709769
-0.716774
-0.725835
-0.736931
-0.750047
-0.765189
-0.782393
-0.801724
-0.823285
-0.847223
-0.873724
-0.903007
-0.9353
-0.970835
-1.00984
-1.05251
-1.09894
-1.14908
-1.2028
-1.25991
-1.32015
-1.38325
-1.44902
-1.51741
-1.58861
-1.66309
-1.74141
-1.82419
-1.91199
-2.00499
-2.10297
-2.20625
-2.31424
-2.42557
-2.54117
-2.6527
-0.759595
-0.74907
-0.740087
-0.732617
-0.726941
-0.723076
-0.720996
-0.720753
-0.722423
-0.726063
-0.731714
-0.739394
-0.749109
-0.760857
-0.774641
-0.790485
-0.808441
-0.828594
-0.85107
-0.876032
-0.903681
-0.934236
-0.967914
-1.00492
-1.04546
-1.0897
-1.1377
-1.18941
-1.24466
-1.3032
-1.36477
-1.42907
-1.49589
-1.56514
-1.63695
-1.71164
-1.78974
-1.87176
-1.95816
-2.04913
-2.14457
-2.24447
-2.34835
-2.45559
-2.5661
-2.67775
-0.773541
-0.764163
-0.756431
-0.750054
-0.745306
-0.742299
-0.741042
-0.741585
-0.743993
-0.748323
-0.754618
-0.762909
-0.773214
-0.785548
-0.799935
-0.816415
-0.835057
-0.855965
-0.879282
-0.90519
-0.933903
-0.965645
-1.00062
-1.03902
-1.08099
-1.12667
-1.17609
-1.22917
-1.28573
-1.34549
-1.40815
-1.4734
-1.54098
-1.61077
-1.68284
-1.75746
-1.83506
-1.91612
-2.00106
-2.09011
-2.18328
-2.28044
-2.38111
-2.4847
-2.59086
-2.69858
-0.788342
-0.780433
-0.773969
-0.768646
-0.764772
-0.762539
-0.762009
-0.763243
-0.766306
-0.771251
-0.778126
-0.786965
-0.797799
-0.81066
-0.825589
-0.842644
-0.861911
-0.88351
-0.907598
-0.93437
-0.96405
-0.996872
-1.03304
-1.07271
-1.11601
-1.163
-1.2137
-1.26798
-1.32563
-1.38636
-1.44982
-1.51571
-1.58374
-1.65375
-1.72577
-1.80003
-1.87691
-1.95685
-2.04026
-2.12741
-2.2184
-2.31311
-2.41111
-2.51183
-2.6148
-2.71939
-0.803943
-0.797644
-0.792336
-0.787972
-0.784898
-0.783362
-0.783481
-0.785333
-0.788982
-0.794481
-0.801877
-0.811209
-0.822518
-0.83585
-0.851264
-0.868837
-0.888673
-0.910901
-0.935689
-0.963236
-0.993777
-1.02755
-1.06475
-1.10555
-1.15002
-1.1982
-1.25002
-1.30533
-1.36388
-1.42534
-1.48937
-1.55561
-1.62378
-1.69372
-1.76542
-1.83907
-1.91503
-1.99374
-2.0756
-2.16091
-2.24984
-2.34234
-2.43808
-2.53652
-2.63714
-2.73943
-0.820174
-0.815463
-0.811137
-0.807623
-0.805278
-0.804385
-0.805103
-0.807523
-0.811708
-0.817712
-0.825581
-0.835358
-0.847093
-0.860845
-0.87669
-0.894725
-0.915066
-0.937857
-0.963268
-0.9915
-1.02278
-1.05736
-1.09543
-1.13716
-1.18261
-1.23177
-1.28454
-1.34071
-1.39998
-1.46199
-1.52636
-1.59273
-1.66082
-1.73045
-1.80161
-1.87447
-1.94938
-2.02678
-2.10709
-2.19066
-2.27774
-2.36833
-2.46224
-2.55899
-2.65803
-2.75879
-0.836737
-0.833475
-0.82996
-0.827207
-0.825544
-0.825267
-0.826559
-0.829518
-0.834206
-0.840675
-0.848975
-0.859155
-0.871271
-0.885396
-0.90162
-0.920055
-0.940835
-0.964112
-0.990062
-1.01888
-1.05079
-1.08603
-1.1248
-1.16725
-1.21345
-1.26336
-1.31685
-1.37367
-1.43348
-1.49586
-1.56041
-1.62675
-1.69459
-1.76376
-1.83425
-1.90623
-1.98004
-2.05612
-2.13496
-2.21697
-2.30246
-2.39154
-2.4841
-2.57977
-2.67792
-2.77783
-0.853243
-0.85123
-0.848398
-0.846348
-0.845342
-0.84567
-0.847527
-0.851007
-0.856171
-0.863073
-0.871767
-0.882308
-0.894765
-0.909219
-0.925772
-0.944548
-0.965694
-0.989375
-1.01577
-1.04507
-1.0775
-1.11327
-1.15257
-1.19555
-1.24228
-1.29271
-1.34669
-1.40393
-1.46407
-1.52666
-1.59125
-1.65744
-1.72493
-1.79357
-1.86335
-1.93443
-2.00717
-2.08203
-2.15956
-2.24026
-2.32452
-2.41254
-2.5043
-2.59945
-2.69732
-2.79696
-0.869279
-0.868301
-0.866075
-0.864696
-0.864332
-0.865262
-0.867675
-0.871659
-0.877274
-0.884578
-0.893631
-0.9045
-0.917261
-0.932004
-0.94884
-0.967901
-0.989342
-1.01334
-1.04008
-1.06975
-1.10258
-1.13874
-1.17844
-1.2218
-1.26887
-1.31962
-1.37387
-1.43133
-1.49162
-1.55426
-1.61878
-1.68475
-1.75187
-1.81997
-1.88905
-1.95929
-2.03106
-2.10487
-2.18133
-2.26103
-2.34447
-2.43193
-2.52345
-2.61865
-2.71676
-2.81656
-0.884473
-0.884341
-0.882682
-0.881953
-0.882219
-0.883742
-0.886696
-0.891165
-0.897208
-0.904887
-0.914271
-0.925436
-0.938469
-0.953468
-0.970546
-0.989839
-1.01151
-1.03573
-1.0627
-1.09263
-1.12571
-1.16215
-1.2021
-1.24569
-1.29297
-1.34387
-1.39823
-1.45576
-1.51607
-1.57867
-1.64307
-1.70883
-1.7756
-1.84321
-1.91167
-1.98118
-2.05212
-2.12507
-2.20072
-2.27976
-2.3628
-2.4502
-2.54202
-2.63782
-2.73669
-2.83713
-0.898524
-0.899085
-0.897982
-0.897885
-0.898767
-0.900867
-0.904345
-0.909279
-0.915729
-0.923761
-0.933454
-0.944892
-0.958172
-0.973395
-0.990677
-1.01015
-1.03198
-1.05634
-1.08344
-1.11349
-1.14669
-1.18325
-1.22332
-1.26701
-1.31435
-1.36529
-1.41965
-1.47716
-1.53742
-1.59996
-1.66427
-1.72988
-1.79642
-1.86368
-1.93167
-2.00058
-2.07085
-2.14312
-2.21818
-2.29686
-2.37989
-2.4677
-2.56032
-2.65727
-2.75747
-2.85915
-0.911204
-0.912334
-0.911795
-0.912315
-0.913796
-0.916457
-0.920441
-0.925821
-0.93266
-0.94103
-0.951014
-0.962707
-0.976209
-0.991628
-1.00908
-1.02869
-1.05062
-1.07504
-1.10216
-1.13219
-1.16537
-1.2019
-1.24195
-1.28561
-1.3329
-1.38376
-1.43804
-1.49548
-1.55569
-1.61822
-1.68254
-1.74815
-1.81465
-1.88178
-1.94949
-2.01799
-2.08774
-2.15948
-2.23413
-2.31269
-2.39601
-2.48464
-2.57855
-2.67718
-2.77937
-2.88319
-0.92235
-0.923948
-0.923984
-0.925104
-0.927169
-0.930374
-0.934847
-0.940657
-0.94787
-0.956563
-0.966825
-0.978755
-0.992458
-1.00804
-1.02562
-1.04533
-1.0673
-1.0917
-1.11873
-1.14863
-1.18164
-1.21803
-1.25794
-1.30144
-1.34856
-1.39925
-1.45338
-1.51072
-1.57092
-1.63353
-1.69801
-1.76384
-1.83053
-1.89778
-1.96546
-2.03375
-2.10316
-2.1745
-2.24888
-2.32749
-2.41138
-2.50118
-2.59681
-2.69756
-2.80247
-2.90986
-0.931851
-0.933824
-0.934448
-0.936151
-0.938784
-0.942516
-0.947458
-0.953679
-0.961251
-0.970254
-0.980779
-0.992928
-1.00681
-1.02253
-1.0402
-1.05995
-1.08191
-1.10622
-1.13309
-1.16274
-1.19551
-1.2317
-1.27139
-1.31463
-1.36146
-1.41187
-1.46578
-1.523
-1.5832
-1.64596
-1.71073
-1.77694
-1.84405
-1.91164
-1.97953
-2.04785
-2.11712
-2.18829
-2.26261
-2.34153
-2.42632
-2.51773
-2.61556
-2.71909
-2.82767
-2.93824
-0.939631
-0.941883
-0.943107
-0.945376
-0.948564
-0.952806
-0.958198
-0.964814
-0.972729
-0.982026
-0.9928
-1.00515
-1.01919
-1.03502
-1.05276
-1.07253
-1.09444
-1.11865
-1.14532
-1.17473
-1.20734
-1.24334
-1.28277
-1.32565
-1.37207
-1.42208
-1.47565
-1.53263
-1.59273
-1.65554
-1.72054
-1.7871
-1.85463
-1.92265
-1.99089
-2.05948
-2.12896
-2.20038
-2.27517
-2.35495
-2.44121
-2.53485
-2.63574
-2.74342
-2.85545
-2.9673
-0.945646
-0.948057
-0.94989
-0.952716
-0.956448
-0.961184
-0.967013
-0.97401
-0.982259
-0.991846
-1.00287
-1.01543
-1.02963
-1.04558
-1.0634
-1.0832
-1.1051
-1.12924
-1.15581
-1.18518
-1.21768
-1.25348
-1.2926
-1.33503
-1.38093
-1.43039
-1.48344
-1.53998
-1.59975
-1.66237
-1.72731
-1.79396
-1.86169
-1.92999
-1.99859
-2.06763
-2.13773
-2.21002
-2.28603
-2.3675
-2.45597
-2.55248
-2.65725
-2.76844
-2.88294
-2.99814
-0.949896
-0.952334
-0.954764
-0.958145
-0.96241
-0.967625
-0.973874
-0.981242
-0.989818
-0.999699
-1.01098
-1.02377
-1.03817
-1.05428
-1.07223
-1.09213
-1.1141
-1.13829
-1.16493
-1.19429
-1.22667
-1.26219
-1.30083
-1.34269
-1.38796
-1.43676
-1.48915
-1.54508
-1.60434
-1.66657
-1.73124
-1.79775
-1.86546
-1.93388
-2.00279
-2.07237
-2.14336
-2.21698
-2.29482
-2.37861
-2.46981
-2.56931
-2.67722
-2.79198
-2.90962
-3.02709
-0.952396
-0.954825
-0.9578
-0.961716
-0.966482
-0.972145
-0.978791
-0.986511
-0.995406
-1.00558
-1.01712
-1.03016
-1.04478
-1.0611
-1.07922
-1.09927
-1.12137
-1.14567
-1.17236
-1.20167
-1.2338
-1.26884
-1.30688
-1.34808
-1.39264
-1.44071
-1.49239
-1.54768
-1.6064
-1.66821
-1.73262
-1.79898
-1.86667
-1.93521
-2.00441
-2.07457
-2.14651
-2.22158
-2.30142
-2.38773
-2.48185
-2.58441
-2.6952
-2.81279
-2.93398
-3.05489
-0.953232
-0.955537
-0.959075
-0.963518
-0.968745
-0.974815
-0.981819
-0.989859
-0.999042
-1.00948
-1.02127
-1.03453
-1.04937
-1.06588
-1.08419
-1.10438
-1.1266
-1.15096
-1.17763
-1.20676
-1.2385
-1.27299
-1.31037
-1.35084
-1.39463
-1.44193
-1.49289
-1.54756
-1.60581
-1.6673
-1.73153
-1.79785
-1.86561
-1.93431
-2.00384
-2.07456
-2.14742
-2.22387
-2.30561
-2.39434
-2.49128
-2.59687
-2.71064
-2.83107
-2.95544
-3.08017
-0.952281
-0.954737
-0.958714
-0.963618
-0.969256
-0.975685
-0.983004
-0.991322
-1.00075
-1.01142
-1.02342
-1.03687
-1.05189
-1.06857
-1.08701
-1.10731
-1.12959
-1.15393
-1.18047
-1.20933
-1.24063
-1.27453
-1.31121
-1.35091
-1.39389
-1.4404
-1.49065
-1.54472
-1.60253
-1.66376
-1.72788
-1.7942
-1.86205
-1.93094
-2.00078
-2.07202
-2.14572
-2.22343
-2.30691
-2.39781
-2.49728
-2.60562
-2.72219
-2.84543
-2.97275
-3.10067
-0.949717
-0.952379
-0.956734
-0.96204
-0.968035
-0.974774
-0.982363
-0.990917
-1.00056
-1.0114
-1.02357
-1.03718
-1.05233
-1.06912
-1.08765
-1.108
-1.13026
-1.15451
-1.18084
-1.20935
-1.24017
-1.27344
-1.3094
-1.34829
-1.39044
-1.43615
-1.48567
-1.53915
-1.59652
-1.65748
-1.72145
-1.78775
-1.85564
-1.92465
-1.99473
-2.06641
-2.14085
-2.21967
-2.30467
-2.39742
-2.49898
-2.60955
-2.72845
-2.85414
-2.98411
-3.11486
-0.945626
-0.948477
-0.953155
-0.958801
-0.965097
-0.972096
-0.979907
-0.988651
-0.998454
-1.00944
-1.02173
-1.03544
-1.05067
-1.06752
-1.08608
-1.10641
-1.12859
-1.15267
-1.17872
-1.20682
-1.2371
-1.26971
-1.3049
-1.34295
-1.38423
-1.42911
-1.4779
-1.53076
-1.58766
-1.64828
-1.71204
-1.7782
-1.84602
-1.91503
-1.98523
-2.05722
-2.13226
-2.21198
-2.29819
-2.39237
-2.49545
-2.60762
-2.72822
-2.85582
-2.98805
-3.12136
-0.940066
-0.943069
-0.948008
-0.953928
-0.960465
-0.967668
-0.97565
-0.984537
-0.994456
-1.00554
-1.0179
-1.03166
-1.04692
-1.06377
-1.08229
-1.10254
-1.12456
-1.14839
-1.1741
-1.20174
-1.23142
-1.26332
-1.29769
-1.33486
-1.37524
-1.41923
-1.4672
-1.51937
-1.57571
-1.63589
-1.69932
-1.76522
-1.83283
-1.90169
-1.97185
-2.044
-2.11942
-2.19976
-2.28675
-2.3818
-2.48577
-2.59882
-2.72043
-2.84934
-2.98337
-3.11896
-0.933091
-0.936202
-0.941337
-0.947463
-0.954178
-0.961527
-0.969628
-0.978608
-0.988597
-0.999723
-1.01211
-1.02587
-1.0411
-1.05788
-1.0763
-1.09638
-1.11817
-1.1417
-1.16699
-1.1941
-1.22313
-1.25427
-1.28778
-1.32402
-1.36342
-1.40646
-1.45352
-1.50486
-1.56047
-1.62003
-1.68293
-1.74837
-1.8156
-1.88417
-1.95417
-2.0263
-2.10184
-2.18241
-2.26967
-2.36495
-2.46905
-2.58223
-2.70412
-2.83371
-2.96902
-3.10658
-0.924757
-0.927936
-0.933202
-0.939466
-0.946296
-0.953735
-0.961902
-0.970924
-0.980932
-0.992053
-1.00441
-1.01811
-1.03325
-1.04991
-1.06815
-1.088
-1.10949
-1.13263
-1.15743
-1.18395
-1.21227
-1.24259
-1.27518
-1.31042
-1.34878
-1.39076
-1.43678
-1.48712
-1.5418
-1.60049
-1.66259
-1.72733
-1.79395
-1.86204
-1.93169
-2.00357
-2.07894
-2.15933
-2.24628
-2.34105
-2.4445
-2.557
-2.67841
-2.80796
-2.94391
-3.08299
-0.915131
-0.91834
-0.923676
-0.930013
-0.936898
-0.944371
-0.952552
-0.961568
-0.971545
-0.982609
-0.994881
-1.00847
-1.02346
-1.03992
-1.05792
-1.07747
-1.09858
-1.12126
-1.14551
-1.17136
-1.19892
-1.22835
-1.25996
-1.29413
-1.33136
-1.37215
-1.41696
-1.46609
-1.51957
-1.57711
-1.63812
-1.70186
-1.76762
-1.83499
-1.90405
-1.97543
-2.05027
-2.12997
-2.21595
-2.30945
-2.41139
-2.52233
-2.64238
-2.77103
-2.90679
-3.04673
-0.904282
-0.907489
-0.912841
-0.919193
-0.926077
-0.933533
-0.941678
-0.950637
-0.960535
-0.971493
-0.983627
-0.997041
-1.01182
-1.02803
-1.04572
-1.06489
-1.08556
-1.10771
-1.13133
-1.15646
-1.18318
-1.21167
-1.24222
-1.27524
-1.31122
-1.35068
-1.3941
-1.44177
-1.49376
-1.54981
-1.60938
-1.67179
-1.73638
-1.80276
-1.87098
-1.94156
-2.01547
-2.09395
-2.17831
-2.26974
-2.3693
-2.47773
-2.59539
-2.722
-2.85636
-2.9961
-0.892282
-0.89546
-0.90078
-0.907095
-0.913929
-0.92132
-0.929384
-0.938241
-0.948011
-0.958813
-0.970759
-0.983945
-0.998455
-1.01435
-1.03165
-1.05039
-1.07054
-1.09209
-1.11502
-1.13935
-1.16518
-1.19266
-1.2221
-1.25388
-1.2885
-1.32648
-1.36828
-1.41424
-1.46442
-1.51862
-1.57638
-1.63708
-1.70015
-1.7652
-1.83225
-1.90167
-1.97425
-2.051
-2.13309
-2.22172
-2.31802
-2.42297
-2.53708
-2.66036
-2.79194
-2.93009
-0.879197
-0.882326
-0.887574
-0.893807
-0.900548
-0.907832
-0.915772
-0.924483
-0.93408
-0.944679
-0.956385
-0.96929
-0.983472
-0.998982
-1.01585
-1.03408
-1.05365
-1.07453
-1.09671
-1.12019
-1.14506
-1.17148
-1.19972
-1.23018
-1.26333
-1.29967
-1.33966
-1.38364
-1.43169
-1.48368
-1.53922
-1.59781
-1.65893
-1.72227
-1.78775
-1.85562
-1.92641
-2.00093
-2.08017
-2.16531
-2.25757
-2.35803
-2.46741
-2.58594
-2.71313
-2.84802
-0.865085
-0.868149
-0.873292
-0.879406
-0.886017
-0.893156
-0.900934
-0.909459
-0.918842
-0.929191
-0.940607
-0.953179
-0.966977
-0.982048
-0.998414
-1.01607
-1.035
-1.05516
-1.07652
-1.0991
-1.12295
-1.14825
-1.17524
-1.2043
-1.23587
-1.27043
-1.30843
-1.35018
-1.39581
-1.44523
-1.49815
-1.55418
-1.61292
-1.67408
-1.73754
-1.80338
-1.87191
-1.94369
-2.01956
-2.10062
-2.18809
-2.28314
-2.38659
-2.49889
-2.61994
-2.74952
-0.849996
-0.852983
-0.857994
-0.863957
-0.870407
-0.877369
-0.88495
-0.893251
-0.902379
-0.912435
-0.923515
-0.935703
-0.949063
-0.963638
-0.979444
-0.996474
-1.0147
-1.03407
-1.05457
-1.07619
-1.09898
-1.1231
-1.14878
-1.17636
-1.20627
-1.23894
-1.27478
-1.3141
-1.35704
-1.40357
-1.4535
-1.50656
-1.56244
-1.62092
-1.68183
-1.74512
-1.81087
-1.87943
-1.95145
-2.0279
-2.10995
-2.19875
-2.29516
-2.39977
-2.51282
-2.6347
-0.833969
-0.836871
-0.841729
-0.847516
-0.853776
-0.860533
-0.867884
-0.875928
-0.884762
-0.894484
-0.905184
-0.916939
-0.92981
-0.943835
-0.959027
-0.975372
-0.992837
-1.01138
-1.03096
-1.05157
-1.07325
-1.09615
-1.12047
-1.14652
-1.17469
-1.20537
-1.23893
-1.27566
-1.31571
-1.35909
-1.40571
-1.45539
-1.50796
-1.56324
-1.62105
-1.68122
-1.74367
-1.8085
-1.8762
-1.94759
-2.02369
-2.10553
-2.19395
-2.28957
-2.39287
-2.50458
-0.817035
-0.819848
-0.824536
-0.830125
-0.836172
-0.842698
-0.849792
-0.857546
-0.866052
-0.875401
-0.885677
-0.896955
-0.909289
-0.922714
-0.937239
-0.952848
-0.969505
-0.987161
-1.00577
-1.02533
-1.04587
-1.0675
-1.09042
-1.11489
-1.14127
-1.16989
-1.2011
-1.23513
-1.27214
-1.31218
-1.35522
-1.40121
-1.45005
-1.50165
-1.55581
-1.6123
-1.67088
-1.7315
-1.79445
-1.86036
-1.93007
-2.00443
-2.08413
-2.16976
-2.26186
-2.36122
-0.799222
-0.801943
-0.806449
-0.811822
-0.817636
-0.823907
-0.830718
-0.838153
-0.846299
-0.855239
-0.865053
-0.87581
-0.887563
-0.900341
-0.914152
-0.928978
-0.944779
-0.961506
-0.979112
-0.997577
-1.01693
-1.03726
-1.05874
-1.0816
-1.10615
-1.13268
-1.16148
-1.19276
-1.22665
-1.26324
-1.30254
-1.34457
-1.38935
-1.43684
-1.48686
-1.53913
-1.59333
-1.64926
-1.70704
-1.76713
-1.83014
-1.89667
-1.96722
-2.04221
-2.12209
-2.2075
-0.780551
-0.783181
-0.787495
-0.792639
-0.798203
-0.804198
-0.810703
-0.817793
-0.825548
-0.834046
-0.843363
-0.853562
-0.864691
-0.876781
-0.889835
-0.903834
-0.918738
-0.934495
-0.951056
-0.968395
-0.986526
-1.00553
-1.02554
-1.04677
-1.06946
-1.09388
-1.12026
-1.14878
-1.17954
-1.21263
-1.24811
-1.28605
-1.32653
-1.36958
-1.41505
-1.46266
-1.51201
-1.56283
-1.61509
-1.66908
-1.72519
-1.78375
-1.84502
-1.90921
-1.97647
-2.0471
-0.761044
-0.763584
-0.767702
-0.772606
-0.777904
-0.783607
-0.789784
-0.796506
-0.803844
-0.811871
-0.820657
-0.830263
-0.840733
-0.852096
-0.864354
-0.877489
-0.891459
-0.906212
-0.921696
-0.937878
-0.954762
-0.972407
-0.990931
-1.01051
-1.03135
-1.05367
-1.07765
-1.10343
-1.1311
-1.16072
-1.19237
-1.22617
-1.26224
-1.30064
-1.34129
-1.38389
-1.42805
-1.47342
-1.51987
-1.56755
-1.61665
-1.66729
-1.71945
-1.77309
-1.82801
-1.88421
-0.740724
-0.743177
-0.747095
-0.751751
-0.756772
-0.762167
-0.767999
-0.774331