/*--------------------------------*- C++ -*----------------------------------*\
  =========                 |
  \\      /  F ield         | OpenFOAM: The Open Source CFD Toolbox
   \\    /   O peration     | Website:  https://openfoam.org
    \\  /    A nd           | Version:  9
     \\/     M anipulation  |
\*---------------------------------------------------------------------------*/
FoamFile
{
    format      ascii;
    class       surfaceScalarField;
    location    "0.4";
    object      phi;
}
// * * * * * * * * * * * * * * * * * * * * * * * * * * * * * * * * * * * * * //

dimensions      [0 3 -1 0 0 0 0];

internalField   nonuniform List<scalar> 
15214
(
-3.16793e-06
3.16793e-06
-4.42883e-06
1.2609e-06
-3.84398e-06
-5.84845e-07
-2.34442e-06
-1.49956e-06
-4.47498e-07
-1.89692e-06
1.56851e-06
-2.016e-06
3.58233e-06
-2.01382e-06
5.53142e-06
-1.94909e-06
7.39341e-06
-1.86199e-06
9.16622e-06
-1.77282e-06
1.08572e-05
-1.691e-06
1.24776e-05
-1.62039e-06
1.40393e-05
-1.56168e-06
1.55531e-05
-1.51384e-06
1.70282e-05
-1.47505e-06
1.84714e-05
-1.44319e-06
1.98875e-05
-1.41611e-06
2.12792e-05
-1.39173e-06
2.26473e-05
-1.36807e-06
2.39905e-05
-1.34324e-06
2.53058e-05
-1.31532e-06
2.65882e-05
-1.28238e-06
2.78305e-05
-1.24232e-06
2.90234e-05
-1.19284e-06
3.01546e-05
-1.13126e-06
3.1209e-05
-1.05439e-06
3.21672e-05
-9.58211e-07
3.30047e-05
-8.37462e-07
3.36896e-05
-6.84855e-07
3.4178e-05
-4.88419e-07
3.44068e-05
-2.2881e-07
3.42725e-05
1.34251e-07
3.36382e-05
6.3435e-07
3.24015e-05
1.23668e-06
3.04453e-05
1.95621e-06
2.76477e-05
2.79755e-06
2.39092e-05
3.73849e-06
1.91917e-05
4.71751e-06
1.35639e-05
5.62787e-06
7.22835e-06
6.33551e-06
4.96454e-07
6.7319e-06
-6.5757e-06
7.07216e-06
-1.2951e-05
6.37532e-06
-1.56227e-05
2.67173e-06
-1.10936e-05
-4.52916e-06
-1.10936e-05
-2.02624e-06
5.19416e-06
-1.95211e-06
1.18677e-06
-1.04179e-06
-1.49516e-06
3.63797e-07
-2.90515e-06
2.04946e-06
-3.58259e-06
3.87177e-06
-3.83831e-06
5.72518e-06
-3.86723e-06
7.55821e-06
-3.78212e-06
9.34546e-06
-3.64923e-06
1.1078e-05
-3.50531e-06
1.27561e-05
-3.36913e-06
1.43847e-05
-3.24906e-06
1.59705e-05
-3.14745e-06
1.752e-05
-3.0633e-06
1.90389e-05
-2.99392e-06
2.05315e-05
-2.93582e-06
2.20007e-05
-2.88531e-06
2.34476e-05
-2.83867e-06
2.48719e-05
-2.79231e-06
2.62713e-05
-2.74266e-06
2.76421e-05
-2.68616e-06
2.89788e-05
-2.61906e-06
3.02738e-05
-2.53735e-06
3.15175e-05
-2.43651e-06
3.26976e-05
-2.31133e-06
3.37988e-05
-2.15559e-06
3.48022e-05
-1.96161e-06
3.56844e-05
-1.71973e-06
3.6417e-05
-1.41741e-06
3.69664e-05
-1.03777e-06
3.7297e-05
-5.59423e-07
3.73809e-05
5.0348e-08
3.71831e-05
8.32138e-07
3.66062e-05
1.81354e-06
3.55396e-05
3.02287e-06
3.38538e-05
4.48333e-06
3.13986e-05
6.19363e-06
2.80147e-05
8.10143e-06
2.35701e-05
1.00725e-05
1.80326e-05
1.1873e-05
1.15675e-05
1.3197e-05
4.8625e-06
1.37772e-05
-1.2457e-06
1.24835e-05
-5.50772e-06
6.93375e-06
-6.80501e-06
-3.23187e-06
-1.78986e-05
-6.16168e-07
5.81033e-06
-8.92899e-08
6.59894e-07
8.95843e-07
-2.4803e-06
2.24375e-06
-4.25306e-06
3.80994e-06
-5.14878e-06
5.48893e-06
-5.5173e-06
7.20961e-06
-5.58792e-06
8.93027e-06
-5.50278e-06
1.06286e-05
-5.34758e-06
1.22947e-05
-5.17143e-06
1.39261e-05
-5.00054e-06
1.55243e-05
-4.84726e-06
1.70926e-05
-4.71571e-06
1.86346e-05
-4.60532e-06
2.01536e-05
-4.51295e-06
2.1652e-05
-4.43424e-06
2.31311e-05
-4.36432e-06
2.45906e-05
-4.29821e-06
2.60292e-05
-4.23095e-06
2.74441e-05
-4.15756e-06
2.8831e-05
-4.07298e-06
3.01837e-05
-3.97185e-06
3.14948e-05
-3.84836e-06
3.27542e-05
-3.69598e-06
3.395e-05
-3.50713e-06
3.50672e-05
-3.27282e-06
3.60878e-05
-2.98217e-06
3.69898e-05
-2.62176e-06
3.77473e-05
-2.17486e-06
3.83299e-05
-1.62044e-06
3.87031e-05
-9.32532e-07
3.88318e-05
-7.84433e-08
3.86805e-05
9.83469e-07
3.81985e-05
2.29557e-06
3.73244e-05
3.89699e-06
3.59884e-05
5.81925e-06
3.41113e-05
8.07077e-06
3.16019e-05
1.06108e-05
2.83618e-05
1.33125e-05
2.4315e-05
1.59199e-05
1.95e-05
1.8012e-05
1.42761e-05
1.9001e-05
9.06315e-06
1.76965e-05
3.94672e-06
1.20502e-05
1.44833e-07
5.70023e-07
-1.77538e-05
4.60555e-07
5.34978e-06
1.20793e-06
-8.74761e-08
2.33734e-06
-3.60971e-06
3.69951e-06
-5.61522e-06
5.2051e-06
-6.65436e-06
6.78917e-06
-7.10137e-06
8.40776e-06
-7.20651e-06
1.00338e-05
-7.12877e-06
1.16515e-05
-6.96534e-06
1.32531e-05
-6.77298e-06
1.48353e-05
-6.58273e-06
1.63977e-05
-6.40973e-06
1.79415e-05
-6.2595e-06
1.94681e-05
-6.13189e-06
2.09787e-05
-6.02358e-06
2.24741e-05
-5.92959e-06
2.3954e-05
-5.84423e-06
2.54173e-05
-5.76151e-06
2.68617e-05
-5.67534e-06
2.82837e-05
-5.57957e-06
2.96786e-05
-5.46781e-06
3.104e-05
-5.33327e-06
3.23601e-05
-5.16853e-06
3.36293e-05
-4.96517e-06
3.48357e-05
-4.71349e-06
3.59649e-05
-4.40205e-06
3.69999e-05
-4.01711e-06
3.79202e-05
-3.54211e-06
3.87022e-05
-2.95688e-06
3.93188e-05
-2.23699e-06
3.97394e-05
-1.35318e-06
3.99316e-05
-2.70614e-07
3.98622e-05
1.05292e-06
3.94949e-05
2.66283e-06
3.87904e-05
4.6015e-06
3.77076e-05
6.90201e-06
3.62041e-05
9.57428e-06
3.42331e-05
1.25819e-05
3.17388e-05
1.58069e-05
2.8657e-05
1.90016e-05
2.49439e-05
2.17251e-05
2.06688e-05
2.32761e-05
1.59081e-05
2.24571e-05
1.04939e-05
1.74644e-05
4.70469e-06
6.35922e-06
-1.30491e-05
1.01082e-06
4.33896e-06
2.1051e-06
-1.18176e-06
3.40535e-06
-4.90995e-06
4.82732e-06
-7.0372e-06
6.31593e-06
-8.14297e-06
7.84142e-06
-8.62685e-06
9.38552e-06
-8.75061e-06
1.09365e-05
-8.67976e-06
1.24869e-05
-8.5157e-06
1.4032e-05
-8.31815e-06
1.55696e-05
-8.12025e-06
1.70983e-05
-7.93848e-06
1.86179e-05
-7.77908e-06
2.01281e-05
-7.64213e-06
2.16287e-05
-7.52415e-06
2.31189e-05
-7.41978e-06
2.45973e-05
-7.32266e-06
2.60618e-05
-7.22604e-06
2.75095e-05
-7.12296e-06
2.89361e-05
-7.00625e-06
3.03367e-05
-6.86841e-06
3.17049e-05
-6.70139e-06
3.30326e-05
-6.4963e-06
3.43105e-05
-6.24308e-06
3.55272e-05
-5.93012e-06
3.66689e-05
-5.5438e-06
3.77198e-05
-5.06796e-06
3.8661e-05
-4.48337e-06
3.94713e-05
-3.76716e-06
4.01266e-05
-2.89226e-06
4.06005e-05
-1.82711e-06
4.08651e-05
-5.35209e-07
4.08923e-05
1.02574e-06
4.06542e-05
2.90087e-06
4.01235e-05
5.13226e-06
3.92735e-05
7.75198e-06
3.80783e-05
1.07695e-05
3.65084e-05
1.41517e-05
3.45229e-05
1.77923e-05
3.20582e-05
2.14664e-05
2.90215e-05
2.47618e-05
2.53107e-05
2.6987e-05
2.07643e-05
2.70035e-05
1.50737e-05
2.31549e-05
8.0039e-06
1.3429e-05
-5.04518e-06
1.2587e-06
3.08027e-06
2.69546e-06
-2.61853e-06
4.19158e-06
-6.40607e-06
5.69281e-06
-8.53844e-06
7.18669e-06
-9.63685e-06
8.67661e-06
-1.01168e-05
1.0167e-05
-1.0241e-05
1.166e-05
-1.01728e-05
1.31559e-05
-1.00116e-05
1.4654e-05
-9.81621e-06
1.61531e-05
-9.61933e-06
1.7652e-05
-9.4374e-06
1.91496e-05
-9.27663e-06
2.06445e-05
-9.13702e-06
2.21352e-05
-9.01488e-06
2.36199e-05
-8.90447e-06
2.50962e-05
-8.79897e-06
2.65612e-05
-8.69103e-06
2.80112e-05
-8.57296e-06
2.94417e-05
-8.43681e-06
3.08474e-05
-8.27413e-06
3.22218e-05
-8.07577e-06
3.35571e-05
-7.8316e-06
3.48441e-05
-7.53009e-06
3.6072e-05
-7.15796e-06
3.72279e-05
-6.69971e-06
3.82971e-05
-6.13714e-06
3.92625e-05
-5.44884e-06
4.01052e-05
-4.6098e-06
4.0804e-05
-3.5911e-06
4.13366e-05
-2.3597e-06
4.16798e-05
-8.78357e-07
4.18107e-05
8.94758e-07
4.17081e-05
3.00347e-06
4.1352e-05
5.4884e-06
4.07237e-05
8.38027e-06
3.98044e-05
1.16889e-05
3.85697e-05
1.53864e-05
3.69801e-05
1.9382e-05
3.49635e-05
2.34829e-05
3.23935e-05
2.73319e-05
2.90662e-05
3.03142e-05
2.46468e-05
3.1423e-05
1.86199e-05
2.91818e-05
1.0404e-05
2.1645e-05
5.35884e-06
1.42796e-06
1.6523e-06
3.13395e-06
-4.32451e-06
4.79146e-06
-8.06359e-06
6.36008e-06
-1.01071e-05
7.86229e-06
-1.11391e-05
9.32757e-06
-1.15821e-05
1.07775e-05
-1.1691e-05
1.22252e-05
-1.16204e-05
1.3677e-05
-1.14635e-05
1.51358e-05
-1.1275e-05
1.6602e-05
-1.10855e-05
1.80747e-05
-1.09101e-05
1.95523e-05
-1.07543e-05
2.10329e-05
-1.06176e-05
2.25141e-05
-1.04961e-05
2.39931e-05
-1.03835e-05
2.54669e-05
-1.02727e-05
2.69317e-05
-1.01559e-05
2.83835e-05
-1.00247e-05
2.98174e-05
-9.87071e-06
3.12278e-05
-9.68456e-06
3.26083e-05
-9.45627e-06
3.39513e-05
-9.17458e-06
3.5248e-05
-8.82674e-06
3.64881e-05
-8.39805e-06
3.76598e-05
-7.87142e-06
3.87496e-05
-7.22695e-06
3.97422e-05
-6.44147e-06
4.06208e-05
-5.48837e-06
4.13672e-05
-4.33749e-06
4.19627e-05
-2.95518e-06
4.23885e-05
-1.30424e-06
4.26272e-05
6.56074e-07
4.26628e-05
2.96788e-06
4.24809e-05
5.67031e-06
4.20679e-05
8.79324e-06
4.14086e-05
1.23482e-05
4.04803e-05
1.63147e-05
3.92413e-05
2.0621e-05
3.76117e-05
2.51125e-05
3.54415e-05
2.95021e-05
3.24623e-05
3.32934e-05
2.82102e-05
3.56751e-05
2.19579e-05
3.54341e-05
1.27802e-05
3.08227e-05
1.81391e-05
1.61184e-06
4.04621e-08
3.5098e-06
-6.22247e-06
5.27493e-06
-9.82871e-06
6.88471e-06
-1.17168e-05
8.38766e-06
-1.2642e-05
9.8309e-06
-1.30253e-05
1.12473e-05
-1.31074e-05
1.26573e-05
-1.30303e-05
1.4072e-05
-1.28782e-05
1.54969e-05
-1.26999e-05
1.69338e-05
-1.25225e-05
1.83825e-05
-1.23588e-05
1.98413e-05
-1.22131e-05
2.13077e-05
-1.20841e-05
2.2779e-05
-1.19673e-05
2.42516e-05
-1.18561e-05
2.57218e-05
-1.17429e-05
2.71855e-05
-1.16195e-05
2.8638e-05
-1.14773e-05
3.00743e-05
-1.1307e-05
3.14887e-05
-1.10989e-05
3.28747e-05
-1.08423e-05
3.42251e-05
-1.0525e-05
3.55315e-05
-1.01332e-05
3.67844e-05
-9.65095e-06
3.7973e-05
-9.06e-06
3.90851e-05
-8.33899e-06
4.0107e-05
-7.46337e-06
4.10239e-05
-6.40534e-06
4.18205e-05
-5.1341e-06
4.24814e-05
-3.61608e-06
4.29922e-05
-1.815e-06
4.33401e-05
3.08185e-07
4.35143e-05
2.79364e-06
4.35055e-05
5.67912e-06
4.33045e-05
8.99427e-06
4.28994e-05
1.27533e-05
4.22697e-05
1.69444e-05
4.13751e-05
2.15156e-05
4.01349e-05
2.63526e-05
3.83917e-05
3.12454e-05
3.58476e-05
3.58374e-05
3.1958e-05
3.95647e-05
2.57872e-05
4.16049e-05
1.59084e-05
4.07015e-05
3.40475e-05
1.81102e-06
-1.77055e-06
3.85305e-06
-8.26451e-06
5.68271e-06
-1.16584e-05
7.30986e-06
-1.3344e-05
8.8041e-06
-1.41363e-05
1.0224e-05
-1.44452e-05
1.16094e-05
-1.44928e-05
1.29852e-05
-1.44062e-05
1.4366e-05
-1.4259e-05
1.57595e-05
-1.40933e-05
1.71686e-05
-1.39316e-05
1.85937e-05
-1.37838e-05
2.00332e-05
-1.36526e-05
2.14845e-05
-1.35354e-05
2.29443e-05
-1.34271e-05
2.44088e-05
-1.33206e-05
2.58736e-05
-1.32078e-05
2.73343e-05
-1.30802e-05
2.87857e-05
-1.29287e-05
3.02227e-05
-1.2744e-05
3.16395e-05
-1.25157e-05
3.30298e-05
-1.22326e-05
3.43866e-05
-1.18818e-05
3.57021e-05
-1.14486e-05
3.69674e-05
-1.09163e-05
3.81729e-05
-1.02655e-05
3.93077e-05
-9.47376e-06
4.03597e-05
-8.51542e-06
4.13162e-05
-7.36179e-06
4.2164e-05
-5.9819e-06
4.28909e-05
-4.343e-06
4.34865e-05
-2.41054e-06
4.39426e-05
-1.47956e-07
4.42537e-05
2.48255e-06
4.44155e-05
5.51731e-06
4.44238e-05
8.98599e-06
4.42714e-05
1.29057e-05
4.39432e-05
1.72726e-05
4.34063e-05
2.20524e-05
4.25917e-05
2.71673e-05
4.13588e-05
3.24783e-05
3.94294e-05
3.77669e-05
3.62621e-05
4.27319e-05
3.0803e-05
4.7064e-05
2.09308e-05
5.05738e-05
5.49782e-05
2.01752e-06
-3.78808e-06
4.17102e-06
-1.0418e-05
6.03909e-06
-1.35264e-05
7.66901e-06
-1.49739e-05
9.14798e-06
-1.56152e-05
1.05423e-05
-1.58395e-05
1.18965e-05
-1.58469e-05
1.32386e-05
-1.57483e-05
1.45859e-05
-1.56063e-05
1.59477e-05
-1.54551e-05
1.73282e-05
-1.53121e-05
1.87283e-05
-1.5184e-05
2.01467e-05
-1.50709e-05
2.15805e-05
-1.49693e-05
2.30263e-05
-1.48729e-05
2.44799e-05
-1.47741e-05
2.59366e-05
-1.46645e-05
2.73914e-05
-1.4535e-05
2.88391e-05
-1.43764e-05
3.02741e-05
-1.4179e-05
3.16908e-05
-1.39324e-05
3.30831e-05
-1.36248e-05
3.44441e-05
-1.32429e-05
3.57668e-05
-1.27713e-05
3.70431e-05
-1.21926e-05
3.82642e-05
-1.14867e-05
3.94208e-05
-1.06304e-05
4.05024e-05
-9.59702e-06
4.14978e-05
-8.35719e-06
4.2396e-05
-6.88005e-06
4.31873e-05
-5.13435e-06
4.38651e-05
-3.08828e-06
4.44258e-05
-7.08646e-07
4.48691e-05
2.03925e-06
4.51966e-05
5.18983e-06
4.54099e-05
8.77269e-06
4.55084e-05
1.28071e-05
4.54856e-05
1.72954e-05
4.53227e-05
2.22153e-05
4.49756e-05
2.75143e-05
4.43492e-05
3.31047e-05
4.32458e-05
3.88703e-05
4.12581e-05
4.47197e-05
3.74688e-05
5.08533e-05
2.88058e-05
5.92367e-05
8.3784e-05
1.29172e-06
-1.29172e-06
-4.13949e-08
1.33314e-06
-2.36484e-06
2.32345e-06
-4.78874e-06
2.42389e-06
-6.90579e-06
2.11704e-06
-8.48134e-06
1.57555e-06
-9.42109e-06
9.39763e-07
-9.79013e-06
3.69034e-07
-9.67348e-06
-1.16676e-07
-9.18391e-06
-4.89599e-07
-8.41432e-06
-7.69612e-07
-7.43246e-06
-9.81863e-07
-6.2929e-06
-1.13957e-06
-5.0425e-06
-1.25041e-06
-3.72317e-06
-1.31934e-06
-2.37329e-06
-1.34988e-06
-1.02866e-06
-1.34465e-06
2.76873e-07
-1.30553e-06
1.51321e-06
-1.23632e-06
2.64638e-06
-1.13317e-06
3.65018e-06
-1.0038e-06
4.499e-06
-8.48814e-07
5.1911e-06
-6.92111e-07
5.73874e-06
-5.47667e-07
6.10876e-06
-3.70038e-07
6.31119e-06
-2.02392e-07
6.36821e-06
-5.70053e-08
6.27005e-06
9.81412e-08
6.03594e-06
2.34108e-07
5.67857e-06
3.57394e-07
5.21121e-06
4.67342e-07
4.65447e-06
5.5673e-07
4.02809e-06
6.264e-07
3.34631e-06
6.81799e-07
2.63137e-06
7.14945e-07
1.90717e-06
7.24223e-07
1.209e-06
6.98163e-07
5.96506e-07
6.12476e-07
1.66356e-07
4.30134e-07
1.6635e-07
-3.31169e-07
-9.60522e-07
-2.15596e-06
3.15793e-06
-4.55842e-06
4.72591e-06
-6.8244e-06
4.68985e-06
-8.56674e-06
3.85939e-06
-9.70152e-06
2.71031e-06
-1.02964e-05
1.53462e-06
-1.04304e-05
5.02986e-07
-1.02038e-05
-3.43266e-07
-9.67603e-06
-1.01742e-06
-8.89967e-06
-1.546e-06
-7.92757e-06
-1.95399e-06
-6.8078e-06
-2.25934e-06
-5.58345e-06
-2.47474e-06
-4.29349e-06
-2.60931e-06
-2.97355e-06
-2.66985e-06
-1.65651e-06
-2.66169e-06
-3.72437e-07
-2.5896e-06
8.4969e-07
-2.45844e-06
1.98741e-06
-2.2709e-06
3.01885e-06
-2.03525e-06
3.93118e-06
-1.76116e-06
4.70197e-06
-1.46293e-06
5.3111e-06
-1.15679e-06
5.77469e-06
-8.3359e-07
6.08127e-06
-5.08961e-07
6.22401e-06
-1.99768e-07
6.22168e-06
1.00489e-07
6.07412e-06
3.81686e-07
5.79339e-06
6.38111e-07
5.39364e-06
8.67104e-07
4.88935e-06
1.06104e-06
4.29817e-06
1.21757e-06
3.64433e-06
1.33566e-06
2.94687e-06
1.41241e-06
2.22879e-06
1.44228e-06
1.51987e-06
1.4071e-06
8.6356e-07
1.26879e-06
3.27437e-07
9.66261e-07
4.93794e-07
-1.75279e-06
7.92279e-07
-3.91622e-06
5.32136e-06
-6.07049e-06
6.88017e-06
-7.91108e-06
6.53043e-06
-9.26848e-06
5.21679e-06
-1.01377e-05
3.57958e-06
-1.05727e-05
1.96959e-06
-1.06249e-05
5.55128e-07
-1.03486e-05
-6.1955e-07
-9.79517e-06
-1.57092e-06
-9.01385e-06
-2.32733e-06
-8.05219e-06
-2.91563e-06
-6.95383e-06
-3.35772e-06
-5.75862e-06
-3.66997e-06
-4.50285e-06
-3.86509e-06
-3.21973e-06
-3.95298e-06
-1.9397e-06
-3.94172e-06
-6.90475e-07
-3.83883e-06
5.02833e-07
-3.65173e-06
1.61941e-06
-3.38747e-06
2.64038e-06
-3.05622e-06
3.54978e-06
-2.67056e-06
4.33216e-06
-2.24532e-06
4.97154e-06
-1.79616e-06
5.46733e-06
-1.32936e-06
5.81578e-06
-8.57403e-07
6.01134e-06
-3.9533e-07
6.06101e-06
5.08471e-08
5.97076e-06
4.71942e-07
5.74913e-06
8.59719e-07
5.40829e-06
1.20792e-06
4.96056e-06
1.50877e-06
4.42171e-06
1.75643e-06
3.81195e-06
1.94543e-06
3.15146e-06
2.0729e-06
2.46197e-06
2.1318e-06
1.76676e-06
2.1023e-06
1.09173e-06
1.94382e-06
4.74526e-07
1.58346e-06
9.68326e-07
-2.70719e-06
3.49947e-06
-5.17422e-06
7.78839e-06
-7.21053e-06
8.91646e-06
-8.78054e-06
8.10044e-06
-9.88531e-06
6.32156e-06
-1.05602e-05
4.25444e-06
-1.08534e-05
2.26283e-06
-1.08085e-05
5.10214e-07
-1.04677e-05
-9.60366e-07
-9.87473e-06
-2.16395e-06
-9.07317e-06
-3.1289e-06
-8.1054e-06
-3.88341e-06
-7.01132e-06
-4.45181e-06
-5.82812e-06
-4.85318e-06
-4.59005e-06
-5.10318e-06
-3.32849e-06
-5.21454e-06
-2.07207e-06
-5.19814e-06
-8.46587e-07
-5.06432e-06
3.25e-07
-4.82331e-06
1.42289e-06
-4.48535e-06
2.42954e-06
-4.06287e-06
3.32984e-06
-3.57088e-06
4.11061e-06
-3.02606e-06
4.75945e-06
-2.44496e-06
5.27061e-06
-1.84053e-06
5.64078e-06
-1.22758e-06
5.8671e-06
-6.21628e-07
5.95247e-06
-3.45172e-08
5.90239e-06
5.22003e-07
5.72435e-06
1.03778e-06
5.42851e-06
1.50378e-06
5.02618e-06
1.91108e-06
4.5311e-06
2.25152e-06
3.95939e-06
2.51714e-06
3.32975e-06
2.70254e-06
2.66221e-06
2.79937e-06
1.97608e-06
2.78844e-06
1.28747e-06
2.63243e-06
6.08081e-07
2.26285e-06
1.57639e-06
-3.46276e-06
6.96222e-06
-6.20104e-06
1.05267e-05
-8.21205e-06
1.09275e-05
-9.61313e-06
9.5015e-06
-1.05222e-05
7.23061e-06
-1.10236e-05
4.75578e-06
-1.11773e-05
2.41656e-06
-1.10274e-05
3.60276e-07
-1.06113e-05
-1.37651e-06
-9.96611e-06
-2.80911e-06
-9.12984e-06
-3.96518e-06
-8.14006e-06
-4.87319e-06
-7.03337e-06
-5.55851e-06
-5.84481e-06
-6.04174e-06
-4.60713e-06
-6.34086e-06
-3.35055e-06
-6.47112e-06
-2.10262e-06
-6.44608e-06
-8.87957e-07
-6.27897e-06
2.71592e-07
-5.98284e-06
1.3571e-06
-5.57085e-06
2.35225e-06
-5.05803e-06
3.24329e-06
-4.46192e-06
4.01838e-06
-3.80114e-06
4.66739e-06
-3.09398e-06
5.18416e-06
-2.3573e-06
5.56511e-06
-1.60852e-06
5.80843e-06
-8.6493e-07
5.91587e-06
-1.41938e-07
5.89177e-06
5.46111e-07
5.74281e-06
1.18675e-06
5.47779e-06
1.76881e-06
5.10711e-06
2.28177e-06
4.64279e-06
2.71582e-06
4.09845e-06
3.06147e-06
3.49013e-06
3.31085e-06
2.83519e-06
3.45429e-06
2.14966e-06
3.47399e-06
1.44486e-06
3.33725e-06
7.25024e-07
2.9827e-06
2.30141e-06
-4.24606e-06
1.12083e-05
-7.24038e-06
1.3521e-05
-9.23095e-06
1.2918e-05
-1.04761e-05
1.07467e-05
-1.11938e-05
7.94824e-06
-1.15189e-05
5.08091e-06
-1.15289e-05
2.42647e-06
-1.12693e-05
1.00665e-07
-1.07723e-05
-1.87352e-06
-1.00678e-05
-3.51361e-06
-9.18731e-06
-4.84565e-06
-8.1638e-06
-5.8967e-06
-7.03091e-06
-6.6914e-06
-5.82203e-06
-7.25062e-06
-4.56918e-06
-7.59371e-06
-3.30217e-06
-7.73811e-06
-2.04828e-06
-7.69999e-06
-8.31739e-07
-7.49551e-06
3.26086e-07
-7.14067e-06
1.40688e-06
-6.65163e-06
2.39539e-06
-6.04655e-06
3.27908e-06
-5.34559e-06
4.04752e-06
-4.56955e-06
4.69236e-06
-3.73882e-06
5.20815e-06
-2.87308e-06
5.59167e-06
-1.99202e-06
5.84173e-06
-1.11497e-06
5.95972e-06
-2.59932e-07
5.94939e-06
5.56462e-07
5.81663e-06
1.31951e-06
5.5693e-06
2.01613e-06
5.21677e-06
2.6343e-06
4.76977e-06
3.16281e-06
4.24015e-06
3.59106e-06
3.64148e-06
3.90951e-06
2.98828e-06
4.10749e-06
2.29372e-06
4.16854e-06
1.56641e-06
4.06455e-06
8.028e-07
3.74631e-06
3.10422e-06
-5.30862e-06
1.65169e-05
-8.48709e-06
1.66994e-05
-1.03556e-05
1.47865e-05
-1.13771e-05
1.17682e-05
-1.18653e-05
8.43637e-06
-1.19963e-05
5.21189e-06
-1.18575e-05
2.28766e-06
-1.14902e-05
-2.66596e-07
-1.09161e-05
-2.44763e-06
-1.01546e-05
-4.27518e-06
-9.2291e-06
-5.77108e-06
-8.16739e-06
-6.95841e-06
-7.0004e-06
-7.85838e-06
-5.76056e-06
-8.49046e-06
-4.48008e-06
-8.87418e-06
-3.18943e-06
-9.02877e-06
-1.91652e-06
-8.97291e-06
-6.86125e-07
-8.7259e-06
4.80203e-07
-8.30698e-06
1.56435e-06
-7.73577e-06
2.55186e-06
-7.03404e-06
3.43125e-06
-6.22497e-06
4.19347e-06
-5.33178e-06
4.83179e-06
-4.37712e-06
5.34181e-06
-3.38308e-06
5.72119e-06
-2.37139e-06
5.96945e-06
-1.36321e-06
6.08811e-06
-3.78581e-07
6.08066e-06
5.63891e-07
5.95252e-06
1.44762e-06
5.71079e-06
2.25783e-06
5.36393e-06
2.98112e-06
4.92155e-06
3.60518e-06
4.39408e-06
4.11854e-06
3.79304e-06
4.51055e-06
3.1304e-06
4.77013e-06
2.41658e-06
4.88237e-06
1.65721e-06
4.82392e-06
8.48007e-07
4.55554e-06
3.95225e-06
-6.96434e-06
2.34812e-05
-1.00932e-05
1.98282e-05
-1.15941e-05
1.62874e-05
-1.22474e-05
1.24215e-05
-1.24373e-05
8.6263e-06
-1.23515e-05
5.12609e-06
-1.20678e-05
2.00387e-06
-1.16095e-05
-7.24846e-07
-1.09783e-05
-3.07881e-06
-1.01776e-05
-5.07589e-06
-9.22027e-06
-6.72844e-06
-8.12745e-06
-8.05122e-06
-6.9275e-06
-9.05834e-06
-5.65279e-06
-9.76517e-06
-4.33701e-06
-1.019e-05
-3.01274e-06
-1.0353e-05
-1.70986e-06
-1.02758e-05
-4.54854e-07
-9.9809e-06
7.29615e-07
-9.49144e-06
1.82512e-06
-8.83127e-06
2.81755e-06
-8.02646e-06
3.69626e-06
-7.10366e-06
4.45344e-06
-6.08896e-06
5.08382e-06
-5.0075e-06
5.58435e-06
-3.88361e-06
5.95387e-06
-2.74091e-06
6.19283e-06
-1.60219e-06
6.3033e-06
-4.89063e-07
6.28886e-06
5.78316e-07
6.15469e-06
1.58177e-06
5.90739e-06
2.50514e-06
5.55469e-06
3.33384e-06
5.10521e-06
4.05467e-06
4.56821e-06
4.65552e-06
3.95359e-06
5.12516e-06
3.27136e-06
5.45237e-06
2.53011e-06
5.62361e-06
1.7349e-06
5.61915e-06
8.86229e-07
5.40424e-06
4.83848e-06
-9.91616e-06
3.33973e-05
-1.21669e-05
2.20789e-05
-1.28123e-05
1.69328e-05
-1.28892e-05
1.24983e-05
-1.27069e-05
8.44401e-06
-1.23968e-05
4.81597e-06
-1.19956e-05
1.60266e-06
-1.14908e-05
-1.22965e-06
-1.085e-05
-3.71962e-06
-1.00535e-05
-5.87243e-06
-9.09949e-06
-7.68241e-06
-8.00121e-06
-9.14951e-06
-6.78391e-06
-1.02756e-05
-5.48119e-06
-1.10679e-05
-4.13001e-06
-1.15412e-05
-2.7672e-06
-1.17159e-05
-1.42664e-06
-1.16163e-05
-1.38218e-07
-1.12693e-05
1.07295e-06
-1.07026e-05
2.18736e-06
-9.94568e-06
3.19062e-06
-9.02973e-06
4.07249e-06
-7.98556e-06
4.82616e-06
-6.84266e-06
5.44774e-06
-5.62909e-06
5.93565e-06
-4.37152e-06
6.29019e-06
-3.09542e-06
6.51306e-06
-1.82501e-06
6.60716e-06
-5.83149e-07
6.57653e-06
6.08939e-07
6.4264e-06
1.73189e-06
6.16309e-06
2.76844e-06
5.79381e-06
3.7031e-06
5.32643e-06
4.52206e-06
4.76924e-06
5.21273e-06
4.13091e-06
5.7635e-06
3.42013e-06
6.16316e-06
2.64463e-06
6.3991e-06
1.81026e-06
6.45352e-06
9.21547e-07
6.29297e-06
5.76001e-06
-1.30909e-05
4.64882e-05
-1.42582e-05
2.32463e-05
-1.35236e-05
1.61982e-05
-1.28523e-05
1.18271e-05
-1.22851e-05
7.87682e-06
-1.1799e-05
4.32979e-06
-1.13607e-05
1.16433e-06
-1.09047e-05
-1.68558e-06
-1.0348e-05
-4.27638e-06
-9.6404e-06
-6.58e-06
-8.76154e-06
-8.56129e-06
-7.7139e-06
-1.01972e-05
-6.51896e-06
-1.14706e-05
-5.213e-06
-1.23739e-05
-3.83896e-06
-1.29152e-05
-2.4411e-06
-1.31137e-05
-1.06046e-06
-1.2997e-05
2.66958e-07
-1.25968e-05
1.51165e-06
-1.19473e-05
2.65166e-06
-1.10857e-05
3.67134e-06
-1.00494e-05
4.56016e-06
-8.87439e-06
5.31197e-06
-7.59445e-06
5.9241e-06
-6.2412e-06
6.39659e-06
-4.844e-06
6.73137e-06
-3.4302e-06
6.93169e-06
-2.02531e-06
7.00166e-06
-6.53115e-07
6.94611e-06
6.64474e-07
6.7706e-06
1.90739e-06
6.48142e-06
3.0576e-06
6.0855e-06
4.09903e-06
5.59016e-06
5.01742e-06
5.00296e-06
5.79994e-06
4.33168e-06
6.43479e-06
3.58417e-06
6.91068e-06
2.7679e-06
7.21535e-06
1.88996e-06
7.33148e-06
9.58441e-07
7.2245e-06
6.71845e-06
2.25392e-06
-6.042e-06
4.54696e-06
-1.2711e-05
6.47858e-06
-1.54581e-05
8.13575e-06
-1.66311e-05
9.62289e-06
-1.71024e-05
1.10141e-05
-1.72307e-05
1.23586e-05
-1.71914e-05
1.36884e-05
-1.70782e-05
1.50235e-05
-1.69413e-05
1.6375e-05
-1.68067e-05
1.77485e-05
-1.66856e-05
1.91452e-05
-1.65807e-05
2.0564e-05
-1.64897e-05
2.20022e-05
-1.64074e-05
2.3456e-05
-1.63266e-05
2.49207e-05
-1.62389e-05
2.63914e-05
-1.61352e-05
2.78625e-05
-1.60061e-05
2.93285e-05
-1.58424e-05
3.07836e-05
-1.56341e-05
3.2222e-05
-1.53708e-05
3.36377e-05
-1.50405e-05
3.50242e-05
-1.46294e-05
3.63748e-05
-1.41219e-05
3.76821e-05
-1.34999e-05
3.89384e-05
-1.2743e-05
4.01357e-05
-1.18276e-05
4.12648e-05
-1.07261e-05
4.23158e-05
-9.40818e-06
4.3279e-05
-7.84325e-06
4.41469e-05
-6.00227e-06
4.49159e-05
-3.85732e-06
4.55872e-05
-1.37994e-06
4.61662e-05
1.46031e-06
4.66609e-05
4.69508e-06
4.70802e-05
8.35345e-06
4.74313e-05
1.24561e-05
4.77186e-05
1.7008e-05
4.79413e-05
2.19926e-05
4.80885e-05
2.73672e-05
4.81296e-05
3.30636e-05
4.79989e-05
3.90009e-05
4.75713e-05
4.51473e-05
4.66655e-05
5.17591e-05
4.56501e-05
6.02521e-05
7.62506e-05
5.31836e-05
2.45988e-06
-8.50188e-06
4.87489e-06
-1.51261e-05
6.85892e-06
-1.74421e-05
8.53214e-06
-1.83043e-05
1.00143e-05
-1.85846e-05
1.13877e-05
-1.86041e-05
1.27072e-05
-1.85109e-05
1.40089e-05
-1.83799e-05
1.53159e-05
-1.82483e-05
1.66413e-05
-1.81321e-05
1.79916e-05
-1.80358e-05
1.93686e-05
-1.79577e-05
2.07713e-05
-1.78924e-05
2.21969e-05
-1.7833e-05
2.36414e-05
-1.77712e-05
2.51002e-05
-1.76977e-05
2.65677e-05
-1.76027e-05
2.80381e-05
-1.74765e-05
2.95053e-05
-1.73096e-05
3.09636e-05
-1.70924e-05
3.2407e-05
-1.68143e-05
3.38298e-05
-1.64633e-05
3.52258e-05
-1.60255e-05
3.65887e-05
-1.54848e-05
3.79119e-05
-1.48231e-05
3.9189e-05
-1.40201e-05
4.04135e-05
-1.30521e-05
4.15778e-05
-1.18905e-05
4.26733e-05
-1.05036e-05
4.3691e-05
-8.86097e-06
4.4625e-05
-6.93622e-06
4.54744e-05
-4.70673e-06
4.62448e-05
-2.1504e-06
4.69479e-05
7.57258e-07
4.7599e-05
4.04393e-06
4.82147e-05
7.73779e-06
4.88107e-05
1.186e-05
4.94025e-05
1.64163e-05
5.00061e-05
2.1389e-05
5.06411e-05
2.67321e-05
5.13339e-05
3.23707e-05
5.2127e-05
3.82078e-05
5.3121e-05
4.41533e-05
5.46706e-05
5.02095e-05
5.8113e-05
5.68097e-05
6.65892e-05
6.77743e-05
2.64847e-06
-1.11503e-05
5.19831e-06
-1.76759e-05
7.2481e-06
-1.94919e-05
8.9429e-06
-1.99991e-05
1.04197e-05
-2.00614e-05
1.17718e-05
-1.99562e-05
1.30616e-05
-1.98006e-05
1.43306e-05
-1.96489e-05
1.56051e-05
-1.95228e-05
1.69e-05
-1.94271e-05
1.82229e-05
-1.93587e-05
1.95759e-05
-1.93107e-05
2.0958e-05
-1.92745e-05
2.23663e-05
-1.92413e-05
2.37968e-05
-1.92017e-05
2.52445e-05
-1.91454e-05
2.67037e-05
-1.90619e-05
2.8168e-05
-1.89408e-05
2.96312e-05
-1.87727e-05
3.1087e-05
-1.85483e-05
3.25298e-05
-1.82571e-05
3.39539e-05
-1.78873e-05
3.53535e-05
-1.74251e-05
3.67228e-05
-1.6854e-05
3.80557e-05
-1.6156e-05
3.93473e-05
-1.53117e-05
4.0593e-05
-1.42978e-05
4.17874e-05
-1.30848e-05
4.29225e-05
-1.16388e-05
4.39899e-05
-9.9283e-06
4.49839e-05
-7.93024e-06
4.59059e-05
-5.62873e-06
4.67656e-05
-3.01009e-06
4.75808e-05
-5.79026e-08
4.83746e-05
3.25003e-06
4.91718e-05
6.94068e-06
4.99958e-05
1.10359e-05
5.08708e-05
1.55413e-05
5.18243e-05
2.04356e-05
5.28941e-05
2.56623e-05
5.41359e-05
3.1129e-05
5.56352e-05
3.67085e-05
5.75392e-05
4.22493e-05
6.01446e-05
4.76041e-05
6.41738e-05
5.27806e-05
5.8462e-05
7.2301e-05
2.82245e-06
-1.39728e-05
5.53313e-06
-2.03866e-05
7.66303e-06
-2.16218e-05
9.38065e-06
-2.17167e-05
1.08482e-05
-2.15289e-05
1.2174e-05
-2.12821e-05
1.34296e-05
-2.10562e-05
1.46622e-05
-2.08814e-05
1.59011e-05
-2.07617e-05
1.7163e-05
-2.06889e-05
1.84558e-05
-2.06515e-05
1.97817e-05
-2.06366e-05
2.11394e-05
-2.06323e-05
2.25262e-05
-2.06281e-05
2.3938e-05
-2.06134e-05
2.53697e-05
-2.05771e-05
2.68152e-05
-2.05074e-05
2.82678e-05
-2.03934e-05
2.97207e-05
-2.02257e-05
3.11678e-05
-1.99953e-05
3.26031e-05
-1.96925e-05
3.40214e-05
-1.93056e-05
3.54173e-05
-1.8821e-05
3.67852e-05
-1.82219e-05
3.81194e-05
-1.74902e-05
3.94164e-05
-1.66087e-05
4.06744e-05
-1.55558e-05
4.18905e-05
-1.43009e-05
4.3058e-05
-1.28064e-05
4.4168e-05
-1.10383e-05
4.52145e-05
-8.97673e-06
4.61999e-05
-6.61412e-06
4.71371e-05
-3.94734e-06
4.80499e-05
-9.70659e-07
4.89692e-05
2.33072e-06
4.99274e-05
5.98246e-06
5.09551e-05
1.00082e-05
5.20815e-05
1.44149e-05
5.33388e-05
1.91783e-05
5.47705e-05
2.42305e-05
5.64386e-05
2.94609e-05
5.84294e-05
3.47178e-05
6.08625e-05
3.98162e-05
6.39174e-05
4.45492e-05
6.7972e-05
4.87259e-05
5.22763e-05
7.41577e-05
2.99466e-06
-1.69675e-05
5.90588e-06
-2.32978e-05
8.11473e-06
-2.38306e-05
9.84045e-06
-2.34424e-05
1.12878e-05
-2.29762e-05
1.2582e-05
-2.25763e-05
1.38017e-05
-2.22759e-05
1.4998e-05
-2.20778e-05
1.62026e-05
-2.19663e-05
1.74324e-05
-2.19188e-05
1.86956e-05
-2.19147e-05
1.9994e-05
-2.1935e-05
2.13261e-05
-2.19643e-05
2.26888e-05
-2.19908e-05
2.40782e-05
-2.20029e-05
2.54896e-05
-2.19885e-05
2.69164e-05
-2.19343e-05
2.83516e-05
-2.18285e-05
2.97879e-05
-2.1662e-05
3.12191e-05
-2.14265e-05
3.26394e-05
-2.11128e-05
3.40435e-05
-2.07097e-05
3.54267e-05
-2.02042e-05
3.67836e-05
-1.95788e-05
3.81083e-05
-1.88149e-05
3.93986e-05
-1.78991e-05
4.0656e-05
-1.68131e-05
4.18814e-05
-1.55263e-05
4.30703e-05
-1.39953e-05
4.42132e-05
-1.21811e-05
4.53031e-05
-1.00666e-05
4.63425e-05
-7.6535e-06
4.73461e-05
-4.95097e-06
4.83421e-05
-1.96667e-06
4.9369e-05
1.30382e-06
5.04659e-05
4.88557e-06
5.16686e-05
8.80553e-06
5.30088e-05
1.30747e-05
5.45172e-05
1.76699e-05
5.62346e-05
2.25131e-05
5.82168e-05
2.74787e-05
6.05363e-05
3.23983e-05
6.32782e-05
3.70743e-05
6.65445e-05
4.12829e-05
7.04899e-05
4.47805e-05
4.7371e-05
7.53953e-05
3.21066e-06
-2.01781e-05
6.36686e-06
-2.6454e-05
8.59371e-06
-2.60575e-05
1.02787e-05
-2.51274e-05
1.16878e-05
-2.43854e-05
1.29499e-05
-2.38384e-05
1.41401e-05
-2.34661e-05
1.53093e-05
-2.32471e-05
1.64887e-05
-2.31457e-05
1.76944e-05
-2.31245e-05
1.89342e-05
-2.31545e-05
2.02096e-05
-2.32103e-05
2.15183e-05
-2.32731e-05
2.28577e-05
-2.33301e-05
2.42239e-05
-2.33691e-05
2.56123e-05
-2.33769e-05
2.70167e-05
-2.33386e-05
2.84293e-05
-2.32412e-05
2.9843e-05
-2.30756e-05
3.12514e-05
-2.28349e-05
3.26487e-05
-2.25101e-05
3.40296e-05
-2.20906e-05
3.53901e-05
-2.15647e-05
3.67249e-05
-2.09135e-05
3.80273e-05
-2.01174e-05
3.92961e-05
-1.91679e-05
4.05357e-05
-1.80527e-05
4.17523e-05
-1.6743e-05
4.29452e-05
-1.51882e-05
4.41059e-05
-1.33417e-05
4.52279e-05
-1.11887e-05
4.63139e-05
-8.73946e-06
4.73777e-05
-6.01476e-06
4.84481e-05
-3.03706e-06
4.95694e-05
1.82543e-07
5.07848e-05
3.67015e-06
5.21343e-05
7.45601e-06
5.36502e-05
1.15589e-05
5.53565e-05
1.59636e-05
5.72866e-05
2.0583e-05
5.94853e-05
2.528e-05
6.20084e-05
2.98751e-05
6.49093e-05
3.41734e-05
6.82297e-05
3.79625e-05
7.19872e-05
4.10231e-05
4.31949e-05
7.61633e-05
3.73043e-06
-2.39085e-05
7.00839e-06
-2.9732e-05
9.01495e-06
-2.8064e-05
1.05714e-05
-2.66839e-05
1.19346e-05
-2.57485e-05
1.31824e-05
-2.50861e-05
1.43679e-05
-2.46517e-05
1.55353e-05
-2.44144e-05
1.67121e-05
-2.43225e-05
1.79122e-05
-2.43245e-05
1.91434e-05
-2.43857e-05
2.04071e-05
-2.4474e-05
2.17013e-05
-2.45673e-05
2.30236e-05
-2.46525e-05
2.43703e-05
-2.47157e-05
2.57368e-05
-2.47434e-05
2.71169e-05
-2.47188e-05
2.85036e-05
-2.46279e-05
2.98901e-05
-2.44621e-05
3.12703e-05
-2.42151e-05
3.2638e-05
-2.38778e-05
3.39874e-05
-2.34401e-05
3.53145e-05
-2.28918e-05
3.66146e-05
-2.22136e-05
3.78816e-05
-2.13844e-05
3.91142e-05
-2.04004e-05
4.03165e-05
-1.92549e-05
4.14978e-05
-1.79244e-05
4.26643e-05
-1.63546e-05
4.38151e-05
-1.44926e-05
4.49521e-05
-1.23256e-05
4.6082e-05
-9.86934e-06
4.72154e-05
-7.14817e-06
4.83716e-05
-4.19331e-06
4.95887e-05
-1.03455e-06
5.09116e-05
2.34722e-06
5.23815e-05
5.98616e-06
5.40349e-05
9.90545e-06
5.58872e-05
1.41113e-05
5.79638e-05
1.85064e-05
6.02955e-05
2.29483e-05
6.29251e-05
2.72455e-05
6.58803e-05
3.12182e-05
6.91631e-05
3.46798e-05
7.27301e-05
3.7456e-05
3.94391e-05
7.64859e-05
5.45462e-06
-2.93632e-05
7.90165e-06
-3.2179e-05
9.14439e-06
-2.93068e-05
1.05284e-05
-2.80679e-05
1.18883e-05
-2.71084e-05
1.31745e-05
-2.63724e-05
1.44072e-05
-2.58844e-05
1.56185e-05
-2.56257e-05
1.68295e-05
-2.55335e-05
1.80528e-05
-2.55478e-05
1.92971e-05
-2.563e-05
2.05657e-05
-2.57427e-05
2.18593e-05
-2.58609e-05
2.3176e-05
-2.59692e-05
2.45115e-05
-2.60511e-05
2.58598e-05
-2.60918e-05
2.72157e-05
-2.60746e-05
2.85746e-05
-2.59868e-05
2.99319e-05
-2.58194e-05
3.12815e-05
-2.55646e-05
3.26169e-05
-2.52132e-05