/*--------------------------------*- C++ -*----------------------------------*\
  =========                 |
  \\      /  F ield         | OpenFOAM: The Open Source CFD Toolbox
   \\    /   O peration     | Website:  https://openfoam.org
    \\  /    A nd           | Version:  9
     \\/     M anipulation  |
\*---------------------------------------------------------------------------*/
FoamFile
{
    format      ascii;
    class       surfaceScalarField;
    location    "100";
    object      phi;
}
// * * * * * * * * * * * * * * * * * * * * * * * * * * * * * * * * * * * * * //

dimensions      [0 3 -1 0 0 0 0];

internalField   nonuniform List<scalar> 
167688
(
-0.0422035
0.025435
0.0167685
0.00801617
-0.0735535
0.0655373
0.0359259
0.0486587
-0.0845846
0.0393957
-0.0855075
0.0461118
0.107207
-0.091875
-0.015332
-0.0730314
0.0130953
0.0599362
0.0419306
-0.0246718
-0.0172588
-0.0384357
0.0778315
-0.125516
0.042533
0.0829831
-0.0261403
-0.0037032
0.0298435
-0.0516998
0.059716
-0.0616505
0.0349314
0.0267191
0.117575
-0.0899365
-0.0276384
-0.0464269
-0.0152236
-0.0373027
0.016956
0.0203467
0.0420882
0.0323321
-0.0744203
0.0192087
-0.00293422
-0.0162744
0.0211419
-0.0259584
0.00481658
0.0300596
0.0389331
-0.0689927
0.108525
-0.0663722
-0.0421528
-0.0836879
-0.0221783
0.105866
0.0480631
0.0515972
-0.0996603
0.0625978
-0.0325382
-0.0890531
0.0646766
0.0243765
0.0948083
-0.0196262
-0.0751821
-0.0797877
0.0321072
0.0476805
0.0123881
0.0103868
-0.0227749
0.07182
-0.080207
0.00838701
-0.0911599
0.0181285
-0.000589447
-0.0830984
0.011741
0.0691946
-0.0809356
0.0612252
-0.0581242
-0.003101
0.136136
-0.122183
-0.0139531
-0.0097943
0.00835394
0.00144036
-0.0714172
-0.0540989
-0.118322
0.0786717
0.0396505
0.0527622
0.0557627
0.00445651
-0.014077
0.00962049
0.0270775
0.0381562
-0.0652336
-0.0576022
-0.0369505
0.0945527
0.0341868
-0.0922852
0.0580984
-0.0637378
0.0141429
0.0495949
-0.0746228
-0.0108095
0.0854323
0.0654605
-0.0295346
0.0411048
-0.0199629
0.040536
-0.0672413
0.0267054
-0.00590288
-0.00389142
-0.0841546
-0.00491485
0.0890694
-0.0982656
0.0361813
0.0620843
-0.00203131
-0.0617065
0.0704314
-0.0291915
-0.0412399
-0.0263801
0.0234048
0.00297524
0.0906072
-0.0880325
-0.00257463
-0.0550372
0.0821147
0.00648151
-0.0703949
0.0639134
0.0227804
0.0191502
-0.0760913
0.046782
0.0293093
0.0635469
-0.0252228
-0.0383242
-0.0343011
0.00420934
0.0300918
0.0726964
-0.0321605
0.00852002
0.0326223
-0.0411423
-0.0295061
-0.0546484
0.117854
-0.0349768
-0.0828773
-0.000356139
0.11821
-0.00717257
-0.029564
0.0367365
0.126366
-0.0733466
-0.0530192
0.0142876
-0.00983111
0.109299
-0.088114
-0.0211852
-0.061174
0.00534762
0.0558264
-0.0859324
-0.0158104
0.101743
0.0458661
0.0176808
-0.00364866
0.00288097
0.000767688
-0.0621053
-0.0269477
-0.0268659
0.0212464
0.00561951
-0.013798
0.0417215
-0.0279234
-0.0094235
0.0124095
-0.00298596
0.0903582
-0.00564958
-0.0847086
-0.0194231
0.0463212
-0.0237963
-0.0225249
-0.0589412
0.00390393
0.013821
0.0691921
-0.0830131
-0.00217645
-0.00724705
0.0478475
0.0225839
-0.0637126
-0.016075
0.112093
-0.0700047
0.0158028
-0.0700615
0.0542587
0.071907
-0.0507711
-0.0211359
0.0672375
-0.060756
-0.000231277
0.00206333
-0.00183205
-0.06656
0.0847899
-0.0182299
0.136373
-0.0587848
-0.0775883
-0.0498299
-0.0684922
0.035355
0.0365521
0.0361758
0.0710312
0.0325614
-0.0463594
0.118494
-0.0281361
0.0757026
-0.0493768
-0.0263257
-0.0281783
-0.00912443
0.0787703
-0.0670293
-0.0593259
-0.0167654
0.059287
0.0582879
0.112674
-0.108306
-0.00436808
-0.092969
0.066894
0.026075
0.0633081
-0.102676
0.0393675
-0.00609275
0.0356274
-0.0295346
-0.0154964
0.00292092
0.0125754
-0.0484333
0.0412607
-0.0566685
0.0923871
-0.0357186
0.0782754
-0.117208
0.0389323
-0.0640342
0.079837
0.000244169
-0.00389283
-0.0460069
0.0477064
-0.00169949
0.0454468
0.0319041
-0.0773509
-0.0723402
0.0469995
0.0253408
-0.0754482
0.0142742
-0.0576232
0.0201979
0.0374253
0.042418
-0.00489333
-0.0375247
0.00607438
-0.072323
0.0662487
-0.00181491
0.00158363
-0.127886
0.0899585
0.0379274
0.0510213
-0.0822705
0.0312492
-0.00811403
0.079934
-0.0399099
0.0137696
0.0626739
-0.0856136
0.0229396
-0.0552058
0.0893925
-0.0199439
0.083252
-0.00214076
-0.0173285
0.0194693
0.00176896
0.0657876
-0.0675566
-0.0858918
0.0222186
0.0636732
0.0333393
-0.039432
-0.0265004
0.0891743
0.0303068
-0.0179187
0.0231575
0.0737871
-0.0969446
0.0208864
-0.00438252
-0.0165038
-0.01674
0.0548961
-0.103822
0.0462196
0.128476
-0.0908066
-0.0376698
0.103097
-0.0745162
-0.0285808
-0.0444922
-0.0279235
0.0724157
0.0576025
-0.00421311
-0.0533894
0.0400031
0.063094
-0.0726458
0.06259
0.0100558
-0.0697099
-0.000890255
0.0706002
-0.00834399
0.0132664
-0.0049224
0.0204099
-0.0770783
-0.0695794
0.0387693
0.0308101
0.0240092
0.00545374
-0.0294629
-0.115901
0.0370891
0.0788122
0.0754122
-0.0693378
-0.0880508
0.0863477
0.00170313
-0.0163869
0.000890571
-0.0340388
0.0821019
-0.0365681
0.0513893
-0.0148213
0.0070572
0.08355
-0.0877112
0.0432191
0.0706416
-0.0349879
-0.0356537
-0.0864135
0.0749584
0.0114551
-0.0253866
-0.0469536
-0.0365578
0.00225664
0.0375591
-0.00242015
-0.0351389
0.0983035
-0.0528566
-0.102071
0.0676558
0.0344149
0.00743151
0.0458746
-0.0533061
-0.0733966
0.0364529
0.0369437
-0.0866912
0.0941488
-0.00745759
0.0845836
-0.00556023
-0.0790234
0.0522061
0.00504776
-0.0572538
0.0223296
0.0388956
-0.0887729
0.00783644
0.0809364
-0.0563835
0.0603993
-0.00401576
0.017754
0.0427008
-0.0604547
0.0651947
0.00544692
0.0897856
-0.0823541
-0.0187102
0.0103662
-0.0161397
-0.047854
0.0639937
-0.0454766
-0.0824093
-0.0907067
-0.00755889
0.122344
-0.0304859
-0.0918577
0.0651937
-0.0505551
-0.0146386
-0.00390517
-0.0737212
0.0776264
-0.0524375
0.0362978
0.0836339
0.0202398
-0.103874
-0.115233
0.0127975
0.102435
0.0721987
-0.102156
0.0299573
-0.0720212
0.0439316
0.0280895
-0.0455278
0.0329758
0.012552
-0.0568749
-0.0451957
-0.00395912
-0.0827321
-0.073428
0.00371808
-0.0695311
0.0195135
0.0500176
0.0106211
0.0494607
-0.0600818
0.085411
0.0507252
-0.107405
0.0408455
-0.0200001
0.0710214
0.101317
-0.0479456
-0.0533711
-0.139363
0.096563
0.0428001
0.0595161
-0.0675785
0.00806237
-0.00400048
-0.0420065
0.10198
-0.0436811
-0.0582984
-0.029352
-0.0570614
0.00141294
-0.0133399
0.011927
-0.0179501
0.042274
-0.0243239
-0.0284211
0.0369411
0.0283174
-0.0813702
0.0530528
-0.0875301
-0.0216856
0.109216
-0.0347078
-0.0229154
-0.0194546
0.00430317
0.0151515
0.0198928
-0.0443844
0.0244916
0.0293382
-0.0101295
0.0753412
0.0160023
-0.0913435
-0.0985316
0.074814
0.0237176
0.114269
0.00249272
-0.116762
-0.0152962
0.0393054
-0.0176278
0.080289
-0.0045865
-0.020303
0.0401959
0.0554053
-0.0376514
-0.0564792
-0.00555264
0.0620319
-0.134621
0.0436388
0.0909823
0.0838812
-0.0307438
-0.0531374
-0.105322
0.0216876
0.0836344
0.0184737
-0.0434361
0.0249624
0.0955314
0.0308344
-0.00794451
0.0455036
0.0633029
-0.0135738
-0.0497291
-0.112827
0.0240539
0.0172043
0.0954697
-0.0182848
0.0470773
-0.0287925
-0.0418798
0.0701806
-0.0283008
0.0744578
-0.105494
0.0310362
-0.113375
0.0395389
0.0738362
-0.072646
-0.061975
-0.0424187
-0.0296024
-0.114876
0.0489664
0.0659098
0.029648
-0.000376945
-0.029271
-0.0656575
0.00796365
0.0576938
-0.0853772
-0.0539859
-0.0347035
-6.66092e-05
0.000407155
-0.000340546
-0.00186025
-0.00449307
0.00635332
-0.0601945
-0.0215815
0.0817759
-0.0378053
0.0489014
-0.0110961
0.113219
-0.0805424
-0.0326764
-0.116471
0.0562763
-0.0164982
-0.0670934
0.0835916
0.0396177
-0.00996968
0.0680238
0.00809715
-0.0761209
0.0296128
-0.0636763
0.0340635
0.120161
-0.0572821
-0.0628789
0.0216853
0.0621958
0.0247111
0.0353616
-0.0600727
0.102576
-0.0189422
0.0155305
-0.0121926
-0.00333785
0.092691
-0.0374265
-0.0552645
0.00347353
0.0560426
-0.00437716
-0.0836736
0.0584798
-0.0478587
-0.0914885
0.00559676
0.0150279
-0.00912363
-0.00590426
-0.0186081
0.0855021
0.0558278
0.00747511
0.0296936
-0.0287452
-0.000948387
0.0224931
0.0620905
-0.0160583
-0.0294695
-0.00299952
-0.0132166
0.0162161
-0.0770393
0.00750827
0.00159275
-0.0891229
0.0454106
0.076933
-0.00977984
-0.0325263
0.0423062
0.0414055
0.0678938
0.0635278
-0.0388167
-0.0270668
-0.0213275
0.0483943
0.0688415
0.0331381
-0.0330647
0.00668467
0.0330664
0.0425226
-0.075589
0.00552664
0.0277528
-0.0332795
0.0259397
0.0208669
-0.0468066
-0.000282105
0.000251666
3.04386e-05
-0.000259972
-2.21324e-05
0.00606993
0.00946056
-0.0025318
0.0808072
-0.0812735
0.0661863
0.0150873
-0.0225702
-0.0151688
0.037739
0.0550226
-0.0625196
0.00749703
0.101401
-0.0836729
-0.0177285
0.0322622
0.0329315
0.100963
-0.0263982
-0.0745649
0.12425
-0.0311222
-0.0931274
0.0851459
-0.083377
-0.0349569
0.0251771
-0.0960202
0.0501783
0.0458419
0.0106538
0.0601822
-0.070836
-0.0459176
-0.0301435
0.076061
0.111025
-0.0563317
-0.0546934
-0.0681158
-0.0467604
0.057422
0.0439795
-0.0533181
0.0687239
-0.0154058
0.0853936
-0.08424
-0.00115356
0.101713
-0.0598927
-0.0418203
0.104442
0.0319307
0.106486
-0.041381
-0.065105
0.0814678
-0.00926913
0.0243453
-0.0426301
-0.110011
0.102393
0.00761827
-0.0799378
0.062913
0.0170248
-0.0530615
0.076219
0.00274353
-0.117976
0.0531111
-0.074677
0.0215658
0.0861805
-0.0531141
0.000287774
-0.0727848
0.072497
-0.0206343
-0.0960967
0.0505599
0.0455368
-0.126646
0.0388064
0.0878391
-0.11134
0.0166168
0.094723
0.00198812
0.0426558
-0.0446439
0.0470966
-0.0286229
-0.0233709
-0.0350599
0.0584308
-0.0730231
0.00736557
-0.104885
0.0732175
0.0316675
0.0969395
0.00477351
-0.0838751
0.0673769
0.0216835
-0.000797115
0.0103331
-0.0310141
0.020681
0.105863
-0.0204697
0.0683306
-0.000306853
0.05359
-0.0865347
0.0329446
-0.0303647
-0.0422812
-0.0826423
0.00801951
-0.0587577
-0.0225158
0.0801794
0.0482969
-0.0666938
0.024814
-0.0616904
-0.00597275
0.0676631
0.0544062
-0.0119882
0.0664988
-0.000131708
-0.0663671
0.100345
-0.0425108
-0.0578343
-0.0185864
-0.0527429
0.0713293
-0.0216425
0.0961003
0.0474623
0.0500802
-0.0975424
-0.0127326
-0.0833641
-0.0393323
0.0114488
0.0278835
-0.00978315
0.0111961
-0.0220498
0.019909
0.110458
-0.0156493
-0.109156
0.0859633
0.0231924
-0.0912522
0.0357914
0.0554608
-0.0302897
0.0599025
-0.123054
0.0071527
0.0646921
-0.0544221
-0.01027
-0.00786181
-0.0485217
-0.0650595
0.0788805
0.00619369
0.018144
-0.0243377
0.0106526
0.0260715
-0.036724
-0.000235042
-0.0240037
0.0242387
0.0132232
0.00214906
-0.0153723
-0.0644356
-0.00254063
0.0669763
-0.0736552
0.00921958
-0.0185657
-0.00777483
0.0263406
-0.0849308
0.0810256
0.124576
-0.12451
-6.55858e-05
0.0165423
0.0228787
-0.0394211
-0.0333587
0.0109244
0.0224344
0.0537427
0.0708331
0.0832662
0.0170789
-0.00765967
0.00660846
0.00105122
0.0292272
0.0909338
0.000388545
-0.000455154
-0.0212536
-0.0180787
-0.01224
-0.0366874
0.0489275
0.079818
0.0266681
0.0487509
-0.0819383
0.0331873
-0.0278097
-0.00810893
0.0359186
0.00640719
-0.0342169
-0.0305852
-0.01321
0.0437952
0.0180829
0.0060599
-0.0241428
-0.000483257
0.000359979
0.000123278
0.127177
-0.0427264
-0.0844505
0.0695009
0.0576761
0.0781563
-0.0805057
0.00234939
-0.0321418
-0.00847151
0.0406133
0.105811
-0.051282
-0.054529
-0.0585411
-0.0681044
0.0876313
-0.0969373
0.00930603
0.0370544
-0.0205121
-0.0179068
0.0677106
-0.0498037
0.00512817
0.0479829
0.104644
-0.00669617
-0.0979477
0.0222598
0.0823842
0.00203509
-0.0585143
-0.0390934
0.0165233
-0.0294397
0.030994
-0.00155434
-0.0351848
7.84097e-07
0.035184
0.00582158
-0.0753523
0.0695307
-0.01661
0.0824041
-0.0657942
0.0288551
0.023646
-0.0525012
-0.0275237
0.000657776
-0.0837336
-0.0122866
-0.0992506
0.0656168
0.0336338
-0.0452527
-0.0219103
0.067163
-0.0164248
0.0134056
0.00301914
-0.0754616
0.0588516
0.00460141
0.0250922
-0.00737844
-0.0278064
-0.00416753
0.00453691
-0.000369383
0.0519706
-0.0213619
-0.0306088
0.0194228
-0.0755575
0.0561347
-0.0241968
0.0232222
0.000974541
0.0705551
-0.0357414
-0.0348138
0.00468868
-0.0906211
0.106196
-0.0223351
-0.0838613
0.111319
-0.0933503
-0.0179692
0.0693055
-0.00280664
0.0666365
-0.0902554
0.0236189
-0.0413693
-0.0449437
0.086313
0.0930324
-0.0263959
-0.0719629
0.0533765
0.0475792
-0.0680905
0.0205114
0.0310549
0.0432551
-0.07431
0.0534353
-0.0514472
-0.100338
0.0911322
0.0092059
0.055996
-0.0668461
0.01085
-0.0157141
0.0260472
0.0795195
-0.110768
0.0312486
0.0630495
0.00209389
-0.0651434
0.0832284
-0.0805281
-0.00270031
0.0896265
0.0113365
0.0650725
0.0113908
-0.0764634
0.00969713
-0.0428611
0.0331639
0.0977628
-0.0226998
-0.0750631
0.0319249
-0.0552958
0.027058
0.0434971
0.0539813
-0.0953506
-0.058227
0.0276418
-0.0713905
0.00801543
0.0633751
0.0150302
0.00360572
-0.0186359
0.00800189
-0.0327208
0.0247189
0.0241113
-0.0179177
0.0656079
0.0240841
-0.089692
-0.00427104
0.0689632
-0.00827425
0.006414
-0.0238811
-0.00232923
0.0262103
0.0621336
0.00293891
-0.0271058
0.074568
0.0738902
-0.0428353
-0.00631997
0.0232058
-0.0168858
-0.0939355
0.0098394
0.0840961
-0.131458
0.118468
0.0129905
-0.0248979
0.00633216
0.00832634
-0.0322074
-0.0795429
0.0178525
0.0202632
-0.0655159
0.0606865
-0.00308401
-0.0379954
0.0890564
-0.051061
0.0152579
0.0642615
-0.0137722
0.0687948
-0.0112585
0.0648485
0.00423878
-0.00218898
-0.0020498
0.0672576
-0.0847357
0.0174781
-0.0523569
0.0806743
0.030052
0.0191798
-0.0492318
-0.0742209
0.0745087
0.0315906
0.0746059
-0.0587548
-0.0108246
0.0666199
-0.0559662
0.0657194
-0.0594564
-0.00626299
-0.00565209
-0.0321532
0.0593267
0.028621
-0.0879478
0.07103
0.00948523
-0.0805152
0.0502279
0.00174276
0.0431096
-0.0890272
0.0981471
-0.0377243
-0.0604228
0.0144695
0.0731618
0.0538623
0.0604069
-0.0837518
0.0123613
-0.0699666
0.00257885
0.0673878
-0.0117309
0.0443323
-0.0326014
-0.026285
-0.0374287
0.0637137
0.132917
-0.0802548
-0.0526624
-0.0372261
-0.0680958
-0.0885558
0.092374
-0.00381827
-0.0240499
-0.0872899
0.020907
-0.00768381
0.00053408
-0.000441872
-9.22079e-05
-0.0675347
0.0496279
0.050745
-0.00442381
-0.0163616
-0.0505229
0.0668845
0.00819568
0.0068322
-0.0205542
-0.0252683
0.0458225
-0.0807263
-0.0105259
0.0545779
0.0586409
0.0496848
0.0832323
0.0929022
-0.0340483
-0.0588539
0.0502994
-0.0569492
0.00664984
-0.0310852
-0.0488526
-0.0338837
0.0932105
0.0439404
-0.0342432
-0.0883693
-0.00435169
0.092721
-0.121406
0.0945165
0.0268891
-0.0890899
0.0144407
0.0746492
0.113734
-0.00270879
0.116352
-0.0606082
-0.0557441
-0.0343383
-0.0348668
0.0692051
0.0961451
0.0202072
0.00607345
-0.0944428
-0.00310005
-0.0502181
0.128131
-0.0674645
-0.0606669
-0.0892567
-0.0127863
0.102043
0.142131
-0.0484509
-0.0936799
0.0252187
0.0124981
-0.0377168
0.115012
-0.11028
-0.00473209
0.10551
-0.0344802
0.0215624
-0.00918035
0.0226347
-0.0134543
0.0130442
0.0428488
-0.055893
0.0440627
0.0672568
-0.000785097
0.0102413
-0.00945625
-0.0724441
0.0826545
-0.0102104
0.045951
-0.118395
0.107066
-0.0141642
0.0145061
-0.0208261
-0.0156226
-0.0367008
0.0523234
0.0904852
-0.0266986
-0.0637866
-0.0191313
-0.0408538
0.059985
0.0641568
0.0600927
-0.0906243
0.085667
0.00495729
-0.026403
-0.0219992
0.0484022
-0.000259503
0.0261001
-0.0258406
-0.0939792
-0.0185868
0.112566
-0.0189688
-0.000485882
-0.0974289
0.00887312
0.112255
-0.0814636
-0.0307918
-0.0944319
0.0564365
0.0195797
0.0585766
-0.00185819
0.0162067
-0.0143485
-0.0192103
0.0162107
-0.124022
0.0593384
0.0646834
0.0607744
-0.0275108
-0.0332636
-0.0274854
0.0772158
-0.0497304
0.00654746
-0.0120269
0.00547948
-0.0987542
0.0868336
0.0119205
0.12603
-0.0141239
-0.111906
0.111882
-0.0462739
0.0865444
0.0394854
-0.00513765
0.0116851
0.0381882
-0.0271973
-0.0109909
-0.0699902
0.0161183
0.0538719
-0.0582292
-0.0668914
-0.00309879
0.0380335
-0.0518914
0.0138579
0.0635183
-0.00752227
-0.0178424
-0.0623568
0.0801992
0.0290856
0.00910263
-0.0837801
0.00329593
0.0804841
0.0385066
0.0346149
-0.0731215
0.0212911
-0.047919
0.0266279
-0.0586879
-0.0627178
-0.0364409
-0.0727149
0.0254995
0.0128803
-0.0383797
0.0582557
0.0958786
0.0362086
-0.0282067
-0.000569185
0.00174589
-0.00117671
-0.0976708
0.106922
-0.00925156
0.0692781
-0.0905711
0.021293
-0.0626216
0.0282832
-0.00722123
-0.000438443
0.0208203
-0.111445
-0.0804913
0.0769446
0.00354677
2.64011e-05
0.000225265
-0.0831963
0.0668346
-7.0695e-05
-0.000189277
0.0599898
-0.0160707
-0.0439191
0.0309097
-0.0426406
-0.0706456
-0.00107319
0.0717188
-0.00671444
-0.0253855
0.0321
0.110286
-0.029081
-0.0812052
-0.0583297
0.0996859
-0.0413563
0.0729926
-0.009601
-0.0633916
-0.0654362
-0.0045305
0.0968367
-0.0446306
-0.0296068
0.00540998
-0.0136352
-0.0867029
-0.047792
-0.0836662
-0.0657588
0.0290448
0.036714
-0.0197596
0.0826429
-0.0628833
-0.0137365
0.0618561
-0.0481196
-0.0132017
-0.0807775
-0.0428903
0.0484645
-0.00557422
0.000666916
0.0373666
-0.0825546
-0.00705086
0.0896055
0.000251929
0.0556302
-0.0558822
0.0850222
-0.0120296
0.0255553
-0.0591385
0.0335833
-0.0155837
0.127839
0.0687412
-0.043186
0.0889779
0.0168331
0.0119148
0.0713136
0.0755093
-0.0915331
0.0160238
0.0186805
-0.0724984
0.0538178
-0.0482807
0.0883204
-0.0400398
0.0606226
0.0406941
-0.0354346
-0.0468041
0.0822387
-0.0136335
-0.0419821
0.0556155
0.0197076
0.0460118
-0.00239958
-0.0480115
0.050411
0.0916412
0.00104978
-0.0501773
0.0237743
0.0644906
0.0165458
-0.0810364
0.0924722
-0.0223212
-0.070151
0.0384863
-0.0340308
-0.00445545
-0.14246
0.0486777
0.0937827
0.00729145
-0.0590876
0.0517961
-0.0526425
-0.00534298
0.0579854
0.0136503
-0.0793159
0.0656656
-0.0897221
0.0375244
0.0521977
0.0136471
0.00693855
-0.0205856
-0.112635
0.0288546
0.0942477
0.0913098
-0.0402055
-0.0511043
0.0459801
-0.0596135
0.0245587
-0.0472113
-0.00813036
0.0553417
-0.0928563
0.0712674
0.0215889
-0.0408608
-0.0691503
-0.0643904
0.0780407
-0.016279
-0.0729778
-0.0131515
0.0383702
0.106795
-0.0582569
-0.0485386
-0.0813853
0.0470848
0.0343005
-0.0229074
0.0716584
-0.0554467
0.0432067
-0.00658563
-0.00983913
8.51879e-05
5.73213e-05
-0.000142509
0.0917632
-0.0638155
-0.0279477
-0.00361526
-4.35923e-05
0.00365885
0.0668607
-0.00996161
-0.0568991
-0.0993671
-0.0246546
0.116764
-0.0632549
-0.0535088
0.100457
-0.0335966
0.10227
-0.100812
-0.00145829
0.058392
-0.0781516
-0.116958
0.0670192
0.0499392
0.032529
0.069741
-0.0987518
0.0825223
0.0162296
-0.0282338
-0.0522575
-0.0280255
0.0299462
-0.00192066
-0.0263799
0.0331952
-0.00681528
-0.0154537
0.0145477
0.000906042
-0.00137676
-0.0406294
0.0420062
0.0011458
-0.00171498
-0.0437343
-0.0459878
-3.18405e-05
0.00056592
-0.0533221
0.0919593
-0.0386372
0.038925
-0.0778121
0.0388871
-0.0447731
0.0402138
0.00455934
-0.0394163
0.0783413
-0.0171962
0.0864742
-0.0732976
0.032455
0.0408426
-0.0426937
0.0573315
-0.0146377
-0.0704902
0.0383484
0.0696732
-0.0167015
-0.0529717
0.0395138
0.017913
-0.0574268
-0.0413808
0.040004
0.112491
-0.014728
0.0430216
-0.0137329
-0.0292887
0.0715153
0.00611345
-0.0776288
-0.061382
-0.029411
0.090793
-0.0601471
0.0129358
0.029078
-0.0357925
-0.0698617
-0.0725987
0.0230669
-0.0713476
-0.0719365
0.0563446
0.0155919
-0.0218391
0.0431302
0.09913
-0.0619274
-0.0372027
-4.64474e-05
0.0209678
-0.0209214
0.0975098
-0.046642
-0.0508678
0.111851
-0.0401668
-0.0716841
0.0394522
0.0284922
-0.0679444
-0.0220155
-0.0227577
0.00990408
0.000752665
-0.0106567
0.0945854
0.0204829
0.0705352
-0.0910181
0.00648736
-0.0598095
-0.0223431
0.0784914
-0.0561483
-0.0150953
0.041035
0.104131
-0.023347
-0.0807837
-0.0582666
0.0403165
-0.069677
-0.00202639
0.0717034
0.060597
-0.0960316
-0.0397668
0.0378622
0.00190455
-0.0434688
0.056513
-0.0282252
-0.0483889
0.0766141
-0.0905669
0.0722964
0.0182705
0.0450174
0.0295889
-0.0746063
0.0464015
0.00712704
-0.0535286
-0.034328
0.00794806
0.0340721
0.00894946
0.0108244
-0.0200048
-0.0586007
0.0311729
0.0274278
0.0813871
-0.00732955
-0.0740576
0.0411967
-0.0356701
-0.0655878
0.0728793
-0.0811552
0.127324
-0.0461687
0.00164152
-0.0445318
0.00931476
-0.09047
-0.0996398
0.0382578
0.0448283
-0.00399959
-0.0408288
-0.0987518
-0.0876645
0.0698221
-0.000530838
-0.00115123
0.00168207
0.0453917
-0.0736169
0.049275
-0.019223
-0.00974496
-0.0481647
0.0579097
0.0543017
-0.0766448
-0.0660615
0.0587021
0.00735943
-0.0616496
0.0674711
-0.0373646
0.0624561
-0.0250915
-0.0452854
-0.0133154
0.08563
-0.0662072
-0.0542107
-0.0211467
0.0753574
0.0468601
0.0605083
-0.107368
-0.0876912
0.0519584
0.0357327
0.0294465
0.0458465
-0.0752929
-0.0386575
-0.0590133
0.0541459
0.00259458
-0.0567405
0.0332424
0.08177
0.0815858
-0.042072
-0.0342825
-0.0314764
0.0055758
0.0133304
-0.0189062
0.00670336
-0.0878085
0.0811052
-0.0325843
0.00589607
0.0266882
0.0887371
-0.0909892
0.00225211
0.00398781
0.0289585
-0.0329463
0.0144431
-0.0163013
0.0356605
-0.0889326
0.0532721
0.0518657
0.025572
-0.0774378
-0.0278973
-0.0890611
-0.00339807
0.0170452
0.0672778
-0.0844869
0.0172091
-0.0906783
-0.000556347
0.0912347
0.0339511
0.0253993
-0.0593504
-0.0514148
0.0497214
0.00169344
-0.0147456
-0.0743443
0.0143789
-0.005086
-0.00929289
0.0563263
-0.00992474
0.0242216
-0.0182765
-0.00594506
0.0828149
-0.0197654
0.0204783
-0.0659367
0.0454584
-0.0681745
0.0155321
0.0984271
-0.0348765
-0.0635506
-0.0253295
0.0647816
-0.057225
0.104643
-0.0474182
0.104442
0.00775446
-0.112197
-0.0665916
-0.00832875
0.0749203
0.00947694
-0.0814135
0.101625
-0.070391
-0.0312341
-0.0387259
0.0564807
-0.0177548
0.0985779
-0.0467122
-0.059063
0.0795459
0.0362229
-0.0364579
0.0138254
-0.0824399
0.0686145
-0.0916943
0.0251027
0.0188872
-0.0191467
0.0727178
-0.00304458
0.0651992
-0.0347093
-0.0304899
-0.0273275
0.0157723
0.0115552
0.00914907
-0.00993417
-0.0282741
-0.0542806
0.0952389
-0.0702141
-0.0250247
0.0117155
-0.0743051
0.0625895
-0.113177
0.0334332
0.0797442
0.0191592
0.0852833
0.0813539
-0.0140761
0.023071
0.0512588
-0.0743298
-0.131153
0.0605502
0.0706032
-0.0973733
-0.0337801
-0.0422041
0.070031
-0.0278269
0.00605502
-0.00654914
0.000494124
-0.0756901
-0.0182119
0.093902
-0.0052172
-0.0679082
0.0731254
0.0375946
-0.0269421
0.0052253
-0.0391807
0.0339554
0.0391383
-0.0391847
-0.116954
0.00377625
0.0914364
-0.0727558
0.0118427
-0.0204738
0.00863113
0.0850405
-0.00383379
-0.0812068
0.0394646
-0.0894524
0.0499878
-0.0351285
0.0828877
-0.0477591
-0.125807
0.0533407
0.0724662
0.0372415
-0.0320162
0.0424543
-0.118144
0.0348447
-0.0665545
0.0317098
-0.102795
0.0647585
0.0380368
0.0569465
-0.0417611
-0.0151854
0.104855
-0.052441
-0.052414
-0.00230706
-0.067501
0.0698081
-0.0268509
-0.00650788
0.090953
0.0131777
0.0306645
-0.0628738
0.0322094
0.085309
-0.0458444
-0.0305074
-0.0564356
0.086943
-0.0381522
0.00550016
0.0326521
-0.0711866
-0.0546203
0.077209
0.021921
0.00550337
0.00114506
-0.00664842
-0.0776208
0.0893364
-0.063414
0.0189293
0.0444847
-0.0780124
0.0509456
0.00117275
0.0621687
-0.0633414
-0.0416597
-0.0448112
0.0864709
-0.0368934
0.0391862
-0.00229277
0.00695105
0.081786
-0.0520555
-0.0293298
-0.0598187
0.0392645
-0.0423615
-0.0563926
-0.0640114
0.00342596
0.0605854
0.0139019
0.0778613
0.0356848
0.0567874
0.0286923
-0.0840234
0.0553312
0.0619591
0.042896
-0.0139226
-0.0462414
0.060164
-0.0801287
0.0312853
0.0488434
-0.0966768
0.0189865
0.0776903
-0.094012
0.0190415
0.0749705
-0.0417089
-0.0524912
0.0942002
-0.00642491
0.00225738
-0.00692991
-0.0296382
-0.0782622
0.0542924
0.0239698
-0.00208641
0.0562323
0.114229
-0.103864
-0.0103655
-0.0474512
0.0761435
0.034392
-0.0163091
-0.00500748
0.031769
-0.0267615
-0.0311521
0.0985447
-0.0673927
0.0018343
-0.00236514
0.0611363
-0.0696306
0.0084943
-0.0929925
0.0613139
0.0316786
-0.073248
-0.0234782
0.0967261
0.010107
-0.0488329
-0.0687023
-0.00955987
0.0454479
-0.0766
-0.000129253
-0.000354004
-0.00703182
0.0403462
-0.0333144
0.0972869
-0.0678405
-0.0605356
-0.0422596
0.0703735
-0.0945839
0.0242105
-0.00279255
-0.00136061
0.00415316
-0.0499158
-0.0377754
-0.0183537
-0.0264883
0.0448419
0.0478069
-0.0953579
0.0475509
-0.0316589
0.0665036
-0.0747755
0.0759483
-0.0235972
-0.00373024
-0.0412777
0.0890846
-0.0769501
0.0129387
0.0711789
-0.0664256
-0.00475329
-0.0466836
0.0312749
0.0154087
-0.0820509
0.0958764
-0.00790763
0.0637085
-0.0558009
0.0950814
0.0167695
0.0152549
-0.00535081
-0.0441503
0.0796702
-0.03552
0.0993342
-0.0344881
-0.0648461
0.0463957
0.0105508
0.0106507
0.0493392
-0.0376671
-0.0553254
0.020092
-0.09334
-0.0506027
0.032249
0.035204
0.107861
-0.0103516
-0.0184232
0.0593201
-0.0408968
0.0704684
-0.0440024
-0.026466
0.000860565
-0.0435543
0.00488097
0.00981771
-0.0146987
0.00579426
-0.00311307
-0.00268118
-0.0666244
0.0642248
0.051732
-0.0596396
-0.0477863
-0.0507453
0.00860534
0.0195971
-0.0282024
0.0567803
-0.0261158
-0.0883549
0.0727589
0.015596
-0.104716
0.0695875
-0.0205695
-0.0561783
0.0767478
-0.0596788
-0.0452062
-0.091986
0.00397214
0.0880139
0.0909397
0.00839447
-0.0517008
0.0584041
-0.0361935
0.0052044
0.0309891
-0.116714
0.0681283
0.0485861
0.113514
-0.0380785
-0.0754356
-0.0394638
0.00687954
0.0760523
-0.0760523
0.0635417
-0.0940491
0.0322445
-0.0172143
-0.0459118
0.0346263
0.0112854
-0.0781981
0.0784501
0.00505359
-0.0747306
-0.00760795
0.0133045
-0.00569657
-0.0866477
0.0675164
0.00310016
0.00113861
0.0767764
-0.0113559
-0.0654204
0.0884383
0.00998888
0.0685985
-0.0145898
-0.0540087
-0.0953393
0.0381143
-0.0844301
0.0352934
0.0491368
-0.0171308
-0.028781
0.0723954
-0.115128
0.0427329
-0.00864355
-0.0564111
0.0650546
0.0878191
-0.0785298
-0.00928932
0.0994377
-0.0943545
-0.00508313
-0.0261868
-0.00240234
0.0285891
0.0626765
-0.0739719
0.0112954
0.0152643
-0.0573046
0.0420402
0.0483357
0.0651783
-0.000650235
0.00670525
-0.0253268
0.0027757
0.0225511
0.0856212
-0.0387611
-0.0886126
0.0893133
-0.000700688
0.0597336
-0.101816
0.0420825
0.0769053
0.033688
-0.110593
0.00761194
0.0761993
-0.0838112
-0.105664
0.0850944
0.0921405
-0.0337374
-0.0584031
0.0933521
-0.0243203
-0.0690318
-0.0685776
-0.0278162
0.0963938
0.0326125
0.0591936
-0.0918061
-0.00587216
-0.0703161
0.0761883
0.0863178
0.00206648
-0.0883842
0.131381
-0.0504199
-0.0809616
-0.0608131
0.100854
-0.040041
-0.132596
0.0745859
0.0580105
-0.102921
0.0265644
0.076357
0.0812398
-0.0787654
-0.00247445
-0.0691468
0.0639296
0.0232517
-0.077503
0.0542513
-0.00632205
0.0787175
0.000118533
-0.0250573
0.0249388
-0.0352948
0.1122
0.0389926
0.0355986
-0.0745912
-0.087106
-0.0161082
0.103214
0.0418703
0.0189041
0.0833388
-0.064679
-0.0186598
0.133011
-0.0273752
-0.105636
-0.0675579
0.0341624
0.0333955
0.0474385
-0.0465875
-0.000851027
0.105492
-0.0337524
-0.0717396
-0.0299446
0.102135
-0.07219
-0.033775
-0.0500502
0.0838252
0.0775189
-0.0335872
0.0171804
0.00991797
-0.0270983
0.00927896
0.00305475
-0.0123337
0.0466835
0.000315995
-0.0885253
0.0178981
0.0706272
0.06808
-0.0944588
0.0263788
0.0452378
-0.000672028
-0.0445658
-0.0260667
0.0431287
-0.017062
0.0934448
0.00818022
0.0806237
-0.0449632
0.0972233
-0.0428027
-0.0544206
-0.0157538
-0.0234846
0.0392384
0.115688
-0.0591993
-0.0564883
0.0143658
0.0674719
-0.0818377
0.0352762
0.0295051
-0.0647813
-0.125475
0.0523624
0.0731127
0.0611877
0.0301667
-0.0913544
-0.0981392
0.0380239
0.0601153
-0.00366044
0.00366044
-0.0109689
0.116461
0.000622098
-0.000513309
-0.000108789
0.0290575
0.0573673
-0.0864248
0.0599557
-0.0323498
-0.0276059
-0.0905088
0.0366729
0.0538359
-0.0530972
-0.0464972
0.0995944
-0.0518864
0.0547151
-0.00282868
-0.00630911
-0.0617999
0.0681091
0.0136466
0.0668947
-0.0805413
-0.0507018
0.0592334
-0.00853168
0.00459991
0.0227599
-0.0273598
-0.0514523
0.0900941
-0.0386417
0.009184
-0.0338558
-0.111807
0.0488455
0.0629612
-0.00489604
0.0794052
-0.0745092
0.102908
0.0010649
-0.103973
-0.00412352
0.00280502
0.0013185
0.0182436
0.0459846
-0.0642282
0.048921
-0.0575646
-0.0222296
0.092603
0.0291773
-0.0528341
0.0236568
-0.0508416
-0.0167163
-0.0292811
-0.0537783
0.0830593
0.0845636
-0.0701552
-0.0144084
0.0265183
-0.0440026
0.0174843
0.0612413
0.0416665
0.0380099
0.0494975
-0.0875074
-0.103916
0.0288749
0.0750408
-0.0498933
-0.0528939
0.102787
-0.0203721
0.0632137
-0.0428415
-0.000486121
0.052831
-0.0523449
0.0969937
-0.0510252
-0.0459685
0.0235081
-0.0735015
0.0499934
0.112801
-0.0533788
-0.0594225
0.0800852
-0.0174087
0.0855625
-0.0340528
-0.0515097
-0.110314
0.043892
0.0664216
0.0526581
-0.102286
0.0496279
-0.018871
0.0028362
0.0160348
0.0823819
-0.00560558
-0.00206207
-0.0330086
0.0350706
0.0768375
-0.0995838
0.0227463
0.0596194
0.0244673
-0.0840867
-0.0102636
0.0277661
-0.0175025
0.0106815
-0.0521908
0.0415093
-0.135539
0.0785063
0.0570331
0.0729088
-0.0952253
0.0223165
0.0619253
-0.0220568
-0.0398685
0.0482139
-0.0193945
-0.0288194
-0.0565895
0.00366956
0.0529199
-0.0909436
0.077287
0.0136566
-0.10756
0.0404665
-0.0831424
0.0512373
0.0319051
-0.0364903
0.0546109
-0.0181206
0.0188762
0.00773391
-0.0266101
0.000246215
0.0459726
-0.0462188
0.132033
-0.0765602
-0.0554733
0.0679997
-0.0530469
-0.0149528
-0.0140388
-0.0132053
0.027244
-0.00739144
0.0998307
-0.0924393
-0.0690547
0.0311005
0.0379542
-0.0263594
-0.0445539
0.0709133
-0.0706726
-0.0189332
0.0896058
-0.0343797
0.00494006
0.0772931
-0.100217
0.0229241
0.0932474
-0.0643177
-0.0289297
-0.0821114
0.0887168
-0.00660534
-0.127867
0.0658749
0.061992
0.0128191
-0.0129234
0.00010424
0.0302934
-0.0246229
-0.00567053
0.057755
-0.0691553
0.0114003
0.0978152
-0.0791669
-0.0186483
-0.00875824
-0.0553142
0.0640725
0.0686152
0.0313848
0.0309516
0.00370832
-0.0346599
0.0225021
0.0635058
-0.0860079
0.0371884
-0.0310404
-0.00614793
0.0394557
0.00243327
-0.041889
0.086006
0.0267953
0.10797
-0.11493
0.00696021
-0.0710932
-0.000610854
0.0717041
0.094993
-0.0113006
-0.0836923
-0.0469697
0.0130594
0.0339103
0.0133293
0.0946406
0.0572389
0.00443474
-0.0616736
0.103288
0.00638091
-0.109669
0.0807434
0.014255
-0.0949984
0.0479063
0.0244594
-0.0723656
0.0399761
0.0280702
-0.0680463
0.00479608
0.0984923
0.0889025
-0.00421084
-0.0846917
0.0844732
0.0105198
-0.07383
0.0290872
0.0447428
0.042102
-0.0456103
0.00350834
-0.0374986
0.0341207
0.00337799
0.0646121
-0.0355795
-0.0290326
-0.00854674
-0.00153347
0.0100802
0.0430457
0.0221535
-0.0600326
0.040157
0.0198756
-0.0364683
0.069995
-0.0335267
0.0277001
0.012885
-0.0405851
-0.10645
0.107049
-0.000598725
-0.052154
0.0191586
0.0329954
-0.0156233
-0.062694
0.0783173
0.0381154
-0.0634112
0.0252958
0.0390584
-0.034205
-0.00485344
0.0997883
-0.107547
0.00775857
0.0216659
-0.0226645
0.000998562
-0.0166249
-0.0641034
0.0807283
0.0404925
-0.083806
0.0433135
0.0408681
-0.018282
-0.0225862
0.031965
-0.0458876
0.0568527
-0.0885991
0.0317465
0.118424
-0.018011
-0.100413
-0.114273