/*--------------------------------*- C++ -*----------------------------------*\
  =========                 |
  \\      /  F ield         | OpenFOAM: The Open Source CFD Toolbox
   \\    /   O peration     | Website:  https://openfoam.org
    \\  /    A nd           | Version:  9
     \\/     M anipulation  |
\*---------------------------------------------------------------------------*/
FoamFile
{
    format      ascii;
    class       volVectorField;
    location    "100";
    object      U;
}
// * * * * * * * * * * * * * * * * * * * * * * * * * * * * * * * * * * * * * //

dimensions      [0 1 -1 0 0 0 0];

internalField   nonuniform List<vector> 
112055
(
(0.478216 0.0165509 0)
(0.503618 -0.00488134 0)
(0.527183 0.000228564 -2.4584e-20)
(0.53316 -0.00571342 7.27665e-21)
(0.530745 0.0227823 -3.71249e-21)
(0.499714 0.00469469 0)
(0.479451 0.0159072 -6.52556e-20)
(0.532799 -0.00546663 0)
(0.519508 -0.000122717 -1.72513e-20)
(0.479858 -0.00294183 3.53769e-21)
(0.503599 -0.00497741 1.30794e-20)
(0.481046 0.0200991 -4.37753e-20)
(0.519176 -0.000500621 8.43727e-21)
(0.481078 0.0197161 4.17869e-20)
(0.458431 -0.00670012 -2.63986e-20)
(0.515433 -0.00442718 1.31209e-21)
(0.40423 -0.0309206 6.99358e-20)
(0.468614 -0.048966 -2.36746e-21)
(0.504226 -0.0070917 0)
(0.519642 0.00676033 -1.07724e-20)
(0.516017 0.00181615 6.57508e-21)
(0.514638 -0.00254269 0)
(0.504235 -0.00719517 -7.55181e-21)
(0.514862 -0.0112361 1.69182e-21)
(0.471898 0.0234021 0)
(0.533224 0.00196498 1.37732e-20)
(0.429107 0.0251852 -2.00987e-20)
(0.500551 0.00194101 0)
(0.499767 0.00463576 0)
(0.515892 0.00186168 -6.64534e-21)
(0.499991 -2.26925e-05 -4.05489e-20)
(0.547302 0.02528 0)
(0.515718 0.00267253 0)
(0.100815 0.0142389 -3.659e-20)
(0.519555 -0.000112094 1.59052e-20)
(0.514331 0.00201676 -2.39176e-21)
(0.519777 0.00668019 0)
(0.353286 0.118277 1.63143e-20)
(0.536535 -0.016791 0)
(0.509381 -0.00223713 4.85999e-22)
(0.51496 0.00156407 6.83589e-21)
(0.534849 -0.0166489 1.26825e-20)
(0.51236 -0.00544254 -2.70081e-22)
(0.526963 0.000219127 4.1251e-20)
(0.467528 -0.0492088 0)
(0.516758 -0.00870283 0)
(0.107189 0.0119951 0)
(0.368894 0.0397566 0)
(0.509468 -0.00971173 -4.37909e-21)
(0.53442 -0.0168533 2.60989e-21)
(0.53244 -0.00492768 2.06333e-20)
(0.536907 0.109897 0)
(0.514653 0.00100139 -2.76837e-21)
(0.536119 -0.016252 3.42269e-20)
(0.52077 0.00188333 2.51686e-20)
(0.479166 0.0163874 3.2008e-20)
(0.3849 -0.0362021 7.64839e-23)
(0.29864 -0.00782399 0)
(0.532473 0.0708797 0)
(0.516797 -0.00856537 3.35346e-21)
(0.486729 -0.00932435 2.26321e-20)
(0.37412 0.0366108 3.73179e-21)
(0.509788 0.00337104 -8.20631e-22)
(0.509749 0.00341159 8.66044e-22)
(0.494151 -0.00134761 0)
(0.520249 -8.18679e-05 -1.83194e-20)
(0.347527 0.119137 0)
(0.509369 -0.00134589 0)
(0.5089 0.0151805 5.63296e-22)
(0.520357 -0.00577274 -1.34734e-20)
(0.301156 0.000661721 7.70615e-21)
(-0.0687244 -0.0224858 1.47416e-22)
(0.514661 -0.0112358 0)
(0.438019 0.00629309 7.39927e-20)
(0.579149 0.0132874 -1.2312e-19)
(0.25368 -0.202458 -7.76564e-21)
(0.502902 0.000746538 -2.18025e-21)
(0.478501 0.0162566 -3.38073e-20)
(0.541083 0.0503518 -2.30163e-20)
(0.535611 -0.0162861 -4.50108e-20)
(0.525494 0.0165992 -1.06222e-20)
(0.217623 -0.187701 -7.95422e-21)
(0.53223 -0.0049546 0)
(0.532356 0.0025302 1.29741e-20)
(0.515429 -0.00454634 3.94443e-21)
(0.507865 -0.00112135 3.91941e-21)
(0.524842 -0.03678 -1.69081e-20)
(0.520677 0.0017959 2.6377e-20)
(0.0158214 0.0191992 1.16971e-19)
(0.52049 0.00191533 0)
(0.514571 0.00470224 -2.97234e-21)
(0.51436 0.00200216 2.4758e-21)
(0.525413 -0.0367089 0)
(0.533964 0.0212468 9.06782e-21)
(0.581023 0.0115052 0)
(0.502993 0.000837963 3.4858e-21)
(0.545411 0.00127546 -7.09248e-20)
(0.459096 -0.0066756 4.49763e-20)
(0.499989 -2.8512e-05 1.86416e-20)
(0.386686 -0.0338347 0)
(0.519128 -0.000509796 7.76095e-21)
(0.51264 0.00134303 7.52572e-24)
(0.51761 -0.00336435 3.56671e-21)
(0.502572 -0.0059223 -2.64e-20)
(0.577567 0.0222472 0)
(0.315747 -0.0246778 -2.71851e-20)
(0.494181 -0.0014593 0)
(0.508936 -0.00658312 0)
(0.510874 0.000331188 -1.19251e-21)
(0.507895 -0.000905194 0)
(-0.0691643 -0.0229568 6.28921e-20)
(0.571322 -0.000841781 -2.63624e-20)
(0.52055 0.00025254 0)
(0.501916 0.0241259 1.29298e-20)
(0.508855 0.0150431 0)
(0.473304 0.009191 6.38437e-20)
(0.492447 0.0216937 0)
(0.515771 -0.0035609 0)
(0.0117827 0.0186638 -1.42417e-19)
(0.519917 -0.000601181 -9.92446e-21)
(0.500621 -0.00285239 7.73669e-21)
(0.500556 0.00198496 0)
(0.479992 -0.00267037 0)
(0.515496 -0.013702 2.68322e-21)
(0.514962 0.00160113 -1.30272e-20)
(0.502689 -0.00594788 8.56786e-21)
(0.473076 0.0336924 -5.81752e-20)
(0.521331 -0.00945076 2.9345e-21)
(0.524408 0.00356393 -1.55911e-20)
(0.579432 0.0226083 0)
(0.514727 -0.0142667 -3.40276e-22)
(0.429673 0.0265333 -7.24153e-20)
(0.517292 -0.0109317 3.77537e-21)
(0.401123 0.0183402 8.4384e-20)
(0.537096 -0.0167602 1.32954e-20)
(0.509455 -0.00228589 0)
(0.518368 -0.00302295 2.92564e-21)
(0.508855 0.00718449 0)
(0.527488 0.00224017 1.0356e-20)
(0.363553 0.0704072 -2.76801e-20)
(0.508999 0.00720148 0)
(0.374216 0.0927096 0)
(0.545516 0.000153055 -1.16615e-20)
(0.444349 -0.220227 0)
(0.508827 -0.00676308 1.76054e-22)
(0.521017 0.0233775 4.24643e-21)
(0.473707 -0.0379712 8.11609e-21)
(0.510514 0.00340211 0)
(0.515695 -0.00347294 5.43319e-21)
(0.507477 -0.019262 0)
(0.328609 -0.0263508 0)
(0.515016 -0.00232618 0)
(0.484806 0.00262956 0)
(0.514989 0.000812452 2.22497e-23)
(0.527319 0.00211265 0)
(0.501549 -0.0136134 2.60865e-20)
(0.498349 -2.34914e-05 -1.44042e-20)
(0.501779 0.0237761 0)
(0.531225 0.0705443 -9.95296e-21)
(0.521864 0.042201 1.13475e-20)
(0.520493 0.000250678 2.08185e-23)
(0.412895 0.0062654 -3.59881e-22)
(0.521899 0.00396668 -3.06875e-21)
(0.519839 0.00637749 1.00303e-20)
(0.515263 0.000506493 -7.41199e-21)
(0.513758 0.00648796 -2.53946e-21)
(0.497441 0.00367047 -4.66677e-21)
(0.547913 0.0248578 7.24934e-22)
(0.518475 0.00323664 1.1081e-20)
(0.493946 0.0029345 0)
(0.498849 -0.0094589 -5.40949e-20)
(0.501604 -0.0137377 1.46904e-20)
(0.521851 0.00390031 1.0941e-20)
(0.444514 -0.213827 2.53571e-21)
(0.552347 -0.00381625 -1.68554e-20)
(0.51996 -0.000600259 1.45688e-20)
(0.50989 -0.0102125 2.02789e-21)
(0.522954 -0.00167571 2.2055e-20)
(0.524675 0.0192012 2.651e-20)
(0.508542 0.00688795 1.77268e-21)
(0.551613 -0.00341815 8.37945e-20)
(0.519081 -0.00217828 -4.55287e-21)
(0.514839 0.00650231 7.5559e-21)
(0.499931 -4.83517e-05 -5.97553e-20)
(0.539852 -0.0193302 -5.08558e-20)
(0.481263 -0.0524907 2.70808e-20)
(0.412813 0.00563702 3.73274e-22)
(0.515317 0.000518274 8.71466e-21)
(0.545226 6.90064e-05 6.16252e-21)
(0.51662 0.0142 6.5628e-21)
(0.50933 -0.00996257 0)
(0.515688 0.00265815 -1.04171e-20)
(0.520342 0.0019485 -1.0232e-20)
(0.500622 -0.00293978 1.4017e-20)
(0.524849 -0.000525164 -1.27196e-20)
(0.511316 0.00383968 9.21723e-23)
(0.543634 0.00114802 0)
(0.574554 0.000289027 -3.46811e-20)
(0.518385 -0.0130105 -2.87663e-21)
(0.49842 -1.00439e-05 4.42063e-20)
(0.375467 -0.00343519 -2.71894e-20)
(0.491107 0.00283743 3.53459e-20)
(0.486508 -0.00899433 4.66745e-20)
(0.517419 0.00574317 0)
(0.501025 -0.00101671 2.20787e-22)
(0.473802 0.00898406 -5.39505e-20)
(0.358486 -0.0760237 0)
(0.495075 0.0189182 2.71359e-20)
(0.424543 -0.0315795 -7.28416e-20)
(0.517755 -0.00330217 0)
(0.511437 -0.008633 5.09331e-22)
(0.513816 0.000387376 0)
(0.474462 -0.0382759 -3.28614e-20)
(0.517655 -0.00329466 -5.55173e-23)
(0.545369 0.00130476 4.23565e-20)
(0.494819 0.0190451 1.61201e-21)
(0.498681 -0.00950364 3.35713e-20)
(0.526965 -0.0249974 0)
(0.518017 0.000398378 6.4981e-21)
(0.534005 -0.00522328 0)
(0.511385 -0.00407037 3.9028e-22)
(0.555995 0.0341908 0)
(0.520235 -9.13178e-05 1.66519e-20)
(0.522327 0.0418537 -1.36304e-20)
(0.578102 -0.00992496 1.52253e-19)
(0.51848 0.00320469 -7.70946e-21)
(0.512588 0.00133754 -8.93997e-22)
(0.496685 0.0215245 -2.16414e-20)
(0.506412 -0.012454 -5.56557e-21)
(0.516312 -0.00268898 -9.87558e-23)
(0.514195 0.00199305 -2.69437e-21)
(0.51808 0.00040649 -5.87899e-21)
(0.539608 -0.0197345 -3.4854e-20)
(0.501304 0.00101865 -1.10059e-20)
(0.552962 -0.103199 0)
(0.321446 0.0783055 -7.92659e-21)
(0.511405 0.00378301 -6.69717e-22)
(0.514225 0.00198157 0)
(-0.010653 -0.0164175 8.90766e-21)
(0.2546 0.0502353 5.16503e-20)
(0.500997 -0.00196642 -9.70437e-22)
(0.536056 0.0304214 -3.37474e-20)
(0.521668 -0.00459445 -1.43418e-20)
(0.499889 -0.00212062 -9.13489e-23)
(0.516811 -0.00134823 1.27437e-20)
(0.553224 -0.10175 2.04847e-20)
(0.544582 0.00283397 -3.17762e-20)
(0.53631 -0.0077481 4.16774e-20)
(0.509955 0.014813 2.19567e-21)
(0.533631 -0.00526119 1.29811e-20)
(0.517546 0.0170743 0)
(0.519125 -0.0022404 7.20518e-21)
(0.183599 0.04343 0)
(0.522376 0.00520722 1.94733e-20)
(0.543437 0.0013003 3.07051e-21)
(0.505676 -0.0193673 -1.8667e-23)
(0.50936 -0.00985203 4.78827e-21)
(0.52445 0.00351055 2.88574e-20)
(0.108463 0.0394292 1.00522e-19)
(0.517516 -0.00335672 -8.06558e-21)
(0.578326 -0.00880143 -1.66119e-19)
(0.467604 0.0682213 -4.69607e-21)
(0.51387 0.00645289 5.90512e-21)
(0.480783 -0.0517504 -5.09791e-20)
(0.399302 0.0282694 0)
(0.516452 0.0142882 -5.70399e-21)
(0.501745 -0.00191676 4.51131e-23)
(0.522864 -0.00169963 -1.13086e-20)
(0.488455 -0.0306938 -1.65548e-20)
(0.509689 -0.00164714 4.82748e-23)
(0.517539 0.0167539 6.41557e-21)
(0.553089 0.00724383 0)
(0.517965 -0.0127478 2.84574e-21)
(0.535274 0.109115 -2.02322e-21)
(0.521728 -0.00550123 -3.41929e-23)
(0.289437 0.0994244 2.62043e-20)
(0.561908 0.025307 4.85037e-20)
(-0.00402709 -0.00989531 0)
(-0.0037158 -0.00966202 -9.33327e-21)
(0.170761 0.0469056 4.64726e-20)
(0.510851 0.000359017 -3.56588e-22)
(0.504657 0.0108616 -8.12251e-21)
(0.48938 -0.0412629 3.99876e-20)
(0.499399 0.00562618 0)
(0.500335 0.0010731 0)
(0.524926 0.019171 -2.99686e-20)
(0.500205 -0.000342228 1.10461e-20)
(0.513923 -0.00128401 -8.94112e-21)
(0.521039 -0.00906126 3.44782e-22)
(0.487795 -0.0306651 -3.93204e-20)
(0.522852 0.0229467 8.36638e-21)
(0.509928 0.00235847 0)
(0.500841 -0.00179711 0)
(0.517264 0.000846362 0)
(0.501236 0.000980727 0)
(0.50037 0.00109193 0)
(0.495839 0.00345794 0)
(0.520454 0.00140472 0)
(0.515847 0.00144055 0)
(0.514446 0.00469082 -3.87772e-21)
(0.504177 0.0104388 -2.02318e-20)
(0.499919 -2.88954e-05 2.66611e-20)
(0.496981 0.0214154 0)
(0.500471 -0.000108873 0)
(0.532464 -0.00785735 -2.91236e-20)
(0.517226 -0.0113857 -4.64101e-21)
(0.51489 0.00673127 -7.64783e-21)
(0.520658 0.0135445 -2.11712e-20)
(0.521766 -0.00562065 1.05578e-22)
(0.512222 0.00256902 -6.94637e-22)
(0.519679 0.00645914 -1.63629e-21)
(0.507408 0.00911574 2.51415e-22)
(0.518462 -0.00267187 -3.68353e-21)
(0.491257 -0.0427858 0)
(0.542416 -0.00182607 0)
(0.556951 0.0342923 -3.33197e-23)
(0.533796 -0.0225126 0)
(0.32078 0.0774031 -4.72995e-21)
(0.51735 -0.00126008 -3.59603e-23)
(0.515781 0.00141219 -4.64662e-21)
(0.516785 -0.00127351 -1.40325e-20)
(0.398631 0.0173972 9.10361e-22)
(0.454215 -0.0267116 -2.34358e-22)
(0.520361 0.00139676 -4.36294e-21)
(0.54439 0.00317585 4.16939e-20)
(0.527719 -0.0120346 -2.13076e-20)
(0.380949 0.0919457 1.59338e-20)
(0.512231 -0.00551161 7.95853e-23)
(0.504531 0.0107299 0)
(0.518343 -0.00307684 0)
(0.506397 -0.01233 6.13928e-21)
(0.410006 -0.0305327 -1.5547e-20)
(0.492724 0.0218541 1.41363e-20)
(0.53061 -0.00263115 1.98966e-22)
(0.536972 0.00209589 4.49871e-20)
(0.515681 0.0003938 3.279e-21)
(0.51633 -0.00273148 -4.15543e-21)
(0.529933 -0.0388547 -2.08935e-20)
(0.507219 0.00904108 2.39789e-22)
(0.327886 -0.0230045 2.02694e-19)
(0.375124 -0.00585525 -8.87649e-21)
(0.495283 0.0372076 2.96928e-20)
(0.481563 0.0190737 -7.08238e-21)
(0.512076 0.00504287 8.11636e-25)
(0.405552 -0.00560119 -5.9852e-22)
(0.536666 -0.00764951 -4.17102e-20)
(0.51054 0.00366233 0)
(0.537176 -0.0125926 0)
(0.494101 0.00292832 1.14758e-20)
(0.526626 0.016302 0)
(0.462404 -0.0279193 -5.27675e-20)
(0.486499 -0.0186882 -9.90601e-21)
(0.483298 8.80874e-05 5.00102e-22)
(0.258383 0.00603888 -6.46764e-20)
(0.524132 -0.0019399 3.77181e-20)
(0.524091 -0.00189215 -3.55353e-20)
(0.438313 -0.0160402 0)
(0.507168 0.00783048 0)
(0.515801 0.0027916 0)
(0.482223 -0.00436266 -1.48899e-22)
(0.575234 0.134625 -8.72361e-22)
(0.515772 0.00276705 6.05135e-21)
(0.536943 0.00236549 -2.19508e-20)
(0.221262 -0.0693099 0)
(0.50944 0.01414 6.36541e-22)
(-0.011973 -0.0188183 1.78771e-20)
(0.329191 -0.0202122 -5.49127e-20)
(0.528537 0.0154587 -1.66678e-20)
(0.504334 0.0104967 6.05766e-21)
(0.527685 -0.00475684 4.08904e-21)
(0.468431 -0.0415389 -7.9473e-20)
(0.467625 -0.041035 7.10083e-20)
(0.49484 -0.0184921 0)
(0.480515 -0.0593476 0)
(0.00877694 -0.0114581 -2.12138e-20)
(0.507541 -0.00117219 -2.32157e-22)
(0.507508 -0.001175 2.14239e-22)
(0.52428 -0.0114175 0)
(0.524598 0.0128611 4.2777e-21)
(0.518294 0.0140515 -5.0615e-21)
(0.518424 -0.00266673 -3.14539e-21)
(0.499922 -0.00164371 4.46286e-21)
(0.482177 -0.00468667 2.00203e-22)
(0.47055 0.0149607 8.11511e-21)
(0.520958 0.0135999 2.22441e-20)
(0.507815 0.0015317 -2.32685e-22)
(0.507793 0.00154912 0)
(0.526422 -0.0249101 -3.08138e-21)
(0.489852 -0.0405667 -1.63873e-20)
(0.470716 -0.0164275 0)
(0.502339 0.0804789 1.75688e-21)
(0.510942 -0.00357985 -1.82579e-22)
(0.488779 0.0436671 0)
(0.555647 0.00317088 -6.98287e-20)
(0.438834 0.00553346 -5.52002e-20)
(0.523655 0.0232298 -1.16309e-20)
(0.508735 -0.00660985 1.3774e-21)
(0.532528 -0.0204906 -2.80457e-20)
(0.35312 -0.295644 -7.59767e-22)
(0.486414 0.0459106 0)
(0.468711 0.0688685 -6.15474e-22)
(0.501129 0.0792393 0)
(0.140781 -0.121132 0)
(0.482757 0.019905 0)
(0.51354 -7.89726e-06 -1.10529e-21)
(0.553303 0.150291 -3.35175e-20)
(0.530559 0.0233135 -1.37387e-20)
(0.520494 -0.0057275 1.01705e-20)
(0.528253 -0.00190897 1.20568e-20)
(0.505712 0.00615741 0)
(0.530585 -0.00271237 0)
(0.509108 -0.00283708 0)
(0.523289 -0.00655757 8.40015e-21)
(0.509141 -0.00285541 -5.45435e-23)
(0.515741 0.000614304 2.05432e-21)
(0.536536 0.00711234 0)
(0.500104 0.00129322 1.59947e-20)
(0.542096 -0.00190196 -1.31107e-20)
(0.518123 0.000150515 -2.55263e-20)
(0.501032 -0.00714586 0)
(0.45323 -0.0261306 1.44919e-20)
(0.520924 0.000786599 0)
(0.511132 0.0122095 -5.75413e-21)
(0.50026 -0.0030432 3.4931e-20)
(0.500233 -0.000371804 -4.78021e-20)
(0.540766 0.00358895 1.08111e-20)
(0.495263 -0.0232582 1.96789e-20)
(0.488839 0.0112095 1.40455e-21)
(0.534378 -0.0218264 0)
(0.530903 0.023224 -4.94892e-21)
(0.523497 -0.00670609 -7.86372e-21)
(0.4951 -0.0183937 0)
(0.522461 0.00228627 4.33844e-20)
(0.525133 -0.133677 0)
(0.534176 0.0506057 1.49655e-20)
(0.462996 -0.0284626 0)
(0.511397 0.00246242 0)
(0.537452 -0.0124625 -3.13135e-21)
(0.258976 0.0550105 -5.18196e-20)
(0.462979 -0.0416884 -2.54504e-20)
(0.540495 0.00374984 0)
(0.52854 -0.0376339 1.81057e-20)
(0.500089 0.00132618 4.73294e-23)
(0.189586 -0.108794 -1.28102e-20)
(0.503186 0.000886645 0)
(0.506685 -0.000561201 -1.11708e-22)
(0.439429 -0.0168471 -1.70761e-20)
(0.46394 -0.0410326 -1.10212e-20)
(0.403868 -0.0337495 1.37096e-20)
(0.532001 -0.0203914 4.56901e-20)
(0.374189 0.0756904 1.32782e-20)
(0.500578 -0.00252309 -2.41938e-20)
(0.520955 0.000835234 5.83399e-21)
(0.499454 0.00572879 -1.10414e-20)
(0.527558 -0.0117342 2.12444e-20)
(0.0636902 -0.0244747 -9.71541e-20)
(0.515238 0.00370477 -2.04792e-21)
(0.517354 0.00575509 1.77399e-21)
(0.496861 -0.0296553 0)
(0.512277 0.00253633 0)
(0.528596 -0.00164738 1.03287e-20)
(0.520694 0.0233799 0)
(0.509961 0.0023831 0)
(0.292245 -0.0854077 2.256e-20)
(0.535427 0.0303915 2.7669e-20)
(0.514765 0.00366372 1.07096e-21)
(0.51227 -0.00247682 0)
(0.482676 0.0203367 -3.72809e-22)
(0.500846 -0.0017506 0)
(0.519785 -0.0160959 1.68567e-20)
(0.4999 -0.00168036 1.80168e-20)
(0.513766 0.000368469 2.88078e-21)
(0.522349 0.0023375 -3.04278e-20)
(0.549884 0.000324158 -1.96857e-20)
(0.499794 0.0223444 9.44118e-21)
(0.532059 -0.00535089 1.64546e-20)
(0.51867 -0.00247457 0)
(0.511452 -0.00406794 0)
(0.519242 0.000880026 0)
(0.491633 -0.0427376 2.60948e-23)
(0.278487 0.00425054 1.28021e-19)
(0.00899053 -0.0126196 1.89204e-20)
(0.462927 0.0166226 -5.08171e-21)
(0.54181 0.0493546 0)
(0.515582 -0.00121562 1.31299e-20)
(0.1165 0.0365916 0)
(0.490609 0.00369966 -8.49096e-21)
(0.404995 -0.0070577 4.22225e-22)
(0.52152 -0.0046008 0)
(0.518604 -0.00247739 0)
(0.507502 -0.00140326 0)
(0.572128 0.0191823 -1.57111e-20)
(0.532473 -0.00790253 3.04336e-20)
(0.514602 0.00376382 -1.80467e-21)
(0.495684 -0.0233001 6.04518e-21)
(0.520627 -0.000453292 2.10301e-20)
(0.499988 0.00170821 -3.17729e-20)
(0.517146 0.0091079 -5.83396e-21)
(0.517197 0.000871573 0)
(0.505324 0.0100724 -1.98212e-22)
(0.512346 -0.0100977 0)
(0.50489 0.00956224 -1.08522e-22)
(0.520566 -0.000490713 -1.61686e-20)
(0.495999 0.00348563 4.83793e-21)
(0.514251 0.00344243 4.901e-22)
(0.50109 -0.00241722 0)
(0.516859 -0.00123722 -9.02917e-21)
(0.589898 0.0520334 0)
(0.508886 -0.00196434 0)
(0.512196 -0.00246425 0)
(0.532091 -0.00508922 -2.23974e-20)
(0.459323 -0.100858 -2.26419e-20)
(0.559161 0.00471678 -2.61093e-20)
(0.505819 0.00619996 0)
(0.276351 0.236389 0)
(0.512401 0.00240509 0)
(0.512368 0.00244816 -1.68467e-24)
(0.507475 -0.00142623 0)
(0.207057 -0.10759 0)
(0.536513 -0.019394 -1.28967e-20)
(0.499538 -0.00317922 -2.46286e-20)
(0.504851 -0.0139502 9.95582e-22)
(0.513877 -0.00128054 -6.11174e-21)
(0.519854 0.000425488 1.283e-21)
(0.507746 0.0254828 3.88415e-21)
(0.505852 0.12442 6.44277e-22)
(0.510155 -0.00413743 0)
(0.360139 -0.0715798 0)
(0.519289 0.000879497 5.10862e-22)
(0.513488 -0.0042397 -4.27806e-21)
(0.50054 -0.00252282 0)
(0.524312 -0.0111274 0)
(0.415953 -0.0381228 -3.02377e-20)
(0.400504 0.0305624 0)
(0.51032 0.00101475 -1.29901e-21)
(0.487997 0.0227504 -4.96023e-21)
(0.534621 -0.00582572 -3.2957e-20)
(0.410469 0.202635 -2.18797e-20)
(0.522541 0.000762326 -1.38809e-20)
(0.520622 0.00158694 0)
(0.511406 0.00249151 0)
(0.520644 0.00177404 0)
(0.435799 0.212134 -4.70508e-20)
(0.461864 -0.0359402 0)
(0.54714 0.000883931 4.48794e-20)
(0.534473 -0.00548118 0)
(0.546683 0.000994262 -5.09602e-20)
(0.507353 0.0333039 1.62472e-20)
(0.50112 -0.00718712 0)
(0.5181 -0.00297121 -1.19286e-20)
(0.461473 -0.037004 0)
(0.500168 -0.000745079 2.95755e-20)
(0.498453 -0.00103025 0)
(0.558531 0.0475667 -2.57989e-22)
(0.499985 0.00165324 1.42607e-20)
(0.51215 0.0050224 0)
(0.553343 0.0166499 5.55185e-20)
(0.516804 -0.00124419 1.05634e-20)
(0.515037 0.00383098 8.3449e-22)
(0.53391 0.0498707 0)
(0.0245486 0.0256712 4.50225e-21)
(0.514136 -0.00069316 -3.67155e-21)
(0.479516 0.0146248 9.62228e-22)
(0.512202 -0.0098859 -1.99329e-22)
(0.229901 -0.0678898 -3.3103e-20)
(0.519851 0.00044383 4.06983e-21)
(0.523934 -0.0101305 7.67387e-21)
(-0.00570059 -0.0122052 9.73251e-21)
(0.515557 -0.00117088 0)
(-0.00414266 -0.0116577 2.38774e-21)
(0.483317 -0.0450257 -2.10535e-20)
(0.499425 0.0224147 9.61512e-21)
(0.512942 0.00143921 -1.02707e-22)
(0.511803 0.0315669 8.58552e-20)
(0.50347 -0.000683801 0)
(0.502241 0.00162551 0)
(0.501225 -0.0051802 -4.35304e-21)
(0.549202 0.00049985 0)
(0.497313 0.00359199 0)
(0.549612 0.149892 3.26279e-20)
(0.518173 0.000150558 2.01708e-20)
(0.506723 -0.000553288 3.53169e-24)
(0.49137 -0.0022955 -1.74774e-20)
(0.501014 0.000979462 2.79706e-24)
(0.499519 -0.000672498 4.27471e-20)
(0.510199 -0.0042278 0)
(0.498859 -0.0382383 1.0721e-20)
(0.507802 0.0331907 -1.03662e-20)
(0.501369 -0.00751574 8.85422e-21)
(0.506609 -0.00588066 -1.39716e-22)
(0.501307 -0.0052041 0)
(0.512073 0.0104225 1.43231e-21)
(0.513321 -0.00422426 2.95778e-21)
(0.512148 0.0105218 -3.52482e-21)
(0.51776 0.0137271 2.36565e-21)
(0.500309 -0.00307768 -3.98888e-20)
(0.504795 0.00475784 -2.86137e-22)
(0.516496 0.00260436 6.28619e-21)
(0.500936 0.00281409 -2.68047e-20)
(0.524838 -0.000471748 1.30761e-20)
(0.518897 0.00528959 2.10576e-21)
(0.548207 0.00102429 -3.08943e-20)
(0.285076 -0.0887875 -1.49637e-20)
(0.502251 -0.00662201 -1.09104e-20)
(0.522259 0.00510188 -1.59944e-20)
(0.507765 0.0251793 -5.34001e-22)
(0.522091 -0.00206384 3.0339e-21)
(0.499651 -0.00152317 5.24232e-20)
(0.491123 0.0399938 -4.03306e-20)
(0.511848 0.00297718 -2.5119e-21)
(0.520523 -0.00184735 -1.17572e-20)
(0.493757 0.00877671 1.537e-20)
(0.531267 0.0152125 1.16521e-20)
(0.526963 -0.000194651 2.09199e-20)
(0.389737 0.107085 5.29053e-20)
(0.500128 -0.000714705 -1.19093e-20)
(0.514239 0.00357335 5.1709e-22)
(0.512827 -0.000725724 -5.3493e-21)
(0.547923 0.0014492 -1.89045e-22)
(0.503141 0.000857913 -3.29961e-21)
(0.569974 0.016494 0)
(0.498949 0.000582135 0)
(0.500432 -0.000113981 0)
(0.532061 0.0160484 0)
(0.501033 -0.00240622 0)
(0.589851 0.0518123 -3.45292e-20)
(0.518316 -0.0048327 0)
(0.534158 -0.010179 2.33984e-22)
(0.527773 -0.00476763 0)
(0.528222 0.0153289 1.44112e-20)
(0.350984 -0.297572 1.37721e-21)
(-0.00462826 0.00180537 0)
(0.514051 -0.00887464 -2.82466e-22)
(-0.0748792 -0.023782 -6.2305e-20)
(0.475516 -0.0241672 -5.02908e-21)
(0.510362 0.00101167 2.44416e-21)
(0.515868 0.00221547 0)
(0.46871 -0.0271232 0)
(0.527383 0.0159583 6.14103e-22)
(0.500994 0.00101712 -3.29699e-20)
(0.513111 -0.00178309 0)
(0.526877 0.0164279 4.27175e-21)
(0.520004 1.53786e-05 5.22867e-21)
(0.523882 -0.0102299 0)
(0.50455 0.0842538 0)
(0.467439 0.0057387 -6.02019e-20)
(0.340138 -0.0396103 0)
(0.498944 -0.0117798 4.96475e-23)
(0.0120072 0.0274332 0)
(0.527027 -0.000124424 2.1897e-20)
(0.0104037 -0.013858 -1.14472e-22)
(0.528304 -0.00323275 0)
(0.511197 -0.002118 6.36971e-23)
(0.477245 8.91985e-06 0)
(0.511209 -0.00220634 0)
(0.476214 0.0143919 0)
(0.495626 -0.00939555 1.83198e-20)
(0.48704 0.00712633 -6.73524e-20)
(0.524734 0.013123 0)
(0.545591 0.00214273 1.28406e-20)
(0.497296 -0.00103306 -4.26971e-21)
(0.498788 -0.0117854 -1.84741e-20)
(0.486672 0.0115114 0)
(0.478059 0.0350402 -2.9877e-20)
(0.508342 0.00285719 -1.35105e-22)
(0.519285 0.000419464 -1.56621e-20)
(0.570613 0.0171353 0)
(0.526468 0.0291398 4.59163e-20)
(0.511873 0.00300792 -4.40865e-23)
(0.500879 0.00281833 2.67996e-20)
(0.540234 -0.00945905 -5.34381e-20)
(0.557801 0.0465959 -7.053e-20)
(0.554789 0.00396517 1.00785e-20)
(0.481036 -0.00290985 -2.78113e-20)
(0.525041 -0.00615809 -3.28498e-20)
(0.51078 0.00774324 2.313e-21)
(0.502527 0.00797265 0)
(0.477708 0.000116935 2.63377e-20)
(0.325097 0.0465143 7.82254e-20)
(0.515898 0.00217976 1.10599e-21)
(0.512084 0.0033597 0)
(0.528254 -0.00352394 2.6622e-22)
(0.516215 0.000993482 0)
(0.563531 0.0247083 -3.80068e-20)
(0.519926 0.00111684 0)
(0.491071 0.00255928 0)
(0.52725 0.0019627 0)
(0.518758 0.00515172 1.76498e-21)
(0.587162 -0.0186904 1.36598e-20)
(0.560035 0.0043907 0)
(0.435352 -0.0219092 5.47876e-22)
(0.499881 -0.00276065 1.2931e-20)
(0.502293 -0.00135737 0)
(0.499788 0.0189163 -2.97588e-20)
(0.467747 0.00514402 5.4171e-20)
(0.477869 0.0355062 0)
(0.460482 -0.0993385 2.34324e-20)
(0.489738 0.0173911 3.5994e-20)
(0.51067 0.0127738 -2.56411e-21)
(0.305051 0.0993788 -4.74683e-20)
(0.520637 -0.00190753 -4.6359e-21)
(0.523016 -0.00740462 0)
(0.498867 -0.0375805 0)
(0.522805 -0.00702145 0)
(0.519289 0.000397442 1.40922e-20)
(0.505407 0.039675 3.24749e-21)
(0.520011 3.5837e-06 0)
(0.518136 -0.0029847 0)
(0.0807351 0.0288347 -9.29237e-21)
(0.44224 -0.0217725 -7.89239e-22)
(0.49741 -0.0297241 -2.29662e-20)
(0.518583 -0.0165065 0)
(0.516246 0.0010261 0)
(0.528293 0.0188167 1.51621e-20)
(0.510962 -0.00385819 1.88705e-22)
(0.313377 -0.0479981 1.31254e-20)
(0.489948 0.0171067 0)
(0.513277 -0.000315539 -7.95086e-22)
(0.501619 0.000375669 1.11565e-20)
(0.516173 0.00177241 0)
(0.520326 -0.0133527 1.12377e-20)
(0.519597 -0.000191616 -9.60447e-21)
(0.514199 -0.000722143 -3.43137e-21)
(0.54326 -0.00545811 6.20091e-20)
(0.508856 -0.0019452 -2.27361e-22)
(0.49722 -0.000960865 2.78542e-20)
(0.491577 -0.00227982 -4.28685e-20)
(0.460142 0.149516 4.17429e-21)
(0.511283 0.00572668 -1.26218e-22)
(0.280899 0.0240062 8.88263e-21)
(0.521564 0.00446887 0)
(0.485904 -0.0198521 -4.55346e-20)
(0.441641 -0.0411172 -3.00144e-20)
(0.520903 -0.000753312 9.77141e-21)
(0.50052 -0.00377115 -4.19892e-21)
(0.513153 -0.00178593 0)
(0.393258 0.10929 -4.05929e-20)
(0.528524 5.27829e-05 0)
(0.521094 -0.00591591 0)
(0.336909 0.0110508 1.10062e-20)
(0.539203 -0.0292358 0)
(0.517465 0.00914626 4.89821e-21)
(0.0642178 -0.0747136 -5.7957e-20)
(0.500105 0.0190558 2.68465e-20)
(0.498969 -0.070739 7.3206e-20)
(0.51129 0.0120999 6.81364e-21)
(0.541582 0.0061278 5.97595e-20)
(0.493997 0.00867369 -2.75461e-21)
(0.503148 -0.000634504 1.04157e-20)
(0.502654 0.00801293 1.65053e-20)
(0.510416 -0.00263437 7.45004e-22)
(0.515068 -0.00119234 0)
(0.510359 0.00249618 0)
(0.540833 -0.0094814 5.18803e-20)
(0.524825 -0.0109179 1.82623e-20)
(0.495008 -0.00317796 -2.36489e-20)
(0.500563 -0.00380117 1.41059e-20)
(0.51207 0.00329972 8.95416e-22)
(0.483363 -0.000163175 -3.7064e-22)
(0.512152 -0.00761721 1.09484e-21)
(0.510433 0.00250979 -3.84908e-22)
(0.506156 0.122078 -2.61746e-21)
(0.545494 0.0023601 -2.29523e-20)
(0.571326 -0.0301537 -8.82235e-20)
(0.4321 0.0368865 4.0248e-20)
(0.285438 0.232063 0)
(0.501273 -0.00744804 -1.0256e-20)
(0.521631 -0.00329154 0)
(0.508863 -0.00073881 -1.1362e-21)
(0.493103 0.01313 -2.63386e-22)
(0.515015 -0.00118431 0)
(0.528323 -3.23113e-05 1.05358e-20)
(0.523225 -0.00653049 0)
(0.512252 -0.00177085 -3.1451e-21)
(0.512287 -0.00176667 -1.71162e-21)
(0.503099 -0.010904 9.6318e-21)
(0.152226 -0.0213175 7.36003e-20)
(0.51814 -0.000592356 -2.53495e-20)
(0.507471 -0.000690445 -6.65975e-22)
(0.486858 -0.0188724 5.42627e-20)
(0.53768 -0.0457206 -3.45514e-21)
(0.481202 -0.00309977 -6.23245e-22)
(0.493547 0.0131757 -7.21796e-23)
(0.516573 0.00271372 -5.27584e-21)
(0.555136 0.187072 2.03728e-20)
(0.514022 0.00931184 1.90578e-21)
(0.509559 -0.00223286 0)
(0.513143 -0.00192902 0)
(0.519311 0.00299436 -8.9292e-21)
(0.537267 -0.0451068 3.60585e-21)
(0.518151 -0.000552478 1.6089e-20)
(0.523515 -0.00191639 0)
(0.51687 0.00443952 7.40892e-21)
(0.577443 0.0113764 0)
(0.523707 -0.00116907 1.43653e-20)
(0.509176 -0.0288226 0)
(0.573041 0.135866 2.18824e-20)
(0.519947 0.00108776 1.39341e-20)
(0.504445 0.0130535 0)
(0.509573 -0.00226947 -1.2852e-21)
(0.519749 -0.00025834 -1.87196e-20)
(0.486098 0.0201854 0)
(0.519204 0.00301375 -1.60227e-20)
(0.555278 0.00487266 -1.08424e-20)
(0.212889 -0.0636529 -3.3312e-21)
(0.50884 -0.00068404 -9.14026e-22)
(0.53795 -0.0116473 0)
(0.557849 0.0074112 0)
(0.521143 0.0210522 -6.3994e-21)
(0.515575 0.00377085 -6.02346e-21)
(0.561682 0.0370297 0)
(0.521544 0.00439866 0)
(0.534592 -0.0102763 0)
(0.490575 0.00333536 -3.01315e-20)
(0.522556 0.000717865 1.25688e-20)
(0.545322 -0.000509658 0)
(0.513686 -0.00853176 -3.41604e-21)
(0.499614 -0.0015647 -3.51845e-20)
(0.51164 0.0017949 3.60912e-21)
(0.523667 -0.00119812 0)
(0.519691 -0.0205296 -4.48239e-21)
(0.500651 -0.00495718 0)
(0.506135 -0.00116042 0)
(0.49926 0.00240448 -1.28662e-20)
(0.51739 0.00111427 9.09841e-21)
(0.17743 -0.159904 3.63345e-21)
(0.485128 0.00280092 2.11992e-20)
(0.530473 -0.0206161 1.60136e-20)
(0.542933 -0.00528494 -6.62026e-20)
(0.511474 0.00330042 -2.29846e-22)
(0.511661 0.00183473 0)
(0.481735 -0.059187 0)
(0.47957 0.0207353 0)
(0.51762 -0.00129412 0)
(0.0904381 0.0387381 1.98012e-20)
(0.502883 -0.00712439 -4.48556e-21)
(0.434092 -0.00431234 -1.14141e-21)
(0.500025 0.000214782 2.27354e-20)
(0.495035 -0.00309091 0)
(0.530374 -0.0208559 -2.98031e-20)
(0.517613 -0.0012509 0)
(0.0145831 -0.00819087 6.55324e-20)
(0.487931 -0.0107594 -5.17941e-20)
(0.519603 -0.000143261 8.11965e-21)
(0.516981 0.00451157 -7.90318e-21)
(0.515019 0.00283642 0)
(0.041214 0.0426687 -3.21569e-20)
(0.520063 -0.0133697 1.22081e-20)
(0.498557 -0.0179203 0)
(0.512943 0.00288927 -3.96042e-21)
(0.523603 -0.00199193 0)
(0.515309 0.0227696 0)
(0.432709 0.0355973 -4.02611e-20)
(0.512851 0.00283912 3.39548e-23)
(0.545259 -0.000684072 0)
(0.406322 -0.0175597 6.30972e-23)
(0.47887 0.0248065 0)
(0.51245 -0.00720152 9.35574e-22)
(0.499555 0.00354858 -1.58506e-20)
(0.510647 0.00741703 -9.83886e-22)
(0.324711 0.0502126 -8.28773e-20)
(0.516199 0.00758895 -6.49451e-21)
(0.518155 0.00514243 0)
(0.578569 0.0107055 -2.53087e-20)
(0.482862 -0.0429842 2.42498e-20)
(0.43357 -0.00332098 0)
(0.500018 0.000187477 0)
(0.498295 -0.0179052 1.93373e-20)
(0.569134 0.0213127 4.35286e-20)
(0.525005 -0.00634441 0)
(0.339107 0.0661997 -1.05597e-20)
(0.500466 0.01168 -2.11878e-22)
(0.48735 0.00722447 7.48484e-20)
(0.460725 0.0564588 2.9544e-20)
(-0.00412268 0.0479786 -7.91604e-20)
(0.502293 -0.00653444 0)
(0.499608 0.0035726 -5.67601e-21)
(0.511207 -0.00860307 2.96412e-21)
(0.537159 -0.0969096 -1.26657e-20)
(0.504615 0.0130352 0)
(0.515773 -0.00115332 -6.34603e-21)
(0.513122 -0.00189269 0)
(0.511989 0.00286035 6.59864e-22)
(0.517416 -0.00125708 -1.1144e-20)
(0.508439 -0.00251099 0)
(0.518279 0.00509696 -2.20504e-21)
(0.51127 0.00553663 -3.63405e-22)
(0.487756 -0.0482346 0)
(0.513486 -0.00370943 -2.74758e-22)
(0.503616 0.000367461 1.942e-20)
(0.265284 0.0188213 1.01544e-20)
(0.50002 9.32012e-07 4.88048e-20)
(0.51971 -0.000213307 2.41902e-20)
(0.525636 -0.131438 0)
(0.585147 -0.0817896 0)
(0.505887 -0.00587431 -8.78847e-23)
(0.527418 0.00200849 0)
(0.307795 -0.00402396 0)
(0.503898 -0.0147681 1.25748e-22)
(0.0707619 -0.023223 6.81404e-20)
(0.527216 -0.00992335 1.16547e-20)
(0.503245 -0.000587998 0)
(0.536574 -0.00655718 -2.46486e-20)
(0.510494 -0.00268495 -7.94697e-22)
(0.542379 -0.00266092 0)
(0.583911 -0.0829139 0)
(0.521268 -0.00367832 -5.8357e-21)
(0.503999 0.00719987 0)
(0.541784 0.0108848 4.01664e-21)
(0.502852 0.00217345 -1.13059e-21)
(0.47866 0.0369933 1.37752e-20)
(0.527484 -0.00432591 0)
(0.50881 0.0120903 -7.37048e-21)
(0.503732 0.000363142 -4.09229e-21)
(0.142157 -0.0214273 -7.70188e-20)
(0.473084 0.125588 5.14769e-21)
(0.516129 0.00172098 0)
(0.522731 0.000305915 0)
(0.462694 0.00191235 0)
(0.515431 -0.00141385 -3.98369e-23)
(0.512588 0.00113368 3.10522e-22)
(0.51188 0.00285483 -1.04216e-21)
(0.514371 -0.00650575 -2.89151e-21)
(0.528617 0.00644094 -4.42091e-20)
(0.545257 -0.00265323 1.75486e-20)
(0.501304 0.000861186 0)
(0.510388 -0.00253591 8.91007e-23)
(0.498947 0.00276389 4.23372e-20)
(0.514362 -0.0013864 7.0576e-22)
(0.515855 -0.00459894 -4.78728e-21)
(0.515936 -0.00556075 4.60119e-22)
(0.509219 -0.000178041 4.38817e-21)
(0.522778 0.0045525 -8.22247e-21)