/*--------------------------------*- C++ -*----------------------------------*\
  =========                 |
  \\      /  F ield         | OpenFOAM: The Open Source CFD Toolbox
   \\    /   O peration     | Website:  https://openfoam.org
    \\  /    A nd           | Version:  9
     \\/     M anipulation  |
\*---------------------------------------------------------------------------*/
FoamFile
{
    format      ascii;
    class       volScalarField;
    location    "800";
    object      alphat;
}
// * * * * * * * * * * * * * * * * * * * * * * * * * * * * * * * * * * * * * //

dimensions      [1 -1 -1 0 0 0 0];

internalField   nonuniform List<scalar> 
4000
(
0.00037749
0.000339849
0.000289095
0.000250127
0.000230139
0.000215422
0.000207345
0.000201926
0.000197669
0.000194627
0.000192087
0.0001888
0.000191957
0.000199995
0.000207755
0.000214135
0.000217525
0.0002217
0.000243961
0.000274621
0.000467443
0.000448913
0.000414925
0.000365676
0.000301497
0.000243475
0.000222615
0.000214344
0.000215152
0.000218078
0.000218747
0.000213428
0.000210578
0.000217044
0.000232066
0.000257344
0.000294765
0.000352567
0.000402857
0.000432185
0.000499769
0.000490225
0.000464826
0.000428688
0.000384922
0.000333013
0.000279548
0.000233041
0.000229383
0.000234718
0.000233067
0.000225512
0.000232329
0.00025776
0.000293386
0.000339475
0.00039265
0.00043717
0.00046837
0.000483972
0.000518595
0.000517441
0.000499766
0.000469724
0.0004324
0.000392755
0.000348782
0.000292251
0.000252284
0.000242978
0.000240384
0.000245804
0.000267604
0.000298507
0.000338274
0.000388845
0.00043643
0.000474855
0.000499427
0.000507299
0.00053304
0.000541141
0.000535211
0.00052036
0.000500924
0.000479087
0.000454002
0.000422587
0.00037966
0.000330298
0.000288723
0.000302213
0.000338685
0.000379128
0.000417935
0.000452694
0.000484546
0.00051038
0.000523891
0.000523178
0.000546309
0.000564261
0.000571544
0.000571803
0.000567843
0.000560238
0.000548602
0.000532839
0.00051321
0.000490647
0.000469781
0.000478929
0.000491847
0.000505607
0.000518631
0.000530162
0.000539712
0.000546346
0.000546346
0.000536487
0.000560069
0.000587764
0.000606719
0.000618302
0.000624706
0.000626153
0.000622533
0.000613764
0.000599972
0.00058203
0.000570402
0.000578112
0.000585762
0.000591529
0.000594569
0.000594076
0.000590031
0.000582452
0.00056915
0.000549573
0.000575159
0.000612727
0.00064184
0.00066238
0.000676742
0.00068503
0.000687103
0.000682923
0.000672099
0.000654396
0.000645374
0.000653377
0.00065889
0.000659979
0.00065636
0.00064815
0.000635381
0.000617679
0.000593169
0.000563605
0.000593231
0.000642726
0.000681483
0.000710151
0.000731435
0.000745694
0.000752745
0.000752233
0.000743114
0.000724332
0.000715634
0.000724767
0.000728563
0.000725772
0.000717
0.000702703
0.00068274
0.000656616
0.000622135
0.000580283
0.000616204
0.000676909
0.000724466
0.000759477
0.000786418
0.000806817
0.00082085
0.000827799
0.000826268
0.000812403
0.000802682
0.000808078
0.000805925
0.000796669
0.000781294
0.00076043
0.000733893
0.000700253
0.00065565
0.000601676
0.000339849
0.000326694
0.000289961
0.000267725
0.000261519
0.000254444
0.000245945
0.000235832
0.000227057
0.000221541
0.000217854
0.000215169
0.000222577
0.000234172
0.000244545
0.000251085
0.000249517
0.000248468
0.000256301
0.000256676
0.000448913
0.000569632
0.000535961
0.000470363
0.000455036
0.000483735
0.000518826
0.000566821
0.000568222
0.000529838
0.000477219
0.00045169
0.000476299
0.00053077
0.000558705
0.00051021
0.000439848
0.000424946
0.000463799
0.000407374
0.000490225
0.000644882
0.000656941
0.000598604
0.000529443
0.000495563
0.000499328
0.000557348
0.000640516
0.000651829
0.000610435
0.000566887
0.000534933
0.000526501
0.000513106
0.000504627
0.000538334
0.000604669
0.000614321
0.000471509
0.000517441
0.000680466
0.00071041
0.000665017
0.000581257
0.000507893
0.000466297
0.000459317
0.000513606
0.000607536
0.000579035
0.000506733
0.000475881
0.000475529
0.000491541
0.000533384
0.000609681
0.000665471
0.000652147
0.000503453
0.000541141
0.000722012
0.000770795
0.000749052
0.000671684
0.000577314
0.000506118
0.00045565
0.000440162
0.000468482
0.000463093
0.000430953
0.000434386
0.000463819
0.00051025
0.000586189
0.000673213
0.000718347
0.000691024
0.00052952
0.000564261
0.000763773
0.000830517
0.000847143
0.000810114
0.000730126
0.000625391
0.000549614
0.00050423
0.000481611
0.000460058
0.000457886
0.000482889
0.000528553
0.000594618
0.000695603
0.000760095
0.000774618
0.000731877
0.000553685
0.000587764
0.000802194
0.000881385
0.000936619
0.000965058
0.000954125
0.000903472
0.000807039
0.000697841
0.000632369
0.000592499
0.000598653
0.000632241
0.000704616
0.000799457
0.0008482
0.000849843
0.000825286
0.000771213
0.000577566
0.000612727
0.000837454
0.000923038
0.00100321
0.00107015
0.00110888
0.00111756
0.0011046
0.0010768
0.00102437
0.000976577
0.000991164
0.00102642
0.00104582
0.00103554
0.000991443
0.000925745
0.000868469
0.000807882
0.00060189
0.000642726
0.000841542
0.000944878
0.00103202
0.00110435
0.00114889
0.00116025
0.00113718
0.00108018
0.00100486
0.000977481
0.00101818
0.0010524
0.00106403
0.0010517
0.00101846
0.00096388
0.00089859
0.00081614
0.000630012
0.000676909
0.000739518
0.000790452
0.000830117
0.000862734
0.000889396
0.000909446
0.000921116
0.000922193
0.000908738
0.000899576
0.000904142
0.000898804
0.000884406
0.000862958
0.000836091
0.000804304
0.000766359
0.000718517
0.000661835
0.000289095
0.000289961
0.000277893
0.000276913
0.000278281
0.000273498
0.000266845
0.000257474
0.000247749
0.000241387
0.000237032
0.000234528
0.000242512
0.000254104
0.000265862
0.000273258
0.000271199
0.000262757
0.000254288
0.000239677
0.000414925
0.000535961
0.00052769
0.000518352
0.000558336
0.000601094
0.000645097
0.000712408
0.000733085
0.00067218
0.000580886
0.000558044
0.0006108
0.00068186
0.000706322
0.000654725
0.000562106
0.000474309
0.000438736
0.000365733
0.000464826
0.000656941
0.00069065
0.000648335
0.000610849
0.00061478
0.000659775
0.000750386
0.000856708
0.000861415
0.000793825
0.000738991
0.000706457
0.000686161
0.000651274
0.000608677
0.000598694
0.00062985
0.000617354
0.000446004
0.000499766
0.00071041
0.000766445
0.000729477
0.000650349
0.000598954
0.000588556
0.00062785
0.00073788
0.000854438
0.000793171
0.000691035
0.00063332
0.00060927
0.000600949
0.000617828
0.000671071
0.000717486
0.000678103
0.000484769
0.000535211
0.000770795
0.000842543
0.000818514
0.000723184
0.000632134
0.000574001
0.000552638
0.000596644
0.000698729
0.000675727
0.000592205
0.000557388
0.00056179
0.000590733
0.0006527
0.000742159
0.000785595
0.000734151
0.000522463
0.000571544
0.000830517
0.000917346
0.000919252
0.000837895
0.000727394
0.000629691
0.000563275
0.000542752
0.000572061
0.000564612
0.000525577
0.000527457
0.0005629
0.000626155
0.000728449
0.000828285
0.00085721
0.00079379
0.000560462
0.000606719
0.000881385
0.00098327
0.00101926
0.000980755
0.00089714
0.000811134
0.000728604
0.000661312
0.000631832
0.000610318
0.000595475
0.000615112
0.000668357
0.000755381
0.000853514
0.000928931
0.000929287
0.000851348
0.000597116
0.00064184
0.000923038
0.0010559
0.00114865
0.00120813
0.00119395
0.00115316
0.00109162
0.00100952
0.000930553
0.000897078
0.000917545
0.000958767
0.00100585
0.00104845
0.00108299
0.0010676
0.00101117
0.000904435
0.000632163
0.000681483
0.000944878
0.00116382
0.00137284
0.00152383
0.00161139
0.00163979
0.00158884
0.00147307
0.00132582
0.00130401
0.00140517
0.00149279
0.0015299
0.00150368
0.0014309
0.00130109
0.00112527
0.000930732
0.000669792
0.000724466
0.000790452
0.000843969
0.0008871
0.000924109
0.000956035
0.000981658
0.000998172
0.00100238
0.00098898
0.000980151
0.000984373
0.000975891
0.000956576
0.000929851
0.000898195
0.000862547
0.000821276
0.000770345
0.000708894
0.000250127
0.000267725
0.000276913
0.00028472
0.000285602
0.000282624
0.000278672
0.000271735
0.000263292
0.00025761
0.000252829
0.000249499
0.000256049
0.000265787
0.000276463
0.000280651
0.000278484
0.000269733
0.000252623
0.000226086
0.000365676
0.000470363
0.000518352
0.000576581
0.00063279
0.00067423
0.000733837
0.000816271
0.000871397
0.000801525
0.000677264
0.000658819
0.000726876
0.000789857
0.000774187
0.000727219
0.000650481
0.000546836
0.000436962
0.000308277
0.000428688
0.000598604
0.000648335
0.000651098
0.000665908
0.000710218
0.000778881
0.000887222
0.00102911
0.00104308
0.000952144
0.000881517
0.00083562
0.000798482
0.00075147
0.000689507
0.000638432
0.000612108
0.000568341
0.000410865
0.000469724
0.000665017
0.000729477
0.000713633
0.000678898
0.000670163
0.000700679
0.000779603
0.000929833
0.0010576
0.000969706
0.000835538
0.000752632
0.00070971
0.000679748
0.000665042
0.000675769
0.000692312
0.000642076
0.000455119
0.00052036
0.000749052
0.000818514
0.000804315
0.000739245
0.000682851
0.000658994
0.000678169
0.000778182
0.000927944
0.000877203
0.000742224
0.000670452
0.000650042
0.000655629
0.000687997
0.000742603
0.000773294
0.000716938
0.000506601
0.000571803
0.000847143
0.000919252
0.000911044
0.000841466
0.000755476
0.000689296
0.000656233
0.000685215
0.000786878
0.000775312
0.000672795
0.000630431
0.000640243
0.000682023
0.000755778
0.000836542
0.000866426
0.000809078
0.000561229
0.000618302
0.000936619
0.00101926
0.00103007
0.000988088
0.000912556
0.000844967
0.000793385
0.000770756
0.000800717
0.000794647
0.000730436
0.000711634
0.000738202
0.000798108
0.00088098
0.000952775
0.000974541
0.000907896
0.000610326
0.00066238
0.00100321
0.00114865
0.00125509
0.0012667
0.00123103
0.00118976
0.00114059
0.00107858
0.00102631
0.0010111
0.00101646
0.00104192
0.00107738
0.00111845
0.00116711
0.00118624
0.00112332
0.000995969
0.000654678
0.000710151
0.00103202
0.00137284
0.00170108
0.00180462
0.00184494
0.00185928
0.00181882
0.00170349
0.00154664
0.00154689
0.00167056
0.00176223
0.00179063
0.00177566
0.0017502
0.00166216
0.00136056
0.00103653
0.000700457
0.000759477
0.000830117
0.0008871
0.000934366
0.000976819
0.00101548
0.00104836
0.00107234
0.00108337
0.00107644
0.00106631
0.00106461
0.0010496
0.00102369
0.000990319
0.000952553
0.000912128
0.000866574
0.000811393
0.000744001
0.000230139
0.000261519
0.000278281
0.000285602
0.000287107
0.000287222
0.000286164
0.000282823
0.000277403
0.000273483
0.000267498
0.000262971
0.000267171
0.000274272
0.000278842
0.000277003
0.000269988
0.000258681
0.000241314
0.000211852
0.000301497
0.000455036
0.000558336
0.00063279
0.00068146
0.000734824
0.000808626
0.000907631
0.000996545
0.000928454
0.000785413
0.000776866
0.000842902
0.00085587
0.000805622
0.000739628
0.000662055
0.000568911
0.000445297
0.000255445
0.000384922
0.000529443
0.000610849
0.000665908
0.000724248
0.000790713
0.000866065
0.000995411
0.00117469
0.00119656
0.00109829
0.00101927
0.000954755
0.000890129
0.0008299
0.000760347
0.000682676
0.000608711
0.000521565
0.000363835
0.0004324
0.000581257
0.000650349
0.000678898
0.000697988
0.000735409
0.00080239
0.000913841
0.0011008
0.0012224
0.00112268
0.000960841
0.000847338
0.000787688
0.000742633
0.000701329
0.000669246
0.00063815
0.000571358
0.00041999
0.000500924
0.000671684
0.000723184
0.000739245
0.000727964
0.000720746
0.000737982
0.000798748
0.00094829
0.00112135
0.00105404
0.000874482
0.000764169
0.000719664
0.000701361
0.000699479
0.000708779
0.00070478
0.000659198
0.000486791
0.000567843
0.000810114
0.000837895
0.000841466
0.000815965
0.00077945
0.000756476
0.000766609
0.000853507
0.00101225
0.000995229
0.000829968
0.000735419
0.000714098
0.000727116
0.000761711
0.000801444
0.000818347
0.000790574
0.00055893
0.000624706
0.000965058
0.000980755
0.000988088
0.000972587
0.000936749
0.000903748
0.000888326
0.000917191
0.00101067
0.0010187
0.000895951
0.000828198
0.00082499
0.000855322
0.00090316
0.000946432
0.000967609
0.000946393
0.000619119
0.000676742
0.00107015
0.00120813
0.0012667
0.00126805
0.00124667
0.00122258
0.00119144
0.00115164
0.00113102
0.0011379
0.00112599
0.00113433
0.00115491
0.00118256
0.0012211
0.00124568
0.00120724
0.0010833
0.000671488
0.000731435
0.00110435
0.00152383
0.00180462
0.00192846
0.00202147
0.00206662
0.00203029
0.00189234
0.00171029
0.0017281
0.00189177
0.00201546
0.00204642
0.00200459
0.00193117
0.00184674
0.00154599
0.00113159
0.000724351
0.000786418
0.000862734
0.000924109
0.000976819
0.0010279
0.00107541
0.00111692
0.00114974
0.00117013
0.00117322
0.00116019
0.00114926
0.00112574
0.00109202
0.00105102
0.00100529
0.000956925
0.000905625
0.00084528
0.000771238
0.000215422
0.000254444
0.000273498
0.000282624
0.000287222
0.000290116
0.00029219
0.000293444
0.000292737
0.000291024
0.000282886
0.000277057
0.000278433
0.000282157
0.000280964
0.000274827
0.000264343
0.000249833
0.000230415
0.000201329
0.000243475
0.000483735
0.000601094
0.00067423
0.000734824
0.000800662
0.000883345
0.000994458
0.00110339
0.00105595
0.000911948
0.000917366
0.000968547
0.000930874
0.000863942
0.000780309
0.000682286
0.000575353
0.000445768
0.000227932
0.000333013
0.000495563
0.00061478
0.000710218
0.000790713
0.000859651
0.000944313
0.00109746
0.00128187
0.0012951
0.00121034
0.00114517
0.0010658
0.000974382
0.000900452
0.000826861
0.000736295
0.000629315
0.000501105
0.000314295
0.000392755
0.000507893
0.000598954
0.000670163
0.000735409
0.000807741
0.00089679
0.00103447
0.00123091
0.0012973
0.00121255
0.00107006
0.000935992
0.00085911
0.000802985
0.000742877
0.000677776
0.000605353
0.00051156
0.000380656
0.000479087
0.000577314
0.000632134
0.000682851
0.000720746
0.000758574
0.000813353
0.000913107
0.00109278
0.00122475
0.00116225
0.000988213
0.000845828
0.000777002
0.000736787
0.000704656
0.000674183
0.000635288
0.000580996
0.000466749
0.000560238
0.000730126
0.000727394
0.000755476
0.00077945
0.000794299
0.000815877
0.000872625
0.0010088
0.00115935
0.00114691
0.000971024
0.000828121
0.000772112
0.000754653
0.000750684
0.000747941
0.000740836
0.000741991
0.000554154
0.000626153
0.000954125
0.00089714
0.000912556
0.000936749
0.000944725
0.000947292
0.000968102
0.00104567
0.0011679
0.00118928
0.00103888
0.000923302
0.000890496
0.000893719
0.000905639
0.000911727
0.000918537
0.000952874
0.000623381
0.00068503
0.00110888
0.00119395
0.00123103
0.00124667
0.00125135
0.00124805
0.00123176
0.00120995
0.00121627
0.00124529
0.0012163
0.00121021
0.00122022
0.00123232
0.00125026
0.00126312
0.00124148
0.00113967
0.000682658
0.000745694
0.00114889
0.00161139
0.00184494
0.00202147
0.00215233
0.00220584
0.00214649
0.00197137
0.00176239
0.00179246
0.00198573
0.00215789
0.00222146
0.00217785
0.00206969
0.00193094
0.0016814
0.00120552
0.000741508
0.000806817
0.000889396
0.000956035
0.00101548
0.00107541
0.00113178
0.00118285
0.00122664
0.00126028
0.00127872
0.00126089
0.00123518
0.00119938
0.00115585
0.00110643
0.00105284
0.000996423
0.0009386
0.00087264
0.000791856
0.000207345
0.000245945
0.000266845
0.000278672
0.000286164
0.00029219
0.000298453
0.000305498
0.000311562
0.000311954
0.000300814
0.000294519
0.000293661
0.00029094
0.000283544
0.000273086
0.000260217
0.000244465
0.000223905
0.000193965
0.000222615
0.000518826
0.000645097
0.000733837
0.000808626
0.000883345
0.00097168
0.00107909
0.00118094
0.00116109
0.00104351
0.00106438
0.00107222
0.00101557
0.000946765
0.000864275
0.000763412
0.000642451
0.000491283
0.000216482
0.000279548
0.000499328
0.000659775
0.000778881
0.000866065
0.000944313
0.00104793
0.00119368
0.00130716
0.00124393
0.00119425
0.001209
0.00115576
0.0010643
0.000977619
0.000894438
0.000798638
0.000673304
0.000506315
0.000253449
0.000348782
0.000466297
0.000588556
0.000700679
0.00080239
0.00089679
0.00100118
0.00114306
0.0012466
0.00116482
0.001104
0.00110439
0.00102808
0.000940331
0.000869342
0.000795343
0.000706413
0.000599461
0.000476227
0.000344809
0.000454002
0.000506118
0.000574001
0.000658994
0.000737982
0.000813353
0.000901777
0.00102741
0.00114146
0.00111342
0.00105841
0.00102695
0.000924164
0.000835061
0.000772736
0.00071464
0.000651938
0.000583256
0.000519288
0.000448465
0.000548602
0.000625391
0.000629691
0.000689296
0.000756476
0.000815877
0.000880919
0.000979148
0.00107857
0.00109276
0.00108861
0.00103397
0.000911323
0.00082257
0.0007737
0.000735781
0.000697983
0.000667671
0.000668984
0.000546606
0.000622533
0.000903472
0.000811134
0.000844967
0.000903748
0.000947292
0.000983174
0.00104191
0.00112687
0.0011634
0.0011994
0.00112846
0.00100033
0.000937041
0.000915273
0.000898035
0.000873411
0.000864717
0.000928772
0.000622647
0.000687103
0.00111756
0.00115316
0.00118976
0.00122258
0.00124805
0.00125938
0.00125861
0.00127228
0.00130646
0.00134917
0.00129367
0.00125943
0.00126218
0.00126609
0.001267
0.00126249
0.00123623
0.00116265
0.000687231
0.000752745
0.00116025
0.00163979
0.00185928
0.00206662
0.00220584
0.00223779
0.00214312
0.00197666
0.00185455
0.00187139
0.00198575
0.00216605
0.00227506
0.00225802
0.00214501
0.00197584
0.00174835
0.00124172
0.000750794
0.00082085
0.000909446
0.000981658
0.00104836
0.00111692
0.00118285
0.00124545
0.0013044
0.00135881
0.00140366
0.00137843
0.00132679
0.0012714
0.00121411
0.00115444
0.00109243
0.00102834
0.000963958
0.000892814
0.000806066
0.000201926
0.000235832
0.000257474
0.000271735
0.000282823
0.000293444
0.000305498
0.000319784
0.000334317
0.000336945
0.000322259
0.00031739
0.000311416
0.000300398
0.000287016
0.000272847
0.000257782
0.000240833
0.000219898
0.000189669
0.000214344
0.000566821
0.000712408
0.000816271
0.000907631
0.000994458
0.00107909
0.00115169
0.00119115
0.00110898
0.00105635
0.0011425
0.00113989
0.00109093
0.00102767
0.000948075
0.000850626
0.000731084
0.000567396
0.000211118
0.000233041
0.000557348
0.000750386
0.000887222
0.000995411
0.00109746
0.00119368
0.00124431
0.00119845
0.00105365
0.000993475
0.00111268
0.00117852
0.00114889
0.00107397
0.000978857
0.000869461
0.00073921
0.000560612
0.000225275
0.000292251
0.000459317
0.00062785
0.000779603
0.000913841
0.00103447
0.00114306
0.00118791
0.00113903
0.00112792
0.00101927
0.000974056
0.00105175
0.00102674
0.000949549
0.000862386
0.00075749
0.00062302
0.000462674
0.000308835
0.000422587
0.00045565
0.000552638
0.000678169
0.000798748
0.000913107
0.00102741
0.00108994
0.00110181
0.00128393
0.00116046
0.000930124
0.000960839
0.000914595
0.000829272
0.000739939
0.000645008
0.000547868
0.000471288
0.000430061
0.000532839
0.000549614
0.000563275
0.000656233
0.000766609
0.000872625
0.000979148
0.00103756
0.00108906
0.00144199
0.00134358
0.000972351
0.000950357
0.000884967
0.000802578
0.00072865
0.000657931
0.000604194
0.000597317
0.00053565
0.000613764
0.000807039
0.000728604
0.000793385
0.000888326
0.000968102
0.00104191
0.00110477
0.00118097
0.00158697
0.00153178
0.00112864
0.00105877
0.000988436
0.000938516
0.000893515
0.000841162
0.000811512
0.000876191
0.000616494
0.000682923
0.0011046
0.00109162
0.00114059
0.00119144
0.00123176
0.00125861
0.00130377
0.00143557
0.00178583
0.00176221
0.00140614
0.00129789
0.0012788
0.00127918
0.00127044
0.00124982
0.00121163
0.00115436
0.00068466
0.000752233
0.00113718
0.00158884
0.00181882
0.00203029
0.00214649
0.00214312
0.0020676
0.00209392
0.00231192
0.00226238
0.00203651
0.00207086
0.00218608
0.00221114
0.00212533
0.00195634
0.00175625
0.00123764
0.000751576
0.000827799
0.000921116
0.000998172
0.00107234
0.00114974
0.00122664
0.0013044
0.00138588
0.00147347
0.0015599
0.00152517
0.00143055
0.00134378
0.00126607
0.00119305
0.00112163
0.00105011
0.00098004
0.000904594
0.00081333
0.000197669
0.000227057
0.000247749
0.000263292
0.000277403
0.000292737
0.000311562
0.000334317
0.000354449
0.000371959
0.000354227
0.000338373
0.000325698
0.000305301
0.000286189
0.000269327
0.000253337
0.000236372
0.000215903
0.00018639
0.000215152
0.000568222
0.000733085
0.000871397
0.000996545
0.00110339
0.00118094
0.00119115
0.00108588
0.00114405
0.00107903
0.00104323
0.00113389
0.00112188
0.00107068
0.000990988
0.000892266
0.000772227
0.000601933
0.000210802
0.000229383
0.000640516
0.000856708
0.00102911
0.00117469
0.00128187
0.00130716
0.00119845
0.00112384
0.00156718
0.00143742
0.000973628
0.00106429
0.00114764
0.00113577
0.00105437
0.000939197
0.000796816
0.000595757
0.000224771
0.000252284
0.000513606
0.00073788
0.000929833
0.0011008
0.00123091
0.0012466
0.00113903
0.00131187
0.00205555
0.00188331
0.00107292
0.000941616
0.00104555
0.0010294
0.000937533
0.000823567
0.000684971
0.000491933
0.000271023
0.00037966
0.000440162
0.000596644
0.000778182
0.00094829
0.00109278
0.00114146
0.00110181
0.00155447
0.00254556
0.00234844
0.00127016
0.000897755
0.000972454
0.000921667
0.00080442
0.000670178
0.000535116
0.000437664
0.000408131
0.00051321
0.00050423
0.000542752
0.000685215
0.000853507
0.0010088
0.00107857
0.00108906
0.00178815
0.00297679
0.00276392
0.00147366
0.000913035
0.00094929
0.000867951
0.00074768
0.000635335
0.000554002
0.000540084
0.000520721
0.000599972
0.000697841
0.000661312
0.000770756
0.000917191
0.00104567
0.00112687
0.00118097
0.00199243
0.00328829
0.00306693
0.00167594
0.00106952
0.0010657
0.000993186
0.000906154
0.000814118
0.000751807
0.000794702
0.000604875
0.000672099
0.0010768
0.00100952
0.00107858
0.00115164
0.00120995
0.00127228
0.00143557
0.00224936
0.00346343
0.00326709
0.00193919
0.00136296
0.00129331
0.00127864
0.0012575
0.00121475
0.00115246
0.00111627
0.000674771
0.000743114
0.00108018
0.00147307
0.00170349
0.00189234
0.00197137
0.00197666
0.00209392
0.00262718
0.00329693
0.0031572
0.00239589
0.00200302
0.00199504
0.00204465
0.00200522
0.00185791
0.00166365
0.00118757
0.000743203
0.000826268
0.000922193
0.00100238
0.00108337
0.00117013
0.00126028
0.00135881
0.00147347
0.00160854
0.00173563
0.00169546
0.00154965
0.00141774
0.00131057
0.00122013
0.00113805
0.00105917
0.000984076
0.000906004
0.000812349
0.000194627
0.000221541
0.000241387
0.00025761
0.000273483
0.000291024
0.000311954
0.000336945
0.000371959
0.000388312
0.000371549
0.000355343
0.000327363
0.000305201
0.000284762
0.000266124
0.000248373
0.000230411
0.000210229
0.000182824
0.000218078
0.000529838
0.00067218
0.000801525
0.000928454
0.00105595
0.00116109
0.00110898
0.00114405
0.000742831
0.000700481
0.00100462
0.000969292
0.00105142
0.00101502
0.000938588
0.000848552
0.000743028
0.000588317
0.000209563
0.000234718
0.000651829
0.000861415
0.00104308
0.00119656
0.0012951
0.00124393
0.00105365
0.00156718
0.00110212
0.00103744
0.0013199
0.000852817
0.00102693
0.00110112
0.0010428
0.000932604
0.000793234
0.00060359
0.000221593
0.000242978
0.000607536
0.000854438
0.0010576
0.0012224
0.0012973
0.00116482
0.00112792
0.00205555
0.00145946
0.00138591
0.00174323
0.000902247
0.000934005
0.00102112
0.000953695
0.000835929
0.000704583
0.000536585
0.000237072
0.000330298
0.000468482
0.000698729
0.000927944
0.00112135
0.00122475
0.00111342
0.00128393
0.00254556
0.00182777
0.00175925
0.0021899
0.00104267
0.000925469
0.000987689
0.000881288
0.000726006
0.000556206
0.000421613
0.000378567
0.000490647
0.000481611
0.000572061
0.000786878
0.00101225
0.00115935
0.00109276
0.00144199
0.00297679
0.00219997
0.00214822
0.00257721
0.00117137
0.000966911
0.000972608
0.000812666
0.000643126
0.000525348
0.000496895
0.000501368
0.00058203
0.000632369
0.000631832
0.000800717
0.00101067
0.0011679
0.0011634
0.00158697
0.00328829
0.00254474
0.00251677
0.00284784
0.00133267
0.00114828
0.00110411
0.000952875
0.000793732
0.000684475
0.000697889
0.000589262
0.000654396
0.00102437
0.000930553
0.00102631
0.00113102
0.00121627
0.00130646
0.00178583
0.00346343
0.00281834
0.00280978
0.00301359
0.00156215
0.00135346
0.00130692
0.00124629
0.00115919
0.00106182
0.00106013
0.000659399
0.000724332
0.00100486
0.00132582
0.00154664
0.00171029
0.00176239
0.00185455
0.00231192
0.00329693
0.00302787
0.0030096
0.00294507
0.00210082
0.00184156
0.00186079
0.00185199
0.00172321
0.00152843
0.00110951
0.000726955
0.000812403
0.000908738
0.00098898
0.00107644
0.00117322
0.00127872
0.00140366
0.0015599
0.00173563
0.00174358
0.00174289
0.00166062
0.00148715
0.00134431
0.00123329
0.00113982
0.00105376
0.000974463
0.000896136
0.000802079
0.000192087
0.000217854
0.000237032
0.000252829
0.000267498
0.000282886
0.000300814
0.000322259
0.000354227
0.000371549
0.000361811
0.000344613
0.000319729
0.000300123
0.000282236
0.000265824
0.000249884
0.000233163
0.00021326
0.000184684
0.000218747
0.000477219
0.000580886
0.000677264
0.000785413
0.000911948
0.00104351
0.00105635
0.00107903
0.000700481
0.000664035
0.000936056
0.000928697
0.000993582
0.000946367
0.00086592
0.000776635
0.000676949
0.00053785
0.000205469
0.000233067
0.000610435
0.000793825
0.000952144
0.00109829
0.00121034
0.00119425
0.000993475
0.00143742
0.00103744
0.000980134
0.00117296
0.000801191
0.000981819
0.00102301
0.000957158
0.00085331
0.000729062
0.000557731
0.000216906
0.000240384
0.000579035
0.000793171
0.000969706
0.00112268
0.00121255
0.001104
0.00101927
0.00188331
0.00138591
0.00133139
0.00154228
0.000821666
0.000912182
0.000958219
0.000880342
0.000768146
0.000647639
0.000499287
0.000229405
0.000288723
0.000463093
0.000675727
0.000877203
0.00105404
0.00116225
0.00105841
0.00116046
0.00234844
0.00175925
0.00173286
0.00196119
0.000968751
0.000946545
0.000972186
0.000866389
0.000728319
0.000574541
0.000420481
0.000347915
0.000469781
0.000460058
0.000564612
0.000775312
0.000995229
0.00114691
0.00108861
0.00134358
0.00276392
0.00214822
0.00216859
0.00234537
0.00117464
0.00105835
0.0010337
0.000864691
0.000666672
0.000517927
0.000470125
0.00048453
0.000570402
0.000592499
0.000610318
0.000794647
0.0010187
0.00118928
0.0011994
0.00153178
0.00306693
0.00251677
0.00258878
0.00262687
0.00142552
0.00130145
0.00120652
0.00100293
0.000785434
0.000636633
0.00063268
0.000580862
0.000645374
0.000976577
0.000897078
0.0010111
0.0011379
0.00124529
0.00134917
0.00176221
0.00326709
0.00280978
0.00291875
0.00280774
0.00166121
0.00148461
0.00139003
0.00127142
0.00113009
0.00100181
0.00101414
0.000655005
0.000715634
0.000977481
0.00130401
0.00154689
0.0017281
0.00179246
0.00187139
0.00226238
0.0031572
0.0030096
0.00309628
0.00281491
0.0021208
0.0019196
0.00190877
0.00186635
0.0017146
0.00150859
0.00107994
0.000724856
0.000802682
0.000899576
0.000980151
0.00106631
0.00116019
0.00126089
0.00137843
0.00152517
0.00169546
0.00174289
0.00177722
0.00163912
0.00147023
0.00133563
0.00122898
0.00113764
0.00105298
0.000974932
0.000896684
0.000802021
0.0001888
0.000215169
0.000234528
0.000249499
0.000262971
0.000277057
0.000294519
0.00031739
0.000338373
0.000355343
0.000344613
0.000325719
0.00031057
0.000294877
0.000280602
0.000267262
0.00025375
0.0002386
0.00021911
0.000189943
0.000213428
0.00045169
0.000558044
0.000658819
0.000776866
0.000917366
0.00106438
0.0011425
0.00104323
0.00100462
0.000936056
0.000882119
0.000966092
0.000957074
0.000900677
0.000827724
0.000746615
0.000651603
0.000516504
0.000203407
0.000225512
0.000566887
0.000738991
0.000881517
0.00101927
0.00114517
0.001209
0.00111268
0.000973628
0.0013199
0.00117296
0.000771778
0.000901337
0.000966681
0.000931217
0.000857417
0.000768436
0.000662523
0.000516217
0.000216793
0.000245804
0.000506733
0.000691035
0.000835538
0.000960841
0.00107006
0.00110439
0.000974056
0.00107292
0.00174323
0.00154228
0.000835896
0.000829204
0.00090923
0.000870042
0.000792551
0.000704998
0.000603192
0.000464317
0.00025034
0.000302214
0.000430953
0.000592205
0.000742224
0.000874482
0.000988213
0.00102695
0.000930125
0.00127016
0.0021899
0.00196119
0.00101605
0.000852001
0.000926946
0.000874672
0.000782412
0.000677248
0.000557208
0.000427343
0.000347657
0.000478929
0.000457886
0.000525577
0.000672795
0.000829968
0.000971024
0.00103397
0.000972351
0.00147366
0.00257721
0.00234537
0.00123584
0.000969912
0.00101617
0.000933041
0.000800756
0.000654367
0.000523789
0.000472639
0.000490063
0.000578112
0.000598653
0.000595475
0.000730436
0.000895951
0.00103888
0.00112846
0.00112864
0.00167594
0.00284784
0.00262687
0.00151186
0.00125977
0.0012364
0.00111485
0.000952215
0.00077297
0.000637585
0.00064437
0.000588292
0.000653377
0.000991164
0.000917545
0.00101646
0.00112599
0.0012163
0.00129367
0.00140614
0.00193919
0.00301359
0.00280774
0.00179568
0.00154089
0.00147524
0.0014
0.00129053
0.00115174
0.00102473
0.00103223
0.000663697
0.000724767
0.00101818
0.00140517
0.00167056
0.00189177
0.00198573
0.00198575
0.00203651
0.00239589
0.00294507
0.00281491
0.00225619
0.00206802
0.00208682
0.00209602
0.00201552
0.00182712
0.0016041
0.00112291
0.000734559
0.000808078
0.000904142
0.000984373
0.00106461
0.00114926
0.00123518
0.00132679
0.00143055
0.00154965
0.00166062
0.00163912
0.00151005
0.00139394
0.0012957
0.00120944
0.00112949
0.00105182
0.00097796
0.000900643
0.000807167
0.000191957
0.000222577
0.000242512
0.000256049
0.000267171
0.000278433
0.000293661
0.000311416
0.000325698
0.000327363
0.000319729
0.00031057
0.000301462
0.000291767
0.000282362
0.000272753
0.000261795
0.000247868
0.000228079
0.000196685
0.000210578
0.000476299
0.0006108
0.000726876
0.000842902
0.000968547
0.00107222
0.00113989
0.00113389
0.000969292
0.000928697
0.000966092
0.000948924
0.000901351
0.000845521
0.000786768
0.00072132
0.000639697
0.000514909
0.000207054
0.000232329
0.000534933
0.000706457
0.00083562
0.000954755
0.0010658
0.00115576
0.00117852
0.00106429
0.000852817
0.000801191
0.000901337
0.00095065
0.000913881
0.000854387
0.000791214
0.000720338
0.000629548
0.000493623
0.000222632
0.000267604
0.000475881
0.00063332
0.000752631
0.000847338
0.000935992
0.00102808
0.00105175
0.000941616
0.000902247
0.000821666
0.000829204
0.000892781
0.000858941
0.000805446
0.000749507
0.000681252
0.00058781
0.000459559
0.000285689
0.000338685
0.000434386
0.000557388
0.000670452
0.000764169
0.000845828
0.000924164
0.000960839
0.000897755
0.00104267
0.000968751
0.000852001
0.00089829
0.000855056
0.000794506
0.000727898
0.000648225
0.00055235
0.000446117
0.000366119
0.000491847
0.000482889
0.000527457
0.000630431
0.000735419
0.000828121
0.000911323
0.000950357
0.000913035
0.00117137
0.00117464
0.000969912
0.000977349
0.000915791
0.000838304
0.000752011
0.00065197
0.000550585
0.000500599
0.000500649
0.000585762
0.000632241
0.000615112
0.000711634
0.000828198
0.000923302
0.00100033
0.00105877
0.00106952
0.00133267
0.00142552
0.00125977
0.00119474
0.00110701
0.00102079