/*--------------------------------*- C++ -*----------------------------------*\
  =========                 |
  \\      /  F ield         | OpenFOAM: The Open Source CFD Toolbox
   \\    /   O peration     | Website:  https://openfoam.org
    \\  /    A nd           | Version:  9
     \\/     M anipulation  |
\*---------------------------------------------------------------------------*/
FoamFile
{
    format      ascii;
    class       volScalarField;
    location    "800";
    object      epsilon;
}
// * * * * * * * * * * * * * * * * * * * * * * * * * * * * * * * * * * * * * //

dimensions      [0 2 -3 0 0 0 0];

internalField   nonuniform List<scalar> 
4000
(
2.68009e-07
1.95617e-07
1.24572e-07
8.63694e-08
6.86883e-08
5.75859e-08
5.22327e-08
4.8595e-08
4.59332e-08
4.41978e-08
4.28294e-08
4.08556e-08
4.24856e-08
4.77579e-08
5.36715e-08
5.84571e-08
6.11493e-08
6.33385e-08
7.71098e-08
1.02529e-07
5.67106e-07
4.99542e-07
3.90034e-07
2.61059e-07
1.44099e-07
8.04678e-08
6.54449e-08
5.95564e-08
6.06418e-08
6.35878e-08
6.44765e-08
6.00838e-08
5.74567e-08
6.23261e-08
7.46953e-08
9.82641e-08
1.38491e-07
2.26714e-07
3.46706e-07
4.35029e-07
7.04568e-07
6.65383e-07
5.69059e-07
4.47323e-07
3.22613e-07
2.08601e-07
1.25401e-07
7.53342e-08
7.3292e-08
7.92003e-08
7.79414e-08
7.02969e-08
7.62409e-08
1.02549e-07
1.46105e-07
2.19912e-07
3.36835e-07
4.71578e-07
5.815e-07
6.43144e-07
7.88298e-07
7.84106e-07
7.09166e-07
5.91187e-07
4.63502e-07
3.49341e-07
2.46653e-07
1.46436e-07
9.69951e-08
8.75448e-08
8.51078e-08
9.03594e-08
1.15346e-07
1.5742e-07
2.22201e-07
3.3319e-07
4.73924e-07
6.09733e-07
7.09903e-07
7.45092e-07
8.55545e-07
8.97355e-07
8.72281e-07
8.05297e-07
7.21721e-07
6.34261e-07
5.41385e-07
4.36176e-07
3.12166e-07
2.02498e-07
1.34104e-07
1.51692e-07
2.14838e-07
3.02761e-07
4.09378e-07
5.26941e-07
6.49447e-07
7.59746e-07
8.21891e-07
8.1877e-07
9.20487e-07
1.01804e-06
1.06421e-06
1.07228e-06
1.05625e-06
1.01908e-06
9.59754e-07
8.79867e-07
7.84355e-07
6.81492e-07
5.87877e-07
6.23858e-07
6.7796e-07
7.38352e-07
7.98321e-07
8.54065e-07
9.01729e-07
9.35196e-07
9.34233e-07
8.83674e-07
9.92018e-07
1.15223e-06
1.27607e-06
1.35963e-06
1.41055e-06
1.42684e-06
1.40653e-06
1.34974e-06
1.25987e-06
1.14707e-06
1.07028e-06
1.11448e-06
1.15999e-06
1.19521e-06
1.21381e-06
1.21026e-06
1.18438e-06
1.13716e-06
1.05846e-06
9.51125e-07
1.07561e-06
1.30836e-06
1.51516e-06
1.67657e-06
1.79841e-06
1.87381e-06
1.8969e-06
1.86574e-06
1.77861e-06
1.63959e-06
1.5614e-06
1.62088e-06
1.66184e-06
1.66983e-06
1.6412e-06
1.57871e-06
1.48452e-06
1.36035e-06
1.20094e-06
1.02757e-06
1.18282e-06
1.51558e-06
1.82062e-06
2.07414e-06
2.27914e-06
2.42603e-06
2.50351e-06
2.50301e-06
2.41395e-06
2.23411e-06
2.14071e-06
2.22375e-06
2.25745e-06
2.22986e-06
2.14769e-06
2.01885e-06
1.84774e-06
1.63895e-06
1.3892e-06
1.12388e-06
1.32989e-06
1.77912e-06
2.19863e-06
2.54927e-06
2.84448e-06
3.08344e-06
3.25616e-06
3.34519e-06
3.32798e-06
3.16284e-06
3.03204e-06
3.09362e-06
3.06711e-06
2.96092e-06
2.79021e-06
2.56901e-06
2.30471e-06
1.99642e-06
1.63241e-06
1.2561e-06
1.95617e-07
1.78626e-07
1.31517e-07
1.09953e-07
1.04236e-07
9.64648e-08
8.75357e-08
7.75547e-08
6.99864e-08
6.57225e-08
6.30877e-08
6.08602e-08
6.64832e-08
7.69777e-08
8.73344e-08
9.36069e-08
9.13686e-08
8.82136e-08
9.31704e-08
9.03485e-08
4.99542e-07
5.57844e-07
4.22194e-07
2.72586e-07
1.76191e-07
1.19856e-07
9.17095e-08
7.53049e-08
6.80913e-08
6.80679e-08
6.68344e-08
6.42344e-08
6.92635e-08
8.7536e-08
1.2089e-07
1.4997e-07
1.68786e-07
2.36249e-07
3.57829e-07
3.62044e-07
6.65383e-07
6.69636e-07
5.88905e-07
4.52244e-07
3.21208e-07
2.33067e-07
1.65962e-07
1.13122e-07
8.19443e-08
7.38444e-08
7.39151e-08
8.03213e-08
1.01207e-07
1.38964e-07
1.88832e-07
2.5717e-07
3.68123e-07
5.25215e-07
6.32848e-07
5.95288e-07
7.84106e-07
7.08408e-07
6.4685e-07
5.39198e-07
4.05579e-07
2.88641e-07
2.09377e-07
1.50943e-07
1.15221e-07
9.69543e-08
9.41618e-08
1.04658e-07
1.29209e-07
1.68016e-07
2.25443e-07
3.1705e-07
4.59537e-07
5.87887e-07
6.65724e-07
7.28651e-07
8.97355e-07
7.91119e-07
7.5353e-07
6.82221e-07
5.75225e-07
4.50569e-07
3.45889e-07
2.56985e-07
1.82324e-07
1.35464e-07
1.14796e-07
1.27422e-07
1.66249e-07
2.26584e-07
3.11366e-07
4.38802e-07
5.75187e-07
6.76473e-07
7.34577e-07
8.4972e-07
1.01804e-06
9.04242e-07
8.86812e-07
8.53365e-07
7.96767e-07
7.03964e-07
5.74787e-07
4.72585e-07
3.97674e-07
3.39209e-07
2.93003e-07
3.12838e-07
3.60333e-07
4.31289e-07
5.27403e-07
6.5629e-07
7.41769e-07
7.99731e-07
8.37518e-07
9.73544e-07
1.15223e-06
1.05047e-06
1.04559e-06
1.02942e-06
1.01932e-06
9.76886e-07
8.92792e-07
7.68813e-07
6.40782e-07
5.61472e-07
5.15575e-07
5.40277e-07
5.93068e-07
6.92704e-07
8.17065e-07
8.90132e-07
9.20348e-07
9.49835e-07
9.74682e-07
1.10768e-06
1.30836e-06
1.27492e-06
1.30558e-06
1.31165e-06
1.34878e-06
1.37686e-06
1.36e-06
1.30092e-06
1.19706e-06
1.02694e-06
9.48514e-07
1.03358e-06
1.12821e-06
1.18777e-06
1.20619e-06
1.19906e-06
1.18107e-06
1.18708e-06
1.18309e-06
1.25725e-06
1.51558e-06
1.69259e-06
1.88208e-06
2.02212e-06
2.15415e-06
2.25476e-06
2.28654e-06
2.23334e-06
2.06779e-06
1.79744e-06
1.75761e-06
1.9412e-06
2.03489e-06
2.043e-06
1.99514e-06
1.9152e-06
1.81732e-06
1.7145e-06
1.56827e-06
1.4466e-06
1.77912e-06
2.33949e-06
2.87739e-06
3.35183e-06
3.77988e-06
4.15602e-06
4.45477e-06
4.63566e-06
4.65362e-06
4.45209e-06
4.29267e-06
4.3546e-06
4.27347e-06
4.06893e-06
3.77671e-06
3.43067e-06
3.04894e-06
2.63127e-06
2.16181e-06
1.68345e-06
1.24572e-07
1.31517e-07
1.22262e-07
1.24622e-07
1.26618e-07
1.20445e-07
1.12402e-07
1.01548e-07
9.1237e-08
8.53831e-08
8.17134e-08
7.89723e-08
8.61548e-08
9.83923e-08
1.11771e-07
1.20581e-07
1.17601e-07
1.06389e-07
9.52133e-08
7.89691e-08
3.90034e-07
4.22194e-07
3.26543e-07
2.32734e-07
1.73641e-07
1.33423e-07
1.10963e-07
9.34283e-08
8.48776e-08
8.58859e-08
8.35707e-08
7.92828e-08
8.48462e-08
1.0303e-07
1.33438e-07
1.65639e-07
1.80916e-07
1.99639e-07
2.57481e-07
2.59974e-07
5.69059e-07
5.88905e-07
5.18137e-07
4.05721e-07
3.12763e-07
2.47779e-07
1.89252e-07
1.34365e-07
1.00364e-07
8.97366e-08
8.91894e-08
9.60201e-08
1.19641e-07
1.60389e-07
2.08764e-07
2.64753e-07
3.44127e-07
4.58742e-07
5.43094e-07
5.05422e-07
7.09166e-07
6.4685e-07
5.65691e-07
4.6001e-07
3.4562e-07
2.62963e-07
2.102e-07
1.73499e-07
1.4093e-07
1.14113e-07
1.08357e-07
1.19889e-07
1.44989e-07
1.81535e-07
2.30492e-07
3.01944e-07
4.0963e-07
5.25762e-07
6.04992e-07
6.52895e-07
8.72281e-07
7.5353e-07
6.48423e-07
5.43337e-07
4.29368e-07
3.32424e-07
2.58556e-07
1.99387e-07
1.54721e-07
1.28789e-07
1.20997e-07
1.31241e-07
1.5872e-07
2.02036e-07
2.63656e-07
3.56068e-07
4.8041e-07
5.96426e-07
7.00274e-07
8.19216e-07
1.06421e-06
8.86812e-07
7.58333e-07
6.44366e-07
5.41559e-07
4.42719e-07
3.50568e-07
2.76301e-07
2.23072e-07
1.89861e-07
1.73586e-07
1.88187e-07
2.24172e-07
2.78704e-07
3.53888e-07
4.6204e-07
5.79283e-07
7.02424e-07
8.32503e-07
1.01388e-06
1.27607e-06
1.04559e-06
9.06778e-07
7.53922e-07
6.26967e-07
5.40039e-07
4.61929e-07
3.88707e-07
3.25103e-07
2.81495e-07
2.61026e-07
2.78424e-07
3.17476e-07
3.7954e-07
4.66746e-07
5.65326e-07
6.96707e-07
8.54692e-07
9.98725e-07
1.23044e-06
1.51516e-06
1.30558e-06
1.21485e-06
1.04143e-06
8.48498e-07
7.49745e-07
7.04597e-07
6.50136e-07
5.77071e-07
4.96651e-07
4.73482e-07
5.26519e-07
5.83403e-07
6.3613e-07
6.87336e-07
7.7965e-07
9.71188e-07
1.1569e-06
1.25728e-06
1.46527e-06
1.82062e-06
1.88208e-06
2.10731e-06
2.30489e-06
2.47242e-06
2.58177e-06
2.57688e-06
2.47397e-06
2.18664e-06
1.75325e-06
1.68459e-06
1.98697e-06
2.19207e-06
2.26429e-06
2.27215e-06
2.23148e-06
2.13487e-06
1.99216e-06
1.79212e-06
1.74895e-06
2.19863e-06
2.87739e-06
3.52313e-06
4.11135e-06
4.66662e-06
5.18433e-06
5.6257e-06
5.92338e-06
6.00169e-06
5.76372e-06
5.5797e-06
5.64403e-06
5.49145e-06
5.16836e-06
4.74244e-06
4.26975e-06
3.77619e-06
3.25381e-06
2.67893e-06
2.08141e-06
8.63694e-08
1.09953e-07
1.24622e-07
1.35851e-07
1.36731e-07
1.33175e-07
1.28554e-07
1.20157e-07
1.09904e-07
1.04106e-07
9.95012e-08
9.51028e-08
1.01537e-07
1.1274e-07
1.26186e-07
1.31363e-07
1.27714e-07
1.16124e-07
9.54851e-08
6.80881e-08
2.61059e-07
2.72586e-07
2.32734e-07
1.93569e-07
1.59726e-07
1.35865e-07
1.19708e-07
1.0468e-07
1.0132e-07
1.06586e-07
1.01684e-07
9.29295e-08
9.55053e-08
1.07433e-07
1.25619e-07
1.46295e-07
1.6524e-07
1.74037e-07
1.7933e-07
1.58074e-07
4.47323e-07
4.52244e-07
4.05721e-07
3.42332e-07
2.90131e-07
2.4219e-07
1.87929e-07
1.3911e-07
1.14582e-07
1.09574e-07
1.0536e-07
1.06074e-07
1.26005e-07
1.65882e-07
2.13313e-07
2.59805e-07
3.09638e-07
3.69049e-07
4.14405e-07
3.95763e-07
5.91187e-07
5.39198e-07
4.6001e-07
3.7397e-07
2.98685e-07
2.47584e-07
2.1718e-07
1.90031e-07
1.561e-07
1.29232e-07
1.20476e-07
1.28386e-07
1.5266e-07
1.86706e-07
2.2669e-07
2.76792e-07
3.46758e-07
4.33218e-07
5.05868e-07
5.43706e-07
8.05297e-07
6.82221e-07
5.43337e-07
4.33737e-07
3.41239e-07
2.733e-07
2.25761e-07
1.88864e-07
1.608e-07
1.43418e-07
1.35096e-07
1.39633e-07
1.59842e-07
1.92734e-07
2.38049e-07
3.03532e-07
3.96781e-07
5.10268e-07
6.36801e-07
7.50232e-07
1.07228e-06
8.53365e-07
6.44366e-07
5.03793e-07
4.03995e-07
3.27019e-07
2.65743e-07
2.15442e-07
1.78379e-07
1.5991e-07
1.53034e-07
1.59901e-07
1.85214e-07
2.25448e-07
2.81014e-07
3.61771e-07
4.70137e-07
6.15373e-07
8.12414e-07
1.02332e-06
1.35963e-06
1.02942e-06
7.53922e-07
5.63785e-07
4.55485e-07
3.86623e-07
3.33891e-07
2.86292e-07
2.43343e-07
2.14988e-07
2.05779e-07
2.16619e-07
2.45232e-07
2.88496e-07
3.47583e-07
4.28274e-07
5.51959e-07
7.58925e-07
1.01369e-06
1.32152e-06
1.67657e-06
1.31165e-06
1.04143e-06
7.67679e-07
7.17035e-07
7.16424e-07
7.23289e-07
6.96844e-07
6.169e-07
5.08644e-07
4.86934e-07
5.55282e-07
6.14343e-07
6.43784e-07
6.5593e-07
6.84563e-07
7.90916e-07
1.09641e-06
1.31132e-06
1.63696e-06
2.07414e-06
2.02212e-06
2.30489e-06
2.63855e-06
2.90008e-06
3.27129e-06
3.54424e-06
3.57024e-06
3.24375e-06
2.67027e-06
2.62417e-06
3.06351e-06
3.31909e-06
3.26471e-06
3.01304e-06
2.71863e-06
2.604e-06
2.30182e-06
1.991e-06
2.01167e-06
2.54927e-06
3.35183e-06
4.11135e-06
4.82441e-06
5.53246e-06
6.2351e-06
6.87614e-06
7.37016e-06
7.60751e-06
7.46779e-06
7.22831e-06
7.17936e-06
6.86777e-06
6.3617e-06
5.75203e-06
5.11247e-06
4.48368e-06
3.83939e-06
3.14579e-06
2.41879e-06
6.86883e-08
1.04236e-07
1.26618e-07
1.36731e-07
1.39247e-07
1.40316e-07
1.39944e-07
1.36533e-07
1.29389e-07
1.25026e-07
1.18088e-07
1.11362e-07
1.1549e-07
1.24313e-07
1.30017e-07
1.27035e-07
1.17221e-07
1.02745e-07
8.33211e-08
5.65074e-08
1.44099e-07
1.76191e-07
1.73641e-07
1.59726e-07
1.44425e-07
1.3306e-07
1.21579e-07
1.13504e-07
1.19523e-07
1.32452e-07
1.22466e-07
1.07849e-07
1.05247e-07
1.11909e-07
1.21829e-07
1.29805e-07
1.34139e-07
1.34734e-07
1.27784e-07
9.43917e-08
3.22613e-07
3.21208e-07
3.12763e-07
2.90131e-07
2.59352e-07
2.1748e-07
1.71054e-07
1.38908e-07
1.29494e-07
1.33604e-07
1.23429e-07
1.1417e-07
1.23612e-07
1.52262e-07
1.93414e-07
2.36877e-07
2.73185e-07
2.98934e-07
3.04201e-07
2.76746e-07
4.63502e-07
4.05579e-07
3.4562e-07
2.98685e-07
2.60671e-07
2.36354e-07
2.18298e-07
1.92096e-07
1.63903e-07
1.48363e-07
1.34245e-07
1.32635e-07
1.52916e-07
1.84839e-07
2.17967e-07
2.51101e-07
2.89252e-07
3.33943e-07
3.80524e-07
4.3042e-07
7.21721e-07
5.75225e-07
4.29368e-07
3.41239e-07
2.79812e-07
2.37815e-07
2.09563e-07
1.88497e-07
1.7349e-07
1.67468e-07
1.53988e-07
1.47146e-07
1.59678e-07
1.84602e-07
2.17536e-07
2.61625e-07
3.2365e-07
4.10703e-07
5.45701e-07
6.68863e-07
1.05625e-06
7.96767e-07
5.41559e-07
4.03995e-07
3.21497e-07
2.66672e-07
2.26958e-07
1.95838e-07
1.76186e-07
1.76556e-07
1.71949e-07
1.62168e-07
1.74098e-07
2.01966e-07
2.4239e-07
3.01761e-07
3.91439e-07
5.3549e-07
7.78518e-07
1.01647e-06
1.41055e-06
1.01932e-06
6.26967e-07
4.55485e-07
3.7156e-07
3.2449e-07
2.92482e-07
2.65159e-07
2.41834e-07
2.34325e-07
2.32936e-07
2.26487e-07
2.3874e-07
2.65509e-07
3.04834e-07
3.65467e-07
4.70546e-07
6.68049e-07
1.03121e-06
1.38722e-06
1.79841e-06
1.34878e-06
8.48498e-07
7.17035e-07
7.39741e-07
7.97274e-07
8.44855e-07
8.41472e-07
7.59688e-07
6.4152e-07
6.26258e-07
7.12659e-07
7.78673e-07
7.88629e-07
7.625e-07
7.39472e-07
7.73736e-07
1.00189e-06
1.38351e-06
1.77581e-06
2.27914e-06
2.15415e-06
2.47242e-06
2.90008e-06
3.61092e-06
4.32775e-06
4.83083e-06
4.91785e-06
4.4483e-06
3.69759e-06
3.65437e-06
4.28626e-06
4.71313e-06
4.63901e-06
4.19037e-06
3.56581e-06
3.01448e-06
2.59813e-06
2.18587e-06
2.23606e-06
2.84448e-06
3.77988e-06
4.66662e-06
5.53246e-06
6.46803e-06
7.42832e-06
8.34071e-06
9.1127e-06
9.61889e-06
9.70825e-06
9.35731e-06
9.07507e-06
8.5125e-06
7.75674e-06
6.90537e-06
6.03483e-06
5.19887e-06
4.40084e-06
3.57222e-06
2.70625e-06
5.75859e-08
9.64648e-08
1.20445e-07
1.33175e-07
1.40316e-07
1.45508e-07
1.50087e-07
1.53901e-07
1.5377e-07
1.51177e-07
1.39776e-07
1.30286e-07
1.31013e-07
1.35844e-07
1.33361e-07
1.24265e-07
1.10319e-07
9.31216e-08
7.31485e-08
4.88499e-08
8.04678e-08
1.19856e-07
1.33423e-07
1.35865e-07
1.3306e-07
1.27126e-07
1.21742e-07
1.23217e-07
1.43532e-07
1.70159e-07
1.51623e-07
1.27972e-07
1.16597e-07
1.13836e-07
1.15422e-07
1.17779e-07
1.1721e-07
1.10237e-07
9.55229e-08
7.17633e-08
2.08601e-07
2.33067e-07
2.47779e-07
2.4219e-07
2.1748e-07
1.82344e-07
1.53528e-07
1.40336e-07
1.51959e-07
1.71759e-07
1.51406e-07
1.27383e-07
1.22619e-07
1.34914e-07
1.58817e-07
1.91793e-07
2.2389e-07
2.37888e-07
2.23781e-07
1.74651e-07
3.49341e-07
2.88641e-07
2.62963e-07
2.47584e-07
2.36354e-07
2.25575e-07
2.07182e-07
1.84142e-07
1.77248e-07
1.88576e-07
1.61635e-07
1.38264e-07
1.46897e-07
1.74801e-07
2.06577e-07
2.32571e-07
2.5004e-07
2.64126e-07
2.80643e-07
3.25427e-07
6.34261e-07
4.50569e-07
3.32424e-07
2.733e-07
2.37815e-07
2.14333e-07
1.98745e-07
1.89351e-07
1.91701e-07
2.168e-07
1.9147e-07
1.56901e-07
1.57522e-07
1.75154e-07
1.98823e-07
2.27673e-07
2.66028e-07
3.24999e-07
4.33118e-07
5.92802e-07
1.01908e-06
7.03964e-07
4.42719e-07
3.27019e-07
2.66672e-07
2.29578e-07
2.04502e-07
1.88863e-07
1.92015e-07
2.33591e-07
2.28169e-07
1.78313e-07
1.7057e-07
1.8671e-07
2.15524e-07
2.59283e-07
3.29909e-07
4.5815e-07
7.20495e-07
9.9607e-07
1.42684e-06
9.76886e-07
5.40039e-07
3.86623e-07
3.2449e-07
2.94727e-07
2.778e-07
2.67259e-07
2.69137e-07
3.08292e-07
3.17891e-07
2.65895e-07
2.52994e-07
2.63841e-07
2.88249e-07
3.3234e-07
4.17394e-07
5.98063e-07
1.02353e-06
1.42325e-06
1.87381e-06
1.37686e-06
7.49745e-07
7.16424e-07
7.97274e-07
9.0069e-07
9.79035e-07
9.83158e-07
8.92968e-07
7.90718e-07
7.88615e-07
8.71113e-07
9.51682e-07
9.57529e-07
9.02757e-07
8.3445e-07
8.04074e-07
9.004e-07
1.45082e-06
1.87489e-06
2.42603e-06
2.25476e-06
2.58177e-06
3.27129e-06
4.32775e-06
5.30473e-06
5.95897e-06
6.00351e-06
5.3627e-06
4.60728e-06
4.52764e-06
5.19621e-06
5.83196e-06
5.84164e-06
5.27841e-06
4.4107e-06
3.49708e-06
2.89996e-06
2.35858e-06
2.41008e-06
3.08344e-06
4.15602e-06
5.18433e-06
6.2351e-06
7.42832e-06
8.68176e-06
9.93156e-06
1.10948e-05
1.20521e-05
1.2611e-05
1.20574e-05
1.13101e-05
1.03342e-05
9.23309e-06
8.08695e-06
6.95904e-06
5.89252e-06
4.91847e-06
3.94562e-06
2.94013e-06
5.22327e-08
8.75357e-08
1.12402e-07
1.28554e-07
1.39944e-07
1.50087e-07
1.6164e-07
1.75603e-07
1.87973e-07
1.86899e-07
1.68149e-07
1.56866e-07
1.55e-07
1.49843e-07
1.37766e-07
1.22402e-07
1.05507e-07
8.73608e-08
6.71934e-08
4.37273e-08
6.54449e-08
9.17095e-08
1.10963e-07
1.19708e-07
1.21579e-07
1.21742e-07
1.2489e-07
1.39534e-07
1.83167e-07
2.40145e-07
2.0485e-07
1.62652e-07
1.36204e-07
1.20265e-07
1.11527e-07
1.05054e-07
9.89002e-08
9.05648e-08
7.61432e-08
6.08058e-08
1.25401e-07
1.65962e-07
1.89252e-07
1.87929e-07
1.71054e-07
1.53528e-07
1.43864e-07
1.52728e-07
2.0214e-07
2.72957e-07
2.24879e-07
1.60406e-07
1.32738e-07
1.26495e-07
1.31713e-07
1.42717e-07
1.56109e-07
1.62286e-07
1.45018e-07
9.26924e-08
2.46653e-07
2.09377e-07
2.102e-07
2.1718e-07
2.18298e-07
2.07182e-07
1.89041e-07
1.8478e-07
2.3727e-07
3.5676e-07
2.81694e-07
1.70335e-07
1.44354e-07
1.5673e-07
1.82668e-07
2.07917e-07
2.21021e-07
2.19366e-07
2.14692e-07
2.42463e-07
5.41385e-07
3.45889e-07
2.58556e-07
2.25761e-07
2.09563e-07
1.98745e-07
1.92335e-07
1.98162e-07
2.63769e-07
4.70012e-07
3.83428e-07
1.98437e-07
1.59319e-07
1.66667e-07
1.82552e-07
2.00251e-07
2.22435e-07
2.60379e-07
3.47548e-07
5.28117e-07
9.59754e-07
5.74787e-07
3.50568e-07
2.65743e-07
2.26958e-07
2.04502e-07
1.9165e-07
1.963e-07
2.73451e-07
5.63413e-07
5.13448e-07
2.38908e-07
1.75085e-07
1.75869e-07
1.945e-07
2.26175e-07
2.80242e-07
3.86495e-07
6.23894e-07
9.60474e-07
1.40653e-06
8.92792e-07
4.61929e-07
3.33891e-07
2.92482e-07
2.778e-07
2.74139e-07
2.85295e-07
3.67659e-07
6.92878e-07
6.86774e-07
3.60854e-07
2.78274e-07
2.70016e-07
2.81826e-07
3.12092e-07
3.78973e-07
5.39305e-07
9.72262e-07
1.42427e-06
1.8969e-06
1.36e-06
7.04597e-07
7.23289e-07
8.44855e-07
9.79035e-07
1.06926e-06
1.07e-06
1.0297e-06
1.20567e-06
1.19492e-06
1.02196e-06
1.06797e-06
1.08361e-06
1.01904e-06
9.19342e-07
8.39369e-07
8.65562e-07
1.46629e-06
1.92089e-06
2.50351e-06
2.28654e-06
2.57688e-06
3.54424e-06
4.83083e-06
5.95897e-06
6.62493e-06
6.53995e-06
6.02135e-06
6.15616e-06
5.85686e-06
5.80325e-06
6.39605e-06
6.56602e-06
6.00372e-06
4.99373e-06
3.84455e-06
3.00338e-06
2.44206e-06
2.51273e-06
3.25616e-06
4.45477e-06
5.6257e-06
6.87614e-06
8.34071e-06
9.93156e-06
1.16173e-05
1.33699e-05
1.51425e-05
1.67268e-05
1.57982e-05
1.40586e-05
1.23467e-05
1.07335e-05
9.21408e-06
7.79816e-06
6.49837e-06
5.34635e-06
4.23965e-06
3.11094e-06
4.8595e-08
7.75547e-08
1.01548e-07
1.20157e-07
1.36533e-07
1.53901e-07
1.75603e-07
2.03907e-07
2.34821e-07
2.37229e-07
2.06932e-07
1.97574e-07
1.86625e-07
1.66277e-07
1.43871e-07
1.22837e-07
1.03199e-07
8.40169e-08
6.39663e-08
4.10021e-08
5.95564e-08
7.53049e-08
9.34283e-08
1.0468e-07
1.13504e-07
1.23217e-07
1.39534e-07
1.76085e-07
2.59932e-07
4.25033e-07
3.42372e-07
2.28588e-07
1.74618e-07
1.39566e-07
1.18746e-07
1.04188e-07
9.19459e-08
7.9298e-08
6.48865e-08
5.68673e-08
7.53342e-08
1.13122e-07
1.34365e-07
1.3911e-07
1.38908e-07
1.40336e-07
1.52728e-07
2.0344e-07
3.69364e-07
8.42809e-07
6.58375e-07
2.75534e-07
1.72263e-07
1.34602e-07
1.22032e-07
1.18411e-07
1.1616e-07
1.09154e-07
9.14105e-08
6.90383e-08
1.46436e-07
1.50943e-07
1.73499e-07
1.90031e-07
1.92096e-07
1.84142e-07
1.8478e-07
2.48347e-07
5.62797e-07
1.57475e-06
1.24213e-06
3.77839e-07
1.81101e-07
1.46119e-07
1.51057e-07
1.66468e-07
1.78754e-07
1.75776e-07
1.60789e-07
1.731e-07
4.36176e-07
2.56985e-07
1.99387e-07
1.88864e-07
1.88497e-07
1.89351e-07
1.98162e-07
2.78113e-07
7.73599e-07
2.56169e-06
2.07624e-06
5.26889e-07
2.01246e-07
1.63821e-07
1.69535e-07
1.78915e-07
1.88919e-07
2.11218e-07
2.81235e-07
4.67104e-07
8.79867e-07
4.72585e-07
2.76301e-07
2.15442e-07
1.95838e-07
1.88863e-07
1.963e-07
2.88479e-07
9.55468e-07
3.57715e-06
3.00364e-06
6.94789e-07
2.28284e-07
1.76036e-07
1.80377e-07
1.99672e-07
2.3781e-07
3.21271e-07
5.26069e-07
9.06484e-07
1.34974e-06
7.68813e-07
3.88707e-07
2.86292e-07
2.65159e-07
2.67259e-07
2.85295e-07
3.92823e-07
1.17019e-06
4.31333e-06
3.74622e-06
9.2922e-07
3.55774e-07
2.86456e-07
2.82536e-07
2.98557e-07
3.46429e-07
4.80572e-07
8.82021e-07
1.3865e-06
1.86574e-06
1.30092e-06
6.50136e-07
6.96844e-07
8.41472e-07
9.83158e-07
1.07e-06
1.14266e-06
1.79869e-06
4.98305e-06
4.31686e-06
1.56714e-06
1.12894e-06
1.11324e-06
1.05912e-06
9.52749e-07
8.43603e-07
8.21371e-07
1.41452e-06
1.90507e-06
2.50301e-06
2.23334e-06
2.47397e-06
3.57024e-06
4.91785e-06
6.00351e-06
6.53995e-06
6.61077e-06
7.45938e-06
1.07065e-05
9.7297e-06
6.82022e-06
6.35534e-06
6.47614e-06
6.04124e-06
5.08083e-06
3.87645e-06
2.89272e-06
2.40367e-06
2.52844e-06
3.34519e-06
4.63566e-06
5.92338e-06
7.37016e-06
9.1127e-06
1.10948e-05
1.33699e-05
1.60685e-05
1.9358e-05
2.30232e-05
2.14513e-05
1.76613e-05
1.46097e-05
1.21983e-05
1.01936e-05
8.46158e-06
6.93831e-06
5.63362e-06
4.42124e-06
3.20362e-06
4.59332e-08
6.99864e-08
9.1237e-08
1.09904e-07
1.29389e-07
1.5377e-07
1.87973e-07
2.34821e-07
2.82352e-07
3.20598e-07
2.75752e-07
2.41846e-07
2.15752e-07
1.76446e-07
1.44122e-07
1.1922e-07
9.8684e-08
7.99414e-08
6.08993e-08
3.90849e-08
6.06418e-08
6.80913e-08
8.48776e-08
1.0132e-07
1.19523e-07
1.43532e-07
1.83167e-07
2.59932e-07
4.85614e-07
1.93848e-06
1.48339e-06
3.89989e-07
2.48157e-07
1.78268e-07
1.37262e-07
1.11988e-07
9.36218e-08
7.77166e-08
6.29154e-08
5.6789e-08
7.3292e-08
8.19443e-08
1.00364e-07
1.14582e-07
1.29494e-07
1.51959e-07
2.0214e-07
3.69364e-07
1.23322e-06
6.36593e-06
5.21908e-06
9.04794e-07
2.96273e-07
1.72507e-07
1.30777e-07
1.12604e-07
1.01279e-07
9.00878e-08
7.43558e-08
6.7864e-08
9.69951e-08
1.15221e-07
1.4093e-07
1.561e-07
1.63903e-07
1.77248e-07
2.3727e-07
5.62797e-07
2.48476e-06
1.20497e-05
1.01708e-05
1.82165e-06
3.93631e-07
1.76408e-07
1.37671e-07
1.31147e-07
1.31263e-07
1.28856e-07
1.15279e-07
1.16992e-07
3.12166e-07
1.82324e-07
1.54721e-07
1.608e-07
1.7349e-07
1.91701e-07
2.63769e-07
7.73599e-07
4.15709e-06
1.85771e-05
1.59149e-05
3.09915e-06
5.22059e-07
1.96736e-07
1.61736e-07
1.59589e-07
1.61063e-07
1.72099e-07
2.26558e-07
3.98523e-07
7.84355e-07
3.97674e-07
2.23072e-07
1.78379e-07
1.76186e-07
1.92015e-07
2.73451e-07
9.55468e-07
5.93022e-06
2.47275e-05
2.12453e-05
4.3903e-06
6.38331e-07
2.21229e-07
1.8101e-07
1.81655e-07
2.02051e-07
2.65342e-07
4.46694e-07
8.32656e-07
1.25987e-06
6.40782e-07
3.25103e-07
2.43343e-07
2.41834e-07
2.69137e-07
3.67659e-07
1.17019e-06
7.25752e-06
2.8651e-05
2.44615e-05
5.33546e-06
8.35867e-07
3.51082e-07
2.98053e-07
2.91082e-07
3.14956e-07
4.19749e-07
7.66354e-07
1.31047e-06
1.77861e-06
1.19706e-06
5.77071e-07
6.169e-07
7.59688e-07
8.92968e-07
1.0297e-06
1.79869e-06
8.03553e-06
2.83933e-05
2.44556e-05
5.89065e-06
1.47834e-06
1.07329e-06
1.00745e-06
9.10485e-07
7.89795e-07
7.4553e-07
1.29868e-06
1.82561e-06
2.41395e-06
2.06779e-06
2.18664e-06
3.24375e-06
4.4483e-06
5.3627e-06
6.02135e-06
7.45938e-06
1.25639e-05
2.3434e-05
2.08555e-05
1.04872e-05
6.61351e-06
5.76869e-06
5.36281e-06
4.61251e-06
3.53681e-06
2.58158e-06
2.23727e-06
2.44835e-06
3.32798e-06
4.65362e-06
6.00169e-06
7.60751e-06
9.61889e-06
1.20521e-05
1.51425e-05
1.9358e-05
2.52596e-05
3.17997e-05
2.95324e-05
2.24912e-05
1.71873e-05
1.35539e-05
1.09237e-05
8.85592e-06
7.13351e-06
5.71539e-06
4.45035e-06
3.19741e-06
4.41978e-08
6.57225e-08
8.53831e-08
1.04106e-07
1.25026e-07
1.51177e-07
1.86899e-07
2.37229e-07
3.20598e-07
3.65485e-07
3.21285e-07
2.81648e-07
2.21184e-07
1.775e-07
1.43183e-07
1.16243e-07
9.41153e-08
7.49582e-08
5.68847e-08
3.7142e-08
6.35878e-08
6.80679e-08
8.58859e-08
1.06586e-07
1.32452e-07
1.70159e-07
2.40145e-07
4.25033e-07
1.93848e-06
2.58909e-06
2.23811e-06
1.42197e-06
3.16251e-07
2.0461e-07
1.49509e-07
1.18513e-07
9.67077e-08
7.85076e-08
6.26891e-08
5.60454e-08
7.92003e-08
7.38444e-08
8.97366e-08
1.09574e-07
1.33604e-07
1.71759e-07
2.72957e-07
8.42809e-07
6.36593e-06
5.16467e-06
4.64532e-06
5.01408e-06
6.13497e-07
2.23564e-07
1.45946e-07
1.16283e-07
9.77736e-08
8.17063e-08
6.67185e-08
6.53618e-08
8.75448e-08
9.69543e-08
1.14113e-07
1.29232e-07
1.48363e-07
1.88576e-07
3.5676e-07
1.57475e-06
1.20497e-05
8.21222e-06
7.69302e-06
9.75538e-06
1.17008e-06
2.78782e-07
1.54411e-07
1.23201e-07
1.07799e-07
9.66957e-08
8.73263e-08
7.93266e-08
2.02498e-07
1.35464e-07
1.28789e-07
1.43418e-07
1.67468e-07
2.168e-07
4.70012e-07
2.56169e-06
1.85771e-05
1.1681e-05
1.13563e-05
1.52727e-05
1.92975e-06
3.53059e-07
1.81061e-07
1.49914e-07
1.39315e-07
1.40452e-07
1.76914e-07
3.16e-07
6.81492e-07
3.39209e-07
1.89861e-07
1.5991e-07
1.76556e-07
2.33591e-07
5.63413e-07
3.57715e-06
2.47275e-05
1.52756e-05
1.53322e-05
2.02229e-05
2.59959e-06
4.30781e-07
2.17585e-07
1.79793e-07
1.77107e-07
2.21851e-07
3.79427e-07
7.38249e-07
1.14707e-06
5.61472e-07
2.81495e-07
2.14988e-07
2.34325e-07
3.08292e-07
6.92878e-07
4.31333e-06
2.8651e-05
1.83409e-05
1.88862e-05
2.2798e-05
3.07139e-06
6.08193e-07
3.59508e-07
2.97333e-07
2.84091e-07
3.5781e-07
6.47615e-07
1.2072e-06
1.63959e-06
1.02694e-06
4.96651e-07
5.08644e-07
6.4152e-07
7.90718e-07
1.20567e-06
4.98305e-06
2.83933e-05
1.99663e-05
2.08677e-05
2.20116e-05
3.43282e-06
1.18231e-06
9.49198e-07
8.28764e-07
6.92383e-07
6.45899e-07
1.14417e-06
1.69955e-06
2.23411e-06
1.79744e-06
1.75325e-06
2.67027e-06
3.69759e-06
4.60728e-06
6.15616e-06
1.07065e-05
2.3434e-05
2.13737e-05
2.20222e-05
1.8754e-05
8.70369e-06
5.50264e-06
4.57303e-06
3.92271e-06
3.01718e-06
2.15369e-06
1.97743e-06
2.28789e-06
3.16284e-06
4.45209e-06
5.76372e-06
7.46779e-06
9.70825e-06
1.2611e-05
1.67268e-05
2.30232e-05
3.17997e-05
3.21855e-05
3.20667e-05
2.76799e-05
1.98591e-05
1.46538e-05
1.13022e-05
8.91281e-06
7.03555e-06
5.55642e-06
4.30959e-06
3.07813e-06
4.28294e-08
6.30877e-08
8.17134e-08
9.95012e-08
1.18088e-07
1.39776e-07
1.68149e-07
2.06932e-07
2.75752e-07
3.21285e-07
2.99277e-07
2.58407e-07
2.0723e-07
1.68969e-07
1.39366e-07
1.15797e-07
9.58225e-08
7.76687e-08
5.93089e-08
3.8013e-08
6.44765e-08
6.68344e-08
8.35707e-08
1.01684e-07
1.22466e-07
1.51623e-07
2.0485e-07
3.42372e-07
1.48339e-06
2.23811e-06
1.93125e-06
1.05208e-06
2.56688e-07
1.78018e-07
1.37053e-07
1.12574e-07
9.43246e-08
7.82704e-08
6.30143e-08
5.29285e-08
7.79414e-08
7.39151e-08
8.91894e-08
1.0536e-07
1.23429e-07
1.51406e-07
2.24879e-07
6.58375e-07
5.21908e-06
4.64532e-06
4.1996e-06
3.83688e-06
4.55411e-07
1.89415e-07
1.35146e-07
1.114e-07
9.50454e-08
8.05625e-08
6.52592e-08
6.16708e-08
8.51078e-08
9.41618e-08
1.08357e-07
1.20476e-07
1.34245e-07
1.61635e-07
2.81694e-07
1.24213e-06
1.01708e-05
7.69302e-06
7.42282e-06
7.54907e-06
8.46253e-07
2.3689e-07
1.49392e-07
1.21776e-07
1.06076e-07
9.46816e-08
8.46021e-08
7.29498e-08
1.34104e-07
1.14796e-07
1.20997e-07
1.35096e-07
1.53988e-07
1.9147e-07
3.83428e-07
2.07624e-06
1.59149e-05
1.13563e-05
1.17041e-05
1.19361e-05
1.44105e-06
3.24501e-07
1.89691e-07
1.53141e-07
1.3621e-07
1.29732e-07
1.45254e-07
2.40522e-07
5.87877e-07
2.93004e-07
1.73586e-07
1.53034e-07
1.71949e-07
2.28169e-07
5.13448e-07
3.00364e-06
2.12453e-05
1.53322e-05
1.66946e-05
1.58072e-05
2.13516e-06
4.65816e-07
2.52923e-07
1.92097e-07
1.68859e-07
1.9693e-07
3.30821e-07
6.55694e-07
1.07028e-06
5.15575e-07
2.61026e-07
2.05779e-07
2.32936e-07
3.17891e-07
6.86774e-07
3.74622e-06
2.44615e-05
1.88862e-05
2.14025e-05
1.75713e-05
2.71252e-06
7.43044e-07
4.38077e-07
3.1905e-07
2.66967e-07
3.18392e-07
5.78537e-07
1.14251e-06
1.5614e-06
9.48514e-07
4.73482e-07
4.86934e-07
6.26258e-07
7.88615e-07
1.19492e-06
4.31686e-06
2.44556e-05
2.08677e-05
2.4295e-05
1.69445e-05
3.10944e-06
1.3004e-06
1.0075e-06
8.28635e-07
6.5501e-07
6.04123e-07
1.10033e-06
1.65079e-06
2.14071e-06
1.75761e-06
1.68459e-06
2.62417e-06
3.65437e-06
4.52764e-06
5.85686e-06
9.7297e-06
2.08555e-05
2.20222e-05
2.50257e-05
1.61487e-05
7.973e-06
5.43347e-06
4.57496e-06
3.89526e-06
2.98223e-06
2.12696e-06
1.97415e-06
2.25129e-06
3.03204e-06
4.29267e-06
5.5797e-06
7.22831e-06
9.35731e-06
1.20574e-05
1.57982e-05
2.14513e-05
2.95324e-05
3.20667e-05
3.42237e-05
2.66514e-05
1.921e-05
1.43838e-05
1.11877e-05
8.85882e-06
7.01142e-06
5.55194e-06
4.30313e-06
3.06221e-06
4.08556e-08
6.08602e-08
7.89723e-08
9.51028e-08
1.11362e-07
1.30286e-07
1.56866e-07
1.97574e-07
2.41846e-07
2.81648e-07
2.58407e-07
2.20198e-07
1.88713e-07
1.59275e-07
1.3578e-07
1.16487e-07
9.92587e-08
8.23529e-08
6.365e-08
4.09025e-08
6.00838e-08
6.42344e-08
7.92828e-08
9.29295e-08
1.07849e-07
1.27972e-07
1.62652e-07
2.28588e-07
3.89989e-07
1.42197e-06
1.05208e-06
2.66467e-07
1.8292e-07
1.4197e-07
1.18581e-07
1.03473e-07
9.1137e-08
7.87976e-08
6.4778e-08
5.1122e-08
7.02969e-08
8.03213e-08
9.60201e-08
1.06074e-07
1.1417e-07
1.27383e-07
1.60406e-07
2.75534e-07
9.04794e-07
5.01408e-06
3.83688e-06
5.70003e-07
2.02676e-07
1.36423e-07
1.14467e-07
1.03659e-07
9.536e-08
8.57627e-08
7.17612e-08
6.1555e-08
9.03594e-08
1.04658e-07
1.19889e-07
1.28386e-07
1.32635e-07
1.38264e-07
1.70335e-07
3.77839e-07
1.82165e-06
9.75538e-06
7.54907e-06
1.13971e-06
2.63499e-07
1.50382e-07
1.28556e-07
1.22845e-07
1.20932e-07
1.18067e-07
1.08442e-07
9.43993e-08
1.51692e-07
1.27422e-07
1.31241e-07
1.39633e-07
1.47146e-07
1.56901e-07
1.98437e-07
5.26889e-07
3.09915e-06
1.52727e-05
1.19361e-05
1.98757e-06
3.6384e-07
1.86175e-07
1.60648e-07
1.54513e-07
1.51006e-07
1.47263e-07
1.54286e-07
2.36071e-07
6.23859e-07
3.12838e-07
1.88187e-07
1.59901e-07
1.62168e-07
1.78313e-07
2.38908e-07
6.94789e-07
4.3903e-06
2.02229e-05
1.58072e-05
2.8765e-06
5.20728e-07
2.51502e-07
2.06416e-07
1.86364e-07
1.77969e-07
2.03099e-07
3.33777e-07
6.7416e-07
1.11448e-06
5.40277e-07
2.78424e-07
2.16619e-07
2.26487e-07
2.65895e-07
3.60854e-07
9.2922e-07
5.33546e-06
2.2798e-05
1.75713e-05
3.58056e-06
8.34716e-07
4.7437e-07
3.74091e-07
3.06625e-07
2.72435e-07
3.27368e-07
6.05106e-07
1.18448e-06
1.62088e-06
1.03358e-06
5.26519e-07
5.55282e-07
7.12659e-07
8.71113e-07
1.02196e-06
1.56714e-06
5.89065e-06
2.20116e-05
1.69445e-05
4.02017e-06
1.53057e-06
1.23196e-06
1.09328e-06
9.12779e-07
7.19414e-07
6.56224e-07
1.18981e-06
1.71552e-06
2.22375e-06
1.9412e-06
1.98697e-06
3.06351e-06
4.28626e-06
5.19621e-06
5.80325e-06
6.82022e-06
1.04872e-05
1.8754e-05
1.61487e-05
8.70898e-06
6.34897e-06
5.76664e-06
5.26706e-06
4.47401e-06
3.38341e-06
2.4324e-06
2.15243e-06
2.34133e-06
3.09362e-06
4.3546e-06
5.64403e-06
7.17936e-06
9.07507e-06
1.13101e-05
1.40586e-05
1.76613e-05
2.24912e-05
2.76799e-05
2.66514e-05
2.0822e-05
1.6357e-05
1.31148e-05
1.06487e-05
8.6594e-06
6.97964e-06
5.59676e-06
4.35608e-06
3.12031e-06
4.24856e-08
6.64832e-08
8.61548e-08
1.01537e-07
1.1549e-07
1.31013e-07
1.55e-07
1.86625e-07
2.15752e-07
2.21184e-07
2.0723e-07
1.88713e-07
1.70218e-07
1.52482e-07
1.36959e-07
1.22655e-07
1.07972e-07
9.13513e-08
7.09301e-08
4.50434e-08
5.74567e-08
6.92635e-08
8.48462e-08
9.55053e-08
1.05247e-07
1.16597e-07
1.36204e-07
1.74618e-07
2.48157e-07
3.16251e-07
2.56688e-07
1.8292e-07
1.43776e-07
1.21809e-07
1.10112e-07
1.0241e-07
9.49636e-08
8.51836e-08
7.10212e-08
5.36735e-08
7.62409e-08
1.01207e-07
1.19641e-07
1.26005e-07
1.23612e-07
1.22619e-07
1.32738e-07
1.72263e-07
2.96273e-07
6.13497e-07
4.55411e-07
2.02676e-07
1.38243e-07
1.1754e-07
1.12133e-07
1.11574e-07
1.10491e-07
1.04274e-07
8.89942e-08
6.67341e-08
1.15346e-07
1.29209e-07
1.44989e-07
1.5266e-07
1.52916e-07
1.46897e-07
1.44354e-07