/*--------------------------------*- C++ -*----------------------------------*\
  =========                 |
  \\      /  F ield         | OpenFOAM: The Open Source CFD Toolbox
   \\    /   O peration     | Website:  https://openfoam.org
    \\  /    A nd           | Version:  9
     \\/     M anipulation  |
\*---------------------------------------------------------------------------*/
FoamFile
{
    format      ascii;
    class       surfaceScalarField;
    location    "800";
    object      phi;
}
// * * * * * * * * * * * * * * * * * * * * * * * * * * * * * * * * * * * * * //

dimensions      [1 0 -1 0 0 0 0];

internalField   nonuniform List<scalar> 
11200
(
0.0022616
-0.00452257
0.0022616
0.0029162
-0.00240994
0.00175588
0.00256508
-0.000762571
0.00111403
0.00213265
-0.00025761
0.000690153
0.00225767
-0.000659147
0.000534208
0.00267154
-0.000885263
0.000471476
0.00284122
-0.000582228
0.000412604
0.00265702
-0.000237593
0.000421797
0.0021867
4.25699e-05
0.000427687
0.0015174
0.000299424
0.000369791
0.000697025
0.000562486
0.000257805
-0.000354373
0.000859222
0.000192101
-0.00132448
0.000831639
0.000138383
-0.00186846
0.00047694
6.69608e-05
-0.0019364
6.26271e-05
5.22733e-06
-0.00163169
-0.000268806
-3.59447e-05
-0.00138854
-0.000165479
-7.77036e-05
-0.00125938
-0.000139083
9.93121e-06
-0.000873277
-0.000736532
0.000350597
-0.00152424
0.000651298
0.00270036
-0.00992321
0.00270036
0.00435091
-0.00669662
0.00263626
0.00470289
-0.00336402
0.00224971
0.003673
-0.000909158
0.00168177
0.00190849
3.78232e-07
0.00110522
0.000529109
-2.39222e-05
0.000518078
0.000141052
-0.000313898
0.000119731
9.11006e-05
-0.000111598
-7.60515e-05
-2.05444e-05
0.000240725
-8.65363e-05
-0.000128623
0.000490389
-8.29538e-05
-0.000121092
0.000712339
-0.000157479
-9.05907e-05
0.000924708
-9.61102e-05
-0.000105232
0.000798442
4.77181e-05
-0.000278393
0.000523031
0.000126987
-0.000959275
0.000433266
0.000310203
-0.00224078
0.000409697
0.000603033
-0.00347204
4.64714e-05
0.00101953
-0.00382439
-0.00150334
0.00171704
-0.00276017
-0.00421401
0.00241362
-0.00704502
0.00276087
0.00174625
-0.0134157
0.00174625
0.002987
-0.0100349
0.00209756
0.00383485
-0.00637123
0.00215937
0.00407241
-0.00322063
0.00207395
0.00335756
-0.00104272
0.00175804
0.00202346
-2.86897e-05
0.00133899
0.000595985
0.000240125
0.00087352
-0.000240414
0.000386098
0.000338699
-0.000409656
0.000513919
-0.000103981
-0.000385888
0.000645508
-0.000178935
-0.000303021
0.000757726
-0.000128321
-0.000336543
0.000885652
7.24943e-05
-0.000732608
0.000845428
0.000349005
-0.00157293
0.000771483
0.000591837
-0.00281727
0.000745142
0.000932509
-0.00399677
0.000190753
0.00139858
-0.00436627
-0.00147998
0.00189611
-0.00364566
-0.00448111
0.0022572
-0.00213419
-0.00806074
0.00233527
-0.0112614
0.00208218
0.00090882
-0.0152333
0.00090882
0.00116609
-0.0119045
0.00161227
0.00123268
-0.00836772
0.00192991
0.00133503
-0.00548553
0.00216256
0.00137097
-0.00333861
0.00225997
0.00124849
-0.00194963
0.00204344
0.00088801
-0.00108405
0.00168468
0.000366765
-0.000310888
0.00121824
-5.5703e-05
0.000261573
0.000674793
-0.000261177
0.000631297
0.000219648
-0.000566926
0.000772748
0.000290684
-0.00109806
0.000741343
0.000675394
-0.00182391
0.00058093
0.000990303
-0.00250913
0.000214074
0.00124263
-0.002874
-0.000414908
0.00152497
-0.00284046
-0.00167889
0.00183617
-0.00247985
-0.00390382
0.00206324
-0.00194016
-0.00702714
0.00200634
-0.00124564
-0.0105067
0.00175144
-0.0136017
0.0010947
0.000312489
-0.0158583
0.000312489
-0.000230477
-0.0126956
0.00133413
-0.000825408
-0.00957486
0.0018021
-0.00119295
-0.00722731
0.00210933
-0.00132724
-0.00552271
0.0023184
-0.00128566
-0.00433488
0.00234368
-0.00114144
-0.00343431
0.00220605
-0.00085055
-0.002631
0.00202922
-0.000443191
-0.001932
0.00178622
-6.66658e-05
-0.00123999
0.00149475
-2.33634e-05
-0.000721284
0.00145071
-0.000121243
-0.000940025
0.00177924
-0.000130535
-0.00141748
0.0020077
9.24318e-06
-0.00210965
0.00218397
0.000184918
-0.00297616
0.00238559
0.000195845
-0.00416052
0.0024707
4.20031e-05
-0.00598984
0.00223986
-0.000355619
-0.00851161
0.00188209
-0.00060733
-0.0116425
0.00138749
-0.0145683
0.000359245
-0.000161265
-0.0155357
-0.000161265
-0.00119048
-0.0127876
0.00112128
-0.00208019
-0.0102692
0.00158404
-0.0026012
-0.00850356
0.0017973
-0.00272097
-0.0072668
0.0018639
-0.00253194
-0.00641277
0.00188888
-0.00212061
-0.00573775
0.00189214
-0.00153597
-0.00511611
0.00190048
-0.000858517
-0.00454183
0.00193239
-7.64198e-05
-0.00400558
0.0019835
0.000664602
-0.00362679
0.00216448
0.00135116
-0.00386174
0.00223516
0.00190187
-0.00423031
0.00226212
0.00224657
-0.00474799
0.00229363
0.00233196
-0.00540942
0.00234788
0.00214485
-0.00626188
0.00228848
0.00161148
-0.0075194
0.00206294
0.000755309
-0.00936226
0.00170684
-0.000110502
-0.0119155
0.00113886
-0.0144697
-0.000209082
-0.000559356
-0.014417
-0.000559356
-0.00195312
-0.0122002
0.000806423
-0.00304805
-0.0103239
0.00114976
-0.00361855
-0.00913255
0.00119953
-0.00365489
-0.00831672
0.00108632
-0.00327013
-0.00776901
0.000971524
-0.00259067
-0.00735012
0.000932945
-0.00175243
-0.00696524
0.00101093
-0.000898052
-0.00657691
0.00118073
-3.56708e-05
-0.00619227
0.00132434
0.000905178
-0.00605909
0.00149147
0.00180059
-0.00625921
0.00150209
0.00257981
-0.00651496
0.00150545
0.00313995
-0.00682567
0.00151756
0.00340628
-0.00719892
0.00152319
0.00327673
-0.00767384
0.00154153
0.00265608
-0.00840304
0.00150432
0.00157411
-0.00958737
0.0013071
0.000299979
-0.0114674
0.000825999
-0.0135067
-0.00066299
-0.00112853
-0.0121599
-0.00112853
-0.0028628
-0.0104438
-2.20585e-05
-0.00412024
-0.00921574
0.000149296
-0.00469506
-0.00854986
-7.81406e-06
-0.00461604
-0.00813903
-0.00025666
-0.00404193
-0.00788817
-0.000454903
-0.0031131
-0.00769399
-0.000584915
-0.00198376
-0.00749014
-0.0006044
-0.000837539
-0.00724271
-0.000480384
0.000152932
-0.00698411
-0.0001986
0.00113912
-0.00702705
-1.81949e-05
0.00220291
-0.00720024
-0.000122743
0.00321396
-0.00733626
-0.000189723
0.00401116
-0.00744769
-0.000175144
0.00444641
-0.00757146
-6.26743e-05
0.00440882
-0.00774584
0.000109614
0.00374531
-0.00808827
0.000348767
0.00247386
-0.00871317
0.000397277
0.000843662
-0.00988472
4.75824e-05
-0.01143
-0.001233
-0.00212738
-0.00790506
-0.00212738
-0.00423568
-0.00690251
-0.00143295
-0.00556484
-0.00639503
-0.00149149
-0.00608987
-0.00625952
-0.00176525
-0.0058906
-0.00625466
-0.00208359
-0.00512498
-0.00631724
-0.0023365
-0.00394053
-0.00638104
-0.00249734
-0.0024836
-0.00638832
-0.00255871
-0.00097229
-0.00629889
-0.00245509
0.00027037
-0.00611777
-0.00210896
0.00147608
-0.00618694
-0.00204579
0.0028392
-0.00628924
-0.00227409
0.00412865
-0.00631008
-0.0023156
0.00514501
-0.00624598
-0.00221804
0.0057432
-0.00613726
-0.00203236
0.00580475
-0.0060318
-0.00177555
0.00519432
-0.00599509
-0.00148272
0.0038383
-0.00609609
-0.00126102
0.00181328
-0.00656039
-0.00129928
-0.00744033
-0.0021764
-0.0039525
-0.0039525
-0.00655116
-0.00430378
-0.00785925
-0.00508687
-0.00825433
-0.00586438
-0.00789881
-0.00661012
-0.00692348
-0.00729252
-0.00543795
-0.00786652
-0.00355995
-0.00826629
-0.00145463
-0.00840416
0.000457086
-0.00802945
0.00216445
-0.00789426
0.00401765
-0.00814241
0.00566108
-0.00795347
0.00693468
-0.00751955
0.00772365
-0.0069262
0.00792626
-0.00623438
0.00742423
-0.00549303
0.00607235
-0.00474418
0.00355622
-0.00404422
-0.00388408
0.00175588
-0.00240994
0.0029162
0.0024385
-0.00136484
0.0024385
0.00235476
-0.000530385
0.00172838
0.0022052
-0.000384728
0.00122453
0.00246631
-0.00077114
0.0010443
0.00281402
-0.000837946
0.000961767
0.00292638
-0.000566094
0.000866359
0.00268467
-0.000176025
0.000839528
0.00216799
0.000102248
0.000842058
0.00144391
0.000340541
0.000753259
0.000496198
0.000639764
0.000565668
-0.000648886
0.00091148
0.000425622
-0.00157133
0.000716321
0.000344418
-0.00205504
0.000313603
0.000236982
-0.00210726
-0.00010793
0.000165316
-0.0018256
-0.000445272
0.000127654
-0.00148129
-0.000532478
0.000110489
-0.0012123
-0.000506987
0.000248004
-0.000761244
-0.00068883
0.000588513
-0.000965243
0.000855512
0.00263626
-0.00669662
0.00435091
0.00423259
-0.00455731
0.00423259
0.00455562
-0.00214293
0.00353952
0.00368049
-0.000392026
0.00256452
0.00226019
0.000117721
0.00163685
0.00116231
-0.000110672
0.000888714
0.000732408
-0.00046031
0.000443855
0.000536449
-0.000265506
0.000209373
0.000232805
0.00015948
0.000159846
-6.53173e-05
0.000396593
0.000159058
-0.000274752
0.000592742
9.88918e-05
-0.000351382
0.000730766
0.000161124
-0.000450551
0.000601503
0.000261604
-0.000682303
0.000383488
0.000288786
-0.00124814
0.000329678
0.000438394
-0.00220456
0.000363654
0.000750533
-0.00317895
0.000165549
0.00129604
-0.00340727
-0.000802
0.00224073
-0.00238715
-0.00255857
0.00326364
-0.00435771
0.00376653
0.00209756
-0.0100349
0.002987
0.00368006
-0.0077223
0.00368005
0.00467433
-0.00475966
0.00378184
0.00481285
-0.00188768
0.00343114
0.003959
-2.09801e-05
0.00275069
0.00249287
0.000727216
0.00196735
0.00113816
0.000512102
0.00125588
0.000297994
0.000345682
0.000567679
-0.000116021
0.00045516
1.43233e-05
-0.000407186
0.000613894
-0.000105121
-0.000620476
0.000681251
-3.60375e-06
-0.000802377
0.000736699
0.000248388
-0.00117408
0.000748887
0.000573261
-0.00192684
0.000799238
0.000928824
-0.0030261
0.000911755
0.00144973
-0.00414909
0.000717864
0.00216748
-0.00454955
-0.000568874
0.00303115
-0.00385537
-0.00298948
0.00375056
-0.00221692
-0.00581037
0.00394865
-0.00801652
0.00352407
0.00161227
-0.0119045
0.00116609
0.00256137
-0.00962049
0.00256137
0.00304415
-0.00651605
0.00320352
0.00327604
-0.00332835
0.00337133
0.00317851
-0.000844472
0.00318101
0.00273102
0.000467157
0.00275101
0.00185592
0.000872258
0.00219964
0.000901193
0.00101332
0.00150534
0.000183117
0.0011237
0.000724307
-0.000381789
0.00119759
0.000200815
-0.000924005
0.00115142
0.000362682
-0.0014983
0.00112663
0.000859711
-0.00221618
0.00112369
0.00133335
-0.00303469
0.0010879
0.00177246
-0.00375982
0.000901615
0.00226027
-0.00401049
1.78613e-05
0.00278689
-0.00368412
-0.00208879
0.00325679
-0.00287308
-0.00515632
0.00336215
-0.00166768
-0.0081721
0.00290775
-0.0103042
0.00171467
0.00133413
-0.0126956
-0.000230477
0.00171985
-0.0103919
0.00171985
0.00156024
-0.00726458
0.00271024
0.00125065
-0.00406262
0.00315319
0.000968265
-0.00155779
0.00331409
0.000730478
-0.000110009
0.00315863
0.000382684
0.000678216
0.00274788
6.16921e-05
0.0011173
0.00224622
-0.00011331
0.00140697
0.00167793
-0.000201062
0.0015981
0.00118196
-0.000491121
0.00160972
0.00128244
-0.000902171
0.00150342
0.00181346
-0.00136589
0.00133576
0.00225933
-0.00177179
0.00103671
0.00264105
-0.00199276
0.000480981
0.00302721
-0.00201897
-0.000838843
0.00335361
-0.00199654
-0.00320335
0.00333198
-0.00188892
-0.00630278
0.00292093
-0.00133042
-0.00932045
0.00197734
-0.011393
0.000117629
0.00112128
-0.0127876
-0.00119048
0.00108995
-0.0103292
0.00108995
0.000510496
-0.00733671
0.00223564
-9.23015e-05
-0.00439735
0.00273484
-0.000525791
-0.00219209
0.0029317
-0.000746883
-0.000874385
0.00287435
-0.00077499
-7.73575e-05
0.00267581
-0.000709198
0.000527996
0.00242398
-0.000508586
0.000977424
0.0021613
-0.000172266
0.00133496
0.0019103
0.000133404
0.00146677
0.00200173
0.000257692
0.00128484
0.00232943
0.000244702
0.00098625
0.0026246
0.000158084
0.000490073
0.00292688
6.57627e-05
-0.000310678
0.00323185
-0.000218579
-0.00161088
0.00334484
-0.000717662
-0.00374604
0.00310472
-0.00118028
-0.00662866
0.00249534
-0.00112132
-0.00951221
0.00127167
-0.0116832
-0.00104017
0.000806423
-0.0122002
-0.00195312
0.00039843
-0.0095132
0.00039843
-0.000452065
-0.00688212
0.0015457
-0.00109237
-0.00457629
0.0020188
-0.00141888
-0.00294288
0.00216363
-0.00146871
-0.00187683
0.00202381
-0.00130945
-0.001181
0.00187733
-0.000981031
-0.000641452
0.00185196
-0.000582324
-0.000118895
0.00187834
-0.000139457
0.000401077
0.00181535
0.00035992
0.000571486
0.00188737
0.000747377
0.000321285
0.00207817
0.00102894
-4.59648e-05
0.0022561
0.00119883
-0.000584656
0.00242238
0.00116479
-0.00132807
0.00257462
0.000858056
-0.00245367
0.00269107
0.000287731
-0.00414597
0.00247458
-0.000493758
-0.00639116
0.0018511
-0.000844347
-0.00888551
0.000549911
-0.0112704
-0.00192012
-2.20587e-05
-0.0104438
-0.0028628
-0.000741525
-0.00807421
-0.000741524
-0.00172632
-0.00601951
0.00027154
-0.00233968
-0.00450204
0.000531327
-0.00250763
-0.00345364
0.000422077
-0.00234516
-0.00278723
0.000293051
-0.00193322
-0.00234384
0.000166005
-0.0013735
-0.00198473
0.000179175
-0.000729351
-0.00161056
0.000367142
-0.000129559
-0.00114077
0.000743459
0.000532191
-0.00107123
0.000962769
0.00119726
-0.00136827
0.000901741
0.00180054
-0.00167089
0.00083193
0.00221402
-0.00202294
0.000849667
0.00234042
-0.00248644
0.000969311
0.00213498
-0.00320637
0.00106777
0.00155379
-0.00425302
0.00103703
0.000608409
-0.005668
0.000619518
-6.66617e-05
-0.00761884
-0.000543991
-0.00972958
-0.00284041
-0.00143295
-0.00690251
-0.00423568
-0.00289611
-0.00514782
-0.00289611
-0.00395329
-0.00401967
-0.0024341
-0.00437905
-0.00337625
-0.00246523
-0.00421755
-0.00297547
-0.00272322
-0.00365992
-0.00274978
-0.00293153
-0.00286524
-0.00259663
-0.00303922
-0.00191002
-0.00242783
-0.0030708
-0.00091269
-0.00218964
-0.00287333
1.85158e-05
-0.00182125
-0.00235967
0.00105997
-0.00195879
-0.00219967
0.00214103
-0.00230681
-0.00241659
0.00309772
-0.00248971
-0.00245346
0.00382685
-0.00261287
-0.00235723
0.00427337
-0.00272927
-0.00223602
0.00430577
-0.00292187
-0.00209243
0.00377319
-0.00327607
-0.00192707
0.00269171
-0.00385561
-0.00199189
0.00128621
-0.00489192
-0.00262066
-0.00646964
-0.00415011
-0.00430378
-0.00655116
-0.00687766
-0.00687766
-0.00817803
-0.00780611
-0.00857277
-0.00884584
-0.00825871
-0.00989961
-0.00737205
-0.0109289
-0.00599921
-0.011836
-0.00421202
-0.0124813
-0.0020665
-0.0127393
0.000387372
-0.0123046
0.00270931
-0.012175
0.00465842
-0.0123983
0.0062542
-0.0120389
0.00744193
-0.0113201
0.00816137
-0.0103749
0.00833503
-0.00932989
0.00784555
-0.00827958
0.00652181
-0.00727601
0.00403796
-0.00645227
-0.00631573
0.00111403
-0.000762571
0.00256508
0.00172838
-0.000530385
0.00235475
0.00191664
-0.000376425
0.00191664
0.00211943
-0.000610697
0.0016325
0.00252537
-0.000910177
0.00154859
0.00284024
-0.000804331
0.00145126
0.00292662
-0.000566124
0.00134611
0.00266643
-0.000200874
0.00130058
0.00209357
0.000124747
0.00129012
0.00130219
0.000346433
0.00119814
0.000219841
0.000659869
0.000988062
-0.000967481
0.000850357
0.000762503
-0.00181035
0.000548021
0.000639182
-0.00222542
0.000161569
0.000490411
-0.00224884
-0.000216183
0.000404885
-0.00197301
-0.000533612
0.00038544
-0.00155346
-0.000706474
0.00039744
-0.00109204
-0.000700455
0.000487101
-0.000582307
-0.000573168
0.000652028
-0.000487808
0.000761098
0.00224971
-0.00336402
0.00470289
0.00353952
-0.00214293
0.00455562
0.00375178
-0.000800623
0.00375178
0.0030299
4.174e-06
0.0026718
0.0019664
9.33429e-05
0.00169695
0.00123921
-0.000239325
0.00105091
0.00097366
-0.000589603
0.000732885
0.000774177
-0.000359531
0.000567498
0.000343563
0.000199248
0.000515922
-0.000114773
0.000424914
0.000538857
-0.00041958
0.000554013
0.000509474
-0.00053013
0.000611
0.000510933
-0.000637027
0.000448927
0.00046751
-0.000795387
0.000249533
0.000359127
-0.00112915
0.000175608
0.000380329
-0.00173444
0.000233295
0.000588896
-0.00240701
0.000222792
0.0010394
-0.00257757
-0.000163034
0.0018741
-0.00178345
-0.000958619
0.0028553
-0.00183708
0.00333271
0.00215937
-0.00637123
0.00383485
0.00378184
-0.00475966
0.00467433
0.00474252
-0.00272194
0.00474252
0.00472313
-0.000667591
0.00412237
0.00375335
0.000669767
0.00314415
0.00236888
0.000922228
0.00219037
0.00114683
0.000487879
0.00140051
0.000409257
0.000226231
0.000719489
-1.6681e-05
0.000402367
0.000237107
-0.000433936
0.000596347
0.00014065
-0.000746256
0.0006167
0.000245969
-0.000951174
0.000609505
0.000454736
-0.00125952
0.000625494
0.000704989
-0.0018519
0.000730507
0.0010402
-0.00275016
0.000929667
0.00159396
-0.00370608
0.000951999
0.0024048
-0.00414713
0.000259808
0.00343533
-0.00360229
-0.00133946
0.00438225
-0.00211391
-0.00325795
0.00475964
-0.00477093
0.00434405
0.00192991
-0.00836772
0.00123268
0.00320352
-0.00651605
0.00304415
0.00397936
-0.00427363
0.00397936
0.00429139
-0.00173361
0.00412532
0.00407924
0.0003079
0.00375504
0.00333232
0.00126696
0.00315323
0.00220855
0.00138142
0.00242988
0.00109933
0.00122645
0.00161435
0.000270807
0.00116288
0.000792294
-0.000419978
0.0011996
0.000288297
-0.00103353
0.00112057
0.000472309
-0.00161094
0.00108078
0.0009658
-0.00229896
0.00115266
0.00149418
-0.00313107
0.0012944
0.00204067
-0.00395497
0.00134295
0.00267092
-0.00440474
0.00081662
0.00337209
-0.00416007
-0.000742718
0.00401468
-0.00324847
-0.00312257
0.00423366
-0.00186203
-0.00535623
0.00361959
-0.00703297
0.00211468
0.0018021
-0.00957486
-0.000825408
0.00271024
-0.00726458
0.00156024
0.00302327
-0.00489969
0.00302327
0.00300351
-0.00223357
0.00367292
0.00275196
6.53519e-05
0.00380818
0.00224571
0.00140967
0.00352216
0.00153514
0.00184857
0.0029913
0.000791946
0.00187866
0.00233719
0.000197815
0.0018679
0.00156701
-0.000267074
0.00192309
0.000923319
-0.000805196
0.00185315
0.00108793
-0.00141662
0.00178016
0.00172547
-0.00209768
0.00177918
0.00231385
-0.00277917
0.00177753
0.0028394
-0.00330197
0.0015297
0.00336327
-0.00345056
0.000502476
0.00381635
-0.00323302
-0.00157135
0.00394307
-0.00270976
-0.00416942
0.00344452
-0.00172209
-0.00646477
0.0020982
-0.00841648
-0.000220931
0.00158404
-0.0102692
-0.00208019
0.00223564
-0.00733671
0.000510496
0.00220874
-0.00484587
0.00220874
0.00180708
-0.00214598
0.0030489
0.00141135
-3.02074e-05
0.00342298
0.000968507
0.00139801
0.00332883
0.00055265
0.00193901
0.00300122
0.000189056
0.00208868
0.00257754
-4.51925e-05
0.00218116
0.00208226
-0.000146959
0.00232145
0.00161366
-0.000302959
0.00230113
0.00170972
-0.000595497
0.00216544
0.00223665
-0.000989819
0.00206623
0.00273184
-0.00141096
0.0019462
0.00317932
-0.0017697
0.00153422
0.00358606
-0.0020456
0.000319575
0.00380364
-0.00228429
-0.00175513
0.00352718
-0.00222807
-0.00439754
0.00266725
-0.00155894
-0.00678811
0.000925906
-0.00924312
-0.00177245
0.00114976
-0.0103239
-0.00304805
0.0015457
-0.00688212
-0.000452065
0.00133736
-0.00442917
0.00133736
0.000881473
-0.00190668
0.0022354
0.000383229
0.000109014
0.00252265
8.19081e-05
0.0012216
0.00250154
-0.000123111
0.00170695
0.0023144
-0.000227999
0.0019014
0.00214411
-0.000217549
0.00205217
0.00199685
-0.000116499
0.00223252
0.0018032
-1.58967e-05
0.00221625
0.00187161
-1.29646e-05
0.00203055
0.0022101
-0.000103883
0.00187999
0.00253325
-0.00026226
0.00170099
0.00282596
-0.000500971
0.00126688
0.00308066
-0.000917109
0.000236196
0.00319058
-0.00136575
-0.001703
0.00287109
-0.00157899
-0.00415033
0.00181713
-0.0011892
-0.00648818
-0.000139793
-0.00945924
-0.00289317
0.000149295
-0.00921574
-0.00412024
0.00027154
-0.00601951
-0.00172632
-0.000185513
-0.00351503
-0.000185513
-0.000526944
-0.00162337
0.000589472
-0.000580175
-0.000309337
0.000893661
-0.000544499
0.000551023
0.000927944
-0.000465754
0.000972912
0.000821285
-0.000354065
0.00117808
0.000790786
-0.000229303
0.00140391
0.000890626
-0.000126043
0.00179837
0.00107432
8.58868e-05
0.00175328
0.00121379
0.000371497
0.00135021
0.00129646
0.000583315
0.00111711
0.00138297
0.000699413
0.000920634
0.00151391
0.000722445
0.000530349
0.00168281
0.000598689
-0.00029725
0.00172497
0.000174645
-0.00157141
0.00132949
-0.000354193
-0.00339573
0.000393781
-0.000286872
-0.00569537
-0.0014041
-0.0085869
-0.0039996
-0.00149149
-0.00639503
-0.00556484
-0.0024341
-0.00401967
-0.00395329
-0.00294318
-0.00249683
-0.00294318
-0.00302305
-0.00154203
-0.00246667
-0.00267572
-0.000854808
-0.00252506
-0.00205677
-0.000366427
-0.00263302
-0.00142884
-3.68914e-05
-0.00265734
-0.00089034
0.00020557
-0.00263678
-0.000412399
0.000468801
-0.00241617
-3.06307e-06
0.000942353
-0.001913
0.000526582
0.000805741
-0.00178179
0.0010854
0.00034171
-0.00196691
0.00165759
7.98798e-05
-0.00198842
0.00225641
-0.000130334
-0.00190507
0.00281246
-0.000442046
-0.00181967
0.00303938
-0.000902889
-0.0017137
0.00285549
-0.0015495
-0.00176508
0.00226848
-0.00244018
-0.00236041
0.00135891
-0.00384092
-0.00356551
-0.00601475
-0.00536332
-0.00508687
-0.00785925
-0.00780611
-0.00817803
-0.0090545
-0.0090545
-0.00934743
-0.0100949
-0.00895393
-0.0111479
-0.00801993
-0.0122293
-0.00661717
-0.0132756
-0.00475895
-0.0141339
-0.0024351
-0.0145943
0.00043041
-0.0142277
0.00315034
-0.0140891
0.00528166
-0.0141879
0.00693022
-0.0136076
0.00814677
-0.012667
0.00891293
-0.0115831
0.00916377
-0.0104836
0.00875769
-0.00942299
0.00746337
-0.00842185
0.00482209
-0.00765189
-0.00750835
0.000690153
-0.00025761
0.00213265
0.00122453
-0.000384728
0.0022052
0.0016325
-0.000610697
0.00211943
0.00207735
-0.000889645
0.00207735
0.00250811
-0.000908306
0.00202618
0.00280205
-0.000763426
0.00192076
0.00287762
-0.000553719
0.00182425
0.00260759
-0.000207326
0.0017779
0.00198173
0.000131015
0.00178494
0.00110947
0.00033385
0.0017365
-0.000115656
0.000644974
0.00156813
-0.00129338
0.000713013
0.00122713
-0.00202599
0.000371796
0.000999935
-0.0023377
-3.01123e-06
0.000805075
-0.00228824
-0.000342604
0.000697998
-0.00199766
-0.000584633
0.000679498
-0.00155889
-0.000746662
0.00070537
-0.00101377
-0.000800976
0.00074299
-0.000479429
-0.000618375
0.000736102
-0.000382406
0.000664096
0.00168177
-0.000909158
0.003673
0.00256452
-0.000392026
0.00368049
0.0026718
4.17397e-06
0.0030299
0.00216783
0.000118459
0.00216783
0.00155401
-8.30987e-05
0.00148559
0.00121038
-0.000494971
0.00112608
0.00112006
-0.000728468
0.000997947
0.000913858
-0.000351176
0.000917536
0.000383377
0.000262435
0.000914937
-0.000217745
0.000468772
0.001005
-0.000591032
0.000517558
0.0010101
-0.000738554
0.000480995
0.000890391
-0.000828321
0.000277449
0.000651558
-0.000895698
3.37701e-05
0.000389684
-0.000970807
-0.000161194
0.000274012
-0.00121209
-5.83782e-05
0.000303917
-0.00156413
0.000109829
0.000534957
-0.00168635
0.000145922
0.00104949
-0.00117619
3.40854e-06
0.00172352
-0.000213856
0.00198819
0.00207395
-0.00322063
0.00407241
0.00343114
-0.00188768
0.00481285
0.00412237
-0.000667591
0.00472313
0.00395103
0.000461262
0.00395103
0.00306973
0.00100226
0.00294022
0.00193889
0.000776046
0.00205028
0.000988486
0.000242613
0.00137986
0.000429882
5.06762e-05
0.000876229
3.13373e-05
0.00032765
0.000570396
-0.000460363
0.00057297
0.000528097
-0.000833442
0.000529956
0.000606593
-0.00102602
0.000439318
0.000688938
-0.00122949
0.000406322
0.000779538
-0.00162444
0.00049518
0.000973727
-0.00229066
0.000732294
0.00136671
-0.00299512
0.000987797
0.00206316
-0.0033686
0.000897391
0.00302136
-0.00299544
0.000150254
0.00400488
-0.00185911
-0.000885296
0.00451209
-0.00194421
0.00421537
0.00216256
-0.00548553
0.00133503
0.00337133
-0.00332835
0.00327604
0.00412532
-0.00173361
0.00429139
0.00441231
-0.000112694
0.00441231
0.00412336
0.00108711
0.00395917
0.00329051
0.00150221
0.00325994
0.00214378
0.0013535
0.00246573
0.00108486
0.00103037
0.00169358
0.000287596
0.000938183
0.000979001
-0.000425729
0.00101257
0.000561979
-0.00105277
0.000920104
0.000709159
-0.00159399
0.000839626
0.00110667
-0.00219577
0.000923481
0.00157877
-0.00293739
0.00114767
0.0021298
-0.00369886
0.00136165
0.00280306
-0.00416115
0.00123805
0.00358417
-0.00399481
0.000433371
0.00431239
-0.00321565
-0.00100085
0.00460563
-0.0019641
-0.00254334
0.00402609
-0.00425269
0.00245908
0.00210933
-0.00722731
-0.00119295
0.00315319
-0.00406262
0.00125065
0.00367292
-0.00223357
0.00300351
0.00383447
-0.000435817
0.00383447
0.00363027
0.00112152
0.00397797
0.003046
0.00194146
0.00366717
0.00220352
0.00205202
0.00313525
0.00127356
0.00182691
0.00247059
0.000455327
0.00166412
0.00165928
-0.000268707
0.00165868
0.0010012
-0.000982806
0.00156256
0.00115953
-0.0016963
0.00149306
0.0017855
-0.00244575
0.00158
0.00240674
-0.00319617
0.00175987
0.00297761
-0.00379773
0.00177908
0.00354741
-0.00401885
0.0012213
0.00405422
-0.00374668
-0.000129164
0.00423344
-0.00307504
-0.00190817
0.00368019
-0.00199763
-0.00361991
0.00209736
-0.006133
-0.000338235
0.0017973
-0.00850356
-0.0026012
0.00273484
-0.00439735
-9.23014e-05
0.0030489
-0.00214598
0.00180708
0.00296854
-0.000275112
0.00296854
0.0026852
0.00133844
0.00348939
0.00222414
0.00223945
0.00349188
0.00163469
0.00245026
0.00319241
0.000994558
0.00231476
0.0027298
0.000407146
0.00219468
0.00213908
-0.000105019
0.00221271
0.00157175
-0.00063229
0.00213459
0.00166492
-0.00121359
0.00203722
0.00227375
-0.00183128
0.00207417
0.00285533
-0.00241887
0.0021794
0.00334737
-0.00287305
0.00206822
0.00375109
-0.00310202
0.00131714
0.00393676
-0.00307189
-0.000243936
0.00361183
-0.00271134
-0.00212801
0.00252652
-0.00181111
-0.00414185
0.000547631
-0.00754433
-0.00217221
0.00119953
-0.00913255
-0.00361855
0.0020188
-0.00457629
-0.00109237
0.0022354
-0.00190668
0.000881474
0.00197858
0.000238515
0.00197858
0.00170513
0.00154474
0.00258979
0.0014092
0.00227699
0.00275991
0.00106
0.00244987
0.00266398
0.000672188
0.00238528
0.00246139
0.000309825
0.0023564
0.00219748
-2.34201e-05
0.00245261
0.00189651
-0.000340482
0.00237072
0.00195251
-0.000689011
0.00220394
0.00239189
-0.00105612
0.00217105
0.00280345
-0.00139477
0.00221727
0.00312671
-0.00169667
0.00210252
0.00334824
-0.00196599
0.00144225
0.00333478
-0.00223326
0.000106975
0.00278745
-0.00203151
-0.00206735
0.00155473
-0.00130206
-0.0044032
-0.000607874
-0.00834899
-0.00339055
-7.81418e-06
-0.00854986
-0.00469506
0.000531327
-0.00450204
-0.00233968
0.000589471
-0.00162337
-0.000526944
0.00064533
0.000126797
0.00064533
0.000570319
0.00139479
0.00111862
0.000588684
0.00188182
0.00130474
0.000575972
0.00196961
0.00131424
0.000487319
0.00196481
0.00129989
0.000326815
0.00206327
0.00134423
1.5752e-05
0.00240773
0.00143025
-0.00020427
0.00228421
0.0015203
-0.000253143
0.00187503
0.00167421
-0.000278236
0.00174938
0.00182972
-0.000293268
0.00176822
0.00197799
-0.000328324
0.00173076
0.00208961
-0.000471609
0.0012826
0.00202789
-0.000538523
-5.63919e-05
0.00155977
-0.0006014
-0.00177689
0.00016621
-0.000154512
-0.00434769
-0.00190648
-0.00798461
-0.00451847
-0.00176525
-0.00625952
-0.00608987
-0.00246523
-0.00337625
-0.00437905
-0.00246667
-0.00154203
-0.00302305
-0.00225285
-0.000300823
-0.00225285
-0.00179425
0.000407946
-0.00199681
-0.00128541
0.000718655
-0.0019787
-0.000796882
0.000886826
-0.00206308
-0.000389572
0.00106109
-0.00214037
-6.64204e-05
0.00137035
-0.0020464
0.000122015
0.00197236
-0.00166608
0.000419495
0.001778
-0.00157307
0.000791472
0.00116756
-0.00163142
0.00118161
0.000885256
-0.00151444
0.00161696
0.000737897
-0.0013101
0.00206628
0.000601692
-0.00113992
0.00241981
0.000313142
-0.00109777
0.00245943
-0.000450986
-0.0014101
0.00230111
-0.00159006
-0.0023889
0.00160908
-0.0032676
-0.00395354
-0.00591227
-0.00582655
-0.00586438
-0.00825433
-0.00884584
-0.00857277
-0.0100949
-0.00934743
-0.0102453
-0.0102453
-0.00972203
-0.0112632
-0.00876734
-0.0124653
-0.00739958
-0.0137565
-0.00550118
-0.0149712
-0.0029206
-0.0158046
0.000541257
-0.0157172
0.00377917
-0.0155491
0.0061052
-0.0153464
0.00776573
-0.0143829
0.00893451
-0.0130979
0.00972032
-0.0117672
0.0101009
-0.010551
0.00979469
-0.00956778
0.00847045
-0.00868765
0.00556494
-0.00801395
-0.00785566
0.000534208
-0.000659147
0.00225767
0.0010443
-0.00077114
0.00246631
0.00154859
-0.000910177
0.00252537
0.00202618
-0.000908306
0.00250811
0.00243563
-0.00081887
0.00243563
0.00272826
-0.000712951
0.00234108
0.00279933
-0.000512905
0.00226607
0.00252183
-0.000202468
0.00225784
0.00184715
0.000106836
0.00235275
0.000839726
0.00030753
0.00243634
-0.000468418
0.000591878
0.00228432
-0.00158806
0.000538866
0.00180783
-0.00221146
0.000201072
0.0014222
-0.00242129
-0.000117595
0.00113246
-0.00230118
-0.000386879
0.000964751
-0.00197645
-0.00053588
0.00089066
-0.0015441
-0.000595219
0.000868255
-0.00104242
-0.000622944
0.000864274
-0.000499487
-0.000621278
0.000814477
-0.000503787
0.000668419
0.00110522
3.78054e-07
0.00190849
0.00163685
0.000117721
0.00226019
0.00169695
9.33428e-05
0.0019664
0.00148559
-8.30987e-05
0.00155401
0.00129027
-0.000428242
0.00129027
0.00125036
-0.000773357
0.0012264
0.00124343
-0.000756026
0.001248
0.0010206
-0.000340154
0.00127804
0.000405107
0.000253562
0.00138366
-0.000344644
0.000465632
0.00159659
-0.000801246
0.000453422
0.00160509
-0.00103344
0.000343105
0.00131828
-0.00117645
9.74409e-05
0.000898149
-0.00117633
-0.000274629
0.000546573
-0.00108176
-0.000523468
0.000316028
-0.00103719
-0.000462624
0.000186101
-0.00108539
-0.000185824
0.000173762
-0.0010685
9.48464e-05
0.000314804
-0.000721248
0.000229705
0.000525296
0.000364824
0.000398364
0.00175804
-0.00104272
0.00335756
0.00275069
-2.09802e-05
0.003959
0.00314415
0.000669767
0.00375335
0.00294022
0.00100226
0.00306972
0.00228835
0.000875594
0.00228835
0.00150637
0.000389024
0.00166994
0.000892851
-5.7503e-05
0.00129486
0.00050248
-0.000163099
0.00108953
8.62654e-05
0.000250878
0.000989252
-0.000483376
0.000530447
0.00103287
-0.000910504
0.000434466
0.00105262
-0.00109718
0.00026224
0.000956433
-0.00117906
0.000131448
0.000827383
-0.00138094
0.000101055
0.000799904
-0.0017847
0.00028815
0.000958857
-0.0022406
0.000666857
0.00138962
-0.00248325
0.000978471
0.0020998
-0.00225815
0.000987062
0.00288768
-0.0014923
0.000629692
0.00334638
-8.10822e-05
0.00316905
0.00225997
-0.00333861
0.00137097
0.00318101
-0.000844472
0.00317851
0.00375504
0.0003079
0.00407924
0.00395917
0.00108711
0.00412336
0.00365264
0.00148868
0.00365264
0.00287042
0.00146274
0.00296846
0.00187706
0.00110709
0.00229452
0.000971949
0.000716844
0.00171875
0.00027256
0.00068924
0.00124
-0.000409903
0.000806292
0.00096855
-0.00102703
0.000704041
0.00105666
-0.00152476
0.000579983
0.00128663
-0.00201297
0.000625334
0.00157308
-0.00260244
0.000853005
0.00196732
-0.00320836
0.00115716
0.00253999
-0.00358764
0.00132564
0.0033047
-0.00349843
0.00115047
0.00405121
-0.00291138
0.000564563
0.00444111
-0.00193067
-0.000380837
0.00405591
-0.00220672
0.00265405
0.0023184
-0.00552271
-0.00132724
0.00331409
-0.00155779