/*--------------------------------*- C++ -*----------------------------------*\
  =========                 |
  \\      /  F ield         | OpenFOAM: The Open Source CFD Toolbox
   \\    /   O peration     | Website:  https://openfoam.org
    \\  /    A nd           | Version:  9
     \\/     M anipulation  |
\*---------------------------------------------------------------------------*/
FoamFile
{
    format      ascii;
    class       volVectorField;
    location    "800";
    object      U;
}
// * * * * * * * * * * * * * * * * * * * * * * * * * * * * * * * * * * * * * //

dimensions      [0 1 -1 0 0 0 0];

internalField   nonuniform List<vector> 
4000
(
(0.00511586 -0.00634772 0.00511586)
(0.00951687 -0.000778011 0.00406866)
(0.0098205 0.00127714 0.00251357)
(0.00817774 -0.00137469 0.00143237)
(0.00743332 -0.00390395 0.000973199)
(0.00820256 -0.00330054 0.000715238)
(0.0094856 -0.00164355 0.00058505)
(0.0098303 -0.00068972 0.000673326)
(0.0087169 -0.000255951 0.000775141)
(0.00662833 0.000163943 0.000737746)
(0.00402328 0.000757528 0.000550032)
(0.00074393 0.00169022 0.000429275)
(-0.00338444 0.00201979 0.000241046)
(-0.00586477 0.00112796 1.56187e-06)
(-0.00674461 -0.000714528 -0.000218616)
(-0.00620121 -0.00297771 -0.00040003)
(-0.00523682 -0.00352342 -0.0006401)
(-0.0045395 -0.00149769 -0.0004826)
(-0.00422336 0.00233487 0.000319923)
(-0.00135066 0.0059538 0.00109084)
(0.00549565 -0.0280237 0.00549565)
(0.0122564 -0.0175737 0.00585548)
(0.0163691 -0.00688641 0.00544157)
(0.0160579 0.000196957 0.00436206)
(0.0103219 0.000594039 0.0028303)
(0.00320323 -0.00196694 0.00102498)
(0.000537519 -0.0026326 -9.6807e-05)
(0.000286302 -0.000780737 -0.000568152)
(0.000236907 0.000681908 -0.000544723)
(-0.000325114 0.00174212 -0.000581978)
(-0.000493403 0.00272069 -0.000758436)
(-0.000333657 0.00361574 -0.000551849)
(-0.000330696 0.00311945 -0.000125624)
(-0.000474768 0.00164371 8.77257e-05)
(-0.00134572 0.000948214 0.000561026)
(-0.00558813 0.00151328 0.00145301)
(-0.0107668 0.00290919 0.00262557)
(-0.0136371 0.000926029 0.00438343)
(-0.011779 -0.00710502 0.00576489)
(-0.00608182 -0.0166995 0.00600847)
(0.0033013 -0.0422212 0.0033013)
(0.0082744 -0.0306557 0.00431909)
(0.011485 -0.0183063 0.00473203)
(0.0141395 -0.00778829 0.00499229)
(0.0139967 -0.00081196 0.00467267)
(0.0101863 0.00193904 0.00373844)
(0.00458588 0.00102671 0.00248369)
(-0.000477095 0.000161844 0.000752586)
(-0.00133975 0.00079874 -0.00059746)
(-0.00140831 0.00175196 -0.000841875)
(-0.00118577 0.00243942 -0.000756643)
(-0.000810843 0.00300184 -0.0001427)
(-0.00138236 0.00273368 0.000698342)
(-0.00365373 0.00255109 0.00140524)
(-0.00758266 0.00279913 0.00236425)
(-0.0127558 0.0021036 0.00363051)
(-0.0156371 -0.00241808 0.00481138)
(-0.0139841 -0.0120777 0.00525361)
(-0.00994666 -0.023645 0.00491466)
(-0.00416769 -0.0343243 0.00383885)
(0.00174017 -0.0505692 0.00174017)
(0.00411798 -0.0388905 0.00317863)
(0.0035743 -0.0261822 0.00382474)
(0.00441247 -0.0152828 0.00466302)
(0.00483446 -0.00720691 0.00539926)
(0.00483642 -0.00234662 0.00542033)
(0.0039629 0.000394153 0.00478587)
(0.00254946 0.00268017 0.00353949)
(0.000321456 0.00323077 0.00191416)
(-0.000765907 0.0030153 0.000515138)
(-0.00110548 0.00256072 0.000547461)
(-0.00263616 0.00289671 0.00166277)
(-0.00505493 0.00329444 0.00261192)
(-0.00774764 0.00326093 0.00331088)
(-0.0100791 0.00238143 0.00408263)
(-0.0105516 -0.00145037 0.00486173)
(-0.00918677 -0.00943846 0.00492056)
(-0.00705268 -0.0207574 0.00424881)
(-0.00580025 -0.0333217 0.00343116)
(-0.00242846 -0.0443165 0.0017733)
(0.000673758 -0.0545343 0.000673757)
(0.00104211 -0.0431594 0.00237739)
(-0.00253441 -0.031275 0.00288123)
(-0.00358207 -0.0221658 0.00347842)
(-0.00452165 -0.015555 0.00403313)
(-0.00459091 -0.0110349 0.00436521)
(-0.00427006 -0.00764144 0.00456057)
(-0.00353851 -0.00445946 0.00481211)
(-0.00215 -0.00102893 0.00483155)
(-0.00073021 0.00209873 0.00438231)
(0.000225744 0.0037479 0.00409752)
(-0.000329777 0.00313359 0.004945)
(-0.000681256 0.00136505 0.00548912)
(-0.000381789 -0.00149136 0.00571263)
(0.000399433 -0.00522425 0.0058695)
(0.000933812 -0.0101057 0.00551093)
(0.000381389 -0.0172786 0.00445926)
(3.92583e-05 -0.0273996 0.00337648)
(-0.00245021 -0.0391232 0.00247973)
(-0.0013074 -0.0496206 0.000398624)
(-0.000261659 -0.0551184 -0.000261659)
(-0.00131898 -0.0446889 0.00151735)
(-0.00646882 -0.034954 0.00149607)
(-0.00838063 -0.0279123 0.00140218)
(-0.00949677 -0.0229393 0.00120109)
(-0.00927702 -0.0194862 0.00112044)
(-0.00816328 -0.0167994 0.00120092)
(-0.00637357 -0.0144098 0.00156952)
(-0.00406752 -0.0123312 0.00223127)
(-0.00181355 -0.0102984 0.00311908)
(0.001211 -0.00835116 0.00419368)
(0.00347016 -0.00923192 0.00396585)
(0.00569597 -0.0107387 0.00360348)
(0.00729133 -0.0128337 0.00328412)
(0.00809789 -0.0154253 0.00308966)
(0.00802976 -0.0188345 0.00290874)
(0.00672418 -0.0239856 0.00257693)
(0.00486739 -0.031404 0.00211652)
(3.71763e-05 -0.041411 0.00162186)
(-0.000436112 -0.051098 -0.000697528)
(-0.00144047 -0.0525594 -0.00144047)
(-0.00340118 -0.0440625 0.000252789)
(-0.00954437 -0.0365806 -0.000392445)
(-0.011967 -0.031624 -0.00112211)
(-0.0129402 -0.0282417 -0.00187366)
(-0.0122122 -0.0259606 -0.00245588)
(-0.0102845 -0.024203 -0.00282203)
(-0.00757447 -0.0225876 -0.00293101)
(-0.00443251 -0.0210002 -0.00267334)
(-0.0018488 -0.0194466 -0.00203695)
(0.00168339 -0.0187018 -0.00136949)
(0.00456959 -0.0194193 -0.00163381)
(0.007658 -0.0204161 -0.00173627)
(0.0100545 -0.0217234 -0.0015716)
(0.0115744 -0.0233579 -0.0011943)
(0.0119191 -0.0254863 -0.000678977)
(0.0106519 -0.0287215 -0.000165416)
(0.00816776 -0.0337485 0.000198809)
(0.00218159 -0.0412592 0.000401961)
(0.000627403 -0.0491317 -0.00191242)
(-0.00327548 -0.0459254 -0.00327548)
(-0.00617177 -0.0395994 -0.00190291)
(-0.0130319 -0.0346856 -0.00300367)
(-0.0157937 -0.0318678 -0.00420211)
(-0.0164931 -0.0299857 -0.0052672)
(-0.0152273 -0.0288078 -0.00613803)
(-0.0125417 -0.027955 -0.00680088)
(-0.00889781 -0.0271787 -0.00722517)
(-0.0046952 -0.0263626 -0.00731882)
(-0.00141927 -0.0255756 -0.00697618)
(0.0025273 -0.0256394 -0.00673589)
(0.00560544 -0.0261078 -0.00696342)
(0.00945348 -0.0265253 -0.00677848)
(0.0126763 -0.0269885 -0.00624517)
(0.0149092 -0.0276051 -0.00549151)
(0.015713 -0.028405 -0.00450813)
(0.0145966 -0.0298738 -0.00345643)
(0.0116637 -0.0325586 -0.00245923)
(0.00488791 -0.0373672 -0.00165077)
(0.00235094 -0.0431119 -0.00366867)
(-0.00639769 -0.0342475 -0.00639769)
(-0.0107475 -0.0297786 -0.00595477)
(-0.0179312 -0.0271837 -0.00738258)
(-0.0207175 -0.0261675 -0.0089361)
(-0.0211204 -0.0258242 -0.0103692)
(-0.0193203 -0.025852 -0.0115603)
(-0.0158701 -0.0259583 -0.0124804)
(-0.0112212 -0.0259063 -0.0130823)
(-0.00581707 -0.0255603 -0.0131837)
(-0.00155016 -0.0249559 -0.0124248)
(0.00349483 -0.0250339 -0.0120982)
(0.00730141 -0.0253731 -0.0125999)
(0.0121534 -0.0254491 -0.0124107)
(0.0162414 -0.0252834 -0.011743)
(0.0191114 -0.0250026 -0.0107612)
(0.0203722 -0.0248082 -0.00952332)
(0.0195632 -0.0250001 -0.00810585)
(0.0165577 -0.0258653 -0.00666273)
(0.00939178 -0.0282502 -0.00548376)
(0.00534129 -0.0322276 -0.00658629)
(-0.0114083 -0.0211258 -0.0114083)
(-0.0186903 -0.0168963 -0.0130576)
(-0.025891 -0.0147403 -0.0157817)
(-0.0284247 -0.0137856 -0.018348)
(-0.0283283 -0.0132092 -0.0207751)
(-0.0259083 -0.0127601 -0.0229848)
(-0.0215824 -0.0122522 -0.0248568)
(-0.0156901 -0.0115753 -0.0262164)
(-0.00865431 -0.0106767 -0.0267845)
(-0.00244984 -0.00971664 -0.0257186)
(0.00544158 -0.0102301 -0.0250956)
(0.0106498 -0.0110238 -0.0257542)
(0.0168496 -0.0117241 -0.025082)
(0.0219908 -0.0122119 -0.0236699)
(0.0256272 -0.0125545 -0.0217683)
(0.0274524 -0.0128566 -0.0195465)
(0.0270887 -0.0132948 -0.0171455)
(0.0242679 -0.0141186 -0.0146773)
(0.0170492 -0.0161042 -0.0122198)
(0.0101363 -0.0199297 -0.0112598)
(0.00406866 -0.000778012 0.00951687)
(0.00770969 0.000580709 0.00770969)
(0.00849051 -0.000136441 0.00520662)
(0.00796133 -0.00270033 0.00345055)
(0.00796401 -0.00395667 0.00278094)
(0.0089111 -0.00312996 0.00246642)
(0.00988635 -0.00164929 0.00216951)
(0.00998807 -0.000479525 0.00212667)
(0.0087527 4.41825e-05 0.00214098)
(0.00654649 0.000570626 0.0018978)
(0.00373303 0.00145321 0.00137333)
(-0.000411915 0.00242035 0.00101435)
(-0.00439729 0.00195049 0.00073752)
(-0.00657395 0.000743159 0.000428337)
(-0.00733254 -0.00104365 0.000193872)
(-0.00679215 -0.0031041 3.22804e-05)
(-0.00574613 -0.00433818 -7.59767e-05)
(-0.00471124 -0.00405814 0.000457937)
(-0.00381663 -0.00167908 0.00179765)
(-0.00117023 0.00158846 0.00289508)
(0.00585548 -0.0175737 0.0122564)
(0.0121366 -0.0105378 0.0121366)
(0.0159683 -0.00312347 0.0104115)
(0.0153763 0.00086895 0.00772699)
(0.0105328 -0.000292806 0.00502188)
(0.00536868 -0.00248362 0.00260281)
(0.00291828 -0.00274457 0.00100199)
(0.00195792 -0.000915442 0.000141668)
(0.00150765 0.000656785 1.59548e-05)
(0.000293617 0.00159548 2.45402e-05)
(-0.000678504 0.00257829 -0.000233078)
(-0.00116405 0.00326819 -7.57798e-07)
(-0.00144252 0.00246843 0.000468519)
(-0.00176678 0.00100745 0.000736176)
(-0.00286706 0.000194313 0.00145079)
(-0.00593809 0.00048921 0.00261457)
(-0.00989511 0.00157111 0.0044562)
(-0.0121852 0.00150478 0.0074502)
(-0.010519 -0.00243171 0.0103969)
(-0.00566534 -0.00809592 0.0117437)
(0.00431909 -0.0306557 0.0082744)
(0.0102235 -0.0227518 0.0102235)
(0.0144147 -0.0131352 0.010536)
(0.0170208 -0.00432174 0.00973161)
(0.0162783 0.00104701 0.00793983)
(0.0117844 0.00206927 0.00585358)
(0.00607576 0.000254391 0.00380207)
(0.00177516 -0.000681182 0.00167123)
(9.57895e-05 0.000358951 -0.000200417)
(-0.000931407 0.00144205 -0.000553824)
(-0.00179536 0.00194784 -0.000282714)
(-0.00232724 0.00221174 0.000573987)
(-0.00305317 0.00206485 0.00163901)
(-0.00505195 0.0021232 0.0027323)
(-0.00854929 0.00266198 0.00427226)
(-0.0130502 0.00263904 0.00636241)
(-0.016048 -9.29968e-05 0.00876718)
(-0.0149199 -0.00738255 0.0106453)
(-0.0106464 -0.0162851 0.0110547)
(-0.00462427 -0.0237042 0.00977342)
(0.00317863 -0.0388905 0.00411798)
(0.00789182 -0.0309744 0.00789182)
(0.00943446 -0.0203561 0.00950693)
(0.010935 -0.00954091 0.0100041)
(0.0115169 -0.00138184 0.00968849)
(0.0107963 0.00248557 0.00840903)
(0.00826812 0.00332324 0.00678378)
(0.0049116 0.00338309 0.00478718)
(0.00163492 0.00315403 0.00251089)
(-0.000532049 0.00300838 0.000800663)
(-0.00217313 0.00279366 0.00123275)
(-0.00402585 0.00294349 0.00274139)
(-0.00633039 0.0033515 0.00409058)
(-0.00914794 0.00377211 0.00528765)
(-0.0121842 0.00380408 0.00661745)
(-0.0142893 0.00170396 0.00809001)
(-0.0135327 -0.00477628 0.0094771)
(-0.0110431 -0.0148575 0.00969857)
(-0.00827405 -0.0252443 0.00852069)
(-0.00328148 -0.0328102 0.00525007)
(0.00237739 -0.0431594 0.00104211)
(0.00647133 -0.0352484 0.00647133)
(0.00536436 -0.0243828 0.00896368)
(0.00487572 -0.0131827 0.0100939)
(0.00372415 -0.00446694 0.0106365)
(0.00310337 0.000683743 0.01037)
(0.00207138 0.00292404 0.00927688)
(0.000705355 0.00417174 0.00792333)
(-0.000208967 0.00535324 0.00637383)
(-0.000505072 0.00616002 0.00495003)
(-0.000961927 0.0060691 0.00499539)
(-0.00234935 0.0057511 0.00640685)
(-0.00400567 0.00523938 0.00752274)
(-0.00563194 0.00434097 0.0085149)
(-0.00695131 0.00263696 0.00961571)
(-0.00695569 -0.00165278 0.0105339)
(-0.00682576 -0.00969823 0.01028)
(-0.00635876 -0.0205418 0.00917319)
(-0.00654568 -0.0310449 0.00676142)
(-0.00242422 -0.0382945 0.0016113)
(0.00151734 -0.0446889 -0.00131898)
(0.00548035 -0.036494 0.00548035)
(0.00231702 -0.0258163 0.00833504)
(0.000751004 -0.0150307 0.00949445)
(-0.00128375 -0.00657191 0.00992029)
(-0.00239265 -0.00171585 0.00998723)
(-0.00264033 0.00120925 0.00982164)
(-0.00260941 0.00290746 0.00942908)
(-0.00215899 0.00404873 0.00894913)
(-0.00124949 0.00507289 0.00841512)
(0.000108037 0.00551352 0.00857655)
(0.000743113 0.00493915 0.00927877)
(0.000922492 0.00406703 0.00985823)
(0.000677904 0.00274379 0.010467)
(0.000302676 0.000475393 0.0111197)
(0.000156831 -0.00441513 0.011108)
(-0.00164648 -0.0124311 0.0102573)
(-0.00285035 -0.0229528 0.00868354)
(-0.00547892 -0.033269 0.00557711)
(-0.00165655 -0.0405436 -0.00122876)
(0.000252789 -0.0440625 -0.00340118)
(0.00410889 -0.0352552 0.00410889)
(-0.000855098 -0.0252208 0.00685553)
(-0.00274185 -0.015922 0.0076883)
(-0.00454221 -0.00925132 0.00762785)
(-0.00511501 -0.00487071 0.00737749)
(-0.00491075 -0.00201062 0.00741568)
(-0.00400273 0.000107412 0.00794191)
(-0.00267566 0.0016753 0.00863516)
(-0.00138643 0.00280251 0.00879502)
(0.000481925 0.0031453 0.00909474)
(0.00194563 0.00257579 0.00945594)
(0.0030927 0.00155973 0.00966156)
(0.0038423 -0.000215179 0.00967533)
(0.00428658 -0.00316109 0.00948109)
(0.00373996 -0.00749567 0.00929779)
(0.00206209 -0.0140951 0.00876189)
(0.000322341 -0.0231895 0.00738469)
(-0.00420633 -0.0327529 0.00419131)
(-0.000526371 -0.040512 -0.00363417)
(-0.00190292 -0.0395994 -0.00617177)
(0.000991385 -0.0307629 0.000991386)
(-0.00528575 -0.0228655 0.00312939)
(-0.00724574 -0.0163714 0.00326949)
(-0.00859707 -0.011728 0.00223006)
(-0.00851287 -0.00861089 0.00131982)
(-0.00748226 -0.00637129 0.000862505)
(-0.00574905 -0.00440346 0.00112759)
(-0.00357005 -0.0022719 0.00228657)
(-0.00161437 0.000517726 0.00449559)
(0.000743452 0.0013746 0.00567154)
(0.00294047 -9.77858e-06 0.00512807)
(0.00522441 -0.00183582 0.00434501)
(0.00704192 -0.00391182 0.00396278)
(0.00798901 -0.00645151 0.00407675)
(0.00796563 -0.0101517 0.00434184)
(0.00666045 -0.0152185 0.00453593)
(0.00471118 -0.0214397 0.00390508)
(-0.00127948 -0.0289742 0.00130403)
(0.00149498 -0.0367677 -0.00642832)
(-0.00595477 -0.0297786 -0.0107475)
(-0.00640023 -0.0230885 -0.00640023)
(-0.0127256 -0.0182667 -0.00559462)
(-0.0148104 -0.0154587 -0.00630104)
(-0.0151466 -0.0137203 -0.00751107)
(-0.013773 -0.0128628 -0.00853345)
(-0.011366 -0.0125037 -0.00911855)
(-0.00830301 -0.012253 -0.00918477)
(-0.00478642 -0.0118688 -0.00842821)
(-0.00197573 -0.0111171 -0.00655711)
(0.00213859 -0.0113152 -0.0062974)
(0.00550159 -0.0120989 -0.0074419)
(0.00913563 -0.0123257 -0.00778431)
(0.0120963 -0.0124581 -0.0075058)
(0.0141935 -0.0127132 -0.00682051)
(0.0151388 -0.0134283 -0.00585226)
(0.0143791 -0.0149141 -0.00484468)
(0.0119991 -0.0174103 -0.00441698)
(0.00573865 -0.0218362 -0.00572204)
(0.00537767 -0.0278582 -0.0107562)
(-0.0130577 -0.0168963 -0.0186903)
(-0.0197102 -0.0105046 -0.0197102)
(-0.0270694 -0.00692185 -0.0228)
(-0.0295214 -0.00488315 -0.0261664)
(-0.0294968 -0.00348091 -0.0295186)
(-0.0273272 -0.00236777 -0.0326752)
(-0.0233979 -0.00126997 -0.0353726)
(-0.0178812 -5.92933e-05 -0.0372796)
(-0.0109572 0.00134183 -0.0380226)
(-0.00405289 0.00293582 -0.0366608)
(0.0066561 0.00222152 -0.0361625)
(0.0128119 0.00069281 -0.036905)
(0.0190883 -0.000563579 -0.0358874)
(0.0239556 -0.00162715 -0.0338064)
(0.0272781 -0.00258329 -0.0310157)
(0.0289126 -0.00358561 -0.0278203)
(0.0285184 -0.00487368 -0.0244855)
(0.0258119 -0.00675682 -0.0212463)
(0.0185449 -0.0100793 -0.0185057)
(0.0121962 -0.0159142 -0.0181651)
(0.00251357 0.00127714 0.0098205)
(0.00520662 -0.000136441 0.00849051)
(0.00642502 -0.0021574 0.00642502)
(0.00706371 -0.00380022 0.00505759)
(0.00793269 -0.00392106 0.00453518)
(0.00916193 -0.00290291 0.00417925)
(0.009968 -0.00168488 0.00380215)
(0.00990071 -0.000633815 0.00364523)
(0.00863589 -3.11533e-05 0.00360954)
(0.00625234 0.00057602 0.00327511)
(0.00321062 0.00168191 0.00256414)
(-0.00185293 0.00243881 0.00195283)
(-0.00529815 0.00149231 0.00161242)
(-0.00727032 0.000400868 0.00116937)
(-0.00784268 -0.00100827 0.000909122)
(-0.00727782 -0.0026076 0.000829106)
(-0.00610794 -0.00391816 0.00087564)
(-0.00468214 -0.00459993 0.00131722)
(-0.00314507 -0.00377968 0.00217204)
(-0.000932575 -0.00180278 0.0027863)
(0.00544157 -0.00688641 0.0163691)
(0.0104115 -0.00312347 0.0159683)
(0.013339 0.000268174 0.013339)
(0.0124069 0.000624873 0.00959097)
(0.00863609 -0.00151239 0.00606484)
(0.00522064 -0.00297036 0.00348802)
(0.00359515 -0.00281731 0.00211364)
(0.0028983 -0.00104794 0.00135098)
(0.00215026 0.000792345 0.00111628)
(0.00041081 0.00166949 0.00111871)
(-0.00106643 0.00253871 0.000940115)
(-0.00184848 0.00291327 0.00111593)
(-0.00209845 0.00188986 0.00127766)
(-0.00235554 0.000427497 0.00120432)
(-0.00304438 -0.000726537 0.00156076)
(-0.00486389 -0.000882452 0.0025941)
(-0.00746462 -9.44011e-05 0.0045107)
(-0.00914248 0.000954975 0.00780959)
(-0.00809319 0.000790151 0.0115833)
(-0.00458237 -0.00093938 0.0134642)
(0.00473203 -0.0183063 0.011485)
(0.010536 -0.0131352 0.0144147)
(0.0149511 -0.00671568 0.0149511)
(0.0171141 -0.000738432 0.0134536)
(0.0155534 0.00227228 0.0106277)
(0.0109819 0.00184379 0.00755273)
(0.00577886 -0.000528315 0.00478972)
(0.00212035 -0.00120892 0.00225542)
(0.000596222 0.000469456 0.000339524)
(-0.000747369 0.0015497 -7.33029e-05)
(-0.00212194 0.00175943 0.000300379)
(-0.00288152 0.00172236 0.00120402)
(-0.00353687 0.00147556 0.0022901)
(-0.00510241 0.00160939 0.00358472)
(-0.00791561 0.00232572 0.00555142)
(-0.0115767 0.00295972 0.00829156)
(-0.0143352 0.00200144 0.0116329)
(-0.0139657 -0.00218516 0.0145359)
(-0.0101442 -0.00816243 0.0153217)
(-0.00472987 -0.013105 0.0136194)
(0.00382474 -0.0261822 0.0035743)
(0.00950693 -0.0203561 0.00943446)
(0.0123979 -0.0128749 0.0123979)
(0.0144729 -0.00456488 0.0131118)
(0.0150504 0.00171069 0.0122284)
(0.0132903 0.00406799 0.010426)
(0.00992131 0.0038586 0.00820169)
(0.00574267 0.00297517 0.00555156)
(0.00210845 0.00257785 0.00263771)
(-0.000453346 0.00274411 0.000718454)
(-0.00250875 0.00259961 0.00138228)
(-0.00445014 0.002608 0.00320091)
(-0.00663518 0.00302729 0.00501278)
(-0.00939445 0.00372887 0.00677192)
(-0.0125605 0.00430741 0.00875102)
(-0.0150796 0.00337731 0.0108979)
(-0.0152976 -0.000757693 0.0127956)
(-0.012792 -0.00822278 0.0131829)
(-0.00926097 -0.015692 0.0111118)
(-0.00373891 -0.0212041 0.00616224)
(0.00288123 -0.031275 -0.00253441)
(0.00896368 -0.0243828 0.00536436)
(0.00992908 -0.0164698 0.00992908)
(0.0104683 -0.00741576 0.0120176)
(0.0101467 0.000228993 0.0126974)
(0.00894386 0.00449444 0.0119194)
(0.006749 0.00568296 0.010236)
(0.00401896 0.00564844 0.00812753)
(0.00157865 0.00566844 0.00566733)
(-0.0001825 0.00576126 0.00354003)
(-0.00175586 0.00540182 0.00407033)
(-0.0037599 0.00523081 0.00619818)
(-0.00607718 0.00534647 0.00804348)
(-0.00857472 0.0054957 0.00965738)
(-0.0108959 0.00492175 0.011275)
(-0.0120585 0.00192139 0.0126345)
(-0.01155 -0.00469094 0.0127685)
(-0.0101883 -0.0133883 0.0110349)
(-0.0086072 -0.0211397 0.00678118)
(-0.00289586 -0.0271522 -0.000751377)
(0.00149607 -0.034954 -0.00646882)
(0.00833504 -0.0258163 0.00231702)
(0.00764991 -0.0173533 0.00764991)
(0.0071122 -0.00796142 0.0102886)
(0.00552824 0.000269691 0.0115269)
(0.00417515 0.00497767 0.0112382)
(0.00268197 0.00676609 0.0101816)
(0.00121648 0.0071416 0.0088903)
(0.000111641 0.00731685 0.00747919)
(-0.000387016 0.00768478 0.00613549)
(-0.000667063 0.00755568 0.00649605)
(-0.00146832 0.00715919 0.00809846)
(-0.00270748 0.00692893 0.00956539)
(-0.00423944 0.00665729 0.0109575)
(-0.00570245 0.00544673 0.012271)
(-0.0065314 0.00142901 0.0128981)
(-0.0075313 -0.00618225 0.0118123)
(-0.00772891 -0.0153796 0.008955)
(-0.00809214 -0.0235076 0.00340158)
(-0.00175343 -0.0310724 -0.0055952)
(-0.000392445 -0.0365806 -0.00954437)
(0.00685553 -0.0252208 -0.000855098)
(0.00468134 -0.0164931 0.00468134)
(0.00400482 -0.00743952 0.00745391)
(0.00217411 -0.000674056 0.00867085)
(0.000754144 0.00385499 0.00826215)
(-0.000124718 0.00571335 0.00742325)
(-0.000704412 0.00636443 0.00685692)
(-0.000851334 0.00688562 0.00649042)
(-0.000645171 0.00755409 0.00595667)
(-0.000158282 0.00754914 0.00621851)
(3.26234e-05 0.00696136 0.00722912)
(-0.000127064 0.00650154 0.00822979)
(-0.000623275 0.00594149 0.00924405)
(-0.0012841 0.00433335 0.0102277)
(-0.00238569 0.000263609 0.010799)
(-0.00402964 -0.00645264 0.00949748)
(-0.00482315 -0.0152973 0.00619164)
(-0.00684451 -0.0237007 0.000108204)
(-1.3628e-05 -0.0332894 -0.0091284)
(-0.00300367 -0.0346856 -0.0130319)
(0.00312939 -0.0228655 -0.00528575)
(-0.00056058 -0.0139479 -0.000560579)
(-0.00109936 -0.00513506 0.00139225)
(-0.00200969 0.00186167 0.00181974)
(-0.00183407 0.00587605 0.00176987)
(-0.00173858 0.00763968 0.00115685)
(-0.00145206 0.00844963 0.00103728)
(-0.00101178 0.00899181 0.00154501)
(-0.000712421 0.00953956 0.00241011)
(-0.000114495 0.00945006 0.00300498)
(0.000792534 0.00882105 0.0031136)
(0.00171024 0.00814646 0.00330013)
(0.00225234 0.00730324 0.00375691)
(0.00242961 0.00566309 0.00445398)
(0.00236887 0.00195253 0.00472232)
(0.00128248 -0.00481712 0.00385457)
(0.000289269 -0.0133809 0.00124425)
(-0.00341054 -0.0216433 -0.00434818)
(0.00253771 -0.0321089 -0.0126981)
(-0.00738258 -0.0271837 -0.0179312)
(-0.00559462 -0.0182667 -0.0127256)
(-0.0100939 -0.011926 -0.0100939)
(-0.0104808 -0.0079405 -0.00938161)
(-0.0099886 -0.00520743 -0.00972049)
(-0.00811309 -0.00378494 -0.00967315)
(-0.00587289 -0.00330721 -0.00933956)
(-0.00397735 -0.00307107 -0.00915124)
(-0.00215273 -0.0023756 -0.00836432)
(-0.000896638 -0.000492773 -0.00671885)
(0.000909654 -0.000709634 -0.00606267)
(0.00275429 -0.00262588 -0.00656853)
(0.00474637 -0.0032074 -0.00670435)
(0.00666055 -0.00333451 -0.00663879)
(0.00869852 -0.00371893 -0.00688734)
(0.0103015 -0.00515514 -0.00719696)
(0.0104344 -0.00779964 -0.00718461)
(0.00959113 -0.0115412 -0.00826962)
(0.00503447 -0.0173414 -0.0115143)
(0.00678119 -0.0254969 -0.0173535)
(-0.0157817 -0.0147403 -0.025891)
(-0.0228 -0.00692185 -0.0270694)
(-0.0302654 -0.00270883 -0.0302654)
(-0.032364 -0.000268178 -0.0339597)
(-0.0319701 0.00146653 -0.0376757)
(-0.0296051 0.00290104 -0.0413035)
(-0.0256205 0.0043447 -0.0445821)
(-0.0199756 0.00590325 -0.0469591)
(-0.0126701 0.00771346 -0.047937)
(-0.0048192 0.00978612 -0.0462138)
(0.00772772 0.00889026 -0.045799)
(0.0147659 0.00684261 -0.0466606)
(0.0214183 0.00516002 -0.0452785)
(0.026363 0.00370511 -0.042572)
(0.0297417 0.00239798 -0.0391523)
(0.0315814 0.00106879 -0.0354639)
(0.0315314 -0.000550789 -0.0317439)
(0.0290893 -0.00283716 -0.0281799)
(0.0216641 -0.00675061 -0.0253514)
(0.0148706 -0.0139617 -0.0247946)
(0.00143237 -0.00137469 0.00817774)
(0.00345055 -0.00270033 0.00796133)
(0.00505759 -0.00380022 0.00706371)
(0.0064396 -0.00408973 0.0064396)
(0.00785597 -0.00349956 0.00616401)
(0.00914342 -0.00256327 0.00581248)
(0.00984173 -0.00167965 0.00544656)
(0.00968494 -0.000788672 0.00526641)
(0.00837959 -0.000166204 0.00523427)
(0.00580621 0.000458623 0.00495255)
(0.00243679 0.00172825 0.00430337)
(-0.00339282 0.00207591 0.00331412)
(-0.00612367 0.000989076 0.0027386)
(-0.00783791 0.000139197 0.00216587)
(-0.00805628 -0.000922228 0.00185214)
(-0.00739822 -0.00195735 0.0018085)
(-0.00614026 -0.00288286 0.00190217)
(-0.00450884 -0.00360109 0.00215789)
(-0.00273293 -0.00375874 0.00248068)
(-0.000868562 -0.00323058 0.00260394)
(0.00436206 0.000196956 0.0160579)
(0.00772699 0.00086895 0.0153763)
(0.00959097 0.000624873 0.0124069)
(0.00867502 -0.00109233 0.00867502)
(0.0063496 -0.0027706 0.00559902)
(0.00463944 -0.00333372 0.00382652)
(0.00389908 -0.00278298 0.00301663)
(0.00353348 -0.000986605 0.00253647)
(0.00250172 0.00094465 0.00240348)
(0.000314429 0.00176463 0.00255974)
(-0.00158232 0.00245243 0.00253109)
(-0.0026257 0.00245278 0.00235808)
(-0.00280359 0.00130119 0.00188886)
(-0.0028897 -0.000231734 0.00119441)
(-0.00315736 -0.00188753 0.000968553)
(-0.00370187 -0.00252965 0.00132407)
(-0.00487793 -0.00210437 0.00251501)
(-0.00590389 -0.000938717 0.00506544)
(-0.00536708 0.000645346 0.0083716)
(-0.00313918 0.00158103 0.0102116)
(0.00499229 -0.00778829 0.0141395)
(0.00973161 -0.00432174 0.0170208)
(0.0134536 -0.000738432 0.0171141)
(0.0146655 0.00199439 0.0146655)
(0.0127751 0.00252434 0.0110864)
(0.00879909 0.000654734 0.00765245)
(0.00475827 -0.00160954 0.00489473)
(0.00210614 -0.00149952 0.00273133)
(0.000836589 0.000674756 0.00132698)
(-0.000685343 0.00168374 0.00106292)
(-0.00237503 0.00156877 0.00140455)
(-0.00324313 0.00119991 0.0019491)
(-0.00369613 0.000696955 0.00261243)
(-0.00469743 0.000565409 0.00366632)
(-0.00671042 0.0011052 0.00548416)
(-0.00939546 0.00238896 0.00827035)
(-0.0115508 0.00314081 0.011855)
(-0.0115234 0.00210234 0.0153171)
(-0.00867557 -0.000739175 0.0169803)
(-0.00457043 -0.00369832 0.0156807)
(0.00466302 -0.0152828 0.00441247)
(0.0100041 -0.00954091 0.010935)
(0.0131118 -0.00456488 0.0144729)
(0.0151326 0.000606712 0.0151326)
(0.0152268 0.00382836 0.013684)
(0.0132474 0.0044074 0.0113917)
(0.00972166 0.00334174 0.00872553)
(0.00548545 0.00194379 0.00583418)
(0.00213516 0.00180833 0.00300802)
(-0.000384502 0.00234851 0.00135378)
(-0.0025921 0.00211725 0.00196148)
(-0.00448692 0.00190038 0.00357663)
(-0.00643254 0.00222688 0.00540794)
(-0.00886398 0.00304855 0.00739488)
(-0.0117045 0.00403723 0.00973314)
(-0.0140425 0.00429971 0.0123703)
(-0.0145789 0.00263252 0.0147758)
(-0.0126962 -0.00148726 0.0156293)
(-0.00927228 -0.00632369 0.0133252)
(-0.00429298 -0.0110005 0.00793105)
(0.00347842 -0.0221658 -0.00358207)
(0.0100939 -0.0131827 0.00487572)
(0.0120176 -0.00741576 0.0104683)
(0.0131587 -0.00151691 0.0131587)
(0.0132164 0.00342442 0.0137018)
(0.0118781 0.00583114 0.0126449)
(0.00930451 0.00595714 0.0107311)
(0.00603953 0.0051405 0.00834843)
(0.00287743 0.00465961 0.00549017)
(0.000223388 0.00459576 0.00312352)
(-0.00217182 0.00422301 0.00373017)
(-0.0045753 0.00404406 0.00601864)
(-0.00715322 0.00440624 0.00821213)
(-0.00986884 0.00510349 0.0101907)
(-0.0124042 0.00539349 0.0121488)
(-0.0139061 0.00399334 0.0138453)
(-0.0136668 1.95531e-05 0.0143477)
(-0.0118802 -0.0057074 0.0123466)
(-0.0095356 -0.011171 0.00723535)
(-0.00354576 -0.0181355 -0.00100249)
(0.00140218 -0.0279123 -0.00838063)
(0.00949445 -0.0150307 0.000751004)
(0.0102886 -0.00796142 0.0071122)
(0.0106145 -0.00141434 0.0106145)
(0.0099019 0.00420662 0.0121662)
(0.00866199 0.00736404 0.0119617)
(0.0067854 0.00806694 0.0107693)
(0.00453482 0.00752288 0.00911917)
(0.00233735 0.00702917 0.00711907)
(0.000511506 0.0069943 0.00521182)
(-0.00126497 0.00668069 0.00556704)
(-0.00314358 0.00642593 0.00763497)
(-0.00526137 0.00663788 0.00960555)
(-0.00745105 0.00707605 0.0113279)
(-0.00937384 0.00679083 0.0128155)
(-0.0104875 0.00430805 0.0135698)
(-0.0108127 -0.000913135 0.0125255)
(-0.0101709 -0.00746374 0.00907022)
(-0.0092719 -0.0138918 0.00252568)
(-0.00191 -0.0242781 -0.00706029)
(-0.00112211 -0.031624 -0.011967)
(0.0076883 -0.015922 -0.00274185)
(0.00745391 -0.00743952 0.00400482)
(0.00760339 -0.000916651 0.00760339)
(0.00645265 0.0044205 0.00909048)
(0.00543264 0.00748965 0.00925866)
(0.00431141 0.00824139 0.00864223)
(0.00296667 0.00787394 0.00783531)
(0.00163672 0.00760058 0.0069778)
(0.000487389 0.00783564 0.00603535)
(-0.000639495 0.00758535 0.00624624)
(-0.00175417 0.00711164 0.00764328)
(-0.00299754 0.00714312 0.00901056)
(-0.0042717 0.00741837 0.0102054)
(-0.00539977 0.00690686 0.0111895)
(-0.00638675 0.00417787 0.0114873)
(-0.00753489 -0.00116847 0.0100506)
(-0.00736234 -0.00766798 0.00590836)
(-0.00780226 -0.0152862 -0.0013265)
(0.000464735 -0.028604 -0.0112558)
(-0.00420211 -0.0318678 -0.0157937)
(0.00326949 -0.0163714 -0.00724574)
(0.00139225 -0.00513506 -0.00109936)
(0.00263959 0.00316095 0.00263959)
(0.00213103 0.00735518 0.00391568)
(0.0020431 0.00943869 0.0041502)
(0.00205297 0.0100151 0.0039227)
(0.00185022 0.0100788 0.0037702)
(0.00147918 0.0102305 0.00391794)
(0.000597347 0.0106408 0.00426749)
(-0.00045833 0.01032 0.00459212)
(-0.000859917 0.00968333 0.00502266)
(-0.000890725 0.00933246 0.00549984)
(-0.000981204 0.00921322 0.00605938)
(-0.00107444 0.00878463 0.00665686)
(-0.00136327 0.00686212 0.00679819)
(-0.00214174 0.00231948 0.00543716)
(-0.00139835 -0.00615667 0.00103122)
(-0.00370502 -0.0158619 -0.00592909)
(0.00353604 -0.0295479 -0.0152174)
(-0.0089361 -0.0261675 -0.0207175)
(-0.00630104 -0.0154587 -0.0148104)
(-0.00938161 -0.0079405 -0.0104808)
(-0.00791659 -0.00306795 -0.00791659)
(-0.00675386 8.28932e-05 -0.00708842)
(-0.00526624 0.00103764 -0.00744084)
(-0.00358514 0.000801419 -0.00788519)
(-0.00207682 0.000408039 -0.00803684)
(-0.000652353 0.000656116 -0.00746138)
(4.81312e-05 0.00244806 -0.00589448)
(0.000911569 0.00201546 -0.0055559)
(0.00205995 -6.68622e-06 -0.00605955)
(0.00346808 -0.000235356 -0.00594514)
(0.00485827 0.000267361 -0.00538927)
(0.00633585 0.000667819 -0.00465616)
(0.00743548 -0.000197995 -0.00410751)
(0.00841251 -0.00341016 -0.00535676)
(0.00901384 -0.00798721 -0.00833016)
(0.00566975 -0.0148637 -0.0133681)
(0.00820673 -0.0246345 -0.0198638)
(-0.018348 -0.0137856 -0.0284247)
(-0.0261664 -0.00488315 -0.0295214)
(-0.0339597 -0.000268178 -0.032364)
(-0.0356821 0.00234316 -0.0356821)
(-0.0347242 0.004219 -0.0390449)
(-0.0321726 0.00581763 -0.0428004)
(-0.0282905 0.00751172 -0.046721)
(-0.0227429 0.0094804 -0.0502312)
(-0.0149812 0.0118354 -0.0523472)
(-0.00579459 0.0146345 -0.0514358)
(0.00939094 0.0135431 -0.0509512)
(0.0174397 0.0109006 -0.050914)
(0.0243932 0.00870019 -0.0483378)
(0.0291995 0.00684247 -0.0445547)
(0.0324405 0.0052386 -0.0404698)
(0.0344693 0.00369517 -0.0366388)
(0.034932 0.00187277 -0.033284)
(0.0327242 -0.000603617 -0.0300724)
(0.0248959 -0.00489074 -0.0275946)
(0.0172866 -0.013134 -0.0270735)
(0.000973199 -0.00390395 0.00743332)
(0.00278094 -0.00395667 0.00796401)
(0.00453518 -0.00392106 0.00793269)
(0.00616401 -0.00349956 0.00785597)
(0.00769315 -0.00283979 0.00769315)
(0.00892333 -0.00225295 0.0073582)
(0.00960925 -0.00162247 0.00705912)
(0.00939523 -0.000865694 0.00694764)
(0.00801515 -0.000278132 0.00708686)
(0.00531119 0.000328702 0.00708135)
(0.00104303 0.00168247 0.00653995)
(-0.00462667 0.00155779 0.00517048)
(-0.00694702 0.000471855 0.00413337)
(-0.00824091 -0.000244628 0.00331926)
(-0.00821676 -0.000968648 0.00285955)
(-0.00738698 -0.00146586 0.0027208)
(-0.00607711 -0.00181667 0.00273509)
(-0.00449436 -0.00217639 0.00276027)
(-0.00272701 -0.00245464 0.00258602)
(-0.000959083 -0.00244558 0.00216446)
(0.0028303 0.000594039 0.0103219)
(0.00502188 -0.000292806 0.0105328)
(0.00606484 -0.00151239 0.00863609)