/*--------------------------------*- C++ -*----------------------------------*\
  =========                 |
  \\      /  F ield         | OpenFOAM: The Open Source CFD Toolbox
   \\    /   O peration     | Website:  https://openfoam.org
    \\  /    A nd           | Version:  9
     \\/     M anipulation  |
\*---------------------------------------------------------------------------*/
FoamFile
{
    format      ascii;
    class       volScalarField;
    location    "1200";
    object      alphat;
}
// * * * * * * * * * * * * * * * * * * * * * * * * * * * * * * * * * * * * * //

dimensions      [1 -1 -1 0 0 0 0];

internalField   nonuniform List<scalar> 
4000
(
0.000411218
0.000382215
0.00032987
0.000265316
0.000198394
0.00017057
0.000151268
0.0001406
0.000133588
0.000128843
0.000127675
0.000128107
0.000130924
0.00013841
0.000155101
0.00016836
0.000209023
0.000281502
0.000349934
0.00038511
0.000451978
0.000433043
0.000402194
0.000356231
0.00031414
0.000256275
0.000175963
0.000161952
0.00015763
0.000158949
0.000159477
0.000157863
0.000159097
0.000164922
0.000231952
0.000307944
0.000352259
0.000393839
0.00042264
0.000437295
0.000471508
0.000457746
0.000427824
0.000390444
0.000346499
0.000303282
0.000261514
0.000208473
0.000176572
0.000181722
0.000180978
0.000176829
0.000192335
0.000253783
0.000296876
0.000341463
0.000387793
0.000423666
0.000449618
0.000459226
0.000482699
0.000475196
0.000451083
0.000416385
0.000376962
0.000338202
0.000306425
0.000279866
0.00025433
0.000239292
0.000233446
0.000242856
0.000269168
0.000297429
0.000332209
0.000373921
0.00041359
0.00044651
0.00046727
0.00047133
0.000490526
0.00049003
0.000475996
0.000455639
0.000433998
0.000414307
0.000397681
0.000383426
0.00037142
0.00036226
0.000358774
0.000365317
0.000376345
0.000390138
0.000407203
0.000428156
0.000450357
0.000469612
0.000481472
0.000479548
0.00049713
0.000504428
0.000501966
0.000494959
0.000486579
0.000477638
0.000468248
0.000458571
0.000448879
0.000440331
0.000439439
0.000447838
0.000456284
0.000464559
0.000472774
0.00048085
0.000488187
0.000493788
0.000494611
0.000486316
0.000503717
0.000518802
0.000526325
0.000529186
0.000529447
0.000527238
0.000522539
0.000515418
0.000506342
0.000496819
0.000497213
0.000507715
0.000515495
0.000520739
0.00052351
0.000523836
0.00052176
0.000517181
0.000508239
0.000492998
0.000511064
0.00053391
0.000550022
0.000560481
0.000567126
0.000569976
0.000569024
0.00056409
0.000555208
0.000543962
0.000545192
0.000557839
0.000565291
0.000567931
0.000566463
0.000561382
0.000552626
0.000540328
0.000523
0.00050041
0.000520586
0.000552498
0.000576642
0.000593704
0.000605738
0.000612938
0.000615556
0.000612989
0.000604522
0.000591034
0.000592977
0.00060757
0.000614364
0.000614311
0.000609082
0.000599603
0.00058541
0.000566518
0.000541214
0.000509958
0.000534036
0.000573989
0.00060534
0.000627811
0.000644716
0.00065705
0.000664866
0.000667526
0.000664047
0.000652869
0.000654628
0.00066529
0.000667106
0.000662232
0.000652148
0.000637699
0.000618931
0.000595005
0.000562841
0.000523502
0.000382215
0.000365664
0.000313721
0.000257645
0.00021504
0.000200553
0.00018469
0.000166867
0.000156251
0.000150521
0.000149337
0.000149646
0.000155671
0.000171422
0.000192559
0.000195061
0.000209137
0.000257781
0.000309455
0.000339338
0.000433043
0.000580945
0.000565333
0.000484356
0.000432765
0.000398086
0.000363575
0.000365371
0.00039309
0.000423542
0.000432886
0.000402476
0.000358497
0.000349634
0.000389324
0.000444165
0.000483524
0.000545226
0.000568601
0.000413558
0.000457746
0.000615628
0.000628963
0.000570311
0.000487892
0.0004311
0.000394857
0.000369491
0.000397086
0.000453273
0.000476603
0.000410181
0.000371319
0.000399014
0.000430883
0.0004841
0.000560162
0.000616633
0.000600177
0.00043974
0.000475196
0.000640647
0.000664127
0.00060999
0.000519024
0.000447276
0.000398327
0.000362163
0.00035019
0.000391539
0.000423282
0.000352861
0.000357246
0.000395177
0.000447251
0.000523878
0.0006181
0.000660041
0.000627079
0.000458492
0.00049003
0.000674568
0.000711649
0.000670637
0.00058277
0.000493739
0.000437468
0.000392119
0.000359727
0.00035312
0.000351468
0.000349153
0.000380714
0.000429772
0.000493714
0.000590942
0.000675321
0.000702902
0.000657958
0.000474738
0.000504428
0.000706968
0.000758274
0.000744824
0.000688229
0.000605393
0.000521139
0.000469164
0.000435927
0.000421187
0.000416672
0.00042414
0.00045912
0.000515223
0.000603595
0.000697871
0.000744969
0.000745351
0.000686848
0.000490679
0.000518802
0.000732279
0.000793777
0.000814964
0.000814266
0.000787618
0.000733996
0.000661411
0.000600275
0.000559018
0.000553689
0.000591901
0.000656066
0.000731563
0.000791443
0.000815312
0.000808928
0.000777859
0.00070841
0.0005062
0.00053391
0.00074714
0.000813409
0.000864363
0.000903215
0.000917086
0.000906149
0.000877356
0.000841695
0.000816116
0.000816656
0.00084949
0.000886335
0.000912564
0.000919152
0.000899541
0.000853126
0.00079704
0.000720449
0.00052189
0.000552498
0.000726536
0.000805402
0.000862968
0.000904158
0.00092052
0.000917387
0.000890592
0.000840513
0.000785814
0.000793145
0.000858256
0.000903428
0.000919971
0.00091609
0.000896661
0.000850077
0.000786945
0.000704951
0.000540632
0.000573989
0.000616268
0.000650649
0.000676822
0.000698033
0.000714972
0.000727144
0.000732974
0.000730754
0.000718946
0.000722006
0.000733003
0.000733025
0.00072431
0.000709309
0.000689862
0.000666568
0.000639035
0.000604222
0.000562922
0.00032987
0.000313721
0.000275584
0.000238996
0.000222732
0.000219171
0.000201778
0.000182835
0.000170828
0.000165582
0.000165398
0.000165636
0.00017305
0.000189759
0.000212091
0.000211767
0.000207535
0.000223744
0.000257257
0.000273691
0.000402194
0.000565333
0.000557727
0.000509014
0.000484284
0.000466842
0.000442773
0.000444535
0.000478471
0.0005257
0.000547781
0.000501496
0.000443152
0.000431967
0.000462581
0.000505628
0.000520828
0.000538533
0.000529621
0.000376212
0.000427824
0.000628963
0.00066895
0.000615483
0.000548838
0.00050845
0.000486368
0.000470338
0.000497871
0.000567401
0.000607906
0.000526693
0.000480303
0.000497543
0.000512185
0.000543889
0.000597336
0.000643536
0.000601446
0.000407532
0.000451083
0.000664127
0.000716063
0.000676226
0.000587843
0.000519599
0.00047677
0.000453456
0.000467339
0.000539962
0.000579707
0.000486331
0.000459514
0.000481606
0.000522214
0.000588169
0.000672547
0.0007044
0.000640916
0.000429654
0.000475996
0.000711649
0.000773302
0.000737797
0.000637428
0.000543238
0.000481465
0.000438418
0.000414587
0.000429544
0.000438695
0.00040934
0.000433114
0.000480433
0.000545813
0.000639852
0.000732217
0.000754642
0.000685162
0.00045661
0.000501966
0.000758274
0.000832642
0.000811147
0.000715533
0.000603792
0.000514881
0.000453665
0.000411828
0.000399935
0.000397849
0.000402972
0.000447262
0.000514377
0.000607738
0.000720181
0.00080101
0.000808855
0.000730423
0.000485473
0.000526325
0.000793777
0.000883283
0.000883931
0.000814821
0.000716244
0.000630217
0.000559071
0.000504743
0.000475995
0.000472904
0.000498677
0.000555922
0.000631971
0.000723123
0.000816444
0.00086924
0.000854193
0.00076274
0.000511835
0.000550022
0.000813409
0.000928971
0.000976917
0.000975669
0.000921468
0.000862197
0.000795764
0.000725711
0.000670901
0.000673571
0.000727046
0.000791659
0.000855582
0.000917899
0.00097008
0.000959373
0.000894903
0.000778147
0.00053649
0.000576642
0.000805402
0.00098754
0.00114424
0.0012415
0.00127833
0.00127581
0.00121928
0.00112145
0.00100965
0.00102778
0.00115108
0.0012374
0.00127373
0.00126828
0.00122658
0.00111928
0.000952343
0.000771399
0.000563221
0.00060534
0.000650649
0.000687469
0.000716526
0.000741105
0.000761804
0.000777919
0.000786861
0.00078598
0.000772956
0.000777224
0.00078905
0.000787064
0.000774563
0.000755123
0.000731557
0.000704666
0.000674394
0.000637506
0.000593363
0.000265316
0.000257645
0.000238996
0.000229717
0.000231524
0.000228813
0.000210818
0.000193024
0.000181095
0.000177466
0.000178872
0.000177831
0.000184744
0.000199693
0.000219211
0.000225588
0.000215251
0.000207193
0.00020718
0.000197615
0.000356231
0.000484356
0.000509014
0.000507498
0.000512656
0.000505118
0.000490517
0.000496005
0.000531008
0.000589867
0.000624713
0.000567493
0.00050518
0.00048715
0.000502288
0.000533801
0.000538022
0.000521396
0.000474906
0.000336697
0.000390444
0.000570311
0.000615483
0.000594279
0.000567216
0.000557112
0.00054747
0.00053563
0.000568997
0.000657373
0.000711616
0.000614691
0.000553198
0.00056403
0.000570032
0.000569091
0.000585153
0.000592004
0.000537211
0.000369323
0.000416385
0.00060999
0.000676226
0.00065555
0.000602415
0.0005607
0.000535996
0.000529874
0.000557383
0.000637522
0.000685895
0.000588959
0.000547351
0.000549785
0.000567552
0.000600403
0.000643468
0.00065182
0.000579208
0.000390425
0.000455639
0.000670637
0.000737797
0.000721204
0.000649913
0.000579901
0.000533609
0.000507836
0.000508086
0.000561525
0.000588893
0.000515807
0.000510854
0.000538219
0.000581849
0.000643109
0.00069933
0.000702825
0.000627909
0.000432294
0.000494959
0.000744824
0.000811147
0.000795366
0.000717477
0.000625108
0.000553919
0.000505383
0.000476997
0.000487902
0.000491989
0.000470666
0.000501055
0.000554528
0.000625688
0.000708874
0.000767765
0.000767633
0.000702298
0.000476415
0.000529186
0.000814964
0.000883931
0.000876312
0.000810423
0.000718494
0.000643037
0.000585928
0.000541629
0.000524815
0.000521833
0.000531839
0.000577207
0.000639984
0.000717406
0.00079771
0.000843349
0.000835487
0.00077835
0.000513485
0.000560481
0.000864363
0.000976917
0.00103271
0.00100268
0.000936188
0.000876842
0.0008197
0.000752939
0.000690152
0.000691017
0.000744923
0.000803789
0.000860343
0.000921081
0.000976453
0.000987956
0.000927092
0.000830453
0.000545899
0.000593704
0.000862968
0.00114424
0.00138541
0.00142539
0.00143398
0.00143536
0.00140006
0.0012957
0.00115552
0.00117911
0.00132266
0.00140346
0.00141656
0.00140238
0.00138003
0.00133473
0.00109636
0.000821284
0.000579106
0.000627811
0.000676822
0.000716526
0.000748865
0.000777752
0.000803475
0.000824621
0.000838183
0.00084056
0.000829998
0.00083452
0.000843635
0.000837969
0.000820632
0.000795788
0.000766796
0.000735404
0.000702152
0.000662786
0.000615084
0.000198394
0.00021504
0.000222732
0.000231524
0.000237492
0.000229334
0.000214043
0.000199439
0.000188853
0.000187493
0.000190576
0.000187404
0.000192246
0.000204162
0.000218535
0.000229469
0.000224006
0.000210479
0.000192531
0.00016103
0.00031414
0.000432765
0.000484284
0.000512656
0.000526426
0.000524145
0.00052119
0.0005283
0.000565623
0.000637456
0.000684062
0.000621197
0.000554112
0.000529477
0.000527967
0.000538657
0.000542015
0.000514554
0.000448631
0.000298022
0.000346499
0.000487892
0.000548838
0.000567216
0.000579883
0.000590064
0.000582286
0.000579393
0.000624451
0.000722901
0.000786457
0.000685097
0.000605386
0.000603042
0.000611569
0.000592891
0.000572129
0.000545837
0.00047718
0.000328769
0.000376962
0.000519024
0.000587843
0.000602415
0.000592306
0.000582135
0.000577938
0.000586697
0.000621519
0.000709489
0.000767245
0.00066437
0.000612418
0.000601413
0.000597939
0.000598477
0.000598975
0.000575183
0.000495972
0.000347265
0.000433998
0.00058277
0.000637428
0.000649913
0.00062447
0.0005922
0.000571184
0.000566449
0.000590298
0.000668282
0.00070516
0.000611773
0.000578833
0.000583085
0.000599338
0.000621581
0.000632902
0.000605283
0.000534319
0.000407267
0.000486579
0.000688229
0.000715533
0.000717477
0.000681984
0.000631187
0.000589953
0.000565554
0.000567083
0.000621116
0.000633306
0.000566904
0.000564765
0.000592562
0.000631045
0.000669754
0.000684966
0.000663309
0.000630974
0.000466394
0.000529447
0.000814266
0.000814821
0.000810423
0.000777145
0.000723552
0.000675885
0.000642109
0.000626853
0.000649948
0.00064098
0.000610553
0.000629009
0.000668435
0.000714931
0.000754073
0.000764105
0.000753028
0.000767141
0.000512844
0.000567126
0.000903215
0.000975669
0.00100268
0.000978327
0.000931646
0.000888505
0.000846505
0.000794382
0.000744587
0.000733732
0.000772817
0.000820148
0.000862413
0.000904809
0.000938749
0.000941318
0.000906376
0.000875429
0.000551741
0.000605738
0.000904158
0.0012415
0.00142539
0.00150306
0.00155776
0.00158943
0.00156062
0.00142925
0.00124312
0.00126535
0.00145512
0.00155862
0.00156129
0.00151294
0.00144257
0.00134623
0.00118257
0.000857077
0.000590343
0.000644716
0.000698033
0.000741105
0.000777752
0.000813088
0.000845096
0.000872027
0.000890869
0.000898049
0.000892131
0.000896546
0.000900954
0.000890424
0.000867749
0.000837021
0.000801557
0.000763411
0.000725969
0.00068347
0.000631483
0.00017057
0.000200553
0.000219171
0.000228813
0.000229334
0.000223048
0.000213772
0.000203888
0.000195491
0.000196773
0.000201473
0.000195286
0.000196761
0.00020439
0.000212778
0.000219303
0.000219788
0.000210058
0.00018765
0.000148996
0.000256275
0.000398086
0.000466842
0.000505118
0.000524145
0.000532409
0.000533697
0.000540001
0.000584265
0.000673651
0.000732269
0.000666339
0.000593408
0.000563286
0.000547756
0.000535988
0.000519894
0.000486015
0.000410988
0.000233857
0.000303282
0.0004311
0.00050845
0.000557112
0.000590064
0.000601835
0.000599026
0.000612357
0.000667699
0.000763843
0.000823689
0.0007373
0.00064582
0.00062442
0.000626755
0.00061388
0.000574121
0.000518556
0.000434005
0.000287579
0.000338202
0.000447276
0.000519599
0.0005607
0.000582135
0.0005957
0.000607897
0.000623821
0.000664674
0.000748686
0.000797971
0.000715135
0.000653749
0.000637102
0.000620212
0.000599843
0.000570916
0.000522108
0.000437982
0.000308371
0.000414307
0.000493739
0.000543238
0.000579901
0.0005922
0.000593316
0.000596053
0.000609494
0.000651038
0.000728658
0.00075898
0.000679933
0.000629325
0.000614735
0.000608526
0.000600713
0.000579166
0.000531392
0.000467568
0.000385054
0.000477638
0.000605393
0.000603792
0.000625108
0.000631187
0.000621407
0.000610659
0.000611394
0.000642422
0.000713403
0.000723528
0.000647309
0.000615301
0.000617389
0.000626147
0.000627103
0.000605463
0.000562794
0.000539554
0.00045591
0.000527238
0.000787618
0.000716244
0.000718494
0.000723552
0.00071069
0.000692129
0.000681677
0.000697127
0.000749557
0.000735685
0.000676548
0.000667235
0.000683615
0.000701103
0.000702944
0.000679469
0.000658326
0.000717305
0.00050979
0.000569976
0.000917086
0.000921468
0.000936188
0.000931646
0.000913535
0.000890997
0.00086156
0.000820415
0.000785234
0.000763176
0.0007888
0.000828547
0.000857899
0.000879427
0.000889041
0.000877514
0.000852501
0.000885615
0.000554182
0.000612938
0.00092052
0.00127833
0.00143398
0.00155776
0.00165274
0.00170238
0.00165736
0.00147079
0.00121561
0.0012305
0.00149761
0.00165751
0.00167273
0.0016028
0.00149144
0.00135451
0.00121296
0.000871378
0.000597238
0.00065705
0.000714972
0.000761804
0.000803475
0.000845096
0.000883355
0.000916615
0.00094207
0.000956651
0.000959338
0.000963571
0.000959352
0.000941642
0.000912445
0.000875384
0.000833672
0.000789341
0.000746675
0.000700268
0.000643536
0.000151268
0.00018469
0.000201778
0.000210818
0.000214043
0.000213772
0.000211194
0.000206684
0.000202037
0.000206801
0.000213227
0.000202435
0.000199511
0.000201815
0.000203619
0.000203437
0.000199466
0.000190059
0.000171824
0.000134717
0.000175963
0.000363575
0.000442773
0.000490517
0.00052119
0.000533697
0.000533944
0.000542521
0.00059258
0.000695714
0.000761522
0.000703886
0.000626776
0.000587796
0.000566585
0.000539434
0.000505344
0.000457002
0.000379766
0.000166312
0.000261514
0.000394857
0.000486368
0.00054747
0.000582286
0.000599026
0.000613741
0.00064142
0.00069285
0.000734873
0.000769493
0.000757898
0.000679585
0.000642363
0.000626279
0.000609853
0.000574656
0.000509999
0.000410309
0.000249469
0.000306425
0.000398327
0.00047677
0.000535996
0.000577938
0.000607897
0.000627715
0.000646216
0.000683189
0.00067833
0.000691641
0.000727586
0.000677307
0.000655987
0.000635027
0.000602169
0.000556277
0.000490757
0.000397739
0.000272435
0.000397681
0.000437468
0.000481465
0.000533609
0.000571184
0.000596053
0.000615904
0.000641048
0.000678416
0.000647009
0.000649608
0.000703492
0.000663465
0.000637364
0.000615734
0.000587594
0.000544696
0.000482703
0.000418805
0.000365619
0.000468248
0.000521139
0.000514881
0.000553919
0.000589953
0.000610659
0.000624283
0.000645093
0.000680731
0.000644555
0.000640302
0.000685236
0.000651971
0.000633999
0.000620038
0.000594793
0.000549483
0.000494804
0.000480189
0.000445397
0.000522539
0.000733996
0.000630217
0.000643037
0.000675885
0.000692129
0.000696076
0.000705084
0.000734227
0.000717894
0.000701136
0.000712339
0.000689991
0.000687091
0.000683295
0.000660181
0.000613385
0.00057613
0.000636055
0.000504486
0.000569024
0.000906149
0.000862197
0.000876842
0.000888505
0.000890997
0.000880923
0.000855214
0.000818386
0.000779853
0.000756736
0.000782877
0.000819129
0.000843597
0.000851797
0.000843902
0.000820167
0.000790681
0.000872168
0.000553176
0.000615556
0.000917387
0.00127581
0.00143536
0.00158943
0.00170238
0.00174214
0.0016487
0.00139027
0.00111717
0.00112656
0.00141399
0.00165906
0.00172102
0.00165303
0.00152189
0.00135579
0.00118815
0.000867178
0.000599918
0.000664866
0.000727144
0.000777919
0.000824621
0.000872027
0.000916615
0.000957111
0.000991593
0.00101879
0.00103924
0.00104383
0.00102113
0.000991209
0.000953298
0.000909025
0.000861073
0.000811067
0.000762882
0.000712415
0.000651235
0.0001406
0.000166867
0.000182835
0.000193024
0.000199439
0.000203888
0.000206684
0.000207859
0.00020844
0.000217986
0.000226396
0.000210169
0.000202275
0.000198873
0.000194822
0.000189109
0.000180992
0.000169531
0.000153065
0.000128348
0.000161952
0.000365371
0.000444535
0.000496005
0.0005283
0.000540001
0.000542521
0.000555006
0.000593539
0.000607352
0.000662713
0.000714966
0.000659653
0.000611618
0.000583589
0.000553966
0.000514245
0.000460479
0.000378161
0.000160918
0.000208473
0.000369491
0.000470338
0.00053563
0.000579393
0.000612357
0.000641421
0.000666446
0.000639987
0.000467382
0.000501466
0.000677855
0.000702522
0.000667456
0.000635349
0.000601888
0.000558523
0.000492639
0.000386651
0.000200131
0.000279866
0.000362163
0.000453456
0.000529874
0.000586697
0.000623821
0.000646216
0.000659878
0.000590454
0.000424985
0.000469516
0.000610074
0.000685013
0.000668542
0.000644944
0.000606932
0.000549177
0.000469677
0.000364663
0.00023828
0.000383426
0.000392119
0.000438418
0.000507836
0.000566449
0.000609494
0.000641048
0.000658798
0.000567517
0.00046513
0.000517067
0.000581793
0.000676512
0.000658813
0.000627283
0.000583926
0.000523332
0.000445333
0.000374552
0.000346115
0.000458571
0.000469164
0.000453665
0.000505383
0.000565554
0.000611394
0.000645093
0.000664164
0.000563801
0.000539672
0.000587616
0.000568503
0.000669752
0.000653441
0.000621621
0.000574973
0.000509227
0.000441864
0.000432527
0.000434713
0.000515418
0.000661411
0.000559071
0.000585928
0.000642109
0.000681677
0.000705084
0.000719745
0.000647598
0.00065535
0.000679689
0.000631572
0.000703102
0.000692758
0.000671083
0.000627961
0.000561035
0.000509139
0.000562193
0.000497211
0.00056409
0.000877356
0.000795764
0.0008197
0.000846505
0.00086156
0.000855214
0.000828809
0.000782211
0.000786003
0.000793365
0.000754844
0.000790642
0.000813928
0.000816793
0.000797388
0.000761685
0.00072539
0.000842005
0.000548527
0.000612989
0.000890592
0.00121928
0.00140006
0.00156062
0.00165736
0.0016487
0.00148439
0.00124558
0.00123346
0.0012572
0.00125585
0.00149614
0.00163891
0.00161276
0.00149426
0.00132231
0.00113423
0.000842908
0.00059782
0.000667526
0.000732974
0.000786861
0.000838183
0.000890869
0.00094207
0.000991593
0.00103994
0.00108994
0.00114412
0.00115063
0.00109168
0.00103891
0.000987784
0.000934832
0.000880445
0.000825266
0.000772398
0.00071865
0.000654108
0.000133588
0.000156251
0.000170828
0.000181095
0.000188853
0.000195491
0.000202037
0.00020844
0.000214533
0.00022965
0.000236812
0.000217976
0.000207151
0.000198348
0.000190342
0.00018222
0.000173249
0.000162633
0.000148299
0.000126893
0.00015763
0.00039309
0.000478471
0.000531008
0.000565623
0.000584265
0.00059258
0.000593539
0.000507896
0.000564248
0.000642509
0.000593549
0.000693974
0.000665902
0.00063011
0.000593667
0.000550838
0.000495861
0.000404585
0.000157673
0.000176572
0.000397086
0.000497871
0.000568997
0.000624452
0.000667699
0.00069285
0.000639987
0.000418346
0.000730184
0.000820627
0.000456553
0.000659919
0.000708931
0.000679204
0.000634648
0.000579831
0.000509
0.000404663
0.000169388
0.00025433
0.00035019
0.000467339
0.000557383
0.000621519
0.000664674
0.000683189
0.000590454
0.0004268
0.000986842
0.00108288
0.000468936
0.000601758
0.000690166
0.000671208
0.00062963
0.000567543
0.000479246
0.00035557
0.000205954
0.00037142
0.000359727
0.000414587
0.000508086
0.000590298
0.000651038
0.000678416
0.000567517
0.000500921
0.00127591
0.00137206
0.000542494
0.00058007
0.000685465
0.000660522
0.000604994
0.000527192
0.000428988
0.000343922
0.000330087
0.000448879
0.000435927
0.000411828
0.000476997
0.000567083
0.000642422
0.000680731
0.000563801
0.000597908
0.00154922
0.00163749
0.000630424
0.000570045
0.000683288
0.000650007
0.000580288
0.000488749
0.000405414
0.000401068
0.000424341
0.000506342
0.000600275
0.000504743
0.000541629
0.000626853
0.000697127
0.000734227
0.000647598
0.00072823
0.00174734
0.00181819
0.000740198
0.000631642
0.000715456
0.000682609
0.000614412
0.000522644
0.000462373
0.000516316
0.000488177
0.000555208
0.000841695
0.000725711
0.000752939
0.000794382
0.000820415
0.000818386
0.000782211
0.000877759
0.00184322
0.00190277
0.00087605
0.000747032
0.000772812
0.000771373
0.000742922
0.000696511
0.000661829
0.000799098
0.000539977
0.000604522
0.000840513
0.00112145
0.0012957
0.00142925
0.00147079
0.00139027
0.00124558
0.00133517
0.00181638
0.00186708
0.00134123
0.00124846
0.00138505
0.00143978
0.00137414
0.00122554
0.00104328
0.000796307
0.000589895
0.000664047
0.000730754
0.00078598
0.00084056
0.000898049
0.000956651
0.00101879
0.00108994
0.00117638
0.00127072
0.00128186
0.00117722
0.00108718
0.00101393
0.000949279
0.000887979
0.000828142
0.000771823
0.000716618
0.000650679
0.000128843
0.000150521
0.000165582
0.000177466
0.000187493
0.000196773
0.000206801
0.000217986
0.00022965
0.000239738
0.000245497
0.00023489
0.000223347
0.000209091
0.000196592
0.000185883
0.000175159
0.000163291
0.000148882
0.000127426
0.000158949
0.000423542
0.0005257
0.000589867
0.000637456
0.00067365
0.000695713
0.000607352
0.000564248
0.000366325
0.000403486
0.000646921
0.000672488
0.000758469
0.000722373
0.000673742
0.000617098
0.000544078
0.00043769
0.000157238
0.000181722
0.000453273
0.000567401
0.000657373
0.000722901
0.000763843
0.000734873
0.000467382
0.000730184
0.000542242
0.000595731
0.000776178
0.000482627
0.00074398
0.000770201
0.00072794
0.000660008
0.000575548
0.000471351
0.000173739
0.000239292
0.000391539
0.000539962
0.000637522
0.000709489
0.000748686
0.00067833
0.000424985
0.000986842
0.000731655
0.000797107
0.00100737
0.000437939
0.000681878
0.000744459
0.000707525
0.000641387
0.000553716
0.000424556
0.000188232
0.00036226
0.00035312
0.000429544
0.000561525
0.000668282
0.000728658
0.000647009
0.00046513
0.00127591
0.000941162
0.00101726
0.00127106
0.000471967
0.000662214
0.000735968
0.000684823
0.000591891
0.000464651
0.000348063
0.000321051
0.000440332
0.000421187
0.000399935
0.000487902
0.000621116
0.000713403
0.000644554
0.000539672
0.00154922
0.00116646
0.00125284
0.00151994
0.000531402
0.000658673
0.000724178
0.000643578
0.00051449
0.000403253
0.000391211
0.000415317
0.000496819
0.000559018
0.000475995
0.000524815
0.000649948
0.000749556
0.000717894
0.00065535
0.00174734
0.00138634
0.0014825
0.00169705
0.000627582
0.000708515
0.000738765
0.000646158
0.000518197
0.00044658
0.000494056
0.000478469
0.000543962
0.000816116
0.000670901
0.000690152
0.000744587
0.000785234
0.000779853
0.000786003
0.00184322
0.00155698
0.00166334
0.00178242
0.000749432
0.000740078
0.000738964
0.000698447
0.000642918
0.00061852
0.000764851
0.000528543
0.000591034
0.000785814
0.00100965
0.00115552
0.00124312
0.00121561
0.00111717
0.00123346
0.00181638
0.00167492
0.00178267
0.00178912
0.00121753
0.00109802
0.00117859
0.00119062
0.00109151
0.000934178
0.000739362
0.000576131
0.000652869
0.000718947
0.000772956
0.000829998
0.000892131
0.000959338
0.00103924
0.00114412
0.00127072
0.00130093
0.0013286
0.0012672
0.00113698
0.00103111
0.000949857
0.000880839
0.000816824
0.000757949
0.000703987
0.000638773
0.000127675
0.000149337
0.000165398
0.000178872
0.000190576
0.000201473
0.000213227
0.000226396
0.000236812
0.000245497
0.000249513
0.000239476
0.000227104
0.000212142
0.000199474
0.000188665
0.000177775
0.000165562
0.000150736
0.00012855
0.000159477
0.000432886
0.000547781
0.000624713
0.000684062
0.000732269
0.000761522
0.000662713
0.000642509
0.000403486
0.000419989
0.000656615
0.000679276
0.000775998
0.000748086
0.000699767
0.000638497
0.000560064
0.000451176
0.000157272
0.000180978
0.000476602
0.000607906
0.000711616
0.000786457
0.000823689
0.000769492
0.000501466
0.000820627
0.000595731
0.000620909
0.000806799
0.000511584
0.000772687
0.000821905
0.000786322
0.000708314
0.00061759
0.00050216
0.000177115
0.000233446
0.000423281
0.000579707
0.000685895
0.000767245
0.000797971
0.000691641
0.000469516
0.00108288
0.000797107
0.000834402
0.00105572
0.000484639
0.000704472
0.000807189
0.00078354
0.000705726
0.000615207
0.000493613
0.000194309
0.000358774
0.000351468
0.000438695
0.000588893
0.00070516
0.00075898
0.000649608
0.000517067
0.00137206
0.00101726
0.0010707
0.00134348
0.00054179
0.000676032
0.000789199
0.000747891
0.00064219
0.000491624
0.000360655
0.00032396
0.000439439
0.000416672
0.000397849
0.000491989
0.000633306
0.000723528
0.000640302
0.000587616
0.00163749
0.00125284
0.00132438
0.00161222
0.000617968
0.000662906
0.000753577
0.00067429
0.000529679
0.000408372
0.000394457
0.000418087
0.000497213
0.000553689
0.000472904
0.000521833
0.00064098
0.000735685
0.000701136
0.000679689
0.00181819
0.0014825
0.00157035
0.00180148
0.000714562
0.000708929
0.000744715
0.00065039
0.000521599
0.000450077
0.000494783
0.000482087
0.000545192
0.000816656
0.000673571
0.000691017
0.000733732
0.000763176
0.000756736
0.000793365
0.00190277
0.00166334
0.00176207
0.00189778
0.000819165
0.000736515
0.000728382
0.000694616
0.00064906
0.000627385
0.00076789
0.000532863
0.000592977
0.000793145
0.00102778
0.00117911
0.00126535
0.0012305
0.00112656
0.0012572
0.00186708
0.00178267
0.00188298
0.00186949
0.00127509
0.00111615
0.00117461
0.00120535
0.00112191
0.000965007
0.000750501
0.000581436
0.000654628
0.000722006
0.000777224
0.000834521
0.000896546
0.000963571
0.00104383
0.00115063
0.00128186
0.0013286
0.00135192
0.00128077
0.00114785
0.00104002
0.000957339
0.000888456
0.000825206
0.000766819
0.000711467
0.000644477
0.000128107
0.000149646
0.000165636
0.000177831
0.000187404
0.000195286
0.000202435
0.000210169
0.000217976
0.00023489
0.000239476
0.000222908
0.000212432
0.000203744
0.000196522
0.000189209
0.000180553
0.000169258
0.000153537
0.000129754
0.000157863
0.000402476
0.000501496
0.000567492
0.000621197
0.000666339
0.000703886
0.000714966
0.000593549
0.000646921
0.000656615
0.000599046
0.000710403
0.000705797
0.000674178
0.000632998
0.000582366
0.000516695
0.000424212
0.000157082
0.000176829
0.000410181
0.000526693
0.000614691
0.000685097
0.0007373
0.000757897
0.000677855
0.000456553
0.000776178
0.000806799
0.000476164
0.000676422
0.000754745
0.000738966
0.000693598
0.000629356
0.000546514
0.000441079
0.000176696
0.000242856
0.000352861
0.000486331
0.000588959
0.00066437
0.000715135
0.000727586
0.000610074
0.000468936
0.00100737
0.00105572
0.000507913
0.000623661
0.000741737
0.000737261
0.000692932
0.000625616
0.000534939
0.000394299
0.000211915
0.000365317
0.000349153
0.00040934
0.000515807
0.000611773
0.000679933
0.000703492
0.000581792
0.000542494
0.00127106
0.00134348
0.000609109
0.000602864
0.000728842
0.00071502
0.000650456
0.000554222
0.000436408
0.000345743
0.00033775
0.000447838
0.00042414
0.000402972
0.000470666
0.000566904
0.000647309
0.000685236
0.000568503
0.000630424
0.00151994
0.00161222
0.000715187
0.000585722
0.000699384
0.000667204
0.000585192
0.000482161
0.000399017
0.000400713
0.000429349
0.000507715
0.000591901
0.000498677
0.000531839
0.000610553
0.000676548
0.000712339
0.000631572
0.000740198
0.00169705
0.00180148
0.000833394
0.000646679
0.000712481
0.000674749
0.000604694
0.000517679
0.000464939
0.000520604
0.000494052
0.000557839
0.00084949
0.000727046
0.000744923
0.000772817
0.0007888
0.000782877
0.000754844
0.00087605
0.00178242
0.00189778
0.000957039
0.000753938
0.000761168
0.00076377
0.000745221
0.000711046
0.000683556
0.00080741
0.000546689
0.00060757
0.000858256
0.00115108
0.00132266
0.00145512
0.00149761
0.00141399
0.00125585
0.00134123
0.00178912
0.00186949
0.00139776
0.00125125
0.00135181
0.00144621
0.00142964
0.0013013
0.00111636
0.000823672
0.000597686
0.00066529
0.000733003
0.00078905
0.000843635
0.000900954
0.000959352
0.00102113
0.00109168
0.00117722
0.0012672
0.00128077
0.00118274
0.00109255
0.0010183
0.000954764
0.000895849
0.000838005
0.000782381
0.000725517
0.000657366
0.000130924
0.000155671
0.00017305
0.000184744
0.000192246
0.000196761
0.000199511
0.000202275
0.000207151
0.000223347
0.000227104
0.000212432
0.000205549
0.000202327
0.00019945
0.000195206
0.000188375
0.000177482
0.000159818
0.000131775
0.000159097
0.000358497
0.000443152
0.00050518
0.000554112
0.000593408
0.000626776
0.000659653
0.000693974
0.000672488
0.000679276
0.000710403
0.000673609
0.00063503
0.00060217
0.000565696
0.0005204
0.000461754
0.000373949
0.000157142
0.000192335
0.000371319
0.000480303
0.000553198
0.000605386
0.00064582
0.000679585
0.000702522
0.000659919
0.000482627
0.000511584
0.000676422
0.000710555
0.000683019
0.000648341
0.00060892
0.000558962
0.000490763
0.000389509
0.00017877
0.000269168
0.000357246
0.000459514
0.000547351
0.000612418
0.000653749
0.000677307
0.000685013
0.000601758
0.000437939
0.000484639
0.000623661
0.000699631
0.000685446
0.000659033
0.000622748
0.000564477
0.000476728
0.000361999
0.00024737
0.000376345
0.000380714
0.000433114
0.000510854
0.000578833
0.000629325
0.000663465