/*--------------------------------*- C++ -*----------------------------------*\
  =========                 |
  \\      /  F ield         | OpenFOAM: The Open Source CFD Toolbox
   \\    /   O peration     | Website:  https://openfoam.org
    \\  /    A nd           | Version:  9
     \\/     M anipulation  |
\*---------------------------------------------------------------------------*/
FoamFile
{
    format      ascii;
    class       volScalarField;
    location    "1200";
    object      nut;
}
// * * * * * * * * * * * * * * * * * * * * * * * * * * * * * * * * * * * * * //

dimensions      [0 2 -1 0 0 0 0];

internalField   nonuniform List<scalar> 
4000
(
0.00035484
0.000329803
0.000284612
0.000228893
0.000171149
0.000147148
0.000130496
0.000121292
0.000115242
0.000111149
0.000110141
0.000110514
0.000112944
0.000119404
0.000133803
0.000145236
0.000180311
0.000242856
0.000301935
0.000332305
0.000390047
0.000373708
0.000347084
0.000307404
0.000271072
0.000221134
0.000151832
0.000139742
0.000136012
0.000137151
0.000137607
0.000136215
0.000137281
0.000142306
0.000200145
0.000265725
0.000303977
0.000339872
0.000364729
0.000377376
0.000406918
0.000395046
0.000369225
0.000336965
0.000299031
0.000261728
0.000225679
0.000179905
0.000152375
0.00015682
0.000156178
0.000152598
0.000165978
0.000219007
0.000256198
0.000294684
0.000334676
0.000365637
0.000388031
0.00039632
0.000416595
0.000410124
0.000389317
0.000359372
0.000325346
0.00029189
0.000264462
0.000241538
0.000219498
0.000206518
0.000201472
0.000209594
0.000232304
0.000256696
0.000286717
0.000322721
0.000356959
0.00038537
0.000403284
0.000406783
0.000423367
0.000422945
0.000410837
0.00039327
0.000374592
0.000357597
0.000343246
0.000330942
0.000320579
0.000312672
0.000309663
0.00031531
0.000324829
0.000336735
0.000351464
0.000369549
0.00038871
0.000405327
0.000415559
0.000413893
0.000429085
0.00043539
0.000433271
0.000427226
0.000419995
0.000412279
0.000404174
0.000395822
0.000387456
0.000380078
0.000379307
0.000386557
0.000393848
0.00040099
0.00040808
0.00041505
0.00042138
0.000426212
0.000426917
0.000419751
0.000434787
0.000447815
0.000454315
0.000456788
0.000457017
0.000455112
0.000451057
0.00044491
0.000437076
0.000428856
0.000429196
0.000438261
0.000444977
0.000449502
0.000451893
0.000452173
0.000450377
0.000446421
0.000438697
0.000425536
0.000441146
0.000460874
0.000474788
0.000483821
0.000489561
0.000492024
0.000491204
0.000486945
0.000479279
0.00046957
0.000470631
0.000481549
0.000487982
0.000490259
0.00048899
0.000484601
0.00047704
0.000466419
0.000451456
0.00043195
0.000449382
0.000476936
0.000497784
0.000512518
0.000522911
0.00052913
0.000531392
0.000529178
0.000521869
0.000510224
0.000511901
0.000524499
0.000530364
0.000530317
0.000525799
0.000517614
0.000505358
0.000489044
0.000467195
0.000440208
0.000461006
0.000495501
0.000522571
0.000541975
0.000556574
0.000567226
0.000573978
0.000576276
0.000573274
0.000563623
0.00056514
0.000574345
0.000575912
0.000571702
0.000562992
0.000550514
0.000534308
0.000513648
0.000485876
0.000451912
0.000329803
0.000315508
0.000270666
0.000222271
0.000185509
0.000173014
0.000159329
0.000143951
0.000134793
0.00012985
0.00012883
0.000129096
0.000134294
0.000147883
0.000166118
0.00016827
0.000180409
0.000222379
0.000266983
0.000292787
0.000373708
0.000501343
0.000487862
0.000417964
0.000373433
0.000343498
0.000313715
0.000315266
0.000339183
0.000365459
0.000373524
0.000347285
0.000309338
0.000301688
0.000335936
0.000383268
0.000417245
0.000470506
0.000490688
0.000356892
0.000395046
0.000531304
0.000542813
0.000492192
0.000421053
0.000372032
0.00034075
0.000318857
0.000342671
0.000391158
0.000411291
0.000353971
0.000320434
0.000344337
0.000371843
0.000417777
0.000483432
0.000532172
0.000517969
0.000379507
0.000410124
0.000552921
0.000573189
0.000526467
0.000447954
0.000386024
0.000343774
0.000312561
0.000302225
0.00033791
0.000365304
0.00030453
0.000308316
0.000341055
0.000386002
0.000452142
0.000533466
0.000569663
0.000541212
0.000395709
0.000422945
0.000582223
0.000614233
0.000578837
0.000502998
0.000426153
0.000377581
0.000338439
0.00031048
0.000304777
0.00030335
0.000301353
0.000328594
0.000370938
0.00042613
0.000510051
0.000582881
0.000606683
0.000567888
0.000409748
0.00043539
0.000610214
0.000654505
0.000642899
0.00059405
0.000522549
0.000449824
0.000404961
0.000376271
0.000363548
0.00035965
0.000366097
0.000396291
0.000444718
0.000520998
0.000602372
0.000643024
0.00064335
0.000592848
0.000423524
0.000447815
0.000632089
0.00068518
0.000703473
0.000702872
0.000679871
0.000633584
0.000570929
0.000518156
0.000482543
0.000477943
0.000510927
0.000566314
0.000631484
0.000683172
0.000703775
0.000698262
0.000671439
0.000611485
0.000436938
0.000460874
0.000644943
0.000702156
0.000746148
0.00077969
0.000791666
0.000782226
0.000757371
0.000726586
0.000704504
0.00070497
0.000733315
0.000765122
0.000787762
0.000793449
0.000776517
0.000736447
0.000688025
0.000621903
0.000450498
0.000476936
0.000627182
0.000695272
0.000744974
0.000780538
0.000794667
0.000791966
0.000768837
0.000725605
0.000678383
0.000684711
0.000740921
0.000779916
0.000794195
0.000790841
0.000774063
0.000733844
0.000679337
0.000608547
0.000466692
0.000495501
0.000532005
0.000561691
0.000584293
0.000602611
0.000617239
0.000627753
0.00063279
0.000630875
0.00062068
0.00062332
0.000632814
0.000632831
0.000625304
0.000612348
0.000595554
0.000575438
0.000551664
0.000521605
0.000485947
0.000284612
0.000270666
0.00023775
0.000206177
0.000192146
0.000189077
0.000174071
0.000157727
0.000147368
0.000142843
0.000142686
0.000142891
0.000149287
0.000163703
0.00018297
0.000182684
0.000179028
0.000193009
0.000221927
0.000236114
0.000347084
0.000487862
0.000481285
0.000439234
0.000417883
0.000402823
0.000382052
0.000383574
0.000412856
0.000453608
0.000472664
0.000432727
0.000382385
0.00037273
0.000399144
0.000436298
0.000449426
0.000464715
0.000457035
0.000324654
0.000369225
0.000542813
0.000577322
0.000531172
0.000473645
0.000438782
0.000419721
0.000405884
0.000429644
0.000489646
0.000524601
0.000454517
0.000414483
0.000429363
0.000442002
0.00046937
0.000515507
0.000555388
0.000519065
0.000351712
0.000389317
0.000573189
0.000618014
0.000583632
0.000507347
0.000448441
0.000411472
0.000391348
0.000403327
0.000466003
0.000500304
0.000419717
0.000396576
0.000415644
0.000450696
0.000507626
0.000580456
0.000607949
0.000553158
0.000370823
0.000410837
0.000614233
0.000667447
0.000636803
0.000550173
0.000468873
0.000415552
0.000378396
0.000357826
0.000370734
0.000378631
0.000353296
0.000373817
0.000414661
0.000471094
0.000552265
0.000631988
0.000651343
0.000591373
0.000394106
0.000433271
0.000654505
0.000718698
0.000700146
0.000617616
0.000521164
0.000444418
0.000391578
0.000355465
0.000345199
0.000343398
0.000347821
0.000386051
0.000443983
0.00052457
0.000621629
0.000691396
0.000698167
0.000630466
0.000419036
0.000454315
0.00068518
0.000762444
0.000763005
0.00070335
0.000618257
0.000543998
0.000482584
0.000435688
0.000410872
0.000408205
0.000430452
0.000479866
0.000545513
0.000624196
0.000704752
0.000750324
0.000737334
0.00065839
0.000441808
0.000474788
0.000702156
0.000801917
0.000843308
0.00084223
0.000795441
0.000744275
0.000686927
0.000626454
0.00057914
0.000581445
0.000627606
0.000683384
0.000738566
0.000792361
0.000837406
0.000828164
0.000772509
0.000671717
0.000463107
0.000497784
0.000695272
0.000852513
0.000987794
0.00107177
0.00110356
0.00110139
0.00105258
0.00096813
0.000871616
0.000887269
0.000993709
0.00106823
0.00109959
0.00109488
0.00105888
0.000966251
0.000822128
0.000665917
0.000486198
0.000522571
0.000561691
0.000593485
0.000618577
0.000639803
0.00065768
0.000671599
0.000679325
0.000678567
0.000667322
0.000671004
0.000681214
0.000679496
0.000668698
0.000651909
0.000631557
0.000608335
0.000582195
0.000550343
0.000512231
0.000228893
0.000222271
0.000206177
0.000198172
0.000199733
0.000197396
0.00018187
0.000166517
0.000156226
0.000153095
0.00015431
0.000153411
0.000159376
0.000172273
0.000189113
0.000194611
0.000185687
0.000178732
0.00017872
0.000170469
0.000307404
0.000417964
0.000439234
0.000437917
0.000442358
0.000435847
0.000423249
0.000427986
0.000458188
0.000508976
0.000539045
0.000489674
0.000435908
0.000420347
0.000433405
0.0004606
0.000464251
0.000449914
0.000409803
0.000290541
0.000336965
0.000492192
0.000531172
0.000512864
0.0004895
0.000480774
0.000472449
0.000462228
0.000491023
0.00056729
0.0006141
0.000530457
0.000477389
0.000486737
0.000491919
0.000491112
0.000504981
0.000510903
0.000463622
0.000318734
0.000359372
0.000526467
0.000583632
0.000565784
0.000519919
0.000483911
0.000462585
0.000457298
0.000481039
0.000550201
0.000591949
0.000508289
0.000472381
0.000474483
0.000489821
0.000518179
0.000555354
0.000562567
0.000499899
0.000336967
0.00039327
0.000578837
0.000636803
0.000622482
0.000560947
0.000500514
0.000460555
0.000438308
0.000438522
0.000484643
0.000508264
0.000445185
0.000440912
0.000464533
0.000502194
0.000555073
0.000603602
0.000606619
0.00054196
0.000373121
0.000427226
0.000642899
0.000700146
0.000686524
0.000619293
0.000539561
0.000478111
0.000436215
0.000411712
0.000421124
0.000424652
0.000406248
0.000432479
0.000478637
0.000540061
0.000611867
0.000662701
0.000662588
0.000606194
0.000411221
0.000456788
0.000703473
0.000763005
0.000756428
0.000699551
0.000620197
0.000555061
0.000505764
0.000467524
0.00045301
0.000450436
0.000459073
0.000498235
0.000552426
0.000619258
0.000688579
0.000727975
0.000721189
0.000671869
0.000443236
0.000483821
0.000746148
0.000843308
0.000891472
0.000865543
0.000808146
0.000756914
0.000707586
0.000649955
0.000595755
0.000596501
0.000643036
0.000693852
0.000742672
0.000795106
0.000842906
0.000852836
0.000800298
0.000716875
0.000471233
0.000512518
0.000744974
0.000987794
0.001196
0.00123051
0.00123793
0.00123912
0.00120865
0.00111856
0.000997541
0.00101791
0.00114183
0.00121159
0.00122289
0.00121065
0.00119135
0.00115224
0.000946459
0.000708988
0.000499915
0.000541975
0.000584293
0.000618577
0.000646504
0.000671451
0.000693666
0.000711931
0.000723647
0.000725703
0.000716584
0.000720486
0.000728354
0.000723458
0.000708482
0.000687026
0.000661988
0.000634879
0.000606165
0.000572173
0.000530986
0.000171149
0.000185509
0.000192146
0.000199733
0.000204884
0.000197846
0.000184652
0.000172052
0.000162919
0.000161746
0.000164407
0.00016167
0.000165847
0.000176129
0.000188529
0.000197962
0.000193246
0.000181573
0.000166087
0.000138913
0.000271072
0.000373433
0.000417883
0.000442358
0.000454233
0.000452264
0.000449717
0.000455852
0.000488056
0.000550039
0.000590256
0.000536014
0.00047813
0.000456871
0.000455564
0.000464786
0.000467688
0.000443998
0.000387117
0.000257159
0.000299032
0.000421053
0.000473645
0.0004895
0.000500426
0.000509207
0.000502492
0.000499995
0.000538879
0.000623837
0.000678685
0.000591215
0.000522426
0.000520402
0.000527762
0.000511645
0.000493732
0.000471048
0.000411802
0.000283726
0.000325346
0.000447954
0.000507347
0.000519919
0.00051119
0.000502406
0.00049878
0.000506337
0.000536389
0.000612311
0.000662157
0.000573371
0.000528535
0.000519039
0.000516043
0.000516511
0.000516946
0.000496417
0.000428055
0.000299714
0.000374592
0.000502998
0.000550173
0.000560947
0.000538983
0.000511126
0.000492983
0.000488894
0.000509477
0.000576784
0.000608613
0.000528011
0.000499582
0.000503254
0.000517286
0.000536488
0.000546262
0.000522427
0.00046118
0.00035152
0.000419995
0.00059405
0.000617616
0.000619293
0.000588654
0.000544806
0.000509212
0.00048815
0.000489467
0.000536105
0.000546626
0.000489312
0.000487468
0.000511463
0.000544683
0.000578098
0.00059123
0.000572539
0.00054463
0.000402572
0.000457017
0.000702872
0.00070335
0.000699551
0.000670825
0.000624561
0.000583413
0.000554256
0.000541086
0.000561021
0.000553279
0.000527016
0.000542948
0.000576983
0.00061712
0.00065091
0.000659571
0.000650011
0.000662194
0.000442685
0.000489561
0.00077969
0.00084223
0.000865543
0.000844521
0.000804223
0.000766981
0.000730723
0.000685728
0.000642742
0.000633372
0.000667113
0.000707972
0.000744458
0.000781058
0.000810357
0.000812576
0.000782415
0.000755703
0.00047628
0.000522911
0.000780538
0.00107177
0.00123051
0.00129756
0.00134479
0.00137213
0.00134727
0.00123385
0.00107317
0.00109236
0.00125619
0.00134554
0.00134784
0.00130609
0.00124534
0.00116217
0.00102089
0.000739893
0.00050962
0.000556574
0.000602611
0.000639803
0.000671451
0.000701967
0.000729612
0.000752873
0.00076915
0.000775356
0.000770247
0.000774055
0.000777859
0.000768761
0.000749174
0.000722634
0.000692007
0.000659066
0.000626733
0.000590036
0.000545148
0.000147148
0.000173014
0.000189077
0.000197396
0.000197846
0.000192422
0.000184418
0.00017589
0.000168646
0.000169752
0.000173808
0.00016847
0.000169742
0.000176325
0.000183562
0.000189192
0.00018961
0.000181214
0.000161882
0.000128535
0.000221134
0.000343498
0.000402823
0.000435847
0.000452264
0.000459397
0.000460509
0.000465946
0.000504139
0.000581268
0.000631852
0.000574966
0.000512037
0.000486045
0.000472642
0.000462484
0.000448595
0.000419364
0.000354628
0.000201787
0.000261728
0.000372032
0.000438782
0.000480774
0.000509207
0.000519362
0.000516937
0.000528441
0.000576201
0.000659169
0.000710814
0.000636265
0.00055732
0.000538851
0.000540865
0.000529755
0.000495446
0.000447497
0.000374534
0.000248172
0.00029189
0.000386024
0.000448441
0.000483911
0.000502406
0.00051411
0.000524633
0.000538376
0.000573635
0.000646141
0.000688676
0.000617184
0.000564205
0.000549838
0.000535262
0.000517686
0.000492723
0.000450602
0.000378
0.000266141
0.000357597
0.000426153
0.000468873
0.000500514
0.000511126
0.000512086
0.000514446
0.000526045
0.000561901
0.000628895
0.000655065
0.000586839
0.00054316
0.000530569
0.000525213
0.000518472
0.000499878
0.000458646
0.000403562
0.000332348
0.000412279
0.000522549
0.000521164
0.000539561
0.000544806
0.000536361
0.000527082
0.000527715
0.000554495
0.00061576
0.000624499
0.000558712
0.000531086
0.00053289
0.000540452
0.00054128
0.000522604
0.000485777
0.00046572
0.000393524
0.000455112
0.000679871
0.000618257
0.000620197
0.000624561
0.000613457
0.000597433
0.000588409
0.000601744
0.000647
0.000635026
0.000583981
0.000575943
0.000590084
0.000605181
0.000606773
0.000586511
0.000568263
0.000619177
0.000440051
0.000492024
0.000791666
0.000795441
0.000808146
0.000804223
0.000788588
0.000769131
0.000743719
0.0007082
0.000677829
0.000658788
0.000680909
0.000715221
0.00074056
0.000759145
0.000767446
0.000757497
0.000735908
0.000764498
0.000478389
0.00052913
0.000794667
0.00110356
0.00123793
0.00134479
0.00142679
0.00146965
0.00143079
0.00126973
0.00104943
0.00106228
0.00129288
0.00143092
0.00144405
0.00138367
0.00128754
0.00116933
0.00104713
0.000752243
0.000515575
0.000567226
0.000617239
0.00065768
0.000693666
0.000729612
0.000762655
0.000791385
0.000813375
0.000825975
0.0008283
0.000831948
0.000828301
0.000812999
0.000787778
0.000755768
0.000719743
0.00068146
0.000644615
0.000604542
0.000555557
0.000130496
0.000159329
0.000174071
0.00018187
0.000184652
0.000184418
0.000182195
0.000178303
0.000174293
0.000178403
0.000183948
0.000174637
0.000172114
0.000174102
0.000175659
0.000175503
0.000172077
0.000163961
0.00014823
0.000116217
0.000151832
0.000313715
0.000382052
0.000423249
0.000449717
0.000460509
0.00046072
0.000468118
0.000511312
0.000600305
0.000657093
0.000607363
0.000540829
0.000507193
0.000488891
0.000465461
0.000436044
0.00039433
0.000327685
0.000143505
0.000225679
0.00034075
0.000419721
0.000472449
0.000502492
0.000516937
0.000529635
0.000553523
0.000597904
0.000634169
0.000664045
0.00065404
0.000586459
0.000554336
0.000540455
0.000526279
0.000495906
0.00044011
0.000354082
0.000215282
0.000264462
0.000343774
0.000411472
0.000462585
0.00049878
0.000524633
0.000541737
0.000557705
0.000589614
0.000585422
0.000596909
0.000627931
0.000584537
0.000566136
0.000548047
0.00051969
0.000480085
0.00042354
0.000343264
0.000235123
0.000343246
0.000377581
0.000415552
0.000460555
0.000492983
0.000514446
0.000531578
0.000553279
0.000585531
0.000558425
0.000560668
0.000607173
0.000572626
0.000550099
0.000531432
0.000507145
0.000470123
0.000416619
0.000361472
0.000315572
0.000404174
0.000449824
0.000444418
0.000478111
0.000509212
0.000527082
0.00053884
0.0005568
0.00058756
0.000556335
0.000552664
0.000591448
0.000562737
0.000547226
0.000535177
0.000513388
0.000474281
0.000427088
0.000414477
0.00038445
0.000451057
0.000633584
0.000543998
0.000555061
0.000583413
0.000597433
0.000600839
0.000608613
0.000633768
0.000619669
0.000605203
0.000614874
0.000595584
0.000593083
0.000589808
0.000569857
0.000529466
0.000497311
0.000549042
0.000435473
0.000491204
0.000782226
0.000744275
0.000756914
0.000766981
0.000769131
0.000760434
0.00073824
0.000706448
0.000673184
0.000653229
0.000675796
0.000707091
0.000728213
0.000735293
0.000728479
0.000707992
0.000682542
0.000752891
0.000477522
0.000531392
0.000791966
0.00110139
0.00123912
0.00137213
0.00146965
0.00150399
0.00142332
0.00120022
0.000964453
0.00097256
0.0012207
0.00143227
0.00148575
0.00142704
0.00131382
0.00117043
0.00102571
0.00074862
0.000517891
0.000573978
0.000627753
0.000671599
0.000711931
0.000752873
0.000791385
0.000826366
0.000856157
0.000879657
0.000897328
0.000901277
0.000881671
0.000855817
0.000823067
0.000784825
0.00074341
0.000700224
0.000658612
0.000615033
0.000562207
0.000121292
0.000143951
0.000157727
0.000166517
0.000172052
0.00017589
0.000178303
0.000179317
0.000179818
0.000188053
0.000195309
0.00018131
0.000174498
0.000171564
0.000168068
0.00016314
0.000156137
0.00014625
0.000132045
0.000110722
0.000139742
0.000315266
0.000383574
0.000427986
0.000455852
0.000465946
0.000468118
0.000478889
0.000512138
0.000524062
0.000571835
0.000616924
0.000569196
0.000527748
0.000503562
0.000478002
0.000443727
0.000397334
0.000326304
0.000138851
0.000179905
0.000318857
0.000405884
0.000462228
0.000499995
0.000528441
0.000553523
0.000575118
0.000552285
0.000403333
0.000432748
0.000584966
0.000606253
0.000575991
0.000548283
0.000519406
0.000481983
0.000425128
0.000333664
0.000172705
0.000241538
0.000312561
0.000391348
0.000457298
0.000506337
0.000538376
0.000557705
0.000569495
0.000509582
0.000366776
0.000405208
0.000526514
0.000591188
0.000576972
0.000556606
0.0005238
0.000473955
0.000405345
0.000314716
0.000205644
0.000330942
0.000338439
0.000378396
0.000438308
0.000488894
0.000526045
0.000553279
0.000568599
0.000489816
0.000401449
0.000446274
0.000502136
0.000583887
0.000568611
0.000541398
0.000503977
0.00045168
0.000384362
0.000323275
0.000298737
0.000395822
0.000404961
0.000391578
0.000436215
0.00048815
0.000527715
0.0005568
0.000573261
0.000486634
0.000465809
0.000507191
0.000490692
0.000578083
0.000564005
0.000536542
0.000496279
0.000439533
0.000381392
0.000373336
0.000375229
0.00044491
0.000570929
0.000482584
0.000505764
0.000554256
0.000588409
0.000608613
0.000621267
0.000558991
0.000565684
0.000586693
0.000545158
0.000606901
0.000597974
0.000579265
0.000542044
0.000484276
0.000439484
0.000485284
0.000429194
0.000486945
0.000757371
0.000686927
0.000707586
0.000730723
0.000743719
0.00073824
0.000715446
0.000675221
0.000678498
0.000684853
0.000651597
0.000682499
0.000702601
0.000705075
0.000688325
0.000657506
0.000626179
0.000726853
0.00047351
0.000529178
0.000768837
0.00105258
0.00120865
0.00134727
0.00143079
0.00142332
0.00128148
0.00107533
0.00106489
0.00108538
0.0010842
0.00129163
0.00141487
0.00139228
0.00128998
0.00114153
0.000979165
0.00072767
0.000516082
0.000576276
0.00063279
0.000679325
0.000723647
0.00076915
0.000813375
0.000856157
0.000897924
0.000941131
0.000987935
0.00099355
0.000942622
0.000897026
0.000852859
0.000807119
0.000760144
0.000712489
0.000666833
0.00062042
0.00056469
0.000115242
0.000134793
0.000147368
0.000156226
0.000162919
0.000168646
0.000174293
0.000179818
0.000185074
0.000198119
0.000204298
0.000188045
0.000178705
0.00017111
0.000164204
0.000157197
0.000149457
0.000140299
0.000127933
0.000109467
0.000136012
0.000339183
0.000412856
0.000458188
0.000488056
0.000504139
0.000511312
0.000512138
0.000438242
0.000486881
0.000554419
0.000512158
0.00059881
0.000574586
0.000543703
0.000512258
0.000475302
0.000427865
0.000349105
0.000136051
0.000152375
0.000342671
0.000429644
0.000491023
0.000538879
0.000576201
0.000597904
0.000552285
0.000361017
0.000630134
0.00070819
0.000393989
0.000569488
0.000611783
0.000586129
0.000547678
0.000500372
0.000439248
0.000349209
0.000146176
0.000219498
0.000302225
0.000403327
0.000481039
0.000536389
0.000573635
0.000589614
0.000509582
0.000368343
0.0008517
0.00093459
0.000404707
0.000519337
0.000595636
0.000579274
0.00054339
0.000489806
0.000413603
0.000306867
0.000177744
0.000320579
0.00031048
0.000357826
0.000438522
0.000509477
0.000561901
0.000585531
0.000489816
0.000432339
0.00110126
0.00118425
0.00046822
0.000500649
0.000591614
0.000570086
0.000522161
0.000455012
0.000370254
0.000296838
0.000284902
0.000387456
0.000376271
0.000355465
0.000411712
0.000489467
0.000554495
0.00058756
0.000486634
0.000516076
0.00133725
0.00141344
0.000544141
0.000492023
0.000589767
0.000561042
0.000500865
0.000421855
0.000349929
0.000346182
0.000366276
0.000437076
0.000518156
0.000435688
0.000467524
0.000541086
0.000601744
0.000633768
0.000558991
0.000628594
0.00150834
0.0015695
0.000638924
0.000545218
0.000617565
0.000589213
0.000530347
0.000451137
0.000399115
0.000445683
0.000421396
0.000479279
0.000726586
0.000626454
0.000649955
0.000685728
0.0007082
0.000706448
0.000675221
0.000757708
0.00159124
0.00164264
0.000756233
0.000644854
0.000667107
0.000665866
0.000641307
0.000601245
0.00057131
0.000689813
0.000466129
0.000521869
0.000725605
0.00096813
0.00111856
0.00123385
0.00126973
0.00120022
0.00107533
0.00115271
0.00156831
0.00161207
0.00115794
0.00107781
0.00119572
0.00124295
0.00118628
0.00105799
0.000900645
0.000687441
0.000509241
0.000573274
0.000630875
0.000678567
0.000725703
0.000775356
0.000825975
0.000879657
0.000941131
0.00101582
0.00109735
0.00110695
0.00101653
0.000938734
0.000875447
0.000819603
0.000766655
0.000714976
0.00066634
0.000618667
0.000561731
0.000111149
0.00012985
0.000142843
0.000153095
0.000161746
0.000169752
0.000178403
0.000188052
0.000198119
0.000207154
0.000212132
0.000202641
0.000192679
0.000180379
0.000169596
0.000160357
0.000151106
0.000140867
0.000128437
0.000109926
0.000137151
0.000365459
0.000453608
0.000508976
0.000550039
0.000581268
0.000600305
0.000524062
0.000486881
0.000316431
0.00034853
0.000558229
0.000580273
0.000654461
0.000623315
0.000581352
0.000532476
0.000469469
0.00037767
0.000135676
0.00015682
0.000391158
0.000489646
0.00056729
0.000623837
0.000659169
0.000634169
0.000403333
0.000630134
0.000468329
0.000514521
0.000669832
0.000416491
0.000642029
0.000664657
0.000628187
0.000569564
0.000496677
0.000406759
0.000149931
0.000206518
0.00033791
0.000466003
0.000550201
0.000612311
0.000646141
0.000585422
0.000366776
0.0008517
0.000631888
0.000688404
0.000869423
0.000377956
0.000588483
0.000642493
0.000610617
0.000553537
0.000477873
0.000366404
0.00016245
0.000312672
0.000304777
0.000370734
0.000484643
0.000576784
0.000628895
0.000558425
0.000401449
0.00110126
0.000812811
0.000878515
0.00109707
0.000407348
0.000571547
0.000635203
0.00059106
0.000510852
0.000401033
0.000300411
0.000277102
0.000380078
0.000363548
0.000345199
0.000421124
0.000536105
0.00061576
0.000556335
0.000465809
0.00133725
0.00100738
0.00108195
0.00131197
0.00045867
0.000568521
0.00062506
0.000555492
0.000444073
0.000348062
0.000337673
0.000358487
0.000428856
0.000482543
0.000410872
0.00045301
0.000561021
0.000647
0.000619669
0.000565684
0.00150834
0.00119728
0.00128029
0.00146493
0.000541714
0.000611572
0.000637684
0.000557749
0.000447297
0.000385481
0.000426467
0.000413016
0.00046957
0.000704504
0.00057914
0.000595755
0.000642742
0.000677829
0.000673184
0.000678498
0.00159124
0.00134468
0.00143651
0.00153873
0.000646927
0.000638849
0.000637887
0.000602914
0.000554981
0.000533924
0.000660249
0.000456258
0.000510224
0.000678383
0.000871616
0.000997541
0.00107317
0.00104943
0.000964453
0.00106489
0.00156831
0.00144659
0.00153961
0.00154475
0.00105114
0.000947919
0.00101746
0.00102784
0.000942284
0.00080646
0.000638281
0.000497357
0.000563623
0.00062068
0.000667322
0.000716584
0.000770247
0.0008283
0.000897328
0.000987935
0.00109735
0.00112361
0.00114748
0.00109429
0.00098176
0.000890299
0.000820106
0.000760492
0.000705205
0.000654361
0.000607762
0.000551451
0.000110141
0.00012883
0.000142686
0.000154309
0.000164407
0.000173808
0.000183948
0.000195309
0.000204298
0.000212132
0.000215606
0.000206599
0.000195922
0.000183014
0.000172084
0.000162759
0.000153364
0.000142828
0.000130037
0.000110897
0.000137607
0.000373524
0.000472664
0.000539045
0.000590256
0.000631852
0.000657093
0.000571835
0.000554419
0.00034853
0.000362786
0.000566598
0.000586133
0.00066959
0.000645505
0.000603811
0.000550943
0.000483265
0.000389308
0.000135706
0.000156178
0.000411291
0.000524601
0.0006141
0.000678685
0.000710814
0.000664045
0.000432748
0.00070819
0.000514521
0.000536262
0.000696262
0.000441482
0.000666804
0.000709277
0.00067857
0.000611251
0.000532959
0.000433347
0.000152844
0.000201472
0.000365304
0.000500304
0.000591949
0.000662157
0.000688676
0.000596909
0.000405207
0.000934591
0.000688404
0.000720602
0.000911151
0.000418259
0.000607984
0.000696632
0.000676221
0.000609063
0.000530942
0.000426002
0.000167694
0.000309663
0.00030335
0.000378631
0.000508264
0.000608613
0.000655065
0.000560668
0.000446274
0.00118425
0.000878515
0.000924648
0.00115958
0.000467612
0.000583474
0.000681146
0.000645493
0.000554264
0.000424313
0.000311278
0.000279613
0.000379307
0.00035965
0.000343398
0.000424651
0.000546626
0.000624499
0.000552664
0.000507191
0.00141344
0.00108195
0.0011437
0.00139162
0.000533388
0.000572173
0.000650435
0.000582
0.000457182
0.00035248
0.000340475
0.000360877
0.000429196
0.000477943
0.000408205
0.000450436
0.000553279
0.000635026
0.000605203
0.000586693
0.0015695
0.00128029
0.00135613
0.00155507
0.000616793
0.000611929
0.000642819
0.000561401
0.000450233
0.0003885
0.000427095
0.000416139
0.000470631
0.00070497
0.000581445
0.000596501
0.000633372
0.000658788
0.000653229
0.000684853
0.00164264
0.00143651
0.00152173
0.00163833
0.000707122
0.000635773
0.000628752
0.000599606
0.000560283
0.000541576
0.000662872
0.000459988
0.000511901
0.000684711
0.000887269
0.00101791
0.00109236
0.00106228
0.00097256
0.00108538
0.00161207
0.00153961
0.0016262
0.00161414
0.00110083
0.00096357
0.00101403
0.00104056
0.000968522
0.000833075
0.000647896
0.000501936
0.00056514
0.00062332
0.000671004
0.000720486
0.000774055
0.000831948
0.000901278
0.00099355
0.00110695
0.00114748
0.00116758
0.00110599
0.000991133
0.000897982
0.000826561
0.000767065
0.00071244
0.000662017
0.000614218
0.000556374
0.000110514
0.000129096
0.000142891
0.000153411
0.00016167
0.00016847
0.000174637
0.00018131
0.000188045
0.000202641
0.000206599
0.000192302
0.000183264
0.000175768
0.000169538
0.000163228
0.000155761
0.000146017
0.000132454
0.000111936
0.000136215
0.000347285
0.000432727
0.000489674
0.000536014
0.000574966
0.000607363
0.000616924
0.000512158
0.000558229
0.000566598
0.000516906
0.000612993
0.000609019
0.000581734
0.000546201
0.000502511
0.000445844
0.000366042
0.000135542
0.000152598
0.000353971
0.000454517
0.000530457
0.000591215
0.000636265
0.00065404
0.000584966
0.000393989
0.000669832
0.000696262
0.000410916
0.000583733
0.000651323
0.000637705
0.000598553
0.000543113
0.000471623
0.000380636
0.000152483
0.000209594
0.00030453
0.000419717
0.000508289
0.000573371
0.000617183
0.00062793
0.000526514
0.000404707
0.000869423
0.000911151
0.000438347
0.000538241
0.000640144
0.00063628
0.000598022
0.000539925
0.000461667
0.00034029
0.000182889
0.00031531
0.000301353
0.000353296
0.000445185
0.000528011
0.000586839
0.000607173
0.000502136
0.00046822
0.00109707
0.00115958
0.000525715
0.000520323
0.000629053
0.000617122
0.000561397
0.00047834
0.000376657
0.000298409
0.000291516
0.000386557
0.000366097
0.000347821
0.000406248
0.000489312
0.000558712
0.000591448
0.000490692
0.000544141
0.00131197
0.00139162
0.000617301
0.000505553
0.000603658
0.000575883
0.000505097
0.000416169
0.000344407
0.000345875
0.000370598
0.000438261
0.000510927
0.000430452
0.000459073
0.000527016
0.000583981
0.000614874
0.000545157
0.000638924
0.00146493
0.00155507
0.000719367
0.000558196
0.000614995
0.000582427
0.000521958
0.000446851
0.00040133
0.000449384
0.000426467
0.000481549
0.000733315
0.000627607
0.000643036
0.000667113
0.000680909
0.000675796
0.000651597
0.000756233
0.00153873
0.00163833
0.000826143
0.000650814
0.000657055
0.000659302
0.000643291
0.000613792
0.000590065
0.000696988
0.000471923
0.000524499
0.000740921
0.000993709
0.00114183
0.00125619
0.00129288
0.0012207
0.0010842
0.00115794
0.00154475
0.00161414
0.00120675
0.00108022
0.00116702
0.0012485
0.00123419
0.00112339
0.000963741
0.000711064
0.000515965
0.000574345
0.000632814
0.000681214
0.000728354
0.000777859
0.000828301
0.000881671
0.000942622
0.00101653
0.00109429
0.00110599
0.00102128
0.000943358
0.000879218
0.000824332
0.000773446
0.000723488
0.000675452
0.000626348
0.000567502
0.000112944
0.000134294
0.000149287
0.000159376
0.000165847
0.000169742
0.000172114
0.000174498
0.000178705
0.000192679
0.000195922
0.000183264
0.000177325
0.000174546
0.000172064
0.000168403
0.00016251
0.000153112
0.000137872
0.00011368
0.000137281
0.000309338
0.000382385
0.000435908
0.00047813
0.000512037
0.000540829
0.000569196
0.00059881
0.000580273
0.000586133
0.000612993
0.000581245
0.000547957
0.000519602
0.000488129
0.000449043
0.000398437
0.000322672
0.000135594
0.000165978
0.000320434
0.000414483
0.000477389
0.000522426
0.00055732
0.000586458
0.000606253
0.000569488
0.000416491
0.000441482
0.000583733
0.000613188
0.000589425
0.000559498
0.000525478
0.000482364
0.00042351
0.000336131
0.000154272
0.000232304
0.000308316
0.000396576
0.000472381
0.000528535
0.000564205
0.000584537
0.000591188
0.000519337
0.000377956
0.000418259
0.000538241
0.000603805
0.000591562
0.000568766
0.000537449
0.00048716
0.00041143
0.000312416
0.000213489