/*--------------------------------*- C++ -*----------------------------------*\
  =========                 |
  \\      /  F ield         | OpenFOAM: The Open Source CFD Toolbox
   \\    /   O peration     | Website:  https://openfoam.org
    \\  /    A nd           | Version:  9
     \\/     M anipulation  |
\*---------------------------------------------------------------------------*/
FoamFile
{
    format      ascii;
    class       surfaceScalarField;
    location    "1200";
    object      phi;
}
// * * * * * * * * * * * * * * * * * * * * * * * * * * * * * * * * * * * * * //

dimensions      [1 0 -1 0 0 0 0];

internalField   nonuniform List<scalar> 
11200
(
0.00291878
-0.00583746
0.00291878
0.00354204
-0.00289767
0.00227458
0.00235831
-0.000166661
0.0013506
0.000597598
0.00114022
0.000620646
-0.00044657
0.000672667
0.000371504
-0.000689424
-0.000123012
0.000365863
-0.000433108
-0.000624281
0.000368024
-0.000245841
-0.00056187
0.00037466
-6.83062e-05
-0.000514377
0.000336892
0.000116258
-0.000420666
0.000236137
0.000286397
-0.000394888
0.000224783
0.000397917
-0.000373431
0.000261946
0.000472634
-0.000336178
0.000261487
0.000674334
-0.000418077
0.000216405
0.000597551
-0.00015237
0.000229147
-2.06038e-05
0.000418996
0.000199154
-0.00100514
0.000674058
0.000310534
-0.00209539
0.000288999
0.000801461
-0.00203041
-0.00172792
0.00166312
-0.00428526
0.00225497
0.00220249
-0.0102424
0.00220249
0.00379722
-0.00668591
0.00219354
0.00455317
-0.00289795
0.00197536
0.0041973
-0.000190504
0.00168657
0.0023899
0.00120803
0.00127202
0.000408017
0.00101445
0.000844477
-0.000595145
0.000126719
0.000252174
-0.000618137
-0.000494821
-4.40262e-05
-0.00030824
-0.00064276
-0.000181466
0.000119179
-0.000603612
-0.000244428
0.000522271
-0.000512312
-0.000285636
0.00081167
-0.000431287
-0.000231521
0.000954312
-0.000420796
-5.80083e-05
0.000312328
8.35879e-05
0.000140328
-0.0015305
0.00093497
0.000755532
-0.00374193
0.00131447
0.00131597
-0.00466574
-0.000288657
0.00188651
-0.00397778
-0.0027679
0.00236892
-0.00223384
-0.00609247
0.00262063
-0.00903655
0.00251746
0.00125789
-0.0127582
0.00125789
0.00216321
-0.00921656
0.00162535
0.00299725
-0.00545725
0.00172528
0.00344438
-0.00233343
0.0016958
0.00330564
-0.000186248
0.00153301
0.00246152
0.000565142
0.00129343
0.00118674
0.000431688
0.00096984
0.000152731
4.83747e-05
0.000490828
-0.000242041
-0.000176042
-7.19335e-05
-0.000129843
-0.000324827
-0.000390968
0.000158816
-0.000369564
-0.00043139
0.000181779
-0.000299706
-0.000154528
-0.000675241
2.28638e-05
0.000413373
-0.00214056
0.000565936
0.000982982
-0.00327738
0.000790438
0.00128135
-0.00351973
1.56416e-05
0.00154118
-0.00329135
-0.00228776
0.00177073
-0.00249237
-0.00552055
0.00195368
-0.00141798
-0.00905199
0.00188514
-0.0118974
0.00144293
0.00060442
-0.013967
0.00060442
0.000633516
-0.010542
0.00129634
0.000611624
-0.00703678
0.00160144
0.000726421
-0.00428488
0.00183666
0.000911095
-0.00233575
0.00196483
0.000904734
-0.0012611
0.00183259
0.00063186
-0.000857125
0.00156169
0.000145239
-0.000711989
0.001247
-0.000232458
-0.000661676
0.000863349
-0.000238188
-0.000694236
0.000375162
-0.000102783
-0.000713993
0.000209051
-0.000435977
-0.000690307
0.000723824
-0.00110284
-0.000581096
0.00127085
-0.00152554
-0.000605898
0.00159453
-0.001551
-0.0010044
0.00182029
-0.00127176
-0.00218469
0.0019211
-0.00106602
-0.00431285
0.00181935
-0.00104349
-0.00717356
0.00163049
-0.000850251
-0.0105755
0.00133027
-0.0133172
0.000569546
0.000120584
-0.0142082
0.000120584
-0.000455285
-0.011078
0.00111194
-0.000990464
-0.00804916
0.00154757
-0.00127413
-0.00582911
0.00182791
-0.00131809
-0.00430697
0.0020152
-0.00121062
-0.00337602
0.00200746
-0.00105823
-0.00285104
0.00184154
-0.00087398
-0.00255238
0.00165614
-0.000632933
-0.00238726
0.00148455
-0.000348957
-0.00230382
0.00132562
-4.03162e-05
-0.00230003
0.00127741
0.000147009
-0.0023257
0.00144809
0.000327497
-0.0024369
0.00167533
0.000524263
-0.0027041
0.00190144
0.000703022
-0.00324581
0.00206266
0.000743018
-0.00425076
0.00202608
0.000525506
-0.0058792
0.00178388
2.43737e-06
-0.00814668
0.0014962
-0.000458354
-0.0111187
0.00100402
-0.0137117
-6.38842e-05
-0.000233038
-0.0137421
-0.000233038
-0.0011874
-0.0110717
0.000948087
-0.00195694
-0.008658
0.0013784
-0.0023603
-0.00700108
0.00157535
-0.00240189
-0.00589665
0.00163129
-0.00218955
-0.00521206
0.00162371
-0.00181202
-0.00477622
0.00154766
-0.00133873
-0.00448126
0.00145559
-0.000836764
-0.00429032
0.00140111
-0.000343138
-0.00416595
0.00136851
0.000190655
-0.00419256
0.00135875
0.000728626
-0.00427025
0.00140658
0.00124768
-0.00444838
0.00149243
0.00167349
-0.00474092
0.00161103
0.00192433
-0.00519039
0.00169375
0.00191443
-0.00590049
0.00165964
0.00153005
-0.00703773
0.00154293
0.000778016
-0.00870128
0.00130665
-7.13033e-05
-0.0110535
0.000784174
-0.0133462
-0.000436734
-0.000553565
-0.0126349
-0.000553565
-0.00179195
-0.0105074
0.000674033
-0.00273135
-0.0087273
0.00100873
-0.0031913
-0.00762031
0.00107918
-0.00319046
-0.00690322
0.00100574
-0.00285101
-0.006463
0.000911501
-0.00228216
-0.00618042
0.000835362
-0.00159931
-0.00597949
0.000815388
-0.000911209
-0.00582763
0.000849217
-0.000283219
-0.00570608
0.000912148
0.000379627
-0.005768
0.000912596
0.00112743
-0.00587687
0.000858826
0.00185791
-0.00602642
0.00084756
0.00245294
-0.00622436
0.0008884
0.00280891
-0.00650088
0.000954533
0.00281713
-0.00693187
0.00102317
0.00235639
-0.00764023
0.00106324
0.00142607
-0.0087226
0.00095165
0.000286178
-0.0104278
0.000514143
-0.0123153
-0.000744743
-0.00102194
-0.010591
-0.00102194
-0.00252529
-0.00896103
-4.29773e-05
-0.00360206
-0.00781147
0.000160943
-0.00408112
-0.00719661
5.53692e-05
-0.00400368
-0.00683542
-0.000145225
-0.00353091
-0.00663839
-0.000297381
-0.00277513
-0.00651265
-0.000423539
-0.00186901
-0.00640182
-0.000483781
-0.00097188
-0.0062786
-0.00044616
-0.000221343
-0.00613614
-0.000320474
0.000554827
-0.00621599
-0.000328179
0.00150943
-0.00636409
-0.000467387
0.00245106
-0.00648329
-0.00048475
0.0032184
-0.00658375
-0.000407948
0.0036914
-0.00669298
-0.000280906
0.00376667
-0.00686506
-0.00014207
0.00328382
-0.00719835
4.09725e-05
0.00221092
-0.00777906
0.000129375
0.00078938
-0.0088664
-0.000139838
-0.0103517
-0.00117418
-0.00186529
-0.00686043
-0.00186528
-0.00366459
-0.00591561
-0.00124611
-0.00478667
-0.00543566
-0.00125372
-0.005223
-0.00530858
-0.0014517
-0.00505826
-0.00531073
-0.00168943
-0.00443892
-0.0053823
-0.00187541
-0.00347843
-0.00545682
-0.00201633
-0.00230404
-0.00549216
-0.00208405
-0.00111118
-0.00545399
-0.00201747
-0.000155085
-0.00533046
-0.00176177
0.000836674
-0.0053985
-0.00180925
0.00206275
-0.00551508
-0.00207508
0.00324432
-0.00554255
-0.00212232
0.00419439
-0.00549462
-0.0020392
0.00479642
-0.00540483
-0.00189018
0.00495271
-0.00531307
-0.00170829
0.00451173
-0.00529328
-0.00146409
0.00339912
-0.00540061
-0.00126585
0.0016666
-0.00584917
-0.0012847
-0.006713
-0.00197213
-0.00343021
-0.00343021
-0.00563373
-0.00371208
-0.00671914
-0.00435025
-0.00703941
-0.00498831
-0.00674349
-0.00560666
-0.00594515
-0.00618065
-0.00473492
-0.00666705
-0.00321227
-0.00701483
-0.00151655
-0.00714971
-1.02483e-05
-0.00683677
0.00146838
-0.00687714
0.00313065
-0.00717736
0.0046157
-0.00702761
0.005782
-0.00666093
0.00654057
-0.00616342
0.00680915
-0.00558166
0.00647338
-0.00495752
0.00539141
-0.00431863
0.00323632
-0.00369408
-0.00347668
0.00227458
-0.00289767
0.00354204
0.00281715
-0.00108492
0.00281715
0.00190804
0.000607947
0.00165197
0.000694861
0.0010099
0.000824031
-6.23528e-05
0.000559588
0.000569119
-0.000236254
-6.00927e-05
0.000599835
-9.22827e-05
-0.000480248
0.000704335
-2.28924e-05
-0.000462933
0.000768244
2.98373e-05
-0.000438205
0.000722409
0.00010002
-0.000403688
0.000569678
0.000155952
-0.000351126
0.000520006
0.000161079
-0.000300213
0.000557052
0.000172031
-0.000299441
0.000549994
0.000285722
-0.000377036
0.000479767
0.000233435
-0.000136385
0.000417806
-0.000189788
0.00029942
0.000322941
-0.000785665
0.000510843
0.000395585
-0.00136746
0.000557062
0.000826332
-0.00124495
3.61292e-06
0.00153717
-0.000988562
0.00199875
0.00219354
-0.00668591
0.00379722
0.00387378
-0.00444538
0.00387378
0.00467691
-0.00172357
0.00350372
0.00422641
0.000338616
0.00280833
0.00272666
0.00134267
0.00198869
0.00119733
0.00104751
0.00126626
0.000197451
0.000195883
0.000575944
-5.52506e-05
-0.000444021
0.000189788
9.18177e-06
-0.000713065
2.90029e-05
0.000126459
-0.000679894
-8.54601e-05
0.000270292
-0.000628884
-0.00015168
0.000358873
-0.000571252
-4.90396e-05
0.00031
-0.000475334
0.000166773
-0.000410335
4.99449e-05
0.00043369
-0.00183375
0.000937304
0.0011053
-0.00354311
0.00148111
0.00184366
-0.00443946
0.000500207
0.00279348
-0.00389798
-0.00135748
0.00374196
-0.00220938
-0.00336324
0.00429888
-0.00492293
0.00424246
0.00162535
-0.00921656
0.00216321
0.00295844
-0.00711153
0.00295844
0.00395594
-0.00417412
0.00317835
0.00430089
-0.0012478
0.00293726
0.00396462
0.000707215
0.00250472
0.00303321
0.00124094
0.00203141
0.00186663
0.000883526
0.00144879
0.000915793
0.000244475
0.00075319
0.000269013
-0.000241863
0.000103659
1.18483e-05
-0.000458185
-0.000355496
-7.67429e-05
-0.000524981
-0.000446686
-0.000401521
-0.000385296
-1.56926e-05
-0.00128808
0.000137862
0.000686756
-0.00255989
0.000880186
0.00142456
-0.00367268
0.00131741
0.00201404
-0.00410853
0.000944869
0.00251327
-0.00393993
-0.000940432
0.00304278
-0.00306089
-0.0037577
0.00347487
-0.00166833
-0.00627402
0.00340337
-0.00783595
0.00268763
0.00129634
-0.010542
0.000633516
0.00200714
-0.0085331
0.00200714
0.00234899
-0.00555385
0.00263933
0.00260702
-0.00250264
0.00283348
0.00266826
-0.000159896
0.00277069
0.00235018
0.00092575
0.00246586
0.00178419
0.000985872
0.00202534
0.0010501
0.000721933
0.00150365
0.000379006
0.000454254
0.00083834
-4.03697e-05
0.000246333
9.00294e-05
-0.000379836
0.000161649
-0.000138103
-0.00101897
0.00030911
0.00066857
-0.00187537
0.000726431
0.00153869
-0.00259235
0.00108847
0.00210323
-0.00302667
0.00103815
0.00253387
-0.00294411
-6.26409e-05
0.00284604
-0.00260537
-0.00241308
0.00295327
-0.0021934
-0.00532389
0.00278471
-0.00137623
-0.00790131
0.00214039
-0.00942822
0.000785605
0.00111194
-0.011078
-0.000455285
0.0013547
-0.0090186
0.0013547
0.00113539
-0.00606069
0.00227373
0.000844923
-0.00305403
0.00266978
0.000721123
-0.000848808
0.00282792
0.000618404
0.000355357
0.00268057
0.000332292
0.00078641
0.00232712
-3.86271e-06
0.000817196
0.00189704
-0.000236693
0.000749239
0.0014224
-0.000252325
0.000671993
0.000915601
-0.000234121
0.000622756
0.000798114
-0.000513846
0.000684971
0.00135197
-0.000887632
0.000844217
0.00193134
-0.00120603
0.000898184
0.00241013
-0.00132457
0.000459355
0.00276
-0.00137867
-0.00087074
0.00288829
-0.00156145
-0.00313317
0.00268675
-0.00165534
-0.00597896
0.00224518
-0.00126436
-0.00853669
0.00124843
-0.0102018
-0.000554681
0.000948087
-0.0110717
-0.0011874
0.000850392
-0.00882319
0.000850392
0.0002819
-0.00601528
0.0019015
-0.000208652
-0.00333413
0.00234601
-0.000485091
-0.00145024
0.00250916
-0.000566916
-0.000381627
0.00244253
-0.000591036
0.000160818
0.00219738
-0.000618601
0.000411759
0.0018886
-0.000547862
0.000482382
0.00159723
-0.000323271
0.000483583
0.00133234
-8.30672e-05
0.000449617
0.00129169
-3.82212e-05
0.000451944
0.00159477
-9.25856e-05
0.000443013
0.001948
-0.000126518
0.000256589
0.00228655
-0.000169658
-0.000316438
0.00251268
-0.000388144
-0.0014992
0.00250658
-0.000821934
-0.0034182
0.00226176
-0.00122284
-0.00603296
0.00176157
-0.00113945
-0.00846086
0.00062497
-0.010399
-0.001379
0.000674032
-0.0105074
-0.00179195
0.000282055
-0.00803922
0.000282055
-0.000477952
-0.00558889
0.00134236
-0.000998545
-0.00352398
0.00178964
-0.00124781
-0.00210565
0.00191042
-0.00126669
-0.00125459
0.00180335
-0.00111382
-0.000788468
0.00163178
-0.000880885
-0.000501619
0.00149584
-0.000616467
-0.000324284
0.00139147
-0.000350465
-0.000166201
0.00129593
-7.64445e-05
-0.000208849
0.00129704
0.000180811
-0.000376207
0.00142972
0.00041572
-0.000514518
0.00157019
0.000599989
-0.000760234
0.00172096
0.000638647
-0.00123737
0.00183681
0.000431819
-0.00211425
0.00184506
1.2846e-06
-0.00355523
0.0016308
-0.000659229
-0.00558383
0.00116305
-0.000869998
-0.00779748
6.15364e-05
-0.0100214
-0.0019923
-4.29773e-05
-0.00896103
-0.00252529
-0.000668079
-0.006789
-0.000668079
-0.00149377
-0.00489804
0.000295794
-0.0019951
-0.00355614
0.000588856
-0.0021437
-0.00265487
0.000552609
-0.00201523
-0.00210889
0.00042844
-0.0016951
-0.0017995
0.000267364
-0.00125842
-0.00160337
0.000181285
-0.000787394
-0.00144138
0.000199916
-0.000347343
-0.00123098
0.000304254
0.000105211
-0.00128479
0.000295213
0.000605487
-0.00153153
0.000187658
0.00107251
-0.00166948
0.000203188
0.00142804
-0.0018365
0.000312784
0.00159241
-0.00212871
0.000446074
0.00148548
-0.00266501
0.000515615
0.00105718
-0.00354546
0.000459499
0.000279502
-0.00484317
0.000166396
-0.00016048
-0.00661964
-0.000877695
-0.0086647
-0.00269135
-0.00124611
-0.00591561
-0.00366459
-0.00247159
-0.00433803
-0.00247159
-0.00332751
-0.00332505
-0.00197078
-0.00365251
-0.0027728
-0.00191002
-0.00349439
-0.00244698
-0.00205544
-0.00305544
-0.00228394
-0.0021393
-0.00242364
-0.0021802
-0.00226742
-0.00166798
-0.00207337
-0.00236971
-0.00091005
-0.00192202
-0.00229477
-0.00026975
-0.00162361
-0.00200945
0.000416451
-0.00170958
-0.00207066
0.00119662
-0.00202119
-0.00236559
0.00196932
-0.00215429
-0.00241021
0.00261742
-0.00223995
-0.00228385
0.00307021
-0.00232153
-0.00215015
0.00326477
-0.00245569
-0.00211217
0.00298062
-0.00275754
-0.00196786
0.00219509
-0.00328402
-0.00203947
0.00110842
-0.00425342
-0.00256424
-0.00575945
-0.00376895
-0.00371208
-0.00563373
-0.00588109
-0.00588109
-0.00693459
-0.0066218
-0.00723396
-0.00746174
-0.00695966
-0.00832794
-0.00622797
-0.00919629
-0.00511176
-0.00996348
-0.00367176
-0.0105282
-0.00196051
-0.010783
2.30817e-05
-0.010444
0.00195201
-0.0105157
0.00358702
-0.0108336
0.00496052
-0.0105554
0.00602058
-0.00996095
0.00671413
-0.00917851
0.00697468
-0.00829792
0.00668524
-0.00742563
0.00567045
-0.00658788
0.00358107
-0.00585813
-0.00565506
0.0013506
-0.000166661
0.00235831
0.00165197
0.000607947
0.00190805
0.00117147
0.000961144
0.00117147
0.000518591
0.000786586
0.000690348
0.00013327
0.000336625
0.000617785
0.000120061
-0.000181464
0.000794493
0.000204525
-0.000407818
0.00102771
0.000152384
-0.00034946
0.00116987
0.000101556
-0.00038224
0.00115551
7.35881e-05
-0.000405497
0.00100318
2.39787e-05
-0.000345366
0.000915007
-5.69717e-05
-0.000288414
0.000926433
-9.61861e-05
-0.000296272
0.000885497
-2.076e-05
-0.000361975
0.00076633
5.61826e-05
-0.000275199
0.000616059
-0.000158455
0.00016643
0.000371118
-0.000453011
0.000383217
0.000306909
-0.000631364
0.00054746
0.000457265
-0.00052082
0.000738952
0.000687805
0.000835269
0.000642852
0.00197536
-0.00289795
0.00455317
0.00350372
-0.00172357
0.00467691
0.00414076
-0.00031296
0.00414076
0.00361743
0.000962889
0.00315533
0.0023993
0.00139551
0.00214796
0.00122256
0.000895451
0.00136614
0.000477768
0.000155869
0.000757063
0.000262199
-0.000412859
0.000468773
0.000236222
-0.000688203
0.000360978
0.000168152
-0.000691891
0.00026904
0.000122014
-0.000653979
0.000203101
9.51204e-05
-0.000602328
0.000291791
3.81811e-05
-0.000533165
0.00046062
-0.000447866
-6.04015e-05
0.000618169
-0.00143416
0.000706048
0.00111039
-0.00271728
0.00150364
0.0017896
-0.00355152
0.00125421
0.00275674
-0.00325288
9.21753e-05
0.00389858
-0.001939
-0.000917828
0.00464175
-0.00157649
0.00471517
0.00172528
-0.00545725
0.00299725
0.00317835
-0.00417412
0.00395594
0.00417167
-0.0022996
0.00417167
0.00448926
-0.000223796
0.00380636
0.00405386
0.00117675
0.00315888
0.00308388
0.00145502
0.00244181
0.00200535
0.00100021
0.00168299
0.00115248
0.000226192
0.000967032
0.000543332
-0.000352201
0.000376814
0.000127016
-0.000580059
-5.09977e-05
-0.00018059
-0.00062855
-0.000164496
-0.000529826
-0.000504466
0.000235693
-0.00130439
4.90024e-05
0.000879166
-0.00241537
0.000875918
0.00159923
-0.00349365
0.0014603
0.00233805
-0.00397559
0.00144575
0.00305311
-0.00379049
0.000379034
0.00373285
-0.00299677
-0.00146799
0.00424133
-0.00168051
-0.00308304
0.00425233
-0.0041227
0.00355332
0.00160144
-0.00703678
0.000611624
0.00263933
-0.00555385
0.00234899
0.00329988
-0.00362068
0.00329988
0.0036678
-0.00130633
0.0035481
0.00361956
0.000661639
0.00333404
0.00312501
0.00154157
0.00287385
0.00240891
0.00142912
0.00231253
0.00155388
0.000894925
0.00168996
0.00073997
0.000379136
0.000920926
9.36181e-05
5.20708e-05
0.000104257
-0.000481044
-6.18039e-05
-0.00013018
-0.00122454
0.00017961
0.000728004
-0.00216421
0.0008324
0.00169497
-0.00301794
0.0014433
0.00238958
-0.00361412
0.0016251
0.00296526
-0.00370768
0.000917455
0.00346789
-0.0033111
-0.000807472
0.0037432
-0.00263193
-0.00290799
0.00354553
-0.00162754
-0.00454451
0.00259748
-0.0059018
0.000937171
0.00154757
-0.00804916
-0.000990464
0.00227373
-0.00606069
0.00113539
0.00248807
-0.00404935
0.00248807
0.00246436
-0.00170279
0.00308995
0.00233218
0.000369454
0.00325229
0.00200272
0.00151524
0.00303637
0.00146192
0.00168634
0.0026107
0.000813251
0.00138094
0.0020597
0.000220249
0.00101824
0.00137631
-0.000115389
0.000744319
0.000558997
-0.000387153
0.000635764
0.000372319
-0.000981995
0.000860385
0.00126604
-0.00168339
0.00136351
0.00210162
-0.00230414
0.0017588
0.00271538
-0.00269146
0.00160732
0.00316509
-0.00279754
0.000518549
0.00339327
-0.00273448
-0.00139885
0.00321506
-0.00244638
-0.00347066
0.00251976
-0.00167206
-0.00516581
0.00109542
-0.00712909
-0.000999445
0.0013784
-0.008658
-0.00195694
0.0019015
-0.00601528
0.0002819
0.00182147
-0.00388928
0.00182147
0.00147559
-0.00158013
0.00256924
0.0011901
0.000262169
0.00290194
0.000889444
0.00142989
0.00282854
0.000540783
0.00171636
0.00251602
0.000157791
0.00157298
0.00207955
-0.000132596
0.00135182
0.00155403
-0.000211447
0.00118432
0.000971185
-0.000284395
0.00110525
0.000895158
-0.000624534
0.00125141
0.00154389
-0.00105901
0.00158721
0.00215878
-0.00144937
0.00180648
0.00262924
-0.00175542
0.00150355
0.0029225
-0.00200172
0.000343347
0.00292809
-0.00224767
-0.00139967
0.00250855
-0.00219972
-0.00342219
0.00166515
-0.00153759
-0.00526376
6.07938e-05
-0.00795522
-0.00209044
0.00100873
-0.0087273
-0.00273135
0.00134236
-0.00558889
-0.000477952
0.00112571
-0.00345597
0.00112571
0.000698868
-0.00129708
0.00193343
0.000311525
0.000343819
0.00221612
9.67942e-05
0.00125072
0.00219725
-7.04973e-05
0.00153189
0.00198354
-0.000218131
0.00150685
0.0017096
-0.000304775
0.00141759
0.00141235
-0.000275684
0.00136194
0.00108923
-0.000276044
0.00131017
0.00109248
-0.000428906
0.00136322
0.00147077
-0.000613753
0.00152891
0.00181333
-0.000784639
0.00161369
0.00208464
-0.000987104
0.00132009
0.00222273
-0.0013316
0.000417825
0.00211508
-0.00164301
-0.00116074
0.00170328
-0.00170233
-0.00306607
0.000866259
-0.00115925
-0.00506208
-0.000683219
-0.00822745
-0.00287931
0.000160943
-0.00781147
-0.00360206
0.000295794
-0.00489804
-0.00149377
-9.2681e-05
-0.00267901
-9.26808e-05
-0.000362166
-0.00109811
0.000659374
-0.000404186
-6.3435e-05
0.00100189
-0.000422988
0.000696697
0.00100127
-0.000398122
0.000930066
0.000844325
-0.000359658
0.000966636
0.000683034
-0.000309528
0.000990981
0.000576389
-0.000356596
0.00118501
0.000528248
-0.000402329
0.00111369
0.000537425
-0.000370725
0.000905191
0.000614084
-0.000337117
0.000954059
0.000744426
-0.000303983
0.000994278
0.00089906
-0.000313815
0.000794702
0.000981294
-0.000308058
4.20939e-05
0.000885588
-0.000475526
-0.000964532
0.000430765
-0.000626031
-0.00244131
-0.000307863
-0.000317516
-0.00459918
-0.00164911
-0.0075161
-0.00372022
-0.00125372
-0.00543566
-0.00478667
-0.00197078
-0.00332505
-0.00332751
-0.0023188
-0.00198297
-0.0023188
-0.002339
-0.00118181
-0.00180612
-0.0020177
-0.000615988
-0.00182419
-0.00148535
-0.00020312
-0.00177184
-0.00101681
1.80284e-06
-0.0018077
-0.000680421
0.000144369
-0.00188384
-0.000461572
0.000309365
-0.001832
-0.000362684
0.000680035
-0.00160337
-0.000260073
0.000600262
-0.00165985
-6.19913e-05
0.000227943
-0.00188643
0.000295066
8.08199e-05
-0.00189404
0.000811581
-1.65118e-05
-0.00178958
0.00141173
-0.000181073
-0.00177453
0.00182651
-0.00056731
-0.00191756
0.00189227
-0.0011048
-0.00189335
0.00168899
-0.00189266
-0.00238484
0.00114669
-0.00321269
-0.00340844
-0.00528904
-0.00484933
-0.00435025
-0.00671914
-0.0066218
-0.00693459
-0.00761329
-0.00761329
-0.00781444
-0.00844241
-0.00747431
-0.00928408
-0.00668868
-0.0101851
-0.00555843
-0.011092
-0.00408342
-0.0118589
-0.00225213
-0.0123049
4.29552e-05
-0.0120591
0.00226254
-0.012135
0.00399725
-0.0123404
0.00537968
-0.011857
0.00644658
-0.0110444
0.00719934
-0.0101124
0.00753459
-0.00920048
0.00736766
-0.00836352
0.00643666
-0.00754955
0.00424669
-0.00688086
-0.00669741
0.000620646
0.00114022
0.0005976
0.000824031
0.0010099
0.000694862
0.000690348
0.000786586
0.000518592
0.000469014
0.000442643
0.000469015
0.000385724
5.10491e-05
0.000649976
0.000512424
-0.000347511
0.0010153
0.000495098
-0.000298269
0.0013433
0.000327166
-0.000215919
0.00155372
0.000159476
-0.000306995
0.00163021
2.33112e-05
-0.000402417
0.0015418
-0.000116491
-0.000359319
0.00141415
-0.000276324
-0.000275819
0.0013621
-0.00036387
-0.000269874
0.00124293
-0.000337127
-0.000306307
0.0010459
-0.000142291
-0.000392996
0.000814222
-0.000164731
-4.61497e-05
0.00043967
-0.000278477
0.000233367
0.000187257
-0.000322186
0.000404221
9.67376e-05
-0.000232596
0.000600158
-1.93262e-06
0.000792431
-0.000382144
0.00168657
-0.000190504
0.0041973
0.00280833
0.000338616
0.00422641
0.00315533
0.000962889
0.00361743
0.00269184
0.00136964
0.00269184
0.00183101
0.0012141
0.0018458
0.00104839
0.000574977
0.00122631
0.000614956
4.40876e-05
0.000848136
0.000531835
-0.000412265
0.000748251
0.000452736
-0.000613295
0.000746408
0.000230642
-0.000628856
0.000717604
1.18414e-06
-0.000596444
0.000669711
-0.000120357
-0.000559434
0.000696966
-0.000136835
-0.000545872
0.000753109
-0.00034068
-0.000244221
0.000759932
-0.000904371
0.000321245
0.000959864
-0.0017012
0.00115616
0.00138416
-0.00233065
0.00155949
0.00206009
-0.0022931
0.00131929
0.00294596
-0.00147376
0.00086518
0.00355738
0.000506705
0.00352711
0.0016958
-0.00233343
0.00344438
0.00293726
-0.0012478
0.00430089
0.00380636
-0.000223796
0.00448926
0.0040423
0.000897759
0.0040423
0.00361571
0.0014966
0.00330295
0.00273461
0.00143387
0.00246402
0.00187651
0.000873234
0.00171195
0.00122508
8.84233e-05
0.00111779
0.000735437
-0.000423013
0.000676188
0.000239788
-0.000538211
0.000354017
-0.000216864
-0.000547558
0.000243281
-0.000537722
-0.000546272
0.000543399
-0.00109356
-0.000139814
0.00102895
-0.00195237
0.000633447
0.00158039
-0.00288349
0.00133411
0.0022563
-0.00334338
0.00162856
0.00304059
-0.00319656
0.00141149
0.00373403
-0.00251609
0.000646158
0.004234
-0.00145743
-0.000192517
0.00425137
-0.000997449
0.00360004
0.00183666
-0.00428488
0.000726421
0.00283348
-0.00250264
0.00260702
0.00354811
-0.00130633
0.0036678
0.00393978
0.000114419
0.00393978
0.00383126
0.00130154
0.00363762
0.0033179
0.00173026
0.00309082
0.00259683
0.00141756
0.00248929
0.00175533
0.00077584
0.00184405
0.000951693
0.000201674
0.00109988
0.000201931
-6.86958e-05
0.000384507
-0.000485405
-0.000163426
0.000173026
-0.00120521
3.17823e-06
0.00089837
-0.00208896
0.00064579
0.00179313
-0.00294043
0.00136004
0.00251445
-0.00352588
0.00176456
0.00312026
-0.00368767
0.00157086
0.00368737
-0.00333583
0.000755167
0.00404768
-0.00267517
-0.000360858
0.00389189
-0.00180427
-0.00140587
0.00293994
-0.00316051
0.00129596
0.00182791
-0.00582911
-0.00127413
0.00266978
-0.00305403
0.000844923
0.00308995
-0.00170279
0.00246436
0.00326618
-0.000238037
0.00326618
0.00319212
0.00116559
0.0034623
0.00281744
0.00189976
0.00324155
0.00220072
0.00183847
0.00280652
0.00145032
0.00135202
0.00223393
0.000686804
0.000846542
0.00149496
4.78293e-05
0.000519704
0.000609572
-0.00054423
0.000403059
0.000397896
-0.00130037
0.000669944
0.00135542
-0.00210613
0.00130078
0.00225239
-0.0028027
0.00188275
0.00288924
-0.00324921
0.00201968
0.00335649
-0.00336174
0.0014712
0.00360546
-0.00318536
0.000361005
0.00343285
-0.00276944
-0.000854289
0.00259727
-0.00198177
-0.00206646
0.000968341
-0.00491698
-0.00122474
0.00157535
-0.00700108
-0.0023603
0.00234601
-0.00333413
-0.000208652
0.00256924
-0.00158014
0.00147559
0.00251261
-0.000124776
0.00251261
0.00233487
0.00125047
0.00299481
0.00201687
0.00203364
0.00301265
0.00154476
0.00209038
0.00273621
0.00096058
0.00174091
0.00227483
0.00037406
0.00134188
0.00164521
-8.64067e-05
0.00107159
0.00087976
-0.000544356
0.000980935
0.000775231
-0.00117019
0.00122592
0.00161375
-0.00180121
0.00174676
0.00234382
-0.00231506
0.00218327
0.00284256
-0.00266083
0.00217643
0.00311152
-0.00283938
0.00152308
0.00305474
-0.00287397
0.000389602
0.00251455
-0.00260324
-0.000872546
0.00141268
-0.00175419
-0.0025256
-0.000329117
-0.00631911
-0.0024425
0.00107918
-0.00762031
-0.0031913
0.00178964
-0.00352398
-0.000998544
0.00193343
-0.00129708
0.000698868
0.00169836
0.00034537
0.00169836
0.00149958
0.00139248
0.00227289
0.00129545
0.00200587
0.00242915
0.00101282
0.002055
0.00230155
0.000622016
0.0018247
0.00201662
0.000187048
0.00157966
0.00160953
-0.000200914
0.00145336
0.00109541
-0.000624721
0.00140168
0.00109554
-0.00111603
0.00152942
0.00165857
-0.00152429
0.00185999
0.00210837
-0.0018112
0.00216346
0.00239136
-0.00201889
0.00214874
0.00245811
-0.00220448
0.00162294
0.00220081
-0.00235528
0.000715724
0.00152795
-0.00211428
-0.000720786
0.000473507
-0.00123349
-0.00295628
-0.00113333
-0.00714618
-0.00328572
5.53691e-05
-0.00719661
-0.00408112
0.000588856
-0.00355614
-0.0019951
0.000659374
-0.00109811
-0.000362165
0.000658502
0.000347118
0.000658502
0.000609241
0.00129425
0.00114938
0.000625922
0.00166657
0.00132388
0.000583528
0.00166369
0.00127802
0.000418553
0.00153623
0.00113647
0.000133325
0.00146722
0.000974058
-0.000352625
0.00165209
0.000815467
-0.000835379
0.00158151
0.000840351
-0.00111295
0.00139543
0.00102564
-0.00124588
0.00153528
0.00120206
-0.00125076
0.00173726
0.00133014
-0.00121139
0.00178517
0.00130549
-0.00120503
0.00147687
0.00102529
-0.00117926
0.000691222
0.000429504
-0.00090763
-0.00074715
-0.000553132
-0.00020631
-0.00321373
-0.00209298
-0.00691633
-0.00415638
-0.0014517
-0.00530858
-0.005223
-0.00191002
-0.0027728
-0.00365251
-0.00180612
-0.00118181
-0.002339
-0.00157654
-0.00011204
-0.00157654
-0.00121075
0.000397452
-0.00129318
-0.000761499
0.000629418
-0.00118395
-0.000396386
0.000731345
-0.00124047
-0.000207237
0.000828604
-0.00136537
-0.000197737
0.00103404
-0.00140834
-0.000385462
0.00153479
-0.00129835
-0.000549116
0.00144487
-0.00135957
-0.000545666
0.000950485
-0.00144494
-0.00033531
0.000777684
-0.00134681
7.59783e-05
0.000713545
-0.00117716
0.000576162
0.000647487
-0.00113704
0.000979819
0.000461564
-0.00130592
0.00136545
3.48702e-05
-0.00162263
0.00163555
-0.0010411
-0.00236099
0.00136178
-0.00264996
-0.00369845
-0.0051694
-0.00523447
-0.00498831
-0.00703941
-0.00746174
-0.00723396
-0.00844241
-0.00781444
-0.00849844
-0.00849844
-0.00805169
-0.0093334
-0.00726557
-0.0103418
-0.00617381
-0.0114524
-0.00468699
-0.0125171
-0.00268192
-0.013276
7.21163e-05
-0.0132783
0.00271978
-0.0133378
0.0046046
-0.0132747
0.00598739
-0.0124622
0.00700451
-0.011348
0.00774317
-0.0102036
0.00818271
-0.00917849
0.00819036
-0.00833631
0.00729664
-0.00769695
0.00489923
-0.00713343
-0.00696759
0.000371504
0.000672668
-0.000446568
0.000569119
0.000559588
-6.23514e-05
0.000617785
0.000336625
0.000133272
0.000649975
5.10492e-05
0.000385726
0.000804486
-0.000309038
0.000804487
0.000921242
-0.000333712
0.00123225
0.000793943
-0.000119654
0.00159024
0.000524669
-7.19041e-05
0.00189487
0.000236327
-0.000207936
0.00212648
-3.10096e-05
-0.000383854
0.00219302
-0.00029144
-0.000362103
0.00203671
-0.000527632
-0.000250189
0.00184849
-0.000665834
-0.000205993
0.00158713
-0.000690974
-0.000208611
0.00127965
-0.000510086
-0.000342373
0.000975708
-0.000333298
-0.000308642
0.000571509
-0.000306265
9.66744e-06
0.000150511
-0.000273886
0.000190446
-0.000126112
-0.000160236
0.00029697
-0.000412559
0.00037779
-0.000920167
0.00127202
0.00120803
0.0023899
0.00198869
0.00134267
0.00272666
0.00214796
0.00139551
0.0023993
0.0018458
0.0012141
0.00183101
0.00133024
0.000722132
0.00133024
0.000936269
0.000246353
0.00104023
0.000778023
-6.44795e-05
0.000951192
0.000784092
-0.000383549
0.00105384
0.000656178
-0.000506843
0.00117325
0.000291129
-0.000525558
0.00122438
-0.000101766
-0.000492373
0.0011929
-0.000331308
-0.000458988
0.00113532
-0.00036037
-0.000482564
0.00105875
-0.0003452
-0.000386689
0.000922842
-0.000582156
1.9366e-05
0.000835079
-0.000981527
0.000534452
0.000940461
-0.00134921
0.00120809
0.00122938
-0.00140831
0.00154038
0.00165514
-0.000993209
0.00155556
0.00188368
0.00149836
0.00141332
0.00153301
-0.000186248
0.00330564
0.00250472
0.000707215
0.00396462
0.00315888
0.00117675
0.00405386
0.00330295
0.0014966
0.00361571
0.00289792
0.00153219
0.00289792
0.00222742
0.00121313
0.00216775
0.00167166
0.000579695
0.00162355
0.00124566
-8.48119e-05
0.00124506
0.00085096
-0.000431559
0.000995613
0.000318251
-0.000427164
0.000788337
-0.000229525
-0.000395503
0.000694194
-0.000538829
-0.000489227
0.000882948
-0.000874756
-0.000284883
0.00116721
-0.00145422
0.000296704
0.00147647
-0.00213225
0.00100946
0.00194424
-0.00258822
0.00146655
0.00256445
-0.00252674
0.00168216
0.00319847
-0.00201433
0.0016388
0.00362317
-0.00120922
0.0013832
0.00361861
0.000818701
0.00307048
0.00196483
-0.00233575
0.000911095
0.00277069
-0.000159896
0.00266826
0.00333404
0.000661639
0.00361956
0.00363762
0.00130154
0.00383126
0.00353752
0.0017324
0.00353752
0.00310888
0.00170194
0.00303064
0.00247632
0.00122335
0.0024782
0.00174817
0.000583699
0.00190369
0.00101593
9.15291e-05
0.00130903
0.000270014
-5.03036e-05
0.000753564
-0.000434028
-8.68776e-05
0.000568441
-0.00108442
-6.22449e-05
0.00112179
-0.00183044
0.000434855
0.00181941
-0.00258277
0.00112688
0.00243661
-0.00308113
0.00165254
0.00297553
-0.00323835
0.00184599