/*--------------------------------*- C++ -*----------------------------------*\
  =========                 |
  \\      /  F ield         | OpenFOAM: The Open Source CFD Toolbox
   \\    /   O peration     | Website:  https://openfoam.org
    \\  /    A nd           | Version:  9
     \\/     M anipulation  |
\*---------------------------------------------------------------------------*/
FoamFile
{
    format      ascii;
    class       volScalarField;
    location    "320";
    object      nuTilda;
}
// * * * * * * * * * * * * * * * * * * * * * * * * * * * * * * * * * * * * * //

dimensions      [0 2 -1 0 0 0 0];

internalField   nonuniform List<scalar> 
10720
(
0.0673108
0.0693778
0.070733
0.0711408
0.07071
0.0686505
0.0642764
0.0567609
0.0451175
0.0291756
0.0150976
0.0127869
0.0166331
0.0183759
0.0186806
0.0181299
0.0166785
0.0152239
0.0139442
0.0126487
0.0123962
0.0143138
0.017965
0.0223602
0.0268357
0.0307364
0.0340223
0.0367847
0.0391634
0.0412814
0.0432498
0.045087
0.0468345
0.0485635
0.0498495
0.0495553
0.0459965
0.0380683
0.0436535
0.0651218
0.0627472
0.0601983
0.0572541
0.0540472
0.0505166
0.0466359
0.0424284
0.0379743
0.033341
0.0284969
0.0234132
0.0180744
0.0131384
0.0118502
0.0109201
0.0119734
0.0146777
0.0169702
0.0188734
0.020634
0.0223959
0.0242211
0.0261138
0.0280307
0.0299078
0.031711
0.0334259
0.035044
0.0365665
0.0380032
0.0393638
0.0406749
0.0419654
0.0433761
0.0448616
0.0471902
0.0484732
0.0588857
0.064496
0.063521
0.0630702
0.0630949
0.065363
0.0691259
0.0735068
0.0774647
0.0795097
0.0779699
0.0725978
0.0693718
0.0762445
0.0714018
0.0586923
0.0536425
0.0475105
0.0466472
0.0513363
0.0528527
0.051766
0.0504909
0.0508295
0.0526105
0.0551699
0.0562411
0.056078
0.0550503
0.0535594
0.0517187
0.0493159
0.0462494
0.0438865
0.0446229
0.0486266
0.0569292
0.0724862
0.101587
0.119208
0.0653384
0.0658554
0.0665173
0.0666644
0.0664948
0.0659411
0.0648462
0.0631615
0.0609878
0.0585151
0.0557629
0.0528888
0.0500588
0.0472959
0.0444227
0.041595
0.0389421
0.0365056
0.0343502
0.0324192
0.030685
0.0291296
0.0277374
0.0264524
0.0252861
0.0242626
0.0233861
0.0226619
0.0220894
0.0216677
0.0213985
0.0212731
0.0212738
0.0214221
0.0220597
0.0231524
0.0246344
0.0259566
0.0244413
0.0928922
0.0916597
0.0896828
0.0873519
0.0851606
0.0828648
0.0810925
0.0788383
0.0803991
0.0844644
0.0891374
0.0938732
0.10465
0.11659
0.124248
0.121031
0.100062
0.087551
0.0799174
0.0770143
0.0750575
0.073726
0.0737191
0.0742416
0.0812146
0.0879568
0.0933129
0.0965037
0.0976889
0.0968222
0.0938916
0.0897372
0.0869322
0.0890793
0.0980439
0.114546
0.144587
0.200168
0.24651
0.0939091
0.09451
0.0952099
0.0954549
0.0953879
0.0949635
0.0940372
0.0925396
0.09053
0.0881213
0.0853182
0.0822369
0.0790061
0.0757008
0.0723639
0.0690191
0.065767
0.0627142
0.0598759
0.0572028
0.0546843
0.0523089
0.0500583
0.0478386
0.0455974
0.0433791
0.0412037
0.0390892
0.0370447
0.0350995
0.0332898
0.0316189
0.0300906
0.0287244
0.0275616
0.026694
0.0261552
0.0291234
0.0210618
0.108857
0.107893
0.106443
0.104457
0.102014
0.0989324
0.0961122
0.0925986
0.0892721
0.0859591
0.0878078
0.0941403
0.106841
0.128314
0.154927
0.17244
0.169255
0.143311
0.11282
0.0993498
0.0973108
0.0982459
0.108074
0.121513
0.136557
0.149554
0.158583
0.163677
0.16551
0.164049
0.159383
0.152774
0.147046
0.147199
0.157763
0.180818
0.223746
0.30576
0.396241
0.109595
0.110076
0.110559
0.110775
0.11075
0.110466
0.109836
0.108807
0.1074
0.105648
0.103546
0.101149
0.0985238
0.0957228
0.0927963
0.0897605
0.086682
0.0836559
0.0807258
0.0778817
0.0751313
0.0724727
0.0698913
0.0672999
0.0646392
0.0619565
0.0592778
0.0566281
0.0540269
0.0514817
0.0490231
0.0466701
0.0444368
0.0423612
0.0404809
0.0389913
0.0373729
0.0388756
0.0342698
0.11817
0.11749
0.116463
0.115073
0.113333
0.110977
0.10795
0.105025
0.101654
0.0970596
0.0928421
0.0921937
0.0989892
0.117991
0.152774
0.193646
0.216005
0.205929
0.172368
0.140368
0.135457
0.145241
0.167192
0.18929
0.209119
0.225275
0.237044
0.244292
0.246814
0.244175
0.237277
0.227927
0.218707
0.215679
0.226343
0.25411
0.308167
0.415894
0.56469
0.118671
0.119005
0.119332
0.119489
0.119481
0.119295
0.118877
0.118195
0.117254
0.116063
0.114616
0.112929
0.111031
0.108945
0.106706
0.104308
0.101791
0.0992177
0.096633
0.0940451
0.0914719
0.0889177
0.0863753
0.0837695
0.0810458
0.0782464
0.075399
0.0725322
0.0696699
0.0668265
0.0640346
0.0613221
0.0587139
0.0562562
0.053973
0.0520974
0.0501874
0.0511142
0.0489182
0.123909
0.123421
0.122674
0.121666
0.120434
0.118829
0.11669
0.114056
0.111002
0.107592
0.103119
0.0982676
0.0962705
0.104518
0.132056
0.182338
0.234422
0.252938
0.232729
0.202733
0.192848
0.204921
0.228187
0.25292
0.275884
0.295639
0.311541
0.32315
0.330025
0.331331
0.326043
0.314286
0.300921
0.293588
0.302583
0.333355
0.395924
0.526883
0.741196
0.124255
0.124485
0.124705
0.124813
0.124804
0.12467
0.124375
0.123899
0.123246
0.122426
0.121432
0.120269
0.11895
0.117479
0.115871
0.114109
0.112211
0.110211
0.10814
0.106007
0.10383
0.101612
0.0993489
0.0969803
0.0944562
0.0918093
0.0890644
0.0862478
0.0833834
0.0804896
0.0776001
0.0747488
0.0719674
0.0693126
0.0668144
0.0647219
0.0626591
0.0632349
0.0621854
0.127694
0.127352
0.126821
0.126107
0.125221
0.124062
0.122571
0.120656
0.118147
0.115046
0.111822
0.107502
0.102228
0.0999671
0.112002
0.152288
0.21921
0.27517
0.282577
0.260018
0.247673
0.258741
0.283024
0.310566
0.337186
0.361185
0.381713
0.398176
0.410212
0.417208
0.417813
0.409803
0.393502
0.380599
0.385951
0.417379
0.485491
0.634152
0.898683
0.127921
0.128071
0.128213
0.12828
0.128262
0.128156
0.127936
0.12759
0.12712
0.126534
0.125826
0.125006
0.124083
0.123056
0.121921
0.120657
0.119275
0.11779
0.116217
0.114561
0.112833
0.111032
0.109153
0.107146
0.104968
0.10264
0.100179
0.0976046
0.0949367
0.0921932
0.0894051
0.0866072
0.0838353
0.0811509
0.0785912
0.0764097
0.0742962
0.074597
0.074292
0.130301
0.130057
0.129666
0.129139
0.128484
0.127635
0.126562
0.125211
0.123437
0.121048
0.118102
0.114989
0.110691
0.104994
0.103705
0.123643
0.181772
0.262673
0.312954
0.309904
0.298159
0.307283
0.332761
0.363615
0.394432
0.423067
0.448438
0.469878
0.487176
0.500104
0.507671
0.507112
0.494913
0.476778
0.476376
0.505356
0.575089
0.734421
1.02995
0.130449
0.130543
0.130631
0.130667
0.130639
0.130549
0.130376
0.130113
0.12976
0.129327
0.128809
0.128212
0.127547
0.12682
0.12601
0.125102
0.124102
0.123015
0.121847
0.120598
0.119272
0.117865
0.116371
0.114749
0.11296
0.111015
0.108923
0.106695
0.104345
0.101886
0.0993422
0.0967458
0.0941318
0.0915609
0.0890752
0.0869191
0.0848532
0.0849212
0.0851022
0.132188
0.132016
0.131728
0.131336
0.130848
0.130209
0.129405
0.12841
0.127142
0.125474
0.123196
0.120375
0.117375
0.112869
0.106739
0.108819
0.14289
0.222201
0.309743
0.347365
0.344295
0.352049
0.378371
0.41277
0.448202
0.481809
0.512252
0.538812
0.561432
0.580271
0.594905
0.602926
0.599335
0.582402
0.574097
0.596672
0.662847
0.825676
1.13722
0.132278
0.132331
0.132378
0.132389
0.132352
0.132269
0.132126
0.131917
0.131643
0.131313
0.130923
0.130478
0.129985
0.129457
0.128867
0.128206
0.127477
0.126678
0.125813
0.124877
0.123872
0.122793
0.121631
0.120352
0.118926
0.117354
0.11564
0.113787
0.111801
0.10969
0.107471
0.105168
0.102813
0.100461
0.098155
0.0961188
0.0941832
0.094062
0.0945433
0.133602
0.133482
0.133266
0.132969
0.132598
0.132108
0.131496
0.130745
0.129804
0.128641
0.127043
0.124806
0.122196
0.119154
0.114068
0.107955
0.118055
0.173555
0.273078
0.357309
0.383755
0.39351
0.420388
0.458285
0.498655
0.53759
0.573397
0.60531
0.633406
0.658204
0.679868
0.696713
0.703725
0.69493
0.679487
0.691027
0.747128
0.906943
1.2222
0.133649
0.133671
0.133686
0.133677
0.133631
0.133552
0.133429
0.133256
0.133037
0.132778
0.132477
0.132137
0.131765
0.131369
0.13093
0.130441
0.129902
0.129309
0.128662
0.127959
0.127197
0.126372
0.125474
0.124477
0.123355
0.122107
0.120732
0.119229
0.117598
0.115842
0.113969
0.111999
0.109954
0.107882
0.105824
0.103974
0.102227
0.101966
0.102612
0.134691
0.134609
0.134448
0.13422
0.133935
0.133552
0.133076
0.132499
0.131791
0.130959
0.129918
0.128371
0.126101
0.123665
0.120361
0.11427
0.110187
0.135566
0.218462
0.331676
0.405244
0.430932
0.459026
0.500228
0.54576
0.590397
0.631928
0.669503
0.703327
0.734247
0.762989
0.78866
0.806876
0.80967
0.793656
0.788665
0.82663
0.97578
1.28551
0.134707
0.134704
0.134696
0.13467
0.134616
0.134538
0.134427
0.134281
0.134101
0.133892
0.133655
0.133391
0.133106
0.132801
0.132467
0.132098
0.131692
0.131246
0.130758
0.130224
0.129643
0.129009
0.128314
0.127536
0.126657
0.125673
0.124581
0.123377
0.12206
0.120627
0.119083
0.117439
0.115713
0.113942
0.112161
0.110535
0.109009
0.108659
0.10937
0.135548
0.135494
0.135373
0.135197
0.134973
0.134673
0.134297
0.133851
0.133328
0.132717
0.131979
0.13098
0.129428
0.127178
0.124761
0.120852
0.11367
0.116598
0.166737
0.278319
0.395117
0.458592
0.494061
0.538567
0.589385
0.640096
0.687759
0.731368
0.771245
0.808554
0.844534
0.879024
0.908359
0.923874
0.91508
0.890124
0.900633
1.02688
1.3271
0.13554
0.135519
0.135493
0.135454
0.135391
0.135313
0.13521
0.135083
0.134932
0.134761
0.134571
0.134364
0.134143
0.133904
0.133643
0.133359
0.133047
0.132707
0.132333
0.131924
0.131477
0.130986
0.130445
0.129836
0.129145
0.128368
0.127502
0.126543
0.125487
0.12433
0.123074
0.121725
0.120295
0.118814
0.117311
0.115917
0.11462
0.114224
0.114938
0.136234
0.136201
0.136109
0.135972
0.135796
0.135557
0.135259
0.134921
0.134538
0.134088
0.133536
0.132836
0.131843
0.130243
0.128088
0.125509
0.120303
0.113678
0.13226
0.216068
0.351342
0.463268
0.523562
0.573102
0.629343
0.686472
0.740706
0.790763
0.837067
0.8811
0.924576
0.967944
1.00803
1.03553
1.0351
0.997507
0.969635
1.05771
1.34658
0.13621
0.136175
0.136135
0.136084
0.136015
0.135934
0.135838
0.135724
0.135595
0.135453
0.135298
0.135135
0.134961
0.134771
0.134565
0.13434
0.134097
0.133831
0.133542
0.133225
0.132878
0.132495
0.13207
0.131591
0.131044
0.130428
0.12974
0.128975
0.128129
0.127199
0.126183
0.125086
0.123916
0.122694
0.121447
0.120275
0.119194
0.118789
0.119466
0.136791
0.136774
0.136704
0.136597
0.136457
0.136268
0.136031
0.135779
0.135494
0.135161
0.13475
0.134226
0.133541
0.13252
0.130872
0.128792
0.125664
0.118794
0.117738
0.163774
0.285834
0.43494
0.538871
0.603279
0.66536
0.729245
0.790507
0.847457
0.90059
0.951716
1.00301
1.05539
1.10586
1.14394
1.14993
1.10551
1.03622
1.07096
1.34358
0.136755
0.13671
0.136659
0.136598
0.136523
0.136441
0.136348
0.136246
0.136134
0.136013
0.135886
0.135755
0.135615
0.135463
0.135298
0.135119
0.134925
0.134715
0.134488
0.134239
0.133966
0.133665
0.133329
0.132948
0.132513
0.132022
0.131472
0.13086
0.130181
0.129433
0.128613
0.127724
0.126772
0.125773
0.124748
0.123776
0.122887
0.122498
0.123116
0.137249
0.137243
0.13719
0.137107
0.136996
0.136848
0.136666
0.136483
0.136272
0.136021
0.135712
0.135315
0.134802
0.134115
0.133032
0.131364
0.129231
0.124875
0.117403
0.131826
0.217856
0.37546
0.527487
0.625019
0.697076
0.76808
0.836833
0.901142
0.961517
1.02012
1.07956
1.14116
1.20178
1.24919
1.25884
1.20494
1.10564
1.07533
1.31832
0.137205
0.137153
0.137092
0.137024
0.136943
0.13686
0.13677
0.136677
0.136578
0.136474
0.136368
0.13626
0.136145
0.136021
0.135888
0.135745
0.13559
0.135422
0.13524
0.135041
0.134825
0.134585
0.134318
0.134013
0.133665
0.133271
0.132829
0.132337
0.13179
0.131186
0.130523
0.129803
0.12903
0.128217
0.12738
0.12658
0.125857
0.125499
0.126047
0.137628
0.137631
0.137592
0.137527
0.137441
0.137333
0.137201
0.137074
0.13692
0.13673
0.136492
0.136187
0.135793
0.135282
0.134571
0.133404
0.131735
0.129233
0.122868
0.119698
0.164236
0.29869
0.48203
0.628212
0.72293
0.802557
0.879301
0.951447
1.01948
1.08591
1.15385
1.22492
1.29564
1.35171
1.36357
1.29804
1.16688
1.07705
1.27179
0.137579
0.137522
0.137455
0.137381
0.137295
0.13721
0.137124
0.137038
0.136949
0.136858
0.136767
0.136676
0.136579
0.136477
0.136369
0.136253
0.136128
0.135993
0.135846
0.135687
0.135512
0.13532
0.135104
0.134859
0.134578
0.13426
0.133903
0.133505
0.133063
0.132574
0.132037
0.131453
0.130825
0.130163
0.129483
0.128828
0.128242
0.127924
0.128399
0.137946
0.137954
0.137926
0.137876
0.137814
0.137742
0.137655
0.137564
0.137449
0.137303
0.137119
0.136884
0.136582
0.136188
0.135674
0.134913
0.133664
0.131989
0.128307
0.12049
0.132954
0.22391
0.406708
0.600851
0.736793
0.832006
0.917447
0.997945
1.07404
1.14864
1.22539
1.30619
1.38716
1.45194
1.4664
1.39061
1.22876
1.08538
1.20709
0.137894
0.137834
0.137762
0.137682
0.137593
0.137506
0.137423
0.137343
0.137263
0.137183
0.137103
0.137023
0.136941
0.136855
0.136766
0.136671
0.136569
0.13646
0.136341
0.136212
0.13607
0.135914
0.135739
0.135539
0.13531
0.135052
0.134762
0.134439
0.13408
0.133682
0.133246
0.132771
0.132261
0.131723
0.13117
0.130635
0.130162
0.129887
0.130289
0.138213
0.138226
0.138206
0.138168
0.13813
0.138086
0.138032
0.137964
0.137875
0.13776
0.137616
0.137434
0.137201
0.1369
0.136506
0.135984
0.135138
0.133869
0.131909
0.125933
0.121767
0.167057
0.316884
0.537033
0.727107
0.853386
0.950732
1.04014
1.12471
1.20778
1.29357
1.38438
1.47593
1.55015
1.56951
1.48873
1.30147
1.09786
1.12846
0.13816
0.138098
0.138023
0.13794
0.137848
0.137759
0.137678
0.137606
0.137532
0.137459
0.137388
0.137317
0.137245
0.137172
0.137097
0.137018
0.136935
0.136845
0.136748
0.136643
0.136528
0.1364
0.136257
0.136093
0.135905
0.135693
0.135456
0.135192
0.134899
0.134574
0.134219
0.133832
0.133417
0.132979
0.13253
0.132095
0.131714
0.131482
0.131811
0.138439
0.138455
0.138442
0.138415
0.138397
0.138373
0.138339
0.138289
0.138223
0.138136
0.138022
0.137877
0.137693
0.137459
0.137155
0.136763
0.136203
0.135278
0.134036
0.130868
0.122984
0.134827
0.232837
0.442933
0.681496
0.858283
0.977771
1.07746
1.17097
1.26274
1.35774
1.45876
1.56137
1.64633
1.67427
1.5964
1.39355
1.12923
1.0466
0.138385
0.138324
0.138247
0.138162
0.138067
0.137978
0.137899
0.137832
0.137766
0.137698
0.137633
0.137569
0.137505
0.137441
0.137377
0.137311
0.137241
0.137167
0.137087
0.137001
0.136906
0.136802
0.136684
0.136549
0.136393
0.136218
0.136023
0.135806
0.135565
0.135299
0.135008
0.134692
0.134354
0.133998
0.133634
0.13328
0.132973
0.132782
0.133041
0.138631
0.138648
0.138641
0.138624
0.13862
0.13861
0.138588
0.138554
0.138508
0.138444
0.138356
0.13824
0.138092
0.137905
0.137666
0.137359
0.136961
0.136333
0.135405
0.133903
0.128279
0.123666
0.170798
0.336492
0.595082
0.832888
0.993499
1.10913
1.2122
1.31291
1.41717
1.52854
1.6427
1.74005
1.78087
1.7145
1.508
1.19154
0.985607
0.138578
0.138517
0.138441
0.138354
0.138258
0.138168
0.138091
0.13803
0.13797
0.137908
0.137846
0.137787
0.13773
0.137673
0.137617
0.13756
0.137501
0.137439
0.137373
0.137302
0.137223
0.137137
0.13704
0.136928
0.136799
0.136654
0.136491
0.136311
0.136112
0.135893
0.135654
0.135395
0.135119
0.13483
0.134535
0.13425
0.134003
0.133849
0.134036
0.138793
0.138811
0.138809
0.138801
0.138806
0.138805
0.13879
0.138766
0.138734
0.138687
0.138621
0.13853
0.138411
0.13826
0.138071
0.137828
0.13752
0.137095
0.136407
0.135536
0.1328
0.124983
0.136694
0.240622
0.477095
0.763806
0.986326
1.13245
1.24772
1.35761
1.4711
1.59279
1.71895
1.83036
1.88822
1.84087
1.64173
1.28658
0.947666
0.138742
0.138683
0.138608
0.138521
0.138424
0.138334
0.13826
0.138205
0.138149
0.138092
0.138035
0.13798
0.137927
0.137876
0.137826
0.137777
0.137726
0.137673
0.137617
0.137558
0.137492
0.13742
0.13734
0.137246
0.137139
0.137018
0.136883
0.136733
0.136567
0.136386
0.136188
0.135976
0.135751
0.135515
0.135277
0.135048
0.13485
0.134729
0.134842
0.13893
0.138948
0.138951
0.138949
0.138958
0.138962
0.138952
0.138935
0.138911
0.138875
0.138823
0.138751
0.138656
0.138536
0.138384
0.138193
0.137949
0.13764
0.137162
0.136505
0.135389
0.130103
0.125405
0.172774
0.350359
0.648067
0.939199
1.13923
1.27611
1.3961
1.51872
1.65052
1.78891
1.91578
1.99409
1.97135
1.788
1.41031
0.953265
0.138881
0.138825
0.138753
0.138668
0.138571
0.138481
0.13841
0.13836
0.138308
0.138256
0.138203
0.138152
0.138103
0.138057
0.138012
0.137967
0.137923
0.137877
0.13783
0.137779
0.137724
0.137663
0.137596
0.137518
0.137428
0.137327
0.137214
0.137089
0.13695
0.1368
0.136636
0.136462
0.136277
0.136086
0.135894
0.135709
0.135551
0.135461
0.135493
0.139045
0.139061
0.13907
0.139071
0.139081
0.139087
0.13908
0.139069
0.139049
0.13902
0.13898
0.138924
0.138848
0.13875
0.138627
0.138474
0.138281
0.138041
0.137712
0.137202
0.136635
0.134263
0.126836
0.137501
0.242175
0.500755
0.838008
1.11318
1.29215
1.42747
1.5592
1.70069
1.85118
1.99436
2.09541
2.10113
1.93984
1.55396
1.01425
0.139
0.138948
0.138879
0.138796
0.138702
0.138613
0.138544
0.138498
0.138451
0.138403
0.138354
0.138307
0.138262
0.138219
0.138178
0.138138
0.138099
0.138058
0.138017
0.137973
0.137926
0.137875
0.137818
0.137752
0.137677
0.137592
0.137497
0.137392
0.137277
0.137151
0.137016
0.136872
0.136721
0.136566
0.136411
0.136263
0.136137
0.136075
0.136026
0.139141
0.139155
0.139167
0.13917
0.13918
0.139186
0.139181
0.139172
0.139156
0.139134
0.139105
0.139062
0.139003
0.138923
0.138821
0.138695
0.138539
0.138346
0.138106
0.137738
0.137298
0.136477
0.131719
0.126886
0.170611
0.352527
0.684665
1.0334
1.28262
1.44856
1.59163
1.74223
1.90427
2.06382
2.18863
2.22533
2.09151
1.7085
1.12244
0.1391
0.139052
0.138988
0.13891
0.138818
0.138733
0.138666
0.138624
0.13858
0.138535
0.138491
0.138448
0.138407
0.138367
0.13833
0.138294
0.138258
0.138222
0.138185
0.138147
0.138106
0.138062
0.138014
0.137958
0.137894
0.137823
0.137743
0.137655
0.137559
0.137454
0.137341
0.137223
0.137099
0.136973
0.136849
0.136732
0.136631
0.136594
0.136483
0.13922
0.13923
0.139245
0.139248
0.139256
0.139262
0.139259
0.139251
0.139238
0.139222
0.1392
0.13917
0.139125
0.139062
0.138978
0.138872
0.138743
0.138585
0.138396
0.138138
0.137768
0.137422
0.135443
0.128778
0.136705
0.235235
0.504616
0.887788
1.22478
1.44954
1.614
1.77401
1.94662
2.12177
2.27002
2.33901
2.23813
1.86764
1.25941
0.139183
0.139141
0.139082
0.13901
0.138924
0.138842
0.138778
0.138738
0.138697
0.138656
0.138616
0.138577
0.13854
0.138504
0.138469
0.138436
0.138404
0.138371
0.138339
0.138305
0.138269
0.138231
0.138189
0.138142
0.138088
0.138028
0.137961
0.137887
0.137806
0.137718
0.137624
0.137527
0.137426
0.137324
0.137225
0.137132
0.137053
0.137037
0.136904
0.139283
0.13929
0.139305
0.139308
0.139315
0.139319
0.139317
0.139309
0.1393
0.139288
0.139271
0.139248
0.139214
0.139165
0.139097
0.13901
0.138903
0.138773
0.138617
0.138427
0.138146
0.137865
0.137271
0.13336
0.128292
0.164688
0.338486
0.689254
1.09555
1.40925
1.61924
1.79433
1.97657
2.16581
2.33597
2.43714
2.37421
2.02646
1.4098
0.139251
0.139215
0.139163
0.139098
0.139018
0.138942
0.138881
0.138843
0.138805
0.138767
0.138731
0.138696
0.138662
0.13863
0.138599
0.138569
0.138539
0.13851
0.13848
0.13845
0.138419
0.138386
0.13835
0.138309
0.138264
0.138213
0.138156
0.138094
0.138025
0.137952
0.137874
0.137794
0.137712
0.137631
0.137552
0.13748
0.137418
0.137417
0.137288
0.139331
0.139335
0.139349
0.139351
0.139356
0.139359
0.139357
0.139351
0.139343
0.139334
0.139321
0.139303
0.139277
0.139239
0.139184
0.139112
0.139023
0.138917
0.138788
0.138637
0.138435
0.138177
0.137964
0.136506
0.130884
0.135282
0.219697
0.478889
0.891995
1.29838
1.58924
1.79792
1.99206
2.19339
2.38303
2.51461
2.49349
2.17897
1.56407
0.139305
0.139275
0.139231
0.139175
0.139103
0.139034
0.138977
0.13894
0.138904
0.13887
0.138837
0.138806
0.138777
0.13875
0.138723
0.138696
0.138668
0.13864
0.138613
0.138586
0.138558
0.138529
0.138498
0.138463
0.138424
0.138381
0.138334
0.138281
0.138224
0.138163
0.138099
0.138033
0.137967
0.137902
0.137841
0.137786
0.137739
0.137748
0.137632
0.139365
0.139365
0.139378
0.139379
0.139382
0.139384
0.139382
0.139377
0.139372
0.139365
0.139355
0.139343
0.139324
0.139295
0.13925
0.139189
0.139113
0.139024
0.138918
0.138793
0.138643
0.138437
0.138255
0.137886
0.134995
0.129934
0.156491
0.305749
0.6473
1.09893
1.49259
1.76966
1.98864
2.2017
2.40749
2.56618
2.58885
2.31713
1.71404
0.139345
0.139323
0.139287
0.13924
0.139178
0.139117
0.139065
0.139029
0.138996
0.138965
0.138936
0.138911
0.138889
0.13887
0.138849
0.138825
0.138799
0.13877
0.138742
0.138715
0.138689
0.138663
0.138636
0.138606
0.138574
0.138538
0.138498
0.138454
0.138406
0.138355
0.138302
0.138249
0.138196
0.138146
0.138099
0.138059
0.138024
0.138043
0.137939
0.139386
0.139384
0.139394
0.139393
0.139394
0.139396
0.139394
0.139391
0.139387
0.139382
0.139376
0.139368
0.139356
0.139336
0.139302
0.139251
0.139184
0.139106
0.139015
0.13891
0.13879
0.138639
0.138463
0.138343
0.137433
0.133041
0.134211
0.197178
0.420172
0.830553
1.29962
1.67858
1.95329
2.18633
2.40584
2.58639
2.65131
2.43113
1.85057
0.139374
0.13936
0.139333
0.139296
0.139244
0.139191
0.139145
0.139111
0.139081
0.139055
0.139032
0.139014
0.139
0.138987
0.138973
0.138955
0.138933
0.138905
0.138875
0.138845
0.138818
0.138792
0.138767
0.138741
0.138714
0.138683
0.13865
0.138614
0.138574
0.138532
0.138489
0.138447
0.138406
0.138368
0.138333
0.138305
0.138282
0.138316
0.13822
0.139398
0.139392
0.139399
0.139398
0.139398
0.139399
0.139398
0.139396
0.139394
0.139391
0.139388
0.139383
0.139376
0.139362
0.139336
0.139295
0.139239
0.13917
0.139089
0.138998
0.138896
0.138783
0.13864
0.138524
0.138355
0.136432
0.131994
0.147769
0.258779
0.554362
1.01465
1.4873
1.85625
2.13509
2.37305
2.57112
2.67139
2.50762
1.96206
0.139393
0.139387
0.139369
0.139342
0.139301
0.139257
0.139217
0.139187
0.139163
0.139142
0.139125
0.139114
0.139106
0.139099
0.13909
0.139078
0.139061
0.139039
0.139011
0.138979
0.138948
0.13892
0.138895
0.138871
0.138846
0.138821
0.138793
0.138764
0.138731
0.138697
0.138663
0.13863
0.138599
0.138572
0.138548
0.138531
0.138518
0.138574
0.138478
0.139405
0.139397
0.139401
0.139399
0.139398
0.1394
0.1394
0.139399
0.139397
0.139396
0.139394
0.139391
0.139386
0.139376
0.139356
0.139322
0.139274
0.139214
0.139143
0.139063
0.138974
0.138882
0.138777
0.138661
0.138615
0.138133
0.135115
0.134007
0.172963
0.337554
0.695541
1.18655
1.65574
2.01878
2.29635
2.51401
2.64238
2.53302
2.03226
0.139408
0.139408
0.139398
0.139381
0.139351
0.139316
0.139281
0.139258
0.139241
0.139226
0.139215
0.139209
0.139205
0.139202
0.139197
0.13919
0.139179
0.139163
0.13914
0.139113
0.139082
0.139051
0.139024
0.138999
0.138975
0.138953
0.13893
0.138905
0.138879
0.138852
0.138825
0.138801
0.138779
0.138761
0.138748
0.13874
0.138736
0.138809
0.138715
0.139413
0.139404
0.139407
0.139406
0.139406
0.139408
0.139409
0.139408
0.139407
0.139405
0.139403
0.139399
0.139394
0.139386
0.139368
0.139338
0.139295
0.139241
0.139178
0.139107
0.13903
0.138951
0.138872
0.138781
0.138719
0.13868
0.137595
0.134276
0.141006
0.20916
0.424915
0.828644
1.33285
1.79333
2.14578
2.40039
2.55543
2.4985
2.04872
0.139421
0.139426
0.139422
0.139414
0.139394
0.139369
0.13934
0.139325
0.139315
0.139307
0.1393
0.139298
0.139297
0.139296
0.139294
0.13929
0.139283
0.139273
0.139257
0.139237
0.139211
0.139183
0.139156
0.13913
0.139105
0.139083
0.139062
0.139041
0.139019
0.138998
0.138979
0.138962
0.138948
0.138939
0.138935
0.138937
0.138946
0.139025
0.138935
0.139428
0.139421
0.139427
0.139428
0.13943
0.139433
0.139434
0.139433
0.13943
0.139427
0.139423
0.139417
0.139409
0.1394
0.139383
0.139353
0.139312
0.13926
0.1392
0.139135
0.139066
0.138998
0.138934
0.138868
0.138806
0.138812
0.138637
0.136909
0.134925
0.153485
0.252052
0.508465
0.936564
1.43594
1.87643
2.19833
2.39286
2.38951
1.99859
0.139439
0.139445
0.139445
0.139444
0.139433
0.139416
0.139394
0.139388
0.139385
0.139383
0.139381
0.139381
0.139382
0.139382
0.139382
0.13938
0.139376
0.13937
0.13936
0.139346
0.139328
0.139306
0.139283
0.13926
0.139236
0.139214
0.139194
0.139174
0.139157
0.13914
0.139126
0.139116
0.139111
0.13911
0.139115
0.13913
0.139152
0.139227
0.13914
0.139453
0.139453
0.139464
0.13947
0.139474
0.139479
0.13948
0.139478
0.139474
0.139467
0.13946
0.13945
0.139438
0.139425
0.139405
0.139373
0.13933
0.139276
0.139216
0.139153
0.13909
0.13903
0.138976
0.138928
0.138887
0.138879
0.138924
0.138473
0.136441
0.137681
0.169931
0.294043
0.573074
0.999223
1.46973
1.8652
2.12138
2.18218
1.86457
0.139462
0.139467
0.139471
0.139473
0.139469
0.139459
0.139446
0.139447
0.139451
0.139454
0.139455
0.139457
0.13946
0.139461
0.139461
0.139461
0.139459
0.139456
0.13945
0.139442
0.13943
0.139415
0.139398
0.139381
0.139361
0.139342
0.139324
0.139307
0.139293
0.13928
0.139272
0.139268
0.13927
0.139278
0.139294
0.139318
0.139347
0.139413
0.139332
0.139489
0.139497
0.139516
0.139528
0.139536
0.139542
0.139544
0.139541
0.139535
0.139526
0.139515
0.139501
0.139485
0.139466
0.139439
0.139401
0.139352
0.139294
0.13923
0.139165
0.139103
0.139048
0.139002
0.138971
0.138955
0.138954
0.139003
0.139022
0.138264
0.136556
0.142413
0.186888
0.325386
0.602309
0.993552
1.39949
1.70956
1.84245
1.62492
0.139494
0.139497
0.1395
0.139503
0.139503
0.139497
0.139494
0.139502
0.139513
0.139521
0.139525
0.139529
0.139532
0.139533
0.139534
0.139534
0.139534
0.139532
0.13953
0.139526
0.139519
0.13951
0.1395
0.139488
0.139474
0.139459
0.139445
0.139433
0.139423
0.139416
0.139413
0.139416
0.139425
0.139441
0.139463
0.139491
0.139523
0.139583
0.139509
0.139532
0.139551
0.139577
0.139595
0.139607
0.139616
0.139618
0.139615
0.139608
0.139597
0.139584
0.139567
0.139547
0.139522
0.139488
0.13944
0.139381
0.139314
0.139243
0.139176
0.139116
0.139066
0.139024
0.139007
0.139015
0.139035
0.139079
0.139172
0.139091
0.138136
0.137441
0.147927
0.199596
0.336262
0.581609
0.898921
1.19473
1.36823
1.26937
0.139533
0.139533
0.139533
0.139534
0.139535
0.139531
0.139538
0.139554
0.139571
0.139584
0.139591
0.139596
0.139599
0.1396
0.139601
0.139601
0.139601
0.139601
0.1396
0.1396
0.139597
0.139593
0.139589
0.139583
0.139575
0.139565
0.139555
0.139547
0.139542
0.139541
0.139545
0.139554
0.13957
0.139591
0.139617
0.139648
0.139683
0.139737
0.139672
0.139582
0.139609
0.139642
0.139666
0.139681
0.139692
0.139695
0.139693
0.139686
0.139674
0.139659
0.139642
0.139619
0.139591
0.139552
0.139496
0.139425
0.139346
0.139265
0.13919
0.139131
0.13909
0.139071
0.139076
0.139102
0.139136
0.139179
0.139254
0.13935
0.139162
0.138239
0.138883
0.152448
0.203577
0.320288
0.505597
0.713446
0.861035
0.853169
0.139578
0.139575
0.139571
0.139568
0.139565
0.139561
0.139579
0.139603
0.139628
0.139646
0.139656
0.13966
0.139662
0.139662
0.139662
0.139662
0.139662
0.139663
0.139664
0.139666
0.139667
0.139667
0.139668
0.139667
0.139665
0.13966
0.139655
0.139652
0.139651
0.139656
0.139666
0.139682
0.139703
0.139728
0.139759
0.139792
0.139829
0.13988
0.139824
0.139637
0.13967
0.139708
0.139736
0.139754
0.139766
0.13977
0.139769
0.139762
0.139751
0.139736
0.139718
0.139695
0.139667
0.139626
0.139564
0.139484
0.139392
0.139301
0.139226
0.139171
0.139143
0.139145
0.139169
0.139207
0.139254
0.139308
0.139377
0.139483
0.139563
0.139271
0.138601
0.140407
0.154336
0.196807
0.279384
0.388508
0.47746
0.496328
0.139629
0.139621
0.139612
0.139602
0.139593
0.139587
0.139617
0.139654
0.139688
0.13971
0.13972
0.139723
0.139722
0.13972
0.139718
0.139718
0.139718
0.139719
0.139722
0.139726
0.13973
0.139734
0.139739
0.139744
0.139746
0.139747
0.139746
0.139748
0.139753
0.139764
0.13978
0.139801
0.139827
0.139856
0.139889
0.139925
0.139964
0.140012
0.139967
0.139697
0.139733
0.139774
0.139804
0.139824
0.139837
0.139842
0.139841
0.139836
0.139825
0.139811
0.139793
0.139771
0.139744
0.139705
0.139642
0.139555
0.139457
0.139364
0.139286
0.139237
0.139221
0.13923
0.139258
0.1393
0.139352
0.139414
0.139487
0.139582
0.13971
0.139761
0.139499
0.1392
0.141491
0.153017
0.181658
0.226476
0.268771
0.285708
0.139682
0.139669
0.139654
0.139635
0.13962
0.139611
0.139649
0.139706
0.139751
0.139777
0.139785
0.139784
0.139779
0.139774
0.139771
0.139769
0.139769
0.139772
0.139776
0.139782
0.139789
0.139796
0.139805
0.139815
0.139822
0.139827
0.139832
0.139839
0.139851
0.139867
0.139889
0.139914
0.139943
0.139975
0.14001
0.140046
0.140087
0.140132
0.140098
0.139759
0.139797
0.13984
0.139872
0.139893
0.139908
0.139914
0.139915
0.13991
0.1399
0.139886
0.139868
0.139847
0.139822
0.139784
0.139721
0.139632
0.139535
0.139441
0.139369
0.139327
0.139311
0.139315
0.13934
0.139381
0.139434
0.139498
0.139574
0.139666
0.139786
0.139924
0.13998
0.139822
0.139824
0.1419
0.149537
0.164384
0.181361
0.192172
0.139738
0.139719
0.139697
0.139669
0.139645
0.139634
0.139678
0.139758
0.139815
0.139843
0.139848
0.139841
0.139832
0.139824
0.139818
0.139816
0.139817
0.139821
0.139827
0.139836
0.139846
0.139857
0.139869
0.139883
0.139895
0.139905
0.139915
0.139928
0.139946
0.139967
0.139993
0.140023
0.140055
0.140088
0.140123
0.140159
0.140199
0.140239
0.14022
0.139822
0.139862
0.139907
0.139941
0.139965
0.139981
0.13999
0.139992
0.139989
0.13998
0.139966
0.139948
0.139928
0.139902
0.139864
0.139802
0.139714
0.13962
0.139532
0.139464
0.139425
0.139403
0.139401
0.139419
0.139455
0.139504
0.139567
0.139643
0.139733
0.139844
0.139983
0.140135
0.140224
0.140198
0.140381
0.141875
0.14586
0.151737
0.15717
0.139799
0.139775
0.139745
0.139702
0.139671
0.139658
0.13971
0.139807
0.139872
0.1399
0.139901
0.13989
0.139876
0.139866
0.13986
0.139859
0.139862
0.139868
0.139878
0.139889
0.139902
0.139917
0.139934
0.139952
0.139968
0.139982
0.139998
0.140017
0.140041
0.140069
0.140101
0.140135
0.140169
0.140204
0.140238
0.140272
0.140307
0.14034
0.140336
0.139891
0.139932
0.139977
0.140013
0.140039
0.140058
0.140069
0.140074
0.140073
0.140065
0.140053
0.140036
0.140014
0.139988
0.13995
0.139888
0.139802
0.13971
0.139628
0.139571
0.139527
0.139499
0.139488
0.139497
0.139525
0.139569
0.139626
0.139698
0.139784
0.139888
0.140017
0.140175
0.140348
0.14049
0.14059
0.140873
0.141802
0.143638
0.145935
0.139868
0.139841
0.1398
0.139739
0.139699
0.139685
0.139751
0.139852
0.139919
0.139945
0.139942
0.139927
0.139911
0.139901
0.139897
0.139899
0.139905
0.139916
0.139929
0.139944
0.13996
0.139979
0.14
0.140022
0.140043
0.140062
0.140084
0.140111
0.140143
0.140178
0.140214
0.14025
0.140286
0.140321
0.140354
0.140388
0.140419
0.14045
0.140454
0.139968
0.140008
0.140051
0.140085
0.14011
0.14013
0.140143
0.14015
0.140152
0.140148
0.140139
0.140125