/*--------------------------------*- C++ -*----------------------------------*\
  =========                 |
  \\      /  F ield         | OpenFOAM: The Open Source CFD Toolbox
   \\    /   O peration     | Website:  https://openfoam.org
    \\  /    A nd           | Version:  9
     \\/     M anipulation  |
\*---------------------------------------------------------------------------*/
FoamFile
{
    format      ascii;
    class       volScalarField;
    location    "320";
    object      p;
}
// * * * * * * * * * * * * * * * * * * * * * * * * * * * * * * * * * * * * * //

dimensions      [0 2 -2 0 0 0 0];

internalField   nonuniform List<scalar> 
10720
(
-98.2395
-99.7633
-101.183
-99.1261
-92.0811
-82.9602
-72.0562
-61.9144
-55.7614
-54.1613
-54.6111
-54.7544
-54.2147
-54.0452
-53.8256
-53.4951
-53.0138
-52.6227
-52.6044
-53.0268
-53.7762
-54.8888
-56.5898
-59.11
-62.5069
-66.6317
-71.2649
-76.3106
-81.7417
-87.5974
-93.9763
-100.829
-108.009
-114.881
-121.171
-124.786
-113.247
-85.7456
-147.973
-91.7556
-85.2245
-72.2352
-56.1777
-37.9228
-18.1832
1.86856
20.2143
35.4151
47.343
56.0155
61.8275
65.393
67.2437
67.8203
67.5626
66.5814
64.9611
62.9572
60.6461
58.0295
55.1055
51.8937
48.416
44.8146
41.2274
37.6383
34.0516
30.4826
26.9563
23.4202
19.8701
16.2431
12.4216
8.2611
3.33315
-2.62926
-12.6818
-28.2307
-44.9403
-50.4981
-54.7977
-55.7866
-54.3323
-51.9558
-49.7047
-48.9901
-50.7474
-53.3453
-53.8084
-53.1628
-53.3669
-53.6314
-53.5562
-53.3252
-52.9459
-52.6018
-52.5738
-52.9535
-53.6681
-54.7601
-56.4513
-58.9666
-62.3428
-66.43
-71.0292
-76.0502
-81.4664
-87.3163
-93.6964
-100.563
-107.771
-114.678
-120.982
-124.639
-113.516
-86.5707
-148.372
-39.3016
-33.3676
-26.2578
-17.1646
-6.50608
5.41168
17.9665
30.1097
40.9206
49.9188
56.8753
61.8299
65.0395
66.8139
67.4607
67.2571
66.3258
64.8012
62.8774
60.6279
58.0657
55.1978
52.0461
48.6383
45.0921
41.5282
37.9481
34.3608
30.784
27.2432
23.6889
20.1175
16.4686
12.6269
8.44992
3.51391
-2.44243
-12.485
-27.0905
-39.0669
-43.3817
-46.6014
-48.9883
-50.1427
-50.1851
-49.4656
-48.5801
-48.4993
-49.5174
-50.5199
-51.6601
-52.7612
-53.0855
-53.2123
-53.0766
-52.7732
-52.429
-52.3445
-52.6623
-53.3624
-54.5021
-56.2752
-58.8504
-62.2259
-66.2716
-70.8302
-75.8233
-81.2271
-87.0772
-93.4643
-100.351
-107.592
-114.543
-120.851
-124.484
-113.802
-87.6849
-148.968
-34.0507
-27.467
-19.1872
-9.55464
0.973363
12.1319
23.3323
33.8427
43.1394
50.9188
57.0305
61.4938
64.4779
66.2016
66.8995
66.7768
65.9459
64.5311
62.6901
60.5021
57.994
55.1794
52.0808
48.728
45.2205
41.6712
38.0996
34.5168
30.9411
27.3966
23.8374
20.2587
16.602
12.7537
8.57351
3.64158
-2.29637
-12.2653
-25.9834
-20.6869
-25.0112
-29.177
-32.93
-35.9506
-38.2175
-39.8688
-41.1843
-42.4564
-44.0001
-45.9624
-48.6545
-51.1726
-52.4023
-52.6945
-52.7018
-52.4869
-52.1228
-51.942
-52.1965
-52.9291
-54.1834
-56.0908
-58.7461
-62.1236
-66.126
-70.6392
-75.5987
-80.9851
-86.832
-93.2236
-100.129
-107.408
-114.422
-120.766
-124.403
-114.197
-88.9984
-149.628
-16.2866
-11.252
-5.15973
2.25055
10.4932
19.4059
28.5192
37.1965
44.9873
51.6328
56.9793
60.9944
63.7727
65.4533
66.1995
66.163
65.4408
64.1406
62.3966
60.2888
57.8519
55.1052
52.0716
48.783
45.3267
41.8076
38.2561
34.6861
31.1164
27.5706
24.0077
20.4213
16.7557
12.8992
8.71438
3.78602
-2.12965
-11.9962
-24.9098
-13.9411
-18.2583
-22.4864
-26.474
-29.7712
-32.4059
-34.5132
-36.3188
-38.0912
-40.0703
-42.3301
-44.9496
-47.7397
-50.2302
-51.769
-52.2188
-52.0852
-51.7366
-51.4779
-51.6635
-52.448
-53.8412
-55.8926
-58.6307
-62.018
-65.9867
-70.4586
-75.3827
-80.7461
-86.5828
-92.9728
-99.8954
-107.214
-114.302
-120.699
-124.365
-114.688
-90.5108
-150.149
-9.48586
-4.43078
1.55887
8.48729
15.9261
23.8086
31.7795
39.3289
46.1108
51.9426
56.7017
60.3487
62.9445
64.5818
65.3727
65.4238
64.8149
63.639
62.0077
59.9961
57.6445
54.9763
52.0162
48.7977
45.3993
41.9176
38.3914
34.8382
31.278
27.7342
24.1707
20.5792
16.9071
13.0451
8.85844
3.93767
-1.94748
-11.6807
-23.8318
-6.43314
-10.5091
-14.7033
-18.7887
-22.5131
-25.891
-28.8835
-31.5646
-34.0805
-36.5594
-39.0413
-41.5447
-44.1773
-47.0271
-49.7228
-51.3399
-51.6312
-51.3057
-51.0134
-51.1591
-52.0001
-53.5333
-55.7249
-58.5423
-61.9401
-65.8778
-70.3082
-75.1935
-80.5279
-86.3471
-92.7293
-99.6648
-107.025
-114.196
-120.66
-124.375
-115.257
-92.2042
-150.239
-2.35046
2.1368
7.42322
13.5748
20.1411
27.0908
34.1194
40.774
46.7613
51.9469
56.229
59.567
62.0027
63.5981
64.4287
64.5655
64.0717
63.0262
61.5186
59.617
57.3638
54.786
51.9092
48.7686
45.4358
42.0003
38.5065
34.9765
31.4307
27.8932
24.3324
20.7386
17.0622
13.1968
9.01079
4.10202
-1.74548
-11.3164
-22.7366
-1.68906
-5.65915
-9.81717
-13.9856
-17.8413
-21.4481
-24.7284
-27.714
-30.5332
-33.265
-35.9415
-38.5775
-41.2406
-44.0184
-46.9412
-49.5221
-50.88
-50.9058
-50.594
-50.7308
-51.6408
-53.3006
-55.6127
-58.4952
-61.8978
-65.8037
-70.1914
-75.0348
-80.3351
-86.1303
-92.4986
-99.4434
-106.845
-114.107
-120.655
-124.438
-115.899
-94.0492
-149.703
2.24986
6.49721
11.4424
17.1103
23.0777
29.3524
35.6791
41.6523
47.0246
51.699
55.5929
58.6697
60.9636
62.5172
63.3799
63.5971
63.2171
62.3044
60.9284
59.1483
57.0057
54.5296
51.7461
48.6914
45.4319
42.0516
38.5979
35.0975
31.5717
28.0448
24.4903
20.8973
17.2192
13.353
9.17014
4.27798
-1.52398
-10.9019
-21.6331
2.22232
-1.56955
-5.62154
-9.7285
-13.6082
-17.377
-20.9089
-24.1733
-27.2632
-30.2288
-33.1092
-35.9367
-38.7234
-41.4618
-44.2283
-47.0489
-49.4117
-50.3761
-50.3066
-50.4066
-51.3809
-53.1507
-55.5567
-58.488
-61.8904
-65.7648
-70.11
-74.9101
-80.1735
-85.9409
-92.2919
-99.2423
-106.685
-114.044
-120.693
-124.566
-116.616
-96.0154
-148.505
5.95452
9.91454
14.5061
19.7409
25.2072
30.9321
36.6935
42.1201
46.9976
51.2546
54.8253
57.6785
59.8447
61.3556
62.2411
62.5298
62.2595
61.4781
60.2382
58.5883
56.567
54.203
51.5229
48.5623
45.3846
42.0683
38.6631
35.199
31.699
28.1878
24.6437
21.0549
17.3781
13.5139
9.33766
4.46763
-1.28096
-10.4388
-20.5136
5.14729
1.49586
-2.45073
-6.49677
-10.3594
-14.1739
-17.8161
-21.2135
-24.4484
-27.5573
-30.57
-33.5191
-36.4057
-39.1975
-41.8971
-44.6168
-47.3644
-49.371
-50.0541
-50.2729
-51.2132
-53.0772
-55.5583
-58.5226
-61.9201
-65.764
-70.0677
-74.8235
-80.0472
-85.7826
-92.1127
-99.0659
-106.548
-114.008
-120.773
-124.763
-117.409
-98.0826
-146.732
8.71301
12.4534
16.766
21.6511
26.7107
31.9903
37.2919
42.2741
46.7454
50.6565
53.9544
56.6134
58.6632
60.1286
61.0274
61.3774
61.2092
60.5544
59.4513
57.9371
56.0454
53.803
51.2355
48.3775
45.2899
42.0464
38.6982
35.2777
31.81
28.3198
24.7905
21.2099
17.5378
13.6788
9.51249
4.67006
-1.01664
-9.92758
-19.3863
7.43618
3.93051
0.103012
-3.84979
-7.64965
-11.458
-15.1544
-18.6374
-21.9704
-25.1751
-28.2745
-31.2976
-34.2508
-37.1257
-39.8922
-42.5574
-45.2632
-47.8468
-49.5436
-50.2965
-51.2104
-53.0664
-55.6194
-58.6046
-61.9912
-65.8053
-70.0689
-74.7803
-79.9632
-85.6646
-91.9723
-98.9263
-106.448
-114.013
-120.91
-125.04
-118.284
-100.232
-144.488
10.8448
14.383
18.4497
23.0344
27.7517
32.6583
37.5766
42.1876
46.3197
49.9391
53.0038
55.4917
57.4339
58.8501
59.7518
60.1538
60.0775
59.5424
58.5733
57.1973
55.441
53.3278
50.8811
48.1342
45.1447
41.9831
38.7002
35.3313
31.9024
28.4392
24.9296
21.3616
17.6979
13.848
9.69567
4.88746
-0.729282
-9.3701
-18.2425
9.20193
5.83008
2.1189
-1.73513
-5.45924
-9.22502
-12.9249
-16.4426
-19.8193
-23.0708
-26.2191
-29.2909
-32.2914
-35.2288
-38.0871
-40.8135
-43.4424
-46.128
-48.5997
-50.2217
-51.4186
-53.1519
-55.7301
-58.739
-62.1087
-65.8929
-70.1178
-74.7853
-79.9263
-85.5916
-91.8747
-98.8284
-106.39
-114.064
-121.107
-125.403
-119.25
-102.451
-141.895
12.4687
15.8308
19.6838
24.0102
28.4356
33.0252
37.6183
41.915
45.7592
49.1291
51.9912
54.327
56.1682
57.5317
58.4279
58.8719
58.8766
58.4517
57.6116
56.373
54.7552
52.7769
50.4581
47.8293
44.9459
41.8746
38.6657
35.356
31.9731
28.5432
25.0586
21.508
17.857
14.0202
9.88595
5.11819
-0.4197
-8.76865
-17.0907
10.5673
7.32051
3.72421
-0.0265381
-3.66241
-7.36603
-11.0362
-14.5581
-17.952
-21.2226
-24.3946
-27.4961
-30.5297
-33.5055
-36.424
-39.2463
-41.9228
-44.5653
-47.3571
-49.8308
-51.6572
-53.4224
-55.8871
-58.9247
-62.2788
-66.0318
-70.2195
-74.8449
-79.9441
-85.5733
-91.8315
-98.7859
-106.391
-114.181
-121.382
-125.865
-120.32
-104.729
-139.05
13.7017
16.9058
20.5703
24.6693
28.8421
33.1585
37.4708
41.4973
45.0929
48.2468
50.9315
53.1308
54.8749
56.1826
57.0682
57.5441
57.6183
57.2931
56.5744
55.4698
53.9911
52.1512
49.9657
47.4617
44.6916
41.7188
38.5922
35.3496
32.0202
28.6302
25.1763
21.6483
18.0147
14.1955
10.0845
5.36449
-0.0860896
-8.12529
-15.9233
11.609
8.47936
4.99381
1.34639
-2.19869
-5.82773
-9.44725
-12.9503
-16.3394
-19.6087
-22.7837
-25.8963
-28.9475
-31.9468
-34.9001
-37.7962
-40.5918
-43.2737
-46.0934
-49.0892
-51.6982
-53.8145
-56.1615
-59.1445
-62.5051
-66.2276
-70.3795
-74.9645
-80.0232
-85.6161
-91.8496
-98.8057
-106.458
-114.374
-121.749
-126.438
-121.509
-107.063
-136.053
14.6222
17.685
21.1804
25.0791
29.0297
33.1074
37.175
40.9651
44.3443
47.309
49.8359
51.9099
53.5614
54.813
55.6826
56.1814
56.3136
56.0771
55.4706
54.4945
53.1529
51.4527
49.4042
47.0302
44.3797
41.5127
38.4764
35.3089
32.0402
28.697
25.2799
21.78
18.169
14.3723
10.2895
5.6241
0.269859
-7.44401
-14.7492
12.3914
9.36959
5.99109
2.44508
-1.00612
-4.55693
-8.11188
-11.5774
-14.9488
-18.2034
-21.3668
-24.4756
-27.5309
-30.5432
-33.5217
-36.4669
-39.3692
-42.1819
-45.0029
-48.1541
-51.4142
-54.1429
-56.5838
-59.4236
-62.7802
-66.4872
-70.6044
-75.1515
-80.1724
-85.7307
-91.9417
-98.9027
-106.609
-114.664
-122.231
-127.144
-122.835
-109.45
-132.976
15.2926
18.2267
21.5709
25.2891
29.0431
32.91
36.7609
40.343
43.5312
46.3287
48.7138
50.6711
52.2339
53.4305
54.2798
54.7929
54.9726
54.8136
54.3095
53.4545
52.2459
50.6845
48.775
46.5351
44.0096
41.2551
38.3167
35.2319
32.0316
28.7423
25.3683
21.9027
18.3198
14.5509
10.5022
5.89928
0.649904
-6.72674
-13.5618
12.9613
10.0411
6.76394
3.31676
-0.0432044
-3.51228
-6.99582
-10.4112
-13.7537
-16.9839
-20.1254
-23.2194
-26.2689
-29.2859
-32.2829
-35.264
-38.2372
-41.187
-44.0996
-47.2368
-50.8317
-54.2404
-57.0591
-59.8246
-63.0988
-66.8122
-70.901
-75.4128
-80.3989
-85.9254
-92.1167
-99.0872
-106.856
-115.063
-122.844
-128.001
-124.318
-111.891
-129.893
15.7593
18.5764
21.7827
25.339
28.9166
32.5948
36.2529
39.6493
42.6679
45.3152
47.5706
49.4195
50.8988
52.0414
52.8671
53.3875
53.6048
53.5122
53.1001
52.3574
51.2762
49.8508
48.0805
45.977
43.5806
40.9443
38.1107
35.1158
31.9911
28.7627
25.4385
22.0133
18.4644
14.7291
10.7204
6.18718
1.05168
-5.97913
-12.3702
13.3568
10.5313
7.35099
3.99866
0.728827
-2.65947
-6.06815
-9.42385
-12.7299
-15.9296
-19.0427
-22.1141
-25.1498
-28.1636
-31.1712
-34.1796
-37.2006
-40.2474
-43.3025
-46.4541
-50.1003
-54.0276
-57.4342
-60.3403
-63.5016
-67.1944
-71.2762
-75.7571
-80.7122
-86.2115
-92.3878
-99.3747
-107.216
-115.592
-123.608
-129.027
-125.977
-114.381
-126.86
16.0593
18.7691
21.8501
25.2584
28.677
32.1856
35.67
38.8993
41.7658
44.2771
46.4126
48.1603
49.5613
50.6511
51.4505
51.9718
52.2182
52.1817
51.851
51.2114
50.2502
48.9565
47.3237
45.3576
43.0934
40.5801
37.8573
34.9593
31.9174
28.7573
25.4897
22.1115
18.603
14.9076
10.9455
6.48997
1.47672
-5.20272
-11.1693
13.6082
10.8717
7.7827
4.5218
1.33783
-1.96868
-5.30222
-8.59327
-11.8558
-15.0218
-18.1023
-21.1456
-24.1611
-27.1648
-30.1745
-33.2015
-36.2585
-39.3677
-42.5458
-45.7943
-49.3892
-53.5454
-57.5743
-60.8839
-64.0233
-67.6447
-71.7269
-76.1915
-81.1205
-86.5977
-92.7654
-99.7765
-107.702
-116.263
-124.535
-130.231
-127.826
-116.915
-123.949
16.2217
18.8331
21.7984
25.0719
28.3459
31.6998
35.0269
38.1053
40.8335
43.2203
45.2443
46.8975
48.2253
49.2641
50.0349
50.5525
50.82
50.8302
50.5705
50.0244
49.175
48.0071
46.5085
44.6792
42.5488
40.162
37.5551
34.7602
31.8077
28.7231
25.5188
22.1942
18.7325
15.0835
11.1746
6.80426
1.92174
-4.40457
-9.96856
13.7397
11.0861
8.08475
4.91058
1.81069
-1.41774
-4.67677
-7.89926
-11.1126
-14.2421
-17.288
-20.2996
-23.2903
-26.2784
-29.2832
-32.3195
-35.4038
-38.5572
-41.8167
-45.1898
-48.7802
-52.9303
-57.4127
-61.3157
-64.6447
-68.1984
-72.2514
-76.7211
-81.6331
-87.0945
-93.2612
-100.306
-108.328
-117.089
-125.634
-131.616
-129.864
-119.48
-121.213
16.2702
18.7904
21.6495
24.7982
27.9402
31.1533
34.3358
37.2765
39.8785
42.1498
44.0703
45.6357
46.8948
47.8839
48.6252
49.1345
49.4166
49.4648
49.2665
48.8038
48.0576
47.0085
45.6396
43.9451
41.9488
39.691
37.2042
34.5181
31.6614
28.6591
25.5252
22.2613
18.8534
15.2576
11.4093
7.1319
2.38809
-3.58598
-8.76469
13.7713
11.1963
8.27731
5.18661
2.16594
-0.985039
-4.17198
-7.32587
-10.4848
-13.575
-16.5852
-19.5629
-22.5255
-25.4935
-28.4879
-31.5256
-34.6274
-37.8145
-41.1249
-44.5949
-48.2513
-52.3257
-56.9894
-61.4984
-65.2712
-68.8709
-72.872
-77.3414
-82.2555
-87.71
-93.8842
-100.973
-109.103
-118.076
-126.905
-133.175
-132.076
-122.059
-118.718
16.224
18.6597
21.4196
24.4539
27.4735
30.5568
33.607
36.4212
38.9068
41.0701
42.894
44.3778
45.5723
46.5133
47.2244
47.7223
48.0134
48.0919
47.9461
47.5573
46.905
45.9669
44.7219
43.1588
41.2958
39.168
36.8044
34.2314
31.4763
28.5628
25.506
22.3094
18.9623
15.4266
11.6462
7.46895
2.87158
-2.75484
-7.56767
13.7194
11.2179
8.37784
5.36655
2.42288
-0.654807
-3.77069
-6.85662
-9.95868
-13.0077
-15.981
-18.9234
-21.8547
-24.799
-27.7784
-30.8112
-33.9213
-37.1324
-40.4776
-44.006
-47.7467
-51.7926
-56.4293
-61.3596
-65.7505
-69.6279
-73.6168
-78.0602
-82.9871
-88.4509
-94.6426
-101.784
-110.032
-119.222
-128.338
-134.887
-134.431
-124.628
-116.513
16.0992
18.4557
21.124
24.051
26.9577
29.921
32.8484
35.5458
37.923
39.9853
41.7188
43.1271
44.2603
45.1553
45.8357
46.3199
46.6151
46.7173
46.6154
46.2915
45.724
44.8885
43.7608
42.3247
40.5927
38.5949
36.3566
33.9007
31.2523
28.4338
25.4609
22.3388
19.0596
15.5916
11.8867
7.81718
3.37289
-1.91204
-6.3751
13.5979
11.1664
8.40094
5.4657
2.59467
-0.410881
-3.45828
-6.47798
-9.5208
-12.5266
-15.4632
-18.3697
-21.2679
-24.1853
-27.1456
-30.1681
-33.2782
-36.5028
-39.8722
-43.4333
-47.2346
-51.3086
-55.8582
-60.9421
-65.9314
-70.3479
-74.4863
-78.8989
-83.8253
-89.3162
-95.5395
-102.744
-111.115
-120.521
-129.917
-136.728
-136.889
-127.173
-114.668
15.9089
18.1915
20.7732
23.6009
26.4021
29.2536
32.0671
34.656
36.9315
38.8991
40.5481
41.8859
42.9615
43.8121
44.4618
44.9301
45.2256
45.3456
45.2803
45.0129
44.5212
43.78
42.762
41.4474
39.8429
37.9741
35.8617
33.5257
30.9882
28.2702
25.3873
22.3463
19.1421
15.7489
12.1268
8.17197
3.88719
-1.06607
-5.19764
13.4182
11.0527
8.35883
5.49621
2.69572
-0.241714
-3.22219
-6.17736
-9.15981
-12.1196
-15.0193
-17.8904
-20.7547
-23.643
-26.5808
-29.5879
-32.6913
-35.9193
-39.303
-42.883
-46.715
-50.8301
-55.3271
-60.3762
-65.7474
-70.8465
-75.4091
-79.8743
-84.7847
-90.3009
-96.5718
-103.849
-112.344
-121.953
-131.613
-138.663
-139.406
-129.679
-113.256
15.6643
17.8771
20.3782
23.1118
25.8147
28.5622
31.2691
33.756
35.936
37.8147
39.3849
40.6563
41.6775
42.4853
43.1048
43.5559
43.8485
43.9813
43.9463
43.7272
43.3028
42.6472
41.7314
40.5319
39.0507
37.3084
35.3219
33.1076
30.6847
28.0722
25.2854
22.3322
19.2103
15.8995
12.3681
8.53458
4.41474
-0.217666
-4.0341
13.1905
10.8879
8.26205
5.46922
2.7353
-0.134996
-3.05124
-5.94468
-8.86673
-11.7773
-14.6391
-17.4748
-20.3045
-23.1619
-26.0744
-29.0621
-32.1528
-35.3761
-38.7639
-42.3532
-46.1956
-50.3339
-54.8173
-59.78
-65.2669
-70.9594
-76.2083
-80.9559
-85.8803
-91.407
-97.7273
-105.087
-113.705
-123.498
-133.397
-140.658
-141.936
-132.146
-112.365
15.3747
17.5221
19.9464
22.5922
25.2025
27.8521
30.4594
32.8507
34.9399
36.7349
38.231
39.4401
40.41
41.1772
41.7668
42.1996
42.4868
42.6282
42.6175
42.4397
42.0746
41.4961
40.6746
39.5834
38.2204
36.6013
34.7394
32.6473
30.3415
27.8385
25.1533
22.2939
19.261
16.0396
12.6063
8.90004
4.94984
0.624822
-2.89501
12.923
10.6799
8.11972
5.39388
2.72473
-0.0821946
-2.93565
-5.76865
-8.63186
-11.4919
-14.3145
-17.1144
-19.9088
-22.7333
-25.6177
-28.5824
-31.6554
-34.8669
-38.2493
-41.8387
-45.6799
-49.8191
-54.2966
-59.1926
-64.6318
-70.6468
-76.6555
-82.0072
-87.1041
-92.6458
-99.0001
-106.437
-115.171
-125.119
-135.224
-142.671
-144.434
-134.56
-112.012
15.0485
17.1336
19.4859
22.0479
24.5714
27.1289
29.6421
31.9428
33.9461
35.662
37.0889
38.2393
39.1604
39.8886
40.449
40.8632
41.1428
41.2895
41.298
41.1552
40.8418
40.3326
39.5972
38.6073
37.3565
35.8565
34.1169
32.1471
29.9601
27.5702
24.9912
22.232
19.2948
16.17
12.8423
9.26932
5.49201
1.4609
-1.7795
12.6231
10.4375
7.93975
5.2785
2.67096
-0.0732811
-2.86629
-5.64082
-8.4457
-11.2537
-14.0361
-16.8001
-19.5588
-22.349
-25.2026
-28.1408
-31.1915
-34.3848
-37.7536
-41.3334
-45.1642
-49.289
-53.7481
-58.5958
-63.9445
-70.0118
-76.5887
-82.7772
-88.3567
-94.0118
-100.393
-107.882
-116.708
-126.774
-137.05
-144.66
-146.845
-136.915
-112.181
14.6924
16.7186
19.0019
21.4852
23.926
26.3961
28.8209
31.0356
32.9573
34.5984
35.9601
37.0553
37.9302
38.6212
39.1532
39.5482
39.8191
39.968
39.9914
39.8779
39.6096
39.1619
38.5049
37.6088
36.4638
35.0782
33.4578
31.6088
29.5412
27.267
24.7983
22.1442
19.3089
16.2875
13.0716
9.63704
6.0352
2.28251
-0.697706
12.297
10.1661
7.72908
5.12997
2.58285
-0.101997
-2.83573
-5.55233
-8.30082
-11.0552
-13.7955
-16.5233
-19.2461
-22.0009
-24.8213
-27.7297
-30.7537
-33.9233
-37.271
-40.8321
-44.6437
-48.7434
-53.1694
-57.9655
-63.2287
-69.2041
-76.0191
-83.0061
-89.4014
-95.4335
-101.895
-109.414
-118.285
-128.413
-138.808
-146.559
-149.097
-139.159
-112.801
14.3127
16.2825
18.5005
20.908
23.2708
25.6583
27.9985
30.1314
31.9759
33.5462
34.8465
35.8893
36.7207
37.376
37.8803
38.2564
38.5171
38.6661
38.7008
38.6116
38.3821
37.9888
37.4026
36.5929
35.5475
34.2706
32.7657
31.0355
29.0873
26.9305
24.5756
22.0316
19.3041
16.3924
13.2952
10.0035
6.5786
3.08915
0.35111
11.9504
9.87254
7.4937
4.95485
2.46545
-0.160202
-2.83663
-5.49735
-8.19015
-10.8901
-13.5858
-16.2762
-18.9628
-21.681
-24.4663
-27.3417
-30.3348
-33.4751
-36.7951
-40.329
-44.112
-48.1767
-52.5573
-57.2899
-62.4653
-68.3089
-75.0935
-82.5753
-89.9132
-96.6901
-103.441
-111.009
-119.881
-129.997
-140.43
-148.281
-151.084
-141.194
-113.765
13.9145
15.8304
17.9854
20.3215
22.6095
24.9182
27.1783
29.233
31.004
32.5073
33.7493
34.7427
35.5324
36.1537
36.6318
36.9887
37.2388
37.3857
37.4289
37.3597
37.1634
36.8181
36.2955
35.5651
34.6122
33.4384
32.0443
30.4301
28.6002
26.5614
24.3227
21.8926
19.2779
16.4815
13.5086
10.3633
7.11571
3.8735
1.35787
11.5879
9.56094
7.23893
4.75865
2.32613
-0.24321
-2.86294
-5.46823
-8.10695
-10.7528
-13.4014
-16.0527
-18.702
-21.3824
-24.1301
-26.9695
-29.9279
-33.0339
-36.3196
-39.8183
-43.5634
-47.5832
-51.9072
-56.563
-61.6374
-67.3403
-73.9632
-81.5723
-89.649
-97.4214
-104.821
-112.594
-121.457
-131.491
-141.86
-149.73
-152.678
-142.833
-114.857
13.5023
15.3665
17.4617
19.7285
21.9456
24.1793
26.3623
28.3423
30.0434
31.4832
32.6701
33.6165
34.3668
34.9557
35.4081
35.7467
35.9852
36.129
36.1779
36.1251
35.957
35.6539
35.1883
34.53
33.663
32.5861
31.2979
29.7961
28.0826
26.162
24.0415
21.7286
19.2312
16.5557
13.7121
10.7164
7.64552
4.6351
2.32372
11.2141
9.23681
6.96947
4.54641
2.16837
-0.344317
-2.90887
-5.46037
-8.04481
-10.637
-13.2365
-15.8469
-18.4577
-21.0985
-23.8062
-26.6063
-29.5259
-32.5927
-35.8378
-39.2936
-42.9914
-46.9564
-51.2124
-55.7796
-60.7367
-66.2866
-72.7014
-80.1805
-88.5874
-97.2726
-105.644
-113.945
-122.909
-132.83
-143.035
-150.821
-153.759
-143.905
-115.814
13.0803
14.8949
16.9318
19.1329
21.2816
23.4433
25.5532
27.4613
29.0958
30.4753
31.6098
32.5116
33.2245
33.7826
34.2105
34.5309
34.7577
34.897
34.9497
34.9101
34.7663
34.4998
34.0849
33.4922
32.7043
31.7182
30.5305
29.1371
27.5375
25.734
23.7321
21.5389
19.1623
16.6116
13.9016
11.0574
8.16127
5.36725
3.24092
10.8325
8.90296
6.68961
4.32223
1.99853
-0.459984
-2.96964
-5.46692
-7.99818
-10.5364
-13.0849
-15.6523
-18.2231
-20.8231
-23.4885
-26.2459
-29.1225
-32.145
-35.3435
-38.7489
-42.3906
-46.2901
-50.4667
-54.9331
-59.7583
-65.1383
-71.3248
-78.5462
-86.9032
-96.1037
-105.468
-114.643
-123.984
-133.867
-143.845
-151.441
-154.211
-144.288
-116.352
12.6522
14.4184
16.3999
18.5368
20.6203
22.7133
24.7526
26.5917
28.1624
29.4847
30.5694
31.429
32.1063
32.6352
33.0398
33.3424
33.5574
33.6913
33.7462
33.7172
33.5937
33.3593
32.9895
32.4559
31.7407
30.8392
29.7465
28.457
26.968
25.2802
23.3972
21.3251
19.0724
16.6502
14.0771
11.3858
8.66195
6.0699
4.11137
10.4465
8.56409
6.40282
4.09029
1.81898
-0.584579
-3.04035
-5.48481
-7.96213
-10.4468
-12.9419
-15.4635
-17.9925
-20.5499
-23.1708
-25.8822
-28.7116
-31.6849
-34.8305
-38.178
-41.7548
-45.5787
-49.6638
-54.0167
-58.6967
-63.8896
-69.8308
-76.738
-84.8045
-94.0418
-104.035
-114.164
-124.207
-134.282
-144.077
-151.41
-153.857
-143.843
-116.25
12.2208
13.9405
15.8676
17.9435
19.9638
21.9905
23.9622
25.735
27.2447
28.5127
29.55
30.3695
31.0131
31.5141
31.8963
32.1818
32.3851
32.5131
32.5686
32.5478
32.442
32.2352
31.9054
31.4252
30.7765
29.9536
28.9501
27.7595
26.3774
24.8028
23.0377
21.0874
18.9602
16.6688
14.2348
11.6965
9.14128
6.73685
4.92865
10.059
8.22212
6.11257
3.85382
1.63503
-0.71573
-3.11746
-5.50849
-7.93272
-10.3638
-12.8046
-15.2769
-17.7611
-20.2738
-22.8477
-25.5099
-28.2878
-31.2067
-34.2933
-37.5755
-41.0784
-44.8164
-48.7987
-53.0254
-57.547
-62.5379
-68.2173
-74.7812
-82.436
-91.347
-101.419
-112.164
-122.993
-133.528
-143.31
-150.399
-152.409
-142.26
-115.239
11.789
13.4634
15.3382
17.3543
19.314
21.2771
23.1831
24.8924
26.3437
27.5601
28.5524
29.3338
29.9454
30.4199
30.7808
31.0499
31.2415
31.3633
31.4182
31.4042
31.3128
31.1304
30.836
30.4037
29.8157
29.0653
28.1455
27.0487
25.7694
24.3051
22.6564
20.8277
18.827
16.6682
14.375
11.9891
9.59822
7.36839
5.69534
9.67264
7.88089
5.82163
3.61606
1.4482
-0.848519
-3.19695
-5.53538
-7.90557
-10.2827
-12.6686
-15.0889
-17.5253
-19.9906
-22.5145
-25.1238
-27.8459
-30.7052
-33.7267
-36.9361
-40.3565
-43.9988
-47.8671
-51.9553
-56.3056
-61.0807
-66.4829
-72.6852
-79.8728
-88.2516
-97.9236
-108.683
-119.954
-130.978
-140.919
-147.866
-149.402
-139.05
-112.927
11.3592
12.9896
14.8131
16.7718
18.6725
20.574
22.4172
24.0652
25.4607
26.6279
27.5773
28.3224
28.9037
29.3531
29.6938
29.9471
30.1274
30.2424
30.2964
30.2872
30.2084
30.047
29.7838
29.3947
28.8619
28.1783
27.3366
26.3284
25.1474
23.7897
22.255
20.5466
18.6723
16.6464
14.4939
12.2587
10.0272
7.95929
6.40639
9.28949
7.54169
5.53266
3.37951
1.26315
-0.981396
-3.27601
-5.56075
-7.87727
-10.1997
-12.5297
-14.8952
-17.2809
-19.6962
-22.1673
-24.7199
-27.3817
-30.1761
-33.1262
-36.256
-39.5851
-43.1218
-46.8653
-50.8034
-54.9706
-59.5171
-64.6289
-70.456
-77.1532
-84.9078
-93.8869
-104.092
-115.164
-126.289
-136.312
-143.167
-144.272
-133.68
-108.763
10.9336
12.5208
14.2948
16.1971
18.0411
19.8832
21.6653
23.2545
24.5966
25.7166
26.6251
27.3358
27.8883
28.314
28.6354
28.8737
29.043
29.1516
29.2036
29.1984
29.1301
28.9869
28.7515
28.401
27.9185
27.2964
26.5272
25.6024
24.5149
23.26
21.8364
20.2465
18.4977
16.6044
14.592
12.5053
10.4276
8.51014
7.06516
8.9117
7.20767
5.24768
3.14672
1.08062
-1.1103
-3.35149
-5.58309
-7.84472
-10.1116
-12.3847
-14.6925
-17.0246
-19.3869
-21.8022
-24.2947
-26.8915
-29.6157
-32.4884
-35.5311
-38.761
-42.1826
-45.7911
-49.5685
-53.5416
-57.8487
-62.659
-68.1008
-74.2982
-81.3994
-89.5578
-98.8515
-109.109
-119.681
-129.346
-135.926
-136.636
-125.974
-102.348
10.5139
12.0589
13.7841
15.6323
17.4209
19.2053
20.9287
22.4613
23.7521
24.827
25.6966
26.3744
26.8995
27.303
27.606
27.8303
27.9889
28.0912
28.1408
28.1388
28.0789
27.952
27.741
27.4254
26.9886
26.4229
25.721
24.8742
23.8753
22.7188
21.4026
19.9284
18.3031
16.5406
14.6664
12.7245
10.7945
9.01661
7.66766
8.54079
6.8796
4.96878
2.91957
0.904474
-1.23426
-3.42118
-5.59843
-7.80521
-10.0157
-12.2308
-14.4783
-16.7534
-19.0594
-21.4159
-23.8448
-26.3725
-29.0211
-31.8103
-34.7592
-37.8819
-41.1799
-44.6438
-48.2508
-52.0205
-56.0793
-60.5796
-65.6297
-71.3252
-77.7743
-85.0859
-93.3262
-102.402
-111.832
-120.535
-126.42
-126.654
-116.236
-93.9336
10.1019
11.6055
13.2834
15.0781
16.8133
18.542
20.2081
21.6862
22.9279
23.9597
24.7921
25.4386
25.9382
26.3199
26.6064
26.8165
26.9659
27.0612
27.1091
27.1085
27.0565
26.9433
26.7543
26.47
26.0746
25.5607
24.921
24.1472
23.2319
22.1692
20.9565
19.5947
18.0901
16.4561
14.7175
12.9166
11.128
9.47991
8.21783
8.17848
6.56006
4.69746
2.69991
0.734913
-1.35003
-3.48282
-5.60592
-7.75636
-9.90958
-12.0658
-14.2513
-16.4657
-18.7117
-21.006
-23.3678
-25.8221
-28.3902
-31.0902
-33.9387
-36.9468
-40.1129
-43.4238
-46.8522
-50.4111
-54.215
-58.4001
-63.0561
-68.2534
-74.0647
-80.5517
-87.7355
-95.5192
-103.511
-110.804
-115.56
-115.138
-105.205
-84.5562
9.69894
11.1619
12.7931
14.5362
16.2191
17.8935
19.5046
20.9302
22.1246
23.1152
23.912
24.529
25.0039
25.3659
25.6358
25.8337
25.9732
26.0629
26.1078
26.1091
26.0633
25.9623
25.7929
25.5367
25.1789
24.7125
24.1304
23.4246
22.5878
21.614
20.5002
19.2468
17.8592
16.3502
14.7432
13.0783
11.4244
9.89671
8.71252
7.82587
6.24945
4.43529
2.48911
0.575052
-1.45719
-3.535
-5.60247
-7.69638
-9.79128
-11.8874
-14.0099
-16.1604
-18.3427
-20.5712
-22.8622
-25.239
-27.7218
-30.3272
-33.0691
-35.956
-38.983
-42.1336
-45.3766
-48.7188
-52.2638
-56.1321
-60.396
-65.1044
-70.2998
-76.0041
-82.1935
-88.7377
-95.2726
-101.021
-104.441
-103.254
-93.9073
-75.2983
9.30627
10.7293
12.3149
14.0072
15.6394
17.2611
18.8186
20.1936
21.3427
22.2938
23.0567
23.6455
24.0973
24.4404
24.6951
24.8811
25.0118
25.0957
25.1381
25.1404
25.1
25.0099
24.8578
24.6271
24.3037
23.8807
23.3516
22.709
21.9458
21.056
20.0363
18.8867
17.612
16.2239
14.7442
13.21
11.6841
10.2687
9.15614
7.48425
5.94983
4.18333
2.28858
0.424732
-1.55318
-3.57586
-5.58772
-7.6236
-9.65913
-11.6939
-13.7519
-15.8358
-17.9513
-20.1106
-22.3273
-24.6226
-27.0156
-29.5213
-32.1511
-34.9109
-37.7927
-40.7768
-43.829
-46.9514
-50.2362
-53.7893
-57.6677
-61.9015
-66.5091
-71.4815
-76.7597
-82.1839
-87.3982
-91.7165
-93.8579
-91.951
-83.1985
-66.735
8.92491
10.3086
11.8492
13.4921
15.0746
16.645
18.1507
19.4769
20.5825
21.4958
22.2264
22.7886
23.2184
23.5437
23.7841
23.9589
24.0814
24.1598
24.1997
24.2028
24.1672
24.0866
23.9501
23.7425
23.4503
23.0671
22.5869
22.0029
21.3084
20.4975
19.5669
18.5161
17.3493
16.0771
14.7194
13.3098
11.9047
10.5936
9.54619
7.15444
5.66136
3.94272
2.09923
0.286424
-1.63807
-3.60461
-5.55949
-7.53693
-9.51203
-11.4841
-13.476
-15.4907
-17.5365
-19.6237
-21.7629
-23.9733
-26.2723
-28.6737
-31.1867
-33.8141
-36.5456
-39.3587
-42.2169
-45.1179
-48.1437
-51.3868
-54.8902
-58.6691
-62.7221
-67.0178
-71.4735
-75.9126
-79.9907
-83.0977
-84.1716
-81.7074
-73.5519
-59.1038
8.55587
9.90076
11.3973
12.9914
14.5256
16.0461
17.5012
18.7804
19.8443
20.7214
21.4212
21.958
22.3671
22.6757
22.9027
23.0672
23.1819
23.2553
23.2928
23.2965
23.265
23.1928
23.0706
22.8838
22.6201
22.2734
21.8383
21.3085
20.6779
19.9409
19.094
18.1368
17.0727
15.9109
14.6695
13.3783
12.0872
10.8735
9.88735
6.83733
5.38564
3.71425
1.92205
0.159644
-1.70996
-3.6202
-5.51801
-7.43549
-9.34905
-11.2572
-13.1818
-15.125
-17.0984
-19.1102
-21.1691
-23.2915
-25.4933
-27.7864
-30.1784
-32.6696
-35.2469
-37.8859
-40.5484
-43.2287
-45.9997
-48.9409
-52.0837
-55.4311
-58.9668
-62.6436
-66.3652
-69.9502
-73.0742
-75.2005
-75.4505
-72.624
-65.0848
-52.4644
8.19975
9.50631
10.9593
12.5058
13.9927
15.4645
16.8707
18.1043
19.1283
19.9706
20.6412
21.1539
21.5435
21.8363
22.0509
22.2057
22.3133
22.382
22.4173
22.4214
22.3936
22.3292
22.2196
22.0518
21.8143
21.5009
21.1072
20.6275
20.0562
19.3881
18.6198
17.7505
16.7832
15.7259
14.5943
13.4147
12.2304
11.1074
10.1777
6.53332
5.12254
3.49864
1.75757
0.0463402
-1.76916
-3.62227
-5.4617
-7.31901
-9.16997
-11.0131
-12.8692
-14.7397
-16.6379
-18.5714
-20.5472
-22.579
-24.6805
-26.8624
-29.1303
-31.482
-33.9027
-36.3662
-38.8332
-41.2958
-43.8181
-46.4684
-49.2681
-52.2106
-55.269
-58.3863
-61.4599
-64.3121
-66.6463
-67.9968
-67.6409
-64.627
-57.7155
-46.7269
7.85714
9.12578
10.536
12.0355
13.4762
14.9006
16.2592
17.4489
18.4344
19.2436
19.8862
20.3762
20.7474
21.0254
21.2284
21.3743
21.4753
21.5397
21.573
21.5776
21.5531
21.4956
21.3975
21.2472
21.0332
20.7505
20.3949
19.9615
19.445
18.8408
18.1457
17.3587
16.4822
15.5231
14.4949
13.4201
12.3359
11.2976
10.4221
6.24295
4.87314
3.29626
1.60638
-0.0540746
-1.81431
-3.61021
-5.39125
-7.18709
-8.9746
-10.7518
-12.5385
-14.3353
-16.1562
-18.0088
-19.899
-21.8379
-23.837
-25.9053
-28.0468
-30.2572
-32.5202
-34.8082
-37.0818
-39.3314
-41.6137
-43.9864
-46.4629
-49.0295
-51.6524
-54.2691
-56.7764
-59.0065
-60.6945
-61.4416
-60.6572
-57.5908
-51.3035
-41.7533
7.52834
8.75953
10.1274
11.581
12.9765
14.3547
15.667
16.8142
17.7628
18.5402
19.1562
19.6246
19.9785
20.2427
20.4349
20.5726
20.6676
20.7281
20.7595
20.7646
20.7432
20.6921
20.6045
20.4697
20.2774
20.0228
19.7023
19.3114
18.8456
18.3005
17.6733
16.9629
16.171
15.3035
14.3717
13.3946
12.4035
11.4442
10.6193
5.96637
4.63711
3.10745
1.46871
-0.140422
-1.846
-3.584
-5.30566
-7.03987
-8.76327
-10.4738
-12.1901
-13.9126
-15.6545
-17.4243
-19.2269
-21.0711
-22.9661
-24.9193
-26.9331
-29.0017
-31.1071
-33.2212
-35.3054
-37.3488
-39.4011
-41.5116
-43.6867
-45.9078
-48.1372
-50.3106
-52.3282
-54.0359
-55.201
-55.4867
-54.4131
-51.3901
-45.7041
-37.4015
7.21369
8.40779
9.73404
11.1423
12.4938
13.8267
15.0941
16.2003
17.1134
17.8604
18.451
18.899
19.2366
19.4878
19.6701
19.8002
19.8898
19.9468
19.9767
19.9823
19.9637
19.9183
19.8403
19.7197
19.5472
19.3184
19.03
18.6782
18.2589
17.7684
17.2038
16.5641
15.8507
15.0682
14.226
13.3397
12.4353
11.5497
10.7741
5.70381
4.41511
2.93223
1.3447
-0.213522
-1.86341
-3.54352
-5.20587
-6.87763
-8.5364
-10.1797
-11.825
-13.4724
-15.1344
-16.8201
-18.5338
-20.2821
-22.072
-23.9095
-25.7954
-27.7225
-29.6719
-31.6154
-33.5153
-35.3608
-37.1953
-39.0601
-40.9567
-42.8633
-44.7404
-46.5251
-48.1235
-49.3972
-50.1447
-50.0843
-48.828
-45.9122
-40.7917
-33.5625
6.91327
8.07074
9.35589
10.7199
12.028
13.317
14.5406
15.6072
16.4861
17.204
17.7704
18.1991
18.5213
18.7605
18.9335
19.0568
19.1415
19.1954
19.2238
19.23
19.2141
19.1741
19.1046
18.997