/*--------------------------------*- C++ -*----------------------------------*\
  =========                 |
  \\      /  F ield         | OpenFOAM: The Open Source CFD Toolbox
   \\    /   O peration     | Website:  https://openfoam.org
    \\  /    A nd           | Version:  9
     \\/     M anipulation  |
\*---------------------------------------------------------------------------*/
FoamFile
{
    format      ascii;
    class       volVectorField;
    location    "320";
    object      U;
}
// * * * * * * * * * * * * * * * * * * * * * * * * * * * * * * * * * * * * * //

dimensions      [0 1 -1 0 0 0 0];

internalField   nonuniform List<vector> 
10720
(
(-2.32219 17.391 2.23695e-17)
(-1.39605 17.5288 -2.24468e-17)
(-0.436169 17.2958 0)
(0.481832 16.4748 -2.30155e-16)
(1.27336 15.1011 2.72233e-16)
(1.84705 13.0715 1.55725e-16)
(2.07193 10.3558 1.95874e-16)
(1.87473 7.11386 0)
(1.26181 3.65797 0)
(0.313246 0.53362 0)
(-0.850374 -0.985861 1.24417e-17)
(-1.59721 -1.31847 0)
(-2.03643 -1.3723 2.45242e-15)
(-2.17264 -1.33439 0)
(-2.24782 -1.28098 0)
(-2.13864 -1.12683 0)
(-1.8917 -0.927639 -4.47032e-15)
(-1.51945 -0.708475 -7.25444e-15)
(-1.12448 -0.49848 7.74876e-15)
(-0.815476 -0.314004 0)
(-0.735014 -0.180075 8.82472e-15)
(-1.03874 -0.123457 -1.34961e-14)
(-1.7162 -0.113236 5.09415e-15)
(-2.62743 -0.106777 -1.16007e-16)
(-3.62354 -0.0797207 0)
(-4.59595 -0.0152217 1.35214e-15)
(-5.49156 0.0920781 1.90737e-17)
(-6.29457 0.234699 -5.99001e-16)
(-7.01788 0.405727 -2.31298e-15)
(-7.68176 0.599069 -9.00425e-15)
(-8.31017 0.810068 4.42147e-15)
(-8.92213 1.03522 9.01225e-15)
(-9.51231 1.26606 8.87412e-15)
(-10.0169 1.48588 3.58747e-14)
(-10.2857 1.66083 -1.81219e-14)
(-9.96385 1.72304 -1.38942e-16)
(-8.39864 1.47882 1.11768e-16)
(-5.15485 0.635533 4.8771e-14)
(-3.75141 0.430956 -1.06513e-13)
(-3.24482 17.0394 1.03911e-17)
(-4.1981 16.4191 1.9777e-17)
(-5.14015 15.5496 -3.44507e-17)
(-5.97692 14.2493 3.65611e-17)
(-6.61162 12.7321 1.01622e-16)
(-6.95791 11.0022 -4.23444e-17)
(-6.95356 9.14933 5.72244e-17)
(-6.58591 7.31869 1.16627e-16)
(-5.92116 5.65191 0)
(-5.05239 4.21411 0)
(-4.0578 3.02753 5.9768e-16)
(-3.02155 2.09308 4.45087e-16)
(-1.99848 1.37761 -1.27174e-15)
(-1.02 0.843387 2.04106e-15)
(-0.12408 0.450647 6.92869e-15)
(0.671724 0.1211 4.89229e-15)
(1.44309 -0.167055 4.66662e-15)
(2.18539 -0.38627 2.63789e-15)
(2.87261 -0.541191 0)
(3.51388 -0.649626 0)
(4.12571 -0.723429 -3.18793e-15)
(4.71748 -0.765407 -1.63169e-16)
(5.29383 -0.774418 2.4232e-15)
(5.85072 -0.742981 -1.93794e-15)
(6.37175 -0.668765 4.98874e-18)
(6.84956 -0.561655 0)
(7.28828 -0.429695 6.08673e-16)
(7.69144 -0.278816 0)
(8.06055 -0.113387 0)
(8.39858 0.0620633 3.73821e-16)
(8.71084 0.244208 0)
(9.00095 0.429727 -1.0142e-15)
(9.27764 0.616637 -1.55991e-15)
(9.54909 0.803764 -5.71722e-15)
(9.84298 0.994832 1.45608e-15)
(10.149 1.19057 -3.80951e-18)
(10.6594 1.42481 0)
(10.9983 1.70235 -3.47415e-15)
(13.8034 2.02274 -6.58254e-15)
(2.09483 16.1731 7.08853e-18)
(3.07062 16.4943 -1.03081e-17)
(4.02689 16.8164 0)
(4.8734 17.0557 0)
(5.52762 17.164 -5.74074e-17)
(5.95073 17.0818 -1.01702e-16)
(6.09998 16.6046 0)
(5.93649 15.4667 0)
(5.40246 13.3659 1.63785e-16)
(4.43581 10.191 0)
(2.94516 6.32285 8.78008e-16)
(1.11129 2.40025 0)
(-0.647515 -0.202308 8.57247e-16)
(-1.53421 -0.892246 -8.88447e-16)
(-2.01251 -1.17743 1.66598e-15)
(-2.22932 -1.26335 -3.18409e-15)
(-2.24579 -1.20392 3.07796e-15)
(-2.10231 -1.03984 3.07033e-15)
(-1.93251 -0.817643 3.17276e-15)
(-1.89738 -0.582403 2.13454e-16)
(-2.13064 -0.374559 -3.30666e-15)
(-2.70282 -0.227653 2.66703e-15)
(-3.56815 -0.141641 -1.26975e-16)
(-4.5542 -0.0887169 0)
(-5.51769 -0.0384432 0)
(-6.39355 0.0360613 0)
(-7.17118 0.149466 9.28738e-17)
(-7.86344 0.297744 -2.3734e-17)
(-8.48938 0.475163 1.49027e-15)
(-9.06387 0.674341 8.806e-18)
(-9.5962 0.88846 -8.19081e-18)
(-10.0775 1.11048 -6.38267e-17)
(-10.4743 1.32422 6.18768e-15)
(-10.7394 1.51017 -1.2682e-14)
(-10.8445 1.65603 -1.02054e-16)
(-10.6268 1.75497 -2.35336e-14)
(-9.23961 1.604 0)
(-6.31073 0.744121 -1.0503e-14)
(-4.07819 0.450555 -3.48808e-14)
(1.12268 15.7574 -9.54958e-18)
(0.149325 15.2388 1.43262e-17)
(-0.921875 14.5425 8.55224e-17)
(-1.96246 13.6156 -1.17683e-16)
(-2.89641 12.4458 0)
(-3.64912 11.0584 -5.034e-17)
(-4.14236 9.50873 -6.58142e-17)
(-4.31504 7.90636 -4.83253e-16)
(-4.17058 6.36436 2.09745e-16)
(-3.76164 4.95802 -3.65542e-16)
(-3.15328 3.74022 6.75186e-16)
(-2.41786 2.73268 -2.94753e-16)
(-1.6192 1.92545 0)
(-0.804472 1.2955 -5.53366e-16)
(-0.0086268 0.810049 -2.28304e-17)
(0.750637 0.417161 -2.28005e-15)
(1.48846 0.101245 0)
(2.19946 -0.126518 0)
(2.86995 -0.289531 -2.03317e-16)
(3.50674 -0.408275 1.79651e-16)
(4.12114 -0.490845 -2.27277e-15)
(4.72013 -0.536833 -2.60948e-16)
(5.30661 -0.543967 1.16127e-16)
(5.87718 -0.504128 1.55796e-15)
(6.41818 -0.419168 -1.38371e-15)
(6.92118 -0.305192 -1.12922e-15)
(7.38821 -0.170792 0)
(7.82191 -0.0208363 0)
(8.223 0.141387 0)
(8.59439 0.311441 2.53014e-18)
(8.94032 0.486898 0)
(9.26414 0.66466 0)
(9.5739 0.843384 2.61316e-15)
(9.87723 1.02319 1.89606e-15)
(10.2005 1.20848 -1.19799e-15)
(10.5309 1.40384 4.8087e-16)
(11.0649 1.64626 5.83133e-16)
(11.396 1.92853 2.66211e-15)
(14.1235 2.64056 4.51965e-15)
(0.713207 14.8569 2.31007e-18)
(1.39854 15.1209 4.93297e-17)
(2.14151 15.2839 -3.96176e-17)
(2.94491 15.3954 -3.52469e-17)
(3.73868 15.4932 -8.20295e-17)
(4.51997 15.67 2.30652e-16)
(5.24019 15.963 -1.43803e-16)
(5.84991 16.2639 -1.22051e-16)
(6.29074 16.2259 -1.74898e-18)
(6.4051 15.2933 -1.27692e-16)
(5.92141 13.0037 1.22865e-16)
(4.62659 9.32142 -3.61344e-16)
(2.57234 4.99621 -2.63589e-16)
(0.380496 1.44668 0)
(-1.06954 -0.201853 -1.34804e-15)
(-1.81159 -0.867732 2.48604e-15)
(-2.20509 -1.14884 0)
(-2.36551 -1.16882 -4.40765e-15)
(-2.43316 -0.988862 -2.26752e-15)
(-2.60782 -0.711418 2.99603e-16)
(-3.01811 -0.428518 -2.50637e-16)
(-3.65401 -0.196101 -1.05882e-16)
(-4.4259 -0.0401868 -1.349e-15)
(-5.20865 0.0480489 6.55605e-16)
(-5.93906 0.1042 0)
(-6.61953 0.170147 5.87621e-16)
(-7.25948 0.269032 -7.21095e-17)
(-7.86716 0.402473 0)
(-8.4473 0.566915 1.13935e-15)
(-9.00232 0.755004 2.34186e-15)
(-9.53386 0.959533 -4.72569e-15)
(-10.0351 1.17405 -4.74824e-15)
(-10.4892 1.38314 -8.33738e-17)
(-10.8639 1.56501 -1.00834e-14)
(-11.0964 1.69168 -1.01778e-14)
(-10.9417 1.73903 1.76879e-14)
(-9.67111 1.53913 0)
(-6.88999 0.609421 -6.90924e-15)
(-4.55346 0.187607 3.85137e-14)
(0.084297 14.4984 5.59428e-18)
(-0.536906 14.0203 7.46724e-18)
(-1.1694 13.3616 -5.13321e-17)
(-1.80723 12.5359 0)
(-2.37664 11.5487 1.06195e-17)
(-2.83894 10.4042 0)
(-3.14875 9.1366 1.98475e-16)
(-3.26392 7.81617 1.3501e-16)
(-3.16851 6.51444 1.98278e-16)
(-2.87618 5.28627 0)
(-2.4221 4.17697 -7.66948e-16)
(-1.84766 3.21542 -2.49249e-16)
(-1.19564 2.40691 1.52028e-15)
(-0.503953 1.74355 0)
(0.197002 1.20886 -1.44554e-15)
(0.890734 0.774182 -4.85803e-16)
(1.57801 0.426728 2.08132e-15)
(2.24911 0.162606 1.08085e-15)
(2.89203 -0.0375286 3.11546e-16)
(3.50965 -0.189865 -1.46913e-16)
(4.10949 -0.301484 1.82816e-15)
(4.69664 -0.373377 0)
(5.27307 -0.404607 0)
(5.83573 -0.390561 1.96543e-18)
(6.37328 -0.333582 0)
(6.8778 -0.245467 2.05008e-15)
(7.35018 -0.132911 -2.88895e-17)
(7.79277 -0.000159325 -1.91602e-16)
(8.20634 0.149229 0)
(8.59381 0.310313 -2.79883e-16)
(8.9593 0.480942 4.72417e-16)
(9.30611 0.657679 0)
(9.642 0.838931 -1.21386e-15)
(9.97412 1.02472 0)
(10.3282 1.21936 0)
(10.6893 1.42917 1.73241e-17)
(11.2516 1.68608 -4.37869e-17)
(11.5989 2.02406 -2.48375e-15)
(14.1128 2.79949 -8.9525e-15)
(2.01195 13.8738 3.92859e-18)
(2.65288 14.1547 9.16497e-18)
(3.32986 14.3702 -2.21522e-17)
(3.98582 14.5171 -1.54053e-17)
(4.5695 14.59 0)
(5.08031 14.6227 0)
(5.53128 14.6985 -2.24483e-16)
(5.95552 14.9254 2.31771e-16)
(6.40169 15.3501 0)
(6.85798 15.7423 -1.98351e-16)
(7.14208 15.5393 -2.19771e-16)
(6.89863 14.0304 -2.20961e-16)
(5.73312 10.8206 2.84963e-16)
(3.55643 6.43698 3.81596e-16)
(1.04957 2.48545 0)
(-0.765415 0.266578 1.36139e-15)
(-1.72196 -0.660117 4.8583e-16)
(-2.26279 -1.0241 3.68628e-15)
(-2.59688 -0.976139 2.32766e-16)
(-2.92875 -0.691271 -2.35717e-16)
(-3.39416 -0.355006 1.76191e-15)
(-3.97083 -0.0702717 -2.45517e-16)
(-4.58109 0.119247 1.21471e-15)
(-5.17535 0.215361 5.21411e-16)
(-5.75638 0.26122 -3.15675e-17)
(-6.34112 0.309105 -4.40939e-16)
(-6.93142 0.386887 3.68202e-18)
(-7.52242 0.499728 -3.38471e-18)
(-8.10883 0.645844 -8.92044e-16)
(-8.68931 0.818857 -2.88818e-17)
(-9.26624 1.01223 1.90045e-15)
(-9.8353 1.22008 -3.82931e-15)
(-10.3773 1.42598 -3.71708e-15)
(-10.8442 1.60321 -5.10073e-17)
(-11.1517 1.71261 7.81319e-15)
(-11.0617 1.72079 0)
(-9.90003 1.45915 9.72066e-15)
(-7.27851 0.44323 5.10843e-15)
(-5.05279 -0.127504 -1.30726e-14)
(1.39526 13.5395 -3.59817e-19)
(0.769973 13.1235 -1.2028e-17)
(0.11812 12.5753 -1.42165e-17)
(-0.534522 11.879 0)
(-1.1238 11.0355 -1.00367e-17)
(-1.61837 10.0508 0)
(-1.97908 8.95165 -2.21227e-16)
(-2.17111 7.7974 -6.74402e-20)
(-2.18109 6.64513 1.91771e-16)
(-2.01677 5.53787 2.81929e-16)
(-1.70221 4.51434 4.95046e-18)
(-1.26659 3.6025 8.02161e-16)
(-0.742313 2.81186 -7.81313e-16)
(-0.16098 2.14156 3.05919e-16)
(0.449513 1.58366 1.44221e-15)
(1.07274 1.11933 1.79852e-15)
(1.70315 0.739701 -1.62468e-15)
(2.32984 0.440579 -8.00342e-18)
(2.94112 0.207826 0)
(3.53613 0.0276065 1.82783e-15)
(4.11867 -0.107407 9.94255e-17)
(4.69173 -0.1996 -1.5323e-15)
(5.25622 -0.249206 0)
(5.80888 -0.253544 8.15613e-19)
(6.33971 -0.21436 0)
(6.84078 -0.141332 -8.7015e-16)
(7.31181 -0.0415458 0)
(7.75458 0.0801842 1.68269e-16)
(8.16971 0.219885 -6.62042e-18)
(8.55994 0.372459 4.09442e-18)
(8.92928 0.535922 -3.99415e-16)
(9.28113 0.706774 -1.15774e-17)
(9.62313 0.883466 0)
(9.96236 1.06631 7.90553e-16)
(10.3239 1.25965 1.00855e-17)
(10.6936 1.47187 -4.15014e-16)
(11.2559 1.73128 -8.89914e-16)
(11.6203 2.10738 -4.6627e-18)
(13.8776 2.87497 0)
(2.09156 13.1484 3.45978e-18)
(2.58842 13.4382 7.59549e-18)
(3.12388 13.6862 -3.5482e-17)
(3.67414 13.8888 1.75096e-16)
(4.22531 14.0256 -4.46008e-17)
(4.77652 14.1036 -8.77137e-17)
(5.29947 14.141 1.06001e-16)
(5.77942 14.185 0)
(6.23641 14.3435 2.80081e-16)
(6.71471 14.7212 1.05582e-16)
(7.22969 15.2333 0)
(7.64589 15.3709 1.92182e-16)
(7.56439 14.2731 -1.01424e-16)
(6.43482 11.3192 3.29978e-16)
(4.11315 6.97455 0)
(1.36501 2.90168 -9.77658e-16)
(-0.66608 0.484049 1.41311e-15)
(-1.77602 -0.532445 -1.24723e-17)
(-2.41361 -0.768998 0)
(-2.86571 -0.547131 1.68562e-15)
(-3.33667 -0.194884 -1.44388e-15)
(-3.84414 0.10345 -6.87735e-17)
(-4.34785 0.292354 -9.44135e-16)
(-4.84958 0.378766 -8.10328e-16)
(-5.37326 0.411859 0)
(-5.92872 0.444085 0)
(-6.50951 0.503764 -9.34128e-17)
(-7.10534 0.597915 -1.18196e-17)
(-7.70871 0.726556 7.31567e-16)
(-8.3192 0.884931 -2.32507e-17)
(-8.94145 1.06739 2.184e-17)
(-9.57296 1.26747 2.96562e-15)
(-10.1911 1.46653 0)
(-10.737 1.63294 1.25831e-14)
(-11.1164 1.71972 -4.7855e-17)
(-11.0991 1.68646 0)
(-10.0515 1.36302 3.57513e-17)
(-7.60327 0.275401 0)
(-5.56262 -0.43587 9.91065e-15)
(1.62155 12.8159 -2.21947e-18)
(1.14878 12.4179 2.80687e-18)
(0.649901 11.9043 8.6069e-18)
(0.133635 11.2729 3.23451e-17)
(-0.344226 10.5288 -1.03273e-16)
(-0.761569 9.66836 -1.8735e-16)
(-1.08548 8.7092 2.13389e-16)
(-1.28239 7.69912 -3.03225e-16)
(-1.33554 6.68252 -2.11796e-16)
(-1.24575 5.69126 -2.61953e-16)
(-1.02665 4.75728 6.0586e-16)
(-0.696593 3.90601 -7.41845e-16)
(-0.277577 3.14822 -4.4833e-16)
(0.206405 2.48739 5.23465e-16)
(0.73207 1.92249 -1.49658e-15)
(1.28521 1.44126 2.76944e-16)
(1.85762 1.03902 0)
(2.43764 0.713314 -1.21148e-15)
(3.01385 0.453669 4.37105e-16)
(3.58268 0.24858 -1.77878e-15)
(4.14481 0.0912031 0)
(4.70127 -0.0213186 1.25868e-15)
(5.2518 -0.089818 1.04663e-15)
(5.79287 -0.113172 -9.24767e-16)
(6.31533 -0.0929817 0)
(6.81131 -0.0370846 -7.74103e-16)
(7.27946 0.0474009 0)
(7.72087 0.155745 0)
(8.13587 0.283822 0)
(8.52685 0.426683 2.1984e-16)
(8.8975 0.582199 0)
(9.25116 0.746885 0)
(9.59516 0.919051 -9.65481e-16)
(9.93637 1.09922 -7.08992e-16)
(10.299 1.29157 0)
(10.67 1.50657 -3.96751e-16)
(11.2225 1.76908 3.54723e-17)
(11.5956 2.17718 0)
(13.6245 2.94496 2.95568e-15)
(2.61961 12.497 -4.35173e-18)
(3.07515 12.7818 3.29231e-18)
(3.56543 13.0362 0)
(4.0714 13.2569 -3.54659e-18)
(4.55642 13.4324 -9.59543e-17)
(5.01748 13.5749 8.59048e-17)
(5.44787 13.6874 9.1406e-18)
(5.85008 13.7709 -2.34223e-16)
(6.23673 13.8463 -1.86588e-17)
(6.62959 13.9867 2.49549e-16)
(7.07253 14.3164 -8.12958e-17)
(7.59975 14.8318 1.59384e-16)
(8.08176 15.0805 7.46859e-17)
(8.04417 14.1278 6.18719e-17)
(6.82708 11.2315 0)
(4.28944 6.88852 -1.39429e-16)
(1.34818 2.85526 -4.23199e-16)
(-0.779183 0.508006 -2.3873e-15)
(-1.92433 -0.326522 8.06813e-16)
(-2.55165 -0.311063 -9.23742e-16)
(-3.02875 0.00895496 -1.32576e-16)
(-3.49561 0.298125 0)
(-3.95366 0.472664 7.6081e-16)
(-4.42352 0.545606 4.53946e-17)
(-4.93103 0.566213 -2.25365e-17)
(-5.48053 0.58398 -3.02342e-16)
(-6.0635 0.626561 7.07207e-17)
(-6.66911 0.702796 1.56026e-16)
(-7.29041 0.814637 -6.12542e-16)
(-7.92838 0.958966 -3.90761e-17)
(-8.58915 1.13079 1.27996e-15)
(-9.27198 1.32242 2.40304e-15)
(-9.95513 1.51263 0)
(-10.5762 1.66511 3.70892e-17)
(-11.0331 1.72627 -5.28383e-15)
(-11.0973 1.6481 0)
(-10.1736 1.26138 -1.305e-14)
(-7.91734 0.118335 0)
(-6.08283 -0.691772 -7.98561e-15)
(2.18702 12.1819 2.40854e-18)
(1.75385 11.8146 3.39605e-18)
(1.29765 11.3479 0)
(0.828893 10.7775 0)
(0.395045 10.1102 5.21836e-17)
(0.0108567 9.34228 3.4995e-16)
(-0.2972 8.48723 0)
(-0.500573 7.58684 -3.06559e-16)
(-0.584217 6.67792 -3.79665e-16)
(-0.54727 5.78433 4.62096e-16)
(-0.398317 4.93186 -5.49471e-18)
(-0.149549 4.14235 3.2445e-16)
(0.184037 3.4253 -1.30066e-17)
(0.584726 2.7855 1.40081e-15)
(1.03377 2.22534 1.52488e-15)
(1.52018 1.73803 -1.47564e-15)
(2.03544 1.32231 2.25797e-16)
(2.56777 0.977178 -4.18512e-16)
(3.10645 0.695496 1.93843e-16)
(3.64613 0.468639 1.21363e-15)
(4.18513 0.290735 1.59831e-16)
(4.72272 0.158889 -1.36866e-16)
(5.25753 0.0720134 -8.73139e-16)
(5.78563 0.0303393 0)
(6.29842 0.0321977 4.77194e-17)
(6.78806 0.0712418 1.35613e-15)
(7.25226 0.140717 -9.21958e-18)
(7.69137 0.235926 8.86824e-18)
(8.10542 0.352609 0)
(8.49635 0.485847 -1.99269e-16)
(8.86753 0.633314 0)
(9.22214 0.791601 0)
(9.56713 0.958916 8.60744e-16)
(9.90915 1.13601 6.66727e-16)
(10.2715 1.3269 0)
(10.642 1.54414 3.56616e-16)
(11.183 1.80934 5.85617e-16)
(11.5596 2.24472 -6.77085e-18)
(13.3849 3.01074 -2.59115e-15)
(2.94533 11.9739 -1.44656e-18)
(3.33673 12.258 1.35755e-18)
(3.76133 12.5236 -1.79147e-17)
(4.20081 12.7668 1.8396e-17)
(4.63189 12.969 6.29984e-17)
(5.06704 13.141 0)
(5.4909 13.287 -1.22067e-16)
(5.89344 13.4108 1.14517e-17)
(6.27734 13.5154 -8.53063e-17)
(6.64681 13.605 -1.5807e-16)
(7.01965 13.7335 0)
(7.44723 14.0315 -3.05421e-16)
(7.98061 14.5326 -2.33267e-16)
(8.48159 14.7874 -5.30795e-16)
(8.3846 13.7728 0)
(6.94271 10.737 -3.71323e-16)
(4.11671 6.35695 -5.02264e-16)
(1.04292 2.51757 7.66289e-16)
(-1.03427 0.521405 -1.04461e-15)
(-2.04451 0.0532453 1.04441e-15)
(-2.59292 0.245409 1.18443e-16)
(-3.04776 0.507475 -9.1452e-16)
(-3.49206 0.663259 0)
(-3.957 0.720882 -7.12708e-16)
(-4.46493 0.728119 3.81542e-17)
(-5.01747 0.731068 2.98504e-16)
(-5.60691 0.756673 0)
(-6.22385 0.815371 -9.1957e-18)
(-6.86279 0.910968 2.55081e-17)
(-7.52608 1.04173 1.03656e-15)
(-8.22087 1.20309 -1.04193e-15)
(-8.94793 1.38606 -2.05087e-15)
(-9.68846 1.56674 2.08882e-15)
(-10.3825 1.70404 -2.93452e-18)
(-10.9225 1.73788 4.48015e-15)
(-11.0773 1.61256 7.85999e-15)
(-10.2877 1.16165 5.71725e-15)
(-8.24387 -0.0256909 -5.95493e-17)
(-6.64778 -0.903689 2.1642e-17)
(2.57447 11.6666 5.6645e-20)
(2.20305 11.3174 1.6488e-17)
(1.8083 10.8799 2.94524e-17)
(1.39751 10.3528 -4.32128e-17)
(1.01341 9.74467 -2.21059e-16)
(0.66697 9.04937 9.38382e-17)
(0.380948 8.27722 2.35801e-16)
(0.181236 7.4656 7.36955e-16)
(0.081529 6.64586 3.76618e-16)
(0.0836668 5.83582 -4.30934e-16)
(0.182227 5.05656 -2.28706e-17)
(0.369248 4.32658 -3.2361e-16)
(0.634309 3.65326 0)
(0.964575 3.0416 -1.52012e-17)
(1.34603 2.49461 -8.96389e-16)
(1.77118 2.00967 4.21087e-16)
(2.23168 1.58829 -3.98509e-16)
(2.71661 1.23045 0)
(3.21636 0.931918 6.78021e-16)
(3.72474 0.686756 -1.25176e-15)
(4.23833 0.49062 0)
(4.75499 0.340905 1.01597e-15)
(5.27242 0.236501 0)
(5.78621 0.177069 -4.92794e-17)
(6.28806 0.161096 4.71316e-17)
(6.77009 0.183328 -6.25437e-16)
(7.22927 0.237741 -1.011e-17)
(7.66523 0.319546 -8.19014e-18)
(8.07764 0.424551 3.1946e-18)
(8.46798 0.547823 -1.88626e-16)
(8.83924 0.686934 -3.12787e-16)
(9.19442 0.838517 5.00173e-16)
(9.54007 1.00076 1.41321e-17)
(9.88253 1.17457 7.1785e-18)
(10.2442 1.36386 0)
(10.6136 1.58313 1.91953e-18)
(11.1423 1.85119 -2.41806e-16)
(11.5199 2.30993 9.82031e-18)
(13.1587 3.07218 -2.1791e-15)
(3.30733 11.5182 1.66136e-20)
(3.66206 11.7969 -7.21454e-20)
(4.0481 12.0636 0)
(4.45029 12.3133 -1.01147e-17)
(4.84647 12.5281 3.49904e-17)
(5.24355 12.721 0)
(5.63025 12.8931 -4.13201e-17)
(6.00163 13.0462 3.12447e-16)
(6.36288 13.186 -3.73446e-16)
(6.71539 13.3087 1.1417e-16)
(7.06071 13.4113 1.30734e-16)
(7.41408 13.5419 4.14413e-16)
(7.83063 13.8329 2.71354e-16)
(8.37193 14.3206 2.84586e-16)
(8.85418 14.4888 7.13129e-17)
(8.58253 13.2306 2.3349e-16)
(6.77114 9.91196 3.62523e-16)
(3.62381 5.53474 4.78634e-16)
(0.527948 2.09955 -5.39621e-16)
(-1.27498 0.681996 -2.04973e-15)
(-2.05648 0.543592 0)
(-2.54412 0.733315 1.58703e-18)
(-2.99544 0.865141 6.70975e-16)
(-3.46932 0.905826 6.57244e-16)
(-3.98614 0.898653 -3.50912e-17)
(-4.54664 0.886249 -2.73249e-16)
(-5.14503 0.894869 2.10472e-18)
(-5.77408 0.936359 -1.43708e-16)
(-6.43002 1.01622 1.46566e-17)
(-7.11669 1.13394 -1.8591e-15)
(-7.84236 1.28517 2.07792e-18)
(-8.60969 1.45949 -2.75325e-17)
(-9.40333 1.6305 -1.84358e-15)
(-10.168 1.75228 -1.66362e-18)
(-10.7952 1.7577 -3.90653e-15)
(-11.0495 1.58375 -1.39655e-14)
(-10.4034 1.06865 5.12679e-15)
(-8.58737 -0.154322 2.92891e-15)
(-7.24175 -1.07212 -6.1139e-15)
(2.97173 11.2218 -5.74186e-18)
(2.63723 10.8904 -2.60202e-17)
(2.28142 10.4795 -2.71663e-17)
(1.91082 9.98859 -6.44008e-17)
(1.56316 9.42768 1.35304e-16)
(1.24625 8.79007 7.84077e-18)
(0.97939 8.08425 -6.90353e-16)
(0.785723 7.34455 -3.10586e-16)
(0.677237 6.59836 -1.67666e-17)
(0.655968 5.85927 0)
(0.718037 5.14473 -4.90377e-16)
(0.857992 4.47012 5.73448e-16)
(1.06847 3.8407 -6.72096e-16)
(1.33987 3.26074 -3.84122e-16)
(1.66291 2.73282 3.80357e-16)
(2.03304 2.25697 3.63913e-16)
(2.44204 1.83647 1.39851e-15)
(2.88089 1.47196 -3.3231e-16)
(3.34131 1.16158 -6.17206e-16)
(3.81696 0.901826 0)
(4.30339 0.689911 -1.02655e-15)
(4.79741 0.523887 -8.22531e-16)
(5.29591 0.402971 -5.72809e-18)
(5.79409 0.326499 -9.70314e-17)
(6.28376 0.293245 -4.06374e-17)
(6.75697 0.29903 6.38874e-16)
(7.21006 0.338431 -1.58741e-17)
(7.64201 0.406738 1.31788e-16)
(8.05206 0.499861 2.82995e-17)
(8.44124 0.61294 1.70099e-16)
(8.81218 0.743437 -1.78285e-18)
(9.1676 0.88806 -9.76823e-16)
(9.51363 1.04502 -7.43853e-16)
(9.85633 1.21533 -5.68336e-16)
(10.217 1.40286 -1.16141e-17)
(10.5851 1.62388 4.121e-18)
(11.1011 1.89492 1.60609e-16)
(11.4774 2.37274 1.18028e-15)
(12.9448 3.12959 2.00581e-15)
(3.62836 11.1268 -1.16177e-18)
(3.94824 11.4008 1.21657e-18)
(4.2977 11.6684 1.22182e-17)
(4.66284 11.9241 -7.34496e-17)
(5.02331 12.1496 4.98459e-17)
(5.38996 12.3558 -7.23281e-17)
(5.7538 12.5429 1.87201e-16)
(6.10718 12.7108 0)
(6.45354 12.867 1.17277e-16)
(6.79372 13.0135 3.77758e-19)
(7.12886 13.1445 -1.16379e-16)
(7.46026 13.255 -3.94312e-16)
(7.80181 13.3907 -1.42767e-16)
(8.21911 13.6912 0)
(8.77237 14.1577 0)
(9.1814 14.1439 0)
(8.59031 12.4806 0)
(6.28962 8.82366 -3.4683e-16)
(2.85623 4.59124 4.7396e-16)
(-0.0272851 1.80842 6.84263e-16)
(-1.37895 0.993175 -6.79481e-16)
(-1.9929 0.990751 5.24873e-16)
(-2.4749 1.08145 -5.13039e-16)
(-2.96774 1.10257 -3.52664e-17)
(-3.49921 1.07942 -1.73951e-17)
(-4.07129 1.05079 2.69936e-16)
(-4.68068 1.04216 6.04946e-17)
(-5.32253 1.06657 0)
(-5.9949 1.13109 0)
(-6.70323 1.23626 1.39704e-18)
(-7.4573 1.37786 0)
(-8.2621 1.54394 1.6446e-15)
(-9.10621 1.70558 -1.68991e-15)
(-9.93968 1.81184 -3.28716e-15)
(-10.6563 1.78816 6.86221e-15)
(-11.0179 1.5643 6.3718e-15)
(-10.5235 0.985531 -4.67645e-15)
(-8.94448 -0.266854 -5.56879e-15)
(-7.84157 -1.201 5.75733e-15)
(3.32591 10.8391 0)
(3.02502 10.5223 7.79882e-18)
(2.70386 10.1327 4.59956e-17)
(2.36808 9.67111 -2.38813e-16)
(2.05194 9.14877 2.15434e-16)
(1.76094 8.55829 -1.74299e-16)
(1.5121 7.90689 -1.61827e-17)
(1.3262 7.22659 2.48006e-16)
(1.214 6.54203 3.19899e-16)
(1.17722 5.86361 0)
(1.21289 5.2059 2.33782e-16)
(1.31699 4.58193 -8.12011e-16)
(1.48403 3.99496 1.59099e-15)
(1.70704 3.44765 3.39841e-16)
(1.98044 2.94258 -6.81514e-16)
(2.30142 2.48117 -6.60366e-16)
(2.66284 2.06671 -6.32534e-16)
(3.05778 1.70072 0)
(3.47933 1.38311 0)
(3.92154 1.11248 0)
(4.37955 0.887461 9.50026e-16)
(4.84949 0.707066 0)
(5.32771 0.570838 -6.79485e-16)
(5.80905 0.478299 -9.00683e-17)
(6.28536 0.42849 -6.27348e-16)
(6.74857 0.41824 -5.61715e-16)
(7.1945 0.442716 0)
(7.62152 0.497509 -1.094e-16)
(8.02848 0.578581 -2.94341e-17)
(8.41592 0.681265 5.45066e-18)
(8.78606 0.802862 5.53478e-16)
(9.14137 0.940292 -3.30027e-18)
(9.48752 1.09171 7.11607e-16)
(9.83022 1.25832 -5.34661e-16)
(10.1897 1.44393 0)
(10.5561 1.6664 -2.15679e-18)
(11.059 1.94037 -3.38725e-17)
(11.4324 2.43325 -1.11644e-15)
(12.7411 3.18368 1.00559e-17)
(3.93603 10.7821 3.00156e-18)
(4.22936 11.0504 0)
(4.55069 11.3163 -2.17118e-18)
(4.88749 11.5735 1.89055e-17)
(5.22109 11.8038 -2.45194e-17)
(5.56165 12.0179 7.1242e-17)
(5.90142 12.2161 -8.45208e-17)
(6.23309 12.3964 -8.33172e-17)
(6.56047 12.5644 0)
(6.88429 12.7228 -1.10586e-16)
(7.20637 12.8725 -1.08479e-16)
(7.52846 13.0075 1.02246e-16)
(7.84828 13.1205 3.42757e-16)
(8.18269 13.2674 1.24241e-16)
(8.6128 13.5939 -3.48593e-16)
(9.17282 14.0152 -2.30805e-16)
(9.41518 13.6936 1.74094e-16)
(8.34136 11.4964 1.33815e-16)
(5.48188 7.55209 -8.31902e-17)
(1.94209 3.7163 1.19621e-16)
(-0.426216 1.74321 3.98497e-16)
(-1.37497 1.327 8.13511e-17)
(-1.93014 1.32008 -7.6994e-17)
(-2.45392 1.31405 -4.84559e-16)
(-3.00551 1.27227 0)
(-3.59252 1.22597 -2.40272e-16)
(-4.21499 1.1995 -1.13711e-16)
(-4.87042 1.20673 -1.08528e-16)
(-5.5588 1.25616 -4.16406e-16)
(-6.28736 1.34929 1.63048e-15)
(-7.0677 1.48184 7.26397e-16)
(-7.90762 1.64038 2.08708e-17)
(-8.79991 1.79325 1.10675e-18)
(-9.7003 1.88424 0)
(-10.5067 1.83112 -3.09848e-15)
(-10.9819 1.55618 0)
(-10.6465 0.914219 0)
(-9.30891 -0.363422 2.69925e-15)
(-8.42628 -1.29711 -3.53379e-17)
(3.65911 10.5031 -1.06877e-17)
(3.38439 10.1993 4.01279e-17)
(3.09072 9.8283 -3.70484e-18)
(2.7833 9.39161 4.9461e-17)
(2.49329 8.90141 -2.20274e-16)
(2.22444 8.35017 1.82734e-16)
(1.99171 7.74412 2.61365e-17)
(1.81418 7.11364 -2.34773e-16)
(1.7013 6.4812 -2.84483e-16)
(1.65437 5.85486 -3.44121e-16)
(1.67083 5.24703 -8.49158e-16)
(1.74758 4.66886 0)
(1.87983 4.12214 -5.83016e-16)
(2.06334 3.60732 -1.3266e-17)
(2.2952 3.12715 0)
(2.57279 2.68358 -5.76589e-16)
(2.89095 2.27927 -2.77027e-16)
(3.24466 1.91621 -2.69427e-16)
(3.62851 1.59559 1.00276e-15)
(4.03724 1.31761 9.35722e-16)
(4.46607 1.0823 -1.06742e-16)
(4.91088 0.889532 7.95522e-16)
(5.36765 0.739467 1.8572e-16)
(5.83105 0.631963 -8.38758e-17)
(6.29286 0.566432 5.53534e-16)
(6.74493 0.540633 3.42739e-17)
(7.18264 0.550433 0)
(7.6038 0.591745 0)
(8.00688 0.660676 -5.35545e-18)
(8.39195 0.752785 1.43326e-17)
(8.76078 0.86527 -5.35736e-16)
(9.11558 0.995245 -3.03763e-18)
(9.46154 1.14089 7.05577e-16)
(9.80398 1.30356 5.05879e-16)
(10.162 1.48707 8.22711e-18)
(10.5264 1.71062 -5.3927e-18)
(11.0156 1.9874 -1.80632e-16)
(11.3844 2.49134 9.39843e-16)
(12.5467 3.23415 -8.97476e-18)
(4.22463 10.4763 1.53091e-18)
(4.49518 10.7388 0)
(4.7923 11.0023 -2.58288e-18)
(5.1045 11.2596 0)
(5.41398 11.4925 -3.73291e-17)
(5.73154 11.712 3.88624e-17)
(6.05074 11.917 6.02865e-17)
(6.36441 12.1052 8.14625e-17)
(6.67541 12.2812 0)
(6.98401 12.4468 -7.95672e-17)
(7.29179 12.6042 1.13233e-16)
(7.602 12.7548 -2.15629e-16)
(7.91384 12.8895 -1.10134e-16)
(8.2237 13.0044 -1.06115e-16)
(8.55748 13.1738 2.29484e-16)
(9.01384 13.536 2.26814e-16)
(9.55013 13.847 -2.24316e-16)
(9.48307 13.0655 -2.24985e-16)
(7.76442 10.2696 0)
(4.40554 6.23498 8.7097e-17)
(1.09468 3.07265 -2.41287e-16)
(-0.624082 1.83188 6.96947e-17)
(-1.35069 1.60188 -3.6074e-18)
(-1.9251 1.54448 1.15722e-15)
(-2.50413 1.47941 -6.13001e-17)
(-3.10984 1.41324 2.73612e-17)
(-3.74764 1.36785 1.07961e-16)
(-4.41768 1.35752 1.1592e-16)
(-5.12186 1.39193 3.5546e-16)
(-5.86939 1.47344 -7.55021e-16)
(-6.67402 1.5976 -6.55974e-16)
(-7.5467 1.7495 -2.8422e-15)
(-8.48472 1.89439 2.77941e-15)
(-9.44962 1.9706 -4.11076e-17)
(-10.3448 1.88778 2.85899e-15)
(-10.9377 1.56089 -1.2474e-16)
(-10.7676 0.856038 6.70614e-17)
(-9.67292 -0.445316 -4.87139e-17)
(-8.98106 -1.36878 5.18146e-15)
(3.96934 10.2053 5.95066e-18)
(3.71682 9.91307 -2.02314e-17)
(3.44635 9.55823 4.5201e-17)
(3.16287 9.1429 0)
(2.89512 8.68007 1.36512e-16)
(2.64551 8.16204 0)
(2.42738 7.59449 0)
(2.2583 7.00637 0)
(2.14665 6.41852 5.65172e-16)
(2.09326 5.83722 -3.44414e-16)
(2.09585 5.27324 4.07633e-16)
(2.15154 4.73639 0)
(2.25638 4.22666 0)
(2.40802 3.74348 -5.38144e-16)
(2.60471 3.28952 0)
(2.84436 2.86592 5.27511e-16)
(3.12368 2.47467 1.05762e-17)
(3.43926 2.11812 0)
(3.78705 1.79824 -7.01387e-16)
(4.16284 1.51627 -1.08873e-15)
(4.56224 1.27339 -7.96024e-16)
(4.98117 1.07039 -7.40324e-16)
(5.41558 0.908125 1.34078e-15)
(5.86006 0.786848 0)
(6.30633 0.706586 5.165e-16)
(6.74616 0.665909 5.28018e-16)
(7.1746 0.661427 2.21668e-16)
(7.58897 0.689377 0)
(7.98736 0.746168 -2.1495e-17)
(8.36938 0.827534 -1.48628e-16)
(8.73636 0.930723 5.03471e-16)
(9.09019 1.053 -2.77872e-18)
(9.43557 1.19266 -6.43426e-16)
(9.77745 1.35115 4.71099e-16)
(10.1337 1.53236 4.68548e-18)
(10.4956 1.75654 7.51098e-18)
(10.9706 2.03595 9.32473e-17)
(11.3336 2.54704 -8.80327e-16)
(12.3607 3.28077 -2.66147e-15)
(4.49806 10.2016 5.76484e-19)
(4.74961 10.4584 -5.20732e-18)
(5.02645 10.7185 0)
(5.31803 10.9744 -2.99012e-18)
(5.60726 11.2077 0)
(5.9056 11.4303 0)
(6.2061 11.6394 3.75469e-18)
(6.50276 11.8328 6.69916e-17)
(6.79798 12.0147 1.44018e-16)
(7.09172 12.186 3.34259e-16)
(7.38532 12.3484 1.73528e-16)
(7.68186 12.5049 1.84461e-16)
(7.98272 12.6547 0)
(8.28593 12.7873 3.06888e-16)
(8.5876 12.9067 -1.00207e-16)
(8.93119 13.1137 0)
(9.42257 13.5022 2.03758e-16)
(9.85868 13.5883 2.10486e-16)
(9.28916 12.1891 0)
(6.83306 8.85409 2.65636e-16)
(3.2194 5.04202 -3.59187e-16)
(0.476847 2.69888 0)
(-0.707814 1.97545 -6.97478e-17)
(-1.3734 1.80306 3.12145e-17)
(-1.9917 1.70384 2.8748e-17)
(-2.62127 1.61444 4.40089e-16)
(-3.27717 1.5484 9.56996e-20)
(-3.96309 1.51971 -1.26449e-17)
(-4.68302 1.53893 -1.28396e-17)
(-5.44835 1.60911 2.1528e-17)
(-6.27523 1.72554 6.83293e-16)
(-7.17803 1.87174 2.58513e-15)
(-8.15874 2.00961 3.87427e-17)
(-9.18495 2.07158 -2.52334e-15)
(-10.1663 1.95881 -2.49663e-15)
(-10.8784 1.57947 -5.22046e-15)
(-10.8786 0.811653 -4.10971e-15)
(-10.0277 -0.514026 9.17587e-17)
(-9.49679 -1.42384 -5.10417e-15)
(4.26083 9.93836 -1.54826e-17)
(4.02685 9.6567 -6.4935e-17)
(3.77589 9.31622 1.34519e-16)
(3.51275 8.9196 0)
(3.26401 8.48046 2.64454e-16)
(3.03119 7.99105 0)
(2.82625 7.4566 -1.89402e-16)
(2.66538 6.90496 8.67297e-16)
(2.55616 6.35567 -7.72948e-16)
(2.49891 5.81367 0)
(2.49143 5.28835 7.64775e-16)
(2.53069 4.78875 8.66701e-16)
(2.61398 4.31297 0)
(2.74016 3.86003 -9.34839e-16)
(2.90711 3.43235 2.38299e-16)
(3.11396 3.02974 -2.33444e-16)
(3.35875 2.65371 2.34738e-16)
(3.63943 2.30653 4.40873e-16)
(3.95328 1.99049 -3.35596e-18)
(4.29713 1.7076 5.85752e-16)
(4.66725 1.45987 1.9274e-16)
(5.05993 1.24891 -1.73708e-16)
(5.47132 1.07613 -6.27001e-16)
(5.89604 0.942461 5.65736e-16)
(6.32583 0.848549 -4.56097e-16)
(6.75241 0.79376 -5.29394e-16)
(7.17056 0.775448 -2.10003e-16)
(7.57721 0.790269 -2.78027e-18)
(7.97007 0.834942 2.31308e-17)
(8.34833 0.905498 1.41503e-16)
(8.71286 0.999221 1.06141e-18)
(9.06522 1.11359 -2.51653e-18)
(9.40961 1.24704 6.43241e-16)
(9.75055 1.40111 -4.79688e-16)
(10.1046 1.5798 7.90251e-18)
(10.4636 1.80412 -3.38234e-16)
(10.9239 2.08575 -2.85315e-17)
(11.2797 2.60028 0)
(12.1824 3.32391 2.58972e-15)
(4.7571 9.95294 3.07233e-18)
(4.99239 10.2038 0)
(5.25184 10.4601 0)
(5.52565 10.7137 1.07171e-18)
(5.79732 10.9461 -5.61021e-18)
(6.07864 11.17 0)
(6.36237 11.3811 0)
(6.64389 11.5777 -2.3091e-16)
(6.92494 11.7634 -1.23044e-17)
(7.20508 11.9388 -1.15435e-17)
(7.48548 12.1052 -4.1313e-16)
(7.76903 12.2651 -9.76433e-17)
(8.05703 12.4202 1.78302e-16)
(8.35103 12.5685 -8.79917e-18)
(8.6465 12.6982 0)
(8.94287 12.83 0)
(9.31251 13.0922 -5.88186e-16)
(9.82852 13.4624 -1.00146e-16)
(10.0184 13.1508 9.58419e-17)
(8.74279 11.0306 -2.23397e-16)
(5.611 7.37573 5.57552e-16)
(2.13912 4.10919 3.79156e-16)
(0.104486 2.54434 -4.81985e-16)
(-0.783749 2.114 -5.61517e-16)
(-1.46173 1.9502 8.54907e-17)
(-2.12331 1.8319 -4.52018e-16)
(-2.80103 1.74258 -4.97911e-17)
(-3.50449 1.69412 1.21515e-17)
(-4.24029 1.69765 -1.08077e-17)
(-5.02224 1.75655 4.4044e-17)
(-5.8691 1.86582 3.28982e-18)
(-6.79883 2.00721 -1.28077e-15)
(-7.81825 2.13905 -3.76261e-17)
(-8.90134 2.18732 3.05969e-17)
(-9.96469 2.04439 0)
(-10.7944 1.61213 4.87987e-15)
(-10.9683 0.781154 3.91438e-15)
(-10.3625 -0.571432 0)
(-9.96869 -1.46887 0)
(4.53536 9.697 0)
(4.31712 9.425 6.29661e-17)
(4.08293 9.09746 -2.17359e-16)
(3.83727 8.71745 -1.07408e-16)
(3.60498 8.29915 -2.48423e-16)
(3.38684 7.83475 0)
(3.19381 7.32914 0)
(3.04087 6.80932 -4.08588e-16)
(2.93478 6.29372 4.94196e-16)
(2.8755 5.78618 0)
(2.86075 5.29519 -3.62544e-16)
(2.88754 4.82872 -4.18059e-16)
(2.95405 4.38414 4.17831e-16)
(3.05931 3.96005 4.38245e-16)
(3.20131 3.5579 -8.41581e-16)
(3.37993 3.17669 0)
(3.59426 2.81727 -2.06933e-16)
(3.84331 2.48166 1.48438e-18)
(4.12555 2.17211 9.5475e-16)
(4.43885 1.89099 -1.93319e-16)
(4.78027 1.64094 1.83901e-16)
(5.1467 1.42419 -1.55027e-16)
(5.53462 1.24274 2.19121e-16)
(5.93893 1.09814 -1.12927e-15)
(6.35142 0.991755 -4.24276e-16)
(6.76382 0.923767 4.0876e-16)
(7.17072 0.892204 -2.58144e-17)
(7.56871 0.894244 0)
(7.9552 0.926938 -1.9474e-17)
(8.32896 0.986667 1.2753e-16)