# vtk DataFile Version 2.0
track0
ASCII
DATASET POLYDATA
POINTS 12035 float
-0.0205 0.001 1e-05
-0.02052 0.000999985 1e-05
-0.02054 0.000999974 1e-05
-0.02056 0.000999965 1e-05
-0.02058 0.000999959 1e-05
-0.0206 0.000999956 1e-05
-0.0205 0.00367778 1e-05
-0.02052 0.00367778 1e-05
-0.02054 0.00367777 1e-05
-0.02056 0.00367777 1e-05
-0.02058 0.00367777 1e-05
-0.0206 0.00367777 1e-05
-0.0205 0.00635556 1e-05
-0.02052 0.00635555 1e-05
-0.02054 0.00635555 1e-05
-0.02056 0.00635555 1e-05
-0.02058 0.00635555 1e-05
-0.0206 0.00635555 1e-05
-0.0205 0.00903333 1e-05
-0.02052 0.00903333 1e-05
-0.02054 0.00903333 1e-05
-0.02056 0.00903333 1e-05
-0.02058 0.00903333 1e-05
-0.0206 0.00903333 1e-05
-0.0205 0.0117111 1e-05
-0.02052 0.0117111 1e-05
-0.02054 0.0117111 1e-05
-0.02056 0.0117111 1e-05
-0.02058 0.0117111 1e-05
-0.0206 0.0117111 1e-05
-0.0205 0.0143889 1e-05
-0.02052 0.0143889 1e-05
-0.02054 0.0143889 1e-05
-0.02056 0.0143889 1e-05
-0.02058 0.0143889 1e-05
-0.0206 0.0143889 1e-05
-0.0205 0.0170667 1e-05
-0.02052 0.0170667 1e-05
-0.02054 0.0170667 1e-05
-0.02056 0.0170667 1e-05
-0.02058 0.0170667 1e-05
-0.0206 0.0170667 1e-05
-0.0205 0.0197444 1e-05
-0.02052 0.0197444 1e-05
-0.02054 0.0197444 1e-05
-0.02056 0.0197444 1e-05
-0.02058 0.0197444 1e-05
-0.0206 0.0197444 1e-05
-0.0205 0.0224222 1e-05
-0.02052 0.0224222 1e-05
-0.02054 0.0224222 1e-05
-0.02056 0.0224222 1e-05
-0.02058 0.0224222 1e-05
-0.0206 0.0224222 1e-05
-0.0205 0.0251 1e-05
-0.02052 0.0250998 1e-05
-0.02054 0.0250997 1e-05
-0.02056 0.0250995 1e-05
-0.02058 0.0250995 1e-05
-0.0206 0.0250994 1e-05
-0.0205 0.001 1e-05
-0.0202034 0.00100022 1e-05
-0.0199069 0.00100067 1e-05
-0.0196103 0.00100132 1e-05
-0.0193137 0.00100219 1e-05
-0.0190172 0.00100326 1e-05
-0.0187132 0.00100466 1e-05
-0.0184093 0.00100588 1e-05
-0.0181054 0.0010071 1e-05
-0.0178015 0.00100832 1e-05
-0.0174976 0.00100953 1e-05
-0.0172058 0.00101083 1e-05
-0.016914 0.00101193 1e-05
-0.0166222 0.00101303 1e-05
-0.0163305 0.00101413 1e-05
-0.0160387 0.00101523 1e-05
-0.0157586 0.00101637 1e-05
-0.0154784 0.00101745 1e-05
-0.0151983 0.00101857 1e-05
-0.0149182 0.00101972 1e-05
-0.0146381 0.00102091 1e-05
-0.0143752 0.00102209 1e-05
-0.0141123 0.00102328 1e-05
-0.0138494 0.00102449 1e-05
-0.0135866 0.00102574 1e-05
-0.0133646 0.00102682 1e-05
-0.0133503 0.00102689 1e-05
-0.0133361 0.00102696 1e-05
-0.0133219 0.00102703 1e-05
-0.0133077 0.0010271 1e-05
-0.0132934 0.00102717 1e-05
-0.0130353 0.00102846 1e-05
-0.0127771 0.00102976 1e-05
-0.0125189 0.00103109 1e-05
-0.0122607 0.00103242 1e-05
-0.0120025 0.00103378 1e-05
-0.0117547 0.00103509 1e-05
-0.0115068 0.0010364 1e-05
-0.0112589 0.00103773 1e-05
-0.0110111 0.00103905 1e-05
-0.0107632 0.00104039 1e-05
-0.0105252 0.00104166 1e-05
-0.0102873 0.00104295 1e-05
-0.0100493 0.00104423 1e-05
-0.00981133 0.00104551 1e-05
-0.00957337 0.00104679 1e-05
-0.00934491 0.00104801 1e-05
-0.00911645 0.00104924 1e-05
-0.00888799 0.00105046 1e-05
-0.00865954 0.00105168 1e-05
-0.00843108 0.0010529 1e-05
-0.00821175 0.00105406 1e-05
-0.00799242 0.00105522 1e-05
-0.00777309 0.00105638 1e-05
-0.00755376 0.00105754 1e-05
-0.00733443 0.00105869 1e-05
-0.00712387 0.00105978 1e-05
-0.0069133 0.00106088 1e-05
-0.00670273 0.00106197 1e-05
-0.00649216 0.00106306 1e-05
-0.0062816 0.00106415 1e-05
-0.00607944 0.00106518 1e-05
-0.00587729 0.00106622 1e-05
-0.00567514 0.00106725 1e-05
-0.00547298 0.00106827 1e-05
-0.00527083 0.0010693 1e-05
-0.00507675 0.00107027 1e-05
-0.00488267 0.00107125 1e-05
-0.0046886 0.00107222 1e-05
-0.00449452 0.00107319 1e-05
-0.00430044 0.00107416 1e-05
-0.00411412 0.00107508 1e-05
-0.0039278 0.001076 1e-05
-0.00374147 0.00107692 1e-05
-0.00355515 0.00107784 1e-05
-0.00336883 0.00107876 1e-05
-0.00318995 0.00107963 1e-05
-0.00301107 0.00108051 1e-05
-0.00283219 0.00108139 1e-05
-0.00265331 0.00108227 1e-05
-0.00247443 0.00108315 1e-05
-0.0023027 0.00108399 1e-05
-0.00213097 0.00108483 1e-05
-0.00195924 0.00108568 1e-05
-0.0017875 0.00108653 1e-05
-0.00161577 0.00108738 1e-05
-0.0014509 0.0010882 1e-05
-0.00128603 0.00108902 1e-05
-0.00112116 0.00108985 1e-05
-0.00095629 0.00109069 1e-05
-0.000791418 0.00109154 1e-05
-0.000633135 0.00109235 1e-05
-0.000474851 0.00109318 1e-05
-0.000316568 0.00109402 1e-05
-0.000158284 0.00109487 1e-05
0 0.00109572 1e-05
0.000105677 0.00109629 1e-05
0.000211355 0.00109687 1e-05
0.000317032 0.00109745 1e-05
0.00042271 0.00109803 1e-05
0.000528387 0.00109861 1e-05
0.000634886 0.00109918 1e-05
0.000741385 0.00109976 1e-05
0.000847885 0.00110033 1e-05
0.000954384 0.00110089 1e-05
0.00106088 0.00110145 1e-05
0.00116821 0.00110201 1e-05
0.00127554 0.00110256 1e-05
0.00138286 0.0011031 1e-05
0.00149019 0.00110364 1e-05
0.00159752 0.00110416 1e-05
0.00170568 0.00110467 1e-05
0.00181384 0.00110519 1e-05
0.001922 0.00110569 1e-05
0.00203016 0.00110618 1e-05
0.00213833 0.00110665 1e-05
0.00224733 0.00110712 1e-05
0.00235633 0.00110759 1e-05
0.00246533 0.00110804 1e-05
0.00257434 0.00110849 1e-05
0.00268334 0.00110892 1e-05
0.00279319 0.00110934 1e-05
0.00290304 0.00110977 1e-05
0.00301289 0.00111018 1e-05
0.00312274 0.00111058 1e-05
0.00323259 0.00111097 1e-05
0.00334329 0.00111135 1e-05
0.003454 0.00111173 1e-05
0.0035647 0.0011121 1e-05
0.0036754 0.00111246 1e-05
0.00378611 0.00111282 1e-05
0.00389767 0.00111316 1e-05
0.00400924 0.00111349 1e-05
0.0041208 0.00111382 1e-05
0.00423237 0.00111414 1e-05
0.00434393 0.00111445 1e-05
0.00445636 0.00111475 1e-05
0.00456879 0.00111505 1e-05
0.00468123 0.00111533 1e-05
0.00479366 0.00111561 1e-05
0.00490609 0.00111588 1e-05
0.0050194 0.00111614 1e-05
0.0051327 0.0011164 1e-05
0.00524601 0.00111664 1e-05
0.00535932 0.00111688 1e-05
0.00547262 0.00111711 1e-05
0.00558681 0.00111732 1e-05
0.005701 0.00111754 1e-05
0.00581518 0.00111774 1e-05
0.00592937 0.00111794 1e-05
0.00604356 0.00111813 1e-05
0.00615863 0.00111831 1e-05
0.00627371 0.00111848 1e-05
0.00638878 0.00111864 1e-05
0.00650386 0.0011188 1e-05
0.00661893 0.00111895 1e-05
0.0067349 0.00111908 1e-05
0.00685087 0.00111922 1e-05
0.00696684 0.00111934 1e-05
0.00708281 0.00111945 1e-05
0.00719878 0.00111956 1e-05
0.00731565 0.00111966 1e-05
0.00743252 0.00111975 1e-05
0.00754939 0.00111983 1e-05
0.00766626 0.0011199 1e-05
0.00778313 0.00111996 1e-05
0.0078557 0.00112 1e-05
0.00792827 0.00112003 1e-05
0.00800084 0.00112006 1e-05
0.0080734 0.00112008 1e-05
0.00814326 0.0011201 1e-05
0.00818901 0.00112011 1e-05
0.00823477 0.00112012 1e-05
0.00828052 0.00112013 1e-05
0.00832628 0.00112014 1e-05
0.00837203 0.00112015 1e-05
0.00849073 0.00112016 1e-05
0.00860942 0.00112016 1e-05
0.00872812 0.00112016 1e-05
0.00884682 0.00112014 1e-05
0.00896551 0.00112012 1e-05
0.00908513 0.00112008 1e-05
0.00920475 0.00112004 1e-05
0.00932437 0.00111999 1e-05
0.00944398 0.00111993 1e-05
0.0095636 0.00111986 1e-05
0.00968415 0.00111978 1e-05
0.0098047 0.00111969 1e-05
0.00992525 0.00111959 1e-05
0.0100458 0.00111948 1e-05
0.0101663 0.00111937 1e-05
0.0102878 0.00111923 1e-05
0.0104093 0.00111909 1e-05
0.0105308 0.00111895 1e-05
0.0106523 0.00111879 1e-05
0.0107738 0.00111862 1e-05
0.0108962 0.00111844 1e-05
0.0110186 0.00111825 1e-05
0.0111411 0.00111805 1e-05
0.0112635 0.00111785 1e-05
0.0113859 0.00111763 1e-05
0.0115093 0.00111739 1e-05
0.0116327 0.00111715 1e-05
0.0117561 0.0011169 1e-05
0.0118795 0.00111664 1e-05
0.0120028 0.00111637 1e-05
0.0121272 0.00111608 1e-05
0.0122515 0.00111579 1e-05
0.0123759 0.00111549 1e-05
0.0125002 0.00111517 1e-05
0.0126245 0.00111485 1e-05
0.0127498 0.0011145 1e-05
0.0128752 0.00111415 1e-05
0.0130005 0.0011138 1e-05
0.0131258 0.00111343 1e-05
0.0132511 0.00111305 1e-05
0.0133774 0.00111264 1e-05
0.0135036 0.00111224 1e-05
0.0136299 0.00111182 1e-05
0.0137562 0.00111139 1e-05
0.0138825 0.00111096 1e-05
0.0140098 0.0011105 1e-05
0.014137 0.00111003 1e-05
0.0142643 0.00110956 1e-05
0.0143915 0.00110907 1e-05
0.0145188 0.00110857 1e-05
0.0146471 0.00110806 1e-05
0.0147753 0.00110753 1e-05
0.0149036 0.001107 1e-05
0.0150318 0.00110645 1e-05
0.0151601 0.00110589 1e-05
0.0152893 0.00110532 1e-05
0.0154186 0.00110473 1e-05
0.0155478 0.00110413 1e-05
0.0156771 0.00110352 1e-05
0.0158063 0.0011029 1e-05
0.0159366 0.00110227 1e-05
0.0160668 0.00110162 1e-05
0.0161971 0.00110096 1e-05
0.0163273 0.00110029 1e-05
0.0164576 0.00109961 1e-05
0.0165889 0.00109891 1e-05
0.0167201 0.0010982 1e-05
0.0168514 0.00109748 1e-05
0.0169827 0.00109674 1e-05
0.0171139 0.001096 1e-05
0.0172462 0.00109524 1e-05
0.0173785 0.00109447 1e-05
0.0175108 0.00109368 1e-05
0.0176431 0.00109287 1e-05
0.0177754 0.00109207 1e-05
0.0179087 0.00109125 1e-05
0.018042 0.00109041 1e-05
0.0181753 0.00108956 1e-05
0.0183087 0.00108869 1e-05
0.018442 0.00108781 1e-05
0.0185763 0.00108694 1e-05
0.0187107 0.00108603 1e-05
0.018845 0.00108511 1e-05
0.0189794 0.00108417 1e-05
0.0191137 0.00108323 1e-05
0.0192491 0.00108229 1e-05
0.0193845 0.00108132 1e-05
0.0195199 0.00108033 1e-05
0.0196553 0.00107932 1e-05
0.0197907 0.00107832 1e-05
0.0199272 0.00107731 1e-05
0.0200636 0.00107628 1e-05
0.0202001 0.00107521 1e-05
0.0203365 0.00107414 1e-05
0.020473 0.00107307 1e-05
0.0206105 0.001072 1e-05
0.020748 0.00107089 1e-05
0.0208855 0.00106976 1e-05
0.021023 0.00106862 1e-05
0.0211606 0.00106748 1e-05
0.0212991 0.00106634 1e-05
0.0214377 0.00106517 1e-05
0.0215763 0.00106397 1e-05
0.0217149 0.00106276 1e-05
0.0218535 0.00106155 1e-05
0.0219931 0.00106034 1e-05
0.0221328 0.0010591 1e-05
0.0222724 0.00105783 1e-05
0.0224121 0.00105655 1e-05
0.0225517 0.00105527 1e-05
0.0226925 0.001054 1e-05
0.0228332 0.00105269 1e-05
0.022974 0.00105134 1e-05
0.0231147 0.00104999 1e-05
0.0232555 0.00104864 1e-05
0.0233973 0.00104729 1e-05
0.0235391 0.00104591 1e-05
0.023681 0.0010445 1e-05
0.0238228 0.00104307 1e-05
0.0239647 0.00104165 1e-05
0.0241076 0.00104023 1e-05
0.0242505 0.00103878 1e-05
0.0243935 0.00103729 1e-05
0.0245364 0.00103579 1e-05
0.0246794 0.0010343 1e-05
0.0248234 0.0010328 1e-05
0.0249675 0.00103127 1e-05
0.0251115 0.00102971 1e-05
0.0252556 0.00102814 1e-05
[...]
POINT_DATA 12035
 FIELD attributes 3
age 1 12035 float
0 -2e-05 -4e-05 -6e-05 -8e-05 -0.0001
0 -2e-05 -4e-05 -6e-05 -8e-05 -0.0001
0 -2e-05 -4e-05 -6e-05 -8e-05 -0.0001
0 -2e-05 -4e-05 -6e-05 -8e-05 -0.0001
0 -2e-05 -4e-05 -6e-05 -8e-05 -0.0001
0 -2e-05 -4e-05 -6e-05 -8e-05 -0.0001
0 -2e-05 -4e-05 -6e-05 -8e-05 -0.0001
0 -2e-05 -4e-05 -6e-05 -8e-05 -0.0001
0 -2e-05 -4e-05 -6e-05 -8e-05 -0.0001
0 -2.00009e-05 -4.00018e-05 -6.00027e-05 -8.00036e-05 -0.000100002
0 0.000296567 0.000593135 0.000889702 0.00118627 0.00148284 0.00178676 0.00209069 0.00239461 0.00269853 0.00300245 0.00329423 0.00358601 0.00387779 0.00416957 0.00446135 0.00474147 0.00502159 0.00530171 0.00558183 0.00586196 0.00612484 0.00638772 0.00665061 0.00691349 0.00713549 0.00714971 0.00716394 0.00717816 0.00719239 0.00720661 0.0074648 0.00772298 0.00798117 0.00823935 0.00849754 0.00874541 0.00899328 0.00924116 0.00948903 0.0097369 0.00997487 0.0102128 0.0104508 0.0106888 0.0109267 0.0111552 0.0113837 0.0116121 0.0118406 0.012069 0.0122884 0.0125077 0.012727 0.0129464 0.0131657 0.0133763 0.0135868 0.0137974 0.014008 0.0142186 0.0144207 0.0146229 0.014825 0.0150272 0.0152293 0.0154234 0.0156175 0.0158116 0.0160057 0.0161997 0.0163861 0.0165724 0.0167587 0.016945 0.0171314 0.0173102 0.0174891 0.017668 0.0178469 0.0180258 0.0181975 0.0183692 0.018541 0.0187127 0.0188844 0.0190493 0.0192142 0.0193791 0.0195439 0.0197088 0.0198671 0.0200254 0.0201837 0.0203419 0.0205002 0.0206059 0.0207116 0.0208173 0.0209229 0.0210286 0.0211351 0.0212416 0.0213481 0.0214546 0.0215611 0.0216685 0.0217758 0.0218831 0.0219904 0.0220978 0.0222059 0.0223141 0.0224223 0.0225304 0.0226386 0.0227476 0.0228566 0.0229656 0.0230746 0.0231836 0.0232935 0.0234033 0.0235132 0.023623 0.0237329 0.0238436 0.0239543 0.024065 0.0241757 0.0242864 0.0243979 0.0245095 0.0246211 0.0247326 0.0248442 0.0249566 0.0250691 0.0251815 0.0252939 0.0254064 0.0255197 0.025633 0.0257463 0.0258596 0.0259729 0.0260871 0.0262013 0.0263155 0.0264296 0.0265438 0.0266589 0.026774 0.0268891 0.0270041 0.0271192 0.0272352 0.0273511 0.0274671 0.0275831 0.0276991 0.0278159 0.0279328 0.0280497 0.0281665 0.0282834 0.028356 0.0284285 0.0285011 0.0285737 0.0286435 0.0286893 0.028735 0.0287808 0.0288266 0.0288723 0.028991 0.0291097 0.0292284 0.0293471 0.0294658 0.0295854 0.029705 0.0298246 0.0299443 0.0300639 0.0301844 0.030305 0.0304255 0.0305461 0.0306666 0.0307881 0.0309096 0.0310311 0.0311526 0.0312741 0.0313965 0.0315189 0.0316413 0.0317638 0.0318862 0.0320096 0.032133 0.0322563 0.0323797 0.0325031 0.0326275 0.0327518 0.0328761 0.0330005 0.0331248 0.0332501 0.0333754 0.0335007 0.0336261 0.0337514 0.0338776 0.0340039 0.0341302 0.0342565 0.0343828 0.03451 0.0346373 0.0347646 0.0348918 0.0350191 0.0351474 0.0352756 0.0354039 0.0355321 0.0356604 0.0357896 0.0359189 0.0360481 0.0361774 0.0363066 0.0364369 0.0365671 0.0366974 0.0368277 0.0369579 0.0370892 0.0372205 0.0373517 0.037483 0.0376143 0.0377466 0.0378789 0.0380111 0.0381434 0.0382757 0.038409 0.0385424 0.0386757 0.038809 0.0389423 0.0390767 0.039211 0.0393454 0.0394798 0.0396141 0.0397495 0.0398849 0.0400203 0.0401557 0.0402911 0.0404276 0.040564 0.0407005 0.0408369 0.0409734 0.0411109 0.0412484 0.0413859 0.0415235 0.041661 0.0417996 0.0419381 0.0420767 0.0422153 0.0423539 0.0424936 0.0426332 0.0427729 0.0429126 0.0430522 0.043193 0.0433337 0.0434745 0.0436152 0.043756 0.0438978 0.0440397 0.0441815 0.0443234 0.0444652 0.0446082 0.0447511 0.0448941 0.045037 0.04518 0.045324 0.0454681 0.0456121 0.0457562 0.0459003 0.0460454 0.0461906 0.0463358 0.046481 0.0466262 0.0467725 0.0469188 0.0470651 0.0472114 0.0473577 0.0475052 0.0476526 0.0478001 0.0479475 0.048095 0.0482436 0.0483922 0.0485408 0.0486893 0.0488379 0.0489877 0.0491375 0.0492872 0.049437 0.0495867 0.0497376 0.0498885 0.0500395 0.0501904 0.0503413 0.0504934 0.0506455 0.0507976 0.0509497 0.0511018 0.051255 0.0514083 0.0515616 0.0517149 0.0518681 0.0520226 0.0521771 0.0523316 0.052486 0.0526405 0.0527962 0.0529518 0.0531075 0.0532632 0.0534188 0.0535061 0.0535933 0.0536806 0.0537678 0.0538526 0.0539228 0.0539929 0.054063 0.0541331 0.0542033 0.0543614 0.0545195 0.0546776 0.0548357 0.0549938 0.0551531 0.0553125 0.0554718 0.0556311 0.0557905 0.055951 0.0561116 0.0562722 0.0564328 0.0565933 0.0567552 0.056917 0.0570788 0.0572406 0.0574025 0.0575656 0.0577286 0.0578917 0.0580548 0.0582179 0.0583823 0.0585466 0.058711 0.0588753 0.0590397 0.0592053 0.0593709 0.0595366 0.0597022 0.0598679 0.0600348 0.0602017 0.0603686 0.0605356 0.0607025 0.0608707 0.0610389 0.0612072 0.0613754 0.0615436 0.0617132 0.0618827 0.0620522 0.0622218 0.0623913 0.0625622 0.062733 0.0629039 0.0630747 0.0632456 0.0634178 0.06359 0.0637622 0.0639344 0.0641066 0.0642801 0.0644536 0.0646272 0.0648007 0.0649742 0.0651491 0.065324 0.0654989 0.0656738 0.0658487 0.0660249 0.0662012 0.0663774 0.0665537 0.0667299 0.0669075 0.0670852 0.0672628 0.0674404 0.067618 0.0677971 0.0679761 0.0681551 0.0683341 0.0685131 0.0686935 0.0688739 0.0690543 0.0692347 0.0694151 0.069597 0.0697788 0.0699606 0.0701424 0.0703242 0.0704459 0.0705675 0.0706892 0.0708108 0.0709274 0.07099 0.0710526 0.0711152 0.0711778 0.0712404 0.0714251 0.0716097 0.0717944 0.0719791 0.0721637 0.0723498 0.072536 0.0727221 0.0729082 0.0730943 0.0732819 0.0734694 0.073657 0.0738445 0.0740321 0.0742211 0.0744102 0.0745992 0.0747882 0.0749773 0.0751678 0.0753583 0.0755488 0.0757393 0.0759298 0.0761218 0.0763138 0.0765058 0.0766978 0.0768898 0.0770833 0.0772768 0.0774703 0.0776638 0.0778574 0.0780524 0.0782474 0.0784424 0.0786374 0.0788325 0.079029 0.0792256 0.0794221 0.0796186 0.0798152 0.0800133 0.0802114 0.0804095 0.0806076 0.0808057 0.0810053 0.0812049 0.0814046 0.0816042 0.0818039 0.0820051 0.0822063 0.0824075 0.0826087 0.08281 0.0829691 0.0831282 0.0832872 0.0834463 0.083596 0.0836416 0.0836872 0.0837328 0.0837784 0.083824 0.0840283 0.0842327 0.0844371 0.0846415 0.0848459 0.0850519 0.0852579 0.0854639 0.0856699 0.0858759 0.0860836 0.0862912 0.0864988 0.0867064 0.0869141 0.0871234 0.0873326 0.0875419 0.0877511 0.0879604 0.0881714 0.0883823 0.0885932 0.0888041 0.0890151 0.0892277 0.0894402 0.0896528 0.0898654 0.0900781 0.0902923 0.0905066 0.0907209 0.0909352 0.0911495 0.0913655 0.0915815 0.0917974 0.0920134 0.0922295 0.0923689 0.0925083 0.0926477 0.092787 0.0929184 0.0929984 0.0930783 0.0931582 0.0932381 0.0933181 0.0935375 0.093757 0.0939764 0.0941958 0.0944154 0.0946366 0.0948578 0.095079 0.0953002 0.0955215 0.0957445 0.0959674 0.0961904 0.0964134 0.0966365 0.0968613 0.0970861 0.0973108 0.0975356 0.0977605 0.0979871 0.0982137 0.0984403 0.0986669 0.0988937 0.0991222 0.0993506 0.099579 0.0998075 0.100036 0.100125 0.100214 0.100303 0.100393 0.100478 0.10062 0.100762 0.100904 0.101046 0.101188 0.10142 0.101652 0.101885 0.102117 0.102349 0.102583 0.102817 0.103052 0.103286 0.10352 0.103756 0.103992 0.104228 0.104465 0.104701 0.104939 0.105177 0.105415 0.105653 0.105892 0.106056 0.106221 0.106386 0.10655 0.106703 0.106781 0.106859 0.106937 0.107015 0.107093 0.107335 0.107577 0.107819 0.108061 0.108304 0.108548 0.108792 0.109037 0.109281 0.109526 0.109772 0.110018 0.110265 0.110511 0.110758 0.111003 0.111247 0.111492 0.111736 0.111955 0.111964 0.111974 0.111983 0.111992 0.112002 0.112252 0.112503 0.112754 0.113005 0.113256 0.11351 0.113763 0.114016 0.114269 0.114523 0.114778 0.115034 0.115289 0.115545 0.115801 0.115944 0.116087 0.11623 0.116373 0.116507 0.116624 0.116741 0.116858 0.116975 0.117092 0.117352 0.117613 0.117873 0.118134 0.118395 0.118658 0.118921 0.119184 0.119447 0.119711 0.119882 0.120053 0.120223 0.120394 0.120553 0.120651 0.120748 0.120846 0.120943 0.121041 0.121309 0.121578 0.121846 0.122114 0.122384 0.122655 0.122927 0.123198 0.123469 0.123742 0.123842 0.123942 0.124043 0.124143 0.12424 0.124415 0.124589 0.124764 0.124939 0.125114 0.125391 0.125668 0.125945 0.126222 0.126501 0.126741 0.126981 0.127221 0.127461 0.127683 0.127727 0.127771 0.127815 0.127859 0.127903 0.128187 0.12847 0.128753 0.129036 0.129321 0.129607 0.129894 0.13018 0.130466 0.130754 0.1308 0.130845 0.13089 0.130936 0.13098 0.131225 0.131469 0.131713 0.131958 0.132203 0.132495 0.132788 0.13308 0.133373 0.133667 0.133777 0.133888 0.133998 0.134109 0.134217 0.134403 0.134588 0.134774 0.134959 0.135145 0.135443 0.135742 0.13604 0.136338 0.136637 0.136806 0.136975 0.137143 0.137312 0.137478 0.137611 0.137744 0.137877 0.13801 0.138143 0.138446 0.13875 0.139053 0.139357 0.139661 0.139899 0.140138 0.140376 0.140615 0.140854 0.140921 0.140988 0.141055 0.141122 0.141189 0.141497 0.141805 0.142113 0.142421 0.142729 0.143015 0.143301 0.143587 0.143873 0.144166 0.144189 0.144211 0.144233 0.144255 0.144277 0.144589 0.144901 0.145213 0.145524 0.145835 0.146148 0.146461 0.146775 0.147088 0.1474 0.147442 0.147484 0.147525 0.147567 0.147609 0.147882 0.148155 0.148428 0.148701 0.148972 0.149289 0.149605 0.149921 0.150238 0.150552 0.150701 0.15085 0.150999 0.151149 0.151304 0.151471 0.151638 0.151805 0.151972 0.152138 0.152457 0.152776 0.153095 0.153414 0.153731 0.154051 0.154372 0.154692 0.155012 0.155331 0.155349 0.155367 0.155385 0.155404 0.155422 0.155725 0.156029 0.156332 0.156635 0.156937 0.15726 0.157583 0.157906 0.158229 0.15855 0.158875 0.159199 0.159524 0.159849 0.160171 0.16019 0.160209 0.160227 0.160246 0.160265 0.160572 0.16088 0.161187 0.161494 0.1618 0.162128 0.162456 0.162783 0.163111 0.163437 0.163767 0.164096 0.164426 0.164755 0.165083 0.165351 0.165619 0.165887 0.166155 0.166461 0.166517 0.166572 0.166628 0.166683 0.166739 0.167072 0.167406 0.167739 0.168072 0.168404 0.16874 0.169075 0.16941 0.169746 0.17008 0.170418 0.170755 0.171093 0.17143 0.171767 0.172106 0.172446 0.172786 0.173126 0.173465 0.173807 0.174149 0.174491 0.174833 0.175174 0.175279 0.175384 0.175489 0.175593 0.175705 0.175943 0.176181 0.176419 0.176657 0.176895 0.177242 0.177589 0.177936 0.178282 0.178629 0.178978 0.179327 0.179677 0.180026 0.180375 0.180727 0.181079 0.181431 0.181782 0.182134 0.182488 0.182843 0.183197 0.183552 0.183906 0.184263 0.18462 0.184977 0.185334 0.185691 0.186051 0.186411 0.18677 0.18713 0.18749 0.187852 0.188215 0.188577 0.18894 0.189302 0.189667 0.190032 0.190398 0.190763 0.191128 0.191496 0.191864 0.192232 0.1926 0.192968 0.193339 0.19371 0.194081 0.194452 0.194822 0.194942 0.195061 0.19518 0.1953 0.195424 0.195677 0.195931 0.196184 0.196437 0.196691 0.197067 0.197444 0.19782 0.198197 0.198574 0.198953 0.199333 0.199712 0.200092 0.200471 0.200853 0.201236 0.201618 0.202001 0.202383 0.202769 0.203154 0.203539 0.203925 0.20431 0.204698 0.205087 0.205475 0.205864 0.206252 0.206643 0.207035 0.207426 0.207817 0.208209 0.208603 0.208998 0.209392 0.209787 0.210181 0.210579 0.210976 0.211374 0.211771 0.212169 0.212569 0.21297 0.21337 0.213771 0.214171 0.214575 0.214979 0.215383 0.215786 0.21619 0.216597 0.217004 0.21741 0.217817 0.218224 0.218634 0.219044 0.219454 0.219864 0.220274 0.220687 0.2211 0.221513 0.221927 0.22234 0.222756 0.223172 0.223589 0.224005 0.224421 0.224841 0.22526 0.22568 0.226099 0.226519 0.226942 0.227364 0.227787 0.22821 0.228633 0.229042 0.229451 0.229861 0.23027 0.230679 0.230799 0.230918 0.231038 0.231157 0.231283 0.231588 0.231892 0.232196 0.232501 0.232805 0.233247 0.233689 0.234131 0.234573 0.235015 0.235474 0.235933 0.236392 0.236851 0.23731 0.237787 0.238264 0.238741 0.239218 0.239695 0.24019 0.240686 0.241181 0.241677 0.242173 0.242688 0.243203 0.243717 0.244232 0.244747 0.244952 0.245157 0.245361 0.245566 0.245782 0.24611 0.246438 0.246766 0.247094 0.247423 0.247978 0.248534 0.24909 0.249646 0.250202 0.25078 0.251358 0.251935 0.252513 0.253091 0.253691 0.254291 0.254891 0.255491 0.256092 0.256715 0.257339 0.257963 0.258586 0.25921 0.259858 0.260506 0.261154 0.261802 0.262451 0.263124 0.263797 0.264471 0.265144 0.265818 0.265956 0.266094 0.266232 0.26637 0.266514 0.267074 0.267635 0.268195 0.268756 0.269317 0.270044 0.270771 0.271498 0.272225 0.272953 0.273708 0.274464 0.275219 0.275975 0.276731 0.277516 0.278301 0.279086 0.279871 0.280656 0.281472 0.282288 0.283104 0.283919 0.284735 0.285583 0.286431 0.287279 0.288126 0.288974 0.289855 0.290736 0.291617 0.292497 0.293378 0.294294 0.295209 0.296124 0.297039 0.297955 0.298757 0.29956 0.300363 0.301165 0.302217 0.302316 0.302414 0.302513 0.302611 0.30271 0.303698 0.304686 0.305674 0.306662 0.30765 0.308676 0.309703 0.310729 0.311755 0.31278