# vtk DataFile Version 2.0
track0
ASCII
DATASET POLYDATA
POINTS 12035 float
-0.0205 0.001 1e-05
-0.02052 0.000999985 1e-05
-0.02054 0.000999974 1e-05
-0.02056 0.000999965 1e-05
-0.02058 0.000999959 1e-05
-0.0206 0.000999956 1e-05
-0.0205 0.00367778 1e-05
-0.02052 0.00367778 1e-05
-0.02054 0.00367777 1e-05
-0.02056 0.00367777 1e-05
-0.02058 0.00367777 1e-05
-0.0206 0.00367777 1e-05
-0.0205 0.00635556 1e-05
-0.02052 0.00635555 1e-05
-0.02054 0.00635555 1e-05
-0.02056 0.00635555 1e-05
-0.02058 0.00635555 1e-05
-0.0206 0.00635555 1e-05
-0.0205 0.00903333 1e-05
-0.02052 0.00903333 1e-05
-0.02054 0.00903333 1e-05
-0.02056 0.00903333 1e-05
-0.02058 0.00903333 1e-05
-0.0206 0.00903333 1e-05
-0.0205 0.0117111 1e-05
-0.02052 0.0117111 1e-05
-0.02054 0.0117111 1e-05
-0.02056 0.0117111 1e-05
-0.02058 0.0117111 1e-05
-0.0206 0.0117111 1e-05
-0.0205 0.0143889 1e-05
-0.02052 0.0143889 1e-05
-0.02054 0.0143889 1e-05
-0.02056 0.0143889 1e-05
-0.02058 0.0143889 1e-05
-0.0206 0.0143889 1e-05
-0.0205 0.0170667 1e-05
-0.02052 0.0170667 1e-05
-0.02054 0.0170667 1e-05
-0.02056 0.0170667 1e-05
-0.02058 0.0170667 1e-05
-0.0206 0.0170667 1e-05
-0.0205 0.0197444 1e-05
-0.02052 0.0197444 1e-05
-0.02054 0.0197444 1e-05
-0.02056 0.0197444 1e-05
-0.02058 0.0197444 1e-05
-0.0206 0.0197444 1e-05
-0.0205 0.0224222 1e-05
-0.02052 0.0224222 1e-05
-0.02054 0.0224222 1e-05
-0.02056 0.0224222 1e-05
-0.02058 0.0224222 1e-05
-0.0206 0.0224222 1e-05
-0.0205 0.0251 1e-05
-0.02052 0.0250998 1e-05
-0.02054 0.0250997 1e-05
-0.02056 0.0250995 1e-05
-0.02058 0.0250995 1e-05
-0.0206 0.0250994 1e-05
-0.0205 0.001 1e-05
-0.0202034 0.00100022 1e-05
-0.0199069 0.00100067 1e-05
-0.0196103 0.00100132 1e-05
-0.0193137 0.00100219 1e-05
-0.0190172 0.00100326 1e-05
-0.0187132 0.00100466 1e-05
-0.0184093 0.00100588 1e-05
-0.0181054 0.0010071 1e-05
-0.0178015 0.00100832 1e-05
-0.0174976 0.00100953 1e-05
-0.0172058 0.00101083 1e-05
-0.016914 0.00101193 1e-05
-0.0166222 0.00101303 1e-05
-0.0163305 0.00101413 1e-05
-0.0160387 0.00101523 1e-05
-0.0157586 0.00101637 1e-05
-0.0154784 0.00101745 1e-05
-0.0151983 0.00101857 1e-05
-0.0149182 0.00101972 1e-05
-0.0146381 0.00102091 1e-05
-0.0143752 0.00102209 1e-05
-0.0141123 0.00102328 1e-05
-0.0138494 0.00102449 1e-05
-0.0135866 0.00102574 1e-05
-0.0133646 0.00102682 1e-05
-0.0133503 0.00102689 1e-05
-0.0133361 0.00102696 1e-05
-0.0133219 0.00102703 1e-05
-0.0133077 0.0010271 1e-05
-0.0132934 0.00102717 1e-05
-0.0130353 0.00102846 1e-05
-0.0127771 0.00102976 1e-05
-0.0125189 0.00103109 1e-05
-0.0122607 0.00103242 1e-05
-0.0120025 0.00103378 1e-05
-0.0117547 0.00103509 1e-05
-0.0115068 0.0010364 1e-05
-0.0112589 0.00103773 1e-05
-0.0110111 0.00103905 1e-05
-0.0107632 0.00104039 1e-05
-0.0105252 0.00104166 1e-05
-0.0102873 0.00104295 1e-05
-0.0100493 0.00104423 1e-05
-0.00981133 0.00104551 1e-05
-0.00957337 0.00104679 1e-05
-0.00934491 0.00104801 1e-05
-0.00911645 0.00104924 1e-05
-0.00888799 0.00105046 1e-05
-0.00865954 0.00105168 1e-05
-0.00843108 0.0010529 1e-05
-0.00821175 0.00105406 1e-05
-0.00799242 0.00105522 1e-05
-0.00777309 0.00105638 1e-05
-0.00755376 0.00105754 1e-05
-0.00733443 0.00105869 1e-05
-0.00712387 0.00105978 1e-05
-0.0069133 0.00106088 1e-05
-0.00670273 0.00106197 1e-05
-0.00649216 0.00106306 1e-05
-0.0062816 0.00106415 1e-05
-0.00607944 0.00106518 1e-05
-0.00587729 0.00106622 1e-05
-0.00567514 0.00106725 1e-05
-0.00547298 0.00106827 1e-05
-0.00527083 0.0010693 1e-05
-0.00507675 0.00107027 1e-05
-0.00488267 0.00107125 1e-05
-0.0046886 0.00107222 1e-05
-0.00449452 0.00107319 1e-05
-0.00430044 0.00107416 1e-05
-0.00411412 0.00107508 1e-05
-0.0039278 0.001076 1e-05
-0.00374147 0.00107692 1e-05
-0.00355515 0.00107784 1e-05
-0.00336883 0.00107876 1e-05
-0.00318995 0.00107963 1e-05
-0.00301107 0.00108051 1e-05
-0.00283219 0.00108139 1e-05
-0.00265331 0.00108227 1e-05
-0.00247443 0.00108315 1e-05
-0.0023027 0.00108399 1e-05
-0.00213097 0.00108483 1e-05
-0.00195924 0.00108568 1e-05
-0.0017875 0.00108653 1e-05
-0.00161577 0.00108738 1e-05
-0.0014509 0.0010882 1e-05
-0.00128603 0.00108902 1e-05
-0.00112116 0.00108985 1e-05
-0.00095629 0.00109069 1e-05
-0.000791418 0.00109154 1e-05
-0.000633135 0.00109235 1e-05
-0.000474851 0.00109318 1e-05
-0.000316568 0.00109402 1e-05
-0.000158284 0.00109487 1e-05
0 0.00109572 1e-05
0.000105677 0.00109629 1e-05
0.000211355 0.00109687 1e-05
0.000317032 0.00109745 1e-05
0.00042271 0.00109803 1e-05
0.000528387 0.00109861 1e-05
0.000634886 0.00109918 1e-05
0.000741385 0.00109976 1e-05
0.000847885 0.00110033 1e-05
0.000954384 0.00110089 1e-05
0.00106088 0.00110145 1e-05
0.00116821 0.00110201 1e-05
0.00127554 0.00110256 1e-05
0.00138286 0.0011031 1e-05
0.00149019 0.00110364 1e-05
0.00159752 0.00110416 1e-05
0.00170568 0.00110467 1e-05
0.00181384 0.00110519 1e-05
0.001922 0.00110569 1e-05
0.00203016 0.00110618 1e-05
0.00213833 0.00110665 1e-05
0.00224733 0.00110712 1e-05
0.00235633 0.00110759 1e-05
0.00246533 0.00110804 1e-05
0.00257434 0.00110849 1e-05
0.00268334 0.00110892 1e-05
0.00279319 0.00110934 1e-05
0.00290304 0.00110977 1e-05
0.00301289 0.00111018 1e-05
0.00312274 0.00111058 1e-05
0.00323259 0.00111097 1e-05
0.00334329 0.00111135 1e-05
0.003454 0.00111173 1e-05
0.0035647 0.0011121 1e-05
0.0036754 0.00111246 1e-05
0.00378611 0.00111282 1e-05
0.00389767 0.00111316 1e-05
0.00400924 0.00111349 1e-05
0.0041208 0.00111382 1e-05
0.00423237 0.00111414 1e-05
0.00434393 0.00111445 1e-05
0.00445636 0.00111475 1e-05
0.00456879 0.00111505 1e-05
0.00468123 0.00111533 1e-05
0.00479366 0.00111561 1e-05
0.00490609 0.00111588 1e-05
0.0050194 0.00111614 1e-05
0.0051327 0.0011164 1e-05
0.00524601 0.00111664 1e-05
0.00535932 0.00111688 1e-05
0.00547262 0.00111711 1e-05
0.00558681 0.00111732 1e-05
0.005701 0.00111754 1e-05
0.00581518 0.00111774 1e-05
0.00592937 0.00111794 1e-05
0.00604356 0.00111813 1e-05
0.00615863 0.00111831 1e-05
0.00627371 0.00111848 1e-05
0.00638878 0.00111864 1e-05
0.00650386 0.0011188 1e-05
0.00661893 0.00111895 1e-05
0.0067349 0.00111908 1e-05
0.00685087 0.00111922 1e-05
0.00696684 0.00111934 1e-05
0.00708281 0.00111945 1e-05
0.00719878 0.00111956 1e-05
0.00731565 0.00111966 1e-05
0.00743252 0.00111975 1e-05
0.00754939 0.00111983 1e-05
0.00766626 0.0011199 1e-05
0.00778313 0.00111996 1e-05
0.0078557 0.00112 1e-05
0.00792827 0.00112003 1e-05
0.00800084 0.00112006 1e-05
0.0080734 0.00112008 1e-05
0.00814326 0.0011201 1e-05
0.00818901 0.00112011 1e-05
0.00823477 0.00112012 1e-05
0.00828052 0.00112013 1e-05
0.00832628 0.00112014 1e-05
0.00837203 0.00112015 1e-05
0.00849073 0.00112016 1e-05
0.00860942 0.00112016 1e-05
0.00872812 0.00112016 1e-05
0.00884682 0.00112014 1e-05
0.00896551 0.00112012 1e-05
0.00908513 0.00112008 1e-05
0.00920475 0.00112004 1e-05
0.00932437 0.00111999 1e-05
0.00944398 0.00111993 1e-05
0.0095636 0.00111986 1e-05
0.00968415 0.00111978 1e-05
0.0098047 0.00111969 1e-05
0.00992525 0.00111959 1e-05
0.0100458 0.00111948 1e-05
0.0101663 0.00111937 1e-05
0.0102878 0.00111923 1e-05
0.0104093 0.00111909 1e-05
0.0105308 0.00111895 1e-05
0.0106523 0.00111879 1e-05
0.0107738 0.00111862 1e-05
0.0108962 0.00111844 1e-05
0.0110186 0.00111825 1e-05
0.0111411 0.00111805 1e-05
0.0112635 0.00111785 1e-05
0.0113859 0.00111763 1e-05
0.0115093 0.00111739 1e-05
0.0116327 0.00111715 1e-05
0.0117561 0.0011169 1e-05
0.0118795 0.00111664 1e-05
0.0120028 0.00111637 1e-05
0.0121272 0.00111608 1e-05
0.0122515 0.00111579 1e-05
0.0123759 0.00111549 1e-05
0.0125002 0.00111517 1e-05
0.0126245 0.00111485 1e-05
0.0127498 0.0011145 1e-05
0.0128752 0.00111415 1e-05
0.0130005 0.0011138 1e-05
0.0131258 0.00111343 1e-05
0.0132511 0.00111305 1e-05
0.0133774 0.00111264 1e-05
0.0135036 0.00111224 1e-05
0.0136299 0.00111182 1e-05
0.0137562 0.00111139 1e-05
0.0138825 0.00111096 1e-05
0.0140098 0.0011105 1e-05
0.014137 0.00111003 1e-05
0.0142643 0.00110956 1e-05
0.0143915 0.00110907 1e-05
0.0145188 0.00110857 1e-05
0.0146471 0.00110806 1e-05
0.0147753 0.00110753 1e-05
0.0149036 0.001107 1e-05
0.0150318 0.00110645 1e-05
0.0151601 0.00110589 1e-05
0.0152893 0.00110532 1e-05
0.0154186 0.00110473 1e-05
0.0155478 0.00110413 1e-05
0.0156771 0.00110352 1e-05
0.0158063 0.0011029 1e-05
0.0159366 0.00110227 1e-05
0.0160668 0.00110162 1e-05
0.0161971 0.00110096 1e-05
0.0163273 0.00110029 1e-05
0.0164576 0.00109961 1e-05
0.0165889 0.00109891 1e-05
0.0167201 0.0010982 1e-05
0.0168514 0.00109748 1e-05
0.0169827 0.00109674 1e-05
0.0171139 0.001096 1e-05
0.0172462 0.00109524 1e-05
0.0173785 0.00109447 1e-05
0.0175108 0.00109368 1e-05
0.0176431 0.00109287 1e-05
0.0177754 0.00109207 1e-05
0.0179087 0.00109125 1e-05
0.018042 0.00109041 1e-05
0.0181753 0.00108956 1e-05
0.0183087 0.00108869 1e-05
0.018442 0.00108781 1e-05
0.0185763 0.00108694 1e-05
0.0187107 0.00108603 1e-05
0.018845 0.00108511 1e-05
0.0189794 0.00108417 1e-05
0.0191137 0.00108323 1e-05
0.0192491 0.00108229 1e-05
0.0193845 0.00108132 1e-05
0.0195199 0.00108033 1e-05
0.0196553 0.00107932 1e-05
0.0197907 0.00107832 1e-05
0.0199272 0.00107731 1e-05
0.0200636 0.00107628 1e-05
0.0202001 0.00107521 1e-05
0.0203365 0.00107414 1e-05
0.020473 0.00107307 1e-05
0.0206105 0.001072 1e-05
0.020748 0.00107089 1e-05
0.0208855 0.00106976 1e-05
0.021023 0.00106862 1e-05
0.0211606 0.00106748 1e-05
0.0212991 0.00106634 1e-05
0.0214377 0.00106517 1e-05
0.0215763 0.00106397 1e-05
0.0217149 0.00106276 1e-05
0.0218535 0.00106155 1e-05
0.0219931 0.00106034 1e-05
0.0221328 0.0010591 1e-05
0.0222724 0.00105783 1e-05
0.0224121 0.00105655 1e-05
0.0225517 0.00105527 1e-05
0.0226925 0.001054 1e-05
0.0228332 0.00105269 1e-05
0.022974 0.00105134 1e-05
0.0231147 0.00104999 1e-05
0.0232555 0.00104864 1e-05
0.0233973 0.00104729 1e-05
0.0235391 0.00104591 1e-05
0.023681 0.0010445 1e-05
0.0238228 0.00104307 1e-05
0.0239647 0.00104165 1e-05
0.0241076 0.00104023 1e-05
0.0242505 0.00103878 1e-05
0.0243935 0.00103729 1e-05
0.0245364 0.00103579 1e-05
0.0246794 0.0010343 1e-05
0.0248234 0.0010328 1e-05
0.0249675 0.00103127 1e-05
0.0251115 0.00102971 1e-05
0.0252556 0.00102814 1e-05
[...]
POINT_DATA 12035
 FIELD attributes 1
U 3 12035 float
10.0004 	0.00731844 	0 10.0004 	0.00585475 	0 10.0003 	0.00439106 	0 10.0002 	0.00292738 	0 10.0001 	0.00146369 	0 10 	0 	0
10.0001 	0.000881413 	0 10 	0.000705131 	0 10 	0.000528848 	0 10 	0.000352565 	0 10 	0.000176283 	0 10 	0 	0
10.0001 	0.000469552 	0 10.0001 	0.000375452 	0 10.0001 	0.000281352 	0 10 	0.000187252 	0 10 	9.31513e-05 	0 10 	0 	0
10 	0.000270113 	0 10 	0.00021609 	0 10 	0.000162068 	0 10 	0.000108045 	0 10 	5.40226e-05 	0 10 	0 	0
10 	8.44388e-05 	0 10 	6.75511e-05 	0 10 	5.06633e-05 	0 10 	3.37755e-05 	0 10 	1.68878e-05 	0 10 	0 	0
10 	-2.25661e-05 	0 10 	-1.80529e-05 	0 10 	-1.35397e-05 	0 10 	-9.02646e-06 	0 10 	-4.51323e-06 	0 10 	0 	0
10 	-0.000213522 	0 10 	-0.000170818 	0 10 	-0.000128113 	0 10 	-8.54089e-05 	0 10 	-4.27044e-05 	0 10 	0 	0
10 	-0.000376091 	0 10 	-0.000300873 	0 10 	-0.000225655 	0 10 	-0.000150436 	0 10 	-7.52182e-05 	0 10 	0 	0
9.99999 	-0.000426475 	0 9.99999 	-0.00034118 	0 9.99999 	-0.000255885 	0 10 	-0.00017059 	0 10 	-8.5295e-05 	0 10 	0 	0
9.17387 	0.0870993 	0 9.1308 	0.0696795 	0 9.08741 	0.0522593 	0 9.04368 	0.034839 	0 8.99962 	0.0174184 	0 8.95524 	0 	0
10.0004 	0.00731844 	0 10.0024 	0.0151698 	0 10.0045 	0.0221897 	0 10.0065 	0.0291654 	0 10.0085 	0.0360971 	0 10.0135 	0.0463134 	0 10.0163 	0.0402141 	0 10.0207 	0.0401746 	0 10.0251 	0.0401352 	0 10.0296 	0.0400961 	0 10.0355 	0.0445588 	0 10.0384 	0.0379213 	0 10.0424 	0.0378795 	0 10.0464 	0.0378378 	0 10.0504 	0.037796 	0 10.0545 	0.040898 	0 10.0566 	0.0388239 	0 10.0591 	0.0401357 	0 10.0615 	0.0414493 	0 10.0639 	0.0427644 	0 10.0661 	0.0452237 	0 10.0676 	0.0453371 	0 10.0689 	0.04654 	0 10.0702 	0.047744 	0 10.0715 	0.0489492 	0 10.0727 	0.0499679 	0 10.0727 	0.0500336 	0 10.0728 	0.0500993 	0 10.0729 	0.0501651 	0 10.0729 	0.0502308 	0 10.073 	0.0502866 	0 10.0735 	0.050918 	0 10.074 	0.0515431 	0 10.0745 	0.0521687 	0 10.0751 	0.0527948 	0 10.0755 	0.0532564 	0 10.0754 	0.0535584 	0 10.075 	0.0537545 	0 10.0747 	0.0539507 	0 10.0743 	0.0541471 	0 10.0737 	0.0541046 	0 10.0733 	0.0542581 	0 10.0722 	0.0542427 	0 10.0711 	0.0542273 	0 10.07 	0.0542119 	0 10.0684 	0.0539271 	0 10.068 	0.0540188 	0 10.0663 	0.0538963 	0 10.0647 	0.0537737 	0 10.063 	0.0536511 	0 10.0604 	0.0532424 	0 10.0604 	0.0533121 	0 10.0583 	0.0531328 	0 10.0563 	0.0529534 	0 10.0542 	0.0527739 	0 10.0506 	0.0522964 	0 10.0512 	0.0523715 	0 10.0488 	0.0521725 	0 10.0465 	0.0519735 	0 10.0441 	0.0517744 	0 10.0394 	0.0512703 	0 10.0409 	0.0513755 	0 10.0383 	0.051182 	0 10.0357 	0.0509885 	0 10.0331 	0.0507949 	0 10.0273 	0.0502845 	0 10.0297 	0.0504325 	0 10.027 	0.050269 	0 10.0242 	0.0501054 	0 10.0215 	0.0499419 	0 10.0145 	0.0494579 	0 10.0181 	0.0496698 	0 10.0152 	0.0495481 	0 10.0124 	0.0494264 	0 10.0096 	0.0493046 	0 10.0013 	0.0488477 	0 10.0061 	0.0491439 	0 10.0033 	0.0491391 	0 10.0004 	0.0491342 	0 9.99758 	0.0491294 	0 9.98816 	0.048813 	0 9.99431 	0.0492677 	0 9.99147 	0.0493555 	0 9.98864 	0.0494433 	0 9.9858 	0.0495312 	0 9.97515 	0.0492365 	0 9.98275 	0.0498131 	0 9.98007 	0.0502632 	0 9.9774 	0.0507133 	0 9.97472 	0.0511635 	0 9.96299 	0.0513317 	0 9.97232 	0.0522437 	6.56321e-22 9.97059 	0.0528064 	4.58577e-21 9.96887 	0.0533693 	8.51476e-21 9.96715 	0.0539322 	1.24433e-20 9.95523 	0.0539178 	1.04338e-20 9.96618 	0.0544766 	7.42964e-20 9.96493 	0.0544827 	6.91081e-20 9.96369 	0.0544888 	6.39198e-20 9.96244 	0.0544949 	5.87317e-20 9.95039 	0.0539271 	-1.20097e-20 9.96143 	0.0538088 	-3.25915e-20 9.96021 	0.0533187 	-3.61822e-20 9.95899 	0.0528285 	-3.97709e-20 9.95777 	0.0523383 	-4.33575e-20 9.94569 	0.0515717 	-1.64356e-20 9.95628 	0.0511348 	-1.45394e-20 9.95463 	0.050257 	-1.00664e-20 9.95297 	0.0493792 	-5.59386e-21 9.9513 	0.0485013 	-1.12189e-21 9.939 	0.0474508 	5.80271e-21 9.94914 	0.0470435 	-3.89137e-21 9.94705 	0.046025 	-1.8489e-20 9.94494 	0.0450063 	-3.30887e-20 9.94283 	0.0439873 	-4.76904e-20 9.93026 	0.0426516 	-6.86902e-20 9.93992 	0.0424187 	-9.97702e-20 9.93736 	0.0414812 	-9.01008e-20 9.9348 	0.0405434 	-8.04245e-20 9.93224 	0.0396054 	-7.07414e-20 9.9194 	0.0381578 	-2.31629e-20 9.92846 	0.0380485 	3.07093e-20 9.92543 	0.0372048 	4.13517e-20 9.92239 	0.0363607 	5.19858e-20 9.91935 	0.0355163 	6.26116e-20 9.90631 	0.0340611 	2.87317e-20 9.91469 	0.0339537 	-4.29516e-20 9.91118 	0.0331396 	-4.78006e-20 9.90766 	0.0323252 	-5.26366e-20 9.90413 	0.0315105 	-5.74595e-20 9.89097 	0.030097 	-2.04562e-22 9.89856 	0.0299444 	5.43422e-20 9.89453 	0.0291464 	4.70063e-20 9.89049 	0.0283481 	3.96574e-20 9.88645 	0.0275495 	3.22956e-20 9.87323 	0.0262148 	-2.14751e-20 9.87984 	0.0260097 	-6.84686e-20 9.87527 	0.025227 	-8.60144e-20 9.8707 	0.0244441 	-1.03555e-19 9.86612 	0.0236608 	-1.21091e-19 9.85294 	0.022417 	-1.05516e-19 9.85837 	0.0221644 	-1.2536e-19 9.85325 	0.0213983 	-1.15574e-19 9.84813 	0.0206318 	-1.05784e-19 9.843 	0.019865 	-9.59911e-20 9.83005 	0.0187108 	-6.4022e-20 9.83402 	0.0184172 	-5.4436e-20 9.82836 	0.0176678 	-3.98371e-20 9.82269 	0.0169181 	-2.52398e-20 9.81702 	0.0161681 	-1.0644e-20 9.80456 	0.0150963 	2.17237e-21 9.80672 	0.0147508 	0 9.80054 	0.0140111 	0 9.79434 	0.013271 	0 9.78814 	0.0125305 	0 9.77649 	0.0115357 	0 9.77646 	0.0111212 	-1.21028e-20 9.76976 	0.0103892 	-2.70973e-20 9.76305 	0.00965683 	-4.20934e-20 9.75634 	0.00892405 	-5.7091e-20 9.7459 	0.00801673 	-7.32657e-20 9.74323 	0.00751205 	-8.00052e-20 9.73603 	0.00678833 	-8.05593e-20 9.72882 	0.00606418 	-8.11089e-20 9.72161 	0.0053396 	-8.16537e-20 9.71283 	0.00454036 	-7.96723e-20 9.70998 	0.00418988 	-6.18691e-20 9.70526 	0.00374676 	-4.76594e-20 9.70053 	0.00330346 	-3.3453e-20 9.6958 	0.00285998 	-1.92499e-20 9.69124 	0.00243289 	-5.5803e-21 9.68822 	0.0021514 	3.38214e-21 9.6852 	0.00186984 	1.23433e-20 9.68218 	0.0015882 	2.13032e-20 9.67915 	0.00130648 	3.02617e-20 9.67365 	0.000912284 	4.12071e-20 9.66771 	0.000291228 	4.20083e-20 9.6595 	-0.000430041 	4.2867e-20 9.65128 	-0.00115186 	4.37237e-20 9.64304 	-0.00187424 	4.45784e-20 9.62613 	-0.00296948 	4.64223e-20 9.62537 	-0.00336243 	3.67489e-20 9.61673 	-0.00408222 	2.70738e-20 9.60807 	-0.00480263 	1.73976e-20 9.5994 	-0.00552364 	7.72037e-21 9.57625 	-0.00682384 	-6.02151e-22 9.58033 	-0.00704329 	-7.32584e-21 9.57129 	-0.00776514 	-1.65868e-20 9.56223 	-0.00848765 	-2.58467e-20 9.55315 	-0.00921082 	-3.51056e-20 9.52434 	-0.0106579 	-4.43736e-20 9.53279 	-0.01076 	-4.55325e-20 9.52337 	-0.0114856 	-5.13176e-20 9.51394 	-0.0122119 	-5.70998e-20 9.50449 	-0.0129389 	-6.28791e-20 9.47071 	-0.0144703 	-7.61791e-20 9.48298 	-0.0145093 	-1.10782e-19 9.47322 	-0.015239 	-1.03215e-19 9.46345 	-0.0159695 	-9.566e-20 9.45367 	-0.0167007 	-8.81174e-20 9.41565 	-0.0182546 	-3.24348e-20 9.43113 	-0.0182872 	-2.13985e-20 9.42107 	-0.0190224 	-1.51554e-20 9.41099 	-0.0197584 	-8.91145e-21 9.4009 	-0.0204952 	-2.6668e-21 9.35944 	-0.0220105 	0 9.37752 	-0.0220949 	0 9.36719 	-0.0228366 	0 9.35683 	-0.0235791 	0 9.34646 	-0.0243225 	0 9.30233 	-0.0257383 	0 9.32243 	-0.0259289 	1.74835e-21 9.31185 	-0.0266763 	7.55445e-21 9.30125 	-0.0274247 	1.33598e-20 9.29063 	-0.028174 	1.91644e-20 9.24457 	-0.0294318 	3.26328e-20 9.26613 	-0.0297754 	1.18708e-19 9.25533 	-0.0305274 	1.21079e-19 9.24452 	-0.0312803 	1.23464e-19 9.23368 	-0.0320341 	1.25863e-19 9.18636 	-0.0330831 	3.27899e-20 9.20888 	-0.0336194 	1.81215e-20 9.1979 	-0.0343747 	1.28611e-20 9.18689 	-0.035131 	7.59984e-21 9.17587 	-0.0358882 	2.33772e-21 9.12792 	-0.0366863 	1.30119e-20 9.14998 	-0.0374465 	8.25821e-20 9.1398 	-0.0382047 	8.56688e-20 9.12863 	-0.0389638 	8.67734e-20 9.11423 	-0.0397024 	8.0386e-20 9.06941 	-0.040239 	2.97619e-21 9.0882 	-0.041217 	-7.9289e-20 9.08129 	-0.0420099 	-9.81413e-20 9.06998 	-0.042772 	-1.06207e-19 9.0524 	-0.0434396 	-1.01429e-19 9.011 	-0.0437442 	-4.77716e-20 9.02678 	-0.0449144 	-1.41146e-19 9.02258 	-0.0457865 	-1.67347e-19 9.01117 	-0.0465518 	-1.69336e-19 8.99107 	-0.0471027 	-1.38003e-19 8.95284 	-0.0472041 	-3.69761e-20 8.96588 	-0.0485405 	-1.93026e-20 8.9639 	-0.0495291 	-8.93828e-21 8.95239 	-0.0502977 	-3.20299e-21 8.93038 	-0.0506953 	0 8.89508 	-0.0506231 	0 8.90564 	-0.0521019 	0 8.90543 	-0.0532371 	0 8.89386 	-0.0540089 	0 8.87045 	-0.0542233 	1.4825e-21 8.83782 	-0.0540037 	4.11896e-21 8.84616 	-0.0556002 	1.61164e-21 8.84735 	-0.0569039 	0 8.83573 	-0.0576788 	0 8.81137 	-0.0576894 	1.81042e-21 8.78118 	-0.0573494 	4.45061e-21 8.78752 	-0.0590448 	1.94331e-21 8.78979 	-0.0605349 	1.16634e-21 8.77814 	-0.0613118 	6.35555e-21 8.75323 	-0.0611002 	1.92847e-20 8.72524 	-0.0606591 	3.40084e-20 8.72981 	-0.0624249 	1.3434e-19 8.73288 	-0.0641043 	2.25987e-19 8.72122 	-0.0648824 	2.28936e-19 8.69607 	-0.0644475 	1.34771e-19 8.67008 	-0.0639355 	3.44596e-20 8.67307 	-0.0657587 	1.99679e-20 8.676 	-0.0675838 	5.47744e-21 8.66417 	-0.0683194 	1.82517e-22 8.63996 	-0.0677538 	2.72454e-21 8.61577 	-0.0671878 	5.26643e-21 8.61737 	-0.0690558 	2.86282e-21 8.61892 	-0.0709259 	4.60035e-22 8.60755 	-0.0716294 	1.88009e-21 8.58495 	-0.0710186 	-1.15725e-21 8.56236 	-0.0704074 	-4.19376e-21 8.56276 	-0.072304 	-3.89168e-20 8.5631 	-0.0742027 	-7.36436e-20 8.55224 	-0.0748753 	-7.47513e-20 8.53106 	-0.0742374 	-4.29976e-20 8.50989 	-0.0735991 	-1.12423e-20 8.50926 	-0.0755168 	6.7911e-20 8.50856 	-0.0774364 	1.47059e-19 8.49822 	-0.0780811 	1.5387e-19 8.47831 	-0.07743 	8.78279e-20 8.45841 	-0.0767784 	2.17858e-20 8.45686 	-0.0786982 	1.25881e-20 8.45525 	-0.08062 	3.3869e-21 8.44546 	-0.0812396 	1.00205e-22 8.42668 	-0.0805982 	3.83312e-21 8.40791 	-0.0799564 	7.56725e-21 8.40557 	-0.0818694 	3.02563e-21 8.40315 	-0.0837842 	-1.52091e-21 8.39392 	-0.0843822 	-1.61844e-20 8.37615 	-0.0837643 	-5.62107e-20 8.3584 	-0.0831459 	-9.62387e-20 8.35534 	-0.0850459 	-2.0077e-19 8.35222 	-0.0869476 	-3.05296e-19 8.34354 	-0.0875266 	-2.92498e-19 8.3267 	-0.0869409 	-1.72655e-19 8.30986 	-0.0863548 	-5.28113e-20 8.30618 	-0.0882395 	4.6427e-20 8.30211 	-0.090036 	1.3893e-19 8.29354 	-0.0905748 	1.36863e-19 8.2783 	-0.0901394 	7.22375e-20 8.2623 	-0.08959 	3.13417e-22 8.25805 	-0.0914583 	-7.10364e-20 8.25284 	-0.0930392 	-1.2831e-19 8.24439 	-0.0935927 	-1.35494e-19 8.23095 	-0.0933673 	-9.19979e-20 8.2157 	-0.0928576 	-3.00147e-20 8.21095 	-0.0947095 	-2.11693e-20 8.20483 	-0.0960813 	-1.23982e-20 8.19648 	-0.0966506 	-3.74815e-21 8.1846 	-0.0966323 	9.32087e-21 8.17003 	-0.0961642 	2.57704e-20 8.16484 	-0.0980002 	8.20686e-21 8.158 	-0.0991707 	-2.4562e-21 8.14974 	-0.099757 	-7.06641e-21 8.13921 	-0.0999417 	-5.10043e-21 8.12527 	-0.0995167 	6.84412e-21 8.11967 	-0.101338 	-6.56921e-21 8.1123 	-0.102315 	-1.41733e-20 8.10412 	-0.10292 	-1.92105e-20 8.09476 	-0.103303 	-2.69778e-20 8.08138 	-0.102922 	-4.41739e-20 8.07542 	-0.10473 	4.2202e-20 8.06765 	-0.105523 	5.59508e-20 8.05955 	-0.106147 	5.75704e-20 8.0512 	-0.106724 	5.55455e-20 8.03832 	-0.106389 	-1.83719e-20 8.032 	-0.108158 	5.27666e-20 8.02399 	-0.108801 	5.48905e-20 8.01596 	-0.109445 	5.70035e-20 8.0079 	-0.110089 	5.91055e-20 7.99606 	-0.109922 	6.76727e-21 7.98923 	-0.111493 	-3.39854e-22 7.98128 	-0.112158 	-2.37329e-22 7.97331 	-0.112823 	-1.34822e-22 7.96531 	-0.113488 	-3.23307e-23 7.95456 	-0.113531 	1.08143e-20 7.94736 	-0.114911 	0 7.93945 	-0.115598 	0 7.93153 	-0.116285 	0 7.92357 	-0.116973 	0 7.91378 	-0.11722 	7.91367e-21 7.9063 	-0.118419 	0 7.89844 	-0.119128 	0 7.89055 	-0.119838 	0 7.88264 	-0.120548 	0 7.87367 	-0.120995 	0 7.86602 	-0.122019 	0 7.85819 	-0.122752 	0 7.85033 	-0.123485 	0 7.84244 	-0.124219 	0 7.83418 	-0.124861 	-1.69481e-21 7.82989 	-0.125383 	0 7.82555 	-0.125804 	0 7.8212 	-0.126226 	0 7.81685 	-0.126647 	0 7.81261 	-0.127056 	0 7.80898 	-0.127396 	0 7.80536 	-0.127736 	0 7.80172 	-0.128076 	0 7.79808 	-0.128416 	0 7.79486 	-0.128673 	0 7.78669 	-0.129533 	0 7.77865 	-0.130318 	0 7.77058 	-0.131103 	0 7.76248 	-0.131889 	0 7.75571 	-0.13241 	0 7.74719 	-0.133461 	-5.21438e-21 7.73914 	-0.134272 	-1.2725e-20 7.73107 	-0.135083 	-2.0234e-20 7.72297 	-0.135895 	-2.77414e-20 7.71713 	-0.136265 	-3.52641e-20 7.70823 	-0.137503 	-3.07142e-20 7.70019 	-0.138341 	-3.00961e-20 7.69211 	-0.13918 	-2.94747e-20 7.684 	-0.140019 	-2.88498e-20 7.67907 	-0.140247 	-3.38518e-20 7.66979 	-0.141669 	-2.56334e-20 7.66173 	-0.142536 	-1.73881e-20 7.65364 	-0.143403 	-9.14107e-21 7.64551 	-0.144271 	-8.92295e-22 7.64147 	-0.144364 	0 7.6318 	-0.145966 	-1.04998e-22 7.62372 	-0.146862 	-3.77255e-21 7.6156 	-0.147759 	-7.43921e-21 7.60792 	-0.14857 	-1.11061e-20 7.60428 	-0.148619 	-1.4782e-20 7.59456 	-0.150252 	-4.14216e-20 7.58611 	-0.151321 	-5.90726e-20 7.57797 	-0.152248 	-7.44319e-20 7.5712 	-0.152914 	-8.09255e-20 7.56748 	-0.153014 	-6.82542e-20 7.55774 	-0.154657 	-4.86094e-20 7.54887 	-0.155916 	-3.49537e-20 7.54069 	-0.156873 	-2.60127e-20 7.53483 	-0.1574 	-3.17557e-20 7.53101 	-0.157552 	-5.02953e-20 7.52124 	-0.159207 	-6.08449e-20 7.51194 	-0.160651 	-6.36003e-20 7.50371 	-0.161639 	-4.953e-20 7.49875 	-0.162033 	-2.6912e-20 7.49482 	-0.162236 	-1.54268e-21 7.48502 	-0.163905 	1.50941e-21 7.47528 	-0.165531 	4.07919e-21 7.467 	-0.16655 	6.84272e-23 7.46291 	-0.166817 	0 7.45888 	-0.167071 	0 7.44904 	-0.168755 	0 7.43915 	-0.17044 	0 7.43142 	-0.171451 	0 7.42729 	-0.171754 	0 7.42315 	-0.172058 	0 7.41327 	-0.173759 	0 7.40333 	-0.175461 	0 7.3961 	-0.176494 	-7.35917e-21 7.39185 	-0.176848 	-2.07143e-20 7.38758 	-0.177202 	-3.40686e-20 7.37766 	-0.178921 	-1.93241e-20 7.36768 	-0.180641 	-4.57328e-21 7.36092 	-0.181698 	8.8622e-22 7.35654 	-0.182101 	3.93343e-21 7.35215 	-0.182505 	6.98044e-21 7.34218 	-0.184245 	3.13313e-20 7.33214 	-0.185984 	5.56805e-20 7.32584 	-0.187066 	5.58177e-20 7.32133 	-0.18752 	4.46245e-20 7.3168 	-0.187973 	3.34284e-20 7.30677 	-0.189734 	1.50214e-20 7.29742 	-0.191368 	1.3712e-21 7.29124 	-0.192449 	8.29443e-21 7.28618 	-0.193107 	1.52088e-20 7.28151 	-0.193611 	2.2121e-20 7.27142 	-0.195396 	6.92385e-20 7.263 	-0.196885 	9.44917e-20 7.25671 	-0.198003 	9.24158e-20 7.25107 	-0.19887 	7.05206e-20 7.24626 	-0.199425 	2.40531e-20 7.2361 	-0.201236 	1.79189e-20 7.2286 	-0.202585 	1.64323e-20 7.22219 	-0.203743 	1.68808e-20 7.21597 	-0.204817 	1.82772e-20 7.21102 	-0.205424 	2.49604e-20 7.20079 	-0.207263 	7.05396e-20 7.1942 	-0.208476 	6.9681e-20 7.18767 	-0.209673 	6.75467e-20 7.1811 	-0.21087 	6.53997e-20 7.17576 	-0.211609 	2.69707e-20 7.16638 	-0.213321 	2.10382e-20 7.15977 	-0.214556 	1.49604e-20 7.15311 	-0.215791 	8.88475e-21 7.14641 	-0.217026 	2.81139e-21 7.14047 	-0.217977 	0 7.13202 	-0.219547 	0 7.12528 	-0.220821 	0 7.1185 	-0.222095 	0 7.11167 	-0.223368 	0 7.10511 	-0.224531 	0 7.09988 	-0.225521 	0 7.09533 	-0.226395 	0 7.09076 	-0.227269 	0 7.08617 	-0.228142 	0 7.08175 	-0.22898 	0 7.07928 	-0.229429 	0 7.07682 	-0.229877 	0 7.07434 	-0.230326 	0 7.07187 	-0.230775 	0 7.06985 	-0.231169 	-3.20049e-22 7.06241 	-0.232579 	4.88548e-21 7.05518 	-0.233938 	1.04175e-20 7.04789 	-0.235297 	1.59472e-20 7.04056 	-0.236656 	2.14743e-20 7.03506 	-0.2378 	2.57323e-20 7.02668 	-0.239407 	1.50462e-20 7.01931 	-0.240814 	1.8164e-20 7.01189 	-0.24222 	2.12648e-20 7.00442 	-0.243627 	2.43484e-20 7.0002 	-0.244663 	4.76394e-20 6.99086 	-0.246465 	1.93758e-20 6.98335 	-0.247922 	1.0666e-20 6.97579 	-0.24938 	1.93871e-21 6.96837 	-0.250815 	-5.31093e-21 6.96525 	-0.251769 	1.96239e-20 6.95538 	-0.253685 	1.59851e-20 6.94728 	-0.255276 	1.4319e-20 6.93957 	-0.256787 	1.31383e-20 6.93349 	-0.258114 	1.53567e-20 6.93022 	-0.25913 	2.33345e-20 6.92021 	-0.26109 	1.49804e-20 6.91108 	-0.262885 	9.7595e-21 6.90323 	-0.264451 	8.89027e-21 6.8985 	-0.265674 	1.62091e-20 6.89507 	-0.266752 	2.69483e-20 6.88492 	-0.26876 	3.71872e-20 6.87475 	-0.270758 	4.70797e-20 6.86695 	-0.272361 	4.20867e-20 6.86339 	-0.273509 	2.37926e-20 6.85979 	-0.274656 	5.49733e-21 6.8495 	-0.276717 	3.17996e-21 6.83913 	-0.278777 	8.64374e-22 6.83187 	-0.280425 	0 6.82814 	-0.281646 	0 6.82438 	-0.282868 	0 6.81394 	-0.284987 	0 6.80342 	-0.287106 	0 6.79664 	-0.288806 	1.24185e-22 6.79276 	-0.290103 	-6.56765e-21 6.78882 	-0.291401 	-1.32556e-20 6.77823 	-0.293579 	-4.58414e-21 6.76811 	-0.295701 	3.39333e-21 6.76181 	-0.297425 	6.34045e-21 6.75723 	-0.298882 	1.08197e-20 6.75313 	-0.300259 	1.57647e-20 6.7424 	-0.302496 	1.16743e-20 6.73379 	-0.304507 	9.94975e-21 6.72733 	-0.30629 	1.06052e-20 6.72154 	-0.307961 	1.56326e-20 6.71725 	-0.309397 	2.98549e-20 6.70634 	-0.311676 	1.47687e-20 6.69926 	-0.313583 	7.08502e-21 6.69264 	-0.315439 	3.78457e-22 6.68595 	-0.317295 	-6.32657e-21 6.68119 	-0.318879 	-9.18493e-21 6.67138 	-0.321138 	-3.5547e-20 6.66465 	-0.323109 	-4.01487e-20 6.65787 	-0.325079 	-4.47347e-20 6.65101 	-0.327049 	-4.9305e-20 6.64496 	-0.328906 	-4.17138e-20 6.6382 	-0.330676 	-4.87072e-20 6.6328 	-0.332314 	-4.54436e-20 6.62735 	-0.333952 	-4.21719e-20 6.62186 	-0.335589 	-3.88921e-20 6.61666 	-0.337128 	-3.57981e-20 6.61496 	-0.337594 	-3.49275e-20 6.61326 	-0.338059 	-3.40564e-20 6.61155 	-0.338524 	-3.31847e-20 6.60984 	-0.338989 	-3.23125e-20 6.6084 	-0.339419 	-3.28455e-20 6.60077 	-0.341627 	-2.3362e-20 6.59319 	-0.343803 	-1.63749e-20 6.58554 	-0.345977 	-9.3687e-21 6.5778 	-0.348151 	-2.34347e-21 6.57146 	-0.350132 	-1.20057e-20 6.56303 	-0.352592 	-7.20829e-21 6.55518 	-0.354878 	-4.80367e-21 6.54726 	-0.357164 	-2.39739e-21 6.53926 	-0.359446 	0 6.53385 	-0.361389 	0 6.52483 	-0.364052 	0 6.51646 	-0.36652 	0 6.50824 	-0.368929 	0 6.50121 	-0.371177 	0 6.49549 	-0.373249 	0 6.48615 	-0.376027 	0 6.47689 	-0.378762 	-2.94716e-22 6.46836 	-0.381293 	-2.04743e-21 6.46232 	-0.383508 	-3.68129e-21 6.4563 	-0.385709 	-5.30944e-21 6.44666 	-0.3886 	1.23363e-20 6.43691 	-0.391488 	2.99836e-20 6.42884 	-0.394109 	2.84183e-20 6.42259 	-0.39646 	7.17731e-21 6.41625 	-0.39881 	-1.40709e-20 6.40627 	-0.401833 	-8.77244e-21 6.39619 	-0.404854 	-3.4758e-21 6.38861 	-0.407582 	-4.6543e-22 6.38191 	-0.410111 	2.67964e-21 6.37523 	-0.412615 	5.8451e-21 6.36489 	-0.41578 	1.75686e-21 6.35581 	-0.418794 	1.92567e-21 6.34792 	-0.421665 	6.11916e-21 6.34015 	-0.424491 	1.12896e-20 6.3331 	-0.427152 	2.02801e-20 6.32254 	-0.430442 	2.44052e-20 6.31437 	-0.433473 	1.58794e-20 6.30609 	-0.436501 	7.33871e-21 6.29771 	-0.439526 	-1.21693e-21 6.28972 	-0.442457 	-1.28248e-20 6.28331 	-0.444603 	-8.88594e-21 6.27784 	-0.446651 	-1.06887e-20 6.27232 	-0.448698 	-1.25013e-20 6.26676 	-0.450744 	-1.43236e-20 6.26147 	-0.452671 	-1.60506e-20 6.25841 	-0.453839 	-1.7687e-20 6.25534 	-0.455006 	-1.93284e-20 6.25225 	-0.456174 	-2.09749e-20 6.24915 	-0.45734 	-2.26265e-20 6.24609 	-0.458447 	-1.74961e-20 6.23787 	-0.461867 	-9.83096e-21 6.22933 	-0.465227 	-3.38412e-21 6.22068 	-0.468584 	3.06251e-21 6.21192 	-0.471938 	9.50893e-21 6.20324 	-0.475075 	1.31824e-20 6.19509 	-0.478817 	3.50131e-20 6.18611 	-0.482365 	3.83428e-20 6.17698 	-0.485901 	4.10321e-20 6.16781 	-0.489335 	3.38447e-20 6.15865 	-0.492609 	1.1144e-20 6.15 	-0.496531 	7.38024e-21 6.14111 	-0.500419 	3.6289e-21 6.13146 	-0.504139 	-6.53157e-23 6.12184 	-0.50761 	-6.76054e-21 6.1121 	-0.51108 	-1.34669e-20 6.10291 	-0.515184 	-8.49078e-21 6.09359 	-0.519284 	-3.52368e-21 6.08398 	-0.523172 	-4.4144e-21 6.07374 	-0.526841 	-1.12063e-20 6.06336 	-0.530509 	-1.80105e-20 6.05358 	-0.534799 	-1.30401e-20 6.04368 	-0.539013 	-5.99314e-21 6.03368 	-0.54307 	5.53213e-21 6.02324 	-0.547055 	1.60988e-20 6.01217 	-0.550924 	2.50845e-20 6.00175 	-0.555403 	3.98903e-20 5.99118 	-0.55966 	3.96382e-20 5.98047 	-0.563913 	3.93695e-20 5.9696 	-0.56816 	3.9084e-20 5.95826 	-0.572334 	3.39848e-20 5.95395 	-0.574118 	3.38646e-20 5.94961 	-0.575843 	3.1431e-20 5.94524 	-0.577567 	2.89967e-20 5.94085 	-0.57929 	2.65619e-20 5.93661 	-0.580945 	2.42219e-20 5.92992 	-0.583678 	1.97822e-20 5.92317 	-0.58641 	1.53374e-20 5.91636 	-0.589139 	1.08876e-20 5.9095 	-0.591866 	6.43278e-21 5.90264 	-0.594508 	6.86066e-21 5.89168 	-0.599259 	1.68219e-20 5.88017 	-0.603893 	1.47952e-20 5.8685 	-0.608521 	1.28123e-20 5.85668 	-0.61311 	6.80607e-21 5.84475 	-0.617546 	-1.80533e-20 5.83321 	-0.622