/*--------------------------------*- C++ -*----------------------------------*\
  =========                 |
  \\      /  F ield         | OpenFOAM: The Open Source CFD Toolbox
   \\    /   O peration     | Website:  https://openfoam.org
    \\  /    A nd           | Version:  9
     \\/     M anipulation  |
\*---------------------------------------------------------------------------*/
FoamFile
{
    format      ascii;
    class       volScalarField;
    location    "0.28";
    object      p;
}
// * * * * * * * * * * * * * * * * * * * * * * * * * * * * * * * * * * * * * //

dimensions      [0 2 -2 0 0 0 0];

internalField   nonuniform List<scalar> 
12225
(
-1.18813
-3.47115
-4.63368
-4.94196
-5.11036
-5.27026
-5.39506
-5.48372
-5.55363
-5.61499
-5.66961
-5.71733
-5.75846
-5.79234
-5.81789
-5.82483
-5.82288
-5.71641
-4.65563
-5.35776
-5.44805
-5.3131
-5.27318
-5.34064
-5.42162
-5.48774
-5.54506
-5.59882
-5.64881
-5.69389
-5.73377
-5.7676
-5.79497
-5.80891
-5.8222
-5.80799
-4.86037
-4.75744
-4.91428
-5.03652
-5.14404
-5.26653
-5.37506
-5.458
-5.52553
-5.58575
-5.64036
-5.68911
-5.73218
-5.76932
-5.80097
-5.82406
-5.8528
-5.88611
-4.72307
-4.64497
-4.92111
-5.09994
-5.19455
-5.29188
-5.38723
-5.46506
-5.52999
-5.58859
-5.64234
-5.69089
-5.73438
-5.77298
-5.80771
-5.83865
-5.87745
-5.93035
-4.73004
-4.74732
-4.98747
-5.13748
-5.21367
-5.29858
-5.38843
-5.46479
-5.52909
-5.58722
-5.64085
-5.68979
-5.7343
-5.77496
-5.81324
-5.85084
-5.89634
-5.95647
-4.79172
-4.8342
-5.01206
-5.1429
-5.22105
-5.30378
-5.39033
-5.46547
-5.52944
-5.58733
-5.64097
-5.69041
-5.73601
-5.77866
-5.82004
-5.86243
-5.9119
-5.97385
-4.85145
-4.89099
-5.02746
-5.14978
-5.23232
-5.31224
-5.39416
-5.46731
-5.53073
-5.58832
-5.64192
-5.6918
-5.73842
-5.78281
-5.82665
-5.87222
-5.92369
-5.98457
-4.90458
-4.9395
-5.04986
-5.1626
-5.24531
-5.3214
-5.39859
-5.46956
-5.5323
-5.58955
-5.64307
-5.69332
-5.74084
-5.78666
-5.83232
-5.87976
-5.93174
-5.99011
-4.95436
-4.98611
-5.07696
-5.17787
-5.25809
-5.33074
-5.40372
-5.47236
-5.5342
-5.59099
-5.64435
-5.69485
-5.74305
-5.7899
-5.83672
-5.88498
-5.93641
-5.99176
-5.00169
-5.03034
-5.10557
-5.19457
-5.27109
-5.34066
-5.4098
-5.47588
-5.53655
-5.59273
-5.64578
-5.69635
-5.74496
-5.79241
-5.83975
-5.88803
-5.93825
-5.9905
-5.04644
-5.07174
-5.13459
-5.21275
-5.28476
-5.35121
-5.41675
-5.48015
-5.53939
-5.59479
-5.64739
-5.69781
-5.74651
-5.79414
-5.84147
-5.88918
-5.93782
-5.98713
-5.08492
-5.10727
-5.16116
-5.23051
-5.29789
-5.36132
-5.42377
-5.48469
-5.54245
-5.59697
-5.64899
-5.69906
-5.74758
-5.79503
-5.84196
-5.8888
-5.93583
-5.98266
-5.12059
-5.1404
-5.18697
-5.24857
-5.31124
-5.3716
-5.43115
-5.48964
-5.54581
-5.59934
-5.65066
-5.70021
-5.74832
-5.79534
-5.84161
-5.8874
-5.93279
-5.97738
-5.15807
-5.17539
-5.21521
-5.26927
-5.3267
-5.3835
-5.4399
-5.49572
-5.54999
-5.60222
-5.65258
-5.70134
-5.74875
-5.795
-5.84028
-5.8847
-5.92823
-5.97053
-5.19614
-5.21105
-5.24492
-5.29199
-5.34396
-5.39682
-5.4499
-5.50286
-5.55493
-5.60555
-5.65463
-5.7023
-5.74865
-5.79377
-5.83772
-5.8805
-5.92206
-5.96209
-5.23283
-5.24559
-5.27447
-5.31542
-5.36213
-5.41091
-5.46061
-5.51066
-5.56033
-5.60906
-5.65656
-5.7028
-5.74777
-5.79144
-5.83379
-5.87476
-5.91428
-5.95214
-5.26527
-5.27628
-5.30127
-5.3373
-5.37943
-5.42443
-5.47094
-5.51819
-5.56546
-5.61214
-5.65787
-5.70245
-5.74578
-5.78778
-5.82836
-5.86746
-5.90499
-5.94084
-5.2891
-5.2989
-5.32128
-5.35396
-5.3928
-5.43493
-5.4789
-5.52385
-5.56903
-5.61383
-5.65781
-5.70071
-5.74237
-5.78267
-5.8215
-5.8588
-5.89451
-5.92856
-5.29735
-5.3067
-5.32816
-5.35967
-5.39734
-5.4383
-5.48109
-5.52482
-5.56878
-5.61234
-5.65505
-5.69663
-5.73689
-5.77574
-5.81309
-5.84887
-5.88307
-5.91567
-5.28225
-5.2923
-5.31527
-5.34888
-5.38863
-5.43118
-5.47499
-5.51939
-5.56373
-5.6074
-5.64995
-5.69115
-5.73088
-5.76905
-5.80563
-5.84059
-5.87392
-5.90566
-5.25597
-5.26714
-5.29291
-5.3306
-5.37431
-5.41981
-5.46579
-5.51192
-5.55756
-5.60205
-5.64501
-5.68637
-5.72607
-5.76407
-5.80035
-5.83493
-5.86784
-5.89914
-5.22095
-5.23331
-5.26332
-5.30775
-5.3572
-5.40626
-5.45492
-5.50353
-5.55115
-5.59688
-5.64058
-5.68235
-5.72225
-5.76028
-5.79645
-5.83084
-5.86351
-5.89454
-5.18028
-5.19287
-5.22821
-5.28274
-5.33981
-5.39274
-5.44423
-5.49553
-5.5452
-5.59226
-5.63683
-5.67918
-5.71942
-5.75759
-5.79376
-5.82807
-5.86061
-5.89149
-5.1364
-5.14796
-5.19031
-5.25687
-5.3215
-5.37906
-5.43488
-5.48946
-5.54086
-5.58881
-5.63402
-5.67688
-5.71739
-5.75565
-5.7918
-5.82603
-5.85846
-5.88921
-5.08952
-5.09726
-5.15827
-5.238
-5.30306
-5.36264
-5.42444
-5.48391
-5.53755
-5.58648
-5.63238
-5.67571
-5.71645
-5.75473
-5.79082
-5.82495
-5.85727
-5.88795
-5.04155
-5.01788
-5.12864
-5.23752
-5.29801
-5.35201
-5.41534
-5.47758
-5.53273
-5.58259
-5.6293
-5.67323
-5.7143
-5.75273
-5.78887
-5.82299
-5.85528
-5.8859
-5.03223
-4.88788
-5.04687
-5.213
-5.29741
-5.35833
-5.423
-5.48403
-5.53762
-5.5866
-5.63284
-5.67632
-5.71693
-5.75492
-5.79064
-5.82437
-5.85635
-5.88677
-5.17763
-4.89381
-4.9285
-5.05888
-5.17836
-5.28526
-5.37918
-5.4548
-5.51688
-5.57193
-5.62248
-5.66886
-5.71143
-5.75079
-5.78748
-5.82187
-5.85449
-5.88596
-5.11442
-5.6141
-5.62416
-5.46483
-5.38375
-5.40784
-5.46184
-5.51109
-5.55603
-5.60039
-5.64383
-5.68504
-5.72367
-5.75991
-5.79397
-5.82595
-5.85611
-5.8863
-1.77574
-3.64628
-4.7175
-5.01048
-5.14521
-5.28184
-5.39361
-5.47345
-5.53622
-5.59205
-5.64314
-5.68959
-5.73195
-5.77098
-5.80708
-5.84028
-5.87024
-5.89517
-6.79391
-6.79388
-6.79419
-6.7948
-6.79561
-6.79657
-6.7977
-6.79901
-6.80051
-6.80224
-6.80421
-6.80646
-6.80903
-6.81195
-6.81527
-6.81901
-6.82323
-6.82796
-6.83324
-6.8391
-6.8456
-6.85278
-6.86066
-6.8693
-6.87875
-6.88904
-6.90022
-6.91234
-6.92543
-6.93955
-6.9547
-6.97091
-6.98822
-7.00708
-7.02766
-7.04836
-7.069
-7.09238
-7.1179
-7.14693
-7.18362
-7.2194
-7.23564
-7.24721
-7.27142
-7.29849
-7.32668
-7.3559
-7.38596
-7.41669
-7.44791
-7.4795
-7.51133
-7.54328
-7.57524
-7.60708
-7.63871
-7.67
-7.70083
-7.73109
-7.76064
-7.78936
-7.8171
-7.84374
-7.8691
-7.89306
-7.91544
-7.93609
-7.95484
-7.97151
-7.98593
-7.99792
-8.0073
-8.01387
-8.01746
-8.01788
-8.01493
-8.00842
-7.99817
-7.98398
-7.96567
-7.94305
-7.91595
-7.88417
-7.84755
-7.80591
-7.7591
-7.70693
-7.64927
-7.58596
-7.51686
-7.44183
-7.36075
-7.2735
-7.17996
-7.08006
-6.97375
-6.86105
-6.74194
-6.61618
-6.4836
-6.3439
-6.19728
-6.0438
-5.88348
-5.71634
-5.54242
-5.36176
-5.17441
-4.98046
-4.78
-4.57312
-4.35995
-4.14063
-3.91531
-3.68416
-3.44736
-3.20511
-2.95762
-2.7051
-2.4478
-2.18596
-1.91983
-1.6497
-1.37583
-1.0985
-0.818018
-0.534675
-0.248777
0.0393656
0.329441
0.621132
0.914122
1.20809
1.50273
1.79772
2.09274
2.38749
2.68166
2.97496
3.2671
3.55778
3.84673
4.13369
4.41839
4.7006
4.98007
5.25658
5.52991
5.79987
6.06627
6.32892
6.58768
6.84238
7.0929
7.33909
7.58086
7.81809
8.05069
8.27859
8.50171
8.71999
8.93339
9.14189
9.34547
9.54407
9.73755
9.92575
10.1087
10.2863
10.4588
10.6259
10.7879
10.9446
11.0963
11.2431
11.3861
11.5265
11.6733
11.8272
-6.79295
-6.79314
-6.79348
-6.794
-6.79454
-6.79506
-6.79561
-6.7963
-6.79721
-6.79838
-6.79986
-6.80165
-6.80378
-6.80629
-6.80918
-6.81251
-6.81628
-6.82055
-6.82534
-6.8307
-6.83665
-6.84323
-6.8505
-6.85847
-6.86719
-6.8767
-6.88703
-6.89822
-6.91028
-6.92322
-6.93703
-6.95174
-6.96741
-6.98387
-7.00053
-7.01816
-7.03823
-7.05906
-7.08025
-7.1023
-7.1201
-7.13273
-7.16188
-7.20575
-7.24136
-7.27251
-7.30299
-7.33361
-7.36447
-7.39562
-7.42703
-7.45867
-7.49047
-7.52234
-7.55418
-7.58591
-7.61742
-7.64861
-7.67935
-7.70954
-7.73904
-7.76774
-7.79549
-7.82216
-7.8476
-7.87167
-7.89419
-7.91503
-7.93399
-7.95093
-7.96565
-7.97799
-7.98775
-7.99476
-7.99883
-7.99976
-7.99738
-7.99148
-7.98188
-7.96839
-7.95083
-7.929
-7.90274
-7.87185
-7.83616
-7.79551
-7.74972
-7.69864
-7.64211
-7.57999
-7.51214
-7.43841
-7.35869
-7.27286
-7.1808
-7.08241
-6.97757
-6.86618
-6.7481
-6.62311
-6.49123
-6.35283
-6.20771
-6.05581
-5.89711
-5.73162
-5.55935
-5.38036
-5.19468
-5.0024
-4.80359
-4.59837
-4.38685
-4.16916
-3.94545
-3.7159
-3.48067
-3.23995
-2.99397
-2.74293
-2.48706
-2.22662
-1.96185
-1.69303
-1.42041
-1.1443
-0.864978
-0.58274
-0.29789
-0.0107368
0.278408
0.569231
0.861415
1.15464
1.4486
1.74297
2.03745
2.33171
2.62547
2.91841
3.21025
3.5007
3.78949
4.07634
4.36099
4.64321
4.92274
5.19937
5.47287
5.74305
6.00971
6.27268
6.53178
6.78687
7.03781
7.28446
7.5267
7.76444
7.99758
8.22603
8.44972
8.66861
8.88263
9.09175
9.29596
9.49518
9.68929
9.87814
10.0617
10.2401
10.4132
10.5811
10.7438
10.9014
11.0541
11.2022
11.347
11.4895
11.6398
11.7877
-6.78995
-6.7908
-6.79171
-6.79256
-6.79319
-6.79364
-6.79407
-6.7946
-6.79532
-6.7963
-6.79756
-6.79915
-6.80109
-6.80341
-6.80613
-6.80929
-6.81291
-6.81703
-6.82168
-6.82689
-6.83271
-6.83917
-6.8463
-6.85414
-6.86273
-6.87209
-6.88227
-6.89329
-6.90518
-6.91796
-6.93166
-6.94633
-6.96213
-6.97915
-6.99717
-7.01608
-7.03646
-7.05815
-7.08066
-7.10411
-7.12669
-7.14764
-7.17191
-7.20104
-7.23053
-7.25995
-7.28968
-7.31979
-7.35021
-7.38092
-7.41188
-7.44304
-7.47432
-7.50567
-7.537
-7.56822
-7.59923
-7.62993
-7.66022
-7.68999
-7.7191
-7.74744
-7.77488
-7.80128
-7.82649
-7.85036
-7.87275
-7.89349
-7.91242
-7.92936
-7.94415
-7.95661
-7.96654
-7.97378
-7.97814
-7.97942
-7.97744
-7.97201
-7.96294
-7.95004
-7.93313
-7.91202
-7.88653
-7.85648
-7.82169
-7.782
-7.73723
-7.68724
-7.63185
-7.57093
-7.50434
-7.43192
-7.35357
-7.26914
-7.17854
-7.08164
-6.97835
-6.86851
-6.75199
-6.62888
-6.49897
-6.36239
-6.2191
-6.06904
-5.91222
-5.74862
-5.57828
-5.40121
-5.21747
-5.02713
-4.83027
-4.62699
-4.41741
-4.20164
-3.97985
-3.75219
-3.51883
-3.27996
-3.03579
-2.78653
-2.53241
-2.27367
-2.01056
-1.74335
-1.47229
-1.19769
-0.919809
-0.638957
-0.355431
-0.0695361
0.218418
0.508119
0.799252
1.0915
1.38455
1.6781
1.97181
2.2654
2.55855
2.85097
3.14236
3.43244
3.72092
4.00755
4.29205
4.57418
4.85369
5.13037
5.40399
5.67434
5.94123
6.20449
6.46394
6.71942
6.97079
7.21792
7.46068
7.69897
7.9327
8.16176
8.38609
8.60562
8.82028
9.03005
9.23487
9.43468
9.62944
9.81906
10.0035
10.1827
10.3567
10.5255
10.6891
10.8478
11.0017
11.1513
11.298
11.4422
11.5952
11.733
-6.7852
-6.78671
-6.78849
-6.79005
-6.79114
-6.79191
-6.79256
-6.79323
-6.79403
-6.79503
-6.79629
-6.79787
-6.79978
-6.80206
-6.80475
-6.80787
-6.81146
-6.81554
-6.82014
-6.82532
-6.83108
-6.83749
-6.84456
-6.85233
-6.86083
-6.87011
-6.88019
-6.8911
-6.90286
-6.91551
-6.92907
-6.94358
-6.95909
-6.97568
-6.99338
-7.01217
-7.0321
-7.05319
-7.0753
-7.09829
-7.12188
-7.14611
-7.17162
-7.19854
-7.22633
-7.25477
-7.28377
-7.31324
-7.34311
-7.3733
-7.40376
-7.43444
-7.46527
-7.49617
-7.52706
-7.55786
-7.58848
-7.61882
-7.64877
-7.67822
-7.70706
-7.73516
-7.7624
-7.78862
-7.8137
-7.83749
-7.85983
-7.88056
-7.89951
-7.91653
-7.93143
-7.94404
-7.95418
-7.96167
-7.96631
-7.96793
-7.96633
-7.96132
-7.95272
-7.94034
-7.92399
-7.90348
-7.87864
-7.84928
-7.81523
-7.77632
-7.73239
-7.68326
-7.62879
-7.56882
-7.50321
-7.43183
-7.35453
-7.2712
-7.1817
-7.08594
-6.9838
-6.87516
-6.75992
-6.63809
-6.5096
-6.37444
-6.23257
-6.08396
-5.9286
-5.76648
-5.59762
-5.42204
-5.23981
-5.05097
-4.85562
-4.65385
-4.44576
-4.23149
-4.01118
-3.78499
-3.55308
-3.31565
-3.07289
-2.82501
-2.57225
-2.31483
-2.05302
-1.78706
-1.51722
-1.24379
-0.967045
-0.687281
-0.404796
-0.119892
0.167122
0.455936
0.746235
1.03771
1.33004
1.62292
1.91603
2.20907
2.50173
2.79372
3.08474
3.3745
3.66273
3.94916
4.23352
4.51557
4.79505
5.07175
5.34544
5.61591
5.88298
6.14645
6.40615
6.66193
6.91363
7.16113
7.40429
7.64301
7.87718
8.10672
8.33154
8.55159
8.76679
8.9771
9.18244
9.38273
9.57794
9.76808
9.95306
10.1329
10.3075
10.4769
10.6413
10.8007
10.9554
11.1059
11.2535
11.3978
11.5497
11.6754
-6.77975
-6.78199
-6.78481
-6.78723
-6.78895
-6.79021
-6.79124
-6.79221
-6.79325
-6.79445
-6.79587
-6.79758
-6.79961
-6.80201
-6.8048
-6.80802
-6.8117
-6.81588
-6.82058
-6.82584
-6.8317
-6.83819
-6.84536
-6.85322
-6.86183
-6.87121
-6.88139
-6.89242
-6.90431
-6.91711
-6.93084
-6.94553
-6.96121
-6.97793
-6.99569
-7.01453
-7.03444
-7.05538
-7.07728
-7.10004
-7.1236
-7.14805
-7.17358
-7.20013
-7.22745
-7.2554
-7.28389
-7.31287
-7.34226
-7.37202
-7.40207
-7.43235
-7.4628
-7.49334
-7.5239
-7.55439
-7.58472
-7.61479
-7.6445
-7.67374
-7.70239
-7.73034
-7.75744
-7.78357
-7.80858
-7.83233
-7.85466
-7.87541
-7.89442
-7.91152
-7.92654
-7.9393
-7.94961
-7.9573
-7.96218
-7.96407
-7.96276
-7.95808
-7.94984
-7.93784
-7.92191
-7.90185
-7.87748
-7.84863
-7.81512
-7.77677
-7.73343
-7.68492
-7.6311
-7.5718
-7.5069
-7.43624
-7.35969
-7.27714
-7.18844
-7.0935
-6.9922
-6.88445
-6.77017
-6.6493
-6.5218
-6.38763
-6.24676
-6.09915
-5.94479
-5.78368
-5.61583
-5.44128
-5.26007
-5.07226
-4.87793
-4.67717
-4.47011
-4.25685
-4.03754
-3.81234
-3.58142
-3.34495
-3.10315
-2.85621
-2.60437
-2.34785
-2.08691
-1.82181
-1.5528
-1.28017
-1.0042
-0.72518
-0.443407
-0.159183
0.127185
0.415387
0.705111
0.996044
1.28787
1.58029
1.87298
2.16563
2.45795
2.74964
3.04039
3.32993
3.61798
3.90426
4.18851
4.47048
4.74994
5.02664
5.30037
5.57092
5.83809
6.1017
6.36157
6.61755
6.86948
7.11722
7.36065
7.59967
7.83416
8.06404
8.28922
8.50963
8.7252
8.93587
9.14155
9.34215
9.53766
9.72809
9.91339
10.0935
10.2685
10.4383
10.6031
10.7629
10.9181
11.0688
11.2164
11.3596
11.5087
11.6227
-6.77456
-6.77753
-6.78133
-6.78462
-6.78704
-6.78886
-6.79036
-6.79174
-6.79313
-6.79464
-6.79634
-6.7983
-6.80058
-6.8032
-6.80621
-6.80965
-6.81355
-6.81794
-6.82285
-6.82834
-6.83442
-6.84114
-6.84853
-6.85664
-6.86549
-6.87513
-6.88558
-6.89688
-6.90906
-6.92215
-6.93617
-6.95115
-6.96711
-6.98408
-7.00206
-7.02104
-7.04102
-7.06196
-7.08381
-7.10653
-7.13006
-7.15442
-7.17967
-7.20576
-7.23259
-7.26007
-7.28812
-7.31668
-7.34568
-7.37507
-7.40478
-7.43475
-7.46491
-7.49518
-7.52549
-7.55575
-7.58588
-7.61577
-7.64533
-7.67444
-7.70299
-7.73085
-7.7579
-7.78399
-7.80899
-7.83275
-7.85512
-7.87593
-7.89502
-7.91222
-7.92736
-7.94027
-7.95074
-7.95862
-7.9637
-7.96581
-7.96474
-7.96032
-7.95235
-7.94065
-7.92503
-7.9053
-7.88127
-7.85279
-7.81965
-7.78171
-7.73878
-7.69071
-7.63734
-7.57851
-7.5141
-7.44395
-7.36792
-7.28591
-7.19778
-7.10341
-7.00272
-6.8956
-6.78198
-6.66179
-6.53496
-6.40147
-6.26127
-6.11433
-5.96064
-5.8002
-5.63303
-5.45915
-5.27861
-5.09147
-4.89782
-4.69773
-4.49134
-4.27874
-4.0601
-3.83555
-3.60528
-3.36946
-3.12829
-2.88198
-2.63074
-2.37483
-2.11448
-1.84995
-1.5815
-1.30942
-1.03397
-0.755463
-0.474179
-0.190423
0.0954969
0.383273
0.672594
0.963147
1.25462
1.5467
1.83909
2.13146
2.42353
2.71498
3.00553
3.2949
3.5828
3.86895
4.15311
4.43502
4.71443
4.99111
5.26485
5.53543
5.80265
6.06634
6.32631
6.5824
6.83446
7.08237
7.32598
7.56519
7.7999
8.03
8.25541
8.47606
8.69186
8.90275
9.10865
9.30946
9.50518
9.6958
9.88131
10.0617
10.2369
10.4069
10.5719
10.7319
10.8872
11.0379
11.1849
11.3263
11.4724
11.5761
-6.77065
-6.77417
-6.77877
-6.78283
-6.7859
-6.78827
-6.79027
-6.79208
-6.79387
-6.79574
-6.79778
-6.80006
-6.80264
-6.80556
-6.80887
-6.8126
-6.81679
-6.82148
-6.82669
-6.83247
-6.83886
-6.84589
-6.8536
-6.86202
-6.8712
-6.88116
-6.89193
-6.90356
-6.91605
-6.92945
-6.94377
-6.95902
-6.97523
-6.99239
-7.01052
-7.0296
-7.04962
-7.07055
-7.09236
-7.11501
-7.13847
-7.16274
-7.18779
-7.21361
-7.24012
-7.26727
-7.295
-7.32326
-7.35198
-7.3811
-7.41057
-7.44032
-7.47028
-7.50038
-7.53054
-7.56068
-7.59069
-7.6205
-7.64999
-7.67906
-7.70758
-7.73543
-7.76249
-7.78862
-7.81367
-7.83749
-7.85994
-7.88084
-7.90004
-7.91736
-7.93264
-7.94568
-7.95631
-7.96435
-7.96961
-7.97189
-7.97102
-7.9668
-7.95904
-7.94755
-7.93214
-7.91264
-7.88886
-7.86062
-7.82774
-7.79006
-7.7474
-7.69961
-7.64653
-7.58802
-7.52391
-7.45409
-7.37841
-7.29675
-7.20898
-7.115
-7.0147
-6.908
-6.7948
-6.67503
-6.54864
-6.41557
-6.27578
-6.12926
-5.97599
-5.81596
-5.6492
-5.47573
-5.29561
-5.10888
-4.91564
-4.71597
-4.50999
-4.29781
-4.07958
-3.85545
-3.62559
-3.39018
-3.14941
-2.9035
-2.65267
-2.39715
-2.13718
-1.87304
-1.60496
-1.33325
-1.05816
-0.78
-0.499056
-0.215629
0.0699736
0.357444
0.646472
0.936745
1.22795
1.51979
1.81194
2.10409
2.39595
2.68722
2.9776
3.26681
3.55457
3.84061
4.12467
4.40649
4.68584
4.96247
5.23618
5.50674
5.77397
6.03767
6.29768
6.55382
6.80596
7.05395
7.29767
7.53699
7.77182
8.00205
8.2276
8.44839
8.66433
8.87536
9.08139
9.28235
9.47821
9.66897
9.85462
10.0351
10.2105
10.3807
10.5458
10.7058
10.861
11.0113
11.1575
11.297
11.4402
11.5348
-6.76839
-6.77233
-6.77755
-6.78224
-6.78586
-6.78874
-6.79119
-6.79343
-6.79561
-6.79785
-6.80024
-6.80287
-6.80578
-6.80903
-6.81267
-6.81672
-6.82124
-6.82625
-6.83179
-6.83791
-6.84463
-6.852
-6.86004
-6.8688
-6.87831
-6.8886
-6.8997
-6.91164
-6.92444
-6.93811
-6.95269
-6.96817
-6.98458
-7.0019
-7.02014
-7.03929
-7.05933
-7.08025
-7.10202
-7.12461
-7.148
-7.17216
-7.19708
-7.22273
-7.24905
-7.276
-7.30353
-7.3316
-7.36015
-7.38912
-7.41845
-7.44809
-7.47795
-7.50798
-7.53808
-7.56818
-7.59818
-7.62798
-7.65749
-7.68659
-7.71516
-7.74308
-7.77021
-7.79642
-7.82157
-7.8455
-7.86806
-7.88909
-7.90841
-7.92587
-7.94127
-7.95445
-7.96522
-7.9734
-7.9788
-7.98122
-7.98049
-7.97641
-7.96878
-7.95743
-7.94217
-7.92281
-7.89916
-7.87106
-7.83833
-7.80079
-7.75828
-7.71064
-7.65772
-7.59937
-7.53543
-7.46579
-7.39029
-7.30882
-7.22126
-7.12749
-7.02742
-6.92094
-6.80798
-6.68844
-6.56226
-6.42941
-6.28984
-6.14353
-5.99046
-5.83065
-5.66409
-5.49083
-5.31092
-5.12441
-4.93138
-4.73194
-4.52617
-4.31422
-4.09622
-3.87232
-3.64269
-3.40751
-3.16698
-2.92131
-2.67072
-2.41544
-2.15572
-1.89182
-1.62399
-1.35251
-1.07767
-0.799746
-0.519037
-0.235842
0.0495325
0.336779
0.625588
0.915648
1.20665
1.49828
1.79024
2.08221
2.3739
2.665
2.95523
3.24429
3.53192
3.81784
4.10178
4.3835
4.66275
4.93931
5.21295
5.48346
5.75065
6.01432
6.27431
6.53046
6.78261
7.03062
7.27437
7.51374
7.74862
7.97891
8.20453
8.42539
8.64142
8.85252
9.05863
9.25968
9.45564
9.64649
9.83223
10.0128
10.1882
10.3585
10.5236
10.6836
10.8385
10.9883
11.1334
11.2709
11.4115
11.4981
-6.7681
-6.77231
-6.77795
-6.78308
-6.78714
-6.79043
-6.79328
-6.7959
-6.79844
-6.80102
-6.80375
-6.8067
-6.80993
-6.8135
-6.81745
-6.82182
-6.82665
-6.83198
-6.83784
-6.84427
-6.85131
-6.85899
-6.86735
-6.87642
-6.88623
-6.89681
-6.90819
-6.9204
-6.93344
-6.94735
-6.96213
-6.97779
-6.99434
-7.01178
-7.03011
-7.04931
-7.06938
-7.0903
-7.11204
-7.13459
-7.15793
-7.18203
-7.20687
-7.23242
-7.25864
-7.2855
-7.31294
-7.34092
-7.3694
-7.39832
-7.42761
-7.45723
-7.48709
-7.51713
-7.54726
-7.57741
-7.60747
-7.63736
-7.66695
-7.69615
-7.72483
-7.75287
-7.78012
-7.80647
-7.83174
-7.85581
-7.8785
-7.89966
-7.91912
-7.9367
-7.95223
-7.96553
-7.97641
-7.98469
-7.99019
-7.9927
-7.99205
-7.98805
-7.98049
-7.96921
-7.954
-7.93469
-7.91109
-7.88303
-7.85033
-7.81283
-7.77035
-7.72275
-7.66987
-7.61156
-7.54767
-7.47807
-7.40263
-7.32123
-7.23373
-7.14004
-7.04004
-6.93364
-6.82074
-6.70126
-6.57515
-6.44235
-6.30283
-6.15657
-6.00355
-5.84378
-5.67728
-5.50407
-5.32421
-5.13776
-4.94481
-4.74543
-4.53974
-4.32788
-4.10997
-3.88616
-3.65664
-3.42158
-3.18117
-2.93562
-2.68516
-2.43002
-2.17044
-1.90668
-1.63901
-1.36769
-1.09301
-0.815256
-0.534715
-0.251692
0.0335102
0.320583
0.609217
0.899103
1.18993
1.48139
1.77318
2.06498
2.35651
2.64745
2.93752
3.22643
3.51391
3.79968
4.08349
4.36509
4.64422
4.92067
5.19421
5.46463
5.73174
5.99534
6.25528
6.51137
6.76348
7.01146
7.25519
7.49455
7.72943
7.95973
8.18536
8.40625
8.62229
8.83343
9.03958
9.24068
9.43669
9.6276
9.81338
9.994
10.1694
10.3397
10.5047
10.6645
10.819
10.9681
11.1121
11.2476
11.3859
11.4657
-6.76986
-6.77419
-6.78004
-6.78544
-6.78981
-6.79341
-6.79657
-6.7995
-6.80234
-6.80521
-6.80822
-6.81145
-6.81496
-6.81879
-6.82301
-6.82765
-6.83274
-6.83834
-6.84447
-6.85116
-6.85847
-6.86641
-6.87502
-6.88434
-6.89439
-6.9052
-6.9168
-6.9292
-6.94243
-6.95651
-6.97144
-6.98723
-7.00388
-7.0214
-7.03979
-7.05903
-7.07913
-7.10005
-7.1218
-7.14434
-7.16767
-7.19175
-7.21657
-7.2421
-7.2683
-7.29515
-7.32259
-7.35058
-7.37908
-7.40803
-7.43738
-7.46706
-7.497
-7.52713
-7.55737
-7.58764
-7.61783
-7.64785
-7.67759
-7.70694
-7.73577
-7.76396
-7.79137
-7.81786
-7.84328
-7.86749
-7.89031
-7.9116
-7.93117
-7.94885
-7.96447
-7.97785
-7.9888
-7.99714
-8.00267
-8.00522
-8.00458
-8.00058
-7.99302
-7.98171
-7.96647
-7.94712
-7.92348
-7.89536
-7.86261
-7.82504
-7.78251
-7.73484
-7.68189
-7.62351
-7.55957
-7.48991
-7.41442
-7.33297
-7.24543
-7.15169
-7.05165
-6.94518
-6.83222
-6.71267
-6.58648
-6.45361
-6.31402
-6.16768
-6.01459
-5.85474
-5.68817
-5.51491
-5.33499
-5.1485
-4.9555
-4.75609
-4.55039
-4.33851
-4.1206
-3.89681
-3.66731
-3.43228
-3.19191
-2.94642
-2.69602
-2.44095
-2.18146
-1.9178
-1.65023
-1.37902
-1.10446
-0.826836
-0.546432
-0.263552
0.0215004
0.308418
0.596894
0.886617
1.17728
1.46857
1.76018
2.0518
2.34315
2.63392
2.92381
3.21255
3.49986
3.78547
4.06912
4.35056
4.62955
4.90585
5.17925
5.44954
5.71652
5.98001
6.23984
6.49584
6.74786
6.99576
7.23942
7.47872
7.71355
7.94382
8.16942
8.39028
8.60631
8.81744
9.02359
9.2247
9.42074
9.61167
9.79746
9.97808
10.1535
10.3237
10.4885
10.6481
10.8022
10.9505
11.0932
11.2267
11.3629
11.4368
-6.77357
-6.77789
-6.78378
-6.78929
-6.79383
-6.79763
-6.80101
-6.80415
-6.80721
-6.8103
-6.81352
-6.81695
-6.82065
-6.82469
-6.8291
-6.83393
-6.83922
-6.845
-6.85132
-6.8582
-6.86569
-6.87381
-6.8826
-6.89209
-6.9023
-6.91326
-6.925
-6.93754
-6.95089
-6.96507
-6.98009
-6.99596
-7.01268
-7.03026
-7.04869
-7.06797
-7.08809
-7.10905
-7.13081
-7.15338
-7.17674
-7.20086
-7.22571
-7.25129
-7.27754
-7.30444
-7.33196
-7.36004
-7.38863
-7.41769
-7.44716
-7.47698
-7.50706
-7.53735
-7.56775
-7.59818
-7.62854
-7.65873
-7.68865
-7.71816
-7.74716
-7.77551
-7.80307
-7.8297
-7.85525
-7.87957
-7.9025
-7.92387
-7.94351
-7.96125
-7.97691
-7.9903
-8.00125
-8.00957
-8.01507
-8.01756
-8.01686
-8.01278
-8.00512
-7.9937
-7.97835
-7.95887
-7.93509
-7.90683
-7.87393
-7.83621
-7.79352
-7.7457
-7.6926
-7.63407
-7.56997
-7.50017
-7.42454
-7.34296
-7.25529
-7.16141
-7.0612
-6.95457
-6.84143
-6.72171
-6.59536
-6.46231
-6.32255
-6.17605
-6.02279
-5.86279
-5.69608
-5.52267
-5.34263
-5.15602
-4.96292
-4.76342
-4.55764
-4.3457
-4.12774
-3.90391
-3.67439
-3.43935
-3.19899
-2.95352
-2.70316
-2.44814
-2.18871
-1.92513
-1.65764
-1.38654
-1.11209
-0.834591
-0.554327
-0.271598
0.0132949
0.300045
0.588346
0.877889
1.16836
1.45946
1.75087
2.0423
2.33344
2.624
2.91369
3.20223
3.48933
3.77473
4.05818
4.33942
4.61821
4.89432
5.16754
5.43765
5.70447
5.96779
6.22747
6.48332
6.73521
6.98299
7.22654
7.46573
7.70047
7.93065
8.15619
8.37698
8.59297
8.80405
9.01017
9.21127
9.4073
9.59822
9.78399
9.96458
10.1399
10.31
10.4747
10.6339
10.7874
10.9349
11.0764
11.208
11.3422
11.4112
-6.77905
-6.78327
-6.78905
-6.79452
-6.79909
-6.80298
-6.80646
-6.80972
-6.81289
-6.8161
-6.81944
-6.82298
-6.82679
-6.83092
-6.83543
-6.84036
-6.84574
-6.85162
-6.85803
-6.86501
-6.87259
-6.8808
-6.88968
-6.89925
-6.90954
-6.92058
-6.93239
-6.94499
-6.9584
-6.97263
-6.98769
-7.00361
-7.02037
-7.03798
-7.05645
-7.07576
-7.09592
-7.11691
-7.13873
-7.16136
-7.18478
-7.20897
-7.23391
-7.25958
-7.28594
-7.31296
-7.34061
-7.36882
-7.39757
-7.42679
-7.45643
-7.48641
-7.51668
-7.54715
-7.57773
-7.60834
-7.63888
-7.66924
-7.69931
-7.72898
-7.75812
-7.78659
-7.81426
-7.84099
-7.86662
-7.89099
-7.91396
-7.93534
-7.95497
-7.97268
-7.98829
-8.00161
-8.01247
-8.02068
-8.02605
-8.02839
-8.02753
-8.02327
-8.01542
-8.0038
-7.98824
-7.96854
-7.94454
-7.91605
-7.88292
-7.84497
-7.80206
-7.75401
-7.70068
-7.64194
-7.57763
-7.50763
-7.4318
-7.35001
-7.26212
-7.16801
-7.06756
-6.96068
-6.8473
-6.72734
-6.60074
-6.46746
-6.32747
-6.18075
-6.02728
-5.86708
-5.70018
-5.5266
-5.3464
-5.15964
-4.96641
-4.7668
-4.56092
-4.3489
-4.13088
-3.907
-3.67745
-3.44241
-3.20206
-2.95662
-2.70631
-2.45135
-2.19201
-1.92851
-1.66114
-1.39017
-1.11586
-0.838509
-0.558413
-0.275865
0.00883638
0.295385
0.583475
0.872797
1.16304
1.4539
1.74507
2.03625
2.32714
2.61745
2.90688
3.19516
3.482
3.76715
4.05034
4.33133
4.60987
4.88574
5.15872
5.4286
5.69519
5.95831
6.21777
6.47344
6.72514
6.97275
7.21614
7.45519
7.6898
7.91986
8.14528
8.36599
8.58188
8.7929
8.99897
9.20002
9.39602
9.58691
9.77264
9.95317
10.1284
10.2983
10.4628
10.6216
10.7746
10.9212
11.0614
11.1912
11.3235
11.3885
-6.78607
-6.7901
-6.79566
-6.80097
-6.80546
-6.80931
-6.81278
-6.81604
-6.81921
-6.82242
-6.82575
-6.82928
-6.83308
-6.83721
-6.84171
-6.84662
-6.852
-6.85787
-6.86427
-6.87124
-6.87882
-6.88703
-6.8959
-6.90547
-6.91576
-6.9268
-6.93861
-6.95121
-6.96462
-6.97886
-6.99393
-7.00985
-7.02663
-7.04426
-7.06275
-7.0821
-7.10231
-7.12336
-7.14524
-7.16795
-7.19146
-7.21576
-7.24082
-7.26661
-7.29311
-7.32028
-7.34808
-7.37647
-7.40538
-7.43477
-7.46458
-7.49474
-7.52517
-7.5558
-7.58654
-7.61729
-7.64796
-7.67845
-7.70862
-7.73837
-7.76757
-7.79609
-7.82378
-7.8505
-7.87611
-7.90043
-7.92332
-7.94461
-7.96412
-7.98169
-7.99713
-8.01027
-8.02092
-8.0289
-8.03403
-8.03612
-8.03499
-8.03045
-8.02232
-8.01041
-7.99455
-7.97456
-7.95026
-7.92148
-7.88805
-7.84982
-7.80662
-7.7583
-7.70471
-7.64571
-7.58115
-7.51092
-7.43485
-7.35279
-7.26461
-7.1702
-7.06945
-6.96229
-6.84861
-6.72837
-6.6015
-6.46796
-6.32772
-6.18076
-6.02708
-5.86668
-5.69959
-5.52585
-5.34549
-5.15861
-4.96526
-4.76556
-4.5596
-4.34753
-4.12947
-3.90559
-3.67604
-3.44102
-3.20072
-2.95535
-2.70513
-2.45028
-2.19106
-1.92771
-1.6605
-1.3897
-1.11559
-0.838451
-0.558581
-0.276272
0.00817555
0.294459
0.582273
0.871309
1.16126
1.45182
1.74268
2.03354
2.32411
2.6141
2.90321
3.19116
3.47768
3.7625
4.04537
4.32604
4.60427
4.87984
5.15252
5.42211
5.68843
5.95127
6.21048
6.4659
6.71737
6.96476
7.20795
7.44681
7.68125
7.91115
8.13643
8.35701
8.57279
8.78372
8.98971
9.1907
9.38664
9.57748
9.76315
9.9436
10.1187
10.2885
10.4526
10.611
10.7634
10.9091
11.0481
11.1762
11.3067
11.3684
-6.79439
-6.7982
-6.80345
-6.8085
-6.81279
-6.81649
-6.81981
-6.82292
-6.82596
-6.82902
-6.83222
-6.83561
-6.83928
-6.84327
-6.84764
-6.85242
-6.85767
-6.86343
-6.86972
-6.87658
-6.88406
-6.89218
-6.90097
-6.91046
-6.92067
-6.93165
-6.9434
-6.95595
-6.96931
-6.98351
-6.99855
-7.01446
-7.03122
-7.04886
-7.06737
-7.08675
-7.10699
-7.1281
-7.15005
-7.17284
-7.19645
-7.22085
-7.24603
-7.27196
-7.29859
-7.32589
-7.35383
-7.38234
-7.41139
-7.44091
-7.47083
-7.5011
-7.53162
-7.56233
-7.59313
-7.62393
-7.65462
-7.6851
-7.71525
-7.74496
-7.77409
-7.8025
-7.83007
-7.85664
-7.88207
-7.9062
-7.92887
-7.94991
-7.96916
-7.98644
-8.00158
-8.0144
-8.02472
-8.03236
-8.03713
-8.03886
-8.03737
-8.03246
-8.02396
-8.01169
-7.99547
-7.97513
-7.95048
-7.92137
-7.88763
-7.84909
-7.80559
-7.75699
-7.70313
-7.64387
-7.57908
-7.50859
-7.43223
-7.34985
-7.26136
-7.16663
-7.06558
-6.95811
-6.84416
-6.72364
-6.59651
-6.46273
-6.32227
-6.1751
-6.02123
-5.86066
-5.69342
-5.51955
-5.33909
-5.15212
-4.95871
-4.75897
-4.553
-4.34093
-4.1229
-3.89907
-3.6696
-3.43468
-3.1945
-2.94928
-2.69922
-2.44456
-2.18555
-1.92242
-1.65546
-1.38492
-1.11109
-0.83425
-0.554691
-0.27271
0.0113978
0.297329
0.584778
0.873441
1.16301
1.45318
1.74364
2.03411
2.32428
2.61385
2.90256
3.1901
3.47622
3.76064
4.04312
4.3234
4.60124
4.87643
5.14875
5.41799
5.68396
5.94648
6.20537
6.46049
6.71168
6.9588
7.20174
7.44037
7.67459
7.9043
8.12941
8.34983
8.56548
8.77629
8.98218
9.1831
9.37897
9.56974
9.75535
9.9357
10.1107
10.2802
10.4441
10.6021
10.7538
10.8986
11.0364
11.1629
11.2916
11.3508
-6.80384
-6.80741
-6.81232
-6.81703
-6.821
-6.82439
-6.82741
-6.83021
-6.83294
-6.83571
-6.8386
-6.84171
-6.84509
-6.84881
-6.85292
-6.85746
-6.86247
-6.868
-6.87408
-6.88075
-6.88804
-6.89598
-6.90461
-6.91395
-6.92403
-6.93487
-6.9465
-6.95894
-6.97221
-6.98633
-7.0013
-7.01715
-7.03387
-7.05148
-7.06997
-7.08935
-7.10961
-7.13074
-7.15273
-7.17556
-7.19922
-7.22369
-7.24892
-7.2749
-7.30159
-7.32894
-7.35691
-7.38545
-7.41451
-7.44402
-7.47392
-7.50413
-7.53459
-7.5652
-7.59588
-7.62654
-7.65706
-7.68735
-7.71729
-7.74675
-7.77562
-7.80375
-7.83101
-7.85725
-7.88233
-7.90609
-7.92838
-7.94902
-7.96786
-7.98472
-7.99943
-8.01181
-8.02169
-8.02889
-8.03322
-8.03452
-8.03259
-8.02726
-8.01835
-8.00568
-7.98908
-7.96837
-7.94338
-7.91394
-7.87989
-7.84106
-7.7973
-7.74845
-7.69437
-7.63489
-7.56985
-7.49907
-7.42239
-7.3397
-7.2509
-7.15589
-7.05457
-6.94684
-6.83264
-6.71191
-6.58458
-6.45061
-6.30999
-6.16268
-6.0087
-5.84804
-5.68074
-5.50682
-5.32635
-5.13938
-4.94601
-4.74633
-4.54044
-4.32848
-4.11058
-3.88691
-3.65762
-3.42291
-3.18296
-2.93799
-2.68821
-2.43385
-2.17515
-1.91237
-1.64577
-1.37561
-1.10217
-0.825738
-0.546605
-0.265063
0.0185927
0.30406
0.591036
0.879215
1.16829
1.45797
1.74793
2.0379
2.32756
2.61663
2.90483
3.19188
3.4775
3.76143
4.04343
4.32323
4.60062
4.87536
5.14723
5.41605
5.68161
5.94373
6.20225
6.45701
6.70786
6.95468
7.19732
7.43568
7.66965
7.89913
8.12404
8.34428
8.55978
8.77045
8.97624
9.17706
9.37285
9.56355
9.74908
9.92933
10.1042
10.2735
10.4371
10.5946
10.7457
10.8896
11.0262
11.1512
11.2782
11.3355
-6.81474
-6.81809
-6.82264
-6.82692
-6.83043
-6.83331
-6.8358
-6.83808
-6.84028
-6.84252
-6.84492
-6.84754
-6.85047
-6.85376
-6.85746
-6.86162
-6.86628
-6.87148
-6.87724
-6.88361
-6.89062
-6.8983
-6.90667
-6.91577
-6.92562
-6.93625
-6.94768
-6.95994
-6.97303
-6.98698
-7.0018
-7.01751
-7.0341
-7.05159
-7.06997
-7.08925
-7.10941
-7.13045
-7.15234
-7.17509
-7.19865
-7.22301
-7.24813
-7.27399
-7.30053
-7.32772
-7.35552
-7.38386
-7.41269
-7.44195
-7.47158
-7.5015
-7.53163
-7.5619
-7.59221
-7.62247
-7.65259
-7.68244
-7.71193
-7.74092
-7.7693
-7.79694
-7.82368
-7.84941
-7.87396
-7.89718
-7.91892
-7.93902
-7.95732
-7.97363
-7.98781
-7.99966
-8.00902
-8.01571
-8.01956
-8.02038
-8.01799
-8.01223
-8.0029
-7.98985
-7.97289
-7.95184
-7.92655
-7.89684
-7.86255
-7.82351
-7.77957
-7.73057
-7.67632
-7.61664
-7.55133
-7.48026
-7.40331
-7.32038
-7.23135
-7.13613
-7.03462
-6.92673
-6.81239
-6.69153
-6.56411
-6.43007
-6.2894
-6.14208
-5.98811
-5.82749
-5.66025
-5.48642
-5.30607
-5.11925
-4.92605
-4.72656
-4.5209
-4.3092
-4.09158
-3.86822
-3.63926
-3.40491
-3.16535
-2.92078
-2.67143
-2.41752
-2.1593
-1.89701
-1.63092
-1.36129
-1.0884
-0.812531
-0.533973
-0.253018
0.0300386