/*--------------------------------*- C++ -*----------------------------------*\
  =========                 |
  \\      /  F ield         | OpenFOAM: The Open Source CFD Toolbox
   \\    /   O peration     | Website:  https://openfoam.org
    \\  /    A nd           | Version:  9
     \\/     M anipulation  |
\*---------------------------------------------------------------------------*/
FoamFile
{
    format      ascii;
    class       surfaceScalarField;
    location    "0.28";
    object      phi;
}
// * * * * * * * * * * * * * * * * * * * * * * * * * * * * * * * * * * * * * //

dimensions      [0 3 -1 0 0 0 0];

internalField   nonuniform List<scalar> 
24170
(
3.1336e-06
5.48062e-08
3.04827e-06
8.53261e-08
2.97315e-06
7.51231e-08
2.90432e-06
6.88353e-08
2.83949e-06
6.48281e-08
2.78227e-06
5.72204e-08
2.73337e-06
4.88983e-08
2.69185e-06
4.15226e-08
2.65641e-06
3.54372e-08
2.62589e-06
3.05195e-08
2.59932e-06
2.65698e-08
2.5759e-06
2.34242e-08
2.55493e-06
2.09636e-08
2.53576e-06
1.91741e-08
2.51773e-06
1.80237e-08
2.49909e-06
1.86402e-08
2.47858e-06
2.05138e-08
3.76246e-08
2.44096e-06
3.45361e-06
1.84442e-08
3.45616e-06
8.27725e-08
3.44962e-06
8.16672e-08
3.438e-06
8.0456e-08
3.42351e-06
7.93156e-08
3.40597e-06
7.476e-08
3.38634e-06
6.85263e-08
3.36544e-06
6.24245e-08
3.34404e-06
5.68421e-08
3.32274e-06
5.18211e-08
3.30194e-06
4.73695e-08
3.28186e-06
4.34966e-08
3.26263e-06
4.01953e-08
3.24423e-06
3.75749e-08
3.22671e-06
3.55481e-08
3.2099e-06
3.54461e-08
3.19471e-06
3.57033e-08
4.5832e-08
3.1865e-06
3.66535e-06
1.56073e-08
3.67825e-06
6.98728e-08
3.68531e-06
7.46055e-08
3.6896e-06
7.61731e-08
3.69127e-06
7.76409e-08
3.69014e-06
7.58906e-08
3.68669e-06
7.19764e-08
3.6815e-06
6.76184e-08
3.67499e-06
6.33531e-08
3.66751e-06
5.92996e-08
3.65934e-06
5.55341e-08
3.65071e-06
5.21349e-08
3.64174e-06
4.91566e-08
3.63257e-06
4.6748e-08
3.62319e-06
4.49328e-08
3.61402e-06
4.46113e-08
3.60474e-06
4.49822e-08
4.95543e-08
3.60102e-06
3.92465e-06
1.63465e-08
3.9358e-06
5.87205e-08
3.94255e-06
6.78608e-08
3.94802e-06
7.06958e-08
3.95244e-06
7.32277e-08
3.95536e-06
7.29688e-08
3.95691e-06
7.04217e-08
3.9574e-06
6.71337e-08
3.957e-06
6.37501e-08
3.95587e-06
6.043e-08
3.95414e-06
5.72671e-08
3.95191e-06
5.43619e-08
3.94927e-06
5.1797e-08
3.9463e-06
4.9715e-08
3.94304e-06
4.81929e-08
3.93992e-06
4.77307e-08
3.93695e-06
4.79566e-08
4.98153e-08
3.93669e-06
4.20777e-06
1.5706e-08
4.216e-06
5.0488e-08
4.22167e-06
6.21956e-08
4.2266e-06
6.57621e-08
4.2313e-06
6.85268e-08
4.23526e-06
6.90098e-08
4.23836e-06
6.73236e-08
4.24073e-06
6.4761e-08
4.24249e-06
6.19926e-08
4.24372e-06
5.92022e-08
4.24449e-06
5.64908e-08
4.24489e-06
5.39674e-08
4.24496e-06
5.17257e-08
4.24478e-06
4.98871e-08
4.24445e-06
4.85295e-08
4.24428e-06
4.78959e-08
4.24447e-06
4.77656e-08
4.81762e-08
4.24611e-06
4.51044e-06
1.43529e-08
4.51686e-06
4.40646e-08
4.52218e-06
5.6883e-08
4.52684e-06
6.11007e-08
4.53145e-06
6.39114e-08
4.53565e-06
6.48161e-08
4.53923e-06
6.37366e-08
4.54228e-06
6.17136e-08
4.54487e-06
5.94038e-08
4.54706e-06
5.70145e-08
4.5489e-06
5.46525e-08
4.55044e-06
5.24272e-08
4.55173e-06
5.04318e-08
4.55286e-06
4.87617e-08
4.55391e-06
4.74726e-08
4.55515e-06
4.66568e-08
4.55678e-06
4.6136e-08
4.56741e-08
4.55928e-06
4.83412e-06
1.29517e-08
4.83958e-06
3.86045e-08
4.84483e-06
5.16297e-08
4.84943e-06
5.65085e-08
4.85394e-06
5.93992e-08
4.85817e-06
6.05846e-08
4.86194e-06
5.99682e-08
4.86528e-06
5.83753e-08
4.86825e-06
5.64297e-08
4.87091e-06
5.43605e-08
4.87328e-06
5.22799e-08
4.87541e-06
5.02926e-08
4.87736e-06
4.8485e-08
4.87919e-06
4.69274e-08
4.88102e-06
4.56496e-08
4.88301e-06
4.46599e-08
4.88535e-06
4.37986e-08
4.28016e-08
4.88822e-06
5.1809e-06
1.16315e-08
5.18571e-06
3.37987e-08
5.19084e-06
4.64938e-08
5.19542e-06
5.19275e-08
5.19989e-06
5.49331e-08
5.20415e-06
5.63216e-08
5.20804e-06
5.60813e-08
5.21156e-06
5.48567e-08
5.21477e-06
5.32218e-08
5.2177e-06
5.14234e-08
5.2204e-06
4.9579e-08
5.22291e-06
4.77872e-08
5.22527e-06
4.61246e-08
5.22756e-06
4.46414e-08
5.22986e-06
4.33459e-08
5.23231e-06
4.22062e-08
5.23503e-06
4.10838e-08
3.97658e-08
5.23806e-06
5.5526e-06
1.03679e-08
5.55685e-06
2.95478e-08
5.56177e-06
4.15747e-08
5.56634e-06
4.73583e-08
5.5708e-06
5.0474e-08
5.57511e-06
5.20109e-08
5.57911e-06
5.20815e-08
5.58278e-06
5.11837e-08
5.58618e-06
4.98273e-08
5.58933e-06
4.82687e-08
5.59228e-06
4.6631e-08
5.59506e-06
4.50056e-08
5.59773e-06
4.34598e-08
5.60034e-06
4.20292e-08
5.60298e-06
4.07091e-08
5.60573e-06
3.94542e-08
5.60866e-06
3.81522e-08
3.66555e-08
5.61177e-06
5.95099e-06
9.15772e-09
5.95476e-06
2.57748e-08
5.95942e-06
3.69176e-08
5.96395e-06
4.28218e-08
5.96841e-06
4.60143e-08
5.97277e-06
4.76539e-08
5.97688e-06
4.79735e-08
5.9807e-06
4.73628e-08
5.98427e-06
4.62593e-08
5.98762e-06
4.4918e-08
5.99078e-06
4.34659e-08
5.9938e-06
4.19881e-08
5.99672e-06
4.05431e-08
5.99959e-06
3.91575e-08
6.00248e-06
3.78218e-08
6.00544e-06
3.64923e-08
6.0085e-06
3.5085e-08
3.35092e-08
6.01165e-06
6.37796e-06
8.01436e-09
6.38133e-06
2.24022e-08
6.38571e-06
3.25313e-08
6.39019e-06
3.8343e-08
6.39465e-06
4.15599e-08
6.39904e-06
4.32606e-08
6.40325e-06
4.37676e-08
6.40721e-06
4.33998e-08
6.41095e-06
4.25228e-08
6.41449e-06
4.1379e-08
6.41785e-06
4.00962e-08
6.42109e-06
3.87535e-08
6.42423e-06
3.74023e-08
6.42732e-06
3.60648e-08
6.43041e-06
3.47325e-08
6.43353e-06
3.33712e-08
6.4367e-06
3.19225e-08
3.03394e-08
6.43987e-06
5.74175e-06
7.09954e-09
5.74433e-06
1.98169e-08
5.74783e-06
2.90308e-08
5.75156e-06
3.46164e-08
5.75532e-06
3.7803e-08
5.75905e-06
3.95269e-08
5.76267e-06
4.01465e-08
5.76613e-06
3.99465e-08
5.76941e-06
3.92391e-08
5.77254e-06
3.82476e-08
5.77554e-06
3.70968e-08
5.77843e-06
3.58617e-08
5.78125e-06
3.45893e-08
5.78401e-06
3.33003e-08
5.78675e-06
3.19894e-08
5.78949e-06
3.06327e-08
5.79222e-06
2.91903e-08
2.76431e-08
5.79492e-06
6.99913e-06
6.1219e-09
7.00187e-06
1.70826e-08
7.00566e-06
2.52431e-08
7.00982e-06
3.04495e-08
7.0141e-06
3.3523e-08
7.0184e-06
3.52279e-08
7.02262e-06
3.59297e-08
7.02668e-06
3.58815e-08
7.03058e-06
3.53408e-08
7.03432e-06
3.45057e-08
7.03793e-06
3.34947e-08
7.04141e-06
3.23779e-08
7.0448e-06
3.11983e-08
7.04812e-06
2.99765e-08
7.0514e-06
2.87129e-08
7.05464e-06
2.73947e-08
7.05783e-06
2.59994e-08
2.45292e-08
7.06094e-06
8.53188e-06
5.09066e-09
8.53474e-06
1.42257e-08
8.53878e-06
2.1195e-08
8.54338e-06
2.58487e-08
8.54821e-06
2.8697e-08
8.55312e-06
3.03199e-08
8.55799e-06
3.10567e-08
8.56274e-06
3.11286e-08
8.56734e-06
3.07412e-08
8.57179e-06
3.00611e-08
8.57609e-06
2.91955e-08
8.58026e-06
2.82091e-08
8.58431e-06
2.71414e-08
8.58828e-06
2.60136e-08
8.59216e-06
2.48324e-08
8.59596e-06
2.35958e-08
8.59966e-06
2.22951e-08
2.09468e-08
8.60324e-06
1.04003e-05
4.01638e-09
1.04033e-05
1.12638e-08
1.04075e-05
1.69053e-08
1.04126e-05
2.08202e-08
1.0418e-05
2.33033e-08
1.04235e-05
2.47575e-08
1.04291e-05
2.54641e-08
1.04346e-05
2.56086e-08
1.044e-05
2.53487e-08
1.04453e-05
2.48154e-08
1.04504e-05
2.40995e-08
1.04553e-05
2.32581e-08
1.04601e-05
2.2327e-08
1.04648e-05
2.1328e-08
1.04694e-05
2.02727e-08
1.04738e-05
1.91672e-08
1.04781e-05
1.80127e-08
1.68332e-08
1.04822e-05
1.26779e-05
2.9047e-09
1.2681e-05
8.18857e-09
1.26855e-05
1.23656e-08
1.2691e-05
1.53527e-08
1.2697e-05
1.73076e-08
1.27033e-05
1.8481e-08
1.27096e-05
1.90756e-08
1.2716e-05
1.92321e-08
1.27223e-05
1.90631e-08
1.27285e-05
1.86627e-08
1.27345e-05
1.81e-08
1.27403e-05
1.74215e-08
1.2746e-05
1.66576e-08
1.27515e-05
1.58286e-08
1.27568e-05
1.49486e-08
1.27619e-05
1.40278e-08
1.27669e-05
1.30724e-08
1.21087e-08
1.27716e-05
1.54543e-05
1.74456e-09
1.54576e-05
4.94933e-09
1.54624e-05
7.50893e-09
1.54684e-05
9.37652e-09
1.54751e-05
1.06263e-08
1.54822e-05
1.13881e-08
1.54895e-05
1.17771e-08
1.54968e-05
1.18785e-08
1.55041e-05
1.17595e-08
1.55113e-05
1.14766e-08
1.55184e-05
1.10733e-08
1.55252e-05
1.05805e-08
1.55318e-05
1.002e-08
1.55383e-05
9.40761e-09
1.55444e-05
8.75569e-09
1.55504e-05
8.07481e-09
1.55561e-05
7.37191e-09
6.67112e-09
1.55615e-05
1.88389e-05
4.94608e-10
1.88424e-05
1.4152e-09
1.88478e-05
2.14952e-09
1.88545e-05
2.68675e-09
1.8862e-05
3.04853e-09
1.88702e-05
3.2642e-09
1.88786e-05
3.35625e-09
1.88871e-05
3.34337e-09
1.88956e-05
3.24383e-09
1.8904e-05
3.07399e-09
1.89123e-05
2.84697e-09
1.89203e-05
2.57317e-09
1.8928e-05
2.26126e-09
1.89355e-05
1.91878e-09
1.89427e-05
1.55256e-09
1.89496e-05
1.16945e-09
1.89562e-05
7.74055e-10
3.85403e-10
1.89625e-05
2.29648e-05
-9.52e-10
2.29689e-05
-2.71497e-09
2.29752e-05
-4.14918e-09
2.29831e-05
-5.2121e-09
2.29921e-05
-5.92058e-09
2.30017e-05
-6.36137e-09
2.30117e-05
-6.62777e-09
2.30218e-05
-6.77849e-09
2.30319e-05
-6.85024e-09
2.30419e-05
-6.87419e-09
2.30516e-05
-6.87546e-09
2.3061e-05
-6.87004e-09
2.30701e-05
-6.86658e-09
2.30789e-05
-6.86956e-09
2.30874e-05
-6.88089e-09
2.30954e-05
-6.90018e-09
2.31031e-05
-6.92722e-09
-6.94988e-09
2.31105e-05
1.68118e-05
-2.09657e-09
1.68151e-05
-5.94734e-09
1.682e-05
-9.0735e-09
1.68261e-05
-1.13311e-08
1.6833e-05
-1.27689e-08
1.68402e-05
-1.36211e-08
1.68477e-05
-1.40918e-08
1.68552e-05
-1.42891e-08
1.68626e-05
-1.42879e-08
1.68699e-05
-1.41588e-08
1.6877e-05
-1.39565e-08
1.68839e-05
-1.37153e-08
1.68904e-05
-1.34556e-08
1.68968e-05
-1.31906e-08
1.69028e-05
-1.29283e-08
1.69086e-05
-1.26728e-08
1.69141e-05
-1.24264e-08
-1.21812e-08
1.69193e-05
1.46357e-05
-3.20457e-09
1.46388e-05
-9.1042e-09
1.46437e-05
-1.38936e-08
1.46495e-05
-1.72075e-08
1.4656e-05
-1.91921e-08
1.46627e-05
-2.03222e-08
1.46695e-05
-2.09e-08
1.46762e-05
-2.10597e-08
1.46829e-05
-2.09211e-08
1.46893e-05
-2.06006e-08
1.46955e-05
-2.01771e-08
1.47015e-05
-1.9696e-08
1.47072e-05
-1.91861e-08
1.47127e-05
-1.86674e-08
1.47179e-05
-1.81527e-08
1.47229e-05
-1.76486e-08
1.47276e-05
-1.7159e-08
-1.66788e-08
1.47321e-05
1.27412e-05
-4.25199e-09
1.27444e-05
-1.23122e-08
1.27493e-05
-1.88472e-08
1.27551e-05
-2.2996e-08
1.27612e-05
-2.52987e-08
1.27675e-05
-2.66002e-08
1.27738e-05
-2.72046e-08
1.278e-05
-2.7239e-08
1.2786e-05
-2.68947e-08
1.27917e-05
-2.63432e-08
1.27972e-05
-2.56793e-08
1.28025e-05
-2.49525e-08
1.28075e-05
-2.41972e-08
1.28123e-05
-2.34379e-08
1.28168e-05
-2.26897e-08
1.28211e-05
-2.196e-08
1.28252e-05
-2.12528e-08
-2.05642e-08
1.28291e-05
1.10918e-05
-5.12839e-09
1.10951e-05
-1.56317e-08
1.11004e-05
-2.41384e-08
1.11062e-05
-2.87716e-08
1.1112e-05
-3.11322e-08
1.11179e-05
-3.25097e-08
1.11238e-05
-3.30522e-08
1.11294e-05
-3.2879e-08
1.11348e-05
-3.22816e-08
1.11399e-05
-3.14763e-08
1.11448e-05
-3.05605e-08
1.11495e-05
-2.95852e-08
1.11538e-05
-2.85901e-08
1.1158e-05
-2.76027e-08
1.1162e-05
-2.66379e-08
1.11657e-05
-2.57026e-08
1.11693e-05
-2.47999e-08
-2.39264e-08
1.11726e-05
9.65583e-06
-5.74159e-09
9.65935e-06
-1.91532e-08
9.66495e-06
-2.97351e-08
9.67062e-06
-3.44488e-08
9.67625e-06
-3.67633e-08
9.68188e-06
-3.81357e-08
9.6873e-06
-3.84752e-08
9.69243e-06
-3.80011e-08
9.69726e-06
-3.71208e-08
9.70185e-06
-3.60568e-08
9.70617e-06
-3.48888e-08
9.71026e-06
-3.36683e-08
9.71411e-06
-3.244e-08
9.71774e-06
-3.12333e-08
9.72116e-06
-3.00623e-08
9.72439e-06
-2.8933e-08
9.72744e-06
-2.78466e-08
-2.67983e-08
9.73031e-06
8.40543e-06
-5.82076e-09
8.4098e-06
-2.35252e-08
8.4153e-06
-3.52338e-08
8.42049e-06
-3.96327e-08
8.42591e-06
-4.21854e-08
8.43137e-06
-4.35974e-08
8.43651e-06
-4.36144e-08
8.44126e-06
-4.27479e-08
8.44567e-06
-4.15342e-08
8.44979e-06
-4.0173e-08
8.45362e-06
-3.87218e-08
8.45718e-06
-3.72326e-08
8.4605e-06
-3.57531e-08
8.46358e-06
-3.43123e-08
8.46644e-06
-3.29239e-08
8.4691e-06
-3.15938e-08
8.47157e-06
-3.03227e-08
-2.91068e-08
8.47388e-06
7.31506e-06
-3.59272e-09
7.32194e-06
-3.04075e-08
7.32738e-06
-4.06793e-08
7.33215e-06
-4.43945e-08
7.33745e-06
-4.74894e-08
7.34281e-06
-4.89621e-08
7.34777e-06
-4.85651e-08
7.35223e-06
-4.72166e-08
7.35626e-06
-4.55636e-08
7.35988e-06
-4.37847e-08
7.36309e-06
-4.19388e-08
7.36595e-06
-4.00891e-08
7.36848e-06
-3.82853e-08
7.37072e-06
-3.65533e-08
7.3727e-06
-3.49048e-08
7.37445e-06
-3.33443e-08
7.376e-06
-3.18691e-08
-3.04728e-08
7.37737e-06
6.36222e-06
4.25362e-09
6.37294e-06
-4.11295e-08
6.38006e-06
-4.78015e-08
6.38624e-06
-5.05684e-08
6.3922e-06
-5.34504e-08
6.39748e-06
-5.42398e-08
6.40182e-06
-5.29124e-08
6.40539e-06
-5.07803e-08
6.40828e-06
-4.84574e-08
6.41055e-06
-4.60558e-08
6.41226e-06
-4.36434e-08
6.41347e-06
-4.12976e-08
6.41425e-06
-3.90672e-08
6.41467e-06
-3.69716e-08
6.41478e-06
-3.50174e-08
6.41464e-06
-3.3206e-08
6.4143e-06
-3.15288e-08
-2.99655e-08
6.41379e-06
5.53608e-06
1.3639e-08
5.54775e-06
-5.2801e-08
5.55743e-06
-5.74839e-08
5.566e-06
-5.9132e-08
5.57276e-06
-6.02102e-08
5.57717e-06
-5.8652e-08
5.5793e-06
-5.50488e-08
5.57973e-06
-5.12029e-08
5.57886e-06
-4.7589e-08
5.57698e-06
-4.41785e-08
5.57432e-06
-4.09789e-08
5.57105e-06
-3.80279e-08
5.56732e-06
-3.5339e-08
5.56325e-06
-3.29038e-08
5.55894e-06
-3.0708e-08
5.55448e-06
-2.87486e-08
5.54997e-06
-2.70165e-08
-2.54507e-08
5.54546e-06
4.85751e-06
-1.62615e-08
4.86091e-06
-5.62012e-08
4.8615e-06
-5.80742e-08
4.85883e-06
-5.64603e-08
4.85481e-06
-5.61984e-08
4.84811e-06
-5.19502e-08
4.83885e-06
-4.57877e-08
4.82759e-06
-3.99428e-08
4.81497e-06
-3.49694e-08
4.80158e-06
-3.07902e-08
4.78787e-06
-2.72695e-08
4.77415e-06
-2.43039e-08
4.76061e-06
-2.18028e-08
4.7474e-06
-1.96869e-08
4.73458e-06
-1.78933e-08
4.72225e-06
-1.64122e-08
4.7105e-06
-1.52699e-08
-1.49596e-08
4.70001e-06
4.18641e-06
4.13021e-06
4.07214e-06
4.01568e-06
3.95948e-06
3.90753e-06
3.86174e-06
3.8218e-06
3.78683e-06
3.75604e-06
3.72877e-06
3.70447e-06
3.68266e-06
3.66298e-06
3.64508e-06
3.62867e-06
3.6134e-06
3.59844e-06
9.17479e-09
-9.17479e-09
1.9999e-08
-1.08242e-08
2.79801e-08
-7.98106e-09
3.1888e-08
-3.90787e-09
3.14173e-08
4.70689e-10
2.70816e-08
4.33566e-09
1.95495e-08
7.53217e-09
9.54274e-09
1.00067e-08
-2.342e-09
1.18847e-08
-1.56895e-08
1.33475e-08
-3.02406e-08
1.45511e-08
-4.58382e-08
1.55975e-08
-6.23913e-08
1.65532e-08
-7.9847e-08
1.74557e-08
-9.81717e-08
1.83247e-08
-1.17341e-07
1.91697e-08
-1.37335e-07
1.99939e-08
-1.58134e-07
2.07983e-08
-1.79716e-07
2.15822e-08
-2.02061e-07
2.23449e-08
-2.25147e-07
2.30859e-08
-2.48952e-07
2.38056e-08
-2.73457e-07
2.45049e-08
-2.98641e-07
2.51839e-08
-3.24482e-07
2.58405e-08
-3.50949e-07
2.64676e-08
-3.78005e-07
2.70559e-08
-4.05608e-07
2.76029e-08
-4.33731e-07
2.81226e-08
-4.62361e-07
2.86307e-08
-4.91445e-07
2.90835e-08
-5.20772e-07
2.93272e-08
-5.49992e-07
2.92195e-08
-5.7907e-07
2.90783e-08
-6.09355e-07
3.02854e-08
-6.42926e-07
3.35709e-08
-6.77846e-07
3.49196e-08
-7.12607e-07
3.47614e-08
-7.4983e-07
3.72231e-08
-7.86912e-07
3.70815e-08
-8.25735e-07
3.8823e-08
-8.7451e-07
4.87753e-08
-9.23048e-07
4.85385e-08
-9.61642e-07
3.85931e-08
-9.99776e-07
3.8134e-08
-1.04061e-06
4.08328e-08
-1.08332e-06
4.27165e-08
-1.12709e-06
4.37693e-08
-1.1715e-06
4.44083e-08
-1.21627e-06
4.47644e-08
-1.2612e-06
4.49362e-08
-1.30618e-06
4.49809e-08
-1.35112e-06
4.49357e-08
-1.39594e-06
4.4824e-08
-1.4406e-06
4.46606e-08
-1.48506e-06
4.44549e-08
-1.52927e-06
4.42129e-08
-1.57321e-06
4.39378e-08
-1.61684e-06
4.36315e-08
-1.66014e-06
4.32948e-08
-1.70306e-06
4.29276e-08
-1.74559e-06
4.25294e-08
-1.78769e-06
4.20994e-08
-1.82933e-06
4.16367e-08
-1.87047e-06
4.114e-08
-1.91108e-06
4.06083e-08
-1.95112e-06
4.00407e-08
-1.99055e-06
3.9436e-08
-2.02935e-06
3.87935e-08
-2.06746e-06
3.81124e-08
-2.10485e-06
3.73923e-08
-2.14149e-06
3.66327e-08
-2.17732e-06
3.58334e-08
-2.21231e-06
3.49943e-08
-2.24643e-06
3.41154e-08
-2.27963e-06
3.3197e-08
-2.31186e-06
3.22396e-08
-2.34311e-06
3.12434e-08
-2.37332e-06
3.02092e-08
-2.40246e-06
2.91377e-08
-2.43048e-06
2.80294e-08
-2.45737e-06
2.68853e-08
-2.48308e-06
2.57061e-08
-2.50757e-06
2.44925e-08
-2.53081e-06
2.32452e-08
-2.55278e-06
2.19647e-08
-2.57343e-06
2.06513e-08
-2.59273e-06
1.9305e-08
-2.61066e-06
1.79255e-08
-2.62717e-06
1.65118e-08
-2.64223e-06
1.50622e-08
-2.65581e-06
1.35742e-08
-2.66785e-06
1.20441e-08
-2.67832e-06
1.04653e-08
-2.68715e-06
8.82932e-09
-2.69427e-06
7.12427e-09
-2.6996e-06
5.33313e-09
-2.70305e-06
3.44488e-09
-2.70451e-06
1.46239e-09
-2.70397e-06
-5.40476e-10
-2.70177e-06
-2.2027e-09
-2.69797e-06
-3.79395e-09
-2.69262e-06
-5.35525e-09
-2.68571e-06
-6.90917e-09
-2.67724e-06
-8.4673e-09
-2.66721e-06
-1.00316e-08
-2.65561e-06
-1.16017e-08
-2.64243e-06
-1.31758e-08
-2.62768e-06
-1.47519e-08
-2.61135e-06
-1.63282e-08
-2.59345e-06
-1.79023e-08
-2.57398e-06
-1.94723e-08
-2.55294e-06
-2.1036e-08
-2.53035e-06
-2.25912e-08
-2.50622e-06
-2.41359e-08
-2.48055e-06
-2.56681e-08
-2.45336e-06
-2.71856e-08
-2.42468e-06
-2.86865e-08
-2.39451e-06
-3.01686e-08
-2.36288e-06
-3.163e-08
-2.32981e-06
-3.30686e-08
-2.29533e-06
-3.44825e-08
-2.25946e-06
-3.58699e-08
-2.22223e-06
-3.7229e-08
-2.18367e-06
-3.8558e-08
-2.14381e-06
-3.98552e-08
-2.10269e-06
-4.11191e-08
-2.06035e-06
-4.23479e-08
-2.01681e-06
-4.354e-08
-1.97211e-06
-4.46941e-08
-1.9263e-06
-4.58085e-08
-1.87942e-06
-4.6882e-08
-1.83151e-06
-4.79135e-08
-1.78261e-06
-4.89019e-08
-1.73276e-06
-4.98462e-08
-1.68202e-06
-5.07455e-08
-1.63042e-06
-5.15987e-08
-1.57801e-06
-5.24053e-08
-1.52485e-06
-5.31646e-08
-1.47097e-06
-5.38763e-08
-1.41643e-06
-5.45402e-08
-1.36127e-06
-5.51561e-08
-1.30555e-06
-5.57237e-08
-1.24931e-06
-5.62433e-08
-1.19259e-06
-5.67153e-08
-1.13545e-06
-5.71401e-08
-1.07793e-06
-5.75183e-08
-1.02008e-06
-5.78505e-08
-9.61945e-07
-5.81379e-08
-9.03563e-07
-5.83815e-08
-8.44981e-07
-5.85827e-08
-7.86238e-07
-5.87429e-08
-7.27374e-07
-5.88636e-08
-6.68428e-07
-5.89467e-08
-6.09434e-07
-5.8994e-08
-5.50426e-07
-5.90074e-08
-4.91437e-07
-5.89889e-08
-4.32497e-07
-5.89403e-08
-3.73634e-07
-5.8863e-08
-3.14876e-07
-5.87577e-08
-2.56251e-07
-5.86255e-08
-1.97788e-07
-5.84623e-08
-1.3952e-07
-5.82684e-08
-8.14768e-08
-5.80433e-08
-2.37001e-08
-5.77767e-08
3.37744e-08
-5.74745e-08
9.09071e-08
-5.71327e-08
1.47698e-07
-5.67907e-08
2.04168e-07
-5.64703e-08
2.60334e-07
-5.61663e-08
3.16193e-07
-5.58589e-08
3.71715e-07
-5.5522e-08
4.26832e-07
-5.51166e-08
4.81407e-07
-5.45754e-08
5.35176e-07
-5.37686e-08
5.87606e-07
-5.24302e-08
6.37488e-07
-4.98818e-08
6.81975e-07
-4.44875e-08
7.13535e-07
-3.15599e-08
8.33928e-09
7.05196e-07
7.03028e-09
-1.62051e-08
9.66767e-09
-1.34616e-08
8.42496e-09
-6.73835e-09
4.43735e-09
7.97411e-11
-1.67182e-09
6.57986e-09
-9.78036e-09
1.24442e-08
-1.98097e-08
1.75615e-08
-3.16989e-08
2.18959e-08
-4.53285e-08
2.55144e-08
-6.05301e-08
2.85491e-08
-7.71283e-08
3.11493e-08
-9.49742e-08
3.34434e-08
-1.1395e-07
3.55294e-08
-1.33971e-07
3.74762e-08
-1.54976e-07
3.93293e-08
-1.76923e-07
4.11173e-08
-1.99787e-07
4.28578e-08
-2.2355e-07
4.45614e-08
-2.48203e-07
4.62352e-08
-2.73743e-07
4.78846e-08
-3.00171e-07
4.95145e-08
-3.27496e-07
5.11304e-08
-3.55729e-07
5.27381e-08
-3.84888e-07
5.43424e-08
-4.14994e-07
5.59462e-08
-4.46076e-07
5.75498e-08
-4.78174e-07
5.91544e-08
-5.11341e-07
6.07694e-08
-5.45636e-07
6.24182e-08
-5.81134e-07
6.4128e-08
-6.17952e-07
6.59021e-08
-6.56324e-07
6.76988e-08
-6.96581e-07
6.94769e-08
-7.38863e-07
7.13605e-08
-7.82344e-07
7.37663e-08
-8.25565e-07
7.67914e-08
-8.69979e-07
7.93335e-08
-9.16242e-07
8.10248e-08
-9.61677e-07
8.26577e-08
-1.00841e-06
8.38144e-08
-1.05531e-06
8.57267e-08
-1.09544e-06
8.89049e-08
-1.13612e-06
8.92121e-08
-1.18419e-06
8.66675e-08
-1.2317e-06
8.56414e-08
-1.27668e-06
8.58106e-08
-1.32007e-06
8.61117e-08
-1.36255e-06
8.62489e-08
-1.40437e-06
8.62302e-08
-1.44568e-06
8.60711e-08
-1.48654e-06
8.57954e-08
-1.52698e-06
8.54236e-08
-1.56702e-06
8.49723e-08
-1.60665e-06
8.4454e-08
-1.64586e-06
8.38772e-08
-1.68466e-06
8.32474e-08
-1.72301e-06
8.25678e-08
-1.76091e-06
8.18395e-08
-1.79834e-06
8.10626e-08
-1.83529e-06
8.02361e-08
-1.87172e-06
7.93584e-08
-1.90762e-06
7.84276e-08
-1.94296e-06
7.74415e-08
-1.97772e-06
7.63979e-08
-2.01187e-06
7.52945e-08
-2.04539e-06
7.41294e-08
-2.07825e-06
7.29006e-08
-2.11042e-06
7.16065e-08
-2.14188e-06
7.02456e-08
-2.17258e-06
6.88167e-08
-2.20251e-06
6.73191e-08
-2.23163e-06
6.57521e-08
-2.25991e-06
6.41153e-08
-2.28732e-06
6.24087e-08
-2.31384e-06
6.06326e-08
-2.33943e-06
5.87874e-08
-2.36406e-06
5.68736e-08
-2.38771e-06
5.48922e-08
-2.41035e-06
5.28442e-08
-2.43194e-06
5.07306e-08
-2.45246e-06
4.85529e-08
-2.47189e-06
4.63121e-08
-2.4902e-06
4.40098e-08
-2.50735e-06
4.1647e-08
-2.52333e-06
3.92251e-08
-2.53811e-06
3.67451e-08
-2.55167e-06
3.42079e-08
-2.56398e-06
3.16139e-08
-2.57501e-06
2.89636e-08
-2.58476e-06
2.62569e-08
-2.59319e-06
2.34934e-08
-2.60029e-06
2.06723e-08
-2.60604e-06
1.77932e-08
-2.61043e-06
1.48552e-08
-2.61346e-06
1.18591e-08
-2.61514e-06
8.80795e-09
-2.61552e-06
5.71024e-09
-2.61466e-06
2.5879e-09
-2.6127e-06
-4.97926e-10
-2.60964e-06
-3.59904e-09
-2.60524e-06
-6.60728e-09
-2.59939e-06
-9.6377e-09
-2.59206e-06
-1.26896e-08
-2.58321e-06
-1.57601e-08
-2.57283e-06
-1.88485e-08
-2.56091e-06
-2.19525e-08
-2.54744e-06
-2.50686e-08
-2.53242e-06
-2.81932e-08
-2.51585e-06
-3.13218e-08
-2.49773e-06
-3.44505e-08
-2.47806e-06
-3.75749e-08
-2.45684e-06
-4.06908e-08
-2.43408e-06
-4.37939e-08
-2.40979e-06
-4.68803e-08
-2.38398e-06
-4.99455e-08
-2.35666e-06
-5.29857e-08
-2.32785e-06
-5.59967e-08
-2.29757e-06
-5.89744e-08
-2.26582e-06
-6.19147e-08
-2.23264e-06
-6.48137e-08
-2.19804e-06
-6.76673e-08
-2.16205e-06
-7.04717e-08
-2.12469e-06
-7.32232e-08
-2.08601e-06
-7.59183e-08
-2.04601e-06
-7.85534e-08
-2.00474e-06
-8.11252e-08
-1.96223e-06
-8.36304e-08
-1.91851e-06
-8.60658e-08
-1.87362e-06
-8.84283e-08
-1.8276e-06
-9.07147e-08
-1.78049e-06
-9.29223e-08
-1.73232e-06
-9.50484e-08
-1.68314e-06
-9.70907e-08
-1.633e-06
-9.9047e-08
-1.58193e-06
-1.00916e-07
-1.52998e-06
-1.02694e-07
-1.4772e-06
-1.04381e-07
-1.42363e-06
-1.05975e-07
-1.36932e-06
-1.07475e-07
-1.31431e-06
-1.0888e-07
-1.25866e-06
-1.1019e-07
-1.20242e-06
-1.11404e-07
-1.14562e-06
-1.12522e-07
-1.08832e-06
-1.13544e-07
-1.03056e-06
-1.14472e-07
-9.72395e-07
-1.15305e-07
-9.13867e-07
-1.16046e-07
-8.55022e-07
-1.16695e-07
-7.95905e-07
-1.17255e-07
-7.36559e-07
-1.17728e-07
-6.77026e-07
-1.18116e-07
-6.17346e-07
-1.18423e-07
-5.57558e-07
-1.18651e-07
-4.97701e-07
-1.18804e-07
-4.37808e-07
-1.18887e-07
-3.77914e-07
-1.18902e-07
-3.18049e-07
-1.18853e-07
-2.58244e-07
-1.18745e-07
-1.98526e-07
-1.18581e-07
-1.38921e-07
-1.18362e-07
-7.94549e-08
-1.18092e-07
-2.0151e-08
-1.17766e-07
3.89643e-08
-1.17384e-07
9.78644e-08
-1.16943e-07
1.56532e-07
-1.16444e-07
2.14955e-07
-1.15898e-07
2.73138e-07
-1.15315e-07
3.31075e-07
-1.14728e-07
3.88762e-07
-1.14157e-07
4.46188e-07
-1.13592e-07
5.03334e-07
-1.13005e-07
5.6016e-07
-1.12348e-07
6.16588e-07
-1.11544e-07
6.72473e-07
-1.10461e-07
7.2755e-07
-1.08845e-07
7.81324e-07
-1.06205e-07
8.32831e-07
-1.01389e-07
8.80465e-07
-9.21213e-08
9.20932e-07
-7.20272e-08
-2.5086e-08
9.54357e-07
3.24968e-10
-1.653e-08
-4.23344e-09
-8.90323e-09
-1.12596e-08
2.87807e-10
-1.9811e-08
8.63113e-09
-2.959e-08
1.63589e-08
-4.05514e-08
2.34056e-08
-5.27283e-08
2.97385e-08
-6.61818e-08
3.53494e-08
-8.09473e-08
4.02799e-08
-9.70143e-08
4.46161e-08
-1.14333e-07
4.84681e-08
-1.32836e-07
5.19468e-08
-1.52456e-07
5.51495e-08
-1.73134e-07
5.8154e-08
-1.94824e-07
6.10186e-08
-2.17491e-07
6.37853e-08
-2.41117e-07
6.64836e-08
-2.6569e-07
6.91344e-08
-2.91208e-07
7.17532e-08
-3.17676e-07
7.43524e-08
-3.45104e-07
7.69426e-08
-3.73508e-07
7.95341e-08
-4.02906e-07
8.2136e-08
-4.3332e-07
8.47561e-08
-4.64774e-07
8.74001e-08
-4.97295e-07
9.00714e-08
-5.30914e-07
9.27729e-08
-5.65655e-07
9.55104e-08
-6.01529e-07
9.82926e-08
-6.38528e-07
1.01127e-07
-6.76631e-07
1.04006e-07
-7.15833e-07
1.06901e-07
-7.56124e-07
1.09768e-07
-7.97346e-07
1.12583e-07
-8.38928e-07
1.15348e-07
-8.80116e-07
1.17979e-07
-9.21032e-07
1.2025e-07
-9.62008e-07
1.22001e-07
-1.00269e-06
1.23338e-07
-1.04328e-06
1.24408e-07
-1.083e-06
1.25444e-07
-1.12036e-06
1.26261e-07
-1.15731e-06
1.26166e-07
-1.19602e-06
1.25376e-07
-1.23503e-06
1.24657e-07
-1.27337e-06
1.24143e-07
-1.31096e-06
1.23704e-07
-1.34796e-06
1.23254e-07
-1.38449e-06
1.22759e-07
-1.42062e-06
1.222e-07
-1.4564e-06
1.21575e-07
-1.49186e-06
1.20882e-07
-1.52701e-06
1.20124e-07
-1.56186e-06
1.19304e-07
-1.59641e-06
1.18422e-07
-1.63064e-06
1.1748e-07
-1.66455e-06
1.16477e-07
-1.69812e-06
1.15409e-07
-1.73133e-06
1.14277e-07
-1.76417e-06
1.13075e-07
-1.79661e-06
1.11801e-07
-1.82864e-06
1.10451e-07
-1.86022e-06
1.09022e-07
-1.89133e-06
1.0751e-07
-1.92194e-06
1.05911e-07
-1.95204e-06
1.04224e-07
-1.98158e-06
1.02444e-07
-2.01055e-06
1.0057e-07
-2.0389e-06
9.86e-08
-2.06662e-06
9.65314e-08
-2.09366e-06
9.43634e-08
-2.12e-06
9.20951e-08
-2.14561e-06
8.97259e-08
-2.17046e-06
8.72558e-08
-2.19451e-06
8.46849e-08
-2.21774e-06
8.20139e-08
-2.24011e-06
7.92436e-08
-2.26159e-06
7.63751e-08
-2.28216e-06
7.34099e-08
-2.30178e-06
7.03495e-08
-2.32042e-06
6.71958e-08
-2.33806e-06
6.39507e-08
-2.35466e-06
6.0616e-08
-2.37021e-06
5.71939e-08
-2.38467e-06
5.36864e-08
-2.39802e-06
5.00954e-08
-2.41024e-06
4.64227e-08
-2.42129e-06
4.267e-08
-2.43117e-06
3.88389e-08
-2.43984e-06
3.4931e-08
-2.4473e-06
3.09479e-08
-2.45352e-06
2.68912e-08
-2.45849e-06
2.27636e-08
-2.4622e-06
1.85685e-08
-2.46465e-06
1.43116e-08
-2.46585e-06
1.00009e-08
-2.46578e-06
5.64883e-09
-2.46447e-06
1.27232e-09
-2.46186e-06
-3.10741e-09
-2.45795e-06
-7.5068e-09
-2.45263e-06
-1.19248e-08
-2.44589e-06
-1.63853e-08
-2.43769e-06
-2.08872e-08
-2.42802e-06
-2.54258e-08
-2.41688e-06
-2.99955e-08
-2.40424e-06
-3.45904e-08
-2.3901e-06
-3.92043e-08
-2.37446e-06
-4.38311e-08
-2.35732e-06
-4.84643e-08
-2.33868e-06
-5.30976e-08
-2.31853e-06
-5.77248e-08
-2.29688e-06
-6.23394e-08
-2.27374e-06
-6.69353e-08
-2.24911e-06
-7.15063e-08
-2.22301e-06
-7.60462e-08
-2.19545e-06
-8.05489e-08
-2.16643e-06
-8.50085e-08
-2.13599e-06
-8.94188e-08
-2.10413e-06
-9.37738e-08
-2.07088e-06
-9.80675e-08
-2.03625e-06
-1.02294e-07
-2.00027e-06
-1.06448e-07
-1.96297e-06
-1.10523e-07
-1.92438e-06
-1.14515e-07
-1.88451e-06
-1.18417e-07
-1.84341e-06
-1.22226e-07
-1.80111e-06
-1.25935e-07
-1.75763e-06
-1.29542e-07
-1.71302e-06
-1.3304e-07
-1.66731e-06
-1.36425e-07
-1.62054e-06
-1.39693e-07
-1.57275e-06
-1.4284e-07
-1.52398e-06
-1.45863e-07
-1.47427e-06
-1.48758e-07
-1.42366e-06
-1.51522e-07
-1.3722e-06
-1.54153e-07
-1.31993e-06
-1.56648e-07
-1.2669e-06
-1.59005e-07
-1.21316e-06
-1.61222e-07
-1.15874e-06
-1.63299e-07
-1.10369e-06
-1.65233e-07
-1.04807e-06
-1.67026e-07
-9.9192e-07
-1.68676e-07
-9.35281e-07
-1.70183e-07
-8.78203e-07
-1.7155e-07
-8.20731e-07
-1.72777e-07
-7.62911e-07
-1.73866e-07
-7.04786e-07
-1.7482e-07
-6.464e-07
-1.75641e-07
-5.87795e-07
-1.76333e-07
-5.29012e-07
-1.76899e-07
-4.70091e-07
-1.77344e-07
-4.11069e-07
-1.77673e-07
-3.51983e-07
-1.77891e-07
-2.92867e-07
-1.78003e-07
-2.33752e-07
-1.78016e-07
-1.74671e-07
-1.77935e-07
-1.1565e-07
-1.77766e-07
-5.6716e-08
-1.77515e-07
2.10715e-09
-1.77186e-07
6.07952e-08
-1.7678e-07
1.19327e-07
-1.76298e-07
1.77683e-07
-1.7574e-07
2.35848e-07
-1.75109e-07
2.93818e-07
-1.74414e-07
3.51599e-07
-1.73678e-07
4.092e-07
-1.72916e-07
4.66609e-07
-1.72137e-07
5.23806e-07
-1.71355e-07
5.80772e-07
-1.70558e-07
6.37478e-07
-1.69711e-07
6.9388e-07
-1.6875e-07
7.499e-07
-1.67564e-07
8.054e-07
-1.65962e-07
8.60146e-07
-1.63591e-07
9.13737e-07
-1.59795e-07
9.65542e-07
-1.53194e-07
1.01467e-06
-1.41244e-07
1.0606e-06
-1.17958e-07
-7.19787e-08
1.10749e-06
-5.94291e-09
-1.05871e-08
-1.56973e-08
8.51202e-10
-2.66353e-08
1.12257e-08
-3.84329e-08
2.04288e-08
-5.09305e-08
2.88565e-08
-6.41487e-08
3.66238e-08
-7.81635e-08
4.37532e-08
-9.30683e-08
5.02543e-08
-1.08944e-07
5.61557e-08
-1.25842e-07
6.15143e-08
-1.43782e-07
6.64074e-08
-1.62756e-07
7.09208e-08
-1.82744e-07
7.51377e-08
-2.03721e-07
7.91307e-08
-2.25662e-07
8.29596e-08
-2.48547e-07
8.66711e-08
-2.72365e-07
9.03007e-08
-2.97105e-07
9.38751e-08
-3.22767e-07
9.74146e-08
-3.49349e-07
1.00935e-07
-3.76856e-07
1.04449e-07
-4.0529e-07
1.07967e-07
-4.3465e-07
1.11496e-07
-4.64935e-07
1.15041e-07
-4.96135e-07
1.186e-07
-5.28234e-07
1.22171e-07
-5.61208e-07
1.25746e-07
-5.95011e-07
1.29314e-07
-6.29578e-07
1.3286e-07
-6.64813e-07
1.36362e-07
-7.00595e-07
1.39787e-07
-7.36785e-07
1.4309e-07
-7.73231e-07
1.46214e-07
-8.09753e-07
1.49104e-07
-8.46115e-07
1.5171e-07
-8.82102e-07
1.53967e-07
-9.17662e-07
1.55809e-07
-9.5288e-07
1.57219e-07
-9.87785e-07
1.58243e-07
-1.02234e-06
1.58964e-07
-1.05635e-06
1.59456e-07
-1.08973e-06
1.5964e-07
-1.12294e-06
1.59369e-07
-1.15633e-06
1.58767e-07
-1.18974e-06
1.58074e-07
-1.22298e-06
1.57382e-07
-1.25597e-06
1.56688e-07
-1.28869e-06
1.55979e-07
-1.32117e-06
1.55236e-07
-1.35342e-06
1.5445e-07
-1.38545e-06
1.5361e-07
-1.41728e-06
1.52712e-07
-1.44891e-06
1.51753e-07
-1.48034e-06
1.50728e-07
-1.51155e-06
1.49635e-07
-1.54254e-06
1.4847e-07
-1.57329e-06
1.47229e-07
-1.60379e-06
1.45907e-07
-1.63401e-06
1.445e-07
-1.66394e-06
1.43003e-07
-1.69355e-06
1.41411e-07
-1.72282e-06
1.39719e-07
-1.75172e-06
1.37921e-07
-1.78022e-06
1.36014e-07
-1.8083e-06
1.33992e-07
-1.83593e-06
1.31852e-07
-1.86308e-06
1.29591e-07
-1.88971e-06
1.27205e-07
-1.9158e-06
1.24692e-07
-1.94132e-06
1.22049e-07
-1.96623e-06
1.19275e-07
-1.99051e-06
1.16369e-07
-2.01411e-06
1.1333e-07
-2.03701e-06
1.10158e-07
-2.05918e-06
1.06853e-07
-2.08058e-06
1.03416e-07
-2.10119e-06
9.9849e-08
-2.12097e-06
9.61524e-08
-2.13988e-06
9.23285e-08
-2.15791e-06
8.83793e-08
-2.17503e-06
8.43073e-08
-2.19119e-06
8.0115e-08
-2.20638e-06
7.58053e-08
-2.22057e-06
7.13809e-08
-2.23372e-06
6.68448e-08
-2.24583e-06
6.22e-08
-2.25686e-06
5.74492e-08
-2.26678e-06
5.25955e-08
-2.27558e-06
4.76417e-08
-2.28324e-06
4.25908e-08
-2.28974e-06
3.74459e-08
-2.29506e-06
3.22104e-08
-2.29919e-06
2.68887e-08
-2.3021e-06
2.14857e-08
-2.3038e-06
1.60082e-08
-2.30426e-06
1.0464e-08
-2.30348e-06
4.86272e-09
-2.30142e-06
-7.86055e-10
-2.29805e-06
-6.47563e-09
-2.29335e-06
-1.22114e-08
-2.28727e-06
-1.80012e-08
-2.2798e-06
-2.38518e-08
-2.27093e-06
-2.97592e-08
-2.26064e-06
-3.57168e-08
-2.24892e-06
-4.17167e-08
-2.23576e-06
-4.77506e-08
-2.22115e-06
-5.38101e-08
-2.2051e-06
-5.98868e-08
-2.18759e-06
-6.59723e-08
-2.16863e-06
-7.20581e-08
-2.14822e-06
-7.81359e-08
-2.12636e-06
-8.41974e-08
-2.10306e-06
-9.02345e-08
-2.07833e-06
-9.62388e-08
-2.05217e-06
-1.02202e-07
-2.0246e-06
-1.08117e-07
-1.99564e-06
-1.13976e-07
-1.96528e-06
-1.19769e-07