/*--------------------------------*- C++ -*----------------------------------*\
  =========                 |
  \\      /  F ield         | OpenFOAM: The Open Source CFD Toolbox
   \\    /   O peration     | Website:  https://openfoam.org
    \\  /    A nd           | Version:  9
     \\/     M anipulation  |
\*---------------------------------------------------------------------------*/
FoamFile
{
    format      ascii;
    class       volScalarField;
    location    "1300";
    object      alphat;
}
// * * * * * * * * * * * * * * * * * * * * * * * * * * * * * * * * * * * * * //

dimensions      [1 -1 -1 0 0 0 0];

internalField   nonuniform List<scalar> 
4000
(
0.000394794
0.000363096
0.000308704
0.000212035
0.000169302
0.000154715
0.000145524
0.000135887
0.000130628
0.000128049
0.000125935
0.000124868
0.000126246
0.000132294
0.00014161
0.000156389
0.000184831
0.000257107
0.00032426
0.000362722
0.000426399
0.000402347
0.00035648
0.000316291
0.000290774
0.000254964
0.000174988
0.000165593
0.000160389
0.000162386
0.000161954
0.000157729
0.000158302
0.000162389
0.000242206
0.000292739
0.000321135
0.000348278
0.000388875
0.000413089
0.000444182
0.000427399
0.0003969
0.000364109
0.000333858
0.000299261
0.000263881
0.000216898
0.000175053
0.000180057
0.000180125
0.000173921
0.000201361
0.000252438
0.000292677
0.000334166
0.000369877
0.000399711
0.000423229
0.000435949
0.000453773
0.000442853
0.000415911
0.000383398
0.000347458
0.000310278
0.000274439
0.000243188
0.000218912
0.000213162
0.000214513
0.000222095
0.000243664
0.000274984
0.000310561
0.000348833
0.000386337
0.000417478
0.000439782
0.000447218
0.000459804
0.000455654
0.000437985
0.000414836
0.000390534
0.000368774
0.000350117
0.000333383
0.000322775
0.000318597
0.00032495
0.000331388
0.000341637
0.000356937
0.000374207
0.00039518
0.000418011
0.000438486
0.000452742
0.000453981
0.000464336
0.000467288
0.000461523
0.000452467
0.000442831
0.00043295
0.000423362
0.00041406
0.000405678
0.00039919
0.000404599
0.000413279
0.000421926
0.000430572
0.000438997
0.000447403
0.000455097
0.000461646
0.000464464
0.000458945
0.000468785
0.000479378
0.000484084
0.000485672
0.000485613
0.000483497
0.000479291
0.000473233
0.000465567
0.000457219
0.000462285
0.000472623
0.000480708
0.000486218
0.000489279
0.000489809
0.000487949
0.000484066
0.000476717
0.000463757
0.000474017
0.000492183
0.000505779
0.000515265
0.000521795
0.000525204
0.000525492
0.00052217
0.000514879
0.000504362
0.00050931
0.000521495
0.000529121
0.000531901
0.000530553
0.000525622
0.000517279
0.000505706
0.000489731
0.000469346
0.000481381
0.000508285
0.000529824
0.000545917
0.00055799
0.000566012
0.000570147
0.000569557
0.000562966
0.000550059
0.000555247
0.000569267
0.000576004
0.000576029
0.000570915
0.000561537
0.000547695
0.000529619
0.000505962
0.000477087
0.000492651
0.000527666
0.000556449
0.00057796
0.000594942
0.000608108
0.000617299
0.000621597
0.000619465
0.000608744
0.000613771
0.000624706
0.000626729
0.000621926
0.000611915
0.00059765
0.000579321
0.0005563
0.00052583
0.000488839
0.000363096
0.000342019
0.000284813
0.000219264
0.000194404
0.000189942
0.000184315
0.000164424
0.000155431
0.000150575
0.000147163
0.000145083
0.000149277
0.000165596
0.000174437
0.000185288
0.000198105
0.000232223
0.000283929
0.000307904
0.000402347
0.000545878
0.000471097
0.000425821
0.000428219
0.000427438
0.000377649
0.000350509
0.000371235
0.000421083
0.000438397
0.000387648
0.000346384
0.000353369
0.000416645
0.000444156
0.00044541
0.000460371
0.000486059
0.000377797
0.000427399
0.000633619
0.000628992
0.000552828
0.000490854
0.000445241
0.000409285
0.000380861
0.00038011
0.000431117
0.000447117
0.000383846
0.000374745
0.00040085
0.000437481
0.000484194
0.000537144
0.000591708
0.000588713
0.000416931
0.000442853
0.000623364
0.00064054
0.000582956
0.000506127
0.000446738
0.000400367
0.000362931
0.00034593
0.00039526
0.000406577
0.000344042
0.000358089
0.00039644
0.000446204
0.000508775
0.000582434
0.000620851
0.000597069
0.000434179
0.000455654
0.000641883
0.000671279
0.0006241
0.000539278
0.000467178
0.000414977
0.000371397
0.000340306
0.00033661
0.000339922
0.000343722
0.000374011
0.000420194
0.000478364
0.000557131
0.000634982
0.000663828
0.000623818
0.000448135
0.000467288
0.000665633
0.000711401
0.000691421
0.000627897
0.000535877
0.00047536
0.000429946
0.000400877
0.00039094
0.00039509
0.000407548
0.000440535
0.000491385
0.000558882
0.000651661
0.000701633
0.000705383
0.000649568
0.000460514
0.000479378
0.000683415
0.000740816
0.00075738
0.000748683
0.000705747
0.000632123
0.000564606
0.000519785
0.000497723
0.000506687
0.000540637
0.000595889
0.000665565
0.000736664
0.000769036
0.000765448
0.000734314
0.000667297
0.000473237
0.000492183
0.000691218
0.000752979
0.000803454
0.000852531
0.000868619
0.000856279
0.000828025
0.000789591
0.000761217
0.000772491
0.000813161
0.00085236
0.000878405
0.000886229
0.000865976
0.000807928
0.000746579
0.000675646
0.000486524
0.000508285
0.000666778
0.000739033
0.000792247
0.000830002
0.000844665
0.000845509
0.000828477
0.00078839
0.000735847
0.000750877
0.000812095
0.000851692
0.000865106
0.000860438
0.000840046
0.000793633
0.000731727
0.000655492
0.00050317
0.000527666
0.000565895
0.000598361
0.000624127
0.00064594
0.000664265
0.000678439
0.000686588
0.00068621
0.000675131
0.00068072
0.000692245
0.000692244
0.000683269
0.00066796
0.000648195
0.000624706
0.000597309
0.000563311
0.000523652
0.000308704
0.000284813
0.000237423
0.000212837
0.00020485
0.000205093
0.000198694
0.000179718
0.000169649
0.000164262
0.000160588
0.000157942
0.000162885
0.000180513
0.000193322
0.000199796
0.000202822
0.000210148
0.00022491
0.000222708
0.00035648
0.000471097
0.000463531
0.000470433
0.000499629
0.00050113
0.000450404
0.000426897
0.000449998
0.000509592
0.000535251
0.000474042
0.00042461
0.000426742
0.000488385
0.000524127
0.000512241
0.000488708
0.000458712
0.000341072
0.0003969
0.000628992
0.00064586
0.000601254
0.000559734
0.000523459
0.000494721
0.000474073
0.000474639
0.000527468
0.000555796
0.000484344
0.000474558
0.000492012
0.000515006
0.000551923
0.000584479
0.000611298
0.000579666
0.000390398
0.000415911
0.00064054
0.000691665
0.000654231
0.000588781
0.000531532
0.000487043
0.000455658
0.000455576
0.000504099
0.000520564
0.000464681
0.000455299
0.000483297
0.000526572
0.000583083
0.000642044
0.000663939
0.000603721
0.000406471
0.000437985
0.000671279
0.000734907
0.000704465
0.000621203
0.000542765
0.000483822
0.000437837
0.000405178
0.000405334
0.000409193
0.000405563
0.000436212
0.000484416
0.000547271
0.000627128
0.000702937
0.000716806
0.000645747
0.000428718
0.000461523
0.000711401
0.000789367
0.000771206
0.000685503
0.000582163
0.000504236
0.000445047
0.000401345
0.00038699
0.000389058
0.000405262
0.000450995
0.000515106
0.000598279
0.000698269
0.000767846
0.000769819
0.000687615
0.000453813
0.000484084
0.000740816
0.000834417
0.00083917
0.000777606
0.000685669
0.00060097
0.000533696
0.00048502
0.00046537
0.000470848
0.000498032
0.000550852
0.000622401
0.000708665
0.00079013
0.000831712
0.000810391
0.000714565
0.00047741
0.000505779
0.000752979
0.000870536
0.000927045
0.000925845
0.000872636
0.000815242
0.00075676
0.000698135
0.000655113
0.000666542
0.000719192
0.000777838
0.000835286
0.000891135
0.000931357
0.000914243
0.000842702
0.00072438
0.000499661
0.000529824
0.000739033
0.000914876
0.00106936
0.00116565
0.00120189
0.00120491
0.00116874
0.00108807
0.000981525
0.00100248
0.00112013
0.00119533
0.00122432
0.00121504
0.00116656
0.00105596
0.000888409
0.000714831
0.000524178
0.000556449
0.000598361
0.000633845
0.000662976
0.000688636
0.000711207
0.000729881
0.000741853
0.000743491
0.000731759
0.000737852
0.00075014
0.000747801
0.000734686
0.000714578
0.000690259
0.000662683
0.000632055
0.000595499
0.000552699
0.000212035
0.000219264
0.000212837
0.000210463
0.00021096
0.000211016
0.000202441
0.000187243
0.000179169
0.000175837
0.000172835
0.000168541
0.000172158
0.00018607
0.000203384
0.000207805
0.00020713
0.000202879
0.000194778
0.000170491
0.000316291
0.000425821
0.000470433
0.000513015
0.000543201
0.000527333
0.000483872
0.000472519
0.000504173
0.000572597
0.000605731
0.000539595
0.000479631
0.000470196
0.000507116
0.000561635
0.000560493
0.000519881
0.000453044
0.000315037
0.000364109
0.000552828
0.000601254
0.000599278
0.000584315
0.000561287
0.000544653
0.000528276
0.000534406
0.0006063
0.000646563
0.000564765
0.000534112
0.000548003
0.000557279
0.000578395
0.0005896
0.000579725
0.000521028
0.000357839
0.000383398
0.000582956
0.000654231
0.00064945
0.00061359
0.000573277
0.000540334
0.000520453
0.000531821
0.000592559
0.000619154
0.000553195
0.000528937
0.000540689
0.000566616
0.000600961
0.00062871
0.000621263
0.000547123
0.000369928
0.000414836
0.0006241
0.000704465
0.000702335
0.000651483
0.000591573
0.000542111
0.000506081
0.000490698
0.00053118
0.000546588
0.000495943
0.0005055
0.000539588
0.000586245
0.000639908
0.000680332
0.000670779
0.000590495
0.000402938
0.000452467
0.000691421
0.000771206
0.000772633
0.000712204
0.000629505
0.000558467
0.00050325
0.000463543
0.000457074
0.000458702
0.0004643
0.000503988
0.0005605
0.000629332
0.000700588
0.000742905
0.000730899
0.000659411
0.000444093
0.000485672
0.00075738
0.00083917
0.000850812
0.000799652
0.000715294
0.000637001
0.000575555
0.00053042
0.000515454
0.000517505
0.000534143
0.000580389
0.00064378
0.00071775
0.000784071
0.000812089
0.000791316
0.000725657
0.000479025
0.000515265
0.000803454
0.000927045
0.000989143
0.000972835
0.000910688
0.000847051
0.000788759
0.000729114
0.000679985
0.000689651
0.000740714
0.000795137
0.00084938
0.000905199
0.000946486
0.000939835
0.000875078
0.000770459
0.000509252
0.000545917
0.000792247
0.00106936
0.00131613
0.00136174
0.00137233
0.00137617
0.00135515
0.00127457
0.00114407
0.00116457
0.00129708
0.0013649
0.00137317
0.00135922
0.00133147
0.00127009
0.00102335
0.000758142
0.000540198
0.00057796
0.000624127
0.000662976
0.000695849
0.000726422
0.000754498
0.000778606
0.000795486
0.000800896
0.000791834
0.000798355
0.000808061
0.000801798
0.000783456
0.000757631
0.000727477
0.000694812
0.00066079
0.00062142
0.000574736
0.000169302
0.000194404
0.00020485
0.00021096
0.000213337
0.000210127
0.000200599
0.000191052
0.000186338
0.000186006
0.000184151
0.000178153
0.000180116
0.000189096
0.000203103
0.000212722
0.000211377
0.000202406
0.000186758
0.0001535
0.000290774
0.000428219
0.000499629
0.000543201
0.000549888
0.000523083
0.000501146
0.000502884
0.000541936
0.000620947
0.000662321
0.000589032
0.000521401
0.000502039
0.000508387
0.000544769
0.000567624
0.000539649
0.000460266
0.000285503
0.000333858
0.000490854
0.000559734
0.000584315
0.000585806
0.000577554
0.000569172
0.000556672
0.000576585
0.00066835
0.000721231
0.000622052
0.000570742
0.000578229
0.000584656
0.000583844
0.000579915
0.000551102
0.000476327
0.000322209
0.000347458
0.000506127
0.000588781
0.00061359
0.000605821
0.000586667
0.000569318
0.00056237
0.000583015
0.000661808
0.000705173
0.000614212
0.000579817
0.000578132
0.000585799
0.000595392
0.000595535
0.000564178
0.000479584
0.000329827
0.000390534
0.000539278
0.000621203
0.000651483
0.000637988
0.00060629
0.000575176
0.000554827
0.000562112
0.000634397
0.000663672
0.000579046
0.000559851
0.000574401
0.000598431
0.000620248
0.000622915
0.000584455
0.000503258
0.00037613
0.000442831
0.000627897
0.000685503
0.000712204
0.000692738
0.000645605
0.000596393
0.000557958
0.000542845
0.000586292
0.00059261
0.000543954
0.000555969
0.000591537
0.000632882
0.0006647
0.000665914
0.000629186
0.000580877
0.000434029
0.000485613
0.000748683
0.000777606
0.000799652
0.000782343
0.000731187
0.000674363
0.00062893
0.000606364
0.000631758
0.000625835
0.000600041
0.000622821
0.000666165
0.000712222
0.000741307
0.000735794
0.000709612
0.000708073
0.000479283
0.000521795
0.000852531
0.000925845
0.000972835
0.000963917
0.000915695
0.000861645
0.000811671
0.000759781
0.000720245
0.00072147
0.000758535
0.000803125
0.000845335
0.000885027
0.000909029
0.000894614
0.000848095
0.000818734
0.000516285
0.00055799
0.000830002
0.00116565
0.00136174
0.0014482
0.00150127
0.00153598
0.00152578
0.00142024
0.00123451
0.00125271
0.0014393
0.0015289
0.00152123
0.00147022
0.00139735
0.00128872
0.00110538
0.000790364
0.00055266
0.000594942
0.00064594
0.000688636
0.000726422
0.000763815
0.000798541
0.000828755
0.000851175
0.000861393
0.000856477
0.000863678
0.000869373
0.000858307
0.000834271
0.000802158
0.000765196
0.000725453
0.000686777
0.000643911
0.00059248
0.000154715
0.000189942
0.000205093
0.000211016
0.000210127
0.000204743
0.000198113
0.000194567
0.000193392
0.000196165
0.000195544
0.000187504
0.000186943
0.000191727
0.000198561
0.000205815
0.00020819
0.000203165
0.000187558
0.000147511
0.000254964
0.000427438
0.00050113
0.000527333
0.000523083
0.000513643
0.000511935
0.000525766
0.000571545
0.000653279
0.000696817
0.00062757
0.00055594
0.000528661
0.000519795
0.000514515
0.000514457
0.000494268
0.000419063
0.000215809
0.000299261
0.000445241
0.000523459
0.000561287
0.000577554
0.000582256
0.000575682
0.000571908
0.000607992
0.000702249
0.000752482
0.000664276
0.000598076
0.000590445
0.000595302
0.000586818
0.000562527
0.000519107
0.000437035
0.000281648
0.000310278
0.000446738
0.000531532
0.000573277
0.000586667
0.000586612
0.000583997
0.000587602
0.000617375
0.000700159
0.000741131
0.000655806
0.000611462
0.0006022
0.000596377
0.000586811
0.000565325
0.000518268
0.000430339
0.000291901
0.000368774
0.000467178
0.000542765
0.000591573
0.00060629
0.000600247
0.000588646
0.000585549
0.000613176
0.000694908
0.000724995
0.000640258
0.000598471
0.000594488
0.000598723
0.00059605
0.000573284
0.000519538
0.000443484
0.000353256
0.00043295
0.000535877
0.000582163
0.000629505
0.000645605
0.000633118
0.000609949
0.000593478
0.000607341
0.000679514
0.000690501
0.000613601
0.000593467
0.000605062
0.000619863
0.000619974
0.000591406
0.000537973
0.000497834
0.000424434
0.000483497
0.000705747
0.000685669
0.000715294
0.000731187
0.000716237
0.000686333
0.000661869
0.000666979
0.000728137
0.000720418
0.000656338
0.000649965
0.000670133
0.000688524
0.000685206
0.000652068
0.000616477
0.000645062
0.000477698
0.000525204
0.000868619
0.000872636
0.000910688
0.000915695
0.000891209
0.000857058
0.000819008
0.000773926
0.000745255
0.000738601
0.000763113
0.000800267
0.000828161
0.000847425
0.000852193
0.000831006
0.000797422
0.000839291
0.000520483
0.000566012
0.000844665
0.00120189
0.00137233
0.00150127
0.00160061
0.0016618
0.00164298
0.00147826
0.00119633
0.00120943
0.00149623
0.00164771
0.00164644
0.00156564
0.00144836
0.00130118
0.00114261
0.000807478
0.000561609
0.000608108
0.000664265
0.000711207
0.000754498
0.000798541
0.000840064
0.000877
0.000906106
0.000923185
0.000925764
0.000934063
0.000932159
0.000914383
0.000883721
0.000844835
0.00080117
0.000754902
0.000710665
0.000663392
0.000606553
0.000145524
0.000184315
0.000198694
0.000202441
0.000200599
0.000198113
0.000197858
0.000198599
0.00020129
0.000209133
0.000210105
0.000198042
0.000193408
0.00019358
0.000194237
0.000194452
0.000193365
0.000188691
0.000173288
0.000133602
0.000174988
0.000377649
0.000450404
0.000483871
0.000501146
0.000511935
0.000524063
0.000548131
0.000597557
0.000663614
0.00070279
0.000660129
0.000589352
0.000552973
0.000532755
0.000512107
0.000484304
0.000443485
0.000372783
0.000165645
0.000263881
0.000409285
0.000494721
0.000544653
0.000569172
0.000575682
0.000574501
0.000585531
0.000627428
0.000663861
0.000689482
0.000683739
0.00062333
0.00059969
0.000592966
0.00058194
0.000552521
0.000498461
0.000406237
0.000241826
0.000274439
0.000400367
0.000487043
0.000540334
0.000569318
0.000583997
0.000591737
0.000602245
0.000633377
0.000640527
0.000648061
0.000669946
0.000630033
0.000616085
0.000603767
0.000581927
0.00054515
0.000485094
0.000390965
0.000256961
0.000350117
0.000414977
0.000483822
0.000542111
0.000575176
0.000588646
0.000594248
0.000606078
0.000638565
0.000629743
0.000628994
0.000665555
0.000625899
0.000608211
0.000597002
0.000577126
0.000537821
0.000473341
0.00039726
0.000333791
0.000423362
0.00047536
0.000504236
0.000558467
0.000596393
0.000609949
0.000610194
0.000614845
0.00064156
0.000625717
0.000619152
0.000650338
0.000619777
0.000610375
0.000603637
0.000581686
0.000535243
0.000474434
0.00044489
0.000415477
0.000479291
0.000632123
0.00060097
0.000637001
0.000674363
0.000686333
0.000680022
0.000676073
0.000697839
0.000703827
0.00069103
0.000687379
0.000663263
0.000662606
0.000659844
0.00063512
0.000585095
0.000540396
0.000569529
0.000474231
0.000525492
0.000856279
0.000815242
0.000847051
0.000861645
0.000857058
0.000838412
0.000806035
0.00076227
0.000730674
0.0007212
0.000747018
0.000782692
0.000804714
0.000810368
0.000800969
0.000774627
0.000744196
0.000825376
0.00052154
0.000570147
0.000845509
0.00120491
0.00137617
0.00153598
0.0016618
0.00172753
0.0016663
0.00140097
0.00106415
0.00107231
0.00141465
0.00167501
0.00171753
0.00163287
0.0014889
0.00131324
0.0011412
0.000810187
0.000566634
0.000617299
0.000678439
0.000729881
0.000778606
0.000828755
0.000877
0.000921528
0.000959319
0.000987784
0.00100718
0.0010176
0.000998028
0.000968903
0.000929643
0.000883241
0.000832862
0.000780689
0.000730833
0.000678726
0.000616588
0.000135887
0.000164424
0.000179718
0.000187243
0.000191052
0.000194567
0.000198599
0.000203726
0.000211313
0.000224564
0.000227532
0.000211215
0.00020116
0.000195835
0.000191841
0.000187194
0.000181391
0.000172177
0.000156537
0.000128195
0.000165593
0.000350509
0.000426897
0.000472519
0.000502884
0.000525766
0.000548131
0.000578032
0.000592947
0.000494293
0.000529544
0.000654012
0.00062776
0.000584792
0.000554387
0.000524749
0.000488685
0.00043852
0.000357548
0.000159897
0.000216898
0.000380861
0.000474073
0.000528276
0.000556672
0.000571908
0.000585531
0.000604256
0.000571567
0.000393408
0.000418166
0.0006017
0.00064608
0.000619734
0.000597656
0.000574317
0.00053926
0.000481306
0.000383208
0.000183738
0.000243188
0.000362931
0.000455658
0.000520453
0.00056237
0.000587602
0.000602245
0.000612563
0.000553064
0.00038932
0.000415926
0.000559339
0.000639545
0.000628887
0.000611775
0.000582835
0.000535398
0.000463403
0.000358755
0.000222309
0.000333383
0.000371397
0.000437837
0.000506081
0.000554827
0.000585549
0.000606078
0.000620062
0.000544909
0.000431266
0.000471766
0.000545697
0.00063962
0.000625915
0.000602285
0.000566974
0.000512249
0.0004348
0.000354894
0.000317749
0.00041406
0.000429946
0.000445047
0.00050325
0.000557958
0.000593478
0.000614845
0.000627263
0.000539804
0.000486299
0.000530412
0.000532541
0.000633381
0.000620786
0.000595133
0.00055305
0.000489427
0.000421112
0.000402556
0.00040693
0.000473233
0.000564606
0.000533696
0.000575555
0.00062893
0.000661869
0.000676073
0.000683778
0.000619638
0.000588861
0.000619968
0.000601699
0.000670304
0.000659094
0.000638123
0.000595559
0.000531015
0.000480691
0.000513442
0.00046904
0.00052217
0.000828025
0.00075676
0.000788759
0.000811671
0.000819008
0.000806035
0.000772255
0.000720339
0.000698388
0.000715665
0.000704971
0.000746285
0.000770111
0.000771937
0.000753542
0.000721602
0.000690542
0.000792867
0.000518981
0.000569557
0.000828477
0.00116874
0.00135515
0.00152578
0.00164298
0.0016663
0.0015045
0.00120602
0.00114558
0.00117731
0.00121523
0.00151148
0.00166336
0.0016223
0.00148657
0.00129976
0.00110601
0.000794962
0.00056687
0.000621597
0.000686588
0.000741853
0.000795486
0.000851175
0.000906106
0.000959319
0.00100972
0.00105996
0.00111434
0.00112865
0.00107227
0.0010207
0.000968894
0.000913839
0.00085681
0.000799069
0.000744018
0.000687859
0.000621613
0.000130628
0.000155431
0.000169649
0.000179169
0.000186338
0.000193392
0.00020129
0.000211313
0.000222819
0.000242954
0.000239085
0.00022514
0.000212208
0.00020114
0.000192506
0.000184408
0.000175529
0.000164432
0.000149726
0.000125614
0.000160389
0.000371235
0.000449998
0.000504173
0.000541936
0.000571545
0.000597557
0.000592947
0.000439629
0.000559019
0.000603922
0.000493184
0.000642654
0.000640052
0.0006062
0.000569891
0.000528524
0.000470477
0.000390446
0.000155819
0.000175053
0.00038011
0.000474639
0.000534406
0.000576585
0.000607992
0.000627428
0.000571567
0.000370631
0.000753581
0.000804949
0.000400029
0.000596693
0.000664004
0.000641434
0.000604954
0.000557921
0.000491286
0.000398882
0.00016864
0.000218912
0.00034593
0.000455576
0.000531821
0.000583015
0.000617375
0.000633377
0.000553064
0.00039851
0.00100543
0.00107641
0.000433572
0.000557969
0.000657506
0.000643226
0.000607358
0.000553902
0.000476303
0.000356127
0.00018659
0.000322775
0.000340306
0.000405178
0.000490698
0.000562112
0.000613176
0.000638565
0.000544909
0.000468361
0.00127234
0.00136537
0.000514838
0.000542757
0.000657181
0.000636678
0.000586478
0.000512336
0.00041375
0.00032612
0.000307408
0.000405678
0.000400877
0.000401345
0.000463543
0.000542845
0.000607341
0.00064156
0.000539804
0.000536339
0.00149965
0.00161078
0.000590693
0.000528879
0.000648678
0.000617763
0.000550421
0.000460485
0.000382593
0.000377361
0.000399183
0.000465567
0.000519785
0.000485021
0.00053042
0.000606364
0.000666979
0.000697839
0.000619638
0.000644375
0.00164888
0.00176515
0.000690287
0.000593508
0.000678288
0.00064448
0.00057757
0.000492195
0.000440359
0.000479624
0.000462193
0.000514879
0.000789591
0.000698135
0.000729114
0.000759781
0.000773926
0.00076227
0.000720339
0.000765498
0.0016896
0.00180137
0.00079689
0.000692232
0.00072294
0.000725404
0.000703008
0.000666835
0.000640489
0.000753874
0.000512553
0.000562966
0.00078839
0.00108807
0.00127457
0.00142024
0.00147826
0.00140097
0.00120602
0.00122837
0.00169406
0.00177481
0.00127205
0.00121284
0.00140206
0.00146542
0.00139029
0.0012284
0.00103303
0.000758362
0.000561131
0.000619465
0.00068621
0.000743491
0.000800896
0.000861393
0.000923185
0.000987784
0.00105996
0.0011478
0.00124804
0.00126579
0.00116348
0.00107281
0.000998681
0.000932174
0.00086832
0.00080574
0.000746711
0.000688395
0.000620138
0.000128049
0.000150575
0.000164262
0.000175837
0.000186006
0.000196165
0.000209133
0.000224564
0.000242954
0.000250615
0.000247493
0.00023994
0.000228855
0.000212162
0.000197753
0.000186048
0.000174295
0.000161291
0.000147067
0.00012461
0.000162386
0.000421083
0.000509591
0.000572597
0.000620947
0.000653279
0.000663614
0.000494293
0.000559019
0.00037826
0.00039357
0.000613186
0.000545623
0.000707936
0.000693647
0.000655181
0.000601083
0.000531352
0.000437542
0.000156668
0.000180057
0.000431117
0.000527468
0.0006063
0.00066835
0.000702249
0.000663861
0.000393408
0.000753581
0.000560054
0.000588351
0.000802126
0.000420134
0.000695198
0.000742235
0.000708429
0.000642006
0.00056705
0.000468238
0.000173354
0.000213162
0.00039526
0.000504099
0.000592559
0.000661808
0.000700159
0.000640527
0.00038932
0.00100543
0.000757892
0.000795698
0.00106467
0.000407009
0.000653237
0.000729944
0.00069777
0.000628762
0.000547554
0.000453452
0.000184182
0.000318597
0.00033661
0.000405334
0.00053118
0.000634397
0.000694908
0.000629743
0.000431266
0.00127234
0.000976572
0.00102101
0.00134649
0.000450988
0.000635578
0.000724121
0.0006777
0.000586095
0.00044991
0.000336139
0.000303839
0.00039919
0.00039094
0.00038699
0.000457074
0.000586292
0.000679514
0.000625717
0.000486299
0.00149965
0.0012099
0.00125778
0.00158932
0.000503688
0.00062441
0.000701158
0.000618416
0.00047996
0.00038134
0.00037422
0.000393671
0.000457219
0.000497723
0.00046537
0.000515454
0.000631758
0.000728137
0.000703827
0.000588861
0.00164888
0.00143621
0.00148338
0.00174418
0.000591419
0.000680803
0.000713971
0.000616623
0.000490978
0.000431542
0.00046627
0.000454876
0.000504362
0.000761217
0.000655113
0.000679985
0.000720245
0.000745255
0.000730674
0.000698388
0.0016896
0.00161205
0.00165474
0.00178772
0.000690304
0.000692343
0.000700742
0.000671394
0.0006286
0.000608745
0.000726976
0.000503124
0.000550059
0.000735847
0.000981525
0.00114407
0.00123451
0.00119633
0.00106415
0.00114558
0.00169406
0.0017183
0.00175968
0.00177121
0.00117052
0.00106221
0.00118453
0.00121286
0.00111106
0.000937205
0.000709314
0.000549231
0.000608744
0.000675131
0.000731759
0.000791834
0.000856477
0.000925764
0.00100718
0.00111434
0.00124804
0.00132208
0.00132851
0.00126578
0.00112932
0.00101892
0.000935105
0.000863798
0.000797273
0.000735583
0.00067799
0.00061009
0.000125935
0.000147163
0.000160588
0.000172835
0.000184151
0.000195544
0.000210105
0.000227532
0.000239085
0.000247493
0.00024129
0.000232451
0.000222944
0.000207775
0.000194015
0.000182695
0.000171334
0.00015903
0.000145435
0.000123526
0.000161954
0.000438397
0.000535251
0.000605731
0.00066232
0.000696817
0.00070279
0.000529544
0.000603922
0.00039357
0.000384857
0.000605063
0.000566152
0.000721835
0.000706571
0.000666502
0.000608419
0.000537374
0.000444009
0.00015686
0.000180125
0.000447117
0.000555796
0.000646563
0.000721231
0.000752482
0.000689482
0.000418166
0.000804949
0.000588351
0.000577607
0.000796628
0.000434517
0.000711675
0.000767361
0.000733073
0.000658448
0.000574692
0.000473858
0.000176044
0.000214513
0.000406577
0.000520564
0.000619153
0.000705173
0.000741131
0.000648061
0.000415925
0.00107641
0.000795697
0.000784609
0.00107297
0.000425859
0.000663663
0.000762434
0.000730945
0.000649035
0.000558402
0.00045784
0.00019511
0.00032495
0.000339922
0.000409193
0.000546588
0.000663672
0.000724995
0.000628994
0.000471766
0.00136537
0.00102101
0.00101273
0.00137885
0.000488391
0.000642633
0.0007536
0.000705374
0.000598264
0.000455259
0.000343771
0.000315717
0.000404599
0.00039509
0.000389058
0.000458702
0.00059261
0.000690501
0.000619152
0.000530412
0.00161078
0.00125778
0.0012552
0.00164428
0.000554942
0.000630277
0.00071783
0.000629624
0.000482193
0.000386938
0.000383644
0.000401608
0.000462285
0.000506687
0.000470848
0.000517505
0.000625835
0.000720418
0.00069103
0.000619968
0.00176515
0.00148338
0.00148802
0.00181717
0.000651754
0.000695669
0.000727686
0.000626261
0.000500147
0.000440918
0.000477356
0.000461663
0.00050931
0.000772491
0.000666542
0.000689651
0.000721469
0.000738601
0.0007212
0.000715665
0.00180137
0.00165474
0.00166541
0.00187174
0.00074535
0.000718212
0.000724002
0.000694883
0.000651212
0.000625471
0.00074289
0.000509804
0.000555247
0.000750877
0.00100248
0.00116457
0.00125271
0.00120943
0.00107231
0.00117731
0.00177481
0.00175968
0.00177775
0.00182981
0.00121182
0.00107233
0.00117965
0.00122418
0.00113744
0.000971261
0.000731708
0.000556703
0.000613771
0.00068072
0.000737852
0.000798355
0.000863678
0.000934063
0.0010176
0.00112865
0.00126579
0.00132851
0.00133118
0.00127735
0.00114078
0.00102831
0.000942615
0.000870834
0.000804635
0.000743499
0.000685831
0.000617682
0.000124868
0.000145083
0.000157942
0.000168541
0.000178153
0.000187504
0.000198042
0.000211215
0.00022514
0.00023994
0.000232451
0.000214614
0.00020341
0.000193855
0.000185972
0.000178271
0.000169617
0.000158818
0.000144961
0.000123081
0.000157729
0.000387648
0.000474042
0.000539594
0.000589032
0.00062757
0.000660129
0.000654012
0.000493184
0.000613186
0.000605063
0.000510884
0.000653881
0.000652566
0.000621229
0.000584772
0.00053951
0.000477873
0.000397841
0.00015531
0.000173921
0.000383846
0.000484344
0.000564765
0.000622052
0.000664276
0.000683739
0.0006017
0.000400029
0.000802126
0.000796628
0.000403293
0.000608621
0.000688665
0.000669203
0.000627862
0.000571025
0.000495933
0.000399666
0.000172755
0.000222095
0.000344042
0.000464681
0.000553195
0.000614212
0.000655806
0.000669946
0.000559339
0.000433572
0.00106467
0.00107297
0.000441977
0.000559636
0.000679018
0.000668547
0.000629441
0.000571976
0.000491346
0.000364475
0.00020533
0.000331388
0.000343722
0.000405563
0.000495943
0.000579046
0.000640258
0.000665555
0.000545697
0.000514838
0.00134649
0.00137885
0.000541833
0.000547251
0.0006797
0.000660985
0.000602412
0.000517285
0.000415612
0.000337992
0.000326752
0.000413279
0.000407548
0.000405262
0.0004643
0.000543954
0.000613601
0.000650338
0.000532541
0.000590693
0.00158932
0.00164428
0.000635391
0.000536026
0.000660329
0.000626116
0.000551887
0.000460633
0.00039054
0.000393147
0.000411671
0.000472623
0.000540637
0.000498032
0.000534143
0.000600041
0.000656338
0.000687379
0.000601699
0.000690287
0.00174418
0.00181717
0.000748217
0.000610572
0.000691115
0.000654037
0.000587567
0.000506989
0.00046035
0.000505145
0.000472877
0.000521495
0.000813161
0.000719192
0.000740714
0.000758535
0.000763113
0.000747018
0.000704971
0.00079689
0.00178772
0.00187174
0.000855432
0.000718195
0.000749384
0.000758023
0.000742242
0.000709574
0.000679243
0.000788717
0.000522849
0.000569267
0.000812095
0.00112013
0.00129708
0.0014393
0.00149623
0.00141465
0.00121523
0.00127205
0.00177121
0.00182981
0.00132193
0.00121411
0.00136873
0.00146895
0.00143025
0.00128988
0.00110313
0.000801423
0.000571786
0.000624706
0.000692245
0.00075014
0.000808061
0.000869373
0.000932159
0.000998028
0.00107227
0.00116348
0.00126578
0.00127735
0.00117571
0.00108283
0.00100613
0.000939317
0.000876406
0.000814954
0.000756545
0.000698032
0.000629297
0.000126246
0.000149277
0.000162885
0.000172158
0.000180116
0.000186943
0.000193408
0.00020116
0.000212208
0.000228855
0.000222944
0.00020341
0.00019463
0.000190232
0.000186587
0.000182048
0.000175444
0.000165345
0.000149533
0.000124245
0.000158302
0.000346384
0.00042461
0.000479631
0.000521401
0.00055594
0.000589352
0.00062776
0.000642654
0.000545623
0.000566152
0.000653881
0.000621313
0.000581102
0.0005508
0.000519285
0.000480264
0.000426477
0.000347255
0.000155419
0.000201361
0.000374745
0.000474558
0.000534111
0.000570742
0.000598076
0.00062333
0.00064608
0.000596693
0.000420134
0.000434517
0.000608621
0.000651055
0.000622854
0.00059394
0.000564063
0.000525666
0.000467825
0.000372194
0.000182818
0.000243664
0.000358089
0.000455299
0.000528937
0.000579817
0.000611462
0.000630033
0.000639545
0.000557969
0.000407009
0.000425859
0.000559636
0.000641884
0.000629752
0.000612605
0.000584156
0.000533452
0.000456963
0.000352965
0.000232108
0.000341637
0.000374011
0.000436212
0.0005055
0.000559851
0.000598471
0.000625899
0.00063962